{
    "cas_no": "83-05-6",
    "key_name": "Bis(4-chlorophenyl)acetic acid",
    "cn_name": "二(对氯苯基)乙酸;2,2-双对氯苯基乙酸;滴滴埃;",
    "alternate_name": "Benzeneacetic acid, 4-chloro-α-(4-chlorophenyl)-;Acetic acid, bis(<em>p</em>-chlorophenyl)-;4-Chloro-α-(4-chlorophenyl)benzeneacetic acid;DDA;Bis(<em>p</em>-chlorophenyl)acetic acid;Di(<em>p</em>-chlorophenyl)acetic acid;Dichlorodiphenylacetic acid;<em>p</em>,<em>p</em>′-DDA;Bis(4-chlorophenyl)acetic acid;2,2-Bis(4-chlorophenyl)acetic acid;DDA (degradation product);NSC 4279",
    "duplicated_cas_no": "",
    "SMILES": "C(C(O)=O)(C1=CC=C(Cl)C=C1)C2=CC=C(Cl)C=C2",
    "meta_data": {
        "InChI": "InChI=1S/C14H10Cl2O2/c15-11-5-1-9(2-6-11)13(14(17)18)10-3-7-12(16)8-4-10/h1-8,13H,(H,17,18)",
        "InChIKey": null,
        "Canonical SMILES": "O=C(O)C(C1=CC=C(Cl)C=C1)C2=CC=C(Cl)C=C2",
        "Molecular Formula": "C<sub>14</sub>H<sub>10</sub>Cl<sub>2</sub>O<sub>2</sub>",
        "Molecular Mass": "281.13",
        "Melting Point": "163-164 °C"
    }
}