{
    "cas_no": "98-18-0",
    "key_name": "3-Aminobenzenesulfonamide",
    "cn_name": "间氨基苯磺酰胺;",
    "alternate_name": "Benzenesulfonamide, 3-amino-;Metanilamide;3-Aminobenzenesulfonamide;<em>m</em>-Aminobenzenesulfonamide;3-Aminosulfonylaniline;<em>m</em>-Sulfamoylaniline;NSC 7542;3-Sulfamoylaniline;3-Sulfamoylphenylamine;3-Aminobenzene-1-sulfonamide",
    "duplicated_cas_no": "4431-73-6",
    "SMILES": "S(N)(=O)(=O)C1=CC(N)=CC=C1",
    "meta_data": {
        "InChI": "InChI=1S/C6H8N2O2S/c7-5-2-1-3-6(4-5)11(8,9)10/h1-4H,7H2,(H2,8,9,10)",
        "InChIKey": null,
        "Canonical SMILES": "O=S(=O)(N)C=1C=CC=C(N)C1",
        "Molecular Formula": "C<sub>6</sub>H<sub>8</sub>N<sub>2</sub>O<sub>2</sub>S",
        "Molecular Mass": "172.20",
        "Melting Point": "139-141 °C"
    }
}