{
    "cas_no": "15926-18-8",
    "key_name": "Isobutyrylglycine",
    "cn_name": null,
    "alternate_name": "Glycine, <em>N</em>-(2-methyl-1-oxopropyl)-;Glycine, <em>N</em>-isobutyryl-;<em>N</em>-(2-Methyl-1-oxopropyl)glycine;Isobutyrylglycine;<em>N</em>-Isobutyrylglycine;2-(Isobutyramido)acetic acid;(Isobutyrylamino)acetic acid;2-(2-Methylpropanoylamino)acetic acid;2-(Isobutyrylamino)acetic acid;2-(2-Methylpropanamido)acetic acid",
    "duplicated_cas_no": "",
    "SMILES": "C(NCC(O)=O)(C(C)C)=O",
    "meta_data": {
        "InChI": "InChI=1S/C6H11NO3/c1-4(2)6(10)7-3-5(8)9/h4H,3H2,1-2H3,(H,7,10)(H,8,9)",
        "InChIKey": null,
        "Canonical SMILES": "O=C(O)CNC(=O)C(C)C",
        "Molecular Formula": "C<sub>6</sub>H<sub>11</sub>NO<sub>3</sub>",
        "Molecular Mass": "145.16",
        "Melting Point": "103-104 °C"
    }
}