{
    "cas_no": "1041642-14-1",
    "key_name": "Borate(1-), trifluoro[<em>rel</em>-(1<em>R</em>,2<em>R</em>)-2-methylcyclohexyl]-, potassium (1:1), (<em>T</em>-4)-",
    "cn_name": null,
    "alternate_name": "Borate(1-), trifluoro[<em>rel</em>-(1<em>R</em>,2<em>R</em>)-2-methylcyclohexyl]-, potassium (1:1), (<em>T</em>-4)-",
    "duplicated_cas_no": "",
    "SMILES": "[B+3]([F-])([F-])([F-])[CH-]1[C@H](C)CCCC1.[K+]",
    "meta_data": {
        "InChI": "InChI=1/C7H13BF3.K/c1-6-4-2-3-5-7(6)8(9,10)11;/h6-7H,2-5H2,1H3;/q-1;+1/t6-;/s2",
        "InChIKey": null,
        "Canonical SMILES": "[K+].[F-][B+3]([F-])([F-])[CH-]1CCCCC1C",
        "Molecular Formula": "C<sub>7</sub>H<sub>13</sub>BF<sub>3</sub>.K",
        "Molecular Mass": "",
        "Melting Point": "&gt;250 °C"
    }
}