{
    "cas_no": "55404-29-0",
    "key_name": "4-Nitro-1(2<em>H</em>)-isoquinolinone",
    "cn_name": "4-硝基异喹啉-1-醇;",
    "alternate_name": "1(2<em>H</em>)-Isoquinolinone, 4-nitro-;Isocarbostyril, 4-nitro-;4-Nitro-1(2<em>H</em>)-isoquinolinone;4-Nitro-1-isoquinolinol;4-Nitro-1-hydroxyisoquinoline;1-Hydroxy-4-nitroisoquinoline",
    "duplicated_cas_no": "",
    "SMILES": "N(=O)(=O)C=1C=2C(C(=O)NC1)=CC=CC2",
    "meta_data": {
        "InChI": "InChI=1S/C9H6N2O3/c12-9-7-4-2-1-3-6(7)8(5-10-9)11(13)14/h1-5H,(H,10,12)",
        "InChIKey": null,
        "Canonical SMILES": "O=C1NC=C(C=2C=CC=CC12)N(=O)=O",
        "Molecular Formula": "C<sub>9</sub>H<sub>6</sub>N<sub>2</sub>O<sub>3</sub>",
        "Molecular Mass": "190.16",
        "Melting Point": "236-237 °C"
    }
}