{
    "cas_no": "6282-00-4",
    "key_name": "<em>N</em>,<em>N</em>-Dipropylformamide",
    "cn_name": null,
    "alternate_name": "Formamide, <em>N</em>,<em>N</em>-dipropyl-;<em>N</em>,<em>N</em>-Dipropylformamide;<em>N</em>-<em>N</em>-Di-<em>n</em>-propylformamide;NSC 5944",
    "duplicated_cas_no": "",
    "SMILES": "N(CCC)(CCC)C=O",
    "meta_data": {
        "InChI": "InChI=1S/C7H15NO/c1-3-5-8(7-9)6-4-2/h7H,3-6H2,1-2H3",
        "InChIKey": null,
        "Canonical SMILES": "O=CN(CCC)CCC",
        "Molecular Formula": "C<sub>7</sub>H<sub>15</sub>NO",
        "Molecular Mass": "129.20",
        "Boiling Point": "208 °C",
        "Density": "0.889 g/cm³ @ Temp: 20 °C"
    }
}