{
    "cas_no": "171364-80-0",
    "key_name": "Methyl 4-(4,4,5,5-tetramethyl-1,3,2-dioxaborolan-2-yl)benzoate",
    "cn_name": "4-甲氧甲酰苯硼酸频哪醇酯;4-(4,4,5,5-四甲基-1,3,2-二氧杂戊硼烷-2-基)苯甲酸甲酯;",
    "alternate_name": "Benzoic acid, 4-(4,4,5,5-tetramethyl-1,3,2-dioxaborolan-2-yl)-, methyl ester;2-(4-Carbomethoxyphenyl)-4,4,5,5-tetramethyl-1,3,2-dioxaborolane;4-(4,4,5,5-Tetramethyl-[1,3,2]dioxaborolan-2-yl)benzoic acid methyl ester;Methyl 4-(4,4,5,5-tetramethyl-1,3,2-dioxaborolan-2-yl)benzoate;2-(4-Methoxycarbonylphenyl)-4,4,5,5-tetramethyl-1,3,2-dioxaborolane;4-Methoxycarbonylphenylboronic acid pinacol ester",
    "duplicated_cas_no": "",
    "SMILES": "CC1(C)OB(OC1(C)C)C2=CC=C(C(OC)=O)C=C2",
    "meta_data": {
        "InChI": "InChI=1S/C14H19BO4/c1-13(2)14(3,4)19-15(18-13)11-8-6-10(7-9-11)12(16)17-5/h6-9H,1-5H3",
        "InChIKey": null,
        "Canonical SMILES": "O=C(OC)C1=CC=C(C=C1)B2OC(C)(C)C(O2)(C)C",
        "Molecular Formula": "C<sub>14</sub>H<sub>19</sub>BO<sub>4</sub>",
        "Molecular Mass": "262.11",
        "Melting Point": "79-80.5 °C"
    }
}