{
    "cas_no": "1214-39-7",
    "key_name": "Benzylaminopurine",
    "cn_name": "6-苄氨基嘌呤;6-(N-苄基)氨基嘌呤;",
    "alternate_name": "9<em>H</em>-Purin-6-amine, <em>N</em>-(phenylmethyl)-;Adenine, <em>N</em>-benzyl-;1<em>H</em>-Purin-6-amine, <em>N</em>-(phenylmethyl)-;Adenine, <em>N</em><sup>6</sup>-benzyl-;<em>N</em>-(Phenylmethyl)-9<em>H</em>-purin-6-amine;Benzyladenine;SD 4901;6-Benzyladenine;<em>N</em>-Benzyladenine;6-(Benzylamino)purine;SQ 4609;BA (growth stimulant);BAP;BAP (growth stimulant);BA;6-BA;<em>N</em><sup>6</sup>-Benzyladenine;Benzylaminopurine;6-BAP;6-(<em>N</em>-Benzylamino)purine;ABG 3034;<em>N</em>-(Phenylmethyl)-1<em>H</em>-purin-6-amine;Cytokinin B;<em>N</em><sup>6</sup>-(Benzylamino)purine;Pro-Shear;N<sup>6</sup>-Benzylaminopurine;TOG-L 101;CyLex;Paturyl;Paturyl 10WSC;NSC 40818;MaxCel;6-Benzylaminoadenine;CTP;Bongrow;Cytokinin 6BA",
    "duplicated_cas_no": "124786-41-0;3458-19-3",
    "SMILES": "N(CC1=CC=CC=C1)C2=C3C(N=CN3)=NC=N2",
    "meta_data": {
        "InChI": "InChI=1S/C12H11N5/c1-2-4-9(5-3-1)6-13-11-10-12(15-7-14-10)17-8-16-11/h1-5,7-8H,6H2,(H2,13,14,15,16,17)",
        "InChIKey": null,
        "Canonical SMILES": "N1=CN=C(NCC=2C=CC=CC2)C=3NC=NC13",
        "Molecular Formula": "C<sub>12</sub>H<sub>11</sub>N<sub>5</sub>",
        "Molecular Mass": "225.25",
        "Melting Point": "233 °C"
    }
}