{
    "cas_no": "590-19-2",
    "key_name": "1,2-Butadiene",
    "cn_name": "1,2-丁二烯;",
    "alternate_name": "1,2-Butadiene;Allene, methyl-;Methylallene;1-Methylallene;Butadiene-1,2",
    "duplicated_cas_no": "",
    "SMILES": "C(=C=C)C",
    "meta_data": {
        "InChI": "InChI=1S/C4H6/c1-3-4-2/h4H,1H2,2H3",
        "InChIKey": null,
        "Canonical SMILES": "C(=C)=CC",
        "Molecular Formula": "C<sub>4</sub>H<sub>6</sub>",
        "Molecular Mass": "54.09",
        "Boiling Point": "10.9 °C",
        "Melting Point": "-136.2 °C",
        "Density": "0.676 g/cm³ @ Temp: 0 °C"
    }
}