{
    "cas_no": "24463-15-8",
    "key_name": "1-Pyrenemethanol",
    "cn_name": null,
    "alternate_name": "1-Pyrenemethanol;1-(1-Hydroxymethyl)pyrene;1-Hydroxymethylpyrene",
    "duplicated_cas_no": "",
    "SMILES": "C(O)C1=C2C3=C4C(C=C2)=CC=CC4=CC=C3C=C1",
    "meta_data": {
        "InChI": "InChI=1S/C17H12O/c18-10-14-7-6-13-5-4-11-2-1-3-12-8-9-15(14)17(13)16(11)12/h1-9,18H,10H2",
        "InChIKey": null,
        "Canonical SMILES": "OCC1=CC=C2C=CC3=CC=CC=4C=CC1=C2C34",
        "Molecular Formula": "C<sub>17</sub>H<sub>12</sub>O",
        "Molecular Mass": "232.28",
        "Melting Point": "123-124 °C"
    }
}