{
    "cas_no": "79-09-4",
    "key_name": "Propionic acid",
    "cn_name": "丙酸;",
    "alternate_name": "Propanoic acid;Propionic acid;Carboxyethane;Ethylformic acid;Metacetonic acid;Methylacetic acid;Prozoin;Pseudoacetic acid;Ethanecarboxylic acid;Luprosil;MonoProp;Antischim B;Propkorn;Propcorn;Adofeed;Toxi-Check",
    "duplicated_cas_no": "784139-72-6;1032826-44-0",
    "SMILES": "C(CC)(O)=O",
    "meta_data": {
        "InChI": "InChI=1S/C3H6O2/c1-2-3(4)5/h2H2,1H3,(H,4,5)",
        "InChIKey": null,
        "Canonical SMILES": "O=C(O)CC",
        "Molecular Formula": "C<sub>3</sub>H<sub>6</sub>O<sub>2</sub>",
        "Molecular Mass": "74.08",
        "Boiling Point": "141.1 °C",
        "Melting Point": "-20.7 °C",
        "Density": "0.9930 g/cm³ @ Temp: 20 °C"
    }
}