{
    "cas_no": "4708-04-7",
    "key_name": "<em>P</em>-Propylphosphonic dichloride",
    "cn_name": null,
    "alternate_name": "Phosphonic dichloride, <em>P</em>-propyl-;Phosphonic dichloride, propyl-;<em>P</em>-Propylphosphonic dichloride;1-Propanephosphonyl chloride;Propylphosphonic dichloride;Dichloropropylphosphine oxide;Propylphosphonyl dichloride;Propanephosphonic dichloride;1-Dichlorophosphorylpropane",
    "duplicated_cas_no": "1195249-25-2",
    "SMILES": "C(P(Cl)(Cl)=O)CC",
    "meta_data": {
        "InChI": "InChI=1S/C3H7Cl2OP/c1-2-3-7(4,5)6/h2-3H2,1H3",
        "InChIKey": null,
        "Canonical SMILES": "O=P(Cl)(Cl)CCC",
        "Molecular Formula": "C<sub>3</sub>H<sub>7</sub>Cl<sub>2</sub>OP",
        "Molecular Mass": "160.97",
        "Boiling Point": "76-77 °C @ Press: 11 Torr",
        "Density": "1.2922 g/cm³ @ Temp: 20 °C"
    }
}