{
    "cas_no": "53297-68-0",
    "key_name": "4-Amino-3-chlorobenzenesulfonamide",
    "cn_name": null,
    "alternate_name": "Benzenesulfonamide, 4-amino-3-chloro-;Sulfanilamide, 3-chloro-;4-Amino-3-chlorobenzenesulfonamide;2-Chloro-4-sulfamoylaniline",
    "duplicated_cas_no": "",
    "SMILES": "S(N)(=O)(=O)C1=CC(Cl)=C(N)C=C1",
    "meta_data": {
        "InChI": "InChI=1S/C6H7ClN2O2S/c7-5-3-4(12(9,10)11)1-2-6(5)8/h1-3H,8H2,(H2,9,10,11)",
        "InChIKey": null,
        "Canonical SMILES": "O=S(=O)(N)C1=CC=C(N)C(Cl)=C1",
        "Molecular Formula": "C<sub>6</sub>H<sub>7</sub>ClN<sub>2</sub>O<sub>2</sub>S",
        "Molecular Mass": "206.65",
        "Melting Point": "161 °C"
    }
}