{
    "cas_no": "72432-10-1",
    "key_name": "Aniracetam",
    "cn_name": "阿尼西坦;1-(4-甲氧基苯酰基)-2-吡咯烷酮;",
    "alternate_name": "2-Pyrrolidinone, 1-(4-methoxybenzoyl)-;1-(4-Methoxybenzoyl)-2-pyrrolidinone;Aniracetam;Ro 13-5057/001;Ro 13-5057;Draganon;Ro 13-3057;Sarpul;Ampamet",
    "duplicated_cas_no": "75878-25-0",
    "SMILES": "C(=O)(N1C(=O)CCC1)C2=CC=C(OC)C=C2",
    "meta_data": {
        "InChI": "InChI=1S/C12H13NO3/c1-16-10-6-4-9(5-7-10)12(15)13-8-2-3-11(13)14/h4-7H,2-3,8H2,1H3",
        "InChIKey": null,
        "Canonical SMILES": "O=C(C1=CC=C(OC)C=C1)N2C(=O)CCC2",
        "Molecular Formula": "C<sub>12</sub>H<sub>13</sub>NO<sub>3</sub>",
        "Molecular Mass": "219.24",
        "Melting Point": "121-122 °C"
    }
}