{
    "cas_no": "125072-69-7",
    "key_name": "(3<em>R</em>,4<em>S</em>)-Dihydro-3-hydroxy-3,4-bis[(4-hydroxy-3-methoxyphenyl)methyl]-2(3<em>H</em>)-furanone",
    "cn_name": null,
    "alternate_name": "2(3<em>H</em>)-Furanone, dihydro-3-hydroxy-3,4-bis[(4-hydroxy-3-methoxyphenyl)methyl]-, (3<em>R</em>,4<em>S</em>)-;2(3<em>H</em>)-Furanone, dihydro-3-hydroxy-3,4-bis[(4-hydroxy-3-methoxyphenyl)methyl]-, (3<em>R</em>-<em>trans</em>)-;(3<em>R</em>,4<em>S</em>)-Dihydro-3-hydroxy-3,4-bis[(4-hydroxy-3-methoxyphenyl)methyl]-2(3<em>H</em>)-furanone;Epinortrachelogenin;(-)-Epinortrachelogenin",
    "duplicated_cas_no": "",
    "SMILES": "C([C@@H]1[C@@](CC2=CC(OC)=C(O)C=C2)(O)C(=O)OC1)C3=CC(OC)=C(O)C=C3",
    "meta_data": {
        "InChI": "InChI=1S/C20H22O7/c1-25-17-8-12(3-5-15(17)21)7-14-11-27-19(23)20(14,24)10-13-4-6-16(22)18(9-13)26-2/h3-6,8-9,14,21-22,24H,7,10-11H2,1-2H3/t14-,20+/m0/s1",
        "InChIKey": null,
        "Canonical SMILES": "O=C1OCC(CC2=CC=C(O)C(OC)=C2)C1(O)CC3=CC=C(O)C(OC)=C3",
        "Molecular Formula": "C<sub>20</sub>H<sub>22</sub>O<sub>7</sub>",
        "Molecular Mass": "374.38",
        "Melting Point": "170-172 °C"
    }
}