{
    "cas_no": "5803-30-5",
    "key_name": "1-(2,5-Dimethoxyphenyl)-1-propanone",
    "cn_name": "2,5-二甲氧基苯丙酮;",
    "alternate_name": "1-Propanone, 1-(2,5-dimethoxyphenyl)-;Propiophenone, 2′,5′-dimethoxy-;1-(2,5-Dimethoxyphenyl)-1-propanone;2′,5′-Dimethoxypropiophenone;1-(2,5-Dimethoxyphenyl)propanone",
    "duplicated_cas_no": "",
    "SMILES": "C(CC)(=O)C1=C(OC)C=CC(OC)=C1",
    "meta_data": {
        "InChI": "InChI=1S/C11H14O3/c1-4-10(12)9-7-8(13-2)5-6-11(9)14-3/h5-7H,4H2,1-3H3",
        "InChIKey": null,
        "Canonical SMILES": "O=C(C1=CC(OC)=CC=C1OC)CC",
        "Molecular Formula": "C<sub>11</sub>H<sub>14</sub>O<sub>3</sub>",
        "Molecular Mass": "194.23",
        "Boiling Point": "167-169 °C @ Press: 13 Torr"
    }
}