{
    "cas_no": "13369-74-9",
    "key_name": "3,5-Dimethyl-1-(2-propen-1-yl)-1<em>H</em>-pyrazole",
    "cn_name": "1-烯丙基-3,5-二甲基吡唑;",
    "alternate_name": "1<em>H</em>-Pyrazole, 3,5-dimethyl-1-(2-propen-1-yl)-;Pyrazole, 1-allyl-3,5-dimethyl-;1<em>H</em>-Pyrazole, 3,5-dimethyl-1-(2-propenyl)-;3,5-Dimethyl-1-(2-propen-1-yl)-1<em>H</em>-pyrazole;<em>N</em>-Allyl-3,5-dimethylpyrazole;1-Allyl-3,5-dimethylpyrazole;3,5-Dimethyl-1-prop-2-enylpyrazole",
    "duplicated_cas_no": "",
    "SMILES": "C(C=C)N1C(C)=CC(C)=N1",
    "meta_data": {
        "InChI": "InChI=1S/C8H12N2/c1-4-5-10-8(3)6-7(2)9-10/h4,6H,1,5H2,2-3H3",
        "InChIKey": null,
        "Canonical SMILES": "N1=C(C=C(N1CC=C)C)C",
        "Molecular Formula": "C<sub>8</sub>H<sub>12</sub>N<sub>2</sub>",
        "Molecular Mass": "136.19",
        "Boiling Point": "187-190 °C @ Press: 746 Torr",
        "Density": "0.9559 g/cm³ @ Temp: 20 °C"
    }
}