{
    "cas_no": "53312-79-1",
    "key_name": "3-Amino-4-chlorobenzonitrile",
    "cn_name": "3-氨基-4-氯苄腈;",
    "alternate_name": "Benzonitrile, 3-amino-4-chloro-;3-Amino-4-chlorobenzonitrile;2-Chloro-5-cyanoaniline",
    "duplicated_cas_no": "",
    "SMILES": "C(#N)C1=CC(N)=C(Cl)C=C1",
    "meta_data": {
        "InChI": "InChI=1S/C7H5ClN2/c8-6-2-1-5(4-9)3-7(6)10/h1-3H,10H2",
        "InChIKey": null,
        "Canonical SMILES": "N#CC1=CC=C(Cl)C(N)=C1",
        "Molecular Formula": "C<sub>7</sub>H<sub>5</sub>ClN<sub>2</sub>",
        "Molecular Mass": "152.58",
        "Melting Point": "92 °C"
    }
}