{
    "cas_no": "86-95-3",
    "key_name": "2,4-Dihydroxyquinoline",
    "cn_name": "2,4-二羟基喹啉;4-羟基-2-(1H)-喹啉酮;",
    "alternate_name": "2(1<em>H</em>)-Quinolinone, 4-hydroxy-;2,4-Quinolinediol;Carbostyril, 4-hydroxy-;4-Hydroxy-2(1<em>H</em>)-quinolinone;4-Hydroxycarbostyril;2,4-Dihydroxyquinoline;4-Hydroxy-1,2-dihydro-2-quinolinone;4-Hydroxy-2-quinolinone;4-Hydroxy-2-quinolone;4-Hydroxyquinolin-2(1<em>H</em>)-one;NSC 12465;NSC 13962;4-Hydroxy-1<em>H</em>-quinolin-2-one;4-Hydroxyquinoline-2(1<em>H</em>)-one;DHQ;2,4-Dihydroxyquinolone",
    "duplicated_cas_no": "1677-28-7;70254-43-2",
    "SMILES": "OC=1C=2C(NC(=O)C1)=CC=CC2",
    "meta_data": {
        "InChI": "InChI=1S/C9H7NO2/c11-8-5-9(12)10-7-4-2-1-3-6(7)8/h1-5H,(H2,10,11,12)",
        "InChIKey": null,
        "Canonical SMILES": "O=C1C=C(O)C=2C=CC=CC2N1",
        "Molecular Formula": "C<sub>9</sub>H<sub>7</sub>NO<sub>2</sub>",
        "Molecular Mass": "161.16",
        "Boiling Point": "330-336 °C",
        "Melting Point": "355 °C"
    }
}