{
    "cas_no": "126-84-1",
    "key_name": "2,2-Diethoxypropane",
    "cn_name": "2,2-二乙氧基丙烷;",
    "alternate_name": "Propane, 2,2-diethoxy-;Acetone, diethyl acetal;2,2-Diethoxypropane;Acetone diethyl ketal;NSC 528014",
    "duplicated_cas_no": "",
    "SMILES": "C(OCC)(OCC)(C)C",
    "meta_data": {
        "InChI": "InChI=1S/C7H16O2/c1-5-8-7(3,4)9-6-2/h5-6H2,1-4H3",
        "InChIKey": null,
        "Canonical SMILES": "O(CC)C(OCC)(C)C",
        "Molecular Formula": "C<sub>7</sub>H<sub>16</sub>O<sub>2</sub>",
        "Molecular Mass": "132.20",
        "Boiling Point": "114 °C",
        "Density": "0.824 g/cm³ @ Temp: 25 °C"
    }
}