{
    "cas_no": "2425-79-8",
    "key_name": "1,4-Butanediol diglycidyl ether",
    "cn_name": "1,4-丁二醇二缩水甘油醚;",
    "alternate_name": "Oxirane, 2,2′-[1,4-butanediylbis(oxymethylene)]bis-;Butane, 1,4-bis(2,3-epoxypropoxy)-;2,2′-[1,4-Butanediylbis(oxymethylene)]bis[oxirane];1,4-Butanediol diglycidyl ether;1,4-Bis(2,3-epoxypropoxy)butane;Tetramethylene glycol diglycidyl ether;1,4-Bis(glycidyloxy)butane;[Tetramethylenebis(oxymethylene)]dioxirane;1,4-Bis(2,3-epoxypropyloxy)butane;1,4-Diglycidyloxybutane;1,4-Butylene glycol diglycidyl ether;NSC 24834;BDDGE;1,4-Bis(oxiran-2-ylmethoxy)butane;Diluent 600;2-[4-(Oxiran-2-ylmethoxy)butoxymethyl]oxirane;BDDE;Xingchen 3622;BG 622",
    "duplicated_cas_no": "54350-59-3;162786-24-5",
    "SMILES": "C(OCCCCOCC1CO1)C2CO2",
    "meta_data": {
        "InChI": "InChI=1S/C10H18O4/c1(3-11-5-9-7-13-9)2-4-12-6-10-8-14-10/h9-10H,1-8H2",
        "InChIKey": null,
        "Canonical SMILES": "O(CCCCOCC1OC1)CC2OC2",
        "Molecular Formula": "C<sub>10</sub>H<sub>18</sub>O<sub>4</sub>",
        "Molecular Mass": "202.25",
        "Boiling Point": "266 °C",
        "Density": "1.1 g/cm³ @ Temp: 25 °C"
    }
}