{
    "cas_no": "22117-85-7",
    "key_name": "5-(Aminosulfonyl)-2-methoxybenzoic acid",
    "cn_name": "5-氨磺酰基-2-甲氧基苯甲酸;2-甲氧基-5-磺酰胺基苯甲酸;",
    "alternate_name": "Benzoic acid, 5-(aminosulfonyl)-2-methoxy-;<em>o</em>-Anisic acid, 5-sulfamoyl-;5-(Aminosulfonyl)-2-methoxybenzoic acid;2-Methoxy-5-sulfamoylbenzoic acid;2-Methoxy-5-sulfonamidobenzoic acid;2-Methoxy-5-sulfamidobenzoic acid",
    "duplicated_cas_no": "",
    "SMILES": "C(O)(=O)C1=C(OC)C=CC(S(N)(=O)=O)=C1",
    "meta_data": {
        "InChI": "InChI=1S/C8H9NO5S/c1-14-7-3-2-5(15(9,12)13)4-6(7)8(10)11/h2-4H,1H3,(H,10,11)(H2,9,12,13)",
        "InChIKey": null,
        "Canonical SMILES": "O=C(O)C1=CC(=CC=C1OC)S(=O)(=O)N",
        "Molecular Formula": "C<sub>8</sub>H<sub>9</sub>NO<sub>5</sub>S",
        "Molecular Mass": "231.23",
        "Melting Point": "220 °C"
    }
}