{
    "cas_no": "82768-85-2",
    "key_name": "Quinaprilat",
    "cn_name": null,
    "alternate_name": "3-Isoquinolinecarboxylic acid, 2-[(2<em>S</em>)-2-[[(1<em>S</em>)-1-carboxy-3-phenylpropyl]amino]-1-oxopropyl]-1,2,3,4-tetrahydro-, (3<em>S</em>)-;3-Isoquinolinecarboxylic acid, 2-[2-[(1-carboxy-3-phenylpropyl)amino]-1-oxopropyl]-1,2,3,4-tetrahydro-, [3<em>S</em>-[2[<em>R</em>*(<em>R</em>*)],3<em>R</em>*]]-;(3<em>S</em>)-2-[(2<em>S</em>)-2-[[(1<em>S</em>)-1-Carboxy-3-phenylpropyl]amino]-1-oxopropyl]-1,2,3,4-tetrahydro-3-isoquinolinecarboxylic acid;CI 928;Quinaprilat",
    "duplicated_cas_no": "85441-60-7",
    "SMILES": "C([C@@H](N[C@@H](CCC1=CC=CC=C1)C(O)=O)C)(=O)N2[C@H](C(O)=O)CC=3C(C2)=CC=CC3",
    "meta_data": {
        "InChI": "InChI=1S/C23H26N2O5/c1-15(24-19(22(27)28)12-11-16-7-3-2-4-8-16)21(26)25-14-18-10-6-5-9-17(18)13-20(25)23(29)30/h2-10,15,19-20,24H,11-14H2,1H3,(H,27,28)(H,29,30)/t15-,19-,20-/m0/s1",
        "InChIKey": null,
        "Canonical SMILES": "O=C(O)C(NC(C(=O)N1CC=2C=CC=CC2CC1C(=O)O)C)CCC=3C=CC=CC3",
        "Molecular Formula": "C<sub>23</sub>H<sub>26</sub>N<sub>2</sub>O<sub>5</sub>",
        "Molecular Mass": "410.46",
        "Melting Point": "166-168 °C"
    }
}