{
    "cas_no": "52659-56-0",
    "key_name": "Kirenol",
    "cn_name": "奇壬醇;",
    "alternate_name": "1,7-Phenanthrenedimethanol, 1,2,3,4,4a,4b,5,6,7,9,10,10a-dodecahydro-3-hydroxy-α<sup>7</sup>-(hydroxymethyl)-1,4a,7-trimethyl-, (α<sup>7</sup><em>R</em>,1<em>R</em>,3<em>S</em>,4a<em>S</em>,4b<em>R</em>,7<em>S</em>,10a<em>S</em>)-;1,7-Phenanthrenedimethanol, 1,2,3,4,4a,4b,5,6,7,9,10,10a-dodecahydro-3-hydroxy-α<sup>7</sup>-(hydroxymethyl)-1,4a,7-trimethyl-, [1<em>R</em>-[1α,3β,4aα,4bβ,7α(<em>R</em>*),10aβ]]-;(α<sup>7</sup><em>R</em>,1<em>R</em>,3<em>S</em>,4a<em>S</em>,4b<em>R</em>,7<em>S</em>,10a<em>S</em>)-1,2,3,4,4a,4b,5,6,7,9,10,10a-Dodecahydro-3-hydroxy-α<sup>7</sup>-(hydroxymethyl)-1,4a,7-trimethyl-1,7-phenanthrenedimethanol;Kirenol",
    "duplicated_cas_no": "",
    "SMILES": "C[C@]12[C@]3(C(=C[C@]([C@H](CO)O)(C)CC3)CC[C@@]1([C@@](CO)(C)C[C@@H](O)C2)[H])[H]",
    "meta_data": {
        "InChI": "InChI=1S/C20H34O4/c1-18(17(24)11-21)7-6-15-13(8-18)4-5-16-19(2,12-22)9-14(23)10-20(15,16)3/h8,14-17,21-24H,4-7,9-12H2,1-3H3/t14-,15-,16-,17+,18+,19+,20+/m1/s1",
        "InChIKey": null,
        "Canonical SMILES": "OCC(O)C1(C=C2CCC3C(C)(CO)CC(O)CC3(C)C2CC1)C",
        "Molecular Formula": "C<sub>20</sub>H<sub>34</sub>O<sub>4</sub>",
        "Molecular Mass": "338.48",
        "Melting Point": "201-202 °C"
    }
}