{
    "cas_no": "200575-16-2",
    "key_name": "5-(Chlorosulfonyl)-2-ethoxybenzoic acid",
    "cn_name": null,
    "alternate_name": "Benzoic acid, 5-(chlorosulfonyl)-2-ethoxy-;5-(Chlorosulfonyl)-2-ethoxybenzoic acid;5-Chlorosulfonyl-2-ethoxybenzoic acid",
    "duplicated_cas_no": "",
    "SMILES": "C(O)(=O)C1=C(OCC)C=CC(S(Cl)(=O)=O)=C1",
    "meta_data": {
        "InChI": "InChI=1S/C9H9ClO5S/c1-2-15-8-4-3-6(16(10,13)14)5-7(8)9(11)12/h3-5H,2H2,1H3,(H,11,12)",
        "InChIKey": null,
        "Canonical SMILES": "O=C(O)C1=CC(=CC=C1OCC)S(=O)(=O)Cl",
        "Molecular Formula": "C<sub>9</sub>H<sub>9</sub>ClO<sub>5</sub>S",
        "Molecular Mass": "264.68",
        "Melting Point": "115-116 °C"
    }
}