{
    "cas_no": "851983-85-2",
    "key_name": "Galeterone",
    "cn_name": null,
    "alternate_name": "Androsta-5,16-dien-3-ol, 17-(1<em>H</em>-benzimidazol-1-yl)-, (3β)-;(3β)-17-(1<em>H</em>-Benzimidazol-1-yl)androsta-5,16-dien-3-ol;VN/124-1;VN 124;Galeterone;TOK 001;Galaterone;TK-001",
    "duplicated_cas_no": "",
    "SMILES": "C[C@@]12[C@]([C@]3([C@](CC1)([C@]4(C)C(=CC3)C[C@@H](O)CC4)[H])[H])(CC=C2N5C=6C(N=C5)=CC=CC6)[H]",
    "meta_data": {
        "InChI": "InChI=1S/C26H32N2O/c1-25-13-11-18(29)15-17(25)7-8-19-20-9-10-24(26(20,2)14-12-21(19)25)28-16-27-22-5-3-4-6-23(22)28/h3-7,10,16,18-21,29H,8-9,11-15H2,1-2H3/t18-,19-,20-,21-,25-,26-/m0/s1",
        "InChIKey": null,
        "Canonical SMILES": "OC1CC2=CCC3C4CC=C(N5C=NC=6C=CC=CC65)C4(C)CCC3C2(C)CC1",
        "Molecular Formula": "C<sub>26</sub>H<sub>32</sub>N<sub>2</sub>O",
        "Molecular Mass": "388.55",
        "Melting Point": "189-190 °C"
    }
}