{
    "cas_no": "92-13-7",
    "key_name": "Pilocarpine",
    "cn_name": "6-(氯甲基)尿嘧啶;",
    "alternate_name": "2(3<em>H</em>)-Furanone, 3-ethyldihydro-4-[(1-methyl-1<em>H</em>-imidazol-5-yl)methyl]-, (3<em>S</em>,4<em>R</em>)-;Pilocarpine;2(3<em>H</em>)-Furanone, 3-ethyldihydro-4-[(1-methyl-1<em>H</em>-imidazol-5-yl)methyl]-, (3<em>S</em>-<em>cis</em>)-;(3<em>S</em>,4<em>R</em>)-3-Ethyldihydro-4-[(1-methyl-1<em>H</em>-imidazol-5-yl)methyl]-2(3<em>H</em>)-furanone;Pilocarpol;Pilocarpine, (+)-;(+)-Pilocarpine;Pilokarpin;Syncarpine;Ocusert P 20;Ocusert Pilo 40;Ocucarpine;Ocusert Pilo;Spersacarpine;MeSH ID: D010862",
    "duplicated_cas_no": "91484-73-0",
    "SMILES": "C([C@@H]1[C@H](CC)C(=O)OC1)C=2N(C)C=NC2",
    "meta_data": {
        "InChI": "InChI=1S/C11H16N2O2/c1-3-10-8(6-15-11(10)14)4-9-5-12-7-13(9)2/h5,7-8,10H,3-4,6H2,1-2H3/t8-,10-/m0/s1",
        "InChIKey": null,
        "Canonical SMILES": "O=C1OCC(CC2=CN=CN2C)C1CC",
        "Molecular Formula": "C<sub>11</sub>H<sub>16</sub>N<sub>2</sub>O<sub>2</sub>",
        "Molecular Mass": "208.26",
        "Boiling Point": "260 °C",
        "Melting Point": "34 °C"
    }
}