{
    "cas_no": "10236-47-2",
    "key_name": "Naringin",
    "cn_name": "柚皮苷;柚甙;川陈皮素;橙皮甙;",
    "alternate_name": "4<em>H</em>-1-Benzopyran-4-one, 7-[[2-<em>O</em>-(6-deoxy-α-<span class=\"text-smallcaps\">L</smallcap>-mannopyranosyl)-β-<smallcap>D</span>-glucopyranosyl]oxy]-2,3-dihydro-5-hydroxy-2-(4-hydroxyphenyl)-, (2<em>S</em>)-;Naringin;4<em>H</em>-1-Benzopyran-4-one, 7-[[2-<em>O</em>-(6-deoxy-α-<span class=\"text-smallcaps\">L</smallcap>-mannopyranosyl)-β-<smallcap>D</span>-glucopyranosyl]oxy]-2,3-dihydro-5-hydroxy-2-(4-hydroxyphenyl)-, (<em>S</em>)-;(2<em>S</em>)-7-[[2-<em>O</em>-(6-Deoxy-α-<span class=\"text-smallcaps\">L</smallcap>-mannopyranosyl)-β-<smallcap>D</span>-glucopyranosyl]oxy]-2,3-dihydro-5-hydroxy-2-(4-hydroxyphenyl)-4<em>H</em>-1-benzopyran-4-one;Naringenin 7-β-neohesperidoside;Naringoside;Naringenin 7-neohesperidoside;(2<em>S</em>)-Naringin;7-[2-<em>O</em>-(6-Deoxy-α-<span class=\"text-smallcaps\">L</smallcap>-mannopyranosyl)-β-<smallcap>D</span>-glucopyranosyloxy]-2,3-dihydro-4′,5,7-trihydroxyflavone;Naringenin 7-<em>O</em>-neohesperidoside;Aurantiin;NSC 5548;K-ALL;KTB 30983;Sanfix Naringin;OYL-BLP",
    "duplicated_cas_no": "10236-69-8;11032-31-8;17784-35-9;30174-44-8;30552-25-1;38664-96-9;109010-50-6;1675240-74-0",
    "SMILES": "O=C1C=2C(O[C@@H](C1)C3=CC=C(O)C=C3)=CC(O[C@H]4[C@H](O[C@H]5[C@H](O)[C@H](O)[C@@H](O)[C@H](C)O5)[C@@H](O)[C@H](O)[C@@H](CO)O4)=CC2O",
    "meta_data": {
        "InChI": "InChI=1S/C27H32O14/c1-10-20(32)22(34)24(36)26(37-10)41-25-23(35)21(33)18(9-28)40-27(25)38-13-6-14(30)19-15(31)8-16(39-17(19)7-13)11-2-4-12(29)5-3-11/h2-7,10,16,18,20-30,32-36H,8-9H2,1H3/t10-,16-,18+,20-,21+,22+,23-,24+,25+,26-,27+/m0/s1",
        "InChIKey": null,
        "Canonical SMILES": "O=C1C2=C(O)C=C(OC3OC(CO)C(O)C(O)C3OC4OC(C)C(O)C(O)C4O)C=C2OC(C5=CC=C(O)C=C5)C1",
        "Molecular Formula": "C<sub>27</sub>H<sub>32</sub>O<sub>14</sub>",
        "Molecular Mass": "580.53",
        "Melting Point": "172 °C"
    }
}