{
    "cas_no": "107-68-6",
    "key_name": "Methyltaurine",
    "cn_name": "甲基牛磺酸 [107-68-6];甲基牛磺酸;",
    "alternate_name": "Ethanesulfonic acid, 2-(methylamino)-;Taurine, <em>N</em>-methyl-;2-(Methylamino)ethanesulfonic acid;<em>N</em>-Methyltaurine;Monomethyltaurine;Methyltaurine;NSC 10479;2-(Methylazaniumyl)ethanesulfonate",
    "duplicated_cas_no": "",
    "SMILES": "C(S(=O)(=O)O)CNC",
    "meta_data": {
        "InChI": "InChI=1S/C3H9NO3S/c1-4-2-3-8(5,6)7/h4H,2-3H2,1H3,(H,5,6,7)",
        "InChIKey": null,
        "Canonical SMILES": "O=S(=O)(O)CCNC",
        "Molecular Formula": "C<sub>3</sub>H<sub>9</sub>NO<sub>3</sub>S",
        "Molecular Mass": "139.17",
        "Melting Point": "241.5 °C"
    }
}