{
    "cas_no": "498-36-2",
    "key_name": "(±)-2-Hydroxyisocaproic acid",
    "cn_name": "2-羟基-4-甲基戊酸;",
    "alternate_name": "Pentanoic acid, 2-hydroxy-4-methyl-;Valeric acid, 2-hydroxy-4-methyl-;Leucic acid;2-Hydroxy-4-methylpentanoic acid;α-Hydroxyisocaproic acid;α-Hydroxy-<em>iso</em>-caproic acid;α-Hydroxyisocaproate;2-Hydroxyisocaproic acid;2-Hydroxy-4-methylvaleric acid;2-Hydroxyisohexanoic acid;(±)-α-Hydroxyisocaproic acid;<span class=\"text-smallcaps\">DL</span>-α-Hydroxyisocaproic acid;(±)-Leucinic acid;(±)-2-Hydroxyisohexanoic acid;<span class=\"text-smallcaps\">DL</span>-2-Hydroxy-4-methylpentanoic acid;<span class=\"text-smallcaps\">DL</span>-2-Hydroxyisocaproic acid;(±)-2-Hydroxyisocaproic acid;<span class=\"text-smallcaps\">DL</span>-Leucic acid;(±)-Leucic acid;Leucinic acid",
    "duplicated_cas_no": "10303-64-7;26671-68-1;359875-10-8",
    "SMILES": "C(CC(C)C)(C(O)=O)O",
    "meta_data": {
        "InChI": "InChI=1S/C6H12O3/c1-4(2)3-5(7)6(8)9/h4-5,7H,3H2,1-2H3,(H,8,9)",
        "InChIKey": null,
        "Canonical SMILES": "O=C(O)C(O)CC(C)C",
        "Molecular Formula": "C<sub>6</sub>H<sub>12</sub>O<sub>3</sub>",
        "Molecular Mass": "132.16",
        "Melting Point": "76-77 °C"
    }
}