{
    "cas_no": "824-79-3",
    "key_name": "Sodium <em>p</em>-toluenesulfinate",
    "cn_name": "对甲苯亚磺酸钠;SPTS;",
    "alternate_name": "Benzenesulfinic acid, 4-methyl-, sodium salt (1:1);<em>p</em>-Toluenesulfinic acid, sodium salt;Benzenesulfinic acid, 4-methyl-, sodium salt;Sodium <em>p</em>-toluenesulfinate;Sodium 4-methylbenzenesulfinate;Sodium <em>p</em>-tolylsulfinate;Sodium 4-toluenesulfinate;Sodium <em>p</em>-methylbenzenesulfinate;4-Methylbenzenesulfinic acid sodium salt;NSC 4871;NSC 9077;Sodium <em>p</em>-toluenesulfinite;<em>p</em>-Toluenesulfinic acid sodium salt",
    "duplicated_cas_no": "53271-66-2;134311-31-2;137788-67-1;143650-49-1;163077-66-5;167163-37-3;709654-41-1;1423065-40-0;3028920-34-2",
    "SMILES": "S(=O)(O)C1=CC=C(C)C=C1.[Na]",
    "meta_data": {
        "InChI": "InChI=1S/C7H8O2S.Na/c1-6-2-4-7(5-3-6)10(8)9;/h2-5H,1H3,(H,8,9);",
        "InChIKey": null,
        "Canonical SMILES": "[Na].O=S(O)C1=CC=C(C=C1)C",
        "Molecular Formula": "C<sub>7</sub>H<sub>8</sub>O<sub>2</sub>S.Na",
        "Molecular Mass": "",
        "Melting Point": "&gt;290 °C (decomp)"
    }
}