{
    "cas_no": "358672-65-8",
    "key_name": "5-Bromo-6-chloro-2-pyridinamine",
    "cn_name": null,
    "alternate_name": "2-Pyridinamine, 5-bromo-6-chloro-;5-Bromo-6-chloro-2-pyridinamine;6-Amino-2-chloro-3-bromopyridine;5-Bromo-6-chloropyridin-2-amine;6-Amino-3-bromo-2-chloropyridine;5-Bromo-6-chloropyridin-2-ylamine",
    "duplicated_cas_no": "",
    "SMILES": "ClC1=C(Br)C=CC(N)=N1",
    "meta_data": {
        "InChI": "InChI=1S/C5H4BrClN2/c6-3-1-2-4(8)9-5(3)7/h1-2H,(H2,8,9)",
        "InChIKey": null,
        "Canonical SMILES": "ClC=1N=C(N)C=CC1Br",
        "Molecular Formula": "C<sub>5</sub>H<sub>4</sub>BrClN<sub>2</sub>",
        "Molecular Mass": "207.46",
        "Melting Point": "146-148 °C"
    }
}