{
    "cas_no": "22042-72-4",
    "key_name": "2-(2-Hydroxyethoxy)benzaldehyde",
    "cn_name": null,
    "alternate_name": "Benzaldehyde, 2-(2-hydroxyethoxy)-;Benzaldehyde, <em>o</em>-(2-hydroxyethoxy)-;2-(2-Hydroxyethoxy)benzaldehyde",
    "duplicated_cas_no": "",
    "SMILES": "O(CCO)C1=C(C=O)C=CC=C1",
    "meta_data": {
        "InChI": "InChI=1S/C9H10O3/c10-5-6-12-9-4-2-1-3-8(9)7-11/h1-4,7,10H,5-6H2",
        "InChIKey": null,
        "Canonical SMILES": "O=CC=1C=CC=CC1OCCO",
        "Molecular Formula": "C<sub>9</sub>H<sub>10</sub>O<sub>3</sub>",
        "Molecular Mass": "166.17",
        "Melting Point": "158-159 °C"
    }
}