{
    "cas_no": "18361-03-0",
    "key_name": "2,3-Dihydrothieno[3,4-<em>b</em>]-1,4-dioxin-5,7-dicarboxylic acid",
    "cn_name": "2,5-二羧酸-3,4-乙撑二氧噻吩;",
    "alternate_name": "Thieno[3,4-<em>b</em>]-1,4-dioxin-5,7-dicarboxylic acid, 2,3-dihydro-;Thieno[3,4-<em>b</em>]-<em>p</em>-dioxin-5,7-dicarboxylic acid, 2,3-dihydro-;2,3-Dihydrothieno[3,4-<em>b</em>]-1,4-dioxin-5,7-dicarboxylic acid;3,4-Ethylenedioxy-2,5-thiophenedicarboxylic acid",
    "duplicated_cas_no": "",
    "SMILES": "C(O)(=O)C1=C2C(=C(C(O)=O)S1)OCCO2",
    "meta_data": {
        "InChI": "InChI=1S/C8H6O6S/c9-7(10)5-3-4(14-2-1-13-3)6(15-5)8(11)12/h1-2H2,(H,9,10)(H,11,12)",
        "InChIKey": null,
        "Canonical SMILES": "O=C(O)C=1SC(C(=O)O)=C2OCCOC21",
        "Molecular Formula": "C<sub>8</sub>H<sub>6</sub>O<sub>6</sub>S",
        "Molecular Mass": "230.19",
        "Melting Point": "319.5-321.2 °C"
    }
}