{
    "cas_no": "53369-71-4",
    "key_name": "<em>N</em>,<em>N</em>,2,2-Tetramethyl-1,3-propanediamine",
    "cn_name": null,
    "alternate_name": "1,3-Propanediamine, <em>N</em><sup>1</sup>,<em>N</em><sup>1</sup>,2,2-tetramethyl-;1,3-Propanediamine, <em>N</em>,<em>N</em>,2,2-tetramethyl-;<em>N</em><sup>1</sup>,<em>N</em><sup>1</sup>,2,2-Tetramethyl-1,3-propanediamine;<em>N</em>,<em>N</em>,2,2-Tetramethyl-1,3-propanediamine;1-Amino-3-dimethylamino-2,2-dimethylpropane;3-Dimethylamino-2,2-dimethyl-1-propanamine;<em>N</em>,<em>N</em>-Dimethyl-2,2-dimethyl-1,3-propanediamine;<em>N</em>,<em>N</em>-Dimethylneopentanediamine;3-(<em>N</em>,<em>N</em>-Dimethylamino)-2,2-dimethylpropylamine;2,2-Dimethyl-3-dimethylaminopropylamine;(3-Dimethylamino-2,2-dimethylpropyl)amine;<em>N</em>,<em>N</em>,2,2-Tetramethyl-1,3-diaminopropane",
    "duplicated_cas_no": "",
    "SMILES": "C(C(CN)(C)C)N(C)C",
    "meta_data": {
        "InChI": "InChI=1S/C7H18N2/c1-7(2,5-8)6-9(3)4/h5-6,8H2,1-4H3",
        "InChIKey": null,
        "Canonical SMILES": "NCC(C)(C)CN(C)C",
        "Molecular Formula": "C<sub>7</sub>H<sub>18</sub>N<sub>2</sub>",
        "Molecular Mass": "130.23",
        "Boiling Point": "155-158 °C"
    }
}