{
    "cas_no": "765-58-2",
    "key_name": "2-Bromo-5-methylthiophene",
    "cn_name": "2-溴-5-甲基噻吩;",
    "alternate_name": "Thiophene, 2-bromo-5-methyl-;2-Bromo-5-methylthiophene;5-Bromo-2-methylthiophene;5-Methyl-2-bromothiophene",
    "duplicated_cas_no": "",
    "SMILES": "BrC=1SC(C)=CC1",
    "meta_data": {
        "InChI": "InChI=1S/C5H5BrS/c1-4-2-3-5(6)7-4/h2-3H,1H3",
        "InChIKey": null,
        "Canonical SMILES": "BrC=1SC(=CC1)C",
        "Molecular Formula": "C<sub>5</sub>H<sub>5</sub>BrS",
        "Molecular Mass": "177.06",
        "Boiling Point": "178 °C",
        "Density": "1.552 g/cm³ @ Temp: 20 °C"
    }
}