{
    "cas_no": "3766-81-2",
    "key_name": "Fenobucarb",
    "cn_name": "仲丁威;邻仲丁基苯基甲基氨基甲酸酯;",
    "alternate_name": "Phenol, 2-(1-methylpropyl)-, 1-(<em>N</em>-methylcarbamate);Carbamic acid, methyl-, <em>o</em>-<em>sec</em>-butylphenyl ester;Phenol, 2-(1-methylpropyl)-, methylcarbamate;Phenol, <em>o</em>-<em>sec</em>-butyl-, methylcarbamate;BAY 41637;2-<em>sec</em>-Butylphenyl <em>N</em>-methylcarbamate;<em>o</em>-<em>sec</em>-Butylphenyl <em>N</em>-methylcarbamate;2-(1-Methylpropyl)phenyl methylcarbamate;<em>o</em>-<em>sec</em>-Butylphenol methylcarbamate;BPMC;BASSA;Barizon;Baycarb;Fenobucarb;Osbac;2-<em>sec</em>-Butylphenol methylcarbamate;2-<em>sec</em>-Butylphenyl methylcarbamate;Baktop MC;Fenocarb;Bipvin;Vocktop MC;Zhongdingwei",
    "duplicated_cas_no": "12773-35-2;145846-59-9",
    "SMILES": "C(CC)(C)C1=C(OC(NC)=O)C=CC=C1",
    "meta_data": {
        "InChI": "InChI=1S/C12H17NO2/c1-4-9(2)10-7-5-6-8-11(10)15-12(14)13-3/h5-9H,4H2,1-3H3,(H,13,14)",
        "InChIKey": null,
        "Canonical SMILES": "O=C(OC=1C=CC=CC1C(C)CC)NC",
        "Molecular Formula": "C<sub>12</sub>H<sub>17</sub>NO<sub>2</sub>",
        "Molecular Mass": "207.27",
        "Boiling Point": "112.5 °C",
        "Melting Point": "31.5 °C"
    }
}