{
    "cas_no": "6707-60-4",
    "key_name": "1,6-Dioxacycloheptadecan-7-one",
    "cn_name": "麝香-105;麝香R-1;麝香内酯;12-十六氧杂内酯;",
    "alternate_name": "1,6-Dioxacycloheptadecan-7-one;Undecanoic acid, 11-(4-hydroxybutoxy)-, ο-lactone;12-Oxa-1,16-hexadecanolide;Cervolide;Musk 781;NSC 34741;12-Oxahexadecanolide",
    "duplicated_cas_no": "",
    "SMILES": "O=C1CCCCCCCCCCOCCCCO1",
    "meta_data": {
        "InChI": "InChI=1S/C15H28O3/c16-15-11-7-5-3-1-2-4-6-8-12-17-13-9-10-14-18-15/h1-14H2",
        "InChIKey": null,
        "Canonical SMILES": "O=C1OCCCCOCCCCCCCCCC1",
        "Molecular Formula": "C<sub>15</sub>H<sub>28</sub>O<sub>3</sub>",
        "Molecular Mass": "256.38",
        "Boiling Point": "143 °C @ Press: 3 Torr",
        "Density": "0.9829 g/cm³ @ Temp: 420 °C"
    }
}