{
    "cas_no": "198226-63-0",
    "key_name": "α,α-Dimethyl-2-naphthaleneethanamine",
    "cn_name": null,
    "alternate_name": "2-Naphthaleneethanamine, α,α-dimethyl-;α,α-Dimethyl-2-naphthaleneethanamine;[1,1-Dimethyl-2-(naphthalen-2-yl)ethyl]amine;2-Methyl-1-(naphthalen-2-yl)propan-2-amine;2-Methyl-1-naphthalen-2-ylpropan-2-amine",
    "duplicated_cas_no": "",
    "SMILES": "C(C(C)(C)N)C1=CC2=C(C=C1)C=CC=C2",
    "meta_data": {
        "InChI": "InChI=1S/C14H17N/c1-14(2,15)10-11-7-8-12-5-3-4-6-13(12)9-11/h3-9H,10,15H2,1-2H3",
        "InChIKey": null,
        "Canonical SMILES": "NC(C)(C)CC=1C=CC=2C=CC=CC2C1",
        "Molecular Formula": "C<sub>14</sub>H<sub>17</sub>N",
        "Molecular Mass": "199.29",
        "Boiling Point": "158-162 °C @ Press: 1.5 Torr"
    }
}