{
    "cas_no": "665-49-6",
    "key_name": "Tetraethylphosphonium tetrafluoroborate",
    "cn_name": null,
    "alternate_name": "Phosphonium, tetraethyl-, tetrafluoroborate(1-) (1:1);Phosphonium, tetraethyl-, tetrafluoroborate(1-);Tetraethylphosphonium fluoborate;Tetraethylphosphonium tetrafluoroborate",
    "duplicated_cas_no": "",
    "SMILES": "[B+3]([F-])([F-])([F-])[F-].[P+](CC)(CC)(CC)CC",
    "meta_data": {
        "InChI": "InChI=1S/C8H20P.BF4/c1-5-9(6-2,7-3)8-4;2-1(3,4)5/h5-8H2,1-4H3;/q+1;-1",
        "InChIKey": null,
        "Canonical SMILES": "[F-][B+3]([F-])([F-])[F-].CC[P+](CC)(CC)CC",
        "Molecular Formula": "C<sub>8</sub>H<sub>20</sub>P.BF<sub>4</sub>",
        "Molecular Mass": "",
        "Melting Point": "291 °C"
    }
}