{
    "cas_no": "558-89-4",
    "key_name": "1-Chloro-1,1,2,2,3,3,4,4,4-nonafluorobutane",
    "cn_name": null,
    "alternate_name": "Butane, 1-chloro-1,1,2,2,3,3,4,4,4-nonafluoro-;Butane, 1-chlorononafluoro-;1-Chloro-1,1,2,2,3,3,4,4,4-nonafluorobutane;Perfluorobutyl chloride;1-Chlorononafluorobutane",
    "duplicated_cas_no": "",
    "SMILES": "C(C(C(F)(F)F)(F)F)(C(Cl)(F)F)(F)F",
    "meta_data": {
        "InChI": "InChI=1S/C4ClF9/c5-3(10,11)1(6,7)2(8,9)4(12,13)14",
        "InChIKey": null,
        "Canonical SMILES": "FC(F)(F)C(F)(F)C(F)(F)C(F)(F)Cl",
        "Molecular Formula": "C<sub>4</sub>ClF<sub>9</sub>",
        "Molecular Mass": "254.48",
        "Boiling Point": "30 °C"
    }
}