{
    "cas_no": "129-39-5",
    "key_name": "1,8-Dinitro-9,10-anthracenedione",
    "cn_name": "1,8-二硝基-9,10-蒽二酮;1,8-二硝基蒽醌;",
    "alternate_name": "9,10-Anthracenedione, 1,8-dinitro-;Anthraquinone, 1,8-dinitro-;1,8-Dinitro-9,10-anthracenedione;Alizarine Violet R Base;1,8-Dinitroanthraquinone;Waxoline Violet BA;1,8-Dinitro-9,10-anthraquinone;NSC 37108",
    "duplicated_cas_no": "",
    "SMILES": "O=C1C=2C(C(=O)C=3C1=C(N(=O)=O)C=CC3)=CC=CC2N(=O)=O",
    "meta_data": {
        "InChI": "InChI=1S/C14H6N2O6/c17-13-7-3-1-5-9(15(19)20)11(7)14(18)12-8(13)4-2-6-10(12)16(21)22/h1-6H",
        "InChIKey": null,
        "Canonical SMILES": "O=C1C2=CC=CC(=C2C(=O)C=3C1=CC=CC3N(=O)=O)N(=O)=O",
        "Molecular Formula": "C<sub>14</sub>H<sub>6</sub>N<sub>2</sub>O<sub>6</sub>",
        "Molecular Mass": "298.21",
        "Melting Point": "310 °C"
    }
}