{
    "cas_no": "3762-25-2",
    "key_name": "Diethyl <em>P</em>-[(4-methylphenyl)methyl]phosphonate",
    "cn_name": "4-甲基苄基磷酸二乙酯;4-甲基苄基膦酸二乙酯;",
    "alternate_name": "Phosphonic acid, <em>P</em>-[(4-methylphenyl)methyl]-, diethyl ester;Phosphonic acid, (<em>p</em>-methylbenzyl)-, diethyl ester;Phosphonic acid, [(4-methylphenyl)methyl]-, diethyl ester;Diethyl <em>P</em>-[(4-methylphenyl)methyl]phosphonate;Diethyl (<em>p</em>-methylbenzyl)phosphonate;Diethyl (4-methylbenzyl)phosphonate;Diethyl <em>p</em>-tolylmethylphosphonate;4-Methylbenzylphosphonic acid diethyl ester;1-(Diethoxyphosphorylmethyl)-4-methylbenzene",
    "duplicated_cas_no": "",
    "SMILES": "C(P(OCC)(OCC)=O)C1=CC=C(C)C=C1",
    "meta_data": {
        "InChI": "InChI=1S/C12H19O3P/c1-4-14-16(13,15-5-2)10-12-8-6-11(3)7-9-12/h6-9H,4-5,10H2,1-3H3",
        "InChIKey": null,
        "Canonical SMILES": "O=P(OCC)(OCC)CC1=CC=C(C=C1)C",
        "Molecular Formula": "C<sub>12</sub>H<sub>19</sub>O<sub>3</sub>P",
        "Molecular Mass": "242.25",
        "Boiling Point": "160-163 °C @ Press: 2 Torr",
        "Melting Point": "90 °C",
        "Density": "1.0832 g/cm³ @ Temp: 20 °C"
    }
}