{
    "cas_no": "302-84-1",
    "key_name": "<span class=\"text-smallcaps\">DL</span>-Serine",
    "cn_name": "丝氨酸;DL-2-氨基-3-羟基丙酸;",
    "alternate_name": "Serine;Serine, <span class=\"text-smallcaps\">DL</span>-;<span class=\"text-smallcaps\">DL</span>-Serine;(±)-Serine;<span class=\"text-smallcaps\">DL</span>-Ser;NSC 9960;2-Azaniumyl-3-hydroxypropanoate",
    "duplicated_cas_no": "",
    "SMILES": "C(C(O)=O)(CO)N",
    "meta_data": {
        "InChI": "InChI=1S/C3H7NO3/c4-2(1-5)3(6)7/h2,5H,1,4H2,(H,6,7)",
        "InChIKey": null,
        "Canonical SMILES": "O=C(O)C(N)CO",
        "Molecular Formula": "C<sub>3</sub>H<sub>7</sub>NO<sub>3</sub>",
        "Molecular Mass": "105.09",
        "Melting Point": "246 °C (decomp)"
    }
}