{
    "cas_no": "134680-32-3",
    "key_name": "2′,3′-Dideoxy-3′-thiacytidine",
    "cn_name": null,
    "alternate_name": "2(1<em>H</em>)-Pyrimidinone, 4-amino-1-[(2<em>S</em>,5<em>R</em>)-2-(hydroxymethyl)-1,3-oxathiolan-5-yl]-;2(1<em>H</em>)-Pyrimidinone, 4-amino-1-[2-(hydroxymethyl)-1,3-oxathiolan-5-yl]-, (2<em>S</em>-<em>cis</em>)-;1,3-Oxathiolane, 2(1<em>H</em>)-pyrimidinone deriv.;4-Amino-1-[(2<em>S</em>,5<em>R</em>)-2-(hydroxymethyl)-1,3-oxathiolan-5-yl]-2(1<em>H</em>)-pyrimidinone;2′-Deoxy-3′-thiacytidine;(+)-BCH 189;BCH 189, (+)-;NSC 620753;2′,3′-Dideoxy-3′-thiacytidine;3TC;<em>cis</em>(+)-2-Hydroxymethyl-5-(cytosin-1-yl)-1,3-oxathiolane;Ent-lamivudine",
    "duplicated_cas_no": "",
    "SMILES": "O=C1N([C@@H]2O[C@H](CO)SC2)C=CC(N)=N1",
    "meta_data": {
        "InChI": "InChI=1S/C8H11N3O3S/c9-5-1-2-11(8(13)10-5)6-4-15-7(3-12)14-6/h1-2,6-7,12H,3-4H2,(H2,9,10,13)/t6-,7+/m1/s1",
        "InChIKey": null,
        "Canonical SMILES": "O=C1N=C(N)C=CN1C2OC(SC2)CO",
        "Molecular Formula": "C<sub>8</sub>H<sub>11</sub>N<sub>3</sub>O<sub>3</sub>S",
        "Molecular Mass": "229.26",
        "Melting Point": "171.4 °C"
    }
}