{
    "cas_no": "49667-22-3",
    "key_name": "2-Hydroxy-4-methylbenzamide",
    "cn_name": "4-甲基水杨酰胺;",
    "alternate_name": "Benzamide, 2-hydroxy-4-methyl-;2-Hydroxy-4-methylbenzamide;4-Methylsalicylamide",
    "duplicated_cas_no": "",
    "SMILES": "C(N)(=O)C1=C(O)C=C(C)C=C1",
    "meta_data": {
        "InChI": "InChI=1S/C8H9NO2/c1-5-2-3-6(8(9)11)7(10)4-5/h2-4,10H,1H3,(H2,9,11)",
        "InChIKey": null,
        "Canonical SMILES": "O=C(N)C1=CC=C(C=C1O)C",
        "Molecular Formula": "C<sub>8</sub>H<sub>9</sub>NO<sub>2</sub>",
        "Molecular Mass": "151.16",
        "Melting Point": "176-177 °C"
    }
}