{
    "cas_no": "18000-24-3",
    "key_name": "7-Chlorokynurenic acid",
    "cn_name": null,
    "alternate_name": "2-Quinolinecarboxylic acid, 7-chloro-4-hydroxy-;Quinaldic acid, 7-chloro-4-hydroxy-;Kynurenic acid, 7-chloro-;7-Chloro-4-hydroxy-2-quinolinecarboxylic acid;7-Chlorokynurenic acid;7-Chloro-4-hydroxyquinaldic acid;7-Chloroquinurenic acid;NSC 149792",
    "duplicated_cas_no": "",
    "SMILES": "OC=1C2=C(N=C(C(O)=O)C1)C=C(Cl)C=C2",
    "meta_data": {
        "InChI": "InChI=1S/C10H6ClNO3/c11-5-1-2-6-7(3-5)12-8(10(14)15)4-9(6)13/h1-4H,(H,12,13)(H,14,15)",
        "InChIKey": null,
        "Canonical SMILES": "O=C(O)C=1N=C2C=C(Cl)C=CC2=C(O)C1",
        "Molecular Formula": "C<sub>10</sub>H<sub>6</sub>ClNO<sub>3</sub>",
        "Molecular Mass": "223.61",
        "Melting Point": "277-278 °C (decomp)"
    }
}