{
    "cas_no": "671-35-2",
    "key_name": "5-Fluoro-4(3<em>H</em>)-pyrimidinone",
    "cn_name": "5-氟-3H-嘧啶-4-酮;5-氟-4-羟基嘧啶;4-羟基-5-氟嘧啶;",
    "alternate_name": "4(3<em>H</em>)-Pyrimidinone, 5-fluoro-;4(1<em>H</em>)-Pyrimidinone, 5-fluoro-;4-Pyrimidinol, 5-fluoro-;5-Fluoro-4(3<em>H</em>)-pyrimidinone;4-Hydroxy-5-fluoropyrimidine;5-Fluoro-4-hydroxypyrimidine;Fluoxydine;5-Fluoro-4-pyrimidinol;Fluoxidine;NSC 529068;Fluoxydin;5-Fluoropyrimidin-4(3<em>H</em>)-one",
    "duplicated_cas_no": "",
    "SMILES": "FC=1C(=O)NC=NC1",
    "meta_data": {
        "InChI": "InChI=1S/C4H3FN2O/c5-3-1-6-2-7-4(3)8/h1-2H,(H,6,7,8)",
        "InChIKey": null,
        "Canonical SMILES": "O=C1NC=NC=C1F",
        "Molecular Formula": "C<sub>4</sub>H<sub>3</sub>FN<sub>2</sub>O",
        "Molecular Mass": "114.08",
        "Melting Point": "204-205 °C"
    }
}