{
    "cas_no": "34450-18-5",
    "key_name": "17-Octadecynoic acid",
    "cn_name": "17-十八炔酸;",
    "alternate_name": "17-Octadecynoic acid",
    "duplicated_cas_no": "",
    "SMILES": "C(CCCCCCCCCC#C)CCCCCC(O)=O",
    "meta_data": {
        "InChI": "InChI=1S/C18H32O2/c1-2-3-4-5-6-7-8-9-10-11-12-13-14-15-16-17-18(19)20/h1H,3-17H2,(H,19,20)",
        "InChIKey": null,
        "Canonical SMILES": "O=C(O)CCCCCCCCCCCCCCCC#C",
        "Molecular Formula": "C<sub>18</sub>H<sub>32</sub>O<sub>2</sub>",
        "Molecular Mass": "280.45",
        "Melting Point": "70-72 °C"
    }
}