{
    "cas_no": "35202-25-6",
    "key_name": "5-(4-Chlorophenyl)-4-pyrimidinamine",
    "cn_name": null,
    "alternate_name": "4-Pyrimidinamine, 5-(4-chlorophenyl)-;Pyrimidine, 4-amino-5-(<em>p</em>-chlorophenyl)-;5-(4-Chlorophenyl)-4-pyrimidinamine;4-Amino-5-(<em>p</em>-chlorophenyl)pyrimidine",
    "duplicated_cas_no": "56239-03-3",
    "SMILES": "NC=1C(C2=CC=C(Cl)C=C2)=CN=CN1",
    "meta_data": {
        "InChI": "InChI=1S/C10H8ClN3/c11-8-3-1-7(2-4-8)9-5-13-6-14-10(9)12/h1-6H,(H2,12,13,14)",
        "InChIKey": null,
        "Canonical SMILES": "ClC1=CC=C(C=C1)C2=CN=CN=C2N",
        "Molecular Formula": "C<sub>10</sub>H<sub>8</sub>ClN<sub>3</sub>",
        "Molecular Mass": "205.64",
        "Melting Point": "203-204 °C"
    }
}