{
    "cas_no": "13205-46-4",
    "key_name": "4-(1-Methylethoxy)benzoic acid",
    "cn_name": "4-异丙氧苯甲酸;异丙氧基苯甲酸;",
    "alternate_name": "Benzoic acid, 4-(1-methylethoxy)-;Benzoic acid, <em>p</em>-isopropoxy-;4-(1-Methylethoxy)benzoic acid;4-Isopropoxybenzoic acid;4-(Isopropyloxy)benzoic acid;<em>p</em>-Isopropoxybenzoic acid;4-(2-Propyloxy)benzoic acid;NSC 16646;4-[(Propan-2-yl)oxy]benzoic acid",
    "duplicated_cas_no": "",
    "SMILES": "O(C(C)C)C1=CC=C(C(O)=O)C=C1",
    "meta_data": {
        "InChI": "InChI=1S/C10H12O3/c1-7(2)13-9-5-3-8(4-6-9)10(11)12/h3-7H,1-2H3,(H,11,12)",
        "InChIKey": null,
        "Canonical SMILES": "O=C(O)C1=CC=C(OC(C)C)C=C1",
        "Molecular Formula": "C<sub>10</sub>H<sub>12</sub>O<sub>3</sub>",
        "Molecular Mass": "180.20",
        "Melting Point": "161 °C"
    }
}