{
    "cas_no": "1184-78-7",
    "key_name": "Trimethylamine oxide",
    "cn_name": "三甲基胺氧化物;三甲胺N-氧化物;",
    "alternate_name": "Methanamine, <em>N</em>,<em>N</em>-dimethyl-, <em>N</em>-oxide;Trimethylamine, <em>N</em>-oxide;TMAO;Trimethylamine oxide;Triox;<em>N</em>,<em>N</em>-Dimethylmethanamine <em>N</em>-oxide;NSC 408426",
    "duplicated_cas_no": "",
    "SMILES": "N(C)(C)(C)=O",
    "meta_data": {
        "InChI": "InChI=1S/C3H9NO/c1-4(2,3)5/h1-3H3",
        "InChIKey": null,
        "Canonical SMILES": "O=N(C)(C)C",
        "Molecular Formula": "C<sub>3</sub>H<sub>9</sub>NO",
        "Molecular Mass": "75.11",
        "Melting Point": "208 °C"
    }
}