{
    "cas_no": "13754-19-3",
    "key_name": "4,5-Diaminopyrimidine",
    "cn_name": "4,5-二氨基嘧啶;",
    "alternate_name": "4,5-Pyrimidinediamine;Pyrimidine, 4,5-diamino-;4,5-Diaminopyrimidine;5,6-Diaminopyrimidine;NSC 14348",
    "duplicated_cas_no": "42910-93-0",
    "SMILES": "NC=1C(N)=NC=NC1",
    "meta_data": {
        "InChI": "InChI=1S/C4H6N4/c5-3-1-7-2-8-4(3)6/h1-2H,5H2,(H2,6,7,8)",
        "InChIKey": null,
        "Canonical SMILES": "N=1C=NC(N)=C(N)C1",
        "Molecular Formula": "C<sub>4</sub>H<sub>6</sub>N<sub>4</sub>",
        "Molecular Mass": "110.12",
        "Melting Point": "205-206 °C"
    }
}