{
    "cas_no": "67279-24-7",
    "key_name": "1,4-Dichloro-5,6,7,8-tetrahydrophthalazine",
    "cn_name": null,
    "alternate_name": "Phthalazine, 1,4-dichloro-5,6,7,8-tetrahydro-;1,4-Dichloro-5,6,7,8-tetrahydrophthalazine",
    "duplicated_cas_no": "",
    "SMILES": "ClC1=C2C(=C(Cl)N=N1)CCCC2",
    "meta_data": {
        "InChI": "InChI=1S/C8H8Cl2N2/c9-7-5-3-1-2-4-6(5)8(10)12-11-7/h1-4H2",
        "InChIKey": null,
        "Canonical SMILES": "ClC1=NN=C(Cl)C2=C1CCCC2",
        "Molecular Formula": "C<sub>8</sub>H<sub>8</sub>Cl<sub>2</sub>N<sub>2</sub>",
        "Molecular Mass": "203.07",
        "Melting Point": "156 °C"
    }
}