{
    "cas_no": "124-02-7",
    "key_name": "Diallylamine",
    "cn_name": "二烯丙基胺;",
    "alternate_name": "2-Propen-1-amine, <em>N</em>-2-propen-1-yl-;Diallylamine;2-Propen-1-amine, <em>N</em>-2-propenyl-;<em>N</em>-2-Propen-1-yl-2-propen-1-amine;Di-2-propenylamine;<em>N</em>-2-propenyl-2-propen-1-amine;NSC 20948;Bisallylamine;<em>N</em>,<em>N</em>-Bis(allyl)amine;Bis-allylamine",
    "duplicated_cas_no": "1263263-74-6",
    "SMILES": "N(CC=C)CC=C",
    "meta_data": {
        "InChI": "InChI=1S/C6H11N/c1-3-5-7-6-4-2/h3-4,7H,1-2,5-6H2",
        "InChIKey": null,
        "Canonical SMILES": "C=CCNCC=C",
        "Molecular Formula": "C<sub>6</sub>H<sub>11</sub>N",
        "Molecular Mass": "97.16",
        "Boiling Point": "111 °C",
        "Melting Point": "-88.4 °C",
        "Density": "0.7889 g/cm³ @ Temp: 20 °C"
    }
}