{
    "cas_no": "4289-97-8",
    "key_name": "<em>N</em>-Formyl-<span class=\"text-smallcaps\">L</span>-valine",
    "cn_name": "N-甲酰-L-缬氨酸;甲酰基-L-缬氨酸;",
    "alternate_name": "<span class=\"text-smallcaps\">L</span>-Valine, <em>N</em>-formyl-;Valine, <em>N</em>-formyl-, <span class=\"text-smallcaps\">L</span>-;Valine, <em>N</em>-formyl-;<em>N</em>-Formyl-<span class=\"text-smallcaps\">L</span>-valine;FVal;Formylvaline;<em>N</em>-Formylvaline;NSC 334343;(2S)-2-Formamido-3-methylbutanoic acid",
    "duplicated_cas_no": "",
    "SMILES": "[C@H](NC=O)(C(C)C)C(O)=O",
    "meta_data": {
        "InChI": "InChI=1S/C6H11NO3/c1-4(2)5(6(9)10)7-3-8/h3-5H,1-2H3,(H,7,8)(H,9,10)/t5-/m0/s1",
        "InChIKey": null,
        "Canonical SMILES": "O=CNC(C(=O)O)C(C)C",
        "Molecular Formula": "C<sub>6</sub>H<sub>11</sub>NO<sub>3</sub>",
        "Molecular Mass": "145.16",
        "Melting Point": "148-149 °C"
    }
}