{
    "cas_no": "7471-03-6",
    "key_name": "2-Amino-4-benzothiazolol",
    "cn_name": "4-羟基-2-氨基苯并噻唑;",
    "alternate_name": "4-Benzothiazolol, 2-amino-;2-Amino-4-benzothiazolol;NSC 403535;2-Amino-4-hydroxybenzothiazole;2-Amino-1,3-benzothiazol-4-ol;2-Aminobenzothiazol-4-ol",
    "duplicated_cas_no": "",
    "SMILES": "OC1=C2C(SC(N)=N2)=CC=C1",
    "meta_data": {
        "InChI": "InChI=1S/C7H6N2OS/c8-7-9-6-4(10)2-1-3-5(6)11-7/h1-3,10H,(H2,8,9)",
        "InChIKey": null,
        "Canonical SMILES": "OC1=CC=CC=2SC(=NC12)N",
        "Molecular Formula": "C<sub>7</sub>H<sub>6</sub>N<sub>2</sub>OS",
        "Molecular Mass": "166.20",
        "Melting Point": "186 °C"
    }
}