{
    "cas_no": "16694-17-0",
    "key_name": "4-Bromo-3-thiophenecarboxylic acid",
    "cn_name": null,
    "alternate_name": "3-Thiophenecarboxylic acid, 4-bromo-;4-Bromo-3-thiophenecarboxylic acid;3-Bromo-4-thiophenecarboxylic acid",
    "duplicated_cas_no": "",
    "SMILES": "C(O)(=O)C=1C(Br)=CSC1",
    "meta_data": {
        "InChI": "InChI=1S/C5H3BrO2S/c6-4-2-9-1-3(4)5(7)8/h1-2H,(H,7,8)",
        "InChIKey": null,
        "Canonical SMILES": "O=C(O)C1=CSC=C1Br",
        "Molecular Formula": "C<sub>5</sub>H<sub>3</sub>BrO<sub>2</sub>S",
        "Molecular Mass": "207.05",
        "Melting Point": "150-152 °C"
    }
}