{
    "cas_no": "17906-35-3",
    "key_name": "Silicic acid (H<sub>4</sub>SiO<sub>4</sub>), tris(1,1-dimethylpropyl) ester",
    "cn_name": "三(叔-五氧代)硅烷醇;",
    "alternate_name": "Silicic acid (H<sub>4</sub>SiO<sub>4</sub>), tris(1,1-dimethylpropyl) ester;<em>tert</em>-Pentyl alcohol, triester with silicic acid (H<sub>4</sub>SiO<sub>4</sub>);Tris(<em>tert</em>-pentyloxy)silanol;Tris(<em>tert</em>-pentoxy)silanol;Tris(2-methyl-2-butoxy)silanol",
    "duplicated_cas_no": "",
    "SMILES": "O([Si](OC(CC)(C)C)(OC(CC)(C)C)O)C(CC)(C)C",
    "meta_data": {
        "InChI": "InChI=1S/C15H34O4Si/c1-10-13(4,5)17-20(16,18-14(6,7)11-2)19-15(8,9)12-3/h16H,10-12H2,1-9H3",
        "InChIKey": null,
        "Canonical SMILES": "O[Si](OC(C)(C)CC)(OC(C)(C)CC)OC(C)(C)CC",
        "Molecular Formula": "C<sub>15</sub>H<sub>34</sub>O<sub>4</sub>Si",
        "Molecular Mass": "306.51",
        "Boiling Point": "96-99 °C @ Press: 2.5 Torr"
    }
}