{
    "cas_no": "175463-32-8",
    "key_name": "1-Pyrrolidinecarboxylic acid, 3-cyano-4-oxo-, 1,1-dimethylethyl ester",
    "cn_name": "1-Boc-3-氰基-4-吡咯烷酮;3-氰基-4-氧代吡咯烷-1-甲酸叔丁酯;",
    "alternate_name": "1-Pyrrolidinecarboxylic acid, 3-cyano-4-oxo-, 1,1-dimethylethyl ester;<em>tert</em>-Butyl 3-cyano-4-oxo-1-pyrrolidine carboxylate;1-<em>tert</em>-Butoxycarbonyl-4-oxopyrrolidine-3-carbonitrile;1,1-Dimethylethyl 3-cyano-4-oxo-1-pyrrolidinecarboxylate;1-Boc-3-cyano-4-pyrrolidinone;1-Boc-4-cyanopyrrolidin-3-one;1-Boc-3-cyano-4-oxopyrrolidine",
    "duplicated_cas_no": "",
    "SMILES": "C(OC(C)(C)C)(=O)N1CC(C#N)C(=O)C1",
    "meta_data": {
        "InChI": "InChI=1S/C10H14N2O3/c1-10(2,3)15-9(14)12-5-7(4-11)8(13)6-12/h7H,5-6H2,1-3H3",
        "InChIKey": null,
        "Canonical SMILES": "N#CC1C(=O)CN(C(=O)OC(C)(C)C)C1",
        "Molecular Formula": "C<sub>10</sub>H<sub>14</sub>N<sub>2</sub>O<sub>3</sub>",
        "Molecular Mass": "210.23",
        "Melting Point": "160-161 °C"
    }
}