{
    "cas_no": "552-70-5",
    "key_name": "Pseudopelletierine",
    "cn_name": "9-甲基-9-氮杂双环[3.3.1]壬-3-酮;",
    "alternate_name": "9-Azabicyclo[3.3.1]nonan-3-one, 9-methyl-;Pseudopelletierine;9-Methyl-9-azabicyclo[3.3.1]nonan-3-one;9-Methyl-3-granataninone;ψ-Pelletierine;Granatan-3-one;9-Methyl-3-granatanone;Pseudopunicine;Pseudopelletierin;NSC 116056",
    "duplicated_cas_no": "25865-99-0",
    "SMILES": "CN1C2CC(=O)CC1CCC2",
    "meta_data": {
        "InChI": "InChI=1S/C9H15NO/c1-10-7-3-2-4-8(10)6-9(11)5-7/h7-8H,2-6H2,1H3",
        "InChIKey": null,
        "Canonical SMILES": "O=C1CC2N(C)C(C1)CCC2",
        "Molecular Formula": "C<sub>9</sub>H<sub>15</sub>NO",
        "Molecular Mass": "153.22",
        "Boiling Point": "246 °C",
        "Melting Point": "54 °C"
    }
}