{
    "cas_no": "78016-98-5",
    "key_name": "2-(Trifluoromethyl)-1<em>H</em>-imidazole-5-carboxylic acid",
    "cn_name": null,
    "alternate_name": "1<em>H</em>-Imidazole-5-carboxylic acid, 2-(trifluoromethyl)-;1<em>H</em>-Imidazole-4-carboxylic acid, 2-(trifluoromethyl)-;2-(Trifluoromethyl)-1<em>H</em>-imidazole-5-carboxylic acid;2-Trifluoromethylimidazole-4-carboxylic acid;2-(Trifluoromethyl)-1<em>H</em>-imidazole-4-carboxylic acid",
    "duplicated_cas_no": "",
    "SMILES": "C(F)(F)(F)C=1NC(C(O)=O)=CN1",
    "meta_data": {
        "InChI": "InChI=1S/C5H3F3N2O2/c6-5(7,8)4-9-1-2(10-4)3(11)12/h1H,(H,9,10)(H,11,12)",
        "InChIKey": null,
        "Canonical SMILES": "O=C(O)C1=CN=C(N1)C(F)(F)F",
        "Molecular Formula": "C<sub>5</sub>H<sub>3</sub>F<sub>3</sub>N<sub>2</sub>O<sub>2</sub>",
        "Molecular Mass": "180.08",
        "Melting Point": "264-265 °C (decomp)"
    }
}