{
    "cas_no": "3020-81-3",
    "key_name": "Butanimidamide, hydrochloride (1:1)",
    "cn_name": "盐酸丁脒;",
    "alternate_name": "Butanimidamide, hydrochloride (1:1);Butyramidine, monohydrochloride;Butanimidamide, monohydrochloride;Butyramidine, hydrochloride;Butanimidamide hydrochloride;Butanamidine hydrochloride",
    "duplicated_cas_no": "1195144-35-4",
    "SMILES": "C(C(=N)N)CC.Cl",
    "meta_data": {
        "InChI": "InChI=1S/C4H10N2.ClH/c1-2-3-4(5)6;/h2-3H2,1H3,(H3,5,6);1H",
        "InChIKey": null,
        "Canonical SMILES": "Cl.N=C(N)CCC",
        "Molecular Formula": "C<sub>4</sub>H<sub>10</sub>N<sub>2</sub>.ClH",
        "Molecular Mass": "",
        "Melting Point": "107-108 °C"
    }
}