{
    "cas_no": "179324-87-9",
    "key_name": "4,6-Methano-1,3,2-benzodioxaborole-2-methanamine, hexahydro-3a,8,8-trimethyl-α-(2-methylpropyl)-, (α<em>R</em>,3a<em>S</em>,4<em>S</em>,6<em>S</em>,7a<em>R</em>)-, 2,2,2-trifluoroacetate (1:1)",
    "cn_name": "(aR,3aS,4S,6S,7aR)-六氢-3a,8,8-三甲基-alpha-(2-甲基丙基)-4,6-甲桥-1,3,2-苯并二氧硼烷-2-甲胺2,2,2-三;",
    "alternate_name": "4,6-Methano-1,3,2-benzodioxaborole-2-methanamine, hexahydro-3a,8,8-trimethyl-α-(2-methylpropyl)-, (α<em>R</em>,3a<em>S</em>,4<em>S</em>,6<em>S</em>,7a<em>R</em>)-, 2,2,2-trifluoroacetate (1:1);4,6-Methano-1,3,2-benzodioxaborole-2-methanamine, hexahydro-3a,5,5-trimethyl-α-(2-methylpropyl)-, [3a<em>S</em>-[2(<em>S</em>*),3aα,4β,6β,7aα]]-, trifluoroacetate;4,6-Methano-1,3,2-benzodioxaborole-2-methanamine, hexahydro-3a,5,5-trimethyl-α-(2-methylpropyl)-, (α<em>R</em>,3a<em>S</em>,4<em>S</em>,6<em>S</em>,7a<em>R</em>)-, trifluoroacetate",
    "duplicated_cas_no": "",
    "SMILES": "C[C@]12[C@@]3(C(C)(C)[C@@](C3)(C[C@]1(OB([C@H](CC(C)C)N)O2)[H])[H])[H].C(C(O)=O)(F)(F)F",
    "meta_data": {
        "InChI": "InChI=1S/C15H28BNO2.C2HF3O2/c1-9(2)6-13(17)16-18-12-8-10-7-11(14(10,3)4)15(12,5)19-16;3-2(4,5)1(6)7/h9-13H,6-8,17H2,1-5H3;(H,6,7)/t10-,11-,12+,13-,15-;/m0./s1",
        "InChIKey": null,
        "Canonical SMILES": "O=C(O)C(F)(F)F.O1B(OC2(C)C1CC3CC2C3(C)C)C(N)CC(C)C",
        "Molecular Formula": "C<sub>15</sub>H<sub>28</sub>BNO<sub>2</sub>.C<sub>2</sub>HF<sub>3</sub>O<sub>2</sub>",
        "Molecular Mass": "",
        "Melting Point": "197-198 °C"
    }
}