{
    "cas_no": "693-57-2",
    "key_name": "12-Aminododecanoic acid",
    "cn_name": null,
    "alternate_name": "Dodecanoic acid, 12-amino-;12-Aminododecanoic acid;λ-Aminolauric acid;ω-Aminolauric acid;12-Aminolauric acid;ω-Aminododecanoic acid;ADA;12-Amindodecanoic acid",
    "duplicated_cas_no": "95418-77-2",
    "SMILES": "C(CCCCCCCCN)CCC(O)=O",
    "meta_data": {
        "InChI": "InChI=1S/C12H25NO2/c13-11-9-7-5-3-1-2-4-6-8-10-12(14)15/h1-11,13H2,(H,14,15)",
        "InChIKey": null,
        "Canonical SMILES": "O=C(O)CCCCCCCCCCCN",
        "Molecular Formula": "C<sub>12</sub>H<sub>25</sub>NO<sub>2</sub>",
        "Molecular Mass": "215.33",
        "Melting Point": "184 °C"
    }
}