{
    "cas_no": "35094-87-2",
    "key_name": "2,4,5-Trihydroxybenzaldehyde",
    "cn_name": "2,4,5-三羟基苯甲醛;",
    "alternate_name": "Benzaldehyde, 2,4,5-trihydroxy-;2,4,5-Trihydroxybenzaldehyde;4,5-Dihydroxysalicylaldehyde",
    "duplicated_cas_no": "",
    "SMILES": "C(=O)C1=C(O)C=C(O)C(O)=C1",
    "meta_data": {
        "InChI": "InChI=1S/C7H6O4/c8-3-4-1-6(10)7(11)2-5(4)9/h1-3,9-11H",
        "InChIKey": null,
        "Canonical SMILES": "O=CC1=CC(O)=C(O)C=C1O",
        "Molecular Formula": "C<sub>7</sub>H<sub>6</sub>O<sub>4</sub>",
        "Molecular Mass": "154.12",
        "Melting Point": "229-230 °C"
    }
}