{
    "cas_no": "2456-28-2",
    "key_name": "Decyl ether",
    "cn_name": "癸醚;",
    "alternate_name": "Decane, 1,1′-oxybis-;Decyl ether;1,1′-Oxybis[decane];Capric ether;Didecyl ether;<em>n</em>-Decyl ether;Dicapryl ether;NSC 83605;1-Decoxydecane",
    "duplicated_cas_no": "",
    "SMILES": "O(CCCCCCCCCC)CCCCCCCCCC",
    "meta_data": {
        "InChI": "InChI=1S/C20H42O/c1-3-5-7-9-11-13-15-17-19-21-20-18-16-14-12-10-8-6-4-2/h3-20H2,1-2H3",
        "InChIKey": null,
        "Canonical SMILES": "O(CCCCCCCCCC)CCCCCCCCCC",
        "Molecular Formula": "C<sub>20</sub>H<sub>42</sub>O",
        "Molecular Mass": "298.55",
        "Boiling Point": "196 °C @ Press: 15.5 Torr",
        "Melting Point": "16 °C",
        "Density": "0.8187 g/cm³ @ Temp: 20 °C"
    }
}