{
    "cas_no": "5302-79-4",
    "key_name": "7-Methoxy-1-naphthalenamine",
    "cn_name": "7-甲氧基-1-萘胺;7-甲氧基-1-萘胺;",
    "alternate_name": "1-Naphthalenamine, 7-methoxy-;1-Naphthylamine, 7-methoxy-;7-Methoxy-1-naphthalenamine;7-Methoxy-1-naphthylamine;1-Amino-7-methoxynaphthalene;NSC 37570",
    "duplicated_cas_no": "",
    "SMILES": "NC=1C2=C(C=CC(OC)=C2)C=CC1",
    "meta_data": {
        "InChI": "InChI=1S/C11H11NO/c1-13-9-6-5-8-3-2-4-11(12)10(8)7-9/h2-7H,12H2,1H3",
        "InChIKey": null,
        "Canonical SMILES": "O(C=1C=CC=2C=CC=C(N)C2C1)C",
        "Molecular Formula": "C<sub>11</sub>H<sub>11</sub>NO",
        "Molecular Mass": "173.21",
        "Boiling Point": "151-153 °C @ Press: 5 Torr",
        "Melting Point": "75-77 °C"
    }
}