{
    "cas_no": "17146-09-7",
    "key_name": "(3-Phenylpropyl)dimethylchlorosilane",
    "cn_name": "二甲基(3-苯丙基)氯化硅烷;",
    "alternate_name": "Benzene, [3-(chlorodimethylsilyl)propyl]-;Silane, chlorodimethyl(3-phenylpropyl)-;[3-(Chlorodimethylsilyl)propyl]benzene;3-(Phenylpropyl)chlorodimethylsilane;(3-Phenylpropyl)dimethylchlorosilane",
    "duplicated_cas_no": "",
    "SMILES": "C(CC[Si](C)(C)Cl)C1=CC=CC=C1",
    "meta_data": {
        "InChI": "InChI=1S/C11H17ClSi/c1-13(2,12)10-6-9-11-7-4-3-5-8-11/h3-5,7-8H,6,9-10H2,1-2H3",
        "InChIKey": null,
        "Canonical SMILES": "Cl[Si](C)(C)CCCC=1C=CC=CC1",
        "Molecular Formula": "C<sub>11</sub>H<sub>17</sub>ClSi",
        "Molecular Mass": "212.79",
        "Boiling Point": "75 °C @ Press: 0.5 Torr",
        "Density": "0.963 g/cm³"
    }
}