{
    "cas_no": "5561-99-9",
    "key_name": "<em>cis</em>-11-Eicosenoic acid",
    "cn_name": "(E)-11-二十烯酸;",
    "alternate_name": "11-Eicosenoic acid, (11<em>Z</em>)-;11-Eicosenoic acid, (<em>Z</em>)-;(11<em>Z</em>)-11-Eicosenoic acid;<em>cis</em>-Δ<sup>11</sup>-Eicosenoic acid;<em>cis</em>-11-Eicosenoic acid;Gondoic acid;(<em>Z</em>)-11-Eicosenoic acid;11-<em>cis</em>-Eicosenoic acid;11<em>Z</em>-Eicosenoic acid",
    "duplicated_cas_no": "62445-90-3",
    "SMILES": "C(CC/C=C\\CCCCCCCC)CCCCCCC(O)=O",
    "meta_data": {
        "InChI": "InChI=1S/C20H38O2/c1-2-3-4-5-6-7-8-9-10-11-12-13-14-15-16-17-18-19-20(21)22/h9-10H,2-8,11-19H2,1H3,(H,21,22)/b10-9-",
        "InChIKey": null,
        "Canonical SMILES": "O=C(O)CCCCCCCCCC=CCCCCCCCC",
        "Molecular Formula": "C<sub>20</sub>H<sub>38</sub>O<sub>2</sub>",
        "Molecular Mass": "310.51",
        "Melting Point": "23.5-24 °C"
    }
}