{
    "cas_no": "111011-63-3",
    "key_name": "Landel",
    "cn_name": "依福地平;",
    "alternate_name": "3-Pyridinecarboxylic acid, 5-(5,5-dimethyl-2-oxido-1,3,2-dioxaphosphorinan-2-yl)-1,4-dihydro-2,6-dimethyl-4-(3-nitrophenyl)-, 2-[phenyl(phenylmethyl)amino]ethyl ester;3-Pyridinecarboxylic acid, 5-(5,5-dimethyl-1,3,2-dioxaphosphorinan-2-yl)-1,4-dihydro-2,6-dimethyl-4-(3-nitrophenyl)-, 2-[phenyl(phenylmethyl)amino]ethyl ester, <em>P</em>-oxide;1,3,2-Dioxaphosphorinane, 3-pyridinecarboxylic acid deriv.;Efonidipine;(±)-Efonidipine;Landel",
    "duplicated_cas_no": "",
    "SMILES": "C(OCCN(CC1=CC=CC=C1)C2=CC=CC=C2)(=O)C=3C(C(=C(C)NC3C)P4(=O)OCC(C)(C)CO4)C5=CC(N(=O)=O)=CC=C5",
    "meta_data": {
        "InChI": "InChI=1S/C34H38N3O7P/c1-24-30(33(38)42-19-18-36(28-15-9-6-10-16-28)21-26-12-7-5-8-13-26)31(27-14-11-17-29(20-27)37(39)40)32(25(2)35-24)45(41)43-22-34(3,4)23-44-45/h5-17,20,31,35H,18-19,21-23H2,1-4H3",
        "InChIKey": null,
        "Canonical SMILES": "O=C(OCCN(C=1C=CC=CC1)CC=2C=CC=CC2)C3=C(NC(=C(C3C=4C=CC=C(C4)N(=O)=O)P5(=O)OCC(C)(C)CO5)C)C",
        "Molecular Formula": "C<sub>34</sub>H<sub>38</sub>N<sub>3</sub>O<sub>7</sub>P",
        "Molecular Mass": "631.66",
        "Melting Point": "169-170 °C"
    }
}