{
    "cas_no": "551-06-4",
    "key_name": "1-Naphthyl isothiocyanate",
    "cn_name": null,
    "alternate_name": "Naphthalene, 1-isothiocyanato-;Isothiocyanic acid, 1-naphthyl ester;1-Isothiocyanatonaphthalene;α-Naphthyl isothiocyanate;ANI;ANIT;1-Naphthyl isothiocyanate;NSC 89741;Naphthalen-1-yl isothiocyanate;MeSH ID: D015058",
    "duplicated_cas_no": "2124236-76-4",
    "SMILES": "N(=C=S)C=1C2=C(C=CC1)C=CC=C2",
    "meta_data": {
        "InChI": "InChI=1S/C11H7NS/c13-8-12-11-7-3-5-9-4-1-2-6-10(9)11/h1-7H",
        "InChIKey": null,
        "Canonical SMILES": "S=C=NC1=CC=CC=2C=CC=CC12",
        "Molecular Formula": "C<sub>11</sub>H<sub>7</sub>NS",
        "Molecular Mass": "185.24",
        "Boiling Point": "190 °C @ Press: 20 Torr",
        "Melting Point": "58 °C"
    }
}