{
    "cas_no": "452-65-3",
    "key_name": "1-Fluoro-2,4-dimethylbenzene",
    "cn_name": null,
    "alternate_name": "Benzene, 1-fluoro-2,4-dimethyl-;<em>m</em>-Xylene, 4-fluoro-;1-Fluoro-2,4-dimethylbenzene;1,3-Dimethyl-4-fluorobenzene;2,4-Dimethylfluorobenzene",
    "duplicated_cas_no": "",
    "SMILES": "CC1=C(F)C=CC(C)=C1",
    "meta_data": {
        "InChI": "InChI=1S/C8H9F/c1-6-3-4-8(9)7(2)5-6/h3-5H,1-2H3",
        "InChIKey": null,
        "Canonical SMILES": "FC1=CC=C(C=C1C)C",
        "Molecular Formula": "C<sub>8</sub>H<sub>9</sub>F",
        "Molecular Mass": "124.16",
        "Boiling Point": "140 °C",
        "Density": "0.998 g/cm³ @ Temp: 20 °C"
    }
}