{
    "cas_no": "1078-58-6",
    "key_name": "Diphenylzinc",
    "cn_name": "二苯锌;二苯基锌;",
    "alternate_name": "Zinc, diphenyl-;Diphenylzinc",
    "duplicated_cas_no": "",
    "SMILES": "[Zn](C1=CC=CC=C1)C2=CC=CC=C2",
    "meta_data": {
        "InChI": "InChI=1S/2C6H5.Zn/c2*1-2-4-6-5-3-1;/h2*1-5H;",
        "InChIKey": null,
        "Canonical SMILES": "[Zn](C=1C=CC=CC1)C=2C=CC=CC2",
        "Molecular Formula": "C<sub>12</sub>H<sub>10</sub>Zn",
        "Molecular Mass": "",
        "Boiling Point": "280-285 °C",
        "Melting Point": "105-106 °C"
    }
}