{
    "cas_no": "1483-56-3",
    "key_name": "2-Bromo-5-(trifluoromethyl)benzoic acid",
    "cn_name": "2-溴-5-三氟甲基苯甲酸;",
    "alternate_name": "Benzoic acid, 2-bromo-5-(trifluoromethyl)-;<em>m</em>-Toluic acid, 6-bromo-α,α,α-trifluoro-;2-Bromo-5-(trifluoromethyl)benzoic acid",
    "duplicated_cas_no": "",
    "SMILES": "C(O)(=O)C1=CC(C(F)(F)F)=CC=C1Br",
    "meta_data": {
        "InChI": "InChI=1S/C8H4BrF3O2/c9-6-2-1-4(8(10,11)12)3-5(6)7(13)14/h1-3H,(H,13,14)",
        "InChIKey": null,
        "Canonical SMILES": "O=C(O)C1=CC(=CC=C1Br)C(F)(F)F",
        "Molecular Formula": "C<sub>8</sub>H<sub>4</sub>BrF<sub>3</sub>O<sub>2</sub>",
        "Molecular Mass": "269.02",
        "Melting Point": "116-117 °C"
    }
}