{
    "cas_no": "52189-63-6",
    "key_name": "1-Fluoro-3,5-dimethoxybenzene",
    "cn_name": "1,3-二甲氧基-5-氟苯;",
    "alternate_name": "Benzene, 1-fluoro-3,5-dimethoxy-;1-Fluoro-3,5-dimethoxybenzene;3,5-Dimethoxyfluorobenzene;1,3-Dimethoxy-5-fluorobenzene;3,5-Dimethoxy-1-fluorobenzene",
    "duplicated_cas_no": "",
    "SMILES": "O(C)C1=CC(OC)=CC(F)=C1",
    "meta_data": {
        "InChI": "InChI=1S/C8H9FO2/c1-10-7-3-6(9)4-8(5-7)11-2/h3-5H,1-2H3",
        "InChIKey": null,
        "Canonical SMILES": "FC=1C=C(OC)C=C(OC)C1",
        "Molecular Formula": "C<sub>8</sub>H<sub>9</sub>FO<sub>2</sub>",
        "Molecular Mass": "156.15",
        "Boiling Point": "88 °C @ Press: 6 Torr"
    }
}