{
    "cas_no": "3261-87-8",
    "key_name": "1,4-Oxathiane-2,6-dione",
    "cn_name": "硫代羟基乙酸酐;硫代羟基乙酸酐;",
    "alternate_name": "1,4-Oxathiane-2,6-dione;Acetic acid, thiodi-, cyclic anhydride;Acetic acid, 2,2′-thiobis-, cyclic anhydride;Thiodiglycolic anhydride;NSC 147625;2,2′-Thiodiglycolic anhydride",
    "duplicated_cas_no": "",
    "SMILES": "O=C1OC(=O)CSC1",
    "meta_data": {
        "InChI": "InChI=1S/C4H4O3S/c5-3-1-8-2-4(6)7-3/h1-2H2",
        "InChIKey": null,
        "Canonical SMILES": "O=C1OC(=O)CSC1",
        "Molecular Formula": "C<sub>4</sub>H<sub>4</sub>O<sub>3</sub>S",
        "Molecular Mass": "132.14",
        "Boiling Point": "158-159 °C @ Press: 12 Torr"
    }
}