{
    "cas_no": "3937-28-8",
    "key_name": "Dichloro-2-propen-1-ylsilane",
    "cn_name": null,
    "alternate_name": "Silane, dichloro-2-propen-1-yl-;Silane, allyldichloro-;Silane, dichloro-2-propenyl-;Dichloro-2-propen-1-ylsilane",
    "duplicated_cas_no": "",
    "SMILES": "C([SiH](Cl)Cl)C=C",
    "meta_data": {
        "InChI": "InChI=1S/C3H6Cl2Si/c1-2-3-6(4)5/h2,6H,1,3H2",
        "InChIKey": null,
        "Canonical SMILES": "Cl[SiH](Cl)CC=C",
        "Molecular Formula": "C<sub>3</sub>H<sub>6</sub>Cl<sub>2</sub>Si",
        "Molecular Mass": "141.07",
        "Boiling Point": "97 °C",
        "Density": "1.086 g/cm³ @ Temp: 27 °C"
    }
}