{
    "cas_no": "52200-90-5",
    "key_name": "4-Amino-2-methoxyphenol",
    "cn_name": null,
    "alternate_name": "Phenol, 4-amino-2-methoxy-;Guaiacol, 4-amino-;4-Amino-2-methoxyphenol;4-Aminoguaiacol;2-Methoxy-4-aminophenol;4-Hydroxy-3-methoxyaniline;NSC 405988;3-Methoxy-4-hydroxyaniline",
    "duplicated_cas_no": "",
    "SMILES": "O(C)C1=C(O)C=CC(N)=C1",
    "meta_data": {
        "InChI": "InChI=1S/C7H9NO2/c1-10-7-4-5(8)2-3-6(7)9/h2-4,9H,8H2,1H3",
        "InChIKey": null,
        "Canonical SMILES": "OC1=CC=C(N)C=C1OC",
        "Molecular Formula": "C<sub>7</sub>H<sub>9</sub>NO<sub>2</sub>",
        "Molecular Mass": "139.15",
        "Melting Point": "177-178 °C"
    }
}