{
    "cas_no": "1729-67-5",
    "key_name": "Propanoic acid, 2,3-dibromo-, methyl ester",
    "cn_name": "2,3-二溴丙酸甲酯;",
    "alternate_name": "Propanoic acid, 2,3-dibromo-, methyl ester;Propionic acid, 2,3-dibromo-, methyl ester;Methyl 2,3-dibromopropionate;Methyl 2,3-dibromopropanoate;Methyl α,β-dibromopropionate;2,3-Dibromopropionic acid methyl ester;(±)-2,3-Dibromopropionic acid methyl ester;2,3-Dibromopropanoic acid methyl ester;NSC 9372",
    "duplicated_cas_no": "131699-98-4",
    "SMILES": "C(C(OC)=O)(CBr)Br",
    "meta_data": {
        "InChI": "InChI=1S/C4H6Br2O2/c1-8-4(7)3(6)2-5/h3H,2H2,1H3",
        "InChIKey": null,
        "Canonical SMILES": "O=C(OC)C(Br)CBr",
        "Molecular Formula": "C<sub>4</sub>H<sub>6</sub>Br<sub>2</sub>O<sub>2</sub>",
        "Molecular Mass": "245.90",
        "Boiling Point": "206 °C",
        "Density": "1.9605 g/cm³ @ Temp: 0 °C"
    }
}