{
    "cas_no": "424-18-0",
    "key_name": "Methyl 2,2,3,3,4,4,5,5,6,6,6-undecafluorohexanoate",
    "cn_name": "十一氟代己酸甲酯;十一氟代己酸甲酯;",
    "alternate_name": "Hexanoic acid, 2,2,3,3,4,4,5,5,6,6,6-undecafluoro-, methyl ester;Hexanoic acid, undecafluoro-, methyl ester;Methyl 2,2,3,3,4,4,5,5,6,6,6-undecafluorohexanoate;Methyl undecafluorohexanoate;Methyl perfluorohexanoate;2,2,3,3,4,4,5,5,6,6,6-Undecafluorohexanoic acid methyl ester",
    "duplicated_cas_no": "",
    "SMILES": "C(C(C(C(OC)=O)(F)F)(F)F)(C(C(F)(F)F)(F)F)(F)F",
    "meta_data": {
        "InChI": "InChI=1S/C7H3F11O2/c1-20-2(19)3(8,9)4(10,11)5(12,13)6(14,15)7(16,17)18/h1H3",
        "InChIKey": null,
        "Canonical SMILES": "O=C(OC)C(F)(F)C(F)(F)C(F)(F)C(F)(F)C(F)(F)F",
        "Molecular Formula": "C<sub>7</sub>H<sub>3</sub>F<sub>11</sub>O<sub>2</sub>",
        "Molecular Mass": "328.08",
        "Boiling Point": "119 °C @ Press: 760 Torr",
        "Density": "1.579 g/cm³ @ Temp: 20 °C"
    }
}