{
    "cas_no": "52-51-7",
    "key_name": "Bronopol",
    "cn_name": "2-溴-2-硝基-1,3-丙醇;布罗波尔;溴硝醇;",
    "alternate_name": "1,3-Propanediol, 2-bromo-2-nitro-;2-Bromo-2-nitro-1,3-propanediol;Bronopol;2-Bromo-2-nitropropan-1,3-diol;Onyxide 500;Bronocot;2-Nitro-2-bromo-1,3-propanediol;Bronidiol;Myacide AS;Nalco 92RU093;Canguard 409;BNPK;N 25;N 25 (antimicrobial);Myacide BT;Bactrinol 100;Bioban;Myacide Pharma BP;Ultra-Fresh SAB;NSC 141021;BNPD;Pyceze;BE 6;BE 6 (bactericide);Topcide 2520;2-Bromo-2-nitropropane-1,3-diol;Bronotak;Acticide L 30;Myacide AS Plus;Bioban BP Plus;Protectol BN 98;Protectol BN 99;Preventol P 100;Bactronol;Busan 1144;Bactrinashak;Bioban BP 40;Bioban BP 10;Protectol BN;Bactinash 200;Acticide L 10",
    "duplicated_cas_no": "133248-96-1;179733-60-9;1135443-73-0",
    "SMILES": "C(N(=O)=O)(CO)(CO)Br",
    "meta_data": {
        "InChI": "InChI=1S/C3H6BrNO4/c4-3(1-6,2-7)5(8)9/h6-7H,1-2H2",
        "InChIKey": null,
        "Canonical SMILES": "O=N(=O)C(Br)(CO)CO",
        "Molecular Formula": "C<sub>3</sub>H<sub>6</sub>BrNO<sub>4</sub>",
        "Molecular Mass": "199.99",
        "Melting Point": "131.5 °C",
        "Density": "1.1 g/cm³"
    }
}