{
    "cas_no": "110-75-8",
    "key_name": "2-Chloroethyl vinyl ether",
    "cn_name": "2-氯乙基乙烯基醚;乙烯(2-氯乙基)醚;",
    "alternate_name": "Ethene, (2-chloroethoxy)-;Ether, 2-chloroethyl vinyl;(2-Chloroethoxy)ethene;2-Chloroethyl vinyl ether;Vinyl β-chloroethyl ether;Vinyl 2-chloroethyl ether;β-Chloroethyl vinyl ether;2-Vinyloxyethyl chloride;1-Chloro-2-vinyloxyethane;NSC 8261",
    "duplicated_cas_no": "",
    "SMILES": "C(OC=C)CCl",
    "meta_data": {
        "InChI": "InChI=1S/C4H7ClO/c1-2-6-4-3-5/h2H,1,3-4H2",
        "InChIKey": null,
        "Canonical SMILES": "ClCCOC=C",
        "Molecular Formula": "C<sub>4</sub>H<sub>7</sub>ClO",
        "Molecular Mass": "106.55",
        "Boiling Point": "110 °C",
        "Melting Point": "-70.3 °C",
        "Density": "1.0495 g/cm³ @ Temp: 20 °C"
    }
}