{
    "cas_no": "3312-77-4",
    "key_name": "1-(Hexadecylthio)hexadecane",
    "cn_name": "N-十六烷基硫;",
    "alternate_name": "Hexadecane, 1-(hexadecylthio)-;Hexadecyl sulfide;Hexadecane, 1,1′-thiobis-;1-(Hexadecylthio)hexadecane;Dihexadecyl sulfide;Di-<em>n</em>-hexadecyl sulfide;Dicetyl sulfide;NSC 12044",
    "duplicated_cas_no": "",
    "SMILES": "S(CCCCCCCCCCCCCCCC)CCCCCCCCCCCCCCCC",
    "meta_data": {
        "InChI": "InChI=1S/C32H66S/c1-3-5-7-9-11-13-15-17-19-21-23-25-27-29-31-33-32-30-28-26-24-22-20-18-16-14-12-10-8-6-4-2/h3-32H2,1-2H3",
        "InChIKey": null,
        "Canonical SMILES": "S(CCCCCCCCCCCCCCCC)CCCCCCCCCCCCCCCC",
        "Molecular Formula": "C<sub>32</sub>H<sub>66</sub>S",
        "Molecular Mass": "482.93",
        "Melting Point": "62 °C"
    }
}