{
    "cas_no": "17347-61-4",
    "key_name": "2,2-Dimethylsuccinic anhydride",
    "cn_name": "2,2-二甲基琥珀酸酐;",
    "alternate_name": "2,5-Furandione, dihydro-3,3-dimethyl-;Succinic anhydride, 2,2-dimethyl-;Succinic anhydride, α,α-dimethyl-;Dihydro-3,3-dimethyl-2,5-furandione;α,α-Dimethylsuccinic anhydride;2,2-Dimethylsuccinic anhydride;3,4-Dihydro-3,3-dimethylfuran-2,5-dione;3,3-Dimethyl-3,4-dihydro-2,5-furandione;3,3-Dimethyldihydrofuran-2,5-dione;3,3-Dimethyltetrahydrofuran-2,5-dione;3,3-Dimethyloxolane-2,5-dione",
    "duplicated_cas_no": "",
    "SMILES": "CC1(C)C(=O)OC(=O)C1",
    "meta_data": {
        "InChI": "InChI=1S/C6H8O3/c1-6(2)3-4(7)9-5(6)8/h3H2,1-2H3",
        "InChIKey": null,
        "Canonical SMILES": "O=C1OC(=O)C(C)(C)C1",
        "Molecular Formula": "C<sub>6</sub>H<sub>8</sub>O<sub>3</sub>",
        "Molecular Mass": "128.13",
        "Boiling Point": "102-103 °C @ Press: 15 Torr"
    }
}