{
    "cas_no": "910487-58-0",
    "key_name": "2-[[6-Amino-3,5-dicyano-4-[4-(cyclopropylmethoxy)phenyl]-2-pyridinyl]thio]acetamide",
    "cn_name": null,
    "alternate_name": "Acetamide, 2-[[6-amino-3,5-dicyano-4-[4-(cyclopropylmethoxy)phenyl]-2-pyridinyl]thio]-;2-[[6-Amino-3,5-dicyano-4-[4-(cyclopropylmethoxy)phenyl]-2-pyridinyl]thio]acetamide;BAY 60-6583;BR 4887;2-[6-Amino-3,5-dicyano-4-(4-cyclopropylmethoxy-phenyl)-pyridin-2-ylsulfanyl]-acetamide;2-[6-Amino-3,5-dicyano-4-[4-(cyclopropylmethoxy)phenyl]pyridin-2-yl]sulfanylacetamide",
    "duplicated_cas_no": "",
    "SMILES": "C(#N)C=1C(=C(C#N)C(N)=NC1SCC(N)=O)C2=CC=C(OCC3CC3)C=C2",
    "meta_data": {
        "InChI": "InChI=1S/C19H17N5O2S/c20-7-14-17(12-3-5-13(6-4-12)26-9-11-1-2-11)15(8-21)19(24-18(14)23)27-10-16(22)25/h3-6,11H,1-2,9-10H2,(H2,22,25)(H2,23,24)",
        "InChIKey": null,
        "Canonical SMILES": "N#CC1=C(N=C(N)C(C#N)=C1C=2C=CC(OCC3CC3)=CC2)SCC(=O)N",
        "Molecular Formula": "C<sub>19</sub>H<sub>17</sub>N<sub>5</sub>O<sub>2</sub>S",
        "Molecular Mass": "379.44",
        "Melting Point": "219-220 °C"
    }
}