{
    "cas_no": "1184-10-7",
    "key_name": "Hexaphenoxycyclotriphosphazene",
    "cn_name": "苯氧基环磷腈;",
    "alternate_name": "2λ<sup>5</sup>,4λ<sup>5</sup>,6λ<sup>5</sup>-1,3,5,2,4,6-Triazatriphosphorine, 2,2,4,4,6,6-hexaphenoxy-;1,3,5,2,4,6-Triazatriphosphorine, 2,2,4,4,6,6-hexahydro-2,2,4,4,6,6-hexaphenoxy-;Phenyl metaphosphimate, trimer;2,2,4,4,6,6-Hexaphenoxy-2λ<sup>5</sup>,4λ<sup>5</sup>,6λ<sup>5</sup>-1,3,5,2,4,6-triazatriphosphorine;Trimeric bis(phenoxy)phosphonitrile;2,2,4,4,6,6-Hexahydro-2,2,4,4,6,6-hexaphenoxytriazatriphosphorine;Hexaphenoxycyclotriphosphazene;Hexaphenoxy-1,3,5,2,4,6-triazatriphosphorine;Hexaphenoxycyclotriphosphazatriene;NSC 117810;Diphenoxyphosphazene cyclic trimer;PZ 100;HT 231;2,2,4,4,6,6-Hexaphenoxy-2λ*5*,4λ*5*,6λ*5*-[1,3,5,2,4,6]triazatriphosphinine;Rabitle FP 110;FP 110;Fushimi FP 110;CG 40 (phosphazene);HPCTP;CG 40;SST PZ;LA 65155;HT 207 (phosphazene);HT 207;SN 901",
    "duplicated_cas_no": "1203646-63-2;2236057-00-2;2377320-46-0",
    "SMILES": "O(P=1(OC2=CC=CC=C2)N=P(OC3=CC=CC=C3)(OC4=CC=CC=C4)N=P(OC5=CC=CC=C5)(OC6=CC=CC=C6)N1)C7=CC=CC=C7",
    "meta_data": {
        "InChI": "InChI=1S/C36H30N3O6P3/c1-7-19-31(20-8-1)40-46(41-32-21-9-2-10-22-32)37-47(42-33-23-11-3-12-24-33,43-34-25-13-4-14-26-34)39-48(38-46,44-35-27-15-5-16-28-35)45-36-29-17-6-18-30-36/h1-30H",
        "InChIKey": null,
        "Canonical SMILES": "N=1P(=NP(=NP1(OC=2C=CC=CC2)OC=3C=CC=CC3)(OC=4C=CC=CC4)OC=5C=CC=CC5)(OC=6C=CC=CC6)OC=7C=CC=CC7",
        "Molecular Formula": "C<sub>36</sub>H<sub>30</sub>N<sub>3</sub>O<sub>6</sub>P<sub>3</sub>",
        "Molecular Mass": "693.56",
        "Melting Point": "110-111 °C"
    }
}