{
    "cas_no": "766-00-7",
    "key_name": "Cyclopentaneethanol",
    "cn_name": "2-环戊基乙醇;",
    "alternate_name": "Cyclopentaneethanol;2-Cyclopentylethanol;2-Cyclopentylethyl alcohol;2-Cyclopentaneethanol;2-Cyclopentylethan-1-ol",
    "duplicated_cas_no": "",
    "SMILES": "C(CO)C1CCCC1",
    "meta_data": {
        "InChI": "InChI=1S/C7H14O/c8-6-5-7-3-1-2-4-7/h7-8H,1-6H2",
        "InChIKey": null,
        "Canonical SMILES": "OCCC1CCCC1",
        "Molecular Formula": "C<sub>7</sub>H<sub>14</sub>O",
        "Molecular Mass": "114.19",
        "Boiling Point": "183 °C",
        "Density": "0.9189 g/cm³ @ Temp: 22.3 °C"
    }
}