{
    "cas_no": "96551-21-2",
    "key_name": "1,1-Dimethylethyl 3-(bromomethyl)-1<em>H</em>-indole-1-carboxylate",
    "cn_name": null,
    "alternate_name": "1<em>H</em>-Indole-1-carboxylic acid, 3-(bromomethyl)-, 1,1-dimethylethyl ester;1,1-Dimethylethyl 3-(bromomethyl)-1<em>H</em>-indole-1-carboxylate;1-(<em>tert</em>-Butoxycarbonyl)-3-(bromomethyl)-1<em>H</em>-indole;3-(Bromomethyl)-1-(<em>tert</em>-butoxycarbonyl)indole;1-(<em>tert</em>-Butoxycarbonyl)-3-(bromomethyl)indole;3-(Bromomethyl)indole-1-carboxylic acid tert-butyl ester;<em>tert</em>-Butyl 3-(bromomethyl)indole-1-carboxylate;2-Methylpropan-2-yl 3-(bromomethyl)-1<em>H</em>-indole-1-carboxylate;<em>N</em>-Boc-3-(bromomethyl)-1<em>H</em>-indole;<em>tert</em>-Butyl 3-(bromomethyl)-1<em>H</em>-indole-1-carboxylate",
    "duplicated_cas_no": "",
    "SMILES": "C(OC(C)(C)C)(=O)N1C=2C(C(CBr)=C1)=CC=CC2",
    "meta_data": {
        "InChI": "InChI=1S/C14H16BrNO2/c1-14(2,3)18-13(17)16-9-10(8-15)11-6-4-5-7-12(11)16/h4-7,9H,8H2,1-3H3",
        "InChIKey": null,
        "Canonical SMILES": "O=C(OC(C)(C)C)N1C=C(C=2C=CC=CC21)CBr",
        "Molecular Formula": "C<sub>14</sub>H<sub>16</sub>BrNO<sub>2</sub>",
        "Molecular Mass": "310.19",
        "Melting Point": "106-107 °C"
    }
}