{
    "cas_no": "3837-55-6",
    "key_name": "<em>N</em>,<em>N</em>-Dimethyl-4-[2-(3-nitrophenyl)diazenyl]benzenamine",
    "cn_name": "3-硝基-4-二甲基氨基偶氮苯;",
    "alternate_name": "Benzenamine, <em>N</em>,<em>N</em>-dimethyl-4-[2-(3-nitrophenyl)diazenyl]-;Aniline, <em>N</em>,<em>N</em>-dimethyl-<em>p</em>-[(<em>m</em>-nitrophenyl)azo]-;Benzenamine, <em>N</em>,<em>N</em>-dimethyl-4-[(3-nitrophenyl)azo]-;<em>N</em>,<em>N</em>-Dimethyl-4-[2-(3-nitrophenyl)diazenyl]benzenamine;4-Dimethylamino-3′-nitroazobenzene;<em>p</em>-Dimethylamino-<em>m</em>-nitroazobenzene;3′-Nitro-<em>N</em>,<em>N</em>-dimethyl-4-aminoazobenzene;<em>N</em>,<em>N</em>-Dimethyl-4-[(3-nitrophenyl)azo]aniline;3-Nitro-4′-dimethylaminoazobenzene;<em>N</em>,<em>N</em>-Dimethyl-4-amino-3′-nitroazobenzene;[4-(Dimethylamino)phenyl](3-nitrophenyl)diazene;NSC 204512;3′-Nitro-4-dimethylaminoazobenzene",
    "duplicated_cas_no": "",
    "SMILES": "N(=NC1=CC=C(N(C)C)C=C1)C2=CC(N(=O)=O)=CC=C2",
    "meta_data": {
        "InChI": "InChI=1S/C14H14N4O2/c1-17(2)13-8-6-11(7-9-13)15-16-12-4-3-5-14(10-12)18(19)20/h3-10H,1-2H3",
        "InChIKey": null,
        "Canonical SMILES": "O=N(=O)C=1C=CC=C(N=NC2=CC=C(C=C2)N(C)C)C1",
        "Molecular Formula": "C<sub>14</sub>H<sub>14</sub>N<sub>4</sub>O<sub>2</sub>",
        "Molecular Mass": "270.29",
        "Melting Point": "157 °C"
    }
}