{
    "cas_no": "2835-68-9",
    "key_name": "4-Aminobenzamide",
    "cn_name": "对氨基苯甲酰胺;",
    "alternate_name": "Benzamide, 4-amino-;Benzamide, <em>p</em>-amino-;4-Aminobenzamide;<em>p</em>-Aminobenzamide;<em>p</em>-Carbamoylaniline;4-Carbamoylaniline;SR 4329;<em>p</em>-Aminobenzenecarboxamide;(4-Aminophenyl)carboxamide;4-Aminobenzenecarboxamide;(4-(Aminocarbonyl)phenyl)amine;NSC 233920;NSC 36963;4-Carboxamidoaniline;4-(Aminocarbonyl)aniline;<em>p</em>-Aminocarbonylaniline",
    "duplicated_cas_no": "",
    "SMILES": "C(N)(=O)C1=CC=C(N)C=C1",
    "meta_data": {
        "InChI": "InChI=1S/C7H8N2O/c8-6-3-1-5(2-4-6)7(9)10/h1-4H,8H2,(H2,9,10)",
        "InChIKey": null,
        "Canonical SMILES": "O=C(N)C1=CC=C(N)C=C1",
        "Molecular Formula": "C<sub>7</sub>H<sub>8</sub>N<sub>2</sub>O",
        "Molecular Mass": "136.15",
        "Melting Point": "181-183 °C"
    }
}