{
    "cas_no": "51066-74-1",
    "key_name": "Methanamine, <em>N</em>-methyl-, hydriodide",
    "cn_name": null,
    "alternate_name": "Methanamine, <em>N</em>-methyl-, hydriodide;Dimethylamine hydriodide;Dimethylammonium iodide;Methanaminium, <em>N</em>-methyl-, iodide (1:1)",
    "duplicated_cas_no": "1166391-56-5",
    "SMILES": "N(C)C.I",
    "meta_data": {
        "InChI": "InChI=1S/C2H7N.HI/c1-3-2;/h3H,1-2H3;1H",
        "InChIKey": null,
        "Canonical SMILES": "I.N(C)C",
        "Molecular Formula": "C<sub>2</sub>H<sub>7</sub>N.HI",
        "Molecular Mass": "",
        "Melting Point": "147 °C"
    }
}