{
    "cas_no": "351994-94-0",
    "key_name": "<em>N</em><sup>1</sup>,<em>N</em><sup>3</sup>-Bis(2-mercaptoethyl)-1,3-benzenedicarboxamide",
    "cn_name": null,
    "alternate_name": "1,3-Benzenedicarboxamide, <em>N</em><sup>1</sup>,<em>N</em><sup>3</sup>-bis(2-mercaptoethyl)-;1,3-Benzenedicarboxamide, <em>N</em>,<em>N</em>′-bis(2-mercaptoethyl)-;<em>N</em><sup>1</sup>,<em>N</em><sup>3</sup>-Bis(2-mercaptoethyl)-1,3-benzenedicarboxamide;<em>N</em>,<em>N</em>′-Bis(2-mercaptoethyl)isophthalamide;Emeramide;1-<em>N</em>,3-<em>N</em>-Bis(2-sulfanylethyl)benzene-1,3-dicarboxamide;BDTH2",
    "duplicated_cas_no": "",
    "SMILES": "C(NCCS)(=O)C1=CC(C(NCCS)=O)=CC=C1",
    "meta_data": {
        "InChI": "InChI=1S/C12H16N2O2S2/c15-11(13-4-6-17)9-2-1-3-10(8-9)12(16)14-5-7-18/h1-3,8,17-18H,4-7H2,(H,13,15)(H,14,16)",
        "InChIKey": null,
        "Canonical SMILES": "O=C(NCCS)C1=CC=CC(=C1)C(=O)NCCS",
        "Molecular Formula": "C<sub>12</sub>H<sub>16</sub>N<sub>2</sub>O<sub>2</sub>S<sub>2</sub>",
        "Molecular Mass": "284.40",
        "Melting Point": "122-124 °C"
    }
}