{
    "cas_no": "34552-15-3",
    "key_name": "2-Chloro-3-fluoro-5-methylpyridine",
    "cn_name": "2-氯-3-氟-5-甲基吡啶;",
    "alternate_name": "Pyridine, 2-chloro-3-fluoro-5-methyl-;2-Chloro-3-fluoro-5-methylpyridine;6-Chloro-5-fluoro-3-methylpyridine;2-Chloro-3-fluoro-5-picoline",
    "duplicated_cas_no": "",
    "SMILES": "FC1=C(Cl)N=CC(C)=C1",
    "meta_data": {
        "InChI": "InChI=1S/C6H5ClFN/c1-4-2-5(8)6(7)9-3-4/h2-3H,1H3",
        "InChIKey": null,
        "Canonical SMILES": "FC1=CC(=CN=C1Cl)C",
        "Molecular Formula": "C<sub>6</sub>H<sub>5</sub>ClFN",
        "Molecular Mass": "145.56",
        "Boiling Point": "90-92 °C @ Press: 25 Torr",
        "Melting Point": "29-30 °C"
    }
}