{
    "cas_no": "13330-96-6",
    "key_name": "4-(Dimethylamino)-1-butanol",
    "cn_name": "二甲氨丁醇;4-二甲氨基-1-丁醇;",
    "alternate_name": "1-Butanol, 4-(dimethylamino)-;4-(Dimethylamino)-1-butanol;4-(Dimethylamino)butanol;<em>N</em>,<em>N</em>-Dimethyl-4-aminobutanol;NSC 165645;<em>N</em>,<em>N</em>-Dimethyl-4-hydroxybutylamine",
    "duplicated_cas_no": "",
    "SMILES": "C(CCCO)N(C)C",
    "meta_data": {
        "InChI": "InChI=1S/C6H15NO/c1-7(2)5-3-4-6-8/h8H,3-6H2,1-2H3",
        "InChIKey": null,
        "Canonical SMILES": "OCCCCN(C)C",
        "Molecular Formula": "C<sub>6</sub>H<sub>15</sub>NO",
        "Molecular Mass": "117.19",
        "Boiling Point": "81-84 °C @ Press: 12 Torr",
        "Density": "0.8826 g/cm³ @ Temp: 21 °C"
    }
}