{
    "cas_no": "5834-16-2",
    "key_name": "3-Methyl-2-thiophenecarboxaldehyde",
    "cn_name": "3-甲基噻吩醛;3-甲基-2-噻吩甲醛;",
    "alternate_name": "2-Thiophenecarboxaldehyde, 3-methyl-;3-Methyl-2-thiophenecarboxaldehyde;3-Methylthiophene-2-aldehyde;2-Formyl-3-methylthiophene;3-Methyl-2-formylthiophene;3-Methylthiophene-2-carbaldehyde",
    "duplicated_cas_no": "",
    "SMILES": "C(=O)C1=C(C)C=CS1",
    "meta_data": {
        "InChI": "InChI=1S/C6H6OS/c1-5-2-3-8-6(5)4-7/h2-4H,1H3",
        "InChIKey": null,
        "Canonical SMILES": "O=CC=1SC=CC1C",
        "Molecular Formula": "C<sub>6</sub>H<sub>6</sub>OS",
        "Molecular Mass": "126.18",
        "Boiling Point": "65 °C @ Press: 2.2 Torr",
        "Melting Point": "260-262 °C",
        "Density": "1.17 g/cm³"
    }
}