{
    "cas_no": "5744-59-2",
    "key_name": "1,5-Dimethyl-1<em>H</em>-pyrazole-3-carboxylic acid",
    "cn_name": "1,5-二甲基-1H-吡唑-3-羧酸;",
    "alternate_name": "1<em>H</em>-Pyrazole-3-carboxylic acid, 1,5-dimethyl-;Pyrazole-3-carboxylic acid, 1,5-dimethyl-;1,5-Dimethyl-1<em>H</em>-pyrazole-3-carboxylic acid;1,5-Dimethyl-3-pyrazolecarboxylic acid;1,5-Dimethyl-1H-pyrazole-3-carboxylic acid",
    "duplicated_cas_no": "",
    "SMILES": "C(O)(=O)C=1C=C(C)N(C)N1",
    "meta_data": {
        "InChI": "InChI=1S/C6H8N2O2/c1-4-3-5(6(9)10)7-8(4)2/h3H,1-2H3,(H,9,10)",
        "InChIKey": null,
        "Canonical SMILES": "O=C(O)C1=NN(C(=C1)C)C",
        "Molecular Formula": "C<sub>6</sub>H<sub>8</sub>N<sub>2</sub>O<sub>2</sub>",
        "Molecular Mass": "140.14",
        "Melting Point": "176-178 °C"
    }
}