{
    "cas_no": "605-70-9",
    "key_name": "1,4-Naphthalenedicarboxylic acid",
    "cn_name": "1,4-萘二甲酸;",
    "alternate_name": "1,4-Naphthalenedicarboxylic acid;1,4-Dicarboxynaphthalene",
    "duplicated_cas_no": "",
    "SMILES": "C(O)(=O)C=1C2=C(C(C(O)=O)=CC1)C=CC=C2",
    "meta_data": {
        "InChI": "InChI=1S/C12H8O4/c13-11(14)9-5-6-10(12(15)16)8-4-2-1-3-7(8)9/h1-6H,(H,13,14)(H,15,16)",
        "InChIKey": null,
        "Canonical SMILES": "O=C(O)C1=CC=C(C(=O)O)C=2C=CC=CC12",
        "Molecular Formula": "C<sub>12</sub>H<sub>8</sub>O<sub>4</sub>",
        "Molecular Mass": "216.19",
        "Melting Point": "325 °C",
        "Density": "1.54 g/cm³"
    }
}