{
    "cas_no": "492-27-3",
    "key_name": "Kynurenic acid",
    "cn_name": "4-羟基喹啉二甲酸;",
    "alternate_name": "2-Quinolinecarboxylic acid, 4-hydroxy-;Quinaldic acid, 4-hydroxy-;4-Hydroxy-2-quinolinecarboxylic acid;4-Hydroxyquinaldic acid;4-Hydroxyquinoline-2-carboxylic acid;Kynurenic acid;Quinurenic acid;4-Hydroxyquinaldinic acid;2-Carboxy-4-hydroxyquinoline;NSC 58973;MeSH ID: D007736",
    "duplicated_cas_no": "",
    "SMILES": "OC=1C2=C(N=C(C(O)=O)C1)C=CC=C2",
    "meta_data": {
        "InChI": "InChI=1S/C10H7NO3/c12-9-5-8(10(13)14)11-7-4-2-1-3-6(7)9/h1-5H,(H,11,12)(H,13,14)",
        "InChIKey": null,
        "Canonical SMILES": "O=C(O)C1=NC=2C=CC=CC2C(O)=C1",
        "Molecular Formula": "C<sub>10</sub>H<sub>7</sub>NO<sub>3</sub>",
        "Molecular Mass": "189.17",
        "Melting Point": "282.5 °C"
    }
}