{
    "cas_no": "2800-96-6",
    "key_name": "Tin tetraacetate",
    "cn_name": null,
    "alternate_name": "Acetic acid, tin(4+) salt;Tin acetate (Sn(OAc)<sub>4</sub>);Tin acetate;Tin(IV) acetate;Tin tetraacetate;Stannic acetate",
    "duplicated_cas_no": "",
    "SMILES": "C(C)(O)=O.[Sn]",
    "meta_data": {
        "InChI": "InChI=1S/C2H4O2.Sn/c1-2(3)4;/h1H3,(H,3,4);",
        "InChIKey": null,
        "Canonical SMILES": "[Sn].O=C(O)C",
        "Molecular Formula": "C<sub>2</sub>H<sub>4</sub>O<sub>2</sub>.<sup>1</sup>/<sub>4</sub>Sn",
        "Molecular Mass": "",
        "Melting Point": "232-233 °C"
    }
}