{
    "cas_no": "503-49-1",
    "key_name": "3-Hydroxy-3-methylglutaric acid",
    "cn_name": "美格鲁托;羟甲戊二酸;",
    "alternate_name": "Pentanedioic acid, 3-hydroxy-3-methyl-;Glutaric acid, 3-hydroxy-3-methyl-;3-Hydroxy-3-methylpentanedioic acid;3-Hydroxy-3-methylglutaric acid;β-Hydroxy-β-methylglutaric acid;Meglutol;3-Methyl-3-hydroxyglutaric acid;Dicrotalic acid;CB 337;Mevalon;HMGA;Lipoglutaren;Medroglutaric acid;HMG;NSC 361411;3-Methyl-3-hydroxypentanedioic acid;MeSH ID: D015093",
    "duplicated_cas_no": "",
    "SMILES": "C(C(CC(O)=O)(C)O)C(O)=O",
    "meta_data": {
        "InChI": "InChI=1S/C6H10O5/c1-6(11,2-4(7)8)3-5(9)10/h11H,2-3H2,1H3,(H,7,8)(H,9,10)",
        "InChIKey": null,
        "Canonical SMILES": "O=C(O)CC(O)(C)CC(=O)O",
        "Molecular Formula": "C<sub>6</sub>H<sub>10</sub>O<sub>5</sub>",
        "Molecular Mass": "162.14",
        "Melting Point": "108-109 °C"
    }
}