{
    "cas_no": "52997-43-0",
    "key_name": "7-(Bromomethyl)pentadecane",
    "cn_name": "1-溴-2-己基癸烷;",
    "alternate_name": "Pentadecane, 7-(bromomethyl)-;7-(Bromomethyl)pentadecane;2-Hexyldecyl bromide;1-Bromo-2-hexyl-decane;2-Hexyl-1-bromodecane",
    "duplicated_cas_no": "2117096-90-7",
    "SMILES": "C(CCCCCCCC)(CCCCCC)CBr",
    "meta_data": {
        "InChI": "InChI=1S/C16H33Br/c1-3-5-7-9-10-12-14-16(15-17)13-11-8-6-4-2/h16H,3-15H2,1-2H3",
        "InChIKey": null,
        "Canonical SMILES": "BrCC(CCCCCC)CCCCCCCC",
        "Molecular Formula": "C<sub>16</sub>H<sub>33</sub>Br",
        "Molecular Mass": "305.34",
        "Boiling Point": "114-118 °C @ Press: 0.5 Torr"
    }
}