{
    "cas_no": "571-44-8",
    "key_name": "3β-Hydroxyandrost-4-en-17-one",
    "cn_name": null,
    "alternate_name": "Androst-4-en-17-one, 3-hydroxy-, (3β)-;Androst-4-en-17-one, 3β-hydroxy-;(3β)-3-Hydroxyandrost-4-en-17-one;3β-Hydroxy-4-androstenone;3β-Hydroxyandrost-4-en-17-one;4-Androsten-3β-ol-17-one",
    "duplicated_cas_no": "485319-84-4",
    "SMILES": "C[C@@]12[C@@]3([C@]([C@]4([C@](C)(CC3)C(=O)CC4)[H])(CCC1=C[C@@H](O)CC2)[H])[H]",
    "meta_data": {
        "InChI": "InChI=1S/C19H28O2/c1-18-9-7-13(20)11-12(18)3-4-14-15-5-6-17(21)19(15,2)10-8-16(14)18/h11,13-16,20H,3-10H2,1-2H3/t13-,14-,15-,16-,18-,19-/m0/s1",
        "InChIKey": null,
        "Canonical SMILES": "O=C1CCC2C3CCC4=CC(O)CCC4(C)C3CCC12C",
        "Molecular Formula": "C<sub>19</sub>H<sub>28</sub>O<sub>2</sub>",
        "Molecular Mass": "288.42",
        "Melting Point": "135-137 °C"
    }
}