{
    "cas_no": "570-23-0",
    "key_name": "3-Aminosalicylic acid",
    "cn_name": "3-氨基水杨酸;",
    "alternate_name": "Benzoic acid, 3-amino-2-hydroxy-;Salicylic acid, 3-amino-;3-Amino-2-hydroxybenzoic acid;3-Aminosalicylic acid;2-Hydroxy-3-aminobenzoic acid;NSC 285111;TCI-A 0421",
    "duplicated_cas_no": "",
    "SMILES": "C(O)(=O)C1=C(O)C(N)=CC=C1",
    "meta_data": {
        "InChI": "InChI=1S/C7H7NO3/c8-5-3-1-2-4(6(5)9)7(10)11/h1-3,9H,8H2,(H,10,11)",
        "InChIKey": null,
        "Canonical SMILES": "O=C(O)C=1C=CC=C(N)C1O",
        "Molecular Formula": "C<sub>7</sub>H<sub>7</sub>NO<sub>3</sub>",
        "Molecular Mass": "153.14",
        "Melting Point": "164-165 °C"
    }
}