{
    "cas_no": "69257-04-1",
    "key_name": "Cinchonanium, 9-hydroxy-1-(phenylmethyl)-, chloride, (8α,9<em>R</em>)-",
    "cn_name": "N-苄基氯化辛可宁丁;",
    "alternate_name": "Cinchonanium, 9-hydroxy-1-(phenylmethyl)-, chloride, (8α,9<em>R</em>)-;(-)-1-Benzylcinchonidinium chloride;1-Benzylcinchonidinium chloride;(-)-<em>N</em>-Benzylcinchonidinium chloride;<em>N</em>-Benzylcinchonidinium chloride;(8<em>S</em>,9<em>R</em>)-(-)-<em>N</em>-Benzylcinchonidinium chloride;(-)-<em>N</em>-Benzylcinchonadinium chloride",
    "duplicated_cas_no": "343264-80-2;1219106-93-0;1231926-70-7",
    "SMILES": "C([N@@+]12[C@]([C@H](O)C=3C4=C(N=CC3)C=CC=C4)(C[C@@]([C@@H](C=C)C1)(CC2)[H])[H])C5=CC=CC=C5.[Cl-]",
    "meta_data": {
        "InChI": "InChI=1S/C26H29N2O.ClH/c1-2-20-18-28(17-19-8-4-3-5-9-19)15-13-21(20)16-25(28)26(29)23-12-14-27-24-11-7-6-10-22(23)24;/h2-12,14,20-21,25-26,29H,1,13,15-18H2;1H/q+1;/p-1/t20-,21-,25-,26+,28+;/m0./s1",
        "InChIKey": null,
        "Canonical SMILES": "[Cl-].OC(C=1C=CN=C2C=CC=CC21)C3CC4CC[N+]3(CC=5C=CC=CC5)CC4C=C",
        "Molecular Formula": "C<sub>26</sub>H<sub>29</sub>N<sub>2</sub>O.Cl",
        "Molecular Mass": "",
        "Melting Point": "173 °C"
    }
}