{
    "cas_no": "10444-89-0",
    "key_name": "5-(Trifluoromethyl)-1,3,4-thiadiazol-2-amine",
    "cn_name": "2-氨基-5-三氟甲基-1,3,4-噻二唑;2-氨基-5-三氟甲基-1,3,4-噻重氮;",
    "alternate_name": "1,3,4-Thiadiazol-2-amine, 5-(trifluoromethyl)-;1,3,4-Thiadiazole, 2-amino-5-(trifluoromethyl)-;5-(Trifluoromethyl)-1,3,4-thiadiazol-2-amine;2-Amino-5-(trifluoromethyl)-1,3,4-thiadiazole;2-Trifluoromethyl-5-amino-1,3,4-thiadiazole;5-Amino-2-(trifluoromethyl)-1,3,4-thiadiazole;5-Trifluoromethyl-2-amino-1,3,4-thiadiazole;2-Amino-5-trifluoromethyl-1,2,4-thiadizole;NSC 231655;(5-Trifluoromethyl-1,3,4-thiadiazol-2-yl)amine;5-(Trifluoromethyl)-1,3,4-thiadiazole-2-amine;2-Amino-5-[4-(trifluoromethyl)]-1,3,4-thiadiazole",
    "duplicated_cas_no": "",
    "SMILES": "C(F)(F)(F)C=1SC(N)=NN1",
    "meta_data": {
        "InChI": "InChI=1S/C3H2F3N3S/c4-3(5,6)1-8-9-2(7)10-1/h(H2,7,9)",
        "InChIKey": null,
        "Canonical SMILES": "FC(F)(F)C1=NN=C(S1)N",
        "Molecular Formula": "C<sub>3</sub>H<sub>2</sub>F<sub>3</sub>N<sub>3</sub>S",
        "Molecular Mass": "169.13",
        "Melting Point": "235 °C"
    }
}