{
    "cas_no": "4695-62-9",
    "key_name": "(+)-Fenchone",
    "cn_name": "茴香酮;",
    "alternate_name": "Bicyclo[2.2.1]heptan-2-one, 1,3,3-trimethyl-, (1<em>S</em>,4<em>R</em>)-;2-Norbornanone, 1,3,3-trimethyl-, (1<em>S</em>,4<em>R</em>)-(+)-;Bicyclo[2.2.1]heptan-2-one, 1,3,3-trimethyl-, (1<em>S</em>)-;(1<em>S</em>,4<em>R</em>)-1,3,3-Trimethylbicyclo[2.2.1]heptan-2-one;(+)-Fenchone;<span class=\"text-smallcaps\">D</span>(+)-Fenchone;<span class=\"text-smallcaps\">D</span>-Fenchone;(1<em>S</em>)-Fenchone;(<em>S</em>)-(+)-Fenchone;(<em>S</em>)-Fenchone",
    "duplicated_cas_no": "1212434-47-3;1220042-99-8;1276016-83-1;1310540-18-1;1325056-25-4;1822336-36-6;2180109-09-3;2308490-83-5;2649107-63-9",
    "SMILES": "C[C@@]12C(=O)C(C)(C)[C@@](C1)(CC2)[H]",
    "meta_data": {
        "InChI": "InChI=1S/C10H16O/c1-9(2)7-4-5-10(3,6-7)8(9)11/h7H,4-6H2,1-3H3/t7-,10+/m1/s1",
        "InChIKey": null,
        "Canonical SMILES": "O=C1C(C)(C)C2CCC1(C)C2",
        "Molecular Formula": "C<sub>10</sub>H<sub>16</sub>O",
        "Molecular Mass": "152.23",
        "Melting Point": "6.1 °C",
        "Density": "1.1995 g/cm³ @ Temp: 25.00 °C"
    }
}