{
    "cas_no": "13618-91-2",
    "key_name": "4,5,6,7-Tetrahydro-1<em>H</em>-indole",
    "cn_name": null,
    "alternate_name": "1<em>H</em>-Indole, 4,5,6,7-tetrahydro-;Indole, 4,5,6,7-tetrahydro-;4,5,6,7-Tetrahydro-1<em>H</em>-indole;Cyclohex[<em>b</em>]pyrrole;2,3-Tetramethylenepyrrole;4,5,6,7-Tetrahydroindole;NSC 122455",
    "duplicated_cas_no": "",
    "SMILES": "C12=C(NC=C1)CCCC2",
    "meta_data": {
        "InChI": "InChI=1S/C8H11N/c1-2-4-8-7(3-1)5-6-9-8/h5-6,9H,1-4H2",
        "InChIKey": null,
        "Canonical SMILES": "C1=CC2=C(N1)CCCC2",
        "Molecular Formula": "C<sub>8</sub>H<sub>11</sub>N",
        "Molecular Mass": "121.18",
        "Boiling Point": "64 °C @ Press: 0.1 Torr",
        "Melting Point": "53-55 °C"
    }
}