{
    "cas_no": "5858-17-3",
    "key_name": "3,4-Dichlorobenzenethiol",
    "cn_name": "3,4-二氯苯硫酚;",
    "alternate_name": "Benzenethiol, 3,4-dichloro-;3,4-Dichlorobenzenethiol;3,4-Dichlorophenyl mercaptan;3,4-Dichlorothiophenol;3,4-Dichlorobenzene-1-thiol",
    "duplicated_cas_no": "",
    "SMILES": "ClC1=C(Cl)C=CC(S)=C1",
    "meta_data": {
        "InChI": "InChI=1S/C6H4Cl2S/c7-5-2-1-4(9)3-6(5)8/h1-3,9H",
        "InChIKey": null,
        "Canonical SMILES": "ClC1=CC=C(S)C=C1Cl",
        "Molecular Formula": "C<sub>6</sub>H<sub>4</sub>Cl<sub>2</sub>S",
        "Molecular Mass": "179.07",
        "Boiling Point": "76-78 °C @ Press: 0.25 Torr"
    }
}