{
    "cas_no": "33626-98-1",
    "key_name": "2-Naphthalenecarboxylic acid, 6-bromo-, methyl ester",
    "cn_name": "6-溴-2-萘甲酸甲酯;",
    "alternate_name": "2-Naphthalenecarboxylic acid, 6-bromo-, methyl ester;2-Naphthoic acid, 6-bromo-, methyl ester;Methyl 6-bromonaphthalene-2-carboxylate;Methyl 6-bromo-2-naphthoate;6-Bromonaphthalene-2-carboxylic acid methyl ester;2-Bromo-6-methoxycarbonylnaphthalene",
    "duplicated_cas_no": "",
    "SMILES": "C(OC)(=O)C1=CC2=C(C=C(Br)C=C2)C=C1",
    "meta_data": {
        "InChI": "InChI=1S/C12H9BrO2/c1-15-12(14)10-3-2-9-7-11(13)5-4-8(9)6-10/h2-7H,1H3",
        "InChIKey": null,
        "Canonical SMILES": "O=C(OC)C1=CC=C2C=C(Br)C=CC2=C1",
        "Molecular Formula": "C<sub>12</sub>H<sub>9</sub>BrO<sub>2</sub>",
        "Molecular Mass": "265.10",
        "Melting Point": "125-127 °C"
    }
}