{
    "cas_no": "529-19-1",
    "key_name": "2-Methylbenzonitrile",
    "cn_name": "邻甲基苯腈;邻甲苯腈;",
    "alternate_name": "Benzonitrile, 2-methyl-;<em>o</em>-Tolunitrile;2-Methylbenzonitrile;2-Methylbenzenecarbonitrile;<em>o</em>-Methylbenzonitrile;<em>o</em>-Cyanotoluene;2-Cyanotoluene;<em>o</em>-Toluenecarbonitrile;2-Tolunitrile;1-Cyano-2-methylbenzene;2-Tolyl cyanide;<em>o</em>-Tolyl cyanide;NSC 66549",
    "duplicated_cas_no": "",
    "SMILES": "C(#N)C1=C(C)C=CC=C1",
    "meta_data": {
        "InChI": "InChI=1S/C8H7N/c1-7-4-2-3-5-8(7)6-9/h2-5H,1H3",
        "InChIKey": null,
        "Canonical SMILES": "N#CC=1C=CC=CC1C",
        "Molecular Formula": "C<sub>8</sub>H<sub>7</sub>N",
        "Molecular Mass": "117.15",
        "Boiling Point": "205 °C",
        "Melting Point": "-13.5 °C"
    }
}