{
    "cas_no": "806-29-1",
    "key_name": "(6α,11β)-6,9-Difluoro-11,17,21-trihydroxypregna-1,4-diene-3,20-dione",
    "cn_name": "6-alpha-氟-异氟泼尼龙;",
    "alternate_name": "Pregna-1,4-diene-3,20-dione, 6,9-difluoro-11,17,21-trihydroxy-, (6α,11β)-;Pregna-1,4-diene-3,20-dione, 6α,9-difluoro-11β,17,21-trihydroxy-;(6α,11β)-6,9-Difluoro-11,17,21-trihydroxypregna-1,4-diene-3,20-dione;6α,9-Difluoroprednisolone;6α,9α-Difluoroprednisolone;NSC 77021",
    "duplicated_cas_no": "",
    "SMILES": "F[C@@]12[C@]([C@]3([C@](C)(C[C@@H]1O)[C@](C(CO)=O)(O)CC3)[H])(C[C@H](F)C=4[C@]2(C)C=CC(=O)C4)[H]",
    "meta_data": {
        "InChI": "InChI=1S/C21H26F2O5/c1-18-5-3-11(25)7-14(18)15(22)8-13-12-4-6-20(28,17(27)10-24)19(12,2)9-16(26)21(13,18)23/h3,5,7,12-13,15-16,24,26,28H,4,6,8-10H2,1-2H3/t12-,13-,15-,16-,18-,19-,20-,21-/m0/s1",
        "InChIKey": null,
        "Canonical SMILES": "O=C1C=CC2(C(=C1)C(F)CC3C4CCC(O)(C(=O)CO)C4(C)CC(O)C32F)C",
        "Molecular Formula": "C<sub>21</sub>H<sub>26</sub>F<sub>2</sub>O<sub>5</sub>",
        "Molecular Mass": "396.42",
        "Melting Point": "250-257 °C (decomp)"
    }
}