{
    "cas_no": "3768-18-1",
    "key_name": "N<sup>4</sup>-Acetylcytidine",
    "cn_name": "N-乙酰胞嘧啶;",
    "alternate_name": "Cytidine, <em>N</em>-acetyl-;Acetamide, <em>N</em>-(1,2-dihydro-2-oxo-1-β-<span class=\"text-smallcaps\">D</span>-ribofuranosyl-4-pyrimidinyl)-;<em>N</em>-Acetylcytidine;<em>N</em><sup>4</sup>-Acetylcytidine;4-Acetylcytidine;N<sup>4</sup>-Acetylcytidine",
    "duplicated_cas_no": "",
    "SMILES": "O[C@H]1[C@@H](O[C@H](CO)[C@H]1O)N2C(=O)N=C(NC(C)=O)C=C2",
    "meta_data": {
        "InChI": "InChI=1S/C11H15N3O6/c1-5(16)12-7-2-3-14(11(19)13-7)10-9(18)8(17)6(4-15)20-10/h2-3,6,8-10,15,17-18H,4H2,1H3,(H,12,13,16,19)/t6-,8-,9-,10-/m1/s1",
        "InChIKey": null,
        "Canonical SMILES": "O=C1N=C(C=CN1C2OC(CO)C(O)C2O)NC(=O)C",
        "Molecular Formula": "C<sub>11</sub>H<sub>15</sub>N<sub>3</sub>O<sub>6</sub>",
        "Molecular Mass": "285.25",
        "Melting Point": "208-209 °C"
    }
}