{
    "cas_no": "2396-80-7",
    "key_name": "Methyl 5-hexenoate",
    "cn_name": "5-己酸甲酯;",
    "alternate_name": "5-Hexenoic acid, methyl ester;Methyl 5-hexenoate",
    "duplicated_cas_no": "",
    "SMILES": "C(CCCC=C)(OC)=O",
    "meta_data": {
        "InChI": "InChI=1S/C7H12O2/c1-3-4-5-6-7(8)9-2/h3H,1,4-6H2,2H3",
        "InChIKey": null,
        "Canonical SMILES": "O=C(OC)CCCC=C",
        "Molecular Formula": "C<sub>7</sub>H<sub>12</sub>O<sub>2</sub>",
        "Molecular Mass": "128.17",
        "Boiling Point": "175 °C @ Press: 760 Torr",
        "Density": "0.9114 g/cm³"
    }
}