{
    "cas_no": "124-42-5",
    "key_name": "Ethanimidamide, hydrochloride (1:1)",
    "cn_name": "盐酸乙脒;乙脒盐酸盐;",
    "alternate_name": "Ethanimidamide, hydrochloride (1:1);Acetamidine, monohydrochloride;Ethanimidamide, monohydrochloride;Acetamidine, hydrochloride;Acediamine hydrochloride;α-Amino-α-iminoethane hydrochloride;Ethanamidine hydrochloride;SN 4455;Acetamidinium chloride;Acetimidinium chloride;Ethanimidamide, hydrochloride;Methylamidine hydrochloride;Acetamidine hydrochloride;Acetimidamide hydrochloride",
    "duplicated_cas_no": "51991-59-4;68473-12-1;143504-21-6",
    "SMILES": "C(C)(=N)N.Cl",
    "meta_data": {
        "InChI": "InChI=1S/C2H6N2.ClH/c1-2(3)4;/h1H3,(H3,3,4);1H",
        "InChIKey": null,
        "Canonical SMILES": "Cl.N=C(N)C",
        "Molecular Formula": "C<sub>2</sub>H<sub>6</sub>N<sub>2</sub>.ClH",
        "Molecular Mass": "",
        "Melting Point": "177.5 °C"
    }
}