{
    "cas_no": "17639-76-8",
    "key_name": "Methyl 2-methoxypropionate",
    "cn_name": "2-甲氧基丙酸甲酯;",
    "alternate_name": "Propanoic acid, 2-methoxy-, methyl ester;Propionic acid, 2-methoxy-, methyl ester;Methyl α-methoxypropionate;Methyl 2-methoxypropanoate;Methyl 2-methoxypropionate;2-Methoxypropanoic acid methyl ester",
    "duplicated_cas_no": "92935-45-0",
    "SMILES": "C(C(OC)=O)(OC)C",
    "meta_data": {
        "InChI": "InChI=1S/C5H10O3/c1-4(7-2)5(6)8-3/h4H,1-3H3",
        "InChIKey": null,
        "Canonical SMILES": "O=C(OC)C(OC)C",
        "Molecular Formula": "C<sub>5</sub>H<sub>10</sub>O<sub>3</sub>",
        "Molecular Mass": "118.13",
        "Boiling Point": "129.5 °C @ Press: 732 Torr",
        "Density": "1.0108 g/cm³"
    }
}