{
    "cas_no": "506-33-2",
    "key_name": "Brassidic acid",
    "cn_name": "反式-13-二十二碳烯酸;反式-13-二十二碳烯酸;巴西烯酸;",
    "alternate_name": "13-Docosenoic acid, (13<em>E</em>)-;13-Docosenoic acid, (<em>E</em>)-;Brassidic acid;(13<em>E</em>)-13-Docosenoic acid;(<em>E</em>)-13-Docosenoic acid;<em>trans</em>-13-Docosenoic acid;NSC 59686",
    "duplicated_cas_no": "",
    "SMILES": "C(CCCC/C=C/CCCCCCCC)CCCCCCC(O)=O",
    "meta_data": {
        "InChI": "InChI=1S/C22H42O2/c1-2-3-4-5-6-7-8-9-10-11-12-13-14-15-16-17-18-19-20-21-22(23)24/h9-10H,2-8,11-21H2,1H3,(H,23,24)/b10-9+",
        "InChIKey": null,
        "Canonical SMILES": "O=C(O)CCCCCCCCCCCC=CCCCCCCCC",
        "Molecular Formula": "C<sub>22</sub>H<sub>42</sub>O<sub>2</sub>",
        "Molecular Mass": "338.57",
        "Melting Point": "60 °C"
    }
}