{
    "cas_no": "7081-40-5",
    "key_name": "Piperidine, 1-methyl-3-(9<em>H</em>-thioxanthen-9-ylmethyl)-, hydrochloride, hydrate (1:1:1)",
    "cn_name": null,
    "alternate_name": "Piperidine, 1-methyl-3-(9<em>H</em>-thioxanthen-9-ylmethyl)-, hydrochloride, hydrate (1:1:1);Piperidine, 1-methyl-3-(thioxanthen-9-ylmethyl)-, hydrochloride, monohydrate;Piperidine, 1-methyl-3-(9<em>H</em>-thioxanthen-9-ylmethyl)-, hydrochloride, monohydrate;9<em>H</em>-Thioxanthene, piperidine deriv.;SJ 1977;Methixene hydrochloride hydrate;1-Methyl-3-(thioxanthen-9-ylmethyl)piperidine hydrochloride hydrate;Methixene monohydrochloride monohydrate;3-((9<em>H</em>-Thioxanthen-9-yl)methyl)-1-methylpiperidine hydrochloride hydrate",
    "duplicated_cas_no": "40302-12-3",
    "SMILES": "C(C1C=2C(SC=3C1=CC=CC3)=CC=CC2)C4CN(C)CCC4.Cl.O",
    "meta_data": {
        "InChI": "InChI=1S/C20H23NS.ClH.H2O/c1-21-12-6-7-15(14-21)13-18-16-8-2-4-10-19(16)22-20-11-5-3-9-17(18)20;;/h2-5,8-11,15,18H,6-7,12-14H2,1H3;1H;1H2",
        "InChIKey": null,
        "Canonical SMILES": "Cl.O.S1C=2C=CC=CC2C(C=3C=CC=CC13)CC4CN(C)CCC4",
        "Molecular Formula": "C<sub>20</sub>H<sub>23</sub>NS.ClH.H<sub>2</sub>O",
        "Molecular Mass": "",
        "Melting Point": "215-217 °C"
    }
}