{
    "cas_no": "33468-67-6",
    "key_name": "2-Methyl-5-(trifluoromethyl)-1<em>H</em>-imidazole",
    "cn_name": "2-甲基-4-三氟甲基咪唑;",
    "alternate_name": "1<em>H</em>-Imidazole, 2-methyl-5-(trifluoromethyl)-;1<em>H</em>-Imidazole, 2-methyl-4-(trifluoromethyl)-;Imidazole, 2-methyl-4-(trifluoromethyl)-;2-Methyl-5-(trifluoromethyl)-1<em>H</em>-imidazole;2-Methyl-4(5)-trifluoromethylimidazole;2-Methyl-4-trifluoromethylimidazole;2-Methyl-4-(trifluoromethyl)-1<em>H</em>-imidazole",
    "duplicated_cas_no": "",
    "SMILES": "C(F)(F)(F)C=1NC(C)=NC1",
    "meta_data": {
        "InChI": "InChI=1S/C5H5F3N2/c1-3-9-2-4(10-3)5(6,7)8/h2H,1H3,(H,9,10)",
        "InChIKey": null,
        "Canonical SMILES": "FC(F)(F)C1=CN=C(N1)C",
        "Molecular Formula": "C<sub>5</sub>H<sub>5</sub>F<sub>3</sub>N<sub>2</sub>",
        "Molecular Mass": "150.10",
        "Melting Point": "179-180 °C"
    }
}