{
    "cas_no": "38562-01-5",
    "key_name": "Dinoprost tromethamine",
    "cn_name": "地诺前列素氨丁三醇;",
    "alternate_name": "Prosta-5,13-dien-1-oic acid, 9,11,15-trihydroxy-, (5<em>Z</em>,9α,11α,13<em>E</em>,15<em>S</em>)-, compd. with 2-amino-2-(hydroxymethyl)-1,3-propanediol (1:1);1,3-Propanediol, 2-amino-2-(hydroxymethyl)-, (5<em>Z</em>,9α,11α,13<em>E</em>,15<em>S</em>)-9,11,15-trihydroxyprosta-5,13-dien-1-oate (salt);Prostaglandin F<sub>2α</sub> THAM salt;Prostaglandin F<sub>2α</sub> tromethamine salt;Prostaglandin F<sub>2α</sub> tromethamine;THAM PGF<sub>2α</sub>;Tromethamine prostaglandin F<sub>2α</sub>;PGF<sub>2α</sub> THAM;PGF<sub>2α</sub> THAM salt;PGF<sub>2α</sub> tromethamine salt;Prostaglandin F<sub>2α</sub> tris(hydroxymethyl)aminomethane salt;U 14585;PGF<sub>2α</sub> Tris salt;Prostaglandin F<sub>2</sub>α-tham;PGF<sub>2α</sub> tromethamine;Dinoprost tromethamine;Lutalyse;U 14583E;Minprostin F<sub>2α</sub>;Prostaglandin F<sub>2α</sub> tris(hydroxymethyl)aminomethane;Dinolytic;Pronalgon F;Prostaglandin F<sub>2a</sub> tromethamine salt;NSC 196515;Lutalyze;Enzaprost T;Dinoprost trometamol",
    "duplicated_cas_no": "36300-07-9;38473-38-0;51553-13-0",
    "SMILES": "C(/C=C\\CCCC(O)=O)[C@@H]1[C@@H](/C=C/[C@H](CCCCC)O)[C@H](O)C[C@@H]1O.C(CO)(CO)(CO)N",
    "meta_data": {
        "InChI": "InChI=1S/C20H34O5.C4H11NO3/c1-2-3-6-9-15(21)12-13-17-16(18(22)14-19(17)23)10-7-4-5-8-11-20(24)25;5-4(1-6,2-7)3-8/h4,7,12-13,15-19,21-23H,2-3,5-6,8-11,14H2,1H3,(H,24,25);6-8H,1-3,5H2/b7-4-,13-12+;/t15-,16+,17+,18-,19+;/m0./s1",
        "InChIKey": null,
        "Canonical SMILES": "O=C(O)CCCC=CCC1C(O)CC(O)C1C=CC(O)CCCCC.OCC(N)(CO)CO",
        "Molecular Formula": "C<sub>20</sub>H<sub>34</sub>O<sub>5</sub>.C<sub>4</sub>H<sub>11</sub>NO<sub>3</sub>",
        "Molecular Mass": "",
        "Melting Point": "100-101 °C"
    }
}