{
    "cas_no": "590-73-8",
    "key_name": "2,2-Dimethylhexane",
    "cn_name": "2,2-二甲基己烷;正丁基三甲基甲烷;",
    "alternate_name": "Hexane, 2,2-dimethyl-;2,2-Dimethylhexane;NSC 174065",
    "duplicated_cas_no": "",
    "SMILES": "C(C(C)(C)C)CCC",
    "meta_data": {
        "InChI": "InChI=1S/C8H18/c1-5-6-7-8(2,3)4/h5-7H2,1-4H3",
        "InChIKey": null,
        "Canonical SMILES": "CCCCC(C)(C)C",
        "Molecular Formula": "C<sub>8</sub>H<sub>18</sub>",
        "Molecular Mass": "114.23",
        "Boiling Point": "106.8 °C",
        "Melting Point": "-121.1 °C",
        "Density": "0.6967 g/cm³ @ Temp: 20 °C"
    }
}