{
    "cas_no": "4261-42-1",
    "key_name": "Isoorientin",
    "cn_name": "异荭草素;异荭草素;",
    "alternate_name": "4<em>H</em>-1-Benzopyran-4-one, 2-(3,4-dihydroxyphenyl)-6-β-<span class=\"text-smallcaps\">D</span>-glucopyranosyl-5,7-dihydroxy-;Isoorientin;2-(3,4-Dihydroxyphenyl)-6-β-<span class=\"text-smallcaps\">D</span>-glucopyranosyl-5,7-dihydroxy-4<em>H</em>-1-benzopyran-4-one;Homoorientin;Lutonaretin;Lespecapitioside;Lespecapitoside;Luteolin 6-<em>C</em>-glucoside;Luteolin 6-<em>C</em>-β-<span class=\"text-smallcaps\">D</span>-glucopyranoside;Flavone, 6-β-<span class=\"text-smallcaps\">D</span>-glucopyranosyl-3′,4′,5,7-tetrahydroxy-;3′,4′,5,7-Tetrahydroxy-6-<em>C</em>-glucopyranosylflavone;Luteolin 6-<em>C</em>-β-<span class=\"text-smallcaps\">D</span>-glucoside",
    "duplicated_cas_no": "1108-05-0;6658-57-7;11004-94-7;39319-16-9;61383-35-5",
    "SMILES": "OC=1C(=C(O)C=C2C1C(=O)C=C(O2)C3=CC(O)=C(O)C=C3)[C@@H]4O[C@H](CO)[C@@H](O)[C@H](O)[C@H]4O",
    "meta_data": {
        "InChI": "InChI=1S/C21H20O11/c22-6-14-17(27)19(29)20(30)21(32-14)16-11(26)5-13-15(18(16)28)10(25)4-12(31-13)7-1-2-8(23)9(24)3-7/h1-5,14,17,19-24,26-30H,6H2/t14-,17-,19+,20-,21+/m1/s1",
        "InChIKey": null,
        "Canonical SMILES": "O=C1C=C(OC2=CC(O)=C(C(O)=C12)C3OC(CO)C(O)C(O)C3O)C=4C=CC(O)=C(O)C4",
        "Molecular Formula": "C<sub>21</sub>H<sub>20</sub>O<sub>11</sub>",
        "Molecular Mass": "448.38",
        "Melting Point": "236-237 °C (decomp)"
    }
}