{
    "cas_no": "186296-23-1",
    "key_name": "<em>N</em>-[(1<em>S</em>)-1-(4-Bromophenyl)ethyl]acetamide",
    "cn_name": null,
    "alternate_name": "Acetamide, <em>N</em>-[(1<em>S</em>)-1-(4-bromophenyl)ethyl]-;Acetamide, <em>N</em>-[1-(4-bromophenyl)ethyl]-, (<em>S</em>)-;<em>N</em>-[(1<em>S</em>)-1-(4-Bromophenyl)ethyl]acetamide;(<em>S</em>)-<em>N</em>-[1-(4-Bromophenyl)ethyl]acetamide;(<em>S</em>)-<em>N</em>-[1-(4-Bromophenyl)ethyl]ethanamide",
    "duplicated_cas_no": "",
    "SMILES": "[C@H](NC(C)=O)(C)C1=CC=C(Br)C=C1",
    "meta_data": {
        "InChI": "InChI=1S/C10H12BrNO/c1-7(12-8(2)13)9-3-5-10(11)6-4-9/h3-7H,1-2H3,(H,12,13)/t7-/m0/s1",
        "InChIKey": null,
        "Canonical SMILES": "O=C(NC(C1=CC=C(Br)C=C1)C)C",
        "Molecular Formula": "C<sub>10</sub>H<sub>12</sub>BrNO",
        "Molecular Mass": "242.11",
        "Melting Point": "133.8-134.1 °C"
    }
}