{
    "cas_no": "487-26-3",
    "key_name": "(±)-Flavanone",
    "cn_name": null,
    "alternate_name": "4<em>H</em>-1-Benzopyran-4-one, 2,3-dihydro-2-phenyl-;Flavanone;2,3-Dihydro-2-phenyl-4<em>H</em>-1-benzopyran-4-one;2-Phenyl-4-chromanone;4-Flavanone;(±)-Flavanone;<em>dl</em>-Flavanone;NSC 50393;2-Phenyl-3,4-dihydro-2<em>H</em>-benzopyran-4-one;2-Phenyl-3,4-dihydrobenzopyran-4-one;2-Phenyldihydrobenzopyran-4-one;2-Phenyl-3,4-dihydro-2<em>H</em>-1-benzopyran-4-one;2-Phenyl-2,3-dihydrochromen-4-one",
    "duplicated_cas_no": "24271-98-5",
    "SMILES": "O=C1C=2C(OC(C1)C3=CC=CC=C3)=CC=CC2",
    "meta_data": {
        "InChI": "InChI=1S/C15H12O2/c16-13-10-15(11-6-2-1-3-7-11)17-14-9-5-4-8-12(13)14/h1-9,15H,10H2",
        "InChIKey": null,
        "Canonical SMILES": "O=C1C=2C=CC=CC2OC(C=3C=CC=CC3)C1",
        "Molecular Formula": "C<sub>15</sub>H<sub>12</sub>O<sub>2</sub>",
        "Molecular Mass": "224.25",
        "Melting Point": "77 °C",
        "Density": "0.90 g/cm³"
    }
}