{
    "cas_no": "3184-35-8",
    "key_name": "2-Oxoadipic acid",
    "cn_name": "2-氧代己二酸;2-氧代己二酸;",
    "alternate_name": "Hexanedioic acid, 2-oxo-;2-Oxohexanedioic acid;α-Ketoadipic acid;α-Oxoadipic acid;2-Oxoadipic acid;2-Ketoadipic acid",
    "duplicated_cas_no": "",
    "SMILES": "C(C(C(O)=O)=O)CCC(O)=O",
    "meta_data": {
        "InChI": "InChI=1S/C6H8O5/c7-4(6(10)11)2-1-3-5(8)9/h1-3H2,(H,8,9)(H,10,11)",
        "InChIKey": null,
        "Canonical SMILES": "O=C(O)C(=O)CCCC(=O)O",
        "Molecular Formula": "C<sub>6</sub>H<sub>8</sub>O<sub>5</sub>",
        "Molecular Mass": "160.12",
        "Melting Point": "124 °C"
    }
}