{
    "cas_no": "18908-07-1",
    "key_name": "3-Methoxyphenyl isocyanate",
    "cn_name": "3-甲氧基苯基异氰酸酯;",
    "alternate_name": "Benzene, 1-isocyanato-3-methoxy-;Isocyanic acid, <em>m</em>-methoxyphenyl ester;1-Isocyanato-3-methoxybenzene;<em>m</em>-Methoxyphenyl isocyanate;3-Methoxyphenyl isocyanate;<em>m</em>-Anisyl isocyanate;3-Anisyl isocyanate",
    "duplicated_cas_no": "",
    "SMILES": "N(=C=O)C1=CC(OC)=CC=C1",
    "meta_data": {
        "InChI": "InChI=1S/C8H7NO2/c1-11-8-4-2-3-7(5-8)9-6-10/h2-5H,1H3",
        "InChIKey": null,
        "Canonical SMILES": "O=C=NC1=CC=CC(OC)=C1",
        "Molecular Formula": "C<sub>8</sub>H<sub>7</sub>NO<sub>2</sub>",
        "Molecular Mass": "149.15",
        "Boiling Point": "94.6-94.8 °C @ Press: 10 Torr"
    }
}