{
    "cas_no": "137862-53-4",
    "key_name": "Valsartan",
    "cn_name": "缬沙坦;N-(1-戊酰基)-N-[4-[2-(1H-四氮唑-5-基)苯基]苄基]-L-缬氨酸;",
    "alternate_name": "<span class=\"text-smallcaps\">L</span>-Valine, <em>N</em>-(1-oxopentyl)-<em>N</em>-[[2′-(2<em>H</em>-tetrazol-5-yl)[1,1′-biphenyl]-4-yl]methyl]-;<span class=\"text-smallcaps\">L</span>-Valine, <em>N</em>-(1-oxopentyl)-<em>N</em>-[[2′-(1<em>H</em>-tetrazol-5-yl)[1,1′-biphenyl]-4-yl]methyl]-;<em>N</em>-(1-Oxopentyl)-<em>N</em>-[[2′-(2<em>H</em>-tetrazol-5-yl)[1,1′-biphenyl]-4-yl]methyl]-<span class=\"text-smallcaps\">L</span>-valine;Valsartan;CGP 48933;Diovan;Tareg;Nisis;Valsartanin;Cardopan;Valsarect;Vazar;(2S)-3-Methyl-2-[pentanoyl-[[4-[2-(2<em>H</em>-tetrazol-5-yl)phenyl]phenyl]methyl]amino]butanoic acid;Valsacor;Valtensin",
    "duplicated_cas_no": "186597-74-0",
    "SMILES": "C(N([C@@H]([C@H](C)C)C(O)=O)C(CCCC)=O)C1=CC=C(C2=C(C=CC=C2)C=3NN=NN3)C=C1",
    "meta_data": {
        "InChI": "InChI=1S/C24H29N5O3/c1-4-5-10-21(30)29(22(16(2)3)24(31)32)15-17-11-13-18(14-12-17)19-8-6-7-9-20(19)23-25-27-28-26-23/h6-9,11-14,16,22H,4-5,10,15H2,1-3H3,(H,31,32)(H,25,26,27,28)/t22-/m0/s1",
        "InChIKey": null,
        "Canonical SMILES": "O=C(O)C(N(C(=O)CCCC)CC=1C=CC(=CC1)C=2C=CC=CC2C3=NN=NN3)C(C)C",
        "Molecular Formula": "C<sub>24</sub>H<sub>29</sub>N<sub>5</sub>O<sub>3</sub>",
        "Molecular Mass": "435.52",
        "Melting Point": "116-117 °C",
        "Density": "1.286 g/cm³"
    }
}