{
    "cas_no": "70588-05-5",
    "key_name": "Obtusin",
    "cn_name": null,
    "alternate_name": "9,10-Anthracenedione, 1,7-dihydroxy-2,3,8-trimethoxy-6-methyl-;Obtusin;1,7-Dihydroxy-2,3,8-trimethoxy-6-methyl-9,10-anthracenedione;Obtusin (Cassia);2,8-Dihydroxy-1,6,7-trimethoxy-3-methylanthraquinone",
    "duplicated_cas_no": "",
    "SMILES": "O=C1C=2C(C(=O)C=3C1=C(O)C(OC)=C(OC)C3)=CC(C)=C(O)C2OC",
    "meta_data": {
        "InChI": "InChI=1S/C18H16O7/c1-7-5-8-12(18(25-4)13(7)19)15(21)11-9(14(8)20)6-10(23-2)17(24-3)16(11)22/h5-6,19,22H,1-4H3",
        "InChIKey": null,
        "Canonical SMILES": "O=C1C2=CC(OC)=C(OC)C(O)=C2C(=O)C=3C(OC)=C(O)C(=CC13)C",
        "Molecular Formula": "C<sub>18</sub>H<sub>16</sub>O<sub>7</sub>",
        "Molecular Mass": "344.32",
        "Melting Point": "244.5-246.0 °C"
    }
}