{
    "cas_no": "50563-36-5",
    "key_name": "Dimethachlor",
    "cn_name": null,
    "alternate_name": "Acetamide, 2-chloro-<em>N</em>-(2,6-dimethylphenyl)-<em>N</em>-(2-methoxyethyl)-;2-Chloro-<em>N</em>-(2,6-dimethylphenyl)-<em>N</em>-(2-methoxyethyl)acetamide;<em>N</em>-(2-Methoxyethyl)-2,6-dimethyl-α-chloroacetanilide;<em>N</em>-(2-Methoxyethyl)-2,6-dimethylchloroacetanilide;CGA 17020;A 4766;A 5089;Teridox;Dimethachlor;<em>N</em>-Methoxyethyl-<em>N</em>-chloroacetyl-2,6-dimethylaniline",
    "duplicated_cas_no": "55353-08-7",
    "SMILES": "N(CCOC)(C(CCl)=O)C1=C(C)C=CC=C1C",
    "meta_data": {
        "InChI": "InChI=1S/C13H18ClNO2/c1-10-5-4-6-11(2)13(10)15(7-8-17-3)12(16)9-14/h4-6H,7-9H2,1-3H3",
        "InChIKey": null,
        "Canonical SMILES": "O=C(N(C=1C(=CC=CC1C)C)CCOC)CCl",
        "Molecular Formula": "C<sub>13</sub>H<sub>18</sub>ClNO<sub>2</sub>",
        "Molecular Mass": "255.74",
        "Boiling Point": "320 °C",
        "Melting Point": "46 °C"
    }
}