{
    "cas_no": "104239-97-6",
    "key_name": "3-Oxo-4-aza-5α-androst-1-ene-17β-carboxylic acid",
    "cn_name": "1-雄烯-3-酮-4-杂氮-17b-羧酸;3-酮-4-氮杂-5a-雄烷-1-烯-17b-羧酸;",
    "alternate_name": "1<em>H</em>-Indeno[5,4-<em>f</em>]quinoline-7-carboxylic acid, 2,4a,4b,5,6,6a,7,8,9,9a,9b,10,11,11a-tetradecahydro-4a,6a-dimethyl-2-oxo-, (4a<em>R</em>,4b<em>S</em>,6a<em>S</em>,7<em>S</em>,9a<em>S</em>,9b<em>S</em>,11a<em>R</em>)-;4-Azaandrost-1-ene-17-carboxylic acid, 3-oxo-, (5α,17β)-;(4a<em>R</em>,4b<em>S</em>,6a<em>S</em>,7<em>S</em>,9a<em>S</em>,9b<em>S</em>,11a<em>R</em>)-2,4a,4b,5,6,6a,7,8,9,9a,9b,10,11,11a-Tetradecahydro-4a,6a-dimethyl-2-oxo-1<em>H</em>-indeno[5,4-<em>f</em>]quinoline-7-carboxylic acid;1<em>H</em>-Indeno[5,4-<em>f</em>]quinoline-7-carboxylic acid, 2,4a,4b,5,6,6a,7,8,9,9a,9b,10,11,11a-tetradecahydro-4a,6a-dimethyl-2-oxo-, [4a<em>R</em>-(4aα,4bβ,6aα,7α,9aβ,9bα,11aβ)]-;3-Oxo-4-aza-5α-androst-1-ene-17β-carboxylic acid;3-Oxo-4-aza-5α-androst-1-ene-17-carboxylic acid;(5α,17β)-<em>N</em>-[2,5-Bis(trifluoromethyl)phenyl]-3-oxo-4-aza-5-androst-1-ene-17-carboxylic acid",
    "duplicated_cas_no": "",
    "SMILES": "C[C@@]12[C@@]3([C@]([C@]4([C@](C)(CC3)[C@@H](C(O)=O)CC4)[H])(CC[C@]1(NC(=O)C=C2)[H])[H])[H]",
    "meta_data": {
        "InChI": "InChI=1S/C19H27NO3/c1-18-9-7-13-11(12(18)4-5-14(18)17(22)23)3-6-15-19(13,2)10-8-16(21)20-15/h8,10-15H,3-7,9H2,1-2H3,(H,20,21)(H,22,23)/t11-,12-,13-,14+,15+,18-,19+/m0/s1",
        "InChIKey": null,
        "Canonical SMILES": "O=C1C=CC2(C)C(N1)CCC3C2CCC4(C)C(C(=O)O)CCC34",
        "Molecular Formula": "C<sub>19</sub>H<sub>27</sub>NO<sub>3</sub>",
        "Molecular Mass": "317.42",
        "Melting Point": "295-297 °C"
    }
}