{
    "cas_no": "22204-53-1",
    "key_name": "Naproxen",
    "cn_name": "萘普生;(+)-2-甲基-6-甲氧基-2-萘乙酸;",
    "alternate_name": "2-Naphthaleneacetic acid, 6-methoxy-α-methyl-, (α<em>S</em>)-;2-Naphthaleneacetic acid, 6-methoxy-α-methyl-, (+)-;2-Naphthaleneacetic acid, 6-methoxy-α-methyl-, (<em>S</em>)-;(α<em>S</em>)-6-Methoxy-α-methyl-2-naphthaleneacetic acid;(+)-2-(6-Methoxy-2-naphthyl)propionic acid;Naproxen;(+)-6-Methoxy-α-methyl-2-naphthaleneacetic acid;<em>d</em>-2-(6-Methoxy-2-naphthyl)propionic acid;<em>d</em>-Naproxen;CG 3117;Naprosyn;Equiproxen;Naixan;(+)-Naproxen;(<em>S</em>)-(+)-Naproxen;(<em>S</em>)-Naproxen;(+)-(<em>S</em>)-Naproxen;(<em>S</em>)-2-(6-Methoxy-2-naphthyl)propionic acid;(<em>S</em>)-(+)-2-(6-Methoxy-2-naphthyl)propionic acid;(<em>S</em>)-6-Methoxy-α-methyl-2-naphthaleneacetic acid;(<em>S</em>)-2-(6-Methoxy-2-naphthyl)propanoic acid;(<em>S</em>)-(+)-Naproxene;Apo-Naproxen;Diocodal;RS 3540;Laraflex;Naprosyne;Naxen;MNPA;Naprux;Bonyl;Napren;Floginax;Veradol;Proxen;Panoxen;Proxine;Xenar;Dysmenalgit;Reuxen;Nycopren;Prexan;Naprium;Naprius;(<em>S</em>)-α-Methyl-6-methoxynaphthalene-2-acetic acid;Aproxen;(<em>S</em>)-2-(6-Methoxynaphthalen-2-yl)propionic acid;(<em>S</em>)-2-(6-Methoxynaphthalen-2-yl)propanoic acid;Xenar-CR;(2<em>S</em>)-2-(6-Methoxy-2-naphthyl)propanoic acid;(+)-(<em>S</em>)-2-(6-Methoxynaphthalen-2-yl)propanoic acid;(2S)-2-(6-Methoxynaphthalen-2-yl)propanoic acid;EC-Naprosyn;MeSH ID: D009288",
    "duplicated_cas_no": "",
    "SMILES": "[C@H](C(O)=O)(C)C1=CC2=C(C=C(OC)C=C2)C=C1",
    "meta_data": {
        "InChI": "InChI=1S/C14H14O3/c1-9(14(15)16)10-3-4-12-8-13(17-2)6-5-11(12)7-10/h3-9H,1-2H3,(H,15,16)/t9-/m0/s1",
        "InChIKey": null,
        "Canonical SMILES": "O=C(O)C(C1=CC=C2C=C(OC)C=CC2=C1)C",
        "Molecular Formula": "C<sub>14</sub>H<sub>14</sub>O<sub>3</sub>",
        "Molecular Mass": "230.26",
        "Melting Point": "152-154 °C",
        "Density": "1.24 g/cm³"
    }
}