{
    "cas_no": "2905-60-4",
    "key_name": "2,3-Dichlorobenzoyl chloride",
    "cn_name": "2,3－二氯苯甲酰氯;",
    "alternate_name": "Benzoyl chloride, 2,3-dichloro-;2,3-Dichlorobenzoyl chloride",
    "duplicated_cas_no": "",
    "SMILES": "C(Cl)(=O)C1=C(Cl)C(Cl)=CC=C1",
    "meta_data": {
        "InChI": "InChI=1S/C7H3Cl3O/c8-5-3-1-2-4(6(5)9)7(10)11/h1-3H",
        "InChIKey": null,
        "Canonical SMILES": "O=C(Cl)C=1C=CC=C(Cl)C1Cl",
        "Molecular Formula": "C<sub>7</sub>H<sub>3</sub>Cl<sub>3</sub>O",
        "Molecular Mass": "209.46",
        "Boiling Point": "55-58 °C @ Press: 0.32 Torr"
    }
}