{
    "cas_no": "2468-56-6",
    "key_name": "6-Iodo-1-hexyne",
    "cn_name": null,
    "alternate_name": "1-Hexyne, 6-iodo-;6-Iodo-1-hexyne;1-Iodo-5-hexyne",
    "duplicated_cas_no": "",
    "SMILES": "C(CC#C)CCI",
    "meta_data": {
        "InChI": "InChI=1S/C6H9I/c1-2-3-4-5-6-7/h1H,3-6H2",
        "InChIKey": null,
        "Canonical SMILES": "ICCCCC#C",
        "Molecular Formula": "C<sub>6</sub>H<sub>9</sub>I",
        "Molecular Mass": "208.04",
        "Boiling Point": "94-95 °C @ Press: 35 Torr",
        "Melting Point": "187 °C",
        "Density": "1.576 g/cm³ @ Temp: 20 °C"
    }
}