{
    "cas_no": "85-41-6",
    "key_name": "Phthalimide",
    "cn_name": "邻苯二甲酰亚胺;酞酰亚胺;",
    "alternate_name": "1<em>H</em>-Isoindole-1,3(2<em>H</em>)-dione;Phthalimide;Isoindole-1,3-dione;1,3-Isoindolinedione;Benzoimide;1,2-Benzenedicarboximide;Phenylimide;Phthalic dicarboximide;Levegal PEW-T;NSC 3108;1,3-Dioxo-1,3-dihydroisoindole;Kladnoite;1,3-Dihydro-2H-isoindole-1,3-dione;2,3-Dihydro-1<em>H</em>-isoindole-1,3-dione",
    "duplicated_cas_no": "",
    "SMILES": "O=C1C=2C(C(=O)N1)=CC=CC2",
    "meta_data": {
        "InChI": "InChI=1S/C8H5NO2/c10-7-5-3-1-2-4-6(5)8(11)9-7/h1-4H,(H,9,10,11)",
        "InChIKey": null,
        "Canonical SMILES": "O=C1NC(=O)C=2C=CC=CC12",
        "Molecular Formula": "C<sub>8</sub>H<sub>5</sub>NO<sub>2</sub>",
        "Molecular Mass": "147.13",
        "Melting Point": "238 °C"
    }
}