{
    "cas_no": "2571-88-2",
    "key_name": "Octadecyldimethylamine oxide",
    "cn_name": "N,N-二甲基十八烷基-N-氧化胺;",
    "alternate_name": "1-Octadecanamine, <em>N</em>,<em>N</em>-dimethyl-, <em>N</em>-oxide;Octadecylamine, <em>N</em>,<em>N</em>-dimethyl-, <em>N</em>-oxide;DONO;<em>N</em>,<em>N</em>-Dimethylstearylamine oxide;Conco XA 2S;Dimethylstearylamine oxide;Ammonyx SO;<em>N</em>-Stearyldimethylamine <em>N</em>-oxide;Barlox 18S;Stearyldimethylamine oxide;<em>N</em>,<em>N</em>-Dimethyloctadecylamine oxide;Dimethyloctadecylamine oxide;<em>N</em>,<em>N</em>-Dimethyl-1-octadecanamine oxide;Schercamox DMS;Octadecyldimethylamine oxide;<em>N</em>,<em>N</em>-Dimethyl-<em>N</em>-octadecylamine oxide;Octadecyldimethylamine <em>N</em>-oxide;Admox 18;Barlox 18;Admox SC 1885;Unisafe A-SM;Nissan Unisafe A-SM;Aromox DM 18D-M",
    "duplicated_cas_no": "135462-97-4;89258-01-5",
    "SMILES": "C(CCCCCCCCCCCCCCC)CCN(C)(C)=O",
    "meta_data": {
        "InChI": "InChI=1S/C20H43NO/c1-4-5-6-7-8-9-10-11-12-13-14-15-16-17-18-19-20-21(2,3)22/h4-20H2,1-3H3",
        "InChIKey": null,
        "Canonical SMILES": "O=N(C)(C)CCCCCCCCCCCCCCCCCC",
        "Molecular Formula": "C<sub>20</sub>H<sub>43</sub>NO",
        "Molecular Mass": "313.56",
        "Melting Point": "132-151 °C"
    }
}