{
    "cas_no": "454-79-5",
    "key_name": "2-Bromo-5-trifluoromethylaniline",
    "cn_name": "2-溴-5-三氟甲苯苯胺;3-氨基-4-溴三氟甲苯;",
    "alternate_name": "Benzenamine, 2-bromo-5-(trifluoromethyl)-;<em>m</em>-Toluidine, 2-bromo-α,α,α-trifluoro-;2-Bromo-5-(trifluoromethyl)benzenamine;3-Amino-4-bromobenzotrifluoride;2-Bromo-5-trifluoromethylaniline;4-Bromo-3-aminobenzotrifluoride;2-Bromo-5-trifluoromethylphenylamine;NSC 88276;2-Amino-4-trifluoromethyl-1-bromobenzene;5-Trifluoromethyl-2-bromoaniline",
    "duplicated_cas_no": "",
    "SMILES": "C(F)(F)(F)C1=CC(N)=C(Br)C=C1",
    "meta_data": {
        "InChI": "InChI=1S/C7H5BrF3N/c8-5-2-1-4(3-6(5)12)7(9,10)11/h1-3H,12H2",
        "InChIKey": null,
        "Canonical SMILES": "FC(F)(F)C1=CC=C(Br)C(N)=C1",
        "Molecular Formula": "C<sub>7</sub>H<sub>5</sub>BrF<sub>3</sub>N",
        "Molecular Mass": "240.02",
        "Boiling Point": "81-82 °C @ Press: 5 Torr",
        "Density": "1.694 g/cm³ @ Temp: 25 °C"
    }
}