{
    "cas_no": "86-20-4",
    "key_name": "9-Ethyl-3-nitro-9<em>H</em>-carbazole",
    "cn_name": "3-硝基-N-乙基咔唑;",
    "alternate_name": "9<em>H</em>-Carbazole, 9-ethyl-3-nitro-;Carbazole, 9-ethyl-3-nitro-;9-Ethyl-3-nitro-9<em>H</em>-carbazole;9-Ethyl-3-nitrocarbazole;3-Nitro-<em>N</em>-ethylcarbazole;3-Nitro-9-ethylcarbazole;<em>N</em>-Ethyl-3-nitrocarbazole;NSC 17817;6-Nitro-9-ethylCarbazole",
    "duplicated_cas_no": "",
    "SMILES": "C(C)N1C=2C(C=3C1=CC=CC3)=CC(N(=O)=O)=CC2",
    "meta_data": {
        "InChI": "InChI=1S/C14H12N2O2/c1-2-15-13-6-4-3-5-11(13)12-9-10(16(17)18)7-8-14(12)15/h3-9H,2H2,1H3",
        "InChIKey": null,
        "Canonical SMILES": "O=N(=O)C1=CC=C2C(=C1)C=3C=CC=CC3N2CC",
        "Molecular Formula": "C<sub>14</sub>H<sub>12</sub>N<sub>2</sub>O<sub>2</sub>",
        "Molecular Mass": "240.26",
        "Melting Point": "126-127 °C",
        "Density": "1.35 g/cm³"
    }
}