{
    "cas_no": "56980-93-9",
    "key_name": "Celiprolol",
    "cn_name": "塞利洛尔;3-[3-乙酰-4-(2-羟基-3-叔丁氨基丙氧基)苯基]-1,1-二乙基脲;",
    "alternate_name": "Urea, <em>N</em>′-[3-acetyl-4-[3-[(1,1-dimethylethyl)amino]-2-hydroxypropoxy]phenyl]-<em>N</em>,<em>N</em>-diethyl-;<em>N</em>′-[3-Acetyl-4-[3-[(1,1-dimethylethyl)amino]-2-hydroxypropoxy]phenyl]-<em>N</em>,<em>N</em>-diethylurea;Celiprolol;Selectol;<em>dl</em>-Celiprolol;(<em>R</em>,<em>S</em>)-Celiprolol;(±)-Celiprolol;<span class=\"text-smallcaps\">DL</span>-Celiprolol;Racemic Celiprolol;1-[3-Acetyl-4-[3-(<em>tert</em>-butylamino)-2-hydroxypropoxy]phenyl]-3,3-diethylurea;MeSH ID: D017272",
    "duplicated_cas_no": "83688-50-0",
    "SMILES": "O(CC(CNC(C)(C)C)O)C1=C(C(C)=O)C=C(NC(N(CC)CC)=O)C=C1",
    "meta_data": {
        "InChI": "InChI=1S/C20H33N3O4/c1-7-23(8-2)19(26)22-15-9-10-18(17(11-15)14(3)24)27-13-16(25)12-21-20(4,5)6/h9-11,16,21,25H,7-8,12-13H2,1-6H3,(H,22,26)",
        "InChIKey": null,
        "Canonical SMILES": "O=C(NC1=CC=C(OCC(O)CNC(C)(C)C)C(=C1)C(=O)C)N(CC)CC",
        "Molecular Formula": "C<sub>20</sub>H<sub>33</sub>N<sub>3</sub>O<sub>4</sub>",
        "Molecular Mass": "379.49",
        "Melting Point": "110-112 °C"
    }
}