{
    "cas_no": "2516-96-3",
    "key_name": "2-Chloro-5-nitrobenzoic acid",
    "cn_name": "2-氯-5-硝基苯甲酸;",
    "alternate_name": "Benzoic acid, 2-chloro-5-nitro-;2-Chloro-5-nitrobenzoic acid;6-Chloro-3-nitrobenzoic acid;4-Chloro-3-carboxynitrobenzene;5-Nitro-2-chlorobenzoic acid;NSC 8441",
    "duplicated_cas_no": "",
    "SMILES": "C(O)(=O)C1=CC(N(=O)=O)=CC=C1Cl",
    "meta_data": {
        "InChI": "InChI=1S/C7H4ClNO4/c8-6-2-1-4(9(12)13)3-5(6)7(10)11/h1-3H,(H,10,11)",
        "InChIKey": null,
        "Canonical SMILES": "O=C(O)C1=CC(=CC=C1Cl)N(=O)=O",
        "Molecular Formula": "C<sub>7</sub>H<sub>4</sub>ClNO<sub>4</sub>",
        "Molecular Mass": "201.56",
        "Melting Point": "166.5 °C",
        "Density": "1.678 g/cm³"
    }
}