{
    "cas_no": "1642-54-2",
    "key_name": "Diethylcarbamazine citrate",
    "cn_name": null,
    "alternate_name": "1-Piperazinecarboxamide, <em>N</em>,<em>N</em>-diethyl-4-methyl-, 2-hydroxy-1,2,3-propanetricarboxylate (1:1);1-Piperazinecarboxamide, <em>N</em>,<em>N</em>-diethyl-4-methyl-, citrate (1:1);Caricide;Caritrol;Dicarocide;Diethylcarbamazine Acid Citrate;Diethylcarbamazine citrate;1-Diethylcarbamoyl-4-methylpiperazine dihydrogen citrate;<em>N</em>,<em>N</em>-Diethyl-4-methyl-1-piperazinecarboxamide dihydrogen citrate;Ethodryl citrate;Franocide;Franozan;Ditrazine;Hetrazan;Ditrazin citrate;Filazine;1-Methyl-4-diethylcarbamoylpiperazine citrate;Loxuran;Dirocide;Banocide;Ethylaminoazine citrate;Longicid;Dec;Filaribits;NSC 80513",
    "duplicated_cas_no": "",
    "SMILES": "C(N(CC)CC)(=O)N1CCN(C)CC1.C(CC(O)=O)(CC(O)=O)(C(O)=O)O",
    "meta_data": {
        "InChI": "InChI=1S/C10H21N3O.C6H8O7/c1-4-12(5-2)10(14)13-8-6-11(3)7-9-13;7-3(8)1-6(13,5(11)12)2-4(9)10/h4-9H2,1-3H3;13H,1-2H2,(H,7,8)(H,9,10)(H,11,12)",
        "InChIKey": null,
        "Canonical SMILES": "O=C(O)CC(O)(C(=O)O)CC(=O)O.O=C(N(CC)CC)N1CCN(C)CC1",
        "Molecular Formula": "C<sub>10</sub>H<sub>21</sub>N<sub>3</sub>O.C<sub>6</sub>H<sub>8</sub>O<sub>7</sub>",
        "Molecular Mass": "",
        "Melting Point": "141-143 °C"
    }
}