{
    "cas_no": "20265-38-7",
    "key_name": "2-Methoxy-3-pyridinamine",
    "cn_name": "2-甲氧基-3-氨基吡啶;3-氨基-2-甲氧基吡啶;",
    "alternate_name": "3-Pyridinamine, 2-methoxy-;Pyridine, 3-amino-2-methoxy-;2-Methoxy-3-pyridinamine;3-Amino-2-methoxypyridine;2-Methoxy-3-aminopyridine;(2-Methoxypyridin-3-yl)amine",
    "duplicated_cas_no": "",
    "SMILES": "O(C)C1=C(N)C=CC=N1",
    "meta_data": {
        "InChI": "InChI=1S/C6H8N2O/c1-9-6-5(7)3-2-4-8-6/h2-4H,7H2,1H3",
        "InChIKey": null,
        "Canonical SMILES": "N=1C=CC=C(N)C1OC",
        "Molecular Formula": "C<sub>6</sub>H<sub>8</sub>N<sub>2</sub>O",
        "Molecular Mass": "124.14",
        "Boiling Point": "116-118 °C",
        "Melting Point": "69 °C"
    }
}