{
    "cas_no": "66067-44-5",
    "key_name": "3-Acetylbenzophenone",
    "cn_name": null,
    "alternate_name": "Ethanone, 1-(3-benzoylphenyl)-;1-(3-Benzoylphenyl)ethanone;3-Acetylbenzophenone;<em>m</em>-Benzoylacetophenone;3-Benzoylacetophenone;1-(3-Benzoylphenyl)ethenone",
    "duplicated_cas_no": "",
    "SMILES": "C(=O)(C1=CC(C(C)=O)=CC=C1)C2=CC=CC=C2",
    "meta_data": {
        "InChI": "InChI=1S/C15H12O2/c1-11(16)13-8-5-9-14(10-13)15(17)12-6-3-2-4-7-12/h2-10H,1H3",
        "InChIKey": null,
        "Canonical SMILES": "O=C(C=1C=CC=CC1)C2=CC=CC(=C2)C(=O)C",
        "Molecular Formula": "C<sub>15</sub>H<sub>12</sub>O<sub>2</sub>",
        "Molecular Mass": "224.25",
        "Melting Point": "87-89 °C"
    }
}