{
    "cas_no": "7126-44-5",
    "key_name": "Ethyl 3-cyano-1<em>H</em>-pyrrole-2-carboxylate",
    "cn_name": null,
    "alternate_name": "1<em>H</em>-Pyrrole-2-carboxylic acid, 3-cyano-, ethyl ester;Pyrrole-2-carboxylic acid, 3-cyano-, ethyl ester;Ethyl 3-cyano-1<em>H</em>-pyrrole-2-carboxylate",
    "duplicated_cas_no": "",
    "SMILES": "C(OCC)(=O)C1=C(C#N)C=CN1",
    "meta_data": {
        "InChI": "InChI=1S/C8H8N2O2/c1-2-12-8(11)7-6(5-9)3-4-10-7/h3-4,10H,2H2,1H3",
        "InChIKey": null,
        "Canonical SMILES": "N#CC=1C=CNC1C(=O)OCC",
        "Molecular Formula": "C<sub>8</sub>H<sub>8</sub>N<sub>2</sub>O<sub>2</sub>",
        "Molecular Mass": "164.16",
        "Boiling Point": "130-140 °C @ Press: 0.01 Torr",
        "Melting Point": "92-93 °C"
    }
}