{
    "cas_no": "30391-89-0",
    "key_name": "2-Amino-<em>N</em>-isopropylbenzamide",
    "cn_name": null,
    "alternate_name": "Benzamide, 2-amino-<em>N</em>-(1-methylethyl)-;Benzamide, <em>o</em>-amino-<em>N</em>-isopropyl-;2-Amino-<em>N</em>-(1-methylethyl)benzamide;2-Amino-<em>N</em>-isopropylbenzamide;<em>N</em>-Isopropylanthranilamide;Anthranilic acid isopropylamide;NSC 88050;2-Amino-<em>N</em>-(propan-2-yl)benzamide;2-Amino-<em>N</em>-propan-2-ylbenzamide",
    "duplicated_cas_no": "",
    "SMILES": "C(NC(C)C)(=O)C1=C(N)C=CC=C1",
    "meta_data": {
        "InChI": "InChI=1S/C10H14N2O/c1-7(2)12-10(13)8-5-3-4-6-9(8)11/h3-7H,11H2,1-2H3,(H,12,13)",
        "InChIKey": null,
        "Canonical SMILES": "O=C(NC(C)C)C=1C=CC=CC1N",
        "Molecular Formula": "C<sub>10</sub>H<sub>14</sub>N<sub>2</sub>O",
        "Molecular Mass": "178.23",
        "Melting Point": "147 °C"
    }
}