{
    "cas_no": "426-59-5",
    "key_name": "3-[(Trifluoromethyl)sulfonyl]benzenamine",
    "cn_name": "3-氨基苯基三氟甲基砜;",
    "alternate_name": "Benzenamine, 3-[(trifluoromethyl)sulfonyl]-;Aniline, <em>m</em>-[(trifluoromethyl)sulfonyl]-;3-[(Trifluoromethyl)sulfonyl]benzenamine;<em>m</em>-(Trifluoromethylsulfonyl)aniline;3-Trifluoromethylsulfonylaniline;3-Aminophenyl trifluoromethyl sulfone;3-Trifluoromethylsulfonylphenylamine;5-(Trifluoromethylsulfonyl)aniline;3-(Trifluoromethanesulfonyl)aniline;3-(Trifluoromethanesulfonyl)phenylamine",
    "duplicated_cas_no": "",
    "SMILES": "S(C(F)(F)F)(=O)(=O)C1=CC(N)=CC=C1",
    "meta_data": {
        "InChI": "InChI=1S/C7H6F3NO2S/c8-7(9,10)14(12,13)6-3-1-2-5(11)4-6/h1-4H,11H2",
        "InChIKey": null,
        "Canonical SMILES": "O=S(=O)(C=1C=CC=C(N)C1)C(F)(F)F",
        "Molecular Formula": "C<sub>7</sub>H<sub>6</sub>F<sub>3</sub>NO<sub>2</sub>S",
        "Molecular Mass": "225.19",
        "Melting Point": "78-79 °C"
    }
}