{
    "cas_no": "7646-67-5",
    "key_name": "(2-Hydroxyethyl)acrylamide",
    "cn_name": null,
    "alternate_name": "2-Propenamide, <em>N</em>-(2-hydroxyethyl)-;Acrylamide, <em>N</em>-(2-hydroxyethyl)-;<em>N</em>-(2-Hydroxyethyl)-2-propenamide;<em>N</em>-Ethanolacrylamide;<em>N</em>-Ethylolacrylamide;<em>N</em>-(2-Hydroxyethyl)acrylamide;(2-Hydroxyethyl)acrylamide;Duramide;HEAA;<em>N</em>-Hydroxyethylacrylamide;<em>N</em>-2-Hydroxythylacrylamide;Hydroxyethyl acrylamide;<em>N</em>-Hydroxylethyl acrylamide;2-Acrylamidoethanol;Kohshylmer HEAA",
    "duplicated_cas_no": "953758-33-3",
    "SMILES": "C(NCCO)(C=C)=O",
    "meta_data": {
        "InChI": "InChI=1S/C5H9NO2/c1-2-5(8)6-3-4-7/h2,7H,1,3-4H2,(H,6,8)",
        "InChIKey": null,
        "Canonical SMILES": "O=C(C=C)NCCO",
        "Molecular Formula": "C<sub>5</sub>H<sub>9</sub>NO<sub>2</sub>",
        "Molecular Mass": "115.13",
        "Boiling Point": "135-140 °C @ Press: 1.5 Torr"
    }
}