{
    "cas_no": "22095-34-7",
    "key_name": "α-Methyl-2-furanmethanamine",
    "cn_name": null,
    "alternate_name": "2-Furanmethanamine, α-methyl-;Furfurylamine, α-methyl-;α-Methyl-2-furanmethanamine;(1-Furan-2-ylethyl)amine;1-(2-Furyl)ethanamine;1-(Furan-2-yl)ethan-1-amine;1-(Furan-2-yl)ethanamine",
    "duplicated_cas_no": "150576-59-3",
    "SMILES": "C(C)(N)C1=CC=CO1",
    "meta_data": {
        "InChI": "InChI=1S/C6H9NO/c1-5(7)6-3-2-4-8-6/h2-5H,7H2,1H3",
        "InChIKey": null,
        "Canonical SMILES": "O1C=CC=C1C(N)C",
        "Molecular Formula": "C<sub>6</sub>H<sub>9</sub>NO",
        "Molecular Mass": "111.14",
        "Boiling Point": "145-147 °C @ Press: 740 Torr",
        "Density": "0.9856 g/cm³ @ Temp: 20 °C"
    }
}