{
    "cas_no": "15115-60-3",
    "key_name": "4-Bromo-1-indanone",
    "cn_name": "4-溴-1-茚酮;",
    "alternate_name": "1<em>H</em>-Inden-1-one, 4-bromo-2,3-dihydro-;1-Indanone, 4-bromo-;4-Bromo-2,3-dihydro-1<em>H</em>-inden-1-one;4-Bromo-1-indanone;NSC 162080",
    "duplicated_cas_no": "",
    "SMILES": "BrC1=C2C(C(=O)CC2)=CC=C1",
    "meta_data": {
        "InChI": "InChI=1S/C9H7BrO/c10-8-3-1-2-7-6(8)4-5-9(7)11/h1-3H,4-5H2",
        "InChIKey": null,
        "Canonical SMILES": "O=C1C=2C=CC=C(Br)C2CC1",
        "Molecular Formula": "C<sub>9</sub>H<sub>7</sub>BrO",
        "Molecular Mass": "211.06",
        "Melting Point": "94-95 °C"
    }
}