{
    "cas_no": "10097-02-6",
    "key_name": "2,2-Bis(hydroxymethyl)butanoic acid",
    "cn_name": "2,2-二羟甲基丁酸;",
    "alternate_name": "Butanoic acid, 2,2-bis(hydroxymethyl)-;Butyric acid, 2,2-bis(hydroxymethyl)-;2,2-Bis(hydroxymethyl)butanoic acid;2,2-Bis(hydroxymethyl)butyric acid;2,2-Dimethylolbutyric acid;2,2-Dimethylolbutanoic acid;α,α-Dimethylolbutanoic acid;Nikkamer BA;2,2-Bis(methylol)butanoic acid;DMBA;Dimethylolbutyric acid;Dimethylolbutanoic acid;Bis(hydroxymethyl)butanoic acid",
    "duplicated_cas_no": "56743-27-2;225519-86-8;1403353-18-3;2222586-29-8",
    "SMILES": "C(C(O)=O)(CC)(CO)CO",
    "meta_data": {
        "InChI": "InChI=1S/C6H12O4/c1-2-6(3-7,4-8)5(9)10/h7-8H,2-4H2,1H3,(H,9,10)",
        "InChIKey": null,
        "Canonical SMILES": "O=C(O)C(CO)(CO)CC",
        "Molecular Formula": "C<sub>6</sub>H<sub>12</sub>O<sub>4</sub>",
        "Molecular Mass": "148.16",
        "Melting Point": "100-102 °C"
    }
}