{
    "cas_no": "3796-70-1",
    "key_name": "Geranylacetone",
    "cn_name": "香叶基丙酮;(E)-2,6-二甲基-2,6-十一碳二烯-10-酮;",
    "alternate_name": "5,9-Undecadien-2-one, 6,10-dimethyl-, (5<em>E</em>)-;5,9-Undecadien-2-one, 6,10-dimethyl-, (<em>E</em>)-;(5<em>E</em>)-6,10-Dimethyl-5,9-undecadien-2-one;Geranylacetone;<em>trans</em>-Geranylacetone;(<em>E</em>)-6,10-Dimethyl-5,9-undecadien-2-one;<em>trans</em>-6,10-Dimethyl-5,9-undecadien-2-one;(<em>E</em>)-Geranylacetone;6,10-Dimethyl-(<em>E</em>)-5,9-undecadien-2-one;Ethanol, 2-(acetylsulfonyl)-, 1-acetate",
    "duplicated_cas_no": "2381218-05-7",
    "SMILES": "C(\\CCC=C(C)C)(=C/CCC(C)=O)/C",
    "meta_data": {
        "InChI": "InChI=1S/C13H22O/c1-11(2)7-5-8-12(3)9-6-10-13(4)14/h7,9H,5-6,8,10H2,1-4H3/b12-9+",
        "InChIKey": null,
        "Canonical SMILES": "O=C(C)CCC=C(C)CCC=C(C)C",
        "Molecular Formula": "C<sub>13</sub>H<sub>22</sub>O",
        "Molecular Mass": "194.31",
        "Boiling Point": "126-128 °C @ Press: 10 Torr",
        "Density": "0.8698 g/cm³ @ Temp: 20 °C"
    }
}