{
    "cas_no": "29941-82-0",
    "key_name": "2-Ethoxy-2-cyclohexen-1-one",
    "cn_name": null,
    "alternate_name": "2-Cyclohexen-1-one, 2-ethoxy-;2-Ethoxy-2-cyclohexen-1-one;2-Ethoxy-1-cyclohexen-3-one;2-Ethoxy-2-cyclohexenone",
    "duplicated_cas_no": "",
    "SMILES": "O(CC)C=1C(=O)CCCC1",
    "meta_data": {
        "InChI": "InChI=1S/C8H12O2/c1-2-10-8-6-4-3-5-7(8)9/h6H,2-5H2,1H3",
        "InChIKey": null,
        "Canonical SMILES": "O=C1C(OCC)=CCCC1",
        "Molecular Formula": "C<sub>8</sub>H<sub>12</sub>O<sub>2</sub>",
        "Molecular Mass": "140.18",
        "Boiling Point": "48 °C @ Press: 0.1 Torr"
    }
}