{
    "cas_no": "127-08-2",
    "key_name": "Potassium acetate",
    "cn_name": "乙酸钾;醋酸钾;",
    "alternate_name": "Acetic acid, potassium salt (1:1);Potassium acetate;Acetic acid, potassium salt;Catacyst LB;Potassium ethanoate;Polycat 46;PC 46;DPG 35;LK 25;Dabco K 2097;Dabco K 2008;Dabco P 15;P 15;Cryotech E 36;Safeway KA-HOT;LCM 1;Pelcat 9648A;K 15;PC CAT TKA 30;Desmorapid PU 1792;Desmorapid 1792;PC CAT Q 7-2;Pelcat 9650;PU 1792;Vapex;VaporGrip Xtra;VaporGrip Xtra Agent;Vaporgrip;Kosmos 33;Kosmos 45MEG;Kosmos 45;MeSH ID: D019347",
    "duplicated_cas_no": "70896-03-6;134092-62-9;325477-95-0;662141-29-9;937811-15-9;2220181-25-7",
    "SMILES": "C(C)(O)=O.[K]",
    "meta_data": {
        "InChI": "InChI=1S/C2H4O2.K/c1-2(3)4;/h1H3,(H,3,4);",
        "InChIKey": null,
        "Canonical SMILES": "[K].O=C(O)C",
        "Molecular Formula": "C<sub>2</sub>H<sub>4</sub>O<sub>2</sub>.K",
        "Molecular Mass": "",
        "Melting Point": "292 °C",
        "Density": "1.57 g/cm³ @ Temp: 25 °C"
    }
}