{
    "cas_no": "34381-68-5",
    "key_name": "Acebutolol hydrochloride",
    "cn_name": "盐酸醋丁洛尔;N-[3-乙酰基-4-[2-羟基-3-[(异丙基)氨基]丙氧基]苯基]丁酰胺盐酸盐;",
    "alternate_name": "Butanamide, <em>N</em>-[3-acetyl-4-[2-hydroxy-3-[(1-methylethyl)amino]propoxy]phenyl]-, hydrochloride (1:1);Butyranilide, 3′-acetyl-4′-[2-hydroxy-3-(isopropylamino)propoxy]-, monohydrochloride, (±)-;Butanamide, <em>N</em>-[3-acetyl-4-[2-hydroxy-3-[(1-methylethyl)amino]propoxy]phenyl]-, monohydrochloride, (±)-;Butanamide, <em>N</em>-[3-acetyl-4-[2-hydroxy-3-[(1-methylethyl)amino]propoxy]phenyl]-, monohydrochloride;M and B 17803A;<span class=\"text-smallcaps\">DL</span>-1-(2-Acetyl-4-butyramidophenoxy)-2-hydroxy-3-isopropylaminopropane hydrochloride;M &amp; B 17803A;Acebutolol hydrochloride;<span class=\"text-smallcaps\">DL</span>-1-(2-Acetyl-4-butyramido)-3-(isopropylamino)propan-2-ol hydrochloride;Sectral;Acetobutolol hydrochloride;(±)-Acebutolol hydrochloride;Acetanol;IL 17803A;Neptall",
    "duplicated_cas_no": "28197-64-0",
    "SMILES": "O(CC(CNC(C)C)O)C1=C(C(C)=O)C=C(NC(CCC)=O)C=C1.Cl",
    "meta_data": {
        "InChI": "InChI=1S/C18H28N2O4.ClH/c1-5-6-18(23)20-14-7-8-17(16(9-14)13(4)21)24-11-15(22)10-19-12(2)3;/h7-9,12,15,19,22H,5-6,10-11H2,1-4H3,(H,20,23);1H",
        "InChIKey": null,
        "Canonical SMILES": "Cl.O=C(NC1=CC=C(OCC(O)CNC(C)C)C(=C1)C(=O)C)CCC",
        "Molecular Formula": "C<sub>18</sub>H<sub>28</sub>N<sub>2</sub>O<sub>4</sub>.ClH",
        "Molecular Mass": "",
        "Melting Point": "141-143 °C"
    }
}