{
    "cas_no": "53399-81-8",
    "key_name": "Ethyl 2-methyl-4-pentenoate",
    "cn_name": "2-甲基-4-戊烯酸乙酯;",
    "alternate_name": "4-Pentenoic acid, 2-methyl-, ethyl ester;Ethyl 2-methyl-4-pentenoate;2-Methyl-4-pentenoic acid ethyl ester",
    "duplicated_cas_no": "105999-68-6",
    "SMILES": "C(C(OCC)=O)(CC=C)C",
    "meta_data": {
        "InChI": "InChI=1S/C8H14O2/c1-4-6-7(3)8(9)10-5-2/h4,7H,1,5-6H2,2-3H3",
        "InChIKey": null,
        "Canonical SMILES": "O=C(OCC)C(C)CC=C",
        "Molecular Formula": "C<sub>8</sub>H<sub>14</sub>O<sub>2</sub>",
        "Molecular Mass": "142.20",
        "Boiling Point": "153-155 °C @ Press: 760 Torr"
    }
}