{
    "cas_no": "344-04-7",
    "key_name": "Bromopentafluorobenzene",
    "cn_name": "溴五氟苯;五氟溴苯;",
    "alternate_name": "Benzene, 1-bromo-2,3,4,5,6-pentafluoro-;Benzene, bromopentafluoro-;1-Bromo-2,3,4,5,6-pentafluorobenzene;Bromoperfluorobenzene;Bromopentafluorobenzene;Pentafluorobromobenzene;Pentafluorophenyl bromide;NSC 21630;1,2,3,4,5-Pentafluoro-6-bromobenzene",
    "duplicated_cas_no": "",
    "SMILES": "BrC1=C(F)C(F)=C(F)C(F)=C1F",
    "meta_data": {
        "InChI": "InChI=1S/C6BrF5/c7-1-2(8)4(10)6(12)5(11)3(1)9",
        "InChIKey": null,
        "Canonical SMILES": "FC=1C(F)=C(F)C(Br)=C(F)C1F",
        "Molecular Formula": "C<sub>6</sub>BrF<sub>5</sub>",
        "Molecular Mass": "246.96",
        "Boiling Point": "137 °C",
        "Melting Point": "-31 °C",
        "Density": "1.9503 g/cm³ @ Temp: 20 °C"
    }
}