{
    "cas_no": "57319-65-0",
    "key_name": "6-Aminophthalide",
    "cn_name": "6-氨基苯酞;6-氨基-1,3-二羟基异苯并呋喃-1-酮;",
    "alternate_name": "1(3<em>H</em>)-Isobenzofuranone, 6-amino-;Phthalide, 6-amino-;6-Amino-1(3<em>H</em>)-isobenzofuranone;6-Aminophthalide;NSC 49585;6-Amino-2-benzofuran-1(3<em>H</em>)-one;6-Amino-1,3-dihydroisobenzofuran-1-one;6-Amino-3<em>H</em>-isobenzofuran-1-one;5-Amino-3-oxo-1,3-dihydroisobenzofuran",
    "duplicated_cas_no": "",
    "SMILES": "O=C1C=2C(=CC=C(N)C2)CO1",
    "meta_data": {
        "InChI": "InChI=1S/C8H7NO2/c9-6-2-1-5-4-11-8(10)7(5)3-6/h1-3H,4,9H2",
        "InChIKey": null,
        "Canonical SMILES": "O=C1OCC2=CC=C(N)C=C12",
        "Molecular Formula": "C<sub>8</sub>H<sub>7</sub>NO<sub>2</sub>",
        "Molecular Mass": "149.15",
        "Melting Point": "177-178 °C"
    }
}