{
    "cas_no": "34580-13-7",
    "key_name": "Ketotifen",
    "cn_name": "酮替芬;",
    "alternate_name": "10<em>H</em>-Benzo[4,5]cyclohepta[1,2-<em>b</em>]thiophen-10-one, 4,9-dihydro-4-(1-methyl-4-piperidinylidene)-;4,9-Dihydro-4-(1-methyl-4-piperidinylidene)-10<em>H</em>-benzo[4,5]cyclohepta[1,2-<em>b</em>]thiophen-10-one;4-(1-Methyl-4-piperidinylidene)-4<em>H</em>-benzo[4,5]cyclohepta[1,2-<em>d</em>]thiophene-10(9<em>H</em>)-one;Ketotifen;HC 20-511;(±)-Ketotifen;RS-ketotifen;MeSH ID: D007665",
    "duplicated_cas_no": "116655-74-4",
    "SMILES": "O=C1C2=C(C(C=3C(C1)=CC=CC3)=C4CCN(C)CC4)C=CS2",
    "meta_data": {
        "InChI": "InChI=1S/C19H19NOS/c1-20-9-6-13(7-10-20)18-15-5-3-2-4-14(15)12-17(21)19-16(18)8-11-22-19/h2-5,8,11H,6-7,9-10,12H2,1H3",
        "InChIKey": null,
        "Canonical SMILES": "O=C1C=2SC=CC2C(C=3C=CC=CC3C1)=C4CCN(C)CC4",
        "Molecular Formula": "C<sub>19</sub>H<sub>19</sub>NOS",
        "Molecular Mass": "309.43",
        "Melting Point": "152-153 °C"
    }
}