{
    "cas_no": "106-43-4",
    "key_name": "4-Chlorotoluene",
    "cn_name": "对氯甲苯;4-氯甲苯;",
    "alternate_name": "Benzene, 1-chloro-4-methyl-;Toluene, <em>p</em>-chloro-;1-Chloro-4-methylbenzene;4-Chloro-1-methylbenzene;<em>p</em>-Chlorotoluene;<em>p</em>-Tolyl chloride;4-Chlorotoluene;<em>para</em>-Chlorotoluene;<em>p</em>-Chloromethylbenzene;<em>p</em>-Methylchlorobenzene;1-Methyl-4-chlorobenzene;4-Methylphenyl chloride;4-Tolyl chloride;4-Methylchlorobenzene;NSC 404114;4-Methyl-1-chlorobenzene",
    "duplicated_cas_no": "",
    "SMILES": "CC1=CC=C(Cl)C=C1",
    "meta_data": {
        "InChI": "InChI=1S/C7H7Cl/c1-6-2-4-7(8)5-3-6/h2-5H,1H3",
        "InChIKey": null,
        "Canonical SMILES": "ClC1=CC=C(C=C1)C",
        "Molecular Formula": "C<sub>7</sub>H<sub>7</sub>Cl",
        "Molecular Mass": "126.58",
        "Boiling Point": "162.4 °C",
        "Melting Point": "7.5 °C",
        "Density": "1.0697 g/cm³ @ Temp: 20 °C"
    }
}