{
    "cas_no": "2164-33-2",
    "key_name": "2-(Chloromethyl)-2,3-dihydro-1,4-benzodioxin",
    "cn_name": null,
    "alternate_name": "1,4-Benzodioxin, 2-(chloromethyl)-2,3-dihydro-;1,4-Benzodioxan, 2-(chloromethyl)-;2-(Chloromethyl)-2,3-dihydro-1,4-benzodioxin;2-(Chloromethyl)-1,4-benzodioxane;2-Chloromethyl-1,4-benzodioxan;2-Chloromethyl-2,3-dihydro-1,4-benzodioxin;NSC 1500;NSC 24519;NSC 33830;2-Chloromethyl-2,3-dihydrobenzo[1,4]dioxine",
    "duplicated_cas_no": "",
    "SMILES": "C(Cl)C1OC=2C(OC1)=CC=CC2",
    "meta_data": {
        "InChI": "InChI=1S/C9H9ClO2/c10-5-7-6-11-8-3-1-2-4-9(8)12-7/h1-4,7H,5-6H2",
        "InChIKey": null,
        "Canonical SMILES": "ClCC1OC=2C=CC=CC2OC1",
        "Molecular Formula": "C<sub>9</sub>H<sub>9</sub>ClO<sub>2</sub>",
        "Molecular Mass": "184.62",
        "Boiling Point": "131.5 °C @ Press: 15 Torr",
        "Density": "1.2833 g/cm³ @ Temp: 20 °C"
    }
}