{
    "cas_no": "497-26-7",
    "key_name": "2-Methyl-1,3-dioxolane",
    "cn_name": "2-甲基-1,3-二氧戊环;2-甲基-1,3-二氧戊烷;乙醛乙二醇缩醛;2-甲基-1,3-二恶茂烷;",
    "alternate_name": "1,3-Dioxolane, 2-methyl-;2-Methyl-1,3-dioxolane;2-Methyldioxolane;2-Methyl-1,3-dioxacyclopentane;Methyl dioxolane;NSC 5209",
    "duplicated_cas_no": "1331-09-5;89579-87-3",
    "SMILES": "CC1OCCO1",
    "meta_data": {
        "InChI": "InChI=1S/C4H8O2/c1-4-5-2-3-6-4/h4H,2-3H2,1H3",
        "InChIKey": null,
        "Canonical SMILES": "O1CCOC1C",
        "Molecular Formula": "C<sub>4</sub>H<sub>8</sub>O<sub>2</sub>",
        "Molecular Mass": "88.11",
        "Boiling Point": "81.5 °C",
        "Density": "0.9795 g/cm³ @ Temp: 20 °C"
    }
}