{
    "cas_no": "354-06-3",
    "key_name": "1-Bromo-2-chloro-1,1,2-trifluoroethane",
    "cn_name": "1-溴2-氯-1,1,2-三氟乙烷;1-溴2-氯-1,1,2-三氟乙烷;",
    "alternate_name": "Ethane, 1-bromo-2-chloro-1,1,2-trifluoro-;1-Bromo-2-chloro-1,1,2-trifluoroethane;1-Chloro-2-bromo-1,2,2-trifluoroethane;1,1,2-Trifluoro-1-bromo-2-chloroethane;Isohaloethane;2-Bromo-1-chloro-1,2,2-trifluoroethane;NSC 123315",
    "duplicated_cas_no": "",
    "SMILES": "C(C(Cl)F)(Br)(F)F",
    "meta_data": {
        "InChI": "InChI=1S/C2HBrClF3/c3-2(6,7)1(4)5/h1H",
        "InChIKey": null,
        "Canonical SMILES": "FC(Cl)C(F)(F)Br",
        "Molecular Formula": "C<sub>2</sub>HBrClF<sub>3</sub>",
        "Molecular Mass": "197.38",
        "Boiling Point": "52.5 °C",
        "Density": "1.8636 g/cm³ @ Temp: 25 °C"
    }
}