{
    "cas_no": "13678-58-5",
    "key_name": "Methylthiomethyl ethyl ketone",
    "cn_name": "1-甲硫基-2-丁酮;",
    "alternate_name": "2-Butanone, 1-(methylthio)-;1-(Methylthio)-2-butanone;1-Methylthio-2-butanone;Methylthiomethyl ethyl ketone;1-(Methylsulfanyl)butan-2-one;1-Methylsulfanyl-butan-2-one",
    "duplicated_cas_no": "",
    "SMILES": "C(CSC)(CC)=O",
    "meta_data": {
        "InChI": "InChI=1S/C5H10OS/c1-3-5(6)4-7-2/h3-4H2,1-2H3",
        "InChIKey": null,
        "Canonical SMILES": "O=C(CSC)CC",
        "Molecular Formula": "C<sub>5</sub>H<sub>10</sub>OS",
        "Molecular Mass": "118.20",
        "Boiling Point": "72-73 °C @ Press: 16 Torr",
        "Density": "0.9970 g/cm³ @ Temp: 22 °C"
    }
}