{
    "cas_no": "24856-58-4",
    "key_name": "4-Bromobenzaldehyde dimethyl acetal",
    "cn_name": "4-溴苯甲醛二甲基缩醛;",
    "alternate_name": "Benzene, 1-bromo-4-(dimethoxymethyl)-;Benzaldehyde, <em>p</em>-bromo-, dimethyl acetal;1-Bromo-4-(dimethoxymethyl)benzene;<em>p</em>-Bromobenzaldehyde dimethyl acetal;4-Bromobenzaldehyde dimethyl acetal",
    "duplicated_cas_no": "169309-98-2",
    "SMILES": "C(OC)(OC)C1=CC=C(Br)C=C1",
    "meta_data": {
        "InChI": "InChI=1S/C9H11BrO2/c1-11-9(12-2)7-3-5-8(10)6-4-7/h3-6,9H,1-2H3",
        "InChIKey": null,
        "Canonical SMILES": "BrC1=CC=C(C=C1)C(OC)OC",
        "Molecular Formula": "C<sub>9</sub>H<sub>11</sub>BrO<sub>2</sub>",
        "Molecular Mass": "231.09",
        "Boiling Point": "98 °C @ Press: 10 Torr"
    }
}