{
    "cas_no": "688-14-2",
    "key_name": "Glycylleucine",
    "cn_name": "甘氨酰-DL-亮氨酸;甘氨酸-DL-亮氨酸;甘氨酸缩-DL-闪白氨基酸;甘氨酰-DL-白氨酸 ;甘氨酰-DL-白氨酸;甘氨酰-D;",
    "alternate_name": "Leucine, glycyl-;Leucine, <em>N</em>-glycyl-, <span class=\"text-smallcaps\">DL</span>-;<span class=\"text-smallcaps\">DL</span>-Leucine, <em>N</em>-glycyl-;Glycylleucine;Glycyl-<span class=\"text-smallcaps\">DL</span>-leucine;Glycyl-(<em>RS</em>)-leucine;Glycyl-<span class=\"text-smallcaps\">D</span>,L-leucine;2-(2-Amino-acetylamino)-4-methyl-pentanoic acid;2-(2-Aminoacetamido)-4-methylpentanoic acid;2-[(2-Azaniumylacetyl)amino]-4-methylpentanoate",
    "duplicated_cas_no": "923-38-6",
    "SMILES": "C(NC(CN)=O)(CC(C)C)C(O)=O",
    "meta_data": {
        "InChI": "InChI=1S/C8H16N2O3/c1-5(2)3-6(8(12)13)10-7(11)4-9/h5-6H,3-4,9H2,1-2H3,(H,10,11)(H,12,13)",
        "InChIKey": null,
        "Canonical SMILES": "O=C(O)C(NC(=O)CN)CC(C)C",
        "Molecular Formula": "C<sub>8</sub>H<sub>16</sub>N<sub>2</sub>O<sub>3</sub>",
        "Molecular Mass": "188.22",
        "Melting Point": "242 °C (decomp)"
    }
}