{
    "cas_no": "123-69-3",
    "key_name": "Ambrettolide",
    "cn_name": "(Z)-氧代环十七碳-8-烯-2-酮;",
    "alternate_name": "Oxacycloheptadec-8-en-2-one, (8<em>Z</em>)-;Oxacycloheptadec-8-en-2-one, (<em>Z</em>)-;(8<em>Z</em>)-Oxacycloheptadec-8-en-2-one;Ambrettolid;Ambrettolide;Musk ambrette;Musk natural;Musk ambrette (natural);Natural musk ambrette;16-Hydroxy-7-hexadecenoic acid lactone;Ambrette musk;(<em>Z</em>)-Oxacycloheptadec-8-en-2-one",
    "duplicated_cas_no": "17598-28-6",
    "SMILES": "",
    "meta_data": {
        "InChI": "",
        "InChIKey": null,
        "Canonical SMILES": "",
        "Molecular Formula": "C<sub>16</sub>H<sub>28</sub>O<sub>2</sub>",
        "Molecular Mass": "252.39",
        "Boiling Point": "154-156 °C",
        "Density": "0.9380 g/cm³ @ Temp: 20 °C"
    }
}