{
    "cas_no": "96843-23-1",
    "key_name": "1,5-Dibromo-2,4-diiodobenzene",
    "cn_name": null,
    "alternate_name": "Benzene, 1,5-dibromo-2,4-diiodo-;1,5-Dibromo-2,4-diiodobenzene",
    "duplicated_cas_no": "",
    "SMILES": "BrC1=C(I)C=C(I)C(Br)=C1",
    "meta_data": {
        "InChI": "InChI=1S/C6H2Br2I2/c7-3-1-4(8)6(10)2-5(3)9/h1-2H",
        "InChIKey": null,
        "Canonical SMILES": "BrC=1C=C(Br)C(I)=CC1I",
        "Molecular Formula": "C<sub>6</sub>H<sub>2</sub>Br<sub>2</sub>I<sub>2</sub>",
        "Molecular Mass": "487.70",
        "Melting Point": "166-167 °C"
    }
}