{
    "cas_no": "17826-05-0",
    "key_name": "5,6-Dibromoisatin",
    "cn_name": null,
    "alternate_name": "1<em>H</em>-Indole-2,3-dione, 5,6-dibromo-;Indole-2,3-dione, 5,6-dibromo-;5,6-Dibromo-1<em>H</em>-indole-2,3-dione;5,6-Dibromoisatin",
    "duplicated_cas_no": "",
    "SMILES": "O=C1C=2C(NC1=O)=CC(Br)=C(Br)C2",
    "meta_data": {
        "InChI": "InChI=1S/C8H3Br2NO2/c9-4-1-3-6(2-5(4)10)11-8(13)7(3)12/h1-2H,(H,11,12,13)",
        "InChIKey": null,
        "Canonical SMILES": "O=C1NC2=CC(Br)=C(Br)C=C2C1=O",
        "Molecular Formula": "C<sub>8</sub>H<sub>3</sub>Br<sub>2</sub>NO<sub>2</sub>",
        "Molecular Mass": "304.92",
        "Melting Point": "288-290 °C"
    }
}