{
    "cas_no": "109089-77-2",
    "key_name": "2-Methoxy-5-methyl-β-phenylbenzenepropanoic acid",
    "cn_name": "3-(2-甲氧基-5-甲基苯基)-3-苯基丙酸;",
    "alternate_name": "Benzenepropanoic acid, 2-methoxy-5-methyl-β-phenyl-;Hydrocinnamic acid, 2-methoxy-5-methyl-β-phenyl-;2-Methoxy-5-methyl-β-phenylbenzenepropanoic acid",
    "duplicated_cas_no": "",
    "SMILES": "C(CC(O)=O)(C1=C(OC)C=CC(C)=C1)C2=CC=CC=C2",
    "meta_data": {
        "InChI": "InChI=1S/C17H18O3/c1-12-8-9-16(20-2)15(10-12)14(11-17(18)19)13-6-4-3-5-7-13/h3-10,14H,11H2,1-2H3,(H,18,19)",
        "InChIKey": null,
        "Canonical SMILES": "O=C(O)CC(C=1C=CC=CC1)C2=CC(=CC=C2OC)C",
        "Molecular Formula": "C<sub>17</sub>H<sub>18</sub>O<sub>3</sub>",
        "Molecular Mass": "270.32",
        "Melting Point": "136-137 °C"
    }
}