{
    "cas_no": "31438-22-9",
    "key_name": "1-Nitro-9<em>H</em>-carbazole",
    "cn_name": null,
    "alternate_name": "9<em>H</em>-Carbazole, 1-nitro-;Carbazole, 1-nitro-;1-Nitro-9<em>H</em>-carbazole;1-Nitrocarbazole;NSC 88018",
    "duplicated_cas_no": "",
    "SMILES": "N(=O)(=O)C1=C2C(C=3C(N2)=CC=CC3)=CC=C1",
    "meta_data": {
        "InChI": "InChI=1S/C12H8N2O2/c15-14(16)11-7-3-5-9-8-4-1-2-6-10(8)13-12(9)11/h1-7,13H",
        "InChIKey": null,
        "Canonical SMILES": "O=N(=O)C1=CC=CC=2C=3C=CC=CC3NC21",
        "Molecular Formula": "C<sub>12</sub>H<sub>8</sub>N<sub>2</sub>O<sub>2</sub>",
        "Molecular Mass": "212.20",
        "Melting Point": "184 °C"
    }
}