{
    "cas_no": "442-16-0",
    "key_name": "Ethacridine",
    "cn_name": "利凡诺尔;利凡诺尔;利凡诺；乳酸-6,9-二氨基-2-乙氧基吖啶；2-乙氧基-6,9-二氨基吖啶乳酸盐；2,5-二氨基-7-;",
    "alternate_name": "3,9-Acridinediamine, 7-ethoxy-;Acridine, 6,9-diamino-2-ethoxy-;7-Ethoxy-3,9-acridinediamine;6,9-Diamino-2-ethoxyacridine;Ethacridine;2-Ethoxy-6,9-diaminoacridine;Etakridin;2-Ethoxy-6,9-acridinediamine;7-Ethoxy-3,9-diaminoacridine;NSC 163296;MeSH ID: D004975",
    "duplicated_cas_no": "",
    "SMILES": "NC=1C2=C(N=C3C1C=CC(N)=C3)C=CC(OCC)=C2",
    "meta_data": {
        "InChI": "InChI=1S/C15H15N3O/c1-2-19-10-4-6-13-12(8-10)15(17)11-5-3-9(16)7-14(11)18-13/h3-8H,2,16H2,1H3,(H2,17,18)",
        "InChIKey": null,
        "Canonical SMILES": "N=1C=2C=CC(OCC)=CC2C(N)=C3C=CC(N)=CC13",
        "Molecular Formula": "C<sub>15</sub>H<sub>15</sub>N<sub>3</sub>O",
        "Molecular Mass": "253.30",
        "Melting Point": "226 °C"
    }
}