{
    "cas_no": "31805-83-1",
    "key_name": "1,3-Bis(methylthio)-2-propanol",
    "cn_name": "1,3-二甲硫基-2-丙醇;1,3-二(甲硫基)-2-丙醇;",
    "alternate_name": "2-Propanol, 1,3-bis(methylthio)-;1,3-Bis(methylthio)-2-propanol;NSC 240695;1,3-Bis(methylsulfanyl)propan-2-ol",
    "duplicated_cas_no": "",
    "SMILES": "C(CSC)(CSC)O",
    "meta_data": {
        "InChI": "InChI=1S/C5H12OS2/c1-7-3-5(6)4-8-2/h5-6H,3-4H2,1-2H3",
        "InChIKey": null,
        "Canonical SMILES": "OC(CSC)CSC",
        "Molecular Formula": "C<sub>5</sub>H<sub>12</sub>OS<sub>2</sub>",
        "Molecular Mass": "152.28",
        "Boiling Point": "66-68 °C @ Press: 0.2 Torr"
    }
}