{
    "cas_no": "5349-62-2",
    "key_name": "4-Methyl-1-phenyl-2-pentanone",
    "cn_name": "4-甲基-1-苯基-2-戊酮;",
    "alternate_name": "2-Pentanone, 4-methyl-1-phenyl-;4-Methyl-1-phenyl-2-pentanone;Benzyl isobutyl ketone;Isobutyl benzyl ketone;NSC 1268",
    "duplicated_cas_no": "",
    "SMILES": "C(C(CC(C)C)=O)C1=CC=CC=C1",
    "meta_data": {
        "InChI": "InChI=1S/C12H16O/c1-10(2)8-12(13)9-11-6-4-3-5-7-11/h3-7,10H,8-9H2,1-2H3",
        "InChIKey": null,
        "Canonical SMILES": "O=C(CC=1C=CC=CC1)CC(C)C",
        "Molecular Formula": "C<sub>12</sub>H<sub>16</sub>O",
        "Molecular Mass": "176.25",
        "Boiling Point": "250.5 °C @ Press: 760 Torr",
        "Density": "0.969 g/cm³ @ Temp: 40 °C"
    }
}