{
    "cas_no": "4606-15-9",
    "key_name": "Propyl phenylacetate",
    "cn_name": "苯乙酸丙酯;",
    "alternate_name": "Benzeneacetic acid, propyl ester;Acetic acid, phenyl-, propyl ester;Propyl phenylacetate;NSC 6579;2-Phenylacetic acid <em>n</em>-propyl ester",
    "duplicated_cas_no": "",
    "SMILES": "C(C(OCCC)=O)C1=CC=CC=C1",
    "meta_data": {
        "InChI": "InChI=1S/C11H14O2/c1-2-8-13-11(12)9-10-6-4-3-5-7-10/h3-7H,2,8-9H2,1H3",
        "InChIKey": null,
        "Canonical SMILES": "O=C(OCCC)CC=1C=CC=CC1",
        "Molecular Formula": "C<sub>11</sub>H<sub>14</sub>O<sub>2</sub>",
        "Molecular Mass": "178.23",
        "Boiling Point": "228-289 °C",
        "Density": "0.9431 g/cm³ @ Temp: 15 °C"
    }
}