{
    "cas_no": "10081-67-1",
    "key_name": "4,4′-Bis(α,α-dimethylbenzyl)diphenylamine",
    "cn_name": "4,4\"-二(苯基异丙基)二苯胺;防老剂KY-405;抗氧剂KY405;",
    "alternate_name": "Benzenamine, 4-(1-methyl-1-phenylethyl)-<em>N</em>-[4-(1-methyl-1-phenylethyl)phenyl]-;Diphenylamine, 4,4′-bis(α,α-dimethylbenzyl)-;4-(1-Methyl-1-phenylethyl)-<em>N</em>-[4-(1-methyl-1-phenylethyl)phenyl]benzenamine;Naugard 445;Bis[4-(2-phenyl-2-propyl)phenyl]amine;Permanax 49HV;4,4′-Bis(α,α′-dimethylbenzyl)diphenylamine;4,4′-Bis(α,α-dimethylbenzyl)diphenylamine;Permanax 49;Antioxidant 445;Nocrac CD;Bis(<em>p</em>-cumylphenyl)amine;MD 40;MD 40 (antioxidant);KY 405;Nonflex DCD;Bis(phenylisopropylidene)-4,4′-diphenylamine;AO 445;4-(1-Methyl-1-phenylethyl)-<em>N</em>-[4-(1-methyl-1-phenylethyl)phenyl]aniline;RDZ;4,4′-Bis(dimethylbenzyl)diphenylamine;Naugalube AMS;Dusantox CDPA-HP;4,4′-Bis(1,1-dimethylbenzyl)diphenylamine;Luvomaxx CDPA;<em>N</em>,<em>N</em>-Bis[4-(2-phenylpropan-2-yl)phenyl]amine;KY 445;NA 445;MC 445;N 445;Naugard N 445;ZM 405;4-(1-Methylphenylethyl)-<em>N</em>-[4-(1-methyl-1-phenylethyl)phenyl]benzenamine;HS 911;MBPA (antioxidant);MBPA;Alchem MBPA;Chinox N 445;Rianox 445;Antioxidant 405;Okabest AO 445F;Vanox CDPA;AO 405 (antioxidant);AO 405;Permanax CD;Nangard 445",
    "duplicated_cas_no": "108192-80-9;125053-82-9;867067-70-7;934200-43-8;1152781-85-5;1203576-16-2;1268470-54-7;1429516-24-4;1771743-81-7;2055335-21-0",
    "SMILES": "C(C)(C)(C1=CC=C(NC2=CC=C(C(C)(C)C3=CC=CC=C3)C=C2)C=C1)C4=CC=CC=C4",
    "meta_data": {
        "InChI": "InChI=1S/C30H31N/c1-29(2,23-11-7-5-8-12-23)25-15-19-27(20-16-25)31-28-21-17-26(18-22-28)30(3,4)24-13-9-6-10-14-24/h5-22,31H,1-4H3",
        "InChIKey": null,
        "Canonical SMILES": "C=1C=CC(=CC1)C(C2=CC=C(C=C2)NC3=CC=C(C=C3)C(C=4C=CC=CC4)(C)C)(C)C",
        "Molecular Formula": "C<sub>30</sub>H<sub>31</sub>N",
        "Molecular Mass": "405.57",
        "Melting Point": "99-100 °C"
    }
}