{
    "cas_no": "7249-87-8",
    "key_name": "3-(Propylamino)propanenitrile",
    "cn_name": "3-丙氨基丙腈;3-丙氨基丙腈;",
    "alternate_name": "Propanenitrile, 3-(propylamino)-;Propionitrile, 3-(propylamino)-;3-(Propylamino)propanenitrile;<em>N</em>-(β-Cyanoethyl)propylamine;3-(Propylamino)propionitrile;<em>N</em>-Cyanoethyl-<em>N</em>-propylamine;Propyl(2-cyanoethyl)amine;NSC 41194;<em>N</em>-(2-Cyanoethyl)-<em>N</em>-propylamine",
    "duplicated_cas_no": "",
    "SMILES": "C(NCCC)CC#N",
    "meta_data": {
        "InChI": "InChI=1S/C6H12N2/c1-2-5-8-6-3-4-7/h8H,2-3,5-6H2,1H3",
        "InChIKey": null,
        "Canonical SMILES": "N#CCCNCCC",
        "Molecular Formula": "C<sub>6</sub>H<sub>12</sub>N<sub>2</sub>",
        "Molecular Mass": "112.17",
        "Boiling Point": "119-121 °C @ Press: 30 Torr",
        "Density": "0.8889 g/cm³ @ Temp: 20 °C"
    }
}