{
    "cas_no": "592-34-7",
    "key_name": "Butyl chloroformate",
    "cn_name": "氯甲酸丁酯;",
    "alternate_name": "Carbonochloridic acid, butyl ester;Formic acid, chloro-, butyl ester;Butyl chloroformate;Chloroformic acid butyl ester;Butyl chlorocarbonate;Butoxycarbonyl chloride;<em>n</em>-Butyl chloroformate;NSC 8428;Butan-1-yl chloroformate;Chloroformic acid <em>n</em>-butyl ester;Butyl carbonochloridate",
    "duplicated_cas_no": "",
    "SMILES": "O(CCCC)C(Cl)=O",
    "meta_data": {
        "InChI": "InChI=1S/C5H9ClO2/c1-2-3-4-8-5(6)7/h2-4H2,1H3",
        "InChIKey": null,
        "Canonical SMILES": "O=C(Cl)OCCCC",
        "Molecular Formula": "C<sub>5</sub>H<sub>9</sub>ClO<sub>2</sub>",
        "Molecular Mass": "136.58",
        "Boiling Point": "142 °C",
        "Density": "1.074 g/cm³ @ Temp: 25 °C"
    }
}