{
    "cas_no": "40263-57-8",
    "key_name": "2-Iodo-3-pyridinol",
    "cn_name": "3-羟基-2-碘吡啶;2-羟基-3-碘吡啶;2-碘-3-羟基吡啶;",
    "alternate_name": "3-Pyridinol, 2-iodo-;2-Iodo-3-pyridinol;2-Iodo-3-hydroxypyridine;3-Hydroxy-2-iodopyridine;NSC 103161",
    "duplicated_cas_no": "37352-60-6",
    "SMILES": "OC1=C(I)N=CC=C1",
    "meta_data": {
        "InChI": "InChI=1S/C5H4INO/c6-5-4(8)2-1-3-7-5/h1-3,8H",
        "InChIKey": null,
        "Canonical SMILES": "IC1=NC=CC=C1O",
        "Molecular Formula": "C<sub>5</sub>H<sub>4</sub>INO",
        "Molecular Mass": "221.00",
        "Melting Point": "192 °C"
    }
}