{
    "cas_no": "2934-97-6",
    "key_name": "(±)-Tetrahydropalmatine",
    "cn_name": "四氢帕马丁;罗通宝;左旋四氢巴马亭;L-四氢巴马亭;",
    "alternate_name": "6<em>H</em>-Dibenzo[<em>a</em>,<em>g</em>]quinolizine, 5,8,13,13a-tetrahydro-2,3,9,10-tetramethoxy-;Berbine, 2,3,9,10-tetramethoxy-, (±)-;6<em>H</em>-Dibenzo[<em>a</em>,<em>g</em>]quinolizine, 5,8,13,13a-tetrahydro-2,3,9,10-tetramethoxy-, (±)-;<span class=\"text-smallcaps\">DL</span>-Berbine, 2,3,9,10-tetramethoxy-;5,8,13,13a-Tetrahydro-2,3,9,10-tetramethoxy-6<em>H</em>-dibenzo[<em>a</em>,<em>g</em>]quinolizine;<em>dl</em>-Tetrahydropalmatine;(±)-Tetrahydropalmatine;<span class=\"text-smallcaps\">DL</span>-Tetrahydropalmatine;(±)-Corydalis B;(<em>R</em>,<em>S</em>)-Tetrahydropalmatine;Tetrahydropalmatine;THP;2,3,9,10-Tetramethoxy-6,8,13,13a-tetrahydro-5<em>H</em>-isoquinolino[2,1-<em>b</em>]isoquinoline;2,3,9,10-Tetramethoxy-5,8,13,13a-tetrahydro-6<em>H</em>-isoquino[3,2-<em>a</em>]isoquinoline",
    "duplicated_cas_no": "84-38-8;10097-84-4",
    "SMILES": "O(C)C=1C=C2C3N(CC=4C(C3)=CC=C(OC)C4OC)CCC2=CC1OC",
    "meta_data": {
        "InChI": "InChI=1S/C21H25NO4/c1-23-18-6-5-13-9-17-15-11-20(25-3)19(24-2)10-14(15)7-8-22(17)12-16(13)21(18)26-4/h5-6,10-11,17H,7-9,12H2,1-4H3",
        "InChIKey": null,
        "Canonical SMILES": "O(C1=CC=C2C(=C1OC)CN3CCC4=CC(OC)=C(OC)C=C4C3C2)C",
        "Molecular Formula": "C<sub>21</sub>H<sub>25</sub>NO<sub>4</sub>",
        "Molecular Mass": "355.43",
        "Melting Point": "145 °C"
    }
}