{
    "cas_no": "63555-50-0",
    "key_name": "Benzoic acid, 3-(chlorosulfonyl)-, methyl ester",
    "cn_name": null,
    "alternate_name": "Benzoic acid, 3-(chlorosulfonyl)-, methyl ester;Methyl benzoate-3-sulfonyl chloride;Methyl 3-(chlorosulfonyl)benzoate;3-(Methoxycarbonyl)benzenesulfonyl chloride;3-Methoxycarbonylphenylsulfonyl chloride",
    "duplicated_cas_no": "",
    "SMILES": "C(OC)(=O)C1=CC(S(Cl)(=O)=O)=CC=C1",
    "meta_data": {
        "InChI": "InChI=1S/C8H7ClO4S/c1-13-8(10)6-3-2-4-7(5-6)14(9,11)12/h2-5H,1H3",
        "InChIKey": null,
        "Canonical SMILES": "O=C(OC)C1=CC=CC(=C1)S(=O)(=O)Cl",
        "Molecular Formula": "C<sub>8</sub>H<sub>7</sub>ClO<sub>4</sub>S",
        "Molecular Mass": "234.66",
        "Melting Point": "64-66 °C"
    }
}