{
    "cas_no": "56-05-3",
    "key_name": "4,6-Dichloro-2-pyrimidinamine",
    "cn_name": "2-氨基-4,6-二氯嘧啶;",
    "alternate_name": "2-Pyrimidinamine, 4,6-dichloro-;Pyrimidine, 2-amino-4,6-dichloro-;4,6-Dichloro-2-pyrimidinamine;2-Amino-4,6-dichloropyrimidine;Py 11;4,6-Dichloro-2-aminopyrimidine;NSC 18698;(4,6-Dichloropyrimidin-2-yl)amine;2-Amino-4,6-dichloro-2-pyrimidine",
    "duplicated_cas_no": "",
    "SMILES": "ClC=1C=C(Cl)N=C(N)N1",
    "meta_data": {
        "InChI": "InChI=1S/C4H3Cl2N3/c5-2-1-3(6)9-4(7)8-2/h1H,(H2,7,8,9)",
        "InChIKey": null,
        "Canonical SMILES": "ClC=1N=C(N=C(Cl)C1)N",
        "Molecular Formula": "C<sub>4</sub>H<sub>3</sub>Cl<sub>2</sub>N<sub>3</sub>",
        "Molecular Mass": "163.99",
        "Melting Point": "221 °C"
    }
}