{
    "cas_no": "19103-54-9",
    "key_name": "Salvigenin",
    "cn_name": null,
    "alternate_name": "4<em>H</em>-1-Benzopyran-4-one, 5-hydroxy-6,7-dimethoxy-2-(4-methoxyphenyl)-;Flavone, 5-hydroxy-4′,6,7-trimethoxy-;5-Hydroxy-6,7-dimethoxy-2-(4-methoxyphenyl)-4<em>H</em>-1-benzopyran-4-one;Salvigenin;5-Hydroxy-4′,6,7-trimethoxyflavone;Psathyrotin;7-<em>O</em>-Methylpectolinarigenin;5-Hydroxy-6,7,4′-trimethoxyflavone;5-Desmethyltetraraethylscutellarein",
    "duplicated_cas_no": "",
    "SMILES": "OC1=C2C(OC(=CC2=O)C3=CC=C(OC)C=C3)=CC(OC)=C1OC",
    "meta_data": {
        "InChI": "InChI=1S/C18H16O6/c1-21-11-6-4-10(5-7-11)13-8-12(19)16-14(24-13)9-15(22-2)18(23-3)17(16)20/h4-9,20H,1-3H3",
        "InChIKey": null,
        "Canonical SMILES": "O=C1C=C(OC=2C=C(OC)C(OC)=C(O)C12)C=3C=CC(OC)=CC3",
        "Molecular Formula": "C<sub>18</sub>H<sub>16</sub>O<sub>6</sub>",
        "Molecular Mass": "328.32",
        "Melting Point": "188 °C"
    }
}