{
    "cas_no": "557-00-6",
    "key_name": "Propyl isovalerate",
    "cn_name": "异戊酸丙酯;3-甲基丁酸丙酯;",
    "alternate_name": "Butanoic acid, 3-methyl-, propyl ester;Isovaleric acid, propyl ester;Propyl isovalerate;Propyl 3-methylbutyrate;Propyl 3-methylbutanoate",
    "duplicated_cas_no": "",
    "SMILES": "C(C(OCCC)=O)C(C)C",
    "meta_data": {
        "InChI": "InChI=1S/C8H16O2/c1-4-5-10-8(9)6-7(2)3/h7H,4-6H2,1-3H3",
        "InChIKey": null,
        "Canonical SMILES": "O=C(OCCC)CC(C)C",
        "Molecular Formula": "C<sub>8</sub>H<sub>16</sub>O<sub>2</sub>",
        "Molecular Mass": "144.21",
        "Boiling Point": "155.9 °C"
    }
}