{
    "cas_no": "136-95-8",
    "key_name": "2-Aminobenzothiazole",
    "cn_name": "2-氨基苯并噻唑;",
    "alternate_name": "2-Benzothiazolamine;Benzothiazole, 2-amino-;Benzothiazole, 1-amino-;Benzothiazoline, 2-imino-;2-Aminobenzothiazole;2(3<em>H</em>)-Benzothiazolimine;2-Benzothiazolylamine;2-Iminobenzothiazoline;1,3-Benzothiazol-2-ylamine;NSC 4670;Benzo[<em>d</em>]thiazol-2-amine;2-Aminobenzo[<em>d</em>]thiazole;ABT;SKA 1;1,3-Benzothiazol-2-amine;Cerium ionophore I",
    "duplicated_cas_no": "120045-46-7;35858-53-8",
    "SMILES": "NC1=NC=2C(S1)=CC=CC2",
    "meta_data": {
        "InChI": "InChI=1S/C7H6N2S/c8-7-9-5-3-1-2-4-6(5)10-7/h1-4H,(H2,8,9)",
        "InChIKey": null,
        "Canonical SMILES": "N1=C(SC=2C=CC=CC12)N",
        "Molecular Formula": "C<sub>7</sub>H<sub>6</sub>N<sub>2</sub>S",
        "Molecular Mass": "150.20",
        "Boiling Point": "190-195 °C @ Press: 0.05 Torr",
        "Melting Point": "132 °C"
    }
}