{
    "cas_no": "17789-14-9",
    "key_name": "2-(3-Bromophenyl)-1,3-dioxolane",
    "cn_name": "2-(3-溴苯基)-1,3-二氧戊环;",
    "alternate_name": "1,3-Dioxolane, 2-(3-bromophenyl)-;1,3-Dioxolane, 2-(<em>m</em>-bromophenyl)-;2-(3-Bromophenyl)-1,3-dioxolane;<em>m</em>-Bromobenzaldehyde ethylene acetal;2-(3-Bromophenyl)dioxolane;3-Bromobenzaldehyde ethylene acetal;3-(1,3-Dioxolan-2-yl)phenyl bromide",
    "duplicated_cas_no": "",
    "SMILES": "BrC=1C=C(C=CC1)C2OCCO2",
    "meta_data": {
        "InChI": "InChI=1S/C9H9BrO2/c10-8-3-1-2-7(6-8)9-11-4-5-12-9/h1-3,6,9H,4-5H2",
        "InChIKey": null,
        "Canonical SMILES": "BrC1=CC=CC(=C1)C2OCCO2",
        "Molecular Formula": "C<sub>9</sub>H<sub>9</sub>BrO<sub>2</sub>",
        "Molecular Mass": "229.07",
        "Boiling Point": "132.5 °C",
        "Density": "1.5137 g/cm³ @ Temp: 20 °C"
    }
}