{
    "cas_no": "90178-82-8",
    "key_name": "3-Formyl-4-nitrobenzonitrile",
    "cn_name": null,
    "alternate_name": "Benzonitrile, 3-formyl-4-nitro-;3-Formyl-4-nitrobenzonitrile;5-Cyano-2-nitrobenzaldehyde;3-Formyl-4-nitrobenzonitril",
    "duplicated_cas_no": "",
    "SMILES": "C(=O)C1=C(N(=O)=O)C=CC(C#N)=C1",
    "meta_data": {
        "InChI": "InChI=1S/C8H4N2O3/c9-4-6-1-2-8(10(12)13)7(3-6)5-11/h1-3,5H",
        "InChIKey": null,
        "Canonical SMILES": "N#CC1=CC=C(C(C=O)=C1)N(=O)=O",
        "Molecular Formula": "C<sub>8</sub>H<sub>4</sub>N<sub>2</sub>O<sub>3</sub>",
        "Molecular Mass": "176.13",
        "Melting Point": "115-116 °C"
    }
}