{
    "cas_no": "445-26-1",
    "key_name": "2-Fluoro-α-methylbenzenemethanol",
    "cn_name": "1-(2-氟苯基)-1-乙醇;",
    "alternate_name": "Benzenemethanol, 2-fluoro-α-methyl-;Benzyl alcohol, <em>o</em>-fluoro-α-methyl-;2-Fluoro-α-methylbenzenemethanol;1-(2-Fluorophenyl)ethanol;(±)-1-(<em>o</em>-Fluorophenyl)ethanol;1-(2-Fluorophenyl)-1-ethanol;1-(2′-Fluorophenyl)ethanol",
    "duplicated_cas_no": "155671-20-8",
    "SMILES": "C(C)(O)C1=C(F)C=CC=C1",
    "meta_data": {
        "InChI": "InChI=1S/C8H9FO/c1-6(10)7-4-2-3-5-8(7)9/h2-6,10H,1H3",
        "InChIKey": null,
        "Canonical SMILES": "FC=1C=CC=CC1C(O)C",
        "Molecular Formula": "C<sub>8</sub>H<sub>9</sub>FO",
        "Molecular Mass": "140.15",
        "Boiling Point": "117-118 °C @ Press: 45 Torr",
        "Density": "1.123 g/cm³ @ Temp: 20 °C"
    }
}