{
    "cas_no": "5617-32-3",
    "key_name": "Heptaethylene glycol",
    "cn_name": "庚乙二烯乙二醇;",
    "alternate_name": "3,6,9,12,15,18-Hexaoxaeicosane-1,20-diol;Heptaethylene glycol;3,6,9,12,15,18-Hexaoxaicosane-1,20-diol;2-[2-[2-[2-[2-[2-(2-Hydroxyethoxy)ethoxy]ethoxy]ethoxy]ethoxy]ethoxy]ethanol",
    "duplicated_cas_no": "69279-11-4",
    "SMILES": "C(COCCOCCOCCO)OCCOCCOCCO",
    "meta_data": {
        "InChI": "InChI=1S/C14H30O8/c15-1-3-17-5-7-19-9-11-21-13-14-22-12-10-20-8-6-18-4-2-16/h15-16H,1-14H2",
        "InChIKey": null,
        "Canonical SMILES": "OCCOCCOCCOCCOCCOCCOCCO",
        "Molecular Formula": "C<sub>14</sub>H<sub>30</sub>O<sub>8</sub>",
        "Molecular Mass": "326.38",
        "Boiling Point": "241-244 °C"
    }
}