{
    "cas_no": "5337-36-0",
    "key_name": "Trihexyl borate",
    "cn_name": "硼酸三正已基酯;",
    "alternate_name": "Boric acid (H<sub>3</sub>BO<sub>3</sub>), trihexyl ester;Trihexyl borate;Hexyl orthoborate;NSC 781",
    "duplicated_cas_no": "",
    "SMILES": "B(OCCCCCC)(OCCCCCC)OCCCCCC",
    "meta_data": {
        "InChI": "InChI=1S/C18H39BO3/c1-4-7-10-13-16-20-19(21-17-14-11-8-5-2)22-18-15-12-9-6-3/h4-18H2,1-3H3",
        "InChIKey": null,
        "Canonical SMILES": "O(B(OCCCCCC)OCCCCCC)CCCCCC",
        "Molecular Formula": "C<sub>18</sub>H<sub>39</sub>BO<sub>3</sub>",
        "Molecular Mass": "314.31",
        "Boiling Point": "195 °C @ Press: 25 Torr"
    }
}