{
    "cas_no": "1772-03-8",
    "key_name": "Galactosamine hydrochloride",
    "cn_name": "2-氨基-2-脱氧-D-半乳糖盐酸盐;",
    "alternate_name": "<span class=\"text-smallcaps\">D</span>-Galactose, 2-amino-2-deoxy-, hydrochloride (1:1);Galactose, 2-amino-2-deoxy-, hydrochloride, <span class=\"text-smallcaps\">D</span>-;<span class=\"text-smallcaps\">D</span>-Galactose, 2-amino-2-deoxy-, hydrochloride;Galactosamine hydrochloride;<span class=\"text-smallcaps\">D</span>-Galactosamine hydrochloride;2-Amino-2-deoxy-<span class=\"text-smallcaps\">D</span>-galactose hydrochloride;Chondrosamine hydrochloride",
    "duplicated_cas_no": "5808-21-9;316792-02-6;885318-71-8;1078692-22-4;1334320-71-6;1446003-88-8;1610761-84-6;1644187-08-5;1886979-58-3",
    "SMILES": "[C@H]([C@H]([C@@H](CO)O)O)([C@H](C=O)N)O.Cl",
    "meta_data": {
        "InChI": "InChI=1S/C6H13NO5.ClH/c7-3(1-8)5(11)6(12)4(10)2-9;/h1,3-6,9-12H,2,7H2;1H/t3-,4+,5+,6-;/m0./s1",
        "InChIKey": null,
        "Canonical SMILES": "Cl.O=CC(N)C(O)C(O)C(O)CO",
        "Molecular Formula": "C<sub>6</sub>H<sub>13</sub>NO<sub>5</sub>.ClH",
        "Molecular Mass": "",
        "Melting Point": "179 °C"
    }
}