{
    "cas_no": "592-17-6",
    "key_name": "Isobutylurea",
    "cn_name": "异丁基脲;异丁基脲;",
    "alternate_name": "Urea, <em>N</em>-(2-methylpropyl)-;Urea, isobutyl-;Urea, (2-methylpropyl)-;<em>N</em>-(2-Methylpropyl)urea;Isobutylurea;1-Isobutylurea;<em>N</em>-Isobutylurea;NSC 27457;(2-Methylpropyl)urea;2-Methylpropylurea",
    "duplicated_cas_no": "",
    "SMILES": "C(NC(N)=O)C(C)C",
    "meta_data": {
        "InChI": "InChI=1S/C5H12N2O/c1-4(2)3-7-5(6)8/h4H,3H2,1-2H3,(H3,6,7,8)",
        "InChIKey": null,
        "Canonical SMILES": "O=C(N)NCC(C)C",
        "Molecular Formula": "C<sub>5</sub>H<sub>12</sub>N<sub>2</sub>O",
        "Molecular Mass": "116.16",
        "Melting Point": "94 °C",
        "Density": "1.1263 g/cm³"
    }
}