{
    "cas_no": "1310-58-3",
    "key_name": "Potassium hydroxide",
    "cn_name": "氢氧化钾;",
    "alternate_name": "Potassium hydroxide (K(OH));Potassium hydroxide;Caustic potash;Potash;Cyantek CC 723;PSE 200;Arrocon 2298;Clearcut S;Gardoclean S 5167;Pipeline Gold;FD 40;Caustic Potash Flake;Denkazai K 10M",
    "duplicated_cas_no": "29857-72-5;71769-53-4;2226392-06-7",
    "SMILES": "[K]O",
    "meta_data": {
        "InChI": "InChI=1S/K.H2O/h;1H2/q+1;/p-1",
        "InChIKey": null,
        "Canonical SMILES": "[K]O",
        "Molecular Formula": "HKO",
        "Molecular Mass": "",
        "Boiling Point": "1327 °C",
        "Melting Point": "380 °C",
        "Density": "2.044 g/cm³"
    }
}