{
    "cas_no": "20208-73-5",
    "key_name": "Butyrylglycine",
    "cn_name": null,
    "alternate_name": "Glycine, <em>N</em>-(1-oxobutyl)-;Glycine, <em>N</em>-butyryl-;<em>N</em>-(1-Oxobutyl)glycine;<em>N</em>-Butyrylglycine;Butyrylglycine;<em>N</em>-Butanoylglycine;(Butyrylamino)acetic acid;2-(Butanoylamino)acetic acid;2-Butanamidoacetic acid",
    "duplicated_cas_no": "",
    "SMILES": "C(NCC(O)=O)(CCC)=O",
    "meta_data": {
        "InChI": "InChI=1S/C6H11NO3/c1-2-3-5(8)7-4-6(9)10/h2-4H2,1H3,(H,7,8)(H,9,10)",
        "InChIKey": null,
        "Canonical SMILES": "O=C(O)CNC(=O)CCC",
        "Molecular Formula": "C<sub>6</sub>H<sub>11</sub>NO<sub>3</sub>",
        "Molecular Mass": "145.16",
        "Melting Point": "65-70 °C"
    }
}