{
    "cas_no": "754-10-9",
    "key_name": "2,2-Dimethylpropanamide",
    "cn_name": "三甲基乙酰胺;三甲基乙胺;",
    "alternate_name": "Propanamide, 2,2-dimethyl-;Pivalamide;2,2-Dimethylpropanamide;Trimethylacetamide;2,2-Dimethylpropionamide;α,α-Dimethylpropionamide;Pivalic acid amide;NSC 17584;Neopentanamide",
    "duplicated_cas_no": "",
    "SMILES": "C(C(N)=O)(C)(C)C",
    "meta_data": {
        "InChI": "InChI=1S/C5H11NO/c1-5(2,3)4(6)7/h1-3H3,(H2,6,7)",
        "InChIKey": null,
        "Canonical SMILES": "O=C(N)C(C)(C)C",
        "Molecular Formula": "C<sub>5</sub>H<sub>11</sub>NO",
        "Molecular Mass": "101.15",
        "Melting Point": "154 °C",
        "Density": "1.1 g/cm³"
    }
}