{
    "cas_no": "1752-96-1",
    "key_name": "Nicotinanilide",
    "cn_name": "烟酰苯胺;",
    "alternate_name": "3-Pyridinecarboxamide, <em>N</em>-phenyl-;Nicotinanilide;<em>N</em>-Phenyl-3-pyridinecarboxamide;<em>N</em>-Phenylnicotinamide;3-Pyridylcarboxanilide;3-Phenylaminocarbonylpyridine;NSC 108206",
    "duplicated_cas_no": "",
    "SMILES": "C(NC1=CC=CC=C1)(=O)C=2C=CC=NC2",
    "meta_data": {
        "InChI": "InChI=1S/C12H10N2O/c15-12(10-5-4-8-13-9-10)14-11-6-2-1-3-7-11/h1-9H,(H,14,15)",
        "InChIKey": null,
        "Canonical SMILES": "O=C(NC=1C=CC=CC1)C=2C=NC=CC2",
        "Molecular Formula": "C<sub>12</sub>H<sub>10</sub>N<sub>2</sub>O",
        "Molecular Mass": "198.22",
        "Melting Point": "124-126 °C"
    }
}