{
    "cas_no": "264624-38-6",
    "key_name": "26-Deoxyactein",
    "cn_name": "脱氧升麻烃;",
    "alternate_name": "β-<span class=\"text-smallcaps\">D</span>-Xylopyranoside, (3β,12β,16β,23<em>S</em>,24<em>R</em>,25<em>R</em>)-12-(acetyloxy)-16,23:23,26:24,25-triepoxy-9,19-cyclolanostan-3-yl;(3β,12β,16β,23<em>S</em>,24<em>R</em>,25<em>R</em>)-12-(Acetyloxy)-16,23:23,26:24,25-triepoxy-9,19-cyclolanostan-3-yl β-<span class=\"text-smallcaps\">D</span>-xylopyranoside;27-Deoxyactein;26-Deoxyactein",
    "duplicated_cas_no": "302335-32-6;310878-76-3;158050-31-8;1140532-53-1",
    "SMILES": "C[C@]12[C@]3([C@]4([C@]5(C4)[C@](C(C)(C)[C@@H](O[C@H]6[C@H](O)[C@@H](O)[C@H](O)CO6)CC5)(CC3)[H])C[C@@H](OC(C)=O)[C@]1(C)[C@@]7([C@](C2)(O[C@@]8(C[C@H]7C)[C@]9([C@](C)(O9)CO8)[H])[H])[H])[H]",
    "meta_data": {
        "InChI": "InChI=1S/C37H56O10/c1-18-12-37(30-33(6,47-30)17-43-37)46-21-13-32(5)23-9-8-22-31(3,4)24(45-29-28(41)27(40)20(39)15-42-29)10-11-35(22)16-36(23,35)14-25(44-19(2)38)34(32,7)26(18)21/h18,20-30,39-41H,8-17H2,1-7H3/t18-,20-,21+,22+,23+,24+,25-,26+,27+,28-,29+,30-,32+,33-,34-,35-,36+,37+/m1/s1",
        "InChIKey": null,
        "Canonical SMILES": "O=C(OC1CC23CC43CCC(OC5OCC(O)C(O)C5O)C(C)(C)C4CCC2C6(C)CC7OC8(OCC9(OC89)C)CC(C)C7C16C)C",
        "Molecular Formula": "C<sub>37</sub>H<sub>56</sub>O<sub>10</sub>",
        "Molecular Mass": "660.83",
        "Melting Point": "258-260 °C"
    }
}