{
    "cas_no": "3388-04-3",
    "key_name": "Epoxycyclohexylethyltrimethoxysilane",
    "cn_name": "2-(3,4-环氧环己烷)乙基三甲氧基硅烷;三甲氧基[2-(7-氧杂二环[4.1.0]庚-3-基)乙基]硅烷;",
    "alternate_name": "7-Oxabicyclo[4.1.0]heptane, 3-[2-(trimethoxysilyl)ethyl]-;Silane, trimethoxy[2-(7-oxabicyclo[4.1.0]hept-3-yl)ethyl]-;7-Oxabicyclo[4.1.0]heptane, silane deriv.;3-[2-(Trimethoxysilyl)ethyl]-7-oxabicyclo[4.1.0]heptane;[β-(3,4-Epoxycyclohexyl)ethyl]trimethoxysilane;3,4-Epoxycyclohexylethyltrimethoxysilane;[2-(3,4-Epoxycyclohexyl)ethyl]trimethoxysilane;4-[2-(Trimethoxysilyl)ethyl]-7-oxabicyclo[4.1.0]heptane;Silane A 186;UC-A 186;Silicone A 186;KBM 303;A 186 (coupling agent);A 186;Y 4086;NUCA 186;S 530;Sila-Ace S 530;Silquest A 186;E 6250;Epoxycyclohexylethyltrimethoxysilane;NSC 139838;E 6250 (coupling agent);NUC Silicone A 186;Z 6043;Silwet A 186;LS 3990;KBE 303;A 168;KH 566;KH 530;DB 186;HK 531;GC 186;Trimethoxy[2-(7-oxabicyclo[4.1.0]hept-3-yl)ethyl]silane;(2-(7-Oxabicyclo[4.1.0]heptan-3-yl)ethyl)trimethoxysilane;β-(3,4-Epoxycyclohexyl)ethyltrimethoxysiloxane;Gelest SIE 4670.0;SIE 4670.0;2-(3,4-Epoxycyclohexyl)ethyltrimethosilane;2-(3,4-Epoxyhexyl)ethyltrimethoxysilane;E 0327;CG 186;AC 67;TCI-E 0327;B 86;CG-O 186;CyEpoTMS;2-(7-Oxabicyclo[4.1.0]hept-3-yl)ethyltrimethoxysilane",
    "duplicated_cas_no": "52682-88-9;155684-30-3;1203548-49-5;2104745-96-0",
    "SMILES": "[Si](CCC1CC2C(CC1)O2)(OC)(OC)OC",
    "meta_data": {
        "InChI": "InChI=1S/C11H22O4Si/c1-12-16(13-2,14-3)7-6-9-4-5-10-11(8-9)15-10/h9-11H,4-8H2,1-3H3",
        "InChIKey": null,
        "Canonical SMILES": "O(C)[Si](OC)(OC)CCC1CCC2OC2C1",
        "Molecular Formula": "C<sub>11</sub>H<sub>22</sub>O<sub>4</sub>Si",
        "Molecular Mass": "246.38",
        "Boiling Point": "95-97 °C @ Press: 0.25 Torr",
        "Density": "1.065 g/cm³"
    }
}