{
    "cas_no": "15933-59-2",
    "key_name": "Tetramethyldisilazane",
    "cn_name": "四甲基二硅氮烷;1,1,3,3-四甲基二硅氮烷;",
    "alternate_name": "Silanamine, <em>N</em>-(dimethylsilyl)-1,1-dimethyl-;Disilazane, 1,1,3,3-tetramethyl-;<em>N</em>-(Dimethylsilyl)-1,1-dimethylsilanamine;Tetramethyldisilazane;1,1,3,3-Tetramethyldisilazane;Bis(dimethylsilyl)amine;1,3-Dihydrido-1,1,3,3-tetramethyldisilazane;TMDS;NSC 139849;LS 7050;[(Dimethylsilylamino)-methylsilyl]methane",
    "duplicated_cas_no": "",
    "SMILES": "N([SiH](C)C)[SiH](C)C",
    "meta_data": {
        "InChI": "InChI=1S/C4H15NSi2/c1-6(2)5-7(3)4/h5-7H,1-4H3",
        "InChIKey": null,
        "Canonical SMILES": "N([SiH](C)C)[SiH](C)C",
        "Molecular Formula": "C<sub>4</sub>H<sub>15</sub>NSi<sub>2</sub>",
        "Molecular Mass": "133.34",
        "Boiling Point": "99-100 °C",
        "Density": "0.766 g/cm³"
    }
}