{
    "cas_no": "10487-71-5",
    "key_name": "2-Butenoyl chloride",
    "cn_name": "巴豆酰氯;2-丁烯酸酰氯;反-丁烯酰氯;",
    "alternate_name": "2-Butenoyl chloride;Crotonoyl chloride;Crotonic acid chloride;β-Methylacryloyl chloride",
    "duplicated_cas_no": "",
    "SMILES": "C(C(Cl)=O)=CC",
    "meta_data": {
        "InChI": "InChI=1S/C4H5ClO/c1-2-3-4(5)6/h2-3H,1H3",
        "InChIKey": null,
        "Canonical SMILES": "O=C(Cl)C=CC",
        "Molecular Formula": "C<sub>4</sub>H<sub>5</sub>ClO",
        "Molecular Mass": "104.53",
        "Boiling Point": "124.5 °C",
        "Density": "1.0905 g/cm³ @ Temp: 20 °C"
    }
}