{
    "cas_no": "3282-73-3",
    "key_name": "Didodecyldimethylammonium bromide",
    "cn_name": "双十二烷基二甲基溴化铵;",
    "alternate_name": "1-Dodecanaminium, <em>N</em>-dodecyl-<em>N</em>,<em>N</em>-dimethyl-, bromide (1:1);Ammonium, didodecyldimethyl-, bromide;1-Dodecanaminium, <em>N</em>-dodecyl-<em>N</em>,<em>N</em>-dimethyl-, bromide;Didodecyldimethylammonium bromide;Dilauryldimethylammonium bromide;Dimethyldidodecylammonium bromide;Bis(dodecyl)dimethylammonium bromide;Dimethyldilaurylammonium bromide;Di-<em>n</em>-dodecyldimethylammonium bromide;Bis(<em>n</em>-dodecyl)dimethylammonium bromide;DDAB;DMAB;DDDMA",
    "duplicated_cas_no": "",
    "SMILES": "[N+](CCCCCCCCCCCC)(CCCCCCCCCCCC)(C)C.[Br-]",
    "meta_data": {
        "InChI": "InChI=1S/C26H56N.BrH/c1-5-7-9-11-13-15-17-19-21-23-25-27(3,4)26-24-22-20-18-16-14-12-10-8-6-2;/h5-26H2,1-4H3;1H/q+1;/p-1",
        "InChIKey": null,
        "Canonical SMILES": "[Br-].CCCCCCCCCCCC[N+](C)(C)CCCCCCCCCCCC",
        "Molecular Formula": "C<sub>26</sub>H<sub>56</sub>N.Br",
        "Molecular Mass": "",
        "Melting Point": "54-55 °C",
        "Density": "0.946 g/cm³"
    }
}