{
    "cas_no": "54321-80-1",
    "key_name": "3-Bromo-5-nitrobenzamide",
    "cn_name": null,
    "alternate_name": "Benzamide, 3-bromo-5-nitro-;3-Bromo-5-nitrobenzamide",
    "duplicated_cas_no": "",
    "SMILES": "C(N)(=O)C1=CC(N(=O)=O)=CC(Br)=C1",
    "meta_data": {
        "InChI": "InChI=1S/C7H5BrN2O3/c8-5-1-4(7(9)11)2-6(3-5)10(12)13/h1-3H,(H2,9,11)",
        "InChIKey": null,
        "Canonical SMILES": "O=C(N)C1=CC(Br)=CC(=C1)N(=O)=O",
        "Molecular Formula": "C<sub>7</sub>H<sub>5</sub>BrN<sub>2</sub>O<sub>3</sub>",
        "Molecular Mass": "245.03",
        "Melting Point": "189-191 °C"
    }
}