{
    "cas_no": "577-71-9",
    "key_name": "3,4-Dinitrophenol",
    "cn_name": "3,4-二硝基苯酚;",
    "alternate_name": "Phenol, 3,4-dinitro-;3,4-Dinitrophenol;Phenol, δ-dinitro-;3,4-DNP",
    "duplicated_cas_no": "",
    "SMILES": "N(=O)(=O)C1=C(N(=O)=O)C=C(O)C=C1",
    "meta_data": {
        "InChI": "InChI=1S/C6H4N2O5/c9-4-1-2-5(7(10)11)6(3-4)8(12)13/h1-3,9H",
        "InChIKey": null,
        "Canonical SMILES": "O=N(=O)C1=CC=C(O)C=C1N(=O)=O",
        "Molecular Formula": "C<sub>6</sub>H<sub>4</sub>N<sub>2</sub>O<sub>5</sub>",
        "Molecular Mass": "184.11",
        "Melting Point": "134 °C"
    }
}