{
    "cas_no": "588-63-6",
    "key_name": "(3-Bromopropoxy)benzene",
    "cn_name": "3-苯氧基溴丙烷;3-溴丙基苯基醚;",
    "alternate_name": "Benzene, (3-bromopropoxy)-;Ether, 3-bromopropyl phenyl;(3-Bromopropoxy)benzene;γ-Phenoxypropyl bromide;3-Phenoxypropyl bromide;3-Bromopropyl phenyl ether;1-Bromo-3-phenoxypropane;3-Bromo-1-phenoxypropane;3-Phenoxy-1-bromopropane;NSC 2641",
    "duplicated_cas_no": "",
    "SMILES": "O(CCCBr)C1=CC=CC=C1",
    "meta_data": {
        "InChI": "InChI=1S/C9H11BrO/c10-7-4-8-11-9-5-2-1-3-6-9/h1-3,5-6H,4,7-8H2",
        "InChIKey": null,
        "Canonical SMILES": "BrCCCOC=1C=CC=CC1",
        "Molecular Formula": "C<sub>9</sub>H<sub>11</sub>BrO",
        "Molecular Mass": "215.09",
        "Boiling Point": "136-142 °C @ Press: 20 Torr",
        "Melting Point": "10.7 °C"
    }
}