{
    "cas_no": "1300-21-6",
    "key_name": "Dichloroethane",
    "cn_name": null,
    "alternate_name": "Ethane, dichloro-;Dichloroethane;R 150A;PS 400-5",
    "duplicated_cas_no": "",
    "SMILES": "",
    "meta_data": {
        "InChI": "",
        "InChIKey": null,
        "Canonical SMILES": "",
        "Molecular Formula": "C<sub>2</sub>H<sub>4</sub>Cl<sub>2</sub>",
        "Molecular Mass": "",
        "Boiling Point": "82-84 °C",
        "Density": "1.2521 g/cm³ @ Temp: 204 °C"
    }
}