{
    "cas_no": "5213-49-0",
    "key_name": "2,4-Dinitroimidazole",
    "cn_name": null,
    "alternate_name": "1<em>H</em>-Imidazole, 2,5-dinitro-;Imidazole, 2,4-dinitro-;1<em>H</em>-Imidazole, 2,4-dinitro-;Imidazole, 2,4(<em>or</em> 2,5)-dinitro-;2,5-Dinitro-1<em>H</em>-imidazole;2,4-Dinitroimidazole;KA 121;2,5-Dinitroimidazole;2,4(5)-Dinitroimidazole;NSC 342704;2,4-Dinitro-1<em>H</em>-imidazole;2,4-Dinitro-3<em>H</em>-imidazole",
    "duplicated_cas_no": "",
    "SMILES": "N(=O)(=O)C=1NC(N(=O)=O)=NC1",
    "meta_data": {
        "InChI": "InChI=1S/C3H2N4O4/c8-6(9)2-1-4-3(5-2)7(10)11/h1H,(H,4,5)",
        "InChIKey": null,
        "Canonical SMILES": "O=N(=O)C1=NC=C(N1)N(=O)=O",
        "Molecular Formula": "C<sub>3</sub>H<sub>2</sub>N<sub>4</sub>O<sub>4</sub>",
        "Molecular Mass": "158.07",
        "Melting Point": "271-271.5 °C",
        "Density": "1.6385 g/cm³"
    }
}