{
    "cas_no": "1116-40-1",
    "key_name": "Triisobutylamine",
    "cn_name": "三异丁胺;",
    "alternate_name": "1-Propanamine, 2-methyl-<em>N</em>,<em>N</em>-bis(2-methylpropyl)-;Triisobutylamine;2-Methyl-<em>N</em>,<em>N</em>-bis(2-methylpropyl)-1-propanamine",
    "duplicated_cas_no": "",
    "SMILES": "N(CC(C)C)(CC(C)C)CC(C)C",
    "meta_data": {
        "InChI": "InChI=1S/C12H27N/c1-10(2)7-13(8-11(3)4)9-12(5)6/h10-12H,7-9H2,1-6H3",
        "InChIKey": null,
        "Canonical SMILES": "N(CC(C)C)(CC(C)C)CC(C)C",
        "Molecular Formula": "C<sub>12</sub>H<sub>27</sub>N",
        "Molecular Mass": "185.35",
        "Boiling Point": "191.5 °C",
        "Melting Point": "-21.8 °C"
    }
}