{
    "cas_no": "2519-61-1",
    "key_name": "4-Chloroindole-3-acetic acid",
    "cn_name": "4-氯吲哚-3-乙酸;",
    "alternate_name": "1<em>H</em>-Indole-3-acetic acid, 4-chloro-;Indole-3-acetic acid, 4-chloro-;4-Chloro-1<em>H</em>-indole-3-acetic acid;4-Chloroindole-3-acetic acid;4-Chloroindolyl-3-acetic acid;4-Chloro-IAA;4-Chloroindoleacetic acid;NSC 295294;2-(4-Chloro-1<em>H</em>-indol-3-yl)acetic acid",
    "duplicated_cas_no": "",
    "SMILES": "C(C(O)=O)C=1C=2C(NC1)=CC=CC2Cl",
    "meta_data": {
        "InChI": "InChI=1S/C10H8ClNO2/c11-7-2-1-3-8-10(7)6(5-12-8)4-9(13)14/h1-3,5,12H,4H2,(H,13,14)",
        "InChIKey": null,
        "Canonical SMILES": "O=C(O)CC1=CNC=2C=CC=C(Cl)C21",
        "Molecular Formula": "C<sub>10</sub>H<sub>8</sub>ClNO<sub>2</sub>",
        "Molecular Mass": "209.63",
        "Melting Point": "184-187 °C (decomp)"
    }
}