{
    "cas_no": "892-21-7",
    "key_name": "3-Nitrofluoranthene",
    "cn_name": "3-硝基荧蒽;",
    "alternate_name": "Fluoranthene, 3-nitro-;3-Nitrofluoranthene;4-Nitrofluoranthene;NSC 57468",
    "duplicated_cas_no": "",
    "SMILES": "N(=O)(=O)C1=C2C3=C(C=4C(C3=CC=C2)=CC=CC4)C=C1",
    "meta_data": {
        "InChI": "InChI=1S/C16H9NO2/c18-17(19)15-9-8-13-11-5-2-1-4-10(11)12-6-3-7-14(15)16(12)13/h1-9H",
        "InChIKey": null,
        "Canonical SMILES": "O=N(=O)C1=CC=C2C3=CC=CC=C3C4=CC=CC1=C42",
        "Molecular Formula": "C<sub>16</sub>H<sub>9</sub>NO<sub>2</sub>",
        "Molecular Mass": "247.25",
        "Melting Point": "162-168 °C (decomp)"
    }
}