{
    "cas_no": "122-32-7",
    "key_name": "Triolein",
    "cn_name": "甘油三油酸酯;三油酸甘油酯;",
    "alternate_name": "9-Octadecenoic acid (9<em>Z</em>)-, 1,1′,1′′-(1,2,3-propanetriyl) ester;Olein, tri-;9-Octadecenoic acid (<em>Z</em>)-, 1,2,3-propanetriyl ester;9-Octadecenoic acid (9<em>Z</em>)-, 1,2,3-propanetriyl ester;Emery oleic acid ester 2230;Glycerol trioleate;Glyceryl trioleate;Raoline;Triolein;Oleic acid triglyceride;Trioleoylglycerol;Aldo TO;Emery 2423;Oleyl triglyceride;Glycerin trioleate;Glycerol triolein;Glyceryl-1,2,3-trioleate;Trioleoylglyceride;Oleic triglyceride;Estol 1433;<em>sn</em>-Glyceryl trioleate;Emerest 2423;Triglyceride OOO;Kemester 1000;Actor LO 1;Kaolube 190;Edenor NHTi-G;Radia 7363;OOO triacylglycerol;Palmester 4010;Actor OL 1;MeSH ID: D014304",
    "duplicated_cas_no": "24016-60-2;41755-78-6;124330-00-3;1352879-45-8;2679783-79-8",
    "SMILES": "C(OC(CCCCCCC/C=C\\CCCCCCCC)=O)(COC(CCCCCCC/C=C\\CCCCCCCC)=O)COC(CCCCCCC/C=C\\CCCCCCCC)=O",
    "meta_data": {
        "InChI": "InChI=1S/C57H104O6/c1-4-7-10-13-16-19-22-25-28-31-34-37-40-43-46-49-55(58)61-52-54(63-57(60)51-48-45-42-39-36-33-30-27-24-21-18-15-12-9-6-3)53-62-56(59)50-47-44-41-38-35-32-29-26-23-20-17-14-11-8-5-2/h25-30,54H,4-24,31-53H2,1-3H3/b28-25-,29-26-,30-27-",
        "InChIKey": null,
        "Canonical SMILES": "O=C(OCC(OC(=O)CCCCCCCC=CCCCCCCCC)COC(=O)CCCCCCCC=CCCCCCCCC)CCCCCCCC=CCCCCCCCC",
        "Molecular Formula": "C<sub>57</sub>H<sub>104</sub>O<sub>6</sub>",
        "Molecular Mass": "885.43",
        "Boiling Point": "235-240 °C @ Press: 15 Torr",
        "Melting Point": "~5.5 °C (approx)",
        "Density": "0.915 g/cm³ @ Temp: 15 °C"
    }
}