{
    "cas_no": "52-86-8",
    "key_name": "Haloperidol",
    "cn_name": "氟哌啶醇;1-(4-氟苯基)-4-[4-(4-氯苯基)-4-羟基-1-哌啶基]-1-丁酮;",
    "alternate_name": "1-Butanone, 4-[4-(4-chlorophenyl)-4-hydroxy-1-piperidinyl]-1-(4-fluorophenyl)-;Butyrophenone, 4-[4-(<em>p</em>-chlorophenyl)-4-hydroxypiperidino]-4′-fluoro-;4-(4-(4-Chlorophenyl)-4-hydroxy-1-piperidinyl)-1-(4-fluorophenyl)-1-butanone;R 1625;4-[4-(<em>p</em>-Chlorophenyl)-4-hydroxypiperidino]-4′-fluorobutyrophenone;γ-[4-(<em>p</em>-Chlorphenyl)-4-hydroxypiperidino]-<em>p</em>-fluorbutyrophenone;1-(3-<em>p</em>-Fluorobenzoylpropyl)-4-<em>p</em>-chlorophenyl-4-hydroxypiperidine;Haldol;Haloperidol;4-(4-Hydroxy-4′-chloro-4-phenylpiperidino)-4′-fluorobutyrophenone;Serenase;Serenace;Aloperidin;Serenelfi;Haloperin;Neurodol;Eukystol;Dozic;Peluces;Einalon S;Keselan;Sigaperidol;Brotopon;Halosten;Linton;Bioperidolo;McN-JR 1625;NSC 170973;NSC 615296;MeSH ID: D006220",
    "duplicated_cas_no": "",
    "SMILES": "OC1(C2=CC=C(Cl)C=C2)CCN(CCCC(=O)C3=CC=C(F)C=C3)CC1",
    "meta_data": {
        "InChI": "InChI=1S/C21H23ClFNO2/c22-18-7-5-17(6-8-18)21(26)11-14-24(15-12-21)13-1-2-20(25)16-3-9-19(23)10-4-16/h3-10,26H,1-2,11-15H2",
        "InChIKey": null,
        "Canonical SMILES": "O=C(C1=CC=C(F)C=C1)CCCN2CCC(O)(C3=CC=C(Cl)C=C3)CC2",
        "Molecular Formula": "C<sub>21</sub>H<sub>23</sub>ClFNO<sub>2</sub>",
        "Molecular Mass": "375.86",
        "Melting Point": "151.5 °C"
    }
}