{
    "cas_no": "6640-24-0",
    "key_name": "1-(3-Chlorophenyl)piperazine",
    "cn_name": "1-(3-氯苯基)哌嗪;",
    "alternate_name": "Piperazine, 1-(3-chlorophenyl)-;Piperazine, 1-(<em>m</em>-chlorophenyl)-;1-(3-Chlorophenyl)piperazine;<em>N</em>-(<em>m</em>-Chlorophenyl)piperazine;<em>N</em>-(3-Chlorophenyl)piperazine;1-(<em>m</em>-Chlorophenyl)piperazine;4-(3-Chlorophenyl)piperazine;<em>m</em>-CPP;NSC 49307;mCPP;mCPP (pharmaceutical)",
    "duplicated_cas_no": "",
    "SMILES": "ClC=1C=C(C=CC1)N2CCNCC2",
    "meta_data": {
        "InChI": "InChI=1S/C10H13ClN2/c11-9-2-1-3-10(8-9)13-6-4-12-5-7-13/h1-3,8,12H,4-7H2",
        "InChIKey": null,
        "Canonical SMILES": "ClC1=CC=CC(=C1)N2CCNCC2",
        "Molecular Formula": "C<sub>10</sub>H<sub>13</sub>ClN<sub>2</sub>",
        "Molecular Mass": "196.68",
        "Melting Point": "235-238 °C"
    }
}