{
    "cas_no": "2207-01-4",
    "key_name": "<em>cis</em>-1,2-Dimethylcyclohexane",
    "cn_name": null,
    "alternate_name": "Cyclohexane, 1,2-dimethyl-, (1<em>R</em>,2<em>S</em>)-<em>rel</em>-;Cyclohexane, 1,2-dimethyl-, <em>cis</em>-;<em>rel</em>-(1<em>R</em>,2<em>S</em>)-1,2-Dimethylcyclohexane;<em>cis</em>-1,2-Dimethylcyclohexane;1-<em>cis</em>-2-Dimethylcyclohexane;1,2-<em>cis</em>-Dimethylcyclohexane;NSC 74157",
    "duplicated_cas_no": "",
    "SMILES": "C[C@H]1[C@@H](C)CCCC1",
    "meta_data": {
        "InChI": "InChI=1/C8H16/c1-7-5-3-4-6-8(7)2/h7-8H,3-6H2,1-2H3/t7-,8+",
        "InChIKey": null,
        "Canonical SMILES": "CC1CCCCC1C",
        "Molecular Formula": "C<sub>8</sub>H<sub>16</sub>",
        "Molecular Mass": "112.21",
        "Boiling Point": "129.8 °C",
        "Melting Point": "-49.9 °C",
        "Density": "0.786 g/cm³ @ Temp: 20 °C"
    }
}