{
    "cas_no": "4799-68-2",
    "key_name": "3-(Benzyloxy)-1-propanol",
    "cn_name": "3-苄氧基-1-丙醇;",
    "alternate_name": "1-Propanol, 3-(phenylmethoxy)-;1-Propanol, 3-(benzyloxy)-;3-(Phenylmethoxy)-1-propanol;1,3-Propanediol monobenzyl ether;3-(Benzyloxy)-1-propanol;1-(Benzyloxy)-3-propanol;3-Benzyloxypropanol;NSC 406922;3-[(Phenylmethyl)oxy]propan-1-ol",
    "duplicated_cas_no": "",
    "SMILES": "C(OCCCO)C1=CC=CC=C1",
    "meta_data": {
        "InChI": "InChI=1S/C10H14O2/c11-7-4-8-12-9-10-5-2-1-3-6-10/h1-3,5-6,11H,4,7-9H2",
        "InChIKey": null,
        "Canonical SMILES": "OCCCOCC=1C=CC=CC1",
        "Molecular Formula": "C<sub>10</sub>H<sub>14</sub>O<sub>2</sub>",
        "Molecular Mass": "166.22",
        "Boiling Point": "142 °C @ Press: 10 Torr",
        "Density": "1.0484 g/cm³ @ Temp: 18 °C"
    }
}