{
    "cas_no": "287193-07-1",
    "key_name": "Ethyl tetrahydro-4-oxo-2<em>H</em>-pyran-2-carboxylate",
    "cn_name": null,
    "alternate_name": "2<em>H</em>-Pyran-2-carboxylic acid, tetrahydro-4-oxo-, ethyl ester;Ethyl tetrahydro-4-oxo-2<em>H</em>-pyran-2-carboxylate;4-Oxotetrahydro-2<em>H</em>-pyran-2-carboxylic acid ethyl ester",
    "duplicated_cas_no": "",
    "SMILES": "C(OCC)(=O)C1CC(=O)CCO1",
    "meta_data": {
        "InChI": "InChI=1S/C8H12O4/c1-2-11-8(10)7-5-6(9)3-4-12-7/h7H,2-5H2,1H3",
        "InChIKey": null,
        "Canonical SMILES": "O=C(OCC)C1OCCC(=O)C1",
        "Molecular Formula": "C<sub>8</sub>H<sub>12</sub>O<sub>4</sub>",
        "Molecular Mass": "172.18",
        "Boiling Point": "84 °C @ Press: 0.04 Torr"
    }
}