{
    "cas_no": "753-89-9",
    "key_name": "1-Chloro-2,2-dimethylpropane",
    "cn_name": "氯化新戊烷;1-氯-2,2-二甲基丙烷;CH3)3CCH2Cl;",
    "alternate_name": "Propane, 1-chloro-2,2-dimethyl-;1-Chloro-2,2-dimethylpropane;Neopentyl chloride;2,2-Dimethylpropyl chloride;(Chloromethyl)trimethylmethane",
    "duplicated_cas_no": "",
    "SMILES": "C(CCl)(C)(C)C",
    "meta_data": {
        "InChI": "InChI=1S/C5H11Cl/c1-5(2,3)4-6/h4H2,1-3H3",
        "InChIKey": null,
        "Canonical SMILES": "ClCC(C)(C)C",
        "Molecular Formula": "C<sub>5</sub>H<sub>11</sub>Cl",
        "Molecular Mass": "106.59",
        "Boiling Point": "84.3 °C",
        "Melting Point": "-20 °C",
        "Density": "0.8659 g/cm³ @ Temp: 20 °C"
    }
}