{
    "cas_no": "7205-80-3",
    "key_name": "1-Chloro-4-(ethylsulfonyl)benzene",
    "cn_name": null,
    "alternate_name": "Benzene, 1-chloro-4-(ethylsulfonyl)-;Sulfone, <em>p</em>-chlorophenyl ethyl;1-Chloro-4-(ethylsulfonyl)benzene;<em>p</em>-Chlorophenyl ethyl sulfone;4-Chlorophenyl ethyl sulfone;1-Chloro-4-ethanesulfonyl-benzene",
    "duplicated_cas_no": "",
    "SMILES": "S(CC)(=O)(=O)C1=CC=C(Cl)C=C1",
    "meta_data": {
        "InChI": "InChI=1S/C8H9ClO2S/c1-2-12(10,11)8-5-3-7(9)4-6-8/h3-6H,2H2,1H3",
        "InChIKey": null,
        "Canonical SMILES": "O=S(=O)(C1=CC=C(Cl)C=C1)CC",
        "Molecular Formula": "C<sub>8</sub>H<sub>9</sub>ClO<sub>2</sub>S",
        "Molecular Mass": "204.67",
        "Boiling Point": "95-97 °C @ Press: 3 Torr",
        "Melting Point": "43 °C",
        "Density": "1.1688 g/cm³ @ Temp: 20 °C"
    }
}