{
    "cas_no": "32864-38-3",
    "key_name": "1-(1,1-Dimethylethyl) 3-ethyl propanedioate",
    "cn_name": "丙二酸乙酯叔丁酯;丙二酸叔丁基乙酯;",
    "alternate_name": "Propanedioic acid, 1-(1,1-dimethylethyl) 3-ethyl ester;Malonic acid, <em>tert</em>-butyl ethyl ester;Propanedioic acid, 1,1-dimethylethyl ethyl ester;1-(1,1-Dimethylethyl) 3-ethyl propanedioate;<em>tert</em>-Butyl ethyl malonate;Ethyl <em>tert</em>-butyl malonate;NSC 69070;Ethyl (2-<em>tert</em>-butoxycarbonyl)acetate;Ethyl 3-(<em>tert</em>-butoxy)-3-oxopropanoate;Ethyl tert-butyl malonate;<em>tert</em>-Butyl ethyl propanedioate;Malonic acid tert-butyl ethyl ester;1-<em>tert</em>-Butyl 3-ethyl propanedioate;3-<em>O</em>-<em>tert</em>-Butyl 1-<em>O</em>-ethyl propanedioate",
    "duplicated_cas_no": "",
    "SMILES": "C(C(OC(C)(C)C)=O)C(OCC)=O",
    "meta_data": {
        "InChI": "InChI=1S/C9H16O4/c1-5-12-7(10)6-8(11)13-9(2,3)4/h5-6H2,1-4H3",
        "InChIKey": null,
        "Canonical SMILES": "O=C(OCC)CC(=O)OC(C)(C)C",
        "Molecular Formula": "C<sub>9</sub>H<sub>16</sub>O<sub>4</sub>",
        "Molecular Mass": "188.22",
        "Boiling Point": "93-95 °C @ Press: 17 Torr"
    }
}