{
    "cas_no": "124-64-1",
    "key_name": "Tetrakis(hydroxymethyl)phosphonium chloride",
    "cn_name": "四羟甲基氯化磷;",
    "alternate_name": "Phosphonium, tetrakis(hydroxymethyl)-, chloride (1:1);Phosphonium, tetrakis(hydroxymethyl)-, chloride;Tetrakis(hydroxymethyl)phosphonium chloride;THPC;Tetramethylolphosphonium chloride;Tetrakis(hydroxymethyl)phosphochloride;Tetrahydroxymethylphosphonium chloride;Pyroset TKC;NSC 30698;T 0670",
    "duplicated_cas_no": "2245-60-5;2250282-25-6",
    "SMILES": "[P+](CO)(CO)(CO)CO.[Cl-]",
    "meta_data": {
        "InChI": "InChI=1S/C4H12O4P.ClH/c5-1-9(2-6,3-7)4-8;/h5-8H,1-4H2;1H/q+1;/p-1",
        "InChIKey": null,
        "Canonical SMILES": "[Cl-].OC[P+](CO)(CO)CO",
        "Molecular Formula": "C<sub>4</sub>H<sub>12</sub>O<sub>4</sub>P.Cl",
        "Molecular Mass": "",
        "Melting Point": "154 °C",
        "Density": "1.341 g/cm³"
    }
}