{
    "cas_no": "107-07-3",
    "key_name": "2-Chloroethanol",
    "cn_name": "2-氯乙醇;",
    "alternate_name": "Ethanol, 2-chloro-;2-Chloroethanol;β-Chloroethyl alcohol;2-Chloroethyl alcohol;Ethylene chlorhydrin;Ethylene chlorohydrin;Glycol monochlorohydrin;Ethylchlorohydrin;β-Chloroethanol;Chloroethanol;β-Hydroxyethyl chloride;2-Chloro-1-ethanol;2-Hydroxyethyl chloride;Ethene chlorohydrin;Glycol chlorohydrin;2-Chloro-1-hydroxyethane;1-Chloro-2-hydroxyethane;NSC 122289;MeSH ID: D005023",
    "duplicated_cas_no": "1867-09-0;1253945-55-9",
    "SMILES": "C(CO)Cl",
    "meta_data": {
        "InChI": "InChI=1S/C2H5ClO/c3-1-2-4/h4H,1-2H2",
        "InChIKey": null,
        "Canonical SMILES": "ClCCO",
        "Molecular Formula": "C<sub>2</sub>H<sub>5</sub>ClO",
        "Molecular Mass": "80.51",
        "Boiling Point": "128-130 °C @ Press: 760 Torr",
        "Melting Point": "-67.5 °C",
        "Density": "1.197 g/cm³ @ Temp: 20 °C"
    }
}