{
    "cas_no": "881677-11-8",
    "key_name": "5-(2-Fluorophenyl)-1-(3-pyridinylsulfonyl)-1<em>H</em>-pyrrole-3-carboxaldehyde",
    "cn_name": null,
    "alternate_name": "1<em>H</em>-Pyrrole-3-carboxaldehyde, 5-(2-fluorophenyl)-1-(3-pyridinylsulfonyl)-;5-(2-Fluorophenyl)-1-(3-pyridinylsulfonyl)-1<em>H</em>-pyrrole-3-carboxaldehyde;5-(2-Fluorophenyl)-1-[(pyridin-3-yl)sulfonyl]-1<em>H</em>-pyrrole-3-carboxaldehyde",
    "duplicated_cas_no": "",
    "SMILES": "S(=O)(=O)(N1C(=CC(C=O)=C1)C2=C(F)C=CC=C2)C=3C=CC=NC3",
    "meta_data": {
        "InChI": "InChI=1S/C16H11FN2O3S/c17-15-6-2-1-5-14(15)16-8-12(11-20)10-19(16)23(21,22)13-4-3-7-18-9-13/h1-11H",
        "InChIKey": null,
        "Canonical SMILES": "O=CC=1C=C(C=2C=CC=CC2F)N(C1)S(=O)(=O)C=3C=NC=CC3",
        "Molecular Formula": "C<sub>16</sub>H<sub>11</sub>FN<sub>2</sub>O<sub>3</sub>S",
        "Molecular Mass": "330.33",
        "Melting Point": "105-107 °C"
    }
}