{
    "cas_no": "5960-69-0",
    "key_name": "2-Acetylphenanthrene",
    "cn_name": null,
    "alternate_name": "Ethanone, 1-(2-phenanthrenyl)-;Ketone, methyl 2-phenanthryl;1-(2-Phenanthrenyl)ethanone;2-Acetylphenanthrene;Methyl 2-phenanthryl ketone;NSC 402640",
    "duplicated_cas_no": "",
    "SMILES": "C(C)(=O)C1=CC=2C(=C3C(=CC2)C=CC=C3)C=C1",
    "meta_data": {
        "InChI": "InChI=1S/C16H12O/c1-11(17)13-8-9-16-14(10-13)7-6-12-4-2-3-5-15(12)16/h2-10H,1H3",
        "InChIKey": null,
        "Canonical SMILES": "O=C(C=1C=CC2=C(C=CC=3C=CC=CC32)C1)C",
        "Molecular Formula": "C<sub>16</sub>H<sub>12</sub>O",
        "Molecular Mass": "220.27",
        "Boiling Point": "175-178 °C @ Press: 1.5 Torr",
        "Melting Point": "144 °C"
    }
}