{
    "cas_no": "1198-84-1",
    "key_name": "(±)-4-Hydroxymandelic acid",
    "cn_name": "4-羟基扁桃酸;对羟基扁桃酸;",
    "alternate_name": "Benzeneacetic acid, α,4-dihydroxy-;Mandelic acid, <em>p</em>-hydroxy-;α,4-Dihydroxybenzeneacetic acid;<em>p</em>-Hydroxymandelic acid;4-Hydroxymandelic acid;4-Hydroxyphenylglycolic acid;<em>p</em>-Hydroxyphenylglycolic acid;2-(4-Hydroxyphenyl)-2-hydroxyacetic acid;(±)-<em>p</em>-Hydroxymandelic acid;<span class=\"text-smallcaps\">DL</span>-<em>p</em>-Hydroxymandelic acid;<span class=\"text-smallcaps\">DL</span>-<em>p</em>-Hydroxyphenylglycolic acid;(±)-α,4-Dihydroxybenzeneacetic acid;(±)-4-Hydroxymandelic acid;4-Hydroxy-<span class=\"text-smallcaps\">DL</span>-mandelic acid;<span class=\"text-smallcaps\">DL</span>-4-Hydroxymandelic acid;(<em>RS</em>)-<em>p</em>-Hydroxymandelic acid;4′-Hydroxymandelic acid;2-(4′-Hydroxyphenyl)-2-hydroxyethanoic acid;2-Hydroxy-2-(4-hydroxyphenyl)acetic acid",
    "duplicated_cas_no": "7198-10-9",
    "SMILES": "C(C(O)=O)(O)C1=CC=C(O)C=C1",
    "meta_data": {
        "InChI": "InChI=1S/C8H8O4/c9-6-3-1-5(2-4-6)7(10)8(11)12/h1-4,7,9-10H,(H,11,12)",
        "InChIKey": null,
        "Canonical SMILES": "O=C(O)C(O)C1=CC=C(O)C=C1",
        "Molecular Formula": "C<sub>8</sub>H<sub>8</sub>O<sub>4</sub>",
        "Molecular Mass": "168.15",
        "Melting Point": "105-106 °C"
    }
}