{
    "cas_no": "375-80-4",
    "key_name": "1,6-Diiodoperfluorohexane",
    "cn_name": "1,6-二碘代十二氟己烷;",
    "alternate_name": "Hexane, 1,1,2,2,3,3,4,4,5,5,6,6-dodecafluoro-1,6-diiodo-;Hexane, dodecafluoro-1,6-diiodo-;1,1,2,2,3,3,4,4,5,5,6,6-Dodecafluoro-1,6-diiodohexane;1,6-Diiodoperfluorohexane;1,6-Diiodododecafluorohexane;Dodecafluoro-1,6-diiodohexane;α,ω-Diiodoperfluorohexane;1,6-Iododecafluorohexane",
    "duplicated_cas_no": "",
    "SMILES": "C(C(C(C(F)(F)I)(F)F)(F)F)(C(C(F)(F)I)(F)F)(F)F",
    "meta_data": {
        "InChI": "InChI=1S/C6F12I2/c7-1(8,3(11,12)5(15,16)19)2(9,10)4(13,14)6(17,18)20",
        "InChIKey": null,
        "Canonical SMILES": "FC(F)(I)C(F)(F)C(F)(F)C(F)(F)C(F)(F)C(F)(F)I",
        "Molecular Formula": "C<sub>6</sub>F<sub>12</sub>I<sub>2</sub>",
        "Molecular Mass": "553.85",
        "Boiling Point": "102 °C @ Press: 62 Torr",
        "Melting Point": "25 °C"
    }
}