{
    "cas_no": "2280-01-5",
    "key_name": "<em>N</em>-Acetyl-<span class=\"text-smallcaps\">D</span>-tryptophan",
    "cn_name": "N-乙酰-D-色氨酸;",
    "alternate_name": "<span class=\"text-smallcaps\">D</span>-Tryptophan, <em>N</em>-acetyl-;Tryptophan, <em>N</em>-acetyl-, <span class=\"text-smallcaps\">D</span>-;<em>N</em>-Acetyl-<span class=\"text-smallcaps\">D</span>-tryptophan;<em>N</em>-Acetyl-(<em>R</em>)-tryptophan;(<em>R</em>)-<em>N</em>-Acetyltryptophan;(2R)-2-Acetamido-3-(1<em>H</em>-indol-3-yl)propanoic acid",
    "duplicated_cas_no": "1369534-10-0",
    "SMILES": "C([C@@H](NC(C)=O)C(O)=O)C=1C=2C(NC1)=CC=CC2",
    "meta_data": {
        "InChI": "InChI=1S/C13H14N2O3/c1-8(16)15-12(13(17)18)6-9-7-14-11-5-3-2-4-10(9)11/h2-5,7,12,14H,6H2,1H3,(H,15,16)(H,17,18)/t12-/m1/s1",
        "InChIKey": null,
        "Canonical SMILES": "O=C(O)C(NC(=O)C)CC1=CNC=2C=CC=CC21",
        "Molecular Formula": "C<sub>13</sub>H<sub>14</sub>N<sub>2</sub>O<sub>3</sub>",
        "Molecular Mass": "246.26",
        "Melting Point": "180-181 °C"
    }
}