{
    "cas_no": "29427-58-5",
    "key_name": "Carbamimidic acid, methyl ester, sulfate (1:1)",
    "cn_name": null,
    "alternate_name": "Carbamimidic acid, methyl ester, sulfate (1:1);Pseudourea, 2-methyl-, sulfate (1:1);<em>O</em>-Methylpseudourea sulfate;<em>O</em>-Methylisouronium hydrogen sulfate;<em>O</em>-Methylisourea bisulfate;Methyl carbamimidate sulfate",
    "duplicated_cas_no": "",
    "SMILES": "S(=O)(=O)(O)O.C(OC)(=N)N",
    "meta_data": {
        "InChI": "InChI=1S/C2H6N2O.H2O4S/c1-5-2(3)4;1-5(2,3)4/h1H3,(H3,3,4);(H2,1,2,3,4)",
        "InChIKey": null,
        "Canonical SMILES": "O=S(=O)(O)O.N=C(OC)N",
        "Molecular Formula": "C<sub>2</sub>H<sub>6</sub>N<sub>2</sub>O.H<sub>2</sub>O<sub>4</sub>S",
        "Molecular Mass": "",
        "Melting Point": "116-119 °C"
    }
}