{
    "cas_no": "101-23-5",
    "key_name": "<em>N</em>-Phenyl-3-(trifluoromethyl)benzenamine",
    "cn_name": null,
    "alternate_name": "Benzenamine, <em>N</em>-phenyl-3-(trifluoromethyl)-;<em>m</em>-Toluidine, α,α,α-trifluoro-<em>N</em>-phenyl-;<em>N</em>-Phenyl-3-(trifluoromethyl)benzenamine;α,α,α-Trifluoro-<em>N</em>-phenyl-<em>m</em>-toluidine;<em>m</em>-Trifluoromethyldiphenylamine;3-(Trifluoromethyl)diphenylamine;Phenyl(<em>m</em>-trifluoromethylphenyl)amine;NSC 50453;<em>N</em>-Phenyl-3-(trifluoromethyl)aniline;<em>N</em>-(3-Trifluoromethylphenyl)-<em>N</em>-phenylamine;3-(Trifluoromethyl)-<em>N</em>-phenylaniline",
    "duplicated_cas_no": "",
    "SMILES": "N(C1=CC(C(F)(F)F)=CC=C1)C2=CC=CC=C2",
    "meta_data": {
        "InChI": "InChI=1S/C13H10F3N/c14-13(15,16)10-5-4-8-12(9-10)17-11-6-2-1-3-7-11/h1-9,17H",
        "InChIKey": null,
        "Canonical SMILES": "FC(F)(F)C=1C=CC=C(C1)NC=2C=CC=CC2",
        "Molecular Formula": "C<sub>13</sub>H<sub>10</sub>F<sub>3</sub>N",
        "Molecular Mass": "237.22",
        "Boiling Point": "108-110 °C @ Press: 0.3 Torr"
    }
}