{
    "cas_no": "138261-41-3",
    "key_name": "Imidacloprid",
    "cn_name": null,
    "alternate_name": "2-Imidazolidinimine, 1-[(6-chloro-3-pyridinyl)methyl]-<em>N</em>-nitro-, (2<em>E</em>)-;(2<em>E</em>)-1-[(6-Chloro-3-pyridinyl)methyl]-<em>N</em>-nitro-2-imidazolidinimine;BAY-NTN 33893;Merit;Imidacloprid;NTN 33893;1-[(6-Chloro-3-pyridinyl)methyl]-<em>N</em>-nitro-2-imidazolidinimine;Gaucho;Confidor 200SL;Confidor;Admire;Provado;Merit (insecticide);Confidor SL;CP 1;NTN 33893-240FS;Advantage Flea Adulticide;1-[(6-Chloro-3-pyridinyl)methyl]-4,5-dihydro-<em>N</em>-nitro-1<em>H</em>-imidazol-2-amine;Premise;Meritgreen;Hachikusan;1-(2-Chloro-5-pyridylmethyl)-2-(<em>N</em>-nitroimino)imidazolidine;Baimieshi;Prescribe;Trimax;Trimax (pesticide);Pro-Agro;Imicide;Admire 2F;Premis;Premise (insecticide);Gaucho Grande;Genesis;Marathon II;Preventol TM;Grubex;Bayer Advanced Season-Long Grub control;AGST 03001;Genesis (pesticide);Rinfidor;Comodor;Admire Pro;Quick-Bayt;Marathon;Marathon (insecticide);Trimax Pro;NUP 06024;Nuprid;NUP 06023;Alias 2F;AEF 106464;Couraze;Mallet 2F;Pasada;Confidate;Alias;NUQ 05054;Widow;Macho Max;Torrent;Advise;CoreTect;1-(6-Chloro-3-pyridylmethyl)-<em>N</em>-nitroimidazolidin-2-ylideneamine;AE-F 106464-00GR01B0;Couraze Max;Senator;Confidor 240 O-TEQ;Confidor 200 O-TEQ;Timbertreat N 98;Senator (neonicotinoid);Jade;Gaucho 600FS;Kohinor;Confidor 70WG;Biunik 200SL;Provado 2F;Tanrec;Lada;Lada (insecticide);Kumiai Admire;Enforce (pesticide);Enforce;Yashijing;Confidor 100SL;Confidor 350SC;Acceleron IX 409;Merit 2F;Biotlin;Merit 75WP;1-[(6-Chloro-3-pyridyl)methyl]-<em>N</em>-nitro-2-imidazolidineimine;Imidamex;Imida Nova 60;TM 0314;Suscon Maxi;Senator WG;IX 104;Confidence 555;Permatek IM 30;Velcloprid 200SC;STartUP IMIDA",
    "duplicated_cas_no": "936094-08-5;937701-26-3;1223531-53-0;1258963-04-0;1395144-24-7",
    "SMILES": "C(N1\\C(=N\\N(=O)=O)\\NCC1)C=2C=CC(Cl)=NC2",
    "meta_data": {
        "InChI": "InChI=1S/C9H10ClN5O2/c10-8-2-1-7(5-12-8)6-14-4-3-11-9(14)13-15(16)17/h1-2,5H,3-4,6H2,(H,11,13)",
        "InChIKey": null,
        "Canonical SMILES": "O=N(=O)N=C1NCCN1CC2=CN=C(Cl)C=C2",
        "Molecular Formula": "C<sub>9</sub>H<sub>10</sub>ClN<sub>5</sub>O<sub>2</sub>",
        "Molecular Mass": "255.66",
        "Melting Point": "144 °C"
    }
}