{
    "cas_no": "38998-17-3",
    "key_name": "4-Methoxy-2,3-dimethylbenzaldehyde",
    "cn_name": "2,3-二甲基-4-甲氧基苯甲醛;",
    "alternate_name": "Benzaldehyde, 4-methoxy-2,3-dimethyl-;<em>p</em>-Anisaldehyde, 2,3-dimethyl-;4-Methoxy-2,3-dimethylbenzaldehyde;2,3-Dimethyl-4-methoxybenzaldehyde;2,3-Dimethyl-<em>p</em>-anisaldehyde",
    "duplicated_cas_no": "",
    "SMILES": "C(=O)C1=C(C)C(C)=C(OC)C=C1",
    "meta_data": {
        "InChI": "InChI=1S/C10H12O2/c1-7-8(2)10(12-3)5-4-9(7)6-11/h4-6H,1-3H3",
        "InChIKey": null,
        "Canonical SMILES": "O=CC1=CC=C(OC)C(=C1C)C",
        "Molecular Formula": "C<sub>10</sub>H<sub>12</sub>O<sub>2</sub>",
        "Molecular Mass": "164.20",
        "Boiling Point": "149-151 °C @ Press: 12 Torr",
        "Melting Point": "64 °C"
    }
}