{
    "cas_no": "938-96-5",
    "key_name": "2-(4-Hydroxyphenyl)propionic acid",
    "cn_name": "2-(4-羟基苯)丙酸;",
    "alternate_name": "Benzeneacetic acid, 4-hydroxy-α-methyl-;Hydratropic acid, <em>p</em>-hydroxy-;4-Hydroxy-α-methylbenzeneacetic acid;2-(<em>p</em>-Hydroxyphenyl)-propionic acid;2-(4-Hydroxyphenyl)propionic acid;2-(4-Hydroxyphenyl)propanoic acid;Methyl 4-hydroxyphenylacetic acid;2-(4′-Hydroxyphenyl)-propionic acid",
    "duplicated_cas_no": "94703-75-0",
    "SMILES": "C(C(O)=O)(C)C1=CC=C(O)C=C1",
    "meta_data": {
        "InChI": "InChI=1S/C9H10O3/c1-6(9(11)12)7-2-4-8(10)5-3-7/h2-6,10H,1H3,(H,11,12)",
        "InChIKey": null,
        "Canonical SMILES": "O=C(O)C(C1=CC=C(O)C=C1)C",
        "Molecular Formula": "C<sub>9</sub>H<sub>10</sub>O<sub>3</sub>",
        "Molecular Mass": "166.17",
        "Melting Point": "127-127.5 °C"
    }
}