{
    "cas_no": "141315-50-6",
    "key_name": "(α<em>S</em>)-α-Amino-2-chlorobenzeneacetic acid",
    "cn_name": "(S)-2-氯苯甘氨酸;L-(+)-邻氯苯甘氨酸;",
    "alternate_name": "Benzeneacetic acid, α-amino-2-chloro-, (α<em>S</em>)-;Benzeneacetic acid, α-amino-2-chloro-, (<em>S</em>)-;(α<em>S</em>)-α-Amino-2-chlorobenzeneacetic acid;<span class=\"text-smallcaps\">L</span>-(<em>o</em>-Chlorophenyl)glycine;(<em>S</em>)-2-Chlorophenylglycine;(<em>S</em>)-2-Amino-2-(2-chlorophenyl)aceticacid;(<em>S</em>)-2-Amino-2-(2-chlorophenyl)acetic acid;(2S)-2-Azaniumyl-2-(2-chlorophenyl)acetate",
    "duplicated_cas_no": "",
    "SMILES": "[C@H](C(O)=O)(N)C1=C(Cl)C=CC=C1",
    "meta_data": {
        "InChI": "InChI=1S/C8H8ClNO2/c9-6-4-2-1-3-5(6)7(10)8(11)12/h1-4,7H,10H2,(H,11,12)/t7-/m0/s1",
        "InChIKey": null,
        "Canonical SMILES": "O=C(O)C(N)C=1C=CC=CC1Cl",
        "Molecular Formula": "C<sub>8</sub>H<sub>8</sub>ClNO<sub>2</sub>",
        "Molecular Mass": "185.61",
        "Melting Point": "184.4-185.7 °C"
    }
}