{
    "cas_no": "598-31-2",
    "key_name": "1-Bromo-2-propanone",
    "cn_name": "溴丙酮; 1-溴丙酮; 1-溴-2-丙酮;",
    "alternate_name": "2-Propanone, 1-bromo-;2-Propanone, bromo-;1-Bromo-2-propanone;Bromoacetone;Acetonyl bromide;Acetylmethyl bromide;Monobromoacetone;Bromomethyl methyl ketone;α-Bromoacetone;α-Bromopropanone;1-Bromoacetone;1-Bromopropan-2-one",
    "duplicated_cas_no": "",
    "SMILES": "C(CBr)(C)=O",
    "meta_data": {
        "InChI": "InChI=1S/C3H5BrO/c1-3(5)2-4/h2H2,1H3",
        "InChIKey": null,
        "Canonical SMILES": "O=C(C)CBr",
        "Molecular Formula": "C<sub>3</sub>H<sub>5</sub>BrO",
        "Molecular Mass": "136.98",
        "Boiling Point": "63.5-64 °C @ Press: 50 Torr",
        "Melting Point": "-36.5 °C",
        "Density": "1.634 g/cm³ @ Temp: 23 °C"
    }
}