{
    "cas_no": "17156-65-9",
    "key_name": "1,1′-(Ethynylmethylsilylene)bis[benzene]",
    "cn_name": null,
    "alternate_name": "Benzene, 1,1′-(ethynylmethylsilylene)bis-;Silane, ethynylmethyldiphenyl-;1,1′-(Ethynylmethylsilylene)bis[benzene];Methyldiphenylsilylacetylene;Ethynyl(methyl)diphenylsilane",
    "duplicated_cas_no": "",
    "SMILES": "[Si](C#C)(C)(C1=CC=CC=C1)C2=CC=CC=C2",
    "meta_data": {
        "InChI": "InChI=1S/C15H14Si/c1-3-16(2,14-10-6-4-7-11-14)15-12-8-5-9-13-15/h1,4-13H,2H3",
        "InChIKey": null,
        "Canonical SMILES": "C#C[Si](C=1C=CC=CC1)(C=2C=CC=CC2)C",
        "Molecular Formula": "C<sub>15</sub>H<sub>14</sub>Si",
        "Molecular Mass": "222.36",
        "Boiling Point": "86 °C @ Press: 0.5 Torr",
        "Density": "1.01 g/cm³"
    }
}