{
    "cas_no": "51330-27-9",
    "key_name": "Soyasaponin I",
    "cn_name": null,
    "alternate_name": "β-<span class=\"text-smallcaps\">D</smallcap>-Glucopyranosiduronic acid, (3β,4β,22β)-22,23-dihydroxyolean-12-en-3-yl <em>O</em>-6-deoxy-α-<smallcap>L</smallcap>-mannopyranosyl-(1→2)-<em>O</em>-β-<smallcap>D</span>-galactopyranosyl-(1→2)-;(3β,4β,22β)-22,23-Dihydroxyolean-12-en-3-yl <em>O</em>-6-deoxy-α-<span class=\"text-smallcaps\">L</smallcap>-mannopyranosyl-(1→2)-<em>O</em>-β-<smallcap>D</smallcap>-galactopyranosyl-(1→2)-β-<smallcap>D</span>-glucopyranosiduronic acid;Soyasaponin I;SCM 3B;Soyasaponin Bb;Soyasaponin B-I;Soysaponin I",
    "duplicated_cas_no": "55366-25-1;868560-68-3;189220-80-2;220640-76-6",
    "SMILES": "C[C@]12[C@@]([C@]3(C)[C@@](CC1)([C@](CO)(C)[C@@H](O[C@H]4[C@H](O[C@H]5[C@H](O[C@H]6[C@H](O)[C@H](O)[C@@H](O)[C@H](C)O6)[C@@H](O)[C@@H](O)[C@@H](CO)O5)[C@@H](O)[C@H](O)[C@@H](C(O)=O)O4)CC3)[H])(CC=C7[C@@]2(C)CC[C@]8(C)[C@]7(CC(C)(C)C[C@H]8O)[H])[H]",
    "meta_data": {
        "InChI": "InChI=1S/C48H78O18/c1-21-29(52)31(54)35(58)40(61-21)65-37-32(55)30(53)24(19-49)62-41(37)66-38-34(57)33(56)36(39(59)60)64-42(38)63-28-12-13-45(5)25(46(28,6)20-50)11-14-48(8)26(45)10-9-22-23-17-43(2,3)18-27(51)44(23,4)15-16-47(22,48)7/h9,21,23-38,40-42,49-58H,10-20H2,1-8H3,(H,59,60)/t21-,23-,24+,25+,26+,27+,28-,29-,30-,31+,32-,33-,34-,35+,36-,37+,38+,40-,41-,42+,44+,45-,46+,47+,48+/m0/s1",
        "InChIKey": null,
        "Canonical SMILES": "O=C(O)C1OC(OC2CCC3(C)C(CCC4(C)C3CC=C5C6CC(C)(C)CC(O)C6(C)CCC54C)C2(C)CO)C(OC7OC(CO)C(O)C(O)C7OC8OC(C)C(O)C(O)C8O)C(O)C1O",
        "Molecular Formula": "C<sub>48</sub>H<sub>78</sub>O<sub>18</sub>",
        "Molecular Mass": "943.12",
        "Melting Point": "220-222 °C"
    }
}