{
    "cas_no": "1956-11-2",
    "key_name": "<em>p</em>-Nitrophenyl laurate",
    "cn_name": "对硝基苯基月桂酸酯;4-硝基苯基月桂酸酯;",
    "alternate_name": "Dodecanoic acid, 4-nitrophenyl ester;Lauric acid, <em>p</em>-nitrophenyl ester;<em>p</em>-Nitrophenol laurate;<em>p</em>-Nitrophenyl laurate;<em>p</em>-Nitrophenyl dodecanoate;4-Nitrophenyl dodecanoate;4-Nitrophenyl laurate;Lauric acid 4-nitrophenyl ester",
    "duplicated_cas_no": "",
    "SMILES": "O(C(CCCCCCCCCCC)=O)C1=CC=C(N(=O)=O)C=C1",
    "meta_data": {
        "InChI": "InChI=1S/C18H27NO4/c1-2-3-4-5-6-7-8-9-10-11-18(20)23-17-14-12-16(13-15-17)19(21)22/h12-15H,2-11H2,1H3",
        "InChIKey": null,
        "Canonical SMILES": "O=C(OC1=CC=C(C=C1)N(=O)=O)CCCCCCCCCCC",
        "Molecular Formula": "C<sub>18</sub>H<sub>27</sub>NO<sub>4</sub>",
        "Molecular Mass": "321.41",
        "Melting Point": "37.6 °C"
    }
}