{
    "cas_no": "6515-09-9",
    "key_name": "2,3,6-Trichloropyridine",
    "cn_name": "2,3,6-三氯吡啶;",
    "alternate_name": "Pyridine, 2,3,6-trichloro-;2,3,6-Trichloropyridine;2,5,6-Trichloropyridine",
    "duplicated_cas_no": "",
    "SMILES": "ClC1=C(Cl)C=CC(Cl)=N1",
    "meta_data": {
        "InChI": "InChI=1S/C5H2Cl3N/c6-3-1-2-4(7)9-5(3)8/h1-2H",
        "InChIKey": null,
        "Canonical SMILES": "ClC=1N=C(Cl)C(Cl)=CC1",
        "Molecular Formula": "C<sub>5</sub>H<sub>2</sub>Cl<sub>3</sub>N",
        "Molecular Mass": "182.44",
        "Melting Point": "66-67 °C"
    }
}