{
    "cas_no": "1885-35-4",
    "key_name": "3,4,5-Trimethoxybenzonitrile",
    "cn_name": "3,4,5-三甲氧基苯甲腈;",
    "alternate_name": "Benzonitrile, 3,4,5-trimethoxy-;3,4,5-Trimethoxybenzonitrile;3,4,5-Trimethoxybenzenecarbonitrile;NSC 408924",
    "duplicated_cas_no": "",
    "SMILES": "O(C)C1=C(OC)C=C(C#N)C=C1OC",
    "meta_data": {
        "InChI": "InChI=1S/C10H11NO3/c1-12-8-4-7(6-11)5-9(13-2)10(8)14-3/h4-5H,1-3H3",
        "InChIKey": null,
        "Canonical SMILES": "N#CC=1C=C(OC)C(OC)=C(OC)C1",
        "Molecular Formula": "C<sub>10</sub>H<sub>11</sub>NO<sub>3</sub>",
        "Molecular Mass": "193.20",
        "Melting Point": "91 °C"
    }
}