{
    "cas_no": "359-41-1",
    "key_name": "2-(Trifluoromethyl)oxirane",
    "cn_name": "1,1,1-三氟-2,3-环氧丙烷;3,3,3-三氟-1,2-环氧丙烷;",
    "alternate_name": "Oxirane, 2-(trifluoromethyl)-;Propane, 2,3-epoxy-1,1,1-trifluoro-;Oxirane, (trifluoromethyl)-;2-(Trifluoromethyl)oxirane;1,2-Epoxy-3,3,3-trifluoropropane;3,3,3-Trifluoro-1,2-epoxypropane;3,3,3-Trifluoropropene oxide;3,3,3-Trifluoropropene epoxide;3,3,3-Trifluoropropylene oxide;Trifluoromethyloxirane;1,1,1-Trifluoro-2,3-epoxypropane;2-Trifluoromethyloxirane;Trifluoroepoxypropane",
    "duplicated_cas_no": "",
    "SMILES": "C(F)(F)(F)C1CO1",
    "meta_data": {
        "InChI": "InChI=1S/C3H3F3O/c4-3(5,6)2-1-7-2/h2H,1H2",
        "InChIKey": null,
        "Canonical SMILES": "FC(F)(F)C1OC1",
        "Molecular Formula": "C<sub>3</sub>H<sub>3</sub>F<sub>3</sub>O",
        "Molecular Mass": "112.05",
        "Boiling Point": "39.1-39.3 °C @ Press: 748.3 Torr",
        "Density": "1.382 g/cm³ @ Temp: 20 °C"
    }
}