{
    "cas_no": "89-41-8",
    "key_name": "4-Methoxy-3-nitrobenzoic acid",
    "cn_name": "4-甲氧基-3-硝基苯甲酸;3-硝基-4-甲氧基苯甲酸;",
    "alternate_name": "Benzoic acid, 4-methoxy-3-nitro-;<em>p</em>-Anisic acid, 3-nitro-;4-Methoxy-3-nitrobenzoic acid;3-Nitro-<em>p</em>-anisic acid;3-Nitro-4-methoxybenzoic acid;NSC 29085",
    "duplicated_cas_no": "",
    "SMILES": "N(=O)(=O)C1=C(OC)C=CC(C(O)=O)=C1",
    "meta_data": {
        "InChI": "InChI=1S/C8H7NO5/c1-14-7-3-2-5(8(10)11)4-6(7)9(12)13/h2-4H,1H3,(H,10,11)",
        "InChIKey": null,
        "Canonical SMILES": "O=C(O)C1=CC=C(OC)C(=C1)N(=O)=O",
        "Molecular Formula": "C<sub>8</sub>H<sub>7</sub>NO<sub>5</sub>",
        "Molecular Mass": "197.14",
        "Melting Point": "190-191 °C"
    }
}