{
    "cas_no": "38945-21-0",
    "key_name": "<em>O</em>-Allylhydroxylamine hydrochloride",
    "cn_name": "O-烯丙基羟胺盐酸盐;O-(2-丙烯基)羟基胺盐酸盐;",
    "alternate_name": "Hydroxylamine, <em>O</em>-2-propenyl-, hydrochloride;(Allyloxy)amine hydrochloride;<em>O</em>-Allylhydroxylamine hydrochloride;<em>O</em>-2-Propenylhydroxylamine hydrochloride;3-(Aminooxy)prop-1-ene hydrochloride;2-Propenyloxyamine hydrochloride",
    "duplicated_cas_no": "",
    "SMILES": "C(C=C)ON.Cl",
    "meta_data": {
        "InChI": "InChI=1S/C3H7NO.ClH/c1-2-3-5-4;/h2H,1,3-4H2;1H",
        "InChIKey": null,
        "Canonical SMILES": "Cl.O(N)CC=C",
        "Molecular Formula": "C<sub>3</sub>H<sub>7</sub>NO.ClH",
        "Molecular Mass": "",
        "Melting Point": "172 °C (decomp)"
    }
}