{
    "cas_no": "7682-18-0",
    "key_name": "Butanoic acid, 2-amino-, methyl ester, hydrochloride (1:1)",
    "cn_name": "DL-2-氨基正丁酸甲酯盐酸盐;",
    "alternate_name": "Butanoic acid, 2-amino-, methyl ester, hydrochloride (1:1);Butyric acid, 2-amino-, methyl ester, hydrochloride, <span class=\"text-smallcaps\">DL</span>-;Butanoic acid, 2-amino-, methyl ester, hydrochloride, (±)-;Butanoic acid, 2-amino-, methyl ester, hydrochloride;Methyl <span class=\"text-smallcaps\">DL</span>-2-aminobutyrate hydrochloride;Methyl α-aminobutyrate hydrochloride;2-Aminobutyric acid methyl ester hydrochloride;<span class=\"text-smallcaps\">DL</span>-α-Aminobutyric acid methyl ester hydrochloride;Methyl 2-aminobutanoate hydrochloride;Methyl 2-aminobutyrate hydrochloride;<span class=\"text-smallcaps\">D</smallcap><smallcap>L</span>-Methyl 2-aminobutanoate hydrochloride",
    "duplicated_cas_no": "26815-92-9",
    "SMILES": "C(C(OC)=O)(CC)N.Cl",
    "meta_data": {
        "InChI": "InChI=1S/C5H11NO2.ClH/c1-3-4(6)5(7)8-2;/h4H,3,6H2,1-2H3;1H",
        "InChIKey": null,
        "Canonical SMILES": "Cl.O=C(OC)C(N)CC",
        "Molecular Formula": "C<sub>5</sub>H<sub>11</sub>NO<sub>2</sub>.ClH",
        "Molecular Mass": "",
        "Melting Point": "136-138 °C"
    }
}