{
    "cas_no": "13463-39-3",
    "key_name": "Nickel tetracarbonyl",
    "cn_name": "羰基镍;羰基镍;四羰基镍;四碳合镍;四羰化鎳;",
    "alternate_name": "Nickel carbonyl (Ni(CO)<sub>4</sub>), (<em>T</em>-4)-;Nickel carbonyl (Ni(CO)<sub>4</sub>);Nickel tetracarbonyl;Tetracarbonylnickel;Nickel carbonyl;Carbonyl nickel;Tetracarbonylnickel(0);PN-S 27;JCN 1-1",
    "duplicated_cas_no": "12612-55-4;13005-31-7;14875-95-7;36252-60-5;42126-46-5;71327-12-3;848779-18-0",
    "SMILES": "[Ni](C#O)(C#O)(C#O)C#O",
    "meta_data": {
        "InChI": "InChI=1S/4CO.Ni/c4*1-2;",
        "InChIKey": null,
        "Canonical SMILES": "O#C[Ni](C#O)(C#O)C#O",
        "Molecular Formula": "C<sub>4</sub>NiO<sub>4</sub>",
        "Molecular Mass": "",
        "Boiling Point": "43 °C",
        "Melting Point": "-19.3 °C",
        "Density": "1.318 g/cm³ @ Temp: 17 °C"
    }
}