{
    "cas_no": "2557-81-5",
    "key_name": "(<em>OC</em>-6-21)-Pentafluorophenylsulfur",
    "cn_name": null,
    "alternate_name": "Sulfur, pentafluorophenyl-, (<em>OC</em>-6-21)-;Sulfur, pentafluorophenyl-;Phenylsulfur pentafluoride;(<em>OC</em>-6-21)-Pentafluorophenylsulfur;Phenylsulfapentafluoride;Pentafluoro(phenyl)sulfur;Pentafluorothiobenzene;1-(Pentafluorosulfanyl)benzene;(Pentafluoro-λ6-sulfanyl)benzene",
    "duplicated_cas_no": "",
    "SMILES": "S(F)(F)(F)(F)(F)C1=CC=CC=C1",
    "meta_data": {
        "InChI": "InChI=1S/C6H5F5S/c7-12(8,9,10,11)6-4-2-1-3-5-6/h1-5H",
        "InChIKey": null,
        "Canonical SMILES": "FS(F)(F)(F)(F)C=1C=CC=CC1",
        "Molecular Formula": "C<sub>6</sub>H<sub>5</sub>F<sub>5</sub>S",
        "Molecular Mass": "204.16",
        "Boiling Point": "70-71 °C @ Press: 120 mmHg"
    }
}