{
    "cas_no": "60835-69-0",
    "key_name": "2,3,5,6,8,9,11,12-Octahydro-15-nitro-1,4,7,10,13-benzopentaoxacyclopentadecin",
    "cn_name": "4-硝基苯-15-冠-5;4-铌苯基15-5-乙基;4-硝基苯并15冠-5;",
    "alternate_name": "1,4,7,10,13-Benzopentaoxacyclopentadecin, 2,3,5,6,8,9,11,12-octahydro-15-nitro-;2,3,5,6,8,9,11,12-Octahydro-15-nitro-1,4,7,10,13-benzopentaoxacyclopentadecin;4-Nitrobenzo-15-crown-5;NSC 175879;15-Nitro-2,3,5,6,8,9,11,12-octahydro-1,4,7,10,13-benzopentaoxacyclopentadecine;17-Nitro-2,5,8,11,14-pentaoxabicyclo[13.4.0]nonadeca-1(15),16,18-triene;2-Nitro-6,7,9,10,12,13,15,16-octahydro-5,8,11,14,17-pentaoxa-benzocyclopentadecene",
    "duplicated_cas_no": "",
    "SMILES": "N(=O)(=O)C=1C=C2C(=CC1)OCCOCCOCCOCCO2",
    "meta_data": {
        "InChI": "InChI=1S/C14H19NO7/c16-15(17)12-1-2-13-14(11-12)22-10-8-20-6-4-18-3-5-19-7-9-21-13/h1-2,11H,3-10H2",
        "InChIKey": null,
        "Canonical SMILES": "O=N(=O)C1=CC=C2OCCOCCOCCOCCOC2=C1",
        "Molecular Formula": "C<sub>14</sub>H<sub>19</sub>NO<sub>7</sub>",
        "Molecular Mass": "313.30",
        "Melting Point": "94-96 °C"
    }
}