{
    "cas_no": "345-89-1",
    "key_name": "(4-Fluorophenyl)(4-methoxyphenyl)methanone",
    "cn_name": "4-氟-4\"-甲氧基二苯甲酮;",
    "alternate_name": "Methanone, (4-fluorophenyl)(4-methoxyphenyl)-;Benzophenone, 4-fluoro-4′-methoxy-;(4-Fluorophenyl)(4-methoxyphenyl)methanone;<em>p</em>-(4-Fluorobenzoyl)anisole;4,4′-Fluoromethoxybenzophenone;4-Fluoro-4′methoxybenzophenone",
    "duplicated_cas_no": "",
    "SMILES": "C(=O)(C1=CC=C(OC)C=C1)C2=CC=C(F)C=C2",
    "meta_data": {
        "InChI": "InChI=1S/C14H11FO2/c1-17-13-8-4-11(5-9-13)14(16)10-2-6-12(15)7-3-10/h2-9H,1H3",
        "InChIKey": null,
        "Canonical SMILES": "O=C(C1=CC=C(F)C=C1)C2=CC=C(OC)C=C2",
        "Molecular Formula": "C<sub>14</sub>H<sub>11</sub>FO<sub>2</sub>",
        "Molecular Mass": "230.23",
        "Boiling Point": "208-212 °C @ Press: 22 Torr",
        "Melting Point": "96.0-96.5 °C"
    }
}