{
    "cas_no": "77-21-4",
    "key_name": "(±)-Glutethimide",
    "cn_name": "格鲁米特;3-乙基-3-苯基-2,6-哌啶二酮;",
    "alternate_name": "2,6-Piperidinedione, 3-ethyl-3-phenyl-;Glutarimide, 2-ethyl-2-phenyl-;3-Ethyl-3-phenyl-2,6-piperidinedione;Doriden;Elrodorm;3-Ethyl-3-phenyl-2,6-diketopiperidine;3-Ethyl-3-phenyl-2,6-dioxopiperidine;α-Ethyl-α-phenylglutarimide;2-Ethyl-2-phenylglutarimide;Glutethimid;Glutethimide;Noxyron;3-Phenyl-3-ethyl-2,6-diketopiperidine;3-Phenyl-3-ethyl-2,6-dioxopiperidine;α-Phenyl-α-ethylglutaric acid imide;2-Phenyl-2-ethylglutaric acid imide;α-Phenyl-α-ethylglutarimide;Sarodormin;Doriden-Sed;Noxiron;Glutetimid;Rigenox;Glimid;3-Ethyl-3-phenylglutarimide;(±)-Glutethimide;(±)-2-Ethyl-2-phenylglutarimide;(±)-3-Ethyl-3-phenyl-2,6-piperidinedione;NSC 95239;MeSH ID: D005984",
    "duplicated_cas_no": "8056-97-1;18389-24-7",
    "SMILES": "C(C)C1(C(=O)NC(=O)CC1)C2=CC=CC=C2",
    "meta_data": {
        "InChI": "InChI=1S/C13H15NO2/c1-2-13(10-6-4-3-5-7-10)9-8-11(15)14-12(13)16/h3-7H,2,8-9H2,1H3,(H,14,15,16)",
        "InChIKey": null,
        "Canonical SMILES": "O=C1NC(=O)C(C=2C=CC=CC2)(CC)CC1",
        "Molecular Formula": "C<sub>13</sub>H<sub>15</sub>NO<sub>2</sub>",
        "Molecular Mass": "217.26",
        "Boiling Point": "168 °C @ Press: 0.3 Torr",
        "Melting Point": "84 °C"
    }
}