{
    "cas_no": "426-13-1",
    "key_name": "Fluorometholone",
    "cn_name": "氟米龙;",
    "alternate_name": "Pregna-1,4-diene-3,20-dione, 9-fluoro-11,17-dihydroxy-6-methyl-, (6α,11β)-;Pregna-1,4-diene-3,20-dione, 9-fluoro-11β,17-dihydroxy-6α-methyl-;(6α,11β)-9-Fluoro-11,17-dihydroxy-6-methylpregna-1,4-diene-3,20-dione;U 8614;21-Desoxy-9α-fluoro-6-methylprednisolone;9α-Fluoro-11β,17α-dihydroxy-6α-methylpregna-1,4-diene-3,20-dione;Fluorometholone;6α-Methyl-9α-fluoro-21-desoxyprednisolone;6α-Methyl-9α-fluoro-11β,17α-dihydroxypregna-1,4-diene-3,20-dione;Oxylone;Cortilet;Delmeson;NSC-33001;Flumetholone;FML;Fluormetholon;FML SOP;Fluaton;FML Forte;Loticort;FML Liquifilm;Fluor-Op;Efflumidex;Flumetholon;Ursnon;Fluaton PVA;MeSH ID: D005469;Floas-Mono",
    "duplicated_cas_no": "23784-31-8",
    "SMILES": "F[C@@]12[C@]([C@]3([C@](C)(C[C@@H]1O)[C@](C(C)=O)(O)CC3)[H])(C[C@H](C)C=4[C@]2(C)C=CC(=O)C4)[H]",
    "meta_data": {
        "InChI": "InChI=1S/C22H29FO4/c1-12-9-17-15-6-8-21(27,13(2)24)20(15,4)11-18(26)22(17,23)19(3)7-5-14(25)10-16(12)19/h5,7,10,12,15,17-18,26-27H,6,8-9,11H2,1-4H3/t12-,15-,17-,18-,19-,20-,21-,22-/m0/s1",
        "InChIKey": null,
        "Canonical SMILES": "O=C1C=CC2(C(=C1)C(C)CC3C4CCC(O)(C(=O)C)C4(C)CC(O)C32F)C",
        "Molecular Formula": "C<sub>22</sub>H<sub>29</sub>FO<sub>4</sub>",
        "Molecular Mass": "376.46",
        "Melting Point": "297 °C"
    }
}