{
    "cas_no": "528560-93-2",
    "key_name": "Methyl 4′-[[2-propyl-4-methyl-6-(1-methylbenzimidazol-2-yl)benzimidazol-1-yl]methyl]biphenyl-2-carboxylate",
    "cn_name": null,
    "alternate_name": "[1,1′-Biphenyl]-2-carboxylic acid, 4′-[(1,4′-dimethyl-2′-propyl[2,6′-bi-1<em>H</em>-benzimidazol]-1′-yl)methyl]-, methyl ester;Methyl 4′-[[2-propyl-4-methyl-6-(1-methylbenzimidazol-2-yl)benzimidazol-1-yl]methyl]biphenyl-2-carboxylate",
    "duplicated_cas_no": "2375911-39-8",
    "SMILES": "C(N1C=2C(N=C1CCC)=C(C)C=C(C2)C3=NC=4C(N3C)=CC=CC4)C5=CC=C(C=C5)C6=C(C(OC)=O)C=CC=C6",
    "meta_data": {
        "InChI": "InChI=1S/C34H32N4O2/c1-5-10-31-36-32-22(2)19-25(33-35-28-13-8-9-14-29(28)37(33)3)20-30(32)38(31)21-23-15-17-24(18-16-23)26-11-6-7-12-27(26)34(39)40-4/h6-9,11-20H,5,10,21H2,1-4H3",
        "InChIKey": null,
        "Canonical SMILES": "O=C(OC)C=1C=CC=CC1C=2C=CC(=CC2)CN3C(=NC=4C3=CC(=CC4C)C5=NC=6C=CC=CC6N5C)CCC",
        "Molecular Formula": "C<sub>34</sub>H<sub>32</sub>N<sub>4</sub>O<sub>2</sub>",
        "Molecular Mass": "528.64",
        "Melting Point": "170-175 °C"
    }
}