{
    "cas_no": "506-96-7",
    "key_name": "Acetyl bromide",
    "cn_name": null,
    "alternate_name": "Acetyl bromide;Acetic acid bromide",
    "duplicated_cas_no": "",
    "SMILES": "C(Br)(C)=O",
    "meta_data": {
        "InChI": "InChI=1S/C2H3BrO/c1-2(3)4/h1H3",
        "InChIKey": null,
        "Canonical SMILES": "O=C(Br)C",
        "Molecular Formula": "C<sub>2</sub>H<sub>3</sub>BrO",
        "Molecular Mass": "122.95",
        "Boiling Point": "76 °C",
        "Melting Point": "-96 °C",
        "Density": "1.52 g/cm³ @ Temp: 9 °C"
    }
}