{
    "cas_no": "24271-12-3",
    "key_name": "Stearyl behenate",
    "cn_name": "二十二烷酸十八烷酯;",
    "alternate_name": "Docosanoic acid, octadecyl ester;Octadecyl behenate;Stearyl behenate;Stearyl docosanoate;Behenic acid stearyl ester;Purester 40",
    "duplicated_cas_no": "677033-14-6",
    "SMILES": "C(C(OCCCCCCCCCCCCCCCCCC)=O)CCCCCCCCCCCCCCCCCCCC",
    "meta_data": {
        "InChI": "InChI=1S/C40H80O2/c1-3-5-7-9-11-13-15-17-19-21-22-23-24-26-28-30-32-34-36-38-40(41)42-39-37-35-33-31-29-27-25-20-18-16-14-12-10-8-6-4-2/h3-39H2,1-2H3",
        "InChIKey": null,
        "Canonical SMILES": "O=C(OCCCCCCCCCCCCCCCCCC)CCCCCCCCCCCCCCCCCCCCC",
        "Molecular Formula": "C<sub>40</sub>H<sub>80</sub>O<sub>2</sub>",
        "Molecular Mass": "593.06",
        "Melting Point": "68-69 °C"
    }
}