{
    "cas_no": "13822-56-5",
    "key_name": "Aminopropyltrimethoxysilane",
    "cn_name": "3-氨基丙基三甲氧基硅烷;硅烷偶联剂KH-540;",
    "alternate_name": "1-Propanamine, 3-(trimethoxysilyl)-;Propylamine, 3-(trimethoxysilyl)-;3-(Trimethoxysilyl)-1-propanamine;(γ-Aminopropyl)trimethoxysilane;(3-Aminopropyl)trimethoxysilane;3-(Trimethoxysilyl)propylamine;SC 3900;Silane SC 3900;A 0800;A 1110;Trimethoxy(3-aminopropyl)silane;Aminopropyltrimethoxysilane;NUC Silane A 1110;LS 1420;TSL 8330;KBM 903;Silquest A 1110;Dynasylan AMMO;AMMO;A 1108;A 1001;Sila-Ace S 360;S 360;Sila-Ace MS 3301;NSC 83845;KBM 903P;A 110;A 110 (coupling agent);Geniosil GF 96;JH 56;KH 540;APTMS;Silquest A 1108;KMB 903;Z 6610;Toray Silicone Z 6610;KH 555;SCA 1103;KH 551;KBM 903TMI;WD 56;TSL 8331E;AY 43-059P;SIA 0611.0;DB 551;A 301;3-(Trimethoxysilanyl)propylamine;KH 1101;GX 540;γ-Aminopropyl trimethoxysilane;CG 551;3-(Trimethoxysilyl)-1-propyl amine;SCA-A 10M;LT 540;PC 1110;AP-Si 3M;JH-A 111;USI 1302;SG-Si 1110;A 11264;CG-A 110;(3-Aminopropyl)trimethoxymethylsilane;KE 903;Silanil 138",
    "duplicated_cas_no": "12738-51-1;86158-92-1;107397-00-2;876665-92-8;1058726-65-0;1207727-80-7",
    "SMILES": "[Si](CCCN)(OC)(OC)OC",
    "meta_data": {
        "InChI": "InChI=1S/C6H17NO3Si/c1-8-11(9-2,10-3)6-4-5-7/h4-7H2,1-3H3",
        "InChIKey": null,
        "Canonical SMILES": "O(C)[Si](OC)(OC)CCCN",
        "Molecular Formula": "C<sub>6</sub>H<sub>17</sub>NO<sub>3</sub>Si",
        "Molecular Mass": "179.29",
        "Boiling Point": "80 °C @ Press: 8 Torr",
        "Density": "1.027 g/cm³"
    }
}