{
    "cas_no": "150-86-7",
    "key_name": "Phytol",
    "cn_name": null,
    "alternate_name": "2-Hexadecen-1-ol, 3,7,11,15-tetramethyl-, (2<em>E</em>,7<em>R</em>,11<em>R</em>)-;Phytol;2-Hexadecen-1-ol, 3,7,11,15-tetramethyl-, [<em>R</em>-[<em>R</em>*,<em>R</em>*-(<em>E</em>)]]-;(2<em>E</em>,7<em>R</em>,11<em>R</em>)-3,7,11,15-Tetramethyl-2-hexadecen-1-ol;3,7,11,15-Tetramethylhexadec-2-en-1-ol;<em>trans</em>-Phytol;(<em>E</em>)-Phytol;(7R,11R,2E)-Phytol;(<em>E</em>,<em>R</em>,<em>R</em>)-Phytol;(7<em>R</em>,11<em>R</em>,<em>E</em>)-3,7,11,15-Tetramethylhexadec-2-en-1-ol;MeSH ID: D010836",
    "duplicated_cas_no": "5016-81-9;951764-81-1",
    "SMILES": "[C@@H](CCC[C@@H](CCCC(C)C)C)(CCC/C(=C/CO)/C)C",
    "meta_data": {
        "InChI": "InChI=1S/C20H40O/c1-17(2)9-6-10-18(3)11-7-12-19(4)13-8-14-20(5)15-16-21/h15,17-19,21H,6-14,16H2,1-5H3/b20-15+/t18-,19-/m1/s1",
        "InChIKey": null,
        "Canonical SMILES": "OCC=C(C)CCCC(C)CCCC(C)CCCC(C)C",
        "Molecular Formula": "C<sub>20</sub>H<sub>40</sub>O",
        "Molecular Mass": "296.53",
        "Boiling Point": "203.5 °C",
        "Melting Point": "&lt;25 °C",
        "Density": "0.864 g/cm³ @ Temp: 0 °C"
    }
}