{
    "cas_no": "6192-44-5",
    "key_name": "Ethanol, 2-phenoxy-, 1-acetate",
    "cn_name": "乙二醇苯醚醋酸酯;乙酸-2-苯氧基乙酯;",
    "alternate_name": "Ethanol, 2-phenoxy-, 1-acetate;Ethanol, 2-phenoxy-, acetate;Ethylene glycol phenyl ether acetate;2-Phenoxyethanol acetate;2-Phenoxyethyl acetate;1-Acetoxy-2-phenoxyethane;Ethylene glycol monophenyl ether acetate;β-Phenoxyethyl acetate;NSC 6554",
    "duplicated_cas_no": "",
    "SMILES": "O(CCOC(C)=O)C1=CC=CC=C1",
    "meta_data": {
        "InChI": "InChI=1S/C10H12O3/c1-9(11)12-7-8-13-10-5-3-2-4-6-10/h2-6H,7-8H2,1H3",
        "InChIKey": null,
        "Canonical SMILES": "O=C(OCCOC=1C=CC=CC1)C",
        "Molecular Formula": "C<sub>10</sub>H<sub>12</sub>O<sub>3</sub>",
        "Molecular Mass": "180.20",
        "Boiling Point": "243 °C",
        "Density": "1.1063 g/cm³ @ Temp: 20 °C"
    }
}