{
    "cas_no": "106-70-7",
    "key_name": "Methyl hexanoate",
    "cn_name": "己酸甲酯;",
    "alternate_name": "Hexanoic acid, methyl ester;Methyl caproate;Methyl hexanoate;Methyl hexoate;Methyl <em>n</em>-hexanoate;Methyl capronate;NSC 5023;Pastell M 6;Caproic acid methyl ester;Agnique 610G",
    "duplicated_cas_no": "",
    "SMILES": "C(CCCCC)(OC)=O",
    "meta_data": {
        "InChI": "InChI=1S/C7H14O2/c1-3-4-5-6-7(8)9-2/h3-6H2,1-2H3",
        "InChIKey": null,
        "Canonical SMILES": "O=C(OC)CCCCC",
        "Molecular Formula": "C<sub>7</sub>H<sub>14</sub>O<sub>2</sub>",
        "Molecular Mass": "130.18",
        "Boiling Point": "149.5 °C",
        "Melting Point": "-71 °C",
        "Density": "0.8858 g/cm³ @ Temp: 20 °C"
    }
}