{
    "cas_no": "4887-81-4",
    "key_name": "6-Methoxy-2-methyl-1<em>H</em>-benzimidazole",
    "cn_name": null,
    "alternate_name": "1<em>H</em>-Benzimidazole, 6-methoxy-2-methyl-;Benzimidazole, 5-methoxy-2-methyl-;1<em>H</em>-Benzimidazole, 5-methoxy-2-methyl-;Benzimidazole, 5(<em>or</em> 6)-methoxy-2-methyl-;6-Methoxy-2-methyl-1<em>H</em>-benzimidazole;2-Methyl-5-methoxybenzimidazole;5-Methoxy-2-methylbenzimidazole;2-Methyl-5-methoxy-1<em>H</em>-benzimidazole;5-Methoxy-2-methyl-1<em>H</em>-benzimidazole",
    "duplicated_cas_no": "",
    "SMILES": "CC=1NC=2C(=CC(OC)=CC2)N1",
    "meta_data": {
        "InChI": "InChI=1S/C9H10N2O/c1-6-10-8-4-3-7(12-2)5-9(8)11-6/h3-5H,1-2H3,(H,10,11)",
        "InChIKey": null,
        "Canonical SMILES": "N=1C=2C=C(OC)C=CC2NC1C",
        "Molecular Formula": "C<sub>9</sub>H<sub>10</sub>N<sub>2</sub>O",
        "Molecular Mass": "162.19",
        "Melting Point": "134-135 °C"
    }
}