{
    "cas_no": "1455-21-6",
    "key_name": "1-Nonanethiol",
    "cn_name": "1-壬硫醇;",
    "alternate_name": "1-Nonanethiol;Nonyl mercaptan;<em>n</em>-Nonyl mercaptan;Nonylthiol;<em>n</em>-Nonanethiol;<em>n</em>-Nonylthiol;Nonanethiol;1-Mercaptononane;NSC 5563",
    "duplicated_cas_no": "",
    "SMILES": "C(CCCCS)CCCC",
    "meta_data": {
        "InChI": "InChI=1S/C9H20S/c1-2-3-4-5-6-7-8-9-10/h10H,2-9H2,1H3",
        "InChIKey": null,
        "Canonical SMILES": "SCCCCCCCCC",
        "Molecular Formula": "C<sub>9</sub>H<sub>20</sub>S",
        "Molecular Mass": "160.32",
        "Boiling Point": "220 °C",
        "Melting Point": "-20.1 °C",
        "Density": "0.8386 g/cm³ @ Temp: 20 °C"
    }
}