{
    "cas_no": "606-12-2",
    "key_name": "2,4′-Dihydroxybenzophenone",
    "cn_name": "2,4-二羟基二苯甲酮;",
    "alternate_name": "Methanone, (2-hydroxyphenyl)(4-hydroxyphenyl)-;Benzophenone, 2,4′-dihydroxy-;(2-Hydroxyphenyl)(4-hydroxyphenyl)methanone;2,4′-Dihydroxybenzophenone;NSC 2832;2-(4-Hydroxybenzoyl)phenol;UV 5",
    "duplicated_cas_no": "",
    "SMILES": "C(=O)(C1=C(O)C=CC=C1)C2=CC=C(O)C=C2",
    "meta_data": {
        "InChI": "InChI=1S/C13H10O3/c14-10-7-5-9(6-8-10)13(16)11-3-1-2-4-12(11)15/h1-8,14-15H",
        "InChIKey": null,
        "Canonical SMILES": "O=C(C1=CC=C(O)C=C1)C=2C=CC=CC2O",
        "Molecular Formula": "C<sub>13</sub>H<sub>10</sub>O<sub>3</sub>",
        "Molecular Mass": "214.22",
        "Melting Point": "150-151 °C"
    }
}