{
    "cas_no": "5467-71-0",
    "key_name": "Ethanone, 2-amino-1-(4-chlorophenyl)-, hydrochloride (1:1)",
    "cn_name": null,
    "alternate_name": "Ethanone, 2-amino-1-(4-chlorophenyl)-, hydrochloride (1:1);Acetophenone, 2-amino-4′-chloro-, hydrochloride;Ethanone, 2-amino-1-(4-chlorophenyl)-, hydrochloride;α-Amino-<em>p</em>-chloroacetophenone hydrochloride;2-Amino-1-(4-chlorophenyl)-1-ethanone hydrochloride;α-Amino-4′-chloroacetophenone hydrochloride;2-Amino-1-(4-chlorophenyl)ethanone hydrochloride;2-Amino-4′-chloroacetophenone hydrochloride;α-Amino-4-chloroacetophenone hydrochloride;<em>p</em>-Chlorophenacylamine hydrochloride",
    "duplicated_cas_no": "",
    "SMILES": "C(CN)(=O)C1=CC=C(Cl)C=C1.Cl",
    "meta_data": {
        "InChI": "InChI=1S/C8H8ClNO.ClH/c9-7-3-1-6(2-4-7)8(11)5-10;/h1-4H,5,10H2;1H",
        "InChIKey": null,
        "Canonical SMILES": "Cl.O=C(C1=CC=C(Cl)C=C1)CN",
        "Molecular Formula": "C<sub>8</sub>H<sub>8</sub>ClNO.ClH",
        "Molecular Mass": "",
        "Melting Point": "290 °C"
    }
}