{
    "cas_no": "3116-76-5",
    "key_name": "Dicloxacillin",
    "cn_name": "双氯西林;双氯青霉素;双氯苯唑青霉素;(2S,5R,6R)-3,3-二甲基-6-[5-甲基-3-(2,6-二氯苯基)-4-异噁唑甲酰氨基;",
    "alternate_name": "4-Thia-1-azabicyclo[3.2.0]heptane-2-carboxylic acid, 6-[[[3-(2,6-dichlorophenyl)-5-methyl-4-isoxazolyl]carbonyl]amino]-3,3-dimethyl-7-oxo-, (2<em>S</em>,5<em>R</em>,6<em>R</em>)-;4-Thia-1-azabicyclo[3.2.0]heptane-2-carboxylic acid, 6-[3-(2,6-dichlorophenyl)-5-methyl-4-isoxazolecarboxamido]-3,3-dimethyl-7-oxo-;4-Thia-1-azabicyclo[3.2.0]heptane-2-carboxylic acid, 6-[[[3-(2,6-dichlorophenyl)-5-methyl-4-isoxazolyl]carbonyl]amino]-3,3-dimethyl-7-oxo-, [2<em>S</em>-(2α,5α,6β)]-;(2<em>S</em>,5<em>R</em>,6<em>R</em>)-6-[[[3-(2,6-Dichlorophenyl)-5-methyl-4-isoxazolyl]carbonyl]amino]-3,3-dimethyl-7-oxo-4-thia-1-azabicyclo[3.2.0]heptane-2-carboxylic acid;BRL 1702;R 13423;6-[3-(2,6-Dichlorophenyl)-5-methyl-4-isoxazolecarboxamido]-3,3-dimethyl-7-oxo-4-thia-1-azabicyclo[3.2.0]heptane-2-carboxylic acid;Dicloxacillin;[5-Methyl-3-(2,6-dichlorophenyl)-4-isoxazolylyl]penicillin;3-(2,6-Dichlorophenyl)-5-methyl-4-isooxazolylpenicillin;Dicloxacycline;[3-(2,6-Dichlorophenyl)-5-methyl-4-isoxazolyl]penicillin;Maclicine;Stapenor D;Staphcillin A;MeSH ID: D004009",
    "duplicated_cas_no": "",
    "SMILES": "C(O)(=O)[C@@H]1N2[C@@]([C@H](NC(=O)C=3C(=NOC3C)C4=C(Cl)C=CC=C4Cl)C2=O)(SC1(C)C)[H]",
    "meta_data": {
        "InChI": "InChI=1S/C19H17Cl2N3O5S/c1-7-10(12(23-29-7)11-8(20)5-4-6-9(11)21)15(25)22-13-16(26)24-14(18(27)28)19(2,3)30-17(13)24/h4-6,13-14,17H,1-3H3,(H,22,25)(H,27,28)/t13-,14+,17-/m1/s1",
        "InChIKey": null,
        "Canonical SMILES": "O=C(O)C1N2C(=O)C(NC(=O)C=3C(=NOC3C)C=4C(Cl)=CC=CC4Cl)C2SC1(C)C",
        "Molecular Formula": "C<sub>19</sub>H<sub>17</sub>Cl<sub>2</sub>N<sub>3</sub>O<sub>5</sub>S",
        "Molecular Mass": "470.33",
        "Melting Point": "218 °C (decomp)"
    }
}