{
    "cas_no": "33996-33-7",
    "key_name": "Oxaceprol",
    "cn_name": "N-乙酰-L-羟基脯氨酸;N-乙酰-L-4-羟基脯氨酸;",
    "alternate_name": "<span class=\"text-smallcaps\">L</span>-Proline, 1-acetyl-4-hydroxy-, (4<em>R</em>)-;<span class=\"text-smallcaps\">L</span>-Proline, 1-acetyl-4-hydroxy-, <em>trans</em>-;Proline, 1-acetyl-4-hydroxy-, <span class=\"text-smallcaps\">L</span>-;(4<em>R</em>)-1-Acetyl-4-hydroxy-<span class=\"text-smallcaps\">L</span>-proline;<em>N</em>-Acetylhydroxyproline;<em>N</em>-Acetyl-4-hydroxy-<span class=\"text-smallcaps\">L</span>-proline;<em>N</em>-Acetyl-<span class=\"text-smallcaps\">L</span>-hydroxyproline;<em>N</em>-Acetyl-4-hydroxyproline;Oxaceprol;(<em>R</em>)-<em>N</em>-Acetyl-4-hydroxy-<span class=\"text-smallcaps\">L</span>-proline;<em>N</em>-Acetyl-<em>trans</em>-4-hydroxy-<span class=\"text-smallcaps\">L</span>-proline;AHP 200;CO 61;Jonctum;<em>trans</em>-<em>N</em>-Acetyl-4-hydroxy-<span class=\"text-smallcaps\">L</span>-proline",
    "duplicated_cas_no": "",
    "SMILES": "C(O)(=O)[C@H]1N(C(C)=O)C[C@H](O)C1",
    "meta_data": {
        "InChI": "InChI=1S/C7H11NO4/c1-4(9)8-3-5(10)2-6(8)7(11)12/h5-6,10H,2-3H2,1H3,(H,11,12)/t5-,6+/m1/s1",
        "InChIKey": null,
        "Canonical SMILES": "O=C(O)C1N(C(=O)C)CC(O)C1",
        "Molecular Formula": "C<sub>7</sub>H<sub>11</sub>NO<sub>4</sub>",
        "Molecular Mass": "173.17",
        "Melting Point": "132 °C"
    }
}