{
    "cas_no": "823-82-5",
    "key_name": "2,5-Furandicarboxaldehyde",
    "cn_name": "2,5-二甲酰基呋喃;2,5-呋喃二甲醛;",
    "alternate_name": "2,5-Furandicarboxaldehyde;Furan-2,5-dialdehyde;5-Formylfurfural;2,5-Furandicarbaldehyde;2,5-Diformylfuran;NSC 618088;2,5-Bis(carboxaldehyde)furan;2,5-Furandicarboxyaldehyde",
    "duplicated_cas_no": "",
    "SMILES": "C(=O)C=1OC(C=O)=CC1",
    "meta_data": {
        "InChI": "InChI=1S/C6H4O3/c7-3-5-1-2-6(4-8)9-5/h1-4H",
        "InChIKey": null,
        "Canonical SMILES": "O=CC=1OC(C=O)=CC1",
        "Molecular Formula": "C<sub>6</sub>H<sub>4</sub>O<sub>3</sub>",
        "Molecular Mass": "124.09",
        "Melting Point": "109-110 °C"
    }
}