{
    "cas_no": "10502-44-0",
    "key_name": "4-Methoxymandelic acid",
    "cn_name": "对甲氧基扁桃酸;对甲氧基苦杏仁酸;",
    "alternate_name": "Benzeneacetic acid, α-hydroxy-4-methoxy-;Mandelic acid, <em>p</em>-methoxy-;α-Hydroxy-4-methoxybenzeneacetic acid;<em>p</em>-Methoxymandelic acid;4-Methoxymandelic acid;4-Methoxyphenylglycolic acid;2-Hydroxy-2-(4-methoxyphenyl)acetic acid;<span class=\"text-smallcaps\">DL</span>-4-Methoxymandelic acid;Hydroxy(4-methoxyphenyl)acetic acid",
    "duplicated_cas_no": "20714-90-3",
    "SMILES": "C(C(O)=O)(O)C1=CC=C(OC)C=C1",
    "meta_data": {
        "InChI": "InChI=1S/C9H10O4/c1-13-7-4-2-6(3-5-7)8(10)9(11)12/h2-5,8,10H,1H3,(H,11,12)",
        "InChIKey": null,
        "Canonical SMILES": "O=C(O)C(O)C1=CC=C(OC)C=C1",
        "Molecular Formula": "C<sub>9</sub>H<sub>10</sub>O<sub>4</sub>",
        "Molecular Mass": "182.17",
        "Melting Point": "108 °C"
    }
}