{
    "cas_no": "21700-74-3",
    "key_name": "1-Chloro-4-(triethoxysilyl)benzene",
    "cn_name": "氯代苯基三乙氧基硅烷;",
    "alternate_name": "Benzene, 1-chloro-4-(triethoxysilyl)-;Silane, (<em>p</em>-chlorophenyl)triethoxy-;Silane, (4-chlorophenyl)triethoxy-;1-Chloro-4-(triethoxysilyl)benzene;(<em>p</em>-Chlorophenyl)triethoxysilane;4-Chlorophenyltriethoxysilane;Triethoxy(<em>p</em>-chlorophenyl)silane",
    "duplicated_cas_no": "",
    "SMILES": "[Si](OCC)(OCC)(OCC)C1=CC=C(Cl)C=C1",
    "meta_data": {
        "InChI": "InChI=1S/C12H19ClO3Si/c1-4-14-17(15-5-2,16-6-3)12-9-7-11(13)8-10-12/h7-10H,4-6H2,1-3H3",
        "InChIKey": null,
        "Canonical SMILES": "ClC1=CC=C(C=C1)[Si](OCC)(OCC)OCC",
        "Molecular Formula": "C<sub>12</sub>H<sub>19</sub>ClO<sub>3</sub>Si",
        "Molecular Mass": "274.82",
        "Boiling Point": "182-184 °C @ Press: 0.07 Torr",
        "Density": "1.069 g/cm³ @ Temp: 25 °C"
    }
}