{
    "cas_no": "41110-34-3",
    "key_name": "2-Pyrazinecarboxylic acid, 5-methyl-, ethyl ester",
    "cn_name": null,
    "alternate_name": "2-Pyrazinecarboxylic acid, 5-methyl-, ethyl ester;Pyrazinecarboxylic acid, 5-methyl-, ethyl ester;5-Methylpyrazine-2-carboxylic acid ethyl ester;Ethyl 5-methylpyrazine-2-carboxylate",
    "duplicated_cas_no": "",
    "SMILES": "C(OCC)(=O)C=1C=NC(C)=CN1",
    "meta_data": {
        "InChI": "InChI=1S/C8H10N2O2/c1-3-12-8(11)7-5-9-6(2)4-10-7/h4-5H,3H2,1-2H3",
        "InChIKey": null,
        "Canonical SMILES": "O=C(OCC)C1=NC=C(N=C1)C",
        "Molecular Formula": "C<sub>8</sub>H<sub>10</sub>N<sub>2</sub>O<sub>2</sub>",
        "Molecular Mass": "166.18",
        "Melting Point": "132-134 °C"
    }
}