{
    "cas_no": "271-58-9",
    "key_name": "2,1-Benzisoxazole",
    "cn_name": "2,1-苯并异恶唑;",
    "alternate_name": "2,1-Benzisoxazole;Anthranil;NSC 99331;Benz[<em>a</em>]isoxazole",
    "duplicated_cas_no": "2332895-74-4",
    "SMILES": "C=12C(=NOC1)C=CC=C2",
    "meta_data": {
        "InChI": "InChI=1S/C7H5NO/c1-2-4-7-6(3-1)5-9-8-7/h1-5H",
        "InChIKey": null,
        "Canonical SMILES": "N=1OC=C2C=CC=CC12",
        "Molecular Formula": "C<sub>7</sub>H<sub>5</sub>NO",
        "Molecular Mass": "119.12",
        "Boiling Point": "215 °C",
        "Melting Point": "&lt;-18 °C"
    }
}