{
    "cas_no": "107-47-1",
    "key_name": "<em>tert</em>-Butyl sulfide",
    "cn_name": "叔丁基硫醚;",
    "alternate_name": "Propane, 2,2′-thiobis[2-methyl-;<em>tert</em>-Butyl sulfide;2,2′-Thiobis[2-methylpropane];Di-<em>tert</em>-butyl sulfide;2,2,4,4-Tetramethyl-3-thiapentane;Bis(1,1-dimethylethyl) sulfide;NSC 4549;2-<em>tert</em>-Butylsulfanyl-2-methylpropane;2-(<em>tert</em>-Butylsulfanyl)-2-methylpropane",
    "duplicated_cas_no": "1079059-42-9",
    "SMILES": "S(C(C)(C)C)C(C)(C)C",
    "meta_data": {
        "InChI": "InChI=1S/C8H18S/c1-7(2,3)9-8(4,5)6/h1-6H3",
        "InChIKey": null,
        "Canonical SMILES": "S(C(C)(C)C)C(C)(C)C",
        "Molecular Formula": "C<sub>8</sub>H<sub>18</sub>S",
        "Molecular Mass": "146.29",
        "Boiling Point": "149.1 °C",
        "Melting Point": "-9 °C",
        "Density": "1.001 g/cm³ @ Temp: 15 °C"
    }
}