{
    "cas_no": "67-45-8",
    "key_name": "Furazolidone",
    "cn_name": "呋喃唑酮;3-(5-硝基糠醛缩氨基)-2-恶唑烷酮;3-(5-硝基呋喃甲叉氨基)-2-恶唑烷酮;",
    "alternate_name": "2-Oxazolidinone, 3-[[(5-nitro-2-furanyl)methylene]amino]-;2-Oxazolidinone, 3-[(5-nitrofurfurylidene)amino]-;3-(5-<em>aci</em>-Nitro-2(5<em>H</em>)-furylidenemethylimino)-2-oxooxazolidinium hydroxide, inner salt;3-[[(5-Nitro-2-furanyl)methylene]amino]-2-oxazolidinone;NF 180;Furaxone;Furazol;Furazolidone;Furazon;Furozolidine;Nifulidone;3-[(5-Nitrofurfurylidene)amino]-2-oxazolidinone;<em>N</em>-(5-Nitro-2-furfurylidene)-3-amino-2-oxazolidone;Nitrofuroxon;Trifurox;Furoxone;2-Furanmethanimine, 5-nitro-<em>N</em>-(2-oxo-3-oxazolidinyl)-;Giarlam;Nicolen;Ortazol;Roptazol;Furoxane;Giardil;Neftin;Medaron;Furoxone Swine Mix;Furazolidon;Diafuron;Furoxon;Optazol;Nitrofurazolidone;Furoxal;Furaxon;Puradin;Furidon;Furox;Tikofuran;Furovag;NSC 6469;Furazolidinone;Foroxone;Dependal-M;MeSH ID: D005664",
    "duplicated_cas_no": "8023-25-4;8027-73-4",
    "SMILES": "C(=NN1C(=O)OCC1)C=2OC(N(=O)=O)=CC2",
    "meta_data": {
        "InChI": "InChI=1S/C8H7N3O5/c12-8-10(3-4-15-8)9-5-6-1-2-7(16-6)11(13)14/h1-2,5H,3-4H2",
        "InChIKey": null,
        "Canonical SMILES": "O=C1OCCN1N=CC=2OC(=CC2)N(=O)=O",
        "Molecular Formula": "C<sub>8</sub>H<sub>7</sub>N<sub>3</sub>O<sub>5</sub>",
        "Molecular Mass": "225.16",
        "Melting Point": "255 °C"
    }
}