{
    "cas_no": "535-13-7",
    "key_name": "Ethyl 2-chloropropionate",
    "cn_name": "2-氯丙酸乙酯;",
    "alternate_name": "Propanoic acid, 2-chloro-, ethyl ester;Propionic acid, 2-chloro-, ethyl ester;Ethyl α-chloropropionate;Ethyl 2-chloropropionate;Ethyl 2-chloropropanoate;(2<em>RS</em>)-2-Chloropropionic acid ethyl ester;2-Chloropropanoic acid ethyl ester;NSC 522671",
    "duplicated_cas_no": "105309-19-1",
    "SMILES": "C(OCC)(C(C)Cl)=O",
    "meta_data": {
        "InChI": "InChI=1S/C5H9ClO2/c1-3-8-5(7)4(2)6/h4H,3H2,1-2H3",
        "InChIKey": null,
        "Canonical SMILES": "O=C(OCC)C(Cl)C",
        "Molecular Formula": "C<sub>5</sub>H<sub>9</sub>ClO<sub>2</sub>",
        "Molecular Mass": "136.58",
        "Boiling Point": "147 °C"
    }
}