{
    "cas_no": "55881-07-7",
    "key_name": "Miocamycin",
    "cn_name": "醋酸麦迪霉素;乙酰麦迪霉素;米卡霉素;美欧卡霉;",
    "alternate_name": "Leucomycin V, 3<sup>B</sup>,9-diacetate 3,4<sup>B</sup>-dipropanoate;Oxacyclohexadecane, leucomycin V deriv.;3′′,9-Diacetylmydecamycin;Mom;Miokamycin;Midecamycin acetate;9,3′′-Di-<em>O</em>-acetylmidecamycin;Miocamycin;Ponsinomycin;Acecamycin",
    "duplicated_cas_no": "95893-18-8;122413-78-9;77950-54-0;89591-92-4",
    "SMILES": "O([C@@H]1[C@@H](OC)[C@H](OC(CC)=O)CC(=O)O[C@H](C)C\\C=C\\C=C\\[C@H](OC(C)=O)[C@H](C)C[C@@H]1CC=O)[C@H]2[C@H](O)[C@@H](N(C)C)[C@H](O[C@H]3C[C@](OC(C)=O)(C)[C@@H](OC(CC)=O)[C@H](C)O3)[C@@H](C)O2",
    "meta_data": {
        "InChI": "InChI=1S/C45H71NO17/c1-13-34(50)59-33-23-36(52)55-26(4)18-16-15-17-19-32(58-29(7)48)25(3)22-31(20-21-47)41(42(33)54-12)62-44-39(53)38(46(10)11)40(27(5)57-44)61-37-24-45(9,63-30(8)49)43(28(6)56-37)60-35(51)14-2/h15-17,19,21,25-28,31-33,37-44,53H,13-14,18,20,22-24H2,1-12H3/b16-15+,19-17+/t25-,26-,27-,28+,31+,32+,33-,37+,38-,39-,40-,41+,42+,43+,44+,45-/m1/s1",
        "InChIKey": null,
        "Canonical SMILES": "O=CCC1CC(C)C(OC(=O)C)C=CC=CCC(OC(=O)CC(OC(=O)CC)C(OC)C1OC2OC(C)C(OC3OC(C)C(OC(=O)CC)C(OC(=O)C)(C)C3)C(N(C)C)C2O)C",
        "Molecular Formula": "C<sub>45</sub>H<sub>71</sub>NO<sub>17</sub>",
        "Molecular Mass": "898.04",
        "Melting Point": "220 °C (decomp)"
    }
}