{
    "cas_no": "14592-56-4",
    "key_name": "Palladium, bis(acetonitrile)dichloro-",
    "cn_name": "双(乙腈)氯化钯(II);",
    "alternate_name": "Palladium, bis(acetonitrile)dichloro-;Palladium, dichlorobis(acetonitrile)-;Bis(acetonitrile)palladium dichloride;Bis(acetonitrile)dichloropalladium;<em>bis</em>(Acetonitrile)dichloropalladium;Bis(acetonitrile)dichloropalladium(II);Dichlorobis(acetonitrile)palladium;Dichlorobis(acetonitrile)palladium(II);Bis(acetonitrile)palladium(II) dichloride;Palladium dichloride bis(acetonitrile);Diacetonitriledichloropalladium;Bis-acetonitrile palladium chloride;PdCl<sub>2</sub>(CH<sub>3</sub>CN)<sub>2</sub>;PdCl<sub>2</sub>(MeCN)<sub>2</sub>",
    "duplicated_cas_no": "65677-69-2",
    "SMILES": "[Pd+2]([N]#CC)([N]#CC)([Cl-])[Cl-]",
    "meta_data": {
        "InChI": "InChI=1S/2C2H3N.2ClH.Pd/c2*1-2-3;;;/h2*1H3;2*1H;/q;;;;+2/p-2",
        "InChIKey": null,
        "Canonical SMILES": "[Cl-][Pd+2]([Cl-])([N]#CC)[N]#CC",
        "Molecular Formula": "C<sub>4</sub>H<sub>6</sub>Cl<sub>2</sub>N<sub>2</sub>Pd",
        "Molecular Mass": "",
        "Melting Point": "&gt;200 °C (decomp)"
    }
}