{
    "cas_no": "61079-72-9",
    "key_name": "2,3,4-Trifluorobenzoic acid",
    "cn_name": "2,3,4-三氟苯甲酸;",
    "alternate_name": "Benzoic acid, 2,3,4-trifluoro-;2,3,4-Trifluorobenzoic acid;NSC 190684",
    "duplicated_cas_no": "",
    "SMILES": "C(O)(=O)C1=C(F)C(F)=C(F)C=C1",
    "meta_data": {
        "InChI": "InChI=1S/C7H3F3O2/c8-4-2-1-3(7(11)12)5(9)6(4)10/h1-2H,(H,11,12)",
        "InChIKey": null,
        "Canonical SMILES": "O=C(O)C1=CC=C(F)C(F)=C1F",
        "Molecular Formula": "C<sub>7</sub>H<sub>3</sub>F<sub>3</sub>O<sub>2</sub>",
        "Molecular Mass": "176.09",
        "Melting Point": "141 °C"
    }
}