{
    "cas_no": "223463-13-6",
    "key_name": "5-Bromo-2-iodopyridine",
    "cn_name": "5-溴-2-碘吡啶;",
    "alternate_name": "Pyridine, 5-bromo-2-iodo-;5-Bromo-2-iodopyridine;2-Iodo-5-bromopyridine",
    "duplicated_cas_no": "",
    "SMILES": "BrC=1C=CC(I)=NC1",
    "meta_data": {
        "InChI": "InChI=1S/C5H3BrIN/c6-4-1-2-5(7)8-3-4/h1-3H",
        "InChIKey": null,
        "Canonical SMILES": "BrC1=CN=C(I)C=C1",
        "Molecular Formula": "C<sub>5</sub>H<sub>3</sub>BrIN",
        "Molecular Mass": "283.89",
        "Melting Point": "117 °C"
    }
}