{
    "cas_no": "4165-98-4",
    "key_name": "3-Propylpentanedioic acid",
    "cn_name": null,
    "alternate_name": "Pentanedioic acid, 3-propyl-;Glutaric acid, 3-propyl-;3-Propylpentanedioic acid;3-Propylglutaric acid",
    "duplicated_cas_no": "",
    "SMILES": "C(CC(O)=O)(CC(O)=O)CCC",
    "meta_data": {
        "InChI": "InChI=1S/C8H14O4/c1-2-3-6(4-7(9)10)5-8(11)12/h6H,2-5H2,1H3,(H,9,10)(H,11,12)",
        "InChIKey": null,
        "Canonical SMILES": "O=C(O)CC(CC(=O)O)CCC",
        "Molecular Formula": "C<sub>8</sub>H<sub>14</sub>O<sub>4</sub>",
        "Molecular Mass": "174.19",
        "Melting Point": "52 °C"
    }
}