{
    "cas_no": "818-08-6",
    "key_name": "Dibutyltin oxide",
    "cn_name": "二丁基氧化锡;氧化二丁基锡;",
    "alternate_name": "Stannane, dibutyloxo-;Dibutyltin oxide;Dibutyloxostannane;Di-<em>n</em>-butyltin oxide;Dibutylstannane oxide;Dibutyloxotin;Fascat 4201;Tegokat 248;Neostann U 300;Fomrez SUL 11A;U 300;NSC 28130;Cotin 100;Stann BO;Eurecat 9555;Eurecat 9560;MSCAT 02;FC 4201;Di-<em>n</em>-butyltin(II) oxide;MSCAT 01;Fomrez SUL 11B;ZT 4201;Tin dibutyl oxide;Fomrez SUL 11C;Axion CS 2455",
    "duplicated_cas_no": "695165-22-1;144377-64-0",
    "SMILES": "[Sn](CCCC)(CCCC)=O",
    "meta_data": {
        "InChI": "InChI=1S/2C4H9.O.Sn/c2*1-3-4-2;;/h2*1,3-4H2,2H3;;",
        "InChIKey": null,
        "Canonical SMILES": "O=[Sn](CCCC)CCCC",
        "Molecular Formula": "C<sub>8</sub>H<sub>18</sub>OSn",
        "Molecular Mass": "248.94",
        "Melting Point": "&gt;150 °C (decomp)",
        "Density": "1.6 g/cm³"
    }
}