{
    "cas_no": "7206-76-0",
    "key_name": "Phenylethylmalonamide",
    "cn_name": null,
    "alternate_name": "Propanediamide, 2-ethyl-2-phenyl-;Malonamide, 2-ethyl-2-phenyl-;2-Ethyl-2-phenylpropanediamide;Ethylphenylmalondiamide;Phenylethylmalonamide;2-Ethyl-2-phenylmalondiamide;Phenylethylmalondiamide;2-Ethyl-2-phenylmalonamide;PEMA;PEMA (amide);2-Phenyl-2-ethylmalondiamide",
    "duplicated_cas_no": "80147-40-6",
    "SMILES": "C(C(N)=O)(C(N)=O)(CC)C1=CC=CC=C1",
    "meta_data": {
        "InChI": "InChI=1S/C11H14N2O2/c1-2-11(9(12)14,10(13)15)8-6-4-3-5-7-8/h3-7H,2H2,1H3,(H2,12,14)(H2,13,15)",
        "InChIKey": null,
        "Canonical SMILES": "O=C(N)C(C(=O)N)(C=1C=CC=CC1)CC",
        "Molecular Formula": "C<sub>11</sub>H<sub>14</sub>N<sub>2</sub>O<sub>2</sub>",
        "Molecular Mass": "206.24",
        "Melting Point": "121 °C"
    }
}