{
    "cas_no": "20780-54-5",
    "key_name": "(<em>S</em>)-Styrene oxide",
    "cn_name": "(S)-环氧苯乙烷;",
    "alternate_name": "Oxirane, 2-phenyl-, (2<em>S</em>)-;Benzene, (epoxyethyl)-, (<em>S</em>)-;Oxirane, phenyl-, (<em>S</em>)-;Oxirane, phenyl-, (2<em>S</em>)-;(2<em>S</em>)-2-Phenyloxirane;(<em>S</em>)-(-)-Phenylepoxyethane;(<em>S</em>)-Styrene oxide;(<em>S</em>)-(-)-Styrene oxide;(<em>S</em>)-Phenyloxirane;(<em>S</em>)-Phenylethylene oxide;(-)-Styrene oxide;(<em>S</em>)-(-)-Phenyloxirane;(<em>S</em>)-Styrene 7,8-oxide;(-)-Phenyloxirane;(<em>S</em>)-Epoxystyrene;(2<em>S</em>)-Phenyloxirane;(2S)-2-Phenyloxirane",
    "duplicated_cas_no": "",
    "SMILES": "[C@@H]1(CO1)C2=CC=CC=C2",
    "meta_data": {
        "InChI": "InChI=1S/C8H8O/c1-2-4-7(5-3-1)8-6-9-8/h1-5,8H,6H2/t8-/m1/s1",
        "InChIKey": null,
        "Canonical SMILES": "O1CC1C=2C=CC=CC2",
        "Molecular Formula": "C<sub>8</sub>H<sub>8</sub>O",
        "Molecular Mass": "120.15",
        "Boiling Point": "88-89 °C @ Press: 19 Torr"
    }
}