{
    "cas_no": "61931-68-8",
    "key_name": "2-Methyl-5-phenylbenzoxazole",
    "cn_name": "2-甲基-5-苯基苯并噁唑;2-甲基-5-苯基氧氮茚;",
    "alternate_name": "Benzoxazole, 2-methyl-5-phenyl-;2-Methyl-5-phenylbenzoxazole;5-Phenyl-2-methylbenzoxazole;2-Methyl-5-phenylbenzo[<em>d</em>]oxazole;2-Methyl-5-phenyl-1,3-benzoxazole",
    "duplicated_cas_no": "",
    "SMILES": "CC1=NC=2C(=CC=C(C2)C3=CC=CC=C3)O1",
    "meta_data": {
        "InChI": "InChI=1S/C14H11NO/c1-10-15-13-9-12(7-8-14(13)16-10)11-5-3-2-4-6-11/h2-9H,1H3",
        "InChIKey": null,
        "Canonical SMILES": "N=1C2=CC(=CC=C2OC1C)C=3C=CC=CC3",
        "Molecular Formula": "C<sub>14</sub>H<sub>11</sub>NO",
        "Molecular Mass": "209.24",
        "Boiling Point": "158 °C @ Press: 2-3 Torr",
        "Melting Point": "60.2-61.4 °C"
    }
}