{
    "cas_no": "113030-24-3",
    "key_name": "2-Amino-4,7-dihydro-6(5<em>H</em>)-benzothiazolone",
    "cn_name": null,
    "alternate_name": "6(5<em>H</em>)-Benzothiazolone, 2-amino-4,7-dihydro-;2-Amino-4,7-dihydro-6(5<em>H</em>)-benzothiazolone;2-Amino-6-oxo-4,5,6,7-tetrahydrobenzothiazole;2-Amino-4,5-dihydrobenzo[<em>d</em>]thiazol-6(7<em>H</em>)-one;2-Amino-5,7-dihydro-4<em>H</em>-1,3-benzothiazol-6-one;2-Amino-4,5,6,7-tetrahydro-1,3-benzothiazol-6-one",
    "duplicated_cas_no": "",
    "SMILES": "NC1=NC2=C(S1)CC(=O)CC2",
    "meta_data": {
        "InChI": "InChI=1S/C7H8N2OS/c8-7-9-5-2-1-4(10)3-6(5)11-7/h1-3H2,(H2,8,9)",
        "InChIKey": null,
        "Canonical SMILES": "O=C1CC=2SC(=NC2CC1)N",
        "Molecular Formula": "C<sub>7</sub>H<sub>8</sub>N<sub>2</sub>OS",
        "Molecular Mass": "168.22",
        "Melting Point": "175 °C"
    }
}