{
    "cas_no": "15091-98-2",
    "key_name": "Sodium tripolyphosphate hexahydrate",
    "cn_name": "三聚磷酸钠;",
    "alternate_name": "Triphosphoric acid, sodium salt, hydrate (1:5:6);Triphosphoric acid, pentasodium salt, hexahydrate;Pentasodium tripolyphosphate hexahydrate;Sodium triphosphate hexahydrate;Sodium tripolyphosphate hexahydrate;Sodium tripolyphosphate (Na<sub>5</sub>P<sub>3</sub>O<sub>10</sub>) hexahydrate;Pentasodium triphosphate hexahydrate;Sodium triphosphate (Na<sub>5</sub>P<sub>3</sub>O<sub>10</sub>) hexahydrate;Sodium triphosphate hexahydrate (Na<sub>5</sub>P<sub>3</sub>O<sub>10</sub>.6H<sub>2</sub>O);Sodium phosphate (Na<sub>5</sub>P<sub>3</sub>O<sub>10</sub>) hexahydrate",
    "duplicated_cas_no": "",
    "SMILES": "O(P(OP(=O)(O)O)(=O)O)P(=O)(O)O.[Na].O",
    "meta_data": {
        "InChI": "InChI=1S/5Na.H5O10P3.6H2O/c;;;;;1-11(2,3)9-13(7,8)10-12(4,5)6;;;;;;/h;;;;;(H,7,8)(H2,1,2,3)(H2,4,5,6);6*1H2",
        "InChIKey": null,
        "Canonical SMILES": "[Na].O=P(O)(O)OP(=O)(O)OP(=O)(O)O.O",
        "Molecular Formula": "H<sub>5</sub>O<sub>10</sub>P<sub>3</sub>.6H<sub>2</sub>O.5Na",
        "Molecular Mass": "",
        "Boiling Point": "&lt;65 °C"
    }
}