{
    "cas_no": "1596-84-5",
    "key_name": "Daminozide",
    "cn_name": "丁酰肼;比久;丁二酸-N,N-二甲基酰肼;N-二甲胺基琥珀酰胺;",
    "alternate_name": "Butanedioic acid, 1-(2,2-dimethylhydrazide);Succinic acid, mono(2,2-dimethylhydrazide);Butanedioic acid, mono(2,2-dimethylhydrazide);B 995;<em>N</em>-(Dimethylamino)succinamic acid;DMASA;Alar;B-Nine;Succinic acid 2,2-dimethylhydrazide;Aminozide;Alar 85;SADH;Kylar;Aminozid;Daminozide;Succinic acid <em>N</em>,<em>N</em>-dimethylhydrazide;Succinic <em>N</em>′,<em>N</em>′-dimethylhydrazide;Dimas;DYaK;DIMG;Dazide;Bijiu",
    "duplicated_cas_no": "1861-26-3;74913-15-8",
    "SMILES": "C(CCC(O)=O)(NN(C)C)=O",
    "meta_data": {
        "InChI": "InChI=1S/C6H12N2O3/c1-8(2)7-5(9)3-4-6(10)11/h3-4H2,1-2H3,(H,7,9)(H,10,11)",
        "InChIKey": null,
        "Canonical SMILES": "O=C(O)CCC(=O)NN(C)C",
        "Molecular Formula": "C<sub>6</sub>H<sub>12</sub>N<sub>2</sub>O<sub>3</sub>",
        "Molecular Mass": "160.17",
        "Melting Point": "154-155 °C"
    }
}