{
    "cas_no": "13838-08-9",
    "key_name": "Azidamfenicol",
    "cn_name": null,
    "alternate_name": "Acetamide, 2-azido-<em>N</em>-[(1<em>R</em>,2<em>R</em>)-2-hydroxy-1-(hydroxymethyl)-2-(4-nitrophenyl)ethyl]-;Acetamide, 2-azido-<em>N</em>-[β-hydroxy-α-(hydroxymethyl)-<em>p</em>-nitrophenethyl]-, <span class=\"text-smallcaps\">D</span>-<em>threo</em>-(-)-;Acetamide, 2-azido-<em>N</em>-[2-hydroxy-1-(hydroxymethyl)-2-(4-nitrophenyl)ethyl]-, [<em>R</em>-(<em>R</em>*,<em>R</em>*)]-;2-Azido-<em>N</em>-[(1<em>R</em>,2<em>R</em>)-2-hydroxy-1-(hydroxymethyl)-2-(4-nitrophenyl)ethyl]acetamide;<span class=\"text-smallcaps\">D</span>-(-)-<em>threo</em>-1-<em>p</em>-Nitrophenyl-2-azidoacetylamino-1,3-propanediol;Azidamphenicol;Azidoamphenicol;Azidamfenicol;Leukomycin N;(-)-Azidamphenicol",
    "duplicated_cas_no": "",
    "SMILES": "[C@@H]([C@H](NC(CN=[N+]=[N-])=O)CO)(O)C1=CC=C(N(=O)=O)C=C1",
    "meta_data": {
        "InChI": "InChI=1S/C11H13N5O5/c12-15-13-5-10(18)14-9(6-17)11(19)7-1-3-8(4-2-7)16(20)21/h1-4,9,11,17,19H,5-6H2,(H,14,18)/t9-,11-/m1/s1",
        "InChIKey": null,
        "Canonical SMILES": "[N-]=[N+]=NCC(=O)NC(CO)C(O)C1=CC=C(C=C1)N(=O)=O",
        "Molecular Formula": "C<sub>11</sub>H<sub>13</sub>N<sub>5</sub>O<sub>5</sub>",
        "Molecular Mass": "",
        "Melting Point": "107 °C"
    }
}