{
    "cas_no": "87-68-3",
    "key_name": "Hexachlorobutadiene",
    "cn_name": null,
    "alternate_name": "1,3-Butadiene, 1,1,2,3,4,4-hexachloro-;Butadiene, hexachloro-;1,1,2,3,4,4-Hexachloro-1,3-butadiene;Hexachloro-1,3-butadiene;Hexachlorobutadiene;C 46;Perchlorobutadiene;Perchloro-1,3-butadiene;HCB;NSC 3701",
    "duplicated_cas_no": "",
    "SMILES": "C(C(=C(Cl)Cl)Cl)(=C(Cl)Cl)Cl",
    "meta_data": {
        "InChI": "InChI=1S/C4Cl6/c5-1(3(7)8)2(6)4(9)10",
        "InChIKey": null,
        "Canonical SMILES": "ClC(Cl)=C(Cl)C(Cl)=C(Cl)Cl",
        "Molecular Formula": "C<sub>4</sub>Cl<sub>6</sub>",
        "Molecular Mass": "260.76",
        "Boiling Point": "215 °C @ Press: 760 Torr",
        "Melting Point": "-21 °C",
        "Density": "1.556 g/cm³ @ Temp: 25 °C"
    }
}