{
    "cas_no": "5614-37-9",
    "key_name": "Cyclopentyl methyl ether",
    "cn_name": "环戊基甲醚;甲氧基环戊烷;",
    "alternate_name": "Cyclopentane, methoxy-;Ether, cyclopentyl methyl;Methoxycyclopentane;Cyclopentyl methyl ether;Methyl cyclopentyl ether;CPME;H 27349",
    "duplicated_cas_no": "",
    "SMILES": "O(C)C1CCCC1",
    "meta_data": {
        "InChI": "InChI=1S/C6H12O/c1-7-6-4-2-3-5-6/h6H,2-5H2,1H3",
        "InChIKey": null,
        "Canonical SMILES": "O(C)C1CCCC1",
        "Molecular Formula": "C<sub>6</sub>H<sub>12</sub>O",
        "Molecular Mass": "100.16",
        "Boiling Point": "105.44 °C @ Press: 760 Torr",
        "Density": "0.86 g/cm³ @ Temp: 20 °C"
    }
}