{
    "cas_no": "627-27-0",
    "key_name": "3-Buten-1-ol",
    "cn_name": "3-丁烯-1-醇;",
    "alternate_name": "3-Buten-1-ol;1-Buten-4-ol;3-Butenyl alcohol;Allylcarbinol;1-Hydroxy-3-butene;Homoallyl alcohol;4-Hydroxy-1-butene;β-Vinylethanol;NSC 60194;But-3-en-1-ol;3-Butenol",
    "duplicated_cas_no": "2382877-29-2",
    "SMILES": "C(C=C)CO",
    "meta_data": {
        "InChI": "InChI=1S/C4H8O/c1-2-3-4-5/h2,5H,1,3-4H2",
        "InChIKey": null,
        "Canonical SMILES": "OCCC=C",
        "Molecular Formula": "C<sub>4</sub>H<sub>8</sub>O",
        "Molecular Mass": "72.11",
        "Boiling Point": "113.5 °C",
        "Density": "0.848 g/cm³ @ Temp: 17 °C"
    }
}