{
    "cas_no": "80-65-9",
    "key_name": "3-Amino-2-oxazolidinone",
    "cn_name": null,
    "alternate_name": "2-Oxazolidinone, 3-amino-;3-Amino-2-oxazolidinone;3-Amino-2-oxazolidone;3-Amino-1,3-oxazolidin-2-one;NSC 111187;NSC 196570;NSC 38250",
    "duplicated_cas_no": "",
    "SMILES": "O=C1N(N)CCO1",
    "meta_data": {
        "InChI": "InChI=1S/C3H6N2O2/c4-5-1-2-7-3(5)6/h1-2,4H2",
        "InChIKey": null,
        "Canonical SMILES": "O=C1OCCN1N",
        "Molecular Formula": "C<sub>3</sub>H<sub>6</sub>N<sub>2</sub>O<sub>2</sub>",
        "Molecular Mass": "102.09",
        "Boiling Point": "130-135 °C @ Press: 10 Torr",
        "Melting Point": "34 °C"
    }
}