{
    "cas_no": "6076-13-7",
    "key_name": "4,5,6,7-Tetrahydro-1<em>H</em>-indazole-3-carboxylic acid",
    "cn_name": null,
    "alternate_name": "1<em>H</em>-Indazole-3-carboxylic acid, 4,5,6,7-tetrahydro-;4,5,6,7-Tetrahydro-1<em>H</em>-indazole-3-carboxylic acid;3-Carboxy-4,5,6,7-tetrahydroindazole;4,5,6,7-Tetrahydroindazole-3-carboxylic acid",
    "duplicated_cas_no": "",
    "SMILES": "C(O)(=O)C=1C2=C(NN1)CCCC2",
    "meta_data": {
        "InChI": "InChI=1S/C8H10N2O2/c11-8(12)7-5-3-1-2-4-6(5)9-10-7/h1-4H2,(H,9,10)(H,11,12)",
        "InChIKey": null,
        "Canonical SMILES": "O=C(O)C1=NNC2=C1CCCC2",
        "Molecular Formula": "C<sub>8</sub>H<sub>10</sub>N<sub>2</sub>O<sub>2</sub>",
        "Molecular Mass": "166.18",
        "Melting Point": "254 °C"
    }
}