{
    "cas_no": "5402-55-1",
    "key_name": "2-Thiopheneethanol",
    "cn_name": "2-噻吩乙醇;",
    "alternate_name": "2-Thiopheneethanol;2-(2-Thienyl)ethanol;2-(2-Hydroxyethyl)thiophene;2-(2-Thienyl)-1-ethanol;2-(2-Hydroxyethyl)thiofuran;NSC 5136;2-(Thiophen-2-yl)ethanol;2-(Thiophen-2-yl)ethan-1-ol;2-Thiophenylethanol",
    "duplicated_cas_no": "",
    "SMILES": "C(CO)C1=CC=CS1",
    "meta_data": {
        "InChI": "InChI=1S/C6H8OS/c7-4-3-6-2-1-5-8-6/h1-2,5,7H,3-4H2",
        "InChIKey": null,
        "Canonical SMILES": "OCCC=1SC=CC1",
        "Molecular Formula": "C<sub>6</sub>H<sub>8</sub>OS",
        "Molecular Mass": "128.19",
        "Boiling Point": "90.5 °C @ Press: 11 Torr",
        "Density": "1.0926 g/cm³ @ Temp: 20 °C"
    }
}