{
    "cas_no": "50-79-3",
    "key_name": "2,5-Dichlorobenzoic acid",
    "cn_name": "2,5-二氯苯甲酸;",
    "alternate_name": "Benzoic acid, 2,5-dichloro-;2,5-Dichlorobenzoic acid;NSC 41889",
    "duplicated_cas_no": "",
    "SMILES": "C(O)(=O)C1=C(Cl)C=CC(Cl)=C1",
    "meta_data": {
        "InChI": "InChI=1S/C7H4Cl2O2/c8-4-1-2-6(9)5(3-4)7(10)11/h1-3H,(H,10,11)",
        "InChIKey": null,
        "Canonical SMILES": "O=C(O)C1=CC(Cl)=CC=C1Cl",
        "Molecular Formula": "C<sub>7</sub>H<sub>4</sub>Cl<sub>2</sub>O<sub>2</sub>",
        "Molecular Mass": "191.01",
        "Boiling Point": "301 °C",
        "Melting Point": "154.4 °C"
    }
}