{
    "cas_no": "534-26-9",
    "key_name": "2-Methylimidazoline",
    "cn_name": "2-甲基-2-咪唑啉;2-甲基-4,5-二氢化咪唑;2-甲基-2-咪唑啉;2-甲-2-二氫咪唑;2-甲-2-咪唑啉;2-甲-4,5-二氫咪;",
    "alternate_name": "1<em>H</em>-Imidazole, 4,5-dihydro-2-methyl-;2-Imidazoline, 2-methyl-;4,5-Dihydro-2-methyl-1<em>H</em>-imidazole;Lysidine;Methylglyoxalidine;2-Methyl-Δ<sup>2</sup>-imidazoline;2-Methyl-2-imidazoline;2-Methylimidazoline;2-Methyl-4,5-dihydroimidazole;2-Methyl-4,5-dihydro-1<em>H</em>-imidazole",
    "duplicated_cas_no": "",
    "SMILES": "CC=1NCCN1",
    "meta_data": {
        "InChI": "InChI=1S/C4H8N2/c1-4-5-2-3-6-4/h2-3H2,1H3,(H,5,6)",
        "InChIKey": null,
        "Canonical SMILES": "N1=C(NCC1)C",
        "Molecular Formula": "C<sub>4</sub>H<sub>8</sub>N<sub>2</sub>",
        "Molecular Mass": "84.12",
        "Boiling Point": "196.5 °C",
        "Melting Point": "107 °C"
    }
}