{
    "cas_no": "4651-82-5",
    "key_name": "2-Aminothiophene-3-carbonitrile",
    "cn_name": "2-氨基噻吩-3-甲腈;2-氨基噻吩-3-甲腈;",
    "alternate_name": "3-Thiophenecarbonitrile, 2-amino-;2-Amino-3-thiophenecarbonitrile;2-Amino-3-cyanothiophene;2-Aminothiophene-3-carbonitrile",
    "duplicated_cas_no": "",
    "SMILES": "C(#N)C1=C(N)SC=C1",
    "meta_data": {
        "InChI": "InChI=1S/C5H4N2S/c6-3-4-1-2-8-5(4)7/h1-2H,7H2",
        "InChIKey": null,
        "Canonical SMILES": "N#CC=1C=CSC1N",
        "Molecular Formula": "C<sub>5</sub>H<sub>4</sub>N<sub>2</sub>S",
        "Molecular Mass": "124.16",
        "Melting Point": "104-105 °C"
    }
}