{
    "cas_no": "7443-52-9",
    "key_name": "<em>trans</em>-2-Methylcyclohexanol",
    "cn_name": "反-2-甲基环已醇;",
    "alternate_name": "Cyclohexanol, 2-methyl-, (1<em>R</em>,2<em>R</em>)-<em>rel</em>-;Cyclohexanol, 2-methyl-, <em>trans</em>-;<em>rel</em>-(1<em>R</em>,2<em>R</em>)-2-Methylcyclohexanol;<em>trans</em>-2-Methylcyclohexanol;<em>trans</em>-2-Methyl-1-cyclohexanol;(±)-<em>trans</em>-2-Methylcyclohexanol;<em>trans</em>-1-Hydroxy-2-methylcyclohexane;NSC 244887;NSC 245854;<em>rel</em>-(1<em>S</em>,2<em>S</em>)-2-Methylcyclohexanol",
    "duplicated_cas_no": "615-39-4",
    "SMILES": "C[C@H]1[C@H](O)CCCC1",
    "meta_data": {
        "InChI": "InChI=1/C7H14O/c1-6-4-2-3-5-7(6)8/h6-8H,2-5H2,1H3/t6-,7-/s2",
        "InChIKey": null,
        "Canonical SMILES": "OC1CCCCC1C",
        "Molecular Formula": "C<sub>7</sub>H<sub>14</sub>O",
        "Molecular Mass": "114.19",
        "Boiling Point": "167.4 °C",
        "Melting Point": "-21 °C",
        "Density": "0.9238 g/cm³ @ Temp: 20 °C"
    }
}