{
    "cas_no": "7372-30-7",
    "key_name": "3-<em>O</em>-Acetylursolic acid",
    "cn_name": "熊果酸乙酸酯;(3beta)-3-(乙酰氧基)乌苏-12-烯-28-酸;",
    "alternate_name": "Urs-12-en-28-oic acid, 3-(acetyloxy)-, (3β)-;Urs-12-en-28-oic acid, 3β-hydroxy-, acetate;(3β)-3-(Acetyloxy)urs-12-en-28-oic acid;Ursolic acid acetate;Acetylursolic acid;3-<em>O</em>-Acetylursolic acid;Ursolic acetate;Ursolic acid 3-<em>O</em>-acetate;Ursolic acid 3-acetate;3-Acetylursolic acid",
    "duplicated_cas_no": "",
    "SMILES": "C[C@]12[C@@]3(C)C([C@]4([C@@](C(O)=O)(CC3)CC[C@@H](C)[C@@H]4C)[H])=CC[C@@]1([C@]5(C)[C@@](CC2)(C(C)(C)[C@@H](OC(C)=O)CC5)[H])[H]",
    "meta_data": {
        "InChI": "InChI=1S/C32H50O4/c1-19-11-16-32(27(34)35)18-17-30(7)22(26(32)20(19)2)9-10-24-29(6)14-13-25(36-21(3)33)28(4,5)23(29)12-15-31(24,30)8/h9,19-20,23-26H,10-18H2,1-8H3,(H,34,35)/t19-,20+,23+,24-,25+,26+,29+,30-,31-,32+/m1/s1",
        "InChIKey": null,
        "Canonical SMILES": "O=C(OC1CCC2(C)C3CC=C4C5C(C)C(C)CCC5(C(=O)O)CCC4(C)C3(C)CCC2C1(C)C)C",
        "Molecular Formula": "C<sub>32</sub>H<sub>50</sub>O<sub>4</sub>",
        "Molecular Mass": "498.74",
        "Melting Point": "279-280 °C"
    }
}