{
    "cas_no": "15936-81-9",
    "key_name": "5-Bromo-7-methyl-1<em>H</em>-indole",
    "cn_name": null,
    "alternate_name": "1<em>H</em>-Indole, 5-bromo-7-methyl-;Indole, 5-bromo-7-methyl-;5-Bromo-7-methyl-1<em>H</em>-indole;5-Bromo-7-methylindole",
    "duplicated_cas_no": "",
    "SMILES": "CC1=C2C(=CC(Br)=C1)C=CN2",
    "meta_data": {
        "InChI": "InChI=1S/C9H8BrN/c1-6-4-8(10)5-7-2-3-11-9(6)7/h2-5,11H,1H3",
        "InChIKey": null,
        "Canonical SMILES": "BrC1=CC=2C=CNC2C(=C1)C",
        "Molecular Formula": "C<sub>9</sub>H<sub>8</sub>BrN",
        "Molecular Mass": "210.07",
        "Boiling Point": "165 °C @ Press: 0.1 Torr"
    }
}