{
    "cas_no": "17606-31-4",
    "key_name": "Bensultap",
    "cn_name": "杀虫磺;S,S\"-[2-(二甲基氨基)-1,3-丙二基]二苯硫代磺酸酯;",
    "alternate_name": "Benzenesulfonothioic acid, <em>S</em><sup>1</sup>,<em>S</em><sup>1′</sup>-[2-(dimethylamino)-1,3-propanediyl] ester;Benzenesulfonic acid, thio-, <em>S</em>,<em>S</em>′-[2-(dimethylamino)trimethylene] ester;Benzenesulfonothioic acid, <em>S</em>,<em>S</em>′-[2-(dimethylamino)-1,3-propanediyl] ester;1,3-Bis(phenylsulfonylthio)-2-(<em>N</em>,<em>N</em>-dimethylamino)propane;TI 78;TI 1671;Bancol;Ruban;Victenon;ZZ-Doricida;Bensultap",
    "duplicated_cas_no": "",
    "SMILES": "S(SCC(CSS(=O)(=O)C1=CC=CC=C1)N(C)C)(=O)(=O)C2=CC=CC=C2",
    "meta_data": {
        "InChI": "InChI=1S/C17H21NO4S4/c1-18(2)15(13-23-25(19,20)16-9-5-3-6-10-16)14-24-26(21,22)17-11-7-4-8-12-17/h3-12,15H,13-14H2,1-2H3",
        "InChIKey": null,
        "Canonical SMILES": "O=S(=O)(SCC(N(C)C)CSS(=O)(=O)C=1C=CC=CC1)C=2C=CC=CC2",
        "Molecular Formula": "C<sub>17</sub>H<sub>21</sub>NO<sub>4</sub>S<sub>4</sub>",
        "Molecular Mass": "431.61",
        "Melting Point": "83.5 °C"
    }
}