{
    "cas_no": "1080-06-4",
    "key_name": "<span class=\"text-smallcaps\">L</span>-Tyrosine, methyl ester",
    "cn_name": "L-酪氨酸甲酯;",
    "alternate_name": "<span class=\"text-smallcaps\">L</span>-Tyrosine, methyl ester;Tyrosine, methyl ester, <span class=\"text-smallcaps\">L</span>-;Methyl <span class=\"text-smallcaps\">L</span>-tyrosinate;Tyrosine methyl ester;Methyl tyrosinate;Methyl (2S)-3-(4-hydroxyphenyl)-2-aminopropionate;Methyl (2<em>S</em>)-2-amino-3-(4-hydroxyphenyl)propionate;(<em>S</em>)-2-Amino-3-(4-hydroxyphenyl)propionic acid methyl ester;Methyl (<em>S</em>)-2-amino-3-(4-hydroxyphenyl)propanoate;<em>S</em>-Tyrosine methyl ester;Methyl (2S)-2-amino-3-(4-hydroxyphenyl)propanoate",
    "duplicated_cas_no": "24425-83-0;25311-49-3;158275-02-6",
    "SMILES": "C([C@@H](C(OC)=O)N)C1=CC=C(O)C=C1",
    "meta_data": {
        "InChI": "InChI=1S/C10H13NO3/c1-14-10(13)9(11)6-7-2-4-8(12)5-3-7/h2-5,9,12H,6,11H2,1H3/t9-/m0/s1",
        "InChIKey": null,
        "Canonical SMILES": "O=C(OC)C(N)CC1=CC=C(O)C=C1",
        "Molecular Formula": "C<sub>10</sub>H<sub>13</sub>NO<sub>3</sub>",
        "Molecular Mass": "195.22",
        "Melting Point": "135-139 °C"
    }
}