{
    "cas_no": "5459-93-8",
    "key_name": "Cyclohexylethylamine",
    "cn_name": "N-乙基环己胺;",
    "alternate_name": "Cyclohexanamine, <em>N</em>-ethyl-;Cyclohexylamine, <em>N</em>-ethyl-;<em>N</em>-Ethylcyclohexanamine;Accelerator HX;Cyclohexylethylamine;<em>N</em>-Ethylcyclohexylamine;<em>N</em>-Cyclohexylethylamine;Vulkacit HX;(Ethylamino)cyclohexane;<em>N</em>-Cyclohexyl-<em>N</em>-ethylamine;NSC 6272;<em>N</em>-Ethyl-<em>N</em>-cyclohexylamine",
    "duplicated_cas_no": "",
    "SMILES": "N(CC)C1CCCCC1",
    "meta_data": {
        "InChI": "InChI=1S/C8H17N/c1-2-9-8-6-4-3-5-7-8/h8-9H,2-7H2,1H3",
        "InChIKey": null,
        "Canonical SMILES": "N(CC)C1CCCCC1",
        "Molecular Formula": "C<sub>8</sub>H<sub>17</sub>N",
        "Molecular Mass": "127.23",
        "Boiling Point": "164 °C @ Press: 760 Torr",
        "Melting Point": "163-166 °C",
        "Density": "0.868 g/cm³ @ Temp: 0 °C"
    }
}