{
    "cas_no": "2495-25-2",
    "key_name": "Tridecyl methacrylate",
    "cn_name": "甲基丙烯酸十三烷基酯;2-甲基-2-丙烯酸十三烷基酯;",
    "alternate_name": "2-Propenoic acid, 2-methyl-, tridecyl ester;Methacrylic acid, tridecyl ester;1-Tridecanol, methacrylate;Tridecyl methacrylate;1-Tridecyl methacrylate;SR 493;Light Ester TD;SR 493D;Acryester TD;C 13MA;Sarbio 6101",
    "duplicated_cas_no": "",
    "SMILES": "C(CCCCCCCCCCCC)OC(C(C)=C)=O",
    "meta_data": {
        "InChI": "InChI=1S/C17H32O2/c1-4-5-6-7-8-9-10-11-12-13-14-15-19-17(18)16(2)3/h2,4-15H2,1,3H3",
        "InChIKey": null,
        "Canonical SMILES": "O=C(OCCCCCCCCCCCCC)C(=C)C",
        "Molecular Formula": "C<sub>17</sub>H<sub>32</sub>O<sub>2</sub>",
        "Molecular Mass": "268.43",
        "Boiling Point": "118 °C @ Press: 1 Torr",
        "Density": "0.8740 g/cm³ @ Temp: 20 °C"
    }
}