{
    "cas_no": "59557-91-4",
    "key_name": "4-Bromo-2-methoxybenzenamine",
    "cn_name": "4-溴-2-甲氧基苯胺;",
    "alternate_name": "Benzenamine, 4-bromo-2-methoxy-;<em>o</em>-Anisidine, 4-bromo-;4-Bromo-2-methoxybenzenamine;4-Bromo-<em>o</em>-anisidine;2-Amino-5-bromoanisole;4-Bromo-2-methoxyaniline;2-Methoxy-4-bromoaniline;4-Bromo-2-methoxyphenylamine",
    "duplicated_cas_no": "",
    "SMILES": "O(C)C1=C(N)C=CC(Br)=C1",
    "meta_data": {
        "InChI": "InChI=1S/C7H8BrNO/c1-10-7-4-5(8)2-3-6(7)9/h2-4H,9H2,1H3",
        "InChIKey": null,
        "Canonical SMILES": "BrC1=CC=C(N)C(OC)=C1",
        "Molecular Formula": "C<sub>7</sub>H<sub>8</sub>BrNO",
        "Molecular Mass": "202.05",
        "Melting Point": "60-61 °C"
    }
}