{
    "cas_no": "7307-55-3",
    "key_name": "Undecylamine",
    "cn_name": null,
    "alternate_name": "1-Undecanamine;Undecylamine;<em>n</em>-Undecylamine;Hendecylamine;1-Undecylamine;1-Aminoundecane;Monoundecylamine;NSC 3398",
    "duplicated_cas_no": "",
    "SMILES": "C(CCCCCN)CCCCC",
    "meta_data": {
        "InChI": "InChI=1S/C11H25N/c1-2-3-4-5-6-7-8-9-10-11-12/h2-12H2,1H3",
        "InChIKey": null,
        "Canonical SMILES": "NCCCCCCCCCCC",
        "Molecular Formula": "C<sub>11</sub>H<sub>25</sub>N",
        "Molecular Mass": "171.32",
        "Boiling Point": "242 °C",
        "Melting Point": "17 °C"
    }
}