{
    "cas_no": "6320-40-7",
    "key_name": "2,4,6-Tribromotoluene",
    "cn_name": "2,4,6-三溴甲苯;",
    "alternate_name": "Benzene, 1,3,5-tribromo-2-methyl-;Toluene, 2,4,6-tribromo-;1,3,5-Tribromo-2-methylbenzene;2,4,6-Tribromotoluene;NSC 31887",
    "duplicated_cas_no": "",
    "SMILES": "CC1=C(Br)C=C(Br)C=C1Br",
    "meta_data": {
        "InChI": "InChI=1S/C7H5Br3/c1-4-6(9)2-5(8)3-7(4)10/h2-3H,1H3",
        "InChIKey": null,
        "Canonical SMILES": "BrC=1C=C(Br)C(=C(Br)C1)C",
        "Molecular Formula": "C<sub>7</sub>H<sub>5</sub>Br<sub>3</sub>",
        "Molecular Mass": "328.83",
        "Boiling Point": "290 °C",
        "Melting Point": "70 °C"
    }
}