{
    "cas_no": "55-86-7",
    "key_name": "Nitrogen mustard",
    "cn_name": "恩比兴;盐酸氮芥;氮芥盐酸盐;",
    "alternate_name": "Ethanamine, 2-chloro-<em>N</em>-(2-chloroethyl)-<em>N</em>-methyl-, hydrochloride (1:1);Diethylamine, 2,2′-dichloro-<em>N</em>-methyl-, hydrochloride;Ethanamine, 2-chloro-<em>N</em>-(2-chloroethyl)-<em>N</em>-methyl-, hydrochloride;Bis(2-chloroethyl)methylamine hydrochloride;Caryolysine;Dichloren;2,2′-Dichloro-<em>N</em>-methyldiethylamine hydrochloride;Erasol;HN<sub>2</sub> hydrochloride;MBA hydrochloride;Mechlorethamine hydrochloride;Methylbis(β-chloroethyl)amine hydrochloride;Methylbis(2-chloroethyl)amine hydrochloride;Mustargen hydrochloride;Mustine hydrochloride;Nitrogen mustard hydrochloride;NSC 762 hydrochloride;Chloramin;Nitrogranulogen;Chloramine;Dimitan;Kloramin;Embichin;Chlormethinum;1,5-Dichloro-3-methyl-3-azapentane hydrochloride;NSC 762;Nitrogen mustard;Antimit;N-Lost;<em>N</em>,<em>N</em>-Bis(2-chloroethyl)methanamine hydrochloride;Embiquine;Bis(2-chloroethyl)-<em>N</em>-methylamine hydrochloride;<em>N</em>-Methylbis(2-chloroethyl)amine hydrochloride;Erasol hydrochloride;Dichloren hydrochloride;Nitol;Chlorethamine;SK 101;Chlormethine hydrochloride;NM;NCI C56382;Embikhine;Nitol takeda;Azotoyperite;Caryolysine hydrochloride;Dema;Erasol-Ido;Mitoxine;Chloramin hydrochloride;Dichloromethyldiethylamine hydrochloride;Nitrogranulogen hydrochloride;Embechine;C 6866;Embichin hydrochloride;Nitrogen mustard (HN 2) hydrochloride;<em>N</em>-Methyl-<em>N</em>,<em>N</em>-bis(2-chloroethyl)amine hydrochloride;2-Chloro-<em>N</em>-(2-chloroethyl)-<em>N</em>-methylethanamine hydrochloride;Mechlorothamine",
    "duplicated_cas_no": "37244-63-6;159923-90-7;2585196-17-2",
    "SMILES": "N(CCCl)(CCCl)C.Cl",
    "meta_data": {
        "InChI": "InChI=1S/C5H11Cl2N.ClH/c1-8(4-2-6)5-3-7;/h2-5H2,1H3;1H",
        "InChIKey": null,
        "Canonical SMILES": "Cl.ClCCN(C)CCCl",
        "Molecular Formula": "C<sub>5</sub>H<sub>11</sub>Cl<sub>2</sub>N.ClH",
        "Molecular Mass": "",
        "Melting Point": "109-111 °C"
    }
}