{
    "cas_no": "4430-31-3",
    "key_name": "Octahydrocoumarin",
    "cn_name": "八氢化香豆素;八氢-2H-1-苯并吡喃-2-酮;",
    "alternate_name": "2<em>H</em>-1-Benzopyran-2-one, octahydro-;Coumarin, octahydro-;Cyclohexanepropionic acid, 2-hydroxy-, δ-lactone;Octahydro-2<em>H</em>-1-benzopyran-2-one;Octahydrocoumarin;Cyclohexanepropanoic acid, 2-hydroxy-, δ-lactone;2-Oxabicyclo[4.4.0]decan-3-one;3,4,4a,5,6,7,8,8a-Octahydrochromen-2-one",
    "duplicated_cas_no": "",
    "SMILES": "O=C1OC2C(CC1)CCCC2",
    "meta_data": {
        "InChI": "InChI=1S/C9H14O2/c10-9-6-5-7-3-1-2-4-8(7)11-9/h7-8H,1-6H2",
        "InChIKey": null,
        "Canonical SMILES": "O=C1OC2CCCCC2CC1",
        "Molecular Formula": "C<sub>9</sub>H<sub>14</sub>O<sub>2</sub>",
        "Molecular Mass": "154.21",
        "Boiling Point": "110 °C @ Press: 1 Torr",
        "Density": "1.0999 g/cm³ @ Temp: 24 °C"
    }
}