{
    "cas_no": "100-26-5",
    "key_name": "2,5-Pyridinedicarboxylic acid",
    "cn_name": "吡啶-2,5-二羧酸;2,5-吡啶二羧酸;2,5-二吡啶羧酸;吡啶二羧酸;2,5-吡啶二甲酸;",
    "alternate_name": "2,5-Pyridinedicarboxylic acid;Isocinchomeronic acid;NSC 177;2,5-Dicarboxypyridine",
    "duplicated_cas_no": "1355602-04-8",
    "SMILES": "C(O)(=O)C=1C=CC(C(O)=O)=NC1",
    "meta_data": {
        "InChI": "InChI=1S/C7H5NO4/c9-6(10)4-1-2-5(7(11)12)8-3-4/h1-3H,(H,9,10)(H,11,12)",
        "InChIKey": null,
        "Canonical SMILES": "O=C(O)C1=NC=C(C=C1)C(=O)O",
        "Molecular Formula": "C<sub>7</sub>H<sub>5</sub>NO<sub>4</sub>",
        "Molecular Mass": "167.12",
        "Boiling Point": "236 °C",
        "Melting Point": "254 °C"
    }
}