{
    "cas_no": "996-30-5",
    "key_name": "Sodium isobutyrate",
    "cn_name": "异丁酸钠;异丁酸钠;异丁酸钠盐;",
    "alternate_name": "Propanoic acid, 2-methyl-, sodium salt (1:1);Isobutyric acid, sodium salt;Propanoic acid, 2-methyl-, sodium salt;Sodium isobutyrate;Sodium 2-methylpropanoate;Sodium isobutanoate;Sodium 2-methylpropionate",
    "duplicated_cas_no": "",
    "SMILES": "C(C(O)=O)(C)C.[Na]",
    "meta_data": {
        "InChI": "InChI=1S/C4H8O2.Na/c1-3(2)4(5)6;/h3H,1-2H3,(H,5,6);",
        "InChIKey": null,
        "Canonical SMILES": "[Na].O=C(O)C(C)C",
        "Molecular Formula": "C<sub>4</sub>H<sub>8</sub>O<sub>2</sub>.Na",
        "Molecular Mass": "",
        "Melting Point": "250 °C"
    }
}