{
    "cas_no": "3770-22-7",
    "key_name": "6-Oxo-2-piperidinecarboxylic acid",
    "cn_name": "6-氧代哌啶-2-甲酸;6-氧代哌啶-2-甲酸;",
    "alternate_name": "2-Piperidinecarboxylic acid, 6-oxo-;Pipecolic acid, 6-oxo-;6-Oxo-2-piperidinecarboxylic acid;6-Oxopipecolic acid",
    "duplicated_cas_no": "64520-52-1",
    "SMILES": "C(O)(=O)C1NC(=O)CCC1",
    "meta_data": {
        "InChI": "InChI=1S/C6H9NO3/c8-5-3-1-2-4(7-5)6(9)10/h4H,1-3H2,(H,7,8)(H,9,10)",
        "InChIKey": null,
        "Canonical SMILES": "O=C1NC(C(=O)O)CCC1",
        "Molecular Formula": "C<sub>6</sub>H<sub>9</sub>NO<sub>3</sub>",
        "Molecular Mass": "143.14",
        "Melting Point": "178-179 °C"
    }
}