{
    "cas_no": "1528-30-9",
    "key_name": "Methylenecyclopentane",
    "cn_name": null,
    "alternate_name": "Cyclopentane, methylene-;Methylenecyclopentane;Methylidenecyclopentane",
    "duplicated_cas_no": "",
    "SMILES": "C=C1CCCC1",
    "meta_data": {
        "InChI": "InChI=1S/C6H10/c1-6-4-2-3-5-6/h1-5H2",
        "InChIKey": null,
        "Canonical SMILES": "C=C1CCCC1",
        "Molecular Formula": "C<sub>6</sub>H<sub>10</sub>",
        "Molecular Mass": "82.14",
        "Boiling Point": "75.5 °C",
        "Density": "0.7806 g/cm³ @ Temp: 420 °C"
    }
}