{
    "cas_no": "2482-25-9",
    "key_name": "4-Hydroxyhippuric acid",
    "cn_name": null,
    "alternate_name": "Glycine, <em>N</em>-(4-hydroxybenzoyl)-;Hippuric acid, <em>p</em>-hydroxy-;<em>N</em>-(4-Hydroxybenzoyl)glycine;<em>p</em>-Hydroxyhippuric acid;4-Hydroxyhippuric acid;<em>N</em>-(<em>p</em>-Hydroxybenzoyl)glycine;4-Hydroxybenzoylglycine;4′-Hydroxyhippuric acid;2-[(4-Hydroxyphenyl)formamido]acetic acid;2-[(4-Hydroxybenzoyl)amino]acetic acid;2-(4-Hydroxybenzamido)aceticacid",
    "duplicated_cas_no": "",
    "SMILES": "C(NCC(O)=O)(=O)C1=CC=C(O)C=C1",
    "meta_data": {
        "InChI": "InChI=1S/C9H9NO4/c11-7-3-1-6(2-4-7)9(14)10-5-8(12)13/h1-4,11H,5H2,(H,10,14)(H,12,13)",
        "InChIKey": null,
        "Canonical SMILES": "O=C(O)CNC(=O)C1=CC=C(O)C=C1",
        "Molecular Formula": "C<sub>9</sub>H<sub>9</sub>NO<sub>4</sub>",
        "Molecular Mass": "195.17",
        "Melting Point": "240 °C (decomp)"
    }
}