{
    "cas_no": "7145-82-6",
    "key_name": "1,2,4-Trichloro-5-iodobenzene",
    "cn_name": "1-碘-2,4,5-三氯苯;",
    "alternate_name": "Benzene, 1,2,4-trichloro-5-iodo-;1,2,4-Trichloro-5-iodobenzene;2,4,5-Trichloroiodobenzene;NSC 74997;2,4,5-Trichloro-1-iodobenzene;1-Iodo-2,4,5-trichlorobenzene",
    "duplicated_cas_no": "",
    "SMILES": "ClC1=C(Cl)C=C(I)C(Cl)=C1",
    "meta_data": {
        "InChI": "InChI=1S/C6H2Cl3I/c7-3-1-5(9)6(10)2-4(3)8/h1-2H",
        "InChIKey": null,
        "Canonical SMILES": "ClC=1C=C(Cl)C(I)=CC1Cl",
        "Molecular Formula": "C<sub>6</sub>H<sub>2</sub>Cl<sub>3</sub>I",
        "Molecular Mass": "307.34",
        "Melting Point": "107 °C"
    }
}