{
    "cas_no": "57543-40-5",
    "key_name": "6-Methoxy-2<em>H</em>-1-benzopyran-3-carboxaldehyde",
    "cn_name": null,
    "alternate_name": "2<em>H</em>-1-Benzopyran-3-carboxaldehyde, 6-methoxy-;6-Methoxy-2<em>H</em>-1-benzopyran-3-carboxaldehyde",
    "duplicated_cas_no": "",
    "SMILES": "C(=O)C1=CC=2C(=CC=C(OC)C2)OC1",
    "meta_data": {
        "InChI": "InChI=1S/C11H10O3/c1-13-10-2-3-11-9(5-10)4-8(6-12)7-14-11/h2-6H,7H2,1H3",
        "InChIKey": null,
        "Canonical SMILES": "O=CC1=CC=2C=C(OC)C=CC2OC1",
        "Molecular Formula": "C<sub>11</sub>H<sub>10</sub>O<sub>3</sub>",
        "Molecular Mass": "190.20",
        "Melting Point": "48-49 °C"
    }
}