{
    "cas_no": "500-85-6",
    "key_name": "Phenolindophenol",
    "cn_name": "N-(对羟苯基)-对苯醌;Phenolindophenol;靛酚;N-(对二甲胺基苯)-1,4-萘醌亚胺;靛酚蓝;",
    "alternate_name": "2,5-Cyclohexadien-1-one, 4-[(4-hydroxyphenyl)imino]-;Indophenol;4-[(4-Hydroxyphenyl)imino]-2,5-cyclohexadien-1-one;Benzenoneindophenol;Phenolindophenol;MeSH ID: D007215",
    "duplicated_cas_no": "",
    "SMILES": "N(C1=CC=C(O)C=C1)=C2C=CC(=O)C=C2",
    "meta_data": {
        "InChI": "InChI=1S/C12H9NO2/c14-11-5-1-9(2-6-11)13-10-3-7-12(15)8-4-10/h1-8,14H",
        "InChIKey": null,
        "Canonical SMILES": "O=C1C=CC(=NC2=CC=C(O)C=C2)C=C1",
        "Molecular Formula": "C<sub>12</sub>H<sub>9</sub>NO<sub>2</sub>",
        "Molecular Mass": "199.21",
        "Melting Point": "160 °C"
    }
}