{
    "cas_no": "608-31-1",
    "key_name": "2,6-Dichloroaniline",
    "cn_name": "2,6-二氯苯胺;",
    "alternate_name": "Benzenamine, 2,6-dichloro-;Aniline, 2,6-dichloro-;2,6-Dichlorobenzenamine;2,6-Dichloroaniline;2,6-Dichlorophenylamine",
    "duplicated_cas_no": "51225-19-5",
    "SMILES": "NC1=C(Cl)C=CC=C1Cl",
    "meta_data": {
        "InChI": "InChI=1S/C6H5Cl2N/c7-4-2-1-3-5(8)6(4)9/h1-3H,9H2",
        "InChIKey": null,
        "Canonical SMILES": "ClC1=CC=CC(Cl)=C1N",
        "Molecular Formula": "C<sub>6</sub>H<sub>5</sub>Cl<sub>2</sub>N",
        "Molecular Mass": "162.02",
        "Boiling Point": "97 °C @ Press: 5 Torr",
        "Melting Point": "39 °C"
    }
}