{
    "cas_no": "64481-10-3",
    "key_name": "6,8-Dichloro-4-oxo-4<em>H</em>-1-benzopyran-3-carboxaldehyde",
    "cn_name": "6,8-二氯-3-甲酰色酮;6,8-二氯色酮-3-甲醛甲氧基香豆素-3-甲酸;",
    "alternate_name": "4<em>H</em>-1-Benzopyran-3-carboxaldehyde, 6,8-dichloro-4-oxo-;6,8-Dichloro-4-oxo-4<em>H</em>-1-benzopyran-3-carboxaldehyde;6,8-Dichloro-3-formylchromone",
    "duplicated_cas_no": "",
    "SMILES": "ClC1=C2C(C(=O)C(C=O)=CO2)=CC(Cl)=C1",
    "meta_data": {
        "InChI": "InChI=1S/C10H4Cl2O3/c11-6-1-7-9(14)5(3-13)4-15-10(7)8(12)2-6/h1-4H",
        "InChIKey": null,
        "Canonical SMILES": "O=CC1=COC=2C(Cl)=CC(Cl)=CC2C1=O",
        "Molecular Formula": "C<sub>10</sub>H<sub>4</sub>Cl<sub>2</sub>O<sub>3</sub>",
        "Molecular Mass": "243.04",
        "Melting Point": "170-171 °C"
    }
}