{
    "cas_no": "5973-71-7",
    "key_name": "3,4-Dimethylbenzaldehyde",
    "cn_name": "3,4-二甲基苯甲醛;",
    "alternate_name": "Benzaldehyde, 3,4-dimethyl-;3,4-Dimethylbenzaldehyde;3,4-DBAL",
    "duplicated_cas_no": "",
    "SMILES": "C(=O)C1=CC(C)=C(C)C=C1",
    "meta_data": {
        "InChI": "InChI=1S/C9H10O/c1-7-3-4-9(6-10)5-8(7)2/h3-6H,1-2H3",
        "InChIKey": null,
        "Canonical SMILES": "O=CC1=CC=C(C(=C1)C)C",
        "Molecular Formula": "C<sub>9</sub>H<sub>10</sub>O",
        "Molecular Mass": "134.18",
        "Boiling Point": "225-228 °C"
    }
}