{
    "cas_no": "34124-14-6",
    "key_name": "2,2′-Ethylenedianiline",
    "cn_name": "2,2-亚乙基二苯胺;",
    "alternate_name": "Benzenamine, 2,2′-(1,2-ethanediyl)bis-;α,α′-Bi-<em>o</em>-toluidine;2,2′-(1,2-Ethanediyl)bis[benzenamine];2,2′-Diaminobibenzyl;2,2′-Diaminodibenzyl;NSC 159119;2,2′-Ethylenedianiline;2-(2-(2-Aminophenyl)ethyl)benzenamine;2,2′-(Ethane-1,2-diyl)dianiline;2-[2-(2-Aminophenyl)ethyl]aniline",
    "duplicated_cas_no": "",
    "SMILES": "C(CC1=C(N)C=CC=C1)C2=C(N)C=CC=C2",
    "meta_data": {
        "InChI": "InChI=1S/C14H16N2/c15-13-7-3-1-5-11(13)9-10-12-6-2-4-8-14(12)16/h1-8H,9-10,15-16H2",
        "InChIKey": null,
        "Canonical SMILES": "NC=1C=CC=CC1CCC=2C=CC=CC2N",
        "Molecular Formula": "C<sub>14</sub>H<sub>16</sub>N<sub>2</sub>",
        "Molecular Mass": "212.29",
        "Melting Point": "241-242 °C"
    }
}