{
    "cas_no": "63329-53-3",
    "key_name": "Lobenzarit",
    "cn_name": "氯苯扎利;4-氯-2,2\"-亚氨二苯甲酸;",
    "alternate_name": "Benzoic acid, 2-[(2-carboxyphenyl)amino]-4-chloro-;2-[(2-Carboxyphenyl)amino]-4-chlorobenzoic acid;Lobenzarit;<em>N</em>-(2-Carboxyphenyl)-4-chloroanthranilic acid;CCA;2-(2-Carboxyanilino)-4-chlorobenzoic acid",
    "duplicated_cas_no": "",
    "SMILES": "N(C1=C(C(O)=O)C=CC(Cl)=C1)C2=C(C(O)=O)C=CC=C2",
    "meta_data": {
        "InChI": "InChI=1S/C14H10ClNO4/c15-8-5-6-10(14(19)20)12(7-8)16-11-4-2-1-3-9(11)13(17)18/h1-7,16H,(H,17,18)(H,19,20)",
        "InChIKey": null,
        "Canonical SMILES": "O=C(O)C=1C=CC=CC1NC2=CC(Cl)=CC=C2C(=O)O",
        "Molecular Formula": "C<sub>14</sub>H<sub>10</sub>ClNO<sub>4</sub>",
        "Molecular Mass": "291.69",
        "Melting Point": "&gt;306 °C"
    }
}