{
    "cas_no": "5676-58-4",
    "key_name": "2,5-Dimethylbenzoxazole",
    "cn_name": "2,5-二甲基苯并恶唑;",
    "alternate_name": "Benzoxazole, 2,5-dimethyl-;2,5-Dimethylbenzoxazole;NSC 93785;2,5-Dimethyl-1,3-benzoxazole;2,5-Dimethylbenzo[<em>d</em>]oxazole",
    "duplicated_cas_no": "",
    "SMILES": "CC=1OC=2C(N1)=CC(C)=CC2",
    "meta_data": {
        "InChI": "InChI=1S/C9H9NO/c1-6-3-4-9-8(5-6)10-7(2)11-9/h3-5H,1-2H3",
        "InChIKey": null,
        "Canonical SMILES": "N=1C=2C=C(C=CC2OC1C)C",
        "Molecular Formula": "C<sub>9</sub>H<sub>9</sub>NO",
        "Molecular Mass": "147.17",
        "Boiling Point": "218.5 °C",
        "Melting Point": "218-220 °C"
    }
}