{
    "cas_no": "53939-28-9",
    "key_name": "(<em>Z</em>)-11-Hexadecenal",
    "cn_name": "顺-11-十六碳醛;顺式-11-十六烯醛;",
    "alternate_name": "11-Hexadecenal, (11<em>Z</em>)-;11-Hexadecenal, (<em>Z</em>)-;(11<em>Z</em>)-11-Hexadecenal;<em>cis</em>-11-Hexadecenal;(<em>Z</em>)-11-Hexadecenal;(<em>Z</em>)-11-Hexadecenyl aldehyde;<em>cis</em>-11-Hexadecen-1-al;(<em>Z</em>)-11-Hexadecen-1-al;11(<em>Z</em>)-Hexadecenal",
    "duplicated_cas_no": "131582-69-9",
    "SMILES": "C(CC/C=C\\CCCC)CCCCCCC=O",
    "meta_data": {
        "InChI": "InChI=1S/C16H30O/c1-2-3-4-5-6-7-8-9-10-11-12-13-14-15-16-17/h5-6,16H,2-4,7-15H2,1H3/b6-5-",
        "InChIKey": null,
        "Canonical SMILES": "O=CCCCCCCCCCC=CCCCC",
        "Molecular Formula": "C<sub>16</sub>H<sub>30</sub>O",
        "Molecular Mass": "238.41",
        "Boiling Point": "130-135 °C @ Press: 0.2 Torr"
    }
}