{
    "cas_no": "33105-81-6",
    "key_name": "<em>tert</em>-Leucine",
    "cn_name": "DL-叔亮氨酸;叔丁基甘氨酸;",
    "alternate_name": "Valine, 3-methyl-;<span class=\"text-smallcaps\">DL</span>-Valine, 3-methyl-;Butyric acid, 2-amino-3,3-dimethyl-, <span class=\"text-smallcaps\">DL</span>-;3-Methylvaline;<span class=\"text-smallcaps\">DL</span>-Pseudoleucine;<span class=\"text-smallcaps\">DL</span>-<em>tert</em>-Leucine;<span class=\"text-smallcaps\">DL</span>-3,3,3-Trimethyl-2-aminopropionate;<span class=\"text-smallcaps\">DL</span>-Terleucine;<span class=\"text-smallcaps\">DL</span>-tert-Leucine;Pseudoleucine;<em>tert</em>-Leucine;ψ-Leucine;2-Amino-3,3-dimethylbutanoic acid;<em>tert</em>-Butylglycine;<span class=\"text-smallcaps\">D</smallcap><smallcap>L</span>-<em>tert</em>-Butyl-Glycine",
    "duplicated_cas_no": "471-50-1",
    "SMILES": "C(C(C)(C)C)(C(O)=O)N",
    "meta_data": {
        "InChI": "InChI=1S/C6H13NO2/c1-6(2,3)4(7)5(8)9/h4H,7H2,1-3H3,(H,8,9)",
        "InChIKey": null,
        "Canonical SMILES": "O=C(O)C(N)C(C)(C)C",
        "Molecular Formula": "C<sub>6</sub>H<sub>13</sub>NO<sub>2</sub>",
        "Molecular Mass": "131.17",
        "Melting Point": "&gt;300 °C"
    }
}