{
    "cas_no": "57-71-6",
    "key_name": "2,3-Butanedione monoxime",
    "cn_name": "2,3-丁烷二酮一肟;二乙酰一肟;肟乙基甲酮;丁二酮单肟;",
    "alternate_name": "2,3-Butanedione, 2-oxime;2,3-Butanedione, monooxime;2,3-Butanedione oxime;Diacetyl monoxime;2-Oximino-3-butanone;DAM (oxime);Biacetyl monoxime;3-Oximino-2-butanone;Diacetyl monooxime;2,3-Butanedione monoxime;Biacetyl monooxime;2,3-Butanedione-2-monoxime;2,3-Butanedione 3-monoxime;RA 53;DAM;2-Hydroxyimino-3-butanone;Isonitrosoethyl methyl ketone;3-Oxo-2-butanone oxime;2,3-Butadione monooxime;NSC 116103;NSC 660;3-(Hydroxyimino)-2-butanone",
    "duplicated_cas_no": "",
    "SMILES": "C(C(C)=O)(=NO)C",
    "meta_data": {
        "InChI": "InChI=1S/C4H7NO2/c1-3(5-7)4(2)6/h7H,1-2H3",
        "InChIKey": null,
        "Canonical SMILES": "O=C(C(=NO)C)C",
        "Molecular Formula": "C<sub>4</sub>H<sub>7</sub>NO<sub>2</sub>",
        "Molecular Mass": "101.10",
        "Boiling Point": "185.5 °C",
        "Melting Point": "76.8 °C"
    }
}