{
    "cas_no": "56962-08-4",
    "key_name": "4,5-Dichlorophthalic acid",
    "cn_name": "4,5-二氯苯二甲酸;4,5-二氯邻苯二甲酸;",
    "alternate_name": "1,2-Benzenedicarboxylic acid, 4,5-dichloro-;4,5-Dichloro-1,2-benzenedicarboxylic acid;4,5-Dichloro-2-carboxybenzoic acid;4,5-Dichlorophthalic acid",
    "duplicated_cas_no": "",
    "SMILES": "C(O)(=O)C1=C(C(O)=O)C=C(Cl)C(Cl)=C1",
    "meta_data": {
        "InChI": "InChI=1S/C8H4Cl2O4/c9-5-1-3(7(11)12)4(8(13)14)2-6(5)10/h1-2H,(H,11,12)(H,13,14)",
        "InChIKey": null,
        "Canonical SMILES": "O=C(O)C1=CC(Cl)=C(Cl)C=C1C(=O)O",
        "Molecular Formula": "C<sub>8</sub>H<sub>4</sub>Cl<sub>2</sub>O<sub>4</sub>",
        "Molecular Mass": "235.02",
        "Melting Point": "200 °C"
    }
}