{
    "cas_no": "26555-40-8",
    "key_name": "Carbonothioic acid, anhydrosulfide with thiohypochlorous acid (1:1), methyl ester",
    "cn_name": "甲氧基羰基磺酰氯;",
    "alternate_name": "Carbonothioic acid, anhydrosulfide with thiohypochlorous acid (1:1), methyl ester;Carbonic acid, thio-, anhydrosulfide with thiohypochlorous acid, methyl ester;Carbonothioic acid, anhydrosulfide with thiohypochlorous acid, <em>O</em>-methyl ester;Thiohypochlorous acid, anhydrosulfide with <em>O</em>-methyl thiocarbonate;Methoxycarbonylsulfenyl chloride;Carbomethoxysulfenyl chloride;Methyl (chlorosulfenyl)formate;(Chlorothio)(methoxy)oxomethane;(Chlorosulfanyl)(methoxy)methanone",
    "duplicated_cas_no": "",
    "SMILES": "C(OC)(SCl)=O",
    "meta_data": {
        "InChI": "InChI=1S/C2H3ClO2S/c1-5-2(4)6-3/h1H3",
        "InChIKey": null,
        "Canonical SMILES": "O=C(OC)SCl",
        "Molecular Formula": "C<sub>2</sub>H<sub>3</sub>ClO<sub>2</sub>S",
        "Molecular Mass": "126.56",
        "Boiling Point": "67-69 °C @ Press: 75 Torr"
    }
}