{
    "cas_no": "1949-20-8",
    "key_name": "Oxolamine citrate",
    "cn_name": null,
    "alternate_name": "1,2,4-Oxadiazole-5-ethanamine, <em>N</em>,<em>N</em>-diethyl-3-phenyl-, 2-hydroxy-1,2,3-propanetricarboxylate (1:1);1,2,4-Oxadiazole, 5-[2-(diethylamino)ethyl]-3-phenyl-, citrate (1:1);AF 438;Bredon;5-(Diethylaminoethyl)-3-phenyl-1,2,4-oxadiazole citrate;Oxarmin;Oxolamine citrate;Perebron;3-Phenyl-5-(diethylaminoethyl)-1,2,4-oxadiazole citrate;Prilon;Broncatar;SKF 9976;Flogobron;NSC 100298",
    "duplicated_cas_no": "34155-96-9",
    "SMILES": "C(CN(CC)CC)C1=NC(=NO1)C2=CC=CC=C2.C(CC(O)=O)(CC(O)=O)(C(O)=O)O",
    "meta_data": {
        "InChI": "InChI=1S/C14H19N3O.C6H8O7/c1-3-17(4-2)11-10-13-15-14(16-18-13)12-8-6-5-7-9-12;7-3(8)1-6(13,5(11)12)2-4(9)10/h5-9H,3-4,10-11H2,1-2H3;13H,1-2H2,(H,7,8)(H,9,10)(H,11,12)",
        "InChIKey": null,
        "Canonical SMILES": "O=C(O)CC(O)(C(=O)O)CC(=O)O.N=1OC(=NC1C=2C=CC=CC2)CCN(CC)CC",
        "Molecular Formula": "C<sub>14</sub>H<sub>19</sub>N<sub>3</sub>O.C<sub>6</sub>H<sub>8</sub>O<sub>7</sub>",
        "Molecular Mass": "",
        "Melting Point": "141-142 °C"
    }
}