{
    "cas_no": "30811-80-4",
    "key_name": "Polycytidylic acid",
    "cn_name": "聚胞苷酸钾盐;聚胞苷酸钾盐;多聚胞嘧啶核苷酸钾盐;多聚胞苷酸钾盐;",
    "alternate_name": "5′-Cytidylic acid, homopolymer;5′-Cytidylic acid, polymers;Poly(5′-cytidylic acid);Poly(C);Poly(cytidylic acid);Poly(CMP);NSC 120953;Polycytidylic acid;MeSH ID: D011066",
    "duplicated_cas_no": "25249-24-5;55679-94-2;162756-88-9",
    "SMILES": "O[C@H]1[C@@H](O[C@H](COP(=O)(O)O)[C@H]1O)N2C(=O)N=C(N)C=C2",
    "meta_data": {
        "InChI": "InChI=1S/C9H14N3O8P/c10-5-1-2-12(9(15)11-5)8-7(14)6(13)4(20-8)3-19-21(16,17)18/h1-2,4,6-8,13-14H,3H2,(H2,10,11,15)(H2,16,17,18)/t4-,6-,7-,8-/m1/s1",
        "InChIKey": null,
        "Canonical SMILES": "O=C1N=C(N)C=CN1C2OC(COP(=O)(O)O)C(O)C2O",
        "Molecular Formula": "(C<sub>9</sub>H<sub>14</sub>N<sub>3</sub>O<sub>8</sub>P)<sub>x</sub>",
        "Molecular Mass": "",
        "Melting Point": "69 °C"
    }
}