{
    "cas_no": "4706-81-4",
    "key_name": "(±)-2-Tetradecanol",
    "cn_name": "2-十四烷醇;2-十四醇;",
    "alternate_name": "2-Tetradecanol;(±)-2-Tetradecanol;1-Methyltridecyl alcohol;NSC 87599",
    "duplicated_cas_no": "34146-16-2",
    "SMILES": "C(CCCCCCCCC)CCC(C)O",
    "meta_data": {
        "InChI": "InChI=1S/C14H30O/c1-3-4-5-6-7-8-9-10-11-12-13-14(2)15/h14-15H,3-13H2,1-2H3",
        "InChIKey": null,
        "Canonical SMILES": "OC(C)CCCCCCCCCCCC",
        "Molecular Formula": "C<sub>14</sub>H<sub>30</sub>O",
        "Molecular Mass": "214.39",
        "Boiling Point": "284 °C",
        "Melting Point": "34 °C"
    }
}