{
    "cas_no": "70459-04-0",
    "key_name": "<em>N</em>-Formylnorfloxacin",
    "cn_name": null,
    "alternate_name": "3-Quinolinecarboxylic acid, 1-ethyl-6-fluoro-7-(4-formyl-1-piperazinyl)-1,4-dihydro-4-oxo-;1-Ethyl-6-fluoro-7-(4-formyl-1-piperazinyl)-1,4-dihydro-4-oxo-3-quinolinecarboxylic acid;<em>N</em>-Formylnorfloxacin;1-Ethyl-6-fluoro-7-(4-formylpiperazin-1-yl)-4-oxo-1,4-dihydroquinoline-3-carboxylic acid",
    "duplicated_cas_no": "",
    "SMILES": "C(C)N1C=2C(C(=O)C(C(O)=O)=C1)=CC(F)=C(C2)N3CCN(C=O)CC3",
    "meta_data": {
        "InChI": "InChI=1S/C17H18FN3O4/c1-2-20-9-12(17(24)25)16(23)11-7-13(18)15(8-14(11)20)21-5-3-19(10-22)4-6-21/h7-10H,2-6H2,1H3,(H,24,25)",
        "InChIKey": null,
        "Canonical SMILES": "O=CN1CCN(C=2C=C3C(=CC2F)C(=O)C(=CN3CC)C(=O)O)CC1",
        "Molecular Formula": "C<sub>17</sub>H<sub>18</sub>FN<sub>3</sub>O<sub>4</sub>",
        "Molecular Mass": "347.34",
        "Melting Point": "292-293 °C"
    }
}