{
    "cas_no": "114798-26-4",
    "key_name": "Losartan",
    "cn_name": "洛沙坦;2-丁基-4-氯-5-(羟甲基)-1-[[2\"-(1H-四氮唑-5-)联苯基-4-]甲基]咪唑;",
    "alternate_name": "1<em>H</em>-Imidazole-5-methanol, 2-butyl-4-chloro-1-[[2′-(2<em>H</em>-tetrazol-5-yl)[1,1′-biphenyl]-4-yl]methyl]-;1<em>H</em>-Imidazole-5-methanol, 2-butyl-4-chloro-1-[[2′-(1<em>H</em>-tetrazol-5-yl)[1,1′-biphenyl]-4-yl]methyl]-;2-Butyl-4-chloro-1-[[2′-(2<em>H</em>-tetrazol-5-yl)[1,1′-biphenyl]-4-yl]methyl]-1<em>H</em>-imidazole-5-methanol;DUP 89;Losartan;Lortaan;2-Butyl-4-chloro-1-[[2′-(1<em>H</em>-tetrazol-5-yl)-1,1′-biphenyl-4-yl]methyl]-1<em>H</em>-imidazole-5-methanol;Angizaar;Allisartan;1-[1-[[2′-(2<em>H</em>-Tetrazol-5-yl)biphenyl-4-yl]methyl]-2-butyl-4-chloro-1<em>H</em>-imidazol-5-yl]methanol;Lozap;Xartan;[2-Butyl-5-chloro-3-[2′-(2<em>H</em>-tetrazol-5-yl)-biphenyl-4-ylmethyl]-3<em>H</em>-imidazol-4-yl]-methanol;[2-Butyl-5-chloro-3-[[4-[2-(2<em>H</em>-tetrazol-5-yl)phenyl]phenyl]methyl]imidazol-4-yl]methanol;[2-Butyl-4-chloro-1-([4-[2-(1<em>H</em>-1,2,3,4-tetrazol-5-yl)phenyl]phenyl]methyl)-1<em>H</em>-imidazol-5-yl]methanol;MeSH ID: D019808",
    "duplicated_cas_no": "",
    "SMILES": "C(N1C(CCCC)=NC(Cl)=C1CO)C2=CC=C(C=C2)C3=C(C=CC=C3)C=4NN=NN4",
    "meta_data": {
        "InChI": "InChI=1S/C22H23ClN6O/c1-2-3-8-20-24-21(23)19(14-30)29(20)13-15-9-11-16(12-10-15)17-6-4-5-7-18(17)22-25-27-28-26-22/h4-7,9-12,30H,2-3,8,13-14H2,1H3,(H,25,26,27,28)",
        "InChIKey": null,
        "Canonical SMILES": "ClC=1N=C(N(C1CO)CC=2C=CC(=CC2)C=3C=CC=CC3C4=NN=NN4)CCCC",
        "Molecular Formula": "C<sub>22</sub>H<sub>23</sub>ClN<sub>6</sub>O",
        "Molecular Mass": "422.91",
        "Melting Point": "184 °C"
    }
}