{
    "cas_no": "1509-92-8",
    "key_name": "<em>N</em>-Acetyl-<span class=\"text-smallcaps\">D</span>-methionine",
    "cn_name": "N-乙酰-D-蛋氨酸;",
    "alternate_name": "<span class=\"text-smallcaps\">D</span>-Methionine, <em>N</em>-acetyl-;Methionine, <em>N</em>-acetyl-, <span class=\"text-smallcaps\">D</span>-;<em>N</em>-Acetyl-<span class=\"text-smallcaps\">D</span>-methionine",
    "duplicated_cas_no": "",
    "SMILES": "[C@H](NC(C)=O)(C(O)=O)CCSC",
    "meta_data": {
        "InChI": "InChI=1S/C7H13NO3S/c1-5(9)8-6(7(10)11)3-4-12-2/h6H,3-4H2,1-2H3,(H,8,9)(H,10,11)/t6-/m1/s1",
        "InChIKey": null,
        "Canonical SMILES": "O=C(O)C(NC(=O)C)CCSC",
        "Molecular Formula": "C<sub>7</sub>H<sub>13</sub>NO<sub>3</sub>S",
        "Molecular Mass": "191.25",
        "Melting Point": "103-105 °C"
    }
}