{
    "cas_no": "10463-20-4",
    "key_name": "4-Hydroxy-3-nitrophenylacetic acid",
    "cn_name": null,
    "alternate_name": "Benzeneacetic acid, 4-hydroxy-3-nitro-;Acetic acid, (4-hydroxy-3-nitrophenyl)-;4-Hydroxy-3-nitrobenzeneacetic acid;4-Hydroxy-3-nitrophenylacetic acid;<em>m</em>-Nitro-<em>p</em>-hydroxyphenylacetic acid;Antibiotic T 000B<sub>1</sub>;Antibiotic T 0007B<sub>1</sub>;4-Hydroxy-5-nitrophenylacetic acid;3-Nitro-4-hydroxyphenylacetic acid;2-(4-Hydroxy-3-nitrophenyl)acetic acid",
    "duplicated_cas_no": "1418748-21-6",
    "SMILES": "C(C(O)=O)C1=CC(N(=O)=O)=C(O)C=C1",
    "meta_data": {
        "InChI": "InChI=1S/C8H7NO5/c10-7-2-1-5(4-8(11)12)3-6(7)9(13)14/h1-3,10H,4H2,(H,11,12)",
        "InChIKey": null,
        "Canonical SMILES": "O=C(O)CC1=CC=C(O)C(=C1)N(=O)=O",
        "Molecular Formula": "C<sub>8</sub>H<sub>7</sub>NO<sub>5</sub>",
        "Molecular Mass": "197.14",
        "Melting Point": "146-147 °C"
    }
}