{
    "cas_no": "386715-42-0",
    "key_name": "2,3-Dihydro-5-oxo-1<em>H</em>,5<em>H</em>-benzo[<em>ij</em>]quinolizine-6-carboxylic acid",
    "cn_name": null,
    "alternate_name": "1<em>H</em>,5<em>H</em>-Benzo[<em>ij</em>]quinolizine-6-carboxylic acid, 2,3-dihydro-5-oxo-;2,3-Dihydro-5-oxo-1<em>H</em>,5<em>H</em>-benzo[<em>ij</em>]quinolizine-6-carboxylic acid;5-Oxo-2,3-Dihydro-1<em>H</em>,5<em>H</em>-pyrido[3,2,1-<em>ij</em>]quinoline-6-carboxylic acid",
    "duplicated_cas_no": "",
    "SMILES": "O=C1N2C3=C(C=C1C(O)=O)C=CC=C3CCC2",
    "meta_data": {
        "InChI": "InChI=1S/C13H11NO3/c15-12-10(13(16)17)7-9-4-1-3-8-5-2-6-14(12)11(8)9/h1,3-4,7H,2,5-6H2,(H,16,17)",
        "InChIKey": null,
        "Canonical SMILES": "O=C(O)C1=CC=2C=CC=C3C2N(C1=O)CCC3",
        "Molecular Formula": "C<sub>13</sub>H<sub>11</sub>NO<sub>3</sub>",
        "Molecular Mass": "229.23",
        "Melting Point": "251 °C"
    }
}