{
    "cas_no": "26839-75-8",
    "key_name": "Timolol",
    "cn_name": "噻吗洛尔;(S)-1-(叔丁基氨基)-3-[(4-吗啉基-1,2,5-噻二唑-3-基)氧]-2-丙醇;",
    "alternate_name": "2-Propanol, 1-[(1,1-dimethylethyl)amino]-3-[[4-(4-morpholinyl)-1,2,5-thiadiazol-3-yl]oxy]-, (2<em>S</em>)-;2-Propanol, 1-(<em>tert</em>-butylamino)-3-[(4-morpholino-1,2,5-thiadiazol-3-yl)oxy]-, (<em>S</em>)-(-)-;2-Propanol, 1-[(1,1-dimethylethyl)amino]-3-[[4-(4-morpholinyl)-1,2,5-thiadiazol-3-yl]oxy]-, (<em>S</em>)-;1,2,5-Thiadiazole, 2-propanol deriv.;(2<em>S</em>)-1-[(1,1-Dimethylethyl)amino]-3-[[4-(4-morpholinyl)-1,2,5-thiadiazol-3-yl]oxy]-2-propanol;Timolol;(-)-Timolol;<em>l</em>-Timolol;(<em>S</em>)-Timolol;<span class=\"text-smallcaps\">L</span>-Timolol;(-)-<em>S</em>-Timolol;Oftensin;Arutimol;(2S)-1-(<em>tert</em>-Butylamino)-3-[(4-morpholin-4-yl-1,2,5-thiadiazol-3-yl)oxy]propan-2-ol;(2S)-1-(<em>tert</em>-Butylamino)-3-[(4-morpholino-1,2,5-thiadiazol-3-yl)oxy]propan-2-ol;MeSH ID: D013999",
    "duplicated_cas_no": "131628-37-0;194288-09-0",
    "SMILES": "O(C[C@H](CNC(C)(C)C)O)C=1C(=NSN1)N2CCOCC2",
    "meta_data": {
        "InChI": "InChI=1S/C13H24N4O3S/c1-13(2,3)14-8-10(18)9-20-12-11(15-21-16-12)17-4-6-19-7-5-17/h10,14,18H,4-9H2,1-3H3/t10-/m0/s1",
        "InChIKey": null,
        "Canonical SMILES": "OC(COC1=NSN=C1N2CCOCC2)CNC(C)(C)C",
        "Molecular Formula": "C<sub>13</sub>H<sub>24</sub>N<sub>4</sub>O<sub>3</sub>S",
        "Molecular Mass": "316.42",
        "Melting Point": "71.5-72.5 °C"
    }
}