{
    "cas_no": "111-86-4",
    "key_name": "Octylamine",
    "cn_name": "1-氨基辛烷;辛胺;",
    "alternate_name": "1-Octanamine;Octylamine;<em>n</em>-Octylamine;Armeen 8;Armeen 8D;Caprylylamine;1-Aminooctane;1-Octylamine;Monooctylamine;Octanamine;Farmin 08D;NSC 9824;Amine OD;Genamin 8R;Octan-1-amine;Lipomin 8D",
    "duplicated_cas_no": "191113-89-0",
    "SMILES": "C(CCCC)CCCN",
    "meta_data": {
        "InChI": "InChI=1S/C8H19N/c1-2-3-4-5-6-7-8-9/h2-9H2,1H3",
        "InChIKey": null,
        "Canonical SMILES": "NCCCCCCCC",
        "Molecular Formula": "C<sub>8</sub>H<sub>19</sub>N",
        "Molecular Mass": "129.24",
        "Boiling Point": "179.6 °C",
        "Melting Point": "0 °C",
        "Density": "0.8058 g/cm³ @ Temp: 20 °C"
    }
}