{
    "cas_no": "1404-59-7",
    "key_name": "Rutamycin",
    "cn_name": null,
    "alternate_name": "Spiro[2,26-dioxabicyclo[23.3.1]nonacosa-4,18,20-triene-27,2′-[2<em>H</em>]pyran]-3,9,13-trione, 22-ethyl-3′,4′,5′,6′-tetrahydro-7,11,14,15-tetrahydroxy-6′-[(2<em>R</em>)-2-hydroxypropyl]-5′,6,8,10,12,14,16,29-octamethyl-, (1<em>S</em>,2′<em>R</em>,4<em>E</em>,5′<em>S</em>,6<em>S</em>,6′<em>S</em>,7<em>R</em>,8<em>S</em>,10<em>R</em>,11<em>R</em>,12<em>S</em>,14<em>R</em>,15<em>S</em>,16<em>R</em>,18<em>E</em>,20<em>E</em>,22<em>R</em>,25<em>S</em>,29<em>R</em>)-;Rutamycin;Oligomycin A, 26-demethyl-;Spiro[2,26-dioxabicyclo[23.3.1]nonacosane-27,2′-[2<em>H</em>]pyran], oligomycin A deriv.;(1<em>S</em>,2′<em>R</em>,4<em>E</em>,5′<em>S</em>,6<em>S</em>,6′<em>S</em>,7<em>R</em>,8<em>S</em>,10<em>R</em>,11<em>R</em>,12<em>S</em>,14<em>R</em>,15<em>S</em>,16<em>R</em>,18<em>E</em>,20<em>E</em>,22<em>R</em>,25<em>S</em>,29<em>R</em>)-22-Ethyl-3′,4′,5′,6′-tetrahydro-7,11,14,15-tetrahydroxy-6′-[(2<em>R</em>)-2-hydroxypropyl]-5′,6,8,10,12,14,16,29-octamethylspiro[2,26-dioxabicyclo[23.3.1]nonacosa-4,18,20-triene-27,2′-[2<em>H</em>]pyran]-3,9,13-trione;A 272;RR 32705;Oligomycin D;Rutamycin A",
    "duplicated_cas_no": "1255037-35-4",
    "SMILES": "",
    "meta_data": {
        "InChI": "",
        "InChIKey": null,
        "Canonical SMILES": "",
        "Molecular Formula": "C<sub>44</sub>H<sub>72</sub>O<sub>11</sub>",
        "Molecular Mass": "777.04",
        "Melting Point": "116-119 °C"
    }
}