{
    "cas_no": "51309-10-5",
    "key_name": "10-Chloro-1-decanol",
    "cn_name": "10-氯-1-癸醇;",
    "alternate_name": "1-Decanol, 10-chloro-;10-Chloro-1-decanol;10-Chlorodecanol;ω-Chlorodecanol",
    "duplicated_cas_no": "",
    "SMILES": "C(CCCCCO)CCCCCl",
    "meta_data": {
        "InChI": "InChI=1S/C10H21ClO/c11-9-7-5-3-1-2-4-6-8-10-12/h12H,1-10H2",
        "InChIKey": null,
        "Canonical SMILES": "ClCCCCCCCCCCO",
        "Molecular Formula": "C<sub>10</sub>H<sub>21</sub>ClO",
        "Molecular Mass": "192.73",
        "Boiling Point": "164-166 °C @ Press: 24 Torr",
        "Melting Point": "12.5 °C",
        "Density": "0.9630 g/cm³ @ Temp: 25 °C"
    }
}