{
    "cas_no": "6736-85-2",
    "key_name": "Catalposide",
    "cn_name": null,
    "alternate_name": "β-<span class=\"text-smallcaps\">D</span>-Glucopyranoside, (1a<em>S</em>,1b<em>S</em>,2<em>S</em>,5a<em>R</em>,6<em>S</em>,6a<em>S</em>)-1a,1b,2,5a,6,6a-hexahydro-6-[(4-hydroxybenzoyl)oxy]-1a-(hydroxymethyl)oxireno[4,5]cyclopenta[1,2-<em>c</em>]pyran-2-yl;Catalposide;β-<span class=\"text-smallcaps\">D</span>-Glucopyranoside, 1a,1b,2,5a,6,6a-hexahydro-6-[(4-hydroxybenzoyl)oxy]-1a-(hydroxymethyl)oxireno[4,5]cyclopenta[1,2-<em>c</em>]pyran-2-yl, [1a<em>S</em>-(1aα,1bβ,2β,5aβ,6β,6aα)]-;Oxireno[4,5]cyclopenta[1,2-<em>c</em>]pyran, β-<span class=\"text-smallcaps\">D</span>-glucopyranoside deriv.;(1a<em>S</em>,1b<em>S</em>,2<em>S</em>,5a<em>R</em>,6<em>S</em>,6a<em>S</em>)-1a,1b,2,5a,6,6a-Hexahydro-6-[(4-hydroxybenzoyl)oxy]-1a-(hydroxymethyl)oxireno[4,5]cyclopenta[1,2-<em>c</em>]pyran-2-yl β-<span class=\"text-smallcaps\">D</span>-glucopyranoside;(Hydroxybenzoyl)catalpol;Catalpol 6-<em>p</em>-hydroxybenzoate",
    "duplicated_cas_no": "11012-12-7;27892-31-5",
    "SMILES": "C(O)[C@@]12[C@@]3([C@]([C@H](OC(=O)C4=CC=C(O)C=C4)[C@@]1(O2)[H])(C=CO[C@H]3O[C@@H]5O[C@H](CO)[C@@H](O)[C@H](O)[C@H]5O)[H])[H]",
    "meta_data": {
        "InChI": "InChI=1S/C22H26O12/c23-7-12-14(26)15(27)16(28)21(31-12)33-20-13-11(5-6-30-20)17(18-22(13,8-24)34-18)32-19(29)9-1-3-10(25)4-2-9/h1-6,11-18,20-21,23-28H,7-8H2/t11-,12-,13-,14-,15+,16-,17+,18+,20+,21+,22-/m1/s1",
        "InChIKey": null,
        "Canonical SMILES": "O=C(OC1C2OC2(CO)C3C(OC=CC13)OC4OC(CO)C(O)C(O)C4O)C5=CC=C(O)C=C5",
        "Molecular Formula": "C<sub>22</sub>H<sub>26</sub>O<sub>12</sub>",
        "Molecular Mass": "482.43",
        "Melting Point": "210-212 °C (decomp)"
    }
}