{
    "cas_no": "31529-46-1",
    "key_name": "1-Amino-2-methylindoline",
    "cn_name": "1-氨基-2-甲基吲哚啉;",
    "alternate_name": "1<em>H</em>-Indol-1-amine, 2,3-dihydro-2-methyl-;Indoline, 1-amino-2-methyl-;2,3-Dihydro-2-methyl-1<em>H</em>-indol-1-amine;1-Amino-2-methylindoline;<em>N</em>-Amino-2-methylindoline;1-Amino-2,3-dihydro-2-methylindole;2-Methyl-2,3-dihydroindol-1-amine;2-Methylindolin-1-amine;2-Methyl-2,3-dihydro-1<em>H</em>-indol-1-amine",
    "duplicated_cas_no": "",
    "SMILES": "NN1C=2C(CC1C)=CC=CC2",
    "meta_data": {
        "InChI": "InChI=1S/C9H12N2/c1-7-6-8-4-2-3-5-9(8)11(7)10/h2-5,7H,6,10H2,1H3",
        "InChIKey": null,
        "Canonical SMILES": "NN1C=2C=CC=CC2CC1C",
        "Molecular Formula": "C<sub>9</sub>H<sub>12</sub>N<sub>2</sub>",
        "Molecular Mass": "148.21",
        "Melting Point": "41 °C"
    }
}