{
    "cas_no": "569-64-2",
    "key_name": "Malachite green",
    "cn_name": null,
    "alternate_name": "Methanaminium, <em>N</em>-[4-[[4-(dimethylamino)phenyl]phenylmethylene]-2,5-cyclohexadien-1-ylidene]-<em>N</em>-methyl-, chloride (1:1);Victoria Green WB;C.I. Basic Green 4;Methanaminium, <em>N</em>-[4-[[4-(dimethylamino)phenyl]phenylmethylene]-2,5-cyclohexadien-1-ylidene]-<em>N</em>-methyl-, chloride;C.I. 42000;Acryl Brilliant Green B;ADC Malachite Green Crystals;Aizen Malachite Green Crystals;Astra Malachite Green;Astra Malachite Green B;Astra Malachite Green BXX;Benzaldehyde green;Benzal Green;Bronze Green Toner A 8002;Burma Green B;Calcozine Green V;China Green;Diabasic Malachite Green;Diamond Green BX;Diamond Green B extra;Diamond Green P Extra;Green MX;Grenoble Green;Hidaco Malachite Green Base;Hidaco Malachite Green LC;Hidaco Malachite Green SC;Light Green N;Lincoln Green Toner B 15-2900;Malachite Green A;Malachite Green J 3E;Malachite Green AN;Malachite green chloride;Malachite Green CP;Malachite Green Crystals;Malachite Green Crystals BPC;Malachite Green Powder;Malachite Green WS;Malachite Lake Green A;Mitsui Malachite Green;New Victoria Green Extra I;New Victoria Green Extra O;New Victoria Green Extra II;Oji Malachite Green;Solid Green O;Solid Green Crystals O;Tertrophene Green M;Tokyo Aniline Malachite Green;Victoria Green;Victoria Green B;Victoria Green S;Victoria Green WPB;Malachite green;Basic Green 4;Aniline green;Malachite Green B;Aizen Malachite Green;Victoria Green (basic dye);Verona Basic Green M;Atlantic Malachite Green;Basonyl Green 830;Super Ick Cure;Malachite Green XLS;Basonyl Green NB 832;Basacryl Green X-BF;Green Malaquite;LC 6220;Aizen malachite green liquid;Malachite Green 4;Diamond Green B;Astrazon Green M;Basic Light Green G 4;MKG;C.I. 4200",
    "duplicated_cas_no": "55172-50-4",
    "SMILES": "C(C1=CC=C(N(C)C)C=C1)(=C2C=CC(=[N+](C)C)C=C2)C3=CC=CC=C3.[Cl-]",
    "meta_data": {
        "InChI": "InChI=1S/C23H25N2.ClH/c1-24(2)21-14-10-19(11-15-21)23(18-8-6-5-7-9-18)20-12-16-22(17-13-20)25(3)4;/h5-17H,1-4H3;1H/q+1;/p-1",
        "InChIKey": null,
        "Canonical SMILES": "[Cl-].C=1C=CC(=CC1)C(C2=CC=C(C=C2)N(C)C)=C3C=CC(C=C3)=[N+](C)C",
        "Molecular Formula": "C<sub>23</sub>H<sub>25</sub>N<sub>2</sub>.Cl",
        "Molecular Mass": "",
        "Melting Point": "112-114 °C"
    }
}