{
    "cas_no": "127510-95-6",
    "key_name": "Methyl 2-cyano-5-methoxybenzoate",
    "cn_name": null,
    "alternate_name": "Benzoic acid, 2-cyano-5-methoxy-, methyl ester;Methyl 2-cyano-5-methoxybenzoate;2-Cyano-5-methoxybenzoic acid methyl ester",
    "duplicated_cas_no": "",
    "SMILES": "C(OC)(=O)C1=C(C#N)C=CC(OC)=C1",
    "meta_data": {
        "InChI": "InChI=1S/C10H9NO3/c1-13-8-4-3-7(6-11)9(5-8)10(12)14-2/h3-5H,1-2H3",
        "InChIKey": null,
        "Canonical SMILES": "N#CC1=CC=C(OC)C=C1C(=O)OC",
        "Molecular Formula": "C<sub>10</sub>H<sub>9</sub>NO<sub>3</sub>",
        "Molecular Mass": "191.18",
        "Melting Point": "74-77 °C"
    }
}