{
    "cas_no": "105431-72-9",
    "key_name": "Linopirdine",
    "cn_name": null,
    "alternate_name": "2<em>H</em>-Indol-2-one, 1,3-dihydro-1-phenyl-3,3-bis(4-pyridinylmethyl)-;1,3-Dihydro-1-phenyl-3,3-bis(4-pyridinylmethyl)-2<em>H</em>-indol-2-one;DuP 996;Linopirdine;1-Phenyl-3,3-bis(pyridin-4-ylmethyl)indol-2-one",
    "duplicated_cas_no": "",
    "SMILES": "C(C1(CC=2C=CN=CC2)C=3C(N(C1=O)C4=CC=CC=C4)=CC=CC3)C=5C=CN=CC5",
    "meta_data": {
        "InChI": "InChI=1S/C26H21N3O/c30-25-26(18-20-10-14-27-15-11-20,19-21-12-16-28-17-13-21)23-8-4-5-9-24(23)29(25)22-6-2-1-3-7-22/h1-17H,18-19H2",
        "InChIKey": null,
        "Canonical SMILES": "O=C1N(C=2C=CC=CC2)C=3C=CC=CC3C1(CC=4C=CN=CC4)CC=5C=CN=CC5",
        "Molecular Formula": "C<sub>26</sub>H<sub>21</sub>N<sub>3</sub>O",
        "Molecular Mass": "391.46",
        "Melting Point": "186-186.5 °C"
    }
}