{
    "cas_no": "3386-87-6",
    "key_name": "3,3′-[1,2-Ethanediylbis(oxy)]bis[propanenitrile]",
    "cn_name": null,
    "alternate_name": "Propanenitrile, 3,3′-[1,2-ethanediylbis(oxy)]bis-;Propionitrile, 3,3′-(ethylenedioxy)di-;3,3′-[1,2-Ethanediylbis(oxy)]bis[propanenitrile];3,3′-(Ethylenedioxy)dipropionitrile;Ethylene glycol di-β-cyanoethyl ether;1,2-Bis(2-cyanoethoxy)ethane;1,2-Bis(β-cyanoethoxy)ethane;Ethylene glycol bis(2-cyanoethyl) ether;3,6-Dioxa-1,8-dicyanooctane;NSC 69063;3,3′-[Ethane-1,2-diylbis(oxy)]dipropanenitrile;1,2-Bis(2′-cyanoethoxy)ethane",
    "duplicated_cas_no": "",
    "SMILES": "C(COCCC#N)OCCC#N",
    "meta_data": {
        "InChI": "InChI=1S/C8H12N2O2/c9-3-1-5-11-7-8-12-6-2-4-10/h1-2,5-8H2",
        "InChIKey": null,
        "Canonical SMILES": "N#CCCOCCOCCC#N",
        "Molecular Formula": "C<sub>8</sub>H<sub>12</sub>N<sub>2</sub>O<sub>2</sub>",
        "Molecular Mass": "168.19",
        "Boiling Point": "158 °C @ Press: 2 Torr",
        "Density": "1.0980 g/cm³ @ Temp: 20 °C"
    }
}