{
    "cas_no": "54280-71-6",
    "key_name": "3,5-Diethyl 1,4-dihydro-2,6-dimethyl-4-(2,3,4,5,6-pentafluorophenyl)-3,5-pyridinedicarboxylate",
    "cn_name": null,
    "alternate_name": "3,5-Pyridinedicarboxylic acid, 1,4-dihydro-2,6-dimethyl-4-(2,3,4,5,6-pentafluorophenyl)-, 3,5-diethyl ester;3,5-Pyridinedicarboxylic acid, 1,4-dihydro-2,6-dimethyl-4-(pentafluorophenyl)-, diethyl ester;3,5-Diethyl 1,4-dihydro-2,6-dimethyl-4-(2,3,4,5,6-pentafluorophenyl)-3,5-pyridinedicarboxylate;3,5-Bis(ethoxycarbonyl)-1,4-dihydro-2,6-dimethyl-4-(pentafluorophenyl)pyridine;Nemadipine A",
    "duplicated_cas_no": "",
    "SMILES": "C(OCC)(=O)C=1C(C(C(OCC)=O)=C(C)NC1C)C2=C(F)C(F)=C(F)C(F)=C2F",
    "meta_data": {
        "InChI": "InChI=1S/C19H18F5NO4/c1-5-28-18(26)9-7(3)25-8(4)10(19(27)29-6-2)11(9)12-13(20)15(22)17(24)16(23)14(12)21/h11,25H,5-6H2,1-4H3",
        "InChIKey": null,
        "Canonical SMILES": "O=C(OCC)C1=C(NC(=C(C(=O)OCC)C1C=2C(F)=C(F)C(F)=C(F)C2F)C)C",
        "Molecular Formula": "C<sub>19</sub>H<sub>18</sub>F<sub>5</sub>NO<sub>4</sub>",
        "Molecular Mass": "419.34",
        "Melting Point": "129-131 °C"
    }
}