{
    "cas_no": "1532-97-4",
    "key_name": "4-Bromoisoquinoline",
    "cn_name": "4-溴异喹啉;",
    "alternate_name": "Isoquinoline, 4-bromo-;4-Bromoisoquinoline;NSC 56333;4-Isoquinolinyl bromide",
    "duplicated_cas_no": "",
    "SMILES": "BrC=1C2=C(C=NC1)C=CC=C2",
    "meta_data": {
        "InChI": "InChI=1S/C9H6BrN/c10-9-6-11-5-7-3-1-2-4-8(7)9/h1-6H",
        "InChIKey": null,
        "Canonical SMILES": "BrC1=CN=CC=2C=CC=CC12",
        "Molecular Formula": "C<sub>9</sub>H<sub>6</sub>BrN",
        "Molecular Mass": "208.05",
        "Boiling Point": "282.5 °C",
        "Melting Point": "41.5 °C"
    }
}