{
    "cas_no": "14259-47-3",
    "key_name": "Didymin",
    "cn_name": null,
    "alternate_name": "4<em>H</em>-1-Benzopyran-4-one, 7-[[6-<em>O</em>-(6-deoxy-α-<span class=\"text-smallcaps\">L</smallcap>-mannopyranosyl)-β-<smallcap>D</span>-glucopyranosyl]oxy]-2,3-dihydro-5-hydroxy-2-(4-methoxyphenyl)-, (2<em>S</em>)-;Didymin;4<em>H</em>-1-Benzopyran-4-one, 7-[[6-<em>O</em>-(6-deoxy-α-<span class=\"text-smallcaps\">L</smallcap>-mannopyranosyl)-β-<smallcap>D</span>-glucopyranosyl]oxy]-2,3-dihydro-5-hydroxy-2-(4-methoxyphenyl)-, (<em>S</em>)-;Flavanone, 5,7-dihydroxy-4′-methoxy-, 7β-rutinoside;(2<em>S</em>)-7-[[6-<em>O</em>-(6-Deoxy-α-<span class=\"text-smallcaps\">L</smallcap>-mannopyranosyl)-β-<smallcap>D</span>-glucopyranosyl]oxy]-2,3-dihydro-5-hydroxy-2-(4-methoxyphenyl)-4<em>H</em>-1-benzopyran-4-one;Didymine;Isosakuranetin 7-rutinoside;Neoponcirin;4′-Methoxy-5,7-dihydroxyflavanone 7-<em>O</em>-rutinoside;Isosakuranetin 7-<em>O</em>-rutinoside;Citrifoliol-7-<em>O</em>-rutinoside",
    "duplicated_cas_no": "11049-28-8;16727-57-4;24198-88-7;38664-99-2",
    "SMILES": "O=C1C=2C(O[C@@H](C1)C3=CC=C(OC)C=C3)=CC(O[C@@H]4O[C@H](CO[C@H]5[C@H](O)[C@H](O)[C@@H](O)[C@H](C)O5)[C@@H](O)[C@H](O)[C@H]4O)=CC2O",
    "meta_data": {
        "InChI": "InChI=1S/C28H34O14/c1-11-21(31)23(33)25(35)27(39-11)38-10-19-22(32)24(34)26(36)28(42-19)40-14-7-15(29)20-16(30)9-17(41-18(20)8-14)12-3-5-13(37-2)6-4-12/h3-8,11,17,19,21-29,31-36H,9-10H2,1-2H3/t11-,17-,19+,21-,22+,23+,24-,25+,26+,27+,28+/m0/s1",
        "InChIKey": null,
        "Canonical SMILES": "O=C1C2=C(O)C=C(OC3OC(COC4OC(C)C(O)C(O)C4O)C(O)C(O)C3O)C=C2OC(C5=CC=C(OC)C=C5)C1",
        "Molecular Formula": "C<sub>28</sub>H<sub>34</sub>O<sub>14</sub>",
        "Molecular Mass": "594.56",
        "Melting Point": "210-212 °C"
    }
}