{
    "cas_no": "142-68-7",
    "key_name": "Tetrahydropyran",
    "cn_name": "四氢吡喃;",
    "alternate_name": "2<em>H</em>-Pyran, tetrahydro-;Pyran, tetrahydro-;Tetrahydro-2<em>H</em>-pyran;Oxacyclohexane;Pentamethylene oxide;Tetrahydropyran;Tetrahydropyrane;THP;Oxane;NSC 65448",
    "duplicated_cas_no": "",
    "SMILES": "C1CCOCC1",
    "meta_data": {
        "InChI": "InChI=1S/C5H10O/c1-2-4-6-5-3-1/h1-5H2",
        "InChIKey": null,
        "Canonical SMILES": "O1CCCCC1",
        "Molecular Formula": "C<sub>5</sub>H<sub>10</sub>O",
        "Molecular Mass": "86.13",
        "Boiling Point": "88 °C",
        "Melting Point": "-49.2 °C",
        "Density": "0.8814 g/cm³ @ Temp: 20 °C"
    }
}