{
    "cas_no": "3814-34-4",
    "key_name": "1-Bromo-2-ethylbutane",
    "cn_name": "2-乙基溴代丁烷;",
    "alternate_name": "Pentane, 3-(bromomethyl)-;3-(Bromomethyl)pentane;Butane, 1-bromo-2-ethyl-;2-Ethylbutyl bromide;2-Ethyl-1-bromobutane;1-Bromo-2-ethylbutane",
    "duplicated_cas_no": "",
    "SMILES": "C(CBr)(CC)CC",
    "meta_data": {
        "InChI": "InChI=1S/C6H13Br/c1-3-6(4-2)5-7/h6H,3-5H2,1-2H3",
        "InChIKey": null,
        "Canonical SMILES": "BrCC(CC)CC",
        "Molecular Formula": "C<sub>6</sub>H<sub>13</sub>Br",
        "Molecular Mass": "165.07",
        "Boiling Point": "143-144 °C @ Press: 762 Torr"
    }
}