{
    "cas_no": "1008-65-7",
    "key_name": "Fenadiazole",
    "cn_name": "酚二唑;2-(1,3,4-噁二唑-2-基)苯酚;",
    "alternate_name": "Phenol, 2-(1,3,4-oxadiazol-2-yl)-;Phenol, <em>o</em>-1,3,4-oxadiazol-2-yl-;2-(1,3,4-Oxadiazol-2-yl)phenol;Fenadiazole;<em>o</em>-1,3,4-Oxadiazol-2-ylphenol;Hypnazol;2-(<em>o</em>-Hydroxyphenyl)-1,3,4-oxadiazole;Eudormil;Fenadiazol;J. L. 512;Viodor;NSC 100729",
    "duplicated_cas_no": "",
    "SMILES": "OC1=C(C2=NN=CO2)C=CC=C1",
    "meta_data": {
        "InChI": "InChI=1S/C8H6N2O2/c11-7-4-2-1-3-6(7)8-10-9-5-12-8/h1-5,11H",
        "InChIKey": null,
        "Canonical SMILES": "OC=1C=CC=CC1C2=NN=CO2",
        "Molecular Formula": "C<sub>8</sub>H<sub>6</sub>N<sub>2</sub>O<sub>2</sub>",
        "Molecular Mass": "162.15",
        "Boiling Point": "180 °C",
        "Melting Point": "111.5 °C"
    }
}