{
    "cas_no": "21124-13-0",
    "key_name": "1-Methyl-3-<em>p</em>-tolyltriazene",
    "cn_name": "1-甲基-3-对甲苯基三氮;",
    "alternate_name": "1-Triazene, 1-methyl-3-(4-methylphenyl)-;Triazene, 3-methyl-1-<em>p</em>-tolyl-;1-Methyl-3-(4-methylphenyl)-1-triazene;3-Methyl-1-<em>p</em>-tolyltriazene;1-Methyl-3-<em>p</em>-tolyltriazene;1-<em>p</em>-Tolyl-3-methyltriazene;Methyl-<em>p</em>-tolyltriazene;1-Methyl-3-(4-methylphenyl)triazene;3-Methyl-1-(4-methylphenyl)triazene;NSC 106329;NSC 183741;3-Methyl-1-(4-methylphenyl)triaz-1-ene",
    "duplicated_cas_no": "",
    "SMILES": "N(=NNC)C1=CC=C(C)C=C1",
    "meta_data": {
        "InChI": "InChI=1S/C8H11N3/c1-7-3-5-8(6-4-7)10-11-9-2/h3-6H,1-2H3,(H,9,10)",
        "InChIKey": null,
        "Canonical SMILES": "N(=NC1=CC=C(C=C1)C)NC",
        "Molecular Formula": "C<sub>8</sub>H<sub>11</sub>N<sub>3</sub>",
        "Molecular Mass": "149.19",
        "Melting Point": "80.5-81.5 °C"
    }
}