{
    "cas_no": "1044-49-1",
    "key_name": "2,5-Bis(4-nitrophenyl)-1,3,4-oxadiazole",
    "cn_name": "2,5-双(4-硝基苯基)-1,3,4-二唑;",
    "alternate_name": "1,3,4-Oxadiazole, 2,5-bis(4-nitrophenyl)-;1,3,4-Oxadiazole, 2,5-bis(<em>p</em>-nitrophenyl)-;2,5-Bis(4-nitrophenyl)-1,3,4-oxadiazole;2,5-Bis(<em>p</em>-nitrophenyl)-1,3,4-oxadiazole;2,5-Di(4-nitrophenyl)-1,3,4-oxadiazole",
    "duplicated_cas_no": "",
    "SMILES": "N(=O)(=O)C1=CC=C(C=2OC(=NN2)C3=CC=C(N(=O)=O)C=C3)C=C1",
    "meta_data": {
        "InChI": "InChI=1S/C14H8N4O5/c19-17(20)11-5-1-9(2-6-11)13-15-16-14(23-13)10-3-7-12(8-4-10)18(21)22/h1-8H",
        "InChIKey": null,
        "Canonical SMILES": "O=N(=O)C=1C=CC(=CC1)C2=NN=C(O2)C=3C=CC(=CC3)N(=O)=O",
        "Molecular Formula": "C<sub>14</sub>H<sub>8</sub>N<sub>4</sub>O<sub>5</sub>",
        "Molecular Mass": "312.24",
        "Melting Point": "302 °C"
    }
}