{
    "cas_no": "23244-58-8",
    "key_name": "Methyl 1,3-dihydro-1,3-dioxo-2<em>H</em>-isoindole-2-acetate",
    "cn_name": null,
    "alternate_name": "2<em>H</em>-Isoindole-2-acetic acid, 1,3-dihydro-1,3-dioxo-, methyl ester;2-Isoindolineacetic acid, 1,3-dioxo-, methyl ester;Methyl 1,3-dihydro-1,3-dioxo-2<em>H</em>-isoindole-2-acetate;Phthaloylglycine methyl ester;NSC 126803;Methyl <em>N</em>-phthaloylglycinate;(1,3-Dioxo-1,3-dihydroisoindol-2-yl)acetic acid methyl ester;Methyl phthalimidoacetate",
    "duplicated_cas_no": "",
    "SMILES": "O=C1C=2C(C(=O)N1CC(OC)=O)=CC=CC2",
    "meta_data": {
        "InChI": "InChI=1S/C11H9NO4/c1-16-9(13)6-12-10(14)7-4-2-3-5-8(7)11(12)15/h2-5H,6H2,1H3",
        "InChIKey": null,
        "Canonical SMILES": "O=C(OC)CN1C(=O)C=2C=CC=CC2C1=O",
        "Molecular Formula": "C<sub>11</sub>H<sub>9</sub>NO<sub>4</sub>",
        "Molecular Mass": "219.19",
        "Melting Point": "113 °C"
    }
}