{
    "cas_no": "1011-46-7",
    "key_name": "6-Phenyl-4,5-dihydro-3(2<em>H</em>)-pyridazinone",
    "cn_name": "4,5-二氢-6-苯基-3(2H)-哒嗪酮;",
    "alternate_name": "3(2<em>H</em>)-Pyridazinone, 4,5-dihydro-6-phenyl-;4,5-Dihydro-6-phenyl-3(2<em>H</em>)-pyridazinone;6-Phenyl-4,5-dihydro-3(2<em>H</em>)-pyridazinone;6-Phenyl-4,5-dihydropyridazin-3-one;NSC 51995;LY 032542;1,4,5,6-Tetrahydro-3-phenyl-6-pyridazinone;3-Phenyl-4,5-dihydro-1<em>H</em>-pyridazin-6-one",
    "duplicated_cas_no": "",
    "SMILES": "O=C1CCC(=NN1)C2=CC=CC=C2",
    "meta_data": {
        "InChI": "InChI=1S/C10H10N2O/c13-10-7-6-9(11-12-10)8-4-2-1-3-5-8/h1-5H,6-7H2,(H,12,13)",
        "InChIKey": null,
        "Canonical SMILES": "O=C1NN=C(C=2C=CC=CC2)CC1",
        "Molecular Formula": "C<sub>10</sub>H<sub>10</sub>N<sub>2</sub>O",
        "Molecular Mass": "174.20",
        "Melting Point": "149-150 °C"
    }
}