{
    "cas_no": "3033-62-3",
    "key_name": "Bis(dimethylaminoethyl) ether",
    "cn_name": "双二甲胺基乙基醚;二甲胺基双乙基醚;",
    "alternate_name": "Ethanamine, 2,2′-oxybis[<em>N</em>,<em>N</em>-dimethyl-;Ethylamine, 2,2′-oxybis[<em>N</em>,<em>N</em>-dimethyl-;2,2′-Oxybis[<em>N</em>,<em>N</em>-dimethylethanamine];A 99 (amine);2,2′-Oxybis[<em>N</em>,<em>N</em>-dimethylethylamine];A 99;Niax A 1;Kalpur PC;Bis[2-(dimethylamino)ethyl] ether;Bis(dimethylaminoethyl) ether;Niax A 99;Toyocat ETS;Dabco BL 19I;Dabco BL 19;Toyocat ET;Dabco BL 11;Texacat ZF 20;<em>N</em>,<em>N</em>,<em>N</em>′,<em>N</em>′-Tetramethyl-3-oxapentane-1,5-diamine;1,5-Bis(dimethylamino)-3-oxapentane;Texacat ZF 22;A 133;Minico TMDA;Kaolizer 12P;BL 19;Jeffcat ZM 20;Kaolizer 12;PC CAT NP 99;NP 99;PC CAT NP 133;Jeffcat ZF 20;ZF 20;PC CAT NP 90;NSC 109887;<em>N</em>,<em>N</em>,<em>N</em>′,<em>N</em>′-Tetramethyl-2,2′-oxybis[ethylamine];Toyocat ET 33B;ET 33B;<em>N</em>,<em>N</em>,<em>N</em>′,<em>N</em>′-Tetramethylbisaminoethyl ether;A 1;BL 11;Niax Catalyst A 1;DY 1;Tetramethyl bis(aminoethyl) ether;Addocat 108;Jeffcat Z 20;NT CAT A 1;BDMAEE;Lupragen N 205;Lupragen 205;2-[2-(Dimethylamino)ethoxy]-<em>N</em>,<em>N</em>-dimethylethanamine;2-(2-Dimethylaminoethoxy)-<em>N</em>,<em>N</em>-dimethyl-ethanamine;Polycat BL 17;ETS;ETS (catalyst);Tegoamin A 1;DA 1;Dabco MP 604;Niax EA 1;[2-[2-(Dimethylamino)ethoxy]ethyl]dimethylamine;Niax A 133",
    "duplicated_cas_no": "59948-21-9;112326-78-0;357920-72-0;1021182-97-7;1219809-97-8;1379526-05-2;1615224-28-6;2570310-54-0",
    "SMILES": "C(CN(C)C)OCCN(C)C",
    "meta_data": {
        "InChI": "InChI=1S/C8H20N2O/c1-9(2)5-7-11-8-6-10(3)4/h5-8H2,1-4H3",
        "InChIKey": null,
        "Canonical SMILES": "O(CCN(C)C)CCN(C)C",
        "Molecular Formula": "C<sub>8</sub>H<sub>20</sub>N<sub>2</sub>O",
        "Molecular Mass": "160.26",
        "Boiling Point": "70 °C @ Press: 11 Torr",
        "Density": "0.8496 g/cm³ @ Temp: 20 °C"
    }
}