{
    "cas_no": "5591-70-8",
    "key_name": "4-Phenyl-1<em>H</em>-pyrazol-3-amine",
    "cn_name": "3-氨基-4-苯基吡唑;",
    "alternate_name": "1<em>H</em>-Pyrazol-3-amine, 4-phenyl-;Pyrazole, 3(<em>or</em> 5)-amino-4-phenyl-;4-Phenyl-1<em>H</em>-pyrazol-3-amine;SKF 1572;3-Amino-4-phenylpyrazole;4-Phenylpyrazol-3-amine;4-Phenyl-5-pyrazolamine;(4-Phenyl-1<em>H</em>-pyrazol-3-yl)amine;(4-Phenylpyrazol-3-yl)amine",
    "duplicated_cas_no": "27374-44-3",
    "SMILES": "NC=1C(=CNN1)C2=CC=CC=C2",
    "meta_data": {
        "InChI": "InChI=1S/C9H9N3/c10-9-8(6-11-12-9)7-4-2-1-3-5-7/h1-6H,(H3,10,11,12)",
        "InChIKey": null,
        "Canonical SMILES": "N=1NC=C(C1N)C=2C=CC=CC2",
        "Molecular Formula": "C<sub>9</sub>H<sub>9</sub>N<sub>3</sub>",
        "Molecular Mass": "159.19",
        "Melting Point": "178-179 °C"
    }
}