{
    "cas_no": "78416-81-6",
    "key_name": "4<em>H</em>-Pyrimido[6,1-<em>a</em>]isoquinolin-4-one, 2,3,6,7-tetrahydro-9,10-dimethoxy-3-methyl-2-[(2,4,6-trimethylphenyl)imino]-, hydrochloride (1:1)",
    "cn_name": "盐酸曲林菌素;",
    "alternate_name": "4<em>H</em>-Pyrimido[6,1-<em>a</em>]isoquinolin-4-one, 2,3,6,7-tetrahydro-9,10-dimethoxy-3-methyl-2-[(2,4,6-trimethylphenyl)imino]-, hydrochloride (1:1);4<em>H</em>-Pyrimido[6,1-<em>a</em>]isoquinolin-4-one, 2,3,6,7-tetrahydro-9,10-dimethoxy-3-methyl-2-[(2,4,6-trimethylphenyl)imino]-, monohydrochloride;HL 725;Trequinsin hydrochloride",
    "duplicated_cas_no": "",
    "SMILES": "O=C1N2C(C=3C(=CC(OC)=C(OC)C3)CC2)=CC(=NC4=C(C)C=C(C)C=C4C)N1C.Cl",
    "meta_data": {
        "InChI": "InChI=1S/C24H27N3O3.ClH/c1-14-9-15(2)23(16(3)10-14)25-22-13-19-18-12-21(30-6)20(29-5)11-17(18)7-8-27(19)24(28)26(22)4;/h9-13H,7-8H2,1-6H3;1H",
        "InChIKey": null,
        "Canonical SMILES": "Cl.O=C1N(C(=NC=2C(=CC(=CC2C)C)C)C=C3C=4C=C(OC)C(OC)=CC4CCN13)C",
        "Molecular Formula": "C<sub>24</sub>H<sub>27</sub>N<sub>3</sub>O<sub>3</sub>.ClH",
        "Molecular Mass": "",
        "Melting Point": "210-211 °C"
    }
}