{
    "cas_no": "626-19-7",
    "key_name": "1,3-Benzenedicarboxaldehyde",
    "cn_name": "间苯二甲醛;",
    "alternate_name": "1,3-Benzenedicarboxaldehyde;Isophthalaldehyde;<em>m</em>-Phthalaldehyde;3-Formylbenzaldehyde;<em>m</em>-Benzenedicarboxaldehyde;Benzene-1,3-dicarbaldehyde;<em>m</em>-Benzenedialdehyde;1,3-Benzenedialdehyde;Isophthaldehyde;<em>m</em>-Formylbenzaldehyde;Isophthaldialdehyde;<em>m</em>-Diformylbenzene;<em>m</em>-Benzenedicarbaldehyde;NSC 5092;1,3-Diformylbenzene;Isophthal;LA 5D",
    "duplicated_cas_no": "",
    "SMILES": "C(=O)C1=CC(C=O)=CC=C1",
    "meta_data": {
        "InChI": "InChI=1S/C8H6O2/c9-5-7-2-1-3-8(4-7)6-10/h1-6H",
        "InChIKey": null,
        "Canonical SMILES": "O=CC1=CC=CC(C=O)=C1",
        "Molecular Formula": "C<sub>8</sub>H<sub>6</sub>O<sub>2</sub>",
        "Molecular Mass": "134.13",
        "Boiling Point": "246 °C",
        "Melting Point": "89.5 °C"
    }
}