{
    "cas_no": "677-25-8",
    "key_name": "Ethenesulfonyl fluoride",
    "cn_name": null,
    "alternate_name": "Ethenesulfonyl fluoride;Vinylsulfonyl fluoride",
    "duplicated_cas_no": "",
    "SMILES": "S(C=C)(F)(=O)=O",
    "meta_data": {
        "InChI": "InChI=1S/C2H3FO2S/c1-2-6(3,4)5/h2H,1H2",
        "InChIKey": null,
        "Canonical SMILES": "O=S(=O)(F)C=C",
        "Molecular Formula": "C<sub>2</sub>H<sub>3</sub>FO<sub>2</sub>S",
        "Molecular Mass": "110.11",
        "Boiling Point": "44-46 °C @ Press: 50 Torr",
        "Density": "1.3329 g/cm³ @ Temp: 20 °C"
    }
}