{
    "cas_no": "6602-33-1",
    "key_name": "2,6-Dibromo-3-pyridinol",
    "cn_name": "2,6-二溴-3-羟基吡啶;",
    "alternate_name": "3-Pyridinol, 2,6-dibromo-;2,6-Dibromo-3-pyridinol;2,6-Dibromo-3-hydroxypyridine",
    "duplicated_cas_no": "",
    "SMILES": "BrC1=C(O)C=CC(Br)=N1",
    "meta_data": {
        "InChI": "InChI=1S/C5H3Br2NO/c6-4-2-1-3(9)5(7)8-4/h1-2,9H",
        "InChIKey": null,
        "Canonical SMILES": "BrC=1N=C(Br)C(O)=CC1",
        "Molecular Formula": "C<sub>5</sub>H<sub>3</sub>Br<sub>2</sub>NO",
        "Molecular Mass": "252.89",
        "Melting Point": "162-163 °C"
    }
}