{
    "cas_no": "7646-93-7",
    "key_name": "Potassium bisulfate",
    "cn_name": "硫酸氢钾;",
    "alternate_name": "Sulfuric acid, potassium salt (1:1);Sulfuric acid, monopotassium salt;Potassium acid sulfate;Potassium bisulfate;Potassium hydrogen sulfate;Sal enixum;Monopotassium sulfate;Acid potassium sulfate;Potassium sulfate (KHSO<sub>4</sub>);Potassium bisulphate;Hydrogen potassium sulfate",
    "duplicated_cas_no": "2253985-05-4",
    "SMILES": "S(=O)(=O)(O)O.[K]",
    "meta_data": {
        "InChI": "InChI=1S/K.H2O4S/c;1-5(2,3)4/h;(H2,1,2,3,4)",
        "InChIKey": null,
        "Canonical SMILES": "[K].O=S(=O)(O)O",
        "Molecular Formula": "H<sub>2</sub>O<sub>4</sub>S.K",
        "Molecular Mass": "",
        "Melting Point": "197 °C",
        "Density": "2.24 g/cm³"
    }
}