{
    "cas_no": "94805-82-0",
    "key_name": "Glycycoumarin",
    "cn_name": null,
    "alternate_name": "2<em>H</em>-1-Benzopyran-2-one, 3-(2,4-dihydroxyphenyl)-7-hydroxy-5-methoxy-6-(3-methyl-2-buten-1-yl)-;2<em>H</em>-1-Benzopyran-2-one, 3-(2,4-dihydroxyphenyl)-7-hydroxy-5-methoxy-6-(3-methyl-2-butenyl)-;3-(2,4-Dihydroxyphenyl)-7-hydroxy-5-methoxy-6-(3-methyl-2-buten-1-yl)-2<em>H</em>-1-benzopyran-2-one;Glycycoumarin",
    "duplicated_cas_no": "",
    "SMILES": "O(C)C1=C2C(OC(=O)C(=C2)C3=C(O)C=C(O)C=C3)=CC(O)=C1CC=C(C)C",
    "meta_data": {
        "InChI": "InChI=1S/C21H20O6/c1-11(2)4-6-14-18(24)10-19-16(20(14)26-3)9-15(21(25)27-19)13-7-5-12(22)8-17(13)23/h4-5,7-10,22-24H,6H2,1-3H3",
        "InChIKey": null,
        "Canonical SMILES": "O=C1OC=2C=C(O)C(=C(OC)C2C=C1C=3C=CC(O)=CC3O)CC=C(C)C",
        "Molecular Formula": "C<sub>21</sub>H<sub>20</sub>O<sub>6</sub>",
        "Molecular Mass": "368.38",
        "Melting Point": "243.5-244.5 °C"
    }
}