{
    "cas_no": "475-00-3",
    "key_name": "Veratrosine",
    "cn_name": null,
    "alternate_name": "β-<span class=\"text-smallcaps\">D</span>-Glucopyranoside, (3β,23β)-14,15,16,17-tetradehydro-23-hydroxyveratraman-3-yl;Veratrosine;1<em>H</em>-Benzo[<em>a</em>]fluorene, β-<span class=\"text-smallcaps\">D</span>-glucopyranoside deriv.;Veratraman, β-<span class=\"text-smallcaps\">D</span>-glucopyranoside deriv.;(3β,23β)-14,15,16,17-Tetradehydro-23-hydroxyveratraman-3-yl β-<span class=\"text-smallcaps\">D</span>-glucopyranoside;Veratramine 3-glucoside;3-<em>O</em>-β-<span class=\"text-smallcaps\">D</span>-Glucopyranosylveratramine;Veratramine 3-β-<span class=\"text-smallcaps\">D</span>-glucopyranoside;Veratramine 3-<em>O</em>-glucoside",
    "duplicated_cas_no": "27938-51-8",
    "SMILES": "C[C@@]12[C@@]3([C@](C=4C(C3)=C(C)C([C@H](C)[C@]5([C@H](O)C[C@H](C)CN5)[H])=CC4)(CC=C1C[C@@H](O[C@@H]6O[C@H](CO)[C@@H](O)[C@H](O)[C@H]6O)CC2)[H])[H]",
    "meta_data": {
        "InChI": "InChI=1S/C33H49NO7/c1-16-11-26(36)28(34-14-16)18(3)21-7-8-22-23-6-5-19-12-20(9-10-33(19,4)25(23)13-24(22)17(21)2)40-32-31(39)30(38)29(37)27(15-35)41-32/h5,7-8,16,18,20,23,25-32,34-39H,6,9-15H2,1-4H3/t16-,18-,20-,23-,25-,26+,27+,28-,29+,30-,31+,32+,33-/m0/s1",
        "InChIKey": null,
        "Canonical SMILES": "OCC1OC(OC2CC3=CCC4C5=CC=C(C(=C5CC4C3(C)CC2)C)C(C)C6NCC(C)CC6O)C(O)C(O)C1O",
        "Molecular Formula": "C<sub>33</sub>H<sub>49</sub>NO<sub>7</sub>",
        "Molecular Mass": "571.74",
        "Melting Point": "235-243 °C (decomp)"
    }
}