{
    "cas_no": "83512-85-0",
    "key_name": "<em>N</em>-Carboxymethylchitosan",
    "cn_name": null,
    "alternate_name": "Chitosan, <em>N</em>-(carboxymethyl);<em>N</em>-Carboxymethylchitosan;Carboxymethylchitosan;C 0001",
    "duplicated_cas_no": "",
    "SMILES": "",
    "meta_data": {
        "InChI": "",
        "InChIKey": null,
        "Canonical SMILES": "",
        "Molecular Formula": "Unspecified",
        "Molecular Mass": "",
        "Melting Point": "253 °C"
    }
}