{
    "uri": "substance/pt/83512850",
    "rn": "83512-85-0",
    "name": "<em>N</em>-Carboxymethylchitosan",
    "images": [],
    "inchi": "",
    "inchiKey": "",
    "smile": "",
    "canonicalSmile": "",
    "molecularFormula": "Unspecified",
    "molecularMass": "",
    "experimentalProperties": [
        {
            "name": "Melting Point",
            "property": "253 °C",
            "sourceNumber": 1
        }
    ],
    "propertyCitations": [
        {
            "docUri": "document/pt/document/29443612",
            "sourceNumber": 1,
            "source": "Miranda, Maria Enoi Santos; Polymer International, (2006), 55(8), 961-969, CAplus"
        }
    ],
    "synonyms": [
        "Chitosan, <em>N</em>-(carboxymethyl)",
        "<em>N</em>-Carboxymethylchitosan",
        "Carboxymethylchitosan",
        "C 0001"
    ],
    "replacedRns": [],
    "hasMolfile": false,
    "source": "https://commonchemistry.cas.org/detail?cas_rn=83512-85-0"
}