{
    "cas_no": "10036-47-2",
    "key_name": "Nitrogen fluoride (N<sub>2</sub>F<sub>4</sub>)",
    "cn_name": null,
    "alternate_name": "Nitrogen fluoride (N<sub>2</sub>F<sub>4</sub>);Tetrafluorohydrazine;Hydrazine, tetrafluoro-;Perfluorohydrazine;Dinitrogen tetrafluoride",
    "duplicated_cas_no": "12357-40-3",
    "SMILES": "N(N(F)F)(F)F",
    "meta_data": {
        "InChI": "InChI=1S/F4N2/c1-5(2)6(3)4",
        "InChIKey": null,
        "Canonical SMILES": "FN(F)N(F)F",
        "Molecular Formula": "F<sub>4</sub>N<sub>2</sub>",
        "Molecular Mass": "104.01",
        "Boiling Point": "-73 °C"
    }
}