{
    "cas_no": "10319-14-9",
    "key_name": "Disperse Yellow 64",
    "cn_name": "分散黄64;溶剂黄176;分散黄3G;2-(4-溴-3-羟基-2-喹啉基)茚满-1,3-二酮;",
    "alternate_name": "1<em>H</em>-Indene-1,3(2<em>H</em>)-dione, 2-(4-bromo-3-hydroxy-2-quinolinyl)-;1,3-Indandione, 2-(4-bromo-3-hydroxy-2-quinolyl)-;2-(4-Bromo-3-hydroxy-2-quinolinyl)-1<em>H</em>-indene-1,3(2<em>H</em>)-dione;3′-Hydroxy-4′-bromoquinophthalone;4-Bromo-3-hydroxyquinophthalone;Miketon Polyester Yellow 3GSL;C.I. Disperse Yellow 64;Tersetile Yellow 3GL;Palanil Yellow 3G;Dispersion Yellow VP 247;Disperse Yellow 64;Samaron Yellow H 3GL;Transetile Yellow P 3GL;Resolin Yellow 3GL;Dianix Yellow F 3G-E;Sumikaron Yellow SE 3GL;Tulasteron Fast Yellow 3G-B;Solvaperm Yellow G;Disperse Yellow 3G;Navilene Yellow 3G;C.I. 47023;Dianix Yellow F 3G-E concentrate;Solvent Yellow 176;C.I. Solvent Yellow 176;4-Bromo-3-hydroxy-2-(1,3-indandion-2-yl)quinoline;Disperse Yellow E 3G;Dianix Yellow E 3G;Allilon Yellow 3G;Disperse Yellow 4GL;Dianix Yellow E 3GL",
    "duplicated_cas_no": "12223-86-8;66565-57-9",
    "SMILES": "O=C1C(C(=O)C=2C1=CC=CC2)C3=NC4=C(C(Br)=C3O)C=CC=C4",
    "meta_data": {
        "InChI": "InChI=1S/C18H10BrNO3/c19-14-11-7-3-4-8-12(11)20-15(18(14)23)13-16(21)9-5-1-2-6-10(9)17(13)22/h1-8,13,23H",
        "InChIKey": null,
        "Canonical SMILES": "O=C1C=2C=CC=CC2C(=O)C1C3=NC=4C=CC=CC4C(Br)=C3O",
        "Molecular Formula": "C<sub>18</sub>H<sub>10</sub>BrNO<sub>3</sub>",
        "Molecular Mass": "368.18",
        "Melting Point": "242-244 °C"
    }
}