{
    "cas_no": "393105-53-8",
    "key_name": "Tiplaxtinin",
    "cn_name": null,
    "alternate_name": "1<em>H</em>-Indole-3-acetic acid, α-oxo-1-(phenylmethyl)-5-[4-(trifluoromethoxy)phenyl]-;α-Oxo-1-(phenylmethyl)-5-[4-(trifluoromethoxy)phenyl]-1<em>H</em>-indole-3-acetic acid;PAI 039;Tiplaxtinin;Tiplasinin",
    "duplicated_cas_no": "",
    "SMILES": "C(C(O)=O)(=O)C=1C=2C(N(CC3=CC=CC=C3)C1)=CC=C(C2)C4=CC=C(OC(F)(F)F)C=C4",
    "meta_data": {
        "InChI": "InChI=1S/C24H16F3NO4/c25-24(26,27)32-18-9-6-16(7-10-18)17-8-11-21-19(12-17)20(22(29)23(30)31)14-28(21)13-15-4-2-1-3-5-15/h1-12,14H,13H2,(H,30,31)",
        "InChIKey": null,
        "Canonical SMILES": "O=C(O)C(=O)C1=CN(C2=CC=C(C=C12)C=3C=CC(OC(F)(F)F)=CC3)CC=4C=CC=CC4",
        "Molecular Formula": "C<sub>24</sub>H<sub>16</sub>F<sub>3</sub>NO<sub>4</sub>",
        "Molecular Mass": "439.38",
        "Melting Point": "169-171 °C"
    }
}