{
    "cas_no": "375-97-3",
    "key_name": "1,1,1,2,2,3,3,4,4,5,5,6,6,7,7,8,8,9,9,10,10-Heneicosafluorodecane",
    "cn_name": "1H-氢氟癸;1H-氢氟癸;",
    "alternate_name": "Decane, 1,1,1,2,2,3,3,4,4,5,5,6,6,7,7,8,8,9,9,10,10-heneicosafluoro-;1,1,1,2,2,3,3,4,4,5,5,6,6,7,7,8,8,9,9,10,10-Heneicosafluorodecane;1<em>H</em>-Perfluorodecane;1-Hydroperfluorodecane",
    "duplicated_cas_no": "",
    "SMILES": "C(C(C(C(C(C(F)F)(F)F)(F)F)(F)F)(F)F)(C(C(C(C(F)(F)F)(F)F)(F)F)(F)F)(F)F",
    "meta_data": {
        "InChI": "InChI=1S/C10HF21/c11-1(12)2(13,14)3(15,16)4(17,18)5(19,20)6(21,22)7(23,24)8(25,26)9(27,28)10(29,30)31/h1H",
        "InChIKey": null,
        "Canonical SMILES": "FC(F)C(F)(F)C(F)(F)C(F)(F)C(F)(F)C(F)(F)C(F)(F)C(F)(F)C(F)(F)C(F)(F)F",
        "Molecular Formula": "C<sub>10</sub>HF<sub>21</sub>",
        "Molecular Mass": "520.08",
        "Boiling Point": "159-160 °C",
        "Melting Point": "31-32 °C"
    }
}