{
    "cas_no": "585-91-1",
    "key_name": "α,β-Trehalose",
    "cn_name": null,
    "alternate_name": "α-<span class=\"text-smallcaps\">D</smallcap>-Glucopyranoside, β-<smallcap>D</span>-glucopyranosyl;α,β-Trehalose;β-<span class=\"text-smallcaps\">D</smallcap>-Glucopyranosyl α-<smallcap>D</span>-glucopyranoside;Neotrehalose",
    "duplicated_cas_no": "",
    "SMILES": "O([C@H]1O[C@H](CO)[C@@H](O)[C@H](O)[C@H]1O)[C@@H]2O[C@H](CO)[C@@H](O)[C@H](O)[C@H]2O",
    "meta_data": {
        "InChI": "InChI=1S/C12H22O11/c13-1-3-5(15)7(17)9(19)11(21-3)23-12-10(20)8(18)6(16)4(2-14)22-12/h3-20H,1-2H2/t3-,4-,5-,6-,7+,8+,9-,10-,11-,12+/m1/s1",
        "InChIKey": null,
        "Canonical SMILES": "OCC1OC(OC2OC(CO)C(O)C(O)C2O)C(O)C(O)C1O",
        "Molecular Formula": "C<sub>12</sub>H<sub>22</sub>O<sub>11</sub>",
        "Molecular Mass": "342.30",
        "Melting Point": "195-210 °C"
    }
}