{
    "cas_no": "51765-51-6",
    "key_name": "2′-Phenoxymethanesulfonanilide",
    "cn_name": null,
    "alternate_name": "Methanesulfonamide, <em>N</em>-(2-phenoxyphenyl)-;<em>N</em>-(2-Phenoxyphenyl)methanesulfonamide;2′-Phenoxymethanesulfonanilide",
    "duplicated_cas_no": "",
    "SMILES": "O(C1=C(NS(C)(=O)=O)C=CC=C1)C2=CC=CC=C2",
    "meta_data": {
        "InChI": "InChI=1S/C13H13NO3S/c1-18(15,16)14-12-9-5-6-10-13(12)17-11-7-3-2-4-8-11/h2-10,14H,1H3",
        "InChIKey": null,
        "Canonical SMILES": "O=S(=O)(NC=1C=CC=CC1OC=2C=CC=CC2)C",
        "Molecular Formula": "C<sub>13</sub>H<sub>13</sub>NO<sub>3</sub>S",
        "Molecular Mass": "263.31",
        "Melting Point": "126 °C"
    }
}