{
    "cas_no": "618-46-2",
    "key_name": "3-Chlorobenzoyl chloride",
    "cn_name": "3-氯苯甲酰氯;间氯苯甲酰氯;",
    "alternate_name": "Benzoyl chloride, 3-chloro-;Benzoyl chloride, <em>m</em>-chloro-;3-Chlorobenzoyl chloride;<em>m</em>-Chlorobenzoyl chloride;NSC 41886",
    "duplicated_cas_no": "",
    "SMILES": "C(Cl)(=O)C1=CC(Cl)=CC=C1",
    "meta_data": {
        "InChI": "InChI=1S/C7H4Cl2O/c8-6-3-1-2-5(4-6)7(9)10/h1-4H",
        "InChIKey": null,
        "Canonical SMILES": "O=C(Cl)C=1C=CC=C(Cl)C1",
        "Molecular Formula": "C<sub>7</sub>H<sub>4</sub>Cl<sub>2</sub>O",
        "Molecular Mass": "175.01",
        "Boiling Point": "225 °C",
        "Melting Point": "48-49 °C"
    }
}