{
    "cas_no": "4640-69-1",
    "key_name": "3,4-Dimethoxy-β-oxobenzenepropanenitrile",
    "cn_name": "3,4-二甲氧基苯甲酰乙腈;",
    "alternate_name": "Benzenepropanenitrile, 3,4-dimethoxy-β-oxo-;Acetonitrile, veratroyl-;3,4-Dimethoxy-β-oxobenzenepropanenitrile;(3,4-Dimethoxybenzoyl)acetonitrile;3,4-Dimethoxybenzoylacetonitrile",
    "duplicated_cas_no": "",
    "SMILES": "C(CC#N)(=O)C1=CC(OC)=C(OC)C=C1",
    "meta_data": {
        "InChI": "InChI=1S/C11H11NO3/c1-14-10-4-3-8(7-11(10)15-2)9(13)5-6-12/h3-4,7H,5H2,1-2H3",
        "InChIKey": null,
        "Canonical SMILES": "N#CCC(=O)C1=CC=C(OC)C(OC)=C1",
        "Molecular Formula": "C<sub>11</sub>H<sub>11</sub>NO<sub>3</sub>",
        "Molecular Mass": "205.21",
        "Melting Point": "138-139 °C"
    }
}