{
    "cas_no": "626-51-7",
    "key_name": "3-Methylglutaric acid",
    "cn_name": "3-甲基戊二酸;",
    "alternate_name": "Pentanedioic acid, 3-methyl-;Glutaric acid, 3-methyl-;Glutaric acid, β-methyl-;3-Methylpentanedioic acid;3-Methylglutaric acid;β-Methylglutaric acid;NSC 14870",
    "duplicated_cas_no": "",
    "SMILES": "C(C(CC(O)=O)C)C(O)=O",
    "meta_data": {
        "InChI": "InChI=1S/C6H10O4/c1-4(2-5(7)8)3-6(9)10/h4H,2-3H2,1H3,(H,7,8)(H,9,10)",
        "InChIKey": null,
        "Canonical SMILES": "O=C(O)CC(C)CC(=O)O",
        "Molecular Formula": "C<sub>6</sub>H<sub>10</sub>O<sub>4</sub>",
        "Molecular Mass": "146.14",
        "Boiling Point": "165-167 °C @ Press: 0.5 Torr",
        "Melting Point": "87 °C",
        "Density": "1.1168 g/cm³ @ Temp: 20 °C"
    }
}