{
    "cas_no": "464-48-2",
    "key_name": "(-)-Camphor",
    "cn_name": "左旋樟脑;(1S)-(-)-樟脑;",
    "alternate_name": "Bicyclo[2.2.1]heptan-2-one, 1,7,7-trimethyl-, (1<em>S</em>,4<em>S</em>)-;Camphor, (1<em>S</em>,4<em>S</em>)-(-)-;Bicyclo[2.2.1]heptan-2-one, 1,7,7-trimethyl-, (1<em>S</em>)-;(1<em>S</em>,4<em>S</em>)-1,7,7-Trimethylbicyclo[2.2.1]heptan-2-one;<em>l</em>-Camphor;(-)-Camphor;(-)-Alcanfor;(1<em>S</em>)-(-)-Camphor;(1<em>S</em>)-Camphor;(1<em>S</em>,4<em>S</em>)-(-)-Camphor;NSC 26351;(<em>S</em>)-(-)-Camphor;(1<em>S</em>)-1,7,7-Trimethylbicyclo[2.2.1]-2-heptanone;(1S,4S)-1,7,7-Trimethylbicyclo[2.2.1]heptan-2-one",
    "duplicated_cas_no": "",
    "SMILES": "C[C@]12C(C)(C)[C@](CC1=O)(CC2)[H]",
    "meta_data": {
        "InChI": "InChI=1S/C10H16O/c1-9(2)7-4-5-10(9,3)8(11)6-7/h7H,4-6H2,1-3H3/t7-,10+/m0/s1",
        "InChIKey": null,
        "Canonical SMILES": "O=C1CC2CCC1(C)C2(C)C",
        "Molecular Formula": "C<sub>10</sub>H<sub>16</sub>O",
        "Molecular Mass": "152.23",
        "Melting Point": "175-178 °C"
    }
}