{
    "cas_no": "368869-86-7",
    "key_name": "1-(4-Iodophenyl)-1<em>H</em>-pyrazole",
    "cn_name": null,
    "alternate_name": "1<em>H</em>-Pyrazole, 1-(4-iodophenyl)-;1-(4-Iodophenyl)-1<em>H</em>-pyrazole;1-(4-Iodophenyl)pyrazole",
    "duplicated_cas_no": "",
    "SMILES": "IC1=CC=C(C=C1)N2C=CC=N2",
    "meta_data": {
        "InChI": "InChI=1S/C9H7IN2/c10-8-2-4-9(5-3-8)12-7-1-6-11-12/h1-7H",
        "InChIKey": null,
        "Canonical SMILES": "IC1=CC=C(C=C1)N2N=CC=C2",
        "Molecular Formula": "C<sub>9</sub>H<sub>7</sub>IN<sub>2</sub>",
        "Molecular Mass": "270.07",
        "Melting Point": "90-91 °C"
    }
}