{
    "cas_no": "89-64-5",
    "key_name": "4-Chloro-2-nitrophenol",
    "cn_name": "4-氯-2-硝基苯酚;2-硝基-4-氯苯酚;邻硝基对氯苯酚;4-氯-2-硝基酚;",
    "alternate_name": "Phenol, 4-chloro-2-nitro-;4-Chloro-2-nitrophenol;2-Nitro-4-chlorophenol;5-Chloro-2-hydroxynitrobenzene;<em>p</em>-Chloro-<em>o</em>-nitrophenol;NSC 520345;4-Chloro-6-nitrophenol",
    "duplicated_cas_no": "",
    "SMILES": "N(=O)(=O)C1=C(O)C=CC(Cl)=C1",
    "meta_data": {
        "InChI": "InChI=1S/C6H4ClNO3/c7-4-1-2-6(9)5(3-4)8(10)11/h1-3,9H",
        "InChIKey": null,
        "Canonical SMILES": "O=N(=O)C1=CC(Cl)=CC=C1O",
        "Molecular Formula": "C<sub>6</sub>H<sub>4</sub>ClNO<sub>3</sub>",
        "Molecular Mass": "173.55",
        "Melting Point": "88.5 °C"
    }
}