{
    "cas_no": "1122-85-6",
    "key_name": "Phenyl cyanate",
    "cn_name": null,
    "alternate_name": "Cyanic acid, phenyl ester;Phenyl cyanate;1-Cyanatobenzene",
    "duplicated_cas_no": "",
    "SMILES": "O(C#N)C1=CC=CC=C1",
    "meta_data": {
        "InChI": "InChI=1S/C7H5NO/c8-6-9-7-4-2-1-3-5-7/h1-5H",
        "InChIKey": null,
        "Canonical SMILES": "N#COC=1C=CC=CC1",
        "Molecular Formula": "C<sub>7</sub>H<sub>5</sub>NO",
        "Molecular Mass": "119.12",
        "Boiling Point": "74-75 °C @ Press: 10 Torr",
        "Melting Point": "51 °C"
    }
}