{
    "cas_no": "458-92-4",
    "key_name": "(Difluoromethoxy)benzene",
    "cn_name": "二氟甲氧基苯;",
    "alternate_name": "Benzene, (difluoromethoxy)-;Anisole, α,α-difluoro-;(Difluoromethoxy)benzene;Difluoromethyl phenyl ether;Phenyl difluoromethyl ether;α,α-Difluoroanisole;NSC 265871",
    "duplicated_cas_no": "",
    "SMILES": "O(C(F)F)C1=CC=CC=C1",
    "meta_data": {
        "InChI": "InChI=1S/C7H6F2O/c8-7(9)10-6-4-2-1-3-5-6/h1-5,7H",
        "InChIKey": null,
        "Canonical SMILES": "FC(F)OC=1C=CC=CC1",
        "Molecular Formula": "C<sub>7</sub>H<sub>6</sub>F<sub>2</sub>O",
        "Molecular Mass": "144.12",
        "Boiling Point": "139-140 °C @ Press: 763 Torr",
        "Density": "1.171 g/cm³ @ Temp: 20 °C"
    }
}