{
    "cas_no": "268214-51-3",
    "key_name": "(3<em>R</em>,3a<em>R</em>,5a<em>S</em>,6a<em>R</em>,6b<em>R</em>,9a<em>R</em>,10a<em>S</em>,10b<em>S</em>)-3-[(1<em>R</em>,4<em>E</em>)-1,5-Dimethyl-6-oxo-4-hexen-1-yl]tetradecahydro-3a,10b-dimethyl-7-methylene-8-oxo-6a<em>H</em>-cyclopenta[7,8]cyclopropa[4,4a]naphtho[2,3-<em>b</em>]furan-6a-propanoic acid",
    "cn_name": null,
    "alternate_name": "6a<em>H</em>-Cyclopenta[7,8]cyclopropa[4,4a]naphtho[2,3-<em>b</em>]furan-6a-propanoic acid, 3-[(1<em>R</em>,4<em>E</em>)-1,5-dimethyl-6-oxo-4-hexen-1-yl]tetradecahydro-3a,10b-dimethyl-7-methylene-8-oxo-, (3<em>R</em>,3a<em>R</em>,5a<em>S</em>,6a<em>R</em>,6b<em>R</em>,9a<em>R</em>,10a<em>S</em>,10b<em>S</em>)-;10b<em>H</em>-Cyclopenta[7,8]cyclopropa[4,4a]naphtho[2,3-<em>b</em>]furan-10b-propanoic acid, 4-[(1<em>R</em>,4<em>E</em>)-1,5-dimethyl-6-oxo-4-hexenyl]tetradecahydro-3a,6a-dimethyl-10-methylene-9-oxo-, (1a<em>S</em>,3a<em>R</em>,4<em>R</em>,6a<em>S</em>,6b<em>S</em>,7a<em>R</em>,10a<em>R</em>,10b<em>R</em>)-;(3<em>R</em>,3a<em>R</em>,5a<em>S</em>,6a<em>R</em>,6b<em>R</em>,9a<em>R</em>,10a<em>S</em>,10b<em>S</em>)-3-[(1<em>R</em>,4<em>E</em>)-1,5-Dimethyl-6-oxo-4-hexen-1-yl]tetradecahydro-3a,10b-dimethyl-7-methylene-8-oxo-6a<em>H</em>-cyclopenta[7,8]cyclopropa[4,4a]naphtho[2,3-<em>b</em>]furan-6a-propanoic acid;Coronalolide",
    "duplicated_cas_no": "",
    "SMILES": "C(CC(O)=O)[C@]12[C@]3([C@]([C@@]4(C)[C@](C)(CC3)[C@@]([C@@H](CC/C=C(/C=O)\\C)C)(CC4)[H])(C[C@@]5([C@]1(C(=C)C(=O)O5)[H])[H])[H])C2",
    "meta_data": {
        "InChI": "InChI=1S/C30H42O5/c1-18(16-31)7-6-8-19(2)21-9-11-28(5)23-15-22-25(20(3)26(34)35-22)30(12-10-24(32)33)17-29(23,30)14-13-27(21,28)4/h7,16,19,21-23,25H,3,6,8-15,17H2,1-2,4-5H3,(H,32,33)/b18-7+/t19-,21-,22-,23+,25-,27-,28+,29+,30-/m1/s1",
        "InChIKey": null,
        "Canonical SMILES": "O=CC(=CCCC(C)C1CCC2(C)C3CC4OC(=O)C(=C)C4C5(CCC(=O)O)CC35CCC12C)C",
        "Molecular Formula": "C<sub>30</sub>H<sub>42</sub>O<sub>5</sub>",
        "Molecular Mass": "482.65",
        "Melting Point": "82.2-83.1 °C"
    }
}