{
    "cas_no": "55373-89-2",
    "key_name": "Methyl pentacosanoate",
    "cn_name": "二十五酸甲酯;二十五酸甲酯;",
    "alternate_name": "Pentacosanoic acid, methyl ester;Methyl pentacosanoate",
    "duplicated_cas_no": "",
    "SMILES": "C(CCCCCCCCCCCCCCCCCC)CCCCCC(OC)=O",
    "meta_data": {
        "InChI": "InChI=1S/C26H52O2/c1-3-4-5-6-7-8-9-10-11-12-13-14-15-16-17-18-19-20-21-22-23-24-25-26(27)28-2/h3-25H2,1-2H3",
        "InChIKey": null,
        "Canonical SMILES": "O=C(OC)CCCCCCCCCCCCCCCCCCCCCCCC",
        "Molecular Formula": "C<sub>26</sub>H<sub>52</sub>O<sub>2</sub>",
        "Molecular Mass": "396.69",
        "Melting Point": "58-59 °C"
    }
}