{
    "cas_no": "51632-16-7",
    "key_name": "3-Phenoxybenzyl bromide",
    "cn_name": null,
    "alternate_name": "Benzene, 1-(bromomethyl)-3-phenoxy-;1-(Bromomethyl)-3-phenoxybenzene;3-Phenoxybenzyl bromide;<em>m</em>-Phenoxybenzyl bromide;α-Bromo-<em>m</em>-tolyl phenyl ether;<em>m</em>-(Bromomethyl)phenyl phenyl ether;3-Phenoxy-α-bromotoluene",
    "duplicated_cas_no": "",
    "SMILES": "O(C1=CC(CBr)=CC=C1)C2=CC=CC=C2",
    "meta_data": {
        "InChI": "InChI=1S/C13H11BrO/c14-10-11-5-4-8-13(9-11)15-12-6-2-1-3-7-12/h1-9H,10H2",
        "InChIKey": null,
        "Canonical SMILES": "BrCC=1C=CC=C(OC=2C=CC=CC2)C1",
        "Molecular Formula": "C<sub>13</sub>H<sub>11</sub>BrO",
        "Molecular Mass": "263.13",
        "Boiling Point": "52 °C @ Press: 0.4 Torr"
    }
}