{
    "cas_no": "4253-34-3",
    "key_name": "Methyltriacetoxysilane",
    "cn_name": "甲基三乙酰氧基硅烷;",
    "alternate_name": "Silanetriol, 1-methyl-, 1,1,1-triacetate;Silanetriol, methyl-, triacetate;Triacetoxymethylsilane;Methylsilanetriol triacetate;Methyltrihydroxysilane triacetate;Methyltriacetoxysilane;K 10S;APK 1;TSL 8180;APK 1 (silane derivative);NSC 139845;SIM 6519.0;SIM 6519;ZH 1103;CG 100;CG 100 (coupling agent);Nethyltriacetoxysilane;[Diacetyloxy(methyl)silyl] acetate;ES 15;KH 401;TM 002",
    "duplicated_cas_no": "",
    "SMILES": "[Si](OC(C)=O)(OC(C)=O)(OC(C)=O)C",
    "meta_data": {
        "InChI": "InChI=1S/C7H12O6Si/c1-5(8)11-14(4,12-6(2)9)13-7(3)10/h1-4H3",
        "InChIKey": null,
        "Canonical SMILES": "O=C(O[Si](OC(=O)C)(OC(=O)C)C)C",
        "Molecular Formula": "C<sub>7</sub>H<sub>12</sub>O<sub>6</sub>Si",
        "Molecular Mass": "220.25",
        "Boiling Point": "87-88 °C @ Press: 3 Torr",
        "Melting Point": "40.5 °C",
        "Density": "1.175 g/cm³"
    }
}