{
    "cas_no": "623-95-0",
    "key_name": "<em>N</em>,<em>N</em>′-Dipropylurea",
    "cn_name": "1,3-二丙基脲;",
    "alternate_name": "Urea, <em>N</em>,<em>N</em>′-dipropyl-;Urea, 1,3-dipropyl-;<em>N</em>,<em>N</em>′-Dipropylurea;1,3-Di-<em>n</em>-propylurea;1,3-Dipropylurea",
    "duplicated_cas_no": "",
    "SMILES": "C(NCCC)(NCCC)=O",
    "meta_data": {
        "InChI": "InChI=1S/C7H16N2O/c1-3-5-8-7(10)9-6-4-2/h3-6H2,1-2H3,(H2,8,9,10)",
        "InChIKey": null,
        "Canonical SMILES": "O=C(NCCC)NCCC",
        "Molecular Formula": "C<sub>7</sub>H<sub>16</sub>N<sub>2</sub>O",
        "Molecular Mass": "144.21",
        "Boiling Point": "255 °C",
        "Melting Point": "105 °C",
        "Density": "1.0957 g/cm³"
    }
}