{
    "cas_no": "928-98-3",
    "key_name": "1,5-Pentanedithiol",
    "cn_name": "1,5-戊二硫醇;",
    "alternate_name": "1,5-Pentanedithiol;1,5-Dimercaptopentane;NSC 51699;1,5-Dithiolpentane",
    "duplicated_cas_no": "",
    "SMILES": "C(CCS)CCS",
    "meta_data": {
        "InChI": "InChI=1S/C5H12S2/c6-4-2-1-3-5-7/h6-7H,1-5H2",
        "InChIKey": null,
        "Canonical SMILES": "SCCCCCS",
        "Molecular Formula": "C<sub>5</sub>H<sub>12</sub>S<sub>2</sub>",
        "Molecular Mass": "136.28",
        "Boiling Point": "108-109 °C @ Press: 15 Torr"
    }
}