{
    "cas_no": "95-70-5",
    "key_name": "2,5-Diaminotoluene",
    "cn_name": "2,5-二氨基甲苯;2-甲基-1,4-苯二胺;2-甲基对苯二胺;",
    "alternate_name": "1,4-Benzenediamine, 2-methyl-;Toluene-2,5-diamine;2-Methyl-1,4-benzenediamine;C.I. 76042;Toluylene-2,5-diamine;2-Methyl-<em>p</em>-phenylenediamine;2,5-Diaminotoluene;4-Amino-2-methylaniline;2-Methyl-1,4-phenylenediamine;<em>p</em>-Toluenediamine;1,4-Diamino-2-methylbenzene;1-Methyl-2,5-diaminobenzene;2,5-Diaminotoluol;4-Amino-3-methylaniline",
    "duplicated_cas_no": "124688-01-3;33379-31-6;62488-19-1;156031-30-0",
    "SMILES": "CC1=C(N)C=CC(N)=C1",
    "meta_data": {
        "InChI": "InChI=1S/C7H10N2/c1-5-4-6(8)2-3-7(5)9/h2-4H,8-9H2,1H3",
        "InChIKey": null,
        "Canonical SMILES": "NC1=CC=C(N)C(=C1)C",
        "Molecular Formula": "C<sub>7</sub>H<sub>10</sub>N<sub>2</sub>",
        "Molecular Mass": "122.17",
        "Boiling Point": "273.5 °C",
        "Melting Point": "64 °C"
    }
}