{
    "cas_no": "34231-78-2",
    "key_name": "3-(Acetyloxy)benzaldehyde",
    "cn_name": "3-乙酰氧基苯甲醛;",
    "alternate_name": "Benzaldehyde, 3-(acetyloxy)-;Benzaldehyde, <em>m</em>-hydroxy-, acetate;3-(Acetyloxy)benzaldehyde;3-Acetoxybenzaldehyde;<em>m</em>-Acetoxybenzaldehyde;<em>m</em>-Hydroxybenzaldehyde acetate;3-Formylphenyl acetate",
    "duplicated_cas_no": "",
    "SMILES": "O(C(C)=O)C1=CC(C=O)=CC=C1",
    "meta_data": {
        "InChI": "InChI=1S/C9H8O3/c1-7(11)12-9-4-2-3-8(5-9)6-10/h2-6H,1H3",
        "InChIKey": null,
        "Canonical SMILES": "O=CC=1C=CC=C(OC(=O)C)C1",
        "Molecular Formula": "C<sub>9</sub>H<sub>8</sub>O<sub>3</sub>",
        "Molecular Mass": "164.16",
        "Boiling Point": "140 °C @ Press: 16 Torr",
        "Melting Point": "198 °C"
    }
}