{
    "cas_no": "131-62-4",
    "key_name": "1-Hydroxy-1,2-benziodoxol-3(1<em>H</em>)-one",
    "cn_name": null,
    "alternate_name": "1,2-Benziodoxol-3(1<em>H</em>)-one, 1-hydroxy-;1-Hydroxy-1,2-benziodoxol-3(1<em>H</em>)-one;NSC 364374;1-Hydroxy-1λ<sup>3</sup>-benzo[<em>d</em>][1,2]iodaoxol-3(1<em>H</em>)-one;1-Hydroxy-1,2-benziodoxol-3-one;1-Hydroxy-1λ<sup>3</sup>,2-benziodoxol-3(1<em>H</em>)-one;1-Hydroxy-3<em>H</em>-1λ3,2-benziodaoxol-3-one;1-Hydroxy-3-oxo-1,3-dihydro-1,2-benzoiodoxole;BIOH",
    "duplicated_cas_no": "1257985-50-4",
    "SMILES": "O=C1C=2C(I(O)O1)=CC=CC2",
    "meta_data": {
        "InChI": "InChI=1S/C7H5IO3/c9-7-5-3-1-2-4-6(5)8(10)11-7/h1-4,10H",
        "InChIKey": null,
        "Canonical SMILES": "O=C1OI(O)C=2C=CC=CC12",
        "Molecular Formula": "C<sub>7</sub>H<sub>5</sub>IO<sub>3</sub>",
        "Molecular Mass": "264.02",
        "Melting Point": "260 °C (decomp)"
    }
}