{
    "cas_no": "114567-47-4",
    "key_name": "Ganoderiol F",
    "cn_name": null,
    "alternate_name": "Lanosta-7,9(11),24-trien-3-one, 26,27-dihydroxy-;26,27-Dihydroxylanosta-7,9(11),24-trien-3-one;Ganoderiol F",
    "duplicated_cas_no": "",
    "SMILES": "C[C@]12C=3C([C@]4(C)[C@@](CC3)(C(C)(C)C(=O)CC4)[H])=CC[C@]1(C)[C@@]([C@@H](CCC=C(CO)CO)C)(CC2)[H]",
    "meta_data": {
        "InChI": "InChI=1S/C30H46O3/c1-20(8-7-9-21(18-31)19-32)22-12-16-30(6)24-10-11-25-27(2,3)26(33)14-15-28(25,4)23(24)13-17-29(22,30)5/h9-10,13,20,22,25,31-32H,7-8,11-12,14-19H2,1-6H3/t20-,22-,25+,28-,29-,30+/m1/s1",
        "InChIKey": null,
        "Canonical SMILES": "O=C1CCC2(C3=CCC4(C)C(CCC4(C3=CCC2C1(C)C)C)C(C)CCC=C(CO)CO)C",
        "Molecular Formula": "C<sub>30</sub>H<sub>46</sub>O<sub>3</sub>",
        "Molecular Mass": "454.68",
        "Melting Point": "116-120 °C"
    }
}