{
    "cas_no": "355-68-0",
    "key_name": "Perfluorocyclohexane",
    "cn_name": null,
    "alternate_name": "Cyclohexane, 1,1,2,2,3,3,4,4,5,5,6,6-dodecafluoro-;Cyclohexane, dodecafluoro-;1,1,2,2,3,3,4,4,5,5,6,6-Dodecafluorocyclohexane;Perfluorocyclohexane;Dodecafluorocyclohexane;FC-c 51-12c;NSC 68382",
    "duplicated_cas_no": "1201928-75-7",
    "SMILES": "FC1(F)C(F)(F)C(F)(F)C(F)(F)C(F)(F)C1(F)F",
    "meta_data": {
        "InChI": "InChI=1S/C6F12/c7-1(8)2(9,10)4(13,14)6(17,18)5(15,16)3(1,11)12",
        "InChIKey": null,
        "Canonical SMILES": "FC1(F)C(F)(F)C(F)(F)C(F)(F)C(F)(F)C1(F)F",
        "Molecular Formula": "C<sub>6</sub>F<sub>12</sub>",
        "Molecular Mass": "300.05",
        "Boiling Point": "50.6 °C",
        "Melting Point": "58.2 °C"
    }
}