{
    "cas_no": "4815-36-5",
    "key_name": "2-Amino-3-(ethoxycarbonyl)-4-phenylthiophene",
    "cn_name": null,
    "alternate_name": "3-Thiophenecarboxylic acid, 2-amino-4-phenyl-, ethyl ester;Ethyl 2-amino-4-phenyl-3-thiophenecarboxylate;2-Amino-3-(ethoxycarbonyl)-4-phenylthiophene;2-Amino-3-carboethoxy-4-phenylthiophene;NSC 149683;NSC 171773;2-Amino-4-phenyl-thiophene-3-carboxylic acid ethyl ester",
    "duplicated_cas_no": "",
    "SMILES": "C(OCC)(=O)C=1C(=CSC1N)C2=CC=CC=C2",
    "meta_data": {
        "InChI": "InChI=1S/C13H13NO2S/c1-2-16-13(15)11-10(8-17-12(11)14)9-6-4-3-5-7-9/h3-8H,2,14H2,1H3",
        "InChIKey": null,
        "Canonical SMILES": "O=C(OCC)C1=C(SC=C1C=2C=CC=CC2)N",
        "Molecular Formula": "C<sub>13</sub>H<sub>13</sub>NO<sub>2</sub>S",
        "Molecular Mass": "247.31",
        "Melting Point": "98 °C"
    }
}