{
    "cas_no": "66584-72-3",
    "key_name": "Ansamitocin P 3",
    "cn_name": null,
    "alternate_name": "Maytansine, 2′-de(acetylmethylamino)-2′-methyl-;4,24-Dioxa-9,22-diazatetracyclo[19.3.1.1<sup>10,14</sup>.0<sup>3,5</sup>]hexacosane, maytansine deriv.;2′-De(acetylmethylamino)-2′-methylmaytansine;Maytansinol isobutyrate;Ansamitocin P 3;Antibiotic C 15003P3;Ansamitosin P 3;NSC 292222",
    "duplicated_cas_no": "83541-34-8;2768502-44-7",
    "SMILES": "C[C@]12[C@@](O1)([C@H](C)[C@@]3(C[C@](O)([C@H](OC)/C=C/C=C(\\C)/CC4=CC(N(C)C(=O)C[C@@H]2OC(C(C)C)=O)=C(Cl)C(OC)=C4)NC(=O)O3)[H])[H]",
    "meta_data": {
        "InChI": "InChI=1S/C32H43ClN2O9/c1-17(2)29(37)43-25-15-26(36)35(6)21-13-20(14-22(40-7)27(21)33)12-18(3)10-9-11-24(41-8)32(39)16-23(42-30(38)34-32)19(4)28-31(25,5)44-28/h9-11,13-14,17,19,23-25,28,39H,12,15-16H2,1-8H3,(H,34,38)/b11-9+,18-10+/t19-,23+,24-,25+,28+,31+,32+/m1/s1",
        "InChIKey": null,
        "Canonical SMILES": "O=C1OC2CC(O)(N1)C(OC)C=CC=C(C)CC3=CC(OC)=C(Cl)C(=C3)N(C(=O)CC(OC(=O)C(C)C)C4(OC4C2C)C)C",
        "Molecular Formula": "C<sub>32</sub>H<sub>43</sub>ClN<sub>2</sub>O<sub>9</sub>",
        "Molecular Mass": "635.14",
        "Melting Point": "190-192 °C"
    }
}