{
    "cas_no": "1072-72-6",
    "key_name": "Tetrahydrothiopyran-4-one",
    "cn_name": "四氢噻喃-4-酮;",
    "alternate_name": "4<em>H</em>-Thiopyran-4-one, tetrahydro-;Tetrahydro-4<em>H</em>-thiopyran-4-one;Penthianone;4-Thiacyclohexanone;Tetrahydrothiopyran-4-one;1-Thiacyclohexan-4-one;2,3,5,6-Tetrahydro-4-thiopyranone;Tetrahydro-1-thio-4-pyrone;Tetrahydro-4-thiopyrone;4-Oxothiane;Tetrahydro-1-thio-γ-pyrone;4-Oxotetrahydrothiopyran;4-Thianone;Tetrahydrothiapyran-4-one;4-Thiacyclohexan-1-one;NSC 41599;Dihydro-2<em>H</em>-thiopyran-4(3<em>H</em>)-one",
    "duplicated_cas_no": "",
    "SMILES": "O=C1CCSCC1",
    "meta_data": {
        "InChI": "InChI=1S/C5H8OS/c6-5-1-3-7-4-2-5/h1-4H2",
        "InChIKey": null,
        "Canonical SMILES": "O=C1CCSCC1",
        "Molecular Formula": "C<sub>5</sub>H<sub>8</sub>OS",
        "Molecular Mass": "116.18",
        "Melting Point": "65-66 °C"
    }
}