{
    "cas_no": "633-31-8",
    "key_name": "Cholesteryl propionate",
    "cn_name": null,
    "alternate_name": "Cholest-5-en-3-ol (3β)-, 3-propanoate;Cholesterol, propionate;Cholest-5-en-3-ol (3β)-, propanoate;Cholesteryl propionate;3β-(Propionyloxy)cholest-5-ene;Cholesterol <em>n</em>-propionate;Cholesteryl propanoate;NSC 226871;Cholest-5-en-3β-ol propionate;5-Cholesten-3β-ol propionate",
    "duplicated_cas_no": "",
    "SMILES": "C[C@@]12[C@@]3([C@]([C@]4([C@](C)(CC3)[C@@]([C@@H](CCCC(C)C)C)(CC4)[H])[H])(CC=C1C[C@@H](OC(CC)=O)CC2)[H])[H]",
    "meta_data": {
        "InChI": "InChI=1S/C30H50O2/c1-7-28(31)32-23-15-17-29(5)22(19-23)11-12-24-26-14-13-25(21(4)10-8-9-20(2)3)30(26,6)18-16-27(24)29/h11,20-21,23-27H,7-10,12-19H2,1-6H3/t21-,23+,24+,25-,26+,27+,29+,30-/m1/s1",
        "InChIKey": null,
        "Canonical SMILES": "O=C(OC1CC2=CCC3C(CCC4(C)C(CCC34)C(C)CCCC(C)C)C2(C)CC1)CC",
        "Molecular Formula": "C<sub>30</sub>H<sub>50</sub>O<sub>2</sub>",
        "Molecular Mass": "442.72",
        "Melting Point": "113.0 °C"
    }
}