{
    "cas_no": "5888-33-5",
    "key_name": "Isobornyl acrylate",
    "cn_name": "丙烯酸异冰片酯;",
    "alternate_name": "2-Propenoic acid, (1<em>R</em>,2<em>R</em>,4<em>R</em>)-1,7,7-trimethylbicyclo[2.2.1]hept-2-yl ester, <em>rel</em>-;2-Propenoic acid, 1,7,7-trimethylbicyclo[2.2.1]hept-2-yl ester, <em>exo</em>-;Acrylic acid, isobornyl ester;<em>exo</em>-Isobornyl acrylate;QM 589;Isobornyl acrylate;Al-co-cure IBA;IBOA;SR 506 (acrylate);SR 506;Light Acrylate IB-XA;Ebecryl IBOA;Sartomer 506;Ebecryl IBOA-B;Sartomer SR 506;SR 506A;M 156;Aronix M 156;Newfrontier IBA;MPL 214;Sipomer HP;Genomer 1121;SR 506D;Sipomer IBOA-HP-STD;Sartomer 506D;IBA;M 8130;NK Ester A-IB;Sipomer IBOA-HP;AgiSyn 2870;SR 560;Sartomer SR 560;Kayarad RM 1002;Sartomer SR 506D;IBXA;EM 70;SR 506NS;Photomer 4012;RM 1002;IBOA-MB 302;IBOA-MB 602;Sarbio 5102;<em>exo</em>-1,7,7-Trimethylbicyclo[2. 2.1]hept-2-yl acrylate;M 1140;Miramer M 1140;Miramer M 1121;Visiomer IBOA;SR 506C;GM 61Q00;IBOA-B;Isonorbornyl acrylate;Etermer 70;SR 506HP;Visiomer Terra IBOA;A-IB;SR 506EG",
    "duplicated_cas_no": "111821-21-7;214686-31-4;918779-70-1;1202805-17-1;1254182-70-1;1467078-73-4;2241097-19-6",
    "SMILES": "C[C@@]12[C@@H](OC(C=C)=O)C[C@@](C1(C)C)(CC2)[H]",
    "meta_data": {
        "InChI": "InChI=1/C13H20O2/c1-5-11(14)15-10-8-9-6-7-13(10,4)12(9,2)3/h5,9-10H,1,6-8H2,2-4H3/t9-,10-,13+/s2",
        "InChIKey": null,
        "Canonical SMILES": "O=C(OC1CC2CCC1(C)C2(C)C)C=C",
        "Molecular Formula": "C<sub>13</sub>H<sub>20</sub>O<sub>2</sub>",
        "Molecular Mass": "208.30",
        "Boiling Point": "104-106 °C @ Press: 4.5 Torr"
    }
}