{
    "cas_no": "338-83-0",
    "key_name": "Perfluorotripropylamine",
    "cn_name": "卜氟胺;FC-3283;",
    "alternate_name": "1-Propanamine, 1,1,2,2,3,3,3-heptafluoro-<em>N</em>,<em>N</em>-bis(1,1,2,2,3,3,3-heptafluoropropyl)-;Tripropylamine, heneicosafluoro-;1-Propanamine, 1,1,2,2,3,3,3-heptafluoro-<em>N</em>,<em>N</em>-bis(heptafluoropropyl)-;1,1,2,2,3,3,3-Heptafluoro-<em>N</em>,<em>N</em>-bis(1,1,2,2,3,3,3-heptafluoropropyl)-1-propanamine;Perfluorotripropylamine;FTPA;Tri(perfluoropropyl)amine;Perfluamine;Tris(perfluoropropyl)amine;Tris(heptafluoropropyl)amine;Tri (perfluoro <em>n</em>-propyl) amine",
    "duplicated_cas_no": "1201928-45-1",
    "SMILES": "N(C(C(C(F)(F)F)(F)F)(F)F)(C(C(C(F)(F)F)(F)F)(F)F)C(C(C(F)(F)F)(F)F)(F)F",
    "meta_data": {
        "InChI": "InChI=1S/C9F21N/c10-1(11,4(16,17)18)7(25,26)31(8(27,28)2(12,13)5(19,20)21)9(29,30)3(14,15)6(22,23)24",
        "InChIKey": null,
        "Canonical SMILES": "FC(F)(F)C(F)(F)C(F)(F)N(C(F)(F)C(F)(F)C(F)(F)F)C(F)(F)C(F)(F)C(F)(F)F",
        "Molecular Formula": "C<sub>9</sub>F<sub>21</sub>N",
        "Molecular Mass": "521.07",
        "Boiling Point": "130 °C",
        "Melting Point": "-52 °C",
        "Density": "1.822 g/cm³ @ Temp: 25 °C"
    }
}