{
    "cas_no": "52497-36-6",
    "key_name": "Dihydrokainic acid",
    "cn_name": "二氢红藻氨酸;2-羧基-4-异丙基-3-吡咯烷乙酸;",
    "alternate_name": "3-Pyrrolidineacetic acid, 2-carboxy-4-(1-methylethyl)-, (2<em>S</em>,3<em>S</em>,4<em>R</em>)-;3-Pyrrolidineacetic acid, 2-carboxy-4-(1-methylethyl)-, [2<em>S</em>-(2α,3β,4β)]-;(2<em>S</em>,3<em>S</em>,4<em>R</em>)-2-Carboxy-4-(1-methylethyl)-3-pyrrolidineacetic acid;Dihydrokainic acid;α-Dihydrokainic acid",
    "duplicated_cas_no": "59905-20-3",
    "SMILES": "C(C(O)=O)[C@H]1[C@@H]([C@H](C)C)CN[C@@H]1C(O)=O",
    "meta_data": {
        "InChI": "InChI=1S/C10H17NO4/c1-5(2)7-4-11-9(10(14)15)6(7)3-8(12)13/h5-7,9,11H,3-4H2,1-2H3,(H,12,13)(H,14,15)/t6-,7+,9-/m0/s1",
        "InChIKey": null,
        "Canonical SMILES": "O=C(O)CC1C(NCC1C(C)C)C(=O)O",
        "Molecular Formula": "C<sub>10</sub>H<sub>17</sub>NO<sub>4</sub>",
        "Molecular Mass": "215.25",
        "Melting Point": "285 °C (decomp)"
    }
}