{
    "cas_no": "611-64-3",
    "key_name": "9-Methylacridine",
    "cn_name": "9-甲基吖啶;",
    "alternate_name": "Acridine, 9-methyl-;9-Methylacridine;NSC 1234",
    "duplicated_cas_no": "",
    "SMILES": "CC=1C2=C(N=C3C1C=CC=C3)C=CC=C2",
    "meta_data": {
        "InChI": "InChI=1S/C14H11N/c1-10-11-6-2-4-8-13(11)15-14-9-5-3-7-12(10)14/h2-9H,1H3",
        "InChIKey": null,
        "Canonical SMILES": "N=1C=2C=CC=CC2C(=C3C=CC=CC13)C",
        "Molecular Formula": "C<sub>14</sub>H<sub>11</sub>N",
        "Molecular Mass": "193.24",
        "Melting Point": "117-118 °C"
    }
}