{
    "cas_no": "10049-05-5",
    "key_name": "Chromium dichloride",
    "cn_name": "亚铬酸;",
    "alternate_name": "Chromium chloride (CrCl<sub>2</sub>);Chromium dichloride;Chromous chloride;Chromium(II) chloride",
    "duplicated_cas_no": "53569-88-3",
    "SMILES": "[Cr](Cl)Cl",
    "meta_data": {
        "InChI": "InChI=1S/2ClH.Cr/h2*1H;/q;;+2/p-2",
        "InChIKey": null,
        "Canonical SMILES": "Cl[Cr]Cl",
        "Molecular Formula": "Cl<sub>2</sub>Cr",
        "Molecular Mass": "",
        "Boiling Point": "1300 °C",
        "Melting Point": "824 °C",
        "Density": "2.751 g/cm³ @ Temp: 14 °C"
    }
}