{
    "cas_no": "581-88-4",
    "key_name": "Debrisoquine sulfate",
    "cn_name": null,
    "alternate_name": "2(1<em>H</em>)-Isoquinolinecarboximidamide, 3,4-dihydro-, sulfate (2:1);2(1<em>H</em>)-Isoquinolinecarboxamidine, 3,4-dihydro-, sulfate (2:1);Debrisoquin sulfate;Declinax;Isocaramidine sulfate;Debrisoquine sulfate;1,2,3,4-Tetrahydro-isoquinoline-2-carboxamidine sulfate;Ro 5-3307/1;Debrisoquin hemisulfate;Debrisoquine hemisulfate;3,4-Dihydroisoquinoline-2(1<em>H</em>)-carboximidamide hemisulfate",
    "duplicated_cas_no": "",
    "SMILES": "S(=O)(=O)(O)O.C(=N)(N)N1CC=2C(CC1)=CC=CC2",
    "meta_data": {
        "InChI": "InChI=1S/C10H13N3.H2O4S/c11-10(12)13-6-5-8-3-1-2-4-9(8)7-13;1-5(2,3)4/h1-4H,5-7H2,(H3,11,12);(H2,1,2,3,4)",
        "InChIKey": null,
        "Canonical SMILES": "O=S(=O)(O)O.N=C(N)N1CC=2C=CC=CC2CC1",
        "Molecular Formula": "C<sub>10</sub>H<sub>13</sub>N<sub>3</sub>.<sup>1</sup>/<sub>2</sub>H<sub>2</sub>O<sub>4</sub>S",
        "Molecular Mass": "",
        "Melting Point": "278-280 °C"
    }
}