{
    "cas_no": "2144-54-9",
    "key_name": "3,3,4,4,5,5,6,6,7,7,8,8,9,9,10,10,11,11,12,12,12-Heneicosafluorododecyl 2-methyl-2-propenoate",
    "cn_name": "2-(全氟癸基)乙基甲基丙烯酸酯;1,1,2,2-四氢全氟十二烷基甲基丙烯酸酯;",
    "alternate_name": "2-Propenoic acid, 2-methyl-, 3,3,4,4,5,5,6,6,7,7,8,8,9,9,10,10,11,11,12,12,12-heneicosafluorododecyl ester;Methacrylic acid, 3,3,4,4,5,5,6,6,7,7,8,8,9,9,10,10,11,11,12,12,12-heneicosafluorododecyl ester;1-Dodecanol, 3,3,4,4,5,5,6,6,7,7,8,8,9,9,10,10,11,11,12,12,12-heneicosafluoro-, methacrylate;3,3,4,4,5,5,6,6,7,7,8,8,9,9,10,10,11,11,12,12,12-Heneicosafluorododecyl 2-methyl-2-propenoate;2-(Perfluorodecyl)ethyl methacrylate;Perfluorodecylethyl methacrylate;3,3,4,4,5,5,6,6,7,7,8,8,9,9,10,10,11,11,12,12,12-Heneicosafluorododecyl methacrylate",
    "duplicated_cas_no": "162953-69-7",
    "SMILES": "C(C(C(C(C(C(F)(F)F)(F)F)(F)F)(F)F)(F)F)(C(C(C(C(CCOC(C(C)=C)=O)(F)F)(F)F)(F)F)(F)F)(F)F",
    "meta_data": {
        "InChI": "InChI=1S/C16H9F21O2/c1-5(2)6(38)39-4-3-7(17,18)8(19,20)9(21,22)10(23,24)11(25,26)12(27,28)13(29,30)14(31,32)15(33,34)16(35,36)37/h1,3-4H2,2H3",
        "InChIKey": null,
        "Canonical SMILES": "O=C(OCCC(F)(F)C(F)(F)C(F)(F)C(F)(F)C(F)(F)C(F)(F)C(F)(F)C(F)(F)C(F)(F)C(F)(F)F)C(=C)C",
        "Molecular Formula": "C<sub>16</sub>H<sub>9</sub>F<sub>21</sub>O<sub>2</sub>",
        "Molecular Mass": "632.21",
        "Boiling Point": "95-100 °C"
    }
}