{
    "cas_no": "1260-17-9",
    "key_name": "Carminic acid",
    "cn_name": "胭脂红酸;",
    "alternate_name": "2-Anthracenecarboxylic acid, 7-β-<span class=\"text-smallcaps\">D</span>-glucopyranosyl-9,10-dihydro-3,5,6,8-tetrahydroxy-1-methyl-9,10-dioxo-;Carminic acid;2-Anthroic acid, 7-<span class=\"text-smallcaps\">D</span>-glucopyranosyl-9,10-dihydro-3,5,6,8-tetrahydroxy-1-methyl-9,10-dioxo-;7-β-<span class=\"text-smallcaps\">D</span>-Glucopyranosyl-9,10-dihydro-3,5,6,8-tetrahydroxy-1-methyl-9,10-dioxo-2-anthracenecarboxylic acid;C.I. Natural Red 4;E 120;C.I. 75470;Natural Red 4;E 120 (dye);Sun Red 1;Sun Red No. 1;San Red 1;San-Ei Gen San Red 1;NSC 326224;Carmine 5297;Cochineal Red PWD;Natural Red 2180;Creasperse Carmine CP 057;Carmine Cochineal;Carmine Red E 120",
    "duplicated_cas_no": "476-39-1;632-55-3;1389-34-0;16667-06-4;37349-49-8;131802-72-7",
    "SMILES": "O=C1C=2C(C(=O)C=3C1=C(C)C(C(O)=O)=C(O)C3)=C(O)C(O)=C(C2O)[C@@H]4O[C@H](CO)[C@@H](O)[C@H](O)[C@H]4O",
    "meta_data": {
        "InChI": "InChI=1S/C22H20O13/c1-4-8-5(2-6(24)9(4)22(33)34)13(25)10-11(15(8)27)16(28)12(18(30)17(10)29)21-20(32)19(31)14(26)7(3-23)35-21/h2,7,14,19-21,23-24,26,28-32H,3H2,1H3,(H,33,34)/t7-,14-,19+,20-,21+/m1/s1",
        "InChIKey": null,
        "Canonical SMILES": "O=C(O)C1=C(O)C=C2C(=O)C3=C(O)C(O)=C(C(O)=C3C(=O)C2=C1C)C4OC(CO)C(O)C(O)C4O",
        "Molecular Formula": "C<sub>22</sub>H<sub>20</sub>O<sub>13</sub>",
        "Molecular Mass": "492.39",
        "Melting Point": "136 °C (decomp)"
    }
}