{
    "cas_no": "3121-70-8",
    "key_name": "α-Naphthyl butyrate",
    "cn_name": null,
    "alternate_name": "Butanoic acid, 1-naphthalenyl ester;Butyric acid, 1-naphthyl ester;1-Naphthol, butyrate;α-Naphthyl <em>n</em>-butyrate;α-Naphthyl butyrate;1-Naphthyl butyrate;Butanoic acid 1-naphthyl ester;NSC 97269",
    "duplicated_cas_no": "",
    "SMILES": "O(C(CCC)=O)C=1C2=C(C=CC1)C=CC=C2",
    "meta_data": {
        "InChI": "InChI=1S/C14H14O2/c1-2-6-14(15)16-13-10-5-8-11-7-3-4-9-12(11)13/h3-5,7-10H,2,6H2,1H3",
        "InChIKey": null,
        "Canonical SMILES": "O=C(OC1=CC=CC=2C=CC=CC12)CCC",
        "Molecular Formula": "C<sub>14</sub>H<sub>14</sub>O<sub>2</sub>",
        "Molecular Mass": "214.26",
        "Boiling Point": "182 °C @ Press: 15-18 Torr",
        "Melting Point": "95.5-96.5 °C"
    }
}