{
    "cas_no": "34158-72-0",
    "key_name": "Benzaldehyde, 2-bromo-, oxime",
    "cn_name": null,
    "alternate_name": "Benzaldehyde, 2-bromo-, oxime;Benzaldehyde, <em>o</em>-bromo-, oxime;2-Bromobenzaldoxime;2-Bromobenzaldehyde oxime",
    "duplicated_cas_no": "",
    "SMILES": "C(=NO)C1=C(Br)C=CC=C1",
    "meta_data": {
        "InChI": "InChI=1S/C7H6BrNO/c8-7-4-2-1-3-6(7)5-9-10/h1-5,10H",
        "InChIKey": null,
        "Canonical SMILES": "BrC=1C=CC=CC1C=NO",
        "Molecular Formula": "C<sub>7</sub>H<sub>6</sub>BrNO",
        "Molecular Mass": "200.03",
        "Melting Point": "102.1-103.9 °C"
    }
}