{
    "cas_no": "25658-80-4",
    "key_name": "5-Chloroindoline",
    "cn_name": "5-氯吲哚啉;5-氯-2,3-二氢-1H-吲哚;",
    "alternate_name": "1<em>H</em>-Indole, 5-chloro-2,3-dihydro-;Indoline, 5-chloro-;5-Chloro-2,3-dihydro-1<em>H</em>-indole;5-Chloroindoline;5-Chloro-2,3-dihydroindole",
    "duplicated_cas_no": "",
    "SMILES": "ClC=1C=C2C(=CC1)NCC2",
    "meta_data": {
        "InChI": "InChI=1S/C8H8ClN/c9-7-1-2-8-6(5-7)3-4-10-8/h1-2,5,10H,3-4H2",
        "InChIKey": null,
        "Canonical SMILES": "ClC1=CC=C2NCCC2=C1",
        "Molecular Formula": "C<sub>8</sub>H<sub>8</sub>ClN",
        "Molecular Mass": "153.61",
        "Boiling Point": "132-135 °C @ Press: 20 Torr"
    }
}