{
    "cas_no": "153-00-4",
    "key_name": "Methenolone",
    "cn_name": "美替诺龙;17beta-羟基-1-甲基-5alpha-雄甾-1-烯-3-酮;",
    "alternate_name": "Androst-1-en-3-one, 17-hydroxy-1-methyl-, (5α,17β)-;5α-Androst-1-en-3-one, 17β-hydroxy-1-methyl-;(5α,17β)-17-Hydroxy-1-methylandrost-1-en-3-one;Metenolone;17β-Hydroxy-1-methyl-5α-androst-1-en-3-one;Methenolon;Methenolone;1-Methyl-Δ<sup>1</sup>-androsten-17β-ol-3-one;1-Methyl-5α-androst-1-en-17β-ol-3-one;MeSH ID: D008710",
    "duplicated_cas_no": "969-76-6",
    "SMILES": "C[C@@]12[C@@]3([C@]([C@]4([C@](C)(CC3)[C@@H](O)CC4)[H])(CC[C@]1(CC(=O)C=C2C)[H])[H])[H]",
    "meta_data": {
        "InChI": "InChI=1S/C20H30O2/c1-12-10-14(21)11-13-4-5-15-16-6-7-18(22)19(16,2)9-8-17(15)20(12,13)3/h10,13,15-18,22H,4-9,11H2,1-3H3/t13-,15-,16-,17-,18-,19-,20-/m0/s1",
        "InChIKey": null,
        "Canonical SMILES": "O=C1C=C(C)C2(C)C(C1)CCC3C2CCC4(C)C(O)CCC34",
        "Molecular Formula": "C<sub>20</sub>H<sub>30</sub>O<sub>2</sub>",
        "Molecular Mass": "302.45",
        "Melting Point": "149.5-152 °C"
    }
}