{
    "cas_no": "2284-30-2",
    "key_name": "4-Benzylresorcinol",
    "cn_name": "4-苯甲基间苯二酚;",
    "alternate_name": "1,3-Benzenediol, 4-(phenylmethyl)-;Resorcinol, 4-benzyl-;Cresorcinol, α-phenyl-;4-(Phenylmethyl)-1,3-benzenediol;<em>p</em>-Benzylresorcinol;4-Benzylresorcinol;4-Benzyl-1,3-benzenediol",
    "duplicated_cas_no": "",
    "SMILES": "C(C1=C(O)C=C(O)C=C1)C2=CC=CC=C2",
    "meta_data": {
        "InChI": "InChI=1S/C13H12O2/c14-12-7-6-11(13(15)9-12)8-10-4-2-1-3-5-10/h1-7,9,14-15H,8H2",
        "InChIKey": null,
        "Canonical SMILES": "OC1=CC=C(C(O)=C1)CC=2C=CC=CC2",
        "Molecular Formula": "C<sub>13</sub>H<sub>12</sub>O<sub>2</sub>",
        "Molecular Mass": "200.23",
        "Boiling Point": "210-215 °C @ Press: 12 Torr",
        "Melting Point": "76-77 °C"
    }
}