{
    "cas_no": "2917-26-2",
    "key_name": "Hexadecanethiol",
    "cn_name": "1-十六烷硫醇;十六硫醇;",
    "alternate_name": "1-Hexadecanethiol;Hexadecanethiol;Cetyl mercaptan;<em>n</em>-Hexadecyl mercaptan;Hexadecyl mercaptan;<em>n</em>-Hexadecanethiol;<em>n</em>-Hexadecylthiol;Hexadecylthiol;1-Mercaptohexadecane;NSC 229611;NSC 57866;<em>n</em>-Hexadecyl thiolate;1-Hexadecylthiol;Hexadecane-1-thiol",
    "duplicated_cas_no": "",
    "SMILES": "C(CCCCCCCC)CCCCCCCS",
    "meta_data": {
        "InChI": "InChI=1S/C16H34S/c1-2-3-4-5-6-7-8-9-10-11-12-13-14-15-16-17/h17H,2-16H2,1H3",
        "InChIKey": null,
        "Canonical SMILES": "SCCCCCCCCCCCCCCCC",
        "Molecular Formula": "C<sub>16</sub>H<sub>34</sub>S",
        "Molecular Mass": "258.51",
        "Boiling Point": "334 °C",
        "Melting Point": "18 °C",
        "Density": "0.84 g/cm³"
    }
}