{
    "cas_no": "930-02-9",
    "key_name": "Octadecyl vinyl ether",
    "cn_name": "十八烷基乙烯基醚;",
    "alternate_name": "Octadecane, 1-(ethenyloxy)-;Ether, octadecyl vinyl;1-(Ethenyloxy)octadecane;Vinyl stearyl ether;Octadecyl vinyl ether;Stearyl vinyl ether;Vinyl octadecyl ether;Rapi-Cure ODVE;NSC 111998;1-(Vinyloxo)octadecane;1-Ethenoxyoctadecane",
    "duplicated_cas_no": "",
    "SMILES": "C(CCCCCCCCCC)CCCCCCCOC=C",
    "meta_data": {
        "InChI": "InChI=1S/C20H40O/c1-3-5-6-7-8-9-10-11-12-13-14-15-16-17-18-19-20-21-4-2/h4H,2-3,5-20H2,1H3",
        "InChIKey": null,
        "Canonical SMILES": "O(C=C)CCCCCCCCCCCCCCCCCC",
        "Molecular Formula": "C<sub>20</sub>H<sub>40</sub>O",
        "Molecular Mass": "296.53",
        "Boiling Point": "190 °C @ Press: 10 Torr",
        "Melting Point": "30 °C"
    }
}