{
    "cas_no": "620-73-5",
    "key_name": "Acetic acid, 2-chloro-, phenyl ester",
    "cn_name": "氯乙酸苯酯;",
    "alternate_name": "Acetic acid, 2-chloro-, phenyl ester;Acetic acid, chloro-, phenyl ester;Phenyl chloroacetate;NSC 166432;Phenyl 2-chloroacetate",
    "duplicated_cas_no": "",
    "SMILES": "O(C(CCl)=O)C1=CC=CC=C1",
    "meta_data": {
        "InChI": "InChI=1S/C8H7ClO2/c9-6-8(10)11-7-4-2-1-3-5-7/h1-5H,6H2",
        "InChIKey": null,
        "Canonical SMILES": "O=C(OC=1C=CC=CC1)CCl",
        "Molecular Formula": "C<sub>8</sub>H<sub>7</sub>ClO<sub>2</sub>",
        "Molecular Mass": "170.59",
        "Boiling Point": "232.5 °C",
        "Melting Point": "44.5 °C"
    }
}