{
    "cas_no": "57699-28-2",
    "key_name": "Methyl 4-bromo-α-oxobenzeneacetate",
    "cn_name": null,
    "alternate_name": "Benzeneacetic acid, 4-bromo-α-oxo-, methyl ester;Methyl 4-bromo-α-oxobenzeneacetate;Methyl <em>p</em>-bromobenzoylformate;Methyl 2-(4-bromophenyl)-2-oxoacetate;Methyl (4-bromophenyl)glyoxylate",
    "duplicated_cas_no": "",
    "SMILES": "C(C(OC)=O)(=O)C1=CC=C(Br)C=C1",
    "meta_data": {
        "InChI": "InChI=1S/C9H7BrO3/c1-13-9(12)8(11)6-2-4-7(10)5-3-6/h2-5H,1H3",
        "InChIKey": null,
        "Canonical SMILES": "O=C(OC)C(=O)C1=CC=C(Br)C=C1",
        "Molecular Formula": "C<sub>9</sub>H<sub>7</sub>BrO<sub>3</sub>",
        "Molecular Mass": "243.05",
        "Melting Point": "49-51 °C"
    }
}