{
    "cas_no": "31519-22-9",
    "key_name": "1,4-Dihydroxy-2-naphthoic acid",
    "cn_name": "1,4-二羟基-2-萘甲酸;",
    "alternate_name": "2-Naphthalenecarboxylic acid, 1,4-dihydroxy-;2-Naphthoic acid, 1,4-dihydroxy-;1,4-Dihydroxy-2-naphthalenecarboxylic acid;1,4-Dihydroxy-2-naphthoate;1,4-Dihydroxy-2-naphthoic acid;1,4-Dihydroxy-2-carboxy naphthoic acid",
    "duplicated_cas_no": "",
    "SMILES": "OC=1C2=C(C(O)=CC1C(O)=O)C=CC=C2",
    "meta_data": {
        "InChI": "InChI=1S/C11H8O4/c12-9-5-8(11(14)15)10(13)7-4-2-1-3-6(7)9/h1-5,12-13H,(H,14,15)",
        "InChIKey": null,
        "Canonical SMILES": "O=C(O)C=1C=C(O)C=2C=CC=CC2C1O",
        "Molecular Formula": "C<sub>11</sub>H<sub>8</sub>O<sub>4</sub>",
        "Molecular Mass": "204.18",
        "Melting Point": "200 °C (decomp)"
    }
}