{
    "cas_no": "5363-54-2",
    "key_name": "4-Formylbenzenesulfonic acid",
    "cn_name": null,
    "alternate_name": "Benzenesulfonic acid, 4-formyl-;Benzenesulfonic acid, <em>p</em>-formyl-;4-Formylbenzenesulfonic acid;Benzaldehyde-4-sulfonic acid;<em>p</em>-Formylbenzenesulfonic acid",
    "duplicated_cas_no": "",
    "SMILES": "S(=O)(=O)(O)C1=CC=C(C=O)C=C1",
    "meta_data": {
        "InChI": "InChI=1S/C7H6O4S/c8-5-6-1-3-7(4-2-6)12(9,10)11/h1-5H,(H,9,10,11)",
        "InChIKey": null,
        "Canonical SMILES": "O=CC1=CC=C(C=C1)S(=O)(=O)O",
        "Molecular Formula": "C<sub>7</sub>H<sub>6</sub>O<sub>4</sub>S",
        "Molecular Mass": "186.19",
        "Melting Point": "121.5-123.0 °C"
    }
}