{
    "cas_no": "75-34-3",
    "key_name": "1,1-Dichloroethane",
    "cn_name": null,
    "alternate_name": "Ethane, 1,1-dichloro-;1,1-Dichloroethane;Ethylidene chloride;Ethylidene dichloride;Dichloromethylmethane;1,1-Ethylene dichloride;HCC 150a;F 150a",
    "duplicated_cas_no": "",
    "SMILES": "C(C)(Cl)Cl",
    "meta_data": {
        "InChI": "InChI=1S/C2H4Cl2/c1-2(3)4/h2H,1H3",
        "InChIKey": null,
        "Canonical SMILES": "ClC(Cl)C",
        "Molecular Formula": "C<sub>2</sub>H<sub>4</sub>Cl<sub>2</sub>",
        "Molecular Mass": "98.96",
        "Boiling Point": "57.4 °C",
        "Melting Point": "-96.9 °C",
        "Density": "1.1680 g/cm³ @ Temp: 25 °C"
    }
}