{
    "cas_no": "700-37-8",
    "key_name": "4-Chloro-2-fluoro-1-nitrobenzene",
    "cn_name": "4-氯-2-氯硝基苯;",
    "alternate_name": "Benzene, 4-chloro-2-fluoro-1-nitro-;4-Chloro-2-fluoro-1-nitrobenzene;4-Chloro-2-fluoronitrobenzene;1-Chloro-3-fluoro-4-nitrobenzene;5-Chloro-2-nitro-1-fluorobenzene",
    "duplicated_cas_no": "",
    "SMILES": "N(=O)(=O)C1=C(F)C=C(Cl)C=C1",
    "meta_data": {
        "InChI": "InChI=1S/C6H3ClFNO2/c7-4-1-2-6(9(10)11)5(8)3-4/h1-3H",
        "InChIKey": null,
        "Canonical SMILES": "O=N(=O)C1=CC=C(Cl)C=C1F",
        "Molecular Formula": "C<sub>6</sub>H<sub>3</sub>ClFNO<sub>2</sub>",
        "Molecular Mass": "175.54",
        "Melting Point": "48-49 °C"
    }
}