{
    "cas_no": "4242-18-6",
    "key_name": "5,6,7,8-Tetrahydro-1-naphthalenecarboxylic acid",
    "cn_name": "5,6,7,8-四氢-1-萘甲酸;",
    "alternate_name": "1-Naphthalenecarboxylic acid, 5,6,7,8-tetrahydro-;1-Naphthoic acid, 5,6,7,8-tetrahydro-;5,6,7,8-Tetrahydro-1-naphthalenecarboxylic acid;5,6,7,8-Tetrahydro-1-naphthoic acid;NSC 44874;5,6,7,8-Tetrahydronaphthalen-1-carboxylic acid",
    "duplicated_cas_no": "",
    "SMILES": "C(O)(=O)C1=C2C(=CC=C1)CCCC2",
    "meta_data": {
        "InChI": "InChI=1S/C11H12O2/c12-11(13)10-7-3-5-8-4-1-2-6-9(8)10/h3,5,7H,1-2,4,6H2,(H,12,13)",
        "InChIKey": null,
        "Canonical SMILES": "O=C(O)C1=CC=CC2=C1CCCC2",
        "Molecular Formula": "C<sub>11</sub>H<sub>12</sub>O<sub>2</sub>",
        "Molecular Mass": "176.21",
        "Melting Point": "148-150 °C"
    }
}