{
    "cas_no": "61338-13-4",
    "key_name": "1-(3-Carboxy-2-pyridyl)-4-methyl-2-phenylpiperazine",
    "cn_name": "米氮平酸;1-(3-羧基吡啶-2-基)-2-苯基-4-甲基哌嗪;2-(4-甲基-2-苯基-1-哌嗪)-3-吡啶甲酸;",
    "alternate_name": "3-Pyridinecarboxylic acid, 2-(4-methyl-2-phenyl-1-piperazinyl)-;2-(4-Methyl-2-phenyl-1-piperazinyl)-3-pyridinecarboxylic acid;1-(3-Carboxy-2-pyridyl)-4-methyl-2-phenylpiperazine;1-(3-Carboxypyrid-2-yl)-2-phenyl-4-methyl-piperazine;2-(4-Methyl-2-phenylpiperazin-1-yl)nicotinic acid",
    "duplicated_cas_no": "",
    "SMILES": "C(O)(=O)C1=C(N2C(CN(C)CC2)C3=CC=CC=C3)N=CC=C1",
    "meta_data": {
        "InChI": "InChI=1S/C17H19N3O2/c1-19-10-11-20(15(12-19)13-6-3-2-4-7-13)16-14(17(21)22)8-5-9-18-16/h2-9,15H,10-12H2,1H3,(H,21,22)",
        "InChIKey": null,
        "Canonical SMILES": "O=C(O)C1=CC=CN=C1N2CCN(C)CC2C=3C=CC=CC3",
        "Molecular Formula": "C<sub>17</sub>H<sub>19</sub>N<sub>3</sub>O<sub>2</sub>",
        "Molecular Mass": "297.35",
        "Melting Point": "160-161 °C"
    }
}