{
    "cas_no": "617-78-7",
    "key_name": "3-Ethylpentane",
    "cn_name": "3-乙基戊烷;3-乙基戊烷;",
    "alternate_name": "Pentane, 3-ethyl-;3-Ethylpentane;NSC 74151",
    "duplicated_cas_no": "",
    "SMILES": "C(CC)(CC)CC",
    "meta_data": {
        "InChI": "InChI=1S/C7H16/c1-4-7(5-2)6-3/h7H,4-6H2,1-3H3",
        "InChIKey": null,
        "Canonical SMILES": "CCC(CC)CC",
        "Molecular Formula": "C<sub>7</sub>H<sub>16</sub>",
        "Molecular Mass": "100.20",
        "Boiling Point": "93.5 °C",
        "Melting Point": "-118.6 °C",
        "Density": "0.6984 g/cm³ @ Temp: 20 °C"
    }
}