{
    "cas_no": "54013-55-7",
    "key_name": "4,4-Dimethyloxazolidine-2-thione",
    "cn_name": "4,4-二甲基恶唑-2-硫;",
    "alternate_name": "2-Oxazolidinethione, 4,4-dimethyl-;2-Oxazoline-2-thiol, 4,4-dimethyl-;4,4-Dimethyl-2-oxazolidinethione;NSC 17296;NSC 68392;4,4-Dimethyloxazolidine-2-thione",
    "duplicated_cas_no": "",
    "SMILES": "CC1(C)NC(=S)OC1",
    "meta_data": {
        "InChI": "InChI=1S/C5H9NOS/c1-5(2)3-7-4(8)6-5/h3H2,1-2H3,(H,6,8)",
        "InChIKey": null,
        "Canonical SMILES": "S=C1OCC(N1)(C)C",
        "Molecular Formula": "C<sub>5</sub>H<sub>9</sub>NOS",
        "Molecular Mass": "131.20",
        "Melting Point": "123-124.5 °C"
    }
}