{
    "cas_no": "141-03-7",
    "key_name": "Dibutyl succinate",
    "cn_name": "丁二酸二丁酯;琥珀酸二正丁酯;",
    "alternate_name": "Butanedioic acid, 1,4-dibutyl ester;Succinic acid, dibutyl ester;Butanedioic acid, dibutyl ester;Succinic acid di-<em>n</em>-butyl ester;Tabatrex;Di-<em>n</em>-butyl succinate;Tabutrex;Dibutyl succinate;NSC 1502",
    "duplicated_cas_no": "",
    "SMILES": "C(CCC(OCCCC)=O)(OCCCC)=O",
    "meta_data": {
        "InChI": "InChI=1S/C12H22O4/c1-3-5-9-15-11(13)7-8-12(14)16-10-6-4-2/h3-10H2,1-2H3",
        "InChIKey": null,
        "Canonical SMILES": "O=C(OCCCC)CCC(=O)OCCCC",
        "Molecular Formula": "C<sub>12</sub>H<sub>22</sub>O<sub>4</sub>",
        "Molecular Mass": "230.30",
        "Boiling Point": "274.5 °C",
        "Melting Point": "-29.0 °C",
        "Density": "0.9768 g/cm³ @ Temp: 20 °C"
    }
}