{
    "cas_no": "14176-49-9",
    "key_name": "Tiletamine",
    "cn_name": null,
    "alternate_name": "Cyclohexanone, 2-(ethylamino)-2-(2-thienyl)-;2-(Ethylamino)-2-(2-thienyl)cyclohexanone;Tiletamine;2-(Ethylamino)-2-(thiophen-2-yl)cyclohexanone;2-(Ethylamino)-2-(thiophen-2-yl)cyclohexan-1-one",
    "duplicated_cas_no": "",
    "SMILES": "N(CC)C1(C(=O)CCCC1)C2=CC=CS2",
    "meta_data": {
        "InChI": "InChI=1S/C12H17NOS/c1-2-13-12(11-7-5-9-15-11)8-4-3-6-10(12)14/h5,7,9,13H,2-4,6,8H2,1H3",
        "InChIKey": null,
        "Canonical SMILES": "O=C1CCCCC1(NCC)C=2SC=CC2",
        "Molecular Formula": "C<sub>12</sub>H<sub>17</sub>NOS",
        "Molecular Mass": "223.33",
        "Melting Point": "41-43 °C"
    }
}