{
    "cas_no": "583-02-8",
    "key_name": "Benzoic acid, 4-(trifluoromethyl)-, ethyl ester",
    "cn_name": null,
    "alternate_name": "Benzoic acid, 4-(trifluoromethyl)-, ethyl ester;<em>p</em>-Toluic acid, α,α,α-trifluoro-, ethyl ester;Ethyl 4-trifluoromethylbenzoate;Ethyl <em>p</em>-trifluoromethylbenzoate",
    "duplicated_cas_no": "",
    "SMILES": "C(OCC)(=O)C1=CC=C(C(F)(F)F)C=C1",
    "meta_data": {
        "InChI": "InChI=1S/C10H9F3O2/c1-2-15-9(14)7-3-5-8(6-4-7)10(11,12)13/h3-6H,2H2,1H3",
        "InChIKey": null,
        "Canonical SMILES": "O=C(OCC)C1=CC=C(C=C1)C(F)(F)F",
        "Molecular Formula": "C<sub>10</sub>H<sub>9</sub>F<sub>3</sub>O<sub>2</sub>",
        "Molecular Mass": "218.17",
        "Boiling Point": "80-80.5 °C @ Press: 5.5 Torr"
    }
}