{
    "cas_no": "2730-62-3",
    "key_name": "1233xf",
    "cn_name": "三氟氯丙烯;",
    "alternate_name": "1-Propene, 2-chloro-3,3,3-trifluoro-;Propene, 2-chloro-3,3,3-trifluoro-;2-Chloro-3,3,3-trifluoro-1-propene;2-Chloro-3,3,3-trifluoropropene;HFCO 1233xf;HCFO 1233xf;HCFC 1233xf;1233xf;R 1233xf;HCO 1233xf;2-Chloro-1,1,1-trifluoro-2-propene;3,3,3-Trifluoro-2-chloropropene;HFO 1233xf;2-Chloro-3,3,3-trifluoropropylene",
    "duplicated_cas_no": "",
    "SMILES": "C(C(=C)Cl)(F)(F)F",
    "meta_data": {
        "InChI": "InChI=1S/C3H2ClF3/c1-2(4)3(5,6)7/h1H2",
        "InChIKey": null,
        "Canonical SMILES": "FC(F)(F)C(Cl)=C",
        "Molecular Formula": "C<sub>3</sub>H<sub>2</sub>ClF<sub>3</sub>",
        "Molecular Mass": "130.50",
        "Boiling Point": "14-15 °C"
    }
}