{
    "cas_no": "928-68-7",
    "key_name": "6-Methyl-2-heptanone",
    "cn_name": "6-甲基-2-庚酮;异戊基丙酮;",
    "alternate_name": "2-Heptanone, 6-methyl-;6-Methyl-2-heptanone;2-Methyl-6-heptanone;Methyl isohexyl ketone;NSC 39665;2-Isooctanone;Isooctan-2-one;6-Methylhept-2-one",
    "duplicated_cas_no": "",
    "SMILES": "C(CC(C)C)CC(C)=O",
    "meta_data": {
        "InChI": "InChI=1S/C8H16O/c1-7(2)5-4-6-8(3)9/h7H,4-6H2,1-3H3",
        "InChIKey": null,
        "Canonical SMILES": "O=C(C)CCCC(C)C",
        "Molecular Formula": "C<sub>8</sub>H<sub>16</sub>O",
        "Molecular Mass": "128.21",
        "Boiling Point": "167 °C",
        "Density": "0.8151 g/cm³ @ Temp: 20 °C"
    }
}