{
    "cas_no": "5581-66-8",
    "key_name": "Methyltripropoxysilane",
    "cn_name": "三丙氧基硅烷甲酯;",
    "alternate_name": "Silane, methyltripropoxy-;Methyltripropoxysilane;LS 3630",
    "duplicated_cas_no": "",
    "SMILES": "[Si](OCCC)(OCCC)(OCCC)C",
    "meta_data": {
        "InChI": "InChI=1S/C10H24O3Si/c1-5-8-11-14(4,12-9-6-2)13-10-7-3/h5-10H2,1-4H3",
        "InChIKey": null,
        "Canonical SMILES": "O(CCC)[Si](OCCC)(OCCC)C",
        "Molecular Formula": "C<sub>10</sub>H<sub>24</sub>O<sub>3</sub>Si",
        "Molecular Mass": "220.38",
        "Boiling Point": "82-83 °C @ Press: 15 Torr",
        "Density": "0.8831 g/cm³ @ Temp: 20 °C"
    }
}