{
    "cas_no": "98-11-3",
    "key_name": "Benzenesulfonic acid",
    "cn_name": "苯磺酸;",
    "alternate_name": "Benzenesulfonic acid;Phenylsulfonic acid;Besylic acid;Benzenemonosulfonic acid;17-120A;Benzenesulfonic acid (surfactant);BSA;Benzensulfonic acid;BW 70;Alkylbenzenesulfonate;1: PN: WO2020008043 SEQID: 105 claimed sequence;Nansa 63B",
    "duplicated_cas_no": "2089288-60-6;2756222-54-3",
    "SMILES": "S(=O)(=O)(O)C1=CC=CC=C1",
    "meta_data": {
        "InChI": "InChI=1S/C6H6O3S/c7-10(8,9)6-4-2-1-3-5-6/h1-5H,(H,7,8,9)",
        "InChIKey": null,
        "Canonical SMILES": "O=S(=O)(O)C=1C=CC=CC1",
        "Molecular Formula": "C<sub>6</sub>H<sub>6</sub>O<sub>3</sub>S",
        "Molecular Mass": "158.18",
        "Melting Point": "65 °C"
    }
}