{
    "cas_no": "13686-66-3",
    "key_name": "<em>N</em>,<em>N</em>-Diethyl-1,1-dimethylsilanamine",
    "cn_name": "N,N-二乙基二甲基硅;",
    "alternate_name": "Silanamine, <em>N</em>,<em>N</em>-diethyl-1,1-dimethyl-;Silylamine, <em>N</em>,<em>N</em>-diethyl-1,1-dimethyl-;<em>N</em>,<em>N</em>-Diethyl-1,1-dimethylsilanamine;Dimethylsilyldiethylamine",
    "duplicated_cas_no": "",
    "SMILES": "N([SiH](C)C)(CC)CC",
    "meta_data": {
        "InChI": "InChI=1S/C6H17NSi/c1-5-7(6-2)8(3)4/h8H,5-6H2,1-4H3",
        "InChIKey": null,
        "Canonical SMILES": "N(CC)(CC)[SiH](C)C",
        "Molecular Formula": "C<sub>6</sub>H<sub>17</sub>NSi",
        "Molecular Mass": "131.29",
        "Boiling Point": "112-112.5 °C",
        "Density": "0.7505 g/cm³ @ Temp: 20 °C"
    }
}