{
    "cas_no": "38274-16-7",
    "key_name": "1-Bromo-2-[2-(trimethylsilyl)ethynyl]benzene",
    "cn_name": "(2-溴苯乙炔基)三甲基硅烷;",
    "alternate_name": "Benzene, 1-bromo-2-[2-(trimethylsilyl)ethynyl]-;Silane, [(2-bromophenyl)ethynyl]trimethyl-;1-Bromo-2-[2-(trimethylsilyl)ethynyl]benzene;[(<em>o</em>-Bromophenyl)ethynyl]trimethylsilane;1-Bromo-2-[(trimethylsilyl)ethynyl]benzene;((2-Bromophenyl)ethynyl)trimethylsilane;(2-(2-Bromophenyl)ethynyl)trimethylsilane;2-Bromo-1-[2-(trimethylsilyl)ethynyl]benzene;2-(<em>o</em>-Bromophenyl)-1-trimethylsilylacetylene",
    "duplicated_cas_no": "2761260-28-8",
    "SMILES": "C(#C[Si](C)(C)C)C1=C(Br)C=CC=C1",
    "meta_data": {
        "InChI": "InChI=1S/C11H13BrSi/c1-13(2,3)9-8-10-6-4-5-7-11(10)12/h4-7H,1-3H3",
        "InChIKey": null,
        "Canonical SMILES": "BrC=1C=CC=CC1C#C[Si](C)(C)C",
        "Molecular Formula": "C<sub>11</sub>H<sub>13</sub>BrSi",
        "Molecular Mass": "253.21",
        "Melting Point": "100-102 °C"
    }
}