{
    "cas_no": "38380-08-4",
    "key_name": "PCB 156",
    "cn_name": null,
    "alternate_name": "1,1′-Biphenyl, 2,3,3′,4,4′,5-hexachloro-;2,3,3′,4,4′,5-Hexachloro-1,1′-biphenyl;3,4,2′,3′,4′,5′-Hexachlorobiphenyl;2,3,3′,4,4′,5-Hexachlorobiphenyl;2,3,4,5,3′,4′-Hexachlorobiphenyl;2,3,4,4′,5,5′-Hexachlorobiphenyl;PCB 156;CB 156;2,3,3′,4,4′,5-HxCB",
    "duplicated_cas_no": "",
    "SMILES": "ClC1=C(C=C(Cl)C(Cl)=C1Cl)C2=CC(Cl)=C(Cl)C=C2",
    "meta_data": {
        "InChI": "InChI=1S/C12H4Cl6/c13-7-2-1-5(3-8(7)14)6-4-9(15)11(17)12(18)10(6)16/h1-4H",
        "InChIKey": null,
        "Canonical SMILES": "ClC=1C=CC(=CC1Cl)C2=CC(Cl)=C(Cl)C(Cl)=C2Cl",
        "Molecular Formula": "C<sub>12</sub>H<sub>4</sub>Cl<sub>6</sub>",
        "Molecular Mass": "360.88",
        "Boiling Point": "199-212 °C"
    }
}