{
    "cas_no": "12078-25-0",
    "key_name": "Dicarbonyl(η<sup>5</sup>-cyclopentadienyl)cobalt",
    "cn_name": null,
    "alternate_name": "Cobalt, dicarbonyl(η<sup>5</sup>-2,4-cyclopentadien-1-yl)-;Cobalt, dicarbonyl-π-cyclopentadienyl-;Cyclopentadienylcobalt dicarbonyl;Cobalt, dicarbonylcyclopentadienyl-;Dicarbonyl(η<sup>5</sup>-2,4-cyclopentadien-1-yl)cobalt;Dicarbonyl-π-cyclopentadienyl cobalt;η<sup>5</sup>-Cyclopentadienylcobalt dicarbonyl;Dicarbonylcyclopentadienylcobalt;π-Cyclopentadienyldicarbonylcobalt;Cyclopentadienyldicarbonylcobalt;Dicarbonyl(η<sup>5</sup>-cyclopentadienyl)cobalt;π-Cyclopentadienylcobalt dicarbonyl;Cobalt dicarbonyl cyclopentadiene;Cyclopentadienyl cobalt(I) dicarbonyl",
    "duplicated_cas_no": "12078-23-8",
    "SMILES": "C(#O)[Co+]1234(C#O)[CH-]5[CH]1=[CH]2[CH]3=[CH]45",
    "meta_data": {
        "InChI": "InChI=1S/C5H5.2CO.Co/c1-2-4-5-3-1;2*1-2;/h1-5H;;;/q-1;;;+1",
        "InChIKey": null,
        "Canonical SMILES": "O#C[Co+]1234(C#O)[CH]=5[CH]4=[CH]3[CH-]2[CH]51",
        "Molecular Formula": "C<sub>7</sub>H<sub>5</sub>CoO<sub>2</sub>",
        "Molecular Mass": "",
        "Boiling Point": "75 °C @ Press: 22 Torr",
        "Melting Point": "-22 °C"
    }
}