{
    "cas_no": "99-75-2",
    "key_name": "Methyl 4-methylbenzoate",
    "cn_name": "对甲基苯甲酸甲酯;",
    "alternate_name": "Benzoic acid, 4-methyl-, methyl ester;<em>p</em>-Toluic acid, methyl ester;Methyl <em>p</em>-toluate;<em>p</em>-Carbomethoxytoluene;Methyl 4-toluate;Methyl 4-methylbenzoate;Methyl <em>p</em>-methylbenzoate;4-(Methoxycarbonyl)toluene;4-Methylbenzoic acid methyl ester;Methyl <em>p</em>-toluenecarboxylate;<em>p</em>-(Methoxycarbonyl)toluene;NSC 24761",
    "duplicated_cas_no": "",
    "SMILES": "C(OC)(=O)C1=CC=C(C)C=C1",
    "meta_data": {
        "InChI": "InChI=1S/C9H10O2/c1-7-3-5-8(6-4-7)9(10)11-2/h3-6H,1-2H3",
        "InChIKey": null,
        "Canonical SMILES": "O=C(OC)C1=CC=C(C=C1)C",
        "Molecular Formula": "C<sub>9</sub>H<sub>10</sub>O<sub>2</sub>",
        "Molecular Mass": "150.17",
        "Boiling Point": "222.5 °C @ Press: 760 Torr",
        "Melting Point": "33.2 °C",
        "Density": "1.058 g/cm³ @ Temp: 25 °C"
    }
}