{
    "cas_no": "132-69-4",
    "key_name": "Benzidamine hydrochloride",
    "cn_name": "盐酸苄达明;1-苄基-3-(3-[二甲基氨基]丙氧基)-1H-吲唑盐酸盐;",
    "alternate_name": "1-Propanamine, <em>N</em>,<em>N</em>-dimethyl-3-[[1-(phenylmethyl)-1<em>H</em>-indazol-3-yl]oxy]-, hydrochloride (1:1);1<em>H</em>-Indazole, 1-benzyl-3-[3-(dimethylamino)propoxy]-, monohydrochloride;1-Propanamine, <em>N</em>,<em>N</em>-dimethyl-3-[[1-(phenylmethyl)-1<em>H</em>-indazol-3-yl]oxy]-, monohydrochloride;AF 864;Benzidamine hydrochloride;Benzydamine hydrochloride;1-Benzyl-3-(3-dimethylaminopropoxy)-1<em>H</em>-indazole chloride;1-Benzyl-3-γ-dimethylaminopropoxy-1<em>H</em>-indazole hydrochloride;1-Benzyl-3-[3-(dimethylamino)propoxy]-1<em>H</em>-indazole hydrochloride;Tantum;Benzindamine hydrochloride;Tamas;Alcidol;Algiflog;Benalgin;Benciflam;Bendaminol;Benflogin;Difflam;Saniflor;Dorinamin;Difflam Cream;Ririlim;Benzyrin;Enzamin;Riripen;Verax;Salyzoron;Difflam Oral Rinse;Andolex;Afloben;Imotryl;3-((1-Benzyl-1<em>H</em>-indazol-3-yl)oxy)-<em>N</em>,<em>N</em>-dimethylpropan-1-amine hydrochloride",
    "duplicated_cas_no": "",
    "SMILES": "C(N1C=2C(C(OCCCN(C)C)=N1)=CC=CC2)C3=CC=CC=C3.Cl",
    "meta_data": {
        "InChI": "InChI=1S/C19H23N3O.ClH/c1-21(2)13-8-14-23-19-17-11-6-7-12-18(17)22(20-19)15-16-9-4-3-5-10-16;/h3-7,9-12H,8,13-15H2,1-2H3;1H",
        "InChIKey": null,
        "Canonical SMILES": "Cl.N1=C(OCCCN(C)C)C=2C=CC=CC2N1CC=3C=CC=CC3",
        "Molecular Formula": "C<sub>19</sub>H<sub>23</sub>N<sub>3</sub>O.ClH",
        "Molecular Mass": "",
        "Melting Point": "160 °C"
    }
}