{
    "cas_no": "2238-90-6",
    "key_name": "Psychosine",
    "cn_name": "神经鞘氨醇半乳糖苷;",
    "alternate_name": "β-<span class=\"text-smallcaps\">D</span>-Galactopyranoside, (2<em>S</em>,3<em>R</em>,4<em>E</em>)-2-amino-3-hydroxy-4-octadecen-1-yl;Psychosine;Galactopyranoside, 2-amino-3-hydroxy-4-octadecenyl, (<em>E</em>)-<span class=\"text-smallcaps\">DL</smallcap>-<em>erythro</em>-β-<smallcap>D</span>-;β-<span class=\"text-smallcaps\">D</span>-Galactopyranoside, 2-amino-3-hydroxy-4-octadecenyl, [<em>R</em>-[<em>R</em>*,<em>S</em>*-(<em>E</em>)]]-;Galactopyranoside, 2-amino-3-hydroxy-4-octadecenyl;β-<span class=\"text-smallcaps\">D</span>-Galactopyranoside, (2<em>S</em>,3<em>R</em>,4<em>E</em>)-2-amino-3-hydroxy-4-octadecenyl;(2<em>S</em>,3<em>R</em>,4<em>E</em>)-2-Amino-3-hydroxy-4-octadecen-1-yl β-<span class=\"text-smallcaps\">D</span>-galactopyranoside;Galactosylsphingosine;<em>erythro</em>-Psychosine;MeSH ID: D011609",
    "duplicated_cas_no": "101655-31-6;106565-70-2;22002-83-1;33763-05-2;52262-17-6",
    "SMILES": "O(C[C@@H]([C@@H](/C=C/CCCCCCCCCCCCC)O)N)[C@@H]1O[C@H](CO)[C@H](O)[C@H](O)[C@H]1O",
    "meta_data": {
        "InChI": "InChI=1S/C24H47NO7/c1-2-3-4-5-6-7-8-9-10-11-12-13-14-15-19(27)18(25)17-31-24-23(30)22(29)21(28)20(16-26)32-24/h14-15,18-24,26-30H,2-13,16-17,25H2,1H3/b15-14+/t18-,19+,20+,21-,22-,23+,24+/m0/s1",
        "InChIKey": null,
        "Canonical SMILES": "OCC1OC(OCC(N)C(O)C=CCCCCCCCCCCCCC)C(O)C(O)C1O",
        "Molecular Formula": "C<sub>24</sub>H<sub>47</sub>NO<sub>7</sub>",
        "Molecular Mass": "461.63",
        "Melting Point": "190 °C (decomp)"
    }
}