{
    "cas_no": "54903-09-2",
    "key_name": "6-Acetyl-2(3<em>H</em>)-benzoxazolone",
    "cn_name": null,
    "alternate_name": "2(3<em>H</em>)-Benzoxazolone, 6-acetyl-;6-Acetyl-2(3<em>H</em>)-benzoxazolone;6-Acetyl-2-benzoxazolinone;6-Acetyl-3<em>H</em>-benzoxazol-2-one;6-Acetylbenzo[<em>d</em>]oxazol-2(3<em>H</em>)-one;1-(2-Hydroxy-1,3-benzoxazol-6-yl)ethan-1-one",
    "duplicated_cas_no": "",
    "SMILES": "C(C)(=O)C=1C=C2C(=CC1)NC(=O)O2",
    "meta_data": {
        "InChI": "InChI=1S/C9H7NO3/c1-5(11)6-2-3-7-8(4-6)13-9(12)10-7/h2-4H,1H3,(H,10,12)",
        "InChIKey": null,
        "Canonical SMILES": "O=C1OC2=CC(=CC=C2N1)C(=O)C",
        "Molecular Formula": "C<sub>9</sub>H<sub>7</sub>NO<sub>3</sub>",
        "Molecular Mass": "177.16",
        "Melting Point": "227-228 °C"
    }
}