{
    "cas_no": "3036-66-6",
    "key_name": "1-Methoxy-1,3-butadiene",
    "cn_name": "1-甲氧基-1,3-丁二烯;1-甲氧基-1，3-丁二烯;",
    "alternate_name": "1,3-Butadiene, 1-methoxy-;Ether, 1,3-butadienyl methyl;1-Methoxy-1,3-butadiene;1-Methoxybutadiene;1,3-Butadienyl methyl ether;NSC 9182;4-Methoxy-1,3-butadiene",
    "duplicated_cas_no": "",
    "SMILES": "C(=COC)C=C",
    "meta_data": {
        "InChI": "InChI=1S/C5H8O/c1-3-4-5-6-2/h3-5H,1H2,2H3",
        "InChIKey": null,
        "Canonical SMILES": "O(C=CC=C)C",
        "Molecular Formula": "C<sub>5</sub>H<sub>8</sub>O",
        "Molecular Mass": "84.12",
        "Boiling Point": "91.5 °C",
        "Density": "0.834 g/cm³ @ Temp: 20 °C"
    }
}