{
    "cas_no": "7588-36-5",
    "key_name": "5-Methoxy-2-methylindole-3-acetic acid methyl ester",
    "cn_name": null,
    "alternate_name": "1<em>H</em>-Indole-3-acetic acid, 5-methoxy-2-methyl-, methyl ester;Indole-3-acetic acid, 5-methoxy-2-methyl-, methyl ester;Methyl 5-methoxy-2-methylindole-3-acetate;5-Methoxy-2-methylindole-3-acetic acid methyl ester;Methyl 2-(5-methoxy-2-methyl-1<em>H</em>-indol-3-yl)acetate",
    "duplicated_cas_no": "",
    "SMILES": "C(C(OC)=O)C=1C=2C(NC1C)=CC=C(OC)C2",
    "meta_data": {
        "InChI": "InChI=1S/C13H15NO3/c1-8-10(7-13(15)17-3)11-6-9(16-2)4-5-12(11)14-8/h4-6,14H,7H2,1-3H3",
        "InChIKey": null,
        "Canonical SMILES": "O=C(OC)CC=1C=2C=C(OC)C=CC2NC1C",
        "Molecular Formula": "C<sub>13</sub>H<sub>15</sub>NO<sub>3</sub>",
        "Molecular Mass": "233.26",
        "Melting Point": "54-56 °C"
    }
}