{
    "cas_no": "373-53-5",
    "key_name": "Methane, fluoroiodo-",
    "cn_name": null,
    "alternate_name": "Methane, fluoroiodo-;Fluoroiodomethane;Fluoroiodomethane (CH<sub>2</sub>FI);Fluoromethyl iodide",
    "duplicated_cas_no": "",
    "SMILES": "C(F)I",
    "meta_data": {
        "InChI": "InChI=1S/CH2FI/c2-1-3/h1H2",
        "InChIKey": null,
        "Canonical SMILES": "FCI",
        "Molecular Formula": "CH<sub>2</sub>FI",
        "Molecular Mass": "159.93",
        "Boiling Point": "53.4 °C",
        "Density": "2.366 g/cm³ @ Temp: 20 °C"
    }
}