{
    "cas_no": "91-67-8",
    "key_name": "<em>N</em>,<em>N</em>-Diethyl-<em>m</em>-toluidine",
    "cn_name": "N,N-二乙基间甲苯胺;",
    "alternate_name": "Benzenamine, <em>N</em>,<em>N</em>-diethyl-3-methyl-;<em>m</em>-Toluidine, <em>N</em>,<em>N</em>-diethyl-;<em>N</em>,<em>N</em>-Diethyl-3-methylbenzenamine;3-(Diethylamino)-1-methylbenzene;3-(Diethylamino)toluene;<em>m</em>-Methyl(diethylamino)benzene;<em>N</em>,<em>N</em>-Diethyl-3-methylaniline;<em>m</em>-Methyl-<em>N</em>,<em>N</em>-diethylaniline;3-(<em>N</em>,<em>N</em>-Diethylamino)toluene;1-(Diethylamino)-3-methylbenzene;3-Methyl-<em>N</em>,<em>N</em>-diethylaniline;<em>N</em>,<em>N</em>-Diethyl-<em>m</em>-toluidine;<em>N</em>,<em>N</em>-Diethyl-<em>m</em>-methylaniline;NSC 96629",
    "duplicated_cas_no": "",
    "SMILES": "N(CC)(CC)C1=CC(C)=CC=C1",
    "meta_data": {
        "InChI": "InChI=1S/C11H17N/c1-4-12(5-2)11-8-6-7-10(3)9-11/h6-9H,4-5H2,1-3H3",
        "InChIKey": null,
        "Canonical SMILES": "C=1C=C(C=C(C1)C)N(CC)CC",
        "Molecular Formula": "C<sub>11</sub>H<sub>17</sub>N",
        "Molecular Mass": "163.26",
        "Boiling Point": "99 °C @ Press: 13.5 Torr"
    }
}