{
    "cas_no": "995-25-5",
    "key_name": "Chlorotripropylsilane",
    "cn_name": "三-n-丙基氯硅烷;",
    "alternate_name": "Silane, chlorotripropyl-;Chlorotripropylsilane;Tripropylsilyl chloride;Tri-<em>n</em>-propylchlorosilane;Tripropylchlorosilane;NSC 139864",
    "duplicated_cas_no": "",
    "SMILES": "[Si](CCC)(CCC)(CCC)Cl",
    "meta_data": {
        "InChI": "InChI=1S/C9H21ClSi/c1-4-7-11(10,8-5-2)9-6-3/h4-9H2,1-3H3",
        "InChIKey": null,
        "Canonical SMILES": "Cl[Si](CCC)(CCC)CCC",
        "Molecular Formula": "C<sub>9</sub>H<sub>21</sub>ClSi",
        "Molecular Mass": "192.80",
        "Boiling Point": "199-201 °C",
        "Density": "0.882 g/cm³"
    }
}