{
    "cas_no": "2788-86-5",
    "key_name": "4-Chlorostyrene oxide",
    "cn_name": "(±)-4-氯苯乙烯环氧化物;",
    "alternate_name": "Oxirane, 2-(4-chlorophenyl)-;Benzene, 1-chloro-4-(epoxyethyl)-;Oxirane, (4-chlorophenyl)-;2-(4-Chlorophenyl)oxirane;<em>p</em>-Chlorostyrene oxide;4-Chlorostyrene oxide;(<em>p</em>-Chlorophenyl)oxirane;(±)-(4-Chlorophenyl)oxirane;4-Chlorophenyloxirane;4-Chlorostyrene epoxide",
    "duplicated_cas_no": "53649-47-1",
    "SMILES": "ClC1=CC=C(C2CO2)C=C1",
    "meta_data": {
        "InChI": "InChI=1S/C8H7ClO/c9-7-3-1-6(2-4-7)8-5-10-8/h1-4,8H,5H2",
        "InChIKey": null,
        "Canonical SMILES": "ClC1=CC=C(C=C1)C2OC2",
        "Molecular Formula": "C<sub>8</sub>H<sub>7</sub>ClO",
        "Molecular Mass": "154.59",
        "Boiling Point": "108 °C @ Press: 13 Torr",
        "Density": "1.2169 g/cm³ @ Temp: 20 °C"
    }
}