{
    "cas_no": "82911-69-1",
    "key_name": "<em>N</em>-(9-Fluorenylmethoxycarbonyloxy)succinimide",
    "cn_name": "9-芴甲基-N-琥珀酰亚胺基碳酸酯;",
    "alternate_name": "Carbonic acid, 2,5-dioxo-1-pyrrolidinyl 9<em>H</em>-fluoren-9-ylmethyl ester;2,5-Pyrrolidinedione, 1-[[(9<em>H</em>-fluoren-9-ylmethoxy)carbonyl]oxy]-;9-Fluorenylmethyl succinimidyl carbonate;<em>N</em>-(9-Fluorenylmethoxycarbonyloxy)succinimide;(Fluorenylmethoxycarbonyl)hydroxysuccinimide ester;FMOC-OSu;Succinimidyl (9-fluorenyl)methyl carbonate;9-Fluorenylmethyl <em>N</em>-succinimidyl carbonate;<em>N</em>-(9<em>H</em>-Fluoren-9-ylmethoxycarbonyloxy)succinimide;Fluorenylmethoxycarbonyl <em>N</em>-hydroxysuccinimide;Fmoc-<em>N</em>-hydroxysuccinimide ester;Fmoc-<em>N</em>-hydroxysuccinimide;<em>N</em>-Fmoc-succinimide;(9<em>H</em>-Fluoren-9-yl)methyl succinimidyl carbonate;1-[[[(9<em>H</em>-Fluoren-9-yl)methoxy]carbonyl]oxy]pyrrolidine-2,5-dione;9-Fluorenylmethyl-<em>N</em>-hydroxysuccinimide;(2,5-Dioxopyrrolidin-1-yl) 9<em>H</em>-fluoren-9-ylmethyl carbonate;2,5-Dioxopyrrolidin-1-yl (9<em>H</em>-fluoren-9-yl)methyl carbonate",
    "duplicated_cas_no": "489458-35-7;862973-25-9",
    "SMILES": "C(OC(ON1C(=O)CCC1=O)=O)C2C=3C(C=4C2=CC=CC4)=CC=CC3",
    "meta_data": {
        "InChI": "InChI=1S/C19H15NO5/c21-17-9-10-18(22)20(17)25-19(23)24-11-16-14-7-3-1-5-12(14)13-6-2-4-8-15(13)16/h1-8,16H,9-11H2",
        "InChIKey": null,
        "Canonical SMILES": "O=C(ON1C(=O)CCC1=O)OCC2C=3C=CC=CC3C=4C=CC=CC42",
        "Molecular Formula": "C<sub>19</sub>H<sub>15</sub>NO<sub>5</sub>",
        "Molecular Mass": "337.33",
        "Melting Point": "143-144 °C"
    }
}