{
    "cas_no": "618-83-7",
    "key_name": "5-Hydroxyisophthalic acid",
    "cn_name": "5-羟基间苯二甲酸;",
    "alternate_name": "1,3-Benzenedicarboxylic acid, 5-hydroxy-;Isophthalic acid, 5-hydroxy-;5-Hydroxy-1,3-benzenedicarboxylic acid;5-Hydroxyisophthalic acid;3,5-Dicarboxyphenol;NSC 302088;5-Hydroxybenzene-1,3-dioic acid",
    "duplicated_cas_no": "",
    "SMILES": "C(O)(=O)C1=CC(C(O)=O)=CC(O)=C1",
    "meta_data": {
        "InChI": "InChI=1S/C8H6O5/c9-6-2-4(7(10)11)1-5(3-6)8(12)13/h1-3,9H,(H,10,11)(H,12,13)",
        "InChIKey": null,
        "Canonical SMILES": "O=C(O)C1=CC(O)=CC(=C1)C(=O)O",
        "Molecular Formula": "C<sub>8</sub>H<sub>6</sub>O<sub>5</sub>",
        "Molecular Mass": "182.13",
        "Melting Point": "293 °C"
    }
}