{
    "cas_no": "1258-84-0",
    "key_name": "Pristimerin",
    "cn_name": "扁塑藤素;",
    "alternate_name": "24,25,26-Trinoroleana-1(10),3,5,7-tetraen-29-oic acid, 3-hydroxy-9,13-dimethyl-2-oxo-, methyl ester, (9β,13α,14β,20α)-;24-Nor-<em>D</em>:<em>A</em>-friedooleana-1(10),3,5,7-tetraen-29-oic acid, 3-hydroxy-2-oxo-, methyl ester;Pristimerin;<em>D</em>:<em>A</em>-Friedo-24-noroleana-1(10),3,5,7-tetraen-29-oic acid, 3-hydroxy-2-oxo-, methyl ester, (20α)-;Celastrol, methyl ester;2-Picenecarboxylic acid, 1,2,3,4,4a,5,6,6a,11,12b,13,14,14a,14b-tetradecahydro-10-hydroxy-2,4a,6a,9,12b,14a-hexamethyl-11-oxo-, methyl ester, [2<em>R</em>-(2α,4aβ,6aβ,12bβ,14aα,14bβ)]-;2-Picenecarboxylic acid, 1,2,3,4,4a,5,6,6a,11,12b,13,14,14a,14b-tetradecahydro-10-hydroxy-2,4a,6a,9,12b,14a-hexamethyl-11-oxo-, methyl ester, (2<em>R</em>,4a<em>S</em>,6a<em>S</em>,12b<em>R</em>,14a<em>S</em>,14b<em>R</em>)-;NSC 99281",
    "duplicated_cas_no": "",
    "SMILES": "C[C@@]12[C@](C)([C@]3([C@@](C)(CC1)CC[C@](C(OC)=O)(C)C3)[H])CC[C@]4(C)C2=CC=C5C4=CC(=O)C(O)=C5C",
    "meta_data": {
        "InChI": "InChI=1S/C30H40O4/c1-18-19-8-9-22-28(4,20(19)16-21(31)24(18)32)13-15-30(6)23-17-27(3,25(33)34-7)11-10-26(23,2)12-14-29(22,30)5/h8-9,16,23,32H,10-15,17H2,1-7H3/t23-,26-,27-,28+,29-,30+/m1/s1",
        "InChIKey": null,
        "Canonical SMILES": "O=C1C=C2C(=CC=C3C2(C)CCC4(C)C5CC(C(=O)OC)(C)CCC5(C)CCC34C)C(=C1O)C",
        "Molecular Formula": "C<sub>30</sub>H<sub>40</sub>O<sub>4</sub>",
        "Molecular Mass": "464.64",
        "Melting Point": "218-219 °C"
    }
}