{
    "cas_no": "192944-51-7",
    "key_name": "Ethyl 1<em>H</em>-indazole-5-carboxylate",
    "cn_name": null,
    "alternate_name": "1<em>H</em>-Indazole-5-carboxylic acid, ethyl ester;Ethyl 1<em>H</em>-indazole-5-carboxylate",
    "duplicated_cas_no": "",
    "SMILES": "C(OCC)(=O)C=1C=C2C(=CC1)NN=C2",
    "meta_data": {
        "InChI": "InChI=1S/C10H10N2O2/c1-2-14-10(13)7-3-4-9-8(5-7)6-11-12-9/h3-6H,2H2,1H3,(H,11,12)",
        "InChIKey": null,
        "Canonical SMILES": "O=C(OCC)C=1C=CC=2NN=CC2C1",
        "Molecular Formula": "C<sub>10</sub>H<sub>10</sub>N<sub>2</sub>O<sub>2</sub>",
        "Molecular Mass": "190.20",
        "Melting Point": "122-124 °C"
    }
}