{
    "cas_no": "13191-36-1",
    "key_name": "2,5-Dibromo-3-methylthiophene",
    "cn_name": "2,5-二溴-3-甲基噻吩;",
    "alternate_name": "Thiophene, 2,5-dibromo-3-methyl-;2,5-Dibromo-3-methylthiophene;3-Methyl-2,5-dibromothiophene",
    "duplicated_cas_no": "",
    "SMILES": "CC1=C(Br)SC(Br)=C1",
    "meta_data": {
        "InChI": "InChI=1S/C5H4Br2S/c1-3-2-4(6)8-5(3)7/h2H,1H3",
        "InChIKey": null,
        "Canonical SMILES": "BrC=1SC(Br)=C(C1)C",
        "Molecular Formula": "C<sub>5</sub>H<sub>4</sub>Br<sub>2</sub>S",
        "Molecular Mass": "255.96",
        "Boiling Point": "55 °C @ Press: 2 Torr",
        "Density": "1.972 g/cm³ @ Temp: 20 °C"
    }
}