{
    "cas_no": "1122-10-7",
    "key_name": "3,4-Dibromo-1<em>H</em>-pyrrole-2,5-dione",
    "cn_name": "3,4-二溴-1H-吡咯-2,5-二酮;2,3-二溴马来酰亚胺;",
    "alternate_name": "1<em>H</em>-Pyrrole-2,5-dione, 3,4-dibromo-;Maleimide, 2,3-dibromo-;3,4-Dibromo-1<em>H</em>-pyrrole-2,5-dione;Dibromomaleimide;2,3-Dibromomaleimide;3,4-Dibromomaleimide;3,4-Dibromo-2,5-dihydro-1<em>H</em>-pyrrole-2,5-dione;3,4-Dibromopyrrole-2,5-dione",
    "duplicated_cas_no": "",
    "SMILES": "BrC1=C(Br)C(=O)NC1=O",
    "meta_data": {
        "InChI": "InChI=1S/C4HBr2NO2/c5-1-2(6)4(9)7-3(1)8/h(H,7,8,9)",
        "InChIKey": null,
        "Canonical SMILES": "O=C1NC(=O)C(Br)=C1Br",
        "Molecular Formula": "C<sub>4</sub>HBr<sub>2</sub>NO<sub>2</sub>",
        "Molecular Mass": "254.86",
        "Melting Point": "227 °C"
    }
}