{
    "cas_no": "2091-46-5",
    "key_name": "Phosphonium, triphenyl-2-propyn-1-yl-, bromide (1:1)",
    "cn_name": null,
    "alternate_name": "Phosphonium, triphenyl-2-propyn-1-yl-, bromide (1:1);Phosphonium, triphenyl-2-propynyl-, bromide;Triphenyl-2-propynylphosphonium bromide;Propargyltriphenylphosphonium bromide;Triphenylpropargylphosphonium bromide;2-Propynyltriphenylphosphonium bromide;NSC 219251;P 1379",
    "duplicated_cas_no": "",
    "SMILES": "[P+](CC#C)(C1=CC=CC=C1)(C2=CC=CC=C2)C3=CC=CC=C3.[Br-]",
    "meta_data": {
        "InChI": "InChI=1S/C21H18P.BrH/c1-2-18-22(19-12-6-3-7-13-19,20-14-8-4-9-15-20)21-16-10-5-11-17-21;/h1,3-17H,18H2;1H/q+1;/p-1",
        "InChIKey": null,
        "Canonical SMILES": "[Br-].C#CC[P+](C=1C=CC=CC1)(C=2C=CC=CC2)C=3C=CC=CC3",
        "Molecular Formula": "C<sub>21</sub>H<sub>18</sub>P.Br",
        "Molecular Mass": "",
        "Melting Point": "164-167 °C"
    }
}