{
    "cas_no": "35620-71-4",
    "key_name": "2-Phenoxynicotinic acid",
    "cn_name": "2-苯氧基烟酸;",
    "alternate_name": "3-Pyridinecarboxylic acid, 2-phenoxy-;2-Phenoxy-3-pyridinecarboxylic acid;2-Phenoxynicotinic acid;3-Carboxy-2-phenoxypyridine",
    "duplicated_cas_no": "",
    "SMILES": "O(C1=C(C(O)=O)C=CC=N1)C2=CC=CC=C2",
    "meta_data": {
        "InChI": "InChI=1S/C12H9NO3/c14-12(15)10-7-4-8-13-11(10)16-9-5-2-1-3-6-9/h1-8H,(H,14,15)",
        "InChIKey": null,
        "Canonical SMILES": "O=C(O)C1=CC=CN=C1OC=2C=CC=CC2",
        "Molecular Formula": "C<sub>12</sub>H<sub>9</sub>NO<sub>3</sub>",
        "Molecular Mass": "215.20",
        "Melting Point": "179-180 °C"
    }
}