{
    "cas_no": "25830-77-7",
    "key_name": "<em>N</em>-Phthaloyl-<span class=\"text-smallcaps\">L</span>-glutamic anhydride",
    "cn_name": "N-邻苯二甲酰-L-谷氨酸酸酐;",
    "alternate_name": "1<em>H</em>-Isoindole-1,3(2<em>H</em>)-dione, 2-[(3<em>S</em>)-tetrahydro-2,6-dioxo-2<em>H</em>-pyran-3-yl]-;Glutaric anhydride, 2-phthalimido-, <span class=\"text-smallcaps\">L</span>-(-)-;1<em>H</em>-Isoindole-1,3(2<em>H</em>)-dione, 2-(tetrahydro-2,6-dioxo-2<em>H</em>-pyran-3-yl)-, (<em>S</em>)-;Glutaric anhydride, 2-phthalimido-, <span class=\"text-smallcaps\">L</span>-;2-[(3<em>S</em>)-Tetrahydro-2,6-dioxo-2<em>H</em>-pyran-3-yl]-1<em>H</em>-isoindole-1,3(2<em>H</em>)-dione;<span class=\"text-smallcaps\">L</span>-<em>N</em>-Phthalylglutamic anhydride;<em>N</em>-Phthaloyl-<span class=\"text-smallcaps\">L</span>-glutamoyl anhydride;<em>N</em>-Phthaloyl-<span class=\"text-smallcaps\">L</span>-glutamic anhydride;<em>N</em>-Phthalyl-<span class=\"text-smallcaps\">L</span>-glutamic anhydride;<em>N</em>-Phthaloyl-<span class=\"text-smallcaps\">L</span>-glutamic acid anhydride;1<em>H</em>-Isoindole-1,3(2<em>H</em>)-dione 2-[(3S)-tetrahydro-2,6-dioxo-2<em>H</em>-pyran-3-yl]-;2-[(3S)-2,6-Dioxooxan-3-yl]-2,3-dihydro-1<em>H</em>-isoindole-1,3-dione;2-[(3S)-2,6-Dioxooxan-3-yl]isoindole-1,3-dione",
    "duplicated_cas_no": "71865-31-1;84325-16-6",
    "SMILES": "O=C1N(C(=O)C=2C1=CC=CC2)[C@@H]3C(=O)OC(=O)CC3",
    "meta_data": {
        "InChI": "InChI=1S/C13H9NO5/c15-10-6-5-9(13(18)19-10)14-11(16)7-3-1-2-4-8(7)12(14)17/h1-4,9H,5-6H2/t9-/m0/s1",
        "InChIKey": null,
        "Canonical SMILES": "O=C1OC(=O)C(N2C(=O)C=3C=CC=CC3C2=O)CC1",
        "Molecular Formula": "C<sub>13</sub>H<sub>9</sub>NO<sub>5</sub>",
        "Molecular Mass": "259.21",
        "Melting Point": "195-200 °C"
    }
}