{
    "cas_no": "3173-53-3",
    "key_name": "Cyclohexyl isocyanate",
    "cn_name": "异氰酸环己酯;环己基异氰酸酯;",
    "alternate_name": "Cyclohexane, isocyanato-;Isocyanic acid, cyclohexyl ester;Isocyanatocyclohexane;Cyclohexyl isocyanate;NSC 87419;Cyclohexane isocyanate",
    "duplicated_cas_no": "",
    "SMILES": "N(=C=O)C1CCCCC1",
    "meta_data": {
        "InChI": "InChI=1S/C7H11NO/c9-6-8-7-4-2-1-3-5-7/h7H,1-5H2",
        "InChIKey": null,
        "Canonical SMILES": "O=C=NC1CCCCC1",
        "Molecular Formula": "C<sub>7</sub>H<sub>11</sub>NO",
        "Molecular Mass": "125.17",
        "Boiling Point": "168 °C",
        "Melting Point": "-80 °C",
        "Density": "0.98 g/cm³"
    }
}