{
    "cas_no": "6833-84-7",
    "key_name": "Nonactin",
    "cn_name": null,
    "alternate_name": "4,13,22,31,37,38,39,40-Octaoxapentacyclo[32.2.1.1<sup>7,10</sup>.1<sup>16,19</sup>.1<sup>25,28</sup>]tetracontane-3,12,21,30-tetrone, 2,5,11,14,20,23,29,32-octamethyl-, (1<em>R</em>,2<em>R</em>,5<em>R</em>,7<em>R</em>,10<em>S</em>,11<em>S</em>,14<em>S</em>,16<em>S</em>,19<em>R</em>,20<em>R</em>,23<em>R</em>,25<em>R</em>,28<em>S</em>,29<em>S</em>,32<em>S</em>,34<em>S</em>)-;Nonactin;4,13,22,31,37,38,39,40-Octaoxapentacyclo[32.2.1.1<sup>7,10</sup>.1<sup>16,19</sup>.1<sup>25,28</sup>]tetracontane-3,12,21,30-tetrone, 2,5,11,14,20,23,29,32-octamethyl-, [1<em>R</em>-(1<em>R</em>*,2<em>R</em>*,5<em>R</em>*,7<em>R</em>*,10<em>S</em>*,11<em>S</em>*,14<em>S</em>*,16<em>S</em>*,19<em>R</em>*,20<em>R</em>*,23<em>R</em>*,25<em>R</em>*,28<em>S</em>*,29<em>S</em>*,32<em>S</em>*,34<em>S</em>*)]-;4,13,22,31,37,38,39,40-Octaoxapentacyclo[32.2.1.1<sup>7,10</sup>.1<sup>16,19</sup>.1<sup>25,28</sup>]tetracontane, nonactin deriv.;(1<em>R</em>,2<em>R</em>,5<em>R</em>,7<em>R</em>,10<em>S</em>,11<em>S</em>,14<em>S</em>,16<em>S</em>,19<em>R</em>,20<em>R</em>,23<em>R</em>,25<em>R</em>,28<em>S</em>,29<em>S</em>,32<em>S</em>,34<em>S</em>)-2,5,11,14,20,23,29,32-Octamethyl-4,13,22,31,37,38,39,40-octaoxapentacyclo[32.2.1.1<sup>7,10</sup>.1<sup>16,19</sup>.1<sup>25,28</sup>]tetracontane-3,12,21,30-tetrone;[1<em>R</em>-(1<em>R</em>*,2<em>R</em>*,5<em>R</em>*,7<em>R</em>*,10<em>S</em>*,11<em>S</em>*,14<em>S</em>*,16<em>S</em>*,19<em>R</em>*,20<em>R</em>*,23<em>R</em>*,25<em>R</em>*,28<em>S</em>*,29<em>S</em>*,32<em>S</em>*,34<em>S</em>*)]-2,5,11,14,20,23,29,32-Octamethyl-4,13,22,31,37,38,39,40-octaoxapentacyclo[32.2.1.1<sup>7,10</sup>.1<sup>16,19</sup>.1<sup>25,28</sup>]tetracontane-3,12,21,30-tetrone;Ammonium ionophore I;NSC 52141;NSC 56409",
    "duplicated_cas_no": "1400-56-2;6945-66-0;26082-94-0",
    "SMILES": "C[C@@H]1[C@@]2(O[C@@](CC2)(C[C@H](C)OC(=O)[C@@H](C)[C@]3(O[C@](CC3)(C[C@@H](C)OC(=O)[C@H](C)[C@@]4(O[C@](C[C@H](C)OC(=O)[C@@H](C)[C@]5(O[C@@](C[C@@H](C)OC1=O)(CC5)[H])[H])(CC4)[H])[H])[H])[H])[H])[H]",
    "meta_data": {
        "InChI": "InChI=1S/C40H64O12/c1-21-17-29-9-13-34(49-29)26(6)38(42)46-23(3)19-31-11-15-36(51-31)28(8)40(44)48-24(4)20-32-12-16-35(52-32)27(7)39(43)47-22(2)18-30-10-14-33(50-30)25(5)37(41)45-21/h21-36H,9-20H2,1-8H3/t21-,22+,23+,24-,25-,26+,27+,28-,29-,30+,31+,32-,33-,34+,35+,36-",
        "InChIKey": null,
        "Canonical SMILES": "O=C1OC(C)CC2OC(CC2)C(C(=O)OC(C)CC3OC(CC3)C(C(=O)OC(C)CC4OC(CC4)C(C(=O)OC(C)CC5OC(CC5)C1C)C)C)C",
        "Molecular Formula": "C<sub>40</sub>H<sub>64</sub>O<sub>12</sub>",
        "Molecular Mass": "736.93",
        "Melting Point": "147.5 °C",
        "Density": "1.11-1.15 g/cm³"
    }
}