{
    "cas_no": "14235-81-5",
    "key_name": "4-Ethynylaniline",
    "cn_name": "4-乙炔基苯胺;",
    "alternate_name": "Benzenamine, 4-ethynyl-;Aniline, <em>p</em>-ethynyl-;4-Ethynylbenzenamine;<em>p</em>-Aminophenylacetylene;<em>p</em>-Ethynylaniline;4-Ethynylaniline;4-Aminophenylacetylene;4-Amino-1-ethynylbenzene;P-APAC;(4-Ethynylphenyl)amine;1-Amino-4-ethynylbenzene;4-Aminophenylethyne",
    "duplicated_cas_no": "",
    "SMILES": "C(#C)C1=CC=C(N)C=C1",
    "meta_data": {
        "InChI": "InChI=1S/C8H7N/c1-2-7-3-5-8(9)6-4-7/h1,3-6H,9H2",
        "InChIKey": null,
        "Canonical SMILES": "C#CC1=CC=C(N)C=C1",
        "Molecular Formula": "C<sub>8</sub>H<sub>7</sub>N",
        "Molecular Mass": "117.15",
        "Boiling Point": "99-101 °C @ Press: 13 Torr",
        "Melting Point": "88-90 °C"
    }
}