{
    "cas_no": "4635-08-9",
    "key_name": "5-Bromo-3,4-pyridinediamine",
    "cn_name": "5-溴-3,4-二氨基吡啶;",
    "alternate_name": "3,4-Pyridinediamine, 5-bromo-;Pyridine, 3,4-diamino-5-bromo-;5-Bromo-3,4-pyridinediamine;3-Bromopyridine-4,5-diamine",
    "duplicated_cas_no": "",
    "SMILES": "NC=1C(Br)=CN=CC1N",
    "meta_data": {
        "InChI": "InChI=1S/C5H6BrN3/c6-3-1-9-2-4(7)5(3)8/h1-2H,7H2,(H2,8,9)",
        "InChIKey": null,
        "Canonical SMILES": "BrC1=CN=CC(N)=C1N",
        "Molecular Formula": "C<sub>5</sub>H<sub>6</sub>BrN<sub>3</sub>",
        "Molecular Mass": "188.03",
        "Melting Point": "121-123 °C"
    }
}