{
    "cas_no": "134-72-5",
    "key_name": "(-)-Ephedrine sulfate",
    "cn_name": "硫酸麻黄碱;",
    "alternate_name": "Benzenemethanol, α-[(1<em>S</em>)-1-(methylamino)ethyl]-, (α<em>R</em>)-, sulfate (2:1);Ephedrine, sulfate (2:1) (salt), (-)-;Benzenemethanol, α-[1-(methylamino)ethyl]-, [<em>R</em>-(<em>R</em>*,<em>S</em>*)]-, sulfate (2:1) (salt);Benzenemethanol, α-[(1<em>S</em>)-1-(methylamino)ethyl]-, (α<em>R</em>)-, sulfate (2:1) (salt);Ephedrine sulfate;Isofedrol;(1<em>R</em>,2<em>S</em>)-1-Phenyl-2-methylaminopropanol-1 sulfate;<em>l</em>-Ephedrine sulfate;(-)-Ephedrine sulfate;(-)-<em>erythro</em>-1-Hydroxy-2-(methylamino)-1-phenylpropane sulfate;Ephedrine sulphate;(-)-Ephedrine hemisulfate",
    "duplicated_cas_no": "95330-22-6;8048-37-1;8052-22-0;17140-50-0;33096-52-5;909278-77-9",
    "SMILES": "S(=O)(=O)(O)O.[C@@H]([C@@H](NC)C)(O)C1=CC=CC=C1",
    "meta_data": {
        "InChI": "InChI=1S/C10H15NO.H2O4S/c1-8(11-2)10(12)9-6-4-3-5-7-9;1-5(2,3)4/h3-8,10-12H,1-2H3;(H2,1,2,3,4)/t8-,10-;/m0./s1",
        "InChIKey": null,
        "Canonical SMILES": "O=S(=O)(O)O.OC(C=1C=CC=CC1)C(NC)C",
        "Molecular Formula": "C<sub>10</sub>H<sub>15</sub>NO.<sup>1</sup>/<sub>2</sub>H<sub>2</sub>O<sub>4</sub>S",
        "Molecular Mass": "",
        "Melting Point": "245 °C (decomp)"
    }
}