{
    "cas_no": "131341-86-1",
    "key_name": "Fludioxonil",
    "cn_name": null,
    "alternate_name": "1<em>H</em>-Pyrrole-3-carbonitrile, 4-(2,2-difluoro-1,3-benzodioxol-4-yl)-;4-(2,2-Difluoro-1,3-benzodioxol-4-yl)-1<em>H</em>-pyrrole-3-carbonitrile;CGA 173506;Maxim;Fludioxonil;Celeste;Beret Gold;Savior;Maxim (pesticide);Scholar;Geoxe;Saphire;Maxim PSP;Seibia;Maxim 4FS;Spirato 480 FS;Spirato;Maxin XL;STartUP FLUDI",
    "duplicated_cas_no": "1135442-63-5",
    "SMILES": "FC1(F)OC2=C(C=CC=C2O1)C=3C(C#N)=CNC3",
    "meta_data": {
        "InChI": "InChI=1S/C12H6F2N2O2/c13-12(14)17-10-3-1-2-8(11(10)18-12)9-6-16-5-7(9)4-15/h1-3,5-6,16H",
        "InChIKey": null,
        "Canonical SMILES": "N#CC1=CNC=C1C=2C=CC=C3OC(F)(F)OC32",
        "Molecular Formula": "C<sub>12</sub>H<sub>6</sub>F<sub>2</sub>N<sub>2</sub>O<sub>2</sub>",
        "Molecular Mass": "248.18",
        "Melting Point": "199.8 °C"
    }
}