{
    "cas_no": "4412-16-2",
    "key_name": "2-Dodecenoic acid",
    "cn_name": null,
    "alternate_name": "2-Dodecenoic acid;NSC 59856",
    "duplicated_cas_no": "",
    "SMILES": "C(CCCCCCCC)C=CC(O)=O",
    "meta_data": {
        "InChI": "InChI=1S/C12H22O2/c1-2-3-4-5-6-7-8-9-10-11-12(13)14/h10-11H,2-9H2,1H3,(H,13,14)",
        "InChIKey": null,
        "Canonical SMILES": "O=C(O)C=CCCCCCCCCC",
        "Molecular Formula": "C<sub>12</sub>H<sub>22</sub>O<sub>2</sub>",
        "Molecular Mass": "198.30",
        "Boiling Point": "164-165 °C @ Press: 2 Torr",
        "Melting Point": "17.1 °C",
        "Density": "0.9130 g/cm³ @ Temp: 20 °C"
    }
}