{
    "cas_no": "101828-21-1",
    "key_name": "Butenafine",
    "cn_name": "布替萘芬;N-甲基-N-(萘-1-基甲基)-1-(4-叔丁基苯基)甲胺;",
    "alternate_name": "1-Naphthalenemethanamine, <em>N</em>-[[4-(1,1-dimethylethyl)phenyl]methyl]-<em>N</em>-methyl-;<em>N</em>-[[4-(1,1-Dimethylethyl)phenyl]methyl]-<em>N</em>-methyl-1-naphthalenemethanamine;Butenafine;1-(4-<em>tert</em>-Butylphenyl)-<em>N</em>-methyl-<em>N</em>-(naphthalen-1-ylmethyl)methanamine",
    "duplicated_cas_no": "",
    "SMILES": "C(N(CC1=CC=C(C(C)(C)C)C=C1)C)C=2C3=C(C=CC2)C=CC=C3",
    "meta_data": {
        "InChI": "InChI=1S/C23H27N/c1-23(2,3)21-14-12-18(13-15-21)16-24(4)17-20-10-7-9-19-8-5-6-11-22(19)20/h5-15H,16-17H2,1-4H3",
        "InChIKey": null,
        "Canonical SMILES": "C=1C=CC2=C(C1)C=CC=C2CN(C)CC3=CC=C(C=C3)C(C)(C)C",
        "Molecular Formula": "C<sub>23</sub>H<sub>27</sub>N",
        "Molecular Mass": "317.47",
        "Melting Point": "200-202 °C"
    }
}