{
    "cas_no": "135-23-9",
    "key_name": "Blue Line",
    "cn_name": null,
    "alternate_name": "1,2-Ethanediamine, <em>N</em><sup>1</sup>,<em>N</em><sup>1</sup>-dimethyl-<em>N</em><sup>2</sup>-2-pyridinyl-<em>N</em><sup>2</sup>-(2-thienylmethyl)-, hydrochloride (1:1);Pyridine, 2-[[2-(dimethylamino)ethyl]-2-thenylamino]-, monohydrochloride;1,2-Ethanediamine, <em>N</em>,<em>N</em>-dimethyl-<em>N</em>′-2-pyridinyl-<em>N</em>′-(2-thienylmethyl)-, monohydrochloride;Barhist;Blue Line;Capathyn;Cohistine;Coryzol;2-[[2-(Dimethylamino)ethyl]-2-thenylamino]pyridine hydrochloride;<em>N</em>,<em>N</em>-Dimethyl-<em>N</em>′-(2-thenyl)-<em>N</em>′-(2-pyridyl-ethylene-diamine hydrochloride);Histafed;Lullamin;Methacon;Methoxylene;Pyrathyn;Somnicaps;Tem-Histine;Teralin;Thenylene hydrochloride;Thenylpyramine hydrochloride;Methapyrilene hydrochloride;Histadyl;Bu-pyra-histrit;Butyl-pyra-hist;Bu-pyra-hist",
    "duplicated_cas_no": "8048-01-9",
    "SMILES": "N(CC1=CC=CS1)(CCN(C)C)C2=CC=CC=N2.Cl",
    "meta_data": {
        "InChI": "InChI=1S/C14H19N3S.ClH/c1-16(2)9-10-17(12-13-6-5-11-18-13)14-7-3-4-8-15-14;/h3-8,11H,9-10,12H2,1-2H3;1H",
        "InChIKey": null,
        "Canonical SMILES": "Cl.N=1C=CC=CC1N(CC=2SC=CC2)CCN(C)C",
        "Molecular Formula": "C<sub>14</sub>H<sub>19</sub>N<sub>3</sub>S.ClH",
        "Molecular Mass": "",
        "Melting Point": "162 °C"
    }
}