{
    "cas_no": "4657-93-6",
    "key_name": "5-Aminoacenaphthene",
    "cn_name": null,
    "alternate_name": "5-Acenaphthylenamine, 1,2-dihydro-;5-Acenaphthenamine;1,2-Dihydro-5-acenaphthylenamine;5-Aminoacenaphthene;NSC 137427",
    "duplicated_cas_no": "",
    "SMILES": "NC1=C2C3=C(CCC3=CC=C2)C=C1",
    "meta_data": {
        "InChI": "InChI=1S/C12H11N/c13-11-7-6-9-5-4-8-2-1-3-10(11)12(8)9/h1-3,6-7H,4-5,13H2",
        "InChIKey": null,
        "Canonical SMILES": "NC1=CC=C2C=3C1=CC=CC3CC2",
        "Molecular Formula": "C<sub>12</sub>H<sub>11</sub>N",
        "Molecular Mass": "169.22",
        "Melting Point": "108 °C"
    }
}