{
    "cas_no": "91-78-1",
    "key_name": "Hexahydro-1,3,5-triphenyl-1,3,5-triazine",
    "cn_name": "六氢-1,3,5-三苯基-1,3,5-三唑;六氢三苯三氰;",
    "alternate_name": "1,3,5-Triazine, hexahydro-1,3,5-triphenyl-;<em>s</em>-Triazine, hexahydro-1,3,5-triphenyl-;Hexahydro-1,3,5-triphenyl-1,3,5-triazine;Anhydroformaldehyde aniline;1,3,5-Triphenylhexahydro-<em>s</em>-triazine;1,3,5-Triphenylhexahydro-1,3,5-triazine;<em>N</em>,<em>N</em>,<em>N</em>-Triphenylhexahydro-<em>s</em>-triazine;NSC 9419;1,3,5-Triphenyl-1,3,5-triazacyclohexane;1,3,5-Triphenyl-1,3,5-triazine;Hexahydro-1,3,5-triphenyl-<em>s</em>-triazine;1,3,5-Triphenyl-1,3,5-triazinane",
    "duplicated_cas_no": "",
    "SMILES": "N1(CN(CN(C1)C2=CC=CC=C2)C3=CC=CC=C3)C4=CC=CC=C4",
    "meta_data": {
        "InChI": "InChI=1S/C21H21N3/c1-4-10-19(11-5-1)22-16-23(20-12-6-2-7-13-20)18-24(17-22)21-14-8-3-9-15-21/h1-15H,16-18H2",
        "InChIKey": null,
        "Canonical SMILES": "C=1C=CC(=CC1)N2CN(C=3C=CC=CC3)CN(C=4C=CC=CC4)C2",
        "Molecular Formula": "C<sub>21</sub>H<sub>21</sub>N<sub>3</sub>",
        "Molecular Mass": "315.41",
        "Boiling Point": "185 °C",
        "Melting Point": "144 °C"
    }
}