{
    "cas_no": "474709-28-9",
    "key_name": "4,4,5,5-Tetramethyl-2-[4-(trifluoromethoxy)phenyl]-1,3,2-dioxaborolane",
    "cn_name": null,
    "alternate_name": "1,3,2-Dioxaborolane, 4,4,5,5-tetramethyl-2-[4-(trifluoromethoxy)phenyl]-;4,4,5,5-Tetramethyl-2-[4-(trifluoromethoxy)phenyl]-1,3,2-dioxaborolane",
    "duplicated_cas_no": "",
    "SMILES": "CC1(C)OB(OC1(C)C)C2=CC=C(OC(F)(F)F)C=C2",
    "meta_data": {
        "InChI": "InChI=1S/C13H16BF3O3/c1-11(2)12(3,4)20-14(19-11)9-5-7-10(8-6-9)18-13(15,16)17/h5-8H,1-4H3",
        "InChIKey": null,
        "Canonical SMILES": "FC(F)(F)OC1=CC=C(C=C1)B2OC(C)(C)C(O2)(C)C",
        "Molecular Formula": "C<sub>13</sub>H<sub>16</sub>BF<sub>3</sub>O<sub>3</sub>",
        "Molecular Mass": "288.07",
        "Melting Point": "58-60 °C"
    }
}