{
    "cas_no": "7783-60-0",
    "key_name": "Sulfur tetrafluoride",
    "cn_name": "四氟化硫;",
    "alternate_name": "Sulfur fluoride (SF<sub>4</sub>), (<em>T</em>-4)-;Sulfur fluoride (SF<sub>4</sub>);Sulfur tetrafluoride;Tetrafluorosulfurane",
    "duplicated_cas_no": "",
    "SMILES": "S(F)(F)(F)F",
    "meta_data": {
        "InChI": "InChI=1S/F4S/c1-5(2,3)4",
        "InChIKey": null,
        "Canonical SMILES": "FS(F)(F)F",
        "Molecular Formula": "F<sub>4</sub>S",
        "Molecular Mass": "108.06",
        "Boiling Point": "-38 °C",
        "Melting Point": "-121.0 °C",
        "Density": "1.9191 g/cm³"
    }
}