{
    "cas_no": "6683-92-7",
    "key_name": "1-Phenyl-2-pentanone",
    "cn_name": null,
    "alternate_name": "2-Pentanone, 1-phenyl-;1-Phenyl-2-pentanone;Benzyl propyl ketone",
    "duplicated_cas_no": "",
    "SMILES": "C(C(CCC)=O)C1=CC=CC=C1",
    "meta_data": {
        "InChI": "InChI=1S/C11H14O/c1-2-6-11(12)9-10-7-4-3-5-8-10/h3-5,7-8H,2,6,9H2,1H3",
        "InChIKey": null,
        "Canonical SMILES": "O=C(CC=1C=CC=CC1)CCC",
        "Molecular Formula": "C<sub>11</sub>H<sub>14</sub>O",
        "Molecular Mass": "162.23",
        "Boiling Point": "237-239 °C",
        "Density": "0.9889 g/cm³ @ Temp: 12 °C"
    }
}