{
    "cas_no": "5344-90-1",
    "key_name": "2-Aminobenzyl alcohol",
    "cn_name": "邻氨基苯甲醇;2-氨基苯甲醇;",
    "alternate_name": "Benzenemethanol, 2-amino-;Benzyl alcohol, <em>o</em>-amino-;2-Aminobenzenemethanol;<em>o</em>-Aminobenzylic alcohol;<em>o</em>-Aminobenzyl alcohol;2-Aminobenzyl alcohol;<em>o</em>-(Hydroxymethyl)aniline;2-(Hydroxymethyl)aniline;(2-Aminophenyl)methanol;[2-(Hydroxymethyl)phenyl]amine;NSC 1173;(<em>o</em>-Aminophenyl)methanol",
    "duplicated_cas_no": "",
    "SMILES": "C(O)C1=C(N)C=CC=C1",
    "meta_data": {
        "InChI": "InChI=1S/C7H9NO/c8-7-4-2-1-3-6(7)5-9/h1-4,9H,5,8H2",
        "InChIKey": null,
        "Canonical SMILES": "OCC=1C=CC=CC1N",
        "Molecular Formula": "C<sub>7</sub>H<sub>9</sub>NO",
        "Molecular Mass": "123.15",
        "Boiling Point": "273 °C",
        "Melting Point": "83.5 °C"
    }
}