{
    "cas_no": "101-87-1",
    "key_name": "<em>N</em><sup>1</sup>-Cyclohexyl-<em>N</em><sup>4</sup>-phenyl-1,4-benzenediamine",
    "cn_name": "防老剂CPPD;N-环己基-N’-苯基-1,4-苯二胺;N-环己基-N’-苯基对苯二胺;防老剂4010;N-环己基-N’-苯基对苯二;",
    "alternate_name": "1,4-Benzenediamine, <em>N</em><sup>1</sup>-cyclohexyl-<em>N</em><sup>4</sup>-phenyl-;<em>p</em>-Phenylenediamine, <em>N</em>-cyclohexyl-<em>N</em>′-phenyl-;1,4-Benzenediamine, <em>N</em>-cyclohexyl-<em>N</em>′-phenyl-;<em>N</em><sup>1</sup>-Cyclohexyl-<em>N</em><sup>4</sup>-phenyl-1,4-benzenediamine;<em>N</em>-Cyclohexyl-<em>N</em>′-phenyl-<em>p</em>-phenylenediamine;<em>N</em>-Phenyl-<em>N</em>′-cyclohexyl-<em>p</em>-phenylenediamine;Flexzone 6H;4-(Cyclohexylamino)diphenylamine;Antioxidant 4010;NA 4020;<em>N</em>-Cyclohexyl-<em>N</em>′-phenyl-1,4-phenylenediamine;Nocrac 810;ASM 4010;4020NA;Santoflex CP;Diafen FTs;Vanax 6H;<em>N</em>-Cyclohexyl-<em>N</em>′-phenyl-1,4-benzenediamine;<em>N</em>-Phenyl-<em>N</em>′-cyclohexylparaphenylenediamine;Antioxidant CPPD;1-<em>N</em>-Cyclohexyl-4-<em>N</em>-phenylbenzene-1,4-diamine",
    "duplicated_cas_no": "103288-80-8",
    "SMILES": "N(C1=CC=C(NC2=CC=CC=C2)C=C1)C3CCCCC3",
    "meta_data": {
        "InChI": "InChI=1S/C18H22N2/c1-3-7-15(8-4-1)19-17-11-13-18(14-12-17)20-16-9-5-2-6-10-16/h1,3-4,7-8,11-14,16,19-20H,2,5-6,9-10H2",
        "InChIKey": null,
        "Canonical SMILES": "C=1C=CC(=CC1)NC2=CC=C(C=C2)NC3CCCCC3",
        "Molecular Formula": "C<sub>18</sub>H<sub>22</sub>N<sub>2</sub>",
        "Molecular Mass": "266.38",
        "Boiling Point": "185-190 °C @ Press: 0.01 Torr",
        "Melting Point": "118-119 °C"
    }
}