{
    "cas_no": "3416-18-0",
    "key_name": "5-Hydroxyoxindole",
    "cn_name": "2-甲基-6-喹啉甲酸;2-甲基-6-喹啉甲酸;",
    "alternate_name": "2<em>H</em>-Indol-2-one, 1,3-dihydro-5-hydroxy-;2-Indolinone, 5-hydroxy-;Oxindole, 5-hydroxy-;1,3-Dihydro-5-hydroxy-2<em>H</em>-indol-2-one;5-Hydroxyoxindole;5-Hydroxyindolin-2-one",
    "duplicated_cas_no": "369614-40-4;369614-44-8;369614-37-9;369614-42-6",
    "SMILES": "O=C1NC=2C(C1)=CC(O)=CC2",
    "meta_data": {
        "InChI": "InChI=1S/C8H7NO2/c10-6-1-2-7-5(3-6)4-8(11)9-7/h1-3,10H,4H2,(H,9,11)",
        "InChIKey": null,
        "Canonical SMILES": "O=C1NC2=CC=C(O)C=C2C1",
        "Molecular Formula": "C<sub>8</sub>H<sub>7</sub>NO<sub>2</sub>",
        "Molecular Mass": "149.15",
        "Melting Point": "156-157 °C"
    }
}