{
    "cas_no": "1665-00-5",
    "key_name": "Dichloromethane-<em>d</em><sub>2</sub>",
    "cn_name": "二氯甲烷-D2;",
    "alternate_name": "Methane-<em>d</em><sub>2</sub>, dichloro-;Dichloromethane-<em>d</em><sub>2</sub>;Dideuteriodichloromethane;Dichlorodideuteriomethane;Methylene-<em>d</em><sub>2</sub> chloride;Methylene-<em>d</em><sub>2</sub> dichloride;Dideuterodichloromethane;Dideuteriomethylene chloride;Methylene chloride-<em>d</em><sub>2</sub>;Dichlorodideuteromethane;d<sub>2</sub>-Methylene chloride",
    "duplicated_cas_no": "1397232-01-7",
    "SMILES": "C(Cl)(Cl)([2H])[2H]",
    "meta_data": {
        "InChI": "InChI=1S/CH2Cl2/c2-1-3/h1H2/i1D2",
        "InChIKey": null,
        "Canonical SMILES": "ClCCl",
        "Molecular Formula": "CCl<sub>2</sub>D<sub>2</sub>",
        "Molecular Mass": "",
        "Boiling Point": "82 °C"
    }
}