{
    "cas_no": "53518-15-3",
    "key_name": "7-Amino-4-(trifluoromethyl)coumarin",
    "cn_name": "香豆素151;7-氨基-4-三氟甲基香豆素;",
    "alternate_name": "2<em>H</em>-1-Benzopyran-2-one, 7-amino-4-(trifluoromethyl)-;7-Amino-4-(trifluoromethyl)-2<em>H</em>-1-benzopyran-2-one;Coumarin 151;7-Amino-4-(trifluoromethyl)coumarin;Coumarin 490;4-(Trifluoromethyl)-7-aminocoumarin;NSC 337981",
    "duplicated_cas_no": "",
    "SMILES": "C(F)(F)(F)C=1C=2C(OC(=O)C1)=CC(N)=CC2",
    "meta_data": {
        "InChI": "InChI=1S/C10H6F3NO2/c11-10(12,13)7-4-9(15)16-8-3-5(14)1-2-6(7)8/h1-4H,14H2",
        "InChIKey": null,
        "Canonical SMILES": "O=C1OC=2C=C(N)C=CC2C(=C1)C(F)(F)F",
        "Molecular Formula": "C<sub>10</sub>H<sub>6</sub>F<sub>3</sub>NO<sub>2</sub>",
        "Molecular Mass": "229.16",
        "Melting Point": "218.8 °C",
        "Density": "1.59 g/cm³"
    }
}