{
    "cas_no": "13103-75-8",
    "key_name": "Pyridine-2-azo-<em>p</em>-dimethylaniline",
    "cn_name": "4-2-吡啶偶氮-N,N-二甲氧基苯胺;",
    "alternate_name": "Benzenamine, <em>N</em>,<em>N</em>-dimethyl-4-[2-(2-pyridinyl)diazenyl]-;Pyridine, 2-[[<em>p</em>-(dimethylamino)phenyl]azo]-;Benzenamine, <em>N</em>,<em>N</em>-dimethyl-4-(2-pyridinylazo)-;<em>N</em>,<em>N</em>-Dimethyl-4-[2-(2-pyridinyl)diazenyl]benzenamine;4-(2-Pyridylazo)-<em>N</em>,<em>N</em>-dimethylaniline;2-[[<em>p</em>-(Dimethylamino)phenyl]azo]pyridine;PADA;<em>p</em>-(2-Pyridylazo)dimethylaniline;2-(<em>p</em>-<em>N</em>,<em>N</em>-Dimethylaminophenylazo)pyridine;Pyridine-2-azo-<em>p</em>-dimethylaniline;<em>N</em>,<em>N</em>-Dimethyl-4-(2-pyridylazo)aniline;<em>p</em>-(2-Pyridylazo)-<em>N</em>,<em>N</em>-dimethylaniline;NSC 9358",
    "duplicated_cas_no": "",
    "SMILES": "N(=NC1=CC=CC=N1)C2=CC=C(N(C)C)C=C2",
    "meta_data": {
        "InChI": "InChI=1S/C13H14N4/c1-17(2)12-8-6-11(7-9-12)15-16-13-5-3-4-10-14-13/h3-10H,1-2H3",
        "InChIKey": null,
        "Canonical SMILES": "N(=NC1=CC=C(C=C1)N(C)C)C2=NC=CC=C2",
        "Molecular Formula": "C<sub>13</sub>H<sub>14</sub>N<sub>4</sub>",
        "Molecular Mass": "226.28",
        "Melting Point": "142-143 °C"
    }
}