{
    "cas_no": "7779-17-1",
    "key_name": "Cyclohexyl cinnamate",
    "cn_name": null,
    "alternate_name": "2-Propenoic acid, 3-phenyl-, cyclohexyl ester;Cinnamic acid, cyclohexyl ester;Cyclohexyl cinnamate;NSC 71968",
    "duplicated_cas_no": "",
    "SMILES": "O(C(C=CC1=CC=CC=C1)=O)C2CCCCC2",
    "meta_data": {
        "InChI": "InChI=1S/C15H18O2/c16-15(17-14-9-5-2-6-10-14)12-11-13-7-3-1-4-8-13/h1,3-4,7-8,11-12,14H,2,5-6,9-10H2",
        "InChIKey": null,
        "Canonical SMILES": "O=C(OC1CCCCC1)C=CC=2C=CC=CC2",
        "Molecular Formula": "C<sub>15</sub>H<sub>18</sub>O<sub>2</sub>",
        "Molecular Mass": "230.30",
        "Melting Point": "50-53 °C"
    }
}