{
    "cas_no": "3337-62-0",
    "key_name": "3,5-Dibromo-4-hydroxybenzoic acid",
    "cn_name": "3,5-二溴-4-羟基苯甲酸;",
    "alternate_name": "Benzoic acid, 3,5-dibromo-4-hydroxy-;3,5-Dibromo-4-hydroxybenzoic acid;Bromoxynilbenzoic acid;Bromoxynil acid;NSC 21184;3,5-Dibromo <em>p</em>-hydroxy benzoic acid",
    "duplicated_cas_no": "",
    "SMILES": "C(O)(=O)C1=CC(Br)=C(O)C(Br)=C1",
    "meta_data": {
        "InChI": "InChI=1S/C7H4Br2O3/c8-4-1-3(7(11)12)2-5(9)6(4)10/h1-2,10H,(H,11,12)",
        "InChIKey": null,
        "Canonical SMILES": "O=C(O)C1=CC(Br)=C(O)C(Br)=C1",
        "Molecular Formula": "C<sub>7</sub>H<sub>4</sub>Br<sub>2</sub>O<sub>3</sub>",
        "Molecular Mass": "295.91",
        "Melting Point": "268 °C"
    }
}