{
    "cas_no": "16493-80-4",
    "key_name": "4-Ethyloctanoic acid",
    "cn_name": "4-乙基辛酸;",
    "alternate_name": "Octanoic acid, 4-ethyl-;4-Ethyloctanoic acid",
    "duplicated_cas_no": "",
    "SMILES": "C(CCC(O)=O)(CCCC)CC",
    "meta_data": {
        "InChI": "InChI=1S/C10H20O2/c1-3-5-6-9(4-2)7-8-10(11)12/h9H,3-8H2,1-2H3,(H,11,12)",
        "InChIKey": null,
        "Canonical SMILES": "O=C(O)CCC(CC)CCCC",
        "Molecular Formula": "C<sub>10</sub>H<sub>20</sub>O<sub>2</sub>",
        "Molecular Mass": "172.26",
        "Boiling Point": "142-143 °C @ Press: 10 Torr"
    }
}