{
    "cas_no": "3546-03-0",
    "key_name": "2-Cyano-10-(3-dimethylamino-2-methylpropyl)phenothiazine",
    "cn_name": "氰美马嗪;氰美马嗪;",
    "alternate_name": "10<em>H</em>-Phenothiazine-2-carbonitrile, 10-[3-(dimethylamino)-2-methylpropyl]-;Phenothiazine-2-carbonitrile, 10-[3-(dimethylamino)-2-methylpropyl]-;10-[3-(Dimethylamino)-2-methylpropyl]-10<em>H</em>-phenothiazine-2-carbonitrile;7204 RP;10-[3-(Dimethylamino)-2-methylpropyl]phenothiazine-2-carbonitrile;Cyamemazine;Cyamepromazine;2-Cyano-10-(3-dimethylamino-2-methylpropyl)phenothiazine;R.P. 7204;TH 2602;Kyamepromazine;Cianatil;Cyamemazin;F. I. 6229;7204 R. E.;Cyamepromezine;Ciamatil;Tercian",
    "duplicated_cas_no": "119805-49-1",
    "SMILES": "C(C(CN(C)C)C)N1C=2C(SC=3C1=CC=CC3)=CC=C(C#N)C2",
    "meta_data": {
        "InChI": "InChI=1S/C19H21N3S/c1-14(12-21(2)3)13-22-16-6-4-5-7-18(16)23-19-9-8-15(11-20)10-17(19)22/h4-10,14H,12-13H2,1-3H3",
        "InChIKey": null,
        "Canonical SMILES": "N#CC1=CC=C2SC=3C=CC=CC3N(C2=C1)CC(C)CN(C)C",
        "Molecular Formula": "C<sub>19</sub>H<sub>21</sub>N<sub>3</sub>S",
        "Molecular Mass": "323.46",
        "Boiling Point": "205-220 °C @ Press: 0.2-0.5 Torr"
    }
}