{
    "cas_no": "3992-42-5",
    "key_name": "2′-Deoxycytidine hydrochloride",
    "cn_name": "2\"-脱氧胞苷盐酸盐;",
    "alternate_name": "Cytidine, 2′-deoxy-, hydrochloride (1:1);Cytidine, 2′-deoxy-, monohydrochloride;2′-Deoxycytidine hydrochloride;2′-Deoxycytidine monohydrochloride;Deoxycytidine hydrochloride;NSC 83251",
    "duplicated_cas_no": "1091607-54-3",
    "SMILES": "O=C1N([C@@H]2O[C@H](CO)[C@@H](O)C2)C=CC(N)=N1.Cl",
    "meta_data": {
        "InChI": "InChI=1S/C9H13N3O4.ClH/c10-7-1-2-12(9(15)11-7)8-3-5(14)6(4-13)16-8;/h1-2,5-6,8,13-14H,3-4H2,(H2,10,11,15);1H/t5-,6+,8+;/m0./s1",
        "InChIKey": null,
        "Canonical SMILES": "Cl.O=C1N=C(N)C=CN1C2OC(CO)C(O)C2",
        "Molecular Formula": "C<sub>9</sub>H<sub>13</sub>N<sub>3</sub>O<sub>4</sub>.ClH",
        "Molecular Mass": "",
        "Melting Point": "163 °C"
    }
}