{
    "cas_no": "1450-23-3",
    "key_name": "1,1,1,2,2,2-Hexaphenyldisilane",
    "cn_name": null,
    "alternate_name": "Disilane, 1,1,1,2,2,2-hexaphenyl-;Disilane, hexaphenyl-;1,1,1,2,2,2-Hexaphenyldisilane;Hexaphenyldisilane;NSC 215174;NSC 43100",
    "duplicated_cas_no": "",
    "SMILES": "[Si]([Si](C1=CC=CC=C1)(C2=CC=CC=C2)C3=CC=CC=C3)(C4=CC=CC=C4)(C5=CC=CC=C5)C6=CC=CC=C6",
    "meta_data": {
        "InChI": "InChI=1S/C36H30Si2/c1-7-19-31(20-8-1)37(32-21-9-2-10-22-32,33-23-11-3-12-24-33)38(34-25-13-4-14-26-34,35-27-15-5-16-28-35)36-29-17-6-18-30-36/h1-30H",
        "InChIKey": null,
        "Canonical SMILES": "C=1C=CC(=CC1)[Si](C=2C=CC=CC2)(C=3C=CC=CC3)[Si](C=4C=CC=CC4)(C=5C=CC=CC5)C=6C=CC=CC6",
        "Molecular Formula": "C<sub>36</sub>H<sub>30</sub>Si<sub>2</sub>",
        "Molecular Mass": "518.79",
        "Melting Point": "360-362 °C"
    }
}