{
    "cas_no": "86-84-0",
    "key_name": "1-Naphthyl isocyanate",
    "cn_name": "1-萘基异氰酸酯;",
    "alternate_name": "Naphthalene, 1-isocyanato-;Isocyanic acid, 1-naphthyl ester;1-Isocyanatonaphthalene;α-Naphthyl isocyanate;1-Naphthyl isocyanate;1-Naphthalene isocyanate;Naphthalen-1-ylisocyanate;NSC 4023",
    "duplicated_cas_no": "",
    "SMILES": "N(=C=O)C=1C2=C(C=CC1)C=CC=C2",
    "meta_data": {
        "InChI": "InChI=1S/C11H7NO/c13-8-12-11-7-3-5-9-4-1-2-6-10(9)11/h1-7H",
        "InChIKey": null,
        "Canonical SMILES": "O=C=NC1=CC=CC=2C=CC=CC12",
        "Molecular Formula": "C<sub>11</sub>H<sub>7</sub>NO",
        "Molecular Mass": "169.18",
        "Boiling Point": "269 °C",
        "Melting Point": "&lt;25 °C"
    }
}