{
    "cas_no": "2050-01-3",
    "key_name": "Isoamyl isobutyrate",
    "cn_name": "异丁酸异戊酯;2-甲基丙酸-3-甲基丁酯;",
    "alternate_name": "Propanoic acid, 2-methyl-, 3-methylbutyl ester;Isobutyric acid, isopentyl ester;Isopentyl alcohol, isobutyrate;3-Methylbutyl isobutyrate;Isoamyl isobutyrate;Isopentyl isobutyrate;3-Methyl-1-butyl isobutyrate;3-Methylbutyl 2-methylpropanoate;Isoamyl 2-methylpropanoate;Isoamyl isobutanoate",
    "duplicated_cas_no": "",
    "SMILES": "O(C(C(C)C)=O)CCC(C)C",
    "meta_data": {
        "InChI": "InChI=1S/C9H18O2/c1-7(2)5-6-11-9(10)8(3)4/h7-8H,5-6H2,1-4H3",
        "InChIKey": null,
        "Canonical SMILES": "O=C(OCCC(C)C)C(C)C",
        "Molecular Formula": "C<sub>9</sub>H<sub>18</sub>O<sub>2</sub>",
        "Molecular Mass": "158.24",
        "Boiling Point": "168.5 °C"
    }
}