{
    "cas_no": "71555-25-4",
    "key_name": "1-Azetidinecarbothioic acid 2-[1-(2-pyridinyl)ethylidene]hydrazide",
    "cn_name": null,
    "alternate_name": "1-Azetidinecarbothioic acid, 2-[1-(2-pyridinyl)ethylidene]hydrazide;1-Azetidinecarbothioic acid, [1-(2-pyridinyl)ethylidene]hydrazide;1-Azetidinecarbothioic acid 2-[1-(2-pyridinyl)ethylidene]hydrazide;NSC 319726;ZMC 1",
    "duplicated_cas_no": "",
    "SMILES": "C(=NNC(=S)N1CCC1)(C)C2=CC=CC=N2",
    "meta_data": {
        "InChI": "InChI=1S/C11H14N4S/c1-9(10-5-2-3-6-12-10)13-14-11(16)15-7-4-8-15/h2-3,5-6H,4,7-8H2,1H3,(H,14,16)",
        "InChIKey": null,
        "Canonical SMILES": "S=C(NN=C(C1=NC=CC=C1)C)N2CCC2",
        "Molecular Formula": "C<sub>11</sub>H<sub>14</sub>N<sub>4</sub>S",
        "Molecular Mass": "234.32",
        "Melting Point": "175-176 °C"
    }
}