{
    "cas_no": "91-53-2",
    "key_name": "Ethoxyquin",
    "cn_name": "乙氧基喹啉;6-乙氧基-2,2,4-三甲基-1,2-二氢喹啉;",
    "alternate_name": "Quinoline, 6-ethoxy-1,2-dihydro-2,2,4-trimethyl-;6-Ethoxy-1,2-dihydro-2,2,4-trimethylquinoline;1,2-Dihydro-6-ethoxy-2,2,4-trimethylquinoline;1,2-Dihydro-2,2,4-trimethyl-6-ethoxyquinoline;EMQ;EQ;Ethoxyquin;Ethoxyquine;6-Ethoxy-2,2,4-trimethyl-1,2-dihydroquinoline;Santoflex A;Santoflex AW;2,2,4-Trimethyl-6-ethoxy-1,2-dihydroquinoline;Stop-Scald;Niflex;Santoquine;Santoquin;Antioxidant EC;Permanax 103;Amea 100;Dawe's nutrigard;2,2,4-Trimethyl-1,2-dihydro-6-ethoxyquinoline;Quinol ED;Nocrac AW;Niflex D;Antox;Aries Antox;Antage AW;Raluquin;Nonflex AW;Nocrac AW-G;NSC 6795;Tenox II;BIOX-S;Biox SE;AW;Antioxidant AW;Nonflex AW-P;Rendox EQ;MeSH ID: D005015",
    "duplicated_cas_no": "8047-04-9;8047-14-1;124448-33-5",
    "SMILES": "CC=1C=2C(=CC=C(OCC)C2)NC(C)(C)C1",
    "meta_data": {
        "InChI": "InChI=1S/C14H19NO/c1-5-16-11-6-7-13-12(8-11)10(2)9-14(3,4)15-13/h6-9,15H,5H2,1-4H3",
        "InChIKey": null,
        "Canonical SMILES": "O(C=1C=CC=2NC(C=C(C2C1)C)(C)C)CC",
        "Molecular Formula": "C<sub>14</sub>H<sub>19</sub>NO",
        "Molecular Mass": "217.31",
        "Boiling Point": "123-125 °C @ Press: 2 Torr",
        "Melting Point": "~0 °C (approx)",
        "Density": "1.029-1.031 g/cm³ @ Temp: 25 °C"
    }
}