{
    "cas_no": "83881-47-4",
    "key_name": "Methyl 2-(2-chloroethoxy)acetate",
    "cn_name": "2-(2-氯乙氧基)乙酸甲酯;",
    "alternate_name": "Acetic acid, 2-(2-chloroethoxy)-, methyl ester;Acetic acid, (2-chloroethoxy)-, methyl ester;Methyl 2-(2-chloroethoxy)acetate;Methyl (2-chloroethoxy)acetate;Methyl 2-(2′-chloroethoxy)acetate;(2-Chloro-ethoxy)-acetic acid methyl ester",
    "duplicated_cas_no": "",
    "SMILES": "C(COCCCl)(OC)=O",
    "meta_data": {
        "InChI": "InChI=1S/C5H9ClO3/c1-8-5(7)4-9-3-2-6/h2-4H2,1H3",
        "InChIKey": null,
        "Canonical SMILES": "O=C(OC)COCCCl",
        "Molecular Formula": "C<sub>5</sub>H<sub>9</sub>ClO<sub>3</sub>",
        "Molecular Mass": "152.58",
        "Boiling Point": "98-99 °C @ Press: 19 Torr",
        "Density": "1.2081 g/cm³ @ Temp: 20 °C"
    }
}