{
    "cas_no": "138825-96-4",
    "key_name": "Methyl 2-(acetylamino)-5-bromobenzoate",
    "cn_name": "2-乙酰氨基-5-溴苯甲酸甲酯;",
    "alternate_name": "Benzoic acid, 2-(acetylamino)-5-bromo-, methyl ester;Methyl 2-(acetylamino)-5-bromobenzoate;<em>N</em>-[4-Bromo-2-(methoxycarbonyl)phenyl]acetamide;Methyl 5-bromo-2-acetamidobenzoate",
    "duplicated_cas_no": "",
    "SMILES": "N(C(C)=O)C1=C(C(OC)=O)C=C(Br)C=C1",
    "meta_data": {
        "InChI": "InChI=1S/C10H10BrNO3/c1-6(13)12-9-4-3-7(11)5-8(9)10(14)15-2/h3-5H,1-2H3,(H,12,13)",
        "InChIKey": null,
        "Canonical SMILES": "O=C(OC)C1=CC(Br)=CC=C1NC(=O)C",
        "Molecular Formula": "C<sub>10</sub>H<sub>10</sub>BrNO<sub>3</sub>",
        "Molecular Mass": "272.10",
        "Melting Point": "134-135 °C"
    }
}