{
    "cas_no": "71301-98-9",
    "key_name": "Ethyl (2<em>R</em>)-2-(4-hydroxyphenoxy)propanoate",
    "cn_name": null,
    "alternate_name": "Propanoic acid, 2-(4-hydroxyphenoxy)-, ethyl ester, (2<em>R</em>)-;Propanoic acid, 2-(4-hydroxyphenoxy)-, ethyl ester, (<em>R</em>)-;Ethyl (2<em>R</em>)-2-(4-hydroxyphenoxy)propanoate;Ethyl (<em>R</em>)-2-(4-hydroxyphenoxy)propionate;(<em>R</em>)-2-(4-Hydroxyphenoxy)propionic acid ethyl ester;(<em>R</em>)-2-(<em>p</em>-Hydroxyphenoxy)propionic acid ethyl ester;(R)-Ethyl 2-(4-hydroxyphenoxy)propanoate",
    "duplicated_cas_no": "",
    "SMILES": "O([C@@H](C(OCC)=O)C)C1=CC=C(O)C=C1",
    "meta_data": {
        "InChI": "InChI=1S/C11H14O4/c1-3-14-11(13)8(2)15-10-6-4-9(12)5-7-10/h4-8,12H,3H2,1-2H3/t8-/m1/s1",
        "InChIKey": null,
        "Canonical SMILES": "O=C(OCC)C(OC1=CC=C(O)C=C1)C",
        "Molecular Formula": "C<sub>11</sub>H<sub>14</sub>O<sub>4</sub>",
        "Molecular Mass": "210.23",
        "Melting Point": "36-37 °C"
    }
}