{
    "cas_no": "13171-21-6",
    "key_name": "Phosphamidon",
    "cn_name": "磷胺;2-氯-3-二乙氨基甲酰-1-甲基乙烯基二甲基磷酸酯;大灭虫;",
    "alternate_name": "Phosphoric acid, 2-chloro-3-(diethylamino)-1-methyl-3-oxo-1-propen-1-yl dimethyl ester;Phosphoric acid, dimethyl ester, ester with 2-chloro-<em>N</em>,<em>N</em>-diethyl-3-hydroxycrotonamide;Phosphoric acid, 2-chloro-3-(diethylamino)-1-methyl-3-oxo-1-propenyl dimethyl ester;Dimecron;Phosphamidon;Dimecron 50;Dimecron 100;<em>O</em>,<em>O</em>-Dimethyl-<em>O</em>-1-chloro-1-<em>N</em>-diethyl-carbamoyl-1-propen-2-yl phosphate;Dimecron 20;Phosphamidone;Sundaram 1975;Merkon;Kinadan;Kinadon plus;MeSH ID: D010707",
    "duplicated_cas_no": "",
    "SMILES": "P(OC(=C(C(N(CC)CC)=O)Cl)C)(OC)(OC)=O",
    "meta_data": {
        "InChI": "InChI=1S/C10H19ClNO5P/c1-6-12(7-2)10(13)9(11)8(3)17-18(14,15-4)16-5/h6-7H2,1-5H3",
        "InChIKey": null,
        "Canonical SMILES": "O=C(C(Cl)=C(OP(=O)(OC)OC)C)N(CC)CC",
        "Molecular Formula": "C<sub>10</sub>H<sub>19</sub>ClNO<sub>5</sub>P",
        "Molecular Mass": "299.69",
        "Boiling Point": "162 °C @ Press: 1.5 Torr",
        "Melting Point": "-45 °C",
        "Density": "1.2132 g/cm³ @ Temp: 25 °C"
    }
}