{
    "cas_no": "2816-57-1",
    "key_name": "2,6-Dimethylcyclohexanone",
    "cn_name": "2,6-二甲基环己酮;",
    "alternate_name": "Cyclohexanone, 2,6-dimethyl-;2,6-Dimethylcyclohexanone;2,6-Dimethyl-1-cyclohexanone;NSC 5291",
    "duplicated_cas_no": "",
    "SMILES": "O=C1C(C)CCCC1C",
    "meta_data": {
        "InChI": "InChI=1S/C8H14O/c1-6-4-3-5-7(2)8(6)9/h6-7H,3-5H2,1-2H3",
        "InChIKey": null,
        "Canonical SMILES": "O=C1C(C)CCCC1C",
        "Molecular Formula": "C<sub>8</sub>H<sub>14</sub>O",
        "Molecular Mass": "126.20",
        "Boiling Point": "175 °C",
        "Melting Point": "171 °C",
        "Density": "0.9140 g/cm³ @ Temp: 20 °C"
    }
}