{
    "cas_no": "923289-30-9",
    "key_name": "1-(2-Amino-3-bromo-4-methoxyphenyl)ethanone",
    "cn_name": null,
    "alternate_name": "Ethanone, 1-(2-amino-3-bromo-4-methoxyphenyl)-;1-(2-Amino-3-bromo-4-methoxyphenyl)ethanone;1-(2-Amino-3-bromo-4-methoxyphenyl)ethan-1-one",
    "duplicated_cas_no": "",
    "SMILES": "C(C)(=O)C1=C(N)C(Br)=C(OC)C=C1",
    "meta_data": {
        "InChI": "InChI=1S/C9H10BrNO2/c1-5(12)6-3-4-7(13-2)8(10)9(6)11/h3-4H,11H2,1-2H3",
        "InChIKey": null,
        "Canonical SMILES": "O=C(C1=CC=C(OC)C(Br)=C1N)C",
        "Molecular Formula": "C<sub>9</sub>H<sub>10</sub>BrNO<sub>2</sub>",
        "Molecular Mass": "244.09",
        "Melting Point": "95-96 °C"
    }
}