{
    "cas_no": "22446-38-4",
    "key_name": "Ethyl 3-hydroxybenzeneacetate",
    "cn_name": null,
    "alternate_name": "Benzeneacetic acid, 3-hydroxy-, ethyl ester;Acetic acid, (<em>m</em>-hydroxyphenyl)-, ethyl ester;Ethyl 3-hydroxybenzeneacetate;Ethyl 3-hydroxyphenylacetate;(3-Hydroxyphenyl)acetic acid ethyl ester;Ethyl 2-(3-hydroxyphenyl)acetate;2-(3-Hydroxyphenyl)acetic acid ethyl ester",
    "duplicated_cas_no": "",
    "SMILES": "C(C(OCC)=O)C1=CC(O)=CC=C1",
    "meta_data": {
        "InChI": "InChI=1S/C10H12O3/c1-2-13-10(12)7-8-4-3-5-9(11)6-8/h3-6,11H,2,7H2,1H3",
        "InChIKey": null,
        "Canonical SMILES": "O=C(OCC)CC=1C=CC=C(O)C1",
        "Molecular Formula": "C<sub>10</sub>H<sub>12</sub>O<sub>3</sub>",
        "Molecular Mass": "180.20",
        "Boiling Point": "177-179 °C @ Press: 12 Torr"
    }
}