{
    "cas_no": "3401-36-3",
    "key_name": "<span class=\"text-smallcaps\">L</span>-Alanine, <em>N</em>-[(phenylmethoxy)carbonyl]-, 2,5-dioxo-1-pyrrolidinyl ester",
    "cn_name": null,
    "alternate_name": "<span class=\"text-smallcaps\">L</span>-Alanine, <em>N</em>-[(phenylmethoxy)carbonyl]-, 2,5-dioxo-1-pyrrolidinyl ester;Succinimide, <em>N</em>-[(<em>N</em>-carboxy-<span class=\"text-smallcaps\">L</span>-alanyl)oxy]-, benzyl ester;Carbamic acid, [2-[(2,5-dioxo-1-pyrrolidinyl)oxy]-1-methyl-2-oxoethyl]-, phenylmethyl ester, (<em>S</em>)-;Carbamic acid, [(1<em>S</em>)-2-[(2,5-dioxo-1-pyrrolidinyl)oxy]-1-methyl-2-oxoethyl]-, phenylmethyl ester;Alanine, <em>N</em>-carboxy-, <em>N</em>-benzyl ester, succinimido deriv., <span class=\"text-smallcaps\">L</span>-;<em>N</em>-Benzyloxycarbonyl-<span class=\"text-smallcaps\">L</span>-alanine <em>N</em>-hydroxysuccinimide ester;Benzyloxycarbonyl-<span class=\"text-smallcaps\">L</span>-alanine ester with <em>N</em>-hydroxysuccinimide;Carbobenzoxyalanine, ester with <em>N</em>-hydroxysuccinimide;Cbz-Ala-OSu;(2,5-Dioxopyrrolidin-1-yl) (2S)-2-(phenylmethoxycarbonylamino)propanoate",
    "duplicated_cas_no": "42935-55-7;51537-28-1;68483-34-1;1640985-82-5",
    "SMILES": "O(C([C@@H](NC(OCC1=CC=CC=C1)=O)C)=O)N2C(=O)CCC2=O",
    "meta_data": {
        "InChI": "InChI=1S/C15H16N2O6/c1-10(14(20)23-17-12(18)7-8-13(17)19)16-15(21)22-9-11-5-3-2-4-6-11/h2-6,10H,7-9H2,1H3,(H,16,21)/t10-/m0/s1",
        "InChIKey": null,
        "Canonical SMILES": "O=C(OCC=1C=CC=CC1)NC(C(=O)ON2C(=O)CCC2=O)C",
        "Molecular Formula": "C<sub>15</sub>H<sub>16</sub>N<sub>2</sub>O<sub>6</sub>",
        "Molecular Mass": "320.30",
        "Melting Point": "115 °C"
    }
}