{
    "cas_no": "100-13-0",
    "key_name": "4-Nitrostyrene",
    "cn_name": "4-硝基苯乙烯;",
    "alternate_name": "Benzene, 1-ethenyl-4-nitro-;Styrene, <em>p</em>-nitro-;1-Ethenyl-4-nitrobenzene;<em>p</em>-Nitrostyrene;4-Nitrostyrene;1-Nitro-4-vinylbenzene;(4-Nitrophenyl)ethene;4-Vinylnitrobenzene;4-Nitrophenylethylene",
    "duplicated_cas_no": "",
    "SMILES": "N(=O)(=O)C1=CC=C(C=C)C=C1",
    "meta_data": {
        "InChI": "InChI=1S/C8H7NO2/c1-2-7-3-5-8(6-4-7)9(10)11/h2-6H,1H2",
        "InChIKey": null,
        "Canonical SMILES": "O=N(=O)C1=CC=C(C=C)C=C1",
        "Molecular Formula": "C<sub>8</sub>H<sub>7</sub>NO<sub>2</sub>",
        "Molecular Mass": "149.15",
        "Boiling Point": "87 °C @ Press: 2 Torr",
        "Melting Point": "18-19 °C"
    }
}