{
    "cas_no": "877-66-7",
    "key_name": "<em>p</em>-(Methylsulfonyl)phenylhydrazine",
    "cn_name": "4-甲磺酰基苯肼盐酸盐;对甲磺酰基苯肼盐酸盐;",
    "alternate_name": "Hydrazine, [4-(methylsulfonyl)phenyl]-;Hydrazine, [<em>p</em>-(methylsulfonyl)phenyl]-;[4-(Methylsulfonyl)phenyl]hydrazine;4-Methylsulfonylphenylhydrazine;<em>p</em>-(Methylsulfonyl)phenylhydrazine;(4-Methanesulfonylphenyl)hydrazine",
    "duplicated_cas_no": "",
    "SMILES": "S(C)(=O)(=O)C1=CC=C(NN)C=C1",
    "meta_data": {
        "InChI": "InChI=1S/C7H10N2O2S/c1-12(10,11)7-4-2-6(9-8)3-5-7/h2-5,9H,8H2,1H3",
        "InChIKey": null,
        "Canonical SMILES": "O=S(=O)(C1=CC=C(C=C1)NN)C",
        "Molecular Formula": "C<sub>7</sub>H<sub>10</sub>N<sub>2</sub>O<sub>2</sub>S",
        "Molecular Mass": "186.23",
        "Melting Point": "135-136 °C"
    }
}