{
    "cas_no": "328947-93-9",
    "key_name": "LGD 2226",
    "cn_name": null,
    "alternate_name": "2(1<em>H</em>)-Quinolinone, 6-[bis(2,2,2-trifluoroethyl)amino]-4-(trifluoromethyl)-;6-[Bis(2,2,2-trifluoroethyl)amino]-4-(trifluoromethyl)-2(1<em>H</em>)-quinolinone;LGD 2226",
    "duplicated_cas_no": "432493-87-3",
    "SMILES": "C(F)(F)(F)C=1C=2C(=CC=C(N(CC(F)(F)F)CC(F)(F)F)C2)NC(=O)C1",
    "meta_data": {
        "InChI": "InChI=1S/C14H9F9N2O/c15-12(16,17)5-25(6-13(18,19)20)7-1-2-10-8(3-7)9(14(21,22)23)4-11(26)24-10/h1-4H,5-6H2,(H,24,26)",
        "InChIKey": null,
        "Canonical SMILES": "O=C1C=C(C=2C=C(C=CC2N1)N(CC(F)(F)F)CC(F)(F)F)C(F)(F)F",
        "Molecular Formula": "C<sub>14</sub>H<sub>9</sub>F<sub>9</sub>N<sub>2</sub>O",
        "Molecular Mass": "392.22",
        "Melting Point": "188-190 °C"
    }
}