{
    "cas_no": "115344-47-3",
    "key_name": "Siguazodan",
    "cn_name": null,
    "alternate_name": "Guanidine, <em>N</em>-cyano-<em>N</em>′-methyl-<em>N</em>′′-[4-(1,4,5,6-tetrahydro-4-methyl-6-oxo-3-pyridazinyl)phenyl]-;Guanidine, <em>N</em>-cyano-<em>N</em>′-methyl-<em>N</em>′′-[4-(1,4,5,6-tetrahydro-4-methyl-6-oxo-3-pyridazinyl)phenyl]-, (±)-;<em>N</em>-Cyano-<em>N</em>′-methyl-<em>N</em>′′-[4-(1,4,5,6-tetrahydro-4-methyl-6-oxo-3-pyridazinyl)phenyl]guanidine;SKF 94836;Siguazodan",
    "duplicated_cas_no": "99591-83-0",
    "SMILES": "CC1C(C2=CC=C(N=C(NC#N)NC)C=C2)=NNC(=O)C1",
    "meta_data": {
        "InChI": "InChI=1S/C14H16N6O/c1-9-7-12(21)19-20-13(9)10-3-5-11(6-4-10)18-14(16-2)17-8-15/h3-6,9H,7H2,1-2H3,(H,19,21)(H2,16,17,18)",
        "InChIKey": null,
        "Canonical SMILES": "N#CNC(=NC=1C=CC(=CC1)C2=NNC(=O)CC2C)NC",
        "Molecular Formula": "C<sub>14</sub>H<sub>16</sub>N<sub>6</sub>O",
        "Molecular Mass": "284.32",
        "Melting Point": "267-270 °C"
    }
}