{
    "cas_no": "15266-38-3",
    "key_name": "Evocarpine",
    "cn_name": null,
    "alternate_name": "4(1<em>H</em>)-Quinolinone, 1-methyl-2-(8<em>Z</em>)-8-tridecen-1-yl-;4(1<em>H</em>)-Quinolone, 1-methyl-2-(8-tridecenyl)-;4(1<em>H</em>)-Quinolinone, 1-methyl-2-(8-tridecenyl)-, (<em>Z</em>)-;4(1<em>H</em>)-Quinolinone, 1-methyl-2-(8<em>Z</em>)-8-tridecenyl-;1-Methyl-2-(8<em>Z</em>)-8-tridecen-1-yl-4(1<em>H</em>)-quinolinone;Evocarpine;Euocarpine",
    "duplicated_cas_no": "11036-30-9",
    "SMILES": "CN1C=2C(C(=O)C=C1CCCCCCC/C=C\\CCCC)=CC=CC2",
    "meta_data": {
        "InChI": "InChI=1S/C23H33NO/c1-3-4-5-6-7-8-9-10-11-12-13-16-20-19-23(25)21-17-14-15-18-22(21)24(20)2/h6-7,14-15,17-19H,3-5,8-13,16H2,1-2H3/b7-6-",
        "InChIKey": null,
        "Canonical SMILES": "O=C1C=C(N(C=2C=CC=CC12)C)CCCCCCCC=CCCCC",
        "Molecular Formula": "C<sub>23</sub>H<sub>33</sub>NO",
        "Molecular Mass": "339.51",
        "Melting Point": "34-38 °C"
    }
}