{
    "cas_no": "6635-91-2",
    "key_name": "6-Methoxy-4-methyl-3-pyridinamine",
    "cn_name": "2-甲氧基-4-甲基-5-氨基吡啶;",
    "alternate_name": "3-Pyridinamine, 6-methoxy-4-methyl-;4-Picoline, 5-amino-2-methoxy-;6-Methoxy-4-methyl-3-pyridinamine;5-Amino-2-methoxy-4-methylpyridine;NSC 52458;6-Methoxy-4-methylpyridin-3-amine",
    "duplicated_cas_no": "",
    "SMILES": "O(C)C1=CC(C)=C(N)C=N1",
    "meta_data": {
        "InChI": "InChI=1S/C7H10N2O/c1-5-3-7(10-2)9-4-6(5)8/h3-4H,8H2,1-2H3",
        "InChIKey": null,
        "Canonical SMILES": "N=1C=C(N)C(=CC1OC)C",
        "Molecular Formula": "C<sub>7</sub>H<sub>10</sub>N<sub>2</sub>O",
        "Molecular Mass": "138.17",
        "Melting Point": "97 °C"
    }
}