{
    "cas_no": "159991-23-8",
    "key_name": "(3<em>R</em>)-3-[[(1,1-Dimethylethoxy)carbonyl]amino]butanoic acid",
    "cn_name": null,
    "alternate_name": "Butanoic acid, 3-[[(1,1-dimethylethoxy)carbonyl]amino]-, (3<em>R</em>)-;Butanoic acid, 3-[[(1,1-dimethylethoxy)carbonyl]amino]-, (<em>R</em>)-;(3<em>R</em>)-3-[[(1,1-Dimethylethoxy)carbonyl]amino]butanoic acid;(R)-3-[[(1,1-Dimethylethoxy)carbonyl]amino]butanoic acid;(<em>R</em>)-3-(<em>tert</em>-Butoxycarbonylamino)butanoic acid;(3R)-3-[(<em>tert</em>-Butoxycarbonyl)amino]butanoic acid;(R)-3-<em>tert</em>-Butoxycarbonylamino-butyric acid;(R)-3-(<em>tert</em>-Butoxycarbonylamino)butanoic acid;<em>N</em>-Boc-(<em>R</em>)-3-aminobutanoic acid;(3R)-3-[(2-Methylpropan-2-yl)oxycarbonylamino]butanoic acid",
    "duplicated_cas_no": "",
    "SMILES": "C(N[C@@H](CC(O)=O)C)(OC(C)(C)C)=O",
    "meta_data": {
        "InChI": "InChI=1S/C9H17NO4/c1-6(5-7(11)12)10-8(13)14-9(2,3)4/h6H,5H2,1-4H3,(H,10,13)(H,11,12)/t6-/m1/s1",
        "InChIKey": null,
        "Canonical SMILES": "O=C(OC(C)(C)C)NC(C)CC(=O)O",
        "Molecular Formula": "C<sub>9</sub>H<sub>17</sub>NO<sub>4</sub>",
        "Molecular Mass": "203.24",
        "Melting Point": "104-107 °C"
    }
}