{
    "cas_no": "19727-83-4",
    "key_name": "6-Nitroindoline",
    "cn_name": "6-硝基吲哚啉;",
    "alternate_name": "1<em>H</em>-Indole, 2,3-dihydro-6-nitro-;Indoline, 6-nitro-;2,3-Dihydro-6-nitro-1<em>H</em>-indole;6-Nitroindoline;6-Nitro-2,3-dihydro-1<em>H</em>-indole;NSC 80658",
    "duplicated_cas_no": "",
    "SMILES": "N(=O)(=O)C=1C=C2C(=CC1)CCN2",
    "meta_data": {
        "InChI": "InChI=1S/C8H8N2O2/c11-10(12)7-2-1-6-3-4-9-8(6)5-7/h1-2,5,9H,3-4H2",
        "InChIKey": null,
        "Canonical SMILES": "O=N(=O)C1=CC=C2C(=C1)NCC2",
        "Molecular Formula": "C<sub>8</sub>H<sub>8</sub>N<sub>2</sub>O<sub>2</sub>",
        "Molecular Mass": "164.16",
        "Melting Point": "67-69 °C"
    }
}