{
    "cas_no": "2169-44-0",
    "key_name": "<em>N</em>-Methyllaurotetanine",
    "cn_name": null,
    "alternate_name": "4<em>H</em>-Dibenzo[<em>de</em>,<em>g</em>]quinolin-9-ol, 5,6,6a,7-tetrahydro-1,2,10-trimethoxy-6-methyl-, (6a<em>S</em>)-;6aα-Aporphin-9-ol, 1,2,10-trimethoxy-;4<em>H</em>-Dibenzo[<em>de</em>,<em>g</em>]quinolin-9-ol, 5,6,6a,7-tetrahydro-1,2,10-trimethoxy-6-methyl-, (<em>S</em>)-;Rogersine;Laurotetanine, <em>N</em>-methyl-;(6a<em>S</em>)-5,6,6a,7-Tetrahydro-1,2,10-trimethoxy-6-methyl-4<em>H</em>-dibenzo[<em>de</em>,<em>g</em>]quinolin-9-ol;Lauroscholtzine;<em>N</em>-Methyllaurotetanine;(+)-<em>N</em>-Methyllaurotetanine;2-<em>O</em>-Methylboldine;NSC 247506;NSC 247564;Boldine 2-methyl ether",
    "duplicated_cas_no": "29227-99-4",
    "SMILES": "O(C)C1=C2C=3[C@](CC=4C2=CC(OC)=C(O)C4)(N(C)CCC3C=C1OC)[H]",
    "meta_data": {
        "InChI": "InChI=1S/C20H23NO4/c1-21-6-5-11-9-17(24-3)20(25-4)19-13-10-16(23-2)15(22)8-12(13)7-14(21)18(11)19/h8-10,14,22H,5-7H2,1-4H3/t14-/m0/s1",
        "InChIKey": null,
        "Canonical SMILES": "OC1=CC2=C(C=C1OC)C3=C(OC)C(OC)=CC4=C3C(N(C)CC4)C2",
        "Molecular Formula": "C<sub>20</sub>H<sub>23</sub>NO<sub>4</sub>",
        "Molecular Mass": "341.40",
        "Melting Point": "158-159 °C"
    }
}