{
    "cas_no": "638-41-5",
    "key_name": "Pentyl chloroformate",
    "cn_name": "氯甲酸正戊酯;",
    "alternate_name": "Carbonochloridic acid, pentyl ester;Formic acid, chloro-, pentyl ester;Pentyl chloroformate;Chloroformic acid amyl ester;Amyl chloroformate;<em>n</em>-Pentyl chloroformate;Pentyloxycarbonyl chloride;NSC 7913;Chloroformic acid pentyl ester",
    "duplicated_cas_no": "",
    "SMILES": "C(OC(Cl)=O)CCCC",
    "meta_data": {
        "InChI": "InChI=1S/C6H11ClO2/c1-2-3-4-5-9-6(7)8/h2-5H2,1H3",
        "InChIKey": null,
        "Canonical SMILES": "O=C(Cl)OCCCCC",
        "Molecular Formula": "C<sub>6</sub>H<sub>11</sub>ClO<sub>2</sub>",
        "Molecular Mass": "150.60",
        "Boiling Point": "68-70 °C @ Press: 25-28 Torr"
    }
}