{
    "cas_no": "28523-86-6",
    "key_name": "Sevoflurane",
    "cn_name": "七氟烷;七氟醚;氟甲基-1,1,1,3,3,3-六氟异丙基醚;",
    "alternate_name": "Propane, 1,1,1,3,3,3-hexafluoro-2-(fluoromethoxy)-;Ether, fluoromethyl 2,2,2-trifluoro-1-(trifluoromethyl)ethyl;1,1,1,3,3,3-Hexafluoro-2-(fluoromethoxy)propane;Sevoflurane;Fluoromethyl 2,2,2-trifluoro-1-(trifluoromethyl)ethyl ether;Fluoromethyl 1,1,1,3,3,3-hexafluoro-2-propyl ether;R-E 347;347mmzEβγ;Sevofluran;Sevofrane;MR 6S4;Ultane;Sevorane;Sevoflo;Sevocris;Fluoromethyl 1,1,1,3,3,3-hexafluoroisopropyl ether;Sevohale",
    "duplicated_cas_no": "",
    "SMILES": "C(C(F)(F)F)(C(F)(F)F)OCF",
    "meta_data": {
        "InChI": "InChI=1S/C4H3F7O/c5-1-12-2(3(6,7)8)4(9,10)11/h2H,1H2",
        "InChIKey": null,
        "Canonical SMILES": "FCOC(C(F)(F)F)C(F)(F)F",
        "Molecular Formula": "C<sub>4</sub>H<sub>3</sub>F<sub>7</sub>O",
        "Molecular Mass": "200.05",
        "Boiling Point": "58.5 °C",
        "Melting Point": "&lt;25 °C",
        "Density": "7.60 mol/L (liquid) @ Temp: 20 °C"
    }
}