{
    "cas_no": "2835-78-1",
    "key_name": "3-Aminobenzophenone",
    "cn_name": "3-氨基苯甲酮;",
    "alternate_name": "Methanone, (3-aminophenyl)phenyl-;Benzophenone, 3-amino-;(3-Aminophenyl)phenylmethanone;<em>m</em>-Aminobenzophenone;3-Benzoylaniline;3-Aminobenzophenone;NSC 86511;3-Phenylcarbonylaniline",
    "duplicated_cas_no": "",
    "SMILES": "C(=O)(C1=CC(N)=CC=C1)C2=CC=CC=C2",
    "meta_data": {
        "InChI": "InChI=1S/C13H11NO/c14-12-8-4-7-11(9-12)13(15)10-5-2-1-3-6-10/h1-9H,14H2",
        "InChIKey": null,
        "Canonical SMILES": "O=C(C=1C=CC=CC1)C=2C=CC=C(N)C2",
        "Molecular Formula": "C<sub>13</sub>H<sub>11</sub>NO",
        "Molecular Mass": "197.23",
        "Melting Point": "86 °C"
    }
}