{
    "cas_no": "51661-19-9",
    "key_name": "1,1′-[1,2-Ethanediylbis(oxy)]bis[2-nitrobenzene]",
    "cn_name": "2,2\"-二硝基二苯氧基乙烷;1,2-双(2-硝基苯氧基)乙烷;",
    "alternate_name": "Benzene, 1,1′-[1,2-ethanediylbis(oxy)]bis[2-nitro-;Ethane, 1,2-bis(<em>o</em>-nitrophenoxy)-;1,1′-[1,2-Ethanediylbis(oxy)]bis[2-nitrobenzene];Ethylene glycol bis(2-nitrophenyl) ether;1,2-Bis(2-nitrophenoxy)ethane;1,2-Bis(<em>o</em>-nitrophenoxy)ethane;1-Nitro-2-[2-(2-nitrophenoxy)ethoxy]benzene",
    "duplicated_cas_no": "",
    "SMILES": "O(CCOC1=C(N(=O)=O)C=CC=C1)C2=C(N(=O)=O)C=CC=C2",
    "meta_data": {
        "InChI": "InChI=1S/C14H12N2O6/c17-15(18)11-5-1-3-7-13(11)21-9-10-22-14-8-4-2-6-12(14)16(19)20/h1-8H,9-10H2",
        "InChIKey": null,
        "Canonical SMILES": "O=N(=O)C=1C=CC=CC1OCCOC=2C=CC=CC2N(=O)=O",
        "Molecular Formula": "C<sub>14</sub>H<sub>12</sub>N<sub>2</sub>O<sub>6</sub>",
        "Molecular Mass": "304.25",
        "Melting Point": "167-168 °C"
    }
}