{
    "cas_no": "131-70-4",
    "key_name": "Monobutyl phthalate",
    "cn_name": null,
    "alternate_name": "1,2-Benzenedicarboxylic acid, 1-butyl ester;Phthalic acid, monobutyl ester;1,2-Benzenedicarboxylic acid, monobutyl ester;Phthalic acid, butyl ester;Monobutyl phthalate;Butyl hydrogen phthalate;Mono-<em>n</em>-butyl phthalate;NSC 8479;2-Butoxycarbonylbenzoic acid;2-(Butoxycarbonyl)benzoic acid",
    "duplicated_cas_no": "",
    "SMILES": "C(OCCCC)(=O)C1=C(C(O)=O)C=CC=C1",
    "meta_data": {
        "InChI": "InChI=1S/C12H14O4/c1-2-3-8-16-12(15)10-7-5-4-6-9(10)11(13)14/h4-7H,2-3,8H2,1H3,(H,13,14)",
        "InChIKey": null,
        "Canonical SMILES": "O=C(O)C=1C=CC=CC1C(=O)OCCCC",
        "Molecular Formula": "C<sub>12</sub>H<sub>14</sub>O<sub>4</sub>",
        "Molecular Mass": "222.24",
        "Melting Point": "73-74 °C"
    }
}