{
    "cas_no": "7784-18-1",
    "key_name": "Aluminum fluoride",
    "cn_name": "氟化铝;三氟化铝;",
    "alternate_name": "Aluminum fluoride (AlF<sub>3</sub>);Aluminum fluoride;Aluminum trifluoride;Aluminum trifluoride (AlF<sub>3</sub>)",
    "duplicated_cas_no": "856859-79-5;1202643-05-7;1328946-66-2;2816047-54-6",
    "SMILES": "[Al](F)(F)F",
    "meta_data": {
        "InChI": "InChI=1S/Al.3FH/h;3*1H/q+3;;;/p-3",
        "InChIKey": null,
        "Canonical SMILES": "F[Al](F)F",
        "Molecular Formula": "AlF<sub>3</sub>",
        "Molecular Mass": "",
        "Boiling Point": "1260 °C",
        "Melting Point": "1291 °C",
        "Density": "3.10 g/cm³"
    }
}