{
    "cas_no": "816-66-0",
    "key_name": "4-Methyl-2-oxovaleric acid",
    "cn_name": "4-甲基-2-氧代戊酸;",
    "alternate_name": "Pentanoic acid, 4-methyl-2-oxo-;Valeric acid, 4-methyl-2-oxo-;4-Methyl-2-oxopentanoic acid;α-Ketoisocaproic acid;α-Oxoisocaproic acid;2-Oxoisocaproic acid;2-Oxoleucine;2-Oxo-4-methylvaleric acid;2-Ketoisocaproic acid;2-Oxo-4-methylpentanoic acid;4-Methyl-2-oxovaleric acid;4-Methyl-2-oxopentanoate;Ketoleucine;α-Ketoisocapronic acid;2-<em>keto</em>-4-Methylvaleric acid;Isobutylglyoxylic acid;Ketoisocaproic acid",
    "duplicated_cas_no": "",
    "SMILES": "C(CC(C)C)(C(O)=O)=O",
    "meta_data": {
        "InChI": "InChI=1S/C6H10O3/c1-4(2)3-5(7)6(8)9/h4H,3H2,1-2H3,(H,8,9)",
        "InChIKey": null,
        "Canonical SMILES": "O=C(O)C(=O)CC(C)C",
        "Molecular Formula": "C<sub>6</sub>H<sub>10</sub>O<sub>3</sub>",
        "Molecular Mass": "130.14",
        "Boiling Point": "105-107 °C @ Press: 22 Torr",
        "Melting Point": "6-9 °C",
        "Density": "1.0312 g/cm³ @ Temp: 20 °C"
    }
}