{
    "cas_no": "120011-70-3",
    "key_name": "Donepezil hydrochloride",
    "cn_name": "盐酸多奈哌齐;2,3-二氢-5,6-二甲氧基-2-{[(1-苯甲基)-4-哌啶基]甲基}-1H-茚-1-酮盐酸盐;",
    "alternate_name": "1<em>H</em>-Inden-1-one, 2,3-dihydro-5,6-dimethoxy-2-[[1-(phenylmethyl)-4-piperidinyl]methyl]-, hydrochloride (1:1);1<em>H</em>-Inden-1-one, 2,3-dihydro-5,6-dimethoxy-2-[[1-(phenylmethyl)-4-piperidinyl]methyl]-, hydrochloride;E 2020;E 2020 (pharmaceutical);BNAG;Donepezil hydrochloride;Aricept;Aricept D;Dopezil;Dorent;Donep;1-Benzyl-4-[(5,6-dimethoxy-1-indanon-2-yl)methyl]piperidine hydrochloride;Aricept ODT",
    "duplicated_cas_no": "142057-77-0",
    "SMILES": "O=C1C=2C(=CC(OC)=C(OC)C2)CC1CC3CCN(CC4=CC=CC=C4)CC3.Cl",
    "meta_data": {
        "InChI": "InChI=1S/C24H29NO3.ClH/c1-27-22-14-19-13-20(24(26)21(19)15-23(22)28-2)12-17-8-10-25(11-9-17)16-18-6-4-3-5-7-18;/h3-7,14-15,17,20H,8-13,16H2,1-2H3;1H",
        "InChIKey": null,
        "Canonical SMILES": "Cl.O=C1C2=CC(OC)=C(OC)C=C2CC1CC3CCN(CC=4C=CC=CC4)CC3",
        "Molecular Formula": "C<sub>24</sub>H<sub>29</sub>NO<sub>3</sub>.ClH",
        "Molecular Mass": "",
        "Melting Point": "211-212 °C"
    }
}