{
    "cas_no": "1449-05-4",
    "key_name": "18α-Glycyrrhetinic acid",
    "cn_name": "甘草次酸;",
    "alternate_name": "Olean-12-en-29-oic acid, 3-hydroxy-11-oxo-, (3β,18α,20β)-;18α-Olean-12-en-30-oic acid, 3β-hydroxy-11-oxo-;(3β,18α,20β)-3-Hydroxy-11-oxoolean-12-en-29-oic acid;18α-Glycyrrhetic acid;18α-Glycyrrhetinic acid;18-Isoglycyrrhetinic acid;β-Glycyrrhetinic acid;STX 353;NSC 35350",
    "duplicated_cas_no": "",
    "SMILES": "C[C@]12[C@@]([C@]3(C)[C@@](CC1)(C(C)(C)[C@@H](O)CC3)[H])(C(=O)C=C4[C@@]2(C)CC[C@]5(C)[C@@]4(C[C@](C(O)=O)(C)CC5)[H])[H]",
    "meta_data": {
        "InChI": "InChI=1S/C30H46O4/c1-25(2)21-8-11-30(7)23(28(21,5)10-9-22(25)32)20(31)16-18-19-17-27(4,24(33)34)13-12-26(19,3)14-15-29(18,30)6/h16,19,21-23,32H,8-15,17H2,1-7H3,(H,33,34)/t19-,21+,22+,23-,26-,27+,28+,29-,30-/m1/s1",
        "InChIKey": null,
        "Canonical SMILES": "O=C(O)C1(C)CCC2(C)CCC3(C(=CC(=O)C4C5(C)CCC(O)C(C)(C)C5CCC43C)C2C1)C",
        "Molecular Formula": "C<sub>30</sub>H<sub>46</sub>O<sub>4</sub>",
        "Molecular Mass": "470.68",
        "Melting Point": "296 °C"
    }
}