{
    "cas_no": "925-93-9",
    "key_name": "Ethanol-<em>d</em>",
    "cn_name": "乙醇-d1;氘代乙醇-d1;",
    "alternate_name": "Ethanol-<em>d</em>;Ethyl alcohol-<em>d</em>;Ethanol (C<sub>2</sub>H<sub>5</sub>OD);Ethanol-d<sub>1</sub>;Ethanol-<em>d</em><sub>1</sub>",
    "duplicated_cas_no": "",
    "SMILES": "C(C)O[2H]",
    "meta_data": {
        "InChI": "InChI=1S/C2H6O/c1-2-3/h3H,2H2,1H3/i3D",
        "InChIKey": null,
        "Canonical SMILES": "OCC",
        "Molecular Formula": "C<sub>2</sub>H<sub>5</sub>DO",
        "Molecular Mass": "",
        "Boiling Point": "78.8 °C",
        "Density": "0.801 g/cm³ @ Temp: 25 °C"
    }
}