{
    "cas_no": "6304-24-1",
    "key_name": "2-Isobutylpyridine",
    "cn_name": "2-异丁基吡啶;",
    "alternate_name": "Pyridine, 2-(2-methylpropyl)-;Pyridine, 2-isobutyl-;2-(2-Methylpropyl)pyridine;2-Isobutylpyridine;NSC 42623",
    "duplicated_cas_no": "",
    "SMILES": "C(C(C)C)C1=CC=CC=N1",
    "meta_data": {
        "InChI": "InChI=1S/C9H13N/c1-8(2)7-9-5-3-4-6-10-9/h3-6,8H,7H2,1-2H3",
        "InChIKey": null,
        "Canonical SMILES": "N=1C=CC=CC1CC(C)C",
        "Molecular Formula": "C<sub>9</sub>H<sub>13</sub>N",
        "Molecular Mass": "135.21",
        "Boiling Point": "180-185 °C",
        "Density": "0.8973 g/cm³ @ Temp: 20 °C"
    }
}