{
    "cas_no": "4075-58-5",
    "key_name": "Ethyl 2-thienylglyoxylate",
    "cn_name": "2-噻酚乙酯乙酸乙酯;",
    "alternate_name": "2-Thiopheneacetic acid, α-oxo-, ethyl ester;2-Thiopheneglyoxylic acid, ethyl ester;Ethyl 2-thienylglyoxylate;Ethyl 2-oxo-2-(2′-thienyl)acetate;Ethyl 2-thiopheneglyoxylate;Ethyl α-oxo-2-thiopheneacetate;Ethyl 2-oxo-2-(2-thienyl)ethanoate;Ethyl 2-oxo-2-thienylacetate;Ethyl oxo(2-thienyl)acetate;2-Oxo-2-(thiophen-2-yl)acetic acid ethyl ester;Ethyl 2-oxo-2-(2-thienyl)acetate;Ethyl 2-oxo-2-(thiophen-2-yl)acetate",
    "duplicated_cas_no": "",
    "SMILES": "C(C(OCC)=O)(=O)C1=CC=CS1",
    "meta_data": {
        "InChI": "InChI=1S/C8H8O3S/c1-2-11-8(10)7(9)6-4-3-5-12-6/h3-5H,2H2,1H3",
        "InChIKey": null,
        "Canonical SMILES": "O=C(OCC)C(=O)C=1SC=CC1",
        "Molecular Formula": "C<sub>8</sub>H<sub>8</sub>O<sub>3</sub>S",
        "Molecular Mass": "184.21",
        "Boiling Point": "115-120 °C @ Press: 3 Torr",
        "Melting Point": "81-83 °C"
    }
}