{
    "cas_no": "120570-77-6",
    "key_name": "Diethyleneglycol diformate",
    "cn_name": "二乙二醇二甲酸酯;二甘醇二甲酸酯;",
    "alternate_name": "Ethanol, 2,2′-oxybis-, 1,1′-diformate;Ethanol, 2,2′-oxybis-, diformate;Diethyleneglycol diformate;NSC 404481;2-(2-Formyloxyethoxy)ethyl formate",
    "duplicated_cas_no": "",
    "SMILES": "O(CCOC=O)CCOC=O",
    "meta_data": {
        "InChI": "InChI=1S/C6H10O5/c7-5-10-3-1-9-2-4-11-6-8/h5-6H,1-4H2",
        "InChIKey": null,
        "Canonical SMILES": "O=COCCOCCOC=O",
        "Molecular Formula": "C<sub>6</sub>H<sub>10</sub>O<sub>5</sub>",
        "Molecular Mass": "162.14",
        "Boiling Point": "209-210 °C @ Press: 760 Torr",
        "Density": "1.1713 g/cm³ @ Temp: 20 °C"
    }
}