{
    "cas_no": "6232-88-8",
    "key_name": "4-(Bromomethyl)benzoic acid",
    "cn_name": "对溴甲基苯甲酸;",
    "alternate_name": "Benzoic acid, 4-(bromomethyl)-;<em>p</em>-Toluic acid, α-bromo-;4-(Bromomethyl)benzoic acid;<em>p</em>-(Bromomethyl)benzoic acid;α-Bromo-<em>p</em>-toluic acid;<em>p</em>-Carboxybenzyl bromide;4-Carboxybenzyl bromide;NSC 56891",
    "duplicated_cas_no": "2764754-16-5",
    "SMILES": "C(O)(=O)C1=CC=C(CBr)C=C1",
    "meta_data": {
        "InChI": "InChI=1S/C8H7BrO2/c9-5-6-1-3-7(4-2-6)8(10)11/h1-4H,5H2,(H,10,11)",
        "InChIKey": null,
        "Canonical SMILES": "O=C(O)C1=CC=C(C=C1)CBr",
        "Molecular Formula": "C<sub>8</sub>H<sub>7</sub>BrO<sub>2</sub>",
        "Molecular Mass": "215.04",
        "Melting Point": "228-232 °C"
    }
}