{
    "cas_no": "6436-90-4",
    "key_name": "<em>N</em>-Benzylglycine ethyl ester",
    "cn_name": "N-苄基甘氨酸乙酯;",
    "alternate_name": "Glycine, <em>N</em>-(phenylmethyl)-, ethyl ester;Glycine, <em>N</em>-benzyl-, ethyl ester;Ethyl <em>N</em>-benzylglycinate;<em>N</em>-Benzylglycine ethyl ester;<em>N</em>-(Ethoxycarbonylmethyl)-<em>N</em>-benzylamine;<em>N</em>-(Phenylmethyl)glycine ethyl ester;<em>N</em>-Benzyl-<em>O</em>-ethylglycinate;Ethyl <em>N</em>-benzylglycine;(Benzylamino)acetic acid ethyl ester;Ethyl benzylaminoacetate;Ethyl 2-(benzylamino)acetate",
    "duplicated_cas_no": "",
    "SMILES": "C(NCC(OCC)=O)C1=CC=CC=C1",
    "meta_data": {
        "InChI": "InChI=1S/C11H15NO2/c1-2-14-11(13)9-12-8-10-6-4-3-5-7-10/h3-7,12H,2,8-9H2,1H3",
        "InChIKey": null,
        "Canonical SMILES": "O=C(OCC)CNCC=1C=CC=CC1",
        "Molecular Formula": "C<sub>11</sub>H<sub>15</sub>NO<sub>2</sub>",
        "Molecular Mass": "193.24",
        "Boiling Point": "153-154 °C @ Press: 13 Torr"
    }
}