{
    "cas_no": "50-29-3",
    "key_name": "DDT",
    "cn_name": "滴滴涕;2,2-双(对氯苯基)-1,1,1-三氯乙烷;滴滴涕粉剂;1,1-双(4-氯苯基)2,2,2-三氯乙烷;",
    "alternate_name": "Benzene, 1,1′-(2,2,2-trichloroethylidene)bis[4-chloro-;Ethane, 1,1,1-trichloro-2,2-bis(<em>p</em>-chlorophenyl)-;1,1′-(2,2,2-Trichloroethylidene)bis[4-chlorobenzene];Arkotine;α,α-Bis(<em>p</em>-chlorophenyl)-β,β,β-trichlorethane;2,2-Bis(<em>p</em>-chlorophenyl)-1,1,1-trichloroethane;Chlorophenothane;DDT;<em>p</em>,<em>p</em>′-DDT;4,4′-Dichlorodiphenyltrichloroethane;Dicophane;<em>p</em>,<em>p</em>′-Dichlorodiphenyltrichloroethane;Estonate;Gesafid;Gesarol;Neocid;Pentachlorin;Trichlorobis(4′-chlorophenyl)ethane;1,1,1-Trichloro-2,2-bis(<em>p</em>-chlorophenyl)ethane;Zerdane;Agritan;Azotox M 33;Citox;4,4′-DDT;Dykol;Clofenotan;ENT-1506;Ethane, 1,1,1-trichloro-2,2-bis(4-chlorophenyl)-;1,1-Bis(<em>p</em>-chlorophenyl)-2,2,2-trichloroethane;Detoxan;Clofenotane;Aavero-extra;Chlorphenothan;Deoval;Mutoxan;PEB<sub>1</sub>;Penticidum;Dodat;Bosan supra;Bovidermol;Ivoran;Chlorphenotoxum;Parachlorocidum;Dibovin;Neocidol (solid);Tafidex;2,2,2-Trichloro-1,1-bis(4-chlorophenyl)ethane;<em>p</em>,<em>p</em>′-Dichlorodiphenyltrichloromethylmethane;Neocidol;1,1-Bis(4-chlorophenyl)-2,2,2-trichloroethane;Hildit;Benzochloryl;1,1,1-Trichloro-2,2-di(<em>p</em>-chlorophenyl)ethane;Detox (pesticide);Gesarex;Gesapon;Guesapon;Dicophaner;NSC 8939;<em>o</em>,<em>p</em>′-1,1,1-Trichloro-2-2,2-bis(<em>p</em>-chlorophenyl)ethane;FWJ;Dichlorodiphenyltrichloroethane;1,1,1-Trichloro-2-2,2-bis(<em>p</em>-chlorophenyl)ethane;2,2-Bis(4-chlorophenyl)-1,1,1-trichloroethane;Detox;Para-Para DDT",
    "duplicated_cas_no": "1081843-15-3",
    "SMILES": "C(C(Cl)(Cl)Cl)(C1=CC=C(Cl)C=C1)C2=CC=C(Cl)C=C2",
    "meta_data": {
        "InChI": "InChI=1S/C14H9Cl5/c15-11-5-1-9(2-6-11)13(14(17,18)19)10-3-7-12(16)8-4-10/h1-8,13H",
        "InChIKey": null,
        "Canonical SMILES": "ClC1=CC=C(C=C1)C(C2=CC=C(Cl)C=C2)C(Cl)(Cl)Cl",
        "Molecular Formula": "C<sub>14</sub>H<sub>9</sub>Cl<sub>5</sub>",
        "Molecular Mass": "354.49",
        "Boiling Point": "260 °C",
        "Melting Point": "108.5 °C",
        "Density": "0.98-0.99 g/cm³"
    }
}