{
    "cas_no": "144-21-8",
    "key_name": "Disodium methylarsonate",
    "cn_name": "甲基胂酸钠;甲基胂酸二钠盐;甲基胂酸钠(20%);",
    "alternate_name": "Arsonic acid, methyl-, disodium salt;Methanearsonic acid, disodium salt;DMA 100;Arrhenal;Arsinyl;Arsynal;Cacodyl New;Ansar 184;Cralo-E-rad;Disodium methanearsonate;Disodium methylarsonate;Disomear;DMA;DSMA;Methar;Somar;Sodar;Stenosine;Tonarsin;Diarsen;Tonarsan;Metharsan;Metharsinat;Neo-Asycodile;Ansar 8100;Disodium methylarsenate(2-);Arifen;Arsenil;Methylarsonic acid disodium salt",
    "duplicated_cas_no": "19444-53-2",
    "SMILES": "[As](C)(=O)(O)O.[Na]",
    "meta_data": {
        "InChI": "InChI=1S/CH5AsO3.2Na/c1-2(3,4)5;;/h1H3,(H2,3,4,5);;",
        "InChIKey": null,
        "Canonical SMILES": "[Na].O=[As](O)(O)C",
        "Molecular Formula": "CH<sub>5</sub>AsO<sub>3</sub>.2Na",
        "Molecular Mass": "",
        "Melting Point": "&gt;355 °C",
        "Density": "1.04 g/cm³"
    }
}