{
    "cas_no": "29113-34-6",
    "key_name": "3,4-Dihydro-4-oxo-2-quinazolinecarboxylic acid",
    "cn_name": null,
    "alternate_name": "2-Quinazolinecarboxylic acid, 3,4-dihydro-4-oxo-;2-Quinazolinecarboxylic acid, 1,4-dihydro-4-oxo-;3,4-Dihydro-4-oxo-2-quinazolinecarboxylic acid;3,4-Dihydro-4-oxoquinazoline-2-carboxylic acid;NSC 159703;4-Oxo-3,4-dihydroquinazoline-2-carboxylic acid",
    "duplicated_cas_no": "",
    "SMILES": "O=C1C=2C(NC(C(O)=O)=N1)=CC=CC2",
    "meta_data": {
        "InChI": "InChI=1S/C9H6N2O3/c12-8-5-3-1-2-4-6(5)10-7(11-8)9(13)14/h1-4H,(H,13,14)(H,10,11,12)",
        "InChIKey": null,
        "Canonical SMILES": "O=C(O)C1=NC(=O)C=2C=CC=CC2N1",
        "Molecular Formula": "C<sub>9</sub>H<sub>6</sub>N<sub>2</sub>O<sub>3</sub>",
        "Molecular Mass": "190.16",
        "Melting Point": "215-216 °C (decomp)"
    }
}