{
    "cas_no": "5351-04-2",
    "key_name": "3-(Diethylamino)propanenitrile",
    "cn_name": null,
    "alternate_name": "Propanenitrile, 3-(diethylamino)-;Propionitrile, 3-(diethylamino)-;3-(Diethylamino)propanenitrile;3-(Diethylamino)propionitrile;<em>N</em>-(2-Cyanoethyl)diethylamine;<em>N</em>,<em>N</em>-Diethylaminopropionitrile;IPKhAN 110;NSC 56550;NSC 95",
    "duplicated_cas_no": "",
    "SMILES": "N(CCC#N)(CC)CC",
    "meta_data": {
        "InChI": "InChI=1S/C7H14N2/c1-3-9(4-2)7-5-6-8/h3-5,7H2,1-2H3",
        "InChIKey": null,
        "Canonical SMILES": "N#CCCN(CC)CC",
        "Molecular Formula": "C<sub>7</sub>H<sub>14</sub>N<sub>2</sub>",
        "Molecular Mass": "126.20",
        "Boiling Point": "83.5-84.5 °C @ Press: 13 Torr",
        "Density": "0.8761 g/cm³ @ Temp: 25 °C"
    }
}