{
    "cas_no": "14259-45-1",
    "key_name": "Asperuloside",
    "cn_name": null,
    "alternate_name": "1<em>H</em>-2,6-Dioxacyclopent[<em>cd</em>]inden-1-one, 4-[(acetyloxy)methyl]-5-(β-<span class=\"text-smallcaps\">D</span>-glucopyranosyloxy)-2a,4a,5,7b-tetrahydro-, (2a<em>S</em>,4a<em>S</em>,5<em>S</em>,7b<em>S</em>)-;Asperuloside;1<em>H</em>-2,6-Dioxacyclopent[<em>cd</em>]inden-1-one, 4-[(acetyloxy)methyl]-5-(β-<span class=\"text-smallcaps\">D</span>-glucopyranosyloxy)-2a,4a,5,7b-tetrahydro-, [2a<em>S</em>-(2aα,4aα,5α,7bα)]-;Cyclopenta[<em>c</em>]pyran-4-carboxylic acid, 1α-(β-<span class=\"text-smallcaps\">D</span>-glucosyloxy)-1,4aα,5,7aα-tetrahydro-5β-hydroxy-7-(hydroxymethyl)-, γ-lactone, 7-acetate;(2a<em>S</em>,4a<em>S</em>,5<em>S</em>,7b<em>S</em>)-4-[(Acetyloxy)methyl]-5-(β-<span class=\"text-smallcaps\">D</span>-glucopyranosyloxy)-2a,4a,5,7b-tetrahydro-1<em>H</em>-2,6-dioxacyclopent[<em>cd</em>]inden-1-one",
    "duplicated_cas_no": "99772-07-3;1395-14-8;2608-40-4;25311-38-0",
    "SMILES": "O([C@H]1[C@]2([C@@]3([C@](C=C2COC(C)=O)(OC(=O)C3=CO1)[H])[H])[H])[C@@H]4O[C@H](CO)[C@@H](O)[C@H](O)[C@H]4O",
    "meta_data": {
        "InChI": "InChI=1S/C18H22O11/c1-6(20)25-4-7-2-9-12-8(16(24)27-9)5-26-17(11(7)12)29-18-15(23)14(22)13(21)10(3-19)28-18/h2,5,9-15,17-19,21-23H,3-4H2,1H3/t9-,10+,11+,12-,13+,14-,15+,17-,18-/m0/s1",
        "InChIKey": null,
        "Canonical SMILES": "O=C1OC2C=C(COC(=O)C)C3C(OC=C1C23)OC4OC(CO)C(O)C(O)C4O",
        "Molecular Formula": "C<sub>18</sub>H<sub>22</sub>O<sub>11</sub>",
        "Molecular Mass": "414.36",
        "Melting Point": "131.5 °C"
    }
}