{
    "cas_no": "32638-88-3",
    "key_name": "Pyrogallol red",
    "cn_name": "邻苯三酚红;",
    "alternate_name": "Spiro[3<em>H</em>-2,1-benzoxathiole-3,9′-[9<em>H</em>]xanthene]-3′,4′,5′,6′-tetrol, 1,1-dioxide;Pyrogallolsulfonephthalein;Pyrogallol red;Red pyrogallol;3′,4′,5′,6′-Tetrahydroxyspiro[benzo[<em>c</em>][1,2]oxathiole-3,9′-xanthene] 1,1-dioxide",
    "duplicated_cas_no": "3172-49-4;116239-00-0;205682-71-9;801145-40-4;810024-92-1;856926-05-1",
    "SMILES": "O=S1(=O)OC2(C=3C1=CC=CC3)C=4C(OC=5C2=CC=C(O)C5O)=C(O)C(O)=CC4",
    "meta_data": {
        "InChI": "InChI=1S/C19H12O8S/c20-12-7-5-10-17(15(12)22)26-18-11(6-8-13(21)16(18)23)19(10)9-3-1-2-4-14(9)28(24,25)27-19/h1-8,20-23H",
        "InChIKey": null,
        "Canonical SMILES": "O=S1(=O)OC2(C3=CC=C(O)C(O)=C3OC4=C(O)C(O)=CC=C42)C=5C=CC=CC51",
        "Molecular Formula": "C<sub>19</sub>H<sub>12</sub>O<sub>8</sub>S",
        "Molecular Mass": "400.36",
        "Melting Point": "&gt;315 °C"
    }
}