{
    "cas_no": "5522-66-7",
    "key_name": "2,18-Dimethyl 7,12-diethenyl-3,8,13,17-tetramethyl-21<em>H</em>,23<em>H</em>-porphine-2,18-dipropanoate",
    "cn_name": "原卟啉IX二甲酯;8,13-二乙烯基-3,7,12,17-四甲基-21H,23H-卟吩-2,18-二丙酸二甲酯;",
    "alternate_name": "21<em>H</em>,23<em>H</em>-Porphine-2,18-dipropanoic acid, 7,12-diethenyl-3,8,13,17-tetramethyl-, 2,18-dimethyl ester;2,18-Porphinedipropionic acid, 3,7,12,17-tetramethyl-8,13-divinyl-, dimethyl ester;21<em>H</em>,23<em>H</em>-Porphine-2,18-dipropanoic acid, 7,12-diethenyl-3,8,13,17-tetramethyl-, dimethyl ester;Protoporphyrin IX di-Me ester;Protoporphyrin dimethyl ester;2,18-Dimethyl 7,12-diethenyl-3,8,13,17-tetramethyl-21<em>H</em>,23<em>H</em>-porphine-2,18-dipropanoate;Protoporphyrin IX dimethyl ester;Protoporphyrin IX methyl ester;NSC 19666",
    "duplicated_cas_no": "6164-53-0;14399-13-4;43113-71-9;64194-56-5;64613-78-1;68079-02-7;75460-43-4;96251-63-7;250230-45-6;412320-56-0;1082666-90-7",
    "SMILES": "C(CC(OC)=O)C1=C2C=C3C(CCC(OC)=O)=C(C)C(=N3)C=C4NC(=CC5=NC(=CC(N2)=C1C)C(C=C)=C5C)C(C=C)=C4C",
    "meta_data": {
        "InChI": "InChI=1S/C36H38N4O4/c1-9-23-19(3)27-15-28-21(5)25(11-13-35(41)43-7)33(39-28)18-34-26(12-14-36(42)44-8)22(6)30(40-34)17-32-24(10-2)20(4)29(38-32)16-31(23)37-27/h9-10,15-18,37,40H,1-2,11-14H2,3-8H3/b27-15?,28-15-,29-16-,30-17-,31-16?,32-17?,33-18?,34-18-",
        "InChIKey": null,
        "Canonical SMILES": "O=C(OC)CCC=1C=2N=C(C=C3NC(=CC4=NC(=CC=5NC(C2)=C(C5C)CCC(=O)OC)C(C=C)=C4C)C(C=C)=C3C)C1C",
        "Molecular Formula": "C<sub>36</sub>H<sub>38</sub>N<sub>4</sub>O<sub>4</sub>",
        "Molecular Mass": "590.71",
        "Melting Point": "228-230 °C"
    }
}