{
    "cas_no": "851386-35-1",
    "key_name": "2,3-Difluoro-5-iodopyridine",
    "cn_name": "5-碘-2,3-二氟吡啶;",
    "alternate_name": "Pyridine, 2,3-difluoro-5-iodo-;2,3-Difluoro-5-iodopyridine",
    "duplicated_cas_no": "",
    "SMILES": "FC1=C(F)N=CC(I)=C1",
    "meta_data": {
        "InChI": "InChI=1S/C5H2F2IN/c6-4-1-3(8)2-9-5(4)7/h1-2H",
        "InChIKey": null,
        "Canonical SMILES": "FC1=NC=C(I)C=C1F",
        "Molecular Formula": "C<sub>5</sub>H<sub>2</sub>F<sub>2</sub>IN",
        "Molecular Mass": "240.98",
        "Boiling Point": "69-71 °C @ Press: 15 Torr",
        "Melting Point": "34-35 °C"
    }
}