{
    "cas_no": "7367-82-0",
    "key_name": "Ethyl (<em>E</em>)-2-octenoate",
    "cn_name": null,
    "alternate_name": "2-Octenoic acid, ethyl ester, (2<em>E</em>)-;2-Octenoic acid, ethyl ester, (<em>E</em>)-;Ethyl <em>trans</em>-2-octenoate;Ethyl (<em>E</em>)-2-octenoate;(2<em>E</em>)-2-Octenoic acid ethyl ester;Ethyl oct-(2<em>E</em>)-enoate",
    "duplicated_cas_no": "",
    "SMILES": "C(/C=C/CCCCC)(OCC)=O",
    "meta_data": {
        "InChI": "InChI=1S/C10H18O2/c1-3-5-6-7-8-9-10(11)12-4-2/h8-9H,3-7H2,1-2H3/b9-8+",
        "InChIKey": null,
        "Canonical SMILES": "O=C(OCC)C=CCCCCC",
        "Molecular Formula": "C<sub>10</sub>H<sub>18</sub>O<sub>2</sub>",
        "Molecular Mass": "170.25",
        "Boiling Point": "55 °C @ Press: 0.03 Torr"
    }
}