{
    "cas_no": "74-87-3",
    "key_name": "Methyl chloride",
    "cn_name": "氯甲烷;一氯甲烷;甲基氯;甲基烷;R40;甲基氯;",
    "alternate_name": "Methane, chloro-;Chloromethane;Artic;Methyl chloride;Monochloromethane;R 40;HCC 40;R 40 (refrigerant);F 40;Chloromethane dimer;Methane, chloro-, dimer;MeSH ID: D008737",
    "duplicated_cas_no": "16786-44-0;1173018-35-3;1474045-09-4;1474045-10-7;1474045-11-8;1596379-05-3;2692599-23-6",
    "SMILES": "CCl",
    "meta_data": {
        "InChI": "InChI=1S/CH3Cl/c1-2/h1H3",
        "InChIKey": null,
        "Canonical SMILES": "ClC",
        "Molecular Formula": "CH<sub>3</sub>Cl",
        "Molecular Mass": "50.49",
        "Boiling Point": "-23.7 °C",
        "Melting Point": "-97 °C",
        "Density": "0.911 g/cm³ @ Temp: 25 °C"
    }
}