{
    "cas_no": "32749-94-3",
    "key_name": "2,3-Dimethylpentanal",
    "cn_name": "2，3-二甲基戊醛;",
    "alternate_name": "Pentanal, 2,3-dimethyl-;Valeraldehyde, 2,3-dimethyl-;2,3-Dimethylpentanal;2,3-Dimethylvaleraldehyde;NSC 73707",
    "duplicated_cas_no": "3944-76-1;7492-94-6",
    "SMILES": "C(C(C=O)C)(CC)C",
    "meta_data": {
        "InChI": "InChI=1S/C7H14O/c1-4-6(2)7(3)5-8/h5-7H,4H2,1-3H3",
        "InChIKey": null,
        "Canonical SMILES": "O=CC(C)C(C)CC",
        "Molecular Formula": "C<sub>7</sub>H<sub>14</sub>O",
        "Molecular Mass": "114.19",
        "Boiling Point": "141-142 °C"
    }
}