{
    "cas_no": "179897-89-3",
    "key_name": "5-Bromo-2-fluorobenzonitrile",
    "cn_name": "2-氟-5-溴苯腈;5-溴-2-氟苯腈;",
    "alternate_name": "Benzonitrile, 5-bromo-2-fluoro-;5-Bromo-2-fluorobenzonitrile;3-Bromo-6-fluorobenzonitrile;3-Cyano-4-fluorobromobenzene;2-Fluoro-5-bromobenzonitrile",
    "duplicated_cas_no": "",
    "SMILES": "C(#N)C1=C(F)C=CC(Br)=C1",
    "meta_data": {
        "InChI": "InChI=1S/C7H3BrFN/c8-6-1-2-7(9)5(3-6)4-10/h1-3H",
        "InChIKey": null,
        "Canonical SMILES": "N#CC1=CC(Br)=CC=C1F",
        "Molecular Formula": "C<sub>7</sub>H<sub>3</sub>BrFN",
        "Molecular Mass": "200.01",
        "Melting Point": "75-77 °C"
    }
}