{
    "cas_no": "130-14-3",
    "key_name": "Sodium 1-naphthalenesulfonate",
    "cn_name": "1-萘磺酸钠盐;",
    "alternate_name": "1-Naphthalenesulfonic acid, sodium salt (1:1);1-Naphthalenesulfonic acid, sodium salt;Alpha salt;α-Naphthalenesulfonic acid sodium salt;Sodium α-naphthalenesulfonate;Sodium α-naphthalenesulfonic acid;Sodium α-naphthylsulfonate;Sodium 1-naphthalenesulfonate;Sodium 1-naphthylsulfonate",
    "duplicated_cas_no": "1081846-88-9",
    "SMILES": "S(=O)(=O)(O)C=1C2=C(C=CC1)C=CC=C2.[Na]",
    "meta_data": {
        "InChI": "InChI=1S/C10H8O3S.Na/c11-14(12,13)10-7-3-5-8-4-1-2-6-9(8)10;/h1-7H,(H,11,12,13);",
        "InChIKey": null,
        "Canonical SMILES": "[Na].O=S(=O)(O)C1=CC=CC=2C=CC=CC21",
        "Molecular Formula": "C<sub>10</sub>H<sub>8</sub>O<sub>3</sub>S.Na",
        "Molecular Mass": "",
        "Melting Point": "&lt;300 °C"
    }
}