{
    "cas_no": "143-08-8",
    "key_name": "1-Nonanol",
    "cn_name": "1-壬醇;",
    "alternate_name": "1-Nonanol;Nonyl alcohol;<em>n</em>-Nonyl alcohol;Octyl carbinol;Pelargonic alcohol;<em>n</em>-Nonan-1-ol;1-Hydroxynonane;Nonanol;NSC 5521;Linevol 9;Nonan-1-ol",
    "duplicated_cas_no": "",
    "SMILES": "C(CCCCO)CCCC",
    "meta_data": {
        "InChI": "InChI=1S/C9H20O/c1-2-3-4-5-6-7-8-9-10/h10H,2-9H2,1H3",
        "InChIKey": null,
        "Canonical SMILES": "OCCCCCCCCC",
        "Molecular Formula": "C<sub>9</sub>H<sub>20</sub>O",
        "Molecular Mass": "144.25",
        "Boiling Point": "213.37 °C",
        "Melting Point": "-5 °C",
        "Density": "0.8279 g/cm³ @ Temp: 20 °C"
    }
}