{
    "cas_no": "77-90-7",
    "key_name": "Acetyl tributyl citrate",
    "cn_name": "乙酰柠檬酸三丁酯;",
    "alternate_name": "1,2,3-Propanetricarboxylic acid, 2-(acetyloxy)-, 1,2,3-tributyl ester;Citric acid, tributyl ester, acetate;1,2,3-Propanetricarboxylic acid, 2-(acetyloxy)-, tributyl ester;2-Acetoxy-1,2,3-propanetricarboxylic acid tributyl ester;Acetyl tributyl citrate;Citroflex A 4;Tributyl 2-acetoxy-1,2,3-propanetricarboxylate;Citroflex A;Tributyl acetylcitrate;Tributyl citrate acetate;Tributyl 2-(acetyloxy)-1,2,3-propanetricarboxylic acid;Tributyl <em>O</em>-acetylcitrate;Blo-trol;Acetylcitric acid tributyl ester;Acetyl butyl citrate;ATBC;Estaflex ATC;Citroflex 4A-S;Sansocizer ATBC;NSC 3894;Monocizer ATBC;Morflex ATBC;Citrofol BII;Acetyl tris-<em>n</em>-butyl citrate;Pacizer 6412;Tributyl 2-acetyl citrate;Scandinol SP 22;Acetyl tri-<em>n</em>-butyl citrate;Kanatol 3400AC;ADK Cizer PN 6810;Citrofol B 2;LC 18;LC 18 (plasticizer);FF 454;Proviplast 2624;Plasticizer 40T;SP 22S;SP-22 S;Purolan ATBC",
    "duplicated_cas_no": "37070-91-0;791812-73-2",
    "SMILES": "C(CC(OCCCC)=O)(CC(OCCCC)=O)(C(OCCCC)=O)OC(C)=O",
    "meta_data": {
        "InChI": "InChI=1S/C20H34O8/c1-5-8-11-25-17(22)14-20(28-16(4)21,19(24)27-13-10-7-3)15-18(23)26-12-9-6-2/h5-15H2,1-4H3",
        "InChIKey": null,
        "Canonical SMILES": "O=C(OC(C(=O)OCCCC)(CC(=O)OCCCC)CC(=O)OCCCC)C",
        "Molecular Formula": "C<sub>20</sub>H<sub>34</sub>O<sub>8</sub>",
        "Molecular Mass": "402.48",
        "Boiling Point": "172-174 °C @ Press: 1 Torr",
        "Melting Point": "-80 °C",
        "Density": "1.046 g/cm³ @ Temp: 25 °C"
    }
}