{
    "cas_no": "3027-38-1",
    "key_name": "5-Nitro-1<em>H</em>,3<em>H</em>-naphtho[1,8-<em>cd</em>]pyran-1,3-dione",
    "cn_name": null,
    "alternate_name": "1<em>H</em>,3<em>H</em>-Naphtho[1,8-<em>cd</em>]pyran-1,3-dione, 5-nitro-;Naphthalic anhydride, 3-nitro-;5-Nitro-1<em>H</em>,3<em>H</em>-naphtho[1,8-<em>cd</em>]pyran-1,3-dione;3-Nitro-1,8-naphthalic anhydride;3-Nitro-1,8-naphthalenedicarboxylic anhydride;3-Nitro-1,8-naphthalic acid anhydride;3-Nitronaphthalic anhydride;YY 187;NSC 32326;5-Nitro-1<em>H</em>,3<em>H</em>-benzo[<em>de</em>]isochromene-1,3-dione",
    "duplicated_cas_no": "",
    "SMILES": "O=C1C=2C3=C(C=C(N(=O)=O)C2)C=CC=C3C(=O)O1",
    "meta_data": {
        "InChI": "InChI=1S/C12H5NO5/c14-11-8-3-1-2-6-4-7(13(16)17)5-9(10(6)8)12(15)18-11/h1-5H",
        "InChIKey": null,
        "Canonical SMILES": "O=C1OC(=O)C2=CC(=CC3=CC=CC1=C32)N(=O)=O",
        "Molecular Formula": "C<sub>12</sub>H<sub>5</sub>NO<sub>5</sub>",
        "Molecular Mass": "243.17",
        "Melting Point": "247-248 °C"
    }
}