{
    "cas_no": "25487-66-5",
    "key_name": "3-Carboxyphenylboronic acid",
    "cn_name": "3-羧基苯硼酸;间羧基苯硼酸;",
    "alternate_name": "Benzoic acid, 3-borono-;Benzoic acid, <em>m</em>-borono-;3-Boronobenzoic acid;<em>m</em>-Carboxyphenylboronic acid;3-Carboxybenzeneboronic acid;3-Carboxyphenylboronic acid;3-(Dihydroxyboryl)benzoic acid;3-(Dihydroxyborane)benzoic acid;3-(Dihydroxyboranyl)benzoic acid",
    "duplicated_cas_no": "1079853-22-7",
    "SMILES": "B(O)(O)C1=CC(C(O)=O)=CC=C1",
    "meta_data": {
        "InChI": "InChI=1S/C7H7BO4/c9-7(10)5-2-1-3-6(4-5)8(11)12/h1-4,11-12H,(H,9,10)",
        "InChIKey": null,
        "Canonical SMILES": "O=C(O)C=1C=CC=C(C1)B(O)O",
        "Molecular Formula": "C<sub>7</sub>H<sub>7</sub>BO<sub>4</sub>",
        "Molecular Mass": "165.94",
        "Melting Point": "245-247 °C (decomp)"
    }
}