{
    "cas_no": "6837-24-7",
    "key_name": "<em>N</em>-Cyclohexyl-2-pyrrolidone",
    "cn_name": "N-环己基吡咯烷酮;1-环己基-2-吡咯烷酮;",
    "alternate_name": "2-Pyrrolidinone, 1-cyclohexyl-;1-Cyclohexyl-2-pyrrolidinone;<em>N</em>-Cyclohexylpyrrolidone;<em>N</em>-Cyclohexylpyrrolidinone;<em>N</em>-Cyclohexyl-2-pyrrolidinone;1-Cyclohexyl-2-pyrrolidone;<em>N</em>-Cyclohexyl-2-pyrrolidone;CHP",
    "duplicated_cas_no": "",
    "SMILES": "O=C1N(CCC1)C2CCCCC2",
    "meta_data": {
        "InChI": "InChI=1S/C10H17NO/c12-10-7-4-8-11(10)9-5-2-1-3-6-9/h9H,1-8H2",
        "InChIKey": null,
        "Canonical SMILES": "O=C1N(CCC1)C2CCCCC2",
        "Molecular Formula": "C<sub>10</sub>H<sub>17</sub>NO",
        "Molecular Mass": "167.25",
        "Boiling Point": "94-97 °C @ Press: 0.5 Torr",
        "Density": "1.01 g/cm³"
    }
}