{
    "cas_no": "135050-44-1",
    "key_name": "3-Chloro-4-iodobenzenamine",
    "cn_name": "3-氯-4-碘苯胺;",
    "alternate_name": "Benzenamine, 3-chloro-4-iodo-;3-Chloro-4-iodobenzenamine;3-Chloro-4-iodoaniline;3-Chloro-4-iodophenylamine;NSC 137036",
    "duplicated_cas_no": "",
    "SMILES": "ClC1=C(I)C=CC(N)=C1",
    "meta_data": {
        "InChI": "InChI=1S/C6H5ClIN/c7-5-3-4(9)1-2-6(5)8/h1-3H,9H2",
        "InChIKey": null,
        "Canonical SMILES": "ClC1=CC(N)=CC=C1I",
        "Molecular Formula": "C<sub>6</sub>H<sub>5</sub>ClIN",
        "Molecular Mass": "253.47",
        "Melting Point": "65 °C"
    }
}