{
    "cas_no": "6377-12-4",
    "key_name": "Carbazol-3-amine",
    "cn_name": "3-氨基咔唑;3-氨基咔唑;",
    "alternate_name": "9<em>H</em>-Carbazol-3-amine;Carbazole, 3-amino-;3-Aminocarbazole;SKF 70124;Carbazol-3-amine;NSC 49769;3-Amino-9<em>H</em>-carbazole;(9<em>H</em>-Carbazol-3-yl)amine",
    "duplicated_cas_no": "",
    "SMILES": "NC=1C=C2C=3C(NC2=CC1)=CC=CC3",
    "meta_data": {
        "InChI": "InChI=1S/C12H10N2/c13-8-5-6-12-10(7-8)9-3-1-2-4-11(9)14-12/h1-7,14H,13H2",
        "InChIKey": null,
        "Canonical SMILES": "NC=1C=CC=2NC=3C=CC=CC3C2C1",
        "Molecular Formula": "C<sub>12</sub>H<sub>10</sub>N<sub>2</sub>",
        "Molecular Mass": "182.22",
        "Melting Point": "247-248 °C"
    }
}