{
    "cas_no": "1783-96-6",
    "key_name": "<span class=\"text-smallcaps\">D</span>-Aspartic acid",
    "cn_name": "D-天门冬氨酸;D-天冬氨酸;",
    "alternate_name": "<span class=\"text-smallcaps\">D</span>-Aspartic acid;Aspartic acid, <span class=\"text-smallcaps\">D</span>-;(-)-Aspartic acid;<span class=\"text-smallcaps\">D</span>-(-)-Aspartic acid;(<em>R</em>)-Aspartic acid;NSC 97922;(2R)-2-Aminobutanedioic acid;(R)-2-Aminosuccinic acid",
    "duplicated_cas_no": "",
    "SMILES": "[C@@H](CC(O)=O)(C(O)=O)N",
    "meta_data": {
        "InChI": "InChI=1S/C4H7NO4/c5-2(4(8)9)1-3(6)7/h2H,1,5H2,(H,6,7)(H,8,9)/t2-/m1/s1",
        "InChIKey": null,
        "Canonical SMILES": "O=C(O)CC(N)C(=O)O",
        "Molecular Formula": "C<sub>4</sub>H<sub>7</sub>NO<sub>4</sub>",
        "Molecular Mass": "133.10",
        "Melting Point": "251 °C"
    }
}