{
    "cas_no": "114-90-9",
    "key_name": "Toxogonin",
    "cn_name": "双复磷;双复磷;",
    "alternate_name": "Pyridinium, 1,1′-[oxybis(methylene)]bis[4-[(hydroxyimino)methyl]-, chloride (1:2);Pyridinium, 1,1′-(oxydimethylene)bis[4-formyl-, dichloride, dioxime;Pyridinium, 1,1′-[oxybis(methylene)]bis[4-[(hydroxyimino)methyl]-, dichloride;1,1′-(Oxydimethylene)bis[4-formylpyridinium chloride], dioxime;Obidoxime chloride;Toxogonin;LuH<sub>6</sub>;LuH<sub>6</sub>-Cl<sub>2</sub>;LueH 6;1,1′-(Oxydimethylene)bis[4-formylpyridinium] dichloride dioxime;Toxogonin dichloride;Bis(4-hydroxyiminomethylpyridiniummethyl) ether dichloride;Toksobidin;Toxobidin;Toxogonine;Obidoxime hydrochloride;Efosim;BH 6;MeSH ID: D009768",
    "duplicated_cas_no": "144252-47-1",
    "SMILES": "C(OC[N+]=1C=CC(C=NO)=CC1)[N+]=2C=CC(C=NO)=CC2.[Cl-]",
    "meta_data": {
        "InChI": "InChI=1S/C14H14N4O3.2ClH/c19-15-9-13-1-5-17(6-2-13)11-21-12-18-7-3-14(4-8-18)10-16-20;;/h1-10H,11-12H2;2*1H",
        "InChIKey": null,
        "Canonical SMILES": "[Cl-].ON=CC1=CC=[N+](C=C1)COC[N+]2=CC=C(C=NO)C=C2",
        "Molecular Formula": "C<sub>14</sub>H<sub>16</sub>N<sub>4</sub>O<sub>3</sub>.2Cl",
        "Molecular Mass": "",
        "Melting Point": "220 °C"
    }
}