{
    "cas_no": "29331-92-8",
    "key_name": "Licarbazepine",
    "cn_name": null,
    "alternate_name": "5<em>H</em>-Dibenz[<em>b</em>,<em>f</em>]azepine-5-carboxamide, 10,11-dihydro-10-hydroxy-;10,11-Dihydro-10-hydroxy-5<em>H</em>-dibenz[<em>b</em>,<em>f</em>]azepine-5-carboxamide;GP 47779;10,11-Dihydro-10-hydroxycarbamazepine;10-Hydroxy-10,11-dihydrocarbamazepine;10-Hydroxy-10,11-dihydrocarbamezepine;Licarbazepine;BIA 2-005;10,11-Dihydro-10-hydroxy-5<em>H</em>-dibenzo[<em>b</em>,<em>f</em>]azepine-5-carboxamide;10-Hydroxy-10,11-dihydro-5<em>H</em>-dibenzo[<em>b</em>,<em>f</em>]azepine-5-carboxamide",
    "duplicated_cas_no": "",
    "SMILES": "C(N)(=O)N1C=2C(C(O)CC=3C1=CC=CC3)=CC=CC2",
    "meta_data": {
        "InChI": "InChI=1S/C15H14N2O2/c16-15(19)17-12-7-3-1-5-10(12)9-14(18)11-6-2-4-8-13(11)17/h1-8,14,18H,9H2,(H2,16,19)",
        "InChIKey": null,
        "Canonical SMILES": "O=C(N)N1C=2C=CC=CC2CC(O)C=3C=CC=CC31",
        "Molecular Formula": "C<sub>15</sub>H<sub>14</sub>N<sub>2</sub>O<sub>2</sub>",
        "Molecular Mass": "254.28",
        "Melting Point": "185-188 °C"
    }
}