{
    "cas_no": "913611-97-9",
    "key_name": "Brexpiprazole",
    "cn_name": null,
    "alternate_name": "2(1<em>H</em>)-Quinolinone, 7-[4-(4-benzo[<em>b</em>]thien-4-yl-1-piperazinyl)butoxy]-;7-[4-(4-Benzo[<em>b</em>]thien-4-yl-1-piperazinyl)butoxy]-2(1<em>H</em>)-quinolinone;Brexpiprazole;OPC 34712;7-[4-(4-(Benzo[<em>b</em>]thien-4-yl)-piperazin-1-yl)butoxy]-1<em>H</em>-quinolin-2-one;Rexulti;Rxulti",
    "duplicated_cas_no": "",
    "SMILES": "C(CCCOC=1C=C2C(=CC1)C=CC(=O)N2)N3CCN(C4=C5C(SC=C5)=CC=C4)CC3",
    "meta_data": {
        "InChI": "InChI=1S/C25H27N3O2S/c29-25-9-7-19-6-8-20(18-22(19)26-25)30-16-2-1-11-27-12-14-28(15-13-27)23-4-3-5-24-21(23)10-17-31-24/h3-10,17-18H,1-2,11-16H2,(H,26,29)",
        "InChIKey": null,
        "Canonical SMILES": "O=C1C=CC=2C=CC(OCCCCN3CCN(C=4C=CC=C5SC=CC54)CC3)=CC2N1",
        "Molecular Formula": "C<sub>25</sub>H<sub>27</sub>N<sub>3</sub>O<sub>2</sub>S",
        "Molecular Mass": "433.57",
        "Melting Point": "181.7-183.4 °C"
    }
}