{
    "cas_no": "1002-89-7",
    "key_name": "Ammonium stearate",
    "cn_name": "硬脂酸铵;十八酸铵;",
    "alternate_name": "Octadecanoic acid, ammonium salt (1:1);Stearic acid, ammonium salt;Octadecanoic acid, ammonium salt;Ammonium stearate;Stanfax 320;Nopco DC 100A;Nopcote DC 100A;Stokal STA;Kanebinol YC 81;YC 81;DC 100A;Ligafluid AS 35;Vicarlan BA;DT 1008;HMY 630",
    "duplicated_cas_no": "",
    "SMILES": "C(CCCCCCCCCCC)CCCCCC(O)=O.N",
    "meta_data": {
        "InChI": "InChI=1S/C18H36O2.H3N/c1-2-3-4-5-6-7-8-9-10-11-12-13-14-15-16-17-18(19)20;/h2-17H2,1H3,(H,19,20);1H3",
        "InChIKey": null,
        "Canonical SMILES": "O=C(O)CCCCCCCCCCCCCCCCC.N",
        "Molecular Formula": "C<sub>18</sub>H<sub>36</sub>O<sub>2</sub>.H<sub>3</sub>N",
        "Molecular Mass": "",
        "Melting Point": "22 °C"
    }
}