{
    "cas_no": "528-92-7",
    "key_name": "Allylisopropylacetylurea",
    "cn_name": "烯丙基异丙基乙酸脲;丙戊酰脲;",
    "alternate_name": "4-Pentenamide, <em>N</em>-(aminocarbonyl)-2-(1-methylethyl)-;Urea, (2-isopropyl-4-pentenoyl)-;<em>N</em>-(Aminocarbonyl)-2-(1-methylethyl)-4-pentenamide;Allylisopropylacetylcarbamide;Allylisopropylacetylurea;Apronal;(2-Isopropyl-4-pentenoyl)urea;Sedormid;Apronalide;2-Allyl-2-isopropylacetylurea;Isodormid;Alipronal;[2-(Propan-2-yl)pent-4-enoyl]urea",
    "duplicated_cas_no": "",
    "SMILES": "C(C(NC(N)=O)=O)(CC=C)C(C)C",
    "meta_data": {
        "InChI": "InChI=1S/C9H16N2O2/c1-4-5-7(6(2)3)8(12)11-9(10)13/h4,6-7H,1,5H2,2-3H3,(H3,10,11,12,13)",
        "InChIKey": null,
        "Canonical SMILES": "O=C(N)NC(=O)C(CC=C)C(C)C",
        "Molecular Formula": "C<sub>9</sub>H<sub>16</sub>N<sub>2</sub>O<sub>2</sub>",
        "Molecular Mass": "184.24",
        "Melting Point": "194 °C"
    }
}