{
    "cas_no": "18487-39-3",
    "key_name": "2,3,5-Trichlorobenzenamine",
    "cn_name": null,
    "alternate_name": "Benzenamine, 2,3,5-trichloro-;Aniline, 2,3,5-trichloro-;2,3,5-Trichlorobenzenamine;2,3,5-Trichloroaniline",
    "duplicated_cas_no": "",
    "SMILES": "ClC1=C(Cl)C=C(Cl)C=C1N",
    "meta_data": {
        "InChI": "InChI=1S/C6H4Cl3N/c7-3-1-4(8)6(9)5(10)2-3/h1-2H,10H2",
        "InChIKey": null,
        "Canonical SMILES": "ClC=1C=C(Cl)C(Cl)=C(N)C1",
        "Molecular Formula": "C<sub>6</sub>H<sub>4</sub>Cl<sub>3</sub>N",
        "Molecular Mass": "196.46",
        "Melting Point": "73 °C"
    }
}