{
    "cas_no": "52222-74-9",
    "key_name": "Kaempferol 4′-<em>O</em>-glucoside",
    "cn_name": null,
    "alternate_name": "4<em>H</em>-1-Benzopyran-4-one, 2-[4-(β-<span class=\"text-smallcaps\">D</span>-glucopyranosyloxy)phenyl]-3,5,7-trihydroxy-;2-[4-(β-<span class=\"text-smallcaps\">D</span>-Glucopyranosyloxy)phenyl]-3,5,7-trihydroxy-4<em>H</em>-1-benzopyran-4-one;Kaempferol 4′-<em>O</em>-glucoside;Kaempferol 4′-β-glucoside;Kaempferol 4′-glucoside;Kaempferol 4′-<em>O</em>-β-<span class=\"text-smallcaps\">D</span>-glucopyranoside",
    "duplicated_cas_no": "",
    "SMILES": "O=C1C=2C(OC(=C1O)C3=CC=C(O[C@@H]4O[C@H](CO)[C@@H](O)[C@H](O)[C@H]4O)C=C3)=CC(O)=CC2O",
    "meta_data": {
        "InChI": "InChI=1S/C21H20O11/c22-7-13-15(25)17(27)19(29)21(32-13)30-10-3-1-8(2-4-10)20-18(28)16(26)14-11(24)5-9(23)6-12(14)31-20/h1-6,13,15,17,19,21-25,27-29H,7H2/t13-,15-,17+,19-,21-/m1/s1",
        "InChIKey": null,
        "Canonical SMILES": "O=C1C(O)=C(OC=2C=C(O)C=C(O)C12)C=3C=CC(OC4OC(CO)C(O)C(O)C4O)=CC3",
        "Molecular Formula": "C<sub>21</sub>H<sub>20</sub>O<sub>11</sub>",
        "Molecular Mass": "448.38",
        "Melting Point": "223-225 °C"
    }
}