{
    "cas_no": "6974-32-9",
    "key_name": "1-<em>O</em>-Acetyl-2,3,5-tri-<em>O</em>-benzoyl-β-<span class=\"text-smallcaps\">D</span>-ribofuranose",
    "cn_name": "1-乙酰氧基-2,3,5-三苯甲酰氧基-1-beta-D-呋喃核糖;",
    "alternate_name": "β-<span class=\"text-smallcaps\">D</span>-Ribofuranose, 1-acetate 2,3,5-tribenzoate;Ribofuranose, 1-acetate 2,3,5-tribenzoate, β-<span class=\"text-smallcaps\">D</span>-;1-<em>O</em>-Acetyl-2,3,5-tri-<em>O</em>-benzoyl-β-<span class=\"text-smallcaps\">D</span>-ribose;1-<em>O</em>-Acetyltri-<em>O</em>-benzoyl-β-<span class=\"text-smallcaps\">D</span>-ribofuranose;1-<em>O</em>-Acetyl-2,3,5-tri-<em>O</em>-benzoyl-β-<span class=\"text-smallcaps\">D</span>-ribofuranose;2,3,5-Tri-<em>O</em>-benzoyl-β-<span class=\"text-smallcaps\">D</span>-ribofuranosyl acetate;ABR;NSC 23349;1-<em>O</em>-Acetyl-2,3,4-tri-<em>O</em>-benzoyl-β-<span class=\"text-smallcaps\">D</span>-ribofuranose;1-0-Acetyl-2,3,5-tri-<em>O</em>-benzoyl-β-<span class=\"text-smallcaps\">D</span>-ribofuranose",
    "duplicated_cas_no": "58581-80-9;75082-56-3;485830-06-6",
    "SMILES": "O(C(=O)C1=CC=CC=C1)[C@H]2[C@@H](OC(=O)C3=CC=CC=C3)[C@H](OC(C)=O)O[C@@H]2COC(=O)C4=CC=CC=C4",
    "meta_data": {
        "InChI": "InChI=1S/C28H24O9/c1-18(29)34-28-24(37-27(32)21-15-9-4-10-16-21)23(36-26(31)20-13-7-3-8-14-20)22(35-28)17-33-25(30)19-11-5-2-6-12-19/h2-16,22-24,28H,17H2,1H3/t22-,23-,24-,28-/m1/s1",
        "InChIKey": null,
        "Canonical SMILES": "O=C(OCC1OC(OC(=O)C)C(OC(=O)C=2C=CC=CC2)C1OC(=O)C=3C=CC=CC3)C=4C=CC=CC4",
        "Molecular Formula": "C<sub>28</sub>H<sub>24</sub>O<sub>9</sub>",
        "Molecular Mass": "504.48",
        "Melting Point": "128-129 °C"
    }
}