{
    "cas_no": "6730-83-2",
    "key_name": "Kaurenoic acid",
    "cn_name": null,
    "alternate_name": "Kaur-16-en-18-oic acid, (4α)-;(4α)-Kaur-16-en-18-oic acid;Kaurenoic acid;(-)-Kauren-19-oic acid;<em>ent</em>-Kaurenoic acid;(-)-Kaur-16-en-19-oic acid;Kaurenic acid;Cunabic acid;<em>ent</em>-Kaur-16(17)-en-19-oic acid;<em>ent</em>-Kaur-16-en-19-oic acid;NSC 339145;Ent-kaur-16-en-19-oic acid",
    "duplicated_cas_no": "1481688-54-3",
    "SMILES": "C[C@]12[C@]3([C@]4(C[C@@](CC3)(C(=C)C4)[H])CC[C@@]1([C@@](C(O)=O)(C)CCC2)[H])[H]",
    "meta_data": {
        "InChI": "InChI=1S/C20H30O2/c1-13-11-20-10-7-15-18(2,16(20)6-5-14(13)12-20)8-4-9-19(15,3)17(21)22/h14-16H,1,4-12H2,2-3H3,(H,21,22)/t14-,15+,16+,18-,19-,20-/m1/s1",
        "InChIKey": null,
        "Canonical SMILES": "O=C(O)C1(C)CCCC2(C)C1CCC34CC(=C)C(CCC32)C4",
        "Molecular Formula": "C<sub>20</sub>H<sub>30</sub>O<sub>2</sub>",
        "Molecular Mass": "302.45",
        "Melting Point": "171-172 °C"
    }
}