{
    "cas_no": "4049-39-2",
    "key_name": "4-Benzyloxy-3-hydroxybenzaldehyde",
    "cn_name": null,
    "alternate_name": "Benzaldehyde, 3-hydroxy-4-(phenylmethoxy)-;Benzaldehyde, 4-(benzyloxy)-3-hydroxy-;3-Hydroxy-4-(phenylmethoxy)benzaldehyde;Protocatechuic aldehyde-4-benzyl ether;3-Hydroxy-4-benzyloxybenzaldehyde;4-Benzyloxy-3-hydroxybenzaldehyde",
    "duplicated_cas_no": "",
    "SMILES": "O(CC1=CC=CC=C1)C2=C(O)C=C(C=O)C=C2",
    "meta_data": {
        "InChI": "InChI=1S/C14H12O3/c15-9-12-6-7-14(13(16)8-12)17-10-11-4-2-1-3-5-11/h1-9,16H,10H2",
        "InChIKey": null,
        "Canonical SMILES": "O=CC1=CC=C(OCC=2C=CC=CC2)C(O)=C1",
        "Molecular Formula": "C<sub>14</sub>H<sub>12</sub>O<sub>3</sub>",
        "Molecular Mass": "228.24",
        "Melting Point": "120 °C"
    }
}