{
    "cas_no": "7752-72-9",
    "key_name": "5-Chloro-6-methyl-4(3<em>H</em>)-pyrimidinone",
    "cn_name": null,
    "alternate_name": "4(3<em>H</em>)-Pyrimidinone, 5-chloro-6-methyl-;4-Pyrimidinol, 5-chloro-6-methyl-;4(1<em>H</em>)-Pyrimidinone, 5-chloro-6-methyl-;5-Chloro-6-methyl-4(3<em>H</em>)-pyrimidinone;5-Chloro-4-hydroxy-6-methylpyrimidine",
    "duplicated_cas_no": "",
    "SMILES": "ClC1=C(C)NC=NC1=O",
    "meta_data": {
        "InChI": "InChI=1S/C5H5ClN2O/c1-3-4(6)5(9)8-2-7-3/h2H,1H3,(H,7,8,9)",
        "InChIKey": null,
        "Canonical SMILES": "O=C1N=CNC(=C1Cl)C",
        "Molecular Formula": "C<sub>5</sub>H<sub>5</sub>ClN<sub>2</sub>O",
        "Molecular Mass": "144.56",
        "Melting Point": "209-211 °C"
    }
}