{
    "cas_no": "68592-12-1",
    "key_name": "2-[4-Chloro-3-(chlorosulfonyl)benzoyl]benzoic acid",
    "cn_name": "2-(3\"-氯磺酰基-4\"-氯苯甲酰)苯甲酸;5-(2-羧基苯甲酰基)-2-氯苯磺酰氯;",
    "alternate_name": "Benzoic acid, 2-[4-chloro-3-(chlorosulfonyl)benzoyl]-;Benzoic acid, <em>o</em>-[4-chloro-3-(chlorosulfonyl)benzoyl]-;2-[4-Chloro-3-(chlorosulfonyl)benzoyl]benzoic acid",
    "duplicated_cas_no": "",
    "SMILES": "C(=O)(C1=C(C(O)=O)C=CC=C1)C2=CC(S(Cl)(=O)=O)=C(Cl)C=C2",
    "meta_data": {
        "InChI": "InChI=1S/C14H8Cl2O5S/c15-11-6-5-8(7-12(11)22(16,20)21)13(17)9-3-1-2-4-10(9)14(18)19/h1-7H,(H,18,19)",
        "InChIKey": null,
        "Canonical SMILES": "O=C(O)C=1C=CC=CC1C(=O)C2=CC=C(Cl)C(=C2)S(=O)(=O)Cl",
        "Molecular Formula": "C<sub>14</sub>H<sub>8</sub>Cl<sub>2</sub>O<sub>5</sub>S",
        "Molecular Mass": "359.18",
        "Melting Point": "178-182 °C"
    }
}