{
    "cas_no": "24521-76-4",
    "key_name": "1,5,6,7-Tetrahydro-6-thioxo-4<em>H</em>-pyrazolo[3,4-<em>d</em>]pyrimidin-4-one",
    "cn_name": "4-羟基-6-巯基吡唑并[3,4-d]嘧啶;",
    "alternate_name": "4<em>H</em>-Pyrazolo[3,4-<em>d</em>]pyrimidin-4-one, 1,5,6,7-tetrahydro-6-thioxo-;1<em>H</em>-Pyrazolo[3,4-<em>d</em>]pyrimidin-4-ol, 6-mercapto-;1,5,6,7-Tetrahydro-6-thioxo-4<em>H</em>-pyrazolo[3,4-<em>d</em>]pyrimidin-4-one;1<em>H</em>-Pyrazolo[3,4-<em>d</em>]pyrimidine-4,6(5<em>H</em>,7<em>H</em>)-dione, 6-thio-;4-Hydroxy-6-mercaptopyrazolo[3,4-<em>d</em>]pyrimidine;B 103U;NSC 1391;6-Mercapto-1<em>H</em>-pyrazolo[3,4-<em>d</em>]pyrimidin-4-ol",
    "duplicated_cas_no": "3323-96-4",
    "SMILES": "O=C1C2=C(NC(=S)N1)NN=C2",
    "meta_data": {
        "InChI": "InChI=1S/C5H4N4OS/c10-4-2-1-6-9-3(2)7-5(11)8-4/h1H,(H3,6,7,8,9,10,11)",
        "InChIKey": null,
        "Canonical SMILES": "O=C1NC(=S)NC=2NN=CC12",
        "Molecular Formula": "C<sub>5</sub>H<sub>4</sub>N<sub>4</sub>OS",
        "Molecular Mass": "168.18",
        "Melting Point": "277-279 °C"
    }
}