{
    "cas_no": "67592-36-3",
    "key_name": "[2-(3-Cyclohexen-1-yl)ethyl]trimethoxysilane",
    "cn_name": null,
    "alternate_name": "Cyclohexene, 4-[2-(trimethoxysilyl)ethyl]-;Silane, [2-(3-cyclohexen-1-yl)ethyl]trimethoxy-;[2-(3-Cyclohexen-1-yl)ethyl]trimethoxysilane;2-(3-Cyclohexenylethyl)trimethoxysilane;SIC 2460.0",
    "duplicated_cas_no": "",
    "SMILES": "[Si](CCC1CCC=CC1)(OC)(OC)OC",
    "meta_data": {
        "InChI": "InChI=1S/C11H22O3Si/c1-12-15(13-2,14-3)10-9-11-7-5-4-6-8-11/h4-5,11H,6-10H2,1-3H3",
        "InChIKey": null,
        "Canonical SMILES": "O(C)[Si](OC)(OC)CCC1CC=CCC1",
        "Molecular Formula": "C<sub>11</sub>H<sub>22</sub>O<sub>3</sub>Si",
        "Molecular Mass": "230.38",
        "Boiling Point": "109 °C @ Press: 6 Torr",
        "Density": "1.020 g/cm³"
    }
}