{
    "cas_no": "109371-20-2",
    "key_name": "Pyridine, 4-chloro-2,3,5-trimethyl-, 1-oxide",
    "cn_name": null,
    "alternate_name": "Pyridine, 4-chloro-2,3,5-trimethyl-, 1-oxide;4-Chloro-2,3,5-trimethylpyridine 1-oxide",
    "duplicated_cas_no": "",
    "SMILES": "ClC=1C(C)=C(C)N(=O)=CC1C",
    "meta_data": {
        "InChI": "InChI=1S/C8H10ClNO/c1-5-4-10(11)7(3)6(2)8(5)9/h4H,1-3H3",
        "InChIKey": null,
        "Canonical SMILES": "O=N1=CC(=C(Cl)C(=C1C)C)C",
        "Molecular Formula": "C<sub>8</sub>H<sub>10</sub>ClNO",
        "Molecular Mass": "171.62",
        "Melting Point": "148 °C"
    }
}