{
    "cas_no": "72063-39-9",
    "key_name": "Spinosin",
    "cn_name": "斯皮诺素;",
    "alternate_name": "4<em>H</em>-1-Benzopyran-4-one, 6-(2-<em>O</em>-β-<span class=\"text-smallcaps\">D</smallcap>-glucopyranosyl-β-<smallcap>D</span>-glucopyranosyl)-5-hydroxy-2-(4-hydroxyphenyl)-7-methoxy-;6-(2-<em>O</em>-β-<span class=\"text-smallcaps\">D</smallcap>-Glucopyranosyl-β-<smallcap>D</span>-glucopyranosyl)-5-hydroxy-2-(4-hydroxyphenyl)-7-methoxy-4<em>H</em>-1-benzopyran-4-one;Spinosin;Flavoayamenin;Swertisin 2′′-<em>O</em>-glucoside",
    "duplicated_cas_no": "",
    "SMILES": "O(C)C1=C(C(O)=C2C(=C1)OC(=CC2=O)C3=CC=C(O)C=C3)[C@H]4[C@H](O[C@@H]5O[C@H](CO)[C@@H](O)[C@H](O)[C@H]5O)[C@@H](O)[C@H](O)[C@@H](CO)O4",
    "meta_data": {
        "InChI": "InChI=1S/C28H32O15/c1-39-14-7-15-18(12(32)6-13(40-15)10-2-4-11(31)5-3-10)22(35)19(14)26-27(24(37)21(34)16(8-29)41-26)43-28-25(38)23(36)20(33)17(9-30)42-28/h2-7,16-17,20-21,23-31,33-38H,8-9H2,1H3/t16-,17-,20-,21-,23+,24+,25-,26+,27-,28+/m1/s1",
        "InChIKey": null,
        "Canonical SMILES": "O=C1C=C(OC=2C=C(OC)C(=C(O)C12)C3OC(CO)C(O)C(O)C3OC4OC(CO)C(O)C(O)C4O)C=5C=CC(O)=CC5",
        "Molecular Formula": "C<sub>28</sub>H<sub>32</sub>O<sub>15</sub>",
        "Molecular Mass": "608.54",
        "Melting Point": "149 °C"
    }
}