{
    "cas_no": "30345-49-4",
    "key_name": "Tetrabutylphosphonium acetate",
    "cn_name": "四丁基磷翁乙酸盐;四丁基醋酸膦;",
    "alternate_name": "Phosphonium, tetrabutyl-, acetate (1:1);Phosphonium, tetrabutyl-, acetate;Tetrabutylphosphonium acetate;Cyphos 441",
    "duplicated_cas_no": "",
    "SMILES": "[P+](CCCC)(CCCC)(CCCC)CCCC.C(C)([O-])=O",
    "meta_data": {
        "InChI": "InChI=1S/C16H36P.C2H4O2/c1-5-9-13-17(14-10-6-2,15-11-7-3)16-12-8-4;1-2(3)4/h5-16H2,1-4H3;1H3,(H,3,4)/q+1;/p-1",
        "InChIKey": null,
        "Canonical SMILES": "O=C([O-])C.CCCC[P+](CCCC)(CCCC)CCCC",
        "Molecular Formula": "C<sub>16</sub>H<sub>36</sub>P.C<sub>2</sub>H<sub>3</sub>O<sub>2</sub>",
        "Molecular Mass": "",
        "Melting Point": "46 °C",
        "Density": "0.9045 g/cm³ (liquid) @ Temp: 80.000 °C; Press: Atm pressure"
    }
}