{
    "cas_no": "94-44-0",
    "key_name": "Benzyl nicotinate",
    "cn_name": "烟酸苄酯;",
    "alternate_name": "3-Pyridinecarboxylic acid, phenylmethyl ester;Nicotinic acid, benzyl ester;Benzyl nicotinate;Benzyl pyridine-3-carboxylate;Niacin benzyl ester;Pyridine-3-carboxylic acid benzyl ester;Rubriment",
    "duplicated_cas_no": "",
    "SMILES": "C(OCC1=CC=CC=C1)(=O)C=2C=CC=NC2",
    "meta_data": {
        "InChI": "InChI=1S/C13H11NO2/c15-13(12-7-4-8-14-9-12)16-10-11-5-2-1-3-6-11/h1-9H,10H2",
        "InChIKey": null,
        "Canonical SMILES": "O=C(OCC=1C=CC=CC1)C=2C=NC=CC2",
        "Molecular Formula": "C<sub>13</sub>H<sub>11</sub>NO<sub>2</sub>",
        "Molecular Mass": "213.23",
        "Boiling Point": "170 °C",
        "Melting Point": "24 °C"
    }
}