{
    "cas_no": "6713-03-7",
    "key_name": "1-[(2-Hydroxyethyl)thio]-2-propanol",
    "cn_name": null,
    "alternate_name": "2-Propanol, 1-[(2-hydroxyethyl)thio]-;1-[(2-Hydroxyethyl)thio]-2-propanol;1-(2-Hydroxyethylthio)-2-propanol;SHP 100 (sulfide);SHP 100;2-Hydroxyethyl 2-hydroxypropyl thioether;1-[(2-Hydroxyethyl)sulfanyl]propan-2-ol;2-Hydroxypropyl 2-hydroxyethyl sulfide",
    "duplicated_cas_no": "285132-27-6",
    "SMILES": "C(SCCO)C(C)O",
    "meta_data": {
        "InChI": "InChI=1S/C5H12O2S/c1-5(7)4-8-3-2-6/h5-7H,2-4H2,1H3",
        "InChIKey": null,
        "Canonical SMILES": "OCCSCC(O)C",
        "Molecular Formula": "C<sub>5</sub>H<sub>12</sub>O<sub>2</sub>S",
        "Molecular Mass": "136.21",
        "Boiling Point": "154 °C @ Press: 8 Torr",
        "Density": "1.1281 g/cm³ @ Temp: 20 °C"
    }
}