{
    "cas_no": "1732-26-9",
    "key_name": "4-Bromopyrene",
    "cn_name": "4-溴芘;",
    "alternate_name": "Pyrene, 4-bromo-;4-Bromopyrene",
    "duplicated_cas_no": "",
    "SMILES": "BrC=1C=2C3=C4C(C1)=CC=CC4=CC=C3C=CC2",
    "meta_data": {
        "InChI": "InChI=1S/C16H9Br/c17-14-9-12-5-1-3-10-7-8-11-4-2-6-13(14)16(11)15(10)12/h1-9H",
        "InChIKey": null,
        "Canonical SMILES": "BrC1=CC=2C=CC=C3C=CC4=CC=CC1=C4C32",
        "Molecular Formula": "C<sub>16</sub>H<sub>9</sub>Br",
        "Molecular Mass": "281.15",
        "Melting Point": "148.2-150.2 °C"
    }
}