{
    "cas_no": "14615-72-6",
    "key_name": "3,5-Dibenzyloxybenzaldehyde",
    "cn_name": "3,5-二苄氧基苯甲醛;",
    "alternate_name": "Benzaldehyde, 3,5-bis(phenylmethoxy)-;Benzaldehyde, 3,5-bis(benzyloxy)-;3,5-Bis(phenylmethoxy)benzaldehyde;3,5-Dibenzyloxybenzaldehyde;3,5-Bis(benzyloxy)benzaldehyde",
    "duplicated_cas_no": "",
    "SMILES": "O(CC1=CC=CC=C1)C2=CC(OCC3=CC=CC=C3)=CC(C=O)=C2",
    "meta_data": {
        "InChI": "InChI=1S/C21H18O3/c22-14-19-11-20(23-15-17-7-3-1-4-8-17)13-21(12-19)24-16-18-9-5-2-6-10-18/h1-14H,15-16H2",
        "InChIKey": null,
        "Canonical SMILES": "O=CC=1C=C(OCC=2C=CC=CC2)C=C(OCC=3C=CC=CC3)C1",
        "Molecular Formula": "C<sub>21</sub>H<sub>18</sub>O<sub>3</sub>",
        "Molecular Mass": "318.37",
        "Melting Point": "80-80.5 °C"
    }
}