{
    "cas_no": "3027-13-2",
    "key_name": "3′-Methoxyphenyl-2-propanone",
    "cn_name": null,
    "alternate_name": "2-Propanone, 1-(3-methoxyphenyl)-;2-Propanone, 1-(<em>m</em>-methoxyphenyl)-;2-Propanone, (<em>m</em>-methoxyphenyl)-;1-(3-Methoxyphenyl)-2-propanone;(<em>m</em>-Methoxyphenyl)acetone;3-Methoxybenzyl methyl ketone;(3-Methoxyphenyl)acetone;1-(<em>m</em>-Methoxyphenyl)-2-propanone;3′-Methoxyphenyl-2-propanone;1-(3-Methoxyphenyl)acetone",
    "duplicated_cas_no": "",
    "SMILES": "C(C(C)=O)C1=CC(OC)=CC=C1",
    "meta_data": {
        "InChI": "InChI=1S/C10H12O2/c1-8(11)6-9-4-3-5-10(7-9)12-2/h3-5,7H,6H2,1-2H3",
        "InChIKey": null,
        "Canonical SMILES": "O=C(C)CC=1C=CC=C(OC)C1",
        "Molecular Formula": "C<sub>10</sub>H<sub>12</sub>O<sub>2</sub>",
        "Molecular Mass": "164.20",
        "Boiling Point": "259 °C"
    }
}