{
    "cas_no": "622-86-6",
    "key_name": "(2-Chloroethoxy)benzene",
    "cn_name": "2-氯苯乙醚;苯氧乙基氯;2-氯乙基苯基醚;",
    "alternate_name": "Benzene, (2-chloroethoxy)-;Phenetole, β-chloro-;(2-Chloroethoxy)benzene;2-Phenoxyethyl chloride;β-Chlorophenetole;1-Phenoxy-2-chloroethane;2-Chloroethyl phenyl ether;1-Chloro-2-phenoxyethane;NSC 1073",
    "duplicated_cas_no": "",
    "SMILES": "O(CCCl)C1=CC=CC=C1",
    "meta_data": {
        "InChI": "InChI=1S/C8H9ClO/c9-6-7-10-8-4-2-1-3-5-8/h1-5H,6-7H2",
        "InChIKey": null,
        "Canonical SMILES": "ClCCOC=1C=CC=CC1",
        "Molecular Formula": "C<sub>8</sub>H<sub>9</sub>ClO",
        "Molecular Mass": "156.61",
        "Boiling Point": "218.5 °C",
        "Melting Point": "28 °C",
        "Density": "1.132 g/cm³ @ Temp: 20 °C"
    }
}