{
    "cas_no": "2554-06-5",
    "key_name": "1,3,5,7-Tetramethyl-1,3,5,7-tetravinylcyclotetrasiloxane",
    "cn_name": "四甲基四乙烯基环四硅氧烷;",
    "alternate_name": "Cyclotetrasiloxane, 2,4,6,8-tetraethenyl-2,4,6,8-tetramethyl-;Cyclotetrasiloxane, 2,4,6,8-tetramethyl-2,4,6,8-tetravinyl-;2,4,6,8-Tetraethenyl-2,4,6,8-tetramethylcyclotetrasiloxane;1,3,5,7-Tetramethyl-1,3,5,7-tetravinylcyclotetrasiloxane;<em>s</em>-Tetramethyltetravinylcyclotetrasiloxane;Tetramethyltetravinylcyclotetrasiloxane;2,4,6,8-Tetramethyl-2,4,6,8-tetravinylcyclotetrasiloxane;1,3,5,7-Tetramethyltetravinylcyclotetrasiloxane;2,4,6,8-Tetravinyl-2,4,6,8-tetramethylcyclotetrasiloxane;PS 925;LS 8670;SIT 7900;1,3,5,7-Tetravinyl-1,3,5,7-tetramethylcyclotetrasiloxane;VMC;2,4,6,8-Tetramethyl-2,4,6,8-tetravinylcycloterasiloxane;VM 20;MVS-H;Vinyl D 4;PS 925 (siloxane);D 4Vi;VMS 005;H 50614;Fluka 87927;2,4,6,8-Tetramethyl-2,4,6,8-tetravinyl-1,3,5,7,2,4,6,8-tetraoxatetrasilocane;2,4,6,8-Tetrakis(ethenyl)-2,4,6,8-tetramethyl-1,3,5,7,2,4,6,8-tetraoxatetrasilocane;Andisil MVC;CB 802V;V 4;USi 06414;Dowsil 1-2287;Dowsil 1-2287 Intermediate;SIT 7900.0;SIT 900.0;DowsilDowsil 1-687;ViD 4;D 4V (siloxane)",
    "duplicated_cas_no": "83891-38-7;209249-07-0;250699-00-4;1593696-56-0",
    "SMILES": "C(=C)[Si]1(C)O[Si](C=C)(C)O[Si](C=C)(C)O[Si](C=C)(C)O1",
    "meta_data": {
        "InChI": "InChI=1S/C12H24O4Si4/c1-9-17(5)13-18(6,10-2)15-20(8,12-4)16-19(7,11-3)14-17/h9-12H,1-4H2,5-8H3",
        "InChIKey": null,
        "Canonical SMILES": "O1[Si](O[Si](O[Si](O[Si]1(C=C)C)(C=C)C)(C=C)C)(C=C)C",
        "Molecular Formula": "C<sub>12</sub>H<sub>24</sub>O<sub>4</sub>Si<sub>4</sub>",
        "Molecular Mass": "344.66",
        "Boiling Point": "224 °C",
        "Melting Point": "-43.5 °C",
        "Density": "0.998 g/cm³"
    }
}