{
    "cas_no": "17086-76-9",
    "key_name": "Cyasterone",
    "cn_name": "杯苋甾酮;杯觅甾酮;",
    "alternate_name": "Stigmast-7-en-26-oic acid, 2,3,14,20,22,28-hexahydroxy-6-oxo-, γ-lactone, (2β,3β,5β,22<em>R</em>,24<em>S</em>,25<em>S</em>,28<em>R</em>)-;5β-Stigmast-7-en-26-oic acid, 2β,3β,14,20,22,28-hexahydroxy-6-oxo-, γ-lactone, (22<em>R</em>,24<em>S</em>,25<em>S</em>,28<em>R</em>)-;Cyasterone;Cyasteron",
    "duplicated_cas_no": "",
    "SMILES": "O[C@]12C=3[C@@]([C@]4(C)[C@](C(=O)C3)(C[C@@H](O)[C@@H](O)C4)[H])(CC[C@]1(C)[C@@]([C@@]([C@@H](C[C@H]5[C@H](C)C(=O)O[C@@H]5C)O)(C)O)(CC2)[H])[H]",
    "meta_data": {
        "InChI": "InChI=1S/C29H44O8/c1-14-16(15(2)37-25(14)34)10-24(33)28(5,35)23-7-9-29(36)18-11-20(30)19-12-21(31)22(32)13-26(19,3)17(18)6-8-27(23,29)4/h11,14-17,19,21-24,31-33,35-36H,6-10,12-13H2,1-5H3/t14-,15+,16-,17-,19-,21+,22-,23-,24+,26+,27+,28+,29+/m0/s1",
        "InChIKey": null,
        "Canonical SMILES": "O=C1OC(C)C(CC(O)C(O)(C)C2CCC3(O)C4=CC(=O)C5CC(O)C(O)CC5(C)C4CCC23C)C1C",
        "Molecular Formula": "C<sub>29</sub>H<sub>44</sub>O<sub>8</sub>",
        "Molecular Mass": "520.65",
        "Melting Point": "164-166 °C"
    }
}