{
    "cas_no": "672-75-3",
    "key_name": "3-Bromo-4-fluorobenzoyl chloride",
    "cn_name": null,
    "alternate_name": "Benzoyl chloride, 3-bromo-4-fluoro-;3-Bromo-4-fluorobenzoyl chloride",
    "duplicated_cas_no": "",
    "SMILES": "C(Cl)(=O)C1=CC(Br)=C(F)C=C1",
    "meta_data": {
        "InChI": "InChI=1S/C7H3BrClFO/c8-5-3-4(7(9)11)1-2-6(5)10/h1-3H",
        "InChIKey": null,
        "Canonical SMILES": "O=C(Cl)C1=CC=C(F)C(Br)=C1",
        "Molecular Formula": "C<sub>7</sub>H<sub>3</sub>BrClFO",
        "Molecular Mass": "237.45",
        "Melting Point": "43-45 °C"
    }
}