{
    "cas_no": "617-88-9",
    "key_name": "2-(Chloromethyl)furan",
    "cn_name": "2-氯甲基呋喃;",
    "alternate_name": "Furan, 2-(chloromethyl)-;2-(Chloromethyl)furan;α-Furfuryl chloride;Furfuryl chloride;α-Furylmethyl chloride;NSC 929;2-Furfuryl chloride;2-Furylmethyl chloride;Furan-2-ylmethyl chloride",
    "duplicated_cas_no": "",
    "SMILES": "C(Cl)C1=CC=CO1",
    "meta_data": {
        "InChI": "InChI=1S/C5H5ClO/c6-4-5-2-1-3-7-5/h1-3H,4H2",
        "InChIKey": null,
        "Canonical SMILES": "ClCC=1OC=CC1",
        "Molecular Formula": "C<sub>5</sub>H<sub>5</sub>ClO",
        "Molecular Mass": "116.55",
        "Boiling Point": "49.1-49.4 °C @ Press: 26 Torr",
        "Density": "1.1804 g/cm³ @ Temp: 20 °C"
    }
}