{
    "cas_no": "7169-95-1",
    "key_name": "6-Bromo-2-methyl[1,2,4]triazolo[1,5-<em>a</em>]pyridine",
    "cn_name": null,
    "alternate_name": "[1,2,4]Triazolo[1,5-<em>a</em>]pyridine, 6-bromo-2-methyl-;<em>s</em>-Triazolo[1,5-<em>a</em>]pyridine, 6-bromo-2-methyl-;6-Bromo-2-methyl[1,2,4]triazolo[1,5-<em>a</em>]pyridine",
    "duplicated_cas_no": "",
    "SMILES": "CC=1N=C2N(N1)C=C(Br)C=C2",
    "meta_data": {
        "InChI": "InChI=1S/C7H6BrN3/c1-5-9-7-3-2-6(8)4-11(7)10-5/h2-4H,1H3",
        "InChIKey": null,
        "Canonical SMILES": "BrC=1C=CC2=NC(=NN2C1)C",
        "Molecular Formula": "C<sub>7</sub>H<sub>6</sub>BrN<sub>3</sub>",
        "Molecular Mass": "212.05",
        "Melting Point": "153-155 °C"
    }
}