{
    "cas_no": "1944-12-3",
    "key_name": "Fenoterol hydrobromide",
    "cn_name": "氢溴酸芬忒醇;",
    "alternate_name": "1,3-Benzenediol, 5-[1-hydroxy-2-[[2-(4-hydroxyphenyl)-1-methylethyl]amino]ethyl]-, hydrobromide (1:1);Benzyl alcohol, 3,5-dihydroxy-α-[[(<em>p</em>-hydroxy-α-methylphenethyl)amino]methyl]-, hydrobromide;1,3-Benzenediol, 5-[1-hydroxy-2-[[2-(4-hydroxyphenyl)-1-methylethyl]amino]ethyl]-, hydrobromide;3,5-Dihydroxy-α-[[(<em>p</em>-hydroxy-α-methylphenethyl)amino]methyl]benzyl alc. monohydrobromide;Th 1165a;1-(<em>p</em>-Hydroxyphenyl)-2-(β-3′,5′-dihydroxyphenyl-β-hydroxy)ethylaminopropane hydrobromide;3,5-Dihydroxy-α-[(<em>p</em>-hydroxy-α-methylphenethyl)amino]methylbenzyl alcohol hydrobromide;1-(3,5-Dihydroxyphenyl)-2-[2-(3-<em>p</em>-hydroxyphenyl)propylamino]ethanol hydrobromide;Fenoterol hydrobromide;Berotec;Partusisten;Fenoterol bromide;Phenoterol hydrobromide;Airum;Dosberotec",
    "duplicated_cas_no": "",
    "SMILES": "C(CNC(CC1=CC=C(O)C=C1)C)(O)C2=CC(O)=CC(O)=C2.Br",
    "meta_data": {
        "InChI": "InChI=1S/C17H21NO4.BrH/c1-11(6-12-2-4-14(19)5-3-12)18-10-17(22)13-7-15(20)9-16(21)8-13;/h2-5,7-9,11,17-22H,6,10H2,1H3;1H",
        "InChIKey": null,
        "Canonical SMILES": "Br.OC1=CC=C(C=C1)CC(NCC(O)C=2C=C(O)C=C(O)C2)C",
        "Molecular Formula": "C<sub>17</sub>H<sub>21</sub>NO<sub>4</sub>.BrH",
        "Molecular Mass": "",
        "Melting Point": "222-223 °C"
    }
}