{
    "cas_no": "93-50-5",
    "key_name": "4-Chloro-2-methoxybenzenamine",
    "cn_name": "4-氯-2-甲氧基苯胺;",
    "alternate_name": "Benzenamine, 4-chloro-2-methoxy-;<em>o</em>-Anisidine, 4-chloro-;4-Chloro-2-methoxybenzenamine;5-Chloro-2-aminoanisole;4-Chloro-<em>o</em>-anisidine;4-Chloro-2-methoxyaniline;<em>p</em>-Chloro-<em>o</em>-anisidine;4-Chloro-2-anisidine;2-Methoxy-4-chloroaniline;1-Amino-4-chloro-2-methoxybenzene;2-Amino-5-chloroanisole;(4-Chloro-2-methoxyphenyl)amine",
    "duplicated_cas_no": "",
    "SMILES": "O(C)C1=C(N)C=CC(Cl)=C1",
    "meta_data": {
        "InChI": "InChI=1S/C7H8ClNO/c1-10-7-4-5(8)2-3-6(7)9/h2-4H,9H2,1H3",
        "InChIKey": null,
        "Canonical SMILES": "ClC1=CC=C(N)C(OC)=C1",
        "Molecular Formula": "C<sub>7</sub>H<sub>8</sub>ClNO",
        "Molecular Mass": "157.60",
        "Boiling Point": "260 °C",
        "Melting Point": "52 °C"
    }
}