{
    "cas_no": "78-84-2",
    "key_name": "Isobutyraldehyde",
    "cn_name": "异丁醛;2-甲基丙醛;",
    "alternate_name": "Propanal, 2-methyl-;Isobutyraldehyde;2-Methylpropanal;Isobutanal;Isobutyric aldehyde;2-Methylpropionaldehyde;Isobutyryl aldehyde;Isopropylformaldehyde;<em>iso</em>-Butyraldehyde;α-Methylpropionaldehyde;2-Methyl-1-propanal;Isobutyral;2-Formylpropane;Dimethylacetaldehyde;Isopropylcarboxaldehyde;NSC 6739;2-Propanecarboxaldehyde;Isobutyroaldehyde",
    "duplicated_cas_no": "26140-46-5",
    "SMILES": "C(C=O)(C)C",
    "meta_data": {
        "InChI": "InChI=1S/C4H8O/c1-4(2)3-5/h3-4H,1-2H3",
        "InChIKey": null,
        "Canonical SMILES": "O=CC(C)C",
        "Molecular Formula": "C<sub>4</sub>H<sub>8</sub>O",
        "Molecular Mass": "72.11",
        "Boiling Point": "64 °C @ Press: 760 Torr",
        "Melting Point": "-65.9 °C",
        "Density": "0.7938 g/cm³ @ Temp: 20 °C"
    }
}