{
    "cas_no": "95635-56-6",
    "key_name": "Ranolazine hydrochloride",
    "cn_name": "盐酸雷诺嗪;N-(2,6-二甲基苯基)-4-[2-羟基-3-(2-甲氧苯氧基)丙基]-1-哌嗪乙酰胺盐酸盐;",
    "alternate_name": "1-Piperazineacetamide, <em>N</em>-(2,6-dimethylphenyl)-4-[2-hydroxy-3-(2-methoxyphenoxy)propyl]-, hydrochloride (1:2);1-Piperazineacetamide, <em>N</em>-(2,6-dimethylphenyl)-4-[2-hydroxy-3-(2-methoxyphenoxy)propyl]-, dihydrochloride, (±)-;1-Piperazineacetamide, <em>N</em>-(2,6-dimethylphenyl)-4-[2-hydroxy-3-(2-methoxyphenoxy)propyl]-, dihydrochloride;(±)-RS 43285-193;RS 43285;RS 43285-193;Ranolazine hydrochloride;Ranolazine dihydrochloride",
    "duplicated_cas_no": "110445-25-5;142387-98-2;94386-66-0",
    "SMILES": "O(CC(CN1CCN(CC(NC2=C(C)C=CC=C2C)=O)CC1)O)C3=C(OC)C=CC=C3.Cl",
    "meta_data": {
        "InChI": "InChI=1S/C24H33N3O4.2ClH/c1-18-7-6-8-19(2)24(18)25-23(29)16-27-13-11-26(12-14-27)15-20(28)17-31-22-10-5-4-9-21(22)30-3;;/h4-10,20,28H,11-17H2,1-3H3,(H,25,29);2*1H",
        "InChIKey": null,
        "Canonical SMILES": "Cl.O=C(NC=1C(=CC=CC1C)C)CN2CCN(CC2)CC(O)COC=3C=CC=CC3OC",
        "Molecular Formula": "C<sub>24</sub>H<sub>33</sub>N<sub>3</sub>O<sub>4</sub>.2ClH",
        "Molecular Mass": "",
        "Melting Point": "164-166 °C"
    }
}