{
    "cas_no": "1100-88-5",
    "key_name": "Benzyltriphenylphosphonium chloride",
    "cn_name": "苄基三苯基氯化膦;",
    "alternate_name": "Phosphonium, triphenyl(phenylmethyl)-, chloride (1:1);Phosphonium, benzyltriphenyl-, chloride;Benzyltriphenylphosphonium chloride;Phosphonium, triphenyl(phenylmethyl)-, chloride;Triphenylbenzylphosphonium chloride;GM 200;NSC 116712;BTPPC;BPP;TPP-ZC;Accelerator BPP",
    "duplicated_cas_no": "13246-50-9;127463-89-2;917100-19-7;1927850-93-8",
    "SMILES": "[P+](CC1=CC=CC=C1)(C2=CC=CC=C2)(C3=CC=CC=C3)C4=CC=CC=C4.[Cl-]",
    "meta_data": {
        "InChI": "InChI=1S/C25H22P.ClH/c1-5-13-22(14-6-1)21-26(23-15-7-2-8-16-23,24-17-9-3-10-18-24)25-19-11-4-12-20-25;/h1-20H,21H2;1H/q+1;/p-1",
        "InChIKey": null,
        "Canonical SMILES": "[Cl-].C=1C=CC(=CC1)C[P+](C=2C=CC=CC2)(C=3C=CC=CC3)C=4C=CC=CC4",
        "Molecular Formula": "C<sub>25</sub>H<sub>22</sub>P.Cl",
        "Molecular Mass": "",
        "Melting Point": "314-315 °C"
    }
}