{
    "cas_no": "93107-08-5",
    "key_name": "Ciprofloxacin hydrochloride",
    "cn_name": null,
    "alternate_name": "3-Quinolinecarboxylic acid, 1-cyclopropyl-6-fluoro-1,4-dihydro-4-oxo-7-(1-piperazinyl)-, hydrochloride (1:1);3-Quinolinecarboxylic acid, 1-cyclopropyl-6-fluoro-1,4-dihydro-4-oxo-7-(1-piperazinyl)-, monohydrochloride;Ciprofloxacin hydrochloride;Cipro;Ciproxan;BAY-o 9867;Cipro (pharmaceutical);Ciprocin;Ciflodal;Proflaxin;Ciprowin;Ciflox;Ciproquinol;Ciprinol;Ciprolin;Citopcin;Roxytal;Rancif;Probiox;Cetraxal;Ciprobiotic;Quintor;Quinolide;Ciriax;Alcon Cilox;Ciproxin;Kenzoflex;Ciprok;Ciproxine;Spitacin;Cilab;Ciprecu;Sophixin Ofteno;Opthaflox;Cipromycin;Unex;Proflox;Baflox;Cifran;Bacquinor;Zumaflox;Ciproflox;Cycin;Proksi 250;Septicide;Corsacin;Uniflox;Proksi 500;Nivoflox;Cosflox;Ciplus;Mitroken;Cyprobay;Ciprocinol;Loxan;Cixan;Ipiflox;Cimogal;Cifloxin;Fimoflox;Ciprobay Uro;Superocin;Ciprogis;Ciprodar;Ciprolon;Bernoflox;Ciplox;Eni;Medociprin;Baycip;Ciloxan;Ciprobay;Ciprobid;NSC 620634;Microrgan;Belmacina;Ringoran;Estecina;Ciploxx;Cipro optic;Ciprofar;Sipro 250;Bactiflox;Serviflox;Adiflox;Zoxan;Ciproben 250;Quindrops;Cipromid;Cipromax;1-Cyclopropyl-6-fluoro-1,4-dihydro-4-oxo-7-(1-piperazinyl)-3-quinolinecarboxylic acid hydrochloride;1-Cyclopropyl-6-fluoro-4-oxo-7-piperazin-1-yl-1,4-dihydroquinoline-3-carboxylic acid hydrochloride",
    "duplicated_cas_no": "",
    "SMILES": "O=C1C=2C(N(C=C1C(O)=O)C3CC3)=CC(=C(F)C2)N4CCNCC4.Cl",
    "meta_data": {
        "InChI": "InChI=1S/C17H18FN3O3.ClH/c18-13-7-11-14(8-15(13)20-5-3-19-4-6-20)21(10-1-2-10)9-12(16(11)22)17(23)24;/h7-10,19H,1-6H2,(H,23,24);1H",
        "InChIKey": null,
        "Canonical SMILES": "Cl.O=C(O)C1=CN(C2=CC(=C(F)C=C2C1=O)N3CCNCC3)C4CC4",
        "Molecular Formula": "C<sub>17</sub>H<sub>18</sub>FN<sub>3</sub>O<sub>3</sub>.ClH",
        "Molecular Mass": "",
        "Melting Point": "&gt;300 °C"
    }
}