{
    "cas_no": "2516-33-8",
    "key_name": "Cyclopropanemethanol",
    "cn_name": "羟甲基环丙烷;环丙基甲醇;",
    "alternate_name": "Cyclopropanemethanol;Cyclopropylcarbinol;Cyclopropylmethanol;Cyclopropylcarbinyl alcohol;Cyclopropylmethyl alcohol;Cyclopropanemethyl alcohol;(Hydroxymethyl)cyclopropane;NSC 85925",
    "duplicated_cas_no": "",
    "SMILES": "C(O)C1CC1",
    "meta_data": {
        "InChI": "InChI=1S/C4H8O/c5-3-4-1-2-4/h4-5H,1-3H2",
        "InChIKey": null,
        "Canonical SMILES": "OCC1CC1",
        "Molecular Formula": "C<sub>4</sub>H<sub>8</sub>O",
        "Molecular Mass": "72.11",
        "Boiling Point": "123 °C",
        "Density": "0.911 g/cm³ @ Temp: 425 °C"
    }
}