{
    "cas_no": "118-61-6",
    "key_name": "Ethyl salicylate",
    "cn_name": "水杨酸乙酯;2-羟基苯甲酸乙酯;柳酸乙酯;邻羟基苯甲酸乙酯;",
    "alternate_name": "Benzoic acid, 2-hydroxy-, ethyl ester;Salicylic acid, ethyl ester;Ethyl <em>o</em>-hydroxybenzoate;Ethyl salicylate;Salicylic ether;Sal Ethyl;Ethyl 2-hydroxybenzoate;Mesotol;Salotan;<em>o</em>-(Ethoxycarbonyl)phenol;2-Ethoxycarbonylphenol;2-Hydroxybenzoic acid ethyl ester;NSC 8209;2-Carboethoxyphenol",
    "duplicated_cas_no": "1476043-16-9",
    "SMILES": "C(OCC)(=O)C1=C(O)C=CC=C1",
    "meta_data": {
        "InChI": "InChI=1S/C9H10O3/c1-2-12-9(11)7-5-3-4-6-8(7)10/h3-6,10H,2H2,1H3",
        "InChIKey": null,
        "Canonical SMILES": "O=C(OCC)C=1C=CC=CC1O",
        "Molecular Formula": "C<sub>9</sub>H<sub>10</sub>O<sub>3</sub>",
        "Molecular Mass": "166.17",
        "Boiling Point": "232.5 °C",
        "Melting Point": "1 °C",
        "Density": "1.1299 g/cm³ @ Temp: 20 °C"
    }
}