{
    "cas_no": "166410-05-5",
    "key_name": "1,2-Bis(1,1-dimethylethyl) (2<em>S</em>)-4-oxo-1,2-pyrrolidinedicarboxylate",
    "cn_name": "N-Boc-4-氧代-L-脯氨酸叔丁酯;N-BOC-4-氧代-L-脯氨酸叔丁酯;N-BOC-4-氧-L-脯氨酸叔丁酯;",
    "alternate_name": "1,2-Pyrrolidinedicarboxylic acid, 4-oxo-, 1,2-bis(1,1-dimethylethyl) ester, (2<em>S</em>)-;1,2-Pyrrolidinedicarboxylic acid, 4-oxo-, bis(1,1-dimethylethyl) ester, (<em>S</em>)-;1,2-Pyrrolidinedicarboxylic acid, 4-oxo-, bis(1,1-dimethylethyl) ester, (2<em>S</em>)-;1,2-Bis(1,1-dimethylethyl) (2<em>S</em>)-4-oxo-1,2-pyrrolidinedicarboxylate;(2<em>S</em>)-4-Oxopyrrolidine-1,2-dicarboxylic acid di(<em>tert</em>-butyl) ester;Di-<em>tert</em>-butyl (2S)-4-oxopyrrolidine-1,2-dicarboxylate",
    "duplicated_cas_no": "",
    "SMILES": "C(OC(C)(C)C)(=O)[C@H]1N(C(OC(C)(C)C)=O)CC(=O)C1",
    "meta_data": {
        "InChI": "InChI=1S/C14H23NO5/c1-13(2,3)19-11(17)10-7-9(16)8-15(10)12(18)20-14(4,5)6/h10H,7-8H2,1-6H3/t10-/m0/s1",
        "InChIKey": null,
        "Canonical SMILES": "O=C(OC(C)(C)C)N1CC(=O)CC1C(=O)OC(C)(C)C",
        "Molecular Formula": "C<sub>14</sub>H<sub>23</sub>NO<sub>5</sub>",
        "Molecular Mass": "285.34",
        "Melting Point": "66-67 °C"
    }
}