{
    "cas_no": "51-34-3",
    "key_name": "(-)-Scopolamine",
    "cn_name": null,
    "alternate_name": "Benzeneacetic acid, α-(hydroxymethyl)-, (1α,2β,4β,5α,7β)-9-methyl-3-oxa-9-azatricyclo[3.3.1.0<sup>2,4</sup>]non-7-yl ester, (α<em>S</em>)-;1α<span class=\"text-smallcaps\">H</smallcap>,5α<smallcap>H</span>-Tropan-3α-ol, 6β,7β-epoxy-, (-)-tropate (ester);Benzeneacetic acid, α-(hydroxymethyl)-, 9-methyl-3-oxa-9-azatricyclo[3.3.1.0<sup>2,4</sup>]non-7-yl ester, [7(<em>S</em>)-(1α,2β,4β,5α,7β)]-;3-Oxa-9-azatricyclo[3.3.1.0<sup>2,4</sup>]nonane, benzeneacetic acid deriv.;Scopolamine;Atrochin;Atroquin;(-)-Hyoscine;Hyoscine;9-Methyl-3-oxa-9-azatricyclo[3.3.1.0<sup>2,4</sup>]nonan-7-ol (-)-tropate;(-)-Scopolamine;Scopine (-)-tropate;6β,7β-Epoxy-3α-tropanyl <em>S</em>-(-)-tropate;6,7-Epoxytropine tropate;Scopine tropate;SEE;<em>l</em>-Scopolamine;Transderm-Scop;Scop;Scopoderm TTS;Tropic acid ester with scopine;Transcop",
    "duplicated_cas_no": "97991-84-9;14797-94-5;28901-63-5;58670-87-4;65319-33-7;226562-00-1",
    "SMILES": "CN1[C@@]2([C@]3([C@](O3)([C@]1(C[C@@H](OC([C@H](CO)C4=CC=CC=C4)=O)C2)[H])[H])[H])[H]",
    "meta_data": {
        "InChI": "InChI=1S/C17H21NO4/c1-18-13-7-11(8-14(18)16-15(13)22-16)21-17(20)12(9-19)10-5-3-2-4-6-10/h2-6,11-16,19H,7-9H2,1H3/t11-,12-,13-,14+,15-,16+/m1/s1",
        "InChIKey": null,
        "Canonical SMILES": "O=C(OC1CC2N(C)C(C1)C3OC32)C(C=4C=CC=CC4)CO",
        "Molecular Formula": "C<sub>17</sub>H<sub>21</sub>NO<sub>4</sub>",
        "Molecular Mass": "303.35",
        "Melting Point": "55 °C"
    }
}