{
    "cas_no": "33419-42-0",
    "key_name": "Etoposide",
    "cn_name": "依托泊苷;依托泊甙;足叶乙甙;鬼臼亚乙基苷;4\"-去甲基表鬼臼毒素-beta-D-乙叉吡喃葡萄糖甙;",
    "alternate_name": "Furo[3′,4′:6,7]naphtho[2,3-<em>d</em>]-1,3-dioxol-6(5a<em>H</em>)-one, 9-[[4,6-<em>O</em>-(1<em>R</em>)-ethylidene-β-<span class=\"text-smallcaps\">D</span>-glucopyranosyl]oxy]-5,8,8a,9-tetrahydro-5-(4-hydroxy-3,5-dimethoxyphenyl)-, (5<em>R</em>,5a<em>R</em>,8a<em>R</em>,9<em>S</em>)-;Epipodophyllotoxin, 4′-demethyl-, 4,6-<em>O</em>-ethylidene-β-<span class=\"text-smallcaps\">D</span>-glucopyranoside;Furo[3′,4′:6,7]naphtho[2,3-<em>d</em>]-1,3-dioxol-6(5a<em>H</em>)-one, 9-[(4,6-<em>O</em>-ethylidene-β-<span class=\"text-smallcaps\">D</span>-glucopyranosyl)oxy]-5,8,8a,9-tetrahydro-5-(4-hydroxy-3,5-dimethoxyphenyl)-, [5<em>R</em>-[5α,5aβ,8aα,9β(<em>R</em>*)]]-;Pyrano[3,2-<em>d</em>]-1,3-dioxin, furo[3′,4′:6,7]naphtho[2,3-<em>d</em>]-1,3-dioxol-6(5a<em>H</em>)-one deriv.;(5<em>R</em>,5a<em>R</em>,8a<em>R</em>,9<em>S</em>)-9-[[4,6-<em>O</em>-(1<em>R</em>)-Ethylidene-β-<span class=\"text-smallcaps\">D</span>-glucopyranosyl]oxy]-5,8,8a,9-tetrahydro-5-(4-hydroxy-3,5-dimethoxyphenyl)furo[3′,4′:6,7]naphtho[2,3-<em>d</em>]-1,3-dioxol-6(5a<em>H</em>)-one;4′-Demethyl-1-<em>O</em>-[4,6-<em>O</em>-(ethylidene)-β-<span class=\"text-smallcaps\">D</span>-glucopyranosyl]epipodophyllotoxin;4′-Demethylepipodophyllotoxin ethylidene-β-<span class=\"text-smallcaps\">D</span>-glucoside;VP 16-213;Etoposide;NSC 141540;4′-Demethylepipodophyllotoxin 9-(4,6-<em>O</em>-ethylidene-β-<span class=\"text-smallcaps\">D</span>-glucopyranoside);VP 16;(-)-Etoposide;VP 16-123;VePesid;Lastet;Zuyeyidal;<em>trans</em>-Etoposide;VP 16 (pharmaceutical);EPE;Epipodophyllotoxin VP 16213;Vepesid J;Toposar;Celltop;Eto-Gry;Etosid;Fytosid;Eposin;Sintopozid;Eposed;Fytop;Nzytop;Topok;Beposid;Bioposide;Ethopul;Toposide;MeSH ID: D005047",
    "duplicated_cas_no": "121471-01-0;136598-18-0;35317-32-9;51854-34-3;76576-58-4;201594-04-9",
    "SMILES": "O=C1[C@@]2([C@@H](C=3C([C@@H](O[C@@H]4O[C@]5([C@]([C@H](O)[C@H]4O)(O[C@H](C)OC5)[H])[H])[C@]2(CO1)[H])=CC6=C(C3)OCO6)C7=CC(OC)=C(O)C(OC)=C7)[H]",
    "meta_data": {
        "InChI": "InChI=1S/C29H32O13/c1-11-36-9-20-27(40-11)24(31)25(32)29(41-20)42-26-14-7-17-16(38-10-39-17)6-13(14)21(22-15(26)8-37-28(22)33)12-4-18(34-2)23(30)19(5-12)35-3/h4-7,11,15,20-22,24-27,29-32H,8-10H2,1-3H3/t11-,15+,20-,21-,22+,24-,25-,26-,27-,29+/m1/s1",
        "InChIKey": null,
        "Canonical SMILES": "O=C1OCC2C(OC3OC4COC(OC4C(O)C3O)C)C5=CC=6OCOC6C=C5C(C7=CC(OC)=C(O)C(OC)=C7)C12",
        "Molecular Formula": "C<sub>29</sub>H<sub>32</sub>O<sub>13</sub>",
        "Molecular Mass": "588.56",
        "Melting Point": "236-251 °C"
    }
}