{
    "cas_no": "10527-64-7",
    "key_name": "4-(Diphenylmethyl)-1-piperazineethanol",
    "cn_name": null,
    "alternate_name": "1-Piperazineethanol, 4-(diphenylmethyl)-;4-(Diphenylmethyl)-1-piperazineethanol;<em>N</em>-(Diphenylmethyl)-<em>N</em>′-(2-hydroxyethyl)piperazine;4-Benzhydryl-1-piperazineethanol;1-Diphenylmethyl-4-(2-hydroxyethyl)piperazine;2-(4-Benzhydrylpiperazin-1-yl)ethanol",
    "duplicated_cas_no": "",
    "SMILES": "C(N1CCN(CCO)CC1)(C2=CC=CC=C2)C3=CC=CC=C3",
    "meta_data": {
        "InChI": "InChI=1S/C19H24N2O/c22-16-15-20-11-13-21(14-12-20)19(17-7-3-1-4-8-17)18-9-5-2-6-10-18/h1-10,19,22H,11-16H2",
        "InChIKey": null,
        "Canonical SMILES": "OCCN1CCN(CC1)C(C=2C=CC=CC2)C=3C=CC=CC3",
        "Molecular Formula": "C<sub>19</sub>H<sub>24</sub>N<sub>2</sub>O",
        "Molecular Mass": "296.41",
        "Boiling Point": "180 °C @ Press: 0.01 Torr"
    }
}