{
    "cas_no": "90914-81-1",
    "key_name": "<em>N</em>-(4-Bromo-3-methylphenyl)acetamide",
    "cn_name": "4-溴-3-甲基乙酰苯胺;",
    "alternate_name": "Acetamide, <em>N</em>-(4-bromo-3-methylphenyl)-;<em>m</em>-Acetotoluidide, 4′-bromo-;<em>N</em>-(4-Bromo-3-methylphenyl)acetamide;4′-Bromo-3′-methylacetanilide;3-Methyl-4-bromo-<em>N</em>-acetylaniline",
    "duplicated_cas_no": "",
    "SMILES": "N(C(C)=O)C1=CC(C)=C(Br)C=C1",
    "meta_data": {
        "InChI": "InChI=1S/C9H10BrNO/c1-6-5-8(11-7(2)12)3-4-9(6)10/h3-5H,1-2H3,(H,11,12)",
        "InChIKey": null,
        "Canonical SMILES": "O=C(NC1=CC=C(Br)C(=C1)C)C",
        "Molecular Formula": "C<sub>9</sub>H<sub>10</sub>BrNO",
        "Molecular Mass": "228.09",
        "Melting Point": "103-104 °C"
    }
}