{
    "cas_no": "2682-45-3",
    "key_name": "2-Methylnaphtho[1,2-<em>d</em>]thiazole",
    "cn_name": "2-甲基-beta-萘并噻唑;2-甲基-beta-萘并硫氮茂;",
    "alternate_name": "Naphtho[1,2-<em>d</em>]thiazole, 2-methyl-;2-Methylnaphtho[1,2-<em>d</em>]thiazole;2-Methyl-β-naphthothiazole;2-Methyl-β-naphthiazole;NSC 332548;2-Methyl-α-naphthothiazole;2-Methylnaphtho[1,2-<em>d</em>][1,3]thiazole",
    "duplicated_cas_no": "",
    "SMILES": "CC1=NC=2C=3C(C=CC2S1)=CC=CC3",
    "meta_data": {
        "InChI": "InChI=1S/C12H9NS/c1-8-13-12-10-5-3-2-4-9(10)6-7-11(12)14-8/h2-7H,1H3",
        "InChIKey": null,
        "Canonical SMILES": "N1=C(SC2=CC=C3C=CC=CC3=C12)C",
        "Molecular Formula": "C<sub>12</sub>H<sub>9</sub>NS",
        "Molecular Mass": "199.27",
        "Boiling Point": "165-168 °C @ Press: 5.5 Torr",
        "Melting Point": "95-97 °C"
    }
}