{
    "cas_no": "1680-21-3",
    "key_name": "Light Acrylate 3EG-A",
    "cn_name": "三乙二醇二丙烯酸酯;三甘醇二丙烯酸酯;",
    "alternate_name": "2-Propenoic acid, 1,1′-[1,2-ethanediylbis(oxy-2,1-ethanediyl)] ester;Acrylic acid, diester with triethylene glycol;2-Propenoic acid, 1,2-ethanediylbis(oxy-2,1-ethanediyl) ester;Triethylene glycol, diacrylate;SR 272;Light Acrylate 3EG-A;Kayarad PEG 100DA;Aronix MT 2506;3EG-A;M 232;Genomer 1225;Miramer M 232;2-[2-(2-Prop-2-enoyloxyethoxy)ethoxy]ethyl prop-2-enoate",
    "duplicated_cas_no": "133715-91-0;156755-12-3",
    "SMILES": "C(OCCOCCOCCOC(C=C)=O)(C=C)=O",
    "meta_data": {
        "InChI": "InChI=1S/C12H18O6/c1-3-11(13)17-9-7-15-5-6-16-8-10-18-12(14)4-2/h3-4H,1-2,5-10H2",
        "InChIKey": null,
        "Canonical SMILES": "O=C(OCCOCCOCCOC(=O)C=C)C=C",
        "Molecular Formula": "C<sub>12</sub>H<sub>18</sub>O<sub>6</sub>",
        "Molecular Mass": "258.27",
        "Boiling Point": "350 °C"
    }
}