{
    "cas_no": "6606-59-3",
    "key_name": "1,6-Hexanediol, dimethacrylate",
    "cn_name": "1,6-己二醇二甲基丙烯酸酯;",
    "alternate_name": "2-Propenoic acid, 2-methyl-, 1,1′-(1,6-hexanediyl) ester;Methacrylic acid, hexamethylene ester;2-Propenoic acid, 2-methyl-, 1,6-hexanediyl ester;1,6-Hexanediol, dimethacrylate;Hexamethylene dimethacrylate;Hexamethylene glycol dimethacrylate;Hexamethylene glycol methacrylate;1,6-Hexanediyl dimethacrylate;Hexamethylene methacrylate;1,6-Hexamethylene glycol dimethacrylate;1,6-Hexamethylene dimethacrylate;NK Ester HD;1,6-Hexyleneglycol dimethacrylate;Monocizer TD 1520;HDDMA;SR 239;Light Ester 1.6HX;1,6-Hexamethylenediol dimethacrylate;Acryester HX;Sartomer 239;NK Ester HD-N;SR 239A;1,6-Hexaneglycol dimethacrylate;Miramer M 201;SR 239NS;HD-N;Hexane-1,6-diyl bis(2-methylacrylate);Sartomer SR 239EU;Saret 239;16HDMA",
    "duplicated_cas_no": "717144-09-7;1188908-54-4",
    "SMILES": "O(C(C(C)=C)=O)CCCCCCOC(C(C)=C)=O",
    "meta_data": {
        "InChI": "InChI=1S/C14H22O4/c1-11(2)13(15)17-9-7-5-6-8-10-18-14(16)12(3)4/h1,3,5-10H2,2,4H3",
        "InChIKey": null,
        "Canonical SMILES": "O=C(OCCCCCCOC(=O)C(=C)C)C(=C)C",
        "Molecular Formula": "C<sub>14</sub>H<sub>22</sub>O<sub>4</sub>",
        "Molecular Mass": "254.32",
        "Melting Point": "&lt;25 °C",
        "Density": "0.995 g/cm³"
    }
}