{
    "cas_no": "3044-56-2",
    "key_name": "Ethyl (3,4,5-trimethoxybenzoyl)acetate",
    "cn_name": "3,4,5-三甲氧基苯甲酰基乙酸乙酯;",
    "alternate_name": "Benzenepropanoic acid, 3,4,5-trimethoxy-β-oxo-, ethyl ester;Acetic acid, (3,4,5-trimethoxybenzoyl)-, ethyl ester;Ethyl (3,4,5-trimethoxybenzoyl)acetate;3-Oxo-3-(3,4,5-trimethoxyphenyl)propionic acid ethyl ester;NSC 408031;Ethyl 3-oxo-3-(3,4,5-trimethoxyphenyl)propionate;Ethyl 3-(3,4,5-trimethoxyphenyl)-3-oxopropanoate;Ethyl 3-oxo-3-(3,4,5-trimethoxyphenyl)propanoate",
    "duplicated_cas_no": "",
    "SMILES": "C(CC(OCC)=O)(=O)C1=CC(OC)=C(OC)C(OC)=C1",
    "meta_data": {
        "InChI": "InChI=1S/C14H18O6/c1-5-20-13(16)8-10(15)9-6-11(17-2)14(19-4)12(7-9)18-3/h6-7H,5,8H2,1-4H3",
        "InChIKey": null,
        "Canonical SMILES": "O=C(OCC)CC(=O)C1=CC(OC)=C(OC)C(OC)=C1",
        "Molecular Formula": "C<sub>14</sub>H<sub>18</sub>O<sub>6</sub>",
        "Molecular Mass": "282.29",
        "Melting Point": "95 °C"
    }
}