{
    "cas_no": "888711-53-3",
    "key_name": "Borate(1-), trifluoro(1-pyrrolidinylmethyl)-, potassium (1:1), (<em>T</em>-4)-",
    "cn_name": null,
    "alternate_name": "Borate(1-), trifluoro(1-pyrrolidinylmethyl)-, potassium (1:1), (<em>T</em>-4)-;Borate(1-), trifluoro(1-pyrrolidinylmethyl)-, potassium, (<em>T</em>-4)-;Potassium trifluoro[(pyrrolidin-1-yl)methyl]borate",
    "duplicated_cas_no": "",
    "SMILES": "[CH2-]([B+3]([F-])([F-])[F-])N1CCCC1.[K+]",
    "meta_data": {
        "InChI": "InChI=1S/C5H10BF3N.K/c7-6(8,9)5-10-3-1-2-4-10;/h1-5H2;/q-1;+1",
        "InChIKey": null,
        "Canonical SMILES": "[K+].[F-][B+3]([F-])([F-])[CH2-]N1CCCC1",
        "Molecular Formula": "C<sub>5</sub>H<sub>10</sub>BF<sub>3</sub>N.K",
        "Molecular Mass": "",
        "Melting Point": "85-87 °C"
    }
}