{
    "cas_no": "1006-68-4",
    "key_name": "5-Phenyloxazole",
    "cn_name": "5-苯基恶唑;",
    "alternate_name": "Oxazole, 5-phenyl-;5-Phenyloxazole;5-Phenyl-1,3-oxazole",
    "duplicated_cas_no": "",
    "SMILES": "C1(=CN=CO1)C2=CC=CC=C2",
    "meta_data": {
        "InChI": "InChI=1S/C9H7NO/c1-2-4-8(5-3-1)9-6-10-7-11-9/h1-7H",
        "InChIKey": null,
        "Canonical SMILES": "N1=COC(=C1)C=2C=CC=CC2",
        "Molecular Formula": "C<sub>9</sub>H<sub>7</sub>NO",
        "Molecular Mass": "145.16",
        "Boiling Point": "65 °C @ Press: 0.1 Torr",
        "Melting Point": "41-42 °C"
    }
}