{
    "cas_no": "3842-55-5",
    "key_name": "2-Chloro-4,6-diphenyl-1,3,5-triazine",
    "cn_name": "2-氯-4,6-二苯基-1,3,5-三嗪;",
    "alternate_name": "1,3,5-Triazine, 2-chloro-4,6-diphenyl-;<em>s</em>-Triazine, 2-chloro-4,6-diphenyl-;2-Chloro-4,6-diphenyl-1,3,5-triazine;2-Chloro-4,6-bisphenyl-1,3,5-triazine;6-Chloro-2,4-diphenyl-<em>s</em>-triazine;2-Chloro-4,6-diphenyl-<em>s</em>-triazine;NSC 231670;2-Chloro-4,6-diphenyltriazine;2-Chlorodiphenyl-1,3,5-triazine",
    "duplicated_cas_no": "",
    "SMILES": "ClC=1N=C(N=C(N1)C2=CC=CC=C2)C3=CC=CC=C3",
    "meta_data": {
        "InChI": "InChI=1S/C15H10ClN3/c16-15-18-13(11-7-3-1-4-8-11)17-14(19-15)12-9-5-2-6-10-12/h1-10H",
        "InChIKey": null,
        "Canonical SMILES": "ClC=1N=C(N=C(N1)C=2C=CC=CC2)C=3C=CC=CC3",
        "Molecular Formula": "C<sub>15</sub>H<sub>10</sub>ClN<sub>3</sub>",
        "Molecular Mass": "267.71",
        "Melting Point": "135-136 °C"
    }
}