{
    "cas_no": "59377-20-7",
    "key_name": "2-Phenoxyphenylisocyanate",
    "cn_name": null,
    "alternate_name": "Benzene, 1-isocyanato-2-phenoxy-;Isocyanic acid, <em>o</em>-phenoxyphenyl ester;1-Isocyanato-2-phenoxybenzene;2-Phenoxyphenylisocyanate;<em>o</em>-Phenoxyphenyl isocyanate",
    "duplicated_cas_no": "",
    "SMILES": "O(C1=C(N=C=O)C=CC=C1)C2=CC=CC=C2",
    "meta_data": {
        "InChI": "InChI=1S/C13H9NO2/c15-10-14-12-8-4-5-9-13(12)16-11-6-2-1-3-7-11/h1-9H",
        "InChIKey": null,
        "Canonical SMILES": "O=C=NC=1C=CC=CC1OC=2C=CC=CC2",
        "Molecular Formula": "C<sub>13</sub>H<sub>9</sub>NO<sub>2</sub>",
        "Molecular Mass": "211.22",
        "Boiling Point": "162-164 °C @ Press: 14 Torr"
    }
}