{
    "cas_no": "50-30-6",
    "key_name": "2,6-Dichlorobenzoic acid",
    "cn_name": "2,6-二氯苯甲酸;",
    "alternate_name": "Benzoic acid, 2,6-dichloro-;2,6-Dichlorobenzoic acid;NSC 76599",
    "duplicated_cas_no": "",
    "SMILES": "C(O)(=O)C1=C(Cl)C=CC=C1Cl",
    "meta_data": {
        "InChI": "InChI=1S/C7H4Cl2O2/c8-4-2-1-3-5(9)6(4)7(10)11/h1-3H,(H,10,11)",
        "InChIKey": null,
        "Canonical SMILES": "O=C(O)C=1C(Cl)=CC=CC1Cl",
        "Molecular Formula": "C<sub>7</sub>H<sub>4</sub>Cl<sub>2</sub>O<sub>2</sub>",
        "Molecular Mass": "191.01",
        "Melting Point": "144 °C"
    }
}