{
    "cas_no": "13020-19-4",
    "key_name": "Cirsimarin",
    "cn_name": null,
    "alternate_name": "4<em>H</em>-1-Benzopyran-4-one, 2-[4-(β-<span class=\"text-smallcaps\">D</span>-glucopyranosyloxy)phenyl]-5-hydroxy-6,7-dimethoxy-;Cirsimarin;2-[4-(β-<span class=\"text-smallcaps\">D</span>-Glucopyranosyloxy)phenyl]-5-hydroxy-6,7-dimethoxy-4<em>H</em>-1-benzopyran-4-one;Cirsimarine;Cirsimaritin 4′-glucoside;Cirsitakaoside;Cismaritin;Cirsimaretin;Cirsimartin;5,4′-Dihydroxy-6,7-dimethoxyflavone 4′-<em>O</em>-β-<span class=\"text-smallcaps\">D</span>-glucoside",
    "duplicated_cas_no": "101320-51-8",
    "SMILES": "OC1=C2C(OC(=CC2=O)C3=CC=C(O[C@@H]4O[C@H](CO)[C@@H](O)[C@H](O)[C@H]4O)C=C3)=CC(OC)=C1OC",
    "meta_data": {
        "InChI": "InChI=1S/C23H24O11/c1-30-15-8-14-17(19(27)22(15)31-2)12(25)7-13(33-14)10-3-5-11(6-4-10)32-23-21(29)20(28)18(26)16(9-24)34-23/h3-8,16,18,20-21,23-24,26-29H,9H2,1-2H3/t16-,18-,20+,21-,23-/m1/s1",
        "InChIKey": null,
        "Canonical SMILES": "O=C1C=C(OC=2C=C(OC)C(OC)=C(O)C12)C=3C=CC(OC4OC(CO)C(O)C(O)C4O)=CC3",
        "Molecular Formula": "C<sub>23</sub>H<sub>24</sub>O<sub>11</sub>",
        "Molecular Mass": "476.43",
        "Melting Point": "244-246 °C"
    }
}