{
    "cas_no": "14210-25-4",
    "key_name": "5-Chloro-1-phenyl-1<em>H</em>-tetrazole",
    "cn_name": "5氯-1-苯基四氮唑;氯-1-苯基四氮唑;5-氯-1-苯基-四唑;5-氯-1-苯基-1H-四唑, 98+%;",
    "alternate_name": "1<em>H</em>-Tetrazole, 5-chloro-1-phenyl-;5-Chloro-1-phenyl-1<em>H</em>-tetrazole;5-Chloro-1-phenyltetrazole;1-Phenyl-5-chlorotetrazole;<em>N</em>-Phenyl-5-chlorotetrazole",
    "duplicated_cas_no": "",
    "SMILES": "ClC=1N(N=NN1)C2=CC=CC=C2",
    "meta_data": {
        "InChI": "InChI=1S/C7H5ClN4/c8-7-9-10-11-12(7)6-4-2-1-3-5-6/h1-5H",
        "InChIKey": null,
        "Canonical SMILES": "ClC1=NN=NN1C=2C=CC=CC2",
        "Molecular Formula": "C<sub>7</sub>H<sub>5</sub>ClN<sub>4</sub>",
        "Molecular Mass": "180.59",
        "Melting Point": "122-124 °C"
    }
}