{
    "cas_no": "109-95-5",
    "key_name": "Ethyl nitrite",
    "cn_name": "亚硝酸乙酯;",
    "alternate_name": "Nitrous acid, ethyl ester;Ethyl nitrite;Nitrosyl ethoxide;Nitrous ether;Nitrous ethyl ether;Spirit of ethyl nitrite;Sweet spirit of niter",
    "duplicated_cas_no": "8013-58-9",
    "SMILES": "O(CC)N=O",
    "meta_data": {
        "InChI": "InChI=1S/C2H5NO2/c1-2-5-3-4/h2H2,1H3",
        "InChIKey": null,
        "Canonical SMILES": "O=NOCC",
        "Molecular Formula": "C<sub>2</sub>H<sub>5</sub>NO<sub>2</sub>",
        "Molecular Mass": "75.07",
        "Boiling Point": "17 °C",
        "Density": "0.90 g/cm³ @ Temp: 15 °C"
    }
}