{
    "cas_no": "12233-56-6",
    "key_name": "Bismuth germanium oxide (Bi<sub>4</sub>Ge<sub>3</sub>O<sub>12</sub>)",
    "cn_name": "锗酸铋;",
    "alternate_name": "Bismuth germanium oxide (Bi<sub>4</sub>Ge<sub>3</sub>O<sub>12</sub>);Bismuth germanate(IV) (Bi<sub>4</sub>Ge<sub>3</sub>O<sub>12</sub>);Bismuth germanate (Bi<sub>4</sub>Ge<sub>3</sub>O<sub>12</sub>);Bismuth germanate (Bi<sub>4</sub>(GeO<sub>4</sub>)<sub>3</sub>);BGO",
    "duplicated_cas_no": "1958024-36-6",
    "SMILES": "[O].[Bi].[Ge]",
    "meta_data": {
        "InChI": "InChI=1S/Bi.Ge.O",
        "InChIKey": null,
        "Canonical SMILES": "[O].[Ge].[Bi]",
        "Molecular Formula": "Bi.Ge.O",
        "Molecular Mass": "",
        "Melting Point": "1061 °C",
        "Density": "7.13 g/cm³"
    }
}