{
    "uri": "substance/pt/12233566",
    "rn": "12233-56-6",
    "name": "Bismuth germanium oxide (Bi<sub>4</sub>Ge<sub>3</sub>O<sub>12</sub>)",
    "images": [],
    "inchi": "InChI=1S/Bi.Ge.O",
    "inchiKey": "InChIKey=YTTIHOZMFKLTSC-UHFFFAOYSA-N",
    "smile": "[O].[Bi].[Ge]",
    "canonicalSmile": "[O].[Ge].[Bi]",
    "molecularFormula": "Bi.Ge.O",
    "molecularMass": "",
    "experimentalProperties": [
        {
            "name": "Melting Point",
            "property": "1061 °C",
            "sourceNumber": 1
        },
        {
            "name": "Density",
            "property": "7.13 g/cm³",
            "sourceNumber": 2
        }
    ],
    "propertyCitations": [
        {
            "docUri": "document/pt/document/27631811",
            "sourceNumber": 1,
            "source": "Kaplun, A. B.; Journal of Crystal Growth, (2005), 275(1-2), e169-e175, CAplus"
        },
        {
            "docUri": "document/pt/document/46568306",
            "sourceNumber": 2,
            "source": "Elftmann, R.; Journal of Physics: Conference Series, (2015), 632, 012006/1-012006/8, CAplus"
        }
    ],
    "synonyms": [
        "Bismuth germanium oxide (Bi<sub>4</sub>Ge<sub>3</sub>O<sub>12</sub>)",
        "Bismuth germanate(IV) (Bi<sub>4</sub>Ge<sub>3</sub>O<sub>12</sub>)",
        "Bismuth germanate (Bi<sub>4</sub>Ge<sub>3</sub>O<sub>12</sub>)",
        "Bismuth germanate (Bi<sub>4</sub>(GeO<sub>4</sub>)<sub>3</sub>)",
        "BGO"
    ],
    "replacedRns": [
        "1958024-36-6"
    ],
    "hasMolfile": true,
    "source": "https://commonchemistry.cas.org/detail?cas_rn=12233-56-6"
}