{
    "cas_no": "1638-26-2",
    "key_name": "1,1-Dimethylcyclopentane",
    "cn_name": "1,1-二甲基环戊烷;1,1-二甲基环戊烷;",
    "alternate_name": "Cyclopentane, 1,1-dimethyl-;1,1-Dimethylcyclopentane;<em>gem</em>-Dimethylcyclopentane;NSC 74145;1,1-Dimethylcycopentane",
    "duplicated_cas_no": "",
    "SMILES": "CC1(C)CCCC1",
    "meta_data": {
        "InChI": "InChI=1S/C7H14/c1-7(2)5-3-4-6-7/h3-6H2,1-2H3",
        "InChIKey": null,
        "Canonical SMILES": "CC1(C)CCCC1",
        "Molecular Formula": "C<sub>7</sub>H<sub>14</sub>",
        "Molecular Mass": "98.19",
        "Boiling Point": "87.5 °C",
        "Melting Point": "-69.8 °C",
        "Density": "0.7590 g/cm³ @ Temp: 15 °C"
    }
}