{
    "cas_no": "723281-72-9",
    "key_name": "6-Bromo-4-chloro-3-nitroquinoline",
    "cn_name": null,
    "alternate_name": "Quinoline, 6-bromo-4-chloro-3-nitro-;6-Bromo-4-chloro-3-nitroquinoline",
    "duplicated_cas_no": "",
    "SMILES": "ClC=1C2=C(N=CC1N(=O)=O)C=CC(Br)=C2",
    "meta_data": {
        "InChI": "InChI=1S/C9H4BrClN2O2/c10-5-1-2-7-6(3-5)9(11)8(4-12-7)13(14)15/h1-4H",
        "InChIKey": null,
        "Canonical SMILES": "O=N(=O)C1=CN=C2C=CC(Br)=CC2=C1Cl",
        "Molecular Formula": "C<sub>9</sub>H<sub>4</sub>BrClN<sub>2</sub>O<sub>2</sub>",
        "Molecular Mass": "287.50",
        "Melting Point": "134-135 °C"
    }
}