{
    "cas_no": "9002-84-0",
    "key_name": "Polytetrafluoroethylene",
    "cn_name": null,
    "alternate_name": "Ethene, 1,1,2,2-tetrafluoro-, homopolymer;Ethylene, tetrafluoro-, polymers;Ethene, tetrafluoro-, homopolymer;Fluon;Fluoroflex;Polytetrafluoroethylene;Teflon;Fluon G 4;Fluoroplast 4B;Fluoroplast 4;Polyflon;Polytef;Polyfene;PTFE;Poly(ethylene tetrafluoride);Fluoroplast 4D;Valflon;Halon G 700;Tetrafluoroethylene polymer;Teflon TFE;Teflon 30;Ftorlon 4;Fluon L 169;Fluorolon 4;Ftoroplast 4;FT 4;Ftoroplast F 4;Ftoroplast 4D;Unon P;Algoflon;Valflon 7000;Chromosorb T;Dixon 164;FBF 74D;Fluon CD 023;Fluon CD 042;Fluon CD 1;Fluoroplast 4M;Halon G 183;Halon G 80;Halon TFEG 180;Heydeflon;Polyflon D 1;Polytetrafluoroethene;PTFE-GM 3;Soreflon 5A;Tetrafluoroethene polymer;Tetran 30;Ftoroplast 4B;Molykote 522;Polyflon M 12A;Teflon 110;Ftorlon 4M;Florolon 4M;Fluon L 170;Teflon 6;TL 126;Polyflon M 12;Polyflon F 103;Teflon T 5;Teflon T 6;EK 1108GY-A;Tetrafluoroethylene homopolymer;Fluon L 171;Polyflon EK 1108GY-A;Hostaflon TF;T 8A;Zitex K 233-122;Zitex H 662-124;Ftoroplast 4M;Fluoropak 80;Tetran PTFE;Fluon G 163;FN 3;Fluon GPI;Polyflon M 21;F 4Zh20;Fluoropore FP 120;Tarflen;AMIP 15M;Ftoroplast AMIP 15M;Ftoroplast 4K20;TL 115;TL-R;TL 102;TL 125;TL-V;F 103;T 5B;Fluon L 169B;Polyflon EK 4108GY;Algoflon SV;Fluo-Kem;Teflon 5;Ethicon PTFE;POLITEF;F 4K20;Ftoroplast FBF 74D;G 163;Teflon K;Soreflon 604;BDH 29-801;Duroid 5870;Teflon T 30;TE 30;Fluon G 201;Ftorlon 4D;Fluorolon 4D;Teflon 7J;FP 4;Ftoroplast 4G10;Aflon G 80;F 4DP;Ftorlon 4DP;Lublon L 5;Ftoroplast 4DP;FG 15;T 30;Polymist F 5A;Hostaflon SE-VP 5875;Hostaflon SE-VP 585;Hostaflon TFVP 5444;Hostaflon TFVP 5034;Hostaflon TF 5032;Ftorlon 4K20;AFG 80VS;Ftoroplast FP 4D;Polyflon PA 5L;Polyflon PA 10L;Fluoropore F 045;Soreflon 8G;Soreflon 7;Soreflon 7A20;Zedeflon;Fluoropore FP 500;Teflon 30J;Polyflon F 104;Teflon 6J;Hostaflon TF 2053;Hostaflon TF 2026;Duroid 5650;Avcoat 8029-1;Avcoat 8029-2;Avcoat 8029-3;Unon P 300;Teflon TFE 6;Lublon L 2;Whitcon 5TFE;Rulon LD;Teflon 7A;Soreflon;Tetrafluoroethene homopolymer;Duroid 5813;Fluoropore FP 200;Polyflon EK 1700;Perfluoroethylene polymer;Glasrock Porex P 1000;Proplast;Armalon XT 2663;Porex P 1000;Polyperfluoroethylene;Polymist F 5;Halon TFE;Fluon VP 25;Zepel C-SF;Aflon G 8;Whitcon 7;TL 103F;Duroid 5650M;Duroid X;Fluon L 169A;Polyflon M 1;Fluoropore FP 022;Teflon 327;Rulon E;Fluon VXI;Duroid X 026;Fluon AD 704;Polyflon F 101;Duroid 5870M;Fluoron AD 2;Tetrafluoroethylene resin;TL 102 (polymer);Valflon 7790;Mitex;Teflon 6C-J;Ftoroplast 4K15M5L-EA;GORE-TEX;Valflon 7990;DF 100;Hostaflon TF 9205;Fluoropore FP 045;Fluon G 308;Teflon 851-204;Polyflon EK 1883GB;Polyflon EK 4105GN;Zefluor;Teflon T 8A;Polylube J 12;TLP 10F;Fluon 169;Fluon VX 2;DLX 7000;Teflon 702N;Fluoropore FP 010;Teflon PLP 10;Fluon L 160;Teflon TLP 10F1;PN 11124NA;Nitoflon 900;Ftorlon 4NTD;Aflon CD 1;Fluon L 168;Neoflon NF 0012;Neoflon NF 0004;Hostaflon TF 4215;Fluon AD 1;Lublon LD 1000;Ftoroplast 4EO;Ftoroplast 4KO;Ftoroplast 4EN;Teflon 340;Teflon DLX 6000;Xylan 8333;Xylan 8231;Xylan 8232;Xylan 8233;Teflon 30B;Polyflon TC 7409BK;Whitcon 2;TL 115A;Polyflon EK 4193CL;Hostaflon TF 5135;675AD;Hostaflon TF 9202;Lublon LD 1;FA 10L;Teflon 60;Polyflon ES 5100CR;KTL 600;Lublon L 5F;Fluoropore FP 100;KTL 610;Lublon L;Teflon TE 3170;Fluon I 169;Polyflon TFE-M 23;Teflon K 10;Algoflon D 60V;Algoflon D 60A;Fluon 171;Hostaflon TFVP 9202;Fluon CD 123;AD 639;L 169J;Teflon 60J;Teflon 42J;AD 1;Teflon TLP 10;HiFlon 620;D 2C;Hostaflon PF;Polyflon D 2;HiFlon 51A;HiFlon 71;HiFlon 81G;HiFlon 81F;HiFlon 603;HiFlon 604;Fluon L 150J;Hostaflon TF 1740;Polyflon TFE;Algoflon L 206;Fluo HT;Whitcon TL 102C;TFO-V;BSF 010;BSF 050;BSF 100;Valflon 7010;Hostaflon TFM 1600;SST 3H;T 41J;TF 6J;60J;LNP-TL 156;Teflon 41J;Turcite B;Polyflon EK 4300CRN;SST 2;Ftoroplast 4K15M5;F 4K15M5;4K15M5;Ftoroplast 4S15;Suspensoid TD 30;Mushseal;Tarflen M;Tarflen GT;Lupolen 3741BX;EK 630OCR-H;Zitex G 104;F 4;Fluoropolymers, poly(tetrafluoroethylene);TE 3313J;TFD-I;Fluon VB 60;Fluon VG 15;RO 2800;Fluorogold;Yodoflon F 4;Fluorogreen E 600;Garlock 8573;Rulon A;Plastolon;TE 3481J;Plasma-TFE;Petriperm;Hostaflon TF 2027;Teflon 30N;Teflon TE 3313;R 126;FMF 4D;Xylan 8830;Teflon CFP 6000;KT 400M;DF 100 (fluoropolymer);Daiflon D 1;Floroplast 4D;Ftoroplast TF 4;Hydrocer SST 3;Fluon L 150;PF 060 (membrane);Teflon 10J;PF 060;PFE 130;Valflon 7900-20N;Teflon K 10J;Cefral Lube I;Cefral Lube TFO-I;Whitcon TL 5;Fluon 255G;Torflen;Fluon G 190;Buflon 1;Buflon 2;Hostaflon TF 1640;Cefral Lube V;FP 4D;CD 1;F 104;L 5;DF 200;Kriolon 3;Polyflon L 5;Fluon GSD 5;F 600 (fluoropolymer);Nitoflon PTFE;F 600;Teflon MP 1000;Teflon MP 1500;TG 7J;TFE 1700;KT 300M;T 30J;DLX 6000;Algoflon DM 1;Aflon CF 8025;Aflon CF 80-11;L 150J;Zitex A 135;F 4KO;F 4D;Zitex A 110;Teflon KTL 610;P 1 (fluoropolymer);P 1;Polyflon TFE-M 31;Polyflon EK 5109BK;M 33;Hostaflon T 1740;Fluon L 169J;Fluon G 136;Teflon TE 30;Fluorogold (polymer);Belflon 1000;SST 4;D 1F;Spectralon;L 169;Polymist F-SA;M 12;Teflon MP 1100;Teflon MP 1200;Teflon MP 1300;MP 1300;Ceridust 9205F;AG 100 (resin);AG 100;Teflon T 60;3443J;Polyflon M 15;Poreflon WP 100-100;AD 2;Fluon AD 639;Sartorius SM 11807;FP 010;Quimflex;Teflon P 26-6026;K 100 (fluoropolymer);K 100;Daiflon D 2;Fluon L 1700;Polyflon TFE-F 104;Tetratec;TE 35;Fluoropore FHUP;SM 11807;Spectrapor;Teflon 3170;KTL 8N;Buflon 3;Polyflon TFE-M 25;Du Pont 420-108;Algoflon F 5;Fluon 169J;Teflon 703N;Polyflon TFE-M 12;TE 3442N;Fluon XL 169J-A;EK 4300CR;Algoflon DF 200;Teflon 3579;Polyflon 104UF;Fluon 171J;Hostaflon TF 2071;Hostaflon TF 2029;NTF 1121;F 201L;Cefral Lube F;TFM 1620;Fluon AD 660;400H;Algoflon D 60;TFE-KT 400H;Sanfuron SG 1000;Polyflon F 104U;Polyflon M 31;XAD 934AIF;Teflon 7C;KTL 400H;CD 4;30J;Teflon 855J21033;Whitcon TL 155;Lublon LDW 40;X 6136;X 6135;Teflon T 30J;KT 400H;Cefral Lube WR;Teflon MP 100;Nitoflon No. 900UL;Polyflon PTFE F 104;KTL 8F;KTL 350;Porelle;6J;Teflon MP 1600;901UL;Whitcon TL 6;Fluotron 110;AG-Lub G;Polyflon F 201L;MPA-FA 100;Epiclon F 201L;SLA 1612;Algoflon F 7;Lubricant L 169;L 182J;Cefral Lube VH;Algoflon L 203;Polyflon TFE-M 15;Fluon Lubricant L 169;Hostaflon TF 1620;Fluon G 168;Hostaflon 9202;WP 1000-100;NTF 1033;Poreflon UP 010-40RS;Poreflon UP 020-80;Poreflon WP 020-40;D 1;L 170J;KU 02;Hostaflon TF 02;PeFlu 727FS;T 5B (polymer);T 8A (polymer);FG 15 (polymer);Super Cheminert;Daiflon F 201L;KTL 450E;KTL 8;MP 1200;TF 9202;Fluon AD 2;Navalon NA 101;Navalon NA 201;Hostaflon TFM 4105;WP 020-80;Microtex;Gore-TEX GR;Lubricant L 182J;TE 3636;TLP 10;Hostaflon TF 1750;Teflon 1691J;Teflon 1605J;FC 5;TE 2442N;Fluon CD 4;Hostaflon TF 2025;Polyflon MG 6030F;TLLP 10F1;Polyflon FA 500;NTF 1122;Fluon L 172J;Aceflon S;TF 1620;STT 3K;KD 100AS;D 2;Fluon L 155J;Algoflon D 60PS;Fluon AD 936;Fluo 300;Teflon TE 3641;Teflon TEF 3111;Teflon T 313A;Polyflon TFE-M 33;CD 123;Fluo 625F;Hostaflon 5033;Fluoro A;Zonyl MP 1500;FA 500;GoreTex L 31189;Sumitomo 020-40;Sumitomo 045-40;Hostaflon TFX 5050;TEF 3311;Sartorius SM 11803;TF 1750;TF 1760;TF 2025;Skyflex;Poreflon UP 020-2000;Fluon 70J;Teflon T 62;Teflon TE 3111;L 173J;Teflon 800J;Polyflon MPA-FA 500;KTL 4;MFW;Polyflon TFE-EK 4300CRN;Membrane filter NP 022;NP 022;Fluon L 181J;Tomy Firex FSS-R 250;Teflon TE 3667N;FT 301;TE 30 (polymer);TF 5050;Polyflon D 2C;669N;Nitoflon NTE 1131;F 103 (fluoropolymer);T 4101;Polyflon M 33;FN 3 (polymer);T 30B;Fluon AD 1LN;AD 058;AD 310;CEF-V 20;Taconic TLC 32;Fluon GDI;AD 310 (fluoropolymer);KTL 4N;Hostaflon TF 5035;Zonyl TLP 10F1;LDW 40;FA 100;SST 3;F 4IO;PTFE 820J;TFW 3000;TFW 1000;Teflon TFE 914J;Polyflon TFE-D 1;SG 1000;Sanfuron 610;Teflon B;Polyflon T 300A;TF 9205;Teflon TFE 30;Lublon LSF;Fluon CD 141;SST 4MG;MDF 30J;Unon S;Teflon 301;Teflon 9001;Polyflon TFE-F 201L;Du Pont 855-210;Neoflon TFE;Teflon TFE 70J;ZX 21;Zonyl MP 1600;MP 1600;F 104UF;Moxtek AP 2;JGWP;ASF 110;Zonyl MP 1300;Zonyl MP 1400;Zonyl MP 1000;12GN;Reinzoflon 100;12GN (fluoropolymer);Vitaflon;LD 1E;Lublon LD 1E;7J;GoreTex S 10570;Polyflon TFE-MG 2030;F 210L;Microtex TT 1;Hostaflon TF 1760;XAD 953;Dilectrix DF 100;Lublon LDE 3;MP 110;Teflon 170J;MP 110 (fluoropolymer);KD 1000AS;KD 200AS;QM 006;Zonyl MP 1100;Zonyl MP 1600N;Dyneon 9207;Dyneon 9201;Algoflon F 5A-EX;Zonyl MP 1500J;Zonyl MP 1200;T 6J;Teflon T-CN;R 7533;R 7526;R 12533;TCF 050;L 5F;Zonyl 30N;Zonyl 3554N;Zonyl 3667;Algoflon D 60EXP96;TG 15;Nanoflon AQ 60;Fluon L 173J;LR 516;TB 60;TB 30;TB 60 (composite);Zonyl TE 3667N;L 203;VB 3;Teflon 500A;VB 3 (fluoropolymer);TF 1645;Shamrock SST 3D;Shamrock SST 4;Aflon L 170J;Zitex C 110;Hostaflon 1700;Marzon 5;MP 1100;TLP 10F1;MP 1500J;Teflon MP 1500J;7AJ;Forum;SFF 1-1;TF 2071;DP 014;Algoflon D 60G;Texfilm 704;TF 1790;G 190;TFW 3000F;G 307;Tarflen D;Zonyl 1200;Zonyl 1000;Forum (polymer);Aflon L 169J;T 080A047A;300H;H 010A025A;T 010A025A;Fluon G 307;Powdertex 61;Powdertex 53;Fluoropore FP 101;Defensa MCF 323SF;MCF 323SF;300H (fluoropolymer);TFW 2000;Fluon G 350;Teflon 855-510;Fluon AD 1H;Tombo 9001;Fostaflon TF 9207;NO 900UL;316J;Synflow 183TX;Hostaflon TF 9207;DS 101;F 104U;Dyneon TFX 5060;Hostaflon TF 5235;DS 101 (fluoropolymer);Polymist F 5A-EX;T 050A293D;Gore-Tex SM 0-09010;Gore-Tex SM 0-05100;T 300A293D;NP 500;NP 1000;Teflon MP 1400;MP 1400;Ultralam 2000;RT/duroid 5880;RT/duroid 6002;RT/duroid 6006;RT/duroid 6010LM;RO 3003;RO 3006;RO 3010;RO 3203;RO 3210;NP 1000 (fluoropolymer);Krytox DF/W;Hostaflon TF 5050;Krytox LW 1200;Polyflon D 2CE;T 300A047A;FP 301-350;Fluon G 190-5;Fluon G 190-10;Fluon G 190-35;Fluon G 163-35;GoreTex R;Teflon NXT;Fluon L 180;L 180;Teflon 42;Lublon D 1;Tarflen TG 25;Tarflen TK 25;Tarflen TK 22G3;Fluon AD 396;AD 396;Twaron TPL 250;Neoflon FA 500;Aflon PTFE-L 169J;SP 1010;Aflon AD 1;Fluon G 311;Aflon AD 936;AD 936;Polylube PA 5956;Nitoflon 901UL;Lubriflon;Ftoroplast F 4D;F 4EM;Ftoroplast 4EM;Krytox DF 50;FA;F 1;F 14;F 15;F 10;Dyneon TF 9205;FR 301B;L 7;34J;KTM 300;Algoflon RN 101;Algoflon 203;Polymist F 510;Polyflon MP-FA 500;Aflon AD 911;Kaosilica TEE 100;Kaosilica TEEC 45L;TFE 30;SST 3D;Teflon 306A;XF 2;Michem Glide 5;Teflon TE 6462;Teflon TE 6472;Teflon PTFE 62;NP 500 (fluoropolymer);700J;Dyneon TF 2071;Gore-Tex Hyper-Sheet;MPA-FA 500;6C-J;Fluon XAD 911;ED 4839BD;Teflon GCJ;Zitex;Zitex G 125;Zitex G 106;Zitex G 108;Zitex G 110;Zitex A 155;Polyflon TC 7809BK;TC 7109BK;Polyflon TC 7109BK;Emflon PTFE;Hirec 100;FC 5 (fluoropolymer);QM 011SP;Roger 2800;Nitoflon 902UL;Aflon PTFE AD 1;Michem Wax 492;D 60A;G 350;L 172J;Tetratec 1316;Proplast 1;Proplast 2;HP 020-30;UP 020-80;30B;Cefral Lube IP;Hostaflon TF 207;Polyflon M 18;M 18;Tarflen SM;Tarflen ST;Tarflen SG;601A;601A (fluoropolymer);XAD 938;Exxcel;Aflon XAD 911;Aflon PTFE Fine Powder CD 1;Dyneon TF 9207;TF 9207;P 192;Fluoropore FP 060;G 201L;Ftoroplast 4AN;Ftoroplast 4PN20;F 4AN;F 4PN20;TL 10 (polymer);TL 10;Polylube PA 5952;Bogo 14946;Bogo 14948;Poreflon WP 1000;Poreflon WP 300;Poreflon 045-80;TE 38;TE 37;Polyflon TFE-M 393;Fluon AD 912;Polyflon M 393;Polyflon M 391S;JF 4DC;FX 0408F;Tetratex 6242;Gore-Tex 5724;Gore-Tex EPTFE Patch II;R 128-10;Microtex NTF 1131;Temish NTF 1131;Lublon LDW 40E;Duroid 5880;Fluon Dispersion XAD 911;XAD 911;Aflon G 350;Shamrock Fluoro 3TG;Polyflon F 207;Polymist XPH 698;DryFilm RA/IPA;DryFilm RA/W;Vydax;Hostaflon 2071;PTFE 6CN;Spray Bafron;D 2E;KT 600M;KAEX 0010000D;KAEX 00100D;KKRX 620000;D 2E (fluoropolymer);Polyflon D 1E;D 6A (fluoropolymer);D 6A;Poreflon HP 010-60;TFX 5060;Dyneon TFX 5065;TFX 5065;Fluoro A 650;Fluon XAD 938;LCWP 01300;Pemflon;Nanoflon P 51A;Dyneon TF 5035;TF 5035;Algoflon DF 210;Aflon L 150J;Taconic RF 35;Fluoro C 369;SM 021F;M 15;Polyflon PTFE D 2C;Tef. Release;Desal KSK 150;Fluon XAD 912;Fluorosperse;NTF 1133;Polyflon PTFE M 12;Fluon PTFE-L 173J;Fluoropore FHUP 04700;PTFE-DL 1;Dyneon TF 1641;Fluon GP 2;T 7AJ;Teflon 7AJ;JK 4TM;Zonyl 3807;KTL 10N;Aflon 169J;Fluon PTFE-G 201;Polyflon EK 3700C201;Polyflon PTFE EK 3700C201;SST 1MG;AD 1030;Teflon PTFE 7A;K 10J;Dyneon PTFE;Teflon 3636;TE 6002;Fluoropure Ultrafine 50CW;Fluon L 170J;M 391S;Fluon Lubricant L 170J;FR 101;FR 101 (fluoropolymer);Polylube PA 5933;P 302;Tetratex TX 2203;PA 5933;PA 5959;FR 303A;WP 122;WP 191;Aflon CD 123;F 106;Dyneon TF 1750;M 393;Fluon G 340;TE 306;Zonyl 1400;Zonyl 1150;F 203A;Aflon G 163;SFN 1;L 180J;Tomy Firex F-R 125;Fluon AD 911;AD 911;WP 500-50;YMT 2101;Tetratex 3109;Fluon FL 1650;Teflo;TLP 6;Fluoro-T 603;Aceflon SG 1000;Polyflon D 3E;Polyflon PTFE D 3E;PTFE-TL 10;Polyflon PTFE-L 2;MS 122DF;CFP 6000;HB 25;Alphaflex 202;MP 1000;AG 700;AG 70;DPA;DPS;GLS;Asahiguard AG 700;PTFE-M 392;KTL 2N;TALP 10F1;KTL 620;DPA (polyolefin);DPS (polyolefin);GLS (polyolefin);Polyflon M 392;PTFE 30J;KD 200AF;Teflon 6CN;KTL 20N;Polyflon L 2;FR 002A;Aceflon SA 60;Aceflon SK 3;Aceflon SK 45;Teflon 7F-J;Teflon 38J;Teflon Dispersion 38J;Teflon 640J;Tetratex 3108;Tetratex 1316;Tetratex 3107;G 340;M 392;D 70E;Dyneon PA 5956;PA 5956;Mitex LCW;H 71;FR 104F;Chemslip 55;TS 7800;FR 301G;SFN-A;Teflon 7;Teflon TD 37;Lublon LD 100;Poreflon HP 020-30;Poreflon WP 500-100;WP 100-100;WP 500-100;Algoflon BMP 76/2;Algoflon NE 5OP341;Algoflon MD 10;Algoflon NE 10OP201;SFN 5A;SFN-A (fluoropolymer);M 270;G 580;JF 4TM;KD 600AS;KD 0600AS;D 1E;7V2A;F 207;NTF 1026;HP 010-30;FP 010-60;HP 045-30;FP 500-100;FP 100-100;FP 045-80;Poreflon FP 022-60;CGM 16R-H;Xymon UC 1500;Nitoflon 900UL;Teflon 9B;D 30E;Ftoroplast 4PN;CFP 6000N;DDU 01;F 4PN;AG-Lub K;Lublon LD 3E;Polyflon PTFE-M 33;Gore Seamgard Staple Line Reinforcement;Microslip 519;Microslip 519L;Flou 300;KTL 8L;New Polyflon PTFE M 139;Nitoflon 903UL;WEB 93131;WEB 93132;WEB 93133;Teflon 65N;SP 1003;SP 1040;EC 007003;Panakiron;NanoFlon W 50C;Lanco Glidd 9530;M 18F;Ftoroplast F 4DV;H 010A090C;TE 5839;Algoflon D-XPH 1220;Tomflon;Algoflon L 100X;Teflon NXT 75;Polyflon PTFE-D 1;MCY 1001Y005H;MCY 1001FREH13;M 1300;Fluon G 192;WP 010-80;Polyflon PTFE;Polyflon D 71;Gore-Tex GMP 20233;Ftoroplast 4P;Ftoroplast P 4;P 4;DE 4W;Teflon TE 3893;PTFE 6J;JF 4DCW;T 100A047A;Emflon AB 1FX7ESH11;Emflon AB 1FN7ESH11;Rublon L 5;F 208;FGF 300-4;IMPRA Graft;Taconic 7069;Lanco Glidd 6940;Lanco Glidd 3993;Fluoro AQ 50;New Polyflon PTFE-M 112;T 34J;D 1122;AD 1070;Valflon 7091L;PTFE TE 3893;Ultraflon MP 7T;PTFE 31JR;Nitoflon 920UL;N 5223;Dyneon TF 2025;LDW 410;Polyflon PA 10LH;Polyflon PA 5LH;Fluon PTFE CD 1;Fluon PTFE CD 123;TS-AD 001;H 020A047;S 2A10012M;Algoflon L 101-1;Fluoro E;F 104Z;D 2CE;31J;Aldrich 430935;Poreflon HP 010-30;Poreflon FP 045-80;F 101HE;CD 145;Perflutel 290;Zonyl TE 3808;Zonyl TE 3894;Zonyl TE 3733;Zonyl TE 3859;Zonyl TE 3862;Zonyl TE 3875;Zonyl TE 3876;Zonyl TE 3885;Zonyl TE 3887;Zonyl TE 3893;Zonyl TE 6519;Fluon Lubricant L 150J;Polyflon PTFE-F 104U;701N;NXT 85;CGM 01;CGM 01B;CGM 021BJX1;CGM 021BJX-ORS;CGM 16F;CGM 011;CGM 011AP;SLA-NEW;Furomix;SLA 01;Fluon G 580;Fluon TL 101;Fluon TL 900;Fluon TL 102-2;Fluon TL 155;Fluon TL 5;Fluon TL 156;Fluon TL 10;Algoflon L 206RB36;Nanoflon P 47A;White Virgin Teflon;Gore-Tex 5000 Gurley-sec;Polymist XPP 519;Ultraflon MP 30;T 080A330;FZL 4033;FA 500C;Polyflon FA 500C;MPS 31;UF 8TA;Fluoropure 109C;MPS 31 (film);SFN-D;Zonyl TE 3887N;TE 3890;SFN 3;Cytoplast TXT 200;Polyflon PF 10LJ;Dyneon PA 5934;L 100X;DS 1;D 210C;SKFT-I;DS 1 (fluoropolymer);Lublon LDW 410;Poreflon HPW;Garlock 3502;AD 938L;NF 001;BYK 920;QM 702;Teflon 34JR;Polyflon D 210C;New TFE Coat;D 3112X;Dyneon 9207TF;Fluon CD 014;Naflon PTFE Film Tombo 9000;Naflon PTFE Tape Tombo 9001;Naflon PTFE Rod Tombo 9002;Sintek J-AL;L 1737;LUFS 4S02;Poreflon HP 045-15;Fluon PTFE Fine Powder CD 1;Fluon PTFE Fine Powder CD 145;Fluon CD 145;DF 31B;XF 2 (fluoropolymer);Dyneon TF 2021;DF 302;TP 200;TP 200 (fluoropolymer);Fluralite;D 10FE;CD 097;CGF 218;Dispers EZ 200W1;Dispers EZ 200W2;Microdispers 200;Teflon 31JR;Polyflon F 101HE;Fluon AD 938L;FR 1697J;FR 1603J;FR 1674J;PTFE 7A;FR 1605J;FR 1691J;D 110;PTFE-D 110;PTFE-D 210C;F 4S25;Polyflon FA 500B;Lanco Glidd 5792;Fluon AD 939L;Poreflon WP 045-40;Fluon PTFE-AD 911L;Fluon AD 911L;PN 1704;Polyflon MPA-FA 500C;Poreflon FP 500;Teflon 850A;PTFE 850A;AD 10A;Performax 8535;T-San AD 001;Gorotex;Hirec 450;CGM 021;M 390;TF 5035R;Chemfilm DF 100;Polymist XPP 511;Dismic 13JP020AN;Ultraflon AD 10;TF 5035Z;SFN-C 01;SNF 1;SNF-CO 1;Donaldson 1326;Bearee FE 7020;SNF 1 (fluoropolymer);Ceraflour 980;920UL;SN 3300;IMPRA Carboflo;XY 500;RF 4-6;RF 5-5;CGM 16;SM 860;Ceraflour 998;WW 9790;Dyneon TF 9208;Zonyl TE 3950;Fluon XCD 809;31JR;Fluon Lubricant L 169E;Fluon L 169E;TE 3887N;CD 76;FR 104-2;Ultraflon MP 80/92;TE 3893;Polyflon PTFE EK 1909S21L;TFW 500;Dyneon PA 5958;A 100;T 6C;A 100 (fluoropolymer);Norton 010S;KIL 8F;FR 503;Polyflon MP-MPA 500B;FA 500B;Rogers 5870;RT/duroid 5870;CGM 031;Lanco 1792;Lanco 1799;ED 3239M1L;F 4S15;F 4UV15;F 4KS2;Ultraflon MP 8T;Ultraflon UF 8TA;Rublon L 2;FluoroSperse 966;F 4EO;F 205;Valflon 7920;FD 3360;EK 3700;KD 500AS;SurTech 836T;Ftorlon 4DM;Fluorolon 4DM;Ftoroplast 4DM;Ceraflour 981;Fluon PTFE-G 355;Fluon G 355;F 4DM;Polyflon MP-FA 500B;S-NTF 8031;Temish NTF 2026A-N06;Naflon PTFE Tape;RF 60A;Ceraflour 965;Poreflon FP 500-100;KD 810AS;KD 800AS;Algoflon 25CAR-B;Poreflon TBW 2311-200;Fluon AD 915;Fluon AD 939E;Fluon PTFE Lubricant L 172;Fluon L 172;Polyflon PTFE-M 18;Teflon TE 3908;D 610N;Fluorogard AT;Ecolty Dispersion;Daikin D 210;Hostaflon TFM 1705;D 210;Polyflon PTFE-F 208H;Polyflon F 208H;FR 104-4;Nitoflon 901W-UL;FR 203A;FR 104;Teflon 640;Fluon L 173JE;Temish NTF 1121;Fluon PTFE-L 173JE;Polyflon MPA-FA 500H;F 5AEX;CGUF 201;TF 9208;Fluon CD 123E;Polyflon PTFE F 106;Polyflon F 106;Flubon 15/20;Dyneon TF 5035Z;FS 311;XY 500 (fluoropolymer);CS 1000;Cell Sense;RO 3035;L 169E;XAD 912;FA 500H;PF 020;Algoflon 60BZ;Algoflon 1.2CSC;Polyflon PTFE-D 610C;Polyflon D 610C;KTL 8FH;Polarchip CP 7003;Polyflon F 205;TEW 3000F;Teflon 6N;Cytoplast Regentex GBR 200;L 173JE;Flucoat X 32;RT 5880;F 510;F 4B;Dyneon TF 9207Z;F 4DV;Tetratex 3101;Verseidag duraskin B 18089;MSF 100;Fluon CD 123N;Millipore FHLC;Millipore JCWP;Millipore JHWP;Millipore JGWP;Millipore JVWP;Fluo HT-LS;Arlon 25N;FR 101-1;DF 17A;Polyflon D 210;PRO 470PP;KTL 8HM;CCF 003C3B;DF 205;DF 203;DF 201;FR 302;Polyflon D 610;Teflon TE 3875;Teflon TE 3864;FJC-R 0610;FJC-R 0620;DF 203 (fluoropolymer);DF 201 (fluoropolymer);PTFE-J 24;J 24;Teflon TE 3916;Teflon TE 3926;DX 9025;G 650;Dyneon T 5050;Repro HD;Polyflon PTFE-M 18F;Polyflon M 18F;Fluon FL 1690;MPF 6;Dyneon PA 5951;Kinoplus BLBD-A 1107;TN 4001;MM 5935;Dyneon PA 5931;FM 10;CGF 216G;FM 10 (fluoropolymer);JF 4TN;Hostaflon 2711;Fluon PTFE Lubricant L 173J;Porex;TFT Motifmesh;Hydrocerf 9174;Xylan 2320;Polyflon FA 500A;901W-UL;Pallflex UTF;TE 3809;Tetratex 2201;Fluorosint 500;T 5W;Poreflon HP 010-060;Poreflon HP 020-060;Poreflon HP 045-060;AD 911E;F 7;DF 130;TPL 10F1;T 100A;T 300A;F 104 (Fluoropolymer);D 10F;Temish S-NTF 2122A-S06;AD 938E;AD 919L;KT 60;Lanco 1796;Herolub 30;PTFE 312JR;312JR;FD 3309;XY 350;Fluorogreen E 110;KTL 1N;Lubaprint 138E;TE 3859;DB 105;SF 9208;9610F;Polyflon PTFE M 392;216G;QL 217EXPG;Polyflon Enamel EK 1909S21R;Polyflon EK 1909S21R;Teflon TE 3608;Polyflon PTFE EK 1909S21R;DLX 600;JF 4DC-X;FR 203B;Polyflon FA 500H;TE 3865C;Dyneon J 14;MFW PLUS;Hydrocerf 797;F 4EN;F 4D-FUM;F 4D-SKL;F 4D-SF;F 701;KTL 500L;Fluon AD 911E;ZF 24;Fluon Dispersion AD 911E;SFX 1;WPW 020-80;AD 541;AD 939;Fluon AD 939;Dyneon PA 5953;Dyneon TF 5032;Lublon L 7;LB 202;PTF 5050;FS 20D;FS 35D;FS 20;FS 35;P 202;TE 3952;TE 5070AN;FS 20 (fluoropolymer);P 202 (fluoropolymer);CGM 031B;CGM 031C;CD 097E;Moldflon MF 100005;MT 1100;605XT-X;Teflon 601A;Fluoro AQ 60;KF 4140;Polyflon MPA 500C;L 172JE;TF 1646;XPP 511;TF 2021Z;Sanfuron SG 3000;F 4PN90;F 4TM;Dry Film WD 4560;807NX;Chengguang 216S;M 15X;KTH 645;HX 9600;TX 2201;Shinepoly SN 3300;JTC 305;CD 145E;F 5A;Fluon L 73J;Naflon PTFE Sheet Tombo 9000;WPW 045-80;Teflon 807N;Xflon ACL;DF 204;CG 216;Fluoro T 801;Fluoro T 815;Fluoro T 807;Poreflon HP 045-30;NS 27FG-P;Norton 124;Lanco 1890;Teflon 669X;Nitoflon 9700UL;9700UL;FGA 500-10-2;Sudranol 700;SS 5000CR;Rulon 641;Rulon LR;JBP 118;Fluon PTFE CD 097E;Fluon CD 097E;GR-C 1420;GR-C 1430;FC 400;FC 400 (fluoropolymer);KTL 450A;Dyneon PTFE-TF 5035Z;Tarflen S;PTFE 601;Turcon Roto VL Seal;SNB 7;DF 680;Polyflon PTFE-D 210C;FGT 250;EK 1909S21R;HGSP 210;128D;116D;108D;FGB 207-6-1;HAS-M 575;EK 1909S21L;TF 9207Z;650J;H 71A;TF 9201Z;Poreflon WPW 020-80;Temish NTF 810A;NTF 810A;Taconic TLX 8;Taconic RF 45;Teflon 6CN-X-EF;Teflon PTFE 6CN-X-EF;Bearee FL 3090;JF-G 25;Fluon CD 145E;D 111;Polymist XPP 538;Algoflon DF 130F;L 170A;PF 100;Lubeflon K 100;Shinepoly SN 101;DX 9030;FR 502;DISP 30 PTFE;FR 102;JF 4A;MS 122AX;PM 23J;PM 3V;Poreflon HP 010-10;Algoflon D 1614F;640J;KP 952-1;KP 436-1;Polyflon PTFE-F 208;Polyflon F 208;KP 14-1;ZZR 091;GR 0420;Dyneon PA 5932;PA 59321;Polymist F 284;KTL 9S;KTL 10S;Shamrock SST 2D;SST 2D;HP 010-50;NTF 9522-01;A 01;A 01 (fluoropolymer);NTF 1026D;WW 1077;Ftoroplast F 4M;F 4M;AF 29;Teflon A 3800;AF 29 (fluoropolymer);Michem Glide 37;TP 110;605XT;Ftoroplast 4DPT;9201Z;J 14;M 1780;9200CG;9080TG;NanoFlon 119N;Algoflon L 203F;Teflon 958-414;Herolub C;Polyflon D 111;EK 3700C;F 201;Teflon MP 1150;Zonyl MP 1150;MP 1150;FR 3300;FluoroTEX 50;Teflon DISP 30;Teflon PTFE DISP 30;Poreflon HPW 010-30;AD 939E;DF 31;Poreflon HP 010-50;Teflon PTFE 60;KTL 610A;D 50F;PTFE 0103;Lublon TM-L 5F;Algoflon D 1610F;Algoflon D 2512F;Algoflon D 3511F;F 106C;CFP 6000X;JF 4DCD;XPP 538;SST 3P PTFE Powder;DISP 30;Juhua 118;Juhua 188;SA 5066;Teflon 7A-X;Teflon PTFE 7A-X;SST 3P;XPP 535S;3M 9025;SJ-F 690;Du Pont 6900GR;Dispers EZ 300;JTC 305S;JF 4A2;Fluon CD 129E;PTFE 807NX;SJF 381;SJF 2037;Polyflon PF 040;PF 040;Naflon PTFE Sheet Tombo 9000S;Aflon PTFE-L 180;Aflon L 180;Dyneon TFM 1750;Dyneon TF 2053Z;Polyflon F 107;Polyflon M 17;Versilon PTFE;Fluorolink MT 70;KLT 500F;AQ 50;Algoflon L 620;Polyflon Fine Powder F 104U;Polyfuron Fine Powder F 104U;L 620;Ftoroplast F 4NTD2;XH 9060;B 01-600;FJ 1025;XK 011;L 106 (fluoropolymer);L 106;CGF 218H;CFN 1;D 201;T 050A;PF 050;KTL 630;Herolub 5F;MPT-W 5;Starlite 31000;TP 300;RT 5870;PTFE 0101;DISP 30LX;ZF 24F;JTF 303S;PTFE 1005;DF 101;DF 102;TF 1600;Polyflon F 106C;Polyflon L 5F;Polyflon PTFE F 106C;MPF 5003;Teflon PTFE 7C;Teflon PTFE A 5;Teflon PTFE 6J;Teflon PTFE 7AJ;Teflon A 5;CGM 021-16F;PFA-W 3;SN 3201;Flontech FT 1-10;M 531;C 012;PTFE Fine Powder 6J;CRC 03044;F 500H;A 5000;ToolTec A 007;B 01;M 81;M 81 (fluoropolymer);Porafil TE;FL 1680;Tianshi 0127;900UL;Porelle P 338-5;Taconic 7226;EJ 1650;Yodoflon 4600;AquaFLON 52;PTFE 34JR;Algoflon L 600;X 010;DF 202;JF 4D;PEW 0602F;PEW 0617F;PEW 0620F;PEW 0621F;PEW 0655F;Algoflon L 105;Sartorius 11806-47N;LUB 5;Deurex 6414;WB-T 8408;FR 104-1;AD 916E;T 05;T 99;KT 450;W 8006;T 05 (fluoropolymer);T 99 (fluoropolymer);KT 450 (fluoropolymer);Fluoroplast 4NTD2;F 101;CD 123E;K 26981A;CGF 219;Fluoroplast F 4;SFN 2H;Du Pont D 30;D 30;Fluo X 1406;NR 0532-003;YKF 410;Taconic 7057;A 3000;DF 291X;DF 132X;DF 681;DF 381;S 131;Polyflon F 104C;Polyflon PTFE F 104C;F 104C;DF 206;DF 106C;A 3000 (fluoropolymer);S 131 (fluoropolymer);DF 681 (fluoropolymer);XK 920;JYN 810;WB-T 840;F 303;DF 16A;Fluorimid 2BL;Polyflon D 711;D 711;Fluon L 172JE;JH 200;Inoflon B 105;Teflon PFS 020;JF 4DCB;0141X;8AX;Fluon 172J;Teflon SLA;ZS 1041;Lanco 1972;FL 1650;JTCM 303;Dyneon TF 9201Z;KTL 100;PN 90;Dyneon TF 5050Z;TFM 1610;TF 2073Z;Dyneon TF 9705;Teflon PTFE Molding Powder 7A-J;PTFE 0102;Teflon Dispersion DISP 30;CF 200;Microdisperse 3000;XPP 541;Microdispers 3000;FLFZM 001;Chemours 62X;Dyneon TF 5033Z;TF 5033Z;DF 301;Teflon DIS 40;F 5;Inoflon 640;G 800T;P 816262;Algoflon F 5FT;TF 9207A;Nanoflon PAO 30;JH 220;JF 4DCA;RF 60TC;EK 3700C21R;Ultraflon MP 10;Ultraflon MP 25;Ultraflon MP 55;3677A;MPI 100;FW 4300;Perfluoroethylene homopolymer;Polyflon PTFE-EK 3700C21R;F 4EA;SFLON SF 1000;Daikin D 411;FX 500H;Teflon PTFE DISP 35;N 06;601X;AquaFLON 50;Membrane Filter T 300A;F 2480;Algoflon L 106;Naflon Tombo 9000;TPD 505H;TPD 515H;Fluoro GT 105;Fluoro GT 130;MicroFLON T 801;MicroFLON T 803HT;MicroFLON T 807;Fluteck P1000;TF 4305;XD 666A;F 202 (fluoropolymer);F 202;DW 633;MS 122AD;YM 21411;PTFE 0108;PEW 0674F;SN 3310;MP 850;MT 1000;PTFE 4701;CGM 031B1;Fluon PTFE-L 172JE;Miflon 3214;Rogers RO 5880;Polyflon MPA-FA 5601;Inolub T 201F;Rogers RT 5880;Chemfilm T 500;NS 01;FC 2060;Teflon 60X;e-PTFE 204;JCMSC 1;PTFE 6N-X;SEF 010;M 530 (fluoropolymer);M 530;DF 203S;DF 204S;Fluon PTFE Lub L 173JE;MF 120C;GR-C 525;Teflon 650XTX;Daikin 10-120;D 104 (fluoropolymer);D 104;PTFE 6C;LF 15 (fluoropolymer);LF 15;P 875333;DF 16 (fluoropolymer);DF 16;TFM 1600;GR-C 1450;GMM 404;Shamrock 160G-RC;Lubeflon K 301FDA;PTFE 200D;660J;SJ 201;SJ-F 495A;Teflon 641J;Fluon TL 368;TL 368;PTFE 2320-50W;PTFE 0141;PTFE 1003;HMP 50;HMP 70;Dyneon TF 9202Z;GR-C 0590P;Algoflon L 100;DISP 40;JTC 308;SST 1MG-RC;DF 161;PTFE 1777;FR 302W;Fluoropore FGLP 04700;Inolub T 110;JHWP 04700;FGLP 04700;A 1401 (fluoropolymer);A 1401;MSPTFE 022B;FP 30FM000140;Retex TAW 017;TMA 3800;Temish S-NTF 1133;JF-G 90;TX 6522;Fluo 400XF;SNFZM 0710;SNFZM 1520;SNFZM 4060;SN 3301;Algoflon DF 681F;Algoflon DF 681;OP 9009;1004A;PTFE 0104A;Teflon 945H;Polyflon MPA-FA 500HJ;M 533;GR 7416;GR-C 585;NTF 820A;NTF 811A;JT 450 (fluoropolymer);JT 450;KTR 8N;GR-C 04W20;Temish;PB 150 (fluoropolymer);PB 150;TFW 1000P;237B;NS 07;FR 203A2;F 601;Fluon CB 8015X;MG 40 (fluoropolymer);MG 40;E 801;D 60 (fluoropolymer);D 60;SST 3H-RC;TRG 460;Shamrock SST 3T1-RC;Inolub T 315F;Inolub T 330F;Polyflon PTFE-L 5;XPP 552R;XY 3208;SFN 3SH;TPD 450;Polymist F 5AR;FA 600 (fluoropolymer);FA 600;PTFE 0154;F 230 (fluoropolymer);F 230;DF 17 (fluoropolymer);DF 306;DF 17;DF 304 (fluoropolymer);DF 304;M 292 (fluoropolymer);Teflon CFP 6000X;M 29038;M 800 (fluoropolymer);M 800;BM 015;AS 125;JH 300 (fluoropolymer);JH 300;Polyflon PTFE F 108;TPD 505SA;Dyneon TFM 8854;Daikin AC 5820;PTFE 236;ZY 319;JF 4TN-S;DF 204XF;KTL 2F;JF 4DCAF4;Polyb FS 257;FS 257;DF 204F;DF 511T;Advantec DISMIC 13HP;PTF 020LH0P-MAST;Teflon PTFE 7B;TE 3499;PTFE-FR 308;Teflon PTFE 7CX;LF 5 (fluoropolymer);LF 5;FR 3306;F 204;F 605;Tecnimacor TFI 2531N;JH 305F;DF 3102;Poly-TS 30;FR-PT 105;Inoflon AD 9300;CGF 216Y;M 532;Lanco Glidd 3520;Inolub T 212F;Zonyl MP 1100E;MP 1100E",
    "duplicated_cas_no": "9042-03-9;9083-60-7;9083-96-9;9084-02-0;11100-52-0;11100-53-1;11100-55-3;12645-33-9;37206-29-4;37265-32-0;37270-95-4;37291-53-5;37339-24-5;39403-91-3;39403-92-4;50642-31-4;50642-88-1;52357-72-9;52627-41-5;52683-01-9;53168-59-5;54847-86-8;55069-26-6;55963-20-7;56996-58-8;57459-97-9;59217-42-4;60328-53-2;61036-97-3;61229-64-9;62395-27-1;62863-04-1;62887-20-1;66174-04-7;66594-21-6;67167-43-5;69458-69-1;70535-62-5;70694-56-3;73145-10-5;75789-23-0;75798-09-3;79818-40-9;82458-15-9;82785-14-6;83138-91-4;83383-03-3;85497-65-0;86473-61-2;86923-87-7;90881-59-7;91316-43-7;92047-28-4;99550-18-2;99775-10-7;107497-84-7;113796-63-7;113796-64-8;120250-48-8;122303-61-1;124364-97-2;127464-21-5;132324-77-7;137263-78-6;137263-79-7;137263-80-0;137263-81-1;137263-82-2;139074-77-4;142106-41-0;144855-59-4;147172-51-8;151638-47-0;151638-48-1;162874-32-0;173432-12-7;173524-85-1;173940-57-3;177645-76-0;179987-17-8;186048-63-5;186048-70-4;186048-71-5;198228-60-3;200888-96-6;202936-18-3;203210-56-4;210637-31-3;271586-43-7;335595-23-8;361532-11-8;420116-79-6;438466-29-6;438467-03-9;654065-49-3;689286-00-8;753010-13-8;777084-73-8;808142-15-6;849624-85-7;849683-53-0;865852-56-8;866598-48-3;868155-93-5;911051-23-5;958295-88-0;1059111-04-4;1078068-41-3;1150643-75-6;1173720-21-2;1189099-92-0;1229246-38-1;1262885-35-7;1303611-88-2;1314359-49-3;1393846-38-2;1411963-31-9;1491144-54-7;1555631-27-0;1672661-42-5;1799711-33-3;1802403-14-0;1811504-87-6;1812171-16-6;1903777-94-5;2006326-48-1;2060526-63-6;2081847-41-6;2136579-25-2;2138871-27-7;2252447-31-5;2259860-22-3;2313532-70-4;2388978-93-4;2622983-86-0;2683579-23-7;2761304-18-9;2763634-54-2;3035664-58-2",
    "SMILES": "C(=C(F)F)(F)F",
    "meta_data": {
        "InChI": "InChI=1S/C2F4/c3-1(4)2(5)6",
        "InChIKey": null,
        "Canonical SMILES": "FC(F)=C(F)F",
        "Molecular Formula": "(C<sub>2</sub>F<sub>4</sub>)<sub>x</sub>",
        "Molecular Mass": "",
        "Melting Point": "320-330 °C",
        "Density": "2.25 g/cm³"
    }
}