{
    "cas_no": "13137-64-9",
    "key_name": "Periplocin",
    "cn_name": null,
    "alternate_name": "Card-20(22)-enolide, 3-[(2,6-dideoxy-4-<em>O</em>-β-<span class=\"text-smallcaps\">D</smallcap>-glucopyranosyl-3-<em>O</em>-methyl-β-<smallcap>D</span>-<em>ribo</em>-hexopyranosyl)oxy]-5,14-dihydroxy-, (3β,5β)-;Periplocin;(3β,5β)-3-[(2,6-Dideoxy-4-<em>O</em>-β-<span class=\"text-smallcaps\">D</smallcap>-glucopyranosyl-3-<em>O</em>-methyl-β-<smallcap>D</span>-<em>ribo</em>-hexopyranosyl)oxy]-5,14-dihydroxycard-20(22)-enolide;Periplocoside;Periplogenin 3-<em>O</em>-[β-<span class=\"text-smallcaps\">D</smallcap>-glucopyranosyl-(1→4)-β-<smallcap>D</span>-cymaropyranoside]",
    "duplicated_cas_no": "20728-06-7;30899-79-7;802562-53-4",
    "SMILES": "O[C@@]12[C@]3([C@@]([C@]4(C)[C@](O)(CC3)C[C@@H](O[C@H]5C[C@H](OC)[C@H](O[C@@H]6O[C@H](CO)[C@@H](O)[C@H](O)[C@H]6O)[C@@H](C)O5)CC4)(CC[C@]1(C)[C@H](CC2)C7=CC(=O)OC7)[H])[H]",
    "meta_data": {
        "InChI": "InChI=1S/C36H56O13/c1-18-31(49-32-30(41)29(40)28(39)25(16-37)48-32)24(44-4)14-27(46-18)47-20-5-9-33(2)22-6-10-34(3)21(19-13-26(38)45-17-19)8-12-36(34,43)23(22)7-11-35(33,42)15-20/h13,18,20-25,27-32,37,39-43H,5-12,14-17H2,1-4H3/t18-,20+,21-,22+,23-,24+,25-,27+,28-,29+,30-,31-,32+,33-,34-,35+,36+/m1/s1",
        "InChIKey": null,
        "Canonical SMILES": "O=C1OCC(=C1)C2CCC3(O)C4CCC5(O)CC(OC6OC(C)C(OC7OC(CO)C(O)C(O)C7O)C(OC)C6)CCC5(C)C4CCC23C",
        "Molecular Formula": "C<sub>36</sub>H<sub>56</sub>O<sub>13</sub>",
        "Molecular Mass": "696.82",
        "Melting Point": "224 °C (decomp)"
    }
}