{
    "cas_no": "22504-50-3",
    "key_name": "1,1′-(1,2-Ethanediyl) bis(3-mercaptopropanoate)",
    "cn_name": "双(3-巯基丙酸)乙二醇;",
    "alternate_name": "Propanoic acid, 3-mercapto-, 1,1′-(1,2-ethanediyl) ester;Propionic acid, 3-mercapto-, ethylene ester;Propanoic acid, 3-mercapto-, 1,2-ethanediyl ester;Ethylene glycol, bis(3-mercaptopropionate);1,1′-(1,2-Ethanediyl) bis(3-mercaptopropanoate);Ethylene glycol bis(β-mercaptopropionate);Ethylene 3-mercaptopropionate;Ethylenebis(3-mercaptopropionate);E 23 (crosslinking agent);Ethylene glycol di(β-mercaptopropionate);Ethylenebis(β-mercaptopropionate);E 23;Ethylene glycol di(3-mercaptopropionate);1,2-Ethylene glycol bis(3-mercaptopropionate);Thiocure GDMP;GDMP;Glycol dimercaptopropionate;Ethane-1,2-diyl bis(3-sulfanylpropanoate);Ethylene glycol bis(mercaptopropionate);Glycol di-3-mercaptopropionate;Thiocure 320;1,2-Bis(3-mercaptopropionyloxy)ethane",
    "duplicated_cas_no": "",
    "SMILES": "C(OCCOC(CCS)=O)(CCS)=O",
    "meta_data": {
        "InChI": "InChI=1S/C8H14O4S2/c9-7(1-5-13)11-3-4-12-8(10)2-6-14/h13-14H,1-6H2",
        "InChIKey": null,
        "Canonical SMILES": "O=C(OCCOC(=O)CCS)CCS",
        "Molecular Formula": "C<sub>8</sub>H<sub>14</sub>O<sub>4</sub>S<sub>2</sub>",
        "Molecular Mass": "238.32",
        "Melting Point": "148 °C"
    }
}