{
    "cas_no": "492-62-6",
    "key_name": "α-<span class=\"text-smallcaps\">D</span>-Glucose",
    "cn_name": null,
    "alternate_name": "α-<span class=\"text-smallcaps\">D</span>-Glucopyranose;Glucopyranose, α-<span class=\"text-smallcaps\">D</span>-;α-Dextrose;α-Glucose;α-<span class=\"text-smallcaps\">D</span>-Glucose",
    "duplicated_cas_no": "26655-34-5;95671-82-2;2247917-45-7",
    "SMILES": "C(O)[C@@H]1[C@@H](O)[C@H](O)[C@@H](O)[C@@H](O)O1",
    "meta_data": {
        "InChI": "InChI=1S/C6H12O6/c7-1-2-3(8)4(9)5(10)6(11)12-2/h2-11H,1H2/t2-,3-,4+,5-,6+/m1/s1",
        "InChIKey": null,
        "Canonical SMILES": "OCC1OC(O)C(O)C(O)C1O",
        "Molecular Formula": "C<sub>6</sub>H<sub>12</sub>O<sub>6</sub>",
        "Molecular Mass": "180.16",
        "Melting Point": "146 °C",
        "Density": "1.06 g/cm³ @ Temp: 20 °C"
    }
}