{
    "cas_no": "9001-99-4",
    "key_name": "Ribonuclease",
    "cn_name": null,
    "alternate_name": "Ribonuclease;Nuclease, ribo-;E.C. 2.7.7.16;Ribonucleic phosphatase;RNase;RNase A;Ribonuclease A;RNase I;Alkaline ribonuclease;Pancreatic ribonuclease;Alkaline RNase;E.C. 3.1.4.22;EC 2.7.7.16;RNAase;EC 3.1.4.22;Alk. ribonuclease;Alk. RNase;Interleukin 2 mRNA-selective ribonuclease;RNase B;EC 3.1.27.5;E.C. 3.1.27.5;Gigantin;Ribonuclease B;Keratinocyte-derived RNase-like factor;Pancreatic RNase;Lactoribonuclease;RNase 1;RNase ONE;Nuclease RP-1;E.C. 3.1.26.1;E.C. 3.1.26.2;Amphinase;R 5500;Ribonuclease S;RNase S;Nuclease Amano E;EC 3.1.26.2",
    "duplicated_cas_no": "9038-12-4;9081-35-0;81989-91-5;102227-38-3;102227-40-7",
    "SMILES": "",
    "meta_data": {
        "InChI": "",
        "InChIKey": null,
        "Canonical SMILES": "",
        "Molecular Formula": "Unspecified",
        "Molecular Mass": "",
        "Melting Point": "243 °C (decomp)"
    }
}