{
    "uri": "substance/pt/9001994",
    "rn": "9001-99-4",
    "name": "Ribonuclease",
    "images": [],
    "inchi": "",
    "inchiKey": "",
    "smile": "",
    "canonicalSmile": "",
    "molecularFormula": "Unspecified",
    "molecularMass": "",
    "experimentalProperties": [
        {
            "name": "Melting Point",
            "property": "243 °C (decomp)",
            "sourceNumber": 1
        }
    ],
    "propertyCitations": [
        {
            "docUri": "document/pt/document/21972247",
            "sourceNumber": 1,
            "source": "Balakrishna, K. J.; Proceedings - Indian Academy of Sciences, Section A, (1945), 22A, 143-7, CAplus"
        }
    ],
    "synonyms": [
        "Ribonuclease",
        "Nuclease, ribo-",
        "E.C. 2.7.7.16",
        "Ribonucleic phosphatase",
        "RNase",
        "RNase A",
        "Ribonuclease A",
        "RNase I",
        "Alkaline ribonuclease",
        "Pancreatic ribonuclease",
        "Alkaline RNase",
        "E.C. 3.1.4.22",
        "EC 2.7.7.16",
        "RNAase",
        "EC 3.1.4.22",
        "Alk. ribonuclease",
        "Alk. RNase",
        "Interleukin 2 mRNA-selective ribonuclease",
        "RNase B",
        "EC 3.1.27.5",
        "E.C. 3.1.27.5",
        "Gigantin",
        "Ribonuclease B",
        "Keratinocyte-derived RNase-like factor",
        "Pancreatic RNase",
        "Lactoribonuclease",
        "RNase 1",
        "RNase ONE",
        "Nuclease RP-1",
        "E.C. 3.1.26.1",
        "E.C. 3.1.26.2",
        "Amphinase",
        "R 5500",
        "Ribonuclease S",
        "RNase S",
        "Nuclease Amano E",
        "EC 3.1.26.2"
    ],
    "replacedRns": [
        "9038-12-4",
        "9081-35-0",
        "81989-91-5",
        "102227-38-3",
        "102227-40-7"
    ],
    "hasMolfile": false,
    "source": "https://commonchemistry.cas.org/detail?cas_rn=9001-99-4"
}