{
    "cas_no": "2094-72-6",
    "key_name": "1-Adamantanecarbonyl chloride",
    "cn_name": "金刚烷酰氯;1-金刚烷甲酰氯;",
    "alternate_name": "Tricyclo[3.3.1.1<sup>3,7</sup>]decane-1-carbonyl chloride;1-Adamantanecarbonyl chloride;1-Adamantanecarboxylic acid chloride;1-Adamantylcarbonyl chloride;1-Adamantoyl chloride;1-Adamantylcarboxylic acid chloride;1-Adamantanoyl chloride;NSC 179368;NSC 249324;1-Chlorocarbonyladamantane",
    "duplicated_cas_no": "",
    "SMILES": "C(Cl)(=O)C12CC3CC(C1)CC(C2)C3",
    "meta_data": {
        "InChI": "InChI=1S/C11H15ClO/c12-10(13)11-4-7-1-8(5-11)3-9(2-7)6-11/h7-9H,1-6H2",
        "InChIKey": null,
        "Canonical SMILES": "O=C(Cl)C12CC3CC(CC(C3)C1)C2",
        "Molecular Formula": "C<sub>11</sub>H<sub>15</sub>ClO",
        "Molecular Mass": "198.69",
        "Boiling Point": "140 °C @ Press: 15 Torr",
        "Melting Point": "48.5-52.0 °C"
    }
}