{
    "cas_no": "7152-40-1",
    "key_name": "5-Amino-4-cyano-1-phenyl-1<em>H</em>-pyrazole-3-acetonitrile",
    "cn_name": "5-氨基-4-腈基-1-苯基-3-乙腈吡唑;5-氨基-4-氰基-3-氰基甲基-1-苯基吡唑;",
    "alternate_name": "1<em>H</em>-Pyrazole-3-acetonitrile, 5-amino-4-cyano-1-phenyl-;Pyrazole-3-acetonitrile, 5-amino-4-cyano-1-phenyl-;5-Amino-4-cyano-1-phenyl-1<em>H</em>-pyrazole-3-acetonitrile;5-Amino-4-cyano-3-cyanomethyl-1-phenylpyrazole;NSC 22494",
    "duplicated_cas_no": "",
    "SMILES": "NC=1N(N=C(CC#N)C1C#N)C2=CC=CC=C2",
    "meta_data": {
        "InChI": "InChI=1S/C12H9N5/c13-7-6-11-10(8-14)12(15)17(16-11)9-4-2-1-3-5-9/h1-5H,6,15H2",
        "InChIKey": null,
        "Canonical SMILES": "N#CC=1C(=NN(C=2C=CC=CC2)C1N)CC#N",
        "Molecular Formula": "C<sub>12</sub>H<sub>9</sub>N<sub>5</sub>",
        "Molecular Mass": "223.23",
        "Melting Point": "166-167 °C"
    }
}