{
    "cas_no": "62949-79-5",
    "key_name": "Kuwanon C",
    "cn_name": null,
    "alternate_name": "4<em>H</em>-1-Benzopyran-4-one, 2-(2,4-dihydroxyphenyl)-5,7-dihydroxy-3,8-bis(3-methyl-2-buten-1-yl)-;4<em>H</em>-1-Benzopyran-4-one, 2-(2,4-dihydroxyphenyl)-5,7-dihydroxy-3,8-bis(3-methyl-2-butenyl)-;2-(2,4-Dihydroxyphenyl)-5,7-dihydroxy-3,8-bis(3-methyl-2-buten-1-yl)-4<em>H</em>-1-benzopyran-4-one;Kuwanon C;Mulberrin;2-(2,4-Dihydroxyphenyl)-5,7-dihydroxy-3,8-bis(3-methylbut-2-enyl)chromen-4-one",
    "duplicated_cas_no": "",
    "SMILES": "C(C=C(C)C)C1=C2C(C(=O)C(CC=C(C)C)=C(O2)C3=C(O)C=C(O)C=C3)=C(O)C=C1O",
    "meta_data": {
        "InChI": "InChI=1S/C25H26O6/c1-13(2)5-8-17-20(28)12-21(29)22-23(30)18(9-6-14(3)4)24(31-25(17)22)16-10-7-15(26)11-19(16)27/h5-7,10-12,26-29H,8-9H2,1-4H3",
        "InChIKey": null,
        "Canonical SMILES": "O=C1C2=C(O)C=C(O)C(=C2OC(C=3C=CC(O)=CC3O)=C1CC=C(C)C)CC=C(C)C",
        "Molecular Formula": "C<sub>25</sub>H<sub>26</sub>O<sub>6</sub>",
        "Molecular Mass": "422.47",
        "Melting Point": "153-156 °C"
    }
}