{
    "cas_no": "3918-94-3",
    "key_name": "<span class=\"text-smallcaps\">L</smallcap>-Valyl-<smallcap>L</span>-valine",
    "cn_name": "H-VAL-VAL-OH;",
    "alternate_name": "<span class=\"text-smallcaps\">L</smallcap>-Valine, <smallcap>L</span>-valyl-;Valine, <em>N</em>-<span class=\"text-smallcaps\">L</smallcap>-valyl-, <smallcap>L</span>-;<span class=\"text-smallcaps\">L</smallcap>-Valine, <em>N</em>-<smallcap>L</span>-valyl-;Valine, <em>N</em>-<span class=\"text-smallcaps\">L</span>-valyl-;<span class=\"text-smallcaps\">L</smallcap>-Valyl-<smallcap>L</span>-valine;Valylvaline;Di-valine;108: PN: EP2161028 PAGE: 10 claimed protein;130: PN: WO2014102104 SEQID: 229 claimed protein;130: PN: WO2014102101 SEQID: 430 claimed protein;170: PN: WO2014102103 TABLE: 1 claimed protein;149: PN: WO2014102100 TABLE: 1 claimed protein;6: PN: WO2023056433 PAGE: 60 claimed sequence;183: PN: WO2023161197 SEQID: 185 claimed sequence",
    "duplicated_cas_no": "804437-56-7;1083043-04-2",
    "SMILES": "[C@H](NC([C@H](C(C)C)N)=O)(C(C)C)C(O)=O",
    "meta_data": {
        "InChI": "InChI=1S/C10H20N2O3/c1-5(2)7(11)9(13)12-8(6(3)4)10(14)15/h5-8H,11H2,1-4H3,(H,12,13)(H,14,15)/t7-,8-/m0/s1",
        "InChIKey": null,
        "Canonical SMILES": "O=C(O)C(NC(=O)C(N)C(C)C)C(C)C",
        "Molecular Formula": "C<sub>10</sub>H<sub>20</sub>N<sub>2</sub>O<sub>3</sub>",
        "Molecular Mass": "216.28",
        "Melting Point": "253-254 °C",
        "Density": "1.216 g/cm³ @ Temp: 26 °C"
    }
}