{
    "cas_no": "103-50-4",
    "key_name": "Dibenzyl ether",
    "cn_name": "苄醚;二苄醚;",
    "alternate_name": "Benzene, 1,1′-[oxybis(methylene)]bis-;Benzyl ether;1,1′-[Oxybis(methylene)]bis[benzene];Benzyl oxide;Dibenzyl ether;Plastikator BA;BA (plasticizer);BA;NSC 5931;[(Benzyloxy)methyl]benzene;(Oxybis(methylene))dibenzene",
    "duplicated_cas_no": "",
    "SMILES": "C(OCC1=CC=CC=C1)C2=CC=CC=C2",
    "meta_data": {
        "InChI": "InChI=1S/C14H14O/c1-3-7-13(8-4-1)11-15-12-14-9-5-2-6-10-14/h1-10H,11-12H2",
        "InChIKey": null,
        "Canonical SMILES": "O(CC=1C=CC=CC1)CC=2C=CC=CC2",
        "Molecular Formula": "C<sub>14</sub>H<sub>14</sub>O",
        "Molecular Mass": "198.26",
        "Boiling Point": "298 °C",
        "Melting Point": "3.6 °C",
        "Density": "0.99735 g/cm³ @ Temp: 25 °C"
    }
}