{
    "cas_no": "123-43-3",
    "key_name": "Sulfoacetic acid",
    "cn_name": null,
    "alternate_name": "Acetic acid, 2-sulfo-;Acetic acid, sulfo-;2-Sulfoacetic acid;Sulfoacetic acid;Sulfoethanoic acid;Carboxymethylsulfonic acid",
    "duplicated_cas_no": "44656-61-3",
    "SMILES": "C(S(=O)(=O)O)C(O)=O",
    "meta_data": {
        "InChI": "InChI=1S/C2H4O5S/c3-2(4)1-8(5,6)7/h1H2,(H,3,4)(H,5,6,7)",
        "InChIKey": null,
        "Canonical SMILES": "O=C(O)CS(=O)(=O)O",
        "Molecular Formula": "C<sub>2</sub>H<sub>4</sub>O<sub>5</sub>S",
        "Molecular Mass": "140.12",
        "Melting Point": "84 °C"
    }
}