{
    "cas_no": "4549-32-0",
    "key_name": "1,8-Dibromooctane",
    "cn_name": "1,8-二溴辛烷;",
    "alternate_name": "Octane, 1,8-dibromo-;1,8-Dibromooctane;Octamethylene dibromide;α,ω-Dibromooctane;NSC 9820",
    "duplicated_cas_no": "",
    "SMILES": "C(CCCCBr)CCCBr",
    "meta_data": {
        "InChI": "InChI=1S/C8H16Br2/c9-7-5-3-1-2-4-6-8-10/h1-8H2",
        "InChIKey": null,
        "Canonical SMILES": "BrCCCCCCCCBr",
        "Molecular Formula": "C<sub>8</sub>H<sub>16</sub>Br<sub>2</sub>",
        "Molecular Mass": "272.02",
        "Boiling Point": "271 °C",
        "Melting Point": "15.5 °C"
    }
}