{
    "cas_no": "69506-86-1",
    "key_name": "1,1′-(1,4-Butanediyl)bis(imidazole)",
    "cn_name": null,
    "alternate_name": "1<em>H</em>-Imidazole, 1,1′-(1,4-butanediyl)bis-;Imidazole, 1,1′-tetramethylenedi-;1,1′-(1,4-Butanediyl)bis[1<em>H</em>-imidazole];1,1′-Tetramethylenebis[imidazole];<em>N</em>,<em>N</em>′-Butylenebis(imidazole);1,4-Bis(1-imidazolyl)butane;1,1′-(1,4-Butanediyl)diimidazole;1,1′-(1,4-Butanediyl)bis(imidazole);1,4-Bis(<em>N</em>-imidazolyl)butane;1,4-Bis(1<em>H</em>-imidazol-1-yl)butane;1,4-Di(1<em>H</em>-imidazol-1-yl)butane;1,1′-(Butane-1,4-diyl)di-1<em>H</em>-imidazole;1,4-Di(1-imidazolyl)butane;1,4-Bis(imidazole-1-yl)butane",
    "duplicated_cas_no": "137494-72-5;1196835-69-4",
    "SMILES": "C(CCCN1C=CN=C1)N2C=CN=C2",
    "meta_data": {
        "InChI": "InChI=1S/C10H14N4/c1(5-13-7-3-11-9-13)2-6-14-8-4-12-10-14/h3-4,7-10H,1-2,5-6H2",
        "InChIKey": null,
        "Canonical SMILES": "N=1C=CN(C1)CCCCN2C=NC=C2",
        "Molecular Formula": "C<sub>10</sub>H<sub>14</sub>N<sub>4</sub>",
        "Molecular Mass": "190.24",
        "Boiling Point": "220-225 °C @ Press: 3 Torr",
        "Melting Point": "61-63 °C"
    }
}