{
    "cas_no": "72120-71-9",
    "key_name": "(α<em>S</em>)-α-Aminobenzo[<em>b</em>]thiophene-3-propanoic acid",
    "cn_name": null,
    "alternate_name": "Benzo[<em>b</em>]thiophene-3-propanoic acid, α-amino-, (α<em>S</em>)-;Benzo[<em>b</em>]thiophene-3-propanoic acid, α-amino-, (<em>S</em>)-;(α<em>S</em>)-α-Aminobenzo[<em>b</em>]thiophene-3-propanoic acid;<span class=\"text-smallcaps\">L</span>-Thiotryptophan;(-)-2-Amino(benzo[<em>b</em>]thiophen-3-yl)propionic acid;(2S)-2-Amino-3-(1-benzothiophen-3-yl)propanoic acid",
    "duplicated_cas_no": "",
    "SMILES": "C([C@@H](C(O)=O)N)C=1C=2C(SC1)=CC=CC2",
    "meta_data": {
        "InChI": "InChI=1S/C11H11NO2S/c12-9(11(13)14)5-7-6-15-10-4-2-1-3-8(7)10/h1-4,6,9H,5,12H2,(H,13,14)/t9-/m0/s1",
        "InChIKey": null,
        "Canonical SMILES": "O=C(O)C(N)CC1=CSC=2C=CC=CC21",
        "Molecular Formula": "C<sub>11</sub>H<sub>11</sub>NO<sub>2</sub>S",
        "Molecular Mass": "221.28",
        "Melting Point": "248-250 °C (decomp)"
    }
}