{
    "cas_no": "3129-91-7",
    "key_name": "Cyclohexanamine, <em>N</em>-cyclohexyl-, nitrite (1:1)",
    "cn_name": "亚硝酸二环己胺;二环己胺亚硝酸盐;",
    "alternate_name": "Cyclohexanamine, <em>N</em>-cyclohexyl-, nitrite (1:1);Dicyclohexylamine, nitrite;Cyclohexanamine, <em>N</em>-cyclohexyl-, nitrite;Dicyclohexylammonium nitrite;NDA;Dichan;Leukorrosin C;Diana (corrosion inhibitor);Nitrous acid compd. with <em>N</em>-cyclohexylcyclohexanamine (1:1);NDA (corrosion inhibitor);TVI;VPI 260;Diana;VP 1260;Dicyclohexylamine nitrous acid salt;NSC 49612;Nitrous acid compd. with dicyclohexylamine",
    "duplicated_cas_no": "108314-12-1;123789-16-2;12640-76-5;75635-31-3;85531-00-6;856577-72-5",
    "SMILES": "N(=O)O.N(C1CCCCC1)C2CCCCC2",
    "meta_data": {
        "InChI": "InChI=1S/C12H23N.HNO2/c1-3-7-11(8-4-1)13-12-9-5-2-6-10-12;2-1-3/h11-13H,1-10H2;(H,2,3)",
        "InChIKey": null,
        "Canonical SMILES": "O=NO.N(C1CCCCC1)C2CCCCC2",
        "Molecular Formula": "C<sub>12</sub>H<sub>23</sub>N.HNO<sub>2</sub>",
        "Molecular Mass": "",
        "Melting Point": "176-178 °C (decomp)"
    }
}