{
    "cas_no": "16369-05-4",
    "key_name": "(±)-Valinol",
    "cn_name": null,
    "alternate_name": "1-Butanol, 2-amino-3-methyl-;1-Butanol, 2-amino-3-methyl-, <span class=\"text-smallcaps\">D</smallcap><smallcap>L</span>-;1-Butanol, 2-amino-3-methyl-, (±)-;2-Amino-3-methyl-1-butanol;(±)-Valinol;<em>dl</em>-Valinol;<span class=\"text-smallcaps\">D</smallcap><smallcap>L</span>-Valinol;Valinol;3-Methyl-2-aminobutanol;[1-(Hydroxymethyl)-2-methylpropyl]amine;<em>rac</em>-Valinol;(±)-2-Amino-3-methyl-1-butanol;2-Amino-3-methylbutanol;<em>N</em>-(1-Hydroxy-3-methylbutan-2-yl)amine",
    "duplicated_cas_no": "473-75-6",
    "SMILES": "C(C(C)C)(CO)N",
    "meta_data": {
        "InChI": "InChI=1S/C5H13NO/c1-4(2)5(6)3-7/h4-5,7H,3,6H2,1-2H3",
        "InChIKey": null,
        "Canonical SMILES": "OCC(N)C(C)C",
        "Molecular Formula": "C<sub>5</sub>H<sub>13</sub>NO",
        "Molecular Mass": "103.16",
        "Boiling Point": "181-186 °C @ Press: 720 Torr",
        "Melting Point": "31-32 °C"
    }
}