{
    "cas_no": "7120-41-4",
    "key_name": "Methyl 5-bromo-2-methoxybenzoate",
    "cn_name": null,
    "alternate_name": "Benzoic acid, 5-bromo-2-methoxy-, methyl ester;<em>o</em>-Anisic acid, 5-bromo-, methyl ester;Methyl 5-bromo-<em>o</em>-anisate;5-Bromo-2-methoxybenzoic acid methyl ester;Methyl 2-methoxy-5-bromobenzoate;Methyl 5-bromo-2-methoxybenzoate;Methyl 3-bromo-6-methoxybenzoate",
    "duplicated_cas_no": "",
    "SMILES": "C(OC)(=O)C1=C(OC)C=CC(Br)=C1",
    "meta_data": {
        "InChI": "InChI=1S/C9H9BrO3/c1-12-8-4-3-6(10)5-7(8)9(11)13-2/h3-5H,1-2H3",
        "InChIKey": null,
        "Canonical SMILES": "O=C(OC)C1=CC(Br)=CC=C1OC",
        "Molecular Formula": "C<sub>9</sub>H<sub>9</sub>BrO<sub>3</sub>",
        "Molecular Mass": "245.07",
        "Melting Point": "39-40 °C"
    }
}