{
    "cas_no": "14047-28-0",
    "key_name": "(α<em>R</em>)-6-Amino-α-methyl-9<em>H</em>-purine-9-ethanol",
    "cn_name": "(R)-(+)-9-(2-羟丙基)腺嘌呤;",
    "alternate_name": "9<em>H</em>-Purine-9-ethanol, 6-amino-α-methyl-, (α<em>R</em>)-;9<em>H</em>-Purine-9-ethanol, 6-amino-α-methyl-, <span class=\"text-smallcaps\">D</span>-;9<em>H</em>-Purine-9-ethanol, 6-amino-α-methyl-, (<em>R</em>)-;(α<em>R</em>)-6-Amino-α-methyl-9<em>H</em>-purine-9-ethanol;<span class=\"text-smallcaps\">D</span>-(-)-9-(2-Hydroxypropyl)adenine;9-[(2<em>R</em>)-2-Hydroxypropyl]adenine;(<em>R</em>)-9-(2-Hydroxypropyl)adenine;9-[2-(<em>R</em>)-(Hydroxy)propyl]adenine;(<em>R</em>)-(+)-9-(2-Hydroxypropyl)adenine;(2R)-1-(6-Aminopurin-9-yl)propan-2-ol;(R)-(+)-9-(2-Hydroxypropyl)adenine",
    "duplicated_cas_no": "",
    "SMILES": "C([C@@H](C)O)N1C=2C(N=C1)=C(N)N=CN2",
    "meta_data": {
        "InChI": "InChI=1S/C8H11N5O/c1-5(14)2-13-4-12-6-7(9)10-3-11-8(6)13/h3-5,14H,2H2,1H3,(H2,9,10,11)/t5-/m1/s1",
        "InChIKey": null,
        "Canonical SMILES": "OC(C)CN1C=NC=2C(=NC=NC21)N",
        "Molecular Formula": "C<sub>8</sub>H<sub>11</sub>N<sub>5</sub>O",
        "Molecular Mass": "193.21",
        "Melting Point": "193 °C"
    }
}