{
    "cas_no": "26787-78-0",
    "key_name": "Amoxicillin",
    "cn_name": "阿莫西林;羟氨苄青霉素;(2S,5R,6R)-3,3-二甲基-6-[(R)-(-)-2-氨基-2-(4-羟基苯基)乙酰氨基]-7-氧代-4-硫杂-;",
    "alternate_name": "4-Thia-1-azabicyclo[3.2.0]heptane-2-carboxylic acid, 6-[[(2<em>R</em>)-2-amino-2-(4-hydroxyphenyl)acetyl]amino]-3,3-dimethyl-7-oxo-, (2<em>S</em>,5<em>R</em>,6<em>R</em>)-;4-Thia-1-azabicyclo[3.2.0]heptane-2-carboxylic acid, 6-[[amino(4-hydroxyphenyl)acetyl]amino]-3,3-dimethyl-7-oxo-, [2<em>S</em>-[2α,5α,6β(<em>S</em>*)]]-;4-Thia-1-azabicyclo[3.2.0]heptane-2-carboxylic acid, 6-[2-amino-2-(<em>p</em>-hydroxyphenyl)acetamido]-3,3-dimethyl-7-oxo-, <span class=\"text-smallcaps\">D</span>-;4-Thia-1-azabicyclo[3.2.0]heptane-2-carboxylic acid, 6-[[(2<em>R</em>)-amino(4-hydroxyphenyl)acetyl]amino]-3,3-dimethyl-7-oxo-, (2<em>S</em>,5<em>R</em>,6<em>R</em>)-;(2<em>S</em>,5<em>R</em>,6<em>R</em>)-6-[[(2<em>R</em>)-2-Amino-2-(4-hydroxyphenyl)acetyl]amino]-3,3-dimethyl-7-oxo-4-thia-1-azabicyclo[3.2.0]heptane-2-carboxylic acid;6-[<span class=\"text-smallcaps\">D</span>(-)-α-Amino-<em>p</em>-hydroxyphenylacetamido]penicillanic acid;Amoxicillin;Amoxycillin;BRL 2333;6-[<span class=\"text-smallcaps\">D</span>-(-)-2-Amino-2-(<em>p</em>-hydroxyphenyl)acetamido]-3,3-dimethyl-7-oxo-4-thia-1-azabicyclo[3.2.0]heptane-2-carboxylic acid;<span class=\"text-smallcaps\">D</span>-(-)-α-Amino-<em>p</em>-hydroxybenzyl penicillin;<span class=\"text-smallcaps\">D</span>-(α-Amino-<em>p</em>-hydroxybenzyl)penicillin;<em>p</em>-Hydroxyampicillin;Histocillin;Amoxil;6-[<span class=\"text-smallcaps\">D</span>-(-)-<em>p</em>-Hydroxy-α-aminobenzyl]penicillin;<span class=\"text-smallcaps\">D</span>-2-Amino-2-(4-hydroxyphenyl)acetamidopenicillanic acid;Clamoxyl;BLP 1410;6-[<span class=\"text-smallcaps\">D</span>-α-Amino-α-(4-hydroxyphenyl)acetamido]penicillanic acid;Imacillin;<span class=\"text-smallcaps\">D</span>-Amoxicillin;Amopen;Sawacillin;Amoclen;Cemoxin;Amoxipen;Anemolin;Bristamox;Delacillin;Aspenil;Ibiamox;Piramox;Sumox;Amopenixin;Ampy-Penyl;Amoxi;Efpenix;Amolin;Amoxi-Mast;Metifarma capsules;Metafarma capsules;Hiconcil;Amoxivet;Vetramox;Suramox PM;Flemoxin;Acimox;Abdimox;Agerpen;Actimoxi;Adbiotin;Almodan;Alphamox;AM 73;Amagesen Solutab;Amcill;A-Gram;Alfamox;Amoflux;Amosine;Amox;Amoxa;Amoxal;Amoxapen;Amoxaren;Amoxcillin;Amoxi-basan;Amoxibiotic;Amoxicilina;Amoxidal;Amoxiden;Amodex;Amo-flamsian;Amoxillin;Amoxin;Amoxipenil;Amoxisol;Amoxivan;Amoxtrex;Amoxy;Amoxy-diolan;Amoxypen;Ampidroxyl;Anemol;Apitart;Apo-Amoxi;Audumic;Azillin;Bactamox;Bimox;Bintamox;Biomox;Bioxidona;Bioxyllin;Bridopen;Cabermox;Cilamox;Clamox;Coamoxin;Comoxyl;Damoxicil;Amoxidin;Amoxihexal;Eupen;Excillin;Efpinex;Fisamox;Foxolin;Farconcil;Gemox;Gimalxina;Gomcillin;Grinsul;Grunamox;Hidramox;Fullcilina;Draximox;Ikamoxil;Imaxilin;Imox;Imoxil;Intermox;Isimoxin;Izoltil;Jerramcil;Kamoxin;Lamoxy;Larocilin;Larotid;Limox;Hipen;Hosboral;Maxcil;Medimox;Meixil;Mopen;Morgenxil;Mox;Moxacin;Moxaline;Moxarin;Moxcil;Moxilen;Moxlin;Moxylin;Moxypen;Moxyvit;Novabritine;Novamoxin;Novenzymin;Optium;Ospamox;Pamocil;Pamoxicillin;Pasetocin;Penamox;Penbiosyn;Pensyn;Polymox;Posmox;Protexillin;Majorpen;Matasedrin;Ranmoxy;Rancil;Rhamoxilina;Robamox;Ronemox;Saltermox;Ranoxyl;Reloxyl;Sawamezin;Senox;Sia-mox;Sigmopen;Sil-A-mox;Simoxil;Simplamox;Specillin;Superpeni;Suprapen;Teramoxyl;Tolodina;Triafamox;Triamoxil;Trilaxin;Trimox;Twicyl;Unicillin;Velamox;Virgoxillin;Widecillin;Winmox;Wymox;Yisulon;Zamocillin;Zamox;Zamoxil;Zerrsox;Zimox;Samosillin;Samthongcillin;Rocillin;Ardine;Ardine (pharmaceutical);Penimox;Amoxicillin Chewable Tablets;Helvamox;Betamox;Grinsil;Utimox;Amocilline;Amoram;NSC 277174;Eupensol;Gramidil;Suramox 50;Vetomoxin;Bactox;Novamox;Suramox;Blumox;Moxatag;DisperMox;MeSH ID: D000658",
    "duplicated_cas_no": "33911-69-2;71447-36-4;81030-75-3;1236363-38-4",
    "SMILES": "C(O)(=O)[C@@H]1N2[C@@]([C@H](NC([C@H](N)C3=CC=C(O)C=C3)=O)C2=O)(SC1(C)C)[H]",
    "meta_data": {
        "InChI": "InChI=1S/C16H19N3O5S/c1-16(2)11(15(23)24)19-13(22)10(14(19)25-16)18-12(21)9(17)7-3-5-8(20)6-4-7/h3-6,9-11,14,20H,17H2,1-2H3,(H,18,21)(H,23,24)/t9-,10-,11+,14-/m1/s1",
        "InChIKey": null,
        "Canonical SMILES": "O=C(O)C1N2C(=O)C(NC(=O)C(N)C3=CC=C(O)C=C3)C2SC1(C)C",
        "Molecular Formula": "C<sub>16</sub>H<sub>19</sub>N<sub>3</sub>O<sub>5</sub>S",
        "Molecular Mass": "365.40",
        "Melting Point": "140 °C"
    }
}