{
    "cas_no": "78-98-8",
    "key_name": "Methylglyoxal",
    "cn_name": "丙酮醛;",
    "alternate_name": "Propanal, 2-oxo-;Pyruvaldehyde;2-Oxopropanal;Acetylformaldehyde;Acetylformyl;α-Ketopropionaldehyde;Methylglyoxal;Pyroracemic aldehyde;Pyruvic aldehyde;2-Ketopropionaldehyde;2-Oxopropionaldehyde;NSC 626580;NSC 79019;MeSH ID: D011765",
    "duplicated_cas_no": "",
    "SMILES": "C(C=O)(C)=O",
    "meta_data": {
        "InChI": "InChI=1S/C3H4O2/c1-3(5)2-4/h2H,1H3",
        "InChIKey": null,
        "Canonical SMILES": "O=CC(=O)C",
        "Molecular Formula": "C<sub>3</sub>H<sub>4</sub>O<sub>2</sub>",
        "Molecular Mass": "72.06",
        "Boiling Point": "72 °C",
        "Melting Point": "&lt;25 °C",
        "Density": "1.0455 g/cm³ @ Temp: 24 °C"
    }
}