{
    "cas_no": "15764-16-6",
    "key_name": "2,4-Dimethylbenzaldehyde",
    "cn_name": "2,4-二甲基苯甲醛;",
    "alternate_name": "Benzaldehyde, 2,4-dimethyl-;2,4-Dimethylbenzaldehyde;2,4-Dimethylbenzenecarboxaldehyde;2,4-Methylbenzenecarboxaldehyde",
    "duplicated_cas_no": "",
    "SMILES": "C(=O)C1=C(C)C=C(C)C=C1",
    "meta_data": {
        "InChI": "InChI=1S/C9H10O/c1-7-3-4-9(6-10)8(2)5-7/h3-6H,1-2H3",
        "InChIKey": null,
        "Canonical SMILES": "O=CC1=CC=C(C=C1C)C",
        "Molecular Formula": "C<sub>9</sub>H<sub>10</sub>O",
        "Molecular Mass": "134.18",
        "Boiling Point": "114 °C @ Press: 20 Torr",
        "Density": "0.9328 g/cm³ @ Temp: 20 °C"
    }
}