{
    "cas_no": "1234-35-1",
    "key_name": "Benzyloxycarbonyl-<span class=\"text-smallcaps\">L</span>-arginine",
    "cn_name": "N-苄氧羰基-L-精氨酸;",
    "alternate_name": "<span class=\"text-smallcaps\">L</span>-Arginine, <em>N</em><sup>2</sup>-[(phenylmethoxy)carbonyl]-;Arginine, <em>N</em><sup>2</sup>-carboxy-, <em>N</em><sup>2</sup>-benzyl ester, <span class=\"text-smallcaps\">L</span>-;Arginine, <em>N</em><sup>2</sup>-carboxy-, <em>N</em>-benzyl ester;<span class=\"text-smallcaps\">L</span>-Arginine, <em>N</em><sup>2</sup>-carboxy-, <em>N</em>-benzyl ester;<em>N</em><sup>2</sup>-[(Phenylmethoxy)carbonyl]-<span class=\"text-smallcaps\">L</span>-arginine;Benzyloxycarbonyl-<span class=\"text-smallcaps\">L</span>-arginine;<em>N</em><sup>2</sup>-Benzyloxycarbonyl-<span class=\"text-smallcaps\">L</span>-arginine;<em>N</em>-Carbobenzoxyarginine;<em>N</em><sup>α</sup>-(Benzyloxycarbonyl)arginine;(2S)-2-[[(Benzyloxy)carbonyl]amino]-5-carbamimidamidopentanoic acid;(2S)-5-(Diaminomethylideneazaniumyl)-2-(phenylmethoxycarbonylamino)pentanoate",
    "duplicated_cas_no": "126298-72-4",
    "SMILES": "C(OC(N[C@@H](CCCNC(=N)N)C(O)=O)=O)C1=CC=CC=C1",
    "meta_data": {
        "InChI": "InChI=1S/C14H20N4O4/c15-13(16)17-8-4-7-11(12(19)20)18-14(21)22-9-10-5-2-1-3-6-10/h1-3,5-6,11H,4,7-9H2,(H,18,21)(H,19,20)(H4,15,16,17)/t11-/m0/s1",
        "InChIKey": null,
        "Canonical SMILES": "O=C(OCC=1C=CC=CC1)NC(C(=O)O)CCCNC(=N)N",
        "Molecular Formula": "C<sub>14</sub>H<sub>20</sub>N<sub>4</sub>O<sub>4</sub>",
        "Molecular Mass": "308.33",
        "Melting Point": "175 °C"
    }
}