{
    "cas_no": "3760-52-9",
    "key_name": "3-Pyrrolidinone, hydrochloride (1:1)",
    "cn_name": "3-吡咯烷酮盐酸盐;3-吡咯烷酮盐酸盐;",
    "alternate_name": "3-Pyrrolidinone, hydrochloride (1:1);3-Pyrrolidinone, hydrochloride",
    "duplicated_cas_no": "",
    "SMILES": "O=C1CCNC1.Cl",
    "meta_data": {
        "InChI": "InChI=1S/C4H7NO.ClH/c6-4-1-2-5-3-4;/h5H,1-3H2;1H",
        "InChIKey": null,
        "Canonical SMILES": "Cl.O=C1CNCC1",
        "Molecular Formula": "C<sub>4</sub>H<sub>7</sub>NO.ClH",
        "Molecular Mass": "",
        "Melting Point": "141-142 °C"
    }
}