{
    "cas_no": "99-51-4",
    "key_name": "4-Nitro-<em>o</em>-xylene",
    "cn_name": "4-硝基邻二甲苯;1,2-二甲基-4-硝基苯;4-硝基-1,2-二甲苯;3,4-二甲基硝基苯;",
    "alternate_name": "Benzene, 1,2-dimethyl-4-nitro-;<em>o</em>-Xylene, 4-nitro-;1,2-Dimethyl-4-nitrobenzene;4-Nitro-1,2-dimethylbenzene;3,4-Dimethyl-1-nitrobenzene;4-Nitro-<em>o</em>-xylene;NSC 66555",
    "duplicated_cas_no": "",
    "SMILES": "N(=O)(=O)C1=CC(C)=C(C)C=C1",
    "meta_data": {
        "InChI": "InChI=1S/C8H9NO2/c1-6-3-4-8(9(10)11)5-7(6)2/h3-5H,1-2H3",
        "InChIKey": null,
        "Canonical SMILES": "O=N(=O)C1=CC=C(C(=C1)C)C",
        "Molecular Formula": "C<sub>8</sub>H<sub>9</sub>NO<sub>2</sub>",
        "Molecular Mass": "151.16",
        "Boiling Point": "254 °C @ Press: 760 Torr",
        "Melting Point": "30-31 °C"
    }
}