{
    "cas_no": "6293-56-7",
    "key_name": "3-Pyridineethanol",
    "cn_name": "3-(2-羟乙基)吡啶;2-(3-吡啶基)乙醇;吡啶-3-乙醇;3-(2-羟乙基)吡啶;",
    "alternate_name": "3-Pyridineethanol;3-(2-Hydroxyethyl)pyridine;3-Pyridylethanol;2-(3-Pyridyl)ethanol;2-(β-Pyridyl)ethanol;2-(Pyridin-3-yl)ethanol;NSC 8965;2-(3-Pyridyl)ethan-1-ol;2-(Pyridin-3-yl)ethan-1-ol",
    "duplicated_cas_no": "",
    "SMILES": "C(CO)C=1C=CC=NC1",
    "meta_data": {
        "InChI": "InChI=1S/C7H9NO/c9-5-3-7-2-1-4-8-6-7/h1-2,4,6,9H,3,5H2",
        "InChIKey": null,
        "Canonical SMILES": "OCCC=1C=NC=CC1",
        "Molecular Formula": "C<sub>7</sub>H<sub>9</sub>NO",
        "Molecular Mass": "123.15",
        "Boiling Point": "144.0-144.5 °C @ Press: 10 Torr",
        "Melting Point": "135 °C"
    }
}