{
    "cas_no": "2547-66-2",
    "key_name": "Hexahydro-1,3,5-tris(phenylmethyl)-1,3,5-triazine",
    "cn_name": "1,3,5-三苄基六氢-1,3,5-三嗪;1,3,5-三苄基六氢-S-三嗪;",
    "alternate_name": "1,3,5-Triazine, hexahydro-1,3,5-tris(phenylmethyl)-;<em>s</em>-Triazine, 1,3,5-tribenzylhexahydro-;Hexahydro-1,3,5-tris(phenylmethyl)-1,3,5-triazine;1,3,5-Tribenzylhexahydro-<em>s</em>-triazine;1,3,5-Tribenzylhexahydro-1,3,5-triazine;Tribenzylhexahydro-<em>sym</em>-triazine;TTT;1,3,5-Tris(phenylmethyl)hexahydro-1,3,5-triazine;Tri-<em>N</em>-benzyl-1,3,5-triazacyclohexane;1,3,5-Tribenzyl-1,3,5-triazacyclohexane;Hexahydro-1,3,5-tribenzyl-<em>s</em>-triazine;NSC 169717;1,3,5-Tribenzyl-1,3,5-triazinane;1,3,5-Tris(benzyl)-1,3,5-triazinane",
    "duplicated_cas_no": "",
    "SMILES": "C(N1CN(CC2=CC=CC=C2)CN(CC3=CC=CC=C3)C1)C4=CC=CC=C4",
    "meta_data": {
        "InChI": "InChI=1S/C24H27N3/c1-4-10-22(11-5-1)16-25-19-26(17-23-12-6-2-7-13-23)21-27(20-25)18-24-14-8-3-9-15-24/h1-15H,16-21H2",
        "InChIKey": null,
        "Canonical SMILES": "C=1C=CC(=CC1)CN2CN(CC=3C=CC=CC3)CN(CC=4C=CC=CC4)C2",
        "Molecular Formula": "C<sub>24</sub>H<sub>27</sub>N<sub>3</sub>",
        "Molecular Mass": "357.49",
        "Boiling Point": "150-160 °C @ Press: 0.1 Torr",
        "Melting Point": "41-43 °C"
    }
}