{
    "cas_no": "530-48-3",
    "key_name": "1,1-Diphenylethylene",
    "cn_name": null,
    "alternate_name": "Benzene, 1,1′-ethenylidenebis-;Ethylene, 1,1-diphenyl-;1,1′-Ethenylidenebis[benzene];1,1-Diphenylethene;<em>unsym</em>-Diphenylethylene;α,α-Diphenylethylene;α-Methylenediphenylmethane;α-Phenylstyrene;1,1-Diphenylethylene;NSC 57645;Ethene-1,1-diyldibenzene;1-Phenylethenylbenzene",
    "duplicated_cas_no": "",
    "SMILES": "C(=C)(C1=CC=CC=C1)C2=CC=CC=C2",
    "meta_data": {
        "InChI": "InChI=1S/C14H12/c1-12(13-8-4-2-5-9-13)14-10-6-3-7-11-14/h2-11H,1H2",
        "InChIKey": null,
        "Canonical SMILES": "C=C(C=1C=CC=CC1)C=2C=CC=CC2",
        "Molecular Formula": "C<sub>14</sub>H<sub>12</sub>",
        "Molecular Mass": "180.25",
        "Boiling Point": "277 °C",
        "Melting Point": "8.2 °C",
        "Density": "1.0243 g/cm³ @ Temp: 20 °C"
    }
}