{
    "cas_no": "885-82-5",
    "key_name": "4-Phenyl-2-nitrophenol",
    "cn_name": "2-硝基-4-苯基苯酚;",
    "alternate_name": "[1,1′-Biphenyl]-4-ol, 3-nitro-;4-Biphenylol, 3-nitro-;Phenol, 2-nitro-4-phenyl-;3-Nitro[1,1′-biphenyl]-4-ol;2-Nitro-<em>p</em>-phenylphenol;2-Nitro-4-phenylphenol;3-Nitro-4-biphenylol;4-Hydroxy-3-nitrobiphenyl;4-Phenyl-2-nitrophenol;3-Nitro-4-hydroxybiphenyl;NSC 95810",
    "duplicated_cas_no": "",
    "SMILES": "N(=O)(=O)C=1C=C(C=CC1O)C2=CC=CC=C2",
    "meta_data": {
        "InChI": "InChI=1S/C12H9NO3/c14-12-7-6-10(8-11(12)13(15)16)9-4-2-1-3-5-9/h1-8,14H",
        "InChIKey": null,
        "Canonical SMILES": "O=N(=O)C=1C=C(C=CC1O)C=2C=CC=CC2",
        "Molecular Formula": "C<sub>12</sub>H<sub>9</sub>NO<sub>3</sub>",
        "Molecular Mass": "215.20",
        "Melting Point": "66 °C"
    }
}