{
    "cas_no": "627-05-4",
    "key_name": "1-Nitrobutane",
    "cn_name": "1-硝基丁烷;",
    "alternate_name": "Butane, 1-nitro-;1-Nitrobutane;NSC 3648",
    "duplicated_cas_no": "",
    "SMILES": "C(N(=O)=O)CCC",
    "meta_data": {
        "InChI": "InChI=1S/C4H9NO2/c1-2-3-4-5(6)7/h2-4H2,1H3",
        "InChIKey": null,
        "Canonical SMILES": "O=N(=O)CCCC",
        "Molecular Formula": "C<sub>4</sub>H<sub>9</sub>NO<sub>2</sub>",
        "Molecular Mass": "103.12",
        "Boiling Point": "153 °C",
        "Melting Point": "-81.33 °C",
        "Density": "0.972 g/cm³ @ Temp: 20 °C"
    }
}