{
    "cas_no": "25163-98-8",
    "key_name": "4-Isobutyl-2-phenyl-2-oxazolin-5-one",
    "cn_name": null,
    "alternate_name": "5(4<em>H</em>)-Oxazolone, 4-(2-methylpropyl)-2-phenyl-;2-Oxazolin-5-one, 4-isobutyl-2-phenyl-, <span class=\"text-smallcaps\">DL</span>-;5(4<em>H</em>)-Oxazolone, 4-(2-methylpropyl)-2-phenyl-, (±)-;4-(2-Methylpropyl)-2-phenyl-5(4<em>H</em>)-oxazolone;4-Isobutyl-2-phenyl-2-oxazolin-5-one",
    "duplicated_cas_no": "27460-46-4",
    "SMILES": "C(C(C)C)C1N=C(OC1=O)C2=CC=CC=C2",
    "meta_data": {
        "InChI": "InChI=1S/C13H15NO2/c1-9(2)8-11-13(15)16-12(14-11)10-6-4-3-5-7-10/h3-7,9,11H,8H2,1-2H3",
        "InChIKey": null,
        "Canonical SMILES": "O=C1OC(=NC1CC(C)C)C=2C=CC=CC2",
        "Molecular Formula": "C<sub>13</sub>H<sub>15</sub>NO<sub>2</sub>",
        "Molecular Mass": "217.26",
        "Melting Point": "54-56 °C"
    }
}