{
    "cas_no": "10344-94-2",
    "key_name": "<em>p</em>-Nitrophenyl β-<span class=\"text-smallcaps\">D</span>-glucuronide",
    "cn_name": "4-硝基苯-β-D-葡糖苷酸;",
    "alternate_name": "β-<span class=\"text-smallcaps\">D</span>-Glucopyranosiduronic acid, 4-nitrophenyl;Glucopyranosiduronic acid, <em>p</em>-nitrophenyl, β-<span class=\"text-smallcaps\">D</span>-;Glucopyranosiduronic acid, <em>p</em>-nitrophenyl;4-Nitrophenyl β-<span class=\"text-smallcaps\">D</span>-glucopyranosiduronic acid;<em>p</em>-Nitrophenyl β-<span class=\"text-smallcaps\">D</span>-glucosiduronic acid;<em>p</em>-Nitrophenyl glucuronide;<em>p</em>-Nitrophenyl β-glucuronic acid;<em>p</em>-Nitrophenol glucuronide;<em>p</em>-Nitrophenyl β-<span class=\"text-smallcaps\">D</span>-glucuronide;<em>p</em>-Nitrophenyl β-<span class=\"text-smallcaps\">D</span>-glucopyranosiduronic acid;<em>p</em>-Nitrophenol β-<span class=\"text-smallcaps\">D</span>-glucuronide;<em>p</em>-Nitrophenol β-glucuronide;4-Nitrophenyl glucuronide;<em>p</em>-Nitrophenyl glucuronic acid;4-Nitrophenyl β-<span class=\"text-smallcaps\">D</span>-glucopyranosiduronate;4-Nitrophenol glucuronide;<em>p</em>-Nitrophenyl <span class=\"text-smallcaps\">D</span>-glucopyranosiduronic acid;4-Nitrophenyl β-<span class=\"text-smallcaps\">D</span>-glucosiduronic acid;<em>p</em>-Nitrophenyl glucosiduronic acid;4-Nitrophenyl β-<span class=\"text-smallcaps\">D</span>-glucuronide;<em>p</em>-Nitrophenyl β-glucuronide",
    "duplicated_cas_no": "10345-03-6;29894-08-4;30401-49-1;31693-92-2;89714-09-0;355402-62-9",
    "SMILES": "O([C@@H]1O[C@H](C(O)=O)[C@@H](O)[C@H](O)[C@H]1O)C2=CC=C(N(=O)=O)C=C2",
    "meta_data": {
        "InChI": "InChI=1S/C12H13NO9/c14-7-8(15)10(11(17)18)22-12(9(7)16)21-6-3-1-5(2-4-6)13(19)20/h1-4,7-10,12,14-16H,(H,17,18)/t7-,8-,9+,10-,12+/m0/s1",
        "InChIKey": null,
        "Canonical SMILES": "O=C(O)C1OC(OC2=CC=C(C=C2)N(=O)=O)C(O)C(O)C1O",
        "Molecular Formula": "C<sub>12</sub>H<sub>13</sub>NO<sub>9</sub>",
        "Molecular Mass": "315.23",
        "Melting Point": "137-139 °C"
    }
}