{
    "cas_no": "26791-73-1",
    "key_name": "(-)-Xanthatin",
    "cn_name": null,
    "alternate_name": "2<em>H</em>-Cyclohepta[<em>b</em>]furan-2-one, 3,3a,4,7,8,8a-hexahydro-7-methyl-3-methylene-6-[(1<em>E</em>)-3-oxo-1-buten-1-yl]-, (3a<em>R</em>,7<em>S</em>,8a<em>S</em>)-;2<em>H</em>-Cyclohepta[<em>b</em>]furan-2-one, 3,3a,4,7,8,8a-hexahydro-7-methyl-3-methylene-6-(3-oxo-1-butenyl)-, [3a<em>R</em>-(3aα,7β,8aβ)]-;Xanthatin;3-Cycloheptene-1-acetic acid, 7-hydroxy-5-methyl-α-methylene-4-(3-oxo-1-butenyl)-, γ-lactone;2<em>H</em>-Cyclohepta[<em>b</em>]furan-2-one, 3,3a,4,7,8,8a-hexahydro-7-methyl-3-methylene-6-[(1<em>E</em>)-3-oxo-1-butenyl]-, (3a<em>R</em>,7<em>S</em>,8a<em>S</em>)-;(3a<em>R</em>,7<em>S</em>,8a<em>S</em>)-3,3a,4,7,8,8a-Hexahydro-7-methyl-3-methylene-6-[(1<em>E</em>)-3-oxo-1-buten-1-yl]-2<em>H</em>-cyclohepta[<em>b</em>]furan-2-one;(-)-Xanthatin",
    "duplicated_cas_no": "87-14-9;21959-65-9;160549-24-6",
    "SMILES": "C=C1[C@@]2([C@](C[C@H](C)C(/C=C/C(C)=O)=CC2)(OC1=O)[H])[H]",
    "meta_data": {
        "InChI": "InChI=1S/C15H18O3/c1-9-8-14-13(11(3)15(17)18-14)7-6-12(9)5-4-10(2)16/h4-6,9,13-14H,3,7-8H2,1-2H3/b5-4+/t9-,13+,14-/m0/s1",
        "InChIKey": null,
        "Canonical SMILES": "O=C1OC2CC(C(C=CC(=O)C)=CCC2C1=C)C",
        "Molecular Formula": "C<sub>15</sub>H<sub>18</sub>O<sub>3</sub>",
        "Molecular Mass": "246.30",
        "Melting Point": "111-112 °C"
    }
}