{
    "cas_no": "5292-45-5",
    "key_name": "1,4-Benzenedicarboxylic acid, 2-nitro-, 1,4-dimethyl ester",
    "cn_name": "2-硝基对苯二甲酸二甲酯;",
    "alternate_name": "1,4-Benzenedicarboxylic acid, 2-nitro-, 1,4-dimethyl ester;Terephthalic acid, nitro-, dimethyl ester;1,4-Benzenedicarboxylic acid, 2-nitro-, dimethyl ester;Dimethyl nitroterephthalate;Dimethyl 2-nitroterephthalate;Dimethyl 2-nitro-1,4-benzenedicarboxylate;Dimethyl <em>o</em>-nitroterephthalate;NSC 5056;1,4-Dimethyl 2-nitrobenzene-1,4-dicarboxylate;1-Nitrobenzene-2,5-dicarboxylic acid dimethyl ester",
    "duplicated_cas_no": "",
    "SMILES": "C(OC)(=O)C1=C(N(=O)=O)C=C(C(OC)=O)C=C1",
    "meta_data": {
        "InChI": "InChI=1S/C10H9NO6/c1-16-9(12)6-3-4-7(10(13)17-2)8(5-6)11(14)15/h3-5H,1-2H3",
        "InChIKey": null,
        "Canonical SMILES": "O=C(OC)C1=CC=C(C(=O)OC)C(=C1)N(=O)=O",
        "Molecular Formula": "C<sub>10</sub>H<sub>9</sub>NO<sub>6</sub>",
        "Molecular Mass": "239.18",
        "Melting Point": "142 °C"
    }
}