{
    "cas_no": "46032-98-8",
    "key_name": "(1<em>R</em>,2<em>R</em>)-2-Amino-1-phenyl-1,3-propanediol",
    "cn_name": "(1R,2R)-(-)-2-氨基-1-苯基-1,3-丙二醇;",
    "alternate_name": "1,3-Propanediol, 2-amino-1-phenyl-, (1<em>R</em>,2<em>R</em>)-;1,3-Propanediol, 2-amino-1-phenyl-, [<em>R</em>-(<em>R</em>*,<em>R</em>*)]-;(1<em>R</em>,2<em>R</em>)-2-Amino-1-phenyl-1,3-propanediol;<span class=\"text-smallcaps\">D</span>-<em>threo</em>-1-Phenyl-2-amino-1,3-propanediol;<span class=\"text-smallcaps\">D</span>-<em>threo</em>-3-Phenyl-2-amino-1,3-propanediol;(1<em>R</em>,2<em>R</em>)-(-)-2-Amino-1-phenyl-1,3-propanediol;(1<em>R</em>,2<em>R</em>)-2-Amino-1-phenylpropane-1,3-diol;(1R,2R)-2-Amino-1-phenyl-1,3-propanediol;(1R,2R)-(-)-2-Amino-1-phenyl-propane-1,3-diol;(1R,2R)-2-Amino-1-phenylpropan-1,3-diol",
    "duplicated_cas_no": "",
    "SMILES": "[C@@H]([C@@H](CO)N)(O)C1=CC=CC=C1",
    "meta_data": {
        "InChI": "InChI=1S/C9H13NO2/c10-8(6-11)9(12)7-4-2-1-3-5-7/h1-5,8-9,11-12H,6,10H2/t8-,9-/m1/s1",
        "InChIKey": null,
        "Canonical SMILES": "OCC(N)C(O)C=1C=CC=CC1",
        "Molecular Formula": "C<sub>9</sub>H<sub>13</sub>NO<sub>2</sub>",
        "Molecular Mass": "167.21",
        "Melting Point": "112-113 °C"
    }
}