{
    "cas_no": "40987-25-5",
    "key_name": "4-Benzyl-2-(chloromethyl)morpholine",
    "cn_name": "4-苄基-2-(氯甲基)吗啉;",
    "alternate_name": "Morpholine, 2-(chloromethyl)-4-(phenylmethyl)-;2-(Chloromethyl)-4-(phenylmethyl)morpholine;4-Benzyl-2-(chloromethyl)morpholine;<em>N</em>-Benzyl-2-(chloromethyl)morpholine;2-(Chloromethyl)-4-benzylmorpholine",
    "duplicated_cas_no": "118976-32-2",
    "SMILES": "C(N1CC(CCl)OCC1)C2=CC=CC=C2",
    "meta_data": {
        "InChI": "InChI=1S/C12H16ClNO/c13-8-12-10-14(6-7-15-12)9-11-4-2-1-3-5-11/h1-5,12H,6-10H2",
        "InChIKey": null,
        "Canonical SMILES": "ClCC1OCCN(CC=2C=CC=CC2)C1",
        "Molecular Formula": "C<sub>12</sub>H<sub>16</sub>ClNO",
        "Molecular Mass": "225.71",
        "Boiling Point": "90-92 °C @ Press: 0.1 Torr"
    }
}