{
    "cas_no": "2975-41-9",
    "key_name": "2-Aminoindane",
    "cn_name": "2-氨基茚;2-氨基茚满;",
    "alternate_name": "1<em>H</em>-Inden-2-amine, 2,3-dihydro-;2-Indanamine;2,3-Dihydro-1<em>H</em>-inden-2-amine;Su 8629;2-Aminoindan;2-Aminoindane;2-Indanylamine;(2,3-Dihydro-1<em>H</em>-inden-2-yl)amine;2-Amino-2,3-dihydro-1<em>H</em>-indene;2-AI",
    "duplicated_cas_no": "",
    "SMILES": "NC1CC=2C(C1)=CC=CC2",
    "meta_data": {
        "InChI": "InChI=1S/C9H11N/c10-9-5-7-3-1-2-4-8(7)6-9/h1-4,9H,5-6,10H2",
        "InChIKey": null,
        "Canonical SMILES": "NC1CC=2C=CC=CC2C1",
        "Molecular Formula": "C<sub>9</sub>H<sub>11</sub>N",
        "Molecular Mass": "133.19",
        "Boiling Point": "247 °C",
        "Melting Point": "33-34 °C"
    }
}