{
    "cas_no": "41727-47-3",
    "key_name": "Methyl 3,5-dibromo-4-hydroxybenzoate",
    "cn_name": "3,5-二溴-4-羟基苯甲酸甲酯;",
    "alternate_name": "Benzoic acid, 3,5-dibromo-4-hydroxy-, methyl ester;Methyl 3,5-dibromo-4-hydroxybenzoate;3,5-Dibromo-4-hydroxybenzoic acid methyl ester",
    "duplicated_cas_no": "",
    "SMILES": "C(OC)(=O)C1=CC(Br)=C(O)C(Br)=C1",
    "meta_data": {
        "InChI": "InChI=1S/C8H6Br2O3/c1-13-8(12)4-2-5(9)7(11)6(10)3-4/h2-3,11H,1H3",
        "InChIKey": null,
        "Canonical SMILES": "O=C(OC)C1=CC(Br)=C(O)C(Br)=C1",
        "Molecular Formula": "C<sub>8</sub>H<sub>6</sub>Br<sub>2</sub>O<sub>3</sub>",
        "Molecular Mass": "309.94",
        "Melting Point": "123-124 °C"
    }
}