{
    "cas_no": "498-81-7",
    "key_name": "Dihydro-α-terpineol",
    "cn_name": "&alpha;,&alpha;-4-三甲基环己基甲醇;DL-萜品醇;",
    "alternate_name": "Cyclohexanemethanol, α,α,4-trimethyl-;<em>p</em>-Menthan-8-ol;α,α,4-Trimethylcyclohexanemethanol;Dihydro-α-terpineol;8-<em>p</em>-Menthanol;2-(4-Methylcyclohexyl)propan-2-ol",
    "duplicated_cas_no": "",
    "SMILES": "C(C)(C)(O)C1CCC(C)CC1",
    "meta_data": {
        "InChI": "InChI=1S/C10H20O/c1-8-4-6-9(7-5-8)10(2,3)11/h8-9,11H,4-7H2,1-3H3",
        "InChIKey": null,
        "Canonical SMILES": "OC(C)(C)C1CCC(C)CC1",
        "Molecular Formula": "C<sub>10</sub>H<sub>20</sub>O",
        "Molecular Mass": "156.27",
        "Boiling Point": "115-117 °C @ Press: 0.4 Torr"
    }
}