{
    "cas_no": "19900-65-3",
    "key_name": "4,4′-Methylenebis[2-ethylbenzenamine]",
    "cn_name": "4,4\"-亚甲基双(2-乙基)苯胺;3,3\"-二乙基-4,4\"-二氨基二苯基甲烷;硬化剂ME-DDM;",
    "alternate_name": "Benzenamine, 4,4′-methylenebis[2-ethyl-;Aniline, 4,4′-methylenebis[2-ethyl-;4,4′-Methylenebis[2-ethylbenzenamine];4,4′-Diamino-3,3′-diethyldiphenylmethane;4,4′-Methylenebis(2-ethylaniline);4,4′-Methylenebis(<em>o</em>-ethylaniline);3,3′-Diethyl-4,4′-diaminodiphenylmethane;Araldite HY 350;4,4′-Methylenebis[2-ethylbenzamine];HY 450;Kayahard A-A;C 100S;C 100S (amine);H 256;H 256 (amine);4,4′-Methylenebis(2-ethylbenzeneamine);Lapox K 450;K 450;Acetocure MBOEA",
    "duplicated_cas_no": "55838-66-9;187047-24-1;1354414-29-1",
    "SMILES": "C(C1=CC(CC)=C(N)C=C1)C2=CC(CC)=C(N)C=C2",
    "meta_data": {
        "InChI": "InChI=1S/C17H22N2/c1-3-14-10-12(5-7-16(14)18)9-13-6-8-17(19)15(4-2)11-13/h5-8,10-11H,3-4,9,18-19H2,1-2H3",
        "InChIKey": null,
        "Canonical SMILES": "NC1=CC=C(C=C1CC)CC2=CC=C(N)C(=C2)CC",
        "Molecular Formula": "C<sub>17</sub>H<sub>22</sub>N<sub>2</sub>",
        "Molecular Mass": "254.37",
        "Melting Point": "45.5-46.5 °C"
    }
}