{
    "cas_no": "3147-39-5",
    "key_name": "Methyl 2,4,6-trihydroxybenzoate",
    "cn_name": "2,4,6-三羟基苯甲酸甲酯;",
    "alternate_name": "Benzoic acid, 2,4,6-trihydroxy-, methyl ester;Methyl 2,4,6-trihydroxybenzoate;ICPD 1;2,4,6-Trihydroxybenzoic acid methyl ester",
    "duplicated_cas_no": "",
    "SMILES": "C(OC)(=O)C1=C(O)C=C(O)C=C1O",
    "meta_data": {
        "InChI": "InChI=1S/C8H8O5/c1-13-8(12)7-5(10)2-4(9)3-6(7)11/h2-3,9-11H,1H3",
        "InChIKey": null,
        "Canonical SMILES": "O=C(OC)C=1C(O)=CC(O)=CC1O",
        "Molecular Formula": "C<sub>8</sub>H<sub>8</sub>O<sub>5</sub>",
        "Molecular Mass": "184.15",
        "Melting Point": "170-172 °C"
    }
}