{
    "cas_no": "108-32-7",
    "key_name": "Propylene carbonate",
    "cn_name": "碳酸丙烯酯;",
    "alternate_name": "1,3-Dioxolan-2-one, 4-methyl-;Carbonic acid, cyclic propylene ester;Carbonic acid, propylene ester;4-Methyl-1,3-dioxolan-2-one;Propylene carbonate;1,2-Propylene carbonate;1,2-Propanediyl carbonate;1,2-Propanediol carbonate;Carbonic acid cyclic methylethylene ester;Carbonic acid cyclic 1,2-propylene ester;Cyclic methylethylene carbonate;Cyclic propylene carbonate;Cyclic 1,2-propylene carbonate;1-Methylethylene carbonate;1,2-Propanediol cyclic carbonate;Propylene glycol cyclic carbonate;4-Methyl-2-oxo-1,3-dioxolane;Arconate 5000;4-Methyl-1,3-dioxolane-2-one;Texacar PC;Jeffsol PC;2-Methyl-1,2-ethylene carbonate;Arconate 1000;Arconate HP;PC-HP;NSC 11784;NSC 1913;2-Oxo-4-methyl-1,3-dioxolane;Jeffsol AG 1555;Arconate propylenecarbonate;JN 02;Methyl-1,3-dioxolan-2-one;Fluor Solvent;PC Medion;4-Methyl-2-dioxolanone;Jeffsol 1555;Jeffsol AG 1555 carbonate;K 3 (carbonate);K 3",
    "duplicated_cas_no": "104083-03-6;127128-76-1;30141-77-6",
    "SMILES": "CC1OC(=O)OC1",
    "meta_data": {
        "InChI": "InChI=1S/C4H6O3/c1-3-2-6-4(5)7-3/h3H,2H2,1H3",
        "InChIKey": null,
        "Canonical SMILES": "O=C1OCC(O1)C",
        "Molecular Formula": "C<sub>4</sub>H<sub>6</sub>O<sub>3</sub>",
        "Molecular Mass": "102.09",
        "Boiling Point": "242 °C",
        "Melting Point": "-48.8 °C",
        "Density": "1.2047 g/cm³"
    }
}