{
    "cas_no": "6728-31-0",
    "key_name": "(<em>Z</em>)-4-Heptenal",
    "cn_name": null,
    "alternate_name": "4-Heptenal, (4<em>Z</em>)-;4-Heptenal, (<em>Z</em>)-;(4<em>Z</em>)-4-Heptenal;<em>cis</em>-4-Heptenal;4-<em>cis</em>-Heptenal;(<em>Z</em>)-4-Heptenal;(4<em>Z</em>)-Heptenal",
    "duplicated_cas_no": "",
    "SMILES": "C(\\CCC=O)=C\\CC",
    "meta_data": {
        "InChI": "InChI=1S/C7H12O/c1-2-3-4-5-6-7-8/h3-4,7H,2,5-6H2,1H3/b4-3-",
        "InChIKey": null,
        "Canonical SMILES": "O=CCCC=CCC",
        "Molecular Formula": "C<sub>7</sub>H<sub>12</sub>O",
        "Molecular Mass": "112.17",
        "Boiling Point": "42 °C @ Press: 10 Torr"
    }
}