{
    "cas_no": "38952-62-4",
    "key_name": "4,4′-Carbonylbis[morpholine]",
    "cn_name": null,
    "alternate_name": "Morpholine, 4,4′-carbonylbis-;Morpholine, 4,4′-carbonyldi-;4,4′-Carbonylbis[morpholine];4,4′-Carbonyldimorpholine;Dimorpholinomethanone",
    "duplicated_cas_no": "",
    "SMILES": "C(=O)(N1CCOCC1)N2CCOCC2",
    "meta_data": {
        "InChI": "InChI=1S/C9H16N2O3/c12-9(10-1-5-13-6-2-10)11-3-7-14-8-4-11/h1-8H2",
        "InChIKey": null,
        "Canonical SMILES": "O=C(N1CCOCC1)N2CCOCC2",
        "Molecular Formula": "C<sub>9</sub>H<sub>16</sub>N<sub>2</sub>O<sub>3</sub>",
        "Molecular Mass": "200.23",
        "Melting Point": "144-145 °C"
    }
}