{
    "cas_no": "21416-67-1",
    "key_name": "Razoxane",
    "cn_name": "丙亚胺;丙二胺亚胺;丙乙胺亚胺;双哌嗪二酮丙烷;丙二胺四乙酰亚胺;抗癌散;宁癌-159;亚胺-159;抗癌-173;抗癌1;",
    "alternate_name": "2,6-Piperazinedione, 4,4′-(1-methyl-1,2-ethanediyl)bis-;2,6-Piperazinedione, 4,4′-propylenedi-;4,4′-(1-Methyl-1,2-ethanediyl)bis[2,6-piperazinedione];1,2-Bis(3,5-dioxo-1-piperazinyl)propane;4,4′-Propylenedi(2,6-piperazinedione);4,4′-Propylenebis(2,6-piperazinedione);ICRF 159;ICI 59118;Razoxin;Troxozone;(±)-1,2-Bis(3,5-dioxopiperazin-1-yl)propane;(±)-1,2-Bis(3,5-dioxopiperazinyl)propane;Tepirone;NSC 129943;Razoxane",
    "duplicated_cas_no": "21416-87-5;35259-82-6;78673-26-4;83713-23-9",
    "SMILES": "C(C(C)N1CC(=O)NC(=O)C1)N2CC(=O)NC(=O)C2",
    "meta_data": {
        "InChI": "InChI=1S/C11H16N4O4/c1-7(15-5-10(18)13-11(19)6-15)2-14-3-8(16)12-9(17)4-14/h7H,2-6H2,1H3,(H,12,16,17)(H,13,18,19)",
        "InChIKey": null,
        "Canonical SMILES": "O=C1NC(=O)CN(C1)CC(N2CC(=O)NC(=O)C2)C",
        "Molecular Formula": "C<sub>11</sub>H<sub>16</sub>N<sub>4</sub>O<sub>4</sub>",
        "Molecular Mass": "268.27",
        "Melting Point": "237-239 °C"
    }
}