{
    "cas_no": "1121-46-6",
    "key_name": "2-Furanethanamine",
    "cn_name": null,
    "alternate_name": "2-Furanethanamine;2-Furanethylamine;2-(2-Furyl)ethylamine;2-Furylethylamine;2-(2-Aminoethyl)furan;[2-(Furan-2-yl)ethyl]amine;2-(Furan-2-yl)ethanamine;2-(Furan-2-yl)ethan-1-amine;2-(2-Furyl)ethanamine",
    "duplicated_cas_no": "",
    "SMILES": "C(CN)C1=CC=CO1",
    "meta_data": {
        "InChI": "InChI=1S/C6H9NO/c7-4-3-6-2-1-5-8-6/h1-2,5H,3-4,7H2",
        "InChIKey": null,
        "Canonical SMILES": "O1C=CC=C1CCN",
        "Molecular Formula": "C<sub>6</sub>H<sub>9</sub>NO",
        "Molecular Mass": "111.14",
        "Boiling Point": "59-60 °C @ Press: 25 Torr",
        "Melting Point": "204 °C",
        "Density": "0.992 g/cm³ @ Temp: 25 °C"
    }
}