{
    "cas_no": "72962-43-7",
    "key_name": "Brassinolide",
    "cn_name": "芸苔素内酯;油菜素内酯;",
    "alternate_name": "6<em>H</em>-Benz[<em>c</em>]indeno[5,4-<em>e</em>]oxepin-6-one, 1-[(1<em>S</em>,2<em>R</em>,3<em>R</em>,4<em>S</em>)-2,3-dihydroxy-1,4,5-trimethylhexyl]hexadecahydro-8,9-dihydroxy-10a,12a-dimethyl-, (1<em>R</em>,3a<em>S</em>,3b<em>S</em>,6a<em>S</em>,8<em>S</em>,9<em>R</em>,10a<em>R</em>,10b<em>S</em>,12a<em>S</em>)-;<em>B</em>-Homo-7-oxaergostan-6-one, 2,3,22,23-tetrahydroxy-, (2α,3α,5α,22<em>R</em>,23<em>R</em>,24<em>S</em>)-;(1<em>R</em>,3a<em>S</em>,3b<em>S</em>,6a<em>S</em>,8<em>S</em>,9<em>R</em>,10a<em>R</em>,10b<em>S</em>,12a<em>S</em>)-1-[(1<em>S</em>,2<em>R</em>,3<em>R</em>,4<em>S</em>)-2,3-Dihydroxy-1,4,5-trimethylhexyl]hexadecahydro-8,9-dihydroxy-10a,12a-dimethyl-6<em>H</em>-benz[<em>c</em>]indeno[5,4-<em>e</em>]oxepin-6-one;Brassinolide;6<em>H</em>-Benz[<em>c</em>]indeno[5,4-<em>e</em>]oxepin-6-one, 1-(2,3-dihydroxy-1,4,5-trimethylhexyl)hexadecahydro-8,9-dihydroxy-10a,12a-dimethyl-, [1<em>R</em>-[1α(1<em>S</em>*,2<em>R</em>*,3<em>R</em>*,4<em>S</em>*),3aβ,3bα,6aβ,8β,9β,10aα,10bβ,12aα]]-;Brassin lactone",
    "duplicated_cas_no": "",
    "SMILES": "C[C@@]12[C@]([C@]3([C@@]([C@]4(C)[C@@](C(=O)OC3)(C[C@H](O)[C@H](O)C4)[H])(CC1)[H])[H])(CC[C@@]2([C@@H]([C@H]([C@@H]([C@H](C(C)C)C)O)O)C)[H])[H]",
    "meta_data": {
        "InChI": "InChI=1S/C28H48O6/c1-14(2)15(3)24(31)25(32)16(4)18-7-8-19-17-13-34-26(33)21-11-22(29)23(30)12-28(21,6)20(17)9-10-27(18,19)5/h14-25,29-32H,7-13H2,1-6H3/t15-,16-,17-,18+,19-,20-,21+,22-,23+,24+,25+,27+,28+/m0/s1",
        "InChIKey": null,
        "Canonical SMILES": "O=C1OCC2C3CCC(C(C)C(O)C(O)C(C)C(C)C)C3(C)CCC2C4(C)CC(O)C(O)CC14",
        "Molecular Formula": "C<sub>28</sub>H<sub>48</sub>O<sub>6</sub>",
        "Molecular Mass": "480.68",
        "Melting Point": "274-278 °C"
    }
}