{
    "cas_no": "94-07-5",
    "key_name": "Synephrine",
    "cn_name": "辛弗林;辛福林碱;辛佛宁;1-(4-羟基苯基)-2-(甲基氨基)乙醇;",
    "alternate_name": "Benzenemethanol, 4-hydroxy-α-[(methylamino)methyl]-;Benzyl alcohol, <em>p</em>-hydroxy-α-[(methylamino)methyl]-;4-Hydroxy-α-[(methylamino)methyl]benzenemethanol;Analeptin;<em>p</em>-Hydroxy-α-[(methylamino)methyl]benzyl alcohol;1-(4-Hydroxyphenyl)-<em>N</em>-methylethanolamine;β-Methylamino-α-(4-hydroxyphenyl)ethyl alcohol;Oxedrine;Parasympatol;Simpalon;Sympathol;Synephrin;Synephrine;Synthenate;Simpatol;S 38537-9;Sympaethamine;Sympaethamin;1-(4-Hydroxyphenyl)-2-(methylamino)ethanol;<em>dl</em>-1-(4-Hydroxyphenyl)-2-(methylamino)ethanol;(±)-Synephrine;(±)-<em>N</em>-Methyloctopamine;(±)-S38537-9;<span class=\"text-smallcaps\">D</smallcap><smallcap>L</span>-Synephrine;1-Hydroxy-4-[(1-hydroxy-2-methylamino)ethyl]benzene;Ethaphene;NSC 166285;NSC 170956;<em>N</em>-[2-Hydroxy-2-(4-hydroxyphenyl)ethyl]-<em>N</em>-methylamine;Advantra Z;MeSH ID: D013578",
    "duplicated_cas_no": "582-84-3;860222-98-6",
    "SMILES": "C(CNC)(O)C1=CC=C(O)C=C1",
    "meta_data": {
        "InChI": "InChI=1S/C9H13NO2/c1-10-6-9(12)7-2-4-8(11)5-3-7/h2-5,9-12H,6H2,1H3",
        "InChIKey": null,
        "Canonical SMILES": "OC1=CC=C(C=C1)C(O)CNC",
        "Molecular Formula": "C<sub>9</sub>H<sub>13</sub>NO<sub>2</sub>",
        "Molecular Mass": "167.21",
        "Melting Point": "184.5 °C"
    }
}