{
    "cas_no": "614-80-2",
    "key_name": "2-Acetamidophenol",
    "cn_name": "邻乙酰氨基酚;2-乙酰氨基酚;2-乙酰氨基苯酚;2-羟基乙酰苯胺;",
    "alternate_name": "Acetamide, <em>N</em>-(2-hydroxyphenyl)-;Acetanilide, 2′-hydroxy-;Acetanilide, <em>o</em>-hydroxy-;<em>N</em>-(2-Hydroxyphenyl)acetamide;2′-Hydroxyacetanilide;<em>o</em>-Acetamidophenol;2-Acetamidophenol;<em>N</em>-Acetyl-<em>o</em>-aminophenol;2-(Acetylamino)phenol;<em>o</em>-(Acetylamino)phenol;2-Acetaminophenol;<em>o</em>-Hydroxyacetanilide;<em>o</em>-Acetaminophenol;<em>N</em>-Acetyl-2-aminophenol;2-(<em>N</em>-Acetylamino)phenol;2-Hydroxyacetanilide;NSC 3989;Orthocetamol",
    "duplicated_cas_no": "89332-63-8",
    "SMILES": "N(C(C)=O)C1=C(O)C=CC=C1",
    "meta_data": {
        "InChI": "InChI=1S/C8H9NO2/c1-6(10)9-7-4-2-3-5-8(7)11/h2-5,11H,1H3,(H,9,10)",
        "InChIKey": null,
        "Canonical SMILES": "O=C(NC=1C=CC=CC1O)C",
        "Molecular Formula": "C<sub>8</sub>H<sub>9</sub>NO<sub>2</sub>",
        "Molecular Mass": "151.16",
        "Melting Point": "208 °C"
    }
}