{
    "cas_no": "13984-57-1",
    "key_name": "Hexanoic acid, 5-oxo-, ethyl ester",
    "cn_name": "4-乙酰基丁酸乙酯;",
    "alternate_name": "Hexanoic acid, 5-oxo-, ethyl ester;Ethyl 5-oxohexanoate;5-Oxohexanoic acid ethyl ester;Ethyl 5-oxocaproate;4-Acetylbutyric acid ethyl ester;Ethyl 4-acetylbutyrate",
    "duplicated_cas_no": "",
    "SMILES": "C(CCCC(C)=O)(OCC)=O",
    "meta_data": {
        "InChI": "InChI=1S/C8H14O3/c1-3-11-8(10)6-4-5-7(2)9/h3-6H2,1-2H3",
        "InChIKey": null,
        "Canonical SMILES": "O=C(OCC)CCCC(=O)C",
        "Molecular Formula": "C<sub>8</sub>H<sub>14</sub>O<sub>3</sub>",
        "Molecular Mass": "158.20",
        "Boiling Point": "221.5 °C",
        "Density": "0.9971 g/cm³ @ Temp: 20 °C"
    }
}