{
    "cas_no": "97944-42-8",
    "key_name": "3-Chloro-5-methyl-4-pyridinamine",
    "cn_name": null,
    "alternate_name": "4-Pyridinamine, 3-chloro-5-methyl-;3-Chloro-5-methyl-4-pyridinamine",
    "duplicated_cas_no": "",
    "SMILES": "NC=1C(C)=CN=CC1Cl",
    "meta_data": {
        "InChI": "InChI=1S/C6H7ClN2/c1-4-2-9-3-5(7)6(4)8/h2-3H,1H3,(H2,8,9)",
        "InChIKey": null,
        "Canonical SMILES": "ClC1=CN=CC(=C1N)C",
        "Molecular Formula": "C<sub>6</sub>H<sub>7</sub>ClN<sub>2</sub>",
        "Molecular Mass": "142.59",
        "Melting Point": "110.0 °C"
    }
}