{
    "cas_no": "7440-64-4",
    "key_name": "Ytterbium",
    "cn_name": "镱片;镱;",
    "alternate_name": "Ytterbium;MeSH ID: D015018",
    "duplicated_cas_no": "110424-81-2",
    "SMILES": "[Yb]",
    "meta_data": {
        "InChI": "InChI=1S/Yb",
        "InChIKey": null,
        "Canonical SMILES": "[Yb]",
        "Molecular Formula": "Yb",
        "Molecular Mass": "",
        "Boiling Point": "1193 °C",
        "Melting Point": "824 °C (polymorph)",
        "Density": "6.965 g/cm³"
    }
}