{
    "cas_no": "6373-93-9",
    "key_name": "Disperse Red 58",
    "cn_name": "苏普拉塞特亮红BD;",
    "alternate_name": "Ethanol, 2,2′-[[4-[2-(6-methoxy-2-benzothiazolyl)diazenyl]phenyl]imino]bis-;C.I. Disperse Red 58;Ethanol, 2,2′-[[4-[(6-methoxy-2-benzothiazolyl)azo]phenyl]imino]bis-;2,2′-[[4-[2-(6-Methoxy-2-benzothiazolyl)diazenyl]phenyl]imino]bis[ethanol];C.I. 11135;Celliton Discharge Pink BRF;Miketon Fast Pink FR;Miketon Polyester Pink FR;Disperse Red 58;C.I. 11136;C.I. Disperse Red 64;C.I. Disperse Red 49",
    "duplicated_cas_no": "",
    "SMILES": "N(=NC1=CC=C(N(CCO)CCO)C=C1)C=2SC=3C(N2)=CC=C(OC)C3",
    "meta_data": {
        "InChI": "InChI=1S/C18H20N4O3S/c1-25-15-6-7-16-17(12-15)26-18(19-16)21-20-13-2-4-14(5-3-13)22(8-10-23)9-11-24/h2-7,12,23-24H,8-11H2,1H3",
        "InChIKey": null,
        "Canonical SMILES": "OCCN(C1=CC=C(N=NC2=NC=3C=CC(OC)=CC3S2)C=C1)CCO",
        "Molecular Formula": "C<sub>18</sub>H<sub>20</sub>N<sub>4</sub>O<sub>3</sub>S",
        "Molecular Mass": "372.44",
        "Melting Point": "216-218 °C"
    }
}