{
    "cas_no": "2998-23-4",
    "key_name": "Pentyl acrylate",
    "cn_name": null,
    "alternate_name": "2-Propenoic acid, pentyl ester;Acrylic acid, pentyl ester;Amyl acrylate;Pentyl acrylate;<em>n</em>-Pentyl acrylate;Pentyl 2-propenoate;<em>n</em>-Amyl acrylate;NSC 18605",
    "duplicated_cas_no": "",
    "SMILES": "C(OCCCCC)(C=C)=O",
    "meta_data": {
        "InChI": "InChI=1S/C8H14O2/c1-3-5-6-7-10-8(9)4-2/h4H,2-3,5-7H2,1H3",
        "InChIKey": null,
        "Canonical SMILES": "O=C(OCCCCC)C=C",
        "Molecular Formula": "C<sub>8</sub>H<sub>14</sub>O<sub>2</sub>",
        "Molecular Mass": "142.20",
        "Boiling Point": "48 °C @ Press: 7 Torr",
        "Density": "0.8903 g/cm³ @ Temp: 20 °C"
    }
}