{
    "cas_no": "7659-06-5",
    "key_name": "5-(2-Furanyl)-1,3,4-oxadiazol-2-amine",
    "cn_name": "5-呋喃-2-1,3,4 -恶二唑-2-氨基;5-呋喃-2-1,3,4 -恶二唑-2-氨基;",
    "alternate_name": "1,3,4-Oxadiazol-2-amine, 5-(2-furanyl)-;1,3,4-Oxadiazole, 2-amino-5-(2-furyl)-;5-(2-Furanyl)-1,3,4-oxadiazol-2-amine;2-Amino-5-(2-furyl)-1,3,4-oxadiazole;2-Amino-5-furyl-1,3,4-oxadiazole;2-Amino-5-(furan-2-yl)-1,3,4-oxadiazole;2-Amino-5-(furan-2-yl)-1,3,4-oxadiazol",
    "duplicated_cas_no": "",
    "SMILES": "NC=1OC(=NN1)C2=CC=CO2",
    "meta_data": {
        "InChI": "InChI=1S/C6H5N3O2/c7-6-9-8-5(11-6)4-2-1-3-10-4/h1-3H,(H2,7,9)",
        "InChIKey": null,
        "Canonical SMILES": "N=1N=C(OC1N)C=2OC=CC2",
        "Molecular Formula": "C<sub>6</sub>H<sub>5</sub>N<sub>3</sub>O<sub>2</sub>",
        "Molecular Mass": "151.12",
        "Melting Point": "225-226 °C"
    }
}