{
    "cas_no": "5900-55-0",
    "key_name": "<em>N</em>-(5-Chloro-2-methylphenyl)acetamide",
    "cn_name": null,
    "alternate_name": "Acetamide, <em>N</em>-(5-chloro-2-methylphenyl)-;<em>o</em>-Acetotoluidide, 5′-chloro-;<em>N</em>-(5-Chloro-2-methylphenyl)acetamide;5-Chloro-<em>o</em>-acetotoluidide;5′-Chloro-2′-methylacetanilide;2-Acetamido-4-chlorotoluene;NSC 404301;2-Acetamino-4-chlorotoluene",
    "duplicated_cas_no": "",
    "SMILES": "N(C(C)=O)C1=C(C)C=CC(Cl)=C1",
    "meta_data": {
        "InChI": "InChI=1S/C9H10ClNO/c1-6-3-4-8(10)5-9(6)11-7(2)12/h3-5H,1-2H3,(H,11,12)",
        "InChIKey": null,
        "Canonical SMILES": "O=C(NC1=CC(Cl)=CC=C1C)C",
        "Molecular Formula": "C<sub>9</sub>H<sub>10</sub>ClNO",
        "Molecular Mass": "183.63",
        "Melting Point": "129-130 °C"
    }
}