{
    "cas_no": "21667-64-1",
    "key_name": "3-Nitro-β-oxobenzenepropanenitrile",
    "cn_name": null,
    "alternate_name": "Benzenepropanenitrile, 3-nitro-β-oxo-;Acetonitrile, (<em>m</em>-nitrobenzoyl)-;3-Nitro-β-oxobenzenepropanenitrile;<em>m</em>-Nitrophenacyl cyanide;3-Nitrophenacyl cyanide;3-Nitrobenzoylacetonitrile;2-(3-Nitrobenzoyl)acetonitrile",
    "duplicated_cas_no": "",
    "SMILES": "C(CC#N)(=O)C1=CC(N(=O)=O)=CC=C1",
    "meta_data": {
        "InChI": "InChI=1S/C9H6N2O3/c10-5-4-9(12)7-2-1-3-8(6-7)11(13)14/h1-3,6H,4H2",
        "InChIKey": null,
        "Canonical SMILES": "N#CCC(=O)C1=CC=CC(=C1)N(=O)=O",
        "Molecular Formula": "C<sub>9</sub>H<sub>6</sub>N<sub>2</sub>O<sub>3</sub>",
        "Molecular Mass": "190.16",
        "Melting Point": "152.0-153.0 °C"
    }
}