{
    "cas_no": "36505-84-7",
    "key_name": "Buspirone",
    "cn_name": "丁螺环酮;8-[4-(嘧啶-2-基)-1-哌嗪基丁基]-8-氮杂螺[4,5]癸烷-7,9-二酮;",
    "alternate_name": "8-Azaspiro[4.5]decane-7,9-dione, 8-[4-[4-(2-pyrimidinyl)-1-piperazinyl]butyl]-;8-[4-[4-(2-Pyrimidinyl)-1-piperazinyl]butyl]-8-azaspiro[4.5]decane-7,9-dione;Buspirone;Buspin;Spitomin;MeSH ID: D002065",
    "duplicated_cas_no": "",
    "SMILES": "O=C1CC2(CC(=O)N1CCCCN3CCN(CC3)C=4N=CC=CN4)CCCC2",
    "meta_data": {
        "InChI": "InChI=1S/C21H31N5O2/c27-18-16-21(6-1-2-7-21)17-19(28)26(18)11-4-3-10-24-12-14-25(15-13-24)20-22-8-5-9-23-20/h5,8-9H,1-4,6-7,10-17H2",
        "InChIKey": null,
        "Canonical SMILES": "O=C1N(C(=O)CC2(C1)CCCC2)CCCCN3CCN(C4=NC=CC=N4)CC3",
        "Molecular Formula": "C<sub>21</sub>H<sub>31</sub>N<sub>5</sub>O<sub>2</sub>",
        "Molecular Mass": "385.50",
        "Melting Point": "105-107 °C"
    }
}