{
    "cas_no": "433-53-4",
    "key_name": "Methyl difluoroacetate",
    "cn_name": "二氟乙酸甲酯;",
    "alternate_name": "Acetic acid, 2,2-difluoro-, methyl ester;Acetic acid, difluoro-, methyl ester;Methyl difluoroacetate;Difluoroacetic acid methyl ester;Methyl 2,2-difluoroacetate;α,α-Difluoroacetic acid methyl ester;2,2-Difluoroacetic acid methyl ester",
    "duplicated_cas_no": "",
    "SMILES": "C(C(F)F)(OC)=O",
    "meta_data": {
        "InChI": "InChI=1S/C3H4F2O2/c1-7-3(6)2(4)5/h2H,1H3",
        "InChIKey": null,
        "Canonical SMILES": "O=C(OC)C(F)F",
        "Molecular Formula": "C<sub>3</sub>H<sub>4</sub>F<sub>2</sub>O<sub>2</sub>",
        "Molecular Mass": "110.06",
        "Boiling Point": "85.0-86.0 °C"
    }
}