{
    "cas_no": "3575-80-2",
    "key_name": "Melperone",
    "cn_name": null,
    "alternate_name": "1-Butanone, 1-(4-fluorophenyl)-4-(4-methyl-1-piperidinyl)-;Butyrophenone, 4′-fluoro-4-(4-methylpiperidino)-;1-(4-Fluorophenyl)-4-(4-methyl-1-piperidinyl)-1-butanone;4′-Fluoro-4-(4-methylpiperidino)butyrophenone;γ-(4-Methylpiperidino)-<em>p</em>-fluorobutyrophenone;Methylperone;4-Fluoro-γ-(4-methylpiperidino)butyrophenone;Buronil;FG 5111;Melperone;Flubuperone;Buronon",
    "duplicated_cas_no": "",
    "SMILES": "C(CCCN1CCC(C)CC1)(=O)C2=CC=C(F)C=C2",
    "meta_data": {
        "InChI": "InChI=1S/C16H22FNO/c1-13-8-11-18(12-9-13)10-2-3-16(19)14-4-6-15(17)7-5-14/h4-7,13H,2-3,8-12H2,1H3",
        "InChIKey": null,
        "Canonical SMILES": "O=C(C1=CC=C(F)C=C1)CCCN2CCC(C)CC2",
        "Molecular Formula": "C<sub>16</sub>H<sub>22</sub>FNO",
        "Molecular Mass": "263.35",
        "Boiling Point": "122.5 °C",
        "Melting Point": "&lt;25 °C"
    }
}