{
    "cas_no": "4147-51-7",
    "key_name": "Dipropetryn",
    "cn_name": "异丙净;异丙净;杀草净,异丙净;2-乙硫基-4,6-双异丙氨基-1,3,5-三嗪;杀草净;",
    "alternate_name": "1,3,5-Triazine-2,4-diamine, 6-(ethylthio)-<em>N</em><sup>2</sup>,<em>N</em><sup>4</sup>-bis(1-methylethyl)-;<em>s</em>-Triazine, 2-(ethylthio)-4,6-bis(isopropylamino)-;1,3,5-Triazine-2,4-diamine, 6-(ethylthio)-<em>N</em>,<em>N</em>′-bis(1-methylethyl)-;6-(Ethylthio)-<em>N</em><sup>2</sup>,<em>N</em><sup>4</sup>-bis(1-methylethyl)-1,3,5-triazine-2,4-diamine;GS 16068;Sancap;2-Ethylthio-4,6-bis(isopropylamino)-5-triazine;2-Ethylthio-4,6-bis(isopropylamino)-<em>s</em>-triazine;Dipropetryn;Cotofor",
    "duplicated_cas_no": "",
    "SMILES": "N(C(C)C)C=1N=C(NC(C)C)N=C(SCC)N1",
    "meta_data": {
        "InChI": "InChI=1S/C11H21N5S/c1-6-17-11-15-9(12-7(2)3)14-10(16-11)13-8(4)5/h7-8H,6H2,1-5H3,(H2,12,13,14,15,16)",
        "InChIKey": null,
        "Canonical SMILES": "N=1C(=NC(=NC1NC(C)C)NC(C)C)SCC",
        "Molecular Formula": "C<sub>11</sub>H<sub>21</sub>N<sub>5</sub>S",
        "Molecular Mass": "255.38",
        "Melting Point": "105 °C"
    }
}