{
    "cas_no": "452-73-3",
    "key_name": "2-Chloro-4-fluoro-1-methylbenzene",
    "cn_name": "2-氯-4-氟甲苯;",
    "alternate_name": "Benzene, 2-chloro-4-fluoro-1-methyl-;Toluene, 2-chloro-4-fluoro-;2-Chloro-4-fluoro-1-methylbenzene;2-Chloro-4-fluorotoluene;4-Fluoro-2-chlorotoluene;NSC 88317",
    "duplicated_cas_no": "",
    "SMILES": "ClC1=C(C)C=CC(F)=C1",
    "meta_data": {
        "InChI": "InChI=1S/C7H6ClF/c1-5-2-3-6(9)4-7(5)8/h2-4H,1H3",
        "InChIKey": null,
        "Canonical SMILES": "FC1=CC=C(C(Cl)=C1)C",
        "Molecular Formula": "C<sub>7</sub>H<sub>6</sub>ClF",
        "Molecular Mass": "144.57",
        "Boiling Point": "151.5-153.0 °C",
        "Density": "1.1972 g/cm³ @ Temp: 20 °C"
    }
}