{
    "cas_no": "2905-65-9",
    "key_name": "Benzoic acid, 3-chloro-, methyl ester",
    "cn_name": "间氯苯甲酸甲酯;",
    "alternate_name": "Benzoic acid, 3-chloro-, methyl ester;Benzoic acid, <em>m</em>-chloro-, methyl ester;<em>m</em>-Chlorobenzoic acid methyl ester;Methyl <em>m</em>-chlorobenzoate;Methyl 3-chlorobenzoate;3-Chlorobenzoic acid methyl ester;3-(Methoxycarbonyl)phenyl chloride",
    "duplicated_cas_no": "",
    "SMILES": "C(OC)(=O)C1=CC(Cl)=CC=C1",
    "meta_data": {
        "InChI": "InChI=1S/C8H7ClO2/c1-11-8(10)6-3-2-4-7(9)5-6/h2-5H,1H3",
        "InChIKey": null,
        "Canonical SMILES": "O=C(OC)C=1C=CC=C(Cl)C1",
        "Molecular Formula": "C<sub>8</sub>H<sub>7</sub>ClO<sub>2</sub>",
        "Molecular Mass": "170.59",
        "Boiling Point": "231 °C",
        "Melting Point": "21 °C"
    }
}