{
    "cas_no": "546-80-5",
    "key_name": "Thujone",
    "cn_name": "[1S-(1&alpha;,4&alpha;,5&alpha;)]-4-甲基-1-(1-甲基乙基)二环[3.1.0]己烷-3-酮;",
    "alternate_name": "Bicyclo[3.1.0]hexan-3-one, 4-methyl-1-(1-methylethyl)-, (1<em>S</em>,4<em>R</em>,5<em>R</em>)-;3-Thujanone, (1<em>S</em>,4<em>R</em>,5<em>R</em>)-(-)-;Bicyclo[3.1.0]hexan-3-one, 4-methyl-1-(1-methylethyl)-, [1<em>S</em>-(1α,4α,5α)]-;(1<em>S</em>,4<em>R</em>,5<em>R</em>)-4-Methyl-1-(1-methylethyl)bicyclo[3.1.0]hexan-3-one;α-Thujone;Thujone;(-)-Thujone;Thujon;(-)-α-Thujone;NSC 93742;Absinthol;(1<em>S</em>,4<em>R</em>,5<em>R</em>)-1-Isopropyl-4-methylbicyclo[3.1.0]hexan-3-one",
    "duplicated_cas_no": "1310340-03-4;2407704-71-4",
    "SMILES": "C(C)(C)[C@]12[C@](C1)([C@@H](C)C(=O)C2)[H]",
    "meta_data": {
        "InChI": "InChI=1S/C10H16O/c1-6(2)10-4-8(10)7(3)9(11)5-10/h6-8H,4-5H2,1-3H3/t7-,8-,10+/m1/s1",
        "InChIKey": null,
        "Canonical SMILES": "O=C1CC2(CC2C1C)C(C)C",
        "Molecular Formula": "C<sub>10</sub>H<sub>16</sub>O",
        "Molecular Mass": "152.23",
        "Boiling Point": "203 °C",
        "Melting Point": "&lt;25 °C",
        "Density": "0.919 g/cm³ @ Temp: 15 °C"
    }
}