{
    "cas_no": "1070-00-4",
    "key_name": "Trioctylaluminum",
    "cn_name": "三辛基铝;",
    "alternate_name": "Aluminum, trioctyl-;Trioctylaluminum;Tri-<em>n</em>-octylaluminum;Trioctylalane;Trioctylaluminium;Tri-<em>n</em>-octylaluminium",
    "duplicated_cas_no": "",
    "SMILES": "[Al](CCCCCCCC)(CCCCCCCC)CCCCCCCC",
    "meta_data": {
        "InChI": "InChI=1S/3C8H17.Al/c3*1-3-5-7-8-6-4-2;/h3*1,3-8H2,2H3;",
        "InChIKey": null,
        "Canonical SMILES": "[Al](CCCCCCCC)(CCCCCCCC)CCCCCCCC",
        "Molecular Formula": "C<sub>24</sub>H<sub>51</sub>Al",
        "Molecular Mass": "",
        "Melting Point": "&lt;-40 °C",
        "Density": "0.8336 g/cm³ @ Temp: 25 °C"
    }
}