{
    "cas_no": "1774-47-6",
    "key_name": "Sulfoxonium, trimethyl-, iodide (1:1)",
    "cn_name": "三甲基碘化亚砜;",
    "alternate_name": "Sulfoxonium, trimethyl-, iodide (1:1);Sulfoxonium, trimethyl-, iodide;Trimethylsulfoxonium iodide;Trimethylsulfonium iodide, oxide;Trimethyloxosulfonium iodide;Trimethyloxosulphonium iodide;<em>S</em>,<em>S</em>,<em>S</em>-Trimethylsulfoxonium iodide;NSC 71213;Trimethyl(oxo)-λ6-sulfanylium iodide;Sulfur, iodotrimethyloxo-;Iodotrimethyloxosulfur",
    "duplicated_cas_no": "76570-08-6;305859-81-8;1646683-13-7",
    "SMILES": "[S+](C)(C)(C)=O.[I-]",
    "meta_data": {
        "InChI": "InChI=1S/C3H9OS.HI/c1-5(2,3)4;/h1-3H3;1H/q+1;/p-1",
        "InChIKey": null,
        "Canonical SMILES": "[I-].O=[S+](C)(C)C",
        "Molecular Formula": "C<sub>3</sub>H<sub>9</sub>OS.I",
        "Molecular Mass": "",
        "Melting Point": "200 °C"
    }
}