{
    "cas_no": "20605-01-0",
    "key_name": "Propanedioic acid, 2,2-bis(hydroxymethyl)-, 1,3-diethyl ester",
    "cn_name": "双羟甲基丙二酸二乙酯;",
    "alternate_name": "Propanedioic acid, 2,2-bis(hydroxymethyl)-, 1,3-diethyl ester;Malonic acid, bis(hydroxymethyl)-, diethyl ester;Propanedioic acid, bis(hydroxymethyl)-, diethyl ester;Diethyl bis(hydroxymethyl)malonate;Bis(hydroxymethyl)propanedioic acid diethyl ester;NSC 218327;Diethyl α,α-bis(hydroxymethyl)malonate;Diethyl 2,2-bis(hydroxymethyl)malonate;1,3-Diethyl 2,2-bis(hydroxymethyl)propanedioate;Bis(hydroxymethyl)malonic acid diethyl ester",
    "duplicated_cas_no": "",
    "SMILES": "C(C(OCC)=O)(C(OCC)=O)(CO)CO",
    "meta_data": {
        "InChI": "InChI=1S/C9H16O6/c1-3-14-7(12)9(5-10,6-11)8(13)15-4-2/h10-11H,3-6H2,1-2H3",
        "InChIKey": null,
        "Canonical SMILES": "O=C(OCC)C(C(=O)OCC)(CO)CO",
        "Molecular Formula": "C<sub>9</sub>H<sub>16</sub>O<sub>6</sub>",
        "Molecular Mass": "220.22",
        "Melting Point": "41-45 °C"
    }
}