{
    "cas_no": "95530-58-8",
    "key_name": "(<em>R</em>)-4-Isopropyl-2-oxazolidinone",
    "cn_name": null,
    "alternate_name": "2-Oxazolidinone, 4-(1-methylethyl)-, (4<em>R</em>)-;2-Oxazolidinone, 4-(1-methylethyl)-, (<em>R</em>)-;(4<em>R</em>)-4-(1-Methylethyl)-2-oxazolidinone;(<em>R</em>)-4-Isopropyl-2-oxazolidinone;(4<em>R</em>)-(+)-4-Isopropyl-2-oxazolidone;(4<em>R</em>)-4-Isopropyl-2-oxazolidinone;(4<em>R</em>)-4-Isopropyl-1,3-oxazolidin-2-one;(4<em>R</em>)-4-Isopropyloxazolidin-2-one;(R)-4-Isopropyloxazolidin-2-one;(4R)-4-(Propan-2-yl)-1,3-oxazolidin-2-one;(R)-(+)-4-Isopropyl-2-oxazolidinone;(4R)-4-Propan-2-yl-1,3-oxazolidin-2-one",
    "duplicated_cas_no": "",
    "SMILES": "[C@H](C)(C)[C@H]1NC(=O)OC1",
    "meta_data": {
        "InChI": "InChI=1S/C6H11NO2/c1-4(2)5-3-9-6(8)7-5/h4-5H,3H2,1-2H3,(H,7,8)/t5-/m0/s1",
        "InChIKey": null,
        "Canonical SMILES": "O=C1OCC(N1)C(C)C",
        "Molecular Formula": "C<sub>6</sub>H<sub>11</sub>NO<sub>2</sub>",
        "Molecular Mass": "129.16",
        "Melting Point": "70-72 °C"
    }
}