{
    "cas_no": "95-69-2",
    "key_name": "4-Chloro-2-methylaniline",
    "cn_name": "4-氯-2-甲基苯胺;4-氯邻甲苯胺;",
    "alternate_name": "Benzenamine, 4-chloro-2-methyl-;<em>o</em>-Toluidine, 4-chloro-;4-Chloro-2-methylbenzenamine;Daito Red Base TR;Fast Red Base TR;Fast Red 5CT Base;Fast Red TR Base;Fast Red TRO Base;Kako Red TR Base;Mitsui Red TR Base;Red Base NTR;Red TR Base;Sanyo Fast Red TR Base;4-Chloro-<em>o</em>-toluidine;2-Methyl-4-chloroaniline;2-Amino-5-chlorotoluene;4-Chloro-2-toluidine;4-Chloro-2-methylaniline;<em>p</em>-Chloro-<em>o</em>-toluidine;4-Chloro-6-methylaniline;3-Chloro-6-aminotoluene;Fast Red TR-T Base;5-Chloro-2-aminotoluene;2-Methyl-4-chlorobenzenamine;NSC 4979;(4-Chloro-2-methylphenyl)amine",
    "duplicated_cas_no": "",
    "SMILES": "CC1=C(N)C=CC(Cl)=C1",
    "meta_data": {
        "InChI": "InChI=1S/C7H8ClN/c1-5-4-6(8)2-3-7(5)9/h2-4H,9H2,1H3",
        "InChIKey": null,
        "Canonical SMILES": "ClC1=CC=C(N)C(=C1)C",
        "Molecular Formula": "C<sub>7</sub>H<sub>8</sub>ClN",
        "Molecular Mass": "141.60",
        "Boiling Point": "241 °C @ Press: 760 Torr",
        "Melting Point": "30 °C"
    }
}