{
    "cas_no": "19254-69-4",
    "key_name": "Ergosta-4,6,8(14),22-tetraen-3-one",
    "cn_name": null,
    "alternate_name": "Ergosta-4,6,8(14),22-tetraen-3-one, (22<em>E</em>)-;Ergosta-4,6,8(14),22-tetraen-3-one;(22<em>E</em>)-Ergosta-4,6,8(14),22-tetraen-3-one;(22<em>E</em>)-4,6,8(14),22-Ergostatetraen-3-one;(22<em>E</em>,24<em>R</em>)-Ergosta-4,6,8(14),22-tetraen-3-one;Ergone;(22E,24R)-Ergosta-4,6,8(14),22-tetraen-3-one",
    "duplicated_cas_no": "27625-48-5",
    "SMILES": "C[C@@]12C(=C3[C@@]([C@]4(C)C(C=C3)=CC(=O)CC4)(CC1)[H])CC[C@@]2([C@@H](/C=C/[C@@H](C(C)C)C)C)[H]",
    "meta_data": {
        "InChI": "InChI=1S/C28H40O/c1-18(2)19(3)7-8-20(4)24-11-12-25-23-10-9-21-17-22(29)13-15-27(21,5)26(23)14-16-28(24,25)6/h7-10,17-20,24,26H,11-16H2,1-6H3/b8-7+/t19-,20+,24+,26-,27-,28+/m0/s1",
        "InChIKey": null,
        "Canonical SMILES": "O=C1C=C2C=CC3=C4CCC(C(C=CC(C)C(C)C)C)C4(C)CCC3C2(C)CC1",
        "Molecular Formula": "C<sub>28</sub>H<sub>40</sub>O",
        "Molecular Mass": "392.62",
        "Melting Point": "113-114 °C"
    }
}