{
    "cas_no": "626-86-8",
    "key_name": "1-Ethyl hexanedioate",
    "cn_name": "己二酸单乙酯;",
    "alternate_name": "Hexanedioic acid, 1-ethyl ester;Adipic acid, monoethyl ester;Hexanedioic acid, monoethyl ester;Adipic acid, ethyl ester;1-Ethyl hexanedioate;Monoethyl adipate;Ethyl hydrogen adipate;Monoethyl hexanedioate;Ethyl hydrogen hexanedioate;1,4-Butanedicarboxylic acid monoethyl ester;NSC 8877;6-Ethoxy-6-oxohexanoic acid;1,6-Hexandioic acid ethyl ester",
    "duplicated_cas_no": "",
    "SMILES": "C(C(OCC)=O)CCCC(O)=O",
    "meta_data": {
        "InChI": "InChI=1S/C8H14O4/c1-2-12-8(11)6-4-3-5-7(9)10/h2-6H2,1H3,(H,9,10)",
        "InChIKey": null,
        "Canonical SMILES": "O=C(O)CCCCC(=O)OCC",
        "Molecular Formula": "C<sub>8</sub>H<sub>14</sub>O<sub>4</sub>",
        "Molecular Mass": "174.19",
        "Boiling Point": "285 °C",
        "Melting Point": "29 °C"
    }
}