{
    "cas_no": "1798-50-1",
    "key_name": "4-Piperidinemethanol, α,α-diphenyl-, hydrochloride (1:1)",
    "cn_name": "盐酸苯哌醇;二苯哌啶甲醇盐酸盐;alpha,alpha-二苯基-4-哌啶甲醇盐酸盐;",
    "alternate_name": "4-Piperidinemethanol, α,α-diphenyl-, hydrochloride (1:1);4-Piperidinemethanol, α,α-diphenyl-, hydrochloride;Azacyclonol hydrochloride;α,α-Diphenyl-4-piperidinemethanol hydrochloride;Frenquel hydrochloride;Frenquel;Diphenyl(4-piperidyl)methanol hydrochloride",
    "duplicated_cas_no": "",
    "SMILES": "C(O)(C1=CC=CC=C1)(C2=CC=CC=C2)C3CCNCC3.Cl",
    "meta_data": {
        "InChI": "InChI=1S/C18H21NO.ClH/c20-18(15-7-3-1-4-8-15,16-9-5-2-6-10-16)17-11-13-19-14-12-17;/h1-10,17,19-20H,11-14H2;1H",
        "InChIKey": null,
        "Canonical SMILES": "Cl.OC(C=1C=CC=CC1)(C=2C=CC=CC2)C3CCNCC3",
        "Molecular Formula": "C<sub>18</sub>H<sub>21</sub>NO.ClH",
        "Molecular Mass": "",
        "Melting Point": "283-285 °C"
    }
}