{
    "cas_no": "30165-97-0",
    "key_name": "3-Hydroxy-4-morpholino-1,2,5-thiadiazole",
    "cn_name": null,
    "alternate_name": "1,2,5-Thiadiazol-3(2<em>H</em>)-one, 4-(4-morpholinyl)-;1,2,5-Thiadiazol-3-ol, 4-morpholino-;4-(4-Morpholinyl)-1,2,5-thiadiazol-3(2<em>H</em>)-one;3-Hydroxy-4-morpholino-1,2,5-thiazole;3-Hydroxy-4-morpholino-1,2,5-thiadiazole;3-Morpholino-4-hydroxy-1,2,5-thiadiazole",
    "duplicated_cas_no": "",
    "SMILES": "O=C1C(=NSN1)N2CCOCC2",
    "meta_data": {
        "InChI": "InChI=1S/C6H9N3O2S/c10-6-5(7-12-8-6)9-1-3-11-4-2-9/h1-4H2,(H,8,10)",
        "InChIKey": null,
        "Canonical SMILES": "O=C1NSN=C1N2CCOCC2",
        "Molecular Formula": "C<sub>6</sub>H<sub>9</sub>N<sub>3</sub>O<sub>2</sub>S",
        "Molecular Mass": "187.22",
        "Melting Point": "200-204 °C"
    }
}