{
    "cas_no": "9003-70-7",
    "key_name": "Divinylbenzene-styrene copolymer",
    "cn_name": null,
    "alternate_name": "Benzene, diethenyl-, polymer with ethenylbenzene;Benzene, divinyl-, polymer with styrene;Styrene, polymer with divinylbenzene;Benzene, ethenyl-, polymer with diethenylbenzene;P 8D;Divinylbenzene-polystyrene copolymer;Polystyrene-divinylbenzene copolymer;Polysorb 1;Styrene-divinylbenzene polymer;Synachrom;Divinylbenzene-styrene polymer;Chromosorb 102;Divinylbenzene-styrene resins;Diethenylbenzene-ethenylbenzene polymer;HAP 1;SDX 5;MR 500;Styrene copolymer with divinylbenzene;KPN 258;Chromosorb 101;MCT 1;Hitachi 3010;Y 29/11;Styragel;Divinylbenzene-vinylbenzene copolymer;Styrene-divinybenzene copolymer;Shodex 801;Styrene-divinylbenzene resin;PRP 1;HP 60;Cekachrom 2;Cekachrom 3;PS 10t100;PS 20t100;PS 40t100;Polysorb C;Polysorb 40/100;HP 01;D 001X14;Polysorb 4T;Finepearl 3000F;Polysorb S 60/100;Polysorb S 40/100;MOD 40/100;CDR 10;PLRP-S;Divinylbenzene-styrene copolymer;TVEX;NGW 04;GDX 101;TSK G4000H;Vinylsorb S;Bonopore 7;Pontybond;TVEKS;Poly(divinylbenzene-styrene);Polyacene SD;Poly(styrene-divinylbenzene);PRLP-S;Polyhipe X 20PV90;Bio-Beads SX 2;Bio-Beads SX 3;Bio-Beads SX 4;Bio-Beads SX 8;Bio-Beads SX 12;Source;PS 1/85;Polystyrene-divinylbenzene polymer;Purasorb AP 250;Polystyrene-DVB;Styrene-DVB copolymer;Staphyloid GS 30A;Staphyloid GS 60A;TX-ER 6;Poros R 1;Poros R 2;Oligo R 3;Gaskuropack 54;D 005;D 005 (catalyst);Poros 10R2;Styrene-divinylbenzene copolymer;Novabiochem 01-64-0022;CSPO;HP 01 (vinyl polymer);SX 713;SGP 70C;CS 1;CS 1 (catalyst support);SGP 50C;Hamilton PRP 1;Polysorb C (copolymer);SDVB;InertSep RP 1;Aqusis PLS 3;DVB 960-styrene copolymer;Bio-Beads S;JSR-SX 8743C03;JSR-SX 8705P01;SD 15H60;Atoll XC;Rexolite 1422;Rexolite I;Rexolite II;Rexolite;Rexolite 2200;PolyVVFE;JSR-SX 8743;PL 1460-4707;Poros 20R1;Poly(styrene-co-divinylbenzene);Styrene-divinylbenzene-2,2′-bipyridyl copolymer;JSR-SX 8742-08;SX 8742-08;WDX 3;WD 4;Ganz Pearl GS 0605;GS 0605;JSR-SX 8743-08;JSR-SX 8743-05;Poly(styrene-co-DVB);Chemisnow SGP 150C;SGP 150C;HY 1 (adsorbent);HY 1;HZ-PS 20SS;HZ-PS 816;HZ-PS 818;HZ-PS 830;Sunpak A;Ganzpearl GS 1105;Poros R 1-50;Bio-Beads SM 2;Bio-Rad SM 2;Sprinbeads SN 110;Polyspher PST 10;DVBS;XE 53BNGF;Nanotex PF 032A;Nanotex PF 082A;PS 10V;NDA 1800;UniPS;UniPS 40;UniPS 30;LX-MS 15;LX-MS 30;LX 20SS;LX 316;LX 261;D 101 (styrene polymer);D 101;Indion PA 800;Dowex 88MB;Chromalite PCG 600M",
    "duplicated_cas_no": "9063-22-3;9081-46-3;39429-19-1;51281-21-1;53025-72-2;67712-67-8;69071-31-4;73379-62-1;77466-89-8;78690-77-4;79304-24-8;79805-17-7;80803-30-1;81544-03-8;85595-36-4;94555-10-9;103865-26-5;117079-77-3;119912-33-3;119912-34-4;121202-85-5;139911-80-1;141122-41-0;149212-50-0;229626-83-9;274914-25-9;274914-26-0;274914-28-2;274914-29-3;451471-86-6;885462-78-2;950172-93-7;1058147-39-9;1070403-37-0;1173242-72-2;1191243-82-9;1240092-99-2;1296192-53-4;1309977-80-7;1313023-47-0;1334287-09-0;1357079-06-1;1393939-28-0;1620279-04-0;1689577-90-9;2049077-94-1;2443487-20-3;2451199-00-9;2768605-05-4",
    "SMILES": "",
    "meta_data": {
        "InChI": "",
        "InChIKey": null,
        "Canonical SMILES": "",
        "Molecular Formula": "(C<sub>10</sub>H<sub>10</sub>.C<sub>8</sub>H<sub>8</sub>)<sub>x</sub>",
        "Molecular Mass": "",
        "Melting Point": "270 °C",
        "Density": "0.9890 g/cm³"
    }
}