{
    "cas_no": "90719-30-5",
    "key_name": "Locostatin",
    "cn_name": null,
    "alternate_name": "2-Oxazolidinone, 3-[(2<em>E</em>)-1-oxo-2-buten-1-yl]-4-(phenylmethyl)-, (4<em>S</em>)-;2-Oxazolidinone, 3-(1-oxo-2-butenyl)-4-(phenylmethyl)-, [<em>S</em>-(<em>E</em>)]-;2-Oxazolidinone, 3-[(2<em>E</em>)-1-oxo-2-butenyl]-4-(phenylmethyl)-, (4<em>S</em>)-;(4<em>S</em>)-3-[(2<em>E</em>)-1-Oxo-2-buten-1-yl]-4-(phenylmethyl)-2-oxazolidinone;UIC 1005;(4<em>S</em>)-4-Benzyl-3-((<em>E</em>)-2-butenoyl)oxazolidin-2-one;Locostatin",
    "duplicated_cas_no": "",
    "SMILES": "C([C@@H]1N(C(/C=C/C)=O)C(=O)OC1)C2=CC=CC=C2",
    "meta_data": {
        "InChI": "InChI=1S/C14H15NO3/c1-2-6-13(16)15-12(10-18-14(15)17)9-11-7-4-3-5-8-11/h2-8,12H,9-10H2,1H3/b6-2+/t12-/m0/s1",
        "InChIKey": null,
        "Canonical SMILES": "O=C1OCC(N1C(=O)C=CC)CC=2C=CC=CC2",
        "Molecular Formula": "C<sub>14</sub>H<sub>15</sub>NO<sub>3</sub>",
        "Molecular Mass": "245.27",
        "Melting Point": "87-90 °C"
    }
}