{
    "cas_no": "467-62-9",
    "key_name": "Tris(4-aminophenyl)methanol",
    "cn_name": "付玫瑰苯胺;",
    "alternate_name": "Benzenemethanol, 4-amino-α,α-bis(4-aminophenyl)-;Methanol, tris(<em>p</em>-aminophenyl)-;Parafuchsin carbinol;4-Amino-α,α-bis(4-aminophenyl)benzenemethanol;Tris(<em>p</em>-aminophenyl)methanol;Tris(4-aminophenyl)methanol",
    "duplicated_cas_no": "",
    "SMILES": "C(O)(C1=CC=C(N)C=C1)(C2=CC=C(N)C=C2)C3=CC=C(N)C=C3",
    "meta_data": {
        "InChI": "InChI=1S/C19H19N3O/c20-16-7-1-13(2-8-16)19(23,14-3-9-17(21)10-4-14)15-5-11-18(22)12-6-15/h1-12,23H,20-22H2",
        "InChIKey": null,
        "Canonical SMILES": "OC(C1=CC=C(N)C=C1)(C2=CC=C(N)C=C2)C3=CC=C(N)C=C3",
        "Molecular Formula": "C<sub>19</sub>H<sub>19</sub>N<sub>3</sub>O",
        "Molecular Mass": "305.37",
        "Melting Point": "240-243 °C"
    }
}