{
    "cas_no": "156-59-2",
    "key_name": "<em>cis</em>-1,2-Dichloroethene",
    "cn_name": "顺-1,2-二氯乙烯;顺式-1,2-二氯乙烯;1,2-二氯乙烯(顺式);",
    "alternate_name": "Ethene, 1,2-dichloro-, (1<em>Z</em>)-;Ethylene, 1,2-dichloro-, (<em>Z</em>)-;Ethene, 1,2-dichloro-, (<em>Z</em>)-;(1<em>Z</em>)-1,2-Dichloroethene;<em>cis</em>-1,2-Dichloroethylene;(<em>Z</em>)-1,2-Dichloroethylene;1,2-<em>cis</em>-Dichloroethylene;<em>cis</em>-Dichloroethylene;<em>cis</em>-1,2-Dichlorethylene;1,2-<em>cis</em>-Dichloroethene;HCC 1130c;(<em>Z</em>)-1,2-Dichloroethene;R 1130c;<em>cis</em>-1,2-Dichloroethene;<em>cis</em>-Dichloroethene;HCO 1130(Z)",
    "duplicated_cas_no": "1438395-68-6",
    "SMILES": "C(=C\\Cl)\\Cl",
    "meta_data": {
        "InChI": "InChI=1S/C2H2Cl2/c3-1-2-4/h1-2H/b2-1-",
        "InChIKey": null,
        "Canonical SMILES": "ClC=CCl",
        "Molecular Formula": "C<sub>2</sub>H<sub>2</sub>Cl<sub>2</sub>",
        "Molecular Mass": "96.94",
        "Boiling Point": "60.1 °C @ Press: 760 Torr",
        "Melting Point": "-80 °C",
        "Density": "1.2837 g/cm³ @ Temp: 20 °C"
    }
}