{
    "cas_no": "480-43-3",
    "key_name": "Isosakuranetin",
    "cn_name": null,
    "alternate_name": "4<em>H</em>-1-Benzopyran-4-one, 2,3-dihydro-5,7-dihydroxy-2-(4-methoxyphenyl)-, (2<em>S</em>)-;Flavanone, 5,7-dihydroxy-4′-methoxy-;Isosakuranetin;4<em>H</em>-1-Benzopyran-4-one, 2,3-dihydro-5,7-dihydroxy-2-(4-methoxyphenyl)-, (<em>S</em>)-;(2<em>S</em>)-2,3-Dihydro-5,7-dihydroxy-2-(4-methoxyphenyl)-4<em>H</em>-1-benzopyran-4-one;Citrifoliol;Naringenin-4′-methyl ether;4′-Methylnaringenin;Ponciretin;5,7-Dihydroxy-4′-methoxyflavanone;(<em>S</em>)-Isosakuranetin;Isosakuranetine;(2S)-5,7-Dihydroxy-2-(4-methoxyphenyl)-2,3-dihydrochromen-4-one",
    "duplicated_cas_no": "24557-94-6",
    "SMILES": "O=C1C=2C(O[C@@H](C1)C3=CC=C(OC)C=C3)=CC(O)=CC2O",
    "meta_data": {
        "InChI": "InChI=1S/C16H14O5/c1-20-11-4-2-9(3-5-11)14-8-13(19)16-12(18)6-10(17)7-15(16)21-14/h2-7,14,17-18H,8H2,1H3/t14-/m0/s1",
        "InChIKey": null,
        "Canonical SMILES": "O=C1C=2C(O)=CC(O)=CC2OC(C3=CC=C(OC)C=C3)C1",
        "Molecular Formula": "C<sub>16</sub>H<sub>14</sub>O<sub>5</sub>",
        "Molecular Mass": "286.28",
        "Melting Point": "192-193 °C"
    }
}