{
    "cas_no": "52729-03-0",
    "key_name": "2,4-Dichloro-3,5-dinitrobenzoic acid",
    "cn_name": "2,4-二氯-3,5-二硝基苯甲酸;",
    "alternate_name": "Benzoic acid, 2,4-dichloro-3,5-dinitro-;2,4-Dichloro-3,5-dinitrobenzoic acid;NSC 76602",
    "duplicated_cas_no": "",
    "SMILES": "N(=O)(=O)C1=C(Cl)C(C(O)=O)=CC(N(=O)=O)=C1Cl",
    "meta_data": {
        "InChI": "InChI=1S/C7H2Cl2N2O6/c8-4-2(7(12)13)1-3(10(14)15)5(9)6(4)11(16)17/h1H,(H,12,13)",
        "InChIKey": null,
        "Canonical SMILES": "O=C(O)C=1C=C(C(Cl)=C(C1Cl)N(=O)=O)N(=O)=O",
        "Molecular Formula": "C<sub>7</sub>H<sub>2</sub>Cl<sub>2</sub>N<sub>2</sub>O<sub>6</sub>",
        "Molecular Mass": "281.01",
        "Melting Point": "210-211 °C"
    }
}