{
    "cas_no": "6320-15-6",
    "key_name": "4-Chloro-2,6-dimethoxypyrimidine",
    "cn_name": null,
    "alternate_name": "Pyrimidine, 4-chloro-2,6-dimethoxy-;4-Chloro-2,6-dimethoxypyrimidine;6-Chloro-2,4-dimethoxypyrimidine;2,4-Dimethoxy-6-chloropyrimidine;NSC 31796;2,6-Dimethoxypyrimidin-4-yl chloride",
    "duplicated_cas_no": "",
    "SMILES": "O(C)C1=NC(OC)=NC(Cl)=C1",
    "meta_data": {
        "InChI": "InChI=1S/C6H7ClN2O2/c1-10-5-3-4(7)8-6(9-5)11-2/h3H,1-2H3",
        "InChIKey": null,
        "Canonical SMILES": "ClC=1N=C(N=C(OC)C1)OC",
        "Molecular Formula": "C<sub>6</sub>H<sub>7</sub>ClN<sub>2</sub>O<sub>2</sub>",
        "Molecular Mass": "174.59",
        "Melting Point": "160-165 °C (decomp)"
    }
}