{
    "cas_no": "606-20-2",
    "key_name": "2,6-Dinitrotoluene",
    "cn_name": "2,6-二硝基甲苯;",
    "alternate_name": "Benzene, 2-methyl-1,3-dinitro-;Toluene, 2,6-dinitro-;2-Methyl-1,3-dinitrobenzene;2,6-Dinitrotoluene;2,6-DNT;1-Methyl-2,6-dinitrobenzene",
    "duplicated_cas_no": "",
    "SMILES": "N(=O)(=O)C1=C(C)C(N(=O)=O)=CC=C1",
    "meta_data": {
        "InChI": "InChI=1S/C7H6N2O4/c1-5-6(8(10)11)3-2-4-7(5)9(12)13/h2-4H,1H3",
        "InChIKey": null,
        "Canonical SMILES": "O=N(=O)C1=CC=CC(=C1C)N(=O)=O",
        "Molecular Formula": "C<sub>7</sub>H<sub>6</sub>N<sub>2</sub>O<sub>4</sub>",
        "Molecular Mass": "182.13",
        "Boiling Point": "285 °C",
        "Melting Point": "66 °C",
        "Density": "1.2833 g/cm³ @ Temp: 111 °C"
    }
}