{
    "cas_no": "1754-49-0",
    "key_name": "Diethyl phenylphosphonate",
    "cn_name": null,
    "alternate_name": "Phosphonic acid, <em>P</em>-phenyl-, diethyl ester;Phosphonic acid, phenyl-, diethyl ester;Diethyl phenylphosphonate;Diethyl benzenephosphonate;Diethoxyphenylphosphine oxide;NSC 5742",
    "duplicated_cas_no": "",
    "SMILES": "P(OCC)(OCC)(=O)C1=CC=CC=C1",
    "meta_data": {
        "InChI": "InChI=1S/C10H15O3P/c1-3-12-14(11,13-4-2)10-8-6-5-7-9-10/h5-9H,3-4H2,1-2H3",
        "InChIKey": null,
        "Canonical SMILES": "O=P(OCC)(OCC)C=1C=CC=CC1",
        "Molecular Formula": "C<sub>10</sub>H<sub>15</sub>O<sub>3</sub>P",
        "Molecular Mass": "214.20",
        "Boiling Point": "117-118 °C @ Press: 1.5 Torr",
        "Density": "1.1155 g/cm³ @ Temp: 20 °C"
    }
}