{
    "cas_no": "2058-46-0",
    "key_name": "Oxytetracycline hydrochloride",
    "cn_name": "盐酸土霉素;(4S,4aR,5S,5aR,6S,12aS)-4-二甲氨基-1,4,4a,5,5a,6,11,12a-八氢-3,5,6,10,12,12a-六羟基-6-甲;",
    "alternate_name": "2-Naphthacenecarboxamide, 4-(dimethylamino)-1,4,4a,5,5a,6,11,12a-octahydro-3,5,6,10,12,12a-hexahydroxy-6-methyl-1,11-dioxo-, hydrochloride (1:1), (4<em>S</em>,4a<em>R</em>,5<em>S</em>,5a<em>R</em>,6<em>S</em>,12a<em>S</em>)-;2-Naphthacenecarboxamide, 4-(dimethylamino)-1,4,4a,5,5a,6,11,12a-octahydro-3,5,6,10,12,12a-hexahydroxy-6-methyl-1,11-dioxo-, monohydrochloride;2-Naphthacenecarboxamide, 4-(dimethylamino)-1,4,4a,5,5a,6,11,12a-octahydro-3,5,6,10,12,12a-hexahydroxy-6-methyl-1,11-dioxo-, monohydrochloride, [4<em>S</em>-(4α,4aα,5α,5aα,6β,12aα)]-;2-Naphthacenecarboxamide, 4-(dimethylamino)-1,4,4a,5,5a,6,11,12a-octahydro-3,5,6,10,12,12a-hexahydroxy-6-methyl-1,11-dioxo-, monohydrochloride, (4<em>S</em>,4a<em>R</em>,5<em>S</em>,5a<em>R</em>,6<em>S</em>,12a<em>S</em>)-;1-Dimethylamino-1,4,6,11,12,13,14,18-octahydro-2,5,7,11,12,14-hexahydroxy-4,6-dioxo-11-methylnaphthacene-3-carbonamide hydrochloride;Liquamycin Injectable;Oxytetracycline hydrochloride;Terramycin hydrochloride;Tetran hydrochloride;5-Hydroxytetracycline hydrochloride;TM 5;5-Hydroxytetracycline monohydrochloride;Aquacycline;Engemycin;Oxytetrin;Mepatar;Oxytet;Oxylag;Gynamousse;Oxybiocycline;Oxycyclin;Occrycetin;Terraject;Oxyject;Oxy-Dumocyclin;Oxypan;Toxinal;Duphacycline;Oxytetracid;Oxy WS;Tetramel;Oxlopar;Alamycin;Oxybiotic;Tetra-Tabilinen;Biocyl;Maxicyklin;Vetilmicin;Teramycin;Terramycin 343;Shuihemeisu;Egocin 20",
    "duplicated_cas_no": "61794-35-2;72034-96-9;90438-85-0;102323-64-8;885678-73-9;1231953-59-5",
    "SMILES": "O[C@@]12[C@@]([C@@H](O)[C@]3(C(=C1O)C(=O)C=4C([C@@]3(C)O)=CC=CC4O)[H])([C@H](N(C)C)C(O)=C(C(N)=O)C2=O)[H].Cl",
    "meta_data": {
        "InChI": "InChI=1S/C22H24N2O9.ClH/c1-21(32)7-5-4-6-8(25)9(7)15(26)10-12(21)17(28)13-14(24(2)3)16(27)11(20(23)31)19(30)22(13,33)18(10)29;/h4-6,12-14,17,25,27-29,32-33H,1-3H3,(H2,23,31);1H/t12-,13-,14+,17+,21-,22+;/m1./s1",
        "InChIKey": null,
        "Canonical SMILES": "Cl.O=C(N)C=1C(=O)C2(O)C(O)=C3C(=O)C=4C(O)=CC=CC4C(O)(C)C3C(O)C2C(C1O)N(C)C",
        "Molecular Formula": "C<sub>22</sub>H<sub>24</sub>N<sub>2</sub>O<sub>9</sub>.ClH",
        "Molecular Mass": "",
        "Melting Point": "178 °C (decomp)"
    }
}