{
    "cas_no": "508-77-0",
    "key_name": "Cymarin",
    "cn_name": "毒毛旋花苷K;",
    "alternate_name": "Card-20(22)-enolide, 3-[(2,6-dideoxy-3-<em>O</em>-methyl-β-<span class=\"text-smallcaps\">D</span>-<em>ribo</em>-hexopyranosyl)oxy]-5,14-dihydroxy-19-oxo-, (3β,5β)-;Cymarin;(3β,5β)-3-[(2,6-Dideoxy-3-<em>O</em>-methyl-β-<span class=\"text-smallcaps\">D</span>-<em>ribo</em>-hexopyranosyl)oxy]-5,14-dihydroxy-19-oxocard-20(22)-enolide;<em>k</em>-Strophanthin-α;Cymarine;Alvonal MR;WV 90043a;Strophantin K;K-Strophanthin-α;NSC 7522;MeSH ID: D003529",
    "duplicated_cas_no": "1367-21-1;27214-79-5;80683-29-0;88195-73-7",
    "SMILES": "C(=O)[C@@]12[C@@]3([C@]([C@]4(O)[C@](C)(CC3)[C@H](CC4)C=5COC(=O)C5)(CC[C@]1(O)C[C@@H](O[C@H]6C[C@H](OC)[C@H](O)[C@@H](C)O6)CC2)[H])[H]",
    "meta_data": {
        "InChI": "InChI=1S/C30H44O9/c1-17-26(33)23(36-3)13-25(38-17)39-19-4-9-28(16-31)21-5-8-27(2)20(18-12-24(32)37-15-18)7-11-30(27,35)22(21)6-10-29(28,34)14-19/h12,16-17,19-23,25-26,33-35H,4-11,13-15H2,1-3H3/t17-,19+,20-,21+,22-,23+,25+,26-,27-,28+,29+,30+/m1/s1",
        "InChIKey": null,
        "Canonical SMILES": "O=CC12CCC(OC3OC(C)C(O)C(OC)C3)CC2(O)CCC4C1CCC5(C)C(C6=CC(=O)OC6)CCC45O",
        "Molecular Formula": "C<sub>30</sub>H<sub>44</sub>O<sub>9</sub>",
        "Molecular Mass": "548.66",
        "Melting Point": "148 °C"
    }
}