{
    "cas_no": "53562-51-9",
    "key_name": "3-Thiophenecarboxylic acid, 2-methyl-, methyl ester",
    "cn_name": null,
    "alternate_name": "3-Thiophenecarboxylic acid, 2-methyl-, methyl ester;Methyl 2-methyl-3-thiophenecarboxylate",
    "duplicated_cas_no": "76360-39-9",
    "SMILES": "C(OC)(=O)C1=C(C)SC=C1",
    "meta_data": {
        "InChI": "InChI=1S/C7H8O2S/c1-5-6(3-4-10-5)7(8)9-2/h3-4H,1-2H3",
        "InChIKey": null,
        "Canonical SMILES": "O=C(OC)C=1C=CSC1C",
        "Molecular Formula": "C<sub>7</sub>H<sub>8</sub>O<sub>2</sub>S",
        "Molecular Mass": "156.20",
        "Boiling Point": "90-91 °C @ Press: 17 Torr"
    }
}