{
    "cas_no": "13031-62-4",
    "key_name": "Butanamide, 4-amino-, hydrochloride (1:1)",
    "cn_name": null,
    "alternate_name": "Butanamide, 4-amino-, hydrochloride (1:1);Butanamide, 4-amino-, monohydrochloride;Butyramide, 4-amino-, hydrochloride;4-Aminobutyramide hydrochloride;4-Aminobutanamide hydrochloride;Gabamide hydrochloride",
    "duplicated_cas_no": "",
    "SMILES": "C(C(N)=O)CCN.Cl",
    "meta_data": {
        "InChI": "InChI=1S/C4H10N2O.ClH/c5-3-1-2-4(6)7;/h1-3,5H2,(H2,6,7);1H",
        "InChIKey": null,
        "Canonical SMILES": "Cl.O=C(N)CCCN",
        "Molecular Formula": "C<sub>4</sub>H<sub>10</sub>N<sub>2</sub>O.ClH",
        "Molecular Mass": "",
        "Melting Point": "126-129 °C"
    }
}