{
    "cas_no": "95-94-3",
    "key_name": "1,2,4,5-Tetrachlorobenzene",
    "cn_name": "1,2,4,5-四氯苯;",
    "alternate_name": "Benzene, 1,2,4,5-tetrachloro-;1,2,4,5-Tetrachlorobenzene;<em>s</em>-Tetrachlorobenzene;NSC 27003",
    "duplicated_cas_no": "",
    "SMILES": "ClC1=C(Cl)C=C(Cl)C(Cl)=C1",
    "meta_data": {
        "InChI": "InChI=1S/C6H2Cl4/c7-3-1-4(8)6(10)2-5(3)9/h1-2H",
        "InChIKey": null,
        "Canonical SMILES": "ClC=1C=C(Cl)C(Cl)=CC1Cl",
        "Molecular Formula": "C<sub>6</sub>H<sub>2</sub>Cl<sub>4</sub>",
        "Molecular Mass": "215.89",
        "Boiling Point": "244.5 °C",
        "Melting Point": "139.5 °C",
        "Density": "183.3 g/cm³"
    }
}