{
    "cas_no": "7351-61-3",
    "key_name": "3-(Trichlorosilyl)propyl methacrylate",
    "cn_name": null,
    "alternate_name": "2-Propenoic acid, 2-methyl-, 3-(trichlorosilyl)propyl ester;Methacrylic acid, 3-(trichlorosilyl)propyl ester;1-Propanol, 3-(trichlorosilyl)-, methacrylate;3-(Trichlorosilyl)propyl methacrylate;(γ-Methacryloxypropyl)trichlorosilane;(3-Methacryloxypropyl)trichlorosilane;(3-Methacryloyloxypropyl)trichlorosilane;Trichloro(3-methacryloxypropyl)silane;(γ-Methacryloyloxypropyl)trichlorosilane;3-Trichlorosilylpropyl 2-methylprop-2-enoate",
    "duplicated_cas_no": "",
    "SMILES": "O(CCC[Si](Cl)(Cl)Cl)C(C(C)=C)=O",
    "meta_data": {
        "InChI": "InChI=1S/C7H11Cl3O2Si/c1-6(2)7(11)12-4-3-5-13(8,9)10/h1,3-5H2,2H3",
        "InChIKey": null,
        "Canonical SMILES": "O=C(OCCC[Si](Cl)(Cl)Cl)C(=C)C",
        "Molecular Formula": "C<sub>7</sub>H<sub>11</sub>Cl<sub>3</sub>O<sub>2</sub>Si",
        "Molecular Mass": "261.61",
        "Boiling Point": "96-98 °C @ Press: 1 Torr",
        "Density": "1.251 g/cm³"
    }
}