{
    "cas_no": "71-33-0",
    "key_name": "1,3,5-Triazine-2,4(1<em>H</em>,3<em>H</em>)-dione",
    "cn_name": null,
    "alternate_name": "1,3,5-Triazine-2,4(1<em>H</em>,3<em>H</em>)-dione;<em>s</em>-Triazine-2,4(1<em>H</em>,3<em>H</em>)-dione;<em>s</em>-Triazine-2,4-diol;Allantoxaidin;Allantoxaidine;5-Azauracil;Oxaidin;NSC 56901;1<em>H</em>-[1,3,5]Triazine-2,4-dione;1,2,3,4-Tetrahydro-1,3,5-triazine-2,4-dione;1,3,5-Triazine-2,4-diol",
    "duplicated_cas_no": "541-78-6",
    "SMILES": "O=C1NC(=O)N=CN1",
    "meta_data": {
        "InChI": "InChI=1S/C3H3N3O2/c7-2-4-1-5-3(8)6-2/h1H,(H2,4,5,6,7,8)",
        "InChIKey": null,
        "Canonical SMILES": "O=C1N=CNC(=O)N1",
        "Molecular Formula": "C<sub>3</sub>H<sub>3</sub>N<sub>3</sub>O<sub>2</sub>",
        "Molecular Mass": "113.07",
        "Melting Point": "292-293 °C"
    }
}