{
    "cas_no": "118-97-8",
    "key_name": "4-Chloro-3,5-dinitrobenzoic acid",
    "cn_name": "4-氯-3,5-二硝基苯甲酸;",
    "alternate_name": "Benzoic acid, 4-chloro-3,5-dinitro-;4-Chloro-3,5-dinitrobenzoic acid;3,5-Dinitro-4-chlorobenzoic acid;NSC 76583;4-Chloro-3,5-dinitrobenzenecarboxylic acid",
    "duplicated_cas_no": "",
    "SMILES": "N(=O)(=O)C1=C(Cl)C(N(=O)=O)=CC(C(O)=O)=C1",
    "meta_data": {
        "InChI": "InChI=1S/C7H3ClN2O6/c8-6-4(9(13)14)1-3(7(11)12)2-5(6)10(15)16/h1-2H,(H,11,12)",
        "InChIKey": null,
        "Canonical SMILES": "O=C(O)C=1C=C(C(Cl)=C(C1)N(=O)=O)N(=O)=O",
        "Molecular Formula": "C<sub>7</sub>H<sub>3</sub>ClN<sub>2</sub>O<sub>6</sub>",
        "Molecular Mass": "246.56",
        "Boiling Point": "161.5 °C",
        "Melting Point": "161-163 °C"
    }
}