{
    "cas_no": "28442-78-6",
    "key_name": "2-Chloro-1,3-benzenedicarbonitrile",
    "cn_name": "2-氯-1,3-二氰基苯;",
    "alternate_name": "1,3-Benzenedicarbonitrile, 2-chloro-;Isophthalonitrile, 2-chloro-;2-Chloro-1,3-benzenedicarbonitrile;2-Chloroisophthalonitrile;2-Chloro-1,3-dicyanobenzene",
    "duplicated_cas_no": "",
    "SMILES": "C(#N)C1=C(Cl)C(C#N)=CC=C1",
    "meta_data": {
        "InChI": "InChI=1S/C8H3ClN2/c9-8-6(4-10)2-1-3-7(8)5-11/h1-3H",
        "InChIKey": null,
        "Canonical SMILES": "N#CC1=CC=CC(C#N)=C1Cl",
        "Molecular Formula": "C<sub>8</sub>H<sub>3</sub>ClN<sub>2</sub>",
        "Molecular Mass": "162.58",
        "Melting Point": "154-156 °C"
    }
}