{
    "cas_no": "13609-67-1",
    "key_name": "Hydrocortisone butyrate",
    "cn_name": "丁酸氢化可的松;",
    "alternate_name": "Pregn-4-ene-3,20-dione, 11,21-dihydroxy-17-(1-oxobutoxy)-, (11β)-;Cortisol, 17-butyrate;Butyric acid, 17-ester with cortisol;(11β)-11,21-Dihydroxy-17-(1-oxobutoxy)pregn-4-ene-3,20-dione;Hydrocortisone 17-butyrate;Hydrocortisone 17α-butyrate;Locoid;Hydrocortisone butyrate;4-Pregnene-11β,21-dihydroxy-17α-butyryloxy-3,20-dione;Alfason;Laticort;Plancol",
    "duplicated_cas_no": "82632-85-7",
    "SMILES": "O(C(CCC)=O)[C@@]1(C(CO)=O)[C@]2(C)[C@@](CC1)([C@]3([C@]([C@@H](O)C2)([C@]4(C)C(CC3)=CC(=O)CC4)[H])[H])[H]",
    "meta_data": {
        "InChI": "InChI=1S/C25H36O6/c1-4-5-21(30)31-25(20(29)14-26)11-9-18-17-7-6-15-12-16(27)8-10-23(15,2)22(17)19(28)13-24(18,25)3/h12,17-19,22,26,28H,4-11,13-14H2,1-3H3/t17-,18-,19-,22+,23-,24-,25-/m0/s1",
        "InChIKey": null,
        "Canonical SMILES": "O=C(OC1(C(=O)CO)CCC2C3CCC4=CC(=O)CCC4(C)C3C(O)CC21C)CCC",
        "Molecular Formula": "C<sub>25</sub>H<sub>36</sub>O<sub>6</sub>",
        "Molecular Mass": "432.55",
        "Melting Point": "217-220 °C"
    }
}