{
    "cas_no": "625-23-0",
    "key_name": "2-Methyl-2-hexanol",
    "cn_name": "2-甲基-2-己醇;1,1-二甲基-1-戊醇;",
    "alternate_name": "2-Hexanol, 2-methyl-;2-Methyl-2-hexanol;Butyldimethylcarbinol;2-Methyl-2-hydroxyhexane;1,1-Dimethyl-1-pentanol;NSC 21977",
    "duplicated_cas_no": "",
    "SMILES": "C(C(C)(C)O)CCC",
    "meta_data": {
        "InChI": "InChI=1S/C7H16O/c1-4-5-6-7(2,3)8/h8H,4-6H2,1-3H3",
        "InChIKey": null,
        "Canonical SMILES": "OC(C)(C)CCCC",
        "Molecular Formula": "C<sub>7</sub>H<sub>16</sub>O",
        "Molecular Mass": "116.20",
        "Boiling Point": "143 °C",
        "Melting Point": "62-63 °C",
        "Density": "0.8155 g/cm³"
    }
}