{
    "cas_no": "129-77-1",
    "key_name": "Piperidolate hydrochloride",
    "cn_name": "盐酸哌立度酯;",
    "alternate_name": "Benzeneacetic acid, α-phenyl-, 1-ethyl-3-piperidinyl ester, hydrochloride (1:1);Acetic acid, diphenyl-, 1-ethyl-3-piperidyl ester hydrochloride;Benzeneacetic acid, α-phenyl-, 1-ethyl-3-piperidinyl ester, hydrochloride;3-Piperidinol, 1-ethyl-, diphenylacetate (ester), hydrochloride;Dactil hydrochloride;Piperidolate hydrochloride;Crapinon;NSC 4349;1-Ethylpiperidin-3-yl 2,2-diphenylacetate hydrochloride",
    "duplicated_cas_no": "8055-12-7",
    "SMILES": "C(C(OC1CN(CC)CCC1)=O)(C2=CC=CC=C2)C3=CC=CC=C3.Cl",
    "meta_data": {
        "InChI": "InChI=1S/C21H25NO2.ClH/c1-2-22-15-9-14-19(16-22)24-21(23)20(17-10-5-3-6-11-17)18-12-7-4-8-13-18;/h3-8,10-13,19-20H,2,9,14-16H2,1H3;1H",
        "InChIKey": null,
        "Canonical SMILES": "Cl.O=C(OC1CN(CC)CCC1)C(C=2C=CC=CC2)C=3C=CC=CC3",
        "Molecular Formula": "C<sub>21</sub>H<sub>25</sub>NO<sub>2</sub>.ClH",
        "Molecular Mass": "",
        "Melting Point": "195-196 °C"
    }
}