{
    "cas_no": "103-09-3",
    "key_name": "2-Ethylhexyl acetate",
    "cn_name": "2-乙基己基乙酸酯;醋酸-2-乙基己酯;醋酸异辛酯;",
    "alternate_name": "Acetic acid, 2-ethylhexyl ester;1-Hexanol, 2-ethyl-, acetate;2-Ethylhexyl acetate;2-Ethyl-1-hexyl acetate;2-Ethyl-1-hexanol acetate;Octyl acetate;β-Ethylhexyl acetate;NSC 8897;OctASOLV",
    "duplicated_cas_no": "12261-98-2",
    "SMILES": "C(COC(C)=O)(CCCC)CC",
    "meta_data": {
        "InChI": "InChI=1S/C10H20O2/c1-4-6-7-10(5-2)8-12-9(3)11/h10H,4-8H2,1-3H3",
        "InChIKey": null,
        "Canonical SMILES": "O=C(OCC(CC)CCCC)C",
        "Molecular Formula": "C<sub>10</sub>H<sub>20</sub>O<sub>2</sub>",
        "Molecular Mass": "172.26",
        "Boiling Point": "199 °C",
        "Melting Point": "-80 °C",
        "Density": "0.8718 g/cm³ @ Temp: 20 °C"
    }
}