{
    "cas_no": "1423-27-4",
    "key_name": "2-Trifluoromethylphenylboronic acid",
    "cn_name": "2-(三氟甲基)苯硼酸;",
    "alternate_name": "Boronic acid, <em>B</em>-[2-(trifluoromethyl)phenyl]-;<em>o</em>-Tolueneboronic acid, α,α,α-trifluoro-;Boronic acid, [2-(trifluoromethyl)phenyl]-;<em>B</em>-[2-(Trifluoromethyl)phenyl]boronic acid;2-Trifluoromethylbenzeneboronic acid;2-Trifluoromethylphenylboronic acid",
    "duplicated_cas_no": "1695577-90-2;2093414-94-7",
    "SMILES": "C(F)(F)(F)C1=C(B(O)O)C=CC=C1",
    "meta_data": {
        "InChI": "InChI=1S/C7H6BF3O2/c9-7(10,11)5-3-1-2-4-6(5)8(12)13/h1-4,12-13H",
        "InChIKey": null,
        "Canonical SMILES": "FC(F)(F)C=1C=CC=CC1B(O)O",
        "Molecular Formula": "C<sub>7</sub>H<sub>6</sub>BF<sub>3</sub>O<sub>2</sub>",
        "Molecular Mass": "189.93",
        "Melting Point": "106-107 °C"
    }
}