{
    "cas_no": "624-76-0",
    "key_name": "Iodoethanol",
    "cn_name": "2-碘乙醇;",
    "alternate_name": "Ethanol, 2-iodo-;2-Iodoethanol;Iodoethanol;Ethylene iodohydrin;NSC 85227;2-Hydroxyethyl iodide;2-Iodoethan-1-ol",
    "duplicated_cas_no": "",
    "SMILES": "C(CO)I",
    "meta_data": {
        "InChI": "InChI=1S/C2H5IO/c3-1-2-4/h4H,1-2H2",
        "InChIKey": null,
        "Canonical SMILES": "ICCO",
        "Molecular Formula": "C<sub>2</sub>H<sub>5</sub>IO",
        "Molecular Mass": "171.96",
        "Boiling Point": "85-88 °C @ Press: 25 Torr",
        "Melting Point": "120 °C"
    }
}