{
    "cas_no": "2227-17-0",
    "key_name": "Dienochlor",
    "cn_name": "遍地克;",
    "alternate_name": "Bi-2,4-cyclopentadien-1-yl, 1,1′,2,2′,3,3′,4,4′,5,5′-decachloro-;Bi-2,4-cyclopentadien-1-yl, decachloro-;1,1′,2,2′,3,3′,4,4′,5,5′-Decachlorobi-2,4-cyclopentadien-1-yl;HRS 16;HRS 16A;HRS 1654;Bis(pentachloro-2,4-cyclopentadien-1-yl);Hooker HRS 16;Hooker HRS 1654;Pentac WP;Decachlor;Pentac;Pentac SP;Decachlorobi-2,4-cyclopentadien-1-yl;Dienochlor;Pentac AquaFlow;NSC 26106;NSC 41880;1,2,3,4,5-Pentachloro-5-(1,2,3,4,5-pentachlorocyclopenta-2,4-dien-1-yl)cyclopenta-1,3-diene",
    "duplicated_cas_no": "",
    "SMILES": "ClC1(C(Cl)=C(Cl)C(Cl)=C1Cl)C2(Cl)C(Cl)=C(Cl)C(Cl)=C2Cl",
    "meta_data": {
        "InChI": "InChI=1S/C10Cl10/c11-1-2(12)6(16)9(19,5(1)15)10(20)7(17)3(13)4(14)8(10)18",
        "InChIKey": null,
        "Canonical SMILES": "ClC=1C(Cl)=C(Cl)C(Cl)(C1Cl)C2(Cl)C(Cl)=C(Cl)C(Cl)=C2Cl",
        "Molecular Formula": "C<sub>10</sub>Cl<sub>10</sub>",
        "Molecular Mass": "474.64",
        "Melting Point": "122-123 °C"
    }
}