{
    "cas_no": "537-92-8",
    "key_name": "<em>N</em>-(3-Methylphenyl)acetamide",
    "cn_name": "N-乙酰基-3-甲苯胺;N-(3-甲苯基)乙酰胺;N-乙酰间甲苯胺;",
    "alternate_name": "Acetamide, <em>N</em>-(3-methylphenyl)-;<em>m</em>-Acetotoluidide;<em>N</em>-(3-Methylphenyl)acetamide;<em>m</em>-Acetotoluide;3-Methylacetanilide;<em>N</em>-<em>m</em>-Tolylacetamide;3-Acetamidotoluene;<em>N</em>-Acetyl-<em>m</em>-toluidine;<em>m</em>-Tolylacetamide;Aceto-<em>m</em>-aminotoluene;<em>m</em>-Methylacetanilide;3′-Methylacetanilide;1-Acetamido-3-methylbenzene;<em>N</em>-Acetyl-3-methylaniline;<em>m</em>-<em>N</em>-Acetyltoluidine;NSC 3103;<em>N</em>-(<em>m</em>-Tolyl)acetamide",
    "duplicated_cas_no": "",
    "SMILES": "N(C(C)=O)C1=CC(C)=CC=C1",
    "meta_data": {
        "InChI": "InChI=1S/C9H11NO/c1-7-4-3-5-9(6-7)10-8(2)11/h3-6H,1-2H3,(H,10,11)",
        "InChIKey": null,
        "Canonical SMILES": "O=C(NC1=CC=CC(=C1)C)C",
        "Molecular Formula": "C<sub>9</sub>H<sub>11</sub>NO",
        "Molecular Mass": "149.19",
        "Boiling Point": "303 °C",
        "Melting Point": "65.5 °C",
        "Density": "1.141 g/cm³ @ Temp: 15 °C"
    }
}