{
    "cas_no": "1469-73-4",
    "key_name": "Propylene sulfite",
    "cn_name": null,
    "alternate_name": "1,3,2-Dioxathiolane, 4-methyl-, 2-oxide;1,2-Propanediol, cyclic sulfite;Propylene sulfite;1,2-Propylene glycol sulfite;NSC 44145;NSC 525703;4-Methyl-2-oxo-1,3,2-dioxathiolane;4-Methyl-[1,3,2]dioxathiolane 2-oxide",
    "duplicated_cas_no": "",
    "SMILES": "CC1OS(=O)OC1",
    "meta_data": {
        "InChI": "InChI=1S/C3H6O3S/c1-3-2-5-7(4)6-3/h3H,2H2,1H3",
        "InChIKey": null,
        "Canonical SMILES": "O=S1OCC(O1)C",
        "Molecular Formula": "C<sub>3</sub>H<sub>6</sub>O<sub>3</sub>S",
        "Molecular Mass": "122.14",
        "Boiling Point": "92 °C @ Press: 40 Torr",
        "Density": "1.147 g/cm³ @ Temp: 25 °C"
    }
}