{
    "cas_no": "25905-77-5",
    "key_name": "Minaprine",
    "cn_name": null,
    "alternate_name": "4-Morpholineethanamine, <em>N</em>-(4-methyl-6-phenyl-3-pyridazinyl)-;<em>N</em>-(4-Methyl-6-phenyl-3-pyridazinyl)-4-morpholineethanamine;Minaprine;Mineprine",
    "duplicated_cas_no": "",
    "SMILES": "CC=1C=C(N=NC1NCCN2CCOCC2)C3=CC=CC=C3",
    "meta_data": {
        "InChI": "InChI=1S/C17H22N4O/c1-14-13-16(15-5-3-2-4-6-15)19-20-17(14)18-7-8-21-9-11-22-12-10-21/h2-6,13H,7-12H2,1H3,(H,18,20)",
        "InChIKey": null,
        "Canonical SMILES": "N=1N=C(NCCN2CCOCC2)C(=CC1C=3C=CC=CC3)C",
        "Molecular Formula": "C<sub>17</sub>H<sub>22</sub>N<sub>4</sub>O",
        "Molecular Mass": "298.38",
        "Melting Point": "122 °C"
    }
}