{
    "cas_no": "1732-10-1",
    "key_name": "Dimethyl azelate",
    "cn_name": "壬二酸二甲酯;",
    "alternate_name": "Nonanedioic acid, 1,9-dimethyl ester;Azelaic acid, dimethyl ester;Nonanedioic acid, dimethyl ester;Dimethyl azelate;Methyl azelate;Dimethyl nonanedioate;Dimethyl nonane-1,9-dioate;NSC 59040",
    "duplicated_cas_no": "141850-72-8",
    "SMILES": "C(CCCCCCCC(OC)=O)(OC)=O",
    "meta_data": {
        "InChI": "InChI=1S/C11H20O4/c1-14-10(12)8-6-4-3-5-7-9-11(13)15-2/h3-9H2,1-2H3",
        "InChIKey": null,
        "Canonical SMILES": "O=C(OC)CCCCCCCC(=O)OC",
        "Molecular Formula": "C<sub>11</sub>H<sub>20</sub>O<sub>4</sub>",
        "Molecular Mass": "216.27",
        "Boiling Point": "175 °C @ Press: 38 Torr",
        "Density": "1.0069 g/cm³ @ Temp: 20 °C"
    }
}