{
    "cas_no": "23843-64-3",
    "key_name": "Ureidopropyltrimethoxysilane",
    "cn_name": "3-脲丙基三甲氧基硅烷;",
    "alternate_name": "Urea, <em>N</em>-[3-(trimethoxysilyl)propyl]-;Urea, [3-(trimethoxysilyl)propyl]-;<em>N</em>-[3-(Trimethoxysilyl)propyl]urea;γ-Ureidopropyltrimethoxysilane;Ureidopropyltrimethoxysilane;3-Ureidopropyltrimethoxysilane;Y 11542;Silquest Y 11542;Unisil 17;A 1524;Silquest A 1524;U 17 (silane);U 17;A 11542;1-[3-(Trimethoxysilyl)propyl]urea;Geniosil GF 98;Dynasylan 2201;SIU 9058.0;KBM 585;KH 596;3-Trimethoxysilylpropylurea;Y 11468;SCA-U 60M;KH 593;KH 152;CG-A 116;GX 1524;KC 116;Z 6120",
    "duplicated_cas_no": "2379387-22-9",
    "SMILES": "[Si](CCCNC(N)=O)(OC)(OC)OC",
    "meta_data": {
        "InChI": "InChI=1S/C7H18N2O4Si/c1-11-14(12-2,13-3)6-4-5-9-7(8)10/h4-6H2,1-3H3,(H3,8,9,10)",
        "InChIKey": null,
        "Canonical SMILES": "O=C(N)NCCC[Si](OC)(OC)OC",
        "Molecular Formula": "C<sub>7</sub>H<sub>18</sub>N<sub>2</sub>O<sub>4</sub>Si",
        "Molecular Mass": "222.31",
        "Boiling Point": "217-225 °C",
        "Density": "1.150 g/cm³"
    }
}