{
    "cas_no": "7359-72-0",
    "key_name": "1,2,3-Trichloro-4-methylbenzene",
    "cn_name": "2,3,4-三氯甲苯;",
    "alternate_name": "Benzene, 1,2,3-trichloro-4-methyl-;Toluene, 2,3,4-trichloro-;1,2,3-Trichloro-4-methylbenzene;2,3,4-Trichlorotoluene",
    "duplicated_cas_no": "",
    "SMILES": "ClC1=C(Cl)C(Cl)=CC=C1C",
    "meta_data": {
        "InChI": "InChI=1S/C7H5Cl3/c1-4-2-3-5(8)7(10)6(4)9/h2-3H,1H3",
        "InChIKey": null,
        "Canonical SMILES": "ClC1=CC=C(C(Cl)=C1Cl)C",
        "Molecular Formula": "C<sub>7</sub>H<sub>5</sub>Cl<sub>3</sub>",
        "Molecular Mass": "195.47",
        "Boiling Point": "244 °C",
        "Melting Point": "43.5 °C"
    }
}