{
    "cas_no": "6246-46-4",
    "key_name": "Ursonic acid",
    "cn_name": "3-氧代-12-烯-28-乌苏酸;",
    "alternate_name": "Urs-12-en-28-oic acid, 3-oxo-;3-Oxours-12-en-28-oic acid;Ursonic acid;3-Ketoursolic acid",
    "duplicated_cas_no": "142382-35-2",
    "SMILES": "C(O)(=O)[C@]12[C@](C=3[C@@](C)(CC1)[C@@]4(C)[C@](CC3)([C@]5(C)[C@@](CC4)(C(C)(C)C(=O)CC5)[H])[H])([C@@H](C)[C@H](C)CC2)[H]",
    "meta_data": {
        "InChI": "InChI=1S/C30H46O3/c1-18-10-15-30(25(32)33)17-16-28(6)20(24(30)19(18)2)8-9-22-27(5)13-12-23(31)26(3,4)21(27)11-14-29(22,28)7/h8,18-19,21-22,24H,9-17H2,1-7H3,(H,32,33)/t18-,19+,21+,22-,24+,27+,28-,29-,30+/m1/s1",
        "InChIKey": null,
        "Canonical SMILES": "O=C(O)C12CCC(C)C(C)C2C3=CCC4C5(C)CCC(=O)C(C)(C)C5CCC4(C)C3(C)CC1",
        "Molecular Formula": "C<sub>30</sub>H<sub>46</sub>O<sub>3</sub>",
        "Molecular Mass": "454.68",
        "Melting Point": "284-285 °C"
    }
}