{
    "cas_no": "6812-78-8",
    "key_name": "Rhodinol",
    "cn_name": "(S)-3,7-二甲基-7-辛烯-1-醇;3,7-二甲基-7-辛烯醇;",
    "alternate_name": "7-Octen-1-ol, 3,7-dimethyl-, (3<em>S</em>)-;7-Octen-1-ol, 3,7-dimethyl-, (<em>S</em>)-;Rhodinol;(3<em>S</em>)-3,7-Dimethyl-7-octen-1-ol;α-Citronellol, (-)-;(-)-Rhodinol;(-)-α-Citronellol;(<em>S</em>)-α-Citronellol;(3S)-3,7-Dimethyloct-7-en-1-ol",
    "duplicated_cas_no": "",
    "SMILES": "[C@H](CCCC(C)=C)(CCO)C",
    "meta_data": {
        "InChI": "InChI=1S/C10H20O/c1-9(2)5-4-6-10(3)7-8-11/h10-11H,1,4-8H2,2-3H3/t10-/m0/s1",
        "InChIKey": null,
        "Canonical SMILES": "OCCC(C)CCCC(=C)C",
        "Molecular Formula": "C<sub>10</sub>H<sub>20</sub>O",
        "Molecular Mass": "156.27",
        "Boiling Point": "114.5 °C",
        "Melting Point": "&lt;25 °C",
        "Density": "0.864 g/cm³ @ Temp: 15 °C"
    }
}