{
    "cas_no": "39905-50-5",
    "key_name": "4-(Pentyloxy)benzenamine",
    "cn_name": null,
    "alternate_name": "Benzenamine, 4-(pentyloxy)-;Aniline, <em>p</em>-pentyloxy-;4-(Pentyloxy)benzenamine;<em>p</em>-(<em>n</em>-Pentoxy)aniline;4-(Pentyloxy)aniline;<em>p</em>-(Pentyloxy)aniline;4-Pentoxyaniline;<em>p</em>-Aminophenyl pentyl ether;4-Pentyloxyphenylamine",
    "duplicated_cas_no": "",
    "SMILES": "O(CCCCC)C1=CC=C(N)C=C1",
    "meta_data": {
        "InChI": "InChI=1S/C11H17NO/c1-2-3-4-9-13-11-7-5-10(12)6-8-11/h5-8H,2-4,9,12H2,1H3",
        "InChIKey": null,
        "Canonical SMILES": "O(C1=CC=C(N)C=C1)CCCCC",
        "Molecular Formula": "C<sub>11</sub>H<sub>17</sub>NO",
        "Molecular Mass": "179.26",
        "Boiling Point": "180 °C @ Press: 24 Torr"
    }
}