{
    "cas_no": "127-42-4",
    "key_name": "(1<em>E</em>)-1-[(1<em>R</em>)-2,6,6-Trimethyl-2-cyclohexen-1-yl]-1-penten-3-one",
    "cn_name": "α-甲基紫罗兰酮;鸢尾酮;",
    "alternate_name": "1-Penten-3-one, 1-[(1<em>R</em>)-2,6,6-trimethyl-2-cyclohexen-1-yl]-, (1<em>E</em>)-;1-Penten-3-one, 1-(2,6,6-trimethyl-2-cyclohexen-1-yl)-, [<em>R</em>-(<em>E</em>)]-;(1<em>E</em>)-1-[(1<em>R</em>)-2,6,6-Trimethyl-2-cyclohexen-1-yl]-1-penten-3-one;Methyl-α-ionone;(+)-α-Methylionone;(<em>R</em>,<em>E</em>)-1-(2,6,6-Trimethylcyclohex-2-en-1-yl)pent-1-en-3-one",
    "duplicated_cas_no": "1322-70-9",
    "SMILES": "C(=C/C(CC)=O)\\[C@@H]1C(C)(C)CCC=C1C",
    "meta_data": {
        "InChI": "InChI=1S/C14H22O/c1-5-12(15)8-9-13-11(2)7-6-10-14(13,3)4/h7-9,13H,5-6,10H2,1-4H3/b9-8+/t13-/m0/s1",
        "InChIKey": null,
        "Canonical SMILES": "O=C(C=CC1C(=CCCC1(C)C)C)CC",
        "Molecular Formula": "C<sub>14</sub>H<sub>22</sub>O",
        "Molecular Mass": "206.32",
        "Boiling Point": "238 °C"
    }
}