{
    "cas_no": "86386-77-8",
    "key_name": "1<em>H</em>-1,2,4-Triazole, 1-[[2-(2,4-difluorophenyl)-2-oxiranyl]methyl]-, methanesulfonate (1:1)",
    "cn_name": null,
    "alternate_name": "1<em>H</em>-1,2,4-Triazole, 1-[[2-(2,4-difluorophenyl)-2-oxiranyl]methyl]-, methanesulfonate (1:1);1<em>H</em>-1,2,4-Triazole, 1-[[2-(2,4-difluorophenyl)oxiranyl]methyl]-, monomethanesulfonate;2-(2,4-Difluorophenyl)-2,3-epoxy-1-(1<em>H</em>-1,2,4-triazol-1-yl)propane methanesulfonate salt;2-(2,4-Difluorophenyl)-2-((1<em>H</em>-1,2,4-triazol-1-yl)methyl)oxirane methanesulfonate",
    "duplicated_cas_no": "",
    "SMILES": "C(C1(CO1)C2=C(F)C=C(F)C=C2)N3C=NC=N3.S(C)(=O)(=O)O",
    "meta_data": {
        "InChI": "InChI=1S/C11H9F2N3O.CH4O3S/c12-8-1-2-9(10(13)3-8)11(5-17-11)4-16-7-14-6-15-16;1-5(2,3)4/h1-3,6-7H,4-5H2;1H3,(H,2,3,4)",
        "InChIKey": null,
        "Canonical SMILES": "O=S(=O)(O)C.FC1=CC=C(C(F)=C1)C2(OC2)CN3N=CN=C3",
        "Molecular Formula": "C<sub>11</sub>H<sub>9</sub>F<sub>2</sub>N<sub>3</sub>O.CH<sub>4</sub>O<sub>3</sub>S",
        "Molecular Mass": "",
        "Melting Point": "192-194 °C"
    }
}