{
    "cas_no": "50257-39-1",
    "key_name": "1-[(2,4,6-Trimethylphenyl)sulfonyl]-1<em>H</em>-imidazole",
    "cn_name": null,
    "alternate_name": "1<em>H</em>-Imidazole, 1-[(2,4,6-trimethylphenyl)sulfonyl]-;1-[(2,4,6-Trimethylphenyl)sulfonyl]-1<em>H</em>-imidazole;NSC 240873;1-(2,4,6-Trimethylphenyl)sulfonylimidazole;1-(Mesitylsulfonyl)-1<em>H</em>-imidazole",
    "duplicated_cas_no": "",
    "SMILES": "S(=O)(=O)(C1=C(C)C=C(C)C=C1C)N2C=CN=C2",
    "meta_data": {
        "InChI": "InChI=1S/C12H14N2O2S/c1-9-6-10(2)12(11(3)7-9)17(15,16)14-5-4-13-8-14/h4-8H,1-3H3",
        "InChIKey": null,
        "Canonical SMILES": "O=S(=O)(C=1C(=CC(=CC1C)C)C)N2C=NC=C2",
        "Molecular Formula": "C<sub>12</sub>H<sub>14</sub>N<sub>2</sub>O<sub>2</sub>S",
        "Molecular Mass": "250.32",
        "Melting Point": "99-101 °C"
    }
}