{
    "cas_no": "19788-36-4",
    "key_name": "3,5-Dimethyl-4-isoxazolemethanol",
    "cn_name": null,
    "alternate_name": "4-Isoxazolemethanol, 3,5-dimethyl-;3,5-Dimethyl-4-isoxazolemethanol;NSC 151752;(3,5-Dimethylisoxazol-4-yl)methanol;(3,5-Dimethyl-1,2-oxazol-4-yl)methanol;(Dimethyl-1,2-oxazol-4-yl)methanol",
    "duplicated_cas_no": "",
    "SMILES": "C(O)C=1C(C)=NOC1C",
    "meta_data": {
        "InChI": "InChI=1S/C6H9NO2/c1-4-6(3-8)5(2)9-7-4/h8H,3H2,1-2H3",
        "InChIKey": null,
        "Canonical SMILES": "OCC=1C(=NOC1C)C",
        "Molecular Formula": "C<sub>6</sub>H<sub>9</sub>NO<sub>2</sub>",
        "Molecular Mass": "127.14",
        "Melting Point": "73-74 °C"
    }
}