{
    "cas_no": "2392-39-4",
    "key_name": "Dexamethasone sodium phosphate",
    "cn_name": "地塞米松磷酸钠;16alpha-甲基-11beta,17alpha,21-三羟基-9alpha-氟孕甾-1,4-二烯-3,20-二酮-21-磷酸酯二钠;",
    "alternate_name": "Pregna-1,4-diene-3,20-dione, 9-fluoro-11,17-dihydroxy-16-methyl-21-(phosphonooxy)-, sodium salt (1:2), (11β,16α)-;Pregna-1,4-diene-3,20-dione, 9-fluoro-11β,17,21-trihydroxy-16α-methyl-, 21-(dihydrogen phosphate) disodium salt;Pregna-1,4-diene-3,20-dione, 9-fluoro-11,17-dihydroxy-16-methyl-21-(phosphonooxy)-, disodium salt, (11β,16α)-;Pregna-1,4-diene-3,20-dione, 9-fluoro-11β,17,21-trihydroxy-16α-methyl-, 21-phosphate disodium salt;Dexamethasone disodium phosphate;Dexamethasone 21-(disodium phosphate);Dexamethasone phosphate disodium salt;Disodium dexamethasone 21-monophosphate;Disodium dexamethasone phosphate;Dexamethasone sodium phosphate;Dexamethasone 21-phosphate disodium salt;Dexamethasone phosphate sodium salt;Solu-Decadron;Disodium dexamethasone 21-phosphate;Dexamethazone sodium phosphate;Decadron phosphate;Dexadreson;Dexagro;Megacort;Soldesam;Spersadex;Turbinaire;Sodium dexamethasone phosphate;Dexacort;Corson;Decdan;Dexagel;Corson (pharmaceutical);Solu-Deca;Dezone;Dexabene;Baldex;Orgadrone;Ak-Dex;Colvasone;Maxidex Ointment;Dalalone;Onadron;Desashock",
    "duplicated_cas_no": "55203-24-2;2588541-26-6",
    "SMILES": "C[C@@]12[C@]([C@]3([C@@](F)([C@]4(C)C(CC3)=CC(=O)C=C4)[C@@H](O)C1)[H])(C[C@@H](C)[C@@]2(C(COP(=O)(O)O)=O)O)[H].[Na]",
    "meta_data": {
        "InChI": "InChI=1S/C22H30FO8P.2Na/c1-12-8-16-15-5-4-13-9-14(24)6-7-19(13,2)21(15,23)17(25)10-20(16,3)22(12,27)18(26)11-31-32(28,29)30;;/h6-7,9,12,15-17,25,27H,4-5,8,10-11H2,1-3H3,(H2,28,29,30);;/t12-,15+,16+,17+,19+,20+,21+,22+;;/m1../s1",
        "InChIKey": null,
        "Canonical SMILES": "[Na].O=C1C=CC2(C(=C1)CCC3C4CC(C)C(O)(C(=O)COP(=O)(O)O)C4(C)CC(O)C32F)C",
        "Molecular Formula": "C<sub>22</sub>H<sub>30</sub>FO<sub>8</sub>P.2Na",
        "Molecular Mass": "",
        "Melting Point": "233-235 °C"
    }
}