{
    "cas_no": "326-91-0",
    "key_name": "Thenoyltrifluoroacetone",
    "cn_name": "2-噻吩甲酰三氟丙酮;",
    "alternate_name": "1,3-Butanedione, 4,4,4-trifluoro-1-(2-thienyl)-;4,4,4-Trifluoro-1-(2-thienyl)-1,3-butanedione;2-Thenoyltrifluoroacetone;TTA;TTB;Thenoyltrifluoroacetone;1-Thenoyl-3,3,3-trifluoroacetone;1,1,1-Trifluoro-4-(2-thienyl)-2,4-butanedione;1,1,1-Trifluoro-3-(2-thenoyl)acetone;α-Thenoyltrifluoroacetone;3,3,3-Trifluoro-1-(2-thenoyl)acetone;TTFA;TTA (extractant);Thenoyltrifluoroacetylacetone;3-(2-Thienoyl)-1,1,1-trifluoroacetone;NSC 405702;NSC 405703;NSC 405704;NSC 405705;NSC 405706;NSC 66544;4-(2-Thienyl)-1,1,1-trifluoro-2,4-butanedione;2-(4,4,4-Trifluoroacetoacetyl)thiophene;1-(2-Thienyl)-4,4,4-trifluorobutane-1,3-dione;1-(2-Thienyl)-4,4,4-trifluoro-1,3-butanedione;4,4,4-Trifluoro-1-(thiophen-2-yl)butane-1,3-dione;MeSH ID: D013804",
    "duplicated_cas_no": "365439-57-2;2122854-03-7",
    "SMILES": "C(CC(C(F)(F)F)=O)(=O)C1=CC=CS1",
    "meta_data": {
        "InChI": "InChI=1S/C8H5F3O2S/c9-8(10,11)7(13)4-5(12)6-2-1-3-14-6/h1-3H,4H2",
        "InChIKey": null,
        "Canonical SMILES": "O=C(C=1SC=CC1)CC(=O)C(F)(F)F",
        "Molecular Formula": "C<sub>8</sub>H<sub>5</sub>F<sub>3</sub>O<sub>2</sub>S",
        "Molecular Mass": "222.18",
        "Boiling Point": "96-98 °C",
        "Melting Point": "42 °C"
    }
}