{
    "cas_no": "4480-83-5",
    "key_name": "Diglycolic anhydride",
    "cn_name": "二甘醇酐;1,4-二氧杂六环-2,6-二酮;",
    "alternate_name": "1,4-Dioxane-2,6-dione;Diglycolic anhydride;Acetic acid, oxydi-, cyclic anhydride;<em>p</em>-Dioxane-2,6-dione;Diglycolic acid anhydride;Acetic acid, 2,2′-oxybis-, cyclic anhydride;Oxydiacetic anhydride;3-Oxaglutaric anhydride",
    "duplicated_cas_no": "",
    "SMILES": "O=C1OC(=O)COC1",
    "meta_data": {
        "InChI": "InChI=1S/C4H4O4/c5-3-1-7-2-4(6)8-3/h1-2H2",
        "InChIKey": null,
        "Canonical SMILES": "O=C1OC(=O)COC1",
        "Molecular Formula": "C<sub>4</sub>H<sub>4</sub>O<sub>4</sub>",
        "Molecular Mass": "116.07",
        "Boiling Point": "140 °C @ Press: 35 Torr",
        "Melting Point": "91-93 °C"
    }
}