{
    "cas_no": "84803-56-5",
    "key_name": "4-(2-Methoxyethyl)benzenamine",
    "cn_name": null,
    "alternate_name": "Benzenamine, 4-(2-methoxyethyl)-;Aniline, <em>p</em>-2-methoxyethyl-;4-(2-Methoxyethyl)benzenamine;<em>p</em>-(2-Methoxyethyl)aniline;1-Methoxy-2-(4-aminophenyl)ethane;4-(2-Methoxyethyl)phenylamine",
    "duplicated_cas_no": "",
    "SMILES": "C(COC)C1=CC=C(N)C=C1",
    "meta_data": {
        "InChI": "InChI=1S/C9H13NO/c1-11-7-6-8-2-4-9(10)5-3-8/h2-5H,6-7,10H2,1H3",
        "InChIKey": null,
        "Canonical SMILES": "O(C)CCC1=CC=C(N)C=C1",
        "Molecular Formula": "C<sub>9</sub>H<sub>13</sub>NO",
        "Molecular Mass": "151.21",
        "Boiling Point": "111-114 °C @ Press: 8 Torr"
    }
}