{
    "cas_no": "141-63-9",
    "key_name": "Dodecamethylpentasiloxane",
    "cn_name": "十二甲基五硅氧烷;",
    "alternate_name": "Pentasiloxane, 1,1,1,3,3,5,5,7,7,9,9,9-dodecamethyl-;Pentasiloxane, dodecamethyl-;1,1,1,3,3,5,5,7,7,9,9,9-Dodecamethylpentasiloxane;Dodecamethylpentasiloxane;DC 200 Fluid 2;KF 96L2CS;PSF 2CST;PSF 2Cst Pure Silicone Fluid;MD 3M",
    "duplicated_cas_no": "",
    "SMILES": "O([Si](O[Si](O[Si](C)(C)C)(C)C)(C)C)[Si](O[Si](C)(C)C)(C)C",
    "meta_data": {
        "InChI": "InChI=1S/C12H36O4Si5/c1-17(2,3)13-19(7,8)15-21(11,12)16-20(9,10)14-18(4,5)6/h1-12H3",
        "InChIKey": null,
        "Canonical SMILES": "O([Si](O[Si](O[Si](C)(C)C)(C)C)(C)C)[Si](O[Si](C)(C)C)(C)C",
        "Molecular Formula": "C<sub>12</sub>H<sub>36</sub>O<sub>4</sub>Si<sub>5</sub>",
        "Molecular Mass": "384.84",
        "Boiling Point": "232 °C",
        "Melting Point": "-80 °C",
        "Density": "0.876 g/cm³"
    }
}