{
    "cas_no": "69120-07-6",
    "key_name": "7-(6-Hydroxy-2-benzofuranyl)-2,2-dimethyl-2<em>H</em>-1-benzopyran-5-ol",
    "cn_name": null,
    "alternate_name": "2<em>H</em>-1-Benzopyran-5-ol, 7-(6-hydroxy-2-benzofuranyl)-2,2-dimethyl-;7-(6-Hydroxy-2-benzofuranyl)-2,2-dimethyl-2<em>H</em>-1-benzopyran-5-ol;Moracin D",
    "duplicated_cas_no": "",
    "SMILES": "OC1=C2C(=CC(=C1)C=3OC=4C(C3)=CC=C(O)C4)OC(C)(C)C=C2",
    "meta_data": {
        "InChI": "InChI=1S/C19H16O4/c1-19(2)6-5-14-15(21)7-12(9-18(14)23-19)16-8-11-3-4-13(20)10-17(11)22-16/h3-10,20-21H,1-2H3",
        "InChIKey": null,
        "Canonical SMILES": "OC=1C=CC=2C=C(OC2C1)C=3C=C(O)C=4C=CC(OC4C3)(C)C",
        "Molecular Formula": "C<sub>19</sub>H<sub>16</sub>O<sub>4</sub>",
        "Molecular Mass": "308.33",
        "Melting Point": "122-124 °C"
    }
}