{
    "cas_no": "125-46-2",
    "key_name": "Usnic acid",
    "cn_name": "2,6-二乙酰基-7,9-二羟基-8,9B-二甲基-1,3(2H,9BH)-氧芴;",
    "alternate_name": "1,3(2<em>H</em>,9b<em>H</em>)-Dibenzofurandione, 2,6-diacetyl-7,9-dihydroxy-8,9b-dimethyl-;Usnic acid;2,6-Diacetyl-7,9-dihydroxy-8,9b-dimethyl-1,3(2<em>H</em>,9b<em>H</em>)-dibenzofurandione;Usno;Usnein;Usniacin;(±)-Usnic acid;NSC 8517;2,6-Diacetyl-7,9-dihydroxy-8,9b-dimethyldibenzo[<em>b</em>,<em>d</em>]furan-1,3(2<em>H</em>,9b<em>H</em>)-dione;2,6-Diacetyl-7,9-dihydroxy-8,9b-dimethyldibenzofuran-1,3-dione",
    "duplicated_cas_no": "596-41-8;11024-93-4;1946-70-9;510-03-2",
    "SMILES": "CC12C=3C(OC1=CC(=O)C(C(C)=O)C2=O)=C(C(C)=O)C(O)=C(C)C3O",
    "meta_data": {
        "InChI": "InChI=1S/C18H16O7/c1-6-14(22)12(8(3)20)16-13(15(6)23)18(4)10(25-16)5-9(21)11(7(2)19)17(18)24/h5,11,22-23H,1-4H3",
        "InChIKey": null,
        "Canonical SMILES": "O=C(C=1C(O)=C(C(O)=C2C1OC3=CC(=O)C(C(=O)C)C(=O)C32C)C)C",
        "Molecular Formula": "C<sub>18</sub>H<sub>16</sub>O<sub>7</sub>",
        "Molecular Mass": "344.32",
        "Melting Point": "204 °C"
    }
}