{
    "cas_no": "7442-07-1",
    "key_name": "6-Amino-2-mercaptobenzothiazole",
    "cn_name": "6-氨基-2-巯基苯并噻唑;",
    "alternate_name": "2(3<em>H</em>)-Benzothiazolethione, 6-amino-;2-Benzothiazolethiol, 6-amino-;Benzothiazole, 6-amino-2-mercapto-;6-Amino-2(3<em>H</em>)-benzothiazolethione;6-Amino-2-mercaptobenzothiazole;6-Amino-2-benzothiazolethiol;6-Amino-2-benzothiazolinethione;6-Amino-1,3-benzothiazole-2-thiol;NSC 45347;NSC 7916;6-Amino-1,3-benzothiazole-2(3<em>H</em>)-thione;2-Mercaptobenzothiazol-6-amine",
    "duplicated_cas_no": "",
    "SMILES": "S=C1NC=2C(S1)=CC(N)=CC2",
    "meta_data": {
        "InChI": "InChI=1S/C7H6N2S2/c8-4-1-2-5-6(3-4)11-7(10)9-5/h1-3H,8H2,(H,9,10)",
        "InChIKey": null,
        "Canonical SMILES": "S=C1SC2=CC(N)=CC=C2N1",
        "Molecular Formula": "C<sub>7</sub>H<sub>6</sub>N<sub>2</sub>S<sub>2</sub>",
        "Molecular Mass": "182.27",
        "Melting Point": "260-262 °C"
    }
}