{
    "cas_no": "94-48-4",
    "key_name": "Geranyl benzoate",
    "cn_name": "(E)-3,7-二甲基-2,6-辛二烯-1-醇苯甲酸酯;",
    "alternate_name": "2,6-Octadien-1-ol, 3,7-dimethyl-, 1-benzoate, (2<em>E</em>)-;2,6-Octadien-1-ol, 3,7-dimethyl-, benzoate, (<em>E</em>)-;2,6-Octadien-1-ol, 3,7-dimethyl-, benzoate, (2<em>E</em>)-;Benzoic acid geraniol ester;<em>trans</em>-3,7-Dimethyl-2,6-octadienyl benzoate;Geraniol benzoate;Geranyl benzoate;3,7-Dimethyl-2,6-octadienyl benzoate;(E)-3,7-Dimethylocta-2,6-dien-1-yl benzoate",
    "duplicated_cas_no": "1911638-24-8",
    "SMILES": "C(OC/C=C(/CCC=C(C)C)\\C)(=O)C1=CC=CC=C1",
    "meta_data": {
        "InChI": "InChI=1S/C17H22O2/c1-14(2)8-7-9-15(3)12-13-19-17(18)16-10-5-4-6-11-16/h4-6,8,10-12H,7,9,13H2,1-3H3/b15-12+",
        "InChIKey": null,
        "Canonical SMILES": "O=C(OCC=C(C)CCC=C(C)C)C=1C=CC=CC1",
        "Molecular Formula": "C<sub>17</sub>H<sub>22</sub>O<sub>2</sub>",
        "Molecular Mass": "258.36",
        "Boiling Point": "180-183 °C @ Press: 8 Torr"
    }
}