{
    "cas_no": "19256-31-6",
    "key_name": "1,1-Diethoxy-3-phenyl-2-propanone",
    "cn_name": null,
    "alternate_name": "2-Propanone, 1,1-diethoxy-3-phenyl-;Pyruvaldehyde, phenyl-, 1-(diethyl acetal);Pyruvaldehyde, phenyl-, diethyl acetal;1,1-Diethoxy-3-phenyl-2-propanone;1,1-Diethoxy-3-phenylacetone",
    "duplicated_cas_no": "",
    "SMILES": "C(C(C(OCC)OCC)=O)C1=CC=CC=C1",
    "meta_data": {
        "InChI": "InChI=1S/C13H18O3/c1-3-15-13(16-4-2)12(14)10-11-8-6-5-7-9-11/h5-9,13H,3-4,10H2,1-2H3",
        "InChIKey": null,
        "Canonical SMILES": "O=C(CC=1C=CC=CC1)C(OCC)OCC",
        "Molecular Formula": "C<sub>13</sub>H<sub>18</sub>O<sub>3</sub>",
        "Molecular Mass": "222.28",
        "Boiling Point": "107-110 °C @ Press: 0.3 Torr",
        "Density": "1.0170 g/cm³ @ Temp: 25 °C"
    }
}