{
    "cas_no": "405-51-6",
    "key_name": "4-Fluorophenyl acetate",
    "cn_name": "4-氟苯基醋酸酯;",
    "alternate_name": "Phenol, 4-fluoro-, 1-acetate;Phenol, <em>p</em>-fluoro-, acetate;Phenol, 4-fluoro-, acetate;<em>p</em>-Fluorophenyl acetate;4-Fluorophenyl acetate;1-Acetoxy-4-fluorobenzene",
    "duplicated_cas_no": "",
    "SMILES": "O(C(C)=O)C1=CC=C(F)C=C1",
    "meta_data": {
        "InChI": "InChI=1S/C8H7FO2/c1-6(10)11-8-4-2-7(9)3-5-8/h2-5H,1H3",
        "InChIKey": null,
        "Canonical SMILES": "O=C(OC1=CC=C(F)C=C1)C",
        "Molecular Formula": "C<sub>8</sub>H<sub>7</sub>FO<sub>2</sub>",
        "Molecular Mass": "154.14",
        "Boiling Point": "61 °C @ Press: 2 Torr"
    }
}