{
    "cas_no": "57-96-5",
    "key_name": "Sulfinpyrazone",
    "cn_name": "苯磺保泰松;苯磺唑酮;磺吡拉宗;磺吡酮;1,2-二苯基-4-(2-(苯亚磺酰)乙基)-3,5-吡唑烷二酮;",
    "alternate_name": "3,5-Pyrazolidinedione, 1,2-diphenyl-4-[2-(phenylsulfinyl)ethyl]-;1,2-Diphenyl-4-[2-(phenylsulfinyl)ethyl]-3,5-pyrazolidinedione;G 28315;Anturan;Anturane;1,2-Diphenyl-4-(2′-phenylsulfinethyl)-3,5-pyrazolidinedione;Diphenylpyrazone;4-(Phenylsulfoxyethyl)-1,2-diphenyl-3,5-pyrazolidinedione;Sulfinpyrazone;Sulfoxyphenylpyrazolidine;Sulphinpyrazone;Sulfinpyrazon;Anturanil;Anturen;Anturidin;Enturan;Enturen;NSC 75925;MeSH ID: D013442",
    "duplicated_cas_no": "158920-43-5",
    "SMILES": "O=C1N(N(C(=O)C1CCS(=O)C2=CC=CC=C2)C3=CC=CC=C3)C4=CC=CC=C4",
    "meta_data": {
        "InChI": "InChI=1S/C23H20N2O3S/c26-22-21(16-17-29(28)20-14-8-3-9-15-20)23(27)25(19-12-6-2-7-13-19)24(22)18-10-4-1-5-11-18/h1-15,21H,16-17H2",
        "InChIKey": null,
        "Canonical SMILES": "O=C1N(C=2C=CC=CC2)N(C=3C=CC=CC3)C(=O)C1CCS(=O)C=4C=CC=CC4",
        "Molecular Formula": "C<sub>23</sub>H<sub>20</sub>N<sub>2</sub>O<sub>3</sub>S",
        "Molecular Mass": "404.48",
        "Melting Point": "136-137 °C"
    }
}