{
    "cas_no": "591-49-1",
    "key_name": "1-Methylcyclohexene",
    "cn_name": null,
    "alternate_name": "Cyclohexene, 1-methyl-;1-Methylcyclohexene;α-Methylcyclohexene;2-Methylcyclohexene;NSC 66539",
    "duplicated_cas_no": "",
    "SMILES": "CC=1CCCCC1",
    "meta_data": {
        "InChI": "InChI=1S/C7H12/c1-7-5-3-2-4-6-7/h5H,2-4,6H2,1H3",
        "InChIKey": null,
        "Canonical SMILES": "C1=C(C)CCCC1",
        "Molecular Formula": "C<sub>7</sub>H<sub>12</sub>",
        "Molecular Mass": "96.17",
        "Boiling Point": "110.3 °C",
        "Melting Point": "-120.4 °C",
        "Density": "0.8063 g/cm³ @ Temp: 18 °C"
    }
}