{
    "cas_no": "403-43-0",
    "key_name": "4-Fluorobenzoyl chloride",
    "cn_name": "对氟苯甲酰氯;",
    "alternate_name": "Benzoyl chloride, 4-fluoro-;Benzoyl chloride, <em>p</em>-fluoro-;4-Fluorobenzoyl chloride;<em>p</em>-Fluorobenzoyl chloride;<em>p</em>-Fluorobenzoic acid chloride;4-Fluorobenzenecarbonyl chloride;4-Fluorobenzoic acid chloride;NSC 88305",
    "duplicated_cas_no": "1350454-32-8",
    "SMILES": "C(Cl)(=O)C1=CC=C(F)C=C1",
    "meta_data": {
        "InChI": "InChI=1S/C7H4ClFO/c8-7(10)5-1-3-6(9)4-2-5/h1-4H",
        "InChIKey": null,
        "Canonical SMILES": "O=C(Cl)C1=CC=C(F)C=C1",
        "Molecular Formula": "C<sub>7</sub>H<sub>4</sub>ClFO",
        "Molecular Mass": "158.56",
        "Boiling Point": "191-192 °C",
        "Melting Point": "9 °C"
    }
}