{
    "cas_no": "7787-71-5",
    "key_name": "Bromine trifluoride",
    "cn_name": "三氟化溴;",
    "alternate_name": "Bromine fluoride (BrF<sub>3</sub>);Bromine trifluoride",
    "duplicated_cas_no": "12524-63-9",
    "SMILES": "Br(F)(F)F",
    "meta_data": {
        "InChI": "InChI=1S/BrF3/c2-1(3)4",
        "InChIKey": null,
        "Canonical SMILES": "FBr(F)F",
        "Molecular Formula": "BrF<sub>3</sub>",
        "Molecular Mass": "136.90",
        "Boiling Point": "125.75 °C",
        "Melting Point": "8.77 °C",
        "Density": "2.8030 g/cm³ @ Temp: 25 °C"
    }
}