{
    "cas_no": "4733-39-5",
    "key_name": "Bathocuproine",
    "cn_name": "2,9-二甲基-4,7-联苯-1,10-邻二氮杂菲;",
    "alternate_name": "1,10-Phenanthroline, 2,9-dimethyl-4,7-diphenyl-;2,9-Dimethyl-4,7-diphenyl-1,10-phenanthroline;Bathocuproine;Bathocuproin;4,7-Diphenyl-2,9-dimethyl-1,10-phenanthroline;BCP (dye);BCP;NSC 89195;2,9-Dimethyl-4,7-diaphenyl-1,10-phenanthroline;2,9-Dimethyl-4,7-diphenylphenanthroline;LT-E 304",
    "duplicated_cas_no": "",
    "SMILES": "CC1=NC2=C3C(C(=CC(C)=N3)C4=CC=CC=C4)=CC=C2C(=C1)C5=CC=CC=C5",
    "meta_data": {
        "InChI": "InChI=1S/C26H20N2/c1-17-15-23(19-9-5-3-6-10-19)21-13-14-22-24(20-11-7-4-8-12-20)16-18(2)28-26(22)25(21)27-17/h3-16H,1-2H3",
        "InChIKey": null,
        "Canonical SMILES": "N=1C(=CC(C=2C=CC=CC2)=C3C=CC4=C(N=C(C=C4C=5C=CC=CC5)C)C13)C",
        "Molecular Formula": "C<sub>26</sub>H<sub>20</sub>N<sub>2</sub>",
        "Molecular Mass": "360.45",
        "Melting Point": "&gt;275 °C (decomp)"
    }
}