{
    "cas_no": "70-11-1",
    "key_name": "Phenacyl bromide",
    "cn_name": "2-溴苯乙酮;alpha-溴代苯乙酮;",
    "alternate_name": "Ethanone, 2-bromo-1-phenyl-;Acetophenone, 2-bromo-;Acetophenone, α-bromo-;2-Bromo-1-phenylethanone;α-Bromoacetophenone;ω-Bromoacetophenone;Phenacyl bromide;Stauffer 4644;2-Bromacetophenone;Bromomethyl phenyl ketone;ω-Bromacetophenone;2-Bromoacetophenone;2-Bromo-1-phenylethan-1-one;Benzoylmethyl bromide;β-Bromoacetophenone;Phenyl bromomethyl ketone;Bromoacetophenone;NSC 9807;1-Bromo-2-phenylethan-2-one;1-Phenyl-2-bromoethanone;2-Phenyl-2-oxoethyl bromide",
    "duplicated_cas_no": "",
    "SMILES": "C(CBr)(=O)C1=CC=CC=C1",
    "meta_data": {
        "InChI": "InChI=1S/C8H7BrO/c9-6-8(10)7-4-2-1-3-5-7/h1-5H,6H2",
        "InChIKey": null,
        "Canonical SMILES": "O=C(C=1C=CC=CC1)CBr",
        "Molecular Formula": "C<sub>8</sub>H<sub>7</sub>BrO",
        "Molecular Mass": "199.04",
        "Boiling Point": "135 °C",
        "Melting Point": "50.5 °C"
    }
}