{
    "cas_no": "55-91-4",
    "key_name": "Diisopropyl fluorophosphate",
    "cn_name": "氟磷酸二异丙酯;丙氟磷;异丙氟;二异丙基氟磷酸酯;",
    "alternate_name": "Phosphorofluoridic acid, bis(1-methylethyl) ester;Phosphorofluoridic acid, diisopropyl ester;Diflupyl;Diisopropoxyphosphoryl fluoride;Diisopropyl phosphofluoridate;Diisopropyl phosphorofluoridate;Dyflos;Floropryl;Fluorodiisopropyl phosphate;Isoflurophate;Diisopropyl fluorophosphate;Isopropyl fluophosphate ((C<sub>3</sub>H<sub>7</sub>O)<sub>2</sub>FPO);Isopropyl phosphorofluoridate ((C<sub>3</sub>H<sub>7</sub>O)<sub>2</sub>FPO);Fluostigmine;DFP (pesticide);Difluorophate;DFP;Neoglaucit;DFF;<em>O</em>,<em>O</em>-Diisopropyl phosphorofluoridate;MeSH ID: D007531",
    "duplicated_cas_no": "37209-35-1",
    "SMILES": "O(P(OC(C)C)(F)=O)C(C)C",
    "meta_data": {
        "InChI": "InChI=1S/C6H14FO3P/c1-5(2)9-11(7,8)10-6(3)4/h5-6H,1-4H3",
        "InChIKey": null,
        "Canonical SMILES": "O=P(F)(OC(C)C)OC(C)C",
        "Molecular Formula": "C<sub>6</sub>H<sub>14</sub>FO<sub>3</sub>P",
        "Molecular Mass": "184.15",
        "Boiling Point": "183 °C",
        "Melting Point": "-82 °C",
        "Density": "1.055 g/cm³"
    }
}