{
    "cas_no": "38205-66-2",
    "key_name": "1-(Thiazol-4-yl)ethanone",
    "cn_name": null,
    "alternate_name": "Ethanone, 1-(4-thiazolyl)-;1-(4-Thiazolyl)ethanone;4-Acetylthiazole;Ketone, methyl 4-thiazolyl;Methyl 4-thiazolyl ketone;1-(Thiazol-4-yl)ethanone;1-(1,3-Thiazol-4-yl)ethan-1-one;1-(1,3-Thiazol-4-yl)ethanone",
    "duplicated_cas_no": "",
    "SMILES": "C(C)(=O)C1=CSC=N1",
    "meta_data": {
        "InChI": "InChI=1S/C5H5NOS/c1-4(7)5-2-8-3-6-5/h2-3H,1H3",
        "InChIKey": null,
        "Canonical SMILES": "O=C(C=1N=CSC1)C",
        "Molecular Formula": "C<sub>5</sub>H<sub>5</sub>NOS",
        "Molecular Mass": "127.16",
        "Melting Point": "56 °C"
    }
}