{
    "cas_no": "24016-03-3",
    "key_name": "2-Amino-3-benzyloxypyridine",
    "cn_name": "2-氨基-3-苄氧基吡啶;",
    "alternate_name": "2-Pyridinamine, 3-(phenylmethoxy)-;Pyridine, 2-amino-3-(benzyloxy)-;3-(Phenylmethoxy)-2-pyridinamine;2-Amino-3-benzyloxypyridine;3-Benzyloxy-2-aminopyridine;[(3-(Benzyloxy)pyridin-2-yl])amine;3-Benzyloxypyridin-2-amine;NSC 298538;2-Amino-3-(benzoxy)pyridine",
    "duplicated_cas_no": "",
    "SMILES": "O(CC1=CC=CC=C1)C2=C(N)N=CC=C2",
    "meta_data": {
        "InChI": "InChI=1S/C12H12N2O/c13-12-11(7-4-8-14-12)15-9-10-5-2-1-3-6-10/h1-8H,9H2,(H2,13,14)",
        "InChIKey": null,
        "Canonical SMILES": "N=1C=CC=C(OCC=2C=CC=CC2)C1N",
        "Molecular Formula": "C<sub>12</sub>H<sub>12</sub>N<sub>2</sub>O",
        "Molecular Mass": "200.24",
        "Melting Point": "89-91 °C"
    }
}