{
    "cas_no": "42602-67-5",
    "key_name": "<em>N</em>-3-Thienylacetamide",
    "cn_name": null,
    "alternate_name": "Acetamide, <em>N</em>-3-thienyl-;Thiophene, 3-acetamido-;<em>N</em>-3-Thienylacetamide;3-Acetamidothiophene;3-(Acetylamino)thiophene;NSC 115029;<em>N</em>-[Thien-3-yl]acetamide;<em>N</em>-(Thiophen-3-yl)acetamide",
    "duplicated_cas_no": "",
    "SMILES": "N(C(C)=O)C=1C=CSC1",
    "meta_data": {
        "InChI": "InChI=1S/C6H7NOS/c1-5(8)7-6-2-3-9-4-6/h2-4H,1H3,(H,7,8)",
        "InChIKey": null,
        "Canonical SMILES": "O=C(NC1=CSC=C1)C",
        "Molecular Formula": "C<sub>6</sub>H<sub>7</sub>NOS",
        "Molecular Mass": "141.19",
        "Melting Point": "147-148 °C"
    }
}