{
    "cas_no": "410536-97-9",
    "key_name": "Sirtinol",
    "cn_name": null,
    "alternate_name": "Benzamide, 2-[[(2-hydroxy-1-naphthalenyl)methylene]amino]-<em>N</em>-(1-phenylethyl)-;2-[[(2-Hydroxy-1-naphthalenyl)methylene]amino]-<em>N</em>-(1-phenylethyl)benzamide;Sirtinol;S 2804",
    "duplicated_cas_no": "",
    "SMILES": "C(=NC1=C(C(NC(C)C2=CC=CC=C2)=O)C=CC=C1)C=3C4=C(C=CC3O)C=CC=C4",
    "meta_data": {
        "InChI": "InChI=1S/C26H22N2O2/c1-18(19-9-3-2-4-10-19)28-26(30)22-13-7-8-14-24(22)27-17-23-21-12-6-5-11-20(21)15-16-25(23)29/h2-18,29H,1H3,(H,28,30)",
        "InChIKey": null,
        "Canonical SMILES": "O=C(NC(C=1C=CC=CC1)C)C=2C=CC=CC2N=CC3=C(O)C=CC=4C=CC=CC43",
        "Molecular Formula": "C<sub>26</sub>H<sub>22</sub>N<sub>2</sub>O<sub>2</sub>",
        "Molecular Mass": "394.47",
        "Melting Point": "119-120 °C"
    }
}