{
    "cas_no": "6938-06-3",
    "key_name": "Butyl nicotinate",
    "cn_name": null,
    "alternate_name": "3-Pyridinecarboxylic acid, butyl ester;Nicotinic acid, butyl ester;Ba 2674;Butyl nicotinate;Butyl 3-pyridinecarboxylate;<em>n</em>-Butyl nicotinate;Nicotinic acid <em>n</em>-butyl ester;NSC 27863;NSC 53506",
    "duplicated_cas_no": "123574-73-2;93-93-6",
    "SMILES": "C(OCCCC)(=O)C=1C=CC=NC1",
    "meta_data": {
        "InChI": "InChI=1S/C10H13NO2/c1-2-3-7-13-10(12)9-5-4-6-11-8-9/h4-6,8H,2-3,7H2,1H3",
        "InChIKey": null,
        "Canonical SMILES": "O=C(OCCCC)C=1C=NC=CC1",
        "Molecular Formula": "C<sub>10</sub>H<sub>13</sub>NO<sub>2</sub>",
        "Molecular Mass": "179.22",
        "Boiling Point": "252 °C",
        "Density": "1.0600 g/cm³ @ Temp: 20 °C"
    }
}