{
    "cas_no": "15854-73-6",
    "key_name": "4-Methoxy-3-nitro-1,1′-biphenyl",
    "cn_name": null,
    "alternate_name": "1,1′-Biphenyl, 4-methoxy-3-nitro-;Anisole, 2-nitro-4-phenyl-;4-Methoxy-3-nitro-1,1′-biphenyl;3-Nitro-4-methoxybiphenyl;1-Methoxy-2-nitro-4-phenylbenzene",
    "duplicated_cas_no": "",
    "SMILES": "N(=O)(=O)C=1C=C(C=CC1OC)C2=CC=CC=C2",
    "meta_data": {
        "InChI": "InChI=1S/C13H11NO3/c1-17-13-8-7-11(9-12(13)14(15)16)10-5-3-2-4-6-10/h2-9H,1H3",
        "InChIKey": null,
        "Canonical SMILES": "O=N(=O)C=1C=C(C=CC1OC)C=2C=CC=CC2",
        "Molecular Formula": "C<sub>13</sub>H<sub>11</sub>NO<sub>3</sub>",
        "Molecular Mass": "229.23",
        "Melting Point": "72 °C"
    }
}