{
    "cas_no": "92-95-5",
    "key_name": "4-Isocyanato-1,1′-biphenyl",
    "cn_name": null,
    "alternate_name": "1,1′-Biphenyl, 4-isocyanato-;Isocyanic acid, 4-biphenylyl ester;Biphenyl, 4-isocyanato-;4-Isocyanato-1,1′-biphenyl;4-Biphenyl isocyanate;4-Biphenylyl isocyanate;<em>p</em>-Diphenyl isocyanate;<em>p</em>-Phenylphenyl isocyanate;4-Phenylphenyl isocyanate;4-Isocyanatobiphenyl;1-Isocyanato-4-phenylbenzene",
    "duplicated_cas_no": "",
    "SMILES": "N(=C=O)C1=CC=C(C=C1)C2=CC=CC=C2",
    "meta_data": {
        "InChI": "InChI=1S/C13H9NO/c15-10-14-13-8-6-12(7-9-13)11-4-2-1-3-5-11/h1-9H",
        "InChIKey": null,
        "Canonical SMILES": "O=C=NC=1C=CC(=CC1)C=2C=CC=CC2",
        "Molecular Formula": "C<sub>13</sub>H<sub>9</sub>NO",
        "Molecular Mass": "195.22",
        "Boiling Point": "283 °C",
        "Melting Point": "56 °C"
    }
}