{
    "cas_no": "51207-86-4",
    "key_name": "(4-Aminophenyl)(morpholino)methanone",
    "cn_name": null,
    "alternate_name": "Methanone, (4-aminophenyl)-4-morpholinyl-;Morpholine, 4-(4-aminobenzoyl)-;(4-Aminophenyl)-4-morpholinylmethanone;<em>p</em>-Aminobenzoylmorpholine;4-(<em>p</em>-Aminobenzoyl)morpholine;<em>N</em>-(<em>p</em>-Aminobenzoyl)morpholine;<em>N</em>-(4-Aminobenzoyl)morpholine;4-(4-Aminobenzoyl)morpholine;1-(4-Aminophenyl)-1-morpholin-4-ylmethanone;(4-Aminophenyl)morpholin-4-ylmethanone;4-(4-Morpholinylcarbonyl)aniline;(4-Aminophenyl)(morpholino)methanone;<em>N</em>-[4-[(Morpholin-4-yl)carbonyl]phenyl]amine",
    "duplicated_cas_no": "",
    "SMILES": "C(=O)(C1=CC=C(N)C=C1)N2CCOCC2",
    "meta_data": {
        "InChI": "InChI=1S/C11H14N2O2/c12-10-3-1-9(2-4-10)11(14)13-5-7-15-8-6-13/h1-4H,5-8,12H2",
        "InChIKey": null,
        "Canonical SMILES": "O=C(C1=CC=C(N)C=C1)N2CCOCC2",
        "Molecular Formula": "C<sub>11</sub>H<sub>14</sub>N<sub>2</sub>O<sub>2</sub>",
        "Molecular Mass": "206.24",
        "Melting Point": "132-133 °C"
    }
}