{
    "cas_no": "142-88-1",
    "key_name": "Piperazine adipate",
    "cn_name": "己二酸哌嗪;",
    "alternate_name": "Hexanedioic acid, compd. with piperazine (1:1);Adipic acid, compd. with piperazine (1:1);Piperazine, adipate (1:1);Piperazine, hexanedioate (1:1);Adiprazine;Arduvermin;Dietelmin;Entacyl;Helmirazin;Oxurasin;Oxyzin;Piperascat;Piperaskat;Piperazine adipate;Vermicompren;Piperazine adipinate;Nometan;Vermilass;Oxypaat;Pipadox;Adiprazina;Piperazinium adipate;NSC 74383",
    "duplicated_cas_no": "93505-75-0",
    "SMILES": "C(CCC(O)=O)CC(O)=O.C1CNCCN1",
    "meta_data": {
        "InChI": "InChI=1S/C6H10O4.C4H10N2/c7-5(8)3-1-2-4-6(9)10;1-2-6-4-3-5-1/h1-4H2,(H,7,8)(H,9,10);5-6H,1-4H2",
        "InChIKey": null,
        "Canonical SMILES": "O=C(O)CCCCC(=O)O.N1CCNCC1",
        "Molecular Formula": "C<sub>6</sub>H<sub>10</sub>O<sub>4</sub>.C<sub>4</sub>H<sub>10</sub>N<sub>2</sub>",
        "Molecular Mass": "",
        "Melting Point": "256-257 °C"
    }
}