{
    "cas_no": "765-12-8",
    "key_name": "Triethylene glycol divinyl ether",
    "cn_name": "三乙二醇二乙烯基醚;",
    "alternate_name": "3,6,9,12-Tetraoxatetradeca-1,13-diene;Ethane, 1,2-bis[2-(vinyloxy)ethoxy]-;Triethylene glycol divinyl ether;Rapi-Cure DVE 3;Rapi-Cure DVF;Rapidcure CHVE 3;DVE 3;TEGDVE;DEV 3 (ether);DEV 3",
    "duplicated_cas_no": "",
    "SMILES": "C(COCCOC=C)OCCOC=C",
    "meta_data": {
        "InChI": "InChI=1S/C10H18O4/c1-3-11-5-7-13-9-10-14-8-6-12-4-2/h3-4H,1-2,5-10H2",
        "InChIKey": null,
        "Canonical SMILES": "O(C=C)CCOCCOCCOC=C",
        "Molecular Formula": "C<sub>10</sub>H<sub>18</sub>O<sub>4</sub>",
        "Molecular Mass": "202.25",
        "Boiling Point": "126 °C @ Press: 18 Torr",
        "Density": "1.0016 g/cm³ @ Temp: 20 °C"
    }
}