{
    "cas_no": "7160-22-7",
    "key_name": "<em>N</em>-(3,4-Dichlorophenyl)-2,2-dimethylpropanamide",
    "cn_name": null,
    "alternate_name": "Propanamide, <em>N</em>-(3,4-dichlorophenyl)-2,2-dimethyl-;Propionanilide, 3′,4′-dichloro-2,2-dimethyl-;<em>N</em>-(3,4-Dichlorophenyl)-2,2-dimethylpropanamide;<em>N</em>-(3,4-Dichlorophenyl)-2,2,2-trimethylacetamide",
    "duplicated_cas_no": "",
    "SMILES": "N(C(C(C)(C)C)=O)C1=CC(Cl)=C(Cl)C=C1",
    "meta_data": {
        "InChI": "InChI=1S/C11H13Cl2NO/c1-11(2,3)10(15)14-7-4-5-8(12)9(13)6-7/h4-6H,1-3H3,(H,14,15)",
        "InChIKey": null,
        "Canonical SMILES": "O=C(NC1=CC=C(Cl)C(Cl)=C1)C(C)(C)C",
        "Molecular Formula": "C<sub>11</sub>H<sub>13</sub>Cl<sub>2</sub>NO",
        "Molecular Mass": "246.13",
        "Melting Point": "145-146 °C"
    }
}