{
    "cas_no": "35287-42-4",
    "key_name": "4-Bromo-2-(bromomethyl)-1-nitrobenzene",
    "cn_name": null,
    "alternate_name": "Benzene, 4-bromo-2-(bromomethyl)-1-nitro-;4-Bromo-2-(bromomethyl)-1-nitrobenzene",
    "duplicated_cas_no": "",
    "SMILES": "C(Br)C1=C(N(=O)=O)C=CC(Br)=C1",
    "meta_data": {
        "InChI": "InChI=1S/C7H5Br2NO2/c8-4-5-3-6(9)1-2-7(5)10(11)12/h1-3H,4H2",
        "InChIKey": null,
        "Canonical SMILES": "O=N(=O)C1=CC=C(Br)C=C1CBr",
        "Molecular Formula": "C<sub>7</sub>H<sub>5</sub>Br<sub>2</sub>NO<sub>2</sub>",
        "Molecular Mass": "294.93",
        "Melting Point": "75-78 °C"
    }
}