{
    "cas_no": "701-34-8",
    "key_name": "4-Bromobenzenesulfonamide",
    "cn_name": "4-溴苯磺酰胺;对溴苯磺酰胺;",
    "alternate_name": "Benzenesulfonamide, 4-bromo-;Benzenesulfonamide, <em>p</em>-bromo-;4-Bromobenzenesulfonamide;<em>p</em>-Bromobenzenesulfonamide;(4-Bromophenyl)sulfonamide;4-Aminosulfonyl-1-bromobenzene;NSC 31049",
    "duplicated_cas_no": "",
    "SMILES": "S(N)(=O)(=O)C1=CC=C(Br)C=C1",
    "meta_data": {
        "InChI": "InChI=1S/C6H6BrNO2S/c7-5-1-3-6(4-2-5)11(8,9)10/h1-4H,(H2,8,9,10)",
        "InChIKey": null,
        "Canonical SMILES": "O=S(=O)(N)C1=CC=C(Br)C=C1",
        "Molecular Formula": "C<sub>6</sub>H<sub>6</sub>BrNO<sub>2</sub>S",
        "Molecular Mass": "236.09",
        "Melting Point": "166.5 °C"
    }
}