{
    "cas_no": "24313-88-0",
    "key_name": "3,4,5-Trimethoxyaniline",
    "cn_name": "3,4,5-三甲氧基苯胺;",
    "alternate_name": "Benzenamine, 3,4,5-trimethoxy-;Aniline, 3,4,5-trimethoxy-;3,4,5-Trimethoxybenzenamine;3,4,5-Trimethoxyaniline;3,4,5-Trimethoxyphenylamine;NSC 37006;[3,4,5-Tris(methyloxy)phenyl]amine;3,4,5-Tris(methyloxy)aniline;1-(3,4,5-Trimethoxyphenyl)aniline",
    "duplicated_cas_no": "",
    "SMILES": "O(C)C1=C(OC)C=C(N)C=C1OC",
    "meta_data": {
        "InChI": "InChI=1S/C9H13NO3/c1-11-7-4-6(10)5-8(12-2)9(7)13-3/h4-5H,10H2,1-3H3",
        "InChIKey": null,
        "Canonical SMILES": "O(C=1C=C(N)C=C(OC)C1OC)C",
        "Molecular Formula": "C<sub>9</sub>H<sub>13</sub>NO<sub>3</sub>",
        "Molecular Mass": "183.20",
        "Boiling Point": "130-140 °C @ Press: 1 Torr",
        "Melting Point": "113-114 °C"
    }
}