{
    "cas_no": "93-05-0",
    "key_name": "<em>N</em>,<em>N</em>-Diethyl-<em>p</em>-phenylenediamine",
    "cn_name": "N,N-二乙基对苯二胺;",
    "alternate_name": "1,4-Benzenediamine, <em>N</em><sup>1</sup>,<em>N</em><sup>1</sup>-diethyl-;<em>p</em>-Phenylenediamine, <em>N</em>,<em>N</em>-diethyl-;1,4-Benzenediamine, <em>N</em>,<em>N</em>-diethyl-;<em>N</em><sup>1</sup>,<em>N</em><sup>1</sup>-Diethyl-1,4-benzenediamine;<em>N</em>,<em>N</em>-Diethyl-<em>p</em>-phenylenediamine;<em>p</em>-(Diethylamino)aniline;<em>p</em>-Amino-<em>N</em>,<em>N</em>-diethylaniline;<em>N</em>,<em>N</em>-Diethyl-4-aminoaniline;4-(Diethylamino)aniline;DPD;<em>N</em>,<em>N</em>-Diethyl-1,4-benzenediamine;<em>N</em>,<em>N</em>-Diethyl-1,4-phenylenediamine;PPD 89;4-Amino-<em>N</em>,<em>N</em>-diethylaniline;4-(<em>N</em>,<em>N</em>-Diethylamino)aniline;NSC 147488;4-(Diethylamino)phenylamine;1-<em>N</em>,1-<em>N</em>-Diethylbenzene-1,4-diamine",
    "duplicated_cas_no": "",
    "SMILES": "N(CC)(CC)C1=CC=C(N)C=C1",
    "meta_data": {
        "InChI": "InChI=1S/C10H16N2/c1-3-12(4-2)10-7-5-9(11)6-8-10/h5-8H,3-4,11H2,1-2H3",
        "InChIKey": null,
        "Canonical SMILES": "NC1=CC=C(C=C1)N(CC)CC",
        "Molecular Formula": "C<sub>10</sub>H<sub>16</sub>N<sub>2</sub>",
        "Molecular Mass": "164.25",
        "Boiling Point": "260-262 °C",
        "Melting Point": "144 °C",
        "Density": "0.988 g/cm³"
    }
}