{
    "cas_no": "19309-14-9",
    "key_name": "Cardamonin",
    "cn_name": null,
    "alternate_name": "2-Propen-1-one, 1-(2,4-dihydroxy-6-methoxyphenyl)-3-phenyl-, (2<em>E</em>)-;Chalcone, 2′,4′-dihydroxy-6′-methoxy-;2-Propen-1-one, 1-(2,4-dihydroxy-6-methoxyphenyl)-3-phenyl-, (<em>E</em>)-;(2<em>E</em>)-1-(2,4-Dihydroxy-6-methoxyphenyl)-3-phenyl-2-propen-1-one;Cardamonin;Alpinetin chalcone;Cardamomin",
    "duplicated_cas_no": "",
    "SMILES": "C(/C=C/C1=CC=CC=C1)(=O)C2=C(OC)C=C(O)C=C2O",
    "meta_data": {
        "InChI": "InChI=1S/C16H14O4/c1-20-15-10-12(17)9-14(19)16(15)13(18)8-7-11-5-3-2-4-6-11/h2-10,17,19H,1H3/b8-7+",
        "InChIKey": null,
        "Canonical SMILES": "O=C(C=CC=1C=CC=CC1)C=2C(O)=CC(O)=CC2OC",
        "Molecular Formula": "C<sub>16</sub>H<sub>14</sub>O<sub>4</sub>",
        "Molecular Mass": "270.28",
        "Melting Point": "203-205 °C"
    }
}