{
    "cas_no": "164726-80-1",
    "key_name": "1-Piperazineethanol, 4-[(4-chlorophenyl)phenylmethyl]-, hydrochloride (1:2)",
    "cn_name": "4-[(4-氯苯基)苯甲基]-1-哌啶乙醇二盐酸盐;",
    "alternate_name": "1-Piperazineethanol, 4-[(4-chlorophenyl)phenylmethyl]-, hydrochloride (1:2);1-Piperazineethanol, 4-[(4-chlorophenyl)phenylmethyl]-, dihydrochloride",
    "duplicated_cas_no": "",
    "SMILES": "C(N1CCN(CCO)CC1)(C2=CC=C(Cl)C=C2)C3=CC=CC=C3.Cl",
    "meta_data": {
        "InChI": "InChI=1S/C19H23ClN2O.2ClH/c20-18-8-6-17(7-9-18)19(16-4-2-1-3-5-16)22-12-10-21(11-13-22)14-15-23;;/h1-9,19,23H,10-15H2;2*1H",
        "InChIKey": null,
        "Canonical SMILES": "Cl.ClC1=CC=C(C=C1)C(C=2C=CC=CC2)N3CCN(CCO)CC3",
        "Molecular Formula": "C<sub>19</sub>H<sub>23</sub>ClN<sub>2</sub>O.2ClH",
        "Molecular Mass": "",
        "Melting Point": "190-194 °C"
    }
}