{
    "cas_no": "29898-25-7",
    "key_name": "1-Phenyl-3-hexanone",
    "cn_name": "1-苯基-3-己酮;",
    "alternate_name": "3-Hexanone, 1-phenyl-;1-Phenyl-3-hexanone;Phenethyl propyl ketone",
    "duplicated_cas_no": "",
    "SMILES": "C(CC(CCC)=O)C1=CC=CC=C1",
    "meta_data": {
        "InChI": "InChI=1S/C12H16O/c1-2-6-12(13)10-9-11-7-4-3-5-8-11/h3-5,7-8H,2,6,9-10H2,1H3",
        "InChIKey": null,
        "Canonical SMILES": "O=C(CCC=1C=CC=CC1)CCC",
        "Molecular Formula": "C<sub>12</sub>H<sub>16</sub>O",
        "Molecular Mass": "176.25",
        "Boiling Point": "263 °C @ Press: 760 Torr",
        "Density": "0.9719 g/cm³ @ Temp: 40 °C"
    }
}