{
    "cas_no": "22071-22-3",
    "key_name": "3-Benzoylbenzeneacetic acid",
    "cn_name": null,
    "alternate_name": "Benzeneacetic acid, 3-benzoyl-;Acetic acid, (<em>m</em>-benzoylphenyl)-;3-Benzoylbenzeneacetic acid;RU 4462;(3-Benzoylphenyl)acetic acid;<em>m</em>-Benzoylphenylacetic acid;2-(3-Benzoylphenyl)acetic acid",
    "duplicated_cas_no": "",
    "SMILES": "C(=O)(C1=CC(CC(O)=O)=CC=C1)C2=CC=CC=C2",
    "meta_data": {
        "InChI": "InChI=1S/C15H12O3/c16-14(17)10-11-5-4-8-13(9-11)15(18)12-6-2-1-3-7-12/h1-9H,10H2,(H,16,17)",
        "InChIKey": null,
        "Canonical SMILES": "O=C(O)CC=1C=CC=C(C1)C(=O)C=2C=CC=CC2",
        "Molecular Formula": "C<sub>15</sub>H<sub>12</sub>O<sub>3</sub>",
        "Molecular Mass": "240.25",
        "Melting Point": "112-113 °C"
    }
}