{
    "cas_no": "57683-71-3",
    "key_name": "Methyl 2-(aminosulfonyl)benzoate",
    "cn_name": "邻甲酸甲酯苯磺酰胺;邻磺酰胺苯甲酸甲酯;",
    "alternate_name": "Benzoic acid, 2-(aminosulfonyl)-, methyl ester;Benzoic acid, <em>o</em>-sulfamoyl-, methyl ester;Methyl 2-(aminosulfonyl)benzoate;Methyl 2-sulfamoylbenzoate;2-(Methoxycarbonyl)benzenesulfonamide;2-(Carbomethoxy)benzenesulfonamide;Methyl <em>o</em>-sulfamoylbenzoate;2-Sulfamoyl-benzoic acid methyl ester",
    "duplicated_cas_no": "",
    "SMILES": "C(OC)(=O)C1=C(S(N)(=O)=O)C=CC=C1",
    "meta_data": {
        "InChI": "InChI=1S/C8H9NO4S/c1-13-8(10)6-4-2-3-5-7(6)14(9,11)12/h2-5H,1H3,(H2,9,11,12)",
        "InChIKey": null,
        "Canonical SMILES": "O=C(OC)C=1C=CC=CC1S(=O)(=O)N",
        "Molecular Formula": "C<sub>8</sub>H<sub>9</sub>NO<sub>4</sub>S",
        "Molecular Mass": "215.23",
        "Melting Point": "123-125 °C"
    }
}