{
    "cas_no": "13709-38-1",
    "key_name": "Lanthanum trifluoride",
    "cn_name": "氟化镧;三氟化镧;",
    "alternate_name": "Lanthanum fluoride (LaF<sub>3</sub>);Lanthanum trifluoride;Lanthanum fluoride;Lanthanum fluoride (La<sub>2</sub>F<sub>6</sub>);Lanthanum trifluoride (LaF<sub>3</sub>)",
    "duplicated_cas_no": "12592-31-3;31287-64-6;37346-91-1;2041569-14-4",
    "SMILES": "[La](F)(F)F",
    "meta_data": {
        "InChI": "InChI=1S/3FH.La/h3*1H;/q;;;+3/p-3",
        "InChIKey": null,
        "Canonical SMILES": "F[La](F)F",
        "Molecular Formula": "F<sub>3</sub>La",
        "Molecular Mass": "",
        "Melting Point": "1493 °C",
        "Density": "5.936 g/cm³"
    }
}