{
    "cas_no": "452-77-7",
    "key_name": "3-Fluoro-4-methylaniline",
    "cn_name": "3-氟-4-甲基苯胺;2-氟-4-氨基甲苯;",
    "alternate_name": "Benzenamine, 3-fluoro-4-methyl-;<em>p</em>-Toluidine, 3-fluoro-;3-Fluoro-4-methylbenzenamine;3-Fluoro-4-methylaniline;4-Amino-2-fluorotoluene;2-Fluoro-4-aminotoluene;3-Fluoro-<em>p</em>-toluidine;NSC 57470;(3-Fluoro-4-methylphenyl)amine;4-Methyl-3-fluoroaniline",
    "duplicated_cas_no": "",
    "SMILES": "FC1=C(C)C=CC(N)=C1",
    "meta_data": {
        "InChI": "InChI=1S/C7H8FN/c1-5-2-3-6(9)4-7(5)8/h2-4H,9H2,1H3",
        "InChIKey": null,
        "Canonical SMILES": "FC1=CC(N)=CC=C1C",
        "Molecular Formula": "C<sub>7</sub>H<sub>8</sub>FN",
        "Molecular Mass": "125.14",
        "Boiling Point": "200-205 °C",
        "Melting Point": "32 °C"
    }
}