{
    "cas_no": "29006-02-8",
    "key_name": "4-Methoxybutanoic acid",
    "cn_name": null,
    "alternate_name": "Butanoic acid, 4-methoxy-;Butyric acid, 4-methoxy-;4-Methoxybutanoic acid;4-Methoxybutyric acid",
    "duplicated_cas_no": "",
    "SMILES": "C(CCOC)C(O)=O",
    "meta_data": {
        "InChI": "InChI=1S/C5H10O3/c1-8-4-2-3-5(6)7/h2-4H2,1H3,(H,6,7)",
        "InChIKey": null,
        "Canonical SMILES": "O=C(O)CCCOC",
        "Molecular Formula": "C<sub>5</sub>H<sub>10</sub>O<sub>3</sub>",
        "Molecular Mass": "118.13",
        "Boiling Point": "146-147 °C @ Press: 767 Torr",
        "Density": "1.0057 g/cm³"
    }
}