{
    "cas_no": "109-74-0",
    "key_name": "Butyronitrile",
    "cn_name": "正丁腈;",
    "alternate_name": "Butanenitrile;Butyronitrile;Propyl cyanide;<em>n</em>-Butyronitrile;1-Cyanopropane;<em>n</em>-Butanenitrile;γ-Butyronitrile;NSC 8412",
    "duplicated_cas_no": "",
    "SMILES": "C(CC)C#N",
    "meta_data": {
        "InChI": "InChI=1S/C4H7N/c1-2-3-4-5/h2-3H2,1H3",
        "InChIKey": null,
        "Canonical SMILES": "N#CCCC",
        "Molecular Formula": "C<sub>4</sub>H<sub>7</sub>N",
        "Molecular Mass": "69.11",
        "Boiling Point": "117.5 °C @ Press: 760 Torr",
        "Melting Point": "-112 °C",
        "Density": "0.8091 g/cm³ @ Temp: 0 °C"
    }
}