{
    "cas_no": "39925-10-5",
    "key_name": "Methyl 1-(2,3,5-tri-<em>O</em>-acetyl-β-<span class=\"text-smallcaps\">D</span>-ribofuranosyl)-1<em>H</em>-1,2,4-triazole-3-carboxylate",
    "cn_name": null,
    "alternate_name": "1<em>H</em>-1,2,4-Triazole-3-carboxylic acid, 1-(2,3,5-tri-<em>O</em>-acetyl-β-<span class=\"text-smallcaps\">D</span>-ribofuranosyl)-, methyl ester;Methyl 1-(2,3,5-tri-<em>O</em>-acetyl-β-<span class=\"text-smallcaps\">D</span>-ribofuranosyl)-1<em>H</em>-1,2,4-triazole-3-carboxylate;Methyl 1-(2,3,5-tri-<em>O</em>-acetyl-β-<span class=\"text-smallcaps\">D</span>-ribofuranosyl)-1,2,4-triazole-3-carboxylate;1-(2,3,5-Tri-<em>O</em>-acetyl-β-<span class=\"text-smallcaps\">D</span>-ribofuranosyl)-1,2,4-triazole-3-carboxylic acid methyl ester",
    "duplicated_cas_no": "491596-58-8",
    "SMILES": "O(C(C)=O)[C@H]1[C@@H](O[C@H](COC(C)=O)[C@H]1OC(C)=O)N2N=C(C(OC)=O)N=C2",
    "meta_data": {
        "InChI": "InChI=1S/C15H19N3O9/c1-7(19)24-5-10-11(25-8(2)20)12(26-9(3)21)14(27-10)18-6-16-13(17-18)15(22)23-4/h6,10-12,14H,5H2,1-4H3/t10-,11-,12-,14-/m1/s1",
        "InChIKey": null,
        "Canonical SMILES": "O=C(OC)C=1N=CN(N1)C2OC(COC(=O)C)C(OC(=O)C)C2OC(=O)C",
        "Molecular Formula": "C<sub>15</sub>H<sub>19</sub>N<sub>3</sub>O<sub>9</sub>",
        "Molecular Mass": "385.33",
        "Melting Point": "106-108 °C"
    }
}