{
    "cas_no": "2042-14-0",
    "key_name": "4-Methyl-3-nitrophenol",
    "cn_name": "4-甲基-3-硝基苯酚;",
    "alternate_name": "Phenol, 4-methyl-3-nitro-;<em>p</em>-Cresol, 3-nitro-;4-Methyl-3-nitrophenol;3-Nitro-4-methylphenol;3-Nitro-<em>p</em>-cresol;4-Hydroxy-2-nitrotoluene;4-Methyl-5-nitrophenol;NSC 41205",
    "duplicated_cas_no": "",
    "SMILES": "N(=O)(=O)C1=C(C)C=CC(O)=C1",
    "meta_data": {
        "InChI": "InChI=1S/C7H7NO3/c1-5-2-3-6(9)4-7(5)8(10)11/h2-4,9H,1H3",
        "InChIKey": null,
        "Canonical SMILES": "O=N(=O)C1=CC(O)=CC=C1C",
        "Molecular Formula": "C<sub>7</sub>H<sub>7</sub>NO<sub>3</sub>",
        "Molecular Mass": "153.14",
        "Melting Point": "79 °C"
    }
}