{
    "cas_no": "25167-70-8",
    "key_name": "Diisobutylene",
    "cn_name": null,
    "alternate_name": "Pentene, 2,4,4-trimethyl-;2,4,4-Trimethylpentene;Diisobutene;Diisobutylene;2,2,4-Trimethylpentene",
    "duplicated_cas_no": "12002-23-2",
    "SMILES": "",
    "meta_data": {
        "InChI": "",
        "InChIKey": null,
        "Canonical SMILES": "",
        "Molecular Formula": "C<sub>8</sub>H<sub>16</sub>",
        "Molecular Mass": "",
        "Boiling Point": "101 °C",
        "Density": "0.7175 g/cm³ @ Temp: 20 °C"
    }
}