{
    "cas_no": "1314-24-5",
    "key_name": "Phosphorus oxide (P<sub>2</sub>O<sub>3</sub>)",
    "cn_name": "三氧化磷;",
    "alternate_name": "Phosphorus oxide (P<sub>2</sub>O<sub>3</sub>);Diphosphorus trioxide;Phosphorus trioxide;Phosphorus sesquioxide",
    "duplicated_cas_no": "14415-15-7",
    "SMILES": "[O].[P]",
    "meta_data": {
        "InChI": "InChI=1S/O.P",
        "InChIKey": null,
        "Canonical SMILES": "[O].[P]",
        "Molecular Formula": "O.P",
        "Molecular Mass": "",
        "Boiling Point": "175.4 °C",
        "Melting Point": "23.8 °C"
    }
}