{
    "uri": "substance/pt/1314245",
    "rn": "1314-24-5",
    "name": "Phosphorus oxide (P<sub>2</sub>O<sub>3</sub>)",
    "images": [],
    "inchi": "InChI=1S/O.P",
    "inchiKey": "InChIKey=AFCIMSXHQSIHQW-UHFFFAOYSA-N",
    "smile": "[O].[P]",
    "canonicalSmile": "[O].[P]",
    "molecularFormula": "O.P",
    "molecularMass": "",
    "experimentalProperties": [
        {
            "name": "Boiling Point",
            "property": "175.4 °C",
            "sourceNumber": 1
        },
        {
            "name": "Melting Point",
            "property": "23.8 °C",
            "sourceNumber": 2
        }
    ],
    "propertyCitations": [
        {
            "docUri": "document/pt/document/22944586",
            "sourceNumber": 1,
            "source": "van Doormaal, P. M.; Recueil des Travaux Chimiques des Pays-Bas et de la Belgique, (1931), 50, 1100-4, CAplus"
        },
        {
            "docUri": "document/pt/document/23269143",
            "sourceNumber": 2,
            "source": "Miller, Christina C.; Journal of the Chemical Society, (1928), 1847-62, CAplus"
        }
    ],
    "synonyms": [
        "Phosphorus oxide (P<sub>2</sub>O<sub>3</sub>)",
        "Diphosphorus trioxide",
        "Phosphorus trioxide",
        "Phosphorus sesquioxide"
    ],
    "replacedRns": [
        "14415-15-7"
    ],
    "hasMolfile": true,
    "source": "https://commonchemistry.cas.org/detail?cas_rn=1314-24-5"
}