{
    "cas_no": "7211-57-6",
    "key_name": "2-(Acetylamino)butanoic acid",
    "cn_name": null,
    "alternate_name": "Butanoic acid, 2-(acetylamino)-;Butyric acid, 2-acetamido-;2-(Acetylamino)butanoic acid;<em>N</em>-Acetyl-α-aminobutyric acid;2-Acetamidobutyric acid;<em>N</em>-Acetyl-<span class=\"text-smallcaps\">DL</span>-α-aminobutyric acid;<em>N</em>-Acetyl-2-ethylglycine;NSC 205007;<em>N</em>-Acetyl-<span class=\"text-smallcaps\">DL</span>-2-aminobutyric acid;2-Acetamidobutanoic acid",
    "duplicated_cas_no": "7682-14-6;34271-24-4",
    "SMILES": "C(NC(C)=O)(C(O)=O)CC",
    "meta_data": {
        "InChI": "InChI=1S/C6H11NO3/c1-3-5(6(9)10)7-4(2)8/h5H,3H2,1-2H3,(H,7,8)(H,9,10)",
        "InChIKey": null,
        "Canonical SMILES": "O=C(NC(C(=O)O)CC)C",
        "Molecular Formula": "C<sub>6</sub>H<sub>11</sub>NO<sub>3</sub>",
        "Molecular Mass": "145.16",
        "Melting Point": "178-180 °C"
    }
}