{
    "cas_no": "43121-43-3",
    "key_name": "Triadimefon",
    "cn_name": "三唑酮;1-(4-氯苯氧基)-1-(1H-1,2,4-三唑-1-基)-3,3-二甲基丁-2-酮;",
    "alternate_name": "2-Butanone, 1-(4-chlorophenoxy)-3,3-dimethyl-1-(1<em>H</em>-1,2,4-triazol-1-yl)-;1-(4-Chlorophenoxy)-3,3-dimethyl-1-(1<em>H</em>-1,2,4-triazol-1-yl)-2-butanone;BAY-MEB 6447;1-(4-Chlorophenoxy)-3,3-dimethyl-1-(1,2,4-triazol-1-yl)-2-butanone;Triadimefon;BAY 6681F;MEB 6447;1-(4-Chlorophenoxy)-3,3-dimethyl-1,2,4-triazol-1-yl-2-butanone;Bayleton;Bayleton 250EC;Bayleton special;Tidifon;Triadimephon;Bayleton PB;Bayleton 5WP;Bayleton 25;Azocene;Fenxiunin;1-(4-Chlorophenoxy)-3,3-dimethyl-1-(1-H-1,2,4-triazol-1-yl)butanone;Tripinacloraz;Bayleton 5;NSC 303303;Webeton;Bayleton 5DF;Triadimefone",
    "duplicated_cas_no": "119143-30-5;72650-40-9;93779-51-2;148227-32-1;1135441-18-7",
    "SMILES": "C(OC1=CC=C(Cl)C=C1)(C(C(C)(C)C)=O)N2C=NC=N2",
    "meta_data": {
        "InChI": "InChI=1S/C14H16ClN3O2/c1-14(2,3)12(19)13(18-9-16-8-17-18)20-11-6-4-10(15)5-7-11/h4-9,13H,1-3H3",
        "InChIKey": null,
        "Canonical SMILES": "O=C(C(OC1=CC=C(Cl)C=C1)N2N=CN=C2)C(C)(C)C",
        "Molecular Formula": "C<sub>14</sub>H<sub>16</sub>ClN<sub>3</sub>O<sub>2</sub>",
        "Molecular Mass": "293.75",
        "Melting Point": "82 °C",
        "Density": "1.283 g/cm³ @ Temp: 21.5 °C"
    }
}