{
    "cas_no": "4648-54-8",
    "key_name": "Azidotrimethylsilane",
    "cn_name": "叠氮基三甲基硅烷;三甲基叠氮化硅;",
    "alternate_name": "Silane, azidotrimethyl-;Azidotrimethylsilane;Trimethylsilyl azide;Trimethylsilicon azide;Trimethylazidosilane",
    "duplicated_cas_no": "135108-15-5;150059-64-6",
    "SMILES": "N([Si](C)(C)C)=[N+]=[N-]",
    "meta_data": {
        "InChI": "InChI=1S/C3H9N3Si/c1-7(2,3)6-5-4/h1-3H3",
        "InChIKey": null,
        "Canonical SMILES": "[N-]=[N+]=N[Si](C)(C)C",
        "Molecular Formula": "C<sub>3</sub>H<sub>9</sub>N<sub>3</sub>Si",
        "Molecular Mass": "",
        "Boiling Point": "95-96 °C",
        "Melting Point": "-95 °C",
        "Density": "0.876 g/cm³"
    }
}