{
    "cas_no": "2834-05-1",
    "key_name": "11-Bromoundecanoic acid",
    "cn_name": "11-溴十一酸;11-溴代十一烷酸;11-溴代十一碳酸;",
    "alternate_name": "Undecanoic acid, 11-bromo-;11-Bromoundecanoic acid;ω-Bromoundecanoic acid;NSC 14781",
    "duplicated_cas_no": "",
    "SMILES": "C(CCCCCCCBr)CCC(O)=O",
    "meta_data": {
        "InChI": "InChI=1S/C11H21BrO2/c12-10-8-6-4-2-1-3-5-7-9-11(13)14/h1-10H2,(H,13,14)",
        "InChIKey": null,
        "Canonical SMILES": "O=C(O)CCCCCCCCCCBr",
        "Molecular Formula": "C<sub>11</sub>H<sub>21</sub>BrO<sub>2</sub>",
        "Molecular Mass": "265.19",
        "Boiling Point": "173-174 °C @ Press: 2 Torr",
        "Melting Point": "57 °C"
    }
}