{
    "cas_no": "109-84-2",
    "key_name": "Hydroxyethylhydrazine",
    "cn_name": "2-肼基乙醇;(2-羟乙基)肼;",
    "alternate_name": "Ethanol, 2-hydrazinyl-;Ethanol, 2-hydrazino-;2-Hydrazinylethanol;BOH;HEH;(β-Hydroxyethyl)hydrazine;2-Hydrazineethanol;(2-Hydroxyethyl)hydrazine;Ethanolhydrazine;1-(2-Hydroxyethyl)hydrazine;2-Hydrazinoethanol;2-Hydrazinoethyl alcohol;<em>N</em>-(2-Hydroxyethyl)hydrazine;Hydroxyethylhydrazine;Hydrazineethanol;NSC 189820;2-Hydrazinylethan-1-ol",
    "duplicated_cas_no": "856640-34-1",
    "SMILES": "C(CO)NN",
    "meta_data": {
        "InChI": "InChI=1S/C2H8N2O/c3-4-1-2-5/h4-5H,1-3H2",
        "InChIKey": null,
        "Canonical SMILES": "OCCNN",
        "Molecular Formula": "C<sub>2</sub>H<sub>8</sub>N<sub>2</sub>O",
        "Molecular Mass": "76.10",
        "Boiling Point": "219 °C",
        "Melting Point": "-70 °C",
        "Density": "1.123 g/cm³ @ Temp: 23 °C"
    }
}