{
    "cas_no": "909-84-2",
    "key_name": "6,7-Bis(phenylmethoxy)-2<em>H</em>-1-benzopyran-2-one",
    "cn_name": "七叶亭二苄醚;七叶亭二苄醚;",
    "alternate_name": "2<em>H</em>-1-Benzopyran-2-one, 6,7-bis(phenylmethoxy)-;Coumarin, 6,7-bis(benzyloxy)-;6,7-Bis(phenylmethoxy)-2<em>H</em>-1-benzopyran-2-one;6,7-Dibenzylesculetin;6,7-Bis(benzyloxy)coumarin",
    "duplicated_cas_no": "",
    "SMILES": "O(CC1=CC=CC=C1)C=2C=C3C(=CC2OCC4=CC=CC=C4)C=CC(=O)O3",
    "meta_data": {
        "InChI": "InChI=1S/C23H18O4/c24-23-12-11-19-13-21(25-15-17-7-3-1-4-8-17)22(14-20(19)27-23)26-16-18-9-5-2-6-10-18/h1-14H,15-16H2",
        "InChIKey": null,
        "Canonical SMILES": "O=C1OC=2C=C(OCC=3C=CC=CC3)C(OCC=4C=CC=CC4)=CC2C=C1",
        "Molecular Formula": "C<sub>23</sub>H<sub>18</sub>O<sub>4</sub>",
        "Molecular Mass": "358.39",
        "Melting Point": "161.5 °C"
    }
}