{
    "cas_no": "7132-64-1",
    "key_name": "Methyl pentadecanoate",
    "cn_name": "十五碳酸甲酯;",
    "alternate_name": "Pentadecanoic acid, methyl ester;Methyl pentadecanoate;Methyl <em>n</em>-pentadecanoate",
    "duplicated_cas_no": "",
    "SMILES": "C(CCCCCCCCCCC)CCC(OC)=O",
    "meta_data": {
        "InChI": "InChI=1S/C16H32O2/c1-3-4-5-6-7-8-9-10-11-12-13-14-15-16(17)18-2/h3-15H2,1-2H3",
        "InChIKey": null,
        "Canonical SMILES": "O=C(OC)CCCCCCCCCCCCCC",
        "Molecular Formula": "C<sub>16</sub>H<sub>32</sub>O<sub>2</sub>",
        "Molecular Mass": "256.42",
        "Boiling Point": "141.5 °C",
        "Melting Point": "18.5 °C"
    }
}