{
    "cas_no": "16045-78-6",
    "key_name": "1,1,3,3-Tetraethenyl-1,3-dimethyldisiloxane",
    "cn_name": "1,3-二甲基-1,1,3,3-四乙烯二硅氧烷;",
    "alternate_name": "Disiloxane, 1,1,3,3-tetraethenyl-1,3-dimethyl-;Disiloxane, 1,3-dimethyl-1,1,3,3-tetravinyl-;1,1,3,3-Tetraethenyl-1,3-dimethyldisiloxane;1,3-Dimethyl-1,1,3,3-tetravinyldisiloxane;[Bis(ethenyl)-methylsilyl]oxy-bis(ethenyl)-methylsilane;1,1,3,3-Tetravinyldimethyldisiloxane",
    "duplicated_cas_no": "",
    "SMILES": "O([Si](C=C)(C=C)C)[Si](C=C)(C=C)C",
    "meta_data": {
        "InChI": "InChI=1S/C10H18OSi2/c1-7-12(5,8-2)11-13(6,9-3)10-4/h7-10H,1-4H2,5-6H3",
        "InChIKey": null,
        "Canonical SMILES": "O([Si](C=C)(C=C)C)[Si](C=C)(C=C)C",
        "Molecular Formula": "C<sub>10</sub>H<sub>18</sub>OSi<sub>2</sub>",
        "Molecular Mass": "210.42",
        "Boiling Point": "65-68 °C @ Press: 15 Torr",
        "Density": "0.852 g/cm³"
    }
}