{
    "cas_no": "17768-28-4",
    "key_name": "1,3-Adamantanediacetic acid",
    "cn_name": "1,3-金刚烷二乙酸;",
    "alternate_name": "Tricyclo[3.3.1.1<sup>3,7</sup>]decane-1,3-diacetic acid;1,3-Adamantanediacetic acid;1,3-Bis(carboxymethyl)adamantane;2,2′-(Adamantane-1,3-diyl)diacetic acid;2-[3-(Carboxymethyl)adamantan-1-yl]acetic acid;2-[3-(Carboxymethyl)-1-adamantyl]acetic acid",
    "duplicated_cas_no": "",
    "SMILES": "C(C(O)=O)C12CC3(CC(O)=O)CC(C1)CC(C2)C3",
    "meta_data": {
        "InChI": "InChI=1S/C14H20O4/c15-11(16)6-13-2-9-1-10(4-13)5-14(3-9,8-13)7-12(17)18/h9-10H,1-8H2,(H,15,16)(H,17,18)",
        "InChIKey": null,
        "Canonical SMILES": "O=C(O)CC12CC3CC(C1)CC(CC(=O)O)(C3)C2",
        "Molecular Formula": "C<sub>14</sub>H<sub>20</sub>O<sub>4</sub>",
        "Molecular Mass": "252.31",
        "Melting Point": "244-244.5 °C"
    }
}