{
    "cas_no": "870997-57-2",
    "key_name": "2-Amino-<em>N</em>,3-dimethylbenzamide",
    "cn_name": null,
    "alternate_name": "Benzamide, 2-amino-<em>N</em>,3-dimethyl-;2-Amino-<em>N</em>,3-dimethylbenzamide;2-Amino-3-methyl-<em>N</em>-methylbenzamide;2-Amino-3,<em>N</em>-dimethyl-benzamide",
    "duplicated_cas_no": "",
    "SMILES": "C(NC)(=O)C1=C(N)C(C)=CC=C1",
    "meta_data": {
        "InChI": "InChI=1S/C9H12N2O/c1-6-4-3-5-7(8(6)10)9(12)11-2/h3-5H,10H2,1-2H3,(H,11,12)",
        "InChIKey": null,
        "Canonical SMILES": "O=C(NC)C1=CC=CC(=C1N)C",
        "Molecular Formula": "C<sub>9</sub>H<sub>12</sub>N<sub>2</sub>O",
        "Molecular Mass": "164.20",
        "Melting Point": "115-117 °C"
    }
}