{
    "cas_no": "35205-54-0",
    "key_name": "1-Phenoxy-2-propanamine",
    "cn_name": null,
    "alternate_name": "2-Propanamine, 1-phenoxy-;Ethylamine, 1-methyl-2-phenoxy-;Ethylamine, methyl-2-phenoxy-;1-Phenoxy-2-propanamine;1-Methyl-2-phenoxyethylamine;Phenoxyisopropylamine;1-Phenoxy-2-propylamine;2-Phenoxy-1-methylethylamine;α-Methyl-2-phenoxyethanamine;NSC 137777;(2-Aminopropoxy)benzene",
    "duplicated_cas_no": "65236-31-9",
    "SMILES": "O(CC(C)N)C1=CC=CC=C1",
    "meta_data": {
        "InChI": "InChI=1S/C9H13NO/c1-8(10)7-11-9-5-3-2-4-6-9/h2-6,8H,7,10H2,1H3",
        "InChIKey": null,
        "Canonical SMILES": "O(C=1C=CC=CC1)CC(N)C",
        "Molecular Formula": "C<sub>9</sub>H<sub>13</sub>NO",
        "Molecular Mass": "151.21",
        "Boiling Point": "117-120 °C @ Press: 3 Torr",
        "Melting Point": "147-148 °C",
        "Density": "1.0146 g/cm³ @ Temp: 20 °C"
    }
}