{
    "cas_no": "3481-20-7",
    "key_name": "2,3,5,6-Tetrachloroaniline",
    "cn_name": "2,3,5,6-四氯苯胺;",
    "alternate_name": "Benzenamine, 2,3,5,6-tetrachloro-;Aniline, 2,3,5,6-tetrachloro-;2,3,5,6-Tetrachlorobenzenamine;2,3,5,6-Tetrachloroaniline;NSC 29028",
    "duplicated_cas_no": "",
    "SMILES": "ClC1=C(N)C(Cl)=C(Cl)C=C1Cl",
    "meta_data": {
        "InChI": "InChI=1S/C6H3Cl4N/c7-2-1-3(8)5(10)6(11)4(2)9/h1H,11H2",
        "InChIKey": null,
        "Canonical SMILES": "ClC=1C=C(Cl)C(Cl)=C(N)C1Cl",
        "Molecular Formula": "C<sub>6</sub>H<sub>3</sub>Cl<sub>4</sub>N",
        "Molecular Mass": "230.91",
        "Melting Point": "106-108 °C"
    }
}