{
    "cas_no": "890-38-0",
    "key_name": "Deoxyinosine",
    "cn_name": "2\"-脱氧肌苷;",
    "alternate_name": "Inosine, 2′-deoxy-;2′-Deoxyinosine;Hypoxanthine, 9-(2-deoxy-β-<span class=\"text-smallcaps\">D</span>-<em>erythro</em>-pentofuranosyl)-;Deoxyinosine;9-(2-Deoxy-β-<span class=\"text-smallcaps\">D</span>-<em>erythro</em>-pentofuranosyl)-1,9-dihydro-6<em>H</em>-purin-6-one;6<em>H</em>-Purin-6-one, 9-(2-deoxy-β-<span class=\"text-smallcaps\">D</span>-<em>erythro</em>-pentofuranosyl)-1,9-dihydro-;Hypoxanthine deoxyriboside",
    "duplicated_cas_no": "1049662-95-4",
    "SMILES": "O=C1C2=C(N(C=N2)[C@@H]3O[C@H](CO)[C@@H](O)C3)NC=N1",
    "meta_data": {
        "InChI": "InChI=1S/C10H12N4O4/c15-2-6-5(16)1-7(18-6)14-4-13-8-9(14)11-3-12-10(8)17/h3-7,15-16H,1-2H2,(H,11,12,17)/t5-,6+,7+/m0/s1",
        "InChIKey": null,
        "Canonical SMILES": "O=C1N=CNC2=C1N=CN2C3OC(CO)C(O)C3",
        "Molecular Formula": "C<sub>10</sub>H<sub>12</sub>N<sub>4</sub>O<sub>4</sub>",
        "Molecular Mass": "252.23",
        "Melting Point": "&gt;250 °C (decomp)"
    }
}