{
    "cas_no": "765-04-8",
    "key_name": "1,11-Undecanediol",
    "cn_name": "1,11-十一烷二醇;",
    "alternate_name": "1,11-Undecanediol;1,11-Hendecanediol;NSC 4030;1,11-Dihydroxyundecane;Undecamethylene glycol",
    "duplicated_cas_no": "",
    "SMILES": "C(CCCCCO)CCCCCO",
    "meta_data": {
        "InChI": "InChI=1S/C11H24O2/c12-10-8-6-4-2-1-3-5-7-9-11-13/h12-13H,1-11H2",
        "InChIKey": null,
        "Canonical SMILES": "OCCCCCCCCCCCO",
        "Molecular Formula": "C<sub>11</sub>H<sub>24</sub>O<sub>2</sub>",
        "Molecular Mass": "188.31",
        "Melting Point": "61-61.5 °C"
    }
}