{
    "cas_no": "488-87-9",
    "key_name": "2,5-Dimethylresorcin",
    "cn_name": "2,5-二甲基间苯二酚;",
    "alternate_name": "1,3-Benzenediol, 2,5-dimethyl-;Resorcinol, 2,5-dimethyl-;2,5-Dimethyl-1,3-benzenediol;β-Orcinol;<em>p</em>-Xylorcinol;2,5-Dimethylresorcinol;2,5-Dimethylresorcin;4-Methylorcinol;2,5-Dimethyl-1,3-dihydroxybenzene",
    "duplicated_cas_no": "",
    "SMILES": "CC1=C(O)C=C(C)C=C1O",
    "meta_data": {
        "InChI": "InChI=1S/C8H10O2/c1-5-3-7(9)6(2)8(10)4-5/h3-4,9-10H,1-2H3",
        "InChIKey": null,
        "Canonical SMILES": "OC=1C=C(C=C(O)C1C)C",
        "Molecular Formula": "C<sub>8</sub>H<sub>10</sub>O<sub>2</sub>",
        "Molecular Mass": "138.16",
        "Boiling Point": "278.5 °C",
        "Melting Point": "163 °C"
    }
}