{
    "cas_no": "623-00-7",
    "key_name": "4-Bromobenzonitrile",
    "cn_name": "4-溴苯腈;对溴苯腈;",
    "alternate_name": "Benzonitrile, 4-bromo-;Benzonitrile, <em>p</em>-bromo-;4-Bromobenzonitrile;<em>p</em>-Bromobenzonitrile;1-Bromo-4-cyanobenzene;<em>p</em>-Cyanophenyl bromide;<em>p</em>-Bromocyanobenzene;4-Bromocyanobenzene;4-Cyanophenyl bromide;<em>p</em>-Cyanobromobenzene;NSC 3978;4-Cyanobromobenzene;4-Bromophenylcarbonitrile;4-Bromophenyl cyanide;4-Cyano-1-bromobenzene;1-Bromo-4-benzonitrile;1-Cyano-4-bromobenzene;4-Bromobenzenitrile",
    "duplicated_cas_no": "",
    "SMILES": "C(#N)C1=CC=C(Br)C=C1",
    "meta_data": {
        "InChI": "InChI=1S/C7H4BrN/c8-7-3-1-6(5-9)2-4-7/h1-4H",
        "InChIKey": null,
        "Canonical SMILES": "N#CC1=CC=C(Br)C=C1",
        "Molecular Formula": "C<sub>7</sub>H<sub>4</sub>BrN",
        "Molecular Mass": "182.02",
        "Boiling Point": "236 °C",
        "Melting Point": "114 °C"
    }
}