{
    "cas_no": "13912-65-7",
    "key_name": "1,3,3a,4,5,9b-Hexahydro-5-(tetrahydro-2,5-dioxo-3-furanyl)naphtho[1,2-<em>c</em>]furan-1,3-dione",
    "cn_name": "4-(2,5-二氧四氢呋喃-3-基)-1,2,3,4-四氢化萘-1,2-二酸酐;",
    "alternate_name": "Naphtho[1,2-<em>c</em>]furan-1,3-dione, 3a,4,5,9b-tetrahydro-5-(tetrahydro-2,5-dioxo-3-furanyl)-;1-Naphthalenesuccinic acid, 3,4-dicarboxy-1,2,3,4-tetrahydro-, cyclic α,β:3,4-dianhydride;1-Naphthalenesuccinic anhydride, 3,4-dicarboxy-1,2,3,4-tetrahydro-, cyclic anhydride;Naphtho[1,2-<em>c</em>]furan-5-succinic anhydride, 1,3,3a,4,5,9b-hexahydro-1,3-dioxo-;3a,4,5,9b-Tetrahydro-5-(tetrahydro-2,5-dioxo-3-furanyl)naphtho[1,2-<em>c</em>]furan-1,3-dione;2-(3,4-Dicarboxy-1,2,3,4-tetrahydro-1-naphthyl)succinic dianhydride;3,4-Dicarboxy-1,2,3,4-tetrahydro-1-naphthalenesuccinic dianhydride;Tetralin dianhydride;3,4-Dicarboxy-1,2,3,4-tetrahydro-1-naphthalenesuccinic acid dianhydride;Rikacid TDA 100;1,3,3a,4,5,9b-Hexahydro-5-(tetrahydro-2,5-dioxo-3-furanyl)naphtho[1,2-<em>c</em>]furan-1,3-dione;3,4-Dicarboxy-1,2,3,4-tetrahydro-1-naphthalenesuccinic anhydride;4-(2,5-Dioxotetrahydrofuran-3-yl)-1,2,3,4-tetrahydronaphthalene-1,2-dicarboxylic anhydride;4-(2,5-Dioxotetrahydrofuran-3-yl)-1,2,3,4-tetrahydronaphthalene-1,2-dicarboxylic dianhydride;TDA 100;4-(2,5-Dioxotetrahydrofuran-3-yl)-1,2,3,4-tetrahydronaphthalene-1,2-dicarboxylic acid anhydride;4-(2,5-Dioxotetrahydrofuran-3-yl)tetrahydronaphthalene-1,2-dicarboxylic anhydride",
    "duplicated_cas_no": "184908-80-3;1383712-39-7;1610790-00-5",
    "SMILES": "O=C1C(C2C=3C(C4C(C2)C(=O)OC4=O)=CC=CC3)CC(=O)O1",
    "meta_data": {
        "InChI": "InChI=1S/C16H12O6/c17-12-6-10(14(18)21-12)9-5-11-13(16(20)22-15(11)19)8-4-2-1-3-7(8)9/h1-4,9-11,13H,5-6H2",
        "InChIKey": null,
        "Canonical SMILES": "O=C1OC(=O)C(C1)C2C=3C=CC=CC3C4C(=O)OC(=O)C4C2",
        "Molecular Formula": "C<sub>16</sub>H<sub>12</sub>O<sub>6</sub>",
        "Molecular Mass": "300.26",
        "Melting Point": "182-197 °C"
    }
}