{
    "cas_no": "1666-13-3",
    "key_name": "Diphenyl diselenide",
    "cn_name": "二苯基二硒醚;二苯基二硒;",
    "alternate_name": "Diselenide, diphenyl;Phenyl diselenide;Diphenyl diselenide;NSC 49763;(Phenyldiselanyl)benzene;1,2-Diphenyldiselane",
    "duplicated_cas_no": "",
    "SMILES": "[Se]([Se]C1=CC=CC=C1)C2=CC=CC=C2",
    "meta_data": {
        "InChI": "InChI=1S/C12H10Se2/c1-3-7-11(8-4-1)13-14-12-9-5-2-6-10-12/h1-10H",
        "InChIKey": null,
        "Canonical SMILES": "[Se]([Se]C=1C=CC=CC1)C=2C=CC=CC2",
        "Molecular Formula": "C<sub>12</sub>H<sub>10</sub>Se<sub>2</sub>",
        "Molecular Mass": "312.13",
        "Boiling Point": "160 °C @ Press: 0.1 Torr",
        "Melting Point": "63.5 °C"
    }
}