{
    "cas_no": "2389-46-0",
    "key_name": "<em>N</em><sup>2</sup>-[(1,1-Dimethylethoxy)carbonyl]-<em>N</em><sup>6</sup>-[(phenylmethoxy)carbonyl]-<span class=\"text-smallcaps\">L</span>-lysine 4-nitrophenyl ester",
    "cn_name": null,
    "alternate_name": "<span class=\"text-smallcaps\">L</span>-Lysine, <em>N</em><sup>2</sup>-[(1,1-dimethylethoxy)carbonyl]-<em>N</em><sup>6</sup>-[(phenylmethoxy)carbonyl]-, 4-nitrophenyl ester;Lysine, <em>N</em><sup>2</sup>,<em>N</em><sup>6</sup>-dicarboxy-, <em>N</em><sup>6</sup>-benzyl <em>N</em><sup>2</sup>-<em>tert</em>-butyl <em>p</em>-nitrophenyl ester, <span class=\"text-smallcaps\">L</span>-;<em>N</em><sup>2</sup>-[(1,1-Dimethylethoxy)carbonyl]-<em>N</em><sup>6</sup>-[(phenylmethoxy)carbonyl]-<span class=\"text-smallcaps\">L</span>-lysine 4-nitrophenyl ester;<em>N</em><sup>6</sup>-Benzyloxycarbonyl-<em>N</em><sup>2</sup>-<em>tert</em>-butyloxycarbonyl-<span class=\"text-smallcaps\">L</span>-lysine <em>p</em>-nitrophenyl ester;NSC 164051;(4-Nitrophenyl) (2S)-2-[(2-methylpropan-2-yl)oxycarbonylamino]-6-(phenylmethoxycarbonylamino)hexanoate",
    "duplicated_cas_no": "",
    "SMILES": "O(C([C@@H](NC(OC(C)(C)C)=O)CCCCNC(OCC1=CC=CC=C1)=O)=O)C2=CC=C(N(=O)=O)C=C2",
    "meta_data": {
        "InChI": "InChI=1S/C25H31N3O8/c1-25(2,3)36-24(31)27-21(22(29)35-20-14-12-19(13-15-20)28(32)33)11-7-8-16-26-23(30)34-17-18-9-5-4-6-10-18/h4-6,9-10,12-15,21H,7-8,11,16-17H2,1-3H3,(H,26,30)(H,27,31)/t21-/m0/s1",
        "InChIKey": null,
        "Canonical SMILES": "O=C(OCC=1C=CC=CC1)NCCCCC(NC(=O)OC(C)(C)C)C(=O)OC2=CC=C(C=C2)N(=O)=O",
        "Molecular Formula": "C<sub>25</sub>H<sub>31</sub>N<sub>3</sub>O<sub>8</sub>",
        "Molecular Mass": "501.53",
        "Melting Point": "89 °C"
    }
}