{
    "cas_no": "73-24-5",
    "key_name": "Adenine",
    "cn_name": "腺嘌呤;",
    "alternate_name": "9<em>H</em>-Purin-6-amine;Adenine;1<em>H</em>-Purin-6-amine;6-Aminopurine;Vitamin B<sub>4</sub>;Adeninimine;6-Amino-1<em>H</em>-purine;6-Amino-3<em>H</em>-purine;6-Amino-9<em>H</em>-purine;1,6-Dihydro-6-iminopurine;Leuco 4;3,6-Dihydro-6-iminopurine;Pedatisectine B;NSC 14666;9<em>H</em>-Adenine;3<em>H</em>-Purin-6-amine;7<em>H</em>-Purin-6-amine;(9<em>H</em>-Purin-6-yl)amine;MeSH ID: D000225",
    "duplicated_cas_no": "520-75-2;22051-90-7;42911-33-1;42911-34-2;66224-65-5;71660-29-2;71660-30-5;1000264-10-7;1233216-08-4",
    "SMILES": "NC1=C2C(=NC=N1)N=CN2",
    "meta_data": {
        "InChI": "InChI=1S/C5H5N5/c6-4-3-5(9-1-7-3)10-2-8-4/h1-2H,(H3,6,7,8,9,10)",
        "InChIKey": null,
        "Canonical SMILES": "N1=CN=C(N)C=2NC=NC12",
        "Molecular Formula": "C<sub>5</sub>H<sub>5</sub>N<sub>5</sub>",
        "Molecular Mass": "135.13",
        "Melting Point": "360 °C (decomp)"
    }
}