{
    "cas_no": "299-84-3",
    "key_name": "Fenchlorphos",
    "cn_name": "皮蝇磷;芬氯磷；ENT-23284；OMS123；O，O-二甲基-O-(2，4，5-三氯苯基)硫逐磷酸酯;",
    "alternate_name": "Phosphorothioic acid, <em>O</em>,<em>O</em>-dimethyl <em>O</em>-(2,4,5-trichlorophenyl) ester;Dow ET 14;Dow ET 57;ET 57;ENT 23,284;<em>O</em>,<em>O</em>-Dimethyl <em>O</em>-(2,4,5-trichlorophenyl) phosphorothioate;<em>O</em>,<em>O</em>-Dimethyl <em>O</em>-(2,4,5-trichlorophenyl) thiophosphate;Etrolene;Fenchlorfos;Fenchlorphos;Korlane;Nanchor;Ronnel;Trolene;ET 14;Nankor;OMS 123;Remelt;Gesektin K;Trolen;Rovan;Moorman's Medicated Rid-Ezy;Blitex;Dermafos;Ectoral;Fenclofos;Korlan;Phenchlorfos;Fenclorvur;Trichlorometaphos;Trichlormetaphos;Viozene;<em>O</em>,<em>O</em>-Dimethyl <em>O</em>-(2,4,5-trichlorophenyl) phosphorothionate;NSC 8926;Fenclorfos",
    "duplicated_cas_no": "8028-28-2;8050-65-5;54328-12-0;56172-59-9",
    "SMILES": "O(P(OC)(OC)=S)C1=C(Cl)C=C(Cl)C(Cl)=C1",
    "meta_data": {
        "InChI": "InChI=1S/C8H8Cl3O3PS/c1-12-15(16,13-2)14-8-4-6(10)5(9)3-7(8)11/h3-4H,1-2H3",
        "InChIKey": null,
        "Canonical SMILES": "S=P(OC1=CC(Cl)=C(Cl)C=C1Cl)(OC)OC",
        "Molecular Formula": "C<sub>8</sub>H<sub>8</sub>Cl<sub>3</sub>O<sub>3</sub>PS",
        "Molecular Mass": "321.55",
        "Boiling Point": "97 °C @ Press: 9.8 x 10<sup>-3</sup> Torr",
        "Melting Point": "41 °C",
        "Density": "1.485 g/cm³ @ Temp: 25 °C"
    }
}