{
    "cas_no": "133-11-9",
    "key_name": "Phenyl 4-aminosalicylate",
    "cn_name": "对氨基水杨酸苯酯;4-氨基水杨酸苯酯;",
    "alternate_name": "Benzoic acid, 4-amino-2-hydroxy-, phenyl ester;Salicylic acid, 4-amino-, phenyl ester;<em>p</em>-Aminosalicylic acid phenyl ester;<em>p</em>-Aminosalol;Fenamisal;Phenyl <em>p</em>-aminosalicylate;Phenyl 4-aminosalicylate;Phenyl aminosalicylate;Phenyl PAS;Phenyl-PAS-Tebamin;Tebamin;Tebanyl;FR 7;PAS-Tebamin;Tebamin-Leo;Phenyl 4-amino-2-hydroxybenzoate;4-Aminosalicylic acid phenyl ester;Pheny-PAS-Tebamin;4-Amino-2-hydroxybenzoic acid phenyl ester;NSC 40144",
    "duplicated_cas_no": "",
    "SMILES": "C(OC1=CC=CC=C1)(=O)C2=C(O)C=C(N)C=C2",
    "meta_data": {
        "InChI": "InChI=1S/C13H11NO3/c14-9-6-7-11(12(15)8-9)13(16)17-10-4-2-1-3-5-10/h1-8,15H,14H2",
        "InChIKey": null,
        "Canonical SMILES": "O=C(OC=1C=CC=CC1)C2=CC=C(N)C=C2O",
        "Molecular Formula": "C<sub>13</sub>H<sub>11</sub>NO<sub>3</sub>",
        "Molecular Mass": "229.23",
        "Melting Point": "153 °C"
    }
}