{
    "cas_no": "15402-84-3",
    "key_name": "2-Methoxyamphetamine",
    "cn_name": "1-(2-甲氧苯基)-2-丙胺;",
    "alternate_name": "Benzeneethanamine, 2-methoxy-α-methyl-;Phenethylamine, <em>o</em>-methoxy-α-methyl-;2-Methoxy-α-methylbenzeneethanamine;<em>o</em>-Methoxy(phenylisopropyl)amine;2-Methoxyamphetamine;<em>o</em>-Methoxyamphetamine;2-Methoxy(phenylisopropyl)amine;<em>o</em>-Methoxy-α-methylphenethylamine;<em>N</em>-Demethylmethoxyphenamine;1-(2-Methoxyphenyl)-2-aminopropane;<em>N</em>-Desmethylmethoxyphenamine",
    "duplicated_cas_no": "52850-78-9",
    "SMILES": "C(C(C)N)C1=C(OC)C=CC=C1",
    "meta_data": {
        "InChI": "InChI=1S/C10H15NO/c1-8(11)7-9-5-3-4-6-10(9)12-2/h3-6,8H,7,11H2,1-2H3",
        "InChIKey": null,
        "Canonical SMILES": "O(C=1C=CC=CC1CC(N)C)C",
        "Molecular Formula": "C<sub>10</sub>H<sub>15</sub>NO",
        "Molecular Mass": "165.23",
        "Boiling Point": "117 °C @ Press: 14 Torr"
    }
}