{
    "cas_no": "3260-89-7",
    "key_name": "2-Chloro-6-methoxybenzoic acid",
    "cn_name": "2-氯-6-甲氧基苯甲酸;",
    "alternate_name": "Benzoic acid, 2-chloro-6-methoxy-;<em>o</em>-Anisic acid, 6-chloro-;2-Chloro-6-methoxybenzoic acid;2-Chloro-6-(methyloxy)benzoic acid",
    "duplicated_cas_no": "",
    "SMILES": "C(O)(=O)C1=C(OC)C=CC=C1Cl",
    "meta_data": {
        "InChI": "InChI=1S/C8H7ClO3/c1-12-6-4-2-3-5(9)7(6)8(10)11/h2-4H,1H3,(H,10,11)",
        "InChIKey": null,
        "Canonical SMILES": "O=C(O)C=1C(Cl)=CC=CC1OC",
        "Molecular Formula": "C<sub>8</sub>H<sub>7</sub>ClO<sub>3</sub>",
        "Molecular Mass": "186.59",
        "Melting Point": "141 °C"
    }
}