{
    "cas_no": "1829-32-9",
    "key_name": "3-Chlorosalicylic acid",
    "cn_name": "3-氯水扬酸;",
    "alternate_name": "Benzoic acid, 3-chloro-2-hydroxy-;Salicylic acid, 3-chloro-;3-Chloro-2-hydroxybenzoic acid;3-Chlorosalicylic acid;NSC 18854",
    "duplicated_cas_no": "",
    "SMILES": "C(O)(=O)C1=C(O)C(Cl)=CC=C1",
    "meta_data": {
        "InChI": "InChI=1S/C7H5ClO3/c8-5-3-1-2-4(6(5)9)7(10)11/h1-3,9H,(H,10,11)",
        "InChIKey": null,
        "Canonical SMILES": "O=C(O)C=1C=CC=C(Cl)C1O",
        "Molecular Formula": "C<sub>7</sub>H<sub>5</sub>ClO<sub>3</sub>",
        "Molecular Mass": "172.57",
        "Melting Point": "180-182 °C",
        "Density": "0.863 g/cm³ @ Temp: 20 °C"
    }
}