{
    "cas_no": "538-09-0",
    "key_name": "Nortropine",
    "cn_name": "去甲托品醇;",
    "alternate_name": "8-Azabicyclo[3.2.1]octan-3-ol, (3-<em>endo</em>)-;Nortropine;1α<span class=\"text-smallcaps\">H</smallcap>,5α<smallcap>H</span>-Nortropan-3α-ol;8-Azabicyclo[3.2.1]octan-3-ol, <em>endo</em>-;(3-<em>endo</em>)-8-Azabicyclo[3.2.1]octan-3-ol;Tropigenine;Tropigenin;Nortropin;Nortropenol;NSC 72850;<em>N</em>-Demethyltropine;<em>endo</em>-8-Azabicyclo[3.2.1]octan-3-ol;3α-Nortropanol",
    "duplicated_cas_no": "1638683-56-3",
    "SMILES": "O[C@H]1C[C@@]2(N[C@@](CC2)(C1)[H])[H]",
    "meta_data": {
        "InChI": "InChI=1/C7H13NO/c9-7-3-5-1-2-6(4-7)8-5/h5-9H,1-4H2/t5-,6+,7+",
        "InChIKey": null,
        "Canonical SMILES": "OC1CC2NC(CC2)C1",
        "Molecular Formula": "C<sub>7</sub>H<sub>13</sub>NO",
        "Molecular Mass": "127.18",
        "Melting Point": "161 °C"
    }
}