{
    "cas_no": "32446-40-5",
    "key_name": "Thiocyanic acid, pentyl ester",
    "cn_name": null,
    "alternate_name": "Thiocyanic acid, pentyl ester;Pentane, 1-thiocyanato-;Amyl thiocyanate;Pentyl thiocyanate;<em>n</em>-Pentyl thiocyanate;1-Thiocyanatopentane",
    "duplicated_cas_no": "",
    "SMILES": "C(CSC#N)CCC",
    "meta_data": {
        "InChI": "InChI=1S/C6H11NS/c1-2-3-4-5-8-6-7/h2-5H2,1H3",
        "InChIKey": null,
        "Canonical SMILES": "N#CSCCCCC",
        "Molecular Formula": "C<sub>6</sub>H<sub>11</sub>NS",
        "Molecular Mass": "129.22",
        "Boiling Point": "90-91 °C @ Press: 16 Torr",
        "Density": "0.9412 g/cm³ @ Temp: 25 °C"
    }
}