{
    "cas_no": "33878-99-8",
    "key_name": "(+)-Wieland-Miescher ketone",
    "cn_name": null,
    "alternate_name": "1,6(2<em>H</em>,7<em>H</em>)-Naphthalenedione, 3,4,8,8a-tetrahydro-8a-methyl-, (8a<em>S</em>)-;1,6(2<em>H</em>,7<em>H</em>)-Naphthalenedione, 3,4,8,8a-tetrahydro-8a-methyl-, (<em>S</em>)-(+)-;1,6(2<em>H</em>,7<em>H</em>)-Naphthalenedione, 3,4,8,8a-tetrahydro-8a-methyl-, (<em>S</em>)-;(8a<em>S</em>)-3,4,8,8a-Tetrahydro-8a-methyl-1,6(2<em>H</em>,7<em>H</em>)-naphthalenedione;(<em>S</em>)-1,2,3,4,6,7,8,8a-Octahydro-8a-methyl-1,6-naphthalenedione;(<em>S</em>)-Wieland-Miescher ketone;(+)-Wieland-Miescher ketone;(8AS)-8a-methyl-1,2,3,4,6,7,8,8a-octahydronaphthalene-1,6-dione;(<em>S</em>)-(+)-3,4,8,8a-Tetrahydro-8a-methyl-1,6(2<em>H</em>,7<em>H</em>)-naphthalenedione",
    "duplicated_cas_no": "",
    "SMILES": "C[C@@]12C(=CC(=O)CC1)CCCC2=O",
    "meta_data": {
        "InChI": "InChI=1S/C11H14O2/c1-11-6-5-9(12)7-8(11)3-2-4-10(11)13/h7H,2-6H2,1H3/t11-/m0/s1",
        "InChIKey": null,
        "Canonical SMILES": "O=C1C=C2CCCC(=O)C2(C)CC1",
        "Molecular Formula": "C<sub>11</sub>H<sub>14</sub>O<sub>2</sub>",
        "Molecular Mass": "178.23",
        "Melting Point": "49 °C"
    }
}