{
    "cas_no": "86087-24-3",
    "key_name": "(-)-3-Hydroxytetrahydrofuran",
    "cn_name": null,
    "alternate_name": "3-Furanol, tetrahydro-, (3<em>R</em>)-;3-Furanol, tetrahydro-, (<em>R</em>)-;(3<em>R</em>)-Tetrahydro-3-furanol;(<em>R</em>)-Tetrahydro-3-furanol;(-)-3-Hydroxytetrahydrofuran;(<em>R</em>)-(-)-3-Hydroxytetrahydrofuran;(<em>R</em>)-3-Hydroxytetrahydrofuran;3(<em>R</em>)-Hydroxytetrahydrofuran;(<em>R</em>)-Tetrahydrofuran-3-ol;(3<em>R</em>)-3-Hydroxytetrahydrofuran;(<em>R</em>)-(-)-Tetrahydrofuran-3-ol;(R)-(-)-Tetrahydrofuran-3-ol;(3R)-Tetrahydrofuran-3-ol;(3R)-Oxolan-3-ol;(3<em>R</em>)-Oxolan-3-ol;(R)-3-Hydroxytetrahydrofuran;(r)-(-)-3-Hydroxytetrahydrofuran;3-Furanol tetrahydro-, (3R)-",
    "duplicated_cas_no": "",
    "SMILES": "O[C@@H]1CCOC1",
    "meta_data": {
        "InChI": "InChI=1S/C4H8O2/c5-4-1-2-6-3-4/h4-5H,1-3H2/t4-/m1/s1",
        "InChIKey": null,
        "Canonical SMILES": "OC1COCC1",
        "Molecular Formula": "C<sub>4</sub>H<sub>8</sub>O<sub>2</sub>",
        "Molecular Mass": "88.11",
        "Boiling Point": "68-70 °C @ Press: 12 Torr"
    }
}