{
    "cas_no": "594-70-7",
    "key_name": "2-Methyl-2-nitropropane",
    "cn_name": "2-甲基-2-硝基丙烷;叔硝基丁烷;特硝基丁烷;",
    "alternate_name": "Propane, 2-methyl-2-nitro-;2-Methyl-2-nitropropane;Trimethylnitromethane;2-Nitroisobutane;1,1-Dimethyl-1-nitroethane;2-Nitro-2-methylpropane;NSC 3651",
    "duplicated_cas_no": "",
    "SMILES": "C(N(=O)=O)(C)(C)C",
    "meta_data": {
        "InChI": "InChI=1S/C4H9NO2/c1-4(2,3)5(6)7/h1-3H3",
        "InChIKey": null,
        "Canonical SMILES": "O=N(=O)C(C)(C)C",
        "Molecular Formula": "C<sub>4</sub>H<sub>9</sub>NO<sub>2</sub>",
        "Molecular Mass": "103.12",
        "Boiling Point": "127.16 °C",
        "Melting Point": "26.23 °C"
    }
}