{
    "cas_no": "619-08-9",
    "key_name": "Nitrofungin",
    "cn_name": "2-氯-4-硝基苯酚;",
    "alternate_name": "Phenol, 2-chloro-4-nitro-;2-Chloro-4-nitrophenol;Nitrofungin;NSC 1316",
    "duplicated_cas_no": "",
    "SMILES": "N(=O)(=O)C1=CC(Cl)=C(O)C=C1",
    "meta_data": {
        "InChI": "InChI=1S/C6H4ClNO3/c7-5-3-4(8(10)11)1-2-6(5)9/h1-3,9H",
        "InChIKey": null,
        "Canonical SMILES": "O=N(=O)C1=CC=C(O)C(Cl)=C1",
        "Molecular Formula": "C<sub>6</sub>H<sub>4</sub>ClNO<sub>3</sub>",
        "Molecular Mass": "173.55",
        "Melting Point": "110-111 °C"
    }
}