{
    "cas_no": "118-75-2",
    "key_name": "Chloranil",
    "cn_name": "四氯苯醌;",
    "alternate_name": "2,5-Cyclohexadiene-1,4-dione, 2,3,5,6-tetrachloro-;<em>p</em>-Benzoquinone, 2,3,5,6-tetrachloro-;2,3,5,6-Tetrachloro-2,5-cyclohexadiene-1,4-dione;ENT 3797;Chloranil;Dow Seed Disinfectant No. 5;Reranil;Spergon I;Spergon;Spergon Technical;Tetrachlorobenzoquinone;Tetrachloro-<em>p</em>-benzoquinone;2,3,5,6-Tetrachloro-1,4-benzoquinone;Tetrachloroquinone;Tetrachloro-<em>p</em>-quinone;Vulklor;<em>p</em>-Chloranil;Coversan;Tetrachloro-1,4-benzoquinone;2,3,5,6-Tetrachlorobenzoquinone;2,3,5,6-Tetrachloro-<em>p</em>-benzoquinone;2,3,5,6-Tetrachloroquinone;Quinone tetrachloride;α-Chloranil;Psorisan;Actor CL;2,3,5,6-Tetrachlorocyclohexadiene-1,4-dione;1,2,4,5-Tetrachlorobenzoquinone;NSC 8432;2,3,5,6-Tetrachloro-1,4-(<em>p</em>-)-benzoquinone;MeSH ID: D002703",
    "duplicated_cas_no": "142655-99-0;856302-53-9",
    "SMILES": "ClC1=C(Cl)C(=O)C(Cl)=C(Cl)C1=O",
    "meta_data": {
        "InChI": "InChI=1S/C6Cl4O2/c7-1-2(8)6(12)4(10)3(9)5(1)11",
        "InChIKey": null,
        "Canonical SMILES": "O=C1C(Cl)=C(Cl)C(=O)C(Cl)=C1Cl",
        "Molecular Formula": "C<sub>6</sub>Cl<sub>4</sub>O<sub>2</sub>",
        "Molecular Mass": "245.88",
        "Melting Point": "290 °C",
        "Density": "1.97 g/cm³"
    }
}