{
    "cas_no": "24072-75-1",
    "key_name": "2-Amino-5,6-dichlorobenzothiazole",
    "cn_name": "2-氨基-5,6-二氯苯并噻唑;",
    "alternate_name": "2-Benzothiazolamine, 5,6-dichloro-;Benzothiazole, 2-amino-5,6-dichloro-;5,6-Dichloro-2-benzothiazolamine;2-Amino-5,6-dichlorobenzothiazole;5,6-Dichloro-2-aminobenzothiazole;5,6-Dichloro-1,3-benzothiazol-2-ylamine",
    "duplicated_cas_no": "",
    "SMILES": "ClC=1C=C2C(=CC1Cl)SC(N)=N2",
    "meta_data": {
        "InChI": "InChI=1S/C7H4Cl2N2S/c8-3-1-5-6(2-4(3)9)12-7(10)11-5/h1-2H,(H2,10,11)",
        "InChIKey": null,
        "Canonical SMILES": "ClC1=CC=2N=C(SC2C=C1Cl)N",
        "Molecular Formula": "C<sub>7</sub>H<sub>4</sub>Cl<sub>2</sub>N<sub>2</sub>S",
        "Molecular Mass": "219.09",
        "Melting Point": "218-219 °C"
    }
}