{
    "cas_no": "2859-78-1",
    "key_name": "Bromoveratrole",
    "cn_name": "4-溴黎芦醚;4-溴-1,2-二甲氧基苯;4-溴-1,2-邻苯二甲醚;3,4-二甲氧基溴苯;",
    "alternate_name": "Benzene, 4-bromo-1,2-dimethoxy-;Veratrole, 4-bromo-;4-Bromo-1,2-dimethoxybenzene;1-Bromo-3,4-dimethoxybenzene;4-Bromoveratrole;3,4-Dimethoxyphenyl bromide;3,4-Dimethoxybromobenzene;Bromoveratrole;4-Bromo-2-methoxyanisole;3,4-Dimethoxy-1-bromobenzene;NSC 36284;1,2-Dimethoxy-4-bromobenzene",
    "duplicated_cas_no": "",
    "SMILES": "O(C)C1=C(OC)C=C(Br)C=C1",
    "meta_data": {
        "InChI": "InChI=1S/C8H9BrO2/c1-10-7-4-3-6(9)5-8(7)11-2/h3-5H,1-2H3",
        "InChIKey": null,
        "Canonical SMILES": "BrC1=CC=C(OC)C(OC)=C1",
        "Molecular Formula": "C<sub>8</sub>H<sub>9</sub>BrO<sub>2</sub>",
        "Molecular Mass": "217.06",
        "Boiling Point": "254.5 °C",
        "Melting Point": "123 °C",
        "Density": "1.5068 g/cm³ @ Temp: 20 °C"
    }
}