{
    "cas_no": "153851-71-9",
    "key_name": "5<em>H</em>-Pyrazolo[1,2-<em>a</em>][1,2,4]triazol-4-ium, 6,7-dihydro-6-mercapto-, chloride (1:1)",
    "cn_name": "6,7-二氢-6-巯基-5H-吡唑[1,2-a][1,2,4]三唑内鎓氯化物;比阿培南侧链;",
    "alternate_name": "5<em>H</em>-Pyrazolo[1,2-<em>a</em>][1,2,4]triazol-4-ium, 6,7-dihydro-6-mercapto-, chloride (1:1);5<em>H</em>-Pyrazolo[1,2-<em>a</em>][1,2,4]triazol-4-ium, 6,7-dihydro-6-mercapto-, chloride",
    "duplicated_cas_no": "",
    "SMILES": "SC1CN2[N+](C1)=CN=C2.[Cl-]",
    "meta_data": {
        "InChI": "InChI=1S/C5H7N3S.ClH/c9-5-1-7-3-6-4-8(7)2-5;/h3-5H,1-2H2;1H",
        "InChIKey": null,
        "Canonical SMILES": "[Cl-].SC1CN2C=NC=[N+]2C1",
        "Molecular Formula": "C<sub>5</sub>H<sub>8</sub>N<sub>3</sub>S.Cl",
        "Molecular Mass": "",
        "Melting Point": "127-128 °C (decomp)"
    }
}