{
    "cas_no": "93957-49-4",
    "key_name": "3-(4-Fluorophenyl)-1-(1-methylethyl)-1<em>H</em>-indole",
    "cn_name": "3-(4-氟苯基)-1-异丙基-1H-吲哚;1-异丙基-3-(4-氟苯基)吲哚;",
    "alternate_name": "1<em>H</em>-Indole, 3-(4-fluorophenyl)-1-(1-methylethyl)-;3-(4-Fluorophenyl)-1-(1-methylethyl)-1<em>H</em>-indole;1-Isopropyl-3-(4-fluorophenyl)indole;3-(4-Fluorophenyl)-1-isopropyl-1<em>H</em>-indole",
    "duplicated_cas_no": "",
    "SMILES": "C(C)(C)N1C=C(C=2C1=CC=CC2)C3=CC=C(F)C=C3",
    "meta_data": {
        "InChI": "InChI=1S/C17H16FN/c1-12(2)19-11-16(13-7-9-14(18)10-8-13)15-5-3-4-6-17(15)19/h3-12H,1-2H3",
        "InChIKey": null,
        "Canonical SMILES": "FC=1C=CC(=CC1)C2=CN(C=3C=CC=CC23)C(C)C",
        "Molecular Formula": "C<sub>17</sub>H<sub>16</sub>FN",
        "Molecular Mass": "253.31",
        "Melting Point": "94-95 °C"
    }
}