{
    "cas_no": "119-93-7",
    "key_name": "<em>o</em>-Tolidine",
    "cn_name": "3,3\"-二甲基联苯胺;4,4\"-二氨基-3,3\"-二甲基联苯;",
    "alternate_name": "[1,1′-Biphenyl]-4,4′-diamine, 3,3′-dimethyl-;Benzidine, 3,3′-dimethyl-;3,3′-Dimethyl[1,1′-biphenyl]-4,4′-diamine;C.I. 37230;C.I. Azoic Diazo Component 113;3,3′-Dimethylbenzidine;Fast Dark Blue Base R;<em>o</em>-Tolidine;3,3′-Tolidine;3,3′-Dimethyl-4,4′-biphenyldiamine;3,3′-Dimethyl-4,4′-diaminobiphenyl;4,4′-Diamino-3,3′-dimethylbiphenyl;<em>o</em>,<em>o</em>′-Tolidine;4′-Amino-3,3′-dimethyl[1,1′-biphenyl]-4-ylamine;4,4′-Diamino-3,3′-dimethyl-1,1′-biphenyl",
    "duplicated_cas_no": "",
    "SMILES": "CC=1C=C(C=CC1N)C2=CC(C)=C(N)C=C2",
    "meta_data": {
        "InChI": "InChI=1S/C14H16N2/c1-9-7-11(3-5-13(9)15)12-4-6-14(16)10(2)8-12/h3-8H,15-16H2,1-2H3",
        "InChIKey": null,
        "Canonical SMILES": "NC=1C=CC(=CC1C)C2=CC=C(N)C(=C2)C",
        "Molecular Formula": "C<sub>14</sub>H<sub>16</sub>N<sub>2</sub>",
        "Molecular Mass": "212.29",
        "Boiling Point": "300 °C",
        "Melting Point": "129-131 °C",
        "Density": "1.234 g/cm³"
    }
}