{
    "cas_no": "21901-34-8",
    "key_name": "3-Methyl-5-nitro-2(1<em>H</em>)-pyridinone",
    "cn_name": "2-羟基-5-硝基-3-甲基吡啶;2-羟基-3-甲基-5-硝基吡啶;",
    "alternate_name": "2(1<em>H</em>)-Pyridinone, 3-methyl-5-nitro-;2-Pyridinol, 3-methyl-5-nitro-;3-Methyl-5-nitro-2(1<em>H</em>)-pyridinone;2-Hydroxy-3-methyl-5-nitropyridine;6-Hydroxy-5-methyl-3-nitropyridine;3-Methyl-5-nitro-2-pyridinol;NSC 63888;3-Methyl-5-nitropyridin-2(1<em>H</em>)-one;2-Hydroxy-5-nitro-3-picoline;3-Methyl-5-nitro-1<em>H</em>-pyridin-2-one;3-Methyl-5-nitro-1,2-dihydropyridin-2-one",
    "duplicated_cas_no": "",
    "SMILES": "N(=O)(=O)C=1C=C(C)C(=O)NC1",
    "meta_data": {
        "InChI": "InChI=1S/C6H6N2O3/c1-4-2-5(8(10)11)3-7-6(4)9/h2-3H,1H3,(H,7,9)",
        "InChIKey": null,
        "Canonical SMILES": "O=C1NC=C(C=C1C)N(=O)=O",
        "Molecular Formula": "C<sub>6</sub>H<sub>6</sub>N<sub>2</sub>O<sub>3</sub>",
        "Molecular Mass": "154.12",
        "Melting Point": "228.5-229.5 °C"
    }
}