{
    "cas_no": "17808-21-8",
    "key_name": "6-Chlorotryptophan",
    "cn_name": "6-氯-DL-色氨酸;",
    "alternate_name": "Tryptophan, 6-chloro-;Tryptophan, 6-chloro-, <span class=\"text-smallcaps\">DL</span>-;<span class=\"text-smallcaps\">DL</span>-Tryptophan, 6-chloro-;6-Chlorotryptophan;<span class=\"text-smallcaps\">DL</span>-6-Chlorotryptophan;<span class=\"text-smallcaps\">DL</span>-6-Chlorotryptophane;6-Chloro-<span class=\"text-smallcaps\">DL</span>-tryptophan;2-Amino-3-(6-chloro-1<em>H</em>-indol-3-yl)propanoic acid",
    "duplicated_cas_no": "17808-35-4",
    "SMILES": "C(C(C(O)=O)N)C=1C=2C(NC1)=CC(Cl)=CC2",
    "meta_data": {
        "InChI": "InChI=1S/C11H11ClN2O2/c12-7-1-2-8-6(3-9(13)11(15)16)5-14-10(8)4-7/h1-2,4-5,9,14H,3,13H2,(H,15,16)",
        "InChIKey": null,
        "Canonical SMILES": "O=C(O)C(N)CC1=CNC=2C=C(Cl)C=CC21",
        "Molecular Formula": "C<sub>11</sub>H<sub>11</sub>ClN<sub>2</sub>O<sub>2</sub>",
        "Molecular Mass": "238.67",
        "Melting Point": "285-286 °C (decomp)"
    }
}