{
    "cas_no": "106-35-4",
    "key_name": "3-Heptanone",
    "cn_name": null,
    "alternate_name": "3-Heptanone;<em>n</em>-Butyl ethyl ketone;Ethyl butyl ketone;Butyl ethyl ketone;Ethyl <em>n</em>-butyl ketone;3-Oxoheptane;NSC 8448;5-Heptanone",
    "duplicated_cas_no": "",
    "SMILES": "C(CCCC)(CC)=O",
    "meta_data": {
        "InChI": "InChI=1S/C7H14O/c1-3-5-6-7(8)4-2/h3-6H2,1-2H3",
        "InChIKey": null,
        "Canonical SMILES": "O=C(CC)CCCC",
        "Molecular Formula": "C<sub>7</sub>H<sub>14</sub>O",
        "Molecular Mass": "114.19",
        "Boiling Point": "147 °C @ Press: 765 Torr",
        "Melting Point": "-39 °C",
        "Density": "0.8183 g/cm³ @ Temp: 20 °C"
    }
}