{
    "cas_no": "6069-98-3",
    "key_name": "<em>cis</em>-1-Isopropyl-4-methylcyclohexane",
    "cn_name": null,
    "alternate_name": "Cyclohexane, 1-methyl-4-(1-methylethyl)-, <em>cis</em>-;<em>p</em>-Menthane, <em>cis</em>-;<em>cis</em>-1-Methyl-4-(1-methylethyl)cyclohexane;<em>cis</em>-<em>p</em>-Menthane;1-Isopropyl-<em>cis</em>-4-methylcyclohexane;1-Methyl-<em>cis</em>-4-isopropylcyclohexane;<em>cis</em>-1-Isopropyl-4-methylcyclohexane",
    "duplicated_cas_no": "",
    "SMILES": "C(C)(C)[C@H]1CC[C@@H](C)CC1",
    "meta_data": {
        "InChI": "InChI=1/C10H20/c1-8(2)10-6-4-9(3)5-7-10/h8-10H,4-7H2,1-3H3/t9-,10+",
        "InChIKey": null,
        "Canonical SMILES": "CC(C)C1CCC(C)CC1",
        "Molecular Formula": "C<sub>10</sub>H<sub>20</sub>",
        "Molecular Mass": "140.27",
        "Boiling Point": "172 °C",
        "Melting Point": "-89.9 °C",
        "Density": "0.8075 g/cm³ @ Temp: 20 °C"
    }
}