{
    "cas_no": "1970-40-7",
    "key_name": "Pyriclor",
    "cn_name": "三氯吡啶醇;",
    "alternate_name": "4-Pyridinol, 2,3,5-trichloro-;2,3,5-Trichloro-4-pyridinol;M 2901;Daxtron;Pyriclor;Pyrichlor",
    "duplicated_cas_no": "",
    "SMILES": "ClC=1C(O)=C(Cl)C=NC1Cl",
    "meta_data": {
        "InChI": "InChI=1S/C5H2Cl3NO/c6-2-1-9-5(8)3(7)4(2)10/h1H,(H,9,10)",
        "InChIKey": null,
        "Canonical SMILES": "ClC1=NC=C(Cl)C(O)=C1Cl",
        "Molecular Formula": "C<sub>5</sub>H<sub>2</sub>Cl<sub>3</sub>NO",
        "Molecular Mass": "198.43",
        "Melting Point": "216 °C"
    }
}