{
    "cas_no": "12092-47-6",
    "key_name": "Di-μ-chlorobis[(1,2,5,6-η)-1,5-cyclooctadiene]dirhodium",
    "cn_name": "(1,5-环辛二烯)氯铑(I)二聚体;",
    "alternate_name": "Rhodium, di-μ-chlorobis[(1,2,5,6-η)-1,5-cyclooctadiene]di-;Rhodium, di-μ-chlorobis(1,5-cyclooctadiene)di-;Rhodium, dichlorobis(1,5-cyclooctadiene)di-;1,5-Cyclooctadiene, rhodium complex;Di-μ-chlorobis[(1,2,5,6-η)-1,5-cyclooctadiene]dirhodium;Rhodium 1,5-cyclooctadiene chloride dimer;Di-μ-Chlorobis(1,5-cyclooctadiene)dirhodium;Chloro(1,5-cyclooctadiene)rhodium dimer;Dichlorobis(cyclooctadiene)dirhodium;Dichlorobis(1,5-cyclooctadiene)dirhodium;Bis(μ-chloro)bis(1,5-cyclooctadiene)dirhodium;Chloro(cyclooctadiene)rhodium dimer;Cyclooctadiene rhodium chloride dimer;Di-μ-chlorobis(cyclooctadiene)dirhodium;(1,5-Cyclooctadiene)rhodium chloride dimer;Chlororhodium (1,5-cyclooctadiene) dimer;Bis(chloro(1,5-cyclooctadiene)rhodium);Bis(1,5-cyclooctadiene)dirhodium dichloride;Di-μ-chlorobis(η<sup>4</sup>-1,5-cyclooctadiene)dirhodium;Bis((1,5-cyclooctadiene)(chloro)rhodium);(η<sup>4</sup>-1,5-Cyclooctadiene)rhodium chloride dimer;(1,5-Cyclooctadiene)rhodium(I) chloride dimer;Bis((μ-chloro)(η<sup>4</sup>-1,5-cyclooctadiene)rhodium);μ-Chloro(1,5-cyclooctadiene)rhodium(I) dimer;Bis(chloro(η<sup>4</sup>-1,5-cyclooctadiene)rhodium);[Rh(COD)Cl]<sub>2</sub>;Di-μ-chlorobis(η<sup>4</sup>-1,5-cyclooctadiene)dirhodium(I);Dichlorobis(1,5-cyclooctadiene)rhodium(I);Bis(μ<sub>2</sub>-chloro)bis(1,5-cyclooctadiene)dirhodium;Bis(cyclooctadienerhodium chloride);Bis(μ-chloro)bis[(1,5-cyclooctadiene)rhodium];Di-μ<sub>2</sub>-chlorobis(1,5-cyclooctadiene)dirhodium;Di-μ-chlorobis[(1,5-cyclooctadiene)rhodium];Bis(cyclooctadiene)dichlorodirhodium;Chloro(1,5-cyclooctadiene)rhodium (I) dimer;[Rh(1,5-cod)Cl]2",
    "duplicated_cas_no": "116464-46-1;11067-06-4;58006-04-5;69039-68-5",
    "SMILES": "[Rh+]1234([Cl-][Rh+]567([Cl-]1)[CH]8=[CH]5CC[CH]6=[CH]7CC8)[CH]9=[CH]2CC[CH]3=[CH]4CC9",
    "meta_data": {
        "InChI": "InChI=1S/2C8H12.2ClH.2Rh/c2*1-2-4-6-8-7-5-3-1;;;;/h2*1-2,7-8H,3-6H2;2*1H;;/q;;;;2*+1/p-2",
        "InChIKey": null,
        "Canonical SMILES": "[Cl-]1[Rh+]234([Cl-][Rh+]1567[CH]=8CC[CH]7=[CH]6CC[CH]85)[CH]=9CC[CH]4=[CH]3CC[CH]92",
        "Molecular Formula": "C<sub>16</sub>H<sub>24</sub>Cl<sub>2</sub>Rh<sub>2</sub>",
        "Molecular Mass": "",
        "Melting Point": "224-226 °C (decomp)"
    }
}