{
    "cas_no": "456-04-2",
    "key_name": "2-Chloro-4′-fluoroacetophenone",
    "cn_name": "2-氯代-4\"-氟苯乙酮;alpha-氯代对氟苯乙酮;",
    "alternate_name": "Ethanone, 2-chloro-1-(4-fluorophenyl)-;Acetophenone, 2-chloro-4′-fluoro-;2-Chloro-1-(4-fluorophenyl)ethanone;<em>p</em>-Fluorophenacyl chloride;2-Chloro-1-(4-fluorophenyl)-1-ethanone;4-Fluorophenacyl chloride;α-Chloro-<em>p</em>-fluoroacetophenone;2-Chloro-4′-fluoroacetophenone;4′-Fluoro-2-chloroacetophenone;2-Chloro-1-(4′-fluorophenyl)ethanone;2′-Chloro-4-fluoroacetophenone;Chloromethyl 4-fluorophenyl ketone",
    "duplicated_cas_no": "",
    "SMILES": "C(CCl)(=O)C1=CC=C(F)C=C1",
    "meta_data": {
        "InChI": "InChI=1S/C8H6ClFO/c9-5-8(11)6-1-3-7(10)4-2-6/h1-4H,5H2",
        "InChIKey": null,
        "Canonical SMILES": "O=C(C1=CC=C(F)C=C1)CCl",
        "Molecular Formula": "C<sub>8</sub>H<sub>6</sub>ClFO",
        "Molecular Mass": "172.58",
        "Boiling Point": "137 °C",
        "Melting Point": "48 °C"
    }
}