{
    "cas_no": "33263-43-3",
    "key_name": "4-Chloro-3-pyridinesulfonamide",
    "cn_name": "4-氯吡啶-3-磺酰胺;",
    "alternate_name": "3-Pyridinesulfonamide, 4-chloro-;4-Chloro-3-pyridinesulfonamide;4-Chloro-3-pyridylsulfonamide",
    "duplicated_cas_no": "",
    "SMILES": "S(N)(=O)(=O)C=1C(Cl)=CC=NC1",
    "meta_data": {
        "InChI": "InChI=1S/C5H5ClN2O2S/c6-4-1-2-8-3-5(4)11(7,9)10/h1-3H,(H2,7,9,10)",
        "InChIKey": null,
        "Canonical SMILES": "O=S(=O)(N)C=1C=NC=CC1Cl",
        "Molecular Formula": "C<sub>5</sub>H<sub>5</sub>ClN<sub>2</sub>O<sub>2</sub>S",
        "Molecular Mass": "192.62",
        "Melting Point": "155-157 °C"
    }
}