{
    "cas_no": "589-21-9",
    "key_name": "(4-Bromophenyl)hydrazine",
    "cn_name": "4-溴苯基肼;对溴苯肼;4-溴苯肼;",
    "alternate_name": "Hydrazine, (4-bromophenyl)-;Hydrazine, (<em>p</em>-bromophenyl)-;(4-Bromophenyl)hydrazine;(<em>p</em>-Bromophenyl)hydrazine;1-(4-Bromophenyl)hydrazine;NSC 190724",
    "duplicated_cas_no": "2567792-05-4",
    "SMILES": "N(N)C1=CC=C(Br)C=C1",
    "meta_data": {
        "InChI": "InChI=1S/C6H7BrN2/c7-5-1-3-6(9-8)4-2-5/h1-4,9H,8H2",
        "InChIKey": null,
        "Canonical SMILES": "BrC1=CC=C(C=C1)NN",
        "Molecular Formula": "C<sub>6</sub>H<sub>7</sub>BrN<sub>2</sub>",
        "Molecular Mass": "187.04",
        "Melting Point": "108 °C"
    }
}