{
    "cas_no": "1309-42-8",
    "key_name": "Magnesium hydroxide",
    "cn_name": "氢氧化镁;",
    "alternate_name": "Magnesium hydroxide (Mg(OH)<sub>2</sub>);Magnesium hydroxide;Magnesia Magma;Milk of magnesia;Marinco H 1241;Magnesium dihydroxide;Marinco H;S/G 84;Magnesia hydrate;Kisuma 5A;Ki 22-5B;Kyowamag F;Milmag;Kisuma 4AF;Star 200;Kisuma 7B;Lycal 96HSE;Kisuma 5E;Kisuma 5;Magnesiamaito;Asahi Glass 200-06;Combustrol 500;NF 2000;KX 4S;Kisuma S 4;Versamag;KX 80;KX 8S(A);KX 8S(B);Martinal VPF 8812;Kisuma 5BG;Magstar 10;Kisuma 5B-N;Magnifin H 7;Magnifin H 10;FloMag H;FloMag HUS;Alcanex NHC 25;PT 25ST;Magnesium(II) hydroxide;Zerogen 30F;Magstar 5;Kisuma 3A;Daimushew 6000;Kisuma 5EU;Star Brand 100;Kisuma 5A-N;Magnifin H 5;Magseeds N 1;DP 393;Magnifin H 5KV;Z 00-06H;Star Brand 200;Ebson RF;Zerogen 60;PG 91146;Duhor;Magnifin SE 630;DSB 100;Duhor N;MagneClear 58;Magnifin H 5L;N 3;Kisuma 5AU;Hydrofy G 2.5;N 0;Hydrofy G 1.5;N 0 (curing accelerator);Hydrofy N;MH 95-002;N 1;Mag Chem MH 10;Kisuma 120;Zerogen 51;SP;MS 4;Zerogen 10;Zerogen 10SP;SP (hydroxide);MS 4 (hydroxide);200-06H;VD 650;Kisuma 2;10A;Magseeds N 3;Kisuma;UB 650;FR 20-310;Kisuma KX 4SU;Magseeds N 4;SX 30MS;Finemag MO-T;Finemag SN-L;Odomag;Kisuma 54A;Kisuma 6E;Mint-O-Mag;Phillips Milk of Magnesia Liquid;Lederscon;Phillips Magnesia Tablets;Zerogen 50SP;UD 650;Kisuma 8N;Magshield 98;Kisuma 5L;Apymag AOH 820;Echomag ZL;Burusaito;Zerogen Vertex;Magnifin A;Magstar;Finemag MO;Z 50SP;MH 3;Maglux ST;Maglux;Magnifin H 5HV;Novadol;Kiyouwasuimagu F;FD 905U;MZG 4;Kisuma 8;Magnefin H 5;Kisuma 5Q;WH 4;Magshield S;Magseeds W-R 4;Maglux STF 2;96HS;Magseeds W;Delamin FRA-B 15;Thioguard;Aquamag (hydroxide);Aquamag;Securoc B 10;Nittomagu S;MH 30;MGZ 4;5D12;WH 25;Kisuma 5R;Magseeds S 1;Kisuma 5X;Junmag C;MgZ 1;Maglux NT;Kisuma F;Kisuma 1;Maglux ST 2;Kisuma 200;StanMag Hydroxide B;MGZ 5-19;B 54;Vertex 100;MGZ 3;Magnesia 50H;Magseeds W-X 3;S 40 (hydroxide);Magnesia 100H;UD 653;Kisuma 5SS;Magshield UF-NB 10;H 5;PZ 1SP;Magshield U;Magseeds S 4;Vertex HST;MGZ 2;Echomag PZ 1G;Polysafe MG 2;Magseeds W-H 5;WX 3;FM 70D;FR 20S10;Envimag;N 6;Magnifin H 7C;FM 70;FR 20/100;Vertex 60;Vertex 90;Vertex 100SV;2N;2N (magnesium hydroxide);Magseeds N 6;M-O-W;3320HT;Kisuma 4;Magseeds S 6;936A;Apymag 40S;Echomag PZ 1;PZ 1;Vertex 90SF;Tiger B 15;DG 800;H 10;Magseeds EP 1A;EP 1A;Pural MG 100;Echomag PZ 1SP;Kyowasuimag;MS 1H;YZ-GX 105;QM 70;Kisuma 5C;Kisuma 5Q-S;FR 20-100D-S7;1110F;EP 1;Apymag 80S;EP 1 (hydroxide);Vertex 100SP;Duhor C 043S;Magseeds V 6F;X 6;Ecopyrene 5S;M 3C2;Magseeds EP 2A;FK 621;2M-C01;Vertex 90SP;Magseeds X 6;Mag Chem MH 10UF;Maglux ST 1;Micronex 5C;H 7;Echomag PZ 1EX;EPI-A;MGZ 6R;Ultramag 60-90;FR 20-120D-S7;Kisuma 5SDK;DG 800 (metal oxide);UD 65;M-SO;MKN-MgOH 2-050;Magseeds S 6F;V 6F;PFR 5S;PS 1191;Kisuma SA;FR 20-100D-S10A;N 100;N 100 (metal oxide);Magseeds 10A;S 6F;UD 650-1;Framitex 05-97;HT 215;Magnifin 5HIV;MH;Ekopiren 3.5S;HT 206I;Apymag 60S;Magseeds LN 6;Magseeds X 6F;10FM;H 10CA;BN 6;S 6;Magseeds FK 621;Aitemag 55FL;Aitemag 45PA;Aitemag 55PA;Aitemag 45ZA;Aitemag 45;FJTM 6H;Magnifin HV 502;H 10A;WSA 107;MH 20;HO 12FM;06B;HT 206;V 6;V 6 (hydroxide);200-6H;RT 1J;EP 4A;FR 2810;H 1410;NikoMag A 5;FR 2802;Aitemag 10;Aitemag 12FM;Zerogen 100SP;Aitemag 12;Z 10;10FG;HT 109;HF-III;Apymag 30;Kisuma 10;Kisuma 10A;KM 302;5P-C;Hidromag Q 3005;FR 2803;2500G;LD 72Mg;LD 74Mg;LD 76Mg;Kisuma 10J;Lydoflam 5326;FR 2805;Ecopiren 3.5NA;FMX 507;Magseeds EP 1S;Magseeds EP 1;Magseeds EP 3;FR 2801;FR 2815;YR 6;M 118;XS-MHS 7;XS-MHS 10;XS-MHS 25;MHS 7;MHS 10;MHS 25;M 118 (hydroxide);HN 18805A;Ecopiren 3.5C;ZH-H 7;A 17132;HeaCon-H;X 6F;EP 3;Aitemag 55ZA2;JMTH 02S;Aitemag 10FG;E 1112 (hydroxide);E 1112;ZH-H 2-2;Granifin H 10;YG-O;Junmag BF;Ecopiren 3.5LC;Magnifin H 4;Q-KB 2;Magnefin H 5HV;Aitemag 14;JLH-M 3D1A;Aitemag 12FD;Aitemag 14FD;Aitemag 55;Ecopyrene 3,5S;Aitemag 18;TY 250;JLH-M 3D12A;H 1210-5C;MDS 51A;Aitemag 10FD;FM 20 (hydrodxide);FM 20;EP 50 (hydroxide);EP 50;Vertex 60SV;JLH-QE 2;JLH-QE 4;JLH-QD 2;JLH-QD 4;FR 20-100S10;Framitex 02-97;MeSH ID: D008276;HY-MH;JS-MDH 03;MGH 08;GY 6000;10FM2;Seaforce 1;Char 52;ZH-H 6;YC-QM 30;FR-M 10;H 7IV;JYT 0020;Luvomaag H 002;Magnifin A-H 10A;PM 5SN;QM-SKB 60;MD 2 (hydroxide);MD 2",
    "duplicated_cas_no": "12195-86-7;13760-51-5;1395893-88-5;3030246-43-3",
    "SMILES": "[Mg](O)O",
    "meta_data": {
        "InChI": "InChI=1S/Mg.2H2O/h;2*1H2/q+2;;/p-2",
        "InChIKey": null,
        "Canonical SMILES": "O[Mg]O",
        "Molecular Formula": "H<sub>2</sub>MgO<sub>2</sub>",
        "Molecular Mass": "",
        "Melting Point": "350 °C (decomp)",
        "Density": "2.36 g/cm³"
    }
}