{
    "cas_no": "15130-85-5",
    "key_name": "Inokosterone",
    "cn_name": null,
    "alternate_name": "Cholest-7-en-6-one, 2,3,14,20,22,26-hexahydroxy-, (2β,3β,5β,22<em>R</em>)-;5β-Cholest-7-en-6-one, 2β,3β,14,20,22,26-hexahydroxy-, (22<em>R</em>,25<em>RS</em>)-;(2β,3β,5β,22<em>R</em>)-2,3,14,20,22,26-Hexahydroxycholest-7-en-6-one;Inokosterone;NSC 342715;Inocosterone",
    "duplicated_cas_no": "11033-11-7;15216-44-1;25318-46-1;39284-25-8;88980-54-5;353742-39-9",
    "SMILES": "O[C@]12C=3[C@@]([C@]4(C)[C@](C(=O)C3)(C[C@@H](O)[C@@H](O)C4)[H])(CC[C@]1(C)[C@@]([C@@]([C@@H](CCC(CO)C)O)(C)O)(CC2)[H])[H]",
    "meta_data": {
        "InChI": "InChI=1S/C27H44O7/c1-15(14-28)5-6-23(32)26(4,33)22-8-10-27(34)17-11-19(29)18-12-20(30)21(31)13-24(18,2)16(17)7-9-25(22,27)3/h11,15-16,18,20-23,28,30-34H,5-10,12-14H2,1-4H3/t15?,16-,18-,20+,21-,22-,23+,24+,25+,26+,27+/m0/s1",
        "InChIKey": null,
        "Canonical SMILES": "O=C1C=C2C(CCC3(C)C(CCC23O)C(O)(C)C(O)CCC(C)CO)C4(C)CC(O)C(O)CC14",
        "Molecular Formula": "C<sub>27</sub>H<sub>44</sub>O<sub>7</sub>",
        "Molecular Mass": "480.63",
        "Melting Point": "255 °C (decomp)"
    }
}