{
    "cas_no": "2730-71-4",
    "key_name": "Thiocolchicine",
    "cn_name": null,
    "alternate_name": "Acetamide, <em>N</em>-[(7<em>S</em>)-5,6,7,9-tetrahydro-1,2,3-trimethoxy-10-(methylthio)-9-oxobenzo[<em>a</em>]heptalen-7-yl]-;Colchicine, 10-thio-;Acetamide, <em>N</em>-[5,6,7,9-tetrahydro-1,2,3-trimethoxy-10-(methylthio)-9-oxobenzo[<em>a</em>]heptalen-7-yl]-, (<em>S</em>)-;Colchicine, thio-;Benzo[<em>a</em>]heptalene, acetamide deriv.;<em>N</em>-[(7<em>S</em>)-5,6,7,9-Tetrahydro-1,2,3-trimethoxy-10-(methylthio)-9-oxobenzo[<em>a</em>]heptalen-7-yl]acetamide;Thiocolchicine;10-Demethoxy-10-(methylthio)colchicine;NSC 186301;SML 0954",
    "duplicated_cas_no": "",
    "SMILES": "O(C)C1=C2C=3C([C@@H](NC(C)=O)CCC2=CC(OC)=C1OC)=CC(=O)C(SC)=CC3",
    "meta_data": {
        "InChI": "InChI=1S/C22H25NO5S/c1-12(24)23-16-8-6-13-10-18(26-2)21(27-3)22(28-4)20(13)14-7-9-19(29-5)17(25)11-15(14)16/h7,9-11,16H,6,8H2,1-5H3,(H,23,24)/t16-/m0/s1",
        "InChIKey": null,
        "Canonical SMILES": "O=C1C=C2C(=CC=C1SC)C3=C(OC)C(OC)=C(OC)C=C3CCC2NC(=O)C",
        "Molecular Formula": "C<sub>22</sub>H<sub>25</sub>NO<sub>5</sub>S",
        "Molecular Mass": "415.50",
        "Melting Point": "193 °C"
    }
}