{
    "cas_no": "39711-79-0",
    "key_name": "<em>N</em>-Ethyl-<em>p</em>-menthane-3-carboxamide",
    "cn_name": "N-乙基-5-甲基-2-(1-甲基乙基)环己甲酰胺;薄荷酰胺;",
    "alternate_name": "Cyclohexanecarboxamide, <em>N</em>-ethyl-5-methyl-2-(1-methylethyl)-;<em>N</em>-Ethyl-5-methyl-2-(1-methylethyl)cyclohexanecarboxamide;<em>N</em>-Ethyl-<em>p</em>-menthane-3-carboxamide;WS 3 (amide);WS 3;Ethyl menthane carboxamide;Cooling Sensate WS 3;FEMA 3455;<em>N</em>-Ethyl-<em>p</em>-menthanecarboxamide;Fema Gras 3455",
    "duplicated_cas_no": "",
    "SMILES": "C(NCC)(=O)C1C(C(C)C)CCC(C)C1",
    "meta_data": {
        "InChI": "InChI=1S/C13H25NO/c1-5-14-13(15)12-8-10(4)6-7-11(12)9(2)3/h9-12H,5-8H2,1-4H3,(H,14,15)",
        "InChIKey": null,
        "Canonical SMILES": "O=C(NCC)C1CC(C)CCC1C(C)C",
        "Molecular Formula": "C<sub>13</sub>H<sub>25</sub>NO",
        "Molecular Mass": "211.34",
        "Melting Point": "88 °C"
    }
}