{
    "cas_no": "134-85-0",
    "key_name": "4-Chlorobenzophenone",
    "cn_name": "4-氯二苯甲酮;",
    "alternate_name": "Methanone, (4-chlorophenyl)phenyl-;Benzophenone, 4-chloro-;Benzophenone, <em>p</em>-chloro-;(4-Chlorophenyl)phenylmethanone;<em>p</em>-Chlorobenzophenone;4-Chlorobenzophenone;<em>p</em>-CBP;<em>p</em>-Chlorophenyl phenyl ketone;CBP;4-Chlorophenyl phenyl ketone;NSC 2872;Initiator 1046;Phenyl 4-chlorophenyl ketone;4-Benzoylphenyl chloride;4-CBP;1-(4′-Chlorophenyl)-phenylmethanone;1-<em>p</em>-Chlorophenyl-1-phenylmethanone;Photoinitiator CBP;JRcure 1046;CBZ",
    "duplicated_cas_no": "",
    "SMILES": "C(=O)(C1=CC=C(Cl)C=C1)C2=CC=CC=C2",
    "meta_data": {
        "InChI": "InChI=1S/C13H9ClO/c14-12-8-6-11(7-9-12)13(15)10-4-2-1-3-5-10/h1-9H",
        "InChIKey": null,
        "Canonical SMILES": "O=C(C=1C=CC=CC1)C2=CC=C(Cl)C=C2",
        "Molecular Formula": "C<sub>13</sub>H<sub>9</sub>ClO",
        "Molecular Mass": "216.66",
        "Boiling Point": "332 °C @ Press: 771 Torr",
        "Melting Point": "78 °C"
    }
}