{
    "cas_no": "1722-12-9",
    "key_name": "2-Chloropyrimidine",
    "cn_name": "2-氯嘧啶;",
    "alternate_name": "Pyrimidine, 2-chloro-;2-Chloropyrimidine;NSC 43544;Pyrimidin-2-yl chloride;2-Chloro-1,3-pyrimidine",
    "duplicated_cas_no": "",
    "SMILES": "ClC=1N=CC=CN1",
    "meta_data": {
        "InChI": "InChI=1S/C4H3ClN2/c5-4-6-2-1-3-7-4/h1-3H",
        "InChIKey": null,
        "Canonical SMILES": "ClC1=NC=CC=N1",
        "Molecular Formula": "C<sub>4</sub>H<sub>3</sub>ClN<sub>2</sub>",
        "Molecular Mass": "114.53",
        "Boiling Point": "75-76 °C",
        "Melting Point": "66-68 °C"
    }
}