{
    "cas_no": "855-19-6",
    "key_name": "(17β)-17-(Acetyloxy)-4-chloroandrost-4-en-3-one",
    "cn_name": "醋酸氯睾酮;",
    "alternate_name": "Androst-4-en-3-one, 17-(acetyloxy)-4-chloro-, (17β)-;Androst-4-en-3-one, 4-chloro-17β-hydroxy-, acetate;Testosterone, 4-chloro-, acetate;(17β)-17-(Acetyloxy)-4-chloroandrost-4-en-3-one;17β-Acetoxy-4-chloroandrost-4-en-3-one;4-Chloro-17β-hydroxyandrost-4-en-3-one 17-acetate;4-Chlorotestosterone acetate;Macrobin;Steranabol;Stearanabol;Chlorotestosterone acetate;4-Chlorotestosterone 17-acetate;Megagrisevit;Anabolit;Sterabol;Test-anabol;Testomed;Clostebol acetate;NSC 72159;4-Androstene-4-chloro-17β-ol-3-one acetate",
    "duplicated_cas_no": "",
    "SMILES": "C[C@@]12[C@@]3([C@]([C@]4([C@](C)(CC3)[C@@H](OC(C)=O)CC4)[H])(CCC1=C(Cl)C(=O)CC2)[H])[H]",
    "meta_data": {
        "InChI": "InChI=1S/C21H29ClO3/c1-12(23)25-18-7-6-14-13-4-5-16-19(22)17(24)9-11-20(16,2)15(13)8-10-21(14,18)3/h13-15,18H,4-11H2,1-3H3/t13-,14-,15-,18-,20+,21-/m0/s1",
        "InChIKey": null,
        "Canonical SMILES": "O=C(OC1CCC2C3CCC4=C(Cl)C(=O)CCC4(C)C3CCC12C)C",
        "Molecular Formula": "C<sub>21</sub>H<sub>29</sub>ClO<sub>3</sub>",
        "Molecular Mass": "364.91",
        "Melting Point": "228-230 °C"
    }
}