{
    "cas_no": "13813-24-6",
    "key_name": "Neodymium iodide (NdI<sub>3</sub>)",
    "cn_name": "无水碘化钕(III);超干碘化钕(III);Neodymium iodide;Neodymium triiodide;",
    "alternate_name": "Neodymium iodide (NdI<sub>3</sub>);Neodymium triiodide;Neodymium iodide",
    "duplicated_cas_no": "",
    "SMILES": "[Nd](I)(I)I",
    "meta_data": {
        "InChI": "InChI=1S/3HI.Nd/h3*1H;/q;;;+3/p-3",
        "InChIKey": null,
        "Canonical SMILES": "I[Nd](I)I",
        "Molecular Formula": "I<sub>3</sub>Nd",
        "Molecular Mass": "",
        "Melting Point": "775 °C (decomp)"
    }
}