{
    "cas_no": "575-08-6",
    "key_name": "6-Fluoro-1-naphthalenecarboxylic acid",
    "cn_name": null,
    "alternate_name": "1-Naphthalenecarboxylic acid, 6-fluoro-;1-Naphthoic acid, 6-fluoro-;6-Fluoro-1-naphthalenecarboxylic acid;6-Fluoro-1-naphthoic acid;6-Fluoronaphthalene-1-carboxylic acid",
    "duplicated_cas_no": "",
    "SMILES": "C(O)(=O)C=1C2=C(C=C(F)C=C2)C=CC1",
    "meta_data": {
        "InChI": "InChI=1S/C11H7FO2/c12-8-4-5-9-7(6-8)2-1-3-10(9)11(13)14/h1-6H,(H,13,14)",
        "InChIKey": null,
        "Canonical SMILES": "O=C(O)C1=CC=CC2=CC(F)=CC=C21",
        "Molecular Formula": "C<sub>11</sub>H<sub>7</sub>FO<sub>2</sub>",
        "Molecular Mass": "190.17",
        "Melting Point": "234-236 °C"
    }
}