{
    "cas_no": "1210-12-4",
    "key_name": "9-Cyanoanthracene",
    "cn_name": "9-氰基蒽;9-蒽腈;",
    "alternate_name": "9-Anthracenecarbonitrile;9-Anthronitrile;9-Cyanoanthracene;9-Anthracenenitrile;NSC 26997",
    "duplicated_cas_no": "",
    "SMILES": "C(#N)C=1C2=C(C=C3C1C=CC=C3)C=CC=C2",
    "meta_data": {
        "InChI": "InChI=1S/C15H9N/c16-10-15-13-7-3-1-5-11(13)9-12-6-2-4-8-14(12)15/h1-9H",
        "InChIKey": null,
        "Canonical SMILES": "N#CC=1C=2C=CC=CC2C=C3C=CC=CC31",
        "Molecular Formula": "C<sub>15</sub>H<sub>9</sub>N",
        "Molecular Mass": "203.24",
        "Melting Point": "175 °C"
    }
}