{
    "cas_no": "74-31-7",
    "key_name": "<em>N</em>,<em>N</em>′-Diphenyl-<em>p</em>-phenylenediamine",
    "cn_name": "N,N\"-二苯基-1,4-苯二胺;N,N\"-二苯基对苯二胺;",
    "alternate_name": "1,4-Benzenediamine, <em>N</em><sup>1</sup>,<em>N</em><sup>4</sup>-diphenyl-;<em>p</em>-Phenylenediamine, <em>N</em>,<em>N</em>′-diphenyl-;1,4-Benzenediamine, <em>N</em>,<em>N</em>′-diphenyl-;<em>N</em><sup>1</sup>,<em>N</em><sup>4</sup>-Diphenyl-1,4-benzenediamine;AgeRite DPPD;1,4-Bis(phenylamino)benzene;1,4-Dianilinobenzene;<em>N</em>,<em>N</em>′-Diphenyl-<em>p</em>-phenylenediamine;4,4′-Diphenyl-<em>p</em>-phenylenediamine;DPPD;Flexamine G;JZF;Nonox DPPD;4-Phenylaminodiphenylamine;<em>p</em>-Phenylaminodiphenylamine;Diafen FF;Diphenyl-<em>p</em>-phenylenediamine;<em>N</em>,<em>N</em>′-Diphenyl-1,4-phenylenediamine;Altofane DIP;Nonflex H;Permanax 18;Stabilizer DPPD;<em>p</em>-Bis(phenylamino)benzene;Nocrac DP;Permanax DPPD;DFFD;Antage DP;Ekaland DPPD;Naugard J;Antigen P;Antigene P;Antioxidant H;<em>N</em>,<em>N</em>′-Diphenyl-1,4-benzenediamine;NSC 5761;Diafen FF-T;PPD;Antioxidant PPD;1,4-Benzenediamine N1,N4-diphenyl-;1-<em>N</em>,4-<em>N</em>-Diphenylbenzene-1,4-diamine;Vulkanox DPPD;DAPD",
    "duplicated_cas_no": "66746-42-7;72711-53-6;943443-44-5",
    "SMILES": "N(C1=CC=C(NC2=CC=CC=C2)C=C1)C3=CC=CC=C3",
    "meta_data": {
        "InChI": "InChI=1S/C18H16N2/c1-3-7-15(8-4-1)19-17-11-13-18(14-12-17)20-16-9-5-2-6-10-16/h1-14,19-20H",
        "InChIKey": null,
        "Canonical SMILES": "C=1C=CC(=CC1)NC2=CC=C(C=C2)NC=3C=CC=CC3",
        "Molecular Formula": "C<sub>18</sub>H<sub>16</sub>N<sub>2</sub>",
        "Molecular Mass": "260.33",
        "Boiling Point": "220-225 °C @ Press: 0.5 Torr",
        "Melting Point": "150-151 °C",
        "Density": "1.20 g/cm³"
    }
}