{
    "cas_no": "1514-82-5",
    "key_name": "2-Bromo-3,3,3-trifluoro-1-propene",
    "cn_name": "2-溴-3,3,3-三氟丙烯;2-溴-3,3,3-三氟丙烯;2-溴-3,3,3-三氟-1-丙烯;2-溴三氟丙烯;2-溴-3,3,3-三氟-1-丙烯(;",
    "alternate_name": "1-Propene, 2-bromo-3,3,3-trifluoro-;Propene, 2-bromo-3,3,3-trifluoro-;2-Bromo-3,3,3-trifluoro-1-propene;2-Bromo-3,3,3-trifluoropropene;3,3,3-Trifluoro-2-bromopropene;NSC 117350;Halon 1323;R 1233XfB;R 1233xfB",
    "duplicated_cas_no": "",
    "SMILES": "C(C(Br)=C)(F)(F)F",
    "meta_data": {
        "InChI": "InChI=1S/C3H2BrF3/c1-2(4)3(5,6)7/h1H2",
        "InChIKey": null,
        "Canonical SMILES": "FC(F)(F)C(Br)=C",
        "Molecular Formula": "C<sub>3</sub>H<sub>2</sub>BrF<sub>3</sub>",
        "Molecular Mass": "174.95",
        "Boiling Point": "33.0-33.5 °C"
    }
}