{
    "cas_no": "27631-29-4",
    "key_name": "2,4-Dichloro-6,7-dimethoxyquinazoline",
    "cn_name": "2,4-二氯-6,7-二甲氧基喹唑啉;",
    "alternate_name": "Quinazoline, 2,4-dichloro-6,7-dimethoxy-;2,4-Dichloro-6,7-dimethoxyquinazoline;2-Chloro-6,7-dimethoxyquinazolin-4-yl chloride",
    "duplicated_cas_no": "",
    "SMILES": "ClC=1C2=C(C=C(OC)C(OC)=C2)N=C(Cl)N1",
    "meta_data": {
        "InChI": "InChI=1S/C10H8Cl2N2O2/c1-15-7-3-5-6(4-8(7)16-2)13-10(12)14-9(5)11/h3-4H,1-2H3",
        "InChIKey": null,
        "Canonical SMILES": "ClC=1N=C(Cl)C=2C=C(OC)C(OC)=CC2N1",
        "Molecular Formula": "C<sub>10</sub>H<sub>8</sub>Cl<sub>2</sub>N<sub>2</sub>O<sub>2</sub>",
        "Molecular Mass": "259.09",
        "Melting Point": "158 °C"
    }
}