{
    "cas_no": "4449-55-2",
    "key_name": "Warangalone",
    "cn_name": null,
    "alternate_name": "2<em>H</em>,6<em>H</em>-Benzo[1,2-<em>b</em>:5,4-<em>b</em>′]dipyran-6-one, 5-hydroxy-7-(4-hydroxyphenyl)-2,2-dimethyl-10-(3-methyl-2-buten-1-yl)-;2<em>H</em>,6<em>H</em>-Benzo[1,2-<em>b</em>:5,4-<em>b</em>′]dipyran-6-one, 5-hydroxy-7-(<em>p</em>-hydroxyphenyl)-2,2-dimethyl-10-(3-methyl-2-butenyl)-;2<em>H</em>,6<em>H</em>-Benzo[1,2-<em>b</em>:5,4-<em>b</em>′]dipyran-6-one, 5-hydroxy-7-(4-hydroxyphenyl)-2,2-dimethyl-10-(3-methyl-2-butenyl)-;5-Hydroxy-7-(4-hydroxyphenyl)-2,2-dimethyl-10-(3-methyl-2-buten-1-yl)-2<em>H</em>,6<em>H</em>-benzo[1,2-<em>b</em>:5,4-<em>b</em>′]dipyran-6-one;Scandenolone;Warangalone;Scandenone;Warangalon",
    "duplicated_cas_no": "",
    "SMILES": "OC1=C2C(=C(CC=C(C)C)C3=C1C=CC(C)(C)O3)OC=C(C2=O)C4=CC=C(O)C=C4",
    "meta_data": {
        "InChI": "InChI=1S/C25H24O5/c1-14(2)5-10-18-23-17(11-12-25(3,4)30-23)21(27)20-22(28)19(13-29-24(18)20)15-6-8-16(26)9-7-15/h5-9,11-13,26-27H,10H2,1-4H3",
        "InChIKey": null,
        "Canonical SMILES": "O=C1C(=COC=2C1=C(O)C=3C=CC(OC3C2CC=C(C)C)(C)C)C=4C=CC(O)=CC4",
        "Molecular Formula": "C<sub>25</sub>H<sub>24</sub>O<sub>5</sub>",
        "Molecular Mass": "404.46",
        "Melting Point": "164-165 °C"
    }
}