{
    "cas_no": "117048-59-6",
    "key_name": "Combretastatin A<sub>4</sub>",
    "cn_name": "(Z)-3,4,5,4\",-四甲氧基-3\"-羟基二苯乙烯;",
    "alternate_name": "Phenol, 2-methoxy-5-[(1<em>Z</em>)-2-(3,4,5-trimethoxyphenyl)ethenyl]-;Phenol, 2-methoxy-5-[2-(3,4,5-trimethoxyphenyl)ethenyl]-, (<em>Z</em>)-;2-Methoxy-5-[(1<em>Z</em>)-2-(3,4,5-trimethoxyphenyl)ethenyl]phenol;Combretastatin A<sub>4</sub>;NSC 817373;CRC 87-09;NSC 613729;Combretastatin 4;CA 4;2′-Deoxycombretastatin A1;2-Methoxy-5-[(<em>Z</em>)-2-(3,4,5-trimethoxyphenyl)ethenyl]phenol;<em>cis</em>-Combretastatin A4;Cis-Combretastatin A4;C 7744",
    "duplicated_cas_no": "848866-48-8;1052086-67-5",
    "SMILES": "O(C)C1=C(OC)C=C(/C=C\\C2=CC(O)=C(OC)C=C2)C=C1OC",
    "meta_data": {
        "InChI": "InChI=1S/C18H20O5/c1-20-15-8-7-12(9-14(15)19)5-6-13-10-16(21-2)18(23-4)17(11-13)22-3/h5-11,19H,1-4H3/b6-5-",
        "InChIKey": null,
        "Canonical SMILES": "OC1=CC(=CC=C1OC)C=CC2=CC(OC)=C(OC)C(OC)=C2",
        "Molecular Formula": "C<sub>18</sub>H<sub>20</sub>O<sub>5</sub>",
        "Molecular Mass": "316.35",
        "Melting Point": "116-117 °C"
    }
}