{
    "cas_no": "62211-93-2",
    "key_name": "β-<span class=\"text-smallcaps\">D</span>-Ribofuranose, 5-deoxy-, 1,2,3-triacetate",
    "cn_name": "1,2,3-三乙酰氧基-5-脱氧-D-核糖;",
    "alternate_name": "β-<span class=\"text-smallcaps\">D</span>-Ribofuranose, 5-deoxy-, 1,2,3-triacetate;β-<span class=\"text-smallcaps\">D</span>-Ribofuranose, 5-deoxy-, triacetate;1,2,3-Tri-<em>O</em>-acetyl-5-deoxy-β-<span class=\"text-smallcaps\">D</span>-ribofuranose",
    "duplicated_cas_no": "",
    "SMILES": "O(C(C)=O)[C@@H]1[C@H](OC(C)=O)[C@@H](C)O[C@H]1OC(C)=O",
    "meta_data": {
        "InChI": "InChI=1S/C11H16O7/c1-5-9(16-6(2)12)10(17-7(3)13)11(15-5)18-8(4)14/h5,9-11H,1-4H3/t5-,9-,10-,11+/m1/s1",
        "InChIKey": null,
        "Canonical SMILES": "O=C(OC1OC(C)C(OC(=O)C)C1OC(=O)C)C",
        "Molecular Formula": "C<sub>11</sub>H<sub>16</sub>O<sub>7</sub>",
        "Molecular Mass": "260.24",
        "Melting Point": "63-64 °C"
    }
}