{
    "cas_no": "150-84-5",
    "key_name": "Citronellyl acetate",
    "cn_name": "乙酸香茅酯;3,7-二甲基-6-辛烯乙酸酯;",
    "alternate_name": "6-Octen-1-ol, 3,7-dimethyl-, 1-acetate;Citronellol acetate;6-Octen-1-ol, 3,7-dimethyl-, acetate;Citronellyl acetate;1-Acetoxy-3,7-dimethyloct-6-ene;β-Citronellyl acetate;8-Acetoxy-2,6-dimethyl-2-octene;<em>dl</em>-Citronellol acetate;(±)-Citronellyl acetate;NSC 4893;3,7-Dimethyl-6-octen-1-yl acetate;β-Citronellol acetate;Cephrol acetate;<em>O</em>-Acetyl-β-citronellol;3,7-Dimethyloct-6-enyl acetate",
    "duplicated_cas_no": "67650-82-2",
    "SMILES": "C(CCC=C(C)C)(CCOC(C)=O)C",
    "meta_data": {
        "InChI": "InChI=1S/C12H22O2/c1-10(2)6-5-7-11(3)8-9-14-12(4)13/h6,11H,5,7-9H2,1-4H3",
        "InChIKey": null,
        "Canonical SMILES": "O=C(OCCC(C)CCC=C(C)C)C",
        "Molecular Formula": "C<sub>12</sub>H<sub>22</sub>O<sub>2</sub>",
        "Molecular Mass": "198.30",
        "Boiling Point": "241 °C @ Press: 783 Torr",
        "Density": "0.8518 g/cm³ @ Temp: 20 °C"
    }
}