{
    "cas_no": "20776-45-8",
    "key_name": "5-(Benzyloxy)tryptamine",
    "cn_name": null,
    "alternate_name": "1<em>H</em>-Indole-3-ethanamine, 5-(phenylmethoxy)-;Indole, 3-(2-aminoethyl)-5-(benzyloxy)-;5-(Phenylmethoxy)-1<em>H</em>-indole-3-ethanamine;Ba 2810;5-(Benzyloxy)tryptamine;<em>O</em>-Benzylserotonin;5-Benzyloxy-1H-indole-3-ethanamine;2-[5-(Benzyloxy)-1<em>H</em>-indol-3-yl]ethan-1-amine;2-(5-Phenylmethoxy-1<em>H</em>-indol-3-yl)ethanamine;2-(5-Benzyloxy-1<em>H</em>-indol-3-yl)-ethylamine",
    "duplicated_cas_no": "",
    "SMILES": "C(CN)C=1C=2C(NC1)=CC=C(OCC3=CC=CC=C3)C2",
    "meta_data": {
        "InChI": "InChI=1S/C17H18N2O/c18-9-8-14-11-19-17-7-6-15(10-16(14)17)20-12-13-4-2-1-3-5-13/h1-7,10-11,19H,8-9,12,18H2",
        "InChIKey": null,
        "Canonical SMILES": "O(C=1C=CC=2NC=C(C2C1)CCN)CC=3C=CC=CC3",
        "Molecular Formula": "C<sub>17</sub>H<sub>18</sub>N<sub>2</sub>O",
        "Molecular Mass": "266.34",
        "Melting Point": "248-250 °C"
    }
}