{
    "cas_no": "50638-48-7",
    "key_name": "1-Bromo-4-methoxy-2,3-dimethylbenzene",
    "cn_name": "4-溴-2,3-二甲基苯甲醚;",
    "alternate_name": "Benzene, 1-bromo-4-methoxy-2,3-dimethyl-;Anisole, 4-bromo-2,3-dimethyl-;1-Bromo-4-methoxy-2,3-dimethylbenzene;4-Bromo-2,3-dimethylanisole;1-Bromo-2,3-dimethyl-4-methoxybenzene",
    "duplicated_cas_no": "",
    "SMILES": "O(C)C1=C(C)C(C)=C(Br)C=C1",
    "meta_data": {
        "InChI": "InChI=1S/C9H11BrO/c1-6-7(2)9(11-3)5-4-8(6)10/h4-5H,1-3H3",
        "InChIKey": null,
        "Canonical SMILES": "BrC1=CC=C(OC)C(=C1C)C",
        "Molecular Formula": "C<sub>9</sub>H<sub>11</sub>BrO",
        "Molecular Mass": "215.09",
        "Boiling Point": "120-124 °C @ Press: 11 Torr"
    }
}