{
    "cas_no": "23287-26-5",
    "key_name": "Benzoic acid, 2-hydroxy-3-methyl-, methyl ester",
    "cn_name": "2-羟基-3-甲基苯甲酸甲酯;",
    "alternate_name": "Benzoic acid, 2-hydroxy-3-methyl-, methyl ester;2,3-Cresotic acid, methyl ester;Methyl <em>o</em>-cresotinate;2-Hydroxy-3-methylbenzoic acid methyl ester;Methyl 3-methylsalicylate;Methyl 2-hydroxy-3-methylbenzoate;Levegal PT;NSC 165638",
    "duplicated_cas_no": "50922-47-9",
    "SMILES": "C(OC)(=O)C1=C(O)C(C)=CC=C1",
    "meta_data": {
        "InChI": "InChI=1S/C9H10O3/c1-6-4-3-5-7(8(6)10)9(11)12-2/h3-5,10H,1-2H3",
        "InChIKey": null,
        "Canonical SMILES": "O=C(OC)C1=CC=CC(=C1O)C",
        "Molecular Formula": "C<sub>9</sub>H<sub>10</sub>O<sub>3</sub>",
        "Molecular Mass": "166.17",
        "Boiling Point": "235 °C",
        "Melting Point": "29 °C",
        "Density": "1.1683 g/cm³ @ Temp: 0 °C"
    }
}