{
    "cas_no": "30431-54-0",
    "key_name": "Bis(2,4,5-trichloro-6-carbopentoxyphenyl) oxalate",
    "cn_name": "双草酸酯;双(2,4,5–三氯水杨酸正代酯)草酸酯;CPPO;",
    "alternate_name": "Ethanedioic acid, 1,2-bis[3,4,6-trichloro-2-[(pentyloxy)carbonyl]phenyl] ester;Ethanedioic acid, bis[3,4,6-trichloro-2-[(pentyloxy)carbonyl]phenyl] ester;Oxalic acid, diester with pentyl 3,5,6-trichlorosalicylate;Bis(2,4,5-trichloro-6-carbopentoxyphenyl) oxalate;Bis(6-carbopentoxy-2,4,5-trichlorophenyl) oxalate;Bis(2,4,5-trichloro-6-carbopentyloxyphenyl)oxalate;Bis(3,4,6-trichloro-2-(pentyloxycarbonyl)phenyl)oxalate;Bis(2-carbopentyloxy-3,4,6-trichlorophenyl) oxalate;Bis(2,4,5-trichloro-6-(pentyloxycarbonyl)phenyl)oxalate;CPPO",
    "duplicated_cas_no": "102579-84-0;112538-75-7;51580-21-3;81516-73-6",
    "SMILES": "O(C(C(OC1=C(C(OCCCCC)=O)C(Cl)=C(Cl)C=C1Cl)=O)=O)C2=C(C(OCCCCC)=O)C(Cl)=C(Cl)C=C2Cl",
    "meta_data": {
        "InChI": "InChI=1S/C26H24Cl6O8/c1-3-5-7-9-37-23(33)17-19(31)13(27)11-15(29)21(17)39-25(35)26(36)40-22-16(30)12-14(28)20(32)18(22)24(34)38-10-8-6-4-2/h11-12H,3-10H2,1-2H3",
        "InChIKey": null,
        "Canonical SMILES": "O=C(OC=1C(Cl)=CC(Cl)=C(Cl)C1C(=O)OCCCCC)C(=O)OC=2C(Cl)=CC(Cl)=C(Cl)C2C(=O)OCCCCC",
        "Molecular Formula": "C<sub>26</sub>H<sub>24</sub>Cl<sub>6</sub>O<sub>8</sub>",
        "Molecular Mass": "677.18",
        "Melting Point": "83.6 °C"
    }
}