{
    "cas_no": "500-05-0",
    "key_name": "Coumalic acid",
    "cn_name": "香豆酸;2-吡喃酮-5-羧酸;",
    "alternate_name": "2<em>H</em>-Pyran-5-carboxylic acid, 2-oxo-;Coumalic acid;Glutaconic acid, 4-(hydroxymethylene)-, δ-lactone;2-Oxo-2<em>H</em>-pyran-5-carboxylic acid;Cumalic acid;2-Oxo-1(2<em>H</em>)-pyran-5-carboxylic acid;α-Pyrone-5-carboxylic acid;2-Pentenedioic acid, 4-(hydroxymethylene)-, δ-lactone;2-Oxopyran-5-carboxylic acid;NSC 22978",
    "duplicated_cas_no": "",
    "SMILES": "C(O)(=O)C=1C=CC(=O)OC1",
    "meta_data": {
        "InChI": "InChI=1S/C6H4O4/c7-5-2-1-4(3-10-5)6(8)9/h1-3H,(H,8,9)",
        "InChIKey": null,
        "Canonical SMILES": "O=C1OC=C(C=C1)C(=O)O",
        "Molecular Formula": "C<sub>6</sub>H<sub>4</sub>O<sub>4</sub>",
        "Molecular Mass": "140.09",
        "Melting Point": "207.5 °C (decomp)"
    }
}