{
    "cas_no": "7787-70-4",
    "key_name": "Copper bromide (CuBr)",
    "cn_name": "溴化亚铜;",
    "alternate_name": "Copper bromide (CuBr);Cuprous bromide;Copper monobromide;Copper(1+) bromide;Copper(I) bromide;Copper(1+) bromide tetramer;Copper bromide (Cu<sub>4</sub>Br<sub>4</sub>);Cuprous bromide (CuBr);Copper bromide (Cu<sub>0.5</sub>Br<sub>0.5</sub>);Dsunsorb 3235H",
    "duplicated_cas_no": "62431-55-4;2490708-37-5",
    "SMILES": "Br[Cu]",
    "meta_data": {
        "InChI": "InChI=1S/BrH.Cu/h1H;/q;+1/p-1",
        "InChIKey": null,
        "Canonical SMILES": "[Cu]Br",
        "Molecular Formula": "BrCu",
        "Molecular Mass": "",
        "Boiling Point": "1345 °C",
        "Melting Point": "504 °C",
        "Density": "4.72 g/cm³ @ Temp: 25 °C"
    }
}