{
    "cas_no": "1163-36-6",
    "key_name": "Clemizole hydrochloride",
    "cn_name": "盐酸氯咪唑;1-[(4-氯苯基)甲基]-2-(吡咯烷-1-基甲基)苯并咪唑盐酸盐;",
    "alternate_name": "1<em>H</em>-Benzimidazole, 1-[(4-chlorophenyl)methyl]-2-(1-pyrrolidinylmethyl)-, hydrochloride (1:1);Benzimidazole, 1-(<em>p</em>-chlorobenzyl)-2-(1-pyrrolidinylmethyl)-, monohydrochloride;1<em>H</em>-Benzimidazole, 1-[(4-chlorophenyl)methyl]-2-(1-pyrrolidinylmethyl)-, monohydrochloride;1-<em>p</em>-Chlorobenzyl-2-(1-pyrrolidinylmethyl)benzimidazole hydrochloride;1-(4-Chlorobenzyl)-2-(pyrrolidinylmethyl)-1,3-benzimidazole hydrochloride;1-<em>p</em>-Chlorobenzyl-2-pyrrolidylmethyl benzimidazole hydrochloride;Clemizole hydrochloride;Reactrol;Allercur;Klemidox;Histacuran;AL 20;1-(4-Chlorobenzyl)-2-(pyrrolidin-1-ylmethyl)-1<em>H</em>-benzo[<em>d</em>]imidazole hydrochloride",
    "duplicated_cas_no": "",
    "SMILES": "C(N1C=2C(N=C1CN3CCCC3)=CC=CC2)C4=CC=C(Cl)C=C4.Cl",
    "meta_data": {
        "InChI": "InChI=1S/C19H20ClN3.ClH/c20-16-9-7-15(8-10-16)13-23-18-6-2-1-5-17(18)21-19(23)14-22-11-3-4-12-22;/h1-2,5-10H,3-4,11-14H2;1H",
        "InChIKey": null,
        "Canonical SMILES": "Cl.ClC1=CC=C(C=C1)CN2C=3C=CC=CC3N=C2CN4CCCC4",
        "Molecular Formula": "C<sub>19</sub>H<sub>20</sub>ClN<sub>3</sub>.ClH",
        "Molecular Mass": "",
        "Melting Point": "239-241 °C"
    }
}