{
    "cas_no": "1551-44-6",
    "key_name": "Cyclohexyl butyrate",
    "cn_name": "丁酸环己酯;",
    "alternate_name": "Butanoic acid, cyclohexyl ester;Butyric acid, cyclohexyl ester;Cyclohexyl butyrate;Cyclohexyl butanoate;Cyclohexyl <em>n</em>-butyrate;NSC 53950",
    "duplicated_cas_no": "",
    "SMILES": "O(C(CCC)=O)C1CCCCC1",
    "meta_data": {
        "InChI": "InChI=1S/C10H18O2/c1-2-6-10(11)12-9-7-4-3-5-8-9/h9H,2-8H2,1H3",
        "InChIKey": null,
        "Canonical SMILES": "O=C(OC1CCCCC1)CCC",
        "Molecular Formula": "C<sub>10</sub>H<sub>18</sub>O<sub>2</sub>",
        "Molecular Mass": "170.25",
        "Boiling Point": "213 °C",
        "Density": "0.9395 g/cm³ @ Temp: 15 °C"
    }
}