{
    "cas_no": "2422-91-5",
    "key_name": "4,4′,4′′-Triphenylmethane triisocyanate",
    "cn_name": "4,4ˊ,4〞-三苯甲烷三异氰酸酯;",
    "alternate_name": "Benzene, 1,1′,1′′-methylidynetris[4-isocyanato-;Isocyanic acid, methylidynetri-<em>p</em>-phenylene ester;Methane, tris(<em>p</em>-isocyanatophenyl)-;1,1′,1′′-Methylidynetris[4-isocyanatobenzene];4,4′,4′′-Triphenylmethane triisocyanate;Tris(4-isocyanatophenyl)methane;Tris(<em>p</em>-isocyanatophenyl)methane;4,4′,4′′-Triisocyanatotriphenylmethane;Methylidynetri-<em>p</em>-phenylene isocyanate;Triphenylmethane-4,4′,4′′-triyl triisocyanate;TTI;JQ 1;1-[Bis(4-isocyanatophenyl)methyl]-4-isocyanatobenzene",
    "duplicated_cas_no": "",
    "SMILES": "C(C1=CC=C(N=C=O)C=C1)(C2=CC=C(N=C=O)C=C2)C3=CC=C(N=C=O)C=C3",
    "meta_data": {
        "InChI": "InChI=1S/C22H13N3O3/c26-13-23-19-7-1-16(2-8-19)22(17-3-9-20(10-4-17)24-14-27)18-5-11-21(12-6-18)25-15-28/h1-12,22H",
        "InChIKey": null,
        "Canonical SMILES": "O=C=NC1=CC=C(C=C1)C(C2=CC=C(N=C=O)C=C2)C3=CC=C(N=C=O)C=C3",
        "Molecular Formula": "C<sub>22</sub>H<sub>13</sub>N<sub>3</sub>O<sub>3</sub>",
        "Molecular Mass": "367.36",
        "Boiling Point": "265 °C @ Press: 1.0-1.2 Torr"
    }
}