{
    "cas_no": "5048-26-0",
    "key_name": "5-Hexenyl acetate",
    "cn_name": null,
    "alternate_name": "5-Hexen-1-ol, 1-acetate;5-Hexen-1-ol, acetate;5-Hexenyl acetate;6-Acetoxy-1-hexene;5-Hexen-1-yl acetate;Acetic acid 5-hexenyl ester",
    "duplicated_cas_no": "",
    "SMILES": "C(CCCC=C)OC(C)=O",
    "meta_data": {
        "InChI": "InChI=1S/C8H14O2/c1-3-4-5-6-7-10-8(2)9/h3H,1,4-7H2,2H3",
        "InChIKey": null,
        "Canonical SMILES": "O=C(OCCCCC=C)C",
        "Molecular Formula": "C<sub>8</sub>H<sub>14</sub>O<sub>2</sub>",
        "Molecular Mass": "142.20",
        "Boiling Point": "169-170 °C @ Press: 704 Torr",
        "Density": "0.8992 g/cm³ @ Temp: 20 °C"
    }
}