{
    "cas_no": "6287-35-0",
    "key_name": "Ethyl 3-(phenylamino)-2-butenoate",
    "cn_name": "3-(苯基氨基)-2-丁烯酸乙酯;3-苯氨基巴豆酸乙酯;",
    "alternate_name": "2-Butenoic acid, 3-(phenylamino)-, ethyl ester;Crotonic acid, 3-anilino-, ethyl ester;Ethyl 3-(phenylamino)-2-butenoate;Ethyl 3-(phenylamino)crotonate;Ethyl 3-anilinocrotonate;Ethyl β-anilinocrotonate;Ethyl 3-anilino-2-butenoate;NSC 8741",
    "duplicated_cas_no": "",
    "SMILES": "N(C(=CC(OCC)=O)C)C1=CC=CC=C1",
    "meta_data": {
        "InChI": "InChI=1S/C12H15NO2/c1-3-15-12(14)9-10(2)13-11-7-5-4-6-8-11/h4-9,13H,3H2,1-2H3",
        "InChIKey": null,
        "Canonical SMILES": "O=C(OCC)C=C(NC=1C=CC=CC1)C",
        "Molecular Formula": "C<sub>12</sub>H<sub>15</sub>NO<sub>2</sub>",
        "Molecular Mass": "205.25",
        "Boiling Point": "142-145 °C @ Press: 5 Torr",
        "Melting Point": "140-143 °C"
    }
}