{
    "cas_no": "31719-76-3",
    "key_name": "4-(Phenoxymethyl)benzoic acid",
    "cn_name": null,
    "alternate_name": "Benzoic acid, 4-(phenoxymethyl)-;<em>p</em>-Toluic acid, α-phenoxy-;4-(Phenoxymethyl)benzoic acid",
    "duplicated_cas_no": "",
    "SMILES": "C(OC1=CC=CC=C1)C2=CC=C(C(O)=O)C=C2",
    "meta_data": {
        "InChI": "InChI=1S/C14H12O3/c15-14(16)12-8-6-11(7-9-12)10-17-13-4-2-1-3-5-13/h1-9H,10H2,(H,15,16)",
        "InChIKey": null,
        "Canonical SMILES": "O=C(O)C1=CC=C(C=C1)COC=2C=CC=CC2",
        "Molecular Formula": "C<sub>14</sub>H<sub>12</sub>O<sub>3</sub>",
        "Molecular Mass": "228.24",
        "Melting Point": "207 °C"
    }
}