{
    "cas_no": "605-55-0",
    "key_name": "2-Hydroxyphenanthrene",
    "cn_name": null,
    "alternate_name": "2-Phenanthrenol;2-Phenanthrol;2-Hydroxyphenanthrene;NSC 2576",
    "duplicated_cas_no": "",
    "SMILES": "OC1=CC=2C(=C3C(=CC2)C=CC=C3)C=C1",
    "meta_data": {
        "InChI": "InChI=1S/C14H10O/c15-12-7-8-14-11(9-12)6-5-10-3-1-2-4-13(10)14/h1-9,15H",
        "InChIKey": null,
        "Canonical SMILES": "OC=1C=CC2=C(C=CC=3C=CC=CC32)C1",
        "Molecular Formula": "C<sub>14</sub>H<sub>10</sub>O",
        "Molecular Mass": "194.23",
        "Boiling Point": "395-396 °C",
        "Melting Point": "168-169 °C"
    }
}