{
    "cas_no": "23144-52-7",
    "key_name": "8-Chloro-1-octanol",
    "cn_name": "8-氯-1-辛醇;",
    "alternate_name": "1-Octanol, 8-chloro-;8-Chloro-1-octanol;8-Chlorooctan-1-ol;1-Chlorooctan-8-ol;NSC 5514;8-Chlorooctanol",
    "duplicated_cas_no": "",
    "SMILES": "C(CCCCO)CCCCl",
    "meta_data": {
        "InChI": "InChI=1S/C8H17ClO/c9-7-5-3-1-2-4-6-8-10/h10H,1-8H2",
        "InChIKey": null,
        "Canonical SMILES": "ClCCCCCCCCO",
        "Molecular Formula": "C<sub>8</sub>H<sub>17</sub>ClO",
        "Molecular Mass": "164.67",
        "Boiling Point": "125-140 °C @ Press: 18 Torr"
    }
}