{
    "cas_no": "598-50-5",
    "key_name": "Methylurea",
    "cn_name": "N-甲基脲;甲基脲;",
    "alternate_name": "Urea, <em>N</em>-methyl-;Urea, methyl-;<em>N</em>-Methylurea;Methylurea;1-Methylurea;Monomethylurea;MeSH ID: D008782",
    "duplicated_cas_no": "",
    "SMILES": "C(NC)(N)=O",
    "meta_data": {
        "InChI": "InChI=1S/C2H6N2O/c1-4-2(3)5/h1H3,(H3,3,4,5)",
        "InChIKey": null,
        "Canonical SMILES": "O=C(N)NC",
        "Molecular Formula": "C<sub>2</sub>H<sub>6</sub>N<sub>2</sub>O",
        "Molecular Mass": "74.08",
        "Melting Point": "103 °C",
        "Density": "4 x 10<sup>-5</sup> g/cm³ @ Temp: 25.00 °C"
    }
}