{
    "cas_no": "34916-78-4",
    "key_name": "5,6-Dimethyl-4(3<em>H</em>)-pyrimidinone",
    "cn_name": null,
    "alternate_name": "4(3<em>H</em>)-Pyrimidinone, 5,6-dimethyl-;4(1<em>H</em>)-Pyrimidinone, 5,6-dimethyl-;4-Pyrimidinol, 5,6-dimethyl-;5,6-Dimethyl-4(3<em>H</em>)-pyrimidinone;4-Hydroxy-5,6-dimethylpyrimidine;5,6-Dimethyl-4-hydroxypyrimidine",
    "duplicated_cas_no": "",
    "SMILES": "CC1=C(C)NC=NC1=O",
    "meta_data": {
        "InChI": "InChI=1S/C6H8N2O/c1-4-5(2)7-3-8-6(4)9/h3H,1-2H3,(H,7,8,9)",
        "InChIKey": null,
        "Canonical SMILES": "O=C1N=CNC(=C1C)C",
        "Molecular Formula": "C<sub>6</sub>H<sub>8</sub>N<sub>2</sub>O",
        "Molecular Mass": "124.14",
        "Melting Point": "202-204 °C"
    }
}