{
    "cas_no": "174886-05-6",
    "key_name": "Cyclobutanamine, 1-methyl-, hydrochloride (1:1)",
    "cn_name": null,
    "alternate_name": "Cyclobutanamine, 1-methyl-, hydrochloride (1:1);Cyclobutanamine, 1-methyl-, hydrochloride;1-Amino-1-methylcyclobutane hydrochloride;1-Methyl-1-cyclobutanamine hydrochloride;1-Methylcyclobutanamine hydrochloride;(1-Methylcyclobutyl)amine hydrochloride",
    "duplicated_cas_no": "",
    "SMILES": "CC1(N)CCC1.Cl",
    "meta_data": {
        "InChI": "InChI=1S/C5H11N.ClH/c1-5(6)3-2-4-5;/h2-4,6H2,1H3;1H",
        "InChIKey": null,
        "Canonical SMILES": "Cl.NC1(C)CCC1",
        "Molecular Formula": "C<sub>5</sub>H<sub>11</sub>N.ClH",
        "Molecular Mass": "",
        "Melting Point": "241-244 °C"
    }
}