{
    "cas_no": "4410-31-5",
    "key_name": "Mandelamide",
    "cn_name": "(±)-扁桃酰胺;",
    "alternate_name": "Benzeneacetamide, α-hydroxy-;Mandelamide;α-Hydroxybenzeneacetamide;2-Phenylglycolamide;Amygdalinamide;α-Hydroxybenzylcarboxamide;2-Hydroxy-2-phenylacetamide;(±)-Mandelamide;<span class=\"text-smallcaps\">DL</span>-Mandelic acid amide;Racemic mandelamide;NSC 16603",
    "duplicated_cas_no": "4358-86-5;154670-20-9",
    "SMILES": "C(C(N)=O)(O)C1=CC=CC=C1",
    "meta_data": {
        "InChI": "InChI=1S/C8H9NO2/c9-8(11)7(10)6-4-2-1-3-5-6/h1-5,7,10H,(H2,9,11)",
        "InChIKey": null,
        "Canonical SMILES": "O=C(N)C(O)C=1C=CC=CC1",
        "Molecular Formula": "C<sub>8</sub>H<sub>9</sub>NO<sub>2</sub>",
        "Molecular Mass": "151.16",
        "Melting Point": "122-123 °C"
    }
}