{
    "cas_no": "112-60-7",
    "key_name": "Tetraethylene glycol",
    "cn_name": "四甘醇;三缩四乙二醇;",
    "alternate_name": "Ethanol, 2,2′-[oxybis(2,1-ethanediyloxy)]bis-;Tetraethylene glycol;2,2′-[Oxybis(2,1-ethanediyloxy)]bis[ethanol];Hi-Dry;3,6,9-Trioxaundecane-1,11-diol;Bis[2-(2-hydroxyethoxy)ethyl] ether;TEG;NSC 1262;1,11-Dihydroxy-3,6,9-trioxaundecane;2-[2-[2-(2-Hydroxyethoxy)ethoxy]ethoxy]ethanol;2,2′-((Oxybis(ethane-2,1-diyl))bis(oxy))diethanol;2-[2-[2-(2-Hydroxyethoxy)ethoxy]ethoxy]ethan-1-ol;2,2′-[Oxybis(2,1-ethanediyloxy)]diethanol;2,2′-((Oxybis(ethane-2,1-diyl))bis(oxy))bis(ethanol)",
    "duplicated_cas_no": "79688-08-7;1186024-61-2",
    "SMILES": "O(CCOCCO)CCOCCO",
    "meta_data": {
        "InChI": "InChI=1S/C8H18O5/c9-1-3-11-5-7-13-8-6-12-4-2-10/h9-10H,1-8H2",
        "InChIKey": null,
        "Canonical SMILES": "OCCOCCOCCOCCO",
        "Molecular Formula": "C<sub>8</sub>H<sub>18</sub>O<sub>5</sub>",
        "Molecular Mass": "194.23",
        "Boiling Point": "327 °C @ Press: 760 Torr",
        "Melting Point": "-6.2 °C",
        "Density": "1.1285 g/cm³ @ Temp: 15 °C"
    }
}