{
    "cas_no": "20443-74-7",
    "key_name": "4′-Chloro[1,1′-biphenyl]-4-sulfonyl chloride",
    "cn_name": "4-氯(1,1-联苯)-4-磺酰氯;",
    "alternate_name": "[1,1′-Biphenyl]-4-sulfonyl chloride, 4′-chloro-;4-Biphenylsulfonyl chloride, 4′-chloro-;4′-Chloro[1,1′-biphenyl]-4-sulfonyl chloride;4′-Chloro-4-biphenylsulfonyl chloride;4-(4-Chlorophenyl)benzenesulfonyl chloride",
    "duplicated_cas_no": "",
    "SMILES": "S(Cl)(=O)(=O)C1=CC=C(C=C1)C2=CC=C(Cl)C=C2",
    "meta_data": {
        "InChI": "InChI=1S/C12H8Cl2O2S/c13-11-5-1-9(2-6-11)10-3-7-12(8-4-10)17(14,15)16/h1-8H",
        "InChIKey": null,
        "Canonical SMILES": "O=S(=O)(Cl)C1=CC=C(C=C1)C=2C=CC(Cl)=CC2",
        "Molecular Formula": "C<sub>12</sub>H<sub>8</sub>Cl<sub>2</sub>O<sub>2</sub>S",
        "Molecular Mass": "287.16",
        "Melting Point": "104-106 °C"
    }
}