{
    "cas_no": "20829-55-4",
    "key_name": "Cyclo-<span class=\"text-smallcaps\">L</smallcap>-Trp-<smallcap>L</span>-Trp",
    "cn_name": "CYCLO(-TRP-TRP);",
    "alternate_name": "2,5-Piperazinedione, 3,6-bis(1<em>H</em>-indol-3-ylmethyl)-, (3<em>S</em>,6<em>S</em>)-;2,5-Piperazinedione, 3,6-bis(indol-3-ylmethyl)-, (3<em>S</em>,6<em>S</em>)-;2,5-Piperazinedione, 3,6-bis(1<em>H</em>-indol-3-ylmethyl)-, (3<em>S</em>-<em>cis</em>)-;(3<em>S</em>,6<em>S</em>)-3,6-Bis(1<em>H</em>-indol-3-ylmethyl)-2,5-piperazinedione;Cyclic dioxopiperazine-<span class=\"text-smallcaps\">L</smallcap>-tryptophan-<smallcap>L</span>-tryptophan;Cyclic <span class=\"text-smallcaps\">L</smallcap>-tryptophanyl-<smallcap>L</span>-tryptophan;Cyclic diketopiperazine-<span class=\"text-smallcaps\">L</smallcap>-tryptophyl-<smallcap>L</span>-tryptophan;Cyclo-<span class=\"text-smallcaps\">L</smallcap>-Trp-<smallcap>L</span>-Trp;Cyclo(<span class=\"text-smallcaps\">L</smallcap>-tryptophanyl-<smallcap>L</span>-tryptophan);Cyclo-ditryptophan",
    "duplicated_cas_no": "53318-46-0",
    "SMILES": "C(C=1C=2C(NC1)=CC=CC2)[C@H]3C(=O)N[C@@H](CC=4C=5C(NC4)=CC=CC5)C(=O)N3",
    "meta_data": {
        "InChI": "InChI=1S/C22H20N4O2/c27-21-19(9-13-11-23-17-7-3-1-5-15(13)17)25-22(28)20(26-21)10-14-12-24-18-8-4-2-6-16(14)18/h1-8,11-12,19-20,23-24H,9-10H2,(H,25,28)(H,26,27)/t19-,20-/m0/s1",
        "InChIKey": null,
        "Canonical SMILES": "O=C1NC(C(=O)NC1CC2=CNC=3C=CC=CC32)CC4=CNC=5C=CC=CC54",
        "Molecular Formula": "C<sub>22</sub>H<sub>20</sub>N<sub>4</sub>O<sub>2</sub>",
        "Molecular Mass": "372.42",
        "Melting Point": "242 °C"
    }
}