{
    "cas_no": "19740-72-8",
    "key_name": "Diisopropyl hydrazodicarboxylate",
    "cn_name": null,
    "alternate_name": "1,2-Hydrazinedicarboxylic acid, 1,2-bis(1-methylethyl) ester;Bicarbamic acid, diisopropyl ester;1,2-Hydrazinedicarboxylic acid, bis(1-methylethyl) ester;Diisopropyl 1,2-hydrazinedicarboxylate;Diisopropyl hydrazodicarboxylate;Celogen HT 500;NSC 29147;Bis(1-methylethyl) hydrazine-1,2-dicarboxylate",
    "duplicated_cas_no": "",
    "SMILES": "C(NNC(OC(C)C)=O)(OC(C)C)=O",
    "meta_data": {
        "InChI": "InChI=1S/C8H16N2O4/c1-5(2)13-7(11)9-10-8(12)14-6(3)4/h5-6H,1-4H3,(H,9,11)(H,10,12)",
        "InChIKey": null,
        "Canonical SMILES": "O=C(OC(C)C)NNC(=O)OC(C)C",
        "Molecular Formula": "C<sub>8</sub>H<sub>16</sub>N<sub>2</sub>O<sub>4</sub>",
        "Molecular Mass": "204.22",
        "Melting Point": "105-107 °C"
    }
}