{
    "cas_no": "7549-37-3",
    "key_name": "Citral dimethyl acetal",
    "cn_name": "1,1-二甲氧基-3,7-二甲基-2,6-辛二烯;柠檬醛缩二甲醇;",
    "alternate_name": "2,6-Octadiene, 1,1-dimethoxy-3,7-dimethyl-;2,6-Octadienal, 3,7-dimethyl-, dimethyl acetal;Citral dimethyl acetal;1,1-Dimethoxy-3,7-dimethyl-2,6-octadiene;3,7-Dimethyl-2,6-octadienal dimethyl acetal",
    "duplicated_cas_no": "",
    "SMILES": "C(C=C(CCC=C(C)C)C)(OC)OC",
    "meta_data": {
        "InChI": "InChI=1S/C12H22O2/c1-10(2)7-6-8-11(3)9-12(13-4)14-5/h7,9,12H,6,8H2,1-5H3",
        "InChIKey": null,
        "Canonical SMILES": "O(C)C(OC)C=C(C)CCC=C(C)C",
        "Molecular Formula": "C<sub>12</sub>H<sub>22</sub>O<sub>2</sub>",
        "Molecular Mass": "198.30",
        "Boiling Point": "105-106 °C @ Press: 10 Torr",
        "Density": "0.8984 g/cm³ @ Temp: 20 °C"
    }
}