{
    "cas_no": "76015-11-7",
    "key_name": "3-Methoxy-2-methyl-4(1<em>H</em>)-pyridone",
    "cn_name": "3-甲氧基-2-甲基-1H-吡啶-4-酮;",
    "alternate_name": "4(1<em>H</em>)-Pyridinone, 3-methoxy-2-methyl-;4(1<em>H</em>)-Pyridone, 3-methoxy-2-methyl-;3-Methoxy-2-methyl-4(1<em>H</em>)-pyridinone;3-Methoxy-2-methyl-4(1<em>H</em>)-pyridone;NSC 283471;3-Methoxy-2-methyl-1,4-dihydropyridin-4-one;3-Methoxy-2-methyl-1<em>H</em>-pyridin-4-one",
    "duplicated_cas_no": "",
    "SMILES": "O(C)C=1C(=O)C=CNC1C",
    "meta_data": {
        "InChI": "InChI=1S/C7H9NO2/c1-5-7(10-2)6(9)3-4-8-5/h3-4H,1-2H3,(H,8,9)",
        "InChIKey": null,
        "Canonical SMILES": "O=C1C=CNC(=C1OC)C",
        "Molecular Formula": "C<sub>7</sub>H<sub>9</sub>NO<sub>2</sub>",
        "Molecular Mass": "139.15",
        "Melting Point": "153-154 °C"
    }
}