{
    "cas_no": "63449-68-3",
    "key_name": "2-Naphthalenol, 2-(2-aminobenzoate)",
    "cn_name": "2-萘酚-2-氨基苯甲酸酯;",
    "alternate_name": "2-Naphthalenol, 2-(2-aminobenzoate);2-Naphthalenol, 2-aminobenzoate;Anthranilic acid, 2-naphthyl ester",
    "duplicated_cas_no": "",
    "SMILES": "O(C(=O)C1=C(N)C=CC=C1)C2=CC3=C(C=C2)C=CC=C3",
    "meta_data": {
        "InChI": "InChI=1S/C17H13NO2/c18-16-8-4-3-7-15(16)17(19)20-14-10-9-12-5-1-2-6-13(12)11-14/h1-11H,18H2",
        "InChIKey": null,
        "Canonical SMILES": "O=C(OC=1C=CC=2C=CC=CC2C1)C=3C=CC=CC3N",
        "Molecular Formula": "C<sub>17</sub>H<sub>13</sub>NO<sub>2</sub>",
        "Molecular Mass": "263.29",
        "Melting Point": "118 °C"
    }
}