{
    "cas_no": "35303-76-5",
    "key_name": "4-(2-Aminoethyl)benzenesulfonamide",
    "cn_name": "4-(2-氨乙基)苯磺酰胺;",
    "alternate_name": "Benzenesulfonamide, 4-(2-aminoethyl)-;Benzenesulfonamide, <em>p</em>-(2-aminoethyl)-;4-(2-Aminoethyl)benzenesulfonamide;<em>p</em>-(β-Aminoethyl)benzenesulfonamide;<em>p</em>-(2-Aminoethyl)benzenesulfonamide;4-Sulfamoylphenethylamine;2-[4-(Aminosulfonyl)phenyl]ethylamine;4-(Aminosulfonyl)phenethylamine;<em>p</em>-Aminoethyl-benzenesulfonamide;4-(2-Aminoethyl)benzensulfonamide;2-(4-Sulfamoylphenyl)ethylamine;4-Aminoethylbenzenesulfonamide;Chembl 7087",
    "duplicated_cas_no": "",
    "SMILES": "S(N)(=O)(=O)C1=CC=C(CCN)C=C1",
    "meta_data": {
        "InChI": "InChI=1S/C8H12N2O2S/c9-6-5-7-1-3-8(4-2-7)13(10,11)12/h1-4H,5-6,9H2,(H2,10,11,12)",
        "InChIKey": null,
        "Canonical SMILES": "O=S(=O)(N)C1=CC=C(C=C1)CCN",
        "Molecular Formula": "C<sub>8</sub>H<sub>12</sub>N<sub>2</sub>O<sub>2</sub>S",
        "Molecular Mass": "200.26",
        "Melting Point": "145-147 °C"
    }
}