{
    "cas_no": "2605-67-6",
    "key_name": "Methyl (triphenylphosphoranylidene)acetate",
    "cn_name": "甲氧甲酰基亚甲基三苯基膦;",
    "alternate_name": "Acetic acid, 2-(triphenylphosphoranylidene)-, methyl ester;Acetic acid, (triphenylphosphoranylidene)-, methyl ester;(Carbomethoxymethylene)triphenylphosphorane;Triphenyl(carbomethoxymethylene)phosphorane;[(Methoxycarbonyl)methylene]triphenylphosphorane;(Triphenylphosphoranylidene)acetic acid methyl ester;Methyl (triphenylphosphoranylidene)ethanoate;Methyl (triphenylphosphoranylidene)acetate;(Carbomethoxymethylene)triphenylphosphine;(Triphenylphosphoranylidene) methyl acetate;(2-Methoxy-2-oxoethylidene)triphenylphosphorane;Methyl triphenylphosphorylideneacetate;NSC 117573;NSC 407395;Methyl 2-(triphenylphosphoranylidene)acetate;(Carbomethoxymethylidene)triphenylphosphorane;Methyl triphenylphosphonoacetate;2-(Triphenylphosphoranylidene)acetic acid methyl ester;Methyl triphenylphosphoranylideneacetate;Methyl 2-(triphenyl-λ5-phosphaneylidene)acetate;Methyl (triphenylphosphoranyl)acetate;Methyl triphenylphosphanylideneacetate;Methyl 2-(triphenyl-λ5-phosphanylidene)acetate;Methyl2-(triphenylphosphanylidene)acetate",
    "duplicated_cas_no": "1057663-72-5",
    "SMILES": "P(=CC(OC)=O)(C1=CC=CC=C1)(C2=CC=CC=C2)C3=CC=CC=C3",
    "meta_data": {
        "InChI": "InChI=1S/C21H19O2P/c1-23-21(22)17-24(18-11-5-2-6-12-18,19-13-7-3-8-14-19)20-15-9-4-10-16-20/h2-17H,1H3",
        "InChIKey": null,
        "Canonical SMILES": "O=C(OC)C=P(C=1C=CC=CC1)(C=2C=CC=CC2)C=3C=CC=CC3",
        "Molecular Formula": "C<sub>21</sub>H<sub>19</sub>O<sub>2</sub>P",
        "Molecular Mass": "334.35",
        "Melting Point": "164 °C"
    }
}