{
    "cas_no": "19365-08-3",
    "key_name": "3-Hydroxypiperidin-2-one",
    "cn_name": null,
    "alternate_name": "2-Piperidinone, 3-hydroxy-;2-Piperidone, 3-hydroxy-;3-Hydroxy-2-piperidinone;3-Hydroxy-2-piperidone;2-Hydroxyvalerolactam;NSC 100722;3-Hydroxypiperidin-2-one",
    "duplicated_cas_no": "116908-80-6",
    "SMILES": "OC1C(=O)NCCC1",
    "meta_data": {
        "InChI": "InChI=1S/C5H9NO2/c7-4-2-1-3-6-5(4)8/h4,7H,1-3H2,(H,6,8)",
        "InChIKey": null,
        "Canonical SMILES": "O=C1NCCCC1O",
        "Molecular Formula": "C<sub>5</sub>H<sub>9</sub>NO<sub>2</sub>",
        "Molecular Mass": "115.13",
        "Melting Point": "141-142 °C"
    }
}