{
    "cas_no": "4151-51-3",
    "key_name": "Phenol, 4-isocyanato-, 1,1′,1′′-phosphorothioate",
    "cn_name": "硫代磷酸三苯基异氰酸酯;硫代磷酸三(4-苯基异氰酸酯);硫代磷酸三(4-异氰酸苯酚酯);",
    "alternate_name": "Phenol, 4-isocyanato-, 1,1′,1′′-phosphorothioate;Isocyanic acid, <em>p</em>-hydroxyphenyl ester, phosphorothioate (3:1) (ester);Phosphorothioic acid, <em>O</em>,<em>O</em>,<em>O</em>-tris(<em>p</em>-isocyanatophenyl) ester;Phenol, 4-isocyanato-, phosphorothioate (3:1) (ester);Phenol, <em>p</em>-isocyanato-, phosphorothioate (3:1) (ester);Tris(<em>p</em>-isocyanatophenyl) monosulfophosphate;Thiophosphoric acid tris(<em>p</em>-isocyanatophenyl ester);Tris(4-isocyanatophenyl) thiophosphate;Tris(<em>p</em>-isocyanatophenyl) thiophosphate;Tri(4-phenyl isocyanate) thiophosphate;JQ 4;DTXSID9063320",
    "duplicated_cas_no": "287726-52-7",
    "SMILES": "P(OC1=CC=C(N=C=O)C=C1)(OC2=CC=C(N=C=O)C=C2)(OC3=CC=C(N=C=O)C=C3)=S",
    "meta_data": {
        "InChI": "InChI=1S/C21H12N3O6PS/c25-13-22-16-1-7-19(8-2-16)28-31(32,29-20-9-3-17(4-10-20)23-14-26)30-21-11-5-18(6-12-21)24-15-27/h1-12H",
        "InChIKey": null,
        "Canonical SMILES": "O=C=NC1=CC=C(OP(=S)(OC2=CC=C(N=C=O)C=C2)OC3=CC=C(N=C=O)C=C3)C=C1",
        "Molecular Formula": "C<sub>21</sub>H<sub>12</sub>N<sub>3</sub>O<sub>6</sub>PS",
        "Molecular Mass": "465.38",
        "Melting Point": "84-86 °C"
    }
}