{
    "cas_no": "21535-97-7",
    "key_name": "3-Methylbenzofuran",
    "cn_name": "3-甲基苯并呋喃;",
    "alternate_name": "Benzofuran, 3-methyl-;3-Methylbenzofuran;3-Methylbenzo[<em>b</em>]furan;3-Methyl-1-benzofuran",
    "duplicated_cas_no": "",
    "SMILES": "CC=1C=2C(=CC=CC2)OC1",
    "meta_data": {
        "InChI": "InChI=1S/C9H8O/c1-7-6-10-9-5-3-2-4-8(7)9/h2-6H,1H3",
        "InChIKey": null,
        "Canonical SMILES": "O1C=C(C=2C=CC=CC12)C",
        "Molecular Formula": "C<sub>9</sub>H<sub>8</sub>O",
        "Molecular Mass": "132.16",
        "Boiling Point": "197 °C",
        "Density": "1.0568 g/cm³ @ Temp: 25 °C"
    }
}