{
    "cas_no": "23363-35-1",
    "key_name": "4-Demethylepipodophyllotoxin 7′-<em>O</em>-β-<span class=\"text-smallcaps\">D</span>-glucopyranoside",
    "cn_name": "4\"-去甲基表鬼臼毒素-Β-D-葡萄糖甙;",
    "alternate_name": "Furo[3′,4′:6,7]naphtho[2,3-<em>d</em>]-1,3-dioxol-6(5a<em>H</em>)-one, 9-(β-<span class=\"text-smallcaps\">D</span>-glucopyranosyloxy)-5,8,8a,9-tetrahydro-5-(4-hydroxy-3,5-dimethoxyphenyl)-, (5<em>R</em>,5a<em>R</em>,8a<em>R</em>,9<em>S</em>)-;Epipodophyllotoxin, 4′-demethyl-, 9-β-<span class=\"text-smallcaps\">D</span>-glucopyranoside;Furo[3′,4′:6,7]naphtho[2,3-<em>d</em>]-1,3-dioxol-6(5a<em>H</em>)-one, 9-(β-<span class=\"text-smallcaps\">D</span>-glucopyranosyloxy)-5,8,8a,9-tetrahydro-5-(4-hydroxy-3,5-dimethoxyphenyl)-, [5<em>R</em>-(5α,5aβ,8aα,9β)]-;Glucopyranoside, 4′-demethylepipodophyllotoxin, β-<span class=\"text-smallcaps\">D</span>-;(5<em>R</em>,5a<em>R</em>,8a<em>R</em>,9<em>S</em>)-9-(β-<span class=\"text-smallcaps\">D</span>-Glucopyranosyloxy)-5,8,8a,9-tetrahydro-5-(4-hydroxy-3,5-dimethoxyphenyl)furo[3′,4′:6,7]naphtho[2,3-<em>d</em>]-1,3-dioxol-6(5a<em>H</em>)-one;4′-Demethylepipodophyllotoxin glucoside;4′-Demethylepipodophyllotoxin β-<span class=\"text-smallcaps\">D</span>-glucopyranoside;Lignan P;Pptoxin II;4-Demethylepipodophyllotoxin 7′-<em>O</em>-β-<span class=\"text-smallcaps\">D</span>-glucopyranoside",
    "duplicated_cas_no": "163271-58-7",
    "SMILES": "O=C1[C@@]2([C@@H](C=3C([C@@H](O[C@@H]4O[C@H](CO)[C@@H](O)[C@H](O)[C@H]4O)[C@]2(CO1)[H])=CC5=C(C3)OCO5)C6=CC(OC)=C(O)C(OC)=C6)[H]",
    "meta_data": {
        "InChI": "InChI=1S/C27H30O13/c1-34-16-3-10(4-17(35-2)21(16)29)19-11-5-14-15(38-9-37-14)6-12(11)25(13-8-36-26(33)20(13)19)40-27-24(32)23(31)22(30)18(7-28)39-27/h3-6,13,18-20,22-25,27-32H,7-9H2,1-2H3/t13-,18+,19+,20-,22+,23-,24+,25+,27-/m0/s1",
        "InChIKey": null,
        "Canonical SMILES": "O=C1OCC2C(OC3OC(CO)C(O)C(O)C3O)C4=CC=5OCOC5C=C4C(C6=CC(OC)=C(O)C(OC)=C6)C12",
        "Molecular Formula": "C<sub>27</sub>H<sub>30</sub>O<sub>13</sub>",
        "Molecular Mass": "562.52",
        "Melting Point": "222-230 °C"
    }
}