{
    "cas_no": "4774-24-7",
    "key_name": "Quipazine",
    "cn_name": "喹哌嗪;2-(1-哌嗪基)喹啉;",
    "alternate_name": "Quinoline, 2-(1-piperazinyl)-;2-(1-Piperazinyl)quinoline;Quipazine;1-(2-Quinolyl)piperazine;1-(2-Quinolinyl)piperazine;2-Piperazinoquinoline;MeSH ID: D011814",
    "duplicated_cas_no": "",
    "SMILES": "C1(=NC2=C(C=C1)C=CC=C2)N3CCNCC3",
    "meta_data": {
        "InChI": "InChI=1S/C13H15N3/c1-2-4-12-11(3-1)5-6-13(15-12)16-9-7-14-8-10-16/h1-6,14H,7-10H2",
        "InChIKey": null,
        "Canonical SMILES": "N=1C=2C=CC=CC2C=CC1N3CCNCC3",
        "Molecular Formula": "C<sub>13</sub>H<sub>15</sub>N<sub>3</sub>",
        "Molecular Mass": "213.28",
        "Melting Point": "81-83 °C"
    }
}