{
    "cas_no": "18059-10-4",
    "key_name": "Peiminine",
    "cn_name": "贝母素乙;贝母乙素;",
    "alternate_name": "Cevan-6-one, 3,20-dihydroxy-, (3β,5α)-;5α-Cevan-6-one, 3β,20-dihydroxy-;Osnovanine;Fritillarine;Benzo[7,8]fluoreno[2,1-<em>b</em>]quinolizine, cevan-6-one deriv.;(3β,5α)-3,20-Dihydroxycevan-6-one;Verticinone;Raddeanine;Peiminine;Raddeanine (Fritillaria)",
    "duplicated_cas_no": "1357-77-3;1357-21-7;1361-22-4;1416-43-9",
    "SMILES": "C[C@@]12[C@@]3([C@]([C@]4([C@@](C3)([C@]5([C@](CC4)([C@](C)(O)[C@]6(N(C5)C[C@@H](C)CC6)[H])[H])[H])[H])[H])(CC(=O)[C@]1(C[C@@H](O)CC2)[H])[H])[H]",
    "meta_data": {
        "InChI": "InChI=1S/C27H43NO3/c1-15-4-7-25-27(3,31)21-6-5-17-18(20(21)14-28(25)13-15)11-22-19(17)12-24(30)23-10-16(29)8-9-26(22,23)2/h15-23,25,29,31H,4-14H2,1-3H3/t15-,16-,17+,18+,19-,20-,21-,22-,23+,25-,26+,27-/m0/s1",
        "InChIKey": null,
        "Canonical SMILES": "O=C1CC2C3CCC4C(CN5CC(C)CCC5C4(O)C)C3CC2C6(C)CCC(O)CC16",
        "Molecular Formula": "C<sub>27</sub>H<sub>43</sub>NO<sub>3</sub>",
        "Molecular Mass": "429.64",
        "Melting Point": "212-213 °C"
    }
}