{
    "cas_no": "23564-05-8",
    "key_name": "Thiophanate methyl",
    "cn_name": "甲基硫菌灵;甲基托布津;1,2-二(3-甲氧羰基-2-硫脲基)苯;",
    "alternate_name": "Carbamic acid, <em>N</em>,<em>N</em>′-[1,2-phenylenebis(iminocarbonothioyl)]bis-, <em>C</em>,<em>C</em>′-dimethyl ester;Allophanic acid, 4,4′-<em>o</em>-phenylenebis[3-thio-, dimethyl ester;Carbamic acid, [1,2-phenylenebis(iminocarbonothioyl)]bis-, dimethyl ester;Methylthiophanate;Thiophanate methyl;Dimethyl 4,4′-<em>o</em>-phenylenebis(3-thioallophanate);Methylthiofanate;<em>o</em>-Bis(3-methoxycarbonyl-2-thioureido)benzene;NF 44;TD 1771;Topsin M;Topsin NF 44;Thiophanate M;Cercobin M;1,2-Bis[3-(methoxycarbonyl)-2-thioureido]benzene;Methyl topsin;Enovit M;1,2-Bis(methoxycarbonylthioureido)benzene;Pelt 14;BAS 32500F;Cercobin methyl;Pelt 44;Neotopsin;Topsin Methyl;Fungo;Enovit Super;Easout;F 6385;Enovit-methyl;Mildothane;PEI 190;Caligran;Metoben;Enovit M 70;Cercobin M 70;Cycosin;Topsin M 70;Thiopan;Topsin MD;Tops;Rilon;NSC 170811;Roko;Cleary's 3336;3336G;Topsin 500SC;Sunphanate;Topsin WP;Topsin M 70WP;Topsin M 500SC;Senator;Senator 70W;Senator (carbamate);Cercobin FL;Pelt;Pelt (pesticide);Cercobin;Topgin M",
    "duplicated_cas_no": "50814-12-5;1135443-49-0",
    "SMILES": "N(C(NC(OC)=O)=S)C1=C(NC(NC(OC)=O)=S)C=CC=C1",
    "meta_data": {
        "InChI": "InChI=1S/C12H14N4O4S2/c1-19-11(17)15-9(21)13-7-5-3-4-6-8(7)14-10(22)16-12(18)20-2/h3-6H,1-2H3,(H2,13,15,17,21)(H2,14,16,18,22)",
        "InChIKey": null,
        "Canonical SMILES": "O=C(OC)NC(=S)NC=1C=CC=CC1NC(=S)NC(=O)OC",
        "Molecular Formula": "C<sub>12</sub>H<sub>14</sub>N<sub>4</sub>O<sub>4</sub>S<sub>2</sub>",
        "Molecular Mass": "342.39",
        "Melting Point": "172 °C (decomp)",
        "Density": "1.552 g/cm³"
    }
}