{
    "cas_no": "1126-09-6",
    "key_name": "Ethyl isonipecotate",
    "cn_name": "哌啶-4-甲酸乙酯;4-哌啶甲酸乙酯;六氢异烟酸乙酯;",
    "alternate_name": "4-Piperidinecarboxylic acid, ethyl ester;Isonipecotic acid, ethyl ester;Ethyl isonipecotate;Ethyl 4-piperidinecarboxylate;4-(Ethoxycarbonyl)piperidine;4-Carboethoxypiperidine;NSC 93792;Piperidin-4-carboxylic acid ethyl ester",
    "duplicated_cas_no": "",
    "SMILES": "C(OCC)(=O)C1CCNCC1",
    "meta_data": {
        "InChI": "InChI=1S/C8H15NO2/c1-2-11-8(10)7-3-5-9-6-4-7/h7,9H,2-6H2,1H3",
        "InChIKey": null,
        "Canonical SMILES": "O=C(OCC)C1CCNCC1",
        "Molecular Formula": "C<sub>8</sub>H<sub>15</sub>NO<sub>2</sub>",
        "Molecular Mass": "157.21",
        "Boiling Point": "74 °C @ Press: 1 Torr"
    }
}