{
    "cas_no": "14292-27-4",
    "key_name": "3-Hydroxyoctanoic acid",
    "cn_name": null,
    "alternate_name": "Octanoic acid, 3-hydroxy-;Caprylic acid, β-hydroxy-;3-Hydroxyoctanoic acid;β-Hydroxyoctanoic acid;3-Hydroxycaprylic acid;(±)-3-Hydroxyoctanoic acid;β-Hydroxycaprylic acid",
    "duplicated_cas_no": "88930-08-9",
    "SMILES": "C(C(CC(O)=O)O)CCCC",
    "meta_data": {
        "InChI": "InChI=1S/C8H16O3/c1-2-3-4-5-7(9)6-8(10)11/h7,9H,2-6H2,1H3,(H,10,11)",
        "InChIKey": null,
        "Canonical SMILES": "O=C(O)CC(O)CCCCC",
        "Molecular Formula": "C<sub>8</sub>H<sub>16</sub>O<sub>3</sub>",
        "Molecular Mass": "160.21",
        "Melting Point": "38-38.5 °C"
    }
}