{
    "cas_no": "1002-84-2",
    "key_name": "Pentadecanoic acid",
    "cn_name": "正十五酸;正十五烷酸;十五酸;",
    "alternate_name": "Pentadecanoic acid;Pentadecylic acid;<em>n</em>-Pentadecanoic acid;14FA;NSC 28486",
    "duplicated_cas_no": "",
    "SMILES": "C(CCCCCCCC)CCCCCC(O)=O",
    "meta_data": {
        "InChI": "InChI=1S/C15H30O2/c1-2-3-4-5-6-7-8-9-10-11-12-13-14-15(16)17/h2-14H2,1H3,(H,16,17)",
        "InChIKey": null,
        "Canonical SMILES": "O=C(O)CCCCCCCCCCCCCC",
        "Molecular Formula": "C<sub>15</sub>H<sub>30</sub>O<sub>2</sub>",
        "Molecular Mass": "242.40",
        "Boiling Point": "339.1 °C",
        "Melting Point": "52.3 °C"
    }
}