{
    "cas_no": "7789-40-4",
    "key_name": "Thallium bromide (TlBr)",
    "cn_name": "溴化铊;溴化铊(I);",
    "alternate_name": "Thallium bromide (TlBr);Thallium monobromide;Thallous bromide;Thallium bromide;Thallium(I) bromide;Thallium bromide (Tl<sub>2</sub>Br<sub>2</sub>);Thallium bromide (TlBr), dimer",
    "duplicated_cas_no": "11086-18-3;12330-85-7",
    "SMILES": "Br[Tl]",
    "meta_data": {
        "InChI": "InChI=1S/BrH.Tl/h1H;/q;+1/p-1",
        "InChIKey": null,
        "Canonical SMILES": "Br[Tl]",
        "Molecular Formula": "BrTl",
        "Molecular Mass": "",
        "Boiling Point": "815 °C",
        "Melting Point": "460 °C",
        "Density": "7.50 g/cm³"
    }
}