{
    "cas_no": "6271-78-9",
    "key_name": "6-Chloronicotinamide",
    "cn_name": "6-氯烟酰胺;",
    "alternate_name": "3-Pyridinecarboxamide, 6-chloro-;Nicotinamide, 6-chloro-;6-Chloro-3-pyridinecarboxamide;6-Chloronicotinamide;2-Chloro-5-carbamoylpyridine;NSC 37821",
    "duplicated_cas_no": "",
    "SMILES": "C(N)(=O)C=1C=CC(Cl)=NC1",
    "meta_data": {
        "InChI": "InChI=1S/C6H5ClN2O/c7-5-2-1-4(3-9-5)6(8)10/h1-3H,(H2,8,10)",
        "InChIKey": null,
        "Canonical SMILES": "O=C(N)C1=CN=C(Cl)C=C1",
        "Molecular Formula": "C<sub>6</sub>H<sub>5</sub>ClN<sub>2</sub>O",
        "Molecular Mass": "156.57",
        "Melting Point": "213.5-214.2 °C"
    }
}