{
    "cas_no": "769132-76-5",
    "key_name": "4-(5-Ethyl-1,2,4-oxadiazol-3-yl)benzoic acid",
    "cn_name": "4-(5-乙基-1,2,4-氧杂二唑-3基)苯甲酸;",
    "alternate_name": "Benzoic acid, 4-(5-ethyl-1,2,4-oxadiazol-3-yl)-;4-(5-Ethyl-1,2,4-oxadiazol-3-yl)benzoic acid",
    "duplicated_cas_no": "",
    "SMILES": "C(C)C1=NC(=NO1)C2=CC=C(C(O)=O)C=C2",
    "meta_data": {
        "InChI": "InChI=1S/C11H10N2O3/c1-2-9-12-10(13-16-9)7-3-5-8(6-4-7)11(14)15/h3-6H,2H2,1H3,(H,14,15)",
        "InChIKey": null,
        "Canonical SMILES": "O=C(O)C=1C=CC(=CC1)C2=NOC(=N2)CC",
        "Molecular Formula": "C<sub>11</sub>H<sub>10</sub>N<sub>2</sub>O<sub>3</sub>",
        "Molecular Mass": "218.21",
        "Melting Point": "200-201 °C"
    }
}