{
    "cas_no": "118054-57-2",
    "key_name": "1<em>H</em>-Pyrazole-3-acetic acid, hydrochloride (1:1)",
    "cn_name": null,
    "alternate_name": "1<em>H</em>-Pyrazole-3-acetic acid, hydrochloride (1:1);1<em>H</em>-Pyrazole-3-acetic acid, monohydrochloride;2-(1<em>H</em>-Pyrazol-5-yl)acetic acid hydrochloride;2-(1<em>H</em>-Pyrazol-3-yl)acetic acid hydrochloride",
    "duplicated_cas_no": "",
    "SMILES": "C(C(O)=O)C=1C=CNN1.Cl",
    "meta_data": {
        "InChI": "InChI=1S/C5H6N2O2.ClH/c8-5(9)3-4-1-2-6-7-4;/h1-2H,3H2,(H,6,7)(H,8,9);1H",
        "InChIKey": null,
        "Canonical SMILES": "Cl.O=C(O)CC1=NNC=C1",
        "Molecular Formula": "C<sub>5</sub>H<sub>6</sub>N<sub>2</sub>O<sub>2</sub>.ClH",
        "Molecular Mass": "",
        "Melting Point": "137-140 °C"
    }
}