{
    "cas_no": "594-45-6",
    "key_name": "Ethanesulfonic acid",
    "cn_name": "乙基磺酸;",
    "alternate_name": "Ethanesulfonic acid;Ethylsulfonic acid;1-Ethanesulfonic acid",
    "duplicated_cas_no": "",
    "SMILES": "S(CC)(=O)(=O)O",
    "meta_data": {
        "InChI": "InChI=1S/C2H6O3S/c1-2-6(3,4)5/h2H2,1H3,(H,3,4,5)",
        "InChIKey": null,
        "Canonical SMILES": "O=S(=O)(O)CC",
        "Molecular Formula": "C<sub>2</sub>H<sub>6</sub>O<sub>3</sub>S",
        "Molecular Mass": "110.13",
        "Boiling Point": "123 °C",
        "Melting Point": "-17 °C",
        "Density": "1.2889 g/cm³ @ Temp: 75 °C"
    }
}