{
    "cas_no": "3679-64-9",
    "key_name": "Bromosalicylchloranilide",
    "cn_name": null,
    "alternate_name": "Benzamide, 5-bromo-<em>N</em>-(4-chlorophenyl)-2-hydroxy-;Salicylanilide, 5-bromo-4′-chloro-;5-Bromo-<em>N</em>-(4-chlorophenyl)-2-hydroxybenzamide;5-Bromo-4′-chlorosalicylanilide;Salifungin;5-Bromosalicyl-4′-chloranilide;Multifungin;Bromosalicylchloranilide;5-Bromosalicyl-4′-chloroanilide;NSC 526297;Clobromsalan",
    "duplicated_cas_no": "",
    "SMILES": "C(NC1=CC=C(Cl)C=C1)(=O)C2=C(O)C=CC(Br)=C2",
    "meta_data": {
        "InChI": "InChI=1S/C13H9BrClNO2/c14-8-1-6-12(17)11(7-8)13(18)16-10-4-2-9(15)3-5-10/h1-7,17H,(H,16,18)",
        "InChIKey": null,
        "Canonical SMILES": "O=C(NC1=CC=C(Cl)C=C1)C2=CC(Br)=CC=C2O",
        "Molecular Formula": "C<sub>13</sub>H<sub>9</sub>BrClNO<sub>2</sub>",
        "Molecular Mass": "326.57",
        "Melting Point": "238-243 °C"
    }
}