{
    "cas_no": "2219-82-1",
    "key_name": "2-<em>tert</em>-Butyl-6-methylphenol",
    "cn_name": "2-叔丁基-6-甲基苯酚;",
    "alternate_name": "Phenol, 2-(1,1-dimethylethyl)-6-methyl-;<em>o</em>-Cresol, 6-<em>tert</em>-butyl-;2-(1,1-Dimethylethyl)-6-methylphenol;2-<em>tert</em>-Butyl-6-methylphenol;2-Methyl-6-<em>tert</em>-butylphenol;6-<em>tert</em>-Butyl-<em>o</em>-cresol;6-<em>tert</em>-Butyl-2-methylphenol;4-Hydroxy-3-methyl-5-<em>tert</em>-butylbenzol;NSC 78461",
    "duplicated_cas_no": "",
    "SMILES": "C(C)(C)(C)C1=C(O)C(C)=CC=C1",
    "meta_data": {
        "InChI": "InChI=1S/C11H16O/c1-8-6-5-7-9(10(8)12)11(2,3)4/h5-7,12H,1-4H3",
        "InChIKey": null,
        "Canonical SMILES": "OC=1C(=CC=CC1C(C)(C)C)C",
        "Molecular Formula": "C<sub>11</sub>H<sub>16</sub>O",
        "Molecular Mass": "164.24",
        "Boiling Point": "230 °C",
        "Melting Point": "31 °C",
        "Density": "0.9957 g/cm³ @ Temp: 20 °C"
    }
}