{
    "cas_no": "7120-43-6",
    "key_name": "5-Chloro-2-hydroxybenzamide",
    "cn_name": "5-氯水杨酰胺;5-氯-2-羟基苯甲酰胺;",
    "alternate_name": "Benzamide, 5-chloro-2-hydroxy-;Salicylamide, 5-chloro-;5-Chloro-2-hydroxybenzamide;5-Chlorosalicylamide;2-Hydroxy-5-chlorobenzamide;NSC 407139",
    "duplicated_cas_no": "127980-09-0",
    "SMILES": "C(N)(=O)C1=C(O)C=CC(Cl)=C1",
    "meta_data": {
        "InChI": "InChI=1S/C7H6ClNO2/c8-4-1-2-6(10)5(3-4)7(9)11/h1-3,10H,(H2,9,11)",
        "InChIKey": null,
        "Canonical SMILES": "O=C(N)C1=CC(Cl)=CC=C1O",
        "Molecular Formula": "C<sub>7</sub>H<sub>6</sub>ClNO<sub>2</sub>",
        "Molecular Mass": "171.58",
        "Melting Point": "200-202 °C"
    }
}