{
    "cas_no": "14548-46-0",
    "key_name": "4-Benzoylpyridine",
    "cn_name": "4-苯甲酰吡啶;",
    "alternate_name": "Methanone, phenyl-4-pyridinyl-;Ketone, phenyl 4-pyridyl;Phenyl-4-pyridinylmethanone;4-Pyridyl phenyl ketone;4-Benzoylpyridine;Ba 33215;Phenyl 4-pyridyl ketone;γ-Benzoylpyridine;Phenyl(4-pyridinyl)methanone;NSC 9488",
    "duplicated_cas_no": "",
    "SMILES": "C(=O)(C1=CC=CC=C1)C=2C=CN=CC2",
    "meta_data": {
        "InChI": "InChI=1S/C12H9NO/c14-12(10-4-2-1-3-5-10)11-6-8-13-9-7-11/h1-9H",
        "InChIKey": null,
        "Canonical SMILES": "O=C(C=1C=CN=CC1)C=2C=CC=CC2",
        "Molecular Formula": "C<sub>12</sub>H<sub>9</sub>NO",
        "Molecular Mass": "183.21",
        "Boiling Point": "315 °C",
        "Melting Point": "72 °C"
    }
}