{
    "cas_no": "17962-34-4",
    "key_name": "1,1,3,5,5-Pentamethyl-3-phenyltrisiloxane",
    "cn_name": null,
    "alternate_name": "Trisiloxane, 1,1,3,5,5-pentamethyl-3-phenyl-;1,1,3,5,5-Pentamethyl-3-phenyltrisiloxane;3-Phenyl-1,1,3,5,5-pentamethyltrisiloxane",
    "duplicated_cas_no": "",
    "SMILES": "[Si](O[SiH](C)C)(O[SiH](C)C)(C)C1=CC=CC=C1",
    "meta_data": {
        "InChI": "InChI=1S/C11H22O2Si3/c1-14(2)12-16(5,13-15(3)4)11-9-7-6-8-10-11/h6-10,14-15H,1-5H3",
        "InChIKey": null,
        "Canonical SMILES": "O([SiH](C)C)[Si](O[SiH](C)C)(C=1C=CC=CC1)C",
        "Molecular Formula": "C<sub>11</sub>H<sub>22</sub>O<sub>2</sub>Si<sub>3</sub>",
        "Molecular Mass": "270.55",
        "Boiling Point": "88 °C @ Press: 6 Torr",
        "Density": "1.023 g/cm³ @ Temp: 25 °C"
    }
}