{
    "cas_no": "5351-17-7",
    "key_name": "4-Aminobenzoic acid hydrazide",
    "cn_name": "4-氨基苯甲酰肼;对氨基苯甲酰肼;",
    "alternate_name": "Benzoic acid, 4-amino-, hydrazide;Benzoic acid, <em>p</em>-amino-, hydrazide;<em>p</em>-Aminobenzoic acid hydrazide;<em>p</em>-Aminobenzhydrazide;Amben hydrazide;<em>p</em>-Aminobenzoic hydrazide;4-Aminobenzhydrazide;4-Aminobenzoic acid hydrazide;4-Aminobenzoylhydrazine;<em>p</em>-Aminobenzoylhydrazine;Aminostimil;4-Aminobenzoyl hydrazide;NSC 640;<em>p</em>-Aminobenzohydrazide",
    "duplicated_cas_no": "",
    "SMILES": "C(NN)(=O)C1=CC=C(N)C=C1",
    "meta_data": {
        "InChI": "InChI=1S/C7H9N3O/c8-6-3-1-5(2-4-6)7(11)10-9/h1-4H,8-9H2,(H,10,11)",
        "InChIKey": null,
        "Canonical SMILES": "O=C(NN)C1=CC=C(N)C=C1",
        "Molecular Formula": "C<sub>7</sub>H<sub>9</sub>N<sub>3</sub>O",
        "Molecular Mass": "151.17",
        "Melting Point": "225-227 °C"
    }
}