{
    "cas_no": "123318-82-1",
    "key_name": "Clofarabine",
    "cn_name": "克罗拉滨;2-氯-9-(2-去氧-2-氟-bata-D-阿拉伯呋喃)-9H-嘌呤-6-胺;",
    "alternate_name": "9<em>H</em>-Purin-6-amine, 2-chloro-9-(2-deoxy-2-fluoro-β-<span class=\"text-smallcaps\">D</span>-arabinofuranosyl)-;2-Chloro-9-(2-deoxy-2-fluoro-β-<span class=\"text-smallcaps\">D</span>-arabinofuranosyl)-9<em>H</em>-purin-6-amine;2-Chloro-9-(2-deoxy-2-fluoro-β-<span class=\"text-smallcaps\">D</span>-arabinofuranosyl)adenine;Clofarabine;Clofarex;Clolar;Evoltra;Ivozall",
    "duplicated_cas_no": "",
    "SMILES": "NC1=C2C(N(C=N2)[C@@H]3O[C@H](CO)[C@@H](O)[C@@H]3F)=NC(Cl)=N1",
    "meta_data": {
        "InChI": "InChI=1S/C10H11ClFN5O3/c11-10-15-7(13)5-8(16-10)17(2-14-5)9-4(12)6(19)3(1-18)20-9/h2-4,6,9,18-19H,1H2,(H2,13,15,16)/t3-,4+,6-,9-/m1/s1",
        "InChIKey": null,
        "Canonical SMILES": "FC1C(O)C(OC1N2C=NC=3C(=NC(Cl)=NC32)N)CO",
        "Molecular Formula": "C<sub>10</sub>H<sub>11</sub>ClFN<sub>5</sub>O<sub>3</sub>",
        "Molecular Mass": "303.68",
        "Melting Point": "225-227 °C"
    }
}