{
    "cas_no": "20575-57-9",
    "key_name": "Calycosin",
    "cn_name": null,
    "alternate_name": "4<em>H</em>-1-Benzopyran-4-one, 7-hydroxy-3-(3-hydroxy-4-methoxyphenyl)-;Isoflavone, 3′,7-dihydroxy-4′-methoxy-;7-Hydroxy-3-(3-hydroxy-4-methoxyphenyl)-4<em>H</em>-1-benzopyran-4-one;Calycosin;3′,7-Dihydroxy-4′-methoxyisoflavone;7,3′-Dihydroxy-4′-methoxyisoflavone;3′-Hydroxyformononetin;Cyclosin;Cyclosin (isoflavone);7-Hydroxy-3-(3-hydroxy-4-methoxyphenyl)benzopyran-4-one",
    "duplicated_cas_no": "1067882-64-7",
    "SMILES": "O=C1C(=COC=2C1=CC=C(O)C2)C3=CC(O)=C(OC)C=C3",
    "meta_data": {
        "InChI": "InChI=1S/C16H12O5/c1-20-14-5-2-9(6-13(14)18)12-8-21-15-7-10(17)3-4-11(15)16(12)19/h2-8,17-18H,1H3",
        "InChIKey": null,
        "Canonical SMILES": "O=C1C2=CC=C(O)C=C2OC=C1C=3C=CC(OC)=C(O)C3",
        "Molecular Formula": "C<sub>16</sub>H<sub>12</sub>O<sub>5</sub>",
        "Molecular Mass": "284.26",
        "Melting Point": "250-251 °C"
    }
}