{
    "cas_no": "10441-57-3",
    "key_name": "1-Methyl-2-pyrrolidinethione",
    "cn_name": "1-甲基吡咯烷-2-硫酮;",
    "alternate_name": "2-Pyrrolidinethione, 1-methyl-;1-Methyl-2-pyrrolidinethione;<em>N</em>-Methyl-2-pyrrolidinethione;<em>N</em>-Methyl-2-thiopyrrolidone;<em>N</em>-Methyl-2-thiopyrrolidinone",
    "duplicated_cas_no": "",
    "SMILES": "S=C1N(C)CCC1",
    "meta_data": {
        "InChI": "InChI=1S/C5H9NS/c1-6-4-2-3-5(6)7/h2-4H2,1H3",
        "InChIKey": null,
        "Canonical SMILES": "S=C1N(C)CCC1",
        "Molecular Formula": "C<sub>5</sub>H<sub>9</sub>NS",
        "Molecular Mass": "115.20",
        "Boiling Point": "144-145 °C @ Press: 15 Torr"
    }
}