{
    "cas_no": "6265-07-2",
    "key_name": "2-Amino-4-methyl-6-nitrophenol",
    "cn_name": "2-氨基-4-甲基-6-硝基苯酚;",
    "alternate_name": "Phenol, 2-amino-4-methyl-6-nitro-;<em>p</em>-Cresol, 2-amino-6-nitro-;2-Amino-4-methyl-6-nitrophenol;2-Nitro-4-methyl-6-amino-phenol",
    "duplicated_cas_no": "",
    "SMILES": "N(=O)(=O)C1=C(O)C(N)=CC(C)=C1",
    "meta_data": {
        "InChI": "InChI=1S/C7H8N2O3/c1-4-2-5(8)7(10)6(3-4)9(11)12/h2-3,10H,8H2,1H3",
        "InChIKey": null,
        "Canonical SMILES": "O=N(=O)C1=CC(=CC(N)=C1O)C",
        "Molecular Formula": "C<sub>7</sub>H<sub>8</sub>N<sub>2</sub>O<sub>3</sub>",
        "Molecular Mass": "168.15",
        "Melting Point": "119 °C"
    }
}