{
    "cas_no": "6306-07-6",
    "key_name": "(±)-Acenaphthenol",
    "cn_name": "1-羟基苊;1-二氢苊醇;",
    "alternate_name": "1-Acenaphthylenol, 1,2-dihydro-;1-Acenaphthenol;1-Acenaphthylenol, 1,2-dihydro-, (±)-;1,2-Dihydro-1-acenaphthylenol;(±)-Acenaphthenol;(±)-1-Acenaphthenol;NSC 22834;1-Acenaphthol",
    "duplicated_cas_no": "92720-77-9",
    "SMILES": "OC1C=2C3=C(C1)C=CC=C3C=CC2",
    "meta_data": {
        "InChI": "InChI=1S/C12H10O/c13-11-7-9-5-1-3-8-4-2-6-10(11)12(8)9/h1-6,11,13H,7H2",
        "InChIKey": null,
        "Canonical SMILES": "OC1C2=CC=CC3=CC=CC(=C32)C1",
        "Molecular Formula": "C<sub>12</sub>H<sub>10</sub>O",
        "Molecular Mass": "170.21",
        "Boiling Point": "183-193 °C @ Press: 0.5 Torr",
        "Melting Point": "144-145 °C"
    }
}