{
    "cas_no": "591-17-3",
    "key_name": "3-Bromotoluene",
    "cn_name": "3-溴甲基苯;间溴甲苯;间甲基溴苯;",
    "alternate_name": "Benzene, 1-bromo-3-methyl-;Toluene, <em>m</em>-bromo-;1-Bromo-3-methylbenzene;3-Bromo-1-methylbenzene;<em>m</em>-Bromotoluene;3-Bromotoluene;<em>m</em>-Tolyl bromide;<em>m</em>-Methylbromobenzene;3-Methylbromobenzene;3-Methyl-1-bromobenzene;5-Bromotoluene;3-Methylphenyl bromide;<em>m</em>-Methylphenyl bromide;3-Tolyl bromide;<em>m</em>-Bromomethylbenzene",
    "duplicated_cas_no": "",
    "SMILES": "BrC1=CC(C)=CC=C1",
    "meta_data": {
        "InChI": "InChI=1S/C7H7Br/c1-6-3-2-4-7(8)5-6/h2-5H,1H3",
        "InChIKey": null,
        "Canonical SMILES": "BrC1=CC=CC(=C1)C",
        "Molecular Formula": "C<sub>7</sub>H<sub>7</sub>Br",
        "Molecular Mass": "171.03",
        "Boiling Point": "183.7 °C @ Press: 760 Torr",
        "Melting Point": "-39.8 °C",
        "Density": "1.4099 g/cm³ @ Temp: 20 °C"
    }
}