{
    "cas_no": "2438-72-4",
    "key_name": "Bufexamac",
    "cn_name": "丁苯羟酸;4-丁氧基-N-羟基苯乙酰胺;对丁氧苯乙酰氧肟酸;",
    "alternate_name": "Benzeneacetamide, 4-butoxy-<em>N</em>-hydroxy-;Acetohydroxamic acid, 2-(<em>p</em>-butoxyphenyl)-;4-Butoxy-<em>N</em>-hydroxybenzeneacetamide;CP 1044J3;<em>p</em>-Butoxyphenylacethydroxamic acid;4-Butoxyphenylacethydroxamic acid;<em>p</em>-Butoxyphenylacetohydroxamic acid;Droxaryl;Bufexamac;2-(<em>p</em>-Butoxyphenyl)acetohydroxamic acid;Bufexamic acid;Droxarol;Flogocid;Flogocid N plastigel;Parfenal;Parfenac;Anderm;Mofenar;Malipuran;Feximac;Norfemac;Trolab;2-(4-Butoxyphenyl)acetohydroxamic acid;2-(4-Butoxyphenyl)-<em>N</em>-hydroxyacetamide;MeSH ID: D002019",
    "duplicated_cas_no": "",
    "SMILES": "C(C(NO)=O)C1=CC=C(OCCCC)C=C1",
    "meta_data": {
        "InChI": "InChI=1S/C12H17NO3/c1-2-3-8-16-11-6-4-10(5-7-11)9-12(14)13-15/h4-7,15H,2-3,8-9H2,1H3,(H,13,14)",
        "InChIKey": null,
        "Canonical SMILES": "O=C(NO)CC1=CC=C(OCCCC)C=C1",
        "Molecular Formula": "C<sub>12</sub>H<sub>17</sub>NO<sub>3</sub>",
        "Molecular Mass": "223.27",
        "Melting Point": "154 °C"
    }
}