{
    "cas_no": "645-00-1",
    "key_name": "1-Iodo-3-nitrobenzene",
    "cn_name": "1-碘-3-硝基苯;间硝基碘苯;3-碘硝基苯;",
    "alternate_name": "Benzene, 1-iodo-3-nitro-;1-Iodo-3-nitrobenzene;<em>m</em>-Iodonitrobenzene;3-Iodonitrobenzene;<em>m</em>-Nitrophenyl iodide;3-Iodo-1-nitrobenzene;3-Nitrophenyl iodide;3-Nitroiodobenzene;<em>m</em>-Nitroiodobenzene;NSC 3538;3-Nitro-1-iodobenzene",
    "duplicated_cas_no": "",
    "SMILES": "N(=O)(=O)C1=CC(I)=CC=C1",
    "meta_data": {
        "InChI": "InChI=1S/C6H4INO2/c7-5-2-1-3-6(4-5)8(9)10/h1-4H",
        "InChIKey": null,
        "Canonical SMILES": "O=N(=O)C=1C=CC=C(I)C1",
        "Molecular Formula": "C<sub>6</sub>H<sub>4</sub>INO<sub>2</sub>",
        "Molecular Mass": "249.01",
        "Boiling Point": "280 °C",
        "Melting Point": "38.5 °C"
    }
}