{
    "cas_no": "797-70-6",
    "key_name": "Tris(4-methylphenyl)phosphine oxide",
    "cn_name": "三(4-甲基苯基)氧化膦;",
    "alternate_name": "Phosphine oxide, tris(4-methylphenyl)-;Phosphine oxide, tri-<em>p</em>-tolyl-;Tris(4-methylphenyl)phosphine oxide;Tri-<em>p</em>-tolylphosphine oxide;Tris-<em>p</em>-tolylphosphine oxide;Tri(<em>p</em>-methylphenyl)phosphine monoxide;Tris(4-tolyl)phosphine oxide;1-Bis(4-methylphenyl)phosphoryl-4-methylbenzene",
    "duplicated_cas_no": "",
    "SMILES": "P(=O)(C1=CC=C(C)C=C1)(C2=CC=C(C)C=C2)C3=CC=C(C)C=C3",
    "meta_data": {
        "InChI": "InChI=1S/C21H21OP/c1-16-4-10-19(11-5-16)23(22,20-12-6-17(2)7-13-20)21-14-8-18(3)9-15-21/h4-15H,1-3H3",
        "InChIKey": null,
        "Canonical SMILES": "O=P(C1=CC=C(C=C1)C)(C2=CC=C(C=C2)C)C3=CC=C(C=C3)C",
        "Molecular Formula": "C<sub>21</sub>H<sub>21</sub>OP",
        "Molecular Mass": "320.36",
        "Melting Point": "143-144 °C"
    }
}