{
    "cas_no": "918-85-4",
    "key_name": "3-Methyl-1-penten-3-ol",
    "cn_name": "3-甲基-1-戊烯-3-醇;3-甲基-1-戊烯-3-醇;",
    "alternate_name": "1-Penten-3-ol, 3-methyl-;3-Methyl-1-penten-3-ol;3-Hydroxy-3-methyl-1-pentene;Methylethylvinylcarbinol;3-Methyl-1-pentene-3-ol;1-Ethyl-1-methylallyl alcohol;(±)-3-Methylpent-1-en-3-ol;NSC 128156",
    "duplicated_cas_no": "86361-10-6",
    "SMILES": "C(CC)(C=C)(C)O",
    "meta_data": {
        "InChI": "InChI=1S/C6H12O/c1-4-6(3,7)5-2/h4,7H,1,5H2,2-3H3",
        "InChIKey": null,
        "Canonical SMILES": "OC(C=C)(C)CC",
        "Molecular Formula": "C<sub>6</sub>H<sub>12</sub>O",
        "Molecular Mass": "100.16",
        "Boiling Point": "115-140 °C",
        "Density": "0.8378 g/cm³ @ Temp: 20 °C"
    }
}