{
    "cas_no": "7789-04-0",
    "key_name": "Chromium phosphate (CrPO<sub>4</sub>)",
    "cn_name": "磷酸铬;磷酸铬(Ⅲ)六水;",
    "alternate_name": "Phosphoric acid, chromium(3+) salt (1:1);Chromium phosphate;Arnaudon's green;Chromic phosphate;Chromium phosphate (CrPO<sub>4</sub>);Chromium orthophosphate;Chromium monophosphate;Taika Chrome 100",
    "duplicated_cas_no": "",
    "SMILES": "P(=O)(O)(O)O.[Cr]",
    "meta_data": {
        "InChI": "InChI=1S/Cr.H3O4P/c;1-5(2,3)4/h;(H3,1,2,3,4)",
        "InChIKey": null,
        "Canonical SMILES": "[Cr].O=P(O)(O)O",
        "Molecular Formula": "Cr.H<sub>3</sub>O<sub>4</sub>P",
        "Molecular Mass": "",
        "Melting Point": "&gt;1800 °C"
    }
}