{
    "cas_no": "50-70-4",
    "key_name": "Sorbitol",
    "cn_name": "山梨醇;",
    "alternate_name": "<span class=\"text-smallcaps\">D</span>-Glucitol;Glucitol, <span class=\"text-smallcaps\">D</span>-;Sorbitol;Diakarmon;Sionon;Sorbit;Sorbol;<span class=\"text-smallcaps\">D</span>-Sorbol;<span class=\"text-smallcaps\">D</span>-Sorbitol;<span class=\"text-smallcaps\">L</span>-Gulitol;Neosorb;Sorbex M;Sorbex Rp;Sorbex R;Sorbex X;Sorbitol syrup C;Sorbex S;Sorbo;Sorbostyl;Cholaxine;Sionit;Sorbilande;Nivitin;<span class=\"text-smallcaps\">D</span>-(-)-Sorbitol;Sionite;Siosan;Esasorb;Karion;Neosorb 70/70;Karion (carbohydrate);Glucitol;Neosorb 20/60DC;Karion instant;Sorbit W 70;(-)-Sorbitol;Sorbit S;Neosorb P 60;Sionit K;Sorbit D 70;Sorbit L 70;Sorbit WP;Sorbite;Foodol D 70;Sorbitol FP;Sorbitol F;Glucarine (sorbitol syrup);Glucarine;Neosorb P 20/60;Sorbit W-Powder;Neosorb 70/02;C*Sorbidex;Sorbidex P 16616;Sorbit T 70;Sorbit Kyowa Powder 50M;Kyowa Powder 50M;Cystosol;Sorbitur;Resulax;Sorbilax;E 420;Neosorb P 60W;Sorbit D-Powder;Sorbogem 712;Sorbit DP 50;Sorbit W-Powder 50;NSC 25944;Sorbit DP;Sorbitol S;Sorbitol FK;C*Sorbidex P 16616;<span class=\"text-smallcaps\">D</span>-Sorbit 50M;7B5697N;Cerestar P 16616;P 60W;Sorbidex S 16601;Neosorb 70/20;LTS-P 20M;Sorbit LTSP;Sorbit D;C<sup>*</sup>Sorbidex 16100;C<em><sup>S</sup>orbidex</em> 16100;Sorbitol Kao;Neosorb 70/02SB;Sorbitol SP;Sorbidex NC 16205;Parteck SI 150;Sorbitol 70W;Sorpart;Sorbierite;Sorbidex 200;Sorbidex S 16603;LTS P 50M;Neosorb 71/02SB;Neosorb 70/02B;Parteck SI 200;Parteck SI 400;Parteck SI 450;Meritol 121;Sorbitol FP 100M;FP 100M;Sorbit KK;Meritol 128;Merisorb 200;Sorbit KK Powder 50M;Foodol 70;Brix 70;LTS-P G 3;Sorbitol Ueno 20M;Sorbitol C;A 5178;D-SORB 88;Plastilys;Neosorb P 650;MeSH ID: D013012;Neosorb P 100T;Sorbitol-T;Sorbidex P 16656;HS 6903",
    "duplicated_cas_no": "98201-93-5;3959-53-3;8013-15-8;8014-89-9;8036-93-9;8042-39-5;8045-74-7;8046-05-7;15060-73-8;36134-87-9;63800-20-4;75398-79-7;952319-42-5",
    "SMILES": "[C@H]([C@@H]([C@@H](CO)O)O)([C@H](CO)O)O",
    "meta_data": {
        "InChI": "InChI=1S/C6H14O6/c7-1-3(9)5(11)6(12)4(10)2-8/h3-12H,1-2H2/t3-,4+,5-,6-/m1/s1",
        "InChIKey": null,
        "Canonical SMILES": "OCC(O)C(O)C(O)C(O)CO",
        "Molecular Formula": "C<sub>6</sub>H<sub>14</sub>O<sub>6</sub>",
        "Molecular Mass": "182.17",
        "Boiling Point": "295 °C @ Press: 3.5 Torr",
        "Melting Point": "110-112 °C",
        "Density": "1.489 g/cm³ @ Temp: 20 °C"
    }
}