{
    "cas_no": "865233-35-8",
    "key_name": "(β<em>S</em>)-4-Hydroxy-β-1-propyn-1-ylbenzenepropanoic acid",
    "cn_name": null,
    "alternate_name": "Benzenepropanoic acid, 4-hydroxy-β-1-propyn-1-yl-, (β<em>S</em>)-;Benzenepropanoic acid, 4-hydroxy-β-1-propynyl-, (β<em>S</em>)-;(β<em>S</em>)-4-Hydroxy-β-1-propyn-1-ylbenzenepropanoic acid;(3<em>S</em>)-3-(4-Hydroxyphenyl)-4-hexynoic acid;(<em>S</em>)-3-(4-Hydroxyphenyl)hex-4-ynoic acid",
    "duplicated_cas_no": "",
    "SMILES": "[C@@H](CC(O)=O)(C#CC)C1=CC=C(O)C=C1",
    "meta_data": {
        "InChI": "InChI=1S/C12H12O3/c1-2-3-10(8-12(14)15)9-4-6-11(13)7-5-9/h4-7,10,13H,8H2,1H3,(H,14,15)/t10-/m0/s1",
        "InChIKey": null,
        "Canonical SMILES": "O=C(O)CC(C#CC)C1=CC=C(O)C=C1",
        "Molecular Formula": "C<sub>12</sub>H<sub>12</sub>O<sub>3</sub>",
        "Molecular Mass": "204.22",
        "Melting Point": "127 °C"
    }
}