{
    "cas_no": "57-14-7",
    "key_name": "1,1-Dimethylhydrazine",
    "cn_name": "1,1-二甲基肼;N,N-二甲基肼;偏二甲基肼;",
    "alternate_name": "Hydrazine, 1,1-dimethyl-;1,1-Dimethylhydrazine;Dimazine;<em>N</em>,<em>N</em>-Dimethylhydrazine;UDMH;Unsymmetrical dimethylhydrazine;<em>u</em>-Dimethylhydrazine;<em>unsym</em>-Dimethylhydrazine;Dimazin;<em>as</em>-Dimethylhydrazine;<em>gem</em>-Dimethylhydrazine;NSC 60517;Heptyl",
    "duplicated_cas_no": "88733-28-2",
    "SMILES": "N(C)(C)N",
    "meta_data": {
        "InChI": "InChI=1S/C2H8N2/c1-4(2)3/h3H2,1-2H3",
        "InChIKey": null,
        "Canonical SMILES": "NN(C)C",
        "Molecular Formula": "C<sub>2</sub>H<sub>8</sub>N<sub>2</sub>",
        "Molecular Mass": "60.10",
        "Boiling Point": "63.9 °C @ Press: 760 Torr",
        "Melting Point": "-58 °C",
        "Density": "0.791 g/cm³ @ Temp: 22 °C"
    }
}