{
    "cas_no": "6461-04-7",
    "key_name": "5-Methyl hydrogen <span class=\"text-smallcaps\">D</span>-glutamate",
    "cn_name": null,
    "alternate_name": "<span class=\"text-smallcaps\">D</span>-Glutamic acid, 5-methyl ester;Glutamic acid, 5-methyl ester, <span class=\"text-smallcaps\">D</span>-;5-Methyl hydrogen <span class=\"text-smallcaps\">D</span>-glutamate;γ-Methyl <span class=\"text-smallcaps\">D</span>-glutamate;5-Methyl <span class=\"text-smallcaps\">D</span>-glutamate;4(<em>R</em>)-Carboxy-4-aminobutanoic acid methyl ester;H-<span class=\"text-smallcaps\">D</span>-Glu(OMe)-OH;(2R)-2-Amino-5-methoxy-5-oxopentanoic acid;(R)-2-Amino-5-methoxy-5-oxopentanoic acid",
    "duplicated_cas_no": "",
    "SMILES": "C(CC(OC)=O)[C@H](C(O)=O)N",
    "meta_data": {
        "InChI": "InChI=1S/C6H11NO4/c1-11-5(8)3-2-4(7)6(9)10/h4H,2-3,7H2,1H3,(H,9,10)/t4-/m1/s1",
        "InChIKey": null,
        "Canonical SMILES": "O=C(O)C(N)CCC(=O)OC",
        "Molecular Formula": "C<sub>6</sub>H<sub>11</sub>NO<sub>4</sub>",
        "Molecular Mass": "161.16",
        "Melting Point": "175-176 °C"
    }
}