{
    "cas_no": "58481-11-1",
    "key_name": "4-Pyridinecarboxylic acid, 2-chloro-, methyl ester",
    "cn_name": "2-氯异烟酸甲酯;",
    "alternate_name": "4-Pyridinecarboxylic acid, 2-chloro-, methyl ester;Methyl 2-chloroisonicotinate;Methyl 2-chloro-4-pyridinecarboxylate;2-Chloropyridine-4-carboxylic acid methyl ester;2-Chloroisonicotinic acid methyl ester",
    "duplicated_cas_no": "",
    "SMILES": "C(OC)(=O)C=1C=C(Cl)N=CC1",
    "meta_data": {
        "InChI": "InChI=1S/C7H6ClNO2/c1-11-7(10)5-2-3-9-6(8)4-5/h2-4H,1H3",
        "InChIKey": null,
        "Canonical SMILES": "O=C(OC)C=1C=CN=C(Cl)C1",
        "Molecular Formula": "C<sub>7</sub>H<sub>6</sub>ClNO<sub>2</sub>",
        "Molecular Mass": "171.58",
        "Boiling Point": "84-88 °C @ Press: 15 Torr",
        "Melting Point": "33-34 °C"
    }
}