{
    "cas_no": "588-22-7",
    "key_name": "(3,4-Dichlorophenoxy)acetic acid",
    "cn_name": "3,4-二氯苯氧基乙酸;",
    "alternate_name": "Acetic acid, 2-(3,4-dichlorophenoxy)-;Acetic acid, (3,4-dichlorophenoxy)-;2-(3,4-Dichlorophenoxy)acetic acid;3,4-D;3,4-DA;(3,4-Dichlorophenoxy)acetic acid;NSC 39017;NSC 525057",
    "duplicated_cas_no": "",
    "SMILES": "O(CC(O)=O)C1=CC(Cl)=C(Cl)C=C1",
    "meta_data": {
        "InChI": "InChI=1S/C8H6Cl2O3/c9-6-2-1-5(3-7(6)10)13-4-8(11)12/h1-3H,4H2,(H,11,12)",
        "InChIKey": null,
        "Canonical SMILES": "O=C(O)COC1=CC=C(Cl)C(Cl)=C1",
        "Molecular Formula": "C<sub>8</sub>H<sub>6</sub>Cl<sub>2</sub>O<sub>3</sub>",
        "Molecular Mass": "221.04",
        "Melting Point": "139 °C"
    }
}