{
    "cas_no": "14464-32-5",
    "key_name": "Stearic acid <em>N</em>-hydroxysuccinimide ester",
    "cn_name": null,
    "alternate_name": "Octadecanoic acid, 2,5-dioxo-1-pyrrolidinyl ester;Succinimide, <em>N</em>-(stearoyloxy)-;2,5-Pyrrolidinedione, 1-[(1-oxooctadecyl)oxy]-;<em>N</em>-(Stearoyloxy)succinimide;Stearic acid <em>N</em>-hydroxysuccinimide ester;Stearic acid hydroxysuccinimide ester;Octadecanoic acid <em>N</em>-hydroxysuccinimide ester;Succinimidyl octadecanoate;Stearoyl <em>N</em>-hydroxysuccinimide ester;Octadecanoic acid succinimidyl ester;2,5-Dioxopyrrolidin-1-yl stearate",
    "duplicated_cas_no": "",
    "SMILES": "O(C(CCCCCCCCCCCCCCCCC)=O)N1C(=O)CCC1=O",
    "meta_data": {
        "InChI": "InChI=1S/C22H39NO4/c1-2-3-4-5-6-7-8-9-10-11-12-13-14-15-16-17-22(26)27-23-20(24)18-19-21(23)25/h2-19H2,1H3",
        "InChIKey": null,
        "Canonical SMILES": "O=C(ON1C(=O)CCC1=O)CCCCCCCCCCCCCCCCC",
        "Molecular Formula": "C<sub>22</sub>H<sub>39</sub>NO<sub>4</sub>",
        "Molecular Mass": "381.55",
        "Melting Point": "93 °C"
    }
}