{
    "cas_no": "39870-05-8",
    "key_name": "1-(4-Pyrimidinyl)ethanone",
    "cn_name": null,
    "alternate_name": "Ethanone, 1-(4-pyrimidinyl)-;Ketone, methyl 4-pyrimidinyl;1-(4-Pyrimidinyl)ethanone;Methyl 4-pyrimidinyl ketone;4-Pyrimidinyl methyl ketone;Methyl 4-pyrimidyl ketone;4-Acetylpyrimidine;1-(Pyrimidin-4-yl)ethanone;1-(Pyrimidin-4-yl)ethan-1-one",
    "duplicated_cas_no": "",
    "SMILES": "C(C)(=O)C=1C=CN=CN1",
    "meta_data": {
        "InChI": "InChI=1S/C6H6N2O/c1-5(9)6-2-3-7-4-8-6/h2-4H,1H3",
        "InChIKey": null,
        "Canonical SMILES": "O=C(C=1N=CN=CC1)C",
        "Molecular Formula": "C<sub>6</sub>H<sub>6</sub>N<sub>2</sub>O",
        "Molecular Mass": "122.12",
        "Boiling Point": "70 °C @ Press: 3 Torr",
        "Melting Point": "67 °C"
    }
}