{
    "cas_no": "142-81-4",
    "key_name": "Hexylammonium chloride",
    "cn_name": "正己胺盐酸盐;1-己胺盐酸盐;盐酸正己胺;",
    "alternate_name": "1-Hexanamine, hydrochloride (1:1);Hexylamine, hydrochloride;1-Hexanamine, hydrochloride;Hexylammonium chloride;<em>n</em>-Hexylammonium chloride;<em>n</em>-Hexylamine hydrochloride;1-Hexylamine hydrochloride;1-Aminohexane hydrochloride",
    "duplicated_cas_no": "",
    "SMILES": "C(CCC)CCN.Cl",
    "meta_data": {
        "InChI": "InChI=1S/C6H15N.ClH/c1-2-3-4-5-6-7;/h2-7H2,1H3;1H",
        "InChIKey": null,
        "Canonical SMILES": "Cl.NCCCCCC",
        "Molecular Formula": "C<sub>6</sub>H<sub>15</sub>N.ClH",
        "Molecular Mass": "",
        "Melting Point": "218-219 °C"
    }
}