{
    "cas_no": "86404-04-8",
    "key_name": "3-<em>O</em>-Ethylascorbic acid",
    "cn_name": null,
    "alternate_name": "<span class=\"text-smallcaps\">L</span>-Ascorbic acid, 3-<em>O</em>-ethyl-;3-<em>O</em>-Ethyl-<span class=\"text-smallcaps\">L</span>-ascorbic acid;<span class=\"text-smallcaps\">L</span>-Ascorbic acid 3-<em>O</em>-ethyl ether;3-<em>O</em>-Ethylascorbic acid;VC Ethyl;COS-VCE;ENB-VCE;Specwhite VCE",
    "duplicated_cas_no": "",
    "SMILES": "[C@@H](CO)(O)[C@@]1(C(OCC)=C(O)C(=O)O1)[H]",
    "meta_data": {
        "InChI": "InChI=1S/C8H12O6/c1-2-13-7-5(11)8(12)14-6(7)4(10)3-9/h4,6,9-11H,2-3H2,1H3/t4-,6+/m0/s1",
        "InChIKey": null,
        "Canonical SMILES": "O=C1OC(C(OCC)=C1O)C(O)CO",
        "Molecular Formula": "C<sub>8</sub>H<sub>12</sub>O<sub>6</sub>",
        "Molecular Mass": "204.18",
        "Melting Point": "116-117.5 °C"
    }
}