{
    "cas_no": "9004-70-0",
    "key_name": "Nitrocellulose",
    "cn_name": "硝酸纤维素;硝化纤维素;硝化棉;火棉胶;",
    "alternate_name": "Cellulose, nitrate;Nitrocellulose;Celloidin;Colloxylin;Nitrocotton;Nitron (nitrocellulose);Nixon N/C;Pyroxylin;Soluble gun cotton;Xyloidin;Parlodion;Tsapolak 964;Guncotton;Synpor;LR 115;Flexible collodion;Collodion wool;Collodion cotton;CA 80-15;Collodion;RF 10;Kodak LR 115;HX 3/5;NTs 542;C 2018;NTs 218;FM-NTs;NTs 539;NTs 62;E 1440;NTs 222;BK<sub>2</sub>-Z;BK<sub>2</sub>-W;NP 180;H 1/2;CN 85;Nitrocel S;Nitron;Daicel RS 1/2;CN 88;Colloxylin VNV;Daicel RS 1;Shadolac MT;HE 2000;DHX 30/50;SL 1;Daicel RS 1/2H;RS 1/4;E 375;A 5021;LR 115II;Celline 200;BA 85;Sartorius SM 11306;Celnova BTH 1/2;Sartorius SM 11304;PC Medium;CA 80;Daicel RS 7;Daicel RS 200;HIG 120;Sartorius SM 11301;Hydrholac SD 270;A 300A;E 330;Sartorius SM 11307;Sartorius SM 11336;VF 2 (nitrocellulose);VF 2;ProBind;Ivory Celluloid;SS 1/4;TM 45;Duco;Vinisol E;H 40;H 60;Daicel RS;Daicel SS;Celva;HIG 1/2;E 1160L;E 560L;E 950L;NTs 2102;A 5020;A 280;RS 1/2;SS 1/8;Biotrace NT;Corial EM Finish LS;E 400 (cellulose derivative);E 620;E 950;E 400;HIG 60;NC;Hacolor;Norma 34E;Lac 2126;WC 140;X 3705;3/1S;Spraymat-Clou;C 1145;NTs 25;NTs 257;Nitromastic 220;HIG 1/16;NC-H 1/16;Daicel SS 1/8;Daicel SS 1/2;Daicel SS 1/2a;Daicel SS 1/4a;Daicel SS 1/4b;Daicel SS 1/2b;Celline FM 200;NTs 573;Lovex DP;Lovex SP;NVA 23mm;A 5023;H 60 (ester);KB 6975;LR 311;HIG 1/4;AH 27;Daicel RS 20;Daicel RA 1/16;Corial EM Finish F;LIG 1/2;DLX 3/5;Celline FM 200S;Nazdar Clear IL;Bergerac NC;RSNC 1/16;HIG 10;Hybon C Nitrocellulose Membrane;Hybon ECL Nitrocellulose Membrane;Hybon C Extra Supported Nitrocellulose Membrane;HIG 2;TM-VI;Wufl;LR 115A;CN 80;CN 80 (cellulose derivative);FQRS 1/4;NC-H 1/2;KP-OP Varnish 121B;DHX 3-5;RS 1/2H;A 5021 (cellulose derivative);FQRS 1/2;Daicel FQRS 1/2;VX 1;GNC 25;RS 10;RS 20;RS 20 (binder);FQRS 7;NC-H 1/8;CA 85;Flewo;Daicel H 7;HI 2000;HIG 1/8;HC-H 301;LIG 1/8;Daicel RS 1/16;Lanco CL 600;Futura Clear 25;CD 220;Daicel FQRS 1/8;FQRS 1/8;NC 111-407;HIG 7;Vinylol 9200;NM 813-0025;LIG 1/4;H 30;HIG 20;HIG 500;H 30 (nitrocellulose);RS 1/2MW;Daicel RS 1/2MW;CN 40-60;Ikalak W 312;PD 14P;Hybond C Extra;Celnova BTH 1;HAWP 04700;HIG 1/2N;Daicel H 1;New Skin;NP 180 (nitrocellulose);NC 1/2H;Colloxylin VV;NTs 2192;BTH 1/2;Collodion E 15;Colloxylin NKh;Corrugate NT;RS 120 (nitrate);BTH 1/2S;E 620 (cellulose derivative);NC 120;NC 120 (cellulose derivative);Haptobond CT 120;A 400;A 400 (cellulose derivative);Nitrocellulose H 22;H 22;H 22 (cellulose derivative);S 1/8;Cellophane MS 500;Imedio;RS 2;VM;VM (filter material);1/8BNC;Walsroder E 330;Walsroder E 1160;Walsroder A 500;Walsroder E 560;Hi-Flow Plus membranes;L 1/4;BNC-HIG 2;Walsroder E 520;R 3510;Vecomul AN;HIG 1;Hi-Flow Plus 240;1/4NC(LIG);DLX 5-10;A 300;AM 330;BNC-NC-E 15;A 300 (cellulose deriv.);NC-RS 2KCNC;Kollodium;Collodium;NC-E 24;NTs 21;H 33;H 33 (cellulose derivative);TS 1/8;DHM 10-25IPA;E 560;E 510;Melio EW 346;6460LO;1/8H;1/4LIG;GSWP 14250;Hybond ECL;RPN 203D;NC-HIG 1/2G-KCNC;HIG 1/8G;H 221;H 221 (cellulose derivative);DHL 120-170IPA;HIG 1/2A;Immmunopore SP;Immmunopore FP;Immmunopore RP;Hi-Flow Plus HFB 135;DHN 10-25;DHL 25-45;DHL 120-170;DHX 40-70;H 1/8;H 1/4;H 120;L 1/2;SS 18-25BN;DHM 10-25;H 1/2EA;1/2NC;HIG 1/8G-KCNC;H 1G1/8;NC Resin;RS 1/8;Enkracoa EAC 831;NC (explosive);Synthesia E 9;M 50050V19;DLX 30-50;DHX 3/5IPA;ACC Clear 9094 Seal-Thru;Guncotton, soluble;Fulmicoton;Idyl E 35TX;DLX 5-8;DLT 5-8;NC-TR 1;NC-TR 1/4W;NC-TR 1/16;NC-TR 20;NC-TR 60;Hi-Flow Plus;Hi-Flow Plus HF 180;NC-HIG 1/2G;Stahl 77-212;WieMelio EW-D 330;NC DHX 3-5;SS 20;ON 50;DHX 5-10;DHX 4-6;DLX 8-13;ES-GP;DHX 11-16;CA 4A10;Prima 40;Whatman AE 99;7L (nitrocellulose);Walsroder E 400NC;Hi-Flow Plus HF 135;DHX 8-13;NTs 0218;S 143 Varnish;S 146 Varnish;NC-RS 2;Walsroder E 840;UniSart CN 140;Nitrocellulose membrane UniSart CN 140;UniSart 140;Millipore HF 135;Lovex S 011;Lovex S 040;NC-E 34;Agateen Lacquer 27;CN 140;Epafix;NH 90;Sarlak NW 246;Sarlak NW 248M;Care WL 8119;WL 8119;Scholle 6558;Leimeng LM 40;LM 40;LW 65-370;LX 3/5;Fuyi LA 300;6004LA;6113LA;6194LA;LA 300;Roda Lacquer 93;UN 263;Varnish 13714;1/16S;YET 55-083;XGS 4510;Walsroder NC-Chips E 510ESO;LW 77-183;Melio EW 348C;Isoderm Matt LA 86;Daweilishi LW 6175;LW 77-058;TR 56;Walsroder NC Chips A 400;Colloxylin PSV;H 7 (nitrocellulose);H 7;NC-TR 2;NC-TR 5-6;NC-DHX 5-10;NC-DHX 4-6;NC-DHX 30-50;NC-DHX 120-170",
    "duplicated_cas_no": "1339-76-0;8050-69-9;8050-70-2;37228-31-2;37317-48-9;60649-57-2;72026-64-3;72026-68-7;88386-25-8;124362-83-0;152264-12-5;188626-79-1;246848-29-3;353274-56-3;909342-54-7;1610892-19-7;2001537-63-7;2166122-28-5;2245235-30-5;2245235-31-6;2414146-27-1;2704570-50-1",
    "SMILES": "",
    "meta_data": {
        "InChI": "",
        "InChIKey": null,
        "Canonical SMILES": "",
        "Molecular Formula": "HNO<sub>3</sub>.xUnspecified",
        "Molecular Mass": "",
        "Boiling Point": "&lt;100 °C",
        "Melting Point": "100 °C",
        "Density": "0.765-0.775 g/cm³ @ Temp: 25 °C"
    }
}