{
    "cas_no": "15873-51-5",
    "key_name": "4-Nitroaniline hydrochloride",
    "cn_name": null,
    "alternate_name": "Benzenamine, 4-nitro-, hydrochloride (1:1);Aniline, <em>p</em>-nitro-, monohydrochloride;Benzenamine, 4-nitro-, monohydrochloride;<em>p</em>-Nitroanilinium chloride;<em>p</em>-Nitroaniline hydrochloride;<em>p</em>-Nitroaniline monohydrochloride;p-Nitroaniline hydrochloride;4-Nitroaniline hydrochloride;4-Nitrobenzenamine hydrochloride;<em>p</em>-Nitrobenzylammonium chloride",
    "duplicated_cas_no": "",
    "SMILES": "N(=O)(=O)C1=CC=C(N)C=C1.Cl",
    "meta_data": {
        "InChI": "InChI=1S/C6H6N2O2.ClH/c7-5-1-3-6(4-2-5)8(9)10;/h1-4H,7H2;1H",
        "InChIKey": null,
        "Canonical SMILES": "Cl.O=N(=O)C1=CC=C(N)C=C1",
        "Molecular Formula": "C<sub>6</sub>H<sub>6</sub>N<sub>2</sub>O<sub>2</sub>.ClH",
        "Molecular Mass": "",
        "Melting Point": "145-146 °C"
    }
}