{
    "cas_no": "14901-16-7",
    "key_name": "1-Phenyl-3-(2-thiazolyl)-2-thiourea",
    "cn_name": "1-苯基-3-(2-噻唑基)-2-硫脲;苯基-3-(2-噻唑基)-2-硫脲;",
    "alternate_name": "Thiourea, <em>N</em>-phenyl-<em>N</em>′-2-thiazolyl-;Urea, 1-phenyl-3-(2-thiazolyl)-2-thio-;<em>N</em>-Phenyl-<em>N</em>′-2-thiazolylthiourea;1-Phenyl-3-(2-thiazolyl)thiourea;U 14624;1-Phenyl-3-(2-thiazolyl)-2-thiourea;NSC 139257;1-Phenyl-3-(thiazole-2-yl)thiourea",
    "duplicated_cas_no": "",
    "SMILES": "N(C(NC1=NC=CS1)=S)C2=CC=CC=C2",
    "meta_data": {
        "InChI": "InChI=1S/C10H9N3S2/c14-9(13-10-11-6-7-15-10)12-8-4-2-1-3-5-8/h1-7H,(H2,11,12,13,14)",
        "InChIKey": null,
        "Canonical SMILES": "S=C(NC1=NC=CS1)NC=2C=CC=CC2",
        "Molecular Formula": "C<sub>10</sub>H<sub>9</sub>N<sub>3</sub>S<sub>2</sub>",
        "Molecular Mass": "235.33",
        "Melting Point": "129 °C"
    }
}