{
    "cas_no": "3958-03-0",
    "key_name": "Tetrabromothiophene",
    "cn_name": "四溴噻吩;2,3,4,5-四溴噻吩;",
    "alternate_name": "Thiophene, 2,3,4,5-tetrabromo-;Thiophene, tetrabromo-;2,3,4,5-Tetrabromothiophene;Tetrabromothiophene;NSC 65427",
    "duplicated_cas_no": "",
    "SMILES": "BrC=1C(Br)=C(Br)SC1Br",
    "meta_data": {
        "InChI": "InChI=1S/C4Br4S/c5-1-2(6)4(8)9-3(1)7",
        "InChIKey": null,
        "Canonical SMILES": "BrC=1SC(Br)=C(Br)C1Br",
        "Molecular Formula": "C<sub>4</sub>Br<sub>4</sub>S",
        "Molecular Mass": "399.72",
        "Boiling Point": "326 °C",
        "Melting Point": "117.5 °C"
    }
}