{
    "cas_no": "3088-41-3",
    "key_name": "1-Piperidinepropanenitrile",
    "cn_name": "N-氰乙基哌啶;3-哌啶丙腈;",
    "alternate_name": "1-Piperidinepropanenitrile;1-Piperidinepropionitrile;β-Piperidinopropionitrile;3-Piperidinopropionitrile;3-Piperidinopropanenitrile;3-(1-Piperidinyl)propionitrile;1-(2-Cyanoethyl)piperidine;3-(Piperidin-1-yl)propanenitrile",
    "duplicated_cas_no": "4734-41-2",
    "SMILES": "C(CC#N)N1CCCCC1",
    "meta_data": {
        "InChI": "InChI=1S/C8H14N2/c9-5-4-8-10-6-2-1-3-7-10/h1-4,6-8H2",
        "InChIKey": null,
        "Canonical SMILES": "N#CCCN1CCCCC1",
        "Molecular Formula": "C<sub>8</sub>H<sub>14</sub>N<sub>2</sub>",
        "Molecular Mass": "138.21",
        "Boiling Point": "116 °C @ Press: 18 Torr",
        "Melting Point": "-6.8 °C",
        "Density": "0.9427 g/cm³ @ Temp: 20 °C"
    }
}