{
    "cas_no": "5005-37-8",
    "key_name": "α-(4-Chlorophenyl)-2-pyridineacetonitrile",
    "cn_name": null,
    "alternate_name": "2-Pyridineacetonitrile, α-(4-chlorophenyl)-;2-Pyridineacetonitrile, α-(<em>p</em>-chlorophenyl)-;α-(4-Chlorophenyl)-2-pyridineacetonitrile;<em>p</em>-Chlorophenyl-2-pyridylacetonitrile;NSC 165824;2-(4-Chlorophenyl)-2-(pyridin-2-yl)acetonitrile;2-(4-Chlorophenyl)-2-pyridin-2-ylacetonitrile",
    "duplicated_cas_no": "103887-49-6",
    "SMILES": "C(C#N)(C1=CC=C(Cl)C=C1)C2=CC=CC=N2",
    "meta_data": {
        "InChI": "InChI=1S/C13H9ClN2/c14-11-6-4-10(5-7-11)12(9-15)13-3-1-2-8-16-13/h1-8,12H",
        "InChIKey": null,
        "Canonical SMILES": "N#CC(C1=NC=CC=C1)C2=CC=C(Cl)C=C2",
        "Molecular Formula": "C<sub>13</sub>H<sub>9</sub>ClN<sub>2</sub>",
        "Molecular Mass": "228.68",
        "Boiling Point": "165 °C @ Press: 3 Torr",
        "Melting Point": "67.5-67.8 °C"
    }
}