{
    "cas_no": "5488-16-4",
    "key_name": "2,5-Dihydroxy-1,4-benzenediacetic acid",
    "cn_name": "2,5-二羟基-1,4-苯二乙酸;",
    "alternate_name": "1,4-Benzenediacetic acid, 2,5-dihydroxy-;<em>p</em>-Benzenediacetic acid, 2,5-dihydroxy-;2,5-Dihydroxy-1,4-benzenediacetic acid;NSC 30144;2-2′-(2,5-Dihydroxy-1,4-phenylene)diacetic acid;2-[4-(Carboxymethyl)-2,5-dihydroxyphenyl]acetic acid",
    "duplicated_cas_no": "",
    "SMILES": "C(C(O)=O)C1=C(O)C=C(CC(O)=O)C(O)=C1",
    "meta_data": {
        "InChI": "InChI=1S/C10H10O6/c11-7-1-5(3-9(13)14)8(12)2-6(7)4-10(15)16/h1-2,11-12H,3-4H2,(H,13,14)(H,15,16)",
        "InChIKey": null,
        "Canonical SMILES": "O=C(O)CC1=CC(O)=C(C=C1O)CC(=O)O",
        "Molecular Formula": "C<sub>10</sub>H<sub>10</sub>O<sub>6</sub>",
        "Molecular Mass": "226.18",
        "Melting Point": "233 °C"
    }
}