{
    "cas_no": "2537-36-2",
    "key_name": "Tetramethylammonium perchlorate",
    "cn_name": "四甲基高氯酸铵;高氯酸四甲基铵;",
    "alternate_name": "Methanaminium, <em>N</em>,<em>N</em>,<em>N</em>-trimethyl-, perchlorate (1:1);Ammonium, tetramethyl-, perchlorate;Methanaminium, <em>N</em>,<em>N</em>,<em>N</em>-trimethyl-, perchlorate;Tetramethylammonium perchlorate;NSC 245090",
    "duplicated_cas_no": "",
    "SMILES": "Cl(=O)(=O)(=O)[O-].[N+](C)(C)(C)C",
    "meta_data": {
        "InChI": "InChI=1S/C4H12N.ClHO4/c1-5(2,3)4;2-1(3,4)5/h1-4H3;(H,2,3,4,5)/q+1;/p-1",
        "InChIKey": null,
        "Canonical SMILES": "O=Cl(=O)(=O)[O-].C[N+](C)(C)C",
        "Molecular Formula": "C<sub>4</sub>H<sub>12</sub>N.ClO<sub>4</sub>",
        "Molecular Mass": "",
        "Melting Point": "300 °C"
    }
}