{
    "cas_no": "57113-91-4",
    "key_name": "Benzoic acid, 2-amino-3-nitro-, methyl ester",
    "cn_name": "2-氨基-3-硝基苯甲酸甲酯;",
    "alternate_name": "Benzoic acid, 2-amino-3-nitro-, methyl ester;Anthranilic acid, 3-nitro-, methyl ester;Methyl 3-nitroanthranilate;Methyl 2-Amino-3-nitrobenzoate;2-Amino-3-nitrobenzoic acid methyl ester",
    "duplicated_cas_no": "",
    "SMILES": "C(OC)(=O)C1=C(N)C(N(=O)=O)=CC=C1",
    "meta_data": {
        "InChI": "InChI=1S/C8H8N2O4/c1-14-8(11)5-3-2-4-6(7(5)9)10(12)13/h2-4H,9H2,1H3",
        "InChIKey": null,
        "Canonical SMILES": "O=C(OC)C1=CC=CC(=C1N)N(=O)=O",
        "Molecular Formula": "C<sub>8</sub>H<sub>8</sub>N<sub>2</sub>O<sub>4</sub>",
        "Molecular Mass": "196.16",
        "Melting Point": "95-96 °C"
    }
}