{
    "cas_no": "95-32-9",
    "key_name": "2-(4-Morpholinodithio)benzothiazole",
    "cn_name": "2-(4-吗啉基二硫代)苯并噻唑;促进剂MDB;促进剂DS;",
    "alternate_name": "Benzothiazole, 2-(4-morpholinyldithio)-;Benzothiazole, 2-(morpholinodithio)-;2-(4-Morpholinyldithio)benzothiazole;Morfax;2-(Morpholinodithio)benzothiazole;2-Benzothiazolyl morpholino disulfide;<em>N</em>-(4-Morpholinyl) 2-benzothiazolyl disulfide;Morpholino 2-benzothiazolyl disulfide;Vulcuren 2;2-(4-Morpholinodithio)benzothiazole;2-Benzothiazolyl 4-morpholinyl disulfide;Accel DS;Nocceler MDB;Disulfal MG;NSC 519695;Nocceler MDB-P;<em>N</em>-(2-Benzothiazolyldithio)morpholine;Accelerator 26;Accelerator MDB;Accelerator DS;MDB;4-Morpholinyl-2-benzothiazole disulfide",
    "duplicated_cas_no": "1214747-86-0",
    "SMILES": "S(SN1CCOCC1)C2=NC=3C(S2)=CC=CC3",
    "meta_data": {
        "InChI": "InChI=1S/C11H12N2OS3/c1-2-4-10-9(3-1)12-11(15-10)16-17-13-5-7-14-8-6-13/h1-4H,5-8H2",
        "InChIKey": null,
        "Canonical SMILES": "N1=C(SSN2CCOCC2)SC=3C=CC=CC13",
        "Molecular Formula": "C<sub>11</sub>H<sub>12</sub>N<sub>2</sub>OS<sub>3</sub>",
        "Molecular Mass": "284.42",
        "Melting Point": "125 °C"
    }
}