{
    "cas_no": "4869-59-4",
    "key_name": "3-Mercaptobenzoic acid",
    "cn_name": "3-巯基苯甲酸;",
    "alternate_name": "Benzoic acid, 3-mercapto-;Benzoic acid, <em>m</em>-mercapto-;3-Mercaptobenzoic acid;<em>m</em>-Mercaptobenzoic acid;NSC 32021;3-Sulfanylbenzoic acid",
    "duplicated_cas_no": "",
    "SMILES": "C(O)(=O)C1=CC(S)=CC=C1",
    "meta_data": {
        "InChI": "InChI=1S/C7H6O2S/c8-7(9)5-2-1-3-6(10)4-5/h1-4,10H,(H,8,9)",
        "InChIKey": null,
        "Canonical SMILES": "O=C(O)C=1C=CC=C(S)C1",
        "Molecular Formula": "C<sub>7</sub>H<sub>6</sub>O<sub>2</sub>S",
        "Molecular Mass": "154.19",
        "Melting Point": "146-147 °C"
    }
}