{
    "cas_no": "10140-70-2",
    "key_name": "(-)-Curvularin",
    "cn_name": null,
    "alternate_name": "2<em>H</em>-3-Benzoxacyclododecin-2,10(1<em>H</em>)-dione, 4,5,6,7,8,9-hexahydro-11,13-dihydroxy-4-methyl-, (4<em>S</em>)-;2<em>H</em>-3-Benzoxacyclododecin-2,10(1<em>H</em>)-dione, 4,5,6,7,8,9-hexahydro-11,13-dihydroxy-4-methyl-;Curvularin;2<em>H</em>-3-Benzoxacyclododecin-2,10(1<em>H</em>)-dione, 4,5,6,7,8,9-hexahydro-11,13-dihydroxy-4-methyl-, (<em>S</em>)-;(4<em>S</em>)-4,5,6,7,8,9-Hexahydro-11,13-dihydroxy-4-methyl-2<em>H</em>-3-benzoxacyclododecin-2,10(1<em>H</em>)-dione;(-)-(<em>S</em>)-Curvularin;(-)-Curvularin;NSC 166071;(<em>S</em>)-Curvularin",
    "duplicated_cas_no": "1401-99-6",
    "SMILES": "OC1=C2C(=CC(O)=C1)CC(=O)O[C@@H](C)CCCCCC2=O",
    "meta_data": {
        "InChI": "InChI=1S/C16H20O5/c1-10-5-3-2-4-6-13(18)16-11(8-15(20)21-10)7-12(17)9-14(16)19/h7,9-10,17,19H,2-6,8H2,1H3/t10-/m0/s1",
        "InChIKey": null,
        "Canonical SMILES": "O=C1OC(C)CCCCCC(=O)C=2C(O)=CC(O)=CC2C1",
        "Molecular Formula": "C<sub>16</sub>H<sub>20</sub>O<sub>5</sub>",
        "Molecular Mass": "292.33",
        "Melting Point": "205-207 °C"
    }
}