{
    "cas_no": "69567-10-8",
    "key_name": "<em>N</em>-Methyl-1-deoxynojirimycin",
    "cn_name": "N-甲基-1-脱氧尻霉素;1,5-二脱氧-1,5-亚氨基-1-甲基-D-山梨醇;",
    "alternate_name": "3,4,5-Piperidinetriol, 2-(hydroxymethyl)-1-methyl-, (2<em>R</em>,3<em>R</em>,4<em>R</em>,5<em>S</em>)-;3,4,5-Piperidinetriol, 2-(hydroxymethyl)-1-methyl-, [2<em>R</em>-(2α,3β,4α,5β)]-;(2<em>R</em>,3<em>R</em>,4<em>R</em>,5<em>S</em>)-2-(Hydroxymethyl)-1-methyl-3,4,5-piperidinetriol;<em>N</em>-Methylmoranoline;<em>N</em>-Methylmoranolin;<em>N</em>-Methyl-1-deoxynojirimycin;MOR 14",
    "duplicated_cas_no": "",
    "SMILES": "C(O)[C@@H]1[C@@H](O)[C@H](O)[C@@H](O)CN1C",
    "meta_data": {
        "InChI": "InChI=1S/C7H15NO4/c1-8-2-5(10)7(12)6(11)4(8)3-9/h4-7,9-12H,2-3H2,1H3/t4-,5+,6-,7-/m1/s1",
        "InChIKey": null,
        "Canonical SMILES": "OCC1N(C)CC(O)C(O)C1O",
        "Molecular Formula": "C<sub>7</sub>H<sub>15</sub>NO<sub>4</sub>",
        "Molecular Mass": "177.20",
        "Melting Point": "152-153 °C"
    }
}