{
    "cas_no": "441-38-3",
    "key_name": "(±)-Benzoin oxime",
    "cn_name": "α-安息香肟;α-安息香肟;",
    "alternate_name": "Ethanone, 2-hydroxy-1,2-diphenyl-, oxime;Benzoin, oxime;α-Benzoin oxime;(±)-<em>anti</em>-Benzoin oxime;<em>dl</em>-Benzoin <em>anti</em>-oxime;(<em>E</em>)-(±)-2-Hydroxy-1,2-diphenyl-ethanone oxime;(±)-Benzoin oxime;2-Hydroxy-1,2-diphenylethanone oxime;NSC 659",
    "duplicated_cas_no": "141902-07-0;1143-89-1;5928-63-2",
    "SMILES": "C(C(O)C1=CC=CC=C1)(=NO)C2=CC=CC=C2",
    "meta_data": {
        "InChI": "InChI=1S/C14H13NO2/c16-14(12-9-5-2-6-10-12)13(15-17)11-7-3-1-4-8-11/h1-10,14,16-17H",
        "InChIKey": null,
        "Canonical SMILES": "ON=C(C=1C=CC=CC1)C(O)C=2C=CC=CC2",
        "Molecular Formula": "C<sub>14</sub>H<sub>13</sub>NO<sub>2</sub>",
        "Molecular Mass": "227.26",
        "Melting Point": "151 °C"
    }
}