{
    "cas_no": "18365-42-9",
    "key_name": "α-Chlorocinnamaldehyde",
    "cn_name": "alpha-氯代肉桂醛;",
    "alternate_name": "2-Propenal, 2-chloro-3-phenyl-;Cinnamaldehyde, α-chloro-;2-Chloro-3-phenyl-2-propenal;α-Chlorocinnamaldehyde;2-Chloro-3-phenylacrolein;2-Chloro-3-phenylpropenal;2-Chloro-3-phenylacrylaldehyde",
    "duplicated_cas_no": "",
    "SMILES": "C(=C(C=O)Cl)C1=CC=CC=C1",
    "meta_data": {
        "InChI": "InChI=1S/C9H7ClO/c10-9(7-11)6-8-4-2-1-3-5-8/h1-7H",
        "InChIKey": null,
        "Canonical SMILES": "O=CC(Cl)=CC=1C=CC=CC1",
        "Molecular Formula": "C<sub>9</sub>H<sub>7</sub>ClO",
        "Molecular Mass": "166.60",
        "Boiling Point": "132-133 °C @ Press: 9 Torr",
        "Melting Point": "32.1 °C"
    }
}