{
    "cas_no": "59-00-7",
    "key_name": "Xanthurenic acid",
    "cn_name": "4,8-二羟基喹啉-2-甲酸;",
    "alternate_name": "2-Quinolinecarboxylic acid, 4,8-dihydroxy-;Quinaldic acid, 4,8-dihydroxy-;4,8-Dihydroxy-2-quinolinecarboxylic acid;4,8-Dihydroxyquinaldic acid;Xanthurenic acid;Xanthuric acid;8-Hydroxykynurenic acid;NSC 401570;MeSH ID: D014977",
    "duplicated_cas_no": "37203-30-8",
    "SMILES": "OC=1C2=C(C(O)=CC(C(O)=O)=N2)C=CC1",
    "meta_data": {
        "InChI": "InChI=1S/C10H7NO4/c12-7-3-1-2-5-8(13)4-6(10(14)15)11-9(5)7/h1-4,12H,(H,11,13)(H,14,15)",
        "InChIKey": null,
        "Canonical SMILES": "O=C(O)C=1N=C2C(O)=CC=CC2=C(O)C1",
        "Molecular Formula": "C<sub>10</sub>H<sub>7</sub>NO<sub>4</sub>",
        "Molecular Mass": "205.17",
        "Melting Point": "289 °C"
    }
}