{
    "cas_no": "863870-88-6",
    "key_name": "2-Bromo-3-iodophenol",
    "cn_name": null,
    "alternate_name": "Phenol, 2-bromo-3-iodo-;2-Bromo-3-iodophenol",
    "duplicated_cas_no": "",
    "SMILES": "BrC1=C(I)C=CC=C1O",
    "meta_data": {
        "InChI": "InChI=1S/C6H4BrIO/c7-6-4(8)2-1-3-5(6)9/h1-3,9H",
        "InChIKey": null,
        "Canonical SMILES": "BrC=1C(I)=CC=CC1O",
        "Molecular Formula": "C<sub>6</sub>H<sub>4</sub>BrIO",
        "Molecular Mass": "298.90",
        "Melting Point": "69-71 °C"
    }
}