{
    "cas_no": "23605-74-5",
    "key_name": "Hexanediaminetetra(methylenephosphonic acid)",
    "cn_name": "己二胺四甲叉膦酸;己二胺四亚甲基膦酸;1,6-己二胺四甲叉膦酸;六亚甲基二胺四亚甲基膦酸;",
    "alternate_name": "Phosphonic acid, <em>P</em>,<em>P</em>′,<em>P</em>′′,<em>P</em>′′′-[1,6-hexanediylbis[nitrilobis(methylene)]]tetrakis-;Phosphonic acid, [hexamethylenebis(nitrilodimethylene)]tetra-;Phosphonic acid, [1,6-hexanediylbis[nitrilobis(methylene)]]tetrakis-;<em>P</em>,<em>P</em>′,<em>P</em>′′,<em>P</em>′′′-[1,6-Hexanediylbis[nitrilobis(methylene)]]tetrakis[phosphonic acid];<em>N</em>,<em>N</em>,<em>N</em>′,<em>N</em>′-Hexamethylenediaminetetra(methylenephosphonic acid);(Hexamethylenedinitrilo)tetrakis[methylenephosphonic acid];1,6-Hexanediaminetetrakis(methylene phosphonic acid);Dequest 2051;HDTMP;<em>N</em>,<em>N</em>,<em>N</em>′,<em>N</em>′-1,6-Hexamethylenediaminetetrakis(methylenephosphonic acid);Briquest 462;Hexanediaminetetra(methylenephosphonic acid);Hexamethylenedinitrilotetrakis(methylphosphonic acid);HDTMPA",
    "duplicated_cas_no": "66300-27-4;67774-90-7;688321-31-5",
    "SMILES": "N(CP(=O)(O)O)(CP(=O)(O)O)CCCCCCN(CP(=O)(O)O)CP(=O)(O)O",
    "meta_data": {
        "InChI": "InChI=1S/C10H28N2O12P4/c13-25(14,15)7-11(8-26(16,17)18)5-3-1-2-4-6-12(9-27(19,20)21)10-28(22,23)24/h1-10H2,(H2,13,14,15)(H2,16,17,18)(H2,19,20,21)(H2,22,23,24)",
        "InChIKey": null,
        "Canonical SMILES": "O=P(O)(O)CN(CCCCCCN(CP(=O)(O)O)CP(=O)(O)O)CP(=O)(O)O",
        "Molecular Formula": "C<sub>10</sub>H<sub>28</sub>N<sub>2</sub>O<sub>12</sub>P<sub>4</sub>",
        "Molecular Mass": "492.23",
        "Melting Point": "242 °C"
    }
}