{
    "cas_no": "6781-17-5",
    "key_name": "2-(2-Ethoxyphenoxy)ethylamine",
    "cn_name": "2-(2-乙氧基苯氧基)苯乙胺;",
    "alternate_name": "Ethanamine, 2-(2-ethoxyphenoxy)-;Ethylamine, 2-(<em>o</em>-ethoxyphenoxy)-;2-(2-Ethoxyphenoxy)ethanamine;2-(<em>o</em>-Ethoxyphenoxy)ethylamine;β-(<em>o</em>-Ethoxyphenoxy)ethylamine;2-(2-Ethoxyphenoxy)ethylamine;1-(2-Aminoethoxy)-2-ethoxybenzene;2-(2-Ethoxyphenoxy)ethan-1-amine",
    "duplicated_cas_no": "",
    "SMILES": "O(CCN)C1=C(OCC)C=CC=C1",
    "meta_data": {
        "InChI": "InChI=1S/C10H15NO2/c1-2-12-9-5-3-4-6-10(9)13-8-7-11/h3-6H,2,7-8,11H2,1H3",
        "InChIKey": null,
        "Canonical SMILES": "O(C=1C=CC=CC1OCCN)CC",
        "Molecular Formula": "C<sub>10</sub>H<sub>15</sub>NO<sub>2</sub>",
        "Molecular Mass": "181.23",
        "Boiling Point": "96-100 °C @ Press: 0.6 Torr"
    }
}