{
    "cas_no": "52661-56-0",
    "key_name": "<em>trans</em>-3-(5-Nitro-2-furyl)acrolein",
    "cn_name": null,
    "alternate_name": "2-Propenal, 3-(5-nitro-2-furanyl)-, (2<em>E</em>)-;2-Propenal, 3-(5-nitro-2-furanyl)-, (<em>E</em>)-;(2<em>E</em>)-3-(5-Nitro-2-furanyl)-2-propenal;(<em>E</em>)-3-(5-Nitro-2-furyl)acrolein;<em>trans</em>-3-(5-Nitro-2-furyl)acrolein;(2<em>E</em>)-3-(5-nitro-2-furanyl)-2-propenal",
    "duplicated_cas_no": "",
    "SMILES": "N(=O)(=O)C=1OC(/C=C/C=O)=CC1",
    "meta_data": {
        "InChI": "InChI=1S/C7H5NO4/c9-5-1-2-6-3-4-7(12-6)8(10)11/h1-5H/b2-1+",
        "InChIKey": null,
        "Canonical SMILES": "O=CC=CC=1OC(=CC1)N(=O)=O",
        "Molecular Formula": "C<sub>7</sub>H<sub>5</sub>NO<sub>4</sub>",
        "Molecular Mass": "167.12",
        "Melting Point": "284-285 °C"
    }
}