{
    "cas_no": "17380-18-6",
    "key_name": "3-Formyl-1<em>H</em>-indole-5-carbonitrile",
    "cn_name": null,
    "alternate_name": "1<em>H</em>-Indole-5-carbonitrile, 3-formyl-;Indole-5-carbonitrile, 3-formyl-;3-Formyl-1<em>H</em>-indole-5-carbonitrile;3-Formyl-5-cyano-1<em>H</em>-indole;5-Cyanoindole-3-carboxaldehyde;5-Cyano-1<em>H</em>-indole-3-carboxaldehyde",
    "duplicated_cas_no": "",
    "SMILES": "C(=O)C=1C=2C(NC1)=CC=C(C#N)C2",
    "meta_data": {
        "InChI": "InChI=1S/C10H6N2O/c11-4-7-1-2-10-9(3-7)8(6-13)5-12-10/h1-3,5-6,12H",
        "InChIKey": null,
        "Canonical SMILES": "N#CC=1C=CC=2NC=C(C=O)C2C1",
        "Molecular Formula": "C<sub>10</sub>H<sub>6</sub>N<sub>2</sub>O",
        "Molecular Mass": "170.17",
        "Melting Point": "256-258 °C"
    }
}