{
    "cas_no": "19186-33-5",
    "key_name": "Aristeromycin",
    "cn_name": "芒雷素;",
    "alternate_name": "1,2-Cyclopentanediol, 5-(6-amino-9<em>H</em>-purin-9-yl)-3-(hydroxymethyl)-, (1<em>S</em>,2<em>R</em>,3<em>R</em>,5<em>R</em>)-;1,2-Cyclopentanediol, 3-(6-amino-9<em>H</em>-purin-9-yl)-5-(hydroxymethyl)-, (1<em>R</em>,2<em>S</em>,3<em>R</em>,5<em>R</em>)-;1,2-Cyclopentanediol, 3-(6-amino-9<em>H</em>-purin-9-yl)-5-(hydroxymethyl)-, [1<em>R</em>-(1α,2α,3β,5β)]-;(1<em>S</em>,2<em>R</em>,3<em>R</em>,5<em>R</em>)-5-(6-Amino-9<em>H</em>-purin-9-yl)-3-(hydroxymethyl)-1,2-cyclopentanediol;Aristeromycin;Cycloadenosine;Carbocyclic adenosine;<em>C</em>-Adenosine;(-)-Aristeromycin;1′a-Carbaadenosine;NSC 103526",
    "duplicated_cas_no": "16975-96-5",
    "SMILES": "O[C@H]1[C@H](N2C=3C(N=C2)=C(N)N=CN3)C[C@H](CO)[C@H]1O",
    "meta_data": {
        "InChI": "InChI=1S/C11H15N5O3/c12-10-7-11(14-3-13-10)16(4-15-7)6-1-5(2-17)8(18)9(6)19/h3-6,8-9,17-19H,1-2H2,(H2,12,13,14)/t5-,6-,8-,9+/m1/s1",
        "InChIKey": null,
        "Canonical SMILES": "OCC1CC(N2C=NC=3C(=NC=NC32)N)C(O)C1O",
        "Molecular Formula": "C<sub>11</sub>H<sub>15</sub>N<sub>5</sub>O<sub>3</sub>",
        "Molecular Mass": "265.27",
        "Melting Point": "213-215 °C (decomp)"
    }
}