{
    "cas_no": "1271-86-9",
    "key_name": "<em>N</em>,<em>N</em>-Dimethylaminomethylferrocene",
    "cn_name": "N,N-二甲基二茂铁甲胺;N,N-二甲基氨甲基二茂铁;",
    "alternate_name": "Ferrocene, [(dimethylamino)methyl]-;Ferrocenemethylamine, <em>N</em>,<em>N</em>-dimethyl-;Iron, cyclopentadienyl[[(dimethylamino)methyl]cyclopentadienyl]-;[(Dimethylamino)methyl]ferrocene;<em>N</em>,<em>N</em>-Dimethylferrocenylmethylamine;α-Ferrocenyltrimethylamine;<em>N</em>,<em>N</em>-Dimethylaminomethylferrocene;<em>N</em>-Dimethylaminomethylferrocene;(Ferrocenylmethyl)dimethylamine;NSC 3432",
    "duplicated_cas_no": "12184-36-0;242805-52-3",
    "SMILES": "C(N(C)C)[C-]12[Fe+2]3456789([CH]1=[CH]3[CH]4=[CH]52)[CH-]%10[CH]6=[CH]7[CH]8=[CH]9%10",
    "meta_data": {
        "InChI": "InChI=1S/C8H12N.C5H5.Fe/c1-9(2)7-8-5-3-4-6-8;1-2-4-5-3-1;/h3-6H,7H2,1-2H3;1-5H;/q2*-1;+2",
        "InChIKey": null,
        "Canonical SMILES": "N(C)(C)C[C-]12[CH]3=[CH]4[CH]5=[CH]1[Fe+2]67894532[CH]=%10[CH]9=[CH]8[CH-]7[CH]%106",
        "Molecular Formula": "C<sub>13</sub>H<sub>17</sub>FeN",
        "Molecular Mass": "",
        "Boiling Point": "91-92 °C @ Press: 0.45 Torr",
        "Melting Point": "5.25-8.31 °C"
    }
}