{
    "cas_no": "2217-55-2",
    "key_name": "Bis(2,4-dinitrophenyl) disulfide",
    "cn_name": "双(2,4-二硝基苯)二硫化碳;",
    "alternate_name": "Disulfide, bis(2,4-dinitrophenyl);Bis(2,4-dinitrophenyl) disulfide;2,2′,4,4′-Tetranitrodiphenyl disulfide;NSC 677455;NSC 192;1,2-Bis(2,4-dinitrophenyl)disulfane",
    "duplicated_cas_no": "",
    "SMILES": "S(SC1=C(N(=O)=O)C=C(N(=O)=O)C=C1)C2=C(N(=O)=O)C=C(N(=O)=O)C=C2",
    "meta_data": {
        "InChI": "InChI=1S/C12H6N4O8S2/c17-13(18)7-1-3-11(9(5-7)15(21)22)25-26-12-4-2-8(14(19)20)6-10(12)16(23)24/h1-6H",
        "InChIKey": null,
        "Canonical SMILES": "O=N(=O)C1=CC=C(SSC2=CC=C(C=C2N(=O)=O)N(=O)=O)C(=C1)N(=O)=O",
        "Molecular Formula": "C<sub>12</sub>H<sub>6</sub>N<sub>4</sub>O<sub>8</sub>S<sub>2</sub>",
        "Molecular Mass": "398.33",
        "Melting Point": "280 °C"
    }
}