{
    "cas_no": "524-12-9",
    "key_name": "Wedelolactone",
    "cn_name": "7-甲氧基-5,11,12-三羟基香豆素;",
    "alternate_name": "6<em>H</em>-Benzofuro[3,2-<em>c</em>][1]benzopyran-6-one, 1,8,9-trihydroxy-3-methoxy-;1,8,9-Trihydroxy-3-methoxy-6<em>H</em>-benzofuro[3,2-<em>c</em>][1]benzopyran-6-one;Wedelolactone;1,8,9-Trihydroxy-3-methoxy-[1]benzofuro[3,2-<em>c</em>]chromen-6-one",
    "duplicated_cas_no": "",
    "SMILES": "O=C1C2=C(C=3C(O1)=CC(OC)=CC3O)OC=4C2=CC(O)=C(O)C4",
    "meta_data": {
        "InChI": "InChI=1S/C16H10O7/c1-21-6-2-10(19)14-12(3-6)23-16(20)13-7-4-8(17)9(18)5-11(7)22-15(13)14/h2-5,17-19H,1H3",
        "InChIKey": null,
        "Canonical SMILES": "O=C1OC2=CC(OC)=CC(O)=C2C=3OC=4C=C(O)C(O)=CC4C13",
        "Molecular Formula": "C<sub>16</sub>H<sub>10</sub>O<sub>7</sub>",
        "Molecular Mass": "314.25",
        "Melting Point": "327-329 °C (decomp)"
    }
}