{
    "cas_no": "2447-54-3",
    "key_name": "Sanguinarine",
    "cn_name": "血根碱;",
    "alternate_name": "[1,3]Benzodioxolo[5,6-<em>c</em>]-1,3-dioxolo[4,5-<em>i</em>]phenanthridinium, 13-methyl-;Sanguinarine;13-Methyl[1,3]benzodioxolo[5,6-<em>c</em>]-1,3-dioxolo[4,5-<em>i</em>]phenanthridinium;Pseudochelerythrine;Sanguinarin;Sanguinarium;Sangrovit;UI5",
    "duplicated_cas_no": "18203-15-1;857014-91-6;1265889-92-6",
    "SMILES": "C[N+]=1C2=C(C=3C(C1)=C4C(=CC3)OCO4)C=CC=5C2=CC6=C(C5)OCO6",
    "meta_data": {
        "InChI": "InChI=1S/C20H14NO4/c1-21-8-15-12(4-5-16-20(15)25-10-22-16)13-3-2-11-6-17-18(24-9-23-17)7-14(11)19(13)21/h2-8H,9-10H2,1H3/q+1",
        "InChIKey": null,
        "Canonical SMILES": "O1C=2C=CC3=C4C=CC=5C=C6OCOC6=CC5C4=[N+](C=C3C2OC1)C",
        "Molecular Formula": "C<sub>20</sub>H<sub>14</sub>NO<sub>4</sub>",
        "Molecular Mass": "",
        "Melting Point": "266 °C"
    }
}