{
    "cas_no": "42267-27-6",
    "key_name": "<em>N</em>-Trifluoroacetyl-<span class=\"text-smallcaps\">L</span>-lysine <em>N</em>-carboxyanhydride",
    "cn_name": null,
    "alternate_name": "Acetamide, <em>N</em>-[4-[(4<em>S</em>)-2,5-dioxo-4-oxazolidinyl]butyl]-2,2,2-trifluoro-;Acetamide, <em>N</em>-[4-(2,5-dioxo-4-oxazolidinyl)butyl]-2,2,2-trifluoro-, (<em>S</em>)-;<em>N</em>-[4-[(4<em>S</em>)-2,5-Dioxo-4-oxazolidinyl]butyl]-2,2,2-trifluoroacetamide;<em>N</em>-Trifluoroacetyl-<span class=\"text-smallcaps\">L</span>-lysine <em>N</em>-carboxyanhydride;<em>N</em><sup>ε</sup>-Trifluoroacetyl-<span class=\"text-smallcaps\">L</span>-lysine <em>N</em>-carboxyanhydride",
    "duplicated_cas_no": "",
    "SMILES": "C(CCCNC(C(F)(F)F)=O)[C@H]1C(=O)OC(=O)N1",
    "meta_data": {
        "InChI": "InChI=1S/C9H11F3N2O4/c10-9(11,12)7(16)13-4-2-1-3-5-6(15)18-8(17)14-5/h5H,1-4H2,(H,13,16)(H,14,17)/t5-/m0/s1",
        "InChIKey": null,
        "Canonical SMILES": "O=C1OC(=O)C(N1)CCCCNC(=O)C(F)(F)F",
        "Molecular Formula": "C<sub>9</sub>H<sub>11</sub>F<sub>3</sub>N<sub>2</sub>O<sub>4</sub>",
        "Molecular Mass": "268.19",
        "Melting Point": "92-93 °C (decomp)"
    }
}