{
    "cas_no": "404-24-0",
    "key_name": "2,2,2-Trifluoro-<em>N</em>-phenylacetamide",
    "cn_name": "N-三氟乙酰苯胺;",
    "alternate_name": "Acetamide, 2,2,2-trifluoro-<em>N</em>-phenyl-;Acetanilide, 2,2,2-trifluoro-;2,2,2-Trifluoro-<em>N</em>-phenylacetamide;α,α,α-Trifluoroacetanilide;2,2,2-Trifluoroacetanilide;<em>N</em>-Phenyltrifluoroacetamide;<em>N</em>-Phenyl-2,2,2-trifluoroacetamide;NSC 9474",
    "duplicated_cas_no": "",
    "SMILES": "N(C(C(F)(F)F)=O)C1=CC=CC=C1",
    "meta_data": {
        "InChI": "InChI=1S/C8H6F3NO/c9-8(10,11)7(13)12-6-4-2-1-3-5-6/h1-5H,(H,12,13)",
        "InChIKey": null,
        "Canonical SMILES": "O=C(NC=1C=CC=CC1)C(F)(F)F",
        "Molecular Formula": "C<sub>8</sub>H<sub>6</sub>F<sub>3</sub>NO",
        "Molecular Mass": "189.13",
        "Boiling Point": "220-225 °C",
        "Melting Point": "87.64 °C (sublm)"
    }
}