{
    "cas_no": "87-72-9",
    "key_name": "<span class=\"text-smallcaps\">L</span>-Arabinopyranose",
    "cn_name": "L-(+)-阿拉伯糖;",
    "alternate_name": "<span class=\"text-smallcaps\">L</span>-Arabinopyranose;Arabinopyranose, <span class=\"text-smallcaps\">L</span>-;Pectinose",
    "duplicated_cas_no": "",
    "SMILES": "O[C@@H]1[C@@H](O)C(O)OC[C@@H]1O",
    "meta_data": {
        "InChI": "InChI=1S/C5H10O5/c6-2-1-10-5(9)4(8)3(2)7/h2-9H,1H2/t2-,3-,4+,5?/m0/s1",
        "InChIKey": null,
        "Canonical SMILES": "OC1OCC(O)C(O)C1O",
        "Molecular Formula": "C<sub>5</sub>H<sub>10</sub>O<sub>5</sub>",
        "Molecular Mass": "150.13",
        "Melting Point": "158 °C"
    }
}