{
    "cas_no": "32634-66-5",
    "key_name": "(-)-Di-<em>p</em>-toluoyl-<span class=\"text-smallcaps\">L</span>-tartaric acid",
    "cn_name": "二对甲基苯甲酰酒石酸;二对甲苯甲酰-L-酒石酸;",
    "alternate_name": "Butanedioic acid, 2,3-bis[(4-methylbenzoyl)oxy]-, (2<em>R</em>,3<em>R</em>)-;Butanedioic acid, 2,3-bis[(4-methylbenzoyl)oxy]-, [<em>R</em>-(<em>R</em>*,<em>R</em>*)]-;(2<em>R</em>,3<em>R</em>)-2,3-Bis[(4-methylbenzoyl)oxy]butanedioic acid;(-)-Di-<em>O</em>-<em>p</em>-toluoyl-<span class=\"text-smallcaps\">L</span>-tartaric acid;(-)-<em>O</em>,<em>O</em>-Di-<em>p</em>-toluoyltartaric acid;Di-<em>p</em>-Toluoyl-<em>d</em>-tartaric acid;(-)-Di-<em>p</em>-toluoyltartaric acid;(-)-Di-<em>O</em>,<em>O</em>′-<em>p</em>-toluoyltartaric acid;Tartaric acid, di-<em>p</em>-toluate;Di-<em>p</em>-toluoyl-<span class=\"text-smallcaps\">L</span>-tartaric acid;(2<em>R</em>,3<em>R</em>)-(-)-Di(<em>p</em>-toluoyl)tartaric acid;Di-4-toluoyl-<span class=\"text-smallcaps\">L</span>-tartaric acid;<span class=\"text-smallcaps\">L</span>-Di-<em>O</em>,<em>O</em>′-<em>p</em>-toluyltartaric acid;(<em>R</em>,<em>R</em>)-<em>O</em>,<em>O</em>′-Di-<em>p</em>-toluoyltartaric acid;(-)-Di-<em>p</em>-toluoyl-<span class=\"text-smallcaps\">L</span>-tartaric acid;(-)-Di-<em>O</em>,<em>O</em>' <em>p</em>-toluyltartaric acid;<em>O</em>,<em>O</em>′-Di-<em>p</em>-toluoyl-(2<em>R</em>,3<em>R</em>)-tartaric acid;<span class=\"text-smallcaps\">L</span>-Di-<em>p</em>-toluoyltartaric acid;(-)-<em>O</em>,<em>O</em>′-Di-<em>p</em>-toluoyl-<span class=\"text-smallcaps\">L</span>-tartaric acid;(2<em>R</em>,3<em>R</em>)-2,3-Bis[(4-methylbenzoyl)oxy]succinic acid;L-(-)-DTTA",
    "duplicated_cas_no": "47375-16-6;47591-89-9;64101-05-9;76210-55-4;79780-69-1;100168-11-4;104695-67-2;131774-02-2;887356-21-0;957209-16-4;1713282-37-1",
    "SMILES": "[C@H]([C@@H](OC(=O)C1=CC=C(C)C=C1)C(O)=O)(OC(=O)C2=CC=C(C)C=C2)C(O)=O",
    "meta_data": {
        "InChI": "InChI=1S/C20H18O8/c1-11-3-7-13(8-4-11)19(25)27-15(17(21)22)16(18(23)24)28-20(26)14-9-5-12(2)6-10-14/h3-10,15-16H,1-2H3,(H,21,22)(H,23,24)/t15-,16-/m1/s1",
        "InChIKey": null,
        "Canonical SMILES": "O=C(OC(C(=O)O)C(OC(=O)C1=CC=C(C=C1)C)C(=O)O)C2=CC=C(C=C2)C",
        "Molecular Formula": "C<sub>20</sub>H<sub>18</sub>O<sub>8</sub>",
        "Molecular Mass": "386.35",
        "Melting Point": "146-147 °C"
    }
}