{
    "cas_no": "95041-90-0",
    "key_name": "Erianin",
    "cn_name": null,
    "alternate_name": "Phenol, 2-methoxy-5-[2-(3,4,5-trimethoxyphenyl)ethyl]-;2-Methoxy-5-[2-(3,4,5-trimethoxyphenyl)ethyl]phenol;Erianin;NSC 613744",
    "duplicated_cas_no": "",
    "SMILES": "O(C)C1=C(OC)C=C(CCC2=CC(O)=C(OC)C=C2)C=C1OC",
    "meta_data": {
        "InChI": "InChI=1S/C18H22O5/c1-20-15-8-7-12(9-14(15)19)5-6-13-10-16(21-2)18(23-4)17(11-13)22-3/h7-11,19H,5-6H2,1-4H3",
        "InChIKey": null,
        "Canonical SMILES": "OC1=CC(=CC=C1OC)CCC2=CC(OC)=C(OC)C(OC)=C2",
        "Molecular Formula": "C<sub>18</sub>H<sub>22</sub>O<sub>5</sub>",
        "Molecular Mass": "318.36",
        "Melting Point": "78-80 °C"
    }
}