{
    "cas_no": "2292-79-7",
    "key_name": "Diamantane",
    "cn_name": "双金刚烷;双金刚烷;",
    "alternate_name": "3,5,1,7-[1,2,3,4]Butanetetraylnaphthalene, decahydro-;Decahydro-3,5,1,7-[1,2,3,4]butanetetraylnaphthalene;Pentacyclo[7.3.1.1<sup>4,12</sup>.0<sup>2,7</sup>.0<sup>6,11</sup>]tetradecane;Congressane;Diamantane;[6]Diadamantane;Diadamantane",
    "duplicated_cas_no": "36499-39-5;77079-58-4;150301-85-2",
    "SMILES": "C12C3C4C5C(C1CC(C3)C5)CC(C2)C4",
    "meta_data": {
        "InChI": "InChI=1S/C14H20/c1-7-2-12-10-4-8-5-11(9(1)10)13(3-7)14(12)6-8/h7-14H,1-6H2",
        "InChIKey": null,
        "Canonical SMILES": "C1C2CC3C4CC5CC(C14)C(C2)C3C5",
        "Molecular Formula": "C<sub>14</sub>H<sub>20</sub>",
        "Molecular Mass": "188.31",
        "Melting Point": "244 °C"
    }
}