{
    "cas_no": "10531-78-9",
    "key_name": "5-Methylbenzoxazole",
    "cn_name": "5-甲基苯并唑;5-甲基苯并;5-甲基苯恶唑;5-甲基苯噁唑;",
    "alternate_name": "Benzoxazole, 5-methyl-;5-Methylbenzoxazole",
    "duplicated_cas_no": "",
    "SMILES": "CC=1C=C2C(=CC1)OC=N2",
    "meta_data": {
        "InChI": "InChI=1S/C8H7NO/c1-6-2-3-8-7(4-6)9-5-10-8/h2-5H,1H3",
        "InChIKey": null,
        "Canonical SMILES": "N1=COC=2C=CC(=CC12)C",
        "Molecular Formula": "C<sub>8</sub>H<sub>7</sub>NO",
        "Molecular Mass": "133.15",
        "Boiling Point": "110-111 °C @ Press: 10 Torr",
        "Melting Point": "42-44 °C"
    }
}