{
    "cas_no": "14941-08-3",
    "key_name": "Poncirin",
    "cn_name": "枸橘甙;",
    "alternate_name": "4<em>H</em>-1-Benzopyran-4-one, 7-[[2-<em>O</em>-(6-deoxy-α-<span class=\"text-smallcaps\">L</smallcap>-mannopyranosyl)-β-<smallcap>D</span>-glucopyranosyl]oxy]-2,3-dihydro-5-hydroxy-2-(4-methoxyphenyl)-, (2<em>S</em>)-;Poncirin;4<em>H</em>-1-Benzopyran-4-one, 7-[[2-<em>O</em>-(6-deoxy-α-<span class=\"text-smallcaps\">L</smallcap>-mannopyranosyl)-β-<smallcap>D</span>-glucopyranosyl]oxy]-2,3-dihydro-5-hydroxy-2-(4-methoxyphenyl)-, (<em>S</em>)-;Neohesperidoside, isosakuranetin-7;(2<em>S</em>)-7-[[2-<em>O</em>-(6-Deoxy-α-<span class=\"text-smallcaps\">L</smallcap>-mannopyranosyl)-β-<smallcap>D</span>-glucopyranosyl]oxy]-2,3-dihydro-5-hydroxy-2-(4-methoxyphenyl)-4<em>H</em>-1-benzopyran-4-one;Isosakuranetin 7-neohesperidoside;5,7-Dihydroxy-4′-methoxyflavanone, 7-(2-<em>O</em>-α-<span class=\"text-smallcaps\">L</smallcap>-rhamnopyranosyl-β-<smallcap>D</span>-glucopyranoside);5,7-Dihydroxy-4′-methoxyflavanone 7-neohesperidoside;Isosakuranetin 7-<em>O</em>-β-neohesperidoside;Isosakuranetin-7-<em>O</em>-β-D-neohesperidoside;4′-<em>O</em>-Methylnaringin;Poncerin;Citrifoliol-7-<em>O</em>-neohesperidoside",
    "duplicated_cas_no": "10100-54-6;33033-50-0;38664-97-0",
    "SMILES": "O=C1C=2C(O[C@@H](C1)C3=CC=C(OC)C=C3)=CC(O[C@H]4[C@H](O[C@H]5[C@H](O)[C@H](O)[C@@H](O)[C@H](C)O5)[C@@H](O)[C@H](O)[C@@H](CO)O4)=CC2O",
    "meta_data": {
        "InChI": "InChI=1S/C28H34O14/c1-11-21(32)23(34)25(36)27(38-11)42-26-24(35)22(33)19(10-29)41-28(26)39-14-7-15(30)20-16(31)9-17(40-18(20)8-14)12-3-5-13(37-2)6-4-12/h3-8,11,17,19,21-30,32-36H,9-10H2,1-2H3/t11-,17-,19+,21-,22+,23+,24-,25+,26+,27-,28+/m0/s1",
        "InChIKey": null,
        "Canonical SMILES": "O=C1C2=C(O)C=C(OC3OC(CO)C(O)C(O)C3OC4OC(C)C(O)C(O)C4O)C=C2OC(C5=CC=C(OC)C=C5)C1",
        "Molecular Formula": "C<sub>28</sub>H<sub>34</sub>O<sub>14</sub>",
        "Molecular Mass": "594.56",
        "Melting Point": "210-211 °C"
    }
}