{
    "cas_no": "2973-78-6",
    "key_name": "3-Bromo-4-hydroxybenzaldehyde",
    "cn_name": "3-溴-4-羟基苯甲醛;",
    "alternate_name": "Benzaldehyde, 3-bromo-4-hydroxy-;3-Bromo-4-hydroxybenzaldehyde;4-Hydroxy-3-bromobenzaldehyde;2-Bromo-4-formylphenol;NSC 220227",
    "duplicated_cas_no": "",
    "SMILES": "C(=O)C1=CC(Br)=C(O)C=C1",
    "meta_data": {
        "InChI": "InChI=1S/C7H5BrO2/c8-6-3-5(4-9)1-2-7(6)10/h1-4,10H",
        "InChIKey": null,
        "Canonical SMILES": "O=CC1=CC=C(O)C(Br)=C1",
        "Molecular Formula": "C<sub>7</sub>H<sub>5</sub>BrO<sub>2</sub>",
        "Molecular Mass": "201.02",
        "Melting Point": "125-126 °C"
    }
}