{
    "cas_no": "86-54-4",
    "key_name": "Hydralazine",
    "cn_name": "肼屈嗪;肼苯哒嗪;肼酞嗪;1-肼基-2,3-二氮杂萘;",
    "alternate_name": "Phthalazine, 1-hydrazinyl-;Phthalazine, 1-hydrazino-;1(2<em>H</em>)-Phthalazinone, hydrazone;1-Hydrazinylphthalazine;Ba 5968;Ciba 5968;Apresolin;Apresoline;Apressin (pharmaceutical);Hydralazine;1-Hydrazinophthalazine;Hydralazin;Hipoftalin;Hypophthalin;C 5968;Aprezolin;Hidralazin;Apressin;1-Phthalazinylhydrazine;NSC 126699;MeSH ID: D006830",
    "duplicated_cas_no": "1202965-60-3",
    "SMILES": "N(N)=C1C=2C(C=NN1)=CC=CC2",
    "meta_data": {
        "InChI": "InChI=1S/C8H8N4/c9-11-8-7-4-2-1-3-6(7)5-10-12-8/h1-5H,9H2,(H,11,12)",
        "InChIKey": null,
        "Canonical SMILES": "N(N)=C1NN=CC=2C=CC=CC12",
        "Molecular Formula": "C<sub>8</sub>H<sub>8</sub>N<sub>4</sub>",
        "Molecular Mass": "160.18",
        "Melting Point": "172-173 °C"
    }
}