{
    "cas_no": "80508-81-2",
    "key_name": "(7α,14<em>R</em>)-14-(Acetyloxy)-7-hydroxykaur-16-ene-3,15-dione",
    "cn_name": null,
    "alternate_name": "Kaur-16-ene-3,15-dione, 14-(acetyloxy)-7-hydroxy-, (7α,14<em>R</em>)-;(7α,14<em>R</em>)-14-(Acetyloxy)-7-hydroxykaur-16-ene-3,15-dione;Glaucocalyxin B;Wangzaozin C;14β-Acetoxy-7α-hydroxy-ent-kaur-16-ene-3,15-dione",
    "duplicated_cas_no": "",
    "SMILES": "O(C(C)=O)[C@H]1[C@@]23[C@]([C@@]4(C)[C@](C[C@H]2O)(C(C)(C)C(=O)CC4)[H])(CC[C@]1(C(=C)C3=O)[H])[H]",
    "meta_data": {
        "InChI": "InChI=1S/C22H30O5/c1-11-13-6-7-14-21(5)9-8-16(24)20(3,4)15(21)10-17(25)22(14,18(11)26)19(13)27-12(2)23/h13-15,17,19,25H,1,6-10H2,2-5H3/t13-,14-,15+,17+,19+,21-,22-/m0/s1",
        "InChIKey": null,
        "Canonical SMILES": "O=C(OC1C2C(=C)C(=O)C31C(O)CC4C(C(=O)CCC4(C)C3CC2)(C)C)C",
        "Molecular Formula": "C<sub>22</sub>H<sub>30</sub>O<sub>5</sub>",
        "Molecular Mass": "374.47",
        "Melting Point": "190.5-191 °C"
    }
}