{
    "cas_no": "10408-85-2",
    "key_name": "1<em>H</em>-Inden-2-amine, 2,3-dihydro-<em>N</em>-methyl-, hydrochloride (1:1)",
    "cn_name": null,
    "alternate_name": "1<em>H</em>-Inden-2-amine, 2,3-dihydro-<em>N</em>-methyl-, hydrochloride (1:1);2-Indanamine, <em>N</em>-methyl-, hydrochloride;1<em>H</em>-Inden-2-amine, 2,3-dihydro-<em>N</em>-methyl-, hydrochloride;<em>N</em>-Methylindan-2-amine hydrochloride;2-(Methylamino)indan hydrochloride",
    "duplicated_cas_no": "",
    "SMILES": "N(C)C1CC=2C(C1)=CC=CC2.Cl",
    "meta_data": {
        "InChI": "InChI=1S/C10H13N.ClH/c1-11-10-6-8-4-2-3-5-9(8)7-10;/h2-5,10-11H,6-7H2,1H3;1H",
        "InChIKey": null,
        "Canonical SMILES": "Cl.C=1C=CC2=C(C1)CC(NC)C2",
        "Molecular Formula": "C<sub>10</sub>H<sub>13</sub>N.ClH",
        "Molecular Mass": "",
        "Melting Point": "210 °C (decomp)"
    }
}