{
    "cas_no": "875-51-4",
    "key_name": "4-Bromo-2-nitroaniline",
    "cn_name": "4-溴-2-硝基苯胺;",
    "alternate_name": "Benzenamine, 4-bromo-2-nitro-;Aniline, 4-bromo-2-nitro-;4-Bromo-2-nitrobenzenamine;<em>p</em>-Bromo-<em>o</em>-nitroaniline;4-Bromo-2-nitroaniline;4-Bromo-<em>o</em>-nitroaniline;1-Amino-4-bromo-2-nitrobenzene;2-Nitro-4-bromoaniline;NSC 10069;NSC 37396;(4-Bromo-2-nitrophenyl)amine",
    "duplicated_cas_no": "",
    "SMILES": "N(=O)(=O)C1=C(N)C=CC(Br)=C1",
    "meta_data": {
        "InChI": "InChI=1S/C6H5BrN2O2/c7-4-1-2-5(8)6(3-4)9(10)11/h1-3H,8H2",
        "InChIKey": null,
        "Canonical SMILES": "O=N(=O)C1=CC(Br)=CC=C1N",
        "Molecular Formula": "C<sub>6</sub>H<sub>5</sub>BrN<sub>2</sub>O<sub>2</sub>",
        "Molecular Mass": "217.02",
        "Melting Point": "111.5 °C"
    }
}