{
    "cas_no": "492-94-4",
    "key_name": "Furil",
    "cn_name": "糠偶酰;2,2\"-糠偶酰;双呋喃甲酰;1,2-二(呋喃-2-基)-1,2-乙二酮;",
    "alternate_name": "1,2-Ethanedione, 1,2-di-2-furanyl-;Furil;Ethanedione, di-2-furanyl-;1,2-Di-2-furanyl-1,2-ethanedione;Bipyromucyl;α-Furil;2,2′-Furil;Difuranylglyoxal;1,2-Di(2-furyl)ethanedione;NSC 5561;1,2-Di(furan-2-yl)ethane-1,2-dione;1,2-Di-2-furylethane-1,2-dione;Di-2-furanylethanedione;1,2-Di(2-furanyl)-1,2-ethanedione;1,2-Bis(furan-2-yl)ethanedione;1,2-Bis(2-furanyl)-1,2-ethanedione;1,2-Bis(2-furyl)ethanedione;1,2-Bis(2-furyl)-1,2-ethanedione",
    "duplicated_cas_no": "594872-19-2",
    "SMILES": "C(C(=O)C1=CC=CO1)(=O)C2=CC=CO2",
    "meta_data": {
        "InChI": "InChI=1S/C10H6O4/c11-9(7-3-1-5-13-7)10(12)8-4-2-6-14-8/h1-6H",
        "InChIKey": null,
        "Canonical SMILES": "O=C(C=1OC=CC1)C(=O)C=2OC=CC2",
        "Molecular Formula": "C<sub>10</sub>H<sub>6</sub>O<sub>4</sub>",
        "Molecular Mass": "190.15",
        "Melting Point": "164 °C"
    }
}