{
    "cas_no": "73210-73-8",
    "key_name": "4-Morpholinecarboxamide, <em>N</em>-[2-[[2-hydroxy-3-(4-hydroxyphenoxy)propyl]amino]ethyl]-, (<em>E</em>)-2-butenedioate (2:1)",
    "cn_name": null,
    "alternate_name": "4-Morpholinecarboxamide, <em>N</em>-[2-[[2-hydroxy-3-(4-hydroxyphenoxy)propyl]amino]ethyl]-, (<em>E</em>)-2-butenedioate (2:1);4-Morpholinecarboxamide, <em>N</em>-[2-[[2-hydroxy-3-(4-hydroxyphenoxy)propyl]amino]ethyl]-, (<em>E</em>)-2-butenedioate (2:1) (salt);4-Morpholinecarboxamide, <em>N</em>-[2-[[2-hydroxy-3-(4-hydroxyphenoxy)propyl]amino]ethyl]-, (2<em>E</em>)-2-butenedioate (2:1) (salt);ICI 118587;Xamoterol hemifumarate;Corwin;Xamoterol fumarate;Carwin;Xamtol",
    "duplicated_cas_no": "90730-93-1",
    "SMILES": "C(NCCNCC(COC1=CC=C(O)C=C1)O)(=O)N2CCOCC2.C(=C/C(O)=O)\\C(O)=O",
    "meta_data": {
        "InChI": "InChI=1S/C16H25N3O5.C4H4O4/c20-13-1-3-15(4-2-13)24-12-14(21)11-17-5-6-18-16(22)19-7-9-23-10-8-19;5-3(6)1-2-4(7)8/h1-4,14,17,20-21H,5-12H2,(H,18,22);1-2H,(H,5,6)(H,7,8)/b;2-1+",
        "InChIKey": null,
        "Canonical SMILES": "O=C(O)C=CC(=O)O.O=C(NCCNCC(O)COC1=CC=C(O)C=C1)N2CCOCC2",
        "Molecular Formula": "C<sub>16</sub>H<sub>25</sub>N<sub>3</sub>O<sub>5</sub>.<sup>1</sup>/<sub>2</sub>C<sub>4</sub>H<sub>4</sub>O<sub>4</sub>",
        "Molecular Mass": "",
        "Melting Point": "168-169 °C (decomp)"
    }
}