{
    "cas_no": "13547-70-1",
    "key_name": "1-Chloropinacolone",
    "cn_name": "一氯频呐酮;1-氯-3,3-二甲基-丁-2-酮;",
    "alternate_name": "2-Butanone, 1-chloro-3,3-dimethyl-;1-Chloro-3,3-dimethyl-2-butanone;α-Chloropinacolone;Chloromethyl <em>tert</em>-butyl ketone;<em>tert</em>-Butyl chloromethyl ketone;1-Chloropinacolone;α-Chloropinacolin;3,3-Dimethyl-2-oxobutyl chloride;Chloromethyl tert-butyl ketone",
    "duplicated_cas_no": "",
    "SMILES": "C(C(C)(C)C)(CCl)=O",
    "meta_data": {
        "InChI": "InChI=1S/C6H11ClO/c1-6(2,3)5(8)4-7/h4H2,1-3H3",
        "InChIKey": null,
        "Canonical SMILES": "O=C(CCl)C(C)(C)C",
        "Molecular Formula": "C<sub>6</sub>H<sub>11</sub>ClO",
        "Molecular Mass": "134.60",
        "Boiling Point": "60.5 °C @ Press: 7 Torr",
        "Melting Point": "120 °C"
    }
}