{
    "cas_no": "34803-66-2",
    "key_name": "1-(2-Pyridyl)piperazine",
    "cn_name": "1-(2-吡啶基)哌嗪;",
    "alternate_name": "Piperazine, 1-(2-pyridinyl)-;Piperazine, 1-(2-pyridyl)-;1-(2-Pyridinyl)piperazine;1-(2-Pyridyl)piperazine;<em>N</em>-(2-Pyridyl)piperazine;4-(2-Pyridyl)piperazine;2-Pyridylpiperazine;4-(2-Pyridinyl)piperazine;<em>N</em>-Pyridin-2-ylpiperazine;NSC 137781;NSC 26624;1-(Pyridin-2-yl)piperazine;2-(Piperazin-1-yl)pyridine",
    "duplicated_cas_no": "",
    "SMILES": "C1(=CC=CC=N1)N2CCNCC2",
    "meta_data": {
        "InChI": "InChI=1S/C9H13N3/c1-2-4-11-9(3-1)12-7-5-10-6-8-12/h1-4,10H,5-8H2",
        "InChIKey": null,
        "Canonical SMILES": "N=1C=CC=CC1N2CCNCC2",
        "Molecular Formula": "C<sub>9</sub>H<sub>13</sub>N<sub>3</sub>",
        "Molecular Mass": "163.22",
        "Boiling Point": "120-122 °C",
        "Melting Point": "85-87 °C",
        "Density": "1.072 g/cm³"
    }
}