{
    "cas_no": "3530-15-2",
    "key_name": "4-Amino-3,5-dimethyl-1,2,4-triazole",
    "cn_name": "4-氨基-3,5-二甲基-1,2,4-三唑;3,5-二甲基-4H-1,2,4-噻唑-4-胺;",
    "alternate_name": "4<em>H</em>-1,2,4-Triazol-4-amine, 3,5-dimethyl-;4<em>H</em>-1,2,4-Triazole, 4-amino-3,5-dimethyl-;3,5-Dimethyl-4<em>H</em>-1,2,4-triazol-4-amine;4-Amino-3,5-dimethyl-4<em>H</em>-1,2,4-triazole;3,5-Dimethyl-4-amino-1,2,4-triazole;4-Amino-3,5-dimethyl-1,2,4-triazole;3,5-Dimethyl-4-amino-4<em>H</em>-1,2,4-triazole;NSC 23773;NSC 34805;3,5-Dimethyl-1,2,4-triazol-4-amine;3,5-Dimethyl-[1,2,4]triazol-4-ylamine",
    "duplicated_cas_no": "",
    "SMILES": "NN1C(C)=NN=C1C",
    "meta_data": {
        "InChI": "InChI=1S/C4H8N4/c1-3-6-7-4(2)8(3)5/h5H2,1-2H3",
        "InChIKey": null,
        "Canonical SMILES": "N=1N=C(N(N)C1C)C",
        "Molecular Formula": "C<sub>4</sub>H<sub>8</sub>N<sub>4</sub>",
        "Molecular Mass": "112.13",
        "Melting Point": "196 °C"
    }
}