{
    "cas_no": "57597-62-3",
    "key_name": "3,3-Dimethoxypropionitrile",
    "cn_name": "氰基乙醛缩二甲醇;3,3-二甲氧基丙腈;",
    "alternate_name": "Propanenitrile, 3,3-dimethoxy-;Acetaldehyde, cyano-, dimethyl acetal;3,3-Dimethoxypropanenitrile;1-Cyano-2,2-dimethoxyethane;3,3-Dimethoxypropionitrile;β,β-Dimethoxypropionitrile;2-Cyano-1,1-dimethoxyethane;Cyanoacetaldehyde dimethyl acetal",
    "duplicated_cas_no": "",
    "SMILES": "C(CC#N)(OC)OC",
    "meta_data": {
        "InChI": "InChI=1S/C5H9NO2/c1-7-5(8-2)3-4-6/h5H,3H2,1-2H3",
        "InChIKey": null,
        "Canonical SMILES": "N#CCC(OC)OC",
        "Molecular Formula": "C<sub>5</sub>H<sub>9</sub>NO<sub>2</sub>",
        "Molecular Mass": "115.13",
        "Boiling Point": "113-116 °C @ Press: 25 Torr"
    }
}