{
    "cas_no": "7783-70-2",
    "key_name": "Antimony pentafluoride",
    "cn_name": null,
    "alternate_name": "Antimony fluoride (SbF<sub>5</sub>);Antimony pentafluoride;Antimony(V) fluoride;Pentafluoroantimony",
    "duplicated_cas_no": "",
    "SMILES": "[Sb](F)(F)(F)(F)F",
    "meta_data": {
        "InChI": "InChI=1S/5FH.Sb/h5*1H;/q;;;;;+5/p-5",
        "InChIKey": null,
        "Canonical SMILES": "F[Sb](F)(F)(F)F",
        "Molecular Formula": "F<sub>5</sub>Sb",
        "Molecular Mass": "",
        "Boiling Point": "141 °C",
        "Melting Point": "8.3 °C",
        "Density": "3.097 g/cm³ @ Temp: 25.8 °C"
    }
}