{
    "cas_no": "827614-64-2",
    "key_name": "5-(4,4,5,5-Tetramethyl-1,3,2-dioxaborolan-2-yl)pyridin-2-amine",
    "cn_name": "6-氨基吡啶-3-硼酸频哪醇酯;6-氨基吡啶-3-硼酸频哪醇酯;2-氨基-5-(4,4,5,5-四甲基-1,3,2-二氧硼戊环-2-基);",
    "alternate_name": "2-Pyridinamine, 5-(4,4,5,5-tetramethyl-1,3,2-dioxaborolan-2-yl)-;5-(4,4,5,5-Tetramethyl-1,3,2-dioxaborolan-2-yl)-2-pyridinamine;2-Amino-5-(4,4,5,5-tetramethyl-1,3,2-dioxaborolan-2-yl)pyridine;5-(4,4,5,5-Tetramethyl-1,3,2-dioxaborolan-2-yl)pyridin-2-amine;[5-(4,4,5,5-Tetramethyl-[1,3,2]dioxaborolan-2-yl)pyridin-2-yl]amine;(2-Aminopyridin-5-yl)boronic acid pinacol ester;2-(6-Aminopyridin-3-yl)-4,4,5,5-tetramethyl-1,3,2-dioxaborolane;2-Aminopyridine-5-boronic acid pinacol ester;6-Aminopyridin-3-ylboronic acid pinacol ester;5-(3,3,4,4-Tetramethylborolan-1-yl)pyridin-2-amine",
    "duplicated_cas_no": "2411236-99-0;2451969-82-5;2494183-01-4",
    "SMILES": "CC1(C)OB(OC1(C)C)C=2C=CC(N)=NC2",
    "meta_data": {
        "InChI": "InChI=1S/C11H17BN2O2/c1-10(2)11(3,4)16-12(15-10)8-5-6-9(13)14-7-8/h5-7H,1-4H3,(H2,13,14)",
        "InChIKey": null,
        "Canonical SMILES": "N=1C=C(C=CC1N)B2OC(C)(C)C(O2)(C)C",
        "Molecular Formula": "C<sub>11</sub>H<sub>17</sub>BN<sub>2</sub>O<sub>2</sub>",
        "Molecular Mass": "220.08",
        "Melting Point": "132-134 °C"
    }
}