{
    "cas_no": "127-31-1",
    "key_name": "Fludrocortisone",
    "cn_name": "氟氢可的松;",
    "alternate_name": "Pregn-4-ene-3,20-dione, 9-fluoro-11,17,21-trihydroxy-, (11β)-;Pregn-4-ene-3,20-dione, 9-fluoro-11β,17,21-trihydroxy-;(11β)-9-Fluoro-11,17,21-trihydroxypregn-4-ene-3,20-dione;Alflorone;F-COL;Florinef;Fludrocortisone;Fludrocortone;Fluohydrisone;Fluohydrocortisone;9α-Fluorocortisol;Fluorocortisone;9α-Fluoro-17-hydroxycorticosterone;9α-Fluoro-11β,17α,21-trihydroxy-4-pregnene-3,20-dione;9-Fluorocortisol;Fluorocortisol;9-Fluorohydrocortisone;9-Fluoro-11β,17,21-trihydroxypregn-4-ene-3,20-dione;F-Cortef;Astonin-H;Fludrone;Fludronef;9α-Fludrocortisone;Fluorohydrocortisone;9α-Fluorohydrocortisone;Fluodrocortisone;9α-Fluorcortisol;NSC 11318;MeSH ID: D005438",
    "duplicated_cas_no": "",
    "SMILES": "F[C@@]12[C@]([C@]3([C@](C)(C[C@@H]1O)[C@](C(CO)=O)(O)CC3)[H])(CCC=4[C@]2(C)CCC(=O)C4)[H]",
    "meta_data": {
        "InChI": "InChI=1S/C21H29FO5/c1-18-7-5-13(24)9-12(18)3-4-15-14-6-8-20(27,17(26)11-23)19(14,2)10-16(25)21(15,18)22/h9,14-16,23,25,27H,3-8,10-11H2,1-2H3/t14-,15-,16-,18-,19-,20-,21-/m0/s1",
        "InChIKey": null,
        "Canonical SMILES": "O=C1C=C2CCC3C4CCC(O)(C(=O)CO)C4(C)CC(O)C3(F)C2(C)CC1",
        "Molecular Formula": "C<sub>21</sub>H<sub>29</sub>FO<sub>5</sub>",
        "Molecular Mass": "380.45",
        "Melting Point": "260-262 °C"
    }
}