{
    "cas_no": "4845-58-3",
    "key_name": "6-Nitro-2(3<em>H</em>)-benzothiazolethione",
    "cn_name": null,
    "alternate_name": "2(3<em>H</em>)-Benzothiazolethione, 6-nitro-;2-Benzothiazolinethione, 6-nitro-;2-Benzothiazolethiol, 6-nitro-;Benzothiazole, 2-mercapto-6-nitro-;6-Nitro-2(3<em>H</em>)-benzothiazolethione;2-Mercapto-6-nitrobenzothiazole;6-Nitro-2-mercaptobenzothiazole;6-Nitrobenzothiazole-2-thiol;6-Nitro-2-benzothiazolinethione;NSC 2630;SKA 6;6-Nitro-2-mercaptobenzo[<em>d</em>]thiazole;6-Nitro-1,3-benzothiazole-2-thiol",
    "duplicated_cas_no": "29519-08-2",
    "SMILES": "N(=O)(=O)C=1C=C2C(=CC1)NC(=S)S2",
    "meta_data": {
        "InChI": "InChI=1S/C7H4N2O2S2/c10-9(11)4-1-2-5-6(3-4)13-7(12)8-5/h1-3H,(H,8,12)",
        "InChIKey": null,
        "Canonical SMILES": "O=N(=O)C1=CC=C2NC(=S)SC2=C1",
        "Molecular Formula": "C<sub>7</sub>H<sub>4</sub>N<sub>2</sub>O<sub>2</sub>S<sub>2</sub>",
        "Molecular Mass": "212.25",
        "Melting Point": "226 °C"
    }
}