{
    "cas_no": "41451-75-6",
    "key_name": "Bruceantin",
    "cn_name": null,
    "alternate_name": "Picras-3-en-21-oic acid, 15-[[(2<em>E</em>)-3,4-dimethyl-1-oxo-2-penten-1-yl]oxy]-13,20-epoxy-3,11,12-trihydroxy-2,16-dioxo-, methyl ester, (11β,12α,15β)-;Picras-3-en-21-oic acid, 15-[(3,4-dimethyl-1-oxo-2-pentenyl)oxy]-13,20-epoxy-3,11,12-trihydroxy-2,16-dioxo-, methyl ester, [11β,12α,15β(<em>E</em>)]-;Picras-3-en-21-oic acid, 15-[[(2<em>E</em>)-3,4-dimethyl-1-oxo-2-pentenyl]oxy]-13,20-epoxy-3,11,12-trihydroxy-2,16-dioxo-, methyl ester, (11β,12α,15β)-;2<em>H</em>-3,11c-(Epoxymethano)phenanthro[10,1-<em>bc</em>]pyran, picras-3-en-21-oic acid deriv.;Bruceantin;NSC 165563;(-)-Bruceantin;NCI 165563",
    "duplicated_cas_no": "",
    "SMILES": "C(OC)(=O)[C@]12[C@]3([C@]4([C@@]([C@]5(C)[C@@](C[C@]4(OC(=O)[C@@H]3OC(/C=C(/C(C)C)\\C)=O)[H])(C(C)=C(O)C(=O)C5)[H])([C@@H](O)[C@@H]1O)[H])CO2)[H]",
    "meta_data": {
        "InChI": "InChI=1S/C28H36O11/c1-11(2)12(3)7-17(30)39-20-22-27-10-37-28(22,25(35)36-6)23(33)19(32)21(27)26(5)9-15(29)18(31)13(4)14(26)8-16(27)38-24(20)34/h7,11,14,16,19-23,31-33H,8-10H2,1-6H3/b12-7+/t14-,16+,19+,20+,21+,22+,23-,26-,27+,28-/m0/s1",
        "InChIKey": null,
        "Canonical SMILES": "O=C(OC1C(=O)OC2CC3C(=C(O)C(=O)CC3(C)C4C(O)C(O)C5(OCC24C15)C(=O)OC)C)C=C(C)C(C)C",
        "Molecular Formula": "C<sub>28</sub>H<sub>36</sub>O<sub>11</sub>",
        "Molecular Mass": "548.58",
        "Melting Point": "225-226 °C"
    }
}