{
    "cas_no": "1203-24-3",
    "key_name": "(<em>o</em>-Chlorophenyl)maleimide",
    "cn_name": "N-(邻氯苯基)马来酸;",
    "alternate_name": "1<em>H</em>-Pyrrole-2,5-dione, 1-(2-chlorophenyl)-;Maleimide, <em>N</em>-(<em>o</em>-chlorophenyl)-;1-(2-Chlorophenyl)-1<em>H</em>-pyrrole-2,5-dione;<em>N</em>-(<em>o</em>-Chlorophenyl)maleimide;<em>N</em>-(2-Chlorophenyl)maleimide;(<em>o</em>-Chlorophenyl)maleimide;1-(2-Chlorophenyl)pyrrole-2,5-dione;1-(2-Chlorophenyl)-2,5-dihydro-1<em>H</em>-pyrrole-2,5-dione",
    "duplicated_cas_no": "",
    "SMILES": "O=C1N(C(=O)C=C1)C2=C(Cl)C=CC=C2",
    "meta_data": {
        "InChI": "InChI=1S/C10H6ClNO2/c11-7-3-1-2-4-8(7)12-9(13)5-6-10(12)14/h1-6H",
        "InChIKey": null,
        "Canonical SMILES": "O=C1C=CC(=O)N1C=2C=CC=CC2Cl",
        "Molecular Formula": "C<sub>10</sub>H<sub>6</sub>ClNO<sub>2</sub>",
        "Molecular Mass": "207.61",
        "Boiling Point": "137-144 °C @ Press: 0.9 Torr",
        "Melting Point": "59-60 °C"
    }
}