{
    "cas_no": "1194-65-6",
    "key_name": "2,6-Dichlorobenzonitrile",
    "cn_name": "2,6-二氯苄腈;2,6-二氯苯甲腈;2,6-二氯苯腈;",
    "alternate_name": "Benzonitrile, 2,6-dichloro-;2,6-Dichlorobenzonitrile;H 133;Nia 5996;Casoron 133;Casoron;Dichlobenil;Niagara 5996;DBN;DBN (pesticide);2,6-Dichlorocyanobenzene;Casoron G;Surfassol;NSC 521490;Casoron 4G;Casoron CS",
    "duplicated_cas_no": "",
    "SMILES": "C(#N)C1=C(Cl)C=CC=C1Cl",
    "meta_data": {
        "InChI": "InChI=1S/C7H3Cl2N/c8-6-2-1-3-7(9)5(6)4-10/h1-3H",
        "InChIKey": null,
        "Canonical SMILES": "N#CC=1C(Cl)=CC=CC1Cl",
        "Molecular Formula": "C<sub>7</sub>H<sub>3</sub>Cl<sub>2</sub>N",
        "Molecular Mass": "172.01",
        "Boiling Point": "270 °C",
        "Melting Point": "144-145 °C"
    }
}