{
    "cas_no": "10004-44-1",
    "key_name": "3-Hydroxy-5-methylisoxazole",
    "cn_name": null,
    "alternate_name": "3(2<em>H</em>)-Isoxazolone, 5-methyl-;3-Isoxazolol, 5-methyl-;5-Methyl-3(2<em>H</em>)-isoxazolone;3-Hydroxy-5-methylisoxazole;Tachigaren;5-Methyl-3-hydroxyisoxazole;Hymexazole;Hymexazol;F 319 (fungicide);Hydroxyisoxazole (pesticide);Butsid;Bucid;Hydroxyisoxazole;F 319;NSC 217971;5-Methylisoxazol-3-ol;5-Methyl-1,2-oxazol-3-ol",
    "duplicated_cas_no": "128907-24-4;29412-88-2;52229-82-0;1135441-31-4",
    "SMILES": "O=C1C=C(C)ON1",
    "meta_data": {
        "InChI": "InChI=1S/C4H5NO2/c1-3-2-4(6)5-7-3/h2H,1H3,(H,5,6)",
        "InChIKey": null,
        "Canonical SMILES": "O=C1C=C(ON1)C",
        "Molecular Formula": "C<sub>4</sub>H<sub>5</sub>NO<sub>2</sub>",
        "Molecular Mass": "99.09",
        "Melting Point": "86.5 °C"
    }
}