{
    "cas_no": "5891-53-2",
    "key_name": "Glutamyllysine",
    "cn_name": null,
    "alternate_name": "<span class=\"text-smallcaps\">L</smallcap>-Lysine, <smallcap>L</span>-α-glutamyl-;Lysine, <em>N</em><sup>2</sup>-<span class=\"text-smallcaps\">L</smallcap>-α-glutamyl-, <smallcap>L</span>-;<span class=\"text-smallcaps\">L</smallcap>-Lysine, <em>N</em><sup>2</sup>-<smallcap>L</span>-α-glutamyl-;Lysine, <em>N</em><sup>2</sup>-α-glutamyl-;<span class=\"text-smallcaps\">L</smallcap>-α-Glutamyl-<smallcap>L</span>-lysine;Glutamyllysine;<em>N</em><sup>2</sup>-<span class=\"text-smallcaps\">L</span>-α-Glutamyllysine;459: PN: WO2005081628 SEQID: 461 claimed protein;179: PN: WO2011146121 PAGE: 117 claimed sequence;α-Glu-Lys;7: PN: WO2018204847 SEQID: 7 claimed protein;111: PN: WO2022215055 SEQID: 111 claimed protein",
    "duplicated_cas_no": "",
    "SMILES": "[C@H](NC([C@H](CCC(O)=O)N)=O)(CCCCN)C(O)=O",
    "meta_data": {
        "InChI": "InChI=1S/C11H21N3O5/c12-6-2-1-3-8(11(18)19)14-10(17)7(13)4-5-9(15)16/h7-8H,1-6,12-13H2,(H,14,17)(H,15,16)(H,18,19)/t7-,8-/m0/s1",
        "InChIKey": null,
        "Canonical SMILES": "O=C(O)CCC(N)C(=O)NC(C(=O)O)CCCCN",
        "Molecular Formula": "C<sub>11</sub>H<sub>21</sub>N<sub>3</sub>O<sub>5</sub>",
        "Molecular Mass": "275.30",
        "Melting Point": "&gt;150 °C (decomp)"
    }
}