{
    "cas_no": "86763-47-5",
    "key_name": "Propisochlor",
    "cn_name": "异丙草胺;2-氯-N-(异丙氧基甲基)-N-(2-乙基-6-甲基苯基)乙酰胺;",
    "alternate_name": "Acetamide, 2-chloro-<em>N</em>-(2-ethyl-6-methylphenyl)-<em>N</em>-[(1-methylethoxy)methyl]-;2-Chloro-<em>N</em>-(2-ethyl-6-methylphenyl)-<em>N</em>-[(1-methylethoxy)methyl]acetamide;Propisochlor;Proponit;Propizochlor;Proponit 720EC;Proponit 720SC;(±)-Propisochlor;2-Chloro-<em>N</em>-(2-ethyl-6-methylphenyl)-<em>N</em>-(isopropoxymethyl)acetamide",
    "duplicated_cas_no": "",
    "SMILES": "N(COC(C)C)(C(CCl)=O)C1=C(CC)C=CC=C1C",
    "meta_data": {
        "InChI": "InChI=1S/C15H22ClNO2/c1-5-13-8-6-7-12(4)15(13)17(14(18)9-16)10-19-11(2)3/h6-8,11H,5,9-10H2,1-4H3",
        "InChIKey": null,
        "Canonical SMILES": "O=C(N(C=1C(=CC=CC1CC)C)COC(C)C)CCl",
        "Molecular Formula": "C<sub>15</sub>H<sub>22</sub>ClNO<sub>2</sub>",
        "Molecular Mass": "283.79",
        "Boiling Point": "&gt;243 °C",
        "Melting Point": "21.6 °C"
    }
}