{
    "cas_no": "33665-90-6",
    "key_name": "Acesulfame",
    "cn_name": "安赛蜜;AK糖;6-甲基-1,2,3-氧恶嗪-4-(3H)-酮-2,2-二氧化物;安塞米;",
    "alternate_name": "1,2,3-Oxathiazin-4(3<em>H</em>)-one, 6-methyl-, 2,2-dioxide;Acesulfame;Acesulfam;3,4-Dihydro-6-methyl-1,2,3-oxathiazin-4-one 2,2-dioxide;Acetosulfam;6-Methyl-3,4-dihydro-1,2,3-oxathiazin-4-one 2,2-dioxide;Acesulfam H",
    "duplicated_cas_no": "2983715-70-2",
    "SMILES": "O=S1(=O)NC(=O)C=C(C)O1",
    "meta_data": {
        "InChI": "InChI=1S/C4H5NO4S/c1-3-2-4(6)5-10(7,8)9-3/h2H,1H3,(H,5,6)",
        "InChIKey": null,
        "Canonical SMILES": "O=C1C=C(OS(=O)(=O)N1)C",
        "Molecular Formula": "C<sub>4</sub>H<sub>5</sub>NO<sub>4</sub>S",
        "Molecular Mass": "163.15",
        "Melting Point": "123-123.5 °C",
        "Density": "1.62 g/cm³"
    }
}