{
    "cas_no": "4594-78-9",
    "key_name": "2-Oxocyclohexanepropanenitrile",
    "cn_name": "3-(2-氧代环己基)丙腈;",
    "alternate_name": "Cyclohexanepropanenitrile, 2-oxo-;Cyclohexanepropionitrile, 2-oxo-;2-Oxocyclohexanepropanenitrile;2-(2-Cyanoethyl)cyclohexanone;2-(β-Cyanoethyl)cyclohexanone;2-(2-Cyanoethyl)-1-cyclohexanone;NSC 119497;NSC 60268;3-(2-Cyclohexanone)propionitrile;3-(2-Oxocyclohexyl)propanenitrile",
    "duplicated_cas_no": "58769-43-0",
    "SMILES": "C(CC#N)C1C(=O)CCCC1",
    "meta_data": {
        "InChI": "InChI=1S/C9H13NO/c10-7-3-5-8-4-1-2-6-9(8)11/h8H,1-6H2",
        "InChIKey": null,
        "Canonical SMILES": "N#CCCC1C(=O)CCCC1",
        "Molecular Formula": "C<sub>9</sub>H<sub>13</sub>NO",
        "Molecular Mass": "151.21",
        "Boiling Point": "138-142 °C @ Press: 10 Torr",
        "Melting Point": "61-62 °C",
        "Density": "1.002 g/cm³ @ Temp: 420 °C"
    }
}