{
    "cas_no": "38205-60-6",
    "key_name": "5-Acetyl-2,4-dimethylthiazole",
    "cn_name": "2,4-二甲基-5-乙酰基噻唑;",
    "alternate_name": "Ethanone, 1-(2,4-dimethyl-5-thiazolyl)-;Ketone, 2,4-dimethyl-5-thiazolyl methyl;1-(2,4-Dimethyl-5-thiazolyl)ethanone;5-Acetyl-2,4-dimethylthiazole;2,4-Dimethyl-5-acetylthiazole;1-(2,4-Dimethylthiazol-5-yl)ethanone;1-(2,4-Dimethyl-1,3-thiazol-5-yl)ethanone;1-(2,4-Dimethylthiazol-5-yl)ethan-1-one;1-(Dimethyl-1,3-thiazol-5-yl)ethan-1-one",
    "duplicated_cas_no": "",
    "SMILES": "C(C)(=O)C=1SC(C)=NC1C",
    "meta_data": {
        "InChI": "InChI=1S/C7H9NOS/c1-4-7(5(2)9)10-6(3)8-4/h1-3H3",
        "InChIKey": null,
        "Canonical SMILES": "O=C(C=1SC(=NC1C)C)C",
        "Molecular Formula": "C<sub>7</sub>H<sub>9</sub>NOS",
        "Molecular Mass": "155.22",
        "Boiling Point": "228-230 °C"
    }
}