{
    "cas_no": "14925-39-4",
    "key_name": "2-Propenal, 2-bromo-",
    "cn_name": null,
    "alternate_name": "2-Propenal, 2-bromo-;Acrolein, 2-bromo-;α-Bromoacrolein;2-Bromopropenal;2-Bromoacrolein;2-Bromoacrylaldehyde;2-Bromoprop-2-enal",
    "duplicated_cas_no": "",
    "SMILES": "C(C=O)(Br)=C",
    "meta_data": {
        "InChI": "InChI=1S/C3H3BrO/c1-3(4)2-5/h2H,1H2",
        "InChIKey": null,
        "Canonical SMILES": "O=CC(Br)=C",
        "Molecular Formula": "C<sub>3</sub>H<sub>3</sub>BrO",
        "Molecular Mass": "134.96",
        "Boiling Point": "58 °C @ Press: 21 Torr"
    }
}