{
    "cas_no": "5150-42-5",
    "key_name": "2,3-Dimethoxyphenol",
    "cn_name": "2,3-二甲氧基苯酚;",
    "alternate_name": "Phenol, 2,3-dimethoxy-;2,3-Dimethoxyphenol;1-Hydroxy-2,3-dimethoxybenzene;NSC 80659",
    "duplicated_cas_no": "",
    "SMILES": "O(C)C1=C(OC)C(O)=CC=C1",
    "meta_data": {
        "InChI": "InChI=1S/C8H10O3/c1-10-7-5-3-4-6(9)8(7)11-2/h3-5,9H,1-2H3",
        "InChIKey": null,
        "Canonical SMILES": "OC1=CC=CC(OC)=C1OC",
        "Molecular Formula": "C<sub>8</sub>H<sub>10</sub>O<sub>3</sub>",
        "Molecular Mass": "154.16",
        "Boiling Point": "124-157 °C @ Press: 17 Torr",
        "Density": "1.182 g/cm³"
    }
}