{
    "cas_no": "36897-94-6",
    "key_name": "2-Methyl bicyclo[2.2.1]hept-5-ene-2,3-dicarboxylate",
    "cn_name": null,
    "alternate_name": "Bicyclo[2.2.1]hept-5-ene-2,3-dicarboxylic acid, 2-methyl ester;Bicyclo[2.2.1]hept-5-ene-2,3-dicarboxylic acid, monomethyl ester;5-Norbornene-2,3-dicarboxylic acid, methyl ester;2-Methyl bicyclo[2.2.1]hept-5-ene-2,3-dicarboxylate;Methyl 5-norbornene-2,3-dicarboxylate;5-Norbornene-2,3-dicarboxylic acid monomethyl ester;Nadic acid monomethyl ester;NSC 168053;3-Methoxycarbonylbicyclo[2.2.1]hept-5-ene-2-carboxylic acid",
    "duplicated_cas_no": "",
    "SMILES": "C(OC)(=O)C1C(C(O)=O)C2CC1C=C2",
    "meta_data": {
        "InChI": "InChI=1S/C10H12O4/c1-14-10(13)8-6-3-2-5(4-6)7(8)9(11)12/h2-3,5-8H,4H2,1H3,(H,11,12)",
        "InChIKey": null,
        "Canonical SMILES": "O=C(O)C1C2C=CC(C2)C1C(=O)OC",
        "Molecular Formula": "C<sub>10</sub>H<sub>12</sub>O<sub>4</sub>",
        "Molecular Mass": "196.20",
        "Melting Point": "96.4-98.2 °C"
    }
}