{
    "cas_no": "1201-08-7",
    "key_name": "8-Bromo-2-methyl-4-quinolinol",
    "cn_name": null,
    "alternate_name": "4-Quinolinol, 8-bromo-2-methyl-;8-Bromo-2-methyl-4-quinolinol",
    "duplicated_cas_no": "",
    "SMILES": "OC=1C2=C(N=C(C)C1)C(Br)=CC=C2",
    "meta_data": {
        "InChI": "InChI=1S/C10H8BrNO/c1-6-5-9(13)7-3-2-4-8(11)10(7)12-6/h2-5H,1H3,(H,12,13)",
        "InChIKey": null,
        "Canonical SMILES": "BrC1=CC=CC2=C(O)C=C(N=C12)C",
        "Molecular Formula": "C<sub>10</sub>H<sub>8</sub>BrNO",
        "Molecular Mass": "238.08",
        "Melting Point": "204-206 °C"
    }
}