{
    "cas_no": "31575-75-4",
    "key_name": "1-Benzyloxy-2-bromobenzene",
    "cn_name": "2-苄氧基溴苯;",
    "alternate_name": "Benzene, 1-bromo-2-(phenylmethoxy)-;Ether, benzyl <em>o</em>-bromophenyl;1-Bromo-2-(phenylmethoxy)benzene;Benzyl 2-bromophenyl ether;1-Benzyloxy-2-bromobenzene;2-Bromophenol benzyl ether;2-Benzyloxy-1-bromobenzene;2-(Benzyloxy)bromobenzene;2-Bromophenyl benzyl ether;1-Bromo-2-benzyloxybenzene",
    "duplicated_cas_no": "",
    "SMILES": "O(CC1=CC=CC=C1)C2=C(Br)C=CC=C2",
    "meta_data": {
        "InChI": "InChI=1S/C13H11BrO/c14-12-8-4-5-9-13(12)15-10-11-6-2-1-3-7-11/h1-9H,10H2",
        "InChIKey": null,
        "Canonical SMILES": "BrC=1C=CC=CC1OCC=2C=CC=CC2",
        "Molecular Formula": "C<sub>13</sub>H<sub>11</sub>BrO",
        "Molecular Mass": "263.13",
        "Boiling Point": "100 °C @ Press: 0.06 Torr"
    }
}