{
    "cas_no": "871-70-5",
    "key_name": "Octadecanedioic acid",
    "cn_name": "十八烷二酸;十八碳二元酸;",
    "alternate_name": "Octadecanedioic acid;1,16-Hexadecanedicarboxylic acid;1,18-Octadecanedioic acid;1,16-Dicarboxyhexadecane;Emerox 118;Inherent C 18",
    "duplicated_cas_no": "98864-90-5;102140-75-0",
    "SMILES": "C(CC(O)=O)CCCCCCCCCCCCCCC(O)=O",
    "meta_data": {
        "InChI": "InChI=1S/C18H34O4/c19-17(20)15-13-11-9-7-5-3-1-2-4-6-8-10-12-14-16-18(21)22/h1-16H2,(H,19,20)(H,21,22)",
        "InChIKey": null,
        "Canonical SMILES": "O=C(O)CCCCCCCCCCCCCCCCC(=O)O",
        "Molecular Formula": "C<sub>18</sub>H<sub>34</sub>O<sub>4</sub>",
        "Molecular Mass": "314.46",
        "Melting Point": "118 °C"
    }
}