{
    "cas_no": "29091-05-2",
    "key_name": "Dinitramine",
    "cn_name": null,
    "alternate_name": "1,3-Benzenediamine, <em>N</em><sup>1</sup>,<em>N</em><sup>1</sup>-diethyl-2,6-dinitro-4-(trifluoromethyl)-;Toluene-2,4-diamine, <em>N</em><sup>4</sup>,<em>N</em><sup>4</sup>-diethyl-α,α,α-trifluoro-3,5-dinitro-;<em>N</em><sup>1</sup>,<em>N</em><sup>1</sup>-Diethyl-2,6-dinitro-4-(trifluoromethyl)-1,3-benzenediamine;USB 3584;<em>N</em><sup>3</sup>,<em>N</em><sup>3</sup>-Diethyl-2,4-dinitro-6-(trifluoromethyl)-1,3-phenylenediamine;Dinitramine;<em>N</em><sup>3</sup>,<em>N</em><sup>3</sup>-Diethyl-2,4-dinitro-6-(trifluoromethyl)-<em>m</em>-phenylenediamine;Cobex;Cobex (herbicide);Kobex",
    "duplicated_cas_no": "",
    "SMILES": "N(CC)(CC)C1=C(N(=O)=O)C(N)=C(C(F)(F)F)C=C1N(=O)=O",
    "meta_data": {
        "InChI": "InChI=1S/C11H13F3N4O4/c1-3-16(4-2)9-7(17(19)20)5-6(11(12,13)14)8(15)10(9)18(21)22/h5H,3-4,15H2,1-2H3",
        "InChIKey": null,
        "Canonical SMILES": "O=N(=O)C=1C=C(C(N)=C(C1N(CC)CC)N(=O)=O)C(F)(F)F",
        "Molecular Formula": "C<sub>11</sub>H<sub>13</sub>F<sub>3</sub>N<sub>4</sub>O<sub>4</sub>",
        "Molecular Mass": "322.24",
        "Melting Point": "98.0-99.0 °C",
        "Density": "1.5 g/cm³ @ Temp: 25 °C"
    }
}