{
    "cas_no": "41018-86-4",
    "key_name": "2,3-Dimethyl-7-nitro-1<em>H</em>-indole",
    "cn_name": "2,3-二甲基-7-硝基吲哚;",
    "alternate_name": "1<em>H</em>-Indole, 2,3-dimethyl-7-nitro-;Indole, 2,3-dimethyl-7-nitro-;2,3-Dimethyl-7-nitro-1<em>H</em>-indole;2,3-Dimethyl-7-nitroindole;NSC 88618",
    "duplicated_cas_no": "",
    "SMILES": "N(=O)(=O)C1=C2C(C(C)=C(C)N2)=CC=C1",
    "meta_data": {
        "InChI": "InChI=1S/C10H10N2O2/c1-6-7(2)11-10-8(6)4-3-5-9(10)12(13)14/h3-5,11H,1-2H3",
        "InChIKey": null,
        "Canonical SMILES": "O=N(=O)C1=CC=CC2=C1NC(=C2C)C",
        "Molecular Formula": "C<sub>10</sub>H<sub>10</sub>N<sub>2</sub>O<sub>2</sub>",
        "Molecular Mass": "190.20",
        "Melting Point": "164 °C"
    }
}