{
    "cas_no": "878194-92-4",
    "key_name": "4-(4,4,5,5-Tetramethyl-1,3,2-dioxaborolan-2-yl)-3-pyridinecarbonitrile",
    "cn_name": "3-氰嘧啶-4-硼酸频哪酯;3-氰基-4-(4,4,5,5-四甲基-[1,3,2]二氧硼戊环-2-基)吡啶;",
    "alternate_name": "3-Pyridinecarbonitrile, 4-(4,4,5,5-tetramethyl-1,3,2-dioxaborolan-2-yl)-;4-(4,4,5,5-Tetramethyl-1,3,2-dioxaborolan-2-yl)-3-pyridinecarbonitrile;4-(4,4,5,5-Tetramethyl-1,3,2-dioxaborolan-2-yl)nicotinonitrile;3-Cyanopyridine-4-boronic acid pinacol ester",
    "duplicated_cas_no": "",
    "SMILES": "C(#N)C=1C(=CC=NC1)B2OC(C)(C)C(C)(C)O2",
    "meta_data": {
        "InChI": "InChI=1S/C12H15BN2O2/c1-11(2)12(3,4)17-13(16-11)10-5-6-15-8-9(10)7-14/h5-6,8H,1-4H3",
        "InChIKey": null,
        "Canonical SMILES": "N#CC=1C=NC=CC1B2OC(C)(C)C(O2)(C)C",
        "Molecular Formula": "C<sub>12</sub>H<sub>15</sub>BN<sub>2</sub>O<sub>2</sub>",
        "Molecular Mass": "230.07",
        "Melting Point": "88 °C"
    }
}