{
    "cas_no": "1119-65-9",
    "key_name": "2-Heptyne",
    "cn_name": "2-庚炔;甲基丁基乙炔;2-戊炔;",
    "alternate_name": "2-Heptyne;1-Methyl-2-butylacetylene;Butyl(methyl)acetylene;NSC 63874",
    "duplicated_cas_no": "",
    "SMILES": "C(CCC)C#CC",
    "meta_data": {
        "InChI": "InChI=1S/C7H12/c1-3-5-7-6-4-2/h3,5,7H2,1-2H3",
        "InChIKey": null,
        "Canonical SMILES": "C(#CCCCC)C",
        "Molecular Formula": "C<sub>7</sub>H<sub>12</sub>",
        "Molecular Mass": "96.17",
        "Boiling Point": "112 °C",
        "Density": "0.7504 g/cm³ @ Temp: 20 °C"
    }
}