{
    "cas_no": "24280-93-1",
    "key_name": "Mycophenolic acid",
    "cn_name": null,
    "alternate_name": "4-Hexenoic acid, 6-(1,3-dihydro-4-hydroxy-6-methoxy-7-methyl-3-oxo-5-isobenzofuranyl)-4-methyl-, (4<em>E</em>)-;4-Hexenoic acid, 6-(4-hydroxy-6-methoxy-7-methyl-3-oxo-5-phthalanyl)-4-methyl-, (<em>E</em>)-;4-Hexenoic acid, 6-(1,3-dihydro-4-hydroxy-6-methoxy-7-methyl-3-oxo-5-isobenzofuranyl)-4-methyl-, (<em>E</em>)-;(4<em>E</em>)-6-(1,3-Dihydro-4-hydroxy-6-methoxy-7-methyl-3-oxo-5-isobenzofuranyl)-4-methyl-4-hexenoic acid;Mycophenolic acid;NSC 129185;Lilly 68618;MPA;Melbex;(<em>E</em>)-6-(4-Hydroxy-6-methoxy-7-methyl-3-oxo-1,3-dihydroisobenzofuran-5-yl)-4-methylhex-4-enoic acid;MeSH ID: D009173",
    "duplicated_cas_no": "",
    "SMILES": "CC1=C2C(=C(O)C(C/C=C(/CCC(O)=O)\\C)=C1OC)C(=O)OC2",
    "meta_data": {
        "InChI": "InChI=1S/C17H20O6/c1-9(5-7-13(18)19)4-6-11-15(20)14-12(8-23-17(14)21)10(2)16(11)22-3/h4,20H,5-8H2,1-3H3,(H,18,19)/b9-4+",
        "InChIKey": null,
        "Canonical SMILES": "O=C1OCC2=C1C(O)=C(C(OC)=C2C)CC=C(C)CCC(=O)O",
        "Molecular Formula": "C<sub>17</sub>H<sub>20</sub>O<sub>6</sub>",
        "Molecular Mass": "320.34",
        "Melting Point": "141 °C",
        "Density": "1.33 g/cm³"
    }
}