{
    "cas_no": "85-81-4",
    "key_name": "6-Methoxy-8-nitroquinoline",
    "cn_name": "6-甲氧基-8-硝基喹啉;",
    "alternate_name": "Quinoline, 6-methoxy-8-nitro-;6-Methoxy-8-nitroquinoline;8-Nitro-6-methoxyquinoline;NSC 1883",
    "duplicated_cas_no": "",
    "SMILES": "N(=O)(=O)C=1C2=C(C=C(OC)C1)C=CC=N2",
    "meta_data": {
        "InChI": "InChI=1S/C10H8N2O3/c1-15-8-5-7-3-2-4-11-10(7)9(6-8)12(13)14/h2-6H,1H3",
        "InChIKey": null,
        "Canonical SMILES": "O=N(=O)C1=CC(OC)=CC2=CC=CN=C21",
        "Molecular Formula": "C<sub>10</sub>H<sub>8</sub>N<sub>2</sub>O<sub>3</sub>",
        "Molecular Mass": "204.18",
        "Melting Point": "159 °C"
    }
}