{
    "cas_no": "16354-58-8",
    "key_name": "Acetylserine",
    "cn_name": null,
    "alternate_name": "<span class=\"text-smallcaps\">L</span>-Serine, <em>N</em>-acetyl-;Serine, <em>N</em>-acetyl-, <span class=\"text-smallcaps\">L</span>-;<em>N</em>-Acetyl-<span class=\"text-smallcaps\">L</span>-serine;Acetylserine;<em>N</em>-Acetylserine;(<em>S</em>)-2-Acetamido-3-hydroxypropanoic acid;(2S)-2-Acetamido-3-hydroxypropanoic acid",
    "duplicated_cas_no": "89495-38-5",
    "SMILES": "[C@@H](NC(C)=O)(C(O)=O)CO",
    "meta_data": {
        "InChI": "InChI=1S/C5H9NO4/c1-3(8)6-4(2-7)5(9)10/h4,7H,2H2,1H3,(H,6,8)(H,9,10)/t4-/m0/s1",
        "InChIKey": null,
        "Canonical SMILES": "O=C(O)C(NC(=O)C)CO",
        "Molecular Formula": "C<sub>5</sub>H<sub>9</sub>NO<sub>4</sub>",
        "Molecular Mass": "147.13",
        "Melting Point": "207.6 °C"
    }
}