{
    "cas_no": "58888-49-6",
    "key_name": "Benzenamine, <em>N</em>,<em>N</em>-dimethyl-, sulfate (1:1)",
    "cn_name": null,
    "alternate_name": "Benzenamine, <em>N</em>,<em>N</em>-dimethyl-, sulfate (1:1);Aniline, <em>N</em>,<em>N</em>-dimethyl-, sulfate;<em>N</em>,<em>N</em>-Dimethylanilinium hydrogen sulfate;<em>N</em>,<em>N</em>-Dimethylaniline sulfate (1:1);<em>N</em>,<em>N</em>-Dimethylanilinium bisulfate",
    "duplicated_cas_no": "",
    "SMILES": "S(=O)(=O)(O)O.N(C)(C)C1=CC=CC=C1",
    "meta_data": {
        "InChI": "InChI=1S/C8H11N.H2O4S/c1-9(2)8-6-4-3-5-7-8;1-5(2,3)4/h3-7H,1-2H3;(H2,1,2,3,4)",
        "InChIKey": null,
        "Canonical SMILES": "O=S(=O)(O)O.C=1C=CC(=CC1)N(C)C",
        "Molecular Formula": "C<sub>8</sub>H<sub>11</sub>N.H<sub>2</sub>O<sub>4</sub>S",
        "Molecular Mass": "",
        "Melting Point": "88-89 °C"
    }
}