{
    "cas_no": "536-60-7",
    "key_name": "<em>p</em>-Cymen-7-ol",
    "cn_name": null,
    "alternate_name": "Benzenemethanol, 4-(1-methylethyl)-;<em>p</em>-Cymen-7-ol;4-(1-Methylethyl)benzenemethanol;Cumic alcohol;Cuminic alcohol;Cuminol;Cuminyl alcohol;Cumyl alcohol;<em>p</em>-Isopropylbenzyl alcohol;4-Isopropylbenzyl alcohol;Cumin alcohol;NSC 15672;(4-Isopropylphenyl)methanol;4-Isopropylbenzenemethanol;<em>p</em>-Cumic alcohol;[4-(Propan-2-yl)phenyl]methanol",
    "duplicated_cas_no": "185532-73-4",
    "SMILES": "C(C)(C)C1=CC=C(CO)C=C1",
    "meta_data": {
        "InChI": "InChI=1S/C10H14O/c1-8(2)10-5-3-9(7-11)4-6-10/h3-6,8,11H,7H2,1-2H3",
        "InChIKey": null,
        "Canonical SMILES": "OCC1=CC=C(C=C1)C(C)C",
        "Molecular Formula": "C<sub>10</sub>H<sub>14</sub>O",
        "Molecular Mass": "150.22",
        "Boiling Point": "249 °C",
        "Melting Point": "28 °C",
        "Density": "0.9818 g/cm³ @ Temp: 18.5 °C"
    }
}