{
    "cas_no": "17354-14-2",
    "key_name": "Solvent Blue 35",
    "cn_name": "溶剂蓝35;",
    "alternate_name": "9,10-Anthracenedione, 1,4-bis(butylamino)-;Anthraquinone, 1,4-bis(butylamino)-;1,4-Bis(butylamino)-9,10-anthracenedione;1,4-Bis(butylamino)-9,10-anthraquinone;1,4-Bis(butylamino)anthraquinone;C.I. Solvent Blue 35;Sudan Blue II;C.I. 61554;C Ext. Blue 12;Kayaset Blue N;Orient Oil Blue 2N;Oil Soluble Blue 11;Sico Fat Blue 50401N;Sudan Blue II Base;SOT-Blue 2;Aizen SOT Blue 2;Solvent Blue 35;Sudan Blue 670;Hytherm Blue B 200;Oil Blue 2N;Sumiplast Blue S;Fat Blue B;Oplas Blue 2N;Sudan Blue 2;Oplas Blue IIn;Opurous Blue IIN;Fat Blue B 01;Blue 2N;Oil Blue 5502;Orimax Blue 2N;Orcosolve Blue B;KP Plast Blue BR;Oil Blue B;Oil Blue 35",
    "duplicated_cas_no": "100041-53-0;12769-17-4;68943-45-3;71060-87-2",
    "SMILES": "N(CCCC)C1=C2C(=C(NCCCC)C=C1)C(=O)C=3C(C2=O)=CC=CC3",
    "meta_data": {
        "InChI": "InChI=1S/C22H26N2O2/c1-3-5-13-23-17-11-12-18(24-14-6-4-2)20-19(17)21(25)15-9-7-8-10-16(15)22(20)26/h7-12,23-24H,3-6,13-14H2,1-2H3",
        "InChIKey": null,
        "Canonical SMILES": "O=C1C=2C=CC=CC2C(=O)C=3C(=CC=C(NCCCC)C13)NCCCC",
        "Molecular Formula": "C<sub>22</sub>H<sub>26</sub>N<sub>2</sub>O<sub>2</sub>",
        "Molecular Mass": "350.45",
        "Melting Point": "134 °C"
    }
}