{
    "cas_no": "5535-48-8",
    "key_name": "Phenyl vinyl sulfone",
    "cn_name": "苯基乙烯基砜;",
    "alternate_name": "Benzene, (ethenylsulfonyl)-;Sulfone, phenyl vinyl;(Ethenylsulfonyl)benzene;Phenyl vinyl sulfone;URI 744;NSC 35394;Ethenyl phenyl sulfone;Vinylsulfonylbenzene;(Ethenesulfonyl)benzene",
    "duplicated_cas_no": "",
    "SMILES": "S(C=C)(=O)(=O)C1=CC=CC=C1",
    "meta_data": {
        "InChI": "InChI=1S/C8H8O2S/c1-2-11(9,10)8-6-4-3-5-7-8/h2-7H,1H2",
        "InChIKey": null,
        "Canonical SMILES": "O=S(=O)(C=C)C=1C=CC=CC1",
        "Molecular Formula": "C<sub>8</sub>H<sub>8</sub>O<sub>2</sub>S",
        "Molecular Mass": "168.21",
        "Melting Point": "68 °C"
    }
}