{
    "cas_no": "7735-43-5",
    "key_name": "1,20-Eicosanediol",
    "cn_name": null,
    "alternate_name": "1,20-Eicosanediol;1,20-Dihydroxyeicosane;Icosane-1,20-diol",
    "duplicated_cas_no": "",
    "SMILES": "C(CCCCCCCCCCO)CCCCCCCCCO",
    "meta_data": {
        "InChI": "InChI=1S/C20H42O2/c21-19-17-15-13-11-9-7-5-3-1-2-4-6-8-10-12-14-16-18-20-22/h21-22H,1-20H2",
        "InChIKey": null,
        "Canonical SMILES": "OCCCCCCCCCCCCCCCCCCCCO",
        "Molecular Formula": "C<sub>20</sub>H<sub>42</sub>O<sub>2</sub>",
        "Molecular Mass": "314.55",
        "Boiling Point": "215-217 °C @ Press: 1.5 Torr",
        "Melting Point": "103 °C"
    }
}