{
    "cas_no": "765-42-4",
    "key_name": "1-Cyclopropylethanol",
    "cn_name": "1-环丙基乙醇;环丙基甲基甲醇;1-环丙基乙醇,98%;1-环丙基乙醇;",
    "alternate_name": "Cyclopropanemethanol, α-methyl-;α-Methylcyclopropanemethanol;1-Cyclopropylethanol;Cyclopropylmethylcarbinol;1-Cyclopropyl-1-ethanol;Cyclopropylmethylmethanol;<em>rac</em>-1-Cyclopropylethanol;NSC 77076;1-Cyclopropylethyl alcohol",
    "duplicated_cas_no": "10367-79-0;343267-96-9",
    "SMILES": "C(C)(O)C1CC1",
    "meta_data": {
        "InChI": "InChI=1S/C5H10O/c1-4(6)5-2-3-5/h4-6H,2-3H2,1H3",
        "InChIKey": null,
        "Canonical SMILES": "OC(C)C1CC1",
        "Molecular Formula": "C<sub>5</sub>H<sub>10</sub>O",
        "Molecular Mass": "86.13",
        "Boiling Point": "123.5 °C",
        "Melting Point": "-32.1 °C",
        "Density": "0.88778 g/cm³ @ Temp: 20 °C"
    }
}