{
    "cas_no": "2176-98-9",
    "key_name": "Tetrapropylstannane",
    "cn_name": "四正丙基锡;",
    "alternate_name": "Stannane, tetrapropyl-;Tin, tetrapropyl-;Tetrapropylstannane;Tetrapropyltin;NSC 78942",
    "duplicated_cas_no": "",
    "SMILES": "[Sn](CCC)(CCC)(CCC)CCC",
    "meta_data": {
        "InChI": "InChI=1S/4C3H7.Sn/c4*1-3-2;/h4*1,3H2,2H3;",
        "InChIKey": null,
        "Canonical SMILES": "CCC[Sn](CCC)(CCC)CCC",
        "Molecular Formula": "C<sub>12</sub>H<sub>28</sub>Sn",
        "Molecular Mass": "291.06",
        "Boiling Point": "228 °C",
        "Melting Point": "-109.1 °C"
    }
}