{
    "cas_no": "927-49-1",
    "key_name": "6-Undecanone",
    "cn_name": "二正戊基酮;6-十一酮;",
    "alternate_name": "6-Undecanone;Dipentyl ketone;Amyl ketone;Pentyl ketone;Diamyl ketone",
    "duplicated_cas_no": "",
    "SMILES": "C(C(CCCCC)=O)CCCC",
    "meta_data": {
        "InChI": "InChI=1S/C11H22O/c1-3-5-7-9-11(12)10-8-6-4-2/h3-10H2,1-2H3",
        "InChIKey": null,
        "Canonical SMILES": "O=C(CCCCC)CCCCC",
        "Molecular Formula": "C<sub>11</sub>H<sub>22</sub>O",
        "Molecular Mass": "170.29",
        "Boiling Point": "228 °C",
        "Melting Point": "14.5 °C",
        "Density": "0.81690 g/cm³ @ Temp: 15 °C"
    }
}