{
    "cas_no": "15112-89-7",
    "key_name": "<em>N</em>,<em>N</em>,<em>N</em>′,<em>N</em>′,<em>N</em>′′,<em>N</em>′′-Hexamethylsilanetriamine",
    "cn_name": "三(二甲氨基)硅烷;",
    "alternate_name": "Silanetriamine, <em>N</em>,<em>N</em>,<em>N</em>′,<em>N</em>′,<em>N</em>′′,<em>N</em>′′-hexamethyl-;<em>N</em>,<em>N</em>,<em>N</em>′,<em>N</em>′,<em>N</em>′′,<em>N</em>′′-Hexamethylsilanetriamine;Tris(dimethylamino)silane;LS 1460;Tri(dimethylamino)silane;[Bis(dimethylamino)silyl]dimethylamine",
    "duplicated_cas_no": "",
    "SMILES": "[SiH](N(C)C)(N(C)C)N(C)C",
    "meta_data": {
        "InChI": "InChI=1S/C6H19N3Si/c1-7(2)10(8(3)4)9(5)6/h10H,1-6H3",
        "InChIKey": null,
        "Canonical SMILES": "N(C)(C)[SiH](N(C)C)N(C)C",
        "Molecular Formula": "C<sub>6</sub>H<sub>19</sub>N<sub>3</sub>Si",
        "Molecular Mass": "161.32",
        "Boiling Point": "145-148 °C",
        "Melting Point": "&lt;-90 °C",
        "Density": "0.838 g/cm³"
    }
}