{
    "cas_no": "527-20-8",
    "key_name": "Pentachloroaniline",
    "cn_name": "五氯苯胺;2,3,4,5,6-五氯苯胺;",
    "alternate_name": "Benzenamine, 2,3,4,5,6-pentachloro-;Aniline, 2,3,4,5,6-pentachloro-;Aniline, pentachloro-;2,3,4,5,6-Pentachlorobenzenamine;Pentachloroaniline;2,3,4,5,6-Pentachloroaniline;PCA;Pentachloroaminobenzene;NSC 49579",
    "duplicated_cas_no": "",
    "SMILES": "ClC1=C(Cl)C(Cl)=C(N)C(Cl)=C1Cl",
    "meta_data": {
        "InChI": "InChI=1S/C6H2Cl5N/c7-1-2(8)4(10)6(12)5(11)3(1)9/h12H2",
        "InChIKey": null,
        "Canonical SMILES": "ClC=1C(Cl)=C(Cl)C(N)=C(Cl)C1Cl",
        "Molecular Formula": "C<sub>6</sub>H<sub>2</sub>Cl<sub>5</sub>N",
        "Molecular Mass": "265.35",
        "Melting Point": "235 °C"
    }
}