{
    "cas_no": "5162-63-0",
    "key_name": "2,4,6,8-Tetraethenyl-2,4,6,8-tetramethylcyclotetrasilazane",
    "cn_name": null,
    "alternate_name": "Cyclotetrasilazane, 2,4,6,8-tetraethenyl-2,4,6,8-tetramethyl-;Cyclotetrasilazane, 2,4,6,8-tetramethyl-2,4,6,8-tetravinyl-;2,4,6,8-Tetraethenyl-2,4,6,8-tetramethylcyclotetrasilazane;1,3,5,7-Tetravinyl-1,3,5,7-tetramethylcyclotetrasilazane;Tetravinyltetramethylcyclotetrasilazane;2,4,6,8-Tetrakis(ethenyl)-2,4,6,8-tetramethyl-1,3,5,7,2,4,6,8-tetrazatetrasilocane",
    "duplicated_cas_no": "",
    "SMILES": "C(=C)[Si]1(C)N[Si](C=C)(C)N[Si](C=C)(C)N[Si](C=C)(C)N1",
    "meta_data": {
        "InChI": "InChI=1S/C12H28N4Si4/c1-9-17(5)13-18(6,10-2)15-20(8,12-4)16-19(7,11-3)14-17/h9-16H,1-4H2,5-8H3",
        "InChIKey": null,
        "Canonical SMILES": "C=C[Si]1(N[Si](C=C)(N[Si](C=C)(N[Si](C=C)(N1)C)C)C)C",
        "Molecular Formula": "C<sub>12</sub>H<sub>28</sub>N<sub>4</sub>Si<sub>4</sub>",
        "Molecular Mass": "340.72",
        "Boiling Point": "104-107 °C @ Press: 4 Torr",
        "Density": "0.992 g/cm³ @ Temp: 24 °C"
    }
}