{
    "cas_no": "128-38-1",
    "key_name": "4,4′-Bis(2,6-di-<em>tert</em>-butylphenol)",
    "cn_name": null,
    "alternate_name": "[1,1′-Biphenyl]-4,4′-diol, 3,3′,5,5′-tetrakis(1,1-dimethylethyl)-;4,4′-Biphenyldiol, 3,3′,5,5′-tetra-<em>tert</em>-butyl-;<em>p</em>,<em>p</em>′-Biphenol, 2,2′,6,6′-tetra-<em>tert</em>-butyl-;3,3′,5,5′-Tetrakis(1,1-dimethylethyl)[1,1′-biphenyl]-4,4′-diol;4,4′-Bis(2,6-di-<em>tert</em>-butylphenol);3,5,3′,5′-Tetra-<em>tert</em>-butyl-4,4′-dihydroxydiphenyl;Ethyl 712;3,3′,5,5′-Tetra-<em>tert</em>-butyl-4,4′-biphenyldiol;4,4′-Dihydroxy-3,3′,5,5′-tetra-<em>tert</em>-butylbiphenyl;3,3′,5,5′-Tetra-<em>tert</em>-butyl-4,4′-biphenol;TBB;TBB (antioxidant);Agidol 5;3,3′,5,5′-Tetra-<em>tert</em>-butyl[1,1′-biphenyl]-4,4′-diol;3,3′,5,5′-Tetra-<em>tert</em>-butyl-4,4′-dihydroxydiphenyl;3,3′,5,5′-Tetra-<em>tert</em>-butyl-<em>p</em>,<em>p</em>′-biphenol;3,3′,5,5′-Tetra-<em>tert</em>-butyl-4,4′-hydroxybiphenyl;3,3′,5,5′-Tetra-<em>tert</em>-butyl-4,4′-dihydroxybiphenyl;3,3′,5,5′-Tetrakis(1,1-dimethylethyl)-1,1′-biphenyl-4,4′-diol;H 212/43;3,3′,5,5′-Tetra-<em>tert</em>-butyl-4,4′-dihydroxy-1,1′-biphenyl;NSC 14479;NSC 39768;NSC 61171;2,2′,6,6′-Tetra-<em>tert</em>-butyl-4,4′-biphenol;4,4′-Dihydroxy-3,5,3′,5′-tetra-<em>tert</em>-butylbiphenyl;DPQH<sub>2</sub>",
    "duplicated_cas_no": "77107-26-7;88984-56-9",
    "SMILES": "C(C)(C)(C)C1=C(O)C(C(C)(C)C)=CC(=C1)C2=CC(C(C)(C)C)=C(O)C(C(C)(C)C)=C2",
    "meta_data": {
        "InChI": "InChI=1S/C28H42O2/c1-25(2,3)19-13-17(14-20(23(19)29)26(4,5)6)18-15-21(27(7,8)9)24(30)22(16-18)28(10,11)12/h13-16,29-30H,1-12H3",
        "InChIKey": null,
        "Canonical SMILES": "OC=1C(=CC(=CC1C(C)(C)C)C=2C=C(C(O)=C(C2)C(C)(C)C)C(C)(C)C)C(C)(C)C",
        "Molecular Formula": "C<sub>28</sub>H<sub>42</sub>O<sub>2</sub>",
        "Molecular Mass": "410.63",
        "Melting Point": "184-185 °C"
    }
}