{
    "cas_no": "4351-55-7",
    "key_name": "Cholesteryl formate",
    "cn_name": "胆甾烯基甲酸酯;胆甾醇甲酸酯;",
    "alternate_name": "Cholest-5-en-3-ol (3β)-, 3-formate;Cholesterol, formate;Cholest-5-en-3-ol (3β)-, formate;Cholesteryl formate;3β-(Formyloxy)cholest-5-ene;Cholest-5-en-3β-ol formate;5-Cholesten-3β-ol formate",
    "duplicated_cas_no": "55102-85-7",
    "SMILES": "C[C@@]12[C@]([C@]3([C@@]([C@]4(C)C(=CC3)C[C@@H](OC=O)CC4)(CC1)[H])[H])(CC[C@@]2([C@@H](CCCC(C)C)C)[H])[H]",
    "meta_data": {
        "InChI": "InChI=1S/C28H46O2/c1-19(2)7-6-8-20(3)24-11-12-25-23-10-9-21-17-22(30-18-29)13-15-27(21,4)26(23)14-16-28(24,25)5/h9,18-20,22-26H,6-8,10-17H2,1-5H3/t20-,22+,23+,24-,25+,26+,27+,28-/m1/s1",
        "InChIKey": null,
        "Canonical SMILES": "O=COC1CC2=CCC3C(CCC4(C)C(CCC34)C(C)CCCC(C)C)C2(C)CC1",
        "Molecular Formula": "C<sub>28</sub>H<sub>46</sub>O<sub>2</sub>",
        "Molecular Mass": "414.66",
        "Melting Point": "97.5-98.0 °C"
    }
}