{
    "cas_no": "1947-58-6",
    "key_name": "<em>rel</em>-(2<em>R</em>,3<em>R</em>)-2,3-Dibromo-1,4-butanediol",
    "cn_name": "2,3-二溴-1,4-丁二醇;",
    "alternate_name": "1,4-Butanediol, 2,3-dibromo-, (2<em>R</em>,3<em>R</em>)-<em>rel</em>-;1,4-Butanediol, 2,3-dibromo-, (<em>R</em>*,<em>R</em>*)-(±)-;1,4-Butanediol, 2,3-dibromo-, (<em>R</em>*,<em>R</em>*)-;<em>rel</em>-(2<em>R</em>,3<em>R</em>)-2,3-Dibromo-1,4-butanediol;<em>rac</em>-2,3-Dibromobutane-1,4-diol;2,3-Dibromo-2,3-dideoxy-<em>dl</em>-threitol",
    "duplicated_cas_no": "19953-61-8;90801-18-6",
    "SMILES": "[C@H]([C@@H](CO)Br)(CO)Br",
    "meta_data": {
        "InChI": "InChI=1/C4H8Br2O2/c5-3(1-7)4(6)2-8/h3-4,7-8H,1-2H2/t3-,4-/s2",
        "InChIKey": null,
        "Canonical SMILES": "BrC(CO)C(Br)CO",
        "Molecular Formula": "C<sub>4</sub>H<sub>8</sub>Br<sub>2</sub>O<sub>2</sub>",
        "Molecular Mass": "247.91",
        "Boiling Point": "33.5-34.0 °C @ Press: 0.8 Torr"
    }
}