{
    "cas_no": "25391-57-5",
    "key_name": "5-Iodo-3-nitro-2-pyridinamine",
    "cn_name": "2-氨基-5-碘-3-硝基吡啶;",
    "alternate_name": "2-Pyridinamine, 5-iodo-3-nitro-;Pyridine, 2-amino-5-iodo-3-nitro-;5-Iodo-3-nitro-2-pyridinamine;5-Iodo-3-nitropyridin-2-amine;2-Amino-5-iodo-3-nitropyridine",
    "duplicated_cas_no": "",
    "SMILES": "N(=O)(=O)C1=C(N)N=CC(I)=C1",
    "meta_data": {
        "InChI": "InChI=1S/C5H4IN3O2/c6-3-1-4(9(10)11)5(7)8-2-3/h1-2H,(H2,7,8)",
        "InChIKey": null,
        "Canonical SMILES": "O=N(=O)C1=CC(I)=CN=C1N",
        "Molecular Formula": "C<sub>5</sub>H<sub>4</sub>IN<sub>3</sub>O<sub>2</sub>",
        "Molecular Mass": "265.01",
        "Melting Point": "220 °C"
    }
}