{
    "cas_no": "1026-92-2",
    "key_name": "Diallyl terephthalate",
    "cn_name": "对苯二甲酸二丙烯酯;",
    "alternate_name": "1,4-Benzenedicarboxylic acid, 1,4-di-2-propen-1-yl ester;Terephthalic acid, diallyl ester;1,4-Benzenedicarboxylic acid, di-2-propenyl ester;Diallyl terephthalate;DAPren Monomer;NSC 5463",
    "duplicated_cas_no": "154204-78-1;163447-36-7",
    "SMILES": "C(OCC=C)(=O)C1=CC=C(C(OCC=C)=O)C=C1",
    "meta_data": {
        "InChI": "InChI=1S/C14H14O4/c1-3-9-17-13(15)11-5-7-12(8-6-11)14(16)18-10-4-2/h3-8H,1-2,9-10H2",
        "InChIKey": null,
        "Canonical SMILES": "O=C(OCC=C)C1=CC=C(C=C1)C(=O)OCC=C",
        "Molecular Formula": "C<sub>14</sub>H<sub>14</sub>O<sub>4</sub>",
        "Molecular Mass": "246.26",
        "Boiling Point": "166-184 °C @ Press: 1 Torr"
    }
}