{
    "cas_no": "25354-97-6",
    "key_name": "2-Hexyldecanoic acid",
    "cn_name": "2-正己基癸酸;",
    "alternate_name": "Decanoic acid, 2-hexyl-;2-Hexyldecanoic acid;C<sub>16</sub> Guerbet fatty acid;Isocarb 16;2-<em>n</em>-Hexyldecanoic acid;Isopalmitic acid;Fine Oxocol Isopalmitic Acid",
    "duplicated_cas_no": "53593-96-7;1094212-97-1",
    "SMILES": "C(CCCCCCCC)(CCCCCC)C(O)=O",
    "meta_data": {
        "InChI": "InChI=1S/C16H32O2/c1-3-5-7-9-10-12-14-15(16(17)18)13-11-8-6-4-2/h15H,3-14H2,1-2H3,(H,17,18)",
        "InChIKey": null,
        "Canonical SMILES": "O=C(O)C(CCCCCC)CCCCCCCC",
        "Molecular Formula": "C<sub>16</sub>H<sub>32</sub>O<sub>2</sub>",
        "Molecular Mass": "256.42",
        "Boiling Point": "145 °C",
        "Melting Point": "&lt;25 °C",
        "Density": "0.8817 g/cm³ @ Temp: 20 °C"
    }
}