{
    "cas_no": "379-50-0",
    "key_name": "1,1′,1′′-(Fluorosilylidyne)tris[benzene]",
    "cn_name": "三苯基氟硅;",
    "alternate_name": "Benzene, 1,1′,1′′-(fluorosilylidyne)tris-;Silane, fluorotriphenyl-;1,1′,1′′-(Fluorosilylidyne)tris[benzene];Trisyl fluoride;Triphenylfluorosilane;Triphenylsilicon fluoride;Fluorotriphenylsilane;Triphenylsilyl fluoride;NSC 139863;NSC 43086",
    "duplicated_cas_no": "",
    "SMILES": "[Si](F)(C1=CC=CC=C1)(C2=CC=CC=C2)C3=CC=CC=C3",
    "meta_data": {
        "InChI": "InChI=1S/C18H15FSi/c19-20(16-10-4-1-5-11-16,17-12-6-2-7-13-17)18-14-8-3-9-15-18/h1-15H",
        "InChIKey": null,
        "Canonical SMILES": "F[Si](C=1C=CC=CC1)(C=2C=CC=CC2)C=3C=CC=CC3",
        "Molecular Formula": "C<sub>18</sub>H<sub>15</sub>FSi",
        "Molecular Mass": "278.40",
        "Boiling Point": "207-210 °C @ Press: 12 Torr",
        "Melting Point": "61-62 °C",
        "Density": "1.212 g/cm³"
    }
}