{
    "cas_no": "434-03-7",
    "key_name": "Ethisterone",
    "cn_name": "炔孕酮;17beta-羟基-17alpha-乙炔基-雄甾-4-烯-3-酮;",
    "alternate_name": "Pregn-4-en-20-yn-3-one, 17-hydroxy-, (17α)-;17α-Pregn-4-en-20-yn-3-one, 17-hydroxy-;Testosterone, 17-ethynyl-;(17α)-17-Hydroxypregn-4-en-20-yn-3-one;Anhydrohydroxyprogesterone;Anhydroxyprogesterone;Colutoid;Ethisterone;17α-Ethynyl-4-androsten-17β-ol-3-one;17α-Ethynyl-17β-hydroxy-4-androsten-3-one;17-Ethynyl-17β-hydroxyandrost-4-en-3-one;17-Ethynyl-17-hydroxy-3-ketoandrostene-4;17α-Ethynyltestosterone;Gestoral;17-Hydroxy-17α-pregn-4-en-20-yn-3-one;Lucorteum Oral;Lutidon Oral;Lutocylol;Ora-Lutin;Pranone;Pregneninolone;Pregnin;Primolut C;Prodroxan;Progestab;Progestoral;Proluton C;Prone;Syngestrotabs;Trosinone;Ethynyltestosterone;17α-Ethynyl-17-hydroxyandrost-4-en-3-one;Ethinyltestosterone;17β-Hydroxy-17α-ethynylandrost-4-en-3-one;Aethisteron;Progestolets;Ethinone;Prolutol;Prodoxan;Produxan;Nalutoral;Nugestoral;Progestin P;17β-Hydroxy-17α-pregn-4-en-20-yn-3-one;4-Androsten-17α-ethinyl-17β-ol-3-one;Lutocyclol;Lutocyclin-Linguetten;NSC 9565;Pregn-4-en-17β-ol-3-on-20-yne;MeSH ID: D005003",
    "duplicated_cas_no": "1907660-27-8;2368833-75-2;3024623-64-8",
    "SMILES": "C[C@@]12[C@]([C@]3([C@@]([C@]4(C)C(CC3)=CC(=O)CC4)(CC1)[H])[H])(CC[C@]2(C#C)O)[H]",
    "meta_data": {
        "InChI": "InChI=1S/C21H28O2/c1-4-21(23)12-9-18-16-6-5-14-13-15(22)7-10-19(14,2)17(16)8-11-20(18,21)3/h1,13,16-18,23H,5-12H2,2-3H3/t16-,17+,18+,19+,20+,21+/m1/s1",
        "InChIKey": null,
        "Canonical SMILES": "O=C1C=C2CCC3C(CCC4(C)C3CCC4(O)C#C)C2(C)CC1",
        "Molecular Formula": "C<sub>21</sub>H<sub>28</sub>O<sub>2</sub>",
        "Molecular Mass": "312.45",
        "Melting Point": "272 °C"
    }
}