{
    "cas_no": "39562-17-9",
    "key_name": "Methyl 2-[(3-nitrophenyl)methylene]-3-oxobutanoate",
    "cn_name": "2-(3-硝基苯亚甲基)乙酰乙酸甲酯;",
    "alternate_name": "Butanoic acid, 2-[(3-nitrophenyl)methylene]-3-oxo-, methyl ester;Methyl 2-[(3-nitrophenyl)methylene]-3-oxobutanoate;Methyl 2-(3-nitrobenzylidene)acetoacetate;(3-Nitrobenzylidene)acetoacetic acid methyl ester;Methyl α-acetyl-β-(<em>m</em>-nitrophenyl)acrylate;Methyl 2-(<em>m</em>-nitrobenzylidene)acetoacetate;Methyl 3-nitrobenzylideneacetoacetate;2-(3-Nitrobenzylidene)acetoacetic acid methyl ester",
    "duplicated_cas_no": "",
    "SMILES": "C(=C(C(OC)=O)C(C)=O)C1=CC(N(=O)=O)=CC=C1",
    "meta_data": {
        "InChI": "InChI=1S/C12H11NO5/c1-8(14)11(12(15)18-2)7-9-4-3-5-10(6-9)13(16)17/h3-7H,1-2H3",
        "InChIKey": null,
        "Canonical SMILES": "O=C(OC)C(=CC1=CC=CC(=C1)N(=O)=O)C(=O)C",
        "Molecular Formula": "C<sub>12</sub>H<sub>11</sub>NO<sub>5</sub>",
        "Molecular Mass": "249.22",
        "Melting Point": "151-154 °C"
    }
}