{
    "cas_no": "9003-09-2",
    "key_name": "Poly(vinyl methyl ether)",
    "cn_name": null,
    "alternate_name": "Ethene, methoxy-, homopolymer;Ether, methyl vinyl, polymers;Ether, methyl vinyl, homopolymer;Texapret WL;Poly(methyl vinyl ether);Poly(vinyl methyl ether);Gantrez M;Methyl vinyl ether polymer;Vinyl methyl ether polymer;Gantrez M 094;Lutonal M 40;Methyl vinyl ether homopolymer;Gantrez M 093;Gantrez M 154;Gantrez M 574;Gantrez M 555;Gantrez M 155;Gantrez M 556;Lubasin S;Vinyl methyl ether homopolymer;Lutonal A 40;Lutonal M 42;PVM;PVM 30W;P 0384;Poly(methoxyethene)",
    "duplicated_cas_no": "132697-29-1;51109-47-8;56258-15-2",
    "SMILES": "C(OC)=C",
    "meta_data": {
        "InChI": "InChI=1S/C3H6O/c1-3-4-2/h3H,1H2,2H3",
        "InChIKey": null,
        "Canonical SMILES": "O(C=C)C",
        "Molecular Formula": "(C<sub>3</sub>H<sub>6</sub>O)<sub>x</sub>",
        "Molecular Mass": "",
        "Melting Point": "112-144 °C",
        "Density": "1.05 g/cm³ @ Temp: 25 °C"
    }
}