{
    "cas_no": "58816-66-3",
    "key_name": "<span class=\"text-smallcaps\">L</span>-Phenylalanine, 4-nitro-, ethyl ester, hydrochloride (1:1)",
    "cn_name": null,
    "alternate_name": "<span class=\"text-smallcaps\">L</span>-Phenylalanine, 4-nitro-, ethyl ester, hydrochloride (1:1);<span class=\"text-smallcaps\">L</span>-Phenylalanine, 4-nitro-, ethyl ester, monohydrochloride;4-Nitro-<span class=\"text-smallcaps\">L</span>-phenylalanine ethyl ester hydrochloride",
    "duplicated_cas_no": "",
    "SMILES": "C([C@@H](C(OCC)=O)N)C1=CC=C(N(=O)=O)C=C1.Cl",
    "meta_data": {
        "InChI": "InChI=1S/C11H14N2O4.ClH/c1-2-17-11(14)10(12)7-8-3-5-9(6-4-8)13(15)16;/h3-6,10H,2,7,12H2,1H3;1H/t10-;/m0./s1",
        "InChIKey": null,
        "Canonical SMILES": "Cl.O=C(OCC)C(N)CC1=CC=C(C=C1)N(=O)=O",
        "Molecular Formula": "C<sub>11</sub>H<sub>14</sub>N<sub>2</sub>O<sub>4</sub>.ClH",
        "Molecular Mass": "",
        "Melting Point": "177-180 °C"
    }
}