{
    "cas_no": "2839-37-4",
    "key_name": "1,2,5-Tribromo-3-fluorobenzene",
    "cn_name": "1-氟-2,3,5-三溴苯;",
    "alternate_name": "Benzene, 1,2,5-tribromo-3-fluoro-;1,2,5-Tribromo-3-fluorobenzene",
    "duplicated_cas_no": "",
    "SMILES": "BrC1=C(Br)C=C(Br)C=C1F",
    "meta_data": {
        "InChI": "InChI=1S/C6H2Br3F/c7-3-1-4(8)6(9)5(10)2-3/h1-2H",
        "InChIKey": null,
        "Canonical SMILES": "FC=1C=C(Br)C=C(Br)C1Br",
        "Molecular Formula": "C<sub>6</sub>H<sub>2</sub>Br<sub>3</sub>F",
        "Molecular Mass": "332.79",
        "Melting Point": "41 °C"
    }
}