{
    "cas_no": "50-22-6",
    "key_name": "Corticosterone",
    "cn_name": null,
    "alternate_name": "Pregn-4-ene-3,20-dione, 11,21-dihydroxy-, (11β)-;Corticosterone;(11β)-11,21-Dihydroxypregn-4-ene-3,20-dione;11,21-Dihydroxyprogesterone;Kendall's compound B;4-Pregnene-11β,21-diol-3,20-dione;Reichstein's substance H;17-Deoxycortisol;11β,21-Dihydroxypregn-4-ene-3,20-dione;11-Hydroxycorticoaldosterone;11β,21-Dihydroxyprogesterone;Corticosteron;NSC 9705;MeSH ID: D003345",
    "duplicated_cas_no": "67085-09-0;74339-96-1;1050677-95-6",
    "SMILES": "C[C@@]12[C@@]3([C@]([C@]4([C@](C)(C[C@@H]3O)[C@@H](C(CO)=O)CC4)[H])(CCC1=CC(=O)CC2)[H])[H]",
    "meta_data": {
        "InChI": "InChI=1S/C21H30O4/c1-20-8-7-13(23)9-12(20)3-4-14-15-5-6-16(18(25)11-22)21(15,2)10-17(24)19(14)20/h9,14-17,19,22,24H,3-8,10-11H2,1-2H3/t14-,15-,16+,17-,19+,20-,21-/m0/s1",
        "InChIKey": null,
        "Canonical SMILES": "O=C1C=C2CCC3C4CCC(C(=O)CO)C4(C)CC(O)C3C2(C)CC1",
        "Molecular Formula": "C<sub>21</sub>H<sub>30</sub>O<sub>4</sub>",
        "Molecular Mass": "346.46",
        "Melting Point": "181 °C"
    }
}