{
    "cas_no": "5978-75-6",
    "key_name": "9<em>H</em>-Fluoren-9-amine, hydrochloride (1:1)",
    "cn_name": "9-氨基芴盐酸盐;",
    "alternate_name": "9<em>H</em>-Fluoren-9-amine, hydrochloride (1:1);Fluoren-9-amine, hydrochloride;9<em>H</em>-Fluoren-9-amine, hydrochloride;9-Aminofluorene hydrochloride;9-Fluorenylamine hydrochloride",
    "duplicated_cas_no": "",
    "SMILES": "NC1C=2C(C=3C1=CC=CC3)=CC=CC2.Cl",
    "meta_data": {
        "InChI": "InChI=1S/C13H11N.ClH/c14-13-11-7-3-1-5-9(11)10-6-2-4-8-12(10)13;/h1-8,13H,14H2;1H",
        "InChIKey": null,
        "Canonical SMILES": "Cl.NC1C=2C=CC=CC2C=3C=CC=CC31",
        "Molecular Formula": "C<sub>13</sub>H<sub>11</sub>N.ClH",
        "Molecular Mass": "",
        "Melting Point": "255-257 °C (decomp)"
    }
}