{
    "cas_no": "6295-57-4",
    "key_name": "2-(2-Benzothiazolylthio)acetic acid",
    "cn_name": null,
    "alternate_name": "Acetic acid, 2-(2-benzothiazolylthio)-;Acetic acid, (2-benzothiazolylthio)-;2-(2-Benzothiazolylthio)acetic acid;<em>S</em>-2-Benzothiazolylthioglycolic acid;2-Carboxymethylthiobenzothiazole;(2-Benzothiazolylthio)acetic acid;Sanbit ABT;NSC 11891;NSC 4443;(1,3-Benzothiazol-2-ylsulfanyl)acetic acid;2-(Benzo[<em>d</em>]thiazol-2-ylthio)acetic acid;2-(1,3-Benzothiazol-2-ylsulfanyl)acetic acid",
    "duplicated_cas_no": "",
    "SMILES": "S(CC(O)=O)C1=NC=2C(S1)=CC=CC2",
    "meta_data": {
        "InChI": "InChI=1S/C9H7NO2S2/c11-8(12)5-13-9-10-6-3-1-2-4-7(6)14-9/h1-4H,5H2,(H,11,12)",
        "InChIKey": null,
        "Canonical SMILES": "O=C(O)CSC1=NC=2C=CC=CC2S1",
        "Molecular Formula": "C<sub>9</sub>H<sub>7</sub>NO<sub>2</sub>S<sub>2</sub>",
        "Molecular Mass": "225.29",
        "Melting Point": "156-157 °C"
    }
}