{
    "cas_no": "635-21-2",
    "key_name": "2-Amino-5-chlorobenzoic acid",
    "cn_name": "2-氨基-5-氯苯甲酸;",
    "alternate_name": "Benzoic acid, 2-amino-5-chloro-;Anthranilic acid, 5-chloro-;2-Amino-5-chlorobenzoic acid;5-Chloroanthranilic acid;5-Chloro-2-aminobenzoic acid;NSC 404157;2-Carboxy-4-chloroaniline",
    "duplicated_cas_no": "",
    "SMILES": "C(O)(=O)C1=C(N)C=CC(Cl)=C1",
    "meta_data": {
        "InChI": "InChI=1S/C7H6ClNO2/c8-4-1-2-6(9)5(3-4)7(10)11/h1-3H,9H2,(H,10,11)",
        "InChIKey": null,
        "Canonical SMILES": "O=C(O)C1=CC(Cl)=CC=C1N",
        "Molecular Formula": "C<sub>7</sub>H<sub>6</sub>ClNO<sub>2</sub>",
        "Molecular Mass": "171.58",
        "Melting Point": "210 °C (decomp)"
    }
}