{
    "cas_no": "356-12-7",
    "key_name": "Fluocinonide",
    "cn_name": "醋酸氟轻松;醋酸肤轻松;",
    "alternate_name": "Pregna-1,4-diene-3,20-dione, 21-(acetyloxy)-6,9-difluoro-11-hydroxy-16,17-[(1-methylethylidene)bis(oxy)]-, (6α,11β,16α)-;Pregna-1,4-diene-3,20-dione, 6α,9-difluoro-11β,16α,17,21-tetrahydroxy-, cyclic 16,17-acetal with acetone, 21-acetate;2<em>H</em>-Naphth[2′,1′:4,5]indeno[1,2-<em>d</em>][1,3]dioxole, pregna-1,4-diene-3,20-dione deriv.;(6α,11β,16α)-21-(Acetyloxy)-6,9-difluoro-11-hydroxy-16,17-[(1-methylethylidene)bis(oxy)]pregna-1,4-diene-3,20-dione;Fluocinolone acetonide acetate;Fluocinolide;Fluocinonide;Fluocinolone acetonide 21-acetate;Metosyn;Lidex E;Fluocinolide acetate;Flucinar;Topsym;Lidex;Topsymin;NSC 101791;Topsyne;Straderm;Dermaplus;Topsyn;Biscosal;Flucetonide;Vanos;MeSH ID: D005447",
    "duplicated_cas_no": "",
    "SMILES": "C(COC(C)=O)(=O)[C@]12[C@]3(C)[C@@](C[C@]1(OC(C)(C)O2)[H])([C@]4([C@](F)([C@@H](O)C3)[C@]5(C)C([C@@H](F)C4)=CC(=O)C=C5)[H])[H]",
    "meta_data": {
        "InChI": "InChI=1S/C26H32F2O7/c1-13(29)33-12-20(32)26-21(34-22(2,3)35-26)10-15-16-9-18(27)17-8-14(30)6-7-23(17,4)25(16,28)19(31)11-24(15,26)5/h6-8,15-16,18-19,21,31H,9-12H2,1-5H3/t15-,16-,18-,19-,21+,23-,24-,25-,26+/m0/s1",
        "InChIKey": null,
        "Canonical SMILES": "O=C1C=CC2(C(=C1)C(F)CC3C4CC5OC(OC5(C(=O)COC(=O)C)C4(C)CC(O)C32F)(C)C)C",
        "Molecular Formula": "C<sub>26</sub>H<sub>32</sub>F<sub>2</sub>O<sub>7</sub>",
        "Molecular Mass": "494.52",
        "Melting Point": "309 °C"
    }
}