{
    "cas_no": "10154-75-3",
    "key_name": "3-(Phenylsulfonyl)propanenitrile",
    "cn_name": "3-(苯基磺酰基)丙腈;3-(苯磺酰)丙腈;3-苯磺酰丙腈;3-(苯基磺酰基)丙腈;3-(Benzenesulphonyl)propionitrile;",
    "alternate_name": "Propanenitrile, 3-(phenylsulfonyl)-;Propionitrile, 3-(phenylsulfonyl)-;3-(Phenylsulfonyl)propanenitrile;3-(Phenylsulfonyl)propionitrile;β-(Phenylsulfonyl)propionitrile;2-Cyanoethyl phenyl sulfone;NSC 71443",
    "duplicated_cas_no": "",
    "SMILES": "S(CCC#N)(=O)(=O)C1=CC=CC=C1",
    "meta_data": {
        "InChI": "InChI=1S/C9H9NO2S/c10-7-4-8-13(11,12)9-5-2-1-3-6-9/h1-3,5-6H,4,8H2",
        "InChIKey": null,
        "Canonical SMILES": "N#CCCS(=O)(=O)C=1C=CC=CC1",
        "Molecular Formula": "C<sub>9</sub>H<sub>9</sub>NO<sub>2</sub>S",
        "Molecular Mass": "195.24",
        "Melting Point": "93-94 °C"
    }
}