{
    "cas_no": "535-32-0",
    "key_name": "<span class=\"text-smallcaps\">D</span>-Ethionine",
    "cn_name": "D(-)-乙硫氨酸;D-乙硫氨基酪酸;D-S-乙基高半胱氨酸;D-乙基硫氨酸;D-乙硫氨基丁酸;D-乙硫氨酸;乙(基)硫氨酸;",
    "alternate_name": "<span class=\"text-smallcaps\">D</span>-Homocysteine, <em>S</em>-ethyl-;Butyric acid, 2-amino-4-(ethylthio)-, <span class=\"text-smallcaps\">D</span>-;<em>S</em>-Ethyl-<span class=\"text-smallcaps\">D</span>-homocysteine;<span class=\"text-smallcaps\">D</span>-Ethionine;NSC 97927;(R)-2-Amino-4-(ethylthio)butanoic acid;(2R)-2-Amino-4-(ethylsulfanyl)butanoic acid",
    "duplicated_cas_no": "",
    "SMILES": "[C@@H](CCSCC)(C(O)=O)N",
    "meta_data": {
        "InChI": "InChI=1S/C6H13NO2S/c1-2-10-4-3-5(7)6(8)9/h5H,2-4,7H2,1H3,(H,8,9)/t5-/m1/s1",
        "InChIKey": null,
        "Canonical SMILES": "O=C(O)C(N)CCSCC",
        "Molecular Formula": "C<sub>6</sub>H<sub>13</sub>NO<sub>2</sub>S",
        "Molecular Mass": "163.24",
        "Melting Point": "278 °C (decomp)"
    }
}