{
    "cas_no": "523-92-2",
    "key_name": "Sequoyitol",
    "cn_name": null,
    "alternate_name": "<em>myo</em>-Inositol, 5-<em>O</em>-methyl-;Sequoyitol;Inositol, 5-<em>O</em>-methyl-, <em>myo</em>-;5-<em>O</em>-Methyl-<em>myo</em>-inositol;Sequoyit",
    "duplicated_cas_no": "",
    "SMILES": "O(C)[C@@H]1[C@@H](O)[C@H](O)[C@H](O)[C@H](O)[C@H]1O",
    "meta_data": {
        "InChI": "InChI=1/C7H14O6/c1-13-7-5(11)3(9)2(8)4(10)6(7)12/h2-12H,1H3/t2-,3+,4-,5-,6+,7+",
        "InChIKey": null,
        "Canonical SMILES": "OC1C(O)C(O)C(OC)C(O)C1O",
        "Molecular Formula": "C<sub>7</sub>H<sub>14</sub>O<sub>6</sub>",
        "Molecular Mass": "194.18",
        "Melting Point": "238-241 °C"
    }
}