{
    "cas_no": "3958-60-9",
    "key_name": "2-Nitrobenzyl bromide",
    "cn_name": "2-硝基苄溴;邻硝基苄溴;",
    "alternate_name": "Benzene, 1-(bromomethyl)-2-nitro-;Toluene, α-bromo-<em>o</em>-nitro-;1-(Bromomethyl)-2-nitrobenzene;<em>o</em>-Nitrobenzyl bromide;2-Nitrobenzyl bromide;α-Bromo-<em>o</em>-nitrotoluene;<em>o</em>-(Bromomethyl)nitrobenzene;NSC 95415",
    "duplicated_cas_no": "",
    "SMILES": "C(Br)C1=C(N(=O)=O)C=CC=C1",
    "meta_data": {
        "InChI": "InChI=1S/C7H6BrNO2/c8-5-6-3-1-2-4-7(6)9(10)11/h1-4H,5H2",
        "InChIKey": null,
        "Canonical SMILES": "O=N(=O)C=1C=CC=CC1CBr",
        "Molecular Formula": "C<sub>7</sub>H<sub>6</sub>BrNO<sub>2</sub>",
        "Molecular Mass": "216.03",
        "Melting Point": "42 °C"
    }
}