{
    "cas_no": "7791-12-0",
    "key_name": "Thallium monochloride",
    "cn_name": "氯化铊(I);氯化铊;氯化亚铊;氯化铊(I);一氯化铊;氯化鉈;",
    "alternate_name": "Thallium chloride (TlCl);Thallium monochloride;Thallous chloride;Thallium(I) chloride;Thallium chloride;Thallium(1+) chloride",
    "duplicated_cas_no": "1805777-09-6",
    "SMILES": "Cl[Tl]",
    "meta_data": {
        "InChI": "InChI=1S/ClH.Tl/h1H;/q;+1/p-1",
        "InChIKey": null,
        "Canonical SMILES": "Cl[Tl]",
        "Molecular Formula": "ClTl",
        "Molecular Mass": "",
        "Boiling Point": "720 °C",
        "Melting Point": "430 °C",
        "Density": "7.004 g/cm³ @ Temp: 30 °C"
    }
}