{
    "cas_no": "66-71-7",
    "key_name": "1,10-Phenanthroline",
    "cn_name": "邻二氮杂菲;邻菲罗啉;1,10-菲罗啉;",
    "alternate_name": "1,10-Phenanthroline;4,5-Diazaphenanthrene;<em>o</em>-Phenanthroline;β-Phenanthroline;1,10-<em>o</em>-Phenanthroline;Activ-8;TS 20;TS 20 (amine);NSC 203545;11,10-Phenanthroline",
    "duplicated_cas_no": "",
    "SMILES": "C12=C3C(=CC=C1C=CC=N2)C=CC=N3",
    "meta_data": {
        "InChI": "InChI=1S/C12H8N2/c1-3-9-5-6-10-4-2-8-14-12(10)11(9)13-7-1/h1-8H",
        "InChIKey": null,
        "Canonical SMILES": "N=1C=CC=C2C=CC=3C=CC=NC3C12",
        "Molecular Formula": "C<sub>12</sub>H<sub>8</sub>N<sub>2</sub>",
        "Molecular Mass": "180.21",
        "Boiling Point": "&gt;300 °C",
        "Melting Point": "117 °C"
    }
}