{
    "cas_no": "10512-93-3",
    "key_name": "<em>N</em>-[(Phenylmethoxy)carbonyl]-<span class=\"text-smallcaps\">L</span>-valine 4-nitrophenyl ester",
    "cn_name": null,
    "alternate_name": "<span class=\"text-smallcaps\">L</span>-Valine, <em>N</em>-[(phenylmethoxy)carbonyl]-, 4-nitrophenyl ester;Valine, <em>N</em>-carboxy-, <em>N</em>-benzyl <em>p</em>-nitrophenyl ester, <span class=\"text-smallcaps\">L</span>-;<em>N</em>-[(Phenylmethoxy)carbonyl]-<span class=\"text-smallcaps\">L</span>-valine 4-nitrophenyl ester;<em>N</em>-Carbobenzoxy-<span class=\"text-smallcaps\">L</span>-valine <em>p</em>-nitrophenyl ester;<em>N</em>-Benzyloxycarbonyl-<span class=\"text-smallcaps\">L</span>-valine <em>p</em>-nitrophenyl ester;Benzyloxycarbonyl-<span class=\"text-smallcaps\">L</span>-valine <em>p</em>-nitrophenyl ester;α-<em>N</em>-Benzyloxycarbonyl-<span class=\"text-smallcaps\">L</span>-valine <em>p</em>-nitrophenyl ester;<em>N</em>-α-Carbobenzoxy-<span class=\"text-smallcaps\">L</span>-valine <em>p</em>-nitrophenyl ester;<em>N</em>-Carbobenzoxyvaline <em>p</em>-nitrophenyl ester;(4-Nitrophenyl) (2S)-3-methyl-2-(phenylmethoxycarbonylamino)butanoate",
    "duplicated_cas_no": "",
    "SMILES": "O(C([C@@H](NC(OCC1=CC=CC=C1)=O)[C@@H](C)C)=O)C2=CC=C(N(=O)=O)C=C2",
    "meta_data": {
        "InChI": "InChI=1S/C19H20N2O6/c1-13(2)17(20-19(23)26-12-14-6-4-3-5-7-14)18(22)27-16-10-8-15(9-11-16)21(24)25/h3-11,13,17H,12H2,1-2H3,(H,20,23)/t17-/m0/s1",
        "InChIKey": null,
        "Canonical SMILES": "O=C(OCC=1C=CC=CC1)NC(C(=O)OC2=CC=C(C=C2)N(=O)=O)C(C)C",
        "Molecular Formula": "C<sub>19</sub>H<sub>20</sub>N<sub>2</sub>O<sub>6</sub>",
        "Molecular Mass": "372.37",
        "Melting Point": "61 °C"
    }
}