{
    "cas_no": "4265-16-1",
    "key_name": "2-Benzofurancarboxaldehyde",
    "cn_name": "苯并[b]呋喃-2-甲醛;2-苯并呋喃醛;",
    "alternate_name": "2-Benzofurancarboxaldehyde;Coumarilaldehyde;2-Formylbenzofuran;2-Benzofurancarbaldehyde;Benzo[<em>b</em>]-2-furfural;Benzo[<em>b</em>]furan-2-carboxaldehyde;Benzo[<em>b</em>]furan-2-aldehyde;1-Benzofuran-2-carbaldehyde",
    "duplicated_cas_no": "",
    "SMILES": "C(=O)C1=CC=2C(O1)=CC=CC2",
    "meta_data": {
        "InChI": "InChI=1S/C9H6O2/c10-6-8-5-7-3-1-2-4-9(7)11-8/h1-6H",
        "InChIKey": null,
        "Canonical SMILES": "O=CC=1OC=2C=CC=CC2C1",
        "Molecular Formula": "C<sub>9</sub>H<sub>6</sub>O<sub>2</sub>",
        "Molecular Mass": "146.14",
        "Boiling Point": "90-100 °C",
        "Melting Point": "9-9.5 °C"
    }
}