{
    "cas_no": "57297-29-7",
    "key_name": "Cyclopropanecarboximidamide, hydrochloride (1:1)",
    "cn_name": "环丙甲脒盐酸盐;",
    "alternate_name": "Cyclopropanecarboximidamide, hydrochloride (1:1);Cyclopropanecarboximidamide, monohydrochloride;Cyclopropanecarboxamidine hydrochloride;Cyclopropylcarbamidine hydrochloride;Cyclopropylformamidine hydrochloride;Cyclopropanecarboxamidine hydrochloride salt",
    "duplicated_cas_no": "",
    "SMILES": "C(=N)(N)C1CC1.Cl",
    "meta_data": {
        "InChI": "InChI=1S/C4H8N2.ClH/c5-4(6)3-1-2-3;/h3H,1-2H2,(H3,5,6);1H",
        "InChIKey": null,
        "Canonical SMILES": "Cl.N=C(N)C1CC1",
        "Molecular Formula": "C<sub>4</sub>H<sub>8</sub>N<sub>2</sub>.ClH",
        "Molecular Mass": "",
        "Melting Point": "55-58 °C"
    }
}