{
    "cas_no": "28027-17-0",
    "key_name": "4-Hydroxy-7-methoxy-3-quinolinecarboxylic acid",
    "cn_name": null,
    "alternate_name": "3-Quinolinecarboxylic acid, 4-hydroxy-7-methoxy-;4-Hydroxy-7-methoxy-3-quinolinecarboxylic acid;7-Methoxy-4-hydroxyquinoline-3-carboxylic acid;NSC 86135",
    "duplicated_cas_no": "",
    "SMILES": "OC=1C2=C(C=C(OC)C=C2)N=CC1C(O)=O",
    "meta_data": {
        "InChI": "InChI=1S/C11H9NO4/c1-16-6-2-3-7-9(4-6)12-5-8(10(7)13)11(14)15/h2-5H,1H3,(H,12,13)(H,14,15)",
        "InChIKey": null,
        "Canonical SMILES": "O=C(O)C1=CN=C2C=C(OC)C=CC2=C1O",
        "Molecular Formula": "C<sub>11</sub>H<sub>9</sub>NO<sub>4</sub>",
        "Molecular Mass": "219.19",
        "Melting Point": "257-260 °C"
    }
}