{
    "cas_no": "54738-73-7",
    "key_name": "3-Bromo-1,5-dihydro-4<em>H</em>-pyrazolo[3,4-<em>d</em>]pyrimidin-4-one",
    "cn_name": null,
    "alternate_name": "4<em>H</em>-Pyrazolo[3,4-<em>d</em>]pyrimidin-4-one, 3-bromo-1,5-dihydro-;3-Bromo-1,5-dihydro-4<em>H</em>-pyrazolo[3,4-<em>d</em>]pyrimidin-4-one;3-Bromo-4-hydroxypyrazolo[3,4-<em>d</em>]pyrimidine;3-Bromoallopurinol;NSC 344532;3-Bromo-1<em>H</em>-pyrazolo[3,4-<em>d</em>]pyrimidin-4(5<em>H</em>)-one;3-Bromo-1<em>H</em>,4<em>H</em>,7<em>H</em>-pyrazolo[3,4-<em>d</em>]pyrimidin-4-one;3-Bromo-1<em>H</em>-pyrazolo[3,4-<em>d</em>]pyrimidin-4-ol;3-Bromo-1<em>H</em>,2<em>H</em>,4<em>H</em>-pyrazolo[3,4-<em>d</em>]pyrimidin-4-one;3-Bromo-1<em>H</em>,4<em>H</em>,5<em>H</em>-pyrazolo[3,4-<em>d</em>]pyrimidin-4-one;3-Bromo-2<em>H</em>-pyrazolo[3,4-<em>d</em>]pyrimidin-4-ol;3-Bromo-1,2-dihydropyrazolo[3,4-<em>d</em>]pyrimidin-4-one;3-Bromo-2<em>H</em>,4<em>H</em>,5<em>H</em>-pyrazolo[3,4-<em>d</em>]pyrimidin-4-one",
    "duplicated_cas_no": "",
    "SMILES": "O=C1C2=C(NC=N1)NN=C2Br",
    "meta_data": {
        "InChI": "InChI=1S/C5H3BrN4O/c6-3-2-4(10-9-3)7-1-8-5(2)11/h1H,(H2,7,8,9,10,11)",
        "InChIKey": null,
        "Canonical SMILES": "O=C1N=CNC=2NN=C(Br)C12",
        "Molecular Formula": "C<sub>5</sub>H<sub>3</sub>BrN<sub>4</sub>O",
        "Molecular Mass": "215.01",
        "Melting Point": "&gt;300 °C"
    }
}