{
    "cas_no": "70-18-8",
    "key_name": "Glutathione",
    "cn_name": "谷胱甘肽;5-L-谷氨酰-L-半胱氨酰甘氨酸;",
    "alternate_name": "Glycine, <span class=\"text-smallcaps\">L</smallcap>-γ-glutamyl-<smallcap>L</span>-cysteinyl-;Glutathione;Glycine, <em>N</em>-(<em>N</em>-<span class=\"text-smallcaps\">L</smallcap>-γ-glutamyl-<smallcap>L</span>-cysteinyl)-;<span class=\"text-smallcaps\">L</smallcap>-γ-Glutamyl-<smallcap>L</span>-cysteinylglycine;γ-<span class=\"text-smallcaps\">L</smallcap>-Glutamyl-<smallcap>L</span>-cysteinylglycine;Glutathione-SH;GSH;<span class=\"text-smallcaps\">L</span>-Glutathione;Reduced glutathione;Triptide;Glutide;Tathion;Tathione;Copren;Deltathione;Glutathion;Glutinal;Isethion;Neuthion;Agifutol S;γ-Glutamylcysteinylglycine;<em>N</em>-(<em>N</em>-<span class=\"text-smallcaps\">L</smallcap>-γ-Glutamyl-<smallcap>L</span>-cysteinyl)glycine;Bakezyme RX;ReadiSorb;Atomolan;High Thione Extract YH 15;<em>N</em><sup>5</sup>-((<em>R</em>)-1-((Carboxymethyl)amino)-3-mercapto-1-oxopropan-2-yl)-<span class=\"text-smallcaps\">L</span>-glutamine;TAD 600;MeSH ID: D005978",
    "duplicated_cas_no": "1109226-07-4;1655518-50-5",
    "SMILES": "[C@H](C(NCC(O)=O)=O)(NC(CC[C@@H](C(O)=O)N)=O)CS",
    "meta_data": {
        "InChI": "InChI=1S/C10H17N3O6S/c11-5(10(18)19)1-2-7(14)13-6(4-20)9(17)12-3-8(15)16/h5-6,20H,1-4,11H2,(H,12,17)(H,13,14)(H,15,16)(H,18,19)/t5-,6-/m0/s1",
        "InChIKey": null,
        "Canonical SMILES": "O=C(O)CNC(=O)C(NC(=O)CCC(N)C(=O)O)CS",
        "Molecular Formula": "C<sub>10</sub>H<sub>17</sub>N<sub>3</sub>O<sub>6</sub>S",
        "Molecular Mass": "307.32",
        "Melting Point": "195 °C"
    }
}