{
    "cas_no": "56830-58-1",
    "key_name": "4(3<em>H</em>)-Pyrimidinone, 2,5-diamino-6-hydroxy-, hydrochloride (1:1)",
    "cn_name": "2,5-二氨基-4,6-二羟基嘧啶盐酸盐;",
    "alternate_name": "4(3<em>H</em>)-Pyrimidinone, 2,5-diamino-6-hydroxy-, hydrochloride (1:1);4(1<em>H</em>)-Pyrimidinone, 2,5-diamino-6-hydroxy-, monohydrochloride;2,5-Diamino-4,6-dihydroxypyrimidine hydrochloride",
    "duplicated_cas_no": "",
    "SMILES": "NC=1C(=O)NC(N)=NC1O.Cl",
    "meta_data": {
        "InChI": "InChI=1S/C4H6N4O2.ClH/c5-1-2(9)7-4(6)8-3(1)10;/h5H2,(H4,6,7,8,9,10);1H",
        "InChIKey": null,
        "Canonical SMILES": "Cl.O=C1NC(=NC(O)=C1N)N",
        "Molecular Formula": "C<sub>4</sub>H<sub>6</sub>N<sub>4</sub>O<sub>2</sub>.ClH",
        "Molecular Mass": "",
        "Melting Point": "&gt;300 °C"
    }
}