{
    "cas_no": "35661-60-0",
    "key_name": "Fmoc-leucine",
    "cn_name": "Fmoc-L-亮氨酸;芴甲氧羰基-L-亮氨酸;",
    "alternate_name": "<span class=\"text-smallcaps\">L</span>-Leucine, <em>N</em>-[(9<em>H</em>-fluoren-9-ylmethoxy)carbonyl]-;<em>N</em>-[(9<em>H</em>-Fluoren-9-ylmethoxy)carbonyl]-<span class=\"text-smallcaps\">L</span>-leucine;<em>N</em>-(9-Fluorenylmethoxycarbonyl)-<span class=\"text-smallcaps\">L</span>-leucine;<em>N</em>-(9-Fluorenylmethoxycarbonyl)leucine;NPC 15199;<em>N</em>-(Fluorenylmethoxycarbonyl)leucine;<em>N</em>-FMOC-leucine;Fmoc-leucine;NSC 334290;908: PN: WO2006135786 PAGE: 58 claimed protein;217: PN: US20070042401 PAGE: 29 claimed protein;(2<em>S</em>)-2-[[[(9<em>H</em>-Fluoren-9-yl)methoxy]carbonyl]amino]-4-methylpentanoic acid;Fmoc-<span class=\"text-smallcaps\">L</span>-Leucine;(2S)-2-[[(9<em>H</em>-Fluoren-9-ylmethoxy)carbonyl]amino]-4-methylpentanoic acid;(2S)-2-([[(9<em>H</em>-Fluoren-9-yl)methoxy]carbonyl]amino)-4-methylpentanoic acid",
    "duplicated_cas_no": "725247-22-3",
    "SMILES": "C(OC(N[C@@H](CC(C)C)C(O)=O)=O)C1C=2C(C=3C1=CC=CC3)=CC=CC2",
    "meta_data": {
        "InChI": "InChI=1S/C21H23NO4/c1-13(2)11-19(20(23)24)22-21(25)26-12-18-16-9-5-3-7-14(16)15-8-4-6-10-17(15)18/h3-10,13,18-19H,11-12H2,1-2H3,(H,22,25)(H,23,24)/t19-/m0/s1",
        "InChIKey": null,
        "Canonical SMILES": "O=C(OCC1C=2C=CC=CC2C=3C=CC=CC31)NC(C(=O)O)CC(C)C",
        "Molecular Formula": "C<sub>21</sub>H<sub>23</sub>NO<sub>4</sub>",
        "Molecular Mass": "353.41",
        "Melting Point": "144-146 °C (decomp)"
    }
}