{
    "cas_no": "37517-30-9",
    "key_name": "Acebutolol",
    "cn_name": "醋丁洛尔;N-[3-乙酰基-4-(2-羟基-3-异丙基氨基丙氧基)苯基]丁酰胺;",
    "alternate_name": "Butanamide, <em>N</em>-[3-acetyl-4-[2-hydroxy-3-[(1-methylethyl)amino]propoxy]phenyl]-;Butanamide, <em>N</em>-[3-acetyl-4-[2-hydroxy-3-[(1-methylethyl)amino]propoxy]phenyl]-, (±)-;<em>N</em>-[3-Acetyl-4-[2-hydroxy-3-[(1-methylethyl)amino]propoxy]phenyl]butanamide;Acebutolol;(±)-Acebutolol;<em>dl</em>-Acebutolol;Neptal;Prent;Monitan;(<em>RS</em>)-Acebutolol;Acecor;MeSH ID: D000070",
    "duplicated_cas_no": "28197-63-9",
    "SMILES": "O(CC(CNC(C)C)O)C1=C(C(C)=O)C=C(NC(CCC)=O)C=C1",
    "meta_data": {
        "InChI": "InChI=1S/C18H28N2O4/c1-5-6-18(23)20-14-7-8-17(16(9-14)13(4)21)24-11-15(22)10-19-12(2)3/h7-9,12,15,19,22H,5-6,10-11H2,1-4H3,(H,20,23)",
        "InChIKey": null,
        "Canonical SMILES": "O=C(NC1=CC=C(OCC(O)CNC(C)C)C(=C1)C(=O)C)CCC",
        "Molecular Formula": "C<sub>18</sub>H<sub>28</sub>N<sub>2</sub>O<sub>4</sub>",
        "Molecular Mass": "336.43",
        "Melting Point": "119-123 °C"
    }
}