{
    "cas_no": "23323-37-7",
    "key_name": "<em>N</em>-Octylglucamine",
    "cn_name": "N-正辛基-D-葡萄糖胺;葡辛胺;",
    "alternate_name": "<span class=\"text-smallcaps\">D</span>-Glucitol, 1-deoxy-1-(octylamino)-;Glucitol, 1-deoxy-1-(octylamino)-, <span class=\"text-smallcaps\">D</span>-;1-Deoxy-1-(octylamino)-<span class=\"text-smallcaps\">D</span>-glucitol;<em>N</em>-Octylglucamine;1-(Octylamino)-1-deoxy-<span class=\"text-smallcaps\">D</span>-glucitol;<em>N</em>-Octyl-1-amino-1-deoxy-<span class=\"text-smallcaps\">D</span>-glucitol;<em>N</em>-Octyl-<span class=\"text-smallcaps\">D</span>-glucamine",
    "duplicated_cas_no": "1210904-48-5;1799643-77-8",
    "SMILES": "[C@@H]([C@H](CNCCCCCCCC)O)([C@@H]([C@@H](CO)O)O)O",
    "meta_data": {
        "InChI": "InChI=1S/C14H31NO5/c1-2-3-4-5-6-7-8-15-9-11(17)13(19)14(20)12(18)10-16/h11-20H,2-10H2,1H3/t11-,12+,13+,14+/m0/s1",
        "InChIKey": null,
        "Canonical SMILES": "OCC(O)C(O)C(O)C(O)CNCCCCCCCC",
        "Molecular Formula": "C<sub>14</sub>H<sub>31</sub>NO<sub>5</sub>",
        "Molecular Mass": "293.40",
        "Melting Point": "121-123 °C"
    }
}