{
    "cas_no": "1247-42-3",
    "key_name": "Methylprednisone",
    "cn_name": "泼尼松;16-甲基泼尼松;",
    "alternate_name": "Pregna-1,4-diene-3,11,20-trione, 17,21-dihydroxy-16-methyl-, (16β)-;Pregna-1,4-diene-3,11,20-trione, 17,21-dihydroxy-16β-methyl-;(16β)-17,21-Dihydroxy-16-methylpregna-1,4-diene-3,11,20-trione;17,21-Dihydroxy-16β-methylpregna-1,4-diene-3,11,20-trione;Meprednisone;16β-Methylprednisone;Bitanisone;Deltacortene Beta;Betalone;Deltisona B;Betapred;Betapar;Betanisona;Lepicortin-Beta;Methylprednisone;Sch 4358;NSC 527579;Beta;36: PN: US20220380460 SEQID: 37 claimed sequence",
    "duplicated_cas_no": "42612-17-9",
    "SMILES": "C[C@@]12[C@]([C@]3([C@](C(=O)C1)([C@]4(C)C(CC3)=CC(=O)C=C4)[H])[H])(C[C@H](C)[C@@]2(C(CO)=O)O)[H]",
    "meta_data": {
        "InChI": "InChI=1S/C22H28O5/c1-12-8-16-15-5-4-13-9-14(24)6-7-20(13,2)19(15)17(25)10-21(16,3)22(12,27)18(26)11-23/h6-7,9,12,15-16,19,23,27H,4-5,8,10-11H2,1-3H3/t12-,15-,16-,19+,20-,21-,22-/m0/s1",
        "InChIKey": null,
        "Canonical SMILES": "O=C1C=CC2(C(=C1)CCC3C2C(=O)CC4(C)C3CC(C)C4(O)C(=O)CO)C",
        "Molecular Formula": "C<sub>22</sub>H<sub>28</sub>O<sub>5</sub>",
        "Molecular Mass": "372.45",
        "Melting Point": "202.5 °C"
    }
}