{
    "cas_no": "512-56-1",
    "key_name": "Trimethyl phosphate",
    "cn_name": "磷酸三甲酯;TMP;",
    "alternate_name": "Phosphoric acid, trimethyl ester;Methyl phosphate, (MeO)<sub>3</sub>PO;Trimethyl phosphate;Trimethoxyphosphine oxide;Trimethyl orthophosphate;TMPA;TMPO;TMP;NSC 58985",
    "duplicated_cas_no": "91316-44-8",
    "SMILES": "P(OC)(OC)(OC)=O",
    "meta_data": {
        "InChI": "InChI=1S/C3H9O4P/c1-5-8(4,6-2)7-3/h1-3H3",
        "InChIKey": null,
        "Canonical SMILES": "O=P(OC)(OC)OC",
        "Molecular Formula": "C<sub>3</sub>H<sub>9</sub>O<sub>4</sub>P",
        "Molecular Mass": "140.07",
        "Boiling Point": "85 °C @ Press: 26 Torr",
        "Melting Point": "-46 °C",
        "Density": "1.2144 g/cm³ @ Temp: 20 °C"
    }
}