{
    "cas_no": "110-31-6",
    "key_name": "Ethylenebis(oleamide)",
    "cn_name": "亚乙基二油酰胺;N,N\"-亚乙基双乙基双油酰胺;(Z,Z)-N,N\"-1,2-乙二亚基双-9-十八烯酰胺;",
    "alternate_name": "9-Octadecenamide, <em>N</em>,<em>N</em>′-1,2-ethanediylbis-, (9<em>Z</em>,9′<em>Z</em>)-;Oleamide, <em>N</em>,<em>N</em>′-ethylenebis-;9-Octadecenamide, <em>N</em>,<em>N</em>′-1,2-ethanediylbis-, (<em>Z</em>,<em>Z</em>)-;(9<em>Z</em>,9′<em>Z</em>)-<em>N</em>,<em>N</em>′-1,2-Ethanediylbis[9-octadecenamide];<em>N</em>,<em>N</em>′-Dioleoylethylenediamine;<em>N</em>,<em>N</em>′-Ethylenedioleamide;<em>N</em>,<em>N</em>′-Ethylenebis[oleamide];Ethylenebis(oleamide);Ethylene bisoleylamide;Kemamide W 20;Slipacks O;<em>N</em>,<em>N</em>′-Ethylenebis(oleic amide);<em>N</em>,<em>N</em>′-Ethylenebisoleylamide;Glycolube VL;Crodamide EBO;Alflow AD 281;AD 281;Itohwax J 500;Alflow AD 281F;Ethylenebis[oleic acid amide];Ethylenebisoleoylamide;Finawax VL;Alflow AD 281P;WK 1766;Slipax O",
    "duplicated_cas_no": "17832-29-0;19370-84-4;89592-29-0;154853-77-7;2756454-99-4",
    "SMILES": "N(CCNC(CCCCCCC/C=C\\CCCCCCCC)=O)C(CCCCCCC/C=C\\CCCCCCCC)=O",
    "meta_data": {
        "InChI": "InChI=1S/C38H72N2O2/c1-3-5-7-9-11-13-15-17-19-21-23-25-27-29-31-33-37(41)39-35-36-40-38(42)34-32-30-28-26-24-22-20-18-16-14-12-10-8-6-4-2/h17-20H,3-16,21-36H2,1-2H3,(H,39,41)(H,40,42)/b19-17-,20-18-",
        "InChIKey": null,
        "Canonical SMILES": "O=C(NCCNC(=O)CCCCCCCC=CCCCCCCCC)CCCCCCCC=CCCCCCCCC",
        "Molecular Formula": "C<sub>38</sub>H<sub>72</sub>N<sub>2</sub>O<sub>2</sub>",
        "Molecular Mass": "588.99",
        "Melting Point": "117-118 °C"
    }
}