{
    "cas_no": "3222-50-2",
    "key_name": "4-Methylnicotinic acid",
    "cn_name": "4-甲基烟酸;4-甲基吡啶-3-羧酸;",
    "alternate_name": "3-Pyridinecarboxylic acid, 4-methyl-;Nicotinic acid, 4-methyl-;4-Methyl-3-pyridinecarboxylic acid;Homonicotinic acid;4-Picoline-3-carboxylic acid;4-Methylnicotinic acid;NSC 22592",
    "duplicated_cas_no": "",
    "SMILES": "C(O)(=O)C=1C(C)=CC=NC1",
    "meta_data": {
        "InChI": "InChI=1S/C7H7NO2/c1-5-2-3-8-4-6(5)7(9)10/h2-4H,1H3,(H,9,10)",
        "InChIKey": null,
        "Canonical SMILES": "O=C(O)C=1C=NC=CC1C",
        "Molecular Formula": "C<sub>7</sub>H<sub>7</sub>NO<sub>2</sub>",
        "Molecular Mass": "137.14",
        "Melting Point": "215-216 °C"
    }
}