{
    "cas_no": "3780-50-5",
    "key_name": "4-(Octyloxy)phenol",
    "cn_name": null,
    "alternate_name": "Phenol, 4-(octyloxy)-;Phenol, <em>p</em>-(octyloxy)-;4-(Octyloxy)phenol;Hydroquinone octyl ether;<em>p</em>-(Octyloxy)phenol;4-(<em>n</em>-Octyloxy)phenol",
    "duplicated_cas_no": "",
    "SMILES": "O(CCCCCCCC)C1=CC=C(O)C=C1",
    "meta_data": {
        "InChI": "InChI=1S/C14H22O2/c1-2-3-4-5-6-7-12-16-14-10-8-13(15)9-11-14/h8-11,15H,2-7,12H2,1H3",
        "InChIKey": null,
        "Canonical SMILES": "OC1=CC=C(OCCCCCCCC)C=C1",
        "Molecular Formula": "C<sub>14</sub>H<sub>22</sub>O<sub>2</sub>",
        "Molecular Mass": "222.32",
        "Boiling Point": "127-128 °C @ Press: 3 Torr",
        "Melting Point": "60-61 °C"
    }
}