{
    "cas_no": "2695-37-6",
    "key_name": "Sodium 4-styrenesulfonate",
    "cn_name": "对苯乙烯磺酸钠;",
    "alternate_name": "Benzenesulfonic acid, 4-ethenyl-, sodium salt (1:1);Benzenesulfonic acid, <em>p</em>-vinyl-, sodium salt;Benzenesulfonic acid, 4-ethenyl-, sodium salt;Sodium <em>p</em>-styrenesulfonate;Sodium 4-vinylbenzenesulfonate;Sodium 4-styrenesulfonate;Spinomar NaSS;Styrene-4-sulfonic acid sodium salt;Sodium <em>p</em>-vinylbenzenesulfonate;UNASS;<em>p</em>-Vinylphenylsulfonic acid sodium salt;MS 88;<em>p</em>-Vinylbenzene sulfonic sodium salt;<em>p</em>-Styrenesulfonic acid sodium salt;Sodium (4-vinylphenyl)sulfonate",
    "duplicated_cas_no": "79394-65-3;143201-62-1;1394847-92-7;1622331-29-6",
    "SMILES": "S(=O)(=O)(O)C1=CC=C(C=C)C=C1.[Na]",
    "meta_data": {
        "InChI": "InChI=1S/C8H8O3S.Na/c1-2-7-3-5-8(6-4-7)12(9,10)11;/h2-6H,1H2,(H,9,10,11);",
        "InChIKey": null,
        "Canonical SMILES": "[Na].O=S(=O)(O)C1=CC=C(C=C)C=C1",
        "Molecular Formula": "C<sub>8</sub>H<sub>8</sub>O<sub>3</sub>S.Na",
        "Molecular Mass": "",
        "Melting Point": "300 °C"
    }
}