{
    "cas_no": "607-67-0",
    "key_name": "4-Hydroxy-2-methylquinoline",
    "cn_name": "4-羟基-2-甲基喹啉;",
    "alternate_name": "4-Quinolinol, 2-methyl-;2-Methyl-4-quinolinol;4-Hydroxyquinaldine;4-Hydroxy-2-methylquinoline;NSC 21483;2-Methyl-4-hydroxyquinoline",
    "duplicated_cas_no": "",
    "SMILES": "OC=1C2=C(N=C(C)C1)C=CC=C2",
    "meta_data": {
        "InChI": "InChI=1S/C10H9NO/c1-7-6-10(12)8-4-2-3-5-9(8)11-7/h2-6H,1H3,(H,11,12)",
        "InChIKey": null,
        "Canonical SMILES": "OC1=CC(=NC=2C=CC=CC12)C",
        "Molecular Formula": "C<sub>10</sub>H<sub>9</sub>NO",
        "Molecular Mass": "159.18",
        "Boiling Point": "152-153 °C @ Press: 1.2 Torr",
        "Melting Point": "234 °C"
    }
}