{
    "cas_no": "22427-39-0",
    "key_name": "Ginsenoside Rg<sub>1</sub>",
    "cn_name": "人参皂苷Rg1;人参皂甙Rg1;",
    "alternate_name": "β-<span class=\"text-smallcaps\">D</span>-Glucopyranoside, (3β,6α,12β)-3,12-dihydroxydammar-24-ene-6,20-diyl bis-;Ginsenoside Rg<sub>1</sub>;Panaxoside A;Dammarane, β-<span class=\"text-smallcaps\">D</span>-glucopyranoside deriv.;(3β,6α,12β)-3,12-Dihydroxydammar-24-ene-6,20-diyl bis-β-<span class=\"text-smallcaps\">D</span>-glucopyranoside;Sanchinoside C<sub>1</sub>;Ginsenoside A<sub>2</sub>;Panaxoside Rg<sub>1</sub>;Ginsenoside g<sub>1</sub>;Sanchinoside Rg<sub>1</sub>;Panaxsaponin Rg1;Rg<sub>1</sub> ginsenoside;Rg1 ginsenoside",
    "duplicated_cas_no": "11054-31-2;50647-03-5;75139-45-6;252337-86-3;2416257-84-4",
    "SMILES": "C[C@]12[C@@]([C@]3(C)[C@@]([C@@H](O[C@@H]4O[C@H](CO)[C@@H](O)[C@H](O)[C@H]4O)C1)(C(C)(C)[C@@H](O)CC3)[H])(C[C@@H](O)[C@]5([C@@]2(C)CC[C@@]5([C@@](O[C@@H]6O[C@H](CO)[C@@H](O)[C@H](O)[C@H]6O)(CCC=C(C)C)C)[H])[H])[H]",
    "meta_data": {
        "InChI": "InChI=1S/C42H72O14/c1-20(2)10-9-13-42(8,56-37-34(52)32(50)30(48)25(19-44)55-37)21-11-15-40(6)28(21)22(45)16-26-39(5)14-12-27(46)38(3,4)35(39)23(17-41(26,40)7)53-36-33(51)31(49)29(47)24(18-43)54-36/h10,21-37,43-52H,9,11-19H2,1-8H3/t21-,22+,23-,24+,25+,26+,27-,28-,29+,30+,31-,32-,33+,34+,35-,36+,37-,39+,40+,41+,42-/m0/s1",
        "InChIKey": null,
        "Canonical SMILES": "OCC1OC(OC2CC3(C)C(CC(O)C4C(CCC43C)C(OC5OC(CO)C(O)C(O)C5O)(C)CCC=C(C)C)C6(C)CCC(O)C(C)(C)C26)C(O)C(O)C1O",
        "Molecular Formula": "C<sub>42</sub>H<sub>72</sub>O<sub>14</sub>",
        "Molecular Mass": "801.01",
        "Melting Point": "191-194 °C"
    }
}