{
    "cas_no": "66817-59-2",
    "key_name": "3,5-Bis[(dimethylsilyl)oxy]-1,1,7,7-tetramethyl-3,5-diphenyltetrasiloxane",
    "cn_name": null,
    "alternate_name": "Tetrasiloxane, 3,5-bis[(dimethylsilyl)oxy]-1,1,7,7-tetramethyl-3,5-diphenyl-;3,5-Bis[(dimethylsilyl)oxy]-1,1,7,7-tetramethyl-3,5-diphenyltetrasiloxane;D 6170;PS 129.8 (siloxane);PS 129.8;1,3-Diphenyltetrakis(dimethylsiloxy)disiloxane;3,5-Bis[(dimethylsilyl)oxy]-1,1,7,7-tetramethyl-3,5-diphenyl-tetrasiloxane;[Bis(dimethylsilyloxy)-phenylsilyl]oxy-bis(dimethylsilyloxy)-phenylsilane",
    "duplicated_cas_no": "1666105-46-9",
    "SMILES": "[Si](O[Si](O[SiH](C)C)(O[SiH](C)C)C1=CC=CC=C1)(O[SiH](C)C)(O[SiH](C)C)C2=CC=CC=C2",
    "meta_data": {
        "InChI": "InChI=1S/C20H38O5Si6/c1-26(2)21-30(22-27(3)4,19-15-11-9-12-16-19)25-31(23-28(5)6,24-29(7)8)20-17-13-10-14-18-20/h9-18,26-29H,1-8H3",
        "InChIKey": null,
        "Canonical SMILES": "O([SiH](C)C)[Si](O[SiH](C)C)(O[Si](O[SiH](C)C)(O[SiH](C)C)C=1C=CC=CC1)C=2C=CC=CC2",
        "Molecular Formula": "C<sub>20</sub>H<sub>38</sub>O<sub>5</sub>Si<sub>6</sub>",
        "Molecular Mass": "527.03",
        "Boiling Point": "95-96 °C @ Press: 0.25 Torr"
    }
}