{
    "cas_no": "19982-07-1",
    "key_name": "1-Acetamido-3,5-dimethyladamantane",
    "cn_name": "1-乙酰氨基-3,5-二甲基金刚烷;",
    "alternate_name": "Acetamide, <em>N</em>-(3,5-dimethyltricyclo[3.3.1.1<sup>3,7</sup>]dec-1-yl)-;Acetamide, <em>N</em>-(3,5-dimethyl-1-adamantyl)-;<em>N</em>-(3,5-Dimethyltricyclo[3.3.1.1<sup>3,7</sup>]dec-1-yl)acetamide;1-Acetamido-3,5-dimethyladamantane;1-Acetylamino-3,5-dimethyladamantane;<em>N</em>-Acetylmemantine",
    "duplicated_cas_no": "",
    "SMILES": "N(C(C)=O)C12CC3(C)CC(C)(C1)CC(C2)C3",
    "meta_data": {
        "InChI": "InChI=1S/C14H23NO/c1-10(16)15-14-6-11-4-12(2,8-14)7-13(3,5-11)9-14/h11H,4-9H2,1-3H3,(H,15,16)",
        "InChIKey": null,
        "Canonical SMILES": "O=C(NC12CC3CC(C)(C1)CC(C)(C3)C2)C",
        "Molecular Formula": "C<sub>14</sub>H<sub>23</sub>NO",
        "Molecular Mass": "221.34",
        "Melting Point": "80-82 °C (sublm)"
    }
}