{
    "cas_no": "22232-71-9",
    "key_name": "Mazindol",
    "cn_name": "马吲哚;美新达;5-(4-氯苯基)-2,3-二氢-5-羟基-5H-咪唑并[2,1-a]异吲哚;",
    "alternate_name": "3<em>H</em>-Imidazo[2,1-<em>a</em>]isoindol-5-ol, 5-(4-chlorophenyl)-2,5-dihydro-;3<em>H</em>-Imidazo[2,1-<em>a</em>]isoindol-5-ol, 5-(<em>p</em>-chlorophenyl)-2,5-dihydro-;5-(4-Chlorophenyl)-2,5-dihydro-3<em>H</em>-imidazo[2,1-<em>a</em>]isoindol-5-ol;5-Hydroxy-5-<em>p</em>-chlorophenyl-2,3-dihydro-5<em>H</em>-imidazo[2,1-<em>a</em>]isoindole;Mazindol;5-(<em>p</em>-Chlorophenyl)-5-hydroxy-2,3-dihydro-5<em>H</em>-imidazo[2,1-<em>a</em>]isoindole;5-(<em>p</em>-Chlorophenyl)-2,5-dihydro-3<em>H</em>-imidazo[2,1-<em>a</em>]isoindol-5-ol;5-(4-Chlorophenyl)-2,3-dihydro-5-hydroxy-5<em>H</em>-imidazo[2,1-<em>a</em>]isoindole;SaH 42548;Sanorex;5-(<em>p</em>-Chlorophenyl)-2,3-dihydro-5<em>H</em>-imidazo[2,1-<em>a</em>]isoindol-5-ol;AN 448;Teronac;Mazildene;Magrilon;Mazanor;Terenac;MeSH ID: D008454",
    "duplicated_cas_no": "",
    "SMILES": "OC1(N2C(C=3C1=CC=CC3)=NCC2)C4=CC=C(Cl)C=C4",
    "meta_data": {
        "InChI": "InChI=1S/C16H13ClN2O/c17-12-7-5-11(6-8-12)16(20)14-4-2-1-3-13(14)15-18-9-10-19(15)16/h1-8,20H,9-10H2",
        "InChIKey": null,
        "Canonical SMILES": "ClC1=CC=C(C=C1)C2(O)C=3C=CC=CC3C4=NCCN42",
        "Molecular Formula": "C<sub>16</sub>H<sub>13</sub>ClN<sub>2</sub>O",
        "Molecular Mass": "284.74",
        "Melting Point": "198-199 °C"
    }
}