{
    "cas_no": "120-22-9",
    "key_name": "<em>N</em>,<em>N</em>-Diethyl-4-nitrosoaniline",
    "cn_name": null,
    "alternate_name": "Benzenamine, <em>N</em>,<em>N</em>-diethyl-4-nitroso-;Aniline, <em>N</em>,<em>N</em>-diethyl-<em>p</em>-nitroso-;<em>N</em>,<em>N</em>-Diethyl-4-nitrosobenzenamine;<em>p</em>-Nitrosodiethylaniline;<em>p</em>-Nitroso-<em>N</em>,<em>N</em>-diethylaniline;<em>N</em>,<em>N</em>-Diethyl-<em>p</em>-nitrosoaniline;<em>N</em>,<em>N</em>-Diethyl-4-nitrosoaniline;4-(Diethylamino)nitrosobenzene;4-Nitroso-<em>N</em>,<em>N</em>-diethylaniline;4-(<em>N</em>,<em>N</em>-Diethylamino)nitrosobenzene;4-Nitroso-<em>N</em>,<em>N</em>-diethylaminobenzene;<em>p</em>-(Diethylamino)nitrosobenzene;1-(Diethylamino)-4-nitrosobenzene;NSC 5418",
    "duplicated_cas_no": "",
    "SMILES": "N(CC)(CC)C1=CC=C(N=O)C=C1",
    "meta_data": {
        "InChI": "InChI=1S/C10H14N2O/c1-3-12(4-2)10-7-5-9(11-13)6-8-10/h5-8H,3-4H2,1-2H3",
        "InChIKey": null,
        "Canonical SMILES": "O=NC1=CC=C(C=C1)N(CC)CC",
        "Molecular Formula": "C<sub>10</sub>H<sub>14</sub>N<sub>2</sub>O",
        "Molecular Mass": "178.23",
        "Melting Point": "87.5 °C"
    }
}