{
    "cas_no": "2683-56-9",
    "key_name": "4-(Diethylamino)-1-butanol",
    "cn_name": null,
    "alternate_name": "1-Butanol, 4-(diethylamino)-;4-(Diethylamino)-1-butanol;4-(Diethylamino)butanol;NSC 16254;2-(2-Diethylaminoethyl)ethanol",
    "duplicated_cas_no": "",
    "SMILES": "N(CCCCO)(CC)CC",
    "meta_data": {
        "InChI": "InChI=1S/C8H19NO/c1-3-9(4-2)7-5-6-8-10/h10H,3-8H2,1-2H3",
        "InChIKey": null,
        "Canonical SMILES": "OCCCCN(CC)CC",
        "Molecular Formula": "C<sub>8</sub>H<sub>19</sub>NO",
        "Molecular Mass": "145.24",
        "Boiling Point": "92-97 °C @ Press: 11 Torr",
        "Density": "0.9103 g/cm³ @ Temp: 14 °C"
    }
}