{
    "cas_no": "611-33-6",
    "key_name": "8-Chloroquinoline",
    "cn_name": "8-氯喹啉;",
    "alternate_name": "Quinoline, 8-chloro-;8-Chloroquinoline;NSC 56815",
    "duplicated_cas_no": "",
    "SMILES": "ClC=1C2=C(C=CC1)C=CC=N2",
    "meta_data": {
        "InChI": "InChI=1S/C9H6ClN/c10-8-5-1-3-7-4-2-6-11-9(7)8/h1-6H",
        "InChIKey": null,
        "Canonical SMILES": "ClC=1C=CC=C2C=CC=NC12",
        "Molecular Formula": "C<sub>9</sub>H<sub>6</sub>ClN",
        "Molecular Mass": "163.60",
        "Boiling Point": "288.5 °C",
        "Melting Point": "-20 °C"
    }
}