{
    "cas_no": "653-34-9",
    "key_name": "Pentafluorostyrene",
    "cn_name": null,
    "alternate_name": "Benzene, 1-ethenyl-2,3,4,5,6-pentafluoro-;Styrene, 2,3,4,5,6-pentafluoro-;Benzene, ethenylpentafluoro-;1-Ethenyl-2,3,4,5,6-pentafluorobenzene;2,3,4,5,6-Pentafluorostyrene;<em>ar</em>-Pentafluorostyrene;Vinylpentafluorobenzene;(Perfluorophenyl)ethylene;Pentafluoro(vinyl)benzene;Ethenylpentafluorobenzene;(Pentafluorophenyl)ethene;Pentafluorostyrene;NSC 97009;1,2,3,4,5-Pentafluoro-6-vinylbenzene;P 0862",
    "duplicated_cas_no": "",
    "SMILES": "C(=C)C1=C(F)C(F)=C(F)C(F)=C1F",
    "meta_data": {
        "InChI": "InChI=1S/C8H3F5/c1-2-3-4(9)6(11)8(13)7(12)5(3)10/h2H,1H2",
        "InChIKey": null,
        "Canonical SMILES": "FC=1C(F)=C(F)C(C=C)=C(F)C1F",
        "Molecular Formula": "C<sub>8</sub>H<sub>3</sub>F<sub>5</sub>",
        "Molecular Mass": "194.10",
        "Boiling Point": "140-141 °C"
    }
}