{
    "cas_no": "13013-02-0",
    "key_name": "Methyl 4-nitrobutyrate",
    "cn_name": "4-硝基丁酸甲酯;",
    "alternate_name": "Butanoic acid, 4-nitro-, methyl ester;Butyric acid, 4-nitro-, methyl ester;Methyl 4-nitrobutyrate;4-Nitrobutyric acid methyl ester;Methyl 4-nitrobutanoate;NSC 126459;4-Nitrobutanoic acid methyl ester",
    "duplicated_cas_no": "",
    "SMILES": "C(CCCN(=O)=O)(OC)=O",
    "meta_data": {
        "InChI": "InChI=1S/C5H9NO4/c1-10-5(7)3-2-4-6(8)9/h2-4H2,1H3",
        "InChIKey": null,
        "Canonical SMILES": "O=C(OC)CCCN(=O)=O",
        "Molecular Formula": "C<sub>5</sub>H<sub>9</sub>NO<sub>4</sub>",
        "Molecular Mass": "147.13",
        "Boiling Point": "109 °C @ Press: 9 Torr"
    }
}