{
    "cas_no": "22353-34-0",
    "key_name": "5-Chloro-3-pyridinamine",
    "cn_name": "3-氨基-5-氯吡啶;",
    "alternate_name": "3-Pyridinamine, 5-chloro-;Pyridine, 3-amino-5-chloro-;5-Chloro-3-pyridinamine;3-Amino-5-chloropyridine;(5-Chloropyridin-3-yl)amine;3-Chloro-5-aminopyridine",
    "duplicated_cas_no": "",
    "SMILES": "ClC=1C=C(N)C=NC1",
    "meta_data": {
        "InChI": "InChI=1S/C5H5ClN2/c6-4-1-5(7)3-8-2-4/h1-3H,7H2",
        "InChIKey": null,
        "Canonical SMILES": "ClC1=CN=CC(N)=C1",
        "Molecular Formula": "C<sub>5</sub>H<sub>5</sub>ClN<sub>2</sub>",
        "Molecular Mass": "128.56",
        "Melting Point": "82 °C"
    }
}