{
    "cas_no": "4487-51-8",
    "key_name": "4-Nitro-2(1<em>H</em>)-pyridinone",
    "cn_name": "2-羟基-4-硝基吡啶;",
    "alternate_name": "2(1<em>H</em>)-Pyridinone, 4-nitro-;2-Pyridinol, 4-nitro-;4-Nitro-2(1<em>H</em>)-pyridinone;4-Nitropyrid-2-one;2-Hydroxy-4-nitropyridine",
    "duplicated_cas_no": "",
    "SMILES": "N(=O)(=O)C1=CC(=O)NC=C1",
    "meta_data": {
        "InChI": "InChI=1S/C5H4N2O3/c8-5-3-4(7(9)10)1-2-6-5/h1-3H,(H,6,8)",
        "InChIKey": null,
        "Canonical SMILES": "O=C1C=C(C=CN1)N(=O)=O",
        "Molecular Formula": "C<sub>5</sub>H<sub>4</sub>N<sub>2</sub>O<sub>3</sub>",
        "Molecular Mass": "140.10",
        "Melting Point": "242 °C (decomp)"
    }
}