{
    "cas_no": "5471-90-9",
    "key_name": "<em>N</em>-(4-Hydroxyphenyl)benzenesulfonamide",
    "cn_name": null,
    "alternate_name": "Benzenesulfonamide, <em>N</em>-(4-hydroxyphenyl)-;Benzenesulfonanilide, 4′-hydroxy-;<em>N</em>-(4-Hydroxyphenyl)benzenesulfonamide;<em>p</em>-Benzenesulfonamido phenol;4-Benzenesulfonamido phenol;NSC 28472",
    "duplicated_cas_no": "1331285-21-2",
    "SMILES": "S(NC1=CC=C(O)C=C1)(=O)(=O)C2=CC=CC=C2",
    "meta_data": {
        "InChI": "InChI=1S/C12H11NO3S/c14-11-8-6-10(7-9-11)13-17(15,16)12-4-2-1-3-5-12/h1-9,13-14H",
        "InChIKey": null,
        "Canonical SMILES": "O=S(=O)(NC1=CC=C(O)C=C1)C=2C=CC=CC2",
        "Molecular Formula": "C<sub>12</sub>H<sub>11</sub>NO<sub>3</sub>S",
        "Molecular Mass": "249.29",
        "Melting Point": "156 °C"
    }
}