{
    "cas_no": "60781-83-1",
    "key_name": "4-Phenyl-2-pyridinamine",
    "cn_name": null,
    "alternate_name": "2-Pyridinamine, 4-phenyl-;Pyridine, 2-amino-4-phenyl-;4-Phenyl-2-pyridinamine;(4-Phenylpyridin-2-yl)amine;4-Phenylpyridin-2-amine;2-Amino-4-phenylpyridine",
    "duplicated_cas_no": "",
    "SMILES": "NC1=CC(=CC=N1)C2=CC=CC=C2",
    "meta_data": {
        "InChI": "InChI=1S/C11H10N2/c12-11-8-10(6-7-13-11)9-4-2-1-3-5-9/h1-8H,(H2,12,13)",
        "InChIKey": null,
        "Canonical SMILES": "N=1C=CC(=CC1N)C=2C=CC=CC2",
        "Molecular Formula": "C<sub>11</sub>H<sub>10</sub>N<sub>2</sub>",
        "Molecular Mass": "170.21",
        "Melting Point": "164-165 °C"
    }
}