{
    "cas_no": "716-76-7",
    "key_name": "[1,1′-Biphenyl]-3-carboxylic acid",
    "cn_name": "3-苯基苯甲酸;联苯-3-羧酸;",
    "alternate_name": "[1,1′-Biphenyl]-3-carboxylic acid;3-Biphenylcarboxylic acid;Benzoic acid, <em>m</em>-phenyl-;3-Phenylbenzoic acid;<em>m</em>-Phenylbenzoic acid;NSC 178898;NSC 408030;1-Carboxy-3-phenylbenzene",
    "duplicated_cas_no": "",
    "SMILES": "C(O)(=O)C=1C=C(C=CC1)C2=CC=CC=C2",
    "meta_data": {
        "InChI": "InChI=1S/C13H10O2/c14-13(15)12-8-4-7-11(9-12)10-5-2-1-3-6-10/h1-9H,(H,14,15)",
        "InChIKey": null,
        "Canonical SMILES": "O=C(O)C1=CC=CC(=C1)C=2C=CC=CC2",
        "Molecular Formula": "C<sub>13</sub>H<sub>10</sub>O<sub>2</sub>",
        "Molecular Mass": "198.22",
        "Boiling Point": "107 °C @ Press: 2 Torr",
        "Melting Point": "161 °C"
    }
}