{
    "cas_no": "611-08-5",
    "key_name": "5-Nitro-2,4(1<em>H</em>,3<em>H</em>)-pyrimidinedione",
    "cn_name": "5-硝基尿嘧啶;",
    "alternate_name": "2,4(1<em>H</em>,3<em>H</em>)-Pyrimidinedione, 5-nitro-;Uracil, 5-nitro-;5-Nitro-2,4(1<em>H</em>,3<em>H</em>)-pyrimidinedione;5-Nitrouracil;5-Nitro-2,4-dihydroxypyrimidine;NSC 9790;5-Nitropyrimidine-2,4-diol;5-Nitropyrimidine-2,4(1<em>H</em>,3<em>H</em>)-dione;1,2,3,6-Tetrahydro-5-nitro-2,6-dioxopyrimidine;5-Nitropyrimidine-2,4-dione",
    "duplicated_cas_no": "",
    "SMILES": "N(=O)(=O)C=1C(=O)NC(=O)NC1",
    "meta_data": {
        "InChI": "InChI=1S/C4H3N3O4/c8-3-2(7(10)11)1-5-4(9)6-3/h1H,(H2,5,6,8,9)",
        "InChIKey": null,
        "Canonical SMILES": "O=C1NC=C(C(=O)N1)N(=O)=O",
        "Molecular Formula": "C<sub>4</sub>H<sub>3</sub>N<sub>3</sub>O<sub>4</sub>",
        "Molecular Mass": "157.08",
        "Melting Point": "280-285 °C"
    }
}