{
    "cas_no": "7651-83-4",
    "key_name": "7-Isoquinolinol",
    "cn_name": null,
    "alternate_name": "7-Isoquinolinol;7-Hydroxyisoquinoline",
    "duplicated_cas_no": "",
    "SMILES": "OC1=CC2=C(C=C1)C=CN=C2",
    "meta_data": {
        "InChI": "InChI=1S/C9H7NO/c11-9-2-1-7-3-4-10-6-8(7)5-9/h1-6,11H",
        "InChIKey": null,
        "Canonical SMILES": "OC=1C=CC=2C=CN=CC2C1",
        "Molecular Formula": "C<sub>9</sub>H<sub>7</sub>NO",
        "Molecular Mass": "145.16",
        "Melting Point": "228-230 °C"
    }
}