{
    "cas_no": "20636-41-3",
    "key_name": "5-Hydroxy-2,4(1<em>H</em>,3<em>H</em>)-pyrimidinedione",
    "cn_name": "5-羟基尿嘧啶;",
    "alternate_name": "2,4(1<em>H</em>,3<em>H</em>)-Pyrimidinedione, 5-hydroxy-;5-Hydroxy-2,4(1<em>H</em>,3<em>H</em>)-pyrimidinedione;NSC 90431;2,4,5-Trihydroxypyrimidine",
    "duplicated_cas_no": "4628-37-9;27870-29-7",
    "SMILES": "O=C1C(O)=CNC(=O)N1",
    "meta_data": {
        "InChI": "InChI=1S/C4H4N2O3/c7-2-1-5-4(9)6-3(2)8/h1,7H,(H2,5,6,8,9)",
        "InChIKey": null,
        "Canonical SMILES": "O=C1NC=C(O)C(=O)N1",
        "Molecular Formula": "C<sub>4</sub>H<sub>4</sub>N<sub>2</sub>O<sub>3</sub>",
        "Molecular Mass": "128.09",
        "Melting Point": "310 °C (decomp)"
    }
}