{
    "cas_no": "89392-03-0",
    "key_name": "Carbamic acid, <em>N</em>-(4,6-dimethoxy-2-pyrimidinyl)-, phenyl ester",
    "cn_name": "4,6-二甲氧基-2-(苯氧基羰基)氨基嘧啶;",
    "alternate_name": "Carbamic acid, <em>N</em>-(4,6-dimethoxy-2-pyrimidinyl)-, phenyl ester;Carbamic acid, (4,6-dimethoxy-2-pyrimidinyl)-, phenyl ester;Phenyl <em>N</em>-(4,6-dimethoxypyrimidin-2-yl)carbamate;Phenyl (4,6-dimethoxy-2-pyrimidinyl)carbamate;4,6-Dimethoxy-2-(phenoxycarbonylamino)pyrimidine;2-Phenoxycarbonylamino-4,6-dimethoxypyrimidine;<em>N</em>-(4,6-Dimethoxypyrimidin-2-yl)carbamic acid phenyl ester;(4,6-Dimethoxy-pyrimidin-2-yl)-carbamic acid phenyl ester",
    "duplicated_cas_no": "107883-73-8;130663-90-0;2883493-22-7",
    "SMILES": "N(C(OC1=CC=CC=C1)=O)C=2N=C(OC)C=C(OC)N2",
    "meta_data": {
        "InChI": "InChI=1S/C13H13N3O4/c1-18-10-8-11(19-2)15-12(14-10)16-13(17)20-9-6-4-3-5-7-9/h3-8H,1-2H3,(H,14,15,16,17)",
        "InChIKey": null,
        "Canonical SMILES": "O=C(OC=1C=CC=CC1)NC2=NC(OC)=CC(=N2)OC",
        "Molecular Formula": "C<sub>13</sub>H<sub>13</sub>N<sub>3</sub>O<sub>4</sub>",
        "Molecular Mass": "275.26",
        "Melting Point": "119 °C"
    }
}