{
    "cas_no": "6647-98-9",
    "key_name": "4-Iodo-1-methyl-1<em>H</em>-pyrazole-3-carboxylic acid",
    "cn_name": null,
    "alternate_name": "1<em>H</em>-Pyrazole-3-carboxylic acid, 4-iodo-1-methyl-;Pyrazole-3-carboxylic acid, 4-iodo-1-methyl-;4-Iodo-1-methyl-1<em>H</em>-pyrazole-3-carboxylic acid",
    "duplicated_cas_no": "",
    "SMILES": "C(O)(=O)C1=NN(C)C=C1I",
    "meta_data": {
        "InChI": "InChI=1S/C5H5IN2O2/c1-8-2-3(6)4(7-8)5(9)10/h2H,1H3,(H,9,10)",
        "InChIKey": null,
        "Canonical SMILES": "O=C(O)C1=NN(C=C1I)C",
        "Molecular Formula": "C<sub>5</sub>H<sub>5</sub>IN<sub>2</sub>O<sub>2</sub>",
        "Molecular Mass": "252.01",
        "Melting Point": "256-257 °C"
    }
}