{
    "cas_no": "1067-25-0",
    "key_name": "Propyltrimethoxysilane",
    "cn_name": "丙基三甲氧基硅烷;",
    "alternate_name": "Silane, trimethoxypropyl-;Trimethoxypropylsilane;Propyltrimethoxysilane;<em>n</em>-Propyltrimethoxysilane;P 810;AY 43-203M;Dynasylan BSM;Silan 103;Dynasylan PTMO;KBM 3033;N 313;PTMS;JH-N 313;Z 6265;DB 8330;B 21033;KBM 3303;SIP 6918.0;D 2401",
    "duplicated_cas_no": "77030-43-4;1039510-80-9;1247019-89-1",
    "SMILES": "[Si](CCC)(OC)(OC)OC",
    "meta_data": {
        "InChI": "InChI=1S/C6H16O3Si/c1-5-6-10(7-2,8-3)9-4/h5-6H2,1-4H3",
        "InChIKey": null,
        "Canonical SMILES": "O(C)[Si](OC)(OC)CCC",
        "Molecular Formula": "C<sub>6</sub>H<sub>16</sub>O<sub>3</sub>Si",
        "Molecular Mass": "164.27",
        "Boiling Point": "142 °C",
        "Density": "0.932 g/cm³ @ Temp: 25 °C"
    }
}