{
    "cas_no": "1032-65-1",
    "key_name": "2′-Deoxycytidine-5′-monophosphate",
    "cn_name": "2\"-脱氧胞苷-5\"-单磷酸;",
    "alternate_name": "5′-Cytidylic acid, 2′-deoxy-;Cytidine, 2′-deoxy-, 5′-(dihydrogen phosphate);Cytidine, 2′-deoxy-, 5′-phosphate;Cytidine, 2′-deoxy-, phosphate;2′-Deoxy-5′-cytidylic acid;Deoxycytidine-5′-monophosphate;2′-Deoxycytidine 5′-phosphate;2′-Deoxycytidylic acid;dCMP;Deoxycytidine monophosphate;Deoxy-CMP;Deoxycytidine 5′-phosphate;2′-Deoxycytidine-5′-monophosphate;5′-Deoxycytidylic acid;MeSH ID: D003843",
    "duplicated_cas_no": "148562-08-7;873077-04-4;1388718-78-2",
    "SMILES": "O=C1N(C=CC(N)=N1)[C@@H]2O[C@H](COP(=O)(O)O)[C@@H](O)C2",
    "meta_data": {
        "InChI": "InChI=1S/C9H14N3O7P/c10-7-1-2-12(9(14)11-7)8-3-5(13)6(19-8)4-18-20(15,16)17/h1-2,5-6,8,13H,3-4H2,(H2,10,11,14)(H2,15,16,17)/t5-,6+,8+/m0/s1",
        "InChIKey": null,
        "Canonical SMILES": "O=C1N=C(N)C=CN1C2OC(COP(=O)(O)O)C(O)C2",
        "Molecular Formula": "C<sub>9</sub>H<sub>14</sub>N<sub>3</sub>O<sub>7</sub>P",
        "Molecular Mass": "307.20",
        "Melting Point": "183-184 °C (decomp)"
    }
}