{
    "cas_no": "94805-52-4",
    "key_name": "1,6-Dihydro-6-oxo-3-pyridinecarbonitrile",
    "cn_name": null,
    "alternate_name": "3-Pyridinecarbonitrile, 1,6-dihydro-6-oxo-;1,6-Dihydro-6-oxo-3-pyridinecarbonitrile;5-Cyano-2-pyridone;5-Cyano-2-pyridinol;3-Cyano-6-hydroxypyridine;6-Oxo-1,6-dihydro-3-pyridinecarbonitrile;6-Hydroxypyridine-3-carbonitrile;6-Hydroxynicotinonitrile;2-Hydroxy-5-cyanopyridine",
    "duplicated_cas_no": "",
    "SMILES": "C(#N)C=1C=CC(=O)NC1",
    "meta_data": {
        "InChI": "InChI=1S/C6H4N2O/c7-3-5-1-2-6(9)8-4-5/h1-2,4H,(H,8,9)",
        "InChIKey": null,
        "Canonical SMILES": "N#CC=1C=CC(=O)NC1",
        "Molecular Formula": "C<sub>6</sub>H<sub>4</sub>N<sub>2</sub>O",
        "Molecular Mass": "120.11",
        "Melting Point": "252-253 °C"
    }
}