{
    "cas_no": "3769-23-1",
    "key_name": "4-Methyl-1-hexene",
    "cn_name": "4-甲基-1-己烯;4-甲-1-己烯;",
    "alternate_name": "1-Hexene, 4-methyl-;4-Methyl-1-hexene;(±)-4-Methyl-1-hexene;(<em>R</em>,<em>S</em>)-4-Methyl-1-hexene;NSC 73926",
    "duplicated_cas_no": "13643-03-3",
    "SMILES": "C(CC=C)(CC)C",
    "meta_data": {
        "InChI": "InChI=1S/C7H14/c1-4-6-7(3)5-2/h4,7H,1,5-6H2,2-3H3",
        "InChIKey": null,
        "Canonical SMILES": "C=CCC(C)CC",
        "Molecular Formula": "C<sub>7</sub>H<sub>14</sub>",
        "Molecular Mass": "98.19",
        "Boiling Point": "86.7 °C",
        "Melting Point": "-141.5 °C",
        "Density": "0.6969 g/cm³ @ Temp: 20 °C"
    }
}