{
    "cas_no": "35891-70-4",
    "key_name": "(+)-Myriocin",
    "cn_name": null,
    "alternate_name": "6-Eicosenoic acid, 2-amino-3,4-dihydroxy-2-(hydroxymethyl)-14-oxo-, (2<em>S</em>,3<em>R</em>,4<em>R</em>,6<em>E</em>)-;6-Eicosenoic acid, 2-amino-3,4-dihydroxy-2-(hydroxymethyl)-14-oxo-, [2<em>S</em>-(2<em>R</em>*,3<em>S</em>*,4<em>S</em>*,6<em>E</em>)]-;(2<em>S</em>,3<em>R</em>,4<em>R</em>,6<em>E</em>)-2-Amino-3,4-dihydroxy-2-(hydroxymethyl)-14-oxo-6-eicosenoic acid;Myriocin;Thermozymocidin;(2S,3R,4R)-(E)-2-Amino-3,4-dihydroxy-2-hydroxymethyl-14-oxoeicos-6-enoic acid;ISP-I;(+)-Myriocin;NSC 177379",
    "duplicated_cas_no": "36564-60-0;37836-36-5",
    "SMILES": "[C@]([C@H]([C@@H](C/C=C/CCCCCCC(CCCCCC)=O)O)O)(C(O)=O)(CO)N",
    "meta_data": {
        "InChI": "InChI=1S/C21H39NO6/c1-2-3-4-10-13-17(24)14-11-8-6-5-7-9-12-15-18(25)19(26)21(22,16-23)20(27)28/h9,12,18-19,23,25-26H,2-8,10-11,13-16,22H2,1H3,(H,27,28)/b12-9+/t18-,19+,21+/m1/s1",
        "InChIKey": null,
        "Canonical SMILES": "O=C(O)C(N)(CO)C(O)C(O)CC=CCCCCCCC(=O)CCCCCC",
        "Molecular Formula": "C<sub>21</sub>H<sub>39</sub>NO<sub>6</sub>",
        "Molecular Mass": "401.54",
        "Melting Point": "170-172 °C"
    }
}