{
    "cas_no": "937-52-0",
    "key_name": "(-)-1-Methyl-3-phenylpropylamine",
    "cn_name": "1-甲基-3-苯基丙胺;",
    "alternate_name": "Benzenepropanamine, α-methyl-, (α<em>R</em>)-;Propylamine, 1-methyl-3-phenyl-, (<em>R</em>)-(-)-;Benzenepropanamine, α-methyl-, (<em>R</em>)-;(α<em>R</em>)-α-Methylbenzenepropanamine;(-)-α-Methylbenzenepropanamine;(<em>R</em>)-1-Methyl-3-phenylpropylamine;(<em>R</em>)-α-Methylbenzenepropanamine;(-)-1-Methyl-3-phenylpropylamine;(2<em>R</em>)-2-Amino-4-phenylbutane;(2<em>R</em>)-4-Phenylbutan-2-amine;(<em>R</em>)-4-Phenyl-2-butanamine;(2R)-4-Phenylbutan-2-amine;(R)-(-)-1-Methyl-3-phenylpropylamine",
    "duplicated_cas_no": "45967-55-3",
    "SMILES": "C(C[C@@H](C)N)C1=CC=CC=C1",
    "meta_data": {
        "InChI": "InChI=1S/C10H15N/c1-9(11)7-8-10-5-3-2-4-6-10/h2-6,9H,7-8,11H2,1H3/t9-/m1/s1",
        "InChIKey": null,
        "Canonical SMILES": "NC(C)CCC=1C=CC=CC1",
        "Molecular Formula": "C<sub>10</sub>H<sub>15</sub>N",
        "Molecular Mass": "149.23",
        "Boiling Point": "40-50 °C @ Press: 0.05 Torr"
    }
}