{
    "cas_no": "1028252-16-5",
    "key_name": "Cyclopropanecarboxamide, 1-amino-<em>N</em>-(cyclopropylsulfonyl)-2-ethenyl-, (1<em>R</em>,2<em>S</em>)-, 4-methylbenzenesulfonate (1:1)",
    "cn_name": null,
    "alternate_name": "Cyclopropanecarboxamide, 1-amino-<em>N</em>-(cyclopropylsulfonyl)-2-ethenyl-, (1<em>R</em>,2<em>S</em>)-, 4-methylbenzenesulfonate (1:1);<em>N</em>-(Cyclopropylsulfonyl)-(1R,2S)-2-vinyl-1-aminocyclopropane-1-carboxamide <em>p</em>-toluenesulfonate",
    "duplicated_cas_no": "",
    "SMILES": "C(NS(=O)(=O)C1CC1)(=O)[C@]2(N)[C@H](C=C)C2.S(=O)(=O)(O)C1=CC=C(C)C=C1",
    "meta_data": {
        "InChI": "InChI=1S/C9H14N2O3S.C7H8O3S/c1-2-6-5-9(6,10)8(12)11-15(13,14)7-3-4-7;1-6-2-4-7(5-3-6)11(8,9)10/h2,6-7H,1,3-5,10H2,(H,11,12);2-5H,1H3,(H,8,9,10)/t6-,9-;/m1./s1",
        "InChIKey": null,
        "Canonical SMILES": "O=C(NS(=O)(=O)C1CC1)C2(N)CC2C=C.O=S(=O)(O)C1=CC=C(C=C1)C",
        "Molecular Formula": "C<sub>9</sub>H<sub>14</sub>N<sub>2</sub>O<sub>3</sub>S.C<sub>7</sub>H<sub>8</sub>O<sub>3</sub>S",
        "Molecular Mass": "",
        "Melting Point": "197-199 °C"
    }
}