{
    "cas_no": "1074-36-8",
    "key_name": "4-Mercaptobenzoic acid",
    "cn_name": "4-巯基苯甲酸;对巯基苯甲酸;",
    "alternate_name": "Benzoic acid, 4-mercapto-;Benzoic acid, <em>p</em>-mercapto-;4-Mercaptobenzoic acid;<em>p</em>-Mercaptobenzoic acid;4-Carboxybenzenethiol;4-Carboxythiophenol;<em>p</em>-Carboxybenzenethiol;NSC 32022",
    "duplicated_cas_no": "",
    "SMILES": "C(O)(=O)C1=CC=C(S)C=C1",
    "meta_data": {
        "InChI": "InChI=1S/C7H6O2S/c8-7(9)5-1-3-6(10)4-2-5/h1-4,10H,(H,8,9)",
        "InChIKey": null,
        "Canonical SMILES": "O=C(O)C1=CC=C(S)C=C1",
        "Molecular Formula": "C<sub>7</sub>H<sub>6</sub>O<sub>2</sub>S",
        "Molecular Mass": "154.19",
        "Melting Point": "216-219 °C",
        "Density": "1.5 g/cm³"
    }
}