{
    "cas_no": "100643-71-8",
    "key_name": "Desloratadine",
    "cn_name": "脱羧氯雷他定;8-氯-6,11-二氢-11-(4-哌啶烯基)-5H-苯并[5,6]环庚基[1,2-b]吡啶;",
    "alternate_name": "5<em>H</em>-Benzo[5,6]cyclohepta[1,2-<em>b</em>]pyridine, 8-chloro-6,11-dihydro-11-(4-piperidinylidene)-;8-Chloro-6,11-dihydro-11-(4-piperidinylidene)-5<em>H</em>-benzo[5,6]cyclohepta[1,2-<em>b</em>]pyridine;Descarboethoxyloratadine;8-Chloro-11-(4-piperidylidene)-6,11-dihydro-5<em>H</em>-benzo[5,6]cyclohepta[1,2-<em>b</em>]pyridine;Sch 34117;Desloratadine;Clarinex;Aerius;NSC 675447;Azomyr;Opulis;Allex;Neoclarityn;Descarboethoxyloratidine;Delopedil;Sedno;Eurodesa;Desler;Dasselta",
    "duplicated_cas_no": "381727-28-2",
    "SMILES": "ClC=1C=C2C(C(C=3C(CC2)=CC=CN3)=C4CCNCC4)=CC1",
    "meta_data": {
        "InChI": "InChI=1S/C19H19ClN2/c20-16-5-6-17-15(12-16)4-3-14-2-1-9-22-19(14)18(17)13-7-10-21-11-8-13/h1-2,5-6,9,12,21H,3-4,7-8,10-11H2",
        "InChIKey": null,
        "Canonical SMILES": "ClC=1C=CC2=C(C1)CCC=3C=CC=NC3C2=C4CCNCC4",
        "Molecular Formula": "C<sub>19</sub>H<sub>19</sub>ClN<sub>2</sub>",
        "Molecular Mass": "310.82",
        "Melting Point": "154-154.5 °C"
    }
}