{
    "cas_no": "7370-92-5",
    "key_name": "δ-Tridecalactone",
    "cn_name": "四氢-6-辛基-2H-吡喃-2-酮;",
    "alternate_name": "2<em>H</em>-Pyran-2-one, tetrahydro-6-octyl-;Tridecanoic acid, 5-hydroxy-, δ-lactone;Tetrahydro-6-octyl-2<em>H</em>-pyran-2-one;5-Hydroxytridecanoic acid δ-lactone;δ-Octyl-δ-valerolactone;(<em>R</em>,<em>S</em>)-δ-Tridecalactone;5-Tridecanolide;δ-Tridecalactone;δ-Tridecanolactone;6-Octyltetrahydro-2<em>H</em>-pyran-2-one;6-Octyltetrahydropyran-2-one",
    "duplicated_cas_no": "124378-41-2",
    "SMILES": "C(CCCCCCC)C1OC(=O)CCC1",
    "meta_data": {
        "InChI": "InChI=1S/C13H24O2/c1-2-3-4-5-6-7-9-12-10-8-11-13(14)15-12/h12H,2-11H2,1H3",
        "InChIKey": null,
        "Canonical SMILES": "O=C1OC(CCC1)CCCCCCCC",
        "Molecular Formula": "C<sub>13</sub>H<sub>24</sub>O<sub>2</sub>",
        "Molecular Mass": "212.33",
        "Boiling Point": "188 °C @ Press: 11 Torr",
        "Melting Point": "42-43 °C"
    }
}