{
    "cas_no": "673-40-5",
    "key_name": "Benzenediazonium, 4-bromo-, tetrafluoroborate(1-) (1:1)",
    "cn_name": null,
    "alternate_name": "Benzenediazonium, 4-bromo-, tetrafluoroborate(1-) (1:1);Benzenediazonium, <em>p</em>-bromo-, tetrafluoroborate(1-);Benzenediazonium, 4-bromo-, tetrafluoroborate(1-);<em>p</em>-Bromobenzenediazonium fluoborate;Borate(1-), tetrafluoro-, <em>p</em>-bromobenzenediazonium;Borate(1-), tetrafluoro-, 4-bromobenzenediazonium;<em>p</em>-Bromobenzenediazonium tetrafluoroborate(1-);<em>p</em>-Bromobenzenediazonium fluoroborate;<em>p</em>-Bromobenzenediazonium tetrafluoroborate;<em>p</em>-Bromophenyldiazonium tetrafluoroborate;4-Bromobenzenediazonium tetrafluoroborate;4-Bromophenyldiazonium tetrafluoroborate;<em>p</em>-Bromophenyldiazonium tetrafluoroborate(1-)",
    "duplicated_cas_no": "2101457-46-7;2190528-89-1",
    "SMILES": "[N+](#N)C1=CC=C(Br)C=C1.[B+3]([F-])([F-])([F-])[F-]",
    "meta_data": {
        "InChI": "InChI=1S/C6H4BrN2.BF4/c7-5-1-3-6(9-8)4-2-5;2-1(3,4)5/h1-4H;/q+1;-1",
        "InChIKey": null,
        "Canonical SMILES": "N#[N+]C1=CC=C(Br)C=C1.[F-][B+3]([F-])([F-])[F-]",
        "Molecular Formula": "C<sub>6</sub>H<sub>4</sub>BrN<sub>2</sub>.BF<sub>4</sub>",
        "Molecular Mass": "",
        "Melting Point": "113-115 °C (decomp)"
    }
}