{
    "cas_no": "34841-35-5",
    "key_name": "1-(3-Chlorophenyl)-1-propanone",
    "cn_name": "3\"-氯丙酮苯;间氯苯丙酮;3\"-氯苯丙酮;",
    "alternate_name": "1-Propanone, 1-(3-chlorophenyl)-;Propiophenone, 3′-chloro-;1-(3-Chlorophenyl)-1-propanone;<em>m</em>-Chloropropiophenone;3-Chlorophenyl ethyl ketone;3′-Chloropropiophenone",
    "duplicated_cas_no": "",
    "SMILES": "C(CC)(=O)C1=CC(Cl)=CC=C1",
    "meta_data": {
        "InChI": "InChI=1S/C9H9ClO/c1-2-9(11)7-4-3-5-8(10)6-7/h3-6H,2H2,1H3",
        "InChIKey": null,
        "Canonical SMILES": "O=C(C=1C=CC=C(Cl)C1)CC",
        "Molecular Formula": "C<sub>9</sub>H<sub>9</sub>ClO",
        "Molecular Mass": "168.62",
        "Boiling Point": "135-137 °C @ Press: 1 Torr",
        "Melting Point": "45-46 °C"
    }
}