{
    "cas_no": "123-46-6",
    "key_name": "Girard-T reagent",
    "cn_name": "吉拉尔特试剂T;乙酰肼三甲基氯化铵;氯化甜菜碱酰肼;",
    "alternate_name": "Ethanaminium, 2-hydrazinyl-<em>N</em>,<em>N</em>,<em>N</em>-trimethyl-2-oxo-, chloride (1:1);(Carboxymethyl)trimethylammonium chloride hydrazide;Ammonium, (carboxymethyl)trimethyl-, chloride, hydrazide;Ethanaminium, 2-hydrazino-<em>N</em>,<em>N</em>,<em>N</em>-trimethyl-2-oxo-, chloride;Ammonium compounds, substituted, (carboxymethyl)trimethyl-, chloride, hydrazide;Betaine hydrazide hydrochloride;Trimethylacetylhydrazide ammonium chloride;Trimethylaminoacetohydrazide chloride;Trimethylammonium acetyl hydrazide chloride;Trimethylammonium chloride acetylhydrazide;(Carbazoylmethyl)trimethylammonium chloride;Girard's T reagent;Betaine hydrazide chloride;Trimethylammonioacetohydrazide chloride;Reagents, Girard's T;Girard-T reagent;(2-Hydrazino-2-oxoethyl)trimethylammonium chloride;[(Hydrazinecarbonyl)methyl]trimethylazanium chloride;(Hydrazinocarbonylmethyl)trimethylammonium chloride",
    "duplicated_cas_no": "113079-22-4",
    "SMILES": "C([N+](C)(C)C)C(NN)=O.[Cl-]",
    "meta_data": {
        "InChI": "InChI=1S/C5H13N3O.ClH/c1-8(2,3)4-5(9)7-6;/h4,6H2,1-3H3;1H",
        "InChIKey": null,
        "Canonical SMILES": "[Cl-].O=C(NN)C[N+](C)(C)C",
        "Molecular Formula": "C<sub>5</sub>H<sub>14</sub>N<sub>3</sub>O.Cl",
        "Molecular Mass": "",
        "Melting Point": "192 °C"
    }
}