{
    "cas_no": "843-55-0",
    "key_name": "1,1-Bis(4-hydroxyphenyl)cyclohexane",
    "cn_name": "1,1\"-双(4-羟基苯基)环己烷;双酚Z;4,4\"-二羟基二苯环已烷;",
    "alternate_name": "Phenol, 4,4′-cyclohexylidenebis-;Phenol, 4,4′-cyclohexylidenedi-;4,4′-Cyclohexylidenebis[phenol];1,1-Bis(4-hydroxyphenyl)cyclohexane;4,4′-Cyclohexylidenediphenol;Dian C;Bisphenol Z;1,1-Bis(<em>p</em>-Hydroxyphenyl)cyclohexane;Antigene W;Bis-Z;NSC 29881;NSC 50761;1,1-Bis(4-hydroxyphenyl)-3,3,5-cyclohexane",
    "duplicated_cas_no": "66138-64-5;70903-43-4;317803-63-7",
    "SMILES": "OC1=CC=C(C2(CCCCC2)C3=CC=C(O)C=C3)C=C1",
    "meta_data": {
        "InChI": "InChI=1S/C18H20O2/c19-16-8-4-14(5-9-16)18(12-2-1-3-13-18)15-6-10-17(20)11-7-15/h4-11,19-20H,1-3,12-13H2",
        "InChIKey": null,
        "Canonical SMILES": "OC1=CC=C(C=C1)C2(C3=CC=C(O)C=C3)CCCCC2",
        "Molecular Formula": "C<sub>18</sub>H<sub>20</sub>O<sub>2</sub>",
        "Molecular Mass": "268.35",
        "Melting Point": "182 °C"
    }
}