{
    "cas_no": "487-49-0",
    "key_name": "1-(2,4-Dihydroxyphenyl)-2-(4-methoxyphenyl)ethanone",
    "cn_name": null,
    "alternate_name": "Ethanone, 1-(2,4-dihydroxyphenyl)-2-(4-methoxyphenyl)-;Acetophenone, 2′,4′-dihydroxy-2-(<em>p</em>-methoxyphenyl)-;1-(2,4-Dihydroxyphenyl)-2-(4-methoxyphenyl)ethanone;Ononetin;α-(4-Methoxyphenyl)-2,4-dihydroxyacetophenone;2,4-Dihydroxyphenyl 4′-methoxybenzyl ketone;NSC 89759;1-(2,4-Dihydroxyphenyl)-2-(4-methoxyphenyl)ethan-1-one",
    "duplicated_cas_no": "1799610-40-4",
    "SMILES": "C(CC1=CC=C(OC)C=C1)(=O)C2=C(O)C=C(O)C=C2",
    "meta_data": {
        "InChI": "InChI=1S/C15H14O4/c1-19-12-5-2-10(3-6-12)8-14(17)13-7-4-11(16)9-15(13)18/h2-7,9,16,18H,8H2,1H3",
        "InChIKey": null,
        "Canonical SMILES": "O=C(C1=CC=C(O)C=C1O)CC2=CC=C(OC)C=C2",
        "Molecular Formula": "C<sub>15</sub>H<sub>14</sub>O<sub>4</sub>",
        "Molecular Mass": "258.27",
        "Melting Point": "157 °C"
    }
}