{
    "cas_no": "15686-71-2",
    "key_name": "Cephalexin",
    "cn_name": "头孢氨苄;(6R,7R)-3-甲基-7-[(R)-2-氨基-2-苯乙酰氨基]-8-氧-5-硫杂-1-双环[4.2.0]辛-2-烯-2-甲酸;",
    "alternate_name": "5-Thia-1-azabicyclo[4.2.0]oct-2-ene-2-carboxylic acid, 7-[[(2<em>R</em>)-2-amino-2-phenylacetyl]amino]-3-methyl-8-oxo-, (6<em>R</em>,7<em>R</em>)-;5-Thia-1-azabicyclo[4.2.0]oct-2-ene-2-carboxylic acid, 7-(2-amino-2-phenylacetamido)-3-methyl-8-oxo-, <span class=\"text-smallcaps\">D</span>-;5-Thia-1-azabicyclo[4.2.0]oct-2-ene-2-carboxylic acid, 7-[(aminophenylacetyl)amino]-3-methyl-8-oxo-, [6<em>R</em>-[6α,7β(<em>R</em>*)]]-;5-Thia-1-azabicyclo[4.2.0]oct-2-ene-2-carboxylic acid, 7-[[(2<em>R</em>)-aminophenylacetyl]amino]-3-methyl-8-oxo-, (6<em>R</em>,7<em>R</em>)-;(6<em>R</em>,7<em>R</em>)-7-[[(2<em>R</em>)-2-Amino-2-phenylacetyl]amino]-3-methyl-8-oxo-5-thia-1-azabicyclo[4.2.0]oct-2-ene-2-carboxylic acid;Cephalexin;7-(α-Amino-<span class=\"text-smallcaps\">D</span>-phenylacetamido)-3-deacetoxycephalosporanic acid;7-[<span class=\"text-smallcaps\">D</span>-(-)-α-Aminophenylacetamido]-3-methyl-3-cephem-4-carboxylic acid;Ceporexine;Cefalexin;Keflex;Keforal;Lilly 66873;Larixin;S 6437;Oroxin;Ceporexin;Oracef;Ceforal;Palitrex;L-Keflex;Syncl;Cephacillin;Cephamasten;Lafarine;<span class=\"text-smallcaps\">D</span>-Cephalexin;Cepexin;Cephalexine;Ceporex;Cefaleksin;Tepaxin;Kefloridina;Sialexin;Novolexin;Medoxine;Kekrinal;Ibilex;Nufex;Ceporex Forte;Oriphex;Alsporin;Mamlexin;Cophalexin;Sporidex;Inphalex;Ibrexin;Cefadina;Servispor;Kefalospes;Uphalexin;Cefadal;Kefalex;Kidolex;Madlexin;Sinthecillin;Celexin;Cefadin;Kefexin;Voxxim;Lopilexin;Syncle;Check;Winlex;Pyassan;Neokef;Lonflex;Cephaxin;Erocetin;Sanaxin;Cefalin;Sporicef;Keflet;Mamalexin;Cefablan;Ospexin;Carnosporin;Felexin;Sepexin;Septilisin;Rofex;Tokiolexin;Durantel DS;Cephin;Durantel;Ed A-Ceph;Biocef;Cefovit;Naxifelar;Cefaseptin;Fexin;Cepastar;Alcephin;Cepol;Synecl;Kefaxin;Lenocef;Cefadyl;Pectril;Cerexin;Iwalexin;Llonexina;Cefadros;Cex;Cefaloto;Farexin;Xahl;Derantel;Sencephalin;Oracocin;Rinesal;Mecilex;Ohlexin;Fergon 500;Taicelexin;Lexibiotico;Cefanex;Sintolexyn;Efalexin;Garasin;Phexin;Larixin (antibiotic);Vetolexin;Lixen-IU;MeSH ID: D002506",
    "duplicated_cas_no": "14101-75-8;17692-47-6;65454-17-3;82853-18-7",
    "SMILES": "O=C1N2[C@@]([C@@H]1NC([C@H](N)C3=CC=CC=C3)=O)(SCC(C)=C2C(O)=O)[H]",
    "meta_data": {
        "InChI": "InChI=1S/C16H17N3O4S/c1-8-7-24-15-11(14(21)19(15)12(8)16(22)23)18-13(20)10(17)9-5-3-2-4-6-9/h2-6,10-11,15H,7,17H2,1H3,(H,18,20)(H,22,23)/t10-,11-,15-/m1/s1",
        "InChIKey": null,
        "Canonical SMILES": "O=C(O)C1=C(C)CSC2N1C(=O)C2NC(=O)C(N)C=3C=CC=CC3",
        "Molecular Formula": "C<sub>16</sub>H<sub>17</sub>N<sub>3</sub>O<sub>4</sub>S",
        "Molecular Mass": "347.39",
        "Melting Point": "160-168 °C (decomp)"
    }
}