{
    "cas_no": "18641-57-1",
    "key_name": "Glyceryl tribehenate",
    "cn_name": "甘油二十二烷醇;三山嵛酸甘油酯;俞酸甘油酯;三山嵛精;",
    "alternate_name": "Docosanoic acid, 1,2,3-propanetriyl ester;Docosanoin, tri-;Glyceryl behenate;Tribehenin;Glyceryl tribehenate;Tribehenoylglycerol;Behenic acid triglyceride;Tridocosanoin;Syncrowax HRS;Syncrowax HRC;Compritol ATO 888;Glycerin tribehenate;Glycerol tribehenate;Compritol 888ATO;Lipovol GTB;Glyceryl tridocosanoate;Glycerin tribehenic acid ester;Radia 7515;Pelemol GTB;Syncrowax HRC-PA-RB;Syncrowax HRC-PA-MH;Dynasan D122;2,3-Di(docosanoyloxy)propyl docosanoate;Syncrowax HR-C-FL;Lipovol GBT",
    "duplicated_cas_no": "146393-62-6;208714-56-1;217644-00-3",
    "SMILES": "C(OC(CCCCCCCCCCCCCCCCCCCCC)=O)(COC(CCCCCCCCCCCCCCCCCCCCC)=O)COC(CCCCCCCCCCCCCCCCCCCCC)=O",
    "meta_data": {
        "InChI": "InChI=1S/C69H134O6/c1-4-7-10-13-16-19-22-25-28-31-34-37-40-43-46-49-52-55-58-61-67(70)73-64-66(75-69(72)63-60-57-54-51-48-45-42-39-36-33-30-27-24-21-18-15-12-9-6-3)65-74-68(71)62-59-56-53-50-47-44-41-38-35-32-29-26-23-20-17-14-11-8-5-2/h66H,4-65H2,1-3H3",
        "InChIKey": null,
        "Canonical SMILES": "O=C(OCC(OC(=O)CCCCCCCCCCCCCCCCCCCCC)COC(=O)CCCCCCCCCCCCCCCCCCCCC)CCCCCCCCCCCCCCCCCCCCC",
        "Molecular Formula": "C<sub>69</sub>H<sub>134</sub>O<sub>6</sub>",
        "Molecular Mass": "1059.80",
        "Melting Point": "41 °C"
    }
}