{
    "cas_no": "543-20-4",
    "key_name": "Succinyl chloride",
    "cn_name": null,
    "alternate_name": "Butanedioyl dichloride;Succinyl chloride;Succinic acid dichloride;Succinic chloride;Succinoyl chloride;Succinyl dichloride;Succinoyl dichloride;1,2-Bis(chlorocarbonyl)ethane;Succinic acid chloride;1,2-Ethanediylbis(chloroformate);Succinic dichloride;NSC 87873",
    "duplicated_cas_no": "1431867-18-3",
    "SMILES": "C(CC(Cl)=O)C(Cl)=O",
    "meta_data": {
        "InChI": "InChI=1S/C4H4Cl2O2/c5-3(7)1-2-4(6)8/h1-2H2",
        "InChIKey": null,
        "Canonical SMILES": "O=C(Cl)CCC(=O)Cl",
        "Molecular Formula": "C<sub>4</sub>H<sub>4</sub>Cl<sub>2</sub>O<sub>2</sub>",
        "Molecular Mass": "154.98",
        "Boiling Point": "193.3 °C",
        "Melting Point": "20 °C"
    }
}