{
    "cas_no": "24850-33-7",
    "key_name": "Allyltributyltin",
    "cn_name": "烯丙基三丁基锡;",
    "alternate_name": "Stannane, tributyl-2-propen-1-yl-;Stannane, allyltributyl-;Stannane, tributyl-2-propenyl-;Tin, allyltributyl-;Tributyl-2-propen-1-ylstannane;Allyltributyltin;Allyltributylstannane;Tributylallylstannane;Tributylallyltin;3-Tributylstannyl-1-propene;Allyltri-<em>n</em>-butylstannane;Allyltri-<em>n</em>-butyltin;3-(Tributyltin)-1-propene;Tributyl(2-propenyl)stannane;2-Propenyltributylstannane;(Propen-2-yl)tributyltin;Tri(<em>n</em>-butyl)allylstannane",
    "duplicated_cas_no": "",
    "SMILES": "[Sn](CCCC)(CCCC)(CCCC)CC=C",
    "meta_data": {
        "InChI": "InChI=1S/3C4H9.C3H5.Sn/c3*1-3-4-2;1-3-2;/h3*1,3-4H2,2H3;3H,1-2H2;",
        "InChIKey": null,
        "Canonical SMILES": "C=CC[Sn](CCCC)(CCCC)CCCC",
        "Molecular Formula": "C<sub>15</sub>H<sub>32</sub>Sn",
        "Molecular Mass": "331.12",
        "Boiling Point": "88-92 °C @ Press: 0.2 Torr",
        "Melting Point": "134-135 °C",
        "Density": "1.068 g/cm³"
    }
}