{
    "cas_no": "1362-42-1",
    "key_name": "Absinthin",
    "cn_name": "洋艾素;",
    "alternate_name": "2<em>H</em>-7,13b-Ethenopentaleno[1′′,2′′:6,7;5′′,4′′:6′,7′]dicyclohepta[1,2-<em>b</em>:1′,2′-<em>b</em>′]difuran-2,12(11<em>H</em>)-dione, 3,3a,4,5,6,6a,6b,7,7a,8,9,10,10a,13a,13c,14b-hexadecahydro-6,8-dihydroxy-3,6,8,11,14,15-hexamethyl-, (3<em>S</em>,3a<em>S</em>,6<em>S</em>,6a<em>R</em>,6b<em>S</em>,7<em>S</em>,7a<em>R</em>,8<em>S</em>,10a<em>S</em>,11<em>S</em>,13a<em>S</em>,13b<em>R</em>,13c<em>R</em>,14b<em>S</em>)-;Absinthin;2<em>H</em>-7,13b-Ethenopentaleno[1′′,2′′:6,7;5′′,4′′:6′,7′]dicyclohepta[1,2-<em>b</em>:1′,2′-<em>b</em>′]difuran-2,12(11<em>H</em>)-dione, 3,3a,4,5,6,6a,6b,7,7a,8,9,10,10a,13a,13c,14b-hexadecahydro-6,8-dihydroxy-3,6,8,11,14,15-hexamethyl-, [3<em>S</em>-(3α,3aα,6β,6aα,6bβ,7α,7aβ,8α,10aβ,11β,13aα,13bα,13cβ,14bβ)]-;(3<em>S</em>,3a<em>S</em>,6<em>S</em>,6a<em>R</em>,6b<em>S</em>,7<em>S</em>,7a<em>R</em>,8<em>S</em>,10a<em>S</em>,11<em>S</em>,13a<em>S</em>,13b<em>R</em>,13c<em>R</em>,14b<em>S</em>)-3,3a,4,5,6,6a,6b,7,7a,8,9,10,10a,13a,13c,14b-Hexadecahydro-6,8-dihydroxy-3,6,8,11,14,15-hexamethyl-2<em>H</em>-7,13b-ethenopentaleno[1′′,2′′:6,7;5′′,4′′:6′,7′]dicyclohepta[1,2-<em>b</em>:1′,2′-<em>b</em>′]difuran-2,12(11<em>H</em>)-dione;NSC 407315",
    "duplicated_cas_no": "6020-12-8",
    "SMILES": "CC=1[C@@]23[C@@]4([C@]([C@]([C@]2([C@@](C)(O)CC[C@@]5([C@@]3(OC(=O)[C@H]5C)[H])[H])[H])(C1)[H])([C@@]6(C(=C4C)[C@@]7([C@@](CC[C@]6(C)O)([C@H](C)C(=O)O7)[H])[H])[H])[H])[H]",
    "meta_data": {
        "InChI": "InChI=1S/C30H40O6/c1-12-11-18-20-21(30(12)24(18)29(6,34)10-8-17-14(3)27(32)36-25(17)30)15(4)19-22(20)28(5,33)9-7-16-13(2)26(31)35-23(16)19/h11,13-14,16-18,20-25,33-34H,7-10H2,1-6H3/t13-,14-,16-,17-,18+,20-,21-,22-,23-,24-,25-,28-,29-,30+/m0/s1",
        "InChIKey": null,
        "Canonical SMILES": "O=C1OC2C3=C(C)C4C(C5C=C(C)C64C7OC(=O)C(C)C7CCC(O)(C)C56)C3C(O)(C)CCC2C1C",
        "Molecular Formula": "C<sub>30</sub>H<sub>40</sub>O<sub>6</sub>",
        "Molecular Mass": "496.64",
        "Melting Point": "179-180 °C (decomp)"
    }
}