{
    "cas_no": "6836-22-2",
    "key_name": "7-Methoxy-1-naphthaleneacetic acid",
    "cn_name": "7-甲氧基-1-萘乙酸;",
    "alternate_name": "1-Naphthaleneacetic acid, 7-methoxy-;7-Methoxy-1-naphthaleneacetic acid;(7-Methoxy-1-naphthyl)acetic acid;2-(7-Methoxynaphthalen-1-yl)acetic acid",
    "duplicated_cas_no": "",
    "SMILES": "C(C(O)=O)C=1C2=C(C=CC(OC)=C2)C=CC1",
    "meta_data": {
        "InChI": "InChI=1S/C13H12O3/c1-16-11-6-5-9-3-2-4-10(7-13(14)15)12(9)8-11/h2-6,8H,7H2,1H3,(H,14,15)",
        "InChIKey": null,
        "Canonical SMILES": "O=C(O)CC1=CC=CC2=CC=C(OC)C=C21",
        "Molecular Formula": "C<sub>13</sub>H<sub>12</sub>O<sub>3</sub>",
        "Molecular Mass": "216.23",
        "Melting Point": "155-155.5 °C"
    }
}