{
    "cas_no": "20344-46-1",
    "key_name": "Galuteolin",
    "cn_name": null,
    "alternate_name": "4<em>H</em>-1-Benzopyran-4-one, 2-(3,4-dihydroxyphenyl)-5-(β-<span class=\"text-smallcaps\">D</span>-glucopyranosyloxy)-7-hydroxy-;Flavone, 3′,4′,5,7-tetrahydroxy-, 5-β-<span class=\"text-smallcaps\">D</span>-glucopyranoside;2-(3,4-Dihydroxyphenyl)-5-(β-<span class=\"text-smallcaps\">D</span>-glucopyranosyloxy)-7-hydroxy-4<em>H</em>-1-benzopyran-4-one;Luteolin 5-glucoside;Luteolin 5-β-<span class=\"text-smallcaps\">D</span>-glucopyranoside;Galuteolin;Luteolin 5-<em>O</em>-β-<span class=\"text-smallcaps\">D</span>-glucopyranoside;Luteolin-5-<em>O</em>-glucoside;Luteolin-5-<em>O</em>-β-<span class=\"text-smallcaps\">D</span>-glucoside",
    "duplicated_cas_no": "569-89-1",
    "SMILES": "O(C1=C2C(OC(=CC2=O)C3=CC(O)=C(O)C=C3)=CC(O)=C1)[C@@H]4O[C@H](CO)[C@@H](O)[C@H](O)[C@H]4O",
    "meta_data": {
        "InChI": "InChI=1S/C21H20O11/c22-7-16-18(27)19(28)20(29)21(32-16)31-15-5-9(23)4-14-17(15)12(26)6-13(30-14)8-1-2-10(24)11(25)3-8/h1-6,16,18-25,27-29H,7H2/t16-,18-,19+,20-,21-/m1/s1",
        "InChIKey": null,
        "Canonical SMILES": "O=C1C=C(OC2=CC(O)=CC(OC3OC(CO)C(O)C(O)C3O)=C12)C=4C=CC(O)=C(O)C4",
        "Molecular Formula": "C<sub>21</sub>H<sub>20</sub>O<sub>11</sub>",
        "Molecular Mass": "448.38",
        "Melting Point": "260-263 °C"
    }
}