{
    "cas_no": "83104-87-4",
    "key_name": "Epigallocatechin 3-<em>O</em>-(3-<em>O</em>-methyl)gallate",
    "cn_name": null,
    "alternate_name": "Benzoic acid, 3,4-dihydroxy-5-methoxy-, (2<em>R</em>,3<em>R</em>)-3,4-dihydro-5,7-dihydroxy-2-(3,4,5-trihydroxyphenyl)-2<em>H</em>-1-benzopyran-3-yl ester;Benzoic acid, 3,4-dihydroxy-5-methoxy-, 3,4-dihydro-5,7-dihydroxy-2-(3,4,5-trihydroxyphenyl)-2<em>H</em>-1-benzopyran-3-yl ester, (2<em>R</em>-<em>cis</em>)-;(-)-Epigallocatechin 3-<em>O</em>-(3-<em>O</em>-methylgallate);Epigallocatechin 3-<em>O</em>-(3-<em>O</em>-methyl)gallate;(-)-Epigallocatechin 3-(3′′-<em>O</em>-methyl)gallate;EGCG3′′Me;(-)-Epigallocatechin 3-<em>O</em>-(3′-<em>O</em>-methyl)-gallate",
    "duplicated_cas_no": "",
    "SMILES": "O(C(=O)C1=CC(OC)=C(O)C(O)=C1)[C@H]2[C@H](OC=3C(C2)=C(O)C=C(O)C3)C4=CC(O)=C(O)C(O)=C4",
    "meta_data": {
        "InChI": "InChI=1S/C23H20O11/c1-32-18-5-10(4-16(28)21(18)30)23(31)34-19-8-12-13(25)6-11(24)7-17(12)33-22(19)9-2-14(26)20(29)15(27)3-9/h2-7,19,22,24-30H,8H2,1H3/t19-,22-/m1/s1",
        "InChIKey": null,
        "Canonical SMILES": "O=C(OC1CC=2C(O)=CC(O)=CC2OC1C3=CC(O)=C(O)C(O)=C3)C4=CC(O)=C(O)C(OC)=C4",
        "Molecular Formula": "C<sub>23</sub>H<sub>20</sub>O<sub>11</sub>",
        "Molecular Mass": "472.40",
        "Melting Point": "221-223 °C (decomp)"
    }
}