{
    "cas_no": "1501-84-4",
    "key_name": "Rimantadine hydrochloride",
    "cn_name": "盐酸金刚乙胺;",
    "alternate_name": "Tricyclo[3.3.1.1<sup>3,7</sup>]decane-1-methanamine, α-methyl-, hydrochloride (1:1);1-Adamantanemethylamine, α-methyl-, hydrochloride;Tricyclo[3.3.1.1<sup>3,7</sup>]decane-1-methanamine, α-methyl-, hydrochloride;EXP 126;α-Methyl-1-adamantanemethylamine hydrochloride;Rimantadine hydrochloride;1-(1-Aminoethyl)adamantane hydrochloride;Remantadine;Meradan;Meradane;JP 61;Remantadin;Flumadine;Roflual;NSC 206764;1-(1-Adamantyl)ethylamine hydrochloride;1-(Adamantan-1-yl)ethan-1-amine hydrochloride",
    "duplicated_cas_no": "12710-47-3;33122-80-4",
    "SMILES": "C(C)(N)C12CC3CC(C1)CC(C2)C3.Cl",
    "meta_data": {
        "InChI": "InChI=1S/C12H21N.ClH/c1-8(13)12-5-9-2-10(6-12)4-11(3-9)7-12;/h8-11H,2-7,13H2,1H3;1H",
        "InChIKey": null,
        "Canonical SMILES": "Cl.NC(C)C12CC3CC(CC(C3)C1)C2",
        "Molecular Formula": "C<sub>12</sub>H<sub>21</sub>N.ClH",
        "Molecular Mass": "",
        "Melting Point": "373-375 °C"
    }
}