{
    "cas_no": "95-26-1",
    "key_name": "2,5-Dimethylbenzothiazole",
    "cn_name": "2,5-二甲基苯并噻唑;",
    "alternate_name": "Benzothiazole, 2,5-dimethyl-;2,5-Dimethylbenzothiazole;2,5-Dimethyl-1,3-benzothiazole;2,5-Dimethylbenzo[<em>d</em>]thiazole",
    "duplicated_cas_no": "",
    "SMILES": "CC=1SC=2C(N1)=CC(C)=CC2",
    "meta_data": {
        "InChI": "InChI=1S/C9H9NS/c1-6-3-4-9-8(5-6)10-7(2)11-9/h3-5H,1-2H3",
        "InChIKey": null,
        "Canonical SMILES": "N=1C=2C=C(C=CC2SC1C)C",
        "Molecular Formula": "C<sub>9</sub>H<sub>9</sub>NS",
        "Molecular Mass": "163.24",
        "Boiling Point": "142-146 °C @ Press: 10 Torr",
        "Melting Point": "172-173 °C"
    }
}