{
    "cas_no": "53279-72-4",
    "key_name": "3-Hydroxy-2,4,6-triiodobenzoic acid",
    "cn_name": "3-羟基-2,4,6-三碘苯甲酸;",
    "alternate_name": "Benzoic acid, 3-hydroxy-2,4,6-triiodo-;3-Hydroxy-2,4,6-triiodobenzoic acid;2,4,6-Triiodo-3-hydroxybenzoic acid;NSC 82352",
    "duplicated_cas_no": "",
    "SMILES": "C(O)(=O)C1=C(I)C(O)=C(I)C=C1I",
    "meta_data": {
        "InChI": "InChI=1S/C7H3I3O3/c8-2-1-3(9)6(11)5(10)4(2)7(12)13/h1,11H,(H,12,13)",
        "InChIKey": null,
        "Canonical SMILES": "O=C(O)C=1C(I)=CC(I)=C(O)C1I",
        "Molecular Formula": "C<sub>7</sub>H<sub>3</sub>I<sub>3</sub>O<sub>3</sub>",
        "Molecular Mass": "515.81",
        "Melting Point": "206-208 °C"
    }
}