{
    "cas_no": "123-23-9",
    "key_name": "Succinic acid peroxide",
    "cn_name": "过氧化丁二酸;",
    "alternate_name": "Butanoic acid, 4,4′-dioxybis[4-oxo-;Peroxide, bis(3-carboxypropionyl);4,4′-Dioxybis[4-oxobutanoic acid];Alphozone;Succinic acid peroxide;Succinyl peroxide;Disuccinoyl peroxide;Succinoyl peroxide;Peroxydisuccinic acid;Disuccinic acid peroxide;Alfozono;Succinic monoperoxyanhydride;Peroyl SA;NSC 676;Disuccinyl peroxide",
    "duplicated_cas_no": "1341-76-0",
    "SMILES": "C(OOC(CCC(O)=O)=O)(CCC(O)=O)=O",
    "meta_data": {
        "InChI": "InChI=1S/C8H10O8/c9-5(10)1-3-7(13)15-16-8(14)4-2-6(11)12/h1-4H2,(H,9,10)(H,11,12)",
        "InChIKey": null,
        "Canonical SMILES": "O=C(O)CCC(=O)OOC(=O)CCC(=O)O",
        "Molecular Formula": "C<sub>8</sub>H<sub>10</sub>O<sub>8</sub>",
        "Molecular Mass": "234.16",
        "Melting Point": "125 °C (decomp)"
    }
}