{
    "cas_no": "480-16-0",
    "key_name": "Morin",
    "cn_name": "桑色素;2\",3,4\",5,7-五羟基黄酮;",
    "alternate_name": "4<em>H</em>-1-Benzopyran-4-one, 2-(2,4-dihydroxyphenyl)-3,5,7-trihydroxy-;Flavone, 2′,3,4′,5,7-pentahydroxy-;2-(2,4-Dihydroxyphenyl)-3,5,7-trihydroxy-4<em>H</em>-1-benzopyran-4-one;Morin;2′,3,4′,5,7-Pentahydroxyflavone;3,5,7,2′,4′-Pentahydroxyflavone;2′,4′,3,5,7-Pentahydroxyflavone;2′-Hydroxypelargidenolon 1522;C.I. Natural Yellow 11;3,5,7,2′,4′-Pentahydroxyflavonol;LY 002079;C.I. 75660;NSC 19801;LDN 0058388;Aluminum ionophore I;2-(2,4-Dihydroxyphenyl)-3,5,7-trihydroxychromen-4-one",
    "duplicated_cas_no": "11128-85-1",
    "SMILES": "O=C1C=2C(OC(=C1O)C3=C(O)C=C(O)C=C3)=CC(O)=CC2O",
    "meta_data": {
        "InChI": "InChI=1S/C15H10O7/c16-6-1-2-8(9(18)3-6)15-14(21)13(20)12-10(19)4-7(17)5-11(12)22-15/h1-5,16-19,21H",
        "InChIKey": null,
        "Canonical SMILES": "O=C1C(O)=C(OC=2C=C(O)C=C(O)C12)C=3C=CC(O)=CC3O",
        "Molecular Formula": "C<sub>15</sub>H<sub>10</sub>O<sub>7</sub>",
        "Molecular Mass": "302.24",
        "Melting Point": "303.5 °C"
    }
}