{
    "cas_no": "7681-84-7",
    "key_name": "Tetrahydro-2-furancarboxaldehyde",
    "cn_name": "四氢-2-呋喃甲醛;四氢糠醛;",
    "alternate_name": "2-Furancarboxaldehyde, tetrahydro-;2-Furaldehyde, tetrahydro-;Tetrahydro-2-furancarboxaldehyde;Tetrahydrofurfural;2-Formyltetrahydrofuran;NSC 97502;Tetrahydro-2-furaldehyde;Tetrahydrofuran-2-carbaldehyde",
    "duplicated_cas_no": "",
    "SMILES": "C(=O)C1CCCO1",
    "meta_data": {
        "InChI": "InChI=1S/C5H8O2/c6-4-5-2-1-3-7-5/h4-5H,1-3H2",
        "InChIKey": null,
        "Canonical SMILES": "O=CC1OCCC1",
        "Molecular Formula": "C<sub>5</sub>H<sub>8</sub>O<sub>2</sub>",
        "Molecular Mass": "100.12",
        "Boiling Point": "142 °C",
        "Density": "1.0749 g/cm³ @ Temp: 20 °C"
    }
}