{
    "cas_no": "593-87-3",
    "key_name": "Guanidinium acetate",
    "cn_name": "乙酸胍;",
    "alternate_name": "Guanidine, acetate (1:1);Guanidine, monoacetate;Guanidine, acetate;Guanidinium acetate;Guanidinium monoacetate",
    "duplicated_cas_no": "34771-62-5",
    "SMILES": "C(=N)(N)N.C(C)(O)=O",
    "meta_data": {
        "InChI": "InChI=1S/C2H4O2.CH5N3/c1-2(3)4;2-1(3)4/h1H3,(H,3,4);(H5,2,3,4)",
        "InChIKey": null,
        "Canonical SMILES": "O=C(O)C.N=C(N)N",
        "Molecular Formula": "C<sub>2</sub>H<sub>4</sub>O<sub>2</sub>.CH<sub>5</sub>N<sub>3</sub>",
        "Molecular Mass": "",
        "Melting Point": "229.0-300.0 °C"
    }
}