{
    "cas_no": "1589-60-2",
    "key_name": "1-Phenylcyclohexanol",
    "cn_name": "1-苯基环己醇;1-苯基-1-环己醇;",
    "alternate_name": "Cyclohexanol, 1-phenyl-;1-Phenylcyclohexanol;1-Phenylcyclohexan-1-ol;NSC 21999",
    "duplicated_cas_no": "",
    "SMILES": "OC1(CCCCC1)C2=CC=CC=C2",
    "meta_data": {
        "InChI": "InChI=1S/C12H16O/c13-12(9-5-2-6-10-12)11-7-3-1-4-8-11/h1,3-4,7-8,13H,2,5-6,9-10H2",
        "InChIKey": null,
        "Canonical SMILES": "OC1(C=2C=CC=CC2)CCCCC1",
        "Molecular Formula": "C<sub>12</sub>H<sub>16</sub>O",
        "Molecular Mass": "176.25",
        "Boiling Point": "151 °C @ Press: 20 Torr",
        "Melting Point": "63.5 °C"
    }
}