{
    "cas_no": "4641-57-0",
    "key_name": "1-Phenyl-2-pyrrolidinone",
    "cn_name": "1-苯基-2-吡咯烷酮;",
    "alternate_name": "2-Pyrrolidinone, 1-phenyl-;1-Phenyl-2-pyrrolidinone;<em>N</em>-Phenyl-2-pyrrolidone;<em>N</em>-Phenyl-2-pyrrolidinone;1-Phenyl-2-pyrrolidone;<em>N</em>-Phenylbutyrolactam;NSC 25325",
    "duplicated_cas_no": "",
    "SMILES": "O=C1N(CCC1)C2=CC=CC=C2",
    "meta_data": {
        "InChI": "InChI=1S/C10H11NO/c12-10-7-4-8-11(10)9-5-2-1-3-6-9/h1-3,5-6H,4,7-8H2",
        "InChIKey": null,
        "Canonical SMILES": "O=C1N(C=2C=CC=CC2)CCC1",
        "Molecular Formula": "C<sub>10</sub>H<sub>11</sub>NO",
        "Molecular Mass": "161.20",
        "Boiling Point": "130-140 °C @ Press: 1 Torr",
        "Melting Point": "68-69 °C"
    }
}