{
    "cas_no": "111812-58-9",
    "key_name": "1,1-Dimethylethyl 4-[[[[(1,3-dimethyl-5-phenoxy-1<em>H</em>-pyrazol-4-yl)methylene]amino]oxy]methyl]benzoate",
    "cn_name": "唑螨酯;(E)-4-[[[[(1,3-二甲基-5-苯氧基-吡唑-4-基)亚甲基]氨基]氧]甲基]苯甲酸特丁酯;",
    "alternate_name": "Benzoic acid, 4-[[[[(1,3-dimethyl-5-phenoxy-1<em>H</em>-pyrazol-4-yl)methylene]amino]oxy]methyl]-, 1,1-dimethylethyl ester;1,1-Dimethylethyl 4-[[[[(1,3-dimethyl-5-phenoxy-1<em>H</em>-pyrazol-4-yl)methylene]amino]oxy]methyl]benzoate",
    "duplicated_cas_no": "",
    "SMILES": "O(C1=C(C=NOCC2=CC=C(C(OC(C)(C)C)=O)C=C2)C(C)=NN1C)C3=CC=CC=C3",
    "meta_data": {
        "InChI": "InChI=1S/C24H27N3O4/c1-17-21(22(27(5)26-17)30-20-9-7-6-8-10-20)15-25-29-16-18-11-13-19(14-12-18)23(28)31-24(2,3)4/h6-15H,16H2,1-5H3",
        "InChIKey": null,
        "Canonical SMILES": "O=C(OC(C)(C)C)C1=CC=C(C=C1)CON=CC=2C(=NN(C2OC=3C=CC=CC3)C)C",
        "Molecular Formula": "C<sub>24</sub>H<sub>27</sub>N<sub>3</sub>O<sub>4</sub>",
        "Molecular Mass": "421.49",
        "Melting Point": "102 °C"
    }
}