{
    "cas_no": "74728-65-7",
    "key_name": "1-Methyl-1<em>H</em>-indazol-6-amine",
    "cn_name": null,
    "alternate_name": "1<em>H</em>-Indazol-6-amine, 1-methyl-;1<em>H</em>-Indazole, 6-amino-1-methyl-;1-Methyl-1<em>H</em>-indazol-6-amine;1-Methyl-6-indazolamine;6-Amino-1-methylindazole;1-Methyl-6-amino-1<em>H</em>-indazole;(1-Methyl-1<em>H</em>-indazol-6-yl)amine;(1-Methylindazol-6-yl)amine",
    "duplicated_cas_no": "",
    "SMILES": "CN1C=2C(=CC=C(N)C2)C=N1",
    "meta_data": {
        "InChI": "InChI=1S/C8H9N3/c1-11-8-4-7(9)3-2-6(8)5-10-11/h2-5H,9H2,1H3",
        "InChIKey": null,
        "Canonical SMILES": "N1=CC=2C=CC(N)=CC2N1C",
        "Molecular Formula": "C<sub>8</sub>H<sub>9</sub>N<sub>3</sub>",
        "Molecular Mass": "147.18",
        "Melting Point": "172-173 °C"
    }
}