{
    "cas_no": "120-67-2",
    "key_name": "2-(2,4-Dichlorophenoxy)ethanol",
    "cn_name": null,
    "alternate_name": "Ethanol, 2-(2,4-dichlorophenoxy)-;2-(2,4-Dichlorophenoxy)ethanol;<em>o</em>,<em>p</em>-Dichlorophenoxyethanol;NSC 423;2-(2,4-Dichlorophenoxy)ethan-1-ol",
    "duplicated_cas_no": "",
    "SMILES": "O(CCO)C1=C(Cl)C=C(Cl)C=C1",
    "meta_data": {
        "InChI": "InChI=1S/C8H8Cl2O2/c9-6-1-2-8(7(10)5-6)12-4-3-11/h1-2,5,11H,3-4H2",
        "InChIKey": null,
        "Canonical SMILES": "ClC1=CC=C(OCCO)C(Cl)=C1",
        "Molecular Formula": "C<sub>8</sub>H<sub>8</sub>Cl<sub>2</sub>O<sub>2</sub>",
        "Molecular Mass": "207.05",
        "Boiling Point": "121-128 °C @ Press: 1 Torr",
        "Melting Point": "57-58 °C"
    }
}