{
    "cas_no": "75-89-8",
    "key_name": "2,2,2-Trifluoroethanol",
    "cn_name": "2,2,2-三氟乙醇;",
    "alternate_name": "Ethanol, 2,2,2-trifluoro-;2,2,2-Trifluoroethanol;β,β,β-Trifluoroethyl alcohol;2,2,2-Trifluoroethyl alcohol;TFE;NSC 451;2,2,2-Trifluoroethan-1-ol;MeSH ID: D014270",
    "duplicated_cas_no": "",
    "SMILES": "C(CO)(F)(F)F",
    "meta_data": {
        "InChI": "InChI=1S/C2H3F3O/c3-2(4,5)1-6/h6H,1H2",
        "InChIKey": null,
        "Canonical SMILES": "FC(F)(F)CO",
        "Molecular Formula": "C<sub>2</sub>H<sub>3</sub>F<sub>3</sub>O",
        "Molecular Mass": "100.04",
        "Boiling Point": "74 °C",
        "Melting Point": "-43.5 °C",
        "Density": "1.4106 g/cm³ @ Temp: 0 °C"
    }
}