{
    "cas_no": "882-59-7",
    "key_name": "2,2-Diphenyloxirane",
    "cn_name": null,
    "alternate_name": "Oxirane, 2,2-diphenyl-;Ethane, 1,2-epoxy-1,1-diphenyl-;2,2-Diphenyloxirane;α-Phenylstyrene oxide;1,1-Diphenylethylene oxide;1,1-Diphenylethene oxide",
    "duplicated_cas_no": "",
    "SMILES": "C1(CO1)(C2=CC=CC=C2)C3=CC=CC=C3",
    "meta_data": {
        "InChI": "InChI=1S/C14H12O/c1-3-7-12(8-4-1)14(11-15-14)13-9-5-2-6-10-13/h1-10H,11H2",
        "InChIKey": null,
        "Canonical SMILES": "O1CC1(C=2C=CC=CC2)C=3C=CC=CC3",
        "Molecular Formula": "C<sub>14</sub>H<sub>12</sub>O",
        "Molecular Mass": "196.24",
        "Boiling Point": "140-142 °C @ Press: 5 Torr",
        "Melting Point": "55-56 °C"
    }
}