{
    "cas_no": "29518-11-4",
    "key_name": "4-Phenyl-3-morpholinone",
    "cn_name": null,
    "alternate_name": "3-Morpholinone, 4-phenyl-;4-Phenyl-3-morpholinone",
    "duplicated_cas_no": "",
    "SMILES": "O=C1N(C2=CC=CC=C2)CCOC1",
    "meta_data": {
        "InChI": "InChI=1S/C10H11NO2/c12-10-8-13-7-6-11(10)9-4-2-1-3-5-9/h1-5H,6-8H2",
        "InChIKey": null,
        "Canonical SMILES": "O=C1N(C=2C=CC=CC2)CCOC1",
        "Molecular Formula": "C<sub>10</sub>H<sub>11</sub>NO<sub>2</sub>",
        "Molecular Mass": "177.20",
        "Melting Point": "113 °C"
    }
}