{
    "cas_no": "14634-93-6",
    "key_name": "(<em>T</em>-4)-Bis(<em>N</em>-ethyl-<em>N</em>-phenylcarbamodithioato-κ<em>S</em>,κ<em>S</em>′)zinc",
    "cn_name": "乙基苯基二硫代氨基甲酸锌;硫化促进剂PX;",
    "alternate_name": "Zinc, bis(<em>N</em>-ethyl-<em>N</em>-phenylcarbamodithioato-κ<em>S</em>,κ<em>S</em>′)-, (<em>T</em>-4)-;Zinc, bis(<em>N</em>-ethyldithiocarbanilato)-;Zinc, bis(ethylphenylcarbamodithioato-<em>S</em>,<em>S</em>′)-, (<em>T</em>-4)-;Zinc, bis(ethylphenylcarbamodithioato-κ<em>S</em>,κ<em>S</em>′)-, (<em>T</em>-4)-;Carbamodithioic acid, ethylphenyl-, zinc complex;(<em>T</em>-4)-Bis(<em>N</em>-ethyl-<em>N</em>-phenylcarbamodithioato-κ<em>S</em>,κ<em>S</em>′)zinc;Zinc ethylphenyldithiocarbamate;Carbamodithioic acid, ethylphenyl-, zinc salt;Zinc <em>N</em>-ethyl-<em>N</em>-phenyldithiocarbamate;Zinc bis(<em>N</em>-ethyl-<em>N</em>-phenyldithiocarbamate);Accelerator EFK;Hermat FEDK;Vulkacit P extra N;Nocceler PX;Vulkacit II extra N;Zinc phenylethyldithiocarbamate;Sanceler PX;Accelerator PX",
    "duplicated_cas_no": "2444-73-7;34001-72-4;38578-72-2;126657-25-8;187285-08-1;880359-14-8;1260237-20-4;2170418-21-8",
    "SMILES": "N(CC)(C=1[S-][Zn+2]2([S-]C(N(CC)C3=CC=CC=C3)=[S]2)[S]1)C4=CC=CC=C4",
    "meta_data": {
        "InChI": "InChI=1S/2C9H11NS2.Zn/c2*1-2-10(9(11)12)8-6-4-3-5-7-8;/h2*3-7H,2H2,1H3,(H,11,12);/q;;+2/p-2",
        "InChIKey": null,
        "Canonical SMILES": "[S]1=C([S-][Zn+2]12[S]=C([S-]2)N(C=3C=CC=CC3)CC)N(C=4C=CC=CC4)CC",
        "Molecular Formula": "C<sub>18</sub>H<sub>20</sub>N<sub>2</sub>S<sub>4</sub>Zn",
        "Molecular Mass": "",
        "Melting Point": "205 °C"
    }
}