{
    "cas_no": "20691-72-9",
    "key_name": "4-Iodo-2-nitrobenzenamine",
    "cn_name": "4-碘-2-硝基苯胺;",
    "alternate_name": "Benzenamine, 4-iodo-2-nitro-;Aniline, 4-iodo-2-nitro-;4-Iodo-2-nitrobenzenamine;4-Iodo-2-nitroaniline;2-Nitro-4-iodoaniline",
    "duplicated_cas_no": "",
    "SMILES": "N(=O)(=O)C1=C(N)C=CC(I)=C1",
    "meta_data": {
        "InChI": "InChI=1S/C6H5IN2O2/c7-4-1-2-5(8)6(3-4)9(10)11/h1-3H,8H2",
        "InChIKey": null,
        "Canonical SMILES": "O=N(=O)C1=CC(I)=CC=C1N",
        "Molecular Formula": "C<sub>6</sub>H<sub>5</sub>IN<sub>2</sub>O<sub>2</sub>",
        "Molecular Mass": "264.02",
        "Melting Point": "121-122 °C"
    }
}