{
    "cas_no": "14347-05-8",
    "key_name": "1-[3-Nitro-4-(phenylmethoxy)phenyl]ethanone",
    "cn_name": "4-苄氧基-3-硝基苯乙酮;4\"-苄氧基-3\"-硝基苯乙酮;",
    "alternate_name": "Ethanone, 1-[3-nitro-4-(phenylmethoxy)phenyl]-;Acetophenone, 4′-(benzyloxy)-3′-nitro-;1-[3-Nitro-4-(phenylmethoxy)phenyl]ethanone;4′-Benzyloxy-3′-nitroacetophenone;1-(4-Benzyloxy-3-nitrophenyl)ethanone;1-Acetyl-4-benzyloxy-3-nitrobenzene;1-[4-(Benzyloxy)-3-nitrophenyl]ethan-1-one",
    "duplicated_cas_no": "",
    "SMILES": "O(CC1=CC=CC=C1)C2=C(N(=O)=O)C=C(C(C)=O)C=C2",
    "meta_data": {
        "InChI": "InChI=1S/C15H13NO4/c1-11(17)13-7-8-15(14(9-13)16(18)19)20-10-12-5-3-2-4-6-12/h2-9H,10H2,1H3",
        "InChIKey": null,
        "Canonical SMILES": "O=C(C1=CC=C(OCC=2C=CC=CC2)C(=C1)N(=O)=O)C",
        "Molecular Formula": "C<sub>15</sub>H<sub>13</sub>NO<sub>4</sub>",
        "Molecular Mass": "271.27",
        "Melting Point": "134-136 °C"
    }
}