{
    "cas_no": "51338-27-3",
    "key_name": "Diclofop-methyl",
    "cn_name": "禾草灵;2-[4-(2,4-二氯苯氧基)苯氧基]丙酸甲酯;",
    "alternate_name": "Propanoic acid, 2-[4-(2,4-dichlorophenoxy)phenoxy]-, methyl ester;HOE 23408;Dichlorfop-methyl;Dichlofop-methyl;Diclofop-methyl;Illoxan;Hoelon;Hoegrass;Methyl 2[4-(2,4-dichlorophenoxy)phenoxy]propionate;Diclofop methyl ester;Methyl diclofop;(±)-Diclofop-methyl;Methyldichlofop;Avenoxan;Iloxan",
    "duplicated_cas_no": "51142-56-4;75045-48-6",
    "SMILES": "O(C1=C(Cl)C=C(Cl)C=C1)C2=CC=C(OC(C(OC)=O)C)C=C2",
    "meta_data": {
        "InChI": "InChI=1S/C16H14Cl2O4/c1-10(16(19)20-2)21-12-4-6-13(7-5-12)22-15-8-3-11(17)9-14(15)18/h3-10H,1-2H3",
        "InChIKey": null,
        "Canonical SMILES": "O=C(OC)C(OC1=CC=C(OC2=CC=C(Cl)C=C2Cl)C=C1)C",
        "Molecular Formula": "C<sub>16</sub>H<sub>14</sub>Cl<sub>2</sub>O<sub>4</sub>",
        "Molecular Mass": "341.19",
        "Boiling Point": "175-177 °C @ Press: 0.1 Torr",
        "Melting Point": "39-41 °C",
        "Density": "1.30 x 10⁻³ g/cm³ @ Temp: 40 °C"
    }
}