{
    "cas_no": "157810-81-6",
    "key_name": "Indinavir sulfate",
    "cn_name": "硫酸茚地那韦;(1(1S,2R),5(S))-2,3,5-三脱氧-N-(2,3-二氢-2-羟基-1H-茚-1-基)-5-[2-[[(1,1-二甲基乙基)氨基;",
    "alternate_name": "<span class=\"text-smallcaps\">D</span>-<em>erythro</em>-Pentonamide, 2,3,5-trideoxy-<em>N</em>-[(1<em>S</em>,2<em>R</em>)-2,3-dihydro-2-hydroxy-1<em>H</em>-inden-1-yl]-5-[(2<em>S</em>)-2-[[(1,1-dimethylethyl)amino]carbonyl]-4-(3-pyridinylmethyl)-1-piperazinyl]-2-(phenylmethyl)-, sulfate (1:1);<span class=\"text-smallcaps\">D</span>-<em>erythro</em>-Pentonamide, 2,3,5-trideoxy-<em>N</em>-(2,3-dihydro-2-hydroxy-1<em>H</em>-inden-1-yl)-5-[2-[[(1,1-dimethylethyl)amino]carbonyl]-4-(3-pyridinylmethyl)-1-piperazinyl]-2-(phenylmethyl)-, [1(1<em>S</em>,2<em>R</em>),5(<em>S</em>)]-, sulfate (1:1) (salt);<span class=\"text-smallcaps\">D</span>-<em>erythro</em>-Pentonamide, 2,3,5-trideoxy-<em>N</em>-[(1<em>S</em>,2<em>R</em>)-2,3-dihydro-2-hydroxy-1<em>H</em>-inden-1-yl]-5-[(2<em>S</em>)-2-[[(1,1-dimethylethyl)amino]carbonyl]-4-(3-pyridinylmethyl)-1-piperazinyl]-2-(phenylmethyl)-, sulfate (1:1) (salt);L 735524;Indinavir sulfate;MK 639;Crixivan",
    "duplicated_cas_no": "",
    "SMILES": "N(C([C@H](CC1=CC=CC=C1)C[C@@H](CN2[C@H](C(NC(C)(C)C)=O)CN(CC=3C=CC=NC3)CC2)O)=O)[C@H]4C=5C(C[C@H]4O)=CC=CC5.S(=O)(=O)(O)O",
    "meta_data": {
        "InChI": "InChI=1S/C36H47N5O4.H2O4S/c1-36(2,3)39-35(45)31-24-40(22-26-12-9-15-37-21-26)16-17-41(31)23-29(42)19-28(18-25-10-5-4-6-11-25)34(44)38-33-30-14-8-7-13-27(30)20-32(33)43;1-5(2,3)4/h4-15,21,28-29,31-33,42-43H,16-20,22-24H2,1-3H3,(H,38,44)(H,39,45);(H2,1,2,3,4)/t28-,29+,31+,32-,33+;/m1./s1",
        "InChIKey": null,
        "Canonical SMILES": "O=C(NC1C=2C=CC=CC2CC1O)C(CC=3C=CC=CC3)CC(O)CN4CCN(CC=5C=NC=CC5)CC4C(=O)NC(C)(C)C.O=S(=O)(O)O",
        "Molecular Formula": "C<sub>36</sub>H<sub>47</sub>N<sub>5</sub>O<sub>4</sub>.H<sub>2</sub>O<sub>4</sub>S",
        "Molecular Mass": "",
        "Melting Point": "150-153 °C (decomp)"
    }
}