{
    "cas_no": "5425-44-5",
    "key_name": "2-Phenyl-1,3-dithiane",
    "cn_name": "2-苯基-1,3-二噻烷;2-苯基-1,3-二噻烷;",
    "alternate_name": "1,3-Dithiane, 2-phenyl-;<em>m</em>-Dithiane, 2-phenyl-;2-Phenyl-1,3-dithiane;2-Phenyl-1,3-dithiacyclohexane;NSC 12763",
    "duplicated_cas_no": "",
    "SMILES": "C1(=CC=CC=C1)C2SCCCS2",
    "meta_data": {
        "InChI": "InChI=1S/C10H12S2/c1-2-5-9(6-3-1)10-11-7-4-8-12-10/h1-3,5-6,10H,4,7-8H2",
        "InChIKey": null,
        "Canonical SMILES": "S1CCCSC1C=2C=CC=CC2",
        "Molecular Formula": "C<sub>10</sub>H<sub>12</sub>S<sub>2</sub>",
        "Molecular Mass": "196.33",
        "Boiling Point": "150 °C @ Press: 0.3 Torr",
        "Melting Point": "71 °C"
    }
}