{
    "cas_no": "932-17-2",
    "key_name": "1-Acetyl-2-pyrrolidone",
    "cn_name": "1-乙酰-2-吡咯烷酮;N-乙酰基吡咯烷酮;",
    "alternate_name": "2-Pyrrolidinone, 1-acetyl-;1-Acetyl-2-pyrrolidinone;1-Acetylpyrrolidone;<em>N</em>-Acetylpyrrolidinone;<em>N</em>-Acetylpyrrolidone;<em>N</em>-Acetyl-2-pyrrolidinone;<em>N</em>-Acetyl-α-pyrrolidone;<em>N</em>-Acetyl-2-pyrrolidone;<em>N</em>-Acetyl-α-pyrrolidinone;1-Acetyl-2-pyrrolidone;<em>N</em>-Acetylbutyrolactam;NSC 50334",
    "duplicated_cas_no": "",
    "SMILES": "C(C)(=O)N1C(=O)CCC1",
    "meta_data": {
        "InChI": "InChI=1S/C6H9NO2/c1-5(8)7-4-2-3-6(7)9/h2-4H2,1H3",
        "InChIKey": null,
        "Canonical SMILES": "O=C(N1C(=O)CCC1)C",
        "Molecular Formula": "C<sub>6</sub>H<sub>9</sub>NO<sub>2</sub>",
        "Molecular Mass": "127.14",
        "Boiling Point": "118 °C @ Press: 20 Torr"
    }
}