{
    "cas_no": "677-69-0",
    "key_name": "Perfluoroisopropyl iodide",
    "cn_name": null,
    "alternate_name": "Propane, 1,1,1,2,3,3,3-heptafluoro-2-iodo-;Propane, heptafluoro-2-iodo-;1,1,1,2,3,3,3-Heptafluoro-2-iodopropane;Perfluoroisopropyl iodide;Heptafluoroisopropyl iodide;Heptafluoro-2-iodopropane;Perfluoro-2-iodopropane;2-Iodoheptafluoropropane;Isoheptafluoropropyliodide;2-Iodoperfluoropropane;Bis(trifluoromethyl)fluoroiodomethane;Fluoro(iodo)bis(trifluoromethyl)methane;2-Iodo-1,1,1,2,3,3,3-heptafluoropropane;1,1,1,2,3,3,3-Heptafluoropropan-2-yl iodide;1,1,1,2,3,3,3-Heptafluoro-2-propyl iodide",
    "duplicated_cas_no": "",
    "SMILES": "C(C(F)(F)F)(C(F)(F)F)(F)I",
    "meta_data": {
        "InChI": "InChI=1S/C3F7I/c4-1(11,2(5,6)7)3(8,9)10",
        "InChIKey": null,
        "Canonical SMILES": "FC(F)(F)C(F)(I)C(F)(F)F",
        "Molecular Formula": "C<sub>3</sub>F<sub>7</sub>I",
        "Molecular Mass": "295.93",
        "Boiling Point": "40 °C",
        "Density": "2.0990 g/cm³ @ Temp: 20 °C"
    }
}