{
    "cas_no": "7361-61-7",
    "key_name": "Xylazine",
    "cn_name": "赛拉嗪;甲苯噻嗪;甲苄噻嗪;N-(2,6-二甲基苯基)-5,6-二氢-4H-1,3-噻嗪-2-胺;",
    "alternate_name": "4<em>H</em>-1,3-Thiazin-2-amine, <em>N</em>-(2,6-dimethylphenyl)-5,6-dihydro-;4<em>H</em>-1,3-Thiazine, 5,6-dihydro-2-(2,6-xylidino)-;<em>N</em>-(2,6-Dimethylphenyl)-5,6-dihydro-4<em>H</em>-1,3-thiazin-2-amine;BAY 1470;Xylazine;2-(2,6-Dimethylphenylamino)-5,6-dihydro-4<em>H</em>-1,3-thiazine;Xylazin;Wh 7286;Primazine;Sedomin;Anased;Rometar;Xylazil;Xylaz;Cervizine 300;MeSH ID: D014991",
    "duplicated_cas_no": "29335-81-7",
    "SMILES": "N(C1=C(C)C=CC=C1C)C2=NCCCS2",
    "meta_data": {
        "InChI": "InChI=1S/C12H16N2S/c1-9-5-3-6-10(2)11(9)14-12-13-7-4-8-15-12/h3,5-6H,4,7-8H2,1-2H3,(H,13,14)",
        "InChIKey": null,
        "Canonical SMILES": "N1=C(SCCC1)NC=2C(=CC=CC2C)C",
        "Molecular Formula": "C<sub>12</sub>H<sub>16</sub>N<sub>2</sub>S",
        "Molecular Mass": "220.33",
        "Melting Point": "140 °C"
    }
}