{
    "cas_no": "699-92-3",
    "key_name": "1-(3-Fluoro-2-hydroxyphenyl)ethanone",
    "cn_name": null,
    "alternate_name": "Ethanone, 1-(3-fluoro-2-hydroxyphenyl)-;Acetophenone, 3′-fluoro-2′-hydroxy-;1-(3-Fluoro-2-hydroxyphenyl)ethanone;1-(5-Fluoro-6-hydroxyphenyl)ethanone;3′-Fluoro-2′-hydroxyacetophenone;2-Hydroxy-3-fluoroacetophenone;1-(3-Fluoro-2-hydroxyphenyl)ethan-1-one",
    "duplicated_cas_no": "",
    "SMILES": "C(C)(=O)C1=C(O)C(F)=CC=C1",
    "meta_data": {
        "InChI": "InChI=1S/C8H7FO2/c1-5(10)6-3-2-4-7(9)8(6)11/h2-4,11H,1H3",
        "InChIKey": null,
        "Canonical SMILES": "O=C(C=1C=CC=C(F)C1O)C",
        "Molecular Formula": "C<sub>8</sub>H<sub>7</sub>FO<sub>2</sub>",
        "Molecular Mass": "154.14",
        "Melting Point": "72-73 °C"
    }
}