{
    "cas_no": "15639-50-6",
    "key_name": "Safingol",
    "cn_name": "沙芬戈;",
    "alternate_name": "1,3-Octadecanediol, 2-amino-, (2<em>S</em>,3<em>S</em>)-;1,3-Octadecanediol, 2-amino-, <span class=\"text-smallcaps\">L</span>-<em>threo</em>-;1,3-Octadecanediol, 2-amino-, [<em>S</em>-(<em>R</em>*,<em>R</em>*)]-;(2<em>S</em>,3<em>S</em>)-2-Amino-1,3-octadecanediol;<span class=\"text-smallcaps\">L</span>-<em>threo</em>-2-Amino-1,3-octadecanediol;<span class=\"text-smallcaps\">L</span>-(-)-<em>threo</em>-Sphinganine;Safingol;SPC 100270;(-)-<em>threo</em>-Dihydrosphingosine;<span class=\"text-smallcaps\">L</span>-<em>Threo</em>-Dihydrosphingosine;<span class=\"text-smallcaps\">L</span>-<em>threo</em>-Safingol",
    "duplicated_cas_no": "",
    "SMILES": "C(CCCCCCCCCCCCCC)[C@@H]([C@H](CO)N)O",
    "meta_data": {
        "InChI": "InChI=1S/C18H39NO2/c1-2-3-4-5-6-7-8-9-10-11-12-13-14-15-18(21)17(19)16-20/h17-18,20-21H,2-16,19H2,1H3/t17-,18-/m0/s1",
        "InChIKey": null,
        "Canonical SMILES": "OCC(N)C(O)CCCCCCCCCCCCCCC",
        "Molecular Formula": "C<sub>18</sub>H<sub>39</sub>NO<sub>2</sub>",
        "Molecular Mass": "301.51",
        "Melting Point": "126-128 °C"
    }
}