{
    "cas_no": "60755-80-8",
    "key_name": "Sanguinine",
    "cn_name": null,
    "alternate_name": "6<em>H</em>-Benzofuro[3a,3,2-<em>ef</em>][2]benzazepine-3,6-diol, 4a,5,9,10,11,12-hexahydro-11-methyl-, (4a<em>S</em>,6<em>R</em>,8a<em>S</em>)-;Galanthamine, <em>O</em>-demethyl-;(4a<em>S</em>,6<em>R</em>,8a<em>S</em>)-4a,5,9,10,11,12-Hexahydro-11-methyl-6<em>H</em>-benzofuro[3a,3,2-<em>ef</em>][2]benzazepine-3,6-diol;6<em>H</em>-Benzofuro[3a,3,2-<em>ef</em>][2]benzazepine-3,6-diol, 4a,5,9,10,11,12-hexahydro-11-methyl-, [4a<em>S</em>-(4aα,6β,8a<em>R</em>*)]-;<em>O</em>-Demethylgalanthamine;Sanguinine",
    "duplicated_cas_no": "",
    "SMILES": "OC1=C2C=3[C@]4([C@@](O2)(C[C@@H](O)C=C4)[H])CCN(C)CC3C=C1",
    "meta_data": {
        "InChI": "InChI=1S/C16H19NO3/c1-17-7-6-16-5-4-11(18)8-13(16)20-15-12(19)3-2-10(9-17)14(15)16/h2-5,11,13,18-19H,6-9H2,1H3/t11-,13-,16-/m0/s1",
        "InChIKey": null,
        "Canonical SMILES": "OC1=CC=C2C3=C1OC4CC(O)C=CC34CCN(C)C2",
        "Molecular Formula": "C<sub>16</sub>H<sub>19</sub>NO<sub>3</sub>",
        "Molecular Mass": "273.33",
        "Melting Point": "209-212 °C"
    }
}