{
    "cas_no": "13446-49-6",
    "key_name": "Potassium molybdate",
    "cn_name": "钼酸钾;",
    "alternate_name": "Molybdate (MoO<sub>4</sub><sup>2-</sup>), potassium (1:2), (<em>T</em>-4)-;Molybdic acid (H<sub>2</sub>MoO<sub>4</sub>), dipotassium salt;Potassium molybdate(VI) (K<sub>2</sub>MoO<sub>4</sub>);Molybdate (MoO<sub>4</sub><sup>2-</sup>), dipotassium, (<em>T</em>-4)-;Dipotassium molybdate (K<sub>2</sub>MoO<sub>4</sub>);Molybdenum potassium oxide (MoK<sub>2</sub>O<sub>4</sub>);Potassium molybdate (K<sub>2</sub>MoO<sub>4</sub>);Dipotassium molybdate;Potassium molybdate;Potassium orthomolybdate;Dipotassium tetraoxomolybdate(2-);Dipotassium tetraoxomolybdate;Potassium molybdenum oxide (K<sub>2</sub>MoO<sub>4</sub>)",
    "duplicated_cas_no": "496040-92-7",
    "SMILES": "[Mo-2](=O)(=O)(=O)=O.[K+]",
    "meta_data": {
        "InChI": "InChI=1S/2K.Mo.4O/q2*+1;-2;;;;",
        "InChIKey": null,
        "Canonical SMILES": "[K+].O=[Mo-2](=O)(=O)=O",
        "Molecular Formula": "K.<sup>1</sup>/<sub>2</sub>MoO<sub>4</sub>",
        "Molecular Mass": "",
        "Melting Point": "920 °C"
    }
}