{
    "cas_no": "618-73-5",
    "key_name": "3,4,5-Trihydroxybenzamide",
    "cn_name": "3,4,5-三羟基苯甲酰胺;",
    "alternate_name": "Benzamide, 3,4,5-trihydroxy-;Gallamide;3,4,5-Trihydroxybenzamide;3,4,5-Trihydroxybenzoic acid amide;Gallic acid amide;NSC 1124",
    "duplicated_cas_no": "",
    "SMILES": "C(N)(=O)C1=CC(O)=C(O)C(O)=C1",
    "meta_data": {
        "InChI": "InChI=1S/C7H7NO4/c8-7(12)3-1-4(9)6(11)5(10)2-3/h1-2,9-11H,(H2,8,12)",
        "InChIKey": null,
        "Canonical SMILES": "O=C(N)C1=CC(O)=C(O)C(O)=C1",
        "Molecular Formula": "C<sub>7</sub>H<sub>7</sub>NO<sub>4</sub>",
        "Molecular Mass": "169.13",
        "Melting Point": "251-253 °C"
    }
}