{
    "cas_no": "15679-09-1",
    "key_name": "2-Ethylthiazole",
    "cn_name": "2-乙基噻唑;",
    "alternate_name": "Thiazole, 2-ethyl-;2-Ethylthiazole;2-Ethyl-1,3-thiazole",
    "duplicated_cas_no": "",
    "SMILES": "C(C)C1=NC=CS1",
    "meta_data": {
        "InChI": "InChI=1S/C5H7NS/c1-2-5-6-3-4-7-5/h3-4H,2H2,1H3",
        "InChIKey": null,
        "Canonical SMILES": "N=1C=CSC1CC",
        "Molecular Formula": "C<sub>5</sub>H<sub>7</sub>NS",
        "Molecular Mass": "113.18",
        "Boiling Point": "73-76 °C @ Press: 70 Torr"
    }
}