{
    "cas_no": "158966-92-8",
    "key_name": "Montelukast",
    "cn_name": "孟鲁司特;(R-(E))-1-(((1-(3-(2-(7-氯-2-喹啉基)乙烯基)苯基)-3-(2-(1-羟基-1-甲基乙基)苯基)丙基)硫)甲基);",
    "alternate_name": "Cyclopropaneacetic acid, 1-[[[(1<em>R</em>)-1-[3-[(1<em>E</em>)-2-(7-chloro-2-quinolinyl)ethenyl]phenyl]-3-[2-(1-hydroxy-1-methylethyl)phenyl]propyl]thio]methyl]-;Cyclopropaneacetic acid, 1-[[[1-[3-[2-(7-chloro-2-quinolinyl)ethenyl]phenyl]-3-[2-(1-hydroxy-1-methylethyl)phenyl]propyl]thio]methyl]-, [<em>R</em>-(<em>E</em>)]-;1-[[[(1<em>R</em>)-1-[3-[(1<em>E</em>)-2-(7-Chloro-2-quinolinyl)ethenyl]phenyl]-3-[2-(1-hydroxy-1-methylethyl)phenyl]propyl]thio]methyl]cyclopropaneacetic acid;Montelukast;2-[1-[[[(1<em>R</em>)-1-[3-[(1<em>E</em>)-2-(7-Chloro-2-quinolinyl)ethenyl]phenyl]-3-[2-(1-hydroxy-1-methylethyl)phenyl]propyl]thio]methyl]cyclopropyl]acetic acid;1-[[[(<em>R</em>)-1-[3-[(<em>E</em>)-2-(7-Chloro-2-quinolinyl)ethenyl]phenyl]-3-[2-(1-hydroxy-1-methylethyl)phenyl]propyl]thio]methyl]cyclopropaneacetic acid;[1-[[[(1R)-1-[3-[(E)-2-(7-Chloroquinolin-2-yl)vinyl]phenyl]-3-[2-(1-hydroxy-1-methylethyl)phenyl]propyl]sulfanyl]methyl]cyclopropyl]acetic acid;(R,E)-1-[[[1-[3-[2-(7-Chloro-2-quinolinyl)ethenyl]phenyl]-3-[2-(1-hydroxy-1-methylethyl)phenyl]propyl]thio]methyl]cyclopropaneacetic acid;Velukast",
    "duplicated_cas_no": "",
    "SMILES": "C(S[C@H](CCC1=C(C(C)(C)O)C=CC=C1)C2=CC(/C=C/C3=NC4=C(C=C3)C=CC(Cl)=C4)=CC=C2)C5(CC(O)=O)CC5",
    "meta_data": {
        "InChI": "InChI=1S/C35H36ClNO3S/c1-34(2,40)30-9-4-3-7-25(30)13-17-32(41-23-35(18-19-35)22-33(38)39)27-8-5-6-24(20-27)10-15-29-16-12-26-11-14-28(36)21-31(26)37-29/h3-12,14-16,20-21,32,40H,13,17-19,22-23H2,1-2H3,(H,38,39)/b15-10+/t32-/m1/s1",
        "InChIKey": null,
        "Canonical SMILES": "O=C(O)CC1(CSC(C=2C=CC=C(C=CC=3N=C4C=C(Cl)C=CC4=CC3)C2)CCC=5C=CC=CC5C(O)(C)C)CC1",
        "Molecular Formula": "C<sub>35</sub>H<sub>36</sub>ClNO<sub>3</sub>S",
        "Molecular Mass": "586.18",
        "Melting Point": "145-148 °C"
    }
}