{
    "cas_no": "2174-64-3",
    "key_name": "5-Methoxyresorcinol",
    "cn_name": null,
    "alternate_name": "1,3-Benzenediol, 5-methoxy-;Resorcinol, 5-methoxy-;5-Methoxy-1,3-benzenediol;1,3-Dihydroxy-5-methoxybenzene;Phloroglucinol monomethyl ether;<em>O</em>-Methylphloroglucinol;Flamenol;1-Methoxy-3,5-benzenediol;5-Methoxyresorcinol;Monomethylphloroglucinol;3-Hydroxy-5-methoxyphenol;3,5-Dihydroxyanisole;5-Methoxybenzene-1,3-diol",
    "duplicated_cas_no": "",
    "SMILES": "O(C)C1=CC(O)=CC(O)=C1",
    "meta_data": {
        "InChI": "InChI=1S/C7H8O3/c1-10-7-3-5(8)2-6(9)4-7/h2-4,8-9H,1H3",
        "InChIKey": null,
        "Canonical SMILES": "OC=1C=C(O)C=C(OC)C1",
        "Molecular Formula": "C<sub>7</sub>H<sub>8</sub>O<sub>3</sub>",
        "Molecular Mass": "140.14",
        "Boiling Point": "187-189 °C @ Press: 12 Torr",
        "Melting Point": "80.3 °C"
    }
}