{
    "cas_no": "348-57-2",
    "key_name": "1-Bromo-2,4-difluorobenzene",
    "cn_name": "1-溴-2,4-二氟苯;",
    "alternate_name": "Benzene, 1-bromo-2,4-difluoro-;1-Bromo-2,4-difluorobenzene;2,4-Difluorobromobenzene;2,4-Difluoro-1-bromobenzene;2,4-Difluorophenyl bromide;4-Bromo-1,3-difluorobenzene",
    "duplicated_cas_no": "",
    "SMILES": "FC1=C(Br)C=CC(F)=C1",
    "meta_data": {
        "InChI": "InChI=1S/C6H3BrF2/c7-5-2-1-4(8)3-6(5)9/h1-3H",
        "InChIKey": null,
        "Canonical SMILES": "FC1=CC=C(Br)C(F)=C1",
        "Molecular Formula": "C<sub>6</sub>H<sub>3</sub>BrF<sub>2</sub>",
        "Molecular Mass": "192.99",
        "Boiling Point": "146 °C",
        "Melting Point": "-8 °C"
    }
}