{
    "cas_no": "62936-23-6",
    "key_name": "3-Chloro-4-hydroxy-5-methoxybenzoic acid",
    "cn_name": "5-氯香草酸;",
    "alternate_name": "Benzoic acid, 3-chloro-4-hydroxy-5-methoxy-;Vanillic acid, 5-chloro-;3-Chloro-4-hydroxy-5-methoxybenzoic acid;5-Chlorovanillic acid;NSC 45930",
    "duplicated_cas_no": "",
    "SMILES": "O(C)C1=CC(C(O)=O)=CC(Cl)=C1O",
    "meta_data": {
        "InChI": "InChI=1S/C8H7ClO4/c1-13-6-3-4(8(11)12)2-5(9)7(6)10/h2-3,10H,1H3,(H,11,12)",
        "InChIKey": null,
        "Canonical SMILES": "O=C(O)C1=CC(Cl)=C(O)C(OC)=C1",
        "Molecular Formula": "C<sub>8</sub>H<sub>7</sub>ClO<sub>4</sub>",
        "Molecular Mass": "202.59",
        "Melting Point": "244-245 °C"
    }
}