{
    "cas_no": "63133-82-4",
    "key_name": "2-Chloro-4,6-dimethylbenzenamine",
    "cn_name": "2-氯-4,6-二甲基苯胺;",
    "alternate_name": "Benzenamine, 2-chloro-4,6-dimethyl-;2,4-Xylidine, 6-chloro-;2-Chloro-4,6-dimethylbenzenamine;2-Chloro-4,6-dimethylaniline;6-Chloro-2,4-xylidine;6-Chloro-2,4-dimethylaniline",
    "duplicated_cas_no": "",
    "SMILES": "NC1=C(C)C=C(C)C=C1Cl",
    "meta_data": {
        "InChI": "InChI=1S/C8H10ClN/c1-5-3-6(2)8(10)7(9)4-5/h3-4H,10H2,1-2H3",
        "InChIKey": null,
        "Canonical SMILES": "ClC=1C=C(C=C(C1N)C)C",
        "Molecular Formula": "C<sub>8</sub>H<sub>10</sub>ClN",
        "Molecular Mass": "155.62",
        "Boiling Point": "116-119 °C @ Press: 15 Torr",
        "Melting Point": "37-38 °C"
    }
}