{
    "cas_no": "1273-89-8",
    "key_name": "Ethylferrocene",
    "cn_name": "乙基二茂铁;",
    "alternate_name": "Ferrocene, ethyl-;Iron, cyclopentadienyl(ethylcyclopentadienyl)-;Ethylferrocene;1-Ethylferrocene;Monoethylferrocene",
    "duplicated_cas_no": "",
    "SMILES": "C(C)[C-]12[Fe+2]3456789([CH]1=[CH]3[CH]4=[CH]52)[CH-]%10[CH]6=[CH]7[CH]8=[CH]9%10",
    "meta_data": {
        "InChI": "InChI=1S/C7H9.C5H5.Fe/c1-2-7-5-3-4-6-7;1-2-4-5-3-1;/h3-6H,2H2,1H3;1-5H;/q2*-1;+2",
        "InChIKey": null,
        "Canonical SMILES": "CC[C-]12[CH]3=[CH]4[CH]5=[CH]1[Fe+2]67894532[CH]=%10[CH]9=[CH]8[CH-]7[CH]%106",
        "Molecular Formula": "C<sub>12</sub>H<sub>14</sub>Fe",
        "Molecular Mass": "",
        "Boiling Point": "108-109 °C @ Press: 5.5 Torr",
        "Density": "1.2469 g/cm³ @ Temp: 20.5 °C"
    }
}