{
    "cas_no": "392-25-6",
    "key_name": "1,3-Difluoro-2-methoxy-5-nitrobenzene",
    "cn_name": "2,6-二氟-4-硝基苯甲醚;",
    "alternate_name": "Benzene, 1,3-difluoro-2-methoxy-5-nitro-;Anisole, 2,6-difluoro-4-nitro-;1,3-Difluoro-2-methoxy-5-nitrobenzene;2,6-Difluoro-4-nitroanisole;3,5-Difluoro-4-methoxynitrobenzene",
    "duplicated_cas_no": "",
    "SMILES": "O(C)C1=C(F)C=C(N(=O)=O)C=C1F",
    "meta_data": {
        "InChI": "InChI=1S/C7H5F2NO3/c1-13-7-5(8)2-4(10(11)12)3-6(7)9/h2-3H,1H3",
        "InChIKey": null,
        "Canonical SMILES": "O=N(=O)C1=CC(F)=C(OC)C(F)=C1",
        "Molecular Formula": "C<sub>7</sub>H<sub>5</sub>F<sub>2</sub>NO<sub>3</sub>",
        "Molecular Mass": "189.12",
        "Boiling Point": "71 °C @ Press: 0.6 Torr",
        "Melting Point": "35 °C"
    }
}