{
    "cas_no": "90536-66-6",
    "key_name": "4-(Methylsulfonyl)phenylacetic acid",
    "cn_name": null,
    "alternate_name": "Benzeneacetic acid, 4-(methylsulfonyl)-;Acetic acid, [<em>p</em>-(methylsulfonyl)phenyl]-;4-(Methylsulfonyl)benzeneacetic acid;4-Mesylphenylacetic acid;4-(Methylsulfonyl)phenylacetic acid;(4-Methanesulfonylphenyl)acetic acid;2-[4-(Methylsulfonyl)phenyl]acetic acid;2-(4-(Methanesulfonyl)phenyl)acetic acid",
    "duplicated_cas_no": "",
    "SMILES": "S(C)(=O)(=O)C1=CC=C(CC(O)=O)C=C1",
    "meta_data": {
        "InChI": "InChI=1S/C9H10O4S/c1-14(12,13)8-4-2-7(3-5-8)6-9(10)11/h2-5H,6H2,1H3,(H,10,11)",
        "InChIKey": null,
        "Canonical SMILES": "O=C(O)CC1=CC=C(C=C1)S(=O)(=O)C",
        "Molecular Formula": "C<sub>9</sub>H<sub>10</sub>O<sub>4</sub>S",
        "Molecular Mass": "214.24",
        "Melting Point": "137 °C"
    }
}