{
    "cas_no": "7012-37-5",
    "key_name": "2,4,4′-Trichlorobiphenyl",
    "cn_name": "2,4,4′-三氯联苯;2,4,4′-三氯联苯;",
    "alternate_name": "1,1′-Biphenyl, 2,4,4′-trichloro-;Biphenyl, 2,4,4′-trichloro-;2,4,4′-Trichloro-1,1′-biphenyl;2,4,4′-Trichlorobiphenyl;4,2′,4′-Trichloro-1,1′-biphenyl;2′,4,4′-Trichlorobiphenyl;PCB 28;4,2′,4′-Trichlorobiphenyl;K 28;CB 28;2,4,4′-PCB;2,4-Dichloro-1-(4-chlorophenyl)benzene",
    "duplicated_cas_no": "",
    "SMILES": "ClC1=C(C2=CC=C(Cl)C=C2)C=CC(Cl)=C1",
    "meta_data": {
        "InChI": "InChI=1S/C12H7Cl3/c13-9-3-1-8(2-4-9)11-6-5-10(14)7-12(11)15/h1-7H",
        "InChIKey": null,
        "Canonical SMILES": "ClC=1C=CC(=CC1)C2=CC=C(Cl)C=C2Cl",
        "Molecular Formula": "C<sub>12</sub>H<sub>7</sub>Cl<sub>3</sub>",
        "Molecular Mass": "257.54",
        "Melting Point": "56 °C"
    }
}