{
    "cas_no": "455-69-6",
    "key_name": "Methyl 2-fluoro-4-pyridinecarboxylate",
    "cn_name": null,
    "alternate_name": "4-Pyridinecarboxylic acid, 2-fluoro-, methyl ester;Isonicotinic acid, 2-fluoro-, methyl ester;Methyl 2-fluoro-4-pyridinecarboxylate;NSC 402994;Methyl 2-fluoroisonicotinate",
    "duplicated_cas_no": "",
    "SMILES": "C(OC)(=O)C=1C=C(F)N=CC1",
    "meta_data": {
        "InChI": "InChI=1S/C7H6FNO2/c1-11-7(10)5-2-3-9-6(8)4-5/h2-4H,1H3",
        "InChIKey": null,
        "Canonical SMILES": "O=C(OC)C=1C=CN=C(F)C1",
        "Molecular Formula": "C<sub>7</sub>H<sub>6</sub>FNO<sub>2</sub>",
        "Molecular Mass": "155.13",
        "Boiling Point": "82-85 °C @ Press: 8 Torr"
    }
}