{
    "cas_no": "27607-77-8",
    "key_name": "Trimethylsilyl triflate",
    "cn_name": "三氟甲磺酸三甲基硅酯;",
    "alternate_name": "Methanesulfonic acid, 1,1,1-trifluoro-, trimethylsilyl ester;Methanesulfonic acid, trifluoro-, trimethylsilyl ester;Silanol, trimethyl-, trifluoromethanesulfonate;Trimethylsilyl trifluoromethanesulfonate;Trimethylsilyl trifluoromethylsulfonate;Trimethylsilyl triflate;Trimethylsilanol trifluoromethanesulfonate;Trifluoromethanesulfonic acid trimethylsilyl ester;Trimethylsilyl trfluoromethanesulfonate;TMSOTf;F-CP 74",
    "duplicated_cas_no": "88188-06-1",
    "SMILES": "S(O[Si](C)(C)C)(C(F)(F)F)(=O)=O",
    "meta_data": {
        "InChI": "InChI=1S/C4H9F3O3SSi/c1-12(2,3)10-11(8,9)4(5,6)7/h1-3H3",
        "InChIKey": null,
        "Canonical SMILES": "O=S(=O)(O[Si](C)(C)C)C(F)(F)F",
        "Molecular Formula": "C<sub>4</sub>H<sub>9</sub>F<sub>3</sub>O<sub>3</sub>SSi",
        "Molecular Mass": "222.26",
        "Boiling Point": "140 °C",
        "Melting Point": "&lt;25 °C",
        "Density": "1.225 g/cm³"
    }
}