{
    "cas_no": "93-55-0",
    "key_name": "Propiophenone",
    "cn_name": "苯丙酮;",
    "alternate_name": "1-Propanone, 1-phenyl-;Propiophenone;1-Phenyl-1-propanone;Ethyl phenyl ketone;Phenyl ethyl ketone;Propionylbenzene;NSC 16937;Propriophenone",
    "duplicated_cas_no": "",
    "SMILES": "C(CC)(=O)C1=CC=CC=C1",
    "meta_data": {
        "InChI": "InChI=1S/C9H10O/c1-2-9(10)8-6-4-3-5-7-8/h3-7H,2H2,1H3",
        "InChIKey": null,
        "Canonical SMILES": "O=C(C=1C=CC=CC1)CC",
        "Molecular Formula": "C<sub>9</sub>H<sub>10</sub>O",
        "Molecular Mass": "134.18",
        "Boiling Point": "218.0 °C @ Press: 760 Torr",
        "Melting Point": "21 °C",
        "Density": "1.008 g/cm³ @ Temp: 16 °C"
    }
}