{
    "cas_no": "1516-80-9",
    "key_name": "1,1′,1′′-(Ethoxysilylidyne)tris[benzene]",
    "cn_name": "乙氧基三苯基硅烷;",
    "alternate_name": "Benzene, 1,1′,1′′-(ethoxysilylidyne)tris-;Silane, ethoxytriphenyl-;1,1′,1′′-(Ethoxysilylidyne)tris[benzene];Triphenylethoxysilane;Ethoxytriphenylsilane;Ethyl triphenylsilyl ether;Triphenylsiliconethoxide;NSC 93020;LS 6690",
    "duplicated_cas_no": "",
    "SMILES": "[Si](OCC)(C1=CC=CC=C1)(C2=CC=CC=C2)C3=CC=CC=C3",
    "meta_data": {
        "InChI": "InChI=1S/C20H20OSi/c1-2-21-22(18-12-6-3-7-13-18,19-14-8-4-9-15-19)20-16-10-5-11-17-20/h3-17H,2H2,1H3",
        "InChIKey": null,
        "Canonical SMILES": "O(CC)[Si](C=1C=CC=CC1)(C=2C=CC=CC2)C=3C=CC=CC3",
        "Molecular Formula": "C<sub>20</sub>H<sub>20</sub>OSi",
        "Molecular Mass": "304.46",
        "Boiling Point": "344 °C",
        "Melting Point": "65 °C"
    }
}