{
    "cas_no": "127-27-5",
    "key_name": "Pimaric acid",
    "cn_name": "海松酸;",
    "alternate_name": "1-Phenanthrenecarboxylic acid, 7-ethenyl-1,2,3,4,4a,4b,5,6,7,9,10,10a-dodecahydro-1,4a,7-trimethyl-, (1<em>R</em>,4a<em>R</em>,4b<em>S</em>,7<em>S</em>,10a<em>R</em>)-;Podocarp-8(14)-en-15-oic acid, 13α-methyl-13-vinyl-;1-Phenanthrenecarboxylic acid, 7-ethenyl-1,2,3,4,4a,4b,5,6,7,9,10,10a-dodecahydro-1,4a,7-trimethyl-, [1<em>R</em>-(1α,4aβ,4bα,7β,10aα)]-;(1<em>R</em>,4a<em>R</em>,4b<em>S</em>,7<em>S</em>,10a<em>R</em>)-7-Ethenyl-1,2,3,4,4a,4b,5,6,7,9,10,10a-dodecahydro-1,4a,7-trimethyl-1-phenanthrenecarboxylic acid;Dextropimaric acid;13α-Methyl-13-vinylpodocarp-8(14)-en-15-oic acid;Pimara-8(14),15-dien-19-oic acid;Pimaric acid;<em>d</em>-Pimaric acid;α-Pimaric acid;Δ<sup>8(14)</sup>-Pimaric acid;8(14),15-Pimaradien-18-oic acid;NSC 2956",
    "duplicated_cas_no": "26341-61-7",
    "SMILES": "C[C@@]12[C@]([C@@](C(O)=O)(C)CCC1)(CCC=3[C@@]2(CC[C@](C=C)(C)C3)[H])[H]",
    "meta_data": {
        "InChI": "InChI=1S/C20H30O2/c1-5-18(2)12-9-15-14(13-18)7-8-16-19(15,3)10-6-11-20(16,4)17(21)22/h5,13,15-16H,1,6-12H2,2-4H3,(H,21,22)/t15-,16+,18+,19+,20+/m0/s1",
        "InChIKey": null,
        "Canonical SMILES": "O=C(O)C1(C)CCCC2(C)C3C(=CC(C=C)(C)CC3)CCC12",
        "Molecular Formula": "C<sub>20</sub>H<sub>30</sub>O<sub>2</sub>",
        "Molecular Mass": "302.45",
        "Boiling Point": "282 °C @ Press: 16-20 Torr",
        "Melting Point": "218.5 °C"
    }
}