{
    "cas_no": "3737-09-5",
    "key_name": "Disopyramide",
    "cn_name": "双异丙吡胺;丙吡胺;达舒平;异脉定;",
    "alternate_name": "2-Pyridineacetamide, α-[2-[bis(1-methylethyl)amino]ethyl]-α-phenyl-;2-Pyridineacetamide, α-[2-(diisopropylamino)ethyl]-α-phenyl-;α-[2-[Bis(1-methylethyl)amino]ethyl]-α-phenyl-2-pyridineacetamide;SC 7031;α-[2-(Diisopropylamino)ethyl]-α-phenyl-2-pyridineacetamide;4-Diisopropylamino-2-phenyl-2-(2-pyridyl)butyramide;Disopyramide;H 3292;Dicorantil;Searle 703;(±)-Disopyramide;<em>dl</em>-Disopyramide;(<em>RS</em>)-disopyramide;Ritmilen;Lispine;Isorythm;Ritmodan;MeSH ID: D004206",
    "duplicated_cas_no": "74427-45-5",
    "SMILES": "C(CCN(C(C)C)C(C)C)(C(N)=O)(C1=CC=CC=C1)C2=CC=CC=N2",
    "meta_data": {
        "InChI": "InChI=1S/C21H29N3O/c1-16(2)24(17(3)4)15-13-21(20(22)25,18-10-6-5-7-11-18)19-12-8-9-14-23-19/h5-12,14,16-17H,13,15H2,1-4H3,(H2,22,25)",
        "InChIKey": null,
        "Canonical SMILES": "O=C(N)C(C1=NC=CC=C1)(C=2C=CC=CC2)CCN(C(C)C)C(C)C",
        "Molecular Formula": "C<sub>21</sub>H<sub>29</sub>N<sub>3</sub>O",
        "Molecular Mass": "339.47",
        "Melting Point": "94.5-95 °C"
    }
}