{
    "cas_no": "4790-08-3",
    "key_name": "5,6-Dihydroxyindole-2-carboxylic acid",
    "cn_name": null,
    "alternate_name": "1<em>H</em>-Indole-2-carboxylic acid, 5,6-dihydroxy-;Indole-2-carboxylic acid, 5,6-dihydroxy-;5,6-Dihydroxy-1<em>H</em>-indole-2-carboxylic acid;5,6-Dihydroxyindole-2-carboxylic acid;2-Carboxy-5,6-dihydroxyindole;5,6-Dihydroxy-2-carboxyindole",
    "duplicated_cas_no": "",
    "SMILES": "C(O)(=O)C1=CC=2C(N1)=CC(O)=C(O)C2",
    "meta_data": {
        "InChI": "InChI=1S/C9H7NO4/c11-7-2-4-1-6(9(13)14)10-5(4)3-8(7)12/h1-3,10-12H,(H,13,14)",
        "InChIKey": null,
        "Canonical SMILES": "O=C(O)C1=CC=2C=C(O)C(O)=CC2N1",
        "Molecular Formula": "C<sub>9</sub>H<sub>7</sub>NO<sub>4</sub>",
        "Molecular Mass": "193.16",
        "Melting Point": "234 °C (decomp)"
    }
}