{
    "cas_no": "21511-25-1",
    "key_name": "Geraldol",
    "cn_name": null,
    "alternate_name": "4<em>H</em>-1-Benzopyran-4-one, 3,7-dihydroxy-2-(4-hydroxy-3-methoxyphenyl)-;Flavone, 3,4′,7-trihydroxy-3′-methoxy-;3,7-Dihydroxy-2-(4-hydroxy-3-methoxyphenyl)-4<em>H</em>-1-benzopyran-4-one;Geraldol;3′-Methoxy-3,7,4′-trihydroxyflavone",
    "duplicated_cas_no": "",
    "SMILES": "OC1=C(OC=2C(C1=O)=CC=C(O)C2)C3=CC(OC)=C(O)C=C3",
    "meta_data": {
        "InChI": "InChI=1S/C16H12O6/c1-21-13-6-8(2-5-11(13)18)16-15(20)14(19)10-4-3-9(17)7-12(10)22-16/h2-7,17-18,20H,1H3",
        "InChIKey": null,
        "Canonical SMILES": "O=C1C(O)=C(OC2=CC(O)=CC=C12)C=3C=CC(O)=C(OC)C3",
        "Molecular Formula": "C<sub>16</sub>H<sub>12</sub>O<sub>6</sub>",
        "Molecular Mass": "300.26",
        "Melting Point": "307-308 °C"
    }
}