{
    "cas_no": "21709-90-0",
    "key_name": "Propionylglycine",
    "cn_name": null,
    "alternate_name": "Glycine, <em>N</em>-(1-oxopropyl)-;Glycine, <em>N</em>-propionyl-;<em>N</em>-(1-Oxopropyl)glycine;Propionylglycine;<em>N</em>-Propionylglycine;NSC 158539;(Propionylamino)acetic acid;2-(Propionamido)acetic acid;2-(Propanoylamino)acetic acid;2-Propanamidoacetic acid",
    "duplicated_cas_no": "",
    "SMILES": "C(NCC(O)=O)(CC)=O",
    "meta_data": {
        "InChI": "InChI=1S/C5H9NO3/c1-2-4(7)6-3-5(8)9/h2-3H2,1H3,(H,6,7)(H,8,9)",
        "InChIKey": null,
        "Canonical SMILES": "O=C(O)CNC(=O)CC",
        "Molecular Formula": "C<sub>5</sub>H<sub>9</sub>NO<sub>3</sub>",
        "Molecular Mass": "131.13",
        "Melting Point": "126-127 °C"
    }
}