{
    "cas_no": "927-63-9",
    "key_name": "3-(Dimethylamino)-2-propenal",
    "cn_name": "3-二甲氨基丙烯醛;N,N-(二甲氨基)丙烯醛;",
    "alternate_name": "2-Propenal, 3-(dimethylamino)-;Acrolein, 3-(dimethylamino)-;3-(Dimethylamino)-2-propenal;4-Dimethylamino-2-propen-1-al;β-(Dimethylamino)acrolein;3-(Dimethylamino)acrolein;3-(Dimethylamino)propenal;3-(Dimethylamino)acrylaldehyde",
    "duplicated_cas_no": "",
    "SMILES": "C(N(C)C)=CC=O",
    "meta_data": {
        "InChI": "InChI=1S/C5H9NO/c1-6(2)4-3-5-7/h3-5H,1-2H3",
        "InChIKey": null,
        "Canonical SMILES": "O=CC=CN(C)C",
        "Molecular Formula": "C<sub>5</sub>H<sub>9</sub>NO",
        "Molecular Mass": "99.13",
        "Boiling Point": "143-144 °C @ Press: 10-11 Torr"
    }
}