{
    "cas_no": "7545-50-8",
    "key_name": "ABPS",
    "cn_name": "3,3\"-二氨基-4,4\"-二羟基二苯砜;3,3\"-二氨基双酚S;",
    "alternate_name": "Phenol, 4,4′-sulfonylbis[2-amino-;4,4′-Sulfonylbis[2-aminophenol];3,3′-Diamino-4,4′-dihydroxydiphenyl sulfone;Bis(3-amino-4-hydroxyphenyl)sulfone;4,4′-Sulfonylbis(<em>o</em>-aminophenol);2,2′-Diamino-4,4′-sulfonyldiphenol;NSC 155173;2,2′-Bis(3-amino-4-hydroxyphenyl) sulfone;ABPS;4,4′-Dihydroxy-3,3′-diaminophenylsulfone;DABS;2-Amino-4-(3-amino-4-hydroxyphenyl)sulfonylphenol",
    "duplicated_cas_no": "",
    "SMILES": "S(=O)(=O)(C1=CC(N)=C(O)C=C1)C2=CC(N)=C(O)C=C2",
    "meta_data": {
        "InChI": "InChI=1S/C12H12N2O4S/c13-9-5-7(1-3-11(9)15)19(17,18)8-2-4-12(16)10(14)6-8/h1-6,15-16H,13-14H2",
        "InChIKey": null,
        "Canonical SMILES": "O=S(=O)(C1=CC=C(O)C(N)=C1)C2=CC=C(O)C(N)=C2",
        "Molecular Formula": "C<sub>12</sub>H<sub>12</sub>N<sub>2</sub>O<sub>4</sub>S",
        "Molecular Mass": "280.30",
        "Melting Point": "227-228 °C (decomp)"
    }
}