{
    "cas_no": "7440-54-2",
    "key_name": "Gadolinium",
    "cn_name": "镓;GD;",
    "alternate_name": "Gadolinium;Gado CELLTrack;MeSH ID: D005682",
    "duplicated_cas_no": "110123-54-1;87677-94-9;881842-03-1",
    "SMILES": "[Gd]",
    "meta_data": {
        "InChI": "InChI=1S/Gd",
        "InChIKey": null,
        "Canonical SMILES": "[Gd]",
        "Molecular Formula": "Gd",
        "Molecular Mass": "",
        "Melting Point": "1313 °C (polymorph)",
        "Density": "4.71 g/cm³"
    }
}