{
    "cas_no": "333-41-5",
    "key_name": "Diazinon",
    "cn_name": "二嗪农;地亚农;二嗪磷;O,O-二乙基-O-(2-异丙基-4-甲基嘧啶-6-基)硫代磷酸酯;",
    "alternate_name": "Phosphorothioic acid, <em>O</em>,<em>O</em>-diethyl <em>O</em>-[6-methyl-2-(1-methylethyl)-4-pyrimidinyl] ester;Phosphorothioic acid, <em>O</em>,<em>O</em>-diethyl <em>O</em>-(2-isopropyl-6-methyl-4-pyrimidinyl) ester;Phosphorothioic acid, <em>O</em>,<em>O</em>-diethyl 2-isopropyl-6-methyl-4-pyrimidinyl ester;G 301;ENT 19,507;G 24480;Diazinon;<em>O</em>,<em>O</em>-Diethyl <em>O</em>-(2-isopropyl-6-methyl-4-pyrimidinyl) phosphorothioate;Spectracide;Basudin;Sarolex;Basudin 10G;<em>O</em>,<em>O</em>-Diethyl <em>O</em>-(2-isopropyl-4-methyl-6-pyrimidyl) thionophosphate;ENT 19507;<em>O</em>,<em>O</em>-Diethyl <em>O</em>-(2-isopropyl-4-methyl-6-pyrimidinyl) phosphorothioate;Basudin 5G;Diazinon AG 500;<em>O</em>,<em>O</em>-Diethyl-<em>O</em>-(2-isopropyl-4-methyl-6-pyrimidyl) thiophosphate;Dimpylate;Garden Tox;Diethyl 2-isopropyl-4-methyl-6-pyrimidyl thionophosphate;Ciazinon;Dicid;Exodin;Flytrol;Dimpylat;Antigal;Dacutox;Dassitox;Galesan;Neocidol;Neocidol (oil);Oleodiazinon;Diethyl 2-isopropyl-4-methyl-6-pyrimidinyl phosphorothionate;Spectracide 25EC;Knox-out;Meodinon;Bassadinon;Disonex;Basudin S;Bazanon;Compass;Knox Out 2FM;Dizictol;Delzinon;Dazzel;Optimizer;Terminator;Diazinon 4E;Drawizon;Topclip 40;Dizinil;Compass (insecticide);Topclip Blue Shield;KFM Blowfly Dressing;Kleen-Dok;Topclip Blue;Cooper's Flystrike Powder;NSC 8938;Evict;Ortho Diazinon Ultra;Hi-Yield Imported Fire Ant Killer;Diazinon G;Basudin 600 EW;Dew 600EW;Nasr-Cidol;Akate Suro;MeSH ID: D003976",
    "duplicated_cas_no": "27936-40-9;30583-38-1;65863-03-8",
    "SMILES": "O(P(OCC)(OCC)=S)C1=NC(C(C)C)=NC(C)=C1",
    "meta_data": {
        "InChI": "InChI=1S/C12H21N2O3PS/c1-6-15-18(19,16-7-2)17-11-8-10(5)13-12(14-11)9(3)4/h8-9H,6-7H2,1-5H3",
        "InChIKey": null,
        "Canonical SMILES": "S=P(OC=1N=C(N=C(C1)C)C(C)C)(OCC)OCC",
        "Molecular Formula": "C<sub>12</sub>H<sub>21</sub>N<sub>2</sub>O<sub>3</sub>PS",
        "Molecular Mass": "304.35",
        "Boiling Point": "83-84 °C @ Press: 2 x 10<sup>-3</sup> Torr",
        "Melting Point": "&lt;25 °C",
        "Density": "1.116-1.118 g/cm³ @ Temp: 20 °C"
    }
}