{
    "cas_no": "705254-34-8",
    "key_name": "Borate(1-), trifluoro[4-(methoxycarbonyl)phenyl]-, potassium (1:1), (<em>T</em>-4)-",
    "cn_name": null,
    "alternate_name": "Borate(1-), trifluoro[4-(methoxycarbonyl)phenyl]-, potassium (1:1), (<em>T</em>-4)-;Borate(1-), trifluoro[4-(methoxycarbonyl)phenyl]-, potassium, (<em>T</em>-4)-;Potassium (4-methoxycarbonylphenyl)trifluoroborate",
    "duplicated_cas_no": "",
    "SMILES": "[B+3]([F-])([F-])([F-])[C-]=1C=CC(C(OC)=O)=CC1.[K+]",
    "meta_data": {
        "InChI": "InChI=1S/C8H7BF3O2.K/c1-14-8(13)6-2-4-7(5-3-6)9(10,11)12;/h2-5H,1H3;/q-1;+1",
        "InChIKey": null,
        "Canonical SMILES": "[K+].O=C(OC)C1=CC=[C-](C=C1)[B+3]([F-])([F-])[F-]",
        "Molecular Formula": "C<sub>8</sub>H<sub>7</sub>BF<sub>3</sub>O<sub>2</sub>.K",
        "Molecular Mass": "",
        "Melting Point": "&gt;225 °C"
    }
}