{
    "cas_no": "22364-68-7",
    "key_name": "2-Methylphenylacetonitrile",
    "cn_name": "邻甲基苯乙腈;2-甲基苯乙腈;",
    "alternate_name": "Benzeneacetonitrile, 2-methyl-;Acetonitrile, <em>o</em>-tolyl-;2-Methylbenzeneacetonitrile;<em>o</em>-Tolylacetonitrile;2-Methylbenzyl cyanide;<em>o</em>-Methylphenylacetonitrile;2-Methylphenylacetonitrile;<em>o</em>-Methylbenzyl cyanide;<em>o</em>-Methylbenzyl nitrile;NSC 75859;2-(<em>o</em>-Tolyl)acetonitrile;2-(2-Methylphenyl)acetonitrile",
    "duplicated_cas_no": "",
    "SMILES": "C(C#N)C1=C(C)C=CC=C1",
    "meta_data": {
        "InChI": "InChI=1S/C9H9N/c1-8-4-2-3-5-9(8)6-7-10/h2-5H,6H2,1H3",
        "InChIKey": null,
        "Canonical SMILES": "N#CCC=1C=CC=CC1C",
        "Molecular Formula": "C<sub>9</sub>H<sub>9</sub>N",
        "Molecular Mass": "131.17",
        "Boiling Point": "244 °C",
        "Melting Point": "142-143 °C"
    }
}