{
    "cas_no": "59867-68-4",
    "key_name": "2,2-Dichloro-4-phenoxyacetophenone",
    "cn_name": "4-苯氧基-2\",2\"-二氯苯乙酮;(4-(2\",2\"-二氯乙酰基))二苯醚;",
    "alternate_name": "Ethanone, 2,2-dichloro-1-(4-phenoxyphenyl)-;Acetophenone, 2,2-dichloro-4′-phenoxy-;2,2-Dichloro-1-(4-phenoxyphenyl)ethanone;4′-Phenoxy-2,2-dichloroacetophenone;Sandoray 1000;α,α-Dichloro-4-phenoxyacetophenone;2,2-Dichloro-4-phenoxyacetophenone;2,2-Dichloro-1-(4-phenoxyphenyl)ethan-1-one",
    "duplicated_cas_no": "67775-25-1",
    "SMILES": "C(C(Cl)Cl)(=O)C1=CC=C(OC2=CC=CC=C2)C=C1",
    "meta_data": {
        "InChI": "InChI=1S/C14H10Cl2O2/c15-14(16)13(17)10-6-8-12(9-7-10)18-11-4-2-1-3-5-11/h1-9,14H",
        "InChIKey": null,
        "Canonical SMILES": "O=C(C1=CC=C(OC=2C=CC=CC2)C=C1)C(Cl)Cl",
        "Molecular Formula": "C<sub>14</sub>H<sub>10</sub>Cl<sub>2</sub>O<sub>2</sub>",
        "Molecular Mass": "281.13",
        "Melting Point": "67-69 °C"
    }
}