{
    "cas_no": "4414-88-4",
    "key_name": "1<em>H</em>-Benzimidazole-2-acetonitrile",
    "cn_name": "2-氰甲基苯并咪唑;",
    "alternate_name": "1<em>H</em>-Benzimidazole-2-acetonitrile;2-Benzimidazoleacetonitrile;(2-Benzimidazolyl)acetonitrile;2-(Cyanomethyl)benzimidazole;2-Benzimidazolacetonitrile;NSC 525203;(1<em>H</em>-Benzimidazol-2-yl)acetonitrile;1-H-Benzoimidazol-2-yl-acetonitrile;2-Cyanomethylbenz[<em>d</em>]imidazole;2-(1<em>H</em>-Benzimidazol-2-yl)acetonitrile;2-(1<em>H</em>-Benzo[<em>d</em>]imidazol-2-yl)acetonitrile;(1<em>H</em>-Benzoimidazol-2-yl)-acetonitrile;2-(1<em>H</em>-1,3-Benzodiazol-2-yl)acetonitrile",
    "duplicated_cas_no": "77772-12-4",
    "SMILES": "C(C#N)C=1NC=2C(N1)=CC=CC2",
    "meta_data": {
        "InChI": "InChI=1S/C9H7N3/c10-6-5-9-11-7-3-1-2-4-8(7)12-9/h1-4H,5H2,(H,11,12)",
        "InChIKey": null,
        "Canonical SMILES": "N#CCC1=NC=2C=CC=CC2N1",
        "Molecular Formula": "C<sub>9</sub>H<sub>7</sub>N<sub>3</sub>",
        "Molecular Mass": "157.17",
        "Melting Point": "209.7-210.7 °C"
    }
}