{
    "cas_no": "529-40-8",
    "key_name": "Ombuin",
    "cn_name": null,
    "alternate_name": "4<em>H</em>-1-Benzopyran-4-one, 3,5-dihydroxy-2-(3-hydroxy-4-methoxyphenyl)-7-methoxy-;Flavone, 3,3′,5-trihydroxy-4′,7-dimethoxy-;Ombuin;3,5-Dihydroxy-2-(3-hydroxy-4-methoxyphenyl)-7-methoxy-4<em>H</em>-1-benzopyran-4-one;Quercetin 7,4′-dimethyl ether;4′,7-Dimethylquercetin;Ombuine;3,5,3′-Trihydroxy-7,4′-dimethoxyflavone;NSC 675952;Quercetin 4′,7-dimethyl ether",
    "duplicated_cas_no": "",
    "SMILES": "O=C1C=2C(OC(=C1O)C3=CC(O)=C(OC)C=C3)=CC(OC)=CC2O",
    "meta_data": {
        "InChI": "InChI=1S/C17H14O7/c1-22-9-6-11(19)14-13(7-9)24-17(16(21)15(14)20)8-3-4-12(23-2)10(18)5-8/h3-7,18-19,21H,1-2H3",
        "InChIKey": null,
        "Canonical SMILES": "O=C1C(O)=C(OC2=CC(OC)=CC(O)=C12)C=3C=CC(OC)=C(O)C3",
        "Molecular Formula": "C<sub>17</sub>H<sub>14</sub>O<sub>7</sub>",
        "Molecular Mass": "330.29",
        "Melting Point": "229-230 °C"
    }
}