{
    "cas_no": "2305-79-5",
    "key_name": "4,5,6,7-Tetrahydro-1<em>H</em>-indazole",
    "cn_name": "4,5,6,7-四氢吲唑;4,5,6,7-四氰吲唑;",
    "alternate_name": "1<em>H</em>-Indazole, 4,5,6,7-tetrahydro-;4,5,6,7-Tetrahydro-1<em>H</em>-indazole;4,5,6,7-Tetrahydroindazole;NSC 195333",
    "duplicated_cas_no": "",
    "SMILES": "C12=C(NN=C1)CCCC2",
    "meta_data": {
        "InChI": "InChI=1S/C7H10N2/c1-2-4-7-6(3-1)5-8-9-7/h5H,1-4H2,(H,8,9)",
        "InChIKey": null,
        "Canonical SMILES": "N1=CC2=C(N1)CCCC2",
        "Molecular Formula": "C<sub>7</sub>H<sub>10</sub>N<sub>2</sub>",
        "Molecular Mass": "122.17",
        "Boiling Point": "151 °C @ Press: 14 Torr",
        "Melting Point": "84 °C"
    }
}