{
    "cas_no": "720-44-5",
    "key_name": "4-Methoxybenzhydrol",
    "cn_name": "4-甲氧基二苯甲醇;",
    "alternate_name": "Benzenemethanol, 4-methoxy-α-phenyl-;Benzyl alcohol, <em>p</em>-methoxy-α-phenyl-;Benzhydrol, 4-methoxy-;4-Methoxy-α-phenylbenzenemethanol;4-Methoxybenzhydrol;<em>p</em>-Methoxy-α-phenylbenzyl alcohol;α-Phenyl-<em>p</em>-anisyl alcohol;<em>p</em>-Methoxybenzhydrol;α-Phenyl-4-methoxybenzenemethanol;(4-Methoxyphenyl)phenylmethanol;NSC 5186;4-Methoxydiphenylmethanol;α-(4-Methoxyphenyl)benzyl alcohol",
    "duplicated_cas_no": "134236-28-5",
    "SMILES": "C(O)(C1=CC=C(OC)C=C1)C2=CC=CC=C2",
    "meta_data": {
        "InChI": "InChI=1S/C14H14O2/c1-16-13-9-7-12(8-10-13)14(15)11-5-3-2-4-6-11/h2-10,14-15H,1H3",
        "InChIKey": null,
        "Canonical SMILES": "OC(C=1C=CC=CC1)C2=CC=C(OC)C=C2",
        "Molecular Formula": "C<sub>14</sub>H<sub>14</sub>O<sub>2</sub>",
        "Molecular Mass": "214.26",
        "Boiling Point": "98 °C",
        "Melting Point": "58 °C"
    }
}