{
    "cas_no": "510-13-4",
    "key_name": "Malachite green carbinol",
    "cn_name": "孔雀石绿;",
    "alternate_name": "Benzenemethanol, 4-(dimethylamino)-α-[4-(dimethylamino)phenyl]-α-phenyl-;Methanol, bis[<em>p</em>-(dimethylamino)phenyl]phenyl-;4-(Dimethylamino)-α-[4-(dimethylamino)phenyl]-α-phenylbenzenemethanol;Malachite green carbinol;C.I. Basic Green 4, carbinol;<em>p</em>,<em>p</em>′-Bis(dimethylamino)triphenylcarbinol;Bis(<em>p</em>-dimethylaminophenyl)phenylmethanol;Bis(4-<em>N</em>,<em>N</em>-dimethylaminophenyl)phenylmethyl alcohol;<em>p</em>,<em>p</em>′-(<em>N</em>,<em>N</em>-Dimethylaminotriphenylmethanol;1,1-Bis(4-dimethylaminophenyl)-1-phenylmethanol;Malachite green carbinol base",
    "duplicated_cas_no": "",
    "SMILES": "C(O)(C1=CC=C(N(C)C)C=C1)(C2=CC=C(N(C)C)C=C2)C3=CC=CC=C3",
    "meta_data": {
        "InChI": "InChI=1S/C23H26N2O/c1-24(2)21-14-10-19(11-15-21)23(26,18-8-6-5-7-9-18)20-12-16-22(17-13-20)25(3)4/h5-17,26H,1-4H3",
        "InChIKey": null,
        "Canonical SMILES": "OC(C=1C=CC=CC1)(C2=CC=C(C=C2)N(C)C)C3=CC=C(C=C3)N(C)C",
        "Molecular Formula": "C<sub>23</sub>H<sub>26</sub>N<sub>2</sub>O",
        "Molecular Mass": "346.47",
        "Melting Point": "119 °C (polymorph)"
    }
}