{
    "cas_no": "599-91-7",
    "key_name": "Propyl 4-methylbenzenesulfonate",
    "cn_name": "对甲苯磺酸丙酯; 对甲苯磺酸正丙酯;",
    "alternate_name": "Benzenesulfonic acid, 4-methyl-, propyl ester;<em>p</em>-Toluenesulfonic acid, propyl ester;Propyl <em>p</em>-toluenesulfonate;Propyl tosylate;<em>n</em>-Propyl tosylate;Propyl 4-toluenesulfonate;NSC 11005;Propyl 4-methylbenzenesulfonate;Propyl <em>p</em>-tosylate",
    "duplicated_cas_no": "",
    "SMILES": "S(OCCC)(=O)(=O)C1=CC=C(C)C=C1",
    "meta_data": {
        "InChI": "InChI=1S/C10H14O3S/c1-3-8-13-14(11,12)10-6-4-9(2)5-7-10/h4-7H,3,8H2,1-2H3",
        "InChIKey": null,
        "Canonical SMILES": "O=S(=O)(OCCC)C1=CC=C(C=C1)C",
        "Molecular Formula": "C<sub>10</sub>H<sub>14</sub>O<sub>3</sub>S",
        "Molecular Mass": "214.28",
        "Boiling Point": "138 °C",
        "Melting Point": "&lt;-20 °C"
    }
}