{
    "cas_no": "4856-87-5",
    "key_name": "1,6-Bismaleimidohexane",
    "cn_name": null,
    "alternate_name": "1<em>H</em>-Pyrrole-2,5-dione, 1,1′-(1,6-hexanediyl)bis-;Maleimide, <em>N</em>,<em>N</em>′-hexamethylenedi-;1,1′-(1,6-Hexanediyl)bis[1<em>H</em>-pyrrole-2,5-dione];<em>N</em>,<em>N</em>′-Hexamethylenedimaleimide;1,6-Dimaleimidohexane;<em>N</em>,<em>N</em>′-Hexamethylenebis[maleimide];1,6-Hexamethylenebis[maleimide];1,6-Bismaleimidohexane;NSC 12818;1,6-Maleimidohexane;GMBMI;1,6-Hexanediylbismaleimide;1,6-Bismaleimidehexane;Hexamethylenediamine bismaleimide;GP 207R;BMH Crosslinker;1,6-BMH;1-[6-(2,5-Dioxopyrrol-1-yl)hexyl]pyrrole-2,5-dione;1,1′-hexane-1,6-diylbis(1H-pyrrole-2,5-dione);1,1′-(Hexane-1,6-diyl)bis(1H-pyrrole-2,5-dione);Nexamit A 48",
    "duplicated_cas_no": "1333231-70-1",
    "SMILES": "C(CCCCCN1C(=O)C=CC1=O)N2C(=O)C=CC2=O",
    "meta_data": {
        "InChI": "InChI=1S/C14H16N2O4/c17-11-5-6-12(18)15(11)9-3-1-2-4-10-16-13(19)7-8-14(16)20/h5-8H,1-4,9-10H2",
        "InChIKey": null,
        "Canonical SMILES": "O=C1C=CC(=O)N1CCCCCCN2C(=O)C=CC2=O",
        "Molecular Formula": "C<sub>14</sub>H<sub>16</sub>N<sub>2</sub>O<sub>4</sub>",
        "Molecular Mass": "276.29",
        "Melting Point": "136-141 °C"
    }
}