{
    "cas_no": "4093-28-1",
    "key_name": "Benzoic acid, 4-(acetylamino)-2-hydroxy-, methyl ester",
    "cn_name": "对乙酰氨基-邻甲氧基苯甲酸甲酯;",
    "alternate_name": "Benzoic acid, 4-(acetylamino)-2-hydroxy-, methyl ester;Salicylic acid, 4-acetamido-, methyl ester;Methyl 4-acetamido-2-hydroxybenzoate;Methyl 4-acetamidosalicylate;4-(Acetylamino)-2-hydroxybenzoic acid methyl ester;Methyl 4-(acetylamino)-2-hydroxybenzoate;Methyl 2-hydroxy-4-acetamidobenzoate;Methyl 2-hydroxy-4-(acetylamino)benzoate;Methyl 4-(acetylamino)salicylate;4-Acetylaminosalicylic acid methyl ester",
    "duplicated_cas_no": "",
    "SMILES": "C(OC)(=O)C1=C(O)C=C(NC(C)=O)C=C1",
    "meta_data": {
        "InChI": "InChI=1S/C10H11NO4/c1-6(12)11-7-3-4-8(9(13)5-7)10(14)15-2/h3-5,13H,1-2H3,(H,11,12)",
        "InChIKey": null,
        "Canonical SMILES": "O=C(OC)C1=CC=C(C=C1O)NC(=O)C",
        "Molecular Formula": "C<sub>10</sub>H<sub>11</sub>NO<sub>4</sub>",
        "Molecular Mass": "209.20",
        "Melting Point": "150 °C"
    }
}