{
    "cas_no": "494-99-5",
    "key_name": "3,4-Dimethoxytoluene",
    "cn_name": "3,4-二甲氧基甲苯;",
    "alternate_name": "Benzene, 1,2-dimethoxy-4-methyl-;Toluene, 3,4-dimethoxy-;Veratrole, 4-methyl-;1,2-Dimethoxy-4-methylbenzene;Homoveratrole;4-Methylveratrole;3,4-Dimethoxytoluene;4-Methyl-1,2-dimethoxybenzene;4-Methylveratrol;4-Methylcatechol dimethyl ether;NSC 7378;2-Methoxy-5-methylanisole",
    "duplicated_cas_no": "",
    "SMILES": "O(C)C1=C(OC)C=C(C)C=C1",
    "meta_data": {
        "InChI": "InChI=1S/C9H12O2/c1-7-4-5-8(10-2)9(6-7)11-3/h4-6H,1-3H3",
        "InChIKey": null,
        "Canonical SMILES": "O(C1=CC=C(C=C1OC)C)C",
        "Molecular Formula": "C<sub>9</sub>H<sub>12</sub>O<sub>2</sub>",
        "Molecular Mass": "152.19",
        "Boiling Point": "220 °C",
        "Melting Point": "24 °C",
        "Density": "1.0509 g/cm³ @ Temp: 25 °C"
    }
}