{
    "cas_no": "59886-90-7",
    "key_name": "4-Chloro-2,3-dimethylpyridine <em>N</em>-oxide",
    "cn_name": "2,3-二甲基-4-氯吡啶-N-氧化物;",
    "alternate_name": "Pyridine, 4-chloro-2,3-dimethyl-, 1-oxide;4-Chloro-2,3-dimethylpyridine 1-oxide;4-Chloro-2,3-dimethylpyridine <em>N</em>-oxide;NSC 275262;2,3-Dimethyl-4-chloropyridineN-oxide",
    "duplicated_cas_no": "",
    "SMILES": "CC1=C(C)N(=O)=CC=C1Cl",
    "meta_data": {
        "InChI": "InChI=1S/C7H8ClNO/c1-5-6(2)9(10)4-3-7(5)8/h3-4H,1-2H3",
        "InChIKey": null,
        "Canonical SMILES": "O=N1=CC=C(Cl)C(=C1C)C",
        "Molecular Formula": "C<sub>7</sub>H<sub>8</sub>ClNO",
        "Molecular Mass": "157.60",
        "Melting Point": "104-106 °C"
    }
}