{
    "cas_no": "118-71-8",
    "key_name": "Maltol",
    "cn_name": "麦芽醇;甲基麦芽酚;2-甲基-3-羟基-4-吡喃酮;",
    "alternate_name": "4<em>H</em>-Pyran-4-one, 3-hydroxy-2-methyl-;3-Hydroxy-2-methyl-4<em>H</em>-pyran-4-one;3-Hydroxy-2-methyl-4-pyrone;3-Hydroxy-2-methyl-γ-pyrone;Larixic acid;Larixinic acid;Maltol;Palatone;2-Methyl-3-hydroxy-4-pyrone;3-Hydroxy-2-methyl-1,4-pyrone;3-Hydroxy-2-methyl-4-pyranone;2-Methyl-3-hydroxypyrone;2-Methyl-3-hydroxypyran-4-one;Veltol;NSC 2829;NSC 404458;E 636;Larixin;Larixin (plant growth regulator);2-Methyl-4-oxo-4<em>H</em>-pyran-3-ol;Methylmaltol",
    "duplicated_cas_no": "",
    "SMILES": "OC=1C(=O)C=COC1C",
    "meta_data": {
        "InChI": "InChI=1S/C6H6O3/c1-4-6(8)5(7)2-3-9-4/h2-3,8H,1H3",
        "InChIKey": null,
        "Canonical SMILES": "O=C1C=COC(=C1O)C",
        "Molecular Formula": "C<sub>6</sub>H<sub>6</sub>O<sub>3</sub>",
        "Molecular Mass": "126.11",
        "Boiling Point": "140-150 °C @ Press: 20 Torr",
        "Melting Point": "161.5 °C",
        "Density": "0.990 g/cm³"
    }
}