{
    "cas_no": "105-74-8",
    "key_name": "Lauroyl peroxide",
    "cn_name": "过氧化双月桂酰;过氧化二月桂酰;过氧化十二酰;",
    "alternate_name": "Peroxide, bis(1-oxododecyl);Lauroyl peroxide;Bis(1-oxododecyl) peroxide;Alperox C;Dilauroyl peroxide;Dodecanoyl peroxide;Laurydol;LYP 97;Laurox Q;Laurox W 40;Alperox F;Didodecanoyl peroxide;LYP 97F;Peroyl L;Laurox W 40GD4;Luperox LP;NSC 670;Lup LP;Laurox S;Dodecanoic peroxyanhydride;Peroxan LP;Pergan LP;Laurox LPO-W 40",
    "duplicated_cas_no": "334833-24-8;1908420-49-4",
    "SMILES": "C(OOC(CCCCCCCCCCC)=O)(CCCCCCCCCCC)=O",
    "meta_data": {
        "InChI": "InChI=1S/C24H46O4/c1-3-5-7-9-11-13-15-17-19-21-23(25)27-28-24(26)22-20-18-16-14-12-10-8-6-4-2/h3-22H2,1-2H3",
        "InChIKey": null,
        "Canonical SMILES": "O=C(OOC(=O)CCCCCCCCCCC)CCCCCCCCCCC",
        "Molecular Formula": "C<sub>24</sub>H<sub>46</sub>O<sub>4</sub>",
        "Molecular Mass": "398.62",
        "Boiling Point": "118-144 °C",
        "Melting Point": "49 °C",
        "Density": "0.9 g/cm³"
    }
}