{
    "cas_no": "17606-72-3",
    "key_name": "Maltulose",
    "cn_name": "单麦芽糖一水合物;麦芽酮糖;",
    "alternate_name": "<span class=\"text-smallcaps\">D</smallcap>-Fructose, 4-<em>O</em>-α-<smallcap>D</span>-glucopyranosyl-;Fructose, 4-<em>O</em>-α-<span class=\"text-smallcaps\">D</smallcap>-glucopyranosyl-, <smallcap>D</span>-;Maltulose;4-<em>O</em>-α-<span class=\"text-smallcaps\">D</smallcap>-Glucopyranosyl-<smallcap>D</span>-fructose",
    "duplicated_cas_no": "20056-26-2",
    "SMILES": "O([C@@H]([C@@H](C(CO)=O)O)[C@@H](CO)O)[C@H]1O[C@H](CO)[C@@H](O)[C@H](O)[C@H]1O",
    "meta_data": {
        "InChI": "InChI=1S/C12H22O11/c13-1-4(16)7(18)11(5(17)2-14)23-12-10(21)9(20)8(19)6(3-15)22-12/h5-15,17-21H,1-3H2/t5-,6-,7-,8-,9+,10-,11-,12-/m1/s1",
        "InChIKey": null,
        "Canonical SMILES": "O=C(CO)C(O)C(OC1OC(CO)C(O)C(O)C1O)C(O)CO",
        "Molecular Formula": "C<sub>12</sub>H<sub>22</sub>O<sub>11</sub>",
        "Molecular Mass": "342.30",
        "Melting Point": "200-202 °C"
    }
}