{
    "cas_no": "448-61-3",
    "key_name": "2,4,6-Triphenylpyrylium tetrafluoroborate",
    "cn_name": null,
    "alternate_name": "Pyrylium, 2,4,6-triphenyl-, tetrafluoroborate(1-) (1:1);Pyrylium, 2,4,6-triphenyl-, tetrafluoroborate(1-);2,4,6-Triphenylpyrylium tetrafluoroborate;2,4,6-Triphenylpyrylium fluoborate;Borate(1-), tetrafluoro-, 2,4,6-triphenylpyrylium;2,4,6-Triphenylpyrylium fluoroborate;TPPT",
    "duplicated_cas_no": "110504-24-0",
    "SMILES": "C=1(C=C([O+]=C(C1)C2=CC=CC=C2)C3=CC=CC=C3)C4=CC=CC=C4.[B+3]([F-])([F-])([F-])[F-]",
    "meta_data": {
        "InChI": "InChI=1S/C23H17O.BF4/c1-4-10-18(11-5-1)21-16-22(19-12-6-2-7-13-19)24-23(17-21)20-14-8-3-9-15-20;2-1(3,4)5/h1-17H;/q+1;-1",
        "InChIKey": null,
        "Canonical SMILES": "[F-][B+3]([F-])([F-])[F-].[O+]=1C(=CC(=CC1C=2C=CC=CC2)C=3C=CC=CC3)C=4C=CC=CC4",
        "Molecular Formula": "C<sub>23</sub>H<sub>17</sub>O.BF<sub>4</sub>",
        "Molecular Mass": "",
        "Melting Point": "225-226 °C"
    }
}