{
    "cas_no": "25333-42-0",
    "key_name": "(<em>R</em>)-3-Quinuclidinol",
    "cn_name": "(R)-(-)-3-奎宁醇;(R)-奎宁环-3-醇;(R)-(-)-1-氮杂双环[2.2.2]辛-3-醇;",
    "alternate_name": "1-Azabicyclo[2.2.2]octan-3-ol, (3<em>R</em>)-;3-Quinuclidinol, (-)-;1-Azabicyclo[2.2.2]octan-3-ol, (<em>R</em>)-;(3<em>R</em>)-1-Azabicyclo[2.2.2]octan-3-ol;<em>l</em>-3-Quinuclidinol;(<em>R</em>)-(-)-3-Quinuclidinol;(<em>R</em>)-3-Quinuclidinol;(<em>R</em>)-1-Azabicyclo[2.2.2]octan-3-ol;(-)-3-Quinuclidinol;(3<em>R</em>)-Quinuclidin-3-ol;(3<em>R</em>)-3-Quinuclidinol;(<em>R</em>)-3-Hydroxyquinuclidine;(<em>R</em>)-3-Quinuclidol;(<em>R</em>)-(-)-1-Azabicyclo[2.2.2]octan-3-ol;<em>R</em>-Quinuclidin-3-ol;(-)-(<em>R</em>)-3-Quinuclidinol;(3<em>R</em>)-Quinuclidinol;(3R)-1-Azabicyclo[2.2.2]octan-3-ol",
    "duplicated_cas_no": "",
    "SMILES": "O[C@@H]1C2CCN(C1)CC2",
    "meta_data": {
        "InChI": "InChI=1S/C7H13NO/c9-7-5-8-3-1-6(7)2-4-8/h6-7,9H,1-5H2/t7-/m0/s1",
        "InChIKey": null,
        "Canonical SMILES": "OC1CN2CCC1CC2",
        "Molecular Formula": "C<sub>7</sub>H<sub>13</sub>NO",
        "Molecular Mass": "127.18",
        "Melting Point": "219 °C"
    }
}