{
    "cas_no": "3318-61-4",
    "key_name": "1-Phenyl-2,4-pentanedione",
    "cn_name": "1-苯基-2,4-戊二酮;1-苯基-2,4-戊二酮;",
    "alternate_name": "2,4-Pentanedione, 1-phenyl-;1-Phenyl-2,4-pentanedione;1-Benzyl-1,3-butanedione;(Phenylacetyl)acetone",
    "duplicated_cas_no": "",
    "SMILES": "C(C(CC(C)=O)=O)C1=CC=CC=C1",
    "meta_data": {
        "InChI": "InChI=1S/C11H12O2/c1-9(12)7-11(13)8-10-5-3-2-4-6-10/h2-6H,7-8H2,1H3",
        "InChIKey": null,
        "Canonical SMILES": "O=C(C)CC(=O)CC=1C=CC=CC1",
        "Molecular Formula": "C<sub>11</sub>H<sub>12</sub>O<sub>2</sub>",
        "Molecular Mass": "176.21",
        "Boiling Point": "96-100 °C @ Press: 2.5 Torr"
    }
}