{
    "cas_no": "54110-25-7",
    "key_name": "Pirozadil",
    "cn_name": null,
    "alternate_name": "Benzoic acid, 3,4,5-trimethoxy-, 1,1′-[2,6-pyridinediylbis(methylene)] ester;Benzoic acid, 3,4,5-trimethoxy-, 2,6-pyridinediylbis(methylene) ester;Pirozadil;Pemix;722D",
    "duplicated_cas_no": "",
    "SMILES": "O(C)C1=C(OC)C=C(C(OCC=2N=C(COC(=O)C3=CC(OC)=C(OC)C(OC)=C3)C=CC2)=O)C=C1OC",
    "meta_data": {
        "InChI": "InChI=1S/C27H29NO10/c1-31-20-10-16(11-21(32-2)24(20)35-5)26(29)37-14-18-8-7-9-19(28-18)15-38-27(30)17-12-22(33-3)25(36-6)23(13-17)34-4/h7-13H,14-15H2,1-6H3",
        "InChIKey": null,
        "Canonical SMILES": "O=C(OCC=1N=C(C=CC1)COC(=O)C2=CC(OC)=C(OC)C(OC)=C2)C3=CC(OC)=C(OC)C(OC)=C3",
        "Molecular Formula": "C<sub>27</sub>H<sub>29</sub>NO<sub>10</sub>",
        "Molecular Mass": "527.52",
        "Melting Point": "119-126 °C"
    }
}