{
    "cas_no": "2481-09-6",
    "key_name": "<span class=\"text-smallcaps\">L</span>-Cysteine, <em>S</em>-(1,1-dimethylethyl)-, hydrochloride (1:1)",
    "cn_name": "S-叔丁基-L-半胱氨酸盐酸盐;",
    "alternate_name": "<span class=\"text-smallcaps\">L</span>-Cysteine, <em>S</em>-(1,1-dimethylethyl)-, hydrochloride (1:1);Alanine, 3-(<em>tert</em>-butylthio)-, hydrochloride, <span class=\"text-smallcaps\">L</span>-;<span class=\"text-smallcaps\">L</span>-Cysteine, <em>S</em>-(1,1-dimethylethyl)-, hydrochloride;Alanine, 3-(<em>tert</em>-butylthio)-, hydrochloride;<em>S</em>-<em>tert</em>-Butyl-<span class=\"text-smallcaps\">L</span>-cysteine hydrochloride;(2R)-2-Amino-3-(<em>tert</em>-butylsulfanyl)propanoic acid hydrochloride",
    "duplicated_cas_no": "",
    "SMILES": "C([C@@H](C(O)=O)N)SC(C)(C)C.Cl",
    "meta_data": {
        "InChI": "InChI=1S/C7H15NO2S.ClH/c1-7(2,3)11-4-5(8)6(9)10;/h5H,4,8H2,1-3H3,(H,9,10);1H/t5-;/m0./s1",
        "InChIKey": null,
        "Canonical SMILES": "Cl.O=C(O)C(N)CSC(C)(C)C",
        "Molecular Formula": "C<sub>7</sub>H<sub>15</sub>NO<sub>2</sub>S.ClH",
        "Molecular Mass": "",
        "Melting Point": "203-204 °C"
    }
}