{
    "cas_no": "137-88-2",
    "key_name": "Amprolium hydrochloride",
    "cn_name": "盐酸氨丙啉;1-(4-氨基-2-丙基-5-嘧啶甲基)-2-甲基吡啶氯化物盐酸盐;",
    "alternate_name": "Pyridinium, 1-[(4-amino-2-propyl-5-pyrimidinyl)methyl]-2-methyl-, chloride, hydrochloride (1:1:1);2-Picolinium, 1-[(4-amino-2-propyl-5-pyrimidinyl)methyl]-, chloride, monohydrochloride;Pyridinium, 1-[(4-amino-2-propyl-5-pyrimidinyl)methyl]-2-methyl-, chloride, monohydrochloride;1-(4-Amino-2-propyl-5-pyrimidinylmethyl)-2-methylpyridinium chloride hydrochloride;1-(4-Amino-2-<em>n</em>-propyl-5-pyrimidinylmethyl)-2-picolinium chloride hydrochloride;Amprol;Mepyrium;Amprol 25;Amprolium hydrochloride;Thiacoccid;Amdon",
    "duplicated_cas_no": "8017-99-0;8027-83-6",
    "SMILES": "C(C=1C(N)=NC(CCC)=NC1)[N+]=2C(C)=CC=CC2.[Cl-].Cl",
    "meta_data": {
        "InChI": "InChI=1S/C14H19N4.2ClH/c1-3-6-13-16-9-12(14(15)17-13)10-18-8-5-4-7-11(18)2;;/h4-5,7-9H,3,6,10H2,1-2H3,(H2,15,16,17);2*1H/q+1;;/p-1",
        "InChIKey": null,
        "Canonical SMILES": "[Cl-].Cl.N=1C=C(C(=NC1CCC)N)C[N+]=2C=CC=CC2C",
        "Molecular Formula": "C<sub>14</sub>H<sub>19</sub>N<sub>4</sub>.ClH.Cl",
        "Molecular Mass": "",
        "Melting Point": "246-247 °C"
    }
}