{
    "cas_no": "2941-71-1",
    "key_name": "2,6-Dimethylbenzothiazole",
    "cn_name": null,
    "alternate_name": "Benzothiazole, 2,6-dimethyl-;2,6-Dimethylbenzothiazole;NSC 93784",
    "duplicated_cas_no": "",
    "SMILES": "CC1=NC=2C(S1)=CC(C)=CC2",
    "meta_data": {
        "InChI": "InChI=1S/C9H9NS/c1-6-3-4-8-9(5-6)11-7(2)10-8/h3-5H,1-2H3",
        "InChIKey": null,
        "Canonical SMILES": "N=1C=2C=CC(=CC2SC1C)C",
        "Molecular Formula": "C<sub>9</sub>H<sub>9</sub>NS",
        "Molecular Mass": "163.24",
        "Boiling Point": "130-132 °C @ Press: 20 Torr"
    }
}