{
    "cas_no": "559-40-0",
    "key_name": "Perfluorocyclopentene",
    "cn_name": null,
    "alternate_name": "Cyclopentene, 1,2,3,3,4,4,5,5-octafluoro-;Cyclopentene, octafluoro-;1,2,3,3,4,4,5,5-Octafluorocyclopentene;Perfluorocyclopentene;1,2,3,3,4,4,5,5-Octafluoro-1-cyclopentene;Octafluorocyclopentene;Flon C 1418;Fron C 1418;Zeorora ZFL 58",
    "duplicated_cas_no": "",
    "SMILES": "FC1(F)C(F)(F)C(F)=C(F)C1(F)F",
    "meta_data": {
        "InChI": "InChI=1S/C5F8/c6-1-2(7)4(10,11)5(12,13)3(1,8)9",
        "InChIKey": null,
        "Canonical SMILES": "FC1=C(F)C(F)(F)C(F)(F)C1(F)F",
        "Molecular Formula": "C<sub>5</sub>F<sub>8</sub>",
        "Molecular Mass": "212.04",
        "Boiling Point": "33-35 °C"
    }
}