{
    "cas_no": "10457-14-4",
    "key_name": "2,4-Bis(trimethylsiloxy)pyrimidine",
    "cn_name": "2,4-二(三甲硅氧基)嘧啶;2,4-二(三甲硅氧基)嘧啶;",
    "alternate_name": "Pyrimidine, 2,4-bis[(trimethylsilyl)oxy]-;Pyrimidine, 2,4-bis(trimethylsiloxy)-;2,4-Bis[(trimethylsilyl)oxy]pyrimidine;2,4-Bis(trimethylsilyl)uracil;2,4-Bis(trimethylsiloxy)pyrimidine;Bis(trimethylsilyl)uracil;<em>O</em>,<em>O</em>′-Bis(trimethylsilyl)uracil;<em>O</em>,<em>O</em>-Bis(trimethylsilyl)uracil;Uracil bis(trimethylsilyl) ether;2,4-Di-<em>O</em>-(trimethylsilyl)uracil;NSC 95115",
    "duplicated_cas_no": "1233524-07-6",
    "SMILES": "O([Si](C)(C)C)C1=NC(O[Si](C)(C)C)=NC=C1",
    "meta_data": {
        "InChI": "InChI=1S/C10H20N2O2Si2/c1-15(2,3)13-9-7-8-11-10(12-9)14-16(4,5)6/h7-8H,1-6H3",
        "InChIKey": null,
        "Canonical SMILES": "N=1C=CC(=NC1O[Si](C)(C)C)O[Si](C)(C)C",
        "Molecular Formula": "C<sub>10</sub>H<sub>20</sub>N<sub>2</sub>O<sub>2</sub>Si<sub>2</sub>",
        "Molecular Mass": "256.45",
        "Boiling Point": "116 °C @ Press: 12 Torr",
        "Melting Point": "31-33 °C"
    }
}