{
    "cas_no": "10151-02-7",
    "key_name": "<em>N</em>-(1,1,3,3-Tetramethylbutyl)formamide",
    "cn_name": "N-(1,1,3,3-四甲基丁基)甲酰胺;",
    "alternate_name": "Formamide, <em>N</em>-(1,1,3,3-tetramethylbutyl)-;<em>N</em>-(1,1,3,3-Tetramethylbutyl)formamide",
    "duplicated_cas_no": "",
    "SMILES": "C(C(NC=O)(C)C)C(C)(C)C",
    "meta_data": {
        "InChI": "InChI=1S/C9H19NO/c1-8(2,3)6-9(4,5)10-7-11/h7H,6H2,1-5H3,(H,10,11)",
        "InChIKey": null,
        "Canonical SMILES": "O=CNC(C)(C)CC(C)(C)C",
        "Molecular Formula": "C<sub>9</sub>H<sub>19</sub>NO",
        "Molecular Mass": "157.25",
        "Boiling Point": "110 °C @ Press: 2 Torr"
    }
}