{
    "cas_no": "3004-93-1",
    "key_name": "2-Methyloctanoic acid",
    "cn_name": null,
    "alternate_name": "Octanoic acid, 2-methyl-;2-Methyloctanoic acid;α-Methylcaprylic acid;(±)-2-Methyloctanoic acid;NSC 33927",
    "duplicated_cas_no": "128441-05-4",
    "SMILES": "C(CCCCCC)(C(O)=O)C",
    "meta_data": {
        "InChI": "InChI=1S/C9H18O2/c1-3-4-5-6-7-8(2)9(10)11/h8H,3-7H2,1-2H3,(H,10,11)",
        "InChIKey": null,
        "Canonical SMILES": "O=C(O)C(C)CCCCCC",
        "Molecular Formula": "C<sub>9</sub>H<sub>18</sub>O<sub>2</sub>",
        "Molecular Mass": "158.24",
        "Boiling Point": "115 °C @ Press: 3 Torr"
    }
}