{
    "cas_no": "443-86-7",
    "key_name": "3-Fluoro-2-methylaniline",
    "cn_name": "3-氟-2-甲基苯胺;",
    "alternate_name": "Benzenamine, 3-fluoro-2-methyl-;<em>o</em>-Toluidine, 3-fluoro-;3-Fluoro-2-methylbenzenamine;3-Fluoro-2-methylaniline;6-Amino-2-fluorotoluene;1-Amino-3-fluoro-2-methylbenzene;2-Methyl-3-fluoroaniline;(3-Fluoro-2-methylphenyl)amine",
    "duplicated_cas_no": "",
    "SMILES": "CC1=C(F)C=CC=C1N",
    "meta_data": {
        "InChI": "InChI=1S/C7H8FN/c1-5-6(8)3-2-4-7(5)9/h2-4H,9H2,1H3",
        "InChIKey": null,
        "Canonical SMILES": "FC1=CC=CC(N)=C1C",
        "Molecular Formula": "C<sub>7</sub>H<sub>8</sub>FN",
        "Molecular Mass": "125.14",
        "Boiling Point": "89.5-90.5 °C @ Press: 15 Torr",
        "Melting Point": "7 °C"
    }
}