{
    "cas_no": "1314-18-7",
    "key_name": "Strontium peroxide",
    "cn_name": "过氧化锶;氧化锶;",
    "alternate_name": "Strontium peroxide (Sr(O<sub>2</sub>));Strontium dioxide;Strontium oxide (SrO<sub>2</sub>);Strontium peroxide",
    "duplicated_cas_no": "",
    "SMILES": "O1O[Sr]1",
    "meta_data": {
        "InChI": "InChI=1S/O2.Sr/c1-2;/q-2;+2",
        "InChIKey": null,
        "Canonical SMILES": "O1O[Sr]1",
        "Molecular Formula": "O<sub>2</sub>Sr",
        "Molecular Mass": "",
        "Melting Point": "215 °C (decomp)",
        "Density": "4.78 g/cm³"
    }
}