{
    "cas_no": "6923-52-0",
    "key_name": "Antimony acetate",
    "cn_name": "醋酸锑;乙酸锑;三醋酸锑;",
    "alternate_name": "Acetic acid, antimony(3+) salt (3:1);Acetic acid, trianhydride with antimonic acid (H<sub>3</sub>SbO<sub>3</sub>);Acetic acid, antimony(3+) salt;Acetic acid, trianhydride with antimonic(III) acid;Antimonic acid (H<sub>3</sub>SbO<sub>3</sub>), trianhydride with acetic acid;Triacetoxystibine;Antimony triacetate;Antimony(III) acetate;Antimony(3+) acetate;Antimony acetate, Sb(OAc)<sub>3</sub>;Tris(acetato)antimony;Antimony acetate;S 21",
    "duplicated_cas_no": "3643-76-3;875817-23-5",
    "SMILES": "C(C)(O)=O.[Sb]",
    "meta_data": {
        "InChI": "InChI=1S/C2H4O2.Sb/c1-2(3)4;/h1H3,(H,3,4);",
        "InChIKey": null,
        "Canonical SMILES": "[Sb].O=C(O)C",
        "Molecular Formula": "C<sub>2</sub>H<sub>4</sub>O<sub>2</sub>.<sup>1</sup>/<sub>3</sub>Sb",
        "Molecular Mass": "",
        "Melting Point": "134-136 °C"
    }
}