{
    "cas_no": "1201-38-3",
    "key_name": "2′,5′-Dimethoxyacetophenone",
    "cn_name": "2,5-二甲氧基苯乙酮;",
    "alternate_name": "Ethanone, 1-(2,5-dimethoxyphenyl)-;Acetophenone, 2′,5′-dimethoxy-;1-(2,5-Dimethoxyphenyl)ethanone;2′,5′-Dimethoxyacetophenone;Methyl 2,5-dimethoxyphenyl ketone;NSC 62094",
    "duplicated_cas_no": "",
    "SMILES": "C(C)(=O)C1=C(OC)C=CC(OC)=C1",
    "meta_data": {
        "InChI": "InChI=1S/C10H12O3/c1-7(11)9-6-8(12-2)4-5-10(9)13-3/h4-6H,1-3H3",
        "InChIKey": null,
        "Canonical SMILES": "O=C(C1=CC(OC)=CC=C1OC)C",
        "Molecular Formula": "C<sub>10</sub>H<sub>12</sub>O<sub>3</sub>",
        "Molecular Mass": "180.20",
        "Boiling Point": "167 °C @ Press: 16 Torr",
        "Melting Point": "20-22 °C"
    }
}