{
    "cas_no": "646-25-3",
    "key_name": "1,10-Decanediamine",
    "cn_name": "癸二胺;癸二胺1，10-癸二胺；1，10-二氨基癸烷；1，10-diaminodecane；1，10-decanediamine；癸撑二胺；十;",
    "alternate_name": "1,10-Decanediamine;1,10-Diaminodecane;Decamethylenediamine;1,10-Decamethylenediamine;1,10-Decylenediamine;1,10-Diamino-<em>n</em>-decane;NSC 10400;NCI 10400;Fentamine HP 102",
    "duplicated_cas_no": "95931-01-4;1062154-50-0",
    "SMILES": "C(CCCCCN)CCCCN",
    "meta_data": {
        "InChI": "InChI=1S/C10H24N2/c11-9-7-5-3-1-2-4-6-8-10-12/h1-12H2",
        "InChIKey": null,
        "Canonical SMILES": "NCCCCCCCCCCN",
        "Molecular Formula": "C<sub>10</sub>H<sub>24</sub>N<sub>2</sub>",
        "Molecular Mass": "172.31",
        "Boiling Point": "126-127 °C @ Press: 5 Torr",
        "Melting Point": "61-62 °C"
    }
}