{
    "cas_no": "61-52-9",
    "key_name": "<em>N</em>,<em>N</em>-Dipropyltryptamine",
    "cn_name": null,
    "alternate_name": "1<em>H</em>-Indole-3-ethanamine, <em>N</em>,<em>N</em>-dipropyl-;Indole, 3-[2-(dipropylamino)ethyl]-;<em>N</em>,<em>N</em>-Dipropyl-1<em>H</em>-indole-3-ethanamine;<em>N</em>,<em>N</em>-Dipropyltryptamine;DPT",
    "duplicated_cas_no": "",
    "SMILES": "C(CN(CCC)CCC)C=1C=2C(NC1)=CC=CC2",
    "meta_data": {
        "InChI": "InChI=1S/C16H24N2/c1-3-10-18(11-4-2)12-9-14-13-17-16-8-6-5-7-15(14)16/h5-8,13,17H,3-4,9-12H2,1-2H3",
        "InChIKey": null,
        "Canonical SMILES": "C=1C=CC2=C(C1)NC=C2CCN(CCC)CCC",
        "Molecular Formula": "C<sub>16</sub>H<sub>24</sub>N<sub>2</sub>",
        "Molecular Mass": "244.38",
        "Melting Point": "174-178 °C"
    }
}