{
    "cas_no": "116183-81-4",
    "key_name": "3-Pyrrolidinamine, hydrochloride (1:2), (3<em>R</em>)-",
    "cn_name": "(R)-3-氨基吡咯烷二盐酸盐;",
    "alternate_name": "3-Pyrrolidinamine, hydrochloride (1:2), (3<em>R</em>)-;3-Pyrrolidinamine, dihydrochloride, (<em>R</em>)-;3-Pyrrolidinamine, dihydrochloride, (3<em>R</em>)-;(<em>R</em>)-3-Aminopyrrolidine dihydrochloride;(3<em>R</em>)-3-Aminopyrrolidine dihydrochloride;(3R)-(-)-3-Aminopyrrolidine dihydrochloride;(3R)-Pyrrolidin-3-amine dihydrochloride",
    "duplicated_cas_no": "",
    "SMILES": "N[C@@H]1CCNC1.Cl",
    "meta_data": {
        "InChI": "InChI=1S/C4H10N2.2ClH/c5-4-1-2-6-3-4;;/h4,6H,1-3,5H2;2*1H/t4-;;/m1../s1",
        "InChIKey": null,
        "Canonical SMILES": "Cl.NC1CNCC1",
        "Molecular Formula": "C<sub>4</sub>H<sub>10</sub>N<sub>2</sub>.2ClH",
        "Molecular Mass": "",
        "Melting Point": "121-122 °C"
    }
}