{
    "cas_no": "13405-60-2",
    "key_name": "1-<em>O</em>-Galloyl-β-<span class=\"text-smallcaps\">D</span>-glucose",
    "cn_name": null,
    "alternate_name": "β-<span class=\"text-smallcaps\">D</span>-Glucopyranose, 1-(3,4,5-trihydroxybenzoate);Glucopyranose, 1-gallate, β-<span class=\"text-smallcaps\">D</span>-;β-<span class=\"text-smallcaps\">D</span>-Glucose, 1-gallate;1-<em>O</em>-Galloyl-β-<span class=\"text-smallcaps\">D</span>-glucose;β-<span class=\"text-smallcaps\">D</span>-Glucogallin;β-Glucogallin;1-Galloyl-β-glucose;1-Galloylglucose;<span class=\"text-smallcaps\">D</span>-Glucose 1-(3,4,5-trihydroxybenzoate);1(β)-<em>O</em>-Galloylglucose;Gallotannin 1;1-<em>O</em>-Galloyl-β-<span class=\"text-smallcaps\">D</span>-glucopyranose;Gallic glucoside",
    "duplicated_cas_no": "58511-73-2",
    "SMILES": "O(C(=O)C1=CC(O)=C(O)C(O)=C1)[C@@H]2O[C@H](CO)[C@@H](O)[C@H](O)[C@H]2O",
    "meta_data": {
        "InChI": "InChI=1S/C13H16O10/c14-3-7-9(18)10(19)11(20)13(22-7)23-12(21)4-1-5(15)8(17)6(16)2-4/h1-2,7,9-11,13-20H,3H2/t7-,9-,10+,11-,13+/m1/s1",
        "InChIKey": null,
        "Canonical SMILES": "O=C(OC1OC(CO)C(O)C(O)C1O)C2=CC(O)=C(O)C(O)=C2",
        "Molecular Formula": "C<sub>13</sub>H<sub>16</sub>O<sub>10</sub>",
        "Molecular Mass": "332.26",
        "Melting Point": "214 °C"
    }
}