{
    "cas_no": "53590-49-1",
    "key_name": "5-Chloro-1<em>H</em>-indole-2-carboxaldehyde",
    "cn_name": null,
    "alternate_name": "1<em>H</em>-Indole-2-carboxaldehyde, 5-chloro-;5-Chloro-1<em>H</em>-indole-2-carboxaldehyde;5-Chloro-2-indolecarboxaldehyde",
    "duplicated_cas_no": "",
    "SMILES": "C(=O)C=1NC=2C(C1)=CC(Cl)=CC2",
    "meta_data": {
        "InChI": "InChI=1S/C9H6ClNO/c10-7-1-2-9-6(3-7)4-8(5-12)11-9/h1-5,11H",
        "InChIKey": null,
        "Canonical SMILES": "O=CC1=CC=2C=C(Cl)C=CC2N1",
        "Molecular Formula": "C<sub>9</sub>H<sub>6</sub>ClNO",
        "Molecular Mass": "179.60",
        "Melting Point": "204-206 °C"
    }
}