{
    "cas_no": "19125-99-6",
    "key_name": "Solvent Yellow 43",
    "cn_name": "溶剂黄43;",
    "alternate_name": "1<em>H</em>-Benz[<em>de</em>]isoquinoline-1,3(2<em>H</em>)-dione, 2-butyl-6-(butylamino)-;Naphthalimide, <em>N</em>-butyl-4-(butylamino)-;2-Butyl-6-(butylamino)-1<em>H</em>-benz[<em>de</em>]isoquinoline-1,3(2<em>H</em>)-dione;<em>N</em>-Butyl-4-(butylamino)naphthalimide;Fluorol 555;Fluorol Yellow 086;<em>N</em>-Butyl-4-(butylamino)-1,8-naphthalimide;Fluorol 7GA;C.I. Solvent Yellow 116;C.I. 561930;Solvent Yellow 43;C.I. Solvent Yellow 43;Solvent Yellow 116;C.I. Fluorescent Brightening Agent 75;Oil Color 7G;C.I. Fluorescent Brightener 75;Azosol Brilliant Yellow 8GF;Morton Yellow G;Morton Fluorescent Yellow G;Fluorescent brightening agent 75;7GA;7GA Naphthalamide dye;Kayaset Flavine FG;Kayaset Yellow FG;Fluorescent Yellow 43;Fluorescent Brilliant Yellow R;Day-Glo Tigris Yellow;DFSB-K 43;Neeliglow Yellow 43;4-(Butylamino)-<em>N</em>-butyl-1,8-naphthalimide;NY 43;Day-Glo Tigris Yellow D 043;Tigris Yellow D 043;Oplas Yellow 156;2-Butyl-6-(butylamino)benzo[<em>de</em>]isoquinoline-1,3-dione;2-Butyl-6-butylamino-benzo[<em>de</em>]isoquinoline-1,3-dione",
    "duplicated_cas_no": "103598-93-2;11118-22-2;12226-96-9;12765-30-9;39471-51-7;85537-62-8;199396-78-6",
    "SMILES": "N(CCCC)C=1C2=C3C(C(=O)N(CCCC)C(=O)C3=CC=C2)=CC1",
    "meta_data": {
        "InChI": "InChI=1S/C20H24N2O2/c1-3-5-12-21-17-11-10-16-18-14(17)8-7-9-15(18)19(23)22(20(16)24)13-6-4-2/h7-11,21H,3-6,12-13H2,1-2H3",
        "InChIKey": null,
        "Canonical SMILES": "O=C1C=2C=CC=C3C(=CC=C(C(=O)N1CCCC)C32)NCCCC",
        "Molecular Formula": "C<sub>20</sub>H<sub>24</sub>N<sub>2</sub>O<sub>2</sub>",
        "Molecular Mass": "324.42",
        "Melting Point": "125-126 °C"
    }
}