{
    "cas_no": "1460-18-0",
    "key_name": "Pentadecanedioic acid",
    "cn_name": "十五碳二元酸;十五烷二酸;",
    "alternate_name": "Pentadecanedioic acid;1,13-Tridecanedicarboxylic acid;1,15-Pentadecanedioic acid;1,13-Tridecamethylenedicarboxylic acid;ω-Carboxymyristic acid",
    "duplicated_cas_no": "",
    "SMILES": "C(CC(O)=O)CCCCCCCCCCCC(O)=O",
    "meta_data": {
        "InChI": "InChI=1S/C15H28O4/c16-14(17)12-10-8-6-4-2-1-3-5-7-9-11-13-15(18)19/h1-13H2,(H,16,17)(H,18,19)",
        "InChIKey": null,
        "Canonical SMILES": "O=C(O)CCCCCCCCCCCCCC(=O)O",
        "Molecular Formula": "C<sub>15</sub>H<sub>28</sub>O<sub>4</sub>",
        "Molecular Mass": "272.38",
        "Melting Point": "114.6 °C"
    }
}