{
    "cas_no": "6258-66-8",
    "key_name": "4-Chlorobenzyl mercaptan",
    "cn_name": "4-氯苄硫醇;对氯苄硫醇;",
    "alternate_name": "Benzenemethanethiol, 4-chloro-;α-Toluenethiol, <em>p</em>-chloro-;4-Chlorobenzenemethanethiol;4-Chlorobenzyl mercaptan;<em>p</em>-Chlorobenzyl mercaptan;<em>p</em>-Chlorobenzenemethanethiol;(<em>p</em>-Chlorophenyl)methanethiol;4-Chloro-α-toluenethiol;<em>p</em>-Chloro-α-toluenethiol;(4-Chlorophenyl)methanethiol;4-Chlorobenzylthiol;NSC 108735;NSC 203281;<em>p</em>-Chlorobenzylthiol",
    "duplicated_cas_no": "",
    "SMILES": "C(S)C1=CC=C(Cl)C=C1",
    "meta_data": {
        "InChI": "InChI=1S/C7H7ClS/c8-7-3-1-6(5-9)2-4-7/h1-4,9H,5H2",
        "InChIKey": null,
        "Canonical SMILES": "ClC1=CC=C(C=C1)CS",
        "Molecular Formula": "C<sub>7</sub>H<sub>7</sub>ClS",
        "Molecular Mass": "158.65",
        "Boiling Point": "66-67 °C @ Press: 0.4 Torr",
        "Melting Point": "19.5 °C"
    }
}