{
    "cas_no": "3407-42-9",
    "key_name": "Sandela",
    "cn_name": "檀香;3-(5,5,6-三甲基双环(2.2.1)庚-2-基)环己-1-醇;",
    "alternate_name": "Cyclohexanol, 3-(5,5,6-trimethylbicyclo[2.2.1]hept-2-yl)-;Cyclohexanol, 3-(5,5,6-trimethyl-2-norbornyl)-;3-(5,5,6-Trimethylbicyclo[2.2.1]hept-2-yl)cyclohexanol;3-Hydroxy-1-(5-isocamphyl)cyclohexane;3-(5,5,6-Trimethylbicyclo[2.2.1]hept-2-yl)cyclohexan-1-ol;Sandela;3-(5,5,6-Trimethylbicyclo[2.2.1]heptan-2-yl)cyclohexan-1-ol",
    "duplicated_cas_no": "",
    "SMILES": "CC1C2C(CC(C2)C1(C)C)C3CC(O)CCC3",
    "meta_data": {
        "InChI": "InChI=1S/C16H28O/c1-10-14-8-12(16(10,2)3)9-15(14)11-5-4-6-13(17)7-11/h10-15,17H,4-9H2,1-3H3",
        "InChIKey": null,
        "Canonical SMILES": "OC1CCCC(C1)C2CC3CC2C(C)C3(C)C",
        "Molecular Formula": "C<sub>16</sub>H<sub>28</sub>O",
        "Molecular Mass": "236.39",
        "Boiling Point": "100-103 °C @ Press: 1 x 10<sup>-3</sup> Torr"
    }
}