{
    "cas_no": "21829-28-7",
    "key_name": "1,4-Dihydro-2,6-dimethyl-4-(3-nitrophenyl)-3,5-pyridinedicarboxylic acid diethyl ester",
    "cn_name": null,
    "alternate_name": "3,5-Pyridinedicarboxylic acid, 1,4-dihydro-2,6-dimethyl-4-(3-nitrophenyl)-, 3,5-diethyl ester;3,5-Pyridinedicarboxylic acid, 1,4-dihydro-2,6-dimethyl-4-(<em>m</em>-nitrophenyl)-, diethyl ester;3,5-Pyridinedicarboxylic acid, 1,4-dihydro-2,6-dimethyl-4-(3-nitrophenyl)-, diethyl ester;Metanifedipine;1,4-Dihydro-2,6-dimethyl-4-(3-nitrophenyl)-3,5-pyridinedicarboxylic acid diethyl ester;NSC 136464;Diethyl 2,6-dimethyl-4-(3-nitrophenyl)-1,4-dihydropyridine-3,5-dicarboxylate;2,6-Dimethyl-4-(3-nitrophenyl)-1,4-dihydro-pyridine-3,5-dicarboxylic acid diethyl ester;Diethyl 4-(3-nitrophenyl)-2,6-dimethyl-1,4-dihydropyridine-3,5-dicarboxylate;2,6-Dimethyl-4-(<em>m</em>-nitrophenyl)-3,5-diethoxycarbonyl-1,4-dihydropyridine",
    "duplicated_cas_no": "",
    "SMILES": "C(OCC)(=O)C=1C(C(C(OCC)=O)=C(C)NC1C)C2=CC(N(=O)=O)=CC=C2",
    "meta_data": {
        "InChI": "InChI=1S/C19H22N2O6/c1-5-26-18(22)15-11(3)20-12(4)16(19(23)27-6-2)17(15)13-8-7-9-14(10-13)21(24)25/h7-10,17,20H,5-6H2,1-4H3",
        "InChIKey": null,
        "Canonical SMILES": "O=C(OCC)C1=C(NC(=C(C(=O)OCC)C1C=2C=CC=C(C2)N(=O)=O)C)C",
        "Molecular Formula": "C<sub>19</sub>H<sub>22</sub>N<sub>2</sub>O<sub>6</sub>",
        "Molecular Mass": "374.39",
        "Melting Point": "164 °C"
    }
}