{
    "cas_no": "938-46-5",
    "key_name": "2′,5′-Dihydroxypropiophenone",
    "cn_name": "2\",5\"-二羟基苯丙酮;2\",5\"-二羟基苯丙酮;",
    "alternate_name": "1-Propanone, 1-(2,5-dihydroxyphenyl)-;Propiophenone, 2′,5′-dihydroxy-;1-(2,5-Dihydroxyphenyl)-1-propanone;2′,5′-Dihydroxypropiophenone;1-(2,5-dihydroxyphenyl)-1-propanone;NSC 87567",
    "duplicated_cas_no": "",
    "SMILES": "C(CC)(=O)C1=C(O)C=CC(O)=C1",
    "meta_data": {
        "InChI": "InChI=1S/C9H10O3/c1-2-8(11)7-5-6(10)3-4-9(7)12/h3-5,10,12H,2H2,1H3",
        "InChIKey": null,
        "Canonical SMILES": "O=C(C1=CC(O)=CC=C1O)CC",
        "Molecular Formula": "C<sub>9</sub>H<sub>10</sub>O<sub>3</sub>",
        "Molecular Mass": "166.17",
        "Melting Point": "96 °C"
    }
}