{
    "cas_no": "1529-48-2",
    "key_name": "Germane, dichlorodimethyl-",
    "cn_name": "二甲基二氯化锗;二氯二甲基锗;二甲基氯化锗;二甲基二氯化锗, 98+%;二甲基二氯化锗;",
    "alternate_name": "Germane, dichlorodimethyl-;Dimethylgermanium dichloride;Dimethyldichlorogermane;Dichlorodimethylgermane;Dimethylgermanedichloride;Dimethylgermyl dichloride",
    "duplicated_cas_no": "",
    "SMILES": "[Ge](C)(C)(Cl)Cl",
    "meta_data": {
        "InChI": "InChI=1S/C2H6Cl2Ge/c1-5(2,3)4/h1-2H3",
        "InChIKey": null,
        "Canonical SMILES": "Cl[Ge](Cl)(C)C",
        "Molecular Formula": "C<sub>2</sub>H<sub>6</sub>Cl<sub>2</sub>Ge",
        "Molecular Mass": "173.62",
        "Boiling Point": "124 °C",
        "Melting Point": "-22 °C",
        "Density": "1.493 g/cm³"
    }
}