{
    "cas_no": "1194-64-5",
    "key_name": "2-Chloro-6-methylbenzaldehyde",
    "cn_name": "2-氯-6-甲基苯甲醛;",
    "alternate_name": "Benzaldehyde, 2-chloro-6-methyl-;<em>o</em>-Tolualdehyde, 6-chloro-;2-Chloro-6-methylbenzaldehyde;6-Chloro-2-methylbenzaldehyde",
    "duplicated_cas_no": "",
    "SMILES": "C(=O)C1=C(C)C=CC=C1Cl",
    "meta_data": {
        "InChI": "InChI=1S/C8H7ClO/c1-6-3-2-4-8(9)7(6)5-10/h2-5H,1H3",
        "InChIKey": null,
        "Canonical SMILES": "O=CC=1C(Cl)=CC=CC1C",
        "Molecular Formula": "C<sub>8</sub>H<sub>7</sub>ClO",
        "Molecular Mass": "154.59",
        "Boiling Point": "74 °C @ Press: 0.4 Torr",
        "Melting Point": "37-39 °C"
    }
}