{
    "cas_no": "13692-14-3",
    "key_name": "2,4-Dichloro-α-(chloromethyl)benzenemethanol",
    "cn_name": "α-(氯甲基)-2,4-二氯苯甲醇;",
    "alternate_name": "Benzenemethanol, 2,4-dichloro-α-(chloromethyl)-;Benzyl alcohol, 2,4-dichloro-α-(chloromethyl)-;2,4-Dichloro-α-(chloromethyl)benzenemethanol;2,4-Dichloro-α-(chloromethyl)benzyl alcohol;α-(2,4-Dichlorophenyl)-β-chloroethanol;α-(Chloromethyl)-2,4-dichlorobenzyl alcohol;2-Chloro-1-(2,4-dichlorophenyl)ethanol;2,4-Dichloro-α-chloromethylbenzenemethanol;2-Chloro-1-(2,4-dichlorophenyl)ethan-1-ol",
    "duplicated_cas_no": "",
    "SMILES": "C(CCl)(O)C1=C(Cl)C=C(Cl)C=C1",
    "meta_data": {
        "InChI": "InChI=1S/C8H7Cl3O/c9-4-8(12)6-2-1-5(10)3-7(6)11/h1-3,8,12H,4H2",
        "InChIKey": null,
        "Canonical SMILES": "ClC1=CC=C(C(Cl)=C1)C(O)CCl",
        "Molecular Formula": "C<sub>8</sub>H<sub>7</sub>Cl<sub>3</sub>O",
        "Molecular Mass": "225.50",
        "Melting Point": "47-49 °C"
    }
}