{
    "cas_no": "13849-91-7",
    "key_name": "Pomolic acid",
    "cn_name": null,
    "alternate_name": "Urs-12-en-28-oic acid, 3,19-dihydroxy-, (3β)-;Urs-12-en-28-oic acid, 3β,19-dihydroxy-;(3β)-3,19-Dihydroxyurs-12-en-28-oic acid;Benthamic acid;Pomolic acid;19α-Hydroxyursolic acid;Randialic acid A;3β,19α-Dihydroxy Urs-12-en-28-oic acid",
    "duplicated_cas_no": "11045-21-9;11046-60-9",
    "SMILES": "C(O)(=O)[C@]12[C@](C=3[C@@](C)(CC1)[C@@]4(C)[C@](CC3)([C@]5(C)[C@@](CC4)(C(C)(C)[C@@H](O)CC5)[H])[H])([C@](C)(O)[C@H](C)CC2)[H]",
    "meta_data": {
        "InChI": "InChI=1S/C30H48O4/c1-18-10-15-30(24(32)33)17-16-27(5)19(23(30)29(18,7)34)8-9-21-26(4)13-12-22(31)25(2,3)20(26)11-14-28(21,27)6/h8,18,20-23,31,34H,9-17H2,1-7H3,(H,32,33)/t18-,20+,21-,22+,23-,26+,27-,28-,29-,30+/m1/s1",
        "InChIKey": null,
        "Canonical SMILES": "O=C(O)C12CCC(C)C(O)(C)C2C3=CCC4C5(C)CCC(O)C(C)(C)C5CCC4(C)C3(C)CC1",
        "Molecular Formula": "C<sub>30</sub>H<sub>48</sub>O<sub>4</sub>",
        "Molecular Mass": "472.70",
        "Melting Point": "297-299 °C"
    }
}