{
    "cas_no": "376348-65-1",
    "key_name": "Maraviroc",
    "cn_name": "Maraviroc;4,4-二氟-N-[(1S)-3-[(1R,5S)-3-(3-甲基-5-异丙基-1,2,4-三唑-4-基)-8-氮杂双环[3.2.1]辛烷-8-基;",
    "alternate_name": "Cyclohexanecarboxamide, 4,4-difluoro-<em>N</em>-[(1<em>S</em>)-3-[(3-<em>exo</em>)-3-[3-methyl-5-(1-methylethyl)-4<em>H</em>-1,2,4-triazol-4-yl]-8-azabicyclo[3.2.1]oct-8-yl]-1-phenylpropyl]-;4,4-Difluoro-<em>N</em>-[(1<em>S</em>)-3-[(3-<em>exo</em>)-3-[3-methyl-5-(1-methylethyl)-4<em>H</em>-1,2,4-triazol-4-yl]-8-azabicyclo[3.2.1]oct-8-yl]-1-phenylpropyl]cyclohexanecarboxamide;Maraviroc;UK 427857;Celsentri;Selzentry;4,4-Difluoro-N[(1S)-3-[(1R,5S)-3-(3-methyl-5-propan-2-yl-1,2,4-triazol-4-yl)-8-azabicyclo[3.2.1]octan-8-yl]-1-phenylpropyl]cyclohexane-1-carboxamide",
    "duplicated_cas_no": "674782-29-7",
    "SMILES": "C(C[C@H](NC(=O)C1CCC(F)(F)CC1)C2=CC=CC=C2)N3[C@@]4(C[C@@H](C[C@]3(CC4)[H])N5C(C(C)C)=NN=C5C)[H]",
    "meta_data": {
        "InChI": "InChI=1S/C29H41F2N5O/c1-19(2)27-34-33-20(3)36(27)25-17-23-9-10-24(18-25)35(23)16-13-26(21-7-5-4-6-8-21)32-28(37)22-11-14-29(30,31)15-12-22/h4-8,19,22-26H,9-18H2,1-3H3,(H,32,37)/t23-,24+,25-,26-/m0/s1",
        "InChIKey": null,
        "Canonical SMILES": "O=C(NC(C=1C=CC=CC1)CCN2C3CCC2CC(N4C(=NN=C4C(C)C)C)C3)C5CCC(F)(F)CC5",
        "Molecular Formula": "C<sub>29</sub>H<sub>41</sub>F<sub>2</sub>N<sub>5</sub>O",
        "Molecular Mass": "513.67",
        "Melting Point": "197-198 °C"
    }
}