{
    "cas_no": "71786-67-9",
    "key_name": "Ethanone, 1-(3-hydroxyphenyl)-2-[methyl(phenylmethyl)amino]-, hydrochloride (1:1)",
    "cn_name": null,
    "alternate_name": "Ethanone, 1-(3-hydroxyphenyl)-2-[methyl(phenylmethyl)amino]-, hydrochloride (1:1);Ethanone, 1-(3-hydroxyphenyl)-2-[methyl(phenylmethyl)amino]-, hydrochloride",
    "duplicated_cas_no": "",
    "SMILES": "C(CN(CC1=CC=CC=C1)C)(=O)C2=CC(O)=CC=C2.Cl",
    "meta_data": {
        "InChI": "InChI=1S/C16H17NO2.ClH/c1-17(11-13-6-3-2-4-7-13)12-16(19)14-8-5-9-15(18)10-14;/h2-10,18H,11-12H2,1H3;1H",
        "InChIKey": null,
        "Canonical SMILES": "Cl.O=C(C=1C=CC=C(O)C1)CN(C)CC=2C=CC=CC2",
        "Molecular Formula": "C<sub>16</sub>H<sub>17</sub>NO<sub>2</sub>.ClH",
        "Molecular Mass": "",
        "Melting Point": "202-203 °C"
    }
}