{
    "cas_no": "851178-99-9",
    "key_name": "4-Chloro-2,3-difluoropyridine",
    "cn_name": null,
    "alternate_name": "Pyridine, 4-chloro-2,3-difluoro-;4-Chloro-2,3-difluoropyridine",
    "duplicated_cas_no": "",
    "SMILES": "FC=1C(Cl)=CC=NC1F",
    "meta_data": {
        "InChI": "InChI=1S/C5H2ClF2N/c6-3-1-2-9-5(8)4(3)7/h1-2H",
        "InChIKey": null,
        "Canonical SMILES": "FC1=NC=CC(Cl)=C1F",
        "Molecular Formula": "C<sub>5</sub>H<sub>2</sub>ClF<sub>2</sub>N",
        "Molecular Mass": "149.53",
        "Boiling Point": "139-141 °C",
        "Melting Point": "-25--23 °C"
    }
}