{
    "cas_no": "55357-38-5",
    "key_name": "Ethanaminium, 2-hydroxy-<em>N</em>,<em>N</em>,<em>N</em>-trimethyl-, 4-methylbenzenesulfonate (1:1)",
    "cn_name": "胆碱对甲苯磺酸盐;(2-羟乙基)三甲基对甲苯磺酸铵;",
    "alternate_name": "Ethanaminium, 2-hydroxy-<em>N</em>,<em>N</em>,<em>N</em>-trimethyl-, 4-methylbenzenesulfonate (1:1);Ethanaminium, 2-hydroxy-<em>N</em>,<em>N</em>,<em>N</em>-trimethyl-, salt with 4-methylbenzenesulfonic acid (1:1);Choline <em>p</em>-toluenesulfonate;Choline toluenesulfonate;Choline tosylate",
    "duplicated_cas_no": "56345-24-5;70778-74-4",
    "SMILES": "S(=O)(=O)([O-])C1=CC=C(C)C=C1.C([N+](C)(C)C)CO",
    "meta_data": {
        "InChI": "InChI=1S/C7H8O3S.C5H14NO/c1-6-2-4-7(5-3-6)11(8,9)10;1-6(2,3)4-5-7/h2-5H,1H3,(H,8,9,10);7H,4-5H2,1-3H3/q;+1/p-1",
        "InChIKey": null,
        "Canonical SMILES": "O=S(=O)([O-])C1=CC=C(C=C1)C.OCC[N+](C)(C)C",
        "Molecular Formula": "C<sub>7</sub>H<sub>7</sub>O<sub>3</sub>S.C<sub>5</sub>H<sub>14</sub>NO",
        "Molecular Mass": "",
        "Melting Point": "107-108 °C"
    }
}