{
    "cas_no": "230295-09-7",
    "key_name": "2,3,6-Trifluorobenzenemethanamine",
    "cn_name": null,
    "alternate_name": "Benzenemethanamine, 2,3,6-trifluoro-;2,3,6-Trifluorobenzenemethanamine;2,3,6-Trifluorobenzylamine;(2,3,6-Trifluorophenyl)methanamine",
    "duplicated_cas_no": "",
    "SMILES": "C(N)C1=C(F)C(F)=CC=C1F",
    "meta_data": {
        "InChI": "InChI=1S/C7H6F3N/c8-5-1-2-6(9)7(10)4(5)3-11/h1-2H,3,11H2",
        "InChIKey": null,
        "Canonical SMILES": "FC1=CC=C(F)C(=C1F)CN",
        "Molecular Formula": "C<sub>7</sub>H<sub>6</sub>F<sub>3</sub>N",
        "Molecular Mass": "161.12",
        "Melting Point": "280-281 °C"
    }
}