{
    "cas_no": "6006-65-1",
    "key_name": "<em>N</em>,<em>N</em>-Dimethyl-1,1-dipropoxymethanamine",
    "cn_name": "N,N-二甲基甲酰胺二丙基缩醛;",
    "alternate_name": "Methanamine, <em>N</em>,<em>N</em>-dimethyl-1,1-dipropoxy-;Trimethylamine, 1,1-dipropoxy-;<em>N</em>,<em>N</em>-Dimethyl-1,1-dipropoxymethanamine;Dimethylformamide dipropyl acetal;<em>N</em>,<em>N</em>-Dimethylformamide dipropyl acetal;Propyl 8;DMF dipropyl acetal",
    "duplicated_cas_no": "",
    "SMILES": "C(OCCC)(OCCC)N(C)C",
    "meta_data": {
        "InChI": "InChI=1S/C9H21NO2/c1-5-7-11-9(10(3)4)12-8-6-2/h9H,5-8H2,1-4H3",
        "InChIKey": null,
        "Canonical SMILES": "O(CCC)C(OCCC)N(C)C",
        "Molecular Formula": "C<sub>9</sub>H<sub>21</sub>NO<sub>2</sub>",
        "Molecular Mass": "175.27",
        "Boiling Point": "96 °C @ Press: 50 Torr",
        "Density": "0.8537 g/cm³ @ Temp: 20 °C"
    }
}