{
    "cas_no": "79491-45-5",
    "key_name": "2,6-Dibromo-3-methoxypyridine",
    "cn_name": null,
    "alternate_name": "Pyridine, 2,6-dibromo-3-methoxy-;2,6-Dibromo-3-methoxypyridine",
    "duplicated_cas_no": "",
    "SMILES": "O(C)C1=C(Br)N=C(Br)C=C1",
    "meta_data": {
        "InChI": "InChI=1S/C6H5Br2NO/c1-10-4-2-3-5(7)9-6(4)8/h2-3H,1H3",
        "InChIKey": null,
        "Canonical SMILES": "BrC=1N=C(Br)C(OC)=CC1",
        "Molecular Formula": "C<sub>6</sub>H<sub>5</sub>Br<sub>2</sub>NO",
        "Molecular Mass": "266.92",
        "Melting Point": "99-100 °C"
    }
}