{
    "cas_no": "7440-02-0",
    "key_name": "Nickel",
    "cn_name": "镍;镍;镍粉;电解镍;骨架镍;镍催化剂;",
    "alternate_name": "Nickel;C.I. 77775;Raney nickel;Ni 4303T;NP 2;Nickel element;Novamet HCA 1;Fibrex;Alcan 756;Fibrex P;E 12 (metal);E 12;NDHT 90;Fukuda 287;Nikko 255;Celmet;Fibrex (metal fiber);SF 300;N 1;Trimag;Trimag (metal);DNI 20;Novamet 4SP;T 123;Novamet NI 255;NI 255AC;NI 287;NI 123;NDT 90;N 154;R 239;R 239 (catalyst);Incofoam;Carbonyl Nickel 123;Carbonyl Nickel 287;Novamet 4SP10;Carbonyl 255;Ni-Flake 95;Carbonyl Ni 283;Carbonyl Nickel 283;Carbonyl Ni 123;Novamet 525;NOT 90;Celmet 4;CHT;CNS 10 Micron;NDT 65;R 205;SO 550;SNP 551;SNP 122;B 113W;SO 850;Exmet 4 Ni X-4/0;SFR-Ni;T 287;T 287 (metal);T 123 (metal);Cerac N 2003;Carbonyl nickel;T 210H;Fibrex P (metal);SNP-YH 6;Nicrobraz LM:BNi 2;Raney 2800;Ni 210;PF 20;PF 20 (metal);NDT 60;R 200 (metal);R 200;NiFW;NiFL;Novamet CNS 400;2020SS;SN 300;N 100ES;N 1000 (metal);SF-Ni;N 1000;HDNP 400;YH 641;Ni-J 20;CNP 525;NI 110104;B 111W;Celmet 8;UT 3PM;Novamet 123;NN 20;YH-623;Raney nickel 2800;Inco 210;CNS 20 Micron;CNS 20 μ;4SP400;Celmet 6;NN 100;H 467;BP 113EXP-B;NFP 201;HCA 1;SO 100A;SO 250G;SO 750;Ni Celmet;Sun Ti-Ni;Nicobraz LM BNI2;SS 2020;NFP 401;T 255;Nikko Rica 123;FV 50D;NFP 201S;Raney-Ni;2020SUS;2007SUS;Nickel nanoparticles;CNS 10;CNi 123;NiS 10;NI 313463;Ni 255;NIE 02PB;N 525;Nickel foam;RTH 2123E;CAT 1600;LC-Ni;Raney Ni 4200;Raney 5886;Raney 2486;Raney 3110;Raney Ni 3202;Raney 3202;Raney Ni 3110;Raney 4200;Raney Ni 2800;Raney Ni 5886;Raney Ni 2486;4SP10;NR 730;NIE 01PB;NN 50;NFP 201X;Ni 123J;NI 313324;Vale 123;ETH 2000;Raney 5831;Acticat 1910;Raney Ni 2400;Raney Ni 6800;A 5000;Ni Powder CuLox 5100A;CuLox 5100A;SNP 350;E-Fill 1231;SNP 350E;Type 525;RTH 311;EQ-bcnf 16m;SO 750R;Vale 255;AE-I;AR Mold 2;Ni 123T;NR 707;Nickel SA-1 adjuvant DR;Inco Nickel Powder 255;NIF 50;MG-Ni 600;MG-Ni 50;NI 255T;NI 525;Nickel Powder 123;Nickel Powder 525LD;Conductive Nickel Flake HCA-1;Nickel Flake-Fine Water Grade;NI 255T280;SNi 1;NP-NI-3;NF 32;Raney 2400;NI 313551;SRM 986;SN 354-400;S 300;CSN 10;nickel;S 300 (metal);SD 1000;SO 350 (catalyst);SO 350;SO 100AR;SO 250;SO 650;SN 250;SN 570;SN 705;SN 780;N 5001;RC 311;Ni 006021;RTH 3124;RC 211 (nickel);RC 211;Type 255;CN 050;NiFLA 10;NiFL 5;MeSH ID: D009532;LXJ 2605;HCA 2;HCA 5;HCA 7;RaneCAT 1200",
    "duplicated_cas_no": "8049-31-8;17375-04-1;39303-46-3;53527-81-4;112084-17-0;134631-46-2;195161-84-3;206281-40-5;623574-57-2;878162-96-0;1250376-70-5;1250376-73-8;1262528-31-3;1437722-77-4;1437723-06-2;1437723-36-8;1628452-65-2;2088200-08-0;2230258-36-1",
    "SMILES": "[Ni]",
    "meta_data": {
        "InChI": "InChI=1S/Ni",
        "InChIKey": null,
        "Canonical SMILES": "[Ni]",
        "Molecular Formula": "Ni",
        "Molecular Mass": "",
        "Boiling Point": "2730 °C",
        "Melting Point": "1455 °C",
        "Density": "8.908 g/cm³"
    }
}