{
    "cas_no": "111-70-6",
    "key_name": "1-Heptanol",
    "cn_name": "庚醇;1-庚醇;正庚醇;",
    "alternate_name": "1-Heptanol;Heptyl alcohol;Enanthic alcohol;<em>n</em>-Heptanol;1-Hydroxyheptane;<em>n</em>-Heptyl alcohol;Gentanol;<em>n</em>-Heptan-1-ol;NSC 3703",
    "duplicated_cas_no": "",
    "SMILES": "C(CCCO)CCC",
    "meta_data": {
        "InChI": "InChI=1S/C7H16O/c1-2-3-4-5-6-7-8/h8H,2-7H2,1H3",
        "InChIKey": null,
        "Canonical SMILES": "OCCCCCCC",
        "Molecular Formula": "C<sub>7</sub>H<sub>16</sub>O",
        "Molecular Mass": "116.20",
        "Boiling Point": "175.8 °C @ Press: 760 Torr",
        "Melting Point": "-34.6 °C",
        "Density": "0.8219 g/cm³ @ Temp: 20 °C"
    }
}