{
    "cas_no": "20980-22-7",
    "key_name": "1-(2-Pyrimidinyl)piperazine",
    "cn_name": "1-(2-嘧啶基)哌嗪;",
    "alternate_name": "Pyrimidine, 2-(1-piperazinyl)-;2-(1-Piperazinyl)pyrimidine;1-(2-Pyrimidinyl)piperazine;1-(2-Pyrimidyl)piperazine;MJ 13653;4-(2-Pyrimidinyl)piperazine;1-PP;CM 56324H;PmP;<em>N</em>-2-Pyrimidinylpiperazine;2-Piperazinopyrimidine;1-(4-Pyrimidin-2-yl)piperazine",
    "duplicated_cas_no": "116613-86-6",
    "SMILES": "C=1(N=CC=CN1)N2CCNCC2",
    "meta_data": {
        "InChI": "InChI=1S/C8H12N4/c1-2-10-8(11-3-1)12-6-4-9-5-7-12/h1-3,9H,4-7H2",
        "InChIKey": null,
        "Canonical SMILES": "N=1C=CC=NC1N2CCNCC2",
        "Molecular Formula": "C<sub>8</sub>H<sub>12</sub>N<sub>4</sub>",
        "Molecular Mass": "164.21",
        "Boiling Point": "118-120 °C @ Press: 2 Torr",
        "Melting Point": "176.5-178.5 °C"
    }
}