{
    "cas_no": "3093-35-4",
    "key_name": "Halcinonide",
    "cn_name": "哈西奈德;16a,17-[(1-甲基亚乙基)双氧]-11b-羟基-21-氯-9-氟孕甾-4-烯-3,20-二酮;",
    "alternate_name": "Pregn-4-ene-3,20-dione, 21-chloro-9-fluoro-11-hydroxy-16,17-[(1-methylethylidene)bis(oxy)]-, (11β,16α)-;Pregn-4-ene-3,20-dione, 21-chloro-9-fluoro-11β,16α,17-trihydroxy-, cyclic 16,17-acetal with acetone;2<em>H</em>-Naphth[2′,1′:4,5]indeno[1,2-<em>d</em>][1,3]dioxole, pregn-4-ene-3,20-dione deriv.;(11β,16α)-21-Chloro-9-fluoro-11-hydroxy-16,17-[(1-methylethylidene)bis(oxy)]pregn-4-ene-3,20-dione;Halcinonide;SQ 18566;Halog;Halciderm;Alcinonide;Adcortin;Halcimat;MeSH ID: D006206",
    "duplicated_cas_no": "2205903-20-2",
    "SMILES": "C(CCl)(=O)[C@]12[C@]3(C)[C@@](C[C@]1(OC(C)(C)O2)[H])([C@]4([C@](F)([C@@H](O)C3)[C@]5(C)C(CC4)=CC(=O)CC5)[H])[H]",
    "meta_data": {
        "InChI": "InChI=1S/C24H32ClFO5/c1-20(2)30-19-10-16-15-6-5-13-9-14(27)7-8-21(13,3)23(15,26)17(28)11-22(16,4)24(19,31-20)18(29)12-25/h9,15-17,19,28H,5-8,10-12H2,1-4H3/t15-,16-,17-,19+,21-,22-,23-,24+/m0/s1",
        "InChIKey": null,
        "Canonical SMILES": "O=C1C=C2CCC3C4CC5OC(OC5(C(=O)CCl)C4(C)CC(O)C3(F)C2(C)CC1)(C)C",
        "Molecular Formula": "C<sub>24</sub>H<sub>32</sub>ClFO<sub>5</sub>",
        "Molecular Mass": "454.96",
        "Melting Point": "264 °C (decomp)"
    }
}