{
    "cas_no": "507-20-0",
    "key_name": "<em>tert</em>-Butyl chloride",
    "cn_name": "氯代叔丁烷;叔丁基氯;2-氯-2-甲基丙烷;",
    "alternate_name": "Propane, 2-chloro-2-methyl-;2-Chloro-2-methylpropane;2-Chloroisobutane;Trimethylchloromethane;2-Methyl-2-propyl chloride;2-Methyl-2-chloropropane;Chlorotrimethylmethane;1,1-Dimethylethyl chloride;1-Chloro-1,1-dimethylethane;<em>tert</em>-Butyl chloride;NSC 6527",
    "duplicated_cas_no": "",
    "SMILES": "C(C)(C)(C)Cl",
    "meta_data": {
        "InChI": "InChI=1S/C4H9Cl/c1-4(2,3)5/h1-3H3",
        "InChIKey": null,
        "Canonical SMILES": "ClC(C)(C)C",
        "Molecular Formula": "C<sub>4</sub>H<sub>9</sub>Cl",
        "Molecular Mass": "92.57",
        "Boiling Point": "50.9 °C",
        "Melting Point": "-26 °C",
        "Density": "0.8511 g/cm³ @ Temp: 20 °C"
    }
}