{
    "cas_no": "4484-72-4",
    "key_name": "Trichlorododecylsilane",
    "cn_name": "正十二烷基三氯硅烷;",
    "alternate_name": "Silane, trichlorododecyl-;Trichlorododecylsilane;Dodecyltrichlorosilane;NSC 139836;<em>n</em>-Dodecyltrichlorosilane",
    "duplicated_cas_no": "",
    "SMILES": "C(CCCCCCCCC)CC[Si](Cl)(Cl)Cl",
    "meta_data": {
        "InChI": "InChI=1S/C12H25Cl3Si/c1-2-3-4-5-6-7-8-9-10-11-12-16(13,14)15/h2-12H2,1H3",
        "InChIKey": null,
        "Canonical SMILES": "Cl[Si](Cl)(Cl)CCCCCCCCCCCC",
        "Molecular Formula": "C<sub>12</sub>H<sub>25</sub>Cl<sub>3</sub>Si",
        "Molecular Mass": "303.77",
        "Boiling Point": "288 °C",
        "Melting Point": "-30 °C",
        "Density": "1.026 g/cm³ @ Temp: 25 °C"
    }
}