{
    "cas_no": "142217-69-4",
    "key_name": "Entecavir",
    "cn_name": "恩替卡韦;9-(4-羟基-3-羟甲基-2-亚甲基环戊-1-基)鸟嘌呤;",
    "alternate_name": "6<em>H</em>-Purin-6-one, 2-amino-1,9-dihydro-9-[(1<em>S</em>,3<em>R</em>,4<em>S</em>)-4-hydroxy-3-(hydroxymethyl)-2-methylenecyclopentyl]-;6<em>H</em>-Purin-6-one, 2-amino-1,9-dihydro-9-[4-hydroxy-3-(hydroxymethyl)-2-methylenecyclopentyl]-, [1<em>S</em>-(1α,3α,4β)]-;2-Amino-1,9-dihydro-9-[(1<em>S</em>,3<em>R</em>,4<em>S</em>)-4-hydroxy-3-(hydroxymethyl)-2-methylenecyclopentyl]-6<em>H</em>-purin-6-one;BMS 200475;Entecavir;SQ 34676;Baraclude;ETV;31: PN: WO2016077321 SEQID: 31 claimed sequence",
    "duplicated_cas_no": "",
    "SMILES": "C=C1[C@@H](N2C3=C(N=C2)C(=O)N=C(N)N3)C[C@H](O)[C@H]1CO",
    "meta_data": {
        "InChI": "InChI=1S/C12H15N5O3/c1-5-6(3-18)8(19)2-7(5)17-4-14-9-10(17)15-12(13)16-11(9)20/h4,6-8,18-19H,1-3H2,(H3,13,15,16,20)/t6-,7-,8-/m0/s1",
        "InChIKey": null,
        "Canonical SMILES": "O=C1N=C(N)NC2=C1N=CN2C3C(=C)C(CO)C(O)C3",
        "Molecular Formula": "C<sub>12</sub>H<sub>15</sub>N<sub>5</sub>O<sub>3</sub>",
        "Molecular Mass": "277.28",
        "Melting Point": "246-248 °C"
    }
}