{
    "cas_no": "95-50-1",
    "key_name": "1,2-Dichlorobenzene",
    "cn_name": "邻二氯苯;1,2-二氯苯;",
    "alternate_name": "Benzene, 1,2-dichloro-;Benzene, <em>o</em>-dichloro-;1,2-Dichlorobenzene;Cloroben;<em>o</em>-Dichlorobenzene;Dowtherm E;Dilatin DB;NSC 60644",
    "duplicated_cas_no": "",
    "SMILES": "ClC1=C(Cl)C=CC=C1",
    "meta_data": {
        "InChI": "InChI=1S/C6H4Cl2/c7-5-3-1-2-4-6(5)8/h1-4H",
        "InChIKey": null,
        "Canonical SMILES": "ClC=1C=CC=CC1Cl",
        "Molecular Formula": "C<sub>6</sub>H<sub>4</sub>Cl<sub>2</sub>",
        "Molecular Mass": "147.00",
        "Boiling Point": "180.1 °C @ Press: 760 Torr",
        "Melting Point": "-16.7 °C",
        "Density": "1.3059 g/cm³ @ Temp: 20 °C"
    }
}