{
    "cas_no": "3268-49-3",
    "key_name": "Methional",
    "cn_name": "3-甲硫基丙醛;",
    "alternate_name": "Propanal, 3-(methylthio)-;Propionaldehyde, 3-(methylthio)-;3-(Methylthio)propanal;Methional;β-(Methylthio)propionaldehyde;3-(Methylthio)propionaldehyde;β-(Methylmercapto)propionaldehyde;3-(Methylmercapto)propionaldehyde;β-(Methylthio)propionic aldehyde;NSC 15874;3-Methylsulfanylpropionaldehyde;3-Methylthio-1-propanal;3-Methylthiopropanaldehyde;3-(Methylmercapto)propanal;3-Methylsulfanylpropanal;3-Methylthiopropan-1-one;4-Heptenal, 7-(methylthio)-",
    "duplicated_cas_no": "2739708-86-0",
    "SMILES": "C(CSC)C=O",
    "meta_data": {
        "InChI": "InChI=1S/C4H8OS/c1-6-4-2-3-5/h3H,2,4H2,1H3",
        "InChIKey": null,
        "Canonical SMILES": "O=CCCSC",
        "Molecular Formula": "C<sub>4</sub>H<sub>8</sub>OS",
        "Molecular Mass": "104.17",
        "Boiling Point": "165 °C",
        "Melting Point": "-75 °C",
        "Density": "1.03 g/cm³"
    }
}