{
    "cas_no": "7055-03-0",
    "key_name": "Mebenil",
    "cn_name": "邻酰胺;灭锈胺；2-甲基苯酰替苯胺;",
    "alternate_name": "Benzamide, 2-methyl-<em>N</em>-phenyl-;<em>o</em>-Toluanilide;2-Methyl-<em>N</em>-phenylbenzamide;BAS 3050F;2-Methylbenzoic acid anilide;Mebenil;2-Methylbenzanilide;F 368;2-Methylbenzoanilide;BAS 3050;BAS 305;Bebenil;<em>o</em>-Methylbenzanilide;SHA 458100;NSC 227402;NSC 26404",
    "duplicated_cas_no": "",
    "SMILES": "C(NC1=CC=CC=C1)(=O)C2=C(C)C=CC=C2",
    "meta_data": {
        "InChI": "InChI=1S/C14H13NO/c1-11-7-5-6-10-13(11)14(16)15-12-8-3-2-4-9-12/h2-10H,1H3,(H,15,16)",
        "InChIKey": null,
        "Canonical SMILES": "O=C(NC=1C=CC=CC1)C=2C=CC=CC2C",
        "Molecular Formula": "C<sub>14</sub>H<sub>13</sub>NO",
        "Molecular Mass": "211.26",
        "Melting Point": "125 °C"
    }
}