{
    "cas_no": "2104-96-3",
    "key_name": "Bromophos",
    "cn_name": "溴磷松;溴硫磷;",
    "alternate_name": "Phosphorothioic acid, <em>O</em>-(4-bromo-2,5-dichlorophenyl) <em>O</em>,<em>O</em>-dimethyl ester;Cela S 1942;S 1942;<em>O</em>-(4-Bromo-2,5-dichlorophenyl) <em>O</em>,<em>O</em>-dimethyl phosphorothioate;4-Bromo-2,5-dichlorophenyl dimethyl phosphorothionate;Bromophos;<em>O</em>,<em>O</em>-Dimethyl <em>O</em>-(4-bromo-2,5-dichlorophenyl) phosphorothioate;<em>O</em>,<em>O</em>-Dimethyl-<em>O</em>-(2,5-dichloro-4-bromophenyl)phosphorothioate;<em>O</em>,<em>O</em>-Dimethyl <em>O</em>-(2,5-dichloro-4-bromophenyl) thiophosphate;EL 400;Nexion;Nexion 40;Bromofos;OMS 658;Nexion LC 40;Drillzid;Bromovur;Bromophos-methyl;Nexion 5G;Metabrom;Sovinexion;Omexan;Nexion 40EC;Nexion 25WP;<em>O</em>,<em>O</em>-Dimethyl <em>O</em>-(4-bromo-2,5-dichlorophenyl) phosphorothionate;NSC 527602",
    "duplicated_cas_no": "12778-42-6;12778-41-5",
    "SMILES": "O(P(OC)(OC)=S)C1=C(Cl)C=C(Br)C(Cl)=C1",
    "meta_data": {
        "InChI": "InChI=1S/C8H8BrCl2O3PS/c1-12-15(16,13-2)14-8-4-6(10)5(9)3-7(8)11/h3-4H,1-2H3",
        "InChIKey": null,
        "Canonical SMILES": "S=P(OC=1C=C(Cl)C(Br)=CC1Cl)(OC)OC",
        "Molecular Formula": "C<sub>8</sub>H<sub>8</sub>BrCl<sub>2</sub>O<sub>3</sub>PS",
        "Molecular Mass": "366.00",
        "Boiling Point": "140-142 °C @ Press: 0.01 Torr",
        "Melting Point": "53-54 °C"
    }
}