{
    "cas_no": "104-91-6",
    "key_name": "4-Nitrosophenol",
    "cn_name": "4-亚硝基苯酚;对亚硝基苯酚;",
    "alternate_name": "Phenol, 4-nitroso-;Phenol, <em>p</em>-nitroso-;4-Nitrosophenol;<em>p</em>-Nitrosophenol;Nitrosophenol;NSC 3124",
    "duplicated_cas_no": "",
    "SMILES": "N(=O)C1=CC=C(O)C=C1",
    "meta_data": {
        "InChI": "InChI=1S/C6H5NO2/c8-6-3-1-5(7-9)2-4-6/h1-4,8H",
        "InChIKey": null,
        "Canonical SMILES": "O=NC1=CC=C(O)C=C1",
        "Molecular Formula": "C<sub>6</sub>H<sub>5</sub>NO<sub>2</sub>",
        "Molecular Mass": "123.11",
        "Melting Point": "144 °C (decomp)"
    }
}