{
    "cas_no": "100198-09-2",
    "key_name": "Piscidinol A",
    "cn_name": null,
    "alternate_name": "Lanost-7-en-3-one, 23,24,25-trihydroxy-, (13α,14β,17α,20<em>S</em>,23<em>R</em>,24<em>S</em>)-;(13α,14β,17α,20<em>S</em>,23<em>R</em>,24<em>S</em>)-23,24,25-Trihydroxylanost-7-en-3-one;Piscidinol A",
    "duplicated_cas_no": "115404-56-3;135417-15-1;2237961-18-9",
    "SMILES": "C[C@@]12[C@@]3(C([C@]4(C)[C@@](C)(CC3)[C@]([C@H](C[C@H]([C@@H](C(C)(C)O)O)O)C)(CC4)[H])=CC[C@]1(C(C)(C)C(=O)CC2)[H])[H]",
    "meta_data": {
        "InChI": "InChI=1S/C30H50O4/c1-18(17-22(31)25(33)27(4,5)34)19-11-15-30(8)21-9-10-23-26(2,3)24(32)13-14-28(23,6)20(21)12-16-29(19,30)7/h9,18-20,22-23,25,31,33-34H,10-17H2,1-8H3/t18-,19-,20-,22+,23-,25-,28+,29-,30+/m0/s1",
        "InChIKey": null,
        "Canonical SMILES": "O=C1CCC2(C)C3C(=CCC2C1(C)C)C4(C)CCC(C(C)CC(O)C(O)C(O)(C)C)C4(C)CC3",
        "Molecular Formula": "C<sub>30</sub>H<sub>50</sub>O<sub>4</sub>",
        "Molecular Mass": "474.72",
        "Melting Point": "195 °C"
    }
}