{
    "cas_no": "13552-11-9",
    "key_name": "4-Hydroxysphinganine",
    "cn_name": null,
    "alternate_name": "1,3,4-Octadecanetriol, 2-amino-;2-Amino-1,3,4-octadecanetriol;4-Hydroxysphinganine;4-Hydroxysphiganine",
    "duplicated_cas_no": "28508-05-6",
    "SMILES": "C(CCCCCCCCCCCCCC)(C(C(CO)N)O)O",
    "meta_data": {
        "InChI": "InChI=1S/C18H39NO3/c1-2-3-4-5-6-7-8-9-10-11-12-13-14-17(21)18(22)16(19)15-20/h16-18,20-22H,2-15,19H2,1H3",
        "InChIKey": null,
        "Canonical SMILES": "OCC(N)C(O)C(O)CCCCCCCCCCCCCC",
        "Molecular Formula": "C<sub>18</sub>H<sub>39</sub>NO<sub>3</sub>",
        "Molecular Mass": "317.51",
        "Melting Point": "136-138 °C"
    }
}