{
    "cas_no": "358-60-1",
    "key_name": "Triethoxyfluorosilane",
    "cn_name": "一氟三乙氧基硅烷;一氟三乙氧基硅烷;",
    "alternate_name": "Silane, triethoxyfluoro-;Triethoxyfluorosilane;Triethoxyfluorosilicon;Silicon fluoride triethoxide;Silicon fluoride triethoxide (Si(OEt)<sub>3</sub>F);Silicon monofluoride triethoxide (Si(OEt)<sub>3</sub>F);Fluorotriethoxysilane;Silicon fluoride triethoxide (SiF(OEt)<sub>3</sub>)",
    "duplicated_cas_no": "",
    "SMILES": "[Si](OCC)(OCC)(OCC)F",
    "meta_data": {
        "InChI": "InChI=1S/C6H15FO3Si/c1-4-8-11(7,9-5-2)10-6-3/h4-6H2,1-3H3",
        "InChIKey": null,
        "Canonical SMILES": "F[Si](OCC)(OCC)OCC",
        "Molecular Formula": "C<sub>6</sub>H<sub>15</sub>FO<sub>3</sub>Si",
        "Molecular Mass": "182.27",
        "Boiling Point": "133-134 °C",
        "Melting Point": "134-135 °C",
        "Density": "0.94 g/cm³"
    }
}