{
    "cas_no": "62-50-0",
    "key_name": "Ethyl methanesulfonate",
    "cn_name": "甲磺酸乙酯;",
    "alternate_name": "Methanesulfonic acid, ethyl ester;EMS;Ethyl methanesulfonate;Ethyl methanesulphonate;NSC 26805;Ethyl mesylate;<em>O</em>-Ethyl methylsulfonate;MeSH ID: D005020",
    "duplicated_cas_no": "101946-08-1",
    "SMILES": "O(S(C)(=O)=O)CC",
    "meta_data": {
        "InChI": "InChI=1S/C3H8O3S/c1-3-6-7(2,4)5/h3H2,1-2H3",
        "InChIKey": null,
        "Canonical SMILES": "O=S(=O)(OCC)C",
        "Molecular Formula": "C<sub>3</sub>H<sub>8</sub>O<sub>3</sub>S",
        "Molecular Mass": "124.16",
        "Boiling Point": "213-213.5 °C @ Press: 761 Torr",
        "Melting Point": "&lt;25 °C",
        "Density": "1.1452 g/cm³ @ Temp: 22 °C"
    }
}