{
    "cas_no": "6274-12-0",
    "key_name": "Ethanamine, <em>N</em>-ethyl-, hydrobromide (1:1)",
    "cn_name": "二乙胺溴氢酸盐;二乙胺氢溴酸盐;",
    "alternate_name": "Ethanamine, <em>N</em>-ethyl-, hydrobromide (1:1);Diethylamine, hydrobromide;Ethanamine, <em>N</em>-ethyl-, hydrobromide;Diethylammonium bromide",
    "duplicated_cas_no": "",
    "SMILES": "N(CC)CC.Br",
    "meta_data": {
        "InChI": "InChI=1S/C4H11N.BrH/c1-3-5-4-2;/h5H,3-4H2,1-2H3;1H",
        "InChIKey": null,
        "Canonical SMILES": "Br.N(CC)CC",
        "Molecular Formula": "C<sub>4</sub>H<sub>11</sub>N.BrH",
        "Molecular Mass": "",
        "Melting Point": "218-220 °C"
    }
}