{
    "cas_no": "19463-48-0",
    "key_name": "3-Chloro-4-hydroxy-5-methoxybenzaldehyde",
    "cn_name": null,
    "alternate_name": "Benzaldehyde, 3-chloro-4-hydroxy-5-methoxy-;Vanillin, 5-chloro-;3-Chloro-4-hydroxy-5-methoxybenzaldehyde;5-Chlorovanillin;5-Monochlorovanillin;NSC 45929",
    "duplicated_cas_no": "",
    "SMILES": "O(C)C1=C(O)C(Cl)=CC(C=O)=C1",
    "meta_data": {
        "InChI": "InChI=1S/C8H7ClO3/c1-12-7-3-5(4-10)2-6(9)8(7)11/h2-4,11H,1H3",
        "InChIKey": null,
        "Canonical SMILES": "O=CC1=CC(Cl)=C(O)C(OC)=C1",
        "Molecular Formula": "C<sub>8</sub>H<sub>7</sub>ClO<sub>3</sub>",
        "Molecular Mass": "186.59",
        "Melting Point": "165 °C"
    }
}