{
    "cas_no": "1210-39-5",
    "key_name": "β-Phenylcinnamaldehyde",
    "cn_name": "β-苯基肉桂醛;",
    "alternate_name": "2-Propenal, 3,3-diphenyl-;Acrolein, 3,3-diphenyl-;3,3-Diphenyl-2-propenal;β-Phenylcinnamaldehyde;3,3-Diphenylacrolein;β,β-Diphenylacrolein;3-Phenylcinnamaldehyde;NSC 87895;3,3-Diphenylacrylaldehyde",
    "duplicated_cas_no": "1428758-17-1",
    "SMILES": "C(=CC=O)(C1=CC=CC=C1)C2=CC=CC=C2",
    "meta_data": {
        "InChI": "InChI=1S/C15H12O/c16-12-11-15(13-7-3-1-4-8-13)14-9-5-2-6-10-14/h1-12H",
        "InChIKey": null,
        "Canonical SMILES": "O=CC=C(C=1C=CC=CC1)C=2C=CC=CC2",
        "Molecular Formula": "C<sub>15</sub>H<sub>12</sub>O",
        "Molecular Mass": "208.26",
        "Boiling Point": "205-210 °C @ Press: 14 Torr",
        "Melting Point": "44 °C"
    }
}