{
    "cas_no": "5086-74-8",
    "key_name": "Tetramisole hydrochloride",
    "cn_name": "盐酸四咪唑;DL-2,3,5,6-四氢-6-苯基咪唑并[2,1-b]噻唑盐酸盐;",
    "alternate_name": "Imidazo[2,1-<em>b</em>]thiazole, 2,3,5,6-tetrahydro-6-phenyl-, hydrochloride (1:1);Imidazo[2,1-<em>b</em>]thiazole, 2,3,5,6-tetrahydro-6-phenyl-, monohydrochloride, (±)-;Imidazo[2,1-<em>b</em>]thiazole, 2,3,5,6-tetrahydro-6-phenyl-, monohydrochloride;McN JR 8299;R 8299;Ripercol;Tetramisole hydrochloride;(±)-Tetramisole hydrochloride;Nilverm;(±)-6-Phenyl-2,3,5,6-tetrahydroimidazo[2,1-<em>b</em>]thiazole hydrochloride;Nilverom;<span class=\"text-smallcaps\">DL</span>-Tetramisole hydrochloride;Anthelvet;Citarin;Concurat;Verminject;Curaminth;Tetraamisol hydrochloride;RP 16535;2,3,5,6-Tetrahydro-6-phenylimidazo[2,1-<em>b</em>]thiazole hydrochloride;NSC 170985;NSC 215179",
    "duplicated_cas_no": "4641-34-3;13576-95-9;56720-89-9;57901-78-7;17748-90-2",
    "SMILES": "C1(CN2C(=N1)SCC2)C3=CC=CC=C3.Cl",
    "meta_data": {
        "InChI": "InChI=1S/C11H12N2S.ClH/c1-2-4-9(5-3-1)10-8-13-6-7-14-11(13)12-10;/h1-5,10H,6-8H2;1H",
        "InChIKey": null,
        "Canonical SMILES": "Cl.N1=C2SCCN2CC1C=3C=CC=CC3",
        "Molecular Formula": "C<sub>11</sub>H<sub>12</sub>N<sub>2</sub>S.ClH",
        "Molecular Mass": "",
        "Melting Point": "264-266 °C"
    }
}