{
    "cas_no": "5635-67-6",
    "key_name": "3,4-Dichloro-<em>N</em>-methylbenzenemethanamine",
    "cn_name": "N-(3,4-二氯苄基)-N-甲胺;",
    "alternate_name": "Benzenemethanamine, 3,4-dichloro-<em>N</em>-methyl-;Benzylamine, 3,4-dichloro-<em>N</em>-methyl-;3,4-Dichloro-<em>N</em>-methylbenzenemethanamine;<em>N</em>-Methyl-3,4-dichlorobenzylamine;<em>N</em>-(3,4-Dichlorobenzyl)-<em>N</em>-methylamine;1-(3,4-Dichlorophenyl)-<em>N</em>-methylmethanamine;3,4-Dichloro-<em>N</em>-methylbenzylamine;(3,4-Dichlorobenzyl)methylamine;[(3,4-Dichlorophenyl)methyl](methyl)amine",
    "duplicated_cas_no": "",
    "SMILES": "C(NC)C1=CC(Cl)=C(Cl)C=C1",
    "meta_data": {
        "InChI": "InChI=1S/C8H9Cl2N/c1-11-5-6-2-3-7(9)8(10)4-6/h2-4,11H,5H2,1H3",
        "InChIKey": null,
        "Canonical SMILES": "ClC1=CC=C(C=C1Cl)CNC",
        "Molecular Formula": "C<sub>8</sub>H<sub>9</sub>Cl<sub>2</sub>N",
        "Molecular Mass": "190.07",
        "Boiling Point": "146 °C @ Press: 47 Torr"
    }
}