{
    "cas_no": "171408-76-7",
    "key_name": "2-Bromo-9,9′-spirobi[9<em>H</em>-fluorene]",
    "cn_name": "2-溴-9,9\"-螺二芴;",
    "alternate_name": "9,9′-Spirobi[9<em>H</em>-fluorene], 2-bromo-;2-Bromo-9,9′-spirobi[9<em>H</em>-fluorene];2-Bromo-9-spirobifluorene;2-Bromospirobifluorene;2-Bromo-9,9′-spirobi[fluorene];2-Bromospiro[fluorene-9,9′-fluorene];2-Bromo-9,9′-spirobi(9H-fluorene)",
    "duplicated_cas_no": "",
    "SMILES": "BrC=1C=C2C3(C=4C(C2=CC1)=CC=CC4)C=5C(C=6C3=CC=CC6)=CC=CC5",
    "meta_data": {
        "InChI": "InChI=1S/C25H15Br/c26-16-13-14-20-19-9-3-6-12-23(19)25(24(20)15-16)21-10-4-1-7-17(21)18-8-2-5-11-22(18)25/h1-15H",
        "InChIKey": null,
        "Canonical SMILES": "BrC1=CC=C2C=3C=CC=CC3C4(C=5C=CC=CC5C=6C=CC=CC64)C2=C1",
        "Molecular Formula": "C<sub>25</sub>H<sub>15</sub>Br",
        "Molecular Mass": "395.29",
        "Melting Point": "181-183 °C"
    }
}