{
    "cas_no": "4808-48-4",
    "key_name": "Diphenylmaleic anhydride",
    "cn_name": "2,3-联苯基马来酸酐;3,4-二苯基-2,5-呋喃二酮;",
    "alternate_name": "2,5-Furandione, 3,4-diphenyl-;Maleic anhydride, diphenyl-;3,4-Diphenyl-2,5-furandione;α,α′-Diphenylmaleic anhydride;α,α′-Diphenylmaleic acid anhydride;Diphenylmaleic anhydride;2,3-Diphenylmaleic anhydride;NSC 47959",
    "duplicated_cas_no": "1194755-20-8",
    "SMILES": "O=C1C(=C(C(=O)O1)C2=CC=CC=C2)C3=CC=CC=C3",
    "meta_data": {
        "InChI": "InChI=1S/C16H10O3/c17-15-13(11-7-3-1-4-8-11)14(16(18)19-15)12-9-5-2-6-10-12/h1-10H",
        "InChIKey": null,
        "Canonical SMILES": "O=C1OC(=O)C(C=2C=CC=CC2)=C1C=3C=CC=CC3",
        "Molecular Formula": "C<sub>16</sub>H<sub>10</sub>O<sub>3</sub>",
        "Molecular Mass": "250.25",
        "Melting Point": "158-158.5 °C"
    }
}