{
    "cas_no": "643-03-8",
    "key_name": "<span class=\"text-smallcaps\">D</span>-Altritol",
    "cn_name": null,
    "alternate_name": "<span class=\"text-smallcaps\">D</span>-Altritol;Altritol, <span class=\"text-smallcaps\">D</span>-;<span class=\"text-smallcaps\">D</span>-Talitol",
    "duplicated_cas_no": "17308-29-1;22576-99-4",
    "SMILES": "[C@@H]([C@@H]([C@@H](CO)O)O)([C@@H](CO)O)O",
    "meta_data": {
        "InChI": "InChI=1S/C6H14O6/c7-1-3(9)5(11)6(12)4(10)2-8/h3-12H,1-2H2/t3-,4-,5-,6+/m1/s1",
        "InChIKey": null,
        "Canonical SMILES": "OCC(O)C(O)C(O)C(O)CO",
        "Molecular Formula": "C<sub>6</sub>H<sub>14</sub>O<sub>6</sub>",
        "Molecular Mass": "182.17",
        "Melting Point": "66-67 °C"
    }
}