{
    "cas_no": "6291-16-3",
    "key_name": "1-Deoxy-1-morpholinofructose",
    "cn_name": "1-脱氧-1-吗啉-D-果糖;1-脱氧-1-吗啉-D-果糖;1-脱氧-1-吗啉代-D-果糖;1-脱氧-1-吗啉代-D-果糖;",
    "alternate_name": "<span class=\"text-smallcaps\">D</span>-Fructose, 1-deoxy-1-(4-morpholinyl)-;Fructose, 1-deoxy-1-morpholino-, <span class=\"text-smallcaps\">D</span>-;1-Deoxy-1-(4-morpholinyl)-<span class=\"text-smallcaps\">D</span>-fructose;1-Deoxy-1-morpholinofructose;1-Deoxy-1-morpholino-<span class=\"text-smallcaps\">D</span>-fructose",
    "duplicated_cas_no": "",
    "SMILES": "C(C([C@H]([C@@H]([C@@H](CO)O)O)O)=O)N1CCOCC1",
    "meta_data": {
        "InChI": "InChI=1S/C10H19NO6/c12-6-8(14)10(16)9(15)7(13)5-11-1-3-17-4-2-11/h8-10,12,14-16H,1-6H2/t8-,9-,10-/m1/s1",
        "InChIKey": null,
        "Canonical SMILES": "O=C(CN1CCOCC1)C(O)C(O)C(O)CO",
        "Molecular Formula": "C<sub>10</sub>H<sub>19</sub>NO<sub>6</sub>",
        "Molecular Mass": "249.26",
        "Melting Point": "147-148 °C"
    }
}