{
    "cas_no": "89226-12-0",
    "key_name": "(2<em>S</em>)-2-Amino-<em>N</em>,3,3-trimethylbutanamide",
    "cn_name": "L-叔亮氨酸甲酰胺;",
    "alternate_name": "Butanamide, 2-amino-<em>N</em>,3,3-trimethyl-, (2<em>S</em>)-;Butanamide, 2-amino-<em>N</em>,3,3-trimethyl-, (<em>S</em>)-;(2<em>S</em>)-2-Amino-<em>N</em>,3,3-trimethylbutanamide;<em>S</em>-<em>tert</em>-Leucine <em>N</em>-methylamide;<span class=\"text-smallcaps\">L</span>-<em>tert</em>-Leucine-<em>N</em>-methylamide;<span class=\"text-smallcaps\">L</span>-<em>tert</em>-Leucine methylamide;(<em>S</em>)-2-Amino-<em>N</em>-methyl-3,3-dimethylbutanamide",
    "duplicated_cas_no": "",
    "SMILES": "[C@H](C(C)(C)C)(C(NC)=O)N",
    "meta_data": {
        "InChI": "InChI=1S/C7H16N2O/c1-7(2,3)5(8)6(10)9-4/h5H,8H2,1-4H3,(H,9,10)/t5-/m1/s1",
        "InChIKey": null,
        "Canonical SMILES": "O=C(NC)C(N)C(C)(C)C",
        "Molecular Formula": "C<sub>7</sub>H<sub>16</sub>N<sub>2</sub>O",
        "Molecular Mass": "144.21",
        "Melting Point": "121-123 °C"
    }
}