{
    "cas_no": "100-68-5",
    "key_name": "Thioanisole",
    "cn_name": "甲基苯基硫醚;茴香硫醚;",
    "alternate_name": "Benzene, (methylthio)-;Sulfide, methyl phenyl;(Methylthio)benzene;Anisole, thio-;Methyl phenyl sulfide;Phenyl methyl sulfide;Thioanisole;1-Phenyl-1-thiaethane;Methylphenyl thioether;Thioanisol;Phenylthiomethane;NSC 57916;Phenyl methyl thioether;Methyl phenyl sulfane;(Methylsulfanyl)benzene",
    "duplicated_cas_no": "",
    "SMILES": "S(C)C1=CC=CC=C1",
    "meta_data": {
        "InChI": "InChI=1S/C7H8S/c1-8-7-5-3-2-4-6-7/h2-6H,1H3",
        "InChIKey": null,
        "Canonical SMILES": "S(C=1C=CC=CC1)C",
        "Molecular Formula": "C<sub>7</sub>H<sub>8</sub>S",
        "Molecular Mass": "124.20",
        "Boiling Point": "193 °C",
        "Melting Point": "127 °C",
        "Density": "1.0533 g/cm³ @ Temp: 25 °C"
    }
}