{
    "cas_no": "1464-33-1",
    "key_name": "4′-<em>O</em>-Methylpyridoxine",
    "cn_name": "3-羟基-5-羟甲基-4-甲氧甲基-2-甲基吡啶;5-羟基-4-甲氧甲基-6-甲基-3-吡啶甲醇;",
    "alternate_name": "3-Pyridinemethanol, 5-hydroxy-4-(methoxymethyl)-6-methyl-;5-Hydroxy-4-(methoxymethyl)-6-methyl-3-pyridinemethanol;4-Methoxypyridoxine;α<sup>4</sup>-<em>O</em>-Methylpyridoxol;5-Hydroxy-3-(hydroxymethyl)-4-(methoxymethyl)-6-methylpyridine;4′-Methoxypyridoxine;Ginkgotoxin;4′-<em>O</em>-Methylpyridoxine",
    "duplicated_cas_no": "",
    "SMILES": "C(OC)C=1C(CO)=CN=C(C)C1O",
    "meta_data": {
        "InChI": "InChI=1S/C9H13NO3/c1-6-9(12)8(5-13-2)7(4-11)3-10-6/h3,11-12H,4-5H2,1-2H3",
        "InChIKey": null,
        "Canonical SMILES": "OC=1C(=NC=C(C1COC)CO)C",
        "Molecular Formula": "C<sub>9</sub>H<sub>13</sub>NO<sub>3</sub>",
        "Molecular Mass": "183.20",
        "Melting Point": "205-207 °C"
    }
}