{
    "cas_no": "548-39-0",
    "key_name": "Phenalenone",
    "cn_name": null,
    "alternate_name": "1<em>H</em>-Phenalen-1-one;Phenalen-1-one;Perinaphthenone;Phenalenone;7-Perinaphthenone;Phenalone;1<em>H</em>-Benzonaphthen-1-one;NSC 150161",
    "duplicated_cas_no": "",
    "SMILES": "O=C1C2=C3C(C=C1)=CC=CC3=CC=C2",
    "meta_data": {
        "InChI": "InChI=1S/C13H8O/c14-12-8-7-10-4-1-3-9-5-2-6-11(12)13(9)10/h1-8H",
        "InChIKey": null,
        "Canonical SMILES": "O=C1C=CC=2C=CC=C3C=CC=C1C32",
        "Molecular Formula": "C<sub>13</sub>H<sub>8</sub>O",
        "Molecular Mass": "180.20",
        "Melting Point": "154 °C"
    }
}