{
    "cas_no": "1305-62-0",
    "key_name": "Calcium hydroxide",
    "cn_name": "氢氧化钙;",
    "alternate_name": "Calcium hydroxide (Ca(OH)<sub>2</sub>);Calcium hydroxide;Lime water;Hydrated lime;Milk of lime;Calcium dihydroxide;Carboxide;Kalkhydrate;Biocalc;Slaked lime;Limbux;Calvit;Lime milk;Hydralime;Caldic 1000;NICC 3000;Lime hydrate;Rhenofit CF;SA 074;Yukijirushisakanyo;Calbit;Kentoku K 100;Super Microstar;A-Rock;Calbreed;CH 2N;TP 2B;CLS-B;Karutekku LT;LoFloSorb;Cal-Z;Precal 54;Microstar T;TempCanal;Calcicure;Caldic 2000;Ecolomaster;Superia;Yukijirushi Shosekkai;Soprocal;Rhein CF 1;BTTE;Calen;Vitacal H;High Purity Calcium Hydroxide CH;Nekablanc 0;HA 20;HA 20 (hydroxide);Kalic;SA 149;Nekapur 2;Ultradent-UltraCal XS;JIS-R 9001;HP-XL;Omix C;Calcium Hydroxide Plus Points;Tamakalk-Spongiacal;NICC 5000;Lime Type S;Lime S;Sorbacal SP;Sorbacal SPS;CL 90S;Tama Ace S;CF 2000;Fluorox E;Okhotsk Calcium F 2000;Okhotsk Calcium F 015;Okhotsk Calcium OH-I;Okhotsk Calcium OH;Scallow S;Rutaro;Edelhydrate CL 90S;JYH-S 01;350M;SL 90T;Innovox OH;CA 100T;SuperCalco 97;MeSH ID: D002126;Magnesia 7245;CAH 05",
    "duplicated_cas_no": "1333-29-5;7719-01-9;1351974-67-8",
    "SMILES": "[Ca](O)O",
    "meta_data": {
        "InChI": "InChI=1S/Ca.2H2O/h;2*1H2/q+2;;/p-2",
        "InChIKey": null,
        "Canonical SMILES": "O[Ca]O",
        "Molecular Formula": "CaH<sub>2</sub>O<sub>2</sub>",
        "Molecular Mass": "",
        "Melting Point": "580 °C (decomp)",
        "Density": "2.24 g/cm³"
    }
}