{
    "cas_no": "2390-68-3",
    "key_name": "Didecyl dimethyl ammonium bromide",
    "cn_name": "双十烷基二甲基溴化铵;二癸基二甲基溴化铵;",
    "alternate_name": "1-Decanaminium, <em>N</em>-decyl-<em>N</em>,<em>N</em>-dimethyl-, bromide (1:1);Ammonium, didecyldimethyl-, bromide;Didecyl dimethyl ammonium bromide;1-Decanaminium, <em>N</em>-decyl-<em>N</em>,<em>N</em>-dimethyl-, bromide;Deciquam;DDAB;Deciquam 222;Bromosept;<em>N</em>-Decyl-<em>N</em>,<em>N</em>-dimethyldecan-1-aminium bromide;Bestaquam-S;Decamethylammonium bromide",
    "duplicated_cas_no": "",
    "SMILES": "C([N+](CCCCCCCCCC)(C)C)CCCCCCCCC.[Br-]",
    "meta_data": {
        "InChI": "InChI=1S/C22H48N.BrH/c1-5-7-9-11-13-15-17-19-21-23(3,4)22-20-18-16-14-12-10-8-6-2;/h5-22H2,1-4H3;1H/q+1;/p-1",
        "InChIKey": null,
        "Canonical SMILES": "[Br-].CCCCCCCCCC[N+](C)(C)CCCCCCCCCC",
        "Molecular Formula": "C<sub>22</sub>H<sub>48</sub>N.Br",
        "Molecular Mass": "",
        "Melting Point": "70-74 °C"
    }
}