{
    "cas_no": "25377-73-5",
    "key_name": "Dodecenylsuccinic anhydride",
    "cn_name": "十二烯基丁二酸酐;十二烯基琥珀酸酐;",
    "alternate_name": "2,5-Furandione, 3-(dodecen-1-yl)dihydro-;2,5-Furandione, 3-(dodecenyl)dihydro-;Succinic anhydride, dodecenyl-;3-(Dodecen-1-yl)dihydro-2,5-furandione;Dodecenylsuccinic anhydride;Dodecenylsuccinic acid anhydride;2-(Dodecenyl)succinic anhydride;DDSA;Rikacid DDSA;K 12;K 12 (anhydride);3-Dodecenyl succinic anhydride;DDSA-C",
    "duplicated_cas_no": "51371-91-6;173294-70-7",
    "SMILES": "",
    "meta_data": {
        "InChI": "",
        "InChIKey": null,
        "Canonical SMILES": "",
        "Molecular Formula": "C<sub>16</sub>H<sub>26</sub>O<sub>3</sub>",
        "Molecular Mass": "",
        "Boiling Point": "100-110 °C @ Press: 1 Torr",
        "Melting Point": "139-142 °C"
    }
}