{
    "cas_no": "928-40-5",
    "key_name": "1,5-Hexanediol",
    "cn_name": null,
    "alternate_name": "1,5-Hexanediol;Hexane-2,6-diol;1,5-Dihydroxyhexane;1-Methyl-1,5-pentanediol;Hexan-1,5-diol",
    "duplicated_cas_no": "",
    "SMILES": "C(CCCO)C(C)O",
    "meta_data": {
        "InChI": "InChI=1S/C6H14O2/c1-6(8)4-2-3-5-7/h6-8H,2-5H2,1H3",
        "InChIKey": null,
        "Canonical SMILES": "OCCCCC(O)C",
        "Molecular Formula": "C<sub>6</sub>H<sub>14</sub>O<sub>2</sub>",
        "Molecular Mass": "118.17",
        "Boiling Point": "237 °C",
        "Density": "0.971 g/cm³ @ Temp: 20 °C"
    }
}