{
    "cas_no": "5267-64-1",
    "key_name": "<span class=\"text-smallcaps\">D</span>-Phenylalaninol",
    "cn_name": "D-苯丙氨醇;D(+)-2-氨基-3-苯基-1-丙醇;",
    "alternate_name": "Benzenepropanol, β-amino-, (β<em>R</em>)-;1-Propanol, 2-amino-3-phenyl-, (<em>R</em>)-(+)-;Benzenepropanol, β-amino-, (<em>R</em>)-;(β<em>R</em>)-β-Aminobenzenepropanol;<span class=\"text-smallcaps\">D</span>-Phenylalaninol;(+)-2-Amino-3-phenylpropanol;(<em>R</em>)-Phenylalaninol;(<em>R</em>)-2-Amino-3-phenylpropanol;(<em>R</em>)-(+)-2-Amino-3-phenyl-1-propanol;(<em>R</em>)-(+)-Phenylalaninol;(<em>R</em>)-Benzylglycinol;(<em>R</em>)-(+)-2-Amino-3-phenyl-1-glycinol;(<em>R</em>)-2-Amino-3-phenyl-1-propanol;(<em>R</em>)-(+)-2-Amino-3-phenylpropanol;(<em>R</em>)-1-(Hydroxymethyl)-2-phenylethylamine;(2<em>R</em>)-3-Phenyl-2-amino-1-propanol;(<em>R</em>)-3-Phenyl-2-amino-1-propanol;((1<em>R</em>)-1-Hydroxymethyl-2-phenylethyl)amine;(2<em>R</em>)-2-Amino-3-phenylpropan-1-ol;(<em>R</em>)-2-Amino-3-phenylpropan-1-ol;(2<em>R</em>)-2-Amino-3-phenylpropanol;(2R)-2-Amino-3-phenylpropan-1-ol;(R)-Phenylalaninol",
    "duplicated_cas_no": "",
    "SMILES": "C([C@H](CO)N)C1=CC=CC=C1",
    "meta_data": {
        "InChI": "InChI=1S/C9H13NO/c10-9(7-11)6-8-4-2-1-3-5-8/h1-5,9,11H,6-7,10H2/t9-/m1/s1",
        "InChIKey": null,
        "Canonical SMILES": "OCC(N)CC=1C=CC=CC1",
        "Molecular Formula": "C<sub>9</sub>H<sub>13</sub>NO",
        "Molecular Mass": "151.21",
        "Melting Point": "91.5 °C"
    }
}