{
    "cas_no": "2987-53-3",
    "key_name": "2-(Methylthio)aniline",
    "cn_name": null,
    "alternate_name": "Benzenamine, 2-(methylthio)-;Aniline, <em>o</em>-(methylthio)-;2-(Methylthio)benzenamine;<em>o</em>-Aminophenyl methyl sulfide;<em>o</em>-(Methylthio)aniline;2-(Methylmercapto)aniline;2-(Methylthio)aniline;2-Aminothioanisole;2-Aminophenyl methyl sulfide;<em>o</em>-(Methylmercapto)aniline;<em>o</em>-Aminothioanisole;Methyl <em>o</em>-aminophenyl sulfide;(2-(Methylthio)phenyl)amine;NSC 41588;NSC 62853;NSC 9425;2-(Methylsulfanyl)aniline;2-Methylsulfanylphenylamine",
    "duplicated_cas_no": "",
    "SMILES": "S(C)C1=C(N)C=CC=C1",
    "meta_data": {
        "InChI": "InChI=1S/C7H9NS/c1-9-7-5-3-2-4-6(7)8/h2-5H,8H2,1H3",
        "InChIKey": null,
        "Canonical SMILES": "S(C=1C=CC=CC1N)C",
        "Molecular Formula": "C<sub>7</sub>H<sub>9</sub>NS",
        "Molecular Mass": "139.22",
        "Boiling Point": "234 °C",
        "Melting Point": "215 °C",
        "Density": "1.115 g/cm³ @ Temp: 25 °C"
    }
}