{
    "cas_no": "356783-29-4",
    "key_name": "3,6-Difluoro-2-pyrazinecarboxamide",
    "cn_name": null,
    "alternate_name": "2-Pyrazinecarboxamide, 3,6-difluoro-;Pyrazinecarboxamide, 3,6-difluoro-;3,6-Difluoro-2-pyrazinecarboxamide",
    "duplicated_cas_no": "",
    "SMILES": "C(N)(=O)C=1C(F)=NC=C(F)N1",
    "meta_data": {
        "InChI": "InChI=1S/C5H3F2N3O/c6-2-1-9-4(7)3(10-2)5(8)11/h1H,(H2,8,11)",
        "InChIKey": null,
        "Canonical SMILES": "O=C(N)C1=NC(F)=CN=C1F",
        "Molecular Formula": "C<sub>5</sub>H<sub>3</sub>F<sub>2</sub>N<sub>3</sub>O",
        "Molecular Mass": "159.09",
        "Melting Point": "122-124 °C"
    }
}