{
    "cas_no": "1071-37-0",
    "key_name": "Carbamimidothioic acid, ethyl ester, hydrobromide (1:1)",
    "cn_name": "2-乙基异硫脲氢溴酸盐;",
    "alternate_name": "Carbamimidothioic acid, ethyl ester, hydrobromide (1:1);Pseudourea, 2-ethyl-2-thio-, monohydrobromide;Carbamimidothioic acid, ethyl ester, monohydrobromide;Pseudourea, 2-ethyl-2-thio-, hydrobromide;Ethiron;<em>S</em>-Ethylthiuronium bromide;WR 539;<em>S</em>-Ethylisothiouronium hydrobromide;2-Ethyl-2-thiopseudourea hydrobromide;Ethiron bromide;<em>S</em>-Ethylisothiuronium bromide;2-Ethylisothiourea hydrobromide;Etiron;<em>S</em>-Ethylisothiourea hydrobromide;Isothuron hydrobromide;Isothurone hydrobromide;Ethyl imidothiocarbamate hydrobromide;Ethylisothiourea hydrobromide;(Ethylsulfanyl)(imino)methanaminium bromide;(Ethylsulfanyl)methanimidamide hydrobromide",
    "duplicated_cas_no": "133514-72-4",
    "SMILES": "S(C(=N)N)CC.Br",
    "meta_data": {
        "InChI": "InChI=1S/C3H8N2S.BrH/c1-2-6-3(4)5;/h2H2,1H3,(H3,4,5);1H",
        "InChIKey": null,
        "Canonical SMILES": "Br.N=C(SCC)N",
        "Molecular Formula": "C<sub>3</sub>H<sub>8</sub>N<sub>2</sub>S.BrH",
        "Molecular Mass": "",
        "Melting Point": "85-87 °C"
    }
}