{
    "cas_no": "122672-46-2",
    "key_name": "Cispentacin",
    "cn_name": null,
    "alternate_name": "Cyclopentanecarboxylic acid, 2-amino-, (1<em>R</em>,2<em>S</em>)-;Cyclopentanecarboxylic acid, 2-amino-, (1<em>R</em>-<em>cis</em>)-;(1<em>R</em>,2<em>S</em>)-2-Aminocyclopentanecarboxylic acid;FR 109615;Antibiotic FR 109615;Cispentacin;(-)-(1<em>R</em>,2<em>S</em>)-Cispentacin;(-)-Cispentacin;<em>cis</em>-(1<em>R</em>,2<em>S</em>)-2-Aminocyclopentane-1-carboxylic acid;(1R,2S)-2-Aminocyclopentanecarboxylic acid",
    "duplicated_cas_no": "",
    "SMILES": "C(O)(=O)[C@H]1[C@@H](N)CCC1",
    "meta_data": {
        "InChI": "InChI=1S/C6H11NO2/c7-5-3-1-2-4(5)6(8)9/h4-5H,1-3,7H2,(H,8,9)/t4-,5+/m1/s1",
        "InChIKey": null,
        "Canonical SMILES": "O=C(O)C1CCCC1N",
        "Molecular Formula": "C<sub>6</sub>H<sub>11</sub>NO<sub>2</sub>",
        "Molecular Mass": "129.16",
        "Melting Point": "194-197 °C (decomp)"
    }
}