{
    "cas_no": "1122-82-3",
    "key_name": "Cyclohexyl isothiocyanate",
    "cn_name": null,
    "alternate_name": "Cyclohexane, isothiocyanato-;Isothiocyanic acid, cyclohexyl ester;Isothiocyanatocyclohexane;Cyclohexyl isothiocyanate;NSC 60129",
    "duplicated_cas_no": "",
    "SMILES": "N(=C=S)C1CCCCC1",
    "meta_data": {
        "InChI": "InChI=1S/C7H11NS/c9-6-8-7-4-2-1-3-5-7/h7H,1-5H2",
        "InChIKey": null,
        "Canonical SMILES": "S=C=NC1CCCCC1",
        "Molecular Formula": "C<sub>7</sub>H<sub>11</sub>NS",
        "Molecular Mass": "141.23",
        "Boiling Point": "220 °C",
        "Melting Point": "85 °C",
        "Density": "1.0339 g/cm³ @ Temp: 20 °C"
    }
}