{
    "cas_no": "10476-86-5",
    "key_name": "Strontium iodide",
    "cn_name": "碘化锶;无水碘化锶;碘化锶六水;二碘化锶六水;六水喝碘化锶;",
    "alternate_name": "Strontium iodide (SrI<sub>2</sub>);Strontium iodide;Strontium diiodide",
    "duplicated_cas_no": "",
    "SMILES": "[Sr](I)I",
    "meta_data": {
        "InChI": "InChI=1S/2HI.Sr/h2*1H;/q;;+2/p-2",
        "InChIKey": null,
        "Canonical SMILES": "I[Sr]I",
        "Molecular Formula": "I<sub>2</sub>Sr",
        "Molecular Mass": "",
        "Melting Point": "402 °C",
        "Density": "4.42 g/cm³"
    }
}