{
    "cas_no": "637-54-7",
    "key_name": "<em>N</em>-Phenyloctadecanamide",
    "cn_name": "硬脂酰苯胺;十八酰苯胺;N-苯基十八酰胺;",
    "alternate_name": "Octadecanamide, <em>N</em>-phenyl-;Stearanilide;<em>N</em>-Phenyloctadecanamide;Octadecananilide;Stearic anilide;Stearic acid anilide;<em>N</em>-Phenylstearamide;<em>N</em>-Phenylstearylamide;Stearoyl anilide",
    "duplicated_cas_no": "",
    "SMILES": "N(C(CCCCCCCCCCCCCCCCC)=O)C1=CC=CC=C1",
    "meta_data": {
        "InChI": "InChI=1S/C24H41NO/c1-2-3-4-5-6-7-8-9-10-11-12-13-14-15-19-22-24(26)25-23-20-17-16-18-21-23/h16-18,20-21H,2-15,19,22H2,1H3,(H,25,26)",
        "InChIKey": null,
        "Canonical SMILES": "O=C(NC=1C=CC=CC1)CCCCCCCCCCCCCCCCC",
        "Molecular Formula": "C<sub>24</sub>H<sub>41</sub>NO",
        "Molecular Mass": "359.59",
        "Melting Point": "95.05 °C"
    }
}