{
    "cas_no": "1795-31-9",
    "key_name": "Silanol, 1,1,1-trimethyl-, 1,1′,1′′-phosphite",
    "cn_name": "(三甲基硅基)亚磷酸盐;亚磷酸三(三甲硅烷基);",
    "alternate_name": "Silanol, 1,1,1-trimethyl-, 1,1′,1′′-phosphite;Silanol, trimethyl-, phosphite (3:1);Silanol, trimethyl-, phosphite;Trimethylsilanol phosphite;Tris(trimethylsilyl) phosphite;Tris(trimethylsilyloxy)phosphine;TTMSPi",
    "duplicated_cas_no": "",
    "SMILES": "O(P(O[Si](C)(C)C)O[Si](C)(C)C)[Si](C)(C)C",
    "meta_data": {
        "InChI": "InChI=1S/C9H27O3PSi3/c1-14(2,3)10-13(11-15(4,5)6)12-16(7,8)9/h1-9H3",
        "InChIKey": null,
        "Canonical SMILES": "O(P(O[Si](C)(C)C)O[Si](C)(C)C)[Si](C)(C)C",
        "Molecular Formula": "C<sub>9</sub>H<sub>27</sub>O<sub>3</sub>PSi<sub>3</sub>",
        "Molecular Mass": "298.54",
        "Boiling Point": "90-92 °C @ Press: 20 Torr",
        "Density": "0.893 g/cm³"
    }
}