{
    "cas_no": "1811-31-0",
    "key_name": "GalNAc",
    "cn_name": "N-乙酰-D-半乳糖胺;N-乙酰基-D-氨基半乳糖;2-乙酰氨基-D-半乳糖;2-乙酰胺基-2-脱氧-D-半乳糖;",
    "alternate_name": "<span class=\"text-smallcaps\">D</span>-Galactose, 2-(acetylamino)-2-deoxy-;Galactose, 2-acetamido-2-deoxy-, <span class=\"text-smallcaps\">D</span>-;Galactosamine, <em>N</em>-acetyl-, <span class=\"text-smallcaps\">D</span>-;2-(Acetylamino)-2-deoxy-<span class=\"text-smallcaps\">D</span>-galactose;2-Acetamido-2-deoxy-<span class=\"text-smallcaps\">D</span>-galactose;<em>N</em>-Acetyl-<span class=\"text-smallcaps\">D</span>-galactosamine;<em>N</em>-Acetyl-2-amino-2-deoxy-<span class=\"text-smallcaps\">D</span>-galactose;<em>N</em>-Acetyl-2-amino-2-deoxygalactose;<em>N</em>-Acetylgalactosamine;2-Deoxy-2-acetamido-<span class=\"text-smallcaps\">D</span>-galactose;2-<em>N</em>-Acetyl-<span class=\"text-smallcaps\">D</span>-galactosamine;<span class=\"text-smallcaps\">D</span>-<em>N</em>-Acetylgalactosamine;<em>N</em>-Acetylchondrosamine;GalNAc;<em>N</em>-Acetyl D-galactosamine;1: PN: WO2021037972 SEQID: 578 claimed sequence;10: PN: WO2022006134 SEQID: 2166 claimed sequence",
    "duplicated_cas_no": "3398-89-8",
    "SMILES": "[C@H]([C@H]([C@H]([C@@H](CO)O)O)O)(NC(C)=O)C=O",
    "meta_data": {
        "InChI": "InChI=1S/C8H15NO6/c1-4(12)9-5(2-10)7(14)8(15)6(13)3-11/h2,5-8,11,13-15H,3H2,1H3,(H,9,12)/t5-,6+,7+,8-/m0/s1",
        "InChIKey": null,
        "Canonical SMILES": "O=CC(NC(=O)C)C(O)C(O)C(O)CO",
        "Molecular Formula": "C<sub>8</sub>H<sub>15</sub>NO<sub>6</sub>",
        "Molecular Mass": "221.21",
        "Melting Point": "159-160 °C"
    }
}