{
    "cas_no": "3425-89-6",
    "key_name": "Isomethyltetrahydrophthalic anhydride",
    "cn_name": "4-甲基四氢苯酐;4-甲基-1,2,3,6-四氢苯酐;",
    "alternate_name": "1,3-Isobenzofurandione, 3a,4,7,7a-tetrahydro-5-methyl-;4-Cyclohexene-1,2-dicarboxylic anhydride, 4-methyl-;3a,4,7,7a-Tetrahydro-5-methyl-1,3-isobenzofurandione;4-Methyl-Δ<sup>4</sup>-tetrahydrophthalic anhydride;4-Methyl-1,2,3,6-tetrahydrophthalic anhydride;4-Methyltetrahydrophthalic anhydride;4-Methyl-4-cyclohexene-1,2-dicarboxylic acid anhydride;4-Methyl-4-cyclohexene-1,2-dicarboxylic anhydride;Isomethyltetrahydrophthalic anhydride;5-Methyltetrahydrophthalic anhydride;1,2,3,6-Tetrahydro-4-methylphthalic anhydride;Lindride 2;NSC 52669;5-Methyl-3a,4,7,7a-tetrahydro-2-benzofuran-1,3-dione;4-Methyl-1,2,3,6-tetrahydrophthalic acid anhydride;Aradur HY 2123",
    "duplicated_cas_no": "101466-43-7;110617-56-6",
    "SMILES": "O=C1C2C(C(=O)O1)CC=C(C)C2",
    "meta_data": {
        "InChI": "InChI=1S/C9H10O3/c1-5-2-3-6-7(4-5)9(11)12-8(6)10/h2,6-7H,3-4H2,1H3",
        "InChIKey": null,
        "Canonical SMILES": "O=C1OC(=O)C2CC(=CCC12)C",
        "Molecular Formula": "C<sub>9</sub>H<sub>10</sub>O<sub>3</sub>",
        "Molecular Mass": "166.17",
        "Melting Point": "63-64 °C"
    }
}