{
    "cas_no": "7787-58-8",
    "key_name": "Bismuth bromide",
    "cn_name": "溴化铋;",
    "alternate_name": "Bismuthine, tribromo-;Bismuth bromide (BiBr<sub>3</sub>);Tribromobismuthine;Bismuth tribromide;Bismuth bromide;Bismuth(III) bromide",
    "duplicated_cas_no": "",
    "SMILES": "[Bi](Br)(Br)Br",
    "meta_data": {
        "InChI": "InChI=1S/Bi.3BrH/h;3*1H/q+3;;;/p-3",
        "InChIKey": null,
        "Canonical SMILES": "Br[Bi](Br)Br",
        "Molecular Formula": "BiBr<sub>3</sub>",
        "Molecular Mass": "",
        "Melting Point": "219 °C"
    }
}