{
    "cas_no": "439948-91-1",
    "key_name": "1,2,3-Oxathiazolidine-3-carboxylic acid, 4-methyl-, 1,1-dimethylethyl ester, 2,2-dioxide, (4<em>S</em>)-",
    "cn_name": null,
    "alternate_name": "1,2,3-Oxathiazolidine-3-carboxylic acid, 4-methyl-, 1,1-dimethylethyl ester, 2,2-dioxide, (4<em>S</em>)-;(<em>S</em>)-4-Methyl-2,2-dioxo-[1,2,3]oxathiazolidine-3-carboxylic acid tert-butyl ester;(<em>S</em>)-<em>tert</em>-Butyl 4-methyl-1,2,3-oxathiazolidine-3-carboxylate 2,2-dioxide;<em>tert</em>-Butyl (<em>S</em>)-4-methyl-1,2,3-oxathiazolidine-3-carboxylate 2,2-dioxide",
    "duplicated_cas_no": "",
    "SMILES": "C(OC(C)(C)C)(=O)N1S(=O)(=O)OC[C@@H]1C",
    "meta_data": {
        "InChI": "InChI=1S/C8H15NO5S/c1-6-5-13-15(11,12)9(6)7(10)14-8(2,3)4/h6H,5H2,1-4H3/t6-/m0/s1",
        "InChIKey": null,
        "Canonical SMILES": "O=C(OC(C)(C)C)N1C(C)COS1(=O)=O",
        "Molecular Formula": "C<sub>8</sub>H<sub>15</sub>NO<sub>5</sub>S",
        "Molecular Mass": "237.27",
        "Melting Point": "118-120 °C"
    }
}