{
    "cas_no": "13463-40-6",
    "key_name": "Iron pentacarbonyl",
    "cn_name": "五羰基铁;五羰基铁;",
    "alternate_name": "Iron carbonyl (Fe(CO)<sub>5</sub>), (<em>TB</em>-5-11)-;Iron carbonyl (Fe(CO)<sub>5</sub>);Iron pentacarbonyl;Pentacarbonyl iron;Iron pentacarbonyl (Fe(CO)<sub>5</sub>)",
    "duplicated_cas_no": "36823-35-5;37220-42-1;540770-45-4;848779-17-9",
    "SMILES": "[Fe](C#O)(C#O)(C#O)(C#O)C#O",
    "meta_data": {
        "InChI": "InChI=1S/5CO.Fe/c5*1-2;",
        "InChIKey": null,
        "Canonical SMILES": "O#C[Fe](C#O)(C#O)(C#O)C#O",
        "Molecular Formula": "C<sub>5</sub>FeO<sub>5</sub>",
        "Molecular Mass": "",
        "Boiling Point": "102.8 °C @ Press: 749 Torr",
        "Melting Point": "-21 °C",
        "Density": "1.457 g/cm³ @ Temp: 21 °C"
    }
}