{
    "cas_no": "63-84-3",
    "key_name": "DL-DOPA",
    "cn_name": "DL-3-(3,4-二羟苯基)丙氨酸;二棕榈酸磷脂酰胆碱;",
    "alternate_name": "Tyrosine, 3-hydroxy-;Alanine, 3-(3,4-dihydroxyphenyl)-, <span class=\"text-smallcaps\">DL</span>-;<span class=\"text-smallcaps\">DL</span>-Tyrosine, 3-hydroxy-;3-Hydroxytyrosine;(±)-3,4-Dihydroxyphenylalanine;<span class=\"text-smallcaps\">DL</span>-Dioxyphenylalanine;<span class=\"text-smallcaps\">DL</span>-3,4-Dihydroxyphenylalanine;DL-3,4-DOPA;DL-DOPA;(±)-DOPA;<span class=\"text-smallcaps\">DL</span>-Dihydroxyphenylalanine;3-(3,4-Dihydroxyphenyl)-<span class=\"text-smallcaps\">DL</span>-alanine;3,4-Dihydroxy-<span class=\"text-smallcaps\">DL</span>-phenylalanine;(±)-3-(3,4-Dihydroxyphenyl)alanine;3′,4′-Dihydroxyphenylalanine;(<em>R</em>,<em>S</em>)-DOPA;<span class=\"text-smallcaps\">DL</span>-β-(3,4-Dihydroxyphenyl)alanine;<span class=\"text-smallcaps\">DL</span>-3-Hydroxytyrosine;3,4-Dihydroxyphenylalanine;Hydrocaffeic acid, α-amino-;3-(3,4-Dihydroxyphenyl)alanine;Phenylalanine, 3,4-dihydroxy-;Benzenepropanoic acid, α-amino-3,4-dihydroxy-;β-(3,4-Dihydroxyphenyl)-α-alanine;2-Amino-3-(3,4-dihydroxyphenyl)propanoic acid;<span class=\"text-smallcaps\">DL</span>-4,5-Dihydroxyphenylalanine;NSC 16940;<span class=\"text-smallcaps\">DL</span>-DOPA",
    "duplicated_cas_no": "587-45-1;33377-81-0",
    "SMILES": "C(C(C(O)=O)N)C1=CC(O)=C(O)C=C1",
    "meta_data": {
        "InChI": "InChI=1S/C9H11NO4/c10-6(9(13)14)3-5-1-2-7(11)8(12)4-5/h1-2,4,6,11-12H,3,10H2,(H,13,14)",
        "InChIKey": null,
        "Canonical SMILES": "O=C(O)C(N)CC1=CC=C(O)C(O)=C1",
        "Molecular Formula": "C<sub>9</sub>H<sub>11</sub>NO<sub>4</sub>",
        "Molecular Mass": "197.19",
        "Melting Point": "270 °C (decomp)"
    }
}