{
    "cas_no": "873-49-4",
    "key_name": "Phenylcyclopropane",
    "cn_name": "环丙基苯;",
    "alternate_name": "Benzene, cyclopropyl-;Cyclopropylbenzene;Cyclopropane, phenyl-;Phenylcyclopropane;1-Phenylcyclopropane;NSC 3018",
    "duplicated_cas_no": "",
    "SMILES": "C1(CC1)C2=CC=CC=C2",
    "meta_data": {
        "InChI": "InChI=1S/C9H10/c1-2-4-8(5-3-1)9-6-7-9/h1-5,9H,6-7H2",
        "InChIKey": null,
        "Canonical SMILES": "C=1C=CC(=CC1)C2CC2",
        "Molecular Formula": "C<sub>9</sub>H<sub>10</sub>",
        "Molecular Mass": "118.18",
        "Boiling Point": "173.6 °C",
        "Melting Point": "-31 °C",
        "Density": "0.9449 g/cm³ @ Temp: 15 °C"
    }
}