{
    "cas_no": "20882-75-1",
    "key_name": "Swertianin",
    "cn_name": null,
    "alternate_name": "9<em>H</em>-Xanthen-9-one, 1,2,8-trihydroxy-6-methoxy-;Xanthen-9-one, 1,2,8-trihydroxy-6-methoxy-;1,2,8-Trihydroxy-6-methoxy-9<em>H</em>-xanthen-9-one;Gentiakochianin;Swertianin;1,3,7,8-Tetrahydroxyxanthone 3-methyl ether;1,7,8-Trihydroxy-3-methoxyxanthone;3-Methoxy-1,7,8-trihydroxyxanthone;Gentiakoxianin;NSC 289490;Swertianine;1,2,8-Trihydroxy-6-methoxyxanthen-9-one",
    "duplicated_cas_no": "",
    "SMILES": "O=C1C=2C(OC=3C1=C(O)C(O)=CC3)=CC(OC)=CC2O",
    "meta_data": {
        "InChI": "InChI=1S/C14H10O6/c1-19-6-4-8(16)11-10(5-6)20-9-3-2-7(15)13(17)12(9)14(11)18/h2-5,15-17H,1H3",
        "InChIKey": null,
        "Canonical SMILES": "O=C1C2=C(O)C=C(OC)C=C2OC3=CC=C(O)C(O)=C13",
        "Molecular Formula": "C<sub>14</sub>H<sub>10</sub>O<sub>6</sub>",
        "Molecular Mass": "274.23",
        "Melting Point": "243 °C"
    }
}