{
    "cas_no": "1809249-37-3",
    "key_name": "<span class=\"text-smallcaps\">L</smallcap>-Alanine, <em>N</em>-[(<em>S</em>)-hydroxyphenoxyphosphinyl]-, 2-ethylbutyl ester, 6-ester with 2-<em>C</em>-(4-aminopyrrolo[2,1-<em>f</em>][1,2,4]triazin-7-yl)-2,5-anhydro-<smallcap>D</span>-altrononitrile",
    "cn_name": null,
    "alternate_name": "<span class=\"text-smallcaps\">L</smallcap>-Alanine, <em>N</em>-[(<em>S</em>)-hydroxyphenoxyphosphinyl]-, 2-ethylbutyl ester, 6-ester with 2-<em>C</em>-(4-aminopyrrolo[2,1-<em>f</em>][1,2,4]triazin-7-yl)-2,5-anhydro-<smallcap>D</span>-altrononitrile;GS 5734;Remdesivir;2-Ethylbutyl <em>N</em>-[(<em>S</em>)-[2-<em>C</em>-(4-aminopyrrolo(2,1-<em>f</em>)(1,2,4)triazin-7-yl)-2,5-anhydro-<span class=\"text-smallcaps\">D</smallcap>-altrononitril-6-<em>O</em>-yl]phenoxyphosphoryl]-<smallcap>L</span>-alaninate;2-Ethylbutyl (2<em>S</em>)-2-[[[[(2<em>R</em>,3<em>S</em>,4<em>R</em>,5<em>R</em>)-5-(4-aminopyrrolo(2,1-<em>f</em>)(1,2,4)triazin-7-yl)-5-cyano-3,4-dihydroxytetrahydrofuran-2-yl]methoxy]phenoxyphosphoryl]amino]propanoate;<span class=\"text-smallcaps\">L</smallcap>-Alanine, <em>N</em>-[(<em>S</em>)-hydroxyphenoxyphosphinyl)-, 2-ethylbutyl ester,6-ester with 2-<em>C</em>-(4-aminopyrrolo[2,1-<em>f</em>][1,2,4]triazin-7-yl)-2,5-anhydro-<smallcap>D</span>-altrononitrile;2-Ethylbutyl (2<em>S</em>)-2-[[(<em>S</em>)-[[(2<em>R</em>,3<em>S</em>,4<em>R</em>,5<em>R</em>)-5-(4-aminopyrrolo(2,1-<em>f</em>)(1,2,4)triazin-7-yl)-5-cyano-3,4-dihydroxytetrahydrofuran-2-yl]methoxy]phenoxyphosphoryl]amino]propanoate;GS-5734;Veklury;(<em>S</em>)-2-Ethylbutyl 2-(((<em>S</em>)-(((2R,3S,4R,5R)-5-(4-aminopyrrolo[2,1-<em>f</em>][1,2,4]triazin-7-yl)-5-cyano-3,4-dihydroxytetrahydrofuran-2-yl)methoxy)(phenoxy) phosphoryl)amino)propanoate;Covifor",
    "duplicated_cas_no": "2266584-38-5",
    "SMILES": "C(#N)[C@]1(O[C@H](COP(OC2=CC=CC=C2)(N[C@H](C(OCC(CC)CC)=O)C)=O)[C@@H](O)[C@H]1O)C=3N4C(=CC3)C(N)=NC=N4",
    "meta_data": {
        "InChI": "InChI=1S/C27H35N6O8P/c1-4-18(5-2)13-38-26(36)17(3)32-42(37,41-19-9-7-6-8-10-19)39-14-21-23(34)24(35)27(15-28,40-21)22-12-11-20-25(29)30-16-31-33(20)22/h6-12,16-18,21,23-24,34-35H,4-5,13-14H2,1-3H3,(H,32,37)(H2,29,30,31)/t17-,21+,23+,24+,27-,42-/m0/s1",
        "InChIKey": null,
        "Canonical SMILES": "N#CC1(OC(COP(=O)(OC=2C=CC=CC2)NC(C(=O)OCC(CC)CC)C)C(O)C1O)C3=CC=C4C(=NC=NN43)N",
        "Molecular Formula": "C<sub>27</sub>H<sub>35</sub>N<sub>6</sub>O<sub>8</sub>P",
        "Molecular Mass": "602.58",
        "Melting Point": "89.4-90.4 °C"
    }
}