{
    "cas_no": "699-98-9",
    "key_name": "Furo[3,4-<em>b</em>]pyridine-5,7-dione",
    "cn_name": "2,3-吡啶二羧酸酐;2,3-吡啶二酸酐;喹啉酸酐;",
    "alternate_name": "Furo[3,4-<em>b</em>]pyridine-5,7-dione;2,3-Pyridinedicarboxylic anhydride;Quinolinic anhydride;2,3-Pyridinedicarboxylic acid anhydride;Quinolinic acid anhydride;Pyridinic anhydride;NSC 44309;1,3-Dioxolo[4,5-<em>b</em>]pyridin-2-one",
    "duplicated_cas_no": "1354656-23-7",
    "SMILES": "O=C1C=2C(C(=O)O1)=NC=CC2",
    "meta_data": {
        "InChI": "InChI=1S/C7H3NO3/c9-6-4-2-1-3-8-5(4)7(10)11-6/h1-3H",
        "InChIKey": null,
        "Canonical SMILES": "O=C1OC(=O)C2=CC=CN=C12",
        "Molecular Formula": "C<sub>7</sub>H<sub>3</sub>NO<sub>3</sub>",
        "Molecular Mass": "149.10",
        "Melting Point": "133-134 °C"
    }
}