{
    "cas_no": "37688-96-3",
    "key_name": "1,14-Dibromotetradecane",
    "cn_name": "1,14-二溴十四烷;",
    "alternate_name": "Tetradecane, 1,14-dibromo-;1,14-Dibromotetradecane;Tetradecamethylene dibromide",
    "duplicated_cas_no": "",
    "SMILES": "C(CCCCCCCBr)CCCCCCBr",
    "meta_data": {
        "InChI": "InChI=1S/C14H28Br2/c15-13-11-9-7-5-3-1-2-4-6-8-10-12-14-16/h1-14H2",
        "InChIKey": null,
        "Canonical SMILES": "BrCCCCCCCCCCCCCCBr",
        "Molecular Formula": "C<sub>14</sub>H<sub>28</sub>Br<sub>2</sub>",
        "Molecular Mass": "356.18",
        "Boiling Point": "172-175 °C",
        "Melting Point": "50.4 °C"
    }
}