{
    "cas_no": "21331-80-6",
    "key_name": "Phosphonium, [2-(dimethylamino)ethyl]triphenyl-, bromide (1:1)",
    "cn_name": "(2-二甲基氨基乙基)三苯基溴化膦;",
    "alternate_name": "Phosphonium, [2-(dimethylamino)ethyl]triphenyl-, bromide (1:1);Phosphonium, [2-(dimethylamino)ethyl]triphenyl-, bromide;[2-(Dimethylamino)ethyl]triphenylphosphonium bromide",
    "duplicated_cas_no": "",
    "SMILES": "[P+](CCN(C)C)(C1=CC=CC=C1)(C2=CC=CC=C2)C3=CC=CC=C3.[Br-]",
    "meta_data": {
        "InChI": "InChI=1S/C22H25NP.BrH/c1-23(2)18-19-24(20-12-6-3-7-13-20,21-14-8-4-9-15-21)22-16-10-5-11-17-22;/h3-17H,18-19H2,1-2H3;1H/q+1;/p-1",
        "InChIKey": null,
        "Canonical SMILES": "[Br-].C=1C=CC(=CC1)[P+](C=2C=CC=CC2)(C=3C=CC=CC3)CCN(C)C",
        "Molecular Formula": "C<sub>22</sub>H<sub>25</sub>NP.Br",
        "Molecular Mass": "",
        "Melting Point": "204-205 °C"
    }
}