{
    "cas_no": "6948-34-1",
    "key_name": "2,3-Dihydro-6-methyl-4<em>H</em>-1-benzothiopyran-4-one",
    "cn_name": "6-甲基硫代苯并二氢吡喃-4-酮;",
    "alternate_name": "4<em>H</em>-1-Benzothiopyran-4-one, 2,3-dihydro-6-methyl-;Thiochroman-4-one, 6-methyl-;2,3-Dihydro-6-methyl-4<em>H</em>-1-benzothiopyran-4-one;6-Methylthiochroman-4-one;NSC 55761;6-Methyl-2,3-dihydro-4<em>H</em>-[1]benzothiopyran-4-one",
    "duplicated_cas_no": "",
    "SMILES": "O=C1C=2C(=CC=C(C)C2)SCC1",
    "meta_data": {
        "InChI": "InChI=1S/C10H10OS/c1-7-2-3-10-8(6-7)9(11)4-5-12-10/h2-3,6H,4-5H2,1H3",
        "InChIKey": null,
        "Canonical SMILES": "O=C1C2=CC(=CC=C2SCC1)C",
        "Molecular Formula": "C<sub>10</sub>H<sub>10</sub>OS",
        "Molecular Mass": "178.25",
        "Boiling Point": "174 °C @ Press: 10 Torr",
        "Melting Point": "41 °C"
    }
}