{
    "cas_no": "307-34-6",
    "key_name": "Perfluorooctane",
    "cn_name": "全氟辛烷;十八氟辛烷;",
    "alternate_name": "Octane, 1,1,1,2,2,3,3,4,4,5,5,6,6,7,7,8,8,8-octadecafluoro-;Octane, octadecafluoro-;1,1,1,2,2,3,3,4,4,5,5,6,6,7,7,8,8,8-Octadecafluorooctane;Octadecafluorooctane;Perfluorooctane;Perfluoro-<em>n</em>-octane;Eftop EF-L 100;Fluorinert PF 5080;FC 3280;PF 5080;Perfluoron;PFC 71-18",
    "duplicated_cas_no": "156930-33-5;1201928-71-3",
    "SMILES": "C(C(C(C(C(F)(F)F)(F)F)(F)F)(F)F)(C(C(C(F)(F)F)(F)F)(F)F)(F)F",
    "meta_data": {
        "InChI": "InChI=1S/C8F18/c9-1(10,3(13,14)5(17,18)7(21,22)23)2(11,12)4(15,16)6(19,20)8(24,25)26",
        "InChIKey": null,
        "Canonical SMILES": "FC(F)(F)C(F)(F)C(F)(F)C(F)(F)C(F)(F)C(F)(F)C(F)(F)C(F)(F)F",
        "Molecular Formula": "C<sub>8</sub>F<sub>18</sub>",
        "Molecular Mass": "438.06",
        "Boiling Point": "105.9 °C",
        "Melting Point": "-42 °C",
        "Density": "1.73 g/cm³ @ Temp: 20 °C"
    }
}