{
    "cas_no": "456-27-9",
    "key_name": "4-Nitrobenzenediazonium tetrafluoroborate",
    "cn_name": "4-硝基四氟硼酸苯翁;",
    "alternate_name": "Benzenediazonium, 4-nitro-, tetrafluoroborate(1-) (1:1);Benzenediazonium, <em>p</em>-nitro-, tetrafluoroborate(1-);<em>p</em>-Nitrobenzenediazonium fluoborate;Benzenediazonium, 4-nitro-, tetrafluoroborate(1-);Benzenediazonium, <em>p</em>-nitro, tetrafluoroborate;Borate(1-), tetrafluoro-, <em>p</em>-nitrobenzenediazonium;Borate(1-), tetrafluoro-, 4-nitrobenzenediazonium;<em>p</em>-Nitrobenzenediazonium fluoroborate;<em>p</em>-Nitrobenzenediazonium tetrafluoroborate(1-);<em>p</em>-Nitrophenyldiazonium tetrafluoroborate;4-Nitrobenzenediazonium fluoborate;4-Nitrobenzenediazonium tetrafluoroborate;<em>p</em>-Nitrophenyl diazonium fluoroborate;4-Nitrobenzenediazonium fluoroborate;4-Nitrophenyldiazonium tetrafluoroborate;<em>p</em>-Nitrobenzenediazonium tetrafluoroborate;4-Nitrobenzenediazonium tetrafluoroborate(1-);NSC 63909;4-Nitrophenyldiazonium tetrafluoroborate(1-);<em>p</em>-Nitroaphenyldiazodium tetrafluoroborate;4-Nitrobenzenediazonium tetrafluoroboride",
    "duplicated_cas_no": "15003-70-0;154960-10-8;2101457-56-9;2190529-07-6",
    "SMILES": "[B+3]([F-])([F-])([F-])[F-].N(=O)(=O)C1=CC=C([N+]#N)C=C1",
    "meta_data": {
        "InChI": "InChI=1S/C6H4N3O2.BF4/c7-8-5-1-3-6(4-2-5)9(10)11;2-1(3,4)5/h1-4H;/q+1;-1",
        "InChIKey": null,
        "Canonical SMILES": "N#[N+]C1=CC=C(C=C1)N(=O)=O.[F-][B+3]([F-])([F-])[F-]",
        "Molecular Formula": "C<sub>6</sub>H<sub>4</sub>N<sub>3</sub>O<sub>2</sub>.BF<sub>4</sub>",
        "Molecular Mass": "",
        "Melting Point": "156 °C (decomp)",
        "Density": "1.66 g/cm³ @ Temp: 25 °C"
    }
}