{
    "cas_no": "1204-78-0",
    "key_name": "4′-Methyl[1,1′-biphenyl]-4-amine",
    "cn_name": null,
    "alternate_name": "[1,1′-Biphenyl]-4-amine, 4′-methyl-;4-Biphenylamine, 4′-methyl-;4′-Methyl[1,1′-biphenyl]-4-amine;4-Amino-4′-methylbiphenyl;4′-Methylbiphenyl-4-ylamine;4-(4-Tolyl)benzenamine;4′-Methyl-1,1′-biphenyl-4-amine;4-Amino-4′-methyl-1,1′-biphenyl;4′-Methylbiphenyl-4-amine;4-(4-Methylphenyl)aniline;4-(<em>p</em>-Methylphenyl)aniline",
    "duplicated_cas_no": "",
    "SMILES": "CC1=CC=C(C=C1)C2=CC=C(N)C=C2",
    "meta_data": {
        "InChI": "InChI=1S/C13H13N/c1-10-2-4-11(5-3-10)12-6-8-13(14)9-7-12/h2-9H,14H2,1H3",
        "InChIKey": null,
        "Canonical SMILES": "NC=1C=CC(=CC1)C2=CC=C(C=C2)C",
        "Molecular Formula": "C<sub>13</sub>H<sub>13</sub>N",
        "Molecular Mass": "183.25",
        "Boiling Point": "160-163 °C @ Press: 5 Torr",
        "Melting Point": "98-99 °C"
    }
}