{
    "cas_no": "1439-07-2",
    "key_name": "<em>trans</em>-Stilbene oxide",
    "cn_name": "反-氧化吡烯;",
    "alternate_name": "Oxirane, 2,3-diphenyl-, (2<em>R</em>,3<em>R</em>)-<em>rel</em>-;Bibenzyl, α,α′-epoxy-, <em>trans</em>-;Oxirane, 2,3-diphenyl-, <em>trans</em>-;<em>rel</em>-(2<em>R</em>,3<em>R</em>)-2,3-Diphenyloxirane;<em>trans</em>-Stilbene oxide;<em>trans</em>-Stilbene epoxide;<em>trans</em>-2,3-Diphenyloxirane;<em>trans</em>-Diphenyl-1,2-epoxyethane;(<em>E</em>)-Stilbene oxide;<em>trans</em>-α,α′-Epoxybibenzyl;<em>trans</em>-1,2-Diphenylethylene oxide;(±)-<em>trans</em>-Stilbene oxide;<em>trans</em>-(±)-2,3-Diphenyloxirane;(±)-<em>trans</em>-2,3-Diphenyloxirane;NSC 100317;NSC 40295;(2<em>R</em>,3<em>R</em>)-<em>rel</em>-2,3-Diphenyloxirane;(<em>E</em>)-Stilbene epoxide",
    "duplicated_cas_no": "38628-70-5",
    "SMILES": "[C@@H]1([C@@H](O1)C2=CC=CC=C2)C3=CC=CC=C3",
    "meta_data": {
        "InChI": "InChI=1/C14H12O/c1-3-7-11(8-4-1)13-14(15-13)12-9-5-2-6-10-12/h1-10,13-14H/t13-,14-/s2",
        "InChIKey": null,
        "Canonical SMILES": "O1C(C=2C=CC=CC2)C1C=3C=CC=CC3",
        "Molecular Formula": "C<sub>14</sub>H<sub>12</sub>O",
        "Molecular Mass": "196.24",
        "Boiling Point": "118-120 °C @ Press: 0.5 Torr",
        "Melting Point": "69-70 °C"
    }
}