{
    "cas_no": "16019-33-3",
    "key_name": "(4,6-Dichloropyrimidin-5-yl)acetaldehyde",
    "cn_name": null,
    "alternate_name": "5-Pyrimidineacetaldehyde, 4,6-dichloro-;4,6-Dichloro-5-pyrimidineacetaldehyde;2-(4,6-Dichloro-5-pyrimidinyl)acetaldehyde;(4,6-Dichloropyrimidin-5-yl)acetaldehyde",
    "duplicated_cas_no": "",
    "SMILES": "C(C=O)C=1C(Cl)=NC=NC1Cl",
    "meta_data": {
        "InChI": "InChI=1S/C6H4Cl2N2O/c7-5-4(1-2-11)6(8)10-3-9-5/h2-3H,1H2",
        "InChIKey": null,
        "Canonical SMILES": "O=CCC=1C(Cl)=NC=NC1Cl",
        "Molecular Formula": "C<sub>6</sub>H<sub>4</sub>Cl<sub>2</sub>N<sub>2</sub>O",
        "Molecular Mass": "191.01",
        "Melting Point": "89-91 °C"
    }
}