{
    "cas_no": "1830-78-0",
    "key_name": "2-Hydroxy-1,3-dimethacryloxypropane",
    "cn_name": null,
    "alternate_name": "2-Propenoic acid, 2-methyl-, 1,1′-(2-hydroxy-1,3-propanediyl) ester;2-Propenoic acid, 2-methyl-, 2-hydroxy-1,3-propanediyl ester;Methacrylic acid, 2-hydroxytrimethylene ester;Glycerol dimethacrylate;Glycerol 1,3-dimethacrylate;Glycerin 1,3-dimethacrylate;NK Ester 701;2-Hydroxy-1,3-dimethacryloxypropane;Glyceryl 1,3-dimethacrylate;2-Hydroxy-1,3-dimethacryloyloxypropane;G 101P;Light Ester G 101P;GP 101P;Mhoromer D 1108;D 1108;1,3-Bis(methacryloyloxy)-2-propanol;1,3-Di(methacryloyloxy)-2-hydroxypropane;2-Hydroxy-3-methacrylolyoxypropyl methacrylate;Glycerol 1,3-dimethylacrylate;[2-Hydroxy-3-(2-methylprop-2-enoyloxy)propyl] 2-methylprop-2-enoate",
    "duplicated_cas_no": "141681-57-4;181224-53-3;1610385-27-7;2714521-57-8",
    "SMILES": "C(C(COC(C(C)=C)=O)O)OC(C(C)=C)=O",
    "meta_data": {
        "InChI": "InChI=1S/C11H16O5/c1-7(2)10(13)15-5-9(12)6-16-11(14)8(3)4/h9,12H,1,3,5-6H2,2,4H3",
        "InChIKey": null,
        "Canonical SMILES": "O=C(OCC(O)COC(=O)C(=C)C)C(=C)C",
        "Molecular Formula": "C<sub>11</sub>H<sub>16</sub>O<sub>5</sub>",
        "Molecular Mass": "228.24",
        "Boiling Point": "90-104 °C @ Press: 0.25 Torr",
        "Density": "1.33 g/cm³"
    }
}