{
    "cas_no": "43229-80-7",
    "key_name": "Formoterol fumarate",
    "cn_name": "富马酸福莫特罗;N-[2-羟基-5[(RS)-1-羟基-2-[(RS)-2-(4-甲氧基苯基)-1-甲基乙基胺]乙基]苯基]甲酰胺半富马;",
    "alternate_name": "Formamide, <em>N</em>-[2-hydroxy-5-[(1<em>R</em>)-1-hydroxy-2-[[(1<em>R</em>)-2-(4-methoxyphenyl)-1-methylethyl]amino]ethyl]phenyl]-, <em>rel</em>-, (2<em>E</em>)-2-butenedioate (2:1) (salt);Formamide, <em>N</em>-[2-hydroxy-5-[1-hydroxy-2-[[2-(4-methoxyphenyl)-1-methylethyl]amino]ethyl]phenyl]-, (<em>R</em>*,<em>R</em>*)-(±)-, (<em>E</em>)-2-butenedioate (2:1) (salt);BD 40A;Formoterol fumarate;Atock;Aformoterol;CGP 25827A;YM 08316;Eformoterol fumarate;Foradil;Formamide, <em>N</em>-[2-hydroxy-5-[1-hydroxy-2-[[2-(4-methoxyphenyl)-1-methylethyl]amino]ethyl]phenyl]-, (<em>R</em>*,<em>R</em>*)-, (<em>E</em>)-2-butenedioate (2:1) (salt);NSC 299587;Foradil Acrolizer;Foradil Certihaler;Oxis pMDi;Foradil Aerolizer",
    "duplicated_cas_no": "83536-10-1;87481-49-0;87833-61-2",
    "SMILES": "[C@H](CN[C@H](CC1=CC=C(OC)C=C1)C)(O)C2=CC(NC=O)=C(O)C=C2.C(=C/C(O)=O)\\C(O)=O",
    "meta_data": {
        "InChI": "InChI=1/C19H24N2O4.C4H4O4/c1-13(9-14-3-6-16(25-2)7-4-14)20-11-19(24)15-5-8-18(23)17(10-15)21-12-22;5-3(6)1-2-4(7)8/h3-8,10,12-13,19-20,23-24H,9,11H2,1-2H3,(H,21,22);1-2H,(H,5,6)(H,7,8)/b;2-1+/t13-,19+;/s2",
        "InChIKey": null,
        "Canonical SMILES": "O=CNC1=CC(=CC=C1O)C(O)CNC(C)CC2=CC=C(OC)C=C2.O=C(O)C=CC(=O)O",
        "Molecular Formula": "C<sub>19</sub>H<sub>24</sub>N<sub>2</sub>O<sub>4</sub>.<sup>1</sup>/<sub>2</sub>C<sub>4</sub>H<sub>4</sub>O<sub>4</sub>",
        "Molecular Mass": "",
        "Melting Point": "138-140 °C"
    }
}