{
    "cas_no": "97-30-3",
    "key_name": "Methyl α-<span class=\"text-smallcaps\">D</span>-glucopyranoside",
    "cn_name": "alpha-甲基葡萄糖甙;alpha-甲基-D-葡萄糖苷;甲基-alpha-D-吡喃葡糖苷;",
    "alternate_name": "α-<span class=\"text-smallcaps\">D</span>-Glucopyranoside, methyl;Glucopyranoside, methyl, α-<span class=\"text-smallcaps\">D</span>-;Methyl α-<span class=\"text-smallcaps\">D</span>-glucopyranoside;1-<em>O</em>-Methyl-α-<span class=\"text-smallcaps\">D</span>-glucoside;Methyl α-<span class=\"text-smallcaps\">D</span>-glucoside;Methyl α-glucopyranoside;Methyl α-<span class=\"text-smallcaps\">D</span>-(+)-glucoside;1-<em>O</em>-Methyl-α-<span class=\"text-smallcaps\">D</span>-glucopyranoside;α-Methyl <span class=\"text-smallcaps\">D</span>-glucose ether;1-<em>O</em>-Methyl-α-glucopyranoside;NSC 102101;NSC 214092;α-Methylglucoside",
    "duplicated_cas_no": "1321-19-3;6817-79-4;15941-70-5;25281-47-4;25360-06-9;1195722-83-8",
    "SMILES": "C(O)[C@H]1O[C@H](OC)[C@H](O)[C@@H](O)[C@@H]1O",
    "meta_data": {
        "InChI": "InChI=1S/C7H14O6/c1-12-7-6(11)5(10)4(9)3(2-8)13-7/h3-11H,2H2,1H3/t3-,4-,5+,6-,7+/m1/s1",
        "InChIKey": null,
        "Canonical SMILES": "OCC1OC(OC)C(O)C(O)C1O",
        "Molecular Formula": "C<sub>7</sub>H<sub>14</sub>O<sub>6</sub>",
        "Molecular Mass": "194.18",
        "Melting Point": "168 °C",
        "Density": "1.03122 g/cm³ @ Temp: 20 °C"
    }
}