{
    "cas_no": "29878-31-7",
    "key_name": "4-Methylbenzotriazole",
    "cn_name": null,
    "alternate_name": "1<em>H</em>-Benzotriazole, 7-methyl-;1<em>H</em>-Benzotriazole, 4-methyl-;Benzotriazole, 4-methyl-;7-Methyl-1<em>H</em>-benzotriazole;4-Methylbenzotriazole;4-Methyl-1,2,3-benzotriazole;4-Methyl-1<em>H</em>-benzotriazole;4-Methyl-1<em>H</em>-benzo[<em>d</em>][1,2,3]triazole",
    "duplicated_cas_no": "",
    "SMILES": "CC1=C2C(=CC=C1)N=NN2",
    "meta_data": {
        "InChI": "InChI=1S/C7H7N3/c1-5-3-2-4-6-7(5)9-10-8-6/h2-4H,1H3,(H,8,9,10)",
        "InChIKey": null,
        "Canonical SMILES": "N1=NC=2C=CC=C(C2N1)C",
        "Molecular Formula": "C<sub>7</sub>H<sub>7</sub>N<sub>3</sub>",
        "Molecular Mass": "133.15",
        "Melting Point": "145-148 °C"
    }
}