{
    "cas_no": "90357-06-5",
    "key_name": "Bicalutamide",
    "cn_name": null,
    "alternate_name": "Propanamide, <em>N</em>-[4-cyano-3-(trifluoromethyl)phenyl]-3-[(4-fluorophenyl)sulfonyl]-2-hydroxy-2-methyl-;Propanamide, <em>N</em>-[4-cyano-3-(trifluoromethyl)phenyl]-3-[(4-fluorophenyl)sulfonyl]-2-hydroxy-2-methyl-, (±)-;<em>N</em>-[4-Cyano-3-(trifluoromethyl)phenyl]-3-[(4-fluorophenyl)sulfonyl]-2-hydroxy-2-methylpropanamide;ICI 176334;Casodex;(±)-4′-Cyano-α,α,α-trifluoro-3-[(<em>p</em>-fluorophenyl)sulfonyl]-2-methyl-<em>m</em>-lactotoluidide;Bicalutamide;Cosudex;ZD 176334;Casode",
    "duplicated_cas_no": "151262-58-7",
    "SMILES": "C(F)(F)(F)C1=C(C#N)C=CC(NC(C(CS(=O)(=O)C2=CC=C(F)C=C2)(C)O)=O)=C1",
    "meta_data": {
        "InChI": "InChI=1S/C18H14F4N2O4S/c1-17(26,10-29(27,28)14-6-3-12(19)4-7-14)16(25)24-13-5-2-11(9-23)15(8-13)18(20,21)22/h2-8,26H,10H2,1H3,(H,24,25)",
        "InChIKey": null,
        "Canonical SMILES": "N#CC1=CC=C(C=C1C(F)(F)F)NC(=O)C(O)(C)CS(=O)(=O)C2=CC=C(F)C=C2",
        "Molecular Formula": "C<sub>18</sub>H<sub>14</sub>F<sub>4</sub>N<sub>2</sub>O<sub>4</sub>S",
        "Molecular Mass": "430.37",
        "Melting Point": "190-195 °C (decomp)"
    }
}