{
    "cas_no": "487-06-9",
    "key_name": "5,7-Dimethoxycoumarin",
    "cn_name": "5,7-二甲氧基香豆素;",
    "alternate_name": "2<em>H</em>-1-Benzopyran-2-one, 5,7-dimethoxy-;Citropten;Coumarin, 5,7-dimethoxy-;5,7-Dimethoxy-2<em>H</em>-1-benzopyran-2-one;Citroptene;5,7-Dimethoxycoumarin;Limetin;Limettin;Citraptene;NSC 102793;NSC 217987;5,7-Dimethoxy-2<em>H</em>-chromen-2-one;Ciproten;5,7-Dimethoxy-2<em>H</em>-benzopyran-2-one",
    "duplicated_cas_no": "",
    "SMILES": "O(C)C1=C2C(=CC(OC)=C1)OC(=O)C=C2",
    "meta_data": {
        "InChI": "InChI=1S/C11H10O4/c1-13-7-5-9(14-2)8-3-4-11(12)15-10(8)6-7/h3-6H,1-2H3",
        "InChIKey": null,
        "Canonical SMILES": "O=C1OC2=CC(OC)=CC(OC)=C2C=C1",
        "Molecular Formula": "C<sub>11</sub>H<sub>10</sub>O<sub>4</sub>",
        "Molecular Mass": "206.19",
        "Boiling Point": "35-60 °C",
        "Melting Point": "149 °C"
    }
}