{
    "cas_no": "677-43-0",
    "key_name": "Dimethylphosphoramidic dichloride",
    "cn_name": "N,N-二甲基磷氨基二氯化物;",
    "alternate_name": "Phosphoramidic dichloride, <em>N</em>,<em>N</em>-dimethyl-;Phosphoramidic dichloride, dimethyl-;<em>N</em>,<em>N</em>-Dimethylphosphoramidic dichloride;Dimethylamidophosphoric acid dichloride;Dimethylphosphoramidic dichloride;Dichlorophosphoric dimethylamide;(Dimethylamido)phosphoric dichloride;Dimethylphosphorodichloridic amide;Dichloro(dimethylamino)phosphine oxide;NSC 203138;<em>N</em>,<em>N</em>-Dimethylaminophosphoryl dichloride;(Dimethylamino)phosphoric dichloride",
    "duplicated_cas_no": "",
    "SMILES": "P(N(C)C)(Cl)(Cl)=O",
    "meta_data": {
        "InChI": "InChI=1S/C2H6Cl2NOP/c1-5(2)7(3,4)6/h1-2H3",
        "InChIKey": null,
        "Canonical SMILES": "O=P(Cl)(Cl)N(C)C",
        "Molecular Formula": "C<sub>2</sub>H<sub>6</sub>Cl<sub>2</sub>NOP",
        "Molecular Mass": "161.95",
        "Boiling Point": "80-82 °C @ Press: 18 Torr",
        "Density": "1.3500 g/cm³ @ Temp: 20 °C; Press: 4 Torr"
    }
}