{
    "cas_no": "5888-51-7",
    "key_name": "4-Ethyl-1,2-dimethoxybenzene",
    "cn_name": null,
    "alternate_name": "Benzene, 4-ethyl-1,2-dimethoxy-;4-Ethyl-1,2-dimethoxybenzene;1,2-Dimethoxy-4-ethylbenzene;4-Ethylveratrole;3,4-Dimethoxyphenylethane;3-Methyl-4-(3,4-dimethoxyphenyl)methyleneisoxazole-5(4<em>H</em>)-one",
    "duplicated_cas_no": "",
    "SMILES": "O(C)C1=C(OC)C=CC(CC)=C1",
    "meta_data": {
        "InChI": "InChI=1S/C10H14O2/c1-4-8-5-6-9(11-2)10(7-8)12-3/h5-7H,4H2,1-3H3",
        "InChIKey": null,
        "Canonical SMILES": "O(C1=CC=C(C=C1OC)CC)C",
        "Molecular Formula": "C<sub>10</sub>H<sub>14</sub>O<sub>2</sub>",
        "Molecular Mass": "166.22",
        "Boiling Point": "228-230 °C"
    }
}