{
    "cas_no": "18769-05-6",
    "key_name": "1,3-Diethenyl-1,1,3,3-tetraphenyldisiloxane",
    "cn_name": null,
    "alternate_name": "Disiloxane, 1,3-diethenyl-1,1,3,3-tetraphenyl-;Disiloxane, 1,1,3,3-tetraphenyl-1,3-divinyl-;1,3-Diethenyl-1,1,3,3-tetraphenyldisiloxane;1,1,3,3-Tetraphenyl-1,3-divinyldisiloxane;1,3-Divinyltetraphenyldisiloxane;Divinyltetraphenyldisiloxane;Bis(diphenylvinylsiloxane)",
    "duplicated_cas_no": "",
    "SMILES": "[Si](O[Si](C=C)(C1=CC=CC=C1)C2=CC=CC=C2)(C=C)(C3=CC=CC=C3)C4=CC=CC=C4",
    "meta_data": {
        "InChI": "InChI=1S/C28H26OSi2/c1-3-30(25-17-9-5-10-18-25,26-19-11-6-12-20-26)29-31(4-2,27-21-13-7-14-22-27)28-23-15-8-16-24-28/h3-24H,1-2H2",
        "InChIKey": null,
        "Canonical SMILES": "O([Si](C=C)(C=1C=CC=CC1)C=2C=CC=CC2)[Si](C=C)(C=3C=CC=CC3)C=4C=CC=CC4",
        "Molecular Formula": "C<sub>28</sub>H<sub>26</sub>OSi<sub>2</sub>",
        "Molecular Mass": "434.68",
        "Melting Point": "77-81 °C"
    }
}