{
    "cas_no": "686-50-0",
    "key_name": "<span class=\"text-smallcaps\">L</span>-Leucylglycine",
    "cn_name": "L-亮氨酰甘氨酸;L-白氨酰甘氨酰;L-白氨酰乙氨酸;L-亮氨酰甘氨酸;",
    "alternate_name": "Glycine, <span class=\"text-smallcaps\">L</span>-leucyl-;Glycine, <em>N</em>-<span class=\"text-smallcaps\">L</span>-leucyl-;<span class=\"text-smallcaps\">L</span>-Leucylglycine;35: PN: WO0028996 SEQID: 4 unclaimed protein;436: PN: WO2005081628 SEQID: 438 claimed protein;1374: PN: EP2071334 SEQID: 1452 claimed protein;1374: PN: WO2009077864 SEQID: 1452 claimed protein;210: PN: WO2009114815 SEQID: 222 unclaimed protein;101: PN: EP2161028 PAGE: 10 claimed protein;202: PN: WO2011032181 SEQID: 222 unclaimed protein;30: PN: WO2014063098 TABLE: 5 claimed sequence;10: PN: WO2011159938 SEQID: 76 claimed protein;147: PN: US20130123467 SEQID: 176 claimed protein;1: PN: US20160271151 PAGE: 14 claimed sequence;(<em>S</em>)-2-(2-Amino-4-methylpentamido)acetic acid;2-[[(2S)-2-Amino-4-methylpentanoyl]amino]acetic acid;2-[(2S)-2-Amino-4-methylpentanamido]acetic acid;263: PN: WO2022177963 SEQID: 364 claimed protein;2: PN: WO2023056430 PAGE: 59 claimed sequence",
    "duplicated_cas_no": "909259-53-6",
    "SMILES": "[C@@H](C(NCC(O)=O)=O)(CC(C)C)N",
    "meta_data": {
        "InChI": "InChI=1S/C8H16N2O3/c1-5(2)3-6(9)8(13)10-4-7(11)12/h5-6H,3-4,9H2,1-2H3,(H,10,13)(H,11,12)/t6-/m0/s1",
        "InChIKey": null,
        "Canonical SMILES": "O=C(O)CNC(=O)C(N)CC(C)C",
        "Molecular Formula": "C<sub>8</sub>H<sub>16</sub>N<sub>2</sub>O<sub>3</sub>",
        "Molecular Mass": "188.22",
        "Melting Point": "248 °C"
    }
}