{
    "cas_no": "816-40-0",
    "key_name": "1-Bromo-2-butanone",
    "cn_name": null,
    "alternate_name": "2-Butanone, 1-bromo-;1-Bromo-2-butanone;Bromomethyl ethyl ketone;2-Oxobutyl bromide",
    "duplicated_cas_no": "",
    "SMILES": "C(CBr)(CC)=O",
    "meta_data": {
        "InChI": "InChI=1S/C4H7BrO/c1-2-4(6)3-5/h2-3H2,1H3",
        "InChIKey": null,
        "Canonical SMILES": "O=C(CBr)CC",
        "Molecular Formula": "C<sub>4</sub>H<sub>7</sub>BrO",
        "Molecular Mass": "151.00",
        "Boiling Point": "49-50 °C @ Press: 12 Torr"
    }
}