{
    "cas_no": "53924-05-3",
    "key_name": "7-Chloroindole",
    "cn_name": "7-氯吲哚;",
    "alternate_name": "1<em>H</em>-Indole, 7-chloro-;Indole, 7-chloro-;7-Chloro-1<em>H</em>-indole;7-Chloroindole",
    "duplicated_cas_no": "",
    "SMILES": "ClC1=C2C(=CC=C1)C=CN2",
    "meta_data": {
        "InChI": "InChI=1S/C8H6ClN/c9-7-3-1-2-6-4-5-10-8(6)7/h1-5,10H",
        "InChIKey": null,
        "Canonical SMILES": "ClC1=CC=CC=2C=CNC12",
        "Molecular Formula": "C<sub>8</sub>H<sub>6</sub>ClN",
        "Molecular Mass": "151.59",
        "Melting Point": "56-57 °C"
    }
}