{
    "cas_no": "4093-34-9",
    "key_name": "Methyl 4-(acetylamino)-5-bromo-2-methoxybenzoate",
    "cn_name": "2-甲氧基-4-乙酰胺基-5-溴苯甲酸甲酯;4-(乙酰氨基)-5-溴-2-甲氧基苯甲酸甲酯;",
    "alternate_name": "Benzoic acid, 4-(acetylamino)-5-bromo-2-methoxy-, methyl ester;<em>o</em>-Anisic acid, 4-acetamido-5-bromo-, methyl ester;Methyl 4-(acetylamino)-5-bromo-2-methoxybenzoate;Methyl 4-acetamido-5-bromo-2-methoxybenzoate",
    "duplicated_cas_no": "",
    "SMILES": "C(OC)(=O)C1=C(OC)C=C(NC(C)=O)C(Br)=C1",
    "meta_data": {
        "InChI": "InChI=1S/C11H12BrNO4/c1-6(14)13-9-5-10(16-2)7(4-8(9)12)11(15)17-3/h4-5H,1-3H3,(H,13,14)",
        "InChIKey": null,
        "Canonical SMILES": "O=C(OC)C1=CC(Br)=C(C=C1OC)NC(=O)C",
        "Molecular Formula": "C<sub>11</sub>H<sub>12</sub>BrNO<sub>4</sub>",
        "Molecular Mass": "302.12",
        "Melting Point": "174 °C"
    }
}