{
    "cas_no": "837392-62-8",
    "key_name": "1-Methyl-5-(4,4,5,5-tetramethyl-1,3,2-dioxaborolan-2-yl)-1<em>H</em>-indole",
    "cn_name": null,
    "alternate_name": "1<em>H</em>-Indole, 1-methyl-5-(4,4,5,5-tetramethyl-1,3,2-dioxaborolan-2-yl)-;1-Methyl-5-(4,4,5,5-tetramethyl-1,3,2-dioxaborolan-2-yl)-1<em>H</em>-indole;4,4,5,5-Tetramethyl-2-(1-methyl-1<em>H</em>-indol-5-yl)-1,3,2-dioxaborolane;1-Methyl-5-(4,4,5,5-tetramethyl-1,3,2-dioxaborolan-2-yl)indole;4,4,5,5-Tetramethyl-2-(1-methyl-5-indolyl)-1,3,2-dioxaborolane;1-Methylindole-5-boronic acid pinacol ester",
    "duplicated_cas_no": "",
    "SMILES": "CC1(C)OB(C=2C=C3C(=CC2)N(C)C=C3)OC1(C)C",
    "meta_data": {
        "InChI": "InChI=1S/C15H20BNO2/c1-14(2)15(3,4)19-16(18-14)12-6-7-13-11(10-12)8-9-17(13)5/h6-10H,1-5H3",
        "InChIKey": null,
        "Canonical SMILES": "O1B(OC(C)(C)C1(C)C)C=2C=CC3=C(C=CN3C)C2",
        "Molecular Formula": "C<sub>15</sub>H<sub>20</sub>BNO<sub>2</sub>",
        "Molecular Mass": "257.14",
        "Melting Point": "112 °C"
    }
}