{
    "cas_no": "14631-48-2",
    "key_name": "5,6,7,8-Tetrahydroquinoline <em>N</em>-oxide",
    "cn_name": null,
    "alternate_name": "Quinoline, 5,6,7,8-tetrahydro-, 1-oxide;5,6,7,8-Tetrahydroquinoline <em>N</em>-oxide;1-Oxido-5,6,7,8-tetrahydroquinolin-1-ium",
    "duplicated_cas_no": "",
    "SMILES": "O=N1=C2C(=CC=C1)CCCC2",
    "meta_data": {
        "InChI": "InChI=1S/C9H11NO/c11-10-7-3-5-8-4-1-2-6-9(8)10/h3,5,7H,1-2,4,6H2",
        "InChIKey": null,
        "Canonical SMILES": "O=N=1C=CC=C2C1CCCC2",
        "Molecular Formula": "C<sub>9</sub>H<sub>11</sub>NO",
        "Molecular Mass": "149.19",
        "Boiling Point": "151-153 °C @ Press: 3 Torr",
        "Melting Point": "69 °C"
    }
}