{
    "cas_no": "968-86-5",
    "key_name": "4-(Phenylamino)-1-(phenylmethyl)-4-piperidinecarbonitrile",
    "cn_name": null,
    "alternate_name": "4-Piperidinecarbonitrile, 4-(phenylamino)-1-(phenylmethyl)-;Isonipecotonitrile, 4-anilino-1-benzyl-;4-(Phenylamino)-1-(phenylmethyl)-4-piperidinecarbonitrile;1-Benzyl-4-cyano-4-anilinopiperidine;4-Anilino-4-cyano-1-benzylpiperidine;NSC 73005;1-Benzyl-4-(phenylamino)piperidine-4-carbonitrile;4-(Phenylamino)-1-(phenylmethyl)-4-piperidinenitrile;1-Benzyl-4-phenylamino-4-cyanopiperidine;1-Benzyl-4-cyano-4-phenylaminopiperidine",
    "duplicated_cas_no": "",
    "SMILES": "N(C1(C#N)CCN(CC2=CC=CC=C2)CC1)C3=CC=CC=C3",
    "meta_data": {
        "InChI": "InChI=1S/C19H21N3/c20-16-19(21-18-9-5-2-6-10-18)11-13-22(14-12-19)15-17-7-3-1-4-8-17/h1-10,21H,11-15H2",
        "InChIKey": null,
        "Canonical SMILES": "N#CC1(NC=2C=CC=CC2)CCN(CC=3C=CC=CC3)CC1",
        "Molecular Formula": "C<sub>19</sub>H<sub>21</sub>N<sub>3</sub>",
        "Molecular Mass": "291.39",
        "Melting Point": "144.8-146.2 °C"
    }
}