{
    "cas_no": "1304-85-4",
    "key_name": "Bismuth subnitrate",
    "cn_name": null,
    "alternate_name": "Bismuth hydroxide nitrate oxide (Bi<sub>5</sub>(OH)<sub>9</sub>(NO<sub>3</sub>)<sub>4</sub>O);Bismuth hydroxide nitrate oxide (Bi<sub>5</sub>O(OH)<sub>9</sub>(NO<sub>3</sub>)<sub>4</sub>);C.I. 77169;Basic bismuth nitrate;Bismuth Magistery;Bismuth white;Blanc de fard;C.I. Pigment White 17;Cosmetic White;Flake White;Novismuth;Spanish white;Bismuth subnitrate;Bismuth subnitricum;Bismuthyl nitrate;Magistery of bismuth;Snowcal 5SW;Vicalin;Vikaline;Pigment White 17;Roter;Bismuth oxynitrate;OrbeSeal;Bi(III) sub-nitrate",
    "duplicated_cas_no": "1327-34-0;1327-35-1;54392-33-5;331412-07-8;1396338-21-8;2097816-52-7;2416124-82-6",
    "SMILES": "",
    "meta_data": {
        "InChI": "",
        "InChIKey": null,
        "Canonical SMILES": "",
        "Molecular Formula": "Bi<sub>5</sub>H<sub>9</sub>N<sub>4</sub>O<sub>22</sub>",
        "Molecular Mass": "",
        "Melting Point": "260 °C (decomp)",
        "Density": "4.928 g/cm³"
    }
}