{
    "cas_no": "25542-62-5",
    "key_name": "Ethyl 6-bromohexanoate",
    "cn_name": "6-溴己酸乙酯;",
    "alternate_name": "Hexanoic acid, 6-bromo-, ethyl ester;Ethyl 6-bromohexanoate;Ethyl 6-bromocaproate;6-Bromohexanoic acid ethyl ester;5-Carbethoxypentyl bromide",
    "duplicated_cas_no": "671195-34-9",
    "SMILES": "C(CCCCCBr)(OCC)=O",
    "meta_data": {
        "InChI": "InChI=1S/C8H15BrO2/c1-2-11-8(10)6-4-3-5-7-9/h2-7H2,1H3",
        "InChIKey": null,
        "Canonical SMILES": "O=C(OCC)CCCCCBr",
        "Molecular Formula": "C<sub>8</sub>H<sub>15</sub>BrO<sub>2</sub>",
        "Molecular Mass": "223.11",
        "Boiling Point": "128-130 °C @ Press: 16 Torr",
        "Melting Point": "33 °C",
        "Density": "1.241 g/cm³ @ Temp: 23 °C"
    }
}