{
    "cas_no": "606-87-1",
    "key_name": "<em>N</em>,<em>N</em>-Diphenylbenzenemethanamine",
    "cn_name": null,
    "alternate_name": "Benzenemethanamine, <em>N</em>,<em>N</em>-diphenyl-;Benzylamine, <em>N</em>,<em>N</em>-diphenyl-;<em>N</em>,<em>N</em>-Diphenylbenzenemethanamine;<em>N</em>-Benzyl-<em>N</em>-phenylaniline;<em>N</em>-Benzyldiphenylamine;Benzyldiphenylamine;<em>N</em>,<em>N</em>-Diphenylbenzylamine;Diphenylbenzylamine;<em>N</em>-Benzyl-<em>N</em>-phenylbenzenamine;<em>N</em>-Phenyl-<em>N</em>-benzylaniline",
    "duplicated_cas_no": "",
    "SMILES": "N(CC1=CC=CC=C1)(C2=CC=CC=C2)C3=CC=CC=C3",
    "meta_data": {
        "InChI": "InChI=1S/C19H17N/c1-4-10-17(11-5-1)16-20(18-12-6-2-7-13-18)19-14-8-3-9-15-19/h1-15H,16H2",
        "InChIKey": null,
        "Canonical SMILES": "C=1C=CC(=CC1)N(C=2C=CC=CC2)CC=3C=CC=CC3",
        "Molecular Formula": "C<sub>19</sub>H<sub>17</sub>N",
        "Molecular Mass": "259.35",
        "Melting Point": "88-88.5 °C"
    }
}