{
    "cas_no": "100-72-1",
    "key_name": "2-(Hydroxymethyl)tetrahydropyran",
    "cn_name": "四氢吡喃-2-甲醇;2-(羟基甲基)四氢吡喃;",
    "alternate_name": "2<em>H</em>-Pyran-2-methanol, tetrahydro-;Pyran-2-methanol, tetrahydro-;Tetrahydro-2<em>H</em>-pyran-2-methanol;Tetrahydropyran-2-methanol;2-(Hydroxymethyl)tetrahydropyran;Tetrahydropyran-2-carbinol;2-Tetrahydropyranylcarbinol;3,4,5,6-Tetrahydro-2<em>H</em>-pyran-2-methanol;NSC 5221;NSC 66493;Tetrahydro-2<em>H</em>-pyran-2-ylmethanol;Oxan-2-ylmethanol",
    "duplicated_cas_no": "144541-01-5",
    "SMILES": "C(O)C1CCCCO1",
    "meta_data": {
        "InChI": "InChI=1S/C6H12O2/c7-5-6-3-1-2-4-8-6/h6-7H,1-5H2",
        "InChIKey": null,
        "Canonical SMILES": "OCC1OCCCC1",
        "Molecular Formula": "C<sub>6</sub>H<sub>12</sub>O<sub>2</sub>",
        "Molecular Mass": "116.16",
        "Boiling Point": "185 °C",
        "Density": "1.026 g/cm³ @ Temp: 25 °C"
    }
}