{
    "cas_no": "576-82-9",
    "key_name": "1,2,3-Tribromo-5-fluorobenzene",
    "cn_name": null,
    "alternate_name": "Benzene, 1,2,3-tribromo-5-fluoro-;1,2,3-Tribromo-5-fluorobenzene",
    "duplicated_cas_no": "",
    "SMILES": "BrC1=C(Br)C=C(F)C=C1Br",
    "meta_data": {
        "InChI": "InChI=1S/C6H2Br3F/c7-4-1-3(10)2-5(8)6(4)9/h1-2H",
        "InChIKey": null,
        "Canonical SMILES": "FC=1C=C(Br)C(Br)=C(Br)C1",
        "Molecular Formula": "C<sub>6</sub>H<sub>2</sub>Br<sub>3</sub>F",
        "Molecular Mass": "332.79",
        "Melting Point": "96 °C"
    }
}