{
    "cas_no": "108-89-4",
    "key_name": "4-Methylpyridine",
    "cn_name": "4-甲基吡啶;gamma-甲基吡啶;",
    "alternate_name": "Pyridine, 4-methyl-;4-Picoline;4-Methylpyridine;γ-Picoline;Ba 35846;<em>p</em>-Methylpyridine;<em>p</em>-Picoline;γ-Methylpyridine;NSC 18252",
    "duplicated_cas_no": "82005-09-2;92075-35-9",
    "SMILES": "CC=1C=CN=CC1",
    "meta_data": {
        "InChI": "InChI=1S/C6H7N/c1-6-2-4-7-5-3-6/h2-5H,1H3",
        "InChIKey": null,
        "Canonical SMILES": "N=1C=CC(=CC1)C",
        "Molecular Formula": "C<sub>6</sub>H<sub>7</sub>N",
        "Molecular Mass": "93.13",
        "Boiling Point": "145 °C @ Press: 760 Torr",
        "Melting Point": "3.66 °C",
        "Density": "0.9548 g/cm³ @ Temp: 20 °C"
    }
}