{
    "cas_no": "13205-48-6",
    "key_name": "4-(Methylthio)benzoic acid",
    "cn_name": "4-甲硫基苯甲酸;",
    "alternate_name": "Benzoic acid, 4-(methylthio)-;Benzoic acid, <em>p</em>-(methylthio)-;4-(Methylthio)benzoic acid;<em>p</em>-(Methylthio)benzoic acid;<em>p</em>-Carboxyphenyl methyl sulfide;4-Carboxyphenyl methyl sulfide;<em>p</em>-Carboxythioanisole;NSC 400301;4-(Methylsulfanyl)benzoic acid",
    "duplicated_cas_no": "",
    "SMILES": "C(O)(=O)C1=CC=C(SC)C=C1",
    "meta_data": {
        "InChI": "InChI=1S/C8H8O2S/c1-11-7-4-2-6(3-5-7)8(9)10/h2-5H,1H3,(H,9,10)",
        "InChIKey": null,
        "Canonical SMILES": "O=C(O)C1=CC=C(SC)C=C1",
        "Molecular Formula": "C<sub>8</sub>H<sub>8</sub>O<sub>2</sub>S",
        "Molecular Mass": "168.21",
        "Melting Point": "193-196 °C"
    }
}