{
    "cas_no": "100-64-1",
    "key_name": "Cyclohexanone oxime",
    "cn_name": "环己酮肟;",
    "alternate_name": "Cyclohexanone, oxime;Antioxidant D;(Hydroxyimino)cyclohexane;NSC 6300;OxiKhim-Styrol;Cyclohexanone oxime;Exkin III;Borchinox C 3",
    "duplicated_cas_no": "136057-01-7;136056-95-6;1071540-61-8",
    "SMILES": "N(O)=C1CCCCC1",
    "meta_data": {
        "InChI": "InChI=1S/C6H11NO/c8-7-6-4-2-1-3-5-6/h8H,1-5H2",
        "InChIKey": null,
        "Canonical SMILES": "ON=C1CCCCC1",
        "Molecular Formula": "C<sub>6</sub>H<sub>11</sub>NO",
        "Molecular Mass": "113.16",
        "Boiling Point": "206-210 °C",
        "Melting Point": "89-90 °C",
        "Density": "0.980 g/cm³ @ Temp: 804 °C"
    }
}