{
    "cas_no": "102561-42-2",
    "key_name": "3-Fluoro-4-methylphenyl isocyanate",
    "cn_name": null,
    "alternate_name": "Benzene, 2-fluoro-4-isocyanato-1-methyl-;2-Fluoro-4-isocyanato-1-methylbenzene;3-Fluoro-4-methylphenyl isocyanate;1-Fluoro-5-isocyanato-2-methylbenzene",
    "duplicated_cas_no": "",
    "SMILES": "N(=C=O)C1=CC(F)=C(C)C=C1",
    "meta_data": {
        "InChI": "InChI=1S/C8H6FNO/c1-6-2-3-7(10-5-11)4-8(6)9/h2-4H,1H3",
        "InChIKey": null,
        "Canonical SMILES": "O=C=NC1=CC=C(C(F)=C1)C",
        "Molecular Formula": "C<sub>8</sub>H<sub>6</sub>FNO",
        "Molecular Mass": "151.14",
        "Boiling Point": "65-70 °C @ Press: 12 Torr"
    }
}