{
    "cas_no": "112-79-8",
    "key_name": "Elaidic acid",
    "cn_name": "反油酸;反式-9-十八碳烯酸;凝油酸;洋橄榄油酸;",
    "alternate_name": "9-Octadecenoic acid, (9<em>E</em>)-;Elaidic acid;9-Octadecenoic acid, (<em>E</em>)-;(9<em>E</em>)-9-Octadecenoic acid;<em>trans</em>-Δ<sup>9</sup>-Octadecenoic acid;<em>trans</em>-9-Octadecenoic acid;9-<em>trans</em>-Octadecenoic acid;<em>trans</em>-Oleic acid;Δ<sup>9</sup>-<em>trans</em>-Octadecenoic acid;(<em>E</em>)-Oleic acid;<em>trans</em>-Elaidic acid;(<em>E</em>)-9-Octadecenoic acid;Elaidinic acid;NSC 26988;(9<em>E</em>)-Octadecenoic acid;9-<em>trans</em>-Oleic acid",
    "duplicated_cas_no": "",
    "SMILES": "C(C/C=C/CCCCCCCC)CCCCCC(O)=O",
    "meta_data": {
        "InChI": "InChI=1S/C18H34O2/c1-2-3-4-5-6-7-8-9-10-11-12-13-14-15-16-17-18(19)20/h9-10H,2-8,11-17H2,1H3,(H,19,20)/b10-9+",
        "InChIKey": null,
        "Canonical SMILES": "O=C(O)CCCCCCCC=CCCCCCCCC",
        "Molecular Formula": "C<sub>18</sub>H<sub>34</sub>O<sub>2</sub>",
        "Molecular Mass": "282.46",
        "Melting Point": "45 °C",
        "Density": "0.851 g/cm³ @ Temp: 79 °C"
    }
}