{
    "cas_no": "58-46-8",
    "key_name": "(±)-Tetrabenazine",
    "cn_name": null,
    "alternate_name": "2<em>H</em>-Benzo[<em>a</em>]quinolizin-2-one, 1,3,4,6,7,11b-hexahydro-9,10-dimethoxy-3-(2-methylpropyl)-, (3<em>R</em>,11b<em>R</em>)-<em>rel</em>-;2<em>H</em>-Benzo[<em>a</em>]quinolizin-2-one, 1,3,4,6,7,11b-hexahydro-3-isobutyl-9,10-dimethoxy-;2<em>H</em>-Benzo[<em>a</em>]quinolizin-2-one, 1,3,4,6,7,11b-hexahydro-9,10-dimethoxy-3-(2-methylpropyl)-, <em>cis</em>-;<em>rel</em>-(3<em>R</em>,11b<em>R</em>)-1,3,4,6,7,11b-Hexahydro-9,10-dimethoxy-3-(2-methylpropyl)-2<em>H</em>-benzo[<em>a</em>]quinolizin-2-one;Ro 1-9569;<em>cis</em>-2-Oxo-3-isobutyl-9,10-dimethoxy-1,2,3,4,6,7-hexahydro-11b<em>H</em>-benzo[<em>a</em>]quinolizine;Tetrabenazine;Rubigen;NSC 169886;NSC 172187;(±)-Tetrabenazine;Xenazine;MeSH ID: D013747",
    "duplicated_cas_no": "2104-79-2;39630-28-9",
    "SMILES": "O(C)C=1C=C2[C@]3(N(C[C@H](CC(C)C)C(=O)C3)CCC2=CC1OC)[H]",
    "meta_data": {
        "InChI": "InChI=1/C19H27NO3/c1-12(2)7-14-11-20-6-5-13-8-18(22-3)19(23-4)9-15(13)16(20)10-17(14)21/h8-9,12,14,16H,5-7,10-11H2,1-4H3/t14-,16-/s2",
        "InChIKey": null,
        "Canonical SMILES": "O=C1CC2C3=CC(OC)=C(OC)C=C3CCN2CC1CC(C)C",
        "Molecular Formula": "C<sub>19</sub>H<sub>27</sub>NO<sub>3</sub>",
        "Molecular Mass": "317.42",
        "Melting Point": "128 °C"
    }
}