{
    "cas_no": "766-20-1",
    "key_name": "2,4-Dimethyl-1,3-dioxane",
    "cn_name": "2,4-二甲基-1,3-二噁烷;",
    "alternate_name": "1,3-Dioxane, 2,4-dimethyl-;<em>m</em>-Dioxane, 2,4-dimethyl-;2,4-Dimethyl-1,3-dioxane;2,4-Dimethyl-<em>m</em>-dioxane;NSC 60701",
    "duplicated_cas_no": "",
    "SMILES": "CC1OC(C)OCC1",
    "meta_data": {
        "InChI": "InChI=1S/C6H12O2/c1-5-3-4-7-6(2)8-5/h5-6H,3-4H2,1-2H3",
        "InChIKey": null,
        "Canonical SMILES": "O1CCC(OC1C)C",
        "Molecular Formula": "C<sub>6</sub>H<sub>12</sub>O<sub>2</sub>",
        "Molecular Mass": "116.16",
        "Boiling Point": "116.5 °C",
        "Density": "0.9354 g/cm³ @ Temp: 20 °C"
    }
}