{
    "cas_no": "29823-21-0",
    "key_name": "Octanoic acid, 8-bromo-, ethyl ester",
    "cn_name": "8-溴辛酸乙酯;",
    "alternate_name": "Octanoic acid, 8-bromo-, ethyl ester;Caprylic acid, η-bromo-, ethyl ester;Ethyl 8-bromooctanoate;8-Bromocaprylic acid ethyl ester;NSC 100182;8-Bromooctanoic acid ethyl ester",
    "duplicated_cas_no": "",
    "SMILES": "C(CCCCCCCBr)(OCC)=O",
    "meta_data": {
        "InChI": "InChI=1S/C10H19BrO2/c1-2-13-10(12)8-6-4-3-5-7-9-11/h2-9H2,1H3",
        "InChIKey": null,
        "Canonical SMILES": "O=C(OCC)CCCCCCCBr",
        "Molecular Formula": "C<sub>10</sub>H<sub>19</sub>BrO<sub>2</sub>",
        "Molecular Mass": "251.16",
        "Boiling Point": "120-123 °C @ Press: 3 Torr"
    }
}