{
    "cas_no": "109293-97-2",
    "key_name": "Diflufenzopyr",
    "cn_name": null,
    "alternate_name": "3-Pyridinecarboxylic acid, 2-[1-[2-[[(3,5-difluorophenyl)amino]carbonyl]hydrazinylidene]ethyl]-;3-Pyridinecarboxylic acid, 2-[1-[[[(3,5-difluorophenyl)amino]carbonyl]hydrazono]ethyl]-;2-[1-[2-[[(3,5-Difluorophenyl)amino]carbonyl]hydrazinylidene]ethyl]-3-pyridinecarboxylic acid;SAN 835H;Diflufenzopyr;BAS 654H",
    "duplicated_cas_no": "",
    "SMILES": "C(=NNC(NC1=CC(F)=CC(F)=C1)=O)(C)C2=C(C(O)=O)C=CC=N2",
    "meta_data": {
        "InChI": "InChI=1S/C15H12F2N4O3/c1-8(13-12(14(22)23)3-2-4-18-13)20-21-15(24)19-11-6-9(16)5-10(17)7-11/h2-7H,1H3,(H,22,23)(H2,19,21,24)",
        "InChIKey": null,
        "Canonical SMILES": "O=C(O)C1=CC=CN=C1C(=NNC(=O)NC=2C=C(F)C=C(F)C2)C",
        "Molecular Formula": "C<sub>15</sub>H<sub>12</sub>F<sub>2</sub>N<sub>4</sub>O<sub>3</sub>",
        "Molecular Mass": "334.28",
        "Melting Point": "155 °C (decomp)",
        "Density": "0.24 g/cm³ @ Temp: 25 °C"
    }
}