{
    "cas_no": "36052-37-6",
    "key_name": "(-)-Alpinetin",
    "cn_name": "山姜素; 山楂果提取物; (S)-7-羟基-5-甲氧基黄酮;",
    "alternate_name": "4<em>H</em>-1-Benzopyran-4-one, 2,3-dihydro-7-hydroxy-5-methoxy-2-phenyl-, (2<em>S</em>)-;4<em>H</em>-1-Benzopyran-4-one, 2,3-dihydro-7-hydroxy-5-methoxy-2-phenyl-, (<em>S</em>)-;Alpinetin;Flavanone, 7-hydroxy-5-methoxy-;(2<em>S</em>)-2,3-Dihydro-7-hydroxy-5-methoxy-2-phenyl-4<em>H</em>-1-benzopyran-4-one;5-Methoxy-7-hydroxyflavanone;5-<em>O</em>-Methylpinocembrin;(-)-Alpinetin;(<em>S</em>)-7-Hydroxy-5-methoxy-2-phenylchroman-4-one",
    "duplicated_cas_no": "491-65-6",
    "SMILES": "O(C)C1=C2C(O[C@@H](CC2=O)C3=CC=CC=C3)=CC(O)=C1",
    "meta_data": {
        "InChI": "InChI=1S/C16H14O4/c1-19-14-7-11(17)8-15-16(14)12(18)9-13(20-15)10-5-3-2-4-6-10/h2-8,13,17H,9H2,1H3/t13-/m0/s1",
        "InChIKey": null,
        "Canonical SMILES": "O=C1C=2C(OC)=CC(O)=CC2OC(C=3C=CC=CC3)C1",
        "Molecular Formula": "C<sub>16</sub>H<sub>14</sub>O<sub>4</sub>",
        "Molecular Mass": "270.28",
        "Melting Point": "223 °C"
    }
}