{
    "cas_no": "31524-62-6",
    "key_name": "Isobavachin",
    "cn_name": null,
    "alternate_name": "4<em>H</em>-1-Benzopyran-4-one, 2,3-dihydro-7-hydroxy-2-(4-hydroxyphenyl)-8-(3-methyl-2-buten-1-yl)-, (2<em>S</em>)-;4<em>H</em>-1-Benzopyran-4-one, 2,3-dihydro-7-hydroxy-2-(4-hydroxyphenyl)-8-(3-methyl-2-butenyl)-, (<em>S</em>)-;Flavanone, 4′,7-dihydro-8-(3-methyl-2-butenyl)-;4<em>H</em>-1-Benzopyran-4-one, 2,3-dihydro-7-hydroxy-2-(4-hydroxyphenyl)-8-(3-methyl-2-butenyl)-, (2<em>S</em>)-;(2<em>S</em>)-2,3-Dihydro-7-hydroxy-2-(4-hydroxyphenyl)-8-(3-methyl-2-buten-1-yl)-4<em>H</em>-1-benzopyran-4-one;Isobavachin;(2S)-7-Hydroxy-2-(4-hydroxyphenyl)-8-(3-methylbut-2-enyl)-2,3-dihydrochromen-4-one",
    "duplicated_cas_no": "19879-33-5",
    "SMILES": "C(C=C(C)C)C1=C2C(C(=O)C[C@H](O2)C3=CC=C(O)C=C3)=CC=C1O",
    "meta_data": {
        "InChI": "InChI=1S/C20H20O4/c1-12(2)3-8-15-17(22)10-9-16-18(23)11-19(24-20(15)16)13-4-6-14(21)7-5-13/h3-7,9-10,19,21-22H,8,11H2,1-2H3/t19-/m0/s1",
        "InChIKey": null,
        "Canonical SMILES": "O=C1C2=CC=C(O)C(=C2OC(C3=CC=C(O)C=C3)C1)CC=C(C)C",
        "Molecular Formula": "C<sub>20</sub>H<sub>20</sub>O<sub>4</sub>",
        "Molecular Mass": "324.37",
        "Melting Point": "187-188 °C"
    }
}