{
    "cas_no": "9004-34-6",
    "key_name": "Cellulose",
    "cn_name": null,
    "alternate_name": "Cellulose;Cellulose 248;Cellulose crystalline;Kingcot;Rayophane;Solka-fil;Pyrocellulose;α-Cellulose;Avicel;Tomofan;Cupricellulose;Tunicin;MN-Cellulose;Celufi;β-Amylose;Cepo;Cepo S 20;Rayweb Q;Chromedia CC 31;Chromedia CF 11;Cepo S 40;Cepo CFM;Sulfite cellulose;Solka-Floc BW;Elcema P 050;Elcema P 100;Elcema F 150;Elcema G 250;Avicel PH 101;Solka-Floc;Cellex MX;Avicel 101;Avicel 102;Sigmacell;Avicel PH 105;Solka-Floc BW 20;Whatman CC 31;Rexcel;Solka-Floc BW 2030;Solka-Floc BW 200;Solka-Floc BW 100;Spartose OM 22;LA 01;Arbocel BC 200;Fresenius D 6;Arbocel;Heweten 10;KC Flock W 200;Rehocel 1200;Cemirom;Whatman 41;Sigmacell 20;Sigmacell 100;Solka-Floc SW 40;Sigmacell 50;Avicel SF;Plastics, cellulosic;Avicel PH 102;Somicel F;Somicel Z;Tomcel T;Technocel 30;Technocel 50F;Emcocel;CF 11;KC Flock W 300;KC Flock W 250;Arbocel B 600/30;Heweten 40;Solka-Floc BW 300;Crystalline cellulose;Avicel PH 302;Avicel PH-M 06;Technocel 100;Daicel 500;Avicel PH 301;KC Flock W 400;Arbocel BE 600/30;Arbocel BE 600;Arbocel BWW 40;Arbocel DC 1000;Avicel TG 101;Avicel 2330;Avicel TG-D;Solka-Floc BW 200NF;CP 60;Alphafloc;MFTs-I;MFTs-V;Perloza MT 750;Arbocel B 820C;Arbocel TP 40;Arbocel FD 00;Technocel 300BL;Arbocel B 00;Neocel;Arbocel BE 600/20;Solka-Floc BW 300FCC;Bellfine D 10;Technocel 150D;Heweten 12;RC beads S-type;Divicell;Solka-Floc 40;Avicel 2331;Avicel FD 101;Nymoella AB;Avicel SP;Avicel FD 100;Visking 18/32;Serisew FD 100S;Solka-Floc 900FCC;Microcube FN-S 03;Emcocel 50M;Emcocel 90M;Lattice NTC;MN-C;MN-P;Perloza MT 200;Celish;Serufia CP 203;Serufia CP 305;Serufia CP 507;KC Flock W 50S;Serutoppu S 1;Serutoppu S 2;Serutoppu S 3;Serutoppu S 4;Serutoppu S 5;Drylap;Kayocel 55HC;Arbocel FIC 200;YM 300;Microcel MC 101;Celish KY 100S;Celish KY 100L;KS 60 (cellulose);KS 160 (cellulose);KS 60;KS 160;Cellulose crystalline avicel;Arbocel BE 600/10;Avicel PH-M 15;Arbocel B 800;Alpha Cel PB 25;Lattice NT 013;Avicel 955;Perloza MT 100;Ceoluscream FP 03;Vivacel 101;Vivacel 102;V 65;Avicel PH 200;Avicel E 200;Vivapur 200;V 65 (polysaccharide);Avicel PH-F 10;Filmtec RC 70PP;Thermocell;Celish 100F;Celish 100L;402-2B;KC Flock 100;Arbocel BC 1000;Alicell LV;Ceolus SC 701;Matricel alpha 450;Temsolv;L-SF;Pharmacel 101;Whatman CF 11;Helmcel 100;Celish FD 100G;Transorb;CF 1;Celish FD 100E;Avicel FD-F 20;Arbocel TF 30HG;CF 1 (polysaccharide);Sigmacell 101;KC Flock W 300G;KC Flock W 100;Celphere 102;Rayonex F;Avicel M 06;Avicel M 15;Avicel M 25;Celphere CP 102;Celphere CP 203;Viscopearl;W 400G;N Drill HB;Avicel PH-F 20;W 400;KC Flock W 4;Arbocel FD 600/30;Microquick WC 595;Maikurokyaria;Avicel PH-M 25;W 4;Ceolus SC-N 43;W 4 (cellulose);Sanacel 90;3mAQUACEL;Ceolus KG 801;Celphere CP 305;S 1Y3;KC Flock;KC Flock 400;KC Flock W 50;KC Flock W 400G;Sanacel 150;Excel 110;Ceolus SC-N 42;Vitacel BZN 600/30PH;E 140;E 140 (fiber);Avicel F 20;Arbocel FT 40;Sekicel DC;Vivapur 101;Vivapur 102;Vivapur 105;Technocel 40;Unimac MG 200;KC Flock W 100G;Recephere;Arbocel FT 600/30H;CL 611;Technocel 150;S-MFC;Tylopur;ToyoRoshi B;Celluflow C 15;Arbocel BEM;Arbocel BFC 200;Kac;PH 102;Vivapur PH 101;S 105;Avicel NT 020;Arbocel B 600;S 105 (polysaccharide);Solka-Floc 60;Pharmacel ph 102;Cellspon;CRV;KC Flock 400G;Avicel RCS 91;CRV (polysaccharide);W 100G;KC Flock W 10MG;Arbocel G 350;KC 400;Diacel 75;Celish KY 100G;Ceolus SC 700;Avicel NT 050;CPB 06;C 8002;E 460;Avicel TG 101L;CR 1654;Comprecel;Viscopearl AZ 4200CC;Viscopearl AD 3300;Granocell 2000;Arbocel M 80P;Cellulosebeads D 100;Vivapur 12;KCFW 100;Zeolas cream;Celluflow;Rayfloc XJ;Ceolus ST 2;Cellunier F;Avicel PH;TerraCel 10J;Porosanier J;Emcocel LP 2000;Ceolus KG 802;Tabulose 101;Emcocel LP 200;Emcocel HD 90;Vivapur 302;Heated E 50M;Emcocel SP 15;Viscopearl AH 2050L-WF;Viscopearl AH 2050L-WK;Ceoluscream;L 20 (cellulose);L 20;Celphere CP 507JPE;Celphere SCP 100;Cellets;ND 416;Avicel PH 113;D 10;S 320;D 10 (cellulose);S 320 (cellulose);Viscopearl AH 2050L;TF 1500PH;Rayonex P;Arbocel LZ 51;Cellflow C 25;Celpac 50;Microcell 102;Ethispheres;Arbocel M 80;Arbocel FT 600;Lattice NT 006;Visking;Avicel PH 112;Technocel 75;KC Flock 200;YM 10F;Diacel-CF/S;MA 40000S;KC Flock W 200G;Prosolv 90M;Alwall Plus 15;Ceolus;Solka-Floc 300;Ariacel A 150;Emcocel 90;Ahlstrom 939;NanoCell;Solucell;Alpha-Cel BH 600/20;BH 600/20 α-Cel;Jelucel PF 30;CreaMix TC 1004;α-Cel BH 600/20;Avicel 101 MCC;Omnicel 102;Micro Fibril Cellulose;Viscopearl A;MN 100;Avicel F 05;KC Flock 300;Homogen 1610;Jelucel PF 90;Elcema P 020;Arbocel FDY 600;Vitacel L 10;Filtracel EFC 950C;Filtracel EFC 900CT;Arbocel FDC 200;Vivapur MCG 591;Vivapur MCG 611;VIS TOP D 1904;Ceolus PH 101;Ceolus PH 302;Microcel MC 102;MC 101;MC 101 (polysaccharide);NB 480;Ceolus ST 02;Accuwipe;Ming Tai;Avicel TG-F 20;Avicel TG-F 05;Ultracel;TF 40;Arbocel P 290;Avicel LM 310;Solka-Floc 300FCC;UICEL-A/102;FEZ 1167;KZO 3;Solucell 1175;Cell-U-Sorb;Solucell 400;Armorib LS;Celish PC 110S;Avicel 112;Sai Lyo 556;Viscokraft 389;Alistaple 1168;Viskokraft 389;Bacell 569;KC Flock W 50GK;KC Flock W 100GK;C 30FM;W 50GK;VIS TOP D 1963;Solucell 500;Solucell 270;Borregaard 1200;Solka Floc 40NF;Alpha Cel BH 300;Arbocel TF 0406;Ceolus PH-F 20JP;Ceolus PH 30;Cuoxam DP 454;Jelucel HM 200;Ceolus PH 102;Perloza MT 50;Amicon S 10Y1;S 10Y1;Celish FD 200L;Ceolus SC 900;BH 40;ER 5.2M;Alpha Cel BH 100;Technocel 150DM;Nasaleze;Ultraether F;Celish 100G;Avicel R;W 10MG;W 06MG;Avicel PC 611;Alpha Cel C 10;Alpha Cel BH 200;Alpha Cel C 40;V 81;Natromouse;Heweten 101;Arbocel BE 600-10TG;TF 40-35;TF 4035;Ceolus KG 1000;402KS;W 100;Cellulobeads D 10;Arbocel A 300;Avicel HP 101;Celphere 203;Ceolus TGF 20;BE 600-10TG;CA 107;WG 10MG2;WG 06MG;TF 4030;TF 4425;TF 4530;Nanoworp;DP<sub>Cu</sub> 280;Celish KY 100GE;W 100GK;PC 107YR;Avicel PH 103;Ceolus PH 301;Ceolus TG 101;KY 100G;A 17730;Arbocel BE 30/600;KY 100S;Cotton Cellulose Powder 100-200 mesh;Microcel MC 500;Tabulose O 500;Vivapur 301;Ceolus SC 900S;Arbocel C 100;Arbocel C 750;Vizorb 3042;Tricacel 100;CC 41;Celphere CP 102Y;CP 102Y;Cellodinne 4M;RM 8495;Solk-floc 900;Ceolus FD 101;EFTec L 010-4;DPW 4580;Advantec D;Cellulobeads D 5;Filtacel 450;Filtracel EFC 950C-Plus;Ceolus F 7A;KC Flock W 10MG2;Arbocel FD 40;Ceolus UF 711;Lattice NT 20;CreaClear CC 200LS;NFC 100-5;Viscopearl Mini;Funacel;PH 302;KG 802;Celish KY 100OG;Hahnflock HL 200/30;Arbocel CW 630;Arbocel FT 400;Polycell PTz;Cellufluxx F 15;Ceolus DX 2;Ceolus ST 100;Ceolus UF-F 702;Viscopearl AH 4050L;KC Flock W 50G;Comprecel M 101;Tabulose;Ceolus RC 81N;Ceolus PH 200;Ceolus TG;Celgum C 91;Whatman 42;NP-Fiber W 06MG;UFC;Fibra-Cel BH 100;Funacel II;Cellets 1000;Bahia SP;Vizorb 3905;Lyocell L 010-4;Ceolus UF 702;Jelucel HM 30;Vivapor 101P;Comprecel 101QD;Celish FD 1000;ProteoChrom Cellulose;ProteoChrom HPTLC Cellulose;Vivapur 103;NTC 61;C 005F;Cellets 700;C 010F;Avicel PH 101NF;BH 100;HT-K 100000S;Ceolus FD-F 20;Avicel GP 1030;2931-1M;Lattice NT 100;Arbocel 5FT;Filtracel EFC 950;Avicel 591F;Heweten 102;Arbocel BE 800;RC 60;FD 600/30;Arbocel ZZ 40;Lattice NTC 50;Solka-Floc C 100;Solka-Floc 200EZ;Cellulose CF 11;MCC SANAQ 102L;EX 9560;Polycell PC;Celish KY 110G;Arbocel MF 40/100;Nanoskin;Arbocel B 3000;Cellulobeads D 100;KC Flock 50GK;TF 4840;Jelucel OF 300;UniFiber;Advice DP 27;MCC Sanaq 102G;Perloza MG;Courcel 172;Lattice NT 020;Arbocel UFC 100;KC-Flock W 06MG;Ceolus FD 301;DP 686;UF-F 711;Flocel 101;Ceolus UF-F 711;BiNF-I-S;Accel 101;Avicel AC 4125;Lattice NTC 80;Comprecel M 102;Arbocel FT 4;Vivapur MCG 591F;Tencel CP 10;Celish KY 110N;HBR 30000;DP 900;Arbocel UFC-C 3;RNP 2;Growdex;FD 40;Avicel PH 202;C 030;KC Flock ST 100;Sanartist H-PN;Avicel 102331;RC 70PP;BiNFi-s NMa 10002;Arbocel UFC-M 8;Avicel M 101;Comprecel 105QD;Celldone 200;UFC 100;PMK 15ZS;HM 30;Avicel CF 11;Avicel PH 102SCG;10W;Solka-Floc BW 40;M 100;M 950;PH-F 20JP;G 3095-10;Celluflow C 25;HE 100000;HE 80000;Celluloflake;W 300G;BH 40 (cellulose);Vitacel L 600-20;Solucell 250;Saiccor;Borregard Derivative HV;Borregard Derivative VHV;Cellulobeads USF;HK 4897;Arbocel MF 40/10;310697-500G;BiNFi-s WMa 10005;Cellulose Neo C91;WeedGuardPlus;32000S;WJ 103;Polycell GShchS;Avicel 102330;Neo C 91;Cellulose Nanocrystal;Cellulobeads D 30;Cellulobeads D 50;Cellulobeads D 200;Arbocel MF 40/7;Arbocel MF 40-7;BiNFi-s WMa 10002;Comprecel S 101;Rheocrysta C 2SP;DP 320;Sanartist HP-G;BiNFi-s AMa 10002;BiNFi-s NFo 10002;MCC-PH 200;KU 4UAH;Endurance MCC-VE 050;CFLL;Avicel PA 200;Cellulo Beads D 50;W 100Y;Innofresh;Alpha Cel C 10SS;ZA 48;Arbocel C 320;MFC-P 0011;MFC-P 1011;PH 105;KC Flock W-GK;Snowleaf CL;MN 300HR;KMC 2010;IMa 10002;WMa 10002;BGB Natural;NatureFlex 42NP;PH 101;KC Flock W 400Y;RC-N 30;VIS TOP D 4166;Perlcellulose;FMa 10002;Avicel GP 7210;Vivapur MCG 500F;Rheocrysta I 2SP;BiNFi-s IMA 100;BiNFi-s AMA 100;SC 900;Vivapur CS 4FM;Vivapur CS 9FM;Vitacel CS 20FC;W 250;SF 107-1;Ceolus RC 591S;U 702;Lattice NT;UF 702;Vitacel MCG 0018;LCNF 45;BMa 10002;BiNFi-s IMa 10002;BiNFi-s FMa 10002;BiNFi-s BMa 10002;BioPlus L;Prime 2500;Vitacel CS 300FC;CNC-C;NK 20;NKME 20;W 200Y;Hightcel 90M;HS 10000YP2;QD 300;Sigamacell 20;KC Flock Y 400;Grinsted MCC;Kexlan CNC;Arbocel FDY 660;W 400M;C 10583;BiNFi-s FMa 10005;CA 107-4W;Arbocel P 350;BiNFi-s WMa 100;Celphere CP 507;MCC 102;Exilva;MN 301;Exilva Forte;Exilva Piano;Rheocrysta I 2SX;Exilva PBX 01V;Exilva P 01V;CNF-N 04;Golden Isles 4723;R 692;Walocel MKX 20000;PH 101NF;Jelucel HM 400X;NCM-E 300;BW 200;Perloza;MN 617;N 03;Serufia CP 102;QH 301;Ceolus CL 811;Neocel C 91;CNC;KY 100;Celish KY 100N;DP 179;KB 101;Cellulon L 27;HM 3KB;BiNFi-s WMa 10010;WMa 10010;Rheocrysta I 2AX;BiNFi-s BMa 10010;Microcel MC 103;Nanoforst S;EHM 800;Cellets 100;Celloxane;170218A;Exilva P 01L;3KB;FBCOTCNC 03;Nanoforest S;FSX 5K;HK 75000S;Handun HD 608;HD 608;HM 30/28;Exilva F 01V;NCV 100;Vivapur MCG 811;XW 591;XW 611;Avicel HP 105;DP 560;BiNFi-s WFo 100;Exilva F 01L;Vitacel L 500;KC Flock 100GK;Vitacel LC 200;Vitacel L 00;Toray Cellulose Sponge;CellfFiM C 100;KC Flock W 200Y;PH 112;PH 301;PH 103;Whatman 602H;YH 101;Arbocel 600BE/PU;BiNFi-s IMA 1005;Shanhe SH 105;SH 105;NatureFlex 42NVSW;NatureFlex CLW 42;TO-CNF 5/15;Celish GY 100G;SCN-Sorb;BiNFi-s BMA 100;CNF 4;BiNFi-s MBa;Lowa PH 101;C 6663;S 5504;BiNFi-s WFo 10010;Cuoxam DP 615;C 500 (cellulose);NatureFlex NKA;NatureFlex NMB;V 67;EMH 500;WBS 100K3;Duracle A;Arbocel P 4000;HZ-X 68K;Tego Feel Green;HG 801;874A45;UF 711;KG 1000;BiNFi-s WF 0100;HZ 58K;MN 400 (cellulose);MN 400;Alpha-Cel BH 65;XFJ 97;Techware Z 62578-0;Arbocel CE 2910HE50LV;FI 1 (cellulose);FI 1;NatureFlex NVS 23;Cellets 500;Calltice WM;MCC 200 (cellulose);MCC 200;Vivapur MCC Spheres 200;Jelucel HM 300;MCC-B;CM 24S/1;Arbalon R 50;Arbocel F 140K;BiNFi-s IMA 10005;BiNFi-s WFo 10002;Cellulon R 27;Technocel FM 8;Flocel 102;Avicel PH 105NF;Tego Feel C 10;DP 837;Rheocrysta I 2S;Technocel 90;NatureFlex 23NP;CMF 05DP;FMa-UNDP;30DS;BiNFi-s WFo 10005;Linter 512;CA-KF;Ceolus OD 20P;Ural H 70;WFo 10002;Tylose H 200000YP2;Tylose TSP 150;Cellets 127;NG 01NC0101-1000;CNF-H 2;BC 200;Arbocel CW 630PU;NITE-P 1495;Supelco-Y 0002021;Q/CYDZ 2320-2009;Rhenogran WPH 65;SH 102 (cellulose);SH 102;WSG H 300T;Avicel SMCC 90;CNF-N 03;MeSH ID: D002482;Vitacel L 600;AC 105 (cellulose);AC 105;Vitacel CS 180G;BiNFi-s FMa 10020;KCW 250;NCV 100NASD90;Vivapur CS 4;Vivapur CS 5;Vivapur CS 12;S 14009;NVC 100;Vitacel L 600-30;Nutracel 102;Compressel M 101SD;San Support P 215;KC-Flock W 400GK;PLLA 110;LBW 1245;Starcel T-NC 374;Green Chip CMF;Arbocell BC 1000;Valida S 231C;Arbocell FD 600-30;Cellulon R 25;X 930;Technocel 10;Emcocel XLM 90;Valida S 213C;Kevicel PH 102;BiNFi-s FMa 10010",
    "duplicated_cas_no": "9012-19-5;9037-50-7;9076-30-6;12656-52-9;39394-43-9;51395-76-7;58968-67-5;61991-21-7;61991-22-8;67016-75-5;67016-76-6;68073-05-2;70225-79-5;74623-16-8;75398-83-3;77907-70-1;84503-75-3;89468-66-6;99331-82-5;137261-76-8;152231-69-1;189398-86-5;196316-75-3;209533-95-9;231290-83-8;324745-49-5;358787-62-9;906542-14-1;1161712-52-2;1374408-52-2;1621420-37-8;1873279-80-1;2095812-59-0;2243384-02-1;2243384-04-3;2409008-33-7;2618568-52-6;2799647-31-5",
    "SMILES": "",
    "meta_data": {
        "InChI": "",
        "InChIKey": null,
        "Canonical SMILES": "",
        "Molecular Formula": "Unspecified",
        "Molecular Mass": "",
        "Melting Point": "76-78 °C",
        "Density": "1.04 g/cm³ @ Temp: 20 °C"
    }
}