{
    "cas_no": "4096-20-2",
    "key_name": "<em>N</em>-Phenylpiperidine",
    "cn_name": "N-苯基哌啶;1-苯基哌啶;N-苯基六氢吡啶;",
    "alternate_name": "Piperidine, 1-phenyl-;1-Phenylpiperidine;<em>N</em>-Phenylpiperidine;NSC 53427",
    "duplicated_cas_no": "1842427-59-1",
    "SMILES": "C1(=CC=CC=C1)N2CCCCC2",
    "meta_data": {
        "InChI": "InChI=1S/C11H15N/c1-3-7-11(8-4-1)12-9-5-2-6-10-12/h1,3-4,7-8H,2,5-6,9-10H2",
        "InChIKey": null,
        "Canonical SMILES": "C=1C=CC(=CC1)N2CCCCC2",
        "Molecular Formula": "C<sub>11</sub>H<sub>15</sub>N",
        "Molecular Mass": "161.24",
        "Boiling Point": "258 °C",
        "Melting Point": "4.7 °C"
    }
}