{
    "cas_no": "67306-00-7",
    "key_name": "Fenpropidin",
    "cn_name": "苯锈啶;1-(3-(4-特丁基苯基)-2-甲基丙基)哌啶;",
    "alternate_name": "Piperidine, 1-[3-[4-(1,1-dimethylethyl)phenyl]-2-methylpropyl]-;1-[3-[4-(1,1-Dimethylethyl)phenyl]-2-methylpropyl]piperidine;Fenpropidine;Fenpropidin;F 3240;Patrol;Mildin",
    "duplicated_cas_no": "",
    "SMILES": "C(C(CN1CCCCC1)C)C2=CC=C(C(C)(C)C)C=C2",
    "meta_data": {
        "InChI": "InChI=1S/C19H31N/c1-16(15-20-12-6-5-7-13-20)14-17-8-10-18(11-9-17)19(2,3)4/h8-11,16H,5-7,12-15H2,1-4H3",
        "InChIKey": null,
        "Canonical SMILES": "C=1C=C(C=CC1CC(C)CN2CCCCC2)C(C)(C)C",
        "Molecular Formula": "C<sub>19</sub>H<sub>31</sub>N",
        "Molecular Mass": "273.46",
        "Boiling Point": "&gt;250 °C",
        "Melting Point": "&lt;25 °C"
    }
}