{
    "cas_no": "3106-85-2",
    "key_name": "<em>N</em>-Acetylaspartylglutamic acid",
    "cn_name": "异冬谷酸;",
    "alternate_name": "<span class=\"text-smallcaps\">L</smallcap>-Glutamic acid, <em>N</em>-acetyl-<smallcap>L</span>-α-aspartyl-;<span class=\"text-smallcaps\">L</smallcap>-Glutamic acid, <em>N</em>-(<em>N</em>-acetyl-<smallcap>L</span>-α-aspartyl)-;Glutamic acid, <em>N</em>-(<em>N</em>-acetyl-<span class=\"text-smallcaps\">L</smallcap>-aspartyl)-, <smallcap>L</span>-;<em>N</em>-Acetyl-<span class=\"text-smallcaps\">L</smallcap>-α-aspartyl-<smallcap>L</span>-glutamic acid;<em>N</em>-Acetyl-α-aspartylglutamic acid;<em>N</em>-Acetylaspartylglutamic acid;<em>N</em>-Acetyl-α-<span class=\"text-smallcaps\">L</smallcap>-aspartyl-<smallcap>L</span>-glutamic acid;Isospaglumic acid;Acetyl-α-<span class=\"text-smallcaps\">L</span>-aspartylglutamic acid;<em>N</em>-(<em>N</em>-Acetylaspartyl)glutamic acid;α-Spaglumic acid;<em>N</em>-Acetyl-<span class=\"text-smallcaps\">L</smallcap>-aspartyl-<smallcap>L</span>-glutamic acid;NAAG",
    "duplicated_cas_no": "3220-76-6",
    "SMILES": "[C@@H](C(N[C@@H](CCC(O)=O)C(O)=O)=O)(CC(O)=O)NC(C)=O",
    "meta_data": {
        "InChI": "InChI=1S/C11H16N2O8/c1-5(14)12-7(4-9(17)18)10(19)13-6(11(20)21)2-3-8(15)16/h6-7H,2-4H2,1H3,(H,12,14)(H,13,19)(H,15,16)(H,17,18)(H,20,21)/t6-,7-/m0/s1",
        "InChIKey": null,
        "Canonical SMILES": "O=C(O)CCC(NC(=O)C(NC(=O)C)CC(=O)O)C(=O)O",
        "Molecular Formula": "C<sub>11</sub>H<sub>16</sub>N<sub>2</sub>O<sub>8</sub>",
        "Molecular Mass": "304.25",
        "Melting Point": "171-173 °C"
    }
}