{
    "cas_no": "535-83-1",
    "key_name": "Trigonelline",
    "cn_name": null,
    "alternate_name": "Pyridinium, 3-carboxy-1-methyl-, inner salt;Pyridinium, 3-carboxy-1-methyl-, hydroxide, inner salt;Betaine nicotinate;Caffearine;Coffearine;Gynesine;Trigenolline;Trigonelline;Coffearin;<em>N</em>-Methylnicotinic acid;<em>N</em>-Methylnicotinate;1-Methylpyridin-1-ium-3-carboxylate",
    "duplicated_cas_no": "",
    "SMILES": "C([O-])(=O)C1=C[N+](C)=CC=C1",
    "meta_data": {
        "InChI": "InChI=1S/C7H7NO2/c1-8-4-2-3-6(5-8)7(9)10/h2-5H,1H3",
        "InChIKey": null,
        "Canonical SMILES": "O=C([O-])C1=CC=C[N+](=C1)C",
        "Molecular Formula": "C<sub>7</sub>H<sub>7</sub>NO<sub>2</sub>",
        "Molecular Mass": "",
        "Melting Point": "234-236 °C"
    }
}