{
    "cas_no": "1636-27-7",
    "key_name": "Dipropylmalonic acid",
    "cn_name": "二丙基丙二酸;",
    "alternate_name": "Propanedioic acid, 2,2-dipropyl-;Malonic acid, dipropyl-;Propanedioic acid, dipropyl-;2,2-Dipropylpropanedioic acid;4,4-Heptanedicarboxylic acid;Dipropylmalonic acid;NSC 62680;2,2′-Dipropylmalonic acid;2,2-Di-<em>n</em>-propylmalonic acid;2,2-Dipropylmalonic acid",
    "duplicated_cas_no": "",
    "SMILES": "C(CCC)(CCC)(C(O)=O)C(O)=O",
    "meta_data": {
        "InChI": "InChI=1S/C9H16O4/c1-3-5-9(6-4-2,7(10)11)8(12)13/h3-6H2,1-2H3,(H,10,11)(H,12,13)",
        "InChIKey": null,
        "Canonical SMILES": "O=C(O)C(C(=O)O)(CCC)CCC",
        "Molecular Formula": "C<sub>9</sub>H<sub>16</sub>O<sub>4</sub>",
        "Molecular Mass": "188.22",
        "Melting Point": "159 °C"
    }
}