{
    "cas_no": "112-30-1",
    "key_name": "1-Decanol",
    "cn_name": "1-癸醇;癸烷-1-醇;正癸醇;癸醇;壬基甲醇;",
    "alternate_name": "1-Decanol;Decyl alcohol;Capric alcohol;Caprinic alcohol;<em>n</em>-Decyl alcohol;Nonylcarbinol;Sipol L 10;Alfol 10;T 148;n-Decanol;Decanol;Antak;Epal 10;1-Hydroxydecane;Royaltac;Kalcohl 10H;Conol 10N;Nacol 10-99;Kalcohl 1098;Nacol 10;Nafol 10;NSC 406313;Kalcol 1098;Nafol 10D;Kalcohl 10;Conol 1098;Lorol C 10-98;Capryl alcohol;Lorol C 10",
    "duplicated_cas_no": "",
    "SMILES": "C(CCCCC)CCCCO",
    "meta_data": {
        "InChI": "InChI=1S/C10H22O/c1-2-3-4-5-6-7-8-9-10-11/h11H,2-10H2,1H3",
        "InChIKey": null,
        "Canonical SMILES": "OCCCCCCCCCC",
        "Molecular Formula": "C<sub>10</sub>H<sub>22</sub>O",
        "Molecular Mass": "158.28",
        "Boiling Point": "232.9 °C @ Press: 760 Torr",
        "Melting Point": "6.4 °C",
        "Density": "0.8297 g/cm³ @ Temp: 20 °C"
    }
}