{
    "cas_no": "51-71-8",
    "key_name": "Phenelzine",
    "cn_name": "苯乙肼;",
    "alternate_name": "Hydrazine, (2-phenylethyl)-;Hydrazine, phenethyl-;(2-Phenylethyl)hydrazine;1-Hydrazino-2-phenylethane;Phenelzine;Phenethylhydrazine;β-Phenylethylhydrazine;Phenylethylhydrazine;W 1544;1-(2-Phenylethyl)hydrazine;1-(2-Phenethyl)hydrazine;Phenalzine;<em>N</em>-Phenethylhydrazine;Phenylzine;MeSH ID: D010624",
    "duplicated_cas_no": "",
    "SMILES": "C(CNN)C1=CC=CC=C1",
    "meta_data": {
        "InChI": "InChI=1S/C8H12N2/c9-10-7-6-8-4-2-1-3-5-8/h1-5,10H,6-7,9H2",
        "InChIKey": null,
        "Canonical SMILES": "NNCCC=1C=CC=CC1",
        "Molecular Formula": "C<sub>8</sub>H<sub>12</sub>N<sub>2</sub>",
        "Molecular Mass": "136.19",
        "Boiling Point": "74 °C",
        "Melting Point": "&lt;25 °C",
        "Density": "1.0161 g/cm³ @ Temp: 20 °C"
    }
}