{
    "cas_no": "78790-88-2",
    "key_name": "3-Ethoxy-4-pyridinecarboxylic acid",
    "cn_name": null,
    "alternate_name": "4-Pyridinecarboxylic acid, 3-ethoxy-;3-Ethoxy-4-pyridinecarboxylic acid;3-Ethoxyisonicotinic acid",
    "duplicated_cas_no": "",
    "SMILES": "C(O)(=O)C=1C(OCC)=CN=CC1",
    "meta_data": {
        "InChI": "InChI=1S/C8H9NO3/c1-2-12-7-5-9-4-3-6(7)8(10)11/h3-5H,2H2,1H3,(H,10,11)",
        "InChIKey": null,
        "Canonical SMILES": "O=C(O)C=1C=CN=CC1OCC",
        "Molecular Formula": "C<sub>8</sub>H<sub>9</sub>NO<sub>3</sub>",
        "Molecular Mass": "167.16",
        "Melting Point": "141-144 °C"
    }
}