{
    "cas_no": "22398-09-0",
    "key_name": "4-Propylpiperidine",
    "cn_name": "4-正丙基哌啶;4-正-丙基哌啶；Piperidine, 4-propyl-;4-Propylpiperidine;",
    "alternate_name": "Piperidine, 4-propyl-;4-Propylpiperidine;4-<em>n</em>-Propylpiperidine;NSC 24355",
    "duplicated_cas_no": "",
    "SMILES": "C(CC)C1CCNCC1",
    "meta_data": {
        "InChI": "InChI=1S/C8H17N/c1-2-3-8-4-6-9-7-5-8/h8-9H,2-7H2,1H3",
        "InChIKey": null,
        "Canonical SMILES": "N1CCC(CC1)CCC",
        "Molecular Formula": "C<sub>8</sub>H<sub>17</sub>N",
        "Molecular Mass": "127.23",
        "Boiling Point": "173 °C",
        "Density": "0.864 g/cm³ @ Temp: 23 °C"
    }
}