{
    "cas_no": "4198-33-8",
    "key_name": "(2<em>S</em>)-2-Chlorobutanedioic acid",
    "cn_name": "L-2-氯丁二酸;",
    "alternate_name": "Butanedioic acid, 2-chloro-, (2<em>S</em>)-;Succinic acid, chloro-, (<em>S</em>)-;Butanedioic acid, chloro-, (<em>S</em>)-;Butanedioic acid, chloro-, (2<em>S</em>)-;(2<em>S</em>)-2-Chlorobutanedioic acid;<span class=\"text-smallcaps\">L</span>-Chlorosuccinic acid;(<em>S</em>)-Chlorosuccinic acid;(-)-Chlorosuccinic acid;(2S)-2-Chlorobutanedioic acid",
    "duplicated_cas_no": "27834-47-5",
    "SMILES": "[C@H](CC(O)=O)(C(O)=O)Cl",
    "meta_data": {
        "InChI": "InChI=1S/C4H5ClO4/c5-2(4(8)9)1-3(6)7/h2H,1H2,(H,6,7)(H,8,9)/t2-/m0/s1",
        "InChIKey": null,
        "Canonical SMILES": "O=C(O)CC(Cl)C(=O)O",
        "Molecular Formula": "C<sub>4</sub>H<sub>5</sub>ClO<sub>4</sub>",
        "Molecular Mass": "152.53",
        "Melting Point": "175 °C"
    }
}