{
    "cas_no": "295-37-4",
    "key_name": "1,4,8,11-Tetraazacyclotetradecane",
    "cn_name": "1,4,8,11-四氮环十四烷;1,4,8,11-四氮杂环十四烷;1,4,8,11-四氮环十四烷;1,4,8,11-四氮环十四烷, 98+%;1,4,;",
    "alternate_name": "1,4,8,11-Tetraazacyclotetradecane;Cyclam;JM 1498;NSC 180811",
    "duplicated_cas_no": "",
    "SMILES": "C1CNCCNCCCNCCNC1",
    "meta_data": {
        "InChI": "InChI=1S/C10H24N4/c1-3-11-7-9-13-5-2-6-14-10-8-12-4-1/h11-14H,1-10H2",
        "InChIKey": null,
        "Canonical SMILES": "N1CCNCCCNCCNCCC1",
        "Molecular Formula": "C<sub>10</sub>H<sub>24</sub>N<sub>4</sub>",
        "Molecular Mass": "200.32",
        "Melting Point": "173 °C"
    }
}