{
    "cas_no": "775-16-6",
    "key_name": "1-(Phenylmethyl)-3-pyrrolidinone",
    "cn_name": "1-苄基-3-吡咯烷酮;N-苄基-3-吡咯烷酮;",
    "alternate_name": "3-Pyrrolidinone, 1-(phenylmethyl)-;3-Pyrrolidinone, 1-benzyl-;1-(Phenylmethyl)-3-pyrrolidinone;1-Benzyl-3-pyrrolidinone;1-Benzyl-3-pyrrolidone;<em>N</em>-Benzyl-3-pyrrolidinone",
    "duplicated_cas_no": "",
    "SMILES": "C(N1CCC(=O)C1)C2=CC=CC=C2",
    "meta_data": {
        "InChI": "InChI=1S/C11H13NO/c13-11-6-7-12(9-11)8-10-4-2-1-3-5-10/h1-5H,6-9H2",
        "InChIKey": null,
        "Canonical SMILES": "O=C1CN(CC=2C=CC=CC2)CC1",
        "Molecular Formula": "C<sub>11</sub>H<sub>13</sub>NO",
        "Molecular Mass": "175.23",
        "Boiling Point": "109 °C @ Press: 1.1 Torr"
    }
}