{
    "cas_no": "18109-81-4",
    "key_name": "Butamirate citrate",
    "cn_name": "枸橼酸布他米酯;",
    "alternate_name": "Benzeneacetic acid, α-ethyl-, 2-[2-(diethylamino)ethoxy]ethyl ester, 2-hydroxy-1,2,3-propanetricarboxylate (1:1);Butyric acid, 2-phenyl-, 2-[2-(diethylamino)ethoxy]ethyl ester, citrate (1:1);Ethanol, 2-[2-(diethylamino)ethoxy]-, 2-phenylbutyrate (ester), citrate (1:1);HH 197;Butamirate citrate;2-[2-(Diethylamino)ethoxy]ethyl-2-phenylbutyrate citrate (1:1);Abbott 36581;Acodeen;Sincodeen;Sincodin;Sincodix;Sinecod;Sinecond;Panatus;Cough Cut;2-(2-(Diethylamino)ethoxy)ethyl 2-phenylbutanoate 2-hydroxypropane-1,2,3-tricarboxylate",
    "duplicated_cas_no": "",
    "SMILES": "C(C(OCCOCCN(CC)CC)=O)(CC)C1=CC=CC=C1.C(CC(O)=O)(CC(O)=O)(C(O)=O)O",
    "meta_data": {
        "InChI": "InChI=1S/C18H29NO3.C6H8O7/c1-4-17(16-10-8-7-9-11-16)18(20)22-15-14-21-13-12-19(5-2)6-3;7-3(8)1-6(13,5(11)12)2-4(9)10/h7-11,17H,4-6,12-15H2,1-3H3;13H,1-2H2,(H,7,8)(H,9,10)(H,11,12)",
        "InChIKey": null,
        "Canonical SMILES": "O=C(O)CC(O)(C(=O)O)CC(=O)O.O=C(OCCOCCN(CC)CC)C(C=1C=CC=CC1)CC",
        "Molecular Formula": "C<sub>18</sub>H<sub>29</sub>NO<sub>3</sub>.C<sub>6</sub>H<sub>8</sub>O<sub>7</sub>",
        "Molecular Mass": "",
        "Melting Point": "75 °C"
    }
}