{
    "cas_no": "73043-80-8",
    "key_name": "1-Methyl-7-nitroisatoic anhydride",
    "cn_name": null,
    "alternate_name": "2<em>H</em>-3,1-Benzoxazine-2,4(1<em>H</em>)-dione, 1-methyl-7-nitro-;1-Methyl-7-nitro-2<em>H</em>-3,1-benzoxazine-2,4(1<em>H</em>)-dione;1-Methyl-7-nitroisatoic anhydride;1-Methyl-7-nitro-3,1-benzoxazine-2,4-dione",
    "duplicated_cas_no": "",
    "SMILES": "CN1C=2C(C(=O)OC1=O)=CC=C(N(=O)=O)C2",
    "meta_data": {
        "InChI": "InChI=1S/C9H6N2O5/c1-10-7-4-5(11(14)15)2-3-6(7)8(12)16-9(10)13/h2-4H,1H3",
        "InChIKey": null,
        "Canonical SMILES": "O=C1OC(=O)N(C2=CC(=CC=C12)N(=O)=O)C",
        "Molecular Formula": "C<sub>9</sub>H<sub>6</sub>N<sub>2</sub>O<sub>5</sub>",
        "Molecular Mass": "222.15",
        "Melting Point": "203-206 °C"
    }
}