{
    "cas_no": "74654-07-2",
    "key_name": "2-[2-(2-Methoxyethoxy)ethoxy]ethanamine",
    "cn_name": null,
    "alternate_name": "Ethanamine, 2-[2-(2-methoxyethoxy)ethoxy]-;Ethylamine, 2-[2-(2-methoxyethoxy)ethoxy]-;2-[2-(2-Methoxyethoxy)ethoxy]ethanamine;3,6,9-Trioxa-1-aminodecane;2-[2-(2-Methoxyethoxy)ethoxy]ethylamine;Tri(ethylene glycol) methyl ether amine;1-[2-(2-Aminoethoxy)ethoxy]-2-methoxyethane;2-(2-(2-Methoxyethoxy)ethoxy)ethan-1-amine",
    "duplicated_cas_no": "",
    "SMILES": "C(COCCN)OCCOC",
    "meta_data": {
        "InChI": "InChI=1S/C7H17NO3/c1-9-4-5-11-7-6-10-3-2-8/h2-8H2,1H3",
        "InChIKey": null,
        "Canonical SMILES": "O(C)CCOCCOCCN",
        "Molecular Formula": "C<sub>7</sub>H<sub>17</sub>NO<sub>3</sub>",
        "Molecular Mass": "163.21",
        "Boiling Point": "106 °C @ Press: 11 Torr"
    }
}