{
    "cas_no": "29767-20-2",
    "key_name": "Teniposide",
    "cn_name": "替尼泊甙;4\"-去甲基表鬼臼毒素-beta-D-噻吩亚甲基吡喃葡萄糖甙;",
    "alternate_name": "Furo[3′,4′:6,7]naphtho[2,3-<em>d</em>]-1,3-dioxol-6(5a<em>H</em>)-one, 5,8,8a,9-tetrahydro-5-(4-hydroxy-3,5-dimethoxyphenyl)-9-[[4,6-<em>O</em>-[(<em>R</em>)-2-thienylmethylene]-β-<span class=\"text-smallcaps\">D</span>-glucopyranosyl]oxy]-, (5<em>R</em>,5a<em>R</em>,8a<em>R</em>,9<em>S</em>)-;Epipodophyllotoxin, 4′-demethyl-, 9-(4,6-<em>O</em>-2-thenylidene-β-<span class=\"text-smallcaps\">D</span>-glucopyranoside);Furo[3′,4′:6,7]naphtho[2,3-<em>d</em>]-1,3-dioxol-6(5a<em>H</em>)-one, 5,8,8a,9-tetrahydro-5-(4-hydroxy-3,5-dimethoxyphenyl)-9-[[4,6-<em>O</em>-(2-thienylmethylene)-β-<span class=\"text-smallcaps\">D</span>-glucopyranosyl]oxy]-, [5<em>R</em>-[5α,5aβ,8aα,9β(<em>R</em>*)]]-;Pyrano[3,2-<em>d</em>]-1,3-dioxin, furo[3′,4′:6,7]naphtho[2,3-<em>d</em>]-1,3-dioxol-6(5a<em>H</em>)-one deriv.;(5<em>R</em>,5a<em>R</em>,8a<em>R</em>,9<em>S</em>)-5,8,8a,9-Tetrahydro-5-(4-hydroxy-3,5-dimethoxyphenyl)-9-[[4,6-<em>O</em>-[(<em>R</em>)-2-thienylmethylene]-β-<span class=\"text-smallcaps\">D</span>-glucopyranosyl]oxy]furo[3′,4′:6,7]naphtho[2,3-<em>d</em>]-1,3-dioxol-6(5a<em>H</em>)-one;VM 26;Teniposide;NSC 122819;EPT;Vehem;Vumon;Vehem-Sandoz;S 122819;Tenoposide;MeSH ID: D013713",
    "duplicated_cas_no": "23362-13-2;31514-29-1;35317-44-3;952055-45-7",
    "SMILES": "O=C1[C@@]2([C@@H](C=3C([C@@H](O[C@@H]4O[C@]5([C@]([C@H](O)[C@H]4O)(O[C@@H](OC5)C6=CC=CS6)[H])[H])[C@]2(CO1)[H])=CC7=C(C3)OCO7)C8=CC(OC)=C(O)C(OC)=C8)[H]",
    "meta_data": {
        "InChI": "InChI=1S/C32H32O13S/c1-37-19-6-13(7-20(38-2)25(19)33)23-14-8-17-18(42-12-41-17)9-15(14)28(16-10-39-30(36)24(16)23)44-32-27(35)26(34)29-21(43-32)11-40-31(45-29)22-4-3-5-46-22/h3-9,16,21,23-24,26-29,31-35H,10-12H2,1-2H3/t16-,21+,23+,24-,26+,27+,28+,29+,31+,32-/m0/s1",
        "InChIKey": null,
        "Canonical SMILES": "O=C1OCC2C(OC3OC4COC(OC4C(O)C3O)C=5SC=CC5)C6=CC=7OCOC7C=C6C(C8=CC(OC)=C(O)C(OC)=C8)C12",
        "Molecular Formula": "C<sub>32</sub>H<sub>32</sub>O<sub>13</sub>S",
        "Molecular Mass": "656.65",
        "Melting Point": "242-246 °C"
    }
}