{
    "cas_no": "338-84-1",
    "key_name": "Perfluorotripentylamine",
    "cn_name": "全氟三戊胺;",
    "alternate_name": "1-Pentanamine, 1,1,2,2,3,3,4,4,5,5,5-undecafluoro-<em>N</em>,<em>N</em>-bis(1,1,2,2,3,3,4,4,5,5,5-undecafluoropentyl)-;1-Pentanamine, 1,1,2,2,3,3,4,4,5,5,5-undecafluoro-<em>N</em>,<em>N</em>-bis(undecafluoropentyl)-;1,1,2,2,3,3,4,4,5,5,5-Undecafluoro-<em>N</em>,<em>N</em>-bis(1,1,2,2,3,3,4,4,5,5,5-undecafluoropentyl)-1-pentanamine;Perfluorotriamylamine;Fluorinert FC 70;FC 70;Perfluorotripentylamine;Eftop L 215;Tri(perfluoropentyl)amine;Eftop EF-L 215;Perfluord IL 310;Tris(perfluoropentyl)amine;3M FC 70",
    "duplicated_cas_no": "72433-08-0",
    "SMILES": "N(C(C(C(C(C(F)(F)F)(F)F)(F)F)(F)F)(F)F)(C(C(C(C(C(F)(F)F)(F)F)(F)F)(F)F)(F)F)C(C(C(C(C(F)(F)F)(F)F)(F)F)(F)F)(F)F",
    "meta_data": {
        "InChI": "InChI=1S/C15F33N/c16-1(17,4(22,23)10(34,35)36)7(28,29)13(43,44)49(14(45,46)8(30,31)2(18,19)5(24,25)11(37,38)39)15(47,48)9(32,33)3(20,21)6(26,27)12(40,41)42",
        "InChIKey": null,
        "Canonical SMILES": "FC(F)(F)C(F)(F)C(F)(F)C(F)(F)C(F)(F)N(C(F)(F)C(F)(F)C(F)(F)C(F)(F)C(F)(F)F)C(F)(F)C(F)(F)C(F)(F)C(F)(F)C(F)(F)F",
        "Molecular Formula": "C<sub>15</sub>F<sub>33</sub>N",
        "Molecular Mass": "821.11",
        "Boiling Point": "215-216.5 °C",
        "Density": "1.923 g/cm³ @ Temp: 425 °C"
    }
}