{
    "cas_no": "1074-76-6",
    "key_name": "2,4-Dimethyl-3-nitropyridine",
    "cn_name": "2,4-二甲基-3-硝基吡啶;",
    "alternate_name": "Pyridine, 2,4-dimethyl-3-nitro-;2,4-Lutidine, 3-nitro-;2,4-Dimethyl-3-nitropyridine;3-Nitro-2,4-dimethylpyridine",
    "duplicated_cas_no": "",
    "SMILES": "N(=O)(=O)C=1C(C)=CC=NC1C",
    "meta_data": {
        "InChI": "InChI=1S/C7H8N2O2/c1-5-3-4-8-6(2)7(5)9(10)11/h3-4H,1-2H3",
        "InChIKey": null,
        "Canonical SMILES": "O=N(=O)C=1C(=NC=CC1C)C",
        "Molecular Formula": "C<sub>7</sub>H<sub>8</sub>N<sub>2</sub>O<sub>2</sub>",
        "Molecular Mass": "152.15",
        "Boiling Point": "118-123 °C @ Press: 12 Torr",
        "Melting Point": "9.5 °C"
    }
}