{
    "cas_no": "146100-02-9",
    "key_name": "Macranthoside B",
    "cn_name": null,
    "alternate_name": "Olean-12-en-28-oic acid, 3-[(<em>O</em>-β-<span class=\"text-smallcaps\">D</smallcap>-glucopyranosyl-(1→4)-<em>O</em>-β-<smallcap>D</smallcap>-glucopyranosyl-(1→3)-<em>O</em>-6-deoxy-α-<smallcap>L</smallcap>-mannopyranosyl-(1→2)-α-<smallcap>L</span>-arabinopyranosyl)oxy]-23-hydroxy-, (3β,4α)-;(3β,4α)-3-[(<em>O</em>-β-<span class=\"text-smallcaps\">D</smallcap>-Glucopyranosyl-(1→4)-<em>O</em>-β-<smallcap>D</smallcap>-glucopyranosyl-(1→3)-<em>O</em>-6-deoxy-α-<smallcap>L</smallcap>-mannopyranosyl-(1→2)-α-<smallcap>L</span>-arabinopyranosyl)oxy]-23-hydroxyolean-12-en-28-oic acid;Macranthoside B;Hederagenin 3-<em>O</em>-β-<span class=\"text-smallcaps\">D</smallcap>-glucopyranosyl-(1→4)-β-<smallcap>D</smallcap>-glucopyranosyl-(1→3)-α-<smallcap>L</smallcap>-rhamnopyranosyl-(1→2)-α-<smallcap>L</span>-arabinopyranoside",
    "duplicated_cas_no": "",
    "SMILES": "C[C@]12C([C@]3([C@@](C(O)=O)(CC1)CCC(C)(C)C3)[H])=CC[C@]4([C@@]2(C)CC[C@@]5([C@]4(C)CC[C@H](O[C@H]6[C@H](O[C@H]7[C@H](O)[C@H](O[C@@H]8O[C@H](CO)[C@@H](O[C@@H]9O[C@H](CO)[C@@H](O)[C@H](O)[C@H]9O)[C@H](O)[C@H]8O)[C@@H](O)[C@H](C)O7)[C@@H](O)[C@@H](O)CO6)[C@]5(CO)C)[H])[H]",
    "meta_data": {
        "InChI": "InChI=1S/C53H86O22/c1-23-32(58)41(74-44-38(64)36(62)40(28(20-55)71-44)73-43-37(63)35(61)34(60)27(19-54)70-43)39(65)45(69-23)75-42-33(59)26(57)21-68-46(42)72-31-11-12-49(4)29(50(31,5)22-56)10-13-52(7)30(49)9-8-24-25-18-48(2,3)14-16-53(25,47(66)67)17-15-51(24,52)6/h8,23,25-46,54-65H,9-22H2,1-7H3,(H,66,67)/t23-,25-,26-,27+,28+,29+,30+,31-,32-,33-,34+,35-,36+,37+,38+,39+,40+,41+,42+,43-,44-,45-,46-,49-,50-,51+,52+,53-/m0/s1",
        "InChIKey": null,
        "Canonical SMILES": "O=C(O)C12CCC(C)(C)CC2C3=CCC4C5(C)CCC(OC6OCC(O)C(O)C6OC7OC(C)C(O)C(OC8OC(CO)C(OC9OC(CO)C(O)C(O)C9O)C(O)C8O)C7O)C(C)(CO)C5CCC4(C)C3(C)CC1",
        "Molecular Formula": "C<sub>53</sub>H<sub>86</sub>O<sub>22</sub>",
        "Molecular Mass": "1075.24",
        "Melting Point": "260-262 °C"
    }
}