{
    "cas_no": "31722-49-3",
    "key_name": "1<em>H</em>-Imidazole-2-carbonitrile",
    "cn_name": null,
    "alternate_name": "1<em>H</em>-Imidazole-2-carbonitrile;Imidazole-2-carbonitrile;2-Cyanoimidazole;2CNZ;2-Cyano-1<em>H</em>-imidazole",
    "duplicated_cas_no": "",
    "SMILES": "C(#N)C=1NC=CN1",
    "meta_data": {
        "InChI": "InChI=1S/C4H3N3/c5-3-4-6-1-2-7-4/h1-2H,(H,6,7)",
        "InChIKey": null,
        "Canonical SMILES": "N#CC1=NC=CN1",
        "Molecular Formula": "C<sub>4</sub>H<sub>3</sub>N<sub>3</sub>",
        "Molecular Mass": "93.09",
        "Melting Point": "176-177 °C"
    }
}