{
    "cas_no": "19444-84-9",
    "key_name": "α-Hydroxy-γ-butyrolactone",
    "cn_name": "2-羟基-丁酸酮;",
    "alternate_name": "2(3<em>H</em>)-Furanone, dihydro-3-hydroxy-;Butyric acid, 2,4-dihydroxy-, γ-lactone;Dihydro-3-hydroxy-2(3<em>H</em>)-furanone;α-Hydroxy-γ-butyrolactone;2,4-Dihydroxybutyric acid γ-lactone;2-Hydroxybutyrolactone;2,4-Dihydroxybutanoic acid γ-lactone;2-Hydroxy-4-butanolide;3-Hydroxydihydrofuran-2-one;3-Hydroxydihydrofuran-2(3<em>H</em>)-one;3-Hydroxyoxolan-2-one;2-Hydroxy-γ-butyrolactone;2-Oxotetrahydrofuran-3-ol;3-Hydroxytetrahydrofuran-2-one",
    "duplicated_cas_no": "112709-14-5",
    "SMILES": "OC1C(=O)OCC1",
    "meta_data": {
        "InChI": "InChI=1S/C4H6O3/c5-3-1-2-7-4(3)6/h3,5H,1-2H2",
        "InChIKey": null,
        "Canonical SMILES": "O=C1OCCC1O",
        "Molecular Formula": "C<sub>4</sub>H<sub>6</sub>O<sub>3</sub>",
        "Molecular Mass": "102.09",
        "Boiling Point": "107-111 °C @ Press: 6 Torr"
    }
}