{
    "cas_no": "7779-77-3",
    "key_name": "Isobutyl anthranilate",
    "cn_name": "2-氨基苯甲酸异丁酯;2-氨基苯甲酸-2-甲基丙酯;",
    "alternate_name": "Benzoic acid, 2-amino-, 2-methylpropyl ester;Anthranilic acid, isobutyl ester;Isobutyl anthranilate;Isobutyl <em>o</em>-aminobenzoate;2-Methylpropyl 2-aminobenzoate",
    "duplicated_cas_no": "",
    "SMILES": "C(OCC(C)C)(=O)C1=C(N)C=CC=C1",
    "meta_data": {
        "InChI": "InChI=1S/C11H15NO2/c1-8(2)7-14-11(13)9-5-3-4-6-10(9)12/h3-6,8H,7,12H2,1-2H3",
        "InChIKey": null,
        "Canonical SMILES": "O=C(OCC(C)C)C=1C=CC=CC1N",
        "Molecular Formula": "C<sub>11</sub>H<sub>15</sub>NO<sub>2</sub>",
        "Molecular Mass": "193.24",
        "Melting Point": "135-137 °C"
    }
}