{
    "cas_no": "2483-49-0",
    "key_name": "<em>N</em>-[(1,1-Dimethylethoxy)carbonyl]-<span class=\"text-smallcaps\">L</span>-alanine 4-nitrophenyl ester",
    "cn_name": null,
    "alternate_name": "<span class=\"text-smallcaps\">L</span>-Alanine, <em>N</em>-[(1,1-dimethylethoxy)carbonyl]-, 4-nitrophenyl ester;Alanine, <em>N</em>-carboxy-, <em>N</em>-<em>tert</em>-butyl <em>p</em>-nitrophenyl ester, <span class=\"text-smallcaps\">L</span>-;Alanine, <em>N</em>-carboxy-, <em>N</em>-<em>tert</em>-butyl <em>p</em>-nitrophenyl ester;<em>N</em>-[(1,1-Dimethylethoxy)carbonyl]-<span class=\"text-smallcaps\">L</span>-alanine 4-nitrophenyl ester;<em>p</em>-Nitrophenyl <em>tert</em>-butoxycarbonyl-<span class=\"text-smallcaps\">L</span>-alaninate;<em>p</em>-Nitrophenyl <em>N</em>-<em>tert</em>-butoxycarbonyl-<span class=\"text-smallcaps\">L</span>-alaninate;<em>N</em>-(<em>tert</em>-Butyloxycarbonyl)-<span class=\"text-smallcaps\">L</span>-alanine <em>p</em>-nitrophenyl ester;<em>p</em>-Nitrophenyl <em>N</em>-<em>tert</em>-butyloxycarbonyl-<span class=\"text-smallcaps\">L</span>-alaninate;<em>tert</em>-Butyloxycarbonyl-<span class=\"text-smallcaps\">L</span>-alanine <em>p</em>-nitrophenyl ester;<em>N</em>-<em>tert</em>-Butoxycarbonyl-<span class=\"text-smallcaps\">L</span>-alanine <em>p</em>-nitrophenyl ester;BOC-<span class=\"text-smallcaps\">L</span>-Alanine <em>p</em>-nitrophenyl ester;(4-Nitrophenyl) (2S)-2-[(2-methylpropan-2-yl)oxycarbonylamino]propanoate",
    "duplicated_cas_no": "51537-66-7",
    "SMILES": "O(C([C@@H](NC(OC(C)(C)C)=O)C)=O)C1=CC=C(N(=O)=O)C=C1",
    "meta_data": {
        "InChI": "InChI=1S/C14H18N2O6/c1-9(15-13(18)22-14(2,3)4)12(17)21-11-7-5-10(6-8-11)16(19)20/h5-9H,1-4H3,(H,15,18)/t9-/m0/s1",
        "InChIKey": null,
        "Canonical SMILES": "O=C(OC(C)(C)C)NC(C(=O)OC1=CC=C(C=C1)N(=O)=O)C",
        "Molecular Formula": "C<sub>14</sub>H<sub>18</sub>N<sub>2</sub>O<sub>6</sub>",
        "Molecular Mass": "310.30",
        "Melting Point": "78 °C"
    }
}