{
    "cas_no": "89415-87-2",
    "key_name": "1,3-Dichloro-5-ethyl-5-methylhydantoin",
    "cn_name": "1,3-二氯-5-甲基-5-乙基海因;",
    "alternate_name": "2,4-Imidazolidinedione, 1,3-dichloro-5-ethyl-5-methyl-;Hydantoin, 1,3-dichloro-5-ethyl-5-methyl-;1,3-Dichloro-5-ethyl-5-methyl-2,4-imidazolidinedione;1,3-Dichloro-5-ethyl-5-methylhydantoin;DCMEH",
    "duplicated_cas_no": "",
    "SMILES": "C(C)C1(C)C(=O)N(Cl)C(=O)N1Cl",
    "meta_data": {
        "InChI": "InChI=1S/C6H8Cl2N2O2/c1-3-6(2)4(11)9(7)5(12)10(6)8/h3H2,1-2H3",
        "InChIKey": null,
        "Canonical SMILES": "O=C1N(Cl)C(=O)C(N1Cl)(C)CC",
        "Molecular Formula": "C<sub>6</sub>H<sub>8</sub>Cl<sub>2</sub>N<sub>2</sub>O<sub>2</sub>",
        "Molecular Mass": "211.05",
        "Melting Point": "61-63 °C"
    }
}