{
    "cas_no": "214-17-5",
    "key_name": "Benzo[<em>b</em>]chrysene",
    "cn_name": null,
    "alternate_name": "Benzo[<em>b</em>]chrysene;3,4-Benzotetraphene;1,2:6,7-Dibenzophenanthrene;3,4-Benzotetracene;2,3:7,8-Dibenzophenanthrene;Benzo[<em>c</em>]tetraphene;2,3-Benzochrysene;Naphth[2,1-<em>a</em>]anthracene;NSC 89274",
    "duplicated_cas_no": "",
    "SMILES": "C12=C3C(C=C4C(=C3)C=CC=C4)=CC=C1C=5C(C=C2)=CC=CC5",
    "meta_data": {
        "InChI": "InChI=1S/C22H14/c1-2-7-17-14-22-18(13-16(17)6-1)10-12-20-19-8-4-3-5-15(19)9-11-21(20)22/h1-14H",
        "InChIKey": null,
        "Canonical SMILES": "C=1C=CC=2C=C3C(C=CC=4C=5C=CC=CC5C=CC43)=CC2C1",
        "Molecular Formula": "C<sub>22</sub>H<sub>14</sub>",
        "Molecular Mass": "278.35",
        "Melting Point": "292-294 °C"
    }
}