{
    "cas_no": "124-38-9",
    "key_name": "Carbon dioxide",
    "cn_name": "二氧化碳;碳酸气;碳酸酐;碳酐;",
    "alternate_name": "Carbon dioxide;Carbonic acid gas;Carbonic anhydride;Dry ice;Carbon oxide (CO<sub>2</sub>);R 744;Carbonic acid anhydride;Khladon 744;Carbon-12 dioxide;Carbon-<sup>12</sup><em>C</em> dioxide-<sup>16</sup><em>O</em><sub>2</sub>;EN 439C1;Baros Effervescent Granules;N 45 (gas);N 45;CO<sub>2</sub>;Gost 8050-85;EOST 8050-85;YDEY 01",
    "duplicated_cas_no": "18923-20-1;957761-35-2;1053656-66-8;1053659-60-1;1173022-42-8;1202865-27-7",
    "SMILES": "C(=O)=O",
    "meta_data": {
        "InChI": "InChI=1S/CO2/c2-1-3",
        "InChIKey": null,
        "Canonical SMILES": "O=C=O",
        "Molecular Formula": "CO<sub>2</sub>",
        "Molecular Mass": "44.01",
        "Boiling Point": "-78.5 °C",
        "Melting Point": "-56.6 °C",
        "Density": "1.2 x 10<sup>-3</sup>-0.2100 g/cm³"
    }
}