{
    "cas_no": "7439-91-0",
    "key_name": "Lanthanum",
    "cn_name": "镧;镧棒;",
    "alternate_name": "Lanthanum;MeSH ID: D007811",
    "duplicated_cas_no": "110123-48-3;14762-71-1;881842-02-0",
    "SMILES": "[La]",
    "meta_data": {
        "InChI": "InChI=1S/La",
        "InChIKey": null,
        "Canonical SMILES": "[La]",
        "Molecular Formula": "La",
        "Molecular Mass": "",
        "Melting Point": "826 °C",
        "Density": "6.1598 g/cm³ @ Temp: 15 °C"
    }
}