{
    "cas_no": "3766-60-7",
    "key_name": "Buturon",
    "cn_name": "播土隆;3-(4-氯苯基)-1-甲基-1-(1-甲基丙炔-2-基)脲;",
    "alternate_name": "Urea, <em>N</em>′-(4-chlorophenyl)-<em>N</em>-methyl-<em>N</em>-(1-methyl-2-propyn-1-yl)-;Urea, 3-(<em>p</em>-chlorophenyl)-1-methyl-1-(1-methyl-2-propynyl)-;Urea, <em>N</em>′-(4-chlorophenyl)-<em>N</em>-methyl-<em>N</em>-(1-methyl-2-propynyl)-;<em>N</em>′-(4-Chlorophenyl)-<em>N</em>-methyl-<em>N</em>-(1-methyl-2-propyn-1-yl)urea;H 95;Arisan;Buturon;Butyron;3-(<em>p</em>-Chlorophenyl)-1-methyl-1-(1-methyl-2-propynyl)urea;H 951;Eptapur;HS 95",
    "duplicated_cas_no": "",
    "SMILES": "N(C(N(C(C#C)C)C)=O)C1=CC=C(Cl)C=C1",
    "meta_data": {
        "InChI": "InChI=1S/C12H13ClN2O/c1-4-9(2)15(3)12(16)14-11-7-5-10(13)6-8-11/h1,5-9H,2-3H3,(H,14,16)",
        "InChIKey": null,
        "Canonical SMILES": "O=C(NC1=CC=C(Cl)C=C1)N(C)C(C#C)C",
        "Molecular Formula": "C<sub>12</sub>H<sub>13</sub>ClN<sub>2</sub>O",
        "Molecular Mass": "236.70",
        "Melting Point": "148.5-149 °C"
    }
}