{
    "cas_no": "19311-91-2",
    "key_name": "<em>N</em>,<em>N</em>-Diethyl-2-hydroxybenzamide",
    "cn_name": null,
    "alternate_name": "Benzamide, <em>N</em>,<em>N</em>-diethyl-2-hydroxy-;Salicylamide, <em>N</em>,<em>N</em>-diethyl-;<em>N</em>,<em>N</em>-Diethyl-2-hydroxybenzamide;<em>N</em>,<em>N</em>-Diethylsalicylamide;Diethylsalicylamide;2-Hydroxy-<em>N</em>,<em>N</em>-diethylbenzamide",
    "duplicated_cas_no": "",
    "SMILES": "C(N(CC)CC)(=O)C1=C(O)C=CC=C1",
    "meta_data": {
        "InChI": "InChI=1S/C11H15NO2/c1-3-12(4-2)11(14)9-7-5-6-8-10(9)13/h5-8,13H,3-4H2,1-2H3",
        "InChIKey": null,
        "Canonical SMILES": "O=C(C=1C=CC=CC1O)N(CC)CC",
        "Molecular Formula": "C<sub>11</sub>H<sub>15</sub>NO<sub>2</sub>",
        "Molecular Mass": "193.24",
        "Boiling Point": "165-170 °C @ Press: 15 Torr",
        "Melting Point": "103-104 °C"
    }
}