{
    "cas_no": "4167-35-5",
    "key_name": "1,4-Dioxaspiro[4.5]decane-2-methanol",
    "cn_name": "1,4-二?-螺[4,5]-2-庚基甲醇;1,4-二?-螺[4,5]-2-庚基甲醇;",
    "alternate_name": "1,4-Dioxaspiro[4.5]decane-2-methanol;Cyclohexanone cyclic 3-hydroxypropylene acetal;Cyclohexanone cyclic (hydroxymethyl)ethylene acetal;Cyclohexylidene glycerol;2-Hydroxymethyl-1,4-dioxaspiro[4.5]decane;1,4-Dioxaspiro[4.5]decan-2-ylmethanol;(1,4-Dioxa-spiro[4. 5]dec-2-yl)-methanol;[1,4-Dioxaspiro[4.5]decan-2-yl]methanol;1,4-Dioxaspiro[4.5]decan-3-ylmethanol",
    "duplicated_cas_no": "113889-80-8",
    "SMILES": "C(O)C1OC2(OC1)CCCCC2",
    "meta_data": {
        "InChI": "InChI=1S/C9H16O3/c10-6-8-7-11-9(12-8)4-2-1-3-5-9/h8,10H,1-7H2",
        "InChIKey": null,
        "Canonical SMILES": "OCC1OC2(OC1)CCCCC2",
        "Molecular Formula": "C<sub>9</sub>H<sub>16</sub>O<sub>3</sub>",
        "Molecular Mass": "172.22",
        "Boiling Point": "118-120 °C @ Press: 5 Torr",
        "Density": "1.0931 g/cm³ @ Temp: 20 °C"
    }
}