{
    "cas_no": "76095-16-4",
    "key_name": "Enalapril maleate",
    "cn_name": null,
    "alternate_name": "<span class=\"text-smallcaps\">L</smallcap>-Proline, <em>N</em>-[(1<em>S</em>)-1-(ethoxycarbonyl)-3-phenylpropyl]-<smallcap>L</span>-alanyl-, (2<em>Z</em>)-2-butenedioate (1:1);<span class=\"text-smallcaps\">L</smallcap>-Proline, 1-[<em>N</em>-[1-(ethoxycarbonyl)-3-phenylpropyl]-<smallcap>L</span>-alanyl]-, (<em>S</em>)-, (<em>Z</em>)-2-butenedioate (1:1);MK 421 maleate;Enalapril maleate;MK 421;Vasotec;Pressotec;Xanef;Enapren;Biocronil;Renitec;Pres;Elfonal;Vasopril;Invoril;Innovace;Enaril;Minipril;Kenopril;Inoprilat;Unaril;Envas;Enaprin;Analept;Sintec;Naprilene;Alphrin;Lotrial;BQL;Tenace;Acetensil;Convertin;Repantril;Amprace;Renitek;Nuril;Hytrol;Enaloc;Enaladil;Benalipril;Unipril;Controlvas;Lapril;Innovade;Ednyt;Reniten;Renavace;Naritec;Presil;Glioten;Converten;Renivace;Enapril;Enacard;Olivin;Hipoartel;Cardiovet;Bitensil;Antiprex;Enace;Ezapril;Acapril;ENAP;Enalapril LPH",
    "duplicated_cas_no": "77549-59-8",
    "SMILES": "C([C@@H](N[C@@H](CCC1=CC=CC=C1)C(OCC)=O)C)(=O)N2[C@H](C(O)=O)CCC2.C(=C\\C(O)=O)\\C(O)=O",
    "meta_data": {
        "InChI": "",
        "InChIKey": null,
        "Canonical SMILES": "O=C(O)C=CC(=O)O.O=C(O)C1N(C(=O)C(NC(C(=O)OCC)CCC=2C=CC=CC2)C)CCC1",
        "Molecular Formula": "C<sub>20</sub>H<sub>28</sub>N<sub>2</sub>O<sub>5</sub>.C<sub>4</sub>H<sub>4</sub>O<sub>4</sub>",
        "Molecular Mass": "",
        "Melting Point": "143-144.5 °C",
        "Density": "1.27 g/cm³ (liquid)"
    }
}