{
    "cas_no": "690-95-9",
    "key_name": "4,4,4-Trifluorobutanenitrile",
    "cn_name": "4,4,4-三氟丁腈;",
    "alternate_name": "Butanenitrile, 4,4,4-trifluoro-;Butyronitrile, 4,4,4-trifluoro-;4,4,4-Trifluorobutanenitrile;4,4,4-Trifluorobutyronitrile",
    "duplicated_cas_no": "",
    "SMILES": "C(C(F)(F)F)CC#N",
    "meta_data": {
        "InChI": "InChI=1S/C4H4F3N/c5-4(6,7)2-1-3-8/h1-2H2",
        "InChIKey": null,
        "Canonical SMILES": "N#CCCC(F)(F)F",
        "Molecular Formula": "C<sub>4</sub>H<sub>4</sub>F<sub>3</sub>N",
        "Molecular Mass": "123.08",
        "Boiling Point": "140 °C",
        "Density": "1.21 g/cm³ @ Temp: 24.5 °C"
    }
}