{
    "cas_no": "89793-12-4",
    "key_name": "5-Pyrimidinecarboxylic acid, 2-chloro-, ethyl ester",
    "cn_name": null,
    "alternate_name": "5-Pyrimidinecarboxylic acid, 2-chloro-, ethyl ester;2-Chloro-5-(ethoxycarbonyl)pyrimidine;2-Chloropyrimidine-5-carboxylic acid ethyl ester;Ethyl 2-chloro-5-pyrimidinecarboxylate",
    "duplicated_cas_no": "",
    "SMILES": "C(OCC)(=O)C=1C=NC(Cl)=NC1",
    "meta_data": {
        "InChI": "InChI=1S/C7H7ClN2O2/c1-2-12-6(11)5-3-9-7(8)10-4-5/h3-4H,2H2,1H3",
        "InChIKey": null,
        "Canonical SMILES": "O=C(OCC)C1=CN=C(Cl)N=C1",
        "Molecular Formula": "C<sub>7</sub>H<sub>7</sub>ClN<sub>2</sub>O<sub>2</sub>",
        "Molecular Mass": "186.60",
        "Melting Point": "61 °C"
    }
}