{
    "cas_no": "53266-94-7",
    "key_name": "Ethyl 2-amino-4-thiazoleacetate",
    "cn_name": "2-氨基-4-噻唑乙酸乙酯;",
    "alternate_name": "4-Thiazoleacetic acid, 2-amino-, ethyl ester;Ethyl 2-amino-4-thiazoleacetate;Ethyl 2-aminothiazol-4-ylacetate;2-Amino-4-(carbethoxymethyl)thiazole;2-Amino-4-thiazoleacetic acid ethyl ester;(2-Amino-1,3-thiazol-4-yl)acetic acid ethyl ester;Ethyl 2-(2-aminothiazol-4-yl)acetate;(2-Amino-4-thiazolyl)acetic acid ethyl ester;2-(2-Aminothiazol-4-yl)acetic acid ethyl ester;2-Amino-4-[(ethoxycarbonyl)methyl]thiazole;2-Amino-4-(ethoxycarbonylmethyl)-1,3-thiazole;Ethyl (2-amino-1,3-thiazol-4-yl)acetate;(2-Amino-thiazole-4-yl)acetic acid ethyl ester;Ethyl 2-(2-amino-1,3-thiazol-4-yl)acetate",
    "duplicated_cas_no": "",
    "SMILES": "C(C(OCC)=O)C=1N=C(N)SC1",
    "meta_data": {
        "InChI": "InChI=1S/C7H10N2O2S/c1-2-11-6(10)3-5-4-12-7(8)9-5/h4H,2-3H2,1H3,(H2,8,9)",
        "InChIKey": null,
        "Canonical SMILES": "O=C(OCC)CC=1N=C(SC1)N",
        "Molecular Formula": "C<sub>7</sub>H<sub>10</sub>N<sub>2</sub>O<sub>2</sub>S",
        "Molecular Mass": "186.23",
        "Melting Point": "94-95 °C"
    }
}