{
    "cas_no": "602-85-7",
    "key_name": "Lysergol",
    "cn_name": "9,10-二脱氢-8-羟甲基-6-甲基麦角灵;",
    "alternate_name": "Ergoline-8-methanol, 9,10-didehydro-6-methyl-, (8β)-;Ergoline-8β-methanol, 9,10-didehydro-6-methyl-;Lysergol;Indolo[4,3-<em>fg</em>]quinoline, ergoline-8-methanol deriv.;(8β)-9,10-Didehydro-6-methylergoline-8-methanol;NSC 196867;(+)-Lysergol",
    "duplicated_cas_no": "1413-67-8;607362-34-5",
    "SMILES": "CN1[C@]2(C(C=3C=4C(C2)=CNC4C=CC3)=C[C@@H](CO)C1)[H]",
    "meta_data": {
        "InChI": "InChI=1S/C16H18N2O/c1-18-8-10(9-19)5-13-12-3-2-4-14-16(12)11(7-17-14)6-15(13)18/h2-5,7,10,15,17,19H,6,8-9H2,1H3/t10-,15-/m1/s1",
        "InChIKey": null,
        "Canonical SMILES": "OCC1C=C2C=3C=CC=C4NC=C(C43)CC2N(C)C1",
        "Molecular Formula": "C<sub>16</sub>H<sub>18</sub>N<sub>2</sub>O",
        "Molecular Mass": "254.33",
        "Melting Point": "253-255 °C"
    }
}