{
    "cas_no": "10389-65-8",
    "key_name": "<em>N</em>,<em>N</em>′-Bis(<em>tert</em>-butoxycarbonyl)-<span class=\"text-smallcaps\">L</span>-cystine",
    "cn_name": null,
    "alternate_name": "<span class=\"text-smallcaps\">L</span>-Cystine, <em>N</em>,<em>N</em>′-bis[(1,1-dimethylethoxy)carbonyl]-;Cystine, <em>N</em>,<em>N</em>′-dicarboxy-, <em>N</em>,<em>N</em>′-di-<em>tert</em>-butyl ester, <span class=\"text-smallcaps\">L</span>-;Cystine, <em>N</em>,<em>N</em>′-dicarboxy-, <em>N</em>,<em>N</em>′-di-<em>tert</em>-butyl ester;<em>N</em>,<em>N</em>′-Bis[(1,1-dimethylethoxy)carbonyl]-<span class=\"text-smallcaps\">L</span>-cystine;<em>N</em>,<em>N</em>′-Bis(<em>tert</em>-butoxycarbonyl)cystine;<em>N</em>,<em>N</em>′-Bis(<em>tert</em>-butoxycarbonyl)-<span class=\"text-smallcaps\">L</span>-cystine;NSC 164046;<em>N</em>,<em>N</em>′-Di-BOC-<span class=\"text-smallcaps\">L</span>-cystine;<em>N</em>,<em>N</em>′-Bis(<em>tert</em>-butoxycarbonyl)-<span class=\"text-smallcaps\">L</span>-cysteine;<em>N</em>,<em>N</em>′-Di(<em>tert</em>-butoxycarbonyl)-<span class=\"text-smallcaps\">L</span>-cystine",
    "duplicated_cas_no": "25613-31-4;881022-38-4;1969273-52-6",
    "SMILES": "[C@H](NC(OC(C)(C)C)=O)(CSSC[C@H](NC(OC(C)(C)C)=O)C(O)=O)C(O)=O",
    "meta_data": {
        "InChI": "InChI=1S/C16H28N2O8S2/c1-15(2,3)25-13(23)17-9(11(19)20)7-27-28-8-10(12(21)22)18-14(24)26-16(4,5)6/h9-10H,7-8H2,1-6H3,(H,17,23)(H,18,24)(H,19,20)(H,21,22)/t9-,10-/m0/s1",
        "InChIKey": null,
        "Canonical SMILES": "O=C(OC(C)(C)C)NC(C(=O)O)CSSCC(NC(=O)OC(C)(C)C)C(=O)O",
        "Molecular Formula": "C<sub>16</sub>H<sub>28</sub>N<sub>2</sub>O<sub>8</sub>S<sub>2</sub>",
        "Molecular Mass": "440.53",
        "Melting Point": "140-146 °C"
    }
}