{
    "cas_no": "7518-21-0",
    "key_name": "1-Methyltryptamine",
    "cn_name": null,
    "alternate_name": "1<em>H</em>-Indole-3-ethanamine, 1-methyl-;Indole, 3-(2-aminoethyl)-1-methyl-;1-Methyl-1<em>H</em>-indole-3-ethanamine;1-Methyltryptamine;1-<em>N</em>-Methyltryptamine;1-Methyl-3-(2-aminoethyl)indole;2-(1-Methyl-1<em>H</em>-indol-3-yl)ethanamine;2-(1-Methyl-1<em>H</em>-indol-3-yl)ethylamine;2-(1-Methyl-1<em>H</em>-indol-3-yl)ethan-1-amine;2-(1-Methylindol-3-yl)ethanamine",
    "duplicated_cas_no": "",
    "SMILES": "C(CN)C=1C=2C(N(C)C1)=CC=CC2",
    "meta_data": {
        "InChI": "InChI=1S/C11H14N2/c1-13-8-9(6-7-12)10-4-2-3-5-11(10)13/h2-5,8H,6-7,12H2,1H3",
        "InChIKey": null,
        "Canonical SMILES": "NCCC1=CN(C=2C=CC=CC21)C",
        "Molecular Formula": "C<sub>11</sub>H<sub>14</sub>N<sub>2</sub>",
        "Molecular Mass": "174.24",
        "Boiling Point": "140-170 °C"
    }
}