{
    "cas_no": "4536-23-6",
    "key_name": "2-Methylhexanoic acid",
    "cn_name": "2-甲基己酸;",
    "alternate_name": "Hexanoic acid, 2-methyl-;Caproic acid, α-methyl-;2-Methylhexanoic acid;α-Methylcaproic acid;2-Hexanecarboxylic acid;2-Methylcaproic acid;(±)-2-Methylhexanoic acid",
    "duplicated_cas_no": "22160-12-9",
    "SMILES": "C(C(O)=O)(CCCC)C",
    "meta_data": {
        "InChI": "InChI=1S/C7H14O2/c1-3-4-5-6(2)7(8)9/h6H,3-5H2,1-2H3,(H,8,9)",
        "InChIKey": null,
        "Canonical SMILES": "O=C(O)C(C)CCCC",
        "Molecular Formula": "C<sub>7</sub>H<sub>14</sub>O<sub>2</sub>",
        "Molecular Mass": "130.18",
        "Boiling Point": "203-205 °C @ Press: 683 Torr",
        "Density": "0.9612 g/cm³ @ Temp: 20 °C"
    }
}