{
    "cas_no": "612-75-9",
    "key_name": "3,3′-Dimethylbiphenyl",
    "cn_name": "3,3\"-二甲基联苯;",
    "alternate_name": "1,1′-Biphenyl, 3,3′-dimethyl-;<em>m</em>,<em>m</em>′-Bitolyl;3,3′-Dimethyl-1,1′-biphenyl;3,3′-Dimethylbiphenyl;3,3′-Ditolyl;<em>m</em>,<em>m</em>′-Bitoluene;3,3′-Bitolyl;NSC 60024;1-Methyl-3-(3-methylphenyl)benzene",
    "duplicated_cas_no": "",
    "SMILES": "CC=1C=C(C=CC1)C2=CC(C)=CC=C2",
    "meta_data": {
        "InChI": "InChI=1S/C14H14/c1-11-5-3-7-13(9-11)14-8-4-6-12(2)10-14/h3-10H,1-2H3",
        "InChIKey": null,
        "Canonical SMILES": "C1=CC(=CC(=C1)C)C2=CC=CC(=C2)C",
        "Molecular Formula": "C<sub>14</sub>H<sub>14</sub>",
        "Molecular Mass": "182.26",
        "Boiling Point": "280 °C",
        "Melting Point": "9 °C",
        "Density": "1.0013 g/cm³ @ Temp: 20 °C"
    }
}