{
    "cas_no": "1132-21-4",
    "key_name": "3,5-Dimethoxybenzoic acid",
    "cn_name": "3,5-二甲氧基苯甲酸;",
    "alternate_name": "Benzoic acid, 3,5-dimethoxy-;3,5-Dimethoxybenzoic acid;NSC 43744;NSC 8514",
    "duplicated_cas_no": "",
    "SMILES": "C(O)(=O)C1=CC(OC)=CC(OC)=C1",
    "meta_data": {
        "InChI": "InChI=1S/C9H10O4/c1-12-7-3-6(9(10)11)4-8(5-7)13-2/h3-5H,1-2H3,(H,10,11)",
        "InChIKey": null,
        "Canonical SMILES": "O=C(O)C=1C=C(OC)C=C(OC)C1",
        "Molecular Formula": "C<sub>9</sub>H<sub>10</sub>O<sub>4</sub>",
        "Molecular Mass": "182.17",
        "Melting Point": "185.5 °C"
    }
}