{
    "cas_no": "3938-96-3",
    "key_name": "Ethyl 2-methoxyacetate",
    "cn_name": "甲氧基乙酸乙酯;",
    "alternate_name": "Acetic acid, 2-methoxy-, ethyl ester;Acetic acid, methoxy-, ethyl ester;Ethyl 2-methoxyacetate;Ethyl methoxyacetate;Methoxyacetic acid ethyl ester;NSC 245101;Ethyl 2-(methyloxy)acetate",
    "duplicated_cas_no": "",
    "SMILES": "C(COC)(OCC)=O",
    "meta_data": {
        "InChI": "InChI=1S/C5H10O3/c1-3-8-5(6)4-7-2/h3-4H2,1-2H3",
        "InChIKey": null,
        "Canonical SMILES": "O=C(OCC)COC",
        "Molecular Formula": "C<sub>5</sub>H<sub>10</sub>O<sub>3</sub>",
        "Molecular Mass": "118.13",
        "Boiling Point": "142 °C",
        "Density": "1.0118 g/cm³ @ Temp: 15 °C"
    }
}