{
    "cas_no": "3048-64-4",
    "key_name": "5-Vinyl-2-norbornene",
    "cn_name": null,
    "alternate_name": "Bicyclo[2.2.1]hept-2-ene, 5-ethenyl-;2-Norbornene, 5-vinyl-;5-Ethenylbicyclo[2.2.1]hept-2-ene;5-Vinyl-2-norbornene;5-Vinylbicyclo[2.2.1]hept-2-ene;5-Vinylnorbornene;2-Vinylbicyclo[2.2.1]hept-5-ene;2-Vinyl-5-norbornene;Vinylnorbornene;2-Vinylnorbornene;VBH;NSC 61529;V 0062;6-Vinylbicyclo[2.2.1]hept-2-ene",
    "duplicated_cas_no": "827315-16-2;1135584-97-2",
    "SMILES": "C(=C)C1C2CC(C1)C=C2",
    "meta_data": {
        "InChI": "InChI=1S/C9H12/c1-2-8-5-7-3-4-9(8)6-7/h2-4,7-9H,1,5-6H2",
        "InChIKey": null,
        "Canonical SMILES": "C=CC1CC2C=CC1C2",
        "Molecular Formula": "C<sub>9</sub>H<sub>12</sub>",
        "Molecular Mass": "120.19",
        "Boiling Point": "140.4 °C @ Press: 760 Torr",
        "Density": "0.8884 g/cm³ @ Temp: 20 °C"
    }
}