{
    "cas_no": "1522-41-4",
    "key_name": "Butanoic acid, 2-fluoro-3-oxo-, ethyl ester",
    "cn_name": "2-氟乙酰乙酸乙酯;",
    "alternate_name": "Butanoic acid, 2-fluoro-3-oxo-, ethyl ester;Acetoacetic acid, 2-fluoro-, ethyl ester;Acetoacetic acid, fluoro-, ethyl ester;Ethyl 2-fluoro-3-oxobutanoate;Ethyl 2-fluoro-3-oxobutyrate;Ethyl 2-fluoroacetoacetate;NSC 24563;2-Fluoro-3-oxobutanoic acid ethyl ester",
    "duplicated_cas_no": "",
    "SMILES": "C(C(OCC)=O)(C(C)=O)F",
    "meta_data": {
        "InChI": "InChI=1S/C6H9FO3/c1-3-10-6(9)5(7)4(2)8/h5H,3H2,1-2H3",
        "InChIKey": null,
        "Canonical SMILES": "O=C(OCC)C(F)C(=O)C",
        "Molecular Formula": "C<sub>6</sub>H<sub>9</sub>FO<sub>3</sub>",
        "Molecular Mass": "148.13",
        "Boiling Point": "102 °C @ Press: 53 Torr"
    }
}