{
    "cas_no": "1009-62-7",
    "key_name": "α,α-Dimethylbenzenepropanal",
    "cn_name": "2,2-二甲基-3-苯丙醛;alpha,alpha-二甲基苯丙醛;海风醛;",
    "alternate_name": "Benzenepropanal, α,α-dimethyl-;Hydrocinnamaldehyde, α,α-dimethyl-;α,α-Dimethylbenzenepropanal;2,2-Dimethyl-3-phenylpropionaldehyde;2,2-Dimethyl-3-phenylpropanal;2,2-Dimethyl-3-phenyl-1-propanal",
    "duplicated_cas_no": "",
    "SMILES": "C(C(C=O)(C)C)C1=CC=CC=C1",
    "meta_data": {
        "InChI": "InChI=1S/C11H14O/c1-11(2,9-12)8-10-6-4-3-5-7-10/h3-7,9H,8H2,1-2H3",
        "InChIKey": null,
        "Canonical SMILES": "O=CC(C)(C)CC=1C=CC=CC1",
        "Molecular Formula": "C<sub>11</sub>H<sub>14</sub>O",
        "Molecular Mass": "162.23",
        "Boiling Point": "112-113 °C @ Press: 13 Torr",
        "Melting Point": "131 °C"
    }
}