{
    "cas_no": "25150-27-0",
    "key_name": "6,7-Dichloro-2-benzothiazolamine",
    "cn_name": "2-氨基-6,7-二氯苯并噻唑;",
    "alternate_name": "2-Benzothiazolamine, 6,7-dichloro-;Benzothiazole, 2-amino-6,7-dichloro-;6,7-Dichloro-2-benzothiazolamine;2-Amino-6,7-dichlorobenzothiazole",
    "duplicated_cas_no": "",
    "SMILES": "ClC1=C2C(N=C(N)S2)=CC=C1Cl",
    "meta_data": {
        "InChI": "InChI=1S/C7H4Cl2N2S/c8-3-1-2-4-6(5(3)9)12-7(10)11-4/h1-2H,(H2,10,11)",
        "InChIKey": null,
        "Canonical SMILES": "ClC=1C=CC=2N=C(SC2C1Cl)N",
        "Molecular Formula": "C<sub>7</sub>H<sub>4</sub>Cl<sub>2</sub>N<sub>2</sub>S",
        "Molecular Mass": "219.09",
        "Melting Point": "240-242 °C"
    }
}