{
    "cas_no": "6804-07-5",
    "key_name": "Carbadox",
    "cn_name": "卡巴多;2-(喹喔啉-2-亚甲基)肼-羧酸甲酯-N,N\"-二氧化物;",
    "alternate_name": "Hydrazinecarboxylic acid, 2-[(1,4-dioxido-2-quinoxalinyl)methylene]-, methyl ester;Carbazic acid, 3-(2-quinoxalinylmethylene)-, methyl ester, <em>N</em><sup>1</sup>,<em>N</em><sup>4</sup>-dioxide;Hydrazinecarboxylic acid, (2-quinoxalinylmethylene)-, methyl ester, <em>N</em>,<em>N</em>′-dioxide;Carbazic acid, 3-(2-quinoxalinylmethylene)-, methyl ester, <em>N</em>,<em>N</em>′-dioxide;Hydrazinecarboxylic acid, [(1,4-dioxido-2-quinoxalinyl)methylene]-, methyl ester;Carbadox;Methyl 3-(2-quinoxalinylmethylene)carbazate <em>N</em><sup>1</sup>,<em>N</em><sup>4</sup>-dioxide;GS 6244;Quinoxaline-2-carbomethoxyhydrazone 1,4-dioxide;Mecadox;2-Formylquinoxaline-1,4-dioxide carbomethoxyhydrazone;Fortigro;Getroxel",
    "duplicated_cas_no": "39310-25-3",
    "SMILES": "O=N=1C2=C(N(=O)=CC1C=NNC(OC)=O)C=CC=C2",
    "meta_data": {
        "InChI": "InChI=1S/C11H10N4O4/c1-19-11(16)13-12-6-8-7-14(17)9-4-2-3-5-10(9)15(8)18/h2-7H,1H3,(H,13,16)",
        "InChIKey": null,
        "Canonical SMILES": "O=C(OC)NN=CC1=CN(=O)=C2C=CC=CC2=N1=O",
        "Molecular Formula": "C<sub>11</sub>H<sub>10</sub>N<sub>4</sub>O<sub>4</sub>",
        "Molecular Mass": "262.22",
        "Melting Point": "239.5-240 °C"
    }
}