{
    "cas_no": "133040-01-4",
    "key_name": "Eprosartan",
    "cn_name": "依普沙坦;依普沙坦;(E)- Α-[[2-丁基-1-[(4-羧基苯基)甲基]-1H-咪唑-5-基]亚甲基]-2-噻吩丙酸;",
    "alternate_name": "2-Thiophenepropanoic acid, α-[[2-butyl-1-[(4-carboxyphenyl)methyl]-1<em>H</em>-imidazol-5-yl]methylene]-, (α<em>E</em>)-;2-Thiophenepropanoic acid, α-[[2-butyl-1-[(4-carboxyphenyl)methyl]-1<em>H</em>-imidazol-5-yl]methylene]-, (<em>E</em>)-;(α<em>E</em>)-α-[[2-Butyl-1-[(4-carboxyphenyl)methyl]-1<em>H</em>-imidazol-5-yl]methylene]-2-thiophenepropanoic acid;SKF 108566;SKB 108566;Eprosartan;(<em>E</em>)-2-Butyl-1-(<em>p</em>-carboxybenzyl)-α-2-thenylimidazole-5-acrylic acid;Teveten;Navixen",
    "duplicated_cas_no": "",
    "SMILES": "C(N1C(/C=C(\\CC2=CC=CS2)/C(O)=O)=CN=C1CCCC)C3=CC=C(C(O)=O)C=C3",
    "meta_data": {
        "InChI": "InChI=1S/C23H24N2O4S/c1-2-3-6-21-24-14-19(12-18(23(28)29)13-20-5-4-11-30-20)25(21)15-16-7-9-17(10-8-16)22(26)27/h4-5,7-12,14H,2-3,6,13,15H2,1H3,(H,26,27)(H,28,29)/b18-12+",
        "InChIKey": null,
        "Canonical SMILES": "O=C(O)C1=CC=C(C=C1)CN2C(=CN=C2CCCC)C=C(C(=O)O)CC=3SC=CC3",
        "Molecular Formula": "C<sub>23</sub>H<sub>24</sub>N<sub>2</sub>O<sub>4</sub>S",
        "Molecular Mass": "424.51",
        "Melting Point": "260-261 °C"
    }
}