{
    "cas_no": "3187-19-7",
    "key_name": "2-Hydroxy-4,6-dimethoxybenzoic acid",
    "cn_name": "2-羟基-4,6-二甲氧基苯甲酸;",
    "alternate_name": "Benzoic acid, 2-hydroxy-4,6-dimethoxy-;Salicylic acid, 4,6-dimethoxy-;2-Hydroxy-4,6-dimethoxybenzoic acid;4,6-Dimethoxysalicylic acid;2,4-Dimethoxy-6-hydroxybenzoic acid;NSC 151975",
    "duplicated_cas_no": "",
    "SMILES": "O(C)C1=C(C(O)=O)C(O)=CC(OC)=C1",
    "meta_data": {
        "InChI": "InChI=1S/C9H10O5/c1-13-5-3-6(10)8(9(11)12)7(4-5)14-2/h3-4,10H,1-2H3,(H,11,12)",
        "InChIKey": null,
        "Canonical SMILES": "O=C(O)C1=C(O)C=C(OC)C=C1OC",
        "Molecular Formula": "C<sub>9</sub>H<sub>10</sub>O<sub>5</sub>",
        "Molecular Mass": "198.17",
        "Melting Point": "156 °C"
    }
}