{
    "cas_no": "623-78-9",
    "key_name": "Carbamic acid, <em>N</em>-ethyl-, ethyl ester",
    "cn_name": "N-乙基甲酸乙酯;N-乙基尿烷;",
    "alternate_name": "Carbamic acid, <em>N</em>-ethyl-, ethyl ester;Carbamic acid, ethyl-, ethyl ester;<em>N</em>-Ethylurethane;Ethyl ethylcarbamate;NSC 440;<em>N</em>-Ethylcarbamic acid ethyl ester",
    "duplicated_cas_no": "",
    "SMILES": "C(NCC)(OCC)=O",
    "meta_data": {
        "InChI": "InChI=1S/C5H11NO2/c1-3-6-5(7)8-4-2/h3-4H2,1-2H3,(H,6,7)",
        "InChIKey": null,
        "Canonical SMILES": "O=C(OCC)NCC",
        "Molecular Formula": "C<sub>5</sub>H<sub>11</sub>NO<sub>2</sub>",
        "Molecular Mass": "117.15",
        "Boiling Point": "176 °C @ Press: 760 Torr",
        "Density": "0.9813 g/cm³ @ Temp: 20 °C"
    }
}