{
    "cas_no": "33229-34-4",
    "key_name": "HC Blue 2",
    "cn_name": "3-硝基-4-羟乙氨基-N,N-二羟乙基苯胺;",
    "alternate_name": "Ethanol, 2,2′-[[4-[(2-hydroxyethyl)amino]-3-nitrophenyl]imino]bis-;Ethanol, 2,2′-[[4-[(2-hydroxyethyl)amino]-3-nitrophenyl]imino]di-;2,2′-[[4-[(2-Hydroxyethyl)amino]-3-nitrophenyl]imino]bis[ethanol];<em>N</em><sup>1</sup>,<em>N</em><sup>4</sup>,<em>N</em><sup>4</sup>-Tris(2-hydroxyethyl)-2-nitro-<em>p</em>-phenylenediamine;<em>N</em>,<em>N</em>′,<em>N</em>′-Tris(2-hydroxyethyl)-2-nitro-<em>p</em>-phenylenediamine;<em>N</em><sup>1</sup>,<em>N</em><sup>4</sup>,<em>N</em><sup>4</sup>-Tris(2′-hydroxyethyl)-2-nitro-<em>p</em>-phenylenediamine;HC Blue No. 2;HC Blue 2;2,2′-[4-(2-Hydroxyethylamino)-3-nitrophenylimino]diethanol;Covarine Blue W 6122;Colorex HCB 2;<em>N</em>,<em>N</em>,<em>N</em>′-Tris(2-hydroxyethyl)-3-nitrobenzene-1,4-diamine;2,2′-((4-((2-Hydroxyethyl)amino)-3-nitrophenyl)azanediyl)diethanol;2-[4-[Bis(2-hydroxyethyl)amino]-2-nitroanilino]ethanol",
    "duplicated_cas_no": "",
    "SMILES": "N(CCO)(CCO)C1=CC(N(=O)=O)=C(NCCO)C=C1",
    "meta_data": {
        "InChI": "InChI=1S/C12H19N3O5/c16-6-3-13-11-2-1-10(9-12(11)15(19)20)14(4-7-17)5-8-18/h1-2,9,13,16-18H,3-8H2",
        "InChIKey": null,
        "Canonical SMILES": "O=N(=O)C1=CC(=CC=C1NCCO)N(CCO)CCO",
        "Molecular Formula": "C<sub>12</sub>H<sub>19</sub>N<sub>3</sub>O<sub>5</sub>",
        "Molecular Mass": "285.30",
        "Melting Point": "93-98 °C"
    }
}