{
    "cas_no": "291-21-4",
    "key_name": "1,3,5-Trithiane",
    "cn_name": "1,3,5-三噻烷;S-三聚硫代甲;甲硫醛{三聚體};均-三噻烷;1,3,5-三噻茂烷;甲硫醛{三聚};",
    "alternate_name": "1,3,5-Trithiane;<em>s</em>-Trithiane;Formaldehyde, thio-, trimer;Trimethylene trisulfide;1,3,5-Trithiacyclohexane;Trithioformaldehyde;Thioform;Thioformaldehyde trimer;NSC 1937",
    "duplicated_cas_no": "",
    "SMILES": "C1SCSCS1",
    "meta_data": {
        "InChI": "InChI=1S/C3H6S3/c1-4-2-6-3-5-1/h1-3H2",
        "InChIKey": null,
        "Canonical SMILES": "S1CSCSC1",
        "Molecular Formula": "C<sub>3</sub>H<sub>6</sub>S<sub>3</sub>",
        "Molecular Mass": "138.27",
        "Boiling Point": "148-149 °C @ Press: 11-12 Torr",
        "Melting Point": "220 °C"
    }
}