{
    "cas_no": "141-05-9",
    "key_name": "Diethyl maleate",
    "cn_name": "马来酸二乙酯;顺丁烯二酸二乙酯;",
    "alternate_name": "2-Butenedioic acid (2<em>Z</em>)-, 1,4-diethyl ester;Maleic acid, diethyl ester;2-Butenedioic acid (<em>Z</em>)-, diethyl ester;2-Butenedioic acid (2<em>Z</em>)-, diethyl ester;Diethyl maleate;Ethyl maleate;Diethyl (<em>Z</em>)-2-butenedioate;Staflex DEM;(2<em>Z</em>)-2-Butenedioic acid diethyl ester;Maleinic acid diethyl ester;(<em>Z</em>)-2-Butenedioic acid diethyl ester",
    "duplicated_cas_no": "",
    "SMILES": "C(/C=C\\C(OCC)=O)(OCC)=O",
    "meta_data": {
        "InChI": "InChI=1S/C8H12O4/c1-3-11-7(9)5-6-8(10)12-4-2/h5-6H,3-4H2,1-2H3/b6-5-",
        "InChIKey": null,
        "Canonical SMILES": "O=C(OCC)C=CC(=O)OCC",
        "Molecular Formula": "C<sub>8</sub>H<sub>12</sub>O<sub>4</sub>",
        "Molecular Mass": "172.18",
        "Boiling Point": "223 °C",
        "Melting Point": "-8.8 °C",
        "Density": "1.0690 g/cm³ @ Temp: 20 °C"
    }
}