{
    "cas_no": "13637-84-8",
    "key_name": "Sulfuryl chloride fluoride",
    "cn_name": "氯氟磺酰;",
    "alternate_name": "Sulfuryl chloride fluoride;Chlorosulfonyl fluoride;Fluorosulfuryl chloride;Chloro fluoro sulfone;Sulfuryl fluoride chloride;Sulfonyl chloride fluoride;Fluorosulfonyl chloride;Sulfuryl chlorofluoride",
    "duplicated_cas_no": "73571-19-4",
    "SMILES": "S(Cl)(F)(=O)=O",
    "meta_data": {
        "InChI": "InChI=1S/ClFO2S/c1-5(2,3)4",
        "InChIKey": null,
        "Canonical SMILES": "O=S(=O)(F)Cl",
        "Molecular Formula": "ClFO<sub>2</sub>S",
        "Molecular Mass": "118.52",
        "Boiling Point": "7.1 °C",
        "Melting Point": "-124.7 °C",
        "Density": "1.623 g/cm³ @ Temp: 0 °C"
    }
}