{
    "cas_no": "6972-69-6",
    "key_name": "<em>N</em>,<em>N</em>-Dimethylnicotinamide",
    "cn_name": "N,N-二烟酰胺;N,N-二烟酰胺;",
    "alternate_name": "3-Pyridinecarboxamide, <em>N</em>,<em>N</em>-dimethyl-;Nicotinamide, <em>N</em>,<em>N</em>-dimethyl-;<em>N</em>,<em>N</em>-Dimethyl-3-pyridinecarboxamide;<em>N</em>,<em>N</em>-Dimethylnicotinamide;Nicotinic acid dimethylamide;NSC 62007;3-Dimethylcarbamoyl pyridine",
    "duplicated_cas_no": "",
    "SMILES": "C(N(C)C)(=O)C=1C=CC=NC1",
    "meta_data": {
        "InChI": "InChI=1S/C8H10N2O/c1-10(2)8(11)7-4-3-5-9-6-7/h3-6H,1-2H3",
        "InChIKey": null,
        "Canonical SMILES": "O=C(C=1C=NC=CC1)N(C)C",
        "Molecular Formula": "C<sub>8</sub>H<sub>10</sub>N<sub>2</sub>O",
        "Molecular Mass": "150.18",
        "Boiling Point": "146-147 °C @ Press: 9 Torr",
        "Melting Point": "43-45 °C"
    }
}