{
    "cas_no": "10101-63-0",
    "key_name": "Lead iodide (PbI<sub>2</sub>)",
    "cn_name": "碘化铅;",
    "alternate_name": "Lead iodide (PbI<sub>2</sub>);C.I. 77613;Plumbous iodide;Lead diiodide;Lead iodide;Lead(II) iodide;Lead diiodide (PbI2)",
    "duplicated_cas_no": "82669-93-0",
    "SMILES": "[Pb](I)I",
    "meta_data": {
        "InChI": "InChI=1S/2HI.Pb/h2*1H;/q;;+2/p-2",
        "InChIKey": null,
        "Canonical SMILES": "I[Pb]I",
        "Molecular Formula": "I<sub>2</sub>Pb",
        "Molecular Mass": "",
        "Melting Point": "402 °C",
        "Density": "6.16 g/cm³"
    }
}