{
    "cas_no": "30334-71-5",
    "key_name": "1,2-Dipalmitoyl-<em>sn</em>-glycerol",
    "cn_name": "1,2-二棕榈酰-sn-丙三醇;1,2-双棕榈酸甘油酯;",
    "alternate_name": "Hexadecanoic acid, 1,1′-[(1<em>S</em>)-1-(hydroxymethyl)-1,2-ethanediyl] ester;Hexadecanoic acid, 1-(hydroxymethyl)-1,2-ethanediyl ester, (<em>S</em>)-;Palmitin, 1,2-di-, <span class=\"text-smallcaps\">L</span>-;Palmitin, <span class=\"text-smallcaps\">L</span>-1,2-di-;Hexadecanoic acid, (1<em>S</em>)-1-(hydroxymethyl)-1,2-ethanediyl ester;1,2-Dipalmitoyl-<em>sn</em>-glycerol;1,2-Di-<em>O</em>-palmitoyl-<em>sn</em>-glycerol;(<em>S</em>)-(-)-1,2-Dipalmitin;<span class=\"text-smallcaps\">L</span>-1,2-Dipalmitin;<em>sn</em>-1,2-Dipalmitin;NSC 269964;(<em>S</em>)-1-(Hydroxymethyl)ethane-1,2-diyl dipalmitate;1,2-Dihexadecanoyl-sn-glycerol;[(2S)-2-Hexadecanoyloxy-3-hydroxypropyl] hexadecanoate;1,2-Dipalmitoyl-sn-glycerol",
    "duplicated_cas_no": "34729-22-1",
    "SMILES": "[C@@H](OC(CCCCCCCCCCCCCCC)=O)(COC(CCCCCCCCCCCCCCC)=O)CO",
    "meta_data": {
        "InChI": "InChI=1S/C35H68O5/c1-3-5-7-9-11-13-15-17-19-21-23-25-27-29-34(37)39-32-33(31-36)40-35(38)30-28-26-24-22-20-18-16-14-12-10-8-6-4-2/h33,36H,3-32H2,1-2H3/t33-/m0/s1",
        "InChIKey": null,
        "Canonical SMILES": "O=C(OCC(OC(=O)CCCCCCCCCCCCCCC)CO)CCCCCCCCCCCCCCC",
        "Molecular Formula": "C<sub>35</sub>H<sub>68</sub>O<sub>5</sub>",
        "Molecular Mass": "568.91",
        "Melting Point": "64-65 °C"
    }
}