{
    "cas_no": "36314-98-4",
    "key_name": "2-Amino-4-pyrimidinecarbonitrile",
    "cn_name": null,
    "alternate_name": "4-Pyrimidinecarbonitrile, 2-amino-;2-Amino-4-pyrimidinecarbonitrile;2-Aminopyrimidine-4-carbonitrile;2-Amino-4-cyanopyrimidine",
    "duplicated_cas_no": "",
    "SMILES": "C(#N)C1=NC(N)=NC=C1",
    "meta_data": {
        "InChI": "InChI=1S/C5H4N4/c6-3-4-1-2-8-5(7)9-4/h1-2H,(H2,7,8,9)",
        "InChIKey": null,
        "Canonical SMILES": "N#CC1=NC(=NC=C1)N",
        "Molecular Formula": "C<sub>5</sub>H<sub>4</sub>N<sub>4</sub>",
        "Molecular Mass": "120.11",
        "Melting Point": "222 °C (decomp)"
    }
}