{
    "cas_no": "14173-25-2",
    "key_name": "Methyl phenyl disulfide",
    "cn_name": "甲基苯基二硫醚;",
    "alternate_name": "Disulfide, methyl phenyl;Methyl phenyl disulfide;Phenyl methyl disulfide;NSC 677545;NSC 87076;(Methyldisulfanyl)benzene",
    "duplicated_cas_no": "",
    "SMILES": "S(SC)C1=CC=CC=C1",
    "meta_data": {
        "InChI": "InChI=1S/C7H8S2/c1-8-9-7-5-3-2-4-6-7/h2-6H,1H3",
        "InChIKey": null,
        "Canonical SMILES": "S(SC)C=1C=CC=CC1",
        "Molecular Formula": "C<sub>7</sub>H<sub>8</sub>S<sub>2</sub>",
        "Molecular Mass": "156.27",
        "Boiling Point": "83-84 °C @ Press: 1 Torr"
    }
}