{
    "cas_no": "113963-68-1",
    "key_name": "Bisindolylmaleimide V",
    "cn_name": "双吲哚马来酰亚胺V;1-甲基-3,4-双(1H-吲哚-3-基)马来酰亚胺;",
    "alternate_name": "1<em>H</em>-Pyrrole-2,5-dione, 3,4-di-1<em>H</em>-indol-3-yl-1-methyl-;3,4-Di-1<em>H</em>-indol-3-yl-1-methyl-1<em>H</em>-pyrrole-2,5-dione;1-Methyl-3,4-bis(indol-3-yl)maleimide;Ro 31-6045;<em>N</em>-Methylbis(indol-3-yl)maleimide;Bisindolylmaleimide V;<em>N</em>-Methyl-3,4-bis(indol-3-yl)maleimide;3,4-Di(1<em>H</em>-indol-3-yl)-1-methyl-1<em>H</em>-pyrrole-2,5-dione;Methylarcyriarubin;Methylarcyriarubin A;3,4-Bis(1<em>H</em>-indol-3-yl)-1-methylpyrrole-2,5-dione",
    "duplicated_cas_no": "",
    "SMILES": "O=C1C(=C(C(=O)N1C)C=2C=3C(NC2)=CC=CC3)C=4C=5C(NC4)=CC=CC5",
    "meta_data": {
        "InChI": "InChI=1S/C21H15N3O2/c1-24-20(25)18(14-10-22-16-8-4-2-6-12(14)16)19(21(24)26)15-11-23-17-9-5-3-7-13(15)17/h2-11,22-23H,1H3",
        "InChIKey": null,
        "Canonical SMILES": "O=C1C(C2=CNC=3C=CC=CC32)=C(C(=O)N1C)C4=CNC=5C=CC=CC54",
        "Molecular Formula": "C<sub>21</sub>H<sub>15</sub>N<sub>3</sub>O<sub>2</sub>",
        "Molecular Mass": "341.36",
        "Melting Point": "&gt;260 °C"
    }
}