{
    "cas_no": "111-16-0",
    "key_name": "Pimelic acid",
    "cn_name": "庚二酸;",
    "alternate_name": "Heptanedioic acid;Pimelic acid;1,7-Heptanedioic acid;1,5-Pentanedicarboxylic acid;Pileric acid;NSC 30112;Pimeric acid",
    "duplicated_cas_no": "",
    "SMILES": "C(CC(O)=O)CCCC(O)=O",
    "meta_data": {
        "InChI": "InChI=1S/C7H12O4/c8-6(9)4-2-1-3-5-7(10)11/h1-5H2,(H,8,9)(H,10,11)",
        "InChIKey": null,
        "Canonical SMILES": "O=C(O)CCCCCC(=O)O",
        "Molecular Formula": "C<sub>7</sub>H<sub>12</sub>O<sub>4</sub>",
        "Molecular Mass": "160.17",
        "Boiling Point": "342 °C",
        "Melting Point": "106 °C",
        "Density": "1.0119 g/cm³ @ Temp: 4 °C"
    }
}