{
    "cas_no": "1314-96-1",
    "key_name": "Strontium sulfide",
    "cn_name": "硫化锶;",
    "alternate_name": "Strontium sulfide (SrS);Strontium sulfide;C.I. 77847;C.I. Pigment White 8;Strontium monosulfide;Pigment White 8",
    "duplicated_cas_no": "",
    "SMILES": "S=[Sr]",
    "meta_data": {
        "InChI": "InChI=1S/S.Sr",
        "InChIKey": null,
        "Canonical SMILES": "S=[Sr]",
        "Molecular Formula": "SSr",
        "Molecular Mass": "",
        "Melting Point": "2002 °C",
        "Density": "3.70 g/cm³ @ Temp: 25 °C"
    }
}