{
    "cas_no": "147-20-6",
    "key_name": "Diphenylpyraline",
    "cn_name": null,
    "alternate_name": "Piperidine, 4-(diphenylmethoxy)-1-methyl-;4-(Diphenylmethoxy)-1-methylpiperidine;AN 1041;4-(Benzhydryloxy)-1-methylpiperidine;Diphenylpyraline;Diphenylpyrilene;1-Methyl-4-piperidyl benzhydryl ether;<em>N</em>-Methyl-4-(benzhydryloxy)piperidine;Hystryl;Lyssipoll;Mepiben;Neargal;P 253;Diphenpyraline",
    "duplicated_cas_no": "",
    "SMILES": "C(OC1CCN(C)CC1)(C2=CC=CC=C2)C3=CC=CC=C3",
    "meta_data": {
        "InChI": "InChI=1S/C19H23NO/c1-20-14-12-18(13-15-20)21-19(16-8-4-2-5-9-16)17-10-6-3-7-11-17/h2-11,18-19H,12-15H2,1H3",
        "InChIKey": null,
        "Canonical SMILES": "O(C(C=1C=CC=CC1)C=2C=CC=CC2)C3CCN(C)CC3",
        "Molecular Formula": "C<sub>19</sub>H<sub>23</sub>NO",
        "Molecular Mass": "281.39",
        "Boiling Point": "158-160 °C @ Press: 2 Torr",
        "Melting Point": "203-205 °C"
    }
}