{
    "cas_no": "98-46-4",
    "key_name": "5-Nitrobenzotrifluoride",
    "cn_name": "间硝基三氟甲苯;3-硝基三氟甲苯;",
    "alternate_name": "Benzene, 1-nitro-3-(trifluoromethyl)-;Toluene, α,α,α-trifluoro-<em>m</em>-nitro-;1-Nitro-3-(trifluoromethyl)benzene;<em>m</em>-(Trifluoromethyl)nitrobenzene;α,α,α-Trifluoro-<em>m</em>-nitrotoluene;<em>m</em>-Nitrobenzotrifluoride;3-(Trifluoromethyl)nitrobenzene;3-Nitrobenzotrifluoride;<em>m</em>-Nitro-α,α,α-trifluorotoluene;3-(Trifluoromethyl)-1-nitrobenzene;3-Nitro-1-(trifluoromethyl)benzene;α,α,α-Trifluoro-3-nitrotoluene;5-Nitrobenzotrifluoride;NSC 10313;<em>m</em>-Nitro(trifluoromethyl)benzene",
    "duplicated_cas_no": "",
    "SMILES": "C(F)(F)(F)C1=CC(N(=O)=O)=CC=C1",
    "meta_data": {
        "InChI": "InChI=1S/C7H4F3NO2/c8-7(9,10)5-2-1-3-6(4-5)11(12)13/h1-4H",
        "InChIKey": null,
        "Canonical SMILES": "O=N(=O)C1=CC=CC(=C1)C(F)(F)F",
        "Molecular Formula": "C<sub>7</sub>H<sub>4</sub>F<sub>3</sub>NO<sub>2</sub>",
        "Molecular Mass": "191.11",
        "Boiling Point": "203 °C",
        "Melting Point": "-2.4 °C",
        "Density": "1.437 g/cm³ @ Temp: 15.5 °C"
    }
}