{
    "cas_no": "638-29-9",
    "key_name": "Pentanoyl chloride",
    "cn_name": "戊酰氯;",
    "alternate_name": "Pentanoyl chloride;Valeryl chloride;Valeroyl chloride;<em>n</em>-Pentanoyl chloride;Pentanoic acid chloride;<em>n</em>-Butanecarbonyl chloride;<em>n</em>-Valeryl chloride",
    "duplicated_cas_no": "",
    "SMILES": "C(C(Cl)=O)CCC",
    "meta_data": {
        "InChI": "InChI=1S/C5H9ClO/c1-2-3-4-5(6)7/h2-4H2,1H3",
        "InChIKey": null,
        "Canonical SMILES": "O=C(Cl)CCCC",
        "Molecular Formula": "C<sub>5</sub>H<sub>9</sub>ClO",
        "Molecular Mass": "120.58",
        "Boiling Point": "109 °C",
        "Melting Point": "-110 °C"
    }
}