{
    "cas_no": "496-42-4",
    "key_name": "1<em>H</em>-Indole-2-ethanamine",
    "cn_name": "2-(2-氨基乙基)吲哚;",
    "alternate_name": "1<em>H</em>-Indole-2-ethanamine;Indole, 2-(2-aminoethyl)-;Indole-2-ethylamine;2-(Indol-2-yl)ethylamine;2-(2-Aminoethyl)indole;2-(Indol-2-yl)ethanamine;2-(1<em>H</em>-Indol-2-yl)ethan-1-amine;2-(1<em>H</em>-Indol-2-yl)ethanamine",
    "duplicated_cas_no": "",
    "SMILES": "C(CN)C1=CC=2C(N1)=CC=CC2",
    "meta_data": {
        "InChI": "InChI=1S/C10H12N2/c11-6-5-9-7-8-3-1-2-4-10(8)12-9/h1-4,7,12H,5-6,11H2",
        "InChIKey": null,
        "Canonical SMILES": "NCCC1=CC=2C=CC=CC2N1",
        "Molecular Formula": "C<sub>10</sub>H<sub>12</sub>N<sub>2</sub>",
        "Molecular Mass": "160.22",
        "Melting Point": "100-101 °C"
    }
}