{
    "cas_no": "50789-43-0",
    "key_name": "Methyl 3-phenoxybenzoate",
    "cn_name": null,
    "alternate_name": "Benzoic acid, 3-phenoxy-, methyl ester;3-Methoxycarbonyldiphenyl ether;Methyl 3-phenoxybenzoate;3-Phenoxybenzoic acid methyl ester",
    "duplicated_cas_no": "",
    "SMILES": "O(C1=CC(C(OC)=O)=CC=C1)C2=CC=CC=C2",
    "meta_data": {
        "InChI": "InChI=1S/C14H12O3/c1-16-14(15)11-6-5-9-13(10-11)17-12-7-3-2-4-8-12/h2-10H,1H3",
        "InChIKey": null,
        "Canonical SMILES": "O=C(OC)C=1C=CC=C(OC=2C=CC=CC2)C1",
        "Molecular Formula": "C<sub>14</sub>H<sub>12</sub>O<sub>3</sub>",
        "Molecular Mass": "228.24",
        "Boiling Point": "150-153 °C @ Press: 1.5 Torr"
    }
}