{
    "cas_no": "7175-49-7",
    "key_name": "<em>N</em>-Cyclohexyl-<em>N</em>-ethylcyclohexanamine",
    "cn_name": "N-乙基二环己胺;N-乙基二环己基胺;",
    "alternate_name": "Cyclohexanamine, <em>N</em>-cyclohexyl-<em>N</em>-ethyl-;Dicyclohexylamine, <em>N</em>-ethyl-;<em>N</em>-Cyclohexyl-<em>N</em>-ethylcyclohexanamine;<em>N</em>-Ethyldicyclohexylamine;Ethyldicyclohexylamine;Dicyclohexylethylamine;NSC 221147",
    "duplicated_cas_no": "",
    "SMILES": "N(CC)(C1CCCCC1)C2CCCCC2",
    "meta_data": {
        "InChI": "InChI=1S/C14H27N/c1-2-15(13-9-5-3-6-10-13)14-11-7-4-8-12-14/h13-14H,2-12H2,1H3",
        "InChIKey": null,
        "Canonical SMILES": "N(CC)(C1CCCCC1)C2CCCCC2",
        "Molecular Formula": "C<sub>14</sub>H<sub>27</sub>N",
        "Molecular Mass": "209.37",
        "Boiling Point": "268 °C",
        "Density": "0.9087 g/cm³ @ Temp: 20 °C"
    }
}