{
    "cas_no": "52691-62-0",
    "key_name": "1-<em>O</em>-Hexadecyl-<em>sn</em>-<em>glycero</em>-3-phosphocholine",
    "cn_name": "1-O-十六烷基-SN-甘油基-3-胆碱磷酸;",
    "alternate_name": "3,5,9-Trioxa-4-phosphapentacosan-1-aminium, 4,7-dihydroxy-<em>N</em>,<em>N</em>,<em>N</em>-trimethyl-, inner salt, 4-oxide, (7<em>R</em>)-;3,5,9-Trioxa-4-phosphapentacosan-1-aminium, 4,7-dihydroxy-<em>N</em>,<em>N</em>,<em>N</em>-trimethyl-, inner salt, 4-oxide, (<em>R</em>)-;1-Hexadecyl-2-lyso-<em>sn</em>-<em>glycero</em>-3-phosphocholine;1-<em>O</em>-Hexadecyl-2-lyso-<em>sn</em>-<em>glycero</em>-3-phosphocholine;Lyso-platelet-activating factor;1-<em>O</em>-Hexadecyl-<em>sn</em>-<em>glycero</em>-3-phosphatidylcholine;1-<em>O</em>-Hexadecyl-<em>sn</em>-<em>glycero</em>-3-phosphocholine;1-<em>O</em>-Hexadecyl-<em>sn</em>-glyceryl-3-phosphorylcholine;LPC O-16:0;(R)-3-(Hexadecyloxy)-2-hydroxypropyl (2-(trimethylammonio)ethyl) phosphate",
    "duplicated_cas_no": "97288-09-0",
    "SMILES": "O(C[C@@H](COCCCCCCCCCCCCCCCC)O)P(OCC[N+](C)(C)C)(=O)[O-]",
    "meta_data": {
        "InChI": "InChI=1S/C24H52NO6P/c1-5-6-7-8-9-10-11-12-13-14-15-16-17-18-20-29-22-24(26)23-31-32(27,28)30-21-19-25(2,3)4/h24,26H,5-23H2,1-4H3/t24-/m1/s1",
        "InChIKey": null,
        "Canonical SMILES": "O=P([O-])(OCC[N+](C)(C)C)OCC(O)COCCCCCCCCCCCCCCCC",
        "Molecular Formula": "C<sub>24</sub>H<sub>52</sub>NO<sub>6</sub>P",
        "Molecular Mass": "",
        "Melting Point": "&gt;240 °C"
    }
}