{
    "cas_no": "589-63-9",
    "key_name": "4-Octanone",
    "cn_name": "4-辛酮;4-辛酮;",
    "alternate_name": "4-Octanone;Butyl propyl ketone;4-Oxooctane;NSC 43245",
    "duplicated_cas_no": "",
    "SMILES": "C(CCCC)(CCC)=O",
    "meta_data": {
        "InChI": "InChI=1S/C8H16O/c1-3-5-7-8(9)6-4-2/h3-7H2,1-2H3",
        "InChIKey": null,
        "Canonical SMILES": "O=C(CCC)CCCC",
        "Molecular Formula": "C<sub>8</sub>H<sub>16</sub>O",
        "Molecular Mass": "128.21",
        "Boiling Point": "163 °C",
        "Density": "0.8177 g/cm³ @ Temp: 20 °C"
    }
}