{
    "cas_no": "888504-27-6",
    "key_name": "Methyl 1,6-dihydro-5-hydroxy-1-methyl-2-[1-methyl-1-[[(phenylmethoxy)carbonyl]amino]ethyl]-6-oxo-4-pyrimidinecarboxylate",
    "cn_name": "1,6-二氢-5-羟基-1-甲基-2-[1-甲基-1-[(苄氧基羰基)氨基]乙基]-6-氧代-4-嘧啶甲酸甲酯;",
    "alternate_name": "4-Pyrimidinecarboxylic acid, 1,6-dihydro-5-hydroxy-1-methyl-2-[1-methyl-1-[[(phenylmethoxy)carbonyl]amino]ethyl]-6-oxo-, methyl ester;Methyl 1,6-dihydro-5-hydroxy-1-methyl-2-[1-methyl-1-[[(phenylmethoxy)carbonyl]amino]ethyl]-6-oxo-4-pyrimidinecarboxylate;2-(1-Benzyloxycarbonylamino-1-methylethyl)-5-hydroxy-1-methyl-6-oxo-1,6-dihydropyrimidine-4-carboxylic acid Methyl Ester",
    "duplicated_cas_no": "",
    "SMILES": "C(NC(OCC1=CC=CC=C1)=O)(C)(C)C=2N(C)C(=O)C(O)=C(C(OC)=O)N2",
    "meta_data": {
        "InChI": "InChI=1S/C18H21N3O6/c1-18(2,20-17(25)27-10-11-8-6-5-7-9-11)16-19-12(15(24)26-4)13(22)14(23)21(16)3/h5-9,22H,10H2,1-4H3,(H,20,25)",
        "InChIKey": null,
        "Canonical SMILES": "O=C(OCC=1C=CC=CC1)NC(C2=NC(C(=O)OC)=C(O)C(=O)N2C)(C)C",
        "Molecular Formula": "C<sub>18</sub>H<sub>21</sub>N<sub>3</sub>O<sub>6</sub>",
        "Molecular Mass": "375.38",
        "Melting Point": "198.5-199.0 °C"
    }
}