{
    "cas_no": "10361-92-9",
    "key_name": "Yttrium trichloride",
    "cn_name": null,
    "alternate_name": "Yttrium chloride (YCl<sub>3</sub>);Yttrium trichloride;Yttrium chloride (Y<sub>2</sub>Cl<sub>6</sub>);Yttrium chloride;Yttrium(III) chloride",
    "duplicated_cas_no": "61349-33-5",
    "SMILES": "[Y](Cl)(Cl)Cl",
    "meta_data": {
        "InChI": "InChI=1S/3ClH.Y/h3*1H;/q;;;+3/p-3",
        "InChIKey": null,
        "Canonical SMILES": "Cl[Y](Cl)Cl",
        "Molecular Formula": "Cl<sub>3</sub>Y",
        "Molecular Mass": "",
        "Boiling Point": "1488 °C",
        "Melting Point": "360 °C"
    }
}