{
    "cas_no": "5058-19-5",
    "key_name": "2-Butylpyridine",
    "cn_name": "2-丁基吡啶;",
    "alternate_name": "Pyridine, 2-butyl-;2-Butylpyridine;NSC 969",
    "duplicated_cas_no": "",
    "SMILES": "C(CCC)C1=CC=CC=N1",
    "meta_data": {
        "InChI": "InChI=1S/C9H13N/c1-2-3-6-9-7-4-5-8-10-9/h4-5,7-8H,2-3,6H2,1H3",
        "InChIKey": null,
        "Canonical SMILES": "N=1C=CC=CC1CCCC",
        "Molecular Formula": "C<sub>9</sub>H<sub>13</sub>N",
        "Molecular Mass": "135.21",
        "Boiling Point": "192 °C",
        "Melting Point": "97 °C",
        "Density": "0.9135 g/cm³ @ Temp: 15 °C"
    }
}