{
    "cas_no": "54708-14-4",
    "key_name": "2,6-Dimethylbenzeneacetonitrile",
    "cn_name": null,
    "alternate_name": "Benzeneacetonitrile, 2,6-dimethyl-;Acetonitrile, (2,6-xylyl)-;2,6-Dimethylbenzeneacetonitrile;2,6-Dimethylphenylacetonitrile;2,6-Dimethylbenzyl cyanide;2-(2,6-Dimethylphenyl)acetonitrile",
    "duplicated_cas_no": "",
    "SMILES": "C(C#N)C1=C(C)C=CC=C1C",
    "meta_data": {
        "InChI": "InChI=1S/C10H11N/c1-8-4-3-5-9(2)10(8)6-7-11/h3-5H,6H2,1-2H3",
        "InChIKey": null,
        "Canonical SMILES": "N#CCC=1C(=CC=CC1C)C",
        "Molecular Formula": "C<sub>10</sub>H<sub>11</sub>N",
        "Molecular Mass": "145.20",
        "Boiling Point": "44-58 °C @ Press: 0.5 Torr",
        "Melting Point": "39.5-40.5 °C"
    }
}