{
    "cas_no": "628-12-6",
    "key_name": "2-Methoxyethyl chloroformate",
    "cn_name": "2-甲氧基氯甲酸乙酯;",
    "alternate_name": "Carbonochloridic acid, 2-methoxyethyl ester;Formic acid, chloro-, 2-methoxyethyl ester;2-Methoxyethyl chloroformate;(2-Methoxyethoxy)carbonyl chloride;Chloroformic acid 2-methoxyethyl ester;(Chloro)(2-methoxyethoxy)methanone;2-Methoxyethyl carbonochloridate;2-Methoxyethyl chloroformte;2-Methoxymethyl chloroformate",
    "duplicated_cas_no": "",
    "SMILES": "O(CCOC)C(Cl)=O",
    "meta_data": {
        "InChI": "InChI=1S/C4H7ClO3/c1-7-2-3-8-4(5)6/h2-3H2,1H3",
        "InChIKey": null,
        "Canonical SMILES": "O=C(Cl)OCCOC",
        "Molecular Formula": "C<sub>4</sub>H<sub>7</sub>ClO<sub>3</sub>",
        "Molecular Mass": "138.55",
        "Boiling Point": "58-59 °C @ Press: 13 Torr"
    }
}