{
    "cas_no": "470-69-9",
    "key_name": "1-Kestose",
    "cn_name": null,
    "alternate_name": "α-<span class=\"text-smallcaps\">D</smallcap>-Glucopyranoside, <em>O</em>-β-<smallcap>D</smallcap>-fructofuranosyl-(2→1)-β-<smallcap>D</span>-fructofuranosyl;Glucopyranoside, <em>O</em>-β-<span class=\"text-smallcaps\">D</smallcap>-fructofuranosyl-(2→1)-β-<smallcap>D</smallcap>-fructofuranosyl, α-<smallcap>D</span>-;α-<span class=\"text-smallcaps\">D</smallcap>-Glucopyranoside, <em>O</em>-β-<smallcap>D</smallcap>-fructofuranosyl-(2→1)-<em>O</em>-β-<smallcap>D</span>-fructofuranosyl-(2→1);<em>O</em>-β-<span class=\"text-smallcaps\">D</smallcap>-Fructofuranosyl-(2→1)-β-<smallcap>D</smallcap>-fructofuranosyl α-<smallcap>D</span>-glucopyranoside;1-Kestose;1<sup>F</sup>-Fructosylsucrose;1-Kestotriose;1-Fructosylsucrose;GF 2",
    "duplicated_cas_no": "7091-60-3;27233-09-6",
    "SMILES": "O([C@]1(CO[C@]2(CO)O[C@H](CO)[C@@H](O)[C@@H]2O)O[C@H](CO)[C@@H](O)[C@@H]1O)[C@H]3O[C@H](CO)[C@@H](O)[C@H](O)[C@H]3O",
    "meta_data": {
        "InChI": "InChI=1S/C18H32O16/c19-1-6-9(23)12(26)13(27)16(31-6)34-18(15(29)11(25)8(3-21)33-18)5-30-17(4-22)14(28)10(24)7(2-20)32-17/h6-16,19-29H,1-5H2/t6-,7-,8-,9-,10-,11-,12+,13-,14+,15+,16-,17-,18+/m1/s1",
        "InChIKey": null,
        "Canonical SMILES": "OCC1OC(OC2(OC(CO)C(O)C2O)COC3(OC(CO)C(O)C3O)CO)C(O)C(O)C1O",
        "Molecular Formula": "C<sub>18</sub>H<sub>32</sub>O<sub>16</sub>",
        "Molecular Mass": "504.44",
        "Melting Point": "198-200 °C"
    }
}