{
    "cas_no": "2905-61-5",
    "key_name": "2,5-Dichlorobenzoyl chloride",
    "cn_name": null,
    "alternate_name": "Benzoyl chloride, 2,5-dichloro-;2,5-Dichlorobenzoyl chloride;NSC 41887;2,5-Dichlorobenzoic acid chloride",
    "duplicated_cas_no": "",
    "SMILES": "C(Cl)(=O)C1=C(Cl)C=CC(Cl)=C1",
    "meta_data": {
        "InChI": "InChI=1S/C7H3Cl3O/c8-4-1-2-6(9)5(3-4)7(10)11/h1-3H",
        "InChIKey": null,
        "Canonical SMILES": "O=C(Cl)C1=CC(Cl)=CC=C1Cl",
        "Molecular Formula": "C<sub>7</sub>H<sub>3</sub>Cl<sub>3</sub>O",
        "Molecular Mass": "209.46",
        "Boiling Point": "126-130 °C @ Press: 14 Torr"
    }
}