{
    "cas_no": "2566-34-9",
    "key_name": "α-(Methylamino)isobutyric acid",
    "cn_name": "2-甲氨基异丁酸;",
    "alternate_name": "Alanine, <em>N</em>,2-dimethyl-;<em>N</em>,2-Dimethylalanine;<em>N</em>-Methyl-α-aminoisobutyric acid;α-(Methylamino)isobutyric acid;2-(<em>N</em>-Methylamino)isobutyric acid;<em>N</em>-Methyl-2-amino-isobutyric acid;<em>N</em>-Methyl-2-methylalanine;2-(Methylamino)isobutyric acid;2-Methyl-2-(methylamino)propanoic acid",
    "duplicated_cas_no": "",
    "SMILES": "C(C(O)=O)(NC)(C)C",
    "meta_data": {
        "InChI": "InChI=1S/C5H11NO2/c1-5(2,6-3)4(7)8/h6H,1-3H3,(H,7,8)",
        "InChIKey": null,
        "Canonical SMILES": "O=C(O)C(NC)(C)C",
        "Molecular Formula": "C<sub>5</sub>H<sub>11</sub>NO<sub>2</sub>",
        "Molecular Mass": "117.15",
        "Melting Point": "272 °C (sublm)"
    }
}