{
    "cas_no": "140-11-4",
    "key_name": "Benzyl acetate",
    "cn_name": "乙酸苄酯;乙酸苯甲酯;",
    "alternate_name": "Acetic acid, phenylmethyl ester;Acetic acid, benzyl ester;Benzyl alcohol, acetate;Benzyl acetate;Benzyl ethanoate;α-Acetoxytoluene;(Acetoxymethyl)benzene;Phenylmethyl acetate;NSC 4550;Jeffsol AG 1705;Jeffsol AG 1700",
    "duplicated_cas_no": "",
    "SMILES": "C(OC(C)=O)C1=CC=CC=C1",
    "meta_data": {
        "InChI": "InChI=1S/C9H10O2/c1-8(10)11-7-9-5-3-2-4-6-9/h2-6H,7H2,1H3",
        "InChIKey": null,
        "Canonical SMILES": "O=C(OCC=1C=CC=CC1)C",
        "Molecular Formula": "C<sub>9</sub>H<sub>10</sub>O<sub>2</sub>",
        "Molecular Mass": "150.17",
        "Boiling Point": "213 °C",
        "Melting Point": "-51 °C",
        "Density": "1.050 g/cm³ @ Temp: 25 °C"
    }
}