{
    "cas_no": "19952-47-7",
    "key_name": "2-Amino-4-chlorobenzothiazole",
    "cn_name": "2-氨基-4-氯苯并噻唑;",
    "alternate_name": "2-Benzothiazolamine, 4-chloro-;Benzothiazole, 2-amino-4-chloro-;4-Chloro-2-benzothiazolamine;2-Amino-4-chlorobenzothiazole;4-Chloro-1,3-benzothiazol-2-ylamine;(4-Chlorobenzothiazol-2-yl)amine;4-Chloro-1,3-benzothiazol-2-amine;2-Amino-4-chloro-1,3-benzothiazole;4-Chlorobenzo[<em>d</em>]thiazol-2-amine",
    "duplicated_cas_no": "",
    "SMILES": "ClC1=C2C(SC(N)=N2)=CC=C1",
    "meta_data": {
        "InChI": "InChI=1S/C7H5ClN2S/c8-4-2-1-3-5-6(4)10-7(9)11-5/h1-3H,(H2,9,10)",
        "InChIKey": null,
        "Canonical SMILES": "ClC1=CC=CC=2SC(=NC12)N",
        "Molecular Formula": "C<sub>7</sub>H<sub>5</sub>ClN<sub>2</sub>S",
        "Molecular Mass": "184.65",
        "Melting Point": "203 °C"
    }
}