{
    "cas_no": "3529-87-1",
    "key_name": "1-Isothiocyanato-4-phenoxybenzene",
    "cn_name": null,
    "alternate_name": "Benzene, 1-isothiocyanato-4-phenoxy-;Isothiocyanic acid, <em>p</em>-phenoxyphenyl ester;1-Isothiocyanato-4-phenoxybenzene;4-Isothiocyanatodiphenyl ether;4-Phenoxyphenyl isothiocyanate",
    "duplicated_cas_no": "",
    "SMILES": "O(C1=CC=C(N=C=S)C=C1)C2=CC=CC=C2",
    "meta_data": {
        "InChI": "InChI=1S/C13H9NOS/c16-10-14-11-6-8-13(9-7-11)15-12-4-2-1-3-5-12/h1-9H",
        "InChIKey": null,
        "Canonical SMILES": "S=C=NC1=CC=C(OC=2C=CC=CC2)C=C1",
        "Molecular Formula": "C<sub>13</sub>H<sub>9</sub>NOS",
        "Molecular Mass": "227.28",
        "Boiling Point": "143 °C @ Press: 0.2 Torr",
        "Melting Point": "42 °C"
    }
}