{
    "cas_no": "40877-09-6",
    "key_name": "4-Chloro-1-(4-chlorophenyl)-1-butanone",
    "cn_name": "4,4\"-二氯苯丁酮;",
    "alternate_name": "1-Butanone, 4-chloro-1-(4-chlorophenyl)-;Butyrophenone, 4,4′-dichloro-;4-Chloro-1-(4-chlorophenyl)-1-butanone;4,4′-Dichlorobutyrophenone;4-Chlorophenyl 3-chloropropyl ketone",
    "duplicated_cas_no": "",
    "SMILES": "C(CCCCl)(=O)C1=CC=C(Cl)C=C1",
    "meta_data": {
        "InChI": "InChI=1S/C10H10Cl2O/c11-7-1-2-10(13)8-3-5-9(12)6-4-8/h3-6H,1-2,7H2",
        "InChIKey": null,
        "Canonical SMILES": "O=C(C1=CC=C(Cl)C=C1)CCCCl",
        "Molecular Formula": "C<sub>10</sub>H<sub>10</sub>Cl<sub>2</sub>O",
        "Molecular Mass": "217.09",
        "Boiling Point": "153-155 °C @ Press: 2 Torr",
        "Melting Point": "28-31 °C",
        "Density": "1.2575 g/cm³ @ Temp: 20 °C"
    }
}