{
    "cas_no": "57822-06-7",
    "key_name": "5-Oxoazelaic acid",
    "cn_name": "5-氧代癸二酸;",
    "alternate_name": "Nonanedioic acid, 5-oxo-;5-Oxononanedioic acid;5-Oxoazelaic acid;NSC 111667;NSC 134496",
    "duplicated_cas_no": "",
    "SMILES": "C(CCCC(O)=O)(CCCC(O)=O)=O",
    "meta_data": {
        "InChI": "InChI=1S/C9H14O5/c10-7(3-1-5-8(11)12)4-2-6-9(13)14/h1-6H2,(H,11,12)(H,13,14)",
        "InChIKey": null,
        "Canonical SMILES": "O=C(O)CCCC(=O)CCCC(=O)O",
        "Molecular Formula": "C<sub>9</sub>H<sub>14</sub>O<sub>5</sub>",
        "Molecular Mass": "202.20",
        "Melting Point": "91-93 °C"
    }
}