{
    "cas_no": "90-22-2",
    "key_name": "Valethamate bromide",
    "cn_name": "戊沙溴铵;二乙基(甲基)(2-(3-甲基-2-苯基戊酰氧基)乙基)溴化铵;",
    "alternate_name": "Ethanaminium, <em>N</em>,<em>N</em>-diethyl-<em>N</em>-methyl-2-[(3-methyl-1-oxo-2-phenylpentyl)oxy]-, bromide (1:1);Ammonium, diethyl(2-hydroxyethyl)methyl-, bromide, 3-methyl-2-phenylvalerate;Diethyl(2-hydroxyethyl)methylammonium bromide 3-methyl-2-phenylvalerate;Ethanaminium, <em>N</em>,<em>N</em>-diethyl-<em>N</em>-methyl-2-[(3-methyl-1-oxo-2-phenylpentyl)oxy]-, bromide;Valeric acid, 3-methyl-2-phenyl-, ester with diethyl(2-hydroxyethyl)methylammonium bromide;2-Diethylaminoethyl 3-methyl-2-phenylvalerate methylbromide;2-Diethylaminoethyl 2-phenyl-3-methylvalerate methyl bromide;Diethyl(2-hydroxyethyl)methylammonium 3-methyl-2-phenylvalerate bromide;Epidosin;3-Methyl-2-phenylvaleric acid 2-diethylaminoethyl ester methyl bromide;3-Methyl-2-phenylvaleric acid diethyl(2-hydroxyethyl)methylammonium bromide ester;Murel;2-Phenyl-3-methylvaleric acid β-(diethylamino)ethyl ester bromomethylate;Valethamate bromide;Resitan;Elist;Epidosan;Letamate;S 78;Velamate;Release V;Barespan",
    "duplicated_cas_no": "",
    "SMILES": "C(C(OCC[N+](CC)(CC)C)=O)(C(CC)C)C1=CC=CC=C1.[Br-]",
    "meta_data": {
        "InChI": "InChI=1S/C19H32NO2.BrH/c1-6-16(4)18(17-12-10-9-11-13-17)19(21)22-15-14-20(5,7-2)8-3;/h9-13,16,18H,6-8,14-15H2,1-5H3;1H/q+1;/p-1",
        "InChIKey": null,
        "Canonical SMILES": "[Br-].O=C(OCC[N+](C)(CC)CC)C(C=1C=CC=CC1)C(C)CC",
        "Molecular Formula": "C<sub>19</sub>H<sub>32</sub>NO<sub>2</sub>.Br",
        "Molecular Mass": "",
        "Melting Point": "101.5 °C"
    }
}