{
    "cas_no": "56718-70-8",
    "key_name": "2-[[4-(2-Methoxyethyl)phenoxy]methyl]oxirane",
    "cn_name": "3-[4-(2-甲氧乙基)苯氧基]-1,2-环氧丙烷;1-(2-甲氧乙基)-4-(2,3-环氧丙氧基)苯;{[4-(2-甲氧乙基)苯氧基]甲;",
    "alternate_name": "Oxirane, 2-[[4-(2-methoxyethyl)phenoxy]methyl]-;Oxirane, [[4-(2-methoxyethyl)phenoxy]methyl]-;2-[[4-(2-Methoxyethyl)phenoxy]methyl]oxirane;MEEPB;1-[<em>p</em>-(2-Methoxyethyl)-phenoxy]-2,3-epoxy-propane;3-[4-(2-Methoxyethyl)phenoxy]-1,2-epoxypropane",
    "duplicated_cas_no": "129940-15-4;74027-55-7",
    "SMILES": "C(OC1=CC=C(CCOC)C=C1)C2CO2",
    "meta_data": {
        "InChI": "InChI=1S/C12H16O3/c1-13-7-6-10-2-4-11(5-3-10)14-8-12-9-15-12/h2-5,12H,6-9H2,1H3",
        "InChIKey": null,
        "Canonical SMILES": "O(C1=CC=C(C=C1)CCOC)CC2OC2",
        "Molecular Formula": "C<sub>12</sub>H<sub>16</sub>O<sub>3</sub>",
        "Molecular Mass": "208.25",
        "Melting Point": "67-68 °C"
    }
}