{
    "cas_no": "17462-58-7",
    "key_name": "1-Methylpropyl carbonochloridate",
    "cn_name": "仲丁基氯甲酸酯;氯甲酸仲丁酯;",
    "alternate_name": "Carbonochloridic acid, 1-methylpropyl ester;Formic acid, chloro-, <em>sec</em>-butyl ester;1-Methylpropyl carbonochloridate;<em>sec</em>-Butyl chloroformate;Chloroformic acid <em>sec</em>-butyl ester;But-2-yl chloroformate",
    "duplicated_cas_no": "56516-00-8",
    "SMILES": "C(OC(Cl)=O)(CC)C",
    "meta_data": {
        "InChI": "InChI=1S/C5H9ClO2/c1-3-4(2)8-5(6)7/h4H,3H2,1-2H3",
        "InChIKey": null,
        "Canonical SMILES": "O=C(Cl)OC(C)CC",
        "Molecular Formula": "C<sub>5</sub>H<sub>9</sub>ClO<sub>2</sub>",
        "Molecular Mass": "136.58",
        "Boiling Point": "126 °C"
    }
}