{
    "cas_no": "609-89-2",
    "key_name": "2,4-Dichloro-6-nitrophenol",
    "cn_name": "2,4-二氯-6-硝基苯酚;",
    "alternate_name": "Phenol, 2,4-dichloro-6-nitro-;2,4-Dichloro-6-nitrophenol;2-Nitro-4,6-dichlorophenol;4,6-Dichloro-2-nitrophenol;NSC 38660;NSC 39606",
    "duplicated_cas_no": "",
    "SMILES": "N(=O)(=O)C1=C(O)C(Cl)=CC(Cl)=C1",
    "meta_data": {
        "InChI": "InChI=1S/C6H3Cl2NO3/c7-3-1-4(8)6(10)5(2-3)9(11)12/h1-2,10H",
        "InChIKey": null,
        "Canonical SMILES": "O=N(=O)C=1C=C(Cl)C=C(Cl)C1O",
        "Molecular Formula": "C<sub>6</sub>H<sub>3</sub>Cl<sub>2</sub>NO<sub>3</sub>",
        "Molecular Mass": "208.00",
        "Melting Point": "122 °C"
    }
}