{
    "cas_no": "641-38-3",
    "key_name": "Alternariol",
    "cn_name": null,
    "alternate_name": "6<em>H</em>-Dibenzo[<em>b</em>,<em>d</em>]pyran-6-one, 3,7,9-trihydroxy-1-methyl-;Alternariol;3,7,9-Trihydroxy-1-methyl-6<em>H</em>-dibenzo[<em>b</em>,<em>d</em>]pyran-6-one;NSC 638263;3,7,9-Trihydroxy-1-methylbenzo[<em>c</em>]chromen-6-one",
    "duplicated_cas_no": "11003-13-7",
    "SMILES": "CC1=C2C=3C(C(=O)OC2=CC(O)=C1)=C(O)C=C(O)C3",
    "meta_data": {
        "InChI": "InChI=1S/C14H10O5/c1-6-2-7(15)5-11-12(6)9-3-8(16)4-10(17)13(9)14(18)19-11/h2-5,15-17H,1H3",
        "InChIKey": null,
        "Canonical SMILES": "O=C1OC2=CC(O)=CC(=C2C=3C=C(O)C=C(O)C13)C",
        "Molecular Formula": "C<sub>14</sub>H<sub>10</sub>O<sub>5</sub>",
        "Molecular Mass": "258.23",
        "Melting Point": "350 °C"
    }
}