{
    "cas_no": "2114-42-3",
    "key_name": "Allylcyclohexane",
    "cn_name": "丙烯基环庚烷;",
    "alternate_name": "Cyclohexane, 2-propen-1-yl-;Cyclohexane, allyl-;Cyclohexane, 2-propenyl-;2-Propen-1-ylcyclohexane;1-Propene, 3-cyclohexyl-;1-Cyclohexyl-2-propene;Allylcyclohexane;3-Cyclohexyl-1-propene;Allycyclohexane;2-Propenyl cyclohexane;NSC 110882",
    "duplicated_cas_no": "",
    "SMILES": "C(C=C)C1CCCCC1",
    "meta_data": {
        "InChI": "InChI=1S/C9H16/c1-2-6-9-7-4-3-5-8-9/h2,9H,1,3-8H2",
        "InChIKey": null,
        "Canonical SMILES": "C=CCC1CCCCC1",
        "Molecular Formula": "C<sub>9</sub>H<sub>16</sub>",
        "Molecular Mass": "124.22",
        "Boiling Point": "132 °C",
        "Density": "0.8156 g/cm³ @ Temp: 20 °C"
    }
}