{
    "cas_no": "826-74-4",
    "key_name": "1-Vinylnaphthalene",
    "cn_name": "1-乙烯萘酯;",
    "alternate_name": "Naphthalene, 1-ethenyl-;Naphthalene, 1-vinyl-;1-Ethenylnaphthalene;α-Vinylnaphthalene;1-Vinylnaphthalene;(Naphthalen-1-yl)ethene",
    "duplicated_cas_no": "1887074-75-0",
    "SMILES": "C(=C)C=1C2=C(C=CC1)C=CC=C2",
    "meta_data": {
        "InChI": "InChI=1S/C12H10/c1-2-10-7-5-8-11-6-3-4-9-12(10)11/h2-9H,1H2",
        "InChIKey": null,
        "Canonical SMILES": "C=CC1=CC=CC=2C=CC=CC12",
        "Molecular Formula": "C<sub>12</sub>H<sub>10</sub>",
        "Molecular Mass": "154.21",
        "Boiling Point": "135-138 °C @ Press: 15 Torr",
        "Melting Point": "64-66 °C",
        "Density": "1.034 g/cm³ @ Temp: 20 °C"
    }
}