{
    "cas_no": "7568-93-6",
    "key_name": "(±)-Phenylethanolamine",
    "cn_name": null,
    "alternate_name": "Benzenemethanol, α-(aminomethyl)-;Benzyl alcohol, α-(aminomethyl)-;α-(Aminomethyl)benzenemethanol;β-Phenylethanolamine;Bisnorephedrine;β-Hydroxyphenylethylamine;Benzeneethanamine, β-hydroxy-;2-Hydroxy-2-phenylethylamine;2-Phenyl-2-hydroxyethylamine;Phenylethanolamine;β-Hydroxyphenethylamine;β-Phenethanolamine;2-Amino-1-phenylethanol;α-(Aminomethyl)benzyl alcohol;Phenethanolamine;β-Hydroxy-β-phenylethylamine;1-Phenyl-2-aminoethanol;Apophedrin;2-Amino-1-phenyl-1-ethanol;1-Phenyl-1-hydroxy-2-aminoethane;(±)-Phenylethanolamine;<span class=\"text-smallcaps\">DL</span>-β-Hydroxy-β-phenethylamine;(±)-2-Amino-1-phenylethanol;<em>dl</em>-Phenylethanolamine;<em>dl</em>-β-Hydroxyphenylethylamine;(±)-α-Phenylglycinol;(±)-1-Phenylethanolamine;(±)-β-Hydroxyphenethylamine;1-Phenylethanolamine;<em>rac</em>-2-Amino-1-phenylethanol;NSC 46837;NSC 5021;(<em>RS</em>)-2-Amino-1-phenylethanol",
    "duplicated_cas_no": "73-59-6;1477-64-1;1936-63-6",
    "SMILES": "C(CN)(O)C1=CC=CC=C1",
    "meta_data": {
        "InChI": "InChI=1S/C8H11NO/c9-6-8(10)7-4-2-1-3-5-7/h1-5,8,10H,6,9H2",
        "InChIKey": null,
        "Canonical SMILES": "OC(C=1C=CC=CC1)CN",
        "Molecular Formula": "C<sub>8</sub>H<sub>11</sub>NO",
        "Molecular Mass": "137.18",
        "Boiling Point": "160 °C",
        "Melting Point": "56.5 °C"
    }
}