{
    "cas_no": "1111-97-3",
    "key_name": "3-Chloro-3-methyl-1-butyne",
    "cn_name": "3-氯-3-甲基-1-丁炔;",
    "alternate_name": "1-Butyne, 3-chloro-3-methyl-;3-Chloro-3-methyl-1-butyne;3-Methyl-3-chloro-1-butyne;2-Chloro-2-methyl-3-butyne;2-Methyl-2-chloro-3-butyne;3-Chloro-3-methylbutyne;α,α-Dimethylpropargyl chloride;3-Methyl-3-chlorobutyne;3-Methyl-1-butyn-3-yl chloride;NSC 16173;2-Methyl-3-butyn-2-yl chloride",
    "duplicated_cas_no": "",
    "SMILES": "C(C#C)(C)(C)Cl",
    "meta_data": {
        "InChI": "InChI=1S/C5H7Cl/c1-4-5(2,3)6/h1H,2-3H3",
        "InChIKey": null,
        "Canonical SMILES": "ClC(C#C)(C)C",
        "Molecular Formula": "C<sub>5</sub>H<sub>7</sub>Cl",
        "Molecular Mass": "102.56",
        "Boiling Point": "76 °C",
        "Melting Point": "-61 °C",
        "Density": "0.013 g/cm³ @ Temp: 18 °C"
    }
}