{
    "cas_no": "39478-78-9",
    "key_name": "5-Bromo-2-methylbenzenamine",
    "cn_name": null,
    "alternate_name": "Benzenamine, 5-bromo-2-methyl-;5-Bromo-2-methylbenzenamine;2-Amino-4-bromotoluene;2-Methyl-5-bromoaniline;5-Bromo-2-methylaniline;3-Bromo-6-methylaniline;5-Bromo-2-methylphenylamine",
    "duplicated_cas_no": "",
    "SMILES": "NC1=C(C)C=CC(Br)=C1",
    "meta_data": {
        "InChI": "InChI=1S/C7H8BrN/c1-5-2-3-6(8)4-7(5)9/h2-4H,9H2,1H3",
        "InChIKey": null,
        "Canonical SMILES": "BrC1=CC=C(C(N)=C1)C",
        "Molecular Formula": "C<sub>7</sub>H<sub>8</sub>BrN",
        "Molecular Mass": "186.05",
        "Boiling Point": "139 °C @ Press: 17 Torr",
        "Melting Point": "33 °C"
    }
}