{
    "cas_no": "163061-74-3",
    "key_name": "(1<em>S</em>,2<em>S</em>)-1-Amino-2-indanol",
    "cn_name": null,
    "alternate_name": "1<em>H</em>-Inden-2-ol, 1-amino-2,3-dihydro-, (1<em>S</em>,2<em>S</em>)-;1<em>H</em>-Inden-2-ol, 1-amino-2,3-dihydro-, (1<em>S</em>-<em>trans</em>)-;(1<em>S</em>,2<em>S</em>)-1-Amino-2,3-dihydro-1<em>H</em>-inden-2-ol;(1<em>S</em>,2<em>S</em>)-1-Amino-2-indanol;<em>trans</em>-(1<em>S</em>,2<em>S</em>)-1-Amino-2-indanol;(<em>S</em>,<em>S</em>)-1-Amino-2-hydroxyindane;(1<em>S</em>,2<em>S</em>)-(+)-1-Amino-2-indanol;(+)-<em>trans</em>-1-Amino-2-indanol;(1S,2S)-1-Amino-2,3-dihydro-1-inden-2-ol",
    "duplicated_cas_no": "173936-68-0",
    "SMILES": "N[C@H]1C=2C(C[C@@H]1O)=CC=CC2",
    "meta_data": {
        "InChI": "InChI=1S/C9H11NO/c10-9-7-4-2-1-3-6(7)5-8(9)11/h1-4,8-9,11H,5,10H2/t8-,9-/m0/s1",
        "InChIKey": null,
        "Canonical SMILES": "OC1CC=2C=CC=CC2C1N",
        "Molecular Formula": "C<sub>9</sub>H<sub>11</sub>NO",
        "Molecular Mass": "149.19",
        "Melting Point": "144-145 °C"
    }
}