{
    "cas_no": "20196-21-8",
    "key_name": "3-Thiomorpholinone",
    "cn_name": null,
    "alternate_name": "3-Thiomorpholinone;3-Oxothiomorpholine;NSC 27540;1,4-Thiazinan-3-one",
    "duplicated_cas_no": "",
    "SMILES": "O=C1CSCCN1",
    "meta_data": {
        "InChI": "InChI=1S/C4H7NOS/c6-4-3-7-2-1-5-4/h1-3H2,(H,5,6)",
        "InChIKey": null,
        "Canonical SMILES": "O=C1NCCSC1",
        "Molecular Formula": "C<sub>4</sub>H<sub>7</sub>NOS",
        "Molecular Mass": "117.17",
        "Boiling Point": "185 °C @ Press: 18 Torr",
        "Melting Point": "87-89 °C"
    }
}