{
    "cas_no": "120-78-5",
    "key_name": "Accelerator DM",
    "cn_name": "二硫化二苯并噻唑;橡胶促进剂DM;",
    "alternate_name": "Benzothiazole, 2,2′-dithiobis-;2,2′-Dithiobis[benzothiazole];Altax;Benzothiazole disulfide;Benzothiazolyl disulfide;2-Benzothiazolyl disulfide;Benzothiazyl disulfide;Bis(2-benzothiazolyl) disulfide;Bis(2-benzothiazyl) disulfide;Dibenzothiazyl disulfide;Dibenzthiazyl disulfide;MBTS;MBTS rubber accelerator;2-Mercaptobenzothiazole disulfide;Royal MBTS;Thiofide;Dibenzothiazolyl disulfide;Di-2-benzothiazolyl disulfide;2,2′-Dibenzothiazolyl disulfide;Pneumax DM;Vulcafor MBTS;Vulkacit DM;Ekagom GS;2,2′-Benzothiazyl disulfide;2-Benzothiazyl disulfide;Vulkacit DM/C;Accel TM;Nocceler DM;Merasulf MBTS;Nocceler DM-PO;DBTD;Wobezit DM;Sanceler DM;2,2′-Benzothiazolyl disulfide;Accel DM;Vulkacit DM/MG;2,2′-Dibenzothiazole disulfide;NSC 677459;Soxinol DM;Vulkafil ZN 96TT11;Perkacit MBTS;Thiofide MBTS;DM;DM (accelerator);Tiazol 2MBS;NSC 2;1,2-Bis(2-benzothiazolyl) disulfide;Bis(benzothiazol-2-yl)disulfide;Accelerator DM;Oricel DM;Quick Accelerator 200;Dibenzothiophene disulfide;Sanceler DM-G;OCITS;Naugex MBTS;Dispraktol K 16;DM 80 (vulcanizer);DM 80;Thiazole 2MBS;Accelerator MBTS;2,2′-Benzothiazole disulfide;Rhenogran MBTS 70;Rhenogran MBTS 80;MBTS 75;Rhenogran MBTS 75;Sunsine Mets;Thanecure ZM;DZ 42;Sunsine MBTS;1,2-Bis(benzo[<em>d</em>]thiazol-2-yl)disulfane;2,2′-Dithiobis-1,3-benzothiazole;Promoter DM;Rhenogran MBTS;2-(1,3-Benzothiazol-2-yldisulfanyl)-1,3-benzothiazole;MBTS MG;Luvomaxx MBTS-GR 80;MBTS 80;Naugex MBTSW;Volcacit M",
    "duplicated_cas_no": "109767-80-8;137497-18-8;186983-60-8;258278-97-6;2293932-50-8",
    "SMILES": "S(SC1=NC=2C(S1)=CC=CC2)C3=NC=4C(S3)=CC=CC4",
    "meta_data": {
        "InChI": "InChI=1S/C14H8N2S4/c1-3-7-11-9(5-1)15-13(17-11)19-20-14-16-10-6-2-4-8-12(10)18-14/h1-8H",
        "InChIKey": null,
        "Canonical SMILES": "N1=C(SSC2=NC=3C=CC=CC3S2)SC=4C=CC=CC14",
        "Molecular Formula": "C<sub>14</sub>H<sub>8</sub>N<sub>2</sub>S<sub>4</sub>",
        "Molecular Mass": "332.49",
        "Melting Point": "180 °C",
        "Density": "1.50 g/cm³"
    }
}