{
    "cas_no": "99-42-3",
    "key_name": "Methyl 4-hydroxy-3-nitrobenzoate",
    "cn_name": "3-硝基-4-羟基苯甲酸甲酯;4-羟基-3-硝基苯甲酸甲酯;",
    "alternate_name": "Benzoic acid, 4-hydroxy-3-nitro-, methyl ester;4-Hydroxy-3-nitrobenzoic acid methyl ester;Methyl 4-hydroxy-3-nitrobenzoate;4-(Methoxycarbonyl)-2-nitrophenol;Methyl 3-nitro-4-hydroxybenzoate;NSC 28667;3-Nitro-4-hydroxybenzoic acid methyl ester",
    "duplicated_cas_no": "",
    "SMILES": "C(OC)(=O)C1=CC(N(=O)=O)=C(O)C=C1",
    "meta_data": {
        "InChI": "InChI=1S/C8H7NO5/c1-14-8(11)5-2-3-7(10)6(4-5)9(12)13/h2-4,10H,1H3",
        "InChIKey": null,
        "Canonical SMILES": "O=C(OC)C1=CC=C(O)C(=C1)N(=O)=O",
        "Molecular Formula": "C<sub>8</sub>H<sub>7</sub>NO<sub>5</sub>",
        "Molecular Mass": "197.14",
        "Melting Point": "75-76 °C"
    }
}