{
    "cas_no": "1766-76-3",
    "key_name": "Bis(pentafluorophenyl)methanol",
    "cn_name": "十氟二苯甲醇;",
    "alternate_name": "Benzenemethanol, 2,3,4,5,6-pentafluoro-α-(2,3,4,5,6-pentafluorophenyl)-;Benzhydrol, 2,2′,3,3′,4,4′,5,5′,6,6′-decafluoro-;Benzenemethanol, 2,3,4,5,6-pentafluoro-α-(pentafluorophenyl)-;2,3,4,5,6-Pentafluoro-α-(2,3,4,5,6-pentafluorophenyl)benzenemethanol;Bis(pentafluorophenyl)methanol;NSC 97029;Decafluorobenzhydrol",
    "duplicated_cas_no": "",
    "SMILES": "C(O)(C1=C(F)C(F)=C(F)C(F)=C1F)C2=C(F)C(F)=C(F)C(F)=C2F",
    "meta_data": {
        "InChI": "InChI=1S/C13H2F10O/c14-3-1(4(15)8(19)11(22)7(3)18)13(24)2-5(16)9(20)12(23)10(21)6(2)17/h13,24H",
        "InChIKey": null,
        "Canonical SMILES": "FC=1C(F)=C(F)C(=C(F)C1F)C(O)C=2C(F)=C(F)C(F)=C(F)C2F",
        "Molecular Formula": "C<sub>13</sub>H<sub>2</sub>F<sub>10</sub>O",
        "Molecular Mass": "364.14",
        "Melting Point": "79-80 °C"
    }
}