{
    "cas_no": "1438-79-5",
    "key_name": "Vinylpentamethyldisiloxane",
    "cn_name": null,
    "alternate_name": "Disiloxane, 1-ethenyl-1,1,3,3,3-pentamethyl-;Disiloxane, pentamethylvinyl-;Disiloxane, ethenylpentamethyl-;1-Ethenyl-1,1,3,3,3-pentamethyldisiloxane;Pentamethylvinyldisiloxane;1,1,1,3,3-Pentamethyl-3-vinyldisiloxane;Dimethyl(trimethylsilyloxy)vinylsilane;Vinylpentamethyldisiloxane;1,1,3,3,3-Pentamethyl-1-vinyldisiloxane;SIV 9090;Dimethyl(trimethylsiloxy)(vinyl)silane;Pentamethyl-1-vinyldisiloxane;1-Vinyl-1,1,3,3,3-pentamethyldisiloxane",
    "duplicated_cas_no": "",
    "SMILES": "O([Si](C=C)(C)C)[Si](C)(C)C",
    "meta_data": {
        "InChI": "InChI=1S/C7H18OSi2/c1-7-10(5,6)8-9(2,3)4/h7H,1H2,2-6H3",
        "InChIKey": null,
        "Canonical SMILES": "O([Si](C=C)(C)C)[Si](C)(C)C",
        "Molecular Formula": "C<sub>7</sub>H<sub>18</sub>OSi<sub>2</sub>",
        "Molecular Mass": "174.39",
        "Boiling Point": "120 °C",
        "Density": "0.787 g/cm³"
    }
}