{
    "cas_no": "546-67-8",
    "key_name": "Lead tetraacetate",
    "cn_name": "四乙酸铅;醋酸高铅;",
    "alternate_name": "Acetic acid, lead(4+) salt (4:1);Acetic acid, lead(4+) salt;Lead tetraacetate;Lead acetate (Pb(O<sub>2</sub>C<sub>2</sub>H<sub>3</sub>)<sub>4</sub>);Lead acetate [Pb(OAc)<sub>4</sub>];Lead(IV) acetate;Plumbic acetate;LTA;Lead(IV) tetraacetate;Lead(4+) acetate",
    "duplicated_cas_no": "612524-90-0",
    "SMILES": "C(C)(O)=O.[Pb]",
    "meta_data": {
        "InChI": "InChI=1S/C2H4O2.Pb/c1-2(3)4;/h1H3,(H,3,4);",
        "InChIKey": null,
        "Canonical SMILES": "[Pb].O=C(O)C",
        "Molecular Formula": "C<sub>2</sub>H<sub>4</sub>O<sub>2</sub>.<sup>1</sup>/<sub>4</sub>Pb",
        "Molecular Mass": "",
        "Melting Point": "175 °C",
        "Density": "2.228 g/cm³ @ Temp: 17 °C"
    }
}