{
    "cas_no": "623-57-4",
    "key_name": "3-(Dimethylamino)-1,2-propanediol",
    "cn_name": "3-二甲胺基-1,2-丙二醇;N,N-二甲基-3-氨基-1,2-丙二醇;",
    "alternate_name": "1,2-Propanediol, 3-(dimethylamino)-;3-(Dimethylamino)-1,2-propanediol;Methicol;1,2-Dihydroxy-3-(dimethylamino)propane;(±)-3-(Dimethylamino)-1,2-propanediol;NSC 8655",
    "duplicated_cas_no": "98923-15-0",
    "SMILES": "C(CN(C)C)(CO)O",
    "meta_data": {
        "InChI": "InChI=1S/C5H13NO2/c1-6(2)3-5(8)4-7/h5,7-8H,3-4H2,1-2H3",
        "InChIKey": null,
        "Canonical SMILES": "OCC(O)CN(C)C",
        "Molecular Formula": "C<sub>5</sub>H<sub>13</sub>NO<sub>2</sub>",
        "Molecular Mass": "119.16",
        "Boiling Point": "216-220 °C"
    }
}