{
    "cas_no": "329-65-7",
    "key_name": "(±)-Adrenaline",
    "cn_name": "消旋肾上腺素;1-(3,4-二羟基苯基)-2-(甲基氨基)乙醇;",
    "alternate_name": "1,2-Benzenediol, 4-[1-hydroxy-2-(methylamino)ethyl]-;Benzyl alcohol, 3,4-dihydroxy-α-[(methylamino)methyl]-, (±)-;1,2-Benzenediol, 4-[1-hydroxy-2-(methylamino)ethyl]-, (±)-;4-[1-Hydroxy-2-(methylamino)ethyl]-1,2-benzenediol;Epirenamine;(±)-Adrenaline;<em>dl</em>-Epinephrine;(±)-Epinephrine;<em>dl</em>-Adrenaline;<span class=\"text-smallcaps\">DL</span>-Adrenaline;Racepinefrine;2-(Methylamino)-1-(3,4-dihydroxyphenyl)ethanol;1-(3,4-Dihydroxy)phenyl-2-methylaminoethanol;Racepinephrine;2-Hydroxy-4-[1-hydroxy-2-(methylazaniumyl)ethyl]phenolate;MeSH ID: D064705",
    "duplicated_cas_no": "6912-68-1;8059-19-6;8060-13-7",
    "SMILES": "C(CNC)(O)C1=CC(O)=C(O)C=C1",
    "meta_data": {
        "InChI": "InChI=1S/C9H13NO3/c1-10-5-9(13)6-2-3-7(11)8(12)4-6/h2-4,9-13H,5H2,1H3",
        "InChIKey": null,
        "Canonical SMILES": "OC1=CC=C(C=C1O)C(O)CNC",
        "Molecular Formula": "C<sub>9</sub>H<sub>13</sub>NO<sub>3</sub>",
        "Molecular Mass": "183.20",
        "Melting Point": "212 °C"
    }
}