{
    "cas_no": "766-39-2",
    "key_name": "Dimethylmaleic anhydride",
    "cn_name": "2,3-二甲基马来酸酐;二甲基马来酸酐;二甲基顺丁烯二酸酐;",
    "alternate_name": "2,5-Furandione, 3,4-dimethyl-;Maleic anhydride, dimethyl-;Pyrocinchonic anhydride;3,4-Dimethyl-2,5-furandione;2,3-Dimethylmaleic anhydride;Dimethylmaleic anhydride;Dimethylmaleic acid anhydride;NSC 92512;2,3-Dimethylmalonic anhydride",
    "duplicated_cas_no": "",
    "SMILES": "CC1=C(C)C(=O)OC1=O",
    "meta_data": {
        "InChI": "InChI=1S/C6H6O3/c1-3-4(2)6(8)9-5(3)7/h1-2H3",
        "InChIKey": null,
        "Canonical SMILES": "O=C1OC(=O)C(=C1C)C",
        "Molecular Formula": "C<sub>6</sub>H<sub>6</sub>O<sub>3</sub>",
        "Molecular Mass": "126.11",
        "Boiling Point": "223 °C",
        "Melting Point": "96 °C",
        "Density": "1.107 g/cm³ @ Temp: 100 °C"
    }
}