{
    "cas_no": "10497-05-9",
    "key_name": "Tris(trimethylsilyl) phosphate",
    "cn_name": null,
    "alternate_name": "Silanol, 1,1,1-trimethyl-, 1,1′,1′′-phosphate;Silanol, trimethyl-, phosphate (3:1);Tris(trimethylsilyl) phosphate;Tris(trimethylsiloxy)phosphine oxide;PC 9983",
    "duplicated_cas_no": "",
    "SMILES": "O(P(O[Si](C)(C)C)(O[Si](C)(C)C)=O)[Si](C)(C)C",
    "meta_data": {
        "InChI": "InChI=1S/C9H27O4PSi3/c1-15(2,3)11-14(10,12-16(4,5)6)13-17(7,8)9/h1-9H3",
        "InChIKey": null,
        "Canonical SMILES": "O=P(O[Si](C)(C)C)(O[Si](C)(C)C)O[Si](C)(C)C",
        "Molecular Formula": "C<sub>9</sub>H<sub>27</sub>O<sub>4</sub>PSi<sub>3</sub>",
        "Molecular Mass": "314.54",
        "Boiling Point": "85-87 °C @ Press: 4 Torr",
        "Melting Point": "2-4 °C",
        "Density": "0.959 g/cm³"
    }
}