{
    "cas_no": "90357-51-0",
    "key_name": "<em>N</em>-[4-Cyano-3-(trifluoromethyl)phenyl]-2-methyl-2-oxiranecarboxamide",
    "cn_name": null,
    "alternate_name": "2-Oxiranecarboxamide, <em>N</em>-[4-cyano-3-(trifluoromethyl)phenyl]-2-methyl-;Oxiranecarboxamide, <em>N</em>-[4-cyano-3-(trifluoromethyl)phenyl]-2-methyl-, (±)-;Oxiranecarboxamide, <em>N</em>-[4-cyano-3-(trifluoromethyl)phenyl]-2-methyl-;<em>N</em>-[4-Cyano-3-(trifluoromethyl)phenyl]-2-methyl-2-oxiranecarboxamide;2-Methyloxirane-2-carboxylic acid <em>N</em>-(4-cyano-3-trifluoromethylphenyl)amide",
    "duplicated_cas_no": "2964486-30-2",
    "SMILES": "C(NC1=CC(C(F)(F)F)=C(C#N)C=C1)(=O)C2(C)CO2",
    "meta_data": {
        "InChI": "InChI=1S/C12H9F3N2O2/c1-11(6-19-11)10(18)17-8-3-2-7(5-16)9(4-8)12(13,14)15/h2-4H,6H2,1H3,(H,17,18)",
        "InChIKey": null,
        "Canonical SMILES": "N#CC1=CC=C(C=C1C(F)(F)F)NC(=O)C2(OC2)C",
        "Molecular Formula": "C<sub>12</sub>H<sub>9</sub>F<sub>3</sub>N<sub>2</sub>O<sub>2</sub>",
        "Molecular Mass": "270.21",
        "Melting Point": "151-152 °C"
    }
}