{
    "cas_no": "1188-33-6",
    "key_name": "Dimethylformamide diethyl acetal",
    "cn_name": "N,N-二甲基甲酰胺二乙基缩醛;",
    "alternate_name": "Methanamine, 1,1-diethoxy-<em>N</em>,<em>N</em>-dimethyl-;Trimethylamine, 1,1-diethoxy-;1,1-Diethoxy-<em>N</em>,<em>N</em>-dimethylmethanamine;Formamide, <em>N</em>,<em>N</em>-dimethyl-, diethyl acetal;Dimethylformamide diethyl acetal;<em>N</em>,<em>N</em>-Dimethylformamide diethyl acetal;DMF diethyl acetal;DMF di-Et acetal;NSC 377652;(Diethoxymethyl)dimethylamine",
    "duplicated_cas_no": "",
    "SMILES": "C(OCC)(OCC)N(C)C",
    "meta_data": {
        "InChI": "InChI=1S/C7H17NO2/c1-5-9-7(8(3)4)10-6-2/h7H,5-6H2,1-4H3",
        "InChIKey": null,
        "Canonical SMILES": "O(CC)C(OCC)N(C)C",
        "Molecular Formula": "C<sub>7</sub>H<sub>17</sub>NO<sub>2</sub>",
        "Molecular Mass": "147.22",
        "Boiling Point": "129 °C"
    }
}