{
    "cas_no": "10049-83-9",
    "key_name": "Pyritinol hydrochloride",
    "cn_name": null,
    "alternate_name": "4-Pyridinemethanol, 3,3′-[dithiobis(methylene)]bis[5-hydroxy-6-methyl-, hydrochloride (1:2);4-Pyridinemethanol, 3,3′-(dithiodimethylene)bis[5-hydroxy-6-methyl-, dihydrochloride;4-Pyridinemethanol, 3,3′-[dithiobis(methylene)]bis[5-hydroxy-6-methyl-, dihydrochloride;Pyrithioxine hydrochloride;Encephabol;Enerbol;Pyriditol;Pyrithioxin hydrochloride;Pyritinol hydrochloride;Enbol;Biocefalin;Life;Pyritinol dihydrochloride",
    "duplicated_cas_no": "",
    "SMILES": "C(SSCC=1C(CO)=C(O)C(C)=NC1)C=2C(CO)=C(O)C(C)=NC2.Cl",
    "meta_data": {
        "InChI": "InChI=1S/C16H20N2O4S2.2ClH/c1-9-15(21)13(5-19)11(3-17-9)7-23-24-8-12-4-18-10(2)16(22)14(12)6-20;;/h3-4,19-22H,5-8H2,1-2H3;2*1H",
        "InChIKey": null,
        "Canonical SMILES": "Cl.OC=1C(=NC=C(C1CO)CSSCC2=CN=C(C(O)=C2CO)C)C",
        "Molecular Formula": "C<sub>16</sub>H<sub>20</sub>N<sub>2</sub>O<sub>4</sub>S<sub>2</sub>.2ClH",
        "Molecular Mass": "",
        "Melting Point": "184 °C"
    }
}