{
    "cas_no": "352-68-1",
    "key_name": "1-Methyl-4-[(trifluoromethyl)thio]benzene",
    "cn_name": null,
    "alternate_name": "Benzene, 1-methyl-4-[(trifluoromethyl)thio]-;Sulfide, <em>p</em>-tolyl trifluoromethyl;1-Methyl-4-[(trifluoromethyl)thio]benzene;4-Methylphenyl trifluoromethyl sulfide;Trifluoromethyl <em>p</em>-tolyl sulfide;4-(Trifluoromethylthio)toluene;<em>p</em>-(Trifluoromethylthio)toluene;1-Methyl-4-[(trifluoromethyl)sulfanyl]benzene;1-Methyl-4-(trifluoromethylsulfanyl)benzene",
    "duplicated_cas_no": "",
    "SMILES": "S(C(F)(F)F)C1=CC=C(C)C=C1",
    "meta_data": {
        "InChI": "InChI=1S/C8H7F3S/c1-6-2-4-7(5-3-6)12-8(9,10)11/h2-5H,1H3",
        "InChIKey": null,
        "Canonical SMILES": "FC(F)(F)SC1=CC=C(C=C1)C",
        "Molecular Formula": "C<sub>8</sub>H<sub>7</sub>F<sub>3</sub>S",
        "Molecular Mass": "192.20",
        "Boiling Point": "163-167 °C"
    }
}