{
    "cas_no": "318290-98-1",
    "key_name": "Fluensulfone",
    "cn_name": null,
    "alternate_name": "Thiazole, 5-chloro-2-[(3,4,4-trifluoro-3-buten-1-yl)sulfonyl]-;Thiazole, 5-chloro-2-[(3,4,4-trifluoro-3-butenyl)sulfonyl]-;5-Chloro-2-[(3,4,4-trifluoro-3-buten-1-yl)sulfonyl]thiazole;5-Chloro-2-[(3,4,4-trifluorobut-3-en-1-yl)sulfonyl]-1,3-thiazole;Fluensulfone;MCW 2;Nimitz;Nimitz 480EC;fluvathiide",
    "duplicated_cas_no": "",
    "SMILES": "S(CCC(=C(F)F)F)(=O)(=O)C1=NC=C(Cl)S1",
    "meta_data": {
        "InChI": "InChI=1S/C7H5ClF3NO2S2/c8-5-3-12-7(15-5)16(13,14)2-1-4(9)6(10)11/h3H,1-2H2",
        "InChIKey": null,
        "Canonical SMILES": "O=S(=O)(C1=NC=C(Cl)S1)CCC(F)=C(F)F",
        "Molecular Formula": "C<sub>7</sub>H<sub>5</sub>ClF<sub>3</sub>NO<sub>2</sub>S<sub>2</sub>",
        "Molecular Mass": "291.70",
        "Melting Point": "34 °C"
    }
}