{
    "cas_no": "623-51-8",
    "key_name": "Ethyl mercaptoacetate",
    "cn_name": "巯基乙酸乙酯;",
    "alternate_name": "Acetic acid, 2-mercapto-, ethyl ester;Acetic acid, mercapto-, ethyl ester;Ethyl thioglycolate;Ethyl mercaptoacetate;Ethyl 2-mercaptoacetate;Ethyl α-mercaptoacetate;Mercaptoacetic acid ethyl ester;Thioglycolic acid ethyl ester;2-Mercaptoacetic acid ethyl ester;Ethoxycarbonylmethanethiol;Ethylthiomethyl acetate;NSC 8834;Sulfanylacetic acid ethyl ester;Ethyl 2-sulfanylacetate;Ethyl sulfanylacetate",
    "duplicated_cas_no": "",
    "SMILES": "C(OCC)(CS)=O",
    "meta_data": {
        "InChI": "InChI=1S/C4H8O2S/c1-2-6-4(5)3-7/h7H,2-3H2,1H3",
        "InChIKey": null,
        "Canonical SMILES": "O=C(OCC)CS",
        "Molecular Formula": "C<sub>4</sub>H<sub>8</sub>O<sub>2</sub>S",
        "Molecular Mass": "120.17",
        "Boiling Point": "157 °C",
        "Density": "1.148 g/cm³ @ Temp: 26 °C"
    }
}