{
    "cas_no": "2322-77-2",
    "key_name": "13-Ethyl-3-methoxygona-2,5(10)-dien-17-one",
    "cn_name": "沃氏物;18-甲基雌甾-2,5(10)-二烯-3b-甲氧基-17-酮;",
    "alternate_name": "Gona-2,5(10)-dien-17-one, 13-ethyl-3-methoxy-;13-Ethyl-3-methoxygona-2,5(10)-dien-17-one;13-β-Ethyl-3-methoxy-gona-2,5(10)-dien-17-one",
    "duplicated_cas_no": "",
    "SMILES": "C(C)[C@@]12[C@]([C@]3([C@](CC1)(C4=C(CC3)CC(OC)=CC4)[H])[H])(CCC2=O)[H]",
    "meta_data": {
        "InChI": "InChI=1S/C20H28O2/c1-3-20-11-10-16-15-7-5-14(22-2)12-13(15)4-6-17(16)18(20)8-9-19(20)21/h5,16-18H,3-4,6-12H2,1-2H3/t16-,17-,18+,20+/m1/s1",
        "InChIKey": null,
        "Canonical SMILES": "O=C1CCC2C3CCC4=C(CC=C(OC)C4)C3CCC12CC",
        "Molecular Formula": "C<sub>20</sub>H<sub>28</sub>O<sub>2</sub>",
        "Molecular Mass": "300.44",
        "Melting Point": "122-124 °C"
    }
}