{
    "cas_no": "106984-91-2",
    "key_name": "6-Oxo-1,6-dihydropyridine-3-carboxaldehyde",
    "cn_name": null,
    "alternate_name": "3-Pyridinecarboxaldehyde, 1,6-dihydro-6-oxo-;1,6-Dihydro-6-oxo-3-pyridinecarboxaldehyde;6-Hydroxy-3-pyridinecarboxaldehyde;6-Oxo-1,6-dihydropyridine-3-carboxaldehyde;2-Oxo-1,2-dihydropyridine-5-carboxaldehyde;2-Hydroxypyridine-5-carboxaldehyde;6-Oxo-1,6-dihydropyridine-3-carbaldehyde;2-Hydroxy-5-formylpyridine;5-Formylpyridin-2(1<em>H</em>)-one",
    "duplicated_cas_no": "",
    "SMILES": "C(=O)C=1C=CC(=O)NC1",
    "meta_data": {
        "InChI": "InChI=1S/C6H5NO2/c8-4-5-1-2-6(9)7-3-5/h1-4H,(H,7,9)",
        "InChIKey": null,
        "Canonical SMILES": "O=CC=1C=CC(=O)NC1",
        "Molecular Formula": "C<sub>6</sub>H<sub>5</sub>NO<sub>2</sub>",
        "Molecular Mass": "123.11",
        "Melting Point": "220.5-222.0 °C"
    }
}