{
    "cas_no": "16082-27-2",
    "key_name": "7-Chloro-5-methylpyrazolo[1,5-<em>a</em>]pyrimidine",
    "cn_name": "7-氯-5-甲基吡唑并[1,5-a]嘧啶;",
    "alternate_name": "Pyrazolo[1,5-<em>a</em>]pyrimidine, 7-chloro-5-methyl-;7-Chloro-5-methylpyrazolo[1,5-<em>a</em>]pyrimidine",
    "duplicated_cas_no": "",
    "SMILES": "ClC=1N2C(N=C(C)C1)=CC=N2",
    "meta_data": {
        "InChI": "InChI=1S/C7H6ClN3/c1-5-4-6(8)11-7(10-5)2-3-9-11/h2-4H,1H3",
        "InChIKey": null,
        "Canonical SMILES": "ClC1=CC(=NC2=CC=NN12)C",
        "Molecular Formula": "C<sub>7</sub>H<sub>6</sub>ClN<sub>3</sub>",
        "Molecular Mass": "167.60",
        "Melting Point": "36 °C"
    }
}