{
    "cas_no": "642-38-6",
    "key_name": "(-)-Quebrachitol",
    "cn_name": "L-白雀木醇;",
    "alternate_name": "<span class=\"text-smallcaps\">L</span>-<em>chiro</em>-Inositol, 2-<em>O</em>-methyl-;Inositol, 2-<em>O</em>-methyl-, <span class=\"text-smallcaps\">L</span>-<em>chiro</em>-;Inositol, 2-<em>O</em>-methyl-;2-<em>O</em>-Methyl-<span class=\"text-smallcaps\">L</span>-<em>chiro</em>-inositol;<span class=\"text-smallcaps\">L</span>-Quebrachitol;Quebrachitol;Quebrachitol, (-)-;<span class=\"text-smallcaps\">L</span>-(-)-2-<em>O</em>-Methylinositol;Quebrachit;(-)-Quebrachitol;NSC 26254;Brahol",
    "duplicated_cas_no": "3409-28-7;26092-03-5",
    "SMILES": "O(C)[C@H]1[C@H](O)[C@@H](O)[C@H](O)[C@H](O)[C@H]1O",
    "meta_data": {
        "InChI": "InChI=1S/C7H14O6/c1-13-7-5(11)3(9)2(8)4(10)6(7)12/h2-12H,1H3/t2-,3-,4-,5+,6+,7-/m0/s1",
        "InChIKey": null,
        "Canonical SMILES": "OC1C(O)C(O)C(OC)C(O)C1O",
        "Molecular Formula": "C<sub>7</sub>H<sub>14</sub>O<sub>6</sub>",
        "Molecular Mass": "194.18",
        "Melting Point": "192-193 °C",
        "Density": "1.54 g/cm³"
    }
}