{
    "cas_no": "395-44-8",
    "key_name": "2-Trifluoromethylbenzyl bromide",
    "cn_name": "2-(三氟甲基)苄溴;",
    "alternate_name": "Benzene, 1-(bromomethyl)-2-(trifluoromethyl)-;<em>o</em>-Xylene, α′-bromo-α,α,α-trifluoro-;1-(Bromomethyl)-2-(trifluoromethyl)benzene;α′-Bromo-α,α,α-trifluoro-<em>o</em>-xylene;<em>o</em>-(Trifluoromethyl)benzyl bromide;2-Trifluoromethylbenzyl bromide",
    "duplicated_cas_no": "",
    "SMILES": "C(Br)C1=C(C(F)(F)F)C=CC=C1",
    "meta_data": {
        "InChI": "InChI=1S/C8H6BrF3/c9-5-6-3-1-2-4-7(6)8(10,11)12/h1-4H,5H2",
        "InChIKey": null,
        "Canonical SMILES": "FC(F)(F)C=1C=CC=CC1CBr",
        "Molecular Formula": "C<sub>8</sub>H<sub>6</sub>BrF<sub>3</sub>",
        "Molecular Mass": "239.03",
        "Boiling Point": "72 °C @ Press: 7.5 Torr"
    }
}