{
    "cas_no": "574-00-5",
    "key_name": "1,2-Dihydroxynaphthalene",
    "cn_name": "1,2-二羟基萘;1,2-二羥萘;",
    "alternate_name": "1,2-Naphthalenediol;1,2-Dihydroxynaphthalene;1-Hydroxy-2-naphthol;1,2-Naphthoquinol;NSC 401609;D 2299",
    "duplicated_cas_no": "",
    "SMILES": "OC=1C2=C(C=CC1O)C=CC=C2",
    "meta_data": {
        "InChI": "InChI=1S/C10H8O2/c11-9-6-5-7-3-1-2-4-8(7)10(9)12/h1-6,11-12H",
        "InChIKey": null,
        "Canonical SMILES": "OC=1C=CC=2C=CC=CC2C1O",
        "Molecular Formula": "C<sub>10</sub>H<sub>8</sub>O<sub>2</sub>",
        "Molecular Mass": "160.17",
        "Melting Point": "103 °C"
    }
}