{
    "cas_no": "393-79-3",
    "key_name": "1,3-Dichloro-2-fluoro-4-nitrobenzene",
    "cn_name": "2，4-二氯-3-氟硝基苯;",
    "alternate_name": "Benzene, 1,3-dichloro-2-fluoro-4-nitro-;1,3-Dichloro-2-fluoro-4-nitrobenzene;2,4-Dichloro-3-fluoronitrobenzene;NSC 10242",
    "duplicated_cas_no": "",
    "SMILES": "N(=O)(=O)C1=C(Cl)C(F)=C(Cl)C=C1",
    "meta_data": {
        "InChI": "InChI=1S/C6H2Cl2FNO2/c7-3-1-2-4(10(11)12)5(8)6(3)9/h1-2H",
        "InChIKey": null,
        "Canonical SMILES": "O=N(=O)C1=CC=C(Cl)C(F)=C1Cl",
        "Molecular Formula": "C<sub>6</sub>H<sub>2</sub>Cl<sub>2</sub>FNO<sub>2</sub>",
        "Molecular Mass": "209.99",
        "Boiling Point": "88 °C @ Press: 1 Torr"
    }
}