{
    "cas_no": "2447-79-2",
    "key_name": "2,4-Dichlorobenzamide",
    "cn_name": "2,4-二氯苯甲酰胺;",
    "alternate_name": "Benzamide, 2,4-dichloro-;2,4-Dichlorobenzamide;NSC 39528;2,4-Chlorobenzamide",
    "duplicated_cas_no": "",
    "SMILES": "C(N)(=O)C1=C(Cl)C=C(Cl)C=C1",
    "meta_data": {
        "InChI": "InChI=1S/C7H5Cl2NO/c8-4-1-2-5(7(10)11)6(9)3-4/h1-3H,(H2,10,11)",
        "InChIKey": null,
        "Canonical SMILES": "O=C(N)C1=CC=C(Cl)C=C1Cl",
        "Molecular Formula": "C<sub>7</sub>H<sub>5</sub>Cl<sub>2</sub>NO",
        "Molecular Mass": "190.03",
        "Melting Point": "193-194 °C"
    }
}