{
    "cas_no": "22071-15-4",
    "key_name": "Ketoprofen",
    "cn_name": "酮基布洛芬;酮洛芬;alpha-甲基-3-苯甲酰基苯乙酸;",
    "alternate_name": "Benzeneacetic acid, 3-benzoyl-α-methyl-;Hydratropic acid, <em>m</em>-benzoyl-;3-Benzoyl-α-methylbenzeneacetic acid;Ketoprofen;<em>m</em>-Benzoylhydratropic acid;R.P. 19583;2-(3-Benzoylphenyl)propionic acid;Ketoprophen;Ketoprofene;RU 4733;19583RP;3-Benzoylhydratropic acid;Orudis;2-(<em>m</em>-Benzoylphenyl)propionic acid;Profenid;α-(3-Benzoylphenyl)propionic acid;Alrheumun;Capisten;Aneol;Oruvail;Epatec;(±)-3-Benzoyl-α-methylbenzeneacetic acid;(±)-Ketoprofen;(<em>RS</em>)-Ketoprofen;(±)-<em>m</em>-Benzoylhydratropic acid;(±)-2-(3-Benzoylphenyl)propionic acid;Racemic ketoprofen;Ketorin;Bi-profenid;Menamin;Toprec;Ketopron;Iso-K;Toprek;Dexal;Lertus;Oscorel;Orugesic;Kefenid;Fastum;Meprofen;Alrheumat;Knavon;Mohrus;Miltax;Ketonal;Sector;2-(3-Benzoylphenyl)propanoic acid;Zon;Siduro;Rhofenid;IDEA 033;Lasonil;Romefen Vet;Febrofen;Refastil;Comforion;Actron Ketoprofen;Profenin;Doloket;KetoproBAG;MeSH ID: D007660",
    "duplicated_cas_no": "22161-86-0;154907-35-4;172964-50-0",
    "SMILES": "C(=O)(C1=CC(C(C(O)=O)C)=CC=C1)C2=CC=CC=C2",
    "meta_data": {
        "InChI": "InChI=1S/C16H14O3/c1-11(16(18)19)13-8-5-9-14(10-13)15(17)12-6-3-2-4-7-12/h2-11H,1H3,(H,18,19)",
        "InChIKey": null,
        "Canonical SMILES": "O=C(O)C(C=1C=CC=C(C1)C(=O)C=2C=CC=CC2)C",
        "Molecular Formula": "C<sub>16</sub>H<sub>14</sub>O<sub>3</sub>",
        "Molecular Mass": "254.28",
        "Melting Point": "94 °C"
    }
}