{
    "cas_no": "1138-56-3",
    "key_name": "4-Butoxybenzenesulfonyl chloride",
    "cn_name": "4-正丁氧基苯磺酰氯;",
    "alternate_name": "Benzenesulfonyl chloride, 4-butoxy-;Benzenesulfonyl chloride, <em>p</em>-butoxy-;4-Butoxybenzenesulfonyl chloride;<em>p</em>-Butoxyphenylsulfonyl chloride;<em>p</em>-Butoxybenzenesulfonyl chloride;4-<em>n</em>-Butoxybenzenesulfonyl chloride;4-Butoxyphenylsulfonyl chloride;4-Butoxybenzene-1-sulfonyl chloride",
    "duplicated_cas_no": "",
    "SMILES": "S(Cl)(=O)(=O)C1=CC=C(OCCCC)C=C1",
    "meta_data": {
        "InChI": "InChI=1S/C10H13ClO3S/c1-2-3-8-14-9-4-6-10(7-5-9)15(11,12)13/h4-7H,2-3,8H2,1H3",
        "InChIKey": null,
        "Canonical SMILES": "O=S(=O)(Cl)C1=CC=C(OCCCC)C=C1",
        "Molecular Formula": "C<sub>10</sub>H<sub>13</sub>ClO<sub>3</sub>S",
        "Molecular Mass": "248.73",
        "Boiling Point": "100 °C @ Press: 10 Torr"
    }
}