{
    "cas_no": "107-03-9",
    "key_name": "1-Propanethiol",
    "cn_name": "丙硫醇;",
    "alternate_name": "1-Propanethiol;Propyl mercaptan;<em>n</em>-Propyl mercaptan;1-Propyl mercaptan;<em>n</em>-Propanethiol;Propylthiol;<em>n</em>-Propylthiol;1-Mercaptopropane;1-Propylthiol",
    "duplicated_cas_no": "",
    "SMILES": "C(CS)C",
    "meta_data": {
        "InChI": "InChI=1S/C3H8S/c1-2-3-4/h4H,2-3H2,1H3",
        "InChIKey": null,
        "Canonical SMILES": "SCCC",
        "Molecular Formula": "C<sub>3</sub>H<sub>8</sub>S",
        "Molecular Mass": "76.16",
        "Boiling Point": "67-68 °C",
        "Melting Point": "-113.3 °C",
        "Density": "0.8411 g/cm³ @ Temp: 20 °C"
    }
}