{
    "cas_no": "74290-68-9",
    "key_name": "6-Bromo-5-methyl-2-pyrazinamine",
    "cn_name": null,
    "alternate_name": "2-Pyrazinamine, 6-bromo-5-methyl-;Pyrazinamine, 6-bromo-5-methyl-;6-Bromo-5-methyl-2-pyrazinamine;2-Amino-6-bromo-5-methylpyrazine;6-Bromo-5-methylpyrazin-2-amine",
    "duplicated_cas_no": "",
    "SMILES": "BrC=1C(C)=NC=C(N)N1",
    "meta_data": {
        "InChI": "InChI=1S/C5H6BrN3/c1-3-5(6)9-4(7)2-8-3/h2H,1H3,(H2,7,9)",
        "InChIKey": null,
        "Canonical SMILES": "BrC1=NC(N)=CN=C1C",
        "Molecular Formula": "C<sub>5</sub>H<sub>6</sub>BrN<sub>3</sub>",
        "Molecular Mass": "188.03",
        "Melting Point": "154-157 °C"
    }
}