{
    "cas_no": "108-26-9",
    "key_name": "3-Methyl-2-pyrazolin-5-one",
    "cn_name": "3-甲基-2-吡唑啉-5-酮;5-甲基-2,4-二氢-吡唑-3-酮;",
    "alternate_name": "3<em>H</em>-Pyrazol-3-one, 2,4-dihydro-5-methyl-;2-Pyrazolin-5-one, 3-methyl-;2,4-Dihydro-5-methyl-3<em>H</em>-pyrazol-3-one;3-Methyl-2-pyrazolin-5-one;3-Methyl-Δ<sup>2</sup>-pyrazol-5-one;3-Methyl-5-oxo-2-pyrazoline;3-Methyl-1<em>H</em>-4,5-dihydropyrazol-5-one;3-Methyl-1<em>H</em>-pyrazolin-5-one;3-Methyl-1<em>H</em>-pyrazol-5(4<em>H</em>)-one;3-Methyl-4<em>H</em>-pyrazole-5-one;1<em>H</em>-3-Methylpyrazol-5-one;3-Methyl-1,4-dihydro-5-pyrazolone;3-Methyl-4,5-dihydro-1<em>H</em>-pyrazol-5-one;3-Methyl-1,4-dihydropyrazol-5-one",
    "duplicated_cas_no": "206195-93-9;937063-51-9",
    "SMILES": "CC=1CC(=O)NN1",
    "meta_data": {
        "InChI": "InChI=1S/C4H6N2O/c1-3-2-4(7)6-5-3/h2H2,1H3,(H,6,7)",
        "InChIKey": null,
        "Canonical SMILES": "O=C1NN=C(C)C1",
        "Molecular Formula": "C<sub>4</sub>H<sub>6</sub>N<sub>2</sub>O",
        "Molecular Mass": "98.10",
        "Melting Point": "220 °C"
    }
}