{
    "cas_no": "2798-20-1",
    "key_name": "Gardenin B",
    "cn_name": null,
    "alternate_name": "4<em>H</em>-1-Benzopyran-4-one, 5-hydroxy-6,7,8-trimethoxy-2-(4-methoxyphenyl)-;Flavone, 5-hydroxy-4′,6,7,8-tetramethoxy-;5-Hydroxy-6,7,8-trimethoxy-2-(4-methoxyphenyl)-4<em>H</em>-1-benzopyran-4-one;Gardenin B;5-Hydroxy-4′,6,7,8-tetramethoxyflavone;Demethyltangeretin;5-Hydroxy-6,7,8,4′-tetramethoxyflavone;5-Demethyltangeretin;NSC 618926;NSC 79093;5-<em>O</em>-Desmethyltangeretin;5-Desmethyltangeretin",
    "duplicated_cas_no": "",
    "SMILES": "OC1=C2C(=C(OC)C(OC)=C1OC)OC(=CC2=O)C3=CC=C(OC)C=C3",
    "meta_data": {
        "InChI": "InChI=1S/C19H18O7/c1-22-11-7-5-10(6-8-11)13-9-12(20)14-15(21)17(23-2)19(25-4)18(24-3)16(14)26-13/h5-9,21H,1-4H3",
        "InChIKey": null,
        "Canonical SMILES": "O=C1C=C(OC2=C(OC)C(OC)=C(OC)C(O)=C12)C=3C=CC(OC)=CC3",
        "Molecular Formula": "C<sub>19</sub>H<sub>18</sub>O<sub>7</sub>",
        "Molecular Mass": "358.34",
        "Melting Point": "176-177 °C"
    }
}