{
    "cas_no": "3658-80-8",
    "key_name": "Dimethyl trisulfide",
    "cn_name": "二甲基三硫;",
    "alternate_name": "Trisulfide, dimethyl;Methyl trisulfide;Dimethyl trisulfide;2,3,4-Trithiapentane;NSC 97324;(Methyltrisulfanyl)methane",
    "duplicated_cas_no": "85931-54-0",
    "SMILES": "S(SC)SC",
    "meta_data": {
        "InChI": "InChI=1S/C2H6S3/c1-3-5-4-2/h1-2H3",
        "InChIKey": null,
        "Canonical SMILES": "S(SC)SC",
        "Molecular Formula": "C<sub>2</sub>H<sub>6</sub>S<sub>3</sub>",
        "Molecular Mass": "126.26",
        "Boiling Point": "70 °C @ Press: 14 Torr",
        "Melting Point": "-68.05 °C",
        "Density": "1.1978 g/cm³ @ Temp: 25 °C"
    }
}