{
    "cas_no": "551-11-1",
    "key_name": "Prostaglandin F<sub>2</sub>",
    "cn_name": "地诺前列素;前列腺素F2a;",
    "alternate_name": "Prosta-5,13-dien-1-oic acid, 9,11,15-trihydroxy-, (5<em>Z</em>,9α,11α,13<em>E</em>,15<em>S</em>)-;5-Heptenoic acid, 7-[3,5-dihydroxy-2-(3-hydroxy-1-octenyl)cyclopentyl]-;(5<em>Z</em>,9α,11α,13<em>E</em>,15<em>S</em>)-9,11,15-Trihydroxyprosta-5,13-dien-1-oic acid;PGF<sub>2α</sub>;Prostaglandin F<sub>2α</sub>;Prostaglandin F<sub>2a</sub>;Dinoprost;7-[3,5-Dihydroxy-2-(3-hydroxy-1-octenyl)cyclopentyl]-5-heptenoic acid;U 14583;9α,11α,15(<em>S</em>)-Trihydroxy-5-<em>cis</em>-13-<em>trans</em>-prostadienoic acid;(+)-Prostaglandin F<sub>2α</sub>;Prostin F 2 alpha;PGF<sub>2</sub><sub><sub>a</sub></sub>;Enzaprost;Amoglandin;Enzaprost F;Prostaglandin F<sub>2</sub>;Panacelan;Cyclosin;Prostarmon F;9α,11α-PGF<sub>2</sub>;Protamodin;Cyclosin (pharmaceutical);Glandin N;9α,11α-PGF<sub>2α</sub>;Dinifertin;Prostamate;Croniben;Glandin",
    "duplicated_cas_no": "99437-94-2;13535-33-6",
    "SMILES": "C(/C=C\\CCCC(O)=O)[C@@H]1[C@@H](/C=C/[C@H](CCCCC)O)[C@H](O)C[C@@H]1O",
    "meta_data": {
        "InChI": "InChI=1S/C20H34O5/c1-2-3-6-9-15(21)12-13-17-16(18(22)14-19(17)23)10-7-4-5-8-11-20(24)25/h4,7,12-13,15-19,21-23H,2-3,5-6,8-11,14H2,1H3,(H,24,25)/b7-4-,13-12+/t15-,16+,17+,18-,19+/m0/s1",
        "InChIKey": null,
        "Canonical SMILES": "O=C(O)CCCC=CCC1C(O)CC(O)C1C=CC(O)CCCCC",
        "Molecular Formula": "C<sub>20</sub>H<sub>34</sub>O<sub>5</sub>",
        "Molecular Mass": "354.48",
        "Melting Point": "25-35 °C"
    }
}