{
    "cas_no": "3397-35-1",
    "key_name": "<em>N</em>-[(Phenylmethoxy)carbonyl]-<span class=\"text-smallcaps\">L</span>-leucine 2,5-dioxo-1-pyrrolidinyl ester",
    "cn_name": "CBZ-L-亮氨酸N-羟基琥珀酰亚胺脂;CBZ-L-亮氨酸N-羟基琥珀酰亚胺脂;",
    "alternate_name": "<span class=\"text-smallcaps\">L</span>-Leucine, <em>N</em>-[(phenylmethoxy)carbonyl]-, 2,5-dioxo-1-pyrrolidinyl ester;Succinimide, <em>N</em>-[(<em>N</em>-carboxy-<span class=\"text-smallcaps\">L</span>-leucyl)oxy]-, benzyl ester;Carbamic acid, [1-[[(2,5-dioxo-1-pyrrolidinyl)oxy]carbonyl]-3-methylbutyl]-, phenylmethyl ester, (<em>S</em>)-;Carbamic acid, [(1<em>S</em>)-1-[[(2,5-dioxo-1-pyrrolidinyl)oxy]carbonyl]-3-methylbutyl]-, phenylmethyl ester;<em>N</em>-[(Phenylmethoxy)carbonyl]-<span class=\"text-smallcaps\">L</span>-leucine 2,5-dioxo-1-pyrrolidinyl ester;<em>N</em>-Carbobenzoxy-<span class=\"text-smallcaps\">L</span>-leucine succinimido ester;<em>N</em>-(Benzyloxycarbonyl)-<span class=\"text-smallcaps\">L</span>-leucine hydroxysuccinimide ester;<em>N</em>-(Benzyloxycarbonyl)leucine <em>N</em>-hydroxysuccinimide ester;<em>N</em>-Carbobenzyloxy-<span class=\"text-smallcaps\">L</span>-leucine <em>N</em>-hydroxysuccinimide ester;<em>N</em>-(Benzyloxycarbonyl)-<span class=\"text-smallcaps\">L</span>-leucine <em>N</em>-hydroxysuccinimide ester;(2,5-Dioxopyrrolidin-1-yl) (2S)-2-(benzyloxycarbonylamino)-4-methyl-pentanoate;2,5-Dioxopyrrolidin-1-yl (2S)-2-[[(benzyloxy)carbonyl]amino]-4-methylpentanoate;(2,5-Dioxopyrrolidin-1-yl) (2S)-4-methyl-2-(phenylmethoxycarbonylamino)pentanoate",
    "duplicated_cas_no": "1259030-44-8",
    "SMILES": "O(C([C@@H](NC(OCC1=CC=CC=C1)=O)CC(C)C)=O)N2C(=O)CCC2=O",
    "meta_data": {
        "InChI": "InChI=1S/C18H22N2O6/c1-12(2)10-14(17(23)26-20-15(21)8-9-16(20)22)19-18(24)25-11-13-6-4-3-5-7-13/h3-7,12,14H,8-11H2,1-2H3,(H,19,24)/t14-/m0/s1",
        "InChIKey": null,
        "Canonical SMILES": "O=C(OCC=1C=CC=CC1)NC(C(=O)ON2C(=O)CCC2=O)CC(C)C",
        "Molecular Formula": "C<sub>18</sub>H<sub>22</sub>N<sub>2</sub>O<sub>6</sub>",
        "Molecular Mass": "362.38",
        "Melting Point": "116-117 °C"
    }
}