{
    "cas_no": "132628-16-1",
    "key_name": "<em>N</em>-(2-Phenylacetyl)guanosine",
    "cn_name": null,
    "alternate_name": "Guanosine, <em>N</em>-(2-phenylacetyl)-;Guanosine, <em>N</em>-(phenylacetyl)-;<em>N</em>-(2-Phenylacetyl)guanosine",
    "duplicated_cas_no": "",
    "SMILES": "O=C1C2=C(N(C=N2)[C@@H]3O[C@H](CO)[C@@H](O)[C@H]3O)NC(NC(CC4=CC=CC=C4)=O)=N1",
    "meta_data": {
        "InChI": "InChI=1S/C18H19N5O6/c24-7-10-13(26)14(27)17(29-10)23-8-19-12-15(23)21-18(22-16(12)28)20-11(25)6-9-4-2-1-3-5-9/h1-5,8,10,13-14,17,24,26-27H,6-7H2,(H2,20,21,22,25,28)/t10-,13-,14-,17-/m1/s1",
        "InChIKey": null,
        "Canonical SMILES": "O=C1N=C(NC(=O)CC=2C=CC=CC2)NC3=C1N=CN3C4OC(CO)C(O)C4O",
        "Molecular Formula": "C<sub>18</sub>H<sub>19</sub>N<sub>5</sub>O<sub>6</sub>",
        "Molecular Mass": "401.37",
        "Melting Point": "189 °C"
    }
}