{
    "cas_no": "89-58-7",
    "key_name": "1,4-Dimethyl-2-nitrobenzene",
    "cn_name": "2,5-二甲基硝基苯;2-硝基对二甲苯;2-硝基-1,4-二甲苯;1,4-二甲基-2-硝基苯;",
    "alternate_name": "Benzene, 1,4-dimethyl-2-nitro-;<em>p</em>-Xylene, 2-nitro-;1,4-Dimethyl-2-nitrobenzene;2,5-Dimethylnitrobenzene;2-Nitro-1,4-dimethylbenzene;2,5-Dimethyl-1-nitrobenzene;2-Nitro-<em>p</em>-xylene;Nitro-<em>p</em>-xylene;1-Nitro-2,5-dimethylbenzene;1,4-Dimethylnitrobenzene;NSC 5591;2-Nitro-4-xylene",
    "duplicated_cas_no": "35254-68-3",
    "SMILES": "N(=O)(=O)C1=C(C)C=CC(C)=C1",
    "meta_data": {
        "InChI": "InChI=1S/C8H9NO2/c1-6-3-4-7(2)8(5-6)9(10)11/h3-5H,1-2H3",
        "InChIKey": null,
        "Canonical SMILES": "O=N(=O)C1=CC(=CC=C1C)C",
        "Molecular Formula": "C<sub>8</sub>H<sub>9</sub>NO<sub>2</sub>",
        "Molecular Mass": "151.16",
        "Boiling Point": "240.5 °C",
        "Melting Point": "-25 °C",
        "Density": "1.1228 g/cm³ @ Temp: 25 °C"
    }
}