{
    "cas_no": "75-15-0",
    "key_name": "Carbon disulfide",
    "cn_name": "二硫化碳;",
    "alternate_name": "Carbon disulfide;Carbon bisulfide;Carbon bisulphide;Carbon disulphide;Dithiocarbonic anhydride;Carbon sulfide (CS<sub>2</sub>);MeSH ID: D002246",
    "duplicated_cas_no": "355120-85-3",
    "SMILES": "C(=S)=S",
    "meta_data": {
        "InChI": "InChI=1S/CS2/c2-1-3",
        "InChIKey": null,
        "Canonical SMILES": "S=C=S",
        "Molecular Formula": "CS<sub>2</sub>",
        "Molecular Mass": "76.14",
        "Boiling Point": "46 °C @ Press: 760 Torr",
        "Melting Point": "-111.5 °C",
        "Density": "1.2632 g/cm³ @ Temp: 20 °C"
    }
}