{
    "cas_no": "13080-86-9",
    "key_name": "2,2-Bis[4-(4-aminophenoxy)phenyl]propane",
    "cn_name": "2,2\"-双[4-(4-氨基苯氧基苯基)]丙烷;",
    "alternate_name": "Benzenamine, 4,4′-[(1-methylethylidene)bis(4,1-phenyleneoxy)]bis-;Aniline, 4,4′-[isopropylidenebis(<em>p</em>-phenyleneoxy)]di-;4,4′-[(1-Methylethylidene)bis(4,1-phenyleneoxy)]bis[benzenamine];2,2-Bis[<em>p</em>-(4-aminophenoxy)phenyl]propane;2,2-Bis[4-(4-aminophenoxy)phenyl]propane;4,4′-[Isopropylidenebis(1,4-phenylene)dioxy]dianiline;Bisphenol A bis(4-aminophenyl) ether;BAPP;Cheminox CLP 5250;CLP 5250;KA 4;4-[4-[2-[4-(4-Aminophenoxy)phenyl]propan-2-yl]phenoxy]benzenamine;4,4′-Propane-2,2-diylbis(4,1-phenyleneoxy)dianiline;4,4′-(4,4′-Isopropylidenediphenyl-1,1′-diyldioxy)dianiline;Norcure 1313-50;[4-(4-[1-[4-(4-Aminophenoxy)phenyl]-1-methylethyl]phenoxy)phenyl]amine;p-BAPP",
    "duplicated_cas_no": "158066-25-2",
    "SMILES": "C(C)(C)(C1=CC=C(OC2=CC=C(N)C=C2)C=C1)C3=CC=C(OC4=CC=C(N)C=C4)C=C3",
    "meta_data": {
        "InChI": "InChI=1S/C27H26N2O2/c1-27(2,19-3-11-23(12-4-19)30-25-15-7-21(28)8-16-25)20-5-13-24(14-6-20)31-26-17-9-22(29)10-18-26/h3-18H,28-29H2,1-2H3",
        "InChIKey": null,
        "Canonical SMILES": "O(C1=CC=C(N)C=C1)C2=CC=C(C=C2)C(C3=CC=C(OC4=CC=C(N)C=C4)C=C3)(C)C",
        "Molecular Formula": "C<sub>27</sub>H<sub>26</sub>N<sub>2</sub>O<sub>2</sub>",
        "Molecular Mass": "410.51",
        "Melting Point": "126-128 °C"
    }
}