{
    "cas_no": "328-80-3",
    "key_name": "3-Nitro-5-(trifluoromethyl)benzoic acid",
    "cn_name": "3-硝基-5-(三氟甲基)苯甲酸;",
    "alternate_name": "Benzoic acid, 3-nitro-5-(trifluoromethyl)-;<em>m</em>-Toluic acid, α,α,α-trifluoro-5-nitro-;3-Nitro-5-(trifluoromethyl)benzoic acid;5-Trifluoromethyl-3-nitrobenzoic acid",
    "duplicated_cas_no": "",
    "SMILES": "C(F)(F)(F)C1=CC(C(O)=O)=CC(N(=O)=O)=C1",
    "meta_data": {
        "InChI": "InChI=1S/C8H4F3NO4/c9-8(10,11)5-1-4(7(13)14)2-6(3-5)12(15)16/h1-3H,(H,13,14)",
        "InChIKey": null,
        "Canonical SMILES": "O=C(O)C=1C=C(C=C(C1)C(F)(F)F)N(=O)=O",
        "Molecular Formula": "C<sub>8</sub>H<sub>4</sub>F<sub>3</sub>NO<sub>4</sub>",
        "Molecular Mass": "235.12",
        "Melting Point": "127-129 °C"
    }
}