{
    "cas_no": "3102-56-5",
    "key_name": "<em>rel</em>-(2<em>R</em>,3<em>S</em>)-2-Amino-1,3-octadecanediol",
    "cn_name": "DL-赤型-二氢神经胺;二氢(神经)鞘氨醇;D-苏式-二氢鞘胺醇;",
    "alternate_name": "1,3-Octadecanediol, 2-amino-, (2<em>R</em>,3<em>S</em>)-<em>rel</em>-;1,3-Octadecanediol, 2-amino-, <span class=\"text-smallcaps\">DL</span>-<em>erythro</em>-;1,3-Octadecanediol, 2-amino-, (<em>R</em>*,<em>S</em>*)-(±)-;<em>rel</em>-(2<em>R</em>,3<em>S</em>)-2-Amino-1,3-octadecanediol;1,3-Octadecanediol, 2-amino-, (±)-<em>erythro</em>-;<em>erythro</em>-<span class=\"text-smallcaps\">DL</span>-Sphinganine;<span class=\"text-smallcaps\">DL</span>-<em>erythro</em>-Dihydrosphingosine;<span class=\"text-smallcaps\">DL</span>-<em>erythro</em>-Sphinganine;<em>dl</em>-<em>erythro</em>-Dihydrosphingosine;C<sub>18</sub>-<em>erythro</em>-Sphinganine;<em>erythro</em>-C<sub>18</sub>-Sphinganine;1,3-Octadecanediol, 2-amino-, (<em>R</em>*,<em>S</em>*)-",
    "duplicated_cas_no": "3102-60-1",
    "SMILES": "C(CCCCCCCCCCCCCC)[C@@H]([C@@H](CO)N)O",
    "meta_data": {
        "InChI": "InChI=1/C18H39NO2/c1-2-3-4-5-6-7-8-9-10-11-12-13-14-15-18(21)17(19)16-20/h17-18,20-21H,2-16,19H2,1H3/t17-,18+/s2",
        "InChIKey": null,
        "Canonical SMILES": "OCC(N)C(O)CCCCCCCCCCCCCCC",
        "Molecular Formula": "C<sub>18</sub>H<sub>39</sub>NO<sub>2</sub>",
        "Molecular Mass": "301.51",
        "Melting Point": "62.5-63.0 °C"
    }
}