{
    "cas_no": "51644-96-3",
    "key_name": "<em>N</em>-(<em>tert</em>-Butoxycarbonyl)-1,5-diaminopentane",
    "cn_name": "N-Boc-尸胺;N-Boc-1,5-二氨基戊烷;N-(5-氨基戊基)氨基甲酸叔丁酯;",
    "alternate_name": "Carbamic acid, <em>N</em>-(5-aminopentyl)-, 1,1-dimethylethyl ester;Carbamic acid, (5-aminopentyl)-, 1,1-dimethylethyl ester;5-(<em>N</em>-<em>tert</em>-Butoxycarbonyl)amino-1-aminopentane;<em>N</em>-(<em>tert</em>-Butoxycarbonyl)-1,5-pentanediamine;<em>N</em>-(<em>tert</em>-Butoxycarbonyl)-1,5-diaminopentane;5-[(<em>tert</em>-Butoxycarbonyl)amino]-1-pentylamine;5-(<em>tert</em>-Butoxycarbonylamino)pentanamine;<em>tert</em>-Butyl 5-aminopentylcarbamate;5-(<em>tert</em>-Butoxycarbonylamino)-1-aminopentane;5-Aminopentylcarbamic acid tert-butyl ester;<em>N</em>-Boc-cadaverine;1,1-Dimethylethyl <em>N</em>-(5-aminopentyl)carbamate;Mono-<em>N</em>-[(<em>tert</em>-Butoxy)carbonyl]cadaverine;<em>N</em>-Boc-1,5-diaminopentane;Mono-<em>N</em>-Boc-1,5-pentanediamine;<em>N</em>-Boc-1,5-pentanediamine;<em>N</em>-Boc-1,5-pentylenediamine;<em>tert</em>-Butyl <em>N</em>-(5-aminopentyl)carbamate;<em>N</em>-(5-Aminopentyl)carbamic acid tert-butyl ester",
    "duplicated_cas_no": "202474-34-8;1337817-38-5;2204272-29-5",
    "SMILES": "C(NCCCCCN)(OC(C)(C)C)=O",
    "meta_data": {
        "InChI": "InChI=1S/C10H22N2O2/c1-10(2,3)14-9(13)12-8-6-4-5-7-11/h4-8,11H2,1-3H3,(H,12,13)",
        "InChIKey": null,
        "Canonical SMILES": "O=C(OC(C)(C)C)NCCCCCN",
        "Molecular Formula": "C<sub>10</sub>H<sub>22</sub>N<sub>2</sub>O<sub>2</sub>",
        "Molecular Mass": "202.29",
        "Boiling Point": "97 °C"
    }
}