{
    "cas_no": "13684-56-5",
    "key_name": "Desmedipham",
    "cn_name": null,
    "alternate_name": "Carbamic acid, <em>N</em>-[3-[[(phenylamino)carbonyl]oxy]phenyl]-, ethyl ester;Carbanilic acid, <em>m</em>-hydroxy-, ethyl ester, carbanilate (ester);Carbamic acid, [3-[[(phenylamino)carbonyl]oxy]phenyl]-, ethyl ester;Ethyl <em>m</em>-hydroxycarbanilate carbanilate;EP 475;Ethyl <em>N</em>-[3-(<em>N</em>-phenylcarbamoyloxy)phenyl]carbamate;Desmedipham;3-Ethoxycarbonylaminophenyl <em>N</em>-phenylcarbamate;Betanex;EP 475 (pesticide);Synbetan D;DMP Stefes;SN 38107;Destor",
    "duplicated_cas_no": "125579-95-5;153703-69-6",
    "SMILES": "O(C(NC1=CC=CC=C1)=O)C2=CC(NC(OCC)=O)=CC=C2",
    "meta_data": {
        "InChI": "InChI=1S/C16H16N2O4/c1-2-21-15(19)18-13-9-6-10-14(11-13)22-16(20)17-12-7-4-3-5-8-12/h3-11H,2H2,1H3,(H,17,20)(H,18,19)",
        "InChIKey": null,
        "Canonical SMILES": "O=C(OC1=CC=CC(=C1)NC(=O)OCC)NC=2C=CC=CC2",
        "Molecular Formula": "C<sub>16</sub>H<sub>16</sub>N<sub>2</sub>O<sub>4</sub>",
        "Molecular Mass": "300.31",
        "Melting Point": "120 °C"
    }
}