{
    "cas_no": "59767-24-7",
    "key_name": "1-(4-Chlorophenyl)-1-phenylethanol",
    "cn_name": null,
    "alternate_name": "Benzenemethanol, 4-chloro-α-methyl-α-phenyl-;Benzhydrol, 4-chloro-α-methyl-;4-Chloro-α-methyl-α-phenylbenzenemethanol;<em>p</em>-Chloro-α-methylbenzhydrol;1-(<em>p</em>-Chlorophenyl)-1-phenylethanol;(<em>p</em>-Chlorophenyl)methylphenylcarbinol;EGIS 5927;1-(4-Chlorophenyl)-1-phenylethanol;4-Chloro(α-methyl-α-phenyl)benzenemethanol;1-(4-Chlorophenyl)-1-phenylethan-1-ol",
    "duplicated_cas_no": "61771-16-2",
    "SMILES": "C(C)(O)(C1=CC=C(Cl)C=C1)C2=CC=CC=C2",
    "meta_data": {
        "InChI": "InChI=1S/C14H13ClO/c1-14(16,11-5-3-2-4-6-11)12-7-9-13(15)10-8-12/h2-10,16H,1H3",
        "InChIKey": null,
        "Canonical SMILES": "ClC1=CC=C(C=C1)C(O)(C=2C=CC=CC2)C",
        "Molecular Formula": "C<sub>14</sub>H<sub>13</sub>ClO",
        "Molecular Mass": "232.71",
        "Boiling Point": "140 °C @ Press: 0.3 Torr"
    }
}