{
    "cas_no": "4045-44-7",
    "key_name": "Pentamethylcyclopentadiene",
    "cn_name": "五甲基环戊二烯;1,2,3,4,5-五甲基环戊二烯;",
    "alternate_name": "1,3-Cyclopentadiene, 1,2,3,4,5-pentamethyl-;Cyclopentadiene, 1,2,3,4,5-pentamethyl-;1,2,3,4,5-Pentamethyl-1,3-cyclopentadiene;1,2,3,4,5-Pentamethylcyclopentadiene;Pentamethylcyclopentadiene;NSC 222823",
    "duplicated_cas_no": "",
    "SMILES": "CC1C(C)=C(C)C(C)=C1C",
    "meta_data": {
        "InChI": "InChI=1S/C10H16/c1-6-7(2)9(4)10(5)8(6)3/h6H,1-5H3",
        "InChIKey": null,
        "Canonical SMILES": "C=1(C(=C(C)C(C1C)C)C)C",
        "Molecular Formula": "C<sub>10</sub>H<sub>16</sub>",
        "Molecular Mass": "136.23",
        "Boiling Point": "58.3 °C @ Press: 13.5 Torr",
        "Density": "0.8395 g/cm³ @ Temp: 20 °C"
    }
}