{
    "cas_no": "17587-29-0",
    "key_name": "3-Hydroxyheptanoic acid",
    "cn_name": null,
    "alternate_name": "Heptanoic acid, 3-hydroxy-;3-Hydroxyheptanoic acid;β-Hydroxyheptanoic acid;(±)-3-Hydroxyheptanoic acid",
    "duplicated_cas_no": "88930-07-8;1111092-33-1",
    "SMILES": "C(C(CCCC)O)C(O)=O",
    "meta_data": {
        "InChI": "InChI=1S/C7H14O3/c1-2-3-4-6(8)5-7(9)10/h6,8H,2-5H2,1H3,(H,9,10)",
        "InChIKey": null,
        "Canonical SMILES": "O=C(O)CC(O)CCCC",
        "Molecular Formula": "C<sub>7</sub>H<sub>14</sub>O<sub>3</sub>",
        "Molecular Mass": "146.18",
        "Melting Point": "40-41 °C"
    }
}