{
    "cas_no": "94-50-8",
    "key_name": "Octyl benzoate",
    "cn_name": "苯甲酸正辛酯;",
    "alternate_name": "Benzoic acid, octyl ester;<em>n</em>-Octyl benzoate;Octyl benzoate;1-Octyl benzoate;Octyl alcohol, benzoate;NSC 21846;Dena PF 681;Benzoic acid 1-octanyl ester;Caprylyl benzoate",
    "duplicated_cas_no": "",
    "SMILES": "C(OCCCCCCCC)(=O)C1=CC=CC=C1",
    "meta_data": {
        "InChI": "InChI=1S/C15H22O2/c1-2-3-4-5-6-10-13-17-15(16)14-11-8-7-9-12-14/h7-9,11-12H,2-6,10,13H2,1H3",
        "InChIKey": null,
        "Canonical SMILES": "O=C(OCCCCCCCC)C=1C=CC=CC1",
        "Molecular Formula": "C<sub>15</sub>H<sub>22</sub>O<sub>2</sub>",
        "Molecular Mass": "234.33",
        "Boiling Point": "182-183 °C @ Press: 21 Torr",
        "Density": "0.9614 g/cm³ @ Temp: 20 °C"
    }
}