{
    "cas_no": "42726-73-8",
    "key_name": "1-(1,1-Dimethylethyl) 3-methyl propanedioate",
    "cn_name": "叔丁基丙二酸乙酯;",
    "alternate_name": "Propanedioic acid, 1-(1,1-dimethylethyl) 3-methyl ester;Propanedioic acid, 1,1-dimethylethyl methyl ester;Malonic acid, <em>tert</em>-butyl methyl ester;1-(1,1-Dimethylethyl) 3-methyl propanedioate;Methyl <em>tert</em>-butyl malonate;<em>tert</em>-Butyl methyl malonate;Malonic acid methyl <em>tert</em>-butyl ester;3-<em>O</em>-<em>tert</em>-Butyl 1-<em>O</em>-methyl propanedioate;1-<em>tert</em>-Butyl 3-methyl propanedioate;Propanedioic acid methyl tert-butyl ester",
    "duplicated_cas_no": "1622254-91-4",
    "SMILES": "O(C(C)(C)C)C(CC(OC)=O)=O",
    "meta_data": {
        "InChI": "InChI=1S/C8H14O4/c1-8(2,3)12-7(10)5-6(9)11-4/h5H2,1-4H3",
        "InChIKey": null,
        "Canonical SMILES": "O=C(OC)CC(=O)OC(C)(C)C",
        "Molecular Formula": "C<sub>8</sub>H<sub>14</sub>O<sub>4</sub>",
        "Molecular Mass": "174.19",
        "Boiling Point": "83-84 °C @ Press: 15 Torr",
        "Melting Point": "118-120 °C",
        "Density": "1.02 g/cm³ @ Temp: 25 °C"
    }
}