{
    "cas_no": "327-20-8",
    "key_name": "6-(Trifluoromethyl)-1<em>H</em>-indole-2-carboxylic acid",
    "cn_name": null,
    "alternate_name": "1<em>H</em>-Indole-2-carboxylic acid, 6-(trifluoromethyl)-;Indole-2-carboxylic acid, 6-(trifluoromethyl)-;6-(Trifluoromethyl)-1<em>H</em>-indole-2-carboxylic acid",
    "duplicated_cas_no": "",
    "SMILES": "C(F)(F)(F)C=1C=C2C(C=C(C(O)=O)N2)=CC1",
    "meta_data": {
        "InChI": "InChI=1S/C10H6F3NO2/c11-10(12,13)6-2-1-5-3-8(9(15)16)14-7(5)4-6/h1-4,14H,(H,15,16)",
        "InChIKey": null,
        "Canonical SMILES": "O=C(O)C1=CC=2C=CC(=CC2N1)C(F)(F)F",
        "Molecular Formula": "C<sub>10</sub>H<sub>6</sub>F<sub>3</sub>NO<sub>2</sub>",
        "Molecular Mass": "229.16",
        "Melting Point": "163-164 °C"
    }
}