{
    "cas_no": "623-36-9",
    "key_name": "2-Methyl-2-pentenal",
    "cn_name": "2-甲基-2-戊烯醛;&alpha;-甲基-&beta;-乙基丙烯醛;3-乙基-2-甲基丙烯醛;",
    "alternate_name": "2-Pentenal, 2-methyl-;2-Methyl-2-pentenal;α-Methyl-β-ethylacrolein;2-Methyl-2-pentene-1-al;2-Methyl-3-ethylacrolein;β-Ethyl-α-methylacrolein;2-Methyl-2-penten-1-al;NSC 9464;2,4-Dimethylcrotonaldehyde;2-Methyl-2-pentanal",
    "duplicated_cas_no": "",
    "SMILES": "C(=CCC)(C=O)C",
    "meta_data": {
        "InChI": "InChI=1S/C6H10O/c1-3-4-6(2)5-7/h4-5H,3H2,1-2H3",
        "InChIKey": null,
        "Canonical SMILES": "O=CC(=CCC)C",
        "Molecular Formula": "C<sub>6</sub>H<sub>10</sub>O",
        "Molecular Mass": "98.14",
        "Boiling Point": "136.5 °C",
        "Density": "0.8626 g/cm³ @ Temp: 19 °C"
    }
}