{
    "cas_no": "61-82-5",
    "key_name": "1<em>H</em>-1,2,4-Triazol-5-amine",
    "cn_name": "3-氨基-1,2,4-三氮唑;3-氨基-1,2,4-三唑;氨基三唑;",
    "alternate_name": "1<em>H</em>-1,2,4-Triazol-5-amine;<em>s</em>-Triazole, 3-amino-;1<em>H</em>-1,2,4-Triazol-3-amine;1<em>H</em>-1,2,4-Triazole, 3-amino-;3,A-T;ENT 25445;3-Aminotriazole;3-Amino-<em>s</em>-triazole;3-Amino-1<em>H</em>-1,2,4-triazole;3-Amino-1,2,4-triazole;Amitrol;Amitrol 90;Amitrole;Amizol;AT;ATA;Cytrole;Weedazol;Aminotriazole (plant regulator);Cytrol;2-Amino-1,3,4-triazole;Herbidal total;5-Amino-1,2,4-triazole;Azaplant;5-Amino-1<em>H</em>-1,2,4-triazole;2,3,5,6-Tetraazabicyclo[2.1.1]hex-1-ene;ATA (amine);1<em>H</em>-1,2,4-Triazol-3-ylamine;NSC 34809;NSC 7243;Amerol;Azolan;Herbizole;Amitrol T;Maxata;3-Amino-2<em>H</em>-1,2,4-triazole;1<em>H</em>-1,2,4-Triazolamine;TMG;(4<em>H</em>-1,2,4-Triazol-3-yl)amine;4<em>H</em>-3-Amino-1,2,4-triazole;1,2,4-Triazol-5-amine;A 0432;3-AT",
    "duplicated_cas_no": "155-25-9;6051-75-8;11121-00-9;16681-74-6;29212-82-6;30922-30-6;63598-72-1;64598-23-8;151517-46-3;1057722-43-6;2356230-47-0",
    "SMILES": "NC=1NC=NN1",
    "meta_data": {
        "InChI": "InChI=1S/C2H4N4/c3-2-4-1-5-6-2/h1H,(H3,3,4,5,6)",
        "InChIKey": null,
        "Canonical SMILES": "N=1N=C(N)NC1",
        "Molecular Formula": "C<sub>2</sub>H<sub>4</sub>N<sub>4</sub>",
        "Molecular Mass": "84.08",
        "Melting Point": "159 °C",
        "Density": "1.138 x 10<sup>-3</sup> g/cm³ @ Temp: 20 °C"
    }
}