{
    "cas_no": "6270-19-5",
    "key_name": "4-(2,3-Epoxypropyl)morpholine",
    "cn_name": "4-(2,3-环氧丙烷)吗啉;",
    "alternate_name": "Morpholine, 4-(2-oxiranylmethyl)-;Morpholine, 4-(2,3-epoxypropyl)-;Morpholine, 4-(oxiranylmethyl)-;4-(2-Oxiranylmethyl)morpholine;Morpholinopropylene oxide;<em>N</em>-(2,3-Epoxypropyl)morpholine;1-Morpholino-2,3-epoxypropane;3-Morpholino-1,2-epoxypropane;4-(2,3-Epoxypropyl)morpholine;4-Glycidylmorpholine;4-(Oxiranylmethyl)morpholine;(Morpholinomethyl)oxirane;2-(4-Morpholinylmethyl)oxirane;NSC 34004;4-[(Oxiran-2-yl)methyl]morpholine",
    "duplicated_cas_no": "135913-00-7",
    "SMILES": "C(N1CCOCC1)C2CO2",
    "meta_data": {
        "InChI": "InChI=1S/C7H13NO2/c1-3-9-4-2-8(1)5-7-6-10-7/h7H,1-6H2",
        "InChIKey": null,
        "Canonical SMILES": "O1CCN(CC1)CC2OC2",
        "Molecular Formula": "C<sub>7</sub>H<sub>13</sub>NO<sub>2</sub>",
        "Molecular Mass": "143.18",
        "Boiling Point": "95-97 °C @ Press: 12 Torr",
        "Density": "1.067 g/cm³ @ Temp: 20 °C"
    }
}