{
    "cas_no": "3289-47-2",
    "key_name": "2-<em>O</em>-Methylcytosine",
    "cn_name": null,
    "alternate_name": "4-Pyrimidinamine, 2-methoxy-;Pyrimidine, 4-amino-2-methoxy-;2-Methoxy-4-pyrimidinamine;2-Methoxycytosine;4-Amino-2-methoxypyrimidine;2-<em>O</em>-Methylcytosine",
    "duplicated_cas_no": "",
    "SMILES": "O(C)C=1N=C(N)C=CN1",
    "meta_data": {
        "InChI": "InChI=1S/C5H7N3O/c1-9-5-7-3-2-4(6)8-5/h2-3H,1H3,(H2,6,7,8)",
        "InChIKey": null,
        "Canonical SMILES": "N=1C=CC(=NC1OC)N",
        "Molecular Formula": "C<sub>5</sub>H<sub>7</sub>N<sub>3</sub>O",
        "Molecular Mass": "125.13",
        "Melting Point": "174 °C"
    }
}