{
    "cas_no": "66840-71-9",
    "key_name": "<em>N</em>,<em>N</em>-dimethyl-<em>N</em>′-<em>p</em>-tolylsulfamide",
    "cn_name": null,
    "alternate_name": "Sulfamide, <em>N</em>,<em>N</em>-dimethyl-<em>N</em>′-(4-methylphenyl)-;Sulfamide, <em>N</em>,<em>N</em>-dimethyl-<em>N</em>′-<em>p</em>-tolyl-;<em>N</em>,<em>N</em>-Dimethyl-<em>N</em>′-(4-methylphenyl)sulfamide;DMST;<em>N</em>,<em>N</em>-dimethyl-<em>N</em>′-<em>p</em>-tolylsulfamide;4-Dimethylaminosulfotoluidide;1-(Dimethylsulfamoylamino)-4-methylbenzene",
    "duplicated_cas_no": "",
    "SMILES": "N(S(N(C)C)(=O)=O)C1=CC=C(C)C=C1",
    "meta_data": {
        "InChI": "InChI=1S/C9H14N2O2S/c1-8-4-6-9(7-5-8)10-14(12,13)11(2)3/h4-7,10H,1-3H3",
        "InChIKey": null,
        "Canonical SMILES": "O=S(=O)(NC1=CC=C(C=C1)C)N(C)C",
        "Molecular Formula": "C<sub>9</sub>H<sub>14</sub>N<sub>2</sub>O<sub>2</sub>S",
        "Molecular Mass": "214.28",
        "Melting Point": "80 °C"
    }
}