{
    "cas_no": "35144-22-0",
    "key_name": "4,6-Dimethyl-2-(methylsulfonyl)pyrimidine",
    "cn_name": "4,6-二甲基-2-甲磺酰基嘧啶;",
    "alternate_name": "Pyrimidine, 4,6-dimethyl-2-(methylsulfonyl)-;4,6-Dimethyl-2-(methylsulfonyl)pyrimidine;2-(Methylsulfonyl)-4,6-dimethylpyrimidine;2-Methanesulfonyl-4,6-dimethylpyrimidine",
    "duplicated_cas_no": "",
    "SMILES": "S(C)(=O)(=O)C=1N=C(C)C=C(C)N1",
    "meta_data": {
        "InChI": "InChI=1S/C7H10N2O2S/c1-5-4-6(2)9-7(8-5)12(3,10)11/h4H,1-3H3",
        "InChIKey": null,
        "Canonical SMILES": "O=S(=O)(C=1N=C(C=C(N1)C)C)C",
        "Molecular Formula": "C<sub>7</sub>H<sub>10</sub>N<sub>2</sub>O<sub>2</sub>S",
        "Molecular Mass": "186.23",
        "Melting Point": "84-86 °C"
    }
}