{
    "cas_no": "37148-48-4",
    "key_name": "1-(4-Amino-3,5-dichlorophenyl)ethanone",
    "cn_name": "3,5-二氯-4-氨基苯乙酮;",
    "alternate_name": "Ethanone, 1-(4-amino-3,5-dichlorophenyl)-;1-(4-Amino-3,5-dichlorophenyl)ethanone;4′-Amino-3′,5′-dichloroacetophenone;4-Acetyl-2,6-dichloroaniline;3,5-Dichloro-4-aminoacetophenone;1-(4-Amino-3,5-dichlorophenyl)ethan-1-one",
    "duplicated_cas_no": "",
    "SMILES": "C(C)(=O)C1=CC(Cl)=C(N)C(Cl)=C1",
    "meta_data": {
        "InChI": "InChI=1S/C8H7Cl2NO/c1-4(12)5-2-6(9)8(11)7(10)3-5/h2-3H,11H2,1H3",
        "InChIKey": null,
        "Canonical SMILES": "O=C(C1=CC(Cl)=C(N)C(Cl)=C1)C",
        "Molecular Formula": "C<sub>8</sub>H<sub>7</sub>Cl<sub>2</sub>NO",
        "Molecular Mass": "204.05",
        "Melting Point": "162-163.5 °C"
    }
}