{
    "cas_no": "18812-51-6",
    "key_name": "Diethyl propylphosphonate",
    "cn_name": "1-丙基膦酸二乙酯;",
    "alternate_name": "Phosphonic acid, <em>P</em>-propyl-, diethyl ester;Phosphonic acid, propyl-, diethyl ester;Diethyl propylphosphonate;<em>O</em>,<em>O</em>-Diethyl propylphosphonate;Diethyl propanephosphonate;Diethoxypropylphosphine oxide;1-Diethoxyphosphorylpropane",
    "duplicated_cas_no": "",
    "SMILES": "P(CCC)(OCC)(OCC)=O",
    "meta_data": {
        "InChI": "InChI=1S/C7H17O3P/c1-4-7-11(8,9-5-2)10-6-3/h4-7H2,1-3H3",
        "InChIKey": null,
        "Canonical SMILES": "O=P(OCC)(OCC)CCC",
        "Molecular Formula": "C<sub>7</sub>H<sub>17</sub>O<sub>3</sub>P",
        "Molecular Mass": "180.18",
        "Boiling Point": "102 °C @ Press: 17 Torr",
        "Density": "0.9937 g/cm³ @ Temp: 30 °C"
    }
}