{
    "cas_no": "16836-95-6",
    "key_name": "Silver tosylate",
    "cn_name": null,
    "alternate_name": "Benzenesulfonic acid, 4-methyl-, silver(1+) salt (1:1);<em>p</em>-Toluenesulfonic acid, silver(1+) salt;Benzenesulfonic acid, 4-methyl-, silver(1+) salt;Silver tosylate;Silver <em>p</em>-toluenesulfonate;Silver <em>p</em>-tosylate;Silver <em>p</em>-methylbenzenesulfonate;Silver 4-methylbenzenesulfonate;Silver(1+) <em>p</em>-toluenesulfonate;Silver(1+) 4-toluenesulfonate;Silver <em>p</em>-tolylsulfonate;Silver(I) tosylate;Silver(1+) 4-methylbenzenesulfonate;Silver(I) <em>p</em>-toluenesulfonate",
    "duplicated_cas_no": "30918-75-3",
    "SMILES": "S(=O)(=O)(O)C1=CC=C(C)C=C1.[Ag]",
    "meta_data": {
        "InChI": "InChI=1S/C7H8O3S.Ag/c1-6-2-4-7(5-3-6)11(8,9)10;/h2-5H,1H3,(H,8,9,10);",
        "InChIKey": null,
        "Canonical SMILES": "[Ag].O=S(=O)(O)C1=CC=C(C=C1)C",
        "Molecular Formula": "C<sub>7</sub>H<sub>8</sub>O<sub>3</sub>S.Ag",
        "Molecular Mass": "",
        "Melting Point": "250 °C"
    }
}