{
    "cas_no": "849-55-8",
    "key_name": "Benzenemethanol, 4-hydroxy-α-[1-[(1-methyl-3-phenylpropyl)amino]ethyl]-, hydrochloride (1:1)",
    "cn_name": "布芬宁盐酸盐;",
    "alternate_name": "Benzenemethanol, 4-hydroxy-α-[1-[(1-methyl-3-phenylpropyl)amino]ethyl]-, hydrochloride (1:1);Benzyl alcohol, <em>p</em>-hydroxy-α-[1-[(1-methyl-3-phenylpropyl)amino]ethyl]-, hydrochloride;Nylidrin hydrochloride;Benzenemethanol, 4-hydroxy-α-[1-[(1-methyl-3-phenylpropyl)amino]ethyl]-, hydrochloride;Arlidin hydrochloride;Buphenine hydrochloride;Dilatol hydrochloride;<em>p</em>-Hydroxy-α-[1-[(1-methyl-3-phenylpropyl)amino]ethyl]benzyl alcohol hydrochloride;Suprifen Psb hydrochloride;Verina;Nylidrine hydrochloride;Arlidin;Dilatol;Buphenin hydrochloride;(±)-Nylidrin hydrochloride;RHC 3432A;Bufedon;SKF 1700A;Rydrin;Tocodrin;Opino;Dilatal;Penitardon;Dilatropon;Rudilin;Buphedrin;Tocodilydrin;Dilydrin;Perdilatal;NSC 142004",
    "duplicated_cas_no": "900-01-6;3595-06-0;91408-84-3",
    "SMILES": "C(C(NC(CCC1=CC=CC=C1)C)C)(O)C2=CC=C(O)C=C2.Cl",
    "meta_data": {
        "InChI": "InChI=1S/C19H25NO2.ClH/c1-14(8-9-16-6-4-3-5-7-16)20-15(2)19(22)17-10-12-18(21)13-11-17;/h3-7,10-15,19-22H,8-9H2,1-2H3;1H",
        "InChIKey": null,
        "Canonical SMILES": "Cl.OC1=CC=C(C=C1)C(O)C(NC(C)CCC=2C=CC=CC2)C",
        "Molecular Formula": "C<sub>19</sub>H<sub>25</sub>NO<sub>2</sub>.ClH",
        "Molecular Mass": "",
        "Melting Point": "198-199 °C (decomp)"
    }
}