{
    "cas_no": "10099-74-8",
    "key_name": "Lead nitrate",
    "cn_name": "硝酸铅;",
    "alternate_name": "Nitric acid, lead(2+) salt (2:1);Nitric acid, lead(2+) salt;Lead nitrate (Pb(NO<sub>3</sub>)<sub>2</sub>);Lead nitrate;Lead(II) nitrate;Lead dinitrate;Lead(II) dinitrate;Lead(2+) nitrate;Plumbous nitrate;Lead(2+) bis(nitrate)",
    "duplicated_cas_no": "18256-98-9",
    "SMILES": "N(=O)(=O)O.[Pb]",
    "meta_data": {
        "InChI": "InChI=1S/HNO3.Pb/c2-1(3)4;/h(H,2,3,4);",
        "InChIKey": null,
        "Canonical SMILES": "[Pb].O=N(=O)O",
        "Molecular Formula": "HNO<sub>3</sub>.<sup>1</sup>/<sub>2</sub>Pb",
        "Molecular Mass": "",
        "Melting Point": "470 °C",
        "Density": "4.53 g/cm³"
    }
}