{
    "cas_no": "128293-64-1",
    "key_name": "4-[[(1,1-Dimethylethoxy)carbonyl]amino]-1-methyl-1<em>H</em>-imidazole-2-carboxylic acid",
    "cn_name": null,
    "alternate_name": "1<em>H</em>-Imidazole-2-carboxylic acid, 4-[[(1,1-dimethylethoxy)carbonyl]amino]-1-methyl-;4-[[(1,1-Dimethylethoxy)carbonyl]amino]-1-methyl-1<em>H</em>-imidazole-2-carboxylic acid;4-<em>tert</em>-Butoxycarbonylamino-1-methyl-1<em>H</em>-imidazole-2-carboxylic acid",
    "duplicated_cas_no": "",
    "SMILES": "C(O)(=O)C1=NC(NC(OC(C)(C)C)=O)=CN1C",
    "meta_data": {
        "InChI": "InChI=1S/C10H15N3O4/c1-10(2,3)17-9(16)12-6-5-13(4)7(11-6)8(14)15/h5H,1-4H3,(H,12,16)(H,14,15)",
        "InChIKey": null,
        "Canonical SMILES": "O=C(O)C1=NC(=CN1C)NC(=O)OC(C)(C)C",
        "Molecular Formula": "C<sub>10</sub>H<sub>15</sub>N<sub>3</sub>O<sub>4</sub>",
        "Molecular Mass": "241.24",
        "Melting Point": "200-201 °C"
    }
}