{
    "cas_no": "2941-78-8",
    "key_name": "2-Amino-5-methylbenzoic acid",
    "cn_name": "2-氨基-5-甲基苯甲酸;5-甲基邻氨基苯甲酸;",
    "alternate_name": "Benzoic acid, 2-amino-5-methyl-;<em>m</em>-Toluic acid, 6-amino-;2-Amino-5-methylbenzoic acid;5-Methylanthranilic acid;5-Methyl-2-aminobenzoic acid;2-Carboxy-4-methylaniline;NSC 39154;NSC 50786",
    "duplicated_cas_no": "",
    "SMILES": "C(O)(=O)C1=C(N)C=CC(C)=C1",
    "meta_data": {
        "InChI": "InChI=1S/C8H9NO2/c1-5-2-3-7(9)6(4-5)8(10)11/h2-4H,9H2,1H3,(H,10,11)",
        "InChIKey": null,
        "Canonical SMILES": "O=C(O)C1=CC(=CC=C1N)C",
        "Molecular Formula": "C<sub>8</sub>H<sub>9</sub>NO<sub>2</sub>",
        "Molecular Mass": "151.16",
        "Melting Point": "177 °C"
    }
}