{
    "cas_no": "554-12-1",
    "key_name": "Methyl propionate",
    "cn_name": "丙酸甲酯;",
    "alternate_name": "Propanoic acid, methyl ester;Propionic acid, methyl ester;Methyl propionate;Methyl propanoate;Methyl propylate;NSC 9375",
    "duplicated_cas_no": "",
    "SMILES": "C(CC)(OC)=O",
    "meta_data": {
        "InChI": "InChI=1S/C4H8O2/c1-3-4(5)6-2/h3H2,1-2H3",
        "InChIKey": null,
        "Canonical SMILES": "O=C(OC)CC",
        "Molecular Formula": "C<sub>4</sub>H<sub>8</sub>O<sub>2</sub>",
        "Molecular Mass": "88.11",
        "Boiling Point": "79.8 °C",
        "Melting Point": "-87.5 °C",
        "Density": "0.915 g/cm³ @ Temp: 20 °C"
    }
}