{
    "cas_no": "13351-73-0",
    "key_name": "1-Methylbenzotriazole",
    "cn_name": "1-甲基苯并三唑;1-甲基-1,2,3-苯并三唑;",
    "alternate_name": "1<em>H</em>-Benzotriazole, 1-methyl-;1-Methyl-1<em>H</em>-benzotriazole;1-Methylbenzotriazole;1-Methyl-1,2,3-benzotriazole;NSC 11743;1-Methyl-1<em>H</em>-benzo[<em>d</em>][1,2,3]triazole;1-Methyl-1<em>H</em>-1,2,3-benzotriazole",
    "duplicated_cas_no": "",
    "SMILES": "CN1C=2C(=CC=CC2)N=N1",
    "meta_data": {
        "InChI": "InChI=1S/C7H7N3/c1-10-7-5-3-2-4-6(7)8-9-10/h2-5H,1H3",
        "InChIKey": null,
        "Canonical SMILES": "N1=NN(C=2C=CC=CC12)C",
        "Molecular Formula": "C<sub>7</sub>H<sub>7</sub>N<sub>3</sub>",
        "Molecular Mass": "133.15",
        "Boiling Point": "270.5 °C",
        "Melting Point": "64.5 °C"
    }
}