{
    "cas_no": "54340-58-8",
    "key_name": "Meptazinol",
    "cn_name": "美普他酚;美他西诺;美他齐诺;3-(3-乙基六氢-1-甲基-1H-氮杂卓基-3-基)苯酚;",
    "alternate_name": "Phenol, 3-(3-ethylhexahydro-1-methyl-1<em>H</em>-azepin-3-yl)-;3-(3-Ethylhexahydro-1-methyl-1<em>H</em>-azepin-3-yl)phenol;Meptazinol;Meptamizol;(±)-Meptazinol",
    "duplicated_cas_no": "100827-19-8",
    "SMILES": "C(C)C1(CN(C)CCCC1)C2=CC(O)=CC=C2",
    "meta_data": {
        "InChI": "InChI=1S/C15H23NO/c1-3-15(9-4-5-10-16(2)12-15)13-7-6-8-14(17)11-13/h6-8,11,17H,3-5,9-10,12H2,1-2H3",
        "InChIKey": null,
        "Canonical SMILES": "OC1=CC=CC(=C1)C2(CN(C)CCCC2)CC",
        "Molecular Formula": "C<sub>15</sub>H<sub>23</sub>NO",
        "Molecular Mass": "233.35",
        "Melting Point": "127-133 °C"
    }
}