{
    "cas_no": "4672-38-2",
    "key_name": "Propylphosphonic acid",
    "cn_name": null,
    "alternate_name": "Phosphonic acid, <em>P</em>-propyl-;Phosphonic acid, propyl-;<em>P</em>-Propylphosphonic acid;1-Propanephosphonic acid;1-Propylphosphonic acid;Propylphosphonic acid;NIA 10656;Dihydrogen propylphosphonate;Propanephosphonic acid;PPA;<em>n</em>-Propylphosphonic acid;Propylphosphonic acid anhydride",
    "duplicated_cas_no": "",
    "SMILES": "C(P(=O)(O)O)CC",
    "meta_data": {
        "InChI": "InChI=1S/C3H9O3P/c1-2-3-7(4,5)6/h2-3H2,1H3,(H2,4,5,6)",
        "InChIKey": null,
        "Canonical SMILES": "O=P(O)(O)CCC",
        "Molecular Formula": "C<sub>3</sub>H<sub>9</sub>O<sub>3</sub>P",
        "Molecular Mass": "124.08",
        "Melting Point": "73.8 °C"
    }
}