{
    "cas_no": "764-47-6",
    "key_name": "Propyl vinyl ether",
    "cn_name": "正丙基乙烯基醚;",
    "alternate_name": "Propane, 1-(ethenyloxy)-;Ether, propyl vinyl;1-(Ethenyloxy)propane;Propyl vinyl ether;Propoxyethene;Vinyl propyl ether;Propoxyethylene;<em>n</em>-Propyl vinyl ether;1-(Vinyloxy)propane;1-Ethenoxypropane",
    "duplicated_cas_no": "",
    "SMILES": "C(OC=C)CC",
    "meta_data": {
        "InChI": "InChI=1S/C5H10O/c1-3-5-6-4-2/h4H,2-3,5H2,1H3",
        "InChIKey": null,
        "Canonical SMILES": "O(C=C)CCC",
        "Molecular Formula": "C<sub>5</sub>H<sub>10</sub>O",
        "Molecular Mass": "86.13",
        "Boiling Point": "65 °C",
        "Density": "0.7668 g/cm³ @ Temp: 20 °C"
    }
}