{
    "cas_no": "3155-48-4",
    "key_name": "5,6-Dihydro-4-methoxy-6-[(1<em>E</em>)-2-phenylethenyl]-2<em>H</em>-pyran-2-one",
    "cn_name": null,
    "alternate_name": "2<em>H</em>-Pyran-2-one, 5,6-dihydro-4-methoxy-6-[(1<em>E</em>)-2-phenylethenyl]-;2<em>H</em>-Pyran-2-one, 5,6-dihydro-4-methoxy-6-(2-phenylethenyl)-, (<em>E</em>)-(±)-;2<em>H</em>-Pyran-2-one, 5,6-dihydro-4-methoxy-6-styryl-, (±)-;5,6-Dihydro-4-methoxy-6-[(1<em>E</em>)-2-phenylethenyl]-2<em>H</em>-pyran-2-one;<span class=\"text-smallcaps\">DL</span>-Kawain;(±)-Kawain;<em>dl</em>-Kavain;2<em>H</em>-Pyran-2-one, 5,6-dihydro-4-methoxy-6-(2-phenylethenyl)-, (<em>E</em>)-;(±)-Kavain;<span class=\"text-smallcaps\">DL</span>-Kavain",
    "duplicated_cas_no": "20735-28-8",
    "SMILES": "C(=C/C1=CC=CC=C1)\\C2CC(OC)=CC(=O)O2",
    "meta_data": {
        "InChI": "InChI=1/C14H14O3/c1-16-13-9-12(17-14(15)10-13)8-7-11-5-3-2-4-6-11/h2-8,10,12H,9H2,1H3/b8-7+",
        "InChIKey": null,
        "Canonical SMILES": "O=C1OC(C=CC=2C=CC=CC2)CC(OC)=C1",
        "Molecular Formula": "C<sub>14</sub>H<sub>14</sub>O<sub>3</sub>",
        "Molecular Mass": "230.26",
        "Melting Point": "146-147 °C"
    }
}