{
    "cas_no": "126784-99-4",
    "key_name": "Ulipristal acetate",
    "cn_name": null,
    "alternate_name": "19-Norpregna-4,9-diene-3,20-dione, 17-(acetyloxy)-11-[4-(dimethylamino)phenyl]-, (11β)-;(11β)-17-(Acetyloxy)-11-[4-(dimethylamino)phenyl]-19-norpregna-4,9-diene-3,20-dione;CDB 2914;RTI 3021-012;CBD(VA) 2914;VA 2914;17α-Acetoxy-11β-(4-dimethylaminophenyl)-19-norpregna-4,9-dien-3,20-dione;RU 44675;HRP 2000;Ulipristal acetate;17α-Acetoxy-11β-[4-<em>N</em>,<em>N</em>-dimethylaminophenyl]-19-norpregna-4,9-diene-3,20-dione;EllaOne;Esmya;17-Acetoxy-11β-[(4-(<em>N</em>,<em>N</em>-dimethylamino)phenyl]-19-norpregna-4,9-diene-3,20-dione;17-Acetyloxy-11β-[(4-(<em>N</em>,<em>N</em>-dimethylamino)phenyl]-19-norpregna-4,9-diene-3,20-dione;17-Acetoxy-11β-[(4-(dimethylamino)phenyl]-19-norpregna-4,9-diene-3,20-dione;[(8<em>S</em>,11<em>R</em>,13<em>S</em>,14<em>S</em>,17<em>R</em>)-17-Acetyl-11-[4-(dimethylamino)phenyl]-13-methyl-3-oxo-1,2,6,7,8,11,12,14,15,16-decahydro-1<em>H</em>-cyclopenta[<em>a</em>]phenanthren-17-yl]acetate",
    "duplicated_cas_no": "136960-00-4;199015-61-7;1379515-47-5",
    "SMILES": "C[C@@]12[C@]([C@]3(C([C@H](C1)C4=CC=C(N(C)C)C=C4)=C5C(CC3)=CC(=O)CC5)[H])(CC[C@]2(OC(C)=O)C(C)=O)[H]",
    "meta_data": {
        "InChI": "InChI=1S/C30H37NO4/c1-18(32)30(35-19(2)33)15-14-27-25-12-8-21-16-23(34)11-13-24(21)28(25)26(17-29(27,30)3)20-6-9-22(10-7-20)31(4)5/h6-7,9-10,16,25-27H,8,11-15,17H2,1-5H3/t25-,26+,27-,29-,30-/m0/s1",
        "InChIKey": null,
        "Canonical SMILES": "O=C(OC1(C(=O)C)CCC2C3C(=C4C(=CC(=O)CC4)CC3)C(C5=CC=C(C=C5)N(C)C)CC21C)C",
        "Molecular Formula": "C<sub>30</sub>H<sub>37</sub>NO<sub>4</sub>",
        "Molecular Mass": "475.62",
        "Melting Point": "183-185 °C"
    }
}