{
    "cas_no": "4442-79-9",
    "key_name": "Cyclohexylethanol",
    "cn_name": "2-环己基乙醇;",
    "alternate_name": "Cyclohexaneethanol;β-Cyclohexylethyl alcohol;2-Cyclohexylethanol;Cyclohexylethyl alcohol;Cyclohexylethanol;2-Cyclohexyl-1-ethanol;NSC 30157;2-Cyclohexaneethanol",
    "duplicated_cas_no": "",
    "SMILES": "C(CO)C1CCCCC1",
    "meta_data": {
        "InChI": "InChI=1S/C8H16O/c9-7-6-8-4-2-1-3-5-8/h8-9H,1-7H2",
        "InChIKey": null,
        "Canonical SMILES": "OCCC1CCCCC1",
        "Molecular Formula": "C<sub>8</sub>H<sub>16</sub>O",
        "Molecular Mass": "128.21",
        "Boiling Point": "208 °C",
        "Melting Point": "-20 °C",
        "Density": "0.9165 g/cm³ @ Temp: 25 °C"
    }
}