{
    "cas_no": "869-19-2",
    "key_name": "Glycyl-<span class=\"text-smallcaps\">L</span>-leucine",
    "cn_name": "甘氨酰-L-亮氨酸;",
    "alternate_name": "<span class=\"text-smallcaps\">L</span>-Leucine, glycyl-;Leucine, <em>N</em>-glycyl-, <span class=\"text-smallcaps\">L</span>-;<span class=\"text-smallcaps\">L</span>-Leucine, <em>N</em>-glycyl-;Glycyl-<span class=\"text-smallcaps\">L</span>-leucine;Glycylleucine;<em>N</em>-Glycyl-<span class=\"text-smallcaps\">L</span>-leucine;NSC 83257;98: PN: EP2161028 PAGE: 10 claimed protein;20: PN: WO2014063098 TABLE: 5 claimed protein;117: PN: US20130123467 SEQID: 141 claimed protein;17: PN: KR20140043582 SEQID: 20 claimed protein;4: PN: WO2014170713 SEQID: 104 claimed protein;(2S)-2-[(2-Aminoacetyl)amino]-4-methylpentanoic acid;(2S)-2-(2-Aminoacetamido)-4-methylpentanoic acid;35: PN: WO2021211467 SEQID: 188 claimed sequence;467: PN: WO2022125673 SEQID: 467 claimed protein;23: PN: WO2022164392 PAGE: 44 claimed sequence;485: PN: WO2022215055 SEQID: 485 claimed protein",
    "duplicated_cas_no": "171920-34-6",
    "SMILES": "[C@H](NC(CN)=O)(CC(C)C)C(O)=O",
    "meta_data": {
        "InChI": "InChI=1S/C8H16N2O3/c1-5(2)3-6(8(12)13)10-7(11)4-9/h5-6H,3-4,9H2,1-2H3,(H,10,11)(H,12,13)/t6-/m0/s1",
        "InChIKey": null,
        "Canonical SMILES": "O=C(O)C(NC(=O)CN)CC(C)C",
        "Molecular Formula": "C<sub>8</sub>H<sub>16</sub>N<sub>2</sub>O<sub>3</sub>",
        "Molecular Mass": "188.22",
        "Melting Point": "242 °C (decomp)"
    }
}