{
    "cas_no": "64036-71-1",
    "key_name": "2-Benzothiazolamine, 4,6-dimethyl-",
    "cn_name": null,
    "alternate_name": "2-Benzothiazolamine, 4,6-dimethyl-;4,6-Dimethyl-2-benzothiazolamine;4,6-Dimethyl-1,3-benzothiazol-2-ylamine;NSC 158038;(4,6-Dimethylbenzothiazol-2-yl)amine;2-Amino-4,6-dimethylbenzothiazole;4,6-Dimethylbenzo[<em>d</em>]thiazol-2-amine",
    "duplicated_cas_no": "",
    "SMILES": "CC1=C2C(SC(N)=N2)=CC(C)=C1",
    "meta_data": {
        "InChI": "InChI=1S/C9H10N2S/c1-5-3-6(2)8-7(4-5)12-9(10)11-8/h3-4H,1-2H3,(H2,10,11)",
        "InChIKey": null,
        "Canonical SMILES": "N1=C(SC2=CC(=CC(=C12)C)C)N",
        "Molecular Formula": "C<sub>9</sub>H<sub>10</sub>N<sub>2</sub>S",
        "Molecular Mass": "178.25",
        "Melting Point": "138 °C"
    }
}