{
    "cas_no": "763114-26-7",
    "key_name": "2-Fluoro-5-(4-oxo-3,4-dihydrophthalazin-1-ylmethyl)benzoic acid",
    "cn_name": null,
    "alternate_name": "Benzoic acid, 5-[(3,4-dihydro-4-oxo-1-phthalazinyl)methyl]-2-fluoro-;5-[(3,4-Dihydro-4-oxo-1-phthalazinyl)methyl]-2-fluorobenzoic acid;2-Fluoro-5-(4-oxo-3,4-dihydrophthalazin-1-ylmethyl)benzoic acid;2-Fluoro-5-[(4-oxo-3<em>H</em>-phthalazin-1-yl)methyl]benzoic acid",
    "duplicated_cas_no": "2361416-85-3",
    "SMILES": "C(C=1C=2C(C(=O)NN1)=CC=CC2)C3=CC(C(O)=O)=C(F)C=C3",
    "meta_data": {
        "InChI": "InChI=1S/C16H11FN2O3/c17-13-6-5-9(7-12(13)16(21)22)8-14-10-3-1-2-4-11(10)15(20)19-18-14/h1-7H,8H2,(H,19,20)(H,21,22)",
        "InChIKey": null,
        "Canonical SMILES": "O=C(O)C1=CC(=CC=C1F)CC2=NNC(=O)C=3C=CC=CC32",
        "Molecular Formula": "C<sub>16</sub>H<sub>11</sub>FN<sub>2</sub>O<sub>3</sub>",
        "Molecular Mass": "298.27",
        "Melting Point": "&gt;300 °C"
    }
}