{
    "cas_no": "3112-90-1",
    "key_name": "[(Methylsulfonyl)methyl]benzene",
    "cn_name": "苄基甲基砜;",
    "alternate_name": "Benzene, [(methylsulfonyl)methyl]-;Sulfone, benzyl methyl;[(Methylsulfonyl)methyl]benzene;Benzyl methyl sulfone;Methyl benzyl sulfone;NSC 409406;(Methanesulfonylmethyl)benzene",
    "duplicated_cas_no": "",
    "SMILES": "C(S(C)(=O)=O)C1=CC=CC=C1",
    "meta_data": {
        "InChI": "InChI=1S/C8H10O2S/c1-11(9,10)7-8-5-3-2-4-6-8/h2-6H,7H2,1H3",
        "InChIKey": null,
        "Canonical SMILES": "O=S(=O)(C)CC=1C=CC=CC1",
        "Molecular Formula": "C<sub>8</sub>H<sub>10</sub>O<sub>2</sub>S",
        "Molecular Mass": "170.23",
        "Melting Point": "127 °C"
    }
}