{
    "cas_no": "1113-59-3",
    "key_name": "Bromopyruvic acid",
    "cn_name": "3-溴丙酮酸;",
    "alternate_name": "Propanoic acid, 3-bromo-2-oxo-;Pyruvic acid, bromo-;3-Bromo-2-oxopropanoic acid;Bromopyruvic acid;β-Bromopyruvic acid;3-Bromopyruvic acid;3-Bromopyruvate;NSC 11731;NSC 62343;3-Bromo-2-oxo-propionic acid",
    "duplicated_cas_no": "",
    "SMILES": "C(C(O)=O)(CBr)=O",
    "meta_data": {
        "InChI": "InChI=1S/C3H3BrO3/c4-1-2(5)3(6)7/h1H2,(H,6,7)",
        "InChIKey": null,
        "Canonical SMILES": "O=C(O)C(=O)CBr",
        "Molecular Formula": "C<sub>3</sub>H<sub>3</sub>BrO<sub>3</sub>",
        "Molecular Mass": "166.96",
        "Melting Point": "59 °C"
    }
}