{
    "cas_no": "38861-78-8",
    "key_name": "4′-Isobutylacetophenone",
    "cn_name": "4-异丁基苯乙酮;",
    "alternate_name": "Ethanone, 1-[4-(2-methylpropyl)phenyl]-;Acetophenone, 4′-isobutyl-;1-[4-(2-Methylpropyl)phenyl]ethanone;<em>p</em>-Isobutylacetophenone;4′-Isobutylacetophenone;<em>p</em>-Isobutylphenyl methyl ketone;1-Acetyl-4-isobutylbenzene;1-[4-(2-Methylpropyl)phenyl]-1-ethanone;4-(2-Methylpropyl)acetophenone;<em>p</em>-Acetylisobutylbenzene;NSC 173015;1-(4-Isobutylphenyl)ethan-1-one",
    "duplicated_cas_no": "",
    "SMILES": "C(C(C)C)C1=CC=C(C(C)=O)C=C1",
    "meta_data": {
        "InChI": "InChI=1S/C12H16O/c1-9(2)8-11-4-6-12(7-5-11)10(3)13/h4-7,9H,8H2,1-3H3",
        "InChIKey": null,
        "Canonical SMILES": "O=C(C1=CC=C(C=C1)CC(C)C)C",
        "Molecular Formula": "C<sub>12</sub>H<sub>16</sub>O",
        "Molecular Mass": "176.25",
        "Boiling Point": "135 °C"
    }
}