{
    "cas_no": "1074-63-1",
    "key_name": "3-(Cyclopentylamino)propanenitrile",
    "cn_name": null,
    "alternate_name": "Propanenitrile, 3-(cyclopentylamino)-;Propionitrile, 3-(cyclopentylamino)-;3-(Cyclopentylamino)propanenitrile",
    "duplicated_cas_no": "",
    "SMILES": "N(CCC#N)C1CCCC1",
    "meta_data": {
        "InChI": "InChI=1S/C8H14N2/c9-6-3-7-10-8-4-1-2-5-8/h8,10H,1-5,7H2",
        "InChIKey": null,
        "Canonical SMILES": "N#CCCNC1CCCC1",
        "Molecular Formula": "C<sub>8</sub>H<sub>14</sub>N<sub>2</sub>",
        "Molecular Mass": "138.21",
        "Boiling Point": "115-116 °C @ Press: 7 Torr"
    }
}