{
    "cas_no": "19171-18-7",
    "key_name": "2-(2,6-Dioxo-3-piperidinyl)-4-nitro-1<em>H</em>-isoindole-1,3(2<em>H</em>)-dione",
    "cn_name": null,
    "alternate_name": "1<em>H</em>-Isoindole-1,3(2<em>H</em>)-dione, 2-(2,6-dioxo-3-piperidinyl)-4-nitro-;Phthalimide, <em>N</em>-(2,6-dioxo-3-piperidyl)-3-nitro-;2-(2,6-Dioxo-3-piperidinyl)-4-nitro-1<em>H</em>-isoindole-1,3(2<em>H</em>)-dione;4-Nitrothalidomide;2-(2,6-Dioxopiperidin-3-yl)-4-nitro-isoindole-1,3-dione;4-Nitro-2-(2,6-dioxopiperidin-3-yl)isoindoline-1,3-dione;2-(2,6-Dioxopiperidin-3-yl)-4-nitroisoindoline-1,3-dione;EC1-078",
    "duplicated_cas_no": "",
    "SMILES": "O=C1C=2C(C(=O)N1C3C(=O)NC(=O)CC3)=CC=CC2N(=O)=O",
    "meta_data": {
        "InChI": "InChI=1S/C13H9N3O6/c17-9-5-4-8(11(18)14-9)15-12(19)6-2-1-3-7(16(21)22)10(6)13(15)20/h1-3,8H,4-5H2,(H,14,17,18)",
        "InChIKey": null,
        "Canonical SMILES": "O=C1NC(=O)C(N2C(=O)C3=CC=CC(=C3C2=O)N(=O)=O)CC1",
        "Molecular Formula": "C<sub>13</sub>H<sub>9</sub>N<sub>3</sub>O<sub>6</sub>",
        "Molecular Mass": "303.23",
        "Melting Point": "&gt;250 °C"
    }
}