{
    "cas_no": "59887-89-7",
    "key_name": "7-Hydroxychromone",
    "cn_name": null,
    "alternate_name": "4<em>H</em>-1-Benzopyran-4-one, 7-hydroxy-;Chromone, 7-hydroxy-;7-Hydroxy-4<em>H</em>-1-benzopyran-4-one;7-Hydroxychromone;7-Hydroxybenzopyran-4-one;7-Hydroxy-4-chromone;7-Hydroxy-4<em>H</em>-chromen-4-one;7-Hydroxychromen-4-one",
    "duplicated_cas_no": "",
    "SMILES": "O=C1C=2C(=CC(O)=CC2)OC=C1",
    "meta_data": {
        "InChI": "InChI=1S/C9H6O3/c10-6-1-2-7-8(11)3-4-12-9(7)5-6/h1-5,10H",
        "InChIKey": null,
        "Canonical SMILES": "O=C1C=COC2=CC(O)=CC=C12",
        "Molecular Formula": "C<sub>9</sub>H<sub>6</sub>O<sub>3</sub>",
        "Molecular Mass": "162.14",
        "Melting Point": "218 °C"
    }
}