{
    "cas_no": "4261-68-1",
    "key_name": "2-Propanamine, <em>N</em>-(2-chloroethyl)-<em>N</em>-(1-methylethyl)-, hydrochloride (1:1)",
    "cn_name": "二异丙氨基乙基氯盐酸盐;盐酸N,N-二异丙基-2-氨基氯代乙烷;",
    "alternate_name": "2-Propanamine, <em>N</em>-(2-chloroethyl)-<em>N</em>-(1-methylethyl)-, hydrochloride (1:1);Triethylamine, 2′′-chloro-1,1′-dimethyl-, hydrochloride;2-Propanamine, <em>N</em>-(2-chloroethyl)-<em>N</em>-(1-methylethyl)-, hydrochloride;2-(Diisopropylamino)ethyl chloride hydrochloride;(β-Chloroethyl)diisopropylamine hydrochloride;<em>N</em>-(2-Chloroethyl)diisopropylamine hydrochloride;2-Chloroethyldiisopropylamine hydrochloride;2-Chloro-<em>N</em>,<em>N</em>-bis(isopropyl)ethanamine hydrochloride;2-(<em>N</em>,<em>N</em>-Diisopropylamino)ethyl chloride hydrochloride;<em>N</em>-(2-Chloroethyl)-<em>N</em>-isopropylpropan-2-amine hydrochloride;2-Chloro-<em>N</em>,<em>N</em>-diisopropylethylamine hydrochloride;<em>N</em>,<em>N</em>-Diisopropyl-2-Chloroethylamine hydrochloride;1-Chloro-2-diisopropylaminoethane hydrochloride",
    "duplicated_cas_no": "",
    "SMILES": "N(CCCl)(C(C)C)C(C)C.Cl",
    "meta_data": {
        "InChI": "InChI=1S/C8H18ClN.ClH/c1-7(2)10(6-5-9)8(3)4;/h7-8H,5-6H2,1-4H3;1H",
        "InChIKey": null,
        "Canonical SMILES": "Cl.ClCCN(C(C)C)C(C)C",
        "Molecular Formula": "C<sub>8</sub>H<sub>18</sub>ClN.ClH",
        "Molecular Mass": "",
        "Melting Point": "110 °C"
    }
}