{
    "cas_no": "1897-53-6",
    "key_name": "2-Fluoro-1,4-benzenedicarbonitrile",
    "cn_name": null,
    "alternate_name": "1,4-Benzenedicarbonitrile, 2-fluoro-;Terephthalonitrile, fluoro-;2-Fluoro-1,4-benzenedicarbonitrile;2-Fluoroterephthalonitrile",
    "duplicated_cas_no": "",
    "SMILES": "C(#N)C1=CC(F)=C(C#N)C=C1",
    "meta_data": {
        "InChI": "InChI=1S/C8H3FN2/c9-8-3-6(4-10)1-2-7(8)5-11/h1-3H",
        "InChIKey": null,
        "Canonical SMILES": "N#CC1=CC=C(C#N)C(F)=C1",
        "Molecular Formula": "C<sub>8</sub>H<sub>3</sub>FN<sub>2</sub>",
        "Molecular Mass": "146.12",
        "Melting Point": "121.0-123.5 °C"
    }
}