{
    "cas_no": "315-37-7",
    "key_name": "Testosterone enanthate",
    "cn_name": "庚酸睾酮;",
    "alternate_name": "Androst-4-en-3-one, 17-[(1-oxoheptyl)oxy]-, (17β)-;Testosterone, heptanoate;Heptanoic acid, ester with testosterone;(17β)-17-[(1-Oxoheptyl)oxy]androst-4-en-3-one;Reposo TMD;Testosterone enanthate;Testosterone oenanthate;Delatestryl;Testosterone 17-enanthate;17β-Enanthoxyandrost-4-en-3-one;Androtardyl;Testosterone heptylate;4-Androsten-3-one 17β-enanthate;17β-Hydroxyandrost-4-en-3-one enanthate;Testenate;Testo-Enant;Everone;NSC 17591;Testinon;Andro LA 200;Primoteston-Depot;Enarmone depot;Jenasteron;4-Androstene-17β-ol-3-one enanthate",
    "duplicated_cas_no": "11111-10-7",
    "SMILES": "C[C@@]12[C@@]3([C@]([C@]4([C@](C)(CC3)[C@@H](OC(CCCCCC)=O)CC4)[H])(CCC1=CC(=O)CC2)[H])[H]",
    "meta_data": {
        "InChI": "InChI=1S/C26H40O3/c1-4-5-6-7-8-24(28)29-23-12-11-21-20-10-9-18-17-19(27)13-15-25(18,2)22(20)14-16-26(21,23)3/h17,20-23H,4-16H2,1-3H3/t20-,21-,22-,23-,25-,26-/m0/s1",
        "InChIKey": null,
        "Canonical SMILES": "O=C(OC1CCC2C3CCC4=CC(=O)CCC4(C)C3CCC12C)CCCCCC",
        "Molecular Formula": "C<sub>26</sub>H<sub>40</sub>O<sub>3</sub>",
        "Molecular Mass": "400.59",
        "Melting Point": "37 °C"
    }
}