{
    "cas_no": "330-95-0",
    "key_name": "Nicarbazin",
    "cn_name": "尼卡巴嗪;球虫净;双硝苯脲二嘧啶醇;4,4-二硝基均二苯脲与2-羟基-4,6-二甲基嘧啶的化合物;",
    "alternate_name": "Urea, <em>N</em>,<em>N</em>′-bis(4-nitrophenyl)-, compd. with 4,6-dimethyl-2(1<em>H</em>)-pyrimidinone (1:1);Carbanilide, 4,4′-dinitro-, compd. with 4,6-dimethyl-2-pyrimidinol (1:1);Carbanilide, 4,4′-dinitro-, compd. with 4,6-dimethyl-2-pyrimidinol;2-Pyrimidinol, 4,6-dimethyl-, compd. with 4,4′-dinitrocarbanilide (1:1);2-Pyrimidinol, 4,6-dimethyl-, compd. with 4,4′-dinitrocarbanilide;Nicarbazin;Nicoxin;Nicarbazine;Nicarb;MK 75;Nicrazin;Nicrazine;NSC 7171;MeSH ID: D009528",
    "duplicated_cas_no": "8027-87-0",
    "SMILES": "N(C(NC1=CC=C(N(=O)=O)C=C1)=O)C2=CC=C(N(=O)=O)C=C2.CC1=CC(C)=NC(=O)N1",
    "meta_data": {
        "InChI": "InChI=1S/C13H10N4O5.C6H8N2O/c18-13(14-9-1-5-11(6-2-9)16(19)20)15-10-3-7-12(8-4-10)17(21)22;1-4-3-5(2)8-6(9)7-4/h1-8H,(H2,14,15,18);3H,1-2H3,(H,7,8,9)",
        "InChIKey": null,
        "Canonical SMILES": "O=C1N=C(C=C(N1)C)C.O=C(NC1=CC=C(C=C1)N(=O)=O)NC2=CC=C(C=C2)N(=O)=O",
        "Molecular Formula": "C<sub>13</sub>H<sub>10</sub>N<sub>4</sub>O<sub>5</sub>.C<sub>6</sub>H<sub>8</sub>N<sub>2</sub>O",
        "Molecular Mass": "",
        "Melting Point": "265-267 °C"
    }
}