{
    "cas_no": "598-75-4",
    "key_name": "3-Methyl-2-butanol",
    "cn_name": null,
    "alternate_name": "2-Butanol, 3-methyl-;3-Methyl-2-butanol;<em>sec</em>-Isoamyl alcohol;Methylisopropylcarbinol;1,2-Dimethylpropanol;2-Methyl-3-butanol;1,2-Dimethyl-1-propanol;(±)-3-Methyl-2-butanol;(±)-2-Methyl-3-Butanol;NSC 71162;1,2-Dimethylpropyl alcohol",
    "duplicated_cas_no": "70116-68-6",
    "SMILES": "C(C(C)O)(C)C",
    "meta_data": {
        "InChI": "InChI=1S/C5H12O/c1-4(2)5(3)6/h4-6H,1-3H3",
        "InChIKey": null,
        "Canonical SMILES": "OC(C)C(C)C",
        "Molecular Formula": "C<sub>5</sub>H<sub>12</sub>O",
        "Molecular Mass": "88.15",
        "Boiling Point": "112 °C",
        "Melting Point": "92.0-92.5 °C",
        "Density": "0.810 g/cm³ @ Temp: 25 °C"
    }
}