{
    "cas_no": "3007-97-4",
    "key_name": "Ethyl 1-naphthalenecarboxylate",
    "cn_name": "1-萘甲酸乙酯;1-萘甲酸乙基酯;1-萘甲酸乙酯,97%;",
    "alternate_name": "1-Naphthalenecarboxylic acid, ethyl ester;1-Naphthoic acid, ethyl ester;Ethyl 1-naphthalenecarboxylate;Ethyl 1-naphthoate;Ethyl α-naphthoate;NSC 409986",
    "duplicated_cas_no": "",
    "SMILES": "C(OCC)(=O)C=1C2=C(C=CC1)C=CC=C2",
    "meta_data": {
        "InChI": "InChI=1S/C13H12O2/c1-2-15-13(14)12-9-5-7-10-6-3-4-8-11(10)12/h3-9H,2H2,1H3",
        "InChIKey": null,
        "Canonical SMILES": "O=C(OCC)C1=CC=CC=2C=CC=CC21",
        "Molecular Formula": "C<sub>13</sub>H<sub>12</sub>O<sub>2</sub>",
        "Molecular Mass": "200.23",
        "Boiling Point": "310 °C"
    }
}