{
    "cas_no": "7397-62-8",
    "key_name": "Butyl glycolate",
    "cn_name": "羟基乙酸丁酯;乙醇酸丁酯;",
    "alternate_name": "Acetic acid, 2-hydroxy-, butyl ester;Glycolic acid, butyl ester;Acetic acid, hydroxy-, butyl ester;Butyl glycolate;Butoxycarbonylmethanol;Butyl hydroxyacetate;Polysolvan O;<em>n</em>-Butyl glycolate;Butyl 2-hydroxyacetate",
    "duplicated_cas_no": "",
    "SMILES": "C(OCCCC)(CO)=O",
    "meta_data": {
        "InChI": "InChI=1S/C6H12O3/c1-2-3-4-9-6(8)5-7/h7H,2-5H2,1H3",
        "InChIKey": null,
        "Canonical SMILES": "O=C(OCCCC)CO",
        "Molecular Formula": "C<sub>6</sub>H<sub>12</sub>O<sub>3</sub>",
        "Molecular Mass": "132.16",
        "Boiling Point": "87-88 °C @ Press: 20.5 Torr"
    }
}