{
    "cas_no": "3485-84-5",
    "key_name": "Vinylphthalimide",
    "cn_name": "N-乙烯酞亚胺;N-乙烯基邻苯亚胺;",
    "alternate_name": "1<em>H</em>-Isoindole-1,3(2<em>H</em>)-dione, 2-ethenyl-;Phthalimide, <em>N</em>-vinyl-;2-Ethenyl-1<em>H</em>-isoindole-1,3(2<em>H</em>)-dione;<em>N</em>-Vinylphthalimide;Vinylphthalimide;NSC 10395;2-Vinyl-1<em>H</em>-isoindole-1,3(2<em>H</em>)-dione;2-Vinylisoindoline-1,3-dione;<em>N</em>-Vinylphthalamide;2-Ethenylisoindole-1,3-dione;2-Ethenyl-2,3-dihydro-1<em>H</em>-isoindole-1,3-dione",
    "duplicated_cas_no": "",
    "SMILES": "O=C1C=2C(C(=O)N1C=C)=CC=CC2",
    "meta_data": {
        "InChI": "InChI=1S/C10H7NO2/c1-2-11-9(12)7-5-3-4-6-8(7)10(11)13/h2-6H,1H2",
        "InChIKey": null,
        "Canonical SMILES": "O=C1C=2C=CC=CC2C(=O)N1C=C",
        "Molecular Formula": "C<sub>10</sub>H<sub>7</sub>NO<sub>2</sub>",
        "Molecular Mass": "173.17",
        "Boiling Point": "115-120 °C @ Press: 0.5 Torr",
        "Melting Point": "86 °C"
    }
}