{
    "cas_no": "99290-97-8",
    "key_name": "(1<em>Z</em>,3<em>R</em>,4<em>R</em>,5<em>S</em>,6<em>R</em>,9<em>R</em>,10<em>S</em>,11<em>S</em>,12<em>R</em>,13<em>R</em>,15<em>R</em>)-10-[(2,6-Dideoxy-3-<em>C</em>-methyl-3-<em>O</em>-methyl-α-<span class=\"text-smallcaps\">L</smallcap>-<em>ribo</em>-hexopyranosyl)oxy]-6-ethyl-4,5-dihydroxy-3,5,9,11,13,15-hexamethyl-12-[[3,4,6-trideoxy-3-(dimethylamino)-β-<smallcap>D</span>-<em>xylo</em>-hexopyranosyl]oxy]-7,16-dioxa-2-azabicyclo[11.2.1]hexadec-1-en-8-one",
    "cn_name": null,
    "alternate_name": "7,16-Dioxa-2-azabicyclo[11.2.1]hexadec-1-en-8-one, 10-[(2,6-dideoxy-3-<em>C</em>-methyl-3-<em>O</em>-methyl-α-<span class=\"text-smallcaps\">L</smallcap>-<em>ribo</em>-hexopyranosyl)oxy]-6-ethyl-4,5-dihydroxy-3,5,9,11,13,15-hexamethyl-12-[[3,4,6-trideoxy-3-(dimethylamino)-β-<smallcap>D</span>-<em>xylo</em>-hexopyranosyl]oxy]-, (1<em>Z</em>,3<em>R</em>,4<em>R</em>,5<em>S</em>,6<em>R</em>,9<em>R</em>,10<em>S</em>,11<em>S</em>,12<em>R</em>,13<em>R</em>,15<em>R</em>)-;7,16-Dioxa-2-azabicyclo[11.2.1]hexadec-1-en-8-one, 10-[(2,6-dideoxy-3-<em>C</em>-methyl-3-<em>O</em>-methyl-α-<span class=\"text-smallcaps\">L</smallcap>-<em>ribo</em>-hexopyranosyl)oxy]-6-ethyl-4,5-dihydroxy-3,5,9,11,13,15-hexamethyl-12-[[3,4,6-trideoxy-3-(dimethylamino)-β-<smallcap>D</span>-<em>xylo</em>-hexopyranosyl]oxy]-, [3<em>R</em>-(3<em>R</em>*,4<em>R</em>*,5<em>S</em>*,6<em>R</em>*,9<em>R</em>*,10<em>S</em>*,11<em>S</em>*,12<em>R</em>*,13<em>R</em>*,15<em>R</em>*)]-;(1<em>Z</em>,3<em>R</em>,4<em>R</em>,5<em>S</em>,6<em>R</em>,9<em>R</em>,10<em>S</em>,11<em>S</em>,12<em>R</em>,13<em>R</em>,15<em>R</em>)-10-[(2,6-Dideoxy-3-<em>C</em>-methyl-3-<em>O</em>-methyl-α-<span class=\"text-smallcaps\">L</smallcap>-<em>ribo</em>-hexopyranosyl)oxy]-6-ethyl-4,5-dihydroxy-3,5,9,11,13,15-hexamethyl-12-[[3,4,6-trideoxy-3-(dimethylamino)-β-<smallcap>D</span>-<em>xylo</em>-hexopyranosyl]oxy]-7,16-dioxa-2-azabicyclo[11.2.1]hexadec-1-en-8-one",
    "duplicated_cas_no": "160224-83-9;194809-65-9;215303-98-3;266998-93-0;923927-76-8",
    "SMILES": "O([C@H]1[C@]2(C)O/C(/[C@H](C)C2)=N\\[C@H](C)[C@@H](O)[C@](C)(O)[C@@H](CC)OC(=O)[C@H](C)[C@@H](O[C@H]3C[C@](OC)(C)[C@@H](O)[C@H](C)O3)[C@@H]1C)[C@H]4[C@H](O)[C@@H](N(C)C)C[C@@H](C)O4",
    "meta_data": {
        "InChI": "InChI=1S/C37H66N2O12/c1-14-25-37(10,44)29(41)22(6)38-32-18(2)16-36(9,51-32)31(50-34-27(40)24(39(11)12)15-19(3)46-34)20(4)28(21(5)33(43)48-25)49-26-17-35(8,45-13)30(42)23(7)47-26/h18-31,34,40-42,44H,14-17H2,1-13H3/b38-32-/t18-,19-,20+,21-,22-,23+,24+,25-,26+,27-,28+,29-,30+,31-,34+,35-,36-,37-/m1/s1",
        "InChIKey": null,
        "Canonical SMILES": "O=C1OC(CC)C(O)(C)C(O)C(N=C2OC(C)(CC2C)C(OC3OC(C)CC(N(C)C)C3O)C(C)C(OC4OC(C)C(O)C(OC)(C)C4)C1C)C",
        "Molecular Formula": "C<sub>37</sub>H<sub>66</sub>N<sub>2</sub>O<sub>12</sub>",
        "Molecular Mass": "730.93",
        "Melting Point": "129-130 °C"
    }
}