{
    "cas_no": "548-77-6",
    "key_name": "Tectorigenin",
    "cn_name": null,
    "alternate_name": "4<em>H</em>-1-Benzopyran-4-one, 5,7-dihydroxy-3-(4-hydroxyphenyl)-6-methoxy-;Isoflavone, 4′,5,7-trihydroxy-6-methoxy-;Tectorigenin;5,7-Dihydroxy-3-(4-hydroxyphenyl)-6-methoxy-4<em>H</em>-1-benzopyran-4-one;K 251T;Tectrigenin;5,7,4′-Trihydroxy-6-methoxyisoflavone",
    "duplicated_cas_no": "",
    "SMILES": "O=C1C=2C(=CC(O)=C(OC)C2O)OC=C1C3=CC=C(O)C=C3",
    "meta_data": {
        "InChI": "InChI=1S/C16H12O6/c1-21-16-11(18)6-12-13(15(16)20)14(19)10(7-22-12)8-2-4-9(17)5-3-8/h2-7,17-18,20H,1H3",
        "InChIKey": null,
        "Canonical SMILES": "O=C1C(=COC2=CC(O)=C(OC)C(O)=C12)C=3C=CC(O)=CC3",
        "Molecular Formula": "C<sub>16</sub>H<sub>12</sub>O<sub>6</sub>",
        "Molecular Mass": "300.26",
        "Melting Point": "227 °C"
    }
}