{
    "cas_no": "18591-82-7",
    "key_name": "3-Amino-6-methylpyridazine",
    "cn_name": null,
    "alternate_name": "3-Pyridazinamine, 6-methyl-;Pyridazine, 3-amino-6-methyl-;6-Methyl-3-pyridazinamine;3-Amino-6-methylpyridazine;6-Methylpyridazin-3-amine",
    "duplicated_cas_no": "",
    "SMILES": "CC1=CC=C(N)N=N1",
    "meta_data": {
        "InChI": "InChI=1S/C5H7N3/c1-4-2-3-5(6)8-7-4/h2-3H,1H3,(H2,6,8)",
        "InChIKey": null,
        "Canonical SMILES": "N=1N=C(C=CC1N)C",
        "Molecular Formula": "C<sub>5</sub>H<sub>7</sub>N<sub>3</sub>",
        "Molecular Mass": "109.13",
        "Melting Point": "224-225 °C"
    }
}