{
    "cas_no": "131-74-8",
    "key_name": "Ammonium picrate",
    "cn_name": "2,4,6-三硝基苯酚铵[干的或含水<10%];2,4,6-三硝基苯酚铵[干的或含水<10%]；苦味酸铵;",
    "alternate_name": "Phenol, 2,4,6-trinitro-, ammonium salt (1:1);Obeline picrate;Picric acid, ammonium salt;Phenol, 2,4,6-trinitro-, ammonium salt;Ammonium picrate;Picratol;Explosive D",
    "duplicated_cas_no": "101671-90-3;4041-41-2;74893-78-0;340127-82-4;405108-60-3",
    "SMILES": "N(=O)(=O)C1=C(O)C(N(=O)=O)=CC(N(=O)=O)=C1.N",
    "meta_data": {
        "InChI": "InChI=1S/C6H3N3O7.H3N/c10-6-4(8(13)14)1-3(7(11)12)2-5(6)9(15)16;/h1-2,10H;1H3",
        "InChIKey": null,
        "Canonical SMILES": "O=N(=O)C=1C=C(C(O)=C(C1)N(=O)=O)N(=O)=O.N",
        "Molecular Formula": "C<sub>6</sub>H<sub>3</sub>N<sub>3</sub>O<sub>7</sub>.H<sub>3</sub>N",
        "Molecular Mass": "",
        "Boiling Point": "423 °C",
        "Melting Point": "277-282 °C (decomp)",
        "Density": "1.72 g/cm³"
    }
}