{
    "cas_no": "608-23-1",
    "key_name": "1-Chloro-2,3-dimethylbenzene",
    "cn_name": null,
    "alternate_name": "Benzene, 1-chloro-2,3-dimethyl-;<em>o</em>-Xylene, 3-chloro-;1-Chloro-2,3-dimethylbenzene;3-Chloro-<em>o</em>-xylene;3-Chloro-1,2-dimethylbenzene;2,3-Dimethylchlorobenzene;1,2-Dimethyl-3-chlorobenzene;2,3-Dimethyl-1-chlorobenzene",
    "duplicated_cas_no": "",
    "SMILES": "CC1=C(C)C=CC=C1Cl",
    "meta_data": {
        "InChI": "InChI=1S/C8H9Cl/c1-6-4-3-5-8(9)7(6)2/h3-5H,1-2H3",
        "InChIKey": null,
        "Canonical SMILES": "ClC1=CC=CC(=C1C)C",
        "Molecular Formula": "C<sub>8</sub>H<sub>9</sub>Cl",
        "Molecular Mass": "140.61",
        "Boiling Point": "187-190 °C"
    }
}