{
    "cas_no": "32460-02-9",
    "key_name": "3,4-Dibromofuran",
    "cn_name": null,
    "alternate_name": "Furan, 3,4-dibromo-;3,4-Dibromofuran",
    "duplicated_cas_no": "",
    "SMILES": "BrC=1C(Br)=COC1",
    "meta_data": {
        "InChI": "InChI=1S/C4H2Br2O/c5-3-1-7-2-4(3)6/h1-2H",
        "InChIKey": null,
        "Canonical SMILES": "BrC1=COC=C1Br",
        "Molecular Formula": "C<sub>4</sub>H<sub>2</sub>Br<sub>2</sub>O",
        "Molecular Mass": "225.87",
        "Boiling Point": "52-53 °C @ Press: 11 Torr",
        "Melting Point": "5-6 °C"
    }
}