{
    "cas_no": "4023-65-8",
    "key_name": "<em>trans</em>-Aconitic acid",
    "cn_name": "反式乌头酸;反式-1，2，3-丙烯三羧酸；失水柠檬酸；丙烯三羧酸；3-羧基-2-戊烯-1，5-二酸；乌头酸反式;",
    "alternate_name": "1-Propene-1,2,3-tricarboxylic acid, (1<em>E</em>)-;1-Propene-1,2,3-tricarboxylic acid, (<em>E</em>)-;Aconitic acid, <em>trans</em>-;(1<em>E</em>)-1-Propene-1,2,3-tricarboxylic acid;<em>trans</em>-Aconitic acid;<em>trans</em>-1-Propene-1,2,3-tricarboxylic acid;(<em>E</em>)-Aconitic acid;(<em>E</em>)-1-Propene-1,2,3-tricarboxylic acid;(1E)-Prop-1-ene-1,2,3-tricarboxylic acid",
    "duplicated_cas_no": "",
    "SMILES": "C(\\CC(O)=O)(=C\\C(O)=O)/C(O)=O",
    "meta_data": {
        "InChI": "InChI=1S/C6H6O6/c7-4(8)1-3(6(11)12)2-5(9)10/h1H,2H2,(H,7,8)(H,9,10)(H,11,12)/b3-1+",
        "InChIKey": null,
        "Canonical SMILES": "O=C(O)C=C(C(=O)O)CC(=O)O",
        "Molecular Formula": "C<sub>6</sub>H<sub>6</sub>O<sub>6</sub>",
        "Molecular Mass": "174.11",
        "Melting Point": "173 °C"
    }
}