{
    "cas_no": "421-85-2",
    "key_name": "1,1,1-Trifluoromethanesulfonamide",
    "cn_name": "三氟甲烷磺胺;三氟甲磺酰胺;三氟甲烷磺胺;三氟甲烷硫胺;",
    "alternate_name": "Methanesulfonamide, 1,1,1-trifluoro-;1,1,1-Trifluoromethanesulfonamide;Trifluoromethanesulfonamide;Trifluoromethylsulfonamide",
    "duplicated_cas_no": "",
    "SMILES": "C(S(N)(=O)=O)(F)(F)F",
    "meta_data": {
        "InChI": "InChI=1S/CH2F3NO2S/c2-1(3,4)8(5,6)7/h(H2,5,6,7)",
        "InChIKey": null,
        "Canonical SMILES": "O=S(=O)(N)C(F)(F)F",
        "Molecular Formula": "CH<sub>2</sub>F<sub>3</sub>NO<sub>2</sub>S",
        "Molecular Mass": "149.09",
        "Melting Point": "117-119 °C"
    }
}