{
    "cas_no": "327-57-1",
    "key_name": "Caprine",
    "cn_name": "L-正亮氨酸;L-2-氨基己酸;",
    "alternate_name": "<span class=\"text-smallcaps\">L</span>-Norleucine;Norleucine, <span class=\"text-smallcaps\">L</span>-;α-Aminocaproic acid;Caprine;Glycoleucine;Hexanoic acid, 2-amino-, (<em>S</em>)-;2-Aminocaproic acid;Norleucine;<span class=\"text-smallcaps\">L</span>-(+)-Norleucine;(<em>S</em>)-2-Aminohexanoic acid;(<em>S</em>)-Norleucine;(<em>S</em>)-α-Aminohexanoic acid;<span class=\"text-smallcaps\">L</span>-2-Aminohexanoic acid;NSC 10378;NSC 74430;(2S)-2-Aminohexanoic acid;MeSH ID: D009646",
    "duplicated_cas_no": "496-90-2;5157-09-5;1013313-52-4",
    "SMILES": "[C@@H](C(O)=O)(CCCC)N",
    "meta_data": {
        "InChI": "InChI=1S/C6H13NO2/c1-2-3-4-5(7)6(8)9/h5H,2-4,7H2,1H3,(H,8,9)/t5-/m0/s1",
        "InChIKey": null,
        "Canonical SMILES": "O=C(O)C(N)CCCC",
        "Molecular Formula": "C<sub>6</sub>H<sub>13</sub>NO<sub>2</sub>",
        "Molecular Mass": "131.17",
        "Melting Point": "298.5 °C"
    }
}