{
    "cas_no": "79-24-3",
    "key_name": "Nitroethane",
    "cn_name": "硝基乙烷;",
    "alternate_name": "Ethane, nitro-;Nitroethane;NSC 8800",
    "duplicated_cas_no": "",
    "SMILES": "N(CC)(=O)=O",
    "meta_data": {
        "InChI": "InChI=1S/C2H5NO2/c1-2-3(4)5/h2H2,1H3",
        "InChIKey": null,
        "Canonical SMILES": "O=N(=O)CC",
        "Molecular Formula": "C<sub>2</sub>H<sub>5</sub>NO<sub>2</sub>",
        "Molecular Mass": "75.07",
        "Boiling Point": "114-115 °C",
        "Melting Point": "-89.5 °C",
        "Density": "1.0448 g/cm³ @ Temp: 25 °C"
    }
}