{
    "cas_no": "40150-98-9",
    "key_name": "4-Isobutylbenzaldehyde",
    "cn_name": "4-异丁基苯甲醛;对异丁基苯甲醛;",
    "alternate_name": "Benzaldehyde, 4-(2-methylpropyl)-;4-(2-Methylpropyl)benzaldehyde;<em>p</em>-Isobutylbenzaldehyde;4-Isobutylbenzaldehyde;<em>p</em>-(2-Methylpropyl)phenylaldehyde;4-i-Butylbenzaldehyde",
    "duplicated_cas_no": "",
    "SMILES": "C(C(C)C)C1=CC=C(C=O)C=C1",
    "meta_data": {
        "InChI": "InChI=1S/C11H14O/c1-9(2)7-10-3-5-11(8-12)6-4-10/h3-6,8-9H,7H2,1-2H3",
        "InChIKey": null,
        "Canonical SMILES": "O=CC1=CC=C(C=C1)CC(C)C",
        "Molecular Formula": "C<sub>11</sub>H<sub>14</sub>O",
        "Molecular Mass": "162.23",
        "Boiling Point": "258 °C"
    }
}