{
    "cas_no": "678-65-9",
    "key_name": "3,3,4,4,5,5,6,6-Octafluoro-1,7-octadiene",
    "cn_name": null,
    "alternate_name": "1,7-Octadiene, 3,3,4,4,5,5,6,6-octafluoro-;3,3,4,4,5,5,6,6-Octafluoro-1,7-octadiene;1,4-Divinyloctafluorobutane;1,4-Divinylperfluorobutane",
    "duplicated_cas_no": "",
    "SMILES": "C(C(C(C=C)(F)F)(F)F)(C(C=C)(F)F)(F)F",
    "meta_data": {
        "InChI": "InChI=1S/C8H6F8/c1-3-5(9,10)7(13,14)8(15,16)6(11,12)4-2/h3-4H,1-2H2",
        "InChIKey": null,
        "Canonical SMILES": "FC(F)(C=C)C(F)(F)C(F)(F)C(F)(F)C=C",
        "Molecular Formula": "C<sub>8</sub>H<sub>6</sub>F<sub>8</sub>",
        "Molecular Mass": "254.12",
        "Boiling Point": "123 °C",
        "Density": "1.361 g/cm³ @ Temp: 20 °C"
    }
}