{
    "cas_no": "1110813-31-4",
    "key_name": "Dacomitinib",
    "cn_name": null,
    "alternate_name": "2-Butenamide, <em>N</em>-[4-[(3-chloro-4-fluorophenyl)amino]-7-methoxy-6-quinazolinyl]-4-(1-piperidinyl)-, (2<em>E</em>)-;(2<em>E</em>)-<em>N</em>-[4-[(3-Chloro-4-fluorophenyl)amino]-7-methoxy-6-quinazolinyl]-4-(1-piperidinyl)-2-butenamide;Dacomitinib;PF 00299804;PF 299804;PF 299",
    "duplicated_cas_no": "1006885-28-4",
    "SMILES": "N(C=1C2=C(C=C(OC)C(NC(/C=C/CN3CCCCC3)=O)=C2)N=CN1)C4=CC(Cl)=C(F)C=C4",
    "meta_data": {
        "InChI": "InChI=1S/C24H25ClFN5O2/c1-33-22-14-20-17(24(28-15-27-20)29-16-7-8-19(26)18(25)12-16)13-21(22)30-23(32)6-5-11-31-9-3-2-4-10-31/h5-8,12-15H,2-4,9-11H2,1H3,(H,30,32)(H,27,28,29)/b6-5+",
        "InChIKey": null,
        "Canonical SMILES": "O=C(C=CCN1CCCCC1)NC2=CC=3C(=NC=NC3NC4=CC=C(F)C(Cl)=C4)C=C2OC",
        "Molecular Formula": "C<sub>24</sub>H<sub>25</sub>ClFN<sub>5</sub>O<sub>2</sub>",
        "Molecular Mass": "469.94",
        "Melting Point": "149-151 °C"
    }
}