{
    "cas_no": "84-66-2",
    "key_name": "Diethyl phthalate",
    "cn_name": "酞酸二乙酯;邻苯二甲酸二乙酯;",
    "alternate_name": "1,2-Benzenedicarboxylic acid, 1,2-diethyl ester;Phthalic acid, diethyl ester;1,2-Benzenedicarboxylic acid, diethyl ester;Anozol;Ethyl phthalate;Neantine;Palatinol A;Phthalol;Placidol E;Solvanol;Diethyl phthalate;Unimoll DA;<em>o</em>-Benzenedicarboxylic acid diethyl ester;Diethyl 1,2-benzenedicarboxylate;<em>o</em>-Bis(ethoxycarbonyl)benzene;DEP;NSC 8905;1,2-Benzodioic acid diethyl ester;1,2-Diethyl benzene-1,2-dicarboxylate",
    "duplicated_cas_no": "1431865-87-0",
    "SMILES": "C(OCC)(=O)C1=C(C(OCC)=O)C=CC=C1",
    "meta_data": {
        "InChI": "InChI=1S/C12H14O4/c1-3-15-11(13)9-7-5-6-8-10(9)12(14)16-4-2/h5-8H,3-4H2,1-2H3",
        "InChIKey": null,
        "Canonical SMILES": "O=C(OCC)C=1C=CC=CC1C(=O)OCC",
        "Molecular Formula": "C<sub>12</sub>H<sub>14</sub>O<sub>4</sub>",
        "Molecular Mass": "222.24",
        "Boiling Point": "298 °C",
        "Melting Point": "-40.5 °C",
        "Density": "1.120 g/cm³ @ Temp: 25 °C"
    }
}