{
    "cas_no": "74-39-5",
    "key_name": "Magneson",
    "cn_name": "镁试剂Ⅰ;4-(4-硝基苯偶氮)间苯二酚;",
    "alternate_name": "1,3-Benzenediol, 4-[2-(4-nitrophenyl)diazenyl]-;Resorcinol, 4-[(<em>p</em>-nitrophenyl)azo]-;1,3-Benzenediol, 4-[(4-nitrophenyl)azo]-;4-[2-(4-Nitrophenyl)diazenyl]-1,3-benzenediol;Magneson I;<em>p</em>-Nitrobenzeneazoresorcinol;2,4-Dihydroxy-4′-nitroazobenzene;<em>p</em>-Diazoviolet;Magneson;4-[(4-Nitrophenyl)azo]-1,3-benzenediol;<em>p</em>-(2,4-Dihydroxyphenylazo)nitrobenzene;4-(4-Nitrophenyl)azoresorcinol;4-(<em>p</em>-Nitrophenylazo)resorcinol;NSC 3914;Diazo Violet",
    "duplicated_cas_no": "123502-51-2;1888411-20-8",
    "SMILES": "N(=NC1=C(O)C=C(O)C=C1)C2=CC=C(N(=O)=O)C=C2",
    "meta_data": {
        "InChI": "InChI=1S/C12H9N3O4/c16-10-5-6-11(12(17)7-10)14-13-8-1-3-9(4-2-8)15(18)19/h1-7,16-17H",
        "InChIKey": null,
        "Canonical SMILES": "O=N(=O)C1=CC=C(N=NC2=CC=C(O)C=C2O)C=C1",
        "Molecular Formula": "C<sub>12</sub>H<sub>9</sub>N<sub>3</sub>O<sub>4</sub>",
        "Molecular Mass": "259.22",
        "Melting Point": "200 °C"
    }
}