{
    "cas_no": "475-20-7",
    "key_name": "(+)-Longifolene",
    "cn_name": "长叶烯;",
    "alternate_name": "1,4-Methanoazulene, decahydro-4,8,8-trimethyl-9-methylene-, (1<em>S</em>,3a<em>R</em>,4<em>S</em>,8a<em>S</em>)-;1,4-Methanoazulene, decahydro-4,8,8-trimethyl-9-methylene-, (1<em>S</em>,3a<em>R</em>,4<em>S</em>,8a<em>S</em>)-(+)-;1,4-Methanoazulene, decahydro-4,8,8-trimethyl-9-methylene-, [1<em>S</em>-(1α,3aβ,4α,8aβ)]-;Longifolene;(1<em>S</em>,3a<em>R</em>,4<em>S</em>,8a<em>S</em>)-Decahydro-4,8,8-trimethyl-9-methylene-1,4-methanoazulene;Junipene;(+)-Longifolene;<em>d</em>-Longifolene;Kuromatsuene;Kuromatsuen;Longifolen;Junipen;α-Longifolene;NSC 150808;[1S-(1α,3aβ,4α,8aβ)]Decahydro-4,8,8-trimethyl-9-methylene-1,4-methanoazulene",
    "duplicated_cas_no": "",
    "SMILES": "CC1(C)[C@@]2([C@@]3([C@@](C)(C(=C)[C@]2(CC3)[H])CCC1)[H])[H]",
    "meta_data": {
        "InChI": "InChI=1S/C15H24/c1-10-11-6-7-12-13(11)14(2,3)8-5-9-15(10,12)4/h11-13H,1,5-9H2,2-4H3/t11-,12-,13+,15-/m1/s1",
        "InChIKey": null,
        "Canonical SMILES": "C=C1C2CCC3C2C(C)(C)CCCC13C",
        "Molecular Formula": "C<sub>15</sub>H<sub>24</sub>",
        "Molecular Mass": "204.35",
        "Boiling Point": "258 °C",
        "Density": "0.9284 g/cm³ @ Temp: 30 °C"
    }
}