{
    "cas_no": "64-99-3",
    "key_name": "Ethimizol",
    "cn_name": null,
    "alternate_name": "1<em>H</em>-Imidazole-4,5-dicarboxamide, 1-ethyl-<em>N</em><sup>4</sup>,<em>N</em><sup>5</sup>-dimethyl-;Imidazole-4,5-dicarboxamide, 1-ethyl-<em>N</em>,<em>N</em>′-dimethyl-;1<em>H</em>-Imidazole-4,5-dicarboxamide, 1-ethyl-<em>N</em>,<em>N</em>′-dimethyl-;1-Ethyl-<em>N</em><sup>4</sup>,<em>N</em><sup>5</sup>-dimethyl-1<em>H</em>-imidazole-4,5-dicarboxamide;Ethimizol;Ethylnorantiffeine;Antiffine;Ethymisol;Ethylnorantifein;Ethymisole;Ethimizole;<em>N</em>,<em>N</em>′-Dimethyl-1-ethylimidazole-4,5-dicarboxamide;Etimizol;Etimizole;Ethylnorantifeine;1-Ethyl-N4,N5-dimethyl-1<em>H</em>-imidazole-4,5-dicarboxamide;1-Ethyl-N4,N5-dimethyl-imidazole-4,5-dicarboxamide;1-Ethyl-4-<em>N</em>,5-<em>N</em>-dimethylimidazole-4,5-dicarboxamide;MeSH ID: D005042",
    "duplicated_cas_no": "",
    "SMILES": "C(NC)(=O)C1=C(C(NC)=O)N=CN1CC",
    "meta_data": {
        "InChI": "InChI=1S/C9H14N4O2/c1-4-13-5-12-6(8(14)10-2)7(13)9(15)11-3/h5H,4H2,1-3H3,(H,10,14)(H,11,15)",
        "InChIKey": null,
        "Canonical SMILES": "O=C(NC)C=1N=CN(C1C(=O)NC)CC",
        "Molecular Formula": "C<sub>9</sub>H<sub>14</sub>N<sub>4</sub>O<sub>2</sub>",
        "Molecular Mass": "210.23",
        "Melting Point": "142-143 °C"
    }
}