{
    "cas_no": "34413-35-9",
    "key_name": "5,6,7,8-Tetrahydroquinoxaline",
    "cn_name": "5,6,7,8-四氢喹喔啉;",
    "alternate_name": "Quinoxaline, 5,6,7,8-tetrahydro-;5,6,7,8-Tetrahydroquinoxaline;Lucel;Tetrahydro Terrazine 014",
    "duplicated_cas_no": "",
    "SMILES": "C=12C(=NC=CN1)CCCC2",
    "meta_data": {
        "InChI": "InChI=1S/C8H10N2/c1-2-4-8-7(3-1)9-5-6-10-8/h5-6H,1-4H2",
        "InChIKey": null,
        "Canonical SMILES": "N=1C=CN=C2C1CCCC2",
        "Molecular Formula": "C<sub>8</sub>H<sub>10</sub>N<sub>2</sub>",
        "Molecular Mass": "134.18",
        "Boiling Point": "108-111 °C"
    }
}