{
    "cas_no": "2250-53-5",
    "key_name": "5-(Trifluoromethyl)-1<em>H</em>-indazol-3-amine",
    "cn_name": null,
    "alternate_name": "1<em>H</em>-Indazol-3-amine, 5-(trifluoromethyl)-;1<em>H</em>-Indazole, 3-amino-5-(trifluoromethyl)-;5-(Trifluoromethyl)-1<em>H</em>-indazol-3-amine;3-Amino-5-trifluoromethyl-1<em>H</em>-indazole;BAY-h 1127;3-Amino-5-trifluoromethylindazole",
    "duplicated_cas_no": "",
    "SMILES": "NC=1C=2C(=CC=C(C(F)(F)F)C2)NN1",
    "meta_data": {
        "InChI": "InChI=1S/C8H6F3N3/c9-8(10,11)4-1-2-6-5(3-4)7(12)14-13-6/h1-3H,(H3,12,13,14)",
        "InChIKey": null,
        "Canonical SMILES": "FC(F)(F)C=1C=CC=2NN=C(N)C2C1",
        "Molecular Formula": "C<sub>8</sub>H<sub>6</sub>F<sub>3</sub>N<sub>3</sub>",
        "Molecular Mass": "201.15",
        "Melting Point": "122-123 °C"
    }
}