{
    "cas_no": "13296-94-1",
    "key_name": "2-Bromo-4-nitrobenzenamine",
    "cn_name": "2-溴-4-硝基苯胺;",
    "alternate_name": "Benzenamine, 2-bromo-4-nitro-;Aniline, 2-bromo-4-nitro-;2-Bromo-4-nitrobenzenamine;2-Bromo-4-nitroaniline;1-Amino-2-bromo-4-nitrobenzene;2-Amino-5-nitrophenyl bromide;NSC 28330;4-Nitro-2-bromoaniline;2-Bromo-4-nitro-phenylamine",
    "duplicated_cas_no": "",
    "SMILES": "N(=O)(=O)C1=CC(Br)=C(N)C=C1",
    "meta_data": {
        "InChI": "InChI=1S/C6H5BrN2O2/c7-5-3-4(9(10)11)1-2-6(5)8/h1-3H,8H2",
        "InChIKey": null,
        "Canonical SMILES": "O=N(=O)C1=CC=C(N)C(Br)=C1",
        "Molecular Formula": "C<sub>6</sub>H<sub>5</sub>BrN<sub>2</sub>O<sub>2</sub>",
        "Molecular Mass": "217.02",
        "Melting Point": "104.5 °C"
    }
}