{
    "cas_no": "5462-06-6",
    "key_name": "Canthoxal",
    "cn_name": "4-甲氧基-α-甲基苯丙醛;",
    "alternate_name": "Benzenepropanal, 4-methoxy-α-methyl-;Hydrocinnamaldehyde, <em>p</em>-methoxy-α-methyl-;4-Methoxy-α-methylbenzenepropanal;2-Methyl-3-(<em>p</em>-methoxyphenyl)propionaldehyde;3-(4-Methoxyphenyl)-2-methylpropanal;Canthoxal;NSC 22280;Fennaldehyde;Foliaver;2-Methyl-3-(4-methoxyphenyl)propionaldehyde;2-Methyl-3-(4-methoxyphenyl)propanal;2-Methyl-3-(<em>p</em>-methoxyphenyl)propanal",
    "duplicated_cas_no": "",
    "SMILES": "C(C(C=O)C)C1=CC=C(OC)C=C1",
    "meta_data": {
        "InChI": "InChI=1S/C11H14O2/c1-9(8-12)7-10-3-5-11(13-2)6-4-10/h3-6,8-9H,7H2,1-2H3",
        "InChIKey": null,
        "Canonical SMILES": "O=CC(C)CC1=CC=C(OC)C=C1",
        "Molecular Formula": "C<sub>11</sub>H<sub>14</sub>O<sub>2</sub>",
        "Molecular Mass": "178.23",
        "Boiling Point": "114 °C @ Press: 2.5 Torr",
        "Density": "1.0470 g/cm³ @ Temp: 20 °C"
    }
}