{
    "cas_no": "656-64-4",
    "key_name": "3-Bromo-4-fluorobenzenamine",
    "cn_name": "3-溴-4-氟苯胺;",
    "alternate_name": "Benzenamine, 3-bromo-4-fluoro-;Aniline, 3-bromo-4-fluoro-;3-Bromo-4-fluorobenzenamine;3-Bromo-4-fluoroaniline;3-Bromo-4-fluorophenylamine",
    "duplicated_cas_no": "",
    "SMILES": "BrC1=C(F)C=CC(N)=C1",
    "meta_data": {
        "InChI": "InChI=1S/C6H5BrFN/c7-5-3-4(9)1-2-6(5)8/h1-3H,9H2",
        "InChIKey": null,
        "Canonical SMILES": "FC1=CC=C(N)C=C1Br",
        "Molecular Formula": "C<sub>6</sub>H<sub>5</sub>BrFN",
        "Molecular Mass": "190.01",
        "Boiling Point": "235 °C",
        "Melting Point": "34 °C"
    }
}