{
    "cas_no": "354-25-6",
    "key_name": "1-Chloro-1,1,2,2-tetrafluoroethane",
    "cn_name": "1-氯-1,1,2,2-四氟乙烷;",
    "alternate_name": "Ethane, 1-chloro-1,1,2,2-tetrafluoro-;1-Chloro-1,1,2,2-tetrafluoroethane;R 124a;HCFC 124a;F 124a;1,1,2,2-Tetrafluorochloroethane;1,1,2,2-Tetrafluoro-1-chloroethane;Monochlorotetrafluoroethane",
    "duplicated_cas_no": "",
    "SMILES": "C(C(F)F)(Cl)(F)F",
    "meta_data": {
        "InChI": "InChI=1S/C2HClF4/c3-2(6,7)1(4)5/h1H",
        "InChIKey": null,
        "Canonical SMILES": "FC(F)C(F)(F)Cl",
        "Molecular Formula": "C<sub>2</sub>HClF<sub>4</sub>",
        "Molecular Mass": "136.48",
        "Boiling Point": "-10.2 °C",
        "Melting Point": "-117 °C",
        "Density": "1.299 g/cm³ @ Temp: 44.7 °C"
    }
}