{
    "cas_no": "7787-47-5",
    "key_name": "Beryllium chloride",
    "cn_name": null,
    "alternate_name": "Beryllium chloride (BeCl<sub>2</sub>);Beryllium dichloride;Beryllium chloride;NSC 84263",
    "duplicated_cas_no": "",
    "SMILES": "[Be](Cl)Cl",
    "meta_data": {
        "InChI": "InChI=1S/Be.2ClH/h;2*1H/q+2;;/p-2",
        "InChIKey": null,
        "Canonical SMILES": "Cl[Be]Cl",
        "Molecular Formula": "BeCl<sub>2</sub>",
        "Molecular Mass": "",
        "Boiling Point": "482.3 °C",
        "Melting Point": "399.2 °C",
        "Density": "1.90 g/cm³"
    }
}