{
    "cas_no": "2127-10-8",
    "key_name": "2,2′-Dithiobis[5-nitropyridine]",
    "cn_name": "2,2-二硫双(5-硝基吡啶);双(5-硝基-2-吡啶基)二硫化物;",
    "alternate_name": "Pyridine, 2,2′-dithiobis[5-nitro-;2,2′-Dithiobis[5-nitropyridine];2,2′-Dithiobis(5-nitropyridine);DTNP;Bis(5-nitro-2-pyridyl) disulfide;5,5′-Dinitro-2,2′-dipyridyl disulfide;5-Nitro-2-pyridyl disulfide;6,6′-Dithiobis(3-nitropyridine);2,2′-Bis(5-nitropyridyl) disulfide;5,5′-Dinitro-2,2′-dithiobis[pyridine];NSC 677436;NSC 149336;5,5′-Dinitro-2,2′-dithiodipyridine;Bis(5-nitropyridin-2-yl) disulfide;2,2′-Dithiodi(5-nitropyridine);1,2-Bis(5-nitropyridin-2-yl)disulfane;5-Nitro-2-[(5-nitropyridin-2-yl)disulfanyl]pyridine",
    "duplicated_cas_no": "1194592-81-8",
    "SMILES": "N(=O)(=O)C=1C=CC(SSC2=CC=C(N(=O)=O)C=N2)=NC1",
    "meta_data": {
        "InChI": "InChI=1S/C10H6N4O4S2/c15-13(16)7-1-3-9(11-5-7)19-20-10-4-2-8(6-12-10)14(17)18/h1-6H",
        "InChIKey": null,
        "Canonical SMILES": "O=N(=O)C1=CN=C(SSC2=NC=C(C=C2)N(=O)=O)C=C1",
        "Molecular Formula": "C<sub>10</sub>H<sub>6</sub>N<sub>4</sub>O<sub>4</sub>S<sub>2</sub>",
        "Molecular Mass": "310.31",
        "Melting Point": "150-151 °C"
    }
}