{
    "cas_no": "80756-85-0",
    "key_name": "2-Amino-α-(methoxyimino)-4-thiazoleethanethioic acid <em>S</em>-2-benzothiazolyl ester",
    "cn_name": "AE-活性酯;2-甲氧亚氨基-2-(2-氨基-4-噻唑基)-(z)-硫代乙酸苯并噻唑酯;",
    "alternate_name": "4-Thiazoleethanethioic acid, 2-amino-α-(methoxyimino)-, <em>S</em>-2-benzothiazolyl ester, (α<em>Z</em>)-;4-Thiazoleethanethioic acid, 2-amino-α-(methoxyimino)-, <em>S</em>-2-benzothiazolyl ester, (<em>Z</em>)-;<em>S</em>-(Benzothiazol-2-yl) 2-amino-α-(methoxyimino)thiazole-4-thioacetate;<em>S</em>-(Benzothiazol-2-yl) (<em>Z</em>)-(2-aminothiazol-4-yl)(methoxyimino)thioacetate;(α<em>Z</em>)-2-Amino-α-(methoxyimino)-4-thiazoleethanethioic acid <em>S</em>-2-benzothiazolyl ester;2-Amino-α-(methoxyimino)-4-thiazoleethanethioic acid <em>S</em>-2-benzothiazolyl ester;<em>S</em>-Benzothiazol-2-yl 2-(2-aminothiazol-4-yl)-2-(<em>syn</em>-methoxyimino)thioacetate;(<em>Z</em>)-2-[Methoxyimino]-2-(2-aminothiazol-4-yl)acetic acid <em>S</em>-2-benzothiazole ester;<em>S</em>-(Benzothiazol-2-yl) (Z)-(2-aminothiazol-4-yl)(methoxyimino)thioacetate;<em>S</em>-1,3-Benzothiazol-2-yl (2<em>Z</em>)-2-(2-amino-1,3-thiazol-4-yl)-2-(methoxyimino)ethanethioate",
    "duplicated_cas_no": "1265758-33-5",
    "SMILES": "S(C(/C(=N\\OC)/C1=CSC(N)=N1)=O)C2=NC=3C(S2)=CC=CC3",
    "meta_data": {
        "InChI": "InChI=1S/C13H10N4O2S3/c1-19-17-10(8-6-20-12(14)15-8)11(18)22-13-16-7-4-2-3-5-9(7)21-13/h2-6H,1H3,(H2,14,15)/b17-10-",
        "InChIKey": null,
        "Canonical SMILES": "O=C(SC1=NC=2C=CC=CC2S1)C(=NOC)C=3N=C(SC3)N",
        "Molecular Formula": "C<sub>13</sub>H<sub>10</sub>N<sub>4</sub>O<sub>2</sub>S<sub>3</sub>",
        "Molecular Mass": "350.44",
        "Melting Point": "128-130 °C"
    }
}