{
    "cas_no": "4730-22-7",
    "key_name": "6-Methyl-2-heptanol",
    "cn_name": "6-甲基-2-庚醇;6-甲基-2-庚醇;",
    "alternate_name": "2-Heptanol, 6-methyl-;6-Methyl-2-heptanol;2-Methylheptan-6-ol;1,5-Dimethyl-1-hexanol;2-Hydroxy-6-methylheptane;(±)-6-Methyl-2-heptanol;NSC 75858",
    "duplicated_cas_no": "87187-86-8",
    "SMILES": "C(CC(C)C)CC(C)O",
    "meta_data": {
        "InChI": "InChI=1S/C8H18O/c1-7(2)5-4-6-8(3)9/h7-9H,4-6H2,1-3H3",
        "InChIKey": null,
        "Canonical SMILES": "OC(C)CCCC(C)C",
        "Molecular Formula": "C<sub>8</sub>H<sub>18</sub>O",
        "Molecular Mass": "130.23",
        "Boiling Point": "174 °C",
        "Melting Point": "-105 °C",
        "Density": "0.8128 g/cm³ @ Temp: 20 °C"
    }
}