{
    "cas_no": "16051-77-7",
    "key_name": "Isosorbide mononitrate",
    "cn_name": "5-单硝酸异山梨酯;",
    "alternate_name": "<span class=\"text-smallcaps\">D</span>-Glucitol, 1,4:3,6-dianhydro-, 5-nitrate;Glucitol, 1,4:3,6-dianhydro-, 5-nitrate, <span class=\"text-smallcaps\">D</span>-;Furo[3,2-<em>b</em>]furan, <span class=\"text-smallcaps\">D</span>-glucitol deriv.;Isosorbide 5-mononitrate;1,4:3,6-Dianhydro-<span class=\"text-smallcaps\">D</span>-glucitol 5-nitrate;Isosorbide 5-nitrate;Isosorbide mononitrate;IS 5MN;AHR 4698;BM 22-145;Monizid;Imdur;Multitab;Ismo;Monoket;Monolong;Mono-Mack;Imodur;Monoket OD;Mononit Retard 50;Mononit 40;Ismox;Monolong 60;Medocor;Nitramin;Corangin SR;Conpin;Monotrate;Ismo 20;Isomonat;Monopront;Monicor;Corangin;Isomonit;Mono-Sanorania;Elantan;Imdur 60;Ismexin;ISMN;Isopen 20;Monodur Durules;Monocord 20;Imdur Durules;Isomon;Mononit 20;Imtrate;Mono Corax;Monoket Retard;Mono Corax Retard;Monosorbitrate;Monit 20;Pentacard;Elantan Long;Pentacard 20;Monis;Iturol;Conpin Retardkaps;Vasotrate;Monovas;Monoclair;Mononit;Duride;Monocord 40;Monolong 40;Monosordil;Elan;Monocord 50SR;Elantan Retard;Dilavenil;Mono-Cedocard;Monosorb;Momo Mack;Olicard;Monit;Geomatrix;Ormox;Monizol",
    "duplicated_cas_no": "",
    "SMILES": "O(N(=O)=O)[C@H]1[C@@]2([C@@]([C@@H](O)CO2)(OC1)[H])[H]",
    "meta_data": {
        "InChI": "InChI=1S/C6H9NO6/c8-3-1-11-6-4(13-7(9)10)2-12-5(3)6/h3-6,8H,1-2H2/t3-,4+,5+,6+/m0/s1",
        "InChIKey": null,
        "Canonical SMILES": "O=N(=O)OC1COC2C(O)COC12",
        "Molecular Formula": "C<sub>6</sub>H<sub>9</sub>NO<sub>6</sub>",
        "Molecular Mass": "191.14",
        "Melting Point": "88-91 °C"
    }
}