{
    "cas_no": "6287-38-3",
    "key_name": "3,4-Dichlorobenzaldehyde",
    "cn_name": "3,4-二氯苯甲醛;",
    "alternate_name": "Benzaldehyde, 3,4-dichloro-;3,4-Dichlorobenzaldehyde;3,4-Dichlorobenzenecarboxaldehyde;<em>m</em>,<em>p</em>-Dichlorobenzaldehyde;NSC 8763;3,4-Dichlorobenzaldehlyde",
    "duplicated_cas_no": "",
    "SMILES": "C(=O)C1=CC(Cl)=C(Cl)C=C1",
    "meta_data": {
        "InChI": "InChI=1S/C7H4Cl2O/c8-6-2-1-5(4-10)3-7(6)9/h1-4H",
        "InChIKey": null,
        "Canonical SMILES": "O=CC1=CC=C(Cl)C(Cl)=C1",
        "Molecular Formula": "C<sub>7</sub>H<sub>4</sub>Cl<sub>2</sub>O",
        "Molecular Mass": "175.01",
        "Boiling Point": "247.5 °C",
        "Melting Point": "44 °C"
    }
}