{
    "cas_no": "50773-42-7",
    "key_name": "Asperin",
    "cn_name": null,
    "alternate_name": "β-<span class=\"text-smallcaps\">D</smallcap>-Glucopyranoside, (3β,25<em>R</em>)-spirost-5-en-3-yl <em>O</em>-6-deoxy-α-<smallcap>L</smallcap>-mannopyranosyl-(1→2)-<em>O</em>-[<em>O</em>-6-deoxy-α-<smallcap>L</smallcap>-mannopyranosyl-(1→4)-6-deoxy-α-<smallcap>L</span>-mannopyranosyl-(1→4)]-;(3β,25<em>R</em>)-Spirost-5-en-3-yl <em>O</em>-6-deoxy-α-<span class=\"text-smallcaps\">L</smallcap>-mannopyranosyl-(1→2)-<em>O</em>-[<em>O</em>-6-deoxy-α-<smallcap>L</smallcap>-mannopyranosyl-(1→4)-6-deoxy-α-<smallcap>L</smallcap>-mannopyranosyl-(1→4)]-β-<smallcap>D</span>-glucopyranoside;Diosgenin 3-<em>O</em>-α-<span class=\"text-smallcaps\">L</smallcap>-rhamnopyranosyl-(1→4)-α-<smallcap>L</smallcap>-rhamnopyranosyl-(1→4)-[α-<smallcap>L</smallcap>-rhamnopyranosyl-(1→2)]-β-<smallcap>D</span>-glucopyranoside;Asperin;Pb;Formosanin C;Saponin P-d, from <em>Allium</em><em>fistulosum</em>;NSC 306864;Parissaponin P<sub>b</sub>;Parrisaponin;Saponin Pb;Diosgenin 3-<em>O</em>-α-<span class=\"text-smallcaps\">L</smallcap>-rhamnopyranosyl-(1→2)-[α-<smallcap>L</smallcap>-rhamnopyranosyl-(1→4)-α-<smallcap>L</smallcap>-rhamnopyranosyl-(1→4)]-β-<smallcap>D</span>-glucopyranoside;(25R)-Spirost-5-en-3β-ol 3-<em>O</em>-α-<span class=\"text-smallcaps\">L</smallcap>-rhamnopyranosyl-(1-2)-<em>O</em>-[[α-<smallcap>L</smallcap>-rhamnopyranosyl-(1-4)]-<em>O</em>-[α-<smallcap>L</smallcap>-rhamnopyranosyl-(1-4)]]-β-<smallcap>D</span>-glucopyranoside;Paris II;17-Deoxyparis VII;Paris saponin II;Paridis saponin II",
    "duplicated_cas_no": "31605-65-9;78101-17-4;911213-57-5;1427449-48-6",
    "SMILES": "C[C@@]12[C@@]3([C@](C[C@]1([C@]4([C@](CC2)([C@]5(C)C(=CC4)C[C@@H](O[C@H]6[C@H](O[C@H]7[C@H](O)[C@H](O)[C@@H](O)[C@H](C)O7)[C@@H](O)[C@H](O[C@H]8[C@H](O)[C@H](O)[C@@H](O[C@H]9[C@H](O)[C@H](O)[C@@H](O)[C@H](C)O9)[C@H](C)O8)[C@@H](CO)O6)CC5)[H])[H])[H])(O[C@@]%10([C@H]3C)CC[C@@H](C)CO%10)[H])[H]",
    "meta_data": {
        "InChI": "InChI=1S/C51H82O20/c1-20-10-15-51(62-19-20)21(2)32-30(71-51)17-29-27-9-8-25-16-26(11-13-49(25,6)28(27)12-14-50(29,32)7)66-48-44(70-46-39(59)36(56)34(54)23(4)64-46)41(61)43(31(18-52)67-48)69-47-40(60)37(57)42(24(5)65-47)68-45-38(58)35(55)33(53)22(3)63-45/h8,20-24,26-48,52-61H,9-19H2,1-7H3/t20-,21+,22+,23+,24+,26+,27-,28+,29+,30+,31-,32+,33+,34+,35-,36-,37+,38-,39-,40-,41+,42+,43-,44-,45+,46+,47+,48-,49+,50+,51-/m1/s1",
        "InChIKey": null,
        "Canonical SMILES": "OCC1OC(OC2CC3=CCC4C(CCC5(C)C4CC6OC7(OCC(C)CC7)C(C)C65)C3(C)CC2)C(OC8OC(C)C(O)C(O)C8O)C(O)C1OC9OC(C)C(OC%10OC(C)C(O)C(O)C%10O)C(O)C9O",
        "Molecular Formula": "C<sub>51</sub>H<sub>82</sub>O<sub>20</sub>",
        "Molecular Mass": "1015.18",
        "Melting Point": "231-241 °C"
    }
}