{
    "cas_no": "42135-75-1",
    "key_name": "<em>N</em>-(2-Chlorophenyl)hydrazinecarbothioamide",
    "cn_name": null,
    "alternate_name": "Hydrazinecarbothioamide, <em>N</em>-(2-chlorophenyl)-;Semicarbazide, 4-(<em>o</em>-chlorophenyl)-3-thio-;<em>N</em>-(2-Chlorophenyl)hydrazinecarbothioamide;4-(<em>o</em>-Chlorophenyl)-3-thiosemicarbazide;4-(2-Chlorophenyl)thiosemicarbazide;4-(<em>o</em>-Chlorophenyl)thiosemicarbazide;4-(2-Chlorophenyl)-3-thiosemicarbazide;1-Amino-3-(2-chlorophenyl)thiourea;3-Amino-1-(2-chlorophenyl)thiourea",
    "duplicated_cas_no": "",
    "SMILES": "N(C(NN)=S)C1=C(Cl)C=CC=C1",
    "meta_data": {
        "InChI": "InChI=1S/C7H8ClN3S/c8-5-3-1-2-4-6(5)10-7(12)11-9/h1-4H,9H2,(H2,10,11,12)",
        "InChIKey": null,
        "Canonical SMILES": "S=C(NN)NC=1C=CC=CC1Cl",
        "Molecular Formula": "C<sub>7</sub>H<sub>8</sub>ClN<sub>3</sub>S",
        "Molecular Mass": "201.68",
        "Melting Point": "130-131 °C"
    }
}