{
    "cas_no": "67674-48-0",
    "key_name": "2-Propanol, 1,1,1,3,3,3-hexafluoro-, 2-(4-methylbenzenesulfonate)",
    "cn_name": "1,1,1,3,3,3-六氟异丙基对甲苯磺酸酯;1,1,1,3,3,3-六氟异丙基对甲苯磺酸盐;",
    "alternate_name": "2-Propanol, 1,1,1,3,3,3-hexafluoro-, 2-(4-methylbenzenesulfonate);2-Propanol, 1,1,1,3,3,3-hexafluoro-, 4-methylbenzenesulfonate;2,2,2-Trifluoro-1-(trifluoromethyl)ethyl tosylate;NSC 179424;1,1,1,3,3,3-Hexafluoropropan-2-yl <em>p</em>-toluenesulfonate;1,1,1,3,3,3-Hexafluoro-2-propyl tosylate;1,1,1,3,3,3-Hexafluoropropan-2-yl 4-methylbenzene-1-sulfonate",
    "duplicated_cas_no": "",
    "SMILES": "C(OS(=O)(=O)C1=CC=C(C)C=C1)(C(F)(F)F)C(F)(F)F",
    "meta_data": {
        "InChI": "InChI=1S/C10H8F6O3S/c1-6-2-4-7(5-3-6)20(17,18)19-8(9(11,12)13)10(14,15)16/h2-5,8H,1H3",
        "InChIKey": null,
        "Canonical SMILES": "O=S(=O)(OC(C(F)(F)F)C(F)(F)F)C1=CC=C(C=C1)C",
        "Molecular Formula": "C<sub>10</sub>H<sub>8</sub>F<sub>6</sub>O<sub>3</sub>S",
        "Molecular Mass": "322.22",
        "Boiling Point": "133.5-134 °C @ Press: 30 Torr"
    }
}