{
    "cas_no": "2646-91-5",
    "key_name": "2,3-Difluorobenzaldehyde",
    "cn_name": "2,3-二氟苯甲醛;",
    "alternate_name": "Benzaldehyde, 2,3-difluoro-;2,3-Difluorobenzaldehyde",
    "duplicated_cas_no": "",
    "SMILES": "C(=O)C1=C(F)C(F)=CC=C1",
    "meta_data": {
        "InChI": "InChI=1S/C7H4F2O/c8-6-3-1-2-5(4-10)7(6)9/h1-4H",
        "InChIKey": null,
        "Canonical SMILES": "O=CC=1C=CC=C(F)C1F",
        "Molecular Formula": "C<sub>7</sub>H<sub>4</sub>F<sub>2</sub>O",
        "Molecular Mass": "142.10",
        "Boiling Point": "69-73 °C @ Press: 15 Torr",
        "Melting Point": "64-65 °C"
    }
}