{
    "cas_no": "6315-51-1",
    "key_name": "2-(Diphenylamino)ethanol",
    "cn_name": null,
    "alternate_name": "Ethanol, 2-(diphenylamino)-;2-(Diphenylamino)ethanol;<em>N</em>,<em>N</em>-Diphenylethanolamine;β-(Diphenylamino)ethanol;<em>N</em>-(2-Hydroxyethyl)diphenylamine;(2-Hydroxyethyl)diphenylamine;NSC 21083;2-(<em>N</em>-Phenylanilino)ethanol;2-(Diphenylamino)ethan-1-ol",
    "duplicated_cas_no": "",
    "SMILES": "N(CCO)(C1=CC=CC=C1)C2=CC=CC=C2",
    "meta_data": {
        "InChI": "InChI=1S/C14H15NO/c16-12-11-15(13-7-3-1-4-8-13)14-9-5-2-6-10-14/h1-10,16H,11-12H2",
        "InChIKey": null,
        "Canonical SMILES": "OCCN(C=1C=CC=CC1)C=2C=CC=CC2",
        "Molecular Formula": "C<sub>14</sub>H<sub>15</sub>NO",
        "Molecular Mass": "213.27",
        "Boiling Point": "155-160 °C @ Press: 1-2 Torr",
        "Melting Point": "93 °C",
        "Density": "1.121 g/cm³ @ Temp: 20 °C"
    }
}