{
    "cas_no": "521-13-1",
    "key_name": "Cholesteryl butyrate",
    "cn_name": "胆固醇丁酸酯;",
    "alternate_name": "Cholest-5-en-3-ol (3β)-, 3-butanoate;Cholesterol, butyrate;Cholest-5-en-3-ol (3β)-, butanoate;Butyric acid, cholesteryl ester;Cholesteryl butyrate;Cholesterol butanoate;Cholesterol <em>n</em>-butyrate;Cholesteryl <em>n</em>-butyrate;Cholesteryl butanoate;Cholesterol 3-butyrate;3β-(Butyryloxy)cholest-5-ene;Cholest-5-en-3β-ol butyrate;5-Cholesten-3β-ol butyrate",
    "duplicated_cas_no": "",
    "SMILES": "C[C@@]12[C@@]3([C@]([C@]4([C@](C)(CC3)[C@@]([C@@H](CCCC(C)C)C)(CC4)[H])[H])(CC=C1C[C@@H](OC(CCC)=O)CC2)[H])[H]",
    "meta_data": {
        "InChI": "InChI=1S/C31H52O2/c1-7-9-29(32)33-24-16-18-30(5)23(20-24)12-13-25-27-15-14-26(22(4)11-8-10-21(2)3)31(27,6)19-17-28(25)30/h12,21-22,24-28H,7-11,13-20H2,1-6H3/t22-,24+,25+,26-,27+,28+,30+,31-/m1/s1",
        "InChIKey": null,
        "Canonical SMILES": "O=C(OC1CC2=CCC3C(CCC4(C)C(CCC34)C(C)CCCC(C)C)C2(C)CC1)CCC",
        "Molecular Formula": "C<sub>31</sub>H<sub>52</sub>O<sub>2</sub>",
        "Molecular Mass": "456.74",
        "Melting Point": "102 °C"
    }
}