{
    "cas_no": "74772-77-3",
    "key_name": "Ciglitazone",
    "cn_name": "环格列酮;酪里达唑;",
    "alternate_name": "2,4-Thiazolidinedione, 5-[[4-[(1-methylcyclohexyl)methoxy]phenyl]methyl]-;5-[[4-[(1-Methylcyclohexyl)methoxy]phenyl]methyl]-2,4-thiazolidinedione;ADD 3878;Ciglitazone;U 63287",
    "duplicated_cas_no": "",
    "SMILES": "C(C1SC(=O)NC1=O)C2=CC=C(OCC3(C)CCCCC3)C=C2",
    "meta_data": {
        "InChI": "InChI=1S/C18H23NO3S/c1-18(9-3-2-4-10-18)12-22-14-7-5-13(6-8-14)11-15-16(20)19-17(21)23-15/h5-8,15H,2-4,9-12H2,1H3,(H,19,20,21)",
        "InChIKey": null,
        "Canonical SMILES": "O=C1SC(C(=O)N1)CC2=CC=C(OCC3(C)CCCCC3)C=C2",
        "Molecular Formula": "C<sub>18</sub>H<sub>23</sub>NO<sub>3</sub>S",
        "Molecular Mass": "333.45",
        "Melting Point": "130-131 °C"
    }
}