{
    "cas_no": "27589-33-9",
    "key_name": "Azosemide",
    "cn_name": "阿佐酰胺;2-氯-5-(1H-四氮唑-5-基)-4-(2-噻吩甲基氨基)苯磺酰胺;",
    "alternate_name": "Benzenesulfonamide, 2-chloro-5-(2<em>H</em>-tetrazol-5-yl)-4-[(2-thienylmethyl)amino]-;Sulfanilamide, 2-chloro-5-(1<em>H</em>-tetrazol-5-yl)-<em>N</em><sup>4</sup>-2-thenyl-;Benzenesulfonamide, 2-chloro-5-(1<em>H</em>-tetrazol-5-yl)-4-[(2-thienylmethyl)amino]-;2-Chloro-5-(2<em>H</em>-tetrazol-5-yl)-4-[(2-thienylmethyl)amino]benzenesulfonamide;5-(4-Chloro-5-sulfamoyl-2-thenylaminophenyl)tetrazole;Ple 1053;Azosemide;2-Chloro-5-(1<em>H</em>-tetrazol-5-yl)-4-[(2-thienylmethyl)amino]benzenesulfonamide;SK 110 (pharmaceutical);SK 110;Luret;Diart;Diurapid;2-Chloro-5-(2<em>H</em>-tetrazol-5-yl)-4-(thiophen-2-ylmethylamino)benzenesulfonamide",
    "duplicated_cas_no": "",
    "SMILES": "N(CC1=CC=CS1)C2=C(C=C(S(N)(=O)=O)C(Cl)=C2)C=3NN=NN3",
    "meta_data": {
        "InChI": "InChI=1S/C12H11ClN6O2S2/c13-9-5-10(15-6-7-2-1-3-22-7)8(12-16-18-19-17-12)4-11(9)23(14,20)21/h1-5,15H,6H2,(H2,14,20,21)(H,16,17,18,19)",
        "InChIKey": null,
        "Canonical SMILES": "O=S(=O)(N)C1=CC(C2=NN=NN2)=C(C=C1Cl)NCC=3SC=CC3",
        "Molecular Formula": "C<sub>12</sub>H<sub>11</sub>ClN<sub>6</sub>O<sub>2</sub>S<sub>2</sub>",
        "Molecular Mass": "370.84",
        "Melting Point": "219.5 °C"
    }
}