{
    "cas_no": "134523-00-5",
    "key_name": "Atorvastatin",
    "cn_name": "阿伐他汀;阿托伐他汀;(3R,5R)-7-[2-(4-氟苯基)-3-苯基-4-(苯基氨基甲酰基)-5-异丙基-吡咯-1-基]-3,5-二羟基;",
    "alternate_name": "1<em>H</em>-Pyrrole-1-heptanoic acid, 2-(4-fluorophenyl)-β,δ-dihydroxy-5-(1-methylethyl)-3-phenyl-4-[(phenylamino)carbonyl]-, (β<em>R</em>,δ<em>R</em>)-;1<em>H</em>-Pyrrole-1-heptanoic acid, 2-(4-fluorophenyl)-β,δ-dihydroxy-5-(1-methylethyl)-3-phenyl-4-[(phenylamino)carbonyl]-, [<em>R</em>-(<em>R</em>*,<em>R</em>*)]-;(β<em>R</em>,δ<em>R</em>)-2-(4-Fluorophenyl)-β,δ-dihydroxy-5-(1-methylethyl)-3-phenyl-4-[(phenylamino)carbonyl]-1<em>H</em>-pyrrole-1-heptanoic acid;(β<em>R</em>,δ<em>R</em>)-2-(<em>p</em>-Fluorophenyl)-β,δ-dihydroxy-5-isopropyl-3-phenyl-4-(phenylcarbamoyl)pyrrole-1-heptanoic acid;Atorvastatin;Cardyl;(3<em>R</em>,5<em>R</em>)-7-[2-(4-Fluorophenyl)-5-isopropyl-3-phenyl-4-phenylcarbamoylpyrrol-1-yl]-3,5-dihydroxyheptanoic acid;Atorvastatin acid;Lipilou;Ator;Atorfit 20;Atorcor;Atofast;Atorin;Alip;Statofilm;Lipinon;Atorvox;Atoris;Atrox;Atavastatin;1: PN: WO2019129231 SEQID: 2 claimed sequence",
    "duplicated_cas_no": "",
    "SMILES": "C(NC1=CC=CC=C1)(=O)C=2C(=C(N(CC[C@H](C[C@H](CC(O)=O)O)O)C2C(C)C)C3=CC=C(F)C=C3)C4=CC=CC=C4",
    "meta_data": {
        "InChI": "InChI=1S/C33H35FN2O5/c1-21(2)31-30(33(41)35-25-11-7-4-8-12-25)29(22-9-5-3-6-10-22)32(23-13-15-24(34)16-14-23)36(31)18-17-26(37)19-27(38)20-28(39)40/h3-16,21,26-27,37-38H,17-20H2,1-2H3,(H,35,41)(H,39,40)/t26-,27-/m1/s1",
        "InChIKey": null,
        "Canonical SMILES": "O=C(O)CC(O)CC(O)CCN1C(C=2C=CC(F)=CC2)=C(C=3C=CC=CC3)C(C(=O)NC=4C=CC=CC4)=C1C(C)C",
        "Molecular Formula": "C<sub>33</sub>H<sub>35</sub>FN<sub>2</sub>O<sub>5</sub>",
        "Molecular Mass": "558.64",
        "Melting Point": "159.1-190.6 °C"
    }
}