{
    "cas_no": "3621-38-3",
    "key_name": "Jatrorrhizine",
    "cn_name": "药根碱;",
    "alternate_name": "Dibenzo[<em>a</em>,<em>g</em>]quinolizinium, 5,6-dihydro-3-hydroxy-2,9,10-trimethoxy-;Berbinium, 7,8,13,13a-tetradehydro-3-hydroxy-2,9,10-trimethoxy-;5,6-Dihydro-3-hydroxy-2,9,10-trimethoxydibenzo[<em>a</em>,<em>g</em>]quinolizinium;Jatrorrhizine;Yatrorizine;Jatrorhizine;Neprotin;7,8,13,13a-Tetradehydro-3-hydroxy-2,9,10-trimethoxyberbinium;Neprotine;Jateorhizine",
    "duplicated_cas_no": "1400-07-3;1080064-93-2",
    "SMILES": "O(C)C=1C=C2C=3[N+](=CC=4C(C3)=CC=C(OC)C4OC)CCC2=CC1O",
    "meta_data": {
        "InChI": "InChI=1S/C20H19NO4/c1-23-18-5-4-12-8-16-14-10-19(24-2)17(22)9-13(14)6-7-21(16)11-15(12)20(18)25-3/h4-5,8-11H,6-7H2,1-3H3/p+1",
        "InChIKey": null,
        "Canonical SMILES": "OC=1C=C2C(=CC1OC)C=3C=C4C=CC(OC)=C(OC)C4=C[N+]3CC2",
        "Molecular Formula": "C<sub>20</sub>H<sub>20</sub>NO<sub>4</sub>",
        "Molecular Mass": "",
        "Melting Point": "&gt;200 °C (decomp)"
    }
}