{
    "cas_no": "587-03-1",
    "key_name": "3-Methylbenzyl alcohol",
    "cn_name": "3-甲基苄醇;3-甲基苯甲醇;",
    "alternate_name": "Benzenemethanol, 3-methyl-;Benzyl alcohol, <em>m</em>-methyl-;3-Methylbenzenemethanol;<em>m</em>-Methylbenzyl alcohol;3-Methylbenzyl alcohol;<em>m</em>-Tolylmethanol;<em>m</em>-Tolualcohol;NSC 9397;(3-Methylphenyl)methanol",
    "duplicated_cas_no": "185532-88-1",
    "SMILES": "C(O)C1=CC(C)=CC=C1",
    "meta_data": {
        "InChI": "InChI=1S/C8H10O/c1-7-3-2-4-8(5-7)6-9/h2-5,9H,6H2,1H3",
        "InChIKey": null,
        "Canonical SMILES": "OCC=1C=CC=C(C1)C",
        "Molecular Formula": "C<sub>8</sub>H<sub>10</sub>O",
        "Molecular Mass": "122.16",
        "Boiling Point": "215.5 °C",
        "Melting Point": "&lt;-20 °C"
    }
}