{
    "cas_no": "18077-31-1",
    "key_name": "3-(3-Chloropropyl)-1,1,1,5,5,5-hexamethyl-3-[(trimethylsilyl)oxy]trisiloxane",
    "cn_name": null,
    "alternate_name": "Trisiloxane, 3-(3-chloropropyl)-1,1,1,5,5,5-hexamethyl-3-[(trimethylsilyl)oxy]-;Trisiloxane, 3-(3-chloropropyl)-1,1,1,5,5,5-hexamethyl-3-(trimethylsiloxy)-;3-(3-Chloropropyl)-1,1,1,5,5,5-hexamethyl-3-[(trimethylsilyl)oxy]trisiloxane;3-Chloropropyltris(trimethylsiloxy)silane;3-Chloropropyltris(trimethylsilyloxy)silane;(γ-Chloropropyl)tri(trimethylsiloxy)silane",
    "duplicated_cas_no": "",
    "SMILES": "[Si](O[Si](C)(C)C)(O[Si](C)(C)C)(O[Si](C)(C)C)CCCCl",
    "meta_data": {
        "InChI": "InChI=1S/C12H33ClO3Si4/c1-17(2,3)14-20(12-10-11-13,15-18(4,5)6)16-19(7,8)9/h10-12H2,1-9H3",
        "InChIKey": null,
        "Canonical SMILES": "ClCCC[Si](O[Si](C)(C)C)(O[Si](C)(C)C)O[Si](C)(C)C",
        "Molecular Formula": "C<sub>12</sub>H<sub>33</sub>ClO<sub>3</sub>Si<sub>4</sub>",
        "Molecular Mass": "373.18",
        "Boiling Point": "181 °C @ Press: 100 Torr",
        "Density": "0.922 g/cm³ @ Temp: 25 °C"
    }
}