{
    "cas_no": "623-49-4",
    "key_name": "Ethyl cyanoformate",
    "cn_name": "氰基甲酸乙酯;",
    "alternate_name": "Carbonocyanidic acid, ethyl ester;Formic acid, cyano-, ethyl ester;Ethyl cyanoformate;Ethoxycarbonyl cyanide;Cyanoformic acid ethyl ester;NSC 65347;Cyanocarbonyloxyethane;Ethyl carbonocyanidate;2-Ethoxy-2-oxoacetonitrile",
    "duplicated_cas_no": "",
    "SMILES": "C(OCC)(C#N)=O",
    "meta_data": {
        "InChI": "InChI=1S/C4H5NO2/c1-2-7-4(6)3-5/h2H2,1H3",
        "InChIKey": null,
        "Canonical SMILES": "N#CC(=O)OCC",
        "Molecular Formula": "C<sub>4</sub>H<sub>5</sub>NO<sub>2</sub>",
        "Molecular Mass": "99.09",
        "Boiling Point": "115.5 °C",
        "Density": "1.0112 g/cm³ @ Temp: 20 °C"
    }
}