{
    "cas_no": "118-82-1",
    "key_name": "4,4′-Methylenebis[2,6-di-<em>tert</em>-butylphenol]",
    "cn_name": "抗氧剂702;抗氧剂AT-702;4,4\"-亚甲基双(2,6-二叔丁基苯酚);",
    "alternate_name": "Phenol, 4,4′-methylenebis[2,6-bis(1,1-dimethylethyl)-;Phenol, 4,4′-methylenebis[2,6-di-<em>tert</em>-butyl-;4,4′-Methylenebis[2,6-bis(1,1-dimethylethyl)phenol;Ionox 220;Bis(3,5-di-<em>tert</em>-butyl-4-hydroxyphenyl)methane;Di(3,5-di-<em>tert</em>-butyl-4-hydroxyphenyl)methane;Ionox 220 Antioxidant;3,3′,5,5′-Tetra-<em>tert</em>-butyl-4,4′-dihydroxydiphenylmethane;Ethyl 702;Binox M;MB 1 (antioxidant);4,4′-Methylenebis[2,6-di-<em>tert</em>-butylphenol];Antioxidant E 702;Bis(4-hydroxy-3,5-di-<em>tert</em>-butylphenyl)methane;E 702;MB 1;LZ-MB 1;Ethyl 728;Antioxidant 702;Antioxidant 728;Ethanox 702;Ethyl Antioxidant 702;Ethyl Antioxidant 728;Vanlube DTB;H 301/92;Hitec 4702;NSC 30551;Ionol 220;Antioxidant 4426;Agidol 23;Ethanox 4702;Antioxidant T 511;AO 4426;4,4′-Methylene-bis-2,6-<em>tert</em>-butylphenol;T 511;2,6-Di-<em>tert</em>-butyl-4-[(3,5-di-<em>tert</em>-butyl-4-hydroxyphenyl)methyl]phenol;2,6-Ditert-butyl-4-[(3,5-ditert-butyl-4-hydroxyphenyl)methyl]phenol",
    "duplicated_cas_no": "",
    "SMILES": "C(C)(C)(C)C1=C(O)C(C(C)(C)C)=CC(CC2=CC(C(C)(C)C)=C(O)C(C(C)(C)C)=C2)=C1",
    "meta_data": {
        "InChI": "InChI=1S/C29H44O2/c1-26(2,3)20-14-18(15-21(24(20)30)27(4,5)6)13-19-16-22(28(7,8)9)25(31)23(17-19)29(10,11)12/h14-17,30-31H,13H2,1-12H3",
        "InChIKey": null,
        "Canonical SMILES": "OC=1C(=CC(=CC1C(C)(C)C)CC=2C=C(C(O)=C(C2)C(C)(C)C)C(C)(C)C)C(C)(C)C",
        "Molecular Formula": "C<sub>29</sub>H<sub>44</sub>O<sub>2</sub>",
        "Molecular Mass": "424.66",
        "Melting Point": "154-155 °C"
    }
}