{
    "cas_no": "40288-65-1",
    "key_name": "1-(1,3-Benzodioxol-5-yl)-2-bromoethanone",
    "cn_name": "1-(1,3-苯并氧)2-溴乙酮;",
    "alternate_name": "Ethanone, 1-(1,3-benzodioxol-5-yl)-2-bromo-;1-(1,3-Benzodioxol-5-yl)-2-bromoethanone;2-Bromo-3′,4′-(methylenedioxy)acetophenone;3,4-Methylenedioxyphenacyl bromide;α-Bromo-3,4-methylenedioxyacetophenone;1-(1,3-Benzodioxol-5-yl)-2-bromoethan-1-one;NSC 53941;1-(Benzodioxol-5-yl)-2-bromoethanone;1-Benzo[1,3]dioxol-5-yl-2-bromoethanone;1-(Bromoacetyl)-3,4-methylenedioxybenzene;2-Bromo-1-(1,3-benzodioxol-5-yl)ethanone;5-(Bromoacetyl)-1,3-benzodioxolane;1-(Benzo[<em>d</em>][1,3]dioxol-5-yl)-2-bromoethanone;1-(2<em>H</em>-1,3-Benzodioxol-5-yl)-2-bromoethan-1-one;1-(1,3-Dioxaindan-5-yl)-2-bromoethan-1-one;2-Bromo-1-(benzo[1,3]dioxol-5-yl)-1-ethanone",
    "duplicated_cas_no": "",
    "SMILES": "C(CBr)(=O)C=1C=C2C(=CC1)OCO2",
    "meta_data": {
        "InChI": "InChI=1S/C9H7BrO3/c10-4-7(11)6-1-2-8-9(3-6)13-5-12-8/h1-3H,4-5H2",
        "InChIKey": null,
        "Canonical SMILES": "O=C(C1=CC=C2OCOC2=C1)CBr",
        "Molecular Formula": "C<sub>9</sub>H<sub>7</sub>BrO<sub>3</sub>",
        "Molecular Mass": "243.05",
        "Melting Point": "86-87 °C"
    }
}