{
    "cas_no": "303-25-3",
    "key_name": "Cyclizine hydrochloride",
    "cn_name": "盐酸苯甲嗪;盐酸苯甲嗪;",
    "alternate_name": "Piperazine, 1-(diphenylmethyl)-4-methyl-, hydrochloride (1:1);Piperazine, 1-(diphenylmethyl)-4-methyl-, monohydrochloride;<em>N</em>-Benzhydryl-<em>N</em>′-methylpiperazine monohydrochloride;Cyclizine hydrochloride;Marezine hydrochloride;Marzine;1-Benzhydryl-4-methylpiperazine hydrochloride",
    "duplicated_cas_no": "",
    "SMILES": "C(N1CCN(C)CC1)(C2=CC=CC=C2)C3=CC=CC=C3.Cl",
    "meta_data": {
        "InChI": "InChI=1S/C18H22N2.ClH/c1-19-12-14-20(15-13-19)18(16-8-4-2-5-9-16)17-10-6-3-7-11-17;/h2-11,18H,12-15H2,1H3;1H",
        "InChIKey": null,
        "Canonical SMILES": "Cl.C=1C=CC(=CC1)C(C=2C=CC=CC2)N3CCN(C)CC3",
        "Molecular Formula": "C<sub>18</sub>H<sub>22</sub>N<sub>2</sub>.ClH",
        "Molecular Mass": "",
        "Melting Point": "258-260 °C"
    }
}