{
    "cas_no": "6954-55-8",
    "key_name": "9<em>H</em>-Fluorene-4-carboxylic acid",
    "cn_name": "芴-4-羧酸;芴-4-羧酸;",
    "alternate_name": "9<em>H</em>-Fluorene-4-carboxylic acid;Fluorene-4-carboxylic acid;Fluorene-5-carboxylic acid;NSC 67686;4-Carboxyfluorene",
    "duplicated_cas_no": "",
    "SMILES": "C(O)(=O)C1=C2C=3C(CC2=CC=C1)=CC=CC3",
    "meta_data": {
        "InChI": "InChI=1S/C14H10O2/c15-14(16)12-7-3-5-10-8-9-4-1-2-6-11(9)13(10)12/h1-7H,8H2,(H,15,16)",
        "InChIKey": null,
        "Canonical SMILES": "O=C(O)C1=CC=CC2=C1C3=CC=CC=C3C2",
        "Molecular Formula": "C<sub>14</sub>H<sub>10</sub>O<sub>2</sub>",
        "Molecular Mass": "210.23",
        "Melting Point": "189-191 °C"
    }
}