{
    "cas_no": "1031-15-8",
    "key_name": "Methyltriphenylphosphonium chloride",
    "cn_name": "三苯基甲基氯化膦;",
    "alternate_name": "Phosphonium, methyltriphenyl-, chloride (1:1);Phosphonium, methyltriphenyl-, chloride;Methyltriphenylphosphonium chloride;Triphenylmethylphosphonium chloride;B 150;B 150 (antioxidant)",
    "duplicated_cas_no": "",
    "SMILES": "[P+](C)(C1=CC=CC=C1)(C2=CC=CC=C2)C3=CC=CC=C3.[Cl-]",
    "meta_data": {
        "InChI": "InChI=1S/C19H18P.ClH/c1-20(17-11-5-2-6-12-17,18-13-7-3-8-14-18)19-15-9-4-10-16-19;/h2-16H,1H3;1H/q+1;/p-1",
        "InChIKey": null,
        "Canonical SMILES": "[Cl-].C=1C=CC(=CC1)[P+](C=2C=CC=CC2)(C=3C=CC=CC3)C",
        "Molecular Formula": "C<sub>19</sub>H<sub>18</sub>P.Cl",
        "Molecular Mass": "",
        "Melting Point": "217-218.5 °C"
    }
}