{
    "cas_no": "954-16-5",
    "key_name": "2,4,6-Trimethylbenzophenone",
    "cn_name": "2,4,6-三甲基二苯甲酮;",
    "alternate_name": "Methanone, phenyl(2,4,6-trimethylphenyl)-;Benzophenone, 2,4,6-trimethyl-;Phenyl(2,4,6-trimethylphenyl)methanone;Mesityl phenyl ketone;2,4,6-Trimethylbenzophenone;Benzoylmesitylene;Phenyl 2,4,6-trimethylphenyl ketone;NSC 26923",
    "duplicated_cas_no": "",
    "SMILES": "C(=O)(C1=C(C)C=C(C)C=C1C)C2=CC=CC=C2",
    "meta_data": {
        "InChI": "InChI=1S/C16H16O/c1-11-9-12(2)15(13(3)10-11)16(17)14-7-5-4-6-8-14/h4-10H,1-3H3",
        "InChIKey": null,
        "Canonical SMILES": "O=C(C=1C=CC=CC1)C=2C(=CC(=CC2C)C)C",
        "Molecular Formula": "C<sub>16</sub>H<sub>16</sub>O",
        "Molecular Mass": "224.30",
        "Boiling Point": "326.5-327 °C @ Press: 777 Torr",
        "Melting Point": "35 °C"
    }
}