{
    "cas_no": "247129-85-7",
    "key_name": "Sulfonium, (2-bromoethyl)diphenyl-, 1,1,1-trifluoromethanesulfonate (1:1)",
    "cn_name": null,
    "alternate_name": "Sulfonium, (2-bromoethyl)diphenyl-, 1,1,1-trifluoromethanesulfonate (1:1);Sulfonium, (2-bromoethyl)diphenyl-, salt with trifluoromethanesulfonic acid (1:1);(2-Bromoethyl)diphenylsulfonium trifluoromethanesulfonate;(2-Bromoethyl)diphenylsulfonium triflate",
    "duplicated_cas_no": "",
    "SMILES": "[S+](CCBr)(C1=CC=CC=C1)C2=CC=CC=C2.C(S(=O)(=O)[O-])(F)(F)F",
    "meta_data": {
        "InChI": "InChI=1S/C14H14BrS.CHF3O3S/c15-11-12-16(13-7-3-1-4-8-13)14-9-5-2-6-10-14;2-1(3,4)8(5,6)7/h1-10H,11-12H2;(H,5,6,7)/q+1;/p-1",
        "InChIKey": null,
        "Canonical SMILES": "O=S(=O)([O-])C(F)(F)F.BrCC[S+](C=1C=CC=CC1)C=2C=CC=CC2",
        "Molecular Formula": "C<sub>14</sub>H<sub>14</sub>BrS.CF<sub>3</sub>O<sub>3</sub>S",
        "Molecular Mass": "",
        "Melting Point": "88.5-89.5 °C"
    }
}