{
    "cas_no": "101947-16-4",
    "key_name": "1<em>H</em>,1<em>H</em>,2<em>H</em>,2<em>H</em>-Perfluorodecyltriethoxysilane",
    "cn_name": "1H,1H,2H,2H-全氟癸基三乙氧基硅烷;三乙氧基-1H,1H,2H,2H-全氟癸基硅烷;",
    "alternate_name": "Silane, triethoxy(3,3,4,4,5,5,6,6,7,7,8,8,9,9,10,10,10-heptadecafluorodecyl)-;Triethoxy(3,3,4,4,5,5,6,6,7,7,8,8,9,9,10,10,10-heptadecafluorodecyl)silane;1-(Heptadecafluoro-1,1,2,2-tetrahydrodecyl)triethoxysilane;1<em>H</em>,1<em>H</em>,2<em>H</em>,2<em>H</em>-Perfluorodecyltriethoxysilane;3,3,4,4,5,5,6,6,7,7,8,8,9,9,10,10,10-Heptadecafluorodecyltriethoxysilane;AY 43-158E;SIH 5841.2;17F (silane);17F;[2-(Perfluorooctyl)ethyl]triethoxysilane;(Heptadecafluoro-1,1,2,2-tetrahydrodecyl)triethoxysilane;1,1,2,2-Tetrahydroperfluorodecyltriethoxysilane;F 1060;AC-FAS;FAS;Triethoxy(1<em>H</em>,1<em>H</em>,2<em>H</em>,2<em>H</em>-heptadecafluorodecyl)silane;AB 111156",
    "duplicated_cas_no": "",
    "SMILES": "[Si](CCC(C(C(C(C(C(C(C(F)(F)F)(F)F)(F)F)(F)F)(F)F)(F)F)(F)F)(F)F)(OCC)(OCC)OCC",
    "meta_data": {
        "InChI": "InChI=1S/C16H19F17O3Si/c1-4-34-37(35-5-2,36-6-3)8-7-9(17,18)10(19,20)11(21,22)12(23,24)13(25,26)14(27,28)15(29,30)16(31,32)33/h4-8H2,1-3H3",
        "InChIKey": null,
        "Canonical SMILES": "FC(F)(F)C(F)(F)C(F)(F)C(F)(F)C(F)(F)C(F)(F)C(F)(F)C(F)(F)CC[Si](OCC)(OCC)OCC",
        "Molecular Formula": "C<sub>16</sub>H<sub>19</sub>F<sub>17</sub>O<sub>3</sub>Si",
        "Molecular Mass": "610.38",
        "Boiling Point": "103-106 °C @ Press: 3 Torr",
        "Density": "1.407 g/cm³ @ Temp: 25 °C"
    }
}