{
    "cas_no": "24807-55-4",
    "key_name": "3-Nitro-1,2,4-triazole",
    "cn_name": "3-硝基-1,2,4-三氮唑;",
    "alternate_name": "1<em>H</em>-1,2,4-Triazole, 5-nitro-;<em>s</em>-Triazole, 3-nitro-;1<em>H</em>-1,2,4-Triazole, 3-nitro-;5-Nitro-1<em>H</em>-1,2,4-triazole;3-Nitro-1,2,4-triazole;3-Nitro-1<em>H</em>-1,2,4-triazole;NSC 133107;N 0477;3-Nitro-4<em>H</em>-1,2,4-triazole",
    "duplicated_cas_no": "21733-02-8;36899-18-0;91039-54-2",
    "SMILES": "N(=O)(=O)C=1NC=NN1",
    "meta_data": {
        "InChI": "InChI=1S/C2H2N4O2/c7-6(8)2-3-1-4-5-2/h1H,(H,3,4,5)",
        "InChIKey": null,
        "Canonical SMILES": "O=N(=O)C1=NN=CN1",
        "Molecular Formula": "C<sub>2</sub>H<sub>2</sub>N<sub>4</sub>O<sub>2</sub>",
        "Molecular Mass": "114.06",
        "Melting Point": "210 °C",
        "Density": "1.65 g/cm³ @ Temp: 20 °C"
    }
}