{
    "cas_no": "22445-42-7",
    "key_name": "3,5-Dimethylbenzonitrile",
    "cn_name": "3,5-二甲基苯腈;",
    "alternate_name": "Benzonitrile, 3,5-dimethyl-;3,5-Dimethylbenzonitrile;1,3-Dimethyl-5-cyanobenzene",
    "duplicated_cas_no": "",
    "SMILES": "C(#N)C1=CC(C)=CC(C)=C1",
    "meta_data": {
        "InChI": "InChI=1S/C9H9N/c1-7-3-8(2)5-9(4-7)6-10/h3-5H,1-2H3",
        "InChIKey": null,
        "Canonical SMILES": "N#CC=1C=C(C=C(C1)C)C",
        "Molecular Formula": "C<sub>9</sub>H<sub>9</sub>N",
        "Molecular Mass": "131.17",
        "Melting Point": "42-43 °C"
    }
}