{
    "cas_no": "18586-22-6",
    "key_name": "1,5-Diethenyl-1,1,5,5-tetramethyl-3,3-diphenyltrisiloxane",
    "cn_name": null,
    "alternate_name": "Trisiloxane, 1,5-diethenyl-1,1,5,5-tetramethyl-3,3-diphenyl-;Trisiloxane, 1,1,5,5-tetramethyl-3,3-diphenyl-1,5-divinyl-;1,5-Diethenyl-1,1,5,5-tetramethyl-3,3-diphenyltrisiloxane;1,1,5,5-Tetramethyl-3,3-diphenyl-1,5-divinyltrisiloxane;SID 4609.0;1,5-Divinyl-3,3-diphenyl-1,1,5,5-tetramethyltrisiloxane;RMS 312 (siloxane);RMS 312;1,1,5,5-Tetramethyl-1,5-divinyl-3,3-diphenyltrisiloxane",
    "duplicated_cas_no": "1449750-38-2",
    "SMILES": "[Si](O[Si](C=C)(C)C)(O[Si](C=C)(C)C)(C1=CC=CC=C1)C2=CC=CC=C2",
    "meta_data": {
        "InChI": "InChI=1S/C20H28O2Si3/c1-7-23(3,4)21-25(22-24(5,6)8-2,19-15-11-9-12-16-19)20-17-13-10-14-18-20/h7-18H,1-2H2,3-6H3",
        "InChIKey": null,
        "Canonical SMILES": "O([Si](O[Si](C=C)(C)C)(C=1C=CC=CC1)C=2C=CC=CC2)[Si](C=C)(C)C",
        "Molecular Formula": "C<sub>20</sub>H<sub>28</sub>O<sub>2</sub>Si<sub>3</sub>",
        "Molecular Mass": "384.69",
        "Boiling Point": "141-144 °C @ Press: 1 Torr",
        "Density": "0.976 g/cm³"
    }
}