{
    "cas_no": "542-81-4",
    "key_name": "2-Chloroethyl methyl sulfide",
    "cn_name": "2-氯乙基甲基硫醚;",
    "alternate_name": "Ethane, 1-chloro-2-(methylthio)-;Sulfide, 2-chloroethyl methyl;2-Chloroethyl methyl sulfide;2-Chloroethyl methyl thioether;Methyl β-chloroethyl sulfide;2-(Methylthio)ethyl chloride;1-Chloro-2-(methylthio)ethane;β-(Methylthio)ethyl chloride;Methyl 2-chloroethyl sulfide;β-Chloroethyl methylsulfide;4-Chloro-2-thiabutane;NSC 91724;1-Chloro-2-methylsulfanylethane;2-(Methylsulfanyl)ethyl chloride;(2-Chloroethyl)(methyl)sulfane",
    "duplicated_cas_no": "",
    "SMILES": "C(CCl)SC",
    "meta_data": {
        "InChI": "InChI=1S/C3H7ClS/c1-5-3-2-4/h2-3H2,1H3",
        "InChIKey": null,
        "Canonical SMILES": "ClCCSC",
        "Molecular Formula": "C<sub>3</sub>H<sub>7</sub>ClS",
        "Molecular Mass": "110.61",
        "Boiling Point": "55-57 °C @ Press: 30 Torr"
    }
}