{
    "cas_no": "24254-01-1",
    "key_name": "3-Oxopregn-4-ene-20-carboxaldehyde",
    "cn_name": null,
    "alternate_name": "Pregn-4-ene-20-carboxaldehyde, 3-oxo-;3-Oxopregn-4-ene-20-carboxaldehyde;3-Oxopregnen-4-ene-20-carboxaldehyde;(20<em>RS</em>)-20-Methyl-3-oxopregn-4-en-21-al",
    "duplicated_cas_no": "",
    "SMILES": "C[C@@]12[C@]([C@]3([C@@]([C@]4(C)C(CC3)=CC(=O)CC4)(CC1)[H])[H])(CC[C@@H]2C(C=O)C)[H]",
    "meta_data": {
        "InChI": "InChI=1S/C22H32O2/c1-14(13-23)18-6-7-19-17-5-4-15-12-16(24)8-10-21(15,2)20(17)9-11-22(18,19)3/h12-14,17-20H,4-11H2,1-3H3/t14?,17-,18+,19-,20-,21-,22+/m0/s1",
        "InChIKey": null,
        "Canonical SMILES": "O=CC(C)C1CCC2C3CCC4=CC(=O)CCC4(C)C3CCC12C",
        "Molecular Formula": "C<sub>22</sub>H<sub>32</sub>O<sub>2</sub>",
        "Molecular Mass": "328.49",
        "Melting Point": "156-158 °C"
    }
}