{
    "cas_no": "518-28-5",
    "key_name": "Podophyllotoxin",
    "cn_name": "鬼臼毒素;(5R,5aR,8aR,9R)-5R-5,8,8a,9-四氢-9-羟-5-(3,4,5-三甲氧苯基)呋喃(3\",4\":6,7)萘并-[2,3-d]-1,3-;",
    "alternate_name": "Furo[3′,4′:6,7]naphtho[2,3-<em>d</em>]-1,3-dioxol-6(5a<em>H</em>)-one, 5,8,8a,9-tetrahydro-9-hydroxy-5-(3,4,5-trimethoxyphenyl)-, (5<em>R</em>,5a<em>R</em>,8a<em>R</em>,9<em>R</em>)-;Podophyllotoxin;Furo[3′,4′:6,7]naphtho[2,3-<em>d</em>]-1,3-dioxol-6(5a<em>H</em>)-one, 5,8,8a,9-tetrahydro-9-hydroxy-5-(3,4,5-trimethoxyphenyl)-, [5<em>R</em>-(5α,5aβ,8aα,9α)]-;(5<em>R</em>,5a<em>R</em>,8a<em>R</em>,9<em>R</em>)-5,8,8a,9-Tetrahydro-9-hydroxy-5-(3,4,5-trimethoxyphenyl)furo[3′,4′:6,7]naphtho[2,3-<em>d</em>]-1,3-dioxol-6(5a<em>H</em>)-one;Condylox;Podofilox;(-)-Podophyllotoxin;NSC 24818;Condyline;MeSH ID: D011034",
    "duplicated_cas_no": "11016-28-7",
    "SMILES": "O=C1[C@@]2([C@@H](C=3C([C@H](O)[C@]2(CO1)[H])=CC4=C(C3)OCO4)C5=CC(OC)=C(OC)C(OC)=C5)[H]",
    "meta_data": {
        "InChI": "InChI=1S/C22H22O8/c1-25-16-4-10(5-17(26-2)21(16)27-3)18-11-6-14-15(30-9-29-14)7-12(11)20(23)13-8-28-22(24)19(13)18/h4-7,13,18-20,23H,8-9H2,1-3H3/t13-,18+,19-,20-/m0/s1",
        "InChIKey": null,
        "Canonical SMILES": "O=C1OCC2C(O)C3=CC=4OCOC4C=C3C(C5=CC(OC)=C(OC)C(OC)=C5)C12",
        "Molecular Formula": "C<sub>22</sub>H<sub>22</sub>O<sub>8</sub>",
        "Molecular Mass": "414.41",
        "Melting Point": "183 °C"
    }
}