{
    "cas_no": "834-66-2",
    "key_name": "1-[(4-Bromophenyl)sulfonyl]piperidine",
    "cn_name": "1-(4-溴苯基磺酰)哌啶;1-(4-溴苯基磺酰)哌啶;",
    "alternate_name": "Piperidine, 1-[(4-bromophenyl)sulfonyl]-;Piperidine, 1-[(<em>p</em>-bromophenyl)sulfonyl]-;1-[(4-Bromophenyl)sulfonyl]piperidine;1-[(<em>p</em>-Bromophenyl)sulfonyl]piperidine;<em>N</em>-(4-Bromobenzenesulfonyl)piperidine;NSC 14845;1-(4-Bromobenzenesulfonyl)piperidine",
    "duplicated_cas_no": "",
    "SMILES": "S(=O)(=O)(C1=CC=C(Br)C=C1)N2CCCCC2",
    "meta_data": {
        "InChI": "InChI=1S/C11H14BrNO2S/c12-10-4-6-11(7-5-10)16(14,15)13-8-2-1-3-9-13/h4-7H,1-3,8-9H2",
        "InChIKey": null,
        "Canonical SMILES": "O=S(=O)(C1=CC=C(Br)C=C1)N2CCCCC2",
        "Molecular Formula": "C<sub>11</sub>H<sub>14</sub>BrNO<sub>2</sub>S",
        "Molecular Mass": "304.20",
        "Melting Point": "91-91.5 °C"
    }
}