{
    "cas_no": "2373-98-0",
    "key_name": "3,3′-Dihydroxy-4,4′-diaminobiphenyl",
    "cn_name": "3,3\"-二羟基联苯胺;3,3\"-二羟基-4,4\"-联苯二胺;",
    "alternate_name": "[1,1′-Biphenyl]-3,3′-diol, 4,4′-diamino-;3,3′-Biphenyldiol, 4,4′-diamino-;<em>m</em>,<em>m</em>′-Biphenol, 6,6′-diamino-;4,4′-Diamino[1,1′-biphenyl]-3,3′-diol;3,3′-Dihydroxybenzidine;[1,1′-Biphenyl]-4,4′-diamine, 3,3′-dihydroxy-;3,3′-Dihydroxy-4,4′-diaminobiphenyl;HAB (diol);4,4′-Diamino-3,3′-dihydroxybiphenyl;4,4′-Diaminobiphenyl-3,3′-diol;2-Amino-5-(4-amino-3-hydroxyphenyl)phenol",
    "duplicated_cas_no": "73546-50-6;154076-12-7",
    "SMILES": "OC=1C=C(C=CC1N)C2=CC(O)=C(N)C=C2",
    "meta_data": {
        "InChI": "InChI=1S/C12H12N2O2/c13-9-3-1-7(5-11(9)15)8-2-4-10(14)12(16)6-8/h1-6,15-16H,13-14H2",
        "InChIKey": null,
        "Canonical SMILES": "OC=1C=C(C=CC1N)C2=CC=C(N)C(O)=C2",
        "Molecular Formula": "C<sub>12</sub>H<sub>12</sub>N<sub>2</sub>O<sub>2</sub>",
        "Molecular Mass": "216.24",
        "Melting Point": "225 °C (decomp)"
    }
}