{
    "cas_no": "5042-55-7",
    "key_name": "5-Nitro-1,3-benzenediamine",
    "cn_name": null,
    "alternate_name": "1,3-Benzenediamine, 5-nitro-;<em>m</em>-Phenylenediamine, 5-nitro-;5-Nitro-1,3-benzenediamine;1-Nitro-3,5-diaminobenzene;3,5-Diaminonitrobenzene;1,3-Diamino-5-nitrobenzene;3-Amino-5-nitroaniline;5-Nitro-<em>m</em>-phenylenediamine;NSC 166388;NSC 283",
    "duplicated_cas_no": "",
    "SMILES": "N(=O)(=O)C1=CC(N)=CC(N)=C1",
    "meta_data": {
        "InChI": "InChI=1S/C6H7N3O2/c7-4-1-5(8)3-6(2-4)9(10)11/h1-3H,7-8H2",
        "InChIKey": null,
        "Canonical SMILES": "O=N(=O)C=1C=C(N)C=C(N)C1",
        "Molecular Formula": "C<sub>6</sub>H<sub>7</sub>N<sub>3</sub>O<sub>2</sub>",
        "Molecular Mass": "153.14",
        "Melting Point": "159 °C"
    }
}