{
    "cas_no": "460-19-5",
    "key_name": "Ethanedinitrile",
    "cn_name": null,
    "alternate_name": "Ethanedinitrile;Cyanogen (C<sub>2</sub>N<sub>2</sub>);Dicyanogen;Oxalic acid dinitrile;Carbon nitride (C<sub>2</sub>N<sub>2</sub>);Oxalonitrile;Cyanogen;Oxalyl cyanide;Nitriloacetonitrile;Dicyan;EDN Fumigas",
    "duplicated_cas_no": "",
    "SMILES": "C(C#N)#N",
    "meta_data": {
        "InChI": "InChI=1S/C2N2/c3-1-2-4",
        "InChIKey": null,
        "Canonical SMILES": "N#CC#N",
        "Molecular Formula": "C<sub>2</sub>N<sub>2</sub>",
        "Molecular Mass": "52.03",
        "Boiling Point": "-21.17 °C",
        "Melting Point": "-27.9 °C",
        "Density": "0.9537 g/cm³ @ Temp: -21.17 °C"
    }
}