{
    "cas_no": "111-41-1",
    "key_name": "(2-Hydroxyethyl)ethylenediamine",
    "cn_name": "羟乙基乙二胺;氨基乙基乙醇胺;AEEA;",
    "alternate_name": "Ethanol, 2-[(2-aminoethyl)amino]-;2-[(2-Aminoethyl)amino]ethanol;<em>N</em>-Hydroxyethyl-1,2-ethanediamine;<em>N</em>-(β-Hydroxyethyl)ethylenediamine;<em>N</em>-(Hydroxyethyl)ethylenediamine;(β-Hydroxyethyl)ethylenediamine;<em>N</em>-(2-Aminoethyl)ethanolamine;<em>N</em>-(β-Aminoethyl)ethanolamine;<em>N</em>-(2-Hydroxyethyl)ethylenediamine;(2-Hydroxyethyl)ethylenediamine;<em>N</em>-(2-Hydroxyethyl)-1,2-ethanediamine;1-(2-Hydroxyethylamino)-2-aminoethane;2-(2-Hydroxyethylamino)ethylamine;<em>N</em>-(2′-Hydroxyethyl)ethylenediamine;2-(2′-Aminoethylamino)ethanol;<em>N</em>-(β-Hydroxyethyl)-1,2-ethanediamine;<em>N</em>-(2-Hydroxyethyl)-1,2-ethylenediamine;A-EA;NSC 461;Amino Alcohol EA;1-Aminooxyethylamine;Aminoethylethanolamine;<em>N</em>-(2-Hydroxyethyl)-1,2-diaminoethane;2-[(Aminoethyl)amino]ethanol;2-(2-Aminoethylamino)-1-ethanol",
    "duplicated_cas_no": "51251-98-0",
    "SMILES": "N(CCN)CCO",
    "meta_data": {
        "InChI": "InChI=1S/C4H12N2O/c5-1-2-6-3-4-7/h6-7H,1-5H2",
        "InChIKey": null,
        "Canonical SMILES": "OCCNCCN",
        "Molecular Formula": "C<sub>4</sub>H<sub>12</sub>N<sub>2</sub>O",
        "Molecular Mass": "104.15",
        "Boiling Point": "239 °C",
        "Melting Point": "-38 °C",
        "Density": "1.0254 g/cm³ @ Temp: 25 °C"
    }
}