{
    "cas_no": "77-58-7",
    "key_name": "Dibutyltin dilaurate",
    "cn_name": "二月桂酸二丁基锡;二丁基二月桂酸锡;",
    "alternate_name": "Dodecanoic acid, 1,1′-(dibutylstannylene) ester;Dibutyltin dilaurate;Stannane, dibutylbis(lauroyloxy)-;Stannane, dibutylbis[(1-oxododecyl)oxy]-;Tin, dibutylbis(lauroyloxy)-;Lauric acid, dibutylstannylene deriv.;Butynorate;DBTL;Dibutylbis(lauroyloxy)tin;Stabilizer D 22;Tin dibutyl dilaurate;Stanclere DBTL;Davainex;TVS Tin Lau;Dibutyltin didodecanoate;Dibutylbis(laurato)tin;Mark 1038;Tinostat;Dibutyltin <em>n</em>-dodecanoate;Stavinor 1200SN;Dibutylstannylene dilaurate;T 12;TVS-TL 700;Dibutylbis(1-oxododecyloxy)stannane;Stann SB 430A;KS 20;Neostann U 100;Stanclere TL;DBTDL;Cata-Chek 820;Mark BT 18;TN 12 (catalyst);TN 12;Thermolite T 12;SM 2014C;Di-<em>n</em>-butyltin dilaurate;Stann BL;DXR 81;Lankromark LT 173;Ongrostab BLTM;Kosmos 19;Mark BT 11;TVS-TL 800;Advastab T 12P;BL 42A;Dabco T 12;CAT 11;SCAT 1;CAT 11 (catalyst);Fascat 4202;Metacure T 12;U 100;Meister ZL 4401;BT 18;TL 1000;ADK Stab BT 11;Nitto 8501;BT 11;Cotin 200;Tegokat 218;Thorcat 401;C 101;C 101 (stabilizer);Fomrez SUL 4;NSC 2607;Metatin 712;Jeffcat T 12;TL 1000 (catalyst);DOD-D 82727;Dabco T 12N;SD-L 101;Liocat 118;SUL 4;TL 10;TL 10 (catalyst);DBTD;TinStab BL 277;Desmorapid Z;ZT 102;Octaflow BT 71;SCAT 1W;Baerostab DBTL/C;Reatinor 932;Metatin K 712;Mark DBTL;Liocat 119;Niax T 12;CP;K 1 Type A;CP (catalyst);D 22;KS 1260;DBTL-KS 1260;Mark BT 1;Embilizer L 101;L 101;Reaxis C 218;Addocat 210;KS 120;A 201;Gleck TL;Foamate S 9;D 80;D 80 (catalyst);ZT 101;Yoke T 12;DC 176;Dow Corning 176;DY 12;Dabco T 12SL;DY 28;BXX 3778;TL 100;YL 101 (catalyst);YL 101;Keverkat DBTL 162;BNT-CAT 425;D 7103;HG 0111;U 12;TMV 186;JF-NS-C 010;Addocat 201;LL 101;CM-A;TK 218;Tegokat TK 218;Borchi LH 10;TVS-KS 1260;LA 8S;D 100274;JHHXP 295;TIB KAT 218;TIB Kat 218;KR 101;T 12A (catalyst);T 12A;HT 2401A;QDN 12;LH 10;Arkema 8202;PC-CAT T1;SDJ 9902;Cosmos 19;C 38269",
    "duplicated_cas_no": "358-50-9;7428-79-7;8028-83-9;70620-28-9;125199-87-3;185915-28-0;211990-09-9;1204812-53-2;1245941-87-0;1542381-47-4;1702279-08-0;1702279-15-9;2056906-49-9",
    "SMILES": "[Sn](OC(CCCCCCCCCCC)=O)(OC(CCCCCCCCCCC)=O)(CCCC)CCCC",
    "meta_data": {
        "InChI": "InChI=1S/2C12H24O2.2C4H9.Sn/c2*1-2-3-4-5-6-7-8-9-10-11-12(13)14;2*1-3-4-2;/h2*2-11H2,1H3,(H,13,14);2*1,3-4H2,2H3;/q;;;;+2/p-2",
        "InChIKey": null,
        "Canonical SMILES": "O=C(O[Sn](OC(=O)CCCCCCCCCCC)(CCCC)CCCC)CCCCCCCCCCC",
        "Molecular Formula": "C<sub>32</sub>H<sub>64</sub>O<sub>4</sub>Sn",
        "Molecular Mass": "631.56",
        "Boiling Point": "205 °C @ Press: 9.8 Torr",
        "Melting Point": "22-24 °C",
        "Density": "1.05 g/cm³ @ Temp: 20 °C"
    }
}