{
    "cas_no": "102-36-3",
    "key_name": "3,4-Dichlorophenyl isocyanate",
    "cn_name": "3,4-二氯苯异氰酸酯;",
    "alternate_name": "Benzene, 1,2-dichloro-4-isocyanato-;Isocyanic acid, 3,4-dichlorophenyl ester;1,2-Dichloro-4-isocyanatobenzene;3,4-Dichlorophenyl isocyanate;NSC 76605;3,4-Dichloroisocyanatobenzene;3,4-Dichlorobenzene isocyanate",
    "duplicated_cas_no": "",
    "SMILES": "N(=C=O)C1=CC(Cl)=C(Cl)C=C1",
    "meta_data": {
        "InChI": "InChI=1S/C7H3Cl2NO/c8-6-2-1-5(10-4-11)3-7(6)9/h1-3H",
        "InChIKey": null,
        "Canonical SMILES": "O=C=NC1=CC=C(Cl)C(Cl)=C1",
        "Molecular Formula": "C<sub>7</sub>H<sub>3</sub>Cl<sub>2</sub>NO",
        "Molecular Mass": "188.01",
        "Boiling Point": "113 °C",
        "Melting Point": "43 °C"
    }
}