{
    "cas_no": "637-61-6",
    "key_name": "Benzoquinone chlorimine",
    "cn_name": "对醌4-氯酰亚氨;一(氯氮)醌;N-氯对苯醌酰亚胺;",
    "alternate_name": "2,5-Cyclohexadien-1-one, 4-(chloroimino)-;<em>p</em>-Benzoquinone imine, <em>N</em>-chloro-;4-(Chloroimino)-2,5-cyclohexadien-1-one;<em>N</em>-Chloro-<em>p</em>-benzoquinonimine;Quinone chlorimide;<em>p</em>-Benzoquinone <em>N</em>-chloroimine;Benzoquinone chlorimine;NSC 448",
    "duplicated_cas_no": "",
    "SMILES": "N(Cl)=C1C=CC(=O)C=C1",
    "meta_data": {
        "InChI": "InChI=1S/C6H4ClNO/c7-8-5-1-3-6(9)4-2-5/h1-4H",
        "InChIKey": null,
        "Canonical SMILES": "O=C1C=CC(=NCl)C=C1",
        "Molecular Formula": "C<sub>6</sub>H<sub>4</sub>ClNO",
        "Molecular Mass": "141.56",
        "Melting Point": "85 °C"
    }
}