{
    "cas_no": "18696-26-9",
    "key_name": "Sinapine",
    "cn_name": null,
    "alternate_name": "Ethanaminium, 2-[[3-(4-hydroxy-3,5-dimethoxyphenyl)-1-oxo-2-propen-1-yl]oxy]-<em>N</em>,<em>N</em>,<em>N</em>-trimethyl-;Choline, 4-hydroxy-3,5-dimethoxycinnamate (ester);Sinapine;Ethanaminium, 2-[[3-(4-hydroxy-3,5-dimethoxyphenyl)-1-oxo-2-propenyl]oxy]-<em>N</em>,<em>N</em>,<em>N</em>-trimethyl-;Cinnamic acid, 4-hydroxy-3,5-dimethoxy-, choline ester;2-[[3-(4-Hydroxy-3,5-dimethoxyphenyl)-1-oxo-2-propen-1-yl]oxy]-<em>N</em>,<em>N</em>,<em>N</em>-trimethylethanaminium;Sinapin",
    "duplicated_cas_no": "",
    "SMILES": "C(=CC(OCC[N+](C)(C)C)=O)C1=CC(OC)=C(O)C(OC)=C1",
    "meta_data": {
        "InChI": "InChI=1S/C16H23NO5/c1-17(2,3)8-9-22-15(18)7-6-12-10-13(20-4)16(19)14(11-12)21-5/h6-7,10-11H,8-9H2,1-5H3/p+1",
        "InChIKey": null,
        "Canonical SMILES": "O=C(OCC[N+](C)(C)C)C=CC1=CC(OC)=C(O)C(OC)=C1",
        "Molecular Formula": "C<sub>16</sub>H<sub>24</sub>NO<sub>5</sub>",
        "Molecular Mass": "",
        "Melting Point": "178 °C"
    }
}