{
    "cas_no": "3424-98-4",
    "key_name": "Telbivudine",
    "cn_name": "2-脱氧-L-胸苷;",
    "alternate_name": "2,4(1<em>H</em>,3<em>H</em>)-Pyrimidinedione, 1-(2-deoxy-β-<span class=\"text-smallcaps\">L</span>-<em>erythro</em>-pentofuranosyl)-5-methyl-;Thymine, 1-(2-deoxy-β-<span class=\"text-smallcaps\">L</span>-<em>erythro</em>-pentofuranosyl)-;1-(2-Deoxy-β-<span class=\"text-smallcaps\">L</span>-<em>erythro</em>-pentofuranosyl)-5-methyl-2,4(1<em>H</em>,3<em>H</em>)-pyrimidinedione;2′-Deoxy-<span class=\"text-smallcaps\">L</span>-thymidine;<span class=\"text-smallcaps\">L</span>-Thymidine;β-<span class=\"text-smallcaps\">L</span>-Thymidine;Epavudine;NV 02B;Telbivudine;Sebivo;<span class=\"text-smallcaps\">L</span>-Deoxythymidine;Tyzeka;32: PN: WO2016077321 SEQID: 32 claimed sequence",
    "duplicated_cas_no": "",
    "SMILES": "O=C1N([C@H]2O[C@@H](CO)[C@H](O)C2)C=C(C)C(=O)N1",
    "meta_data": {
        "InChI": "InChI=1S/C10H14N2O5/c1-5-3-12(10(16)11-9(5)15)8-2-6(14)7(4-13)17-8/h3,6-8,13-14H,2,4H2,1H3,(H,11,15,16)/t6-,7+,8+/m1/s1",
        "InChIKey": null,
        "Canonical SMILES": "O=C1NC(=O)N(C=C1C)C2OC(CO)C(O)C2",
        "Molecular Formula": "C<sub>10</sub>H<sub>14</sub>N<sub>2</sub>O<sub>5</sub>",
        "Molecular Mass": "242.23",
        "Melting Point": "186 °C"
    }
}