{
    "cas_no": "94-69-9",
    "key_name": "<em>N</em>-(2-Methylphenyl)formamide",
    "cn_name": null,
    "alternate_name": "Formamide, <em>N</em>-(2-methylphenyl)-;<em>o</em>-Formotoluidide;<em>N</em>-(2-Methylphenyl)formamide;<em>o</em>-Methylformanilide;<em>o</em>-Tolylformamide;<em>o</em>-Methyl-<em>N</em>-formylaniline;2′-Methylformanilide;<em>N</em>-<em>o</em>-Tolylformamide;<em>N</em>-Formyl-<em>o</em>-toluidine;NSC 406128;NSC 62002;<em>N</em>-Formyl-2-methylaniline",
    "duplicated_cas_no": "",
    "SMILES": "N(C=O)C1=C(C)C=CC=C1",
    "meta_data": {
        "InChI": "InChI=1S/C8H9NO/c1-7-4-2-3-5-8(7)9-6-10/h2-6H,1H3,(H,9,10)",
        "InChIKey": null,
        "Canonical SMILES": "O=CNC=1C=CC=CC1C",
        "Molecular Formula": "C<sub>8</sub>H<sub>9</sub>NO",
        "Molecular Mass": "135.16",
        "Boiling Point": "288 °C",
        "Melting Point": "62 °C"
    }
}