{
    "cas_no": "139-89-9",
    "key_name": "Trisodium HEDTA",
    "cn_name": "N-[2-[双(羧甲基)氨基]乙基]-N-(2-羟乙基)-甘氨酸三钠盐;N-(羟基乙基)乙二胺三乙酸三钠;",
    "alternate_name": "Glycine, <em>N</em>-[2-[bis(carboxymethyl)amino]ethyl]-<em>N</em>-(2-hydroxyethyl)-, sodium salt (1:3);Glycine, <em>N</em>-(carboxymethyl)-<em>N</em>′-(2-hydroxyethyl)-<em>N</em>,<em>N</em>′-ethylenedi-, trisodium salt;Glycine, <em>N</em>-[2-[bis(carboxymethyl)amino]ethyl]-<em>N</em>-(2-hydroxyethyl)-, trisodium salt;<em>N</em>-(Carboxymethyl)-<em>N</em>′-(2-hydroxyethyl)-<em>N</em>,<em>N</em>′-ethylenediglycine trisodium salt;<em>N</em>-Hydroxyethylethylenediaminetriacetic acid trisodium salt;Monaquest ICA 120;Trisodium <em>N</em>-hydroxyethylethylenediamine-<em>N</em>,<em>N</em>′,<em>N</em>′-triacetate;<em>N</em>-(Hydroxyethyl)-<em>N</em>,<em>N</em>′,<em>N</em>′-ethylenediaminetriacetic acid trisodium salt;Trisodium <em>N</em>-(hydroxyethyl)ethylenediaminetriacetate;Trisodium salt <em>N</em>-hydroxyethylethylenediaminetriacetic acid;Detarol trisodium salt;Trisodium <em>N</em>-(2-hydroxyethyl)ethylenediamine-<em>N</em>,<em>N</em>′,<em>N</em>′-triacetate;Chemcolox 800;<em>N</em>-(2-Hydroxyethyl)-<em>N</em>,<em>N</em>′,<em>N</em>′-ethylenediaminetriacetic acid trisodium salt;Hamp-ol Crystals;Hamp-ol 120;Trisodium HEDTA;Perma Kleer 80;Perma Kleer 80 Crystals;Versenol 120;Chel DM 41;Trisodium <em>N</em>-(2-hydroxyethyl)ethylenediaminetriacetate;Sodium <em>N</em>-(2-hydroxylethyl)ethylenediamine-<em>N</em>,<em>N</em>′,<em>N</em>′-triacetate;Clewat OH 300;Trilon D;Chelest H;Hydroxyethylethylenediaminetriacetic acid trisodium salt;Clewat OH 35;Chelest HC;Dissolvine H 40;<em>N</em>-Hydroxyethyl ethylenediamine triacetate trisodium salt;Chelest HC-SD",
    "duplicated_cas_no": "112326-74-6;8040-88-8;81647-98-5",
    "SMILES": "N(CCN(CC(O)=O)CCO)(CC(O)=O)CC(O)=O.[Na]",
    "meta_data": {
        "InChI": "InChI=1S/C10H18N2O7.3Na/c13-4-3-11(5-8(14)15)1-2-12(6-9(16)17)7-10(18)19;;;/h13H,1-7H2,(H,14,15)(H,16,17)(H,18,19);;;",
        "InChIKey": null,
        "Canonical SMILES": "[Na].O=C(O)CN(CC(=O)O)CCN(CC(=O)O)CCO",
        "Molecular Formula": "C<sub>10</sub>H<sub>18</sub>N<sub>2</sub>O<sub>7</sub>.3Na",
        "Molecular Mass": "",
        "Melting Point": "288 °C (decomp)",
        "Density": "1.285 g/cm³"
    }
}