{
    "cas_no": "64474-51-7",
    "key_name": "Isomucronulatol",
    "cn_name": null,
    "alternate_name": "2<em>H</em>-1-Benzopyran-7-ol, 3,4-dihydro-3-(2-hydroxy-3,4-dimethoxyphenyl)-, (3<em>R</em>)-;2<em>H</em>-1-Benzopyran-7-ol, 3,4-dihydro-3-(2-hydroxy-3,4-dimethoxyphenyl)-, (<em>R</em>)-;(3<em>R</em>)-3,4-Dihydro-3-(2-hydroxy-3,4-dimethoxyphenyl)-2<em>H</em>-1-benzopyran-7-ol;Isomucronulatol;(-)-Isomucronulatol;(3<em>R</em>)-7,2′-Dihydroxy-3′,4′-dimethoxyisoflavan;(3R)-7,2′-Dihydroxy-3′,4′-dimethoxyisoflavan;(R)-3-(2-Hydroxy-3,4-dimethoxyphenyl)chroman-7-ol",
    "duplicated_cas_no": "",
    "SMILES": "OC1=C([C@H]2CC=3C(OC2)=CC(O)=CC3)C=CC(OC)=C1OC",
    "meta_data": {
        "InChI": "InChI=1S/C17H18O5/c1-20-14-6-5-13(16(19)17(14)21-2)11-7-10-3-4-12(18)8-15(10)22-9-11/h3-6,8,11,18-19H,7,9H2,1-2H3/t11-/m0/s1",
        "InChIKey": null,
        "Canonical SMILES": "OC1=CC=C2C(OCC(C3=CC=C(OC)C(OC)=C3O)C2)=C1",
        "Molecular Formula": "C<sub>17</sub>H<sub>18</sub>O<sub>5</sub>",
        "Molecular Mass": "302.32",
        "Melting Point": "152-153 °C"
    }
}