{
    "cas_no": "56621-90-0",
    "key_name": "2-Chloro-5-pyrimidinamine",
    "cn_name": "5-氨基-2-氯嘧啶;",
    "alternate_name": "5-Pyrimidinamine, 2-chloro-;2-Chloro-5-pyrimidinamine;5-Amino-2-chloropyrimidine;2-Chloropyrimidin-5-ylamine;2-Chloro-5-aminopyrimidine",
    "duplicated_cas_no": "",
    "SMILES": "NC=1C=NC(Cl)=NC1",
    "meta_data": {
        "InChI": "InChI=1S/C4H4ClN3/c5-4-7-1-3(6)2-8-4/h1-2H,6H2",
        "InChIKey": null,
        "Canonical SMILES": "ClC1=NC=C(N)C=N1",
        "Molecular Formula": "C<sub>4</sub>H<sub>4</sub>ClN<sub>3</sub>",
        "Molecular Mass": "129.55",
        "Melting Point": "198-199 °C (decomp)"
    }
}