{
    "cas_no": "193410-84-3",
    "key_name": "Zeylenone",
    "cn_name": null,
    "alternate_name": "2-Cyclohexen-1-one, 4-(benzoyloxy)-6-[(benzoyloxy)methyl]-5,6-dihydroxy-, (4<em>R</em>,5<em>S</em>,6<em>S</em>)-;2-Cyclohexen-1-one, 4-(benzoyloxy)-6-[(benzoyloxy)methyl]-5,6-dihydroxy-, [4<em>R</em>-(4α,5β,6β)]-;(4<em>R</em>,5<em>S</em>,6<em>S</em>)-4-(Benzoyloxy)-6-[(benzoyloxy)methyl]-5,6-dihydroxy-2-cyclohexen-1-one;Zeylenone;Tonkinenin A;(-)-Zeylenone",
    "duplicated_cas_no": "182219-68-7",
    "SMILES": "C(OC(=O)C1=CC=CC=C1)[C@]2(O)[C@@H](O)[C@H](OC(=O)C3=CC=CC=C3)C=CC2=O",
    "meta_data": {
        "InChI": "InChI=1S/C21H18O7/c22-17-12-11-16(28-20(25)15-9-5-2-6-10-15)18(23)21(17,26)13-27-19(24)14-7-3-1-4-8-14/h1-12,16,18,23,26H,13H2/t16-,18+,21-/m1/s1",
        "InChIKey": null,
        "Canonical SMILES": "O=C(OCC1(O)C(=O)C=CC(OC(=O)C=2C=CC=CC2)C1O)C=3C=CC=CC3",
        "Molecular Formula": "C<sub>21</sub>H<sub>18</sub>O<sub>7</sub>",
        "Molecular Mass": "382.36",
        "Melting Point": "150-152 °C"
    }
}