{
    "cas_no": "3565-26-2",
    "key_name": "5-Nitroso-8-hydroxyquinoline",
    "cn_name": "5-亚硝基-8-羟基喹啉;",
    "alternate_name": "8-Quinolinol, 5-nitroso-;5-Nitroso-8-quinolinol;Hydron III;5-Nitroso-8-hydroxyquinoline;5-Nitrosooxine;8-Hydroxy-5-nitrosoquinoline;NSC 3852",
    "duplicated_cas_no": "",
    "SMILES": "N(=O)C=1C2=C(C(O)=CC1)N=CC=C2",
    "meta_data": {
        "InChI": "InChI=1S/C9H6N2O2/c12-8-4-3-7(11-13)6-2-1-5-10-9(6)8/h1-5,12H",
        "InChIKey": null,
        "Canonical SMILES": "O=NC=1C=CC(O)=C2N=CC=CC12",
        "Molecular Formula": "C<sub>9</sub>H<sub>6</sub>N<sub>2</sub>O<sub>2</sub>",
        "Molecular Mass": "174.16",
        "Melting Point": "234-236 °C"
    }
}