{
    "cas_no": "818-59-7",
    "key_name": "Methyl 2-pentenoate",
    "cn_name": "2-戊烯酸甲酯;",
    "alternate_name": "2-Pentenoic acid, methyl ester;Methyl 2-pentenoate",
    "duplicated_cas_no": "",
    "SMILES": "C(C=CCC)(OC)=O",
    "meta_data": {
        "InChI": "InChI=1S/C6H10O2/c1-3-4-5-6(7)8-2/h4-5H,3H2,1-2H3",
        "InChIKey": null,
        "Canonical SMILES": "O=C(OC)C=CCC",
        "Molecular Formula": "C<sub>6</sub>H<sub>10</sub>O<sub>2</sub>",
        "Molecular Mass": "114.14",
        "Boiling Point": "144-145 °C"
    }
}