{
    "cas_no": "104797-47-9",
    "key_name": "<em>S</em>-2-Benzothiazolyl (α<em>Z</em>)-α-[(acetyloxy)imino]-2-amino-4-thiazoleethanethioate",
    "cn_name": null,
    "alternate_name": "4-Thiazoleethanethioic acid, α-[(acetyloxy)imino]-2-amino-, <em>S</em>-2-benzothiazolyl ester, (α<em>Z</em>)-;4-Thiazoleethanethioic acid, α-[(acetyloxy)imino]-2-amino-, <em>S</em>-2-benzothiazolyl ester, (<em>Z</em>)-;<em>S</em>-2-Benzothiazolyl (α<em>Z</em>)-α-[(acetyloxy)imino]-2-amino-4-thiazoleethanethioate;2-Mercaptobenzothiazolyl (<em>Z</em>)-2-(2-amino-4-thiazolyl)-2-acetyloxyiminoacetate",
    "duplicated_cas_no": "",
    "SMILES": "C(\\C(SC1=NC=2C(S1)=CC=CC2)=O)(=N\\OC(C)=O)/C=3N=C(N)SC3",
    "meta_data": {
        "InChI": "InChI=1S/C14H10N4O3S3/c1-7(19)21-18-11(9-6-22-13(15)16-9)12(20)24-14-17-8-4-2-3-5-10(8)23-14/h2-6H,1H3,(H2,15,16)/b18-11-",
        "InChIKey": null,
        "Canonical SMILES": "O=C(SC1=NC=2C=CC=CC2S1)C(=NOC(=O)C)C=3N=C(SC3)N",
        "Molecular Formula": "C<sub>14</sub>H<sub>10</sub>N<sub>4</sub>O<sub>3</sub>S<sub>3</sub>",
        "Molecular Mass": "378.45",
        "Melting Point": "143-145 °C"
    }
}