{
    "cas_no": "506-13-8",
    "key_name": "16-Hydroxyhexadecanoic acid",
    "cn_name": "16-羟基十六酸;",
    "alternate_name": "Hexadecanoic acid, 16-hydroxy-;Juniperic acid;16-Hydroxyhexadecanoic acid;16-Hydroxypalmitic acid;Palmitic acid, 16-hydroxy-;ω-Hydroxypalmitic acid;ω-Hydroxyhexadecanoic acid;NSC 159292;Lanopalmitic acid",
    "duplicated_cas_no": "",
    "SMILES": "C(CCCCCCCCCCO)CCCCC(O)=O",
    "meta_data": {
        "InChI": "InChI=1S/C16H32O3/c17-15-13-11-9-7-5-3-1-2-4-6-8-10-12-14-16(18)19/h17H,1-15H2,(H,18,19)",
        "InChIKey": null,
        "Canonical SMILES": "O=C(O)CCCCCCCCCCCCCCCO",
        "Molecular Formula": "C<sub>16</sub>H<sub>32</sub>O<sub>3</sub>",
        "Molecular Mass": "272.42",
        "Melting Point": "98 °C"
    }
}