{
    "cas_no": "2404-35-5",
    "key_name": "Bromocycloheptane",
    "cn_name": "溴代环庚烷;",
    "alternate_name": "Cycloheptane, bromo-;Bromocycloheptane;Cycloheptyl bromide;NSC 9472",
    "duplicated_cas_no": "",
    "SMILES": "BrC1CCCCCC1",
    "meta_data": {
        "InChI": "InChI=1S/C7H13Br/c8-7-5-3-1-2-4-6-7/h7H,1-6H2",
        "InChIKey": null,
        "Canonical SMILES": "BrC1CCCCCC1",
        "Molecular Formula": "C<sub>7</sub>H<sub>13</sub>Br",
        "Molecular Mass": "177.08",
        "Boiling Point": "62.5 °C @ Press: 6 Torr",
        "Density": "1.2599 g/cm³ @ Temp: 15.7 °C"
    }
}