{
    "cas_no": "759-73-9",
    "key_name": "<em>N</em>-Ethyl-<em>N</em>-nitrosourea",
    "cn_name": "N-亚硝基-N-乙基脲;N-亚硝基-N-乙基脲;",
    "alternate_name": "Urea, <em>N</em>-ethyl-<em>N</em>-nitroso-;Urea, 1-ethyl-1-nitroso-;<em>N</em>-Ethyl-<em>N</em>-nitrosourea;<em>N</em>-Nitroso-<em>N</em>-ethylurea;1-Ethyl-1-nitrosourea;NSC 45403;ENU",
    "duplicated_cas_no": "2151-05-5",
    "SMILES": "N(C(N)=O)(CC)N=O",
    "meta_data": {
        "InChI": "InChI=1S/C3H7N3O2/c1-2-6(5-8)3(4)7/h2H2,1H3,(H2,4,7)",
        "InChIKey": null,
        "Canonical SMILES": "O=NN(C(=O)N)CC",
        "Molecular Formula": "C<sub>3</sub>H<sub>7</sub>N<sub>3</sub>O<sub>2</sub>",
        "Molecular Mass": "117.11",
        "Melting Point": "103-104 °C (decomp)"
    }
}