{
    "cas_no": "22570-53-2",
    "key_name": "Zeorin",
    "cn_name": null,
    "alternate_name": "<em>A</em>′-Neogammacerane-6,22-diol, (6α)-;<em>A</em>′-Neo-21β<span class=\"text-smallcaps\">H</span>-gammacerane-6α,22-diol;Zeorin;1<em>H</em>-Cyclopenta[<em>a</em>]chrysene, <em>A</em>′-neogammacerane-6,22-diol deriv.;(6α)-<em>A</em>′-Neogammacerane-6,22-diol;α-Zeorin;6α,22-Dihydroxyhopane",
    "duplicated_cas_no": "514-05-6",
    "SMILES": "C[C@]12[C@@]([C@]3(C)[C@@]([C@@H](O)C1)(C(C)(C)CCC3)[H])(CC[C@]4([C@@]2(C)CC[C@@]5([C@]4(C)CC[C@@H]5[C@](C)(C)O)[H])[H])[H]",
    "meta_data": {
        "InChI": "InChI=1S/C30H52O2/c1-25(2)14-9-15-28(6)23-11-10-22-27(5)16-12-19(26(3,4)32)20(27)13-17-29(22,7)30(23,8)18-21(31)24(25)28/h19-24,31-32H,9-18H2,1-8H3/t19-,20-,21-,22+,23+,24-,27-,28+,29+,30+/m0/s1",
        "InChIKey": null,
        "Canonical SMILES": "OC1CC2(C)C(CCC3C4(C)CCC(C4CCC32C)C(O)(C)C)C5(C)CCCC(C)(C)C15",
        "Molecular Formula": "C<sub>30</sub>H<sub>52</sub>O<sub>2</sub>",
        "Molecular Mass": "444.73",
        "Melting Point": "253 °C"
    }
}