{
    "cas_no": "3616-58-8",
    "key_name": "1-(2,2-Diethoxyethyl)piperidine",
    "cn_name": "1-哌啶乙醛二乙基缩醛;",
    "alternate_name": "Piperidine, 1-(2,2-diethoxyethyl)-;1-Piperidineacetaldehyde, diethyl acetal;1-(2,2-Diethoxyethyl)piperidine;NSC 66158",
    "duplicated_cas_no": "",
    "SMILES": "C(CN1CCCCC1)(OCC)OCC",
    "meta_data": {
        "InChI": "InChI=1S/C11H23NO2/c1-3-13-11(14-4-2)10-12-8-6-5-7-9-12/h11H,3-10H2,1-2H3",
        "InChIKey": null,
        "Canonical SMILES": "O(CC)C(OCC)CN1CCCCC1",
        "Molecular Formula": "C<sub>11</sub>H<sub>23</sub>NO<sub>2</sub>",
        "Molecular Mass": "201.31",
        "Boiling Point": "82 °C @ Press: 20 Torr"
    }
}