{
    "cas_no": "28230-32-2",
    "key_name": "3,4-Dihydro-3-hydroxy-4-oxo-1,2,3-benzotriazine",
    "cn_name": "HOOBt;3-羟基-1,2,3-苯并三嗪-4(3H)-酮;",
    "alternate_name": "1,2,3-Benzotriazin-4(3<em>H</em>)-one, 3-hydroxy-;3-Hydroxy-1,2,3-benzotriazin-4(3<em>H</em>)-one;3-Hydroxy-4-oxo-3,4-dihydro-1,2,3-benzotriazine;3-Hydroxy-1,2,3-benzotriazin-4-one;3,4-Dihydro-3-hydroxy-4-oxo-1,2,3-benzotriazine;3-Hydroxy-3,4-dihydro-4-oxo-1,2,3-benzotriazine;HODhbt;3-Hydroxy-1,2,3-benzotriazine-4(3<em>H</em>)-one;DhbtOH;NSC 279266;HOOBt;3-Hydroxy-3,4-dihydro-1,2,3-benzotriazin-4-one;4-Dihydro-3-hydroxy-4-oxo-1,2,3-benzotriazine",
    "duplicated_cas_no": "",
    "SMILES": "O=C1C=2C(N=NN1O)=CC=CC2",
    "meta_data": {
        "InChI": "InChI=1S/C7H5N3O2/c11-7-5-3-1-2-4-6(5)8-9-10(7)12/h1-4,12H",
        "InChIKey": null,
        "Canonical SMILES": "O=C1C=2C=CC=CC2N=NN1O",
        "Molecular Formula": "C<sub>7</sub>H<sub>5</sub>N<sub>3</sub>O<sub>2</sub>",
        "Molecular Mass": "163.13",
        "Melting Point": "186-187 °C (decomp)"
    }
}