{
    "cas_no": "4074-88-8",
    "key_name": "Diethylene glycol, diacrylate",
    "cn_name": "二乙二醇双丙烯酸酯;一缩二乙二醇二丙烯酸酯;",
    "alternate_name": "2-Propenoic acid, 1,1′-(oxydi-2,1-ethanediyl) ester;Acrylic acid, oxydiethylene ester;2-Propenoic acid, oxydi-2,1-ethanediyl ester;Diethylene glycol, diacrylate;TGA 2;Oxydiethylene diacrylate;NK Ester A 2G;SR 230;Kayarad DEGDA;2,2′-Oxydiethyl diacrylate;Sartomer SR 230;FA 222A;Fancryl FA 222A;Diethylene glycol diacrylate;Sartomer 230",
    "duplicated_cas_no": "",
    "SMILES": "C(OCCOCCOC(C=C)=O)(C=C)=O",
    "meta_data": {
        "InChI": "InChI=1S/C10H14O5/c1-3-9(11)14-7-5-13-6-8-15-10(12)4-2/h3-4H,1-2,5-8H2",
        "InChIKey": null,
        "Canonical SMILES": "O=C(OCCOCCOC(=O)C=C)C=C",
        "Molecular Formula": "C<sub>10</sub>H<sub>14</sub>O<sub>5</sub>",
        "Molecular Mass": "214.22",
        "Boiling Point": "94 °C @ Press: 0.225 Torr"
    }
}