{
    "cas_no": "19781-72-7",
    "key_name": "11-Heneicosanone",
    "cn_name": "11-二十一酮;二癸酮;Henicosan-11-one;Didecyl ketone;",
    "alternate_name": "11-Heneicosanone;Didecyl ketone;Heneicosene-11-one;NSC 93984",
    "duplicated_cas_no": "",
    "SMILES": "C(C(CCCCCCCCCC)=O)CCCCCCCCC",
    "meta_data": {
        "InChI": "InChI=1S/C21H42O/c1-3-5-7-9-11-13-15-17-19-21(22)20-18-16-14-12-10-8-6-4-2/h3-20H2,1-2H3",
        "InChIKey": null,
        "Canonical SMILES": "O=C(CCCCCCCCCC)CCCCCCCCCC",
        "Molecular Formula": "C<sub>21</sub>H<sub>42</sub>O",
        "Molecular Mass": "310.56",
        "Melting Point": "64.3-64.5 °C"
    }
}