{
    "cas_no": "1158-17-4",
    "key_name": "<em>o</em>-Nitrophenyl β-<span class=\"text-smallcaps\">D</span>-thiogalactoside",
    "cn_name": "2-硝基苯-1-硫代-β-D-吡喃半乳糖苷;",
    "alternate_name": "β-<span class=\"text-smallcaps\">D</span>-Galactopyranoside, 2-nitrophenyl 1-thio-;Galactopyranoside, <em>o</em>-nitrophenyl 1-thio-, β-<span class=\"text-smallcaps\">D</span>-;Galactopyranoside, <em>o</em>-nitrophenyl 1-thio-;2-Nitrophenyl 1-thio-β-<span class=\"text-smallcaps\">D</span>-galactopyranoside;Thio-<em>o</em>-nitrophenyl-β-<span class=\"text-smallcaps\">D</span>-galactopyranoside;<em>o</em>-Nitrophenyl β-<span class=\"text-smallcaps\">D</span>-thiogalactoside;<em>o</em>-Nitrophenyl 1-thio-β-<span class=\"text-smallcaps\">D</span>-galactoside;2-Nitrophenyl-β-<span class=\"text-smallcaps\">D</span>-thiogalactopyranoside",
    "duplicated_cas_no": "55520-15-5",
    "SMILES": "S([C@@H]1O[C@H](CO)[C@H](O)[C@H](O)[C@H]1O)C2=C(N(=O)=O)C=CC=C2",
    "meta_data": {
        "InChI": "InChI=1S/C12H15NO7S/c14-5-7-9(15)10(16)11(17)12(20-7)21-8-4-2-1-3-6(8)13(18)19/h1-4,7,9-12,14-17H,5H2/t7-,9+,10+,11-,12+/m1/s1",
        "InChIKey": null,
        "Canonical SMILES": "O=N(=O)C=1C=CC=CC1SC2OC(CO)C(O)C(O)C2O",
        "Molecular Formula": "C<sub>12</sub>H<sub>15</sub>NO<sub>7</sub>S",
        "Molecular Mass": "317.32",
        "Melting Point": "196 °C"
    }
}