{
    "cas_no": "144-29-6",
    "key_name": "Piperazine citrate",
    "cn_name": "枸橼酸哌嗪;",
    "alternate_name": "Piperazine, 2-hydroxy-1,2,3-propanetricarboxylate (3:2);Piperazine, citrate (3:2);Piperazine citrate;Antepar;Anthecole;Antoban;Arpezine;Ascarex Syrup;Exelmin;Helmezine;Multifuge Citrate;Oxucide;Parazine;Pin-Tega;Piperazine Citrate Telra;Pipizan;Pipizan Citrate Syrup;Rhomex;Ta-Verm;Vermago;Piperasol;Tripiperazine dicitrate;Multifuge;Nemadital;Pinozan;Exopin;Bryrel;Tasnon;Vermizine (elixir);Coliurinal;Pipizan citrate;Worm Away;Patazine;Citraazine",
    "duplicated_cas_no": "113484-97-2",
    "SMILES": "C1CNCCN1.C(CC(O)=O)(CC(O)=O)(C(O)=O)O",
    "meta_data": {
        "InChI": "InChI=1S/C6H8O7.C4H10N2/c7-3(8)1-6(13,5(11)12)2-4(9)10;1-2-6-4-3-5-1/h13H,1-2H2,(H,7,8)(H,9,10)(H,11,12);5-6H,1-4H2",
        "InChIKey": null,
        "Canonical SMILES": "O=C(O)CC(O)(C(=O)O)CC(=O)O.N1CCNCC1",
        "Molecular Formula": "C<sub>6</sub>H<sub>8</sub>O<sub>7</sub>.<sup>3</sup>/<sub>2</sub>C<sub>4</sub>H<sub>10</sub>N<sub>2</sub>",
        "Molecular Mass": "",
        "Melting Point": "182-187 °C (decomp)"
    }
}