{
    "cas_no": "138529-46-1",
    "key_name": "(+)-Biotinyl-3,6-dioxaoctanediamine",
    "cn_name": null,
    "alternate_name": "1<em>H</em>-Thieno[3,4-<em>d</em>]imidazole-4-pentanamide, <em>N</em>-[2-[2-(2-aminoethoxy)ethoxy]ethyl]hexahydro-2-oxo-, (3a<em>S</em>,4<em>S</em>,6a<em>R</em>)-;1<em>H</em>-Thieno[3,4-<em>d</em>]imidazole-4-pentanamide, <em>N</em>-[2-[2-(2-aminoethoxy)ethoxy]ethyl]hexahydro-2-oxo-, [3a<em>S</em>-(3aα,4β,6aα)]-;(3a<em>S</em>,4<em>S</em>,6a<em>R</em>)-<em>N</em>-[2-[2-(2-Aminoethoxy)ethoxy]ethyl]hexahydro-2-oxo-1<em>H</em>-thieno[3,4-<em>d</em>]imidazole-4-pentanamide;Biotinyl-3,6-dioxaoctanediamine;Biotin-DADOO;EZ-Link Amine-PEO<sub>2</sub>-Biotin;(+)-Biotinyl-3,6-dioxaoctanediamine",
    "duplicated_cas_no": "141110-93-2;496052-62-1;916852-21-6;1263044-35-4;1313887-03-4;2180310-00-1;2232228-05-4;2398550-81-5;2500513-22-2;2588541-31-3;2649110-70-1",
    "SMILES": "C(CCCC(NCCOCCOCCN)=O)[C@H]1[C@@]2([C@](CS1)(NC(=O)N2)[H])[H]",
    "meta_data": {
        "InChI": "InChI=1S/C16H30N4O4S/c17-5-7-23-9-10-24-8-6-18-14(21)4-2-1-3-13-15-12(11-25-13)19-16(22)20-15/h12-13,15H,1-11,17H2,(H,18,21)(H2,19,20,22)/t12-,13-,15-/m0/s1",
        "InChIKey": null,
        "Canonical SMILES": "O=C1NC2CSC(CCCCC(=O)NCCOCCOCCN)C2N1",
        "Molecular Formula": "C<sub>16</sub>H<sub>30</sub>N<sub>4</sub>O<sub>4</sub>S",
        "Molecular Mass": "374.50",
        "Melting Point": "109-110 °C"
    }
}