{
    "cas_no": "112-14-1",
    "key_name": "Octyl acetate",
    "cn_name": "醋酸辛酯;乙酸辛酯;",
    "alternate_name": "Acetic acid, octyl ester;Octyl alcohol acetate;Caprylyl acetate;Octyl acetate;<em>n</em>-Octyl acetate;1-Octyl acetate;1-Acetoxyoctane;1-Octanol acetate;NSC 67348;Acetic acid octanyl ester;Octyl ethanoate;Octanyl acetate",
    "duplicated_cas_no": "",
    "SMILES": "C(CCCCCC)COC(C)=O",
    "meta_data": {
        "InChI": "InChI=1S/C10H20O2/c1-3-4-5-6-7-8-9-12-10(2)11/h3-9H2,1-2H3",
        "InChIKey": null,
        "Canonical SMILES": "O=C(OCCCCCCCC)C",
        "Molecular Formula": "C<sub>10</sub>H<sub>20</sub>O<sub>2</sub>",
        "Molecular Mass": "172.26",
        "Boiling Point": "210 °C",
        "Melting Point": "-38.5 °C"
    }
}