{
    "cas_no": "120-25-2",
    "key_name": "4-Ethoxy-3-methoxybenzaldehyde",
    "cn_name": "4-乙氧基-3-甲氧基苯甲醛;",
    "alternate_name": "Benzaldehyde, 4-ethoxy-3-methoxy-;4-Ethoxy-3-methoxybenzaldehyde;4-Ethoxy-<em>m</em>-anisaldehyde;3-Methoxy-4-ethoxybenzaldehyde;Vanillin ethyl ether;NSC 16945;NSC 62097",
    "duplicated_cas_no": "",
    "SMILES": "O(CC)C1=C(OC)C=C(C=O)C=C1",
    "meta_data": {
        "InChI": "InChI=1S/C10H12O3/c1-3-13-9-5-4-8(7-11)6-10(9)12-2/h4-7H,3H2,1-2H3",
        "InChIKey": null,
        "Canonical SMILES": "O=CC1=CC=C(OCC)C(OC)=C1",
        "Molecular Formula": "C<sub>10</sub>H<sub>12</sub>O<sub>3</sub>",
        "Molecular Mass": "180.20",
        "Melting Point": "64.5 °C"
    }
}