{
    "cas_no": "16867-04-2",
    "key_name": "2,3-Dihydroxypyridine",
    "cn_name": "2,3-二羟基吡啶;",
    "alternate_name": "2(1<em>H</em>)-Pyridinone, 3-hydroxy-;2,3-Pyridinediol;2(1<em>H</em>)-Pyridone, 3-hydroxy-;3-Hydroxy-2(1<em>H</em>)-pyridinone;2,3-Dihydroxypyridine;3-Hydroxy-2-pyridone;3-Hydroxy-1<em>H</em>-pyridin-2-one;3-Hydroxy-2-pyridinone;NSC 49272;3-Hydroxy-1,2-dihydropyridin-2-one;3,2-HOPO",
    "duplicated_cas_no": "119764-03-3;13466-42-7",
    "SMILES": "OC=1C(=O)NC=CC1",
    "meta_data": {
        "InChI": "InChI=1S/C5H5NO2/c7-4-2-1-3-6-5(4)8/h1-3,7H,(H,6,8)",
        "InChIKey": null,
        "Canonical SMILES": "O=C1NC=CC=C1O",
        "Molecular Formula": "C<sub>5</sub>H<sub>5</sub>NO<sub>2</sub>",
        "Molecular Mass": "111.10",
        "Melting Point": "248 °C"
    }
}