{
    "cas_no": "198481-33-3",
    "key_name": "Bazedoxifene acetate",
    "cn_name": null,
    "alternate_name": "1<em>H</em>-Indol-5-ol, 1-[[4-[2-(hexahydro-1<em>H</em>-azepin-1-yl)ethoxy]phenyl]methyl]-2-(4-hydroxyphenyl)-3-methyl-, acetate (1:1);1<em>H</em>-Indol-5-ol, 1-[[4-[2-(hexahydro-1<em>H</em>-azepin-1-yl)ethoxy]phenyl]methyl]-2-(4-hydroxyphenyl)-3-methyl-, monoacetate (salt);TSE 424;Bazedoxifene acetate;WAY-TES 424;Viviant",
    "duplicated_cas_no": "252555-09-2",
    "SMILES": "C(N1C(=C(C)C=2C1=CC=C(O)C2)C3=CC=C(O)C=C3)C4=CC=C(OCCN5CCCCCC5)C=C4.C(C)(O)=O",
    "meta_data": {
        "InChI": "InChI=1S/C30H34N2O3.C2H4O2/c1-22-28-20-26(34)12-15-29(28)32(30(22)24-8-10-25(33)11-9-24)21-23-6-13-27(14-7-23)35-19-18-31-16-4-2-3-5-17-31;1-2(3)4/h6-15,20,33-34H,2-5,16-19,21H2,1H3;1H3,(H,3,4)",
        "InChIKey": null,
        "Canonical SMILES": "O=C(O)C.OC=1C=CC(=CC1)C2=C(C3=CC(O)=CC=C3N2CC4=CC=C(OCCN5CCCCCC5)C=C4)C",
        "Molecular Formula": "C<sub>30</sub>H<sub>34</sub>N<sub>2</sub>O<sub>3</sub>.C<sub>2</sub>H<sub>4</sub>O<sub>2</sub>",
        "Molecular Mass": "",
        "Melting Point": "170.5-172.5 °C"
    }
}