{
    "cas_no": "300-39-0",
    "key_name": "3′,5′-Diiodo-<span class=\"text-smallcaps\">L</span>-tyrosine",
    "cn_name": "3,5-二碘-L-酪氨酸;",
    "alternate_name": "<span class=\"text-smallcaps\">L</span>-Tyrosine, 3,5-diiodo-;Tyrosine, 3,5-diiodo-, <span class=\"text-smallcaps\">L</span>-;3,5-Diiodo-<span class=\"text-smallcaps\">L</span>-tyrosine;<span class=\"text-smallcaps\">L</span>-3,5-Diiodotyrosine;DIT;DIT (amino acid);3′,5′-Diiodo-<span class=\"text-smallcaps\">L</span>-tyrosine;NSC 4143;Bijodtyrosin;(2S)-2-Amino-3-(4-hydroxy-3,5-diiodophenyl)propanoic acid",
    "duplicated_cas_no": "",
    "SMILES": "C([C@@H](C(O)=O)N)C1=CC(I)=C(O)C(I)=C1",
    "meta_data": {
        "InChI": "InChI=1S/C9H9I2NO3/c10-5-1-4(2-6(11)8(5)13)3-7(12)9(14)15/h1-2,7,13H,3,12H2,(H,14,15)/t7-/m0/s1",
        "InChIKey": null,
        "Canonical SMILES": "O=C(O)C(N)CC1=CC(I)=C(O)C(I)=C1",
        "Molecular Formula": "C<sub>9</sub>H<sub>9</sub>I<sub>2</sub>NO<sub>3</sub>",
        "Molecular Mass": "432.98",
        "Melting Point": "188 °C"
    }
}