{
    "cas_no": "6314-97-2",
    "key_name": "Phenylacetaldehyde diethyl acetal",
    "cn_name": null,
    "alternate_name": "Benzene, (2,2-diethoxyethyl)-;Acetaldehyde, phenyl-, diethyl acetal;(2,2-Diethoxyethyl)benzene;Benzeneacetaldehyde, diethyl acetal;Phenylacetaldehyde diethyl acetal;1,1-Diethoxy-2-phenylethane;Phenylethanal diethyl acetal;NSC 20031",
    "duplicated_cas_no": "",
    "SMILES": "C(CC1=CC=CC=C1)(OCC)OCC",
    "meta_data": {
        "InChI": "InChI=1S/C12H18O2/c1-3-13-12(14-4-2)10-11-8-6-5-7-9-11/h5-9,12H,3-4,10H2,1-2H3",
        "InChIKey": null,
        "Canonical SMILES": "O(CC)C(OCC)CC=1C=CC=CC1",
        "Molecular Formula": "C<sub>12</sub>H<sub>18</sub>O<sub>2</sub>",
        "Molecular Mass": "194.27",
        "Boiling Point": "118.5 °C @ Press: 15 Torr"
    }
}