{
    "cas_no": "3542-72-1",
    "key_name": "Norathyriol",
    "cn_name": null,
    "alternate_name": "9<em>H</em>-Xanthen-9-one, 1,3,6,7-tetrahydroxy-;Xanthen-9-one, 1,3,6,7-tetrahydroxy-;1,3,6,7-Tetrahydroxy-9<em>H</em>-xanthen-9-one;Mangiferitin;1,3,6,7-Tetrahydroxyxanthone;1,3,6,7-Tetrahydroxyxanthen-9-one;Norathyriol;1,4,6,7-Tetrahydroxyxanthone)",
    "duplicated_cas_no": "58383-15-6",
    "SMILES": "O=C1C=2C(OC=3C1=CC(O)=C(O)C3)=CC(O)=CC2O",
    "meta_data": {
        "InChI": "InChI=1S/C13H8O6/c14-5-1-9(17)12-11(2-5)19-10-4-8(16)7(15)3-6(10)13(12)18/h1-4,14-17H",
        "InChIKey": null,
        "Canonical SMILES": "O=C1C2=CC(O)=C(O)C=C2OC=3C=C(O)C=C(O)C13",
        "Molecular Formula": "C<sub>13</sub>H<sub>8</sub>O<sub>6</sub>",
        "Molecular Mass": "260.20",
        "Melting Point": "320 °C"
    }
}