{
    "cas_no": "2497-38-3",
    "key_name": "4-[(4-Hydroxyphenyl)azo]benzoic acid",
    "cn_name": null,
    "alternate_name": "Benzoic acid, 4-[2-(4-hydroxyphenyl)diazenyl]-;Benzoic acid, <em>p</em>-[(<em>p</em>-hydroxyphenyl)azo]-;Benzoic acid, 4-[(4-hydroxyphenyl)azo]-;4-[2-(4-Hydroxyphenyl)diazenyl]benzoic acid;<em>p</em>-(<em>p</em>-Hydroxyphenylazo)benzoic acid;4′-Hydroxy-4-azobenzenecarboxylic acid;4-Carboxy-4′-hydroxyazobenzene;<em>p</em>-Hydroxyazobenzene-<em>p</em>′-carboxylic acid;4-(<em>p</em>-Hydroxyphenylazo)benzoic Acid;4-(4′-Carboxyphenylazo)phenol;4-[(4-Hydroxyphenyl)azo]benzoic acid",
    "duplicated_cas_no": "",
    "SMILES": "N(=NC1=CC=C(O)C=C1)C2=CC=C(C(O)=O)C=C2",
    "meta_data": {
        "InChI": "InChI=1S/C13H10N2O3/c16-12-7-5-11(6-8-12)15-14-10-3-1-9(2-4-10)13(17)18/h1-8,16H,(H,17,18)",
        "InChIKey": null,
        "Canonical SMILES": "O=C(O)C1=CC=C(N=NC2=CC=C(O)C=C2)C=C1",
        "Molecular Formula": "C<sub>13</sub>H<sub>10</sub>N<sub>2</sub>O<sub>3</sub>",
        "Molecular Mass": "242.23",
        "Melting Point": "266 °C (decomp)"
    }
}