{
    "cas_no": "3120-74-9",
    "key_name": "3-Methyl-4-(methylthio)phenol",
    "cn_name": "3-甲基-4-甲硫基苯酚;对甲硫基间甲苯酚;",
    "alternate_name": "Phenol, 3-methyl-4-(methylthio)-;<em>m</em>-Cresol, 4-(methylthio)-;3-Methyl-4-(methylthio)phenol;MMTP;4-(Methylthio)-<em>m</em>-cresol;4-(Methylthio)-3-methylphenol;4-Hydroxy-2-methylthioanisole;NSC 87560;4-Methylsulfanyl-3-methylphenol;3-Methyl-4-methylsulfanylphenol",
    "duplicated_cas_no": "",
    "SMILES": "S(C)C1=C(C)C=C(O)C=C1",
    "meta_data": {
        "InChI": "InChI=1S/C8H10OS/c1-6-5-7(9)3-4-8(6)10-2/h3-5,9H,1-2H3",
        "InChIKey": null,
        "Canonical SMILES": "OC1=CC=C(SC)C(=C1)C",
        "Molecular Formula": "C<sub>8</sub>H<sub>10</sub>OS",
        "Molecular Mass": "154.23",
        "Boiling Point": "148-151 °C @ Press: 15 Torr",
        "Melting Point": "57 °C"
    }
}