{
    "cas_no": "2699-79-8",
    "key_name": "Sulfonyl fluoride",
    "cn_name": null,
    "alternate_name": "Sulfuryl fluoride;Sulfuric oxyfluoride;Vikane;Sulfur fluoride oxide (SO<sub>2</sub>F<sub>2</sub>);Sulfonyl fluoride;Sulfur dioxide difluoride;Sulfur difluoride dioxide;Sulfur oxide fluoride (SF<sub>2</sub>O<sub>2</sub>);Sulfur oxyfluoride (SO<sub>2</sub>F<sub>2</sub>);Sulfur fluoride oxide (SF<sub>2</sub>O<sub>2</sub>);Vikane Gas Fumigant;Sulfonyl difluoride;Sulfuryl difluoride;ProFume",
    "duplicated_cas_no": "",
    "SMILES": "S(F)(F)(=O)=O",
    "meta_data": {
        "InChI": "InChI=1S/F2O2S/c1-5(2,3)4",
        "InChIKey": null,
        "Canonical SMILES": "O=S(=O)(F)F",
        "Molecular Formula": "F<sub>2</sub>O<sub>2</sub>S",
        "Molecular Mass": "102.06",
        "Boiling Point": "-55.38 °C",
        "Melting Point": "-135.82 °C",
        "Density": "3.72 x 10<sup>-3</sup> g/cm³"
    }
}