{
    "cas_no": "5500-21-0",
    "key_name": "Cyclopropanecarbonitrile",
    "cn_name": "环丙基腈;",
    "alternate_name": "Cyclopropanecarbonitrile;Cyclopropanenitrile;Cyclopropylnitrile;Cyanocyclopropane;Cyclopropyl cyanide;Cyclopropylcarbonitrile;NSC 60191",
    "duplicated_cas_no": "1800084-86-9",
    "SMILES": "C(#N)C1CC1",
    "meta_data": {
        "InChI": "InChI=1S/C4H5N/c5-3-4-1-2-4/h4H,1-2H2",
        "InChIKey": null,
        "Canonical SMILES": "N#CC1CC1",
        "Molecular Formula": "C<sub>4</sub>H<sub>5</sub>N",
        "Molecular Mass": "67.09",
        "Boiling Point": "135.1 °C",
        "Density": "0.89401 g/cm³ @ Temp: 20 °C"
    }
}