{
    "cas_no": "602-64-2",
    "key_name": "Anthragallol",
    "cn_name": "蒽棕,水溶;媒染棕18;酸棕;蒽棕,水溶;1,2,3-三羟蒽醌;三羟基蒽醌;蒽五倍子酚;",
    "alternate_name": "9,10-Anthracenedione, 1,2,3-trihydroxy-;Anthraquinone, 1,2,3-trihydroxy-;Anthragallol;1,2,3-Trihydroxy-9,10-anthracenedione;C.I. 58200;Alizarine Brown R;Alizarine Brown HD;Anthracene Brown G;Anthracene Brown N;Anthracene Brown S;Anthracene Brown FD;Anthracene Brown FF;Anthracene Brown WH;Anthracene Brown WL;Anthracene Printing Brown;Antracromo Brown D;Chrome Fast Brown FC;C.I. Mordant Brown 42;Mitsui Anthracene Brown;1,2,3-Trihydroxyanthraquinone;Antragallol;NSC 31754;1,2,3-Trihydroxy-9,10-anthraquinone;1,2,3-Trihydroxy-9,10-dihydroanthracene-9,10-dione;9,10-Anthraquinone-1,2,3-triol",
    "duplicated_cas_no": "",
    "SMILES": "O=C1C=2C(C(=O)C=3C1=CC=CC3)=CC(O)=C(O)C2O",
    "meta_data": {
        "InChI": "InChI=1S/C14H8O5/c15-9-5-8-10(14(19)13(9)18)12(17)7-4-2-1-3-6(7)11(8)16/h1-5,15,18-19H",
        "InChIKey": null,
        "Canonical SMILES": "O=C1C=2C=CC=CC2C(=O)C3=C(O)C(O)=C(O)C=C13",
        "Molecular Formula": "C<sub>14</sub>H<sub>8</sub>O<sub>5</sub>",
        "Molecular Mass": "256.21",
        "Melting Point": "313 °C"
    }
}