{
    "cas_no": "52602-39-8",
    "key_name": "4-Hydroxycarbazole",
    "cn_name": "4-羟基咔唑;",
    "alternate_name": "9<em>H</em>-Carbazol-4-ol;4-Carbazolol;4-Hydroxycarbazole;SKF 106023;4-Hydroxy-9<em>H</em>-carbazole",
    "duplicated_cas_no": "",
    "SMILES": "OC1=C2C=3C(NC2=CC=C1)=CC=CC3",
    "meta_data": {
        "InChI": "InChI=1S/C12H9NO/c14-11-7-3-6-10-12(11)8-4-1-2-5-9(8)13-10/h1-7,13-14H",
        "InChIKey": null,
        "Canonical SMILES": "OC1=CC=CC=2NC=3C=CC=CC3C12",
        "Molecular Formula": "C<sub>12</sub>H<sub>9</sub>NO",
        "Molecular Mass": "183.21",
        "Melting Point": "169-170 °C"
    }
}