{
    "cas_no": "506-17-2",
    "key_name": "<em>cis</em>-Vaccenic acid",
    "cn_name": "顺式-十八碳烯酸;",
    "alternate_name": "11-Octadecenoic acid, (11<em>Z</em>)-;11-Octadecenoic acid, (<em>Z</em>)-;11-Octadecenoic acid, <em>cis</em>-;(11<em>Z</em>)-11-Octadecenoic acid;<em>cis</em>-Δ<sup>11</sup>-Octadecenoic acid;<em>cis</em>-Vaccenic acid;<em>cis</em>-11-Octadecenoic acid;(<em>Z</em>)-11-Octadecenoic acid;Δ<sup>11</sup>-<em>cis</em>-Octadecenoic acid;11-<em>cis</em>-Vaccenic acid;11-<em>cis</em>-Octadecenoic acid;Asclepic acid;cis-Vaccenic acid;<em>cis</em>-11-Vaccenic acid;(<em>Z</em>)-Octadec-11-enoic acid;C18:1",
    "duplicated_cas_no": "",
    "SMILES": "C(CCC/C=C\\CCCCCC)CCCCCC(O)=O",
    "meta_data": {
        "InChI": "InChI=1S/C18H34O2/c1-2-3-4-5-6-7-8-9-10-11-12-13-14-15-16-17-18(19)20/h7-8H,2-6,9-17H2,1H3,(H,19,20)/b8-7-",
        "InChIKey": null,
        "Canonical SMILES": "O=C(O)CCCCCCCCCC=CCCCCCC",
        "Molecular Formula": "C<sub>18</sub>H<sub>34</sub>O<sub>2</sub>",
        "Molecular Mass": "282.46",
        "Melting Point": "10.5-12 °C"
    }
}