{
    "cas_no": "6497-78-5",
    "key_name": "4-[2-(4-Nitro-1<em>H</em>-imidazol-1-yl)ethyl]morpholine",
    "cn_name": null,
    "alternate_name": "Morpholine, 4-[2-(4-nitro-1<em>H</em>-imidazol-1-yl)ethyl]-;Morpholine, 4-[2-(4-nitroimidazol-1-yl)ethyl]-;4-[2-(4-Nitro-1<em>H</em>-imidazol-1-yl)ethyl]morpholine;RGW 611",
    "duplicated_cas_no": "",
    "SMILES": "C(CN1CCOCC1)N2C=C(N(=O)=O)N=C2",
    "meta_data": {
        "InChI": "InChI=1S/C9H14N4O3/c14-13(15)9-7-12(8-10-9)2-1-11-3-5-16-6-4-11/h7-8H,1-6H2",
        "InChIKey": null,
        "Canonical SMILES": "O=N(=O)C=1N=CN(C1)CCN2CCOCC2",
        "Molecular Formula": "C<sub>9</sub>H<sub>14</sub>N<sub>4</sub>O<sub>3</sub>",
        "Molecular Mass": "226.23",
        "Melting Point": "104-106 °C"
    }
}