{
    "cas_no": "36263-51-1",
    "key_name": "1-(4-Methoxyphenyl)cyclohexanecarbonitrile",
    "cn_name": "1-(4-甲氧基苯基)-1-环己烷甲腈;",
    "alternate_name": "Cyclohexanecarbonitrile, 1-(4-methoxyphenyl)-;1-(4-Methoxyphenyl)cyclohexanecarbonitrile;NSC 155171;1-(4-Methoxyphenyl)-1-cyclohexanecarbonitrile",
    "duplicated_cas_no": "",
    "SMILES": "C(#N)C1(CCCCC1)C2=CC=C(OC)C=C2",
    "meta_data": {
        "InChI": "InChI=1S/C14H17NO/c1-16-13-7-5-12(6-8-13)14(11-15)9-3-2-4-10-14/h5-8H,2-4,9-10H2,1H3",
        "InChIKey": null,
        "Canonical SMILES": "N#CC1(C2=CC=C(OC)C=C2)CCCCC1",
        "Molecular Formula": "C<sub>14</sub>H<sub>17</sub>NO",
        "Molecular Mass": "215.29",
        "Melting Point": "46.8 °C"
    }
}