{
    "cas_no": "74191-85-8",
    "key_name": "Doxazosin",
    "cn_name": "多沙唑嗪;1-(4-氨基-6,7-二甲氧基-2-喹唑啉基)-4-[(2,3-二氢-1,4-苯并二噁烷-2-基)羰基]哌嗪;",
    "alternate_name": "Methanone, [4-(4-amino-6,7-dimethoxy-2-quinazolinyl)-1-piperazinyl](2,3-dihydro-1,4-benzodioxin-2-yl)-;Piperazine, 1-(4-amino-6,7-dimethoxy-2-quinazolinyl)-4-[(2,3-dihydro-1,4-benzodioxin-2-yl)carbonyl]-;1,4-Benzodioxin, piperazine deriv.;[4-(4-Amino-6,7-dimethoxy-2-quinazolinyl)-1-piperazinyl](2,3-dihydro-1,4-benzodioxin-2-yl)methanone;UK 33274;Doxazosin;(±)-Doxazosin;Doxazosine;Doxuran;1-(4-Amino-6,7-dimethoxy-2-quinazolinyl)-4-[(2,3-dihydro-1,4-benzodioxin-2-yl)carbonyl]piperazine;[4-(4-Amino-6,7-dimethoxyquinazolin-2-yl)piperazin-1-yl]-(2,3-dihydro-1,4-benzodioxin-3-yl)methanone;2-[4-(2,3-Dihydro-1,4-benzodioxine-2-carbonyl)piperazin-1-yl]-6,7-dimethoxyquinazolin-4-amine;MeSH ID: D017292",
    "duplicated_cas_no": "137888-77-8",
    "SMILES": "NC=1C2=C(N=C(N1)N3CCN(C(=O)C4OC=5C(OC4)=CC=CC5)CC3)C=C(OC)C(OC)=C2",
    "meta_data": {
        "InChI": "InChI=1S/C23H25N5O5/c1-30-18-11-14-15(12-19(18)31-2)25-23(26-21(14)24)28-9-7-27(8-10-28)22(29)20-13-32-16-5-3-4-6-17(16)33-20/h3-6,11-12,20H,7-10,13H2,1-2H3,(H2,24,25,26)",
        "InChIKey": null,
        "Canonical SMILES": "O=C(N1CCN(C=2N=C(N)C=3C=C(OC)C(OC)=CC3N2)CC1)C4OC=5C=CC=CC5OC4",
        "Molecular Formula": "C<sub>23</sub>H<sub>25</sub>N<sub>5</sub>O<sub>5</sub>",
        "Molecular Mass": "451.48",
        "Melting Point": "249-251 °C"
    }
}