{
    "cas_no": "13110-37-7",
    "key_name": "Pentyl 4-aminobenzoate",
    "cn_name": null,
    "alternate_name": "Benzoic acid, 4-amino-, pentyl ester;Benzoic acid, <em>p</em>-amino-, pentyl ester;Pentyl 4-aminobenzoate;Pentyl <em>p</em>-aminobenzoate;4-Aminobenzoic acid amyl ester;Sun Block Gel;Sun Screen Gel;Weatherproofer;<em>n</em>-Pentyl <em>p</em>-aminobenzoate;Amyl <em>p</em>-aminobenzoate;NSC 69110",
    "duplicated_cas_no": "",
    "SMILES": "C(OCCCCC)(=O)C1=CC=C(N)C=C1",
    "meta_data": {
        "InChI": "InChI=1S/C12H17NO2/c1-2-3-4-9-15-12(14)10-5-7-11(13)8-6-10/h5-8H,2-4,9,13H2,1H3",
        "InChIKey": null,
        "Canonical SMILES": "O=C(OCCCCC)C1=CC=C(N)C=C1",
        "Molecular Formula": "C<sub>12</sub>H<sub>17</sub>NO<sub>2</sub>",
        "Molecular Mass": "207.27",
        "Melting Point": "52 °C"
    }
}