{
    "cas_no": "16491-54-6",
    "key_name": "1-Octen-3-yl butyrate",
    "cn_name": null,
    "alternate_name": "Butanoic acid, 1-ethenylhexyl ester;Butyric acid, 1-pentylallyl ester;1-Octen-3-ol, butyrate;1-Pentylallyl butyrate;1-Octen-3-yl butyrate",
    "duplicated_cas_no": "",
    "SMILES": "C(OC(CCC)=O)(CCCCC)C=C",
    "meta_data": {
        "InChI": "InChI=1S/C12H22O2/c1-4-7-8-10-11(6-3)14-12(13)9-5-2/h6,11H,3-5,7-10H2,1-2H3",
        "InChIKey": null,
        "Canonical SMILES": "O=C(OC(C=C)CCCCC)CCC",
        "Molecular Formula": "C<sub>12</sub>H<sub>22</sub>O<sub>2</sub>",
        "Molecular Mass": "198.30",
        "Boiling Point": "111 °C @ Press: 20 Torr"
    }
}