{
    "cas_no": "79422-73-4",
    "key_name": "α-Amino-3-bromobenzeneacetic acid",
    "cn_name": null,
    "alternate_name": "Benzeneacetic acid, α-amino-3-bromo-;α-Amino-3-bromobenzeneacetic acid;(Amino)(3-bromophenyl)acetic acid",
    "duplicated_cas_no": "",
    "SMILES": "C(C(O)=O)(N)C1=CC(Br)=CC=C1",
    "meta_data": {
        "InChI": "InChI=1S/C8H8BrNO2/c9-6-3-1-2-5(4-6)7(10)8(11)12/h1-4,7H,10H2,(H,11,12)",
        "InChIKey": null,
        "Canonical SMILES": "O=C(O)C(N)C=1C=CC=C(Br)C1",
        "Molecular Formula": "C<sub>8</sub>H<sub>8</sub>BrNO<sub>2</sub>",
        "Molecular Mass": "230.06",
        "Melting Point": "231-232 °C"
    }
}