{
    "cas_no": "1125-12-8",
    "key_name": "3-Thujanone",
    "cn_name": "崖柏酮;",
    "alternate_name": "Bicyclo[3.1.0]hexan-3-one, 4-methyl-1-(1-methylethyl)-;3-Thujanone;4-Methyl-1-(1-methylethyl)bicyclo[3.1.0]hexan-3-one;Chrysanthone;Tanacetone;1-Isopropyl-4-methylbicyclo[3.1.0]hexan-3-one;NSC 407281",
    "duplicated_cas_no": "",
    "SMILES": "C(C)(C)C12C(C1)C(C)C(=O)C2",
    "meta_data": {
        "InChI": "InChI=1S/C10H16O/c1-6(2)10-4-8(10)7(3)9(11)5-10/h6-8H,4-5H2,1-3H3",
        "InChIKey": null,
        "Canonical SMILES": "O=C1CC2(CC2C1C)C(C)C",
        "Molecular Formula": "C<sub>10</sub>H<sub>16</sub>O",
        "Molecular Mass": "152.23",
        "Boiling Point": "203-205 °C",
        "Density": "0.907 g/cm³ @ Temp: 20 °C"
    }
}