{
    "cas_no": "148-87-8",
    "key_name": "3-(Ethylphenylamino)propanenitrile",
    "cn_name": "N-乙基-N-氰乙基苯胺;",
    "alternate_name": "Propanenitrile, 3-(ethylphenylamino)-;Propionitrile, 3-(<em>N</em>-ethylanilino)-;3-(Ethylphenylamino)propanenitrile;3-(<em>N</em>-Ethylanilino)propionitrile;<em>N</em>-Ethyl-<em>N</em>-(β-cyanoethyl)aniline;<em>N</em>-β-Cyanoethyl-<em>N</em>-ethylaniline;<em>N</em>-Ethyl-<em>N</em>-(2-cyanoethyl)aniline;<em>N</em>-β-Cyanoethyl-<em>N</em>-ethylaminobenzene;<em>N</em>-(2-Cyanoethyl)-<em>N</em>-ethylaniline;3-(Ethylphenylamino)propionitrile;NSC 81243;3-[Ethyl(phenyl)amino]propanenitrile",
    "duplicated_cas_no": "",
    "SMILES": "N(CCC#N)(CC)C1=CC=CC=C1",
    "meta_data": {
        "InChI": "InChI=1S/C11H14N2/c1-2-13(10-6-9-12)11-7-4-3-5-8-11/h3-5,7-8H,2,6,10H2,1H3",
        "InChIKey": null,
        "Canonical SMILES": "N#CCCN(C=1C=CC=CC1)CC",
        "Molecular Formula": "C<sub>11</sub>H<sub>14</sub>N<sub>2</sub>",
        "Molecular Mass": "174.24",
        "Boiling Point": "175-177 °C @ Press: 17 Torr",
        "Density": "1.0260 g/cm³ @ Temp: 20 °C"
    }
}