{
    "cas_no": "19718-92-4",
    "key_name": "4,4-Dimethoxy-<em>N</em>,<em>N</em>-dimethyl-1-butanamine",
    "cn_name": "4-二甲胺基丁醛缩二甲醇;",
    "alternate_name": "1-Butanamine, 4,4-dimethoxy-<em>N</em>,<em>N</em>-dimethyl-;Butyraldehyde, 4-(dimethylamino)-, dimethyl acetal;Butylamine, 4,4-dimethoxy-<em>N</em>,<em>N</em>-dimethyl-;4,4-Dimethoxy-<em>N</em>,<em>N</em>-dimethyl-1-butanamine;4-(Dimethylamino)butyraldehyde dimethyl acetal;4,4-Dimethoxy-<em>N</em>,<em>N</em>-dimethylbutanamine;4-(Dimethylamino)butanal dimethyl acetal;(4,4-Dimethoxy-butyl)-dimethyl-amine",
    "duplicated_cas_no": "",
    "SMILES": "C(CCCN(C)C)(OC)OC",
    "meta_data": {
        "InChI": "InChI=1S/C8H19NO2/c1-9(2)7-5-6-8(10-3)11-4/h8H,5-7H2,1-4H3",
        "InChIKey": null,
        "Canonical SMILES": "O(C)C(OC)CCCN(C)C",
        "Molecular Formula": "C<sub>8</sub>H<sub>19</sub>NO<sub>2</sub>",
        "Molecular Mass": "161.24",
        "Boiling Point": "53.5 °C @ Press: 5 Torr"
    }
}