{
    "cas_no": "2050-92-2",
    "key_name": "Dipentylamine",
    "cn_name": "二戊胺;",
    "alternate_name": "1-Pentanamine, <em>N</em>-pentyl-;Dipentylamine;<em>N</em>-Pentyl-1-pentanamine;Diamylamine;Di-<em>n</em>-amylamine;Di-<em>n</em>-pentylamine;Dipentanamine;NSC 6329;<em>N</em>,<em>N</em>-Dipentylamine",
    "duplicated_cas_no": "",
    "SMILES": "N(CCCCC)CCCCC",
    "meta_data": {
        "InChI": "InChI=1S/C10H23N/c1-3-5-7-9-11-10-8-6-4-2/h11H,3-10H2,1-2H3",
        "InChIKey": null,
        "Canonical SMILES": "N(CCCCC)CCCCC",
        "Molecular Formula": "C<sub>10</sub>H<sub>23</sub>N",
        "Molecular Mass": "157.30",
        "Boiling Point": "202.5 °C",
        "Melting Point": "-7.85 °C",
        "Density": "0.7771 g/cm³ @ Temp: 20 °C"
    }
}