{
    "cas_no": "2622-14-2",
    "key_name": "Tricyclohexylphosphine",
    "cn_name": "三环己基膦;",
    "alternate_name": "Phosphine, tricyclohexyl-;Tricyclohexylphosphine;Tris(cyclohexyl)phosphine;NSC 158657;Phosphine, cyclohexylbis(trifluoromethyl)-;Cyclohexylbis(trifluoromethyl)phosphine",
    "duplicated_cas_no": "2891956-97-9",
    "SMILES": "P(C1CCCCC1)(C2CCCCC2)C3CCCCC3",
    "meta_data": {
        "InChI": "InChI=1S/C18H33P/c1-4-10-16(11-5-1)19(17-12-6-2-7-13-17)18-14-8-3-9-15-18/h16-18H,1-15H2",
        "InChIKey": null,
        "Canonical SMILES": "P(C1CCCCC1)(C2CCCCC2)C3CCCCC3",
        "Molecular Formula": "C<sub>18</sub>H<sub>33</sub>P",
        "Molecular Mass": "280.43",
        "Melting Point": "76-78 °C"
    }
}