{
    "cas_no": "122684-35-9",
    "key_name": "1,1-Dimethylethyl 3-(aminothioxomethyl)-1-pyrrolidinecarboxylate",
    "cn_name": null,
    "alternate_name": "1-Pyrrolidinecarboxylic acid, 3-(aminothioxomethyl)-, 1,1-dimethylethyl ester;1,1-Dimethylethyl 3-(aminothioxomethyl)-1-pyrrolidinecarboxylate;3-Thiocarbamoylpyrrolidine-1-carboxylic acid tert-butyl ester;<em>tert</em>-Butyl 3-carbamothioylpyrrolidine-1-carboxylate;1-Boc-3-thiocarbamoyl-pyrrolidine",
    "duplicated_cas_no": "",
    "SMILES": "C(OC(C)(C)C)(=O)N1CC(C(N)=S)CC1",
    "meta_data": {
        "InChI": "InChI=1S/C10H18N2O2S/c1-10(2,3)14-9(13)12-5-4-7(6-12)8(11)15/h7H,4-6H2,1-3H3,(H2,11,15)",
        "InChIKey": null,
        "Canonical SMILES": "O=C(OC(C)(C)C)N1CCC(C(=S)N)C1",
        "Molecular Formula": "C<sub>10</sub>H<sub>18</sub>N<sub>2</sub>O<sub>2</sub>S",
        "Molecular Mass": "230.33",
        "Melting Point": "131-133 °C"
    }
}