{
    "cas_no": "557-20-0",
    "key_name": "Diethylzinc",
    "cn_name": "二乙基锌;",
    "alternate_name": "Zinc, diethyl-;Diethylzinc",
    "duplicated_cas_no": "13497-77-3",
    "SMILES": "[Zn](CC)CC",
    "meta_data": {
        "InChI": "InChI=1S/2C2H5.Zn/c2*1-2;/h2*1H2,2H3;",
        "InChIKey": null,
        "Canonical SMILES": "[Zn](CC)CC",
        "Molecular Formula": "C<sub>4</sub>H<sub>10</sub>Zn",
        "Molecular Mass": "",
        "Boiling Point": "118 °C",
        "Melting Point": "-28 °C",
        "Density": "1.2065 g/cm³ @ Temp: 20 °C"
    }
}