{
    "cas_no": "7115-91-5",
    "key_name": "Benzoic acid, 2-(bromomethyl)-, ethyl ester",
    "cn_name": null,
    "alternate_name": "Benzoic acid, 2-(bromomethyl)-, ethyl ester;<em>o</em>-Toluic acid, α-bromo-, ethyl ester;α-Bromo-<em>o</em>-toluic acid ethyl ester;Ethyl 2-(bromomethyl)benzoate;Ethyl <em>o</em>-(bromomethyl)benzoate;Ethyl α-bromo-<em>o</em>-toluate;<em>o</em>-(Bromomethyl)benzoic acid ethyl ester;2-(Ethoxycarbonyl)benzyl bromide;2-(Bromomethyl)benzoic acid ethyl ester",
    "duplicated_cas_no": "",
    "SMILES": "C(OCC)(=O)C1=C(CBr)C=CC=C1",
    "meta_data": {
        "InChI": "InChI=1S/C10H11BrO2/c1-2-13-10(12)9-6-4-3-5-8(9)7-11/h3-6H,2,7H2,1H3",
        "InChIKey": null,
        "Canonical SMILES": "O=C(OCC)C=1C=CC=CC1CBr",
        "Molecular Formula": "C<sub>10</sub>H<sub>11</sub>BrO<sub>2</sub>",
        "Molecular Mass": "243.10",
        "Boiling Point": "90-95 °C @ Press: 0.15 Torr"
    }
}