{
    "cas_no": "82-46-2",
    "key_name": "1,5-Dichloroanthraquinone",
    "cn_name": "1,5-二氯蒽醌;",
    "alternate_name": "9,10-Anthracenedione, 1,5-dichloro-;Anthraquinone, 1,5-dichloro-;1,5-Dichloro-9,10-anthracenedione;1,5-Dichloroanthraquinone;1,5-Dichloro-9,10-anthraquinone;NSC 13969",
    "duplicated_cas_no": "",
    "SMILES": "O=C1C=2C(C(=O)C=3C1=CC=CC3Cl)=CC=CC2Cl",
    "meta_data": {
        "InChI": "InChI=1S/C14H6Cl2O2/c15-9-5-1-3-7-11(9)14(18)8-4-2-6-10(16)12(8)13(7)17/h1-6H",
        "InChIKey": null,
        "Canonical SMILES": "O=C1C=2C=CC=C(Cl)C2C(=O)C=3C=CC=C(Cl)C13",
        "Molecular Formula": "C<sub>14</sub>H<sub>6</sub>Cl<sub>2</sub>O<sub>2</sub>",
        "Molecular Mass": "277.10",
        "Melting Point": "251 °C",
        "Density": "0.5-0.6 g/cm³"
    }
}