{
    "cas_no": "2114-18-3",
    "key_name": "2-Chloroethyl carbamate",
    "cn_name": "2-氯乙基氨基甲酸酯;",
    "alternate_name": "Ethanol, 2-chloro-, 1-carbamate;Ethanol, 2-chloro-, carbamate;Carbamic acid, 2-chloroethyl ester;β-Chloroethyl carbamate;2-Chloroethyl carbamate;NSC 31185",
    "duplicated_cas_no": "",
    "SMILES": "O(C(N)=O)CCCl",
    "meta_data": {
        "InChI": "InChI=1S/C3H6ClNO2/c4-1-2-7-3(5)6/h1-2H2,(H2,5,6)",
        "InChIKey": null,
        "Canonical SMILES": "O=C(OCCCl)N",
        "Molecular Formula": "C<sub>3</sub>H<sub>6</sub>ClNO<sub>2</sub>",
        "Molecular Mass": "123.54",
        "Melting Point": "76 °C"
    }
}