{
    "cas_no": "10347-81-6",
    "key_name": "Maprotiline hydrochloride",
    "cn_name": null,
    "alternate_name": "9,10-Ethanoanthracene-9(10<em>H</em>)-propanamine, <em>N</em>-methyl-, hydrochloride (1:1);9,10-Ethanoanthracene-9(10<em>H</em>)-propylamine, <em>N</em>-methyl-, hydrochloride;9,10-Ethanoanthracene-9(10<em>H</em>)-propanamine, <em>N</em>-methyl-, hydrochloride;9,10-Dihydro-9-(3-methylaminopropyl)-9,10-ethanoanthracene hydrochloride;Ba 34276;CIBA 34,276Ba;9-[γ-(Methylamino)propyl]-9,10-dihydro-9,10-ethanoanthracene hydrochloride;CIBA 34276 hydrochloride;9,10-Ethanoanthracene-9-propylamine, 9,10-dihydro-<em>N</em>-methyl-, hydrochloride;Maprotiline hydrochloride;Ludiomil;Ladiomil;Deprilept;Psymion",
    "duplicated_cas_no": "",
    "SMILES": "C(CCNC)C12C=3C(C(C=4C1=CC=CC4)CC2)=CC=CC3.Cl",
    "meta_data": {
        "InChI": "InChI=1S/C20H23N.ClH/c1-21-14-6-12-20-13-11-15(16-7-2-4-9-18(16)20)17-8-3-5-10-19(17)20;/h2-5,7-10,15,21H,6,11-14H2,1H3;1H",
        "InChIKey": null,
        "Canonical SMILES": "Cl.C=1C=CC2=C(C1)C3C=4C=CC=CC4C2(CCCNC)CC3",
        "Molecular Formula": "C<sub>20</sub>H<sub>23</sub>N.ClH",
        "Molecular Mass": "",
        "Melting Point": "230-232 °C"
    }
}