{
    "cas_no": "585-47-7",
    "key_name": "1,3-Benzenedisulfonyl dichloride",
    "cn_name": "1,3-苯二磺酰氯;",
    "alternate_name": "1,3-Benzenedisulfonyl dichloride;<em>m</em>-Benzenedisulfonyl chloride;3-(Chlorosulfonyl)benzenesulfonyl chloride;<em>m</em>-Phenylenedisulfonyl chloride;<em>m</em>-Benzenedisulfonyl dichloride;1,3-Bis(chlorosulfonyl)benzene;<em>m</em>-Bis(chlorosulfonyl)benzene;1,3-Benzenedisulfonyl chloride;NSC 61429;1,3-Phenylenebis(sulfonyl chloride)",
    "duplicated_cas_no": "",
    "SMILES": "S(Cl)(=O)(=O)C1=CC(S(Cl)(=O)=O)=CC=C1",
    "meta_data": {
        "InChI": "InChI=1S/C6H4Cl2O4S2/c7-13(9,10)5-2-1-3-6(4-5)14(8,11)12/h1-4H",
        "InChIKey": null,
        "Canonical SMILES": "O=S(=O)(Cl)C1=CC=CC(=C1)S(=O)(=O)Cl",
        "Molecular Formula": "C<sub>6</sub>H<sub>4</sub>Cl<sub>2</sub>O<sub>4</sub>S<sub>2</sub>",
        "Molecular Mass": "275.13",
        "Melting Point": "63 °C"
    }
}