{
    "cas_no": "70783-75-4",
    "key_name": "2-Chloro-4-(trifluoromethoxy)phenol",
    "cn_name": null,
    "alternate_name": "Phenol, 2-chloro-4-(trifluoromethoxy)-;2-Chloro-4-(trifluoromethoxy)phenol",
    "duplicated_cas_no": "",
    "SMILES": "O(C(F)(F)F)C1=CC(Cl)=C(O)C=C1",
    "meta_data": {
        "InChI": "InChI=1S/C7H4ClF3O2/c8-5-3-4(1-2-6(5)12)13-7(9,10)11/h1-3,12H",
        "InChIKey": null,
        "Canonical SMILES": "FC(F)(F)OC1=CC=C(O)C(Cl)=C1",
        "Molecular Formula": "C<sub>7</sub>H<sub>4</sub>ClF<sub>3</sub>O<sub>2</sub>",
        "Molecular Mass": "212.55",
        "Boiling Point": "67-70 °C @ Press: 18 Torr"
    }
}