{
    "cas_no": "33037-46-6",
    "key_name": "Aloe-emodin 8-<em>O</em>-β-<span class=\"text-smallcaps\">D</span>-glucopyranoside",
    "cn_name": null,
    "alternate_name": "9,10-Anthracenedione, 8-(β-<span class=\"text-smallcaps\">D</span>-glucopyranosyloxy)-1-hydroxy-3-(hydroxymethyl)-;Glucopyranoside, 8-hydroxy-6-(hydroxymethyl)-1-anthraquinonyl, β-<span class=\"text-smallcaps\">D</span>-;8-(β-<span class=\"text-smallcaps\">D</span>-Glucopyranosyloxy)-1-hydroxy-3-(hydroxymethyl)-9,10-anthracenedione;Aloe emodin 8-mono-β-<span class=\"text-smallcaps\">D</span>-glucoside;1-Hydroxy-3-hydroxymethyl-8-β-<span class=\"text-smallcaps\">D</span>-glucosyloxyanthraquinone;Aloe emodin 8-monoglucoside;Aloe emodin 8-glucoside;Aloe-emodin 8-<em>O</em>-β-<span class=\"text-smallcaps\">D</span>-glucopyranoside",
    "duplicated_cas_no": "26896-14-0",
    "SMILES": "O(C1=C2C(C(=O)C=3C(C2=O)=C(O)C=C(CO)C3)=CC=C1)[C@@H]4O[C@H](CO)[C@@H](O)[C@H](O)[C@H]4O",
    "meta_data": {
        "InChI": "InChI=1S/C21H20O10/c22-6-8-4-10-14(11(24)5-8)18(27)15-9(16(10)25)2-1-3-12(15)30-21-20(29)19(28)17(26)13(7-23)31-21/h1-5,13,17,19-24,26,28-29H,6-7H2/t13-,17-,19+,20-,21-/m1/s1",
        "InChIKey": null,
        "Canonical SMILES": "O=C1C=2C=CC=C(OC3OC(CO)C(O)C(O)C3O)C2C(=O)C4=C(O)C=C(C=C14)CO",
        "Molecular Formula": "C<sub>21</sub>H<sub>20</sub>O<sub>10</sub>",
        "Molecular Mass": "432.38",
        "Melting Point": "239-240 °C"
    }
}