{
    "cas_no": "1955-46-0",
    "key_name": "1-Methyl 5-nitro-1,3-benzenedicarboxylate",
    "cn_name": "5-硝基间苯二甲酸单甲酯;5-硝基异酞酸单甲酯;",
    "alternate_name": "1,3-Benzenedicarboxylic acid, 5-nitro-, 1-methyl ester;Isophthalic acid, 5-nitro-, monomethyl ester;1,3-Benzenedicarboxylic acid, 5-nitro-, monomethyl ester;Isophthalic acid, 5-nitro-, methyl ester;1-Methyl 5-nitro-1,3-benzenedicarboxylate;Monomethyl 5-nitroisophthalate;Methyl hydrogen 5-nitroisophthalate;5-Nitro-3-(carbomethoxy)benzoic acid;3-Carbomethoxy-5-nitrobenzoic acid;5-Nitro-1,3-benzenedicarboxylic acid monomethyl ester;5-Nitroisophthalic acid monomethyl ester;3-Methoxycarbonyl-5-nitrobenzoic acid;3-Nitro-5-(methoxycarbonyl)benzoic acid;5-Nitroisophthalic acid methyl ester;5-Nitro-1,3-benzenedicarboxylic acid methyl ester;Methyl 3-carboxy-5-nitrobenzoate",
    "duplicated_cas_no": "",
    "SMILES": "C(OC)(=O)C1=CC(C(O)=O)=CC(N(=O)=O)=C1",
    "meta_data": {
        "InChI": "InChI=1S/C9H7NO6/c1-16-9(13)6-2-5(8(11)12)3-7(4-6)10(14)15/h2-4H,1H3,(H,11,12)",
        "InChIKey": null,
        "Canonical SMILES": "O=C(O)C=1C=C(C=C(C1)N(=O)=O)C(=O)OC",
        "Molecular Formula": "C<sub>9</sub>H<sub>7</sub>NO<sub>6</sub>",
        "Molecular Mass": "225.15",
        "Melting Point": "175-179 °C"
    }
}