{
    "cas_no": "112-17-4",
    "key_name": "Decyl acetate",
    "cn_name": "乙酸癸酯;醋酸癸酯;",
    "alternate_name": "Acetic acid, decyl ester;Decyl alcohol, acetate;Acetate C 10;Decyl acetate;<em>n</em>-Decyl acetate;1-Decanol acetate;1-Decyl acetate;Decanyl acetate;NSC 46131;1-Acetoxydecane",
    "duplicated_cas_no": "",
    "SMILES": "C(CCCCCCCC)COC(C)=O",
    "meta_data": {
        "InChI": "InChI=1S/C12H24O2/c1-3-4-5-6-7-8-9-10-11-14-12(2)13/h3-11H2,1-2H3",
        "InChIKey": null,
        "Canonical SMILES": "O=C(OCCCCCCCCCC)C",
        "Molecular Formula": "C<sub>12</sub>H<sub>24</sub>O<sub>2</sub>",
        "Molecular Mass": "200.32",
        "Boiling Point": "244 °C",
        "Melting Point": "-15 °C",
        "Density": "0.8671 g/cm³ @ Temp: 20 °C"
    }
}