{
    "cas_no": "16566-20-4",
    "key_name": "5-Quinoxalinamine",
    "cn_name": null,
    "alternate_name": "5-Quinoxalinamine;Quinoxaline, 5-amino-;5-Aminoquinoxaline;5-Quinoxalinylamine",
    "duplicated_cas_no": "",
    "SMILES": "NC=1C2=C(C=CC1)N=CC=N2",
    "meta_data": {
        "InChI": "InChI=1S/C8H7N3/c9-6-2-1-3-7-8(6)11-5-4-10-7/h1-5H,9H2",
        "InChIKey": null,
        "Canonical SMILES": "N1=CC=NC=2C1=CC=CC2N",
        "Molecular Formula": "C<sub>8</sub>H<sub>7</sub>N<sub>3</sub>",
        "Molecular Mass": "145.16",
        "Melting Point": "92 °C"
    }
}