{
    "cas_no": "59880-97-6",
    "key_name": "<em>N</em>-Formyl-<span class=\"text-smallcaps\">L</smallcap>-methionyl-<smallcap>L</smallcap>-leucyl-<smallcap>L</span>-phenylalanine",
    "cn_name": null,
    "alternate_name": "<span class=\"text-smallcaps\">L</smallcap>-Phenylalanine, <em>N</em>-formyl-<smallcap>L</smallcap>-methionyl-<smallcap>L</span>-leucyl-;<span class=\"text-smallcaps\">L</smallcap>-Phenylalanine, <em>N</em>-[<em>N</em>-(<em>N</em>-formyl-<smallcap>L</smallcap>-methionyl)-<smallcap>L</span>-leucyl]-;<em>N</em>-Formyl-<span class=\"text-smallcaps\">L</smallcap>-methionyl-<smallcap>L</smallcap>-leucyl-<smallcap>L</span>-phenylalanine;<em>N</em>-Formyl-Met-Leu-Phe-OH;NSC 350593;3: PN: WO2010089019 PAGE: 22 claimed protein;<em>N</em>-Formyl-methionyl-leucyl-phenylalanine",
    "duplicated_cas_no": "75501-03-0",
    "SMILES": "[C@H](C(N[C@@H](CC1=CC=CC=C1)C(O)=O)=O)(NC([C@H](CCSC)NC=O)=O)CC(C)C",
    "meta_data": {
        "InChI": "InChI=1S/C21H31N3O5S/c1-14(2)11-17(23-19(26)16(22-13-25)9-10-30-3)20(27)24-18(21(28)29)12-15-7-5-4-6-8-15/h4-8,13-14,16-18H,9-12H2,1-3H3,(H,22,25)(H,23,26)(H,24,27)(H,28,29)/t16-,17-,18-/m0/s1",
        "InChIKey": null,
        "Canonical SMILES": "O=CNC(C(=O)NC(C(=O)NC(C(=O)O)CC=1C=CC=CC1)CC(C)C)CCSC",
        "Molecular Formula": "C<sub>21</sub>H<sub>31</sub>N<sub>3</sub>O<sub>5</sub>S",
        "Molecular Mass": "437.55",
        "Melting Point": "212-214 °C"
    }
}