{
    "cas_no": "21324-40-3",
    "key_name": "Lithium hexafluorophosphate",
    "cn_name": "六氟磷酸锂;",
    "alternate_name": "Phosphate(1-), hexafluoro-, lithium (1:1);Phosphate(1-), hexafluoro-, lithium;Lithium hexafluorophosphate;Lithium hexafluorophosphate (LiPF<sub>6</sub>);Lithium hexafluorophosphate(1-);Lithium fluophosphate;Lithium phosphorus fluoride (LiPF<sub>6</sub>);LBG 45864;LBC 305-01",
    "duplicated_cas_no": "79001-09-5;195377-88-9;285996-05-6;499988-42-0;672306-79-5;2028300-39-0;2511147-71-8;2736393-89-6",
    "SMILES": "[P+5]([F-])([F-])([F-])([F-])([F-])[F-].[Li+]",
    "meta_data": {
        "InChI": "InChI=1S/F6P.Li/c1-7(2,3,4,5)6;/q-1;+1",
        "InChIKey": null,
        "Canonical SMILES": "[Li+].[F-][P+5]([F-])([F-])([F-])([F-])[F-]",
        "Molecular Formula": "F<sub>6</sub>P.Li",
        "Molecular Mass": "",
        "Melting Point": "194.29 °C (decomp)",
        "Density": "2.838 g/cm³"
    }
}