{
    "cas_no": "24577-90-0",
    "key_name": "Rubrofusarin gentiobioside",
    "cn_name": null,
    "alternate_name": "4<em>H</em>-Naphtho[2,3-<em>b</em>]pyran-4-one, 6-[(6-<em>O</em>-β-<span class=\"text-smallcaps\">D</smallcap>-glucopyranosyl-β-<smallcap>D</span>-glucopyranosyl)oxy]-5-hydroxy-8-methoxy-2-methyl-;Glucopyranoside, 5-hydroxy-8-methoxy-2-methyl-4-oxo-4<em>H</em>-naphtho[2,3-<em>b</em>]pyran-6-yl 6-<em>O</em>-β-<span class=\"text-smallcaps\">D</smallcap>-glucopyranosyl-, β-<smallcap>D</span>-;6-[(6-<em>O</em>-β-<span class=\"text-smallcaps\">D</smallcap>-Glucopyranosyl-β-<smallcap>D</span>-glucopyranosyl)oxy]-5-hydroxy-8-methoxy-2-methyl-4<em>H</em>-naphtho[2,3-<em>b</em>]pyran-4-one;Rubrofusarin gentiobioside;Rubrofusarin 6-<em>O</em>-β-<span class=\"text-smallcaps\">D</span>-gentiobioside;Rubrofusarin 6-<em>O</em>-gentiobioside;Rubrofusarin-6-<em>O</em>-gentiobioside",
    "duplicated_cas_no": "",
    "SMILES": "O(C=1C2=C(C=C3C(=C2O)C(=O)C=C(C)O3)C=C(OC)C1)[C@@H]4O[C@H](CO[C@@H]5O[C@H](CO)[C@@H](O)[C@H](O)[C@H]5O)[C@@H](O)[C@H](O)[C@H]4O",
    "meta_data": {
        "InChI": "InChI=1S/C27H32O15/c1-9-3-12(29)18-13(39-9)5-10-4-11(37-2)6-14(17(10)21(18)32)40-27-25(36)23(34)20(31)16(42-27)8-38-26-24(35)22(33)19(30)15(7-28)41-26/h3-6,15-16,19-20,22-28,30-36H,7-8H2,1-2H3/t15-,16-,19-,20-,22+,23+,24-,25-,26-,27-/m1/s1",
        "InChIKey": null,
        "Canonical SMILES": "O=C1C=C(OC2=CC=3C=C(OC)C=C(OC4OC(COC5OC(CO)C(O)C(O)C5O)C(O)C(O)C4O)C3C(O)=C12)C",
        "Molecular Formula": "C<sub>27</sub>H<sub>32</sub>O<sub>15</sub>",
        "Molecular Mass": "596.53",
        "Melting Point": "252.5-254 °C"
    }
}