{
    "cas_no": "321-23-3",
    "key_name": "4-Bromo-2-fluoro-1-nitrobenzene",
    "cn_name": "2-氟-4-溴硝基苯;",
    "alternate_name": "Benzene, 4-bromo-2-fluoro-1-nitro-;4-Bromo-2-fluoro-1-nitrobenzene;1-Bromo-3-fluoro-4-nitrobenzene;4-Bromo-2-fluoronitrobenzene;2-Fluoro-4-bromonitrobenzene;1-Bromo-4-nitro-3-fluorobenzene;4-Nitro-3-fluoro-1-bromobenzene;3-Fluoro-4-nitro-1-bromobenzene",
    "duplicated_cas_no": "",
    "SMILES": "N(=O)(=O)C1=C(F)C=C(Br)C=C1",
    "meta_data": {
        "InChI": "InChI=1S/C6H3BrFNO2/c7-4-1-2-6(9(10)11)5(8)3-4/h1-3H",
        "InChIKey": null,
        "Canonical SMILES": "O=N(=O)C1=CC=C(Br)C=C1F",
        "Molecular Formula": "C<sub>6</sub>H<sub>3</sub>BrFNO<sub>2</sub>",
        "Molecular Mass": "220.00",
        "Melting Point": "85-86 °C"
    }
}