{
    "cas_no": "2003-10-3",
    "key_name": "2-Bromo-1-[3-(trifluoromethyl)phenyl]ethanone",
    "cn_name": "2-溴-1-(3-(三氟甲基)苯基)乙酮;",
    "alternate_name": "Ethanone, 2-bromo-1-[3-(trifluoromethyl)phenyl]-;Acetophenone, 2-bromo-3′-(trifluoromethyl)-;2-Bromo-1-[3-(trifluoromethyl)phenyl]ethanone;α-Bromo-3′-(trifluoromethyl)acetophenone;2-Bromo-3′-(trifluoromethyl)acetophenone;<em>m</em>-(Trifluoromethyl)phenacyl bromide;3-(Trifluoromethyl)phenacyl bromide;α-Bromo-<em>m</em>-(trifluoromethyl)acetophenone;α-Bromo-3-(trifluoromethyl)acetophenone;2-Bromo-1-(3-trifluoromethylphenyl)ethanone;2-Bromo-1-(3-trifluoromethylphenyl)-1-ethanone",
    "duplicated_cas_no": "",
    "SMILES": "C(CBr)(=O)C1=CC(C(F)(F)F)=CC=C1",
    "meta_data": {
        "InChI": "InChI=1S/C9H6BrF3O/c10-5-8(14)6-2-1-3-7(4-6)9(11,12)13/h1-4H,5H2",
        "InChIKey": null,
        "Canonical SMILES": "O=C(C1=CC=CC(=C1)C(F)(F)F)CBr",
        "Molecular Formula": "C<sub>9</sub>H<sub>6</sub>BrF<sub>3</sub>O",
        "Molecular Mass": "267.04",
        "Boiling Point": "85-90 °C @ Press: 1.2 Torr"
    }
}