{
    "cas_no": "6284-83-9",
    "key_name": "1,3,5-Trichloro-2,4-dinitrobenzene",
    "cn_name": "2,4,6-三氯-1,3-二硝基苯;",
    "alternate_name": "Benzene, 1,3,5-trichloro-2,4-dinitro-;1,3,5-Trichloro-2,4-dinitrobenzene;1,3-Dinitro-2,4,6-trichlorobenzene;2,4,6-Trichloro-1,3-dinitrobenzene;2,4-Dinitro-1,3,5-trichlorobenzene;NSC 5279",
    "duplicated_cas_no": "",
    "SMILES": "ClC1=C(N(=O)=O)C(Cl)=CC(Cl)=C1N(=O)=O",
    "meta_data": {
        "InChI": "InChI=1S/C6HCl3N2O4/c7-2-1-3(8)6(11(14)15)4(9)5(2)10(12)13/h1H",
        "InChIKey": null,
        "Canonical SMILES": "O=N(=O)C1=C(Cl)C=C(Cl)C(=C1Cl)N(=O)=O",
        "Molecular Formula": "C<sub>6</sub>HCl<sub>3</sub>N<sub>2</sub>O<sub>4</sub>",
        "Molecular Mass": "271.44",
        "Melting Point": "129.5 °C"
    }
}