{
    "cas_no": "19788-35-3",
    "key_name": "Methyl 5-methyl-3-isoxazolecarboxylate",
    "cn_name": "5-甲基异恶唑-3-羧酸甲酯;",
    "alternate_name": "3-Isoxazolecarboxylic acid, 5-methyl-, methyl ester;Methyl 5-methyl-3-isoxazolecarboxylate;Premnazole;5-Methylisoxazole-3-carboxylic acid methyl ester",
    "duplicated_cas_no": "",
    "SMILES": "C(OC)(=O)C=1C=C(C)ON1",
    "meta_data": {
        "InChI": "InChI=1S/C6H7NO3/c1-4-3-5(7-10-4)6(8)9-2/h3H,1-2H3",
        "InChIKey": null,
        "Canonical SMILES": "O=C(OC)C1=NOC(=C1)C",
        "Molecular Formula": "C<sub>6</sub>H<sub>7</sub>NO<sub>3</sub>",
        "Molecular Mass": "141.12",
        "Melting Point": "89-90 °C"
    }
}