{
    "cas_no": "112885-41-3",
    "key_name": "Mosapride",
    "cn_name": "莫沙必利;4-氨基-5-氯-2-乙氧基-N-[[4-(4-氟苄基)-2-吗啉基]甲基]苯甲酰胺;",
    "alternate_name": "Benzamide, 4-amino-5-chloro-2-ethoxy-<em>N</em>-[[4-[(4-fluorophenyl)methyl]-2-morpholinyl]methyl]-;4-Amino-5-chloro-2-ethoxy-<em>N</em>-[[4-[(4-fluorophenyl)methyl]-2-morpholinyl]methyl]benzamide;Mosapride;Moza;4-Amino-5-chloro-2-ethoxy-<em>N</em>-[[4-(4-fluorobenzyl)-2-morpholinyl]methyl]benzamide",
    "duplicated_cas_no": "144256-27-9",
    "SMILES": "C(NCC1CN(CC2=CC=C(F)C=C2)CCO1)(=O)C3=C(OCC)C=C(N)C(Cl)=C3",
    "meta_data": {
        "InChI": "InChI=1S/C21H25ClFN3O3/c1-2-28-20-10-19(24)18(22)9-17(20)21(27)25-11-16-13-26(7-8-29-16)12-14-3-5-15(23)6-4-14/h3-6,9-10,16H,2,7-8,11-13,24H2,1H3,(H,25,27)",
        "InChIKey": null,
        "Canonical SMILES": "O=C(NCC1OCCN(CC2=CC=C(F)C=C2)C1)C=3C=C(Cl)C(N)=CC3OCC",
        "Molecular Formula": "C<sub>21</sub>H<sub>25</sub>ClFN<sub>3</sub>O<sub>3</sub>",
        "Molecular Mass": "421.89",
        "Melting Point": "151-153 °C"
    }
}