{
    "cas_no": "646-13-9",
    "key_name": "Isobutyl stearate",
    "cn_name": "硬脂酸异丁酯;十八烷酸(2-甲基丙基)酯;",
    "alternate_name": "Octadecanoic acid, 2-methylpropyl ester;Stearic acid, isobutyl ester;Isobutyl stearate;Isobutyl octadecanoate;2-Methylpropyl stearate;Estol 1476;Emerest 2324",
    "duplicated_cas_no": "",
    "SMILES": "C(CC(OCC(C)C)=O)CCCCCCCCCCCCCCC",
    "meta_data": {
        "InChI": "InChI=1S/C22H44O2/c1-4-5-6-7-8-9-10-11-12-13-14-15-16-17-18-19-22(23)24-20-21(2)3/h21H,4-20H2,1-3H3",
        "InChIKey": null,
        "Canonical SMILES": "O=C(OCC(C)C)CCCCCCCCCCCCCCCCC",
        "Molecular Formula": "C<sub>22</sub>H<sub>44</sub>O<sub>2</sub>",
        "Molecular Mass": "340.58",
        "Boiling Point": "223 °C @ Press: 15 Torr",
        "Melting Point": "28.9 °C",
        "Density": "0.8498 g/cm³ @ Temp: 20 °C"
    }
}