{
    "cas_no": "3141-26-2",
    "key_name": "3,4-Dibromothiophene",
    "cn_name": "3,4-二溴噻吩;",
    "alternate_name": "Thiophene, 3,4-dibromo-;3,4-Dibromothiophene;NSC 99007",
    "duplicated_cas_no": "",
    "SMILES": "BrC=1C(Br)=CSC1",
    "meta_data": {
        "InChI": "InChI=1S/C4H2Br2S/c5-3-1-7-2-4(3)6/h1-2H",
        "InChIKey": null,
        "Canonical SMILES": "BrC1=CSC=C1Br",
        "Molecular Formula": "C<sub>4</sub>H<sub>2</sub>Br<sub>2</sub>S",
        "Molecular Mass": "241.93",
        "Boiling Point": "221.5 °C",
        "Melting Point": "4.5 °C"
    }
}