{
    "cas_no": "6961-82-6",
    "key_name": "2-Chlorobenzenesulfonamide",
    "cn_name": "邻氯苯磺酰胺;",
    "alternate_name": "Benzenesulfonamide, 2-chloro-;Benzenesulfonamide, <em>o</em>-chloro-;2-Chlorobenzenesulfonamide;<em>o</em>-Chlorobenzenesulfonamide;A 4097;2-Chlorophenylsulfonamide;2-Chlorobenzensulfonamide;NSC 62927;2-Chlorobenzene-1-sulfonamide",
    "duplicated_cas_no": "",
    "SMILES": "S(N)(=O)(=O)C1=C(Cl)C=CC=C1",
    "meta_data": {
        "InChI": "InChI=1S/C6H6ClNO2S/c7-5-3-1-2-4-6(5)11(8,9)10/h1-4H,(H2,8,9,10)",
        "InChIKey": null,
        "Canonical SMILES": "O=S(=O)(N)C=1C=CC=CC1Cl",
        "Molecular Formula": "C<sub>6</sub>H<sub>6</sub>ClNO<sub>2</sub>S",
        "Molecular Mass": "191.64",
        "Melting Point": "187-188 °C"
    }
}