{
    "cas_no": "552-54-5",
    "key_name": "Rhamnazin",
    "cn_name": null,
    "alternate_name": "4<em>H</em>-1-Benzopyran-4-one, 3,5-dihydroxy-2-(4-hydroxy-3-methoxyphenyl)-7-methoxy-;Flavone, 3,4′,5-trihydroxy-3′,7-dimethoxy-;Rhamnazin;3,5-Dihydroxy-2-(4-hydroxy-3-methoxyphenyl)-7-methoxy-4<em>H</em>-1-benzopyran-4-one;C.I. 75700;Rhamnacine;7,3′-Dimethylquercetin;Quercetin 3′,7-dimethyl ether;Quercetin 7,3′-dimethyl ether;3′,7-Dimethylquercetin;7,3′-Di-<em>O</em>-methylquercetin;3,4′,5-Trihydroxy-3′,7-dimethoxyflavone;NSC 678106;3′,7-Di-<em>O</em>-methylquercetin;3,5-Dihydroxy-2-(4-hydroxy-3-methoxyphenyl)-7-methoxychromen-4-one",
    "duplicated_cas_no": "",
    "SMILES": "O=C1C=2C(OC(=C1O)C3=CC(OC)=C(O)C=C3)=CC(OC)=CC2O",
    "meta_data": {
        "InChI": "InChI=1S/C17H14O7/c1-22-9-6-11(19)14-13(7-9)24-17(16(21)15(14)20)8-3-4-10(18)12(5-8)23-2/h3-7,18-19,21H,1-2H3",
        "InChIKey": null,
        "Canonical SMILES": "O=C1C(O)=C(OC2=CC(OC)=CC(O)=C12)C=3C=CC(O)=C(OC)C3",
        "Molecular Formula": "C<sub>17</sub>H<sub>14</sub>O<sub>7</sub>",
        "Molecular Mass": "330.29",
        "Melting Point": "214-215 °C"
    }
}