{
    "cas_no": "736-53-8",
    "key_name": "5-Nitro-2-furancarboxaldehyde 2-[(5-nitro-2-furanyl)methylene]hydrazone",
    "cn_name": null,
    "alternate_name": "2-Furancarboxaldehyde, 5-nitro-, 2-[(5-nitro-2-furanyl)methylene]hydrazone;2-Furaldehyde, 5-nitro-, azine;2-Furancarboxaldehyde, 5-nitro-, [(5-nitro-2-furanyl)methylene]hydrazone;5-Nitro-2-furancarboxaldehyde 2-[(5-nitro-2-furanyl)methylene]hydrazone",
    "duplicated_cas_no": "",
    "SMILES": "C(=NN=CC=1OC(N(=O)=O)=CC1)C=2OC(N(=O)=O)=CC2",
    "meta_data": {
        "InChI": "InChI=1S/C10H6N4O6/c15-13(16)9-3-1-7(19-9)5-11-12-6-8-2-4-10(20-8)14(17)18/h1-6H",
        "InChIKey": null,
        "Canonical SMILES": "O=N(=O)C=1OC(C=NN=CC=2OC(=CC2)N(=O)=O)=CC1",
        "Molecular Formula": "C<sub>10</sub>H<sub>6</sub>N<sub>4</sub>O<sub>6</sub>",
        "Molecular Mass": "278.18",
        "Melting Point": "240-241 °C"
    }
}