{
    "cas_no": "10365-94-3",
    "key_name": "1,3,5-Benzenetricarbonitrile",
    "cn_name": null,
    "alternate_name": "1,3,5-Benzenetricarbonitrile;Trimesonitrile;1,3,5-Benzenetrinitrile;1,3,5-Tricyanobenzene;<em>sym</em>-Tricyanobenzene;Mesitylenetrinitrile",
    "duplicated_cas_no": "",
    "SMILES": "C(#N)C1=CC(C#N)=CC(C#N)=C1",
    "meta_data": {
        "InChI": "InChI=1S/C9H3N3/c10-4-7-1-8(5-11)3-9(2-7)6-12/h1-3H",
        "InChIKey": null,
        "Canonical SMILES": "N#CC=1C=C(C#N)C=C(C#N)C1",
        "Molecular Formula": "C<sub>9</sub>H<sub>3</sub>N<sub>3</sub>",
        "Molecular Mass": "153.14",
        "Melting Point": "261-263 °C"
    }
}