{
    "cas_no": "80-58-0",
    "key_name": "2-Bromobutyric acid",
    "cn_name": "2-溴丁酸;",
    "alternate_name": "Butanoic acid, 2-bromo-;Butyric acid, 2-bromo-;2-Bromobutanoic acid;α-Bromobutyric acid;2-Bromobutyric acid;α-Bromo-<em>n</em>-butyric acid;<span class=\"text-smallcaps\">DL</span>-α-Bromobutyric acid;<span class=\"text-smallcaps\">DL</span>-2-Bromo-<em>n</em>-butyric acid;(±)-2-Bromobutyric acid;(±)-α-Bromobutanoic acid;(<em>RS</em>)-α-Bromobutyric acid;(<em>RS</em>)-2-Bromobutyric acid;(±)-2-Bromobutanoic acid;NSC 8024",
    "duplicated_cas_no": "2385-70-8",
    "SMILES": "C(C(O)=O)(CC)Br",
    "meta_data": {
        "InChI": "InChI=1S/C4H7BrO2/c1-2-3(5)4(6)7/h3H,2H2,1H3,(H,6,7)",
        "InChIKey": null,
        "Canonical SMILES": "O=C(O)C(Br)CC",
        "Molecular Formula": "C<sub>4</sub>H<sub>7</sub>BrO<sub>2</sub>",
        "Molecular Mass": "167.00",
        "Boiling Point": "181-182 °C",
        "Melting Point": "-4 °C",
        "Density": "1.5671 g/cm³ @ Temp: 20 °C"
    }
}