{
    "cas_no": "745055-91-8",
    "key_name": "(α<em>S</em>)-α-Amino-3-[(2-carboxyphenyl)methyl]-3,4-dihydro-2,4-dioxo-1(2<em>H</em>)-pyrimidinepropanoic acid",
    "cn_name": null,
    "alternate_name": "1(2<em>H</em>)-Pyrimidinepropanoic acid, α-amino-3-[(2-carboxyphenyl)methyl]-3,4-dihydro-2,4-dioxo-, (α<em>S</em>)-;(α<em>S</em>)-α-Amino-3-[(2-carboxyphenyl)methyl]-3,4-dihydro-2,4-dioxo-1(2<em>H</em>)-pyrimidinepropanoic acid;UBP 302",
    "duplicated_cas_no": "",
    "SMILES": "C(N1C(=O)N(C[C@@H](C(O)=O)N)C=CC1=O)C2=C(C(O)=O)C=CC=C2",
    "meta_data": {
        "InChI": "InChI=1S/C15H15N3O6/c16-11(14(22)23)8-17-6-5-12(19)18(15(17)24)7-9-3-1-2-4-10(9)13(20)21/h1-6,11H,7-8,16H2,(H,20,21)(H,22,23)/t11-/m0/s1",
        "InChIKey": null,
        "Canonical SMILES": "O=C(O)C=1C=CC=CC1CN2C(=O)C=CN(C2=O)CC(N)C(=O)O",
        "Molecular Formula": "C<sub>15</sub>H<sub>15</sub>N<sub>3</sub>O<sub>6</sub>",
        "Molecular Mass": "333.30",
        "Melting Point": "207.9-208.5 °C (decomp)"
    }
}