{
    "cas_no": "75-85-4",
    "key_name": "2-Methyl-2-butanol",
    "cn_name": "2-甲基-2-丁醇;叔戊醇;",
    "alternate_name": "2-Butanol, 2-methyl-;<em>tert</em>-Pentyl alcohol;2-Methyl-2-butanol;<em>tert</em>-Amyl alcohol;Amylene hydrate;Dimethylethylcarbinol;<em>tert</em>-Pentanol;Ethyldimethylcarbinol;1,1-Dimethyl-1-propanol;2-Methyl-2-hydroxybutane;2-Ethyl-2-propanol;2-Hydroxy-2-methylbutane;NSC 25498",
    "duplicated_cas_no": "",
    "SMILES": "C(CC)(C)(C)O",
    "meta_data": {
        "InChI": "InChI=1S/C5H12O/c1-4-5(2,3)6/h6H,4H2,1-3H3",
        "InChIKey": null,
        "Canonical SMILES": "OC(C)(C)CC",
        "Molecular Formula": "C<sub>5</sub>H<sub>12</sub>O",
        "Molecular Mass": "88.15",
        "Boiling Point": "102.4 °C @ Press: 760 Torr",
        "Melting Point": "-8.8 °C",
        "Density": "0.8096 g/cm³ @ Temp: 20 °C"
    }
}