{
    "cas_no": "41205-21-4",
    "key_name": "Fluoroimide",
    "cn_name": "氟菌安;N-(对氟基苯基)-2,3-二氯马来酰亚胺；唑呋草；氟酰亚胺；N-对氟苯基二氯马来酰亚胺;",
    "alternate_name": "1<em>H</em>-Pyrrole-2,5-dione, 3,4-dichloro-1-(4-fluorophenyl)-;3,4-Dichloro-1-(4-fluorophenyl)-1<em>H</em>-pyrrole-2,5-dione;<em>N</em>-(4-Fluorophenyl)-2,3-dichloromaleimide;2,3-Dichloro-<em>N</em>-(4-fluorophenyl)maleimide;<em>N</em>-(4-Fluorophenyl)dichloromaleimide;2,3-Dichloro-<em>N</em>-(<em>p</em>-fluorophenyl)maleimide;<em>N</em>-(<em>p</em>-Fluorophenyl)-2,3-dichloromaleimide;MK 23;Spartcide;Spat;Fluoromide;NSC 622384;Fluoroimide;3,4-Dichloro-1-(4-fluorophenyl)-2,5-dihydro-1<em>H</em>-pyrrole-2,5-dione",
    "duplicated_cas_no": "1135442-93-1",
    "SMILES": "O=C1N(C(=O)C(Cl)=C1Cl)C2=CC=C(F)C=C2",
    "meta_data": {
        "InChI": "InChI=1S/C10H4Cl2FNO2/c11-7-8(12)10(16)14(9(7)15)6-3-1-5(13)2-4-6/h1-4H",
        "InChIKey": null,
        "Canonical SMILES": "O=C1C(Cl)=C(Cl)C(=O)N1C2=CC=C(F)C=C2",
        "Molecular Formula": "C<sub>10</sub>H<sub>4</sub>Cl<sub>2</sub>FNO<sub>2</sub>",
        "Molecular Mass": "260.05",
        "Melting Point": "241 °C"
    }
}