{
    "cas_no": "5351-23-5",
    "key_name": "4-Hydroxybenzoic acid hydrazide",
    "cn_name": "4-羟基苯甲酰肼;对羟基苯甲酰肼;",
    "alternate_name": "Benzoic acid, 4-hydroxy-, hydrazide;Benzoic acid, <em>p</em>-hydroxy-, hydrazide;(4-Hydroxybenzoyl)hydrazine;<em>p</em>-Hydroxybenzoic acid hydrazide;4-Hydroxybenzoic acid hydrazide;<em>p</em>-Hydroxybenzoic hydrazide;<em>p</em>-Hydroxybenzhydrazide;(<em>p</em>-Hydroxybenzoyl)hydrazine;4-Hydroxybenzohydrazide;<em>p</em>-Hydroxybenzoyl hydrazide;4-Hydroxybenzhydrazide;4-Hydroxybenzoyl hydrazide;NSC 647;INHd 25;<em>p</em>-Hydroxybenzohydrazide;Benzoic acid, 4-hydroxy-, hydrazinyl ester",
    "duplicated_cas_no": "2720505-66-6",
    "SMILES": "C(NN)(=O)C1=CC=C(O)C=C1",
    "meta_data": {
        "InChI": "InChI=1S/C7H8N2O2/c8-9-7(11)5-1-3-6(10)4-2-5/h1-4,10H,8H2,(H,9,11)",
        "InChIKey": null,
        "Canonical SMILES": "O=C(NN)C1=CC=C(O)C=C1",
        "Molecular Formula": "C<sub>7</sub>H<sub>8</sub>N<sub>2</sub>O<sub>2</sub>",
        "Molecular Mass": "152.15",
        "Melting Point": "264-266 °C"
    }
}