{
    "cas_no": "24973-59-9",
    "key_name": "2,4,6-Tri-<em>tert</em>-butylnitrosobenzene",
    "cn_name": "2,4,6-三叔丁若亚硝基苯;",
    "alternate_name": "Benzene, 1,3,5-tris(1,1-dimethylethyl)-2-nitroso-;Benzene, 1,3,5-tri-<em>tert</em>-butyl-2-nitroso-;1,3,5-Tris(1,1-dimethylethyl)-2-nitrosobenzene;2,4,6-Tri-<em>tert</em>-butylnitrosobenzene;2,4,6-Tri-<em>tert</em>-butyl-1-nitrosobenzene;1,3,5-Tri-<em>tert</em>-butyl-2-nitrosobenzene;1-Nitroso-2,4,6-tri-<em>t</em>-butylbenzene;NSC 677542;1,3,5-Tritert-butyl-2-nitrosobenzene",
    "duplicated_cas_no": "",
    "SMILES": "N(=O)C1=C(C(C)(C)C)C=C(C(C)(C)C)C=C1C(C)(C)C",
    "meta_data": {
        "InChI": "InChI=1S/C18H29NO/c1-16(2,3)12-10-13(17(4,5)6)15(19-20)14(11-12)18(7,8)9/h10-11H,1-9H3",
        "InChIKey": null,
        "Canonical SMILES": "O=NC=1C(=CC(=CC1C(C)(C)C)C(C)(C)C)C(C)(C)C",
        "Molecular Formula": "C<sub>18</sub>H<sub>29</sub>NO",
        "Molecular Mass": "275.43",
        "Melting Point": "167-168 °C"
    }
}