{
    "cas_no": "22248-79-9",
    "key_name": "Tetrachlorvinphos",
    "cn_name": "杀虫畏;杀虫威;(Z)-2-氯-1-(2,4,5-三氯苯基)乙烯基二甲基磷酸酯;",
    "alternate_name": "Phosphoric acid, (1<em>Z</em>)-2-chloro-1-(2,4,5-trichlorophenyl)ethenyl dimethyl ester;Phosphoric acid, 2-chloro-1-(2,4,5-trichlorophenyl)ethenyl dimethyl ester, (<em>Z</em>)-;Phosphoric acid, 2-chloro-1-(2,4,5-trichlorophenyl)vinyl dimethyl ester, (<em>Z</em>)-;Tetrachlorvinphos;Rabon;Stirophos;Gardona;Stirofos;SD 8447;CVMP;Vinfos;Rabond;<em>cis</em>-Gardona;(<em>Z</em>)-Tetrachlorovinphos;Tetrachlorvinfos;Debantic;Stitifos;Gardicide;MeSH ID: D013751",
    "duplicated_cas_no": "12710-48-4",
    "SMILES": "C(\\OP(OC)(OC)=O)(=C\\Cl)/C1=C(Cl)C=C(Cl)C(Cl)=C1",
    "meta_data": {
        "InChI": "InChI=1S/C10H9Cl4O4P/c1-16-19(15,17-2)18-10(5-11)6-3-8(13)9(14)4-7(6)12/h3-5H,1-2H3/b10-5-",
        "InChIKey": null,
        "Canonical SMILES": "O=P(OC(=CCl)C1=CC(Cl)=C(Cl)C=C1Cl)(OC)OC",
        "Molecular Formula": "C<sub>10</sub>H<sub>9</sub>Cl<sub>4</sub>O<sub>4</sub>P",
        "Molecular Mass": "365.96",
        "Melting Point": "97-98 °C"
    }
}