{
    "cas_no": "66938-86-1",
    "key_name": "(3,4-Diaminophenyl)(4-fluorophenyl)methanone",
    "cn_name": null,
    "alternate_name": "Methanone, (3,4-diaminophenyl)(4-fluorophenyl)-;(3,4-Diaminophenyl)(4-fluorophenyl)methanone;(3,4-Diaminophenyl)4-fluorophenyl)methanone",
    "duplicated_cas_no": "",
    "SMILES": "C(=O)(C1=CC(N)=C(N)C=C1)C2=CC=C(F)C=C2",
    "meta_data": {
        "InChI": "InChI=1S/C13H11FN2O/c14-10-4-1-8(2-5-10)13(17)9-3-6-11(15)12(16)7-9/h1-7H,15-16H2",
        "InChIKey": null,
        "Canonical SMILES": "O=C(C1=CC=C(F)C=C1)C2=CC=C(N)C(N)=C2",
        "Molecular Formula": "C<sub>13</sub>H<sub>11</sub>FN<sub>2</sub>O",
        "Molecular Mass": "230.24",
        "Melting Point": "113-114 °C"
    }
}