{
    "cas_no": "22262-60-8",
    "key_name": "Methyl 3-bromo-2-(bromomethyl)propanoate",
    "cn_name": "3-溴-2-(溴甲基)丙酸甲酯;",
    "alternate_name": "Propanoic acid, 3-bromo-2-(bromomethyl)-, methyl ester;Propionic acid, 3-bromo-2-(bromomethyl)-, methyl ester;Methyl β,β′-dibromoisobutyrate;NSC 620109;Methyl 3-bromo-2-(bromomethyl)propanoate;3-Bromo-2-bromomethylpropionic acid methyl ester",
    "duplicated_cas_no": "",
    "SMILES": "C(C(OC)=O)(CBr)CBr",
    "meta_data": {
        "InChI": "InChI=1S/C5H8Br2O2/c1-9-5(8)4(2-6)3-7/h4H,2-3H2,1H3",
        "InChIKey": null,
        "Canonical SMILES": "O=C(OC)C(CBr)CBr",
        "Molecular Formula": "C<sub>5</sub>H<sub>8</sub>Br<sub>2</sub>O<sub>2</sub>",
        "Molecular Mass": "259.92",
        "Boiling Point": "110 °C @ Press: 1 Torr"
    }
}