{
    "cas_no": "14970-87-7",
    "key_name": "2,2′-(Ethylenedioxy)diethanethiol",
    "cn_name": "2,2-(1,2-乙二基双氧代)双乙硫醇;",
    "alternate_name": "Ethanethiol, 2,2′-[1,2-ethanediylbis(oxy)]bis-;Ethanethiol, 2,2′-(ethylenedioxy)di-;2,2′-[1,2-Ethanediylbis(oxy)]bis[ethanethiol];1,2-Bis(2-mercaptoethoxy)ethane;Triethylene glycol dimercaptan;2,2′-(Ethylenedioxy)diethanethiol;1,2-Bis(2′-mercaptoethoxy)ethane;3,6-Dioxaoctane-1,8-dithiol;Triethylene glycol dithiol;1,8-Dimercapto-3,6-dioxaoctane;DMDO;Ethylene glycol di-2-mercaptoethyl ether;NSC 94782;3,6-Dioxa-1,8-dithiooctane;3,6-Dioxy-1,8-Octanedithiol;Ethylene glycol bis(2-mercaptoethyl) ether;2-[2-(2-Sulfanylethoxy)ethoxy]ethanethiol;3,6-Dioxa-1,8-octandithiol;2,2-(Ethylenedioxy)diethanethiol;MR 93",
    "duplicated_cas_no": "",
    "SMILES": "C(COCCS)OCCS",
    "meta_data": {
        "InChI": "InChI=1S/C6H14O2S2/c9-5-3-7-1-2-8-4-6-10/h9-10H,1-6H2",
        "InChIKey": null,
        "Canonical SMILES": "SCCOCCOCCS",
        "Molecular Formula": "C<sub>6</sub>H<sub>14</sub>O<sub>2</sub>S<sub>2</sub>",
        "Molecular Mass": "182.30",
        "Boiling Point": "125-131 °C @ Press: 5 Torr",
        "Density": "1.0952 g/cm³ @ Temp: 20 °C"
    }
}