{
    "cas_no": "2346-26-1",
    "key_name": "2,4-Oxazolidinedione",
    "cn_name": null,
    "alternate_name": "2,4-Oxazolidinedione;Glycoloylcarbamic acid γ-lactone;2,4(3<em>H</em>,5<em>H</em>)-Oxazoledione;Carbamic acid, (hydroxyacetyl)-, γ-lactone;1,3-Oxazolidine-2,4-dione;NSC 120350;1,3-Oxazolidin-2,4-dione;2-Hydroxy-4,5-dihydro-1,3-oxazol-4-one",
    "duplicated_cas_no": "",
    "SMILES": "O=C1NC(=O)OC1",
    "meta_data": {
        "InChI": "InChI=1S/C3H3NO3/c5-2-1-7-3(6)4-2/h1H2,(H,4,5,6)",
        "InChIKey": null,
        "Canonical SMILES": "O=C1OCC(=O)N1",
        "Molecular Formula": "C<sub>3</sub>H<sub>3</sub>NO<sub>3</sub>",
        "Molecular Mass": "101.06",
        "Boiling Point": "173 °C @ Press: 11 Torr",
        "Melting Point": "89-90 °C"
    }
}