{
    "cas_no": "31271-07-5",
    "key_name": "γ-Mangostin",
    "cn_name": null,
    "alternate_name": "9<em>H</em>-Xanthen-9-one, 1,3,6,7-tetrahydroxy-2,8-bis(3-methyl-2-buten-1-yl)-;9<em>H</em>-Xanthen-9-one, 1,3,6,7-tetrahydroxy-2,8-bis(3-methyl-2-butenyl)-;Xanthen-9-one, 1,3,6,7-tetrahydroxy-2,8-bis(3-methyl-2-butenyl)-;Mangostin, demethyl-;1,3,6,7-Tetrahydroxy-2,8-bis(3-methyl-2-buten-1-yl)-9<em>H</em>-xanthen-9-one;γ-Mangostin;Normangostin;1,3,6,7-Tetrahydroxy-2,8-bis(3,3-dimethylallyl)xanthone;7-<em>O</em>-Demethyl-α-mangostin;1,3,6,7-Tetrahydroxy-2,8-bis(3-methylbut-2-enyl)xanthen-9-one",
    "duplicated_cas_no": "",
    "SMILES": "C(C=C(C)C)C1=C2C(OC=3C(C2=O)=C(O)C(CC=C(C)C)=C(O)C3)=CC(O)=C1O",
    "meta_data": {
        "InChI": "InChI=1S/C23H24O6/c1-11(2)5-7-13-15(24)9-18-20(22(13)27)23(28)19-14(8-6-12(3)4)21(26)16(25)10-17(19)29-18/h5-6,9-10,24-27H,7-8H2,1-4H3",
        "InChIKey": null,
        "Canonical SMILES": "O=C1C2=C(O)C(=C(O)C=C2OC3=CC(O)=C(O)C(=C13)CC=C(C)C)CC=C(C)C",
        "Molecular Formula": "C<sub>23</sub>H<sub>24</sub>O<sub>6</sub>",
        "Molecular Mass": "396.43",
        "Melting Point": "206-208 °C"
    }
}