{
    "cas_no": "16947-80-1",
    "key_name": "<em>N</em>-[(1,1-Dimethylethoxy)carbonyl]-<em>S</em>-methyl-<span class=\"text-smallcaps\">L</span>-cysteine",
    "cn_name": "N-(叔丁氧羰基l)-S-甲基-L-半胱氨酸;",
    "alternate_name": "<span class=\"text-smallcaps\">L</span>-Cysteine, <em>N</em>-[(1,1-dimethylethoxy)carbonyl]-<em>S</em>-methyl-;Alanine, <em>N</em>-carboxy-3-(methylthio)-, <em>N</em>-<em>tert</em>-butyl ester, <span class=\"text-smallcaps\">L</span>-;<em>N</em>-[(1,1-Dimethylethoxy)carbonyl]-<em>S</em>-methyl-<span class=\"text-smallcaps\">L</span>-cysteine;<em>N</em>-<em>tert</em>-Butoxycarbonyl-<em>S</em>-methyl-<span class=\"text-smallcaps\">L</span>-cysteine;<em>N</em>-Boc-<em>S</em>-methylcysteine;Boc-<span class=\"text-smallcaps\">L</span>-Cys(Me)-OH;(2R)-2-[(2-Methylpropan-2-yl)oxycarbonylamino]-3-methylsulfanylpropanoic acid;(2R)-2-(<em>tert</em>-Butoxycarbonylamino)-3-methylsulfanyl-propanoic acid",
    "duplicated_cas_no": "",
    "SMILES": "[C@H](NC(OC(C)(C)C)=O)(CSC)C(O)=O",
    "meta_data": {
        "InChI": "InChI=1S/C9H17NO4S/c1-9(2,3)14-8(13)10-6(5-15-4)7(11)12/h6H,5H2,1-4H3,(H,10,13)(H,11,12)/t6-/m0/s1",
        "InChIKey": null,
        "Canonical SMILES": "O=C(OC(C)(C)C)NC(C(=O)O)CSC",
        "Molecular Formula": "C<sub>9</sub>H<sub>17</sub>NO<sub>4</sub>S",
        "Molecular Mass": "235.30",
        "Melting Point": "71-73 °C"
    }
}