{
    "cas_no": "3034-42-2",
    "key_name": "1-Methyl-5-nitroimidazole",
    "cn_name": null,
    "alternate_name": "1<em>H</em>-Imidazole, 1-methyl-5-nitro-;Imidazole, 1-methyl-5-nitro-;1-Methyl-5-nitro-1<em>H</em>-imidazole;1-Methyl-5-nitroimidazole;5-Nitro-1-methylimidazole",
    "duplicated_cas_no": "65103-62-0",
    "SMILES": "N(=O)(=O)C=1N(C)C=NC1",
    "meta_data": {
        "InChI": "InChI=1S/C4H5N3O2/c1-6-3-5-2-4(6)7(8)9/h2-3H,1H3",
        "InChIKey": null,
        "Canonical SMILES": "O=N(=O)C1=CN=CN1C",
        "Molecular Formula": "C<sub>4</sub>H<sub>5</sub>N<sub>3</sub>O<sub>2</sub>",
        "Molecular Mass": "127.10",
        "Melting Point": "135 °C"
    }
}