{
    "cas_no": "4415-87-6",
    "key_name": "Tetrahydrocyclobuta[1,2-<em>c</em>:3,4-<em>c</em>′]difuran-1,3,4,6-tetrone",
    "cn_name": "环丁烷四甲酸二酐;",
    "alternate_name": "Cyclobuta[1,2-<em>c</em>:3,4-<em>c</em>′]difuran-1,3,4,6-tetrone, tetrahydro-;Cyclobuta[1,2-<em>c</em>:3,4-<em>c</em>′]difurantetrone, tetrahydro-;1,2,3,4-Cyclobutanetetracarboxylic 1,2:3,4-dianhydride;1,2,3,4-Cyclobutanetetracarboxylic dianhydride;Tetrahydrocyclobuta[1,2-<em>c</em>:3,4-<em>c</em>′]difuran-1,3,4,6-tetrone;Cyclobutane-1,2,3,4-tetracarboxylic acid dianhydride;Maleic anhydride cyclic dimer;Cyclobutanetetracarboxylic dianhydride;Cyclobutanetetracarboxylic acid dianhydride;CBDA;1,2,3,4-Tetracarboxycyclobutane dianhydride;Cyclobutanetetracarboxylic anhydride",
    "duplicated_cas_no": "176035-53-3;1846573-16-7;2130010-19-2;2790519-96-7;2810742-36-8",
    "SMILES": "O=C1C2C3C(C2C(=O)O1)C(=O)OC3=O",
    "meta_data": {
        "InChI": "InChI=1S/C8H4O6/c9-5-1-2(6(10)13-5)4-3(1)7(11)14-8(4)12/h1-4H",
        "InChIKey": null,
        "Canonical SMILES": "O=C1OC(=O)C2C1C3C(=O)OC(=O)C23",
        "Molecular Formula": "C<sub>8</sub>H<sub>4</sub>O<sub>6</sub>",
        "Molecular Mass": "196.11",
        "Melting Point": "112 °C"
    }
}