{
    "cas_no": "1020251-53-9",
    "key_name": "Xanthoanthrafil",
    "cn_name": null,
    "alternate_name": "Benzamide, <em>N</em>-[(3,4-dimethoxyphenyl)methyl]-2-[(2-hydroxy-1-methylethyl)amino]-5-nitro-;<em>N</em>-[(3,4-Dimethoxyphenyl)methyl]-2-[(2-hydroxy-1-methylethyl)amino]-5-nitrobenzamide;Benzamidenafil;Xanthoanthrafil",
    "duplicated_cas_no": "",
    "SMILES": "C(NCC1=CC(OC)=C(OC)C=C1)(=O)C2=C(NC(CO)C)C=CC(N(=O)=O)=C2",
    "meta_data": {
        "InChI": "InChI=1S/C19H23N3O6/c1-12(11-23)21-16-6-5-14(22(25)26)9-15(16)19(24)20-10-13-4-7-17(27-2)18(8-13)28-3/h4-9,12,21,23H,10-11H2,1-3H3,(H,20,24)",
        "InChIKey": null,
        "Canonical SMILES": "O=C(NCC1=CC=C(OC)C(OC)=C1)C2=CC(=CC=C2NC(C)CO)N(=O)=O",
        "Molecular Formula": "C<sub>19</sub>H<sub>23</sub>N<sub>3</sub>O<sub>6</sub>",
        "Molecular Mass": "389.40",
        "Melting Point": "125-126 °C"
    }
}