{
    "cas_no": "139-66-2",
    "key_name": "Diphenyl sulfide",
    "cn_name": "二苯硫醚;苯硫醚;二苯基硫;",
    "alternate_name": "Benzene, 1,1′-thiobis-;Phenyl sulfide;1,1′-Thiobis[benzene];Diphenyl sulfide;Diphenyl sulphide;Diphenyl thioether;Diphenyl monosulfide;Diphenylmercaptan;Phenylthiobenzene;NSC 4568;Diphenylsulfane;(Phenylsulfanyl)benzene",
    "duplicated_cas_no": "",
    "SMILES": "S(C1=CC=CC=C1)C2=CC=CC=C2",
    "meta_data": {
        "InChI": "InChI=1S/C12H10S/c1-3-7-11(8-4-1)13-12-9-5-2-6-10-12/h1-10H",
        "InChIKey": null,
        "Canonical SMILES": "S(C=1C=CC=CC1)C=2C=CC=CC2",
        "Molecular Formula": "C<sub>12</sub>H<sub>10</sub>S",
        "Molecular Mass": "186.27",
        "Boiling Point": "296 °C",
        "Melting Point": "-25.9 °C",
        "Density": "1.1136 g/cm³ @ Temp: 20 °C"
    }
}