{
    "cas_no": "4214-28-2",
    "key_name": "1-Iodo-2,4-dimethylbenzene",
    "cn_name": "2,4-二甲基-1-碘苯;4-碘间二甲苯;",
    "alternate_name": "Benzene, 1-iodo-2,4-dimethyl-;<em>m</em>-Xylene, 4-iodo-;1-Iodo-2,4-dimethylbenzene;2,4-Dimethyliodobenzene;1,3-Dimethyl-4-iodobenzene;4-Iodo-1,3-dimethylbenzene;4-Iodo-<em>m</em>-xylene;NSC 3780;2,4-Dimethylphenyl iodide",
    "duplicated_cas_no": "",
    "SMILES": "CC1=C(I)C=CC(C)=C1",
    "meta_data": {
        "InChI": "InChI=1S/C8H9I/c1-6-3-4-8(9)7(2)5-6/h3-5H,1-2H3",
        "InChIKey": null,
        "Canonical SMILES": "IC1=CC=C(C=C1C)C",
        "Molecular Formula": "C<sub>8</sub>H<sub>9</sub>I",
        "Molecular Mass": "232.06",
        "Boiling Point": "227-229 °C",
        "Melting Point": "70-80 °C"
    }
}