{
    "cas_no": "504-31-4",
    "key_name": "2<em>H</em>-Pyran-2-one",
    "cn_name": "α-吡喃酮;2氢-吡喃-2酮;2H-吡喃-2-酮;Α-哌喃酮;闊馬靈;Α-哌喃酮;哌哢;",
    "alternate_name": "2<em>H</em>-Pyran-2-one;1,2-Pyrone;Coumalin;2,4-Pentadienoic acid, 5-hydroxy-, δ-lactone;α-Pyrone;2-Pyrone;2<em>H</em>-Pyran, 2-oxo-;2-Pyranone",
    "duplicated_cas_no": "",
    "SMILES": "O=C1C=CC=CO1",
    "meta_data": {
        "InChI": "InChI=1S/C5H4O2/c6-5-3-1-2-4-7-5/h1-4H",
        "InChIKey": null,
        "Canonical SMILES": "O=C1OC=CC=C1",
        "Molecular Formula": "C<sub>5</sub>H<sub>4</sub>O<sub>2</sub>",
        "Molecular Mass": "96.08",
        "Boiling Point": "207.5 °C",
        "Melting Point": "8.5 °C",
        "Density": "1.198 g/cm³ @ Temp: 20 °C"
    }
}