{
    "cas_no": "1809-20-7",
    "key_name": "Diisopropyl phosphite",
    "cn_name": "亚磷酸二异丙酯;",
    "alternate_name": "Phosphonic acid, bis(1-methylethyl) ester;Phosphonic acid, diisopropyl ester;Isopropyl phosphonate ((C<sub>3</sub>H<sub>7</sub>O)<sub>2</sub>HPO);Diisopropyl phosphite;Diisopropyl phosphonate;Diisopropyl hydrogen phosphite;<em>O</em>,<em>O</em>-Diisopropyl phosphonate;Isopropyl phosphite ((C<sub>3</sub>H<sub>7</sub>O)<sub>2</sub>(HO)P);Bis(2-propyl) phosphite;Diisopropoxyphosphine oxide;NSC 82344;T 451;T 451 (antiwear additive);2-Propan-2-yloxyphosphonoyloxypropane",
    "duplicated_cas_no": "252375-76-1",
    "SMILES": "O(P(OC(C)C)=O)C(C)C",
    "meta_data": {
        "InChI": "InChI=1S/C6H15O3P/c1-5(2)8-10(7)9-6(3)4/h5-6,10H,1-4H3",
        "InChIKey": null,
        "Canonical SMILES": "O=P(OC(C)C)OC(C)C",
        "Molecular Formula": "C<sub>6</sub>H<sub>15</sub>O<sub>3</sub>P",
        "Molecular Mass": "166.16",
        "Boiling Point": "97 °C @ Press: 40 Torr",
        "Density": "1.020 g/cm³ @ Temp: 25 °C"
    }
}