{
    "cas_no": "15968-05-5",
    "key_name": "2,2′,6,6′-Tetrachlorobiphenyl",
    "cn_name": "2,2ˊ,6,6ˊ-四氯联苯;2,2ˊ,6,6ˊ-四氯联苯;",
    "alternate_name": "1,1′-Biphenyl, 2,2′,6,6′-tetrachloro-;Biphenyl, 2,2′,6,6′-tetrachloro-;2,2′,6,6′-Tetrachloro-1,1′-biphenyl;2,2′,6,6′-Tetrachlorobiphenyl;2,6,2′,6′-Tetrachlorobiphenyl;PCB 54",
    "duplicated_cas_no": "",
    "SMILES": "ClC1=C(C(Cl)=CC=C1)C2=C(Cl)C=CC=C2Cl",
    "meta_data": {
        "InChI": "InChI=1S/C12H6Cl4/c13-7-3-1-4-8(14)11(7)12-9(15)5-2-6-10(12)16/h1-6H",
        "InChIKey": null,
        "Canonical SMILES": "ClC1=CC=CC(Cl)=C1C=2C(Cl)=CC=CC2Cl",
        "Molecular Formula": "C<sub>12</sub>H<sub>6</sub>Cl<sub>4</sub>",
        "Molecular Mass": "291.99",
        "Melting Point": "198 °C"
    }
}