{
    "cas_no": "1197-18-8",
    "key_name": "Tranexamic acid",
    "cn_name": null,
    "alternate_name": "Cyclohexanecarboxylic acid, 4-(aminomethyl)-, <em>trans</em>-;<em>trans</em>-4-(Aminomethyl)cyclohexanecarboxylic acid;DV 79;AMCHA;Amikapron;<em>trans</em>-<em>p</em>-(Aminomethyl)cyclohexanecarboxylic acid;Tranexamic acid;Transamin;Anvitoff;<em>trans</em>-4-(Aminomethyl)-1-cyclohexanecarboxylic acid;Bay 3517;Cyklokapron;TAMCHA;<em>trans</em>-Amcha;Ugurol;Cyclocapron;Transamin S;Transamin G;<em>trans</em>-Tranexamic acid;AMCA;<em>t</em>-AMCHA;Xamig;Zataranax;Exacyl;CL 65336;Cyclokapron;4-<em>trans</em>-Aminomethylcyclohexanecarboxylic acid;Xed;Tranol;Haematrix;Transcam;HAKU;Amchafibrin;Lysteda;LB 1148;MeSH ID: D014148;ZINC ID: ZINC100007011;ZINC 100007011",
    "duplicated_cas_no": "1628783-16-3",
    "SMILES": "C(O)(=O)[C@H]1CC[C@H](CN)CC1",
    "meta_data": {
        "InChI": "InChI=1/C8H15NO2/c9-5-6-1-3-7(4-2-6)8(10)11/h6-7H,1-5,9H2,(H,10,11)/t6-,7-",
        "InChIKey": null,
        "Canonical SMILES": "O=C(O)C1CCC(CN)CC1",
        "Molecular Formula": "C<sub>8</sub>H<sub>15</sub>NO<sub>2</sub>",
        "Molecular Mass": "157.21",
        "Melting Point": "&gt;300 °C"
    }
}