{
    "cas_no": "7572-29-4",
    "key_name": "Ethyne, dichloro-",
    "cn_name": null,
    "alternate_name": "Ethyne, dichloro-;Acetylene, dichloro-;Dichloroacetylene;Dichloroethyne;1,2-Dichloroethyne;1,2-Dichloroacetylene",
    "duplicated_cas_no": "",
    "SMILES": "C(#CCl)Cl",
    "meta_data": {
        "InChI": "InChI=1S/C2Cl2/c3-1-2-4",
        "InChIKey": null,
        "Canonical SMILES": "ClC#CCl",
        "Molecular Formula": "C<sub>2</sub>Cl<sub>2</sub>",
        "Molecular Mass": "94.93",
        "Boiling Point": "33 °C",
        "Melting Point": "-66--64 °C",
        "Density": "1.261 g/cm³ @ Temp: 20 °C"
    }
}