{
    "cas_no": "143-27-1",
    "key_name": "Hexadecylamine",
    "cn_name": "十六胺;鲸蜡胺;棕榈胺;",
    "alternate_name": "1-Hexadecanamine;Hexadecylamine;Alamine 6;Cetylamine;<em>n</em>-Hexadecylamine;Palmitylamine;Armeen 16D;<em>n</em>-Cetylamine;Palmitamine;1-Hexadecylamine;1-Aminohexadecane;Monohexadecylamine;Alamine 6D;Nissan Amine PB;HDA;Amine PB;1-Hexadecanylamine;NSC 8489;OM 16C;Fentamine A 16",
    "duplicated_cas_no": "28319-20-2;146997-92-4",
    "SMILES": "C(CCCCCCCC)CCCCCCCN",
    "meta_data": {
        "InChI": "InChI=1S/C16H35N/c1-2-3-4-5-6-7-8-9-10-11-12-13-14-15-16-17/h2-17H2,1H3",
        "InChIKey": null,
        "Canonical SMILES": "NCCCCCCCCCCCCCCCC",
        "Molecular Formula": "C<sub>16</sub>H<sub>35</sub>N",
        "Molecular Mass": "241.46",
        "Boiling Point": "322.5 °C",
        "Melting Point": "46.8 °C"
    }
}