{
    "cas_no": "10203-28-8",
    "key_name": "(±)-2-Dodecanol",
    "cn_name": "2-十二醇;2-十二醇;Decyl methyl carbinol;",
    "alternate_name": "2-Dodecanol;(<em>RS</em>)-2-Dodecanol;(±)-2-Dodecanol;NSC 86142;2-Lauryl alcohol",
    "duplicated_cas_no": "93528-08-6",
    "SMILES": "C(CCCCCC)CCCC(C)O",
    "meta_data": {
        "InChI": "InChI=1S/C12H26O/c1-3-4-5-6-7-8-9-10-11-12(2)13/h12-13H,3-11H2,1-2H3",
        "InChIKey": null,
        "Canonical SMILES": "OC(C)CCCCCCCCCC",
        "Molecular Formula": "C<sub>12</sub>H<sub>26</sub>O",
        "Molecular Mass": "186.33",
        "Boiling Point": "252 °C",
        "Melting Point": "19 °C"
    }
}