{
    "cas_no": "13537-18-3",
    "key_name": "Thulium trichloride",
    "cn_name": "氯化铥(III);氯化铥(III)(无水);",
    "alternate_name": "Thulium chloride (TmCl<sub>3</sub>);Thulium trichloride;Thulium chloride;Thulium(III) chloride",
    "duplicated_cas_no": "",
    "SMILES": "[Tm](Cl)(Cl)Cl",
    "meta_data": {
        "InChI": "InChI=1S/3ClH.Tm/h3*1H;/q;;;+3/p-3",
        "InChIKey": null,
        "Canonical SMILES": "Cl[Tm](Cl)Cl",
        "Molecular Formula": "Cl<sub>3</sub>Tm",
        "Molecular Mass": "",
        "Boiling Point": "1488 °C",
        "Melting Point": "821 °C"
    }
}