{
    "cas_no": "495-71-6",
    "key_name": "1,4-Diphenyl-1,4-butanedione",
    "cn_name": "1,2-联苯甲酰乙烷;",
    "alternate_name": "1,4-Butanedione, 1,4-diphenyl-;1,4-Diphenyl-1,4-butanedione;Biphenacyl;Ethane, 1,2-dibenzoyl-;2,2′′-Biacetophenone;1,2-Dibenzoylethane;Dibenzoylethane;1,4-Diphenyl-1,4-butadione;1,4-Dioxo-1,4-diphenylbutane;NSC 402168",
    "duplicated_cas_no": "",
    "SMILES": "C(CCC(=O)C1=CC=CC=C1)(=O)C2=CC=CC=C2",
    "meta_data": {
        "InChI": "InChI=1S/C16H14O2/c17-15(13-7-3-1-4-8-13)11-12-16(18)14-9-5-2-6-10-14/h1-10H,11-12H2",
        "InChIKey": null,
        "Canonical SMILES": "O=C(C=1C=CC=CC1)CCC(=O)C=2C=CC=CC2",
        "Molecular Formula": "C<sub>16</sub>H<sub>14</sub>O<sub>2</sub>",
        "Molecular Mass": "238.28",
        "Melting Point": "144-145 °C"
    }
}