{
    "cas_no": "4753-75-7",
    "key_name": "<em>N</em>-Methyl-2-furanmethanamine",
    "cn_name": "N-甲基糠基胺;",
    "alternate_name": "2-Furanmethanamine, <em>N</em>-methyl-;Furfurylamine, <em>N</em>-methyl-;<em>N</em>-Methyl-2-furanmethanamine;<em>N</em>-Methylfurfurylamine;<em>N</em>-Furfuryl-<em>N</em>-methylamine;Methyl[(furan-2-yl)methyl]amine;NSC 78427;<em>N</em>-(Furan-2-ylmethyl)-<em>N</em>-methylamine;<em>N</em>-[(2-Furyl)methyl](methyl)amine;<em>N</em>-Methyl(furan-2-ylmethyl)amine;(2-Furanylmethyl)methylamine;1-(Furan-2-yl)-<em>N</em>-methylmethanamine;<em>N</em>-Methyl-<em>N</em>-(furan-2-ylmethyl)amine;2-((Methylamino)methyl)furan;(Furylmethyl)-methylamine",
    "duplicated_cas_no": "",
    "SMILES": "C(NC)C1=CC=CO1",
    "meta_data": {
        "InChI": "InChI=1S/C6H9NO/c1-7-5-6-3-2-4-8-6/h2-4,7H,5H2,1H3",
        "InChIKey": null,
        "Canonical SMILES": "O1C=CC=C1CNC",
        "Molecular Formula": "C<sub>6</sub>H<sub>9</sub>NO",
        "Molecular Mass": "111.14",
        "Boiling Point": "149 °C"
    }
}