{
    "cas_no": "611-10-9",
    "key_name": "Ethyl 2-oxocyclopentanecarboxylate",
    "cn_name": "2-氧代环戊羧酸乙酯;2-氧代环戊甲酸乙酯;环戊酮-2-羧酸乙酯;",
    "alternate_name": "Cyclopentanecarboxylic acid, 2-oxo-, ethyl ester;2-Carbethoxycyclopentanone;Ethyl 2-cyclopentanonecarboxylate;2-Carbethoxy-1-cyclopentanone;2-Cyclopentanonecarboxylic acid ethyl ester;α-(Carboethoxy)cyclopentanone;2-(Ethoxycarbonyl)cyclopentanone;Ethyl 2-oxo-1-cyclopentanecarboxylate;Ethyl 2-cyclopentanone-1-carboxylate;Ethyl 2-oxocyclopentanecarboxylate;Ethyl 1-oxocyclopentane-2-carboxylate;2-Oxocyclopentanecarboxylic acid ethyl ester;Ethyl 2-oxocyclopentanoate;2-(Ethoxycarbonyl)-1-cyclopentanone;(±)-2-Oxocyclopentanecarboxylic acid ethyl ester;Ethyl (±)-2-oxocyclopentanecarboxylate;1-Oxocyclopentane-2-carboxylic acid ethyl ester;NSC 22055;NSC 5658;2-Oxocyclopentane-1-carboxylic acid ethyl ester;Ethyl 2-oxocyclopentylcarboxylate",
    "duplicated_cas_no": "53229-92-8",
    "SMILES": "C(OCC)(=O)C1C(=O)CCC1",
    "meta_data": {
        "InChI": "InChI=1S/C8H12O3/c1-2-11-8(10)6-4-3-5-7(6)9/h6H,2-5H2,1H3",
        "InChIKey": null,
        "Canonical SMILES": "O=C(OCC)C1C(=O)CCC1",
        "Molecular Formula": "C<sub>8</sub>H<sub>12</sub>O<sub>3</sub>",
        "Molecular Mass": "156.18",
        "Boiling Point": "221 °C",
        "Density": "1.0800 g/cm³ @ Temp: 20 °C"
    }
}