{
    "cas_no": "3034-50-2",
    "key_name": "Imidazole-4-carboxaldehyde",
    "cn_name": "4-咪唑甲醛;咪唑-4-甲醛;4-甲酰基咪唑;",
    "alternate_name": "1<em>H</em>-Imidazole-5-carboxaldehyde;Imidazole-4-carboxaldehyde;1<em>H</em>-Imidazole-4-carboxaldehyde;Imidazole-4(<em>or</em> 5)-carboxaldehyde;4-Formylimidazole;4(5)-Imidazolecarboxaldehyde;1<em>H</em>-Imidazol-4-ylcarboxaldehyde;3<em>H</em>-Imidazole-4-carboxaldehyde;5-Imidazolecarboxaldehyde;NSC 400521;1<em>H</em>-Imidazol-4-carboxaldehyde;1H-Imidazole-4-carboxaldehyde;1<em>H</em>-Imidazol-5-carboxaldehyde;1<em>H</em>-Imidazole-5-carbaldehyde;1<em>H</em>-Imidazole-4-carbaldehyde",
    "duplicated_cas_no": "",
    "SMILES": "C(=O)C1=CN=CN1",
    "meta_data": {
        "InChI": "InChI=1S/C4H4N2O/c7-2-4-1-5-3-6-4/h1-3H,(H,5,6)",
        "InChIKey": null,
        "Canonical SMILES": "O=CC1=CN=CN1",
        "Molecular Formula": "C<sub>4</sub>H<sub>4</sub>N<sub>2</sub>O",
        "Molecular Mass": "96.09",
        "Melting Point": "173-174 °C"
    }
}