{
    "cas_no": "21003-46-3",
    "key_name": "(8β,11α,13<em>E</em>,15<em>S</em>)-11,15-Dihydroxy-9-oxoprost-13-en-1-oic acid",
    "cn_name": null,
    "alternate_name": "Prost-13-en-1-oic acid, 11,15-dihydroxy-9-oxo-, (8β,11α,13<em>E</em>,15<em>S</em>)-;Cyclopentaneheptanoic acid, 3-hydroxy-2-(3-hydroxy-1-octenyl)-5-oxo-, stereoisomer;(8β,11α,13<em>E</em>,15<em>S</em>)-11,15-Dihydroxy-9-oxoprost-13-en-1-oic acid;Ovinonic acid;8-Isoprostaglandin E<sub>1</sub>;Isoprostaglandin E<sub>1</sub>;8-<em>iso</em>-PGE<sub>1</sub>;11α,15-(<em>S</em>)-Dihydroxy-9-oxo-13-<em>trans</em>-8-isoprostenoic acid;8-Iso-PGE<sub>1</sub>",
    "duplicated_cas_no": "23756-23-2",
    "SMILES": "C(CCCCCC(O)=O)[C@H]1[C@@H](/C=C/[C@H](CCCCC)O)[C@H](O)CC1=O",
    "meta_data": {
        "InChI": "InChI=1S/C20H34O5/c1-2-3-6-9-15(21)12-13-17-16(18(22)14-19(17)23)10-7-4-5-8-11-20(24)25/h12-13,15-17,19,21,23H,2-11,14H2,1H3,(H,24,25)/b13-12+/t15-,16-,17+,19+/m0/s1",
        "InChIKey": null,
        "Canonical SMILES": "O=C(O)CCCCCCC1C(=O)CC(O)C1C=CC(O)CCCCC",
        "Molecular Formula": "C<sub>20</sub>H<sub>34</sub>O<sub>5</sub>",
        "Molecular Mass": "354.48",
        "Melting Point": "77-79 °C"
    }
}