{
    "cas_no": "5366-49-4",
    "key_name": "1-[(4-Methylphenyl)sulfonyl]-2-propanone",
    "cn_name": "对甲苯磺酰丙酮;",
    "alternate_name": "2-Propanone, 1-[(4-methylphenyl)sulfonyl]-;2-Propanone, 1-(<em>p</em>-tolylsulfonyl)-;2-Propanone, <em>p</em>-tolylsulfonyl-;1-[(4-Methylphenyl)sulfonyl]-2-propanone;(<em>p</em>-Tolylsulfonyl)acetone;1-Tosyl-2-propanone;1-(4-Toluenesulfonyl)-2-propanone;Tosylacetone;1-(4-Tolylsulfonyl)propan-2-one;1-[(4-Methylphenyl)sulfonyl]acetone;1-(<em>p</em>-Tolylsulfonyl)propan-2-one;1-(4-Methylphenyl)sulfonyl-2-propanone;1-(4-Methylbenzenesulfonyl)propan-2-one",
    "duplicated_cas_no": "",
    "SMILES": "S(CC(C)=O)(=O)(=O)C1=CC=C(C)C=C1",
    "meta_data": {
        "InChI": "InChI=1S/C10H12O3S/c1-8-3-5-10(6-4-8)14(12,13)7-9(2)11/h3-6H,7H2,1-2H3",
        "InChIKey": null,
        "Canonical SMILES": "O=C(C)CS(=O)(=O)C1=CC=C(C=C1)C",
        "Molecular Formula": "C<sub>10</sub>H<sub>12</sub>O<sub>3</sub>S",
        "Molecular Mass": "212.27",
        "Boiling Point": "167 °C @ Press: 0.1 Torr",
        "Melting Point": "51 °C"
    }
}