{
    "cas_no": "1123-19-9",
    "key_name": "3-Acetyldihydro-3-methyl-2(3<em>H</em>)-furanone",
    "cn_name": null,
    "alternate_name": "2(3<em>H</em>)-Furanone, 3-acetyldihydro-3-methyl-;Acetoacetic acid, 2-(2-hydroxyethyl)-2-methyl-, γ-lactone;3-Acetyldihydro-3-methyl-2(3<em>H</em>)-furanone;α-Acetyl-α-methyl-γ-butyrolactone;(±)-α-Acetyl-α-methyl-γ-butyrolactone;NSC 102767;3-Acetyl-3-methyltetrahydrofuran-2-one;3-Acetyl-3-methyl-dihydro-furan-2-one;3-Acetyl-3-methyldihydrofuran-2(3<em>H</em>)-one;3-Acetyl-3-methyloxolan-2-one",
    "duplicated_cas_no": "112606-99-2",
    "SMILES": "C(C)(=O)C1(C)C(=O)OCC1",
    "meta_data": {
        "InChI": "InChI=1S/C7H10O3/c1-5(8)7(2)3-4-10-6(7)9/h3-4H2,1-2H3",
        "InChIKey": null,
        "Canonical SMILES": "O=C1OCCC1(C(=O)C)C",
        "Molecular Formula": "C<sub>7</sub>H<sub>10</sub>O<sub>3</sub>",
        "Molecular Mass": "142.15",
        "Boiling Point": "99-99.5 °C @ Press: 6 Torr",
        "Density": "1.1464 g/cm³ @ Temp: 20 °C"
    }
}