{
    "cas_no": "5319-77-7",
    "key_name": "5-(Methylthio)-1,3,4-thiadiazol-2-amine",
    "cn_name": "2-氨基-5-(甲硫基)-1,3,4-噻二唑;2-氨基-5-甲基硫代-1,3,4-噻二唑;",
    "alternate_name": "1,3,4-Thiadiazol-2-amine, 5-(methylthio)-;1,3,4-Thiadiazole, 2-amino-5-(methylthio)-;5-(Methylthio)-1,3,4-thiadiazol-2-amine;2-Amino-5-(methylthio)-1,3,4-thiadiazole;2-Amino-5-methylthio-1,2,4-thiadiazol;2-Amino-5-methylmercapto-1,3,4-thiadiazole;5-(Methylthio)-2-amino-1,3,4-thiadiazole;5-Amino-2-(methylthio)-1,3,4-thiadiazole;NSC 67524;5-(Methylthio)-[1,3,4]thiadiazol-2-amine;2-Amino-5-(methylthio)thiadiazole;2-Amino-5-methylthio-1,3,4-thiadiazol",
    "duplicated_cas_no": "",
    "SMILES": "S(C)C=1SC(N)=NN1",
    "meta_data": {
        "InChI": "InChI=1S/C3H5N3S2/c1-7-3-6-5-2(4)8-3/h1H3,(H2,4,5)",
        "InChIKey": null,
        "Canonical SMILES": "N=1N=C(SC1SC)N",
        "Molecular Formula": "C<sub>3</sub>H<sub>5</sub>N<sub>3</sub>S<sub>2</sub>",
        "Molecular Mass": "147.22",
        "Melting Point": "177-178 °C"
    }
}