{
    "cas_no": "77123-56-9",
    "key_name": "3-Ethynylbenzaldehyde",
    "cn_name": null,
    "alternate_name": "Benzaldehyde, 3-ethynyl-;3-Ethynylbenzaldehyde;<em>m</em>-Ethynylbenzaldehyde;3-Formylphenylacetylene",
    "duplicated_cas_no": "",
    "SMILES": "C(#C)C1=CC(C=O)=CC=C1",
    "meta_data": {
        "InChI": "InChI=1S/C9H6O/c1-2-8-4-3-5-9(6-8)7-10/h1,3-7H",
        "InChIKey": null,
        "Canonical SMILES": "O=CC=1C=CC=C(C#C)C1",
        "Molecular Formula": "C<sub>9</sub>H<sub>6</sub>O",
        "Molecular Mass": "130.14",
        "Melting Point": "76-76.5 °C"
    }
}