{
    "cas_no": "33697-81-3",
    "key_name": "3-Chloro-4-hydroxyphenylacetic acid",
    "cn_name": "3-氯-4-羟基苯乙酸;",
    "alternate_name": "Benzeneacetic acid, 3-chloro-4-hydroxy-;Acetic acid, (3-chloro-4-hydroxyphenyl)-;3-Chloro-4-hydroxybenzeneacetic acid;3-Chloro-4-hydroxyphenylacetic acid;4-Hydroxy-3-chlorophenylacetic acid;2-(3-Chloro-4-hydroxyphenyl)acetic acid",
    "duplicated_cas_no": "",
    "SMILES": "C(C(O)=O)C1=CC(Cl)=C(O)C=C1",
    "meta_data": {
        "InChI": "InChI=1S/C8H7ClO3/c9-6-3-5(4-8(11)12)1-2-7(6)10/h1-3,10H,4H2,(H,11,12)",
        "InChIKey": null,
        "Canonical SMILES": "O=C(O)CC1=CC=C(O)C(Cl)=C1",
        "Molecular Formula": "C<sub>8</sub>H<sub>7</sub>ClO<sub>3</sub>",
        "Molecular Mass": "186.59",
        "Boiling Point": "140-160 °C @ Press: 0.05 Torr",
        "Melting Point": "107 °C"
    }
}