{
    "cas_no": "616-23-9",
    "key_name": "(±)-2,3-Dichloro-1-propanol",
    "cn_name": "2,3-二氯-1-丙醇;2,3-二氯丙醇;",
    "alternate_name": "1-Propanol, 2,3-dichloro-;2,3-Dichloro-1-propanol;Glycerol α,β-dichlorohydrin;α,β-Dichlorohydrin;β-Dichlorohydrin;Glycerol 1,2-dichlorohydrin;2,3-Dichloropropyl alcohol;β,γ-Dichlorohydrin;(±)-2,3-Dichloro-1-propanol;(<em>RS</em>)-2,3-Dichloro-1-propanol;2,3-Dichlorohydrin;1,2-Dichlorohydrin",
    "duplicated_cas_no": "82890-22-0",
    "SMILES": "C(CCl)(CO)Cl",
    "meta_data": {
        "InChI": "InChI=1S/C3H6Cl2O/c4-1-3(5)2-6/h3,6H,1-2H2",
        "InChIKey": null,
        "Canonical SMILES": "ClCC(Cl)CO",
        "Molecular Formula": "C<sub>3</sub>H<sub>6</sub>Cl<sub>2</sub>O",
        "Molecular Mass": "128.99",
        "Boiling Point": "183-185 °C",
        "Density": "1.3607 g/cm³ @ Temp: 20 °C"
    }
}