{
    "cas_no": "934-71-4",
    "key_name": "4-Bromophenyl methyl sulfoxide",
    "cn_name": null,
    "alternate_name": "Benzene, 1-bromo-4-(methylsulfinyl)-;Sulfoxide, <em>p</em>-bromophenyl methyl;1-Bromo-4-(methylsulfinyl)benzene;<em>p</em>-Bromophenyl methyl sulfoxide;Methyl 4-bromophenyl sulfoxide;4-Bromophenyl methyl sulfoxide;[(4-Bromophenyl)sulfinyl]methane;(±)-<em>p</em>-Bromophenyl methyl sulfoxide;4-Bromo(methylsulfinyl)benzene;Methyl <em>p</em>-bromophenyl sulfoxide;(±)-4-(Bromophenyl) methyl sulfoxide;1-Bromo-4-methanesulfinylbenzene",
    "duplicated_cas_no": "53990-28-6",
    "SMILES": "S(C)(=O)C1=CC=C(Br)C=C1",
    "meta_data": {
        "InChI": "InChI=1S/C7H7BrOS/c1-10(9)7-4-2-6(8)3-5-7/h2-5H,1H3",
        "InChIKey": null,
        "Canonical SMILES": "O=S(C1=CC=C(Br)C=C1)C",
        "Molecular Formula": "C<sub>7</sub>H<sub>7</sub>BrOS",
        "Molecular Mass": "219.10",
        "Melting Point": "86-87 °C"
    }
}