{
    "cas_no": "1675-69-0",
    "key_name": "Nonanedinitrile",
    "cn_name": "壬二氰;壬二腈;壬二氰;壬二氰,97%;",
    "alternate_name": "Nonanedinitrile;Azelanitrile;1,7-Dicyanoheptane;NSC 18521",
    "duplicated_cas_no": "",
    "SMILES": "C(CCCC#N)CCCC#N",
    "meta_data": {
        "InChI": "InChI=1S/C9H14N2/c10-8-6-4-2-1-3-5-7-9-11/h1-7H2",
        "InChIKey": null,
        "Canonical SMILES": "N#CCCCCCCCC#N",
        "Molecular Formula": "C<sub>9</sub>H<sub>14</sub>N<sub>2</sub>",
        "Molecular Mass": "150.22",
        "Boiling Point": "183 °C @ Press: 11 Torr",
        "Melting Point": "-22.01 °C",
        "Density": "0.929 g/cm³ @ Temp: 19 °C"
    }
}