{
    "cas_no": "52225-20-4",
    "key_name": "<span class=\"text-smallcaps\">DL</span>-α-Tocopherol acetate",
    "cn_name": "VE 维生素E-醋酸酯;",
    "alternate_name": "2<em>H</em>-1-Benzopyran-6-ol, 3,4-dihydro-2,5,7,8-tetramethyl-2-[(4<em>R</em>,8<em>R</em>)-4,8,12-trimethyltridecyl]-, 6-acetate, (2<em>R</em>)-<em>rel</em>-;2<em>H</em>-1-Benzopyran-6-ol, 3,4-dihydro-2,5,7,8-tetramethyl-2-(4,8,12-trimethyltridecyl)-, acetate, [2<em>R</em>*(4<em>R</em>*,8<em>R</em>*)]-(±)-;2<em>H</em>-1-Benzopyran-6-ol, 3,4-dihydro-2,5,7,8-tetramethyl-2-[(4<em>R</em>,8<em>R</em>)-4,8,12-trimethyltridecyl]-, acetate, (2<em>R</em>)-<em>rel</em>-;<span class=\"text-smallcaps\">DL</span>-α-Tocopherol acetate;<span class=\"text-smallcaps\">D</smallcap><smallcap>L</span>-α-Tocopheryl acetate;Ephynal;Syntopherol acetate;<em>dl</em>-α-Tocopherol acetate;<em>dl</em>-α-Tocopheryl acetate;(±)-α-Tocopherol acetate;<em>all</em>-<em>rac</em>-α-Tocopheryl acetate;Rovimix E 50SD;Toco500;E-Vimin;OptoVit E;<em>dl</em>-Vitamin E acetate;Vitagutt;Eusovit;Detulin;Rovimix E 50AS;SynAC;Rovimix E 50Ads;Evigen;Alfacol;Fertilvit;Gevex;α-Tocopherol acetate;α-Tocopheryl acetate;Tocopherol acetate;Diluvac Forte;Rovimix E 50;Rovimix E;Dry Vitamin E 50% CWS/A;Riken E Acetate 960;[2,5,7,8-Tetramethyl-2-(4,8,12-trimethyltridecyl)-3,4-dihydrochromen-6-yl] acetate",
    "duplicated_cas_no": "18920-61-1;54-22-8;133-80-2;1407-18-7",
    "SMILES": "CC1=C2C(=C(C)C(OC(C)=O)=C1C)CC[C@](CCC[C@@H](CCC[C@@H](CCCC(C)C)C)C)(C)O2",
    "meta_data": {
        "InChI": "InChI=1/C31H52O3/c1-21(2)13-10-14-22(3)15-11-16-23(4)17-12-19-31(9)20-18-28-26(7)29(33-27(8)32)24(5)25(6)30(28)34-31/h21-23H,10-20H2,1-9H3/t22-,23-,31-/s2",
        "InChIKey": null,
        "Canonical SMILES": "O=C(OC=1C(=C(C=2OC(C)(CCC2C1C)CCCC(C)CCCC(C)CCCC(C)C)C)C)C",
        "Molecular Formula": "C<sub>31</sub>H<sub>52</sub>O<sub>3</sub>",
        "Molecular Mass": "472.74",
        "Boiling Point": "184 °C @ Press: 0.01 Torr",
        "Melting Point": "-27.5 °C"
    }
}