{
    "cas_no": "27816-36-0",
    "key_name": "2-Chloropropanamide",
    "cn_name": "2-氯丙酰胺;",
    "alternate_name": "Propanamide, 2-chloro-;Propionamide, 2-chloro-;2-Chloropropanamide;α-Chloropropionamide;2-Chloropropionamide;NSC 401803;2-Chloropropionic acid amide",
    "duplicated_cas_no": "7474-02-4",
    "SMILES": "C(C(N)=O)(C)Cl",
    "meta_data": {
        "InChI": "InChI=1S/C3H6ClNO/c1-2(4)3(5)6/h2H,1H3,(H2,5,6)",
        "InChIKey": null,
        "Canonical SMILES": "O=C(N)C(Cl)C",
        "Molecular Formula": "C<sub>3</sub>H<sub>6</sub>ClNO",
        "Molecular Mass": "107.54",
        "Melting Point": "82 °C"
    }
}