{
    "cas_no": "35276-83-6",
    "key_name": "2-Methoxy-β-oxobenzenepropanenitrile",
    "cn_name": null,
    "alternate_name": "Benzenepropanenitrile, 2-methoxy-β-oxo-;Acetonitrile, <em>o</em>-anisoyl-;2-Methoxy-β-oxobenzenepropanenitrile;<em>o</em>-Anisoylacetonitrile;2-Methoxybenzoylacetonitrile;3-(2-Methoxyphenyl)-3-oxopropionitrile;3-(2-Methoxyphenyl)-3-oxopropanenitrile",
    "duplicated_cas_no": "",
    "SMILES": "C(CC#N)(=O)C1=C(OC)C=CC=C1",
    "meta_data": {
        "InChI": "InChI=1S/C10H9NO2/c1-13-10-5-3-2-4-8(10)9(12)6-7-11/h2-5H,6H2,1H3",
        "InChIKey": null,
        "Canonical SMILES": "N#CCC(=O)C=1C=CC=CC1OC",
        "Molecular Formula": "C<sub>10</sub>H<sub>9</sub>NO<sub>2</sub>",
        "Molecular Mass": "175.18",
        "Melting Point": "87 °C"
    }
}