{
    "cas_no": "438-41-5",
    "key_name": "Chlordiazepoxide hydrochloride",
    "cn_name": "盐酸氯氮卓;盐酸氯氮卓;",
    "alternate_name": "3<em>H</em>-1,4-Benzodiazepin-2-amine, 7-chloro-<em>N</em>-methyl-5-phenyl-, 4-oxide, hydrochloride (1:1);3<em>H</em>-1,4-Benzodiazepine, 7-chloro-2-(methylamino)-5-phenyl-, 4-oxide, monohydrochloride;3<em>H</em>-1,4-Benzodiazepin-2-amine, 7-chloro-<em>N</em>-methyl-5-phenyl-, 4-oxide, monohydrochloride;Ro 5-0690;Chlordiazepoxide hydrochloride;7-Chloro-2-(methylamino)-5-phenyl-3<em>H</em>-1,4-benzodiazepine-4-oxide hydrochloride;Librium hydrochloride;Methaminodiazepoxide hydrochloride;Chlordiazepoxide monohydrochloride;Librium;Contol;Chlorodiazepoxide hydrochloride;Disarim;Viansin;Equibral;Psicoterina;Labican;Cebrum;SK-Lygen;Corax;A-Poxide;Seren Vita;Ansiacal;NSC 115748;OCM;Reliberan;Psichial;Benzodiapin;Lentotran;Sigma C 2517",
    "duplicated_cas_no": "",
    "SMILES": "O=N1=C(C=2C(N=C(NC)C1)=CC=C(Cl)C2)C3=CC=CC=C3.Cl",
    "meta_data": {
        "InChI": "InChI=1S/C16H14ClN3O.ClH/c1-18-15-10-20(21)16(11-5-3-2-4-6-11)13-9-12(17)7-8-14(13)19-15;/h2-9H,10H2,1H3,(H,18,19);1H",
        "InChIKey": null,
        "Canonical SMILES": "Cl.O=N1=C(C=2C=CC=CC2)C=3C=C(Cl)C=CC3N=C(NC)C1",
        "Molecular Formula": "C<sub>16</sub>H<sub>14</sub>ClN<sub>3</sub>O.ClH",
        "Molecular Mass": "",
        "Melting Point": "213 °C"
    }
}