{
    "cas_no": "22884-29-3",
    "key_name": "Phosphonium, (2-methylpropyl)triphenyl-, bromide (1:1)",
    "cn_name": "异丁基三苯基溴化膦;",
    "alternate_name": "Phosphonium, (2-methylpropyl)triphenyl-, bromide (1:1);Phosphonium, isobutyltriphenyl-, bromide;Phosphonium, (2-methylpropyl)triphenyl-, bromide;Isobutyltriphenylphosphonium bromide;2-Methylpropyltriphenylphosphonium bromide",
    "duplicated_cas_no": "1228757-20-7;2231637-56-0",
    "SMILES": "[P+](CC(C)C)(C1=CC=CC=C1)(C2=CC=CC=C2)C3=CC=CC=C3.[Br-]",
    "meta_data": {
        "InChI": "InChI=1S/C22H24P.BrH/c1-19(2)18-23(20-12-6-3-7-13-20,21-14-8-4-9-15-21)22-16-10-5-11-17-22;/h3-17,19H,18H2,1-2H3;1H/q+1;/p-1",
        "InChIKey": null,
        "Canonical SMILES": "[Br-].C=1C=CC(=CC1)[P+](C=2C=CC=CC2)(C=3C=CC=CC3)CC(C)C",
        "Molecular Formula": "C<sub>22</sub>H<sub>24</sub>P.Br",
        "Molecular Mass": "",
        "Melting Point": "198-202 °C"
    }
}