{
    "cas_no": "15318-45-3",
    "key_name": "Thiamphenicol",
    "cn_name": null,
    "alternate_name": "Acetamide, 2,2-dichloro-<em>N</em>-[(1<em>R</em>,2<em>R</em>)-2-hydroxy-1-(hydroxymethyl)-2-[4-(methylsulfonyl)phenyl]ethyl]-;Acetamide, 2,2-dichloro-<em>N</em>-[β-hydroxy-α-(hydroxymethyl)-<em>p</em>-(methylsulfonyl)phenethyl]-, <span class=\"text-smallcaps\">D</span>-<em>threo</em>-(+)-;Acetamide, 2,2-dichloro-<em>N</em>-[2-hydroxy-1-(hydroxymethyl)-2-[4-(methylsulfonyl)phenyl]ethyl]-, [<em>R</em>-(<em>R</em>*,<em>R</em>*)]-;2,2-Dichloro-<em>N</em>-[(1<em>R</em>,2<em>R</em>)-2-hydroxy-1-(hydroxymethyl)-2-[4-(methylsulfonyl)phenyl]ethyl]acetamide;(Methylsulfonyl)chloramphenicol;8065CB;Win 5063-2;Dextrosulphenidol;<span class=\"text-smallcaps\">D</span>-<em>d</em>-<em>threo</em>-2-Dichloroacetamido-1-(4-methylsulfonylphenyl)-1,3-propanediol;Thiamphenicol;<span class=\"text-smallcaps\">D</span>-Thiocymetin;<span class=\"text-smallcaps\">D</span>-Thiophenicol;Thiocymetin;Thiophenicol;<span class=\"text-smallcaps\">D</span>-<em>threo</em>-(1<em>R</em>,2<em>R</em>)-1-(<em>p</em>-Methylsulfonylphenyl)-2-dichloroacetamido-1,3-propanediol;(+)-Thiamphenicol;NSC 522822;Tirsan;(2′<em>R</em>,3′<em>R</em>)-Thiamphenicol;MeSH ID: D013839",
    "duplicated_cas_no": "90-91-5;3785-14-6;14786-51-7;32430-04-9",
    "SMILES": "[C@@H]([C@H](NC(C(Cl)Cl)=O)CO)(O)C1=CC=C(S(C)(=O)=O)C=C1",
    "meta_data": {
        "InChI": "InChI=1S/C12H15Cl2NO5S/c1-21(19,20)8-4-2-7(3-5-8)10(17)9(6-16)15-12(18)11(13)14/h2-5,9-11,16-17H,6H2,1H3,(H,15,18)/t9-,10-/m1/s1",
        "InChIKey": null,
        "Canonical SMILES": "O=C(NC(CO)C(O)C1=CC=C(C=C1)S(=O)(=O)C)C(Cl)Cl",
        "Molecular Formula": "C<sub>12</sub>H<sub>15</sub>Cl<sub>2</sub>NO<sub>5</sub>S",
        "Molecular Mass": "356.22",
        "Melting Point": "165.3 °C",
        "Density": "1.55 g/cm³"
    }
}