{
    "cas_no": "24916-90-3",
    "key_name": "Dexamethasone 9,11-epoxide",
    "cn_name": "地塞米松环氧水解物;",
    "alternate_name": "Pregna-1,4-diene-3,20-dione, 9,11-epoxy-17,21-dihydroxy-16-methyl-, (9β,11β,16α)-;9β-Pregna-1,4-diene-3,20-dione, 9,11β-epoxy-17,21-dihydroxy-16α-methyl-;(9β,11β,16α)-9,11-Epoxy-17,21-dihydroxy-16-methylpregna-1,4-diene-3,20-dione;Dexamethasone 9,11-epoxide;(9b,11b,16a)-9,11-Epoxy-17,21-dihydroxy-16-methyl-pregna-1,4-diene-3,20-dione",
    "duplicated_cas_no": "",
    "SMILES": "C[C@@]12[C@@]34[C@]([C@]5([C@](C)(C[C@@]3(O4)[H])[C@](C(CO)=O)(O)[C@H](C)C5)[H])(CCC1=CC(=O)C=C2)[H]",
    "meta_data": {
        "InChI": "InChI=1S/C22H28O5/c1-12-8-16-15-5-4-13-9-14(24)6-7-19(13,2)22(15)18(27-22)10-20(16,3)21(12,26)17(25)11-23/h6-7,9,12,15-16,18,23,26H,4-5,8,10-11H2,1-3H3/t12-,15+,16+,18+,19+,20+,21+,22-/m1/s1",
        "InChIKey": null,
        "Canonical SMILES": "O=C1C=CC2(C(=C1)CCC3C4CC(C)C(O)(C(=O)CO)C4(C)CC5OC532)C",
        "Molecular Formula": "C<sub>22</sub>H<sub>28</sub>O<sub>5</sub>",
        "Molecular Mass": "372.45",
        "Melting Point": "238-239.5 °C"
    }
}