{
    "cas_no": "16714-68-4",
    "key_name": "1,1,2,2,3-Pentachloropropane",
    "cn_name": null,
    "alternate_name": "Propane, 1,1,2,2,3-pentachloro-;1,1,2,2,3-Pentachloropropane;HCC 240aa",
    "duplicated_cas_no": "",
    "SMILES": "C(C(Cl)Cl)(CCl)(Cl)Cl",
    "meta_data": {
        "InChI": "InChI=1S/C3H3Cl5/c4-1-3(7,8)2(5)6/h2H,1H2",
        "InChIKey": null,
        "Canonical SMILES": "ClCC(Cl)(Cl)C(Cl)Cl",
        "Molecular Formula": "C<sub>3</sub>H<sub>3</sub>Cl<sub>5</sub>",
        "Molecular Mass": "216.32",
        "Boiling Point": "191.0-191.5 °C @ Press: 755 Torr",
        "Density": "1.6326 g/cm³ @ Temp: 25 °C"
    }
}