{
    "cas_no": "252049-08-4",
    "key_name": "(2<em>S</em>)-2-[[(9<em>H</em>-Fluoren-9-ylmethoxy)carbonyl]amino]-4-[[(phenylmethoxy)carbonyl]amino]butanoic acid",
    "cn_name": "N-芴甲氧羰基-N\"-苄氧羰基-L-2,4-二氨基丁酸;",
    "alternate_name": "Butanoic acid, 2-[[(9<em>H</em>-fluoren-9-ylmethoxy)carbonyl]amino]-4-[[(phenylmethoxy)carbonyl]amino]-, (2<em>S</em>)-;(2<em>S</em>)-2-[[(9<em>H</em>-Fluoren-9-ylmethoxy)carbonyl]amino]-4-[[(phenylmethoxy)carbonyl]amino]butanoic acid;(<em>S</em>)-2-((((9<em>H</em>-Fluoren-9-yl)methoxy)carbonyl)amino)-4-(((benzyloxy)carbonyl)amino)butanoic acid",
    "duplicated_cas_no": "",
    "SMILES": "C(OC(N[C@@H](CCNC(OCC1=CC=CC=C1)=O)C(O)=O)=O)C2C=3C(C=4C2=CC=CC4)=CC=CC3",
    "meta_data": {
        "InChI": "InChI=1S/C27H26N2O6/c30-25(31)24(14-15-28-26(32)34-16-18-8-2-1-3-9-18)29-27(33)35-17-23-21-12-6-4-10-19(21)20-11-5-7-13-22(20)23/h1-13,23-24H,14-17H2,(H,28,32)(H,29,33)(H,30,31)/t24-/m0/s1",
        "InChIKey": null,
        "Canonical SMILES": "O=C(OCC=1C=CC=CC1)NCCC(NC(=O)OCC2C=3C=CC=CC3C=4C=CC=CC42)C(=O)O",
        "Molecular Formula": "C<sub>27</sub>H<sub>26</sub>N<sub>2</sub>O<sub>6</sub>",
        "Molecular Mass": "474.51",
        "Melting Point": "118 °C"
    }
}