{
    "cas_no": "485-72-3",
    "key_name": "Formononetin",
    "cn_name": "刺芒柄花素;7-羟基-3-(4-甲氧基苯基)色酮;",
    "alternate_name": "4<em>H</em>-1-Benzopyran-4-one, 7-hydroxy-3-(4-methoxyphenyl)-;Formononetin;Isoflavone, 7-hydroxy-4′-methoxy-;7-Hydroxy-3-(4-methoxyphenyl)-4<em>H</em>-1-benzopyran-4-one;7-Hydroxy-4′-methoxyisoflavone;Biochanin B;Formononetol;Daidzein 4′-methyl ether;NSC 93360;Flavosil;Formonetin;7-Hydroxy-3-(4-methoxyphenyl)chromen-4-one;Myconate;Formonentin;6-Demethoxyafromosin;Mycotech;Myconate HB;Neochanin",
    "duplicated_cas_no": "",
    "SMILES": "O=C1C(=COC=2C1=CC=C(O)C2)C3=CC=C(OC)C=C3",
    "meta_data": {
        "InChI": "InChI=1S/C16H12O4/c1-19-12-5-2-10(3-6-12)14-9-20-15-8-11(17)4-7-13(15)16(14)18/h2-9,17H,1H3",
        "InChIKey": null,
        "Canonical SMILES": "O=C1C(=COC2=CC(O)=CC=C21)C=3C=CC(OC)=CC3",
        "Molecular Formula": "C<sub>16</sub>H<sub>12</sub>O<sub>4</sub>",
        "Molecular Mass": "268.26",
        "Melting Point": "256.5 °C"
    }
}