{
    "cas_no": "6770-38-3",
    "key_name": "1,4-Bis(methoxymethyl)benzene",
    "cn_name": "对苯二甲基二甲醚;",
    "alternate_name": "Benzene, 1,4-bis(methoxymethyl)-;<em>p</em>-Xylene, α,α′-dimethoxy-;1,4-Bis(methoxymethyl)benzene;<em>p</em>-Xylylene glycol dimethyl ether;α,α′-Dimethoxy-1,4-xylene;α,α′-Dimethoxy-<em>p</em>-xylene;NSC 137830;PXDM;<em>p</em>-Xylene glycol dimethyl ether",
    "duplicated_cas_no": "52007-29-1",
    "SMILES": "C(OC)C1=CC=C(COC)C=C1",
    "meta_data": {
        "InChI": "InChI=1S/C10H14O2/c1-11-7-9-3-5-10(6-4-9)8-12-2/h3-6H,7-8H2,1-2H3",
        "InChIKey": null,
        "Canonical SMILES": "O(C)CC1=CC=C(C=C1)COC",
        "Molecular Formula": "C<sub>10</sub>H<sub>14</sub>O<sub>2</sub>",
        "Molecular Mass": "166.22",
        "Boiling Point": "97-100 °C @ Press: 8 Torr",
        "Melting Point": "114-116 °C"
    }
}