{
    "cas_no": "16849-88-0",
    "key_name": "[(Dimethylamino)methylene]propanedinitrile",
    "cn_name": "(二甲基氨亚甲基)丙二腈;",
    "alternate_name": "Propanedinitrile, 2-[(dimethylamino)methylene]-;Malononitrile, [(dimethylamino)methylene]-;Propanedinitrile, [(dimethylamino)methylene]-;2-[(Dimethylamino)methylene]propanedinitrile;[(Dimethylamino)methylene]malononitrile;[(Dimethylamino)methylene]propanedinitrile;NSC 168421;2-[(Dimethylamino)methylidene]propanedinitrile;2-(Dimethylaminomethylidene)propanedinitrile",
    "duplicated_cas_no": "",
    "SMILES": "C(=CN(C)C)(C#N)C#N",
    "meta_data": {
        "InChI": "InChI=1S/C6H7N3/c1-9(2)5-6(3-7)4-8/h5H,1-2H3",
        "InChIKey": null,
        "Canonical SMILES": "N#CC(C#N)=CN(C)C",
        "Molecular Formula": "C<sub>6</sub>H<sub>7</sub>N<sub>3</sub>",
        "Molecular Mass": "121.14",
        "Boiling Point": "155-160 °C @ Press: 0.3 Torr",
        "Melting Point": "82-83 °C"
    }
}