{
    "cas_no": "951-82-6",
    "key_name": "3,4,5-Trimethoxyphenylacetic acid",
    "cn_name": "3,4,5-三甲氧基苯乙酸;",
    "alternate_name": "Benzeneacetic acid, 3,4,5-trimethoxy-;Acetic acid, (3,4,5-trimethoxyphenyl)-;3,4,5-Trimethoxybenzeneacetic acid;3,4,5-Trimethoxyphenylacetic acid;NSC 130961;NSC 91017;2-(3,4,5-Trimethoxyphenyl)acetic acid",
    "duplicated_cas_no": "",
    "SMILES": "O(C)C1=C(OC)C(OC)=CC(CC(O)=O)=C1",
    "meta_data": {
        "InChI": "InChI=1S/C11H14O5/c1-14-8-4-7(6-10(12)13)5-9(15-2)11(8)16-3/h4-5H,6H2,1-3H3,(H,12,13)",
        "InChIKey": null,
        "Canonical SMILES": "O=C(O)CC1=CC(OC)=C(OC)C(OC)=C1",
        "Molecular Formula": "C<sub>11</sub>H<sub>14</sub>O<sub>5</sub>",
        "Molecular Mass": "226.23",
        "Melting Point": "121 °C"
    }
}