{
    "cas_no": "6284-40-8",
    "key_name": "<em>N</em>-Methyl-<span class=\"text-smallcaps\">D</span>-glucamine",
    "cn_name": "葡甲胺;N-甲基-D-葡糖胺;",
    "alternate_name": "<span class=\"text-smallcaps\">D</span>-Glucitol, 1-deoxy-1-(methylamino)-;Glucitol, 1-deoxy-1-(methylamino)-, <span class=\"text-smallcaps\">D</span>-;Sorbitol, 1-deoxy-1-methylamino-;1-Deoxy-1-(methylamino)-<span class=\"text-smallcaps\">D</span>-glucitol;<em>N</em>-Methyl-<span class=\"text-smallcaps\">D</span>-glucamine;Meglumine;<em>N</em>-Methylglucamine;Methylglucamine;1-Deoxy-1-methylaminosorbitol;Meglumin;Methylglucamin;<span class=\"text-smallcaps\">D</span>-(-)-<em>N</em>-Methylglucamine;<em>N</em>-Methyl-<span class=\"text-smallcaps\">D</span>(-)-glucamine;<em>N</em>-Methylsorbitylamine;NSC 52907;NSC 7391;(2<em>R</em>,3<em>R</em>,4<em>R</em>,5<em>S</em>)-6-Methylaminohexane-1,2,3,4,5-pentaol;<em>N</em>,<em>N</em>-Methyl-2,7-octadienylglucamine;Emprove",
    "duplicated_cas_no": "133-52-8;31566-24-2;45081-44-5;50560-29-7;53418-31-8;61919-50-4;97780-33-1;131133-75-0;131337-57-0;168828-98-6;170034-45-4;184169-59-3;224432-61-5;768396-31-2;887770-59-4;901768-29-4;2230289-31-1",
    "SMILES": "[C@H]([C@@H]([C@@H](CO)O)O)([C@H](CNC)O)O",
    "meta_data": {
        "InChI": "InChI=1S/C7H17NO5/c1-8-2-4(10)6(12)7(13)5(11)3-9/h4-13H,2-3H2,1H3/t4-,5+,6+,7+/m0/s1",
        "InChIKey": null,
        "Canonical SMILES": "OCC(O)C(O)C(O)C(O)CNC",
        "Molecular Formula": "C<sub>7</sub>H<sub>17</sub>NO<sub>5</sub>",
        "Molecular Mass": "195.21",
        "Melting Point": "128.5 °C"
    }
}