{
    "cas_no": "5722-11-2",
    "key_name": "2,2-Dimethylcyclopropanecarbonitrile",
    "cn_name": "2,2-二甲基环丙腈;",
    "alternate_name": "Cyclopropanecarbonitrile, 2,2-dimethyl-;2,2-Dimethylcyclopropanecarbonitrile;2,2-Dimethylcyclopropyl cyanide;NSC 92356;2,2-Dimethylcyclopropane-1-carbonitrile",
    "duplicated_cas_no": "157728-61-5",
    "SMILES": "C(#N)C1C(C)(C)C1",
    "meta_data": {
        "InChI": "InChI=1S/C6H9N/c1-6(2)3-5(6)4-7/h5H,3H2,1-2H3",
        "InChIKey": null,
        "Canonical SMILES": "N#CC1CC1(C)C",
        "Molecular Formula": "C<sub>6</sub>H<sub>9</sub>N",
        "Molecular Mass": "95.14",
        "Boiling Point": "154.4-155.5 °C",
        "Density": "0.8536 g/cm³ @ Temp: 20 °C"
    }
}