{
    "cas_no": "26847-01-8",
    "key_name": "2-Chloro-4-methylthiazole",
    "cn_name": "2-氯-4-甲基噻唑;",
    "alternate_name": "Thiazole, 2-chloro-4-methyl-;2-Chloro-4-methylthiazole;4-Methyl-2-chlorothiazole;2-Chloro-4-methyl-1,3-thiazole;2-Chloro-4-methyl-1,3-thiazol",
    "duplicated_cas_no": "",
    "SMILES": "CC=1N=C(Cl)SC1",
    "meta_data": {
        "InChI": "InChI=1S/C4H4ClNS/c1-3-2-7-4(5)6-3/h2H,1H3",
        "InChIKey": null,
        "Canonical SMILES": "ClC1=NC(=CS1)C",
        "Molecular Formula": "C<sub>4</sub>H<sub>4</sub>ClNS",
        "Molecular Mass": "133.60",
        "Boiling Point": "69 °C @ Press: 14 Torr",
        "Density": "1.2992 g/cm³ @ Temp: 15 °C"
    }
}