{
    "cas_no": "1878-67-7",
    "key_name": "3-Bromophenylacetic acid",
    "cn_name": "3-溴苯乙酸;间溴苯乙酸;",
    "alternate_name": "Benzeneacetic acid, 3-bromo-;Acetic acid, (<em>m</em>-bromophenyl)-;3-Bromobenzeneacetic acid;3-Bromophenylacetic acid;(<em>m</em>-Bromophenyl)acetic acid;2-(3-Bromophenyl)acetic acid",
    "duplicated_cas_no": "",
    "SMILES": "C(C(O)=O)C1=CC(Br)=CC=C1",
    "meta_data": {
        "InChI": "InChI=1S/C8H7BrO2/c9-7-3-1-2-6(4-7)5-8(10)11/h1-4H,5H2,(H,10,11)",
        "InChIKey": null,
        "Canonical SMILES": "O=C(O)CC=1C=CC=C(Br)C1",
        "Molecular Formula": "C<sub>8</sub>H<sub>7</sub>BrO<sub>2</sub>",
        "Molecular Mass": "215.04",
        "Melting Point": "100-102 °C"
    }
}