{
    "cas_no": "565-64-0",
    "key_name": "2,3-Dichloropropionic acid",
    "cn_name": "2,3-二氯丙酸;",
    "alternate_name": "Propanoic acid, 2,3-dichloro-;Propionic acid, 2,3-dichloro-;2,3-Dichloropropanoic acid;2,3-Dichloropropionic acid;α,β-Dichloropropionic acid;NSC 60521",
    "duplicated_cas_no": "128475-09-2",
    "SMILES": "C(C(O)=O)(CCl)Cl",
    "meta_data": {
        "InChI": "InChI=1S/C3H4Cl2O2/c4-1-2(5)3(6)7/h2H,1H2,(H,6,7)",
        "InChIKey": null,
        "Canonical SMILES": "O=C(O)C(Cl)CCl",
        "Molecular Formula": "C<sub>3</sub>H<sub>4</sub>Cl<sub>2</sub>O<sub>2</sub>",
        "Molecular Mass": "142.97",
        "Boiling Point": "210 °C",
        "Melting Point": "50 °C"
    }
}