{
    "cas_no": "645-12-5",
    "key_name": "5-Nitro-2-furoic acid",
    "cn_name": "5-硝基-2-糠酸;5-硝基-2-呋喃甲酸;",
    "alternate_name": "2-Furancarboxylic acid, 5-nitro-;2-Furoic acid, 5-nitro-;5-Nitro-2-furancarboxylic acid;5-Nitrofuroic acid;Nitrofuroic acid;5-Nitro-2-furoic acid;Nitrofurate;5-Nitropyromucic acid;5-Nitro-2-furylcarboxylic acid;NSC 6452",
    "duplicated_cas_no": "",
    "SMILES": "C(O)(=O)C=1OC(N(=O)=O)=CC1",
    "meta_data": {
        "InChI": "InChI=1S/C5H3NO5/c7-5(8)3-1-2-4(11-3)6(9)10/h1-2H,(H,7,8)",
        "InChIKey": null,
        "Canonical SMILES": "O=C(O)C=1OC(=CC1)N(=O)=O",
        "Molecular Formula": "C<sub>5</sub>H<sub>3</sub>NO<sub>5</sub>",
        "Molecular Mass": "157.08",
        "Melting Point": "186 °C"
    }
}