{
    "cas_no": "16208-21-2",
    "key_name": "2,2-Dihydroxy-1-(2-naphthalenyl)ethanone",
    "cn_name": null,
    "alternate_name": "Ethanone, 2,2-dihydroxy-1-(2-naphthalenyl)-;2′-Acetonaphthone, 2,2-dihydroxy-;2,2-Dihydroxy-1-(2-naphthalenyl)ethanone;2,2-Dihydroxy-2′-acetonaphthone;2,2-Dihydroxy-1-(naphthalen-2-yl)ethanone;2-Naphthylglyoxal hydrate",
    "duplicated_cas_no": "",
    "SMILES": "C(C(O)O)(=O)C1=CC2=C(C=C1)C=CC=C2",
    "meta_data": {
        "InChI": "InChI=1S/C12H10O3/c13-11(12(14)15)10-6-5-8-3-1-2-4-9(8)7-10/h1-7,12,14-15H",
        "InChIKey": null,
        "Canonical SMILES": "O=C(C=1C=CC=2C=CC=CC2C1)C(O)O",
        "Molecular Formula": "C<sub>12</sub>H<sub>10</sub>O<sub>3</sub>",
        "Molecular Mass": "202.21",
        "Melting Point": "84-86 °C"
    }
}