{
    "cas_no": "814-78-8",
    "key_name": "3-Methyl-3-buten-2-one",
    "cn_name": "3-甲基-3-丁烯-2-酮;甲基异丙烯基甲酮;",
    "alternate_name": "3-Buten-2-one, 3-methyl-;3-Methyl-3-buten-2-one;Isopropenyl methyl ketone;2-Methyl-1-buten-3-one;Methyl isopropenyl ketone;3-Methylene-2-butanone;Propen-2-yl methyl ketone;NSC 24150",
    "duplicated_cas_no": "",
    "SMILES": "C(C(C)=O)(C)=C",
    "meta_data": {
        "InChI": "InChI=1S/C5H8O/c1-4(2)5(3)6/h1H2,2-3H3",
        "InChIKey": null,
        "Canonical SMILES": "O=C(C(=C)C)C",
        "Molecular Formula": "C<sub>5</sub>H<sub>8</sub>O",
        "Molecular Mass": "84.12",
        "Boiling Point": "98 °C",
        "Melting Point": "-54 °C",
        "Density": "0.8527 g/cm³ @ Temp: 20 °C"
    }
}