{
    "cas_no": "604-53-5",
    "key_name": "1,1′-Binaphthyl",
    "cn_name": "1,1\"-联萘;",
    "alternate_name": "1,1′-Binaphthalene;1,1′-Binaphthyl;α,α′-Binaphthyl;(±)Binaphthyl;(±)-1,1′-Binaphthyl;Racemic 1,1′-binaphthyl;NSC 15230;NSC 662279;1-Naphthalen-1-ylnaphthalene",
    "duplicated_cas_no": "32507-32-7",
    "SMILES": "C=1(C2=C(C=CC1)C=CC=C2)C=3C4=C(C=CC3)C=CC=C4",
    "meta_data": {
        "InChI": "InChI=1S/C20H14/c1-3-11-17-15(7-1)9-5-13-19(17)20-14-6-10-16-8-2-4-12-18(16)20/h1-14H",
        "InChIKey": null,
        "Canonical SMILES": "C=1C=CC2=C(C1)C=CC=C2C3=CC=CC=4C=CC=CC43",
        "Molecular Formula": "C<sub>20</sub>H<sub>14</sub>",
        "Molecular Mass": "254.33",
        "Melting Point": "160 °C",
        "Density": "1.299 g/cm³"
    }
}