{
    "cas_no": "269411-71-4",
    "key_name": "3-Amino-5-methoxybenzonitrile",
    "cn_name": null,
    "alternate_name": "Benzonitrile, 3-amino-5-methoxy-;3-Amino-5-methoxybenzonitrile;3-Cyano-5-methoxyaniline",
    "duplicated_cas_no": "",
    "SMILES": "C(#N)C1=CC(OC)=CC(N)=C1",
    "meta_data": {
        "InChI": "InChI=1S/C8H8N2O/c1-11-8-3-6(5-9)2-7(10)4-8/h2-4H,10H2,1H3",
        "InChIKey": null,
        "Canonical SMILES": "N#CC=1C=C(OC)C=C(N)C1",
        "Molecular Formula": "C<sub>8</sub>H<sub>8</sub>N<sub>2</sub>O",
        "Molecular Mass": "148.16",
        "Melting Point": "81-85 °C"
    }
}