{
    "cas_no": "41663-73-4",
    "key_name": "5-Chloro-2-thiazolamine",
    "cn_name": null,
    "alternate_name": "2-Thiazolamine, 5-chloro-;5-Chloro-2-thiazolamine;2-Amino-5-chlorothiazole;5-Chloro-2-aminothiazole;NSC 86106;5-Chlorothiazol-2-ylamine;5-Chloro-1,3-thiazol-2-amine",
    "duplicated_cas_no": "",
    "SMILES": "ClC=1SC(N)=NC1",
    "meta_data": {
        "InChI": "InChI=1S/C3H3ClN2S/c4-2-1-6-3(5)7-2/h1H,(H2,5,6)",
        "InChIKey": null,
        "Canonical SMILES": "ClC=1SC(=NC1)N",
        "Molecular Formula": "C<sub>3</sub>H<sub>3</sub>ClN<sub>2</sub>S",
        "Molecular Mass": "134.59",
        "Melting Point": "109-110 °C"
    }
}