{
    "cas_no": "2886-33-1",
    "key_name": "<span class=\"text-smallcaps\">L</span>-Aspartic acid, 1,4-bis(phenylmethyl) ester, 4-methylbenzenesulfonate (1:1)",
    "cn_name": "L-天冬氨酸双苄酯对甲苯磺酸盐;",
    "alternate_name": "<span class=\"text-smallcaps\">L</span>-Aspartic acid, 1,4-bis(phenylmethyl) ester, 4-methylbenzenesulfonate (1:1);Aspartic acid, dibenzyl ester, <em>p</em>-toluenesulfonate;<span class=\"text-smallcaps\">L</span>-Aspartic acid, bis(phenylmethyl) ester, 4-methylbenzenesulfonate;<span class=\"text-smallcaps\">L</span>-Aspartic acid dibenzyl ester tosylate;Dibenzyl aspartate <em>p</em>-tosylate;<span class=\"text-smallcaps\">L</span>-Aspartic acid α,α-dibenzyl ester tosylate;Dibenzyl <span class=\"text-smallcaps\">L</span>-aspartate tosylate;Dibenzyl aspartate tosylate salt;Dibenzyl aspartate tosylate;<span class=\"text-smallcaps\">L</span>-Aspartic acid dibenzyl ester <em>p</em>-toluenesulfonate;<span class=\"text-smallcaps\">L</span>-Aspartic acid dibenzyl ester <em>p</em>-toluenesulfonate salt;<em>S</em>-Aspartic acid dibenzyl ester <em>p</em>-tosylate;<span class=\"text-smallcaps\">L</span>-Aspartic acid dibenzyl ester 4-toluenesulfonate salt",
    "duplicated_cas_no": "257940-89-9",
    "SMILES": "C(OC([C@H](CC(OCC1=CC=CC=C1)=O)N)=O)C2=CC=CC=C2.S(=O)(=O)(O)C1=CC=C(C)C=C1",
    "meta_data": {
        "InChI": "InChI=1S/C18H19NO4.C7H8O3S/c19-16(18(21)23-13-15-9-5-2-6-10-15)11-17(20)22-12-14-7-3-1-4-8-14;1-6-2-4-7(5-3-6)11(8,9)10/h1-10,16H,11-13,19H2;2-5H,1H3,(H,8,9,10)/t16-;/m0./s1",
        "InChIKey": null,
        "Canonical SMILES": "O=C(OCC=1C=CC=CC1)CC(N)C(=O)OCC=2C=CC=CC2.O=S(=O)(O)C1=CC=C(C=C1)C",
        "Molecular Formula": "C<sub>18</sub>H<sub>19</sub>NO<sub>4</sub>.C<sub>7</sub>H<sub>8</sub>O<sub>3</sub>S",
        "Molecular Mass": "",
        "Melting Point": "157-158 °C"
    }
}