{
    "cas_no": "3260-87-5",
    "key_name": "3-Chloro-2-methylphenol",
    "cn_name": "3-氯-2-甲基苯酚;",
    "alternate_name": "Phenol, 3-chloro-2-methyl-;<em>o</em>-Cresol, 3-chloro-;3-Chloro-2-methylphenol;3-Chloro-<em>o</em>-cresol;2-Chloro-6-hydroxytoluene;2-Methyl-3-chlorophenol;NSC 74916",
    "duplicated_cas_no": "",
    "SMILES": "CC1=C(Cl)C=CC=C1O",
    "meta_data": {
        "InChI": "InChI=1S/C7H7ClO/c1-5-6(8)3-2-4-7(5)9/h2-4,9H,1H3",
        "InChIKey": null,
        "Canonical SMILES": "ClC1=CC=CC(O)=C1C",
        "Molecular Formula": "C<sub>7</sub>H<sub>7</sub>ClO",
        "Molecular Mass": "142.58",
        "Boiling Point": "225 °C",
        "Melting Point": "86 °C"
    }
}