{
    "cas_no": "15548-60-4",
    "key_name": "5-Bromo-4-chloro-3-indolyl β-<span class=\"text-smallcaps\">D</span>-glucopyranoside",
    "cn_name": "5-溴-4-氯-3-吲哚基-beta-D-吡喃葡糖苷;",
    "alternate_name": "β-<span class=\"text-smallcaps\">D</span>-Glucopyranoside, 5-bromo-4-chloro-1<em>H</em>-indol-3-yl;Indole, 5-bromo-4-chloro-3-(β-<span class=\"text-smallcaps\">D</span>-glucopyranosyloxy)-;5-Bromo-4-chloro-1<em>H</em>-indol-3-yl β-<span class=\"text-smallcaps\">D</span>-glucopyranoside;4-Chloro-5-bromo-3-indolyl-β-<span class=\"text-smallcaps\">D</span>-glucoside;5-Bromo-4-chloro-3-indolyl β-<span class=\"text-smallcaps\">D</span>-glucoside;5-Bromo-4-chloro-3-indolyl β-<span class=\"text-smallcaps\">D</span>-glucopyranoside;X-Glucoside",
    "duplicated_cas_no": "98048-69-2;136013-63-3;329950-23-4;878490-83-6",
    "SMILES": "O(C=1C=2C(NC1)=CC=C(Br)C2Cl)[C@@H]3O[C@H](CO)[C@@H](O)[C@H](O)[C@H]3O",
    "meta_data": {
        "InChI": "InChI=1S/C14H15BrClNO6/c15-5-1-2-6-9(10(5)16)7(3-17-6)22-14-13(21)12(20)11(19)8(4-18)23-14/h1-3,8,11-14,17-21H,4H2/t8-,11-,12+,13-,14-/m1/s1",
        "InChIKey": null,
        "Canonical SMILES": "ClC1=C(Br)C=CC=2NC=C(OC3OC(CO)C(O)C(O)C3O)C12",
        "Molecular Formula": "C<sub>14</sub>H<sub>15</sub>BrClNO<sub>6</sub>",
        "Molecular Mass": "408.63",
        "Melting Point": "235-237 °C (decomp)"
    }
}