{
    "cas_no": "16909-09-4",
    "key_name": "(2<em>E</em>)-3-(2,4-Dimethoxyphenyl)-2-propenoic acid",
    "cn_name": null,
    "alternate_name": "2-Propenoic acid, 3-(2,4-dimethoxyphenyl)-, (2<em>E</em>)-;Cinnamic acid, 2,4-dimethoxy-, (<em>E</em>)-;2-Propenoic acid, 3-(2,4-dimethoxyphenyl)-, (<em>E</em>)-;(2<em>E</em>)-3-(2,4-Dimethoxyphenyl)-2-propenoic acid;2,4-Dimethoxycinnamic acid, (<em>E</em>)-;(<em>E</em>)-2,4-Dimethoxycinnamic acid;<em>trans</em>-2,4-Dimethoxycinnamic acid;(<em>E</em>)-3-(2,4-Dimethoxyphenyl)-2-propenoic acid",
    "duplicated_cas_no": "",
    "SMILES": "C(=C/C(O)=O)\\C1=C(OC)C=C(OC)C=C1",
    "meta_data": {
        "InChI": "InChI=1S/C11H12O4/c1-14-9-5-3-8(4-6-11(12)13)10(7-9)15-2/h3-7H,1-2H3,(H,12,13)/b6-4+",
        "InChIKey": null,
        "Canonical SMILES": "O=C(O)C=CC1=CC=C(OC)C=C1OC",
        "Molecular Formula": "C<sub>11</sub>H<sub>12</sub>O<sub>4</sub>",
        "Molecular Mass": "208.21",
        "Melting Point": "138 °C"
    }
}