{
    "cas_no": "67-20-9",
    "key_name": "Furantoin",
    "cn_name": "硝基呋喃妥因;硝呋妥因;呋喃妥因;1-[(5-硝基-2-呋喃亚甲基)氨基]乙内酰脲;1-[[(5-硝基-2-呋喃基)亚甲基]氨;",
    "alternate_name": "2,4-Imidazolidinedione, 1-[[(5-nitro-2-furanyl)methylene]amino]-;Hydantoin, 1-[(5-nitrofurfurylidene)amino]-;1-[[(5-Nitro-2-furanyl)methylene]amino]-2,4-imidazolidinedione;Chemiofuran;Furadantin;Furadantoin;Furadonin;Furadonine;Furatoin;Nifurantin;Nitrofurantoin;<em>N</em>-(5-Nitro-2-furfurylidene)-1-aminohydantoin;1-[(5-Nitrofurfurylidene)amino]hydantoin;Furantoin;Ituran;<em>N</em>-(5-Nitrofurfurylidene)-1-aminohydantoin;<em>N</em>-(5-Nitro-2-furfurylidine)-1-aminohydantoin;1-(5-Nitro-2-furfurylideneamino)hydantoin;Berkfurin;Furadoine;Furobactina;Orafuran;Urizept;Trantoin;Urolong;Urodin;Cyantin;Furachel;Furalan;Macrodantin;Urantoin;Welfurin;Zoofurin;5-Nitrofurantoin;Furadontin;Furina;1-(5-Nitro-2-furfurylidenamino)hydantoin;Urofurin;Fur-ren;Novofuran;Nitoin;Macrobid;Furadantine MC;Furophen T-Caps;Furadoin;Parfuran;Furantoina;Cystit;FuaMed;Uro-Tablinen;NSC 2107;NSC 44150;Macrofuran;Uvamin;1-[[(5-Nitro-2-furyl)methylene]amino]-2,4-imidazolidinone;1-[(5-Nitrofuran-2-yl)methylideneamino]imidazolidine-2,4-dione;MeSH ID: D009582",
    "duplicated_cas_no": "",
    "SMILES": "N(=CC=1OC(N(=O)=O)=CC1)N2CC(=O)NC2=O",
    "meta_data": {
        "InChI": "InChI=1S/C8H6N4O5/c13-6-4-11(8(14)10-6)9-3-5-1-2-7(17-5)12(15)16/h1-3H,4H2,(H,10,13,14)",
        "InChIKey": null,
        "Canonical SMILES": "O=C1NC(=O)CN1N=CC=2OC(=CC2)N(=O)=O",
        "Molecular Formula": "C<sub>8</sub>H<sub>6</sub>N<sub>4</sub>O<sub>5</sub>",
        "Molecular Mass": "238.16",
        "Melting Point": "263 °C",
        "Density": "1.636 g/cm³ (solid)"
    }
}