{
    "cas_no": "10315-07-8",
    "key_name": "1-(Phenylmethyl)-4-piperidinecarboxylic acid",
    "cn_name": null,
    "alternate_name": "4-Piperidinecarboxylic acid, 1-(phenylmethyl)-;Isonipecotic acid, 1-benzyl-;1-(Phenylmethyl)-4-piperidinecarboxylic acid;1-Benzyl-4-piperidinecarboxylic acid;<em>N</em>-Benzylpiperidine-4-carboxylic acid;<em>N</em>-Benzyl-isonipecotic acid",
    "duplicated_cas_no": "",
    "SMILES": "C(N1CCC(C(O)=O)CC1)C2=CC=CC=C2",
    "meta_data": {
        "InChI": "InChI=1S/C13H17NO2/c15-13(16)12-6-8-14(9-7-12)10-11-4-2-1-3-5-11/h1-5,12H,6-10H2,(H,15,16)",
        "InChIKey": null,
        "Canonical SMILES": "O=C(O)C1CCN(CC=2C=CC=CC2)CC1",
        "Molecular Formula": "C<sub>13</sub>H<sub>17</sub>NO<sub>2</sub>",
        "Molecular Mass": "219.28",
        "Melting Point": "169.0-170.5 °C"
    }
}