{
    "cas_no": "2025-40-3",
    "key_name": "Ethyl benzylidenecyanoacetate",
    "cn_name": "α-环甲基乙酸乙酯;a-环甲基乙酸乙酯;",
    "alternate_name": "2-Propenoic acid, 2-cyano-3-phenyl-, ethyl ester;Cinnamic acid, α-cyano-, ethyl ester;Benzylidenecyanoacetic acid ethyl ester;Ethyl benzylidenecyanoacetate;Ethyl α-cyanocinnamate;Ethyl 2-benzylidene-2-cyanoacetate;Ethyl α-benzylidenecyanoacetate;Ethyl 3-phenyl-2-cyano-2-propenoate;Ethyl 2-cyano-3-phenylacrylate;2-Cyano-3-phenyl-2-propenoic acid ethyl ester;2-Cyano-3-phenylacrylic acid ethyl ester;NSC 8904;Ethyl 2-cyano-3-phenyl-2-propenoate;3-Phenyl-2-cyano-2-propenoic acid ethyl ester;Ethyl 2-cyano-2-(benzylidene)acetate;Ethyl cyanocinnamate",
    "duplicated_cas_no": "756509-63-4",
    "SMILES": "C(=CC1=CC=CC=C1)(C(OCC)=O)C#N",
    "meta_data": {
        "InChI": "InChI=1S/C12H11NO2/c1-2-15-12(14)11(9-13)8-10-6-4-3-5-7-10/h3-8H,2H2,1H3",
        "InChIKey": null,
        "Canonical SMILES": "N#CC(=CC=1C=CC=CC1)C(=O)OCC",
        "Molecular Formula": "C<sub>12</sub>H<sub>11</sub>NO<sub>2</sub>",
        "Molecular Mass": "201.22",
        "Boiling Point": "188 °C @ Press: 15 Torr",
        "Melting Point": "51 °C"
    }
}