{
    "cas_no": "301-19-9",
    "key_name": "Robinin",
    "cn_name": "刺槐素;",
    "alternate_name": "4<em>H</em>-1-Benzopyran-4-one, 3-[[6-<em>O</em>-(6-deoxy-α-<span class=\"text-smallcaps\">L</smallcap>-mannopyranosyl)-β-<smallcap>D</smallcap>-galactopyranosyl]oxy]-7-[(6-deoxy-α-<smallcap>L</span>-mannopyranosyl)oxy]-5-hydroxy-2-(4-hydroxyphenyl)-;Robinin;3-[[6-<em>O</em>-(6-Deoxy-α-<span class=\"text-smallcaps\">L</smallcap>-mannopyranosyl)-β-<smallcap>D</smallcap>-galactopyranosyl]oxy]-7-[(6-deoxy-α-<smallcap>L</span>-mannopyranosyl)oxy]-5-hydroxy-2-(4-hydroxyphenyl)-4<em>H</em>-1-benzopyran-4-one;Kaempferol 3-<em>O</em>-α-<span class=\"text-smallcaps\">L</smallcap>-rhamnopyranosyl-(1→6)-β-<smallcap>D</smallcap>-galactopyranosyl 7-<em>O</em>-α-<smallcap>L</span>-rhamnopyranoside;Kaempferol 3-robinoside-7-rhamnoside",
    "duplicated_cas_no": "30496-67-4;31015-67-5;31921-35-4;41138-57-2;801993-03-3;845784-86-3",
    "SMILES": "O(C1=C(OC=2C(C1=O)=C(O)C=C(O[C@H]3[C@H](O)[C@H](O)[C@@H](O)[C@H](C)O3)C2)C4=CC=C(O)C=C4)[C@@H]5O[C@H](CO[C@H]6[C@H](O)[C@H](O)[C@@H](O)[C@H](C)O6)[C@H](O)[C@H](O)[C@H]5O",
    "meta_data": {
        "InChI": "InChI=1S/C33H40O19/c1-10-19(36)23(40)26(43)31(47-10)46-9-17-21(38)25(42)28(45)33(51-17)52-30-22(39)18-15(35)7-14(49-32-27(44)24(41)20(37)11(2)48-32)8-16(18)50-29(30)12-3-5-13(34)6-4-12/h3-8,10-11,17,19-21,23-28,31-38,40-45H,9H2,1-2H3/t10-,11-,17+,19-,20-,21-,23+,24+,25-,26+,27+,28+,31+,32-,33-/m0/s1",
        "InChIKey": null,
        "Canonical SMILES": "O=C1C(OC2OC(COC3OC(C)C(O)C(O)C3O)C(O)C(O)C2O)=C(OC4=CC(OC5OC(C)C(O)C(O)C5O)=CC(O)=C14)C=6C=CC(O)=CC6",
        "Molecular Formula": "C<sub>33</sub>H<sub>40</sub>O<sub>19</sub>",
        "Molecular Mass": "740.66",
        "Melting Point": "195-200 °C"
    }
}