{
    "cas_no": "2942-59-8",
    "key_name": "2-Chloronicotinic acid",
    "cn_name": "2-氯烟酸;2-氯-3-吡啶羧酸;",
    "alternate_name": "3-Pyridinecarboxylic acid, 2-chloro-;Nicotinic acid, 2-chloro-;2-Chloro-3-pyridinecarboxylic acid;2-Chloronicotinic acid;CNIS;NSC 378;3-Carboxy-2-chloropyridine",
    "duplicated_cas_no": "1686072-77-4",
    "SMILES": "C(O)(=O)C1=C(Cl)N=CC=C1",
    "meta_data": {
        "InChI": "InChI=1S/C6H4ClNO2/c7-5-4(6(9)10)2-1-3-8-5/h1-3H,(H,9,10)",
        "InChIKey": null,
        "Canonical SMILES": "O=C(O)C1=CC=CN=C1Cl",
        "Molecular Formula": "C<sub>6</sub>H<sub>4</sub>ClNO<sub>2</sub>",
        "Molecular Mass": "157.55",
        "Melting Point": "190-191 °C"
    }
}