{
    "cas_no": "81290-20-2",
    "key_name": "(Trifluoromethyl)trimethylsilane",
    "cn_name": "(三氟甲基)三甲基硅烷;",
    "alternate_name": "Silane, trimethyl(trifluoromethyl)-;Trimethyl(trifluoromethyl)silane;(Trifluoromethyl)trimethylsilane;Trimethylsilyltrifluoromethane;Trifluoro(trimethylsilyl)methane;Ruppert's reagent;Reagents, Ruppert's;Ruppert-Prakash reagent",
    "duplicated_cas_no": "",
    "SMILES": "C([Si](C)(C)C)(F)(F)F",
    "meta_data": {
        "InChI": "InChI=1S/C4H9F3Si/c1-8(2,3)4(5,6)7/h1-3H3",
        "InChIKey": null,
        "Canonical SMILES": "FC(F)(F)[Si](C)(C)C",
        "Molecular Formula": "C<sub>4</sub>H<sub>9</sub>F<sub>3</sub>Si",
        "Molecular Mass": "142.20",
        "Boiling Point": "55 °C",
        "Density": "0.962 g/cm³"
    }
}