{
    "cas_no": "18281-05-5",
    "key_name": "Ethyl eicosanoate",
    "cn_name": null,
    "alternate_name": "Eicosanoic acid, ethyl ester;Arachidic acid, ethyl ester;Ethyl eicosanoate;Ethyl arachate;Ethyl arachidate",
    "duplicated_cas_no": "",
    "SMILES": "C(CCCCCCCCCCCCCCC)CCCC(OCC)=O",
    "meta_data": {
        "InChI": "InChI=1S/C22H44O2/c1-3-5-6-7-8-9-10-11-12-13-14-15-16-17-18-19-20-21-22(23)24-4-2/h3-21H2,1-2H3",
        "InChIKey": null,
        "Canonical SMILES": "O=C(OCC)CCCCCCCCCCCCCCCCCCC",
        "Molecular Formula": "C<sub>22</sub>H<sub>44</sub>O<sub>2</sub>",
        "Molecular Mass": "340.58",
        "Boiling Point": "295 °C",
        "Melting Point": "50 °C"
    }
}