{
    "cas_no": "119-75-5",
    "key_name": "2-Nitrodiphenylamine",
    "cn_name": "邻硝基二苯胺;",
    "alternate_name": "Benzenamine, 2-nitro-<em>N</em>-phenyl-;Diphenylamine, 2-nitro-;2-Nitro-<em>N</em>-phenylbenzenamine;C.I. 10335;<em>o</em>-Nitrodiphenylamine;2-Nitrodiphenylamine;Sudan Yellow 1339;<em>o</em>-Nitro-<em>N</em>-phenylaniline;<em>N</em>-Phenyl-<em>o</em>-nitroaniline;<em>o</em>-(Phenylamino)nitrobenzene;NSC 105613;NSC 4754;NSC 629274;<em>N</em>-Phenyl-2-nitrobenzenamine;2-Nitro-<em>N</em>-phenylaniline;<em>N</em>-Phenyl-2-nitroaniline;<em>N</em>-(2-Nitrophenyl)aniline",
    "duplicated_cas_no": "",
    "SMILES": "N(C1=C(N(=O)=O)C=CC=C1)C2=CC=CC=C2",
    "meta_data": {
        "InChI": "InChI=1S/C12H10N2O2/c15-14(16)12-9-5-4-8-11(12)13-10-6-2-1-3-7-10/h1-9,13H",
        "InChIKey": null,
        "Canonical SMILES": "O=N(=O)C=1C=CC=CC1NC=2C=CC=CC2",
        "Molecular Formula": "C<sub>12</sub>H<sub>10</sub>N<sub>2</sub>O<sub>2</sub>",
        "Molecular Mass": "214.22",
        "Boiling Point": "165-167 °C @ Press: 1 Torr",
        "Melting Point": "75 °C",
        "Density": "1.366 g/cm³"
    }
}