{
    "cas_no": "2221-00-3",
    "key_name": "4-(1<em>H</em>-Imidazol-1-yl)aniline",
    "cn_name": "4-(咪唑-1-基)苯胺;",
    "alternate_name": "Benzenamine, 4-(1<em>H</em>-imidazol-1-yl)-;Imidazole, 1-(<em>p</em>-aminophenyl)-;4-(1<em>H</em>-Imidazol-1-yl)benzenamine;1-(<em>p</em>-Aminophenyl)imidazole;1-(4-Aminophenyl)imidazole;4-(1-Imidazolyl)aniline;1-(4-Aminophenyl)-1<em>H</em>-imidazole;4-[Imidazol-1-yl]phenylamine;(4-Imidazolylphenyl)amine;NSC 266462;4-(1<em>H</em>-Imidazol-1-yl)aniline",
    "duplicated_cas_no": "",
    "SMILES": "NC1=CC=C(C=C1)N2C=CN=C2",
    "meta_data": {
        "InChI": "InChI=1S/C9H9N3/c10-8-1-3-9(4-2-8)12-6-5-11-7-12/h1-7H,10H2",
        "InChIKey": null,
        "Canonical SMILES": "N=1C=CN(C1)C2=CC=C(N)C=C2",
        "Molecular Formula": "C<sub>9</sub>H<sub>9</sub>N<sub>3</sub>",
        "Molecular Mass": "159.19",
        "Melting Point": "141-143 °C"
    }
}