{
    "cas_no": "17136-36-6",
    "key_name": "<em>N</em>-(Phenylmethyl)glycine",
    "cn_name": "N-苄基甘氨酸;",
    "alternate_name": "Glycine, <em>N</em>-(phenylmethyl)-;Glycine, <em>N</em>-benzyl-;<em>N</em>-(Phenylmethyl)glycine;<em>N</em>-Benzylglycine;(<em>N</em>-Benzylamino)acetic acid;NSC 166840;(Benzylamino)acetic acid;2-(Benzylamino)acetic acid",
    "duplicated_cas_no": "",
    "SMILES": "C(NCC(O)=O)C1=CC=CC=C1",
    "meta_data": {
        "InChI": "InChI=1S/C9H11NO2/c11-9(12)7-10-6-8-4-2-1-3-5-8/h1-5,10H,6-7H2,(H,11,12)",
        "InChIKey": null,
        "Canonical SMILES": "O=C(O)CNCC=1C=CC=CC1",
        "Molecular Formula": "C<sub>9</sub>H<sub>11</sub>NO<sub>2</sub>",
        "Molecular Mass": "165.19",
        "Melting Point": "198-200 °C"
    }
}