{
    "cas_no": "985-12-6",
    "key_name": "Drotaverine hydrochloride",
    "cn_name": "盐酸屈他维林;",
    "alternate_name": "Isoquinoline, 1-[(3,4-diethoxyphenyl)methylene]-6,7-diethoxy-1,2,3,4-tetrahydro-, hydrochloride (1:1);Isoquinoline, 1-(3,4-diethoxybenzylidene)-6,7-diethoxy-1,2,3,4-tetrahydro-, hydrochloride;Isoquinoline, 1-[(3,4-diethoxyphenyl)methylene]-6,7-diethoxy-1,2,3,4-tetrahydro-, hydrochloride;No-Spa hydrochloride;Drotaverinium chloride;Isodihydroperparine hydrochloride;Tetraspasmin-Lefa;Drotaverin hydrochloride;Drotaverine hydrochloride;No-Spa;NOSH-BRA;Drotin;1-(3,4-Diethoxy-benzylidene)-6,7-diethoxy-1,2,3,4-tetrahydro-isoquinoline; hydrochloride",
    "duplicated_cas_no": "53908-09-1",
    "SMILES": "C(=C1C=2C(=CC(OCC)=C(OCC)C2)CCN1)C3=CC(OCC)=C(OCC)C=C3.Cl",
    "meta_data": {
        "InChI": "InChI=1S/C24H31NO4.ClH/c1-5-26-21-10-9-17(14-22(21)27-6-2)13-20-19-16-24(29-8-4)23(28-7-3)15-18(19)11-12-25-20;/h9-10,13-16,25H,5-8,11-12H2,1-4H3;1H",
        "InChIKey": null,
        "Canonical SMILES": "Cl.O(C1=CC=C(C=C1OCC)C=C2NCCC3=CC(OCC)=C(OCC)C=C23)CC",
        "Molecular Formula": "C<sub>24</sub>H<sub>31</sub>NO<sub>4</sub>.ClH",
        "Molecular Mass": "",
        "Melting Point": "211-212 °C"
    }
}