{
    "cas_no": "53948-09-7",
    "key_name": "Cepharanone B",
    "cn_name": null,
    "alternate_name": "Dibenz[<em>cd</em>,<em>f</em>]indol-4(5<em>H</em>)-one, 1,2-dimethoxy-;1,2-Dimethoxydibenz[<em>cd</em>,<em>f</em>]indol-4(5<em>H</em>)-one;Cepharanone B;Aristololactam B II;Alkaloid Y, from <em>Schefferomitra</em><em>subaequalis</em>;Aristolactam B II;2-<em>O</em>-Methylaristolactam AII;3-Demethoxypiperolactam C;Aristolactam B11",
    "duplicated_cas_no": "37326-16-2",
    "SMILES": "O(C)C=1C2=C3C(=CC1OC)C(=O)NC3=CC=4C2=CC=CC4",
    "meta_data": {
        "InChI": "InChI=1S/C17H13NO3/c1-20-13-8-11-14-12(18-17(11)19)7-9-5-3-4-6-10(9)15(14)16(13)21-2/h3-8H,1-2H3,(H,18,19)",
        "InChIKey": null,
        "Canonical SMILES": "O=C1NC2=CC=3C=CC=CC3C=4C(OC)=C(OC)C=C1C24",
        "Molecular Formula": "C<sub>17</sub>H<sub>13</sub>NO<sub>3</sub>",
        "Molecular Mass": "279.29",
        "Melting Point": "264-265 °C"
    }
}