{
    "cas_no": "174635-69-9",
    "key_name": "3-Methyl-2-phenyl-<em>N</em>-((1<em>S</em>)-1-phenylpropyl)quinoline-4-carboxamide",
    "cn_name": null,
    "alternate_name": "4-Quinolinecarboxamide, 3-methyl-2-phenyl-<em>N</em>-[(1<em>S</em>)-1-phenylpropyl]-;4-Quinolinecarboxamide, 3-methyl-2-phenyl-<em>N</em>-(1-phenylpropyl)-, (<em>S</em>)-;3-Methyl-2-phenyl-<em>N</em>-[(1<em>S</em>)-1-phenylpropyl]-4-quinolinecarboxamide;SB 222200;3-Methyl-2-phenyl-<em>N</em>-((1<em>S</em>)-1-phenylpropyl)quinoline-4-carboxamide;3-Methyl-2-phenyl-<em>N</em>-[(1S)-1-phenylpropyl]quinoline-4-carboxamide",
    "duplicated_cas_no": "",
    "SMILES": "C(N[C@@H](CC)C1=CC=CC=C1)(=O)C=2C3=C(N=C(C2C)C4=CC=CC=C4)C=CC=C3",
    "meta_data": {
        "InChI": "InChI=1S/C26H24N2O/c1-3-22(19-12-6-4-7-13-19)28-26(29)24-18(2)25(20-14-8-5-9-15-20)27-23-17-11-10-16-21(23)24/h4-17,22H,3H2,1-2H3,(H,28,29)/t22-/m0/s1",
        "InChIKey": null,
        "Canonical SMILES": "O=C(NC(C=1C=CC=CC1)CC)C=2C=3C=CC=CC3N=C(C=4C=CC=CC4)C2C",
        "Molecular Formula": "C<sub>26</sub>H<sub>24</sub>N<sub>2</sub>O",
        "Molecular Mass": "380.48",
        "Melting Point": "154 °C"
    }
}