{
    "cas_no": "18598-74-8",
    "key_name": "<span class=\"text-smallcaps\">L</span>-Isoleucine, methyl ester, hydrochloride (1:1)",
    "cn_name": "L-异亮氨酸甲酯盐酸盐;",
    "alternate_name": "<span class=\"text-smallcaps\">L</span>-Isoleucine, methyl ester, hydrochloride (1:1);Isoleucine, methyl ester, hydrochloride, <span class=\"text-smallcaps\">L</span>-;<span class=\"text-smallcaps\">L</span>-Isoleucine, methyl ester, hydrochloride;Methyl isoleucinate hydrochloride;Isoleucine methyl ester hydrochloride;Methyl <span class=\"text-smallcaps\">L</span>-isoleucinate hydrochloride",
    "duplicated_cas_no": "259795-94-3;660838-98-2;1172585-50-0;1315562-13-0;1396967-40-0;1416477-68-3;1537871-99-0;1631128-49-8;1936458-88-6;2756404-88-1",
    "SMILES": "[C@H]([C@H](CC)C)(C(OC)=O)N.Cl",
    "meta_data": {
        "InChI": "InChI=1S/C7H15NO2.ClH/c1-4-5(2)6(8)7(9)10-3;/h5-6H,4,8H2,1-3H3;1H/t5-,6-;/m0./s1",
        "InChIKey": null,
        "Canonical SMILES": "Cl.O=C(OC)C(N)C(C)CC",
        "Molecular Formula": "C<sub>7</sub>H<sub>15</sub>NO<sub>2</sub>.ClH",
        "Molecular Mass": "",
        "Melting Point": "100.5-101 °C"
    }
}