{
    "cas_no": "7664-39-3",
    "key_name": "Hydrofluoric acid",
    "cn_name": "氢氟酸;",
    "alternate_name": "Hydrofluoric acid;Anhydrous hydrofluoric acid;Fluorhydric acid;Hydrofluoric acid gas;Hydrogen fluoride (HF);Hydrogen fluoride;Antisal 2b;Fluorine monohydride;Hydrogen monofluoride;Fluorine hydride (FH);Fluoric acid;Alsurf 45;G-C Hydrofluoride Gel;Vita ceramic etch;Ultradent Porcelain Etch;Porcelain Conditioner;SA-X",
    "duplicated_cas_no": "32057-09-3;326604-75-5",
    "SMILES": "F",
    "meta_data": {
        "InChI": "InChI=1S/FH/h1H",
        "InChIKey": null,
        "Canonical SMILES": "F",
        "Molecular Formula": "FH",
        "Molecular Mass": "",
        "Boiling Point": "20 °C",
        "Melting Point": "-83.36 °C",
        "Density": "0.991 g/cm³ @ Temp: 19.54 °C"
    }
}