{
    "cas_no": "15450-76-7",
    "key_name": "8-Hydroxy-1<em>H</em>-quinolin-2-one",
    "cn_name": "2,8-喹啉二醇;2,8-二羟基喹啉;",
    "alternate_name": "2(1<em>H</em>)-Quinolinone, 8-hydroxy-;Carbostyril, 8-hydroxy-;2,8-Quinolinediol;8-Hydroxy-2(1<em>H</em>)-quinolinone;8-Hydroxycarbostyril;2,8-Dihydroxyquinoline;8-Hydroxy-2-oxo-1,2-dihydroquinoline;NSC 108383;8-Hydroxy-1<em>H</em>-quinolin-2-one;8-Hydroxyquinolin-2-one;2,8-Dihydroxylquinoline",
    "duplicated_cas_no": "",
    "SMILES": "OC1=C2C(C=CC(=O)N2)=CC=C1",
    "meta_data": {
        "InChI": "InChI=1S/C9H7NO2/c11-7-3-1-2-6-4-5-8(12)10-9(6)7/h1-5,11H,(H,10,12)",
        "InChIKey": null,
        "Canonical SMILES": "O=C1C=CC=2C=CC=C(O)C2N1",
        "Molecular Formula": "C<sub>9</sub>H<sub>7</sub>NO<sub>2</sub>",
        "Molecular Mass": "161.16",
        "Melting Point": "287-288 °C"
    }
}