{
    "cas_no": "1455-42-1",
    "key_name": "β<sup>3</sup>,β<sup>3</sup>,β<sup>9</sup>,β<sup>9</sup>-Tetramethyl-2,4,8,10-tetraoxaspiro[5.5]undecane-3,9-diethanol",
    "cn_name": "螺二醇;",
    "alternate_name": "2,4,8,10-Tetraoxaspiro[5.5]undecane-3,9-diethanol, β<sup>3</sup>,β<sup>3</sup>,β<sup>9</sup>,β<sup>9</sup>-tetramethyl-;2,4,8,10-Tetraoxaspiro[5.5]undecane-3,9-diethanol, β,β,β′,β′-tetramethyl-;β<sup>3</sup>,β<sup>3</sup>,β<sup>9</sup>,β<sup>9</sup>-Tetramethyl-2,4,8,10-tetraoxaspiro[5.5]undecane-3,9-diethanol;3,9-Bis(1,1-dimethyl-2-hydroxyethyl)-2,4,8,10-tetraoxaspiro[5.5]undecane;Spiroglycol;3,9-Bis(2-hydroxy-1,1-dimethylethyl)-2,4,8,10-tetraoxaspiro(5.5)undecane;β,β,β′β′-Tetramethyl-3,9-(2,4,8,10-tetraoxaspiro[5.5]undecane)diethanol;2,2′-(2,4,8,10-Tetraoxaspiro[5.5]undecane-3,9-diyl)bis(2-methylpropan-1-ol);2-[3-(1-Hydroxy-2-methylpropan-2-yl)-2,4,8,10-tetraoxaspiro[5.5]undecan-9-yl]-2-methylpropan-1-ol;B 1158",
    "duplicated_cas_no": "89744-28-5;1429293-67-3",
    "SMILES": "C(CO)(C)(C)C1OCC2(COC(C(CO)(C)C)OC2)CO1",
    "meta_data": {
        "InChI": "InChI=1S/C15H28O6/c1-13(2,5-16)11-18-7-15(8-19-11)9-20-12(21-10-15)14(3,4)6-17/h11-12,16-17H,5-10H2,1-4H3",
        "InChIKey": null,
        "Canonical SMILES": "OCC(C)(C)C1OCC2(CO1)COC(OC2)C(C)(C)CO",
        "Molecular Formula": "C<sub>15</sub>H<sub>28</sub>O<sub>6</sub>",
        "Molecular Mass": "304.38",
        "Melting Point": "185-194 °C"
    }
}