{
    "cas_no": "35112-28-8",
    "key_name": "Benzoic acid, 2,4-dichloro-, methyl ester",
    "cn_name": "2,4-二氯苯甲酸甲酯;",
    "alternate_name": "Benzoic acid, 2,4-dichloro-, methyl ester;Methyl 2,4-dichlorobenzoate",
    "duplicated_cas_no": "",
    "SMILES": "C(OC)(=O)C1=C(Cl)C=C(Cl)C=C1",
    "meta_data": {
        "InChI": "InChI=1S/C8H6Cl2O2/c1-12-8(11)6-3-2-5(9)4-7(6)10/h2-4H,1H3",
        "InChIKey": null,
        "Canonical SMILES": "O=C(OC)C1=CC=C(Cl)C=C1Cl",
        "Molecular Formula": "C<sub>8</sub>H<sub>6</sub>Cl<sub>2</sub>O<sub>2</sub>",
        "Molecular Mass": "205.04",
        "Boiling Point": "132 °C @ Press: 15 Torr",
        "Melting Point": "154-155 °C",
        "Density": "1.572 g/cm³ @ Temp: 20 °C"
    }
}