{
    "cas_no": "18495-14-2",
    "key_name": "2-Hydroxy-4-methylbenzonitrile",
    "cn_name": null,
    "alternate_name": "Benzonitrile, 2-hydroxy-4-methyl-;2,4-Cresotonitrile;2-Hydroxy-4-methylbenzonitrile;4-Methyl-2-hydroxybenzonitrile",
    "duplicated_cas_no": "",
    "SMILES": "C(#N)C1=C(O)C=C(C)C=C1",
    "meta_data": {
        "InChI": "InChI=1S/C8H7NO/c1-6-2-3-7(5-9)8(10)4-6/h2-4,10H,1H3",
        "InChIKey": null,
        "Canonical SMILES": "N#CC1=CC=C(C=C1O)C",
        "Molecular Formula": "C<sub>8</sub>H<sub>7</sub>NO",
        "Molecular Mass": "133.15",
        "Melting Point": "87 °C"
    }
}