{
    "cas_no": "13402-55-6",
    "key_name": "1,3-Dihydro-4-hydroxy-2<em>H</em>-indol-2-one",
    "cn_name": null,
    "alternate_name": "2<em>H</em>-Indol-2-one, 1,3-dihydro-4-hydroxy-;2-Indolinone, 4-hydroxy-;1,3-Dihydro-4-hydroxy-2<em>H</em>-indol-2-one;4-Hydroxyoxindole;4-Hydroxy-2-oxindole;4-Hydroxy-2-indolinone;4-Hydroxy-1,3-dihydro-2<em>H</em>-indol-2-one",
    "duplicated_cas_no": "",
    "SMILES": "OC1=C2C(NC(=O)C2)=CC=C1",
    "meta_data": {
        "InChI": "InChI=1S/C8H7NO2/c10-7-3-1-2-6-5(7)4-8(11)9-6/h1-3,10H,4H2,(H,9,11)",
        "InChIKey": null,
        "Canonical SMILES": "O=C1NC=2C=CC=C(O)C2C1",
        "Molecular Formula": "C<sub>8</sub>H<sub>7</sub>NO<sub>2</sub>",
        "Molecular Mass": "149.15",
        "Melting Point": "267 °C"
    }
}