{
    "cas_no": "4766-57-8",
    "key_name": "Tetrabutoxysilane",
    "cn_name": null,
    "alternate_name": "Silicic acid (H<sub>4</sub>SiO<sub>4</sub>), tetrabutyl ester;Butyl silicate ((BuO)<sub>4</sub>Si);Silane, tetrabutoxy-;Tetrabutoxysilane;Tetra-<em>n</em>-butoxysilane;Silicon tetrabutoxide;Tetrabutyl orthosilicate;Tetrabutyl silicate;Silicon butoxide;MKC Silicate BTS;NSC 89762;Butyl orthosilicate;TBOS;TBOS (silicate);Tetrabuthyl orthosilicate;T 1126;Tetra-<em>n</em>-butyl orthosilicate",
    "duplicated_cas_no": "",
    "SMILES": "[Si](OCCCC)(OCCCC)(OCCCC)OCCCC",
    "meta_data": {
        "InChI": "InChI=1S/C16H36O4Si/c1-5-9-13-17-21(18-14-10-6-2,19-15-11-7-3)20-16-12-8-4/h5-16H2,1-4H3",
        "InChIKey": null,
        "Canonical SMILES": "O(CCCC)[Si](OCCCC)(OCCCC)OCCCC",
        "Molecular Formula": "C<sub>16</sub>H<sub>36</sub>O<sub>4</sub>Si",
        "Molecular Mass": "320.54",
        "Boiling Point": "115 °C @ Press: 3 Torr",
        "Melting Point": "&lt;-80 °C",
        "Density": "0.899 g/cm³"
    }
}