{
    "cas_no": "7560-44-3",
    "key_name": "Methyl 3-(4-chlorophenyl)-2-propenoate",
    "cn_name": "4-氯肉桂酸甲酯;4-氯肉桂酸甲酯;对氯肉桂酸甲酯;",
    "alternate_name": "2-Propenoic acid, 3-(4-chlorophenyl)-, methyl ester;Cinnamic acid, <em>p</em>-chloro-, methyl ester;Methyl 3-(4-chlorophenyl)-2-propenoate;Methyl <em>p</em>-chlorocinnamate;Methyl 4-chlorocinnamate;4-Chlorocinnamic acid methyl ester;3-(4-Chlorophenyl)-2-propenoic acid methyl ester;NSC 155559;Methyl 3-(4-chlorophenyl)acrylate;3-(4-Chlorophenyl)acrylic acid methyl ester;Methyl 3-(4-chlorophenyl)propenoate",
    "duplicated_cas_no": "",
    "SMILES": "C(=CC(OC)=O)C1=CC=C(Cl)C=C1",
    "meta_data": {
        "InChI": "InChI=1S/C10H9ClO2/c1-13-10(12)7-4-8-2-5-9(11)6-3-8/h2-7H,1H3",
        "InChIKey": null,
        "Canonical SMILES": "O=C(OC)C=CC1=CC=C(Cl)C=C1",
        "Molecular Formula": "C<sub>10</sub>H<sub>9</sub>ClO<sub>2</sub>",
        "Molecular Mass": "196.63",
        "Melting Point": "76-76.5 °C"
    }
}