{
    "cas_no": "1478-61-1",
    "key_name": "Bisphenol AF",
    "cn_name": "双酚AF;六氟双酚A;4,4\"-(六氟异丙叉)双酚;2,2-双-(4-羟苯基)六氟丙烷;",
    "alternate_name": "Phenol, 4,4′-[2,2,2-trifluoro-1-(trifluoromethyl)ethylidene]bis-;Phenol, 4,4′-[trifluoro-1-(trifluoromethyl)ethylidene]di-;Phenol, 4,4′-[2,2,2-trifluoro-1-(trifluoromethyl)ethylidene]di-;4,4′-[2,2,2-Trifluoro-1-(trifluoromethyl)ethylidene]bis[phenol];2,2-Bis(4-hydroxyphenyl)perfluoropropane;Bisphenol AF;Biphenol AF;Hexafluoroisopropylidenebis(4-hydroxybenzene);4,4′-(Hexafluoroisopropylidene)diphenol;2,2-Bis(4-hydroxyphenyl)hexafluoropropane;Hexafluorodiphenylolpropane;1,1,1,3,3,3-Hexafluoro-2,2-bis(4-hydroxyphenyl)propane;2,2-Bis(4-hydroxyphenyl)-1,1,1,3,3,3-hexafluoropropane;BIS-AF;Curative 30;2,2-Bis(<em>p</em>-hydroxyphenyl)hexafluoropropane;Hexafluorobisphenol A;NSC 152522;2,2-Bis(4′-hydroxyphenyl)hexafluoropropane;Bisphenol AE;Cheminox BAF;GP 21;2,2-(4-Hydroxyphenyl)hexafluoropropane;4,4′-(Hexafluoroisopropylidene)bisphenol;BIS-AF(H);AF 50;4,4′-[2,2,2-Trifluoro-1-(trifluoromethyl)ethylidene]diphenol;Dynamar RC 5105;4,4′-(1,1,1,3,3,3-hexafluoropropane-2,2-diyl)di(phenol)",
    "duplicated_cas_no": "110444-90-1;1429425-28-4",
    "SMILES": "C(C(F)(F)F)(C(F)(F)F)(C1=CC=C(O)C=C1)C2=CC=C(O)C=C2",
    "meta_data": {
        "InChI": "InChI=1S/C15H10F6O2/c16-14(17,18)13(15(19,20)21,9-1-5-11(22)6-2-9)10-3-7-12(23)8-4-10/h1-8,22-23H",
        "InChIKey": null,
        "Canonical SMILES": "FC(F)(F)C(C1=CC=C(O)C=C1)(C2=CC=C(O)C=C2)C(F)(F)F",
        "Molecular Formula": "C<sub>15</sub>H<sub>10</sub>F<sub>6</sub>O<sub>2</sub>",
        "Molecular Mass": "336.23",
        "Melting Point": "160-162 °C"
    }
}