{
    "cas_no": "57726-26-8",
    "key_name": "4-(Ethoxymethyl)phenol",
    "cn_name": null,
    "alternate_name": "Phenol, 4-(ethoxymethyl)-;<em>p</em>-Cresol, α-ethoxy-;4-(Ethoxymethyl)phenol;α-Ethoxy-<em>p</em>-cresol;<em>p</em>-Hydroxybenzyl ethyl ether;Ethyl 4-hydroxybenzyl ether;4-Hydroxybenzyl ethyl ether",
    "duplicated_cas_no": "",
    "SMILES": "C(OCC)C1=CC=C(O)C=C1",
    "meta_data": {
        "InChI": "InChI=1S/C9H12O2/c1-2-11-7-8-3-5-9(10)6-4-8/h3-6,10H,2,7H2,1H3",
        "InChIKey": null,
        "Canonical SMILES": "OC1=CC=C(C=C1)COCC",
        "Molecular Formula": "C<sub>9</sub>H<sub>12</sub>O<sub>2</sub>",
        "Molecular Mass": "152.19",
        "Boiling Point": "105 °C @ Press: 0.8 Torr",
        "Melting Point": "50-51 °C"
    }
}