{
    "cas_no": "19621-92-2",
    "key_name": "6-Hydroxypicolinic acid",
    "cn_name": "6-羟基吡啶-2-羧酸;6-羟基-2-吡啶羧酸;",
    "alternate_name": "2-Pyridinecarboxylic acid, 1,6-dihydro-6-oxo-;Picolinic acid, 1,6-dihydro-6-oxo-;Picolinic acid, 6-hydroxy-;1,6-Dihydro-6-oxo-2-pyridinecarboxylic acid;6-Hydroxypicolinic acid;6-Hydroxypyridine-2-carboxylic acid;2-Oxo-1,2-dihydropyridine-6-carboxylic acid;2-Hydroxypyridine-6-carboxylic acid;NSC 51589;6-Oxo-1,6-dihydropyridine-2-carboxylic acid;6-Hydroxy-2-picolinic acid;6-Oxopyridine-2-carboxylic acid;6-Oxo-1<em>H</em>-pyridine-2-carboxylicacid",
    "duplicated_cas_no": "19837-41-3",
    "SMILES": "C(O)(=O)C=1NC(=O)C=CC1",
    "meta_data": {
        "InChI": "InChI=1S/C6H5NO3/c8-5-3-1-2-4(7-5)6(9)10/h1-3H,(H,7,8)(H,9,10)",
        "InChIKey": null,
        "Canonical SMILES": "O=C(O)C1=CC=CC(=O)N1",
        "Molecular Formula": "C<sub>6</sub>H<sub>5</sub>NO<sub>3</sub>",
        "Molecular Mass": "139.11",
        "Melting Point": "282 °C (decomp)"
    }
}