{
    "cas_no": "84-52-6",
    "key_name": "3′-CMP",
    "cn_name": "3-磷酸胞苷;胞苷-3-一磷酸;",
    "alternate_name": "3′-Cytidylic acid;Cytidine, 3′-phosphate;Cytidine 3′-monophosphate;3′-Cytidinephosphoric acid;Cytidylic acid b;3′-Cytosylic acid;3′-CMP;Ribocytidine 3′-monophosphate;5-(4-Amino-2-oxopyrimidin-1(2<em>H</em>)-yl)-4-hydroxy-2-(hydroxymethyl)tetrahydrofuran-3-yl dihydrogen phosphate;[5-(4-Amino-2-oxopyrimidin-1-yl)-4-hydroxy-2-(hydroxymethyl)oxolan-3-yl] dihydrogen phosphate",
    "duplicated_cas_no": "689271-70-3;873077-05-5;1397188-64-5",
    "SMILES": "O[C@H]1[C@@H](O[C@H](CO)[C@H]1OP(=O)(O)O)N2C(=O)N=C(N)C=C2",
    "meta_data": {
        "InChI": "InChI=1S/C9H14N3O8P/c10-5-1-2-12(9(15)11-5)8-6(14)7(4(3-13)19-8)20-21(16,17)18/h1-2,4,6-8,13-14H,3H2,(H2,10,11,15)(H2,16,17,18)/t4-,6-,7-,8-/m1/s1",
        "InChIKey": null,
        "Canonical SMILES": "O=C1N=C(N)C=CN1C2OC(CO)C(OP(=O)(O)O)C2O",
        "Molecular Formula": "C<sub>9</sub>H<sub>14</sub>N<sub>3</sub>O<sub>8</sub>P",
        "Molecular Mass": "323.20",
        "Melting Point": "233 °C (decomp)"
    }
}