{
    "cas_no": "23000-15-9",
    "key_name": "Ethyl 2,5-dimethyl-4-oxazolecarboxylate",
    "cn_name": null,
    "alternate_name": "4-Oxazolecarboxylic acid, 2,5-dimethyl-, ethyl ester;Ethyl 2,5-dimethyl-4-oxazolecarboxylate",
    "duplicated_cas_no": "",
    "SMILES": "C(OCC)(=O)C1=C(C)OC(C)=N1",
    "meta_data": {
        "InChI": "InChI=1S/C8H11NO3/c1-4-11-8(10)7-5(2)12-6(3)9-7/h4H2,1-3H3",
        "InChIKey": null,
        "Canonical SMILES": "O=C(OCC)C=1N=C(OC1C)C",
        "Molecular Formula": "C<sub>8</sub>H<sub>11</sub>NO<sub>3</sub>",
        "Molecular Mass": "169.18",
        "Boiling Point": "117 °C @ Press: 11 Torr"
    }
}