{
    "cas_no": "934-22-5",
    "key_name": "5-Aminobenzimidazole",
    "cn_name": null,
    "alternate_name": "1<em>H</em>-Benzimidazol-6-amine;Benzimidazole, 5-amino-;1<em>H</em>-Benzimidazol-5-amine;Benzimidazole, 5(<em>or</em> 6)-amino-;5-Aminobenzimidazole;6-Aminobenzimidazole;NSC 231612;1<em>H</em>-Benzimidazol-5-ylamine;3<em>H</em>-Benzo[<em>d</em>]imidazol-5-amine;Benzimidazol-5-amine;1<em>H</em>-Benzoimidazol-5-ylamine;1<em>H</em>-1,3-Benzodiazol-6-amine;1<em>H</em>-1,3-Benzodiazol-5-amine;1<em>H</em>-Benzo[<em>d</em>]imidazol-5-amine",
    "duplicated_cas_no": "",
    "SMILES": "NC=1C=C2C(=CC1)NC=N2",
    "meta_data": {
        "InChI": "InChI=1S/C7H7N3/c8-5-1-2-6-7(3-5)10-4-9-6/h1-4H,8H2,(H,9,10)",
        "InChIKey": null,
        "Canonical SMILES": "N1=CNC=2C=CC(N)=CC12",
        "Molecular Formula": "C<sub>7</sub>H<sub>7</sub>N<sub>3</sub>",
        "Molecular Mass": "133.15",
        "Boiling Point": "222 °C @ Press: 3.5 Torr",
        "Melting Point": "164 °C"
    }
}