{
    "cas_no": "79-30-1",
    "key_name": "Isobutyryl chloride",
    "cn_name": "异丁酰氯;",
    "alternate_name": "Propanoyl chloride, 2-methyl-;Isobutyryl chloride;2-Methylpropanoyl chloride;Isobutyric acid chloride;2-Methylpropionyl chloride;Isobutyroyl chloride;Isobutanoyl chloride;α-Methylpropionyl chloride;Dimethylacetyl chloride;Chloro isopropyl ketone;2-Methylpropanoic acid chloride;2,2-Dimethylacetyl chloride;i-Butyryl chloride;Isopropanecarbonyl chloride;2-Propylcarbonyl chloride",
    "duplicated_cas_no": "120126-85-4;2137049-07-9",
    "SMILES": "C(C(Cl)=O)(C)C",
    "meta_data": {
        "InChI": "InChI=1S/C4H7ClO/c1-3(2)4(5)6/h3H,1-2H3",
        "InChIKey": null,
        "Canonical SMILES": "O=C(Cl)C(C)C",
        "Molecular Formula": "C<sub>4</sub>H<sub>7</sub>ClO",
        "Molecular Mass": "106.55",
        "Boiling Point": "92 °C",
        "Melting Point": "-90 °C",
        "Density": "1.0084 g/cm³ @ Temp: 25 °C"
    }
}