{
    "cas_no": "929-59-9",
    "key_name": "2,2′-(Ethylenedioxy)bis(ethylamine)",
    "cn_name": null,
    "alternate_name": "Ethanamine, 2,2′-[1,2-ethanediylbis(oxy)]bis-;Ethylamine, 2,2′-(ethylenedioxy)bis-;2,2′-[1,2-Ethanediylbis(oxy)]bis[ethanamine];3,6-Dioxa-1,8-octanediamine;1,8-Diamino-3,6-dioxaoctane;1,2-Bis(2-aminoethoxy)ethane;Jeffamine EDR 148;2,2′-(Ethylenedioxy)bis(ethylamine);Ethylene glycol bis(2-aminoethyl) ether;2,2′-(Ethylenedioxy)diethylamine;EDR 148;DA 10;XTJ 504;Daitocurar J 5030;NSC 28972;2-[2-(2-Aminoethoxy)ethoxy]ethylamine;<em>O</em>,<em>O</em>′-Bis(2-aminoethyl)ethylene glycol;2-(2-(2-Aminoethoxy)ethoxy)ethanamine;1,8-Diamine-3,6-dioxaoctane;2-[2-(2-Aminoethoxy)ethoxy]ethan-1-amine;1,10-Diaza-4,7-dioxadecane;Jeffamine 148;2,2′-(Ethan-1,2-diylbis(oxy))diethanamine;2,2′-(Ethane-1,2-diylbis(oxy))diethanamine;Epic 91B;2,2-(Ethylenedioxy)diethylamine;<em>O</em>,<em>O</em>′-Bis(2-aminoethyl)-1,2-ethanediol;2,2′-(Ethan-1,2-diylbis(oxy))bis(ethan-1-amine);2,2′-(Ethane-1,2-diylbis(oxy))bis(ethan-1-amine);2,2′-(Ethylenedioxy)bisethylenediamine",
    "duplicated_cas_no": "",
    "SMILES": "C(COCCN)OCCN",
    "meta_data": {
        "InChI": "InChI=1S/C6H16N2O2/c7-1-3-9-5-6-10-4-2-8/h1-8H2",
        "InChIKey": null,
        "Canonical SMILES": "O(CCOCCN)CCN",
        "Molecular Formula": "C<sub>6</sub>H<sub>16</sub>N<sub>2</sub>O<sub>2</sub>",
        "Molecular Mass": "148.20",
        "Boiling Point": "95-105 °C @ Press: 5 Torr"
    }
}