{
    "cas_no": "4408-78-0",
    "key_name": "Phosphonoacetic acid",
    "cn_name": "磷酰基乙酸;",
    "alternate_name": "Acetic acid, 2-phosphono-;Acetic acid, phosphono-;2-Phosphonoacetic acid;Phosphonic acid, (carboxymethyl)-;Phosphonoacetic acid;Phosphonacetic acid;Fosfonet;NSC 18205;(Carboxymethyl)phosphonic acid;Fosfonoacetic acid;MeSH ID: D010746",
    "duplicated_cas_no": "",
    "SMILES": "C(P(=O)(O)O)C(O)=O",
    "meta_data": {
        "InChI": "InChI=1S/C2H5O5P/c3-2(4)1-8(5,6)7/h1H2,(H,3,4)(H2,5,6,7)",
        "InChIKey": null,
        "Canonical SMILES": "O=C(O)CP(=O)(O)O",
        "Molecular Formula": "C<sub>2</sub>H<sub>5</sub>O<sub>5</sub>P",
        "Molecular Mass": "140.03",
        "Melting Point": "143-146 °C"
    }
}