{
    "cas_no": "39736-29-3",
    "key_name": "Ethyl 4-amino-2-(methylthio)-5-thiazolecarboxylate",
    "cn_name": null,
    "alternate_name": "5-Thiazolecarboxylic acid, 4-amino-2-(methylthio)-, ethyl ester;Ethyl 4-amino-2-(methylthio)-5-thiazolecarboxylate;NSC 675697;4-Amino-2-(methylsulfanyl)thiazole-5-carboxylic acid ethyl ester",
    "duplicated_cas_no": "",
    "SMILES": "C(OCC)(=O)C1=C(N)N=C(SC)S1",
    "meta_data": {
        "InChI": "InChI=1S/C7H10N2O2S2/c1-3-11-6(10)4-5(8)9-7(12-2)13-4/h3,8H2,1-2H3",
        "InChIKey": null,
        "Canonical SMILES": "O=C(OCC)C=1SC(=NC1N)SC",
        "Molecular Formula": "C<sub>7</sub>H<sub>10</sub>N<sub>2</sub>O<sub>2</sub>S<sub>2</sub>",
        "Molecular Mass": "218.30",
        "Melting Point": "100-102 °C"
    }
}