{
    "cas_no": "7789-46-0",
    "key_name": "Ferrous bromide",
    "cn_name": "溴化铁;溴化亚铁(II)无水;",
    "alternate_name": "Iron bromide (FeBr<sub>2</sub>);Ferrous bromide;Iron dibromide;Dibromoiron;Iron(II) bromide",
    "duplicated_cas_no": "61349-31-3",
    "SMILES": "[Fe](Br)Br",
    "meta_data": {
        "InChI": "InChI=1S/2BrH.Fe/h2*1H;/q;;+2/p-2",
        "InChIKey": null,
        "Canonical SMILES": "Br[Fe]Br",
        "Molecular Formula": "Br<sub>2</sub>Fe",
        "Molecular Mass": "",
        "Boiling Point": "967 °C",
        "Melting Point": "689 °C"
    }
}