{
    "cas_no": "104-21-2",
    "key_name": "4-Methoxybenzyl acetate",
    "cn_name": "乙酸大茴香酯;乙酸茴香酯;乙酸对甲氧基苄酯;",
    "alternate_name": "Benzenemethanol, 4-methoxy-, 1-acetate;Benzyl alcohol, <em>p</em>-methoxy-, acetate;Benzenemethanol, 4-methoxy-, acetate;<em>p</em>-Anisyl alcohol, acetate;Cassie ketone;<em>p</em>-Methoxybenzyl acetate;<em>p</em>-Methoxybenzyl alcohol acetate;4-Methoxybenzyl acetate;4-Methoxybenzenemethanol acetate;NSC 46102;4-Anisyl acetate;1-Methoxy-4-acetoxymethylbenzene;(4-Methoxyphenyl)methyl acetate",
    "duplicated_cas_no": "",
    "SMILES": "C(OC(C)=O)C1=CC=C(OC)C=C1",
    "meta_data": {
        "InChI": "InChI=1S/C10H12O3/c1-8(11)13-7-9-3-5-10(12-2)6-4-9/h3-6H,7H2,1-2H3",
        "InChIKey": null,
        "Canonical SMILES": "O=C(OCC1=CC=C(OC)C=C1)C",
        "Molecular Formula": "C<sub>10</sub>H<sub>12</sub>O<sub>3</sub>",
        "Molecular Mass": "180.20",
        "Boiling Point": "270 °C",
        "Melting Point": "84 °C"
    }
}