{
    "cas_no": "513-77-9",
    "key_name": "Barium carbonate",
    "cn_name": null,
    "alternate_name": "Carbonic acid, barium salt (1:1);Barium carbonate;C.I. 77099;C.I. Pigment White 10;Barium carbonate (BaCO<sub>3</sub>);Barium carbonate (1:1);Barium monocarbonate;Pigment White 10;BW-P;BW-C<sub>3</sub>;FO<sub>3</sub>;LC 1;LC 1 (carbonate);LSR;BW-KH30;BW-KH 30",
    "duplicated_cas_no": "2566863-43-0",
    "SMILES": "C(=O)(O)O.[Ba]",
    "meta_data": {
        "InChI": "InChI=1S/CH2O3.Ba/c2-1(3)4;/h(H2,2,3,4);",
        "InChIKey": null,
        "Canonical SMILES": "[Ba].O=C(O)O",
        "Molecular Formula": "CH<sub>2</sub>O<sub>3</sub>.Ba",
        "Molecular Mass": "",
        "Melting Point": "811 °C",
        "Density": "4.43 g/cm³"
    }
}