{
    "cas_no": "1122-96-9",
    "key_name": "4-Methoxypyridine <em>N</em>-oxide",
    "cn_name": "4-甲氧基吡啶-N-氧化物;",
    "alternate_name": "Pyridine, 4-methoxy-, 1-oxide;4-Methoxypyridine 1-oxide;4-Methoxypyridine <em>N</em>-oxide;4-Methoxypyridine oxide;<em>p</em>-Methoxypyridine <em>N</em>-oxide;NSC 27964",
    "duplicated_cas_no": "45714-77-0",
    "SMILES": "O(C)C=1C=CN(=O)=CC1",
    "meta_data": {
        "InChI": "InChI=1S/C6H7NO2/c1-9-6-2-4-7(8)5-3-6/h2-5H,1H3",
        "InChIKey": null,
        "Canonical SMILES": "O=N1=CC=C(OC)C=C1",
        "Molecular Formula": "C<sub>6</sub>H<sub>7</sub>NO<sub>2</sub>",
        "Molecular Mass": "125.13",
        "Melting Point": "81.5-82.5 °C"
    }
}