{
    "cas_no": "1722-10-7",
    "key_name": "3-Chloro-6-methoxypyridazine",
    "cn_name": "3-氯-6-甲氧基哒嗪;6-甲氧基-3-氯哒嗪;",
    "alternate_name": "Pyridazine, 3-chloro-6-methoxy-;3-Chloro-6-methoxypyridazine;NSC 522667;NSC 69819;3-Methoxy-6-chloropyridazine",
    "duplicated_cas_no": "",
    "SMILES": "O(C)C1=CC=C(Cl)N=N1",
    "meta_data": {
        "InChI": "InChI=1S/C5H5ClN2O/c1-9-5-3-2-4(6)7-8-5/h2-3H,1H3",
        "InChIKey": null,
        "Canonical SMILES": "ClC1=NN=C(OC)C=C1",
        "Molecular Formula": "C<sub>5</sub>H<sub>5</sub>ClN<sub>2</sub>O",
        "Molecular Mass": "144.56",
        "Melting Point": "84-85 °C"
    }
}