{
    "cas_no": "1779-25-5",
    "key_name": "Chlorobis(2-methylpropyl)aluminum",
    "cn_name": "二异丁基氯化铝;",
    "alternate_name": "Aluminum, chlorobis(2-methylpropyl)-;Aluminum, chlorodiisobutyl-;Diisobutylaluminum chloride;Chlorobis(2-methylpropyl)aluminum;Diisobutylaluminum monochloride;Chlorodiisobutylaluminum;Diisobutylchloroaluminum;Bis(isobutyl)aluminum chloride;Diisobutylaluminium chloride",
    "duplicated_cas_no": "",
    "SMILES": "C([Al](CC(C)C)Cl)C(C)C",
    "meta_data": {
        "InChI": "InChI=1S/2C4H9.Al.ClH/c2*1-4(2)3;;/h2*4H,1H2,2-3H3;;1H/q;;+1;/p-1",
        "InChIKey": null,
        "Canonical SMILES": "Cl[Al](CC(C)C)CC(C)C",
        "Molecular Formula": "C<sub>8</sub>H<sub>18</sub>AlCl",
        "Molecular Mass": "",
        "Boiling Point": "108 °C @ Press: 0.98 Torr",
        "Melting Point": "-40 °C",
        "Density": "0.9118 g/cm³ @ Temp: 25 °C"
    }
}