{
    "cas_no": "7377-26-6",
    "key_name": "Methyl 4-(chlorocarbonyl)benzoate",
    "cn_name": "4-氯甲酰基苯甲酸甲酯;对氯羰基苯甲酸甲酯;",
    "alternate_name": "Benzoic acid, 4-(chlorocarbonyl)-, methyl ester;Benzoic acid, <em>p</em>-(chloroformyl)-, methyl ester;<em>p</em>-(Carbomethoxy)benzoyl chloride;4-(Carbomethoxy)benzoyl chloride;Terephthaloyl chloride methyl ester;<em>p</em>-(Methoxycarbonyl)benzoyl chloride;Methyl 4-(chlorocarbonyl)benzoate;4-(Methoxycarbonyl)benzoyl chloride;Methyl <em>p</em>-(chlorocarbonyl)benzoate;Methyl 4-(chloroformyl)benzoate;Methyl <em>p</em>-(chloroformyl)benzoate;Terephthalic acid chloride monomethyl ester;Methyl terephthaloyl chloride;Terephthalic acid monomethyl ester chloride;Methyl terephthalyl chloride;Monomethyl terephthaloyl chloride;Methyl terephthalic chloride;Monomethyl terephthalate acid chloride;1-(Chloroformyl)-4-(methoxycarbonyl)benzene;Methyl 4-carboxybenzoyl chloride;4-Chlorocarbonylbenzoic acid methyl ester;Methyl 4-(chlorocarbonyl)benzote;Methyl 4-(carbonochloridoyl)benzoate;4-(Chloroformyl)benzoic acid methyl ester",
    "duplicated_cas_no": "",
    "SMILES": "C(OC)(=O)C1=CC=C(C(Cl)=O)C=C1",
    "meta_data": {
        "InChI": "InChI=1S/C9H7ClO3/c1-13-9(12)7-4-2-6(3-5-7)8(10)11/h2-5H,1H3",
        "InChIKey": null,
        "Canonical SMILES": "O=C(Cl)C1=CC=C(C=C1)C(=O)OC",
        "Molecular Formula": "C<sub>9</sub>H<sub>7</sub>ClO<sub>3</sub>",
        "Molecular Mass": "198.60",
        "Boiling Point": "135-170 °C @ Press: 12 Torr",
        "Melting Point": "38-40 °C"
    }
}