{
    "cas_no": "491-72-5",
    "key_name": "Olivetolic acid",
    "cn_name": null,
    "alternate_name": "Benzoic acid, 2,4-dihydroxy-6-pentyl-;β-Resorcylic acid, 6-pentyl-;2,4-Dihydroxy-6-pentylbenzoic acid;Olivetolcarboxylic acid;Allazetolcarboxylic acid;Olivetolic acid",
    "duplicated_cas_no": "",
    "SMILES": "C(CCCC)C1=C(C(O)=O)C(O)=CC(O)=C1",
    "meta_data": {
        "InChI": "InChI=1S/C12H16O4/c1-2-3-4-5-8-6-9(13)7-10(14)11(8)12(15)16/h6-7,13-14H,2-5H2,1H3,(H,15,16)",
        "InChIKey": null,
        "Canonical SMILES": "O=C(O)C=1C(O)=CC(O)=CC1CCCCC",
        "Molecular Formula": "C<sub>12</sub>H<sub>16</sub>O<sub>4</sub>",
        "Molecular Mass": "224.25",
        "Melting Point": "143 °C"
    }
}