{
    "cas_no": "1070-34-4",
    "key_name": "Monoethyl succinate",
    "cn_name": "丁二酸单乙酯;",
    "alternate_name": "Butanedioic acid, 1-ethyl ester;Succinic acid, monoethyl ester;Butanedioic acid, monoethyl ester;Succinic acid, ethyl ester;Ethyl hydrogen succinate;Monoethyl succinate;3-Ethoxycarbonylpropionic acid;4-Ethoxy-4-oxobutanoic acid;Ethyl monosuccinate",
    "duplicated_cas_no": "",
    "SMILES": "C(CCC(O)=O)(OCC)=O",
    "meta_data": {
        "InChI": "InChI=1S/C6H10O4/c1-2-10-6(9)4-3-5(7)8/h2-4H2,1H3,(H,7,8)",
        "InChIKey": null,
        "Canonical SMILES": "O=C(O)CCC(=O)OCC",
        "Molecular Formula": "C<sub>6</sub>H<sub>10</sub>O<sub>4</sub>",
        "Molecular Mass": "146.14",
        "Boiling Point": "147 °C @ Press: 15 Torr",
        "Melting Point": "8 °C"
    }
}