{
    "cas_no": "15840-96-7",
    "key_name": "Cyclohexanecarboxylic acid, cyclohexyl ester",
    "cn_name": null,
    "alternate_name": "Cyclohexanecarboxylic acid, cyclohexyl ester;Cyclohexyl cyclohexanoate;Cyclohexyl cyclohexanecarboxylate;NSC 406680",
    "duplicated_cas_no": "",
    "SMILES": "C(OC1CCCCC1)(=O)C2CCCCC2",
    "meta_data": {
        "InChI": "InChI=1S/C13H22O2/c14-13(11-7-3-1-4-8-11)15-12-9-5-2-6-10-12/h11-12H,1-10H2",
        "InChIKey": null,
        "Canonical SMILES": "O=C(OC1CCCCC1)C2CCCCC2",
        "Molecular Formula": "C<sub>13</sub>H<sub>22</sub>O<sub>2</sub>",
        "Molecular Mass": "210.31",
        "Melting Point": "171-172 °C"
    }
}