{
    "cas_no": "1079-17-0",
    "key_name": "1,2,4,5-Tetrachloro-3,6-bis(chloromethyl)benzene",
    "cn_name": "α,α,2,3,5,6-六氯对二甲苯;",
    "alternate_name": "Benzene, 1,2,4,5-tetrachloro-3,6-bis(chloromethyl)-;<em>p</em>-Xylene, α,α′,2,3,5,6-hexachloro-;1,2,4,5-Tetrachloro-3,6-bis(chloromethyl)benzene;Tetrachloro-<em>p</em>-xylene dichloride;α,α′,2,3,5,6-Hexachloro-<em>p</em>-xylene;<em>p</em>-Tetrachloroxylylene dichloride;1,4-Bis(chloromethyl)tetrachlorobenzene;NSC 74461;2,3,5,6-Tetrachloro-<em>p</em>-xylylene dichloride",
    "duplicated_cas_no": "",
    "SMILES": "C(Cl)C1=C(Cl)C(Cl)=C(CCl)C(Cl)=C1Cl",
    "meta_data": {
        "InChI": "InChI=1S/C8H4Cl6/c9-1-3-5(11)7(13)4(2-10)8(14)6(3)12/h1-2H2",
        "InChIKey": null,
        "Canonical SMILES": "ClC=1C(Cl)=C(C(Cl)=C(Cl)C1CCl)CCl",
        "Molecular Formula": "C<sub>8</sub>H<sub>4</sub>Cl<sub>6</sub>",
        "Molecular Mass": "312.84",
        "Melting Point": "174.5-175.0 °C",
        "Density": "1.88 g/cm³"
    }
}