{
    "cas_no": "4196-86-5",
    "key_name": "Pentaerythritol, tetrabenzoate",
    "cn_name": null,
    "alternate_name": "1,3-Propanediol, 2,2-bis[(benzoyloxy)methyl]-, 1,3-dibenzoate;Pentaerythritol, tetrabenzoate;1,3-Propanediol, 2,2-bis[(benzoyloxy)methyl]-, dibenzoate;Benzoflex S 552;NSC 166502;Pentaerythrityl tetrabenzoate;[3-Benzoyloxy-2,2-bis(benzoyloxymethyl)propyl] benzoate",
    "duplicated_cas_no": "1579279-32-5",
    "SMILES": "C(COC(=O)C1=CC=CC=C1)(COC(=O)C2=CC=CC=C2)(COC(=O)C3=CC=CC=C3)COC(=O)C4=CC=CC=C4",
    "meta_data": {
        "InChI": "InChI=1S/C33H28O8/c34-29(25-13-5-1-6-14-25)38-21-33(22-39-30(35)26-15-7-2-8-16-26,23-40-31(36)27-17-9-3-10-18-27)24-41-32(37)28-19-11-4-12-20-28/h1-20H,21-24H2",
        "InChIKey": null,
        "Canonical SMILES": "O=C(OCC(COC(=O)C=1C=CC=CC1)(COC(=O)C=2C=CC=CC2)COC(=O)C=3C=CC=CC3)C=4C=CC=CC4",
        "Molecular Formula": "C<sub>33</sub>H<sub>28</sub>O<sub>8</sub>",
        "Molecular Mass": "552.57",
        "Melting Point": "94.8 °C"
    }
}