{
    "cas_no": "900-95-8",
    "key_name": "Fentin acetate",
    "cn_name": "三苯基锡醋酸盐;醋酸三苯基锡;三苯基乙酸锡;薯瘟锡;",
    "alternate_name": "Acetic acid, triphenylstannyl ester;Triphenyltin acetate;Stannane, (acetyloxy)triphenyl-;Stannane, acetoxytriphenyl-;GC 6936;ENT 25208;Fentin acetate;Lirostanol;Tin triphenyl acetate;TPTA;Triphenylaceto stannane;VP 19-40;Brestan 60;Liromatin;Brestan;Acetoxytriphenylstannane;Batasan;Phentin acetate;Suzu;Acetatotriphenylstannane;(Acetyloxy)triphenylstannane;Tinestan;Sunitron A;Brestanid;Betafen;NSC 76068",
    "duplicated_cas_no": "",
    "SMILES": "[Sn](OC(C)=O)(C1=CC=CC=C1)(C2=CC=CC=C2)C3=CC=CC=C3",
    "meta_data": {
        "InChI": "InChI=1S/3C6H5.C2H4O2.Sn/c3*1-2-4-6-5-3-1;1-2(3)4;/h3*1-5H;1H3,(H,3,4);/q;;;;+1/p-1",
        "InChIKey": null,
        "Canonical SMILES": "O=C(O[Sn](C=1C=CC=CC1)(C=2C=CC=CC2)C=3C=CC=CC3)C",
        "Molecular Formula": "C<sub>20</sub>H<sub>18</sub>O<sub>2</sub>Sn",
        "Molecular Mass": "409.07",
        "Boiling Point": "60 °C",
        "Melting Point": "122-123 °C",
        "Density": "1.55 g/cm³ @ Temp: 20 °C"
    }
}