{
    "cas_no": "59771-24-3",
    "key_name": "1-[4-(2-Methylpropyl)phenyl]-1-propanone",
    "cn_name": null,
    "alternate_name": "1-Propanone, 1-[4-(2-methylpropyl)phenyl]-;1-[4-(2-Methylpropyl)phenyl]-1-propanone;<em>p</em>-Isobutylpropiophenone;4′-Isobutylpropiophenone;1-(4-Isobutylphenyl)propan-1-one",
    "duplicated_cas_no": "",
    "SMILES": "C(C(C)C)C1=CC=C(C(CC)=O)C=C1",
    "meta_data": {
        "InChI": "InChI=1S/C13H18O/c1-4-13(14)12-7-5-11(6-8-12)9-10(2)3/h5-8,10H,4,9H2,1-3H3",
        "InChIKey": null,
        "Canonical SMILES": "O=C(C1=CC=C(C=C1)CC(C)C)CC",
        "Molecular Formula": "C<sub>13</sub>H<sub>18</sub>O",
        "Molecular Mass": "190.28",
        "Boiling Point": "86-87 °C @ Press: 0.3 Torr"
    }
}