{
    "cas_no": "506-30-9",
    "key_name": "Eicosanoic acid",
    "cn_name": "二十酸;花生酸;二十烷酸;二十碳饱和脂肪酸;",
    "alternate_name": "Eicosanoic acid;Arachic acid;Arachidic acid;<em>n</em>-Eicosanoic acid;Icosanoic acid;NSC 93983;<em>n</em>-Eicosanic acid;C<sub>20</sub> fatty acid;C 20;Peanut acid",
    "duplicated_cas_no": "",
    "SMILES": "C(CCCCCCCCCCCC)CCCCCCC(O)=O",
    "meta_data": {
        "InChI": "InChI=1S/C20H40O2/c1-2-3-4-5-6-7-8-9-10-11-12-13-14-15-16-17-18-19-20(21)22/h2-19H2,1H3,(H,21,22)",
        "InChIKey": null,
        "Canonical SMILES": "O=C(O)CCCCCCCCCCCCCCCCCCC",
        "Molecular Formula": "C<sub>20</sub>H<sub>40</sub>O<sub>2</sub>",
        "Molecular Mass": "312.53",
        "Boiling Point": "328 °C",
        "Melting Point": "75.4 °C",
        "Density": "0.8613 g/cm³ (liquid) @ Temp: 15 °C"
    }
}