{
    "cas_no": "615-10-1",
    "key_name": "Propyl 2-furancarboxylate",
    "cn_name": "2-呋喃甲酸丙酯;糠酸丙酯;",
    "alternate_name": "2-Furancarboxylic acid, propyl ester;2-Furoic acid, propyl ester;Propyl 2-furancarboxylate;Propyl 2-furoate;Propyl α-furoate;NSC 35559",
    "duplicated_cas_no": "",
    "SMILES": "C(OCCC)(=O)C1=CC=CO1",
    "meta_data": {
        "InChI": "InChI=1S/C8H10O3/c1-2-5-11-8(9)7-4-3-6-10-7/h3-4,6H,2,5H2,1H3",
        "InChIKey": null,
        "Canonical SMILES": "O=C(OCCC)C=1OC=CC1",
        "Molecular Formula": "C<sub>8</sub>H<sub>10</sub>O<sub>3</sub>",
        "Molecular Mass": "154.16",
        "Boiling Point": "89 °C @ Press: 4 Torr"
    }
}