{
    "cas_no": "39891-09-3",
    "key_name": "6-Chloro-3-pyridineacetonitrile",
    "cn_name": "2-氯-5-吡啶乙腈;",
    "alternate_name": "3-Pyridineacetonitrile, 6-chloro-;6-Chloro-3-pyridineacetonitrile;6-Chloro-3-pyridylacetonitrile;(6-Chloro-3-pyridinyl)acetonitrile;2-(6-Chloro-3-pyridinyl)acetonitrile;2-Chloro-5-pyridineacetonitrile;2-Chloro-5-(cyanomethyl)pyridine",
    "duplicated_cas_no": "",
    "SMILES": "C(C#N)C=1C=CC(Cl)=NC1",
    "meta_data": {
        "InChI": "InChI=1S/C7H5ClN2/c8-7-2-1-6(3-4-9)5-10-7/h1-2,5H,3H2",
        "InChIKey": null,
        "Canonical SMILES": "N#CCC1=CN=C(Cl)C=C1",
        "Molecular Formula": "C<sub>7</sub>H<sub>5</sub>ClN<sub>2</sub>",
        "Molecular Mass": "152.58",
        "Boiling Point": "182 °C @ Press: 1 Torr",
        "Melting Point": "48-50 °C"
    }
}