{
    "cas_no": "6952-93-8",
    "key_name": "Cyclopropanecarbohydrazide",
    "cn_name": null,
    "alternate_name": "Cyclopropanecarboxylic acid, hydrazide;1-(Cyclopropylcarbonyl)hydrazine;Cyclopropanecarbohydrazide;(Cyclopropylcarbonyl)hydrazine;NSC 70850;Cyclopropanecarboxylic hydrazide;<em>N</em>-(Cyclopropylcarbonyl)hydrazine",
    "duplicated_cas_no": "",
    "SMILES": "C(NN)(=O)C1CC1",
    "meta_data": {
        "InChI": "InChI=1S/C4H8N2O/c5-6-4(7)3-1-2-3/h3H,1-2,5H2,(H,6,7)",
        "InChIKey": null,
        "Canonical SMILES": "O=C(NN)C1CC1",
        "Molecular Formula": "C<sub>4</sub>H<sub>8</sub>N<sub>2</sub>O",
        "Molecular Mass": "100.12",
        "Melting Point": "98-99 °C"
    }
}