{
    "cas_no": "6915-15-7",
    "key_name": "Malic acid",
    "cn_name": "DL-苹果酸;DL-羟基丁二酸;",
    "alternate_name": "Butanedioic acid, 2-hydroxy-;Malic acid;Butanedioic acid, hydroxy-;2-Hydroxybutanedioic acid;α-Hydroxysuccinic acid;Hydroxysuccinic acid;2-Hydroxyethane-1,2-dicarboxylic acid;Pomalus Acid;Deoxytetraric acid;2-Hydroxysuccinic acid;Musashi-no-Ringosan;Hydroxybutanedioic acid;<em>dl</em>-Malic acid;FDA 2018;(±)-Malic acid;<span class=\"text-smallcaps\">DL</span>-Malic acid;<em>R</em>,<em>S</em>(±)-Malic acid;E 296;NSC 25941;Nanoveson M;Xeros;Monohydroxybutanedioic acid;Purac Powder MA;Purac MA;Fuso M;DN 1992;MeSH ID: D008293",
    "duplicated_cas_no": "617-48-1;41308-42-3;623158-98-5;879715-44-3;1334703-48-8",
    "SMILES": "C(CC(O)=O)(C(O)=O)O",
    "meta_data": {
        "InChI": "InChI=1S/C4H6O5/c5-2(4(8)9)1-3(6)7/h2,5H,1H2,(H,6,7)(H,8,9)",
        "InChIKey": null,
        "Canonical SMILES": "O=C(O)CC(O)C(=O)O",
        "Molecular Formula": "C<sub>4</sub>H<sub>6</sub>O<sub>5</sub>",
        "Molecular Mass": "134.09",
        "Melting Point": "131 °C",
        "Density": "1.6 g/cm³"
    }
}