{
    "cas_no": "504-57-4",
    "key_name": "Nonyl ketone",
    "cn_name": "10-十九烷酮英文名称：10-Nonadecanone;10-十九烷酮;",
    "alternate_name": "10-Nonadecanone;Dinonyl ketone;Caprinone;Nonyl ketone;10-Oxononadecane;NSC 1773",
    "duplicated_cas_no": "",
    "SMILES": "C(C(CCCCCCCCC)=O)CCCCCCCC",
    "meta_data": {
        "InChI": "InChI=1S/C19H38O/c1-3-5-7-9-11-13-15-17-19(20)18-16-14-12-10-8-6-4-2/h3-18H2,1-2H3",
        "InChIKey": null,
        "Canonical SMILES": "O=C(CCCCCCCCC)CCCCCCCCC",
        "Molecular Formula": "C<sub>19</sub>H<sub>38</sub>O",
        "Molecular Mass": "282.50",
        "Melting Point": "65.5 °C"
    }
}