{
    "cas_no": "10595-95-6",
    "key_name": "<em>N</em>-Nitrosomethylethylamine",
    "cn_name": "N-亚硝基甲乙胺;N-亚硝基甲乙胺N-Nitroso-methylethylamine;",
    "alternate_name": "Ethanamine, <em>N</em>-methyl-<em>N</em>-nitroso-;Ethylamine, <em>N</em>-methyl-<em>N</em>-nitroso-;<em>N</em>-Methyl-<em>N</em>-nitrosoethanamine;Methylethylnitrosoamine;Methylethylnitrosamine;<em>N</em>-Nitrosomethylethylamine;Ethylmethylnitrosamine;<em>N</em>-Methyl-<em>N</em>-nitrosoethylamine;Nitrosomethylethylamine;<em>N</em>-Nitroso-<em>N</em>-methylethylamine;<em>N</em>-Nitrosoethylmethylamine;NEMA",
    "duplicated_cas_no": "",
    "SMILES": "N(CC)(N=O)C",
    "meta_data": {
        "InChI": "InChI=1S/C3H8N2O/c1-3-5(2)4-6/h3H2,1-2H3",
        "InChIKey": null,
        "Canonical SMILES": "O=NN(C)CC",
        "Molecular Formula": "C<sub>3</sub>H<sub>8</sub>N<sub>2</sub>O",
        "Molecular Mass": "88.11",
        "Boiling Point": "163 °C @ Press: 747 Torr",
        "Density": "0.9448 g/cm³ @ Temp: 18 °C"
    }
}