{
    "cas_no": "118-10-5",
    "key_name": "Cinchonine",
    "cn_name": "辛可宁;弱金鸡纳碱;4-喹啉基(5-乙烯基-1-氮杂双环[2.2.2]辛烷-2-基)甲醇;",
    "alternate_name": "Cinchonan-9-ol, (9<em>S</em>)-;Cinchonine;(9<em>S</em>)-Cinchonan-9-ol;<em>d</em>-Cinchonine;(+)-Cinchonine;(8<em>R</em>,9<em>S</em>)-Cinchonine;NSC 6176",
    "duplicated_cas_no": "24831-03-6;185122-83-2;201406-15-7;887770-70-9;896440-46-3;898337-50-3;898814-05-6;900786-85-8;909881-46-5;910892-13-6;1236363-47-5",
    "SMILES": "[C@@H](O)([C@@]1([N@@]2C[C@H](C=C)[C@](C1)(CC2)[H])[H])C=3C4=C(N=CC3)C=CC=C4",
    "meta_data": {
        "InChI": "InChI=1S/C19H22N2O/c1-2-13-12-21-10-8-14(13)11-18(21)19(22)16-7-9-20-17-6-4-3-5-15(16)17/h2-7,9,13-14,18-19,22H,1,8,10-12H2/t13-,14-,18+,19-/m0/s1",
        "InChIKey": null,
        "Canonical SMILES": "OC(C=1C=CN=C2C=CC=CC21)C3N4CCC(C3)C(C=C)C4",
        "Molecular Formula": "C<sub>19</sub>H<sub>22</sub>N<sub>2</sub>O",
        "Molecular Mass": "294.39",
        "Melting Point": "265 °C"
    }
}