{
    "cas_no": "359-08-0",
    "key_name": "2-Bromo-1,1-difluoroethene",
    "cn_name": "2-溴-1,1-二氟乙烯;2-溴-1,1-二氟乙烯;",
    "alternate_name": "Ethene, 2-bromo-1,1-difluoro-;Ethylene, 2-bromo-1,1-difluoro-;2-Bromo-1,1-difluoroethene;1,1-Difluoro-2-bromoethylene;1-Bromo-2,2-difluoroethene;2-Bromo-1,1-difluoroethylene;1-Bromo-2,2-difluoroethylene;R 1122B1;2,2-Difluoro-1-bromoethylene;1,1-Difluoro-2-bromoethene",
    "duplicated_cas_no": "",
    "SMILES": "C(=CBr)(F)F",
    "meta_data": {
        "InChI": "InChI=1S/C2HBrF2/c3-1-2(4)5/h1H",
        "InChIKey": null,
        "Canonical SMILES": "FC(F)=CBr",
        "Molecular Formula": "C<sub>2</sub>HBrF<sub>2</sub>",
        "Molecular Mass": "142.93",
        "Boiling Point": "6.1 °C",
        "Density": "1.8175 g/cm³ @ Temp: 0.5 °C"
    }
}