{
    "cas_no": "31465-25-5",
    "key_name": "1-Butanesulfonic acid, 4-hydroxy-, sodium salt (1:1)",
    "cn_name": null,
    "alternate_name": "1-Butanesulfonic acid, 4-hydroxy-, sodium salt (1:1);1-Butanesulfonic acid, 4-hydroxy-, monosodium salt;WAS 17;Sodium 4-hydroxybutanesulfonate",
    "duplicated_cas_no": "",
    "SMILES": "C(S(=O)(=O)O)CCCO.[Na]",
    "meta_data": {
        "InChI": "InChI=1S/C4H10O4S.Na/c5-3-1-2-4-9(6,7)8;/h5H,1-4H2,(H,6,7,8);",
        "InChIKey": null,
        "Canonical SMILES": "[Na].O=S(=O)(O)CCCCO",
        "Molecular Formula": "C<sub>4</sub>H<sub>10</sub>O<sub>4</sub>S.Na",
        "Molecular Mass": "",
        "Melting Point": "207-208 °C"
    }
}