{
    "cas_no": "533-60-8",
    "key_name": "2-Hydroxycyclohexanone",
    "cn_name": null,
    "alternate_name": "Cyclohexanone, 2-hydroxy-;Cyclohexanone, 2-hydroxy-, (±)-;2-Hydroxycyclohexanone;Adipoin;2-Hydroxy-1-cyclohexanone;α-Hydroxycyclohexanone;(±)-2-Hydroxycyclohexanone;NSC 298536;NSC 60697",
    "duplicated_cas_no": "114818-70-1",
    "SMILES": "OC1C(=O)CCCC1",
    "meta_data": {
        "InChI": "InChI=1S/C6H10O2/c7-5-3-1-2-4-6(5)8/h5,7H,1-4H2",
        "InChIKey": null,
        "Canonical SMILES": "O=C1CCCCC1O",
        "Molecular Formula": "C<sub>6</sub>H<sub>10</sub>O<sub>2</sub>",
        "Molecular Mass": "114.14",
        "Boiling Point": "83-86 °C @ Press: 13 Torr",
        "Melting Point": "92-92.5 °C"
    }
}