{
    "cas_no": "87-17-2",
    "key_name": "Salicylanilide",
    "cn_name": "水杨酰苯胺;N-水杨酰苯胺;N-苯基水杨酰胺;",
    "alternate_name": "Benzamide, 2-hydroxy-<em>N</em>-phenyl-;Salicylanilide;2-Hydroxy-<em>N</em>-phenylbenzamide;Ansadol;Aseptolan;<em>o</em>-Hydroxybenzanilide;2-Hydroxybenzanilide;Salicylanilid;Salinide;Salinidol;Salnide;Shirlan AG;Shirlan;Shirlan Extra;Salicylic acid anilide;<em>N</em>-Phenylsalicylamide;Sherstat SLN;Hyanilid;Salifebrin;WR 10019;2-(<em>N</em>-Phenylcarboxamido)phenol;SA 88;2-(Phenylaminocarbonyl)phenol;<em>N</em>-Phenyl-2-hydroxybenzamide;NSC 14881;SA 88 (biocide)",
    "duplicated_cas_no": "",
    "SMILES": "C(NC1=CC=CC=C1)(=O)C2=C(O)C=CC=C2",
    "meta_data": {
        "InChI": "InChI=1S/C13H11NO2/c15-12-9-5-4-8-11(12)13(16)14-10-6-2-1-3-7-10/h1-9,15H,(H,14,16)",
        "InChIKey": null,
        "Canonical SMILES": "O=C(NC=1C=CC=CC1)C=2C=CC=CC2O",
        "Molecular Formula": "C<sub>13</sub>H<sub>11</sub>NO<sub>2</sub>",
        "Molecular Mass": "213.23",
        "Melting Point": "136.5 °C",
        "Density": "1.33 g/cm³"
    }
}