{
    "cas_no": "23720-80-1",
    "key_name": "Nardosinone",
    "cn_name": null,
    "alternate_name": "5<em>H</em>-Naphtho[2,1-<em>c</em>][1,2]dioxol-5-one, 1,3a,4,7,8,9,9a,9b-octahydro-1,1,9,9a-tetramethyl-, (3a<em>R</em>,9<em>R</em>,9a<em>R</em>,9b<em>S</em>)-;5<em>H</em>-Naphtho[2,1-<em>c</em>][1,2]dioxol-5-one, 1,3a,4,7,8,9,9a,9b-octahydro-1,1,9,9a-tetramethyl-, [3a<em>R</em>-(3aα,9α,9aα,9bα)]-;(3a<em>R</em>,9<em>R</em>,9a<em>R</em>,9b<em>S</em>)-1,3a,4,7,8,9,9a,9b-Octahydro-1,1,9,9a-tetramethyl-5<em>H</em>-naphtho[2,1-<em>c</em>][1,2]dioxol-5-one;Nardosinone;Nardosinon",
    "duplicated_cas_no": "20489-10-5",
    "SMILES": "C[C@@]12[C@]3([C@@](CC(=O)C1=CCC[C@H]2C)(OOC3(C)C)[H])[H]",
    "meta_data": {
        "InChI": "InChI=1S/C15H22O3/c1-9-6-5-7-10-11(16)8-12-13(15(9,10)4)14(2,3)18-17-12/h7,9,12-13H,5-6,8H2,1-4H3/t9-,12-,13+,15+/m1/s1",
        "InChIKey": null,
        "Canonical SMILES": "O=C1C2=CCCC(C)C2(C)C3C(OOC3(C)C)C1",
        "Molecular Formula": "C<sub>15</sub>H<sub>22</sub>O<sub>3</sub>",
        "Molecular Mass": "250.33",
        "Melting Point": "108-110 °C"
    }
}