{
    "cas_no": "7226-23-5",
    "key_name": "1,3-Dimethyl-3,4,5,6-tetrahydro-2(1<em>H</em>)-pyrimidinone",
    "cn_name": null,
    "alternate_name": "2(1<em>H</em>)-Pyrimidinone, tetrahydro-1,3-dimethyl-;Tetrahydro-1,3-dimethyl-2(1<em>H</em>)-pyrimidinone;<em>N</em>,<em>N</em>′-Dimethyltrimethyleneurea;1,3-Dimethylpropyleneurea;<em>N</em>,<em>N</em>′-Dimethyl-<em>N</em>,<em>N</em>′-propyleneurea;1,3-Dimethyl-3,4,5,6-tetrahydro-2(1<em>H</em>)-pyrimidinone;DMPU;<em>N</em>,<em>N</em>′-Dimethyl-3,4,5,6-tetrahydro-2(1<em>H</em>)-pyrimidinone;DMPU (solvent);1,3-Dimethyl-3,4,5,6-tetrahydro-2-pyrimidinone;1,3-Dimethyl-2-oxohexahydropyrimidine;1,3-Dimethyl-3,4,5,6-tetrahydro-2(1<em>H</em>)-pyrimidone;<em>N</em>,<em>N</em>′-Dimethyl-1,3-propanediamine cyclic urea;1,3-Dimethyl-1,3-diazinan-2-one;<em>N</em>,<em>N</em>-Dimethylpropylene urea;1,3-Dimethyltetrahydropyrimidin-2(1<em>H</em>)-one",
    "duplicated_cas_no": "",
    "SMILES": "O=C1N(C)CCCN1C",
    "meta_data": {
        "InChI": "InChI=1S/C6H12N2O/c1-7-4-3-5-8(2)6(7)9/h3-5H2,1-2H3",
        "InChIKey": null,
        "Canonical SMILES": "O=C1N(C)CCCN1C",
        "Molecular Formula": "C<sub>6</sub>H<sub>12</sub>N<sub>2</sub>O",
        "Molecular Mass": "128.17",
        "Boiling Point": "140 °C @ Press: 44 Torr",
        "Density": "1.03603 g/cm³ (liquid) @ Temp: 55.000 °C; Press: Atm pressure"
    }
}