{
    "cas_no": "4073-98-7",
    "key_name": "4,4′-Methylenebis(2,6-dimethylaniline)",
    "cn_name": "4-(4-氨基-3,5-二甲基苄基)-2,6-二甲基苯胺;3,3\",5,5\"-四甲基-4,4\"-二氨基二苯甲烷;",
    "alternate_name": "Benzenamine, 4,4′-methylenebis[2,6-dimethyl-;2,6-Xylidine, 4,4′-methylenedi-;4,4′-Methylenebis[2,6-dimethylbenzenamine];4,4′-Methylenedi-2,6-xylidine;4,4′-Methylenebis(2,6-dimethylaniline);4,4′-Methylenebis(2,6-xylidine);3,3′,5,5′-Tetramethyl-4,4′-diaminodiphenylmethane;Kayabond C 200;Kayabond C 200S;C 200S;3,3′,5,5′-Tetramethyl-4,4′-methylene dianiline;Bis(4-amino-3,5-dimethylphenyl)methane",
    "duplicated_cas_no": "73924-07-9",
    "SMILES": "C(C1=CC(C)=C(N)C(C)=C1)C2=CC(C)=C(N)C(C)=C2",
    "meta_data": {
        "InChI": "InChI=1S/C17H22N2/c1-10-5-14(6-11(2)16(10)18)9-15-7-12(3)17(19)13(4)8-15/h5-8H,9,18-19H2,1-4H3",
        "InChIKey": null,
        "Canonical SMILES": "NC=1C(=CC(=CC1C)CC=2C=C(C(N)=C(C2)C)C)C",
        "Molecular Formula": "C<sub>17</sub>H<sub>22</sub>N<sub>2</sub>",
        "Molecular Mass": "254.37",
        "Melting Point": "122.5-123.5 °C"
    }
}