{
    "cas_no": "5919-74-4",
    "key_name": "Glyceryl methacrylate",
    "cn_name": "2-甲基-2-丙烯酸-2,3-二羟基丙酯;",
    "alternate_name": "2-Propenoic acid, 2-methyl-, 2,3-dihydroxypropyl ester;Methacrylic acid, 2,3-dihydroxypropyl ester;Methacrylin, 1-mono-;2,3-Dihydroxypropyl methacrylate;Glyceryl methacrylate;Dihydroxypropyl methacrylate;1-Glycerol methacrylate;2,3-Hydroxypropyl methacrylate;Blemmer GLM-EX",
    "duplicated_cas_no": "96614-21-0;201594-54-9;205515-17-9;313344-18-2;338445-53-7;543689-70-9;1174669-93-2;1329498-79-4;1558026-26-8",
    "SMILES": "O(CC(CO)O)C(C(C)=C)=O",
    "meta_data": {
        "InChI": "InChI=1S/C7H12O4/c1-5(2)7(10)11-4-6(9)3-8/h6,8-9H,1,3-4H2,2H3",
        "InChIKey": null,
        "Canonical SMILES": "O=C(OCC(O)CO)C(=C)C",
        "Molecular Formula": "C<sub>7</sub>H<sub>12</sub>O<sub>4</sub>",
        "Molecular Mass": "160.17",
        "Boiling Point": "115-120 °C @ Press: 1 Torr"
    }
}