{
    "cas_no": "58909-39-0",
    "key_name": "Tetrahydro-2-methyl-3-thioxo-1,2,4-triazine-5,6-dione",
    "cn_name": "2,5-二氢-6-羟基-2-甲基-5-氧-3-巯基-1,2,4-三嗪;",
    "alternate_name": "1,2,4-Triazine-5,6-dione, tetrahydro-2-methyl-3-thioxo-;Tetrahydro-2-methyl-3-thioxo-1,2,4-triazine-5,6-dione;Ro 11-8390;2-Methyl-5,6-dioxo-1,2,5,6-tetrahydro-1,2,4-triazine-3-thiol;2,5-Dihydro-6-hydroxy-2-methyl-5-oxo-3-mercapto-1,2,4-triazine;2-Methyl-3-sulfanylidene-1,2,4-triazinane-5,6-dione",
    "duplicated_cas_no": "",
    "SMILES": "O=C1C(=O)NN(C)C(=S)N1",
    "meta_data": {
        "InChI": "InChI=1S/C4H5N3O2S/c1-7-4(10)5-2(8)3(9)6-7/h1H3,(H,6,9)(H,5,8,10)",
        "InChIKey": null,
        "Canonical SMILES": "O=C1NC(=S)N(NC1=O)C",
        "Molecular Formula": "C<sub>4</sub>H<sub>5</sub>N<sub>3</sub>O<sub>2</sub>S",
        "Molecular Mass": "159.17",
        "Melting Point": "235-240 °C"
    }
}