{
    "cas_no": "4584-57-0",
    "key_name": "4′-(Dimethylamino)-4-nitrostilbene",
    "cn_name": "4-二甲氨基-4\"-硝基苯乙烯;",
    "alternate_name": "Benzenamine, <em>N</em>,<em>N</em>-dimethyl-4-[2-(4-nitrophenyl)ethenyl]-;4-Stilbenamine, <em>N</em>,<em>N</em>-dimethyl-4′-nitro-;<em>N</em>,<em>N</em>-Dimethyl-4-[2-(4-nitrophenyl)ethenyl]benzenamine;<em>p</em>-Dimethylamino-<em>p</em>′-nitrostilbene;4-Nitro-4′-(dimethylamino)stilbene;4-(Dimethylamino)-4′-nitrostilbene;4′-Nitro-4-stilbenyl-<em>N</em>,<em>N</em>-dimethylamine;4′-(<em>N</em>,<em>N</em>-Dimethylamino)-4-nitrostilbene;4-(<em>N</em>,<em>N</em>-Dimethylamino)-4′-nitrostilbene;DANS;4′-(Dimethylamino)-4-nitrostilbene;DMANS;DANS (amine)",
    "duplicated_cas_no": "211565-05-8",
    "SMILES": "N(C)(C)C1=CC=C(C=CC2=CC=C(N(=O)=O)C=C2)C=C1",
    "meta_data": {
        "InChI": "InChI=1S/C16H16N2O2/c1-17(2)15-9-5-13(6-10-15)3-4-14-7-11-16(12-8-14)18(19)20/h3-12H,1-2H3",
        "InChIKey": null,
        "Canonical SMILES": "O=N(=O)C1=CC=C(C=CC2=CC=C(C=C2)N(C)C)C=C1",
        "Molecular Formula": "C<sub>16</sub>H<sub>16</sub>N<sub>2</sub>O<sub>2</sub>",
        "Molecular Mass": "268.31",
        "Melting Point": "250-251 °C"
    }
}