{
    "cas_no": "400-94-2",
    "key_name": "4-Fluoro-3-nitrobenzoyl chloride",
    "cn_name": null,
    "alternate_name": "Benzoyl chloride, 4-fluoro-3-nitro-;4-Fluoro-3-nitrobenzoyl chloride;3-Nitro-4-fluorobenzoyl chloride",
    "duplicated_cas_no": "3034091-82-9",
    "SMILES": "N(=O)(=O)C1=CC(C(Cl)=O)=CC=C1F",
    "meta_data": {
        "InChI": "InChI=1S/C7H3ClFNO3/c8-7(11)4-1-2-5(9)6(3-4)10(12)13/h1-3H",
        "InChIKey": null,
        "Canonical SMILES": "O=C(Cl)C1=CC=C(F)C(=C1)N(=O)=O",
        "Molecular Formula": "C<sub>7</sub>H<sub>3</sub>ClFNO<sub>3</sub>",
        "Molecular Mass": "203.55",
        "Boiling Point": "113-115 °C @ Press: 1.2 Torr",
        "Melting Point": "23.5-25 °C"
    }
}