{
    "cas_no": "50638-50-1",
    "key_name": "4-Bromo-<em>N</em>,<em>N</em>,3-trimethylbenzenamine",
    "cn_name": "4-溴-N,N,3-三甲基苯胺;",
    "alternate_name": "Benzenamine, 4-bromo-<em>N</em>,<em>N</em>,3-trimethyl-;<em>m</em>-Toluidine, 4-bromo-<em>N</em>,<em>N</em>-dimethyl-;4-Bromo-<em>N</em>,<em>N</em>,3-trimethylbenzenamine;<em>N</em>,<em>N</em>-Dimethyl-4-bromo-3-methylaniline;4-Bromo-<em>N</em>,<em>N</em>-dimethyl-3-methylaniline;4-Bromo-3-methyl-<em>N</em>,<em>N</em>-dimethylaniline;4-Bromo-<em>N</em>,<em>N</em>,3-trimethylaniline;1-Bromo-4-(dimethylamino)-2-methylbenzene",
    "duplicated_cas_no": "",
    "SMILES": "N(C)(C)C1=CC(C)=C(Br)C=C1",
    "meta_data": {
        "InChI": "InChI=1S/C9H12BrN/c1-7-6-8(11(2)3)4-5-9(7)10/h4-6H,1-3H3",
        "InChIKey": null,
        "Canonical SMILES": "BrC1=CC=C(C=C1C)N(C)C",
        "Molecular Formula": "C<sub>9</sub>H<sub>12</sub>BrN",
        "Molecular Mass": "214.10",
        "Boiling Point": "146-148 °C @ Press: 17 Torr",
        "Melting Point": "55 °C"
    }
}