{
    "cas_no": "22384-63-0",
    "key_name": "Pedalitin",
    "cn_name": null,
    "alternate_name": "4<em>H</em>-1-Benzopyran-4-one, 2-(3,4-dihydroxyphenyl)-5,6-dihydroxy-7-methoxy-;Flavone, 3′,4′,5,6-tetrahydroxy-7-methoxy-;Pedalitin;2-(3,4-Dihydroxyphenyl)-5,6-dihydroxy-7-methoxy-4<em>H</em>-1-benzopyran-4-one;6-Hydroxyluteolin-7-methyl ether;5,6,3′,4′-Tetrahydroxy-7-methoxyflavone;2-(3,4-Dihydroxyphenyl)-5,6-dihydroxy-7-methoxychromen-4-one",
    "duplicated_cas_no": "",
    "SMILES": "OC1=C2C(OC(=CC2=O)C3=CC(O)=C(O)C=C3)=CC(OC)=C1O",
    "meta_data": {
        "InChI": "InChI=1S/C16H12O7/c1-22-13-6-12-14(16(21)15(13)20)10(19)5-11(23-12)7-2-3-8(17)9(18)4-7/h2-6,17-18,20-21H,1H3",
        "InChIKey": null,
        "Canonical SMILES": "O=C1C=C(OC2=CC(OC)=C(O)C(O)=C12)C=3C=CC(O)=C(O)C3",
        "Molecular Formula": "C<sub>16</sub>H<sub>12</sub>O<sub>7</sub>",
        "Molecular Mass": "316.26",
        "Melting Point": "300-301 °C"
    }
}