{
    "cas_no": "20265-39-8",
    "key_name": "2-Methoxypyridin-4-amine",
    "cn_name": "4-氨基-2-甲氧基吡啶;2-甲氧基-4-氨基吡啶;",
    "alternate_name": "4-Pyridinamine, 2-methoxy-;Pyridine, 4-amino-2-methoxy-;2-Methoxy-4-pyridinamine;4-Amino-2-methoxypyridine;(2-Methoxypyridin-4-yl)amine;NSC 133109;2-Methoxypyridin-4-amine;2-Methoxy-4-aminopyridine",
    "duplicated_cas_no": "",
    "SMILES": "O(C)C1=CC(N)=CC=N1",
    "meta_data": {
        "InChI": "InChI=1S/C6H8N2O/c1-9-6-4-5(7)2-3-8-6/h2-4H,1H3,(H2,7,8)",
        "InChIKey": null,
        "Canonical SMILES": "N=1C=CC(N)=CC1OC",
        "Molecular Formula": "C<sub>6</sub>H<sub>8</sub>N<sub>2</sub>O",
        "Molecular Mass": "124.14",
        "Melting Point": "91.5-92.0 °C"
    }
}