{
    "cas_no": "90-82-4",
    "key_name": "Pseudoephedrine",
    "cn_name": "伪麻黄碱;右旋伪麻黄碱;(1S,2S)-2-甲氨基-1-苯基丙-1-醇;",
    "alternate_name": "Benzenemethanol, α-[(1<em>S</em>)-1-(methylamino)ethyl]-, (α<em>S</em>)-;Pseudoephedrine, (+)-;Pseudoephedrine;Benzenemethanol, α-[1-(methylamino)ethyl]-, [<em>S</em>-(<em>R</em>*,<em>R</em>*)]-;(α<em>S</em>)-α-[(1<em>S</em>)-1-(Methylamino)ethyl]benzenemethanol;<em>d</em>-ψ-Ephedrine;ψ-Ephedrine;<em>d</em>-Isoephedrine;<span class=\"text-smallcaps\">L</span>(+)-ψ-Ephedrine;<span class=\"text-smallcaps\">L</span>-(+)-Pseudoephedrine;ψ-Ephedrine, (+)-;(+)-Pseudoephedrine;<em>d</em>-Pseudoephedrine;<em>trans</em>-Ephedrine;Isoephedrine;(+)-(1<em>S</em>,2<em>S</em>)-Pseudoephedrine;(1<em>S</em>,2<em>S</em>)-Ephedrine;(+)-<em>threo</em>-Ephedrine;(1<em>S</em>,2<em>S</em>)-Pseudoephedrine;(+)-ψ-Ephedrine;(1<em>S</em>,2<em>S</em>)-(+)-Pseudoephedrine;Lopac E 3250;(1S,2S)-2-(Methylamino)-1-phenylpropan-1-ol;(<em>S</em>,<em>S</em>)-2-Methylamino-1-phenylpropan-1-ol;MeSH ID: D054199",
    "duplicated_cas_no": "304-87-0;30987-59-8;37577-31-4",
    "SMILES": "[C@H]([C@@H](NC)C)(O)C1=CC=CC=C1",
    "meta_data": {
        "InChI": "InChI=1S/C10H15NO/c1-8(11-2)10(12)9-6-4-3-5-7-9/h3-8,10-12H,1-2H3/t8-,10+/m0/s1",
        "InChIKey": null,
        "Canonical SMILES": "OC(C=1C=CC=CC1)C(NC)C",
        "Molecular Formula": "C<sub>10</sub>H<sub>15</sub>NO",
        "Molecular Mass": "165.23",
        "Boiling Point": "130 °C @ Press: 16 Torr",
        "Melting Point": "119 °C"
    }
}