{
    "cas_no": "100-31-2",
    "key_name": "4,4′-(1,2-Ethenediyl)bis[benzoic acid]",
    "cn_name": "4,4\"-二苯乙烯二羧酸;4,4\"-双苯乙烯基二羧酸;",
    "alternate_name": "Benzoic acid, 4,4′-(1,2-ethenediyl)bis-;4,4′-Stilbenedicarboxylic acid;4,4′-(1,2-Ethenediyl)bis[benzoic acid];4,4′-Dicarboxystilbene;NSC 40932",
    "duplicated_cas_no": "",
    "SMILES": "C(O)(=O)C1=CC=C(C=CC2=CC=C(C(O)=O)C=C2)C=C1",
    "meta_data": {
        "InChI": "InChI=1S/C16H12O4/c17-15(18)13-7-3-11(4-8-13)1-2-12-5-9-14(10-6-12)16(19)20/h1-10H,(H,17,18)(H,19,20)",
        "InChIKey": null,
        "Canonical SMILES": "O=C(O)C1=CC=C(C=CC2=CC=C(C=C2)C(=O)O)C=C1",
        "Molecular Formula": "C<sub>16</sub>H<sub>12</sub>O<sub>4</sub>",
        "Molecular Mass": "268.26",
        "Melting Point": "352-354 °C"
    }
}