{
    "cas_no": "90-98-2",
    "key_name": "4,4′-Dichlorobenzophenone",
    "cn_name": "4,4\"-二氯二苯甲酮;",
    "alternate_name": "Methanone, bis(4-chlorophenyl)-;Benzophenone, 4,4′-dichloro-;Bis(4-chlorophenyl)methanone;<em>p</em>,<em>p</em>′-Dichlorobenzophenone;4,4′-Dichlorobenzophenone;DBP;DCBP;Bis(4-chlorophenyl) ketone;Di(<em>p</em>-chlorophenyl) ketone;DBP (degradation product);Bis(<em>p</em>-chlorophenyl) ketone;Di(4-chlorophenyl) ketone;NSC 8787;DCBP (ketone);4,4′-DCBP",
    "duplicated_cas_no": "",
    "SMILES": "C(=O)(C1=CC=C(Cl)C=C1)C2=CC=C(Cl)C=C2",
    "meta_data": {
        "InChI": "InChI=1S/C13H8Cl2O/c14-11-5-1-9(2-6-11)13(16)10-3-7-12(15)8-4-10/h1-8H",
        "InChIKey": null,
        "Canonical SMILES": "O=C(C1=CC=C(Cl)C=C1)C2=CC=C(Cl)C=C2",
        "Molecular Formula": "C<sub>13</sub>H<sub>8</sub>Cl<sub>2</sub>O",
        "Molecular Mass": "251.11",
        "Boiling Point": "353 °C",
        "Melting Point": "147.5 °C"
    }
}