{
    "cas_no": "5994-61-6",
    "key_name": "<em>N</em>-(Phosphonomethyl)iminodiacetic acid",
    "cn_name": "双甘膦;N-(羧甲基)-N-(磷酰甲基)甘氨酸;N-(膦酰甲基)亚氨基二乙酸;",
    "alternate_name": "Glycine, <em>N</em>-(carboxymethyl)-<em>N</em>-(phosphonomethyl)-;Acetic acid, [(phosphonomethyl)imino]di-;<em>N</em>-(Carboxymethyl)-<em>N</em>-(phosphonomethyl)glycine;Nitrilodiacetic acid methylphosphonic acid;<em>N</em>-(Phosphonomethyl)iminodiacetic acid;Aminomethylphosphonic <em>N</em>,<em>N</em>-diacetic acid;MON 820;Phosphonomethyliminodiacetic acid;Nitrilotris(methylene) triphonic acid;PMIDA;2,2′-[(Phosphonomethyl)imino]diacetic acid;(Carboxymethyl-phosphonomethyl-amino)-acetic acid;2-[Carboxymethyl(phosphonomethyl)amino]acetic acid",
    "duplicated_cas_no": "178560-74-2",
    "SMILES": "C(N(CC(O)=O)CC(O)=O)P(=O)(O)O",
    "meta_data": {
        "InChI": "InChI=1S/C5H10NO7P/c7-4(8)1-6(2-5(9)10)3-14(11,12)13/h1-3H2,(H,7,8)(H,9,10)(H2,11,12,13)",
        "InChIKey": null,
        "Canonical SMILES": "O=C(O)CN(CC(=O)O)CP(=O)(O)O",
        "Molecular Formula": "C<sub>5</sub>H<sub>10</sub>NO<sub>7</sub>P",
        "Molecular Mass": "227.11",
        "Melting Point": "208 °C (decomp)"
    }
}