{
    "cas_no": "641571-10-0",
    "key_name": "Nilotinib",
    "cn_name": "尼罗替尼;4-甲基-3-((4-(3-吡啶基)-2-嘧啶基)氨基)-N-(5-(4-甲基-1H-咪唑-1-基)-3-(三氟甲基)苯基)苯甲酰胺;",
    "alternate_name": "Benzamide, 4-methyl-<em>N</em>-[3-(4-methyl-1<em>H</em>-imidazol-1-yl)-5-(trifluoromethyl)phenyl]-3-[[4-(3-pyridinyl)-2-pyrimidinyl]amino]-;4-Methyl-<em>N</em>-[3-(4-methyl-1<em>H</em>-imidazol-1-yl)-5-(trifluoromethyl)phenyl]-3-[[4-(3-pyridinyl)-2-pyrimidinyl]amino]benzamide;4-Methyl-3-[[4-(3-pyridinyl)-2-pyrimidinyl]amino]-<em>N</em>-[5-(4-methyl-1<em>H</em>-imidazol-1-yl)-3-(trifluoromethyl)phenyl]benzamide;AMN 107;4-Methyl-<em>N</em>-[3-(4-methylimidazol-1-yl)-5-trifluoromethylphenyl]-3-[[4-(pyridin-3-yl)pyrimidin-2-yl]amino]benzamide;Nilotinib;Tasigna",
    "duplicated_cas_no": "",
    "SMILES": "C(F)(F)(F)C=1C=C(C=C(NC(=O)C2=CC(NC=3N=C(C=CN3)C=4C=CC=NC4)=C(C)C=C2)C1)N5C=NC(C)=C5",
    "meta_data": {
        "InChI": "InChI=1S/C28H22F3N7O/c1-17-5-6-19(10-25(17)37-27-33-9-7-24(36-27)20-4-3-8-32-14-20)26(39)35-22-11-21(28(29,30)31)12-23(13-22)38-15-18(2)34-16-38/h3-16H,1-2H3,(H,35,39)(H,33,36,37)",
        "InChIKey": null,
        "Canonical SMILES": "O=C(NC=1C=C(C=C(C1)C(F)(F)F)N2C=NC(=C2)C)C3=CC=C(C(=C3)NC=4N=CC=C(N4)C5=CN=CC=C5)C",
        "Molecular Formula": "C<sub>28</sub>H<sub>22</sub>F<sub>3</sub>N<sub>7</sub>O",
        "Molecular Mass": "",
        "Melting Point": "231-233 °C"
    }
}