{
    "cas_no": "2039-89-6",
    "key_name": "2,5-Dimethylstyrene",
    "cn_name": "2,5-二甲基苯乙烯;",
    "alternate_name": "Benzene, 2-ethenyl-1,4-dimethyl-;Styrene, 2,5-dimethyl-;2-Ethenyl-1,4-dimethylbenzene;2,5-Dimethylstyrene;1,4-Dimethyl-2-vinylbenzene;NSC 73477;1,4-Dimethyl-2-ethenylbenzene",
    "duplicated_cas_no": "",
    "SMILES": "C(=C)C1=C(C)C=CC(C)=C1",
    "meta_data": {
        "InChI": "InChI=1S/C10H12/c1-4-10-7-8(2)5-6-9(10)3/h4-7H,1H2,2-3H3",
        "InChIKey": null,
        "Canonical SMILES": "C=CC1=CC(=CC=C1C)C",
        "Molecular Formula": "C<sub>10</sub>H<sub>12</sub>",
        "Molecular Mass": "132.20",
        "Boiling Point": "82-83 °C @ Press: 23 Torr",
        "Melting Point": "-36.8--34.8 °C",
        "Density": "0.902 g/cm³ @ Temp: 25 °C"
    }
}