{
    "cas_no": "3435-28-7",
    "key_name": "4-Amino-6-methylpyrimidine",
    "cn_name": null,
    "alternate_name": "4-Pyrimidinamine, 6-methyl-;Pyrimidine, 4-amino-6-methyl-;6-Methyl-4-pyrimidinamine;4-Amino-6-methylpyrimidine;(6-Methylpyrimidin-4-yl)amine",
    "duplicated_cas_no": "",
    "SMILES": "CC=1C=C(N)N=CN1",
    "meta_data": {
        "InChI": "InChI=1S/C5H7N3/c1-4-2-5(6)8-3-7-4/h2-3H,1H3,(H2,6,7,8)",
        "InChIKey": null,
        "Canonical SMILES": "N=1C=NC(=CC1N)C",
        "Molecular Formula": "C<sub>5</sub>H<sub>7</sub>N<sub>3</sub>",
        "Molecular Mass": "109.13",
        "Melting Point": "197 °C"
    }
}