{
    "cas_no": "51934-41-9",
    "key_name": "Ethyl 4-iodobenzoate",
    "cn_name": null,
    "alternate_name": "Benzoic acid, 4-iodo-, ethyl ester;Benzoic acid, <em>p</em>-iodo-, ethyl ester;Ethyl 4-iodobenzoate;Ethyl <em>p</em>-iodobenzoate;4-(Ethoxycarbonyl)phenyl iodide;<em>p</em>-(Ethoxycarbonyl)iodobenzene;4-Iodobenzoic acid ethyl ester;4-Carbethoxyphenyl iodide;4-Ethoxycarbonyl-1-iodobenzene;1-Iodo-4-(ethoxycarbonyl)benzene;4-Ethoxycarbonyliodobenzene;1-Ethyl-4-iodobenzoate",
    "duplicated_cas_no": "",
    "SMILES": "C(OCC)(=O)C1=CC=C(I)C=C1",
    "meta_data": {
        "InChI": "InChI=1S/C9H9IO2/c1-2-12-9(11)7-3-5-8(10)6-4-7/h3-6H,2H2,1H3",
        "InChIKey": null,
        "Canonical SMILES": "O=C(OCC)C1=CC=C(I)C=C1",
        "Molecular Formula": "C<sub>9</sub>H<sub>9</sub>IO<sub>2</sub>",
        "Molecular Mass": "276.07",
        "Boiling Point": "126.5 °C @ Press: 4 Torr",
        "Melting Point": "267 °C"
    }
}