{
    "cas_no": "20721-18-0",
    "key_name": "6-Methyl-2(1<em>H</em>)-pyrazinone",
    "cn_name": "2-羟基-6-甲基吡嗪;",
    "alternate_name": "2(1<em>H</em>)-Pyrazinone, 6-methyl-;Pyrazinol, 6-methyl-;6-Methyl-2(1<em>H</em>)-pyrazinone;6-Methylpyrazin-2-one;NSC 143141;2-Hydroxy-6-methylpyrazine",
    "duplicated_cas_no": "",
    "SMILES": "CC=1NC(=O)C=NC1",
    "meta_data": {
        "InChI": "InChI=1S/C5H6N2O/c1-4-2-6-3-5(8)7-4/h2-3H,1H3,(H,7,8)",
        "InChIKey": null,
        "Canonical SMILES": "O=C1C=NC=C(N1)C",
        "Molecular Formula": "C<sub>5</sub>H<sub>6</sub>N<sub>2</sub>O",
        "Molecular Mass": "110.11",
        "Melting Point": "249-250 °C"
    }
}