{
    "cas_no": "628-96-6",
    "key_name": "Glycol dinitrate",
    "cn_name": null,
    "alternate_name": "1,2-Ethanediol, 1,2-dinitrate;Ethylene nitrate;Ethylene glycol, dinitrate;1,2-Ethanediol, dinitrate;EGDN;Ethylene dinitrate;Glycol dinitrate;Nitroglycol;Ethylene glycol dinitrate ester;Ethylene glycol dinitrate;2-(Nitrooxy)ethyl nitrate",
    "duplicated_cas_no": "121749-11-9",
    "SMILES": "C(CON(=O)=O)ON(=O)=O",
    "meta_data": {
        "InChI": "InChI=1S/C2H4N2O6/c5-3(6)9-1-2-10-4(7)8/h1-2H2",
        "InChIKey": null,
        "Canonical SMILES": "O=N(=O)OCCON(=O)=O",
        "Molecular Formula": "C<sub>2</sub>H<sub>4</sub>N<sub>2</sub>O<sub>6</sub>",
        "Molecular Mass": "152.06",
        "Boiling Point": "197-200 °C @ Press: 760 Torr",
        "Melting Point": "-22.3 °C",
        "Density": "1.4918 g/cm³ @ Temp: 20 °C"
    }
}