{
    "cas_no": "941-55-9",
    "key_name": "Tosyl azide",
    "cn_name": "对甲苯磺酰叠氮;",
    "alternate_name": "Benzenesulfonyl azide, 4-methyl-;<em>p</em>-Toluenesulfonyl azide;4-Methylbenzenesulfonyl azide;<em>p</em>-Toluenesulfonazide;Tosyl azide;Tosyl nitride;<em>p</em>-Tolylsulfonyl azide;<em>p</em>-Methylphenylsulfonyl azide;<em>p</em>-Toluenesulfonic acid azide;Azido-<em>p</em>-toluenesulfonic acid;4-Toluenesulfonyl azide;<em>p</em>-Tosyl azide;4-Methylphenylsulfonyl azide;NSC 138649;<em>p</em>-Methylbenzenesulfonyl azide",
    "duplicated_cas_no": "67842-69-7;1647111-45-2",
    "SMILES": "S(N=[N+]=[N-])(=O)(=O)C1=CC=C(C)C=C1",
    "meta_data": {
        "InChI": "InChI=1S/C7H7N3O2S/c1-6-2-4-7(5-3-6)13(11,12)10-9-8/h2-5H,1H3",
        "InChIKey": null,
        "Canonical SMILES": "[N-]=[N+]=NS(=O)(=O)C1=CC=C(C=C1)C",
        "Molecular Formula": "C<sub>7</sub>H<sub>7</sub>N<sub>3</sub>O<sub>2</sub>S",
        "Molecular Mass": "",
        "Melting Point": "22 °C"
    }
}