{
    "cas_no": "16128-68-0",
    "key_name": "1,2-Butanedithiol",
    "cn_name": "1,2-丁二硫醇;",
    "alternate_name": "1,2-Butanedithiol;1,2-Dithiolbutane;1,2-Dimercaptobutane;1-Ethyl-1,2-ethanedithiol",
    "duplicated_cas_no": "",
    "SMILES": "C(CC)(CS)S",
    "meta_data": {
        "InChI": "InChI=1S/C4H10S2/c1-2-4(6)3-5/h4-6H,2-3H2,1H3",
        "InChIKey": null,
        "Canonical SMILES": "SCC(S)CC",
        "Molecular Formula": "C<sub>4</sub>H<sub>10</sub>S<sub>2</sub>",
        "Molecular Mass": "122.25",
        "Boiling Point": "49 °C @ Press: 5 Torr",
        "Density": "1.039 g/cm³ @ Temp: 20 °C"
    }
}