{
    "cas_no": "520-26-3",
    "key_name": "Hesperidin",
    "cn_name": "二氢黄酮甙;橙皮甙;",
    "alternate_name": "4<em>H</em>-1-Benzopyran-4-one, 7-[[6-<em>O</em>-(6-deoxy-α-<span class=\"text-smallcaps\">L</smallcap>-mannopyranosyl)-β-<smallcap>D</span>-glucopyranosyl]oxy]-2,3-dihydro-5-hydroxy-2-(3-hydroxy-4-methoxyphenyl)-, (2<em>S</em>)-;Hesperidin;4<em>H</em>-1-Benzopyran-4-one, 7-[[6-<em>O</em>-(6-deoxy-α-<span class=\"text-smallcaps\">L</smallcap>-mannopyranosyl)-β-<smallcap>D</span>-glucopyranosyl]oxy]-2,3-dihydro-5-hydroxy-2-(3-hydroxy-4-methoxyphenyl)-, (<em>S</em>)-;Flavanone, 3′,5,7-trihydroxy-4′-methoxy-, 7-(6-<em>O</em>-α-<span class=\"text-smallcaps\">L</smallcap>-rhamnosyl-<smallcap>D</span>-glucoside);(2<em>S</em>)-7-[[6-<em>O</em>-(6-Deoxy-α-<span class=\"text-smallcaps\">L</smallcap>-mannopyranosyl)-β-<smallcap>D</span>-glucopyranosyl]oxy]-2,3-dihydro-5-hydroxy-2-(3-hydroxy-4-methoxyphenyl)-4<em>H</em>-1-benzopyran-4-one;Cirantin;Hesperidoside;Hesperetin 7-rutinoside;Hesperidine;Hesperetin 7-rhamnoglucoside;NSC 44184;(2<em>S</em>)-Hesperidin;Atripliside B;Hesperetin 7-<em>O</em>-rutinoside;Hesperitin 7-<em>O</em>-rutinoside;NP-000088;MeSH ID: D006569",
    "duplicated_cas_no": "15512-51-3;16643-24-6;17654-22-7;28283-75-2;30927-97-0;32737-61-4;106904-63-6;960582-50-7;1817614-33-7",
    "SMILES": "O=C1C=2C(O[C@@H](C1)C3=CC(O)=C(OC)C=C3)=CC(O[C@@H]4O[C@H](CO[C@H]5[C@H](O)[C@H](O)[C@@H](O)[C@H](C)O5)[C@@H](O)[C@H](O)[C@H]4O)=CC2O",
    "meta_data": {
        "InChI": "InChI=1S/C28H34O15/c1-10-21(32)23(34)25(36)27(40-10)39-9-19-22(33)24(35)26(37)28(43-19)41-12-6-14(30)20-15(31)8-17(42-18(20)7-12)11-3-4-16(38-2)13(29)5-11/h3-7,10,17,19,21-30,32-37H,8-9H2,1-2H3/t10-,17-,19+,21-,22+,23+,24-,25+,26+,27+,28+/m0/s1",
        "InChIKey": null,
        "Canonical SMILES": "O=C1C2=C(O)C=C(OC3OC(COC4OC(C)C(O)C(O)C4O)C(O)C(O)C3O)C=C2OC(C5=CC=C(OC)C(O)=C5)C1",
        "Molecular Formula": "C<sub>28</sub>H<sub>34</sub>O<sub>15</sub>",
        "Molecular Mass": "610.56",
        "Melting Point": "262 °C"
    }
}