{
    "cas_no": "7787-42-0",
    "key_name": "BaWO<sub>4</sub>",
    "cn_name": "钨酸钡;",
    "alternate_name": "Tungstate (WO<sub>4</sub><sup>2-</sup>), barium (1:1), (<em>T</em>-4)-;Barium tungstate(VI) (BaWO<sub>4</sub>);Tungstic acid (H<sub>2</sub>WO<sub>4</sub>), barium salt (1:1);C.I. 77128;Barium tungstate;Barium White;C.I. Pigment White 13;Tungstate White;Tungsten white;Barium tungstate (BaWO<sub>4</sub>);Barium tungsten oxide (BaWO<sub>4</sub>);Pigment White 13;BaWO<sub>4</sub>;Barium tungsten oxide (BaWO<sub>4</sub>)",
    "duplicated_cas_no": "2095253-82-8",
    "SMILES": "[W-2](=O)(=O)(=O)=O.[Ba+2]",
    "meta_data": {
        "InChI": "InChI=1S/Ba.4O.W/q+2;;;;;-2",
        "InChIKey": null,
        "Canonical SMILES": "[Ba+2].O=[W-2](=O)(=O)=O",
        "Molecular Formula": "Ba.O<sub>4</sub>W",
        "Molecular Mass": "",
        "Melting Point": "1473 °C",
        "Density": "6.393 g/cm³ @ Temp: 22 °C"
    }
}