{
    "cas_no": "3344-70-5",
    "key_name": "1,12-Dibromododecane",
    "cn_name": "1,12-二溴十二烷;",
    "alternate_name": "Dodecane, 1,12-dibromo-;1,12-Dibromododecane;α,ω-Dibromododecane;Dodecamethylene dibromide",
    "duplicated_cas_no": "",
    "SMILES": "C(CCCCCCBr)CCCCCBr",
    "meta_data": {
        "InChI": "InChI=1S/C12H24Br2/c13-11-9-7-5-3-1-2-4-6-8-10-12-14/h1-12H2",
        "InChIKey": null,
        "Canonical SMILES": "BrCCCCCCCCCCCCBr",
        "Molecular Formula": "C<sub>12</sub>H<sub>24</sub>Br<sub>2</sub>",
        "Molecular Mass": "328.13",
        "Boiling Point": "215 °C @ Press: 15 Torr",
        "Melting Point": "41 °C"
    }
}