{
    "cas_no": "96980-65-3",
    "key_name": "2-Chloro-<em>N</em>-(2,4-difluorophenyl)acetamide",
    "cn_name": null,
    "alternate_name": "Acetamide, 2-chloro-<em>N</em>-(2,4-difluorophenyl)-;2-Chloro-<em>N</em>-(2,4-difluorophenyl)acetamide;<em>N</em>-Chloroacetyl-2,4-difluoroaniline",
    "duplicated_cas_no": "",
    "SMILES": "N(C(CCl)=O)C1=C(F)C=C(F)C=C1",
    "meta_data": {
        "InChI": "InChI=1S/C8H6ClF2NO/c9-4-8(13)12-7-2-1-5(10)3-6(7)11/h1-3H,4H2,(H,12,13)",
        "InChIKey": null,
        "Canonical SMILES": "O=C(NC1=CC=C(F)C=C1F)CCl",
        "Molecular Formula": "C<sub>8</sub>H<sub>6</sub>ClF<sub>2</sub>NO",
        "Molecular Mass": "205.59",
        "Melting Point": "76-78 °C"
    }
}