{
    "cas_no": "4964-76-5",
    "key_name": "7-Methoxyquinoline",
    "cn_name": "7-甲氧基喹啉;",
    "alternate_name": "Quinoline, 7-methoxy-;7-Methoxyquinoline",
    "duplicated_cas_no": "",
    "SMILES": "O(C)C1=CC2=C(C=C1)C=CC=N2",
    "meta_data": {
        "InChI": "InChI=1S/C10H9NO/c1-12-9-5-4-8-3-2-6-11-10(8)7-9/h2-7H,1H3",
        "InChIKey": null,
        "Canonical SMILES": "N1=CC=CC2=CC=C(OC)C=C12",
        "Molecular Formula": "C<sub>10</sub>H<sub>9</sub>NO",
        "Molecular Mass": "159.18",
        "Boiling Point": "143-145 °C @ Press: 11 Torr"
    }
}