{
    "cas_no": "4931-66-2",
    "key_name": "Methyl pyroglutamate",
    "cn_name": "L-焦谷氨酸甲酯;",
    "alternate_name": "<span class=\"text-smallcaps\">L</span>-Proline, 5-oxo-, methyl ester;Pyroglutamic acid, methyl ester, <span class=\"text-smallcaps\">L</span>-;Methyl pyroglutamate;(<em>S</em>)-5-(Methoxycarbonyl)-2-pyrrolidone;<span class=\"text-smallcaps\">L</span>-Pyroglutamic acid methyl ester;Methyl (<em>S</em>)-pyroglutamate;5-Oxo-<span class=\"text-smallcaps\">L</span>-proline methyl ester;Methyl <span class=\"text-smallcaps\">L</span>-pyroglutamate;Pyroglutamic acid methyl ester;(<em>S</em>)-5-(Methoxycarbonyl)-2-pyrrolidinone;Methyl <em>N</em>-BOC-(<em>S</em>)-pyroglutamate;<span class=\"text-smallcaps\">L</span>-5-Oxoproline methyl ester;Methyl (<em>S</em>)-(+)-2-oxopyrrolidine-5-carboxylate;(2<em>S</em>)-5-Oxopyrrolidine-2-carboxylic acid methyl ester;Methyl (<em>S</em>)-2-oxopyrrolidine-5-carboxylate;(<em>S</em>)-Methyl 5-oxopyrrolidine-2-carboxylate;Methyl 5-oxo-<span class=\"text-smallcaps\">L</span>-proline;Methyl (2S)-5-oxopyrrolidine-2-carboxylate;<span class=\"text-smallcaps\">L</span>-Pyroglutamic acid methyl ether",
    "duplicated_cas_no": "53931-79-6",
    "SMILES": "C(OC)(=O)[C@H]1NC(=O)CC1",
    "meta_data": {
        "InChI": "InChI=1S/C6H9NO3/c1-10-6(9)4-2-3-5(8)7-4/h4H,2-3H2,1H3,(H,7,8)/t4-/m0/s1",
        "InChIKey": null,
        "Canonical SMILES": "O=C(OC)C1NC(=O)CC1",
        "Molecular Formula": "C<sub>6</sub>H<sub>9</sub>NO<sub>3</sub>",
        "Molecular Mass": "143.14",
        "Boiling Point": "127-130 °C @ Press: 2 Torr"
    }
}