{
    "cas_no": "112-13-0",
    "key_name": "Decanoyl chloride",
    "cn_name": "癸酰氯;",
    "alternate_name": "Decanoyl chloride;Caprinoyl chloride;<em>n</em>-Decanoyl chloride;Decanoic acid chloride;Capric acid chloride;Capric chloride",
    "duplicated_cas_no": "",
    "SMILES": "C(CCCCCC)CCC(Cl)=O",
    "meta_data": {
        "InChI": "InChI=1S/C10H19ClO/c1-2-3-4-5-6-7-8-9-10(11)12/h2-9H2,1H3",
        "InChIKey": null,
        "Canonical SMILES": "O=C(Cl)CCCCCCCCC",
        "Molecular Formula": "C<sub>10</sub>H<sub>19</sub>ClO",
        "Molecular Mass": "190.71",
        "Boiling Point": "95 °C",
        "Melting Point": "-34.5 °C"
    }
}