{
    "cas_no": "932-95-6",
    "key_name": "2,5-Thiophenedicarboxaldehyde",
    "cn_name": "2,5-噻吩二甲醛;",
    "alternate_name": "2,5-Thiophenedicarboxaldehyde;2,5-Diformylthiophene;2,5-Thiophenedicarbaldehyde;2,5-Thiophenedial;Thiophene-2,5-dialdehyde;2,5-Thienodicarboxaldehyde",
    "duplicated_cas_no": "",
    "SMILES": "C(=O)C=1SC(C=O)=CC1",
    "meta_data": {
        "InChI": "InChI=1S/C6H4O2S/c7-3-5-1-2-6(4-8)9-5/h1-4H",
        "InChIKey": null,
        "Canonical SMILES": "O=CC=1SC(C=O)=CC1",
        "Molecular Formula": "C<sub>6</sub>H<sub>4</sub>O<sub>2</sub>S",
        "Molecular Mass": "140.16",
        "Melting Point": "114-114.5 °C"
    }
}