{
    "cas_no": "1530-37-6",
    "key_name": "Phosphonium, [(4-methylphenyl)methyl]triphenyl-, chloride (1:1)",
    "cn_name": null,
    "alternate_name": "Phosphonium, [(4-methylphenyl)methyl]triphenyl-, chloride (1:1);Phosphonium, (<em>p</em>-methylbenzyl)triphenyl-, chloride;Phosphonium, [(4-methylphenyl)methyl]triphenyl-, chloride;(<em>p</em>-Methylbenzyl)triphenylphosphonium chloride;4-Methylbenzyltriphenylphosphonium chloride",
    "duplicated_cas_no": "2088177-43-7",
    "SMILES": "[P+](CC1=CC=C(C)C=C1)(C2=CC=CC=C2)(C3=CC=CC=C3)C4=CC=CC=C4.[Cl-]",
    "meta_data": {
        "InChI": "InChI=1S/C26H24P.ClH/c1-22-17-19-23(20-18-22)21-27(24-11-5-2-6-12-24,25-13-7-3-8-14-25)26-15-9-4-10-16-26;/h2-20H,21H2,1H3;1H/q+1;/p-1",
        "InChIKey": null,
        "Canonical SMILES": "[Cl-].C=1C=CC(=CC1)[P+](C=2C=CC=CC2)(C=3C=CC=CC3)CC4=CC=C(C=C4)C",
        "Molecular Formula": "C<sub>26</sub>H<sub>24</sub>P.Cl",
        "Molecular Mass": "",
        "Melting Point": "240-241 °C"
    }
}