{
    "cas_no": "4619-74-3",
    "key_name": "2,4,6-Tribromo-3-methylphenol",
    "cn_name": "2,4,6-三溴-3-甲基苯酚;2,4,6-三溴间甲酚;",
    "alternate_name": "Phenol, 2,4,6-tribromo-3-methyl-;<em>m</em>-Cresol, 2,4,6-tribromo-;2,4,6-Tribromo-3-methylphenol;2,4,6-Tribromo-<em>m</em>-cresol;Triphysan;Triphysol;Micatex;NSC 74686",
    "duplicated_cas_no": "",
    "SMILES": "CC1=C(Br)C(O)=C(Br)C=C1Br",
    "meta_data": {
        "InChI": "InChI=1S/C7H5Br3O/c1-3-4(8)2-5(9)7(11)6(3)10/h2,11H,1H3",
        "InChIKey": null,
        "Canonical SMILES": "BrC=1C=C(Br)C(=C(Br)C1O)C",
        "Molecular Formula": "C<sub>7</sub>H<sub>5</sub>Br<sub>3</sub>O",
        "Molecular Mass": "344.83",
        "Melting Point": "84 °C"
    }
}