{
    "cas_no": "224-42-0",
    "key_name": "Dibenz[<em>a</em>,<em>j</em>]acridine",
    "cn_name": "二苯并(A,J)丫啶;二苯并(A,J)丫啶;",
    "alternate_name": "Dibenz[<em>a</em>,<em>j</em>]acridine;7-Azadibenz[<em>a</em>,<em>j</em>]anthracene;1,2:7,8-Dibenzacridine;NSC 114903",
    "duplicated_cas_no": "",
    "SMILES": "C12=C3C(=CC=C1N=C4C(=C2)C=5C(C=C4)=CC=CC5)C=CC=C3",
    "meta_data": {
        "InChI": "InChI=1S/C21H13N/c1-3-7-16-14(5-1)9-11-20-18(16)13-19-17-8-4-2-6-15(17)10-12-21(19)22-20/h1-13H",
        "InChIKey": null,
        "Canonical SMILES": "N=1C=2C=CC=3C=CC=CC3C2C=C4C1C=CC5=CC=CC=C54",
        "Molecular Formula": "C<sub>21</sub>H<sub>13</sub>N",
        "Molecular Mass": "279.33",
        "Melting Point": "216 °C"
    }
}