{
    "cas_no": "1455-18-1",
    "key_name": "3-Methylbenzothiophene",
    "cn_name": "3-甲基苯并[b]噻吩;",
    "alternate_name": "Benzo[<em>b</em>]thiophene, 3-methyl-;3-Methylbenzo[<em>b</em>]thiophene;3-Methylbenzothiophene;3-Methylthianaphthene;3-Methyl-1-thiaindene;NSC 267241;3-Methyl-1-benzothiophene",
    "duplicated_cas_no": "",
    "SMILES": "CC=1C=2C(=CC=CC2)SC1",
    "meta_data": {
        "InChI": "InChI=1S/C9H8S/c1-7-6-10-9-5-3-2-4-8(7)9/h2-6H,1H3",
        "InChIKey": null,
        "Canonical SMILES": "S1C=C(C=2C=CC=CC12)C",
        "Molecular Formula": "C<sub>9</sub>H<sub>8</sub>S",
        "Molecular Mass": "148.22",
        "Boiling Point": "108-109 °C @ Press: 12 Torr",
        "Melting Point": "-39.66 °C",
        "Density": "1.1190 g/cm³ @ Temp: 20 °C"
    }
}