{
    "cas_no": "693-83-4",
    "key_name": "1,1′-Thiobis[decane]",
    "cn_name": "二癸基硫醚;",
    "alternate_name": "Decane, 1,1′-thiobis-;Decyl sulfide;1,1′-Thiobis[decane];Didecyl sulfide;Di-<em>n</em>-decyl sulfide;Di-<em>n</em>-decyl thioether;NSC 408645;Didecyl thioether;1-Decylsulfanyldecane",
    "duplicated_cas_no": "",
    "SMILES": "S(CCCCCCCCCC)CCCCCCCCCC",
    "meta_data": {
        "InChI": "InChI=1S/C20H42S/c1-3-5-7-9-11-13-15-17-19-21-20-18-16-14-12-10-8-6-4-2/h3-20H2,1-2H3",
        "InChIKey": null,
        "Canonical SMILES": "S(CCCCCCCCCC)CCCCCCCCCC",
        "Molecular Formula": "C<sub>20</sub>H<sub>42</sub>S",
        "Molecular Mass": "314.61",
        "Boiling Point": "206 °C @ Press: 8 Torr",
        "Melting Point": "27-27.5 °C",
        "Density": "0.8527 g/cm³ @ Temp: 20 °C"
    }
}