{
    "cas_no": "628-30-8",
    "key_name": "Propyl isothiocyanate",
    "cn_name": "异硫氰酸丙酯 [628-30-8];异硫氰酸丙酯;1-异硫氰酸丙酯;",
    "alternate_name": "Propane, 1-isothiocyanato-;Isothiocyanic acid, propyl ester;1-Isothiocyanatopropane;Propyl isothiocyanate;<em>n</em>-Propyl isothiocyanate;1-Propanesulfenyl isocyanate",
    "duplicated_cas_no": "2921006-79-1",
    "SMILES": "C(N=C=S)CC",
    "meta_data": {
        "InChI": "InChI=1S/C4H7NS/c1-2-3-5-4-6/h2-3H2,1H3",
        "InChIKey": null,
        "Canonical SMILES": "S=C=NCCC",
        "Molecular Formula": "C<sub>4</sub>H<sub>7</sub>NS",
        "Molecular Mass": "101.17",
        "Boiling Point": "153 °C"
    }
}