{
    "cas_no": "88511-38-0",
    "key_name": "1-(5-Isoxazolyl)ethanone",
    "cn_name": null,
    "alternate_name": "Ethanone, 1-(5-isoxazolyl)-;Ketone, 5-isoxazolyl methyl;1-(5-Isoxazolyl)ethanone;1-(1,2-Oxazol-5-yl)ethanone;1-(1,2-Oxazol-5-yl)ethan-1-one",
    "duplicated_cas_no": "",
    "SMILES": "C(C)(=O)C1=CC=NO1",
    "meta_data": {
        "InChI": "InChI=1S/C5H5NO2/c1-4(7)5-2-3-6-8-5/h2-3H,1H3",
        "InChIKey": null,
        "Canonical SMILES": "O=C(C=1ON=CC1)C",
        "Molecular Formula": "C<sub>5</sub>H<sub>5</sub>NO<sub>2</sub>",
        "Molecular Mass": "111.10",
        "Melting Point": "52.5-53 °C"
    }
}