{
    "cas_no": "607-80-7",
    "key_name": "Sesamin",
    "cn_name": "芝麻素;",
    "alternate_name": "1,3-Benzodioxole, 5,5′-(tetrahydro-1<em>H</em>,3<em>H</em>-furo[3,4-<em>c</em>]furan-1,4-diyl)bis-, (1<em>S</em>,3a<em>R</em>,4<em>S</em>,6a<em>R</em>)-;1,3-Benzodioxole, 5,5′-(tetrahydro-1<em>H</em>,3<em>H</em>-furo[3,4-<em>c</em>]furan-1,4-diyl)bis-, [1<em>S</em>-(1α,3aα,4α,6aα)]-;1<em>H</em>,3<em>H</em>-Furo[3,4-<em>c</em>]furan, tetrahydro-1,4-bis[3,4-(methylenedioxy)phenyl]-, (1<em>S</em>,3a<em>R</em>,4<em>S</em>,6a<em>R</em>)-;1<em>H</em>,3<em>H</em>-Furo[3,4-<em>c</em>]furan, 1,3-benzodioxole deriv.;(1<em>S</em>,3a<em>R</em>,4<em>S</em>,6a<em>R</em>)-5,5′-(Tetrahydro-1<em>H</em>,3<em>H</em>-furo[3,4-<em>c</em>]furan-1,4-diyl)bis[1,3-benzodioxole];Sesamin;Fagarol;Sesamin, (+)-;(+)-Sesamin;<em>d</em>-Sesamin;Tetrahydro-1,4-bis[3,4-(methylenedioxy)phenyl]-1<em>H</em>,3<em>H</em>-furo[3,4-<em>c</em>]furan;Sezamin;NSC 36403;Zengxiaomin;δ-Sesamin;Sesavita",
    "duplicated_cas_no": "10590-92-8",
    "SMILES": "[C@]12([C@@]([C@H](OC1)C=3C=C4C(=CC3)OCO4)(CO[C@@H]2C=5C=C6C(=CC5)OCO6)[H])[H]",
    "meta_data": {
        "InChI": "InChI=1S/C20H18O6/c1-3-15-17(25-9-23-15)5-11(1)19-13-7-22-20(14(13)8-21-19)12-2-4-16-18(6-12)26-10-24-16/h1-6,13-14,19-20H,7-10H2/t13-,14-,19+,20+/m0/s1",
        "InChIKey": null,
        "Canonical SMILES": "O1C2=CC=C(C=C2OC1)C3OCC4C(OCC34)C5=CC=C6OCOC6=C5",
        "Molecular Formula": "C<sub>20</sub>H<sub>18</sub>O<sub>6</sub>",
        "Molecular Mass": "354.35",
        "Melting Point": "124 °C"
    }
}