{
    "cas_no": "473-29-0",
    "key_name": "<em>N</em>,<em>N</em>-Dichlorobenzenesulfonamide",
    "cn_name": "二氯胺B;",
    "alternate_name": "Benzenesulfonamide, <em>N</em>,<em>N</em>-dichloro-;Dichloramine-B;<em>N</em>,<em>N</em>-Dichlorobenzenesulfonamide;<em>N</em>,<em>N</em>-Dichlorobenzenesulfamide;Benzenesulfonic acid dichloroamide;Benzenedichlorosulfamide;Halogen H 1;NSC 80504",
    "duplicated_cas_no": "",
    "SMILES": "S(N(Cl)Cl)(=O)(=O)C1=CC=CC=C1",
    "meta_data": {
        "InChI": "InChI=1S/C6H5Cl2NO2S/c7-9(8)12(10,11)6-4-2-1-3-5-6/h1-5H",
        "InChIKey": null,
        "Canonical SMILES": "O=S(=O)(C=1C=CC=CC1)N(Cl)Cl",
        "Molecular Formula": "C<sub>6</sub>H<sub>5</sub>Cl<sub>2</sub>NO<sub>2</sub>S",
        "Molecular Mass": "226.08",
        "Melting Point": "58 °C"
    }
}