{
    "cas_no": "61969-53-7",
    "key_name": "2,5-Dihydroxy-<em>N</em>-(2-hydroxyethyl)benzamide",
    "cn_name": "2,5-二羟基-N-(2-羟乙基)苯甲酰胺;",
    "alternate_name": "Benzamide, 2,5-dihydroxy-<em>N</em>-(2-hydroxyethyl)-;Gentisamide, <em>N</em>-2-hydroxyethyl-;2,5-Dihydroxy-<em>N</em>-(2-hydroxyethyl)benzamide;2,5-Resorcylic acid ethanolamide;Gentisic acid ethanolamide",
    "duplicated_cas_no": "",
    "SMILES": "C(NCCO)(=O)C1=C(O)C=CC(O)=C1",
    "meta_data": {
        "InChI": "InChI=1S/C9H11NO4/c11-4-3-10-9(14)7-5-6(12)1-2-8(7)13/h1-2,5,11-13H,3-4H2,(H,10,14)",
        "InChIKey": null,
        "Canonical SMILES": "O=C(NCCO)C1=CC(O)=CC=C1O",
        "Molecular Formula": "C<sub>9</sub>H<sub>11</sub>NO<sub>4</sub>",
        "Molecular Mass": "197.19",
        "Melting Point": "145-148 °C"
    }
}