{
    "cas_no": "69-05-6",
    "key_name": "Quinacrine dihydrochloride",
    "cn_name": "疟疾平;",
    "alternate_name": "1,4-Pentanediamine, <em>N</em><sup>4</sup>-(6-chloro-2-methoxy-9-acridinyl)-<em>N</em><sup>1</sup>,<em>N</em><sup>1</sup>-diethyl-, hydrochloride (1:2);Acridine, 6-chloro-9-[[4-(diethylamino)-1-methylbutyl]amino]-2-methoxy-, dihydrochloride;1,4-Pentanediamine, <em>N</em><sup>4</sup>-(6-chloro-2-methoxy-9-acridinyl)-<em>N</em><sup>1</sup>,<em>N</em><sup>1</sup>-diethyl-, dihydrochloride;SN 390;866RP;Atabrine hydrochloride;Chemiochin;Chinacrin hydrochloride;3-Chloro-9-(4′-diethylamino-1′-methylbutylamino)-7-methoxyacridine dihydrochloride;6-Chloro-9-[[4-(diethylamino)-1-methylbutyl]amino]-2-methoxyacridine dihydrochloride;2-Chloro-5-(ω-diethylamino-α-methylbutylamino)-7-methoxyacridine dihydrochloride;3-Chloro-7-methoxy-9-(1-methyl-4-diethylaminobutylamino)acridine dihydrochloride;Crinodora;Malaricida;Mecryl;Mepacrine dihydrochloride;Mepacrine hydrochloride;Methoquine;2-Methoxy-6-chloro-9-(4-diethylamino-1-methylbutylamino)acridine dihydrochloride;Metochin;Metoquin;Metoquine;Palacrin;Palusan;Pentilen;Quinacrine dihydrochloride;Quinacrine hydrochloride;Erion;Atebrin;Atebrine;Atebrine hydrochloride;Acrichin dihydrochloride;NSC 14229",
    "duplicated_cas_no": "133347-98-5",
    "SMILES": "N(C(CCCN(CC)CC)C)C=1C2=C(N=C3C1C=CC(Cl)=C3)C=CC(OC)=C2.Cl",
    "meta_data": {
        "InChI": "InChI=1S/C23H30ClN3O.2ClH/c1-5-27(6-2)13-7-8-16(3)25-23-19-11-9-17(24)14-22(19)26-21-12-10-18(28-4)15-20(21)23;;/h9-12,14-16H,5-8,13H2,1-4H3,(H,25,26);2*1H",
        "InChIKey": null,
        "Canonical SMILES": "Cl.ClC=1C=CC=2C(=NC=3C=CC(OC)=CC3C2NC(C)CCCN(CC)CC)C1",
        "Molecular Formula": "C<sub>23</sub>H<sub>30</sub>ClN<sub>3</sub>O.2ClH",
        "Molecular Mass": "",
        "Melting Point": "246-248 °C"
    }
}