{
    "cas_no": "1620-77-5",
    "key_name": "5-Methyl-2-pyridinecarbonitrile",
    "cn_name": "2-氰基-5-甲基吡啶;",
    "alternate_name": "2-Pyridinecarbonitrile, 5-methyl-;Picolinonitrile, 5-methyl-;5-Methyl-2-pyridinecarbonitrile;2-Cyano-5-methylpyridine;5-Methyl-2-cyanopyridine;5-Methylpicolinonitrile",
    "duplicated_cas_no": "",
    "SMILES": "C(#N)C1=CC=C(C)C=N1",
    "meta_data": {
        "InChI": "InChI=1S/C7H6N2/c1-6-2-3-7(4-8)9-5-6/h2-3,5H,1H3",
        "InChIKey": null,
        "Canonical SMILES": "N#CC1=NC=C(C=C1)C",
        "Molecular Formula": "C<sub>7</sub>H<sub>6</sub>N<sub>2</sub>",
        "Molecular Mass": "118.14",
        "Boiling Point": "135-138 °C @ Press: 28 Torr",
        "Melting Point": "72-74 °C"
    }
}