{
    "cas_no": "39269-10-8",
    "key_name": "1,3-Adamantanedicarboxylic acid",
    "cn_name": "1,3-金刚烷二甲酸;",
    "alternate_name": "Tricyclo[3.3.1.1<sup>3,7</sup>]decane-1,3-dicarboxylic acid;1,3-Adamantanedicarboxylic acid;1,3-Dicarboxyadamantane",
    "duplicated_cas_no": "53263-87-9",
    "SMILES": "C(O)(=O)C12CC3(C(O)=O)CC(C1)CC(C2)C3",
    "meta_data": {
        "InChI": "InChI=1S/C12H16O4/c13-9(14)11-2-7-1-8(4-11)5-12(3-7,6-11)10(15)16/h7-8H,1-6H2,(H,13,14)(H,15,16)",
        "InChIKey": null,
        "Canonical SMILES": "O=C(O)C12CC3CC(C1)CC(C(=O)O)(C3)C2",
        "Molecular Formula": "C<sub>12</sub>H<sub>16</sub>O<sub>4</sub>",
        "Molecular Mass": "224.25",
        "Melting Point": "279.5-280.5 °C"
    }
}