{
    "cas_no": "3232-84-6",
    "key_name": "Urazole",
    "cn_name": "尿唑;尿唑1，2，4-三唑烷-3，5-二酮;",
    "alternate_name": "1,2,4-Triazolidine-3,5-dione;Bicarbamimide;<em>s</em>-Triazole-3,5-diol;1<em>H</em>-1,2,4-Triazole-3,5(2<em>H</em>,4<em>H</em>)-dione;Urazole;Urazol;3,5-Dihydroxy-1,2,4-triazole;Urazole bicarbamide;Uracol;Triazolidine-3,5-dione;1<em>H</em>-1,2,4-Triazole-3,5-dione;NSC 15394;NSC 1892",
    "duplicated_cas_no": "1003-36-7;23910-90-9",
    "SMILES": "O=C1NC(=O)NN1",
    "meta_data": {
        "InChI": "InChI=1S/C2H3N3O2/c6-1-3-2(7)5-4-1/h(H3,3,4,5,6,7)",
        "InChIKey": null,
        "Canonical SMILES": "O=C1NNC(=O)N1",
        "Molecular Formula": "C<sub>2</sub>H<sub>3</sub>N<sub>3</sub>O<sub>2</sub>",
        "Molecular Mass": "101.06",
        "Melting Point": "249.5 °C (decomp)"
    }
}