{
    "cas_no": "17996-13-3",
    "key_name": "Phenylmethyl <em>N</em>-(4-hydroxybutyl)carbamate",
    "cn_name": "4-(Z-氨基)-1-丁醇;",
    "alternate_name": "Carbamic acid, <em>N</em>-(4-hydroxybutyl)-, phenylmethyl ester;Carbamic acid, (4-hydroxybutyl)-, benzyl ester;Carbamic acid, (4-hydroxybutyl)-, phenylmethyl ester;Phenylmethyl <em>N</em>-(4-hydroxybutyl)carbamate;4-(Carbobenzoxyamino)-1-butanol;[4-(Benzyloxycarbonyl)amino]-1-butanol;Benzyl (4-hydroxybutyl)carbamate;<em>N</em>-(4-Hydroxybutyl)carbamic acid benzyl ester;(4-Hydroxybutyl)carbamic acid benzyl ester;Benzyl <em>N</em>-(4-hydroxybutyl)carbamate",
    "duplicated_cas_no": "",
    "SMILES": "C(OC(NCCCCO)=O)C1=CC=CC=C1",
    "meta_data": {
        "InChI": "InChI=1S/C12H17NO3/c14-9-5-4-8-13-12(15)16-10-11-6-2-1-3-7-11/h1-3,6-7,14H,4-5,8-10H2,(H,13,15)",
        "InChIKey": null,
        "Canonical SMILES": "O=C(OCC=1C=CC=CC1)NCCCCO",
        "Molecular Formula": "C<sub>12</sub>H<sub>17</sub>NO<sub>3</sub>",
        "Molecular Mass": "223.27",
        "Melting Point": "82-83 °C"
    }
}