{
    "cas_no": "94-11-1",
    "key_name": "2,4-D isopropyl ester",
    "cn_name": "2,4-二氯苯氧乙酸异丙酯;2,4-D异丙酯;",
    "alternate_name": "Acetic acid, 2-(2,4-dichlorophenoxy)-, 1-methylethyl ester;Acetic acid, (2,4-dichlorophenoxy)-, isopropyl ester;Acetic acid, (2,4-dichlorophenoxy)-, 1-methylethyl ester;Isopropyl (2,4-dichlorophenoxy)acetate;Isopropyl 2,4-D ester;2,4-D isopropyl ester;Weedone 128;2,4-Dichlorophenoxyacetic acid isopropyl ester;Esteron 44;NSC 521749",
    "duplicated_cas_no": "",
    "SMILES": "O(CC(OC(C)C)=O)C1=C(Cl)C=C(Cl)C=C1",
    "meta_data": {
        "InChI": "InChI=1S/C11H12Cl2O3/c1-7(2)16-11(14)6-15-10-4-3-8(12)5-9(10)13/h3-5,7H,6H2,1-2H3",
        "InChIKey": null,
        "Canonical SMILES": "O=C(OC(C)C)COC1=CC=C(Cl)C=C1Cl",
        "Molecular Formula": "C<sub>11</sub>H<sub>12</sub>Cl<sub>2</sub>O<sub>3</sub>",
        "Molecular Mass": "263.12",
        "Boiling Point": "30 °C @ Press: 1 Torr",
        "Melting Point": "5 °C",
        "Density": "1.255-1.270 g/cm³ @ Temp: 25 °C"
    }
}