{
    "cas_no": "13214-53-4",
    "key_name": "2-Oxo-1-imidazolidinecarbonyl chloride",
    "cn_name": "N-氯甲酰基-2-咪唑烷酮;",
    "alternate_name": "1-Imidazolidinecarbonyl chloride, 2-oxo-;2-Oxo-1-imidazolidinecarbonyl chloride;Ethyleneallophanoyl chloride;<em>N</em>-(Chlorocarbonyl)-2-imidazolidinone;2-Imidazolidone-1-carbonyl chloride;2-Oxoimidazolidinocarbonyl chloride;1-(Chlorocarbonyl)-2-imidazolidinone;<em>N</em>-(Chlorocarbonyl)ethyleneurea;1-Chlorocarbonyl-2-oxoimidazoline;2-Hydroxy-4,5-dihydro-1<em>H</em>-imidazole-1-carbonyl chloride",
    "duplicated_cas_no": "",
    "SMILES": "C(Cl)(=O)N1C(=O)NCC1",
    "meta_data": {
        "InChI": "InChI=1S/C4H5ClN2O2/c5-3(8)7-2-1-6-4(7)9/h1-2H2,(H,6,9)",
        "InChIKey": null,
        "Canonical SMILES": "O=C(Cl)N1C(=O)NCC1",
        "Molecular Formula": "C<sub>4</sub>H<sub>5</sub>ClN<sub>2</sub>O<sub>2</sub>",
        "Molecular Mass": "148.55",
        "Melting Point": "150-153 °C"
    }
}