{
    "cas_no": "171364-79-7",
    "key_name": "2-(4-Methoxyphenyl)-4,4,5,5-tetramethyl-1,3,2-dioxaborolane",
    "cn_name": null,
    "alternate_name": "1,3,2-Dioxaborolane, 2-(4-methoxyphenyl)-4,4,5,5-tetramethyl-;2-(4-Methoxyphenyl)-4,4,5,5-tetramethyl-1,3,2-dioxaborolane;<em>p</em>-(Pinacolboryl)anisole;4,4,5,5-Tetramethyl-2-(4-methoxyphenyl)-1,3,2-dioxaborolane;4-Methoxyphenylboronic acid pinacol ester;4-(4,4,5,5-Tetramethyl-1,3,2-dioxaborolan-2-yl)anisole;4-Methoxyphenyl(pinacolato)borane;4-(4,4,5,5-Tetramethyl-1,3,2-dioxaborolan-2-yl)-1-methoxybenzene",
    "duplicated_cas_no": "",
    "SMILES": "CC1(C)OB(OC1(C)C)C2=CC=C(OC)C=C2",
    "meta_data": {
        "InChI": "InChI=1S/C13H19BO3/c1-12(2)13(3,4)17-14(16-12)10-6-8-11(15-5)9-7-10/h6-9H,1-5H3",
        "InChIKey": null,
        "Canonical SMILES": "O(C1=CC=C(C=C1)B2OC(C)(C)C(O2)(C)C)C",
        "Molecular Formula": "C<sub>13</sub>H<sub>19</sub>BO<sub>3</sub>",
        "Molecular Mass": "234.10",
        "Melting Point": "26-28 °C"
    }
}