{
    "cas_no": "110-85-0",
    "key_name": "Piperazine",
    "cn_name": "哌嗪;",
    "alternate_name": "Piperazine;Antiren;1,4-Diazacyclohexane;Diethylenediamine;Dispermine;Hexahydropyrazine;Lumbrical;Piperazidine;Pyrazine, hexahydro-;Pyrazine hexahydride;Pipersol;1,4-Piperazine;Wurmirazin;Worm-A-Ton;Eraverm;Uvilon;Vermex;NSC 474;Tetrahydro-1,4-diazine",
    "duplicated_cas_no": "8017-90-1;8027-81-4;81546-15-8;854880-15-2;861800-35-3",
    "SMILES": "C1CNCCN1",
    "meta_data": {
        "InChI": "InChI=1S/C4H10N2/c1-2-6-4-3-5-1/h5-6H,1-4H2",
        "InChIKey": null,
        "Canonical SMILES": "N1CCNCC1",
        "Molecular Formula": "C<sub>4</sub>H<sub>10</sub>N<sub>2</sub>",
        "Molecular Mass": "86.14",
        "Boiling Point": "146 °C @ Press: 760 Torr",
        "Melting Point": "106 °C",
        "Density": "1.1 g/cm³"
    }
}