{
    "cas_no": "25168-26-7",
    "key_name": "2,4-D isooctyl ester",
    "cn_name": null,
    "alternate_name": "Acetic acid, 2-(2,4-dichlorophenoxy)-, isooctyl ester;Acetic acid, (2,4-dichlorophenoxy)-, isooctyl ester;Isooctyl alcohol, (2,4-dichlorophenoxy)acetate;2,4-D isooctyl ester;2,4-Dichlorophenoxyacetic acid isooctyl ester;Isooctyl 2,4-dichlorophenoxyacetate;Silvapron D;Agroxone 5;2,4-D ester;Agro-D-Ester;Esteron",
    "duplicated_cas_no": "1280-20-2;56645-34-2",
    "SMILES": "",
    "meta_data": {
        "InChI": "",
        "InChIKey": null,
        "Canonical SMILES": "",
        "Molecular Formula": "C<sub>16</sub>H<sub>22</sub>Cl<sub>2</sub>O<sub>3</sub>",
        "Molecular Mass": "",
        "Boiling Point": "317 °C",
        "Melting Point": "12 °C",
        "Density": "1.14-1.17 g/cm³ @ Temp: 20 °C"
    }
}