{
    "cas_no": "56-33-7",
    "key_name": "1,1,3,3-Tetramethyl-1,3-diphenyldisiloxane",
    "cn_name": "1,3-二苯基-1,1,3,3-四甲基二硅氧;1,1,3,3-四甲基-1,3-二苯基二硅氧烷;",
    "alternate_name": "Disiloxane, 1,1,3,3-tetramethyl-1,3-diphenyl-;1,1,3,3-Tetramethyl-1,3-diphenyldisiloxane;1,3-Diphenyltetramethyldisiloxane;Bis(phenyldimethylsilyl) oxide;D 6190;Bis(dimethylphenylsilyl) oxide;Bis(dimethylphenylsilyl) ether;1,3-Diphenyl-1,1,3,3-tetramethyldisiloxane;<em>sym</em>-Diphenyltetramethyldisiloxane;NSC 96791;[Dimethyl(phenyl)silyl]oxy-dimethyl-phenylsilane",
    "duplicated_cas_no": "1493553-01-7",
    "SMILES": "[Si](O[Si](C)(C)C1=CC=CC=C1)(C)(C)C2=CC=CC=C2",
    "meta_data": {
        "InChI": "InChI=1S/C16H22OSi2/c1-18(2,15-11-7-5-8-12-15)17-19(3,4)16-13-9-6-10-14-16/h5-14H,1-4H3",
        "InChIKey": null,
        "Canonical SMILES": "O([Si](C=1C=CC=CC1)(C)C)[Si](C=2C=CC=CC2)(C)C",
        "Molecular Formula": "C<sub>16</sub>H<sub>22</sub>OSi<sub>2</sub>",
        "Molecular Mass": "286.52",
        "Boiling Point": "155-158 °C @ Press: 13 Torr",
        "Melting Point": "-89 °C",
        "Density": "0.976 g/cm³"
    }
}