{
    "cas_no": "307989-56-6",
    "key_name": "5-Amino-2-(trifluoromethoxy)benzoic acid",
    "cn_name": null,
    "alternate_name": "Benzoic acid, 5-amino-2-(trifluoromethoxy)-;5-Amino-2-(trifluoromethoxy)benzoic acid",
    "duplicated_cas_no": "",
    "SMILES": "O(C(F)(F)F)C1=C(C(O)=O)C=C(N)C=C1",
    "meta_data": {
        "InChI": "InChI=1S/C8H6F3NO3/c9-8(10,11)15-6-2-1-4(12)3-5(6)7(13)14/h1-3H,12H2,(H,13,14)",
        "InChIKey": null,
        "Canonical SMILES": "O=C(O)C1=CC(N)=CC=C1OC(F)(F)F",
        "Molecular Formula": "C<sub>8</sub>H<sub>6</sub>F<sub>3</sub>NO<sub>3</sub>",
        "Molecular Mass": "221.13",
        "Melting Point": "201-203 °C"
    }
}