{
    "cas_no": "456-22-4",
    "key_name": "4-Fluorobenzoic acid",
    "cn_name": "对氟苯甲酸;",
    "alternate_name": "Benzoic acid, 4-fluoro-;Benzoic acid, <em>p</em>-fluoro-;4-Fluorobenzoic acid;<em>p</em>-Fluorobenzoic acid;NSC 10321",
    "duplicated_cas_no": "2764684-47-9",
    "SMILES": "C(O)(=O)C1=CC=C(F)C=C1",
    "meta_data": {
        "InChI": "InChI=1S/C7H5FO2/c8-6-3-1-5(2-4-6)7(9)10/h1-4H,(H,9,10)",
        "InChIKey": null,
        "Canonical SMILES": "O=C(O)C1=CC=C(F)C=C1",
        "Molecular Formula": "C<sub>7</sub>H<sub>5</sub>FO<sub>2</sub>",
        "Molecular Mass": "140.11",
        "Melting Point": "185 °C"
    }
}