{
    "cas_no": "1805-32-9",
    "key_name": "3,4-Dichlorobenzenemethanol",
    "cn_name": "3,4-二氯苄醇;",
    "alternate_name": "Benzenemethanol, 3,4-dichloro-;Benzyl alcohol, 3,4-dichloro-;3,4-Dichlorobenzenemethanol;3,4-Dichlorobenzyl alcohol;(3,4-Dichlorophenyl)methanol;NSC 26136;NSC 407829",
    "duplicated_cas_no": "",
    "SMILES": "C(O)C1=CC(Cl)=C(Cl)C=C1",
    "meta_data": {
        "InChI": "InChI=1S/C7H6Cl2O/c8-6-2-1-5(4-10)3-7(6)9/h1-3,10H,4H2",
        "InChIKey": null,
        "Canonical SMILES": "ClC1=CC=C(C=C1Cl)CO",
        "Molecular Formula": "C<sub>7</sub>H<sub>6</sub>Cl<sub>2</sub>O",
        "Molecular Mass": "177.03",
        "Boiling Point": "149.5 °C",
        "Melting Point": "36 °C"
    }
}