{
    "cas_no": "16063-69-7",
    "key_name": "2,4,6-Trichloropyridine",
    "cn_name": "2,4,6-三氯吡啶;",
    "alternate_name": "Pyridine, 2,4,6-trichloro-;2,4,6-Trichloropyridine",
    "duplicated_cas_no": "",
    "SMILES": "ClC=1C=C(Cl)N=C(Cl)C1",
    "meta_data": {
        "InChI": "InChI=1S/C5H2Cl3N/c6-3-1-4(7)9-5(8)2-3/h1-2H",
        "InChIKey": null,
        "Canonical SMILES": "ClC=1N=C(Cl)C=C(Cl)C1",
        "Molecular Formula": "C<sub>5</sub>H<sub>2</sub>Cl<sub>3</sub>N",
        "Molecular Mass": "182.44",
        "Boiling Point": "217.5-218.5 °C @ Press: 760 Torr",
        "Melting Point": "33 °C"
    }
}