{
    "cas_no": "6291-01-6",
    "key_name": "Cyclobutanamine, hydrochloride (1:1)",
    "cn_name": "环丁基胺盐酸盐;",
    "alternate_name": "Cyclobutanamine, hydrochloride (1:1);Cyclobutylamine, hydrochloride;Cyclobutanamine, hydrochloride;Cyclobutylammonium chloride",
    "duplicated_cas_no": "",
    "SMILES": "NC1CCC1.Cl",
    "meta_data": {
        "InChI": "InChI=1S/C4H9N.ClH/c5-4-2-1-3-4;/h4H,1-3,5H2;1H",
        "InChIKey": null,
        "Canonical SMILES": "Cl.NC1CCC1",
        "Molecular Formula": "C<sub>4</sub>H<sub>9</sub>N.ClH",
        "Molecular Mass": "",
        "Melting Point": "181-183 °C"
    }
}