{
    "cas_no": "455-68-5",
    "key_name": "Benzoic acid, 3-fluoro-, methyl ester",
    "cn_name": null,
    "alternate_name": "Benzoic acid, 3-fluoro-, methyl ester;Benzoic acid, <em>m</em>-fluoro-, methyl ester;Methyl <em>m</em>-fluorobenzoate;Methyl 3-fluorobenzoate;3-Fluorobenzoic acid methyl ester",
    "duplicated_cas_no": "",
    "SMILES": "C(OC)(=O)C1=CC(F)=CC=C1",
    "meta_data": {
        "InChI": "InChI=1S/C8H7FO2/c1-11-8(10)6-3-2-4-7(9)5-6/h2-5H,1H3",
        "InChIKey": null,
        "Canonical SMILES": "O=C(OC)C=1C=CC=C(F)C1",
        "Molecular Formula": "C<sub>8</sub>H<sub>7</sub>FO<sub>2</sub>",
        "Molecular Mass": "154.14",
        "Boiling Point": "194-195 °C",
        "Melting Point": "-10 °C"
    }
}