{
    "cas_no": "18023-33-1",
    "key_name": "Vinyltriisopropoxysilane",
    "cn_name": "乙烯基三异丙氧基硅烷;",
    "alternate_name": "Silane, ethenyltris(1-methylethoxy)-;Silane, triisopropoxyvinyl-;Ethenyltris(1-methylethoxy)silane;Triisopropoxyvinylsilane;Vinyltriisopropoxysilane;Tris(isopropoxy)vinylsilane;CoatOSil 1706;NSC 89751;C 1706;Z 6550;A 1706;AC 76;Vinyltrisopropoxysilane;NQ 331;SIV 9210;KH 1706;CR 501;CR 501 (silane);USI 403;JS 2891",
    "duplicated_cas_no": "",
    "SMILES": "[Si](OC(C)C)(OC(C)C)(OC(C)C)C=C",
    "meta_data": {
        "InChI": "InChI=1S/C11H24O3Si/c1-8-15(12-9(2)3,13-10(4)5)14-11(6)7/h8-11H,1H2,2-7H3",
        "InChIKey": null,
        "Canonical SMILES": "O(C(C)C)[Si](OC(C)C)(OC(C)C)C=C",
        "Molecular Formula": "C<sub>11</sub>H<sub>24</sub>O<sub>3</sub>Si",
        "Molecular Mass": "232.39",
        "Boiling Point": "179.5 °C",
        "Density": "0.865 g/cm³"
    }
}