{
    "cas_no": "479-13-0",
    "key_name": "Coumestrol",
    "cn_name": null,
    "alternate_name": "6<em>H</em>-Benzofuro[3,2-<em>c</em>][1]benzopyran-6-one, 3,9-dihydroxy-;3-Benzofurancarboxylic acid, 2-(2,4-dihydroxyphenyl)-6-hydroxy-, δ-lactone;3,9-Dihydroxy-6<em>H</em>-benzofuro[3,2-<em>c</em>][1]benzopyran-6-one;Coumestrol;2-(2,4-Dihydroxyphenyl)-6-hydroxy-3-benzofurancarboxylic acid δ-lactone;Cumostrol;Cumoestrol;Coumesterol;NSC 22842;3,9-Dihydroxy-[1]benzofuro[3,2-<em>c</em>]chromen-6-one;MeSH ID: D003375",
    "duplicated_cas_no": "",
    "SMILES": "O=C1C2=C(C=3C(O1)=CC(O)=CC3)OC=4C2=CC=C(O)C4",
    "meta_data": {
        "InChI": "InChI=1S/C15H8O5/c16-7-1-3-9-11(5-7)19-14-10-4-2-8(17)6-12(10)20-15(18)13(9)14/h1-6,16-17H",
        "InChIKey": null,
        "Canonical SMILES": "O=C1OC=2C=C(O)C=CC2C=3OC4=CC(O)=CC=C4C13",
        "Molecular Formula": "C<sub>15</sub>H<sub>8</sub>O<sub>5</sub>",
        "Molecular Mass": "268.22",
        "Melting Point": "385 °C (decomp)"
    }
}