{
    "cas_no": "2880-49-1",
    "key_name": "(+)-Heraclenin",
    "cn_name": null,
    "alternate_name": "7<em>H</em>-Furo[3,2-<em>g</em>][1]benzopyran-7-one, 9-[[(2<em>R</em>)-3,3-dimethyl-2-oxiranyl]methoxy]-;7<em>H</em>-Furo[3,2-<em>g</em>][1]benzopyran-7-one, 9-(2,3-epoxy-3-methylbutoxy)-, (<em>R</em>)-(+)-;7<em>H</em>-Furo[3,2-<em>g</em>][1]benzopyran-7-one, 9-[(3,3-dimethyloxiranyl)methoxy]-, (<em>R</em>)-;Heraclenin;7<em>H</em>-Furo[3,2-<em>g</em>][1]benzopyran-7-one, 9-[[(2<em>R</em>)-3,3-dimethyloxiranyl]methoxy]-;9-[[(2<em>R</em>)-3,3-Dimethyl-2-oxiranyl]methoxy]-7<em>H</em>-furo[3,2-<em>g</em>][1]benzopyran-7-one;Prangenin;(+)-Heraclenin",
    "duplicated_cas_no": "23459-97-4;27480-37-1",
    "SMILES": "O(C[C@@H]1C(C)(C)O1)C=2C3=C(C=C4C2OC=C4)C=CC(=O)O3",
    "meta_data": {
        "InChI": "InChI=1S/C16H14O5/c1-16(2)11(21-16)8-19-15-13-10(5-6-18-13)7-9-3-4-12(17)20-14(9)15/h3-7,11H,8H2,1-2H3/t11-/m1/s1",
        "InChIKey": null,
        "Canonical SMILES": "O=C1OC2=C(OCC3OC3(C)C)C=4OC=CC4C=C2C=C1",
        "Molecular Formula": "C<sub>16</sub>H<sub>14</sub>O<sub>5</sub>",
        "Molecular Mass": "286.28",
        "Melting Point": "97 °C"
    }
}