{
    "cas_no": "22224-92-6",
    "key_name": "Fenamiphos",
    "cn_name": "苯线磷;克线磷;O-乙基-O-(3-甲基-4-甲硫基)苯基-N-异丙氨基磷酸酯;",
    "alternate_name": "Phosphoramidic acid, <em>N</em>-(1-methylethyl)-, ethyl 3-methyl-4-(methylthio)phenyl ester;Phosphoramidic acid, isopropyl-, ethyl 4-(methylthio)-<em>m</em>-tolyl ester;Phosphoramidic acid, (1-methylethyl)-, ethyl 3-methyl-4-(methylthio)phenyl ester;B 68138;Ethyl 4-(methylthio)-<em>m</em>-tolyl isopropylphosphoramidate;BAY 68138;Bayer 68138;Nemacur P;Nemacur;Phenamiphos;Ethyl 3-methyl-4-(methylthio)phenyl (1-methylethyl)phosphoramidate;Fenamiphos;Fenamifos;Fenamithion",
    "duplicated_cas_no": "",
    "SMILES": "P(OC1=CC(C)=C(SC)C=C1)(NC(C)C)(OCC)=O",
    "meta_data": {
        "InChI": "InChI=1S/C13H22NO3PS/c1-6-16-18(15,14-10(2)3)17-12-7-8-13(19-5)11(4)9-12/h7-10H,6H2,1-5H3,(H,14,15)",
        "InChIKey": null,
        "Canonical SMILES": "O=P(OC1=CC=C(SC)C(=C1)C)(OCC)NC(C)C",
        "Molecular Formula": "C<sub>13</sub>H<sub>22</sub>NO<sub>3</sub>PS",
        "Molecular Mass": "303.36",
        "Melting Point": "49.2 °C",
        "Density": "1.191 g/cm³ @ Temp: 23 °C"
    }
}