{
    "cas_no": "2039-67-0",
    "key_name": "3-Methoxyphenethylamine",
    "cn_name": "3-甲氧基苯乙胺;间甲氧基苯乙胺;",
    "alternate_name": "Benzeneethanamine, 3-methoxy-;Phenethylamine, <em>m</em>-methoxy-;3-Methoxybenzeneethanamine;3-Methoxy-β-phenethylamine;<em>m</em>-Methoxyphenethylamine;3-Methoxyphenylethylamine;3-Methoxyphenethylamine;2-(3-Methoxyphenyl)ethylamine;2-(<em>m</em>-Methoxyphenyl)ethylamine;<em>m</em>-Methoxy-β-phenylethylamine;2-(3-Methoxyphenyl)ethanamine;NSC 124706;2-(3-Methoxyphenyl)-1-ethanamine;[2-[3-(Methyloxy)phenyl]ethyl]amine;1-(2-Aminoethyl)-3-methoxybenzene",
    "duplicated_cas_no": "",
    "SMILES": "C(CN)C1=CC(OC)=CC=C1",
    "meta_data": {
        "InChI": "InChI=1S/C9H13NO/c1-11-9-4-2-3-8(7-9)5-6-10/h2-4,7H,5-6,10H2,1H3",
        "InChIKey": null,
        "Canonical SMILES": "O(C1=CC=CC(=C1)CCN)C",
        "Molecular Formula": "C<sub>9</sub>H<sub>13</sub>NO",
        "Molecular Mass": "151.21",
        "Boiling Point": "128 °C @ Press: 12 Torr"
    }
}