{
    "cas_no": "56442-17-2",
    "key_name": "4-[(4-Fluorophenyl)methoxy]benzaldehyde",
    "cn_name": "4-(4-氟苯甲氧基)苯甲醛;",
    "alternate_name": "Benzaldehyde, 4-[(4-fluorophenyl)methoxy]-;4-[(4-Fluorophenyl)methoxy]benzaldehyde;4-(4-Fluorobenzyloxy)benzaldehyde;4-(4′-Fluorobenzyloxy)benzaldehyde",
    "duplicated_cas_no": "",
    "SMILES": "O(CC1=CC=C(F)C=C1)C2=CC=C(C=O)C=C2",
    "meta_data": {
        "InChI": "InChI=1S/C14H11FO2/c15-13-5-1-12(2-6-13)10-17-14-7-3-11(9-16)4-8-14/h1-9H,10H2",
        "InChIKey": null,
        "Canonical SMILES": "O=CC1=CC=C(OCC2=CC=C(F)C=C2)C=C1",
        "Molecular Formula": "C<sub>14</sub>H<sub>11</sub>FO<sub>2</sub>",
        "Molecular Mass": "230.23",
        "Melting Point": "99-100 °C"
    }
}