{
    "cas_no": "14250-96-5",
    "key_name": "(<em>E</em>)-2-Methyl-2-pentenal",
    "cn_name": null,
    "alternate_name": "2-Pentenal, 2-methyl-, (2<em>E</em>)-;2-Pentenal, 2-methyl-, (<em>E</em>)-;(2<em>E</em>)-2-Methyl-2-pentenal;(<em>E</em>)-2-Methyl-2-penten-1-al;(<em>E</em>)-2-Methyl-2-pentenal;<em>trans</em>-2-Methylpent-2-enal;(<em>E</em>)-2-Methylpentenal;(2<em>E</em>)-2-Methylpent-2-enal",
    "duplicated_cas_no": "",
    "SMILES": "C(=C/CC)(\\C=O)/C",
    "meta_data": {
        "InChI": "InChI=1S/C6H10O/c1-3-4-6(2)5-7/h4-5H,3H2,1-2H3/b6-4+",
        "InChIKey": null,
        "Canonical SMILES": "O=CC(=CCC)C",
        "Molecular Formula": "C<sub>6</sub>H<sub>10</sub>O",
        "Molecular Mass": "98.14",
        "Boiling Point": "59-61 °C @ Press: 40 Torr"
    }
}