{
    "cas_no": "102-11-4",
    "key_name": "<em>N</em><sup>1</sup>,<em>N</em><sup>2</sup>-Dimethyl-<em>N</em><sup>1</sup>-(phenylmethyl)-1,2-ethanediamine",
    "cn_name": null,
    "alternate_name": "1,2-Ethanediamine, <em>N</em><sup>1</sup>,<em>N</em><sup>2</sup>-dimethyl-<em>N</em><sup>1</sup>-(phenylmethyl)-;Ethylenediamine, <em>N</em>-benzyl-<em>N</em>,<em>N</em>′-dimethyl-;1,2-Ethanediamine, <em>N</em>,<em>N</em>′-dimethyl-<em>N</em>-(phenylmethyl)-;<em>N</em><sup>1</sup>,<em>N</em><sup>2</sup>-Dimethyl-<em>N</em><sup>1</sup>-(phenylmethyl)-1,2-ethanediamine;<em>N</em>-Benzyl-<em>N</em>,<em>N</em>′-dimethylethylenediamine;NSC 166313;<em>N</em>-Benzyl-<em>N</em>,<em>N</em>′-dimethylethane-1,2-diamine;Benzyl(methyl)[2-(methylamino)ethyl]amine",
    "duplicated_cas_no": "",
    "SMILES": "C(N(CCNC)C)C1=CC=CC=C1",
    "meta_data": {
        "InChI": "InChI=1S/C11H18N2/c1-12-8-9-13(2)10-11-6-4-3-5-7-11/h3-7,12H,8-10H2,1-2H3",
        "InChIKey": null,
        "Canonical SMILES": "C=1C=CC(=CC1)CN(C)CCNC",
        "Molecular Formula": "C<sub>11</sub>H<sub>18</sub>N<sub>2</sub>",
        "Molecular Mass": "178.27",
        "Boiling Point": "80-82 °C @ Press: 0.5 Torr"
    }
}