{
    "cas_no": "334-50-9",
    "key_name": "Spermidine trihydrochloride",
    "cn_name": "三盐酸亚精胺;N-(3-氨丙基)-1,4-丁二胺三盐酸盐;亚精胺盐酸盐;亚精胺 HCL;",
    "alternate_name": "1,4-Butanediamine, <em>N</em><sup>1</sup>-(3-aminopropyl)-, hydrochloride (1:3);1,4-Butanediamine, <em>N</em>-(3-aminopropyl)-, trihydrochloride;Spermidine trihydrochloride;Spermidine hydrochloride",
    "duplicated_cas_no": "35408-56-1",
    "SMILES": "C(NCCCN)CCCN.Cl",
    "meta_data": {
        "InChI": "InChI=1S/C7H19N3.3ClH/c8-4-1-2-6-10-7-3-5-9;;;/h10H,1-9H2;3*1H",
        "InChIKey": null,
        "Canonical SMILES": "Cl.NCCCNCCCCN",
        "Molecular Formula": "C<sub>7</sub>H<sub>19</sub>N<sub>3</sub>.3ClH",
        "Molecular Mass": "",
        "Melting Point": "256-258 °C"
    }
}