{
    "cas_no": "105-07-7",
    "key_name": "4-Cyanobenzaldehyde",
    "cn_name": "4-氰基苯甲醛;对氰基苯甲醛;",
    "alternate_name": "Benzonitrile, 4-formyl-;Terephthalaldehydonitrile;Benzaldehyde, <em>p</em>-cyano-;4-Formylbenzonitrile;<em>p</em>-Cyanobenzaldehyde;4-Cyanobenzaldehyde;<em>p</em>-Formylbenzonitrile;<em>p</em>-Cyanobenzenecarboxaldehyde;NSC 5091",
    "duplicated_cas_no": "",
    "SMILES": "C(#N)C1=CC=C(C=O)C=C1",
    "meta_data": {
        "InChI": "InChI=1S/C8H5NO/c9-5-7-1-3-8(6-10)4-2-7/h1-4,6H",
        "InChIKey": null,
        "Canonical SMILES": "N#CC1=CC=C(C=O)C=C1",
        "Molecular Formula": "C<sub>8</sub>H<sub>5</sub>NO",
        "Molecular Mass": "131.13",
        "Boiling Point": "133 °C @ Press: 12 Torr",
        "Melting Point": "100.5 °C"
    }
}