{
    "cas_no": "29006-01-7",
    "key_name": "Butanoic acid, 4-methoxy-, methyl ester",
    "cn_name": "4-甲氧基丁酸甲酯;",
    "alternate_name": "Butanoic acid, 4-methoxy-, methyl ester;Butyric acid, 4-methoxy-, methyl ester;Methyl 4-methoxybutyrate;Methyl 4-methoxybutanoate;4-Methoxybutyric acid methyl ester",
    "duplicated_cas_no": "",
    "SMILES": "C(CCCOC)(OC)=O",
    "meta_data": {
        "InChI": "InChI=1S/C6H12O3/c1-8-5-3-4-6(7)9-2/h3-5H2,1-2H3",
        "InChIKey": null,
        "Canonical SMILES": "O=C(OC)CCCOC",
        "Molecular Formula": "C<sub>6</sub>H<sub>12</sub>O<sub>3</sub>",
        "Molecular Mass": "132.16",
        "Boiling Point": "162.5-163.5 °C @ Press: 767 Torr",
        "Density": "0.9879 g/cm³"
    }
}