{
    "cas_no": "1193-21-1",
    "key_name": "4,6-Dichloropyrimidine",
    "cn_name": "4,6-二氯嘧啶;",
    "alternate_name": "Pyrimidine, 4,6-dichloro-;4,6-Dichloropyrimidine;NSC 37530",
    "duplicated_cas_no": "",
    "SMILES": "ClC=1C=C(Cl)N=CN1",
    "meta_data": {
        "InChI": "InChI=1S/C4H2Cl2N2/c5-3-1-4(6)8-2-7-3/h1-2H",
        "InChIKey": null,
        "Canonical SMILES": "ClC1=NC=NC(Cl)=C1",
        "Molecular Formula": "C<sub>4</sub>H<sub>2</sub>Cl<sub>2</sub>N<sub>2</sub>",
        "Molecular Mass": "148.98",
        "Melting Point": "67.5 °C"
    }
}