{
    "cas_no": "883-21-6",
    "key_name": "1-Methoxy-2-naphthalenecarboxylic acid",
    "cn_name": "1-甲氧基-2-萘甲酸;1-甲氧基-2-萘甲酸;",
    "alternate_name": "2-Naphthalenecarboxylic acid, 1-methoxy-;2-Naphthoic acid, 1-methoxy-;1-Methoxy-2-naphthalenecarboxylic acid;1-Methoxy-2-naphthoic acid;1-Methoxynaphthalene-2-carboxylic acid",
    "duplicated_cas_no": "",
    "SMILES": "O(C)C=1C2=C(C=CC1C(O)=O)C=CC=C2",
    "meta_data": {
        "InChI": "InChI=1S/C12H10O3/c1-15-11-9-5-3-2-4-8(9)6-7-10(11)12(13)14/h2-7H,1H3,(H,13,14)",
        "InChIKey": null,
        "Canonical SMILES": "O=C(O)C=1C=CC=2C=CC=CC2C1OC",
        "Molecular Formula": "C<sub>12</sub>H<sub>10</sub>O<sub>3</sub>",
        "Molecular Mass": "202.21",
        "Melting Point": "126-128 °C"
    }
}