{
    "cas_no": "6625-74-7",
    "key_name": "2,2-Dimethyl-<em>N</em>-phenylpropanamide",
    "cn_name": null,
    "alternate_name": "Propanamide, 2,2-dimethyl-<em>N</em>-phenyl-;Pivalanilide;2,2-Dimethyl-<em>N</em>-phenylpropanamide;<em>N</em>-Phenyltrimethylacetamide;<em>N</em>-Pivaloylaniline;Pivaloylaminobenzene;NSC 58513;NSC 9043;<em>N</em>-Phenylpivalamide;PMSA 955",
    "duplicated_cas_no": "",
    "SMILES": "N(C(C(C)(C)C)=O)C1=CC=CC=C1",
    "meta_data": {
        "InChI": "InChI=1S/C11H15NO/c1-11(2,3)10(13)12-9-7-5-4-6-8-9/h4-8H,1-3H3,(H,12,13)",
        "InChIKey": null,
        "Canonical SMILES": "O=C(NC=1C=CC=CC1)C(C)(C)C",
        "Molecular Formula": "C<sub>11</sub>H<sub>15</sub>NO",
        "Molecular Mass": "177.24",
        "Melting Point": "132 °C"
    }
}