{
    "cas_no": "53885-35-1",
    "key_name": "Ticlopidine hydrochloride",
    "cn_name": "盐酸噻氯匹定;噻氯匹啶盐酸盐;",
    "alternate_name": "Thieno[3,2-<em>c</em>]pyridine, 5-[(2-chlorophenyl)methyl]-4,5,6,7-tetrahydro-, hydrochloride (1:1);Thieno[3,2-<em>c</em>]pyridine, 5-[(2-chlorophenyl)methyl]-4,5,6,7-tetrahydro-, hydrochloride;Ticlopidine hydrochloride;53-32C;Panaldine;Ticlodone;Ticlosin;Tiklid;Anagregal;Ticlodox;Caudaline;4C32;Panapidin;Nichistate;Clid",
    "duplicated_cas_no": "",
    "SMILES": "C(N1CC2=C(CC1)SC=C2)C3=C(Cl)C=CC=C3.Cl",
    "meta_data": {
        "InChI": "InChI=1S/C14H14ClNS.ClH/c15-13-4-2-1-3-11(13)9-16-7-5-14-12(10-16)6-8-17-14;/h1-4,6,8H,5,7,9-10H2;1H",
        "InChIKey": null,
        "Canonical SMILES": "Cl.ClC=1C=CC=CC1CN2CC=3C=CSC3CC2",
        "Molecular Formula": "C<sub>14</sub>H<sub>14</sub>ClNS.ClH",
        "Molecular Mass": "",
        "Melting Point": "190 °C",
        "Density": "1.37 g/cm³"
    }
}