{
    "cas_no": "33892-75-0",
    "key_name": "5-Methoxy-1-tetralone",
    "cn_name": "5-甲氧基-3,4-二氢-2H-1-萘酮;5-甲氧基-1-四氢萘酮;",
    "alternate_name": "1(2<em>H</em>)-Naphthalenone, 3,4-dihydro-5-methoxy-;3,4-Dihydro-5-methoxy-1(2<em>H</em>)-naphthalenone;5-Methoxy-1-tetralone;5-Methoxytetralone;5-Methoxy-α-tetralone;5-Methoxy-3,4-dihydronaphthalen-1(2<em>H</em>)-one;NSC 310000;5-Methoxy-1,2,3,4-tetrahydro-1-oxonaphthalene;5-Methoxy-3,4-dihydro-2<em>H</em>-naphthalen-1-one;5-Methoxy-1,2,3,4-tetrahydronaphthalen-1-one",
    "duplicated_cas_no": "",
    "SMILES": "O(C)C1=C2C(C(=O)CCC2)=CC=C1",
    "meta_data": {
        "InChI": "InChI=1S/C11H12O2/c1-13-11-7-3-4-8-9(11)5-2-6-10(8)12/h3-4,7H,2,5-6H2,1H3",
        "InChIKey": null,
        "Canonical SMILES": "O=C1C=2C=CC=C(OC)C2CCC1",
        "Molecular Formula": "C<sub>11</sub>H<sub>12</sub>O<sub>2</sub>",
        "Molecular Mass": "176.21",
        "Boiling Point": "160-164 °C @ Press: 12 Torr",
        "Melting Point": "89-89.5 °C"
    }
}