{
    "cas_no": "75415-78-0",
    "key_name": "1,2-Dibromocyclopentene",
    "cn_name": "1,2-二溴环戊烯;",
    "alternate_name": "Cyclopentene, 1,2-dibromo-;1,2-Dibromocyclopentene;1,2-Dibromo-1-cyclopentene",
    "duplicated_cas_no": "",
    "SMILES": "BrC1=C(Br)CCC1",
    "meta_data": {
        "InChI": "InChI=1S/C5H6Br2/c6-4-2-1-3-5(4)7/h1-3H2",
        "InChIKey": null,
        "Canonical SMILES": "BrC1=C(Br)CCC1",
        "Molecular Formula": "C<sub>5</sub>H<sub>6</sub>Br<sub>2</sub>",
        "Molecular Mass": "225.91",
        "Boiling Point": "78-79 °C @ Press: 5 Torr",
        "Density": "1.8867 g/cm³ @ Temp: 20 °C"
    }
}