{
    "cas_no": "3430-25-9",
    "key_name": "Pyridine, 2,3,5-tribromo-4-methyl-",
    "cn_name": null,
    "alternate_name": "Pyridine, 2,3,5-tribromo-4-methyl-;4-Picoline, 2,3,5-tribromo-;2,3,5-Tribromo-4-methylpyridine",
    "duplicated_cas_no": "",
    "SMILES": "BrC=1C(C)=C(Br)C=NC1Br",
    "meta_data": {
        "InChI": "InChI=1S/C6H4Br3N/c1-3-4(7)2-10-6(9)5(3)8/h2H,1H3",
        "InChIKey": null,
        "Canonical SMILES": "BrC1=NC=C(Br)C(=C1Br)C",
        "Molecular Formula": "C<sub>6</sub>H<sub>4</sub>Br<sub>3</sub>N",
        "Molecular Mass": "329.81",
        "Melting Point": "56-57 °C"
    }
}