{
    "cas_no": "38066-16-9",
    "key_name": "Diethyl <em>P</em>-[(phenylthio)methyl]phosphonate",
    "cn_name": "苯硫甲基膦酸二乙酯;二乙基(苯基硫代甲基)磷酸酯;",
    "alternate_name": "Phosphonic acid, <em>P</em>-[(phenylthio)methyl]-, diethyl ester;Phosphonic acid, [(phenylthio)methyl]-, diethyl ester;Diethyl <em>P</em>-[(phenylthio)methyl]phosphonate;Diethyl [(phenylthio)methyl]phosphonate;Diethyl phenylthiomethanephosphonate;[(Phenylthio)methyl]phosphonic acid diethyl ester;NSC 202497",
    "duplicated_cas_no": "",
    "SMILES": "P(CSC1=CC=CC=C1)(OCC)(OCC)=O",
    "meta_data": {
        "InChI": "InChI=1S/C11H17O3PS/c1-3-13-15(12,14-4-2)10-16-11-8-6-5-7-9-11/h5-9H,3-4,10H2,1-2H3",
        "InChIKey": null,
        "Canonical SMILES": "O=P(OCC)(OCC)CSC=1C=CC=CC1",
        "Molecular Formula": "C<sub>11</sub>H<sub>17</sub>O<sub>3</sub>PS",
        "Molecular Mass": "260.29",
        "Boiling Point": "177-179 °C @ Press: 7 Torr"
    }
}