{
    "cas_no": "16292-95-8",
    "key_name": "3-Methoxy-4-nitrophenol",
    "cn_name": null,
    "alternate_name": "Phenol, 3-methoxy-4-nitro-;3-Methoxy-4-nitrophenol",
    "duplicated_cas_no": "",
    "SMILES": "O(C)C1=C(N(=O)=O)C=CC(O)=C1",
    "meta_data": {
        "InChI": "InChI=1S/C7H7NO4/c1-12-7-4-5(9)2-3-6(7)8(10)11/h2-4,9H,1H3",
        "InChIKey": null,
        "Canonical SMILES": "O=N(=O)C1=CC=C(O)C=C1OC",
        "Molecular Formula": "C<sub>7</sub>H<sub>7</sub>NO<sub>4</sub>",
        "Molecular Mass": "169.13",
        "Melting Point": "144 °C"
    }
}