{
    "cas_no": "26452-81-3",
    "key_name": "4-Chloro-6-methoxypyrimidine",
    "cn_name": "4-氯-6-甲氧基嘧啶;",
    "alternate_name": "Pyrimidine, 4-chloro-6-methoxy-;4-Chloro-6-methoxypyrimidine",
    "duplicated_cas_no": "",
    "SMILES": "O(C)C=1C=C(Cl)N=CN1",
    "meta_data": {
        "InChI": "InChI=1S/C5H5ClN2O/c1-9-5-2-4(6)7-3-8-5/h2-3H,1H3",
        "InChIKey": null,
        "Canonical SMILES": "ClC1=NC=NC(OC)=C1",
        "Molecular Formula": "C<sub>5</sub>H<sub>5</sub>ClN<sub>2</sub>O",
        "Molecular Mass": "144.56",
        "Boiling Point": "80 °C @ Press: 18 Torr",
        "Melting Point": "34.5-35.0 °C"
    }
}