{
    "cas_no": "544-77-4",
    "key_name": "1-Iodohexadecane",
    "cn_name": "碘代十六烷 [544-77-4];碘代十六烷;",
    "alternate_name": "Hexadecane, 1-iodo-;1-Iodohexadecane;Cetyl iodide;Hexadecyl iodide",
    "duplicated_cas_no": "",
    "SMILES": "C(CCCCCCCC)CCCCCCCI",
    "meta_data": {
        "InChI": "InChI=1S/C16H33I/c1-2-3-4-5-6-7-8-9-10-11-12-13-14-15-16-17/h2-16H2,1H3",
        "InChIKey": null,
        "Canonical SMILES": "ICCCCCCCCCCCCCCCC",
        "Molecular Formula": "C<sub>16</sub>H<sub>33</sub>I",
        "Molecular Mass": "352.34",
        "Boiling Point": "208 °C @ Press: 10 Torr",
        "Melting Point": "22 °C",
        "Density": "1.12639 g/cm³ @ Temp: 20 °C"
    }
}