{
    "cas_no": "14186-60-8",
    "key_name": "1,4-Dimethyl 2-methyl-1,4-benzenedicarboxylate",
    "cn_name": "2-甲基-1,4-苯二甲酸二甲酯;",
    "alternate_name": "1,4-Benzenedicarboxylic acid, 2-methyl-, 1,4-dimethyl ester;Terephthalic acid, methyl-, dimethyl ester;1,4-Benzenedicarboxylic acid, 2-methyl-, dimethyl ester;1,4-Dimethyl 2-methyl-1,4-benzenedicarboxylate;Dimethyl 2-methylterephthalate;Dimethyl methylterephthalate;Dimethyl 3-methylterephthalate",
    "duplicated_cas_no": "",
    "SMILES": "C(OC)(=O)C1=C(C)C=C(C(OC)=O)C=C1",
    "meta_data": {
        "InChI": "InChI=1S/C11H12O4/c1-7-6-8(10(12)14-2)4-5-9(7)11(13)15-3/h4-6H,1-3H3",
        "InChIKey": null,
        "Canonical SMILES": "O=C(OC)C1=CC=C(C(=O)OC)C(=C1)C",
        "Molecular Formula": "C<sub>11</sub>H<sub>12</sub>O<sub>4</sub>",
        "Molecular Mass": "208.21",
        "Boiling Point": "156 °C @ Press: 10 Torr",
        "Melting Point": "75.5 °C"
    }
}