{
    "cas_no": "2294-38-4",
    "key_name": "Ethylpyridinium chloride",
    "cn_name": "1-乙基氯化吡啶;",
    "alternate_name": "Pyridinium, 1-ethyl-, chloride (1:1);Pyridinium, 1-ethyl-, chloride;1-Ethylpyridinium chloride;Ethylpyridinium chloride;<em>N</em>-Ethylpyridinium chloride",
    "duplicated_cas_no": "",
    "SMILES": "C(C)[N+]=1C=CC=CC1.[Cl-]",
    "meta_data": {
        "InChI": "InChI=1S/C7H10N.ClH/c1-2-8-6-4-3-5-7-8;/h3-7H,2H2,1H3;1H/q+1;/p-1",
        "InChIKey": null,
        "Canonical SMILES": "[Cl-].C=1C=C[N+](=CC1)CC",
        "Molecular Formula": "C<sub>7</sub>H<sub>10</sub>N.Cl",
        "Molecular Mass": "",
        "Melting Point": "100 °C"
    }
}