{
    "cas_no": "64248-56-2",
    "key_name": "2-Bromo-1,3-difluorobenzene",
    "cn_name": "1-溴-2,6-二氟苯;2-溴-1,3-二氟苯;",
    "alternate_name": "Benzene, 2-bromo-1,3-difluoro-;2-Bromo-1,3-difluorobenzene;2,6-Difluorobromobenzene;1-Bromo-2,6-difluorobenzene;(2,6-Difluorophenyl) bromide;2,6-Difluoro-1-bromobenzene",
    "duplicated_cas_no": "",
    "SMILES": "BrC1=C(F)C=CC=C1F",
    "meta_data": {
        "InChI": "InChI=1S/C6H3BrF2/c7-6-4(8)2-1-3-5(6)9/h1-3H",
        "InChIKey": null,
        "Canonical SMILES": "FC1=CC=CC(F)=C1Br",
        "Molecular Formula": "C<sub>6</sub>H<sub>3</sub>BrF<sub>2</sub>",
        "Molecular Mass": "192.99",
        "Boiling Point": "135-137 °C @ Press: 760 Torr"
    }
}