{
    "cas_no": "1022094-03-6",
    "key_name": "Morpholine, 3-methyl-, hydrochloride (1:1), (3<em>S</em>)-",
    "cn_name": null,
    "alternate_name": "Morpholine, 3-methyl-, hydrochloride (1:1), (3<em>S</em>)-;(3<em>S</em>)-3-Methylmorpholine hydrochloride;(<em>S</em>)-3-Methylmorpholine hydrochloride;(3<em>S</em>)-Methylmorpholine hydrochloride;(S)-3-Methylmorpholine HCL",
    "duplicated_cas_no": "",
    "SMILES": "C[C@H]1COCCN1.Cl",
    "meta_data": {
        "InChI": "InChI=1S/C5H11NO.ClH/c1-5-4-7-3-2-6-5;/h5-6H,2-4H2,1H3;1H/t5-;/m0./s1",
        "InChIKey": null,
        "Canonical SMILES": "Cl.O1CCNC(C)C1",
        "Molecular Formula": "C<sub>5</sub>H<sub>11</sub>NO.ClH",
        "Molecular Mass": "",
        "Melting Point": "&gt;200 °C"
    }
}