{
    "cas_no": "2752-17-2",
    "key_name": "2-Aminoethyl ether",
    "cn_name": "2,2-氧代双乙胺;",
    "alternate_name": "Ethanamine, 2,2′-oxybis-;Ethylamine, 2,2′-oxybis-;2,2′-Oxybis[ethanamine];Bis(2-aminoethyl) ether;1,5-Diamino-3-oxapentane;2-Aminoethyl ether;3-Oxa-1,5-diaminopentane;2,2′-Oxybis(ethylamine);2,2′-Oxydi[ethanamine];Jeffamine EDR 104;3-Oxa-1,5-pentanediamine;2-(2-Aminoethoxy)ethylamine;1,5-Diamine-3-oxapentane;2-(2-Aminoethoxy)ethanamine;EDR 104;2-(2-Aminoethoxy)ethan-1-amine",
    "duplicated_cas_no": "",
    "SMILES": "O(CCN)CCN",
    "meta_data": {
        "InChI": "InChI=1S/C4H12N2O/c5-1-3-7-4-2-6/h1-6H2",
        "InChIKey": null,
        "Canonical SMILES": "O(CCN)CCN",
        "Molecular Formula": "C<sub>4</sub>H<sub>12</sub>N<sub>2</sub>O",
        "Molecular Mass": "104.15",
        "Boiling Point": "183-184 °C"
    }
}