{
    "cas_no": "516-55-2",
    "key_name": "3β-Hydroxy-5α-pregnan-20-one",
    "cn_name": "别孕烯醇酮;",
    "alternate_name": "Pregnan-20-one, 3-hydroxy-, (3β,5α)-;5α-Pregnan-20-one, 3β-hydroxy-;(3β,5α)-3-Hydroxypregnan-20-one;Allopregnan-3β-ol-20-one;3β,5α-Pregnanolone;3β-Hydroxy-5α-tetrahydroprogesterone;Allopregnanolone;3β-Hydroxy-5α,17β-pregnan-20-one;3β-Hydroxy-5α-pregnan-20-one;5α-Pregnane-3β-ol-20-one;Isopregnanolone;5α-Dihydropregnenolone;U 0949;3β-Allopregnanolone;3β-Hydroxy-5α-dihydroprogesterone;3-Deoxo-3β-hydroxy-5α-dihydroprogesterone;NSC 97078;Epiallopregnanolone;Isoallopregnanolone;Sepranolone;UC 1010",
    "duplicated_cas_no": "",
    "SMILES": "C[C@@]12[C@@]3([C@]([C@]4([C@](C)(CC3)[C@@H](C(C)=O)CC4)[H])(CC[C@]1(C[C@@H](O)CC2)[H])[H])[H]",
    "meta_data": {
        "InChI": "InChI=1S/C21H34O2/c1-13(22)17-6-7-18-16-5-4-14-12-15(23)8-10-20(14,2)19(16)9-11-21(17,18)3/h14-19,23H,4-12H2,1-3H3/t14-,15-,16-,17+,18-,19-,20-,21+/m0/s1",
        "InChIKey": null,
        "Canonical SMILES": "O=C(C)C1CCC2C3CCC4CC(O)CCC4(C)C3CCC12C",
        "Molecular Formula": "C<sub>21</sub>H<sub>34</sub>O<sub>2</sub>",
        "Molecular Mass": "318.49",
        "Melting Point": "194.5 °C",
        "Density": "1.1 g/cm³"
    }
}