{
    "cas_no": "5467-72-1",
    "key_name": "Ethanone, 2-amino-1-(4-bromophenyl)-, hydrochloride (1:1)",
    "cn_name": "2-氨基-4\"-溴苯乙酮盐酸盐;",
    "alternate_name": "Ethanone, 2-amino-1-(4-bromophenyl)-, hydrochloride (1:1);Acetophenone, 2-amino-4′-bromo-, hydrochloride;Ethanone, 2-amino-1-(4-bromophenyl)-, hydrochloride;α-Amino-<em>p</em>-bromoacetophenone hydrochloride;2-Amino-4′-bromoacetophenone hydrochloride;<em>N</em>-<em>p</em>-Bromophenacylamine hydrochloride;2-Amino-1-(4-bromophenyl)ethanone hydrochloride;2-Amino-1-(4-bromophenyl)ethan-1-one hydrochloride;2-(4-Bromophenyl)-2-oxoethan-1-aminium chloride",
    "duplicated_cas_no": "",
    "SMILES": "C(CN)(=O)C1=CC=C(Br)C=C1.Cl",
    "meta_data": {
        "InChI": "InChI=1S/C8H8BrNO.ClH/c9-7-3-1-6(2-4-7)8(11)5-10;/h1-4H,5,10H2;1H",
        "InChIKey": null,
        "Canonical SMILES": "Cl.O=C(C1=CC=C(Br)C=C1)CN",
        "Molecular Formula": "C<sub>8</sub>H<sub>8</sub>BrNO.ClH",
        "Molecular Mass": "",
        "Melting Point": "258-259 °C (decomp)"
    }
}