{
    "cas_no": "321-38-0",
    "key_name": "1-Fluoronaphthalene",
    "cn_name": null,
    "alternate_name": "Naphthalene, 1-fluoro-;1-Fluoronaphthalene;α-Fluoronaphthalene;NSC 4690",
    "duplicated_cas_no": "",
    "SMILES": "FC=1C2=C(C=CC1)C=CC=C2",
    "meta_data": {
        "InChI": "InChI=1S/C10H7F/c11-10-7-3-5-8-4-1-2-6-9(8)10/h1-7H",
        "InChIKey": null,
        "Canonical SMILES": "FC1=CC=CC=2C=CC=CC12",
        "Molecular Formula": "C<sub>10</sub>H<sub>7</sub>F",
        "Molecular Mass": "146.16",
        "Boiling Point": "215 °C",
        "Melting Point": "-9 °C",
        "Density": "1.1339 g/cm³ @ Temp: 19 °C"
    }
}