{
    "cas_no": "1435-54-7",
    "key_name": "1,3-Dibromo-2-fluorobenzene",
    "cn_name": null,
    "alternate_name": "Benzene, 1,3-dibromo-2-fluoro-;1,3-Dibromo-2-fluorobenzene",
    "duplicated_cas_no": "",
    "SMILES": "FC1=C(Br)C=CC=C1Br",
    "meta_data": {
        "InChI": "InChI=1S/C6H3Br2F/c7-4-2-1-3-5(8)6(4)9/h1-3H",
        "InChIKey": null,
        "Canonical SMILES": "FC=1C(Br)=CC=CC1Br",
        "Molecular Formula": "C<sub>6</sub>H<sub>3</sub>Br<sub>2</sub>F",
        "Molecular Mass": "253.89",
        "Melting Point": "53 °C"
    }
}