{
    "cas_no": "12035-72-2",
    "key_name": "Nickel sulfide (Ni<sub>3</sub>S<sub>2</sub>)",
    "cn_name": null,
    "alternate_name": "Nickel sulfide (Ni<sub>3</sub>S<sub>2</sub>);Nickel subsulfide;Nickel subsulfide (Ni<sub>3</sub>S<sub>2</sub>);Trinickel disulfide;Nickel sesquisulfide",
    "duplicated_cas_no": "2478694-09-4;2761877-81-8",
    "SMILES": "",
    "meta_data": {
        "InChI": "",
        "InChIKey": null,
        "Canonical SMILES": "",
        "Molecular Formula": "Ni<sub>3</sub>S<sub>2</sub>",
        "Molecular Mass": "",
        "Melting Point": "787 °C",
        "Density": "5.87 g/cm³"
    }
}