{
    "uri": "substance/pt/12035722",
    "rn": "12035-72-2",
    "name": "Nickel sulfide (Ni<sub>3</sub>S<sub>2</sub>)",
    "images": [],
    "inchi": "",
    "inchiKey": "",
    "smile": "",
    "canonicalSmile": "",
    "molecularFormula": "Ni<sub>3</sub>S<sub>2</sub>",
    "molecularMass": "",
    "experimentalProperties": [
        {
            "name": "Melting Point",
            "property": "787 °C",
            "sourceNumber": 1
        },
        {
            "name": "Density",
            "property": "5.87 g/cm³",
            "sourceNumber": 1
        }
    ],
    "propertyCitations": [
        {
            "docUri": "",
            "sourceNumber": 1,
            "source": "Hazardous Substances Data Bank data were obtained from the National Library of Medicine (US)"
        }
    ],
    "synonyms": [
        "Nickel sulfide (Ni<sub>3</sub>S<sub>2</sub>)",
        "Nickel subsulfide",
        "Nickel subsulfide (Ni<sub>3</sub>S<sub>2</sub>)",
        "Trinickel disulfide",
        "Nickel sesquisulfide"
    ],
    "replacedRns": [
        "2478694-09-4",
        "2761877-81-8"
    ],
    "hasMolfile": false,
    "source": "https://commonchemistry.cas.org/detail?cas_rn=12035-72-2"
}