{
    "cas_no": "1483-54-1",
    "key_name": "2-Amino-4-(trifluoromethyl)benzonitrile",
    "cn_name": "2-氨基-4-三氟甲基苯腈;",
    "alternate_name": "Benzonitrile, 2-amino-4-(trifluoromethyl)-;<em>p</em>-Tolunitrile, 2-amino-α,α,α-trifluoro-;2-Amino-4-(trifluoromethyl)benzonitrile;2-Cyano-5-trifluoromethylaniline;4-(Trifluoromethyl)anthranilonitrile",
    "duplicated_cas_no": "",
    "SMILES": "C(F)(F)(F)C1=CC(N)=C(C#N)C=C1",
    "meta_data": {
        "InChI": "InChI=1S/C8H5F3N2/c9-8(10,11)6-2-1-5(4-12)7(13)3-6/h1-3H,13H2",
        "InChIKey": null,
        "Canonical SMILES": "N#CC1=CC=C(C=C1N)C(F)(F)F",
        "Molecular Formula": "C<sub>8</sub>H<sub>5</sub>F<sub>3</sub>N<sub>2</sub>",
        "Molecular Mass": "186.13",
        "Boiling Point": "122-127 °C @ Press: 7 Torr",
        "Melting Point": "86-89 °C"
    }
}