{
    "cas_no": "6145-69-3",
    "key_name": "1-<em>O</em>-Hexadecylglycerol",
    "cn_name": null,
    "alternate_name": "1,2-Propanediol, 3-(hexadecyloxy)-;1,2-Propanediol, 3-(hexadecyloxy)-, (±)-;3-(Hexadecyloxy)-1,2-propanediol;(±)-1-Hexadecyl glycerol;<em>rac</em>-1-<em>O</em>-Hexadecylglycerol;1-<em>O</em>-Hexadecyl-<em>rac</em>-glycerol;1-Hexadecylglycerol;Glyceryl-1-hexadecyl ether;1-<em>O</em>-Hexadecylglycerol;3-Hexadecyloxypropane-1,2-diol;NSC 59269;1-<em>O</em>-Hexadecyl-Rac-Glycerol;3-Hexadecoxypropane-1,2-diol;Glycerol 1-hexadecyl ether;Nikkol Chimyl Alcohol 100",
    "duplicated_cas_no": "53584-29-5",
    "SMILES": "C(CCCCCCCCCCCCCC)COCC(CO)O",
    "meta_data": {
        "InChI": "InChI=1S/C19H40O3/c1-2-3-4-5-6-7-8-9-10-11-12-13-14-15-16-22-18-19(21)17-20/h19-21H,2-18H2,1H3",
        "InChIKey": null,
        "Canonical SMILES": "OCC(O)COCCCCCCCCCCCCCCCC",
        "Molecular Formula": "C<sub>19</sub>H<sub>40</sub>O<sub>3</sub>",
        "Molecular Mass": "316.52",
        "Melting Point": "62.5-63.5 °C"
    }
}