{
    "cas_no": "95809-78-2",
    "key_name": "6,8-Bis[(phenylmethyl)thio]octanoic acid",
    "cn_name": null,
    "alternate_name": "Octanoic acid, 6,8-bis[(phenylmethyl)thio]-;Octanoic acid, 6,8-bis(benzylthio)-;6,8-Bis[(phenylmethyl)thio]octanoic acid;CPI 613;Devimistat;6,8-Bis-benzylthio-octanoic acid;SML 0404",
    "duplicated_cas_no": "",
    "SMILES": "C(SCC1=CC=CC=C1)(CCSCC2=CC=CC=C2)CCCCC(O)=O",
    "meta_data": {
        "InChI": "InChI=1S/C22H28O2S2/c23-22(24)14-8-7-13-21(26-18-20-11-5-2-6-12-20)15-16-25-17-19-9-3-1-4-10-19/h1-6,9-12,21H,7-8,13-18H2,(H,23,24)",
        "InChIKey": null,
        "Canonical SMILES": "O=C(O)CCCCC(SCC=1C=CC=CC1)CCSCC=2C=CC=CC2",
        "Molecular Formula": "C<sub>22</sub>H<sub>28</sub>O<sub>2</sub>S<sub>2</sub>",
        "Molecular Mass": "388.59",
        "Melting Point": "50-57 °C"
    }
}