{
    "cas_no": "69038-81-9",
    "key_name": "3-(2-Ethoxyphenyl)-2-propenoic acid",
    "cn_name": null,
    "alternate_name": "2-Propenoic acid, 3-(2-ethoxyphenyl)-;Cinnamic acid, <em>o</em>-ethoxy-;3-(2-Ethoxyphenyl)-2-propenoic acid;2-Ethoxycinnamic acid;NSC 98551",
    "duplicated_cas_no": "",
    "SMILES": "C(=CC(O)=O)C1=C(OCC)C=CC=C1",
    "meta_data": {
        "InChI": "InChI=1S/C11H12O3/c1-2-14-10-6-4-3-5-9(10)7-8-11(12)13/h3-8H,2H2,1H3,(H,12,13)",
        "InChIKey": null,
        "Canonical SMILES": "O=C(O)C=CC=1C=CC=CC1OCC",
        "Molecular Formula": "C<sub>11</sub>H<sub>12</sub>O<sub>3</sub>",
        "Molecular Mass": "192.21",
        "Melting Point": "133-134 °C"
    }
}