{
    "cas_no": "105-72-6",
    "key_name": "Glycol dibutyrate",
    "cn_name": "乙二醇二丁酸酯;",
    "alternate_name": "Butanoic acid, 1,1′-(1,2-ethanediyl) ester;Butyric acid, ethylene ester;Glycol dibutyrate;Ethylene glycol dibutyrate;Ethylene butyrate",
    "duplicated_cas_no": "4144-53-0",
    "SMILES": "C(OCCOC(CCC)=O)(CCC)=O",
    "meta_data": {
        "InChI": "InChI=1S/C10H18O4/c1-3-5-9(11)13-7-8-14-10(12)6-4-2/h3-8H2,1-2H3",
        "InChIKey": null,
        "Canonical SMILES": "O=C(OCCOC(=O)CCC)CCC",
        "Molecular Formula": "C<sub>10</sub>H<sub>18</sub>O<sub>4</sub>",
        "Molecular Mass": "202.25",
        "Boiling Point": "240 °C",
        "Melting Point": "-80 °C"
    }
}