{
    "cas_no": "89544-84-3",
    "key_name": "1-Bromocyclopropanecarboxylic acid",
    "cn_name": null,
    "alternate_name": "Cyclopropanecarboxylic acid, 1-bromo-;1-Bromocyclopropanecarboxylic acid;1-Bromocyclopropane-1-carboxylic acid",
    "duplicated_cas_no": "",
    "SMILES": "C(O)(=O)C1(Br)CC1",
    "meta_data": {
        "InChI": "InChI=1S/C4H5BrO2/c5-4(1-2-4)3(6)7/h1-2H2,(H,6,7)",
        "InChIKey": null,
        "Canonical SMILES": "O=C(O)C1(Br)CC1",
        "Molecular Formula": "C<sub>4</sub>H<sub>5</sub>BrO<sub>2</sub>",
        "Molecular Mass": "164.99",
        "Melting Point": "78 °C"
    }
}