{
    "cas_no": "93-08-3",
    "key_name": "2-Acetylnaphthalene",
    "cn_name": "2-萘乙酮;beta-乙酮萘;",
    "alternate_name": "Ethanone, 1-(2-naphthalenyl)-;2′-Acetonaphthone;1-(2-Naphthalenyl)ethanone;β-Acetonaphthone;Methyl β-naphthyl ketone;β-Naphthyl methyl ketone;Methyl 2-naphthyl ketone;2-Naphthyl methyl ketone;β-Acetylnaphthalene;2-Acetylnaphthalene;1-(2-Naphthyl)ethanone;NSC 7658;1-(Naphthalen-2-yl)ethanone;1-(Naphthalen-3-yl)ethanone;2-Acetonaphthalene;Oranger crystals;1-(Naphthalen-2-yl) ethan-1-one;1-(2-Naphthyl)ethan-1-one",
    "duplicated_cas_no": "",
    "SMILES": "C(C)(=O)C1=CC2=C(C=C1)C=CC=C2",
    "meta_data": {
        "InChI": "InChI=1S/C12H10O/c1-9(13)11-7-6-10-4-2-3-5-12(10)8-11/h2-8H,1H3",
        "InChIKey": null,
        "Canonical SMILES": "O=C(C=1C=CC=2C=CC=CC2C1)C",
        "Molecular Formula": "C<sub>12</sub>H<sub>10</sub>O",
        "Molecular Mass": "170.21",
        "Boiling Point": "302 °C",
        "Melting Point": "56 °C"
    }
}