{
    "cas_no": "2082-59-9",
    "key_name": "Valeric anhydride",
    "cn_name": "戊酸酐;戊酐;",
    "alternate_name": "Pentanoic acid, 1,1′-anhydride;Valeric anhydride;Pentanoic acid, anhydride;Pentanoic anhydride;Valeryl anhydride;Valeric acid anhydride;<em>n</em>-Valeric anhydride",
    "duplicated_cas_no": "",
    "SMILES": "C(OC(CCCC)=O)(CCCC)=O",
    "meta_data": {
        "InChI": "InChI=1S/C10H18O3/c1-3-5-7-9(11)13-10(12)8-6-4-2/h3-8H2,1-2H3",
        "InChIKey": null,
        "Canonical SMILES": "O=C(OC(=O)CCCC)CCCC",
        "Molecular Formula": "C<sub>10</sub>H<sub>18</sub>O<sub>3</sub>",
        "Molecular Mass": "186.25",
        "Boiling Point": "227 °C",
        "Melting Point": "-56.1 °C"
    }
}