{
    "cas_no": "2083-09-2",
    "key_name": "2,5-Bis(4-biphenylyl)oxazole",
    "cn_name": "2,5-双(4-双苯基)恶唑;",
    "alternate_name": "Oxazole, 2,5-bis([1,1′-biphenyl]-4-yl)-;Oxazole, 2,5-bis(4-biphenylyl)-;2,5-Bis([1,1′-biphenyl]-4-yl)oxazole;BBO (wavelength shifter);2,5-Bis(4-biphenylyl)oxazole;2,5-Dibiphenyloxazole;2,5-Bis-<em>p</em>-biphenylyloxazole;2,5-Bis(4-biphenyl)oxazole;2,5-Bis(biphenylyl)oxazole;2,5-Di(4-biphenylyl)oxazole;2,5-Bis(biphenyl)oxazole;BBO;NSC 24863;2,5-Bis(4-phenylphenyl)-1,3-oxazole",
    "duplicated_cas_no": "",
    "SMILES": "C=1(OC(=NC1)C2=CC=C(C=C2)C3=CC=CC=C3)C4=CC=C(C=C4)C5=CC=CC=C5",
    "meta_data": {
        "InChI": "InChI=1S/C27H19NO/c1-3-7-20(8-4-1)22-11-15-24(16-12-22)26-19-28-27(29-26)25-17-13-23(14-18-25)21-9-5-2-6-10-21/h1-19H",
        "InChIKey": null,
        "Canonical SMILES": "N=1C=C(OC1C=2C=CC(=CC2)C=3C=CC=CC3)C=4C=CC(=CC4)C=5C=CC=CC5",
        "Molecular Formula": "C<sub>27</sub>H<sub>19</sub>NO",
        "Molecular Mass": "373.45",
        "Melting Point": "242 °C"
    }
}