{
    "cas_no": "38184-47-3",
    "key_name": "1<em>H</em>-Pyrazole-1-carboximidamide, 3,5-dimethyl-, nitrate (1:1)",
    "cn_name": null,
    "alternate_name": "1<em>H</em>-Pyrazole-1-carboximidamide, 3,5-dimethyl-, nitrate (1:1);1<em>H</em>-Pyrazole-1-carboximidamide, 3,5-dimethyl-, mononitrate;3,5-Dimethyl-1-guanylpyrazole nitrate;1-Amidino-3,5-dimethylpyrazole nitrate;3,5-Dimethylpyrazole-1-carboxamidine nitrate;NSC 54493;3,5-Dimethyl-1<em>H</em>-pyrazole-1-carboximidamide nitrate;3,5-Dimethyl-1-pyrazolylformamidinium nitrate",
    "duplicated_cas_no": "860398-95-4;167945-22-4",
    "SMILES": "C(=N)(N)N1N=C(C)C=C1C.N(=O)(=O)O",
    "meta_data": {
        "InChI": "InChI=1S/C6H10N4.HNO3/c1-4-3-5(2)10(9-4)6(7)8;2-1(3)4/h3H,1-2H3,(H3,7,8);(H,2,3,4)",
        "InChIKey": null,
        "Canonical SMILES": "O=N(=O)O.N=C(N)N1N=C(C=C1C)C",
        "Molecular Formula": "C<sub>6</sub>H<sub>10</sub>N<sub>4</sub>.HNO<sub>3</sub>",
        "Molecular Mass": "",
        "Melting Point": "174 °C"
    }
}