{
    "cas_no": "35472-56-1",
    "key_name": "Ethyl 2-(methylamino)benzoate",
    "cn_name": null,
    "alternate_name": "Benzoic acid, 2-(methylamino)-, ethyl ester;Anthranilic acid, <em>N</em>-methyl-, ethyl ester;Ethyl 2-(methylamino)benzoate;NSC 408328",
    "duplicated_cas_no": "",
    "SMILES": "C(OCC)(=O)C1=C(NC)C=CC=C1",
    "meta_data": {
        "InChI": "InChI=1S/C10H13NO2/c1-3-13-10(12)8-6-4-5-7-9(8)11-2/h4-7,11H,3H2,1-2H3",
        "InChIKey": null,
        "Canonical SMILES": "O=C(OCC)C=1C=CC=CC1NC",
        "Molecular Formula": "C<sub>10</sub>H<sub>13</sub>NO<sub>2</sub>",
        "Molecular Mass": "179.22",
        "Boiling Point": "153 °C @ Press: 32 Torr",
        "Melting Point": "32-33 °C"
    }
}