{
    "cas_no": "9002-04-4",
    "key_name": "Thrombin",
    "cn_name": null,
    "alternate_name": "Thrombin;Thrombase;E.C. 3.4.4.13;E.C. 3.4.21.5;Thrombofort;Thrombin-C;EC 3.4.21.5;Tropostasin;Blood-coagulation factor II, activated;Blood-coagulation factor IIa;Factor IIa;γ-Thrombin;Thrombostat;Thrombin JMI;Thrombinar;Thrombin II;Evithrom;Thrombin/Factor IIa;Factor 2a;BP 25432;T 7513-500UN;Alpha thrombin;α-Thrombin;β-Thrombin;Beta-Thrombin;Coagulation factor IIa;FIIa;Proteins, FIIa;Gamma-thrombin;MeSH ID: D013917",
    "duplicated_cas_no": "105881-84-3;8050-02-0;8059-56-1;9014-41-9;53028-63-0",
    "SMILES": "",
    "meta_data": {
        "InChI": "",
        "InChIKey": null,
        "Canonical SMILES": "",
        "Molecular Formula": "Unspecified",
        "Molecular Mass": "",
        "Melting Point": "21.3 °C"
    }
}