{
    "uri": "substance/pt/9002044",
    "rn": "9002-04-4",
    "name": "Thrombin",
    "images": [],
    "inchi": "",
    "inchiKey": "",
    "smile": "",
    "canonicalSmile": "",
    "molecularFormula": "Unspecified",
    "molecularMass": "",
    "experimentalProperties": [
        {
            "name": "Melting Point",
            "property": "21.3 °C",
            "sourceNumber": 1
        }
    ],
    "propertyCitations": [
        {
            "docUri": "document/pt/document/29059918",
            "sourceNumber": 1,
            "source": "Fialova, Marketa; Biochemical and Biophysical Research Communications, (2006), 344(1), 50-54, CAplus"
        }
    ],
    "synonyms": [
        "Thrombin",
        "Thrombase",
        "E.C. 3.4.4.13",
        "E.C. 3.4.21.5",
        "Thrombofort",
        "Thrombin-C",
        "EC 3.4.21.5",
        "Tropostasin",
        "Blood-coagulation factor II, activated",
        "Blood-coagulation factor IIa",
        "Factor IIa",
        "γ-Thrombin",
        "Thrombostat",
        "Thrombin JMI",
        "Thrombinar",
        "Thrombin II",
        "Evithrom",
        "Thrombin/Factor IIa",
        "Factor 2a",
        "BP 25432",
        "T 7513-500UN",
        "Alpha thrombin",
        "α-Thrombin",
        "β-Thrombin",
        "Beta-Thrombin",
        "Coagulation factor IIa",
        "FIIa",
        "Proteins, FIIa",
        "Gamma-thrombin",
        "MeSH ID: D013917"
    ],
    "replacedRns": [
        "105881-84-3",
        "8050-02-0",
        "8059-56-1",
        "9014-41-9",
        "53028-63-0"
    ],
    "hasMolfile": false,
    "source": "https://commonchemistry.cas.org/detail?cas_rn=9002-04-4"
}