{
    "cas_no": "591-47-9",
    "key_name": "4-Methylcyclohexene",
    "cn_name": "4-甲基-1-环己烯;甲基环己烯;甲环己烯;四氢甲苯;",
    "alternate_name": "Cyclohexene, 4-methyl-;4-Methylcyclohexene;4-Methyl-1-cyclohexene;NSC 9386",
    "duplicated_cas_no": "26293-22-1",
    "SMILES": "CC1CCC=CC1",
    "meta_data": {
        "InChI": "InChI=1S/C7H12/c1-7-5-3-2-4-6-7/h2-3,7H,4-6H2,1H3",
        "InChIKey": null,
        "Canonical SMILES": "C1=CCC(C)CC1",
        "Molecular Formula": "C<sub>7</sub>H<sub>12</sub>",
        "Molecular Mass": "96.17",
        "Boiling Point": "102.7 °C",
        "Melting Point": "-115.5 °C",
        "Density": "0.8001 g/cm³ @ Temp: 20 °C"
    }
}