{
    "cas_no": "2706-38-9",
    "key_name": "<em>N</em>-[(Phenylmethoxy)carbonyl]-<span class=\"text-smallcaps\">L</span>-leucylglycine",
    "cn_name": null,
    "alternate_name": "Glycine, <em>N</em>-[(phenylmethoxy)carbonyl]-<span class=\"text-smallcaps\">L</span>-leucyl-;Glycine, <em>N</em>-(<em>N</em>-carboxy-<span class=\"text-smallcaps\">L</span>-leucyl)-, <em>N</em>-benzyl ester;Glycine, <em>N</em>-[<em>N</em>-[(phenylmethoxy)carbonyl]-<span class=\"text-smallcaps\">L</span>-leucyl]-;<em>N</em>-[(Phenylmethoxy)carbonyl]-<span class=\"text-smallcaps\">L</span>-leucylglycine;Benzyloxycarbonylleucylglycine;<em>N</em>-(Benzyloxycarbonyl)leucylglycine;<em>N</em>-Benzyloxycarbonyl-<span class=\"text-smallcaps\">L</span>-leucylglycine;NSC 333759;2-[[(2S)-4-Methyl-2-(phenylmethoxycarbonylamino)pentanoyl]amino]acetic acid",
    "duplicated_cas_no": "",
    "SMILES": "[C@H](C(NCC(O)=O)=O)(NC(OCC1=CC=CC=C1)=O)CC(C)C",
    "meta_data": {
        "InChI": "InChI=1S/C16H22N2O5/c1-11(2)8-13(15(21)17-9-14(19)20)18-16(22)23-10-12-6-4-3-5-7-12/h3-7,11,13H,8-10H2,1-2H3,(H,17,21)(H,18,22)(H,19,20)/t13-/m0/s1",
        "InChIKey": null,
        "Canonical SMILES": "O=C(OCC=1C=CC=CC1)NC(C(=O)NCC(=O)O)CC(C)C",
        "Molecular Formula": "C<sub>16</sub>H<sub>22</sub>N<sub>2</sub>O<sub>5</sub>",
        "Molecular Mass": "322.36",
        "Melting Point": "115 °C"
    }
}