{
    "cas_no": "1116-98-9",
    "key_name": "<em>tert</em>-Butyl cyanoacetate",
    "cn_name": "氰乙酸叔丁酯;",
    "alternate_name": "Acetic acid, 2-cyano-, 1,1-dimethylethyl ester;Acetic acid, cyano-, <em>tert</em>-butyl ester;Acetic acid, cyano-, 1,1-dimethylethyl ester;<em>tert</em>-Butyl cyanoacetate;1,1-Dimethylethyl cyanoacetate;Cyanoacetic acid <em>tert</em>-butyl ester;NSC 1072;<em>tert</em>-Butyl 2-cyanoacetate;<em>tert</em>-Butyl α-cyanoacetate",
    "duplicated_cas_no": "57710-63-1;1654002-83-1",
    "SMILES": "C(OC(C)(C)C)(CC#N)=O",
    "meta_data": {
        "InChI": "InChI=1S/C7H11NO2/c1-7(2,3)10-6(9)4-5-8/h4H2,1-3H3",
        "InChIKey": null,
        "Canonical SMILES": "N#CCC(=O)OC(C)(C)C",
        "Molecular Formula": "C<sub>7</sub>H<sub>11</sub>NO<sub>2</sub>",
        "Molecular Mass": "141.17",
        "Boiling Point": "90 °C @ Press: 10 Torr",
        "Density": "1.0095 g/cm³ @ Temp: 21 °C"
    }
}