{
    "cas_no": "98-74-8",
    "key_name": "4-Nitrobenzenesulfonyl chloride",
    "cn_name": "对硝基苯磺酰氯;",
    "alternate_name": "Benzenesulfonyl chloride, 4-nitro-;Benzenesulfonyl chloride, <em>p</em>-nitro-;4-Nitrobenzenesulfonyl chloride;<em>p</em>-Nitrobenzenesulfonyl chloride;<em>p</em>-Nitrophenylsulfonyl chloride;4-Nitrophenylsulfonyl chloride;4-Nitrobenzenesulfonic acid chloride;Nosyl chloride;NSC 13065;NSC 9572;4-Nitrobenzene-1-sulfonyl chloride;4-Nitrophenyl-1-sulfonyl chloride;<em>p</em>-Nosyl chloride",
    "duplicated_cas_no": "1623050-71-4",
    "SMILES": "S(Cl)(=O)(=O)C1=CC=C(N(=O)=O)C=C1",
    "meta_data": {
        "InChI": "InChI=1S/C6H4ClNO4S/c7-13(11,12)6-3-1-5(2-4-6)8(9)10/h1-4H",
        "InChIKey": null,
        "Canonical SMILES": "O=N(=O)C1=CC=C(C=C1)S(=O)(=O)Cl",
        "Molecular Formula": "C<sub>6</sub>H<sub>4</sub>ClNO<sub>4</sub>S",
        "Molecular Mass": "221.62",
        "Boiling Point": "108-110 °C @ Press: 2 x 10<sup>-4</sup> Torr",
        "Melting Point": "78 °C"
    }
}