{
    "cas_no": "26893-72-1",
    "key_name": "6-Acetamidopicolinic acid",
    "cn_name": null,
    "alternate_name": "2-Pyridinecarboxylic acid, 6-(acetylamino)-;Picolinic acid, 6-acetamido-;6-(Acetylamino)-2-pyridinecarboxylic acid;6-Acetamido-2-pyridinecarboxylic acid;6-Acetamidopicolinic acid;6-(Acetylamino)pyridine-2-carboxylic acid;2-(Acetylamino)-pyridine-6-carboxylic acid",
    "duplicated_cas_no": "",
    "SMILES": "N(C(C)=O)C=1N=C(C(O)=O)C=CC1",
    "meta_data": {
        "InChI": "InChI=1S/C8H8N2O3/c1-5(11)9-7-4-2-3-6(10-7)8(12)13/h2-4H,1H3,(H,12,13)(H,9,10,11)",
        "InChIKey": null,
        "Canonical SMILES": "O=C(O)C1=NC(=CC=C1)NC(=O)C",
        "Molecular Formula": "C<sub>8</sub>H<sub>8</sub>N<sub>2</sub>O<sub>3</sub>",
        "Molecular Mass": "180.16",
        "Melting Point": "227-229 °C"
    }
}