{
    "cas_no": "690-27-7",
    "key_name": "1,1,3,3,3-Pentafluoropropene",
    "cn_name": null,
    "alternate_name": "1-Propene, 1,1,3,3,3-pentafluoro-;Propene, 1,1,3,3,3-pentafluoro-;1,1,3,3,3-Pentafluoro-1-propene;2-Hydropentafluoropropylene;2<em>H</em>-Pentafluoropropene;1,1,3,3,3-Pentafluoropropene;HFC 1225zc;1,1,1,3,3-Pentafluoropropene;1,1,3,3,3-Pentafluoropropylene;R 1225zc;HFO 1225zc;1,1,1,3,3-Pentafluoro-2-propene;FC 1223ZC",
    "duplicated_cas_no": "",
    "SMILES": "C(C(F)(F)F)=C(F)F",
    "meta_data": {
        "InChI": "InChI=1S/C3HF5/c4-2(5)1-3(6,7)8/h1H",
        "InChIKey": null,
        "Canonical SMILES": "FC(F)=CC(F)(F)F",
        "Molecular Formula": "C<sub>3</sub>HF<sub>5</sub>",
        "Molecular Mass": "132.03",
        "Boiling Point": "-21 °C"
    }
}