{
    "cas_no": "363-24-6",
    "key_name": "Prostaglandin E<sub>2</sub>",
    "cn_name": "地诺前列酮;前列腺素E2;7-[3-羟基-2-(3-羟基-1-辛烯基)-5-氧代环戊基]-5-庚烯酸;",
    "alternate_name": "Prosta-5,13-dien-1-oic acid, 11,15-dihydroxy-9-oxo-, (5<em>Z</em>,11α,13<em>E</em>,15<em>S</em>)-;5-Heptenoic acid, 7-[3-hydroxy-2-(3-hydroxy-1-octenyl)-5-oxocyclopentyl]-;5-Heptenoic acid, 7-[3α-hydroxy-2-(3-hydroxy-1-octenyl)-5-oxocyclopentyl]-;(5<em>Z</em>,11α,13<em>E</em>,15<em>S</em>)-11,15-Dihydroxy-9-oxoprosta-5,13-dien-1-oic acid;PGE<sub>2</sub>;Prostaglandin E<sub>2</sub>;U 12062;11α,15α-Dihydroxy-9-oxo-5-<em>cis</em>,13-<em>trans</em>-prostadienoic acid;(15<em>S</em>)-Prostaglandin E<sub>2</sub>;(-)-Prostaglandin E<sub>2</sub>;11α,15α-Dihydroxy-9-ketoprosta-5,13-dienoic acid;Dinoprostone;Prostin E<sub>2</sub>;Prepidil;<em>l</em>-Prostaglandin E<sub>2</sub>;<em>l</em>-PGE<sub>2</sub>;Minprostin E<sub>2</sub>;Prostenon;Prostenone;Cervidil;Prostin;Prostin (prostaglandin);Glandin;Prostarmon E;Cerviprost;Propess;Minprositin E<sub>2</sub>;Enzaprost E;NSC 165560;NSC 196514;Primiprost;Cerviprime;11,15-Dihydroxy-9-oxoprosta-5,13-dien-1-oic acid (5Z,11α,13E,15S);5: PN: US20150065431 SEQID: 5 claimed sequence;7-[3-hydroxy-2-(3-hydroxy-1-octenyl)-5-oxo-cyclopentyl]-5-heptenoic acid",
    "duplicated_cas_no": "",
    "SMILES": "C(/C=C\\CCCC(O)=O)[C@@H]1[C@@H](/C=C/[C@H](CCCCC)O)[C@H](O)CC1=O",
    "meta_data": {
        "InChI": "InChI=1S/C20H32O5/c1-2-3-6-9-15(21)12-13-17-16(18(22)14-19(17)23)10-7-4-5-8-11-20(24)25/h4,7,12-13,15-17,19,21,23H,2-3,5-6,8-11,14H2,1H3,(H,24,25)/b7-4-,13-12+/t15-,16+,17+,19+/m0/s1",
        "InChIKey": null,
        "Canonical SMILES": "O=C(O)CCCC=CCC1C(=O)CC(O)C1C=CC(O)CCCCC",
        "Molecular Formula": "C<sub>20</sub>H<sub>32</sub>O<sub>5</sub>",
        "Molecular Mass": "352.47",
        "Melting Point": "67 °C"
    }
}