{
    "cas_no": "2564-02-5",
    "key_name": "<em>N</em>-(4-Bromophenyl)-2-chloroacetamide",
    "cn_name": "4-溴-2-氯乙酰苯胺;",
    "alternate_name": "Acetamide, <em>N</em>-(4-bromophenyl)-2-chloro-;Acetanilide, 4′-bromo-2-chloro-;<em>N</em>-(4-Bromophenyl)-2-chloroacetamide;<em>N</em>-Chloroacetyl-<em>p</em>-bromoaniline;<em>p</em>-Bromo-2-chloroacetanilide;2-Chloro-<em>N</em>-(<em>p</em>-bromophenyl)acetamide;2-Chloro-4′-bromoacetanilide;<em>N</em>-(4-Bromophenyl)chloroacetamide;<em>N</em>-(Chloroacetyl)-4-bromoaniline;NSC 220248;2-Chloro-<em>N</em>-(4-bromophenyl)acetamide",
    "duplicated_cas_no": "",
    "SMILES": "N(C(CCl)=O)C1=CC=C(Br)C=C1",
    "meta_data": {
        "InChI": "InChI=1S/C8H7BrClNO/c9-6-1-3-7(4-2-6)11-8(12)5-10/h1-4H,5H2,(H,11,12)",
        "InChIKey": null,
        "Canonical SMILES": "O=C(NC1=CC=C(Br)C=C1)CCl",
        "Molecular Formula": "C<sub>8</sub>H<sub>7</sub>BrClNO",
        "Molecular Mass": "248.50",
        "Melting Point": "179-182 °C"
    }
}