{
    "cas_no": "24677-78-9",
    "key_name": "2,3-Dihydroxybenzaldehyde",
    "cn_name": "2,3-二羟基苯甲醛;",
    "alternate_name": "Benzaldehyde, 2,3-dihydroxy-;<em>o</em>-Pyrocatechualdehyde;2,3-Dihydroxybenzaldehyde;5,6-Dihydroxybenzaldehyde;3-Hydroxysalicylaldehyde;1,2-Dihydroxy-3-formylbenzene;3-Formyl-1,2-benzenediol;NSC 146456",
    "duplicated_cas_no": "",
    "SMILES": "C(=O)C1=C(O)C(O)=CC=C1",
    "meta_data": {
        "InChI": "InChI=1S/C7H6O3/c8-4-5-2-1-3-6(9)7(5)10/h1-4,9-10H",
        "InChIKey": null,
        "Canonical SMILES": "O=CC=1C=CC=C(O)C1O",
        "Molecular Formula": "C<sub>7</sub>H<sub>6</sub>O<sub>3</sub>",
        "Molecular Mass": "138.12",
        "Boiling Point": "235 °C",
        "Melting Point": "108 °C"
    }
}