{
    "cas_no": "4026-18-0",
    "key_name": "(±)-2-Hydroxyisovaleric acid",
    "cn_name": null,
    "alternate_name": "Butanoic acid, 2-hydroxy-3-methyl-;Butyric acid, 2-hydroxy-3-methyl-;2-Hydroxy-3-methylbutanoic acid;α-Hydroxyisovaleric acid;2-Oxyisovaleric acid;2-Hydroxyisovaleric acid;2-Hydroxy-3-methylbutyric acid;3-Methyl-2-hydroxybutyric acid;(±)-α-Hydroxyisovaleric acid;<span class=\"text-smallcaps\">DL</span>-α-Hydroxyisovaleric acid;<span class=\"text-smallcaps\">DL</span>-2-Hydroxy-3-methylbutanoic acid;(±)-2-Hydroxyisopentanoic acid;<span class=\"text-smallcaps\">DL</span>-2-Hydroxyisovaleric acid;(±)-2-Hydroxyisovaleric acid;(±)-2-Hydroxy-3-methylbutyric acid;<em>dl</em>-2-Hydroxyisovaleric acid;NSC 227884;α-Hydroxyl-3-methylbutyric acid",
    "duplicated_cas_no": "600-37-3;359875-11-9",
    "SMILES": "C(C(C)C)(C(O)=O)O",
    "meta_data": {
        "InChI": "InChI=1S/C5H10O3/c1-3(2)4(6)5(7)8/h3-4,6H,1-2H3,(H,7,8)",
        "InChIKey": null,
        "Canonical SMILES": "O=C(O)C(O)C(C)C",
        "Molecular Formula": "C<sub>5</sub>H<sub>10</sub>O<sub>3</sub>",
        "Molecular Mass": "118.13",
        "Boiling Point": "120-125 °C @ Press: 17 Torr",
        "Melting Point": "57 °C"
    }
}