{
    "cas_no": "38412-46-3",
    "key_name": "Aloenin",
    "cn_name": null,
    "alternate_name": "2<em>H</em>-Pyran-2-one, 6-[2-(β-<span class=\"text-smallcaps\">D</span>-glucopyranosyloxy)-4-hydroxy-6-methylphenyl]-4-methoxy-;6-[2-(β-<span class=\"text-smallcaps\">D</span>-Glucopyranosyloxy)-4-hydroxy-6-methylphenyl]-4-methoxy-2<em>H</em>-pyran-2-one;Aloenin;Aloearbonaside;Aloenin A",
    "duplicated_cas_no": "53270-24-9",
    "SMILES": "O(C1=C(C(C)=CC(O)=C1)C2=CC(OC)=CC(=O)O2)[C@@H]3O[C@H](CO)[C@@H](O)[C@H](O)[C@H]3O",
    "meta_data": {
        "InChI": "InChI=1S/C19H22O10/c1-8-3-9(21)4-11(15(8)12-5-10(26-2)6-14(22)27-12)28-19-18(25)17(24)16(23)13(7-20)29-19/h3-6,13,16-21,23-25H,7H2,1-2H3/t13-,16-,17+,18-,19-/m1/s1",
        "InChIKey": null,
        "Canonical SMILES": "O=C1OC(=CC(OC)=C1)C=2C(OC3OC(CO)C(O)C(O)C3O)=CC(O)=CC2C",
        "Molecular Formula": "C<sub>19</sub>H<sub>22</sub>O<sub>10</sub>",
        "Molecular Mass": "410.37",
        "Melting Point": "145-147 °C"
    }
}