{
    "cas_no": "57852-57-0",
    "key_name": "Idarubicin hydrochloride",
    "cn_name": "盐酸依达比星;去甲氧基柔红霉素盐酸盐;",
    "alternate_name": "5,12-Naphthacenedione, 9-acetyl-7-[(3-amino-2,3,6-trideoxy-α-<span class=\"text-smallcaps\">L</span>-<em>lyxo</em>-hexopyranosyl)oxy]-7,8,9,10-tetrahydro-6,9,11-trihydroxy-, hydrochloride (1:1), (7<em>S</em>,9<em>S</em>)-;5,12-Naphthacenedione, 9-acetyl-7-[(3-amino-2,3,6-trideoxy-α-<span class=\"text-smallcaps\">L</span>-<em>lyxo</em>-hexopyranosyl)oxy]-7,8,9,10-tetrahydro-6,9,11-trihydroxy-, hydrochloride, (7<em>S</em>-<em>cis</em>)-;5,12-Naphthacenedione, 9-acetyl-7-[(3-amino-2,3,6-trideoxy-α-<span class=\"text-smallcaps\">L</span>-<em>lyxo</em>-hexopyranosyl)oxy]-7,8,9,10-tetrahydro-6,9,11-trihydroxy-, hydrochloride, (7<em>S</em>,9<em>S</em>)-;4-Demethoxydaunorubicin hydrochloride;Idarubicin hydrochloride;Idamycin;Zavedos;4-DMD HCl;NSC 256439;Idamycin PFS",
    "duplicated_cas_no": "",
    "SMILES": "O([C@@H]1C2=C(C(O)=C3C(=C2O)C(=O)C=4C(C3=O)=CC=CC4)C[C@](C(C)=O)(O)C1)[C@H]5C[C@H](N)[C@H](O)[C@H](C)O5.Cl",
    "meta_data": {
        "InChI": "InChI=1S/C26H27NO9.ClH/c1-10-21(29)15(27)7-17(35-10)36-16-9-26(34,11(2)28)8-14-18(16)25(33)20-19(24(14)32)22(30)12-5-3-4-6-13(12)23(20)31;/h3-6,10,15-17,21,29,32-34H,7-9,27H2,1-2H3;1H/t10-,15-,16-,17-,21+,26-;/m0./s1",
        "InChIKey": null,
        "Canonical SMILES": "Cl.O=C1C=2C=CC=CC2C(=O)C=3C(O)=C4C(=C(O)C13)CC(O)(C(=O)C)CC4OC5OC(C)C(O)C(N)C5",
        "Molecular Formula": "C<sub>26</sub>H<sub>27</sub>NO<sub>9</sub>.ClH",
        "Molecular Mass": "",
        "Melting Point": "183-185 °C"
    }
}