{
    "cas_no": "39520-24-6",
    "key_name": "1,3-Dimethyl 2-(2-methylpropyl)propanedioate",
    "cn_name": "异丁基丙二酸二甲酯;",
    "alternate_name": "Propanedioic acid, 2-(2-methylpropyl)-, 1,3-dimethyl ester;Propanedioic acid, (2-methylpropyl)-, dimethyl ester;1,3-Dimethyl 2-(2-methylpropyl)propanedioate;Dimethyl isobutylmalonate;Dimethyl 2-isobutylmalonate",
    "duplicated_cas_no": "",
    "SMILES": "C(C(OC)=O)(C(OC)=O)CC(C)C",
    "meta_data": {
        "InChI": "InChI=1S/C9H16O4/c1-6(2)5-7(8(10)12-3)9(11)13-4/h6-7H,5H2,1-4H3",
        "InChIKey": null,
        "Canonical SMILES": "O=C(OC)C(C(=O)OC)CC(C)C",
        "Molecular Formula": "C<sub>9</sub>H<sub>16</sub>O<sub>4</sub>",
        "Molecular Mass": "188.22",
        "Boiling Point": "101 °C @ Press: 13 Torr"
    }
}