{
    "cas_no": "998-07-2",
    "key_name": "(<em>R</em>)-Dimyristoylphosphatidylethanolamine",
    "cn_name": null,
    "alternate_name": "Tetradecanoic acid, (1<em>R</em>)-1-[[[(2-aminoethoxy)hydroxyphosphinyl]oxy]methyl]-1,2-ethanediyl ester;Myristin, 1,2-di-, 2-aminoethyl hydrogen phosphate, <span class=\"text-smallcaps\">L</span>-;Tetradecanoic acid, 1-[[[(2-aminoethoxy)hydroxyphosphinyl]oxy]methyl]-1,2-ethanediyl ester, (<em>R</em>)-;Phosphoric acid, mono(2-aminoethyl) ester, monoester with 1,2-dimyristin, <span class=\"text-smallcaps\">L</span>-;Dimyristoyl-<em>sn</em>-glycerol-3-phosphorylethanolamine;1,2-Dimyristoyl-<span class=\"text-smallcaps\">L</span>-3-phosphatidylethanolamine;1,2-Dimyristoyl-<em>sn</em>-<em>glycero</em>-3-phosphorylethanolamine;<span class=\"text-smallcaps\">L</span>-β,γ-Dimyristoyl-α-phosphatidylethanolamine;1,2-Dimyristoyl-<em>sn</em>-<em>glycero</em>-3-phosphoethanolamine;<span class=\"text-smallcaps\">L</span>-α-Dimyristoylphosphatidylethanolamine;β,γ-Dimyristoyl-<span class=\"text-smallcaps\">L</span>-α-phosphatidylethanolamine;Dimyristoyl-<span class=\"text-smallcaps\">L</span>-α-phosphatidylethanolamine;(<em>R</em>)-Dimyristoylphosphatidylethanolamine;1,2-Dimyristoyl-3-<em>sn</em>-phosphatidylethanolamine;1,2-Dimyristoyl-sn-<em>glycero</em>-phosphoethanolamine;1,2-Dimyristoyl-sn-<em>glycero</em>-3-phosphoethanolamine;DMPE;1,2-Dimyristoyl-sn-<em>glycero</em>-3-phosphatidylethanolamine;1,2-Dimyristoylsn-<em>glycero</em>-3-phospholethanolamine;1,2-Ditetradecanoyl-sn-<em>glycero</em>-3-phosphoethanolamine;2-Azaniumylethyl [(2R)-2,3-di(tetradecanoyloxy)propyl] phosphate;1,2-Dimyristoyl-sn-<em>glycero</em>-3-phosphoethanoiamine",
    "duplicated_cas_no": "1082689-97-1",
    "SMILES": "[C@@H](OC(CCCCCCCCCCCCC)=O)(COC(CCCCCCCCCCCCC)=O)COP(OCCN)(=O)O",
    "meta_data": {
        "InChI": "InChI=1S/C33H66NO8P/c1-3-5-7-9-11-13-15-17-19-21-23-25-32(35)39-29-31(30-41-43(37,38)40-28-27-34)42-33(36)26-24-22-20-18-16-14-12-10-8-6-4-2/h31H,3-30,34H2,1-2H3,(H,37,38)/t31-/m1/s1",
        "InChIKey": null,
        "Canonical SMILES": "O=C(OCC(OC(=O)CCCCCCCCCCCCC)COP(=O)(O)OCCN)CCCCCCCCCCCCC",
        "Molecular Formula": "C<sub>33</sub>H<sub>66</sub>NO<sub>8</sub>P",
        "Molecular Mass": "635.85",
        "Melting Point": "174-175 °C"
    }
}