{
    "cas_no": "38603-72-4",
    "key_name": "Ethanamine, 2-[[(4-methyl-1<em>H</em>-imidazol-5-yl)methyl]thio]-, hydrochloride (1:2)",
    "cn_name": null,
    "alternate_name": "Ethanamine, 2-[[(4-methyl-1<em>H</em>-imidazol-5-yl)methyl]thio]-, hydrochloride (1:2);Ethanamine, 2-[[(5-methyl-1<em>H</em>-imidazol-4-yl)methyl]thio]-, dihydrochloride;4-Methyl-5-[(2-aminoethyl)thiomethyl]imidazole dihydrochloride;5-[[(2-Aminoethyl)thio]methyl]-4-methylimidazole dihydrochloride;4-[(2-Aminoethyl)thiomethyl]-5-methylimidazole dihydrochloride",
    "duplicated_cas_no": "",
    "SMILES": "C(SCCN)C1=C(C)N=CN1.Cl",
    "meta_data": {
        "InChI": "InChI=1S/C7H13N3S.2ClH/c1-6-7(10-5-9-6)4-11-3-2-8;;/h5H,2-4,8H2,1H3,(H,9,10);2*1H",
        "InChIKey": null,
        "Canonical SMILES": "Cl.N1=CNC(=C1C)CSCCN",
        "Molecular Formula": "C<sub>7</sub>H<sub>13</sub>N<sub>3</sub>S.2ClH",
        "Molecular Mass": "",
        "Melting Point": "190-193 °C"
    }
}