{
    "cas_no": "13710-19-5",
    "key_name": "Tolfenamic acid",
    "cn_name": "托灭酸;2-[(3-氯-2-甲基苯基)氨基]苯甲酸;",
    "alternate_name": "Benzoic acid, 2-[(3-chloro-2-methylphenyl)amino]-;Anthranilic acid, <em>N</em>-(3-chloro-<em>o</em>-tolyl)-;2-[(3-Chloro-2-methylphenyl)amino]benzoic acid;<em>N</em>-(2-Methyl-3-chlorophenyl)anthranilic acid;<em>N</em>-(3-Chloro-<em>o</em>-tolyl)anthranilic acid;Tolfenamic acid;GEA 6414;Clotam;Tolfedine;Tolfine;Migea;Tolfenamate;2-(3-Chloro-2-methylanilino)benzoic acid",
    "duplicated_cas_no": "",
    "SMILES": "N(C1=C(C(O)=O)C=CC=C1)C2=C(C)C(Cl)=CC=C2",
    "meta_data": {
        "InChI": "InChI=1S/C14H12ClNO2/c1-9-11(15)6-4-8-12(9)16-13-7-3-2-5-10(13)14(17)18/h2-8,16H,1H3,(H,17,18)",
        "InChIKey": null,
        "Canonical SMILES": "O=C(O)C=1C=CC=CC1NC=2C=CC=C(Cl)C2C",
        "Molecular Formula": "C<sub>14</sub>H<sub>12</sub>ClNO<sub>2</sub>",
        "Molecular Mass": "261.70",
        "Melting Point": "207-207.5 °C",
        "Density": "1.397 g/cm³ @ Temp: 19.9 °C"
    }
}