{
    "cas_no": "1775-97-9",
    "key_name": "Flavokawain B",
    "cn_name": null,
    "alternate_name": "2-Propen-1-one, 1-(2-hydroxy-4,6-dimethoxyphenyl)-3-phenyl-, (2<em>E</em>)-;Chalcone, 2′-hydroxy-4′,6′-dimethoxy-;2-Propen-1-one, 1-(2-hydroxy-4,6-dimethoxyphenyl)-3-phenyl-, (<em>E</em>)-;(2<em>E</em>)-1-(2-Hydroxy-4,6-dimethoxyphenyl)-3-phenyl-2-propen-1-one;Flavokavin B;(<em>E</em>)-2′-Hydroxy-4′,6′-dimethoxychalcone;Flavokawain B;Flavokavain B;(<em>E</em>)-1-(2-Hydroxy-4,6-dimethoxyphenyl)-3-phenylprop-2-en-1-one;Persicochalcone;(E)-2′-Hydroxy-4′,6′-dimethoxychalcone;(E)-1-(2-Hydroxy-4,6-dimethoxyphenyl)-3-phenylprop-2-en-1-one",
    "duplicated_cas_no": "",
    "SMILES": "C(/C=C/C1=CC=CC=C1)(=O)C2=C(OC)C=C(OC)C=C2O",
    "meta_data": {
        "InChI": "InChI=1S/C17H16O4/c1-20-13-10-15(19)17(16(11-13)21-2)14(18)9-8-12-6-4-3-5-7-12/h3-11,19H,1-2H3/b9-8+",
        "InChIKey": null,
        "Canonical SMILES": "O=C(C=CC=1C=CC=CC1)C=2C(O)=CC(OC)=CC2OC",
        "Molecular Formula": "C<sub>17</sub>H<sub>16</sub>O<sub>4</sub>",
        "Molecular Mass": "284.31",
        "Melting Point": "178-179 °C"
    }
}