{
    "cas_no": "10526-07-5",
    "key_name": "1,3-Bis(3-aminophenoxy)benzene",
    "cn_name": "1,3-双(3-氨基苯氧基)苯;",
    "alternate_name": "Benzenamine, 3,3′-[1,3-phenylenebis(oxy)]bis-;Aniline, 3,3′-(<em>m</em>-phenylenedioxy)di-;3,3′-[1,3-Phenylenebis(oxy)]bis[benzenamine];3,3′-(<em>m</em>-Phenylenedioxy)dianiline;1,3-Bis(3-aminophenoxy)benzene;1,3-Bis(<em>m</em>-aminophenoxy)benzene;3,3′-[1,3-Phenylenebis(oxy)]bis[aniline];3,3′-[<em>m</em>-Phenylenebis(oxy)]dianiline;APB;APB-N;APB 133;3,3′-(1,3-Phenylenebis(oxy))dianiline;TPE-M",
    "duplicated_cas_no": "",
    "SMILES": "O(C1=CC(OC2=CC(N)=CC=C2)=CC=C1)C3=CC(N)=CC=C3",
    "meta_data": {
        "InChI": "InChI=1S/C18H16N2O2/c19-13-4-1-6-15(10-13)21-17-8-3-9-18(12-17)22-16-7-2-5-14(20)11-16/h1-12H,19-20H2",
        "InChIKey": null,
        "Canonical SMILES": "O(C1=CC=CC(OC2=CC=CC(N)=C2)=C1)C3=CC=CC(N)=C3",
        "Molecular Formula": "C<sub>18</sub>H<sub>16</sub>N<sub>2</sub>O<sub>2</sub>",
        "Molecular Mass": "292.33",
        "Melting Point": "108 °C"
    }
}