{
    "cas_no": "78495-65-5",
    "key_name": "2-Fluoro-3,4-dimethoxybenzeneacetic acid",
    "cn_name": null,
    "alternate_name": "Benzeneacetic acid, 2-fluoro-3,4-dimethoxy-;2-Fluoro-3,4-dimethoxybenzeneacetic acid;2-Fluoro-3,4-dimethoxyphenylacetic acid;2-(2-Fluoro-3,4-dimethoxyphenyl)acetic acid;2-(2-Fluoro-3,4-dimethoxyphenyl)aceticacid",
    "duplicated_cas_no": "",
    "SMILES": "O(C)C1=C(OC)C=CC(CC(O)=O)=C1F",
    "meta_data": {
        "InChI": "InChI=1S/C10H11FO4/c1-14-7-4-3-6(5-8(12)13)9(11)10(7)15-2/h3-4H,5H2,1-2H3,(H,12,13)",
        "InChIKey": null,
        "Canonical SMILES": "O=C(O)CC1=CC=C(OC)C(OC)=C1F",
        "Molecular Formula": "C<sub>10</sub>H<sub>11</sub>FO<sub>4</sub>",
        "Molecular Mass": "214.19",
        "Melting Point": "100-101 °C"
    }
}