{
    "cas_no": "23359-08-2",
    "key_name": "3-(4-Formylphenyl)-2-propenoic acid",
    "cn_name": "4-甲酰肉桂酸;对甲酰基肉桂酸;",
    "alternate_name": "2-Propenoic acid, 3-(4-formylphenyl)-;Cinnamic acid, <em>p</em>-formyl-;3-(4-Formylphenyl)-2-propenoic acid;<em>p</em>-Formylcinnamic acid;4-Formylcinnamic acid;3-(4-Formylphenyl)acrylic acid;NSC 74480",
    "duplicated_cas_no": "",
    "SMILES": "C(=CC(O)=O)C1=CC=C(C=O)C=C1",
    "meta_data": {
        "InChI": "InChI=1S/C10H8O3/c11-7-9-3-1-8(2-4-9)5-6-10(12)13/h1-7H,(H,12,13)",
        "InChIKey": null,
        "Canonical SMILES": "O=CC1=CC=C(C=CC(=O)O)C=C1",
        "Molecular Formula": "C<sub>10</sub>H<sub>8</sub>O<sub>3</sub>",
        "Molecular Mass": "176.17",
        "Melting Point": "&gt;250 °C"
    }
}