{
    "cas_no": "52664-35-4",
    "key_name": "Phenol, 4-amino-, 1,1′,1′′-phosphorothioate",
    "cn_name": "4-氨基苯酚磷酸硫代硫酸酯;",
    "alternate_name": "Phenol, 4-amino-, 1,1′,1′′-phosphorothioate;Phenol, 4-amino-, phosphorothioate (3:1) (ester);Phosphorothioic acid, <em>O</em>,<em>O</em>,<em>O</em>-tris(<em>p</em>-aminophenyl) ester;Phenol, <em>p</em>-amino-, <em>O</em>,<em>O</em>,<em>O</em>-triester with phosphorothioic acid;Tris(4-aminophenyl) phosphorothioate;Tris(4-aminophenyl) thiophosphate",
    "duplicated_cas_no": "",
    "SMILES": "P(OC1=CC=C(N)C=C1)(OC2=CC=C(N)C=C2)(OC3=CC=C(N)C=C3)=S",
    "meta_data": {
        "InChI": "InChI=1S/C18H18N3O3PS/c19-13-1-7-16(8-2-13)22-25(26,23-17-9-3-14(20)4-10-17)24-18-11-5-15(21)6-12-18/h1-12H,19-21H2",
        "InChIKey": null,
        "Canonical SMILES": "S=P(OC1=CC=C(N)C=C1)(OC2=CC=C(N)C=C2)OC3=CC=C(N)C=C3",
        "Molecular Formula": "C<sub>18</sub>H<sub>18</sub>N<sub>3</sub>O<sub>3</sub>PS",
        "Molecular Mass": "387.39",
        "Melting Point": "156 °C"
    }
}