{
    "cas_no": "7789-00-6",
    "key_name": "Dipotassium chromate (K<sub>2</sub>CrO<sub>4</sub>)",
    "cn_name": "铬酸钾;",
    "alternate_name": "Chromic acid (H<sub>2</sub>CrO<sub>4</sub>), potassium salt (1:2);Chromic acid (H<sub>2</sub>CrO<sub>4</sub>), dipotassium salt;Neutral potassium chromate;Potassium chromate(VI);Potassium chromate (K<sub>2</sub>(CrO<sub>4</sub>));Bipotassium chromate;Dipotassium chromate (K<sub>2</sub>CrO<sub>4</sub>);Dipotassium chromate;Potassium chromate;Dipotassium monochromate;Dipotassium chromate(2-)",
    "duplicated_cas_no": "",
    "SMILES": "[Cr](O)(O)(=O)=O.[K]",
    "meta_data": {
        "InChI": "InChI=1S/Cr.2K.2H2O.2O/h;;;2*1H2;;/q+2;;;;;;/p-2",
        "InChIKey": null,
        "Canonical SMILES": "[K].O=[Cr](=O)(O)O",
        "Molecular Formula": "CrH<sub>2</sub>O<sub>4</sub>.2K",
        "Molecular Mass": "",
        "Melting Point": "975 °C",
        "Density": "2.73 g/cm³"
    }
}