{
    "cas_no": "10353-53-4",
    "key_name": "2-(3-Buten-1-yl)oxirane",
    "cn_name": "1,2-环氧基-5-己烯;",
    "alternate_name": "Oxirane, 2-(3-buten-1-yl)-;1-Hexene, 5,6-epoxy-;Oxirane, 3-butenyl-;2-(3-Buten-1-yl)oxirane;5,6-Epoxy-1-hexene;Diallyl monooxide;Diallyl monoxide;2-(3-Butenyl)oxirane;1,2-Epoxy-5-hexene;3-Butenyloxirane;ω-Butenyloxirane",
    "duplicated_cas_no": "133358-40-4",
    "SMILES": "C(CC=C)C1CO1",
    "meta_data": {
        "InChI": "InChI=1S/C6H10O/c1-2-3-4-6-5-7-6/h2,6H,1,3-5H2",
        "InChIKey": null,
        "Canonical SMILES": "O1CC1CCC=C",
        "Molecular Formula": "C<sub>6</sub>H<sub>10</sub>O",
        "Molecular Mass": "98.14",
        "Boiling Point": "119-121 °C"
    }
}