{
    "cas_no": "14712-23-3",
    "key_name": "4-[3-(4-Piperidinyl)propyl]-1-piperidineethanol",
    "cn_name": "1-[N-(2-羟乙基)-4-呱啶]-3-(4-呱啶)丙烷;",
    "alternate_name": "1-Piperidineethanol, 4-[3-(4-piperidinyl)propyl]-;1-Piperidineethanol, 4-[3-(4-piperidyl)propyl]-;4-[3-(4-Piperidinyl)propyl]-1-piperidineethanol;1-(<em>N</em>-2-Hydroxyethyl-4-piperidyl)-3-(4-piperidyl)propane;1-[<em>N</em>-(β-Hydroxyethyl)-4-piperidyl]-3-(4-piperidyl)propane;4-[3-(4-Piperidyl)propyl]-<em>N</em>-piperidinoethanol;2-[4-[3-(Piperidin-4-yl)propyl]piperidin-1-yl]ethanol;NSC 99744",
    "duplicated_cas_no": "",
    "SMILES": "C(CCC1CCNCC1)C2CCN(CCO)CC2",
    "meta_data": {
        "InChI": "InChI=1S/C15H30N2O/c18-13-12-17-10-6-15(7-11-17)3-1-2-14-4-8-16-9-5-14/h14-16,18H,1-13H2",
        "InChIKey": null,
        "Canonical SMILES": "OCCN1CCC(CC1)CCCC2CCNCC2",
        "Molecular Formula": "C<sub>15</sub>H<sub>30</sub>N<sub>2</sub>O",
        "Molecular Mass": "254.41",
        "Boiling Point": "250 °C @ Press: 15 Torr",
        "Melting Point": "72 °C"
    }
}