{
    "cas_no": "877-03-2",
    "key_name": "5-Bromoindole-3-carboxaldehyde",
    "cn_name": "5-溴吲哚-3-甲醛;5-溴-1H-吲哚-3-甲醛;",
    "alternate_name": "1<em>H</em>-Indole-3-carboxaldehyde, 5-bromo-;Indole-3-carboxaldehyde, 5-bromo-;5-Bromo-1<em>H</em>-indole-3-carboxaldehyde;5-Bromoindole-3-carboxaldehyde;5-Bromo-3-formylindole;5-Bromoindole-3-carbaldehyde;NSC 66831",
    "duplicated_cas_no": "",
    "SMILES": "C(=O)C=1C=2C(NC1)=CC=C(Br)C2",
    "meta_data": {
        "InChI": "InChI=1S/C9H6BrNO/c10-7-1-2-9-8(3-7)6(5-12)4-11-9/h1-5,11H",
        "InChIKey": null,
        "Canonical SMILES": "O=CC1=CNC=2C=CC(Br)=CC12",
        "Molecular Formula": "C<sub>9</sub>H<sub>6</sub>BrNO",
        "Molecular Mass": "224.05",
        "Melting Point": "205 °C"
    }
}