{
    "cas_no": "3577-63-7",
    "key_name": "5-Sulfoanthranilic acid",
    "cn_name": "2-氨基-5-磺基苯甲酸;",
    "alternate_name": "Benzoic acid, 2-amino-5-sulfo-;Anthranilic acid, 5-sulfo-;2-Amino-5-sulfobenzoic acid;4-Sulfo-2-carboxyaniline;4-Amino-3-carboxybenzenesulfonic acid;5-Sulfoanthranilic acid;2-Carboxy-4-sulfoaniline;2-Amino-1-carboxybenzene-5-sulfonic acid",
    "duplicated_cas_no": "",
    "SMILES": "C(O)(=O)C1=CC(S(=O)(=O)O)=CC=C1N",
    "meta_data": {
        "InChI": "InChI=1S/C7H7NO5S/c8-6-2-1-4(14(11,12)13)3-5(6)7(9)10/h1-3H,8H2,(H,9,10)(H,11,12,13)",
        "InChIKey": null,
        "Canonical SMILES": "O=C(O)C1=CC(=CC=C1N)S(=O)(=O)O",
        "Molecular Formula": "C<sub>7</sub>H<sub>7</sub>NO<sub>5</sub>S",
        "Molecular Mass": "217.20",
        "Melting Point": "319 °C"
    }
}