{
    "cas_no": "521-31-3",
    "key_name": "Luminol",
    "cn_name": "鲁米诺;3-氨基苯二甲酰肼;发光氨;",
    "alternate_name": "1,4-Phthalazinedione, 5-amino-2,3-dihydro-;5-Amino-2,3-dihydro-1,4-phthalazinedione;3-Aminophthalhydrazide;3-Aminophthalic acid hydrazide;3-Aminophthalic hydrazide;Luminol;5-Amino-1,4-dihydroxyphthalazine;NSC 5064;Diogenes reagent;MeSH ID: D008165",
    "duplicated_cas_no": "",
    "SMILES": "O=C1C=2C(C(=O)NN1)=C(N)C=CC2",
    "meta_data": {
        "InChI": "InChI=1S/C8H7N3O2/c9-5-3-1-2-4-6(5)8(13)11-10-7(4)12/h1-3H,9H2,(H,10,12)(H,11,13)",
        "InChIKey": null,
        "Canonical SMILES": "O=C1NNC(=O)C=2C(N)=CC=CC12",
        "Molecular Formula": "C<sub>8</sub>H<sub>7</sub>N<sub>3</sub>O<sub>2</sub>",
        "Molecular Mass": "177.16",
        "Melting Point": "330.5 °C",
        "Density": "1.61 g/cm³"
    }
}