{
    "cas_no": "24085-06-1",
    "key_name": "1-[4-(Acetyloxy)-3-[(acetyloxy)methyl]phenyl]ethanone",
    "cn_name": null,
    "alternate_name": "Ethanone, 1-[4-(acetyloxy)-3-[(acetyloxy)methyl]phenyl]-;Acetophenone, 4′-hydroxy-3′-(hydroxymethyl)-, diacetate;1-[4-(Acetyloxy)-3-[(acetyloxy)methyl]phenyl]ethanone;4-Acetoxy-3-((acetoxy)methyl)acetophenone;2-Acetoxy-5-acetylbenzyl acetate;[5-Acetyl-2-(acetyloxy)phenyl]methyl acetate",
    "duplicated_cas_no": "",
    "SMILES": "C(OC(C)=O)C1=C(OC(C)=O)C=CC(C(C)=O)=C1",
    "meta_data": {
        "InChI": "InChI=1S/C13H14O5/c1-8(14)11-4-5-13(18-10(3)16)12(6-11)7-17-9(2)15/h4-6H,7H2,1-3H3",
        "InChIKey": null,
        "Canonical SMILES": "O=C(OC1=CC=C(C=C1COC(=O)C)C(=O)C)C",
        "Molecular Formula": "C<sub>13</sub>H<sub>14</sub>O<sub>5</sub>",
        "Molecular Mass": "250.25",
        "Boiling Point": "150-160 °C @ Press: 0.3 Torr"
    }
}