{
    "cas_no": "6317-56-2",
    "key_name": "4-(Phenylthio)benzenemethanol",
    "cn_name": null,
    "alternate_name": "Benzenemethanol, 4-(phenylthio)-;4-(Phenylthio)benzenemethanol;NSC 43060;4-(Phenylthio)benzyl alcohol;[4-(Phenylsulfanyl)phenyl]methanol",
    "duplicated_cas_no": "",
    "SMILES": "S(C1=CC=C(CO)C=C1)C2=CC=CC=C2",
    "meta_data": {
        "InChI": "InChI=1S/C13H12OS/c14-10-11-6-8-13(9-7-11)15-12-4-2-1-3-5-12/h1-9,14H,10H2",
        "InChIKey": null,
        "Canonical SMILES": "OCC1=CC=C(SC=2C=CC=CC2)C=C1",
        "Molecular Formula": "C<sub>13</sub>H<sub>12</sub>OS",
        "Molecular Mass": "216.30",
        "Melting Point": "49-51 °C"
    }
}