{
    "cas_no": "7439-92-1",
    "key_name": "Lead",
    "cn_name": null,
    "alternate_name": "Lead;C.I. Pigment Metal 4;Lead Flake;Lead S 2;Pb-S 100;Lead element;SSO 1;C.I. 77575;PS 2 (metal);PS 2;SRM 981;Lead poisoning;MeSH ID: D007854;DK-Pb 01",
    "duplicated_cas_no": "724427-66-1",
    "SMILES": "[Pb]",
    "meta_data": {
        "InChI": "InChI=1S/Pb",
        "InChIKey": null,
        "Canonical SMILES": "[Pb]",
        "Molecular Formula": "Pb",
        "Molecular Mass": "",
        "Boiling Point": "1740 °C",
        "Melting Point": "327.4 °C",
        "Density": "11.34 g/cm³ @ Temp: 20 °C"
    }
}