{
    "cas_no": "9004-64-2",
    "key_name": "Hydroxypropyl cellulose",
    "cn_name": null,
    "alternate_name": "Cellulose, 2-hydroxypropyl ether;Hydroxypropyl cellulose;Hydroxypropyl ether of cellulose;Cellulose hydroxypropyl ether;Oxypropylated cellulose;Klucel;Hydroxypropyl cellulose ether;Klucel E;Klucel G;PM 50 (polymer);2-Hydroxypropyl cellulose;PM 50;Klucel H;Klucel GF;HPC-SL;Klucel MF;Klucel M;Klucel JF;Klucel J;Klucel LF;Klucel L;HPC-M;Klucel HF;Klucel EF;Hyprolose;HPC-L;LHPC 21;HPC-H;Nisso HPC;HPC;HPC-LR;<em>O</em>-(Hydroxypropyl)cellulose;Nisso HPC-SL;Nisso HPC-L;HPC-LG;<em>O</em>-(2-Hydroxypropyl)cellulose;Klucel HXF;Aqualon Klucel L;HPC-E;HPC-E (cellulose derivative);LH 31;HPC-MG;HPC-MF;JK 491;HPC-LE-G;HPC-S (cellulose derivative);HPC-EF-G;L-HPC;L-HPC-LH 31;L-HPC-LH 21;L-HPC-LH 41;L-HPC LH 11;G 4000HXL;L-HPC-LH 22;R 1000;R 1000 (cellulose derivative);HPC-S;HPC-SSL;LH 11;Klucel EXF;Lacrisert;LH 21;LH 32;LH 33;L-HPCLH 10;LH 20;LH 22;Nisso M;Nisso H;K 8913;K 9113;L-HPC 11;LHPC 20;E 463;LH-B 1;L-HPC 32W;AeroWhip 630;LH 20 (cellulose derivative);Klucel Nutra D;Celny L;Nisso HPC-SSL;Celny HPC-L;Celny HPC-SSL;Celny HPC-M;AeroWhip;AeroWhip 640;Celny H;L-HPC-LH-B 1;Nisso HPC-M;Nisso HPC-H;HPC-L 100M;Celny M;Celny SL;H 0386;H 0473;H 0474;H 0475;HPC-HF;L-HPC-NBD 022;Klucel ELF;Klucel M-CS;Lodicel LDC-H;Klucel HIND;NBD 020;NBD 22;NBD 021;Celny SSL;Celny SSL-SFP;HPC-SFP;HPC-SSL-SFP;HPC-L-FP;Klucel LF RM 822;NBD 022;Klucel HF Pharm;Klucel E 3042;WPQP 52000H;L-HPC NBD 020;Klucel MXF;HPC-EF;HPC-LL;ReCell HP 10;Klucel E IND;Performax 1426;SJ 00135741395;HPC-LM",
    "duplicated_cas_no": "9076-24-8;65742-73-6;78214-41-2;150873-09-9;173523-78-9;192006-47-6;193561-69-2;210920-15-3;686343-47-5;927888-04-8;936102-79-3;1374408-53-3;1431958-25-6;1610923-54-0;2169285-63-4;2705872-65-5",
    "SMILES": "",
    "meta_data": {
        "InChI": "",
        "InChIKey": null,
        "Canonical SMILES": "",
        "Molecular Formula": "C<sub>3</sub>H<sub>8</sub>O<sub>2</sub>.xUnspecified",
        "Molecular Mass": "",
        "Melting Point": "371.06 °C",
        "Density": "0.50 g/cm³"
    }
}