{
    "cas_no": "1192-21-8",
    "key_name": "1-Methyl-1<em>H</em>-pyrazol-5-amine",
    "cn_name": "1-甲基-5-氨基吡唑;5-氨基-1-甲基吡唑;",
    "alternate_name": "1<em>H</em>-Pyrazol-5-amine, 1-methyl-;Pyrazole, 5-amino-1-methyl-;1-Methyl-1<em>H</em>-pyrazol-5-amine;5-Amino-1-methylpyrazole;1-Methyl-5-aminopyrazole;2-Methyl-2<em>H</em>-pyrazol-3-ylamine;3-Amino-2-methyl-2<em>H</em>-pyrazole;NSC 76510;(1-Methyl-1<em>H</em>-pyrazol-5-yl)amine;5-Amino-1-methyl-1<em>H</em>-pyrazole;2-Methylpyrazol-3-amine;3-Amino-2-methylpyrazole",
    "duplicated_cas_no": "",
    "SMILES": "NC=1N(C)N=CC1",
    "meta_data": {
        "InChI": "InChI=1S/C4H7N3/c1-7-4(5)2-3-6-7/h2-3H,5H2,1H3",
        "InChIKey": null,
        "Canonical SMILES": "N1=CC=C(N)N1C",
        "Molecular Formula": "C<sub>4</sub>H<sub>7</sub>N<sub>3</sub>",
        "Molecular Mass": "97.12",
        "Boiling Point": "127 °C @ Press: 12 Torr",
        "Melting Point": "71-72 °C"
    }
}