{
    "cas_no": "106778-43-2",
    "key_name": "6-Isoquinolinecarboxylic acid",
    "cn_name": "异喹啉-6-甲酸; 6-异喹啉甲酸;",
    "alternate_name": "6-Isoquinolinecarboxylic acid",
    "duplicated_cas_no": "",
    "SMILES": "C(O)(=O)C1=CC2=C(C=C1)C=NC=C2",
    "meta_data": {
        "InChI": "InChI=1S/C10H7NO2/c12-10(13)8-1-2-9-6-11-4-3-7(9)5-8/h1-6H,(H,12,13)",
        "InChIKey": null,
        "Canonical SMILES": "O=C(O)C=1C=CC=2C=NC=CC2C1",
        "Molecular Formula": "C<sub>10</sub>H<sub>7</sub>NO<sub>2</sub>",
        "Molecular Mass": "173.17",
        "Melting Point": "355-360 °C"
    }
}