{
    "cas_no": "220991-20-8",
    "key_name": "Lumiracoxib",
    "cn_name": null,
    "alternate_name": "Benzeneacetic acid, 2-[(2-chloro-6-fluorophenyl)amino]-5-methyl-;2-[(2-Chloro-6-fluorophenyl)amino]-5-methylbenzeneacetic acid;COX 189;Lumiracoxib;Prexige;CGS 35189;2-[2-(2-Chloro-6-fluorophenylamino)-5-methylphenyl]acetic acid;[2-[(2-Chloro-6-fluorophenyl)amino]-5-methylphenyl]acetic acid",
    "duplicated_cas_no": "346670-74-4;697287-18-6",
    "SMILES": "N(C1=C(CC(O)=O)C=C(C)C=C1)C2=C(Cl)C=CC=C2F",
    "meta_data": {
        "InChI": "InChI=1S/C15H13ClFNO2/c1-9-5-6-13(10(7-9)8-14(19)20)18-15-11(16)3-2-4-12(15)17/h2-7,18H,8H2,1H3,(H,19,20)",
        "InChIKey": null,
        "Canonical SMILES": "O=C(O)CC1=CC(=CC=C1NC=2C(F)=CC=CC2Cl)C",
        "Molecular Formula": "C<sub>15</sub>H<sub>13</sub>ClFNO<sub>2</sub>",
        "Molecular Mass": "293.72",
        "Melting Point": "152-154 °C"
    }
}