{
    "cas_no": "2051-60-7",
    "key_name": "2-Chlorobiphenyl",
    "cn_name": "2-氯联苯;",
    "alternate_name": "1,1′-Biphenyl, 2-chloro-;Biphenyl, 2-chloro-;2-Chloro-1,1′-biphenyl;2-Chlorobiphenyl;2-Monochlorobiphenyl;<em>o</em>-Chlorobiphenyl;2-Chlorodiphenyl;1-Chloro-2-phenylbenzene;PCB 1;NSC 67354",
    "duplicated_cas_no": "",
    "SMILES": "ClC1=C(C2=CC=CC=C2)C=CC=C1",
    "meta_data": {
        "InChI": "InChI=1S/C12H9Cl/c13-12-9-5-4-8-11(12)10-6-2-1-3-7-10/h1-9H",
        "InChIKey": null,
        "Canonical SMILES": "ClC=1C=CC=CC1C=2C=CC=CC2",
        "Molecular Formula": "C<sub>12</sub>H<sub>9</sub>Cl",
        "Molecular Mass": "188.65",
        "Boiling Point": "274 °C",
        "Melting Point": "34 °C",
        "Density": "1.1499 g/cm³ @ Temp: 32.5 °C"
    }
}