{
    "cas_no": "17695-48-6",
    "key_name": "4-Methylumbelliferyl palmitate",
    "cn_name": "4-甲基伞形基棕榈酸酯;",
    "alternate_name": "Hexadecanoic acid, 4-methyl-2-oxo-2<em>H</em>-1-benzopyran-7-yl ester;Palmitic acid, ester with 7-hydroxy-4-methylcoumarin;Coumarin, 7-hydroxy-4-methyl-, palmitate;Palmitoyl 4-methylumbelliferone;4-Methylumbelliferyl palmitate;4-Methylumbelliferone palmitate",
    "duplicated_cas_no": "",
    "SMILES": "CC=1C=2C(=CC(OC(CCCCCCCCCCCCCCC)=O)=CC2)OC(=O)C1",
    "meta_data": {
        "InChI": "InChI=1S/C26H38O4/c1-3-4-5-6-7-8-9-10-11-12-13-14-15-16-25(27)29-22-17-18-23-21(2)19-26(28)30-24(23)20-22/h17-20H,3-16H2,1-2H3",
        "InChIKey": null,
        "Canonical SMILES": "O=C1OC=2C=C(OC(=O)CCCCCCCCCCCCCCC)C=CC2C(=C1)C",
        "Molecular Formula": "C<sub>26</sub>H<sub>38</sub>O<sub>4</sub>",
        "Molecular Mass": "414.58",
        "Melting Point": "63 °C"
    }
}