{
    "cas_no": "64169-67-1",
    "key_name": "1-(4-Fluorophenyl)-1,3-dihydro-5-isobenzofurancarbonitrile",
    "cn_name": "5-氰基-1-(4-氟苯基)-1,3-二氢化-异苯并呋喃;",
    "alternate_name": "5-Isobenzofurancarbonitrile, 1-(4-fluorophenyl)-1,3-dihydro-;1-(4-Fluorophenyl)-1,3-dihydro-5-isobenzofurancarbonitrile;1-(4-Fluorophenyl)-1,3-dihydroisobenzofuran-5-carbonitrile;LU 17-046;5-Cyano-1-(4-Fluorophenyl)-1,3-dihydroisobenzofuran;1-(4-Fluorophenyl)-5-cyanophthalan;1-(4-Fluorophenyl)-1,3-dihydro-2-benzofuran-5-carbonitrile",
    "duplicated_cas_no": "",
    "SMILES": "C(#N)C=1C=C2C(C(OC2)C3=CC=C(F)C=C3)=CC1",
    "meta_data": {
        "InChI": "InChI=1S/C15H10FNO/c16-13-4-2-11(3-5-13)15-14-6-1-10(8-17)7-12(14)9-18-15/h1-7,15H,9H2",
        "InChIKey": null,
        "Canonical SMILES": "N#CC1=CC=C2C(=C1)COC2C3=CC=C(F)C=C3",
        "Molecular Formula": "C<sub>15</sub>H<sub>10</sub>FNO",
        "Molecular Mass": "239.24",
        "Melting Point": "95-97 °C"
    }
}