{
    "cas_no": "112-23-2",
    "key_name": "Heptyl formate",
    "cn_name": "甲酸庚酯;",
    "alternate_name": "Formic acid, heptyl ester;Heptyl alcohol formate;Heptyl formate;<em>n</em>-Heptyl formate;1-Heptyl formate",
    "duplicated_cas_no": "",
    "SMILES": "C(CCOC=O)CCCC",
    "meta_data": {
        "InChI": "InChI=1S/C8H16O2/c1-2-3-4-5-6-7-10-8-9/h8H,2-7H2,1H3",
        "InChIKey": null,
        "Canonical SMILES": "O=COCCCCCCC",
        "Molecular Formula": "C<sub>8</sub>H<sub>16</sub>O<sub>2</sub>",
        "Molecular Mass": "144.21",
        "Boiling Point": "178.1 °C"
    }
}