{
    "cas_no": "614-19-7",
    "key_name": "<span class=\"text-smallcaps\">D</smallcap><smallcap>L</span>-β-Phenylalanine",
    "cn_name": "3-氨基-3-苯基丙酸;",
    "alternate_name": "Benzenepropanoic acid, β-amino-;Hydrocinnamic acid, β-amino-;β-Aminobenzenepropanoic acid;β-Alanine, 3-phenyl-;β-Phenyl-β-alanine;Phenyl-β-alanine;3-Phenyl-β-alanine;3-Amino-3-phenylpropanoic acid;<span class=\"text-smallcaps\">DL</span>-β-Phenyl-β-alanine;(±)-β-Phenyl-β-alanine;<span class=\"text-smallcaps\">DL</span>-3-Amino-3-phenylpropionic acid;(±)-3-Amino-3-phenylpropionic acid;(±)-3-Amino-3-phenylpropanoic acid;NSC 122793;NSC 132827;NSC 1979;NSC 32026;<em>dl</em>-3-Amino-3-phenylpropionic acid;<span class=\"text-smallcaps\">D</smallcap><smallcap>L</span>-β-Phenylalanine;<span class=\"text-smallcaps\">DL</span>-β-Phenylalanine;3-Amino-3-phenylpropionic acid",
    "duplicated_cas_no": "3646-50-2",
    "SMILES": "C(CC(O)=O)(N)C1=CC=CC=C1",
    "meta_data": {
        "InChI": "InChI=1S/C9H11NO2/c10-8(6-9(11)12)7-4-2-1-3-5-7/h1-5,8H,6,10H2,(H,11,12)",
        "InChIKey": null,
        "Canonical SMILES": "O=C(O)CC(N)C=1C=CC=CC1",
        "Molecular Formula": "C<sub>9</sub>H<sub>11</sub>NO<sub>2</sub>",
        "Molecular Mass": "165.19",
        "Melting Point": "222 °C (decomp)"
    }
}