{
    "cas_no": "1202-39-7",
    "key_name": "3,4-Dichlorocinnamic acid",
    "cn_name": "3,4-二氯肉桂酸;",
    "alternate_name": "2-Propenoic acid, 3-(3,4-dichlorophenyl)-;Cinnamic acid, 3,4-dichloro-;3-(3,4-Dichlorophenyl)-2-propenoic acid;3,4-Dichlorocinnamic acid;NSC 518800;3-(3,4-Dichlorophenyl)acrylic acid",
    "duplicated_cas_no": "",
    "SMILES": "C(=CC(O)=O)C1=CC(Cl)=C(Cl)C=C1",
    "meta_data": {
        "InChI": "InChI=1S/C9H6Cl2O2/c10-7-3-1-6(5-8(7)11)2-4-9(12)13/h1-5H,(H,12,13)",
        "InChIKey": null,
        "Canonical SMILES": "O=C(O)C=CC1=CC=C(Cl)C(Cl)=C1",
        "Molecular Formula": "C<sub>9</sub>H<sub>6</sub>Cl<sub>2</sub>O<sub>2</sub>",
        "Molecular Mass": "217.05",
        "Melting Point": "217.2-218.2 °C"
    }
}