{
    "cas_no": "402-67-5",
    "key_name": "1-Fluoro-3-nitrobenzene",
    "cn_name": "间氟硝基苯;3-氟硝基苯;",
    "alternate_name": "Benzene, 1-fluoro-3-nitro-;1-Fluoro-3-nitrobenzene;<em>m</em>-Fluoronitrobenzene;3-Fluoronitrobenzene;<em>m</em>-Nitrofluorobenzene;3-Nitrofluorobenzene;3-Fluoro-1-nitrobenzene;<em>m</em>-Nitrobenzofluoride;NSC 60651;1-Nitro-3-fluorobenzene",
    "duplicated_cas_no": "",
    "SMILES": "N(=O)(=O)C1=CC(F)=CC=C1",
    "meta_data": {
        "InChI": "InChI=1S/C6H4FNO2/c7-5-2-1-3-6(4-5)8(9)10/h1-4H",
        "InChIKey": null,
        "Canonical SMILES": "O=N(=O)C=1C=CC=C(F)C1",
        "Molecular Formula": "C<sub>6</sub>H<sub>4</sub>FNO<sub>2</sub>",
        "Molecular Mass": "141.10",
        "Boiling Point": "199 °C",
        "Melting Point": "3.6 °C",
        "Density": "1.3272 g/cm³ @ Temp: 17.2 °C"
    }
}