{
    "cas_no": "479-61-8",
    "key_name": "Chlorophyll a",
    "cn_name": null,
    "alternate_name": "Magnesium, [(2<em>E</em>,7<em>R</em>,11<em>R</em>)-3,7,11,15-tetramethyl-2-hexadecenyl (3<em>S</em>,4<em>S</em>,21<em>R</em>)-9-ethenyl-14-ethyl-21-(methoxycarbonyl)-4,8,13,18-tetramethyl-20-oxo-3-phorbinepropanoato(2-)-κ<em>N</em><sup>23</sup>,κ<em>N</em><sup>24</sup>,κ<em>N</em><sup>25</sup>,κ<em>N</em><sup>26</sup>]-, (<em>SP</em>-4-2)-;Magnesium, [dihydrogen 21-carboxy-14-ethyl-4,8,13,18-tetramethyl-20-oxo-9-vinyl-3-phorbinepropionato(2-)]-, 21-methyl 3-phytyl ester, (<em>E</em>)-;Magnesium, [3,7,11,15-tetramethyl-2-hexadecenyl 9-ethenyl-14-ethyl-21-(methoxycarbonyl)-4,8,13,18-tetramethyl-20-oxo-3-phorbinepropanoato(2-)-κ<em>N</em><sup>23</sup>,κ<em>N</em><sup>24</sup>,κ<em>N</em><sup>25</sup>,κ<em>N</em><sup>26</sup>]-, [<em>SP</em>-4-2-[3<em>S</em>-[3α(2<em>E</em>,7<em>S</em>*,11<em>S</em>*),4β,21β]]]-;3-Phorbinepropanoic acid, 9-ethenyl-14-ethyl-21-(methoxycarbonyl)-4,8,13,18-tetramethyl-20-oxo-, 3,7,11,15-tetramethyl-2-hexadecenyl ester, magnesium complex, [3<em>S</em>-[3α(2<em>E</em>,7<em>S</em>*,11<em>S</em>*),4β,21β]]-;Phorbine, magnesium deriv.;(<em>SP</em>-4-2)-[(2<em>E</em>,7<em>R</em>,11<em>R</em>)-3,7,11,15-Tetramethyl-2-hexadecenyl (3<em>S</em>,4<em>S</em>,21<em>R</em>)-9-ethenyl-14-ethyl-21-(methoxycarbonyl)-4,8,13,18-tetramethyl-20-oxo-3-phorbinepropanoato(2-)-κ<em>N</em><sup>23</sup>,κ<em>N</em><sup>24</sup>,κ<em>N</em><sup>25</sup>,κ<em>N</em><sup>26</sup>]magnesium;Chlorophyll a;α-Chlorophyll;Magnesium, [3,7,11,15-tetramethyl-2-hexadecenyl 9-ethenyl-14-ethyl-21-(methoxycarbonyl)-4,8,13,18-tetramethyl-20-oxo-3-phorbinepropanoato(2-)-<em>N</em><sup>23</sup>,<em>N</em><sup>24</sup>,<em>N</em><sup>25</sup>,<em>N</em><sup>26</sup>]-, [<em>SP</em>-4-2-[3<em>S</em>-[3α(2<em>E</em>,7<em>S</em>*,11<em>S</em>*),4β,21β]]]-;Magnesium pheophytin;Chlorophyll-1;Vegetable chlorophyll;C 3000WS",
    "duplicated_cas_no": "1407-41-6;10579-94-9;11012-21-8;22088-09-1;23389-17-5",
    "SMILES": "CC1=C2[N-]3[Mg+2]45[N]=6C(=C7C3=C1C(=O)[C@@H]7C(OC)=O)[C@@H](CCC(OC/C=C(/CCC[C@@H](CCC[C@@H](CCCC(C)C)C)C)\\C)=O)[C@H](C)C6C=C8[N-]4C(=CC9=[N]5C(=C2)C(CC)=C9C)C(C=C)=C8C",
    "meta_data": {
        "InChI": "InChI=1S/C55H73N4O5.Mg/c1-13-39-35(8)42-28-44-37(10)41(24-25-48(60)64-27-26-34(7)23-17-22-33(6)21-16-20-32(5)19-15-18-31(3)4)52(58-44)50-51(55(62)63-12)54(61)49-38(11)45(59-53(49)50)30-47-40(14-2)36(9)43(57-47)29-46(39)56-42;/h13,26,28-33,37,41,51H,1,14-25,27H2,2-12H3,(H-,56,57,58,59,61);/q-1;+2/p-1/b34-26+;/t32-,33-,37+,41+,51-;/m1./s1",
        "InChIKey": null,
        "Canonical SMILES": "O=C(OCC=C(C)CCCC(C)CCCC(C)CCCC(C)C)CCC1C2=C3C4=C(C(=O)C3C(=O)OC)C(=C5C=C6C(=C(C=7C=C8C(C=C)=C(C9=CC(=[N]2[Mg+2]([N]76)([N-]89)[N-]54)C1C)C)C)CC)C",
        "Molecular Formula": "C<sub>55</sub>H<sub>72</sub>MgN<sub>4</sub>O<sub>5</sub>",
        "Molecular Mass": "",
        "Melting Point": "66-67 °C"
    }
}