{
    "cas_no": "563-96-2",
    "key_name": "Glyoxylic acid monohydrate",
    "cn_name": "乙醛酸—水合物;一水合乙醛酸;二羟基乙酸;",
    "alternate_name": "Acetic acid, 2,2-dihydroxy-;Acetic acid, dihydroxy-;2,2-Dihydroxyacetic acid;Acetic acid, oxo-, monohydrate;Glyoxylic acid hydrate;Glyoxylic acid monohydrate;Dihydroxyacetic acid;Glyoxalic acid monohydrate;2-(Oxo)acetic acid monohydrate",
    "duplicated_cas_no": "54850-05-4;75673-13-1;92397-81-4;304897-20-9;744220-95-9;144165-23-1",
    "SMILES": "C(C(O)=O)(O)O",
    "meta_data": {
        "InChI": "InChI=1S/C2H4O4/c3-1(4)2(5)6/h1,3-4H,(H,5,6)",
        "InChIKey": null,
        "Canonical SMILES": "O=C(O)C(O)O",
        "Molecular Formula": "C<sub>2</sub>H<sub>4</sub>O<sub>4</sub>",
        "Molecular Mass": "92.05",
        "Boiling Point": "129-130 °C",
        "Melting Point": "98 °C",
        "Density": "1.70 g/cm³"
    }
}