{
    "cas_no": "513-86-0",
    "key_name": "Acetoin",
    "cn_name": "3-羟基-2-丁酮;甲基乙酰甲醇;乙偶姻;",
    "alternate_name": "2-Butanone, 3-hydroxy-;3-Hydroxy-2-butanone;Acetoin;2,3-Butanolone;Dimethylketol;γ-Hydroxy-β-oxobutane;Methanol, acetylmethyl-;Acetyl methyl carbinol;2-Hydroxy-3-butanone;1-Hydroxyethyl methyl ketone;3-Hydroxybutanone;3-Oxo-2-butanol;(±)-3-Hydroxybutan-2-one;(±)-Acetoin;<span class=\"text-smallcaps\">D</smallcap><smallcap>L</span>-Acetoin;NSC 7609;3-Hydroxyl-2-butanone;Acetoine;MeSH ID: D000093",
    "duplicated_cas_no": "52217-02-4",
    "SMILES": "C(C(C)=O)(C)O",
    "meta_data": {
        "InChI": "InChI=1S/C4H8O2/c1-3(5)4(2)6/h3,5H,1-2H3",
        "InChIKey": null,
        "Canonical SMILES": "O=C(C)C(O)C",
        "Molecular Formula": "C<sub>4</sub>H<sub>8</sub>O<sub>2</sub>",
        "Molecular Mass": "88.11",
        "Boiling Point": "148 °C @ Press: 760 Torr",
        "Melting Point": "15 °C",
        "Density": "0.9972 g/cm³ @ Temp: 17 °C"
    }
}