{
    "cas_no": "80-97-7",
    "key_name": "Cholestanol",
    "cn_name": "胆甾烷醇;",
    "alternate_name": "Cholestan-3-ol, (3β,5α)-;5α-Cholestan-3β-ol;(3β,5α)-Cholestan-3-ol;β-Cholestanol;Dihydrocholesterol;3β-Hydroxycholestane;Zymostanol;5α-Dihydrocholesterol;Dihydrocholesterin;5α-Cholestanol;Cholestan-3β-ol;Cholestanol;3β-Hydroxy-5α-cholestane;NSC 18188;Lathostanol;Dihydrolathosterol;5α(<em>H</em>)-Cholestan-3β-ol;(+)-Dihydrocholesterol;MeSH ID: D004083",
    "duplicated_cas_no": "118167-50-3;471920-77-1;2089495-76-9;2962807-81-2",
    "SMILES": "C[C@@]12[C@]([C@]3([C@@]([C@]4(C)[C@@](CC3)(C[C@@H](O)CC4)[H])(CC1)[H])[H])(CC[C@@]2([C@@H](CCCC(C)C)C)[H])[H]",
    "meta_data": {
        "InChI": "InChI=1S/C27H48O/c1-18(2)7-6-8-19(3)23-11-12-24-22-10-9-20-17-21(28)13-15-26(20,4)25(22)14-16-27(23,24)5/h18-25,28H,6-17H2,1-5H3/t19-,20+,21+,22+,23-,24+,25+,26+,27-/m1/s1",
        "InChIKey": null,
        "Canonical SMILES": "OC1CCC2(C)C(CCC3C4CCC(C(C)CCCC(C)C)C4(C)CCC32)C1",
        "Molecular Formula": "C<sub>27</sub>H<sub>48</sub>O",
        "Molecular Mass": "388.67",
        "Melting Point": "141.5 °C"
    }
}