{
    "cas_no": "85-79-0",
    "key_name": "Dibucaine",
    "cn_name": "辛可卡因;地布卡因;2-丁氧基-N-(2-二乙基氨基乙基)喹啉-4-甲酰胺;",
    "alternate_name": "4-Quinolinecarboxamide, 2-butoxy-<em>N</em>-[2-(diethylamino)ethyl]-;Cinchoninamide, 2-butoxy-<em>N</em>-[2-(diethylamino)ethyl]-;2-Butoxy-<em>N</em>-[2-(diethylamino)ethyl]-4-quinolinecarboxamide;2-Butoxy-<em>N</em>-[2-(diethylamino)ethyl]cinchoninamide;Dibucaine;Dibucaine base;Nupercainal;Nupercaine;<em>N</em>-[2-(Diethylamino)ethyl]-2-butoxycinchoninamide;Cinchocaine;Dermacaine;Percamine;NSC 159055;2-Butoxy-<em>N</em>-[2-(diethylamino)ethyl]quinoline-4-carboxamide;MeSH ID: D003992",
    "duplicated_cas_no": "8023-28-7;8055-06-9",
    "SMILES": "C(NCCN(CC)CC)(=O)C=1C2=C(N=C(OCCCC)C1)C=CC=C2",
    "meta_data": {
        "InChI": "InChI=1S/C20H29N3O2/c1-4-7-14-25-19-15-17(16-10-8-9-11-18(16)22-19)20(24)21-12-13-23(5-2)6-3/h8-11,15H,4-7,12-14H2,1-3H3,(H,21,24)",
        "InChIKey": null,
        "Canonical SMILES": "O=C(NCCN(CC)CC)C=1C=C(N=C2C=CC=CC21)OCCCC",
        "Molecular Formula": "C<sub>20</sub>H<sub>29</sub>N<sub>3</sub>O<sub>2</sub>",
        "Molecular Mass": "343.46",
        "Melting Point": "64 °C"
    }
}