{
    "cas_no": "20443-99-6",
    "key_name": "2,4-Dichlorobenzyl bromide",
    "cn_name": "2,4-二氯溴苄;",
    "alternate_name": "Benzene, 1-(bromomethyl)-2,4-dichloro-;Toluene, α-bromo-2,4-dichloro-;1-(Bromomethyl)-2,4-dichlorobenzene;2,4-Dichlorobenzyl bromide",
    "duplicated_cas_no": "",
    "SMILES": "C(Br)C1=C(Cl)C=C(Cl)C=C1",
    "meta_data": {
        "InChI": "InChI=1S/C7H5BrCl2/c8-4-5-1-2-6(9)3-7(5)10/h1-3H,4H2",
        "InChIKey": null,
        "Canonical SMILES": "ClC1=CC=C(C(Cl)=C1)CBr",
        "Molecular Formula": "C<sub>7</sub>H<sub>5</sub>BrCl<sub>2</sub>",
        "Molecular Mass": "239.92",
        "Boiling Point": "126-133 °C @ Press: 8 Torr"
    }
}