{
    "cas_no": "5117-12-4",
    "key_name": "Acryloylmorpholine",
    "cn_name": "N-丙烯酰吗啉;",
    "alternate_name": "2-Propen-1-one, 1-(4-morpholinyl)-;Morpholine, 4-acryloyl-;Morpholine, 4-(1-oxo-2-propenyl)-;1-(4-Morpholinyl)-2-propen-1-one;<em>N</em>-Acryloylmorpholine;Acryloylmorpholine;ACMO;4-Acryloylmorpholine;NK Ester A-MO;MA 1 (amide);MA 1;Kayarad RM 1001;1-(Morpholin-4-yl)propenone;NSC 162221;A-MO;Photomer 9301;Omnimer ACMO;4-(1-Oxo-2-propenyl)morpholine;1-Morpholinoprop-2-en-1-one;LuCure 248;RBL-ACMO;JRMer 5102;ACMO-LI;Kohshylmer ACMO",
    "duplicated_cas_no": "136894-88-7",
    "SMILES": "C(C=C)(=O)N1CCOCC1",
    "meta_data": {
        "InChI": "InChI=1S/C7H11NO2/c1-2-7(9)8-3-5-10-6-4-8/h2H,1,3-6H2",
        "InChIKey": null,
        "Canonical SMILES": "O=C(C=C)N1CCOCC1",
        "Molecular Formula": "C<sub>7</sub>H<sub>11</sub>NO<sub>2</sub>",
        "Molecular Mass": "141.17",
        "Boiling Point": "114-116 °C @ Press: 8 Torr",
        "Melting Point": "&lt;-8 °C",
        "Density": "1.114 g/cm³ @ Temp: 20 °C"
    }
}