{
    "cas_no": "1983-26-2",
    "key_name": "<em>P</em>-(Chloromethyl)phosphonic dichloride",
    "cn_name": "氯甲基膦酸二氯化物;氯甲基膦酰二氯;",
    "alternate_name": "Phosphonic dichloride, <em>P</em>-(chloromethyl)-;Phosphonic dichloride, (chloromethyl)-;<em>P</em>-(Chloromethyl)phosphonic dichloride;(Chloromethyl)phosphonic acid dichloride;Chloromethylphosphonyl dichloride;(Chloromethyl)phosphonic dichloride;Chloromethyl dichlorophosphine oxide;Chloromethanephosphonic acid dichloride;Dichloro(chloromethyl)phosphine oxide;Chloromethanephosphonic dichloride;NSC 9350;(Chloromethyl)phosphoryl dichloride;(Chloromethyl)phosphonoyl dichloride",
    "duplicated_cas_no": "112363-93-6",
    "SMILES": "P(CCl)(Cl)(Cl)=O",
    "meta_data": {
        "InChI": "InChI=1S/CH2Cl3OP/c2-1-6(3,4)5/h1H2",
        "InChIKey": null,
        "Canonical SMILES": "O=P(Cl)(Cl)CCl",
        "Molecular Formula": "CH<sub>2</sub>Cl<sub>3</sub>OP",
        "Molecular Mass": "167.36",
        "Boiling Point": "103 °C @ Press: 30 Torr",
        "Density": "1.6444 g/cm³ @ Temp: 20 °C"
    }
}