{
    "cas_no": "9010-75-7",
    "key_name": "Chlorotrifluoroethylene-vinylidene fluoride copolymer",
    "cn_name": null,
    "alternate_name": "Ethene, 1-chloro-1,2,2-trifluoro-, polymer with 1,1-difluoroethene;Ethylene, chlorotrifluoro-, polymer with 1,1-difluoroethylene;Ethene, chlorotrifluoro-, polymer with 1,1-difluoroethene;Ethylene, chlorotrifluoro-, polymer, with vinylidene fluoride;Ethylene, 1,1-difluoro-, polymer with chlorotrifluoroethylene;Ethene, 1,1-difluoro-, polymer with chlorotrifluoroethene;Trifluorochloroethylene-vinylidene fluoride copolymer;Vinylidene fluoride-chlorotrifluoroethylene copolymer;Chlorotrifluoroethylene-vinylidene fluoride polymer;SF 3;Trifluorochloroethylene-vinylidene fluoride polymer;Chlorotrifluoroethylene-vinylidene fluoride copolymer;Chlorotrifluoroethylene-1,1-difluoroethylene polymer;Vinylidene fluoride-trifluorochloroethylene copolymer;Voltalef 3700;Vinylidene fluoride-chlorotrifluoroethylene polymer;Kel-F 800;2-Chloro-1,1,2-trifluoroethylene-1,1-difluoroethylene polymer;Chlorotrifluoroethene-1,1-difluoroethene copolymer;Ftoroplast 3M;Poly(trifluorochloroethylene)-vinylidene fluoride copolymer;Aclon 2100;F 32;Ftoroplast 32-20;Chlorotrifluoroethene-vinylidene fluoride copolymer;Fluoroplast F 32LN;Ftoroplast 32LN;F 32LN;Ftorlon 32LN;Kel-F 6300;F 23 (Chinese);F 23;P 994;Aclar 22;KF 3700;Solef 31508;Aclar 22A;Aclon 404;Kynar 5050;Solef 6805;Aclar 420;Aclar 3000;F 32LV;Ftoroplast 32LV;F 32 (fluoropolymer);Cefral Soft G 150F200;CTFE-vinylidene fluoride copolymer;Aclar 22C;Vinylidene difluoride-chlorotrifluoroethylene copolymer;Solef 32008/0003;Solef PVDF-CV;Poly(vinylidene fluoride-co-chlorotrifluoroethylene);Ftoroplast 32L;Fluoroplast 32L;32L;Ftoroplast F 32L;Ftorlon 32L;Fluorolon 32L;F 32L;Fluoroplast F32L;F 2314;Solef 31515;Solef 60512;Ftorlon 3M;F 3M;Dyneon 31508;Chlorotrifluoroethylene-vinylidene difluoride copolymer;Solef 32008;Solef 31508/1001;Dyneon 31008;F 23-14;Vinylidene fluoride-trifluoromonochloroethylene copolymer;FD 3145;Solef 31008;Poly(vinylidene fluoride-chlorotrifluoroethylene);Solef T 31508;Chlorotrifluoroethylene-1,1-difluoroethylene copolymer;400A;1,1-Difluoroethene-trifluorochloroethene copolymer;Dyneon 32008;1,1-Difluoroethene-1-chloro-1,2,2-trifluoroethene copolymer;1,1-Difluoroethylene-trifluorochloroethylene copolymer;Aclar VX;Vinylidene fluoride-trifluorovinyl chloride copolymer;Vinylidene fluoride-trifluorochloroethylene-propylene copolymer;Aclon 400;Vinylidene fluoride-chlorotrifluoroethene copolymer;Kureha K 75;1-Chloro-1,2,2-trifluoroethene-vinylidene fluoride copolymer;Vinylidene difluoride-trifluorovinyl chloride copolymer;Ftoroplast F 32LV;KF 1500;Ftoroplast F 3M;1,1-Difluoroethene-chlorotrifluoroethylene copolymer;KF 1500 (fluoropolymer);Vinylidene fluoride-monochlorotrifluoroethylene copolymer",
    "duplicated_cas_no": "9083-78-7;37291-52-4;39429-56-6;52229-95-5;52683-02-0;55127-99-6;61008-32-0;72439-89-5;124385-94-0;2232872-76-1;2368926-23-0",
    "SMILES": "C(=C(F)F)(Cl)F.C(=C)(F)F",
    "meta_data": {
        "InChI": "InChI=1S/C2ClF3.C2H2F2/c3-1(4)2(5)6;1-2(3)4/h;1H2",
        "InChIKey": null,
        "Canonical SMILES": "FC(F)=C.FC(F)=C(F)Cl",
        "Molecular Formula": "(C<sub>2</sub>H<sub>2</sub>F<sub>2</sub>.C<sub>2</sub>ClF<sub>3</sub>)<sub>x</sub>",
        "Molecular Mass": "",
        "Melting Point": "164 °C",
        "Density": "1.87 g/cm³"
    }
}