{
    "cas_no": "25135-51-7",
    "key_name": "Bisphenol A polysulfone",
    "cn_name": null,
    "alternate_name": "Poly[oxy-1,4-phenylenesulfonyl-1,4-phenyleneoxy-1,4-phenylene(1-methylethylidene)-1,4-phenylene];Poly(oxy-<em>p</em>-phenylenesulfonyl-<em>p</em>-phenyleneoxy-<em>p</em>-phenyleneisopropylidene-<em>p</em>-phenylene);Poly(sulfonyl-<em>p</em>-phenyleneoxy-<em>p</em>-phenyleneisopropylidene-<em>p</em>-phenyleneoxy-<em>p</em>-phenylene);Polymer 360;Polysulfone P 1700;Poly(oxy-1,4-phenylenesulfonyl-1,4-phenyleneoxy-1,4-phenyleneisopropylidene-1,4-phenylene);Bisphenol A polysulfone;Polysulfone P 3500;Poly(oxy-<em>p</em>-phenyleneisopropylidene-<em>p</em>-phenyleneoxy-<em>p</em>-phenylenesulfonyl-<em>p</em>-phenylene);Bisphenol A-bis(<em>p</em>-chlorophenyl) sulfone polymer, SRU;Bisphenol A-4,4′-sulfonyldiphenol polymer, SRU;Bis(<em>p</em>-fluorophenyl) sulfone-bisphenol A polymer, SRU;Udel P 1720;PSF 1700;P 1700;Udel P 1700;Bis(4-chlorophenyl) sulfone-2,2-bis(4-hydroxyphenyl)propane copolymer, SRU;Bisphenol A-4,4′-dichlorodiphenyl sulfone polymer, SRU;Bisphenol A-bis(4-chlorophenyl) sulfone copolymer, SRU;Bisphenol A-4,4′-difluorodiphenyl sulfone copolymer, SRU;Bisphenol A-<em>p</em>-chlorophenyl sulfone copolymer, SRU;4,4′-Dichlorodiphenyl sulfone-diphenylolpropane polymer, SRU;PSF 3500;Bisphenol A-4,4′-dihydroxydiphenyl sulfone polymer, SRU;Kimfone;Dian-4,4′-difluorodiphenyl sulfone copolymer, SRU;Union Carbide P 1700;P 1720;Udel P 3500;Polysulfone A;Poly[oxy-1,4-phenylene(1-methylethylidene)-1,4-phenyleneoxy-1,4-phenylenesulfonyl-1,4-phenylene];4,4′-Dichlorodiphenylsulfone-diphenylolpropane copolymer, sru;P 3500;Udel P 1700NT11;Bisphenol A disodium salt-4,4′-dichlorodiphenyl sulfone copolymer, SRU;S 100;Ultrason S;Thermalux;Udel P 1700NT;Udel P 1800;Udel 1700;Radel 5000;Bisphenol A-4,4′-dichlorodiphenyl sulfone copolymer, SRU;Reigning;Reigning Resin;Udel P 3703;Bis(4-chlorophenyl) sulfone-bisphenol A copolymer, SRU;Bisphenol A-<em>p</em>,<em>p</em>′-dichlorodiphenyl sulfone copolymer, SRU;Poly[sulfonyl-1,4-phenyleneoxy-1,4-phenylene(1-methylethylidene)-1,4-phenyleneoxy-1,4-phenylene];Ultrason S 2000;Ultrason S 2000G2;Ultrason S 2000G4;Ultrason S 2000G6;PSF-N;Udel PI 1700;P 1700NT;Udel PS-U 3500;S 100 (polyethersulfone);Udel P 3900;Victrex P 1700;PSF;PS-N;PS-N (polysulfone);P 3703;Desal E 100;PSK 1;PSK 1 (polysulfone);Udel Polysulfone P 1700;PSF-P 1800;Polysulfone 1700;Udel GF 130;PS 1700;PS 3500;Udel P 1800NT;PEESF;Bisphenol A-p-dichlorodiphenylsulfone copolymer, SRU;Udel PSF;P 1800NT;Ultrason S 2010;Amicon Diaflo PM 30;PM 30;Diaflo PM 30;Amicon PM 30;Ultrason S 3010;Bisphenol A-4,4′-dihydroxydiphenyl sulfone copolymer, sru;IRIS 3026;SG 90;UCC 80;SG 90 (polysulfone);4,4′-Dichlorodiphenyl sulfone-diphenylolpropane disodium salt copolymer, sru;Ultrason S 1010;P 1700NT11;Udel P 1835NT11;Amoco P 3500;P 1800;Sumilit FS 1200;FS 1200;Udel RP 1700;4,4′-Bisfluorophenyl sulfone-bisphenol A copolymer, SRU;P 1700BK937;Udel P 3703NT;Gafone S 1500;S 1500;Udel P 1700NT-LCD;S 2010;Gafone S 1500P;B 10 (polyethersulfone);B 10;OASO 10D;Udel P 3703NT11;Udel bisphenol A-polysulfone;PSTP;Ultrason 56010;Thermalux P 1700NT11;Ultrason S 6010;Ultrason S 6010 Natural;Udel 3500PSF;Udel P 3700;YMERSP 3001;Udel P 3500LCD-MB8;P 3500LCD-MB8;Gafone 3200P;Gafone PES 3200P;Thermalux P 1700;Udel P 3500LCD-MB7;P 3500LCD-MB7;S 3010;Bisphenol A-bis(4-fluorophenyl) sulfone copolymer, SRU;Lasulf;Ultrason S 2010 Natural;Udel 3500P;Udel 1700NT;Tris(2,4,6-trimethoxyphenyl) polysulfone methylene quaternary phosphonium hydroxide;P 1001A;3200P;Lasulf Natural 0030;Ultrason S 3010NA;CPM 1;S 6010;Udel P 3500MB7;P 1800NT11;Udel P 1800NT11;Solvay P 3500L;Udel 1700NT-LCD;PSF 150;PSF 150 (polysulfone);Ultrason 6010P;CF 30K;Solvay P 3500",
    "duplicated_cas_no": "9084-64-4;24937-09-5;26699-43-4;26894-27-9;30792-92-8;37340-43-5;38797-91-0;38797-92-1;42881-29-8;50958-07-1;51310-66-8;51426-17-6;54847-90-4;58516-07-7;63770-66-1;77538-70-6;78954-28-6;84930-41-6;84930-44-9;85189-46-4;87714-78-1;87806-52-8;92480-75-6;94336-28-4;98989-93-6;113536-31-5;113552-88-8;115232-25-2;118087-83-5;119441-79-1;119441-80-4;119441-81-5;119468-26-7;126430-90-8;133019-40-6;136922-61-7;136959-77-8;148093-05-4;166024-53-9;169741-56-4;171040-41-8;221658-52-2;313273-52-8;370868-43-2;496947-79-6;685088-61-3;685088-62-4;850081-57-1;916042-54-1;949586-40-7;949586-44-1;953795-39-6;1054451-59-0;1248568-37-7;1258782-48-7;1278515-61-9;1350550-65-0;1374980-57-0;1388729-69-8;1391817-62-1;1416163-37-5;1423746-74-0;1426660-85-6;1638787-04-8;2020066-75-3;2082646-93-1;2101661-94-1;2216769-80-9;2216769-82-1;2231753-33-4;2368952-14-9;2377922-95-5;2479946-90-0;2654055-32-8;2699638-98-5;2762072-69-3;2924692-40-8",
    "SMILES": "",
    "meta_data": {
        "InChI": "",
        "InChIKey": null,
        "Canonical SMILES": "",
        "Molecular Formula": "(C<sub>27</sub>H<sub>22</sub>O<sub>4</sub>S)<sub>n</sub>",
        "Molecular Mass": "",
        "Melting Point": "185 °C",
        "Density": "1.240 g/cm³"
    }
}