{
    "cas_no": "2139-47-1",
    "key_name": "Nifenazone",
    "cn_name": "烟酰氨基比林;烟酰氨基比林;",
    "alternate_name": "3-Pyridinecarboxamide, <em>N</em>-(2,3-dihydro-1,5-dimethyl-3-oxo-2-phenyl-1<em>H</em>-pyrazol-4-yl)-;Nicotinamide, <em>N</em>-antipyrinyl-;<em>N</em>-(2,3-Dihydro-1,5-dimethyl-3-oxo-2-phenyl-1<em>H</em>-pyrazol-4-yl)-3-pyridinecarboxamide;<em>N</em>-Antipyrinylnicotinamide;Nicodone;Nicofesone;Nicophesone;Nicophezon;Nicopyron;4-Nicotinamido-2,3-dimethyl-1-phenyl-3-pyrazolin-5-one;Nicotinic acid 4-antipyrilamide;4-(Nicotinoylamino)antipyrine;Nifenazone;Phenicazone;Thylin;Nifenazon;Nicazane;Niapyrin;Nicotinoylantipyrine;Nicoreumal;Nicoron;Nicotazone;Nicozone;Nikodon;Nikofezon;Nicodon;Niprazine;<em>N</em>-Nicotinoylaminoantipyrine;Dolongan;Reupiron",
    "duplicated_cas_no": "",
    "SMILES": "O=C1N(N(C)C(C)=C1NC(=O)C=2C=CC=NC2)C3=CC=CC=C3",
    "meta_data": {
        "InChI": "InChI=1S/C17H16N4O2/c1-12-15(19-16(22)13-7-6-10-18-11-13)17(23)21(20(12)2)14-8-4-3-5-9-14/h3-11H,1-2H3,(H,19,22)",
        "InChIKey": null,
        "Canonical SMILES": "O=C(NC=1C(=O)N(C=2C=CC=CC2)N(C1C)C)C=3C=NC=CC3",
        "Molecular Formula": "C<sub>17</sub>H<sub>16</sub>N<sub>4</sub>O<sub>2</sub>",
        "Molecular Mass": "308.33",
        "Melting Point": "253 °C"
    }
}