{
    "cas_no": "22112-79-4",
    "key_name": "<em>m</em>-THPP",
    "cn_name": null,
    "alternate_name": "Phenol, 3,3′,3′′,3′′′-(21<em>H</em>,23<em>H</em>-porphine-5,10,15,20-tetrayl)tetrakis-;Phenol, 3,3′,3′′,3′′′-(5,10,15,20-porphinetetrayl)tetra-;3,3′,3′′,3′′′-(21<em>H</em>,23<em>H</em>-Porphine-5,10,15,20-tetrayl)tetrakis[phenol];5,10,15,20-Tetra(<em>m</em>-hydroxyphenyl)porphyrin;Tetra(3-hydroxyphenyl)porphine;5,10,15,20-Tetrakis(3′-hydroxyphenyl)porphine;<em>m</em>-THPP;<em>meso</em>-Tetrakis(3-hydroxyphenyl)porphyrin;5,10,15,20-Tetrakis(3-hydroxyphenyl)porphyrin;3,3′,3′′,3′′′-Porphyrin-5,10,15,20-tetrayltetraphenol",
    "duplicated_cas_no": "113230-94-7;173319-20-5",
    "SMILES": "OC=1C=C(C=2C=3NC(=CC3)C(=C4N=C(C=C4)C(=C5NC(=C(C6=NC2C=C6)C7=CC(O)=CC=C7)C=C5)C8=CC(O)=CC=C8)C9=CC(O)=CC=C9)C=CC1",
    "meta_data": {
        "InChI": "InChI=1S/C44H30N4O4/c49-29-9-1-5-25(21-29)41-33-13-15-35(45-33)42(26-6-2-10-30(50)22-26)37-17-19-39(47-37)44(28-8-4-12-32(52)24-28)40-20-18-38(48-40)43(36-16-14-34(41)46-36)27-7-3-11-31(51)23-27/h1-24,45,48-52H/b41-33-,41-34?,42-35-,42-37?,43-36-,43-38?,44-39-,44-40?",
        "InChIKey": null,
        "Canonical SMILES": "OC1=CC=CC(=C1)C=2C3=NC(C=C3)=C(C=4C=CC=C(O)C4)C5=CC=C(N5)C(=C6N=C(C=C6)C(C=7C=CC=C(O)C7)=C8C=CC2N8)C=9C=CC=C(O)C9",
        "Molecular Formula": "C<sub>44</sub>H<sub>30</sub>N<sub>4</sub>O<sub>4</sub>",
        "Molecular Mass": "678.73",
        "Melting Point": "&gt;320 °C"
    }
}