{
    "cas_no": "14643-87-9",
    "key_name": "Zinc acrylate",
    "cn_name": "丙烯酸酸锌;",
    "alternate_name": "2-Propenoic acid, zinc salt (2:1);Acrylic acid, zinc salt;Zinc acrylate;2-Propenoic acid, zinc salt;Zinc diacrylate;Zinc(II) acrylate;Actor ZA;Saret 633;RR-ZDA;SR 111;SR 705;SR 633;Blemmer S 122;SR 633 (acrylate);Sartomer 633;ZNDA 90S;SR 526;SR 706;PC 300;SR 9016;P-Cure 300;Sanceler SR;85S;ZN-DA 85S;Sartomer SR 705;ZDA-GR 75;K-Cure 339;WN 86;Dymalink 526;Dymalink 9200;Dymalink D 705;ZN-DA;Dymalink 633;ZA 30;ZN-DA 90S;ZN-DA 90SN;ZDA 90;ZDAA;ZN-DA 100;ZDA 100",
    "duplicated_cas_no": "113329-02-5;120220-24-8;142605-01-4;70507-67-4;449796-20-7;191744-27-1;1056032-56-4",
    "SMILES": "C(C=C)(O)=O.[Zn]",
    "meta_data": {
        "InChI": "InChI=1S/C3H4O2.Zn/c1-2-3(4)5;/h2H,1H2,(H,4,5);",
        "InChIKey": null,
        "Canonical SMILES": "[Zn].O=C(O)C=C",
        "Molecular Formula": "C<sub>3</sub>H<sub>4</sub>O<sub>2</sub>.<sup>1</sup>/<sub>2</sub>Zn",
        "Molecular Mass": "",
        "Melting Point": "&gt;250 °C",
        "Density": "1.600 g/cm³"
    }
}