{
    "cas_no": "39811-14-8",
    "key_name": "6-Chloro-1<em>H</em>-benzimidazole-2-carboxylic acid",
    "cn_name": null,
    "alternate_name": "1<em>H</em>-Benzimidazole-2-carboxylic acid, 6-chloro-;1<em>H</em>-Benzimidazole-2-carboxylic acid, 5-chloro-;2-Benzimidazolecarboxylic acid, 5(<em>or</em> 6)-chloro-;6-Chloro-1<em>H</em>-benzimidazole-2-carboxylic acid;5-Chlorobenzimidazole-2-carboxylic acid;5-Chloro-1<em>H</em>-benzimidazole-2-carboxylic acid;6-Chlorobenzimidazole-2-carboxylic acid",
    "duplicated_cas_no": "",
    "SMILES": "C(O)(=O)C=1NC=2C(N1)=CC(Cl)=CC2",
    "meta_data": {
        "InChI": "InChI=1S/C8H5ClN2O2/c9-4-1-2-5-6(3-4)11-7(10-5)8(12)13/h1-3H,(H,10,11)(H,12,13)",
        "InChIKey": null,
        "Canonical SMILES": "O=C(O)C1=NC=2C=C(Cl)C=CC2N1",
        "Molecular Formula": "C<sub>8</sub>H<sub>5</sub>ClN<sub>2</sub>O<sub>2</sub>",
        "Molecular Mass": "196.59",
        "Melting Point": "159-160 °C"
    }
}