{
    "cas_no": "4284-50-8",
    "key_name": "<em>N</em>-(4-Bromophenyl)methanesulfonamide",
    "cn_name": null,
    "alternate_name": "Methanesulfonamide, <em>N</em>-(4-bromophenyl)-;Methanesulfonanilide, 4′-bromo-;<em>N</em>-(4-Bromophenyl)methanesulfonamide;4′-Bromomethanesulfonanilide",
    "duplicated_cas_no": "1331215-36-1",
    "SMILES": "N(S(C)(=O)=O)C1=CC=C(Br)C=C1",
    "meta_data": {
        "InChI": "InChI=1S/C7H8BrNO2S/c1-12(10,11)9-7-4-2-6(8)3-5-7/h2-5,9H,1H3",
        "InChIKey": null,
        "Canonical SMILES": "O=S(=O)(NC1=CC=C(Br)C=C1)C",
        "Molecular Formula": "C<sub>7</sub>H<sub>8</sub>BrNO<sub>2</sub>S",
        "Molecular Mass": "250.11",
        "Melting Point": "134-135 °C"
    }
}