{
    "cas_no": "16544-67-5",
    "key_name": "6-(Trifluoromethyl)-4(3<em>H</em>)-quinazolinone",
    "cn_name": null,
    "alternate_name": "4(3<em>H</em>)-Quinazolinone, 6-(trifluoromethyl)-;4(1<em>H</em>)-Quinazolinone, 6-(trifluoromethyl)-;6-(Trifluoromethyl)-4(3<em>H</em>)-quinazolinone;6-(Trifluoromethyl)quinazolin-4-ol",
    "duplicated_cas_no": "",
    "SMILES": "O=C1C=2C(=CC=C(C(F)(F)F)C2)NC=N1",
    "meta_data": {
        "InChI": "InChI=1S/C9H5F3N2O/c10-9(11,12)5-1-2-7-6(3-5)8(15)14-4-13-7/h1-4H,(H,13,14,15)",
        "InChIKey": null,
        "Canonical SMILES": "O=C1N=CNC2=CC=C(C=C12)C(F)(F)F",
        "Molecular Formula": "C<sub>9</sub>H<sub>5</sub>F<sub>3</sub>N<sub>2</sub>O",
        "Molecular Mass": "214.14",
        "Melting Point": "209-211 °C"
    }
}