{
    "cas_no": "6555-40-4",
    "key_name": "Ethyl 2-hydroxy-6-methylbenzoate",
    "cn_name": "6-甲基水杨酸乙酯/2-羟基-6-甲基苯甲酸乙酯;",
    "alternate_name": "Benzoic acid, 2-hydroxy-6-methyl-, ethyl ester;2,6-Cresotic acid, ethyl ester;Ethyl 6-methylsalicylate;Ethyl 2-hydroxy-6-methylbenzoate;2-Hydroxy-6-methylbenzoic acid ethyl ester",
    "duplicated_cas_no": "",
    "SMILES": "C(OCC)(=O)C1=C(C)C=CC=C1O",
    "meta_data": {
        "InChI": "InChI=1S/C10H12O3/c1-3-13-10(12)9-7(2)5-4-6-8(9)11/h4-6,11H,3H2,1-2H3",
        "InChIKey": null,
        "Canonical SMILES": "O=C(OCC)C=1C(O)=CC=CC1C",
        "Molecular Formula": "C<sub>10</sub>H<sub>12</sub>O<sub>3</sub>",
        "Molecular Mass": "180.20",
        "Boiling Point": "85-95 °C @ Press: 0.5 Torr",
        "Melting Point": "42-45 °C"
    }
}