{
    "cas_no": "5444-01-9",
    "key_name": "4-Methyl-3-pyridinecarbonitrile",
    "cn_name": "3-氰基-4-甲基吡啶;",
    "alternate_name": "3-Pyridinecarbonitrile, 4-methyl-;Nicotinonitrile, 4-methyl-;4-Methyl-3-pyridinecarbonitrile;4-Picoline-3-carbonitrile;3-Cyano-4-picoline;3-Cyano-4-methylpyridine;4-Methylnicotinonitrile;4-Methyl-3-cyanopyridine;NSC 19882",
    "duplicated_cas_no": "",
    "SMILES": "C(#N)C=1C(C)=CC=NC1",
    "meta_data": {
        "InChI": "InChI=1S/C7H6N2/c1-6-2-3-9-5-7(6)4-8/h2-3,5H,1H3",
        "InChIKey": null,
        "Canonical SMILES": "N#CC=1C=NC=CC1C",
        "Molecular Formula": "C<sub>7</sub>H<sub>6</sub>N<sub>2</sub>",
        "Molecular Mass": "118.14",
        "Boiling Point": "64 °C @ Press: 1-2 Torr",
        "Melting Point": "45-46 °C"
    }
}