{
    "cas_no": "115-95-7",
    "key_name": "Linalyl acetate",
    "cn_name": "乙酸芳樟酯;3,7-二甲基-1,6-辛二烯-3-醇乙酸酯;",
    "alternate_name": "1,6-Octadien-3-ol, 3,7-dimethyl-, 3-acetate;1,6-Octadien-3-ol, 3,7-dimethyl-, acetate;Linalool acetate;Acetic acid linalool ester;Bergamiol;Bergamol;Linalyl acetate;3,7-Dimethyl-1,6-octadien-3-yl acetate;Bergamot mint oil;3-Acetoxy-3,7-dimethyl-1,6-octadiene;(±)-Linaloyl acetate;<em>dl</em>-Linalool acetate;(±)-Linalyl acetate;1,5-Dimethyl-1-vinyl-4-hexenyl acetate;NSC 2138",
    "duplicated_cas_no": "8022-85-3;16509-66-3;40135-38-4",
    "SMILES": "C(CCC=C(C)C)(OC(C)=O)(C=C)C",
    "meta_data": {
        "InChI": "InChI=1S/C12H20O2/c1-6-12(5,14-11(4)13)9-7-8-10(2)3/h6,8H,1,7,9H2,2-5H3",
        "InChIKey": null,
        "Canonical SMILES": "O=C(OC(C=C)(C)CCC=C(C)C)C",
        "Molecular Formula": "C<sub>12</sub>H<sub>20</sub>O<sub>2</sub>",
        "Molecular Mass": "196.29",
        "Boiling Point": "220 °C",
        "Melting Point": "&lt;25 °C",
        "Density": "0.8997 g/cm³ @ Temp: 15 °C"
    }
}