{
    "cas_no": "62-90-8",
    "key_name": "Nandrolone phenylpropionate",
    "cn_name": "苯丙酸诺龙;",
    "alternate_name": "Estr-4-en-3-one, 17-(1-oxo-3-phenylpropoxy)-, (17β)-;Estr-4-en-3-one, 17β-hydroxy-, hydrocinnamate;Estr-4-en-3-one, 17β-hydroxy-, phenylpropionate;Hydrocinnamic acid, ester with 17β-hydroxyestr-4-en-3-one;(17β)-17-(1-Oxo-3-phenylpropoxy)estr-4-en-3-one;Durabolin;17β-Hydroxyestr-4-en-3-one phenylpropionate;17β-Hydroxy-19-norandrost-4-en-3-one 17-phenylpropionate;Nandrolone phenpropionate;Nandrolone phenylpropionate;Nerobil;Norandrolone phenylpropionate;Norandrostenolone phenylpropionate;19-Norandrostenolone phenylpropionate;19-Nor-17β-hydroxy-3-ketoandrost-4-ene 17-phenylpropionate;19-Nortestosterone phenylpropionate;NPP;NTPP;Superanabolon;Nerobolil;17β-Hydroxy-4-estren-3-one17-phenylpropionate;Nortestosterone phenylpropionate;Fenobolin;Phenobolin;17β-(3-Phenylpropionyloxy)-estr-4-en-3-one;Nandrolon phenylpropionate;Nandrolin;Durabol;Activin (anabolic steroid);Nandrobolic;NSC 23162;Strabolene;Nandrosol",
    "duplicated_cas_no": "",
    "SMILES": "C[C@@]12[C@]([C@]3([C@@]([C@@]4(C(CC3)=CC(=O)CC4)[H])(CC1)[H])[H])(CC[C@@H]2OC(CCC5=CC=CC=C5)=O)[H]",
    "meta_data": {
        "InChI": "InChI=1S/C27H34O3/c1-27-16-15-22-21-11-9-20(28)17-19(21)8-10-23(22)24(27)12-13-25(27)30-26(29)14-7-18-5-3-2-4-6-18/h2-6,17,21-25H,7-16H2,1H3/t21-,22+,23+,24-,25-,27-/m0/s1",
        "InChIKey": null,
        "Canonical SMILES": "O=C(OC1CCC2C3CCC4=CC(=O)CCC4C3CCC12C)CCC=5C=CC=CC5",
        "Molecular Formula": "C<sub>27</sub>H<sub>34</sub>O<sub>3</sub>",
        "Molecular Mass": "406.56",
        "Melting Point": "95-96 °C"
    }
}