{
    "cas_no": "306934-99-6",
    "key_name": "2-Amino-4-(4-bromophenyl)thiophene-3-carboxylic acid ethyl ester",
    "cn_name": null,
    "alternate_name": "3-Thiophenecarboxylic acid, 2-amino-4-(4-bromophenyl)-, ethyl ester;2-Amino-4-(4-bromophenyl)thiophene-3-carboxylic acid ethyl ester;Ethyl 2-amino-4-(4-bromophenyl)thiophene-3-carboxylate",
    "duplicated_cas_no": "",
    "SMILES": "C(OCC)(=O)C=1C(=CSC1N)C2=CC=C(Br)C=C2",
    "meta_data": {
        "InChI": "InChI=1S/C13H12BrNO2S/c1-2-17-13(16)11-10(7-18-12(11)15)8-3-5-9(14)6-4-8/h3-7H,2,15H2,1H3",
        "InChIKey": null,
        "Canonical SMILES": "O=C(OCC)C1=C(SC=C1C=2C=CC(Br)=CC2)N",
        "Molecular Formula": "C<sub>13</sub>H<sub>12</sub>BrNO<sub>2</sub>S",
        "Molecular Mass": "326.21",
        "Melting Point": "120-121 °C"
    }
}