{
    "cas_no": "31252-85-4",
    "key_name": "<em>p</em>-Nitrophenyl iodoacetate",
    "cn_name": "碘乙酸-4-硝基苯酯;",
    "alternate_name": "Acetic acid, 2-iodo-, 4-nitrophenyl ester;Acetic acid, iodo-, 4-nitrophenyl ester;Acetic acid, iodo-, <em>p</em>-nitrophenyl ester;<em>p</em>-Nitrophenyl iodoacetate;NPIA;4-Nitrophenyl 2-iodoacetate",
    "duplicated_cas_no": "",
    "SMILES": "O(C(CI)=O)C1=CC=C(N(=O)=O)C=C1",
    "meta_data": {
        "InChI": "InChI=1S/C8H6INO4/c9-5-8(11)14-7-3-1-6(2-4-7)10(12)13/h1-4H,5H2",
        "InChIKey": null,
        "Canonical SMILES": "O=C(OC1=CC=C(C=C1)N(=O)=O)CI",
        "Molecular Formula": "C<sub>8</sub>H<sub>6</sub>INO<sub>4</sub>",
        "Molecular Mass": "307.04",
        "Melting Point": "79-81 °C"
    }
}