{
    "cas_no": "1623-05-8",
    "key_name": "1,1,1,2,2,3,3-Heptafluoro-3-[(1,2,2-trifluoroethenyl)oxy]propane",
    "cn_name": "全氟正丙基乙烯基醚;1,1,1,2,2,3,3-七氟-3-[(三氟乙烯基)氧基]丙烷;",
    "alternate_name": "Propane, 1,1,1,2,2,3,3-heptafluoro-3-[(1,2,2-trifluoroethenyl)oxy]-;Ether, heptafluoropropyl trifluorovinyl;Propane, 1,1,1,2,2,3,3-heptafluoro-3-[(trifluoroethenyl)oxy]-;1,1,1,2,2,3,3-Heptafluoro-3-[(1,2,2-trifluoroethenyl)oxy]propane;Perfluoropropyl perfluorovinyl ether;Perfluoro(propyl vinyl ether);Heptafluoropropyl trifluorovinyl ether;1,1,2,4,4,5,5,6,6,6-Decafluoro-3-oxahex-1-ene;Perfluoropropoxyethene;Perfluoropropyl trifluorovinyl ether;1,1,1,2,2,3,3-Heptafluoro-3-((1,2,2-trifluorovinyl)oxy)propane;Cheminox FPVE;PPVE;Perfluorovinyl perfluoropropyl ether;1,1,1,2,2,3,3-Heptafluoro-3-(trifluorovinyloxy)propane;1,1,1,2,2,3,3-Heptafluoro-3-[(trifluoroethenyl)oxy]propane;Perfluoroethenyl perfluoropropyl ether;SF 000360",
    "duplicated_cas_no": "",
    "SMILES": "C(C(OC(=C(F)F)F)(F)F)(C(F)(F)F)(F)F",
    "meta_data": {
        "InChI": "InChI=1S/C5F10O/c6-1(7)2(8)16-5(14,15)3(9,10)4(11,12)13",
        "InChIKey": null,
        "Canonical SMILES": "FC(F)=C(F)OC(F)(F)C(F)(F)C(F)(F)F",
        "Molecular Formula": "C<sub>5</sub>F<sub>10</sub>O",
        "Molecular Mass": "266.04",
        "Boiling Point": "35-36 °C"
    }
}