{
    "cas_no": "10017-37-5",
    "key_name": "<em>tert</em>-Butylammonium chloride",
    "cn_name": null,
    "alternate_name": "2-Propanamine, 2-methyl-, hydrochloride (1:1);<em>tert</em>-Butylamine, hydrochloride;2-Propanamine, 2-methyl-, hydrochloride;<em>t</em>-Butylamine hydrochloride;<em>tert</em>-Butylammonium chloride;1,1-Dimethylethylamine hydrochloride;2-Methylpropan-2-amine hydrochloride;2-Amino-2-methylpropane hydrochloride",
    "duplicated_cas_no": "1195526-49-8",
    "SMILES": "C(C)(C)(C)N.Cl",
    "meta_data": {
        "InChI": "InChI=1S/C4H11N.ClH/c1-4(2,3)5;/h5H2,1-3H3;1H",
        "InChIKey": null,
        "Canonical SMILES": "Cl.NC(C)(C)C",
        "Molecular Formula": "C<sub>4</sub>H<sub>11</sub>N.ClH",
        "Molecular Mass": "",
        "Melting Point": "291 °C (decomp)"
    }
}