{
    "cas_no": "3166-62-9",
    "key_name": "Ethanaminium, <em>N</em>,<em>N</em>-diethyl-2-[(2-hydroxy-2,2-diphenylacetyl)oxy]-<em>N</em>-methyl-, bromide (1:1)",
    "cn_name": "溴甲乙胺痉平;服止宁;",
    "alternate_name": "Ethanaminium, <em>N</em>,<em>N</em>-diethyl-2-[(2-hydroxy-2,2-diphenylacetyl)oxy]-<em>N</em>-methyl-, bromide (1:1);Ammonium, diethyl(2-hydroxyethyl)methyl-, bromide, benzilate;Ethanaminium, <em>N</em>,<em>N</em>-diethyl-2-[(hydroxydiphenylacetyl)oxy]-<em>N</em>-methyl-, bromide;Diethyl(2-hydroxyethyl)methylammonium bromide, benzilate;Diethylaminoethyl diphenylglycolate methobromide;Paragone;ENT 26656;Finalin;Alsain;Apulcin;Final;Sanrine;Semulgin;Gastrimade;Igsain;Neo-aspamin;Noinarin;Benactyzine methobromide;Filcilin;Methylbenactyzium bromide;Spatomac",
    "duplicated_cas_no": "",
    "SMILES": "C(C(OCC[N+](CC)(CC)C)=O)(O)(C1=CC=CC=C1)C2=CC=CC=C2.[Br-]",
    "meta_data": {
        "InChI": "InChI=1S/C21H28NO3.BrH/c1-4-22(3,5-2)16-17-25-20(23)21(24,18-12-8-6-9-13-18)19-14-10-7-11-15-19;/h6-15,24H,4-5,16-17H2,1-3H3;1H/q+1;/p-1",
        "InChIKey": null,
        "Canonical SMILES": "[Br-].O=C(OCC[N+](C)(CC)CC)C(O)(C=1C=CC=CC1)C=2C=CC=CC2",
        "Molecular Formula": "C<sub>21</sub>H<sub>28</sub>NO<sub>3</sub>.Br",
        "Molecular Mass": "",
        "Melting Point": "169-170 °C"
    }
}