{
    "cas_no": "10513-45-8",
    "key_name": "Isoxazolium, 2-(1,1-dimethylethyl)-5-methyl-, perchlorate (1:1)",
    "cn_name": "N-叔丁基-5-甲异唑高氯酸盐;",
    "alternate_name": "Isoxazolium, 2-(1,1-dimethylethyl)-5-methyl-, perchlorate (1:1);Isoxazolium, 2-<em>tert</em>-butyl-5-methyl-, perchlorate;Isoxazolium, 2-(1,1-dimethylethyl)-5-methyl-, perchlorate;2-<em>tert</em>-Butyl-5-methylisoxazolium perchlorate;<em>N</em>-<em>tert</em>-Butyl-5-methylisoxazolium perchlorate;NSC 86127",
    "duplicated_cas_no": "",
    "SMILES": "C(C)(C)(C)[N+]=1OC(C)=CC1.Cl(=O)(=O)(=O)[O-]",
    "meta_data": {
        "InChI": "InChI=1S/C8H14NO.ClHO4/c1-7-5-6-9(10-7)8(2,3)4;2-1(3,4)5/h5-6H,1-4H3;(H,2,3,4,5)/q+1;/p-1",
        "InChIKey": null,
        "Canonical SMILES": "O=Cl(=O)(=O)[O-].O1C(=CC=[N+]1C(C)(C)C)C",
        "Molecular Formula": "C<sub>8</sub>H<sub>14</sub>NO.ClO<sub>4</sub>",
        "Molecular Mass": "",
        "Melting Point": "119-121 °C"
    }
}