{
    "cas_no": "394-29-6",
    "key_name": "5-Chloro-2-fluorobenzoyl chloride",
    "cn_name": "5-氯-2-氟苯甲酰氯;",
    "alternate_name": "Benzoyl chloride, 5-chloro-2-fluoro-;5-Chloro-2-fluorobenzoyl chloride;3-Chloro-6-fluorobenzoyl chloride",
    "duplicated_cas_no": "",
    "SMILES": "C(Cl)(=O)C1=C(F)C=CC(Cl)=C1",
    "meta_data": {
        "InChI": "InChI=1S/C7H3Cl2FO/c8-4-1-2-6(10)5(3-4)7(9)11/h1-3H",
        "InChIKey": null,
        "Canonical SMILES": "O=C(Cl)C1=CC(Cl)=CC=C1F",
        "Molecular Formula": "C<sub>7</sub>H<sub>3</sub>Cl<sub>2</sub>FO",
        "Molecular Mass": "193.00",
        "Boiling Point": "103-104 °C @ Press: 15 Torr"
    }
}