{
    "cas_no": "2359-15-1",
    "key_name": "Methylenebismethacrylamide",
    "cn_name": "N,N-亚甲基双甲基丙烯胺;N,N\"-亚甲基双甲基丙烯胺;",
    "alternate_name": "2-Propenamide, <em>N</em>,<em>N</em>′-methylenebis[2-methyl-;Acrylamide, <em>N</em>,<em>N</em>′-methylenebis[2-methyl-;<em>N</em>,<em>N</em>′-Methylenebis[2-methyl-2-propenamide];Methylenebismethacrylamide;<em>N</em>,<em>N</em>′-Methylenebismethacrylamide;NSC 2685;<em>N</em>,<em>N</em>-Methylenebismethacrylamide;2-Methyl-<em>N</em>-[(2-methylprop-2-enoylamino)methyl]prop-2-enamide;2-Methyl-<em>N</em>-[(2-methylprop-2-enamido)methyl]prop-2-enamide;M 0930;NNMBMA",
    "duplicated_cas_no": "",
    "SMILES": "C(C(C)=C)(NCNC(C(C)=C)=O)=O",
    "meta_data": {
        "InChI": "InChI=1S/C9H14N2O2/c1-6(2)8(12)10-5-11-9(13)7(3)4/h1,3,5H2,2,4H3,(H,10,12)(H,11,13)",
        "InChIKey": null,
        "Canonical SMILES": "O=C(NCNC(=O)C(=C)C)C(=C)C",
        "Molecular Formula": "C<sub>9</sub>H<sub>14</sub>N<sub>2</sub>O<sub>2</sub>",
        "Molecular Mass": "182.22",
        "Melting Point": "160-161 °C"
    }
}