{
    "cas_no": "499-49-0",
    "key_name": "5-Methyl-1,3-benzenedicarboxylic acid",
    "cn_name": "5-甲基间苯二酸;",
    "alternate_name": "1,3-Benzenedicarboxylic acid, 5-methyl-;Isophthalic acid, 5-methyl-;5-Methyl-1,3-benzenedicarboxylic acid;Uvitic acid;5-Methylisophthalic acid;NSC 41436",
    "duplicated_cas_no": "",
    "SMILES": "C(O)(=O)C1=CC(C(O)=O)=CC(C)=C1",
    "meta_data": {
        "InChI": "InChI=1S/C9H8O4/c1-5-2-6(8(10)11)4-7(3-5)9(12)13/h2-4H,1H3,(H,10,11)(H,12,13)",
        "InChIKey": null,
        "Canonical SMILES": "O=C(O)C=1C=C(C=C(C1)C)C(=O)O",
        "Molecular Formula": "C<sub>9</sub>H<sub>8</sub>O<sub>4</sub>",
        "Molecular Mass": "180.16",
        "Melting Point": "298 °C"
    }
}