{
    "cas_no": "5467-74-3",
    "key_name": "(4-Bromophenyl)boronic acid",
    "cn_name": "4-溴苯硼酸;4-溴苯基硼酸;",
    "alternate_name": "Boronic acid, <em>B</em>-(4-bromophenyl)-;Benzeneboronic acid, <em>p</em>-bromo-;Boronic acid, (4-bromophenyl)-;<em>B</em>-(4-Bromophenyl)boronic acid;<em>p</em>-Bromobenzeneboronic acid;4-Bromophenylboric acid;<em>p</em>-Bromophenylboric acid;(<em>p</em>-Bromophenyl)boronic acid;4-Bromobenzeneboronic acid;(4-Bromophenyl)boronic acid;NSC 25407",
    "duplicated_cas_no": "",
    "SMILES": "B(O)(O)C1=CC=C(Br)C=C1",
    "meta_data": {
        "InChI": "InChI=1S/C6H6BBrO2/c8-6-3-1-5(2-4-6)7(9)10/h1-4,9-10H",
        "InChIKey": null,
        "Canonical SMILES": "BrC1=CC=C(C=C1)B(O)O",
        "Molecular Formula": "C<sub>6</sub>H<sub>6</sub>BBrO<sub>2</sub>",
        "Molecular Mass": "200.83",
        "Melting Point": "266 °C"
    }
}