{
    "cas_no": "354-33-6",
    "key_name": "Pentafluoroethane",
    "cn_name": "五氟乙烷;",
    "alternate_name": "Ethane, 1,1,1,2,2-pentafluoro-;Ethane, pentafluoro-;1,1,1,2,2-Pentafluoroethane;Pentafluoroethane;R 125;HFC 125;1,1,2,2,2-Pentafluoroethane;F 125;FC 125;Fron 125;HCFC 125;Ecolo Ace 125;Khladon 125;HFA 125;Freon 125;HFO 125",
    "duplicated_cas_no": "",
    "SMILES": "C(C(F)F)(F)(F)F",
    "meta_data": {
        "InChI": "InChI=1S/C2HF5/c3-1(4)2(5,6)7/h1H",
        "InChIKey": null,
        "Canonical SMILES": "FC(F)C(F)(F)F",
        "Molecular Formula": "C<sub>2</sub>HF<sub>5</sub>",
        "Molecular Mass": "120.02",
        "Boiling Point": "-48.5 °C",
        "Melting Point": "-103 °C",
        "Density": "1.2291 g/cm³ @ Temp: 19.980 °C; Press: 15151 Torr"
    }
}