{
    "cas_no": "71550-63-5",
    "key_name": "3-(Dichloromethylsilyl)propyl 2-propenoate",
    "cn_name": null,
    "alternate_name": "2-Propenoic acid, 3-(dichloromethylsilyl)propyl ester;3-(Dichloromethylsilyl)propyl 2-propenoate;[3-(Acryloyloxy)propyl]methyldichlorosilane;(3-Acryloyloxypropyl)dichloromethylsilane;(3-Acryloxypropyl)methyldichlorosilane",
    "duplicated_cas_no": "",
    "SMILES": "C([Si](C)(Cl)Cl)CCOC(C=C)=O",
    "meta_data": {
        "InChI": "InChI=1S/C7H12Cl2O2Si/c1-3-7(10)11-5-4-6-12(2,8)9/h3H,1,4-6H2,2H3",
        "InChIKey": null,
        "Canonical SMILES": "O=C(OCCC[Si](Cl)(Cl)C)C=C",
        "Molecular Formula": "C<sub>7</sub>H<sub>12</sub>Cl<sub>2</sub>O<sub>2</sub>Si",
        "Molecular Mass": "227.16",
        "Boiling Point": "73 °C @ Press: 0.1 Torr",
        "Density": "1.150 g/cm³"
    }
}