{
    "cas_no": "3840-31-1",
    "key_name": "3,4,5-Trimethoxybenzyl alcohol",
    "cn_name": "3,4,5-三甲氧基苄醇;3,4,5-三甲氧基苯甲醇;",
    "alternate_name": "Benzenemethanol, 3,4,5-trimethoxy-;Benzyl alcohol, 3,4,5-trimethoxy-;3,4,5-Trimethoxybenzenemethanol;3,4,5-Trimethoxybenzyl alcohol;NSC 53949;3,4,5-Trimethoxyphenylmethanol",
    "duplicated_cas_no": "",
    "SMILES": "O(C)C1=C(OC)C=C(CO)C=C1OC",
    "meta_data": {
        "InChI": "InChI=1S/C10H14O4/c1-12-8-4-7(6-11)5-9(13-2)10(8)14-3/h4-5,11H,6H2,1-3H3",
        "InChIKey": null,
        "Canonical SMILES": "OCC1=CC(OC)=C(OC)C(OC)=C1",
        "Molecular Formula": "C<sub>10</sub>H<sub>14</sub>O<sub>4</sub>",
        "Molecular Mass": "198.22",
        "Boiling Point": "145-150 °C @ Press: 0.4 Torr",
        "Melting Point": "36-38 °C",
        "Density": "1.1427 g/cm³"
    }
}