{
    "cas_no": "17284-97-8",
    "key_name": "3-Chloro-6-hydrazinopyridazine",
    "cn_name": "3-氯-6-肼基哒嗪;",
    "alternate_name": "Pyridazine, 3-chloro-6-hydrazinyl-;Pyridazine, 3-chloro-6-hydrazino-;3(2<em>H</em>)-Pyridazinone, 6-chloro-, hydrazone;3-Chloro-6-hydrazinylpyridazine;3-Hydrazino-6-chloropyridazine;6-Chloro-3-hydrazinopyridazine;3-Chloro-6-hydrazinopyridazine;(3-Chloro-6-pyridazinyl)hydrazine;(6-Chloro-3-pyridazinyl)hydrazine;ABC 907;NSC 367616",
    "duplicated_cas_no": "",
    "SMILES": "N(N)=C1C=CC(Cl)=NN1",
    "meta_data": {
        "InChI": "InChI=1S/C4H5ClN4/c5-3-1-2-4(7-6)9-8-3/h1-2H,6H2,(H,7,9)",
        "InChIKey": null,
        "Canonical SMILES": "ClC1=NNC(=NN)C=C1",
        "Molecular Formula": "C<sub>4</sub>H<sub>5</sub>ClN<sub>4</sub>",
        "Molecular Mass": "144.56",
        "Melting Point": "135-137 °C"
    }
}