{
    "cas_no": "210963-94-3",
    "key_name": "Methyl 6-(1-pyrrolidinyl)-3-pyridinecarboxylate",
    "cn_name": "6-吡咯啉烟酸甲酯;",
    "alternate_name": "3-Pyridinecarboxylic acid, 6-(1-pyrrolidinyl)-, methyl ester;Methyl 6-(1-pyrrolidinyl)-3-pyridinecarboxylate",
    "duplicated_cas_no": "",
    "SMILES": "C(OC)(=O)C1=CC=C(N=C1)N2CCCC2",
    "meta_data": {
        "InChI": "InChI=1S/C11H14N2O2/c1-15-11(14)9-4-5-10(12-8-9)13-6-2-3-7-13/h4-5,8H,2-3,6-7H2,1H3",
        "InChIKey": null,
        "Canonical SMILES": "O=C(OC)C1=CN=C(C=C1)N2CCCC2",
        "Molecular Formula": "C<sub>11</sub>H<sub>14</sub>N<sub>2</sub>O<sub>2</sub>",
        "Molecular Mass": "206.24",
        "Melting Point": "122.6-123.6 °C"
    }
}