{
    "cas_no": "64-20-0",
    "key_name": "Tetramethylammonium bromide",
    "cn_name": "四甲基溴化铵;溴化四甲铵;",
    "alternate_name": "Methanaminium, <em>N</em>,<em>N</em>,<em>N</em>-trimethyl-, bromide (1:1);Tetramethylammonium bromide;Ammonium, tetramethyl-, bromide;Methanaminium, <em>N</em>,<em>N</em>,<em>N</em>-trimethyl-, bromide;Methyl, (dimethylamino)-, methobromide;TMAB",
    "duplicated_cas_no": "",
    "SMILES": "[N+](C)(C)(C)C.[Br-]",
    "meta_data": {
        "InChI": "InChI=1S/C4H12N.BrH/c1-5(2,3)4;/h1-4H3;1H/q+1;/p-1",
        "InChIKey": null,
        "Canonical SMILES": "[Br-].C[N+](C)(C)C",
        "Molecular Formula": "C<sub>4</sub>H<sub>12</sub>N.Br",
        "Molecular Mass": "",
        "Melting Point": "230 °C (decomp)"
    }
}