{
    "cas_no": "7789-67-5",
    "key_name": "Tin tetrabromide",
    "cn_name": "四溴化锡;溴化锡(IV);",
    "alternate_name": "Stannane, tetrabromo-;Tin bromide (SnBr<sub>4</sub>);Tetrabromostannane;Stannic bromide;Tin tetrabromide;Tetrabromotin;Tin(IV) bromide",
    "duplicated_cas_no": "14456-69-0;14526-18-2",
    "SMILES": "[Sn](Br)(Br)(Br)Br",
    "meta_data": {
        "InChI": "InChI=1S/4BrH.Sn/h4*1H;/q;;;;+4/p-4",
        "InChIKey": null,
        "Canonical SMILES": "Br[Sn](Br)(Br)Br",
        "Molecular Formula": "Br<sub>4</sub>Sn",
        "Molecular Mass": "438.33",
        "Boiling Point": "203-204 °C",
        "Melting Point": "31 °C",
        "Density": "3.34 g/cm³"
    }
}