{
    "cas_no": "53669-33-3",
    "key_name": "4-Acetoxy-3,5-dimethoxybenzaldehyde",
    "cn_name": "4-乙酰氧基-3,5-二甲氧基苯甲醛;",
    "alternate_name": "Benzaldehyde, 4-(acetyloxy)-3,5-dimethoxy-;4-(Acetyloxy)-3,5-dimethoxybenzaldehyde;Syringaldehyde acetate;4-Formyl-2,6-dimethoxyphenol acetate;4-Acetoxy-3,5-dimethoxybenzaldehyde;Acetic acid 4-formyl-2,6-dimethoxyphenyl ester;4-Formyl-2,6-dimethoxyphenyl acetate",
    "duplicated_cas_no": "",
    "SMILES": "O(C(C)=O)C1=C(OC)C=C(C=O)C=C1OC",
    "meta_data": {
        "InChI": "InChI=1S/C11H12O5/c1-7(13)16-11-9(14-2)4-8(6-12)5-10(11)15-3/h4-6H,1-3H3",
        "InChIKey": null,
        "Canonical SMILES": "O=CC1=CC(OC)=C(OC(=O)C)C(OC)=C1",
        "Molecular Formula": "C<sub>11</sub>H<sub>12</sub>O<sub>5</sub>",
        "Molecular Mass": "224.21",
        "Melting Point": "114 °C"
    }
}