{
    "cas_no": "75-26-3",
    "key_name": "2-Bromopropane",
    "cn_name": "2-溴丙烷;",
    "alternate_name": "Propane, 2-bromo-;2-Bromopropane;Isopropyl bromide;<em>sec</em>-Propyl bromide",
    "duplicated_cas_no": "",
    "SMILES": "C(Br)(C)C",
    "meta_data": {
        "InChI": "InChI=1S/C3H7Br/c1-3(2)4/h3H,1-2H3",
        "InChIKey": null,
        "Canonical SMILES": "BrC(C)C",
        "Molecular Formula": "C<sub>3</sub>H<sub>7</sub>Br",
        "Molecular Mass": "122.99",
        "Boiling Point": "59.38 °C @ Press: 760 Torr",
        "Melting Point": "-89.0 °C",
        "Density": "1.31 g/cm³ @ Temp: 20 °C"
    }
}