{
    "cas_no": "85-02-9",
    "key_name": "Benzo[<em>f</em>]quinoline",
    "cn_name": "5,6-苯并喹啉;",
    "alternate_name": "Benzo[<em>f</em>]quinoline;1-Azaphenanthrene;β-Naphthoquinoline;5,6-Benzoquinoline;5,6-Benzo[<em>f</em>]quinoline;NSC 9850",
    "duplicated_cas_no": "76713-23-0",
    "SMILES": "C12=C3C(=CC=C1C=CC=C2)N=CC=C3",
    "meta_data": {
        "InChI": "InChI=1S/C13H9N/c1-2-5-11-10(4-1)7-8-13-12(11)6-3-9-14-13/h1-9H",
        "InChIKey": null,
        "Canonical SMILES": "N1=CC=CC=2C1=CC=C3C=CC=CC32",
        "Molecular Formula": "C<sub>13</sub>H<sub>9</sub>N",
        "Molecular Mass": "179.22",
        "Boiling Point": "352 °C",
        "Melting Point": "94 °C"
    }
}