{
    "cas_no": "4270-70-6",
    "key_name": "Triphenylsulfonium chloride",
    "cn_name": "三苯基氯化硫鎓盐;三苯基氯化锍;",
    "alternate_name": "Sulfonium, triphenyl-, chloride (1:1);Sulfonium, triphenyl-, chloride;Triphenylsulfonium chloride",
    "duplicated_cas_no": "27999-91-3",
    "SMILES": "[S+](C1=CC=CC=C1)(C2=CC=CC=C2)C3=CC=CC=C3.[Cl-]",
    "meta_data": {
        "InChI": "InChI=1S/C18H15S.ClH/c1-4-10-16(11-5-1)19(17-12-6-2-7-13-17)18-14-8-3-9-15-18;/h1-15H;1H/q+1;/p-1",
        "InChIKey": null,
        "Canonical SMILES": "[Cl-].C=1C=CC(=CC1)[S+](C=2C=CC=CC2)C=3C=CC=CC3",
        "Molecular Formula": "C<sub>18</sub>H<sub>15</sub>S.Cl",
        "Molecular Mass": "",
        "Melting Point": "277 °C"
    }
}