{
    "cas_no": "26654-39-7",
    "key_name": "4,4-Dimethyl-2-oxazolidinone",
    "cn_name": "4,4-二甲基恶唑-2-酮;",
    "alternate_name": "2-Oxazolidinone, 4,4-dimethyl-;4,4-Dimethyl-2-oxazolidinone;NSC 48911;4,4-Dimethyl-1,3-oxazolidin-2-one",
    "duplicated_cas_no": "",
    "SMILES": "CC1(C)NC(=O)OC1",
    "meta_data": {
        "InChI": "InChI=1S/C5H9NO2/c1-5(2)3-8-4(7)6-5/h3H2,1-2H3,(H,6,7)",
        "InChIKey": null,
        "Canonical SMILES": "O=C1OCC(N1)(C)C",
        "Molecular Formula": "C<sub>5</sub>H<sub>9</sub>NO<sub>2</sub>",
        "Molecular Mass": "115.13",
        "Boiling Point": "152-154 °C @ Press: 10 Torr",
        "Melting Point": "55-56 °C"
    }
}