{
    "cas_no": "2258-42-6",
    "key_name": "Acetic-formic anhydride",
    "cn_name": "甲乙酐;",
    "alternate_name": "Acetic acid, anhydride with formic acid;Formic-acetic anhydride;Formyl acetic anhydride;<em>O</em>-Formyl acetate;Acetyl formyl anhydride;Acetyl formate;Acetoformic anhydride;Acetic-formic mixed anhydride;Formylacetyl anhydride;Acetic-formic anhydride",
    "duplicated_cas_no": "",
    "SMILES": "O(C(C)=O)C=O",
    "meta_data": {
        "InChI": "InChI=1S/C3H4O3/c1-3(5)6-2-4/h2H,1H3",
        "InChIKey": null,
        "Canonical SMILES": "O=COC(=O)C",
        "Molecular Formula": "C<sub>3</sub>H<sub>4</sub>O<sub>3</sub>",
        "Molecular Mass": "88.06",
        "Boiling Point": "27-28 °C @ Press: 1 Torr",
        "Melting Point": "122 °C"
    }
}