{
    "cas_no": "131986-05-5",
    "key_name": "4-Acetyl-1-naphthalenecarboxylic acid",
    "cn_name": null,
    "alternate_name": "1-Naphthalenecarboxylic acid, 4-acetyl-;4-Acetyl-1-naphthalenecarboxylic acid",
    "duplicated_cas_no": "",
    "SMILES": "C(C)(=O)C=1C2=C(C(C(O)=O)=CC1)C=CC=C2",
    "meta_data": {
        "InChI": "InChI=1S/C13H10O3/c1-8(14)9-6-7-12(13(15)16)11-5-3-2-4-10(9)11/h2-7H,1H3,(H,15,16)",
        "InChIKey": null,
        "Canonical SMILES": "O=C(O)C1=CC=C(C(=O)C)C=2C=CC=CC12",
        "Molecular Formula": "C<sub>13</sub>H<sub>10</sub>O<sub>3</sub>",
        "Molecular Mass": "214.22",
        "Melting Point": "184 °C"
    }
}