{
    "cas_no": "101-83-7",
    "key_name": "Dicyclohexylamine",
    "cn_name": "二环己胺;十二氢二苯胺;",
    "alternate_name": "Cyclohexanamine, <em>N</em>-cyclohexyl-;Dicyclohexylamine;<em>N</em>-Cyclohexylcyclohexanamine;Dodecahydrodiphenylamine;<em>N</em>,<em>N</em>-Dicyclohexylamine;Aminodicyclohexane;Bis(cyclohexyl)amine;NSC 3399;D-CHA-T",
    "duplicated_cas_no": "111487-88-8;111487-93-5;111522-94-2;157973-63-2;856793-27-6;878781-89-6",
    "SMILES": "N(C1CCCCC1)C2CCCCC2",
    "meta_data": {
        "InChI": "InChI=1S/C12H23N/c1-3-7-11(8-4-1)13-12-9-5-2-6-10-12/h11-13H,1-10H2",
        "InChIKey": null,
        "Canonical SMILES": "N(C1CCCCC1)C2CCCCC2",
        "Molecular Formula": "C<sub>12</sub>H<sub>23</sub>N",
        "Molecular Mass": "181.32",
        "Boiling Point": "255.8 °C @ Press: 760 Torr",
        "Melting Point": "-0.1 °C",
        "Density": "0.9104 g/cm³ @ Temp: 25 °C"
    }
}