{
    "cas_no": "372-09-8",
    "key_name": "Cyanoacetic acid",
    "cn_name": "氰乙酸;氰基乙酸;氰基醋酸;",
    "alternate_name": "Acetic acid, 2-cyano-;Acetic acid, cyano-;2-Cyanoacetic acid;Cyanoacetic acid;Malonic mononitrile;Monocyanoacetic acid;Cyanoethanoic acid;NSC 5571",
    "duplicated_cas_no": "",
    "SMILES": "C(C(O)=O)C#N",
    "meta_data": {
        "InChI": "InChI=1S/C3H3NO2/c4-2-1-3(5)6/h1H2,(H,5,6)",
        "InChIKey": null,
        "Canonical SMILES": "N#CCC(=O)O",
        "Molecular Formula": "C<sub>3</sub>H<sub>3</sub>NO<sub>2</sub>",
        "Molecular Mass": "85.06",
        "Boiling Point": "108 °C @ Press: 15 Torr",
        "Melting Point": "66 °C"
    }
}