{
    "cas_no": "24801-88-5",
    "key_name": "(3-Isocyanatopropyl)triethoxysilane",
    "cn_name": "异氰酸丙基三乙氧基硅烷;(3-异氰基丙基)三乙氧基硅烷;",
    "alternate_name": "Silane, triethoxy(3-isocyanatopropyl)-;Isocyanic acid, 3-(triethoxysilyl)propyl ester;Triethoxy(3-isocyanatopropyl)silane;(γ-Isocyanatopropyl)triethoxysilane;3-(Triethoxysilyl)propyl isocyanate;Y 9030;γ-(Triethoxysilyl)propyl isocyanate;I 7840;YH 9030;KBE 9007;1-(Triethoxysilyl)-3-isocyanatopropane;(3-Isocyanatopropyl)triethoxysilane;Triethoxy(γ-isocyanatopropyl)silane;Silquest A 1310;Silane A 1310;A 1310;KBM 9003;Dynasylan A 1310;UCTI 7840KG;Silquest A-Link 25;UCT 7840KG;NUC-A 1310;KBM 9007;A-Link 25;3-(Isocyanopropyl)triethoxysilane;LS 3415;Isocyanatopropyltriethoxysilane;Triethoxysilylpropyl isocyanate;3-Isocyanatopropyltriethoxysilane;SII 6455;IPTEOS;DB 907;B 0062;KH 907;CG 907;CG 907 (coupling agent);SII 6455.0;KBE 9007A;KBE 9007N;USi-SL 25;T 13;Hongtu T 13;T 13 (silane);IC 302;Silong 9907E;QX 90073",
    "duplicated_cas_no": "133556-57-7;1808177-12-9",
    "SMILES": "[Si](CCCN=C=O)(OCC)(OCC)OCC",
    "meta_data": {
        "InChI": "InChI=1S/C10H21NO4Si/c1-4-13-16(14-5-2,15-6-3)9-7-8-11-10-12/h4-9H2,1-3H3",
        "InChIKey": null,
        "Canonical SMILES": "O=C=NCCC[Si](OCC)(OCC)OCC",
        "Molecular Formula": "C<sub>10</sub>H<sub>21</sub>NO<sub>4</sub>Si",
        "Molecular Mass": "247.36",
        "Boiling Point": "130 °C @ Press: 20 Torr",
        "Density": "0.990 g/cm³"
    }
}