{
    "cas_no": "123-34-2",
    "key_name": "3-(Allyloxy)-1,2-propanediol",
    "cn_name": "3-烯丙氧基-1,2-丙二醇;",
    "alternate_name": "1,2-Propanediol, 3-(2-propen-1-yloxy)-;1,2-Propanediol, 3-(allyloxy)-;1,2-Propanediol, 3-(2-propenyloxy)-;3-(2-Propen-1-yloxy)-1,2-propanediol;1-(Allyloxy)-2,3-propanediol;Glycerol α-monoallyl ether;Glycerol α-allyl ether;Glycerol 1-monoallyl ether;Glycerin 1-allyl ether;3-(Allyloxy)-1,2-propanediol;1-Allyloxy-2,3-dihydroxypropane;3-(2-Propenyloxy)-1,2-propanediol;NSC 59722;Glycerol 1-allyl ether;Allyl chlorohydrin ether;1-<em>O</em>-Prop-2-enylglycerol;1-<em>O</em>-Allylglycerol;α-Allyl glycerol ether;3-Prop-2-enoxypropane-1,2-diol",
    "duplicated_cas_no": "90940-93-5",
    "SMILES": "C(COCC=C)(CO)O",
    "meta_data": {
        "InChI": "InChI=1S/C6H12O3/c1-2-3-9-5-6(8)4-7/h2,6-8H,1,3-5H2",
        "InChIKey": null,
        "Canonical SMILES": "OCC(O)COCC=C",
        "Molecular Formula": "C<sub>6</sub>H<sub>12</sub>O<sub>3</sub>",
        "Molecular Mass": "132.16",
        "Boiling Point": "107-109 °C @ Press: 4.3-4.5 Torr",
        "Melting Point": "-100--90 °C",
        "Density": "1.061 g/cm³ @ Temp: 30 °C"
    }
}