{
    "cas_no": "646-30-0",
    "key_name": "Nonadecanoic acid",
    "cn_name": "十九酸;",
    "alternate_name": "Nonadecanoic acid;<em>n</em>-Nonadecylic acid;<em>n</em>-Nonadecanoic acid;NSC 11914;Nonadecylic acid",
    "duplicated_cas_no": "",
    "SMILES": "C(CCCCCCCCCCCC)CCCCCC(O)=O",
    "meta_data": {
        "InChI": "InChI=1S/C19H38O2/c1-2-3-4-5-6-7-8-9-10-11-12-13-14-15-16-17-18-19(20)21/h2-18H2,1H3,(H,20,21)",
        "InChIKey": null,
        "Canonical SMILES": "O=C(O)CCCCCCCCCCCCCCCCCC",
        "Molecular Formula": "C<sub>19</sub>H<sub>38</sub>O<sub>2</sub>",
        "Molecular Mass": "298.50",
        "Boiling Point": "300 °C",
        "Melting Point": "69.4 °C"
    }
}