{
    "cas_no": "2769-71-3",
    "key_name": "2,6-Dimethylphenyl isocyanide",
    "cn_name": null,
    "alternate_name": "Benzene, 2-isocyano-1,3-dimethyl-;2,6-Xylyl isocyanide;2-Isocyano-1,3-dimethylbenzene;2,6-Dimethylphenyl isocyanide;2,6-Dimethylphenylisonitrile;2,6-Xylene isonitrile;2-<em>m</em>-Xylyl isocyanide;1-Isocyano-2,6-dimethylbenzene;2,6-Dimethylisocyanobenzene;2,6-Xylyl isonitrile;NSC 141690",
    "duplicated_cas_no": "119072-54-7;182361-64-4;1522362-76-0",
    "SMILES": "[N+](#[C-])C1=C(C)C=CC=C1C",
    "meta_data": {
        "InChI": "InChI=1S/C9H9N/c1-7-5-4-6-8(2)9(7)10-3/h4-6H,1-2H3",
        "InChIKey": null,
        "Canonical SMILES": "[C-]#[N+]C=1C(=CC=CC1C)C",
        "Molecular Formula": "C<sub>9</sub>H<sub>9</sub>N",
        "Molecular Mass": "",
        "Boiling Point": "50-53 °C @ Press: 0.01 Torr",
        "Melting Point": "72.5-74 °C"
    }
}