{
    "cas_no": "41653-72-9",
    "key_name": "(1<em>R</em>)-1,7-Dihydroxy-1,6-dimethyl-4-(1-methylethyl)-2(1<em>H</em>)-naphthalenone",
    "cn_name": null,
    "alternate_name": "2(1<em>H</em>)-Naphthalenone, 1,7-dihydroxy-1,6-dimethyl-4-(1-methylethyl)-, (1<em>R</em>)-;2(1<em>H</em>)-Naphthalenone, 1,7-dihydroxy-1,6-dimethyl-4-(1-methylethyl)-, (<em>R</em>)-;(1<em>R</em>)-1,7-Dihydroxy-1,6-dimethyl-4-(1-methylethyl)-2(1<em>H</em>)-naphthalenone;Lacinilene C;(+)-Lacinilene C",
    "duplicated_cas_no": "",
    "SMILES": "C(C)(C)C=1C=2C([C@@](C)(O)C(=O)C1)=CC(O)=C(C)C2",
    "meta_data": {
        "InChI": "InChI=1S/C15H18O3/c1-8(2)10-6-14(17)15(4,18)12-7-13(16)9(3)5-11(10)12/h5-8,16,18H,1-4H3/t15-/m1/s1",
        "InChIKey": null,
        "Canonical SMILES": "O=C1C=C(C=2C=C(C(O)=CC2C1(O)C)C)C(C)C",
        "Molecular Formula": "C<sub>15</sub>H<sub>18</sub>O<sub>3</sub>",
        "Molecular Mass": "246.30",
        "Melting Point": "92-93 °C"
    }
}