{
    "cas_no": "19982-08-2",
    "key_name": "Memantine",
    "cn_name": "3,5-二甲基金刚胺;美金刚胺;",
    "alternate_name": "Tricyclo[3.3.1.1<sup>3,7</sup>]decan-1-amine, 3,5-dimethyl-;1-Adamantanamine, 3,5-dimethyl-;3,5-Dimethyltricyclo[3.3.1.1<sup>3,7</sup>]decan-1-amine;1,3-Dimethyl-5-aminoadamantane;3,5-Dimethyl-1-adamantylamine;D 145;1-Amino-3,5-dimethyladamantane;1,3-Dimethyl-5-adamantanamine;Memantine;D 145 (sympathomimetic);DMAA;DRG 0267;Memantina;Alzantin;3,5-Dimethyl-1-adamantanamine;3,5-Dimethyl-adamantan-1-ylamine;Nemdatine;TGN-S 13;MeSH ID: D008559",
    "duplicated_cas_no": "51052-62-1",
    "SMILES": "CC12CC3(C)CC(N)(C1)CC(C2)C3",
    "meta_data": {
        "InChI": "InChI=1S/C12H21N/c1-10-3-9-4-11(2,6-10)8-12(13,5-9)7-10/h9H,3-8,13H2,1-2H3",
        "InChIKey": null,
        "Canonical SMILES": "NC12CC3CC(C)(C1)CC(C)(C3)C2",
        "Molecular Formula": "C<sub>12</sub>H<sub>21</sub>N",
        "Molecular Mass": "179.30",
        "Melting Point": "258 °C"
    }
}