{
    "cas_no": "20532-33-6",
    "key_name": "5-Chlorobenzo[<em>b</em>]thiophene",
    "cn_name": "5-氯苯并噻吩;",
    "alternate_name": "Benzo[<em>b</em>]thiophene, 5-chloro-;5-Chlorobenzo[<em>b</em>]thiophene;5-Chlorobenzothiophene",
    "duplicated_cas_no": "",
    "SMILES": "ClC=1C=C2C(=CC1)SC=C2",
    "meta_data": {
        "InChI": "InChI=1S/C8H5ClS/c9-7-1-2-8-6(5-7)3-4-10-8/h1-5H",
        "InChIKey": null,
        "Canonical SMILES": "ClC=1C=CC=2SC=CC2C1",
        "Molecular Formula": "C<sub>8</sub>H<sub>5</sub>ClS",
        "Molecular Mass": "168.64",
        "Boiling Point": "85 °C @ Press: 4 Torr"
    }
}