{
    "cas_no": "60940-34-3",
    "key_name": "Ebselen",
    "cn_name": "依布硒;依布硒啉;",
    "alternate_name": "1,2-Benzisoselenazol-3(2<em>H</em>)-one, 2-phenyl-;2-Phenyl-1,2-benzisoselenazol-3(2<em>H</em>)-one;PZ 51;Ebselen;2-Phenyl-1,2-benzoisoselenazol-3(2<em>H</em>)-one;NSC 639762;Lopac E 3520;CCG-39161;DR 3305;SPI 1005;2-Phenyl-1,2-benzoselenazol-3-one;2-Phenylbenzo[<em>d</em>][1,2]selenazol-3(2<em>H</em>)-one",
    "duplicated_cas_no": "",
    "SMILES": "O=C1N([Se]C=2C1=CC=CC2)C3=CC=CC=C3",
    "meta_data": {
        "InChI": "InChI=1S/C13H9NOSe/c15-13-11-8-4-5-9-12(11)16-14(13)10-6-2-1-3-7-10/h1-9H",
        "InChIKey": null,
        "Canonical SMILES": "O=C1C=2C=CC=CC2[Se]N1C=3C=CC=CC3",
        "Molecular Formula": "C<sub>13</sub>H<sub>9</sub>NOSe",
        "Molecular Mass": "274.18",
        "Melting Point": "181-182 °C"
    }
}