{
    "cas_no": "1462-84-6",
    "key_name": "2,3,6-Trimethylpyridine",
    "cn_name": null,
    "alternate_name": "Pyridine, 2,3,6-trimethyl-;2,3,6-Trimethylpyridine;2,3,6-Collidine;NSC 76593",
    "duplicated_cas_no": "",
    "SMILES": "CC1=C(C)C=CC(C)=N1",
    "meta_data": {
        "InChI": "InChI=1S/C8H11N/c1-6-4-5-7(2)9-8(6)3/h4-5H,1-3H3",
        "InChIKey": null,
        "Canonical SMILES": "N=1C(=CC=C(C1C)C)C",
        "Molecular Formula": "C<sub>8</sub>H<sub>11</sub>N",
        "Molecular Mass": "121.18",
        "Boiling Point": "171.6 °C",
        "Melting Point": "143-144 °C",
        "Density": "0.9220 g/cm³ @ Temp: 25 °C"
    }
}