{
    "cas_no": "5460-79-7",
    "key_name": "4-(3-Methoxyphenyl)-1-methyl-4-piperidinecarbonitrile",
    "cn_name": "4-氰基-4-(3-甲氧苯基)-1-甲基哌啶;",
    "alternate_name": "4-Piperidinecarbonitrile, 4-(3-methoxyphenyl)-1-methyl-;Isonipecotonitrile, 4-(<em>m</em>-methoxyphenyl)-1-methyl-;4-(3-Methoxyphenyl)-1-methyl-4-piperidinecarbonitrile;4-Cyano-4-<em>m</em>-methoxyphenyl-1-methylpiperidine;NSC 21330;1-Methyl-4-cyano-4-(3-methoxyphenyl)piperidine",
    "duplicated_cas_no": "50833-63-1",
    "SMILES": "C(#N)C1(CCN(C)CC1)C2=CC(OC)=CC=C2",
    "meta_data": {
        "InChI": "InChI=1S/C14H18N2O/c1-16-8-6-14(11-15,7-9-16)12-4-3-5-13(10-12)17-2/h3-5,10H,6-9H2,1-2H3",
        "InChIKey": null,
        "Canonical SMILES": "N#CC1(C=2C=CC=C(OC)C2)CCN(C)CC1",
        "Molecular Formula": "C<sub>14</sub>H<sub>18</sub>N<sub>2</sub>O",
        "Molecular Mass": "230.31",
        "Boiling Point": "196-197 °C @ Press: 12 Torr",
        "Melting Point": "40 °C"
    }
}