{
    "cas_no": "122455-85-0",
    "key_name": "5-Amino-4-fluoro-2-methylphenol",
    "cn_name": null,
    "alternate_name": "Phenol, 5-amino-4-fluoro-2-methyl-;5-Amino-4-fluoro-2-methylphenol;2-Methyl-4-fluoro-5-aminophenol;3-Amino-4-fluoro-6-methylphenol;2-Fluoro-5-hydroxy-4-methylaniline",
    "duplicated_cas_no": "",
    "SMILES": "CC1=C(O)C=C(N)C(F)=C1",
    "meta_data": {
        "InChI": "InChI=1S/C7H8FNO/c1-4-2-5(8)6(9)3-7(4)10/h2-3,10H,9H2,1H3",
        "InChIKey": null,
        "Canonical SMILES": "FC1=CC(=C(O)C=C1N)C",
        "Molecular Formula": "C<sub>7</sub>H<sub>8</sub>FNO",
        "Molecular Mass": "141.14",
        "Melting Point": "147 °C"
    }
}