{
    "cas_no": "4506-71-2",
    "key_name": "Ethyl 2-amino-4,5,6,7-tetrahydrobenzo[<em>b</em>]thiophene-3-carboxylate",
    "cn_name": null,
    "alternate_name": "Benzo[<em>b</em>]thiophene-3-carboxylic acid, 2-amino-4,5,6,7-tetrahydro-, ethyl ester;Ethyl 2-amino-4,5,6,7-tetrahydrobenzo[<em>b</em>]thiophene-3-carboxylate;2-Amino-3-carboethoxy-4,5-tetramethylenethiophene;2-Amino-3-(ethoxycarbonyl)-4,5-tetramethylenethiophene;2-Amino-4,5,6,7-tetrahydrobenzo[<em>b</em>]thiophene-3-carboxylic acid ethyl ester;NSC 99005;Ethyl 2-amino-4,5,6,7-tetrahydrobenzothiophene-3-carboxylate;2-Amino-4,5,6,7-tetrahydro-3-ethoxycarbonylbenzothiophene;2-Amino-3-ethoxycarbonyl-4,5,6,7-tetrahydrobenzo[<em>b</em>]thiophene;Ethyl 2-amino-4,5,6,7-tetrahydro-1-benzothiophene-3-carboxylate;2-Amino-4,5,6,7-tetrahydrobenzothiophene-3-carboxylic acid ethyl ester",
    "duplicated_cas_no": "159852-75-2;372175-23-0",
    "SMILES": "C(OCC)(=O)C=1C2=C(SC1N)CCCC2",
    "meta_data": {
        "InChI": "InChI=1S/C11H15NO2S/c1-2-14-11(13)9-7-5-3-4-6-8(7)15-10(9)12/h2-6,12H2,1H3",
        "InChIKey": null,
        "Canonical SMILES": "O=C(OCC)C1=C(SC2=C1CCCC2)N",
        "Molecular Formula": "C<sub>11</sub>H<sub>15</sub>NO<sub>2</sub>S",
        "Molecular Mass": "225.31",
        "Melting Point": "117-118 °C"
    }
}