{
    "cas_no": "21731-56-6",
    "key_name": "4-(Methylsulfonyl)-2-nitrobenzenamine",
    "cn_name": null,
    "alternate_name": "Benzenamine, 4-(methylsulfonyl)-2-nitro-;Aniline, 4-(methylsulfonyl)-2-nitro-;4-(Methylsulfonyl)-2-nitrobenzenamine;4-(Methylsulfonyl)-2-nitroaniline;1-Amino-4-methylsulfonyl-2-nitrobenzene;4-Amino-3-nitrophenyl methyl sulfone",
    "duplicated_cas_no": "",
    "SMILES": "N(=O)(=O)C1=CC(S(C)(=O)=O)=CC=C1N",
    "meta_data": {
        "InChI": "InChI=1S/C7H8N2O4S/c1-14(12,13)5-2-3-6(8)7(4-5)9(10)11/h2-4H,8H2,1H3",
        "InChIKey": null,
        "Canonical SMILES": "O=N(=O)C1=CC(=CC=C1N)S(=O)(=O)C",
        "Molecular Formula": "C<sub>7</sub>H<sub>8</sub>N<sub>2</sub>O<sub>4</sub>S",
        "Molecular Mass": "216.21",
        "Melting Point": "198-199 °C"
    }
}