{
    "cas_no": "14807-75-1",
    "key_name": "Thioperoxydicarbonimidic diamide ([(H<sub>2</sub>N)C(NH)]<sub>2</sub>S<sub>2</sub>), hydrochloride (1:2)",
    "cn_name": "二硫化甲脒二盐酸盐;甲脒二硫化物二盐酸盐;",
    "alternate_name": "Thioperoxydicarbonimidic diamide ([(H<sub>2</sub>N)C(NH)]<sub>2</sub>S<sub>2</sub>), hydrochloride (1:2);Formamidine, 1,1′-dithiodi-, dihydrochloride;Thioperoxydicarbonimidic diamide ([(H<sub>2</sub>N)C(NH)]<sub>2</sub>S<sub>2</sub>), dihydrochloride;1,1′-Dithiodiformamidine hydrochloride;Formamidine disulfide dihydrochloride;Dithioformamidine dihydrochloride;Diformamidine disulfide dihydrochloride;α,α′-Dithiobisformamidinium dichloride;<em>C</em>,<em>C</em>′-Dithiodiformamidinium dichloride;Dithiobis[diaminomethylcarbonium chloride]",
    "duplicated_cas_no": "35468-36-1;68750-12-9;1089316-15-3",
    "SMILES": "S(SC(=N)N)C(=N)N.Cl",
    "meta_data": {
        "InChI": "InChI=1S/C2H6N4S2.2ClH/c3-1(4)7-8-2(5)6;;/h(H3,3,4)(H3,5,6);2*1H",
        "InChIKey": null,
        "Canonical SMILES": "Cl.N=C(SSC(=N)N)N",
        "Molecular Formula": "C<sub>2</sub>H<sub>6</sub>N<sub>4</sub>S<sub>2</sub>.2ClH",
        "Molecular Mass": "",
        "Melting Point": "173-174 °C (decomp)"
    }
}