{
    "cas_no": "6601-62-3",
    "key_name": "Cirsimaritin",
    "cn_name": null,
    "alternate_name": "4<em>H</em>-1-Benzopyran-4-one, 5-hydroxy-2-(4-hydroxyphenyl)-6,7-dimethoxy-;Flavone, 4′,5-dihydroxy-6,7-dimethoxy-;5-Hydroxy-2-(4-hydroxyphenyl)-6,7-dimethoxy-4<em>H</em>-1-benzopyran-4-one;Cirsimaritin;Scrophulein;6-Methoxygenkwanin;6,7-Dimethoxyscutellarein;Circimaritin;Cirsitakaogenin;7-Methylcapillarisin;Cirsumaritin;6-Methoxyapigenin 7-methyl ether;5,4′-Dihydroxy-6,7-dimethoxyflavone;Scutellarein 6,7-dimethyl ether;Skrofulein;4′,5-Dihydroxy-6,7-dimethoxyflavone",
    "duplicated_cas_no": "",
    "SMILES": "OC1=C2C(OC(=CC2=O)C3=CC=C(O)C=C3)=CC(OC)=C1OC",
    "meta_data": {
        "InChI": "InChI=1S/C17H14O6/c1-21-14-8-13-15(16(20)17(14)22-2)11(19)7-12(23-13)9-3-5-10(18)6-4-9/h3-8,18,20H,1-2H3",
        "InChIKey": null,
        "Canonical SMILES": "O=C1C=C(OC=2C=C(OC)C(OC)=C(O)C12)C=3C=CC(O)=CC3",
        "Molecular Formula": "C<sub>17</sub>H<sub>14</sub>O<sub>6</sub>",
        "Molecular Mass": "314.29",
        "Melting Point": "257 °C"
    }
}