{
    "cas_no": "99300-78-4",
    "key_name": "Venlafaxine hydrochloride",
    "cn_name": "盐酸文拉法辛;(R/S)-1-[2-(二甲胺)-1-(4-甲氧苯基)乙基]环己醇盐酸盐;",
    "alternate_name": "Cyclohexanol, 1-[2-(dimethylamino)-1-(4-methoxyphenyl)ethyl]-, hydrochloride (1:1);Cyclohexanol, 1-[2-(dimethylamino)-1-(4-methoxyphenyl)ethyl]-, hydrochloride;Wy 45030;Venlafaxine hydrochloride;Effexor;Efexor;Wy 4530;Venlafaxin hydrochloride;Ventab XL;Vexor;Venlift;VENIZ-XR;VENTAB;1-(2-(Dimethylamino)-1-(4-methoxyphenyl)ethyl)cyclohexanol hydrochloride;Effexor XR",
    "duplicated_cas_no": "93413-78-6",
    "SMILES": "C(CN(C)C)(C1(O)CCCCC1)C2=CC=C(OC)C=C2.Cl",
    "meta_data": {
        "InChI": "InChI=1S/C17H27NO2.ClH/c1-18(2)13-16(17(19)11-5-4-6-12-17)14-7-9-15(20-3)10-8-14;/h7-10,16,19H,4-6,11-13H2,1-3H3;1H",
        "InChIKey": null,
        "Canonical SMILES": "Cl.OC1(CCCCC1)C(C2=CC=C(OC)C=C2)CN(C)C",
        "Molecular Formula": "C<sub>17</sub>H<sub>27</sub>NO<sub>2</sub>.ClH",
        "Molecular Mass": "",
        "Melting Point": "215-217 °C",
        "Density": "1.07 g/cm³ (solid)"
    }
}