{
    "cas_no": "13156-95-1",
    "key_name": "2-Chloro-<em>N</em>-(2-phenylethyl)acetamide",
    "cn_name": null,
    "alternate_name": "Acetamide, 2-chloro-<em>N</em>-(2-phenylethyl)-;Acetamide, 2-chloro-<em>N</em>-phenethyl-;2-Chloro-<em>N</em>-(2-phenylethyl)acetamide;<em>N</em>-Phenethylchloroacetamide;NSC 8377;2-Chloro-<em>N</em>-phenethylacetamide;<em>N</em>-(2-Phenylethyl)-2-chloroacetamide",
    "duplicated_cas_no": "",
    "SMILES": "C(CNC(CCl)=O)C1=CC=CC=C1",
    "meta_data": {
        "InChI": "InChI=1S/C10H12ClNO/c11-8-10(13)12-7-6-9-4-2-1-3-5-9/h1-5H,6-8H2,(H,12,13)",
        "InChIKey": null,
        "Canonical SMILES": "O=C(NCCC=1C=CC=CC1)CCl",
        "Molecular Formula": "C<sub>10</sub>H<sub>12</sub>ClNO",
        "Molecular Mass": "197.66",
        "Boiling Point": "186-189 °C @ Press: 14 Torr",
        "Melting Point": "67 °C"
    }
}