{
    "cas_no": "105-14-6",
    "key_name": "5-(Diethylamino)-2-pentanone",
    "cn_name": "5-二乙氨基-2-戊酮;",
    "alternate_name": "2-Pentanone, 5-(diethylamino)-;5-(Diethylamino)-2-pentanone;Novol ketone;Novalketone;NSC 6320;<em>N</em>,<em>N</em>-Diethyl-4-oxopentanamine",
    "duplicated_cas_no": "",
    "SMILES": "N(CCCC(C)=O)(CC)CC",
    "meta_data": {
        "InChI": "InChI=1S/C9H19NO/c1-4-10(5-2)8-6-7-9(3)11/h4-8H2,1-3H3",
        "InChIKey": null,
        "Canonical SMILES": "O=C(C)CCCN(CC)CC",
        "Molecular Formula": "C<sub>9</sub>H<sub>19</sub>NO",
        "Molecular Mass": "157.25",
        "Boiling Point": "94-95 °C @ Press: 20 Torr"
    }
}