{
    "cas_no": "2524-64-3",
    "key_name": "Diphenyl chlorophosphate",
    "cn_name": "氯磷酸二苯酯;",
    "alternate_name": "Phosphorochloridic acid, diphenyl ester;Phenyl phosphorochloridite;Diphenyl phosphorochloridate;Phenyl phosphorochloridate ((PhO)<sub>2</sub>ClPO);Diphenyl phosphochloridate;Diphenyl chlorophosphate;Diphenoxychlorophosphine oxide;Chlorodiphenoxyphosphine oxide;Diphenylphosphoric acid monochloride;Phosphoric acid chloride diphenyl ester;<em>O</em>,<em>O</em>-Diphenyl chlorophosphate;DPPC;Chlorophosphonic acid diphenyl ester;Diphenyl phosphorochlorate;Diphenylphosphoryl chloride;DPC;DPC (flame retardant);NSC 43771;Diphenyl chlorophosphonate;Diphenyl phosphate chloride;[Chloro(phenoxy)phosphoryl]oxybenzene",
    "duplicated_cas_no": "103137-47-9",
    "SMILES": "O(P(OC1=CC=CC=C1)(Cl)=O)C2=CC=CC=C2",
    "meta_data": {
        "InChI": "InChI=1S/C12H10ClO3P/c13-17(14,15-11-7-3-1-4-8-11)16-12-9-5-2-6-10-12/h1-10H",
        "InChIKey": null,
        "Canonical SMILES": "O=P(Cl)(OC=1C=CC=CC1)OC=2C=CC=CC2",
        "Molecular Formula": "C<sub>12</sub>H<sub>10</sub>ClO<sub>3</sub>P",
        "Molecular Mass": "268.63",
        "Boiling Point": "150-153 °C @ Press: 1 Torr",
        "Density": "1.2957 g/cm³ @ Temp: 20 °C"
    }
}