{
    "cas_no": "701-82-6",
    "key_name": "<em>N</em>-(3-Hydroxyphenyl)urea",
    "cn_name": "3-羟苯基脲;",
    "alternate_name": "Urea, <em>N</em>-(3-hydroxyphenyl)-;Urea, (<em>m</em>-hydroxyphenyl)-;Urea, (3-hydroxyphenyl)-;<em>N</em>-(3-Hydroxyphenyl)urea;(3-Hydroxyphenyl)urea;<em>m</em>-Hydroxyphenylurea;3-Ureidophenol;1-(3-Hydroxyphenyl)urea;NSC 14672;NSC 60733",
    "duplicated_cas_no": "",
    "SMILES": "N(C(N)=O)C1=CC(O)=CC=C1",
    "meta_data": {
        "InChI": "InChI=1S/C7H8N2O2/c8-7(11)9-5-2-1-3-6(10)4-5/h1-4,10H,(H3,8,9,11)",
        "InChIKey": null,
        "Canonical SMILES": "O=C(N)NC=1C=CC=C(O)C1",
        "Molecular Formula": "C<sub>7</sub>H<sub>8</sub>N<sub>2</sub>O<sub>2</sub>",
        "Molecular Mass": "152.15",
        "Melting Point": "175-177 °C"
    }
}