{
    "cas_no": "2523-55-9",
    "key_name": "<em>trans</em>-4-Methylcyclohexylamine",
    "cn_name": null,
    "alternate_name": "Cyclohexanamine, 4-methyl-, <em>trans</em>-;Cyclohexylamine, 4-methyl-, <em>trans</em>-;<em>trans</em>-4-Methylcyclohexanamine;<em>trans</em>-4-Methylcyclohexylamine;<em>trans</em>-4-Methyl-1-cyclohexylamine;<em>trans</em>-1-Amino-4-methylcyclohexane;4-<em>trans</em>-Methylcyclohexylamine;<em>trans</em>-4-Methyl-1-cyclohexanamine",
    "duplicated_cas_no": "",
    "SMILES": "C[C@H]1CC[C@H](N)CC1",
    "meta_data": {
        "InChI": "InChI=1/C7H15N/c1-6-2-4-7(8)5-3-6/h6-7H,2-5,8H2,1H3/t6-,7-",
        "InChIKey": null,
        "Canonical SMILES": "NC1CCC(C)CC1",
        "Molecular Formula": "C<sub>7</sub>H<sub>15</sub>N",
        "Molecular Mass": "113.20",
        "Boiling Point": "72-73 °C @ Press: 50 Torr"
    }
}