{
    "cas_no": "13223-25-1",
    "key_name": "2-Chloro-4,6-dimethoxypyrimidine",
    "cn_name": "2-氯-4,6-二甲氧基嘧啶;",
    "alternate_name": "Pyrimidine, 2-chloro-4,6-dimethoxy-;2-Chloro-4,6-dimethoxypyrimidine;4,6-Dimethoxy-2-chloropyrimidine",
    "duplicated_cas_no": "",
    "SMILES": "O(C)C=1C=C(OC)N=C(Cl)N1",
    "meta_data": {
        "InChI": "InChI=1S/C6H7ClN2O2/c1-10-4-3-5(11-2)9-6(7)8-4/h3H,1-2H3",
        "InChIKey": null,
        "Canonical SMILES": "ClC=1N=C(OC)C=C(N1)OC",
        "Molecular Formula": "C<sub>6</sub>H<sub>7</sub>ClN<sub>2</sub>O<sub>2</sub>",
        "Molecular Mass": "174.59",
        "Melting Point": "102 °C"
    }
}