{
    "cas_no": "624-45-3",
    "key_name": "Methyl levulinate",
    "cn_name": "乙酰丙酸甲酯;",
    "alternate_name": "Pentanoic acid, 4-oxo-, methyl ester;Levulinic acid, methyl ester;Methyl levulinate;Methyl 4-oxopentanoate;Methyl levulate;4-Oxopentanoic acid methyl ester;Methyl 4-oxovalerate;Methyl β-acetylpropionate;NSC 24874;4-Oxovaleric acid methyl ester",
    "duplicated_cas_no": "1790637-13-6",
    "SMILES": "C(CCC(C)=O)(OC)=O",
    "meta_data": {
        "InChI": "InChI=1S/C6H10O3/c1-5(7)3-4-6(8)9-2/h3-4H2,1-2H3",
        "InChIKey": null,
        "Canonical SMILES": "O=C(OC)CCC(=O)C",
        "Molecular Formula": "C<sub>6</sub>H<sub>10</sub>O<sub>3</sub>",
        "Molecular Mass": "130.14",
        "Boiling Point": "196 °C",
        "Density": "1.05113 g/cm³ @ Temp: 20 °C"
    }
}