{
    "cas_no": "3392-05-0",
    "key_name": "<em>tert</em>-Butyloxycarbonyl-<span class=\"text-smallcaps\">L</span>-alanine-<em>N</em>-hydroxysuccinimide",
    "cn_name": "Boc-L-丙氨酸N-丁二酰亚胺酯;叔丁氧羰基-L-丙氨酸N-丁二酰亚胺酯;",
    "alternate_name": "<span class=\"text-smallcaps\">L</span>-Alanine, <em>N</em>-[(1,1-dimethylethoxy)carbonyl]-, 2,5-dioxo-1-pyrrolidinyl ester;Succinimide, <em>N</em>-[(<em>N</em>-carboxy-<span class=\"text-smallcaps\">L</span>-alanyl)oxy]-, <em>tert</em>-butyl ester;Carbamic acid, [2-[(2,5-dioxo-1-pyrrolidinyl)oxy]-1-methyl-2-oxoethyl]-, 1,1-dimethylethyl ester, (<em>S</em>)-;Carbamic acid, [(1<em>S</em>)-2-[(2,5-dioxo-1-pyrrolidinyl)oxy]-1-methyl-2-oxoethyl]-, 1,1-dimethylethyl ester;Alanine, <em>N</em>-carboxy-, <em>N</em>-<em>tert</em>-butyl ester, succinimido deriv., <span class=\"text-smallcaps\">L</span>-;<span class=\"text-smallcaps\">L</span>-Alanine, 2,5-pyrrolidinedione deriv.;<em>N</em>-<em>tert</em>-Butoxycarbonyl-<span class=\"text-smallcaps\">L</span>-alanine <em>N</em>-hydroxysuccinimide ester;<em>tert</em>-Butoxycarbonyl-<span class=\"text-smallcaps\">L</span>-alanine succinimido ester;<em>N</em>-<em>tert</em>-Butyloxycarbonyl-<span class=\"text-smallcaps\">L</span>-alanine <em>N</em>-hydroxysuccinimide ester;<em>tert</em>-Butyloxycarbonyl-<span class=\"text-smallcaps\">L</span>-alanine-<em>N</em>-hydroxysuccinimide;NSC 334372;<em>tert</em>-Butyloxycarbonyl-<span class=\"text-smallcaps\">L</span>-alanine <em>N</em>-hydroxysuccinimide ester;(<em>S</em>)-2,5-Dioxopyrrolidin-1-yl 2-((<em>tert</em>-butoxycarbonyl)amino)propanoate;2,5-Dioxopyrrolidin-1-yl (<em>tert</em>-butoxycarbonyl)-<span class=\"text-smallcaps\">L</span>-alaninate",
    "duplicated_cas_no": "",
    "SMILES": "O(C([C@@H](NC(OC(C)(C)C)=O)C)=O)N1C(=O)CCC1=O",
    "meta_data": {
        "InChI": "InChI=1S/C12H18N2O6/c1-7(13-11(18)19-12(2,3)4)10(17)20-14-8(15)5-6-9(14)16/h7H,5-6H2,1-4H3,(H,13,18)/t7-/m0/s1",
        "InChIKey": null,
        "Canonical SMILES": "O=C(OC(C)(C)C)NC(C(=O)ON1C(=O)CCC1=O)C",
        "Molecular Formula": "C<sub>12</sub>H<sub>18</sub>N<sub>2</sub>O<sub>6</sub>",
        "Molecular Mass": "286.28",
        "Melting Point": "143-144 °C"
    }
}