{
    "cas_no": "120983-64-4",
    "key_name": "α-(1-Chlorocyclopropyl)-α-[(2-chlorophenyl)methyl]-1<em>H</em>-1,2,4-triazole-1-ethanol",
    "cn_name": null,
    "alternate_name": "1<em>H</em>-1,2,4-Triazole-1-ethanol, α-(1-chlorocyclopropyl)-α-[(2-chlorophenyl)methyl]-;α-(1-Chlorocyclopropyl)-α-[(2-chlorophenyl)methyl]-1<em>H</em>-1,2,4-triazole-1-ethanol;Prothioconazole-desthio;2-(1-Chlorocyclopropyl)-1-(2-chlorophenyl)-3-(1,3-dihydro-1,2,4-triazol-2-yl)propan-2-ol",
    "duplicated_cas_no": "952418-21-2",
    "SMILES": "C(CC1=C(Cl)C=CC=C1)(CN2C=NC=N2)(O)C3(Cl)CC3",
    "meta_data": {
        "InChI": "InChI=1S/C14H15Cl2N3O/c15-12-4-2-1-3-11(12)7-14(20,13(16)5-6-13)8-19-10-17-9-18-19/h1-4,9-10,20H,5-8H2",
        "InChIKey": null,
        "Canonical SMILES": "ClC=1C=CC=CC1CC(O)(CN2N=CN=C2)C3(Cl)CC3",
        "Molecular Formula": "C<sub>14</sub>H<sub>15</sub>Cl<sub>2</sub>N<sub>3</sub>O",
        "Molecular Mass": "312.19",
        "Melting Point": "108 °C"
    }
}