{
    "cas_no": "10199-61-8",
    "key_name": "Ethyl 1<em>H</em>-pyrazole-1-acetate",
    "cn_name": null,
    "alternate_name": "1<em>H</em>-Pyrazole-1-acetic acid, ethyl ester;Pyrazole-1-acetic acid, ethyl ester;Ethyl 1<em>H</em>-pyrazole-1-acetate;Ethyl 1-pyrazoleacetate;Ethyl 2-(1<em>H</em>-pyrazol-1-yl)acetate",
    "duplicated_cas_no": "",
    "SMILES": "C(C(OCC)=O)N1C=CC=N1",
    "meta_data": {
        "InChI": "InChI=1S/C7H10N2O2/c1-2-11-7(10)6-9-5-3-4-8-9/h3-5H,2,6H2,1H3",
        "InChIKey": null,
        "Canonical SMILES": "O=C(OCC)CN1N=CC=C1",
        "Molecular Formula": "C<sub>7</sub>H<sub>10</sub>N<sub>2</sub>O<sub>2</sub>",
        "Molecular Mass": "154.17",
        "Boiling Point": "130 °C @ Press: 20 Torr"
    }
}