{
    "cas_no": "157-06-2",
    "key_name": "<span class=\"text-smallcaps\">D</span>-Arginine",
    "cn_name": "D-精氨酸;D-2-氨基-5-胍基戊酸;",
    "alternate_name": "<span class=\"text-smallcaps\">D</span>-Arginine;Arginine, <span class=\"text-smallcaps\">D</span>-;(<em>R</em>)-Arginine;(2R)-2-Amino-5-(diaminomethylideneamino)pentanoic acid;(R)-2-Amino-5-guanidinopentanoic acid;(2R)-2-Amino-5-carbamimidamidopentanoic acid;(2R)-2-Amino-5-[(diaminomethylidene)amino]pentanoic acid",
    "duplicated_cas_no": "134309-35-6",
    "SMILES": "C(CCNC(=N)N)[C@H](C(O)=O)N",
    "meta_data": {
        "InChI": "InChI=1S/C6H14N4O2/c7-4(5(11)12)2-1-3-10-6(8)9/h4H,1-3,7H2,(H,11,12)(H4,8,9,10)/t4-/m1/s1",
        "InChIKey": null,
        "Canonical SMILES": "O=C(O)C(N)CCCNC(=N)N",
        "Molecular Formula": "C<sub>6</sub>H<sub>14</sub>N<sub>4</sub>O<sub>2</sub>",
        "Molecular Mass": "174.20",
        "Melting Point": "238 °C"
    }
}