{
    "cas_no": "26725-51-9",
    "key_name": "4-Hydroxybenzotriazole",
    "cn_name": "4-羟基苯并三唑;4-羟基苯并三唑,98%;4-羟基苯并三唑;",
    "alternate_name": "1<em>H</em>-Benzotriazol-7-ol;1<em>H</em>-Benzotriazol-4-ol;Benzotriazol-4-ol;4-Hydroxybenzotriazole;4-Hydroxy-1<em>H</em>-benzotriazole;1<em>H</em>-1,2,3-Benzotriazol-4-ol;1<em>H</em>-1,2,3-Benzotriazol-7-ol;2<em>H</em>-1,2,3-Benzotriazol-4-ol",
    "duplicated_cas_no": "30922-31-7",
    "SMILES": "OC1=C2C(=CC=C1)N=NN2",
    "meta_data": {
        "InChI": "InChI=1S/C6H5N3O/c10-5-3-1-2-4-6(5)8-9-7-4/h1-3,10H,(H,7,8,9)",
        "InChIKey": null,
        "Canonical SMILES": "OC1=CC=CC=2N=NNC12",
        "Molecular Formula": "C<sub>6</sub>H<sub>5</sub>N<sub>3</sub>O",
        "Molecular Mass": "135.12",
        "Melting Point": "215.5-217.5 °C",
        "Density": "1.138 g/cm³"
    }
}