{
    "cas_no": "4104-75-0",
    "key_name": "<em>N</em>-Methyl-<em>N</em>-phenylthiourea",
    "cn_name": "N-甲基-N-苯基硫脲;",
    "alternate_name": "Thiourea, <em>N</em>-methyl-<em>N</em>-phenyl-;Urea, 1-methyl-1-phenyl-2-thio-;<em>N</em>-Methyl-<em>N</em>-phenylthiourea;1-Methyl-1-phenylthiourea;NSC 87749",
    "duplicated_cas_no": "",
    "SMILES": "N(C(N)=S)(C)C1=CC=CC=C1",
    "meta_data": {
        "InChI": "InChI=1S/C8H10N2S/c1-10(8(9)11)7-5-3-2-4-6-7/h2-6H,1H3,(H2,9,11)",
        "InChIKey": null,
        "Canonical SMILES": "S=C(N)N(C=1C=CC=CC1)C",
        "Molecular Formula": "C<sub>8</sub>H<sub>10</sub>N<sub>2</sub>S",
        "Molecular Mass": "166.24",
        "Melting Point": "106-108 °C"
    }
}