{
    "cas_no": "71643-66-8",
    "key_name": "4-Chloro-2-iodophenol",
    "cn_name": "4-氯-2-碘苯酚;",
    "alternate_name": "Phenol, 4-chloro-2-iodo-;4-Chloro-2-iodophenol;2-Iodo-4-chlorophenol",
    "duplicated_cas_no": "",
    "SMILES": "IC1=C(O)C=CC(Cl)=C1",
    "meta_data": {
        "InChI": "InChI=1S/C6H4ClIO/c7-4-1-2-6(9)5(8)3-4/h1-3,9H",
        "InChIKey": null,
        "Canonical SMILES": "ClC1=CC=C(O)C(I)=C1",
        "Molecular Formula": "C<sub>6</sub>H<sub>4</sub>ClIO",
        "Molecular Mass": "254.45",
        "Melting Point": "78 °C"
    }
}