{
    "cas_no": "4948-15-6",
    "key_name": "Pigment Red 149",
    "cn_name": "颜料红149;苝四羧酸-双(3,5-二甲基苯基)酰亚胺;",
    "alternate_name": "Anthra[2,1,9-<em>def</em>:6,5,10-<em>d</em>'<em>e</em>'<em>f</em>′]diisoquinoline-1,3,8,10(2<em>H</em>,9<em>H</em>)-tetrone, 2,9-bis(3,5-dimethylphenyl)-;3,4,9,10-Perylenetetracarboxylic 3,4:9,10-diimide, <em>N</em>,<em>N</em>′-di-3,5-xylyl-;2,9-Bis(3,5-dimethylphenyl)anthra[2,1,9-<em>def</em>:6,5,10-<em>d</em>'<em>e</em>'<em>f</em>′]diisoquinoline-1,3,8,10(2<em>H</em>,9<em>H</em>)-tetrone;<em>N</em>,<em>N</em>′-Bis(3′,5′-dimethylphenyl)perylene-3,4,9,10-dicarboimide;Perylene-3,4,9,10-tetracarboxylic acid bis(3′,5′-dimethylanilide);<em>N</em>,<em>N</em>′-Bis(3,5-dimethylphenyl)perylene-3,4,9,10-tetracarboxylic 3,4:9,10-diimide;C.I. Pigment Red 149;Permanent Red BC;Permanent Red BL;PV Fast Red B;Pigment Red 149;Novoperm Red BL;Kayaset Red E-GR;Perylene PV Fast Red B;Paliogen Red K 3580;PV Solid Red B;C.I. 71137;Lionogen Red H 103B;<em>N</em>,<em>N</em>′-Bis(3,5-dimethylphenyl)-3,4:9,10-perylenebis(dicarboximide);<em>N</em>,<em>N</em>′-Di(3,5-xylyl)perylene-3,4:9,10-bis(dicarboximide);<em>N</em>,<em>N</em>′-Bis(3,5-dimethylphenyl)-3,4:9,10-perylenebis(dicarboxyimide);<em>N</em>,<em>N</em>′-Bis(3,5-xylyl)perylene-3,4:9,10-bis(dicarboximide);Dymic MBR 155;MBR 155;Red K 3580;PR 149 Red;PR 149;C.I. PR 149;Red 04;Exalite 613;Palamid Red 35-8005;Dymic MBR 155 Red",
    "duplicated_cas_no": "12225-02-4;42612-55-5;86221-00-3;94586-69-3;821799-94-4",
    "SMILES": "O=C1C=2C3=C4C(C=5C=6C(C4=CC2)=CC=C7C6C(=CC5)C(=O)N(C7=O)C8=CC(C)=CC(C)=C8)=CC=C3C(=O)N1C9=CC(C)=CC(C)=C9",
    "meta_data": {
        "InChI": "InChI=1S/C40H26N2O4/c1-19-13-20(2)16-23(15-19)41-37(43)29-9-5-25-27-7-11-31-36-32(40(46)42(39(31)45)24-17-21(3)14-22(4)18-24)12-8-28(34(27)36)26-6-10-30(38(41)44)35(29)33(25)26/h5-18H,1-4H3",
        "InChIKey": null,
        "Canonical SMILES": "O=C1C2=CC=C3C4=CC=C5C(=O)N(C=6C=C(C=C(C6)C)C)C(=O)C7=CC=C(C=8C=CC(C(=O)N1C=9C=C(C=C(C9)C)C)=C2C38)C4=C57",
        "Molecular Formula": "C<sub>40</sub>H<sub>26</sub>N<sub>2</sub>O<sub>4</sub>",
        "Molecular Mass": "598.65",
        "Melting Point": "200-201 °C"
    }
}