{
    "cas_no": "77086-21-6",
    "key_name": "Dizocilpine",
    "cn_name": null,
    "alternate_name": "5<em>H</em>-Dibenzo[<em>a</em>,<em>d</em>]cyclohepten-5,10-imine, 10,11-dihydro-5-methyl-, (5<em>S</em>,10<em>R</em>)-;5<em>H</em>-Dibenzo[<em>a</em>,<em>d</em>]cyclohepten-5,10-imine, 10,11-dihydro-5-methyl-, (5<em>S</em>)-;(5<em>S</em>,10<em>R</em>)-10,11-Dihydro-5-methyl-5<em>H</em>-dibenzo[<em>a</em>,<em>d</em>]cyclohepten-5,10-imine;Dizocilpine;(+)-MK 801",
    "duplicated_cas_no": "",
    "SMILES": "C[C@]12C=3C([C@](N1)(CC=4C2=CC=CC4)[H])=CC=CC3",
    "meta_data": {
        "InChI": "InChI=1S/C16H15N/c1-16-13-8-4-2-6-11(13)10-15(17-16)12-7-3-5-9-14(12)16/h2-9,15,17H,10H2,1H3/t15-,16+/m1/s1",
        "InChIKey": null,
        "Canonical SMILES": "C=1C=CC2=C(C1)CC3NC2(C=4C=CC=CC43)C",
        "Molecular Formula": "C<sub>16</sub>H<sub>15</sub>N",
        "Molecular Mass": "221.30",
        "Melting Point": "68.75 °C"
    }
}