{
    "cas_no": "7717-76-2",
    "key_name": "4,4′-Oxydiphthalic acid",
    "cn_name": null,
    "alternate_name": "1,2-Benzenedicarboxylic acid, 4,4′-oxybis-;Phthalic acid, 4,4′-oxydi-;4,4′-Oxybis[1,2-benzenedicarboxylic acid];4,4′-Oxydiphthalic acid;3,3′,4,4′-Tetracarboxydiphenyl oxide;Bis(3,4-dicarboxyphenyl) ether;4,4′-Oxybisphthalic acid;3,3′,4,4′-Oxydiphthalic acid;3,3′,4,4′-Diphenyl ether tetracarboxylic acid",
    "duplicated_cas_no": "",
    "SMILES": "C(O)(=O)C1=C(C(O)=O)C=CC(OC2=CC(C(O)=O)=C(C(O)=O)C=C2)=C1",
    "meta_data": {
        "InChI": "InChI=1S/C16H10O9/c17-13(18)9-3-1-7(5-11(9)15(21)22)25-8-2-4-10(14(19)20)12(6-8)16(23)24/h1-6H,(H,17,18)(H,19,20)(H,21,22)(H,23,24)",
        "InChIKey": null,
        "Canonical SMILES": "O=C(O)C1=CC=C(OC2=CC=C(C(=O)O)C(=C2)C(=O)O)C=C1C(=O)O",
        "Molecular Formula": "C<sub>16</sub>H<sub>10</sub>O<sub>9</sub>",
        "Molecular Mass": "346.25",
        "Melting Point": "229-231.5 °C (decomp)"
    }
}