{
    "cas_no": "4170-90-5",
    "key_name": "2,4,6-Trimethylbenzyl alcohol",
    "cn_name": "2,4,6-三甲基苄醇;",
    "alternate_name": "Benzenemethanol, 2,4,6-trimethyl-;Benzyl alcohol, 2,4,6-trimethyl-;2,4,6-Trimethylbenzenemethanol;Mesitylcarbinol;2,4,6-Trimethylbenzyl alcohol;Mesitylmethanol;(2,4,6-Trimethylphenyl)methanol",
    "duplicated_cas_no": "214695-11-1",
    "SMILES": "C(O)C1=C(C)C=C(C)C=C1C",
    "meta_data": {
        "InChI": "InChI=1S/C10H14O/c1-7-4-8(2)10(6-11)9(3)5-7/h4-5,11H,6H2,1-3H3",
        "InChIKey": null,
        "Canonical SMILES": "OCC=1C(=CC(=CC1C)C)C",
        "Molecular Formula": "C<sub>10</sub>H<sub>14</sub>O",
        "Molecular Mass": "150.22",
        "Boiling Point": "140-141 °C @ Press: 15 Torr",
        "Melting Point": "88-89 °C"
    }
}