{
    "cas_no": "7774-82-5",
    "key_name": "2-Tridecenal",
    "cn_name": "2-十三烯醛;",
    "alternate_name": "2-Tridecenal;NSC 617616",
    "duplicated_cas_no": "",
    "SMILES": "C(CCCC=CC=O)CCCCCC",
    "meta_data": {
        "InChI": "InChI=1S/C13H24O/c1-2-3-4-5-6-7-8-9-10-11-12-13-14/h11-13H,2-10H2,1H3",
        "InChIKey": null,
        "Canonical SMILES": "O=CC=CCCCCCCCCCC",
        "Molecular Formula": "C<sub>13</sub>H<sub>24</sub>O",
        "Molecular Mass": "196.33",
        "Boiling Point": "80 °C @ Press: 0.16 Torr"
    }
}