{
    "cas_no": "20281-00-9",
    "key_name": "Cesium oxide",
    "cn_name": "氧化铯;",
    "alternate_name": "Cesium oxide (Cs<sub>2</sub>O);Cesium oxide;Dicesium oxide;Dicesium monoxide",
    "duplicated_cas_no": "2370839-53-3",
    "SMILES": "O([Cs])[Cs]",
    "meta_data": {
        "InChI": "InChI=1S/2Cs.O",
        "InChIKey": null,
        "Canonical SMILES": "[Cs]O[Cs]",
        "Molecular Formula": "Cs<sub>2</sub>O",
        "Molecular Mass": "",
        "Melting Point": "4.33 °C"
    }
}