{
    "cas_no": "51022-70-9",
    "key_name": "Salbutamol sulfate",
    "cn_name": "硫酸沙丁胺醇;硫酸舒喘灵;羟甲叔丁肾上腺素;2-[(叔丁氨基)甲基]-4-羟基-3-羟甲基-苯甲醇硫酸盐;",
    "alternate_name": "1,3-Benzenedimethanol, α<sup>1</sup>-[[(1,1-dimethylethyl)amino]methyl]-4-hydroxy-, sulfate (2:1);1,3-Benzenedimethanol, α<sup>1</sup>-[[(1,1-dimethylethyl)amino]methyl]-4-hydroxy-, sulfate (2:1) (salt);Salbutamol hemisulfate;Salbutamol sulfate;Venetlin;Albuterol sulfate;Albuterol hemisulfate;<em>dl</em>-Salbutamol sulfate;(±)-Salbutamol sulfate;Proventil;Almotex;Airet;Asmalin;Anebron;Asmadil;Asmatol;Asmaven;Asmavent;Asmidon;Asmol Uni-Dose;Asthalin;Broncho-Spray;Broncovaleas;Bronter;Bugonol;Butamol;Buto-Asma;Butotal;Asmanil;Asmasal;Dilatamol;Farcolin;Grafalin;Instavent;Libretin;Medolin;Mozal;Novosalmol;Parasma;Respax;Salbetol;Salbron;Salbulin;Salbusian;Salbutalan;Salbutan;Salbutol;Salbuven;Salbuvent;Salmaplon;Salomol;Sedalin;Suprasma;Theosal;Tobybron;Vencronyl;Ventilan;Ventimax;Ventolin Rotacaps;Buventol;Cobutolin;Aerolin;Ecovent;Ventelin;Salbutard;Volma;Cetsim;Salbutine;Ventodiscks;Loftan;Salbumol;Sch 13949W sulfate;NSC 289928;Ventorline CR;Salbovent;Ventorain;Salorain;AccuNeb",
    "duplicated_cas_no": "36519-31-0",
    "SMILES": "C(CNC(C)(C)C)(O)C1=CC(CO)=C(O)C=C1.S(=O)(=O)(O)O",
    "meta_data": {
        "InChI": "InChI=1S/C13H21NO3.H2O4S/c1-13(2,3)14-7-12(17)9-4-5-11(16)10(6-9)8-15;1-5(2,3)4/h4-6,12,14-17H,7-8H2,1-3H3;(H2,1,2,3,4)",
        "InChIKey": null,
        "Canonical SMILES": "O=S(=O)(O)O.OC1=CC=C(C=C1CO)C(O)CNC(C)(C)C",
        "Molecular Formula": "C<sub>13</sub>H<sub>21</sub>NO<sub>3</sub>.<sup>1</sup>/<sub>2</sub>H<sub>2</sub>O<sub>4</sub>S",
        "Molecular Mass": "",
        "Melting Point": "186.91 °C"
    }
}