{
    "cas_no": "120-53-6",
    "key_name": "6-Ethoxy-2-mercaptobenzothiazole",
    "cn_name": null,
    "alternate_name": "2(3<em>H</em>)-Benzothiazolethione, 6-ethoxy-;2-Benzothiazolethiol, 6-ethoxy-;Benzothiazole, 6-ethoxy-2-mercapto-;6-Ethoxy-2(3<em>H</em>)-benzothiazolethione;2-Mercapto-6-ethoxybenzothiazole;6-Ethoxy-2-mercaptobenzothiazole;6-Ethoxy-2-benzothiazolethiol;6-Ethoxybenzothiazoline-2-thione;6-Ethoxybenzothiazole-2-thione;6-Ethoxy-1,3-benzothiazole-2-thiol;NSC 503424",
    "duplicated_cas_no": "",
    "SMILES": "S=C1NC=2C(=CC(OCC)=CC2)S1",
    "meta_data": {
        "InChI": "InChI=1S/C9H9NOS2/c1-2-11-6-3-4-7-8(5-6)13-9(12)10-7/h3-5H,2H2,1H3,(H,10,12)",
        "InChIKey": null,
        "Canonical SMILES": "S=C1SC2=CC(OCC)=CC=C2N1",
        "Molecular Formula": "C<sub>9</sub>H<sub>9</sub>NOS<sub>2</sub>",
        "Molecular Mass": "211.30",
        "Melting Point": "189 °C"
    }
}