{
    "cas_no": "81-13-0",
    "key_name": "(+)-Panthenol",
    "cn_name": "D-泛醇;右泛醇;右旋泛醇;右旋泛酰醇;(R)-(+)-2,4-二羟基-N-(3-羟基丙基)-3,3-二甲基丁酰胺;",
    "alternate_name": "Butanamide, 2,4-dihydroxy-<em>N</em>-(3-hydroxypropyl)-3,3-dimethyl-, (2<em>R</em>)-;Butyramide, 2,4-dihydroxy-<em>N</em>-(3-hydroxypropyl)-3,3-dimethyl-, <span class=\"text-smallcaps\">D</span>-(+)-;Butanamide, 2,4-dihydroxy-<em>N</em>-(3-hydroxypropyl)-3,3-dimethyl-, (<em>R</em>)-;(2<em>R</em>)-2,4-Dihydroxy-<em>N</em>-(3-hydroxypropyl)-3,3-dimethylbutanamide;Bepanthen;Bepanthene;Bepantol;Cozyme;Dexpanthenol;<em>D</em>(+)-2,4-Dihydroxy-<em>N</em>-(3-hydroxypropyl)-3,3-dimethylbutyramide;<em>D</em>(+)-α,γ-Dihydroxy-<em>N</em>-(3-hydroxypropyl)-β,β-dimethylbutyramide;Ilopan;D-P-A Injection;Motilyn;Panadon;Panthoderm;Pantol;<em>d</em>-Pantothenol;<em>d</em>-Pantothenyl alcohol;Thenalton;Zentinic;<span class=\"text-smallcaps\">D</span>-Panthenol;Panthenol;Pantothenol;Pantothenyl alcohol;Propanolamine, <em>N</em>-pantoyl-;Panthenol, (+)-;<span class=\"text-smallcaps\">D</span>(+)-Pantothenyl alcohol;<span class=\"text-smallcaps\">D</span>(+)-Panthenol;Synapan;Provitamin B;<em>d</em>-Panthenol;<span class=\"text-smallcaps\">D</span>-Pantothenyl alcohol;Provitamin B<sub>5</sub>;<em>d</em>-Panthenol 50;Urupan;Alcopan 250;Pantenyl;Intrapan;(+)-Panthenol;NSC 302962;Panthenol 50W;Cornergel;Dolobene;D-Panthenol 75L;Pantogel;(R)-2,4-Dihydroxy-<em>N</em>-(3-hydroxypropyl)-3,3-dimethylbutanamide;(2R)-2,4-Dihydroxy-<em>N</em>-(3-hydroxypropyl)-3,3-dimethylbutanamide;Corneregel",
    "duplicated_cas_no": "1113-70-8;17307-32-3;50584-68-4",
    "SMILES": "[C@H](C(NCCCO)=O)(C(CO)(C)C)O",
    "meta_data": {
        "InChI": "InChI=1S/C9H19NO4/c1-9(2,6-12)7(13)8(14)10-4-3-5-11/h7,11-13H,3-6H2,1-2H3,(H,10,14)/t7-/m0/s1",
        "InChIKey": null,
        "Canonical SMILES": "O=C(NCCCO)C(O)C(C)(C)CO",
        "Molecular Formula": "C<sub>9</sub>H<sub>19</sub>NO<sub>4</sub>",
        "Molecular Mass": "205.25",
        "Boiling Point": "119 °C",
        "Melting Point": "&lt;25 °C",
        "Density": "1.2 g/cm³ @ Temp: 20 °C"
    }
}