{
    "cas_no": "59229-63-9",
    "key_name": "3,3-Dimethylmorpholine",
    "cn_name": null,
    "alternate_name": "Morpholine, 3,3-dimethyl-;3,3-Dimethylmorpholine",
    "duplicated_cas_no": "",
    "SMILES": "CC1(C)COCCN1",
    "meta_data": {
        "InChI": "InChI=1S/C6H13NO/c1-6(2)5-8-4-3-7-6/h7H,3-5H2,1-2H3",
        "InChIKey": null,
        "Canonical SMILES": "O1CCNC(C)(C)C1",
        "Molecular Formula": "C<sub>6</sub>H<sub>13</sub>NO",
        "Molecular Mass": "115.17",
        "Boiling Point": "143-144 °C",
        "Density": "0.9355 g/cm³ @ Temp: 20 °C"
    }
}