{
    "cas_no": "7758-01-2",
    "key_name": "Potassium bromate",
    "cn_name": "溴酸钾;",
    "alternate_name": "Bromic acid, potassium salt (1:1);Bromic acid, potassium salt;Potassium bromate",
    "duplicated_cas_no": "",
    "SMILES": "Br(=O)(=O)O.[K]",
    "meta_data": {
        "InChI": "InChI=1S/BrHO3.K/c2-1(3)4;/h(H,2,3,4);",
        "InChIKey": null,
        "Canonical SMILES": "[K].O=Br(=O)O",
        "Molecular Formula": "BrHO<sub>3</sub>.K",
        "Molecular Mass": "",
        "Melting Point": "350 °C",
        "Density": "3.34 g/cm³"
    }
}