{
    "cas_no": "2211-64-5",
    "key_name": "Cyclohexylhydroxylamine",
    "cn_name": "N-环己基羟胺;",
    "alternate_name": "Cyclohexanamine, <em>N</em>-hydroxy-;Hydroxylamine, <em>N</em>-cyclohexyl-;<em>N</em>-Hydroxycyclohexanamine;Cyclohexylhydroxylamine;<em>N</em>-Hydroxycyclohexylamine;<em>N</em>-Cyclohexylhydroxylamine",
    "duplicated_cas_no": "",
    "SMILES": "N(O)C1CCCCC1",
    "meta_data": {
        "InChI": "InChI=1S/C6H13NO/c8-7-6-4-2-1-3-5-6/h6-8H,1-5H2",
        "InChIKey": null,
        "Canonical SMILES": "ONC1CCCCC1",
        "Molecular Formula": "C<sub>6</sub>H<sub>13</sub>NO",
        "Molecular Mass": "115.17",
        "Melting Point": "137 °C"
    }
}