{
    "cas_no": "455-34-5",
    "key_name": "1-(Dibromomethyl)-3-fluorobenzene",
    "cn_name": null,
    "alternate_name": "Benzene, 1-(dibromomethyl)-3-fluoro-;Toluene, α,α-dibromo-<em>m</em>-fluoro-;1-(Dibromomethyl)-3-fluorobenzene;3-Fluorobenzal bromide",
    "duplicated_cas_no": "",
    "SMILES": "C(Br)(Br)C1=CC(F)=CC=C1",
    "meta_data": {
        "InChI": "InChI=1S/C7H5Br2F/c8-7(9)5-2-1-3-6(10)4-5/h1-4,7H",
        "InChIKey": null,
        "Canonical SMILES": "FC1=CC=CC(=C1)C(Br)Br",
        "Molecular Formula": "C<sub>7</sub>H<sub>5</sub>Br<sub>2</sub>F",
        "Molecular Mass": "267.92",
        "Boiling Point": "108-110 °C @ Press: 8 Torr"
    }
}