{
    "cas_no": "153813-69-5",
    "key_name": "Benzoic acid, 4-formyl-3-nitro-, methyl ester",
    "cn_name": "4-甲酰基-3-硝基苯甲酸甲酯;",
    "alternate_name": "Benzoic acid, 4-formyl-3-nitro-, methyl ester;Methyl 4-formyl-3-nitrobenzoate;4-Formyl-3-nitrobenzoic acid methyl ester;4-Methoxycarbonyl-2-nitrobenzaldehyde",
    "duplicated_cas_no": "",
    "SMILES": "N(=O)(=O)C1=C(C=O)C=CC(C(OC)=O)=C1",
    "meta_data": {
        "InChI": "InChI=1S/C9H7NO5/c1-15-9(12)6-2-3-7(5-11)8(4-6)10(13)14/h2-5H,1H3",
        "InChIKey": null,
        "Canonical SMILES": "O=CC1=CC=C(C=C1N(=O)=O)C(=O)OC",
        "Molecular Formula": "C<sub>9</sub>H<sub>7</sub>NO<sub>5</sub>",
        "Molecular Mass": "209.16",
        "Melting Point": "54-55 °C"
    }
}