{
    "cas_no": "23031-78-9",
    "key_name": "1,2-Benzisothiazol-3-amine",
    "cn_name": "3-氨基-1,2-苯并异噻唑;",
    "alternate_name": "1,2-Benzisothiazol-3-amine;1,2-Benzisothiazole, 3-amino-;3-Amino-1,2-benzisothiazole;3-Benzisothiazoleamine;1,2-Benzothiazol-3-amine",
    "duplicated_cas_no": "",
    "SMILES": "NC=1C=2C(=CC=CC2)SN1",
    "meta_data": {
        "InChI": "InChI=1S/C7H6N2S/c8-7-5-3-1-2-4-6(5)10-9-7/h1-4H,(H2,8,9)",
        "InChIKey": null,
        "Canonical SMILES": "N=1SC=2C=CC=CC2C1N",
        "Molecular Formula": "C<sub>7</sub>H<sub>6</sub>N<sub>2</sub>S",
        "Molecular Mass": "150.20",
        "Melting Point": "114 °C"
    }
}