{
    "cas_no": "558-37-2",
    "key_name": "3,3-Dimethyl-1-butene",
    "cn_name": "3,3-二甲基-1-丁烯;新己烯;",
    "alternate_name": "1-Butene, 3,3-dimethyl-;3,3-Dimethyl-1-butene;3,3-Dimethylbutene;Neohexene;<em>tert</em>-Butylethylene;<em>tert</em>-Hexene;Trimethylvinylmethane;2,2-Dimethyl-3-butene;<em>tert</em>-Butylethene;NSC 74119",
    "duplicated_cas_no": "11069-54-8",
    "SMILES": "C(C=C)(C)(C)C",
    "meta_data": {
        "InChI": "InChI=1S/C6H12/c1-5-6(2,3)4/h5H,1H2,2-4H3",
        "InChIKey": null,
        "Canonical SMILES": "C=CC(C)(C)C",
        "Molecular Formula": "C<sub>6</sub>H<sub>12</sub>",
        "Molecular Mass": "84.16",
        "Boiling Point": "41.2 °C",
        "Melting Point": "-115.2 °C",
        "Density": "0.6549 g/cm³ @ Temp: 18 °C"
    }
}