{
    "cas_no": "280582-25-4",
    "key_name": "2,4-Dichloro-5-ethoxypyrimidine",
    "cn_name": null,
    "alternate_name": "Pyrimidine, 2,4-dichloro-5-ethoxy-;2,4-Dichloro-5-ethoxypyrimidine",
    "duplicated_cas_no": "",
    "SMILES": "O(CC)C=1C(Cl)=NC(Cl)=NC1",
    "meta_data": {
        "InChI": "InChI=1S/C6H6Cl2N2O/c1-2-11-4-3-9-6(8)10-5(4)7/h3H,2H2,1H3",
        "InChIKey": null,
        "Canonical SMILES": "ClC1=NC=C(OCC)C(Cl)=N1",
        "Molecular Formula": "C<sub>6</sub>H<sub>6</sub>Cl<sub>2</sub>N<sub>2</sub>O",
        "Molecular Mass": "193.03",
        "Melting Point": "41-42 °C"
    }
}