{
    "cas_no": "3218-36-8",
    "key_name": "[1,1′-Biphenyl]-4-carboxaldehyde",
    "cn_name": "对苯基苯甲醛;4-联苯甲醛;联苯单甲醛;",
    "alternate_name": "[1,1′-Biphenyl]-4-carboxaldehyde;4-Biphenylcarboxaldehyde;Benzaldehyde, <em>p</em>-phenyl-;<em>p</em>-Biphenylylaldehyde;<em>p</em>-Biphenylcarboxaldehyde;<em>p</em>-Phenylbenzaldehyde;4-Phenylbenzaldehyde;4-Biphenylylcarboxaldehyde;4-Biphenylaldehyde;4-Formylbiphenyl;<em>p</em>-Biphenylaldehyde;Biphenyl-4-carbaldehyde;4-Formyl-1,1′-biphenyl;NSC 46066;[1,1′-Biphenyl]-4-carbaldehyde",
    "duplicated_cas_no": "",
    "SMILES": "C(=O)C1=CC=C(C=C1)C2=CC=CC=C2",
    "meta_data": {
        "InChI": "InChI=1S/C13H10O/c14-10-11-6-8-13(9-7-11)12-4-2-1-3-5-12/h1-10H",
        "InChIKey": null,
        "Canonical SMILES": "O=CC=1C=CC(=CC1)C=2C=CC=CC2",
        "Molecular Formula": "C<sub>13</sub>H<sub>10</sub>O",
        "Molecular Mass": "182.22",
        "Boiling Point": "121 °C",
        "Melting Point": "60 °C"
    }
}