{
    "cas_no": "6141-58-8",
    "key_name": "3-Furancarboxylic acid, 2-methyl-, methyl ester",
    "cn_name": null,
    "alternate_name": "3-Furancarboxylic acid, 2-methyl-, methyl ester;3-Furoic acid, 2-methyl-, methyl ester;Methyl 2-methylfuran-3-carboxylate;Methyl 2-methyl-3-furoate;2-Methylfuran-3-carboxylic acid methyl ester;2-Methyl-3-furoic acid methyl ester",
    "duplicated_cas_no": "",
    "SMILES": "C(OC)(=O)C1=C(C)OC=C1",
    "meta_data": {
        "InChI": "InChI=1S/C7H8O3/c1-5-6(3-4-10-5)7(8)9-2/h3-4H,1-2H3",
        "InChIKey": null,
        "Canonical SMILES": "O=C(OC)C=1C=COC1C",
        "Molecular Formula": "C<sub>7</sub>H<sub>8</sub>O<sub>3</sub>",
        "Molecular Mass": "140.14",
        "Boiling Point": "75 °C @ Press: 20 Torr"
    }
}