{
    "cas_no": "13686-51-6",
    "key_name": "2-Bromo-1-(1-naphthalenyl)ethanone",
    "cn_name": null,
    "alternate_name": "Ethanone, 2-bromo-1-(1-naphthalenyl)-;1′-Acetonaphthone, 2-bromo-;2-Bromo-1-(1-naphthalenyl)ethanone;1-(Bromoacetyl)naphthalene;ω-Bromo-1-acetonaphthone;Bromomethyl 1-naphthyl ketone;2-Bromo-1-(1-naphthyl)ethanone;2-Bromo-1-naphthalen-1-ylethanone;2-Bromo-1-(naphthalen-1-yl)ethan-1-one",
    "duplicated_cas_no": "",
    "SMILES": "C(CBr)(=O)C=1C2=C(C=CC1)C=CC=C2",
    "meta_data": {
        "InChI": "InChI=1S/C12H9BrO/c13-8-12(14)11-7-3-5-9-4-1-2-6-10(9)11/h1-7H,8H2",
        "InChIKey": null,
        "Canonical SMILES": "O=C(C1=CC=CC=2C=CC=CC21)CBr",
        "Molecular Formula": "C<sub>12</sub>H<sub>9</sub>BrO",
        "Molecular Mass": "249.10",
        "Boiling Point": "176-178 °C @ Press: 3 Torr",
        "Melting Point": "177-179 °C"
    }
}