{
    "cas_no": "4329-81-1",
    "key_name": "<em>N</em>-Phenyl-2-pyridinemethanamine",
    "cn_name": null,
    "alternate_name": "2-Pyridinemethanamine, <em>N</em>-phenyl-;Pyridine, 2-(anilinomethyl)-;<em>N</em>-Phenyl-2-pyridinemethanamine;2-(Anilinomethyl)pyridine;<em>N</em>-(2-Pyridylmethyl)phenylamine;<em>N</em>-((Pyridin-2-yl)methyl)aniline;<em>N</em>-(2-Pyridylmethyl)aniline",
    "duplicated_cas_no": "",
    "SMILES": "C(NC1=CC=CC=C1)C2=CC=CC=N2",
    "meta_data": {
        "InChI": "InChI=1S/C12H12N2/c1-2-6-11(7-3-1)14-10-12-8-4-5-9-13-12/h1-9,14H,10H2",
        "InChIKey": null,
        "Canonical SMILES": "N=1C=CC=CC1CNC=2C=CC=CC2",
        "Molecular Formula": "C<sub>12</sub>H<sub>12</sub>N<sub>2</sub>",
        "Molecular Mass": "184.24",
        "Boiling Point": "155-156 °C @ Press: 4 Torr",
        "Melting Point": "50-53 °C"
    }
}