{
    "cas_no": "619-25-0",
    "key_name": "3-Nitrobenzyl alcohol",
    "cn_name": "3-硝基苯甲醇;间硝基苯甲醇;间硝基苄醇;",
    "alternate_name": "Benzenemethanol, 3-nitro-;Benzyl alcohol, <em>m</em>-nitro-;3-Nitrobenzenemethanol;<em>m</em>-Nitrobenzyl alcohol;3-Nitrobenzyl alcohol;(3-Nitrophenyl)methanol;NSC 5388;<em>m</em>-Nitrophenylmethanol;<em>m</em>-(Hydroxymethyl)nitrobenzene",
    "duplicated_cas_no": "185532-94-9",
    "SMILES": "N(=O)(=O)C1=CC(CO)=CC=C1",
    "meta_data": {
        "InChI": "InChI=1S/C7H7NO3/c9-5-6-2-1-3-7(4-6)8(10)11/h1-4,9H,5H2",
        "InChIKey": null,
        "Canonical SMILES": "O=N(=O)C1=CC=CC(=C1)CO",
        "Molecular Formula": "C<sub>7</sub>H<sub>7</sub>NO<sub>3</sub>",
        "Molecular Mass": "153.14",
        "Boiling Point": "175-180 °C",
        "Melting Point": "30.5 °C"
    }
}