{
    "cas_no": "13670-99-0",
    "key_name": "1-(2,6-Difluorophenyl)ethanone",
    "cn_name": "2,6-二氟苯乙酮;",
    "alternate_name": "Ethanone, 1-(2,6-difluorophenyl)-;Acetophenone, 2′,6′-difluoro-;1-(2,6-Difluorophenyl)ethanone;2′,6′-Difluoroacetophenone;2,6-Difluoroacetophenone;1-(2,6-Difluorophenyl)ethan-1-one",
    "duplicated_cas_no": "",
    "SMILES": "C(C)(=O)C1=C(F)C=CC=C1F",
    "meta_data": {
        "InChI": "InChI=1S/C8H6F2O/c1-5(11)8-6(9)3-2-4-7(8)10/h2-4H,1H3",
        "InChIKey": null,
        "Canonical SMILES": "O=C(C=1C(F)=CC=CC1F)C",
        "Molecular Formula": "C<sub>8</sub>H<sub>6</sub>F<sub>2</sub>O",
        "Molecular Mass": "156.13",
        "Boiling Point": "76-79 °C @ Press: 15 Torr"
    }
}