{
    "cas_no": "7446-20-0",
    "key_name": "Zinc sulfate heptahydrate",
    "cn_name": "七水硫酸锌;锌矾;皓矾;",
    "alternate_name": "Sulfuric acid, zinc salt, hydrate (1:1:7);Sulfuric acid, zinc salt (1:1), heptahydrate;White vitriol;Zinc sulfate heptahydrate;Zinc vitriol;Zinc sulfate (ZnSO<sub>4</sub>) heptahydrate;Zinc(II) sulfate heptahydrate;ZnSO<sub>4</sub>·7H<sub>2</sub>O;Zinc sulfate heptahydrate ZnSO<sub>4</sub>·7H<sub>2</sub>O",
    "duplicated_cas_no": "57130-83-3;57130-85-5;223776-82-7;2319654-25-4",
    "SMILES": "S(=O)(=O)(O)O.O.[Zn]",
    "meta_data": {
        "InChI": "InChI=1S/H2O4S.7H2O.Zn/c1-5(2,3)4;;;;;;;;/h(H2,1,2,3,4);7*1H2;",
        "InChIKey": null,
        "Canonical SMILES": "[Zn].O=S(=O)(O)O.O",
        "Molecular Formula": "H<sub>2</sub>O<sub>4</sub>S.7H<sub>2</sub>O.Zn",
        "Molecular Mass": "",
        "Melting Point": "100 °C",
        "Density": "1.97 g/cm³"
    }
}