{
    "cas_no": "52217-53-5",
    "key_name": "1,1′-(1,8-Octanediyl)bis[1,1,1-trichlorosilane]",
    "cn_name": null,
    "alternate_name": "Silane, 1,1′-(1,8-octanediyl)bis[1,1,1-trichloro-;Silane, 1,8-octanediylbis[trichloro-;1,1′-(1,8-Octanediyl)bis[1,1,1-trichlorosilane];1,8-Bis(trichlorosilyl)octane",
    "duplicated_cas_no": "",
    "SMILES": "C([Si](Cl)(Cl)Cl)CCCCCCC[Si](Cl)(Cl)Cl",
    "meta_data": {
        "InChI": "InChI=1S/C8H16Cl6Si2/c9-15(10,11)7-5-3-1-2-4-6-8-16(12,13)14/h1-8H2",
        "InChIKey": null,
        "Canonical SMILES": "Cl[Si](Cl)(Cl)CCCCCCCC[Si](Cl)(Cl)Cl",
        "Molecular Formula": "C<sub>8</sub>H<sub>16</sub>Cl<sub>6</sub>Si<sub>2</sub>",
        "Molecular Mass": "381.10",
        "Boiling Point": "140 °C @ Press: 1 Torr",
        "Density": "1.220 g/cm³"
    }
}