{
    "cas_no": "19064-18-7",
    "key_name": "2,6-Difluorobenzenemethanol",
    "cn_name": "2,6-二氟苄醇;2,6-二氟苯甲醇;",
    "alternate_name": "Benzenemethanol, 2,6-difluoro-;Benzyl alcohol, 2,6-difluoro-;2,6-Difluorobenzenemethanol;2,6-Difluorobenzyl alcohol;(2,6-Difluorophenyl)methanol",
    "duplicated_cas_no": "",
    "SMILES": "C(O)C1=C(F)C=CC=C1F",
    "meta_data": {
        "InChI": "InChI=1S/C7H6F2O/c8-6-2-1-3-7(9)5(6)4-10/h1-3,10H,4H2",
        "InChIKey": null,
        "Canonical SMILES": "FC1=CC=CC(F)=C1CO",
        "Molecular Formula": "C<sub>7</sub>H<sub>6</sub>F<sub>2</sub>O",
        "Molecular Mass": "144.12",
        "Melting Point": "168.5-169 °C"
    }
}