{
    "cas_no": "698-76-0",
    "key_name": "δ-Octalactone",
    "cn_name": "丁位辛内酯;",
    "alternate_name": "2<em>H</em>-Pyran-2-one, tetrahydro-6-propyl-;Octanoic acid, 5-hydroxy-, δ-lactone;Octanoic acid, 5-hydroxy-, lactone;Tetrahydro-6-propyl-2<em>H</em>-pyran-2-one;5-Hydroxyoctanoic acid lactone;5-Hydroxyoctanoic acid δ-lactone;δ-Octalactone;δ-Propyl-δ-valerolactone;5-Octanolide;(±)-δ-Octalactone;(<em>RS</em>)-δ-Octalactone;δ-Octanolactone",
    "duplicated_cas_no": "104426-32-6",
    "SMILES": "C(CC)C1OC(=O)CCC1",
    "meta_data": {
        "InChI": "InChI=1S/C8H14O2/c1-2-4-7-5-3-6-8(9)10-7/h7H,2-6H2,1H3",
        "InChIKey": null,
        "Canonical SMILES": "O=C1OC(CCC)CCC1",
        "Molecular Formula": "C<sub>8</sub>H<sub>14</sub>O<sub>2</sub>",
        "Molecular Mass": "142.20",
        "Boiling Point": "115-117 °C @ Press: 12 Torr"
    }
}