{
    "cas_no": "17199-29-0",
    "key_name": "(<em>S</em>)-Mandelic acid",
    "cn_name": "扁桃酸;S-扁桃酸;alpha-羟基苯乙酸;",
    "alternate_name": "Benzeneacetic acid, α-hydroxy-, (α<em>S</em>)-;Mandelic acid, <span class=\"text-smallcaps\">L</span>-(+)-;Benzeneacetic acid, α-hydroxy-, (<em>S</em>)-;(α<em>S</em>)-α-Hydroxybenzeneacetic acid;<span class=\"text-smallcaps\">L</span>-Mandelic acid;(<em>S</em>)-Mandelic acid;(+)-Mandelic acid;(<em>S</em>)-(+)-Mandelic acid;(+)-(<em>S</em>)-Mandelic acid;(<em>S</em>)-α-Hydroxybenzeneacetic acid;<span class=\"text-smallcaps\">L</span>-(+)-Mandelic acid;(+)-α-Hydroxyphenylacetic acid;(<em>S</em>)-(+)-Hydroxyphenylacetic acid;(<em>S</em>)-2-Hydroxy-2-(phenyl)ethanoic acid;(<em>S</em>)-2-Hydroxy-2-phenylacetic acid;(2<em>S</em>)-2-Hydroxy-2-(phenyl)ethanoic acid;(<em>S</em>)-α-Hydroxyphenylacetic acid;(<em>S</em>)-Amygdalic acid;(2S)-2-Hydroxy-2-phenylacetic acid",
    "duplicated_cas_no": "14447-36-0",
    "SMILES": "[C@H](C(O)=O)(O)C1=CC=CC=C1",
    "meta_data": {
        "InChI": "InChI=1S/C8H8O3/c9-7(8(10)11)6-4-2-1-3-5-6/h1-5,7,9H,(H,10,11)/t7-/m0/s1",
        "InChIKey": null,
        "Canonical SMILES": "O=C(O)C(O)C=1C=CC=CC1",
        "Molecular Formula": "C<sub>8</sub>H<sub>8</sub>O<sub>3</sub>",
        "Molecular Mass": "152.15",
        "Melting Point": "134 °C"
    }
}