{
    "cas_no": "6959-47-3",
    "key_name": "Picolyl chloride hydrochloride",
    "cn_name": "2-氯甲基吡啶盐酸盐;",
    "alternate_name": "Pyridine, 2-(chloromethyl)-, hydrochloride (1:1);Pyridine, 2-(chloromethyl)-, hydrochloride;2-Picolyl chloride hydrochloride;2-(Chloromethyl)pyridine hydrochloride;Picolyl chloride hydrochloride;2-Pyridylmethyl chloride hydrochloride;2-Chloromethylpyridine hydrochloride salt;2-Chloromethylpyridine chlorohydrate;(Pyridin-2-yl)methyl chloride hydrochloride;2-Chloromethylpridine hydrochloride",
    "duplicated_cas_no": "",
    "SMILES": "C(Cl)C1=CC=CC=N1.Cl",
    "meta_data": {
        "InChI": "InChI=1S/C6H6ClN.ClH/c7-5-6-3-1-2-4-8-6;/h1-4H,5H2;1H",
        "InChIKey": null,
        "Canonical SMILES": "Cl.ClCC1=NC=CC=C1",
        "Molecular Formula": "C<sub>6</sub>H<sub>6</sub>ClN.ClH",
        "Molecular Mass": "",
        "Melting Point": "166-173 °C"
    }
}