{
    "cas_no": "26063-96-7",
    "key_name": "3,4-Dihydro-5,9-dihydroxy-7-(3-hydroxy-3-methylbutyl)-8-methoxy-2,2-dimethyl-2<em>H</em>,6<em>H</em>-pyrano[3,2-<em>b</em>]xanthen-6-one",
    "cn_name": null,
    "alternate_name": "2<em>H</em>,6<em>H</em>-Pyrano[3,2-<em>b</em>]xanthen-6-one, 3,4-dihydro-5,9-dihydroxy-7-(3-hydroxy-3-methylbutyl)-8-methoxy-2,2-dimethyl-;3,4-Dihydro-5,9-dihydroxy-7-(3-hydroxy-3-methylbutyl)-8-methoxy-2,2-dimethyl-2<em>H</em>,6<em>H</em>-pyrano[3,2-<em>b</em>]xanthen-6-one",
    "duplicated_cas_no": "",
    "SMILES": "C(CC(C)(C)O)C1=C2C(OC=3C(C2=O)=C(O)C4=C(C3)OC(C)(C)CC4)=CC(O)=C1OC",
    "meta_data": {
        "InChI": "InChI=1S/C24H28O7/c1-23(2,28)8-6-13-18-16(10-14(25)22(13)29-5)30-17-11-15-12(7-9-24(3,4)31-15)20(26)19(17)21(18)27/h10-11,25-26,28H,6-9H2,1-5H3",
        "InChIKey": null,
        "Canonical SMILES": "O=C1C=2C(O)=C3C(OC(C)(C)CC3)=CC2OC4=CC(O)=C(OC)C(=C14)CCC(O)(C)C",
        "Molecular Formula": "C<sub>24</sub>H<sub>28</sub>O<sub>7</sub>",
        "Molecular Mass": "428.47",
        "Melting Point": "179-180 °C"
    }
}