{
    "cas_no": "5221-42-1",
    "key_name": "<em>N</em>-4-Pyridinylacetamide",
    "cn_name": "4-乙酰氨基嘧啶;",
    "alternate_name": "Acetamide, <em>N</em>-4-pyridinyl-;Acetamide, <em>N</em>-4-pyridyl-;Pyridine, 4-acetamido-;<em>N</em>-4-Pyridinylacetamide;4-Acetamidopyridine;Phillips 2038;4-(Acetylamino)pyridine;<em>N</em>-Acetyl-4-pyridinamine;<em>N</em>-(4-Pyridyl)acetamide;<em>N</em>-(Pyridin-4-yl)acetamide",
    "duplicated_cas_no": "",
    "SMILES": "N(C(C)=O)C=1C=CN=CC1",
    "meta_data": {
        "InChI": "InChI=1S/C7H8N2O/c1-6(10)9-7-2-4-8-5-3-7/h2-5H,1H3,(H,8,9,10)",
        "InChIKey": null,
        "Canonical SMILES": "O=C(NC=1C=CN=CC1)C",
        "Molecular Formula": "C<sub>7</sub>H<sub>8</sub>N<sub>2</sub>O",
        "Molecular Mass": "136.15",
        "Melting Point": "148 °C"
    }
}