{
    "cas_no": "589-87-7",
    "key_name": "1-Bromo-4-iodobenzene",
    "cn_name": "对溴碘苯;",
    "alternate_name": "Benzene, 1-bromo-4-iodo-;1-Bromo-4-iodobenzene;<em>p</em>-Bromoiodobenzene;<em>p</em>-Bromophenyl iodide;<em>p</em>-Iodobromobenzene;4-Bromo-1-iodobenzene;4-Bromoiodobenzene;4-Iodobromobenzene;4-Bromophenyl iodide;NSC 8033;4-Iodo-1-bromobenzene;4-Iodophenyl bromide",
    "duplicated_cas_no": "",
    "SMILES": "BrC1=CC=C(I)C=C1",
    "meta_data": {
        "InChI": "InChI=1S/C6H4BrI/c7-5-1-3-6(8)4-2-5/h1-4H",
        "InChIKey": null,
        "Canonical SMILES": "BrC1=CC=C(I)C=C1",
        "Molecular Formula": "C<sub>6</sub>H<sub>4</sub>BrI",
        "Molecular Mass": "282.90",
        "Boiling Point": "252 °C",
        "Melting Point": "92 °C"
    }
}