{
    "cas_no": "24985-85-1",
    "key_name": "Ethyl 5-hydroxy-1<em>H</em>-indole-2-carboxylate",
    "cn_name": "5-羟基吲哚-2-甲酸乙酯;",
    "alternate_name": "1<em>H</em>-Indole-2-carboxylic acid, 5-hydroxy-, ethyl ester;Indole-2-carboxylic acid, 5-hydroxy-, ethyl ester;Ethyl 5-hydroxy-1<em>H</em>-indole-2-carboxylate;5-Hydroxyindole-2-carboxylic acid ethyl ester;Ethyl 5-hydroxyindole-2-carboxylate;5-Hydroxy-1<em>H</em>-indole-2-carboxylic acid ethyl ester",
    "duplicated_cas_no": "",
    "SMILES": "C(OCC)(=O)C1=CC=2C(N1)=CC=C(O)C2",
    "meta_data": {
        "InChI": "InChI=1S/C11H11NO3/c1-2-15-11(14)10-6-7-5-8(13)3-4-9(7)12-10/h3-6,12-13H,2H2,1H3",
        "InChIKey": null,
        "Canonical SMILES": "O=C(OCC)C1=CC=2C=C(O)C=CC2N1",
        "Molecular Formula": "C<sub>11</sub>H<sub>11</sub>NO<sub>3</sub>",
        "Molecular Mass": "205.21",
        "Melting Point": "146-148 °C"
    }
}