{
    "cas_no": "4461-39-6",
    "key_name": "<em>N</em>-(2-Hydroxyethyl)-1,3-propanediamine",
    "cn_name": "N-(2-羟乙基)-1,3-丙二胺;",
    "alternate_name": "Ethanol, 2-[(3-aminopropyl)amino]-;2-[(3-Aminopropyl)amino]ethanol;<em>N</em>-(2-Hydroxyethyl)trimethylenediamine;<em>N</em>-(Hydroxyethyl)propane-1,3-diamine;<em>N</em>-(2-Hydroxyethyl)-1,3-propanediamine;1,3-Diamino-<em>N</em>-(2-hydroxyethyl)propane;1,3-Diamino-<em>N</em>-(hydroxyethyl)propane;<em>N</em>-(2-Hydroxyethyl)-1,3-diaminopropane;<em>N</em>-(β-Hydroxyethyl)-1,3-diaminopropane;<em>N</em>-(Aminopropyl)ethanolamine;3-(Hydroxyethylamino)propanamine;Koei 3311;3-(2-Hydroxyethylamino)propylamine;<em>N</em>-(3-Aminopropyl)-2-aminoethanol;2-[(3-Aminopropyl)amino]ethan-1-ol",
    "duplicated_cas_no": "",
    "SMILES": "C(NCCO)CCN",
    "meta_data": {
        "InChI": "InChI=1S/C5H14N2O/c6-2-1-3-7-4-5-8/h7-8H,1-6H2",
        "InChIKey": null,
        "Canonical SMILES": "OCCNCCCN",
        "Molecular Formula": "C<sub>5</sub>H<sub>14</sub>N<sub>2</sub>O",
        "Molecular Mass": "118.18",
        "Boiling Point": "92-94 °C @ Press: 0.3 Torr",
        "Melting Point": "5.532 °C"
    }
}