{
    "cas_no": "19420-57-6",
    "key_name": "1-Stearoyl-sn-<em>glycero</em>-3-phosphocholine",
    "cn_name": null,
    "alternate_name": "3,5,9-Trioxa-4-phosphaheptacosan-1-aminium, 4,7-dihydroxy-<em>N</em>,<em>N</em>,<em>N</em>-trimethyl-10-oxo-, inner salt, 4-oxide, (7<em>R</em>)-;Choline, hydroxide, dihydrogen phosphate, inner salt, 3-ester with 1-monostearin, <span class=\"text-smallcaps\">L</span>-;3,5,9-Trioxa-4-phosphaheptacosan-1-aminium, 4,7-dihydroxy-<em>N</em>,<em>N</em>,<em>N</em>-trimethyl-10-oxo-, inner salt, 4-oxide, (<em>R</em>)-;Choline, phosphate, 3-ester with 1-monostearin, <span class=\"text-smallcaps\">L</span>-;Stearin, 1-mono-, 3-(dihydrogen phosphate), monoester with choline hydroxide, inner salt, <span class=\"text-smallcaps\">L</span>-;1-Stearoyl-sn-<em>glycero</em>-3-phosphorylcholine;1-Octadecanoyllysolecithin;Stearoyl <span class=\"text-smallcaps\">L</span>-α-lysolecithin;1-Stearoyl-sn-<em>glycero</em>-3-phosphocholine;1-Stearoyl-<em>sn</em>-glycerol-3-phosphorylcholine;1-Octadecanoyl-<em>sn</em>-glycerol-3-phosphorylcholine;1-<em>O</em>-Stearoyl-<em>sn</em>-<em>glycero</em>-3-phosphocholine;Coatsome MC 80H;1-<em>O</em>-Stearoyl-2-lyso-sn-<em>glycero</em>-3-phosphocholine;Lysophosphatidylcholine C18:0;Stearoyl lysophosphatidylcholine;1-Stearoyl-2-hydroxy-<em>sn</em>-<em>glycero</em>-3-phosphocholine;1-Stearoyl-sn-glycerol-3-phosphatidylcholine;(R)-2-Hydroxy-3-(stearoyloxy)propyl (2-(trimethylammonio)ethyl) phosphate;Lysophosphatidylcholine 18:0",
    "duplicated_cas_no": "",
    "SMILES": "C([C@@H](COC(CCCCCCCCCCCCCCCCC)=O)O)OP(OCC[N+](C)(C)C)(=O)[O-]",
    "meta_data": {
        "InChI": "InChI=1S/C26H54NO7P/c1-5-6-7-8-9-10-11-12-13-14-15-16-17-18-19-20-26(29)32-23-25(28)24-34-35(30,31)33-22-21-27(2,3)4/h25,28H,5-24H2,1-4H3/t25-/m1/s1",
        "InChIKey": null,
        "Canonical SMILES": "O=C(OCC(O)COP(=O)([O-])OCC[N+](C)(C)C)CCCCCCCCCCCCCCCCC",
        "Molecular Formula": "C<sub>26</sub>H<sub>54</sub>NO<sub>7</sub>P",
        "Molecular Mass": "",
        "Melting Point": "100-200 °C"
    }
}