{
    "cas_no": "5957-90-4",
    "key_name": "2-(4-Methoxyphenyl)pyridine",
    "cn_name": null,
    "alternate_name": "Pyridine, 2-(4-methoxyphenyl)-;Pyridine, 2-(<em>p</em>-methoxyphenyl)-;2-(4-Methoxyphenyl)pyridine;2-(<em>p</em>-Methoxyphenyl)pyridine;2-(4′-Methoxyphenyl)pyridine",
    "duplicated_cas_no": "",
    "SMILES": "O(C)C1=CC=C(C=C1)C2=CC=CC=N2",
    "meta_data": {
        "InChI": "InChI=1S/C12H11NO/c1-14-11-7-5-10(6-8-11)12-4-2-3-9-13-12/h2-9H,1H3",
        "InChIKey": null,
        "Canonical SMILES": "N=1C=CC=CC1C=2C=CC(OC)=CC2",
        "Molecular Formula": "C<sub>12</sub>H<sub>11</sub>NO",
        "Molecular Mass": "185.22",
        "Boiling Point": "127-130 °C @ Press: 0.5 Torr",
        "Melting Point": "53-54 °C"
    }
}