{
    "cas_no": "597-71-7",
    "key_name": "Pentaerythritol, tetraacetate",
    "cn_name": "季戊四醇四乙酸酯;",
    "alternate_name": "1,3-Propanediol, 2,2-bis[(acetyloxy)methyl]-, 1,3-diacetate;Pentaerythritol, tetraacetate;1,3-Propanediol, 2,2-bis[(acetyloxy)methyl]-, diacetate;Normo-level;Normosterol;TAPE;Pentaerythrityl tetraacetate;NSC 1841;[3-Acetyloxy-2,2-bis(acetyloxymethyl)propyl] acetate",
    "duplicated_cas_no": "",
    "SMILES": "C(COC(C)=O)(COC(C)=O)(COC(C)=O)COC(C)=O",
    "meta_data": {
        "InChI": "InChI=1S/C13H20O8/c1-9(14)18-5-13(6-19-10(2)15,7-20-11(3)16)8-21-12(4)17/h5-8H2,1-4H3",
        "InChIKey": null,
        "Canonical SMILES": "O=C(OCC(COC(=O)C)(COC(=O)C)COC(=O)C)C",
        "Molecular Formula": "C<sub>13</sub>H<sub>20</sub>O<sub>8</sub>",
        "Molecular Mass": "304.29",
        "Melting Point": "83.5 °C"
    }
}