{
    "cas_no": "111-51-3",
    "key_name": "<em>N</em><sup>1</sup>,<em>N</em><sup>1</sup>,<em>N</em><sup>4</sup>,<em>N</em><sup>4</sup>-Tetramethyl-1,4-butanediamine",
    "cn_name": "四甲基丁二胺;",
    "alternate_name": "1,4-Butanediamine, <em>N</em><sup>1</sup>,<em>N</em><sup>1</sup>,<em>N</em><sup>4</sup>,<em>N</em><sup>4</sup>-tetramethyl-;1,4-Butanediamine, <em>N</em>,<em>N</em>,<em>N</em>′,<em>N</em>′-tetramethyl-;<em>N</em><sup>1</sup>,<em>N</em><sup>1</sup>,<em>N</em><sup>4</sup>,<em>N</em><sup>4</sup>-Tetramethyl-1,4-butanediamine;α,δ-(Tetramethyldiamino)butane;<em>N</em>,<em>N</em>,<em>N</em>′,<em>N</em>′-Tetramethyl-1,4-diaminobutane;1,4-Bis(dimethylamino)butane;<em>N</em>,<em>N</em>,<em>N</em>′,<em>N</em>′-Tetramethyl-1,4-butanediamine;<em>N</em>,<em>N</em>,<em>N</em>′,<em>N</em>′-Tetramethylputrescine;Tetramethylputrescine;2,7-Dimethyl-2,7-diazaoctane;<em>N</em>,<em>N</em>,<em>N</em>′,<em>N</em>′-Tetramethyltetramethylene-1,4-diamine;<em>N</em>,<em>N</em>,<em>N</em>′,<em>N</em>′-Tetramethylbutylenediamine;TMBDA;TMDAB;[4-(Dimethylamino)butyl]dimethylamine",
    "duplicated_cas_no": "",
    "SMILES": "C(CCN(C)C)CN(C)C",
    "meta_data": {
        "InChI": "InChI=1S/C8H20N2/c1-9(2)7-5-6-8-10(3)4/h5-8H2,1-4H3",
        "InChIKey": null,
        "Canonical SMILES": "N(C)(C)CCCCN(C)C",
        "Molecular Formula": "C<sub>8</sub>H<sub>20</sub>N<sub>2</sub>",
        "Molecular Mass": "144.26",
        "Boiling Point": "168 °C",
        "Density": "0.8041 g/cm³ @ Temp: 18.9 °C"
    }
}