{
    "cas_no": "540-72-7",
    "key_name": "Sodium thiocyanate",
    "cn_name": null,
    "alternate_name": "Thiocyanic acid, sodium salt (1:1);Thiocyanic acid, sodium salt;Sodium isothiocyanate;Haimased;Sodium rhodanide;Sodium sulfocyanate;Sodium sulfocyanide;Sodium thiocyanate;Sodium thiocyanide;Sodium rhodanate;Scyan;Thiocyanic acid, sodium salt, ion(1-) (1:1)",
    "duplicated_cas_no": "13249-87-1;104345-12-2;885623-98-3;2310327-44-5",
    "SMILES": "C(#N)S.[Na]",
    "meta_data": {
        "InChI": "InChI=1S/CHNS.Na/c2-1-3;/h3H;",
        "InChIKey": null,
        "Canonical SMILES": "[Na].N#CS",
        "Molecular Formula": "CHNS.Na",
        "Molecular Mass": "",
        "Melting Point": "300 °C",
        "Density": "1.7 g/cm³"
    }
}