{
    "cas_no": "155-10-2",
    "key_name": "2-Chloro-5-fluoro-4-pyrimidinamine",
    "cn_name": "4-氨基-2-氯-5-氟嘧啶;",
    "alternate_name": "4-Pyrimidinamine, 2-chloro-5-fluoro-;Pyrimidine, 4-amino-2-chloro-5-fluoro-;2-Chloro-5-fluoro-4-pyrimidinamine;4-Amino-2-chloro-5-fluoropyrimidine;2-Chloro-5-fluoropyrimidin-4-ylamine;NSC 78716;2-Chloro-5-fluoropyrimidin-4-amine;2-Chloro-5-fluoro-4-aminopyrimidine",
    "duplicated_cas_no": "",
    "SMILES": "NC=1C(F)=CN=C(Cl)N1",
    "meta_data": {
        "InChI": "InChI=1S/C4H3ClFN3/c5-4-8-1-2(6)3(7)9-4/h1H,(H2,7,8,9)",
        "InChIKey": null,
        "Canonical SMILES": "FC1=CN=C(Cl)N=C1N",
        "Molecular Formula": "C<sub>4</sub>H<sub>3</sub>ClFN<sub>3</sub>",
        "Molecular Mass": "147.54",
        "Melting Point": "191-193 °C"
    }
}