{
    "cas_no": "52286-59-6",
    "key_name": "Ginsenoside Re",
    "cn_name": "人参皂甙Re;",
    "alternate_name": "β-<span class=\"text-smallcaps\">D</smallcap>-Glucopyranoside, (3β,6α,12β)-20-(β-<smallcap>D</smallcap>-glucopyranosyloxy)-3,12-dihydroxydammar-24-en-6-yl 2-<em>O</em>-(6-deoxy-α-<smallcap>L</span>-mannopyranosyl)-;(3β,6α,12β)-20-(β-<span class=\"text-smallcaps\">D</smallcap>-Glucopyranosyloxy)-3,12-dihydroxydammar-24-en-6-yl 2-<em>O</em>-(6-deoxy-α-<smallcap>L</smallcap>-mannopyranosyl)-β-<smallcap>D</span>-glucopyranoside;Ginsenoside Re;Chikusetsusaponin IVc;Ginsenoside B<sub>2</sub>;Panaxoside Re;Sanchinoside Re;NSC 308877;Notoginsenoside Re;Re ginsenoside",
    "duplicated_cas_no": "75139-46-7;212055-74-8;324018-82-8;725266-05-7",
    "SMILES": "C[C@]12[C@@]([C@]3(C)[C@@]([C@@H](O[C@H]4[C@H](O[C@H]5[C@H](O)[C@H](O)[C@@H](O)[C@H](C)O5)[C@@H](O)[C@H](O)[C@@H](CO)O4)C1)(C(C)(C)[C@@H](O)CC3)[H])(C[C@@H](O)[C@]6([C@@]2(C)CC[C@@]6([C@@](O[C@@H]7O[C@H](CO)[C@@H](O)[C@H](O)[C@H]7O)(CCC=C(C)C)C)[H])[H])[H]",
    "meta_data": {
        "InChI": "InChI=1S/C48H82O18/c1-21(2)11-10-14-48(9,66-42-38(60)35(57)32(54)26(19-49)63-42)23-12-16-46(7)30(23)24(51)17-28-45(6)15-13-29(52)44(4,5)40(45)25(18-47(28,46)8)62-43-39(36(58)33(55)27(20-50)64-43)65-41-37(59)34(56)31(53)22(3)61-41/h11,22-43,49-60H,10,12-20H2,1-9H3/t22-,23-,24+,25-,26+,27+,28+,29-,30-,31-,32+,33+,34+,35-,36-,37+,38+,39+,40-,41-,42-,43+,45+,46+,47+,48-/m0/s1",
        "InChIKey": null,
        "Canonical SMILES": "OCC1OC(OC2CC3(C)C(CC(O)C4C(CCC43C)C(OC5OC(CO)C(O)C(O)C5O)(C)CCC=C(C)C)C6(C)CCC(O)C(C)(C)C26)C(OC7OC(C)C(O)C(O)C7O)C(O)C1O",
        "Molecular Formula": "C<sub>48</sub>H<sub>82</sub>O<sub>18</sub>",
        "Molecular Mass": "947.15",
        "Melting Point": "200-203 °C"
    }
}