{
    "cas_no": "526-87-4",
    "key_name": "Conduritol",
    "cn_name": null,
    "alternate_name": "5-Cyclohexene-1,2,3,4-tetrol, (1<em>R</em>,2<em>S</em>,3<em>R</em>,4<em>S</em>)-<em>rel</em>-;Conduritol;5-Cyclohexene-1,2,3,4-tetrol, (1α,2β,3β,4α)-;<em>rel</em>-(1<em>R</em>,2<em>S</em>,3<em>R</em>,4<em>S</em>)-5-Cyclohexene-1,2,3,4-tetrol;Kondurite;Conduritol A",
    "duplicated_cas_no": "95908-88-6",
    "SMILES": "O[C@H]1[C@@H](O)[C@H](O)C=C[C@@H]1O",
    "meta_data": {
        "InChI": "InChI=1/C6H10O4/c7-3-1-2-4(8)6(10)5(3)9/h1-10H/t3-,4+,5+,6-",
        "InChIKey": null,
        "Canonical SMILES": "OC1C=CC(O)C(O)C1O",
        "Molecular Formula": "C<sub>6</sub>H<sub>10</sub>O<sub>4</sub>",
        "Molecular Mass": "146.14",
        "Melting Point": "145 °C"
    }
}