{
    "cas_no": "1502-03-0",
    "key_name": "Cyclododecanamine",
    "cn_name": null,
    "alternate_name": "Cyclododecanamine;Cyclododecylamine;NSC 524958",
    "duplicated_cas_no": "",
    "SMILES": "NC1CCCCCCCCCCC1",
    "meta_data": {
        "InChI": "InChI=1S/C12H25N/c13-12-10-8-6-4-2-1-3-5-7-9-11-12/h12H,1-11,13H2",
        "InChIKey": null,
        "Canonical SMILES": "NC1CCCCCCCCCCC1",
        "Molecular Formula": "C<sub>12</sub>H<sub>25</sub>N",
        "Molecular Mass": "183.33",
        "Boiling Point": "125-140 °C",
        "Melting Point": "28 °C"
    }
}