{
    "cas_no": "944-43-4",
    "key_name": "4-Amino-2,3,5,6-tetrafluorobenzoic acid",
    "cn_name": "4-氨基-2,3,5,6-四氟苯甲酸;",
    "alternate_name": "Benzoic acid, 4-amino-2,3,5,6-tetrafluoro-;4-Amino-2,3,5,6-tetrafluorobenzoic acid;4-Aminotetrafluorobenzoic acid;NSC 98742",
    "duplicated_cas_no": "",
    "SMILES": "C(O)(=O)C1=C(F)C(F)=C(N)C(F)=C1F",
    "meta_data": {
        "InChI": "InChI=1S/C7H3F4NO2/c8-2-1(7(13)14)3(9)5(11)6(12)4(2)10/h12H2,(H,13,14)",
        "InChIKey": null,
        "Canonical SMILES": "O=C(O)C1=C(F)C(F)=C(N)C(F)=C1F",
        "Molecular Formula": "C<sub>7</sub>H<sub>3</sub>F<sub>4</sub>NO<sub>2</sub>",
        "Molecular Mass": "209.10",
        "Melting Point": "181-181.5 °C"
    }
}