{
    "cas_no": "4971-55-5",
    "key_name": "3-Chloro-2,4(3<em>H</em>,5<em>H</em>)-furandione",
    "cn_name": "3-氯-2,4(3H,5H)-呋喃二酮;",
    "alternate_name": "2,4(3<em>H</em>,5<em>H</em>)-Furandione, 3-chloro-;Acetoacetic acid, 2-chloro-4-hydroxy-, γ-lactone;3-Chloro-2,4(3<em>H</em>,5<em>H</em>)-furandione;3-Chlorotetronic acid;3-Chlorotetrahydrofuran-2,4-dione;3-Chloro-furan-2,4-dione;3-Chloro-(3<em>H</em>,5<em>H</em>)-furan-2,4-dione",
    "duplicated_cas_no": "",
    "SMILES": "ClC1C(=O)COC1=O",
    "meta_data": {
        "InChI": "InChI=1S/C4H3ClO3/c5-3-2(6)1-8-4(3)7/h3H,1H2",
        "InChIKey": null,
        "Canonical SMILES": "O=C1OCC(=O)C1Cl",
        "Molecular Formula": "C<sub>4</sub>H<sub>3</sub>ClO<sub>3</sub>",
        "Molecular Mass": "134.52",
        "Melting Point": "205 °C (decomp)"
    }
}