{
    "cas_no": "305-03-3",
    "key_name": "Chlorambucil",
    "cn_name": "苯丁酸氮芥;4-[双(2-氯乙基)氨基]苯丁酸;",
    "alternate_name": "Benzenebutanoic acid, 4-[bis(2-chloroethyl)amino]-;Butyric acid, 4-[<em>p</em>-[bis(2-chloroethyl)amino]phenyl]-;4-[Bis(2-chloroethyl)amino]benzenebutanoic acid;CB 1348;4-[<em>p</em>-[Bis(2-chloroethyl)amino]phenyl]butyric acid;γ-[<em>p</em>-Bis(2-chloroethyl)aminophenyl]butyric acid;Chlorambucil;Chloraminophene;Chlorobutine;γ-[<em>p</em>-Di(2-chloroethyl)aminophenyl]butyric acid;Leukeran;Chlorbutin;Amboclorin;NSC 3088;Ambochlorin;Linfolizin;Ecloril;Linfolysin;Lympholysin;Leukeran Tablets;NCI 3088;4-[4-[Bis(2-chloroethyl)amino]phenyl]butanoic acid;MeSH ID: D002699",
    "duplicated_cas_no": "",
    "SMILES": "N(CCCl)(CCCl)C1=CC=C(CCCC(O)=O)C=C1",
    "meta_data": {
        "InChI": "InChI=1S/C14H19Cl2NO2/c15-8-10-17(11-9-16)13-6-4-12(5-7-13)2-1-3-14(18)19/h4-7H,1-3,8-11H2,(H,18,19)",
        "InChIKey": null,
        "Canonical SMILES": "O=C(O)CCCC1=CC=C(C=C1)N(CCCl)CCCl",
        "Molecular Formula": "C<sub>14</sub>H<sub>19</sub>Cl<sub>2</sub>NO<sub>2</sub>",
        "Molecular Mass": "304.21",
        "Melting Point": "64-66 °C"
    }
}