{
    "cas_no": "64872-76-0",
    "key_name": "Butoconazole",
    "cn_name": "布康唑;1-[4-(4-氯苯基)-2-(2,6-二氯苯基)硫丁基]咪唑;",
    "alternate_name": "1<em>H</em>-Imidazole, 1-[4-(4-chlorophenyl)-2-[(2,6-dichlorophenyl)thio]butyl]-;1<em>H</em>-Imidazole, 1-[4-(4-chlorophenyl)-2-[(2,6-dichlorophenyl)thio]butyl]-, (±)-;1-[4-(4-Chlorophenyl)-2-[(2,6-dichlorophenyl)thio]butyl]-1<em>H</em>-imidazole;Butoconazole;Butaconazole;1-[2-(2,6-Dichlorophenylthio)-4-(4-chlorophenyl)-<em>n</em>-butyl]imidazole",
    "duplicated_cas_no": "67085-13-6;85496-23-7",
    "SMILES": "C(SC1=C(Cl)C=CC=C1Cl)(CN2C=CN=C2)CCC3=CC=C(Cl)C=C3",
    "meta_data": {
        "InChI": "InChI=1S/C19H17Cl3N2S/c20-15-7-4-14(5-8-15)6-9-16(12-24-11-10-23-13-24)25-19-17(21)2-1-3-18(19)22/h1-5,7-8,10-11,13,16H,6,9,12H2",
        "InChIKey": null,
        "Canonical SMILES": "ClC1=CC=C(C=C1)CCC(SC=2C(Cl)=CC=CC2Cl)CN3C=NC=C3",
        "Molecular Formula": "C<sub>19</sub>H<sub>17</sub>Cl<sub>3</sub>N<sub>2</sub>S",
        "Molecular Mass": "411.78",
        "Melting Point": "68-70.5 °C"
    }
}