{
    "cas_no": "520-18-3",
    "key_name": "Kaempferol",
    "cn_name": "山奈酚;3,4\",5,7-四羟基黄酮;",
    "alternate_name": "4<em>H</em>-1-Benzopyran-4-one, 3,5,7-trihydroxy-2-(4-hydroxyphenyl)-;Flavone, 3,4′,5,7-tetrahydroxy-;3,5,7-Trihydroxy-2-(4-hydroxyphenyl)-4<em>H</em>-1-benzopyran-4-one;C.I. 75640;Indigo Yellow;Kaempferol;Kempferol;Rhamnolutin;Robigenin;Swartziol;3,5,7,4′-Tetrahydroxyflavone;Trifolitin;5,7,4′-Trihydroxyflavonol;Kaempherol;Kaemferol;3,4′,5,7-Tetrahydroxyflavone;Nimbecetin;Populnetin;Rhamnolutein;Pelargidenolon;Kampcetin;Pelargidenon;NSC 407289;NSC 656277;3′-Deoxyquercetin;CSU-2056;CSU 2056;3,5,7-Trihydroxy-2-(4-hydroxyphenyl)chromen-4-one;ST 030560;TCM 5280863",
    "duplicated_cas_no": "14461-95-1",
    "SMILES": "O=C1C=2C(OC(=C1O)C3=CC=C(O)C=C3)=CC(O)=CC2O",
    "meta_data": {
        "InChI": "InChI=1S/C15H10O6/c16-8-3-1-7(2-4-8)15-14(20)13(19)12-10(18)5-9(17)6-11(12)21-15/h1-6,16-18,20H",
        "InChIKey": null,
        "Canonical SMILES": "O=C1C(O)=C(OC=2C=C(O)C=C(O)C12)C=3C=CC(O)=CC3",
        "Molecular Formula": "C<sub>15</sub>H<sub>10</sub>O<sub>6</sub>",
        "Molecular Mass": "286.24",
        "Melting Point": "277 °C"
    }
}