{
    "cas_no": "496-14-0",
    "key_name": "1,3-Dihydroisobenzofuran",
    "cn_name": "1,3-二氢异苯并呋喃;",
    "alternate_name": "Isobenzofuran, 1,3-dihydro-;Phthalan;1,3-Dihydroisobenzofuran;Isocoumaran;2-Oxaindan;Dihydroisobenzofuran;1,3-Dihydro-2-benzofuran",
    "duplicated_cas_no": "",
    "SMILES": "C1=2C(COC1)=CC=CC2",
    "meta_data": {
        "InChI": "InChI=1S/C8H8O/c1-2-4-8-6-9-5-7(8)3-1/h1-4H,5-6H2",
        "InChIKey": null,
        "Canonical SMILES": "O1CC=2C=CC=CC2C1",
        "Molecular Formula": "C<sub>8</sub>H<sub>8</sub>O",
        "Molecular Mass": "120.15",
        "Boiling Point": "192 °C",
        "Density": "1.098 g/cm³ @ Temp: 0 °C"
    }
}