{
    "cas_no": "2905-30-8",
    "key_name": "3,4-Dimethylbenzenesulfonyl chloride",
    "cn_name": "二甲基联苯;",
    "alternate_name": "Benzenesulfonyl chloride, 3,4-dimethyl-;3,4-Xylenesulfonyl chloride;3,4-Dimethylbenzenesulfonyl chloride;4-(Chlorosulfonyl)-1,2-dimethylbenzene;3,4-Dimethylbenzene-1-sulfonyl chloride;3,4-Dimethylbenzenesulphonyl chloride",
    "duplicated_cas_no": "1770851-54-1",
    "SMILES": "S(Cl)(=O)(=O)C1=CC(C)=C(C)C=C1",
    "meta_data": {
        "InChI": "InChI=1S/C8H9ClO2S/c1-6-3-4-8(5-7(6)2)12(9,10)11/h3-5H,1-2H3",
        "InChIKey": null,
        "Canonical SMILES": "O=S(=O)(Cl)C1=CC=C(C(=C1)C)C",
        "Molecular Formula": "C<sub>8</sub>H<sub>9</sub>ClO<sub>2</sub>S",
        "Molecular Mass": "204.67",
        "Boiling Point": "160-162 °C @ Press: 12 Torr",
        "Melting Point": "52 °C"
    }
}