{
    "cas_no": "602-38-0",
    "key_name": "1,8-Dinitronaphthalene",
    "cn_name": "1,8-二硝基萘;",
    "alternate_name": "Naphthalene, 1,8-dinitro-;1,8-Dinitronaphthalene;NSC 6323",
    "duplicated_cas_no": "",
    "SMILES": "N(=O)(=O)C=1C=2C(N(=O)=O)=CC=CC2C=CC1",
    "meta_data": {
        "InChI": "InChI=1S/C10H6N2O4/c13-11(14)8-5-1-3-7-4-2-6-9(10(7)8)12(15)16/h1-6H",
        "InChIKey": null,
        "Canonical SMILES": "O=N(=O)C=1C=CC=C2C=CC=C(C21)N(=O)=O",
        "Molecular Formula": "C<sub>10</sub>H<sub>6</sub>N<sub>2</sub>O<sub>4</sub>",
        "Molecular Mass": "218.17",
        "Melting Point": "173 °C",
        "Density": "1.46 g/cm³"
    }
}