{
    "cas_no": "1117-86-8",
    "key_name": "1,2-Octanediol",
    "cn_name": "1,2-辛二醇;",
    "alternate_name": "1,2-Octanediol;1,2-Dihydroxyoctane;1,2-Octylene glycol;<em>n</em>-Octane-1,2-diol;7,8-Dihydroxyoctane;(±)-Octane-1,2-diol;Caprylyl glycol;NSC 71546;LexGard O;Dermosoft Octiol;Sodiol ON-D;Microcare CLG;1,2-Octandiol;Hydrolite 8;Hydrolite CG;Green Octanediol;A-Leen 8",
    "duplicated_cas_no": "87720-89-6;2205885-37-4",
    "SMILES": "C(CCCCCC)(CO)O",
    "meta_data": {
        "InChI": "InChI=1S/C8H18O2/c1-2-3-4-5-6-8(10)7-9/h8-10H,2-7H2,1H3",
        "InChIKey": null,
        "Canonical SMILES": "OCC(O)CCCCCC",
        "Molecular Formula": "C<sub>8</sub>H<sub>18</sub>O<sub>2</sub>",
        "Molecular Mass": "146.23",
        "Boiling Point": "135-136 °C @ Press: 10 Torr",
        "Melting Point": "35-37 °C"
    }
}