{
    "cas_no": "3559-74-8",
    "key_name": "5-(Trimethylsilyl)-1,3-cyclopentadiene",
    "cn_name": "三甲硅烷基环戊二烯;环戊二炔三甲基硅烷;",
    "alternate_name": "1,3-Cyclopentadiene, 5-(trimethylsilyl)-;Silane, 2,4-cyclopentadien-1-yltrimethyl-;5-(Trimethylsilyl)-1,3-cyclopentadiene;5-(Trimethylsilyl)cyclopentadiene;1-Trimethylsilyl-2,4-cyclopentadiene;1-(Trimethylsilyl)cyclopentadiene;Cyclopentadienyltrimethylsilane;NSC 176274;2,4-Cyclopentadien-1-yltrimethylsilane",
    "duplicated_cas_no": "",
    "SMILES": "[Si](C)(C)(C)C1C=CC=C1",
    "meta_data": {
        "InChI": "InChI=1S/C8H14Si/c1-9(2,3)8-6-4-5-7-8/h4-8H,1-3H3",
        "InChIKey": null,
        "Canonical SMILES": "C=1C=CC(C1)[Si](C)(C)C",
        "Molecular Formula": "C<sub>8</sub>H<sub>14</sub>Si",
        "Molecular Mass": "138.28",
        "Boiling Point": "43-44 °C @ Press: 19 Torr",
        "Density": "0.8390 g/cm³ @ Temp: 20 °C"
    }
}