{
    "cas_no": "117-06-6",
    "key_name": "<em>N</em>-(5-Amino-9,10-dihydro-9,10-dioxo-1-anthracenyl)benzamide",
    "cn_name": "1-氨基-5-苯甲酰胺基蒽醌;",
    "alternate_name": "Benzamide, <em>N</em>-(5-amino-9,10-dihydro-9,10-dioxo-1-anthracenyl)-;Benzamide, <em>N</em>-(5-amino-1-anthraquinonyl)-;Anthraquinone, 1-amino-5-benzamido-;<em>N</em>-(5-Amino-9,10-dihydro-9,10-dioxo-1-anthracenyl)benzamide;1-Amino-5-benzoylaminoanthraquinone;1-Amino-5-benzamido-9,10-anthraquinone;1-Benzamido-5-amino-9,10-anthraquinone;5-Benzamido-1-aminoanthraquinone;1-Benzamido-5-aminoanthraquinone;1-Amino-5-benzamidoanthraquinone;NSC 13981",
    "duplicated_cas_no": "",
    "SMILES": "N(C(=O)C1=CC=CC=C1)C2=C3C(C(=O)C=4C(C3=O)=CC=CC4N)=CC=C2",
    "meta_data": {
        "InChI": "InChI=1S/C21H14N2O3/c22-15-10-4-8-13-17(15)19(24)14-9-5-11-16(18(14)20(13)25)23-21(26)12-6-2-1-3-7-12/h1-11H,22H2,(H,23,26)",
        "InChIKey": null,
        "Canonical SMILES": "O=C(NC1=CC=CC=2C(=O)C=3C(N)=CC=CC3C(=O)C12)C=4C=CC=CC4",
        "Molecular Formula": "C<sub>21</sub>H<sub>14</sub>N<sub>2</sub>O<sub>3</sub>",
        "Molecular Mass": "342.35",
        "Melting Point": "258-260 °C"
    }
}