{
    "cas_no": "23031-36-9",
    "key_name": "Prallethrin",
    "cn_name": "炔丙菊酯;右旋反式-2,2-二甲基-3-(2-甲基-1-丙烯基)环丙烷羧酸-S-2-甲基-3-(2-炔丙基)-4-氧代环戊-2-烯基酯;",
    "alternate_name": "Cyclopropanecarboxylic acid, 2,2-dimethyl-3-(2-methyl-1-propen-1-yl)-, 2-methyl-4-oxo-3-(2-propyn-1-yl)-2-cyclopenten-1-yl ester;Cyclopropanecarboxylic acid, 2,2-dimethyl-3-(2-methylpropenyl)-, ester with 4-hydroxy-3-methyl-2-(2-propynyl)-2-cyclopenten-1-one, <em>trans</em>-(±)-;Cyclopropanecarboxylic acid, 2,2-dimethyl-3-(2-methyl-1-propenyl)-, 2-methyl-4-oxo-3-(2-propynyl)-2-cyclopenten-1-yl ester;Cyclopropanecarboxylic acid, 2,2-dimethyl-3-(2-methylpropenyl)-, ester with 4-hydroxy-3-methyl-2-(2-propynyl)-2-cyclopenten-1-one;2-Cyclopenten-1-one, 4-hydroxy-3-methyl-2-(2-propynyl)-, 2,2-dimethyl-3-(2-methylpropenyl)cyclopropanecarboxylate, <em>trans</em>-(±)-;S 4068;Prallethrin;S 4068SF;Rethrinpropargyl;Etoc;Acetylene C permethrin;Prallethrine",
    "duplicated_cas_no": "23031-13-2;24909-64-6;24909-53-3",
    "SMILES": "C(=C(C)C)C1C(C(OC2C(C)=C(CC#C)C(=O)C2)=O)C1(C)C",
    "meta_data": {
        "InChI": "InChI=1S/C19H24O3/c1-7-8-13-12(4)16(10-15(13)20)22-18(21)17-14(9-11(2)3)19(17,5)6/h1,9,14,16-17H,8,10H2,2-6H3",
        "InChIKey": null,
        "Canonical SMILES": "O=C(OC1C(=C(C(=O)C1)CC#C)C)C2C(C=C(C)C)C2(C)C",
        "Molecular Formula": "C<sub>19</sub>H<sub>24</sub>O<sub>3</sub>",
        "Molecular Mass": "300.39",
        "Boiling Point": "&gt;313.5 °C",
        "Melting Point": "&lt;25 °C"
    }
}