{
    "cas_no": "98-58-8",
    "key_name": "4-Bromobenzenesulfonyl chloride",
    "cn_name": "4-溴苯磺酰氯;对溴苯磺酰氯;",
    "alternate_name": "Benzenesulfonyl chloride, 4-bromo-;Benzenesulfonyl chloride, <em>p</em>-bromo-;4-Bromobenzenesulfonyl chloride;<em>p</em>-Bromobenzenesulfonyl chloride;<em>p</em>-Bromophenylsulfonyl chloride;Brosyl chloride;<em>p</em>-Brosyl chloride;4-Bromophenylsulfonyl chloride;(4-Bromophenyl)chlorosulfone;NSC 4506;4-Bromobenzene-1-sulfonyl chloride;4′-Bromobenzenesulfonyl chloride;4-Bromo-phenylsulphonylchloride",
    "duplicated_cas_no": "",
    "SMILES": "S(Cl)(=O)(=O)C1=CC=C(Br)C=C1",
    "meta_data": {
        "InChI": "InChI=1S/C6H4BrClO2S/c7-5-1-3-6(4-2-5)11(8,9)10/h1-4H",
        "InChIKey": null,
        "Canonical SMILES": "O=S(=O)(Cl)C1=CC=C(Br)C=C1",
        "Molecular Formula": "C<sub>6</sub>H<sub>4</sub>BrClO<sub>2</sub>S",
        "Molecular Mass": "255.52",
        "Boiling Point": "180 °C @ Press: 30 Torr",
        "Melting Point": "76 °C"
    }
}