{
    "cas_no": "486-84-0",
    "key_name": "Harman",
    "cn_name": "固蓝BB盐;",
    "alternate_name": "9<em>H</em>-Pyrido[3,4-<em>b</em>]indole, 1-methyl-;2,9-Pyridindole, 1-methyl-;1-Methyl-9<em>H</em>-pyrido[3,4-<em>b</em>]indole;Aribine;Harman;Harmane;Locuturine;1-Methyl-β-carboline;Locuturin;Aribin;Zygofabagine;Indoter;NSC 54439;1-Methyl-9<em>H</em>-β-carboline;1-Methyl-9<em>H</em>-pyrido[2,3-<em>b</em>]indole",
    "duplicated_cas_no": "2549198-75-4",
    "SMILES": "CC1=C2C(C=3C(N2)=CC=CC3)=CC=N1",
    "meta_data": {
        "InChI": "InChI=1S/C12H10N2/c1-8-12-10(6-7-13-8)9-4-2-3-5-11(9)14-12/h2-7,14H,1H3",
        "InChIKey": null,
        "Canonical SMILES": "N=1C=CC=2C=3C=CC=CC3NC2C1C",
        "Molecular Formula": "C<sub>12</sub>H<sub>10</sub>N<sub>2</sub>",
        "Molecular Mass": "182.22",
        "Boiling Point": "160-180 °C @ Press: 0.1 Torr",
        "Melting Point": "236.5 °C"
    }
}