{
    "cas_no": "4319-02-2",
    "key_name": "4-<em>O</em>-Methylgallic acid",
    "cn_name": "5-羟基异香草酸;",
    "alternate_name": "Benzoic acid, 3,5-dihydroxy-4-methoxy-;α-Resorcylic acid, 4-methoxy-;3,5-Dihydroxy-4-methoxybenzoic acid;4-<em>O</em>-Methylgallic acid;Gallic acid 4-methyl ether;4-Methoxy-3,5-dihydroxybenzoic acid",
    "duplicated_cas_no": "",
    "SMILES": "O(C)C1=C(O)C=C(C(O)=O)C=C1O",
    "meta_data": {
        "InChI": "InChI=1S/C8H8O5/c1-13-7-5(9)2-4(8(11)12)3-6(7)10/h2-3,9-10H,1H3,(H,11,12)",
        "InChIKey": null,
        "Canonical SMILES": "O=C(O)C1=CC(O)=C(OC)C(O)=C1",
        "Molecular Formula": "C<sub>8</sub>H<sub>8</sub>O<sub>5</sub>",
        "Molecular Mass": "184.15",
        "Melting Point": "245 °C"
    }
}