{
    "cas_no": "18787-63-8",
    "key_name": "2-Hexadecanone",
    "cn_name": null,
    "alternate_name": "2-Hexadecanone;Methyltetradecylketone;Cetan-2-one",
    "duplicated_cas_no": "",
    "SMILES": "C(CCCCCCCC)CCCCCC(C)=O",
    "meta_data": {
        "InChI": "InChI=1S/C16H32O/c1-3-4-5-6-7-8-9-10-11-12-13-14-15-16(2)17/h3-15H2,1-2H3",
        "InChIKey": null,
        "Canonical SMILES": "O=C(C)CCCCCCCCCCCCCC",
        "Molecular Formula": "C<sub>16</sub>H<sub>32</sub>O",
        "Molecular Mass": "240.42",
        "Boiling Point": "132-133 °C @ Press: 0.7 Torr",
        "Melting Point": "44-45 °C"
    }
}