{
    "cas_no": "10595-06-9",
    "key_name": "Phenoxyethyl methacrylate",
    "cn_name": "2-丙烯酸-2-甲基-2-苯氧基乙基酯;",
    "alternate_name": "2-Propenoic acid, 2-methyl-, 2-phenoxyethyl ester;Methacrylic acid, 2-phenoxyethyl ester;2-Phenoxyethyl methacrylate;Phenoxyethyl methacrylate;Sartomer 340;Light Acrylate PO;Light Ester PO;SR 340;Sartomer SR 340;NK Ester PHE 1G;FA 310M;Ethylene glycol methacrylate phenyl ether;Ethylene glycol phenyl ether methacrylate;2-Phenoxyethylene glycol methacrylate;2-Phenoxyethyl 2-methylprop-2-enoate;Ethylene glycol monophenyl ether methacrylate;Miramer M 141;Etermer EM 310",
    "duplicated_cas_no": "",
    "SMILES": "O(CCOC(C(C)=C)=O)C1=CC=CC=C1",
    "meta_data": {
        "InChI": "InChI=1S/C12H14O3/c1-10(2)12(13)15-9-8-14-11-6-4-3-5-7-11/h3-7H,1,8-9H2,2H3",
        "InChIKey": null,
        "Canonical SMILES": "O=C(OCCOC=1C=CC=CC1)C(=C)C",
        "Molecular Formula": "C<sub>12</sub>H<sub>14</sub>O<sub>3</sub>",
        "Molecular Mass": "206.24",
        "Boiling Point": "268 °C @ Press: 760 Torr",
        "Density": "1.08 g/cm³"
    }
}