{
    "cas_no": "2150-44-9",
    "key_name": "3,5-Dihydroxybenzoic acid methyl ester",
    "cn_name": null,
    "alternate_name": "Benzoic acid, 3,5-dihydroxy-, methyl ester;α-Resorcylic acid, methyl ester;Methyl 3,5-dihydroxybenzoate;3,5-Dihydroxybenzoic acid methyl ester;α-Resorcinol carboxylic acid methyl ester;Methyl α-resorcylate;NSC 61082;Methyl 3,5-hydroxybenzoate",
    "duplicated_cas_no": "",
    "SMILES": "C(OC)(=O)C1=CC(O)=CC(O)=C1",
    "meta_data": {
        "InChI": "InChI=1S/C8H8O4/c1-12-8(11)5-2-6(9)4-7(10)3-5/h2-4,9-10H,1H3",
        "InChIKey": null,
        "Canonical SMILES": "O=C(OC)C=1C=C(O)C=C(O)C1",
        "Molecular Formula": "C<sub>8</sub>H<sub>8</sub>O<sub>4</sub>",
        "Molecular Mass": "168.15",
        "Melting Point": "163-165 °C"
    }
}