{
    "cas_no": "1470-57-1",
    "key_name": "2-Hydroxy-5-methylbenzophenone",
    "cn_name": "2-羟基-5-甲基苯甲酮;2-羟基-5-甲基苯甲酮;",
    "alternate_name": "Methanone, (2-hydroxy-5-methylphenyl)phenyl-;Benzophenone, 2-hydroxy-5-methyl-;(2-Hydroxy-5-methylphenyl)phenylmethanone;2-Hydroxy-5-methylbenzophenone;5-Methyl-2-hydroxybenzophenone;2-Benzoyl-4-methylphenol;NSC 296",
    "duplicated_cas_no": "",
    "SMILES": "C(=O)(C1=C(O)C=CC(C)=C1)C2=CC=CC=C2",
    "meta_data": {
        "InChI": "InChI=1S/C14H12O2/c1-10-7-8-13(15)12(9-10)14(16)11-5-3-2-4-6-11/h2-9,15H,1H3",
        "InChIKey": null,
        "Canonical SMILES": "O=C(C=1C=CC=CC1)C2=CC(=CC=C2O)C",
        "Molecular Formula": "C<sub>14</sub>H<sub>12</sub>O<sub>2</sub>",
        "Molecular Mass": "212.24",
        "Melting Point": "84 °C"
    }
}