{
    "cas_no": "4815-32-1",
    "key_name": "Ethyl 2-amino-5-methylthiophene-3-carboxylate",
    "cn_name": null,
    "alternate_name": "3-Thiophenecarboxylic acid, 2-amino-5-methyl-, ethyl ester;Ethyl 2-amino-5-methylthiophene-3-carboxylate;2-Amino-3-carboethoxy-5-methylthiophene;2-Amino-5-methylthiophene-3-carboxylic acid ethyl ester;2-Amino-5-methyl-3-ethoxycarbonylthiophene;2-Amino-3-ethoxycarbonyl-5-methylthiophene",
    "duplicated_cas_no": "",
    "SMILES": "C(OCC)(=O)C1=C(N)SC(C)=C1",
    "meta_data": {
        "InChI": "InChI=1S/C8H11NO2S/c1-3-11-8(10)6-4-5(2)12-7(6)9/h4H,3,9H2,1-2H3",
        "InChIKey": null,
        "Canonical SMILES": "O=C(OCC)C=1C=C(SC1N)C",
        "Molecular Formula": "C<sub>8</sub>H<sub>11</sub>NO<sub>2</sub>S",
        "Molecular Mass": "185.24",
        "Melting Point": "44-45 °C"
    }
}