{
    "cas_no": "153-61-7",
    "key_name": "Cephalothin",
    "cn_name": null,
    "alternate_name": "5-Thia-1-azabicyclo[4.2.0]oct-2-ene-2-carboxylic acid, 3-[(acetyloxy)methyl]-8-oxo-7-[[2-(2-thienyl)acetyl]amino]-, (6<em>R</em>,7<em>R</em>)-;5-Thia-1-azabicyclo[4.2.0]oct-2-ene-2-carboxylic acid, 3-(hydroxymethyl)-8-oxo-7-[2-(2-thienyl)acetamido]-, acetate (ester);5-Thia-1-azabicyclo[4.2.0]oct-2-ene-2-carboxylic acid, 3-[(acetyloxy)methyl]-8-oxo-7-[(2-thienylacetyl)amino]-, (6<em>R</em>-<em>trans</em>)-;5-Thia-1-azabicyclo[4.2.0]oct-2-ene-2-carboxylic acid, 3-[(acetyloxy)methyl]-8-oxo-7-[(2-thienylacetyl)amino]-, (6<em>R</em>,7<em>R</em>)-;(6<em>R</em>,7<em>R</em>)-3-[(Acetyloxy)methyl]-8-oxo-7-[[2-(2-thienyl)acetyl]amino]-5-thia-1-azabicyclo[4.2.0]oct-2-ene-2-carboxylic acid;3-(Acetoxymethyl)-8-oxo-7-[2-(2-thienyl)acetamido]-5-thia-1-azabicyclo[4.2.0]oct-2-ene-2-carboxylic acid;Cefalotin;Cephalothin;CT;7-(Thiophene-2-acetamido)cephalosporin;Cephalotin;3-Acetoxymethyl-7-(2-thienylacetamido)-3-cephem-4-carboxylic acid;7-(2-Thienylacetamido)cephalosporanic acid;7-[2-(2-Thienyl)acetylamido]cephalosporanic acid;MeSH ID: D002512",
    "duplicated_cas_no": "2073-29-2",
    "SMILES": "C(O)(=O)C=1N2[C@@]([C@H](NC(CC3=CC=CS3)=O)C2=O)(SCC1COC(C)=O)[H]",
    "meta_data": {
        "InChI": "InChI=1S/C16H16N2O6S2/c1-8(19)24-6-9-7-26-15-12(14(21)18(15)13(9)16(22)23)17-11(20)5-10-3-2-4-25-10/h2-4,12,15H,5-7H2,1H3,(H,17,20)(H,22,23)/t12-,15-/m1/s1",
        "InChIKey": null,
        "Canonical SMILES": "O=C(O)C1=C(COC(=O)C)CSC2N1C(=O)C2NC(=O)CC=3SC=CC3",
        "Molecular Formula": "C<sub>16</sub>H<sub>16</sub>N<sub>2</sub>O<sub>6</sub>S<sub>2</sub>",
        "Molecular Mass": "396.44",
        "Melting Point": "160-160.5 °C"
    }
}