{
    "cas_no": "582-62-7",
    "key_name": "Isobutyl phenyl ketone",
    "cn_name": "(丙炔氧基)三甲基硅烷;异丁基苯基酮;异戊醯苯;",
    "alternate_name": "1-Butanone, 3-methyl-1-phenyl-;Isovalerophenone;3-Methyl-1-phenyl-1-butanone;Isobutyl phenyl ketone;1-Phenyl-3-methyl-1-butanone;Phenyl isobutyl ketone;NSC 72033",
    "duplicated_cas_no": "",
    "SMILES": "C(CC(C)C)(=O)C1=CC=CC=C1",
    "meta_data": {
        "InChI": "InChI=1S/C11H14O/c1-9(2)8-11(12)10-6-4-3-5-7-10/h3-7,9H,8H2,1-2H3",
        "InChIKey": null,
        "Canonical SMILES": "O=C(C=1C=CC=CC1)CC(C)C",
        "Molecular Formula": "C<sub>11</sub>H<sub>14</sub>O",
        "Molecular Mass": "162.23",
        "Boiling Point": "236.5 °C",
        "Melting Point": "225-235 °C",
        "Density": "0.985 g/cm³ @ Temp: 40 °C"
    }
}