{
    "cas_no": "4604-41-5",
    "key_name": "3,3′-Diiodo-<span class=\"text-smallcaps\">L</span>-thyronine",
    "cn_name": null,
    "alternate_name": "<span class=\"text-smallcaps\">L</span>-Tyrosine, <em>O</em>-(4-hydroxy-3-iodophenyl)-3-iodo-;Alanine, 3-[4-(4-hydroxy-3-iodophenoxy)-3-iodophenyl]-, <span class=\"text-smallcaps\">L</span>-;<em>O</em>-(4-Hydroxy-3-iodophenyl)-3-iodo-<span class=\"text-smallcaps\">L</span>-tyrosine;3,3′-Diiodo-<span class=\"text-smallcaps\">L</span>-thyronine;<span class=\"text-smallcaps\">L</span>-3,3′-Diiodothyronine",
    "duplicated_cas_no": "119518-28-4",
    "SMILES": "O(C1=C(I)C=C(C[C@@H](C(O)=O)N)C=C1)C2=CC(I)=C(O)C=C2",
    "meta_data": {
        "InChI": "InChI=1S/C15H13I2NO4/c16-10-7-9(2-3-13(10)19)22-14-4-1-8(5-11(14)17)6-12(18)15(20)21/h1-5,7,12,19H,6,18H2,(H,20,21)/t12-/m0/s1",
        "InChIKey": null,
        "Canonical SMILES": "O=C(O)C(N)CC1=CC=C(OC2=CC=C(O)C(I)=C2)C(I)=C1",
        "Molecular Formula": "C<sub>15</sub>H<sub>13</sub>I<sub>2</sub>NO<sub>4</sub>",
        "Molecular Mass": "525.08",
        "Melting Point": "198 °C (decomp)"
    }
}