{
    "cas_no": "89402-43-7",
    "key_name": "5-Chloro-2,3-difluoropyridine",
    "cn_name": "2,3-二氟-5-氯吡啶;",
    "alternate_name": "Pyridine, 5-chloro-2,3-difluoro-;5-Chloro-2,3-difluoropyridine;2,3-Difluoro-5-chloropyridine;3-Chloro-5,6-difluoropyridine",
    "duplicated_cas_no": "",
    "SMILES": "FC1=C(F)N=CC(Cl)=C1",
    "meta_data": {
        "InChI": "InChI=1S/C5H2ClF2N/c6-3-1-4(7)5(8)9-2-3/h1-2H",
        "InChIKey": null,
        "Canonical SMILES": "FC1=NC=C(Cl)C=C1F",
        "Molecular Formula": "C<sub>5</sub>H<sub>2</sub>ClF<sub>2</sub>N",
        "Molecular Mass": "149.53",
        "Boiling Point": "70-73 °C @ Press: 85 Torr"
    }
}