{
    "cas_no": "5324-30-1",
    "key_name": "Diethyl <em>P</em>-(2-bromoethyl)phosphonate",
    "cn_name": "2-溴乙基磷酸二乙酯;2-溴乙基膦酸二乙酯;",
    "alternate_name": "Phosphonic acid, <em>P</em>-(2-bromoethyl)-, diethyl ester;Phosphonic acid, (2-bromoethyl)-, diethyl ester;Diethyl <em>P</em>-(2-bromoethyl)phosphonate;(2-Bromoethyl)phosphonic acid diethyl ester;Diethyl (2-bromoethyl)phosphonate;<em>O</em>,<em>O</em>-Diethyl (2-bromoethyl)phosphonate;NSC 119421;NSC 2672;Diethyl bromoethylphosphonate;1-Bromo-2-diethoxyphosphoryl-ethane;1-Bromo-2-diethoxyphosphorylethane",
    "duplicated_cas_no": "",
    "SMILES": "P(CCBr)(OCC)(OCC)=O",
    "meta_data": {
        "InChI": "InChI=1S/C6H14BrO3P/c1-3-9-11(8,6-5-7)10-4-2/h3-6H2,1-2H3",
        "InChIKey": null,
        "Canonical SMILES": "O=P(OCC)(OCC)CCBr",
        "Molecular Formula": "C<sub>6</sub>H<sub>14</sub>BrO<sub>3</sub>P",
        "Molecular Mass": "245.05",
        "Boiling Point": "101 °C @ Press: 0.8 Torr",
        "Density": "1.0154 g/cm³ @ Temp: 20 °C"
    }
}