{
    "cas_no": "2695-47-8",
    "key_name": "6-Bromo-1-hexene",
    "cn_name": "6-溴-1-己烯;",
    "alternate_name": "1-Hexene, 6-bromo-;6-Bromo-1-hexene;1-Bromo-5-hexene;5-Hexenyl bromide;6-Bromohexene;5-Hexen-1-yl bromide",
    "duplicated_cas_no": "",
    "SMILES": "C(CCBr)CC=C",
    "meta_data": {
        "InChI": "InChI=1S/C6H11Br/c1-2-3-4-5-6-7/h2H,1,3-6H2",
        "InChIKey": null,
        "Canonical SMILES": "BrCCCCC=C",
        "Molecular Formula": "C<sub>6</sub>H<sub>11</sub>Br",
        "Molecular Mass": "163.06",
        "Boiling Point": "151 °C @ Press: 712 Torr",
        "Density": "1.2169 g/cm³ @ Temp: 20 °C"
    }
}