{
    "cas_no": "18672-02-1",
    "key_name": "6-Chloro-2-quinolinamine",
    "cn_name": null,
    "alternate_name": "2-Quinolinamine, 6-chloro-;Quinoline, 2-amino-6-chloro-;6-Chloro-2-quinolinamine;6-Chloroquinolin-2-amine;6-Chloroquinoline-2-amine;2-Amino-6-chloroquinoline",
    "duplicated_cas_no": "",
    "SMILES": "ClC1=CC2=C(N=C(N)C=C2)C=C1",
    "meta_data": {
        "InChI": "InChI=1S/C9H7ClN2/c10-7-2-3-8-6(5-7)1-4-9(11)12-8/h1-5H,(H2,11,12)",
        "InChIKey": null,
        "Canonical SMILES": "ClC=1C=CC2=NC(N)=CC=C2C1",
        "Molecular Formula": "C<sub>9</sub>H<sub>7</sub>ClN<sub>2</sub>",
        "Molecular Mass": "178.62",
        "Melting Point": "146-150 °C"
    }
}