{
    "cas_no": "1574-41-0",
    "key_name": "<em>cis</em>-1,3-Pentadiene",
    "cn_name": "顺-1,3-戊二烯;顺戊间二烯;顺式-1,3-戊二烯;",
    "alternate_name": "1,3-Pentadiene, (3<em>Z</em>)-;1,3-Pentadiene, (<em>Z</em>)-;1,3-Pentadiene, <em>cis</em>-;(3<em>Z</em>)-1,3-Pentadiene;<em>cis</em>-1,3-Pentadiene;<em>cis</em>-Piperylene;<em>cis</em>-1-Methylbutadiene;(<em>Z</em>)-1,3-Pentadiene;<em>cis</em>-1-Methyl-1,3-butadiene;(<em>Z</em>)-Piperylene",
    "duplicated_cas_no": "",
    "SMILES": "C(\\C=C)=C\\C",
    "meta_data": {
        "InChI": "InChI=1S/C5H8/c1-3-5-4-2/h3-5H,1H2,2H3/b5-4-",
        "InChIKey": null,
        "Canonical SMILES": "C=CC=CC",
        "Molecular Formula": "C<sub>5</sub>H<sub>8</sub>",
        "Molecular Mass": "68.12",
        "Boiling Point": "44.1 °C",
        "Melting Point": "-140.8 °C",
        "Density": "0.6916 g/cm³ @ Temp: 20 °C"
    }
}