{
    "cas_no": "2043-47-2",
    "key_name": "2-(Perfluorobutyl)ethanol",
    "cn_name": "1H,1H,2H,2H-全氟己-1-醇;3,3,4,4,5,5,6,6,6-九氟-1-己醇;",
    "alternate_name": "1-Hexanol, 3,3,4,4,5,5,6,6,6-nonafluoro-;3,3,4,4,5,5,6,6,6-Nonafluoro-1-hexanol;2-(Perfluorobutyl)ethyl alcohol;1,1,2,2-Tetrahydroperfluorohexyl alcohol;2-(Perfluorobutyl)ethanol;1<em>H</em>,1<em>H</em>,2<em>H</em>,2<em>H</em>-Perfluorohexanol;1<em>H</em>,1<em>H</em>,2<em>H</em>,2<em>H</em>-Perfluorohexan-1-ol;1<em>H</em>,1<em>H</em>,2<em>H</em>,2<em>H</em>-Nonafluorohexanol;A 1420;3,3,4,4,5,5,6,6,6-Nonafluorohexanol;1<em>H</em>,1<em>H</em>,2<em>H</em>,2<em>H</em>-Nonafluoro-1-hexanol;1<em>H</em>,1<em>H</em>,2<em>H</em>,2<em>H</em>-Nonafluoro-<em>n</em>-hexanol;1,1,2,2-Tetrahydroperfluorohexan-1-ol;4:2 FTOH;TEOH 4;Perfluorobutylethanol;6,6,6,5,5,4,4,3,3-Nonafluorohexan-1-ol",
    "duplicated_cas_no": "",
    "SMILES": "C(C(C(F)(F)F)(F)F)(C(CCO)(F)F)(F)F",
    "meta_data": {
        "InChI": "InChI=1S/C6H5F9O/c7-3(8,1-2-16)4(9,10)5(11,12)6(13,14)15/h16H,1-2H2",
        "InChIKey": null,
        "Canonical SMILES": "FC(F)(F)C(F)(F)C(F)(F)C(F)(F)CCO",
        "Molecular Formula": "C<sub>6</sub>H<sub>5</sub>F<sub>9</sub>O",
        "Molecular Mass": "264.09",
        "Boiling Point": "65 °C @ Press: 20 Torr"
    }
}