{
    "cas_no": "16088-07-6",
    "key_name": "Phenylalaninol",
    "cn_name": null,
    "alternate_name": "Benzenepropanol, β-amino-;1-Propanol, 2-amino-3-phenyl-;β-Aminobenzenepropanol;3-Phenyl-2-aminopropanol;2-Amino-3-phenyl-1-propanol;2-Amino-1-hydroxy-3-phenylpropane;Phenylalaninol;(±)-Phenylalaninol;(±)-2-Amino-3-phenylpropanol;(±)-2-Amino-3-phenyl-1-propanol;(<em>RS</em>)-2-Amino-3-phenylpropanol;<span class=\"text-smallcaps\">D</smallcap><smallcap>L</span>-Phenylalaninol;(<em>RS</em>)-2-Amino-3-phenyl-1-propanol;NSC 20899;2-Amino-3-phenylpropan-1-ol;2-Amino-3-phenylpropanol;2-Amino-3-phenyl-1-propanediol",
    "duplicated_cas_no": "1795-98-8",
    "SMILES": "C(C(CO)N)C1=CC=CC=C1",
    "meta_data": {
        "InChI": "InChI=1S/C9H13NO/c10-9(7-11)6-8-4-2-1-3-5-8/h1-5,9,11H,6-7,10H2",
        "InChIKey": null,
        "Canonical SMILES": "OCC(N)CC=1C=CC=CC1",
        "Molecular Formula": "C<sub>9</sub>H<sub>13</sub>NO",
        "Molecular Mass": "151.21",
        "Boiling Point": "150-160 °C",
        "Melting Point": "128 °C"
    }
}