{
    "cas_no": "18549-40-1",
    "key_name": "1,2-<em>O</em>-Isopropylidene-α-<span class=\"text-smallcaps\">D</span>-glucofuranose",
    "cn_name": "1,2-O-异亚丙基-D-呋喃葡萄糖;",
    "alternate_name": "α-<span class=\"text-smallcaps\">D</span>-Glucofuranose, 1,2-<em>O</em>-(1-methylethylidene)-;Glucofuranose, 1,2-<em>O</em>-isopropylidene-, α-<span class=\"text-smallcaps\">D</span>-;Glucofuranose, 1,2-<em>O</em>-isopropylidene-;Furo[2,3-<em>d</em>]-1,3-dioxole, α-<span class=\"text-smallcaps\">D</span>-glucofuranose deriv.;1,2-<em>O</em>-(1-Methylethylidene)-α-<span class=\"text-smallcaps\">D</span>-glucofuranose;1,2-<em>O</em>-Isopropylidene-α-<span class=\"text-smallcaps\">D</span>-glucofuranose;1,2-Mono-<em>O</em>-isopropylidene-α-<span class=\"text-smallcaps\">D</span>-glucofuranose;NSC 1697",
    "duplicated_cas_no": "108061-08-1;582-51-4;902458-58-6;934708-33-5;1195621-16-9",
    "SMILES": "O[C@@H]1[C@@]2([C@](O[C@@]1([C@@H](CO)O)[H])(OC(C)(C)O2)[H])[H]",
    "meta_data": {
        "InChI": "InChI=1S/C9H16O6/c1-9(2)14-7-5(12)6(4(11)3-10)13-8(7)15-9/h4-8,10-12H,3H2,1-2H3/t4-,5+,6-,7-,8-/m1/s1",
        "InChIKey": null,
        "Canonical SMILES": "OCC(O)C1OC2OC(OC2C1O)(C)C",
        "Molecular Formula": "C<sub>9</sub>H<sub>16</sub>O<sub>6</sub>",
        "Molecular Mass": "220.22",
        "Melting Point": "160-160.5 °C"
    }
}