{
    "cas_no": "7783-68-8",
    "key_name": "Niobium pentafluoride",
    "cn_name": "氟化铌;",
    "alternate_name": "Niobium fluoride (NbF<sub>5</sub>), (<em>TB</em>-5-11)-;Niobium fluoride (NbF<sub>5</sub>);Niobium pentafluoride;Niobium(V) fluoride",
    "duplicated_cas_no": "12422-77-4;26979-71-5;63144-38-7",
    "SMILES": "[Nb](F)(F)(F)(F)F",
    "meta_data": {
        "InChI": "InChI=1S/5FH.Nb/h5*1H;/q;;;;;+5/p-5",
        "InChIKey": null,
        "Canonical SMILES": "F[Nb](F)(F)(F)F",
        "Molecular Formula": "F<sub>5</sub>Nb",
        "Molecular Mass": "",
        "Boiling Point": "234.9 °C",
        "Melting Point": "80.0 °C",
        "Density": "2.6955 g/cm³ @ Temp: 80.04 °C"
    }
}