{
    "cas_no": "14804-39-8",
    "key_name": "2-Methoxy-1,3-dimethyl-5-nitrobenzene",
    "cn_name": "2,6-二甲基-4-硝基苯甲醚;",
    "alternate_name": "Benzene, 2-methoxy-1,3-dimethyl-5-nitro-;Anisole, 2,6-dimethyl-4-nitro-;2-Methoxy-1,3-dimethyl-5-nitrobenzene;4-Methoxy-3,5-dimethylnitrobenzene;3,5-Dimethyl-4-methoxynitrobenzene;2,6-Dimethyl-4-nitroanisole",
    "duplicated_cas_no": "",
    "SMILES": "O(C)C1=C(C)C=C(N(=O)=O)C=C1C",
    "meta_data": {
        "InChI": "InChI=1S/C9H11NO3/c1-6-4-8(10(11)12)5-7(2)9(6)13-3/h4-5H,1-3H3",
        "InChIKey": null,
        "Canonical SMILES": "O=N(=O)C=1C=C(C(OC)=C(C1)C)C",
        "Molecular Formula": "C<sub>9</sub>H<sub>11</sub>NO<sub>3</sub>",
        "Molecular Mass": "181.19",
        "Melting Point": "92 °C"
    }
}