{
    "cas_no": "4637-56-3",
    "key_name": "4-Quinolinamine, <em>N</em>-hydroxy-, 1-oxide",
    "cn_name": null,
    "alternate_name": "4-Quinolinamine, <em>N</em>-hydroxy-, 1-oxide;Quinoline, 4-(hydroxyamino)-, 1-oxide;4-Hydroxylaminoquinoline 1-oxide;4-(Hydroxyamino)quinoline 1-oxide;4-Hydroxyaminoquinoline <em>N</em>-oxide;4-Hydroxylaminoquinoline <em>N</em>-oxide;NSC 177384",
    "duplicated_cas_no": "362-26-5",
    "SMILES": "N(O)C=1C2=C(N(=O)=CC1)C=CC=C2",
    "meta_data": {
        "InChI": "InChI=1S/C9H8N2O2/c12-10-8-5-6-11(13)9-4-2-1-3-7(8)9/h1-6,10,12H",
        "InChIKey": null,
        "Canonical SMILES": "O=N1=CC=C(NO)C=2C=CC=CC21",
        "Molecular Formula": "C<sub>9</sub>H<sub>8</sub>N<sub>2</sub>O<sub>2</sub>",
        "Molecular Mass": "176.17",
        "Melting Point": "~210 °C (decomp) (approx)"
    }
}