{
    "cas_no": "10169-55-8",
    "key_name": "1-[4-(Phenylthio)phenyl]ethanone",
    "cn_name": "4-乙酰联苯硫醚;4-(苯巯基)苯乙酮;4-(苯基硫代)苯乙酮;4-乙酰联苯硫醚;4-(Phenylthio)acetophenone;",
    "alternate_name": "Ethanone, 1-[4-(phenylthio)phenyl]-;Acetophenone, 4′-(phenylthio)-;1-[4-(Phenylthio)phenyl]ethanone;4-Acetyldiphenyl sulfide;4′-(Phenylthio)acetophenone;<em>p</em>-(Phenylthio)acetophenone;<em>p</em>-Acetylphenyl phenyl sulfide;4-(Phenylthio)acetophenone;NSC 158592;1-[4-(Phenylthio)phenyl]ethan-1-one;4′-(Phenylsulfanyl)acetophenone;4-Acetylphenyl phenyl sulfide;1-(4-Phenylsulfanylphenyl)ethanone;1-[4-(Phenylsulfanyl)phenyl]ethan-1-one",
    "duplicated_cas_no": "",
    "SMILES": "S(C1=CC=C(C(C)=O)C=C1)C2=CC=CC=C2",
    "meta_data": {
        "InChI": "InChI=1S/C14H12OS/c1-11(15)12-7-9-14(10-8-12)16-13-5-3-2-4-6-13/h2-10H,1H3",
        "InChIKey": null,
        "Canonical SMILES": "O=C(C1=CC=C(SC=2C=CC=CC2)C=C1)C",
        "Molecular Formula": "C<sub>14</sub>H<sub>12</sub>OS",
        "Molecular Mass": "228.31",
        "Boiling Point": "180 °C @ Press: 1 Torr",
        "Melting Point": "67-68 °C"
    }
}