{
    "cas_no": "480-39-7",
    "key_name": "(+)-Pinocembrin",
    "cn_name": "松属素;松属素;",
    "alternate_name": "4<em>H</em>-1-Benzopyran-4-one, 2,3-dihydro-5,7-dihydroxy-2-phenyl-, (2<em>S</em>)-;Pinocembrin;4<em>H</em>-1-Benzopyran-4-one, 2,3-dihydro-5,7-dihydroxy-2-phenyl-, (<em>S</em>)-;(2<em>S</em>)-2,3-Dihydro-5,7-dihydroxy-2-phenyl-4<em>H</em>-1-benzopyran-4-one;Galangin flavanone;Dihydrochrysin;5,7-Dihydroxyflavanone;NSC 279005;(+)-Pinocembrin;(+)-Pinocoembrin;(2<em>S</em>)-Pinocembrin;(2S)-5,7-Dihydroxy-2-phenyl-2,3-dihydrochromen-4-one;(2<em>S</em>)-5,7-Dihydroxy-2-phenyl-2,3-dihydrochromen-4-one",
    "duplicated_cas_no": "36052-36-5;58904-42-0",
    "SMILES": "O=C1C=2C(O[C@@H](C1)C3=CC=CC=C3)=CC(O)=CC2O",
    "meta_data": {
        "InChI": "InChI=1S/C15H12O4/c16-10-6-11(17)15-12(18)8-13(19-14(15)7-10)9-4-2-1-3-5-9/h1-7,13,16-17H,8H2/t13-/m0/s1",
        "InChIKey": null,
        "Canonical SMILES": "O=C1C=2C(O)=CC(O)=CC2OC(C=3C=CC=CC3)C1",
        "Molecular Formula": "C<sub>15</sub>H<sub>12</sub>O<sub>4</sub>",
        "Molecular Mass": "256.25",
        "Melting Point": "202 °C"
    }
}