{
    "cas_no": "143487-47-2",
    "key_name": "Cyclopentyltrimethoxysilane",
    "cn_name": "环戊基三甲氧基硅烷(143487-47-2);",
    "alternate_name": "Cyclopentane, (trimethoxysilyl)-;Silane, cyclopentyltrimethoxy-;(Trimethoxysilyl)cyclopentane;Cyclopentyltrimethoxysilane",
    "duplicated_cas_no": "",
    "SMILES": "[Si](OC)(OC)(OC)C1CCCC1",
    "meta_data": {
        "InChI": "InChI=1S/C8H18O3Si/c1-9-12(10-2,11-3)8-6-4-5-7-8/h8H,4-7H2,1-3H3",
        "InChIKey": null,
        "Canonical SMILES": "O(C)[Si](OC)(OC)C1CCCC1",
        "Molecular Formula": "C<sub>8</sub>H<sub>18</sub>O<sub>3</sub>Si",
        "Molecular Mass": "190.31",
        "Boiling Point": "75 °C @ Press: 10 Torr",
        "Density": "0.990 g/cm³ @ Temp: 25 °C"
    }
}