{
    "cas_no": "53266-92-5",
    "key_name": "5-Thiazolecarboxylic acid, 2-amino-4-methyl-, ethyl ester, hydrochloride (1:1)",
    "cn_name": "2-氨基-4-苯基-5-噻唑甲酸乙酯;",
    "alternate_name": "5-Thiazolecarboxylic acid, 2-amino-4-methyl-, ethyl ester, hydrochloride (1:1);5-Thiazolecarboxylic acid, 2-amino-4-methyl-, ethyl ester, monohydrochloride;5-Thiazolecarboxylic acid, 2-amino-4-methyl-, ethyl ester, hydrochloride;Ethyl 2-amino-4-methylthiazole-5-carboxylate hydrochloride;2-Amino-4-methyl-thiazole-5-carboxylic acid ethyl ester hydrochloride",
    "duplicated_cas_no": "",
    "SMILES": "C(OCC)(=O)C1=C(C)N=C(N)S1.Cl",
    "meta_data": {
        "InChI": "InChI=1S/C7H10N2O2S.ClH/c1-3-11-6(10)5-4(2)9-7(8)12-5;/h3H2,1-2H3,(H2,8,9);1H",
        "InChIKey": null,
        "Canonical SMILES": "Cl.O=C(OCC)C=1SC(=NC1C)N",
        "Molecular Formula": "C<sub>7</sub>H<sub>10</sub>N<sub>2</sub>O<sub>2</sub>S.ClH",
        "Molecular Mass": "",
        "Melting Point": "216-217 °C (decomp)"
    }
}