{
    "cas_no": "15707-23-0",
    "key_name": "2-Ethyl-3-methylpyrazine",
    "cn_name": "2-乙基-3-甲基吡嗪;3-乙基-2-甲基吡嗪;",
    "alternate_name": "Pyrazine, 2-ethyl-3-methyl-;2-Ethyl-3-methylpyrazine;2-Methyl-3-ethylpyrazine;3-Methyl-2-ethylpyrazine;3-Ethyl-2-methylpyrazine;2-Ethyl-3-methyl-1,4-pyrazine",
    "duplicated_cas_no": "",
    "SMILES": "C(C)C=1C(C)=NC=CN1",
    "meta_data": {
        "InChI": "InChI=1S/C7H10N2/c1-3-7-6(2)8-4-5-9-7/h4-5H,3H2,1-2H3",
        "InChIKey": null,
        "Canonical SMILES": "N=1C=CN=C(C1C)CC",
        "Molecular Formula": "C<sub>7</sub>H<sub>10</sub>N<sub>2</sub>",
        "Molecular Mass": "122.17",
        "Boiling Point": "57 °C"
    }
}