{
    "cas_no": "835-64-3",
    "key_name": "2-(2-Hydroxyphenyl)benzoxazole",
    "cn_name": "2-(2-羟苯基)苯并噁唑;2-(邻羟基苯)苯并噁唑;",
    "alternate_name": "Phenol, 2-(2-benzoxazolyl)-;Phenol, <em>o</em>-2-benzoxazolyl-;2-(2-Benzoxazolyl)phenol;2-(<em>o</em>-Hydroxyphenyl)benzoxazole;2-(2-Hydroxyphenyl)benzoxazole;2-(2′-Hydroxyphenyl)benzoxazole;<em>o</em>-2-Benzoxazolylphenol;HBO;NSC 403545;NSC 5423;2-(1,3-Benzoxazol-2-yl)phenol;2-(2′-Hydroxyphenyl)-2-benzoxazoline;2-(2′-Hydroxylphenyl)benzoxazole;Luminor Light-Green 496T;2-(Benzo[<em>d</em>]oxazol-2-yl)phenol;2-Benzooxazol-2-yl-phenol",
    "duplicated_cas_no": "",
    "SMILES": "OC1=C(C2=NC=3C(O2)=CC=CC3)C=CC=C1",
    "meta_data": {
        "InChI": "InChI=1S/C13H9NO2/c15-11-7-3-1-5-9(11)13-14-10-6-2-4-8-12(10)16-13/h1-8,15H",
        "InChIKey": null,
        "Canonical SMILES": "OC=1C=CC=CC1C2=NC=3C=CC=CC3O2",
        "Molecular Formula": "C<sub>13</sub>H<sub>9</sub>NO<sub>2</sub>",
        "Molecular Mass": "211.22",
        "Boiling Point": "338 °C",
        "Melting Point": "123.5 °C",
        "Density": "1.1685 g/cm³ (Solid)"
    }
}