{
    "cas_no": "28733-43-9",
    "key_name": "5-Bromonicotinamide",
    "cn_name": "5-溴烟酰胺;",
    "alternate_name": "3-Pyridinecarboxamide, 5-bromo-;Nicotinamide, 5-bromo-;5-Bromo-3-pyridinecarboxamide;5-Bromonicotinamide",
    "duplicated_cas_no": "",
    "SMILES": "C(N)(=O)C=1C=C(Br)C=NC1",
    "meta_data": {
        "InChI": "InChI=1S/C6H5BrN2O/c7-5-1-4(6(8)10)2-9-3-5/h1-3H,(H2,8,10)",
        "InChIKey": null,
        "Canonical SMILES": "O=C(N)C=1C=NC=C(Br)C1",
        "Molecular Formula": "C<sub>6</sub>H<sub>5</sub>BrN<sub>2</sub>O",
        "Molecular Mass": "201.02",
        "Melting Point": "218-219 °C"
    }
}