{
    "cas_no": "5153-67-3",
    "key_name": "<em>trans</em>-β-Nitrostyrene",
    "cn_name": null,
    "alternate_name": "Benzene, [(1<em>E</em>)-2-nitroethenyl]-;Styrene, β-nitro-, (<em>E</em>)-;Benzene, (2-nitroethenyl)-, (<em>E</em>)-;[(1<em>E</em>)-2-Nitroethenyl]benzene;<em>trans</em>-β-Nitrostyrene;(<em>E</em>)-β-Nitrostyrene;<em>trans</em>-1-Nitro-2-phenylethylene;(<em>E</em>)-1-Nitro-2-phenylethene;(<em>E</em>)-1-Nitro-2-phenylethylene;(<em>E</em>)-(2-Nitroethenyl)benzene;(E)-(2-Nitrovinyl)benzene;(<em>E</em>)-1-Phenyl-2-nitroethene;(<em>E</em>)-2-Phenyl-1-nitroethene;(E)-β-Nitrostyrene;<em>trans</em>-β-Nitrosytrene",
    "duplicated_cas_no": "",
    "SMILES": "C(=C/N(=O)=O)\\C1=CC=CC=C1",
    "meta_data": {
        "InChI": "InChI=1S/C8H7NO2/c10-9(11)7-6-8-4-2-1-3-5-8/h1-7H/b7-6+",
        "InChIKey": null,
        "Canonical SMILES": "O=N(=O)C=CC=1C=CC=CC1",
        "Molecular Formula": "C<sub>8</sub>H<sub>7</sub>NO<sub>2</sub>",
        "Molecular Mass": "149.15",
        "Melting Point": "57 °C"
    }
}