{
    "cas_no": "58970-76-6",
    "key_name": "Bestatin",
    "cn_name": "乌苯美司;N-[(2S,3R)-3-氨基-2-羟基-4-苯丁酰]-L-亮氨酸;",
    "alternate_name": "<span class=\"text-smallcaps\">L</span>-Leucine, <em>N</em>-[(2<em>S</em>,3<em>R</em>)-3-amino-2-hydroxy-1-oxo-4-phenylbutyl]-;<span class=\"text-smallcaps\">L</span>-Leucine, <em>N</em>-(3-amino-2-hydroxy-1-oxo-4-phenylbutyl)-, [<em>S</em>-(<em>R</em>*,<em>S</em>*)]-;<em>N</em>-[(2<em>S</em>,3<em>R</em>)-3-Amino-2-hydroxy-1-oxo-4-phenylbutyl]-<span class=\"text-smallcaps\">L</span>-leucine;Bestatin;NK 421;Ubenimex;(-)-Bestatin;NSC 265489",
    "duplicated_cas_no": "339186-55-9",
    "SMILES": "C([C@H]([C@@H](C(N[C@@H](CC(C)C)C(O)=O)=O)O)N)C1=CC=CC=C1",
    "meta_data": {
        "InChI": "InChI=1S/C16H24N2O4/c1-10(2)8-13(16(21)22)18-15(20)14(19)12(17)9-11-6-4-3-5-7-11/h3-7,10,12-14,19H,8-9,17H2,1-2H3,(H,18,20)(H,21,22)/t12-,13+,14+/m1/s1",
        "InChIKey": null,
        "Canonical SMILES": "O=C(O)C(NC(=O)C(O)C(N)CC=1C=CC=CC1)CC(C)C",
        "Molecular Formula": "C<sub>16</sub>H<sub>24</sub>N<sub>2</sub>O<sub>4</sub>",
        "Molecular Mass": "308.37",
        "Melting Point": "234.5 °C"
    }
}