{
    "cas_no": "3234-49-9",
    "key_name": "1,2-Dibromopentane",
    "cn_name": "1,2-二溴戊烷;",
    "alternate_name": "Pentane, 1,2-dibromo-;1,2-Dibromopentane;(±)-1,2-Dibromopentane",
    "duplicated_cas_no": "152212-23-2",
    "SMILES": "C(CCC)(CBr)Br",
    "meta_data": {
        "InChI": "InChI=1S/C5H10Br2/c1-2-3-5(7)4-6/h5H,2-4H2,1H3",
        "InChIKey": null,
        "Canonical SMILES": "BrCC(Br)CCC",
        "Molecular Formula": "C<sub>5</sub>H<sub>10</sub>Br<sub>2</sub>",
        "Molecular Mass": "229.94",
        "Boiling Point": "187-190 °C",
        "Density": "1.6740 g/cm³ @ Temp: 20 °C"
    }
}