{
    "cas_no": "6331-70-0",
    "key_name": "2-Ethoxy-5-methylaniline",
    "cn_name": null,
    "alternate_name": "Benzenamine, 2-ethoxy-5-methyl-;<em>o</em>-Phenetidine, 5-methyl-;2-Ethoxy-5-methylbenzenamine;2-Ethoxy-5-methylaniline;NSC 37005",
    "duplicated_cas_no": "",
    "SMILES": "O(CC)C1=C(N)C=C(C)C=C1",
    "meta_data": {
        "InChI": "InChI=1S/C9H13NO/c1-3-11-9-5-4-7(2)6-8(9)10/h4-6H,3,10H2,1-2H3",
        "InChIKey": null,
        "Canonical SMILES": "O(C1=CC=C(C=C1N)C)CC",
        "Molecular Formula": "C<sub>9</sub>H<sub>13</sub>NO",
        "Molecular Mass": "151.21",
        "Melting Point": "40-41 °C"
    }
}