{
    "cas_no": "32024-15-0",
    "key_name": "3-Iodo-4,5-dimethoxybenzaldehyde",
    "cn_name": "4,5-二甲氧基-3-碘苯甲醛;",
    "alternate_name": "Benzaldehyde, 3-iodo-4,5-dimethoxy-;Veratraldehyde, 5-iodo-;3-Iodo-4,5-dimethoxybenzaldehyde;5-Iodoveratraldehyde;5-Iodoveratrum aldehyde;5-Iodo-3,4-dimethoxybenzaldehyde;3,4-Dimethoxy-5-iodobenzaldehyde;4,5-Dimethoxy-3-iodobenzaldehyde",
    "duplicated_cas_no": "",
    "SMILES": "O(C)C1=C(OC)C(I)=CC(C=O)=C1",
    "meta_data": {
        "InChI": "InChI=1S/C9H9IO3/c1-12-8-4-6(5-11)3-7(10)9(8)13-2/h3-5H,1-2H3",
        "InChIKey": null,
        "Canonical SMILES": "O=CC1=CC(I)=C(OC)C(OC)=C1",
        "Molecular Formula": "C<sub>9</sub>H<sub>9</sub>IO<sub>3</sub>",
        "Molecular Mass": "292.07",
        "Boiling Point": "134-137 °C @ Press: 0.8 Torr",
        "Melting Point": "73 °C"
    }
}