{
    "cas_no": "826-39-1",
    "key_name": "Mecamylamine hydrochloride",
    "cn_name": "盐酸美加明;盐酸美卡拉明;异坎胺;N,2,3,3-四甲基双环[2.2.1]庚-2-胺盐酸盐;",
    "alternate_name": "Bicyclo[2.2.1]heptan-2-amine, <em>N</em>,2,3,3-tetramethyl-, hydrochloride (1:1);2-Norbornanamine, <em>N</em>,2,3,3-tetramethyl-, hydrochloride;Bicyclo[2.2.1]heptan-2-amine, <em>N</em>,2,3,3-tetramethyl-, hydrochloride;Mecamylamine hydrochloride;<em>N</em>,2,3,3-Tetramethyl-2-norbornanamine hydrochloride;Inversine;Mevasin;Mecamylamine chloride;Mevasine;CPDD 0059",
    "duplicated_cas_no": "",
    "SMILES": "N(C)C1(C)C2CC(C1(C)C)CC2.Cl",
    "meta_data": {
        "InChI": "InChI=1S/C11H21N.ClH/c1-10(2)8-5-6-9(7-8)11(10,3)12-4;/h8-9,12H,5-7H2,1-4H3;1H",
        "InChIKey": null,
        "Canonical SMILES": "Cl.N(C)C1(C)C2CCC(C2)C1(C)C",
        "Molecular Formula": "C<sub>11</sub>H<sub>21</sub>N.ClH",
        "Molecular Mass": "",
        "Melting Point": "243-246 °C (decomp)"
    }
}