{
    "cas_no": "701-64-4",
    "key_name": "Phenyl phosphate",
    "cn_name": "磷酸单苯酯;",
    "alternate_name": "Phosphoric acid, monophenyl ester;Phenyl phosphate;Phenyl phosphate ((PhO)(HO)<sub>2</sub>PO);Monophenyl phosphate;Phenyl dihydrogen phosphate;Dihydrogen phenyl phosphate;Phenyl acid phosphate;PA 75;Nacure XP 333",
    "duplicated_cas_no": "",
    "SMILES": "O(P(=O)(O)O)C1=CC=CC=C1",
    "meta_data": {
        "InChI": "InChI=1S/C6H7O4P/c7-11(8,9)10-6-4-2-1-3-5-6/h1-5H,(H2,7,8,9)",
        "InChIKey": null,
        "Canonical SMILES": "O=P(O)(O)OC=1C=CC=CC1",
        "Molecular Formula": "C<sub>6</sub>H<sub>7</sub>O<sub>4</sub>P",
        "Molecular Mass": "174.09",
        "Melting Point": "99.5 °C"
    }
}