{
    "cas_no": "2985-59-3",
    "key_name": "2-Hydroxy-4-dodecyloxybenzophenone",
    "cn_name": "2-羟基-4-十二烷氧基二苯甲酮;紫外线吸收剂UV-1200;",
    "alternate_name": "Methanone, [4-(dodecyloxy)-2-hydroxyphenyl]phenyl-;Benzophenone, 4-(dodecyloxy)-2-hydroxy-;[4-(Dodecyloxy)-2-hydroxyphenyl]phenylmethanone;4-Dodecyloxy-2-hydroxybenzophenone;2-Hydroxy-4-dodecyloxybenzophenone;DOBP;<em>p</em>-Dodecyloxy-2-hydroxybenzophenone;2-Hydroxy-4-<em>n</em>-dodecyloxybenzophenone;Eastman Inhibitor DOBP;Syntase 1200;Seesorb 103;2-Hydroxy-4-lauryloxybenzophenone;Chimassorb 125;UV-Chek AM 320;UV 1200;AM 320;2-Hydroxy-lauryloxy benzophenone;(4-Dodecoxy-2-hydroxyphenyl)-phenylmethanone;2-Benzoyl-5-(dodecyloxy)phenol;UV 538",
    "duplicated_cas_no": "55963-32-1;117743-90-5;2375272-76-5",
    "SMILES": "C(=O)(C1=C(O)C=C(OCCCCCCCCCCCC)C=C1)C2=CC=CC=C2",
    "meta_data": {
        "InChI": "InChI=1S/C25H34O3/c1-2-3-4-5-6-7-8-9-10-14-19-28-22-17-18-23(24(26)20-22)25(27)21-15-12-11-13-16-21/h11-13,15-18,20,26H,2-10,14,19H2,1H3",
        "InChIKey": null,
        "Canonical SMILES": "O=C(C=1C=CC=CC1)C2=CC=C(OCCCCCCCCCCCC)C=C2O",
        "Molecular Formula": "C<sub>25</sub>H<sub>34</sub>O<sub>3</sub>",
        "Molecular Mass": "382.54",
        "Melting Point": "49-50 °C"
    }
}