{
    "cas_no": "20375-65-9",
    "key_name": "3-Chloro-6-phenylpyridazine",
    "cn_name": "3-氯-6-苯基哒嗪;",
    "alternate_name": "Pyridazine, 3-chloro-6-phenyl-;3-Chloro-6-phenylpyridazine;3-Phenyl-6-chloropyridazine;6-Phenyl-3-chloropyridazine;NSC 28739;6-Chloro-3-phenylpyridazine",
    "duplicated_cas_no": "",
    "SMILES": "ClC1=CC=C(N=N1)C2=CC=CC=C2",
    "meta_data": {
        "InChI": "InChI=1S/C10H7ClN2/c11-10-7-6-9(12-13-10)8-4-2-1-3-5-8/h1-7H",
        "InChIKey": null,
        "Canonical SMILES": "ClC=1N=NC(=CC1)C2=CC=CC=C2",
        "Molecular Formula": "C<sub>10</sub>H<sub>7</sub>ClN<sub>2</sub>",
        "Molecular Mass": "190.63",
        "Melting Point": "158-160 °C"
    }
}