{
    "cas_no": "467-63-0",
    "key_name": "Methylrosaniline",
    "cn_name": "溶剂紫9号;油溶紫;",
    "alternate_name": "Benzenemethanol, 4-(dimethylamino)-α,α-bis[4-(dimethylamino)phenyl]-;Methanol, tris[<em>p</em>-(dimethylamino)phenyl]-;4-(Dimethylamino)-α,α-bis[4-(dimethylamino)phenyl]benzenemethanol;C.I. Basic Violet 3, carbinol;4,4′,4′′-Dimethylaminotriphenylcarbinol;Methylrosaniline;Tri(<em>p</em>-dimethylaminophenyl)methanol;Crystal Violet carbinol;Crystal violet carbinol base;C.I. Solvent Violet 9;C.I. 42555B;Aizen Crystal Violet Base;Violet 5BNO Base;Violet 5BO Base;Waxoline Violet 10B;Crystal Violet base;C.I. 42555:1;1,1,1-Tris(4-dimethylaminophenyl)methanol;Tris(4-dimethylaminophenyl)-methanol;MMV 665941",
    "duplicated_cas_no": "1325-83-3;12769-21-0",
    "SMILES": "C(O)(C1=CC=C(N(C)C)C=C1)(C2=CC=C(N(C)C)C=C2)C3=CC=C(N(C)C)C=C3",
    "meta_data": {
        "InChI": "InChI=1S/C25H31N3O/c1-26(2)22-13-7-19(8-14-22)25(29,20-9-15-23(16-10-20)27(3)4)21-11-17-24(18-12-21)28(5)6/h7-18,29H,1-6H3",
        "InChIKey": null,
        "Canonical SMILES": "OC(C1=CC=C(C=C1)N(C)C)(C2=CC=C(C=C2)N(C)C)C3=CC=C(C=C3)N(C)C",
        "Molecular Formula": "C<sub>25</sub>H<sub>31</sub>N<sub>3</sub>O",
        "Molecular Mass": "389.53",
        "Melting Point": "188 °C (polymorph)"
    }
}