{
    "cas_no": "5900-59-4",
    "key_name": "2-Amino-4-chlorobenzamide",
    "cn_name": null,
    "alternate_name": "Benzamide, 2-amino-4-chloro-;2-Amino-4-chlorobenzamide;4-Chloroanthranilamide",
    "duplicated_cas_no": "",
    "SMILES": "C(N)(=O)C1=C(N)C=C(Cl)C=C1",
    "meta_data": {
        "InChI": "InChI=1S/C7H7ClN2O/c8-4-1-2-5(7(10)11)6(9)3-4/h1-3H,9H2,(H2,10,11)",
        "InChIKey": null,
        "Canonical SMILES": "O=C(N)C1=CC=C(Cl)C=C1N",
        "Molecular Formula": "C<sub>7</sub>H<sub>7</sub>ClN<sub>2</sub>O",
        "Molecular Mass": "170.60",
        "Melting Point": "181.5 °C"
    }
}