{
    "cas_no": "1483-72-3",
    "key_name": "Diphenyliodonium chloride",
    "cn_name": null,
    "alternate_name": "Iodonium, diphenyl-, chloride (1:1);Iodonium, diphenyl-, chloride;Diphenyliodonium chloride;Chlorodiphenyliodonium;NSC 134275;Diphenyliodinium chloride;DPI",
    "duplicated_cas_no": "17267-18-4;935753-03-0;1022162-08-8;1086241-08-8;1189975-37-8",
    "SMILES": "[I+](C1=CC=CC=C1)C2=CC=CC=C2.[Cl-]",
    "meta_data": {
        "InChI": "InChI=1S/C12H10I.ClH/c1-3-7-11(8-4-1)13-12-9-5-2-6-10-12;/h1-10H;1H/q+1;/p-1",
        "InChIKey": null,
        "Canonical SMILES": "[Cl-].[I+](C=1C=CC=CC1)C=2C=CC=CC2",
        "Molecular Formula": "C<sub>12</sub>H<sub>10</sub>I.Cl",
        "Molecular Mass": "",
        "Melting Point": "230 °C"
    }
}