{
    "cas_no": "1016-77-9",
    "key_name": "3-Bromobenzophenone",
    "cn_name": "3-溴二苯甲酮;",
    "alternate_name": "Methanone, (3-bromophenyl)phenyl-;Benzophenone, 3-bromo-;(3-Bromophenyl)phenylmethanone;3-Bromobenzophenone;<em>m</em>-Bromobenzophenone;3-Bromobenzoylbenzene;3-Bromophenyl phenyl ketone",
    "duplicated_cas_no": "",
    "SMILES": "C(=O)(C1=CC(Br)=CC=C1)C2=CC=CC=C2",
    "meta_data": {
        "InChI": "InChI=1S/C13H9BrO/c14-12-8-4-7-11(9-12)13(15)10-5-2-1-3-6-10/h1-9H",
        "InChIKey": null,
        "Canonical SMILES": "O=C(C=1C=CC=CC1)C=2C=CC=C(Br)C2",
        "Molecular Formula": "C<sub>13</sub>H<sub>9</sub>BrO",
        "Molecular Mass": "261.11",
        "Boiling Point": "185-187 °C @ Press: 6 Torr",
        "Melting Point": "81 °C"
    }
}