{
    "cas_no": "68133-69-7",
    "key_name": "3-[[2-(Acetyloxy)ethyl][4-[2-(6-nitro-2-benzothiazolyl)diazenyl]phenyl]amino]propanenitrile",
    "cn_name": "2-[[P-[N-(2-氰乙基)-N-(2-羟乙基)氨基]苯基]偶氮]-6-硝基苯并噻唑醋酸酯;",
    "alternate_name": "Propanenitrile, 3-[[2-(acetyloxy)ethyl][4-[2-(6-nitro-2-benzothiazolyl)diazenyl]phenyl]amino]-;Propanenitrile, 3-[[2-(acetyloxy)ethyl][4-[(6-nitro-2-benzothiazolyl)azo]phenyl]amino]-;Propionitrile, 3-[<em>N</em>-(2-hydroxyethyl)-<em>p</em>-[(6-nitro-2-benzothiazolyl)azo]anilino]-, acetate;3-[[2-(Acetyloxy)ethyl][4-[2-(6-nitro-2-benzothiazolyl)diazenyl]phenyl]amino]propanenitrile;C.I. 11122;C.I. Disperse Red 177;Resolin Red FRL;Serilene Red R-LS;Disperse Red 177;Disperse Red FRL",
    "duplicated_cas_no": "58051-98-2",
    "SMILES": "N(=NC1=CC=C(N(CCOC(C)=O)CCC#N)C=C1)C=2SC=3C(N2)=CC=C(N(=O)=O)C3",
    "meta_data": {
        "InChI": "InChI=1S/C20H18N6O4S/c1-14(27)30-12-11-25(10-2-9-21)16-5-3-15(4-6-16)23-24-20-22-18-8-7-17(26(28)29)13-19(18)31-20/h3-8,13H,2,10-12H2,1H3",
        "InChIKey": null,
        "Canonical SMILES": "N#CCCN(C1=CC=C(N=NC2=NC=3C=CC(=CC3S2)N(=O)=O)C=C1)CCOC(=O)C",
        "Molecular Formula": "C<sub>20</sub>H<sub>18</sub>N<sub>6</sub>O<sub>4</sub>S",
        "Molecular Mass": "438.46",
        "Melting Point": "167 °C"
    }
}