{
    "cas_no": "10461-98-0",
    "key_name": "2-cyclohexylidene-2-phenylacetonitrile",
    "cn_name": "2-环亚己基-2-苯基乙腈;",
    "alternate_name": "Benzeneacetonitrile, α-cyclohexylidene-;Δ<sup>1,α</sup>-Cyclohexaneacetonitrile, α-phenyl-;α-Cyclohexylidenebenzeneacetonitrile;NSC 408284;Peonile;2-cyclohexylidene-2-phenylacetonitrile;Petalia",
    "duplicated_cas_no": "",
    "SMILES": "C(C#N)(C1=CC=CC=C1)=C2CCCCC2",
    "meta_data": {
        "InChI": "InChI=1S/C14H15N/c15-11-14(12-7-3-1-4-8-12)13-9-5-2-6-10-13/h1,3-4,7-8H,2,5-6,9-10H2",
        "InChIKey": null,
        "Canonical SMILES": "N#CC(C=1C=CC=CC1)=C2CCCCC2",
        "Molecular Formula": "C<sub>14</sub>H<sub>15</sub>N",
        "Molecular Mass": "197.28",
        "Boiling Point": "192-193 °C @ Press: 25 Torr",
        "Melting Point": "169-171 °C",
        "Density": "1.02981 g/cm³ @ Temp: 21.4 °C"
    }
}