{
    "cas_no": "20357-21-5",
    "key_name": "2-Bromo-6-nitrobenzaldehyde",
    "cn_name": "2-溴-6-硝基苯甲醛;",
    "alternate_name": "Benzaldehyde, 2-bromo-6-nitro-;2-Bromo-6-nitrobenzaldehyde",
    "duplicated_cas_no": "",
    "SMILES": "C(=O)C1=C(N(=O)=O)C=CC=C1Br",
    "meta_data": {
        "InChI": "InChI=1S/C7H4BrNO3/c8-6-2-1-3-7(9(11)12)5(6)4-10/h1-4H",
        "InChIKey": null,
        "Canonical SMILES": "O=CC=1C(Br)=CC=CC1N(=O)=O",
        "Molecular Formula": "C<sub>7</sub>H<sub>4</sub>BrNO<sub>3</sub>",
        "Molecular Mass": "230.02",
        "Melting Point": "82 °C"
    }
}