{
    "cas_no": "85954-11-6",
    "key_name": "4,4′-Bis(2,3-epoxypropoxy)-3,3′,5,5′-tetramethylbiphenyl",
    "cn_name": "3,3\"5,5\"-四甲基联苯双酚二缩水甘油醚;",
    "alternate_name": "Oxirane, 2,2′-[(3,3′,5,5′-tetramethyl[1,1′-biphenyl]-4,4′-diyl)bis(oxymethylene)]bis-;2,2′-[(3,3′,5,5′-Tetramethyl[1,1′-biphenyl]-4,4′-diyl)bis(oxymethylene)]bis[oxirane];4,4′-Bis(2,3-epoxypropoxy)-3,3′,5,5′-tetramethylbiphenyl;3,3′,5,5′-Tetramethylbiphenol diglycidyl ether;4,4′-Bis(glycidyloxy)-3,3′,5,5′-tetramethylbiphenyl;3,3′,5,5′-Tetramethylbiphenyl diglycidyl ether;3,3′,5,5′-Tetramethyl-4,4′-diphenol diglycidyl ether;Tetramethylbiphenyl diglycidyl ether;3,3′,5,5′-Tetramethyl-4,4′-glycidoxybiphenyl;4,4′-Dihydroxy-3,3′,5,5′-tetramethylbiphenyl diglycidyl ether;3,3′,5,5′-Tetramethylbiphenyl 4,4′-diglycidyl ether;3,3′,5,5′-Tetramethyl-4,4′-biphenol diglycidyl ether;YX 4000HK monomer;3,3′,5,5′-Tetramethyl-4,4′-dihydroxybiphenyl diglycidyl ether;2-[[4-[3,5-Dimethyl-4-(oxiran-2-ylmethoxy)phenyl]-2,6-dimethylphenoxy]methyl]oxirane;4,4′-Bis(glycidoxy)-3,3′,5,5′-tetramethylbiphenyl;4,4′-Bis(glycidyloxy)-3,3′,5,5′-tetramethyl-1,1′-biphenyl",
    "duplicated_cas_no": "139451-01-7;258532-25-1;1195705-66-8;1715939-00-6;2132967-28-1",
    "SMILES": "CC=1C=C(C=C(C)C1OCC2CO2)C3=CC(C)=C(OCC4CO4)C(C)=C3",
    "meta_data": {
        "InChI": "InChI=1S/C22H26O4/c1-13-5-17(6-14(2)21(13)25-11-19-9-23-19)18-7-15(3)22(16(4)8-18)26-12-20-10-24-20/h5-8,19-20H,9-12H2,1-4H3",
        "InChIKey": null,
        "Canonical SMILES": "O(C=1C(=CC(=CC1C)C=2C=C(C(OCC3OC3)=C(C2)C)C)C)CC4OC4",
        "Molecular Formula": "C<sub>22</sub>H<sub>26</sub>O<sub>4</sub>",
        "Molecular Mass": "354.44",
        "Melting Point": "105 °C"
    }
}