{
    "cas_no": "1338-02-9",
    "key_name": "Naphthenic acids, copper salts",
    "cn_name": null,
    "alternate_name": "Naphthenic acids, copper salts;Naphthenic acids, copper salt;Copper naphthenate;Naphthenic acid copper salt;Gori 22;Cuprinol;Cellavit;K 204 (accelerator);Cuprinol green;Sanpreser Wog;Cunap;K 204;Shakelast;Redycoat;Cunapsol 5;Naphthex Cu;Thrush XX;Naphthenic acids, cuprous salts;CuNap 5W",
    "duplicated_cas_no": "",
    "SMILES": "",
    "meta_data": {
        "InChI": "",
        "InChIKey": null,
        "Canonical SMILES": "",
        "Molecular Formula": "Unspecified",
        "Molecular Mass": "",
        "Boiling Point": "154-202 °C @ Press: 800 Torr",
        "Density": "1.055 g/cm³"
    }
}