{
    "uri": "substance/pt/1338029",
    "rn": "1338-02-9",
    "name": "Naphthenic acids, copper salts",
    "images": [],
    "inchi": "",
    "inchiKey": "",
    "smile": "",
    "canonicalSmile": "",
    "molecularFormula": "Unspecified",
    "molecularMass": "",
    "experimentalProperties": [
        {
            "name": "Boiling Point",
            "property": "154-202 °C @ Press: 800 Torr",
            "sourceNumber": 1
        },
        {
            "name": "Density",
            "property": "1.055 g/cm³",
            "sourceNumber": 1
        }
    ],
    "propertyCitations": [
        {
            "docUri": "",
            "sourceNumber": 1,
            "source": "Hazardous Substances Data Bank data were obtained from the National Library of Medicine (US)"
        }
    ],
    "synonyms": [
        "Naphthenic acids, copper salts",
        "Naphthenic acids, copper salt",
        "Copper naphthenate",
        "Naphthenic acid copper salt",
        "Gori 22",
        "Cuprinol",
        "Cellavit",
        "K 204 (accelerator)",
        "Cuprinol green",
        "Sanpreser Wog",
        "Cunap",
        "K 204",
        "Shakelast",
        "Redycoat",
        "Cunapsol 5",
        "Naphthex Cu",
        "Thrush XX",
        "Naphthenic acids, cuprous salts",
        "CuNap 5W"
    ],
    "replacedRns": [],
    "hasMolfile": false,
    "source": "https://commonchemistry.cas.org/detail?cas_rn=1338-02-9"
}