{
    "cas_no": "14779-17-0",
    "key_name": "5-Methyl-2-benzothiazolamine",
    "cn_name": "2-氨基-5-甲基苯并噻唑;",
    "alternate_name": "2-Benzothiazolamine, 5-methyl-;Benzothiazole, 2-amino-5-methyl-;5-Methyl-2-benzothiazolamine;5-Methyl-2-aminobenzothiazole;2-Amino-5-methylbenzothiazole;5-Methyl-2-Benzothiazolylamine;NSC 44453;NSC 45346;5-Methyl-1,3-benzothiazol-2-amine",
    "duplicated_cas_no": "",
    "SMILES": "NC=1SC=2C(N1)=CC(C)=CC2",
    "meta_data": {
        "InChI": "InChI=1S/C8H8N2S/c1-5-2-3-7-6(4-5)10-8(9)11-7/h2-4H,1H3,(H2,9,10)",
        "InChIKey": null,
        "Canonical SMILES": "N1=C(SC=2C=CC(=CC12)C)N",
        "Molecular Formula": "C<sub>8</sub>H<sub>8</sub>N<sub>2</sub>S",
        "Molecular Mass": "164.23",
        "Melting Point": "182-184 °C"
    }
}