{
    "cas_no": "615-93-0",
    "key_name": "2,5-Dichloro-1,4-benzoquinone",
    "cn_name": "2,5-二氯对苯二醌;",
    "alternate_name": "2,5-Cyclohexadiene-1,4-dione, 2,5-dichloro-;<em>p</em>-Benzoquinone, 2,5-dichloro-;Quinone, 2,5-dichloro-;2,5-Dichloro-2,5-cyclohexadiene-1,4-dione;2,5-Dichloro-<em>p</em>-benzoquinone;2,5-Dichloro-1,4-benzoquinone;NSC 6251",
    "duplicated_cas_no": "78844-56-1",
    "SMILES": "ClC=1C(=O)C=C(Cl)C(=O)C1",
    "meta_data": {
        "InChI": "InChI=1S/C6H2Cl2O2/c7-3-1-5(9)4(8)2-6(3)10/h1-2H",
        "InChIKey": null,
        "Canonical SMILES": "O=C1C=C(Cl)C(=O)C=C1Cl",
        "Molecular Formula": "C<sub>6</sub>H<sub>2</sub>Cl<sub>2</sub>O<sub>2</sub>",
        "Molecular Mass": "176.98",
        "Melting Point": "161 °C"
    }
}