{
    "cas_no": "146-68-9",
    "key_name": "Iodonitrotetrazolium violet",
    "cn_name": "碘硝基氯化四氮唑蓝;碘硝基四唑紫;2-(4-碘苯基)-3-(4-硝基苯基)-5-苯基氯化四唑;",
    "alternate_name": "2<em>H</em>-Tetrazolium, 2-(4-iodophenyl)-3-(4-nitrophenyl)-5-phenyl-, chloride (1:1);[2-(<em>p</em>-Iodophenyl)-3-(<em>p</em>-nitrophenyl)-5-phenyl-2<em>H</em>-tetrazolium chloride];2<em>H</em>-Tetrazolium, 2-(<em>p</em>-iodophenyl)-3-(<em>p</em>-nitrophenyl)-5-phenyl-, chloride;2<em>H</em>-Tetrazolium, 2-(4-iodophenyl)-3-(4-nitrophenyl)-5-phenyl-, chloride;INT;2-(<em>p</em>-Iodophenyl)-3-(<em>p</em>-nitrophenyl)-5-phenyltetrazolium chloride;2-(4-Iodophenyl)-3-(4-nitrophenyl)-5-phenyltetrazolium chloride;Iodonitro tetrazolium;Iodonitrotetrazolium violet;3-(<em>p</em>-Nitrophenyl)-2-(<em>p</em>-iodophenyl)-5-phenyltetrazolium chloride;Iodonitrotetrazolium purple;<em>p</em>-Iodonitrotetrazolium violet;2-(4-Iodophenyl)-3-(4-nitrophenyl)-5-phenyl-2<em>H</em>-tetrazolium chloride;NSC 27620",
    "duplicated_cas_no": "298-94-2;68860-88-8;87045-11-2;867000-49-5;1265692-00-9;1407700-51-9;2583136-67-6",
    "SMILES": "N(=O)(=O)C1=CC=C([N+]=2N(N=C(N2)C3=CC=CC=C3)C4=CC=C(I)C=C4)C=C1.[Cl-]",
    "meta_data": {
        "InChI": "InChI=1S/C19H13IN5O2.ClH/c20-15-6-8-16(9-7-15)23-21-19(14-4-2-1-3-5-14)22-24(23)17-10-12-18(13-11-17)25(26)27;/h1-13H;1H/q+1;/p-1",
        "InChIKey": null,
        "Canonical SMILES": "[Cl-].O=N(=O)C=1C=CC(=CC1)[N+]2=NC(=NN2C3=CC=C(I)C=C3)C=4C=CC=CC4",
        "Molecular Formula": "C<sub>19</sub>H<sub>13</sub>IN<sub>5</sub>O<sub>2</sub>.Cl",
        "Molecular Mass": "",
        "Melting Point": "229 °C"
    }
}