{
    "cas_no": "550-99-2",
    "key_name": "Naphazoline hydrochloride",
    "cn_name": "盐酸萘甲唑啉;2-(1-萘甲基)咪唑啉盐酸盐;",
    "alternate_name": "1<em>H</em>-Imidazole, 4,5-dihydro-2-(1-naphthalenylmethyl)-, hydrochloride (1:1);2-Imidazoline, 2-(1-naphthylmethyl)-, monohydrochloride;Naphazoline hydrochloride;1<em>H</em>-Imidazole, 4,5-dihydro-2-(1-naphthalenylmethyl)-, monohydrochloride;2-(1-Naphthylmethyl)-2-imidazoline hydrochloride;Niazol;Privine hydrochloride;Prizole hydrochloride;Rhinantin;Rhinoperd;Stricylon;Naphazoline chloride;Privine (American);Naphthasolium chloride;2-(α-Naphthylmethyl)-2-imidazoline hydrochloride;2-(1-Naphthylmethyl)imidazoline hydrochloride;Ocumethyl;Vasocon;Coldan;Rhinatin;Strictylon;Degest 2;Opcon;Iridina Due;Sanorin-Spofa;Naphcon;Vasoclear;Albalon;Ak-Con;Allerest Eye Drops;Comfort Eye Drops;Clera;Neozoline;Naprisol",
    "duplicated_cas_no": "35412-62-5",
    "SMILES": "C(C=1C2=C(C=CC1)C=CC=C2)C=3NCCN3.Cl",
    "meta_data": {
        "InChI": "InChI=1S/C14H14N2.ClH/c1-2-7-13-11(4-1)5-3-6-12(13)10-14-15-8-9-16-14;/h1-7H,8-10H2,(H,15,16);1H",
        "InChIKey": null,
        "Canonical SMILES": "Cl.N1=C(NCC1)CC2=CC=CC=3C=CC=CC32",
        "Molecular Formula": "C<sub>14</sub>H<sub>14</sub>N<sub>2</sub>.ClH",
        "Molecular Mass": "",
        "Melting Point": "255-260 °C"
    }
}