{
    "cas_no": "961-29-5",
    "key_name": "Isoliquiritigenin",
    "cn_name": "异甘草素;(E)-1-(2,4-二羟基苯基)-3-(4-羟基苯基)-2-丙烯-1-酮;",
    "alternate_name": "2-Propen-1-one, 1-(2,4-dihydroxyphenyl)-3-(4-hydroxyphenyl)-, (2<em>E</em>)-;Chalcone, 2′,4,4′-trihydroxy-;2-Propen-1-one, 1-(2,4-dihydroxyphenyl)-3-(4-hydroxyphenyl)-, (<em>E</em>)-;(2<em>E</em>)-1-(2,4-Dihydroxyphenyl)-3-(4-hydroxyphenyl)-2-propen-1-one;Isoliquiritigenin;2′,4,4′-Trihydroxychalcone;GU 17;Isoliquiritigen;(E)-1-(2,4-Dihydroxyphenyl)-3-(4-hydroxyphenyl)prop-2-en-1-one",
    "duplicated_cas_no": "78918-29-3",
    "SMILES": "C(/C=C/C1=CC=C(O)C=C1)(=O)C2=C(O)C=C(O)C=C2",
    "meta_data": {
        "InChI": "InChI=1S/C15H12O4/c16-11-4-1-10(2-5-11)3-8-14(18)13-7-6-12(17)9-15(13)19/h1-9,16-17,19H/b8-3+",
        "InChIKey": null,
        "Canonical SMILES": "O=C(C=CC1=CC=C(O)C=C1)C2=CC=C(O)C=C2O",
        "Molecular Formula": "C<sub>15</sub>H<sub>12</sub>O<sub>4</sub>",
        "Molecular Mass": "256.25",
        "Melting Point": "200 °C"
    }
}