{
    "cas_no": "943-29-3",
    "key_name": "<em>trans</em>-4-<em>tert</em>-Butylcyclohexanecarboxylic acid",
    "cn_name": null,
    "alternate_name": "Cyclohexanecarboxylic acid, 4-(1,1-dimethylethyl)-, <em>trans</em>-;Cyclohexanecarboxylic acid, 4-<em>tert</em>-butyl-, <em>trans</em>-;<em>trans</em>-4-(1,1-Dimethylethyl)cyclohexanecarboxylic acid;<em>trans</em>-4-<em>tert</em>-Butylcyclohexanecarboxylic acid;<em>trans</em>-4-<em>tert</em>-Butylcyclohexanoic acid;<em>trans</em>-4-<em>tert</em>-Butyl-1-cyclohexanecarboxylic acid",
    "duplicated_cas_no": "",
    "SMILES": "[C@@](C)(C)(C)[C@H]1CC[C@H](C(O)=O)CC1",
    "meta_data": {
        "InChI": "InChI=1/C11H20O2/c1-11(2,3)9-6-4-8(5-7-9)10(12)13/h8-9H,4-7H2,1-3H3,(H,12,13)/t8-,9-",
        "InChIKey": null,
        "Canonical SMILES": "O=C(O)C1CCC(CC1)C(C)(C)C",
        "Molecular Formula": "C<sub>11</sub>H<sub>20</sub>O<sub>2</sub>",
        "Molecular Mass": "184.28",
        "Melting Point": "173-176 °C"
    }
}