{
    "cas_no": "43083-12-1",
    "key_name": "Trimethyl orthobutyrate",
    "cn_name": "原丁酸三甲酯;",
    "alternate_name": "Butane, 1,1,1-trimethoxy-;Orthobutyric acid, trimethyl ester;1,1,1-Trimethoxybutane;Methyl orthobutyrate;Trimethyl orthobutyrate;Trimethyl orthobutanoate",
    "duplicated_cas_no": "",
    "SMILES": "C(CCC)(OC)(OC)OC",
    "meta_data": {
        "InChI": "InChI=1S/C7H16O3/c1-5-6-7(8-2,9-3)10-4/h5-6H2,1-4H3",
        "InChIKey": null,
        "Canonical SMILES": "O(C)C(OC)(OC)CCC",
        "Molecular Formula": "C<sub>7</sub>H<sub>16</sub>O<sub>3</sub>",
        "Molecular Mass": "148.20",
        "Boiling Point": "145-147 °C",
        "Density": "0.9261 g/cm³ @ Temp: 25 °C"
    }
}