{
    "cas_no": "3228-02-2",
    "key_name": "3-Methyl-4-isopropylphenol",
    "cn_name": "4-异丙基-3-甲基苯酚;3-甲基-4-异丙基酚;1-羟基-3-甲基-4-异丙基苯;3-甲基-4-异丙基苯酚;",
    "alternate_name": "Phenol, 3-methyl-4-(1-methylethyl)-;<em>o</em>-Cymen-5-ol;<em>m</em>-Cresol, 4-isopropyl-;3-Methyl-4-(1-methylethyl)phenol;<em>p</em>-Thymol;Biosol;4-Isopropyl-<em>m</em>-cresol;3-Methyl-4-isopropylphenol;4-Isopropyl-3-methylphenol;4-Isopropyl-5-methylphenol;1-Hydroxy-3-methyl-4-isopropylbenzene;Frecide;Biosol (antibacterial);NSC 62111;5-Methyl-4-isopropylphenol;3-Methyl-4-(propan-2-yl)phenol;Isopropylmethylphenol;IPMP",
    "duplicated_cas_no": "",
    "SMILES": "C(C)(C)C1=C(C)C=C(O)C=C1",
    "meta_data": {
        "InChI": "InChI=1S/C10H14O/c1-7(2)10-5-4-9(11)6-8(10)3/h4-7,11H,1-3H3",
        "InChIKey": null,
        "Canonical SMILES": "OC1=CC=C(C(=C1)C)C(C)C",
        "Molecular Formula": "C<sub>10</sub>H<sub>14</sub>O",
        "Molecular Mass": "150.22",
        "Boiling Point": "238 °C",
        "Melting Point": "114 °C"
    }
}