{
    "cas_no": "1841-57-2",
    "key_name": "4′-Fluoro[1,1′-biphenyl]-2-carboxylic acid",
    "cn_name": null,
    "alternate_name": "[1,1′-Biphenyl]-2-carboxylic acid, 4′-fluoro-;2-Biphenylcarboxylic acid, 4′-fluoro-;4′-Fluoro[1,1′-biphenyl]-2-carboxylic acid;2-(4-Fluorophenyl)benzoic acid;4′-Fluoro-2-biphenylcarboxylic acid;4′-Fluoro-1,1′-biphenyl-2-carboxylic acid",
    "duplicated_cas_no": "",
    "SMILES": "C(O)(=O)C1=C(C=CC=C1)C2=CC=C(F)C=C2",
    "meta_data": {
        "InChI": "InChI=1S/C13H9FO2/c14-10-7-5-9(6-8-10)11-3-1-2-4-12(11)13(15)16/h1-8H,(H,15,16)",
        "InChIKey": null,
        "Canonical SMILES": "O=C(O)C=1C=CC=CC1C=2C=CC(F)=CC2",
        "Molecular Formula": "C<sub>13</sub>H<sub>9</sub>FO<sub>2</sub>",
        "Molecular Mass": "216.21",
        "Melting Point": "&gt;225 °C"
    }
}