{
    "cas_no": "2039-66-9",
    "key_name": "2-(2-Aminoethyl)phenol",
    "cn_name": null,
    "alternate_name": "Phenol, 2-(2-aminoethyl)-;Phenol, <em>o</em>-(2-aminoethyl)-;2-(2-Aminoethyl)phenol;<em>o</em>-Tyramine;2-(2-Hydroxyphenyl)ethylamine;2-Hydroxyphenethylamine;2-(<em>o</em>-Hydroxyphenyl)ethylamine;<em>o</em>-Hydroxyphenethylamine;MeSH ID: D015078",
    "duplicated_cas_no": "",
    "SMILES": "C(CN)C1=C(O)C=CC=C1",
    "meta_data": {
        "InChI": "InChI=1S/C8H11NO/c9-6-5-7-3-1-2-4-8(7)10/h1-4,10H,5-6,9H2",
        "InChIKey": null,
        "Canonical SMILES": "OC=1C=CC=CC1CCN",
        "Molecular Formula": "C<sub>8</sub>H<sub>11</sub>NO",
        "Molecular Mass": "137.18",
        "Melting Point": "113-115 °C"
    }
}