{
    "cas_no": "6972-27-6",
    "key_name": "6-Chloro-1,3-dimethyl-2,4(1<em>H</em>,3<em>H</em>)-pyrimidinedione",
    "cn_name": "6-氯-1,3-二甲基脲嘧啶;",
    "alternate_name": "2,4(1<em>H</em>,3<em>H</em>)-Pyrimidinedione, 6-chloro-1,3-dimethyl-;Uracil, 6-chloro-1,3-dimethyl-;6-Chloro-1,3-dimethyl-2,4(1<em>H</em>,3<em>H</em>)-pyrimidinedione;1,3-Dimethyl-6-chlorouracil;6-Chloro-1,3-dimethyluracil;4-Chloro-1,3-dimethyluracil;6-Chloro-1,3-dimethyl-2,4-dioxopyrimidine;6-Chloro-1,3-dimethylpyrimidine-2,4-dione;NSC 61919;6-Chloro-1,3-dimethylpyrimidine-2,4(1<em>H</em>,3<em>H</em>)-dione",
    "duplicated_cas_no": "",
    "SMILES": "CN1C(=O)N(C)C(=O)C=C1Cl",
    "meta_data": {
        "InChI": "InChI=1S/C6H7ClN2O2/c1-8-4(7)3-5(10)9(2)6(8)11/h3H,1-2H3",
        "InChIKey": null,
        "Canonical SMILES": "O=C1C=C(Cl)N(C(=O)N1C)C",
        "Molecular Formula": "C<sub>6</sub>H<sub>7</sub>ClN<sub>2</sub>O<sub>2</sub>",
        "Molecular Mass": "174.59",
        "Melting Point": "111 °C"
    }
}