{
    "cas_no": "34590-94-8",
    "key_name": "Dipropylene glycol monomethyl ether",
    "cn_name": "二丙二醇甲醚;二丙二醇单甲醚;",
    "alternate_name": "Propanol, 1(<em>or</em> 2)-(2-methoxymethylethoxy)-;Dipropylene glycol monomethyl ether;1(<em>or</em> 2)-(2-Methoxymethylethoxy)propanol;Dowanol DPM;PPG-2 methyl ether;Kino-red;Arcosolv DPM;Oxybispropanol methyl ether;Dipropylene glycol methyl ether;Methoxypropoxypropanol;Methyl Dipropasol;Glysolv DPM;DPM;Forguard M;Methyl Propylene Di Glycol;Hisolve DPM;EBJ 105;Dowanol DPM glycol ether;Dowanol DMP",
    "duplicated_cas_no": "104512-57-4;112388-78-0;12002-25-4;12002-35-6;83730-60-3;197632-43-2",
    "SMILES": "",
    "meta_data": {
        "InChI": "",
        "InChIKey": null,
        "Canonical SMILES": "",
        "Molecular Formula": "C<sub>7</sub>H<sub>16</sub>O<sub>3</sub>",
        "Molecular Mass": "",
        "Boiling Point": "190 °C",
        "Melting Point": "-80 °C",
        "Density": "0.95 g/cm³"
    }
}