{
    "cas_no": "147-94-4",
    "key_name": "Cytarabine",
    "cn_name": "阿糖胞苷;1-beta-D-阿拉伯呋喃糖基-4-氨基-2(1H)-嘧啶酮;",
    "alternate_name": "2(1<em>H</em>)-Pyrimidinone, 4-amino-1-β-<span class=\"text-smallcaps\">D</span>-arabinofuranosyl-;Cytosine, 1-β-<span class=\"text-smallcaps\">D</span>-arabinofuranosyl-;4-Amino-1-β-<span class=\"text-smallcaps\">D</span>-arabinofuranosyl-2(1<em>H</em>)-pyrimidinone;4-Amino-1-arabinofuranosyl-2-oxo-1,2-dihydropyrimidine;1-(Arabinofuranosyl)cytosine;Cytarabine;Aracytidine;<em>ara</em>-Cytosine;1-β-<span class=\"text-smallcaps\">D</span>-Arabinosylcytosine;1-β-Arabinofuranosylcytosine;(Arabinofuranosyl)cytosine;Cytosine β-<span class=\"text-smallcaps\">D</span>-arabinofuranoside;Cytosar;Cytarabinoside;U 19920;Ara-C;NSC 63878;Ac 1075;U 19920A;Cytarabin;Spongocytidine;Alexan;Cyclocide;Cytosine-1-β-arabinofuranoside;Cytosine-1-β-<span class=\"text-smallcaps\">D</span>-arabinofuranoside;1-(β-<span class=\"text-smallcaps\">D</span>-Arabinofuranosyl)cytosine;Cytosine β-<span class=\"text-smallcaps\">D</span>-arabinoside;Aracytin;Cytosine arabinoside;Arafcyt;Arabinocytosine;Arabinoside C;Citozar;Udicil;DepoCyte;Aracytine;Iretin;NSC 287459;Cytosar U;CHX 3311;Arabitin;Erpalfa;Tarabine PFS;Ara-cell;Cylocide;DepoCyt;Cylocide N;4-Amino-1-[(2R,3S,4S,5R)-3,4-dihydroxy-5-(hydroxymethyl)oxolan-2-yl]pyrimidin-2-one;MK 8242;SCH 900242;MeSH ID: D003561",
    "duplicated_cas_no": "",
    "SMILES": "O[C@@H]1[C@@H](O[C@H](CO)[C@H]1O)N2C(=O)N=C(N)C=C2",
    "meta_data": {
        "InChI": "InChI=1S/C9H13N3O5/c10-5-1-2-12(9(16)11-5)8-7(15)6(14)4(3-13)17-8/h1-2,4,6-8,13-15H,3H2,(H2,10,11,16)/t4-,6-,7+,8-/m1/s1",
        "InChIKey": null,
        "Canonical SMILES": "O=C1N=C(N)C=CN1C2OC(CO)C(O)C2O",
        "Molecular Formula": "C<sub>9</sub>H<sub>13</sub>N<sub>3</sub>O<sub>5</sub>",
        "Molecular Mass": "243.22",
        "Melting Point": "212-213 °C"
    }
}