{
    "cas_no": "569-61-9",
    "key_name": "Pararosaniline",
    "cn_name": null,
    "alternate_name": "Benzenamine, 4,4′-[(4-imino-2,5-cyclohexadien-1-ylidene)methylene]bis-, hydrochloride (1:1);Para Magenta;C.I. Basic Red 9, monohydrochloride;Benzenamine, 4-[(4-aminophenyl)(4-imino-2,5-cyclohexadien-1-ylidene)methyl]-, monohydrochloride;Benzenamine, 4,4′-[(4-imino-2,5-cyclohexadien-1-ylidene)methylene]bis-, monohydrochloride;C.I. 42500;Calcozine Magenta N;Fuchsine DR 001;Fuchsine SP;Fuchsine SPC;Parafuchsin;Pararosaniline chloride;Pararosaniline hydrochloride;Parafuchsine;Pararosaniline;C.I. Basic Red 9;Basic Parafuchsine;<em>p</em>-Fuchsin;<em>p</em>-Rosaniline hydrochloride;<em>p</em>-Fuchsine;Orient Para Magenta Base;Basic Red 9;NSC 10460;4-[(4-Aminophenyl)-(4-iminocyclohexa-2,5-dien-1-ylidene)methyl]aniline hydrochloride",
    "duplicated_cas_no": "131883-55-1;70426-60-7;187112-40-9",
    "SMILES": "C(C1=CC=C(N)C=C1)(C2=CC=C(N)C=C2)=C3C=CC(=N)C=C3.Cl",
    "meta_data": {
        "InChI": "InChI=1S/C19H17N3.ClH/c20-16-7-1-13(2-8-16)19(14-3-9-17(21)10-4-14)15-5-11-18(22)12-6-15;/h1-12,20H,21-22H2;1H",
        "InChIKey": null,
        "Canonical SMILES": "Cl.N=C1C=CC(C=C1)=C(C2=CC=C(N)C=C2)C3=CC=C(N)C=C3",
        "Molecular Formula": "C<sub>19</sub>H<sub>17</sub>N<sub>3</sub>.ClH",
        "Molecular Mass": "",
        "Melting Point": "268-270 °C (decomp)"
    }
}