{
    "cas_no": "16962-47-3",
    "key_name": "Germanate(2-), hexafluoro-, ammonium (1:2)",
    "cn_name": "六氟锗酸铵;",
    "alternate_name": "Germanate(2-), hexafluoro-, ammonium (1:2);Germanate(2-), hexafluoro-, diammonium;Ammonium hexafluorogermanate(IV);Ammonium fluogermanate(IV);Diammonium hexafluorogermanate;Diammonium hexafluorogermanate(2-);Diammonium germanium hexafluoride ((NH<sub>4</sub>)<sub>2</sub>GeF<sub>6</sub>)",
    "duplicated_cas_no": "",
    "SMILES": "[Ge+4]([F-])([F-])([F-])([F-])([F-])[F-].[NH4+]",
    "meta_data": {
        "InChI": "InChI=1S/F6Ge.2H3N/c1-7(2,3,4,5)6;;/h;2*1H3/q-2;;/p+2",
        "InChIKey": null,
        "Canonical SMILES": "[F-][Ge+4]([F-])([F-])([F-])([F-])[F-].[NH4+]",
        "Molecular Formula": "F<sub>6</sub>Ge.2H<sub>4</sub>N",
        "Molecular Mass": "",
        "Boiling Point": "380 °C",
        "Density": "2.56 g/cm³"
    }
}