{
    "cas_no": "2370-71-0",
    "key_name": "Monooctyl maleate",
    "cn_name": null,
    "alternate_name": "2-Butenedioic acid (2<em>Z</em>)-, 1-octyl ester;Maleic acid, monooctyl ester;2-Butenedioic acid (<em>Z</em>)-, monooctyl ester;Maleic acid, octyl ester;2-Butenedioic acid (2<em>Z</em>)-, monooctyl ester;Monooctyl maleate",
    "duplicated_cas_no": "",
    "SMILES": "O(C(/C=C\\C(O)=O)=O)CCCCCCCC",
    "meta_data": {
        "InChI": "InChI=1S/C12H20O4/c1-2-3-4-5-6-7-10-16-12(15)9-8-11(13)14/h8-9H,2-7,10H2,1H3,(H,13,14)/b9-8-",
        "InChIKey": null,
        "Canonical SMILES": "O=C(O)C=CC(=O)OCCCCCCCC",
        "Molecular Formula": "C<sub>12</sub>H<sub>20</sub>O<sub>4</sub>",
        "Molecular Mass": "228.28",
        "Melting Point": "32-32.5 °C"
    }
}