{
    "cas_no": "6963-56-0",
    "key_name": "Anisyl butyrate",
    "cn_name": "丁酸茴香酯;",
    "alternate_name": "Butanoic acid, (4-methoxyphenyl)methyl ester;Butyric acid, <em>p</em>-methoxybenzyl ester;Benzyl alcohol, <em>p</em>-methoxy-, butyrate;Anisyl butyrate;4-Methoxybenzyl butyrate;NSC 53797;4-Methoxybenzyl butanoate",
    "duplicated_cas_no": "",
    "SMILES": "C(OC(CCC)=O)C1=CC=C(OC)C=C1",
    "meta_data": {
        "InChI": "InChI=1S/C12H16O3/c1-3-4-12(13)15-9-10-5-7-11(14-2)8-6-10/h5-8H,3-4,9H2,1-2H3",
        "InChIKey": null,
        "Canonical SMILES": "O=C(OCC1=CC=C(OC)C=C1)CCC",
        "Molecular Formula": "C<sub>12</sub>H<sub>16</sub>O<sub>3</sub>",
        "Molecular Mass": "208.25",
        "Boiling Point": "130-132 °C @ Press: 10-12 Torr"
    }
}