{
    "cas_no": "13425-93-9",
    "key_name": "6,7-Dimethoxy-4-hydroxyquinoline",
    "cn_name": null,
    "alternate_name": "4-Quinolinol, 6,7-dimethoxy-;6,7-Dimethoxy-4-quinolinol;6,7-Dimethoxy-4-hydroxyquinoline",
    "duplicated_cas_no": "",
    "SMILES": "OC=1C2=C(C=C(OC)C(OC)=C2)N=CC1",
    "meta_data": {
        "InChI": "InChI=1S/C11H11NO3/c1-14-10-5-7-8(6-11(10)15-2)12-4-3-9(7)13/h3-6H,1-2H3,(H,12,13)",
        "InChIKey": null,
        "Canonical SMILES": "OC=1C=CN=C2C=C(OC)C(OC)=CC12",
        "Molecular Formula": "C<sub>11</sub>H<sub>11</sub>NO<sub>3</sub>",
        "Molecular Mass": "205.21",
        "Melting Point": "224-225 °C"
    }
}