{
    "cas_no": "1430219-76-3",
    "key_name": "Borate(1-), trifluoro-3-oxetanyl-, potassium (1:1), (<em>T</em>-4)-",
    "cn_name": null,
    "alternate_name": "Borate(1-), trifluoro-3-oxetanyl-, potassium (1:1), (<em>T</em>-4)-;Trifluoro(oxetan-3-yl)-λ4-borane potassium",
    "duplicated_cas_no": "",
    "SMILES": "[B+3]([F-])([F-])([F-])[CH-]1COC1.[K+]",
    "meta_data": {
        "InChI": "InChI=1S/C3H5BF3O.K/c5-4(6,7)3-1-8-2-3;/h3H,1-2H2;/q-1;+1",
        "InChIKey": null,
        "Canonical SMILES": "[K+].[F-][B+3]([F-])([F-])[CH-]1COC1",
        "Molecular Formula": "C<sub>3</sub>H<sub>5</sub>BF<sub>3</sub>O.K",
        "Molecular Mass": "",
        "Melting Point": "211-213 °C"
    }
}