{
    "cas_no": "16466-61-8",
    "key_name": "1,2-Bis(1,1-dimethylethyl) 1,2-hydrazinedicarboxylate",
    "cn_name": "叠氮二羧酸二叔丁酯;二叔丁基叠氮草酸;叠氮二羧酸二叔丁酯, 98+%;叠氮二羧酸二叔丁酯;叠氮草酸二叔丁酯;",
    "alternate_name": "1,2-Hydrazinedicarboxylic acid, 1,2-bis(1,1-dimethylethyl) ester;Bicarbamic acid, di-<em>tert</em>-butyl ester;1,2-Hydrazinedicarboxylic acid, bis(1,1-dimethylethyl) ester;1,2-Bis(1,1-dimethylethyl) 1,2-hydrazinedicarboxylate;Di-<em>tert</em>-butyl bicarbamate;Di-<em>tert</em>-butyl hydrazodicarboxylate;Di-<em>tert</em>-butyl 1,2-hydrazodicarboxylate;DBADH<sub>2</sub>;<em>N</em>,<em>N</em>′-Di-Boc-hydrazine;<em>N</em>,<em>N</em>′-Bis(<em>tert</em>-butoxycarbonyl)hydrazine;Di-<em>tert</em>-butyl carbazate;1,2-Bis(<em>tert</em>-butoxycarbonyl)hydrazine;Hydrazine-1,2-dicarboxylic acid di(<em>tert</em>-butyl) ester;Di-<em>t</em>ert-butyl hydrazodiformate;<em>tert</em>-Butyl <em>N</em>-(<em>tert</em>-butoxycarbonylamino)carbamate",
    "duplicated_cas_no": "",
    "SMILES": "O(C(C)(C)C)C(NNC(OC(C)(C)C)=O)=O",
    "meta_data": {
        "InChI": "InChI=1S/C10H20N2O4/c1-9(2,3)15-7(13)11-12-8(14)16-10(4,5)6/h1-6H3,(H,11,13)(H,12,14)",
        "InChIKey": null,
        "Canonical SMILES": "O=C(OC(C)(C)C)NNC(=O)OC(C)(C)C",
        "Molecular Formula": "C<sub>10</sub>H<sub>20</sub>N<sub>2</sub>O<sub>4</sub>",
        "Molecular Mass": "232.28",
        "Melting Point": "120-122 °C"
    }
}