{
    "cas_no": "19624-22-7",
    "key_name": "Pentaborane(9)",
    "cn_name": null,
    "alternate_name": "Pentaborane(9);Boron hydride (B<sub>5</sub>H<sub>9</sub>);Pentaborane;Pentaborane (B<sub>5</sub>H<sub>9</sub>);Nonahydropentaborane;Borane (B<sub>5</sub>H<sub>9</sub>)",
    "duplicated_cas_no": "1303-97-5;24378-36-7;24378-38-9;24378-37-8;52712-65-9;64442-81-5;71129-91-4",
    "SMILES": "[BH]123[BH]456[BH]17([BH]28([BH]34([H]5)[H]8)[H]7)[H]6",
    "meta_data": {
        "InChI": "InChI=1S/B5H9/c6-2-1-3(2,6)5(1,8-3)4(1,2,7-2)9-5/h1-5H",
        "InChIKey": null,
        "Canonical SMILES": "[H]1[BH]234[H][BH]564[H][BH]786[H][BH]138[BH]257",
        "Molecular Formula": "B<sub>5</sub>H<sub>9</sub>",
        "Molecular Mass": "55.06",
        "Boiling Point": "60 °C",
        "Melting Point": "-46.6 °C",
        "Density": "0.61 g/cm³ @ Temp: 0 °C"
    }
}