{
    "cas_no": "113994-37-9",
    "key_name": "3-Ethyl 2-[(2-aminoethoxy)methyl]-4-(2-chlorophenyl)-1,4-dihydro-6-methyl-3,5-pyridinedicarboxylate",
    "cn_name": null,
    "alternate_name": "3,5-Pyridinedicarboxylic acid, 2-[(2-aminoethoxy)methyl]-4-(2-chlorophenyl)-1,4-dihydro-6-methyl-, 3-ethyl ester;3-Ethyl 2-[(2-aminoethoxy)methyl]-4-(2-chlorophenyl)-1,4-dihydro-6-methyl-3,5-pyridinedicarboxylate",
    "duplicated_cas_no": "119522-74-6",
    "SMILES": "C(OCC)(=O)C=1C(C(C(O)=O)=C(C)NC1COCCN)C2=C(Cl)C=CC=C2",
    "meta_data": {
        "InChI": "InChI=1S/C19H23ClN2O5/c1-3-27-19(25)17-14(10-26-9-8-21)22-11(2)15(18(23)24)16(17)12-6-4-5-7-13(12)20/h4-7,16,22H,3,8-10,21H2,1-2H3,(H,23,24)",
        "InChIKey": null,
        "Canonical SMILES": "O=C(O)C1=C(NC(=C(C(=O)OCC)C1C=2C=CC=CC2Cl)COCCN)C",
        "Molecular Formula": "C<sub>19</sub>H<sub>23</sub>ClN<sub>2</sub>O<sub>5</sub>",
        "Molecular Mass": "394.85",
        "Melting Point": "168-170 °C"
    }
}