{
    "cas_no": "159922-68-6",
    "key_name": "4-Methoxyphenyl 3,4-<em>O</em>-(1-methylethylidene)-2,6-bis-<em>O</em>-(phenylmethyl)-β-<span class=\"text-smallcaps\">D</span>-galactopyranoside",
    "cn_name": "4-甲氧苯基2,6-二-O-苄基-3,4-O-异亚丙基-β-D-吡喃半乳糖苷;",
    "alternate_name": "β-<span class=\"text-smallcaps\">D</span>-Galactopyranoside, 4-methoxyphenyl 3,4-<em>O</em>-(1-methylethylidene)-2,6-bis-<em>O</em>-(phenylmethyl)-;4-Methoxyphenyl 3,4-<em>O</em>-(1-methylethylidene)-2,6-bis-<em>O</em>-(phenylmethyl)-β-<span class=\"text-smallcaps\">D</span>-galactopyranoside",
    "duplicated_cas_no": "",
    "SMILES": "O(CC1=CC=CC=C1)[C@@H]2[C@@]3([C@]([C@@H](COCC4=CC=CC=C4)O[C@H]2OC5=CC=C(OC)C=C5)(OC(C)(C)O3)[H])[H]",
    "meta_data": {
        "InChI": "InChI=1S/C30H34O7/c1-30(2)36-26-25(20-32-18-21-10-6-4-7-11-21)35-29(34-24-16-14-23(31-3)15-17-24)28(27(26)37-30)33-19-22-12-8-5-9-13-22/h4-17,25-29H,18-20H2,1-3H3/t25-,26+,27+,28-,29-/m1/s1",
        "InChIKey": null,
        "Canonical SMILES": "O(C1=CC=C(OC2OC(COCC=3C=CC=CC3)C4OC(OC4C2OCC=5C=CC=CC5)(C)C)C=C1)C",
        "Molecular Formula": "C<sub>30</sub>H<sub>34</sub>O<sub>7</sub>",
        "Molecular Mass": "506.59",
        "Melting Point": "104-106 °C"
    }
}