{
    "cas_no": "148-03-8",
    "key_name": "β-Tocopherol",
    "cn_name": "3,4-二氢-2,5,8-三甲-2-(4,8,12-三甲基十三烷基)-2H-1-苯并吡喃-6-醇;",
    "alternate_name": "2<em>H</em>-1-Benzopyran-6-ol, 3,4-dihydro-2,5,8-trimethyl-2-[(4<em>R</em>,8<em>R</em>)-4,8,12-trimethyltridecyl]-, (2<em>R</em>)-<em>rel</em>-;6-Chromanol, 2,5,8-trimethyl-2-(4,8,12-trimethyltridecyl)-;2<em>H</em>-1-Benzopyran-6-ol, 3,4-dihydro-2,5,8-trimethyl-2-(4,8,12-trimethyltridecyl)-, [2<em>R</em>*(4<em>R</em>*,8<em>R</em>*)]-;<em>rel</em>-(2<em>R</em>)-3,4-Dihydro-2,5,8-trimethyl-2-[(4<em>R</em>,8<em>R</em>)-4,8,12-trimethyltridecyl]-2<em>H</em>-1-benzopyran-6-ol;Cumotocopherol;5,8-Dimethyltocol;Neotocopherol;β-Tocopherol;2,5,8-Trimethyl-2-(4,8,12-trimethyltridecyl)-6-chromanol;<em>p</em>-Xylotocopherol;<em>dl</em>-β-Tocopherol;<span class=\"text-smallcaps\">DL</span>-β-Tocopherol",
    "duplicated_cas_no": "16662-70-7",
    "SMILES": "CC1=C2C(CC[C@](CCC[C@@H](CCC[C@@H](CCCC(C)C)C)C)(C)O2)=C(C)C(O)=C1",
    "meta_data": {
        "InChI": "InChI=1/C28H48O2/c1-20(2)11-8-12-21(3)13-9-14-22(4)15-10-17-28(7)18-16-25-24(6)26(29)19-23(5)27(25)30-28/h19-22,29H,8-18H2,1-7H3/t21-,22-,28-/s2",
        "InChIKey": null,
        "Canonical SMILES": "OC=1C=C(C=2OC(C)(CCC2C1C)CCCC(C)CCCC(C)CCCC(C)C)C",
        "Molecular Formula": "C<sub>28</sub>H<sub>48</sub>O<sub>2</sub>",
        "Molecular Mass": "416.68",
        "Boiling Point": "205 °C",
        "Melting Point": "&lt;25 °C"
    }
}