{
    "cas_no": "2882-21-5",
    "key_name": "2-Methoxy-6-methylpyrazine",
    "cn_name": null,
    "alternate_name": "Pyrazine, 2-methoxy-6-methyl-;2-Methoxy-6-methylpyrazine;2-Methyl-6-methoxypyrazine",
    "duplicated_cas_no": "",
    "SMILES": "O(C)C1=NC(C)=CN=C1",
    "meta_data": {
        "InChI": "InChI=1S/C6H8N2O/c1-5-3-7-4-6(8-5)9-2/h3-4H,1-2H3",
        "InChIKey": null,
        "Canonical SMILES": "N=1C=C(N=C(C1)C)OC",
        "Molecular Formula": "C<sub>6</sub>H<sub>8</sub>N<sub>2</sub>O",
        "Molecular Mass": "124.14",
        "Boiling Point": "48-50 °C @ Press: 15 Torr"
    }
}