{
    "cas_no": "1397-89-3",
    "key_name": "Fungizone",
    "cn_name": null,
    "alternate_name": "Amphotericin B;Fungizone;14,39-Dioxabicyclo[33.3.1]nonatriaconta-19,21,23,25,27,29,31-heptaene-36-carboxylic acid, 33-[(3-amino-3,6-dideoxy-β-<span class=\"text-smallcaps\">D</span>-mannopyranosyl)oxy]-1,3,5,6,9,11,17,37-octahydroxy-15,16,18-trimethyl-13-oxo-, (1<em>R</em>,3<em>S</em>,5<em>R</em>,6<em>R</em>,9<em>R</em>,11<em>R</em>,15<em>S</em>,16<em>R</em>,17<em>R</em>,18<em>S</em>,19<em>E</em>,21<em>E</em>,23<em>E</em>,25<em>E</em>,27<em>E</em>,29<em>E</em>,31<em>E</em>,33<em>R</em>,35<em>S</em>,36<em>R</em>,37<em>S</em>)-;Fungilin;Ampho-Moronal;(1<em>R</em>,3<em>S</em>,5<em>R</em>,6<em>R</em>,9<em>R</em>,11<em>R</em>,15<em>S</em>,16<em>R</em>,17<em>R</em>,18<em>S</em>,19<em>E</em>,21<em>E</em>,23<em>E</em>,25<em>E</em>,27<em>E</em>,29<em>E</em>,31<em>E</em>,33<em>R</em>,35<em>S</em>,36<em>R</em>,37<em>S</em>)-33-[(3-Amino-3,6-dideoxy-β-<span class=\"text-smallcaps\">D</span>-mannopyranosyl)oxy]-1,3,5,6,9,11,17,37-octahydroxy-15,16,18-trimethyl-13-oxo-14,39-dioxabicyclo[33.3.1]nonatriaconta-19,21,23,25,27,29,31-heptaene-36-carboxylic acid;AmBisome;NS 718;Abelcet;LNS-AmB;Halizon;Amphozone;Amphocin;NSC 527017;Apothecon;Fungizona;Abelecet;Kalsome 10;MeSH ID: D000666",
    "duplicated_cas_no": "1407-52-9;8055-20-7;30782-62-8;54482-28-9;170451-78-2;1802392-71-7;2250018-37-0",
    "SMILES": "",
    "meta_data": {
        "InChI": "",
        "InChIKey": null,
        "Canonical SMILES": "",
        "Molecular Formula": "C<sub>47</sub>H<sub>73</sub>NO<sub>17</sub>",
        "Molecular Mass": "924.08",
        "Melting Point": "&gt;170 °C (decomp)"
    }
}