{
    "cas_no": "4637-24-5",
    "key_name": "Dimethylformamide dimethyl acetal",
    "cn_name": "N,N-二甲基甲酰胺二甲基缩醛;",
    "alternate_name": "Methanamine, 1,1-dimethoxy-<em>N</em>,<em>N</em>-dimethyl-;Trimethylamine, 1,1-dimethoxy-;1,1-Dimethoxy-<em>N</em>,<em>N</em>-dimethylmethanamine;1,1-Dimethoxytrimethylamine;<em>N</em>-(Dimethoxymethyl)dimethylamine;Dimethoxy(dimethylamino)methane;Methyl-8;(Dimethylamino)formaldehyde dimethyl acetal;(Dimethylamino)dimethoxymethane;Dimethoxy-<em>N</em>,<em>N</em>-dimethylmethylamine;DMF dimethyl acetal;<em>N</em>,<em>N</em>-Dimethylformamide dimethyl acetal;Dimethylformamide dimethyl acetal;α,α-Dimethoxytrimethylamine;DMFDMA;<em>N</em>-(Dimethoxymethyl)-<em>N</em>,<em>N</em>-dimethylamine;(Dimethoxymethyl)dimethylamine;Dimethoxy-<em>N</em>,<em>N</em>-dimethylmethanamine;Dimethyl dimethylformamide acetal;<em>N</em>,<em>N</em>-Dimethyl-1,1-bis(methyloxy)methanamine;<em>N</em>,<em>N</em>-Dimethyl(dimethoxymethyl)amine;<em>N</em>,<em>N</em>-Dimethylformamido dimethyl acetal",
    "duplicated_cas_no": "637765-94-7",
    "SMILES": "C(N(C)C)(OC)OC",
    "meta_data": {
        "InChI": "InChI=1S/C5H13NO2/c1-6(2)5(7-3)8-4/h5H,1-4H3",
        "InChIKey": null,
        "Canonical SMILES": "O(C)C(OC)N(C)C",
        "Molecular Formula": "C<sub>5</sub>H<sub>13</sub>NO<sub>2</sub>",
        "Molecular Mass": "119.16",
        "Boiling Point": "107-108 °C @ Press: 763 Torr",
        "Density": "0.8990 g/cm³ @ Temp: 20 °C"
    }
}