{
    "cas_no": "6737-42-4",
    "key_name": "1,3-Bis(diphenylphosphino)propane",
    "cn_name": "1,3-双(二苯基膦)丙烷;",
    "alternate_name": "Phosphine, 1,1′-(1,3-propanediyl)bis[1,1-diphenyl-;Phosphine, trimethylenebis[diphenyl-;Phosphine, 1,3-propanediylbis[diphenyl-;1,1′-(1,3-Propanediyl)bis[1,1-diphenylphosphine];1,3-Bis(diphenylphosphino)propane;1,3-Propanediylbis[diphenylphosphine];Trimethylenebis(diphenylphosphine);1,3-DPPP;1,3-Bis(diphenylphosphine)propane;1,3-Propylenebis(diphenylphosphine);DPPP;DPPP (phosphine derivative);NSC 193753;1,3-Bis(diphenylphosphanyl)propane;3-Diphenylphosphanylpropyldiphenylphosphane",
    "duplicated_cas_no": "",
    "SMILES": "P(CCCP(C1=CC=CC=C1)C2=CC=CC=C2)(C3=CC=CC=C3)C4=CC=CC=C4",
    "meta_data": {
        "InChI": "InChI=1S/C27H26P2/c1-5-14-24(15-6-1)28(25-16-7-2-8-17-25)22-13-23-29(26-18-9-3-10-19-26)27-20-11-4-12-21-27/h1-12,14-21H,13,22-23H2",
        "InChIKey": null,
        "Canonical SMILES": "C=1C=CC(=CC1)P(C=2C=CC=CC2)CCCP(C=3C=CC=CC3)C=4C=CC=CC4",
        "Molecular Formula": "C<sub>27</sub>H<sub>26</sub>P<sub>2</sub>",
        "Molecular Mass": "412.44",
        "Melting Point": "61-62 °C"
    }
}