{
    "cas_no": "73692-50-9",
    "key_name": "2′,4,4′,6′-Tetrahydroxychalcone",
    "cn_name": null,
    "alternate_name": "2-Propen-1-one, 3-(4-hydroxyphenyl)-1-(2,4,6-trihydroxyphenyl)-;Chalcone, 2′,4,4′,6′-tetrahydroxy-;3-(4-Hydroxyphenyl)-1-(2,4,6-trihydroxyphenyl)-2-propen-1-one;4,2′,4′,6′-Tetrahydroxychalcone;2′,4,4′,6′-Tetrahydroxychalcone",
    "duplicated_cas_no": "",
    "SMILES": "C(C=CC1=CC=C(O)C=C1)(=O)C2=C(O)C=C(O)C=C2O",
    "meta_data": {
        "InChI": "InChI=1S/C15H12O5/c16-10-4-1-9(2-5-10)3-6-12(18)15-13(19)7-11(17)8-14(15)20/h1-8,16-17,19-20H",
        "InChIKey": null,
        "Canonical SMILES": "O=C(C=CC1=CC=C(O)C=C1)C=2C(O)=CC(O)=CC2O",
        "Molecular Formula": "C<sub>15</sub>H<sub>12</sub>O<sub>5</sub>",
        "Molecular Mass": "272.25",
        "Melting Point": "173-174 °C"
    }
}