{
    "cas_no": "1822-73-7",
    "key_name": "(Ethenylthio)benzene",
    "cn_name": "苯基乙烯基硫醚;",
    "alternate_name": "Benzene, (ethenylthio)-;Sulfide, phenyl vinyl;(Ethenylthio)benzene;Phenyl vinyl sulfide;Vinyl phenyl sulfide;Phenylthioethylene;Vinylthiobenzene;Phenyl vinyl thioether;Phenylthioethene;NSC 39625;Phenyl(vinyl)sulfane",
    "duplicated_cas_no": "",
    "SMILES": "S(C=C)C1=CC=CC=C1",
    "meta_data": {
        "InChI": "InChI=1S/C8H8S/c1-2-9-8-6-4-3-5-7-8/h2-7H,1H2",
        "InChIKey": null,
        "Canonical SMILES": "S(C=C)C=1C=CC=CC1",
        "Molecular Formula": "C<sub>8</sub>H<sub>8</sub>S",
        "Molecular Mass": "136.21",
        "Boiling Point": "200-201 °C",
        "Density": "1.0386 g/cm³ @ Temp: 20 °C"
    }
}