{
    "cas_no": "14309-25-2",
    "key_name": "1,1′,1′′-(Azidomethylidyne)tris[benzene]",
    "cn_name": "叠氮化三苯基甲烷;",
    "alternate_name": "Benzene, 1,1′,1′′-(azidomethylidyne)tris-;Methane, azidotriphenyl-;1,1′,1′′-(Azidomethylidyne)tris[benzene];Triphenylmethyl azide;Trityl azide;NSC 206136;NSC 87890;[Azido(diphenyl)methyl]benzene;(Azidomethanetriyl)tribenzene",
    "duplicated_cas_no": "",
    "SMILES": "C(N=[N+]=[N-])(C1=CC=CC=C1)(C2=CC=CC=C2)C3=CC=CC=C3",
    "meta_data": {
        "InChI": "InChI=1S/C19H15N3/c20-22-21-19(16-10-4-1-5-11-16,17-12-6-2-7-13-17)18-14-8-3-9-15-18/h1-15H",
        "InChIKey": null,
        "Canonical SMILES": "[N-]=[N+]=NC(C=1C=CC=CC1)(C=2C=CC=CC2)C=3C=CC=CC3",
        "Molecular Formula": "C<sub>19</sub>H<sub>15</sub>N<sub>3</sub>",
        "Molecular Mass": "",
        "Boiling Point": "90-100 °C @ Press: 3 Torr",
        "Melting Point": "64 °C"
    }
}