{
    "cas_no": "721-50-6",
    "key_name": "Prilocaine",
    "cn_name": "丙胺卡因;N-(2-甲基苯基)-2-丙胺-丙酰胺;",
    "alternate_name": "Propanamide, <em>N</em>-(2-methylphenyl)-2-(propylamino)-;<em>o</em>-Propionotoluidide, 2-(propylamino)-;<em>N</em>-(2-Methylphenyl)-2-(propylamino)propanamide;Astra 1512;Citanest;<em>o</em>-Methyl-2-propylaminopropionanilide;2-Methyl-α-propylaminopropionanilide;Prilocaine;Propitocaine;Astra 1515;(±)-<em>N</em>-(2-Propylaminopropionyl)-2-toluidine;<span class=\"text-smallcaps\">DL</span>-(±)-Prilocaine;(±)-Prilocaine;NSC 40027;2-Propylamino-<em>N</em>-<em>o</em>-tolyl-propionamide;2-(Propylamino)-<em>N</em>-(<em>o</em>-tolyl)propanamide;MeSH ID: D011318",
    "duplicated_cas_no": "17676-07-2",
    "SMILES": "N(C(C(NCCC)C)=O)C1=C(C)C=CC=C1",
    "meta_data": {
        "InChI": "InChI=1S/C13H20N2O/c1-4-9-14-11(3)13(16)15-12-8-6-5-7-10(12)2/h5-8,11,14H,4,9H2,1-3H3,(H,15,16)",
        "InChIKey": null,
        "Canonical SMILES": "O=C(NC=1C=CC=CC1C)C(NCCC)C",
        "Molecular Formula": "C<sub>13</sub>H<sub>20</sub>N<sub>2</sub>O",
        "Molecular Mass": "220.31",
        "Boiling Point": "159-162 °C @ Press: 1 Torr",
        "Melting Point": "37-38 °C"
    }
}