{
    "cas_no": "107-82-4",
    "key_name": "1-Bromo-3-methylbutane",
    "cn_name": "1-溴代异戊烷;1-溴-3-甲基丁烷;异戊基溴;",
    "alternate_name": "Butane, 1-bromo-3-methyl-;1-Bromo-3-methylbutane;4-Bromo-2-methylbutane;Isopentyl bromide;Isoamyl bromide;3-Methylbutyl bromide;3-Methyl-1-bromobutane;Isobutylmethyl bromide;NSC 9240",
    "duplicated_cas_no": "",
    "SMILES": "C(C(C)C)CBr",
    "meta_data": {
        "InChI": "InChI=1S/C5H11Br/c1-5(2)3-4-6/h5H,3-4H2,1-2H3",
        "InChIKey": null,
        "Canonical SMILES": "BrCCC(C)C",
        "Molecular Formula": "C<sub>5</sub>H<sub>11</sub>Br",
        "Molecular Mass": "151.04",
        "Boiling Point": "120.4 °C",
        "Melting Point": "-112 °C",
        "Density": "1.13653 g/cm³ @ Temp: 0 °C"
    }
}