{
    "cas_no": "3749-36-8",
    "key_name": "3,4-Dihydro-2<em>H</em>-pyran-2-methanol",
    "cn_name": "2-羟甲基-3,4-二氢吡喃;3,4-二氢-2H-吡喃-2-甲醇;",
    "alternate_name": "2<em>H</em>-Pyran-2-methanol, 3,4-dihydro-;3,4-Dihydro-2<em>H</em>-pyran-2-methanol;3,4-Dihydro-2-(hydroxymethyl)-2<em>H</em>-pyran;NSC 20753;2-Hydroxymethyl-3,4-dihydro-2<em>H</em>-pyran;(3,4-Dihydro-2<em>H</em>-pyran-2-yl)methanol;(Rac)-3,4-dihydro-2<em>H</em>-pyran-2-methanol",
    "duplicated_cas_no": "75828-98-7",
    "SMILES": "C(O)C1CCC=CO1",
    "meta_data": {
        "InChI": "InChI=1S/C6H10O2/c7-5-6-3-1-2-4-8-6/h2,4,6-7H,1,3,5H2",
        "InChIKey": null,
        "Canonical SMILES": "OCC1OC=CCC1",
        "Molecular Formula": "C<sub>6</sub>H<sub>10</sub>O<sub>2</sub>",
        "Molecular Mass": "114.14",
        "Boiling Point": "90 °C @ Press: 20 Torr"
    }
}