{
    "cas_no": "106266-09-5",
    "key_name": "Desfluororisperidone",
    "cn_name": null,
    "alternate_name": "4<em>H</em>-Pyrido[1,2-<em>a</em>]pyrimidin-4-one, 3-[2-[4-(1,2-benzisoxazol-3-yl)-1-piperidinyl]ethyl]-6,7,8,9-tetrahydro-2-methyl-;1,2-Benzisoxazole, 4<em>H</em>-pyrido[1,2-<em>a</em>]pyrimidin-4-one deriv.;3-[2-[4-(1,2-Benzisoxazol-3-yl)-1-piperidinyl]ethyl]-6,7,8,9-tetrahydro-2-methyl-4<em>H</em>-pyrido[1,2-<em>a</em>]pyrimidin-4-one;Desfluororisperidone",
    "duplicated_cas_no": "",
    "SMILES": "C(CC=1C(=O)N2C(=NC1C)CCCC2)N3CCC(C=4C=5C(ON4)=CC=CC5)CC3",
    "meta_data": {
        "InChI": "InChI=1S/C23H28N4O2/c1-16-18(23(28)27-12-5-4-8-21(27)24-16)11-15-26-13-9-17(10-14-26)22-19-6-2-3-7-20(19)29-25-22/h2-3,6-7,17H,4-5,8-15H2,1H3",
        "InChIKey": null,
        "Canonical SMILES": "O=C1C(=C(N=C2N1CCCC2)C)CCN3CCC(C4=NOC=5C=CC=CC54)CC3",
        "Molecular Formula": "C<sub>23</sub>H<sub>28</sub>N<sub>4</sub>O<sub>2</sub>",
        "Molecular Mass": "392.49",
        "Melting Point": "183.1 °C"
    }
}