{
    "cas_no": "6290-17-1",
    "key_name": "Ethyl 2,4-dimethyl-1,3-dioxolane-2-acetate",
    "cn_name": "2,4-二甲基-1,3-二恶烷-2-乙酸乙酯;",
    "alternate_name": "1,3-Dioxolane-2-acetic acid, 2,4-dimethyl-, ethyl ester;Ethyl 2,4-dimethyl-1,3-dioxolane-2-acetate;NSC 6547;Ethyl 2,4-dimethyl-1,3-dioxolane-2-carboxylate;2,4-Dimethyl-2-[(ethoxycarbonyl)methyl]-1,3-dioxolane;Ethyl 2-(2,4-dimethyl-1,3-dioxolan-2-yl)acetate;Fragolane",
    "duplicated_cas_no": "948854-83-9",
    "SMILES": "C(C(OCC)=O)C1(C)OCC(C)O1",
    "meta_data": {
        "InChI": "InChI=1S/C9H16O4/c1-4-11-8(10)5-9(3)12-6-7(2)13-9/h7H,4-6H2,1-3H3",
        "InChIKey": null,
        "Canonical SMILES": "O=C(OCC)CC1(OCC(O1)C)C",
        "Molecular Formula": "C<sub>9</sub>H<sub>16</sub>O<sub>4</sub>",
        "Molecular Mass": "188.22",
        "Boiling Point": "75-76 °C @ Press: 4 Torr"
    }
}