{
    "cas_no": "645-96-5",
    "key_name": "Benzeneselenol",
    "cn_name": "5-苯基-1，3，4-恶二唑-2-硫醇;",
    "alternate_name": "Benzeneselenol;Benzene, selenyl-;Phenol, seleno-;Phenyl selenol;Phenyl selenomercaptan;Selenophenol",
    "duplicated_cas_no": "",
    "SMILES": "[SeH]C1=CC=CC=C1",
    "meta_data": {
        "InChI": "InChI=1S/C6H6Se/c7-6-4-2-1-3-5-6/h1-5,7H",
        "InChIKey": null,
        "Canonical SMILES": "[SeH]C=1C=CC=CC1",
        "Molecular Formula": "C<sub>6</sub>H<sub>6</sub>Se",
        "Molecular Mass": "157.07",
        "Boiling Point": "183.6 °C"
    }
}