{
    "cas_no": "636-98-6",
    "key_name": "1-Iodo-4-nitrobenzene",
    "cn_name": "4-硝基碘苯;4-碘硝基苯;对碘硝基苯;对硝基碘苯;",
    "alternate_name": "Benzene, 1-iodo-4-nitro-;1-Iodo-4-nitrobenzene;<em>p</em>-Iodonitrobenzene;<em>p</em>-Nitrophenyl iodide;4-Iodonitrobenzene;<em>p</em>-Nitroiodobenzene;4-Nitroiodobenzene;4-Nitrophenyl iodide;4-Iodo-1-nitrobenzene;4-Nitro-1-iodobenzene;NSC 9794;1-Nitro-4-iodobenzene",
    "duplicated_cas_no": "",
    "SMILES": "N(=O)(=O)C1=CC=C(I)C=C1",
    "meta_data": {
        "InChI": "InChI=1S/C6H4INO2/c7-5-1-3-6(4-2-5)8(9)10/h1-4H",
        "InChIKey": null,
        "Canonical SMILES": "O=N(=O)C1=CC=C(I)C=C1",
        "Molecular Formula": "C<sub>6</sub>H<sub>4</sub>INO<sub>2</sub>",
        "Molecular Mass": "249.01",
        "Boiling Point": "288 °C",
        "Melting Point": "174.7 °C"
    }
}