{
    "cas_no": "7216-69-5",
    "key_name": "Methyl β-lactoside",
    "cn_name": null,
    "alternate_name": "β-<span class=\"text-smallcaps\">D</smallcap>-Glucopyranoside, methyl 4-<em>O</em>-β-<smallcap>D</span>-galactopyranosyl-;Glucopyranoside, methyl 4-<em>O</em>-β-<span class=\"text-smallcaps\">D</smallcap>-galactopyranosyl-, β-<smallcap>D</span>-;Lactoside, methyl;Methyl 4-<em>O</em>-β-<span class=\"text-smallcaps\">D</smallcap>-galactopyranosyl-β-<smallcap>D</span>-glucopyranoside;Methyl β-lactoside;Methyl β-<span class=\"text-smallcaps\">D</span>-lactopyranoside",
    "duplicated_cas_no": "",
    "SMILES": "O([C@@H]1[C@@H](CO)O[C@@H](OC)[C@H](O)[C@H]1O)[C@@H]2O[C@H](CO)[C@H](O)[C@H](O)[C@H]2O",
    "meta_data": {
        "InChI": "InChI=1S/C13H24O11/c1-21-12-10(20)8(18)11(5(3-15)23-12)24-13-9(19)7(17)6(16)4(2-14)22-13/h4-20H,2-3H2,1H3/t4-,5-,6+,7+,8-,9-,10-,11-,12-,13+/m1/s1",
        "InChIKey": null,
        "Canonical SMILES": "OCC1OC(OC2C(O)C(O)C(OC)OC2CO)C(O)C(O)C1O",
        "Molecular Formula": "C<sub>13</sub>H<sub>24</sub>O<sub>11</sub>",
        "Molecular Mass": "356.32",
        "Melting Point": "205 °C"
    }
}