{
    "cas_no": "5044-24-6",
    "key_name": "1-(4-Bromophenyl)-2,5-dimethyl-1<em>H</em>-pyrrole",
    "cn_name": "1-(4-溴苯基)-2,5-二甲基-1H-吡咯;1-(4-溴苯基)-2,5-二甲基-1H-吡咯;",
    "alternate_name": "1<em>H</em>-Pyrrole, 1-(4-bromophenyl)-2,5-dimethyl-;Pyrrole, 1-(<em>p</em>-bromophenyl)-2,5-dimethyl-;1-(4-Bromophenyl)-2,5-dimethyl-1<em>H</em>-pyrrole;1-(4-Bromophenyl)-2,5-dimethylpyrrole;2,5-Dimethyl-1-(4-bromophenyl)pyrrole;<em>N</em>-(<em>p</em>-Bromophenyl)-2,5-dimethylpyrrole",
    "duplicated_cas_no": "",
    "SMILES": "CC=1N(C(C)=CC1)C2=CC=C(Br)C=C2",
    "meta_data": {
        "InChI": "InChI=1S/C12H12BrN/c1-9-3-4-10(2)14(9)12-7-5-11(13)6-8-12/h3-8H,1-2H3",
        "InChIKey": null,
        "Canonical SMILES": "BrC1=CC=C(C=C1)N2C(=CC=C2C)C",
        "Molecular Formula": "C<sub>12</sub>H<sub>12</sub>BrN",
        "Molecular Mass": "250.13",
        "Melting Point": "74-75 °C"
    }
}