{
    "cas_no": "682-11-1",
    "key_name": "Trimethylolpropane monoallyl ether",
    "cn_name": "2-乙基-2-[(2-乙烯基氧基)甲基]-1,3-丙二醇;",
    "alternate_name": "1,3-Propanediol, 2-ethyl-2-[(2-propen-1-yloxy)methyl]-;1,3-Propanediol, 2-[(allyloxy)methyl]-2-ethyl-;1,3-Propanediol, 2-ethyl-2-[(2-propenyloxy)methyl]-;2-Ethyl-2-[(2-propen-1-yloxy)methyl]-1,3-propanediol;Trimethylolpropane monoallyl ether;2-Allyloxymethyl-2-ethyl-1,3-propanediol;1,1,1-Trimethylolpropane monoallyl ether;2-Ethyl-2-allyloxymethyl-1,3-propanediol;Trimethylolpropane allyl ether",
    "duplicated_cas_no": "133177-06-7;30112-65-3",
    "SMILES": "C(COCC=C)(CC)(CO)CO",
    "meta_data": {
        "InChI": "InChI=1S/C9H18O3/c1-3-5-12-8-9(4-2,6-10)7-11/h3,10-11H,1,4-8H2,2H3",
        "InChIKey": null,
        "Canonical SMILES": "OCC(CO)(COCC=C)CC",
        "Molecular Formula": "C<sub>9</sub>H<sub>18</sub>O<sub>3</sub>",
        "Molecular Mass": "174.24",
        "Boiling Point": "122-160 °C @ Press: 4 Torr"
    }
}