{
    "cas_no": "74409-42-0",
    "key_name": "Pyridine, 2,3,5-trimethyl-, 1-oxide",
    "cn_name": null,
    "alternate_name": "Pyridine, 2,3,5-trimethyl-, 1-oxide;2,3,5-Trimethylpyridine 1-oxide;2,3,5-Trimethylpyridine <em>N</em>-oxide;2,3,5-Collidine <em>N</em>-oxide;2,3,5-Trimethyl-1-oxidopyridin-1-ium",
    "duplicated_cas_no": "",
    "SMILES": "CC1=C(C)C=C(C)C=N1=O",
    "meta_data": {
        "InChI": "InChI=1S/C8H11NO/c1-6-4-7(2)8(3)9(10)5-6/h4-5H,1-3H3",
        "InChIKey": null,
        "Canonical SMILES": "O=N=1C=C(C=C(C1C)C)C",
        "Molecular Formula": "C<sub>8</sub>H<sub>11</sub>NO",
        "Molecular Mass": "137.18",
        "Boiling Point": "95-98 °C @ Press: 9.98 x 10<sup>-3</sup> Torr",
        "Melting Point": "40-41 °C"
    }
}