{
    "cas_no": "828-26-2",
    "key_name": "Trithioacetone",
    "cn_name": "三硫丙酮;2,2,4,4,6,6-六甲基-1,3,5-三噻烷;",
    "alternate_name": "1,3,5-Trithiane, 2,2,4,4,6,6-hexamethyl-;<em>s</em>-Trithiane, 2,2,4,4,6,6-hexamethyl-;<em>s</em>-Trithiane, hexamethyl-;2,2,4,4,6,6-Hexamethyl-1,3,5-trithiane;Trithioacetone;Hexamethyl-<em>s</em>-trithiane;2,2,4,4,6,6-Hexamethyl-<em>s</em>-trithiane;Hexamethyl-1,3,5-trithiane",
    "duplicated_cas_no": "",
    "SMILES": "CC1(C)SC(C)(C)SC(C)(C)S1",
    "meta_data": {
        "InChI": "InChI=1S/C9H18S3/c1-7(2)10-8(3,4)12-9(5,6)11-7/h1-6H3",
        "InChIKey": null,
        "Canonical SMILES": "S1C(SC(SC1(C)C)(C)C)(C)C",
        "Molecular Formula": "C<sub>9</sub>H<sub>18</sub>S<sub>3</sub>",
        "Molecular Mass": "222.43",
        "Boiling Point": "105-107 °C @ Press: 10 Torr",
        "Melting Point": "227 °C",
        "Density": "1.073 g/cm³ @ Temp: 20 °C"
    }
}