{
    "cas_no": "1036-72-2",
    "key_name": "5,7-Dimethoxyflavanone",
    "cn_name": null,
    "alternate_name": "4<em>H</em>-1-Benzopyran-4-one, 2,3-dihydro-5,7-dimethoxy-2-phenyl-;Flavanone, 5,7-dimethoxy-;2,3-Dihydro-5,7-dimethoxy-2-phenyl-4<em>H</em>-1-benzopyran-4-one;5,7-Dimethoxyflavanone;5,7-Dimethoxy-2-phenylchroman-4-one",
    "duplicated_cas_no": "89395-30-2",
    "SMILES": "O(C)C1=C2C(OC(CC2=O)C3=CC=CC=C3)=CC(OC)=C1",
    "meta_data": {
        "InChI": "InChI=1S/C17H16O4/c1-19-12-8-15(20-2)17-13(18)10-14(21-16(17)9-12)11-6-4-3-5-7-11/h3-9,14H,10H2,1-2H3",
        "InChIKey": null,
        "Canonical SMILES": "O=C1C=2C(OC)=CC(OC)=CC2OC(C=3C=CC=CC3)C1",
        "Molecular Formula": "C<sub>17</sub>H<sub>16</sub>O<sub>4</sub>",
        "Molecular Mass": "284.31",
        "Melting Point": "143-144 °C"
    }
}