{
    "cas_no": "107-88-0",
    "key_name": "1,3-Butanediol",
    "cn_name": "1,3-丁二醇;1,3-二羟基丁烷;",
    "alternate_name": "1,3-Butanediol;β-Butylene glycol;1,3-Butylene glycol;1,3-Dihydroxybutane;Methyltrimethylene glycol;1-Methyl-1,3-propanediol;Butylene glycol;3-Hydroxy-1-butanol;<span class=\"text-smallcaps\">DL</span>-1,3-Butanediol;(±)-Butane-1,3-diol;(<em>RS</em>)-1,3-Butanediol;NSC 402145;13BGK;Jeechem Bugl;Niax DP 1022;Haisugarcane BG;Celtol 1,3-BG;1,3-Butylene glycol P",
    "duplicated_cas_no": "18826-95-4;817176-75-3",
    "SMILES": "C(C(C)O)CO",
    "meta_data": {
        "InChI": "InChI=1S/C4H10O2/c1-4(6)2-3-5/h4-6H,2-3H2,1H3",
        "InChIKey": null,
        "Canonical SMILES": "OCCC(O)C",
        "Molecular Formula": "C<sub>4</sub>H<sub>10</sub>O<sub>2</sub>",
        "Molecular Mass": "90.12",
        "Boiling Point": "207.5 °C @ Press: 760 Torr",
        "Melting Point": "&lt;-50 °C",
        "Density": "1.0059 g/cm³ @ Temp: 20 °C"
    }
}