{
    "cas_no": "1508-75-4",
    "key_name": "Tropicamide",
    "cn_name": "托吡卡胺;托品酰胺;N-乙基-N-(4-吡啶甲基)-alpha-羟甲基-苯乙酰胺;",
    "alternate_name": "Benzeneacetamide, <em>N</em>-ethyl-α-(hydroxymethyl)-<em>N</em>-(4-pyridinylmethyl)-;Hydracrylamide, <em>N</em>-ethyl-2-phenyl-<em>N</em>-(4-pyridylmethyl)-;<em>N</em>-Ethyl-α-(hydroxymethyl)-<em>N</em>-(4-pyridinylmethyl)benzeneacetamide;<em>N</em>-Ethyl-2-phenyl-<em>N</em>-(4-pyridylmethyl)hydracrylamide;<em>N</em>-Ethyl-<em>N</em>-(γ-picolyl)tropamide;Tropic acid-<em>N</em>-ethyl-<em>N</em>-(γ-picolyl)amide;Bistropamide;Mydriacyl;Tropicamide;Epitromina;Mydriat;Mydrin;Mydrum;Ro 1-7683;Visumidriatic;(±)-Tropicamide;Mydrapid;Mydriaticum;Mydrin M;Mydrin P;Minims;Mydril;Mydramide;MeSH ID: D014331",
    "duplicated_cas_no": "57322-49-3",
    "SMILES": "C(C(N(CC=1C=CN=CC1)CC)=O)(CO)C2=CC=CC=C2",
    "meta_data": {
        "InChI": "InChI=1S/C17H20N2O2/c1-2-19(12-14-8-10-18-11-9-14)17(21)16(13-20)15-6-4-3-5-7-15/h3-11,16,20H,2,12-13H2,1H3",
        "InChIKey": null,
        "Canonical SMILES": "O=C(N(CC=1C=CN=CC1)CC)C(C=2C=CC=CC2)CO",
        "Molecular Formula": "C<sub>17</sub>H<sub>20</sub>N<sub>2</sub>O<sub>2</sub>",
        "Molecular Mass": "284.35",
        "Melting Point": "96.5 °C"
    }
}