{
    "cas_no": "137-08-6",
    "key_name": "Calcium pantothenate",
    "cn_name": "泛酸钙;",
    "alternate_name": "β-Alanine, <em>N</em>-[(2<em>R</em>)-2,4-dihydroxy-3,3-dimethyl-1-oxobutyl]-, calcium salt (2:1);Pantothenic acid, calcium salt (2:1), <span class=\"text-smallcaps\">D</span>-;β-Alanine, <em>N</em>-(2,4-dihydroxy-3,3-dimethyl-1-oxobutyl)-, calcium salt (2:1), (<em>R</em>)-;Calcium, bis(pantothenato)-;Calcium <span class=\"text-smallcaps\">D</span>-(+)-N-(α,γ-dihydroxy-β,β-dimethylbutyryl)-β-alaninate;Calpanate;Dextro calcium pantothenate;<em>N</em>-(2,4-Dihydroxy-3,3-dimethylbutyryl)-β-alanine calcium;Pancal;Panthoject;Pantholin;Pantothenate calcium;(+)-Pantothenic acid calcium salt;Calcium pantothenate;Pantothenic acid calcium salt;Vitamin B<sub>5</sub> calcium salt;Calcium <span class=\"text-smallcaps\">D</span>-pantothenate;Calcium <span class=\"text-smallcaps\">D</span>-(+)-pantothenate;Pantothenic acid hemicalcium salt;Calpan;NSC 36292;Panthothenic acid hemicalcium salt;<span class=\"text-smallcaps\">D</span>-Pantothenic acid hemicalcium salt",
    "duplicated_cas_no": "138932-10-2;533-61-9;7693-16-5",
    "SMILES": "[C@@H](C(CO)(C)C)(C(NCCC(O)=O)=O)O.[Ca]",
    "meta_data": {
        "InChI": "InChI=1S/C9H17NO5.Ca/c1-9(2,5-11)7(14)8(15)10-4-3-6(12)13;/h7,11,14H,3-5H2,1-2H3,(H,10,15)(H,12,13);/t7-;/m0./s1",
        "InChIKey": null,
        "Canonical SMILES": "[Ca].O=C(O)CCNC(=O)C(O)C(C)(C)CO",
        "Molecular Formula": "C<sub>9</sub>H<sub>17</sub>NO<sub>5</sub>.<sup>1</sup>/<sub>2</sub>Ca",
        "Molecular Mass": "",
        "Melting Point": "195-196 °C (decomp)"
    }
}