{
    "cas_no": "728-86-9",
    "key_name": "4′-Trifluoromethylbenzophenone",
    "cn_name": "4-(三氟甲基)二苯甲酮;4-（三氟甲基）苯甲酮;4-(三氟甲基)苯并苯基酮;4-(三氟甲基)苯并苯基酮, 98+%;",
    "alternate_name": "Methanone, phenyl[4-(trifluoromethyl)phenyl]-;Benzophenone, 4-(trifluoromethyl)-;Phenyl[4-(trifluoromethyl)phenyl]methanone;<em>p</em>-(Trifluoromethyl)benzophenone;(4-Trifluoromethylphenyl) phenyl ketone;4-(Trifluoromethyl)benzophenone;NSC 88328;4′-Trifluoromethylbenzophenone",
    "duplicated_cas_no": "",
    "SMILES": "C(=O)(C1=CC=C(C(F)(F)F)C=C1)C2=CC=CC=C2",
    "meta_data": {
        "InChI": "InChI=1S/C14H9F3O/c15-14(16,17)12-8-6-11(7-9-12)13(18)10-4-2-1-3-5-10/h1-9H",
        "InChIKey": null,
        "Canonical SMILES": "O=C(C=1C=CC=CC1)C2=CC=C(C=C2)C(F)(F)F",
        "Molecular Formula": "C<sub>14</sub>H<sub>9</sub>F<sub>3</sub>O",
        "Molecular Mass": "250.22",
        "Melting Point": "115 °C"
    }
}