{
    "cas_no": "1529-68-6",
    "key_name": "1,2,3,4-Tetrabromobutane",
    "cn_name": "1,2,3,4-四溴丁烷;",
    "alternate_name": "Butane, 1,2,3,4-tetrabromo-;1,2,3,4-Tetrabromobutane;Tetrabromobutane;Fire Guard 5000;NSC 505",
    "duplicated_cas_no": "",
    "SMILES": "C(C(CBr)Br)(CBr)Br",
    "meta_data": {
        "InChI": "InChI=1S/C4H6Br4/c5-1-3(7)4(8)2-6/h3-4H,1-2H2",
        "InChIKey": null,
        "Canonical SMILES": "BrCC(Br)C(Br)CBr",
        "Molecular Formula": "C<sub>4</sub>H<sub>6</sub>Br<sub>4</sub>",
        "Molecular Mass": "373.71",
        "Boiling Point": "118-123 °C @ Press: 10 Torr",
        "Melting Point": "118 °C"
    }
}