{
    "cas_no": "1961-72-4",
    "key_name": "(±)-3-Hydroxytetradecanoic acid",
    "cn_name": "(±)-3-羟基十四烷酸;",
    "alternate_name": "Tetradecanoic acid, 3-hydroxy-;3-Hydroxytetradecanoic acid;β-Hydroxymyristic acid;3-Hydroxymyristic acid;β-Hydroxytetradecanoic acid;(±)-3-Hydroxytetradecanoic acid;(<em>RS</em>)-3-Hydroxytetradecanoic acid;(3<em>RS</em>)-3-Hydroxytetradecanoic acid",
    "duplicated_cas_no": "3422-31-9;1111092-40-0",
    "SMILES": "C(CCCCCCCCCC)C(CC(O)=O)O",
    "meta_data": {
        "InChI": "InChI=1S/C14H28O3/c1-2-3-4-5-6-7-8-9-10-11-13(15)12-14(16)17/h13,15H,2-12H2,1H3,(H,16,17)",
        "InChIKey": null,
        "Canonical SMILES": "O=C(O)CC(O)CCCCCCCCCCC",
        "Molecular Formula": "C<sub>14</sub>H<sub>28</sub>O<sub>3</sub>",
        "Molecular Mass": "244.37",
        "Melting Point": "78-79 °C"
    }
}