{
    "cas_no": "976-56-7",
    "key_name": "Diethyl <em>P</em>-[[3,5-bis(1,1-dimethylethyl)-4-hydroxyphenyl]methyl]phosphonate",
    "cn_name": "抗氧剂1222;3,5-二叔丁基-4-羟基苄基二乙基膦酸酯;",
    "alternate_name": "Phosphonic acid, <em>P</em>-[[3,5-bis(1,1-dimethylethyl)-4-hydroxyphenyl]methyl]-, diethyl ester;Phosphonic acid, (3,5-di-<em>tert</em>-butyl-4-hydroxybenzyl)-, diethyl ester;Phosphonic acid, [[3,5-bis(1,1-dimethylethyl)-4-hydroxyphenyl]methyl]-, diethyl ester;Diethyl <em>P</em>-[[3,5-bis(1,1-dimethylethyl)-4-hydroxyphenyl]methyl]phosphonate;Diethyl (3,5-di-<em>tert</em>-butyl-4-hydroxybenzyl)phosphonate;Irganox 1222;NSC 635180;Diethyl (3,5-di-<em>tert</em>-butyl-4-hydroxyphenyl)methanephosphonate;Irgamod 295;Diethyl [[3,5-bis(1,1-dimethylethyl)-4-hydroxyphenyl]methyl]phosphonate;Heat Stabilizer 3114;Antioxidant 1222;(3,5-Di-<em>tert</em>-butyl-4-hydroxy-benzyl)-phosphonic acid diethyl ester;<em>P</em>-[3,5-Bis(1,1-dimethylethyl)-4-hydroxyphenyl]methylphosphonic acid diethyl ester;Antioxidant 122;JC 356",
    "duplicated_cas_no": "849238-84-2;1126715-83-0",
    "SMILES": "C(P(OCC)(OCC)=O)C1=CC(C(C)(C)C)=C(O)C(C(C)(C)C)=C1",
    "meta_data": {
        "InChI": "InChI=1S/C19H33O4P/c1-9-22-24(21,23-10-2)13-14-11-15(18(3,4)5)17(20)16(12-14)19(6,7)8/h11-12,20H,9-10,13H2,1-8H3",
        "InChIKey": null,
        "Canonical SMILES": "O=P(OCC)(OCC)CC=1C=C(C(O)=C(C1)C(C)(C)C)C(C)(C)C",
        "Molecular Formula": "C<sub>19</sub>H<sub>33</sub>O<sub>4</sub>P",
        "Molecular Mass": "356.44",
        "Melting Point": "112-114 °C"
    }
}