{
    "cas_no": "6622-55-5",
    "key_name": "<em>N</em>-Benzylanthranilic acid",
    "cn_name": "N-苄基氨茴酸;",
    "alternate_name": "Benzoic acid, 2-[(phenylmethyl)amino]-;Anthranilic acid, <em>N</em>-benzyl-;2-[(Phenylmethyl)amino]benzoic acid;<em>N</em>-Benzylanthranilic acid;<em>N</em>-Benzyl-<em>o</em>-aminobenzoic acid;2-(Phenylmethylamino)benzoic acid;2-(<em>N</em>-Benzylamino)benzoic acid;NSC 54454;NSC 54640;2-(Benzylamino)benzoic acid",
    "duplicated_cas_no": "",
    "SMILES": "N(CC1=CC=CC=C1)C2=C(C(O)=O)C=CC=C2",
    "meta_data": {
        "InChI": "InChI=1S/C14H13NO2/c16-14(17)12-8-4-5-9-13(12)15-10-11-6-2-1-3-7-11/h1-9,15H,10H2,(H,16,17)",
        "InChIKey": null,
        "Canonical SMILES": "O=C(O)C=1C=CC=CC1NCC=2C=CC=CC2",
        "Molecular Formula": "C<sub>14</sub>H<sub>13</sub>NO<sub>2</sub>",
        "Molecular Mass": "227.26",
        "Melting Point": "175 °C"
    }
}