{
    "cas_no": "52709-83-8",
    "key_name": "4′-Butyl-4-cyanobiphenyl",
    "cn_name": "4\"-正丁基-4-氰基联苯;对氰基丁基联苯;",
    "alternate_name": "[1,1′-Biphenyl]-4-carbonitrile, 4′-butyl-;4′-Butyl[1,1′-biphenyl]-4-carbonitrile;4′-Butyl-4-biphenylcarbonitrile;4′-<em>n</em>-Butyl-4-cyanobiphenyl;4′-Butyl-4-cyanobiphenyl;CB 4 (liquid crystal);4-Butyl-4′-cyanobiphenyl;4-Cyano-4′-<em>n</em>-butylbiphenyl;CB 4;4-Butyl-4′-cyano-1,1′-biphenyl;4CB;4-Cyano-4′-butylbiphenyl;4-Cyano-4′-butyl-1,1′-biphenyl",
    "duplicated_cas_no": "",
    "SMILES": "C(CCC)C1=CC=C(C=C1)C2=CC=C(C#N)C=C2",
    "meta_data": {
        "InChI": "InChI=1S/C17H17N/c1-2-3-4-14-5-9-16(10-6-14)17-11-7-15(13-18)8-12-17/h5-12H,2-4H2,1H3",
        "InChIKey": null,
        "Canonical SMILES": "N#CC=1C=CC(=CC1)C2=CC=C(C=C2)CCCC",
        "Molecular Formula": "C<sub>17</sub>H<sub>17</sub>N",
        "Molecular Mass": "235.32",
        "Boiling Point": "190-195 °C @ Press: 2 Torr"
    }
}