{
    "cas_no": "644-97-3",
    "key_name": "Dichlorophenylphosphine",
    "cn_name": "苯基二氯化磷;二氯化膦苯;苯基二氯膦;",
    "alternate_name": "Phosphonous dichloride, <em>P</em>-phenyl-;Phosphonous dichloride, phenyl-;<em>P</em>-Phenylphosphonous dichloride;Dichlorophenylphosphine;Phenyldichlorophosphine;Phenylphosphonous dichloride;Phenylphosphine dichloride;Phosphine, dichlorophenyl-;Phenyl phosphorus dichloride;Phenylphosphonous acid dichloride;Phenylphosphinous dichloride;NSC 66478",
    "duplicated_cas_no": "",
    "SMILES": "P(Cl)(Cl)C1=CC=CC=C1",
    "meta_data": {
        "InChI": "InChI=1S/C6H5Cl2P/c7-9(8)6-4-2-1-3-5-6/h1-5H",
        "InChIKey": null,
        "Canonical SMILES": "ClP(Cl)C=1C=CC=CC1",
        "Molecular Formula": "C<sub>6</sub>H<sub>5</sub>Cl<sub>2</sub>P",
        "Molecular Mass": "178.98",
        "Boiling Point": "99-101 °C @ Press: 11 Torr",
        "Melting Point": "-51 °C",
        "Density": "1.356 g/cm³ @ Temp: 20 °C"
    }
}