{
    "cas_no": "462-95-3",
    "key_name": "Diethoxymethane",
    "cn_name": "二乙氧基甲烷;甲醛缩二乙醇;亚甲二乙醚;甲醛酯;",
    "alternate_name": "Ethane, 1,1′-[methylenebis(oxy)]bis-;Methane, diethoxy-;1,1′-[Methylenebis(oxy)]bis[ethane];Diethoxymethane;Ethylal;Diethylformal;Formaldehyde diethyl acetal;Ethoxymethyl ethyl ether;1,1-Diethoxymethane;3,5-Dioxaheptane;NSC 6754;(Ethoxymethoxy)ethane",
    "duplicated_cas_no": "",
    "SMILES": "C(OCC)OCC",
    "meta_data": {
        "InChI": "InChI=1S/C5H12O2/c1-3-6-5-7-4-2/h3-5H2,1-2H3",
        "InChIKey": null,
        "Canonical SMILES": "O(COCC)CC",
        "Molecular Formula": "C<sub>5</sub>H<sub>12</sub>O<sub>2</sub>",
        "Molecular Mass": "104.15",
        "Boiling Point": "88 °C",
        "Melting Point": "-66.5 °C",
        "Density": "0.7879 g/cm³ @ Temp: 20.0 °C"
    }
}