{
    "cas_no": "676371-65-6",
    "key_name": "Bicyclo[1.1.1]pentane-1-carboxylic acid, 3-amino-, methyl ester, hydrochloride (1:1)",
    "cn_name": null,
    "alternate_name": "Bicyclo[1.1.1]pentane-1-carboxylic acid, 3-amino-, methyl ester, hydrochloride (1:1);Bicyclo[1.1.1]pentane-1-carboxylic acid, 3-amino-, methyl ester, hydrochloride;Methyl 3-aminobicyclo[1.1.1]pentane-1-carboxylate hydrochloride",
    "duplicated_cas_no": "",
    "SMILES": "C(OC)(=O)C12CC(N)(C1)C2.Cl",
    "meta_data": {
        "InChI": "InChI=1S/C7H11NO2.ClH/c1-10-5(9)6-2-7(8,3-6)4-6;/h2-4,8H2,1H3;1H",
        "InChIKey": null,
        "Canonical SMILES": "Cl.O=C(OC)C12CC(N)(C1)C2",
        "Molecular Formula": "C<sub>7</sub>H<sub>11</sub>NO<sub>2</sub>.ClH",
        "Molecular Mass": "",
        "Melting Point": "209 °C (decomp)"
    }
}