{
    "cas_no": "88-88-0",
    "key_name": "Picryl chloride",
    "cn_name": "1,2,4-三氮唑;",
    "alternate_name": "Benzene, 2-chloro-1,3,5-trinitro-;2-Chloro-1,3,5-trinitrobenzene;Picryl chloride;2,4,6-Trinitro-1-chlorobenzene;2,4,6-Trinitrochlorobenzene;1-Chloro-2,4,6-trinitrobenzene;NSC 106297;NSC 1872",
    "duplicated_cas_no": "",
    "SMILES": "N(=O)(=O)C1=C(Cl)C(N(=O)=O)=CC(N(=O)=O)=C1",
    "meta_data": {
        "InChI": "InChI=1S/C6H2ClN3O6/c7-6-4(9(13)14)1-3(8(11)12)2-5(6)10(15)16/h1-2H",
        "InChIKey": null,
        "Canonical SMILES": "O=N(=O)C=1C=C(C(Cl)=C(C1)N(=O)=O)N(=O)=O",
        "Molecular Formula": "C<sub>6</sub>H<sub>2</sub>ClN<sub>3</sub>O<sub>6</sub>",
        "Molecular Mass": "247.55",
        "Boiling Point": "375 °C",
        "Melting Point": "83 °C",
        "Density": "1.797 g/cm³ @ Temp: 20 °C"
    }
}