{
    "cas_no": "581-31-7",
    "key_name": "Suberosin",
    "cn_name": null,
    "alternate_name": "2<em>H</em>-1-Benzopyran-2-one, 7-methoxy-6-(3-methyl-2-buten-1-yl)-;Coumarin, 7-methoxy-6-(3-methyl-2-butenyl)-;Suberosin;2<em>H</em>-1-Benzopyran-2-one, 7-methoxy-6-(3-methyl-2-butenyl)-;7-Methoxy-6-(3-methyl-2-buten-1-yl)-2<em>H</em>-1-benzopyran-2-one;7-Methoxy-6-(3-methyl-2-butenyl)coumarin;NSC 31869",
    "duplicated_cas_no": "",
    "SMILES": "O(C)C=1C=C2C(=CC1CC=C(C)C)C=CC(=O)O2",
    "meta_data": {
        "InChI": "InChI=1S/C15H16O3/c1-10(2)4-5-11-8-12-6-7-15(16)18-14(12)9-13(11)17-3/h4,6-9H,5H2,1-3H3",
        "InChIKey": null,
        "Canonical SMILES": "O=C1OC=2C=C(OC)C(=CC2C=C1)CC=C(C)C",
        "Molecular Formula": "C<sub>15</sub>H<sub>16</sub>O<sub>3</sub>",
        "Molecular Mass": "244.29",
        "Boiling Point": "158-172 °C @ Press: 0.05 Torr",
        "Melting Point": "87.5 °C"
    }
}