{
    "cas_no": "89-25-8",
    "key_name": "Edaravone",
    "cn_name": "依达拉奉;3-甲基-1-苯基-2-吡唑啉-5-酮;",
    "alternate_name": "3<em>H</em>-Pyrazol-3-one, 2,4-dihydro-5-methyl-2-phenyl-;2-Pyrazolin-5-one, 3-methyl-1-phenyl-;2,4-Dihydro-5-methyl-2-phenyl-3<em>H</em>-pyrazol-3-one;C.I. Developer 1;Developer Z;1-Phenyl-3-methyl-2-pyrazolin-5-one;1-Phenyl-3-methyl-5-pyrazolone;Norphenazone;3-Methyl-1-phenylpyrazolin-5-one;3-Methyl-1-phenyl-2-pyrazoline-5-one;3-Methyl-1-phenyl-5-pyrazolone;1-Phenyl-3-methyl-5-pyrazolinone;3-Methyl-1-phenyl-2-pyrazolin-5-one;Norantipyrine;MCI 186;Edaravone;1-Phenyl-3-methyl-5-oxopyrazole;5-Methyl-2-phenylpyrazol-3-one;3-Methyl-1-phenylpyrazol-5(4<em>H</em>)-one;Radicut;3-Methyl-1-phenyl-4,5-dihydropyrazol-5-one;NSC 12;Methylphenylpyrazolone;NSC 26139;NCI-C 03952;NSC 2629;Edarabone;3-Methyl-1-phenyl-1<em>H</em>-pyrazol-5-one;3-Methyl-1-phenyl-4,5-dihydropyrazole-5-one;1-Phenyl-3-methyl-1<em>H</em>-4,5-dihydropyrazol-5-one;5-Methyl-2-phenyl-2<em>H</em>-pyrazol-3(4<em>H</em>)-one;3-Methyl-1-phenyl-1<em>H</em>-pyrazol-5(4<em>H</em>)-one;5-Methyl-2-phenyl-2,4-dihydro-3<em>H</em>-pyrazol-3-one;3-Methyl-1-phenyl-4,5-dihydro-1<em>H</em>-pyrazol-5-one;Phenylmethyl pyrazolone;Radicava;4,5-Dihydro-3-methyl-5-oxo-1-phenylpyrazole;Edvaradone;3-Methyl-1-phenylpyrazole-5-one;5-Methyl-2-phenyl-2,4-dihydropyrazol-3-one;Edaravon;Edavarone",
    "duplicated_cas_no": "115566-83-1;12235-58-4;52224-17-6;62495-97-0;72134-66-8;206195-95-1",
    "SMILES": "O=C1N(N=C(C)C1)C2=CC=CC=C2",
    "meta_data": {
        "InChI": "InChI=1S/C10H10N2O/c1-8-7-10(13)12(11-8)9-5-3-2-4-6-9/h2-6H,7H2,1H3",
        "InChIKey": null,
        "Canonical SMILES": "O=C1N(N=C(C)C1)C=2C=CC=CC2",
        "Molecular Formula": "C<sub>10</sub>H<sub>10</sub>N<sub>2</sub>O",
        "Molecular Mass": "174.20",
        "Boiling Point": "287 °C @ Press: 105 Torr",
        "Melting Point": "127 °C"
    }
}