{
    "cas_no": "5117-16-8",
    "key_name": "<em>N</em>,<em>N</em>-Dimethylselenourea",
    "cn_name": "1,1-二甲基-2-硒脲;1,1-二甲基-2-硒脲;1,1-二甲基硒脲;二甲基硒脲;",
    "alternate_name": "Selenourea, <em>N</em>,<em>N</em>-dimethyl-;Urea, 1,1-dimethyl-2-seleno-;<em>N</em>,<em>N</em>-Dimethylselenourea;1,1-Dimethyl-2-selenourea;1,1-Dimethylselenourea;NSC 174190",
    "duplicated_cas_no": "",
    "SMILES": "C(N(C)C)(N)=[Se]",
    "meta_data": {
        "InChI": "InChI=1S/C3H8N2Se/c1-5(2)3(4)6/h1-2H3,(H2,4,6)",
        "InChIKey": null,
        "Canonical SMILES": "[Se]=C(N)N(C)C",
        "Molecular Formula": "C<sub>3</sub>H<sub>8</sub>N<sub>2</sub>Se",
        "Molecular Mass": "151.07",
        "Melting Point": "100-101 °C"
    }
}