{
    "cas_no": "2445-72-9",
    "key_name": "Amyl isobutyrate",
    "cn_name": "异丁酸戊酯;",
    "alternate_name": "Propanoic acid, 2-methyl-, pentyl ester;Isobutyric acid, pentyl ester;Amyl isobutyrate;Pentyl isobutyrate;Pentyl 2-methylpropionate;2-Methylpropionic acid pentyl ester;Pentyl 2-methylpropanoate;<em>n</em>-Pentyl 2-methylpropanoate;Pentyl isobutanoate",
    "duplicated_cas_no": "",
    "SMILES": "C(OCCCCC)(C(C)C)=O",
    "meta_data": {
        "InChI": "InChI=1S/C9H18O2/c1-4-5-6-7-11-9(10)8(2)3/h8H,4-7H2,1-3H3",
        "InChIKey": null,
        "Canonical SMILES": "O=C(OCCCCC)C(C)C",
        "Molecular Formula": "C<sub>9</sub>H<sub>18</sub>O<sub>2</sub>",
        "Molecular Mass": "158.24",
        "Boiling Point": "108-113 °C @ Press: 11 Torr"
    }
}