{
    "cas_no": "4325-85-3",
    "key_name": "Tris(trimethylsilyl) borate",
    "cn_name": "硼酸三(三甲硅烷基)酯;三(三甲基硅基)硼酸酯;",
    "alternate_name": "Silanol, 1,1,1-trimethyl-, 1,1′,1′′-triester with boric acid (H<sub>3</sub>BO<sub>3</sub>);Silanol, trimethyl-, triester with boric acid (H<sub>3</sub>BO<sub>3</sub>);Silanol, trimethyl-, borate;Borane, tris(trimethylsiloxy)-;Tris(trimethylsilyl) borate;Tris(trimethylsiloxy)boron;TMSB",
    "duplicated_cas_no": "",
    "SMILES": "O(B(O[Si](C)(C)C)O[Si](C)(C)C)[Si](C)(C)C",
    "meta_data": {
        "InChI": "InChI=1S/C9H27BO3Si3/c1-14(2,3)11-10(12-15(4,5)6)13-16(7,8)9/h1-9H3",
        "InChIKey": null,
        "Canonical SMILES": "O(B(O[Si](C)(C)C)O[Si](C)(C)C)[Si](C)(C)C",
        "Molecular Formula": "C<sub>9</sub>H<sub>27</sub>BO<sub>3</sub>Si<sub>3</sub>",
        "Molecular Mass": "278.38",
        "Boiling Point": "184 °C",
        "Melting Point": "-35 °C",
        "Density": "0.825 g/cm³"
    }
}