{
    "cas_no": "101219-73-2",
    "key_name": "(-)-1-(4-Fluorophenyl)ethanol",
    "cn_name": null,
    "alternate_name": "Benzenemethanol, 4-fluoro-α-methyl-, (α<em>S</em>)-;Benzenemethanol, 4-fluoro-α-methyl-, (<em>S</em>)-;(α<em>S</em>)-4-Fluoro-α-methylbenzenemethanol;(<em>S</em>)-1-(4-Fluorophenyl)ethanol;<em>S</em>-4-Fluoro-α-methylbenzyl alcohol;(-)-1-(4-Fluorophenyl)ethanol;(-)-1-(<em>p</em>-Fluorophenyl)ethanol;(<em>S</em>)-1-(4-Fluorophenyl)-1-ethanol;(1S)-1-(4-Fluorophenyl)ethan-1-ol",
    "duplicated_cas_no": "",
    "SMILES": "[C@@H](C)(O)C1=CC=C(F)C=C1",
    "meta_data": {
        "InChI": "InChI=1S/C8H9FO/c1-6(10)7-2-4-8(9)5-3-7/h2-6,10H,1H3/t6-/m0/s1",
        "InChIKey": null,
        "Canonical SMILES": "FC1=CC=C(C=C1)C(O)C",
        "Molecular Formula": "C<sub>8</sub>H<sub>9</sub>FO",
        "Molecular Mass": "140.15",
        "Boiling Point": "77 °C @ Press: 0.33 mbar"
    }
}