{
    "cas_no": "4231-68-9",
    "key_name": "1-Phenyl-3-hydroxy-1,2,4-triazole",
    "cn_name": "1-苯基-3-羟基-1,2,4-三唑;苯唑醇;",
    "alternate_name": "3<em>H</em>-1,2,4-Triazol-3-one, 1,2-dihydro-1-phenyl-;Δ<sup>3</sup>-1,2,4-Triazolin-5-one, 2-phenyl-;1<em>H</em>-1,2,4-Triazol-3-ol, 1-phenyl-;1,2-Dihydro-1-phenyl-3<em>H</em>-1,2,4-triazol-3-one;1-Phenyl-3-hydroxy-1,2,4-triazole;1-Phenyl-1,2,4-triazol-3-ol;1-Phenyl-1,2,4-triazole-3-ol;3-Hydroxy-1-phenyl-1,2,4-triazole;3-Hydroxy-1-phenyl-1<em>H</em>-1,2,4-triazole;1-Phenyl-1<em>H</em>-1,2,4-triazol-3-ol;2-Phenyl-1<em>H</em>-1,2,4-triazol-5-one;3-Hydroxy-1-phenyl-1,2,4-1<em>H</em>-triazole",
    "duplicated_cas_no": "32118-20-0",
    "SMILES": "O=C1NN(C=N1)C2=CC=CC=C2",
    "meta_data": {
        "InChI": "InChI=1S/C8H7N3O/c12-8-9-6-11(10-8)7-4-2-1-3-5-7/h1-6H,(H,10,12)",
        "InChIKey": null,
        "Canonical SMILES": "O=C1N=CN(N1)C=2C=CC=CC2",
        "Molecular Formula": "C<sub>8</sub>H<sub>7</sub>N<sub>3</sub>O",
        "Molecular Mass": "161.16",
        "Melting Point": "281-282 °C"
    }
}