{
    "cas_no": "103-43-5",
    "key_name": "Dibenzyl succinate",
    "cn_name": null,
    "alternate_name": "Butanedioic acid, 1,4-bis(phenylmethyl) ester;Succinic acid, dibenzyl ester;Butanedioic acid, bis(phenylmethyl) ester;Dibenzyl succinate;Spasmine;Benzyl succinate;NSC 4047",
    "duplicated_cas_no": "",
    "SMILES": "C(OC(CCC(OCC1=CC=CC=C1)=O)=O)C2=CC=CC=C2",
    "meta_data": {
        "InChI": "InChI=1S/C18H18O4/c19-17(21-13-15-7-3-1-4-8-15)11-12-18(20)22-14-16-9-5-2-6-10-16/h1-10H,11-14H2",
        "InChIKey": null,
        "Canonical SMILES": "O=C(OCC=1C=CC=CC1)CCC(=O)OCC=2C=CC=CC2",
        "Molecular Formula": "C<sub>18</sub>H<sub>18</sub>O<sub>4</sub>",
        "Molecular Mass": "298.33",
        "Boiling Point": "160 °C @ Press: 0.05 Torr",
        "Melting Point": "49.5 °C"
    }
}