{
    "cas_no": "57-62-5",
    "key_name": "Chlortetracycline",
    "cn_name": "金霉素;6-甲基-4-(二甲氨基)-3,6,10,12,12a-五羟基-1,11-二氧代-7-氯-1,4,4a,5,5a,6,11,12a-八氢-2-并四苯;",
    "alternate_name": "2-Naphthacenecarboxamide, 7-chloro-4-(dimethylamino)-1,4,4a,5,5a,6,11,12a-octahydro-3,6,10,12,12a-pentahydroxy-6-methyl-1,11-dioxo-, (4<em>S</em>,4a<em>S</em>,5a<em>S</em>,6<em>S</em>,12a<em>S</em>)-;2-Naphthacenecarboxamide, 7-chloro-4-(dimethylamino)-1,4,4a,5,5a,6,11,12a-octahydro-3,6,10,12,12a-pentahydroxy-6-methyl-1,11-dioxo-;2-Naphthacenecarboxamide, 7-chloro-4-(dimethylamino)-1,4,4a,5,5a,6,11,12a-octahydro-3,6,10,12,12a-pentahydroxy-6-methyl-1,11-dioxo-, [4<em>S</em>-(4α,4aα,5aα,6β,12aα)]-;(4<em>S</em>,4a<em>S</em>,5a<em>S</em>,6<em>S</em>,12a<em>S</em>)-7-Chloro-4-(dimethylamino)-1,4,4a,5,5a,6,11,12a-octahydro-3,6,10,12,12a-pentahydroxy-6-methyl-1,11-dioxo-2-naphthacenecarboxamide;Acronize;Acronize PD;Aureocina;Aureomykoin;Biomycin;7-Chlorotetracycline;Chlortetracycline;7-Chlortetracycline;Chrysomykine;CTC;Duomycin;Flamycin;Aureomycin;Chlortetracyclin;Aurofac 10;Biomycin a;Aurofac;Aureociclin;Aureocarmyl;Aureomicina;Tri-chlortetracycline;Uromycin;CTC (antibiotic);Chrusomykine;Orospray;Centraureo;Aureomycin 100G;Chlorocyclinum;A-Mycin;Chloratet 50;7-Chloro-4-(dimethylamino)-3,6,10,12,12a-pentahydroxy-6-methyl-1,11-dioxo-1,4,4a,5,5a,6,11,12a-octahydro-2-naphthacenecarboxamide;7-Chloro-4-(dimethylamino)-3,6,10,12,12a-pentahydroxy-6-methyl-1,11-dioxo-1,4,4a,5,5a,6,11,12a-octahydrotetracene-2-carboxamide;4-(Dimethylamino)-7-chloro-3,6,10,12,12a-pentahydroxy-6-methyl-1,11-dioxo-4,5,6,12a,4a,5a-hexahydronaphthacene-2-carboxamide;7-Chloro-4-dimethylamino-3,6,10,12,12a-pentahydroxy-6-methyl-1,11-dioxo-4,4a,5,5a-tetrahydrotetracene-2-carboxamide;JinMeiSu;MeSH ID: D002751",
    "duplicated_cas_no": "96066-24-9;96968-60-4;98271-27-3;103651-17-8;856305-72-1;879633-99-5;1236363-43-1",
    "SMILES": "O[C@]12[C@]([C@H](N(C)C)C(O)=C(C(N)=O)C1=O)(C[C@]3(C(=C2O)C(=O)C=4C([C@@]3(C)O)=C(Cl)C=CC4O)[H])[H]",
    "meta_data": {
        "InChI": "InChI=1S/C22H23ClN2O8/c1-21(32)7-6-8-15(25(2)3)17(28)13(20(24)31)19(30)22(8,33)18(29)11(7)16(27)12-10(26)5-4-9(23)14(12)21/h4-5,7-8,15,26,28-29,32-33H,6H2,1-3H3,(H2,24,31)/t7-,8-,15-,21-,22-/m0/s1",
        "InChIKey": null,
        "Canonical SMILES": "O=C(N)C=1C(=O)C2(O)C(O)=C3C(=O)C=4C(O)=CC=C(Cl)C4C(O)(C)C3CC2C(C1O)N(C)C",
        "Molecular Formula": "C<sub>22</sub>H<sub>23</sub>ClN<sub>2</sub>O<sub>8</sub>",
        "Molecular Mass": "478.88",
        "Melting Point": "168.5 °C",
        "Density": "1.52 g/cm³"
    }
}