{
    "cas_no": "98-95-3",
    "key_name": "Nitrobenzene",
    "cn_name": "硝基苯;",
    "alternate_name": "Benzene, nitro-;Nitrobenzene;Essence of Mirbane;Essence of Myrbane;Mirbane oil;Nitrobenzol;Oil of Mirbane;Oil of Myrbane;NSC 9573;1-Nitrobenzene",
    "duplicated_cas_no": "",
    "SMILES": "N(=O)(=O)C1=CC=CC=C1",
    "meta_data": {
        "InChI": "InChI=1S/C6H5NO2/c8-7(9)6-4-2-1-3-5-6/h1-5H",
        "InChIKey": null,
        "Canonical SMILES": "O=N(=O)C=1C=CC=CC1",
        "Molecular Formula": "C<sub>6</sub>H<sub>5</sub>NO<sub>2</sub>",
        "Molecular Mass": "123.11",
        "Boiling Point": "210.8 °C",
        "Melting Point": "5.7 °C",
        "Density": "1.2037 g/cm³ @ Temp: 20 °C"
    }
}