{
    "cas_no": "37988-38-8",
    "key_name": "α,α-Dimethyl-2-pyridinemethanol",
    "cn_name": null,
    "alternate_name": "2-Pyridinemethanol, α,α-dimethyl-;α,α-Dimethyl-2-pyridinemethanol;2-Pyridyldimethylcarbinol;2-(1-Hydroxy-1-methylethyl)pyridine;2-(2-Pyridyl)-2-propanol;2-(2-Pyridinyl)-2-propanol;α,α-Dimethyl-2-pyridylmethanol;Dimethyl(2-pyridyl)methanol",
    "duplicated_cas_no": "",
    "SMILES": "C(C)(C)(O)C1=CC=CC=N1",
    "meta_data": {
        "InChI": "InChI=1S/C8H11NO/c1-8(2,10)7-5-3-4-6-9-7/h3-6,10H,1-2H3",
        "InChIKey": null,
        "Canonical SMILES": "OC(C1=NC=CC=C1)(C)C",
        "Molecular Formula": "C<sub>8</sub>H<sub>11</sub>NO",
        "Molecular Mass": "137.18",
        "Boiling Point": "203-205 °C",
        "Melting Point": "49-50 °C"
    }
}