{
    "cas_no": "62366-53-4",
    "key_name": "Methyl 1-methyl-1<em>H</em>-imidazole-2-carboxylate",
    "cn_name": null,
    "alternate_name": "1<em>H</em>-Imidazole-2-carboxylic acid, 1-methyl-, methyl ester;Imidazole-2-carboxylic acid, 1-methyl-, methyl ester;Methyl 1-methyl-1<em>H</em>-imidazole-2-carboxylate;Methyl 1-methylimidazole-2-carboxylate;1-Methyl-1<em>H</em>-imidazole-2-carboxylic acid methyl ester",
    "duplicated_cas_no": "",
    "SMILES": "C(OC)(=O)C=1N(C)C=CN1",
    "meta_data": {
        "InChI": "InChI=1S/C6H8N2O2/c1-8-4-3-7-5(8)6(9)10-2/h3-4H,1-2H3",
        "InChIKey": null,
        "Canonical SMILES": "O=C(OC)C1=NC=CN1C",
        "Molecular Formula": "C<sub>6</sub>H<sub>8</sub>N<sub>2</sub>O<sub>2</sub>",
        "Molecular Mass": "140.14",
        "Boiling Point": "80 °C @ Press: 0.1 Torr"
    }
}