{
    "cas_no": "31575-35-6",
    "key_name": "2-Fluoropyrimidine",
    "cn_name": null,
    "alternate_name": "Pyrimidine, 2-fluoro-;2-Fluoropyrimidine",
    "duplicated_cas_no": "",
    "SMILES": "FC=1N=CC=CN1",
    "meta_data": {
        "InChI": "InChI=1S/C4H3FN2/c5-4-6-2-1-3-7-4/h1-3H",
        "InChIKey": null,
        "Canonical SMILES": "FC1=NC=CC=N1",
        "Molecular Formula": "C<sub>4</sub>H<sub>3</sub>FN<sub>2</sub>",
        "Molecular Mass": "98.08",
        "Melting Point": "17-18 °C"
    }
}