{
    "cas_no": "81-84-5",
    "key_name": "Naphthalic anhydride",
    "cn_name": "1,8-萘二甲酸酐;1,8-萘酐;",
    "alternate_name": "1<em>H</em>,3<em>H</em>-Naphtho[1,8-<em>cd</em>]pyran-1,3-dione;Naphthalic anhydride;1,8-Naphthalic anhydride;Protect (agrochemical);1,8-Naphthalenedicarboxylic acid anhydride;1,8-Naphthalic acid anhydride;1,8-Naphthalenedicarboxylic anhydride;Protect;1,8-Naphthoic anhydride;NSC 5747;1,8-Naphthanoic anhydride;Naphthalene-2,6-dicarboxylic acid anhydride",
    "duplicated_cas_no": "",
    "SMILES": "O=C1C=2C=3C(C(=O)O1)=CC=CC3C=CC2",
    "meta_data": {
        "InChI": "InChI=1S/C12H6O3/c13-11-8-5-1-3-7-4-2-6-9(10(7)8)12(14)15-11/h1-6H",
        "InChIKey": null,
        "Canonical SMILES": "O=C1OC(=O)C2=CC=CC3=CC=CC1=C32",
        "Molecular Formula": "C<sub>12</sub>H<sub>6</sub>O<sub>3</sub>",
        "Molecular Mass": "198.17",
        "Melting Point": "270 °C"
    }
}