{
    "cas_no": "20248-08-2",
    "key_name": "δ-Amyrone",
    "cn_name": null,
    "alternate_name": "Olean-13(18)-en-3-one;3-Oxo-Δ<sup>13(18)</sup>-oleanene;δ-Amyrenone;δ-Amyrone",
    "duplicated_cas_no": "276252-69-8",
    "SMILES": "C[C@]12[C@@]3(C)C(=C4[C@@](C)(CC3)CCC(C)(C)C4)CC[C@@]1([C@]5(C)[C@@](CC2)(C(C)(C)C(=O)CC5)[H])[H]",
    "meta_data": {
        "InChI": "InChI=1S/C30H48O/c1-25(2)15-16-27(5)17-18-29(7)20(21(27)19-25)9-10-23-28(6)13-12-24(31)26(3,4)22(28)11-14-30(23,29)8/h22-23H,9-19H2,1-8H3/t22-,23+,27+,28-,29+,30+/m0/s1",
        "InChIKey": null,
        "Canonical SMILES": "O=C1CCC2(C)C(CCC3(C)C2CCC4=C5CC(C)(C)CCC5(C)CCC43C)C1(C)C",
        "Molecular Formula": "C<sub>30</sub>H<sub>48</sub>O",
        "Molecular Mass": "424.70",
        "Melting Point": "198-201 °C"
    }
}