{
    "cas_no": "637-78-5",
    "key_name": "Isopropyl propionate",
    "cn_name": "丙酸异丙酯;异丙基丙酸酯;丙酸甲基乙酯;",
    "alternate_name": "Propanoic acid, 1-methylethyl ester;Propionic acid, isopropyl ester;Isopropyl propionate;<em>iso</em>-Propyl propionate;1-Methylethyl propanoate;2-Propyl propionate;2-Propyl propanoate",
    "duplicated_cas_no": "",
    "SMILES": "C(OC(C)C)(CC)=O",
    "meta_data": {
        "InChI": "InChI=1S/C6H12O2/c1-4-6(7)8-5(2)3/h5H,4H2,1-3H3",
        "InChIKey": null,
        "Canonical SMILES": "O=C(OC(C)C)CC",
        "Molecular Formula": "C<sub>6</sub>H<sub>12</sub>O<sub>2</sub>",
        "Molecular Mass": "116.16",
        "Boiling Point": "109.5 °C"
    }
}