{
    "cas_no": "66604-31-7",
    "key_name": "Dodecyldimethylchlorosilane",
    "cn_name": null,
    "alternate_name": "Silane, chlorododecyldimethyl-;Chlorododecyldimethylsilane;Dimethyl(dodecyl)chlorosilane;<em>n</em>-Dodecyldimethylchlorosilane;Dodecyldimethylchlorosilane;Dimethyl-<em>n</em>-dodecylchlorosilane;Chlorodimethyldodecylsilane;Dimethyldodecylsilyl chloride;Dodecyldimethylsilyl chloride;1-Dodecyldimethylchlorosilane",
    "duplicated_cas_no": "",
    "SMILES": "C(CCCCCCCCC)CC[Si](C)(C)Cl",
    "meta_data": {
        "InChI": "InChI=1S/C14H31ClSi/c1-4-5-6-7-8-9-10-11-12-13-14-16(2,3)15/h4-14H2,1-3H3",
        "InChIKey": null,
        "Canonical SMILES": "Cl[Si](C)(C)CCCCCCCCCCCC",
        "Molecular Formula": "C<sub>14</sub>H<sub>31</sub>ClSi",
        "Molecular Mass": "262.93",
        "Boiling Point": "291-293 °C",
        "Density": "0.865 g/cm³"
    }
}