{
    "cas_no": "87905-98-4",
    "key_name": "Phenylmethyl <em>N</em>-(5-hydroxypentyl)carbamate",
    "cn_name": "5-(Z-氨基)-1-戊醇;",
    "alternate_name": "Carbamic acid, <em>N</em>-(5-hydroxypentyl)-, phenylmethyl ester;Carbamic acid, (5-hydroxypentyl)-, phenylmethyl ester;Phenylmethyl <em>N</em>-(5-hydroxypentyl)carbamate;<em>N</em>-Benzyloxycarbonyl-5-aminopentanol;5-[(Benzyloxycarbonyl)amino]-1-pentanol;Benzyl (5-hydroxypentyl)carbamate",
    "duplicated_cas_no": "",
    "SMILES": "C(OC(NCCCCCO)=O)C1=CC=CC=C1",
    "meta_data": {
        "InChI": "InChI=1S/C13H19NO3/c15-10-6-2-5-9-14-13(16)17-11-12-7-3-1-4-8-12/h1,3-4,7-8,15H,2,5-6,9-11H2,(H,14,16)",
        "InChIKey": null,
        "Canonical SMILES": "O=C(OCC=1C=CC=CC1)NCCCCCO",
        "Molecular Formula": "C<sub>13</sub>H<sub>19</sub>NO<sub>3</sub>",
        "Molecular Mass": "237.29",
        "Melting Point": "42 °C"
    }
}