{
    "cas_no": "57-56-7",
    "key_name": "Semicarbazide",
    "cn_name": "氨基脲;氨基甲酰肼;",
    "alternate_name": "Hydrazinecarboxamide;Isosemicarbazide;Carbamic acid, hydrazide;Carbazamide;Urea, amino-;Hydrazine, (aminocarbonyl)-;Carbazimidic acid;Semicarbazide;Carbamylhydrazine;Aminourea",
    "duplicated_cas_no": "",
    "SMILES": "C(NN)(N)=O",
    "meta_data": {
        "InChI": "InChI=1S/CH5N3O/c2-1(5)4-3/h3H2,(H3,2,4,5)",
        "InChIKey": null,
        "Canonical SMILES": "O=C(N)NN",
        "Molecular Formula": "CH<sub>5</sub>N<sub>3</sub>O",
        "Molecular Mass": "75.07",
        "Melting Point": "243 °C"
    }
}