{
    "cas_no": "33284-53-6",
    "key_name": "2,3,4,5-Tetrachlorobiphenyl",
    "cn_name": null,
    "alternate_name": "1,1′-Biphenyl, 2,3,4,5-tetrachloro-;Biphenyl, 2,3,4,5-tetrachloro-;2,3,4,5-Tetrachloro-1,1′-biphenyl;2,3,4,5-Tetrachlorobiphenyl;PCB 61",
    "duplicated_cas_no": "",
    "SMILES": "ClC1=C(C=C(Cl)C(Cl)=C1Cl)C2=CC=CC=C2",
    "meta_data": {
        "InChI": "InChI=1S/C12H6Cl4/c13-9-6-8(7-4-2-1-3-5-7)10(14)12(16)11(9)15/h1-6H",
        "InChIKey": null,
        "Canonical SMILES": "ClC1=CC(=C(Cl)C(Cl)=C1Cl)C=2C=CC=CC2",
        "Molecular Formula": "C<sub>12</sub>H<sub>6</sub>Cl<sub>4</sub>",
        "Molecular Mass": "291.99",
        "Melting Point": "89-90 °C"
    }
}