{
    "cas_no": "38609-97-1",
    "key_name": "<em>N</em>-(Carboxymethyl)acridone",
    "cn_name": "吖啶酮乙酸;N-乙酸吖啶酮;",
    "alternate_name": "10(9<em>H</em>)-Acridineacetic acid, 9-oxo-;9-Oxo-10(9<em>H</em>)-acridineacetic acid;<em>N</em>-(Carboxymethyl)acridone;10-(Carboxymethyl)-9-acridinone;9-Oxo-10-acridineacetic acid;L 1;<em>N</em>-(Carboxymethyl)-9-acridone;Acridone-<em>N</em>-acetic acid;Cridanimod;10-CMA;2-(9-Oxo-9,10-dihydroacridin-10-yl)acetic acid;2-(9-Oxoacridin-10-yl)acetic acid;CMA (pharmaceutical)",
    "duplicated_cas_no": "",
    "SMILES": "C(C(O)=O)N1C=2C(C(=O)C=3C1=CC=CC3)=CC=CC2",
    "meta_data": {
        "InChI": "InChI=1S/C15H11NO3/c17-14(18)9-16-12-7-3-1-5-10(12)15(19)11-6-2-4-8-13(11)16/h1-8H,9H2,(H,17,18)",
        "InChIKey": null,
        "Canonical SMILES": "O=C(O)CN1C=2C=CC=CC2C(=O)C=3C=CC=CC31",
        "Molecular Formula": "C<sub>15</sub>H<sub>11</sub>NO<sub>3</sub>",
        "Molecular Mass": "253.25",
        "Melting Point": "280 °C"
    }
}