{
    "cas_no": "1570-65-6",
    "key_name": "2,4-Dichloro-6-methylphenol",
    "cn_name": null,
    "alternate_name": "Phenol, 2,4-dichloro-6-methyl-;<em>o</em>-Cresol, 4,6-dichloro-;2,4-Dichloro-6-methylphenol;4,6-Dichloro-2-methylphenol;4,6-Dichloro-<em>o</em>-cresol;2-Methyl-4,6-dichlorophenol;NSC 21469",
    "duplicated_cas_no": "",
    "SMILES": "OC1=C(C)C=C(Cl)C=C1Cl",
    "meta_data": {
        "InChI": "InChI=1S/C7H6Cl2O/c1-4-2-5(8)3-6(9)7(4)10/h2-3,10H,1H3",
        "InChIKey": null,
        "Canonical SMILES": "ClC=1C=C(Cl)C(O)=C(C1)C",
        "Molecular Formula": "C<sub>7</sub>H<sub>6</sub>Cl<sub>2</sub>O",
        "Molecular Mass": "177.03",
        "Boiling Point": "131 °C @ Press: 28 Torr",
        "Melting Point": "53-54 °C"
    }
}