{
    "cas_no": "125328-80-5",
    "key_name": "<em>N</em>-(4-Bromo-3-chloro-2-methylphenyl)acetamide",
    "cn_name": null,
    "alternate_name": "Acetamide, <em>N</em>-(4-bromo-3-chloro-2-methylphenyl)-;<em>N</em>-(4-Bromo-3-chloro-2-methylphenyl)acetamide",
    "duplicated_cas_no": "",
    "SMILES": "N(C(C)=O)C1=C(C)C(Cl)=C(Br)C=C1",
    "meta_data": {
        "InChI": "InChI=1S/C9H9BrClNO/c1-5-8(12-6(2)13)4-3-7(10)9(5)11/h3-4H,1-2H3,(H,12,13)",
        "InChIKey": null,
        "Canonical SMILES": "O=C(NC1=CC=C(Br)C(Cl)=C1C)C",
        "Molecular Formula": "C<sub>9</sub>H<sub>9</sub>BrClNO",
        "Molecular Mass": "262.53",
        "Melting Point": "157 °C"
    }
}