{
    "cas_no": "18138-03-9",
    "key_name": "Propylpyrazine",
    "cn_name": "2-丙基吡嗪;",
    "alternate_name": "Pyrazine, 2-propyl-;Pyrazine, propyl-;2-Propylpyrazine;Propylpyrazine",
    "duplicated_cas_no": "",
    "SMILES": "C(CC)C=1C=NC=CN1",
    "meta_data": {
        "InChI": "InChI=1S/C7H10N2/c1-2-3-7-6-8-4-5-9-7/h4-6H,2-3H2,1H3",
        "InChIKey": null,
        "Canonical SMILES": "N=1C=CN=C(C1)CCC",
        "Molecular Formula": "C<sub>7</sub>H<sub>10</sub>N<sub>2</sub>",
        "Molecular Mass": "122.17",
        "Boiling Point": "89-93 °C @ Press: 760 Torr"
    }
}