{
    "cas_no": "67-81-2",
    "key_name": "(17β)-3-(Cyclopentyloxy)-17-methylandrosta-3,5-dien-17-ol",
    "cn_name": "D-泛酸钠;",
    "alternate_name": "Androsta-3,5-dien-17-ol, 3-(cyclopentyloxy)-17-methyl-, (17β)-;Androsta-3,5-dien-17β-ol, 3-(cyclopentyloxy)-17-methyl-;(17β)-3-(Cyclopentyloxy)-17-methylandrosta-3,5-dien-17-ol;3-(Cyclopentyloxy)-17-methyl-androsta-3,5-dien-17β-ol;17α-Methyltestosterone 3-cyclopentyl enol ether;Penmestrol;Pandrocine;RP 12222",
    "duplicated_cas_no": "",
    "SMILES": "C[C@@]12[C@]([C@]3([C@](CC1)([C@]4(C)C(=CC3)C=C(OC5CCCC5)CC4)[H])[H])(CC[C@]2(C)O)[H]",
    "meta_data": {
        "InChI": "InChI=1S/C25H38O2/c1-23-13-10-19(27-18-6-4-5-7-18)16-17(23)8-9-20-21(23)11-14-24(2)22(20)12-15-25(24,3)26/h8,16,18,20-22,26H,4-7,9-15H2,1-3H3/t20-,21+,22+,23+,24+,25+/m1/s1",
        "InChIKey": null,
        "Canonical SMILES": "OC1(C)CCC2C3CC=C4C=C(OC5CCCC5)CCC4(C)C3CCC21C",
        "Molecular Formula": "C<sub>25</sub>H<sub>38</sub>O<sub>2</sub>",
        "Molecular Mass": "370.57",
        "Melting Point": "150 °C"
    }
}