{
    "cas_no": "5680-86-4",
    "key_name": "5-(Phenylmethyl) hydrogen <em>N</em>-[(phenylmethoxy)carbonyl]-<span class=\"text-smallcaps\">L</span>-glutamate",
    "cn_name": "N-苄氧羰基-L-谷氨酸5-苄酯;N-苄氧羰基-L-谷氨酸gamma-苄酯;",
    "alternate_name": "<span class=\"text-smallcaps\">L</span>-Glutamic acid, <em>N</em>-[(phenylmethoxy)carbonyl]-, 5-(phenylmethyl) ester;Glutamic acid, <em>N</em>-carboxy-, <em>N</em>,5-dibenzyl ester, <span class=\"text-smallcaps\">L</span>-;5-(Phenylmethyl) hydrogen <em>N</em>-[(phenylmethoxy)carbonyl]-<span class=\"text-smallcaps\">L</span>-glutamate;<em>N</em>-Carbobenzoxy-<span class=\"text-smallcaps\">L</span>-glutamic acid 5-benzyl ester;γ-Benzyl <em>N</em>-(benzyloxycarbonyl)-<span class=\"text-smallcaps\">L</span>-glutamate;Carbobenzoxy-<span class=\"text-smallcaps\">L</span>-glutamic acid γ-benzyl ester;<em>N</em>-Carbobenzyloxy-<span class=\"text-smallcaps\">L</span>-glutamic acid γ-benzyl ester;<em>N</em>-(Benzyloxycarbonyl)-<span class=\"text-smallcaps\">L</span>-glutamic acid γ-benzyl ester;<em>N</em>-Carbobenzoxy-<span class=\"text-smallcaps\">L</span>-glutamic acid γ-benzyl ester;NSC 169178;(2S)-5-Oxo-5-phenylmethoxy-2-(phenylmethoxycarbonylamino)pentanoic acid",
    "duplicated_cas_no": "137889-03-3;62600-77-5;75901-18-7;212714-81-3",
    "SMILES": "C(OC(N[C@@H](CCC(OCC1=CC=CC=C1)=O)C(O)=O)=O)C2=CC=CC=C2",
    "meta_data": {
        "InChI": "InChI=1S/C20H21NO6/c22-18(26-13-15-7-3-1-4-8-15)12-11-17(19(23)24)21-20(25)27-14-16-9-5-2-6-10-16/h1-10,17H,11-14H2,(H,21,25)(H,23,24)/t17-/m0/s1",
        "InChIKey": null,
        "Canonical SMILES": "O=C(OCC=1C=CC=CC1)NC(C(=O)O)CCC(=O)OCC=2C=CC=CC2",
        "Molecular Formula": "C<sub>20</sub>H<sub>21</sub>NO<sub>6</sub>",
        "Molecular Mass": "371.38",
        "Melting Point": "77-78 °C"
    }
}