{
    "cas_no": "598-94-7",
    "key_name": "<em>N</em>,<em>N</em>-Dimethylurea",
    "cn_name": "1,1-二甲基脲;N,N-二甲基脲;",
    "alternate_name": "Urea, <em>N</em>,<em>N</em>-dimethyl-;Urea, 1,1-dimethyl-;<em>N</em>,<em>N</em>-Dimethylurea;1,1-Dimethylurea;<em>asym</em>-Dimethylurea;NSC 33603;<em>N</em>,<em>N</em>-Dimethylcarbamide",
    "duplicated_cas_no": "",
    "SMILES": "C(N(C)C)(N)=O",
    "meta_data": {
        "InChI": "InChI=1S/C3H8N2O/c1-5(2)3(4)6/h1-2H3,(H2,4,6)",
        "InChIKey": null,
        "Canonical SMILES": "O=C(N)N(C)C",
        "Molecular Formula": "C<sub>3</sub>H<sub>8</sub>N<sub>2</sub>O",
        "Molecular Mass": "88.11",
        "Melting Point": "182 °C",
        "Density": "1.255 g/cm³"
    }
}