{
    "cas_no": "40165-87-5",
    "key_name": "3-Hydroxynonanoic acid",
    "cn_name": null,
    "alternate_name": "Nonanoic acid, 3-hydroxy-;3-Hydroxynonanoic acid;β-Hydroxynonanoic acid;(±)-3-Hydroxynonanoic acid",
    "duplicated_cas_no": "88930-09-0;1111092-36-4",
    "SMILES": "C(C(CC(O)=O)O)CCCCC",
    "meta_data": {
        "InChI": "InChI=1S/C9H18O3/c1-2-3-4-5-6-8(10)7-9(11)12/h8,10H,2-7H2,1H3,(H,11,12)",
        "InChIKey": null,
        "Canonical SMILES": "O=C(O)CC(O)CCCCCC",
        "Molecular Formula": "C<sub>9</sub>H<sub>18</sub>O<sub>3</sub>",
        "Molecular Mass": "174.24",
        "Melting Point": "57-59 °C"
    }
}