{
    "cas_no": "1720-32-7",
    "key_name": "1,6-Diphenyl-1,3,5-hexatriene",
    "cn_name": "1,6-二苯基-1,3,5-7己三烯;",
    "alternate_name": "Benzene, 1,1′-(1,3,5-hexatriene-1,6-diyl)bis-;1,3,5-Hexatriene, 1,6-diphenyl-;1,1′-(1,3,5-Hexatriene-1,6-diyl)bis[benzene];1,6-Diphenylhexatriene;1,6-Diphenyl-1,3,5-hexatriene;Diphenylhexatriene;DPH;α,ω-Diphenylhexatriene;DPH (dye);NSC 90479",
    "duplicated_cas_no": "12766-16-4",
    "SMILES": "C(=CC=CC=CC1=CC=CC=C1)C2=CC=CC=C2",
    "meta_data": {
        "InChI": "InChI=1S/C18H16/c1(5-11-17-13-7-3-8-14-17)2-6-12-18-15-9-4-10-16-18/h1-16H",
        "InChIKey": null,
        "Canonical SMILES": "C(=CC=CC=1C=CC=CC1)C=CC=2C=CC=CC2",
        "Molecular Formula": "C<sub>18</sub>H<sub>16</sub>",
        "Molecular Mass": "232.32",
        "Melting Point": "196 °C"
    }
}