{
    "cas_no": "598-55-0",
    "key_name": "Carbamic acid, methyl ester",
    "cn_name": "氨基甲酸甲酯;",
    "alternate_name": "Carbamic acid, methyl ester;Methyl carbamate;Methylurethane;Urethylane;NSC 3054",
    "duplicated_cas_no": "",
    "SMILES": "C(OC)(N)=O",
    "meta_data": {
        "InChI": "InChI=1S/C2H5NO2/c1-5-2(3)4/h1H3,(H2,3,4)",
        "InChIKey": null,
        "Canonical SMILES": "O=C(OC)N",
        "Molecular Formula": "C<sub>2</sub>H<sub>5</sub>NO<sub>2</sub>",
        "Molecular Mass": "75.07",
        "Boiling Point": "177 °C",
        "Melting Point": "52-54 °C",
        "Density": "1.1361 g/cm³ @ Temp: 56 °C"
    }
}