{
    "cas_no": "98-04-4",
    "key_name": "Benzenaminium, <em>N</em>,<em>N</em>,<em>N</em>-trimethyl-, iodide (1:1)",
    "cn_name": "苯基三甲基碘化铵;三甲基苯基碘化铵;",
    "alternate_name": "Benzenaminium, <em>N</em>,<em>N</em>,<em>N</em>-trimethyl-, iodide (1:1);Ammonium, trimethylphenyl-, iodide;Trimethylphenylammonium iodide;Benzenaminium, <em>N</em>,<em>N</em>,<em>N</em>-trimethyl-, iodide;Phenyltrimethylammonium iodide;PHT;<em>N</em>,<em>N</em>,<em>N</em>-Trimethylanilinium iodide;Trimethylanilinium iodide;<em>N</em>,<em>N</em>-Dimethylaniline methiodide;<em>N</em>,<em>N</em>,<em>N</em>-Trimethylaniline iodide",
    "duplicated_cas_no": "74954-68-0",
    "SMILES": "[N+](C)(C)(C)C1=CC=CC=C1.[I-]",
    "meta_data": {
        "InChI": "InChI=1S/C9H14N.HI/c1-10(2,3)9-7-5-4-6-8-9;/h4-8H,1-3H3;1H/q+1;/p-1",
        "InChIKey": null,
        "Canonical SMILES": "[I-].C=1C=CC(=CC1)[N+](C)(C)C",
        "Molecular Formula": "C<sub>9</sub>H<sub>14</sub>N.I",
        "Molecular Mass": "",
        "Melting Point": "224 °C"
    }
}