{
    "cas_no": "597-50-2",
    "key_name": "Triethylphosphine oxide",
    "cn_name": "三乙基氧膦;",
    "alternate_name": "Phosphine oxide, triethyl-;Triethylphosphine oxide;SKF 39804;NSC 41934;(Diethylphosphoryl)ethane;1-Diethylphosphorylethane",
    "duplicated_cas_no": "",
    "SMILES": "P(CC)(CC)(CC)=O",
    "meta_data": {
        "InChI": "InChI=1S/C6H15OP/c1-4-8(7,5-2)6-3/h4-6H2,1-3H3",
        "InChIKey": null,
        "Canonical SMILES": "O=P(CC)(CC)CC",
        "Molecular Formula": "C<sub>6</sub>H<sub>15</sub>OP",
        "Molecular Mass": "134.16",
        "Boiling Point": "70 °C @ Press: 1 Torr",
        "Melting Point": "50-51 °C"
    }
}