{
    "cas_no": "21655-48-1",
    "key_name": "<em>rel</em>-(2<em>R</em>,6<em>S</em>)-2,6-Dimethylpiperazine",
    "cn_name": "顺式-2,6-二甲基哌嗪;",
    "alternate_name": "Piperazine, 2,6-dimethyl-, (2<em>R</em>,6<em>S</em>)-<em>rel</em>-;Piperazine, 2,6-dimethyl-, <em>cis</em>-;<em>rel</em>-(2<em>R</em>,6<em>S</em>)-2,6-Dimethylpiperazine;<em>cis</em>-2,6-Dimethylpiperazine;<em>cis</em>-3,5-Dimethylpiperazine",
    "duplicated_cas_no": "477575-19-2;745018-62-6;1013625-96-1;1682642-02-9;1869912-59-3;1884332-02-8;1959569-41-5;2243780-35-8;2304609-25-2;2377092-92-5;2446955-94-6;2672490-67-2;2739804-03-4;2776228-63-6;2839444-04-9;2982936-36-5;3024090-98-7;3042031-50-2",
    "SMILES": "C[C@H]1N[C@@H](C)CNC1",
    "meta_data": {
        "InChI": "InChI=1/C6H14N2/c1-5-3-7-4-6(2)8-5/h5-8H,3-4H2,1-2H3/t5-,6+",
        "InChIKey": null,
        "Canonical SMILES": "N1CC(NC(C)C1)C",
        "Molecular Formula": "C<sub>6</sub>H<sub>14</sub>N<sub>2</sub>",
        "Molecular Mass": "114.19",
        "Melting Point": "115-116 °C"
    }
}