{
    "cas_no": "3582-71-6",
    "key_name": "1,5-Dichloro-1,1,3,3,5,5-hexamethyltrisiloxane",
    "cn_name": "1,5-二氯六甲基三硅氧烷;1,5-二氯-1,1,3,3,5,5-六甲基三硅氧烷;",
    "alternate_name": "Trisiloxane, 1,5-dichloro-1,1,3,3,5,5-hexamethyl-;1,5-Dichloro-1,1,3,3,5,5-hexamethyltrisiloxane;1,5-Dichlorohexamethyltrisiloxane;Hexamethyl-1,5-dichlorotrisiloxane;1,1,3,3,5,5-Hexamethyl-1,5-dichlorotrisiloxane;Bis(chlorodimethylsiloxy)dimethylsilane;1-Chloro-3-chlorodimethylsilyloxy-1,1,3,3-tetramethyldisiloxane",
    "duplicated_cas_no": "",
    "SMILES": "O([Si](O[Si](C)(C)Cl)(C)C)[Si](C)(C)Cl",
    "meta_data": {
        "InChI": "InChI=1S/C6H18Cl2O2Si3/c1-11(2,7)9-13(5,6)10-12(3,4)8/h1-6H3",
        "InChIKey": null,
        "Canonical SMILES": "Cl[Si](O[Si](O[Si](Cl)(C)C)(C)C)(C)C",
        "Molecular Formula": "C<sub>6</sub>H<sub>18</sub>Cl<sub>2</sub>O<sub>2</sub>Si<sub>3</sub>",
        "Molecular Mass": "277.37",
        "Boiling Point": "184 °C",
        "Melting Point": "-53 °C",
        "Density": "1.018 g/cm³"
    }
}