{
    "cas_no": "83-07-8",
    "key_name": "4-Aminoantipyrine",
    "cn_name": "4-氨基安替比林;4-氨基非那宗;4-氨基-1,5-二甲基-2-苯基-3-吡唑啉酮;",
    "alternate_name": "3<em>H</em>-Pyrazol-3-one, 4-amino-1,2-dihydro-1,5-dimethyl-2-phenyl-;Antipyrine, 4-amino-;4-Amino-1,2-dihydro-1,5-dimethyl-2-phenyl-3<em>H</em>-pyrazol-3-one;4-AAP;4-Aminoantipyrine;4-Amino-1,5-dimethyl-2-phenyl-3-pyrazolone;4-Aminophenazone;Ampyrone;1-Phenyl-2,3-dimethyl-4-amino-5-pyrazolone;Aminoantipyrine;4-Amino-2,3-dimethyl-1-phenyl-3-pyrazolin-5-one;Aminoazophene;4-Amino-1,5-dimethyl-2-phenylpyrazolin-3-one;4-Amino-2,3-dimethyl-1-phenyl-5-pyrazolone;4-Amino-2,3-dimethyl-1-phenylpyrazolin-5-one;4-Amino-1,5-dimethyl-2-phenyl-4-pyrazolin-3-one;4-Amino-1,5-dimethyl-3-oxo-2-phenylpyrazoline;Metapirazone;Solvapyrin A;4-Amino-1-phenyl-2,3-dimethyl-5-pyrazolone;1,2-Dihydro-1,5-dimethyl-2-phenyl-4-amino-3<em>H</em>-pyrazol-3-one;4-Amino-1,5-dimethyl-2-phenyl-1,2-dihydro-3<em>H</em>-pyrazol-3-one;NSC 60242;4-Amino-1,5-dimethyl-2-phenyl-1,2-dihydropyrazol-3-one;(2,3-Dihydro-1,5-dimethyl-3-oxo-2-phenyl-1<em>H</em>-pyrazol-4-yl)amine;4-Amino-1,5-dimethyl-2-phenyl-1<em>H</em>-pyrazol-3(2<em>H</em>)-one;4-Amino-1,2-dihydro-2,3-dimethyl-1-phenylpyrazol-5-one;4-Amino-1,5-dimethyl-2-phenyl-1<em>H</em>-pyrazol-3-one;4-Amino-1,5-dimethyl-2-phenyl-1,2-dihydro-3<em>H</em>-pyrazole-3-one;MeSH ID: D000675",
    "duplicated_cas_no": "",
    "SMILES": "O=C1N(N(C)C(C)=C1N)C2=CC=CC=C2",
    "meta_data": {
        "InChI": "InChI=1S/C11H13N3O/c1-8-10(12)11(15)14(13(8)2)9-6-4-3-5-7-9/h3-7H,12H2,1-2H3",
        "InChIKey": null,
        "Canonical SMILES": "O=C1C(N)=C(N(N1C=2C=CC=CC2)C)C",
        "Molecular Formula": "C<sub>11</sub>H<sub>13</sub>N<sub>3</sub>O",
        "Molecular Mass": "203.24",
        "Melting Point": "109 °C"
    }
}