{
    "cas_no": "1849-27-0",
    "key_name": "1,4-Bis(2-phenylethynyl)benzene",
    "cn_name": "1,4-双(苯乙炔基)苯;",
    "alternate_name": "Benzene, 1,4-bis(2-phenylethynyl)-;Benzene, <em>p</em>-bis(phenylethynyl)-;Benzene, 1,4-bis(phenylethynyl)-;1,4-Bis(2-phenylethynyl)benzene;<em>p</em>-Bis(phenylethynyl)benzene;1,4-Bis(phenylethynyl)benzene;1,4-Di(phenylethynyl)benzene",
    "duplicated_cas_no": "",
    "SMILES": "C(#CC1=CC=CC=C1)C2=CC=C(C#CC3=CC=CC=C3)C=C2",
    "meta_data": {
        "InChI": "InChI=1S/C22H14/c1-3-7-19(8-4-1)11-13-21-15-17-22(18-16-21)14-12-20-9-5-2-6-10-20/h1-10,15-18H",
        "InChIKey": null,
        "Canonical SMILES": "C(#CC1=CC=C(C#CC=2C=CC=CC2)C=C1)C=3C=CC=CC3",
        "Molecular Formula": "C<sub>22</sub>H<sub>14</sub>",
        "Molecular Mass": "278.35",
        "Melting Point": "184-186 °C"
    }
}