{
    "cas_no": "3590-84-9",
    "key_name": "Tetraoctylstannane",
    "cn_name": "四正辛基锡;四辛基锡;",
    "alternate_name": "Stannane, tetraoctyl-;Tin, tetraoctyl-;Tetraoctylstannane;Tetraoctyltin;Tetra-<em>n</em>-octyltin;Tetra-<em>n</em>-octylstannane;NSC 65527",
    "duplicated_cas_no": "",
    "SMILES": "[Sn](CCCCCCCC)(CCCCCCCC)(CCCCCCCC)CCCCCCCC",
    "meta_data": {
        "InChI": "InChI=1S/4C8H17.Sn/c4*1-3-5-7-8-6-4-2;/h4*1,3-8H2,2H3;",
        "InChIKey": null,
        "Canonical SMILES": "CCCCCCCC[Sn](CCCCCCCC)(CCCCCCCC)CCCCCCCC",
        "Molecular Formula": "C<sub>32</sub>H<sub>68</sub>Sn",
        "Molecular Mass": "571.59",
        "Boiling Point": "224 °C @ Press: 1 Torr",
        "Density": "0.961 g/cm³"
    }
}