{
    "cas_no": "87-89-8",
    "key_name": "<em>myo</em>-Inositol",
    "cn_name": "肌醇;环己六醇;",
    "alternate_name": "<em>myo</em>-Inositol;Inositol, <em>myo</em>-;<em>cis</em>-1,2,3,5-<em>trans</em>-4,6-Cyclohexanehexol;Dambose;Meat sugar;Mesoinosite;Mesoinositol;Myoinosite;Myoinositol;Nucite;Phaseomannite;Phaseomannitol;<em>meso</em>-Inositol;Inositol;MI;<em>i</em>-Inositol;<em>iso</em>-Inositol;Inosital;Scyllite;Mesoinosit;Mesol;Mesovit;Inositene;Inositina;Inosite;Cyclohexitol;Mouse antialopecia factor;Rat antispectacled eye factor;Bios I;Cyclohexanehexol;Freeda",
    "duplicated_cas_no": "53319-35-0",
    "SMILES": "O[C@@H]1[C@@H](O)[C@@H](O)[C@@H](O)[C@H](O)[C@H]1O",
    "meta_data": {
        "InChI": "InChI=1/C6H12O6/c7-1-2(8)4(10)6(12)5(11)3(1)9/h1-12H/t1-,2-,3-,4+,5-,6-",
        "InChIKey": null,
        "Canonical SMILES": "OC1C(O)C(O)C(O)C(O)C1O",
        "Molecular Formula": "C<sub>6</sub>H<sub>12</sub>O<sub>6</sub>",
        "Molecular Mass": "180.16",
        "Melting Point": "225 °C",
        "Density": "1.752 g/cm³"
    }
}