{
    "cas_no": "104-75-6",
    "key_name": "2-Ethylhexylamine",
    "cn_name": "2-乙基己胺;2-乙基-1-己胺;异辛胺;",
    "alternate_name": "1-Hexanamine, 2-ethyl-;Hexylamine, 2-ethyl-;2-Ethyl-1-hexanamine;2-Ethylhexylamine;1-Amino-2-ethylhexane;β-Ethylhexylamine;2-Ethyl-1-hexylamine;2-Ethylhexanamine;2-Ethyl-1-aminohexane",
    "duplicated_cas_no": "114272-35-4",
    "SMILES": "C(CCCC)(CC)CN",
    "meta_data": {
        "InChI": "InChI=1S/C8H19N/c1-3-5-6-8(4-2)7-9/h8H,3-7,9H2,1-2H3",
        "InChIKey": null,
        "Canonical SMILES": "NCC(CC)CCCC",
        "Molecular Formula": "C<sub>8</sub>H<sub>19</sub>N",
        "Molecular Mass": "129.24",
        "Boiling Point": "169 °C",
        "Melting Point": "-76 °C"
    }
}