{
    "cas_no": "115666-47-2",
    "key_name": "6-Iodo-1<em>H</em>-indole",
    "cn_name": null,
    "alternate_name": "1<em>H</em>-Indole, 6-iodo-;6-Iodo-1<em>H</em>-indole;6-Iodoindole",
    "duplicated_cas_no": "",
    "SMILES": "IC=1C=C2C(=CC1)C=CN2",
    "meta_data": {
        "InChI": "InChI=1S/C8H6IN/c9-7-2-1-6-3-4-10-8(6)5-7/h1-5,10H",
        "InChIKey": null,
        "Canonical SMILES": "IC=1C=CC=2C=CNC2C1",
        "Molecular Formula": "C<sub>8</sub>H<sub>6</sub>IN",
        "Molecular Mass": "243.04",
        "Melting Point": "70-71 °C"
    }
}