{
    "cas_no": "137-97-3",
    "key_name": "<em>N</em>,<em>N</em>′-Bis(2-methylphenyl)thiourea",
    "cn_name": "促进剂DOTU;N,N’-二邻甲苯基硫脲;1,3-二邻甲苯基-2-硫脲;",
    "alternate_name": "Thiourea, <em>N</em>,<em>N</em>′-bis(2-methylphenyl)-;Carbanilide, 2,2′-dimethylthio-;<em>N</em>,<em>N</em>′-Bis(2-methylphenyl)thiourea;Di-<em>o</em>-tolylthiourea;<em>sym</em>-Di-<em>o</em>-tolylthiourea;<em>N</em>,<em>N</em>′-Di-<em>o</em>-tolylthiourea;1,3-Di-<em>o</em>-tolylthiourea;1,3-Bis(<em>o</em>-tolyl)thiourea;NSC 119321;NSC 37140;1,3-Bis(2-methylphenyl)thiourea;Accelerator DOTU",
    "duplicated_cas_no": "",
    "SMILES": "N(C(NC1=C(C)C=CC=C1)=S)C2=C(C)C=CC=C2",
    "meta_data": {
        "InChI": "InChI=1S/C15H16N2S/c1-11-7-3-5-9-13(11)16-15(18)17-14-10-6-4-8-12(14)2/h3-10H,1-2H3,(H2,16,17,18)",
        "InChIKey": null,
        "Canonical SMILES": "S=C(NC=1C=CC=CC1C)NC=2C=CC=CC2C",
        "Molecular Formula": "C<sub>15</sub>H<sub>16</sub>N<sub>2</sub>S",
        "Molecular Mass": "256.37",
        "Melting Point": "161 °C"
    }
}