{
    "cas_no": "128-80-3",
    "key_name": "Solvent Green 3",
    "cn_name": "溶剂绿3;透明绿5B;",
    "alternate_name": "9,10-Anthracenedione, 1,4-bis[(4-methylphenyl)amino]-;Anthraquinone, 1,4-di-<em>p</em>-toluidino-;1,4-Bis[(4-methylphenyl)amino]-9,10-anthracenedione;11091 Green;C.I. 61565;Ahcoquinone Cyanine Green Base;Alizarine Cyanine Green Base;Alizarine Cyanine Green G Fat Soluble;Alizarine Green G Base;Anthraquinone Green G Base;Arlosol Green B;Arlosol Green BS;Arlosol Green BSS;C.I. Solvent Green 3;1,4-Di-<em>p</em>-toluidinoanthraquinone;Nitro Fast Green GB;Organol Fast Green J;Quinizarine Green Base;Quinizarin Green SS;Sudan Green 4B;Toyo Oriental Oil Blue G;Waxoline Green G;D and C Green No. 6;Amaplast Green OZ;Solvent Green 3;Fat Soluble Anthraquinone Green;Organol Green J;Quinazarin green;C-Green 10;Green No. 202;1,4-Bis-<em>p</em>-toluidino-9,10-anthraquinone;Fat Soluble Green Anthraquinone;Macrolex Green 5B;Cyanine Green G base;Sumiplast Green G;Oil Green 530;Orient Oil Green 530;1,4-Bis[(4-methylphenyl)amino]anthraquinone;FD and C Green no. 6;C.I. Disperse Green 6:1;1,4-Bis(4′-methylanilino)anthraquinone;Diaresin Green C;Ceres Green BB;Nitro Fast Green GSB;Kayaset Green A-B;Oil Green 5602;1,4-Bis(<em>p</em>-tolylamino)anthraquinone;Oplas Green 533;Japan Green 202;D 4;D 4 (dye);D&amp;C Green No. 6;Sandoplast Green GSB;1,4-Di-(4′-toluidino)anthraquinone;NSC 84207;Waxoline Green 6GFW;Green 6;Brown 921;DC Green 6;KP Plast Green G;Transparent Green 5B;1,4-Bis(4-methylanilino)anthracene-9,10-dione;Solvaperm Green GSB;1,4-Bis(<em>p</em>-tolylamino)anthracene-9,10-dione;Q 0021;Mitsui PS Green B;Macrolex Green 5B Gran;Parasol Green 5B;DTXSID9044376",
    "duplicated_cas_no": "95660-38-1;54848-06-5;60880-53-7;64553-67-9;201097-94-1",
    "SMILES": "N(C1=C2C(=C(NC3=CC=C(C)C=C3)C=C1)C(=O)C=4C(C2=O)=CC=CC4)C5=CC=C(C)C=C5",
    "meta_data": {
        "InChI": "InChI=1S/C28H22N2O2/c1-17-7-11-19(12-8-17)29-23-15-16-24(30-20-13-9-18(2)10-14-20)26-25(23)27(31)21-5-3-4-6-22(21)28(26)32/h3-16,29-30H,1-2H3",
        "InChIKey": null,
        "Canonical SMILES": "O=C1C=2C=CC=CC2C(=O)C=3C(=CC=C(NC4=CC=C(C=C4)C)C13)NC5=CC=C(C=C5)C",
        "Molecular Formula": "C<sub>28</sub>H<sub>22</sub>N<sub>2</sub>O<sub>2</sub>",
        "Molecular Mass": "418.49",
        "Melting Point": "218 °C"
    }
}