{
    "cas_no": "1438-91-1",
    "key_name": "2-[(Methylthio)methyl]furan",
    "cn_name": "糠基甲基硫醚;",
    "alternate_name": "Furan, 2-[(methylthio)methyl]-;2-[(Methylthio)methyl]furan;Methyl furfuryl sulfide;2-(Methylthiomethyl)furan;2-Furfuryl methyl sulfide;2-(Methylsulfanylmethyl)furan;2-[(Methylsulfanyl)methyl]furan",
    "duplicated_cas_no": "",
    "SMILES": "C(SC)C1=CC=CO1",
    "meta_data": {
        "InChI": "InChI=1S/C6H8OS/c1-8-5-6-3-2-4-7-6/h2-4H,5H2,1H3",
        "InChIKey": null,
        "Canonical SMILES": "O1C=CC=C1CSC",
        "Molecular Formula": "C<sub>6</sub>H<sub>8</sub>OS",
        "Molecular Mass": "128.19",
        "Boiling Point": "62-63 °C @ Press: 28 Torr"
    }
}