{
    "cas_no": "603-44-1",
    "key_name": "4,4′,4′′-Methylidynetris[phenol]",
    "cn_name": "4,4,4-三羟基三甲苯;4,4,4-亚甲基三苯酚;",
    "alternate_name": "Phenol, 4,4′,4′′-methylidynetris-;Phenol, 4,4′,4′′-methylidynetri-;Leucaurin;4,4′,4′′-Methylidynetris[phenol];Leucoaurin;Tris(<em>p</em>-hydroxyphenyl)methane;4,4′,4′′-Trihydroxytriphenylmethane;Tris(4-hydroxyphenyl)methane;4,4′,4′′-Methylidynetrisphenol;Trisphenol PHBA;NSC 75955;4,4′,4′′-Trihydroxyphenylmethane;BisP-PHBA;BIP-PHBZ;AV Lite BIP-PHBZ;TrisP-M;TrisP-PHBA;Tri(4-hydroxyphenyl)methane;Tris P-PHBA-S",
    "duplicated_cas_no": "177571-09-4",
    "SMILES": "C(C1=CC=C(O)C=C1)(C2=CC=C(O)C=C2)C3=CC=C(O)C=C3",
    "meta_data": {
        "InChI": "InChI=1S/C19H16O3/c20-16-7-1-13(2-8-16)19(14-3-9-17(21)10-4-14)15-5-11-18(22)12-6-15/h1-12,19-22H",
        "InChIKey": null,
        "Canonical SMILES": "OC1=CC=C(C=C1)C(C2=CC=C(O)C=C2)C3=CC=C(O)C=C3",
        "Molecular Formula": "C<sub>19</sub>H<sub>16</sub>O<sub>3</sub>",
        "Molecular Mass": "292.33",
        "Melting Point": "240 °C"
    }
}