{
    "cas_no": "62732-44-9",
    "key_name": "Ipidacrine",
    "cn_name": null,
    "alternate_name": "1<em>H</em>-Cyclopenta[<em>b</em>]quinolin-9-amine, 2,3,5,6,7,8-hexahydro-;2,3,5,6,7,8-Hexahydro-1<em>H</em>-cyclopenta[<em>b</em>]quinolin-9-amine;Ipidacrine;Neuromidine;2,3,5,6,7,8-Hexahydro-1<em>H</em>-cyclopenta[<em>b</em>]quinolin-9-ylamine;1<em>H</em>,2<em>H</em>,3<em>H</em>,5<em>H</em>,6<em>H</em>,7<em>H</em>,8<em>H</em>-Cyclopenta[<em>b</em>]quinolin-9-amine",
    "duplicated_cas_no": "",
    "SMILES": "NC1=C2C(=NC3=C1CCCC3)CCC2",
    "meta_data": {
        "InChI": "InChI=1S/C12H16N2/c13-12-8-4-1-2-6-10(8)14-11-7-3-5-9(11)12/h1-7H2,(H2,13,14)",
        "InChIKey": null,
        "Canonical SMILES": "N=1C2=C(C(N)=C3C1CCCC3)CCC2",
        "Molecular Formula": "C<sub>12</sub>H<sub>16</sub>N<sub>2</sub>",
        "Molecular Mass": "188.27",
        "Melting Point": "202-203 °C"
    }
}