{
    "cas_no": "13276-08-9",
    "key_name": "<em>N</em>-Octadecyloctadecanamide",
    "cn_name": null,
    "alternate_name": "Octadecanamide, <em>N</em>-octadecyl-;<em>N</em>-Octadecyloctadecanamide;<em>N</em>-Stearylstearamide;Stearylstearamide;<em>N</em>-Octadecylstearamide;Kemamide S 180;<em>N</em>-Stearylstearic acid amide;Nikkamide S;Nikka Amide S;Alflow 80;S 180;S 180 (amide)",
    "duplicated_cas_no": "135507-24-3;213544-17-3",
    "SMILES": "N(C(CCCCCCCCCCCCCCCCC)=O)CCCCCCCCCCCCCCCCCC",
    "meta_data": {
        "InChI": "InChI=1S/C36H73NO/c1-3-5-7-9-11-13-15-17-19-21-23-25-27-29-31-33-35-37-36(38)34-32-30-28-26-24-22-20-18-16-14-12-10-8-6-4-2/h3-35H2,1-2H3,(H,37,38)",
        "InChIKey": null,
        "Canonical SMILES": "O=C(NCCCCCCCCCCCCCCCCCC)CCCCCCCCCCCCCCCCC",
        "Molecular Formula": "C<sub>36</sub>H<sub>73</sub>NO",
        "Molecular Mass": "535.97",
        "Melting Point": "95-96 °C"
    }
}