{
    "cas_no": "43076-59-1",
    "key_name": "4-Chloro-1-(2-thienyl)-1-butanone",
    "cn_name": null,
    "alternate_name": "1-Butanone, 4-chloro-1-(2-thienyl)-;4-Chloro-1-(2-thienyl)-1-butanone;3-Chloropropyl 2-thienyl ketone;2-(4-Chlorobutyryl)thiophene;4-Chloro-1-(2-thienyl)butanone;4-Chloro-1-(thiophen-2-yl)butan-1-one",
    "duplicated_cas_no": "",
    "SMILES": "C(CCCCl)(=O)C1=CC=CS1",
    "meta_data": {
        "InChI": "InChI=1S/C8H9ClOS/c9-5-1-3-7(10)8-4-2-6-11-8/h2,4,6H,1,3,5H2",
        "InChIKey": null,
        "Canonical SMILES": "O=C(C=1SC=CC1)CCCCl",
        "Molecular Formula": "C<sub>8</sub>H<sub>9</sub>ClOS",
        "Molecular Mass": "188.67",
        "Boiling Point": "144-146 °C @ Press: 11 Torr"
    }
}