{
    "cas_no": "7298-84-2",
    "key_name": "<span class=\"text-smallcaps\">L</smallcap>-Leucyl-<smallcap>L</span>-alanine",
    "cn_name": "L-亮氨酸-L-丙氨酸;L-亮氨酸-L-丙氨酸;L-白氨酰-L-丙氨酸;",
    "alternate_name": "<span class=\"text-smallcaps\">L</smallcap>-Alanine, <smallcap>L</span>-leucyl-;Alanine, <em>N</em>-<span class=\"text-smallcaps\">L</smallcap>-leucyl-, <smallcap>L</span>-;<span class=\"text-smallcaps\">L</smallcap>-Alanine, <em>N</em>-<smallcap>L</span>-leucyl-;Alanine, <em>N</em>-leucyl-;<span class=\"text-smallcaps\">L</smallcap>-Leucyl-<smallcap>L</span>-alanine;Leucylalanine;NSC 89180;1970: PN: EP2071334 SEQID: 2077 claimed protein;1970: PN: WO2009077864 SEQID: 2077 claimed protein;1: PN: US20090239809 SEQID: 1 claimed protein;90: PN: EP2161028 PAGE: 10 claimed protein;25: PN: WO2011146121 PAGE: 114 claimed sequence;104: PN: WO2013044298 SEQID: 131 unclaimed protein;109: PN: WO2014102104 SEQID: 208 claimed protein;109: PN: WO2014102101 SEQID: 409 claimed protein;149: PN: WO2014102103 TABLE: 1 claimed protein;128: PN: WO2014102100 TABLE: 1 claimed protein;68: PN: WO2020097235 SEQID: 297 claimed protein;52: PN: WO2021068040 SEQID: 67 claimed protein;336: PN: WO2021146320 SEQID: 336 claimed protein;168: PN: WO2022105914 SEQID: 174 claimed protein;362: PN: WO2022175413 SEQID: 478 claimed protein",
    "duplicated_cas_no": "21369-94-8",
    "SMILES": "C(N[C@H](C(O)=O)C)([C@H](CC(C)C)N)=O",
    "meta_data": {
        "InChI": "InChI=1S/C9H18N2O3/c1-5(2)4-7(10)8(12)11-6(3)9(13)14/h5-7H,4,10H2,1-3H3,(H,11,12)(H,13,14)/t6-,7-/m0/s1",
        "InChIKey": null,
        "Canonical SMILES": "O=C(O)C(NC(=O)C(N)CC(C)C)C",
        "Molecular Formula": "C<sub>9</sub>H<sub>18</sub>N<sub>2</sub>O<sub>3</sub>",
        "Molecular Mass": "202.25",
        "Melting Point": "255-256 °C (decomp)"
    }
}