{
    "cas_no": "53575-08-9",
    "key_name": "Diethyl <em>P</em>-(1-naphthalenylmethyl)phosphonate",
    "cn_name": "1-萘基甲基膦酸二乙酯;",
    "alternate_name": "Phosphonic acid, <em>P</em>-(1-naphthalenylmethyl)-, diethyl ester;Phosphonic acid, (1-naphthalenylmethyl)-, diethyl ester;Phosphonic acid, 1-naphthylmethyl-, diethyl ester;Diethyl <em>P</em>-(1-naphthalenylmethyl)phosphonate;Diethyl (1-naphthylmethyl)phosphonate;NSC 404293;1-(Diethoxyphosphorylmethyl)naphthalene",
    "duplicated_cas_no": "",
    "SMILES": "C(P(OCC)(OCC)=O)C=1C2=C(C=CC1)C=CC=C2",
    "meta_data": {
        "InChI": "InChI=1S/C15H19O3P/c1-3-17-19(16,18-4-2)12-14-10-7-9-13-8-5-6-11-15(13)14/h5-11H,3-4,12H2,1-2H3",
        "InChIKey": null,
        "Canonical SMILES": "O=P(OCC)(OCC)CC1=CC=CC=2C=CC=CC21",
        "Molecular Formula": "C<sub>15</sub>H<sub>19</sub>O<sub>3</sub>P",
        "Molecular Mass": "278.28",
        "Boiling Point": "205-206 °C @ Press: 5 Torr"
    }
}