{
    "cas_no": "6600-31-3",
    "key_name": "3,9-Di-3-cyclohexen-1-yl-2,4,8,10-tetraoxaspiro[5.5]undecane",
    "cn_name": "3,9-二-3-环己烯-1-基-2,4,8,10-四氧螺[5.5]十一烷;",
    "alternate_name": "2,4,8,10-Tetraoxaspiro[5.5]undecane, 3,9-di-3-cyclohexen-1-yl-;3,9-Di-3-cyclohexen-1-yl-2,4,8,10-tetraoxaspiro[5.5]undecane;Vulkazon AFS;NSC 82301;Vulcazon AFS-LG;Vulkazon AFS/LG;3,9-Di-cyclohex-3-enyl-2,4,8,10-tetraoxa-spiro[5.5]undecane",
    "duplicated_cas_no": "75788-94-2;107391-70-8;1032319-38-2",
    "SMILES": "C12(COC(OC1)C3CCC=CC3)COC(OC2)C4CCC=CC4",
    "meta_data": {
        "InChI": "InChI=1S/C19H28O4/c1-3-7-15(8-4-1)17-20-11-19(12-21-17)13-22-18(23-14-19)16-9-5-2-6-10-16/h1-3,5,15-18H,4,6-14H2",
        "InChIKey": null,
        "Canonical SMILES": "O1CC2(COC1C3CC=CCC3)COC(OC2)C4CC=CCC4",
        "Molecular Formula": "C<sub>19</sub>H<sub>28</sub>O<sub>4</sub>",
        "Molecular Mass": "320.42",
        "Melting Point": "96-97 °C"
    }
}