{
    "cas_no": "487-68-3",
    "key_name": "2,4,6-Trimethylbenzaldehyde",
    "cn_name": "2,4,6-三甲基苯甲醛;米醛;",
    "alternate_name": "Benzaldehyde, 2,4,6-trimethyl-;2,4,6-Trimethylbenzaldehyde;Mesitylaldehyde;2-Mesitylenecarboxaldehyde;Mesitaldehyde;Mesitylenecarboxaldehyde;NSC 29094",
    "duplicated_cas_no": "75245-25-9",
    "SMILES": "C(=O)C1=C(C)C=C(C)C=C1C",
    "meta_data": {
        "InChI": "InChI=1S/C10H12O/c1-7-4-8(2)10(6-11)9(3)5-7/h4-6H,1-3H3",
        "InChIKey": null,
        "Canonical SMILES": "O=CC=1C(=CC(=CC1C)C)C",
        "Molecular Formula": "C<sub>10</sub>H<sub>12</sub>O",
        "Molecular Mass": "148.20",
        "Boiling Point": "238.5 °C",
        "Melting Point": "14 °C",
        "Density": "1.0987 g/cm³ @ Temp: 20 °C"
    }
}