{
    "cas_no": "51255-18-6",
    "key_name": "Methyl 2-deoxy-β-<span class=\"text-smallcaps\">D</span>-<em>erythro</em>-pentofuranoside",
    "cn_name": "甲基-2-脱氧-beta-D-呋喃核糖苷;",
    "alternate_name": "β-<span class=\"text-smallcaps\">D</span>-<em>erythro</em>-Pentofuranoside, methyl 2-deoxy-;Methyl 2-deoxy-β-<span class=\"text-smallcaps\">D</span>-<em>erythro</em>-pentofuranoside;Methyl β-<span class=\"text-smallcaps\">D</span>-2-deoxyribofuranoside;Methyl 2-deoxy-β-<span class=\"text-smallcaps\">D</span>-ribofuranoside;NSC 68139",
    "duplicated_cas_no": "",
    "SMILES": "C(O)[C@@H]1[C@@H](O)C[C@H](OC)O1",
    "meta_data": {
        "InChI": "InChI=1S/C6H12O4/c1-9-6-2-4(8)5(3-7)10-6/h4-8H,2-3H2,1H3/t4-,5+,6+/m0/s1",
        "InChIKey": null,
        "Canonical SMILES": "OCC1OC(OC)CC1O",
        "Molecular Formula": "C<sub>6</sub>H<sub>12</sub>O<sub>4</sub>",
        "Molecular Mass": "148.16",
        "Boiling Point": "115-125 °C @ Press: 0.45 Torr"
    }
}