{
    "cas_no": "13603-25-3",
    "key_name": "3-Benzylpiperidine",
    "cn_name": null,
    "alternate_name": "Piperidine, 3-(phenylmethyl)-;Piperidine, 3-benzyl-;3-(Phenylmethyl)piperidine;3-Benzylpiperidine",
    "duplicated_cas_no": "",
    "SMILES": "C(C1=CC=CC=C1)C2CCCNC2",
    "meta_data": {
        "InChI": "InChI=1S/C12H17N/c1-2-5-11(6-3-1)9-12-7-4-8-13-10-12/h1-3,5-6,12-13H,4,7-10H2",
        "InChIKey": null,
        "Canonical SMILES": "C=1C=CC(=CC1)CC2CNCCC2",
        "Molecular Formula": "C<sub>12</sub>H<sub>17</sub>N",
        "Molecular Mass": "175.27",
        "Melting Point": "190 °C"
    }
}