{
    "cas_no": "1074-17-5",
    "key_name": "1-Methyl-2-propylbenzene",
    "cn_name": "1-甲基-2-丙基苯;",
    "alternate_name": "Benzene, 1-methyl-2-propyl-;Toluene, <em>o</em>-propyl-;1-Methyl-2-propylbenzene;<em>o</em>-Propyltoluene;2-Propyltoluene;<em>o</em>-Methylpropylbenzene;1-Propyl-2-methylbenzene;1-Methyl-2-<em>n</em>-propylbenzene;2-Methyl-1-propylbenzene;NSC 73977",
    "duplicated_cas_no": "",
    "SMILES": "C(CC)C1=C(C)C=CC=C1",
    "meta_data": {
        "InChI": "InChI=1S/C10H14/c1-3-6-10-8-5-4-7-9(10)2/h4-5,7-8H,3,6H2,1-2H3",
        "InChIKey": null,
        "Canonical SMILES": "C=1C=CC(=C(C1)C)CCC",
        "Molecular Formula": "C<sub>10</sub>H<sub>14</sub>",
        "Molecular Mass": "134.22",
        "Boiling Point": "185 °C",
        "Melting Point": "-60.3 °C",
        "Density": "0.874 g/cm³ @ Temp: 20 °C"
    }
}