{
    "cas_no": "6835-16-1",
    "key_name": "Benzeneacetic acid, α-(hydroxymethyl)-, (α<em>S</em>)-, (3-<em>endo</em>)-8-methyl-8-azabicyclo[3.2.1]oct-3-yl ester, sulfate, hydrate (2:1:2)",
    "cn_name": "莨菪碱硫酸盐水合物;",
    "alternate_name": "Benzeneacetic acid, α-(hydroxymethyl)-, (α<em>S</em>)-, (3-<em>endo</em>)-8-methyl-8-azabicyclo[3.2.1]oct-3-yl ester, sulfate, hydrate (2:1:2);1αH-Tropan-3α-ol, (-)-tropate (ester), sulfate (2:1), dihydrate;Benzeneacetic acid, α-(hydroxymethyl)-, 8-methyl-8-azabicyclo[3.2.1]oct-3-yl ester, [3(<em>S</em>)-<em>endo</em>]-, sulfate (2:1) (salt), dihydrate",
    "duplicated_cas_no": "67008-30-4",
    "SMILES": "S(=O)(=O)(O)O.O(C([C@H](CO)C1=CC=CC=C1)=O)[C@@H]2C[C@]3(N(C)[C@@](C2)(CC3)[H])[H].O",
    "meta_data": {
        "InChI": "InChI=1S/C17H23NO3.H2O4S.H2O/c1-18-13-7-8-14(18)10-15(9-13)21-17(20)16(11-19)12-5-3-2-4-6-12;1-5(2,3)4;/h2-6,13-16,19H,7-11H2,1H3;(H2,1,2,3,4);1H2/t13-,14+,15+,16-;;/m1../s1",
        "InChIKey": null,
        "Canonical SMILES": "O=C(OC1CC2N(C)C(CC2)C1)C(C=3C=CC=CC3)CO.O=S(=O)(O)O.O",
        "Molecular Formula": "C<sub>17</sub>H<sub>23</sub>NO<sub>3</sub>.<sup>1</sup>/<sub>2</sub>H<sub>2</sub>O<sub>4</sub>S.H<sub>2</sub>O",
        "Molecular Mass": "",
        "Melting Point": "206 °C"
    }
}