{
    "cas_no": "77732-09-3",
    "key_name": "Oxadixyl",
    "cn_name": "恶霜灵;N-(2,6-二甲基苯基)-N-(2-氧代-1,3-恶唑烷-3-基)-2-甲氧基乙酰胺;",
    "alternate_name": "Acetamide, <em>N</em>-(2,6-dimethylphenyl)-2-methoxy-<em>N</em>-(2-oxo-3-oxazolidinyl)-;<em>N</em>-(2,6-Dimethylphenyl)-2-methoxy-<em>N</em>-(2-oxo-3-oxazolidinyl)acetamide;SAN 371F;Sandofan;Oxadixyl;SAN 371;<em>N</em>-(2-Methoxyacetyl)-<em>N</em>-(2,6-xylyl)-3-amino-1,3-oxazolidin-2-one;M 10797",
    "duplicated_cas_no": "1135441-65-4",
    "SMILES": "N(C(COC)=O)(C1=C(C)C=CC=C1C)N2C(=O)OCC2",
    "meta_data": {
        "InChI": "InChI=1S/C14H18N2O4/c1-10-5-4-6-11(2)13(10)16(12(17)9-19-3)15-7-8-20-14(15)18/h4-6H,7-9H2,1-3H3",
        "InChIKey": null,
        "Canonical SMILES": "O=C1OCCN1N(C(=O)COC)C=2C(=CC=CC2C)C",
        "Molecular Formula": "C<sub>14</sub>H<sub>18</sub>N<sub>2</sub>O<sub>4</sub>",
        "Molecular Mass": "278.30",
        "Melting Point": "104 °C"
    }
}