{
    "cas_no": "930-27-8",
    "key_name": "3-Methylfuran",
    "cn_name": "3-甲基呋喃;",
    "alternate_name": "Furan, 3-methyl-;3-Methylfuran;NSC 346905",
    "duplicated_cas_no": "",
    "SMILES": "CC=1C=COC1",
    "meta_data": {
        "InChI": "InChI=1S/C5H6O/c1-5-2-3-6-4-5/h2-4H,1H3",
        "InChIKey": null,
        "Canonical SMILES": "O1C=CC(=C1)C",
        "Molecular Formula": "C<sub>5</sub>H<sub>6</sub>O",
        "Molecular Mass": "82.10",
        "Boiling Point": "66 °C",
        "Density": "0.923 g/cm³ @ Temp: 18 °C"
    }
}