{
    "cas_no": "9004-39-1",
    "key_name": "Acetylpropionylcellulose",
    "cn_name": null,
    "alternate_name": "Cellulose, acetate propanoate;Cellulose, acetate propionate;Cellulose acetate-propionate mixed ester;Acetylpropionylcellulose;CAP 141;CAP 482;CAP 242-0.5;E 504;CAP 504-02;CAP 482-0.5;307E;CP-M;Cabloid CP-M;PLFS 130;Tenite Propionate 361A2R300-10;CAP-H 4;CAP-MH;CAP-S 2;CAP 482-2.0;307E09;Tenite 371-12;CAP 482-0.2;CAP 504-0.2;CAP 540-0.2;CAP 482-20;Tenite Propionate 360A40009;KC 8NTACS;CAP 141-20;KA;CAP 360;CAP 481-20;Tenite Propionate 360A;E 504 (cellulose deriv.);Tenite 371A4861316;Tenite 371A4000012;CAB 504-0.2;Tenite Propionate 307E40000-09;Tenite Propionate 371A4000012;CAB 482;TP 360A40000-12;CAP 30735-603-121A;CAP 480-20;Eastman CAP 482-20;CAP;CAP 554-0.2;CAP 482-3;CAP 202-29;Tenite Propionate 380A4000015;CAP 48205;Tenite Propionate 360A4000012;GC 6021;Treva GC 6021;CE 26627;Cellidor CP 400-08;Treva GC 6011;Blueridge T 160;Cellidor CP 300-13;CAP 485-20",
    "duplicated_cas_no": "251903-03-4",
    "SMILES": "",
    "meta_data": {
        "InChI": "",
        "InChIKey": null,
        "Canonical SMILES": "",
        "Molecular Formula": "C<sub>3</sub>H<sub>6</sub>O<sub>2</sub>.xC<sub>2</sub>H<sub>4</sub>O<sub>2</sub>.xUnspecified",
        "Molecular Mass": "",
        "Melting Point": "230-260 °C",
        "Density": "1.23 g/cm³ @ Temp: 25 °C"
    }
}