{
    "cas_no": "89-63-4",
    "key_name": "4-Chloro-2-nitroaniline",
    "cn_name": "4-氯-2-硝基苯胺;",
    "alternate_name": "Benzenamine, 4-chloro-2-nitro-;Aniline, 4-chloro-2-nitro-;4-Chloro-2-nitrobenzenamine;Azoene Fast Red 3GL Base;<em>p</em>-Chloro-<em>o</em>-nitroaniline;Daito Red Base 3GL;Devol Red F;Diazo Fast Red 3GL;Fast Red 2NC Base;Fast Red 3GL Base;Fast Red Base 3JL;Fast Red 3GL Special Base;Hiltonil Fast Red 3GL Base;Kayaku Fast Red 3GL Base;Mitsui Red 3GL Base;Naphthanil Red 3G Base;Naphtoelan Fast Red 3GL Base;PCON;PCONA;Red 3G base;Red Base Ciba VI;Red Base 3GL;Red Base Irga VI;Shinnippon Fast Red 3GL Base;4-Chloro-2-nitroaniline;2-Nitro-4-chloroaniline;1-Amino-2-nitro-4-chlorobenzene;NSC 3546;(4-Chloro-2-nitrophenyl)amine",
    "duplicated_cas_no": "",
    "SMILES": "N(=O)(=O)C1=C(N)C=CC(Cl)=C1",
    "meta_data": {
        "InChI": "InChI=1S/C6H5ClN2O2/c7-4-1-2-5(8)6(3-4)9(10)11/h1-3H,8H2",
        "InChIKey": null,
        "Canonical SMILES": "O=N(=O)C1=CC(Cl)=CC=C1N",
        "Molecular Formula": "C<sub>6</sub>H<sub>5</sub>ClN<sub>2</sub>O<sub>2</sub>",
        "Molecular Mass": "172.57",
        "Boiling Point": "135-137 °C @ Press: 2 x 10<sup>-4</sup> Torr",
        "Melting Point": "116-117 °C"
    }
}