{
    "cas_no": "697739-03-0",
    "key_name": "Benzoic acid, 5-fluoro-2-methyl-3-nitro-, methyl ester",
    "cn_name": null,
    "alternate_name": "Benzoic acid, 5-fluoro-2-methyl-3-nitro-, methyl ester;Methyl 5-fluoro-2-methyl-3-nitrobenzoate;5-Fluoro-2-methyl-3-nitrobenzoic acid methyl ester;Methyl 2-methyl-5-fluoro-3-nitrobenzoate",
    "duplicated_cas_no": "",
    "SMILES": "C(OC)(=O)C1=C(C)C(N(=O)=O)=CC(F)=C1",
    "meta_data": {
        "InChI": "InChI=1S/C9H8FNO4/c1-5-7(9(12)15-2)3-6(10)4-8(5)11(13)14/h3-4H,1-2H3",
        "InChIKey": null,
        "Canonical SMILES": "O=C(OC)C1=CC(F)=CC(=C1C)N(=O)=O",
        "Molecular Formula": "C<sub>9</sub>H<sub>8</sub>FNO<sub>4</sub>",
        "Molecular Mass": "213.16",
        "Melting Point": "69 °C"
    }
}