{
    "cas_no": "4906-22-3",
    "key_name": "3,3′,5,5′-Tetramethyl-4,4′-diphenoquinone",
    "cn_name": "3,3\"5,5\"-四甲基-4,4\"-联苯醌;4-(3,5-二甲基-4-氧代-2,5-环己二烯-1-基)-2,6-二甲基-2,5-环己二烯-1-酮;",
    "alternate_name": "2,5-Cyclohexadien-1-one, 4-(3,5-dimethyl-4-oxo-2,5-cyclohexadien-1-ylidene)-2,6-dimethyl-;[Bi-2,5-cyclohexadien-1-ylidene]-4,4′-dione, 3,3′,5,5′-tetramethyl-;Diphenoquinone, 3,3′,5,5′-tetramethyl-;4-(3,5-Dimethyl-4-oxo-2,5-cyclohexadien-1-ylidene)-2,6-dimethyl-2,5-cyclohexadien-1-one;3,3′,5,5′-Tetramethyl-4,4′-diphenoquinone;3,3′,5,5′-Tetramethyldiphenoquinone;2,2′,6,6′-Tetramethyldiphenylquinone;3,3′,5,5′-Tetramethyl-4,4′-biphenoquinone;2,2′,6,6′-Tetramethyldiphenoquinone;2,6,2′,6′-Tetramethyldiphenoquinone;NSC 93973;3,3′,5,5′-Tertramethyl-4,4′-diphenoquinone",
    "duplicated_cas_no": "19358-55-5;41395-97-5;83467-99-6;141339-04-0;142763-32-4",
    "SMILES": "CC1=CC(C=C(C)C1=O)=C2C=C(C)C(=O)C(C)=C2",
    "meta_data": {
        "InChI": "InChI=1S/C16H16O2/c1-9-5-13(6-10(2)15(9)17)14-7-11(3)16(18)12(4)8-14/h5-8H,1-4H3",
        "InChIKey": null,
        "Canonical SMILES": "O=C1C(=CC(C=C1C)=C2C=C(C(=O)C(=C2)C)C)C",
        "Molecular Formula": "C<sub>16</sub>H<sub>16</sub>O<sub>2</sub>",
        "Molecular Mass": "240.30",
        "Melting Point": "210-215 °C"
    }
}