{
    "cas_no": "51264-14-3",
    "key_name": "Amsacrine",
    "cn_name": "安吖啶;胺苯吖啶;N-[4-(9-吖啶基氨基)-3-甲氧基苯基]甲磺酰胺;",
    "alternate_name": "Methanesulfonamide, <em>N</em>-[4-(9-acridinylamino)-3-methoxyphenyl]-;<em>N</em>-[4-(9-Acridinylamino)-3-methoxyphenyl]methanesulfonamide;4′-(9-Acridinylamino)methanesulfon-<em>m</em>-anisidide;NSC 249992;AMSA;Amsacrine;Acridinylanisidide;NSC 156303;Amsidine;<em>m</em>-Amsacrine;<em>m</em>-AMSA;m-AMSA;SN 21429;Amsidil;Amsidyl;CI 880;SN 11841;Lamasine;Amekrin;Amsalyo;PH 006888;MeSH ID: D000677",
    "duplicated_cas_no": "",
    "SMILES": "N(C=1C2=C(N=C3C1C=CC=C3)C=CC=C2)C4=C(OC)C=C(NS(C)(=O)=O)C=C4",
    "meta_data": {
        "InChI": "InChI=1S/C21H19N3O3S/c1-27-20-13-14(24-28(2,25)26)11-12-19(20)23-21-15-7-3-5-9-17(15)22-18-10-6-4-8-16(18)21/h3-13,24H,1-2H3,(H,22,23)",
        "InChIKey": null,
        "Canonical SMILES": "O=S(=O)(NC1=CC=C(NC=2C=3C=CC=CC3N=C4C=CC=CC42)C(OC)=C1)C",
        "Molecular Formula": "C<sub>21</sub>H<sub>19</sub>N<sub>3</sub>O<sub>3</sub>S",
        "Molecular Mass": "393.46",
        "Melting Point": "230-240 °C"
    }
}