{
    "cas_no": "21245-02-3",
    "key_name": "4-(Dimethylamino)benzoic acid 2-ethylhexyl ester",
    "cn_name": "对二甲氨基苯甲酸异辛酯;",
    "alternate_name": "Benzoic acid, 4-(dimethylamino)-, 2-ethylhexyl ester;Benzoic acid, <em>p</em>-(dimethylamino)-, 2-ethylhexyl ester;Escalol 507;2-Ethylhexyl 4-(<em>N</em>,<em>N</em>-dimethylamino)benzoate;2-Ethylhexyl <em>p</em>-(dimethylamino)benzoate;Padimate O;2-Ethylhexyl <em>N</em>,<em>N</em>-dimethyl-<em>p</em>-aminobenzoate;2-Ethylhexyl 4-(dimethylamino)benzoate;2-Ethylhexyl <em>p</em>-(<em>N</em>,<em>N</em>-dimethylamino)benzoate;Arlatone UVB;Eusolex 6007;Quantacure EHA;Octyl dimethyl PABA;4-(Dimethylamino)benzoic acid 2-ethylhexyl ester;EHDAB;Esacure EHA;Speedcure EHA;Omnirad EHA;Genocure EHA;ODPABA;Chivacure OPD;Chemcure EHA;Ethylhexyl dimethyl paba;Gencure EHA",
    "duplicated_cas_no": "127361-11-9;676261-74-8",
    "SMILES": "C(OCC(CCCC)CC)(=O)C1=CC=C(N(C)C)C=C1",
    "meta_data": {
        "InChI": "InChI=1S/C17H27NO2/c1-5-7-8-14(6-2)13-20-17(19)15-9-11-16(12-10-15)18(3)4/h9-12,14H,5-8,13H2,1-4H3",
        "InChIKey": null,
        "Canonical SMILES": "O=C(OCC(CC)CCCC)C1=CC=C(C=C1)N(C)C",
        "Molecular Formula": "C<sub>17</sub>H<sub>27</sub>NO<sub>2</sub>",
        "Molecular Mass": "277.40",
        "Melting Point": "242.5-243.5 °C"
    }
}