{
    "cas_no": "701-54-2",
    "key_name": "4-(Aminomethyl)cyclohexanecarboxylic acid",
    "cn_name": "凝血酸;氨甲环酸;4-(氨基甲基)环己烷羧酸;",
    "alternate_name": "Cyclohexanecarboxylic acid, 4-(aminomethyl)-;4-(Aminomethyl)cyclohexanecarboxylic acid;AMCA;4-(Aminomethyl)-1-cyclohexanecarboxylic acid;1-(Aminomethyl)cyclohexane-4-carboxylic acid;<em>p</em>-(Aminomethyl)cyclohexanecarboxylic acid",
    "duplicated_cas_no": "1510-00-5;21573-60-4",
    "SMILES": "C(O)(=O)C1CCC(CN)CC1",
    "meta_data": {
        "InChI": "InChI=1S/C8H15NO2/c9-5-6-1-3-7(4-2-6)8(10)11/h6-7H,1-5,9H2,(H,10,11)",
        "InChIKey": null,
        "Canonical SMILES": "O=C(O)C1CCC(CN)CC1",
        "Molecular Formula": "C<sub>8</sub>H<sub>15</sub>NO<sub>2</sub>",
        "Molecular Mass": "157.21",
        "Melting Point": "237-240 °C"
    }
}