{
    "cas_no": "79669-50-4",
    "key_name": "Methyl 5-bromo-2-methylbenzoate",
    "cn_name": "2-甲基-5-溴苯甲酸甲酯;",
    "alternate_name": "Benzoic acid, 5-bromo-2-methyl-, methyl ester;<em>o</em>-Toluic acid, 5-bromo-, methyl ester;Methyl 5-bromo-<em>o</em>-toluate;Methyl 3-bromo-6-methylbenzoate;Methyl 5-bromo-2-methylbenzoate;NSC 243705;5-Bromo-2-methylbenzoic acid methyl ester",
    "duplicated_cas_no": "",
    "SMILES": "C(OC)(=O)C1=C(C)C=CC(Br)=C1",
    "meta_data": {
        "InChI": "InChI=1S/C9H9BrO2/c1-6-3-4-7(10)5-8(6)9(11)12-2/h3-5H,1-2H3",
        "InChIKey": null,
        "Canonical SMILES": "O=C(OC)C1=CC(Br)=CC=C1C",
        "Molecular Formula": "C<sub>9</sub>H<sub>9</sub>BrO<sub>2</sub>",
        "Molecular Mass": "229.07",
        "Melting Point": "45-47 °C"
    }
}