{
    "cas_no": "7424-91-1",
    "key_name": "Methyl 3,3-dimethoxypropionate",
    "cn_name": "3,3-二甲氧基丙酸甲酯;",
    "alternate_name": "Propanoic acid, 3,3-dimethoxy-, methyl ester;Malonaldehydic acid, methyl ester dimethyl acetal;Propionic acid, 3,3-dimethoxy-, methyl ester;Methyl 3,3-dimethoxypropionate;Methyl β,β-dimethoxypropionate;Methyl formylacetate dimethyl acetal;Methyl 3,3-dimethoxypropanoate;3,3-Dimethoxypropionic acid methyl ester;NSC 92715;Methyl 3,3-bis(methoxy)propanoate",
    "duplicated_cas_no": "",
    "SMILES": "C(CC(OC)=O)(OC)OC",
    "meta_data": {
        "InChI": "InChI=1S/C6H12O4/c1-8-5(7)4-6(9-2)10-3/h6H,4H2,1-3H3",
        "InChIKey": null,
        "Canonical SMILES": "O=C(OC)CC(OC)OC",
        "Molecular Formula": "C<sub>6</sub>H<sub>12</sub>O<sub>4</sub>",
        "Molecular Mass": "148.16",
        "Boiling Point": "77 °C @ Press: 20 Torr",
        "Density": "1.0445 g/cm³ @ Temp: 20 °C"
    }
}