{
    "cas_no": "153433-26-2",
    "key_name": "1<em>H</em>-Imidazolium, 2-chloro-4,5-dihydro-1,3-dimethyl-, tetrafluoroborate(1-) (1:1)",
    "cn_name": null,
    "alternate_name": "1<em>H</em>-Imidazolium, 2-chloro-4,5-dihydro-1,3-dimethyl-, tetrafluoroborate(1-) (1:1);1<em>H</em>-Imidazolium, 2-chloro-4,5-dihydro-1,3-dimethyl-, tetrafluoroborate(1-);2-Chloro-1,3-dimethylimidazolidium tetrafluoroborate;2-Chloro-1,3-dimethyl-4,5-dihydroimidazolium tetrafluoroborate;2-Chloro-1,3-dimethylimidazolidinium tetrafluoroborate",
    "duplicated_cas_no": "",
    "SMILES": "ClC1=[N+](C)CCN1C.[B+3]([F-])([F-])([F-])[F-]",
    "meta_data": {
        "InChI": "InChI=1S/C5H10ClN2.BF4/c1-7-3-4-8(2)5(7)6;2-1(3,4)5/h3-4H2,1-2H3;/q+1;-1",
        "InChIKey": null,
        "Canonical SMILES": "[F-][B+3]([F-])([F-])[F-].ClC=1N(C)CC[N+]1C",
        "Molecular Formula": "C<sub>5</sub>H<sub>10</sub>ClN<sub>2</sub>.BF<sub>4</sub>",
        "Molecular Mass": "",
        "Melting Point": "140-150 °C"
    }
}