{
    "cas_no": "111-17-1",
    "key_name": "Thiodipropionic acid",
    "cn_name": "硫代二丙酸;",
    "alternate_name": "Propanoic acid, 3,3′-thiobis-;Propionic acid, 3,3′-thiodi-;3,3′-Thiobis[propanoic acid\\];Diethyl sulfide 2,2′-dicarboxylic acid;TDPA;4-Thiaheptanedioic acid;Thiodihydracrylic acid;β,β′-Thiodipropionic acid;3,3′-Thiodipropionic acid;Tyox A;Thiodipropionic acid;3,3′-Thiodipropanoic acid;Bis(2-carboxyethyl) sulfide;NSC 65523;NSC 8166;Antioxidant 39620;3-[(2-Carboxyethyl)sulfanyl]propanoic acid",
    "duplicated_cas_no": "",
    "SMILES": "C(CC(O)=O)SCCC(O)=O",
    "meta_data": {
        "InChI": "InChI=1S/C6H10O4S/c7-5(8)1-3-11-4-2-6(9)10/h1-4H2,(H,7,8)(H,9,10)",
        "InChIKey": null,
        "Canonical SMILES": "O=C(O)CCSCCC(=O)O",
        "Molecular Formula": "C<sub>6</sub>H<sub>10</sub>O<sub>4</sub>S",
        "Molecular Mass": "178.21",
        "Melting Point": "134 °C"
    }
}