{
    "cas_no": "153733-75-6",
    "key_name": "2-Methyl-7-phenylindene",
    "cn_name": null,
    "alternate_name": "1<em>H</em>-Indene, 2-methyl-7-phenyl-;2-Methyl-7-phenyl-1<em>H</em>-indene;2-Methyl-7-phenylindene",
    "duplicated_cas_no": "",
    "SMILES": "CC=1CC2=C(C=CC=C2C1)C3=CC=CC=C3",
    "meta_data": {
        "InChI": "InChI=1S/C16H14/c1-12-10-14-8-5-9-15(16(14)11-12)13-6-3-2-4-7-13/h2-10H,11H2,1H3",
        "InChIKey": null,
        "Canonical SMILES": "C=1C=CC(=CC1)C2=CC=CC=3C=C(C)CC32",
        "Molecular Formula": "C<sub>16</sub>H<sub>14</sub>",
        "Molecular Mass": "206.28",
        "Boiling Point": "138-140 °C @ Press: 1 mmHg"
    }
}