{
    "cas_no": "1444-05-9",
    "key_name": "Propanedioic acid, 2,2-bis(2-cyanoethyl)-, 1,3-diethyl ester",
    "cn_name": "双(2-氰乙基)丙二酸二乙酯;双氰乙基丙二酸二乙酯;",
    "alternate_name": "Propanedioic acid, 2,2-bis(2-cyanoethyl)-, 1,3-diethyl ester;Malonic acid, bis(2-cyanoethyl)-, diethyl ester;Propanedioic acid, bis(2-cyanoethyl)-, diethyl ester;Diethyl bis(2-cyanoethyl)malonate;NSC 3669;Diethyl 2,2-bis(2-cyanoethyl)malonate;2,2-Bis-(2-cyano-ethyl)-malonic acid diethyl ester;1,3-Diethyl 2,2-bis(2-cyanoethyl)propanedioate",
    "duplicated_cas_no": "",
    "SMILES": "C(C(OCC)=O)(C(OCC)=O)(CCC#N)CCC#N",
    "meta_data": {
        "InChI": "InChI=1S/C13H18N2O4/c1-3-18-11(16)13(7-5-9-14,8-6-10-15)12(17)19-4-2/h3-8H2,1-2H3",
        "InChIKey": null,
        "Canonical SMILES": "N#CCCC(C(=O)OCC)(C(=O)OCC)CCC#N",
        "Molecular Formula": "C<sub>13</sub>H<sub>18</sub>N<sub>2</sub>O<sub>4</sub>",
        "Molecular Mass": "266.29",
        "Boiling Point": "210-212 °C @ Press: 5 Torr",
        "Melting Point": "62 °C"
    }
}