{
    "cas_no": "908-54-3",
    "key_name": "Berenil",
    "cn_name": "二乙酰胺三氮脒;二脒基重氮氨基苯二乙尿酸;",
    "alternate_name": "Glycine, <em>N</em>-acetyl-, compd. with 4,4′-(1-triazene-1,3-diyl)bis[benzenecarboximidamide] (2:1);Glycine, <em>N</em>-acetyl-, compd. with 4,4′-(diazoamino)dibenzamidine (2:1);Glycine, <em>N</em>-acetyl-, compd. with 4,4′-(azoamino)dibenzamidine;Benzamidine, 4,4′-diazoaminodi-, diaceturate;Benzamidine, 4,4′-(diazoamino)di-, compd. with <em>N</em>-acetylglycine (1:2);Benzenecarboximidamide, 4,4′-(1-triazene-1,3-diyl)bis-, compd. with <em>N</em>-acetylglycine (1:2);Azidin;Azidine;Di-(4-amidinophenyl)-triazine-(<em>N</em>-1,3)-diaceturate;Berenil;Diminazene diaceturate;Diminazene aceturate;Diminazine aceturate;4,4′-Diamidinodiazoaminobenzene diaceturate;4,4′-(Diazoamino)dibenzamidine diaceturate;1,3-Bis(<em>p</em>-amidinophenyl)triazene bis(<em>N</em>-acetylglycinate);1,3-Bis[4-guanylphenyl]triazene diaceturate;<em>p</em>,<em>p</em>′-Diguanyldiazoaminobenzene diaceturate;Ganasag;Ganaseg;Beronal;Diaminazene aceturate;Veriben;Diminazine diaceturate;Diminasan;Fatrybanil;Tricip Plus;Neozidin-M",
    "duplicated_cas_no": "859758-13-7",
    "SMILES": "C(NC(C)=O)C(O)=O.C(=N)(N)C1=CC=C(N=NNC2=CC=C(C(=N)N)C=C2)C=C1",
    "meta_data": {
        "InChI": "InChI=1S/C14H15N7.C4H7NO3/c15-13(16)9-1-5-11(6-2-9)19-21-20-12-7-3-10(4-8-12)14(17)18;1-3(6)5-2-4(7)8/h1-8H,(H3,15,16)(H3,17,18)(H,19,20);2H2,1H3,(H,5,6)(H,7,8)",
        "InChIKey": null,
        "Canonical SMILES": "O=C(O)CNC(=O)C.N=C(N)C1=CC=C(N=NNC2=CC=C(C=C2)C(=N)N)C=C1",
        "Molecular Formula": "C<sub>14</sub>H<sub>15</sub>N<sub>7</sub>.2C<sub>4</sub>H<sub>7</sub>NO<sub>3</sub>",
        "Molecular Mass": "",
        "Melting Point": "202 °C"
    }
}