{
    "cas_no": "611-14-3",
    "key_name": "1-Ethyl-2-methylbenzene",
    "cn_name": "邻乙基甲苯;1-乙基-2-甲基苯;",
    "alternate_name": "Benzene, 1-ethyl-2-methyl-;Toluene, <em>o</em>-ethyl-;1-Ethyl-2-methylbenzene;2-Ethyltoluene;1-Methyl-2-ethylbenzene;<em>o</em>-Ethyltoluene;<em>o</em>-Methylethylbenzene;<em>o</em>-Ethylmethylbenzene;2-Methylethylbenzene;NSC 405731;2-Methyl-1-ethylbenzene",
    "duplicated_cas_no": "",
    "SMILES": "C(C)C1=C(C)C=CC=C1",
    "meta_data": {
        "InChI": "InChI=1S/C9H12/c1-3-9-7-5-4-6-8(9)2/h4-7H,3H2,1-2H3",
        "InChIKey": null,
        "Canonical SMILES": "C=1C=CC(=C(C1)C)CC",
        "Molecular Formula": "C<sub>9</sub>H<sub>12</sub>",
        "Molecular Mass": "120.19",
        "Boiling Point": "165.2 °C",
        "Melting Point": "-80.8 °C",
        "Density": "0.8841 g/cm³ @ Temp: 15.700009765625 °C"
    }
}