{
    "cas_no": "244-76-8",
    "key_name": "9<em>H</em>-Pyrido[2,3-<em>b</em>]indole",
    "cn_name": null,
    "alternate_name": "9<em>H</em>-Pyrido[2,3-<em>b</em>]indole;1<em>H</em>-Pyrido[2,3-<em>b</em>]indole;1,9-Diazafluorene;α-Carboline;1-Azacarbazole;9<em>H</em>-1,9-Diazafluorene;NSC 67064;<em>N</em>-α-Carboline",
    "duplicated_cas_no": "857199-94-1;192777-60-9",
    "SMILES": "C1=2C=3C(NC1=CC=CC2)=NC=CC3",
    "meta_data": {
        "InChI": "InChI=1S/C11H8N2/c1-2-6-10-8(4-1)9-5-3-7-12-11(9)13-10/h1-7H,(H,12,13)",
        "InChIKey": null,
        "Canonical SMILES": "N1=CC=CC2=C1NC3=CC=CC=C32",
        "Molecular Formula": "C<sub>11</sub>H<sub>8</sub>N<sub>2</sub>",
        "Molecular Mass": "168.19",
        "Melting Point": "210 °C"
    }
}