{
    "cas_no": "622-61-7",
    "key_name": "1-Chloro-4-ethoxybenzene",
    "cn_name": "对氯乙氧基苯;",
    "alternate_name": "Benzene, 1-chloro-4-ethoxy-;Phenetole, <em>p</em>-chloro-;1-Chloro-4-ethoxybenzene;<em>p</em>-Chlorophenetole;4-Chlorophenol ethyl ether;<em>p</em>-Chlorophenyl ethyl ether;<em>p</em>-Ethoxychlorobenzene;4-Chlorophenetole;4-Chloroethoxybenzene;4-Ethoxychlorobenzene;NSC 6161",
    "duplicated_cas_no": "",
    "SMILES": "O(CC)C1=CC=C(Cl)C=C1",
    "meta_data": {
        "InChI": "InChI=1S/C8H9ClO/c1-2-10-8-5-3-7(9)4-6-8/h3-6H,2H2,1H3",
        "InChIKey": null,
        "Canonical SMILES": "ClC1=CC=C(OCC)C=C1",
        "Molecular Formula": "C<sub>8</sub>H<sub>9</sub>ClO",
        "Molecular Mass": "156.61",
        "Boiling Point": "213 °C",
        "Melting Point": "21 °C"
    }
}