{
    "cas_no": "3641-13-2",
    "key_name": "3-Amino-1,2,4-triazole-5-carboxylic acid",
    "cn_name": "3-氨基三氮唑-5-羧酸;5-氨基-1H-1,2,4-三氮唑-3-羧酸;",
    "alternate_name": "1<em>H</em>-1,2,4-Triazole-3-carboxylic acid, 5-amino-;<em>s</em>-Triazole-3-carboxylic acid, 5-amino-;5-Amino-1<em>H</em>-1,2,4-triazole-3-carboxylic acid;3-Amino-1,2,4-triazole-5-carboxylic acid;3-Amino-5-carboxy-1,2,4-triazole;5-Carboxy-2-amino-1,3,4-triazole;2-Amino-5-carboxy-1,3,4-triazole;NSC 164710;NSC 513580;3-Amino-1<em>H</em>-1,2,4-trizole-5-carboxylic acid;5-Amino-2<em>H</em>-1,2,4-triazole-3-carboxylic acid;5-Amino-[1,3,4]triazole-2-carboxylic acid;3-Amino-1<em>H</em>-1,2,4-triazole-5-carboxylic acid;5-Carboxy-3-amino-1,2,4-triazole;5-Amino-1,2,4-triazole-3-carboxylic acid;5-Amino-3-carboxyl-1,2,4-triazole",
    "duplicated_cas_no": "108284-49-7;10054-88-3",
    "SMILES": "C(O)(=O)C=1NC(N)=NN1",
    "meta_data": {
        "InChI": "InChI=1S/C3H4N4O2/c4-3-5-1(2(8)9)6-7-3/h(H,8,9)(H3,4,5,6,7)",
        "InChIKey": null,
        "Canonical SMILES": "O=C(O)C1=NN=C(N)N1",
        "Molecular Formula": "C<sub>3</sub>H<sub>4</sub>N<sub>4</sub>O<sub>2</sub>",
        "Molecular Mass": "128.09",
        "Melting Point": "178 °C"
    }
}