{
    "cas_no": "90-15-3",
    "key_name": "1-Naphthol",
    "cn_name": "a-萘酚;1-萘酚;",
    "alternate_name": "1-Naphthalenol;1-Naphthol;C.I. 76605;BASF Ursol ERN;C.I. Oxidation Base 33;Durafur Developer D;Fouramine ERN;Fourrine 99;Fourrine ERN;Furro ER;1-Hydroxynaphthalene;α-Hydroxynaphthalene;Nako TRB;α-Naphthol;Tertral ERN;Ursol ERN;Zoba ERN;α-Naphthyl alcohol;1-Naphthyl alcohol;Naphthol-1;NSC 9586;Naphthyl-1-ol;5-Hydroxynaphthalene",
    "duplicated_cas_no": "50356-21-3",
    "SMILES": "OC=1C2=C(C=CC1)C=CC=C2",
    "meta_data": {
        "InChI": "InChI=1S/C10H8O/c11-10-7-3-5-8-4-1-2-6-9(8)10/h1-7,11H",
        "InChIKey": null,
        "Canonical SMILES": "OC1=CC=CC=2C=CC=CC12",
        "Molecular Formula": "C<sub>10</sub>H<sub>8</sub>O",
        "Molecular Mass": "144.17",
        "Boiling Point": "288 °C",
        "Melting Point": "96 °C",
        "Density": "1.0954 g/cm³ @ Temp: 98.7 °C"
    }
}