{
    "cas_no": "7791-10-8",
    "key_name": "Strontium chlorate",
    "cn_name": null,
    "alternate_name": "Chloric acid, strontium salt (2:1);Chloric acid, strontium salt;Strontium chlorate;Strontium chlorate (Sr(ClO<sub>3</sub>)<sub>2</sub>)",
    "duplicated_cas_no": "",
    "SMILES": "Cl(=O)(=O)O.[Sr]",
    "meta_data": {
        "InChI": "InChI=1S/ClHO3.Sr/c2-1(3)4;/h(H,2,3,4);",
        "InChIKey": null,
        "Canonical SMILES": "[Sr].O=Cl(=O)O",
        "Molecular Formula": "ClHO<sub>3</sub>.<sup>1</sup>/<sub>2</sub>Sr",
        "Molecular Mass": "",
        "Melting Point": "120 °C (decomp)",
        "Density": "3.15 g/cm³"
    }
}