{
    "cas_no": "63208-82-2",
    "key_name": "Pifithrin",
    "cn_name": "2-(2-亚氨基-4,5,6,7-四氢苯并噻唑-3-基)-1-P-苯甲基乙酮氢溴酸盐;",
    "alternate_name": "Ethanone, 1-(4-methylphenyl)-2-(4,5,6,7-tetrahydro-2-imino-3(2<em>H</em>)-benzothiazolyl)-, hydrobromide (1:1);Ethanone, 1-(4-methylphenyl)-2-(4,5,6,7-tetrahydro-2-imino-3(2<em>H</em>)-benzothiazolyl)-, monohydrobromide;Pifithrin-α;Pifithrin",
    "duplicated_cas_no": "",
    "SMILES": "C(C(=O)C1=CC=C(C)C=C1)N2C3=C(SC2=N)CCCC3.Br",
    "meta_data": {
        "InChI": "InChI=1S/C16H18N2OS.BrH/c1-11-6-8-12(9-7-11)14(19)10-18-13-4-2-3-5-15(13)20-16(18)17;/h6-9,17H,2-5,10H2,1H3;1H",
        "InChIKey": null,
        "Canonical SMILES": "Br.O=C(C1=CC=C(C=C1)C)CN2C(=N)SC3=C2CCCC3",
        "Molecular Formula": "C<sub>16</sub>H<sub>18</sub>N<sub>2</sub>OS.BrH",
        "Molecular Mass": "",
        "Melting Point": "180 °C"
    }
}