{
    "cas_no": "1603-41-4",
    "key_name": "2-Amino-5-methylpyridine",
    "cn_name": "2-氨基-5-甲基吡啶;",
    "alternate_name": "2-Pyridinamine, 5-methyl-;3-Picoline, 6-amino-;5-Methyl-2-pyridinamine;2-Amino-5-methylpyridine;5-Methyl-2-pyridylamine;5-Methyl-2-aminopyridine;2-Amino-5-picoline;(5-Methylpyridin-2-yl)amine;NSC 1489;NSC 96444;6-Amino-3-picoline",
    "duplicated_cas_no": "",
    "SMILES": "CC=1C=CC(N)=NC1",
    "meta_data": {
        "InChI": "InChI=1S/C6H8N2/c1-5-2-3-6(7)8-4-5/h2-4H,1H3,(H2,7,8)",
        "InChIKey": null,
        "Canonical SMILES": "N=1C=C(C=CC1N)C",
        "Molecular Formula": "C<sub>6</sub>H<sub>8</sub>N<sub>2</sub>",
        "Molecular Mass": "108.14",
        "Boiling Point": "227 °C",
        "Melting Point": "76.5 °C"
    }
}