{
    "cas_no": "6573-11-1",
    "key_name": "1,4,7-Trithiacyclononane",
    "cn_name": "1,4,7-三硫环壬烷;1,4,7-三硫环壬烷;",
    "alternate_name": "1,4,7-Trithionane;1,4,7-Trithiacyclononane;9-Thiacrown-3;NSC 650798",
    "duplicated_cas_no": "",
    "SMILES": "C1CSCCSCCS1",
    "meta_data": {
        "InChI": "InChI=1S/C6H12S3/c1-2-8-5-6-9-4-3-7-1/h1-6H2",
        "InChIKey": null,
        "Canonical SMILES": "S1CCSCCSCC1",
        "Molecular Formula": "C<sub>6</sub>H<sub>12</sub>S<sub>3</sub>",
        "Molecular Mass": "180.35",
        "Boiling Point": "79-80 °C @ Press: 760 Torr"
    }
}