{
    "cas_no": "10486-19-8",
    "key_name": "Tridecanal",
    "cn_name": "十三醛;",
    "alternate_name": "Tridecanal;Tridecyl aldehyde;<em>n</em>-Tridecylaldehyde;Tridecanaldehyde;<em>n</em>-Tridecanal;Aldehyde 13-13",
    "duplicated_cas_no": "",
    "SMILES": "C(CCCCCC=O)CCCCCC",
    "meta_data": {
        "InChI": "InChI=1S/C13H26O/c1-2-3-4-5-6-7-8-9-10-11-12-13-14/h13H,2-12H2,1H3",
        "InChIKey": null,
        "Canonical SMILES": "O=CCCCCCCCCCCCC",
        "Molecular Formula": "C<sub>13</sub>H<sub>26</sub>O",
        "Molecular Mass": "198.34",
        "Boiling Point": "126-138 °C @ Press: 15 Torr",
        "Melting Point": "14 °C"
    }
}