{
    "cas_no": "2984-50-1",
    "key_name": "2-Hexyloxirane",
    "cn_name": "1,2-环氧-7-辛烷;氧化辛烯;环氧辛烷;1，2-环氧已烷;1,2-环氧-7-辛烷;环氧辛烷;",
    "alternate_name": "Oxirane, 2-hexyl-;Octane, 1,2-epoxy-;Oxirane, hexyl-;2-Hexyloxirane;1,2-Epoxyoctane;Octene-1,2-oxide;1,2-Epoxy-<em>n</em>-octane;1-Octene oxide;<em>n</em>-Octene-1,2-oxide;1-Octene epoxide;Octane 1,2-oxide;α-Epoxyoctane;<em>n</em>-Hexyloxirane;1,2-Octylene oxide;1,2-Epoxyoctene;Hexyloxirane;(±)-1,2-Epoxyoctane;NSC 24246",
    "duplicated_cas_no": "77549-73-6",
    "SMILES": "C(CCCCC)C1CO1",
    "meta_data": {
        "InChI": "InChI=1S/C8H16O/c1-2-3-4-5-6-8-7-9-8/h8H,2-7H2,1H3",
        "InChIKey": null,
        "Canonical SMILES": "O1CC1CCCCCC",
        "Molecular Formula": "C<sub>8</sub>H<sub>16</sub>O",
        "Molecular Mass": "128.21",
        "Boiling Point": "61 °C @ Press: 15 Torr",
        "Density": "0.839 g/cm³ @ Temp: 20 °C"
    }
}