{
    "cas_no": "14294-10-1",
    "key_name": "4-Morpholinecarbothioamide",
    "cn_name": null,
    "alternate_name": "4-Morpholinecarbothioamide;4-Morpholinecarboxamide, thio-;<em>N</em>-Morpholinothioamide;4-Morpholinethiocarboxamide;Morpholine-<em>N</em>-carbothioamide;4-Thiocarbamoylmorpholine;4-(Aminothiocarbonyl)morpholine;Morpholinothiourea;NSC 191802;Morpholine-4-carbothioic acid amide",
    "duplicated_cas_no": "",
    "SMILES": "C(N)(=S)N1CCOCC1",
    "meta_data": {
        "InChI": "InChI=1S/C5H10N2OS/c6-5(9)7-1-3-8-4-2-7/h1-4H2,(H2,6,9)",
        "InChIKey": null,
        "Canonical SMILES": "S=C(N)N1CCOCC1",
        "Molecular Formula": "C<sub>5</sub>H<sub>10</sub>N<sub>2</sub>OS",
        "Molecular Mass": "146.21",
        "Melting Point": "111.5-112.5 °C"
    }
}