{
    "cas_no": "124004-75-7",
    "key_name": "2,2,2-Trifluoro-1-(2-fluorophenyl)ethanone",
    "cn_name": null,
    "alternate_name": "Ethanone, 2,2,2-trifluoro-1-(2-fluorophenyl)-;2,2,2-Trifluoro-1-(2-fluorophenyl)ethanone;2-Fluorophenyl trifluoromethyl ketone;2,2,2-Trifluoro-1-(2-fluorophenyl)ethan-1-one",
    "duplicated_cas_no": "",
    "SMILES": "C(C(F)(F)F)(=O)C1=C(F)C=CC=C1",
    "meta_data": {
        "InChI": "InChI=1S/C8H4F4O/c9-6-4-2-1-3-5(6)7(13)8(10,11)12/h1-4H",
        "InChIKey": null,
        "Canonical SMILES": "O=C(C=1C=CC=CC1F)C(F)(F)F",
        "Molecular Formula": "C<sub>8</sub>H<sub>4</sub>F<sub>4</sub>O",
        "Molecular Mass": "192.11",
        "Boiling Point": "40-42 °C @ Press: 0.069 Torr"
    }
}