{
    "cas_no": "935-92-2",
    "key_name": "Trimethylbenzoquinone",
    "cn_name": "2,3,5-三甲基-2,5-环己二烯-1,4-二酮;2,3,5-三甲基-1,4-苯醌;",
    "alternate_name": "2,5-Cyclohexadiene-1,4-dione, 2,3,5-trimethyl-;<em>p</em>-Benzoquinone, 2,3,5-trimethyl-;Benzoquinone, trimethyl-;<em>p</em>-Benzoquinone, trimethyl-;2,3,5-Trimethyl-2,5-cyclohexadiene-1,4-dione;Cumoquinone;<em>p</em>-Pseudocumoquinone;Trimethylbenzoquinone;2,3,5-Trimethyl-<em>p</em>-benzoquinone;2,3,5-Trimethyl-1,4-benzoquinone;ψ-Cumoquinone;Trimethyl-<em>p</em>-benzoquinone;Trimethyl-<em>p</em>-quinone;2,3,5-Trimethylbenzoquinone;2,3,6-Trimethyl-<em>p</em>-benzoquinone;2,3,6-Trimethylbenzoquinone;2,3,5-Trimethylquinone;Trimethyl-1,4-benzoquinone;Trimethylquinone;2,3,6-Trimethyl-1,4-benzoquinone;NSC 93919;1,4-Cyclohexanedione, 2,3,5-trimethyl-",
    "duplicated_cas_no": "116760-58-8",
    "SMILES": "CC1=C(C)C(=O)C(C)=CC1=O",
    "meta_data": {
        "InChI": "InChI=1S/C9H10O2/c1-5-4-8(10)6(2)7(3)9(5)11/h4H,1-3H3",
        "InChIKey": null,
        "Canonical SMILES": "O=C1C=C(C(=O)C(=C1C)C)C",
        "Molecular Formula": "C<sub>9</sub>H<sub>10</sub>O<sub>2</sub>",
        "Molecular Mass": "150.17",
        "Boiling Point": "108 °C @ Press: 18 Torr",
        "Melting Point": "36 °C"
    }
}