{
    "cas_no": "6651-36-1",
    "key_name": "1-(Trimethylsiloxy)cyclohexene",
    "cn_name": "1-环己烯氧基三甲基硅烷;1-(三甲基硅氧基)环己烯;",
    "alternate_name": "Cyclohexene, 1-[(trimethylsilyl)oxy]-;Silane, (1-cyclohexen-1-yloxy)trimethyl-;1-[(Trimethylsilyl)oxy]cyclohexene;1-(Trimethylsilyloxy)cyclohexene;1-(Trimethylsiloxy)-1-cyclohexene;α-(Trimethylsiloxy)cyclohexene;1-(Trimethylsiloxy)cyclohexene;(1-Cyclohexen-1-yloxy)trimethylsilane;(Cyclohex-1-enyloxy)trimethylsilane;1-Cyclohexenol trimethylsilyl ether;Cyclohexanone enol trimethylsilyl ether;1-(Trimethylsilyloxy)-1-cyclohexene;1-Cyclohexenyl trimethylsilyl ether;Cyclohexanone trimethylsilyl enol ether",
    "duplicated_cas_no": "",
    "SMILES": "O([Si](C)(C)C)C=1CCCCC1",
    "meta_data": {
        "InChI": "InChI=1S/C9H18OSi/c1-11(2,3)10-9-7-5-4-6-8-9/h7H,4-6,8H2,1-3H3",
        "InChIKey": null,
        "Canonical SMILES": "O(C1=CCCCC1)[Si](C)(C)C",
        "Molecular Formula": "C<sub>9</sub>H<sub>18</sub>OSi",
        "Molecular Mass": "170.32",
        "Boiling Point": "67-68 °C @ Press: 16 Torr",
        "Density": "0.885 g/cm³"
    }
}