{
    "cas_no": "675-14-9",
    "key_name": "Cyanuric fluoride",
    "cn_name": null,
    "alternate_name": "1,3,5-Triazine, 2,4,6-trifluoro-;Cyanuric fluoride;<em>s</em>-Triazine, 2,4,6-trifluoro-;2,4,6-Trifluoro-1,3,5-triazine;2,4,6-Trifluoro-<em>s</em>-triazine;Trifluoro-<em>s</em>-triazine;Cyanuric trifluoride;Trifluoro-1,3,5-triazine;2,4,6-Trifluorotriazine;1,3,5-Trifluoro-2,4,6-triazine;2,4,6-Trifluoro-<em>sym</em>-triazine;NSC 168386",
    "duplicated_cas_no": "",
    "SMILES": "FC=1N=C(F)N=C(F)N1",
    "meta_data": {
        "InChI": "InChI=1S/C3F3N3/c4-1-7-2(5)9-3(6)8-1",
        "InChIKey": null,
        "Canonical SMILES": "FC=1N=C(F)N=C(F)N1",
        "Molecular Formula": "C<sub>3</sub>F<sub>3</sub>N<sub>3</sub>",
        "Molecular Mass": "135.05",
        "Boiling Point": "72.4 °C @ Press: 760.00 Torr",
        "Melting Point": "-38 °C"
    }
}