{
    "cas_no": "14490-05-2",
    "key_name": "7-Methyltryptamine",
    "cn_name": "7-甲基色胺; 7-甲基-1H-吲哚-3-乙胺;",
    "alternate_name": "1<em>H</em>-Indole-3-ethanamine, 7-methyl-;Indole, 3-(2-aminoethyl)-7-methyl-;7-Methyl-1<em>H</em>-indole-3-ethanamine;7-Methyltryptamine;NSC 91540;7-Methyl-3-indoleethanamine;2-(7-Methyl-1<em>H</em>-indol-3-yl)ethanamine;2-(7-Methyl-1<em>H</em>-indol-3-yl)ethan-1-amine",
    "duplicated_cas_no": "",
    "SMILES": "C(CN)C=1C=2C(=C(C)C=CC2)NC1",
    "meta_data": {
        "InChI": "InChI=1S/C11H14N2/c1-8-3-2-4-10-9(5-6-12)7-13-11(8)10/h2-4,7,13H,5-6,12H2,1H3",
        "InChIKey": null,
        "Canonical SMILES": "NCCC1=CNC2=C1C=CC=C2C",
        "Molecular Formula": "C<sub>11</sub>H<sub>14</sub>N<sub>2</sub>",
        "Molecular Mass": "174.24",
        "Boiling Point": "150-220 °C @ Press: 0.03 Torr",
        "Melting Point": "123-130 °C"
    }
}