{
    "cas_no": "147128-77-6",
    "key_name": "4<em>H</em>-Thieno[2,3-<em>b</em>]thiopyran-4-ol, 5,6-dihydro-6-methyl-, 7,7-dioxide, (4<em>R</em>,6<em>S</em>)-",
    "cn_name": "(4R,6S)-5,6-二氢-4-羟基-6-甲基噻吩并[2,3-b]噻喃-7,7-二氧化物;",
    "alternate_name": "4<em>H</em>-Thieno[2,3-<em>b</em>]thiopyran-4-ol, 5,6-dihydro-6-methyl-, 7,7-dioxide, (4<em>R</em>,6<em>S</em>)-;4<em>H</em>-Thieno[2,3-<em>b</em>]thiopyran-4-ol, 5,6-dihydro-6-methyl-, 7,7-dioxide, (4<em>R</em>-<em>cis</em>)-;(4<em>R</em>,6<em>S</em>)-5,6-Dihydro-4-hydroxy-6-methylthieno[2,3-<em>b</em>]thiopyran-7,7-dioxide",
    "duplicated_cas_no": "",
    "SMILES": "O=S1(=O)C2=C([C@H](O)C[C@@H]1C)C=CS2",
    "meta_data": {
        "InChI": "InChI=1S/C8H10O3S2/c1-5-4-7(9)6-2-3-12-8(6)13(5,10)11/h2-3,5,7,9H,4H2,1H3/t5-,7+/m0/s1",
        "InChIKey": null,
        "Canonical SMILES": "O=S1(=O)C=2SC=CC2C(O)CC1C",
        "Molecular Formula": "C<sub>8</sub>H<sub>10</sub>O<sub>3</sub>S<sub>2</sub>",
        "Molecular Mass": "218.29",
        "Melting Point": "154-155 °C"
    }
}