{
    "cas_no": "349-75-7",
    "key_name": "3-(Trifluoromethyl)benzenemethanol",
    "cn_name": "3-三氟甲基苯甲醇;",
    "alternate_name": "Benzenemethanol, 3-(trifluoromethyl)-;Benzyl alcohol, <em>m</em>-(trifluoromethyl)-;3-(Trifluoromethyl)benzenemethanol;<em>m</em>-(Trifluoromethyl)benzyl alcohol;3-Hydroxymethylbenzyltrifluoride;3-Trifluoromethylbenzyl alcohol;3-Trifluorobenzyl alcohol;(3-Trifluoromethylphenyl)methanol",
    "duplicated_cas_no": "185532-92-7",
    "SMILES": "C(F)(F)(F)C1=CC(CO)=CC=C1",
    "meta_data": {
        "InChI": "InChI=1S/C8H7F3O/c9-8(10,11)7-3-1-2-6(4-7)5-12/h1-4,12H,5H2",
        "InChIKey": null,
        "Canonical SMILES": "FC(F)(F)C=1C=CC=C(C1)CO",
        "Molecular Formula": "C<sub>8</sub>H<sub>7</sub>F<sub>3</sub>O",
        "Molecular Mass": "176.14",
        "Boiling Point": "68 °C",
        "Density": "1.2850 g/cm³ @ Temp: 25 °C"
    }
}