{
    "cas_no": "678-39-7",
    "key_name": "(Perfluorooctyl)ethanol",
    "cn_name": null,
    "alternate_name": "1-Decanol, 3,3,4,4,5,5,6,6,7,7,8,8,9,9,10,10,10-heptadecafluoro-;3,3,4,4,5,5,6,6,7,7,8,8,9,9,10,10,10-Heptadecafluoro-1-decanol;1,1,2,2-Tetrahydroperfluorodecanol;2-(Perfluorooctyl)ethanol;1,1,2,2-Tetrahydroperfluorodecyl alcohol;1<em>H</em>,1<em>H</em>,2<em>H</em>,2<em>H</em>-Perfluorodecanol;2-(Heptadecafluorooctyl)ethanol;PFA 8;(Perfluorooctyl)ethanol;2-(Perfluorooctyl)ethyl alcohol;1<em>H</em>,1<em>H</em>,2<em>H</em>,2<em>H</em>-Perfluorodecan-1-ol;1,1,2,2-Tetrahydroheptadecafluorodecanol;A 1820;β-(Heptadecafluorooctyl)ethanol;C 1820;1,1,2,2-Tetrahydroperfluorodecan-1-ol;8-2 Telomer B alcohol;8-2 Fluorotelomer alcohol;Fluowet EA 800;Daikin A 1820;8:2 FTOH;1<em>H</em>,1<em>H</em>,2<em>H</em>,2<em>H</em>-Heptadecafluoro-1-decanol;1<em>H</em>,1<em>H</em>,2<em>H</em>,2<em>H</em>-Tetrahydroperfluoro-1-decanol;H 817023",
    "duplicated_cas_no": "",
    "SMILES": "C(C(C(C(C(F)(F)F)(F)F)(F)F)(F)F)(C(C(C(CCO)(F)F)(F)F)(F)F)(F)F",
    "meta_data": {
        "InChI": "InChI=1S/C10H5F17O/c11-3(12,1-2-28)4(13,14)5(15,16)6(17,18)7(19,20)8(21,22)9(23,24)10(25,26)27/h28H,1-2H2",
        "InChIKey": null,
        "Canonical SMILES": "FC(F)(F)C(F)(F)C(F)(F)C(F)(F)C(F)(F)C(F)(F)C(F)(F)C(F)(F)CCO",
        "Molecular Formula": "C<sub>10</sub>H<sub>5</sub>F<sub>17</sub>O",
        "Molecular Mass": "464.12",
        "Boiling Point": "43 °C",
        "Melting Point": "43 °C"
    }
}