{
    "cas_no": "85290-78-4",
    "key_name": "1<em>H</em>-Pyrazole-4-carboxylic acid, 3-methyl-, ethyl ester",
    "cn_name": "3-甲基吡唑-4-甲酸乙酯;",
    "alternate_name": "1<em>H</em>-Pyrazole-4-carboxylic acid, 3-methyl-, ethyl ester;Pyrazole-4-carboxylic acid, 3(<em>or</em> 5)-methyl-, ethyl ester;Ethyl 3-methylpyrazole-4-carboxylate;Ethyl 3-methyl-1<em>H</em>-pyrazole-4-carboxylate;3-Methyl-1<em>H</em>-pyrazole-4-carboxylic acid ethyl ester;NSC 19454",
    "duplicated_cas_no": "161958-17-4;861585-81-1;1487118-48-8",
    "SMILES": "C(OCC)(=O)C=1C(C)=NNC1",
    "meta_data": {
        "InChI": "InChI=1S/C7H10N2O2/c1-3-11-7(10)6-4-8-9-5(6)2/h4H,3H2,1-2H3,(H,8,9)",
        "InChIKey": null,
        "Canonical SMILES": "O=C(OCC)C1=CNN=C1C",
        "Molecular Formula": "C<sub>7</sub>H<sub>10</sub>N<sub>2</sub>O<sub>2</sub>",
        "Molecular Mass": "154.17",
        "Melting Point": "80 °C"
    }
}