{
    "cas_no": "169674-02-6",
    "key_name": "4-Chloro-5-fluoro-1<em>H</em>-indole",
    "cn_name": "4-氯-5-氟吲哚;4-氯-5-氟-1H-吲哚;",
    "alternate_name": "1<em>H</em>-Indole, 4-chloro-5-fluoro-;4-Chloro-5-fluoro-1<em>H</em>-indole;4-Chloro-5-fluoroindole",
    "duplicated_cas_no": "",
    "SMILES": "ClC1=C2C(=CC=C1F)NC=C2",
    "meta_data": {
        "InChI": "InChI=1S/C8H5ClFN/c9-8-5-3-4-11-7(5)2-1-6(8)10/h1-4,11H",
        "InChIKey": null,
        "Canonical SMILES": "FC=1C=CC=2NC=CC2C1Cl",
        "Molecular Formula": "C<sub>8</sub>H<sub>5</sub>ClFN",
        "Molecular Mass": "169.58",
        "Melting Point": "21-22 °C"
    }
}