{
    "cas_no": "628-83-1",
    "key_name": "Thiocyanic acid, butyl ester",
    "cn_name": "硫氰酸丁酯;",
    "alternate_name": "Thiocyanic acid, butyl ester;Butane, 1-thiocyanato-;Butyl thiocyanate;1-Thiocyanobutane;<em>n</em>-Butyl thiocyanate;NSC 1478",
    "duplicated_cas_no": "",
    "SMILES": "C(CCC)SC#N",
    "meta_data": {
        "InChI": "InChI=1S/C5H9NS/c1-2-3-4-7-5-6/h2-4H2,1H3",
        "InChIKey": null,
        "Canonical SMILES": "N#CSCCCC",
        "Molecular Formula": "C<sub>5</sub>H<sub>9</sub>NS",
        "Molecular Mass": "115.20",
        "Boiling Point": "186 °C",
        "Density": "0.9563 g/cm³ @ Temp: 25 °C"
    }
}