{
    "cas_no": "2435-53-2",
    "key_name": "<em>o</em>-Chloranil",
    "cn_name": "邻四氯苯醌;",
    "alternate_name": "3,5-Cyclohexadiene-1,2-dione, 3,4,5,6-tetrachloro-;<em>o</em>-Benzoquinone, 3,4,5,6-tetrachloro-;<em>o</em>-Benzoquinone, tetrachloro-;3,4,5,6-Tetrachloro-3,5-cyclohexadiene-1,2-dione;<em>o</em>-Chloranil;Isochloranil;3,4,5,6-Tetrachloro-1,2-benzoquinone;Tetrachloro-<em>o</em>-benzoquinone;Tetrachloro-1,2-benzoquinone;3,4,5,6-Tetrachloro-<em>o</em>-benzoquinone;Tetrachloro-<em>o</em>-quinone;3,4,5,6-Tetrachlorocyclohexadiene-1,2-dione;Tetrachloro-<em>ortho</em>-benzoquinone;Tetrachloroorthobenzoquinone;NSC 403503;3,4,5,6-Tetrachlorobenzoquinone;2,3,5,6-Tetrachloro-1,2-benzoquinone",
    "duplicated_cas_no": "",
    "SMILES": "ClC=1C(Cl)=C(Cl)C(=O)C(=O)C1Cl",
    "meta_data": {
        "InChI": "InChI=1S/C6Cl4O2/c7-1-2(8)4(10)6(12)5(11)3(1)9",
        "InChIKey": null,
        "Canonical SMILES": "O=C1C(=O)C(Cl)=C(Cl)C(Cl)=C1Cl",
        "Molecular Formula": "C<sub>6</sub>Cl<sub>4</sub>O<sub>2</sub>",
        "Molecular Mass": "245.88",
        "Melting Point": "131-132 °C"
    }
}