{
    "cas_no": "14001-64-0",
    "key_name": "4,6-Dimethyl-2-(methylthio)pyrimidine",
    "cn_name": "2-甲硫基-4,6-二甲基嘧啶;",
    "alternate_name": "Pyrimidine, 4,6-dimethyl-2-(methylthio)-;4,6-Dimethyl-2-(methylthio)pyrimidine;2-(Methylthio)-4,6-dimethylpyrimidine;4,6-Dimethyl-2-methylsulfanylpyrimidine;2-Thiomethyl-4,6-dimethylpyrimidine",
    "duplicated_cas_no": "",
    "SMILES": "S(C)C=1N=C(C)C=C(C)N1",
    "meta_data": {
        "InChI": "InChI=1S/C7H10N2S/c1-5-4-6(2)9-7(8-5)10-3/h4H,1-3H3",
        "InChIKey": null,
        "Canonical SMILES": "N=1C(=NC(=CC1C)C)SC",
        "Molecular Formula": "C<sub>7</sub>H<sub>10</sub>N<sub>2</sub>S",
        "Molecular Mass": "154.23",
        "Boiling Point": "120-122 °C @ Press: 17 Torr",
        "Melting Point": "24 °C"
    }
}