{
    "cas_no": "1982-49-6",
    "key_name": "1-(2-Methylcyclohexyl)-3-phenylurea",
    "cn_name": "环草隆;1-(2-甲基环己基)-3-苯基脲；H1318;",
    "alternate_name": "Urea, <em>N</em>-(2-methylcyclohexyl)-<em>N</em>′-phenyl-;Urea, 1-(2-methylcyclohexyl)-3-phenyl-;<em>N</em>-(2-Methylcyclohexyl)-<em>N</em>′-phenylurea;H 1318;1-(2-Methylcyclohexyl)-3-phenylurea;Siduron;Tupersan;NSC 131951",
    "duplicated_cas_no": "",
    "SMILES": "N(C(NC1=CC=CC=C1)=O)C2C(C)CCCC2",
    "meta_data": {
        "InChI": "InChI=1S/C14H20N2O/c1-11-7-5-6-10-13(11)16-14(17)15-12-8-3-2-4-9-12/h2-4,8-9,11,13H,5-7,10H2,1H3,(H2,15,16,17)",
        "InChIKey": null,
        "Canonical SMILES": "O=C(NC=1C=CC=CC1)NC2CCCCC2C",
        "Molecular Formula": "C<sub>14</sub>H<sub>20</sub>N<sub>2</sub>O",
        "Molecular Mass": "232.32",
        "Melting Point": "133-138 °C",
        "Density": "1.08 g/cm³ @ Temp: 25 °C"
    }
}