{
    "cas_no": "95-79-4",
    "key_name": "5-Chloro-2-methylaniline",
    "cn_name": "5-氯邻甲苯胺;",
    "alternate_name": "Benzenamine, 5-chloro-2-methyl-;<em>o</em>-Toluidine, 5-chloro-;Fast Red KB Base;5-Chloro-2-methylbenzenamine;Ansibase Red KB;Pharmazoid Red KB;Spectrolene Red KB;5-Chloro-<em>o</em>-toluidine;2-Methyl-5-chloroaniline;5-Chloro-2-methylaniline;3-Chloro-6-methylaniline;2-Amino-4-chlorotoluene;Fast Red KBS salt;Genazo Red KB soln;Fast Red KB salt Supra;Fast Red KB salt;Acco Fast Red KB base;Azoene Fast Red KB base;Red KB base;Fast Red KB amine;Stable Red KB base;Hiltonil Fast Red KB base;Metrogen Red Former KB soln;Naphthosol Fast Red KB base;Fast Red KB-T Base;4-Chloro-2-aminotoluene;5-Chloro-2-toluidine;NSC 7094;5-Chloro-2-methylphenylamine",
    "duplicated_cas_no": "",
    "SMILES": "NC1=C(C)C=CC(Cl)=C1",
    "meta_data": {
        "InChI": "InChI=1S/C7H8ClN/c1-5-2-3-6(8)4-7(5)9/h2-4H,9H2,1H3",
        "InChIKey": null,
        "Canonical SMILES": "ClC1=CC=C(C(N)=C1)C",
        "Molecular Formula": "C<sub>7</sub>H<sub>8</sub>ClN",
        "Molecular Mass": "141.60",
        "Boiling Point": "237 °C @ Press: 722 Torr",
        "Melting Point": "26 °C",
        "Density": "1.177 g/cm³ @ Temp: 20 °C"
    }
}