{
    "cas_no": "4202-38-4",
    "key_name": "Dodecyl isocyanate",
    "cn_name": "十二烷基异氰酸酯;",
    "alternate_name": "Dodecane, 1-isocyanato-;Isocyanic acid, dodecyl ester;1-Isocyanatododecane;Dodecyl isocyanate;Lauryl isocyanate;1-Dodecyl isocyanate",
    "duplicated_cas_no": "2318852-12-7",
    "SMILES": "C(CCCCCCC)CCCCN=C=O",
    "meta_data": {
        "InChI": "InChI=1S/C13H25NO/c1-2-3-4-5-6-7-8-9-10-11-12-14-13-15/h2-12H2,1H3",
        "InChIKey": null,
        "Canonical SMILES": "O=C=NCCCCCCCCCCCC",
        "Molecular Formula": "C<sub>13</sub>H<sub>25</sub>NO",
        "Molecular Mass": "211.34",
        "Boiling Point": "140-145 °C @ Press: 11 Torr"
    }
}