{
    "cas_no": "18704-37-5",
    "key_name": "8-Quinolinesulfonyl chloride",
    "cn_name": "喹啉-8-磺酰氯;8-喹啉磺酰氯;",
    "alternate_name": "8-Quinolinesulfonyl chloride;8-Chlorosulfonyl-1-benzazine;8-Quinolylsulfonyl chloride;Quinoline-8-sulfonic acid chloride;8-Quinolinylsulfonyl chloride;8-Chinolinsulfonyl chloride;NSC 91506;8-Chlorosulfonylquinoline",
    "duplicated_cas_no": "2361319-59-5",
    "SMILES": "S(Cl)(=O)(=O)C=1C2=C(C=CC1)C=CC=N2",
    "meta_data": {
        "InChI": "InChI=1S/C9H6ClNO2S/c10-14(12,13)8-5-1-3-7-4-2-6-11-9(7)8/h1-6H",
        "InChIKey": null,
        "Canonical SMILES": "O=S(=O)(Cl)C1=CC=CC2=CC=CN=C21",
        "Molecular Formula": "C<sub>9</sub>H<sub>6</sub>ClNO<sub>2</sub>S",
        "Molecular Mass": "227.67",
        "Melting Point": "124-126 °C"
    }
}