{
    "cas_no": "153719-23-4",
    "key_name": "Thiamethoxam",
    "cn_name": "噻虫嗪;3-(2-氯-5-噻唑基甲基)-5-甲基-N-硝基-4H-1,3,5-四氢噁二嗪-4-亚胺;",
    "alternate_name": "4<em>H</em>-1,3,5-Oxadiazin-4-imine, 3-[(2-chloro-5-thiazolyl)methyl]tetrahydro-5-methyl-<em>N</em>-nitro-;3-[(2-Chloro-5-thiazolyl)methyl]tetrahydro-5-methyl-<em>N</em>-nitro-4<em>H</em>-1,3,5-oxadiazin-4-imine;CGA 293343;Thiamethoxam;Cruiser;Adage 5FS;Adage;Actara;Actara 25WG;Actara 2GR;Diacloden;Centric;Platinum (insecticide);Flagship;Meridian;Cruiser A 9765;A 9765N;A 97565N;WS 70;FS 350;FS 600;WS 70 (insecticide);FS 600 (insecticide);Cruiser 350FS;Cruiser 5FS;Xamox;Platinum 240SC;Optigard;Cruiser 600FS;Actara 500WG;Pelexam;Cruiser 60 FS;3-[(2-Chloro-5-thiazolyl)methyl]-5-methyl-4-nitroiminotetrahydro-1,3,5-oxadiazine;Tricon",
    "duplicated_cas_no": "",
    "SMILES": "C(N1C(=NN(=O)=O)N(C)COC1)C=2SC(Cl)=NC2",
    "meta_data": {
        "InChI": "InChI=1S/C8H10ClN5O3S/c1-12-4-17-5-13(8(12)11-14(15)16)3-6-2-10-7(9)18-6/h2H,3-5H2,1H3",
        "InChIKey": null,
        "Canonical SMILES": "O=N(=O)N=C1N(C)COCN1CC=2SC(Cl)=NC2",
        "Molecular Formula": "C<sub>8</sub>H<sub>10</sub>ClN<sub>5</sub>O<sub>3</sub>S",
        "Molecular Mass": "291.71",
        "Melting Point": "140-142 °C"
    }
}