{
    "cas_no": "528-75-6",
    "key_name": "2,4-Dinitrobenzaldehyde",
    "cn_name": "2,4-二硝基苯甲醛;",
    "alternate_name": "Benzaldehyde, 2,4-dinitro-;2,4-Dinitrobenzaldehyde;NSC 36948",
    "duplicated_cas_no": "",
    "SMILES": "N(=O)(=O)C1=C(C=O)C=CC(N(=O)=O)=C1",
    "meta_data": {
        "InChI": "InChI=1S/C7H4N2O5/c10-4-5-1-2-6(8(11)12)3-7(5)9(13)14/h1-4H",
        "InChIKey": null,
        "Canonical SMILES": "O=CC1=CC=C(C=C1N(=O)=O)N(=O)=O",
        "Molecular Formula": "C<sub>7</sub>H<sub>4</sub>N<sub>2</sub>O<sub>5</sub>",
        "Molecular Mass": "196.12",
        "Melting Point": "72 °C"
    }
}