{
    "cas_no": "124936-75-0",
    "key_name": "Phenol, 2-[3-[bis(1-methylethyl)amino]-1-phenylpropyl]-4-methyl-, hydrochloride (1:1)",
    "cn_name": "3-(2-甲氧基-5-甲基苯基)-3-苯基丙醇;",
    "alternate_name": "Phenol, 2-[3-[bis(1-methylethyl)amino]-1-phenylpropyl]-4-methyl-, hydrochloride (1:1);Phenol, 2-[3-[bis(1-methylethyl)amino]-1-phenylpropyl]-4-methyl-, hydrochloride;(+-)-Tolterodine hydrochloride;<em>N</em>,<em>N</em>-Diisopropyl-3-(2-hydroxy-5-methylphenyl)-3-phenylpropylamine hydrochloride",
    "duplicated_cas_no": "",
    "SMILES": "C(CCN(C(C)C)C(C)C)(C1=C(O)C=CC(C)=C1)C2=CC=CC=C2.Cl",
    "meta_data": {
        "InChI": "InChI=1S/C22H31NO.ClH/c1-16(2)23(17(3)4)14-13-20(19-9-7-6-8-10-19)21-15-18(5)11-12-22(21)24;/h6-12,15-17,20,24H,13-14H2,1-5H3;1H",
        "InChIKey": null,
        "Canonical SMILES": "Cl.OC1=CC=C(C=C1C(C=2C=CC=CC2)CCN(C(C)C)C(C)C)C",
        "Molecular Formula": "C<sub>22</sub>H<sub>31</sub>NO.ClH",
        "Molecular Mass": "",
        "Melting Point": "196-197 °C"
    }
}