{
    "cas_no": "625-60-5",
    "key_name": "<em>S</em>-Ethyl thioacetate",
    "cn_name": "硫代乙酸乙酯;",
    "alternate_name": "Ethanethioic acid, <em>S</em>-ethyl ester;Acetic acid, thio-, <em>S</em>-ethyl ester;Ethanethiol, acetate;<em>S</em>-Ethyl thiolacetate;Ethyl thiolacetate;<em>S</em>-Ethyl thioacetate;Ethyl ethanethioate;1-(Ethylsulfanyl)ethan-1-one",
    "duplicated_cas_no": "",
    "SMILES": "S(C(C)=O)CC",
    "meta_data": {
        "InChI": "InChI=1S/C4H8OS/c1-3-6-4(2)5/h3H2,1-2H3",
        "InChIKey": null,
        "Canonical SMILES": "O=C(SCC)C",
        "Molecular Formula": "C<sub>4</sub>H<sub>8</sub>OS",
        "Molecular Mass": "104.17",
        "Boiling Point": "116.4 °C",
        "Density": "1.036 g/cm³ @ Temp: 16 °C"
    }
}