{
    "cas_no": "552-59-0",
    "key_name": "Prunetin",
    "cn_name": null,
    "alternate_name": "4<em>H</em>-1-Benzopyran-4-one, 5-hydroxy-3-(4-hydroxyphenyl)-7-methoxy-;Isoflavone, 4′,5-dihydroxy-7-methoxy-;Prunetin;5-Hydroxy-3-(4-hydroxyphenyl)-7-methoxy-4<em>H</em>-1-benzopyran-4-one;5,4′-Dihydroxy-7-methoxyisoflavone;7-<em>O</em>-Methylgenistein",
    "duplicated_cas_no": "",
    "SMILES": "O=C1C=2C(=CC(OC)=CC2O)OC=C1C3=CC=C(O)C=C3",
    "meta_data": {
        "InChI": "InChI=1S/C16H12O5/c1-20-11-6-13(18)15-14(7-11)21-8-12(16(15)19)9-2-4-10(17)5-3-9/h2-8,17-18H,1H3",
        "InChIKey": null,
        "Canonical SMILES": "O=C1C(=COC=2C=C(OC)C=C(O)C12)C=3C=CC(O)=CC3",
        "Molecular Formula": "C<sub>16</sub>H<sub>12</sub>O<sub>5</sub>",
        "Molecular Mass": "284.26",
        "Melting Point": "239.5 °C"
    }
}