{
    "cas_no": "79752-03-7",
    "key_name": "1-(10,11-Dihydro-3-nitro-5<em>H</em>-dibenz[<em>b</em>,<em>f</em>]azepin-5-yl)ethanone",
    "cn_name": "1-(3-硝基-10,11-二氢-5H-二苯并[b,f]氮杂卓-5-基)乙酮;",
    "alternate_name": "Ethanone, 1-(10,11-dihydro-3-nitro-5<em>H</em>-dibenz[<em>b</em>,<em>f</em>]azepin-5-yl)-;5<em>H</em>-Dibenz[<em>b</em>,<em>f</em>]azepine, 5-acetyl-10,11-dihydro-3-nitro-;1-(10,11-Dihydro-3-nitro-5<em>H</em>-dibenz[<em>b</em>,<em>f</em>]azepin-5-yl)ethanone;1-(3-Nitro-10,11-dihydro-5<em>H</em>-dibenzo[<em>b</em>,<em>f</em>]azepin-5-yl)ethanone",
    "duplicated_cas_no": "",
    "SMILES": "C(C)(=O)N1C=2C(CCC=3C1=CC=CC3)=CC=C(N(=O)=O)C2",
    "meta_data": {
        "InChI": "InChI=1S/C16H14N2O3/c1-11(19)17-15-5-3-2-4-12(15)6-7-13-8-9-14(18(20)21)10-16(13)17/h2-5,8-10H,6-7H2,1H3",
        "InChIKey": null,
        "Canonical SMILES": "O=C(N1C=2C=CC=CC2CCC3=CC=C(C=C31)N(=O)=O)C",
        "Molecular Formula": "C<sub>16</sub>H<sub>14</sub>N<sub>2</sub>O<sub>3</sub>",
        "Molecular Mass": "282.29",
        "Melting Point": "157-158 °C"
    }
}