{
    "cas_no": "85416-73-5",
    "key_name": "(+)-Rolipram",
    "cn_name": null,
    "alternate_name": "2-Pyrrolidinone, 4-[3-(cyclopentyloxy)-4-methoxyphenyl]-, (4<em>S</em>)-;2-Pyrrolidinone, 4-[3-(cyclopentyloxy)-4-methoxyphenyl]-, (<em>S</em>)-;(4<em>S</em>)-4-[3-(Cyclopentyloxy)-4-methoxyphenyl]-2-pyrrolidinone;(+)-Rolipram;(<em>S</em>)-Rolipram;(<em>S</em>)-(+)-Rolipram;(4S)-4-(3-Cyclopentyloxy-4-methoxyphenyl)pyrrolidin-2-one",
    "duplicated_cas_no": "",
    "SMILES": "O(C1=C(OC)C=CC(=C1)[C@H]2CNC(=O)C2)C3CCCC3",
    "meta_data": {
        "InChI": "InChI=1S/C16H21NO3/c1-19-14-7-6-11(12-9-16(18)17-10-12)8-15(14)20-13-4-2-3-5-13/h6-8,12-13H,2-5,9-10H2,1H3,(H,17,18)/t12-/m1/s1",
        "InChIKey": null,
        "Canonical SMILES": "O=C1NCC(C2=CC=C(OC)C(OC3CCCC3)=C2)C1",
        "Molecular Formula": "C<sub>16</sub>H<sub>21</sub>NO<sub>3</sub>",
        "Molecular Mass": "275.34",
        "Melting Point": "133-136 °C"
    }
}