{
    "cas_no": "121602-93-5",
    "key_name": "3,4,5-Trifluorobenzoic acid",
    "cn_name": "3,4,5-三氟苯甲酸;",
    "alternate_name": "Benzoic acid, 3,4,5-trifluoro-;3,4,5-Trifluorobenzoic acid",
    "duplicated_cas_no": "",
    "SMILES": "C(O)(=O)C1=CC(F)=C(F)C(F)=C1",
    "meta_data": {
        "InChI": "InChI=1S/C7H3F3O2/c8-4-1-3(7(11)12)2-5(9)6(4)10/h1-2H,(H,11,12)",
        "InChIKey": null,
        "Canonical SMILES": "O=C(O)C1=CC(F)=C(F)C(F)=C1",
        "Molecular Formula": "C<sub>7</sub>H<sub>3</sub>F<sub>3</sub>O<sub>2</sub>",
        "Molecular Mass": "176.09",
        "Melting Point": "98 °C"
    }
}