{
    "cas_no": "1601-98-5",
    "key_name": "4,4′-Dibromoazobenzene",
    "cn_name": null,
    "alternate_name": "Diazene, 1,2-bis(4-bromophenyl)-;Azobenzene, 4,4′-dibromo-;Diazene, bis(4-bromophenyl)-;1,2-Bis(4-bromophenyl)diazene;4,4′-Dibromoazobenzene;NSC 86486",
    "duplicated_cas_no": "",
    "SMILES": "N(=NC1=CC=C(Br)C=C1)C2=CC=C(Br)C=C2",
    "meta_data": {
        "InChI": "InChI=1S/C12H8Br2N2/c13-9-1-5-11(6-2-9)15-16-12-7-3-10(14)4-8-12/h1-8H",
        "InChIKey": null,
        "Canonical SMILES": "BrC1=CC=C(N=NC2=CC=C(Br)C=C2)C=C1",
        "Molecular Formula": "C<sub>12</sub>H<sub>8</sub>Br<sub>2</sub>N<sub>2</sub>",
        "Molecular Mass": "340.01",
        "Melting Point": "204 °C"
    }
}