{
    "cas_no": "70-10-0",
    "key_name": "Ticlatone",
    "cn_name": "替克拉酮;替克拉酮;",
    "alternate_name": "1,2-Benzisothiazol-3(2<em>H</em>)-one, 6-chloro-;1,2-Benzisothiazolin-3-one, 6-chloro-;6-Chloro-1,2-benzisothiazol-3(2<em>H</em>)-one;FER 1443;Ticlatone;Landromil;Ticlaton;6-Chloro-1,2-benzoisothiazol-3-one;6-Chloro-1,2-benzisothiazolin-3-one;6-Chloro-1,2-benzisothiazole-3-one;3-Hydroxy-6-chloro-1,2-benzisothiazole",
    "duplicated_cas_no": "",
    "SMILES": "O=C1C=2C(SN1)=CC(Cl)=CC2",
    "meta_data": {
        "InChI": "InChI=1S/C7H4ClNOS/c8-4-1-2-5-6(3-4)11-9-7(5)10/h1-3H,(H,9,10)",
        "InChIKey": null,
        "Canonical SMILES": "O=C1NSC2=CC(Cl)=CC=C12",
        "Molecular Formula": "C<sub>7</sub>H<sub>4</sub>ClNOS",
        "Molecular Mass": "185.63",
        "Melting Point": "270-272 °C"
    }
}