{
    "cas_no": "56-09-7",
    "key_name": "2-Amino-6-hydroxy-4(3<em>H</em>)-pyrimidinone",
    "cn_name": "2-氨基-4,6-二羟基嘧啶;",
    "alternate_name": "4(3<em>H</em>)-Pyrimidinone, 2-amino-6-hydroxy-;4(1<em>H</em>)-Pyrimidinone, 2-amino-6-hydroxy-;4,6-Pyrimidinediol, 2-amino-;2-Amino-6-hydroxy-4(3<em>H</em>)-pyrimidinone;2-Amino-4,6-dihydroxypyrimidine;2-Amino-4,6-pyrimidinedione;2-Amino-4,6-dioxypyrimidine;4,6-Dihydroxy-2-aminopyrimidine;2-Amino-4,6-pyrimidinediol;NSC 15920;NSC 18692;2-Amino-6-hydroxy-3<em>H</em>-pyrimidin-4-one;2-Amino-4,6-dihydroxypyridimine;2-Amino-6-hydroxy-1,4-dihydropyrimidin-4-one;2-Amino-4-hydroxy-1<em>H</em>-pyrimidin-6-one",
    "duplicated_cas_no": "",
    "SMILES": "O=C1C=C(O)N=C(N)N1",
    "meta_data": {
        "InChI": "InChI=1S/C4H5N3O2/c5-4-6-2(8)1-3(9)7-4/h1H,(H4,5,6,7,8,9)",
        "InChIKey": null,
        "Canonical SMILES": "O=C1C=C(O)N=C(N)N1",
        "Molecular Formula": "C<sub>4</sub>H<sub>5</sub>N<sub>3</sub>O<sub>2</sub>",
        "Molecular Mass": "127.10",
        "Melting Point": "&gt;330 °C"
    }
}