{
    "cas_no": "16646-42-7",
    "key_name": "1-Methyl-3-cyclohexene-1-carboxylic acid",
    "cn_name": null,
    "alternate_name": "3-Cyclohexene-1-carboxylic acid, 1-methyl-;1-Methyl-3-cyclohexene-1-carboxylic acid;1-Methyl-3-cyclohexenecarboxylic acid",
    "duplicated_cas_no": "",
    "SMILES": "C(O)(=O)C1(C)CCC=CC1",
    "meta_data": {
        "InChI": "InChI=1S/C8H12O2/c1-8(7(9)10)5-3-2-4-6-8/h2-3H,4-6H2,1H3,(H,9,10)",
        "InChIKey": null,
        "Canonical SMILES": "O=C(O)C1(C)CC=CCC1",
        "Molecular Formula": "C<sub>8</sub>H<sub>12</sub>O<sub>2</sub>",
        "Molecular Mass": "140.18",
        "Boiling Point": "75-77 °C @ Press: 18 Torr",
        "Melting Point": "78-79 °C",
        "Density": "0.9945 g/cm³ @ Temp: 20 °C"
    }
}