{
    "cas_no": "42891-22-5",
    "key_name": "β-<span class=\"text-smallcaps\">D</span>-Galactopyranose, 1-thio-, sodium salt (1:1)",
    "cn_name": null,
    "alternate_name": "β-<span class=\"text-smallcaps\">D</span>-Galactopyranose, 1-thio-, sodium salt (1:1);β-<span class=\"text-smallcaps\">D</span>-Galactopyranose, 1-thio-, monosodium salt;Sodium, (β-<span class=\"text-smallcaps\">D</span>-galactopyranosylthio)-;1-Thio-β-<span class=\"text-smallcaps\">D</span>-galactose sodium salt",
    "duplicated_cas_no": "",
    "SMILES": "C(O)[C@@H]1[C@H](O)[C@H](O)[C@@H](O)[C@H](S)O1.[Na]",
    "meta_data": {
        "InChI": "InChI=1S/C6H12O5S.Na/c7-1-2-3(8)4(9)5(10)6(12)11-2;/h2-10,12H,1H2;/t2-,3+,4+,5-,6+;/m1./s1",
        "InChIKey": null,
        "Canonical SMILES": "[Na].OCC1OC(S)C(O)C(O)C1O",
        "Molecular Formula": "C<sub>6</sub>H<sub>12</sub>O<sub>5</sub>S.Na",
        "Molecular Mass": "",
        "Melting Point": "145-148 °C"
    }
}