{
    "cas_no": "3562-99-0",
    "key_name": "Menbutone",
    "cn_name": "孟布酮;3-(4`-甲氧基萘甲酰基)丙酸;",
    "alternate_name": "1-Naphthalenebutanoic acid, 4-methoxy-γ-oxo-;Propionic acid, 3-(4-methoxy-1-naphthoyl)-;4-Methoxy-γ-oxo-1-naphthalenebutanoic acid;Menbutone;Genabilic acid;Genabil;Ido-Genabil;3-(4-Methoxy-1-naphthoyl)propionic acid;Menbuton;Epanaftol;Fel-bis;Genabilin;Naftobil;Nafto-Epatina;Sintobilina;Icteryl;NSC 53969;4-(4-Methoxynaphthalen-1-yl)-4-oxobutanoic acid;Menbutyl",
    "duplicated_cas_no": "",
    "SMILES": "C(CCC(O)=O)(=O)C=1C2=C(C(OC)=CC1)C=CC=C2",
    "meta_data": {
        "InChI": "InChI=1S/C15H14O4/c1-19-14-8-6-11(13(16)7-9-15(17)18)10-4-2-3-5-12(10)14/h2-6,8H,7,9H2,1H3,(H,17,18)",
        "InChIKey": null,
        "Canonical SMILES": "O=C(O)CCC(=O)C1=CC=C(OC)C=2C=CC=CC21",
        "Molecular Formula": "C<sub>15</sub>H<sub>14</sub>O<sub>4</sub>",
        "Molecular Mass": "258.27",
        "Melting Point": "172.5 °C"
    }
}