{
    "cas_no": "13726-16-4",
    "key_name": "4-Chloro-3-methoxybenzaldehyde",
    "cn_name": null,
    "alternate_name": "Benzaldehyde, 4-chloro-3-methoxy-;<em>m</em>-Anisaldehyde, 4-chloro-;4-Chloro-3-methoxybenzaldehyde;3-Methoxy-4-chlorobenzaldehyde;4-Chloro-3-methoxylbenzaldehyde",
    "duplicated_cas_no": "",
    "SMILES": "O(C)C1=CC(C=O)=CC=C1Cl",
    "meta_data": {
        "InChI": "InChI=1S/C8H7ClO2/c1-11-8-4-6(5-10)2-3-7(8)9/h2-5H,1H3",
        "InChIKey": null,
        "Canonical SMILES": "O=CC1=CC=C(Cl)C(OC)=C1",
        "Molecular Formula": "C<sub>8</sub>H<sub>7</sub>ClO<sub>2</sub>",
        "Molecular Mass": "170.59",
        "Melting Point": "52 °C"
    }
}