{
    "cas_no": "4403-78-5",
    "key_name": "<em>N</em>,<em>N</em>′-1,2-Ethanediylbis[4-methylbenzenesulfonamide]",
    "cn_name": null,
    "alternate_name": "Benzenesulfonamide, <em>N</em>,<em>N</em>′-1,2-ethanediylbis[4-methyl-;<em>p</em>-Toluenesulfonamide, <em>N</em>,<em>N</em>′-ethylenedi-;<em>p</em>-Toluenesulfonamide, <em>N</em>,<em>N</em>′-ethylenebis-;<em>N</em>,<em>N</em>′-1,2-Ethanediylbis[4-methylbenzenesulfonamide];<em>N</em>,<em>N</em>′-Ditosylethylenediamine;<em>N</em>,<em>N</em>′-Bis(<em>p</em>-toluenesulfonyl)ethylenediamine;<em>N</em>,<em>N</em>′-Bis(tosyl)-1,2-diaminoethane;<em>N</em>,<em>N</em>′-Bis(toluenesulfonyl)-1,2-ethylenediamine;<em>N</em>,<em>N</em>′-Ethylenebis(<em>p</em>-toluenesulfonamide);<em>N</em>,<em>N</em>′-Bis(<em>p</em>-tolylsulfonyl)-1,2-ethylenediamine;NSC 25018;1,2-(Tosylamino)ethane;N,N′-ethane-1,2-diylbis(4-methylbenzenesulfonamide);<em>N</em>,<em>N</em>′-(Ethane-1,2-diyl)bis(4-methylbenzenesulfonamide)",
    "duplicated_cas_no": "",
    "SMILES": "S(NCCNS(=O)(=O)C1=CC=C(C)C=C1)(=O)(=O)C2=CC=C(C)C=C2",
    "meta_data": {
        "InChI": "InChI=1S/C16H20N2O4S2/c1-13-3-7-15(8-4-13)23(19,20)17-11-12-18-24(21,22)16-9-5-14(2)6-10-16/h3-10,17-18H,11-12H2,1-2H3",
        "InChIKey": null,
        "Canonical SMILES": "O=S(=O)(NCCNS(=O)(=O)C1=CC=C(C=C1)C)C2=CC=C(C=C2)C",
        "Molecular Formula": "C<sub>16</sub>H<sub>20</sub>N<sub>2</sub>O<sub>4</sub>S<sub>2</sub>",
        "Molecular Mass": "368.47",
        "Melting Point": "162-163 °C"
    }
}