{
    "cas_no": "3886-08-6",
    "key_name": "5-(1,1-Dimethylethyl) hydrogen <em>N</em>-[(phenylmethoxy)carbonyl]-<span class=\"text-smallcaps\">L</span>-glutamate",
    "cn_name": "N-苄氧羰基-L-谷氨酸5-叔丁酯;",
    "alternate_name": "<span class=\"text-smallcaps\">L</span>-Glutamic acid, <em>N</em>-[(phenylmethoxy)carbonyl]-, 5-(1,1-dimethylethyl) ester;Glutamic acid, <em>N</em>-carboxy-, <em>N</em>-benzyl 5-<em>tert</em>-butyl ester, <span class=\"text-smallcaps\">L</span>-;5-(1,1-Dimethylethyl) hydrogen <em>N</em>-[(phenylmethoxy)carbonyl]-<span class=\"text-smallcaps\">L</span>-glutamate;(Benzyloxycarbonyl)-<span class=\"text-smallcaps\">L</span>-glutamic acid 5-<em>tert</em>-butyl ester;<em>N</em><sup>α</sup>-Benzyloxycarbonyl-γ-<em>tert</em>-butyl-<span class=\"text-smallcaps\">L</span>-glutamic acid;4(<em>S</em>)-Carboxy-4-(<em>N</em>-(benzyloxycarbonyl)amino)butanoic acid <em>tert</em>-butyl ester;(2<em>S</em>)-2-[[(Benzyloxy)carbonyl]amino]-5-<em>tert</em>-butoxy-5-oxopentanoic acid;(2S)-5-[(2-Methylpropan-2-yl)oxy]-5-oxo-2-(phenylmethoxycarbonylamino)pentanoic acid",
    "duplicated_cas_no": "2007955-65-7;2483830-62-0",
    "SMILES": "C(OC(N[C@@H](CCC(OC(C)(C)C)=O)C(O)=O)=O)C1=CC=CC=C1",
    "meta_data": {
        "InChI": "InChI=1S/C17H23NO6/c1-17(2,3)24-14(19)10-9-13(15(20)21)18-16(22)23-11-12-7-5-4-6-8-12/h4-8,13H,9-11H2,1-3H3,(H,18,22)(H,20,21)/t13-/m0/s1",
        "InChIKey": null,
        "Canonical SMILES": "O=C(OCC=1C=CC=CC1)NC(C(=O)O)CCC(=O)OC(C)(C)C",
        "Molecular Formula": "C<sub>17</sub>H<sub>23</sub>NO<sub>6</sub>",
        "Molecular Mass": "337.37",
        "Melting Point": "81-85 °C"
    }
}