{
    "cas_no": "33693-48-0",
    "key_name": "4-(Benzyloxy)-3-methoxybenzyl alcohol",
    "cn_name": "4-苄氧基-3-甲氧基苯甲醇;",
    "alternate_name": "Benzenemethanol, 3-methoxy-4-(phenylmethoxy)-;Benzyl alcohol, 4-(benzyloxy)-3-methoxy-;3-Methoxy-4-(phenylmethoxy)benzenemethanol;4-(Benzyloxy)-3-methoxybenzyl alcohol;<em>O</em>-Benzylvanillyl alcohol;Vanillyl alcohol benzyl ether;(4-Benzyloxy-3-methoxyphenyl)methanol;NSC 169518;3-Methoxy-4-(benzyloxy)benzyl alcohol;(3-Methoxy-4-phenylmethoxyphenyl)methanol",
    "duplicated_cas_no": "",
    "SMILES": "O(CC1=CC=CC=C1)C2=C(OC)C=C(CO)C=C2",
    "meta_data": {
        "InChI": "InChI=1S/C15H16O3/c1-17-15-9-13(10-16)7-8-14(15)18-11-12-5-3-2-4-6-12/h2-9,16H,10-11H2,1H3",
        "InChIKey": null,
        "Canonical SMILES": "OCC1=CC=C(OCC=2C=CC=CC2)C(OC)=C1",
        "Molecular Formula": "C<sub>15</sub>H<sub>16</sub>O<sub>3</sub>",
        "Molecular Mass": "244.29",
        "Melting Point": "70-71 °C"
    }
}