{
    "cas_no": "2393-17-1",
    "key_name": "3-(4-Aminophenyl)propionic acid",
    "cn_name": "3-(4-氨基苯基)丙酸;",
    "alternate_name": "Benzenepropanoic acid, 4-amino-;Hydrocinnamic acid, <em>p</em>-amino-;4-Aminobenzenepropanoic acid;β-(4-Aminophenyl)propionic acid;4-Aminohydrocinnamic acid;3-(<em>p</em>-Aminophenyl)propionic acid;3-(4-Aminophenyl)propionic acid;<em>p</em>-Aminohydrocinnamic acid;NSC 25083;3-(4-Aminophenyl)propanoic acid;3-(<em>p</em>-Aminophenyl)propanoic acid",
    "duplicated_cas_no": "",
    "SMILES": "C(CC(O)=O)C1=CC=C(N)C=C1",
    "meta_data": {
        "InChI": "InChI=1S/C9H11NO2/c10-8-4-1-7(2-5-8)3-6-9(11)12/h1-2,4-5H,3,6,10H2,(H,11,12)",
        "InChIKey": null,
        "Canonical SMILES": "O=C(O)CCC1=CC=C(N)C=C1",
        "Molecular Formula": "C<sub>9</sub>H<sub>11</sub>NO<sub>2</sub>",
        "Molecular Mass": "165.19",
        "Melting Point": "131 °C"
    }
}