{
    "cas_no": "86093-77-8",
    "key_name": "3-(Trifluoromethyl)thiophene",
    "cn_name": null,
    "alternate_name": "Thiophene, 3-(trifluoromethyl)-;3-(Trifluoromethyl)thiophene;3-Trifluoromethylthiophene",
    "duplicated_cas_no": "",
    "SMILES": "C(F)(F)(F)C=1C=CSC1",
    "meta_data": {
        "InChI": "InChI=1S/C5H3F3S/c6-5(7,8)4-1-2-9-3-4/h1-3H",
        "InChIKey": null,
        "Canonical SMILES": "FC(F)(F)C1=CSC=C1",
        "Molecular Formula": "C<sub>5</sub>H<sub>3</sub>F<sub>3</sub>S",
        "Molecular Mass": "152.14",
        "Boiling Point": "100 °C @ Press: 760 Torr"
    }
}