{
    "cas_no": "290-87-9",
    "key_name": "1,3,5-Triazine",
    "cn_name": "1,3,5-三嗪;",
    "alternate_name": "1,3,5-Triazine;<em>s</em>-Triazine;Cyanidine;Triazine;<em>sym</em>-Triazine;Vedita 250;NSC 56189",
    "duplicated_cas_no": "",
    "SMILES": "C=1N=CN=CN1",
    "meta_data": {
        "InChI": "InChI=1S/C3H3N3/c1-4-2-6-3-5-1/h1-3H",
        "InChIKey": null,
        "Canonical SMILES": "N=1C=NC=NC1",
        "Molecular Formula": "C<sub>3</sub>H<sub>3</sub>N<sub>3</sub>",
        "Molecular Mass": "81.08",
        "Boiling Point": "114 °C",
        "Melting Point": "86 °C",
        "Density": "0.9418 g/cm³ @ Temp: 20 °C"
    }
}