{
    "cas_no": "112-37-8",
    "key_name": "Undecanoic acid",
    "cn_name": "十一酸;十一烷酸;",
    "alternate_name": "Undecanoic acid;1-Decanecarboxylic acid;Hendecanoic acid;<em>n</em>-Undecoic acid;Undecylic acid;<em>n</em>-Undecylic acid;<em>n</em>-Undecanoic acid;NSC 7885;1n-Undecoic acid",
    "duplicated_cas_no": "",
    "SMILES": "C(CCCCCC)CCCC(O)=O",
    "meta_data": {
        "InChI": "InChI=1S/C11H22O2/c1-2-3-4-5-6-7-8-9-10-11(12)13/h2-10H2,1H3,(H,12,13)",
        "InChIKey": null,
        "Canonical SMILES": "O=C(O)CCCCCCCCCC",
        "Molecular Formula": "C<sub>11</sub>H<sub>22</sub>O<sub>2</sub>",
        "Molecular Mass": "186.29",
        "Boiling Point": "280 °C",
        "Melting Point": "28.6 °C",
        "Density": "0.9619 g/cm³ @ Temp: 20 °C"
    }
}