{
    "cas_no": "62924-70-3",
    "key_name": "Flumetralin",
    "cn_name": "氟节胺;N-(2-氯-6-氟苄基)-N-乙基-2,6-二硝基-4-三氟甲基苯胺;",
    "alternate_name": "Benzenemethanamine, 2-chloro-<em>N</em>-[2,6-dinitro-4-(trifluoromethyl)phenyl]-<em>N</em>-ethyl-6-fluoro-;2-Chloro-<em>N</em>-[2,6-dinitro-4-(trifluoromethyl)phenyl]-<em>N</em>-ethyl-6-fluorobenzenemethanamine;CGA 41065;Flumetralin;Prime +;Premier;Fujiean",
    "duplicated_cas_no": "",
    "SMILES": "N(CC1=C(Cl)C=CC=C1F)(CC)C2=C(N(=O)=O)C=C(C(F)(F)F)C=C2N(=O)=O",
    "meta_data": {
        "InChI": "InChI=1S/C16H12ClF4N3O4/c1-2-22(8-10-11(17)4-3-5-12(10)18)15-13(23(25)26)6-9(16(19,20)21)7-14(15)24(27)28/h3-7H,2,8H2,1H3",
        "InChIKey": null,
        "Canonical SMILES": "O=N(=O)C1=CC(=CC(=C1N(CC=2C(F)=CC=CC2Cl)CC)N(=O)=O)C(F)(F)F",
        "Molecular Formula": "C<sub>16</sub>H<sub>12</sub>ClF<sub>4</sub>N<sub>3</sub>O<sub>4</sub>",
        "Molecular Mass": "421.73",
        "Melting Point": "102 °C"
    }
}