{
    "cas_no": "629-59-4",
    "key_name": "Tetradecane",
    "cn_name": "十四烷;正十四烷;",
    "alternate_name": "Tetradecane;<em>n</em>-Tetradecane;NSC 72440;Rubitherm RT 2;Cactus Normal Paraffin N 14;N 14;Linpar 14;Parafol 14-97;TS Paraffin TS 4;TS 4;Linpar 14-99",
    "duplicated_cas_no": "",
    "SMILES": "C(CCCCCCC)CCCCCC",
    "meta_data": {
        "InChI": "InChI=1S/C14H30/c1-3-5-7-9-11-13-14-12-10-8-6-4-2/h3-14H2,1-2H3",
        "InChIKey": null,
        "Canonical SMILES": "CCCCCCCCCCCCCC",
        "Molecular Formula": "C<sub>14</sub>H<sub>30</sub>",
        "Molecular Mass": "198.39",
        "Boiling Point": "253.7 °C @ Press: 760 Torr",
        "Melting Point": "5.9 °C",
        "Density": "0.7628 g/cm³ @ Temp: 20 °C"
    }
}