{
    "cas_no": "22916-47-8",
    "key_name": "Miconazole",
    "cn_name": "咪康唑;1-[2-(2,4-二氯苯基)-2-[(2,4-二氯苯基)甲氧基]乙基]-1H-咪唑;",
    "alternate_name": "1<em>H</em>-Imidazole, 1-[2-(2,4-dichlorophenyl)-2-[(2,4-dichlorophenyl)methoxy]ethyl]-;Imidazole, 1-[2,4-dichloro-β-[(2,4-dichlorobenzyl)oxy]phenethyl]-;1-[2-(2,4-Dichlorophenyl)-2-[(2,4-dichlorophenyl)methoxy]ethyl]-1<em>H</em>-imidazole;Miconazole;R 18134;MJR 1762;(±)-Miconazole;Daktarin IV;Monistat IV;NSC 170986;Florid-F;Lauriad;Daktanol;Zimybase;Loramyc;1-[2-(2,4-Dichloro-benzyloxy)-2-(2,4-dichloro-phenyl)-ethyl]-1<em>H</em>-imidazole;1-(2-((2,4-Dichlorobenzyl)oxy)-2-(2,4-dichlorophenyl)ethyl)-1<em>H</em>-imidazole;1-[2-(2,4-Dichlorophenyl)-2-[(2,4-dichlorophenyl)methoxy]ethyl]imidazole;MeSH ID: D008825",
    "duplicated_cas_no": "75319-47-0",
    "SMILES": "C(CN1C=CN=C1)(OCC2=C(Cl)C=C(Cl)C=C2)C3=C(Cl)C=C(Cl)C=C3",
    "meta_data": {
        "InChI": "InChI=1S/C18H14Cl4N2O/c19-13-2-1-12(16(21)7-13)10-25-18(9-24-6-5-23-11-24)15-4-3-14(20)8-17(15)22/h1-8,11,18H,9-10H2",
        "InChIKey": null,
        "Canonical SMILES": "ClC1=CC=C(C(Cl)=C1)COC(C2=CC=C(Cl)C=C2Cl)CN3C=NC=C3",
        "Molecular Formula": "C<sub>18</sub>H<sub>14</sub>Cl<sub>4</sub>N<sub>2</sub>O",
        "Molecular Mass": "416.13",
        "Melting Point": "184-185 °C"
    }
}