{
    "cas_no": "679-85-6",
    "key_name": "3-Chloro-1,1,2,2-tetrafluoropropane",
    "cn_name": null,
    "alternate_name": "Propane, 3-chloro-1,1,2,2-tetrafluoro-;3-Chloro-1,1,2,2-tetrafluoropropane;R 244ca;1-Chloro-2,2,3,3-tetrafluoropropane;HCFC 244ca",
    "duplicated_cas_no": "",
    "SMILES": "C(C(F)F)(CCl)(F)F",
    "meta_data": {
        "InChI": "InChI=1S/C3H3ClF4/c4-1-3(7,8)2(5)6/h2H,1H2",
        "InChIKey": null,
        "Canonical SMILES": "FC(F)C(F)(F)CCl",
        "Molecular Formula": "C<sub>3</sub>H<sub>3</sub>ClF<sub>4</sub>",
        "Molecular Mass": "150.50",
        "Boiling Point": "50-51 °C",
        "Melting Point": "-110 °C",
        "Density": "1.43 g/cm³ @ Temp: 20 °C"
    }
}