{
    "cas_no": "95-93-2",
    "key_name": "Durene",
    "cn_name": "1,2,4,5-四甲苯;均四甲苯;",
    "alternate_name": "Benzene, 1,2,4,5-tetramethyl-;<em>p</em>-Xylene, 2,5-dimethyl-;1,2,4,5-Tetramethylbenzene;Durene;Durol;NSC 6770;S 150;Xinhe S 150;SJB",
    "duplicated_cas_no": "",
    "SMILES": "CC1=C(C)C=C(C)C(C)=C1",
    "meta_data": {
        "InChI": "InChI=1S/C10H14/c1-7-5-9(3)10(4)6-8(7)2/h5-6H,1-4H3",
        "InChIKey": null,
        "Canonical SMILES": "C=1C(=C(C=C(C1C)C)C)C",
        "Molecular Formula": "C<sub>10</sub>H<sub>14</sub>",
        "Molecular Mass": "134.22",
        "Boiling Point": "196.8 °C",
        "Melting Point": "79.3 °C",
        "Density": "0.825 g/cm³ @ Temp: 102 °C; Press: 750 Torr"
    }
}