{
    "cas_no": "22198-72-7",
    "key_name": "3<em>H</em>-Pyrazol-3-one, 4-amino-1,2-dihydro-1,5-dimethyl-2-phenyl-, hydrochloride (1:1)",
    "cn_name": "4-氨基安替比林盐酸盐;",
    "alternate_name": "3<em>H</em>-Pyrazol-3-one, 4-amino-1,2-dihydro-1,5-dimethyl-2-phenyl-, hydrochloride (1:1);Antipyrine, 4-amino-, monohydrochloride;3<em>H</em>-Pyrazol-3-one, 4-amino-1,2-dihydro-1,5-dimethyl-2-phenyl-, monohydrochloride;4-Aminoantipyrine hydrochloride",
    "duplicated_cas_no": "",
    "SMILES": "O=C1N(N(C)C(C)=C1N)C2=CC=CC=C2.Cl",
    "meta_data": {
        "InChI": "InChI=1S/C11H13N3O.ClH/c1-8-10(12)11(15)14(13(8)2)9-6-4-3-5-7-9;/h3-7H,12H2,1-2H3;1H",
        "InChIKey": null,
        "Canonical SMILES": "Cl.O=C1C(N)=C(N(N1C=2C=CC=CC2)C)C",
        "Molecular Formula": "C<sub>11</sub>H<sub>13</sub>N<sub>3</sub>O.ClH",
        "Molecular Mass": "",
        "Melting Point": "201 °C"
    }
}