{
    "cas_no": "32703-79-0",
    "key_name": "4-<em>tert</em>-Butylphthalic anhydride",
    "cn_name": "4-叔丁基邻苯二甲酸酐;",
    "alternate_name": "1,3-Isobenzofurandione, 5-(1,1-dimethylethyl)-;Phthalic anhydride, 4-<em>tert</em>-butyl-;5-(1,1-Dimethylethyl)-1,3-isobenzofurandione;4-<em>tert</em>-Butylphthalic anhydride;4-<em>tert</em>-Butyl phthalic acid anhydride;5-<em>tert</em>-Butyl-1,3-isobenzofurandione",
    "duplicated_cas_no": "",
    "SMILES": "O=C1C=2C(C(=O)O1)=CC=C(C(C)(C)C)C2",
    "meta_data": {
        "InChI": "InChI=1S/C12H12O3/c1-12(2,3)7-4-5-8-9(6-7)11(14)15-10(8)13/h4-6H,1-3H3",
        "InChIKey": null,
        "Canonical SMILES": "O=C1OC(=O)C2=CC(=CC=C12)C(C)(C)C",
        "Molecular Formula": "C<sub>12</sub>H<sub>12</sub>O<sub>3</sub>",
        "Molecular Mass": "204.22",
        "Melting Point": "75.5-76.5 °C"
    }
}