{
    "cas_no": "54815-13-3",
    "key_name": "1,1-Diethoxynonane",
    "cn_name": "壬醛二乙缩醛; 1,1-二乙氧基壬烷;",
    "alternate_name": "Nonane, 1,1-diethoxy-;Nonanal, diethyl acetal;1,1-Diethoxynonane",
    "duplicated_cas_no": "",
    "SMILES": "C(CCCCCCCC)(OCC)OCC",
    "meta_data": {
        "InChI": "InChI=1S/C13H28O2/c1-4-7-8-9-10-11-12-13(14-5-2)15-6-3/h13H,4-12H2,1-3H3",
        "InChIKey": null,
        "Canonical SMILES": "O(CC)C(OCC)CCCCCCCC",
        "Molecular Formula": "C<sub>13</sub>H<sub>28</sub>O<sub>2</sub>",
        "Molecular Mass": "216.36",
        "Boiling Point": "130 °C @ Press: 20 Torr"
    }
}