{
    "cas_no": "110-14-5",
    "key_name": "Succinamide",
    "cn_name": "丁二酰胺;",
    "alternate_name": "Butanediamide;Succinamide;Succindiamide;Succinic amide;Succinic acid diamide;T 152;NSC 8157;T 152 (emulsifier)",
    "duplicated_cas_no": "",
    "SMILES": "C(CC(N)=O)C(N)=O",
    "meta_data": {
        "InChI": "InChI=1S/C4H8N2O2/c5-3(7)1-2-4(6)8/h1-2H2,(H2,5,7)(H2,6,8)",
        "InChIKey": null,
        "Canonical SMILES": "O=C(N)CCC(=O)N",
        "Molecular Formula": "C<sub>4</sub>H<sub>8</sub>N<sub>2</sub>O<sub>2</sub>",
        "Molecular Mass": "116.12",
        "Melting Point": "268 °C (decomp)",
        "Density": "1.442 g/cm³"
    }
}