{
    "cas_no": "5068-28-0",
    "key_name": "<em>N</em>-<em>tert</em>-Butoxycarbonyl-<em>S</em>-benzyl-<span class=\"text-smallcaps\">L</span>-cysteine",
    "cn_name": "Boc-S-苄基-L-半光氨酸;叔丁氧羰基-S-苄基-L-半光氨酸;",
    "alternate_name": "<span class=\"text-smallcaps\">L</span>-Cysteine, <em>N</em>-[(1,1-dimethylethoxy)carbonyl]-<em>S</em>-(phenylmethyl)-;Alanine, 3-(benzylthio)-<em>N</em>-carboxy-, <em>N</em>-<em>tert</em>-butyl ester, <span class=\"text-smallcaps\">L</span>-;Alanine, 3-(benzylthio)-<em>N</em>-carboxy-, <em>N</em>-<em>tert</em>-butyl ester;<em>N</em>-[(1,1-Dimethylethoxy)carbonyl]-<em>S</em>-(phenylmethyl)-<span class=\"text-smallcaps\">L</span>-cysteine;<em>N</em>-<em>tert</em>-Butoxycarbonyl-<em>S</em>-benzyl-<span class=\"text-smallcaps\">L</span>-cysteine;<em>N</em>-<em>tert</em>-Butyloxycarbonyl-<em>S</em>-benzyl-<span class=\"text-smallcaps\">L</span>-cysteine;<em>N</em>-<em>tert</em>-Butoxycarbonyl-<em>S</em>-benzylcysteine;NSC 164041;(2R)-3-Benzylsulfanyl-2-[(2-methylpropan-2-yl)oxycarbonylamino]propanoic acid;(R)-3-(Benzylthio)-2-((<em>tert</em>-butoxycarbonyl)amino)propanoic acid",
    "duplicated_cas_no": "96540-74-8",
    "SMILES": "C(SC[C@H](NC(OC(C)(C)C)=O)C(O)=O)C1=CC=CC=C1",
    "meta_data": {
        "InChI": "InChI=1S/C15H21NO4S/c1-15(2,3)20-14(19)16-12(13(17)18)10-21-9-11-7-5-4-6-8-11/h4-8,12H,9-10H2,1-3H3,(H,16,19)(H,17,18)/t12-/m0/s1",
        "InChIKey": null,
        "Canonical SMILES": "O=C(OC(C)(C)C)NC(C(=O)O)CSCC=1C=CC=CC1",
        "Molecular Formula": "C<sub>15</sub>H<sub>21</sub>NO<sub>4</sub>S",
        "Molecular Mass": "311.40",
        "Melting Point": "86-87 °C"
    }
}