{
    "cas_no": "136434-34-9",
    "key_name": "Duloxetine hydrochloride",
    "cn_name": "盐酸度洛西汀;(S)-(+)-N-甲基-3-(1-萘氧基)-3-(2-噻吩)-丙胺盐酸盐;",
    "alternate_name": "2-Thiophenepropanamine, <em>N</em>-methyl-γ-(1-naphthalenyloxy)-, hydrochloride (1:1), (γ<em>S</em>)-;2-Thiophenepropanamine, <em>N</em>-methyl-γ-(1-naphthalenyloxy)-, hydrochloride, (<em>S</em>)-;2-Thiophenepropanamine, <em>N</em>-methyl-γ-(1-naphthalenyloxy)-, hydrochloride, (γ<em>S</em>)-;LY 248686 HCl;(<em>S</em>)-(+)-<em>N</em>-Methyl-3-(1-naphthalenyloxy)-3-(2-thienyl)propanamine hydrochloride;Duloxetine hydrochloride;Cymbalta;(<em>S</em>)-Duloxetine hydrochloride;(<em>S</em>)-(+)-Duloxetine hydrochloride;Dulane 20;(<em>S</em>)-γ-(1-Naphthalenoxy)-<em>N</em>-methylthiophene-2-propanamine monohydrochloride;(<em>S</em>)-<em>N</em>-Methyl-3-(naphthalen-1-yloxy)-3-(thiophen-2-yl)propan-1-amine hydrochloride;Yentreve;Irenka;Drizalma Sprinkle",
    "duplicated_cas_no": "",
    "SMILES": "O([C@@H](CCNC)C1=CC=CS1)C=2C3=C(C=CC2)C=CC=C3.Cl",
    "meta_data": {
        "InChI": "InChI=1S/C18H19NOS.ClH/c1-19-12-11-17(18-10-5-13-21-18)20-16-9-4-7-14-6-2-3-8-15(14)16;/h2-10,13,17,19H,11-12H2,1H3;1H/t17-;/m0./s1",
        "InChIKey": null,
        "Canonical SMILES": "Cl.O(C1=CC=CC=2C=CC=CC12)C(C=3SC=CC3)CCNC",
        "Molecular Formula": "C<sub>18</sub>H<sub>19</sub>NOS.ClH",
        "Molecular Mass": "",
        "Melting Point": "165-171 °C (polymorph)"
    }
}