{
    "cas_no": "14446-67-4",
    "key_name": "1-(2-Propen-1-yl)piperidine",
    "cn_name": "1-烯丙基哌啶;",
    "alternate_name": "Piperidine, 1-(2-propen-1-yl)-;Piperidine, 1-allyl-;Piperidine, 1-(2-propenyl)-;1-(2-Propen-1-yl)piperidine;<em>N</em>-Allylpiperidine;1-Allylpiperidine;1-(2-Propenyl)piperidine",
    "duplicated_cas_no": "",
    "SMILES": "C(C=C)N1CCCCC1",
    "meta_data": {
        "InChI": "InChI=1S/C8H15N/c1-2-6-9-7-4-3-5-8-9/h2H,1,3-8H2",
        "InChIKey": null,
        "Canonical SMILES": "C=CCN1CCCCC1",
        "Molecular Formula": "C<sub>8</sub>H<sub>15</sub>N",
        "Molecular Mass": "125.21",
        "Boiling Point": "152 °C",
        "Melting Point": "51-52 °C"
    }
}