{
    "cas_no": "2883-02-5",
    "key_name": "Nonylcyclohexane",
    "cn_name": "壬基环己烷;",
    "alternate_name": "Cyclohexane, nonyl-;Nonane, 1-cyclohexyl-;Nonylcyclohexane;<em>n</em>-Nonylcyclohexane;1-Cyclohexylnonane",
    "duplicated_cas_no": "",
    "SMILES": "C(CCCCCCCC)C1CCCCC1",
    "meta_data": {
        "InChI": "InChI=1S/C15H30/c1-2-3-4-5-6-7-9-12-15-13-10-8-11-14-15/h15H,2-14H2,1H3",
        "InChIKey": null,
        "Canonical SMILES": "CCCCCCCCCC1CCCCC1",
        "Molecular Formula": "C<sub>15</sub>H<sub>30</sub>",
        "Molecular Mass": "210.40",
        "Boiling Point": "282 °C",
        "Melting Point": "-10 °C",
        "Density": "0.8172 g/cm³ @ Temp: 20 °C"
    }
}