{
    "cas_no": "5884-22-0",
    "key_name": "Isoquinoline, 1-[(3,4-dimethoxyphenyl)methyl]-3,4-dihydro-6,7-dimethoxy-, hydrochloride (1:1)",
    "cn_name": null,
    "alternate_name": "Isoquinoline, 1-[(3,4-dimethoxyphenyl)methyl]-3,4-dihydro-6,7-dimethoxy-, hydrochloride (1:1);Isoquinoline, 3,4-dihydro-6,7-dimethoxy-1-veratryl-, hydrochloride;Isoquinoline, 1-[(3,4-dimethoxyphenyl)methyl]-3,4-dihydro-6,7-dimethoxy-, hydrochloride;1-(3,4-Dimethoxybenzyl)-6,7-dimethoxy-3,4-dihydroisoquinoline hydrochloride;3,4-Dihydropapaverine hydrochloride;Dihydropapaverine hydrochloride;1-(3,4-Dimethoxybenzyl)-3,4-dihydro-6,7-dimethoxyisoquinolinium chloride",
    "duplicated_cas_no": "",
    "SMILES": "C(C=1C=2C(=CC(OC)=C(OC)C2)CCN1)C3=CC(OC)=C(OC)C=C3.Cl",
    "meta_data": {
        "InChI": "InChI=1S/C20H23NO4.ClH/c1-22-17-6-5-13(10-18(17)23-2)9-16-15-12-20(25-4)19(24-3)11-14(15)7-8-21-16;/h5-6,10-12H,7-9H2,1-4H3;1H",
        "InChIKey": null,
        "Canonical SMILES": "Cl.N1=C(C=2C=C(OC)C(OC)=CC2CC1)CC3=CC=C(OC)C(OC)=C3",
        "Molecular Formula": "C<sub>20</sub>H<sub>23</sub>NO<sub>4</sub>.ClH",
        "Molecular Mass": "",
        "Melting Point": "180-182 °C"
    }
}