{
    "cas_no": "97944-40-6",
    "key_name": "3-Chloro-2-methyl-4-pyridinamine",
    "cn_name": null,
    "alternate_name": "4-Pyridinamine, 3-chloro-2-methyl-;3-Chloro-2-methyl-4-pyridinamine;4-Amino-3-chloro-2-methylpyridine",
    "duplicated_cas_no": "",
    "SMILES": "ClC=1C(N)=CC=NC1C",
    "meta_data": {
        "InChI": "InChI=1S/C6H7ClN2/c1-4-6(7)5(8)2-3-9-4/h2-3H,1H3,(H2,8,9)",
        "InChIKey": null,
        "Canonical SMILES": "ClC1=C(N)C=CN=C1C",
        "Molecular Formula": "C<sub>6</sub>H<sub>7</sub>ClN<sub>2</sub>",
        "Molecular Mass": "142.59",
        "Melting Point": "110.0 °C"
    }
}