{
    "cas_no": "6157-87-5",
    "key_name": "Trestolone acetate",
    "cn_name": null,
    "alternate_name": "Estr-4-en-3-one, 17-(acetyloxy)-7-methyl-, (7α,17β)-;Estr-4-en-3-one, 17β-hydroxy-7α-methyl-, acetate;(7α,17β)-17-(Acetyloxy)-7-methylestr-4-en-3-one;Trestolone acetate;U 15614;NSC 69948;7α-Methyl-19-nortestosterone acetate",
    "duplicated_cas_no": "",
    "SMILES": "C[C@H]1[C@]2([C@]3([C@@](C)([C@@H](OC(C)=O)CC3)CC[C@@]2([C@@]4(C(C1)=CC(=O)CC4)[H])[H])[H])[H]",
    "meta_data": {
        "InChI": "InChI=1S/C21H30O3/c1-12-10-14-11-15(23)4-5-16(14)17-8-9-21(3)18(20(12)17)6-7-19(21)24-13(2)22/h11-12,16-20H,4-10H2,1-3H3/t12-,16+,17-,18+,19+,20-,21+/m1/s1",
        "InChIKey": null,
        "Canonical SMILES": "O=C(OC1CCC2C3C(C)CC4=CC(=O)CCC4C3CCC12C)C",
        "Molecular Formula": "C<sub>21</sub>H<sub>30</sub>O<sub>3</sub>",
        "Molecular Mass": "330.46",
        "Melting Point": "111-114 °C"
    }
}