{
    "cas_no": "76801-85-9",
    "key_name": "9-Deoxo-9a-aza-9a-homoerythromycin A",
    "cn_name": null,
    "alternate_name": "1-Oxa-6-azacyclopentadecan-15-one, 13-[(2,6-dideoxy-3-<em>C</em>-methyl-3-<em>O</em>-methyl-α-<span class=\"text-smallcaps\">L</smallcap>-<em>ribo</em>-hexopyranosyl)oxy]-2-ethyl-3,4,10-trihydroxy-3,5,8,10,12,14-hexamethyl-11-[[3,4,6-trideoxy-3-(dimethylamino)-β-<smallcap>D</span>-<em>xylo</em>-hexopyranosyl]oxy]-, (2<em>R</em>,3<em>S</em>,4<em>R</em>,5<em>R</em>,8<em>R</em>,10<em>R</em>,11<em>R</em>,12<em>S</em>,13<em>S</em>,14<em>R</em>)-;1-Oxa-6-azacyclopentadecan-15-one, 13-[(2,6-dideoxy-3-<em>C</em>-methyl-3-<em>O</em>-methyl-α-<span class=\"text-smallcaps\">L</smallcap>-<em>ribo</em>-hexopyranosyl)oxy]-2-ethyl-3,4,10-trihydroxy-3,5,8,10,12,14-hexamethyl-11-[[3,4,6-trideoxy-3-(dimethylamino)-β-<smallcap>D</span>-<em>xylo</em>-hexopyranosyl]oxy]-, [2<em>R</em>-(2<em>R</em>*,3<em>S</em>*,4<em>R</em>*,5<em>R</em>*,8<em>R</em>*,10<em>R</em>*,11<em>R</em>*,12<em>S</em>*,13<em>S</em>*,14<em>R</em>*)]-;(2<em>R</em>,3<em>S</em>,4<em>R</em>,5<em>R</em>,8<em>R</em>,10<em>R</em>,11<em>R</em>,12<em>S</em>,13<em>S</em>,14<em>R</em>)-13-[(2,6-Dideoxy-3-<em>C</em>-methyl-3-<em>O</em>-methyl-α-<span class=\"text-smallcaps\">L</smallcap>-<em>ribo</em>-hexopyranosyl)oxy]-2-ethyl-3,4,10-trihydroxy-3,5,8,10,12,14-hexamethyl-11-[[3,4,6-trideoxy-3-(dimethylamino)-β-<smallcap>D</span>-<em>xylo</em>-hexopyranosyl]oxy]-1-oxa-6-azacyclopentadecan-15-one;Azathramycin;9-Deoxo-9a-aza-9a-homoerythromycin A;Azaerythromycin A;Azahomoerythromycin",
    "duplicated_cas_no": "166036-11-9",
    "SMILES": "O([C@H]1[C@H](C)[C@@H](O[C@H]2[C@H](O)[C@@H](N(C)C)C[C@@H](C)O2)[C@](C)(O)C[C@@H](C)CN[C@H](C)[C@@H](O)[C@](C)(O)[C@@H](CC)OC(=O)[C@@H]1C)[C@H]3C[C@](OC)(C)[C@@H](O)[C@H](C)O3",
    "meta_data": {
        "InChI": "InChI=1S/C37H70N2O12/c1-14-26-37(10,45)30(41)23(6)38-18-19(2)16-35(8,44)32(51-34-28(40)25(39(11)12)15-20(3)47-34)21(4)29(22(5)33(43)49-26)50-27-17-36(9,46-13)31(42)24(7)48-27/h19-32,34,38,40-42,44-45H,14-18H2,1-13H3/t19-,20-,21+,22-,23-,24+,25+,26-,27+,28-,29+,30-,31+,32-,34+,35-,36-,37-/m1/s1",
        "InChIKey": null,
        "Canonical SMILES": "O=C1OC(CC)C(O)(C)C(O)C(NCC(C)CC(O)(C)C(OC2OC(C)CC(N(C)C)C2O)C(C)C(OC3OC(C)C(O)C(OC)(C)C3)C1C)C",
        "Molecular Formula": "C<sub>37</sub>H<sub>70</sub>N<sub>2</sub>O<sub>12</sub>",
        "Molecular Mass": "734.96",
        "Melting Point": "115 °C"
    }
}