{
    "cas_no": "4659-47-6",
    "key_name": "2,3,6-Trichlorobenzaldehyde",
    "cn_name": "2,3,6-三氯苯甲醛;",
    "alternate_name": "Benzaldehyde, 2,3,6-trichloro-;2,3,6-Trichlorobenzaldehyde",
    "duplicated_cas_no": "",
    "SMILES": "C(=O)C1=C(Cl)C(Cl)=CC=C1Cl",
    "meta_data": {
        "InChI": "InChI=1S/C7H3Cl3O/c8-5-1-2-6(9)7(10)4(5)3-11/h1-3H",
        "InChIKey": null,
        "Canonical SMILES": "O=CC=1C(Cl)=CC=C(Cl)C1Cl",
        "Molecular Formula": "C<sub>7</sub>H<sub>3</sub>Cl<sub>3</sub>O",
        "Molecular Mass": "209.46",
        "Melting Point": "86-87 °C"
    }
}