{
    "cas_no": "60323-96-8",
    "key_name": "2-Chloro-5-methyl-4-nitropyridine <em>N</em>-oxide",
    "cn_name": null,
    "alternate_name": "Pyridine, 2-chloro-5-methyl-4-nitro-, 1-oxide;2-Chloro-5-methyl-4-nitropyridine 1-oxide;2-Chloro-5-methyl-4-nitropyridine <em>N</em>-oxide;2-Chloro-5-methyl-4-nitropyridin-1-ium-1-olate;2-Chloro-5-methyl-4-nitro-1-oxidopyridin-1-ium;2-Chloro-5-methyl-4-nitropyridin-1-ium 1-oxide;2-Chloro-4-nitro-5-methylpyridine <em>N</em>-oxide",
    "duplicated_cas_no": "",
    "SMILES": "N(=O)(=O)C=1C(C)=CN(=O)=C(Cl)C1",
    "meta_data": {
        "InChI": "InChI=1S/C6H5ClN2O3/c1-4-3-8(10)6(7)2-5(4)9(11)12/h2-3H,1H3",
        "InChIKey": null,
        "Canonical SMILES": "O=N(=O)C1=CC(Cl)=N(=O)C=C1C",
        "Molecular Formula": "C<sub>6</sub>H<sub>5</sub>ClN<sub>2</sub>O<sub>3</sub>",
        "Molecular Mass": "188.57",
        "Melting Point": "154-155 °C"
    }
}