{
    "cas_no": "7689-03-4",
    "key_name": "Camptothecin",
    "cn_name": "喜树碱;",
    "alternate_name": "1<em>H</em>-Pyrano[3′,4′:6,7]indolizino[1,2-<em>b</em>]quinoline-3,14(4<em>H</em>,12<em>H</em>)-dione, 4-ethyl-4-hydroxy-, (4<em>S</em>)-;Camptothecine;1<em>H</em>-Pyrano[3′,4′:6,7]indolizino[1,2-<em>b</em>]quinoline-3,14(4<em>H</em>,12<em>H</em>)-dione, 4-ethyl-4-hydroxy-, (<em>S</em>)-;(4<em>S</em>)-4-Ethyl-4-hydroxy-1<em>H</em>-pyrano[3′,4′:6,7]indolizino[1,2-<em>b</em>]quinoline-3,14(4<em>H</em>,12<em>H</em>)-dione;Camptothecin;20(<em>S</em>)-Camptothecine;<em>d</em>-Camptothecin;NSC 94600;(<em>S</em>)-Camptothecin;20(<em>S</em>)-Camptothecin;(+)-Camptothecin;(+)-Camptothecine;MAG-CPT;Campathecin;(<em>S</em>)-(+)-Camptothecin;S-CKD 602;(19S)-19-ethyl-19-hydroxy-17-oxa-3,13-diazapentacyclo[11.8.0.02,11.04,9.015,20]henicosa-1(21),2,4,6,8,10,15(20)-heptaene-14,18-dione;ZINC 105309;MeSH ID: D002166",
    "duplicated_cas_no": "30628-51-4;157405-40-8",
    "SMILES": "C(C)[C@]1(O)C2=C(C(=O)N3C(=C2)C=4C(C3)=CC=5C(N4)=CC=CC5)COC1=O",
    "meta_data": {
        "InChI": "InChI=1S/C20H16N2O4/c1-2-20(25)14-8-16-17-12(7-11-5-3-4-6-15(11)21-17)9-22(16)18(23)13(14)10-26-19(20)24/h3-8,25H,2,9-10H2,1H3/t20-/m0/s1",
        "InChIKey": null,
        "Canonical SMILES": "O=C1OCC=2C(=O)N3C(=CC2C1(O)CC)C=4N=C5C=CC=CC5=CC4C3",
        "Molecular Formula": "C<sub>20</sub>H<sub>16</sub>N<sub>2</sub>O<sub>4</sub>",
        "Molecular Mass": "348.35",
        "Melting Point": "255-277 °C (decomp)"
    }
}