{
    "cas_no": "7681-76-7",
    "key_name": "1-Methyl-2-carbamoyloxymethyl-5-nitroimidazole",
    "cn_name": "罗硝唑;甲硝咪乙酰胺;",
    "alternate_name": "1<em>H</em>-Imidazole-2-methanol, 1-methyl-5-nitro-, 2-carbamate;Imidazole-2-methanol, 1-methyl-5-nitro-, carbamate (ester);1<em>H</em>-Imidazole-2-methanol, 1-methyl-5-nitro-, carbamate (ester);1-Methyl-2-carbamoyloxymethyl-5-nitroimidazole;(1-Methyl-5-nitroimidazol-2-yl)methyl carbamate;Ronidazole;Ridzole;Ridzol P;Ridzol;Dugro;MCMN;Ronida BT;(1-Methyl-5-nitro-1<em>H</em>-imidazol-2-yl)methyl carbamate",
    "duplicated_cas_no": "",
    "SMILES": "C(OC(N)=O)C=1N(C)C(N(=O)=O)=CN1",
    "meta_data": {
        "InChI": "InChI=1S/C6H8N4O4/c1-9-4(3-14-6(7)11)8-2-5(9)10(12)13/h2H,3H2,1H3,(H2,7,11)",
        "InChIKey": null,
        "Canonical SMILES": "O=C(OCC1=NC=C(N(=O)=O)N1C)N",
        "Molecular Formula": "C<sub>6</sub>H<sub>8</sub>N<sub>4</sub>O<sub>4</sub>",
        "Molecular Mass": "200.15",
        "Melting Point": "168 °C"
    }
}