{
    "cas_no": "148-79-8",
    "key_name": "Thiabendazole",
    "cn_name": "噻苯咪唑;噻苯唑;噻菌灵;2-(1,3-噻唑-4-基)苯并咪唑;",
    "alternate_name": "1<em>H</em>-Benzimidazole, 2-(4-thiazolyl)-;Benzimidazole, 2-(4-thiazolyl)-;2-(4-Thiazolyl)-1<em>H</em>-benzimidazole;MK 360;Mintezol;Thiabendazole;Thiabenzole;2-(4-Thiazolyl)benzimidazole;TBZ 60W;Mertect 160;Mertect;TBZ;Thiabendazol;Tecto;Thibenzol;2-(4′-Thiazolyl)benzimidazole;Equizole;Tecto 60;Mintesol;Thibenzole;Thibenzole 200;Tiabendazol;Tiabendazole;Minzolum;Triasox;Omnizole;Tiabenda;Metasol TK 100;Tebuzate;TBZ 6;Tecto 40F;Tecto 10P;Tibimix 20;Thibendole;Thiabendole;Sistesan;Sanaizol 100;MSD 18;Chemviron TK 100;Tecto B;5-(4-Thiazolyl)benzimidazole;G 491;Storite;Ormogal;Cropasal;Mertect 340F;Tectab;Tecta;Pitrizet;Mertect LSP;Hokkustar HP;Hokustar HP;Drawipas;TBZ (fungicide);2-(4′-Thiazoyl)benzimidazole;2-(4-Thiazolyl)-1<em>H</em>-benzoimidazole;Amolden HS;2-(4-Triazolyl)benzimidazole;Bovizole;Lombristop;Polival;Top Form Wormer;Thiaben;Eprofil;Nemapan;Sanaizol TBZ-FL 25;NSC 525040;NSC 90507;Marukacide M 101;2-(1,3-Thiazol-4-yl)-1<em>H</em>-benzimidazole;Metasol TK 25AD;TK 25AD;Irgaguard F 3000;Metasol TK 25;4-(1<em>H</em>-Benzimidazol-2-yl)thiazole;Metasol TK 50AD;2-(4-Thiazoyl)benzimidazole;Biogard TBH;2-(1,3-Thiazol-4-yl)benzimidazole;2-(1,3-Thiazol-4-yl)-1<em>H</em>-1,3-benzodiazole;Neo-Sintol AF 75;MeSH ID: D013827;Synthol M 100;Synthol M 30",
    "duplicated_cas_no": "8018-04-0;8027-10-9;8028-27-1;94977-06-7;98002-42-7;123242-33-1;145316-67-2;1135441-27-8;1983131-69-6",
    "SMILES": "C=1(NC=2C(N1)=CC=CC2)C3=CSC=N3",
    "meta_data": {
        "InChI": "InChI=1S/C10H7N3S/c1-2-4-8-7(3-1)12-10(13-8)9-5-14-6-11-9/h1-6H,(H,12,13)",
        "InChIKey": null,
        "Canonical SMILES": "N1=CSC=C1C2=NC3=CC=CC=C3N2",
        "Molecular Formula": "C<sub>10</sub>H<sub>7</sub>N<sub>3</sub>S",
        "Molecular Mass": "201.25",
        "Melting Point": "304-305 °C"
    }
}