{
    "cas_no": "597-64-8",
    "key_name": "Tetraethyltin",
    "cn_name": "四乙基锡;四乙錫;",
    "alternate_name": "Stannane, tetraethyl-;Tetraethylstannane;Tetraethyltin;NSC 22315",
    "duplicated_cas_no": "",
    "SMILES": "[Sn](CC)(CC)(CC)CC",
    "meta_data": {
        "InChI": "InChI=1S/4C2H5.Sn/c4*1-2;/h4*1H2,2H3;",
        "InChIKey": null,
        "Canonical SMILES": "CC[Sn](CC)(CC)CC",
        "Molecular Formula": "C<sub>8</sub>H<sub>20</sub>Sn",
        "Molecular Mass": "234.95",
        "Boiling Point": "181 °C @ Press: 760 Torr",
        "Melting Point": "-112 °C",
        "Density": "1.199 g/cm³ @ Temp: 20 °C"
    }
}