{
    "cas_no": "952-06-7",
    "key_name": "Ethanone, 1,2-diphenyl-, oxime",
    "cn_name": null,
    "alternate_name": "Ethanone, 1,2-diphenyl-, oxime;Acetophenone, 2-phenyl-, oxime;Benzyl phenyl ketoxime;Benzyl phenyl ketone oxime;2-Phenylacetophenone oxime;1,2-Diphenylethanone oxime;NSC 135001;NSC 36666;1,2-Diphenyl-1-ethanoneoxime;1,2-Diphenyl-1-ethanone oxime",
    "duplicated_cas_no": "",
    "SMILES": "C(CC1=CC=CC=C1)(=NO)C2=CC=CC=C2",
    "meta_data": {
        "InChI": "InChI=1S/C14H13NO/c16-15-14(13-9-5-2-6-10-13)11-12-7-3-1-4-8-12/h1-10,16H,11H2",
        "InChIKey": null,
        "Canonical SMILES": "ON=C(C=1C=CC=CC1)CC=2C=CC=CC2",
        "Molecular Formula": "C<sub>14</sub>H<sub>13</sub>NO",
        "Molecular Mass": "211.26",
        "Melting Point": "98 °C"
    }
}