{
    "cas_no": "381-98-6",
    "key_name": "2-(Trifluoromethyl)acrylic acid",
    "cn_name": "2-(三氟甲基)丙烯酸;",
    "alternate_name": "2-Propenoic acid, 2-(trifluoromethyl)-;Acrylic acid, 2-(trifluoromethyl)-;2-(Trifluoromethyl)-2-propenoic acid;2-(Trifluoromethyl)acrylic acid;α-(Trifluoromethyl)acrylic acid;2-Trifluoromethylpropenoic acid;2-Trifluoromethylprop-2-enoic acid;α-Trifluoromethacrylic acid;2-(Trifluoromethyl)methacrylic acid;Trifluoromethyl acrylic acid",
    "duplicated_cas_no": "124368-18-9",
    "SMILES": "C(C(F)(F)F)(C(O)=O)=C",
    "meta_data": {
        "InChI": "InChI=1S/C4H3F3O2/c1-2(3(8)9)4(5,6)7/h1H2,(H,8,9)",
        "InChIKey": null,
        "Canonical SMILES": "O=C(O)C(=C)C(F)(F)F",
        "Molecular Formula": "C<sub>4</sub>H<sub>3</sub>F<sub>3</sub>O<sub>2</sub>",
        "Molecular Mass": "140.06",
        "Boiling Point": "146-148 °C",
        "Melting Point": "51.5 °C"
    }
}