{
    "cas_no": "39968-33-7",
    "key_name": "HOAt",
    "cn_name": null,
    "alternate_name": "3<em>H</em>-1,2,3-Triazolo[4,5-<em>b</em>]pyridine, 3-hydroxy-;3-Hydroxy-3<em>H</em>-1,2,3-triazolo[4,5-<em>b</em>]pyridine;1-Hydroxy-1<em>H</em>-<em>v</em>-triazolo[4,5-<em>b</em>]pyridine;1-Hydroxy-7-azabenzotriazole;7-Aza-1-hydroxybenzotriazole;HOAt;[1,2,3]Triazolo[4,5-<em>b</em>]pyridin-3-ol;1-Hydroxyl-7-azabenzotriazole;3<em>H</em>-[1,2,3]Triazolo[4,5-<em>b</em>]pyridin-3-ol;<em>N</em>-Hydroxy-7-azabenzotriazole;3-Hydroxytriazolo[4,5-<em>b</em>]pyridine",
    "duplicated_cas_no": "",
    "SMILES": "ON1C=2C(=CC=CN2)N=N1",
    "meta_data": {
        "InChI": "InChI=1S/C5H4N4O/c10-9-5-4(7-8-9)2-1-3-6-5/h1-3,10H",
        "InChIKey": null,
        "Canonical SMILES": "ON1N=NC=2C=CC=NC21",
        "Molecular Formula": "C<sub>5</sub>H<sub>4</sub>N<sub>4</sub>O",
        "Molecular Mass": "136.11",
        "Melting Point": "215-217 °C",
        "Density": "1.603 g/cm³"
    }
}