{
    "cas_no": "28767-75-1",
    "key_name": "(2,4-Dinitrophenyl)ethylenediamine",
    "cn_name": null,
    "alternate_name": "1,2-Ethanediamine, <em>N</em><sup>1</sup>-(2,4-dinitrophenyl)-;Ethylenediamine, <em>N</em>-(2,4-dinitrophenyl)-;1,2-Ethanediamine, <em>N</em>-(2,4-dinitrophenyl)-;<em>N</em><sup>1</sup>-(2,4-Dinitrophenyl)-1,2-ethanediamine;<em>N</em>-(2-Aminoethyl)-2,4-dinitroaniline;(2,4-Dinitrophenyl)ethylenediamine;<em>N</em>-(2,4-Dinitrophenyl)ethylenediamine",
    "duplicated_cas_no": "",
    "SMILES": "N(=O)(=O)C1=C(NCCN)C=CC(N(=O)=O)=C1",
    "meta_data": {
        "InChI": "InChI=1S/C8H10N4O4/c9-3-4-10-7-2-1-6(11(13)14)5-8(7)12(15)16/h1-2,5,10H,3-4,9H2",
        "InChIKey": null,
        "Canonical SMILES": "O=N(=O)C1=CC=C(NCCN)C(=C1)N(=O)=O",
        "Molecular Formula": "C<sub>8</sub>H<sub>10</sub>N<sub>4</sub>O<sub>4</sub>",
        "Molecular Mass": "226.19",
        "Melting Point": "84-85 °C"
    }
}