{
    "cas_no": "12054-48-7",
    "key_name": "Nickel dihydroxide",
    "cn_name": "氢氧化镍;氢氧化亚镍;",
    "alternate_name": "Nickel hydroxide (Ni(OH)<sub>2</sub>);Nickelous hydroxide;Nickel hydroxide;Nickel dihydroxide;Nickel(II) hydroxide;Nickel(2+) hydroxide;N 104966",
    "duplicated_cas_no": "862365-66-0;2108137-78-4;2457307-71-8;2631628-81-2",
    "SMILES": "[Ni](O)O",
    "meta_data": {
        "InChI": "InChI=1S/Ni.2H2O/h;2*1H2/q+2;;/p-2",
        "InChIKey": null,
        "Canonical SMILES": "O[Ni]O",
        "Molecular Formula": "H<sub>2</sub>NiO<sub>2</sub>",
        "Molecular Mass": "",
        "Melting Point": "230 °C (decomp)",
        "Density": "4.1 g/cm³"
    }
}