{
    "cas_no": "4170-24-5",
    "key_name": "2-Chlorobutanoic acid",
    "cn_name": "2-氯丁酸;",
    "alternate_name": "Butanoic acid, 2-chloro-;Butyric acid, 2-chloro-;Butyric acid, α-chloro-;2-Chlorobutanoic acid;2-Chlorobutyric acid;α-Chlorobutyric acid;(±)-2-Chlorobutyric acid;(±)-α-Chlorobutanoic acid;(±)-2-Chlorobutanoic acid;(<em>RS</em>)-α-Chlorobutyric acid;(<em>RS</em>)-2-Chlorobutyric acid;α-Monochlorobutanoic acid;2-Chloro-<em>n</em>-butyric acid",
    "duplicated_cas_no": "600-12-4",
    "SMILES": "C(C(O)=O)(CC)Cl",
    "meta_data": {
        "InChI": "InChI=1S/C4H7ClO2/c1-2-3(5)4(6)7/h3H,2H2,1H3,(H,6,7)",
        "InChIKey": null,
        "Canonical SMILES": "O=C(O)C(Cl)CC",
        "Molecular Formula": "C<sub>4</sub>H<sub>7</sub>ClO<sub>2</sub>",
        "Molecular Mass": "122.55",
        "Boiling Point": "109.5 °C @ Press: 24 Torr",
        "Melting Point": "76.2-77 °C",
        "Density": "1.189 g/cm³ @ Temp: 25 °C"
    }
}