{
    "cas_no": "1453-93-6",
    "key_name": "Protopanaxatriol",
    "cn_name": null,
    "alternate_name": "Dammar-24-ene-3,6,12,20-tetrol, (3β,6α,12β,20<em>R</em>)-;Dammar-24-ene-3β,6α,12β,20-tetrol, (20<em>R</em>)-;(3β,6α,12β,20<em>R</em>)-Dammar-24-ene-3,6,12,20-tetrol;Protopanaxatriol;20(<em>R</em>)-Protopanaxatriol;20(<em>R</em>)-APPT",
    "duplicated_cas_no": "36564-54-2",
    "SMILES": "C[C@]12[C@@]3(C)[C@@]([C@@]([C@](CCC=C(C)C)(C)O)(CC3)[H])([C@H](O)C[C@@]1([C@]4(C)[C@@]([C@@H](O)C2)(C(C)(C)[C@@H](O)CC4)[H])[H])[H]",
    "meta_data": {
        "InChI": "InChI=1S/C30H52O4/c1-18(2)10-9-13-30(8,34)19-11-15-28(6)24(19)20(31)16-22-27(5)14-12-23(33)26(3,4)25(27)21(32)17-29(22,28)7/h10,19-25,31-34H,9,11-17H2,1-8H3/t19-,20+,21-,22+,23-,24-,25-,27+,28+,29+,30+/m0/s1",
        "InChIKey": null,
        "Canonical SMILES": "OC1CC2C3(C)CCC(O)C(C)(C)C3C(O)CC2(C)C4(C)CCC(C14)C(O)(C)CCC=C(C)C",
        "Molecular Formula": "C<sub>30</sub>H<sub>52</sub>O<sub>4</sub>",
        "Molecular Mass": "476.73",
        "Melting Point": "261-263 °C"
    }
}