{
    "cas_no": "4455-77-0",
    "key_name": "(Methoxymethyl)diphenylphosphine oxide",
    "cn_name": "(甲氧基甲基)二苯基磷氧;二苯(甲氧基甲基)氧化膦;",
    "alternate_name": "Phosphine oxide, (methoxymethyl)diphenyl-;(Methoxymethyl)diphenylphosphine oxide;Diphenyl(methoxymethyl)phosphine oxide;[Methoxymethyl(phenyl)phosphoryl]benzene",
    "duplicated_cas_no": "",
    "SMILES": "P(COC)(=O)(C1=CC=CC=C1)C2=CC=CC=C2",
    "meta_data": {
        "InChI": "InChI=1S/C14H15O2P/c1-16-12-17(15,13-8-4-2-5-9-13)14-10-6-3-7-11-14/h2-11H,12H2,1H3",
        "InChIKey": null,
        "Canonical SMILES": "O=P(C=1C=CC=CC1)(C=2C=CC=CC2)COC",
        "Molecular Formula": "C<sub>14</sub>H<sub>15</sub>O<sub>2</sub>P",
        "Molecular Mass": "246.24",
        "Melting Point": "113.5-114 °C"
    }
}