{
    "cas_no": "486-60-2",
    "key_name": "Bergaptol",
    "cn_name": null,
    "alternate_name": "7<em>H</em>-Furo[3,2-<em>g</em>][1]benzopyran-7-one, 4-hydroxy-;Bergaptol;4-Hydroxy-7<em>H</em>-furo[3,2-<em>g</em>][1]benzopyran-7-one;5-Hydroxypsoralen;5-Hydroxy-6,7-furanocoumarin;4-Hydroxybergapten;NSC 341958",
    "duplicated_cas_no": "",
    "SMILES": "OC=1C2=C(C=C3C1C=CO3)OC(=O)C=C2",
    "meta_data": {
        "InChI": "InChI=1S/C11H6O4/c12-10-2-1-6-9(15-10)5-8-7(11(6)13)3-4-14-8/h1-5,13H",
        "InChIKey": null,
        "Canonical SMILES": "O=C1OC=2C=C3OC=CC3=C(O)C2C=C1",
        "Molecular Formula": "C<sub>11</sub>H<sub>6</sub>O<sub>4</sub>",
        "Molecular Mass": "202.16",
        "Melting Point": "275-278 °C"
    }
}