{
    "cas_no": "24309-97-5",
    "key_name": "<em>N</em>-(2-Hydroxyethyl)-3-oxobutanamide",
    "cn_name": "N-羟基乙基乙酰乙酰胺;",
    "alternate_name": "Butanamide, <em>N</em>-(2-hydroxyethyl)-3-oxo-;Acetoacetamide, <em>N</em>-(2-hydroxyethyl)-;<em>N</em>-(2-Hydroxyethyl)-3-oxobutanamide;<em>N</em>-(2-Hydroxyethyl)acetoacetamide;β-(<em>N</em>-Acetoacetylamino)ethanol",
    "duplicated_cas_no": "",
    "SMILES": "C(C(NCCO)=O)C(C)=O",
    "meta_data": {
        "InChI": "InChI=1S/C6H11NO3/c1-5(9)4-6(10)7-2-3-8/h8H,2-4H2,1H3,(H,7,10)",
        "InChIKey": null,
        "Canonical SMILES": "O=C(NCCO)CC(=O)C",
        "Molecular Formula": "C<sub>6</sub>H<sub>11</sub>NO<sub>3</sub>",
        "Molecular Mass": "145.16",
        "Melting Point": "104-106 °C"
    }
}