{
    "cas_no": "4861-85-2",
    "key_name": "Isopropyl phenylacetate",
    "cn_name": "苯乙酸异丙酯;",
    "alternate_name": "Benzeneacetic acid, 1-methylethyl ester;Acetic acid, phenyl-, isopropyl ester;Isopropyl phenylacetate;Isopropyl benzeneacetate;1-Methylethyl 2-phenylethanoate",
    "duplicated_cas_no": "",
    "SMILES": "C(C(OC(C)C)=O)C1=CC=CC=C1",
    "meta_data": {
        "InChI": "InChI=1S/C11H14O2/c1-9(2)13-11(12)8-10-6-4-3-5-7-10/h3-7,9H,8H2,1-2H3",
        "InChIKey": null,
        "Canonical SMILES": "O=C(OC(C)C)CC=1C=CC=CC1",
        "Molecular Formula": "C<sub>11</sub>H<sub>14</sub>O<sub>2</sub>",
        "Molecular Mass": "178.23",
        "Boiling Point": "224 °C @ Press: 760 Torr",
        "Melting Point": "25-27 °C"
    }
}