{
    "cas_no": "3002-24-2",
    "key_name": "2,4-Hexanedione",
    "cn_name": null,
    "alternate_name": "2,4-Hexanedione;Propionylacetone;NSC 88937",
    "duplicated_cas_no": "",
    "SMILES": "C(CC(C)=O)(CC)=O",
    "meta_data": {
        "InChI": "InChI=1S/C6H10O2/c1-3-6(8)4-5(2)7/h3-4H2,1-2H3",
        "InChIKey": null,
        "Canonical SMILES": "O=C(C)CC(=O)CC",
        "Molecular Formula": "C<sub>6</sub>H<sub>10</sub>O<sub>2</sub>",
        "Molecular Mass": "114.14",
        "Boiling Point": "160 °C",
        "Melting Point": "197-198 °C",
        "Density": "0.9633 g/cm³ @ Temp: 15.6 °C"
    }
}