{
    "cas_no": "65902-59-2",
    "key_name": "2-Bromo-4-nitroimidazole",
    "cn_name": "2-溴-4-硝基咪唑;",
    "alternate_name": "1<em>H</em>-Imidazole, 2-bromo-5-nitro-;1<em>H</em>-Imidazole, 2-bromo-4-nitro-;2-Bromo-5-nitro-1<em>H</em>-imidazole;2-Bromo-4-nitro-1<em>H</em>-imidazole;2-Bromo-4-nitroimidazole",
    "duplicated_cas_no": "",
    "SMILES": "N(=O)(=O)C=1NC(Br)=NC1",
    "meta_data": {
        "InChI": "InChI=1S/C3H2BrN3O2/c4-3-5-1-2(6-3)7(8)9/h1H,(H,5,6)",
        "InChIKey": null,
        "Canonical SMILES": "O=N(=O)C1=CN=C(Br)N1",
        "Molecular Formula": "C<sub>3</sub>H<sub>2</sub>BrN<sub>3</sub>O<sub>2</sub>",
        "Molecular Mass": "191.97",
        "Melting Point": "239-241 °C"
    }
}