{
    "cas_no": "503-30-0",
    "key_name": "Oxetane",
    "cn_name": "氧杂环丁烷;1,3-环氧丙烷;三甲撑氧;",
    "alternate_name": "Oxetane;Trimethylene oxide;Cyclooxabutane;1,3-Epoxypropane;Oxacyclobutane;Propane, 1,3-epoxy-;α,γ-Propane oxide;1,3-Propylene oxide;Oxetan;Oxytrimethylene;NSC 30086;Trimethylene ether",
    "duplicated_cas_no": "",
    "SMILES": "C1COC1",
    "meta_data": {
        "InChI": "InChI=1S/C3H6O/c1-2-4-3-1/h1-3H2",
        "InChIKey": null,
        "Canonical SMILES": "O1CCC1",
        "Molecular Formula": "C<sub>3</sub>H<sub>6</sub>O",
        "Molecular Mass": "58.08",
        "Boiling Point": "48 °C @ Press: 750 Torr",
        "Melting Point": "-97 °C",
        "Density": "0.8930 g/cm³ @ Temp: 25 °C"
    }
}