{
    "cas_no": "105-21-5",
    "key_name": "γ-Heptalactone",
    "cn_name": "丙位庚内酯;alpha-丙基-gamma-丁内酯;",
    "alternate_name": "2(3<em>H</em>)-Furanone, dihydro-5-propyl-;Heptanoic acid, 4-hydroxy-, γ-lactone;Enanthic acid, γ-hydroxy-, lactone;Dihydro-5-propyl-2(3<em>H</em>)-furanone;γ-Heptalactone;γ-Propiobutyrolactone;4-Hydroxyheptanoic acid lactone;γ-Heptanolactone;γ-Propyl-γ-butyrolactone;4-Propyl-4-butanolide;Tetrahydro-5-propyl-2-furanone;4-Heptanolide;(±)-γ-Propyl-γ-butyrolactone;(±)-4-<em>n</em>-Propylbutyrolactone;(<em>RS</em>)-γ-Heptalactone;(±)-γ-Heptalactone;NSC 46097;NSC 46352",
    "duplicated_cas_no": "1336-71-6;57129-71-2",
    "SMILES": "C(CC)C1OC(=O)CC1",
    "meta_data": {
        "InChI": "InChI=1S/C7H12O2/c1-2-3-6-4-5-7(8)9-6/h6H,2-5H2,1H3",
        "InChIKey": null,
        "Canonical SMILES": "O=C1OC(CC1)CCC",
        "Molecular Formula": "C<sub>7</sub>H<sub>12</sub>O<sub>2</sub>",
        "Molecular Mass": "128.17",
        "Boiling Point": "118-120 °C @ Press: 15 Torr",
        "Density": "0.9768 g/cm³"
    }
}