{
    "cas_no": "50541-93-0",
    "key_name": "4-Amino-1-benzylpiperidine",
    "cn_name": "4-氨基-1-苄基哌啶;N-苄基-4-氨基哌啶;",
    "alternate_name": "4-Piperidinamine, 1-(phenylmethyl)-;1-(Phenylmethyl)-4-piperidinamine;4-Amino-1-benzylpiperidine;1-Benzyl-4-aminopiperidine;4-Amino-1-(phenylmethyl)piperidine;4-Amino-<em>N</em>-benzylpiperidine;1-Benzyl-4-piperidinamine;<em>N</em>-Benzyl-4-aminopiperidine;1-Benzyl-4-piperidinylamine;<em>N</em>-Benzyl-4-piperidinamine;2-Amino-1-benzylpiperidine;(1-Benzylpiperidin-4-yl)amine;1-Benzylpiperidine-4-amine",
    "duplicated_cas_no": "303763-36-2",
    "SMILES": "C(N1CCC(N)CC1)C2=CC=CC=C2",
    "meta_data": {
        "InChI": "InChI=1S/C12H18N2/c13-12-6-8-14(9-7-12)10-11-4-2-1-3-5-11/h1-5,12H,6-10,13H2",
        "InChIKey": null,
        "Canonical SMILES": "NC1CCN(CC=2C=CC=CC2)CC1",
        "Molecular Formula": "C<sub>12</sub>H<sub>18</sub>N<sub>2</sub>",
        "Molecular Mass": "190.28",
        "Melting Point": "121-122 °C",
        "Density": "1.008 g/cm³"
    }
}