{
    "cas_no": "818-72-4",
    "key_name": "1-Octyn-3-ol",
    "cn_name": "1-辛炔-3-醇;",
    "alternate_name": "1-Octyn-3-ol;3-Hydroxyoct-1-yne;(±)-1-Octyn-3-ol;(<em>RS</em>)-1-Octyn-3-ol;1-Ethynyl-1-hexanol",
    "duplicated_cas_no": "37911-28-7",
    "SMILES": "C(CCCCC)(C#C)O",
    "meta_data": {
        "InChI": "InChI=1S/C8H14O/c1-3-5-6-7-8(9)4-2/h2,8-9H,3,5-7H2,1H3",
        "InChIKey": null,
        "Canonical SMILES": "C#CC(O)CCCCC",
        "Molecular Formula": "C<sub>8</sub>H<sub>14</sub>O",
        "Molecular Mass": "126.20",
        "Boiling Point": "44-47 °C @ Press: 1 Torr"
    }
}