{
    "cas_no": "66322-34-7",
    "key_name": "<em>meso</em>-Dihydroguaiaretic acid",
    "cn_name": null,
    "alternate_name": "Phenol, 4,4′-[(2<em>R</em>,3<em>S</em>)-2,3-dimethyl-1,4-butanediyl]bis[2-methoxy-, <em>rel</em>-;Phenol, 4,4′-(2,3-dimethyl-1,4-butanediyl)bis[2-methoxy-, (<em>R</em>*,<em>S</em>*)-;Guaiacol, 4,4′-(2,3-dimethyltetramethylene)di-, <em>meso</em>-;<em>rel</em>-4,4′-[(2<em>R</em>,3<em>S</em>)-2,3-Dimethyl-1,4-butanediyl]bis[2-methoxyphenol];<em>meso</em>-Dihydroguaiaretic acid",
    "duplicated_cas_no": "112867-79-5;1940148-65-1",
    "SMILES": "C([C@@H]([C@@H](CC1=CC(OC)=C(O)C=C1)C)C)C2=CC(OC)=C(O)C=C2",
    "meta_data": {
        "InChI": "InChI=1/C20H26O4/c1-13(9-15-5-7-17(21)19(11-15)23-3)14(2)10-16-6-8-18(22)20(12-16)24-4/h5-8,11-14,21-22H,9-10H2,1-4H3/t13-,14+",
        "InChIKey": null,
        "Canonical SMILES": "OC1=CC=C(C=C1OC)CC(C)C(C)CC2=CC=C(O)C(OC)=C2",
        "Molecular Formula": "C<sub>20</sub>H<sub>26</sub>O<sub>4</sub>",
        "Molecular Mass": "330.42",
        "Melting Point": "88-89 °C"
    }
}