{
    "cas_no": "92-04-6",
    "key_name": "2-Chloro-4-phenylphenol",
    "cn_name": "2-氯-4-苯基苯酚;",
    "alternate_name": "[1,1′-Biphenyl]-4-ol, 3-chloro-;4-Biphenylol, 3-chloro-;Phenol, 2-chloro-4-phenyl-;3-Chloro[1,1′-biphenyl]-4-ol;2-Chloro-4-phenylphenol;Dowicide 4;4-Phenyl-2-chlorophenol;2-Chloro-<em>p</em>-phenylphenol;3-Chloro-4-biphenylol;<em>o</em>-Chloro-<em>p</em>-phenylphenol;Sanidril;4-Hydroxy-3-chlorobiphenyl;3-Chloro-4-hydroxybiphenyl;NSC 3858",
    "duplicated_cas_no": "",
    "SMILES": "ClC=1C=C(C=CC1O)C2=CC=CC=C2",
    "meta_data": {
        "InChI": "InChI=1S/C12H9ClO/c13-11-8-10(6-7-12(11)14)9-4-2-1-3-5-9/h1-8,14H",
        "InChIKey": null,
        "Canonical SMILES": "ClC=1C=C(C=CC1O)C=2C=CC=CC2",
        "Molecular Formula": "C<sub>12</sub>H<sub>9</sub>ClO",
        "Molecular Mass": "204.65",
        "Boiling Point": "161 °C",
        "Melting Point": "77 °C"
    }
}