{
    "cas_no": "2399-48-6",
    "key_name": "Tetrahydrofurfuryl acrylate",
    "cn_name": "丙烯酸四氢糠基酯;2-丙烯酸(四氢-2-呋喃基)甲酯;四氢呋喃甲基丙烯酸酯;",
    "alternate_name": "2-Propenoic acid, (tetrahydro-2-furanyl)methyl ester;Acrylic acid, tetrahydrofurfuryl ester;Furfuryl alcohol, tetrahydro-, acrylate;Tetrahydrofurfuryl acrylate;SR 285;Kayarad TC 101;Light Acrylate THF-A;Viscoat 150;THF-A;Sartomer 302;Sartomer 285;NSC 32627;Sartomer SR 285;Viscoat THFA;FA-THFA;TC 101;Viscoat V 150;EM 214;Miramer M 150;Fancryl FA-THFA;(Tetrahydrofuran-2-yl)methyl acrylate;M 150;EM 214C;A 27596",
    "duplicated_cas_no": "100666-89-5;135266-19-2;136219-66-4;875899-68-6",
    "SMILES": "C(OC(C=C)=O)C1CCCO1",
    "meta_data": {
        "InChI": "InChI=1S/C8H12O3/c1-2-8(9)11-6-7-4-3-5-10-7/h2,7H,1,3-6H2",
        "InChIKey": null,
        "Canonical SMILES": "O=C(OCC1OCCC1)C=C",
        "Molecular Formula": "C<sub>8</sub>H<sub>12</sub>O<sub>3</sub>",
        "Molecular Mass": "156.18",
        "Boiling Point": "87 °C @ Press: 9 Torr",
        "Density": "1.0643 g/cm³ @ Temp: 20 °C"
    }
}