{
    "cas_no": "77521-29-0",
    "key_name": "α-Amino-3-hydroxy-5-methylisoxazole-4-propionic acid",
    "cn_name": null,
    "alternate_name": "4-Isoxazolepropanoic acid, α-amino-2,3-dihydro-5-methyl-3-oxo-;α-Amino-2,3-dihydro-5-methyl-3-oxo-4-isoxazolepropanoic acid;AMPA;α-Amino-3-hydroxy-5-methylisoxazole-4-propionic acid;γ-Amino-3-hydroxy-5-methylisoxazole-4-propionic acid;α-Amino-2,3-dihydro-5-methyl-3-oxoisoxazole-4-propionic acid;α-Amino-3-hydroxy-5-methyl-4-isoxazolepropionate;(<em>RS</em>)-α-Amino-3-hydroxy-5-methyl-4-isoxazolepropionic acid;(<em>R</em>,<em>S</em>)-α-Amino-3-hydroxy-5-methyl-4-isoxazolepropionic acid;<em>dl</em>-α-Amino-3-hydroxy-5-methylisoxazole-4-propionic acid;(±)-α-Amino-3-hydroxy-5-methyl-4-isoxazolepropionic acid;<span class=\"text-smallcaps\">D</smallcap>,<smallcap>L</span>-α-Amino-3-hydroxy-5-methylisoxazole-4-propionic acid;AMPA (pharmaceutical);2-Amino-3-(5-methyl-3-oxo-2,3-dihydroisoxazol-4-yl)propanoic acid;2-Amino-3-(5-methyl-3-oxo-2,3-dihydro-1,2-oxazol-4-yl)propanoic acid;2-Amino-3-(3-hydroxy-5-methyl-1,2-oxazol-4-yl)propanoic acid",
    "duplicated_cas_no": "110592-37-5;126632-03-9;133481-32-0;139261-99-7;139559-02-7;74341-63-2;78729-80-3;79697-77-1;81323-87-7;83354-19-2;85506-19-0;86495-63-8;92614-50-1",
    "SMILES": "C(C(C(O)=O)N)C=1C(=O)NOC1C",
    "meta_data": {
        "InChI": "InChI=1S/C7H10N2O4/c1-3-4(6(10)9-13-3)2-5(8)7(11)12/h5H,2,8H2,1H3,(H,9,10)(H,11,12)",
        "InChIKey": null,
        "Canonical SMILES": "O=C(O)C(N)CC=1C(=O)NOC1C",
        "Molecular Formula": "C<sub>7</sub>H<sub>10</sub>N<sub>2</sub>O<sub>4</sub>",
        "Molecular Mass": "186.17",
        "Melting Point": "149-150 °C"
    }
}