{
    "cas_no": "623-26-7",
    "key_name": "1,4-Dicyanobenzene",
    "cn_name": "对苯二腈;对苯二甲腈;1,4-苯二甲腈;",
    "alternate_name": "1,4-Benzenedicarbonitrile;Terephthalonitrile;1,4-Dicyanobenzene;<em>p</em>-Dicyanobenzene;<em>p</em>-Phthalodinitrile;<em>p</em>-Benzenedinitrile;Terephthalodinitrile;4-Cyanobenzonitrile;Terephthalic acid dinitrile;1,4-Benzodinitrile;<em>p</em>-Phthalonitrile;<em>p</em>-Cyanobenzonitrile;1,4-Bis(cyano)benzene;<em>p</em>-Benzenedicarbonitrile;NSC 144977;NSC 78439",
    "duplicated_cas_no": "",
    "SMILES": "C(#N)C1=CC=C(C#N)C=C1",
    "meta_data": {
        "InChI": "InChI=1S/C8H4N2/c9-5-7-1-2-8(6-10)4-3-7/h1-4H",
        "InChIKey": null,
        "Canonical SMILES": "N#CC1=CC=C(C#N)C=C1",
        "Molecular Formula": "C<sub>8</sub>H<sub>4</sub>N<sub>2</sub>",
        "Molecular Mass": "128.13",
        "Boiling Point": "285 °C",
        "Melting Point": "224 °C"
    }
}