{
    "cas_no": "35302-70-6",
    "key_name": "Pinosylvin monomethyl ether",
    "cn_name": null,
    "alternate_name": "Phenol, 3-methoxy-5-[(1<em>E</em>)-2-phenylethenyl]-;Phenol, 3-methoxy-5-(2-phenylethenyl)-, (<em>E</em>)-;3-Methoxy-5-[(1<em>E</em>)-2-phenylethenyl]phenol;Pinosylvin, methyl ether;Pinosylvin monomethyl ether;Pinosylvin 3-(methyl ether);(<em>E</em>)-3-Hydroxy-5-methoxystilbene",
    "duplicated_cas_no": "",
    "SMILES": "C(=C/C1=CC=CC=C1)\\C2=CC(OC)=CC(O)=C2",
    "meta_data": {
        "InChI": "InChI=1S/C15H14O2/c1-17-15-10-13(9-14(16)11-15)8-7-12-5-3-2-4-6-12/h2-11,16H,1H3/b8-7+",
        "InChIKey": null,
        "Canonical SMILES": "OC=1C=C(OC)C=C(C=CC=2C=CC=CC2)C1",
        "Molecular Formula": "C<sub>15</sub>H<sub>14</sub>O<sub>2</sub>",
        "Molecular Mass": "226.27",
        "Melting Point": "120-121 °C"
    }
}