{
    "cas_no": "13553-79-2",
    "key_name": "Rifamycin S",
    "cn_name": "利福霉素S;",
    "alternate_name": "Rifamycin, 1,4-dideoxy-1,4-dihydro-1,4-dioxo-;2,7-(Epoxypentadeca[1,11,13]trienimino)naphtho[2,1-<em>b</em>]furan-1,6,9,11(2<em>H</em>)-tetrone, 5,17,19,21-tetrahydroxy-23-methoxy-2,4,12,16,18,20,22-heptamethyl-, 21-acetate;Rifomycin S;2,7-(Epoxypentadeca[1,11,13]trienimino)naphtho[2,1-<em>b</em>]furan, rifamycin deriv.;1,4-Dideoxy-1,4-dihydro-1,4-dioxorifamycin;Rifamycin S;NSC 144130",
    "duplicated_cas_no": "27184-20-9;959320-39-9;1217878-21-1;2353416-91-6",
    "SMILES": "",
    "meta_data": {
        "InChI": "",
        "InChIKey": null,
        "Canonical SMILES": "",
        "Molecular Formula": "C<sub>37</sub>H<sub>45</sub>NO<sub>12</sub>",
        "Molecular Mass": "695.75",
        "Melting Point": "180-182 °C"
    }
}