{
    "cas_no": "37764-25-3",
    "key_name": "Dichlormid",
    "cn_name": "二氯丙烯胺;N,N-二烯丙基-2,2-二氯乙酰胺;",
    "alternate_name": "Acetamide, 2,2-dichloro-<em>N</em>,<em>N</em>-di-2-propen-1-yl-;Acetamide, 2,2-dichloro-<em>N</em>,<em>N</em>-di-2-propenyl-;Acetamide, <em>N</em>,<em>N</em>-diallyl-2,2-dichloro-;2,2-Dichloro-<em>N</em>,<em>N</em>-di-2-propen-1-ylacetamide;<em>N</em>,<em>N</em>-Diallyl-2,2-dichloroacetamide;R 25788;<em>N</em>,<em>N</em>-Diallyldichloroacetamide;Stauffer R 25788;<em>N</em>,<em>N</em>-Diallyl-α,α-dichloroacetamide;Dichlormid;2,2-Dichloro-<em>N</em>,<em>N</em>-bis(prop-2-enyl)acetamide",
    "duplicated_cas_no": "11140-95-7",
    "SMILES": "N(C(C(Cl)Cl)=O)(CC=C)CC=C",
    "meta_data": {
        "InChI": "InChI=1S/C8H11Cl2NO/c1-3-5-11(6-4-2)8(12)7(9)10/h3-4,7H,1-2,5-6H2",
        "InChIKey": null,
        "Canonical SMILES": "O=C(N(CC=C)CC=C)C(Cl)Cl",
        "Molecular Formula": "C<sub>8</sub>H<sub>11</sub>Cl<sub>2</sub>NO",
        "Molecular Mass": "208.09",
        "Boiling Point": "130 °C",
        "Melting Point": "5.5 °C"
    }
}