{
    "cas_no": "1068-90-2",
    "key_name": "Diethyl acetamidomalonate",
    "cn_name": "乙酰氨基丙二酸二乙酯;",
    "alternate_name": "Propanedioic acid, 2-(acetylamino)-, 1,3-diethyl ester;Malonic acid, acetamido-, diethyl ester;Propanedioic acid, (acetylamino)-, diethyl ester;Diethyl acetamidomalonate;Acetamidomalonic acid diethyl ester;Diethyl (acetylamino)malonate;Diethyl 2-acetamidomalonate;Diethyl (<em>N</em>-acetylamino)malonate;Diethyl α-(acetylamino)malonate;(Acetylamino)malonic acid diethyl ester;2-(Acetylamino)propanedioic acid diethyl ester;Diethyl 2-acetylaminomalonate;NSC 7645;2-Acetylamino-malonic acid diethyl ester;(Acetylamino)propanedioic acid diethyl ester;Diethyl 2-(acetylamino)propanedioate;Diethyl 2-(acetamido)propanedioate;1,3-Diethyl 2-acetamidopropanedioate;Diethyl acetoamidomalonate",
    "duplicated_cas_no": "2088923-16-2",
    "SMILES": "C(C(OCC)=O)(C(OCC)=O)NC(C)=O",
    "meta_data": {
        "InChI": "InChI=1S/C9H15NO5/c1-4-14-8(12)7(10-6(3)11)9(13)15-5-2/h7H,4-5H2,1-3H3,(H,10,11)",
        "InChIKey": null,
        "Canonical SMILES": "O=C(NC(C(=O)OCC)C(=O)OCC)C",
        "Molecular Formula": "C<sub>9</sub>H<sub>15</sub>NO<sub>5</sub>",
        "Molecular Mass": "217.22",
        "Boiling Point": "185 °C @ Press: 20 Torr",
        "Melting Point": "95-96 °C"
    }
}