{
    "cas_no": "7795-95-1",
    "key_name": "1-Octanesulfonyl chloride",
    "cn_name": "辛基磺酰氯;1-辛烷磺酰氯;",
    "alternate_name": "1-Octanesulfonyl chloride;Octanesulfonyl chloride;<em>n</em>-Octanesulfonyl chloride;Octylsulfonyl chloride",
    "duplicated_cas_no": "",
    "SMILES": "C(CCCCCCC)S(Cl)(=O)=O",
    "meta_data": {
        "InChI": "InChI=1S/C8H17ClO2S/c1-2-3-4-5-6-7-8-12(9,10)11/h2-8H2,1H3",
        "InChIKey": null,
        "Canonical SMILES": "O=S(=O)(Cl)CCCCCCCC",
        "Molecular Formula": "C<sub>8</sub>H<sub>17</sub>ClO<sub>2</sub>S",
        "Molecular Mass": "212.74",
        "Boiling Point": "110-111 °C @ Press: 4 Torr"
    }
}