{
    "cas_no": "579-72-6",
    "key_name": "2-(Dimethylamino)benzaldehyde",
    "cn_name": null,
    "alternate_name": "Benzaldehyde, 2-(dimethylamino)-;Anthranilaldehyde, <em>N</em>,<em>N</em>-dimethyl-;2-(Dimethylamino)benzaldehyde;<em>o</em>-(Dimethylamino)benzaldehyde;2-(<em>N</em>,<em>N</em>-Dimethylamino)benzaldehyde;<em>N</em>,<em>N</em>-Dimethylanthranilaldehyde",
    "duplicated_cas_no": "",
    "SMILES": "C(=O)C1=C(N(C)C)C=CC=C1",
    "meta_data": {
        "InChI": "InChI=1S/C9H11NO/c1-10(2)9-6-4-3-5-8(9)7-11/h3-7H,1-2H3",
        "InChIKey": null,
        "Canonical SMILES": "O=CC=1C=CC=CC1N(C)C",
        "Molecular Formula": "C<sub>9</sub>H<sub>11</sub>NO",
        "Molecular Mass": "149.19",
        "Boiling Point": "115-120 °C @ Press: 5 Torr"
    }
}