{
    "cas_no": "3289-28-9",
    "key_name": "Ethyl cyclohexanecarboxylate",
    "cn_name": "环己甲酸乙酯;",
    "alternate_name": "Cyclohexanecarboxylic acid, ethyl ester;Ethyl cyclohexanecarboxylate;Ethyl cyclohexylcarboxylate;Ethoxycarbonylcyclohexane;Ethyl cyclohexanoate;NSC 5298",
    "duplicated_cas_no": "",
    "SMILES": "C(OCC)(=O)C1CCCCC1",
    "meta_data": {
        "InChI": "InChI=1S/C9H16O2/c1-2-11-9(10)8-6-4-3-5-7-8/h8H,2-7H2,1H3",
        "InChIKey": null,
        "Canonical SMILES": "O=C(OCC)C1CCCCC1",
        "Molecular Formula": "C<sub>9</sub>H<sub>16</sub>O<sub>2</sub>",
        "Molecular Mass": "156.22",
        "Boiling Point": "196 °C",
        "Melting Point": "120 °C",
        "Density": "0.962 g/cm³ @ Temp: 20 °C"
    }
}