{
    "cas_no": "17573-94-3",
    "key_name": "4-Ethynyl-<em>N</em>,<em>N</em>-dimethylaniline",
    "cn_name": null,
    "alternate_name": "Benzenamine, 4-ethynyl-<em>N</em>,<em>N</em>-dimethyl-;Aniline, <em>p</em>-ethynyl-<em>N</em>,<em>N</em>-dimethyl-;4-Ethynyl-<em>N</em>,<em>N</em>-dimethylbenzenamine;[<em>p</em>-(Dimethylamino)phenyl]acetylene;<em>p</em>-Ethynyl-<em>N</em>,<em>N</em>-dimethylaniline;4-(Dimethylamino)phenylethyne;4-Dimethylaminophenylacetylene;1-Ethynyl-4-(dimethylamino)benzene;4-Ethynyl-<em>N</em>,<em>N</em>-dimethylaniline;4-Ethynylphenyl-<em>N</em>,<em>N</em>-dimethylamine;<em>N</em>-(4-Ethynylphenyl)-<em>N</em>,<em>N</em>-dimethylamine;1-(Dimethylamino)-4-ethynylbenzene;(4-Ethynylphenyl)dimethylamine;<em>N</em>,<em>N</em>-Methyl-4-ethynylaniline;4-Ethynyl-<em>N</em>,<em>N</em>-dimethylaminobenzene;[4-(<em>N</em>,<em>N</em>-Dimethylamino)phenyl]acetylene;<em>N</em>,<em>N</em>-Dimethyl-4-ethynylaniline;<em>p</em>-(<em>N</em>,<em>N</em>-Dimethylamino)phenylacetylene",
    "duplicated_cas_no": "",
    "SMILES": "N(C)(C)C1=CC=C(C#C)C=C1",
    "meta_data": {
        "InChI": "InChI=1S/C10H11N/c1-4-9-5-7-10(8-6-9)11(2)3/h1,5-8H,2-3H3",
        "InChIKey": null,
        "Canonical SMILES": "C#CC1=CC=C(C=C1)N(C)C",
        "Molecular Formula": "C<sub>10</sub>H<sub>11</sub>N",
        "Molecular Mass": "145.20",
        "Melting Point": "52-53 °C"
    }
}