{
    "cas_no": "90389-96-1",
    "key_name": "3-[(Methylamino)methyl]benzonitrile",
    "cn_name": "N-甲基-3-氰基苄胺;",
    "alternate_name": "Benzonitrile, 3-[(methylamino)methyl]-;3-[(Methylamino)methyl]benzonitrile;<em>N</em>-Methyl-<em>N</em>-(3-cyanobenzyl)amine",
    "duplicated_cas_no": "",
    "SMILES": "C(NC)C1=CC(C#N)=CC=C1",
    "meta_data": {
        "InChI": "InChI=1S/C9H10N2/c1-11-7-9-4-2-3-8(5-9)6-10/h2-5,11H,7H2,1H3",
        "InChIKey": null,
        "Canonical SMILES": "N#CC1=CC=CC(=C1)CNC",
        "Molecular Formula": "C<sub>9</sub>H<sub>10</sub>N<sub>2</sub>",
        "Molecular Mass": "146.19",
        "Boiling Point": "144-145 °C @ Press: 15 Torr"
    }
}