{
    "cas_no": "189-64-0",
    "key_name": "Dibenzo[<em>a</em>,<em>h</em>]pyrene",
    "cn_name": "二苯并[b,def]屈;",
    "alternate_name": "Dibenzo[<em>b</em>,<em>def</em>]chrysene;Dibenzo[<em>a</em>,<em>h</em>]pyrene;3,4:8,9-Dibenzopyrene",
    "duplicated_cas_no": "",
    "SMILES": "C12=C3C4=C5C(=CC3=CC=C1C=6C(C=C2C=C4)=CC=CC6)C=CC=C5",
    "meta_data": {
        "InChI": "InChI=1S/C24H14/c1-3-7-19-15(5-1)13-17-9-12-22-20-8-4-2-6-16(20)14-18-10-11-21(19)23(17)24(18)22/h1-14H",
        "InChIKey": null,
        "Canonical SMILES": "C=1C=CC2=C(C1)C=C3C=CC=4C=5C=CC=CC5C=C6C=CC2=C3C64",
        "Molecular Formula": "C<sub>24</sub>H<sub>14</sub>",
        "Molecular Mass": "302.37",
        "Melting Point": "317 °C"
    }
}