{
    "cas_no": "13560-89-9",
    "key_name": "Dechlorane Plus",
    "cn_name": "易来灭DK-15;双(六氯环戊二烯)环辛烷;DRCP;",
    "alternate_name": "1,4:7,10-Dimethanodibenzo[<em>a</em>,<em>e</em>]cyclooctene, 1,2,3,4,7,8,9,10,13,13,14,14-dodecachloro-1,4,4a,5,6,6a,7,10,10a,11,12,12a-dodecahydro-;1,2,3,4,7,8,9,10,13,13,14,14-Dodecachloro-1,4,4a,5,6,6a,7,10,10a,11,12,12a-dodecahydro-1,4:7,10-dimethanodibenzo[<em>a</em>,<em>e</em>]cyclooctene;Dodecachlorodimethanodibenzocyclooctane;Dechlorane Plus 25;Bis(hexachlorocyclopentadieno)cyclooctane;Dechlorane Plus;Dechlorane Plus 515;Dodecachlorododecahydrodimethanodibenzocyclooctene;Dechlorane Plus 2520;Dechloran A;1,2,3,4,7,8,9,10,13,13,14,14-Dodecachloro-1,4,4a,5,6,6a,7,10,10a,11,12,12a-dodecahydro-1,4:7,10-dimethanodibenzo[<em>a</em>,<em>e</em>]cyclooctane;Dechlorane Plus 1000;Dechlorane Plus 35;Dodecachlorododecahydrodimethanodibenzocyclooctane;JK 91194",
    "duplicated_cas_no": "11114-14-0;39386-10-2;40372-58-5;59459-11-9;60880-74-2;1195618-74-6",
    "SMILES": "ClC12C(Cl)(Cl)C(Cl)(C3C1CCC4C(CC3)C5(Cl)C(Cl)(Cl)C4(Cl)C(Cl)=C5Cl)C(Cl)=C2Cl",
    "meta_data": {
        "InChI": "InChI=1S/C18H12Cl12/c19-9-10(20)15(25)7-3-4-8-6(2-1-5(7)13(9,23)17(15,27)28)14(24)11(21)12(22)16(8,26)18(14,29)30/h5-8H,1-4H2",
        "InChIKey": null,
        "Canonical SMILES": "ClC1=C(Cl)C2(Cl)C3CCC4C(CCC3C1(Cl)C2(Cl)Cl)C5(Cl)C(Cl)=C(Cl)C4(Cl)C5(Cl)Cl",
        "Molecular Formula": "C<sub>18</sub>H<sub>12</sub>Cl<sub>12</sub>",
        "Molecular Mass": "653.72",
        "Melting Point": "&gt;325 °C"
    }
}