{
    "cas_no": "79-37-8",
    "key_name": "Oxalyl chloride",
    "cn_name": "草酰氯;乙二酰氯;二酰二氯;",
    "alternate_name": "Ethanedioyl dichloride;Oxalyl chloride;Oxalic acid dichloride;Oxaloyl chloride;Oxalyl dichloride;Oxalic dichloride;Ethanedioyl chloride;Oxalic acid chloride;Oxaloyl dichloride;Dichlorooxalic acid",
    "duplicated_cas_no": "",
    "SMILES": "C(C(Cl)=O)(Cl)=O",
    "meta_data": {
        "InChI": "InChI=1S/C2Cl2O2/c3-1(5)2(4)6",
        "InChIKey": null,
        "Canonical SMILES": "O=C(Cl)C(=O)Cl",
        "Molecular Formula": "C<sub>2</sub>Cl<sub>2</sub>O<sub>2</sub>",
        "Molecular Mass": "126.93",
        "Boiling Point": "63.5 °C",
        "Melting Point": "-16 °C"
    }
}