{
    "cas_no": "552-46-5",
    "key_name": "1-Naphthylamine, hydrochloride",
    "cn_name": "1-萘胺盐酸盐;",
    "alternate_name": "1-Naphthalenamine, hydrochloride (1:1);1-Naphthylamine, hydrochloride;1-Naphthalenamine, hydrochloride;α-Naphthylamine hydrochloride;1-Naphthylammonium chloride;1-Aminonaphthalene hydrochloride",
    "duplicated_cas_no": "",
    "SMILES": "NC=1C2=C(C=CC1)C=CC=C2.Cl",
    "meta_data": {
        "InChI": "InChI=1S/C10H9N.ClH/c11-10-7-3-5-8-4-1-2-6-9(8)10;/h1-7H,11H2;1H",
        "InChIKey": null,
        "Canonical SMILES": "Cl.NC1=CC=CC=2C=CC=CC12",
        "Molecular Formula": "C<sub>10</sub>H<sub>9</sub>N.ClH",
        "Molecular Mass": "",
        "Melting Point": "270-271 °C"
    }
}