{
    "cas_no": "14047-53-1",
    "key_name": "3-Hydroxy-2-pyridinemethanol",
    "cn_name": null,
    "alternate_name": "2-Pyridinemethanol, 3-hydroxy-;3-Hydroxy-2-pyridinemethanol;3-Hydroxy-2-pyridylmethanol;3-Hydroxy-2-(hydroxymethyl)pyridine;2-Hydroxymethyl-3-hydroxypyridine;2-(Hydroxymethyl)-3-pyridinol;NSC 18473",
    "duplicated_cas_no": "",
    "SMILES": "C(O)C1=C(O)C=CC=N1",
    "meta_data": {
        "InChI": "InChI=1S/C6H7NO2/c8-4-5-6(9)2-1-3-7-5/h1-3,8-9H,4H2",
        "InChIKey": null,
        "Canonical SMILES": "OC1=CC=CN=C1CO",
        "Molecular Formula": "C<sub>6</sub>H<sub>7</sub>NO<sub>2</sub>",
        "Molecular Mass": "125.13",
        "Melting Point": "132 °C"
    }
}