{
    "cas_no": "104-13-2",
    "key_name": "4-Butylaniline",
    "cn_name": "4-正丁基苯胺;对正丁基苯胺;",
    "alternate_name": "Benzenamine, 4-butyl-;Aniline, <em>p</em>-butyl-;4-Butylbenzenamine;<em>p</em>-Butylaniline;4-Butylaniline;<em>p</em>-Aminobutylbenzene;<em>p</em>-<em>n</em>-Butylaniline;4-<em>n</em>-Butylaniline;<em>p</em>-Butylaminobenzene;(4-Butylphenyl)amine",
    "duplicated_cas_no": "",
    "SMILES": "C(CCC)C1=CC=C(N)C=C1",
    "meta_data": {
        "InChI": "InChI=1S/C10H15N/c1-2-3-4-9-5-7-10(11)8-6-9/h5-8H,2-4,11H2,1H3",
        "InChIKey": null,
        "Canonical SMILES": "NC1=CC=C(C=C1)CCCC",
        "Molecular Formula": "C<sub>10</sub>H<sub>15</sub>N",
        "Molecular Mass": "149.23",
        "Boiling Point": "261 °C",
        "Melting Point": "80.5-81.5 °C",
        "Density": "0.946 g/cm³ @ Temp: 20 °C"
    }
}