{
    "cas_no": "1504-72-9",
    "key_name": "Ethyl (2<em>E</em>)-3-phenyl-2-butenoate",
    "cn_name": null,
    "alternate_name": "2-Butenoic acid, 3-phenyl-, ethyl ester, (2<em>E</em>)-;Cinnamic acid, β-methyl-, ethyl ester, (<em>E</em>)-;2-Butenoic acid, 3-phenyl-, ethyl ester, (<em>E</em>)-;Ethyl (2<em>E</em>)-3-phenyl-2-butenoate;Ethyl <em>trans</em>-β-methylcinnamate;Ethyl (<em>E</em>)-3-phenyl-2-butenoate;Ethyl trans-3-phenylcrotonate;<em>trans</em>-Ethyl 3-phenylbut-2-enoate;Ethyl trans-3-phenyl-2-butenoate;Ethyl <em>trans</em>-3-methyl-3-phenyl-2-propenoate;(E)-Ethyl β-methylcinnamate",
    "duplicated_cas_no": "",
    "SMILES": "C(=C\\C(OCC)=O)(\\C)/C1=CC=CC=C1",
    "meta_data": {
        "InChI": "InChI=1S/C12H14O2/c1-3-14-12(13)9-10(2)11-7-5-4-6-8-11/h4-9H,3H2,1-2H3/b10-9+",
        "InChIKey": null,
        "Canonical SMILES": "O=C(OCC)C=C(C=1C=CC=CC1)C",
        "Molecular Formula": "C<sub>12</sub>H<sub>14</sub>O<sub>2</sub>",
        "Molecular Mass": "190.24",
        "Boiling Point": "116-119 °C @ Press: 4 Torr"
    }
}