{
    "cas_no": "1067-33-0",
    "key_name": "Dibutyltin diacetate",
    "cn_name": "二乙酸二丁基锡;二醋酸二丁基锡;",
    "alternate_name": "Acetic acid, 1,1′-(dibutylstannylene) ester;Dibutyltin diacetate;Stannane, diacetoxydibutyl-;Stannane, bis(acetyloxy)dibutyl-;Diacetoxydibutyltin;Ba 2726;Dibutyltin acetate;Diacetoxydibutylstannane;T 1 (catalyst);T 1;Syl-off 23A;NSC 8786;Fascat 4200;Metacure T 1;U 200;S-Cat 8;S-Cat 8F;Fomrez SUL 3;Tegokat 233;Dibutyldiacetoxytin;TK 14;Neostann U 200;Di-<em>n</em>-butyltin(II) acetate;BNT-CAT 400;(Acetyloxy)dibutylstannyl acetate;D 70;D 155023;HG 0112;TIB KAT 233;KAT 233",
    "duplicated_cas_no": "",
    "SMILES": "[Sn](OC(C)=O)(OC(C)=O)(CCCC)CCCC",
    "meta_data": {
        "InChI": "InChI=1S/2C4H9.2C2H4O2.Sn/c2*1-3-4-2;2*1-2(3)4;/h2*1,3-4H2,2H3;2*1H3,(H,3,4);/q;;;;+2/p-2",
        "InChIKey": null,
        "Canonical SMILES": "O=C(O[Sn](OC(=O)C)(CCCC)CCCC)C",
        "Molecular Formula": "C<sub>12</sub>H<sub>24</sub>O<sub>4</sub>Sn",
        "Molecular Mass": "351.03",
        "Boiling Point": "130 °C @ Press: 2 Torr",
        "Melting Point": "10 °C",
        "Density": "1.31 g/cm³ @ Temp: 25 °C"
    }
}