{
    "cas_no": "111-43-3",
    "key_name": "Propyl ether",
    "cn_name": "正丙醚;1,1\"-氧(代)二正丙烷;丙醚;二丙醚;丙氧基丙烷;二(正)丙醚;",
    "alternate_name": "Propane, 1,1′-oxybis-;Propyl ether;1,1′-Oxybis[propane];Dipropyl ether;Di-<em>n</em>-propyl ether;Dipropyl oxide;4-Oxaheptane;<em>n</em>-Propyl ether",
    "duplicated_cas_no": "",
    "SMILES": "O(CCC)CCC",
    "meta_data": {
        "InChI": "InChI=1S/C6H14O/c1-3-5-7-6-4-2/h3-6H2,1-2H3",
        "InChIKey": null,
        "Canonical SMILES": "O(CCC)CCC",
        "Molecular Formula": "C<sub>6</sub>H<sub>14</sub>O",
        "Molecular Mass": "102.17",
        "Boiling Point": "90 °C",
        "Melting Point": "-126.1 °C",
        "Density": "0.7466 g/cm³ @ Temp: 20 °C"
    }
}