{
    "cas_no": "107868-30-4",
    "key_name": "Exemestane",
    "cn_name": null,
    "alternate_name": "Androsta-1,4-diene-3,17-dione, 6-methylene-;6-Methyleneandrosta-1,4-diene-3,17-dione;FCE 24304;Exemestane;Aromasin;Aromasil",
    "duplicated_cas_no": "",
    "SMILES": "C[C@@]12[C@@]3([C@]([C@]4([C@](C)(CC3)C(=O)CC4)[H])(CC(=C)C1=CC(=O)C=C2)[H])[H]",
    "meta_data": {
        "InChI": "InChI=1S/C20H24O2/c1-12-10-14-15-4-5-18(22)20(15,3)9-7-16(14)19(2)8-6-13(21)11-17(12)19/h6,8,11,14-16H,1,4-5,7,9-10H2,2-3H3/t14-,15-,16-,19+,20-/m0/s1",
        "InChIKey": null,
        "Canonical SMILES": "O=C1C=CC2(C(=C1)C(=C)CC3C2CCC4(C(=O)CCC34)C)C",
        "Molecular Formula": "C<sub>20</sub>H<sub>24</sub>O<sub>2</sub>",
        "Molecular Mass": "296.40",
        "Melting Point": "196-197.7 °C"
    }
}