{
    "cas_no": "6278-91-7",
    "key_name": "4-(Phenylmethoxy)-2-butanone",
    "cn_name": null,
    "alternate_name": "2-Butanone, 4-(phenylmethoxy)-;2-Butanone, 4-(benzyloxy)-;4-(Phenylmethoxy)-2-butanone;4-(Benzyloxy)-2-butanone;NSC 34503",
    "duplicated_cas_no": "",
    "SMILES": "C(OCCC(C)=O)C1=CC=CC=C1",
    "meta_data": {
        "InChI": "InChI=1S/C11H14O2/c1-10(12)7-8-13-9-11-5-3-2-4-6-11/h2-6H,7-9H2,1H3",
        "InChIKey": null,
        "Canonical SMILES": "O=C(C)CCOCC=1C=CC=CC1",
        "Molecular Formula": "C<sub>11</sub>H<sub>14</sub>O<sub>2</sub>",
        "Molecular Mass": "178.23",
        "Boiling Point": "88-91 °C @ Press: 0.5 Torr"
    }
}