{
    "cas_no": "17560-51-9",
    "key_name": "Metolazone",
    "cn_name": null,
    "alternate_name": "6-Quinazolinesulfonamide, 7-chloro-1,2,3,4-tetrahydro-2-methyl-3-(2-methylphenyl)-4-oxo-;6-Quinazolinesulfonamide, 7-chloro-1,2,3,4-tetrahydro-2-methyl-4-oxo-3-<em>o</em>-tolyl-;7-Chloro-1,2,3,4-tetrahydro-2-methyl-3-(2-methylphenyl)-4-oxo-6-quinazolinesulfonamide;2-Methyl-3-(<em>o</em>-tolyl)-6-sulfamyl-7-chloro-1,2,3,4-tetrahydro-4-quinazolinone;SR 720-22;Metolazone;Zaroxolyn;Normelan;Metozalone;Mykrox;Diulo;Oldren;Xuret;Metenix;Metazoline;7-Chloro-2-methyl-3-(2-methylphenyl)-4-oxo-1,2-dihydroquinazoline-6-sulfonamide;MeSH ID: D008788",
    "duplicated_cas_no": "",
    "SMILES": "O=C1C=2C(=CC(Cl)=C(S(N)(=O)=O)C2)NC(C)N1C3=C(C)C=CC=C3",
    "meta_data": {
        "InChI": "InChI=1S/C16H16ClN3O3S/c1-9-5-3-4-6-14(9)20-10(2)19-13-8-12(17)15(24(18,22)23)7-11(13)16(20)21/h3-8,10,19H,1-2H3,(H2,18,22,23)",
        "InChIKey": null,
        "Canonical SMILES": "O=C1C2=CC(=C(Cl)C=C2NC(N1C=3C=CC=CC3C)C)S(=O)(=O)N",
        "Molecular Formula": "C<sub>16</sub>H<sub>16</sub>ClN<sub>3</sub>O<sub>3</sub>S",
        "Molecular Mass": "365.83",
        "Melting Point": "253-259 °C"
    }
}