{
    "cas_no": "63126-47-6",
    "key_name": "(+)-(<em>S</em>)-2-(Methoxymethyl)pyrrolidine",
    "cn_name": "(S)-(+)-2-(甲氧甲基)吡咯烷;O-甲基-L-吡咯烷;O-Methyl-L-prolinol;",
    "alternate_name": "Pyrrolidine, 2-(methoxymethyl)-, (2<em>S</em>)-;Pyrrolidine, 2-(methoxymethyl)-, (<em>S</em>)-;(2<em>S</em>)-2-(Methoxymethyl)pyrrolidine;(<em>S</em>)-2-(Methoxymethyl)pyrrolidine;(<em>S</em>)-Prolinol methyl ether;(+)-(<em>S</em>)-2-(Methoxymethyl)pyrrolidine;(2<em>S</em>)-(Methoxymethyl)pyrrolidine;<span class=\"text-smallcaps\">L</span>-Prolinol methyl ether;(<em>S</em>)-(+)-2-Methoxymethylpyrrolidine;(2<em>S</em>)-2-Methoxymethylpyrrolidine;NSC 305701",
    "duplicated_cas_no": "188358-29-4",
    "SMILES": "C(OC)[C@@H]1CCCN1",
    "meta_data": {
        "InChI": "InChI=1S/C6H13NO/c1-8-5-6-3-2-4-7-6/h6-7H,2-5H2,1H3/t6-/m0/s1",
        "InChIKey": null,
        "Canonical SMILES": "O(C)CC1NCCC1",
        "Molecular Formula": "C<sub>6</sub>H<sub>13</sub>NO",
        "Molecular Mass": "115.17",
        "Boiling Point": "62 °C @ Press: 40 Torr"
    }
}