{
    "cas_no": "33630-99-8",
    "key_name": "3-Amino-2(1<em>H</em>)-pyridinone",
    "cn_name": "3-氨基-2-羟基吡啶;",
    "alternate_name": "2(1<em>H</em>)-Pyridinone, 3-amino-;2-Pyridinol, 3-amino-;3-Amino-2(1<em>H</em>)-pyridinone;3-Amino-2-pyridinol;2-Hydroxy-3-aminopyridine;3-Amino-2-pyridinone;3-Amino-2-hydroxypyridine;3-Amino-2-pyridone;3-Aminopyridin-2(1<em>H</em>)-one;NSC 279497;3-Amino-1<em>H</em>-pyridin-2-one;3-Amino-1,2-dihydropyridin-2-one;2-Hydroxypyridin-3-amine",
    "duplicated_cas_no": "",
    "SMILES": "NC=1C(=O)NC=CC1",
    "meta_data": {
        "InChI": "InChI=1S/C5H6N2O/c6-4-2-1-3-7-5(4)8/h1-3H,6H2,(H,7,8)",
        "InChIKey": null,
        "Canonical SMILES": "O=C1NC=CC=C1N",
        "Molecular Formula": "C<sub>5</sub>H<sub>6</sub>N<sub>2</sub>O",
        "Molecular Mass": "110.11",
        "Melting Point": "129 °C"
    }
}