{
    "cas_no": "526-36-3",
    "key_name": "Xylometazoline",
    "cn_name": "赛洛唑啉;赛洛唑啉;",
    "alternate_name": "1<em>H</em>-Imidazole, 2-[[4-(1,1-dimethylethyl)-2,6-dimethylphenyl]methyl]-4,5-dihydro-;2-Imidazoline, 2-(4-<em>tert</em>-butyl-2,6-dimethylbenzyl)-;2-[[4-(1,1-Dimethylethyl)-2,6-dimethylphenyl]methyl]-4,5-dihydro-1<em>H</em>-imidazole;2-(4-<em>tert</em>-Butyl-2,6-dimethylbenzyl)-2-imidazoline;Otrivine;Xylometazoline;Otrivin;2-(4′-<em>tert</em>-Butyl-2′,6′-dimethylphenylmethyl)imidazoline;2-(4′-<em>tert</em>-Butyl-2′,6′-dimethylbenzyl)imidazoline;Otriven;Otrix;Ba 11391;Rhinoxilin;2-(4-<em>tert</em>-Butyl-2,6-dimethyl-benzyl)-4,5-dihydro-1<em>H</em>-imidazole;2-[(4-<em>tert</em>-Butyl-2,6-dimethylphenyl)methyl]-4,5-dihydro-1<em>H</em>-imidazole",
    "duplicated_cas_no": "",
    "SMILES": "C(C1=C(C)C=C(C(C)(C)C)C=C1C)C=2NCCN2",
    "meta_data": {
        "InChI": "InChI=1S/C16H24N2/c1-11-8-13(16(3,4)5)9-12(2)14(11)10-15-17-6-7-18-15/h8-9H,6-7,10H2,1-5H3,(H,17,18)",
        "InChIKey": null,
        "Canonical SMILES": "N1=C(NCC1)CC=2C(=CC(=CC2C)C(C)(C)C)C",
        "Molecular Formula": "C<sub>16</sub>H<sub>24</sub>N<sub>2</sub>",
        "Molecular Mass": "244.38",
        "Melting Point": "132 °C"
    }
}