{
    "cas_no": "934-80-5",
    "key_name": "1,2-Dimethyl-4-ethylbenzene",
    "cn_name": "4-乙基邻二甲苯;",
    "alternate_name": "Benzene, 4-ethyl-1,2-dimethyl-;<em>o</em>-Xylene, 4-ethyl-;4-Ethyl-1,2-dimethylbenzene;1,2-Dimethyl-4-ethylbenzene;4-Ethyl-<em>o</em>-xylene;2-Methyl-<em>p</em>-ethyltoluene;3,4-Dimethyl-1-ethylbenzene;1-Ethyl-3,4-dimethylbenzene;NSC 74183",
    "duplicated_cas_no": "",
    "SMILES": "C(C)C1=CC(C)=C(C)C=C1",
    "meta_data": {
        "InChI": "InChI=1S/C10H14/c1-4-10-6-5-8(2)9(3)7-10/h5-7H,4H2,1-3H3",
        "InChIKey": null,
        "Canonical SMILES": "C=1C=C(C(=CC1CC)C)C",
        "Molecular Formula": "C<sub>10</sub>H<sub>14</sub>",
        "Molecular Mass": "134.22",
        "Boiling Point": "189.5 °C",
        "Melting Point": "-66.9 °C",
        "Density": "0.8777 g/cm³ @ Temp: 15.2 °C"
    }
}