{
    "cas_no": "13984-50-4",
    "key_name": "Hexanoic acid, 5-oxo-, methyl ester",
    "cn_name": null,
    "alternate_name": "Hexanoic acid, 5-oxo-, methyl ester;Methyl 5-oxohexanoate;5-Oxohexanoic acid methyl ester;Methyl 4-acetylbutyrate;Methyl 5-oxocaproate;4-Acetylbutyric acid methyl ester",
    "duplicated_cas_no": "",
    "SMILES": "C(CCCC(C)=O)(OC)=O",
    "meta_data": {
        "InChI": "InChI=1S/C7H12O3/c1-6(8)4-3-5-7(9)10-2/h3-5H2,1-2H3",
        "InChIKey": null,
        "Canonical SMILES": "O=C(OC)CCCC(=O)C",
        "Molecular Formula": "C<sub>7</sub>H<sub>12</sub>O<sub>3</sub>",
        "Molecular Mass": "144.17",
        "Boiling Point": "100-101 °C @ Press: 11 Torr"
    }
}