{
    "cas_no": "71748-58-8",
    "key_name": "13-<em>cis</em>-4-Oxoretinoic acid",
    "cn_name": null,
    "alternate_name": "Retinoic acid, 4-oxo-, 13-<em>cis</em>-;13-<em>cis</em>-4-Oxoretinoic acid;4-Oxoisotretinoin;Ro 22-6595",
    "duplicated_cas_no": "",
    "SMILES": "C(=C/C(=C/C=C/C(=C\\C(O)=O)/C)/C)\\C=1C(C)(C)CCC(=O)C1C",
    "meta_data": {
        "InChI": "InChI=1S/C20H26O3/c1-14(7-6-8-15(2)13-19(22)23)9-10-17-16(3)18(21)11-12-20(17,4)5/h6-10,13H,11-12H2,1-5H3,(H,22,23)/b8-6+,10-9+,14-7+,15-13-",
        "InChIKey": null,
        "Canonical SMILES": "O=C(O)C=C(C=CC=C(C=CC1=C(C(=O)CCC1(C)C)C)C)C",
        "Molecular Formula": "C<sub>20</sub>H<sub>26</sub>O<sub>3</sub>",
        "Molecular Mass": "314.42",
        "Melting Point": "134-136 °C"
    }
}