{
    "cas_no": "15520-05-5",
    "key_name": "2,2′-(Octylimino)bis[ethanol]",
    "cn_name": null,
    "alternate_name": "Ethanol, 2,2′-(octylimino)bis-;Ethanol, 2,2′-(octylimino)di-;2,2′-(Octylimino)bis[ethanol];Diethanoloctylamine;2,2′-(Octylimino)diethanol;Octyldiethanolamine;Bis(2-hydroxyethyl)octylamine;<em>N</em>,<em>N</em>-Bis(2-hydroxyethyl)octylamine;Hetoxamine OT 2;<em>N</em>-Octyldiethanolamine;Fomaito 2E8;2,2′-(Octylazanediyl)diethanol;2-[(2-Hydroxyethyl)(octyl)amino]ethan-1-ol",
    "duplicated_cas_no": "",
    "SMILES": "N(CCCCCCCC)(CCO)CCO",
    "meta_data": {
        "InChI": "InChI=1S/C12H27NO2/c1-2-3-4-5-6-7-8-13(9-11-14)10-12-15/h14-15H,2-12H2,1H3",
        "InChIKey": null,
        "Canonical SMILES": "OCCN(CCO)CCCCCCCC",
        "Molecular Formula": "C<sub>12</sub>H<sub>27</sub>NO<sub>2</sub>",
        "Molecular Mass": "217.35",
        "Boiling Point": "170-180 °C @ Press: 4 Torr"
    }
}