{
    "cas_no": "367-24-8",
    "key_name": "4-Bromo-2-fluoroaniline",
    "cn_name": "4-溴-2-氟苯胺;",
    "alternate_name": "Benzenamine, 4-bromo-2-fluoro-;Aniline, 4-bromo-2-fluoro-;4-Bromo-2-fluorobenzenamine;4-Bromo-2-fluoroaniline;2-Fluoro-4-bromoaniline;4-Bromo-2-fluorophenylamine",
    "duplicated_cas_no": "",
    "SMILES": "FC1=C(N)C=CC(Br)=C1",
    "meta_data": {
        "InChI": "InChI=1S/C6H5BrFN/c7-4-1-2-6(9)5(8)3-4/h1-3H,9H2",
        "InChIKey": null,
        "Canonical SMILES": "FC1=CC(Br)=CC=C1N",
        "Molecular Formula": "C<sub>6</sub>H<sub>5</sub>BrFN",
        "Molecular Mass": "190.01",
        "Melting Point": "40-42 °C"
    }
}