{
    "cas_no": "125-73-5",
    "key_name": "Dextrorphan",
    "cn_name": "右羟吗喃;右羟吗喃;",
    "alternate_name": "Morphinan-3-ol, 17-methyl-, (9α,13α,14α)-;9α,13α,14α-Morphinan-3-ol, 17-methyl-;(9α,13α,14α)-17-Methylmorphinan-3-ol;Dextrorphan;(+)-Dromoran;(+)-<em>N</em>-Methylmorphinan-3-ol;(+)-3-Hydroxy-<em>N</em>-methylmorphinan;<em>dextro</em>-Dromoran;Ro 1-6794;<em>d</em>-Levorphanol;<em>O</em>-Demethyldextromethorphan;(+)-Dextrorphan;MeSH ID: D003917",
    "duplicated_cas_no": "",
    "SMILES": "CN1[C@@]2([C@@]3([C@@](C=4C(C2)=CC=C(O)C4)(CC1)CCCC3)[H])[H]",
    "meta_data": {
        "InChI": "InChI=1S/C17H23NO/c1-18-9-8-17-7-3-2-4-14(17)16(18)10-12-5-6-13(19)11-15(12)17/h5-6,11,14,16,19H,2-4,7-10H2,1H3/t14-,16+,17+/m1/s1",
        "InChIKey": null,
        "Canonical SMILES": "OC1=CC=C2C(=C1)C34CCN(C)C(C2)C4CCCC3",
        "Molecular Formula": "C<sub>17</sub>H<sub>23</sub>NO",
        "Molecular Mass": "257.37",
        "Melting Point": "198-199 °C"
    }
}