{
    "cas_no": "109-94-4",
    "key_name": "Ethyl formate",
    "cn_name": "甲酸乙酯;",
    "alternate_name": "Formic acid, ethyl ester;Areginal;Ethyl formate;Methanoic acid ethyl ester;Ethyl methanoate;NSC 406578;NSC 8828",
    "duplicated_cas_no": "",
    "SMILES": "O(CC)C=O",
    "meta_data": {
        "InChI": "InChI=1S/C3H6O2/c1-2-5-3-4/h3H,2H2,1H3",
        "InChIKey": null,
        "Canonical SMILES": "O=COCC",
        "Molecular Formula": "C<sub>3</sub>H<sub>6</sub>O<sub>2</sub>",
        "Molecular Mass": "74.08",
        "Boiling Point": "54.5 °C @ Press: 760 Torr",
        "Melting Point": "-80.5 °C",
        "Density": "0.9168 g/cm³ @ Temp: 20 °C"
    }
}