{
    "cas_no": "1975-78-6",
    "key_name": "Decanenitrile",
    "cn_name": null,
    "alternate_name": "Decanenitrile;Caprinitrile;Decanonitrile;1-Decanenitrile;<em>n</em>-Decanonitrile;1-Cyanononane;NSC 6085;Nonyl cyanide;Arneel 10D",
    "duplicated_cas_no": "",
    "SMILES": "C(CCCCC)CCCC#N",
    "meta_data": {
        "InChI": "InChI=1S/C10H19N/c1-2-3-4-5-6-7-8-9-10-11/h2-9H2,1H3",
        "InChIKey": null,
        "Canonical SMILES": "N#CCCCCCCCCC",
        "Molecular Formula": "C<sub>10</sub>H<sub>19</sub>N",
        "Molecular Mass": "153.26",
        "Boiling Point": "243 °C",
        "Melting Point": "-17.9 °C",
        "Density": "0.82945 g/cm³ @ Temp: 15 °C"
    }
}