{
    "cas_no": "37517-81-0",
    "key_name": "Methyl 3-chloro-3-oxopropanoate",
    "cn_name": "丙二酸甲酯酰氯;",
    "alternate_name": "Propanoic acid, 3-chloro-3-oxo-, methyl ester;Methyl malonyl chloride;(Methoxycarbonyl)acetyl chloride;Methyl (chlorocarbonyl)acetate;(Carbomethoxy)acetyl chloride;Methyl (chloroformyl)acetate;Malonic acid monomethyl ester chloride;Malonic acid chloride monomethyl ester;2-Methoxycarbonylacetyl chloride;Methyl 3-chloro-3-oxopropanoate;Methyl 2-(chloroformyl)acetate;Methyl 3-chloro-3-oxopropionate;3-Chloro-3-oxopropanoic acid methyl ester;Methyl 2-(chlorocarbonyl)acetate;Chlorocarbonylacetic acid methyl ester;3-Methoxy-3-oxopropanoyl chloride;Methyl malonoyl chloride",
    "duplicated_cas_no": "64769-08-0;1239413-31-0",
    "SMILES": "C(CC(Cl)=O)(OC)=O",
    "meta_data": {
        "InChI": "InChI=1S/C4H5ClO3/c1-8-4(7)2-3(5)6/h2H2,1H3",
        "InChIKey": null,
        "Canonical SMILES": "O=C(Cl)CC(=O)OC",
        "Molecular Formula": "C<sub>4</sub>H<sub>5</sub>ClO<sub>3</sub>",
        "Molecular Mass": "136.53",
        "Boiling Point": "63-64 °C @ Press: 10 Torr"
    }
}