{
    "cas_no": "84501-67-7",
    "key_name": "1-(2-Bromoethyl)-4-ethyl-1,4-dihydro-5<em>H</em>-tetrazol-5-one",
    "cn_name": null,
    "alternate_name": "5<em>H</em>-Tetrazol-5-one, 1-(2-bromoethyl)-4-ethyl-1,4-dihydro-;1-(2-Bromoethyl)-4-ethyl-1,4-dihydro-5<em>H</em>-tetrazol-5-one;1-(2-Bromoethyl)-4-ethyl-1,4-dihydro-5<em>H</em>-tetrazole-5-one;1-(2-Bromoethyl)-4-ethyltetrazol-5-one;1-(2-Bromoethyl)-4-ethyl-4,5-dihydro-1<em>H</em>-1,2,3,4-tetrazol-5-one;2-(4-Ethyl-4,5-dihydro-5-oxo-1<em>H</em>-tetrazol-1-yl)ethyl bromide",
    "duplicated_cas_no": "",
    "SMILES": "C(CBr)N1C(=O)N(CC)N=N1",
    "meta_data": {
        "InChI": "InChI=1S/C5H9BrN4O/c1-2-9-5(11)10(4-3-6)8-7-9/h2-4H2,1H3",
        "InChIKey": null,
        "Canonical SMILES": "O=C1N(N=NN1CCBr)CC",
        "Molecular Formula": "C<sub>5</sub>H<sub>9</sub>BrN<sub>4</sub>O",
        "Molecular Mass": "221.06",
        "Boiling Point": "90-93 °C @ Press: 1 Torr"
    }
}