{
    "cas_no": "52-88-0",
    "key_name": "Atropine methyl nitrate",
    "cn_name": "甲硝阿托品;",
    "alternate_name": "8-Azoniabicyclo[3.2.1]octane, 3-(3-hydroxy-1-oxo-2-phenylpropoxy)-8,8-dimethyl-, (3-<em>endo</em>)-, nitrate (1:1);8-Methylatropinium nitrate;8-Azoniabicyclo[3.2.1]octane, 3-(3-hydroxy-1-oxo-2-phenylpropoxy)-8,8-dimethyl-, <em>endo</em>-(±)-, nitrate (salt);1α<span class=\"text-smallcaps\">H</smallcap>,5α<smallcap>H</span>-Tropanium, 3α-hydroxy-8-methyl-, nitrate, (±)-tropate (ester);8-Azoniabicyclo[3.2.1]octane, 3-(3-hydroxy-1-oxo-2-phenylpropoxy)-8,8-dimethyl-, (3-<em>endo</em>)-, nitrate (salt);Atropine methonitrate;Atropine methyl nitrate;Ekomine;Eumydrin;Eumydrine;Harvatrate;<em>dl</em>-Hyoscyamine methylnitrate;Metanite;Metropine;Methylatropine nitrate;<em>N</em>-Methylatropine nitrate;Eumidrina;Europen;Pylostropin;<em>N</em>-Methylatropinium nitrate;8-Azoniabicyclo[3.2.1]octane, 3-(3-hydroxy-1-oxo-2-phenylpropoxy)-8,8-dimethyl-, <em>endo</em>-, nitrate (salt)",
    "duplicated_cas_no": "23599-77-1;56480-80-9;64788-67-6;66027-67-6;87734-61-0",
    "SMILES": "C[N+]1(C)[C@]2(C[C@H](OC(C(CO)C3=CC=CC=C3)=O)C[C@@]1(CC2)[H])[H].N(=O)(=O)[O-]",
    "meta_data": {
        "InChI": "InChI=1/C18H26NO3.NO3/c1-19(2)14-8-9-15(19)11-16(10-14)22-18(21)17(12-20)13-6-4-3-5-7-13;2-1(3)4/h3-7,14-17,20H,8-12H2,1-2H3;/q+1;-1/t14-,15+,16+,17?;",
        "InChIKey": null,
        "Canonical SMILES": "O=C(OC1CC2CCC(C1)[N+]2(C)C)C(C=3C=CC=CC3)CO.O=N(=O)[O-]",
        "Molecular Formula": "C<sub>18</sub>H<sub>26</sub>NO<sub>3</sub>.NO<sub>3</sub>",
        "Molecular Mass": "",
        "Melting Point": "163 °C"
    }
}