{
    "cas_no": "694-31-5",
    "key_name": "1,5-Dimethylpyrazole",
    "cn_name": "1,5-二甲基-1H-吡唑;",
    "alternate_name": "1<em>H</em>-Pyrazole, 1,5-dimethyl-;Pyrazole, 1,5-dimethyl-;1,5-Dimethyl-1<em>H</em>-pyrazole;1,5-Dimethylpyrazole",
    "duplicated_cas_no": "",
    "SMILES": "CC=1N(C)N=CC1",
    "meta_data": {
        "InChI": "InChI=1S/C5H8N2/c1-5-3-4-6-7(5)2/h3-4H,1-2H3",
        "InChIKey": null,
        "Canonical SMILES": "N1=CC=C(N1C)C",
        "Molecular Formula": "C<sub>5</sub>H<sub>8</sub>N<sub>2</sub>",
        "Molecular Mass": "96.13",
        "Boiling Point": "145-155 °C",
        "Melting Point": "35-38 °C",
        "Density": "0.9852 g/cm³ @ Temp: 20 °C"
    }
}