{
    "cas_no": "18881-04-4",
    "key_name": "(-)-Verbenol",
    "cn_name": null,
    "alternate_name": "Bicyclo[3.1.1]hept-3-en-2-ol, 4,6,6-trimethyl-, (1<em>S</em>,2<em>S</em>,5<em>S</em>)-;Bicyclo[3.1.1]hept-3-en-2-ol, 4,6,6-trimethyl-, [1<em>S</em>-(1α,2β,5α)]-;(1<em>S</em>,2<em>S</em>,5<em>S</em>)-4,6,6-Trimethylbicyclo[3.1.1]hept-3-en-2-ol;(-)-<em>cis</em>-Verbenol;<em>S</em>-(-)-<em>cis</em>-Verbenol;(1<em>S</em>,4<em>S</em>,5<em>S</em>)-<em>cis</em>-Verbenol;(<em>S</em>)-<em>cis</em>-Verbenol;(-)-Verbenol;(1<em>S</em>)-<em>cis</em>-Verbenol",
    "duplicated_cas_no": "",
    "SMILES": "CC1(C)[C@]2(C[C@@]1([C@@H](O)C=C2C)[H])[H]",
    "meta_data": {
        "InChI": "InChI=1S/C10H16O/c1-6-4-9(11)8-5-7(6)10(8,2)3/h4,7-9,11H,5H2,1-3H3/t7-,8+,9-/m0/s1",
        "InChIKey": null,
        "Canonical SMILES": "OC1C=C(C)C2CC1C2(C)C",
        "Molecular Formula": "C<sub>10</sub>H<sub>16</sub>O",
        "Molecular Mass": "152.23",
        "Melting Point": "65 °C"
    }
}