{
    "cas_no": "100047-36-7",
    "key_name": "4-Aminopicolinic acid",
    "cn_name": "4-氨基吡啶-2-甲酸;",
    "alternate_name": "2-Pyridinecarboxylic acid, 4-amino-;Picolinic acid, 4-amino-;4-Amino-2-pyridinecarboxylic acid;4-Aminopicolinic acid;4-Aminopyridine-2-carboxylic acid",
    "duplicated_cas_no": "",
    "SMILES": "C(O)(=O)C1=CC(N)=CC=N1",
    "meta_data": {
        "InChI": "InChI=1S/C6H6N2O2/c7-4-1-2-8-5(3-4)6(9)10/h1-3H,(H2,7,8)(H,9,10)",
        "InChIKey": null,
        "Canonical SMILES": "O=C(O)C1=NC=CC(N)=C1",
        "Molecular Formula": "C<sub>6</sub>H<sub>6</sub>N<sub>2</sub>O<sub>2</sub>",
        "Molecular Mass": "138.12",
        "Melting Point": "265 °C"
    }
}