{
    "cas_no": "947-95-5",
    "key_name": "5-Chloro-3-methyl-1-phenyl-1<em>H</em>-pyrazole-4-carboxaldehyde",
    "cn_name": null,
    "alternate_name": "1<em>H</em>-Pyrazole-4-carboxaldehyde, 5-chloro-3-methyl-1-phenyl-;Pyrazole-4-carboxaldehyde, 5-chloro-3-methyl-1-phenyl-;5-Chloro-3-methyl-1-phenyl-1<em>H</em>-pyrazole-4-carboxaldehyde;5-Chloro-4-formyl-3-methyl-1-phenylpyrazole;1-Phenyl-3-methyl-4-formyl-5-chloropyrazole;5-Chloro-3-methyl-1-phenylpyrazole-4-carboxaldehyde;5-Chloro-3-methyl-1-phenyl-1<em>H</em>-pyrazole-4-carbaldehyde",
    "duplicated_cas_no": "",
    "SMILES": "ClC=1N(N=C(C)C1C=O)C2=CC=CC=C2",
    "meta_data": {
        "InChI": "InChI=1S/C11H9ClN2O/c1-8-10(7-15)11(12)14(13-8)9-5-3-2-4-6-9/h2-7H,1H3",
        "InChIKey": null,
        "Canonical SMILES": "O=CC1=C(Cl)N(N=C1C)C=2C=CC=CC2",
        "Molecular Formula": "C<sub>11</sub>H<sub>9</sub>ClN<sub>2</sub>O",
        "Molecular Mass": "220.65",
        "Melting Point": "146-147 °C"
    }
}