{
    "cas_no": "110-19-0",
    "key_name": "Isobutyl acetate",
    "cn_name": "乙酸异丁酯;",
    "alternate_name": "Acetic acid, 2-methylpropyl ester;Acetic acid, isobutyl ester;Isobutyl acetate;β-Methylpropyl ethanoate;2-Methylpropyl acetate;NSC 8035",
    "duplicated_cas_no": "",
    "SMILES": "C(OC(C)=O)C(C)C",
    "meta_data": {
        "InChI": "InChI=1S/C6H12O2/c1-5(2)4-8-6(3)7/h5H,4H2,1-3H3",
        "InChIKey": null,
        "Canonical SMILES": "O=C(OCC(C)C)C",
        "Molecular Formula": "C<sub>6</sub>H<sub>12</sub>O<sub>2</sub>",
        "Molecular Mass": "116.16",
        "Boiling Point": "116.5 °C",
        "Melting Point": "-98.8 °C",
        "Density": "0.8712 g/cm³ @ Temp: 20 °C"
    }
}