{
    "cas_no": "112-92-5",
    "key_name": "Stearyl alcohol",
    "cn_name": "十八醇;硬脂醇;十八碳醇;",
    "alternate_name": "1-Octadecanol;Atalco S;Crodacol S;Lorol 28;<em>n</em>-Octadecanol;Octadecyl alcohol;<em>n</em>-Octadecyl alcohol;Sipol S;Siponol S;Stearol;Stearyl alcohol;Steraffine;Adol 62;Siponol SC;Lanol S;Alfol 18;Cachalot S 43;Kalcohl 80;Conol 1675;Octadecanol;1-Hydroxyoctadecane;CO 1895F;Stearic alcohol;Rofamol;1-Stearyl alcohol;Lorol C 18;Adol 64;Adol 68;Alfol 18NF;Lanette 18DEO;Lanette 18;Kalcohl 8098;Laurex 18;CO 1895;Conol 30S;VLTN 6;Hyfatol 18-98;Hyfatol 18-95;CO 1897;NSC 5379;Conol 30SS;Crodacol S 95;Crodacol S 70;Crodacol <em>S</em> 95 NF;Kalchol 8098;Kalcohl 8099;Kalcol 8098;Conol 30F;Hainol 18SS;CO 1898;Nacol 18-98;Speziol C 18 Pharma;Kolliwax SA;Lanette-S 3;Tego Alkanol 18;Elocol C 1899;Nacol C 18;Crodacol S 95EP;Stearafine Pure;Stearyl alcohol NX;Ginol 18;Nacol 1898;ThaiOL 1898;NAA 46",
    "duplicated_cas_no": "8014-37-7;8032-19-7;8032-21-1;8034-90-0;193766-48-2",
    "SMILES": "C(CCCCCCCCC)CCCCCCCCO",
    "meta_data": {
        "InChI": "InChI=1S/C18H38O/c1-2-3-4-5-6-7-8-9-10-11-12-13-14-15-16-17-18-19/h19H,2-18H2,1H3",
        "InChIKey": null,
        "Canonical SMILES": "OCCCCCCCCCCCCCCCCCC",
        "Molecular Formula": "C<sub>18</sub>H<sub>38</sub>O",
        "Molecular Mass": "270.49",
        "Boiling Point": "210.5 °C @ Press: 15 Torr",
        "Melting Point": "59.5 °C",
        "Density": "0.8124 g/cm³ @ Temp: 59 °C"
    }
}