{
    "cas_no": "68027-14-5",
    "key_name": "Hederacolchiside F",
    "cn_name": null,
    "alternate_name": "Olean-12-en-28-oic acid, 3-[(<em>O</em>-6-deoxy-α-<span class=\"text-smallcaps\">L</smallcap>-mannopyranosyl-(1→2)-<em>O</em>-[β-<smallcap>D</smallcap>-glucopyranosyl-(1→4)]-α-<smallcap>L</smallcap>-arabinopyranosyl)oxy]-23-hydroxy-, <em>O</em>-6-deoxy-α-<smallcap>L</smallcap>-mannopyranosyl-(1→4)-<em>O</em>-β-<smallcap>D</smallcap>-glucopyranosyl-(1→6)-β-<smallcap>D</span>-glucopyranosyl ester, (3β,4α)-;Pulsatilla saponin H;Hederacolchiside F;Hederacholichiside F;3-<em>O</em>-α-<span class=\"text-smallcaps\">L</smallcap>-Rhamnopyranosyl-(1→2)[β-<smallcap>D</smallcap>-glucopyranosyl(1→4)]-α-<smallcap>L</smallcap>-arabinopyranosylhederagenin 28-<em>O</em>-α-<smallcap>L</smallcap>-rhamnopyranosyl-(1→4)-β-<smallcap>D</smallcap>-glucopyranosyl-(1→6)-β-<smallcap>D</span>-glucopyranoside",
    "duplicated_cas_no": "96193-64-5;71851-07-5",
    "SMILES": "C(O[C@@H]1O[C@H](CO[C@@H]2O[C@H](CO)[C@@H](O[C@H]3[C@H](O)[C@H](O)[C@@H](O)[C@H](C)O3)[C@H](O)[C@H]2O)[C@@H](O)[C@H](O)[C@H]1O)(=O)[C@]45[C@](C=6[C@@](C)(CC4)[C@@]7(C)[C@](CC6)([C@]8(C)[C@@](CC7)([C@@](CO)(C)[C@@H](O[C@H]9[C@H](O[C@H]%10[C@H](O)[C@H](O)[C@@H](O)[C@H](C)O%10)[C@@H](O)[C@@H](O[C@@H]%11O[C@H](CO)[C@@H](O)[C@H](O)[C@H]%11O)CO9)CC8)[H])[H])(CC(C)(C)CC5)[H]",
    "meta_data": {
        "InChI": "InChI=1S/C65H106O31/c1-25-36(69)41(74)46(79)54(87-25)94-51-30(21-67)90-53(50(83)45(51)78)85-22-31-39(72)44(77)49(82)57(91-31)96-59(84)65-17-15-60(3,4)19-28(65)27-9-10-34-61(5)13-12-35(62(6,24-68)33(61)11-14-64(34,8)63(27,7)16-18-65)93-58-52(95-55-47(80)42(75)37(70)26(2)88-55)40(73)32(23-86-58)92-56-48(81)43(76)38(71)29(20-66)89-56/h9,25-26,28-58,66-83H,10-24H2,1-8H3/t25-,26-,28-,29+,30+,31+,32-,33+,34+,35-,36-,37-,38+,39+,40-,41+,42+,43-,44-,45+,46+,47+,48+,49+,50+,51+,52+,53+,54-,55-,56-,57-,58-,61-,62-,63+,64+,65-/m0/s1",
        "InChIKey": null,
        "Canonical SMILES": "O=C(OC1OC(COC2OC(CO)C(OC3OC(C)C(O)C(O)C3O)C(O)C2O)C(O)C(O)C1O)C45CCC(C)(C)CC5C6=CCC7C8(C)CCC(OC9OCC(OC%10OC(CO)C(O)C(O)C%10O)C(O)C9OC%11OC(C)C(O)C(O)C%11O)C(C)(CO)C8CCC7(C)C6(C)CC4",
        "Molecular Formula": "C<sub>65</sub>H<sub>106</sub>O<sub>31</sub>",
        "Molecular Mass": "1383.52",
        "Melting Point": "119-203 °C"
    }
}