{
    "cas_no": "3411-95-8",
    "key_name": "2-(2′-Hydroxyphenyl)benzothiazole",
    "cn_name": "2-(2-羟基苯基)苯并噻唑;",
    "alternate_name": "Phenol, 2-(2-benzothiazolyl)-;Phenol, <em>o</em>-2-benzothiazolyl-;2-(2-Benzothiazolyl)phenol;2-(<em>o</em>-Hydroxyphenyl)benzothiazole;2-(2-Hydroxyphenyl)benzothiazole;2-(2′-Hydroxyphenyl)benzothiazole;HBT;NSC 5051;NSC 58548;2-(Benzo[<em>d</em>]thiazol-2-yl)phenol;2-(2′-Hydroxyphenyl)-2-benzothiazole;2-(2-Hydroxyphenyl)-1,3-benzothiazole;2-(1,3-Benzothiazol-2-yl)phenol",
    "duplicated_cas_no": "",
    "SMILES": "OC1=C(C2=NC=3C(S2)=CC=CC3)C=CC=C1",
    "meta_data": {
        "InChI": "InChI=1S/C13H9NOS/c15-11-7-3-1-5-9(11)13-14-10-6-2-4-8-12(10)16-13/h1-8,15H",
        "InChIKey": null,
        "Canonical SMILES": "OC=1C=CC=CC1C2=NC=3C=CC=CC3S2",
        "Molecular Formula": "C<sub>13</sub>H<sub>9</sub>NOS",
        "Molecular Mass": "227.28",
        "Boiling Point": "175-193 °C",
        "Melting Point": "131 °C",
        "Density": "1.78 g/cm³"
    }
}