{
    "cas_no": "3430-14-6",
    "key_name": "5-Amino-2-methylpyridine",
    "cn_name": "2-甲基-5-氨基吡啶;3-氨基-6-甲基吡啶;",
    "alternate_name": "3-Pyridinamine, 6-methyl-;2-Picoline, 5-amino-;6-Methyl-3-pyridinamine;5-Amino-2-picoline;3-Amino-6-methylpyridine;5-Amino-2-methylpyridine;6-Methylpyridin-3-ylamine;NSC 52872;2-Methyl-5-aminopyridine;6-Methylpyridine-3-amine",
    "duplicated_cas_no": "",
    "SMILES": "NC=1C=CC(C)=NC1",
    "meta_data": {
        "InChI": "InChI=1S/C6H8N2/c1-5-2-3-6(7)4-8-5/h2-4H,7H2,1H3",
        "InChIKey": null,
        "Canonical SMILES": "N=1C=C(N)C=CC1C",
        "Molecular Formula": "C<sub>6</sub>H<sub>8</sub>N<sub>2</sub>",
        "Molecular Mass": "108.14",
        "Melting Point": "95-96 °C"
    }
}