{
    "cas_no": "6602-32-0",
    "key_name": "2-Bromo-3-pyridinol",
    "cn_name": "2-溴-3-羟基吡啶;",
    "alternate_name": "3-Pyridinol, 2-bromo-;2-Bromo-3-pyridinol;2-Bromo-3-hydroxypyridine;SKF 75250",
    "duplicated_cas_no": "",
    "SMILES": "OC1=C(Br)N=CC=C1",
    "meta_data": {
        "InChI": "InChI=1S/C5H4BrNO/c6-5-4(8)2-1-3-7-5/h1-3,8H",
        "InChIKey": null,
        "Canonical SMILES": "BrC1=NC=CC=C1O",
        "Molecular Formula": "C<sub>5</sub>H<sub>4</sub>BrNO",
        "Molecular Mass": "174.00",
        "Melting Point": "186.5-187 °C"
    }
}