{
    "cas_no": "183065-68-1",
    "key_name": "4-Bromo-2,6-difluorobenzoic acid",
    "cn_name": "4-溴-2,6-二氟苯甲酸;",
    "alternate_name": "Benzoic acid, 4-bromo-2,6-difluoro-;4-Bromo-2,6-difluorobenzoic acid;2,6-Difluoro-4-bromobenzoic acid",
    "duplicated_cas_no": "",
    "SMILES": "C(O)(=O)C1=C(F)C=C(Br)C=C1F",
    "meta_data": {
        "InChI": "InChI=1S/C7H3BrF2O2/c8-3-1-4(9)6(7(11)12)5(10)2-3/h1-2H,(H,11,12)",
        "InChIKey": null,
        "Canonical SMILES": "O=C(O)C1=C(F)C=C(Br)C=C1F",
        "Molecular Formula": "C<sub>7</sub>H<sub>3</sub>BrF<sub>2</sub>O<sub>2</sub>",
        "Molecular Mass": "237.00",
        "Melting Point": "196-198 °C"
    }
}