{
    "cas_no": "13997-73-4",
    "key_name": "2-Allyl-4-chlorophenol",
    "cn_name": "2-烯丙基-4-氯苯酚;",
    "alternate_name": "Phenol, 4-chloro-2-(2-propen-1-yl)-;Phenol, 2-allyl-4-chloro-;Phenol, 4-chloro-2-(2-propenyl)-;4-Chloro-2-(2-propen-1-yl)phenol;2-Allyl-4-chlorophenol;4-Chloro-2-allylphenol;NSC 1539",
    "duplicated_cas_no": "",
    "SMILES": "C(C=C)C1=C(O)C=CC(Cl)=C1",
    "meta_data": {
        "InChI": "InChI=1S/C9H9ClO/c1-2-3-7-6-8(10)4-5-9(7)11/h2,4-6,11H,1,3H2",
        "InChIKey": null,
        "Canonical SMILES": "ClC1=CC=C(O)C(=C1)CC=C",
        "Molecular Formula": "C<sub>9</sub>H<sub>9</sub>ClO",
        "Molecular Mass": "168.62",
        "Boiling Point": "133-134 °C @ Press: 15 Torr",
        "Melting Point": "48 °C"
    }
}