{
    "cas_no": "846-46-8",
    "key_name": "(5α)-Androstane-3,17-dione",
    "cn_name": "5a-雄甾烷二酮;",
    "alternate_name": "Androstane-3,17-dione, (5α)-;5α-Androstane-3,17-dione;5α-Androstanedione;(5α)-Androstane-3,17-dione;Androstane-3,17-dione;5α-Androsta-3,17-dione;NSC 60796;NSC 9897;Dihydroandrostenedione;DHA",
    "duplicated_cas_no": "358657-76-8",
    "SMILES": "C[C@@]12[C@@]3([C@]([C@]4([C@](C)(CC3)C(=O)CC4)[H])(CC[C@]1(CC(=O)CC2)[H])[H])[H]",
    "meta_data": {
        "InChI": "InChI=1S/C19H28O2/c1-18-9-7-13(20)11-12(18)3-4-14-15-5-6-17(21)19(15,2)10-8-16(14)18/h12,14-16H,3-11H2,1-2H3/t12-,14-,15-,16-,18-,19-/m0/s1",
        "InChIKey": null,
        "Canonical SMILES": "O=C1CCC2(C)C(C1)CCC3C4CCC(=O)C4(C)CCC32",
        "Molecular Formula": "C<sub>19</sub>H<sub>28</sub>O<sub>2</sub>",
        "Molecular Mass": "288.42",
        "Melting Point": "130 °C"
    }
}