{
    "cas_no": "4996-22-9",
    "key_name": "2,2-Dihydroxy-1-(4-nitrophenyl)ethanone",
    "cn_name": null,
    "alternate_name": "Ethanone, 2,2-dihydroxy-1-(4-nitrophenyl)-;Acetophenone, 2,2-dihydroxy-4′-nitro-;2,2-Dihydroxy-1-(4-nitrophenyl)ethanone;NSC 131639;(4-Nitrophenyl)glyoxal monohydrate;(4-Nitrophenyl)glyoxal hydrate",
    "duplicated_cas_no": "",
    "SMILES": "C(C(O)O)(=O)C1=CC=C(N(=O)=O)C=C1",
    "meta_data": {
        "InChI": "InChI=1S/C8H7NO5/c10-7(8(11)12)5-1-3-6(4-2-5)9(13)14/h1-4,8,11-12H",
        "InChIKey": null,
        "Canonical SMILES": "O=C(C1=CC=C(C=C1)N(=O)=O)C(O)O",
        "Molecular Formula": "C<sub>8</sub>H<sub>7</sub>NO<sub>5</sub>",
        "Molecular Mass": "197.14",
        "Melting Point": "90-91 °C"
    }
}