{
    "cas_no": "93-28-7",
    "key_name": "Eugenyl acetate",
    "cn_name": "乙酸丁香酚酯;2-氨基戊烷;",
    "alternate_name": "Phenol, 2-methoxy-4-(2-propen-1-yl)-, 1-acetate;Phenol, 4-allyl-2-methoxy-, acetate;Eugenol acetate;Phenol, 2-methoxy-4-(2-propenyl)-, acetate;Aceteugenol;Acetyleugenol;Eugenyl acetate;4-Allyl-2-methoxyphenyl acetate;<em>O</em>-Acetyleugenol;NSC 1242;2-Methoxy-4-(2-propenyl)phenol acetate;(2-Methoxy-4-prop-2-enylphenyl) acetate;2-Methoxy-4-(prop-2-en-1-yl)phenyl acetate",
    "duplicated_cas_no": "",
    "SMILES": "O(C(C)=O)C1=C(OC)C=C(CC=C)C=C1",
    "meta_data": {
        "InChI": "InChI=1S/C12H14O3/c1-4-5-10-6-7-11(15-9(2)13)12(8-10)14-3/h4,6-8H,1,5H2,2-3H3",
        "InChIKey": null,
        "Canonical SMILES": "O=C(OC1=CC=C(C=C1OC)CC=C)C",
        "Molecular Formula": "C<sub>12</sub>H<sub>14</sub>O<sub>3</sub>",
        "Molecular Mass": "206.24",
        "Boiling Point": "281 °C",
        "Melting Point": "30.5 °C",
        "Density": "1.0806 g/cm³ @ Temp: 20 °C"
    }
}