{
    "cas_no": "7364-25-2",
    "key_name": "Indazolinone",
    "cn_name": "3-吲唑啉酮;1,2-二氢-3H-吲唑-3-酮;3-羟基-1H-吲唑;",
    "alternate_name": "3<em>H</em>-Indazol-3-one, 1,2-dihydro-;3-Indazolinone;1,2-Dihydro-3<em>H</em>-indazol-3-one;1<em>H</em>-Indazol-3-ol;3-Hydroxy-1<em>H</em>-indazole;Indazolinone;3-Indazolone;2,3-Dihydro-1<em>H</em>-indazol-3-one;NSC 9352;1,2-Dihydroindazol-3-one;1<em>H</em>-Indazol-3(2<em>H</em>)-one",
    "duplicated_cas_no": "5203-78-1",
    "SMILES": "O=C1C=2C(=CC=CC2)NN1",
    "meta_data": {
        "InChI": "InChI=1S/C7H6N2O/c10-7-5-3-1-2-4-6(5)8-9-7/h1-4H,(H2,8,9,10)",
        "InChIKey": null,
        "Canonical SMILES": "O=C1NNC=2C=CC=CC12",
        "Molecular Formula": "C<sub>7</sub>H<sub>6</sub>N<sub>2</sub>O",
        "Molecular Mass": "134.14",
        "Melting Point": "246-249 °C"
    }
}