{
    "cas_no": "784-04-3",
    "key_name": "9-Acetylanthracene",
    "cn_name": "9-乙酰基蒽;9-乙酰基蒽;",
    "alternate_name": "Ethanone, 1-(9-anthracenyl)-;Ketone, 9-anthryl methyl;1-(9-Anthracenyl)ethanone;9-Acetylanthracene;9-Anthryl methyl ketone;NSC 1143;NSC 13246",
    "duplicated_cas_no": "",
    "SMILES": "C(C)(=O)C=1C2=C(C=C3C1C=CC=C3)C=CC=C2",
    "meta_data": {
        "InChI": "InChI=1S/C16H12O/c1-11(17)16-14-8-4-2-6-12(14)10-13-7-3-5-9-15(13)16/h2-10H,1H3",
        "InChIKey": null,
        "Canonical SMILES": "O=C(C=1C=2C=CC=CC2C=C3C=CC=CC31)C",
        "Molecular Formula": "C<sub>16</sub>H<sub>12</sub>O",
        "Molecular Mass": "220.27",
        "Melting Point": "78 °C"
    }
}