{
    "cas_no": "51535-00-3",
    "key_name": "Methyl 1-benzyl-5-oxo-3-pyrrolidinecarboxylate",
    "cn_name": "1-苄基-5-氧-3-吡咯烷羧酸甲酯;",
    "alternate_name": "3-Pyrrolidinecarboxylic acid, 5-oxo-1-(phenylmethyl)-, methyl ester;3-Pyrrolidinecarboxylic acid, 1-benzyl-5-oxo-, methyl ester;Methyl 1-benzyl-5-oxo-3-pyrrolidinecarboxylate;Methyl 5-oxo-1-(phenylmethyl)-3-pyrrolidinecarboxylate;1-Benzyl-5-oxopyrrolidine-3-carboxylate methyl ester;NSC 176916;1-Benzyl-5-oxopyrrolidine-3-carboxylic acid methyl ester",
    "duplicated_cas_no": "126344-01-2",
    "SMILES": "C(N1CC(C(OC)=O)CC1=O)C2=CC=CC=C2",
    "meta_data": {
        "InChI": "InChI=1S/C13H15NO3/c1-17-13(16)11-7-12(15)14(9-11)8-10-5-3-2-4-6-10/h2-6,11H,7-9H2,1H3",
        "InChIKey": null,
        "Canonical SMILES": "O=C(OC)C1CC(=O)N(CC=2C=CC=CC2)C1",
        "Molecular Formula": "C<sub>13</sub>H<sub>15</sub>NO<sub>3</sub>",
        "Molecular Mass": "233.26",
        "Boiling Point": "150 °C @ Press: 2 Torr",
        "Melting Point": "64-65 °C"
    }
}