{
    "cas_no": "99-66-1",
    "key_name": "Valproic acid",
    "cn_name": "丙戊酸;",
    "alternate_name": "Pentanoic acid, 2-propyl-;Valeric acid, 2-propyl-;2-Propylpentanoic acid;Acetic acid, dipropyl-;Dipropylacetic acid;2-Propylvaleric acid;<em>n</em>-Dipropylacetic acid;DPA;4-Heptanecarboxylic acid;Valproic acid;Depakine;Ergenyl;Mylproin;44089;NSC 93819;Depakine-chrono;Stavzor;2,2-Di-<em>n</em>-propylacetic acid;Valcote;Sigma V 0033000;MeSH ID: D014635",
    "duplicated_cas_no": "",
    "SMILES": "C(CCC)(CCC)C(O)=O",
    "meta_data": {
        "InChI": "InChI=1S/C8H16O2/c1-3-5-7(6-4-2)8(9)10/h7H,3-6H2,1-2H3,(H,9,10)",
        "InChIKey": null,
        "Canonical SMILES": "O=C(O)C(CCC)CCC",
        "Molecular Formula": "C<sub>8</sub>H<sub>16</sub>O<sub>2</sub>",
        "Molecular Mass": "144.21",
        "Boiling Point": "221-222 °C @ Press: 760.0 Torr",
        "Melting Point": "25 °C",
        "Density": "0.904 g/cm³ @ Temp: 25 °C"
    }
}