{
    "cas_no": "5220-02-0",
    "key_name": "3-Amino-6-chloro-1-methyl-4-phenyl-2(1<em>H</em>)-quinolinone",
    "cn_name": null,
    "alternate_name": "2(1<em>H</em>)-Quinolinone, 3-amino-6-chloro-1-methyl-4-phenyl-;Carbostyril, 3-amino-6-chloro-1-methyl-4-phenyl-;3-Amino-6-chloro-1-methyl-4-phenyl-2(1<em>H</em>)-quinolinone;3-Amino-1,2-dihydro-6-chloro-1-methyl-4-phenylquinolin-2(1<em>H</em>)-one;2(1<em>H</em>)-Quinolone, 3-amino-6-chloro-1-methyl-4-phenyl-;3-Amino-6-chloro-1-methyl-4-phenylcarbostyril;3-Amino-6-chloro-1-methyl-4-phenylquinolin-2-one",
    "duplicated_cas_no": "",
    "SMILES": "NC1=C(C=2C(N(C)C1=O)=CC=C(Cl)C2)C3=CC=CC=C3",
    "meta_data": {
        "InChI": "InChI=1S/C16H13ClN2O/c1-19-13-8-7-11(17)9-12(13)14(15(18)16(19)20)10-5-3-2-4-6-10/h2-9H,18H2,1H3",
        "InChIKey": null,
        "Canonical SMILES": "O=C1C(N)=C(C=2C=CC=CC2)C=3C=C(Cl)C=CC3N1C",
        "Molecular Formula": "C<sub>16</sub>H<sub>13</sub>ClN<sub>2</sub>O",
        "Molecular Mass": "284.74",
        "Melting Point": "130-133 °C"
    }
}