{
    "cas_no": "106518-63-2",
    "key_name": "Ganodermanontriol",
    "cn_name": null,
    "alternate_name": "Lanosta-7,9(11)-dien-3-one, 24,25,26-trihydroxy-, (24<em>S</em>,25<em>R</em>)-;(24<em>S</em>,25<em>R</em>)-24,25,26-Trihydroxylanosta-7,9(11)-dien-3-one;Ganodermanontriol;(+)-Ganodermanontriol;26-Hydroxyganodermanondiol",
    "duplicated_cas_no": "1192133-46-2",
    "SMILES": "C[C@@]12C=3C([C@@]4(C)[C@](C)(CC3)[C@@]([C@@H](CC[C@@H]([C@](CO)(C)O)O)C)(CC4)[H])=CC[C@]1(C(C)(C)C(=O)CC2)[H]",
    "meta_data": {
        "InChI": "InChI=1S/C30H48O4/c1-19(8-11-25(33)30(7,34)18-31)20-12-16-29(6)22-9-10-23-26(2,3)24(32)14-15-27(23,4)21(22)13-17-28(20,29)5/h9,13,19-20,23,25,31,33-34H,8,10-12,14-18H2,1-7H3/t19-,20-,23+,25+,27-,28-,29+,30-/m1/s1",
        "InChIKey": null,
        "Canonical SMILES": "O=C1CCC2(C3=CCC4(C)C(CCC4(C3=CCC2C1(C)C)C)C(C)CCC(O)C(O)(C)CO)C",
        "Molecular Formula": "C<sub>30</sub>H<sub>48</sub>O<sub>4</sub>",
        "Molecular Mass": "472.70",
        "Melting Point": "145-147 °C"
    }
}