{
    "cas_no": "1445-73-4",
    "key_name": "1-Methyl-4-piperidone",
    "cn_name": "N-甲基-4-哌啶酮;",
    "alternate_name": "4-Piperidinone, 1-methyl-;4-Piperidone, 1-methyl-;1-Methyl-4-piperidinone;1-Methyl-4-piperidone;<em>N</em>-Methyl-4-piperidone;<em>N</em>-Methyl-4-piperidinone;1-Methyl-4-oxopiperidine;NSC 66491;4-Oxo-1-methylpiperidine",
    "duplicated_cas_no": "2227391-35-5",
    "SMILES": "O=C1CCN(C)CC1",
    "meta_data": {
        "InChI": "InChI=1S/C6H11NO/c1-7-4-2-6(8)3-5-7/h2-5H2,1H3",
        "InChIKey": null,
        "Canonical SMILES": "O=C1CCN(C)CC1",
        "Molecular Formula": "C<sub>6</sub>H<sub>11</sub>NO",
        "Molecular Mass": "113.16",
        "Boiling Point": "43.5-44.1 °C @ Press: 6 Torr",
        "Melting Point": "192-193 °C",
        "Density": "9.73 x 10⁻⁴ g/cm³ (liquid)"
    }
}