{
    "cas_no": "53408-94-9",
    "key_name": "Stannous methanesulfonate",
    "cn_name": "甲基磺酸锡;",
    "alternate_name": "Methanesulfonic acid, tin(2+) salt (2:1);Methanesulfonic acid, tin(2+) salt;Tin(II) methanesulfonate;Stannous methanesulfonate;Stannous methylsulfonate",
    "duplicated_cas_no": "765922-96-1;1171949-49-7",
    "SMILES": "S(C)(=O)(=O)O.[Sn]",
    "meta_data": {
        "InChI": "InChI=1S/CH4O3S.Sn/c1-5(2,3)4;/h1H3,(H,2,3,4);",
        "InChIKey": null,
        "Canonical SMILES": "[Sn].O=S(=O)(O)C",
        "Molecular Formula": "CH<sub>4</sub>O<sub>3</sub>S.<sup>1</sup>/<sub>2</sub>Sn",
        "Molecular Mass": "",
        "Melting Point": "-27 °C",
        "Density": "1.55 g/cm³"
    }
}