{
    "cas_no": "84689-20-3",
    "key_name": "2-[Cyano(2,3-dichlorophenyl)methylene]hydrazinecarboximidamide",
    "cn_name": null,
    "alternate_name": "Hydrazinecarboximidamide, 2-[cyano(2,3-dichlorophenyl)methylene]-;2-[Cyano(2,3-dichlorophenyl)methylene]hydrazinecarboximidamide;(2,3-Dichlorophenyl)(guanidinylimino)acetonitrile;2-(2,3-Dichlorophenyl)-2-guanidinyliminoacetonitrile",
    "duplicated_cas_no": "",
    "SMILES": "C(=NNC(=N)N)(C#N)C1=C(Cl)C(Cl)=CC=C1",
    "meta_data": {
        "InChI": "InChI=1S/C9H7Cl2N5/c10-6-3-1-2-5(8(6)11)7(4-12)15-16-9(13)14/h1-3H,(H4,13,14,16)",
        "InChIKey": null,
        "Canonical SMILES": "N#CC(=NNC(=N)N)C=1C=CC=C(Cl)C1Cl",
        "Molecular Formula": "C<sub>9</sub>H<sub>7</sub>Cl<sub>2</sub>N<sub>5</sub>",
        "Molecular Mass": "256.09",
        "Melting Point": "176-178 °C"
    }
}