{
    "cas_no": "24393-56-4",
    "key_name": "Ethyl (<em>E</em>)-4-methoxycinnamate",
    "cn_name": null,
    "alternate_name": "2-Propenoic acid, 3-(4-methoxyphenyl)-, ethyl ester, (2<em>E</em>)-;2-Propenoic acid, 3-(4-methoxyphenyl)-, ethyl ester, (<em>E</em>)-;Ethyl (<em>E</em>)-<em>p</em>-methoxycinnamate;Ethyl <em>trans</em>-<em>p</em>-methoxycinnamate;Ethyl (<em>E</em>)-3-(<em>p</em>-methoxyphenyl)-2-propenoate;Ethyl (<em>E</em>)-3-(4-methoxyphenyl)-2-propenoate;(E)-Ethyl 4-methoxycinnamate;Ethyl (<em>E</em>)-4-methoxycinnamate;Ethyl <em>trans</em>-4-methoxycinnamate;Solaboost SPF;(2<em>E</em>)-3-(4-Methoxyphenyl)-2-propenoic acid ethyl ester;<em>trans</em>-<em>p</em>-Methoxycinnamic acid ethyl ester;(<em>E</em>)-Ethyl 3-(4-methoxyphenyl)acrylate;Ethyl 4-methoxy-<em>trans</em>-cinnamate;(E)-Ethyl 3-(4-methoxyphenyl)acrylate;Ethyl (E)-3-(4-methoxyphenyl)acrylate",
    "duplicated_cas_no": "",
    "SMILES": "C(=C/C(OCC)=O)\\C1=CC=C(OC)C=C1",
    "meta_data": {
        "InChI": "InChI=1S/C12H14O3/c1-3-15-12(13)9-6-10-4-7-11(14-2)8-5-10/h4-9H,3H2,1-2H3/b9-6+",
        "InChIKey": null,
        "Canonical SMILES": "O=C(OCC)C=CC1=CC=C(OC)C=C1",
        "Molecular Formula": "C<sub>12</sub>H<sub>14</sub>O<sub>3</sub>",
        "Molecular Mass": "206.24",
        "Boiling Point": "120 °C @ Press: 0.3 Torr",
        "Melting Point": "49.5-51 °C"
    }
}