{
    "cas_no": "56539-66-3",
    "key_name": "3-Methoxy-3-methyl-1-butanol",
    "cn_name": "3-甲氧基-3-甲基丁醇; 3-甲氧基-3-甲基-1-丁醇;",
    "alternate_name": "1-Butanol, 3-methoxy-3-methyl-;3-Methoxy-3-methyl-1-butanol;3-Methyl-3-methoxy-1-hydroxybutane;3-Methyl-3-methoxybutanol;3-Methyl-3-methoxy-1-butanol;3-Methoxy-3-methylbutanol;Solfit;3-Methyl-3-(methyloxy)butan-1-ol;Solfit S 110;3-Methoxy-3-methyl-1-butyl alcohol;3-Methoxy-3-methylbutan-1-ol;Finetop J 210;Solfit MMB;3-Methyl-3-methoxybutyl alcohol;Solfit FG",
    "duplicated_cas_no": "77908-12-4;1895087-38-3",
    "SMILES": "C(CCO)(OC)(C)C",
    "meta_data": {
        "InChI": "InChI=1S/C6H14O2/c1-6(2,8-3)4-5-7/h7H,4-5H2,1-3H3",
        "InChIKey": null,
        "Canonical SMILES": "OCCC(OC)(C)C",
        "Molecular Formula": "C<sub>6</sub>H<sub>14</sub>O<sub>2</sub>",
        "Molecular Mass": "118.17",
        "Boiling Point": "175 °C @ Press: 760 Torr",
        "Density": "0.9220 g/cm³ @ Temp: 20 °C"
    }
}