{
    "cas_no": "10124-36-4",
    "key_name": "Cadmium sulfate",
    "cn_name": "硫酸镉;",
    "alternate_name": "Sulfuric acid, cadmium salt (1:1);Cadmium sulfate;Cadmium sulfate (Cd(SO<sub>4</sub>));Cadmium monosulfate;Cadmium sulforicum",
    "duplicated_cas_no": "62642-07-3",
    "SMILES": "S(=O)(=O)(O)O.[Cd]",
    "meta_data": {
        "InChI": "InChI=1S/Cd.H2O4S/c;1-5(2,3)4/h;(H2,1,2,3,4)",
        "InChIKey": null,
        "Canonical SMILES": "[Cd].O=S(=O)(O)O",
        "Molecular Formula": "Cd.H<sub>2</sub>O<sub>4</sub>S",
        "Molecular Mass": "",
        "Melting Point": "1000 °C",
        "Density": "4.691 g/cm³"
    }
}