{
    "cas_no": "14532-24-2",
    "key_name": "1-Hexanesulfonyl chloride",
    "cn_name": null,
    "alternate_name": "1-Hexanesulfonyl chloride;Hexylsulfonyl chloride;Hexanesulfonyl chloride;<em>n</em>-Hexylsulfonyl chloride",
    "duplicated_cas_no": "",
    "SMILES": "C(CS(Cl)(=O)=O)CCCC",
    "meta_data": {
        "InChI": "InChI=1S/C6H13ClO2S/c1-2-3-4-5-6-10(7,8)9/h2-6H2,1H3",
        "InChIKey": null,
        "Canonical SMILES": "O=S(=O)(Cl)CCCCCC",
        "Molecular Formula": "C<sub>6</sub>H<sub>13</sub>ClO<sub>2</sub>S",
        "Molecular Mass": "184.68",
        "Boiling Point": "92-93 °C @ Press: 4-5 Torr",
        "Melting Point": "-9 °C",
        "Density": "1.1283 g/cm³ @ Temp: 20 °C"
    }
}