{
    "cas_no": "12070-06-3",
    "key_name": "Tantalum carbide (TaC)",
    "cn_name": null,
    "alternate_name": "Tantalum carbide (TaC);Tantalum monocarbide;Tantalum monocarbide (TaC);Tantalum carbide",
    "duplicated_cas_no": "12620-05-2;143501-57-9;188300-48-3;2089026-67-3",
    "SMILES": "",
    "meta_data": {
        "InChI": "",
        "InChIKey": null,
        "Canonical SMILES": "",
        "Molecular Formula": "CTa",
        "Molecular Mass": "",
        "Melting Point": "&gt;1427 °C",
        "Density": "12.454 g/cm³"
    }
}