{
    "uri": "substance/pt/12070063",
    "rn": "12070-06-3",
    "name": "Tantalum carbide (TaC)",
    "images": [],
    "inchi": "",
    "inchiKey": "",
    "smile": "",
    "canonicalSmile": "",
    "molecularFormula": "CTa",
    "molecularMass": "",
    "experimentalProperties": [
        {
            "name": "Melting Point",
            "property": "&gt;1427 °C",
            "sourceNumber": 1
        },
        {
            "name": "Density",
            "property": "12.454 g/cm³",
            "sourceNumber": 2
        }
    ],
    "propertyCitations": [
        {
            "docUri": "document/pt/document/21424145",
            "sourceNumber": 1,
            "source": "Chang, Y. Austin; Transactions of the American Institute of Mining, Metallurgical and Petroleum Engineers, (1967), 239(11), 1685-91, CAplus"
        },
        {
            "docUri": "document/pt/document/47410972",
            "sourceNumber": 2,
            "source": "Liu, Limeng; Ceramics International, (2016), 42(14), 16248-16254, CAplus"
        }
    ],
    "synonyms": [
        "Tantalum carbide (TaC)",
        "Tantalum monocarbide",
        "Tantalum monocarbide (TaC)",
        "Tantalum carbide"
    ],
    "replacedRns": [
        "12620-05-2",
        "143501-57-9",
        "188300-48-3",
        "2089026-67-3"
    ],
    "hasMolfile": false,
    "source": "https://commonchemistry.cas.org/detail?cas_rn=12070-06-3"
}