{
    "cas_no": "1466-88-2",
    "key_name": "2-Nitrocinnamaldehyde",
    "cn_name": "邻硝基肉桂醛;邻硝基肉桂醛;2-硝基亚肉桂基醛;2-硝基肉桂醛, 主要为反式,98%;2-硝基肉桂醛, 主要为反式;2-;",
    "alternate_name": "2-Propenal, 3-(2-nitrophenyl)-;Cinnamaldehyde, <em>o</em>-nitro-;3-(2-Nitrophenyl)-2-propenal;<em>o</em>-Nitrocinnamaldehyde;2-Nitrocinnamaldehyde;NSC 28458;2-Nitrocinnamic aldehyde;3-(2-Nitrophenyl)propenal",
    "duplicated_cas_no": "",
    "SMILES": "C(=CC=O)C1=C(N(=O)=O)C=CC=C1",
    "meta_data": {
        "InChI": "InChI=1S/C9H7NO3/c11-7-3-5-8-4-1-2-6-9(8)10(12)13/h1-7H",
        "InChIKey": null,
        "Canonical SMILES": "O=CC=CC=1C=CC=CC1N(=O)=O",
        "Molecular Formula": "C<sub>9</sub>H<sub>7</sub>NO<sub>3</sub>",
        "Molecular Mass": "177.16",
        "Melting Point": "127 °C"
    }
}