{
    "cas_no": "25016-12-0",
    "key_name": "1,3-Dimethyl-1<em>H</em>-pyrazole-4-carboxaldehyde",
    "cn_name": null,
    "alternate_name": "1<em>H</em>-Pyrazole-4-carboxaldehyde, 1,3-dimethyl-;Pyrazole-4-carboxaldehyde, 1,3-dimethyl-;1,3-Dimethyl-1<em>H</em>-pyrazole-4-carboxaldehyde;1,3-Dimethyl-4-formylpyrazole;1,3-Dimethylpyrazole-4-carboxaldehyde;1,3-Dimethyl-1<em>H</em>-pyrazole-4-carbaldehyde;1,3-Dimethylpyrazole-4-carbaldehyde",
    "duplicated_cas_no": "",
    "SMILES": "C(=O)C=1C(C)=NN(C)C1",
    "meta_data": {
        "InChI": "InChI=1S/C6H8N2O/c1-5-6(4-9)3-8(2)7-5/h3-4H,1-2H3",
        "InChIKey": null,
        "Canonical SMILES": "O=CC1=CN(N=C1C)C",
        "Molecular Formula": "C<sub>6</sub>H<sub>8</sub>N<sub>2</sub>O",
        "Molecular Mass": "124.14",
        "Boiling Point": "98-100 °C @ Press: 760 Torr",
        "Melting Point": "50 °C"
    }
}