{
    "cas_no": "1527-89-5",
    "key_name": "3-Methoxybenzonitrile",
    "cn_name": "3-甲氧基苯腈;",
    "alternate_name": "Benzonitrile, 3-methoxy-;<em>m</em>-Anisonitrile;3-Methoxybenzonitrile;<em>m</em>-Methoxybenzonitrile;<em>m</em>-Cyanoanisole;3-Cyanoanisole;NSC 225049",
    "duplicated_cas_no": "",
    "SMILES": "C(#N)C1=CC(OC)=CC=C1",
    "meta_data": {
        "InChI": "InChI=1S/C8H7NO/c1-10-8-4-2-3-7(5-8)6-9/h2-5H,1H3",
        "InChIKey": null,
        "Canonical SMILES": "N#CC1=CC=CC(OC)=C1",
        "Molecular Formula": "C<sub>8</sub>H<sub>7</sub>NO",
        "Molecular Mass": "133.15",
        "Boiling Point": "164-165 °C @ Press: 20 Torr"
    }
}