{
    "cas_no": "31928-44-6",
    "key_name": "2-Bromo-4-chloro-1-iodobenzene",
    "cn_name": "2-溴-4-氯-1-碘苯;",
    "alternate_name": "Benzene, 2-bromo-4-chloro-1-iodo-;2-Bromo-4-chloro-1-iodobenzene;2-Bromo-1-iodo-4-chlorobenzene;1-Bromo-5-chloro-2-iodobenzene;4-Chloro-1-iodo-2-bromobenzene;2-Bromo-4-chloroiodobenzene;5-Chloro-2-iodo-1-bromobenzene;1-Bromo-3-chloro-6-iodobenzene",
    "duplicated_cas_no": "",
    "SMILES": "BrC1=C(I)C=CC(Cl)=C1",
    "meta_data": {
        "InChI": "InChI=1S/C6H3BrClI/c7-5-3-4(8)1-2-6(5)9/h1-3H",
        "InChIKey": null,
        "Canonical SMILES": "ClC1=CC=C(I)C(Br)=C1",
        "Molecular Formula": "C<sub>6</sub>H<sub>3</sub>BrClI",
        "Molecular Mass": "317.35",
        "Melting Point": "31-33 °C"
    }
}