{
    "cas_no": "53963-10-3",
    "key_name": "2-(6-Bromohexyloxy)tetrahydropyran",
    "cn_name": "2-(6-溴己氧基)四氢-2H-吡喃;",
    "alternate_name": "2<em>H</em>-Pyran, 2-[(6-bromohexyl)oxy]tetrahydro-;2-[(6-Bromohexyl)oxy]tetrahydro-2<em>H</em>-pyran;2-(6-Bromohexyloxy)tetrahydro-2<em>H</em>-pyran;6-Bromo-1-hexyl 2-tetrahydropyranyl ether;2-(6-Bromohexyloxy)tetrahydropyran;6-Bromo-1-(tetrahydropyranyloxy)hexane;1-Bromo-6-[(tetrahydropyran-2-yl)oxy]hexane;6-(Tetrahydropyran-2-yloxy)hexyl bromide;6-Bromohexyl 2-tetrahydropyranyl ether;2-(6-Bromhexyloxy)tetrahydro-2<em>H</em>-pyran;2-(6-Bromohexoxy)oxane",
    "duplicated_cas_no": "113017-62-2",
    "SMILES": "O(CCCCCCBr)C1CCCCO1",
    "meta_data": {
        "InChI": "InChI=1S/C11H21BrO2/c12-8-4-1-2-5-9-13-11-7-3-6-10-14-11/h11H,1-10H2",
        "InChIKey": null,
        "Canonical SMILES": "BrCCCCCCOC1OCCCC1",
        "Molecular Formula": "C<sub>11</sub>H<sub>21</sub>BrO<sub>2</sub>",
        "Molecular Mass": "265.19",
        "Boiling Point": "130-132 °C @ Press: 6 Torr",
        "Melting Point": "90-91 °C",
        "Density": "1.2082 g/cm³ @ Temp: 20 °C"
    }
}