{
    "cas_no": "131-01-1",
    "key_name": "Deserpidine",
    "cn_name": "地舍平;17-甲氧基-18-[(3,4,5-三甲氧基苯甲酰)氧]育亨烷-16-甲酸甲酯;",
    "alternate_name": "Yohimban-16-carboxylic acid, 17-methoxy-18-[(3,4,5-trimethoxybenzoyl)oxy]-, methyl ester, (3β,16β,17α,18β,20α)-;3β,20α-Yohimban-16β-carboxylic acid, 18β-hydroxy-17α-methoxy-, methyl ester, 3,4,5-trimethoxybenzoate (ester);Deserpidine;Deserpidic acid, methyl ester, 3,4,5-trimethoxybenzoate;Benz[<em>g</em>]indolo[2,3-<em>a</em>]quinolizine, yohimban-16-carboxylic acid deriv.;Canescine;11-Desmethoxyreserpine;Harmonyl;Raunormine;Recanescine;Reserpidine;11-Demethoxyreserpine;Deserpidin;Recanescin;Raunormin;Canescin;Deserpic acid, methyl ester, 3,4,5-trimethoxybenzoate;NSC 72138;Canescine (Rauwolfia);(-)-Deserpidine",
    "duplicated_cas_no": "13079-12-4;438621-53-5;439669-81-5;855395-45-8;1195636-91-9",
    "SMILES": "C(OC)(=O)[C@H]1[C@]2(C[C@@]3(C4=C(C=5C(N4)=CC=CC5)CCN3C[C@]2(C[C@@H](OC(=O)C6=CC(OC)=C(OC)C(OC)=C6)[C@@H]1OC)[H])[H])[H]",
    "meta_data": {
        "InChI": "InChI=1S/C32H38N2O8/c1-37-24-12-17(13-25(38-2)29(24)39-3)31(35)42-26-14-18-16-34-11-10-20-19-8-6-7-9-22(19)33-28(20)23(34)15-21(18)27(30(26)40-4)32(36)41-5/h6-9,12-13,18,21,23,26-27,30,33H,10-11,14-16H2,1-5H3/t18-,21+,23-,26-,27+,30+/m1/s1",
        "InChIKey": null,
        "Canonical SMILES": "O=C(OC1CC2CN3CCC=4C=5C=CC=CC5NC4C3CC2C(C(=O)OC)C1OC)C6=CC(OC)=C(OC)C(OC)=C6",
        "Molecular Formula": "C<sub>32</sub>H<sub>38</sub>N<sub>2</sub>O<sub>8</sub>",
        "Molecular Mass": "578.65",
        "Melting Point": "230.5 °C"
    }
}