{
    "cas_no": "4362-40-7",
    "key_name": "4-(Chloromethyl)-2,2-dimethyl-1,3-dioxolane",
    "cn_name": "4-氯甲基-2,2-二甲基-1,3-二氧戊环;",
    "alternate_name": "1,3-Dioxolane, 4-(chloromethyl)-2,2-dimethyl-;4-(Chloromethyl)-2,2-dimethyl-1,3-dioxolane;1-Chloro-2,3-<em>O</em>-isopropylidenepropane;(±)-4-(Chloromethyl)-2,2-dimethyl-1,3-dioxolane",
    "duplicated_cas_no": "69427-60-7",
    "SMILES": "C(Cl)C1OC(C)(C)OC1",
    "meta_data": {
        "InChI": "InChI=1S/C6H11ClO2/c1-6(2)8-4-5(3-7)9-6/h5H,3-4H2,1-2H3",
        "InChIKey": null,
        "Canonical SMILES": "ClCC1OC(OC1)(C)C",
        "Molecular Formula": "C<sub>6</sub>H<sub>11</sub>ClO<sub>2</sub>",
        "Molecular Mass": "150.60",
        "Boiling Point": "157 °C @ Press: 767 Torr",
        "Density": "1.109 g/cm³ @ Temp: 16 °C"
    }
}