{
    "cas_no": "15018-66-3",
    "key_name": "4-Quinazolinamine",
    "cn_name": null,
    "alternate_name": "4-Quinazolinamine;Quinazoline, 4-amino-;4-Aminoquinazoline;4-Quinazolineamine;Quinazolin-4-ylamine;NSC 288012",
    "duplicated_cas_no": "",
    "SMILES": "NC=1C2=C(N=CN1)C=CC=C2",
    "meta_data": {
        "InChI": "InChI=1S/C8H7N3/c9-8-6-3-1-2-4-7(6)10-5-11-8/h1-5H,(H2,9,10,11)",
        "InChIKey": null,
        "Canonical SMILES": "N=1C=NC=2C=CC=CC2C1N",
        "Molecular Formula": "C<sub>8</sub>H<sub>7</sub>N<sub>3</sub>",
        "Molecular Mass": "145.16",
        "Melting Point": "272 °C"
    }
}