{
    "cas_no": "2579-22-8",
    "key_name": "Phenylpropynal",
    "cn_name": "苯丙炔醛;",
    "alternate_name": "2-Propynal, 3-phenyl-;Propiolaldehyde, phenyl-;3-Phenyl-2-propynal;Benzenepropiolaldehyde;Phenylpropargylaldehyde;Phenylpropynal;3-Phenylpropynal;Phenylpropiolaldehyde;Phenylacetylenecarboxaldehyde;Formylphenylacetylene;3-Phenyl-2-propyn-1-al;NSC 47568;3-Phenyl-2-propiolaldehyde;3-Phenylpropiolaldehyde",
    "duplicated_cas_no": "1801141-87-6",
    "SMILES": "C(#CC=O)C1=CC=CC=C1",
    "meta_data": {
        "InChI": "InChI=1S/C9H6O/c10-8-4-7-9-5-2-1-3-6-9/h1-3,5-6,8H",
        "InChIKey": null,
        "Canonical SMILES": "O=CC#CC=1C=CC=CC1",
        "Molecular Formula": "C<sub>9</sub>H<sub>6</sub>O",
        "Molecular Mass": "130.14",
        "Boiling Point": "114-117 °C @ Press: 17 Torr",
        "Melting Point": "139-140 °C (decomp)",
        "Density": "1.0622 g/cm³ @ Temp: 20 °C"
    }
}