{
    "cas_no": "17963-04-1",
    "key_name": "γ-Glycidyloxypropyldimethylethoxysilane",
    "cn_name": "乙氧基二甲基[3-(环氧乙烷氧基)丙基]硅烷;",
    "alternate_name": "Oxirane, 2-[[3-(ethoxydimethylsilyl)propoxy]methyl]-;Silane, [3-(2,3-epoxypropoxy)propyl]ethoxydimethyl-;Silane, ethoxydimethyl[3-(oxiranylmethoxy)propyl]-;2-[[3-(Ethoxydimethylsilyl)propoxy]methyl]oxirane;3-[(Glycidyloxy)propyl]dimethylethoxysilane;γ-Glycidyloxypropyldimethylethoxysilane;Ethoxydimethyl[3-(oxiran-2-ylmethoxy)propyl]silane",
    "duplicated_cas_no": "",
    "SMILES": "C(OCCC[Si](OCC)(C)C)C1CO1",
    "meta_data": {
        "InChI": "InChI=1S/C10H22O3Si/c1-4-13-14(2,3)7-5-6-11-8-10-9-12-10/h10H,4-9H2,1-3H3",
        "InChIKey": null,
        "Canonical SMILES": "O(CCC[Si](OCC)(C)C)CC1OC1",
        "Molecular Formula": "C<sub>10</sub>H<sub>22</sub>O<sub>3</sub>Si",
        "Molecular Mass": "218.37",
        "Boiling Point": "100 °C @ Press: 3 Torr"
    }
}