{
    "cas_no": "76608-88-3",
    "key_name": "Triapenthenol",
    "cn_name": null,
    "alternate_name": "1<em>H</em>-1,2,4-Triazole-1-ethanol, β-(cyclohexylmethylene)-α-(1,1-dimethylethyl)-, (β<em>E</em>)-;1<em>H</em>-1,2,4-Triazole-1-ethanol, β-(cyclohexylmethylene)-α-(1,1-dimethylethyl)-, (<em>E</em>)-;(β<em>E</em>)-β-(Cyclohexylmethylene)-α-(1,1-dimethylethyl)-1<em>H</em>-1,2,4-triazole-1-ethanol;NTN 811;RSW 0411;Triapenthenol;UK 140;Triazethanol;Triazethan;(<em>E</em>)-1-Cyclohexyl-4,4-dimethyl-2-(1,2,4-triazol-1-yl)-1-penten-3-ol;Baronet",
    "duplicated_cas_no": "95660-48-3;93851-03-7",
    "SMILES": "C(\\C(C(C)(C)C)O)(=C\\C1CCCCC1)/N2C=NC=N2",
    "meta_data": {
        "InChI": "InChI=1/C15H25N3O/c1-15(2,3)14(19)13(18-11-16-10-17-18)9-12-7-5-4-6-8-12/h9-12,14,19H,4-8H2,1-3H3/b13-9+",
        "InChIKey": null,
        "Canonical SMILES": "OC(C(=CC1CCCCC1)N2N=CN=C2)C(C)(C)C",
        "Molecular Formula": "C<sub>15</sub>H<sub>25</sub>N<sub>3</sub>O",
        "Molecular Mass": "263.38",
        "Melting Point": "132-134 °C"
    }
}