{
    "cas_no": "18912-37-3",
    "key_name": "4-Methoxybenzyl carbazate",
    "cn_name": "4-甲氧基苄氧基酰肼;4-甲氧基苯基碳酸酯;",
    "alternate_name": "Hydrazinecarboxylic acid, (4-methoxyphenyl)methyl ester;Carbazic acid, <em>p</em>-methoxybenzyl ester;Benzyl alcohol, <em>p</em>-methoxy-, carbazate;<em>p</em>-Methoxybenzyl carbazate;4-Methoxybenzyl carbazate;(4-Methoxyphenyl)methyl <em>N</em>-aminocarbamate",
    "duplicated_cas_no": "",
    "SMILES": "C(OC(NN)=O)C1=CC=C(OC)C=C1",
    "meta_data": {
        "InChI": "InChI=1S/C9H12N2O3/c1-13-8-4-2-7(3-5-8)6-14-9(12)11-10/h2-5H,6,10H2,1H3,(H,11,12)",
        "InChIKey": null,
        "Canonical SMILES": "O=C(OCC1=CC=C(OC)C=C1)NN",
        "Molecular Formula": "C<sub>9</sub>H<sub>12</sub>N<sub>2</sub>O<sub>3</sub>",
        "Molecular Mass": "196.20",
        "Melting Point": "74-75 °C"
    }
}