{
    "cas_no": "7303-50-6",
    "key_name": "α-Amino-1<em>H</em>-pyrrolo[2,3-<em>b</em>]pyridine-3-propanoic acid",
    "cn_name": null,
    "alternate_name": "1<em>H</em>-Pyrrolo[2,3-<em>b</em>]pyridine-3-propanoic acid, α-amino-;1<em>H</em>-Pyrrolo[2,3-<em>b</em>]pyridine-3-propionic acid, α-amino-, <span class=\"text-smallcaps\">DL</span>-;1<em>H</em>-Pyrrolo[2,3-<em>b</em>]pyridine-3-propanoic acid, α-amino-, (±)-;α-Amino-1<em>H</em>-pyrrolo[2,3-<em>b</em>]pyridine-3-propanoic acid;1<em>H</em>-Pyrrolo[2,3-<em>b</em>]pyridine-3-alanine;NSC 19495;Azatryptophan;<span class=\"text-smallcaps\">D</smallcap><smallcap>L</span>-Azatryptophan;7-Aza-<span class=\"text-smallcaps\">D</smallcap><smallcap>L</span>-tryptophan;7-Azatryptophan;Aza-T;<span class=\"text-smallcaps\">D</smallcap><smallcap>L</span>-7-Azatryptophan;2-Azaniumyl-3-(1<em>H</em>-pyrrolo[2,3-<em>b</em>]pyridin-3-yl)propanoate;2-Amino-3-[1<em>H</em>-pyrrolo[2,3-<em>b</em>]pyridin-3-yl]propanoic acid",
    "duplicated_cas_no": "1137-00-4;897958-55-3",
    "SMILES": "C(C(C(O)=O)N)C=1C=2C(NC1)=NC=CC2",
    "meta_data": {
        "InChI": "InChI=1S/C10H11N3O2/c11-8(10(14)15)4-6-5-13-9-7(6)2-1-3-12-9/h1-3,5,8H,4,11H2,(H,12,13)(H,14,15)",
        "InChIKey": null,
        "Canonical SMILES": "O=C(O)C(N)CC1=CNC=2N=CC=CC21",
        "Molecular Formula": "C<sub>10</sub>H<sub>11</sub>N<sub>3</sub>O<sub>2</sub>",
        "Molecular Mass": "205.21",
        "Melting Point": "257-259 °C (decomp)"
    }
}