{
    "cas_no": "1129-65-3",
    "key_name": "1-Hexyn-1-ylbenzene",
    "cn_name": "苯己炔;",
    "alternate_name": "Benzene, 1-hexyn-1-yl-;1-Hexyne, 1-phenyl-;Benzene, 1-hexynyl-;1-Hexyn-1-ylbenzene;1-Phenyl-1-hexyne;1-Butyl-2-phenylacetylene;Butylphenylacetylene;(1-Hexyn-1-yl)benzene;Hex-1-ynylbenzene",
    "duplicated_cas_no": "",
    "SMILES": "C(#CCCCC)C1=CC=CC=C1",
    "meta_data": {
        "InChI": "InChI=1S/C12H14/c1-2-3-4-6-9-12-10-7-5-8-11-12/h5,7-8,10-11H,2-4H2,1H3",
        "InChIKey": null,
        "Canonical SMILES": "C(#CCCCC)C=1C=CC=CC1",
        "Molecular Formula": "C<sub>12</sub>H<sub>14</sub>",
        "Molecular Mass": "158.24",
        "Boiling Point": "119-121 °C @ Press: 18 Torr",
        "Density": "0.899 g/cm³ @ Temp: 17 °C"
    }
}