{
    "cas_no": "23856-21-5",
    "key_name": "1-(Phenylmethyl)-1<em>H</em>-indazol-5-amine",
    "cn_name": null,
    "alternate_name": "1<em>H</em>-Indazol-5-amine, 1-(phenylmethyl)-;1<em>H</em>-Indazole, 5-amino-1-benzyl-;1-(Phenylmethyl)-1<em>H</em>-indazol-5-amine;5-Amino-1-benzyl-1<em>H</em>-indazole;1-Benzyl-1<em>H</em>-indazol-5-ylamine;5-Amino-1-benzylindazole;1-Benzyl-1<em>H</em>-indazol-5-amine;1-Benzylindazol-5-amine;1-Benzyl-5-amino-1<em>H</em>-Indazole",
    "duplicated_cas_no": "",
    "SMILES": "C(N1C=2C(C=N1)=CC(N)=CC2)C3=CC=CC=C3",
    "meta_data": {
        "InChI": "InChI=1S/C14H13N3/c15-13-6-7-14-12(8-13)9-16-17(14)10-11-4-2-1-3-5-11/h1-9H,10,15H2",
        "InChIKey": null,
        "Canonical SMILES": "N1=CC=2C=C(N)C=CC2N1CC=3C=CC=CC3",
        "Molecular Formula": "C<sub>14</sub>H<sub>13</sub>N<sub>3</sub>",
        "Molecular Mass": "223.27",
        "Melting Point": "147-148 °C"
    }
}