{
    "cas_no": "37031-29-1",
    "key_name": "4,5-Dimethyl (4<em>R</em>,5<em>R</em>)-2,2-dimethyl-1,3-dioxolane-4,5-dicarboxylate",
    "cn_name": null,
    "alternate_name": "1,3-Dioxolane-4,5-dicarboxylic acid, 2,2-dimethyl-, 4,5-dimethyl ester, (4<em>R</em>,5<em>R</em>)-;1,3-Dioxolane-4,5-dicarboxylic acid, 2,2-dimethyl-, dimethyl ester, (4<em>R</em>-<em>trans</em>)-;1,3-Dioxolane-4,5-dicarboxylic acid, 2,2-dimethyl-, dimethyl ester, (4<em>R</em>,5<em>R</em>)-;4,5-Dimethyl (4<em>R</em>,5<em>R</em>)-2,2-dimethyl-1,3-dioxolane-4,5-dicarboxylate;Dimethyl 2,3-<em>O</em>-isopropylidene-<span class=\"text-smallcaps\">L</span>-tartrate;(-)-Dimethyl-2,3-<em>O</em>-isopropylidene-<span class=\"text-smallcaps\">L</span>-tartrate;Dimethyl (4R,5R)-2,2-dimethyl-1,3-dioxolane-4,5-dicarboxylate;Dimethyl (4<em>R</em>,5<em>R</em>)-2,2,dimethyl-1,3-dioxolane-4,5-dicarboxylate;(4<em>R</em>,5<em>R</em>)-2,2-Dimethyl-1,3-dioxolane-4,5-dicarboxylic acid dimethyl ester;Dimethyl <span class=\"text-smallcaps\">L</span>-tartarte acetonide;Dimethyl 2,3-<em>O</em>-isopropylidene L-tartrate;2,3-Di-<em>O</em>-isopropylidene-<span class=\"text-smallcaps\">L</span>-tartrate",
    "duplicated_cas_no": "1604678-23-0",
    "SMILES": "C(OC)(=O)[C@H]1[C@H](C(OC)=O)OC(C)(C)O1",
    "meta_data": {
        "InChI": "InChI=1S/C9H14O6/c1-9(2)14-5(7(10)12-3)6(15-9)8(11)13-4/h5-6H,1-4H3/t5-,6-/m1/s1",
        "InChIKey": null,
        "Canonical SMILES": "O=C(OC)C1OC(OC1C(=O)OC)(C)C",
        "Molecular Formula": "C<sub>9</sub>H<sub>14</sub>O<sub>6</sub>",
        "Molecular Mass": "218.20",
        "Boiling Point": "120-122 °C @ Press: 8 Torr",
        "Melting Point": "40-43 °C"
    }
}