{
    "cas_no": "10543-12-1",
    "key_name": "4-(Acetyloxy)-3-methoxybenzoic acid",
    "cn_name": "4-乙酰氧基-3-甲氧基苯甲酸;",
    "alternate_name": "Benzoic acid, 4-(acetyloxy)-3-methoxy-;Vanillic acid, acetate;4-(Acetyloxy)-3-methoxybenzoic acid;3-Methoxy-4-acetoxybenzoic acid;4-Acetoxy-3-methoxybenzoic acid;4-Carboxy-2-methoxyphenol acetate;<em>O</em>-Acetylvanillic acid;NSC 408845;4-Acetoxyvanillic acid",
    "duplicated_cas_no": "",
    "SMILES": "O(C(C)=O)C1=C(OC)C=C(C(O)=O)C=C1",
    "meta_data": {
        "InChI": "InChI=1S/C10H10O5/c1-6(11)15-8-4-3-7(10(12)13)5-9(8)14-2/h3-5H,1-2H3,(H,12,13)",
        "InChIKey": null,
        "Canonical SMILES": "O=C(O)C1=CC=C(OC(=O)C)C(OC)=C1",
        "Molecular Formula": "C<sub>10</sub>H<sub>10</sub>O<sub>5</sub>",
        "Molecular Mass": "210.18",
        "Melting Point": "149 °C"
    }
}