{
    "cas_no": "22717-55-1",
    "key_name": "Methyl 4-chloro-2-hydroxybenzoate",
    "cn_name": null,
    "alternate_name": "Benzoic acid, 4-chloro-2-hydroxy-, methyl ester;Salicylic acid, 4-chloro-, methyl ester;Methyl 4-chloro-2-hydroxybenzoate;Methyl <em>p</em>-chlorosalicylate;Methyl 4-chlorosalicylate;2-Hydroxy-4-chlorobenzoic acid methyl ester;NSC 300575;4-Chloro-2-hydroxybenzoic acid methyl ester",
    "duplicated_cas_no": "",
    "SMILES": "C(OC)(=O)C1=C(O)C=C(Cl)C=C1",
    "meta_data": {
        "InChI": "InChI=1S/C8H7ClO3/c1-12-8(11)6-3-2-5(9)4-7(6)10/h2-4,10H,1H3",
        "InChIKey": null,
        "Canonical SMILES": "O=C(OC)C1=CC=C(Cl)C=C1O",
        "Molecular Formula": "C<sub>8</sub>H<sub>7</sub>ClO<sub>3</sub>",
        "Molecular Mass": "186.59",
        "Boiling Point": "127 °C @ Press: 15 Torr"
    }
}