{
    "cas_no": "2534-66-9",
    "key_name": "Octylpyridinium bromide",
    "cn_name": null,
    "alternate_name": "Pyridinium, 1-octyl-, bromide (1:1);Pyridinium, 1-octyl-, bromide;1-Octylpyridinium bromide;<em>N</em>-Octylpyridinium bromide;Octylpyridinium bromide",
    "duplicated_cas_no": "",
    "SMILES": "C(CCCCCCC)[N+]=1C=CC=CC1.[Br-]",
    "meta_data": {
        "InChI": "InChI=1S/C13H22N.BrH/c1-2-3-4-5-6-8-11-14-12-9-7-10-13-14;/h7,9-10,12-13H,2-6,8,11H2,1H3;1H/q+1;/p-1",
        "InChIKey": null,
        "Canonical SMILES": "[Br-].C=1C=C[N+](=CC1)CCCCCCCC",
        "Molecular Formula": "C<sub>13</sub>H<sub>22</sub>N.Br",
        "Molecular Mass": "",
        "Melting Point": "28-30 °C",
        "Density": "1.161808 g/cm³ @ Temp: 45.000 °C"
    }
}