{
    "cas_no": "41841-16-1",
    "key_name": "Methyl (4-bromophenyl)acetate",
    "cn_name": "4-溴苯乙酸甲酯;对溴苯乙酸甲酯;",
    "alternate_name": "Benzeneacetic acid, 4-bromo-, methyl ester;Acetic acid, (<em>p</em>-bromophenyl)-, methyl ester;Methyl (4-bromophenyl)acetate;4-Bromophenylacetic acid methyl ester;NSC 245163;Methyl 2-(4-bromophenyl)acetate;2-(4-Bromophenyl)acetic acid methyl ester;Methyl 4-bromobenzeneacetate",
    "duplicated_cas_no": "",
    "SMILES": "C(C(OC)=O)C1=CC=C(Br)C=C1",
    "meta_data": {
        "InChI": "InChI=1S/C9H9BrO2/c1-12-9(11)6-7-2-4-8(10)5-3-7/h2-5H,6H2,1H3",
        "InChIKey": null,
        "Canonical SMILES": "O=C(OC)CC1=CC=C(Br)C=C1",
        "Molecular Formula": "C<sub>9</sub>H<sub>9</sub>BrO<sub>2</sub>",
        "Molecular Mass": "229.07",
        "Boiling Point": "138-140 °C @ Press: 13 Torr",
        "Melting Point": "113-114 °C"
    }
}