{
    "cas_no": "37617-03-1",
    "key_name": "2-Undecen-1-ol",
    "cn_name": null,
    "alternate_name": "2-Undecen-1-ol;1-Hydroxy-2-undecene",
    "duplicated_cas_no": "",
    "SMILES": "C(CCC=CCO)CCCCC",
    "meta_data": {
        "InChI": "InChI=1S/C11H22O/c1-2-3-4-5-6-7-8-9-10-11-12/h9-10,12H,2-8,11H2,1H3",
        "InChIKey": null,
        "Canonical SMILES": "OCC=CCCCCCCCC",
        "Molecular Formula": "C<sub>11</sub>H<sub>22</sub>O",
        "Molecular Mass": "170.29",
        "Boiling Point": "90 °C @ Press: 0.5 Torr",
        "Density": "0.8375 g/cm³ @ Temp: 25 °C"
    }
}