{
    "cas_no": "3741-80-8",
    "key_name": "<em>N</em>-(2-Benzothiazolylthio)-<em>N</em>-(1,1-dimethylethyl)-2-benzothiazolesulfenamide",
    "cn_name": "N-叔丁基-双(2-苯并噻唑)次磺酰亚胺;",
    "alternate_name": "2-Benzothiazolesulfenamide, <em>N</em>-(2-benzothiazolylthio)-<em>N</em>-(1,1-dimethylethyl)-;Di(2-benzothiazolesulfen)amide, <em>N</em>-<em>tert</em>-butyl-;<em>N</em>-(2-Benzothiazolylthio)-<em>N</em>-(1,1-dimethylethyl)-2-benzothiazolesulfenamide;<em>N</em>,<em>N</em>-Bis[(2-benzothiazolyl)thio]-<em>tert</em>-butylamine;Santocure TBSI;<em>N</em>-<em>tert</em>-Butylbis(2-benzothiazolesulfen)amide;<em>N</em>-<em>tert</em>-Butyl2-benzothiazolesulfenimide;TBSI;<em>N</em>-<em>tert</em>-Butylbis(2-benzothiazolyl)sulfenimide;SF 201",
    "duplicated_cas_no": "",
    "SMILES": "N(C(C)(C)C)(SC1=NC=2C(S1)=CC=CC2)SC3=NC=4C(S3)=CC=CC4",
    "meta_data": {
        "InChI": "InChI=1S/C18H17N3S4/c1-18(2,3)21(24-16-19-12-8-4-6-10-14(12)22-16)25-17-20-13-9-5-7-11-15(13)23-17/h4-11H,1-3H3",
        "InChIKey": null,
        "Canonical SMILES": "N1=C(SC=2C=CC=CC12)SN(SC3=NC=4C=CC=CC4S3)C(C)(C)C",
        "Molecular Formula": "C<sub>18</sub>H<sub>17</sub>N<sub>3</sub>S<sub>4</sub>",
        "Molecular Mass": "403.61",
        "Melting Point": "143-144 °C"
    }
}