{
    "cas_no": "37308-75-1",
    "key_name": "Flavokawain C",
    "cn_name": null,
    "alternate_name": "2-Propen-1-one, 1-(2-hydroxy-4,6-dimethoxyphenyl)-3-(4-hydroxyphenyl)-, (2<em>E</em>)-;2-Propen-1-one, 1-(2-hydroxy-4,6-dimethoxyphenyl)-3-(4-hydroxyphenyl)-, (<em>E</em>)-;(2<em>E</em>)-1-(2-Hydroxy-4,6-dimethoxyphenyl)-3-(4-hydroxyphenyl)-2-propen-1-one;Flavokawain C;2′,4-Dihydroxy-4′,6′-dimethoxy-<em>trans</em>-chalcone;Flavokavin C;4-Hydroxyflavokawain B;(<em>E</em>)-1-(2-Hydroxy-4,6-dimethoxyphenyl)-3-(4-hydroxyphenyl)prop-2-en-1-one (Flavokawain C)",
    "duplicated_cas_no": "",
    "SMILES": "O(C)C1=C(C(/C=C/C2=CC=C(O)C=C2)=O)C(O)=CC(OC)=C1",
    "meta_data": {
        "InChI": "InChI=1S/C17H16O5/c1-21-13-9-15(20)17(16(10-13)22-2)14(19)8-5-11-3-6-12(18)7-4-11/h3-10,18,20H,1-2H3/b8-5+",
        "InChIKey": null,
        "Canonical SMILES": "O=C(C=CC1=CC=C(O)C=C1)C=2C(O)=CC(OC)=CC2OC",
        "Molecular Formula": "C<sub>17</sub>H<sub>16</sub>O<sub>5</sub>",
        "Molecular Mass": "300.31",
        "Melting Point": "179-182 °C"
    }
}