{
    "cas_no": "493-01-6",
    "key_name": "<em>cis</em>-Decalin",
    "cn_name": null,
    "alternate_name": "Naphthalene, decahydro-, <em>cis</em>-;<em>cis</em>-Decahydronaphthalene;<em>cis</em>-Decalin;<em>cis</em>-Bicyclo[4.4.0]decane;<em>cis</em>-Perhydronaphthalene",
    "duplicated_cas_no": "",
    "SMILES": "[C@]12([C@@](CCCC1)(CCCC2)[H])[H]",
    "meta_data": {
        "InChI": "InChI=1/C10H18/c1-2-6-10-8-4-3-7-9(10)5-1/h9-10H,1-8H2/t9-,10+",
        "InChIKey": null,
        "Canonical SMILES": "C1CCC2CCCCC2C1",
        "Molecular Formula": "C<sub>10</sub>H<sub>18</sub>",
        "Molecular Mass": "138.25",
        "Boiling Point": "195.8 °C",
        "Melting Point": "-42.9 °C",
        "Density": "0.898 g/cm³ @ Temp: 20 °C"
    }
}