{
    "cas_no": "60468-54-4",
    "key_name": "1-(Chloromethyl)-2-methyl-3-nitrobenzene",
    "cn_name": "2-甲基-3-硝基苄氯;",
    "alternate_name": "Benzene, 1-(chloromethyl)-2-methyl-3-nitro-;1-(Chloromethyl)-2-methyl-3-nitrobenzene;α<sup>1</sup>-Chloro-3-nitro-<em>o</em>-xylene;2-Methyl-3-nitrobenzyl chloride;1-Chloromethyl-2-methyl-3-nitrobenzene",
    "duplicated_cas_no": "",
    "SMILES": "N(=O)(=O)C1=C(C)C(CCl)=CC=C1",
    "meta_data": {
        "InChI": "InChI=1S/C8H8ClNO2/c1-6-7(5-9)3-2-4-8(6)10(11)12/h2-4H,5H2,1H3",
        "InChIKey": null,
        "Canonical SMILES": "O=N(=O)C1=CC=CC(=C1C)CCl",
        "Molecular Formula": "C<sub>8</sub>H<sub>8</sub>ClNO<sub>2</sub>",
        "Molecular Mass": "185.61",
        "Melting Point": "43-44 °C"
    }
}