{
    "cas_no": "855836-62-3",
    "key_name": "2-Bromo-3-chlorophenol",
    "cn_name": null,
    "alternate_name": "Phenol, 2-bromo-3-chloro-;2-Bromo-3-chlorophenol",
    "duplicated_cas_no": "",
    "SMILES": "BrC1=C(Cl)C=CC=C1O",
    "meta_data": {
        "InChI": "InChI=1S/C6H4BrClO/c7-6-4(8)2-1-3-5(6)9/h1-3,9H",
        "InChIKey": null,
        "Canonical SMILES": "ClC1=CC=CC(O)=C1Br",
        "Molecular Formula": "C<sub>6</sub>H<sub>4</sub>BrClO",
        "Molecular Mass": "207.45",
        "Melting Point": "55.5 °C"
    }
}