{
    "cas_no": "874-18-0",
    "key_name": "2,4-Dibromo-6-chloroaniline",
    "cn_name": "2-氯-4,6-二溴苯胺;",
    "alternate_name": "Benzenamine, 2,4-dibromo-6-chloro-;Aniline, 2,4-dibromo-6-chloro-;2,4-Dibromo-6-chlorobenzenamine;2,4-Dibromo-6-chloroaniline;2,4-Dibromo-6-chloro-phenylamine",
    "duplicated_cas_no": "",
    "SMILES": "NC1=C(Br)C=C(Br)C=C1Cl",
    "meta_data": {
        "InChI": "InChI=1S/C6H4Br2ClN/c7-3-1-4(8)6(10)5(9)2-3/h1-2H,10H2",
        "InChIKey": null,
        "Canonical SMILES": "ClC=1C=C(Br)C=C(Br)C1N",
        "Molecular Formula": "C<sub>6</sub>H<sub>4</sub>Br<sub>2</sub>ClN",
        "Molecular Mass": "285.36",
        "Melting Point": "95 °C"
    }
}