{
    "cas_no": "41100-52-1",
    "key_name": "Memantine hydrochloride",
    "cn_name": "3,5-二甲基金刚胺盐酸盐;盐酸美金刚胺;美金刚胺盐酸盐;",
    "alternate_name": "Tricyclo[3.3.1.1<sup>3,7</sup>]decan-1-amine, 3,5-dimethyl-, hydrochloride (1:1);Tricyclo[3.3.1.1<sup>3,7</sup>]decan-1-amine, 3,5-dimethyl-, hydrochloride;1-Adamantanamine, 3,5-dimethyl-, hydrochloride;1-Amino-3,5-dimethyladamantane hydrochloride;Memantine hydrochloride;SUN Y7017;Ebixia;Akatinol;Ebixza;NSC 102290;Namenda;Axura;3,5-Dimethyltricyclo[3.3.1.1<sup>3,7</sup>]decan-1-amine hydrochloride;Ebix;3,5-Dimethyl-1-aminoadamantane hydrochloride;3,5-Dimethyladamantan-1-amine hydrochloride;Memary;Mantine;3,5-Dimethyl-adamantan-1-ylamine; hydrochloride;Memantine LEK;Marixino;Ebixa;Amel",
    "duplicated_cas_no": "",
    "SMILES": "CC12CC3(C)CC(N)(C1)CC(C2)C3.Cl",
    "meta_data": {
        "InChI": "InChI=1S/C12H21N.ClH/c1-10-3-9-4-11(2,6-10)8-12(13,5-9)7-10;/h9H,3-8,13H2,1-2H3;1H",
        "InChIKey": null,
        "Canonical SMILES": "Cl.NC12CC3CC(C)(C1)CC(C)(C3)C2",
        "Molecular Formula": "C<sub>12</sub>H<sub>21</sub>N.ClH",
        "Molecular Mass": "",
        "Melting Point": "258 °C"
    }
}