{
    "cas_no": "15981-91-6",
    "key_name": "2-Amino-5-methyl-4(3<em>H</em>)-pyrimidinone",
    "cn_name": null,
    "alternate_name": "4(3<em>H</em>)-Pyrimidinone, 2-amino-5-methyl-;4(1<em>H</em>)-Pyrimidinone, 2-amino-5-methyl-;2-Amino-5-methyl-4(3<em>H</em>)-pyrimidinone;5-Methylisocytosine;2-amino-5-methyl-4(1<em>H</em>)-pyrimidinone;NSC 60208;2-Amino-5-methylpyrimidin-4-ol;2-Amino-5-methylpyrimidin-4-one;2-Amino-5-methyl-3,4-dihydropyrimidin-4-one;2-Amino-5-methyl-1<em>H</em>-pyrimidin-6-one",
    "duplicated_cas_no": "",
    "SMILES": "O=C1C(C)=CN=C(N)N1",
    "meta_data": {
        "InChI": "InChI=1S/C5H7N3O/c1-3-2-7-5(6)8-4(3)9/h2H,1H3,(H3,6,7,8,9)",
        "InChIKey": null,
        "Canonical SMILES": "O=C1NC(=NC=C1C)N",
        "Molecular Formula": "C<sub>5</sub>H<sub>7</sub>N<sub>3</sub>O",
        "Molecular Mass": "125.13",
        "Melting Point": "277-279 °C"
    }
}