{
    "cas_no": "787-84-8",
    "key_name": "Benzoic acid, 2-benzoylhydrazide",
    "cn_name": "二苯肼;",
    "alternate_name": "Benzoic acid, 2-benzoylhydrazide;Hydrazine, 1,2-dibenzoyl-;1,2-Dibenzoylhydrazine;Dibenzoylhydrazine;<em>N</em>,<em>N</em>′-Dibenzoylhydrazine;<em>N</em><sup>2</sup>-Benzoylbenzoic acid hydrazide;NSC 2762;<em>N</em>′-Benzoylbenzohydrazide",
    "duplicated_cas_no": "",
    "SMILES": "C(NNC(=O)C1=CC=CC=C1)(=O)C2=CC=CC=C2",
    "meta_data": {
        "InChI": "InChI=1S/C14H12N2O2/c17-13(11-7-3-1-4-8-11)15-16-14(18)12-9-5-2-6-10-12/h1-10H,(H,15,17)(H,16,18)",
        "InChIKey": null,
        "Canonical SMILES": "O=C(NNC(=O)C=1C=CC=CC1)C=2C=CC=CC2",
        "Molecular Formula": "C<sub>14</sub>H<sub>12</sub>N<sub>2</sub>O<sub>2</sub>",
        "Molecular Mass": "240.26",
        "Melting Point": "241-242 °C"
    }
}