{
    "cas_no": "76808-15-6",
    "key_name": "Ebelactone B",
    "cn_name": null,
    "alternate_name": "2-Oxetanone, 3-ethyl-4-[(1<em>S</em>,3<em>E</em>,5<em>R</em>,7<em>S</em>,8<em>R</em>,9<em>R</em>)-8-hydroxy-1,3,5,7,9-pentamethyl-6-oxo-3-undecen-1-yl]-, (3<em>S</em>,4<em>S</em>)-;2-Oxetanone, 3-ethyl-4-(8-hydroxy-1,3,5,7,9-pentamethyl-6-oxo-3-undecenyl)-, [3<em>S</em>-[3α,4β(1<em>R</em>*,3<em>E</em>,5<em>S</em>*,7<em>R</em>*,8<em>S</em>*,9<em>S</em>*)]]-;2-Oxetanone, 3-ethyl-4-[(1<em>S</em>,3<em>E</em>,5<em>R</em>,7<em>S</em>,8<em>R</em>,9<em>R</em>)-8-hydroxy-1,3,5,7,9-pentamethyl-6-oxo-3-undecenyl]-, (3<em>S</em>,4<em>S</em>)-;(3<em>S</em>,4<em>S</em>)-3-Ethyl-4-[(1<em>S</em>,3<em>E</em>,5<em>R</em>,7<em>S</em>,8<em>R</em>,9<em>R</em>)-8-hydroxy-1,3,5,7,9-pentamethyl-6-oxo-3-undecen-1-yl]-2-oxetanone;Ebelactone B;(-)-Ebelactone B;NSC 335651",
    "duplicated_cas_no": "",
    "SMILES": "[C@@H](C/C(=C/[C@H](C([C@H]([C@@H]([C@@H](CC)C)O)C)=O)C)/C)(C)[C@]1([C@H](CC)C(=O)O1)[H]",
    "meta_data": {
        "InChI": "InChI=1S/C21H36O4/c1-8-13(4)18(22)16(7)19(23)14(5)10-12(3)11-15(6)20-17(9-2)21(24)25-20/h10,13-18,20,22H,8-9,11H2,1-7H3/b12-10+/t13-,14-,15+,16+,17+,18-,20+/m1/s1",
        "InChIKey": null,
        "Canonical SMILES": "O=C1OC(C1CC)C(C)CC(=CC(C(=O)C(C)C(O)C(C)CC)C)C",
        "Molecular Formula": "C<sub>21</sub>H<sub>36</sub>O<sub>4</sub>",
        "Molecular Mass": "352.51",
        "Melting Point": "71-72 °C"
    }
}