{
    "cas_no": "51079-10-8",
    "key_name": "Ethyl α-oxo-1<em>H</em>-indole-3-acetate",
    "cn_name": null,
    "alternate_name": "1<em>H</em>-Indole-3-acetic acid, α-oxo-, ethyl ester;Indole-3-glyoxylic acid, ethyl ester;Ethyl α-oxo-1<em>H</em>-indole-3-acetate;Ethyl indole-3-glyoxylate;NSC 402543;Ethyl 2-(1<em>H</em>-indol-3-yl)-2-oxoacetate;Ethyl 3-indolylglyoxylate",
    "duplicated_cas_no": "",
    "SMILES": "C(C(OCC)=O)(=O)C=1C=2C(NC1)=CC=CC2",
    "meta_data": {
        "InChI": "InChI=1S/C12H11NO3/c1-2-16-12(15)11(14)9-7-13-10-6-4-3-5-8(9)10/h3-7,13H,2H2,1H3",
        "InChIKey": null,
        "Canonical SMILES": "O=C(OCC)C(=O)C1=CNC=2C=CC=CC21",
        "Molecular Formula": "C<sub>12</sub>H<sub>11</sub>NO<sub>3</sub>",
        "Molecular Mass": "217.22",
        "Melting Point": "185-186 °C"
    }
}