{
    "cas_no": "34246-54-3",
    "key_name": "3-Ethylbenzaldehyde",
    "cn_name": "3-乙基苯甲醛;间乙基苯甲醛;",
    "alternate_name": "Benzaldehyde, 3-ethyl-;Benzaldehyde, <em>m</em>-ethyl-;3-Ethylbenzaldehyde;<em>m</em>-Ethylbenzaldehyde",
    "duplicated_cas_no": "",
    "SMILES": "C(C)C1=CC(C=O)=CC=C1",
    "meta_data": {
        "InChI": "InChI=1S/C9H10O/c1-2-8-4-3-5-9(6-8)7-10/h3-7H,2H2,1H3",
        "InChIKey": null,
        "Canonical SMILES": "O=CC1=CC=CC(=C1)CC",
        "Molecular Formula": "C<sub>9</sub>H<sub>10</sub>O",
        "Molecular Mass": "134.18",
        "Boiling Point": "73 °C @ Press: 5.5 Torr"
    }
}