{
    "cas_no": "150-05-0",
    "key_name": "(+)-Epinephrine",
    "cn_name": "D-肾上腺素;D-肾上腺素;D-副肾碱;",
    "alternate_name": "1,2-Benzenediol, 4-[(1<em>S</em>)-1-hydroxy-2-(methylamino)ethyl]-;Benzyl alcohol, 3,4-dihydroxy-α-[(methylamino)methyl]-, (+)-;1,2-Benzenediol, 4-[1-hydroxy-2-(methylamino)ethyl]-, (<em>S</em>)-;4-[(1<em>S</em>)-1-Hydroxy-2-(methylamino)ethyl]-1,2-benzenediol;<em>d</em>-Adrenaline;(+)-Adrenaline;(+)-1-(3,4-Dihydroxyphenyl)-2-methylaminoethanol;(+)-Epinephrine;(<em>S</em>)-Epinephrine;<span class=\"text-smallcaps\">D</span>-Adrenaline;<span class=\"text-smallcaps\">D</span>-Epinephrine;(<em>S</em>)-Adrenaline;<em>d</em>-Epinephrine;(+)-(<em>S</em>)-Epinephrine;<span class=\"text-smallcaps\">D</span>(+)-Adrenaline;(<em>S</em>)-4-[1-Hydroxy-2-(methylamino)ethyl]pyrocatechol",
    "duplicated_cas_no": "",
    "SMILES": "[C@H](CNC)(O)C1=CC(O)=C(O)C=C1",
    "meta_data": {
        "InChI": "InChI=1S/C9H13NO3/c1-10-5-9(13)6-2-3-7(11)8(12)4-6/h2-4,9-13H,5H2,1H3/t9-/m1/s1",
        "InChIKey": null,
        "Canonical SMILES": "OC1=CC=C(C=C1O)C(O)CNC",
        "Molecular Formula": "C<sub>9</sub>H<sub>13</sub>NO<sub>3</sub>",
        "Molecular Mass": "183.20",
        "Melting Point": "213-215 °C (decomp)"
    }
}