{
    "cas_no": "6055-19-2",
    "key_name": "Cyclophosphamide monohydrate",
    "cn_name": "环磷酰胺;环磷酰胺一水物;2-[N,N-双(2-氯乙基)]-1,3,2-氧氮磷杂环己烷-2-氧化物一水合物;",
    "alternate_name": "2<em>H</em>-1,3,2-Oxazaphosphorin-2-amine, <em>N</em>,<em>N</em>-bis(2-chloroethyl)tetrahydro-, 2-oxide, hydrate (1:1);2<em>H</em>-1,3,2-Oxazaphosphorine, 2-[bis(2-chloroethyl)amino]tetrahydro-, 2-oxide, monohydrate;2<em>H</em>-1,3,2-Oxazaphosphorin-2-amine, <em>N</em>,<em>N</em>-bis(2-chloroethyl)tetrahydro-, 2-oxide, monohydrate;2-[Bis(2-chloroethyl)amino]tetrahydro-2<em>H</em>-1,3,2-oxazaphosphorine-2-oxide monohydrate;Cyclophosphamide monohydrate;Endoxan monohydrate;Cyclophosphamide hydrate",
    "duplicated_cas_no": "",
    "SMILES": "N(CCCl)(CCCl)P1(=O)NCCCO1.O",
    "meta_data": {
        "InChI": "InChI=1S/C7H15Cl2N2O2P.H2O/c8-2-5-11(6-3-9)14(12)10-4-1-7-13-14;/h1-7H2,(H,10,12);1H2",
        "InChIKey": null,
        "Canonical SMILES": "O=P1(OCCCN1)N(CCCl)CCCl.O",
        "Molecular Formula": "C<sub>7</sub>H<sub>15</sub>Cl<sub>2</sub>N<sub>2</sub>O<sub>2</sub>P.H<sub>2</sub>O",
        "Molecular Mass": "",
        "Melting Point": "41-45 °C"
    }
}