{
    "cas_no": "37318-06-2",
    "key_name": "Elaiophylin",
    "cn_name": null,
    "alternate_name": "Elaiophylin;1,9-Dioxacyclohexadecane, elaiophylin deriv.;[7<em>S</em>-[3<em>E</em>,5<em>E</em>,7<em>R</em>*,8<em>R</em>*[1<em>R</em>*,2<em>S</em>*,3<em>R</em>*(2<em>S</em>*,4<em>S</em>*,5<em>S</em>*,6<em>S</em>*)],11<em>E</em>,13<em>E</em>,15<em>R</em>*,16<em>R</em>*[1<em>R</em>*,2<em>S</em>*,3<em>R</em>*(2<em>S</em>*,4<em>S</em>*,5<em>S</em>*,6<em>S</em>*)]]]-8,16-Bis[3-[4-[(2,6-dideoxy-α-<span class=\"text-smallcaps\">L</span>-<em>lyxo</em>-hexopyranosyl)oxy]-5-ethyltetrahydro-2-hydroxy-6-methyl-2<em>H</em>-pyran-2-yl]-2-hydroxy-1-methylbutyl]-7,15-dimethyl-1,9-dioxacyclohexadeca-3,5,11,13-tetraene-2,10-dione;1,9-Dioxacyclohexadeca-3,5,11,13-tetraene-2,10-dione, 8,16-bis[3-[4-[(2,6-dideoxy-α-<span class=\"text-smallcaps\">L</span>-<em>lyxo</em>-hexopyranosyl)oxy]-5-ethyltetrahydro-2-hydroxy-6-methyl-2<em>H</em>-pyran-2-yl]-2-hydroxy-1-methylbutyl]-7,15-dimethyl-, [7<em>S</em>-[3<em>E</em>,5<em>E</em>,7<em>R</em>*,8<em>R</em>*[1<em>R</em>*,2<em>S</em>*,3<em>R</em>*(2<em>S</em>*,4<em>S</em>*,5<em>S</em>*,6<em>S</em>*)],11<em>E</em>,13<em>E</em>,15<em>R</em>*,16<em>R</em>*[1<em>R</em>*,2<em>S</em>*,3<em>R</em>*(2<em>S</em>*,4<em>S</em>*,5<em>S</em>*,6<em>S</em>*)]]]-;Antibiotic 5001B;Antibiotic 56-62;Azalomycin B;5001B;Antibiotic A 164AB;(+)-Elaiophylin;Gopalamicin;Efomycin E;Efomycine E",
    "duplicated_cas_no": "106387-86-4;11003-23-9",
    "SMILES": "",
    "meta_data": {
        "InChI": "",
        "InChIKey": null,
        "Canonical SMILES": "",
        "Molecular Formula": "C<sub>54</sub>H<sub>88</sub>O<sub>18</sub>",
        "Molecular Mass": "1025.27",
        "Melting Point": "178-183 °C (decomp)"
    }
}