{
    "cas_no": "60-00-4",
    "key_name": "Ethylenediaminetetraacetic acid",
    "cn_name": "乙二胺四乙酸;EDTA;",
    "alternate_name": "Glycine, <em>N</em>,<em>N</em>′-1,2-ethanediylbis[<em>N</em>-(carboxymethyl)-;Acetic acid, (ethylenedinitrilo)tetra-;<em>N</em>,<em>N</em>′-1,2-Ethanediylbis[<em>N</em>-(carboxymethyl)glycine];Celon A;Celon ATH;Complexon II;3,6-Diazaoctanedioic acid, 3,6-bis(carboxymethyl)-;Edathamil;Edetic acid;EDTA (chelating agent);Endrate;Ethylenediaminetetraacetic acid;Metaquest A;Nervanaid B acid;Nullapon B acid;Nullapon BF acid;Perma Kleer 50 acid;Sequestrene AA;Sequestric acid;Sequestrol;Trilon BW;Versene;Ethylenediamine-<em>N</em>,<em>N</em>,<em>N</em>′,<em>N</em>′-tetraacetic acid;Ethylenediaminetetraacetate;Acetic acid, 2,2′,2′′,2′′′-(1,2-ethanediyldinitrilo)tetrakis-;Ethylenedinitrilotetraacetic acid;Cheelox;Chemcolox 340;Titriplex;EDTA;Havidote;ICRF 185;Clewat TAA;Trilon BS;Gluma Cleanser;YD 30;Titriplex II;Chelest 3A;Dissolvine E;Quastal Special;Acroma DH 700;Techrun DO;NSC 97243;NSC 97404;Zonon AO;Dissolvine Z;Ethylene-<em>N</em>,<em>N</em>′-biscarboxymethyl-<em>N</em>,<em>N</em>′-diglycine;Sequestrene K 4;Clewat TTA;WS;WS (chelating agent);Dotite 4H;PrefGel;Dissolvine NA-X;Chelest A;2,2′,2′′,2′′′-(ethane-1,2-diylbis(azanetriyl))tetraacetic acid;Kurewat-N;Disolvin NA 2-S;PM 17;[[2-(Bis-carboxymethyl-amino)-ethyl]-carboxymethyl-amino]-acetic acid;OM 002;Ethylenediaminetetraaacetic acid;Circuposit 3350M1;2-([2-[Bis(carboxymethyl)amino]ethyl](carboxymethyl)amino)acetic acid;Chelest 110;EC;Clewat 3K;Disolvin NA 2",
    "duplicated_cas_no": "13440-78-3;20539-27-9;26627-46-3;30485-87-1;30485-88-2;30485-90-6;32757-10-1;94108-75-5;161122-33-4;402925-67-1;675141-16-9;1586747-13-8;1799367-75-1;2024587-69-5",
    "SMILES": "N(CCN(CC(O)=O)CC(O)=O)(CC(O)=O)CC(O)=O",
    "meta_data": {
        "InChI": "InChI=1S/C10H16N2O8/c13-7(14)3-11(4-8(15)16)1-2-12(5-9(17)18)6-10(19)20/h1-6H2,(H,13,14)(H,15,16)(H,17,18)(H,19,20)",
        "InChIKey": null,
        "Canonical SMILES": "O=C(O)CN(CC(=O)O)CCN(CC(=O)O)CC(=O)O",
        "Molecular Formula": "C<sub>10</sub>H<sub>16</sub>N<sub>2</sub>O<sub>8</sub>",
        "Molecular Mass": "292.24",
        "Melting Point": "245 °C",
        "Density": "0.086 g/cm³"
    }
}