{
    "cas_no": "150-75-4",
    "key_name": "<em>N</em>-Methyl-<em>p</em>-aminophenol",
    "cn_name": "对甲氨基酚;对甲氨基酚;P-甲氨基苯酚;",
    "alternate_name": "Phenol, 4-(methylamino)-;Phenol, <em>p</em>-(methylamino)-;4-(Methylamino)phenol;<em>p</em>-(Methylamino)phenol;<em>N</em>-Methyl-<em>p</em>-aminophenol;<em>N</em>-Methyl-4-aminophenol;<em>p</em>-Hydroxy-<em>N</em>-methylaniline;<em>N</em>-Methyl-<em>p</em>-hydroxyaniline;<em>N</em>-Methyl-4-hydroxyaniline;4-Hydroxy-<em>N</em>-methylaniline;NSC 7311",
    "duplicated_cas_no": "",
    "SMILES": "N(C)C1=CC=C(O)C=C1",
    "meta_data": {
        "InChI": "InChI=1S/C7H9NO/c1-8-6-2-4-7(9)5-3-6/h2-5,8-9H,1H3",
        "InChIKey": null,
        "Canonical SMILES": "OC1=CC=C(C=C1)NC",
        "Molecular Formula": "C<sub>7</sub>H<sub>9</sub>NO",
        "Molecular Mass": "123.15",
        "Melting Point": "87 °C"
    }
}