{
    "cas_no": "22812-90-4",
    "key_name": "2-(Propylthio)ethanol",
    "cn_name": "2-羟基乙基正丙基硫醚;",
    "alternate_name": "Ethanol, 2-(propylthio)-;2-(Propylthio)ethanol;2-Hydroxyethyl propyl sulfide;NSC 84225;2-(Propylsulfanyl)ethan-1-ol;2-Propylsulfanylethanol",
    "duplicated_cas_no": "",
    "SMILES": "S(CCC)CCO",
    "meta_data": {
        "InChI": "InChI=1S/C5H12OS/c1-2-4-7-5-3-6/h6H,2-5H2,1H3",
        "InChIKey": null,
        "Canonical SMILES": "OCCSCCC",
        "Molecular Formula": "C<sub>5</sub>H<sub>12</sub>OS",
        "Molecular Mass": "120.21",
        "Boiling Point": "95 °C @ Press: 15 Torr",
        "Density": "0.9855 g/cm³ @ Temp: 20 °C"
    }
}