{
    "cas_no": "886-50-0",
    "key_name": "Terbutryn",
    "cn_name": "特丁净;2-甲硫基-4-乙氨基-6-特丁氨基-1,3,5-三嗪;",
    "alternate_name": "1,3,5-Triazine-2,4-diamine, <em>N</em><sup>2</sup>-(1,1-dimethylethyl)-<em>N</em><sup>4</sup>-ethyl-6-(methylthio)-;<em>s</em>-Triazine, 2-(<em>tert</em>-butylamino)-4-(ethylamino)-6-(methylthio)-;1,3,5-Triazine-2,4-diamine, <em>N</em>-(1,1-dimethylethyl)-<em>N</em>′-ethyl-6-(methylthio)-;<em>N</em><sup>2</sup>-(1,1-Dimethylethyl)-<em>N</em><sup>4</sup>-ethyl-6-(methylthio)-1,3,5-triazine-2,4-diamine;GS 14260;2-<em>tert</em>-Butylamino-4-ethylamino-6-methylthio-<em>s</em>-triazine;4-Ethylamino-2-methylthio-6-<em>tert</em>-butylamino-1,3,5-triazine;6-<em>tert</em>-Butylamino-4-ethylamino-2-methylthio-1,3,5-triazine;Igran 500;Igran 50;2-Methylthio-4-ethylamino-6-<em>tert</em>-butylamino-<em>s</em>-triazine;Terbutryne;Terbutryn;A 1866;2-Ethylamino-4-methylthio-6-<em>tert</em>-butylamino-1,3,5-triazine;Igran;2-Methylmercapto-4-ethylamino-6-<em>tert</em>-butylamino-1,3,5-triazine;Clarosan;Terbutrex;Saterb;<em>tert</em>-Butryn;2-Methylthio-4-<em>tert</em>-butylamino-6-ethylamino-<em>s</em>-triazine;Prebane",
    "duplicated_cas_no": "",
    "SMILES": "N(C(C)(C)C)C=1N=C(NCC)N=C(SC)N1",
    "meta_data": {
        "InChI": "InChI=1S/C10H19N5S/c1-6-11-7-12-8(15-10(2,3)4)14-9(13-7)16-5/h6H2,1-5H3,(H2,11,12,13,14,15)",
        "InChIKey": null,
        "Canonical SMILES": "N=1C(=NC(=NC1NCC)NC(C)(C)C)SC",
        "Molecular Formula": "C<sub>10</sub>H<sub>19</sub>N<sub>5</sub>S",
        "Molecular Mass": "241.36",
        "Boiling Point": "154-160 °C @ Press: 0.06 Torr",
        "Melting Point": "104 °C"
    }
}