{
    "cas_no": "592-65-4",
    "key_name": "1,1′-Thiobis[2-methylpropane]",
    "cn_name": "异丁基硫醚;",
    "alternate_name": "Propane, 1,1′-thiobis[2-methyl-;Isobutyl sulfide;1,1′-Thiobis[2-methylpropane];Diisobutyl sulfide;Di(2-methylpropyl) sulfide;NSC 8461;2-Methyl-1-(2-methylpropylsulfanyl)propane;2-Methyl-1-[(2-methylpropyl)sulfanyl]propane",
    "duplicated_cas_no": "",
    "SMILES": "S(CC(C)C)CC(C)C",
    "meta_data": {
        "InChI": "InChI=1S/C8H18S/c1-7(2)5-9-6-8(3)4/h7-8H,5-6H2,1-4H3",
        "InChIKey": null,
        "Canonical SMILES": "S(CC(C)C)CC(C)C",
        "Molecular Formula": "C<sub>8</sub>H<sub>18</sub>S",
        "Molecular Mass": "146.29",
        "Boiling Point": "171 °C",
        "Melting Point": "-105.5 °C",
        "Density": "0.8232 g/cm³ @ Temp: 25 °C"
    }
}