{
    "cas_no": "57267-78-4",
    "key_name": "Ammonium isethionate",
    "cn_name": "羟乙基磺酸铵盐;",
    "alternate_name": "Ethanesulfonic acid, 2-hydroxy-, ammonium salt (1:1);Ethanesulfonic acid, 2-hydroxy-, monoammonium salt;Ammonium isethionate",
    "duplicated_cas_no": "2603258-51-9",
    "SMILES": "C(S(=O)(=O)O)CO.N",
    "meta_data": {
        "InChI": "InChI=1S/C2H6O4S.H3N/c3-1-2-7(4,5)6;/h3H,1-2H2,(H,4,5,6);1H3",
        "InChIKey": null,
        "Canonical SMILES": "O=S(=O)(O)CCO.N",
        "Molecular Formula": "C<sub>2</sub>H<sub>6</sub>O<sub>4</sub>S.H<sub>3</sub>N",
        "Molecular Mass": "",
        "Melting Point": "137-138 °C"
    }
}