{
    "cas_no": "5627-00-9",
    "key_name": "5,6-Dihydrothymidine",
    "cn_name": null,
    "alternate_name": "Thymidine, 5,6-dihydro-;Hydrouracil, 1-(2-deoxy-β-<span class=\"text-smallcaps\">D</span>-<em>erythro</em>-pentofuranosyl)-5-methyl-;Hydrouracil, 1-(2-deoxy-β-<span class=\"text-smallcaps\">D</span>-ribofuranosyl)-5-methyl-;5,6-Dihydrothymidine;Dihydrothymidine;2,4(1<em>H</em>,3<em>H</em>)-Pyrimidinedione, 1-(2-deoxy-β-<span class=\"text-smallcaps\">D</span>-<em>erythro</em>-pentofuranosyl)dihydro-5-methyl-;1-[4-Hydroxy-5-(hydroxymethyl)oxolan-2-yl]-5-methyl-1,3,5,6-tetrahydropyrimidine-2,4-dione",
    "duplicated_cas_no": "1294487-24-3",
    "SMILES": "O=C1N([C@@H]2O[C@H](CO)[C@@H](O)C2)CC(C)C(=O)N1",
    "meta_data": {
        "InChI": "InChI=1S/C10H16N2O5/c1-5-3-12(10(16)11-9(5)15)8-2-6(14)7(4-13)17-8/h5-8,13-14H,2-4H2,1H3,(H,11,15,16)/t5?,6-,7+,8+/m0/s1",
        "InChIKey": null,
        "Canonical SMILES": "O=C1NC(=O)C(C)CN1C2OC(CO)C(O)C2",
        "Molecular Formula": "C<sub>10</sub>H<sub>16</sub>N<sub>2</sub>O<sub>5</sub>",
        "Molecular Mass": "244.24",
        "Melting Point": "152-153 °C (decomp)"
    }
}