{
    "cas_no": "52793-11-0",
    "key_name": "<em>N</em>-(5-Chloro-2-methoxyphenyl)-3-oxobutanamide",
    "cn_name": "乙酰乙酰-2-甲氧基-5-氯苯胺;乙酰乙酰-5-氯-2-甲氧基苯胺;",
    "alternate_name": "Butanamide, <em>N</em>-(5-chloro-2-methoxyphenyl)-3-oxo-;<em>o</em>-Acetoacetanisidide, 5′-chloro-;<em>N</em>-(5-Chloro-2-methoxyphenyl)-3-oxobutanamide;2-Methoxy-5-chloroacetoacetanilide;NSC 165882;5-Chloro-2-methoxyacetoacetanilide",
    "duplicated_cas_no": "",
    "SMILES": "N(C(CC(C)=O)=O)C1=C(OC)C=CC(Cl)=C1",
    "meta_data": {
        "InChI": "InChI=1S/C11H12ClNO3/c1-7(14)5-11(15)13-9-6-8(12)3-4-10(9)16-2/h3-4,6H,5H2,1-2H3,(H,13,15)",
        "InChIKey": null,
        "Canonical SMILES": "O=C(NC1=CC(Cl)=CC=C1OC)CC(=O)C",
        "Molecular Formula": "C<sub>11</sub>H<sub>12</sub>ClNO<sub>3</sub>",
        "Molecular Mass": "241.67",
        "Melting Point": "92 °C"
    }
}