{
    "cas_no": "6590-95-0",
    "key_name": "2,6-Dichlorophenyl isothiocyanate",
    "cn_name": "2,6-二氯异硫氰酸苯酯;",
    "alternate_name": "Benzene, 1,3-dichloro-2-isothiocyanato-;Isothiocyanic acid, 2,6-dichlorophenyl ester;1,3-Dichloro-2-isothiocyanatobenzene;2,6-Dichlorophenyl isothiocyanate",
    "duplicated_cas_no": "",
    "SMILES": "N(=C=S)C1=C(Cl)C=CC=C1Cl",
    "meta_data": {
        "InChI": "InChI=1S/C7H3Cl2NS/c8-5-2-1-3-6(9)7(5)10-4-11/h1-3H",
        "InChIKey": null,
        "Canonical SMILES": "S=C=NC=1C(Cl)=CC=CC1Cl",
        "Molecular Formula": "C<sub>7</sub>H<sub>3</sub>Cl<sub>2</sub>NS",
        "Molecular Mass": "204.08",
        "Boiling Point": "128-133 °C @ Press: 2 Torr",
        "Melting Point": "42-43 °C"
    }
}