{
    "cas_no": "15948-19-3",
    "key_name": "1,3-Dichloro-1,3-diethenyl-1,3-dimethyldisiloxane",
    "cn_name": null,
    "alternate_name": "Disiloxane, 1,3-dichloro-1,3-diethenyl-1,3-dimethyl-;Disiloxane, 1,3-dichloro-1,3-dimethyl-1,3-divinyl-;1,3-Dichloro-1,3-diethenyl-1,3-dimethyldisiloxane;1,3-Dichloro-1,3-dimethyl-1,3-divinyldisiloxane;1,3-Divinyl-1,3-dimethyl-1,3-dichlorodisiloxane",
    "duplicated_cas_no": "",
    "SMILES": "O([Si](C=C)(C)Cl)[Si](C=C)(C)Cl",
    "meta_data": {
        "InChI": "InChI=1S/C6H12Cl2OSi2/c1-5-10(3,7)9-11(4,8)6-2/h5-6H,1-2H2,3-4H3",
        "InChIKey": null,
        "Canonical SMILES": "Cl[Si](O[Si](Cl)(C=C)C)(C=C)C",
        "Molecular Formula": "C<sub>6</sub>H<sub>12</sub>Cl<sub>2</sub>OSi<sub>2</sub>",
        "Molecular Mass": "227.24",
        "Boiling Point": "67 °C @ Press: 16 Torr",
        "Density": "0.8517 g/cm³ @ Temp: 20 °C"
    }
}