{
    "cas_no": "3413-28-3",
    "key_name": "4-(4-Fluorophenoxy)piperidine",
    "cn_name": null,
    "alternate_name": "Piperidine, 4-(4-fluorophenoxy)-;Piperidine, 4-(<em>p</em>-fluorophenoxy)-;4-(4-Fluorophenoxy)piperidine;4-(<em>p</em>-Fluorophenoxy)piperidine",
    "duplicated_cas_no": "",
    "SMILES": "O(C1=CC=C(F)C=C1)C2CCNCC2",
    "meta_data": {
        "InChI": "InChI=1S/C11H14FNO/c12-9-1-3-10(4-2-9)14-11-5-7-13-8-6-11/h1-4,11,13H,5-8H2",
        "InChIKey": null,
        "Canonical SMILES": "FC1=CC=C(OC2CCNCC2)C=C1",
        "Molecular Formula": "C<sub>11</sub>H<sub>14</sub>FNO",
        "Molecular Mass": "195.23",
        "Boiling Point": "83-85 °C @ Press: 0.3 Torr"
    }
}