{
    "cas_no": "655-32-3",
    "key_name": "2,2,2-Trifluoro-1-(4-fluorophenyl)ethanone",
    "cn_name": "4-氟-α,α,α-三氟苯乙酮;2,2,2,4-四氟苯乙酮;",
    "alternate_name": "Ethanone, 2,2,2-trifluoro-1-(4-fluorophenyl)-;Acetophenone, 2,2,2,4′-tetrafluoro-;2,2,2-Trifluoro-1-(4-fluorophenyl)ethanone;<em>p</em>,α,α,α-Tetrafluoroacetophenone;2,2,2,4′-Tetrafluoroacetophenone;<em>p</em>-Fluoro-α,α,α-trifluoroacetophenone;Trifluoromethyl <em>p</em>-fluorophenyl ketone;<em>p</em>-Fluorophenyl trifluoromethyl ketone;NSC 158171;4-Fluorophenyl trifluoromethyl ketone;1-(4-Fluorophenyl)-2,2,2-trifluoroethanone;α,α,α,<em>p</em>-Tetrafluoroacetophenone;α,α,α,4-Tetrafluoroacetophenone;1-(4-Fluorophenyl)-2,2,2-trifluoroethan-1-one;2,2,2-Trifluoro-1-(4-fluorophenyl)ethan-1-one",
    "duplicated_cas_no": "",
    "SMILES": "C(C(F)(F)F)(=O)C1=CC=C(F)C=C1",
    "meta_data": {
        "InChI": "InChI=1S/C8H4F4O/c9-6-3-1-5(2-4-6)7(13)8(10,11)12/h1-4H",
        "InChIKey": null,
        "Canonical SMILES": "O=C(C1=CC=C(F)C=C1)C(F)(F)F",
        "Molecular Formula": "C<sub>8</sub>H<sub>4</sub>F<sub>4</sub>O",
        "Molecular Mass": "192.11",
        "Boiling Point": "39-40 °C @ Press: 7 Torr",
        "Melting Point": "27-29 °C"
    }
}