{
    "cas_no": "30291-41-9",
    "key_name": "4-Methyl-2,5-oxazolidinedione",
    "cn_name": null,
    "alternate_name": "2,5-Oxazolidinedione, 4-methyl-;4-Methyl-2,5-oxazolidinedione;Alanine, <em>N</em>-carboxy-, cyclic anhydride;<span class=\"text-smallcaps\">DL</span>-4-Methyl-2,5-oxazolidinedione;<em>N</em>-Carboxy-<span class=\"text-smallcaps\">DL</span>-alanine anhydride;(±)-4-Methyl-2,5-oxazolidinedione;<span class=\"text-smallcaps\">DL</span>-Alanine-<em>N</em>-carboxy anhydride;<span class=\"text-smallcaps\">DL</span>-Alanine-<em>N</em>-carboxylic anhydride;<em>N</em>-Carboxy-<span class=\"text-smallcaps\">DL</span>-alanine <em>N</em>-carboxy anhydride",
    "duplicated_cas_no": "1192-73-0;2188-08-1",
    "SMILES": "CC1C(=O)OC(=O)N1",
    "meta_data": {
        "InChI": "InChI=1S/C4H5NO3/c1-2-3(6)8-4(7)5-2/h2H,1H3,(H,5,7)",
        "InChIKey": null,
        "Canonical SMILES": "O=C1OC(=O)C(N1)C",
        "Molecular Formula": "C<sub>4</sub>H<sub>5</sub>NO<sub>3</sub>",
        "Molecular Mass": "115.09",
        "Melting Point": "50.0 °C"
    }
}