{
    "cas_no": "4704-94-3",
    "key_name": "2-(Hydroxymethyl)-1,3-propanediol",
    "cn_name": "2-羟甲基-1,3-丙二醇;",
    "alternate_name": "1,3-Propanediol, 2-(hydroxymethyl)-;2-(Hydroxymethyl)-1,3-propanediol;Tris(hydroxymethyl)methane;Trimethylolmethane",
    "duplicated_cas_no": "",
    "SMILES": "C(CO)(CO)CO",
    "meta_data": {
        "InChI": "InChI=1S/C4H10O3/c5-1-4(2-6)3-7/h4-7H,1-3H2",
        "InChIKey": null,
        "Canonical SMILES": "OCC(CO)CO",
        "Molecular Formula": "C<sub>4</sub>H<sub>10</sub>O<sub>3</sub>",
        "Molecular Mass": "106.12",
        "Boiling Point": "158 °C @ Press: 1.5 Torr",
        "Melting Point": "182 °C"
    }
}