{
    "cas_no": "421-49-8",
    "key_name": "1,1,1-Trifluoro-2-propanamine",
    "cn_name": null,
    "alternate_name": "2-Propanamine, 1,1,1-trifluoro-;Ethylamine, 2,2,2-trifluoro-1-methyl-;1,1,1-Trifluoro-2-propanamine;2,2,2-Trifluoro-1-methylethylamine;1,1,1-Trifluoroprop-2-ylamine;1,1,1-Trifluoro-2-aminopropane;2-Amino-1,1,1-trifluoropropane",
    "duplicated_cas_no": "75702-94-2",
    "SMILES": "C(C(C)N)(F)(F)F",
    "meta_data": {
        "InChI": "InChI=1S/C3H6F3N/c1-2(7)3(4,5)6/h2H,7H2,1H3",
        "InChIKey": null,
        "Canonical SMILES": "FC(F)(F)C(N)C",
        "Molecular Formula": "C<sub>3</sub>H<sub>6</sub>F<sub>3</sub>N",
        "Molecular Mass": "113.08",
        "Boiling Point": "46-47 °C"
    }
}