{
    "cas_no": "2408-70-0",
    "key_name": "2,4,6-Tribromopyridine",
    "cn_name": null,
    "alternate_name": "Pyridine, 2,4,6-tribromo-;2,4,6-Tribromopyridine",
    "duplicated_cas_no": "",
    "SMILES": "BrC=1C=C(Br)N=C(Br)C1",
    "meta_data": {
        "InChI": "InChI=1S/C5H2Br3N/c6-3-1-4(7)9-5(8)2-3/h1-2H",
        "InChIKey": null,
        "Canonical SMILES": "BrC=1N=C(Br)C=C(Br)C1",
        "Molecular Formula": "C<sub>5</sub>H<sub>2</sub>Br<sub>3</sub>N",
        "Molecular Mass": "315.79",
        "Melting Point": "107 °C"
    }
}