{
    "cas_no": "929-75-9",
    "key_name": "1,11-Diamino-3,6,9-trioxaundecane",
    "cn_name": "1,11-二氨基-3,6,9-三氧杂十一烷; 3,6,9-三氧杂十一烷-1,11-二胺;",
    "alternate_name": "Ethanamine, 2,2′-[oxybis(2,1-ethanediyloxy)]bis-;Ethylamine, 2,2′-[oxybis(ethyleneoxy)]bis-;2,2′-[Oxybis(2,1-ethanediyloxy)]bis[ethanamine];Tetraethylene glycol diamine;1,11-Diamino-3,6,9-trioxaundecane;3,6,9-Trioxaundecane-1,11-diamine;Jeffamine EDR 192;Bis[2-(2-aminoethoxy)ethyl] ether;EDR 192;1,11-Diamine-3,6,9-trioxaundecane;2,2′-[[Oxybis(ethane-2,1-diyl)]bis(oxy)]diethanamine;2-[2-[2-(2-Aminoethoxy)ethoxy]ethoxy]ethanamine;2,2′-[Oxybis(2,1-ethanediyloxy)]diethanamine;2-[2-[2-[2-Aminoethoxy]ethoxy]ethoxy]ethylamine",
    "duplicated_cas_no": "79687-29-9",
    "SMILES": "O(CCOCCN)CCOCCN",
    "meta_data": {
        "InChI": "InChI=1S/C8H20N2O3/c9-1-3-11-5-7-13-8-6-12-4-2-10/h1-10H2",
        "InChIKey": null,
        "Canonical SMILES": "O(CCOCCN)CCOCCN",
        "Molecular Formula": "C<sub>8</sub>H<sub>20</sub>N<sub>2</sub>O<sub>3</sub>",
        "Molecular Mass": "192.26",
        "Boiling Point": "124-127 °C @ Press: 1.7 Torr",
        "Density": "1.2892 g/cm³ @ Temp: 20 °C"
    }
}