{
    "cas_no": "4403-61-6",
    "key_name": "2-Methyl-2-butenenitrile",
    "cn_name": null,
    "alternate_name": "2-Butenenitrile, 2-methyl-;Crotononitrile, 2-methyl-;2-Methyl-2-butenenitrile;α,β-Dimethylacrylonitrile;α-Methylcrotononitrile;2-Methylcrotononitrile;2-Cyano-2-butene;NSC 44233;2-Methyl-2-butennitrile",
    "duplicated_cas_no": "",
    "SMILES": "C(=CC)(C#N)C",
    "meta_data": {
        "InChI": "InChI=1S/C5H7N/c1-3-5(2)4-6/h3H,1-2H3",
        "InChIKey": null,
        "Canonical SMILES": "N#CC(=CC)C",
        "Molecular Formula": "C<sub>5</sub>H<sub>7</sub>N",
        "Molecular Mass": "81.12",
        "Boiling Point": "122 °C"
    }
}