{
    "cas_no": "7681-49-4",
    "key_name": "Sodium fluoride",
    "cn_name": "氟化钠;",
    "alternate_name": "Sodium fluoride (NaF);Sodium fluoride;FDA 0101;Floridine;Florocid;T-Fluoride;Flura Drops;Flursol;Karidium;Pergantene;Sodium monofluoride;Fungol B;Antibulit;Fluorol;Zymafluor;Ossin;Fluoraday;Thera Flur;Act;Fluorigard;Duraphat;Fludent;Osteofluor;Flurexal;Prodent;Sodium monofluoride (NaF);Prevident;Karigel N;Fluorzoin;Neosten;Miranol;Ora-Bliss;Act (mouthwash);Prevident 5000 Plus;Winterfresh Gel;Neutra-Care;Ossalin;Chemifluor;Osteoflur;Dentalfluoro;Luride SF;Osteo F;Minute-Gel;Pediaflor;Lemoflur;Florinse;Slow-Fluoride;Fuoros;NSC 77385;Apoflux;Fluossen;Duofluorid F;Flor-Opal;Wako 194-01971;Fluocal;Duofluorid;Flutop Gel;RKX 32;DuraShield;MeSH ID: D012969",
    "duplicated_cas_no": "39287-69-9;59217-75-3;67112-29-2;2018280-11-8",
    "SMILES": "F[Na]",
    "meta_data": {
        "InChI": "InChI=1S/FH.Na/h1H;/q;+1/p-1",
        "InChIKey": null,
        "Canonical SMILES": "F[Na]",
        "Molecular Formula": "FNa",
        "Molecular Mass": "",
        "Boiling Point": "1704 °C",
        "Melting Point": "993 °C",
        "Density": "2.78 g/cm³"
    }
}