{
    "cas_no": "1823-14-9",
    "key_name": "5-Phenyl-1-pentyne",
    "cn_name": null,
    "alternate_name": "Benzene, 4-pentyn-1-yl-;1-Pentyne, 5-phenyl-;Benzene, 4-pentynyl-;4-Pentyn-1-ylbenzene;5-Phenyl-1-pentyne;1-Phenyl-4-pentyne;NSC 102794;4-Pentynylbenzene",
    "duplicated_cas_no": "",
    "SMILES": "C(CCC#C)C1=CC=CC=C1",
    "meta_data": {
        "InChI": "InChI=1S/C11H12/c1-2-3-5-8-11-9-6-4-7-10-11/h1,4,6-7,9-10H,3,5,8H2",
        "InChIKey": null,
        "Canonical SMILES": "C#CCCCC=1C=CC=CC1",
        "Molecular Formula": "C<sub>11</sub>H<sub>12</sub>",
        "Molecular Mass": "144.21",
        "Boiling Point": "94 °C @ Press: 50 Torr",
        "Melting Point": "103-106 °C"
    }
}