{
    "cas_no": "3658-77-3",
    "key_name": "Furaneol",
    "cn_name": "4-羟基-2,5-二甲基-3(2H)呋喃酮;",
    "alternate_name": "3(2<em>H</em>)-Furanone, 4-hydroxy-2,5-dimethyl-;4-Hydroxy-2,5-dimethyl-3(2<em>H</em>)-furanone;2,5-Dimethyl-4-hydroxy-3(2<em>H</em>)-furanone;2,5-Dimethyl-4-hydroxy-2,3-dihydrofuran-3-one;4-Hydroxy-2,5-dimethyl-2<em>H</em>-furan-3-one;2,5-Dimethyl-4,5-dihydrofuran-3-ol-4-one;4-Hydroxy-2,5-dimethyl-2,3-dihydrofuran-3-one;Furaneol;2,5-Dimethyl-3-hydroxy-4-oxo-4,5-dihydrofuran;Alletone;Pineapple ketone;4-Hydroxy-2,5-Dimethyl-3-oxo-2,3-dihydrofuran;4-Hydroxy-2,5-dimethyl-3-furanone;2,5-Dimethyl-4-hydroxy-3-oxo-(2<em>H</em>)-furan",
    "duplicated_cas_no": "",
    "SMILES": "O=C1C(O)=C(C)OC1C",
    "meta_data": {
        "InChI": "InChI=1S/C6H8O3/c1-3-5(7)6(8)4(2)9-3/h3,8H,1-2H3",
        "InChIKey": null,
        "Canonical SMILES": "O=C1C(O)=C(OC1C)C",
        "Molecular Formula": "C<sub>6</sub>H<sub>8</sub>O<sub>3</sub>",
        "Molecular Mass": "128.13",
        "Melting Point": "70 °C"
    }
}