{
    "cas_no": "7795-87-1",
    "key_name": "Phosphoric acid, didecyl ester",
    "cn_name": null,
    "alternate_name": "Phosphoric acid, didecyl ester;Decyl phosphate ((C<sub>10</sub>H<sub>21</sub>O)<sub>2</sub>(HO)PO);Didecyl phosphate;Didecyl hydrogen phosphate;Didecyl orthophosphate;Di(decyl)monohydrogenphosphate;NSC 309954",
    "duplicated_cas_no": "97539-81-6",
    "SMILES": "P(OCCCCCCCCCC)(OCCCCCCCCCC)(=O)O",
    "meta_data": {
        "InChI": "InChI=1S/C20H43O4P/c1-3-5-7-9-11-13-15-17-19-23-25(21,22)24-20-18-16-14-12-10-8-6-4-2/h3-20H2,1-2H3,(H,21,22)",
        "InChIKey": null,
        "Canonical SMILES": "O=P(O)(OCCCCCCCCCC)OCCCCCCCCCC",
        "Molecular Formula": "C<sub>20</sub>H<sub>43</sub>O<sub>4</sub>P",
        "Molecular Mass": "378.53",
        "Melting Point": "46-47 °C"
    }
}