{
    "cas_no": "22591-21-5",
    "key_name": "1,1-Dichloro-3,3-dimethyl-2-butanone",
    "cn_name": "二氯频呐酮;1,1-二氯-3,3-二甲基-丁-2-酮;",
    "alternate_name": "2-Butanone, 1,1-dichloro-3,3-dimethyl-;1,1-Dichloro-3,3-dimethyl-2-butanone;Dichloromethyl <em>tert</em>-butyl ketone;α,α-Dichloropinacolin;1,1-Dichloropinacolone",
    "duplicated_cas_no": "",
    "SMILES": "C(C(C)(C)C)(C(Cl)Cl)=O",
    "meta_data": {
        "InChI": "InChI=1S/C6H10Cl2O/c1-6(2,3)4(9)5(7)8/h5H,1-3H3",
        "InChIKey": null,
        "Canonical SMILES": "O=C(C(Cl)Cl)C(C)(C)C",
        "Molecular Formula": "C<sub>6</sub>H<sub>10</sub>Cl<sub>2</sub>O",
        "Molecular Mass": "169.05",
        "Boiling Point": "79-84 °C @ Press: 15 Torr",
        "Melting Point": "50-51 °C"
    }
}