{
    "cas_no": "26116-56-3",
    "key_name": "Erythromycylamine",
    "cn_name": null,
    "alternate_name": "Erythromycin, 9-amino-9-deoxo-, (9<em>S</em>)-;Erythromycin, 9-amino-9-deoxo-, stereoisomer;Oxacyclotetradecane, erythromycin deriv.;(9<em>S</em>)-9-Amino-9-deoxoerythromycin;Erythromycylamine;9(<em>S</em>)-Erythromycylamine;(9<em>S</em>)-Erythromycylamine A;(9<em>S</em>)-9-Deoxy-9-aminoerythromycin A;LY 024410;BRL 42852ER",
    "duplicated_cas_no": "156949-27-8;1071126-15-2;1071149-61-5;1071169-67-9;1071218-10-4",
    "SMILES": "O([C@@H]1[C@@H](C)[C@H](O[C@H]2C[C@](OC)(C)[C@@H](O)[C@H](C)O2)[C@@H](C)C(=O)O[C@H](CC)[C@@](C)(O)[C@H](O)[C@@H](C)[C@@H](N)[C@H](C)C[C@@]1(C)O)[C@H]3[C@H](O)[C@@H](N(C)C)C[C@@H](C)O3",
    "meta_data": {
        "InChI": "InChI=1S/C37H70N2O12/c1-14-25-37(10,45)30(41)20(4)27(38)18(2)16-35(8,44)32(51-34-28(40)24(39(11)12)15-19(3)47-34)21(5)29(22(6)33(43)49-25)50-26-17-36(9,46-13)31(42)23(7)48-26/h18-32,34,40-42,44-45H,14-17,38H2,1-13H3/t18-,19-,20+,21+,22-,23+,24+,25-,26+,27+,28-,29+,30-,31+,32-,34+,35-,36-,37-/m1/s1",
        "InChIKey": null,
        "Canonical SMILES": "O=C1OC(CC)C(O)(C)C(O)C(C)C(N)C(C)CC(O)(C)C(OC2OC(C)CC(N(C)C)C2O)C(C)C(OC3OC(C)C(O)C(OC)(C)C3)C1C",
        "Molecular Formula": "C<sub>37</sub>H<sub>70</sub>N<sub>2</sub>O<sub>12</sub>",
        "Molecular Mass": "734.96",
        "Melting Point": "114-116 °C"
    }
}