{
    "cas_no": "353-83-3",
    "key_name": "1,1,1-Trifluoro-2-iodoethane",
    "cn_name": "2-碘-1,1,1-三氟乙烷;2,2,2-三氟碘乙烷;",
    "alternate_name": "Ethane, 1,1,1-trifluoro-2-iodo-;1,1,1-Trifluoro-2-iodoethane;2,2,2-Trifluoroethyl iodide;1-Iodo-2,2,2-trifluoroethane;2,2,2-Trifluoro-1-iodoethane;2-Iodo-1,1,1-trifluoroethane;2,2,2-Trifluoroiodoethane",
    "duplicated_cas_no": "",
    "SMILES": "C(CI)(F)(F)F",
    "meta_data": {
        "InChI": "InChI=1S/C2H2F3I/c3-2(4,5)1-6/h1H2",
        "InChIKey": null,
        "Canonical SMILES": "FC(F)(F)CI",
        "Molecular Formula": "C<sub>2</sub>H<sub>2</sub>F<sub>3</sub>I",
        "Molecular Mass": "209.94",
        "Boiling Point": "54.5 °C",
        "Density": "1.989 g/cm³ @ Temp: 23 °C"
    }
}