{
    "cas_no": "40220-08-4",
    "key_name": "Tris(2-hydroxyethyl) isocyanurate triacrylate",
    "cn_name": null,
    "alternate_name": "2-Propenoic acid, 1,1′,1′′-[(2,4,6-trioxo-1,3,5-triazine-1,3,5(2<em>H</em>,4<em>H</em>,6<em>H</em>)-triyl)tri-2,1-ethanediyl] ester;2-Propenoic acid, (2,4,6-trioxo-1,3,5-triazine-1,3,5(2<em>H</em>,4<em>H</em>,6<em>H</em>)-triyl)tri-2,1-ethanediyl ester;Tris[2-(acryloyloxy)ethyl] isocyanurate;Tris(2-hydroxyethyl) isocyanurate triacrylate;Tris(β-acryloyloxyethyl) isocyanurate;FA 731A;Aronix M 315;Sartomer SR 368;SR 368;Tris(2-acryloxyethyl) isocyanurate;Genomer T 930;Fancryl FA 731A;SR 360;Newfrontier TEICA;Sartomer 369;GX 8430;Tris(2-hydroxyethyl)isocyanuric acid triacrylate;Sartomer 368;Ebecryl IRR 264;THEICTA;CN 936;NK Ester A 9300;A 9300;M 315;Tris(acryloyloxyethyl) isocyanurate;Newfrontier GX 8430;Miramer M 370;M 370;A 9300S;Tri(2-hydroxyethyl)isocyanurate triacrylate;NK Ester A 9300S;EM 2308;SR 368DNS;SR 368NS;Tris hydroxyethyl isocyanurate triacrylate;Fancryl FA 331A;EM 238-1;SR 387;Accelerator 407534;Ebecryl 8602-Ebecryl LED 02-Photomer 4356-Sartomer SR 399-OPTOOL DAC-HP copolymer;Photomer 4356;EM 2380-1;AgiSyn 2851S;Komerate T 005;ICN3A",
    "duplicated_cas_no": "76364-14-2;98940-65-9;112385-00-9;115753-22-5;116107-64-3;182077-88-9;2475106-86-4;2648159-97-9;2767587-85-7",
    "SMILES": "C(COC(C=C)=O)N1C(=O)N(CCOC(C=C)=O)C(=O)N(CCOC(C=C)=O)C1=O",
    "meta_data": {
        "InChI": "InChI=1S/C18H21N3O9/c1-4-13(22)28-10-7-19-16(25)20(8-11-29-14(23)5-2)18(27)21(17(19)26)9-12-30-15(24)6-3/h4-6H,1-3,7-12H2",
        "InChIKey": null,
        "Canonical SMILES": "O=C(OCCN1C(=O)N(C(=O)N(C1=O)CCOC(=O)C=C)CCOC(=O)C=C)C=C",
        "Molecular Formula": "C<sub>18</sub>H<sub>21</sub>N<sub>3</sub>O<sub>9</sub>",
        "Molecular Mass": "423.37",
        "Melting Point": "52 °C"
    }
}