{
    "cas_no": "25340-17-4",
    "key_name": "Diethylbenzene",
    "cn_name": null,
    "alternate_name": "Benzene, diethyl-;Diethylbenzene",
    "duplicated_cas_no": "1300-82-9",
    "SMILES": "",
    "meta_data": {
        "InChI": "",
        "InChIKey": null,
        "Canonical SMILES": "",
        "Molecular Formula": "C<sub>10</sub>H<sub>14</sub>",
        "Molecular Mass": "",
        "Boiling Point": "184 °C",
        "Melting Point": "-31 °C",
        "Density": "0.86 g/cm³"
    }
}