{
    "cas_no": "903-19-5",
    "key_name": "2,5-Bis(1,1,3,3-tetramethylbutyl)-1,4-benzenediol",
    "cn_name": "2,5-二特辛基对苯二酚;2,5-二(1,1,3,3-四甲基丁基)氢醌;",
    "alternate_name": "1,4-Benzenediol, 2,5-bis(1,1,3,3-tetramethylbutyl)-;Hydroquinone, 2,5-bis(1,1,3,3-tetramethylbutyl)-;2,5-Bis(1,1,3,3-tetramethylbutyl)-1,4-benzenediol;2,5-Di-<em>tert</em>-octylhydroquinone;2,5-Bis(1,1,3,3-tetramethylbutyl)hydroquinone;88HQ;2,5-Di(1,1,3,3-tetramethylbutyl)hydroquinone;DOHQ;2,5-Bis(2,4,4-trimethylpentan-2-yl)benzene-1,4-diol",
    "duplicated_cas_no": "36311-29-2",
    "SMILES": "C(CC(C)(C)C)(C)(C)C1=C(O)C=C(C(CC(C)(C)C)(C)C)C(O)=C1",
    "meta_data": {
        "InChI": "InChI=1S/C22H38O2/c1-19(2,3)13-21(7,8)15-11-18(24)16(12-17(15)23)22(9,10)14-20(4,5)6/h11-12,23-24H,13-14H2,1-10H3",
        "InChIKey": null,
        "Canonical SMILES": "OC=1C=C(C(O)=CC1C(C)(C)CC(C)(C)C)C(C)(C)CC(C)(C)C",
        "Molecular Formula": "C<sub>22</sub>H<sub>38</sub>O<sub>2</sub>",
        "Molecular Mass": "334.54",
        "Melting Point": "128.5-129.5 °C"
    }
}