{
    "cas_no": "6953-22-6",
    "key_name": "5-(Phenylmethoxy)-1<em>H</em>-indole-3-carboxaldehyde",
    "cn_name": "5-苄氧基-3-吲哚甲醛;5-苄氧基吲哚-3-甲醛;",
    "alternate_name": "1<em>H</em>-Indole-3-carboxaldehyde, 5-(phenylmethoxy)-;Indole-3-carboxaldehyde, 5-(benzyloxy)-;5-(Phenylmethoxy)-1<em>H</em>-indole-3-carboxaldehyde;5-Benzyloxy-3-formylindole;5-Benzyloxy-3-indolecarboxaldehyde;NSC 71049;5-Benzyloxy-1<em>H</em>-indole-3-carboxaldehyde",
    "duplicated_cas_no": "",
    "SMILES": "C(=O)C=1C=2C(NC1)=CC=C(OCC3=CC=CC=C3)C2",
    "meta_data": {
        "InChI": "InChI=1S/C16H13NO2/c18-10-13-9-17-16-7-6-14(8-15(13)16)19-11-12-4-2-1-3-5-12/h1-10,17H,11H2",
        "InChIKey": null,
        "Canonical SMILES": "O=CC1=CNC=2C=CC(OCC=3C=CC=CC3)=CC12",
        "Molecular Formula": "C<sub>16</sub>H<sub>13</sub>NO<sub>2</sub>",
        "Molecular Mass": "251.28",
        "Melting Point": "240-241 °C"
    }
}