{
    "cas_no": "82248-59-7",
    "key_name": "Atomoxetine hydrochloride",
    "cn_name": null,
    "alternate_name": "Benzenepropanamine, <em>N</em>-methyl-γ-(2-methylphenoxy)-, hydrochloride (1:1), (γ<em>R</em>)-;Benzenepropanamine, <em>N</em>-methyl-γ-(2-methylphenoxy)-, hydrochloride, (<em>R</em>)-;Benzenepropanamine, <em>N</em>-methyl-γ-(2-methylphenoxy)-, hydrochloride, (γ<em>R</em>)-;LY 139603;Tomoxetine hydrochloride;(<em>R</em>)-(-)-Tomoxetine hydrochloride;(<em>R</em>)-Tomoxetine hydrochloride;Atomoxetine hydrochloride;(R)-(-)-<em>N</em>-Methyl-3-[(2-methylphenyl)oxy]-3-phenyl-1-aminopropane hydrochloride;Strattera;(<em>R</em>)-<em>N</em>-Methyl-3-(2-methylphenoxy)-3-phenylpropylamine hydrochloride;Atemoxetine hydrochloride;(R)-<em>N</em>-Methyl-3-phenyl-3-(<em>o</em>-tolyloxy)propan-1-amine hydrochloride",
    "duplicated_cas_no": "",
    "SMILES": "[C@@H](OC1=C(C)C=CC=C1)(CCNC)C2=CC=CC=C2.Cl",
    "meta_data": {
        "InChI": "InChI=1S/C17H21NO.ClH/c1-14-8-6-7-11-16(14)19-17(12-13-18-2)15-9-4-3-5-10-15;/h3-11,17-18H,12-13H2,1-2H3;1H/t17-;/m1./s1",
        "InChIKey": null,
        "Canonical SMILES": "Cl.O(C=1C=CC=CC1C)C(C=2C=CC=CC2)CCNC",
        "Molecular Formula": "C<sub>17</sub>H<sub>21</sub>NO.ClH",
        "Molecular Mass": "",
        "Melting Point": "160-161 °C"
    }
}