{
    "cas_no": "2754-27-0",
    "key_name": "Trimethylsilyl acetate",
    "cn_name": "三甲基硅乙酸酯;乙酸三甲基硅酯;",
    "alternate_name": "Silanol, 1,1,1-trimethyl-, 1-acetate;Silanol, trimethyl-, acetate;Trimethylacetoxysilane;Acetoxytrimethylsilane;Trimethylsilyl acetate;(Acetato)trimethylsilane;Acetyloxytrimethylsilane;NSC 96780;Trimethyl-1-acetoxysilane",
    "duplicated_cas_no": "",
    "SMILES": "O([Si](C)(C)C)C(C)=O",
    "meta_data": {
        "InChI": "InChI=1S/C5H12O2Si/c1-5(6)7-8(2,3)4/h1-4H3",
        "InChIKey": null,
        "Canonical SMILES": "O=C(O[Si](C)(C)C)C",
        "Molecular Formula": "C<sub>5</sub>H<sub>12</sub>O<sub>2</sub>Si",
        "Molecular Mass": "132.23",
        "Boiling Point": "103-104 °C",
        "Melting Point": "-32 °C",
        "Density": "0.891 g/cm³"
    }
}