{
    "cas_no": "22816-60-0",
    "key_name": "Carbamimidothioic acid, (3,4-dichlorophenyl)methyl ester, hydrochloride (1:1)",
    "cn_name": null,
    "alternate_name": "Carbamimidothioic acid, (3,4-dichlorophenyl)methyl ester, hydrochloride (1:1);Pseudourea, 2-(3,4-dichlorobenzyl)-2-thio-, monohydrochloride;Carbamimidothioic acid, (3,4-dichlorophenyl)methyl ester, monohydrochloride;Pseudourea, 2-(3,4-dichlorobenzyl)-2-thio-, hydrochloride;<em>S</em>-(3,4-Dichlorobenzyl)thiouronium chloride;A 22;2-(3,4-Dichloro-benzyl)-isothiourea hydrochloride;3,4-Dichlorobenzyl carbamimidothioate hydrochloride",
    "duplicated_cas_no": "",
    "SMILES": "C(SC(=N)N)C1=CC(Cl)=C(Cl)C=C1.Cl",
    "meta_data": {
        "InChI": "InChI=1S/C8H8Cl2N2S.ClH/c9-6-2-1-5(3-7(6)10)4-13-8(11)12;/h1-3H,4H2,(H3,11,12);1H",
        "InChIKey": null,
        "Canonical SMILES": "Cl.ClC1=CC=C(C=C1Cl)CSC(=N)N",
        "Molecular Formula": "C<sub>8</sub>H<sub>8</sub>Cl<sub>2</sub>N<sub>2</sub>S.ClH",
        "Molecular Mass": "",
        "Melting Point": "210 °C"
    }
}