{
    "cas_no": "434-64-0",
    "key_name": "Octafluorotoluene",
    "cn_name": null,
    "alternate_name": "Benzene, 1,2,3,4,5-pentafluoro-6-(trifluoromethyl)-;Toluene, octafluoro-;Benzene, pentafluoro(trifluoromethyl)-;1,2,3,4,5-Pentafluoro-6-(trifluoromethyl)benzene;Perfluorotoluene;Octafluorotoluene;(Trifluoromethyl)pentafluorobenzene;Pentafluorobenzotrifluoride;Pentafluoro(trifluoromethyl)benzene;1-Trifluoromethyl-2,3,4,5,6-pentafluorobenzene;NSC 88302",
    "duplicated_cas_no": "",
    "SMILES": "C(F)(F)(F)C1=C(F)C(F)=C(F)C(F)=C1F",
    "meta_data": {
        "InChI": "InChI=1S/C7F8/c8-2-1(7(13,14)15)3(9)5(11)6(12)4(2)10",
        "InChIKey": null,
        "Canonical SMILES": "FC=1C(F)=C(F)C(=C(F)C1F)C(F)(F)F",
        "Molecular Formula": "C<sub>7</sub>F<sub>8</sub>",
        "Molecular Mass": "236.06",
        "Boiling Point": "104.5 °C",
        "Melting Point": "-65.6 °C",
        "Density": "1.660 g/cm³ @ Temp: 25 °C"
    }
}