{
    "cas_no": "15121-94-5",
    "key_name": "Primin",
    "cn_name": "异兰;异兰;异索兰;异索威;樱草素;",
    "alternate_name": "2,5-Cyclohexadiene-1,4-dione, 2-methoxy-6-pentyl-;<em>p</em>-Benzoquinone, 2-methoxy-6-pentyl-;2-Methoxy-6-pentyl-2,5-cyclohexadiene-1,4-dione;Primin;2-Methoxy-6-pentyl-1,4-benzoquinone",
    "duplicated_cas_no": "",
    "SMILES": "C(CCCC)C=1C(=O)C(OC)=CC(=O)C1",
    "meta_data": {
        "InChI": "InChI=1S/C12H16O3/c1-3-4-5-6-9-7-10(13)8-11(15-2)12(9)14/h7-8H,3-6H2,1-2H3",
        "InChIKey": null,
        "Canonical SMILES": "O=C1C=C(OC)C(=O)C(=C1)CCCCC",
        "Molecular Formula": "C<sub>12</sub>H<sub>16</sub>O<sub>3</sub>",
        "Molecular Mass": "208.25",
        "Boiling Point": "163 °C @ Press: 3 Torr",
        "Melting Point": "63 °C"
    }
}