{
    "cas_no": "2051-04-9",
    "key_name": "Bis(3-methylbutyl) disulfide",
    "cn_name": "二异戊基二硫醚;二硫化二异戊基;",
    "alternate_name": "Disulfide, bis(3-methylbutyl);Isopentyl disulfide;Bis(3-methylbutyl) disulfide;Diisoamyl disulfide;Isoamyl disulfide;2,9-Dimethyl-5,6-dithiadecane;Diisopentyl disulfide;NSC 677439;NSC 2362;3-Methyl-1-(3-methylbutyldisulfanyl)butane",
    "duplicated_cas_no": "",
    "SMILES": "C(CC(C)C)SSCCC(C)C",
    "meta_data": {
        "InChI": "InChI=1S/C10H22S2/c1-9(2)5-7-11-12-8-6-10(3)4/h9-10H,5-8H2,1-4H3",
        "InChIKey": null,
        "Canonical SMILES": "S(SCCC(C)C)CCC(C)C",
        "Molecular Formula": "C<sub>10</sub>H<sub>22</sub>S<sub>2</sub>",
        "Molecular Mass": "206.41",
        "Boiling Point": "247 °C",
        "Density": "0.9192 g/cm³ @ Temp: 20 °C"
    }
}