{
    "cas_no": "838-96-0",
    "key_name": "4-(Phenylmethoxy)benzeneacetonitrile",
    "cn_name": "4-苄氧基苯基乙腈;4-苯甲氧基苯基乙腈;",
    "alternate_name": "Benzeneacetonitrile, 4-(phenylmethoxy)-;Acetonitrile, [<em>p</em>-(benzyloxy)phenyl]-;4-(Phenylmethoxy)benzeneacetonitrile;<em>p</em>-(Benzyloxy)benzyl cyanide;4-(Benzyloxy)phenylacetonitrile;1-[4-(Benzyloxy)phenyl]acetonitrile;2-[4-(Benzyloxy)phenyl]acetonitrile;2-(4-Phenylmethoxyphenyl)acetonitrile",
    "duplicated_cas_no": "",
    "SMILES": "O(CC1=CC=CC=C1)C2=CC=C(CC#N)C=C2",
    "meta_data": {
        "InChI": "InChI=1S/C15H13NO/c16-11-10-13-6-8-15(9-7-13)17-12-14-4-2-1-3-5-14/h1-9H,10,12H2",
        "InChIKey": null,
        "Canonical SMILES": "N#CCC1=CC=C(OCC=2C=CC=CC2)C=C1",
        "Molecular Formula": "C<sub>15</sub>H<sub>13</sub>NO",
        "Molecular Mass": "223.27",
        "Boiling Point": "170-173 °C @ Press: 0.125 Torr",
        "Melting Point": "68.5-69 °C"
    }
}