{
    "cas_no": "59-67-6",
    "key_name": "Nicotinic acid",
    "cn_name": "烟酸;3-吡啶甲酸;维生素B3;",
    "alternate_name": "3-Pyridinecarboxylic acid;Nicotinic acid;Akotin;Efacin;Niacin;Nicodelmine;Niconacid;Nico-Span;Nicotinipca;Nicyl;β-Pyridinecarboxylic acid;Nicosan 3;Nicacid;Nicangin;Daskil;Linic;Nicolar;3-Carboxylpyridine;3-Carboxypyridine;Pellagrin;Pelonin;Apelagrin;Nyclin;3-Pyridylcarboxylic acid;SR 4390;Niaspan;Enduracin;Slo-niacin;Niacor;Nicobid;Wampocap;Niac;NSC 169454;E 375;CaRo 03;Microvit B<sub>3</sub> Promix Niacin;Vitamin B<sub>3</sub>;NiaShure;Bovi-Niacin;Vitamin B<sub>3</sub> (niacin);Vitamin B<sub>3</sub> (nicotinic acid);Pyridine-3-carboxylic acid;MeSH ID: D009525",
    "duplicated_cas_no": "123574-58-3;1580002-26-1",
    "SMILES": "C(O)(=O)C=1C=CC=NC1",
    "meta_data": {
        "InChI": "InChI=1S/C6H5NO2/c8-6(9)5-2-1-3-7-4-5/h1-4H,(H,8,9)",
        "InChIKey": null,
        "Canonical SMILES": "O=C(O)C=1C=NC=CC1",
        "Molecular Formula": "C<sub>6</sub>H<sub>5</sub>NO<sub>2</sub>",
        "Molecular Mass": "123.11",
        "Boiling Point": "90-92 °C @ Press: 15 Torr",
        "Melting Point": "236.6 °C",
        "Density": "1.473 g/cm³ @ Temp: 25 °C"
    }
}