{
    "cas_no": "193693-68-4",
    "key_name": "1-(9<em>H</em>-Fluoren-9-ylmethyl) (3<em>S</em>)-1,3-piperidinedicarboxylate",
    "cn_name": null,
    "alternate_name": "1,3-Piperidinedicarboxylic acid, 1-(9<em>H</em>-fluoren-9-ylmethyl) ester, (3<em>S</em>)-;1,3-Piperidinedicarboxylic acid, 1-(9<em>H</em>-fluoren-9-ylmethyl) ester, (<em>S</em>)-;1-(9<em>H</em>-Fluoren-9-ylmethyl) (3<em>S</em>)-1,3-piperidinedicarboxylate;(3S)-1-[(9<em>H</em>-Fluoren-9-ylmethoxy)carbonyl]piperidine-3-carboxylic acid;(<em>S</em>)-Fmoc-nipecotic acid",
    "duplicated_cas_no": "",
    "SMILES": "C(OC(=O)N1C[C@@H](C(O)=O)CCC1)C2C=3C(C=4C2=CC=CC4)=CC=CC3",
    "meta_data": {
        "InChI": "InChI=1S/C21H21NO4/c23-20(24)14-6-5-11-22(12-14)21(25)26-13-19-17-9-3-1-7-15(17)16-8-2-4-10-18(16)19/h1-4,7-10,14,19H,5-6,11-13H2,(H,23,24)/t14-/m0/s1",
        "InChIKey": null,
        "Canonical SMILES": "O=C(O)C1CN(C(=O)OCC2C=3C=CC=CC3C=4C=CC=CC42)CCC1",
        "Molecular Formula": "C<sub>21</sub>H<sub>21</sub>NO<sub>4</sub>",
        "Molecular Mass": "351.40",
        "Melting Point": "160-161 °C"
    }
}