{
    "cas_no": "10381-75-6",
    "key_name": "8-Bromo-3,9-dihydro-1,3-dimethyl-1<em>H</em>-purine-2,6-dione",
    "cn_name": "8-溴茶碱;",
    "alternate_name": "1<em>H</em>-Purine-2,6-dione, 8-bromo-3,9-dihydro-1,3-dimethyl-;Theophylline, 8-bromo-;1<em>H</em>-Purine-2,6-dione, 8-bromo-3,7-dihydro-1,3-dimethyl-;8-Bromo-3,9-dihydro-1,3-dimethyl-1<em>H</em>-purine-2,6-dione;Bromotheophylline;8-Bromotheophylline;Bromotheaminum;NSC 164940;8-Bromo-1,3-dimethyl-1<em>H</em>-purine-2,6(3<em>H</em>,7<em>H</em>)-dione",
    "duplicated_cas_no": "",
    "SMILES": "O=C1C2=C(N(C)C(=O)N1C)N=C(Br)N2",
    "meta_data": {
        "InChI": "InChI=1S/C7H7BrN4O2/c1-11-4-3(9-6(8)10-4)5(13)12(2)7(11)14/h1-2H3,(H,9,10)",
        "InChIKey": null,
        "Canonical SMILES": "O=C1C=2NC(Br)=NC2N(C(=O)N1C)C",
        "Molecular Formula": "C<sub>7</sub>H<sub>7</sub>BrN<sub>4</sub>O<sub>2</sub>",
        "Molecular Mass": "259.06",
        "Melting Point": "307-309 °C"
    }
}