{
    "cas_no": "1738-86-9",
    "key_name": "<em>N</em>-[(Phenylmethoxy)carbonyl]glycine 4-nitrophenyl ester",
    "cn_name": "N-苄氧羰基甘氨酸对硝基苯酯;",
    "alternate_name": "Glycine, <em>N</em>-[(phenylmethoxy)carbonyl]-, 4-nitrophenyl ester;Glycine, <em>N</em>-carboxy-, <em>N</em>-benzyl <em>p</em>-nitrophenyl ester;<em>N</em>-[(Phenylmethoxy)carbonyl]glycine 4-nitrophenyl ester;Carbobenzoxyglycine <em>p</em>-nitrophenyl ester;<em>N</em>-Carbobenzoxyglycine <em>p</em>-nitrophenyl ester;<em>p</em>-Nitrophenyl benzyloxycarbonylglycinate;<em>p</em>-Nitrophenyl <em>N</em>-benzyloxycarbonylglycinate;Benzyloxycarbonylglycine <em>p</em>-nitrophenyl ester;<em>N</em>-(Benzyloxycarbonyl)glycine <em>p</em>-nitrophenyl ester;<em>p</em>-Nitrophenyl <em>N</em>-(benzyloxycarbonyl)aminoacetate;<em>N</em>-Carboxyglycine <em>N</em>-benzyl <em>p</em>-nitrophenyl ester;<em>N</em>-α-Carbobenzoxyglycine <em>p</em>-nitrophenyl ester;<em>p</em>-Nitrophenyl carbobenzoxyglycinate;<em>p</em>-Nitrophenyl <em>Z</em>-glycinate;<em>p</em>-Nitrophenyl (<em>N</em>-carbobenzoxy)glycinate;<em>N</em>-(Benzyloxycarbonyl)glycine 4-nitrophenyl ester;NSC 405051;(4-Nitrophenyl) 2-(phenylmethoxycarbonylamino)acetate",
    "duplicated_cas_no": "",
    "SMILES": "O(C(CNC(OCC1=CC=CC=C1)=O)=O)C2=CC=C(N(=O)=O)C=C2",
    "meta_data": {
        "InChI": "InChI=1S/C16H14N2O6/c19-15(24-14-8-6-13(7-9-14)18(21)22)10-17-16(20)23-11-12-4-2-1-3-5-12/h1-9H,10-11H2,(H,17,20)",
        "InChIKey": null,
        "Canonical SMILES": "O=C(OCC=1C=CC=CC1)NCC(=O)OC2=CC=C(C=C2)N(=O)=O",
        "Molecular Formula": "C<sub>16</sub>H<sub>14</sub>N<sub>2</sub>O<sub>6</sub>",
        "Molecular Mass": "330.29",
        "Melting Point": "120-122 °C"
    }
}