{
    "cas_no": "16919-27-0",
    "key_name": "Potassium titanium fluoride (K<sub>2</sub>TiF<sub>6</sub>)",
    "cn_name": null,
    "alternate_name": "Titanate(2-), hexafluoro-, potassium (1:2), (<em>OC</em>-6-11)-;Titanate(2-), hexafluoro-, dipotassium;Titanate(2-), hexafluoro-, dipotassium, (<em>OC</em>-6-11)-;Dipotassium hexafluorotitanate;Potassium titanium fluoride (K<sub>2</sub>TiF<sub>6</sub>);Dipotassium hexafluorotitanate(2-);Dipotassium monotitanium hexafluoride;Potassium hexafluorotitanate (K<sub>2</sub>TiF<sub>6</sub>);Dipotassium titanium hexafluoride;Potassium fluorotitanate(K<sub>2</sub>TiF<sub>6</sub>);NSC 187663;NSC 43605",
    "duplicated_cas_no": "10028-19-0;12062-40-7",
    "SMILES": "[Ti+4]([F-])([F-])([F-])([F-])([F-])[F-].[K+]",
    "meta_data": {
        "InChI": "InChI=1S/6FH.2K.Ti/h6*1H;;;/q;;;;;;2*+1;+4/p-6",
        "InChIKey": null,
        "Canonical SMILES": "[K+].[F-][Ti+4]([F-])([F-])([F-])([F-])[F-]",
        "Molecular Formula": "F<sub>6</sub>Ti.2K",
        "Molecular Mass": "",
        "Melting Point": "899 °C",
        "Density": "2.1 g/cm³ @ Temp: 827 °C"
    }
}