{
    "cas_no": "137-64-4",
    "key_name": "2-Chloro-5-(chlorosulfonyl)benzoic acid",
    "cn_name": null,
    "alternate_name": "Benzoic acid, 2-chloro-5-(chlorosulfonyl)-;2-Chloro-5-(chlorosulfonyl)benzoic acid;3-Carboxy-4-chlorobenzenesulfonyl chloride;NSC 137839;5-Chlorosulfonyl-2-chlorobenzoic acid",
    "duplicated_cas_no": "",
    "SMILES": "C(O)(=O)C1=CC(S(Cl)(=O)=O)=CC=C1Cl",
    "meta_data": {
        "InChI": "InChI=1S/C7H4Cl2O4S/c8-6-2-1-4(14(9,12)13)3-5(6)7(10)11/h1-3H,(H,10,11)",
        "InChIKey": null,
        "Canonical SMILES": "O=C(O)C1=CC(=CC=C1Cl)S(=O)(=O)Cl",
        "Molecular Formula": "C<sub>7</sub>H<sub>4</sub>Cl<sub>2</sub>O<sub>4</sub>S",
        "Molecular Mass": "255.08",
        "Melting Point": "61-62 °C"
    }
}