{
    "cas_no": "7493-69-8",
    "key_name": "Allyl 2-ethylbutyrate",
    "cn_name": "2-乙基丁酸烯丙酯;",
    "alternate_name": "Butanoic acid, 2-ethyl-, 2-propen-1-yl ester;Butyric acid, 2-ethyl-, allyl ester;Butanoic acid, 2-ethyl-, 2-propenyl ester;Allyl 2-ethylbutyrate;NSC 32637;2-Ethylbutanoate-2-propene ester;2-Ethyl-butyric acid allyl ester",
    "duplicated_cas_no": "",
    "SMILES": "C(C(OCC=C)=O)(CC)CC",
    "meta_data": {
        "InChI": "InChI=1S/C9H16O2/c1-4-7-11-9(10)8(5-2)6-3/h4,8H,1,5-7H2,2-3H3",
        "InChIKey": null,
        "Canonical SMILES": "O=C(OCC=C)C(CC)CC",
        "Molecular Formula": "C<sub>9</sub>H<sub>16</sub>O<sub>2</sub>",
        "Molecular Mass": "156.22",
        "Boiling Point": "165-167 °C"
    }
}