{
    "cas_no": "51-44-5",
    "key_name": "3,4-Dichlorobenzoic acid",
    "cn_name": "3,4-二氯苯甲酸;",
    "alternate_name": "Benzoic acid, 3,4-dichloro-;3,4-Dichlorobenzoic acid;NSC 17583;NSC 34414",
    "duplicated_cas_no": "",
    "SMILES": "C(O)(=O)C1=CC(Cl)=C(Cl)C=C1",
    "meta_data": {
        "InChI": "InChI=1S/C7H4Cl2O2/c8-5-2-1-4(7(10)11)3-6(5)9/h1-3H,(H,10,11)",
        "InChIKey": null,
        "Canonical SMILES": "O=C(O)C1=CC=C(Cl)C(Cl)=C1",
        "Molecular Formula": "C<sub>7</sub>H<sub>4</sub>Cl<sub>2</sub>O<sub>2</sub>",
        "Molecular Mass": "191.01",
        "Melting Point": "208-209 °C"
    }
}