{
    "cas_no": "205754-33-2",
    "key_name": "8-Hydroxyefavirenz",
    "cn_name": null,
    "alternate_name": "2<em>H</em>-3,1-Benzoxazin-2-one, 6-chloro-4-(2-cyclopropylethynyl)-1,4-dihydro-8-hydroxy-4-(trifluoromethyl)-, (4<em>S</em>)-;2<em>H</em>-3,1-Benzoxazin-2-one, 6-chloro-4-(cyclopropylethynyl)-1,4-dihydro-8-hydroxy-4-(trifluoromethyl)-, (4<em>S</em>)-;(4<em>S</em>)-6-Chloro-4-(2-cyclopropylethynyl)-1,4-dihydro-8-hydroxy-4-(trifluoromethyl)-2<em>H</em>-3,1-benzoxazin-2-one;8-Hydroxyefavirenz;(4S)-6-Chloro-4-(2-cyclopropylethynyl)-8-hydroxy-4-(trifluoromethyl)-1<em>H</em>-3,1-benzoxazin-2-one",
    "duplicated_cas_no": "",
    "SMILES": "C(#CC1CC1)[C@@]2(C(F)(F)F)C=3C(NC(=O)O2)=C(O)C=C(Cl)C3",
    "meta_data": {
        "InChI": "InChI=1S/C14H9ClF3NO3/c15-8-5-9-11(10(20)6-8)19-12(21)22-13(9,14(16,17)18)4-3-7-1-2-7/h5-7,20H,1-2H2,(H,19,21)/t13-/m0/s1",
        "InChIKey": null,
        "Canonical SMILES": "O=C1OC(C#CC2CC2)(C=3C=C(Cl)C=C(O)C3N1)C(F)(F)F",
        "Molecular Formula": "C<sub>14</sub>H<sub>9</sub>ClF<sub>3</sub>NO<sub>3</sub>",
        "Molecular Mass": "331.67",
        "Melting Point": "171-172 °C"
    }
}