{
    "cas_no": "100487-74-9",
    "key_name": "6-Chloro-5-fluoro-1,3-dihydro-2<em>H</em>-indol-2-one",
    "cn_name": "6-氯-5-氟-1,3-二氢-2H-吲哚-2-酮;",
    "alternate_name": "2<em>H</em>-Indol-2-one, 6-chloro-5-fluoro-1,3-dihydro-;6-Chloro-5-fluoro-1,3-dihydro-2<em>H</em>-indol-2-one;6-Chloro-5-fluoro-2-oxindole;6-Chloro-5-fluoro-1,3-dihydroindol-2-one;6-Chloro-5-fluoroindolin-2-one",
    "duplicated_cas_no": "",
    "SMILES": "FC=1C=C2C(=CC1Cl)NC(=O)C2",
    "meta_data": {
        "InChI": "InChI=1S/C8H5ClFNO/c9-5-3-7-4(1-6(5)10)2-8(12)11-7/h1,3H,2H2,(H,11,12)",
        "InChIKey": null,
        "Canonical SMILES": "O=C1NC2=CC(Cl)=C(F)C=C2C1",
        "Molecular Formula": "C<sub>8</sub>H<sub>5</sub>ClFNO",
        "Molecular Mass": "185.58",
        "Melting Point": "196-206 °C"
    }
}