{
    "cas_no": "36062-04-1",
    "key_name": "Tetrahydrocurcumin",
    "cn_name": "Tetrahydrocurcumin;",
    "alternate_name": "3,5-Heptanedione, 1,7-bis(4-hydroxy-3-methoxyphenyl)-;1,7-Bis(4-hydroxy-3-methoxyphenyl)-3,5-heptanedione;Tetrahydrocurcumin;HZIV 81-2;NSC 687845;Tetrahydrodiferuloylmethane;1,7-Bis(4-hydroxy-3-methoxyphenyl)heptane-3,5-dione;Sabiwhite;AS-KTC 004",
    "duplicated_cas_no": "",
    "SMILES": "C(CC(CC(CCC1=CC(OC)=C(O)C=C1)=O)=O)C2=CC(OC)=C(O)C=C2",
    "meta_data": {
        "InChI": "InChI=1S/C21H24O6/c1-26-20-11-14(5-9-18(20)24)3-7-16(22)13-17(23)8-4-15-6-10-19(25)21(12-15)27-2/h5-6,9-12,24-25H,3-4,7-8,13H2,1-2H3",
        "InChIKey": null,
        "Canonical SMILES": "O=C(CC(=O)CCC1=CC=C(O)C(OC)=C1)CCC2=CC=C(O)C(OC)=C2",
        "Molecular Formula": "C<sub>21</sub>H<sub>24</sub>O<sub>6</sub>",
        "Molecular Mass": "372.41",
        "Melting Point": "96 °C"
    }
}