{
    "cas_no": "2491-06-7",
    "key_name": "Dimethylglycine hydrochloride",
    "cn_name": "N,N-二甲基甘氨酸盐酸盐;",
    "alternate_name": "Glycine, <em>N</em>,<em>N</em>-dimethyl-, hydrochloride (1:1);Glycine, <em>N</em>,<em>N</em>-dimethyl-, hydrochloride;<em>N</em>,<em>N</em>-Dimethylglycine hydrochloride;(Dimethylamino)acetic acid hydrochloride;Dimethylglycine hydrochloride;<em>N</em>,<em>N</em>-Dimethylaminoacetic acid hydrochloric acid;2-(Dimethylamino)acetic acid hydrochloride;<em>N</em>,<em>N</em>-Dimethylglycine monohydrochloride;(Carboxymethyl)dimethylazanium chloride",
    "duplicated_cas_no": "",
    "SMILES": "C(C(O)=O)N(C)C.Cl",
    "meta_data": {
        "InChI": "InChI=1S/C4H9NO2.ClH/c1-5(2)3-4(6)7;/h3H2,1-2H3,(H,6,7);1H",
        "InChIKey": null,
        "Canonical SMILES": "Cl.O=C(O)CN(C)C",
        "Molecular Formula": "C<sub>4</sub>H<sub>9</sub>NO<sub>2</sub>.ClH",
        "Molecular Mass": "",
        "Melting Point": "189-190 °C"
    }
}