{
    "cas_no": "122-05-4",
    "key_name": "2,5-Pyrazinedicarboxylic acid",
    "cn_name": "2，5-吡嗪二羧酸;2，5-吡嗪二羧酸;",
    "alternate_name": "2,5-Pyrazinedicarboxylic acid;NSC 80650",
    "duplicated_cas_no": "117140-79-1;1355602-05-9",
    "SMILES": "C(O)(=O)C=1C=NC(C(O)=O)=CN1",
    "meta_data": {
        "InChI": "InChI=1S/C6H4N2O4/c9-5(10)3-1-7-4(2-8-3)6(11)12/h1-2H,(H,9,10)(H,11,12)",
        "InChIKey": null,
        "Canonical SMILES": "O=C(O)C1=NC=C(N=C1)C(=O)O",
        "Molecular Formula": "C<sub>6</sub>H<sub>4</sub>N<sub>2</sub>O<sub>4</sub>",
        "Molecular Mass": "168.11",
        "Melting Point": "269 °C (decomp)"
    }
}