{
    "cas_no": "27538-10-9",
    "key_name": "Homofuraneol",
    "cn_name": "2-乙基-4-羟基-5-甲基-3(2H)-呋喃酮;",
    "alternate_name": "3(2<em>H</em>)-Furanone, 2-ethyl-4-hydroxy-5-methyl-;2-Ethyl-4-hydroxy-5-methyl-3(2<em>H</em>)-furanone;4-Hydroxy-2-ethyl-5-methyl-2,3-dihydrofuran-3-one;2-Methyl-5-ethyl-4,5-dihydrofuran-3-ol-4-one;4-Hydroxy-5-methyl-2-ethyl-2,3-dihydrofuran-3-one;4-Hydroxy-2-ethyl-5-methyl-3(2<em>H</em>)-furanone;2-Methyl-3-hydroxy-5-ethylfuran-4-one;Homofuraneol;HEMF;2-Ethyl-4-hydroxy-5-methylfuran-3-one",
    "duplicated_cas_no": "",
    "SMILES": "C(C)C1C(=O)C(O)=C(C)O1",
    "meta_data": {
        "InChI": "InChI=1S/C7H10O3/c1-3-5-7(9)6(8)4(2)10-5/h5,8H,3H2,1-2H3",
        "InChIKey": null,
        "Canonical SMILES": "O=C1C(O)=C(OC1CC)C",
        "Molecular Formula": "C<sub>7</sub>H<sub>10</sub>O<sub>3</sub>",
        "Molecular Mass": "142.15",
        "Boiling Point": "103 °C @ Press: 15 Torr"
    }
}