{
    "cas_no": "122-75-8",
    "key_name": "1,2-Ethanediamine, <em>N</em><sup>1</sup>,<em>N</em><sup>2</sup>-bis(phenylmethyl)-, acetate (1:2)",
    "cn_name": "N,N\"-二苄基乙二胺二醋酸;N,N\"-二苄基乙二胺二乙酸;",
    "alternate_name": "1,2-Ethanediamine, <em>N</em><sup>1</sup>,<em>N</em><sup>2</sup>-bis(phenylmethyl)-, acetate (1:2);Ethylenediamine, <em>N</em>,<em>N</em>′-dibenzyl-, diacetate;1,2-Ethanediamine, <em>N</em>,<em>N</em>′-bis(phenylmethyl)-, diacetate;<em>N</em>,<em>N</em>′-Dibenzylethylenediamine diacetate;Benzathine diacetate;NSC 33274;NSC 81591",
    "duplicated_cas_no": "",
    "SMILES": "C(NCCNCC1=CC=CC=C1)C2=CC=CC=C2.C(C)(O)=O",
    "meta_data": {
        "InChI": "InChI=1S/C16H20N2.C2H4O2/c1-3-7-15(8-4-1)13-17-11-12-18-14-16-9-5-2-6-10-16;1-2(3)4/h1-10,17-18H,11-14H2;1H3,(H,3,4)",
        "InChIKey": null,
        "Canonical SMILES": "O=C(O)C.C=1C=CC(=CC1)CNCCNCC=2C=CC=CC2",
        "Molecular Formula": "C<sub>16</sub>H<sub>20</sub>N<sub>2</sub>.2C<sub>2</sub>H<sub>4</sub>O<sub>2</sub>",
        "Molecular Mass": "",
        "Melting Point": "110-112 °C"
    }
}