{
    "cas_no": "53370-90-4",
    "key_name": "Exalamide",
    "cn_name": "依沙酰胺;己氧苯酰胺;",
    "alternate_name": "Benzamide, 2-(hexyloxy)-;Benzamide, <em>o</em>-(hexyloxy)-;2-(Hexyloxy)benzamide;<em>o</em>-(Hexyloxy)benzamide;2-<em>n</em>-Hexyloxybenzamide;Exalamide;Hyperan;HBA;2-Hexoxybenzamide",
    "duplicated_cas_no": "",
    "SMILES": "O(CCCCCC)C1=C(C(N)=O)C=CC=C1",
    "meta_data": {
        "InChI": "InChI=1S/C13H19NO2/c1-2-3-4-7-10-16-12-9-6-5-8-11(12)13(14)15/h5-6,8-9H,2-4,7,10H2,1H3,(H2,14,15)",
        "InChIKey": null,
        "Canonical SMILES": "O=C(N)C=1C=CC=CC1OCCCCCC",
        "Molecular Formula": "C<sub>13</sub>H<sub>19</sub>NO<sub>2</sub>",
        "Molecular Mass": "221.30",
        "Melting Point": "71 °C"
    }
}