{
    "cas_no": "1571-30-8",
    "key_name": "8-Hydroxyquinoline-2-carboxylic acid",
    "cn_name": "8-羟基喹啉-2-羧酸;8-羟基喹啉-2-羧酸;8-羟基-2-喹啉甲酸;8-羟基喹啉-2-羧酸,98%;",
    "alternate_name": "2-Quinolinecarboxylic acid, 8-hydroxy-;Quinaldic acid, 8-hydroxy-;8-Hydroxy-2-quinolinecarboxylic acid;8-Hydroxyquinaldic acid;8-Hydroxyquinoline-2-carboxylic acid;2-Carboxy-8-hydroxyquinoline;8-Hydroxyquinaldinic acid",
    "duplicated_cas_no": "",
    "SMILES": "OC=1C2=C(C=CC(C(O)=O)=N2)C=CC1",
    "meta_data": {
        "InChI": "InChI=1S/C10H7NO3/c12-8-3-1-2-6-4-5-7(10(13)14)11-9(6)8/h1-5,12H,(H,13,14)",
        "InChIKey": null,
        "Canonical SMILES": "O=C(O)C=1N=C2C(O)=CC=CC2=CC1",
        "Molecular Formula": "C<sub>10</sub>H<sub>7</sub>NO<sub>3</sub>",
        "Molecular Mass": "189.17",
        "Melting Point": "190-200 °C"
    }
}