{
    "cas_no": "4276-49-7",
    "key_name": "1-Bromoeicosane",
    "cn_name": "1-溴二十烷;",
    "alternate_name": "Eicosane, 1-bromo-;1-Bromoeicosane;Eicosyl bromide;<em>n</em>-Eicosyl bromide;NSC 87634;1-Ecosyl bromide;1-Bromoicosane",
    "duplicated_cas_no": "",
    "SMILES": "C(CCCCCCCCCBr)CCCCCCCCCC",
    "meta_data": {
        "InChI": "InChI=1S/C20H41Br/c1-2-3-4-5-6-7-8-9-10-11-12-13-14-15-16-17-18-19-20-21/h2-20H2,1H3",
        "InChIKey": null,
        "Canonical SMILES": "BrCCCCCCCCCCCCCCCCCCCC",
        "Molecular Formula": "C<sub>20</sub>H<sub>41</sub>Br",
        "Molecular Mass": "361.44",
        "Melting Point": "37-38 °C"
    }
}