{
    "cas_no": "42860-04-8",
    "key_name": "4-Chloro-3-iodobenzoic acid",
    "cn_name": "4-氯-3-碘苯甲酸;",
    "alternate_name": "Benzoic acid, 4-chloro-3-iodo-;4-Chloro-3-iodobenzoic acid;3-Iodo-4-chlorobenzoic acid",
    "duplicated_cas_no": "",
    "SMILES": "C(O)(=O)C1=CC(I)=C(Cl)C=C1",
    "meta_data": {
        "InChI": "InChI=1S/C7H4ClIO2/c8-5-2-1-4(7(10)11)3-6(5)9/h1-3H,(H,10,11)",
        "InChIKey": null,
        "Canonical SMILES": "O=C(O)C1=CC=C(Cl)C(I)=C1",
        "Molecular Formula": "C<sub>7</sub>H<sub>4</sub>ClIO<sub>2</sub>",
        "Molecular Mass": "282.46",
        "Melting Point": "216-217 °C"
    }
}