{
    "cas_no": "697-83-6",
    "key_name": "5-Chloro-2,4,6-trifluoropyrimidine",
    "cn_name": "2,4,6-三氟-5-氯嘧啶;",
    "alternate_name": "Pyrimidine, 5-chloro-2,4,6-trifluoro-;5-Chloro-2,4,6-trifluoropyrimidine;2,4,6-Trifluoro-5-chloropyrimidine;Trifluoro-5-chloropyrimidine;5-Chloroperfluoropyrimidine",
    "duplicated_cas_no": "",
    "SMILES": "ClC=1C(F)=NC(F)=NC1F",
    "meta_data": {
        "InChI": "InChI=1S/C4ClF3N2/c5-1-2(6)9-4(8)10-3(1)7",
        "InChIKey": null,
        "Canonical SMILES": "FC=1N=C(F)C(Cl)=C(F)N1",
        "Molecular Formula": "C<sub>4</sub>ClF<sub>3</sub>N<sub>2</sub>",
        "Molecular Mass": "168.50",
        "Boiling Point": "114.5 °C"
    }
}