{
    "cas_no": "103-54-8",
    "key_name": "Cinnamyl acetate",
    "cn_name": "乙酸桂酯;3-苯基-2-丙烯-1-醇乙酸酯;乙酸3-苯基烯丙酯;",
    "alternate_name": "2-Propen-1-ol, 3-phenyl-, 1-acetate;Cinnamyl alcohol, acetate;2-Propen-1-ol, 3-phenyl-, acetate;Cinnamyl acetate;γ-Phenylallyl acetate;3-Phenyl-2-propen-1-yl acetate;3-Phenyl-2-propenyl acetate;3-Phenylallyl acetate;1-Acetoxy-3-phenyl-2-propene;3-Phenyl-2-propen-1-ol acetate;NSC 46109;Acetic acid 3-phenyl-2-propenyl ester;Acetic acid cinnamyl ester",
    "duplicated_cas_no": "",
    "SMILES": "C(=CCOC(C)=O)C1=CC=CC=C1",
    "meta_data": {
        "InChI": "InChI=1S/C11H12O2/c1-10(12)13-9-5-8-11-6-3-2-4-7-11/h2-8H,9H2,1H3",
        "InChIKey": null,
        "Canonical SMILES": "O=C(OCC=CC=1C=CC=CC1)C",
        "Molecular Formula": "C<sub>11</sub>H<sub>12</sub>O<sub>2</sub>",
        "Molecular Mass": "176.21",
        "Boiling Point": "142-144 °C @ Press: 12 Torr",
        "Melting Point": "30 °C"
    }
}