{
    "cas_no": "81147-94-6",
    "key_name": "Methyl 4-(2-oxiranylmethoxy)benzenepropanoate",
    "cn_name": null,
    "alternate_name": "Benzenepropanoic acid, 4-(2-oxiranylmethoxy)-, methyl ester;Benzenepropanoic acid, 4-(oxiranylmethoxy)-, methyl ester;Methyl 4-(2-oxiranylmethoxy)benzenepropanoate;3-(4-(2,3-Epoxypropoxy)phenyl)propionic acid methyl ester",
    "duplicated_cas_no": "",
    "SMILES": "C(OC1=CC=C(CCC(OC)=O)C=C1)C2CO2",
    "meta_data": {
        "InChI": "InChI=1S/C13H16O4/c1-15-13(14)7-4-10-2-5-11(6-3-10)16-8-12-9-17-12/h2-3,5-6,12H,4,7-9H2,1H3",
        "InChIKey": null,
        "Canonical SMILES": "O=C(OC)CCC1=CC=C(OCC2OC2)C=C1",
        "Molecular Formula": "C<sub>13</sub>H<sub>16</sub>O<sub>4</sub>",
        "Molecular Mass": "236.26",
        "Boiling Point": "156 °C @ Press: 0.4 Torr"
    }
}