{
    "cas_no": "74844-91-0",
    "key_name": "(2<em>S</em>,4<em>R</em>)-4-Hydroxypyrrolidine-1,2-dicarboxylic acid 1-<em>tert</em>-butyl ester 2-methyl ester",
    "cn_name": "N-Boc-反式-4-羟基-L-脯氨酸甲酯;N-叔丁氧羰基-反式-4-羟基-L-脯氨酸甲酯;",
    "alternate_name": "1,2-Pyrrolidinedicarboxylic acid, 4-hydroxy-, 1-(1,1-dimethylethyl) 2-methyl ester, (2<em>S</em>,4<em>R</em>)-;1,2-Pyrrolidinedicarboxylic acid, 4-hydroxy-, 1-(1,1-dimethylethyl) 2-methyl ester, (2<em>S</em>-<em>trans</em>)-;<em>N</em>-<em>tert</em>-Butoxycarbonyl-<span class=\"text-smallcaps\">L</span>-hydroxyproline methyl ester;Methyl <em>N</em>-<em>tert</em>-butoxycarbonyl-<span class=\"text-smallcaps\">L</span>-hydroxyprolinate;<em>N</em>-Boc-4-hydroxy-<span class=\"text-smallcaps\">L</span>-proline methyl ester;(2<em>S</em>,4<em>R</em>)-1-<em>tert</em>-Butoxycarbonyl-4-hydroxypyrrolidine-2-carboxylic acid methyl ester;1-<em>tert</em>-Butyl 2-methyl 4(<em>R</em>)-hydroxypyrrolidine-1,2(<em>S</em>)-dicarboxylate;<em>tert</em>-Butyl (2<em>S</em>,4<em>R</em>)-2-(methoxycarbonyl)-4-hydroxypyrrolidine-1-carboxylate;1-<em>tert</em>-Butyl 2-methyl (2<em>S</em>,4<em>R</em>)-4-hydroxy-1,2-pyrrolidinedicarboxylate;Methyl (2<em>S</em>,4<em>R</em>)-<em>N</em>-<em>tert</em>-Butoxycarbonyl-4-hydroxy-2-pyrrolidinecarboxylate;(2<em>S</em>,4<em>R</em>)-4-Hydroxypyrrolidine-1,2-dicarboxylic acid 1-<em>tert</em>-butyl ester 2-methyl ester;<em>N</em>-(<em>tert</em>-Butoxycarbonyl)-(2<em>S</em>,4<em>R</em>)-4-hydroxyproline methyl ester;Methyl (2S,4R)-<em>N</em>-<em>tert</em>-butoxycarbonyl-4-hydroxy-2-pyrrolidinecarboxylate;Methyl (4<em>R</em>)-<em>N</em>-Boc-4-hydroxy-<span class=\"text-smallcaps\">L</span>-prolinate;Methyl (2<em>S</em>,4<em>R</em>)-1-(<em>tert</em>-butoxycarbonyl)-4-hydroxypyrrolidine-2-carboxylate;<em>tert</em>-Butyl methyl (2<em>S</em>,4<em>R</em>)-4-hydroxypyrrolidine-1,2-dicarboxylate;<em>N</em>-(<em>tert</em>-Butoxycarbonyl)-(2S,4R)-4-hydroxyproline methyl ester;(2<em>S</em>,4<em>R</em>)-1-<em>tert</em>-Butoxycarbonyl-2-(methoxycarbonyl)-4-hydroxypyrrolidine;<em>N</em>-Boc-<em>trans</em>-4-hydroxyproline methyl ester;(2<em>S</em>,4<em>R</em>)-Methyl 1-(<em>tert</em>-butyloxycarbonyl)-4-hydroxypyrrolidine-2-carboxylate;1-(<em>tert</em>-Butyl) 2-methyl (2S,4R)-4-hydroxypyrrolidine-1,2-dicarboxylate",
    "duplicated_cas_no": "",
    "SMILES": "C(OC(C)(C)C)(=O)N1[C@H](C(OC)=O)C[C@@H](O)C1",
    "meta_data": {
        "InChI": "InChI=1S/C11H19NO5/c1-11(2,3)17-10(15)12-6-7(13)5-8(12)9(14)16-4/h7-8,13H,5-6H2,1-4H3/t7-,8+/m1/s1",
        "InChIKey": null,
        "Canonical SMILES": "O=C(OC(C)(C)C)N1CC(O)CC1C(=O)OC",
        "Molecular Formula": "C<sub>11</sub>H<sub>19</sub>NO<sub>5</sub>",
        "Molecular Mass": "245.27",
        "Boiling Point": "130-132 °C @ Press: 0.05 Torr",
        "Melting Point": "91-94 °C"
    }
}