{
    "cas_no": "1563-90-2",
    "key_name": "<em>N</em>,<em>N</em>-Dibutylacetamide",
    "cn_name": "N,N-二正丁基乙酰胺;",
    "alternate_name": "Acetamide, <em>N</em>,<em>N</em>-dibutyl-;<em>N</em>,<em>N</em>-Dibutylacetamide;<em>N</em>,<em>N</em>-Di-<em>n</em>-butylacetamide;<em>N</em>-Acetyldibutylamine;NSC 54116;NSC 90",
    "duplicated_cas_no": "",
    "SMILES": "N(CCCC)(CCCC)C(C)=O",
    "meta_data": {
        "InChI": "InChI=1S/C10H21NO/c1-4-6-8-11(10(3)12)9-7-5-2/h4-9H2,1-3H3",
        "InChIKey": null,
        "Canonical SMILES": "O=C(N(CCCC)CCCC)C",
        "Molecular Formula": "C<sub>10</sub>H<sub>21</sub>NO",
        "Molecular Mass": "171.28",
        "Boiling Point": "116-120 °C @ Press: 11 Torr",
        "Melting Point": "241-244 °C",
        "Density": "0.8765 g/cm³ @ Temp: 20 °C"
    }
}