{
    "cas_no": "5370-25-2",
    "key_name": "2-Acetyl-5-bromothiophene",
    "cn_name": "2-乙酰基-5-溴噻吩;",
    "alternate_name": "Ethanone, 1-(5-bromo-2-thienyl)-;Ketone, 5-bromo-2-thienyl methyl;1-(5-Bromo-2-thienyl)ethanone;5-Bromo-2-acetylthiophene;2-Acetyl-5-bromothiophene;5-Acetyl-2-bromothiophene;2-Bromo-5-acetylthiophene;NSC 80366;1-(5-Bromothiophen-2-yl)ethanone;1-(5-Bromothiophen-2-yl)ethan-1-one",
    "duplicated_cas_no": "",
    "SMILES": "C(C)(=O)C=1SC(Br)=CC1",
    "meta_data": {
        "InChI": "InChI=1S/C6H5BrOS/c1-4(8)5-2-3-6(7)9-5/h2-3H,1H3",
        "InChIKey": null,
        "Canonical SMILES": "O=C(C=1SC(Br)=CC1)C",
        "Molecular Formula": "C<sub>6</sub>H<sub>5</sub>BrOS",
        "Molecular Mass": "205.07",
        "Boiling Point": "105-107 °C @ Press: 4.5 Torr",
        "Melting Point": "94.5 °C"
    }
}