{
    "cas_no": "164298-27-5",
    "key_name": "1<em>H</em>-Imidazolium, 2-fluoro-4,5-dihydro-1,3-dimethyl-, hexafluorophosphate(1-) (1:1)",
    "cn_name": null,
    "alternate_name": "1<em>H</em>-Imidazolium, 2-fluoro-4,5-dihydro-1,3-dimethyl-, hexafluorophosphate(1-) (1:1);1<em>H</em>-Imidazolium, 2-fluoro-4,5-dihydro-1,3-dimethyl-, hexafluorophosphate(1-);1,3-Dimethyl-2-fluoroimidazolium hexafluorophosphate;DFIH;2-Fluoro-1,3-dimethylimidazolidinium hexafluorophosphate",
    "duplicated_cas_no": "887924-41-6;2098482-21-2",
    "SMILES": "FC1=[N+](C)CCN1C.[P+5]([F-])([F-])([F-])([F-])([F-])[F-]",
    "meta_data": {
        "InChI": "InChI=1S/C5H10FN2.F6P/c1-7-3-4-8(2)5(7)6;1-7(2,3,4,5)6/h3-4H2,1-2H3;/q+1;-1",
        "InChIKey": null,
        "Canonical SMILES": "FC=1N(C)CC[N+]1C.[F-][P+5]([F-])([F-])([F-])([F-])[F-]",
        "Molecular Formula": "C<sub>5</sub>H<sub>10</sub>FN<sub>2</sub>.F<sub>6</sub>P",
        "Molecular Mass": "",
        "Melting Point": "168 °C"
    }
}