{
    "cas_no": "20697-04-5",
    "key_name": "2-(3-Chlorophenyl)oxirane",
    "cn_name": "间环氧乙烷氯苯;",
    "alternate_name": "Oxirane, 2-(3-chlorophenyl)-;Benzene, 1-chloro-3-(epoxyethyl)-;Oxirane, (3-chlorophenyl)-;2-(3-Chlorophenyl)oxirane;3-Chlorostyrene oxide;(<em>m</em>-Chlorophenyl)oxirane;<em>m</em>-Chlorostyrene oxide;3-Chloroepoxystyrene;(3-Chlorophenyl)oxirane",
    "duplicated_cas_no": "53631-04-2",
    "SMILES": "ClC=1C=C(C=CC1)C2CO2",
    "meta_data": {
        "InChI": "InChI=1S/C8H7ClO/c9-7-3-1-2-6(4-7)8-5-10-8/h1-4,8H,5H2",
        "InChIKey": null,
        "Canonical SMILES": "ClC1=CC=CC(=C1)C2OC2",
        "Molecular Formula": "C<sub>8</sub>H<sub>7</sub>ClO",
        "Molecular Mass": "154.59",
        "Boiling Point": "64-65 °C @ Press: 0.5 Torr"
    }
}