{
    "cas_no": "2140-11-6",
    "key_name": "2′,3′-<em>O</em>-(1-Methylethylidene)inosine",
    "cn_name": "2\",3\"-O-异丙叉肌苷;",
    "alternate_name": "Inosine, 2′,3′-<em>O</em>-(1-methylethylidene)-;Inosine, 2′,3′-<em>O</em>-isopropylidene-;Furo[3,4-<em>d</em>]-1,3-dioxole, inosine deriv.;2′,3′-<em>O</em>-(1-Methylethylidene)inosine;2′,3′-<em>O</em>-Isopropylideneinosine;2′,3′-Isopropylideneinosine;NSC 29925;Chembridge 5141597",
    "duplicated_cas_no": "656829-73-1",
    "SMILES": "C(O)[C@H]1O[C@H]([C@]2([C@@]1(OC(C)(C)O2)[H])[H])N3C4=C(N=C3)C(=O)N=CN4",
    "meta_data": {
        "InChI": "InChI=1S/C13H16N4O5/c1-13(2)21-8-6(3-18)20-12(9(8)22-13)17-5-16-7-10(17)14-4-15-11(7)19/h4-6,8-9,12,18H,3H2,1-2H3,(H,14,15,19)/t6-,8-,9-,12-/m1/s1",
        "InChIKey": null,
        "Canonical SMILES": "O=C1N=CNC2=C1N=CN2C3OC(CO)C4OC(OC34)(C)C",
        "Molecular Formula": "C<sub>13</sub>H<sub>16</sub>N<sub>4</sub>O<sub>5</sub>",
        "Molecular Mass": "308.29",
        "Melting Point": "271-276 °C"
    }
}