{
    "cas_no": "702-79-4",
    "key_name": "1,3-Dimethyladamantane",
    "cn_name": "1,3-二甲基金刚烷;",
    "alternate_name": "Tricyclo[3.3.1.1<sup>3,7</sup>]decane, 1,3-dimethyl-;Adamantane, 1,3-dimethyl-;1,3-Dimethyltricyclo[3.3.1.1<sup>3,7</sup>]decane;1,3-Dimethyladamantane;3,5-Dimethyladamantane",
    "duplicated_cas_no": "82833-88-3",
    "SMILES": "CC12CC3(C)CC(C1)CC(C2)C3",
    "meta_data": {
        "InChI": "InChI=1S/C12H20/c1-11-4-9-3-10(5-11)7-12(2,6-9)8-11/h9-10H,3-8H2,1-2H3",
        "InChIKey": null,
        "Canonical SMILES": "CC12CC3CC(C1)CC(C)(C3)C2",
        "Molecular Formula": "C<sub>12</sub>H<sub>20</sub>",
        "Molecular Mass": "164.29",
        "Boiling Point": "203-213 °C @ Press: 746 Torr"
    }
}