{
    "cas_no": "14777-27-6",
    "key_name": "Ethanimidic acid, methyl ester, hydrochloride (1:1)",
    "cn_name": "乙酰亚氨酸甲酯盐酸盐;乙亚氨酸甲酯盐酸盐;亚氨基乙酸甲酯盐酸盐；甲基乙亚氨酸酯盐酸盐;",
    "alternate_name": "Ethanimidic acid, methyl ester, hydrochloride (1:1);Acetimidic acid, methyl ester, hydrochloride;Ethanimidic acid, methyl ester, hydrochloride;Methyl acetimidate hydrochloride",
    "duplicated_cas_no": "",
    "SMILES": "C(OC)(C)=N.Cl",
    "meta_data": {
        "InChI": "InChI=1S/C3H7NO.ClH/c1-3(4)5-2;/h4H,1-2H3;1H",
        "InChIKey": null,
        "Canonical SMILES": "Cl.N=C(OC)C",
        "Molecular Formula": "C<sub>3</sub>H<sub>7</sub>NO.ClH",
        "Molecular Mass": "",
        "Melting Point": "95-95.5 °C"
    }
}