{
    "cas_no": "488-93-7",
    "key_name": "3-Furancarboxylic acid",
    "cn_name": "3-糠酸;3-呋喃甲酸;",
    "alternate_name": "3-Furancarboxylic acid;3-Furoic acid;3-Carboxyfuran;3-Furanoic acid;NSC 349941",
    "duplicated_cas_no": "2244579-81-3",
    "SMILES": "C(O)(=O)C=1C=COC1",
    "meta_data": {
        "InChI": "InChI=1S/C5H4O3/c6-5(7)4-1-2-8-3-4/h1-3H,(H,6,7)",
        "InChIKey": null,
        "Canonical SMILES": "O=C(O)C1=COC=C1",
        "Molecular Formula": "C<sub>5</sub>H<sub>4</sub>O<sub>3</sub>",
        "Molecular Mass": "112.08",
        "Boiling Point": "290 °C",
        "Melting Point": "122.5 °C"
    }
}