{
    "cas_no": "520-85-4",
    "key_name": "Medroxyprogesterone",
    "cn_name": "甲孕酮;甲孕酮;",
    "alternate_name": "Pregn-4-ene-3,20-dione, 17-hydroxy-6-methyl-, (6α)-;Pregn-4-ene-3,20-dione, 17-hydroxy-6α-methyl-;Progesterone, 17-hydroxy-6α-methyl-;(6α)-17-Hydroxy-6-methylpregn-4-ene-3,20-dione;17-Hydroxy-6α-methylpregn-4-ene-3,20-dione;17α-Hydroxy-6α-methylprogesterone;Medroxyprogesteron;Medroxyprogesterone;6α-Methyl-17α-hydroxyprogesterone;U 8840;6α-Methyl-4-pregnen-17α-ol-3,20-dione;17-Hydroxy-6α-methylprogesterone;6α-Methyl-17-hydroxyprogesterone;6α-Methyl-17α-hydroxypregn-4-ene-3,20-dione;NSC 27408;6α-Methyl-17<em>R</em>-hydroxyprogesterone;Medoxyprogesterone;MeSH ID: D008525",
    "duplicated_cas_no": "1050678-90-4",
    "SMILES": "C[C@@]12[C@]([C@]3([C@@]([C@]4(C)C([C@@H](C)C3)=CC(=O)CC4)(CC1)[H])[H])(CC[C@@]2(C(C)=O)O)[H]",
    "meta_data": {
        "InChI": "InChI=1S/C22H32O3/c1-13-11-16-17(20(3)8-5-15(24)12-19(13)20)6-9-21(4)18(16)7-10-22(21,25)14(2)23/h12-13,16-18,25H,5-11H2,1-4H3/t13-,16+,17-,18-,20+,21-,22-/m0/s1",
        "InChIKey": null,
        "Canonical SMILES": "O=C1C=C2C(C)CC3C(CCC4(C)C3CCC4(O)C(=O)C)C2(C)CC1",
        "Molecular Formula": "C<sub>22</sub>H<sub>32</sub>O<sub>3</sub>",
        "Molecular Mass": "344.49",
        "Melting Point": "220-223.5 °C"
    }
}