{
    "cas_no": "10293-06-8",
    "key_name": "(+)-3-Bromocamphor",
    "cn_name": "右旋-3-溴樟脑;D-3-溴樟脑;",
    "alternate_name": "Bicyclo[2.2.1]heptan-2-one, 3-bromo-1,7,7-trimethyl-, (1<em>R</em>,3<em>S</em>,4<em>S</em>)-;2-Bornanone, 3-bromo-, (1<em>R</em>,3<em>S</em>,4<em>S</em>)-(+)-;Bicyclo[2.2.1]heptan-2-one, 3-bromo-1,7,7-trimethyl-, (1<em>R</em>-<em>endo</em>)-;Camphor, 3α-bromo-, (+)-;(1<em>R</em>,3<em>S</em>,4<em>S</em>)-3-Bromo-1,7,7-trimethylbicyclo[2.2.1]heptan-2-one;<em>endo</em>-(+)-3-Bromo-2-bornanone;(+)-3-Bromocamphor;(+)-<em>endo</em>-3-Bromocamphor;(1<em>R</em>-<em>endo</em>)-(+)-3-Bromocamphor;(1<em>R</em>)-<em>endo</em>-3-Bromocamphor;(1<em>R</em>-<em>endo</em>)-3-Bromo-1,7,7-trimethylbicyclo[2.2.1]heptan-2-one",
    "duplicated_cas_no": "",
    "SMILES": "C[C@@]12C(C)(C)[C@@]([C@H](Br)C1=O)(CC2)[H]",
    "meta_data": {
        "InChI": "InChI=1S/C10H15BrO/c1-9(2)6-4-5-10(9,3)8(12)7(6)11/h6-7H,4-5H2,1-3H3/t6-,7+,10+/m1/s1",
        "InChIKey": null,
        "Canonical SMILES": "O=C1C(Br)C2CCC1(C)C2(C)C",
        "Molecular Formula": "C<sub>10</sub>H<sub>15</sub>BrO",
        "Molecular Mass": "231.13",
        "Melting Point": "76 °C"
    }
}