{
    "cas_no": "2433-14-9",
    "key_name": "[Bicyclohexyl]-4-ol",
    "cn_name": "4-环已基环已醇;",
    "alternate_name": "[1,1′-Bicyclohexyl]-4-ol;[Bicyclohexyl]-4-ol;Cyclohexanol, 4-cyclohexyl-;4-Cyclohexylcyclohexanol;NSC 4177;[1,1′-Bi(cyclohexan)]-4-ol",
    "duplicated_cas_no": "",
    "SMILES": "OC1CCC(CC1)C2CCCCC2",
    "meta_data": {
        "InChI": "InChI=1S/C12H22O/c13-12-8-6-11(7-9-12)10-4-2-1-3-5-10/h10-13H,1-9H2",
        "InChIKey": null,
        "Canonical SMILES": "OC1CCC(CC1)C2CCCCC2",
        "Molecular Formula": "C<sub>12</sub>H<sub>22</sub>O",
        "Molecular Mass": "182.30",
        "Boiling Point": "105-110 °C @ Press: 0.5 Torr",
        "Melting Point": "94-98 °C"
    }
}