{
    "cas_no": "556-52-5",
    "key_name": "Glycidol",
    "cn_name": "缩水甘油;环氧丙醇;",
    "alternate_name": "2-Oxiranemethanol;Glycidol;1-Propanol, 2,3-epoxy-;Oxiranemethanol;Epihydrin alcohol;Glycidyl alcohol;3-Hydroxy-1,2-epoxypropane;Glycide;2,3-Epoxy-1-propanol;Allyl alcohol oxide;3-Hydroxypropylene oxide;1,2-Epoxy-3-hydroxypropane;1-Hydroxy-2,3-epoxypropane;2-(Hydroxymethyl)oxirane;Oxiranylmethanol;Epiol OH;(<em>RS</em>)-Glycidol;<em>dl</em>-Glycidol;(±)-Glycidol;(±)-2,3-Epoxy-1-propanol;Racemic glycidol;NSC 46096;Oxiran-2-ylmethanol",
    "duplicated_cas_no": "61915-27-3;98913-54-3;1852481-80-1",
    "SMILES": "C(O)C1CO1",
    "meta_data": {
        "InChI": "InChI=1S/C3H6O2/c4-1-3-2-5-3/h3-4H,1-2H2",
        "InChIKey": null,
        "Canonical SMILES": "OCC1OC1",
        "Molecular Formula": "C<sub>3</sub>H<sub>6</sub>O<sub>2</sub>",
        "Molecular Mass": "74.08",
        "Boiling Point": "160 °C @ Press: 760 Torr",
        "Melting Point": "-45 °C",
        "Density": "1.115 g/cm³ @ Temp: 20 °C"
    }
}