{
    "cas_no": "91-75-8",
    "key_name": "Antazoline",
    "cn_name": "安他唑啉;N-苄基-N-(4,5-二氢-1H-咪唑-2-基甲基)苯胺;",
    "alternate_name": "1<em>H</em>-Imidazole-2-methanamine, 4,5-dihydro-<em>N</em>-phenyl-<em>N</em>-(phenylmethyl)-;2-Imidazoline, 2-[(<em>N</em>-benzylanilino)methyl]-;4,5-Dihydro-<em>N</em>-phenyl-<em>N</em>-(phenylmethyl)-1<em>H</em>-imidazole-2-methanamine;Allergan A;Antazoline;Antistine;2-[(<em>N</em>-Benzylanilino)methyl]-2-imidazoline;Phenazoline;Analergine;MeSH ID: D000865",
    "duplicated_cas_no": "",
    "SMILES": "N(CC1=CC=CC=C1)(CC=2NCCN2)C3=CC=CC=C3",
    "meta_data": {
        "InChI": "InChI=1S/C17H19N3/c1-3-7-15(8-4-1)13-20(14-17-18-11-12-19-17)16-9-5-2-6-10-16/h1-10H,11-14H2,(H,18,19)",
        "InChIKey": null,
        "Canonical SMILES": "N1=C(NCC1)CN(C=2C=CC=CC2)CC=3C=CC=CC3",
        "Molecular Formula": "C<sub>17</sub>H<sub>19</sub>N<sub>3</sub>",
        "Molecular Mass": "265.35",
        "Melting Point": "120-122 °C"
    }
}