{
    "cas_no": "6017-21-6",
    "key_name": "2-(2-Phenyldiazenyl)propanedinitrile",
    "cn_name": null,
    "alternate_name": "Propanedinitrile, 2-(2-phenyldiazenyl)-;Malononitrile, (phenylazo)-;Propanedinitrile, (phenylazo)-;2-(2-Phenyldiazenyl)propanedinitrile;(Phenylazo)malonitrile;(Phenylazo)malononitrile;NSC 263832;2-(Phenyldiazenyl)malononitrile",
    "duplicated_cas_no": "",
    "SMILES": "N(=NC(C#N)C#N)C1=CC=CC=C1",
    "meta_data": {
        "InChI": "InChI=1S/C9H6N4/c10-6-9(7-11)13-12-8-4-2-1-3-5-8/h1-5,9H",
        "InChIKey": null,
        "Canonical SMILES": "N#CC(C#N)N=NC=1C=CC=CC1",
        "Molecular Formula": "C<sub>9</sub>H<sub>6</sub>N<sub>4</sub>",
        "Molecular Mass": "170.17",
        "Melting Point": "144-145 °C"
    }
}