{
    "cas_no": "462-94-2",
    "key_name": "Cadaverine",
    "cn_name": "1,5-二氨基戊烷;1,5-戊二胺;尸胺;",
    "alternate_name": "1,5-Pentanediamine;Cadaverine;1,5-Diaminopentane;Pentamethylenediamine;1,5-Pentamethylenediamine;1,5-Diamino-<em>n</em>-pentane;α,ω-Pentanediamine;1,5-Amylene diamine;MeSH ID: D002103",
    "duplicated_cas_no": "",
    "SMILES": "C(CCN)CCN",
    "meta_data": {
        "InChI": "InChI=1S/C5H14N2/c6-4-2-1-3-5-7/h1-7H2",
        "InChIKey": null,
        "Canonical SMILES": "NCCCCCN",
        "Molecular Formula": "C<sub>5</sub>H<sub>14</sub>N<sub>2</sub>",
        "Molecular Mass": "102.18",
        "Boiling Point": "179 °C",
        "Melting Point": "9 °C",
        "Density": "0.873 g/cm³"
    }
}