{
    "cas_no": "92-15-9",
    "key_name": "<em>o</em>-Acetoacetanisidide",
    "cn_name": "邻甲氧基-N-乙酰乙酰苯胺;乙酰乙酰邻甲氧基苯胺;",
    "alternate_name": "Butanamide, <em>N</em>-(2-methoxyphenyl)-3-oxo-;<em>o</em>-Acetoacetanisidide;<em>N</em>-(2-Methoxyphenyl)-3-oxobutanamide;Acetoacetyl-<em>o</em>-anisidine;<em>o</em>-Methoxyacetoacetanilide;2-(Acetoacetylamino)anisole;Acetoacetic acid <em>o</em>-anisidide;2′-Methoxyacetoacetanilide;Acetoacetyl-<em>o</em>-anisidide;1-Acetoacetylamino-2-methoxybenzene;<em>N</em>-Acetoacetyl-<em>o</em>-anisidine;Acetoacetic acid 2-methoxyanilide;Acetoacetic acid 2-anisidide;Acetoaceto-<em>o</em>-anisidide;Acetoacet-2-anisidide;NSC 7563;<em>N</em>-(2-Methoxyphenyl)acetoacetamide",
    "duplicated_cas_no": "",
    "SMILES": "N(C(CC(C)=O)=O)C1=C(OC)C=CC=C1",
    "meta_data": {
        "InChI": "InChI=1S/C11H13NO3/c1-8(13)7-11(14)12-9-5-3-4-6-10(9)15-2/h3-6H,7H2,1-2H3,(H,12,14)",
        "InChIKey": null,
        "Canonical SMILES": "O=C(NC=1C=CC=CC1OC)CC(=O)C",
        "Molecular Formula": "C<sub>11</sub>H<sub>13</sub>NO<sub>3</sub>",
        "Molecular Mass": "207.23",
        "Melting Point": "86-87 °C"
    }
}