{
    "cas_no": "7149-65-7",
    "key_name": "<span class=\"text-smallcaps\">L</span>-Pyroglutamic acid ethyl ester",
    "cn_name": "L-焦谷氨酸乙酯;(S)-(+)-2-吡咯酮-5-羧酸乙酯;",
    "alternate_name": "<span class=\"text-smallcaps\">L</span>-Proline, 5-oxo-, ethyl ester;Proline, 5-oxo-, ethyl ester, <span class=\"text-smallcaps\">L</span>-;Ethyl pyroglutamate;Ethyl <span class=\"text-smallcaps\">L</span>-pyroglutamate;<span class=\"text-smallcaps\">L</span>-2-Ethoxycarbonyl-5-pyrrolidone;Ethyl <span class=\"text-smallcaps\">L</span>-2-oxo-5-pyrrolidinecarboxylate;Ethyl <span class=\"text-smallcaps\">L</span>-2-pyrrolidone-5-carboxylate;<span class=\"text-smallcaps\">L</span>-Pyroglutamic acid ethyl ester;Ethyl (<em>S</em>)-pyroglutamate;Pyroglutamic acid ethyl ester;NSC 166529;NSC 72279;Ethyl (2<em>S</em>)-5-oxopyrrolidine-2-carboxylate;(<em>S</em>)-(+)-Ethyl 2-pyrrolidone-5-carboxylate;Ethyl 5-oxo-<span class=\"text-smallcaps\">L</span>-prolinate;(2<em>S</em>)-5-Oxopyrrolidine-2-carboxylic acid ethyl ester;Ethyl L-pyroglutamate;(<em>S</em>)-Ethyl 5-oxopyrrolidine-2-carboxylate",
    "duplicated_cas_no": "26206-32-6;51099-56-0;150133-58-7",
    "SMILES": "C(OCC)(=O)[C@@H]1CCC(=O)N1",
    "meta_data": {
        "InChI": "InChI=1S/C7H11NO3/c1-2-11-7(10)5-3-4-6(9)8-5/h5H,2-4H2,1H3,(H,8,9)/t5-/m0/s1",
        "InChIKey": null,
        "Canonical SMILES": "O=C1NC(C(=O)OCC)CC1",
        "Molecular Formula": "C<sub>7</sub>H<sub>11</sub>NO<sub>3</sub>",
        "Molecular Mass": "157.17",
        "Boiling Point": "140-145 °C @ Press: 1 Torr",
        "Melting Point": "55 °C"
    }
}