{
    "cas_no": "68-35-9",
    "key_name": "Sulfadiazine",
    "cn_name": "磺胺嘧啶;2-对氨基苯磺酰胺嘧啶;",
    "alternate_name": "Benzenesulfonamide, 4-amino-<em>N</em>-2-pyrimidinyl-;Sulfanilamide, <em>N</em><sup>1</sup>-2-pyrimidinyl-;Sulfanilamide, <em>N</em><sup>1</sup>-2(1<em>H</em>)-pyrimidinylidene-;4-Amino-<em>N</em>-2-pyrimidinylbenzenesulfonamide;RP 2616;Adiazine;Coco-Diazine;Cremodiazine;Debenal;Diazin;Di-Azo-Mul;Diazyl;Eskadiazine;Honey diazine;Lipo-Diazine;Lipo-Levazine;Microsulfon;Neazine;Pyrimal;<em>N</em><sup>1</sup>-2-Pyrimidylsulfanilamide;SDA;Spofadrizine;Sterazine;Sulfadiazine;2-Sulfanilamidopyrimidine;2-Sulfanilylaminopyrimidine;Sulfazine;Sulphadiazine;Sulfapyrimidine;Theradiazine;A 306;Sulfazin (Russian pharmaceutical);Sulfazin;Sulfadiazin;Adiazin;Pirimal;Sulfapirimidin;<em>N</em><sup>1</sup>-2-Pyrimidinylsulfanilamide;Liquadiazine;Sanodiazine;SN 112;Deltazina;Piridisir;Diazolone;Diazovit;2-(4-Aminobenzenesulfonamido)pyrimidine;Sulphadiazine E;Sulfadiazina Reig Jofre;Sulfolex;NSC 35600;2-(4-Aminobenzenesulfonylamino)pyrimidine;4-Amino-<em>N</em>-(2-pyrimidyl)benzenesulfonamide;2-(<em>p</em>-Aminobenzenesulfonamido)pyrimidin;4-[[(Pyrimidin-2-yl)amino]sulfonyl]aniline;MeSH ID: D013411",
    "duplicated_cas_no": "141582-64-1",
    "SMILES": "S(NC=1N=CC=CN1)(=O)(=O)C2=CC=C(N)C=C2",
    "meta_data": {
        "InChI": "InChI=1S/C10H10N4O2S/c11-8-2-4-9(5-3-8)17(15,16)14-10-12-6-1-7-13-10/h1-7H,11H2,(H,12,13,14)",
        "InChIKey": null,
        "Canonical SMILES": "O=S(=O)(NC1=NC=CC=N1)C2=CC=C(N)C=C2",
        "Molecular Formula": "C<sub>10</sub>H<sub>10</sub>N<sub>4</sub>O<sub>2</sub>S",
        "Molecular Mass": "250.28",
        "Melting Point": "255.5 °C (decomp)",
        "Density": "1.52 g/cm³"
    }
}