{
    "cas_no": "591-80-0",
    "key_name": "4-Pentenoic acid",
    "cn_name": "4-戊烯酸;烯丙基乙酸;",
    "alternate_name": "4-Pentenoic acid;Δ<sup>4</sup>-Pentenoic acid;Allylacetic acid;NSC 20944;NSC 9000;(3-Vinyl)propionic acid;MeSH ID: C009785",
    "duplicated_cas_no": "",
    "SMILES": "C(C(O)=O)CC=C",
    "meta_data": {
        "InChI": "InChI=1S/C5H8O2/c1-2-3-4-5(6)7/h2H,1,3-4H2,(H,6,7)",
        "InChIKey": null,
        "Canonical SMILES": "O=C(O)CCC=C",
        "Molecular Formula": "C<sub>5</sub>H<sub>8</sub>O<sub>2</sub>",
        "Molecular Mass": "100.12",
        "Boiling Point": "188.5 °C",
        "Melting Point": "-22.5 °C",
        "Density": "0.992 g/cm³ @ Temp: 15 °C"
    }
}