{
    "cas_no": "13106-85-9",
    "key_name": "2,4,6-Trimethoxypyrimidine",
    "cn_name": "2,4,6-三甲氧基嘧啶;",
    "alternate_name": "Pyrimidine, 2,4,6-trimethoxy-;2,4,6-Trimethoxypyrimidine",
    "duplicated_cas_no": "",
    "SMILES": "O(C)C=1C=C(OC)N=C(OC)N1",
    "meta_data": {
        "InChI": "InChI=1S/C7H10N2O3/c1-10-5-4-6(11-2)9-7(8-5)12-3/h4H,1-3H3",
        "InChIKey": null,
        "Canonical SMILES": "N=1C(=NC(OC)=CC1OC)OC",
        "Molecular Formula": "C<sub>7</sub>H<sub>10</sub>N<sub>2</sub>O<sub>3</sub>",
        "Molecular Mass": "170.17",
        "Melting Point": "53 °C"
    }
}