{
    "cas_no": "51225-28-6",
    "key_name": "6,8-Diprenylgenistein",
    "cn_name": null,
    "alternate_name": "4<em>H</em>-1-Benzopyran-4-one, 5,7-dihydroxy-3-(4-hydroxyphenyl)-6,8-bis(3-methyl-2-buten-1-yl)-;4<em>H</em>-1-Benzopyran-4-one, 5,7-dihydroxy-3-(4-hydroxyphenyl)-6,8-bis(3-methyl-2-butenyl)-;5,7-Dihydroxy-3-(4-hydroxyphenyl)-6,8-bis(3-methyl-2-buten-1-yl)-4<em>H</em>-1-benzopyran-4-one;5,7,4′-Trihydroxy-6,8-diprenylisoflavone;6,8-Diprenylgenistein;8-(γ,γ-Dimethylallyl)wighteone;6,8-Di-(3,3-dimethylallyl)genistein;5,7-Dihydroxy-3-(4-hydroxyphenyl)-6,8-bis(3-methylbut-2-en-1-yl)-4<em>H</em>-chromen-4-one",
    "duplicated_cas_no": "",
    "SMILES": "O=C1C=2C(=C(CC=C(C)C)C(O)=C(CC=C(C)C)C2O)OC=C1C3=CC=C(O)C=C3",
    "meta_data": {
        "InChI": "InChI=1S/C25H26O5/c1-14(2)5-11-18-22(27)19(12-6-15(3)4)25-21(23(18)28)24(29)20(13-30-25)16-7-9-17(26)10-8-16/h5-10,13,26-28H,11-12H2,1-4H3",
        "InChIKey": null,
        "Canonical SMILES": "O=C1C(=COC2=C1C(O)=C(C(O)=C2CC=C(C)C)CC=C(C)C)C=3C=CC(O)=CC3",
        "Molecular Formula": "C<sub>25</sub>H<sub>26</sub>O<sub>5</sub>",
        "Molecular Mass": "406.47",
        "Melting Point": "140-142 °C"
    }
}