{
    "cas_no": "625-52-5",
    "key_name": "Ethylurea",
    "cn_name": "N-乙基脲;",
    "alternate_name": "Urea, <em>N</em>-ethyl-;Urea, ethyl-;<em>N</em>-Ethylurea;Ethylurea;1-Ethylurea;NSC 53556",
    "duplicated_cas_no": "",
    "SMILES": "N(C(N)=O)CC",
    "meta_data": {
        "InChI": "InChI=1S/C3H8N2O/c1-2-5-3(4)6/h2H2,1H3,(H3,4,5,6)",
        "InChIKey": null,
        "Canonical SMILES": "O=C(N)NCC",
        "Molecular Formula": "C<sub>3</sub>H<sub>8</sub>N<sub>2</sub>O",
        "Molecular Mass": "88.11",
        "Melting Point": "92.5 °C",
        "Density": "1.1691 g/cm³"
    }
}