{
    "cas_no": "15484-80-7",
    "key_name": "Ethenyl 4-(1,1-dimethylethyl)benzoate",
    "cn_name": "4-叔丁基苯甲酸乙烯酯;",
    "alternate_name": "Benzoic acid, 4-(1,1-dimethylethyl)-, ethenyl ester;Benzoic acid, <em>p</em>-<em>tert</em>-butyl-, vinyl ester;Ethenyl 4-(1,1-dimethylethyl)benzoate;Vinyl 4-(1,1-dimethylethyl)benzoate;Vinyl <em>p</em>-<em>tert</em>-butylbenzoate;Vinyl 4-<em>tert</em>-butylbenzoate",
    "duplicated_cas_no": "",
    "SMILES": "C(OC=C)(=O)C1=CC=C(C(C)(C)C)C=C1",
    "meta_data": {
        "InChI": "InChI=1S/C13H16O2/c1-5-15-12(14)10-6-8-11(9-7-10)13(2,3)4/h5-9H,1H2,2-4H3",
        "InChIKey": null,
        "Canonical SMILES": "O=C(OC=C)C1=CC=C(C=C1)C(C)(C)C",
        "Molecular Formula": "C<sub>13</sub>H<sub>16</sub>O<sub>2</sub>",
        "Molecular Mass": "204.26",
        "Boiling Point": "100-105 °C @ Press: 0.5 Torr",
        "Density": "1.0029 g/cm³ @ Temp: 20 °C"
    }
}