{
    "cas_no": "109-83-1",
    "key_name": "2-(Methylamino)ethanol",
    "cn_name": "N-甲基-2-羟基乙胺;N-甲基单乙醇胺;2-甲氨基乙醇;",
    "alternate_name": "Ethanol, 2-(methylamino)-;2-(Methylamino)ethanol;β-(Methylamino)ethanol;<em>N</em>-Methylethanolamine;Methylethylolamine;Methyl(β-hydroxyethyl)amine;<em>N</em>-Monomethylaminoethanol;Monomethylethanolamine;<em>N</em>-Methylmonoethanolamine;2-<em>N</em>-Monomethylaminoethanol;Methylethanolamine;Methylaminoethanol;Monomethylaminoethanol;Monomethylmonoethanolamine;(2-Hydroxyethyl)methylamine;<em>N</em>-Methyl-<em>N</em>-hydroxyethylamine;Methyl(hydroxyethyl)amine;<em>N</em>-Methylaminoethanol;<em>N</em>-Methyl-<em>N</em>-(2-hydroxyethyl)amine;<em>N</em>-Methyl-2-aminoethanol;<em>N</em>-Methyl-2-hydroxyethylamine;(Hydroxyethyl)methylamine;2-(<em>N</em>-Methylamino)ethanol;Methyl(2-hydroxyethyl)amine;<em>N</em>-(2-Hydroxyethyl)methylamine;<em>N</em>-Methyl-2-ethanolamine;2-Hydroxy-<em>N</em>-methylethylamine;<em>N</em>-Methyl-<em>N</em>-(β-hydroxyethyl)amine;<em>N</em>-Monomethylethanolamine;Amietol M 11;2-Hydroxyethyl-<em>N</em>-methylamine;2-Methylamino-1-ethanol;NMEA;<em>N</em>-(2-Hydroxyethyl)-<em>N</em>-methylamine;NSC 62776;Amino Alcohol MMA;<em>N</em>-Methyl-2-hydroxyethanamine;Yubao",
    "duplicated_cas_no": "1428190-92-4",
    "SMILES": "C(CO)NC",
    "meta_data": {
        "InChI": "InChI=1S/C3H9NO/c1-4-2-3-5/h4-5H,2-3H2,1H3",
        "InChIKey": null,
        "Canonical SMILES": "OCCNC",
        "Molecular Formula": "C<sub>3</sub>H<sub>9</sub>NO",
        "Molecular Mass": "75.11",
        "Boiling Point": "155-156 °C @ Press: 760 Torr",
        "Melting Point": "-4.5 °C",
        "Density": "0.937 g/cm³ @ Temp: 20 °C"
    }
}