{
    "cas_no": "1314-36-9",
    "key_name": "Yttrium sesquioxide",
    "cn_name": "氧化钇;",
    "alternate_name": "Yttrium oxide (Y<sub>2</sub>O<sub>3</sub>);Yttria;Yttrium sesquioxide;Diyttrium trioxide;Yttrium trioxide;Yttrium(3+) oxide;Yttrium(III) oxide;Yttrium oxide;YO 3-245;Yttrium oxide (YO<sub>1.5</sub>);Y-F;Nanotek Y<sub>2</sub>O<sub>3</sub>;RU-PB;PC-YH;SY (oxide);SY;BB;BB (metal oxide);FCD-660-2;Y-F (metal oxide);YYO 01PA;PC Y 350;Yttrium oxide grade C;Type BB;Amperit 849.054;NR;RU-P (oxide);RU-P;SSE-R1-7;FY-10;FY-7;FY-5;FY-2;YYK01LB Y-03;N-YT 4CP;5610ZQ;UG-Y 01;YT 3CP",
    "duplicated_cas_no": "1123577-09-2;1352121-27-7;2521566-60-7;2706548-41-4",
    "SMILES": "",
    "meta_data": {
        "InChI": "",
        "InChIKey": null,
        "Canonical SMILES": "",
        "Molecular Formula": "O<sub>3</sub>Y<sub>2</sub>",
        "Molecular Mass": "",
        "Melting Point": "2415 °C",
        "Density": "4.86 g/cm³"
    }
}