{
    "cas_no": "141645-16-1",
    "key_name": "2-(<em>n</em>-Butyl)-3-(4-hydroxybenzoyl)-5-nitrobenzofuran",
    "cn_name": null,
    "alternate_name": "Methanone, (2-butyl-5-nitro-3-benzofuranyl)(4-hydroxyphenyl)-;(2-Butyl-5-nitro-3-benzofuranyl)(4-hydroxyphenyl)methanone;2-(<em>n</em>-Butyl)-3-(4-hydroxybenzoyl)-5-nitrobenzofuran;2-Butyl-3-(4-hydroxybenzoyl)-5-nitrobenzofuran;(2-Butyl-5-nitrobenzo[<em>b</em>]furan-3-yl)(4-hydroxyphenyl)methanone;(2-Butyl-5-nitrobenzofuran-3-yl)(4-hydroxyphenyl)methanone;(2-Butyl-5-nitro-1-benzofuran-3-yl)-(4-hydroxyphenyl)methanone",
    "duplicated_cas_no": "",
    "SMILES": "C(=O)(C=1C=2C(OC1CCCC)=CC=C(N(=O)=O)C2)C3=CC=C(O)C=C3",
    "meta_data": {
        "InChI": "InChI=1S/C19H17NO5/c1-2-3-4-17-18(19(22)12-5-8-14(21)9-6-12)15-11-13(20(23)24)7-10-16(15)25-17/h5-11,21H,2-4H2,1H3",
        "InChIKey": null,
        "Canonical SMILES": "O=C(C1=CC=C(O)C=C1)C=2C=3C=C(C=CC3OC2CCCC)N(=O)=O",
        "Molecular Formula": "C<sub>19</sub>H<sub>17</sub>NO<sub>5</sub>",
        "Molecular Mass": "339.34",
        "Melting Point": "120-122 °C"
    }
}