{
    "cas_no": "1006-99-1",
    "key_name": "5-Chloro-2-methylbenzothiazole",
    "cn_name": "5-氯-2-甲基苯并噻唑;",
    "alternate_name": "Benzothiazole, 5-chloro-2-methyl-;5-Chloro-2-methylbenzothiazole;2-Methyl-5-chlorobenzothiazole;NSC 8453;5-Chloro-2-methyl-1,3-benzothiazole;5-Chloro-2-methylbenzo[<em>d</em>]thiazole",
    "duplicated_cas_no": "",
    "SMILES": "CC=1SC=2C(N1)=CC(Cl)=CC2",
    "meta_data": {
        "InChI": "InChI=1S/C8H6ClNS/c1-5-10-7-4-6(9)2-3-8(7)11-5/h2-4H,1H3",
        "InChIKey": null,
        "Canonical SMILES": "ClC=1C=CC=2SC(=NC2C1)C",
        "Molecular Formula": "C<sub>8</sub>H<sub>6</sub>ClNS",
        "Molecular Mass": "183.66",
        "Boiling Point": "70-90 °C",
        "Melting Point": "62 °C"
    }
}