{
    "cas_no": "621-90-9",
    "key_name": "<em>N</em>-Methyl-4-(2-phenyldiazenyl)benzenamine",
    "cn_name": "4-甲氨基偶氮苯;",
    "alternate_name": "Benzenamine, <em>N</em>-methyl-4-(2-phenyldiazenyl)-;Aniline, <em>N</em>-methyl-<em>p</em>-(phenylazo)-;Benzenamine, <em>N</em>-methyl-4-(phenylazo)-;<em>N</em>-Methyl-4-(2-phenyldiazenyl)benzenamine;MAB;<em>N</em>-Methyl-4-aminoazobenzene;4-(Methylamino)azobenzene;<em>p</em>-(Methylamino)azobenzene;<em>p</em>-(Phenylazo)-<em>N</em>-methylaniline;<em>N</em>-Methyl-4-(phenylazo)aniline",
    "duplicated_cas_no": "",
    "SMILES": "N(=NC1=CC=CC=C1)C2=CC=C(NC)C=C2",
    "meta_data": {
        "InChI": "InChI=1S/C13H13N3/c1-14-11-7-9-13(10-8-11)16-15-12-5-3-2-4-6-12/h2-10,14H,1H3",
        "InChIKey": null,
        "Canonical SMILES": "N(=NC1=CC=C(C=C1)NC)C=2C=CC=CC2",
        "Molecular Formula": "C<sub>13</sub>H<sub>13</sub>N<sub>3</sub>",
        "Molecular Mass": "211.26",
        "Boiling Point": "143-144 °C @ Press: 1 x 10<sup>-5</sup> Torr",
        "Melting Point": "89-90 °C"
    }
}