{
    "cas_no": "80-99-9",
    "key_name": "Lathosterol",
    "cn_name": null,
    "alternate_name": "Cholest-7-en-3-ol, (3β,5α)-;5α-Cholest-7-en-3β-ol;(3β,5α)-Cholest-7-en-3-ol;Lathosterol;3β-Hydroxy-5α-cholest-7-ene;Δ<sup>7</sup>-Cholestenol;γ-Cholestenol;Cholest-7-en-3-ol;7-En-3-cholestanol",
    "duplicated_cas_no": "",
    "SMILES": "C[C@@]12[C@](C=3[C@@]([C@]4(C)[C@@](CC3)(C[C@@H](O)CC4)[H])(CC1)[H])(CC[C@@]2([C@@H](CCCC(C)C)C)[H])[H]",
    "meta_data": {
        "InChI": "InChI=1S/C27H46O/c1-18(2)7-6-8-19(3)23-11-12-24-22-10-9-20-17-21(28)13-15-26(20,4)25(22)14-16-27(23,24)5/h10,18-21,23-25,28H,6-9,11-17H2,1-5H3/t19-,20+,21+,23-,24+,25+,26+,27-/m1/s1",
        "InChIKey": null,
        "Canonical SMILES": "OC1CCC2(C)C3C(=CCC2C1)C4CCC(C(C)CCCC(C)C)C4(C)CC3",
        "Molecular Formula": "C<sub>27</sub>H<sub>46</sub>O",
        "Molecular Mass": "386.65",
        "Melting Point": "122-123 °C"
    }
}