{
    "cas_no": "27958-77-6",
    "key_name": "3-Amino-<em>N</em>,<em>N</em>-dimethylbenzenemethanamine",
    "cn_name": null,
    "alternate_name": "Benzenemethanamine, 3-amino-<em>N</em>,<em>N</em>-dimethyl-;Toluene-α,3-diamine, <em>N</em><sup>α</sup>,<em>N</em><sup>α</sup>-dimethyl-;3-Amino-<em>N</em>,<em>N</em>-dimethylbenzenemethanamine;3-(Dimethylaminomethyl)aniline;[3-[(Dimethylamino)methyl]phenyl]amine;NSC 207809",
    "duplicated_cas_no": "",
    "SMILES": "C(N(C)C)C1=CC(N)=CC=C1",
    "meta_data": {
        "InChI": "InChI=1S/C9H14N2/c1-11(2)7-8-4-3-5-9(10)6-8/h3-6H,7,10H2,1-2H3",
        "InChIKey": null,
        "Canonical SMILES": "NC1=CC=CC(=C1)CN(C)C",
        "Molecular Formula": "C<sub>9</sub>H<sub>14</sub>N<sub>2</sub>",
        "Molecular Mass": "150.22",
        "Boiling Point": "130 °C @ Press: 0.1 Torr",
        "Melting Point": "44-46 °C"
    }
}