{
    "cas_no": "76-25-5",
    "key_name": "Triamcinolone acetonide",
    "cn_name": "曲安奈德;9-氟-11b,21-二羟基-16a,17-[(1-甲基亚乙基)双(氧)]-孕甾-1,4-二烯-3,20-二酮;",
    "alternate_name": "Pregna-1,4-diene-3,20-dione, 9-fluoro-11,21-dihydroxy-16,17-[(1-methylethylidene)bis(oxy)]-, (11β,16α)-;Pregna-1,4-diene-3,20-dione, 9-fluoro-11β,16α,17,21-tetrahydroxy-, cyclic 16,17-acetal with acetone;(11β,16α)-9-Fluoro-11,21-dihydroxy-16,17-[(1-methylethylidene)bis(oxy)]pregna-1,4-diene-3,20-dione;Aristocort acetonide;Aristoderm;9α-Fluoro-11β,21-dihydroxy-16α,17α-isopropylidenedioxy-1,4-pregnadiene-3,20-dione;9α-Fluoro-16α-hydroxyprednisolone 16α,17α-acetonide;Kenalog;Triamcinolone acetonide;Triamcinolone 16,17-acetonide;Paralen;Kenacort A;9-Fluoro-11β,16α,17,21-tetrahydroxypregna-1,4-diene-3,20-dione-16,17-acetonide;9-Fluoro-11β,21-dihydroxy-16α,17-(isopropylidenedioxy)pregna-1,4-diene-3,20-dione;9-Fluoro-11β,21-dihydroxy-16α,17α-(isopropylidenedioxy)pregna-1,4-diene-3,20-dione;Volon A;Adcortyl A;Solodelf;Vetalog;Omcilon A;Queyanshusong A;Triamcinolone 16α,17α-acetonide;Kenalog 10;Trianopollon;Azmacort;Kenacort 80;Aftach;Nasacort;Triam;Extracort;Trymex;TAC 40;Tramacin;Respicort;Rineton;TAC 3;Ftorocort;Triamonide 40;Volonimat;Tricinolon;Triacet;Ledercort Cream;Delphicort;Adcortyl;Tri-Nasal;NSC 21916;Triamcort-Depot;Aristocort A;Kenacort A 40;Aristicort;Lichtena;Triamhexal;Vetazine;Kenalog 40;Tamceton;Berlicort;Kenacort 40;Pol'kortolon;Triakort;Trivaris;Triesence;I-Vation;Valon A 10;MaQuaid;Rheudenolone;MeSH ID: D014222",
    "duplicated_cas_no": "138265-06-2;8054-16-8;13586-95-3;911437-91-7",
    "SMILES": "C(CO)(=O)[C@]12[C@]3(C)[C@@](C[C@]1(OC(C)(C)O2)[H])([C@]4([C@](F)([C@@H](O)C3)[C@]5(C)C(CC4)=CC(=O)C=C5)[H])[H]",
    "meta_data": {
        "InChI": "InChI=1S/C24H31FO6/c1-20(2)30-19-10-16-15-6-5-13-9-14(27)7-8-21(13,3)23(15,25)17(28)11-22(16,4)24(19,31-20)18(29)12-26/h7-9,15-17,19,26,28H,5-6,10-12H2,1-4H3/t15-,16-,17-,19+,21-,22-,23-,24+/m0/s1",
        "InChIKey": null,
        "Canonical SMILES": "O=C1C=CC2(C(=C1)CCC3C4CC5OC(OC5(C(=O)CO)C4(C)CC(O)C32F)(C)C)C",
        "Molecular Formula": "C<sub>24</sub>H<sub>31</sub>FO<sub>6</sub>",
        "Molecular Mass": "434.50",
        "Melting Point": "293 °C"
    }
}