{
    "cas_no": "104-53-0",
    "key_name": "Benzenepropanal",
    "cn_name": "苯丙醛;苄基乙醛;",
    "alternate_name": "Benzenepropanal;Hydrocinnamaldehyde;Benzylacetaldehyde;Hydrocinnamic aldehyde;3-Phenylpropanal;β-Phenylpropionaldehyde;3-Phenylpropyl aldehyde;3-Phenylpropionaldehyde;3-Phenyl-1-propanal;Dihydrocinnamaldehyde;NSC 9271;3-Phenylpropanaldehyde",
    "duplicated_cas_no": "719304-66-2",
    "SMILES": "C(CC=O)C1=CC=CC=C1",
    "meta_data": {
        "InChI": "InChI=1S/C9H10O/c10-8-4-7-9-5-2-1-3-6-9/h1-3,5-6,8H,4,7H2",
        "InChIKey": null,
        "Canonical SMILES": "O=CCCC=1C=CC=CC1",
        "Molecular Formula": "C<sub>9</sub>H<sub>10</sub>O",
        "Molecular Mass": "134.18",
        "Boiling Point": "224 °C",
        "Melting Point": "47 °C",
        "Density": "1.018 g/cm³ @ Temp: 20 °C"
    }
}