{
    "cas_no": "103-75-3",
    "key_name": "2-Ethoxy-3,4-dihydro-2<em>H</em>-pyran",
    "cn_name": "2-乙氧基-3,4-二氢吡喃;2-乙氧基-3,4-二氢吡喃;2-乙氧基-3,4-二氢-2H-吡喃;3,4-二氢-2-乙氧基-2H-吡喃;",
    "alternate_name": "2<em>H</em>-Pyran, 2-ethoxy-3,4-dihydro-;2-Ethoxy-3,4-dihydro-2<em>H</em>-pyran;2-Ethoxy-2,3-dihydro-γ-pyran;2-Ethoxy-2,3-dihydro-4<em>H</em>-pyran;2-Ethoxy-3,4-dihydropyran;3,4-Dihydro-2-ethoxy-2<em>H</em>-pyran;3,4-Dihydro-2-ethoxypyran;(±)-3,4-Dihydro-2-ethoxy-2<em>H</em>-pyran;(±)-2-Ethoxy-3,4-dihydro-2<em>H</em>-pyran;NSC 6271;3,4-Dihydro-2<em>H</em>-pyran-2-yl ethyl ether;3,4-Dihydro-2-ethoxy-2<em>H</em>-Pyrane",
    "duplicated_cas_no": "126753-01-3",
    "SMILES": "O(CC)C1CCC=CO1",
    "meta_data": {
        "InChI": "InChI=1S/C7H12O2/c1-2-8-7-5-3-4-6-9-7/h4,6-7H,2-3,5H2,1H3",
        "InChIKey": null,
        "Canonical SMILES": "O1C=CCCC1OCC",
        "Molecular Formula": "C<sub>7</sub>H<sub>12</sub>O<sub>2</sub>",
        "Molecular Mass": "128.17",
        "Boiling Point": "143 °C",
        "Density": "0.970 g/cm³ @ Temp: 20 °C"
    }
}