{
    "cas_no": "7790-94-5",
    "key_name": "Chlorosulfonic acid",
    "cn_name": "氯磺酸;",
    "alternate_name": "Chlorosulfuric acid;Chlorosulfonic acid;Sulfuric chlorohydrin;Monochlorosulfuric acid;Sulfuric acid chlorohydrin;Monochlorosulfonic acid",
    "duplicated_cas_no": "127529-03-7",
    "SMILES": "S(Cl)(=O)(=O)O",
    "meta_data": {
        "InChI": "InChI=1S/ClHO3S/c1-5(2,3)4/h(H,2,3,4)",
        "InChIKey": null,
        "Canonical SMILES": "O=S(=O)(Cl)O",
        "Molecular Formula": "ClHO<sub>3</sub>S",
        "Molecular Mass": "116.52",
        "Boiling Point": "60-64 °C @ Press: 2-4 Torr",
        "Melting Point": "-80 °C",
        "Density": "1.753 g/cm³ @ Temp: 20 °C"
    }
}