{
    "cas_no": "16681-68-8",
    "key_name": "1<em>H</em>-1,2,3-Triazole-5-carboxaldehyde",
    "cn_name": null,
    "alternate_name": "1<em>H</em>-1,2,3-Triazole-5-carboxaldehyde;<em>v</em>-Triazole-4-carboxaldehyde;1<em>H</em>-1,2,3-Triazole-4-carboxaldehyde;NSC 20115;1<em>H</em>-1,2,3-Triazole-5-carbaldehyde;1<em>H</em>-[1,2,3]Triazole-4-carbaldehyde;1<em>H</em>-1,2,3-Triazole-4-carbaldehyde;2<em>H</em>-Triazole-4-carbaldehyde",
    "duplicated_cas_no": "82942-17-4",
    "SMILES": "C(=O)C1=CN=NN1",
    "meta_data": {
        "InChI": "InChI=1S/C3H3N3O/c7-2-3-1-4-6-5-3/h1-2H,(H,4,5,6)",
        "InChIKey": null,
        "Canonical SMILES": "O=CC1=CN=NN1",
        "Molecular Formula": "C<sub>3</sub>H<sub>3</sub>N<sub>3</sub>O",
        "Molecular Mass": "97.08",
        "Melting Point": "141-142 °C"
    }
}