{
    "cas_no": "13371-17-0",
    "key_name": "Phosphonium, butyltriphenyl-, chloride (1:1)",
    "cn_name": "丁基三苯基氯化膦;",
    "alternate_name": "Phosphonium, butyltriphenyl-, chloride (1:1);Phosphonium, butyltriphenyl-, chloride;Butyltriphenylphosphonium chloride;Triphenylbutylphosphonium chloride;<em>n</em>-Butyl(triphenyl)phosphonium chloride",
    "duplicated_cas_no": "",
    "SMILES": "[P+](CCCC)(C1=CC=CC=C1)(C2=CC=CC=C2)C3=CC=CC=C3.[Cl-]",
    "meta_data": {
        "InChI": "InChI=1S/C22H24P.ClH/c1-2-3-19-23(20-13-7-4-8-14-20,21-15-9-5-10-16-21)22-17-11-6-12-18-22;/h4-18H,2-3,19H2,1H3;1H/q+1;/p-1",
        "InChIKey": null,
        "Canonical SMILES": "[Cl-].C=1C=CC(=CC1)[P+](C=2C=CC=CC2)(C=3C=CC=CC3)CCCC",
        "Molecular Formula": "C<sub>22</sub>H<sub>24</sub>P.Cl",
        "Molecular Mass": "",
        "Melting Point": "220-222 °C"
    }
}