{
    "cas_no": "1838-08-0",
    "key_name": "Octadecylammonium chloride",
    "cn_name": null,
    "alternate_name": "1-Octadecanamine, hydrochloride (1:1);Octadecylamine, hydrochloride;1-Octadecanamine, hydrochloride;Octadecylammonium chloride;Stearylamine hydrochloride;Farmin R 86H;1-Aminooctadecane hydrochloride;<em>n</em>-Octadecylamine hydrochloride;Stearylammonium chloride;<em>n</em>-Octadecanylamine hydrochloride",
    "duplicated_cas_no": "",
    "SMILES": "C(CCCCCCCCC)CCCCCCCCN.Cl",
    "meta_data": {
        "InChI": "InChI=1S/C18H39N.ClH/c1-2-3-4-5-6-7-8-9-10-11-12-13-14-15-16-17-18-19;/h2-19H2,1H3;1H",
        "InChIKey": null,
        "Canonical SMILES": "Cl.NCCCCCCCCCCCCCCCCCC",
        "Molecular Formula": "C<sub>18</sub>H<sub>39</sub>N.ClH",
        "Molecular Mass": "",
        "Melting Point": "162-163 °C"
    }
}