{
    "cas_no": "53780-34-0",
    "key_name": "Mefluidide",
    "cn_name": "伏草胺;",
    "alternate_name": "Acetamide, <em>N</em>-[2,4-dimethyl-5-[[(trifluoromethyl)sulfonyl]amino]phenyl]-;<em>N</em>-[2,4-Dimethyl-5-[[(trifluoromethyl)sulfonyl]amino]phenyl]acetamide;5-Acetamido-2,4-dimethyltrifluoromethanesulfonanilide;MBR 12325;Mefluidide;Embark;VEL 3973;Embark 2S;Vistar;Trim-Cut",
    "duplicated_cas_no": "55584-91-3;55599-99-0",
    "SMILES": "N(S(C(F)(F)F)(=O)=O)C1=CC(NC(C)=O)=C(C)C=C1C",
    "meta_data": {
        "InChI": "InChI=1S/C11H13F3N2O3S/c1-6-4-7(2)10(5-9(6)15-8(3)17)16-20(18,19)11(12,13)14/h4-5,16H,1-3H3,(H,15,17)",
        "InChIKey": null,
        "Canonical SMILES": "O=C(NC=1C=C(NS(=O)(=O)C(F)(F)F)C(=CC1C)C)C",
        "Molecular Formula": "C<sub>11</sub>H<sub>13</sub>F<sub>3</sub>N<sub>2</sub>O<sub>3</sub>S",
        "Molecular Mass": "310.29",
        "Melting Point": "184 °C"
    }
}