{
    "cas_no": "6099-03-2",
    "key_name": "2-Methoxycinnamic acid",
    "cn_name": null,
    "alternate_name": "2-Propenoic acid, 3-(2-methoxyphenyl)-;Cinnamic acid, <em>o</em>-methoxy-;3-(2-Methoxyphenyl)-2-propenoic acid;<em>o</em>-Methoxycinnamic acid;2-Methoxycinnamic acid;NSC 638141;NSC 8135;NCI 8135;3-(2-Methoxyphenyl)acrylic acid",
    "duplicated_cas_no": "",
    "SMILES": "C(=CC(O)=O)C1=C(OC)C=CC=C1",
    "meta_data": {
        "InChI": "InChI=1S/C10H10O3/c1-13-9-5-3-2-4-8(9)6-7-10(11)12/h2-7H,1H3,(H,11,12)",
        "InChIKey": null,
        "Canonical SMILES": "O=C(O)C=CC=1C=CC=CC1OC",
        "Molecular Formula": "C<sub>10</sub>H<sub>10</sub>O<sub>3</sub>",
        "Molecular Mass": "178.18",
        "Melting Point": "183 °C"
    }
}