{
    "cas_no": "2157-45-1",
    "key_name": "Silicic acid (H<sub>4</sub>SiO<sub>4</sub>) tetrakis(2-methoxyethyl) ester",
    "cn_name": "四(2-甲氧基乙氧基)硅烷;四(2-甲氧乙醇)硅酸酯;",
    "alternate_name": "Silicic acid (H<sub>4</sub>SiO<sub>4</sub>), tetrakis(2-methoxyethyl) ester;Ethanol, 2-methoxy-, tetraester with silicic acid (H<sub>4</sub>SiO<sub>4</sub>);Ethanol, 2-methoxy-, silicate;Silicic acid (H<sub>4</sub>SiO<sub>4</sub>) tetrakis(2-methoxyethyl) ester;Tetra(methoxyethoxy)silane;Tetrakis(2-methoxyethoxy)silane;Tetrakis(β-methoxyethyl) silicate;Tetrakis(2-methoxyethyl) silicate;Tetra(β-methoxyethyl) orthosilicate;Tetrakis(methoxyethoxy)silane;NSC 252165;Tetra(2-methoxyethoxy)silane",
    "duplicated_cas_no": "",
    "SMILES": "[Si](OCCOC)(OCCOC)(OCCOC)OCCOC",
    "meta_data": {
        "InChI": "InChI=1S/C12H28O8Si/c1-13-5-9-17-21(18-10-6-14-2,19-11-7-15-3)20-12-8-16-4/h5-12H2,1-4H3",
        "InChIKey": null,
        "Canonical SMILES": "O(C)CCO[Si](OCCOC)(OCCOC)OCCOC",
        "Molecular Formula": "C<sub>12</sub>H<sub>28</sub>O<sub>8</sub>Si",
        "Molecular Mass": "328.43",
        "Boiling Point": "179-182 °C @ Press: 10 Torr",
        "Density": "1.079 g/cm³"
    }
}