{
    "cas_no": "627-31-6",
    "key_name": "1,3-Diiodopropane",
    "cn_name": "1,3-二碘丙烷;1,3-二碘代丙烷;",
    "alternate_name": "Propane, 1,3-diiodo-;1,3-Diiodopropane;Trimethylene diiodide;α,ω-Diiodopropane;NSC 35647",
    "duplicated_cas_no": "",
    "SMILES": "C(CI)CI",
    "meta_data": {
        "InChI": "InChI=1S/C3H6I2/c4-2-1-3-5/h1-3H2",
        "InChIKey": null,
        "Canonical SMILES": "ICCCI",
        "Molecular Formula": "C<sub>3</sub>H<sub>6</sub>I<sub>2</sub>",
        "Molecular Mass": "295.89",
        "Boiling Point": "88-89 °C @ Press: 6 Torr",
        "Melting Point": "-20 °C",
        "Density": "2.571 g/cm³ @ Temp: 20 °C"
    }
}