{
    "cas_no": "32887-01-7",
    "key_name": "Mecillinam",
    "cn_name": "美西林;氮脒青霉素;(2S,5R,6R)-6-(氮杂卓烷-1-基亚甲基氨基)-3,3-二甲基-7-氧代-4-硫杂-1-氮杂双环[3.2.0];",
    "alternate_name": "4-Thia-1-azabicyclo[3.2.0]heptane-2-carboxylic acid, 6-[[(hexahydro-1<em>H</em>-azepin-1-yl)methylene]amino]-3,3-dimethyl-7-oxo-, (2<em>S</em>,5<em>R</em>,6<em>R</em>)-;4-Thia-1-azabicyclo[3.2.0]heptane-2-carboxylic acid, 6-[[(hexahydro-1<em>H</em>-azepin-1-yl)methylene]amino]-3,3-dimethyl-7-oxo-, [2<em>S</em>-(2α,5α,6β)]-;4-Thia-1-azabicyclo[3.2.0]heptane-2-carboxylic acid, 6-[[(hexahydro-1<em>H</em>-azepin-1-yl)methylene]amino]-3,3-dimethyl-7-oxo-, (+)-;(2<em>S</em>,5<em>R</em>,6<em>R</em>)-6-[[(Hexahydro-1<em>H</em>-azepin-1-yl)methylene]amino]-3,3-dimethyl-7-oxo-4-thia-1-azabicyclo[3.2.0]heptane-2-carboxylic acid;6β-[(Hexahydro-1<em>H</em>-azepin-1-yl)methyleneamino]penicillanic acid;FL 1060;6-[[(Hexahydro-1<em>H</em>-azepin-1-yl)methylene]amino]penicillanic acid;Mecillinam;Penicillin Hx;Hexacillin;Amdinocillin;Hexapen;Coactin",
    "duplicated_cas_no": "51556-89-9;70178-27-7;73937-07-2;79580-20-4",
    "SMILES": "C(O)(=O)[C@@H]1N2[C@@]([C@H](N=CN3CCCCCC3)C2=O)(SC1(C)C)[H]",
    "meta_data": {
        "InChI": "InChI=1S/C15H23N3O3S/c1-15(2)11(14(20)21)18-12(19)10(13(18)22-15)16-9-17-7-5-3-4-6-8-17/h9-11,13H,3-8H2,1-2H3,(H,20,21)/t10-,11+,13-/m1/s1",
        "InChIKey": null,
        "Canonical SMILES": "O=C(O)C1N2C(=O)C(N=CN3CCCCCC3)C2SC1(C)C",
        "Molecular Formula": "C<sub>15</sub>H<sub>23</sub>N<sub>3</sub>O<sub>3</sub>S",
        "Molecular Mass": "325.43",
        "Melting Point": "156 °C (decomp)"
    }
}