{
    "cas_no": "614-77-7",
    "key_name": "<em>N</em>-(2-Methylphenyl)urea",
    "cn_name": "邻甲苯基脲;",
    "alternate_name": "Urea, <em>N</em>-(2-methylphenyl)-;Urea, <em>o</em>-tolyl-;Urea, (2-methylphenyl)-;<em>N</em>-(2-Methylphenyl)urea;<em>o</em>-Tolylcarbamide;<em>o</em>-Tolylurea;(2-Methylphenyl)urea;1-(2-Methylphenyl)urea;<em>o</em>-Methylphenylurea;2-Tolylurea;<em>N</em>-<em>o</em>-Tolylurea;NSC 406061",
    "duplicated_cas_no": "",
    "SMILES": "N(C(N)=O)C1=C(C)C=CC=C1",
    "meta_data": {
        "InChI": "InChI=1S/C8H10N2O/c1-6-4-2-3-5-7(6)10-8(9)11/h2-5H,1H3,(H3,9,10,11)",
        "InChIKey": null,
        "Canonical SMILES": "O=C(N)NC=1C=CC=CC1C",
        "Molecular Formula": "C<sub>8</sub>H<sub>10</sub>N<sub>2</sub>O",
        "Molecular Mass": "150.18",
        "Melting Point": "240 °C"
    }
}