{
    "cas_no": "3031-98-9",
    "key_name": "Methyl <span class=\"text-smallcaps\">L</span>-<em>xylo</em>-2-hexulosonate",
    "cn_name": null,
    "alternate_name": "<span class=\"text-smallcaps\">L</span>-<em>xylo</em>-2-Hexulosonic acid, methyl ester;<span class=\"text-smallcaps\">L</span>-<em>xylo</em>-Hexulosonic acid, methyl ester;Gulonic acid, 2-keto-, methyl ester, <span class=\"text-smallcaps\">L</span>-;Methyl <span class=\"text-smallcaps\">L</span>-<em>xylo</em>-2-hexulosonate;Methyl <span class=\"text-smallcaps\">L</span>-<em>xylo</em>-hexulosonate;2-<em>keto</em>-<span class=\"text-smallcaps\">L</span>-Gulonic acid methyl ester;NSC 163924;Methyl 2-<em>keto</em>-<span class=\"text-smallcaps\">L</span>-gulonate",
    "duplicated_cas_no": "151377-73-0",
    "SMILES": "[C@H]([C@@H]([C@H](CO)O)O)(C(C(OC)=O)=O)O",
    "meta_data": {
        "InChI": "InChI=1S/C7H12O7/c1-14-7(13)6(12)5(11)4(10)3(9)2-8/h3-5,8-11H,2H2,1H3/t3-,4+,5-/m0/s1",
        "InChIKey": null,
        "Canonical SMILES": "O=C(OC)C(=O)C(O)C(O)C(O)CO",
        "Molecular Formula": "C<sub>7</sub>H<sub>12</sub>O<sub>7</sub>",
        "Molecular Mass": "208.17",
        "Melting Point": "153-155 °C"
    }
}