{
    "cas_no": "4979-32-2",
    "key_name": "<em>N</em>,<em>N</em>-Dicyclohexyl-2-benzothiazolesulfenamide",
    "cn_name": "N,N-二环己基-2-苯并噻唑次磺酰胺;",
    "alternate_name": "2-Benzothiazolesulfenamide, <em>N</em>,<em>N</em>-dicyclohexyl-;<em>N</em>,<em>N</em>-Dicyclohexyl-2-benzothiazolesulfenamide;Vulkacit DZ;2-Benzothiazolyl-<em>N</em>,<em>N</em>-dicyclohexylsulfenamide;Meramid DCH;DTs;Soxinol DZ;Rhodifax 30;<em>N</em>,<em>N</em>-Dicyclohexyl-2-benzothiazolylsulfenamide;M 181;Accelerator DZ;SA-DTs;Nocceler DZ;Sanceler DZ;Sanceler DZ-G;Santocure DCBS;Sulfenamide DTs;Nocceler DZ-G;DCBS;Accel DZ-G;<em>N</em>,<em>N</em>-Dicyclohexyl-2-mercaptobenzothiazole sulfenamide;<em>N</em>,<em>N</em>-Dicyclohexyl-1,3-benzothiazole-2-sulfenamide;Mercure DCBS",
    "duplicated_cas_no": "110279-33-9",
    "SMILES": "N(SC1=NC=2C(S1)=CC=CC2)(C3CCCCC3)C4CCCCC4",
    "meta_data": {
        "InChI": "InChI=1S/C19H26N2S2/c1-3-9-15(10-4-1)21(16-11-5-2-6-12-16)23-19-20-17-13-7-8-14-18(17)22-19/h7-8,13-16H,1-6,9-12H2",
        "InChIKey": null,
        "Canonical SMILES": "N1=C(SC=2C=CC=CC12)SN(C3CCCCC3)C4CCCCC4",
        "Molecular Formula": "C<sub>19</sub>H<sub>26</sub>N<sub>2</sub>S<sub>2</sub>",
        "Molecular Mass": "346.55",
        "Melting Point": "99 °C"
    }
}