{
    "cas_no": "4245-76-5",
    "key_name": "<em>N</em>-Methyl-<em>N</em>′-nitroguanidine",
    "cn_name": "1-甲基-3-硝基胍;",
    "alternate_name": "Guanidine, <em>N</em>-methyl-<em>N</em>′-nitro-;Guanidine, 1-methyl-2-nitro-;<em>N</em>-Methyl-<em>N</em>′-nitroguanidine;1-Methyl-3-nitroguanidine;NSC 11887;MNG;2-Methyl-1-nitroguanidine",
    "duplicated_cas_no": "2187428-44-8",
    "SMILES": "C(NN(=O)=O)(NC)=N",
    "meta_data": {
        "InChI": "InChI=1S/C2H6N4O2/c1-4-2(3)5-6(7)8/h1H3,(H3,3,4,5)",
        "InChIKey": null,
        "Canonical SMILES": "O=N(=O)NC(=N)NC",
        "Molecular Formula": "C<sub>2</sub>H<sub>6</sub>N<sub>4</sub>O<sub>2</sub>",
        "Molecular Mass": "118.09",
        "Melting Point": "160-161 °C"
    }
}