{
    "cas_no": "1684-40-8",
    "key_name": "Tacrine hydrochloride",
    "cn_name": "9-氨基-1,2,3,4-四氢吖啶盐酸;四氢氨基吖啶;",
    "alternate_name": "9-Acridinamine, 1,2,3,4-tetrahydro-, hydrochloride (1:1);Acridine, 9-amino-1,2,3,4-tetrahydro-, monohydrochloride;9-Acridinamine, 1,2,3,4-tetrahydro-, monohydrochloride;Acridine, 9-amino-1,2,3,4-tetrahydro-, hydrochloride;Hydroaminacrine;Tacrin hydrochloride;Romotal;Tenakrin;THA;Tacrine hydrochloride;1,2,3,4-Tetrahydro-9-aminoacridine hydrochloride;CI 970;Cognex;9-Amino-1,2,3,4-Tetrahydroacridine hydrochloride;5,6,7,8-Tetrahydroacridin-9-amine hydrochloride",
    "duplicated_cas_no": "33376-89-5",
    "SMILES": "NC1=C2C(=NC=3C1=CC=CC3)CCCC2.Cl",
    "meta_data": {
        "InChI": "InChI=1S/C13H14N2.ClH/c14-13-9-5-1-3-7-11(9)15-12-8-4-2-6-10(12)13;/h1,3,5,7H,2,4,6,8H2,(H2,14,15);1H",
        "InChIKey": null,
        "Canonical SMILES": "Cl.N=1C=2C=CC=CC2C(N)=C3C1CCCC3",
        "Molecular Formula": "C<sub>13</sub>H<sub>14</sub>N<sub>2</sub>.ClH",
        "Molecular Mass": "",
        "Melting Point": "283-284 °C"
    }
}