{
    "cas_no": "624-84-0",
    "key_name": "Hydrazinecarboxaldehyde",
    "cn_name": "甲酰肼;",
    "alternate_name": "Hydrazinecarboxaldehyde;Hydrazine, formyl-;Formic acid, hydrazide;Carbazaldehyde;Formylhydrazine;Formal hydrazine;Formhydrazide;<em>N</em>-Formylhydrazine;Formylhydrazide;Formic hydrazide;Formohydrazide;Monoformylhydrazine;NSC 72391",
    "duplicated_cas_no": "",
    "SMILES": "C(NN)=O",
    "meta_data": {
        "InChI": "InChI=1S/CH4N2O/c2-3-1-4/h1H,2H2,(H,3,4)",
        "InChIKey": null,
        "Canonical SMILES": "O=CNN",
        "Molecular Formula": "CH<sub>4</sub>N<sub>2</sub>O",
        "Molecular Mass": "60.06",
        "Boiling Point": "90 °C @ Press: 0.7 Torr",
        "Melting Point": "55 °C"
    }
}