{
    "cas_no": "69-81-8",
    "key_name": "Carbazochrome",
    "cn_name": "卡巴克络;肾上腺色腙;安络血;3-羟基-1-甲基二氢吲哚-5,6-二酮缩氨脲;",
    "alternate_name": "Hydrazinecarboxamide, 2-(1,2,3,6-tetrahydro-3-hydroxy-1-methyl-6-oxo-5<em>H</em>-indol-5-ylidene)-;Adrenochrome semicarbazone;5,6-Indolinedione, 3-hydroxy-1-methyl-, 5-semicarbazone;2-(1,2,3,6-Tetrahydro-3-hydroxy-1-methyl-6-oxo-5<em>H</em>-indol-5-ylidene)hydrazinecarboxamide;Adrenoxyl;Carbazochrome;Adrenostazin;Adrokson;Adroxon;Sangostazin;3-Hydroxy-1-methyl-5,6-indolindione 5-semicarbazone;Adchnon;Cromadrenal;Adedolon;Adrezon;Sangostasin;Carbazochrom;Cartabes;Adrenochrome monosemicarbazone;Cromosil;NSC 73742;2-(3-Hydroxy-1-methyl-6-oxo-2,3-dihydro-1<em>H</em>-indol-5(6<em>H</em>)-ylidene)hydrazinecarboxamide",
    "duplicated_cas_no": "51055-36-8",
    "SMILES": "OC1C=2C(=CC(=O)C(=NNC(N)=O)C2)N(C)C1",
    "meta_data": {
        "InChI": "InChI=1S/C10H12N4O3/c1-14-4-9(16)5-2-6(12-13-10(11)17)8(15)3-7(5)14/h2-3,9,16H,4H2,1H3,(H3,11,13,17)",
        "InChIKey": null,
        "Canonical SMILES": "O=C(N)NN=C1C=C2C(=CC1=O)N(C)CC2O",
        "Molecular Formula": "C<sub>10</sub>H<sub>12</sub>N<sub>4</sub>O<sub>3</sub>",
        "Molecular Mass": "236.23",
        "Melting Point": "212-213 °C (decomp)"
    }
}