{
    "cas_no": "6137-26-4",
    "key_name": "4-Dodecanone",
    "cn_name": "4-十二酮;",
    "alternate_name": "4-Dodecanone;Octyl propyl ketone;Propyl octyl ketone;NSC 158519",
    "duplicated_cas_no": "",
    "SMILES": "C(CCCCCCCC)(CCC)=O",
    "meta_data": {
        "InChI": "InChI=1S/C12H24O/c1-3-5-6-7-8-9-11-12(13)10-4-2/h3-11H2,1-2H3",
        "InChIKey": null,
        "Canonical SMILES": "O=C(CCC)CCCCCCCC",
        "Molecular Formula": "C<sub>12</sub>H<sub>24</sub>O",
        "Molecular Mass": "184.32",
        "Boiling Point": "65 °C @ Press: 0.25 Torr",
        "Density": "0.8420 g/cm³ @ Temp: 20 °C"
    }
}