{
    "cas_no": "620-84-8",
    "key_name": "4-Methyldiphenylamine",
    "cn_name": "4-甲基-N-苯基苯胺;4-甲基二苯胺;对甲基二苯胺;",
    "alternate_name": "Benzenamine, 4-methyl-<em>N</em>-phenyl-;<em>p</em>-Toluidine, <em>N</em>-phenyl-;4-Methyl-<em>N</em>-phenylbenzenamine;<em>N</em>-Phenyl-<em>p</em>-toluidine;4-Methyldiphenylamine;Phenyl-<em>p</em>-tolylamine;<em>N</em>-<em>p</em>-Tolylaniline;<em>p</em>-Methyldiphenylamine;<em>N</em>-Phenyl-4-methylaniline;(4-Methylphenyl)phenylamine;<em>N</em>-4-Tolylaniline;4-Methyl-<em>N</em>-phenylaniline;<em>N</em>-(4-Methylphenyl)-<em>N</em>-phenylamine;<em>N</em>-Phenyl-<em>p</em>-toluamine",
    "duplicated_cas_no": "",
    "SMILES": "N(C1=CC=C(C)C=C1)C2=CC=CC=C2",
    "meta_data": {
        "InChI": "InChI=1S/C13H13N/c1-11-7-9-13(10-8-11)14-12-5-3-2-4-6-12/h2-10,14H,1H3",
        "InChIKey": null,
        "Canonical SMILES": "C=1C=CC(=CC1)NC2=CC=C(C=C2)C",
        "Molecular Formula": "C<sub>13</sub>H<sub>13</sub>N",
        "Molecular Mass": "183.25",
        "Boiling Point": "318 °C @ Press: 727 Torr",
        "Melting Point": "88-89 °C"
    }
}