{
    "cas_no": "613-35-4",
    "key_name": "<em>N</em>,<em>N</em>′-Diacetylbenzidine",
    "cn_name": "N,N-二醋酸联苯胺;",
    "alternate_name": "Acetamide, <em>N</em>,<em>N</em>′-[1,1′-biphenyl]-4,4′-diylbis-;4′,4′′′-Biacetanilide;<em>N</em>,<em>N</em>′-[1,1′-Biphenyl]-4,4′-diylbis[acetamide];4,4′-Diacetamidobiphenyl;<em>N</em>,<em>N</em>′-Diacetylbenzidine;4,4′-Diacetylbenzidine;Diacetylbenzidine;4,4′-Diacetylaminobiphenyl;<em>N</em>,<em>N</em>′-Diacetyl-4,4′-benzidine;NSC 12409;NSC 4717;4,4′-Diacetylamino-1,1′-biphenyl",
    "duplicated_cas_no": "",
    "SMILES": "N(C(C)=O)C1=CC=C(C=C1)C2=CC=C(NC(C)=O)C=C2",
    "meta_data": {
        "InChI": "InChI=1S/C16H16N2O2/c1-11(19)17-15-7-3-13(4-8-15)14-5-9-16(10-6-14)18-12(2)20/h3-10H,1-2H3,(H,17,19)(H,18,20)",
        "InChIKey": null,
        "Canonical SMILES": "O=C(NC=1C=CC(=CC1)C2=CC=C(C=C2)NC(=O)C)C",
        "Molecular Formula": "C<sub>16</sub>H<sub>16</sub>N<sub>2</sub>O<sub>2</sub>",
        "Molecular Mass": "268.31",
        "Melting Point": "328.30 °C"
    }
}