{
    "cas_no": "117976-89-3",
    "key_name": "Rabeprazole",
    "cn_name": "雷贝拉唑;2-[[4-(3-甲氧基丙氧基)-3-甲基吡啶-2-基]甲基亚硫酰基]-1H-苯并咪唑;",
    "alternate_name": "1<em>H</em>-Benzimidazole, 2-[[[4-(3-methoxypropoxy)-3-methyl-2-pyridinyl]methyl]sulfinyl]-;2-[[[4-(3-Methoxypropoxy)-3-methyl-2-pyridinyl]methyl]sulfinyl]-1<em>H</em>-benzimidazole;2-[[[4-(3-Methoxypropoxy)-3-methyl-2-pyridyl]methyl]sulfinyl]benzimidazole;Rabeprazole;LY 307640;2-[[[3-Methyl-4-(3-methoxypropoxy)-2-pyridyl]methyl]sulfinyl]-1<em>H</em>-benzimidazole;Pariets;2-[[[4-(3-Methoxypropoxy)-3-methyl-2-pyridyl]methyl]sulfinyl]-1<em>H</em>-benzimidazole;2-[[[4-(3-Methoxypropoxy)-3-methylpyridin-2-yl]methyl]sulfinyl]-1<em>H</em>-benzimidazole;Habeprazole;(±)-Rabeprazole;2-[[[3-Methyl-4-(3-methoxypropoxy)-2-pyridinyl]methyl]sulfinyl]-1<em>H</em>-benzimidazole;Rabeloc;Rabiral;Newprazole;Rabemax;Dexrabeprazol;2-[4-(3-Methoxy-propoxy)-3-methyl-pyridin-2-ylmethanesulfinyl]-1<em>H</em>-benzoimidazole;MeSH ID: D064750",
    "duplicated_cas_no": "909251-57-6",
    "SMILES": "S(CC1=C(C)C(OCCCOC)=CC=N1)(=O)C=2NC=3C(N2)=CC=CC3",
    "meta_data": {
        "InChI": "InChI=1S/C18H21N3O3S/c1-13-16(19-9-8-17(13)24-11-5-10-23-2)12-25(22)18-20-14-6-3-4-7-15(14)21-18/h3-4,6-9H,5,10-12H2,1-2H3,(H,20,21)",
        "InChIKey": null,
        "Canonical SMILES": "O=S(C1=NC=2C=CC=CC2N1)CC3=NC=CC(OCCCOC)=C3C",
        "Molecular Formula": "C<sub>18</sub>H<sub>21</sub>N<sub>3</sub>O<sub>3</sub>S",
        "Molecular Mass": "359.44",
        "Melting Point": "99-100 °C (decomp)"
    }
}