{
    "cas_no": "3479-47-8",
    "key_name": "4-(Phenylmethyl) hydrogen <em>N</em>-[(phenylmethoxy)carbonyl]-<span class=\"text-smallcaps\">L</span>-aspartate",
    "cn_name": "Cbz-L-天冬氨酸-4-苄酯;N-苄氧羰基-L-天冬氨酸-4-苄酯;",
    "alternate_name": "<span class=\"text-smallcaps\">L</span>-Aspartic acid, <em>N</em>-[(phenylmethoxy)carbonyl]-, 4-(phenylmethyl) ester;Aspartic acid, <em>N</em>-carboxy-, <em>N</em>,4-dibenzyl ester, <span class=\"text-smallcaps\">L</span>-;4-(Phenylmethyl) hydrogen <em>N</em>-[(phenylmethoxy)carbonyl]-<span class=\"text-smallcaps\">L</span>-aspartate;<em>N</em>-Carbobenzoxy-β-benzyl-<span class=\"text-smallcaps\">L</span>-aspartate;β-Benzyl-<em>N</em>-(benzyloxycarbonyl)-<span class=\"text-smallcaps\">L</span>-aspartic acid;<em>N</em>-Carbobenzoxy-<span class=\"text-smallcaps\">L</span>-aspartic acid 4-benzyl ester;<em>N</em>-Carbobenzoxy-<span class=\"text-smallcaps\">L</span>-aspartic acid β-benzyl ester;β-Benzyl <em>N</em>-(benzyloxycarbonyl)-<span class=\"text-smallcaps\">L</span>-aspartate;<em>N</em>-(Benzyloxycarbonyl)-<span class=\"text-smallcaps\">L</span>-aspartic acid β-benzyl ester;<em>N</em>-(Benzyloxycarbonyl)aspartic acid β-benzyl ester;NSC 163521;<em>N</em><sup>α</sup>-(Benzyloxycarbonyl)-<span class=\"text-smallcaps\">L</span>-aspartic acid 4-benzyl ester;(2S)-4-Oxo-4-phenylmethoxy-2-(phenylmethoxycarbonylamino)butanoic acid",
    "duplicated_cas_no": "134639-31-9;56135-88-7",
    "SMILES": "[C@@H](CC(OCC1=CC=CC=C1)=O)(NC(OCC2=CC=CC=C2)=O)C(O)=O",
    "meta_data": {
        "InChI": "InChI=1S/C19H19NO6/c21-17(25-12-14-7-3-1-4-8-14)11-16(18(22)23)20-19(24)26-13-15-9-5-2-6-10-15/h1-10,16H,11-13H2,(H,20,24)(H,22,23)/t16-/m0/s1",
        "InChIKey": null,
        "Canonical SMILES": "O=C(OCC=1C=CC=CC1)NC(C(=O)O)CC(=O)OCC=2C=CC=CC2",
        "Molecular Formula": "C<sub>19</sub>H<sub>19</sub>NO<sub>6</sub>",
        "Molecular Mass": "357.36",
        "Melting Point": "103 °C"
    }
}