{
    "cas_no": "156-51-4",
    "key_name": "Phenelzine sulfate",
    "cn_name": null,
    "alternate_name": "Hydrazine, (2-phenylethyl)-, sulfate (1:1);Hydrazine, phenethyl-, sulfate (1:1);(β-Phenylethyl)hydrazine sulfate;Nardelzine;Nardil;Phenalzine dihydrogen sulfate;Phenelzine sulfate;(2-Phenylethyl)hydrazine dihydrogen sulfate;(β-Phenylethyl)hydrazine dihydrogen sulfate;Phenelzine dihydrogen sulfate;Phenelzine hydrogen sulfate;Phenethylhydrazine sulfate;Phenelzine bisulfate;Estinerval;Fenelzin;Kalgan;Mao-rem;2-Phenethylhydrazine sulfate;Phenelzine acid sulfate;Stinerval;W 1544A;NSC 170957",
    "duplicated_cas_no": "75513-79-0",
    "SMILES": "S(=O)(=O)(O)O.C(CNN)C1=CC=CC=C1",
    "meta_data": {
        "InChI": "InChI=1S/C8H12N2.H2O4S/c9-10-7-6-8-4-2-1-3-5-8;1-5(2,3)4/h1-5,10H,6-7,9H2;(H2,1,2,3,4)",
        "InChIKey": null,
        "Canonical SMILES": "O=S(=O)(O)O.NNCCC=1C=CC=CC1",
        "Molecular Formula": "C<sub>8</sub>H<sub>12</sub>N<sub>2</sub>.H<sub>2</sub>O<sub>4</sub>S",
        "Molecular Mass": "",
        "Melting Point": "166.5-167.5 °C"
    }
}