{
    "cas_no": "60111-54-8",
    "key_name": "Tetrakis(vinyldimethylsiloxy)silane",
    "cn_name": "四(二甲基乙烯基硅氧基)硅烷;",
    "alternate_name": "Trisiloxane, 1,5-diethenyl-3,3-bis[(ethenyldimethylsilyl)oxy]-1,1,5,5-tetramethyl-;1,5-Diethenyl-3,3-bis[(ethenyldimethylsilyl)oxy]-1,1,5,5-tetramethyltrisiloxane;Tetrakis(vinyldimethylsiloxy)silane;Tetrakis(vinyldimethylsilyloxy)silane;SIT 7312.0;Tetrakis(dimethylvinylsiloxy)silane",
    "duplicated_cas_no": "",
    "SMILES": "[Si](O[Si](C=C)(C)C)(O[Si](C=C)(C)C)(O[Si](C=C)(C)C)O[Si](C=C)(C)C",
    "meta_data": {
        "InChI": "InChI=1S/C16H36O4Si5/c1-13-21(5,6)17-25(18-22(7,8)14-2,19-23(9,10)15-3)20-24(11,12)16-4/h13-16H,1-4H2,5-12H3",
        "InChIKey": null,
        "Canonical SMILES": "O([Si](O[Si](C=C)(C)C)(O[Si](C=C)(C)C)O[Si](C=C)(C)C)[Si](C=C)(C)C",
        "Molecular Formula": "C<sub>16</sub>H<sub>36</sub>O<sub>4</sub>Si<sub>5</sub>",
        "Molecular Mass": "432.88",
        "Boiling Point": "130-135 °C @ Press: 2 Torr"
    }
}