{
    "cas_no": "66-02-4",
    "key_name": "3,5-Diiodotyrosine",
    "cn_name": "3,5-二碘酪氨酸;",
    "alternate_name": "Tyrosine, 3,5-diiodo-;3,5-Diiodotyrosine;Agontan;DIT;Dityrin;Gorgoic acid, diiodo-;Gorgonic acid, diiodo-;Iodogorgoic acid;Iodogorgonic acid;β-(4-Hydroxy-3,5-diiodophenyl)alanine;Apothyrin;Cemiod;Flaianina;Itir;Jodgorgon;3,5-Diiodo-4-hydroxyphenylalanine;<span class=\"text-smallcaps\">DL</span>-3,5-Diiodotyrosine;NSC 208959;NSC 97936;2-Amino-3-(4-hydroxy-3,5-diiodo-phenyl)-propionic acid;2-Amino-3-(4-hydroxy-3,5-diiodophenyl)propanoic acid;2-Amino-3-(4-hydroxy-3,5-diiodophenyl)propanoicacid;3,5-Diiodo-<span class=\"text-smallcaps\">D</smallcap><smallcap>L</span>-tyrosine;MeSH ID: D004105",
    "duplicated_cas_no": "620-59-7",
    "SMILES": "C(C(C(O)=O)N)C1=CC(I)=C(O)C(I)=C1",
    "meta_data": {
        "InChI": "InChI=1S/C9H9I2NO3/c10-5-1-4(2-6(11)8(5)13)3-7(12)9(14)15/h1-2,7,13H,3,12H2,(H,14,15)",
        "InChIKey": null,
        "Canonical SMILES": "O=C(O)C(N)CC1=CC(I)=C(O)C(I)=C1",
        "Molecular Formula": "C<sub>9</sub>H<sub>9</sub>I<sub>2</sub>NO<sub>3</sub>",
        "Molecular Mass": "432.98",
        "Melting Point": "213 °C (decomp)"
    }
}