{
    "cas_no": "4346-18-3",
    "key_name": "Phenyl butyrate",
    "cn_name": "丁酸苯酯;",
    "alternate_name": "Butanoic acid, phenyl ester;Butyric acid, phenyl ester;Phenyl butyrate;Phenyl butanoate",
    "duplicated_cas_no": "",
    "SMILES": "O(C(CCC)=O)C1=CC=CC=C1",
    "meta_data": {
        "InChI": "InChI=1S/C10H12O2/c1-2-6-10(11)12-9-7-4-3-5-8-9/h3-5,7-8H,2,6H2,1H3",
        "InChIKey": null,
        "Canonical SMILES": "O=C(OC=1C=CC=CC1)CCC",
        "Molecular Formula": "C<sub>10</sub>H<sub>12</sub>O<sub>2</sub>",
        "Molecular Mass": "164.20",
        "Boiling Point": "225 °C",
        "Density": "1.022 g/cm³ @ Temp: 20 °C"
    }
}