{
    "cas_no": "5705-15-7",
    "key_name": "Hydrazine, 1-phenyl-1-(phenylmethyl)-, hydrochloride (1:1)",
    "cn_name": "N-苯甲基-N-苯肼盐酸盐;N-苄基-N-苯肼盐酸盐;",
    "alternate_name": "Hydrazine, 1-phenyl-1-(phenylmethyl)-, hydrochloride (1:1);Hydrazine, 1-benzyl-1-phenyl-, monohydrochloride;Hydrazine, 1-phenyl-1-(phenylmethyl)-, monohydrochloride;Hydrazine, 1-benzyl-1-phenyl-, hydrochloride;α-Benzyl-α-phenylhydrazine hydrochloride;1-Benzyl-1-phenylhydrazine hydrochloride;<em>N</em>-Phenyl-<em>N</em>-benzylhydrazine hydrochloride;<em>N</em>-Benzyl-<em>N</em>-phenylhydrazine hydrochloride;2-Benzyl-2-phenylhydrazinium chloride",
    "duplicated_cas_no": "",
    "SMILES": "N(CC1=CC=CC=C1)(N)C2=CC=CC=C2.Cl",
    "meta_data": {
        "InChI": "InChI=1S/C13H14N2.ClH/c14-15(13-9-5-2-6-10-13)11-12-7-3-1-4-8-12;/h1-10H,11,14H2;1H",
        "InChIKey": null,
        "Canonical SMILES": "Cl.NN(C=1C=CC=CC1)CC=2C=CC=CC2",
        "Molecular Formula": "C<sub>13</sub>H<sub>14</sub>N<sub>2</sub>.ClH",
        "Molecular Mass": "",
        "Melting Point": "170-172 °C"
    }
}