{
    "cas_no": "59920-31-9",
    "key_name": "2,5-Dideoxy-2,5-imino-<span class=\"text-smallcaps\">D</span>-mannitol",
    "cn_name": "Α-葡萄糖苷酶;2,5 -二羟甲基-3,4-二羟基四氢吡咯;",
    "alternate_name": "2,5-Pyrrolidinedimethanol, 3,4-dihydroxy-, (2<em>R</em>,3<em>R</em>,4<em>R</em>,5<em>R</em>)-;2,5-Pyrrolidinedimethanol, 3,4-dihydroxy-, [2<em>R</em>-(2α,3β,4α,5β)]-;(2<em>R</em>,3<em>R</em>,4<em>R</em>,5<em>R</em>)-3,4-Dihydroxy-2,5-pyrrolidinedimethanol;2,5-Dideoxy-2,5-imino-<span class=\"text-smallcaps\">D</span>-mannitol;DMDP;2(<em>R</em>),5(<em>R</em>)-Bis(hydroxymethyl)-3(<em>R</em>),4(<em>R</em>)-dihydroxypyrrolidine;(+)-DMDP",
    "duplicated_cas_no": "",
    "SMILES": "C(O)[C@@H]1[C@@H](O)[C@H](O)[C@@H](CO)N1",
    "meta_data": {
        "InChI": "InChI=1S/C6H13NO4/c8-1-3-5(10)6(11)4(2-9)7-3/h3-11H,1-2H2/t3-,4-,5-,6-/m1/s1",
        "InChIKey": null,
        "Canonical SMILES": "OCC1NC(CO)C(O)C1O",
        "Molecular Formula": "C<sub>6</sub>H<sub>13</sub>NO<sub>4</sub>",
        "Molecular Mass": "163.17",
        "Melting Point": "112-115 °C"
    }
}