{
    "cas_no": "3736-81-0",
    "key_name": "Diloxanide furoate",
    "cn_name": "糠酸二氯尼特;糠二氯散;4-(N-甲基-2,2-二氯乙酰氨基)苯基2-糠酸酯;",
    "alternate_name": "2-Furancarboxylic acid, 4-[(2,2-dichloroacetyl)methylamino]phenyl ester;2-Furoic acid, ester with 2,2-dichloro-4′-hydroxy-<em>N</em>-methylacetanilide;2-Furancarboxylic acid, 4-[(dichloroacetyl)methylamino]phenyl ester;Furoic acid, ester with 2,2-dichloro-4′-hydroxy-<em>N</em>-methylacetanilide;Acetanilide, 2,2-dichloro-4′-hydroxy-<em>N</em>-methyl-, 2-furoate (ester);8073 CB;Dichlofurazol;Entamide furoate;Entamide 2-furoate;4-Hydroxy-<em>N</em>-methyl dichloroacetanilide 2-furoate;Furamide (amebicide);Furamide;Diloxanide furoate;Diloxanid furoate;Amebiazol;Diclofurazol;Furentomin;Histomibal;Miforon",
    "duplicated_cas_no": "",
    "SMILES": "N(C(C(Cl)Cl)=O)(C)C1=CC=C(OC(=O)C2=CC=CO2)C=C1",
    "meta_data": {
        "InChI": "InChI=1S/C14H11Cl2NO4/c1-17(13(18)12(15)16)9-4-6-10(7-5-9)21-14(19)11-3-2-8-20-11/h2-8,12H,1H3",
        "InChIKey": null,
        "Canonical SMILES": "O=C(OC1=CC=C(C=C1)N(C(=O)C(Cl)Cl)C)C=2OC=CC2",
        "Molecular Formula": "C<sub>14</sub>H<sub>11</sub>Cl<sub>2</sub>NO<sub>4</sub>",
        "Molecular Mass": "328.15",
        "Melting Point": "111-114 °C"
    }
}