{
    "cas_no": "4770-39-2",
    "key_name": "1<em>H</em>-Indole, 2,3-dihydro-5-methoxy-, hydrochloride (1:1)",
    "cn_name": null,
    "alternate_name": "1<em>H</em>-Indole, 2,3-dihydro-5-methoxy-, hydrochloride (1:1);Indoline, 5-methoxy-, hydrochloride;1<em>H</em>-Indole, 2,3-dihydro-5-methoxy-, hydrochloride;5-Methoxy-2,3-dihydroindole hydrochloride;5-(Methyloxy)-2,3-dihydro-1<em>H</em>-indole hydrochloride",
    "duplicated_cas_no": "",
    "SMILES": "O(C)C=1C=C2C(=CC1)NCC2.Cl",
    "meta_data": {
        "InChI": "InChI=1S/C9H11NO.ClH/c1-11-8-2-3-9-7(6-8)4-5-10-9;/h2-3,6,10H,4-5H2,1H3;1H",
        "InChIKey": null,
        "Canonical SMILES": "Cl.O(C1=CC=C2NCCC2=C1)C",
        "Molecular Formula": "C<sub>9</sub>H<sub>11</sub>NO.ClH",
        "Molecular Mass": "",
        "Melting Point": "179-180 °C"
    }
}