{
    "cas_no": "770-40-1",
    "key_name": "4-Chloro-<em>N</em>-isopropylaniline",
    "cn_name": "N-异丙基对氯苯胺;",
    "alternate_name": "Benzenamine, 4-chloro-<em>N</em>-(1-methylethyl)-;Aniline, <em>p</em>-chloro-<em>N</em>-isopropyl-;4-Chloro-<em>N</em>-(1-methylethyl)benzenamine;4-Chloro-<em>N</em>-isopropylaniline;<em>N</em>-Isopropyl-4-chloroaniline;<em>p</em>-Chloro-<em>N</em>-isopropylaniline;<em>N</em>-Isopropyl-<em>p</em>-chloroaniline",
    "duplicated_cas_no": "",
    "SMILES": "N(C(C)C)C1=CC=C(Cl)C=C1",
    "meta_data": {
        "InChI": "InChI=1S/C9H12ClN/c1-7(2)11-9-5-3-8(10)4-6-9/h3-7,11H,1-2H3",
        "InChIKey": null,
        "Canonical SMILES": "ClC1=CC=C(C=C1)NC(C)C",
        "Molecular Formula": "C<sub>9</sub>H<sub>12</sub>ClN",
        "Molecular Mass": "169.65",
        "Boiling Point": "100 °C @ Press: 5 Torr",
        "Melting Point": "8-9 °C"
    }
}