{
    "cas_no": "504-07-4",
    "key_name": "Dihydrouracil",
    "cn_name": "5,6-二氢尿嘧啶;二氢尿嘧啶;5,6-二氢-2,4-二羟基嘧啶;5,6-Dihydro-2,4-dihydroxypyrimidine;",
    "alternate_name": "2,4(1<em>H</em>,3<em>H</em>)-Pyrimidinedione, dihydro-;Hydrouracil;Dihydro-2,4(1<em>H</em>,3<em>H</em>)-pyrimidinedione;Dihydrouracil;5,6-Dihydrouracil;5,6-Dihydro-2,4-dihydroxypyrimidine;5,6-Dihydro-2,4(1<em>H</em>,3<em>H</em>)-pyrimidinedione;NSC 11867",
    "duplicated_cas_no": "",
    "SMILES": "O=C1NC(=O)NCC1",
    "meta_data": {
        "InChI": "InChI=1S/C4H6N2O2/c7-3-1-2-5-4(8)6-3/h1-2H2,(H2,5,6,7,8)",
        "InChIKey": null,
        "Canonical SMILES": "O=C1NC(=O)CCN1",
        "Molecular Formula": "C<sub>4</sub>H<sub>6</sub>N<sub>2</sub>O<sub>2</sub>",
        "Molecular Mass": "114.10",
        "Melting Point": "272-274 °C",
        "Density": "1.58 g/cm³"
    }
}