{
    "cas_no": "30992-29-1",
    "key_name": "<em>N</em>-[(1,1-Dimethylethoxy)carbonyl]-2-methylalanine",
    "cn_name": "N-叔丁氧羰基-2-甲基丙氨酸;alpha-(叔丁氧羰基-氨基)异丁酸;",
    "alternate_name": "Alanine, <em>N</em>-[(1,1-dimethylethoxy)carbonyl]-2-methyl-;Alanine, <em>N</em>-carboxy-2-methyl-, <em>N</em>-<em>tert</em>-butyl ester;<em>N</em>-[(1,1-Dimethylethoxy)carbonyl]-2-methylalanine;<em>N</em>-<em>tert</em>-Butoxycarbonyl-α-aminoisobutyric acid;2-(<em>tert</em>-Butoxycarbonylamino)isobutyric acid;2-(<em>tert</em>-Butoxycarboxylamino)-2-methylpropanoic acid;<em>N</em>-(<em>tert</em>-Butyloxycarbonyl)-2-aminoisobutyric acid;<em>N</em>-(<em>tert</em>-Butoxycarbonyl)-α-methylalanine;<em>N</em>-BOC-α-methylalanine;<em>N</em>-<em>tert</em>-Butoxycarbonyl-2-aminoisobutyric acid;<em>N</em>-<em>tert</em>-Butoxycarbonyl-2-methylalanine;<em>N</em>-(<em>tert</em>-Butoxycarbonyl)-2,2-dimethylglycine;N-BOC-2-aminoisobutyric acid;2-[(<em>tert</em>-Butoxycarbonyl)amino]-2-methylpropionic acid;<em>N</em>-Boc-2,2-dimethylglycine;2-(<em>tert</em>-Butyloxycarbonylamino)isobutanoic acid;α-(Bocamino)isobutyric acid;2-(((<em>tert</em>-Butoxy)carbonyl)amino)-2-methylpropanoic acid;<em>N</em>-Boc-2-methylalanine;2-(Boc-amino)isobutyric acid;<em>N</em>-Boc-α,α-dimethylglycine;Boc-2-methylalanine;2-(<em>tert</em>-Butoxycarbonylamino)isobutanoic acid;<em>N</em>-Boc-2-amino-2-methylpropanoic acid;2-Methyl-<em>2</em>-((t-butyloxycarbonyl)amino)propionic acid;Boc-α-methylalanine;Boc-aminoisobutyric acid;2-Methyl-2-[(2-methylpropan-2-yl)oxycarbonylamino]propanoic acid",
    "duplicated_cas_no": "",
    "SMILES": "C(NC(C(O)=O)(C)C)(OC(C)(C)C)=O",
    "meta_data": {
        "InChI": "InChI=1S/C9H17NO4/c1-8(2,3)14-7(13)10-9(4,5)6(11)12/h1-5H3,(H,10,13)(H,11,12)",
        "InChIKey": null,
        "Canonical SMILES": "O=C(OC(C)(C)C)NC(C(=O)O)(C)C",
        "Molecular Formula": "C<sub>9</sub>H<sub>17</sub>NO<sub>4</sub>",
        "Molecular Mass": "203.24",
        "Melting Point": "116-117 °C"
    }
}