{
    "cas_no": "10396-10-8",
    "key_name": "<em>p</em>-Toluenesulfonylsemicarbazide",
    "cn_name": "对甲苯磺酰氨基脲;",
    "alternate_name": "Benzenesulfonic acid, 4-methyl-, 2-(aminocarbonyl)hydrazide;Semicarbazide, 1-(<em>p</em>-tolylsulfonyl)-;<em>p</em>-Toluenesulfonylsemicarbazide;Celogen RA;1-(<em>p</em>-Tolylsulfonyl)semicarbazide;Unicell TS;1-Tosylsemicarbazide;Blo Foam RA;Blowing Agent RA;Foaming Agent RA;[(4-Methylphenyl)sulfonylamino]urea",
    "duplicated_cas_no": "",
    "SMILES": "S(NNC(N)=O)(=O)(=O)C1=CC=C(C)C=C1",
    "meta_data": {
        "InChI": "InChI=1S/C8H11N3O3S/c1-6-2-4-7(5-3-6)15(13,14)11-10-8(9)12/h2-5,11H,1H3,(H3,9,10,12)",
        "InChIKey": null,
        "Canonical SMILES": "O=C(N)NNS(=O)(=O)C1=CC=C(C=C1)C",
        "Molecular Formula": "C<sub>8</sub>H<sub>11</sub>N<sub>3</sub>O<sub>3</sub>S",
        "Molecular Mass": "229.26",
        "Melting Point": "236 °C"
    }
}