{
    "cas_no": "1193-71-1",
    "key_name": "4,6-Dimethyl-3-pyridinamine",
    "cn_name": "2,4-二甲基-5-氨基吡啶;",
    "alternate_name": "3-Pyridinamine, 4,6-dimethyl-;2,4-Lutidine, 5-amino-;4,6-Dimethyl-3-pyridinamine;5-Amino-2,4-dimethylpyridine;3-Amino-4,6-dimethylpyridine;5-Amino-2,4-lutidine;4,6-Dimethylpyridin-3-ylamine",
    "duplicated_cas_no": "",
    "SMILES": "CC=1C(N)=CN=C(C)C1",
    "meta_data": {
        "InChI": "InChI=1S/C7H10N2/c1-5-3-6(2)9-4-7(5)8/h3-4H,8H2,1-2H3",
        "InChIKey": null,
        "Canonical SMILES": "N=1C=C(N)C(=CC1C)C",
        "Molecular Formula": "C<sub>7</sub>H<sub>10</sub>N<sub>2</sub>",
        "Molecular Mass": "122.17",
        "Boiling Point": "255-257 °C",
        "Melting Point": "68 °C"
    }
}