{
    "cas_no": "1073-67-2",
    "key_name": "4-Chlorostyrene",
    "cn_name": "对氯苯乙烯;",
    "alternate_name": "Benzene, 1-chloro-4-ethenyl-;Styrene, <em>p</em>-chloro-;1-Chloro-4-ethenylbenzene;<em>p</em>-Chlorostyrene;4-Chlorostyrene;<em>p</em>-Vinylphenyl chloride;4-Chloro-1-ethenylbenzene;(4-Chlorophenyl)ethene;<em>p</em>-Chlorovinylbenzene;NSC 18603;1-Chloro-4-vinylbenzene",
    "duplicated_cas_no": "",
    "SMILES": "C(=C)C1=CC=C(Cl)C=C1",
    "meta_data": {
        "InChI": "InChI=1S/C8H7Cl/c1-2-7-3-5-8(9)6-4-7/h2-6H,1H2",
        "InChIKey": null,
        "Canonical SMILES": "ClC1=CC=C(C=C)C=C1",
        "Molecular Formula": "C<sub>8</sub>H<sub>7</sub>Cl",
        "Molecular Mass": "138.59",
        "Boiling Point": "192 °C",
        "Melting Point": "-15.90 °C",
        "Density": "1.0868 g/cm³ @ Temp: 20 °C"
    }
}