{
    "cas_no": "5344-27-4",
    "key_name": "4-Pyridineethanol",
    "cn_name": "4-乙醇基吡啶;4-吡啶乙醇;",
    "alternate_name": "4-Pyridineethanol;4-(2-Hydroxyethyl)pyridine;4-(β-Hydroxyethyl)pyridine;2-(4-Pyridyl)ethanol;2-(γ-Pyridyl)ethanol;2-(4-Pyridyl)-1-ethanol;NSC 1096;2-(4-Pyridinyl)ethanol;2-(Pyridin-4-yl)ethan-1-ol",
    "duplicated_cas_no": "",
    "SMILES": "C(CO)C=1C=CN=CC1",
    "meta_data": {
        "InChI": "InChI=1S/C7H9NO/c9-6-3-7-1-4-8-5-2-7/h1-2,4-5,9H,3,6H2",
        "InChIKey": null,
        "Canonical SMILES": "OCCC=1C=CN=CC1",
        "Molecular Formula": "C<sub>7</sub>H<sub>9</sub>NO",
        "Molecular Mass": "123.15",
        "Boiling Point": "146-147 °C @ Press: 8 Torr",
        "Melting Point": "13.1-13.3 °C"
    }
}