{
    "cas_no": "27298-97-1",
    "key_name": "(α<em>S</em>)-4-Bromo-α-methylbenzenemethanamine",
    "cn_name": null,
    "alternate_name": "Benzenemethanamine, 4-bromo-α-methyl-, (α<em>S</em>)-;Benzylamine, <em>p</em>-bromo-α-methyl-, (<em>S</em>)-(-)-;Benzenemethanamine, 4-bromo-α-methyl-, (<em>S</em>)-;(α<em>S</em>)-4-Bromo-α-methylbenzenemethanamine;(-)-<em>p</em>-Bromo-α-phenethylamine;<em>S</em>-(-)-α-Methyl-<em>p</em>-bromobenzylamine;(-)-1-(4-Bromophenyl)ethylamine;(<em>S</em>)-1-(4-Bromophenyl)ethylamine;(-)-1-(<em>p</em>-Bromophenyl)ethylamine;(<em>S</em>)-4-Bromo-α-methylbenzylamine;(<em>S</em>)-(4-Bromophenyl)ethylamine;(-)-(<em>S</em>)-1-(4-Bromophenyl)ethylamine;[(1<em>S</em>)-1-(4-Bromophenyl)ethyl]amine;[(<em>S</em>)-(-)-1-(4-Bromophenyl)ethyl]amine;(<em>S</em>)-1-(4-Bromophenyl)ethanamine;(1<em>S</em>)-1-(4-Bromophenyl)ethanamine;(1S)-1-(4-Bromophenyl)ethan-1-amine;(<em>S</em>)-1-(4-Bromophenyl)ethan-1-amine;(1S)-1-(4-Bromophenyl)ethanamine",
    "duplicated_cas_no": "",
    "SMILES": "[C@@H](C)(N)C1=CC=C(Br)C=C1",
    "meta_data": {
        "InChI": "InChI=1S/C8H10BrN/c1-6(10)7-2-4-8(9)5-3-7/h2-6H,10H2,1H3/t6-/m0/s1",
        "InChIKey": null,
        "Canonical SMILES": "BrC1=CC=C(C=C1)C(N)C",
        "Molecular Formula": "C<sub>8</sub>H<sub>10</sub>BrN",
        "Molecular Mass": "200.08",
        "Boiling Point": "60-62 °C @ Press: 0.3 Torr",
        "Melting Point": "171.5-172.5 °C"
    }
}