{
    "cas_no": "6142-05-8",
    "key_name": "2-Thiazolamine, hydrochloride (1:1)",
    "cn_name": null,
    "alternate_name": "2-Thiazolamine, hydrochloride (1:1);Thiazole, 2-amino-, hydrochloride;2-Thiazolamine, monohydrochloride;2-Aminothiazole hydrochloride;2-Thiazolamine hydrochloride",
    "duplicated_cas_no": "41783-91-9",
    "SMILES": "NC1=NC=CS1.Cl",
    "meta_data": {
        "InChI": "InChI=1S/C3H4N2S.ClH/c4-3-5-1-2-6-3;/h1-2H,(H2,4,5);1H",
        "InChIKey": null,
        "Canonical SMILES": "Cl.N=1C=CSC1N",
        "Molecular Formula": "C<sub>3</sub>H<sub>4</sub>N<sub>2</sub>S.ClH",
        "Molecular Mass": "",
        "Melting Point": "62-63 °C"
    }
}