{
    "cas_no": "2984-55-6",
    "key_name": "(±)-2-Hydroxydodecanoic acid",
    "cn_name": "羟基月桂酸;羟基月桂酸;",
    "alternate_name": "Dodecanoic acid, 2-hydroxy-;2-Hydroxydodecanoic acid;α-Hydroxylauric acid;2-Hydroxylauric acid;α-Hydroxydodecanoic acid;(±)-α-Hydroxylauric acid;<span class=\"text-smallcaps\">DL</span>-2-Hydroxylauric acid;(±)-2-Hydroxydodecanoic acid;<span class=\"text-smallcaps\">DL</span>-2-Hydroxydodecanoic acid;NSC 39025",
    "duplicated_cas_no": "37639-47-7",
    "SMILES": "C(CCCCCCCC)CC(C(O)=O)O",
    "meta_data": {
        "InChI": "InChI=1S/C12H24O3/c1-2-3-4-5-6-7-8-9-10-11(13)12(14)15/h11,13H,2-10H2,1H3,(H,14,15)",
        "InChIKey": null,
        "Canonical SMILES": "O=C(O)C(O)CCCCCCCCCC",
        "Molecular Formula": "C<sub>12</sub>H<sub>24</sub>O<sub>3</sub>",
        "Molecular Mass": "216.32",
        "Melting Point": "46-47 °C"
    }
}