{
    "cas_no": "236395-14-5",
    "key_name": "Eslicarbazepine acetate",
    "cn_name": null,
    "alternate_name": "5<em>H</em>-Dibenz[<em>b</em>,<em>f</em>]azepine-5-carboxamide, 10-(acetyloxy)-10,11-dihydro-, (10<em>S</em>)-;(10<em>S</em>)-10-(Acetyloxy)-10,11-dihydro-5<em>H</em>-dibenz[<em>b</em>,<em>f</em>]azepine-5-carboxamide;BIA 2-093;(<em>S</em>)-(-)-10-Acetoxy-10,11-dihydro-5<em>H</em>-dibenz[<em>b</em>,<em>f</em>]azepine-5-carboxamide;(<em>S</em>)-10-Acetoxy-10,11-dihydro-5<em>H</em>-dibenz[<em>b</em>,<em>f</em>]azepine-5-carboxamide;Eslicarbazepine acetate;Sep 0002093;Exelief;(<em>S</em>)-(-)-10-Acetoxy-10,11-dihydro-5<em>H</em>-dibenzo[<em>b</em>,<em>f</em>]azepine-5-carboxamide;Aptiom;(<em>S</em>)-5-Carbamoyl-10,11-dihydro-5<em>H</em>-dibenzo[<em>b</em>,<em>f</em>]azepin-10-yl acetate;Zebinix;Exalief",
    "duplicated_cas_no": "",
    "SMILES": "O(C(C)=O)[C@@H]1C=2C(N(C(N)=O)C=3C(C1)=CC=CC3)=CC=CC2",
    "meta_data": {
        "InChI": "InChI=1S/C17H16N2O3/c1-11(20)22-16-10-12-6-2-4-8-14(12)19(17(18)21)15-9-5-3-7-13(15)16/h2-9,16H,10H2,1H3,(H2,18,21)/t16-/m0/s1",
        "InChIKey": null,
        "Canonical SMILES": "O=C(OC1C=2C=CC=CC2N(C(=O)N)C=3C=CC=CC3C1)C",
        "Molecular Formula": "C<sub>17</sub>H<sub>16</sub>N<sub>2</sub>O<sub>3</sub>",
        "Molecular Mass": "296.32",
        "Melting Point": "186-187 °C"
    }
}