{
    "cas_no": "52756-25-9",
    "key_name": "Alanine, <em>N</em>-benzoyl-<em>N</em>-(3-chloro-4-fluorophenyl)-, methyl ester",
    "cn_name": "麦草伏-甲酯;",
    "alternate_name": "Alanine, <em>N</em>-benzoyl-<em>N</em>-(3-chloro-4-fluorophenyl)-, methyl ester;<span class=\"text-smallcaps\">DL</span>-Alanine, <em>N</em>-benzoyl-<em>N</em>-(3-chloro-4-fluorophenyl)-, methyl ester;Methyl 2-[benzoyl(3-chloro-4-fluorophenyl)amino]propionate;Flamprop-methyl;WL 29761;Mataven;Flufenprop-methyl;<span class=\"text-smallcaps\">DL</span>-<em>N</em>-Benzoyl-<em>N</em>-(3-chloro-4-fluorophenyl)alanine methyl ester;Super-Suffix",
    "duplicated_cas_no": "",
    "SMILES": "N(C(=O)C1=CC=CC=C1)(C(C(OC)=O)C)C2=CC(Cl)=C(F)C=C2",
    "meta_data": {
        "InChI": "InChI=1S/C17H15ClFNO3/c1-11(17(22)23-2)20(13-8-9-15(19)14(18)10-13)16(21)12-6-4-3-5-7-12/h3-11H,1-2H3",
        "InChIKey": null,
        "Canonical SMILES": "O=C(OC)C(N(C(=O)C=1C=CC=CC1)C2=CC=C(F)C(Cl)=C2)C",
        "Molecular Formula": "C<sub>17</sub>H<sub>15</sub>ClFNO<sub>3</sub>",
        "Molecular Mass": "335.76",
        "Melting Point": "84-86 °C"
    }
}