{
    "cas_no": "14527-41-4",
    "key_name": "5-Thiazolecarboxylic acid",
    "cn_name": "噻唑-5-甲酸;",
    "alternate_name": "5-Thiazolecarboxylic acid;RU 22154;1,3-Thiazole-5-carboxylic acid;5-Thiazolecarboxylic acid, hydrate (1:1)",
    "duplicated_cas_no": "2376715-85-2",
    "SMILES": "C(O)(=O)C1=CN=CS1",
    "meta_data": {
        "InChI": "InChI=1S/C4H3NO2S/c6-4(7)3-1-5-2-8-3/h1-2H,(H,6,7)",
        "InChIKey": null,
        "Canonical SMILES": "O=C(O)C=1SC=NC1",
        "Molecular Formula": "C<sub>4</sub>H<sub>3</sub>NO<sub>2</sub>S",
        "Molecular Mass": "129.14",
        "Boiling Point": "107-108 °C @ Press: 10 Torr",
        "Melting Point": "196-197 °C"
    }
}