{
    "cas_no": "88-95-9",
    "key_name": "Phthaloyl chloride",
    "cn_name": "邻苯二甲酰氯;",
    "alternate_name": "1,2-Benzenedicarbonyl dichloride;Phthaloyl chloride;Phthalic acid dichloride;Phthalyl chloride;Phthalyl dichloride;Phthalic chloride;1,2-Bis(chlorocarbonyl)benzene;Phthalic dichloride;Phthaloyl dichloride;<em>o</em>-Phthalic acid dichloride;NSC 44611;1,2-Phthaloyl dichloride;<em>o</em>-Phthaloyl dichloride",
    "duplicated_cas_no": "1640987-70-7;2044283-90-9",
    "SMILES": "C(Cl)(=O)C1=C(C(Cl)=O)C=CC=C1",
    "meta_data": {
        "InChI": "InChI=1S/C8H4Cl2O2/c9-7(11)5-3-1-2-4-6(5)8(10)12/h1-4H",
        "InChIKey": null,
        "Canonical SMILES": "O=C(Cl)C=1C=CC=CC1C(=O)Cl",
        "Molecular Formula": "C<sub>8</sub>H<sub>4</sub>Cl<sub>2</sub>O<sub>2</sub>",
        "Molecular Mass": "203.02",
        "Boiling Point": "281.1 °C",
        "Melting Point": "15.5 °C"
    }
}