{
    "cas_no": "646-06-0",
    "key_name": "1,3-Dioxolane",
    "cn_name": "1,3-二氧戊环;乙二醇缩甲醛;二噁戊烷;",
    "alternate_name": "1,3-Dioxolane;Dioxolane;1,3-Dioxole, dihydro-;Formal glycol;Glycolformal;1,3-Dioxolan;1,3-Dioxacyclopentane;Ethylene glycol formal;5-Crown-2;DIOX",
    "duplicated_cas_no": "",
    "SMILES": "C1COCO1",
    "meta_data": {
        "InChI": "InChI=1S/C3H6O2/c1-2-5-3-4-1/h1-3H2",
        "InChIKey": null,
        "Canonical SMILES": "O1COCC1",
        "Molecular Formula": "C<sub>3</sub>H<sub>6</sub>O<sub>2</sub>",
        "Molecular Mass": "74.08",
        "Boiling Point": "78 °C @ Press: 765 Torr",
        "Melting Point": "-95 °C",
        "Density": "1.0600 g/cm³ @ Temp: 20 °C"
    }
}