{
    "cas_no": "10290-61-6",
    "key_name": "<em>N</em>-Benzoyl-<span class=\"text-smallcaps\">L</span>-methionine",
    "cn_name": null,
    "alternate_name": "<span class=\"text-smallcaps\">L</span>-Methionine, <em>N</em>-benzoyl-;Methionine, <em>N</em>-benzoyl-, <span class=\"text-smallcaps\">L</span>-;<em>N</em>-Benzoyl-<span class=\"text-smallcaps\">L</span>-methionine;Benzoylmethionine;<em>N</em>-Benzoylmethionine;<span class=\"text-smallcaps\">L</span>-<em>N</em>-Benzoylmethionine;NSC 164655;Benzoyl-<span class=\"text-smallcaps\">L</span>-Methionine;(2S)-2-Benzamido-4-methylsulfanylbutanoic acid;(2S)-4-(Methylsulfanyl)-2-(phenylformamido)butanoic acid",
    "duplicated_cas_no": "55405-92-0;58274-60-5;150072-90-5",
    "SMILES": "C(N[C@@H](CCSC)C(O)=O)(=O)C1=CC=CC=C1",
    "meta_data": {
        "InChI": "InChI=1S/C12H15NO3S/c1-17-8-7-10(12(15)16)13-11(14)9-5-3-2-4-6-9/h2-6,10H,7-8H2,1H3,(H,13,14)(H,15,16)/t10-/m0/s1",
        "InChIKey": null,
        "Canonical SMILES": "O=C(O)C(NC(=O)C=1C=CC=CC1)CCSC",
        "Molecular Formula": "C<sub>12</sub>H<sub>15</sub>NO<sub>3</sub>S",
        "Molecular Mass": "253.32",
        "Melting Point": "176-178 °C"
    }
}