{
    "cas_no": "874-42-0",
    "key_name": "2,4-Dichlorobenzaldehyde",
    "cn_name": "2,4-二氯苯甲醛;",
    "alternate_name": "Benzaldehyde, 2,4-dichloro-;2,4-Dichlorobenzaldehyde;<em>o</em>,<em>p</em>-Dichlorobenzaldehyde;NSC 8762;2,4-Dichlorophenylcarboxaldehyde",
    "duplicated_cas_no": "",
    "SMILES": "C(=O)C1=C(Cl)C=C(Cl)C=C1",
    "meta_data": {
        "InChI": "InChI=1S/C7H4Cl2O/c8-6-2-1-5(4-10)7(9)3-6/h1-4H",
        "InChIKey": null,
        "Canonical SMILES": "O=CC1=CC=C(Cl)C=C1Cl",
        "Molecular Formula": "C<sub>7</sub>H<sub>4</sub>Cl<sub>2</sub>O",
        "Molecular Mass": "175.01",
        "Boiling Point": "233 °C",
        "Melting Point": "72 °C"
    }
}