{
    "cas_no": "7693-41-6",
    "key_name": "4-Methoxyphenyl carbonochloridate",
    "cn_name": "4-甲氧基苯基氯甲酸酯;氯甲酸4-甲氧基苯酯;4-甲氧基苯基氯甲酸酯;",
    "alternate_name": "Carbonochloridic acid, 4-methoxyphenyl ester;Formic acid, chloro-, <em>p</em>-methoxyphenyl ester;Phenol, <em>p</em>-methoxy-, chloroformate;4-Methoxyphenyl carbonochloridate;<em>p</em>-Methoxyphenyl chloroformate;4-Methoxyphenyl chloroformate;<em>p</em>-Methoxyphenoxycarbonyl chloride;<em>p</em>-Methoxyphenol chloroformate;4-Methoxyohenyl chloroformate",
    "duplicated_cas_no": "",
    "SMILES": "O(C(Cl)=O)C1=CC=C(OC)C=C1",
    "meta_data": {
        "InChI": "InChI=1S/C8H7ClO3/c1-11-6-2-4-7(5-3-6)12-8(9)10/h2-5H,1H3",
        "InChIKey": null,
        "Canonical SMILES": "O=C(Cl)OC1=CC=C(OC)C=C1",
        "Molecular Formula": "C<sub>8</sub>H<sub>7</sub>ClO<sub>3</sub>",
        "Molecular Mass": "186.59",
        "Boiling Point": "74 °C @ Press: 3 Torr"
    }
}