{
    "cas_no": "6421-04-1",
    "key_name": "1,1′-Diethyl 4,4′-(1-oxido-1,2-diazenediyl)bis[benzoate]",
    "cn_name": "氧化偶氮苯-4,4-二羧酸乙酯;",
    "alternate_name": "Benzoic acid, 4,4′-(1-oxido-1,2-diazenediyl)bis-, 1,1′-diethyl ester;Benzoic acid, 4,4′-azoxydi-, diethyl ester;Benzoic acid, 4,4′-azoxybis-, diethyl ester;Benzoic acid, <em>p</em>,<em>p</em>′-azoxydi-, diethyl ester;1,1′-Diethyl 4,4′-(1-oxido-1,2-diazenediyl)bis[benzoate];Diethyl 4,4′-azoxydibenzoate;Diethyl azoxybenzene-4,4′-dicarboxylate;Diethyl <em>p</em>,<em>p</em>′-azoxydibenzoate;4,4′-Azoxybenzoic acid diethyl ester;4,4′-(Diethoxycarbonyl)azoxybenzene;NSC 401032;NSC 680513",
    "duplicated_cas_no": "1081837-48-0",
    "SMILES": "N(=NC1=CC=C(C(OCC)=O)C=C1)(=O)C2=CC=C(C(OCC)=O)C=C2",
    "meta_data": {
        "InChI": "InChI=1S/C18H18N2O5/c1-3-24-17(21)13-5-9-15(10-6-13)19-20(23)16-11-7-14(8-12-16)18(22)25-4-2/h5-12H,3-4H2,1-2H3",
        "InChIKey": null,
        "Canonical SMILES": "O=C(OCC)C1=CC=C(N=N(=O)C2=CC=C(C=C2)C(=O)OCC)C=C1",
        "Molecular Formula": "C<sub>18</sub>H<sub>18</sub>N<sub>2</sub>O<sub>5</sub>",
        "Molecular Mass": "342.35",
        "Melting Point": "110-112 °C"
    }
}