{
    "cas_no": "101246-66-6",
    "key_name": "(-)-Phenserine",
    "cn_name": null,
    "alternate_name": "Pyrrolo[2,3-<em>b</em>]indol-5-ol, 1,2,3,3a,8,8a-hexahydro-1,3a,8-trimethyl-, 5-(<em>N</em>-phenylcarbamate), (3a<em>S</em>,8a<em>R</em>)-;Pyrrolo[2,3-<em>b</em>]indol-5-ol, 1,2,3,3a,8,8a-hexahydro-1,3a,8-trimethyl-, phenylcarbamate (ester), (3a<em>S</em>-<em>cis</em>)-;Pyrrolo[2,3-<em>b</em>]indol-5-ol, 1,2,3,3a,8,8a-hexahydro-1,3a,8-trimethyl-, phenylcarbamate (ester), (3a<em>S</em>,8a<em>R</em>)-;Phenserine;(-)-Eseroline phenylcarbamate;(-)-Phenserine;(-)-<em>N</em>-Phenylcarbamoyleseroline",
    "duplicated_cas_no": "",
    "SMILES": "C[C@]12C=3C(N(C)[C@]1(N(C)CC2)[H])=CC=C(OC(NC4=CC=CC=C4)=O)C3",
    "meta_data": {
        "InChI": "InChI=1S/C20H23N3O2/c1-20-11-12-22(2)18(20)23(3)17-10-9-15(13-16(17)20)25-19(24)21-14-7-5-4-6-8-14/h4-10,13,18H,11-12H2,1-3H3,(H,21,24)/t18-,20+/m1/s1",
        "InChIKey": null,
        "Canonical SMILES": "O=C(OC1=CC=C2C(=C1)C3(C)CCN(C)C3N2C)NC=4C=CC=CC4",
        "Molecular Formula": "C<sub>20</sub>H<sub>23</sub>N<sub>3</sub>O<sub>2</sub>",
        "Molecular Mass": "337.42",
        "Melting Point": "151-152 °C"
    }
}