{
    "cas_no": "16807-60-6",
    "key_name": "3-Methoxy-2-cyclohexen-1-one",
    "cn_name": null,
    "alternate_name": "2-Cyclohexen-1-one, 3-methoxy-;3-Methoxy-2-cyclohexen-1-one;3-Methoxy-2-cyclohexenone",
    "duplicated_cas_no": "",
    "SMILES": "O(C)C1=CC(=O)CCC1",
    "meta_data": {
        "InChI": "InChI=1S/C7H10O2/c1-9-7-4-2-3-6(8)5-7/h5H,2-4H2,1H3",
        "InChIKey": null,
        "Canonical SMILES": "O=C1C=C(OC)CCC1",
        "Molecular Formula": "C<sub>7</sub>H<sub>10</sub>O<sub>2</sub>",
        "Molecular Mass": "126.15",
        "Boiling Point": "79 °C @ Press: 3 Torr",
        "Melting Point": "30-31 °C"
    }
}