{
    "cas_no": "122-88-3",
    "key_name": "(4-Chlorophenoxy)acetic acid",
    "cn_name": "对氯苯氧乙酸;",
    "alternate_name": "Acetic acid, 2-(4-chlorophenoxy)-;Acetic acid, (<em>p</em>-chlorophenoxy)-;Acetic acid, (4-chlorophenoxy)-;2-(4-Chlorophenoxy)acetic acid;4-CPA;Tomatotone;(<em>p</em>-Chlorophenoxy)acetic acid;(4-Chlorophenoxy)acetic acid;BI 12;Tomatone;PCPA;<em>p</em>-CPA;P 10;NSC 8769;NSC 9213;HP 55;2-(<em>p</em>-Chlorophenoxy)acetic acid",
    "duplicated_cas_no": "",
    "SMILES": "O(CC(O)=O)C1=CC=C(Cl)C=C1",
    "meta_data": {
        "InChI": "InChI=1S/C8H7ClO3/c9-6-1-3-7(4-2-6)12-5-8(10)11/h1-4H,5H2,(H,10,11)",
        "InChIKey": null,
        "Canonical SMILES": "O=C(O)COC1=CC=C(Cl)C=C1",
        "Molecular Formula": "C<sub>8</sub>H<sub>7</sub>ClO<sub>3</sub>",
        "Molecular Mass": "186.59",
        "Melting Point": "156-157 °C",
        "Density": "1.525 g/cm³"
    }
}