{
    "cas_no": "18495-30-2",
    "key_name": "1,1,2,3-Tetrachloropropane",
    "cn_name": "四氯丙烷;1,1,2,3-四氯丙烷;",
    "alternate_name": "Propane, 1,1,2,3-tetrachloro-;1,1,2,3-Tetrachloropropane",
    "duplicated_cas_no": "",
    "SMILES": "C(C(Cl)Cl)(CCl)Cl",
    "meta_data": {
        "InChI": "InChI=1S/C3H4Cl4/c4-1-2(5)3(6)7/h2-3H,1H2",
        "InChIKey": null,
        "Canonical SMILES": "ClCC(Cl)C(Cl)Cl",
        "Molecular Formula": "C<sub>3</sub>H<sub>4</sub>Cl<sub>4</sub>",
        "Molecular Mass": "181.88",
        "Boiling Point": "179.5 °C",
        "Density": "1.513 g/cm³ @ Temp: 17 °C"
    }
}