{
    "cas_no": "1558-31-2",
    "key_name": "Dichloro(dichloromethyl)methylsilane",
    "cn_name": null,
    "alternate_name": "Silane, dichloro(dichloromethyl)methyl-;Dichloro(dichloromethyl)methylsilane;(Dichloromethyl)methyldichlorosilane",
    "duplicated_cas_no": "",
    "SMILES": "[Si](C(Cl)Cl)(C)(Cl)Cl",
    "meta_data": {
        "InChI": "InChI=1S/C2H4Cl4Si/c1-7(5,6)2(3)4/h2H,1H3",
        "InChIKey": null,
        "Canonical SMILES": "ClC(Cl)[Si](Cl)(Cl)C",
        "Molecular Formula": "C<sub>2</sub>H<sub>4</sub>Cl<sub>4</sub>Si",
        "Molecular Mass": "197.95",
        "Boiling Point": "149 °C",
        "Melting Point": "-43 °C",
        "Density": "1.411 g/cm³"
    }
}