{
    "cas_no": "84-67-3",
    "key_name": "2,2′-Dimethyl-4,4′-diaminobiphenyl",
    "cn_name": "4,4\"-二氨基-2,2\"-二甲基-1,1\"-联苯;",
    "alternate_name": "[1,1′-Biphenyl]-4,4′-diamine, 2,2′-dimethyl-;Benzidine, 2,2′-dimethyl-;2,2′-Dimethyl[1,1′-biphenyl]-4,4′-diamine;4,4′-Diamino-2,2′-dimethylbiphenyl;2,2′-Dimethylbenzidine;<em>m</em>-Tolidine;2,2′-Tolidine;2,2′-Dimethyl-4,4′-biphenyldiamine;2,2′-Dimethyl-4,4′-diaminobiphenyl;m-TBHG;NSC 1989;m-TB;2,2′-Dimethyl-4,4′-diaminobiphenylene;DMBZ;4-(4-Amino-2-methylphenyl)-3-methylaniline;2,2′-Dimethyl-4,4′-diaminobenzidine",
    "duplicated_cas_no": "1000856-87-0",
    "SMILES": "CC1=C(C=CC(N)=C1)C2=C(C)C=C(N)C=C2",
    "meta_data": {
        "InChI": "InChI=1S/C14H16N2/c1-9-7-11(15)3-5-13(9)14-6-4-12(16)8-10(14)2/h3-8H,15-16H2,1-2H3",
        "InChIKey": null,
        "Canonical SMILES": "NC=1C=CC(C2=CC=C(N)C=C2C)=C(C1)C",
        "Molecular Formula": "C<sub>14</sub>H<sub>16</sub>N<sub>2</sub>",
        "Molecular Mass": "212.29",
        "Melting Point": "103-104 °C"
    }
}