{
    "cas_no": "99-90-1",
    "key_name": "<em>p</em>-Bromoacetophenone",
    "cn_name": "4-溴苯乙酮;",
    "alternate_name": "Ethanone, 1-(4-bromophenyl)-;Acetophenone, 4′-bromo-;Acetophenone, <em>p</em>-bromo-;1-(4-Bromophenyl)ethanone;<em>p</em>-Bromoacetophenone;4′-Bromoacetophenone;Methyl <em>p</em>-bromophenyl ketone;<em>p</em>-Bromophenyl methyl ketone;4-Bromophenyl methyl ketone;Methyl 4-bromophenyl ketone;<em>p</em>-Acetylphenyl bromide;<em>p</em>-Acetylbromobenzene;1-Acetyl-4-bromobenzene;1-(<em>p</em>-Bromophenyl)ethanone;<em>p</em>-Bromphenyl methyl ketone;4-Acetylphenyl bromide;1-Bromo-4-acetylbenzene;4-Acetylbromobenzene;NSC 17541;4-Acetyl-1-bromobenzene;4-Bromohypnone;4-Bromobenzene methyl ketone;4-Bromo-1-acetylbenzene;1-(4-Bromophenyl)ethan-1-one",
    "duplicated_cas_no": "",
    "SMILES": "C(C)(=O)C1=CC=C(Br)C=C1",
    "meta_data": {
        "InChI": "InChI=1S/C8H7BrO/c1-6(10)7-2-4-8(9)5-3-7/h2-5H,1H3",
        "InChIKey": null,
        "Canonical SMILES": "O=C(C1=CC=C(Br)C=C1)C",
        "Molecular Formula": "C<sub>8</sub>H<sub>7</sub>BrO",
        "Molecular Mass": "199.04",
        "Boiling Point": "257 °C",
        "Melting Point": "50.5 °C"
    }
}