{
    "cas_no": "112226-61-6",
    "key_name": "Halofenozide",
    "cn_name": null,
    "alternate_name": "Benzoic acid, 4-chloro-, 2-benzoyl-2-(1,1-dimethylethyl)hydrazide;RH 0345;Halofenozide;Benzoic acid <em>N</em>-<em>tert</em>-butyl-<em>N</em>-(4-chlorobenzoyl)hydrazide;Spectrum Grub Stop Once &amp; Done;Mach 2;Spectracide Grub Stop Once &amp; Done;RG 100864",
    "duplicated_cas_no": "468062-58-0",
    "SMILES": "N(C(=O)C1=CC=CC=C1)(NC(=O)C2=CC=C(Cl)C=C2)C(C)(C)C",
    "meta_data": {
        "InChI": "InChI=1S/C18H19ClN2O2/c1-18(2,3)21(17(23)14-7-5-4-6-8-14)20-16(22)13-9-11-15(19)12-10-13/h4-12H,1-3H3,(H,20,22)",
        "InChIKey": null,
        "Canonical SMILES": "O=C(NN(C(=O)C=1C=CC=CC1)C(C)(C)C)C2=CC=C(Cl)C=C2",
        "Molecular Formula": "C<sub>18</sub>H<sub>19</sub>ClN<sub>2</sub>O<sub>2</sub>",
        "Molecular Mass": "330.81",
        "Melting Point": "&gt;200 °C"
    }
}