{
    "cas_no": "617-65-2",
    "key_name": "Glutamic acid",
    "cn_name": "DL-谷氨酸;2-氨基戊二酸;",
    "alternate_name": "Glutamic acid;Glutamic acid, <span class=\"text-smallcaps\">D</smallcap><smallcap>L</span>-;<span class=\"text-smallcaps\">D</smallcap><smallcap>L</span>-Glutamic acid;(±)-Glutamic acid;<span class=\"text-smallcaps\">D</smallcap><smallcap>L</span>-Glu;Glutaminic acid;NSC 206301;NSC 9967;4-Amino-1,5-pentanedioic acid;2-Aminopentanedioic acid",
    "duplicated_cas_no": "",
    "SMILES": "C(CCC(O)=O)(C(O)=O)N",
    "meta_data": {
        "InChI": "InChI=1S/C5H9NO4/c6-3(5(9)10)1-2-4(7)8/h3H,1-2,6H2,(H,7,8)(H,9,10)",
        "InChIKey": null,
        "Canonical SMILES": "O=C(O)CCC(N)C(=O)O",
        "Molecular Formula": "C<sub>5</sub>H<sub>9</sub>NO<sub>4</sub>",
        "Molecular Mass": "147.13",
        "Boiling Point": "94-97 °C @ Press: 3 Torr",
        "Melting Point": "199 °C (decomp)"
    }
}