{
    "cas_no": "82560-54-1",
    "key_name": "Benfuracarb",
    "cn_name": null,
    "alternate_name": "β-Alanine, <em>N</em>-[[[[(2,3-dihydro-2,2-dimethyl-7-benzofuranyl)oxy]carbonyl]methylamino]thio]-<em>N</em>-(1-methylethyl)-, ethyl ester;Oncol 5G;Benfuracarb;Oncol;OK 174;Aminofuracarb;Aminosulfulan;Nakar",
    "duplicated_cas_no": "88650-68-4",
    "SMILES": "O(C(N(SN(CCC(OCC)=O)C(C)C)C)=O)C1=C2C(CC(C)(C)O2)=CC=C1",
    "meta_data": {
        "InChI": "InChI=1S/C20H30N2O5S/c1-7-25-17(23)11-12-22(14(2)3)28-21(6)19(24)26-16-10-8-9-15-13-20(4,5)27-18(15)16/h8-10,14H,7,11-13H2,1-6H3",
        "InChIKey": null,
        "Canonical SMILES": "O=C(OC1=CC=CC2=C1OC(C)(C)C2)N(SN(CCC(=O)OCC)C(C)C)C",
        "Molecular Formula": "C<sub>20</sub>H<sub>30</sub>N<sub>2</sub>O<sub>5</sub>S",
        "Molecular Mass": "410.53",
        "Boiling Point": "110 °C",
        "Melting Point": "&lt;25 °C"
    }
}