{
    "cas_no": "51-40-1",
    "key_name": "(-)-Norepinephrine (+)-bitartrate",
    "cn_name": "重酒石酸去甲肾上腺素;1,2-二苯基乙酮;α-苯基苯乙酮;苯基苯乙酮;二苯乙酮(羰基型);脱氧安息香(羰基型);脱;",
    "alternate_name": "1,2-Benzenediol, 4-[(1<em>R</em>)-2-amino-1-hydroxyethyl]-, (2<em>R</em>,3<em>R</em>)-2,3-dihydroxybutanedioate (1:1);Benzyl alcohol, α-(aminomethyl)-3,4-dihydroxy-, (-)-, tartrate (1:1) (salt);1,2-Benzenediol, 4-(2-amino-1-hydroxyethyl)-, (<em>R</em>)-, [<em>R</em>-(<em>R</em>*,<em>R</em>*)]-2,3-dihydroxybutanedioate (1:1) (salt);Arterenol, tartrate;1,2-Benzenediol, 4-[(1<em>R</em>)-2-amino-1-hydroxyethyl]-, (2<em>R</em>,3<em>R</em>)-2,3-dihydroxybutanedioate (1:1) (salt);Levarterenol bitartrate;(-)-Noradrenaline acid tartrate;(-)-Noradrenaline bitartrate;Noradrenaline bitartrate;Norepinephrine bitartrate;(-)-Norepinephrine bitartrate;<em>l</em>-Norepinephrine bitartrate;Noradrenaline acid tartrate;<em>l</em>-Noradrenaline bitartrate;Norepinephrine tartrate;Noradrenaline hydrogen tartrate;(-)-Norepinephrine tartrate;(-)-Noradrenaline tartrate;Noradrenaline tartrate;(-)-Noradrenaline hydrogen tartrate;<em>l</em>-Noradrenaline tartrate;<span class=\"text-smallcaps\">L</smallcap>-Norepinephrine <smallcap>D</span>-bitartrate;(-)-Norepinephrine (+)-bitartrate;<em>l</em>-Noradrenaline <em>d</em>-bitartrate;(-)-Noradrenaline (+)-bitartrate;<em>l</em>-Arterenol bitartrate;Levophed bitartrate;<em>l</em>-Arterenol <em>d</em>-bitartrate;<span class=\"text-smallcaps\">L</span>-Noradrenaline bitartrate;<span class=\"text-smallcaps\">L</span>-Arterenol bitartrate;(-)-Noradrenaline hydrogen <span class=\"text-smallcaps\">L</span>-tartrate;Norepinephrine hydrogen tartrate;(-)-(<em>R</em>)-Norepinephrine bitartrate;NSC 169106;(<em>R</em>)-Noradrenaline bitartrate",
    "duplicated_cas_no": "73-98-3;350-25-4;893-91-4;2477-42-1;24868-01-7;33404-26-1",
    "SMILES": "[C@@H]([C@H](C(O)=O)O)(C(O)=O)O.[C@@H](CN)(O)C1=CC(O)=C(O)C=C1",
    "meta_data": {
        "InChI": "InChI=1S/C8H11NO3.C4H6O6/c9-4-8(12)5-1-2-6(10)7(11)3-5;5-1(3(7)8)2(6)4(9)10/h1-3,8,10-12H,4,9H2;1-2,5-6H,(H,7,8)(H,9,10)/t8-;1-,2-/m01/s1",
        "InChIKey": null,
        "Canonical SMILES": "O=C(O)C(O)C(O)C(=O)O.OC1=CC=C(C=C1O)C(O)CN",
        "Molecular Formula": "C<sub>8</sub>H<sub>11</sub>NO<sub>3</sub>.C<sub>4</sub>H<sub>6</sub>O<sub>6</sub>",
        "Molecular Mass": "",
        "Melting Point": "102-104 °C"
    }
}