{
    "cas_no": "3032-81-3",
    "key_name": "1,3-Dichloro-5-iodobenzene",
    "cn_name": "3,5-二氯碘苯;",
    "alternate_name": "Benzene, 1,3-dichloro-5-iodo-;1,3-Dichloro-5-iodobenzene;3,5-Dichlorophenyl iodide;3,5-Dichloroiodobenzene;1-Iodo-3,5-dichlorobenzene;NSC 80149;3,5-Dichloro-1-iodobenzene",
    "duplicated_cas_no": "",
    "SMILES": "ClC1=CC(Cl)=CC(I)=C1",
    "meta_data": {
        "InChI": "InChI=1S/C6H3Cl2I/c7-4-1-5(8)3-6(9)2-4/h1-3H",
        "InChIKey": null,
        "Canonical SMILES": "ClC=1C=C(Cl)C=C(I)C1",
        "Molecular Formula": "C<sub>6</sub>H<sub>3</sub>Cl<sub>2</sub>I",
        "Molecular Mass": "272.90",
        "Melting Point": "54 °C"
    }
}