{
    "cas_no": "101-77-9",
    "key_name": "4,4-Diaminodiphenylmethane",
    "cn_name": "4,4\"-二氨基二苯甲烷;",
    "alternate_name": "Benzenamine, 4,4′-methylenebis-;Aniline, 4,4′-methylenedi-;Aniline, <em>p</em>,<em>p</em>′-methylenebis-;4,4′-Methylenebis[benzenamine];Bis(4-aminophenyl)methane;<em>p</em>,<em>p</em>′-Diaminodiphenylmethane;4,4′-Diaminodiphenylmethane;<em>p</em>,<em>p</em>′-Methylenedianiline;4,4′-Methylenedianiline;Tonox;Bis(<em>p</em>-aminophenyl)methane;4,4′-Methylenebis(aniline);Dianilinemethane;Diaminodiphenylmethane;Methylenedianiline;Epicure DDM;4,4′-Diphenylmethanediamine;HT 972;4-(<em>p</em>-Aminobenzyl)aniline;Di(4-aminophenyl)methane;Bis(aminophenyl)methane;4,4′-Methylenedibenzenamine;DDM;Araldite Hardener 972;Ancamine TL;Sumicure M;Araldite HT 972;Araldite Hardener HT 972;4-(4-Aminobenzyl)aniline;Acmex H 84BM;Araldite R 972;XU-HY 205;Ancamine 1692;Dianilinomethane;NSC 4709;Araldite HY 972;DAM;MDA 2200;DEH 50;Kayahard PT-AA;4,4′-Diaminodiphenylenemethane;Tonox MDA;4,4′-Diaminobiphenylmethane;4,4′-Methylenediphenylamine;MDA 100;4,4-Diaminodiphenylmethane;MDA;Amicure 101;4-(4-Aminobenzyl)benzenamine;4,4′-Diaminophenylmethane;Aradur HT 972GB;4,4′-Methylenebisbenzeneamine;Wanamine MDA;4-[(4-Aminophenyl)methyl]aniline;[4-(4-Aminobenzyl)phenyl]amine;DMA 100;Ancamine 1734;K 6;F-L 04764",
    "duplicated_cas_no": "28602-61-1;83712-44-1;120859-32-7;136601-30-4;148263-71-2",
    "SMILES": "C(C1=CC=C(N)C=C1)C2=CC=C(N)C=C2",
    "meta_data": {
        "InChI": "InChI=1S/C13H14N2/c14-12-5-1-10(2-6-12)9-11-3-7-13(15)8-4-11/h1-8H,9,14-15H2",
        "InChIKey": null,
        "Canonical SMILES": "NC1=CC=C(C=C1)CC2=CC=C(N)C=C2",
        "Molecular Formula": "C<sub>13</sub>H<sub>14</sub>N<sub>2</sub>",
        "Molecular Mass": "198.26",
        "Boiling Point": "398-399 °C @ Press: 768 Torr",
        "Melting Point": "91.5-92 °C",
        "Density": "1.056 g/cm³ @ Temp: 100 °C"
    }
}