{
    "cas_no": "78-70-6",
    "key_name": "(±)-Linalool",
    "cn_name": "芳樟醇;沉香醇;里那醇;3,7-二甲基-1,6-辛二烯-3-醇;",
    "alternate_name": "1,6-Octadien-3-ol, 3,7-dimethyl-;3,7-Dimethyl-1,6-octadien-3-ol;2,6-Dimethyl-2,7-octadien-6-ol;Linalol;Linalool;Linalyl alcohol;β-Linalool;3,7-Dimethyl-1,6-octadiene-3-ol;Linanool;<em>dl</em>-Linalool;(±)-Linalool;NSC 3789;L 260-2;2-Methyl-1-prenyl-3-buten-2-ol;3,7-Dimethyl-3-hydroxy-1,6-octadiene;3,7-Dimethyl-3-ol-1,6-octadiene;Phantol;Lipofresh;YL 09",
    "duplicated_cas_no": "11024-20-7;22564-99-4",
    "SMILES": "C(CCC=C(C)C)(C=C)(C)O",
    "meta_data": {
        "InChI": "InChI=1S/C10H18O/c1-5-10(4,11)8-6-7-9(2)3/h5,7,11H,1,6,8H2,2-4H3",
        "InChIKey": null,
        "Canonical SMILES": "OC(C=C)(C)CCC=C(C)C",
        "Molecular Formula": "C<sub>10</sub>H<sub>18</sub>O",
        "Molecular Mass": "154.25",
        "Boiling Point": "195-199 °C",
        "Melting Point": "&lt;25 °C",
        "Density": "0.858-0.868 g/cm³ @ Temp: 25 °C"
    }
}