{
    "cas_no": "80-59-1",
    "key_name": "Tiglic acid",
    "cn_name": "惕格酸;顺芷酸;反式-2-甲基-2-丁烯酸;",
    "alternate_name": "2-Butenoic acid, 2-methyl-, (2<em>E</em>)-;Crotonic acid, 2-methyl-, (<em>E</em>)-;Tiglic acid;2-Butenoic acid, 2-methyl-, (<em>E</em>)-;(2<em>E</em>)-2-Methyl-2-butenoic acid;Cevadic acid;<em>trans</em>-α,β-Dimethylacrylic acid;<em>trans</em>-2,3-Dimethylacrylic acid;<em>trans</em>-2-Methyl-2-butenoic acid;<em>trans</em>-2-Methylcrotonic acid;(<em>E</em>)-2-Methylcrotonic acid;Tiglinic acid;(<em>E</em>)-2,3-Dimethylacrylic acid;(<em>E</em>)-α-Methylcrotonic acid;(<em>E</em>)-2-Methyl-2-butenoic acid;NSC 44235;NSC 8999",
    "duplicated_cas_no": "",
    "SMILES": "C(\\C(O)=O)(=C/C)/C",
    "meta_data": {
        "InChI": "InChI=1S/C5H8O2/c1-3-4(2)5(6)7/h3H,1-2H3,(H,6,7)/b4-3+",
        "InChIKey": null,
        "Canonical SMILES": "O=C(O)C(=CC)C",
        "Molecular Formula": "C<sub>5</sub>H<sub>8</sub>O<sub>2</sub>",
        "Molecular Mass": "100.12",
        "Boiling Point": "198.5 °C",
        "Melting Point": "64.5 °C",
        "Density": "0.9427 g/cm³ @ Temp: 99.5 °C"
    }
}