{
    "cas_no": "402-11-9",
    "key_name": "3-Chloro-4-nitrobenzotrifluoride",
    "cn_name": null,
    "alternate_name": "Benzene, 2-chloro-1-nitro-4-(trifluoromethyl)-;Toluene, 3-chloro-4-nitro-α,α,α-trifluoro-;2-Chloro-1-nitro-4-(trifluoromethyl)benzene;3-Chloro-4-nitrobenzotrifluoride;2-Chloro-4-(trifluoromethyl)-1-nitrobenzene",
    "duplicated_cas_no": "",
    "SMILES": "C(F)(F)(F)C1=CC(Cl)=C(N(=O)=O)C=C1",
    "meta_data": {
        "InChI": "InChI=1S/C7H3ClF3NO2/c8-5-3-4(7(9,10)11)1-2-6(5)12(13)14/h1-3H",
        "InChIKey": null,
        "Canonical SMILES": "O=N(=O)C1=CC=C(C=C1Cl)C(F)(F)F",
        "Molecular Formula": "C<sub>7</sub>H<sub>3</sub>ClF<sub>3</sub>NO<sub>2</sub>",
        "Molecular Mass": "225.55",
        "Boiling Point": "116 °C @ Press: 28 Torr",
        "Density": "1.527 g/cm³ @ Temp: 24 °C"
    }
}