{
    "cas_no": "2216-45-7",
    "key_name": "Benzenemethanol, 4-methyl-, 1-acetate",
    "cn_name": "4-甲基苯甲醇乙酸酯;乙酸对甲基苄酯;",
    "alternate_name": "Benzenemethanol, 4-methyl-, 1-acetate;Benzyl alcohol, <em>p</em>-methyl-, acetate;Benzenemethanol, 4-methyl-, acetate;<em>p</em>-Methylbenzyl acetate;<em>p</em>-Tolubenzyl acetate;<em>p</em>-Xylyl acetate;4-Methylbenzyl acetate;<em>p</em>-Acetoxymethyltoluene;NSC 7001;(4-Methylphenyl)methyl acetate",
    "duplicated_cas_no": "",
    "SMILES": "C(OC(C)=O)C1=CC=C(C)C=C1",
    "meta_data": {
        "InChI": "InChI=1S/C10H12O2/c1-8-3-5-10(6-4-8)7-12-9(2)11/h3-6H,7H2,1-2H3",
        "InChIKey": null,
        "Canonical SMILES": "O=C(OCC1=CC=C(C=C1)C)C",
        "Molecular Formula": "C<sub>10</sub>H<sub>12</sub>O<sub>2</sub>",
        "Molecular Mass": "164.20",
        "Boiling Point": "227-230 °C",
        "Melting Point": "40 °C"
    }
}