{
    "cas_no": "1889-71-0",
    "key_name": "1-(4-Chlorophenyl)-2-phenylethanone",
    "cn_name": "4-氯苯基苄基酮;4-氯-2\"-苯基苯乙酮;",
    "alternate_name": "Ethanone, 1-(4-chlorophenyl)-2-phenyl-;Acetophenone, 4′-chloro-2-phenyl-;1-(4-Chlorophenyl)-2-phenylethanone;Benzyl <em>p</em>-chlorophenyl ketone;4′-Chloro-2-phenylacetophenone;<em>p</em>-Chlorophenyl benzyl ketone;4-Chlorophenyl benzyl ketone;Benzyl 4-chlorophenyl ketone;1-(4-Chlorophenyl)-2-phenyl-1-ethanone;NSC 32891;NSC 99455",
    "duplicated_cas_no": "",
    "SMILES": "C(CC1=CC=CC=C1)(=O)C2=CC=C(Cl)C=C2",
    "meta_data": {
        "InChI": "InChI=1S/C14H11ClO/c15-13-8-6-12(7-9-13)14(16)10-11-4-2-1-3-5-11/h1-9H,10H2",
        "InChIKey": null,
        "Canonical SMILES": "O=C(C1=CC=C(Cl)C=C1)CC=2C=CC=CC2",
        "Molecular Formula": "C<sub>14</sub>H<sub>11</sub>ClO",
        "Molecular Mass": "230.69",
        "Boiling Point": "199-200 °C @ Press: 16 Torr",
        "Melting Point": "107.5 °C"
    }
}