{
    "cas_no": "3524-33-2",
    "key_name": "1-Ethyl-3-methyl-1<em>H</em>-pyrazol-5-amine",
    "cn_name": null,
    "alternate_name": "1<em>H</em>-Pyrazol-5-amine, 1-ethyl-3-methyl-;Pyrazole, 5-amino-1-ethyl-3-methyl-;1-Ethyl-3-methyl-1<em>H</em>-pyrazol-5-amine;1-Ethyl-3-methyl-5-aminopyrazole;5-Amino-1-ethyl-3-methylpyrazole;5-Amino-3-methyl-1-ethylpyrazole;1-Ethyl-3-methyl-5-pyrazolamine;5-Amino-1-ethyl-3-methyl-1<em>H</em>-pyrazole;5-Methyl-2-ethyl-2<em>H</em>-pyrazol-3-ylamine;2-Ethyl-5-methylpyrazol-3-amine",
    "duplicated_cas_no": "",
    "SMILES": "C(C)N1C(N)=CC(C)=N1",
    "meta_data": {
        "InChI": "InChI=1S/C6H11N3/c1-3-9-6(7)4-5(2)8-9/h4H,3,7H2,1-2H3",
        "InChIKey": null,
        "Canonical SMILES": "N1=C(C=C(N)N1CC)C",
        "Molecular Formula": "C<sub>6</sub>H<sub>11</sub>N<sub>3</sub>",
        "Molecular Mass": "125.17",
        "Melting Point": "100-101 °C"
    }
}