{
    "cas_no": "5683-43-2",
    "key_name": "2-Methyl-6-nitrobenzoxazole",
    "cn_name": "2-甲基-6-硝基苯并恶唑;2-甲基-6-硝基苯并噁唑;",
    "alternate_name": "Benzoxazole, 2-methyl-6-nitro-;2-Methyl-6-nitrobenzoxazole;2-Methyl-6-nitro-1,3-benzoxazole;2-Methyl-6-nitro-benzooxazole",
    "duplicated_cas_no": "",
    "SMILES": "N(=O)(=O)C=1C=C2C(=CC1)N=C(C)O2",
    "meta_data": {
        "InChI": "InChI=1S/C8H6N2O3/c1-5-9-7-3-2-6(10(11)12)4-8(7)13-5/h2-4H,1H3",
        "InChIKey": null,
        "Canonical SMILES": "O=N(=O)C=1C=CC=2N=C(OC2C1)C",
        "Molecular Formula": "C<sub>8</sub>H<sub>6</sub>N<sub>2</sub>O<sub>3</sub>",
        "Molecular Mass": "178.14",
        "Melting Point": "170-173 °C"
    }
}