{
    "cas_no": "822-12-8",
    "key_name": "Sodium myristate",
    "cn_name": "肉豆蔻酸钠;十四烷酸钠盐;",
    "alternate_name": "Tetradecanoic acid, sodium salt (1:1);Myristic acid, sodium salt;Tetradecanoic acid, sodium salt;Sodium myristate;Sodium tetradecanoate;Nonsoul MN 1;Nikkol MK 140;C 14-98/100MY, sodium salt",
    "duplicated_cas_no": "",
    "SMILES": "C(CCCCCCCC)CCCCC(O)=O.[Na]",
    "meta_data": {
        "InChI": "InChI=1S/C14H28O2.Na/c1-2-3-4-5-6-7-8-9-10-11-12-13-14(15)16;/h2-13H2,1H3,(H,15,16);",
        "InChIKey": null,
        "Canonical SMILES": "[Na].O=C(O)CCCCCCCCCCCCC",
        "Molecular Formula": "C<sub>14</sub>H<sub>28</sub>O<sub>2</sub>.Na",
        "Molecular Mass": "",
        "Melting Point": "330 °C"
    }
}