{
    "cas_no": "2439-99-8",
    "key_name": "Polaris",
    "cn_name": "增甘磷;N,N-双(膦酸基甲基)甘氨酸;",
    "alternate_name": "Glycine, <em>N</em>,<em>N</em>-bis(phosphonomethyl)-;<em>N</em>,<em>N</em>-Bis(phosphonomethyl)glycine;Nitrilomonoacetic acid dimethylenephosphonic acid;CP 41845;Polaris;Glyphosine;MON-O<sub>45</sub>;Glycine-<em>N</em>,<em>N</em>-bis(methylenephosphonic acid);MON 845;Nitrilomonomethylcarbonyldimethylphosphonic acid;Glycinedimethanephosphonic acid;C 9552;<em>N</em>,<em>N</em>-Bis(phosphonomethyl)aminoacetic acid;Polaris (ripening agent);<em>N</em>,<em>N</em>-Di(phosphonomethyl)glycine;NSC 18468;<em>N</em>,<em>N</em>-Bis(phosphonomethyl)aminoacetic;GDMP;2-[Bis(phosphonomethyl)amino]acetic acid;Glycine dimethylene phosphonic acid;(((Carboxymethyl)imino)dimethylene)bisphosphonic acid;Glycine, anhydride with dimethyl phosphate",
    "duplicated_cas_no": "174491-47-5;174491-49-7;174491-50-0;2377924-34-8",
    "SMILES": "C(N(CP(=O)(O)O)CC(O)=O)P(=O)(O)O",
    "meta_data": {
        "InChI": "InChI=1S/C4H11NO8P2/c6-4(7)1-5(2-14(8,9)10)3-15(11,12)13/h1-3H2,(H,6,7)(H2,8,9,10)(H2,11,12,13)",
        "InChIKey": null,
        "Canonical SMILES": "O=C(O)CN(CP(=O)(O)O)CP(=O)(O)O",
        "Molecular Formula": "C<sub>4</sub>H<sub>11</sub>NO<sub>8</sub>P<sub>2</sub>",
        "Molecular Mass": "263.08",
        "Melting Point": "205 °C"
    }
}