{
    "cas_no": "96206-92-7",
    "key_name": "MPEP",
    "cn_name": "2-甲基-6-(苯乙炔)吡啶盐酸盐;",
    "alternate_name": "Pyridine, 2-methyl-6-(2-phenylethynyl)-;Pyridine, 2-methyl-6-(phenylethynyl)-;2-Picoline, 6-phenylethynyl-;2-Methyl-6-(2-phenylethynyl)pyridine;2-Methyl-6-(phenylethynyl)pyridine;MPEP;CHEMBL 66654",
    "duplicated_cas_no": "",
    "SMILES": "C(#CC1=CC=CC=C1)C=2N=C(C)C=CC2",
    "meta_data": {
        "InChI": "InChI=1S/C14H11N/c1-12-6-5-9-14(15-12)11-10-13-7-3-2-4-8-13/h2-9H,1H3",
        "InChIKey": null,
        "Canonical SMILES": "C(#CC=1C=CC=CC1)C=2N=C(C=CC2)C",
        "Molecular Formula": "C<sub>14</sub>H<sub>11</sub>N",
        "Molecular Mass": "193.24",
        "Boiling Point": "124.5-126.5 °C @ Press: 0.5 Torr",
        "Melting Point": "45-45.5 °C"
    }
}