{
    "cas_no": "18713-58-1",
    "key_name": "4′-Chloroisobutyrophenone",
    "cn_name": "对氯苯异丁酮英文名称：4-chlorophenylisopropylketone;对氯苯异丁酮;",
    "alternate_name": "1-Propanone, 1-(4-chlorophenyl)-2-methyl-;Propiophenone, 4′-chloro-2-methyl-;1-(4-Chlorophenyl)-2-methyl-1-propanone;<em>p</em>-Chloroisobutyrophenone;4′-Chloro-2-methylpropiophenone;<em>p</em>-Chlorophenyl isopropyl ketone;4′-Chloroisobutyrophenone;4-Chlorophenyl isopropyl ketone",
    "duplicated_cas_no": "",
    "SMILES": "C(C(C)C)(=O)C1=CC=C(Cl)C=C1",
    "meta_data": {
        "InChI": "InChI=1S/C10H11ClO/c1-7(2)10(12)8-3-5-9(11)6-4-8/h3-7H,1-2H3",
        "InChIKey": null,
        "Canonical SMILES": "O=C(C1=CC=C(Cl)C=C1)C(C)C",
        "Molecular Formula": "C<sub>10</sub>H<sub>11</sub>ClO",
        "Molecular Mass": "182.65",
        "Boiling Point": "122-123 °C @ Press: 25 Torr"
    }
}