{
    "cas_no": "129722-12-9",
    "key_name": "Aripiprazole",
    "cn_name": "阿立哌唑;",
    "alternate_name": "2(1<em>H</em>)-Quinolinone, 7-[4-[4-(2,3-dichlorophenyl)-1-piperazinyl]butoxy]-3,4-dihydro-;7-[4-[4-(2,3-Dichlorophenyl)-1-piperazinyl]butoxy]-3,4-dihydro-2(1<em>H</em>)-quinolinone;OPC 14597;Aripiprazole;OPC 31;7-[4-[4-(2,3-Dichlorophenyl)-1-piperazinyl]butoxy]-3,4-dihydrocarbostyril;Abilitat;Abilify;Arpizol;Asprito;Pripiprazole;Aripiperazole;Aripirazole;Aripiprazol;Aristab;Biopiprazole;AZ 1;AZ 2;AZ 3;AZ 4;Abilify Maintena",
    "duplicated_cas_no": "156680-99-8",
    "SMILES": "O(CCCCN1CCN(CC1)C2=C(Cl)C(Cl)=CC=C2)C=3C=C4C(=CC3)CCC(=O)N4",
    "meta_data": {
        "InChI": "InChI=1S/C23H27Cl2N3O2/c24-19-4-3-5-21(23(19)25)28-13-11-27(12-14-28)10-1-2-15-30-18-8-6-17-7-9-22(29)26-20(17)16-18/h3-6,8,16H,1-2,7,9-15H2,(H,26,29)",
        "InChIKey": null,
        "Canonical SMILES": "O=C1NC2=CC(OCCCCN3CCN(C=4C=CC=C(Cl)C4Cl)CC3)=CC=C2CC1",
        "Molecular Formula": "C<sub>23</sub>H<sub>27</sub>Cl<sub>2</sub>N<sub>3</sub>O<sub>2</sub>",
        "Molecular Mass": "448.39",
        "Melting Point": "109-111 °C"
    }
}