{
    "cas_no": "1680-31-5",
    "key_name": "Dicaprylyl carbonate",
    "cn_name": "碳酸二辛酯;碳酸二辛酯;",
    "alternate_name": "Carbonic acid, dioctyl ester;Dioctyl carbonate;Cetiol CC;Dicaprylyl carbonate;Cetiol DD",
    "duplicated_cas_no": "",
    "SMILES": "O(C(OCCCCCCCC)=O)CCCCCCCC",
    "meta_data": {
        "InChI": "InChI=1S/C17H34O3/c1-3-5-7-9-11-13-15-19-17(18)20-16-14-12-10-8-6-4-2/h3-16H2,1-2H3",
        "InChIKey": null,
        "Canonical SMILES": "O=C(OCCCCCCCC)OCCCCCCCC",
        "Molecular Formula": "C<sub>17</sub>H<sub>34</sub>O<sub>3</sub>",
        "Molecular Mass": "286.45",
        "Boiling Point": "117-119 °C @ Press: 0.7-1 Torr",
        "Melting Point": "-18 °C",
        "Density": "0.895 g/cm³ @ Temp: 22 °C"
    }
}