{
    "cas_no": "1948-71-6",
    "key_name": "<em>N</em>-Acetyl-<span class=\"text-smallcaps\">L</span>-tyrosinamide",
    "cn_name": "N-乙酰基-L-酪氨酸胺;",
    "alternate_name": "Benzenepropanamide, α-(acetylamino)-4-hydroxy-, (α<em>S</em>)-;Hydrocinnamamide, α-acetamido-<em>p</em>-hydroxy-, <span class=\"text-smallcaps\">L</span>-;Benzenepropanamide, α-(acetylamino)-4-hydroxy-, (<em>S</em>)-;(α<em>S</em>)-α-(Acetylamino)-4-hydroxybenzenepropanamide;<em>N</em>-Acetyl-<span class=\"text-smallcaps\">L</span>-tyrosinamide;<em>N</em>-Acetyl-<span class=\"text-smallcaps\">L</span>-tyrosine amide;<em>N</em>-Acetyl-4-hydroxy-<span class=\"text-smallcaps\">L</span>-phenylalaninamide;NAYA;(2S)-2-Acetamido-3-(4-hydroxyphenyl)propanamide",
    "duplicated_cas_no": "",
    "SMILES": "C([C@H](NC(C)=O)C(N)=O)C1=CC=C(O)C=C1",
    "meta_data": {
        "InChI": "InChI=1S/C11H14N2O3/c1-7(14)13-10(11(12)16)6-8-2-4-9(15)5-3-8/h2-5,10,15H,6H2,1H3,(H2,12,16)(H,13,14)/t10-/m0/s1",
        "InChIKey": null,
        "Canonical SMILES": "O=C(N)C(NC(=O)C)CC1=CC=C(O)C=C1",
        "Molecular Formula": "C<sub>11</sub>H<sub>14</sub>N<sub>2</sub>O<sub>3</sub>",
        "Molecular Mass": "222.24",
        "Melting Point": "224 °C",
        "Density": "1.19 g/cm³"
    }
}