{
    "cas_no": "70639-77-9",
    "key_name": "1,2,3,4-Tetrahydro-2-oxo-6-quinolinecarboxylic acid",
    "cn_name": null,
    "alternate_name": "6-Quinolinecarboxylic acid, 1,2,3,4-tetrahydro-2-oxo-;1,2,3,4-Tetrahydro-2-oxo-6-quinolinecarboxylic acid;2-Oxo-1,2,3,4-tetrahydroquinoline-6-carboxylic acid;2-Oxo-3,4-dihydro-1<em>H</em>-quinoline-6-carboxylic acid",
    "duplicated_cas_no": "",
    "SMILES": "C(O)(=O)C=1C=C2C(NC(=O)CC2)=CC1",
    "meta_data": {
        "InChI": "InChI=1S/C10H9NO3/c12-9-4-2-6-5-7(10(13)14)1-3-8(6)11-9/h1,3,5H,2,4H2,(H,11,12)(H,13,14)",
        "InChIKey": null,
        "Canonical SMILES": "O=C(O)C1=CC=C2NC(=O)CCC2=C1",
        "Molecular Formula": "C<sub>10</sub>H<sub>9</sub>NO<sub>3</sub>",
        "Molecular Mass": "191.18",
        "Melting Point": "&gt;300 °C"
    }
}