{
    "cas_no": "23235-61-2",
    "key_name": "Ditrimethylolpropane",
    "cn_name": "双(三羟甲基)丙烷;二缩(1,1,1-三羟甲基丙烷);",
    "alternate_name": "1,3-Propanediol, 2,2′-[oxybis(methylene)]bis[2-ethyl-;1,3-Propanediol, 2,2′-(oxydimethylene)bis[2-ethyl-;2,2′-[Oxybis(methylene)]bis[2-ethyl-1,3-propanediol];Ditrimethylolpropane;Bis(1,1-dimethylolpropyl)dimethyl ether;2,2′-(Oxydimethylene)bis(2-ethyl-1,3-propanediol);Bistrimethylolpropane;3,3,7,7-Tetrakis(hydroxymethyl)-5-oxanonane;Di-TMP;2,2-Bis(dimethylol)dibutyl ether",
    "duplicated_cas_no": "135669-60-2;1287652-24-7",
    "SMILES": "C(COCC(CC)(CO)CO)(CC)(CO)CO",
    "meta_data": {
        "InChI": "InChI=1S/C12H26O5/c1-3-11(5-13,6-14)9-17-10-12(4-2,7-15)8-16/h13-16H,3-10H2,1-2H3",
        "InChIKey": null,
        "Canonical SMILES": "OCC(CO)(COCC(CO)(CO)CC)CC",
        "Molecular Formula": "C<sub>12</sub>H<sub>26</sub>O<sub>5</sub>",
        "Molecular Mass": "250.33",
        "Boiling Point": "215 °C",
        "Melting Point": "109.5 °C"
    }
}