{
    "cas_no": "2380-94-1",
    "key_name": "1<em>H</em>-Indol-4-ol",
    "cn_name": "4-羟基吲哚;",
    "alternate_name": "1<em>H</em>-Indol-4-ol;Indol-4-ol;4-Hydroxyindole;4-Hydroxy-1<em>H</em>-indole",
    "duplicated_cas_no": "",
    "SMILES": "OC1=C2C(=CC=C1)NC=C2",
    "meta_data": {
        "InChI": "InChI=1S/C8H7NO/c10-8-3-1-2-7-6(8)4-5-9-7/h1-5,9-10H",
        "InChIKey": null,
        "Canonical SMILES": "OC1=CC=CC=2NC=CC12",
        "Molecular Formula": "C<sub>8</sub>H<sub>7</sub>NO",
        "Molecular Mass": "133.15",
        "Boiling Point": "100 °C @ Press: 0.01 Torr",
        "Melting Point": "100 °C"
    }
}