{
    "cas_no": "338-65-8",
    "key_name": "1-Chloro-2,2-difluoroethane",
    "cn_name": null,
    "alternate_name": "Ethane, 2-chloro-1,1-difluoro-;2,2-Difluoroethyl chloride;2-Chloro-1,1-difluoroethane;1-Chloro-2,2-difluoroethane;1,1-Difluoro-2-chloroethane;2,2-Difluoro-1-chloroethane;HCFC-142",
    "duplicated_cas_no": "",
    "SMILES": "C(CCl)(F)F",
    "meta_data": {
        "InChI": "InChI=1S/C2H3ClF2/c3-1-2(4)5/h2H,1H2",
        "InChIKey": null,
        "Canonical SMILES": "FC(F)CCl",
        "Molecular Formula": "C<sub>2</sub>H<sub>3</sub>ClF<sub>2</sub>",
        "Molecular Mass": "100.50",
        "Boiling Point": "36 °C"
    }
}