{
    "cas_no": "372-19-0",
    "key_name": "3-Fluoroaniline",
    "cn_name": "3-氟苯胺;间氟苯胺;",
    "alternate_name": "Benzenamine, 3-fluoro-;Aniline, <em>m</em>-fluoro-;3-Fluorobenzenamine;3-Fluoroaniline;<em>m</em>-Fluorophenylamine;1-Amino-3-fluorobenzene;<em>m</em>-Fluoroaniline;3-Fluorophenylamine;NSC 10300;4-Amino-2-fluorobenzene",
    "duplicated_cas_no": "",
    "SMILES": "FC1=CC(N)=CC=C1",
    "meta_data": {
        "InChI": "InChI=1S/C6H6FN/c7-5-2-1-3-6(8)4-5/h1-4H,8H2",
        "InChIKey": null,
        "Canonical SMILES": "FC1=CC=CC(N)=C1",
        "Molecular Formula": "C<sub>6</sub>H<sub>6</sub>FN",
        "Molecular Mass": "111.12",
        "Boiling Point": "188 °C",
        "Melting Point": "-5 °C",
        "Density": "1.16004 g/cm³ @ Temp: 15.8 °C"
    }
}