{
    "cas_no": "76006-14-9",
    "key_name": "3-Chloro-1<em>H</em>-pyrazolo[3,4-<em>c</em>]pyridine",
    "cn_name": null,
    "alternate_name": "1<em>H</em>-Pyrazolo[3,4-<em>c</em>]pyridine, 3-chloro-;3-Chloro-1<em>H</em>-pyrazolo[3,4-<em>c</em>]pyridine;3-Chloro-2<em>H</em>-pyrazolo[3,4-<em>c</em>]pyridine",
    "duplicated_cas_no": "",
    "SMILES": "ClC=1C=2C(=CN=CC2)NN1",
    "meta_data": {
        "InChI": "InChI=1S/C6H4ClN3/c7-6-4-1-2-8-3-5(4)9-10-6/h1-3H,(H,9,10)",
        "InChIKey": null,
        "Canonical SMILES": "ClC1=NNC=2C=NC=CC12",
        "Molecular Formula": "C<sub>6</sub>H<sub>4</sub>ClN<sub>3</sub>",
        "Molecular Mass": "153.57",
        "Melting Point": "212.0-212.5 °C (sublm)"
    }
}