{
    "cas_no": "17739-45-6",
    "key_name": "2-(2-Bromoethoxy)tetrahydro-2<em>H</em>-pyran",
    "cn_name": "2-(2-乙氧基溴)四氢-2h-吡喃;",
    "alternate_name": "2<em>H</em>-Pyran, 2-(2-bromoethoxy)tetrahydro-;2-(2-Bromoethoxy)tetrahydro-2<em>H</em>-pyran;2-(2-Bromoethoxy)tetrahydropyran;2-[(Tetrahydropyran-2-yl)oxy]ethyl bromide;2-Bromo-1-(tetrahydropyran-2-yloxy)ethane;2-Bromoethanol tetrahydropyranyl ether;2-Bromoethyl 2-tetrahydropyranyl ether;2-Tetrahydropyranyl 2-bromoethyl ether;1-Bromo-2-(2-tetrahydropyranyloxy)ethane;1-Bromo-2-(tetrahydropyranyloxy)ethane;1-(Tetrahydropyran-2-yloxy)-2-bromoethane;NSC 216078;2-[(2-Bromoethyl)oxy]tetrahydro-2<em>H</em>-pyran;2-(2-Bromoethoxy)oxane",
    "duplicated_cas_no": "59146-56-4;1603834-15-6",
    "SMILES": "O(CCBr)C1CCCCO1",
    "meta_data": {
        "InChI": "InChI=1S/C7H13BrO2/c8-4-6-10-7-3-1-2-5-9-7/h7H,1-6H2",
        "InChIKey": null,
        "Canonical SMILES": "BrCCOC1OCCCC1",
        "Molecular Formula": "C<sub>7</sub>H<sub>13</sub>BrO<sub>2</sub>",
        "Molecular Mass": "209.08",
        "Boiling Point": "75 °C @ Press: 1 Torr"
    }
}