{
    "cas_no": "103628-48-4",
    "key_name": "Sumatriptan succinate",
    "cn_name": "琥珀酸舒马曲坦;3-(2-(二甲胺基)乙基)-N-甲基-1H-吲哚-5-基甲基磺酰胺琥珀酸盐;",
    "alternate_name": "Butanedioic acid, compd. with 3-[2-(dimethylamino)ethyl]-<em>N</em>-methyl-1<em>H</em>-indole-5-methanesulfonamide (1:1);1<em>H</em>-Indole-5-methanesulfonamide, 3-[2-(dimethylamino)ethyl]-<em>N</em>-methyl-, butanedioate (1:1);Sumatriptan succinate;GR 43175C;Imigran;Imitrex;Imigrane;Sumitrex;Migragesin;Megrelan;Imiject;Treximet;Sumagraine;Suminat;1-[3-[2-(Dimethylamino)ethyl]-1<em>H</em>-indol-5-yl]-<em>N</em>-methylmethanesulfonamide; butanedioic acid",
    "duplicated_cas_no": "",
    "SMILES": "C(CN(C)C)C=1C=2C(NC1)=CC=C(CS(NC)(=O)=O)C2.C(CC(O)=O)C(O)=O",
    "meta_data": {
        "InChI": "InChI=1S/C14H21N3O2S.C4H6O4/c1-15-20(18,19)10-11-4-5-14-13(8-11)12(9-16-14)6-7-17(2)3;5-3(6)1-2-4(7)8/h4-5,8-9,15-16H,6-7,10H2,1-3H3;1-2H2,(H,5,6)(H,7,8)",
        "InChIKey": null,
        "Canonical SMILES": "O=C(O)CCC(=O)O.O=S(=O)(NC)CC=1C=CC=2NC=C(C2C1)CCN(C)C",
        "Molecular Formula": "C<sub>14</sub>H<sub>21</sub>N<sub>3</sub>O<sub>2</sub>S.C<sub>4</sub>H<sub>6</sub>O<sub>4</sub>",
        "Molecular Mass": "",
        "Melting Point": "165-166 °C"
    }
}