{
    "cas_no": "108-13-4",
    "key_name": "Malonamide",
    "cn_name": "丙二酰胺;",
    "alternate_name": "Propanediamide;Malonamide;Malondiamide;Malonic acid diamide;Malonodiamide;Malonic diamide;NSC 2134",
    "duplicated_cas_no": "",
    "SMILES": "C(C(N)=O)C(N)=O",
    "meta_data": {
        "InChI": "InChI=1S/C3H6N2O2/c4-2(6)1-3(5)7/h1H2,(H2,4,6)(H2,5,7)",
        "InChIKey": null,
        "Canonical SMILES": "O=C(N)CC(=O)N",
        "Molecular Formula": "C<sub>3</sub>H<sub>6</sub>N<sub>2</sub>O<sub>2</sub>",
        "Molecular Mass": "102.09",
        "Melting Point": "167-169 °C",
        "Density": "1.430 g/cm³"
    }
}