{
    "cas_no": "4170-30-3",
    "key_name": "Crotonaldehyde",
    "cn_name": null,
    "alternate_name": "2-Butenal;Crotonaldehyde;Crotonal;Crotonic aldehyde;1-Formylpropene;2-Butenaldehyde;NSC 56354;But-2-en-1-al",
    "duplicated_cas_no": "",
    "SMILES": "C(=CC)C=O",
    "meta_data": {
        "InChI": "InChI=1S/C4H6O/c1-2-3-4-5/h2-4H,1H3",
        "InChIKey": null,
        "Canonical SMILES": "O=CC=CC",
        "Molecular Formula": "C<sub>4</sub>H<sub>6</sub>O",
        "Molecular Mass": "70.09",
        "Boiling Point": "102 °C",
        "Melting Point": "-76.5 °C",
        "Density": "0.853 g/cm³ @ Temp: 20 °C"
    }
}