{
    "cas_no": "884-33-3",
    "key_name": "Benzylsuccinic acid",
    "cn_name": null,
    "alternate_name": "Butanedioic acid, 2-(phenylmethyl)-;Succinic acid, benzyl-;Butanedioic acid, (phenylmethyl)-;2-(Phenylmethyl)butanedioic acid;Benzylsuccinic acid;2-Benzylsuccinic acid;<span class=\"text-smallcaps\">DL</span>-Benzylsuccinic acid;NSC 20708;α-Benzylsuccinic acid;2-Benzylbutanedioic acid",
    "duplicated_cas_no": "36092-42-9;856290-04-5",
    "SMILES": "C(CC1=CC=CC=C1)(CC(O)=O)C(O)=O",
    "meta_data": {
        "InChI": "InChI=1S/C11H12O4/c12-10(13)7-9(11(14)15)6-8-4-2-1-3-5-8/h1-5,9H,6-7H2,(H,12,13)(H,14,15)",
        "InChIKey": null,
        "Canonical SMILES": "O=C(O)CC(C(=O)O)CC=1C=CC=CC1",
        "Molecular Formula": "C<sub>11</sub>H<sub>12</sub>O<sub>4</sub>",
        "Molecular Mass": "208.21",
        "Melting Point": "162 °C"
    }
}