{
    "cas_no": "80-42-2",
    "key_name": "Propyl benzenesulfonate",
    "cn_name": "硫酸镓;",
    "alternate_name": "Benzenesulfonic acid, propyl ester;Propyl benzenesulfonate;NSC 3216",
    "duplicated_cas_no": "",
    "SMILES": "S(OCCC)(=O)(=O)C1=CC=CC=C1",
    "meta_data": {
        "InChI": "InChI=1S/C9H12O3S/c1-2-8-12-13(10,11)9-6-4-3-5-7-9/h3-7H,2,8H2,1H3",
        "InChIKey": null,
        "Canonical SMILES": "O=S(=O)(OCCC)C=1C=CC=CC1",
        "Molecular Formula": "C<sub>9</sub>H<sub>12</sub>O<sub>3</sub>S",
        "Molecular Mass": "200.25",
        "Boiling Point": "153-154 °C @ Press: 9 Torr",
        "Melting Point": "100 °C (decomp)"
    }
}