{
    "cas_no": "1483-07-4",
    "key_name": "Albizziin",
    "cn_name": "L-脲基丙氨酸;",
    "alternate_name": "<span class=\"text-smallcaps\">L</span>-Alanine, 3-[(aminocarbonyl)amino]-;Propionic acid, 2-amino-3-ureido-;Albizziine;Albizzine;3-[(Aminocarbonyl)amino]-<span class=\"text-smallcaps\">L</span>-alanine;<span class=\"text-smallcaps\">L</span>-Albizziine;Albizzin;<span class=\"text-smallcaps\">L</span>-2-Amino-3-ureidopropionic acid;Albizziin;<span class=\"text-smallcaps\">L</span>-Albizziin;<span class=\"text-smallcaps\">L</span>-β-Ureidoalanine;NSC 132089;(2S)-2-Azaniumyl-3-(carbamoylamino)propanoate",
    "duplicated_cas_no": "",
    "SMILES": "[C@H](CNC(N)=O)(C(O)=O)N",
    "meta_data": {
        "InChI": "InChI=1S/C4H9N3O3/c5-2(3(8)9)1-7-4(6)10/h2H,1,5H2,(H,8,9)(H3,6,7,10)/t2-/m0/s1",
        "InChIKey": null,
        "Canonical SMILES": "O=C(N)NCC(N)C(=O)O",
        "Molecular Formula": "C<sub>4</sub>H<sub>9</sub>N<sub>3</sub>O<sub>3</sub>",
        "Molecular Mass": "147.13",
        "Melting Point": "214-215 °C"
    }
}