{
    "cas_no": "13501-76-3",
    "key_name": "(3-Chloropropyl)diethoxymethylsilane",
    "cn_name": "γ-氯丙基甲基二乙氧基硅烷;硅烷偶联剂YDH-701;",
    "alternate_name": "Silane, (3-chloropropyl)diethoxymethyl-;(3-Chloropropyl)diethoxymethylsilane;3-Chloropropylmethyldiethoxysilane;(γ-Chloropropyl)diethoxymethylsilane;DB 220;YDH 701;FX-M 01868",
    "duplicated_cas_no": "",
    "SMILES": "[Si](CCCCl)(OCC)(OCC)C",
    "meta_data": {
        "InChI": "InChI=1S/C8H19ClO2Si/c1-4-10-12(3,11-5-2)8-6-7-9/h4-8H2,1-3H3",
        "InChIKey": null,
        "Canonical SMILES": "ClCCC[Si](OCC)(OCC)C",
        "Molecular Formula": "C<sub>8</sub>H<sub>19</sub>ClO<sub>2</sub>Si",
        "Molecular Mass": "210.77",
        "Boiling Point": "81-83 °C @ Press: 8 Torr",
        "Density": "0.9744 g/cm³ @ Temp: 20 °C"
    }
}