{
    "cas_no": "15545-48-9",
    "key_name": "Chlortoluron",
    "cn_name": "绿麦隆;N,N-二甲基-N-(3-氯-4-甲苯基)脲;",
    "alternate_name": "Urea, <em>N</em>′-(3-chloro-4-methylphenyl)-<em>N</em>,<em>N</em>-dimethyl-;Urea, 3-(3-chloro-<em>p</em>-tolyl)-1,1-dimethyl-;<em>N</em>′-(3-Chloro-4-methylphenyl)-<em>N</em>,<em>N</em>-dimethylurea;Chlorotoluron;Chlortoluron;1-(3-Chloro-4-methylphenyl)-3,3-dimethylurea;<em>N</em>-(3-Chloro-4-methylphenyl)-<em>N</em>′,<em>N</em>′-dimethylurea;Dicuran;1-(3-Chloro-4-methyl)-3,3-dimethylurea;3-(3-Chloro-<em>p</em>-tolyl)-1,1-dimethylurea;<em>N</em>,<em>N</em>-Dimethyl-<em>N</em>′-(3-chloro-4-methylphenyl)urea;CGA 15646;Syncuran 80DP;Syncuran;<em>N</em>-(3-Chloro-4-tolyl)-<em>N</em>′,<em>N</em>′-dimethylurea;Lentipur Forte;Tolurex;Dicuran 500FL;C 2242;1,1-Dimethyl-3-(3-chloro-4-methylphenyl)urea;Lentipur Flo;Lentipur;Lentipur 500SC;Tolurgan;Klortosan;3-(3-Chloro-4-methylphenyl)-1,1-dimethylurea;Shvat SC",
    "duplicated_cas_no": "11111-56-1",
    "SMILES": "N(C(N(C)C)=O)C1=CC(Cl)=C(C)C=C1",
    "meta_data": {
        "InChI": "InChI=1S/C10H13ClN2O/c1-7-4-5-8(6-9(7)11)12-10(14)13(2)3/h4-6H,1-3H3,(H,12,14)",
        "InChIKey": null,
        "Canonical SMILES": "O=C(NC1=CC=C(C(Cl)=C1)C)N(C)C",
        "Molecular Formula": "C<sub>10</sub>H<sub>13</sub>ClN<sub>2</sub>O",
        "Molecular Mass": "212.68",
        "Melting Point": "147-148 °C"
    }
}