{
    "cas_no": "13329-40-3",
    "key_name": "4-Iodoacetophenone",
    "cn_name": "4-碘代苯乙酮;4-碘苯乙酮;",
    "alternate_name": "Ethanone, 1-(4-iodophenyl)-;Acetophenone, 4′-iodo-;Acetophenone, <em>p</em>-iodo-;1-(4-Iodophenyl)ethanone;4-Iodoacetophenone;4′-Iodoacetophenone;<em>p</em>-Iodoacetophenone;<em>p</em>-Acetylphenyl iodide;1-(4-Iodophenyl)-1-ethanone;4-Acetylphenyl iodide;4-Iodophenyl methyl ketone;<em>p</em>-Iodophenyl methyl ketone;1-Acetyl-4-iodobenzene;NSC 97396;4-Acetyl-1-iodobenzene;1-Iodo-4-acetylbenzene;Methyl 4-iodophenyl ketone;4-Acetyliodobenzene;Methyl <em>p</em>-iodophenyl ketone",
    "duplicated_cas_no": "",
    "SMILES": "C(C)(=O)C1=CC=C(I)C=C1",
    "meta_data": {
        "InChI": "InChI=1S/C8H7IO/c1-6(10)7-2-4-8(9)5-3-7/h2-5H,1H3",
        "InChIKey": null,
        "Canonical SMILES": "O=C(C1=CC=C(I)C=C1)C",
        "Molecular Formula": "C<sub>8</sub>H<sub>7</sub>IO",
        "Molecular Mass": "246.05",
        "Boiling Point": "142-144 °C @ Press: 12 Torr",
        "Melting Point": "86 °C"
    }
}