{
    "cas_no": "22494-42-4",
    "key_name": "Diflunisal",
    "cn_name": "二氟尼柳;二氟苯水杨酸;5-(2,4-二氟苯基)水杨酸;",
    "alternate_name": "[1,1′-Biphenyl]-3-carboxylic acid, 2′,4′-difluoro-4-hydroxy-;3-Biphenylcarboxylic acid, 2′,4′-difluoro-4-hydroxy-;2′,4′-Difluoro-4-hydroxy[1,1′-biphenyl]-3-carboxylic acid;5-(2,4-Difluorophenyl)salicylic acid;Diflunisal;MK 647;Dolobid;Fluodonil;Dolisal;Dolobis;Fluniget;Flustar;Flovacil;Adomal;Difludol;2′,4′-Difluoro-4-hydroxybiphenyl-3-carboxylic acid;Doloban;Diflusinal;2-Hydroxy-5-(2,4-difluorophenyl)benzoic acid;MeSH ID: D004061",
    "duplicated_cas_no": "84376-68-1",
    "SMILES": "FC1=C(C=CC(F)=C1)C2=CC(C(O)=O)=C(O)C=C2",
    "meta_data": {
        "InChI": "InChI=1S/C13H8F2O3/c14-8-2-3-9(11(15)6-8)7-1-4-12(16)10(5-7)13(17)18/h1-6,16H,(H,17,18)",
        "InChIKey": null,
        "Canonical SMILES": "O=C(O)C=1C=C(C=CC1O)C2=CC=C(F)C=C2F",
        "Molecular Formula": "C<sub>13</sub>H<sub>8</sub>F<sub>2</sub>O<sub>3</sub>",
        "Molecular Mass": "250.20",
        "Melting Point": "210-221 °C"
    }
}