{
    "cas_no": "288-05-1",
    "key_name": "Selenophene",
    "cn_name": "硒酚;硒酚;硒吩;",
    "alternate_name": "Selenophene;Selenacyclopentadiene;Selenofuran",
    "duplicated_cas_no": "",
    "SMILES": "C=1C=C[Se]C1",
    "meta_data": {
        "InChI": "InChI=1S/C4H4Se/c1-2-4-5-3-1/h1-4H",
        "InChIKey": null,
        "Canonical SMILES": "[Se]1C=CC=C1",
        "Molecular Formula": "C<sub>4</sub>H<sub>4</sub>Se",
        "Molecular Mass": "131.03",
        "Boiling Point": "109.9-110.1 °C @ Press: 752.1 Torr",
        "Density": "1.5232 g/cm³ @ Temp: 20 °C"
    }
}