{
    "cas_no": "103-64-0",
    "key_name": "β-Bromostyrene",
    "cn_name": "beta-溴苯乙烯;溴代苏合香烯;",
    "alternate_name": "Benzene, (2-bromoethenyl)-;Styrene, β-bromo-;(2-Bromoethenyl)benzene;α-Bromo-β-phenylethylene;β-Bromostyrene;ω-Bromostyrene;Bromostyrolene;β-Bromstyrol;Hyacinth base;1-Bromo-2-phenylethene;Bromstyrol;Styryl bromide;(2-Bromovinyl)benzene;1-Bromo-2-phenylethylene;NSC 8047;2-Phenylethenyl bromide",
    "duplicated_cas_no": "1340-14-3",
    "SMILES": "C(=CBr)C1=CC=CC=C1",
    "meta_data": {
        "InChI": "InChI=1S/C8H7Br/c9-7-6-8-4-2-1-3-5-8/h1-7H",
        "InChIKey": null,
        "Canonical SMILES": "BrC=CC=1C=CC=CC1",
        "Molecular Formula": "C<sub>8</sub>H<sub>7</sub>Br",
        "Molecular Mass": "183.05",
        "Boiling Point": "112 °C @ Press: 20 Torr",
        "Melting Point": "7 °C",
        "Density": "1.395-1.424 g/cm³"
    }
}