{
    "cas_no": "7283-96-7",
    "key_name": "5-Chloro-2-thiophenecarboxaldehyde",
    "cn_name": "5-氯噻吩-2-甲醛;",
    "alternate_name": "2-Thiophenecarboxaldehyde, 5-chloro-;5-Chloro-2-thiophenecarboxaldehyde;5-Chloro-2-formylthiophene;2-Chloro-5-formylthiophene;2-Chloro-5-thiophenecarboxaldehyde;5-Chlorothiophene-2-aldehyde",
    "duplicated_cas_no": "",
    "SMILES": "C(=O)C=1SC(Cl)=CC1",
    "meta_data": {
        "InChI": "InChI=1S/C5H3ClOS/c6-5-2-1-4(3-7)8-5/h1-3H",
        "InChIKey": null,
        "Canonical SMILES": "O=CC=1SC(Cl)=CC1",
        "Molecular Formula": "C<sub>5</sub>H<sub>3</sub>ClOS",
        "Molecular Mass": "146.59",
        "Boiling Point": "63-64 °C @ Press: 0.7 Torr"
    }
}