{
    "cas_no": "13078-76-7",
    "key_name": "Benzeneethanamine, 3,4-dimethoxy-<em>N</em>-methyl-, hydrochloride (1:1)",
    "cn_name": "3,4-二甲氧基-N-甲基苯乙胺盐酸盐;",
    "alternate_name": "Benzeneethanamine, 3,4-dimethoxy-<em>N</em>-methyl-, hydrochloride (1:1);Phenethylamine, 3,4-dimethoxy-<em>N</em>-methyl-, hydrochloride;Benzeneethanamine, 3,4-dimethoxy-<em>N</em>-methyl-, hydrochloride;<em>N</em>-Methyl-3,4-dimethoxyphenethylamine hydrochloride;<em>N</em>-Methyl-3,4-dimethoxybenzeneethanamine hydrochloride;[2-(3,4-Dimethoxyphenyl)ethyl](methyl)amine hydrochloride;3,4-Dimethoxy-<em>N</em>-methylphenethylamine hydrochloride;2-(3,4-Dimethoxyphenyl)-<em>N</em>-methylethanamine hydrochloride",
    "duplicated_cas_no": "",
    "SMILES": "O(C)C1=C(OC)C=CC(CCNC)=C1.Cl",
    "meta_data": {
        "InChI": "InChI=1S/C11H17NO2.ClH/c1-12-7-6-9-4-5-10(13-2)11(8-9)14-3;/h4-5,8,12H,6-7H2,1-3H3;1H",
        "InChIKey": null,
        "Canonical SMILES": "Cl.O(C1=CC=C(C=C1OC)CCNC)C",
        "Molecular Formula": "C<sub>11</sub>H<sub>17</sub>NO<sub>2</sub>.ClH",
        "Molecular Mass": "",
        "Melting Point": "167 °C"
    }
}