{
    "cas_no": "13870-30-9",
    "key_name": "Sodium silicate (Na<sub>2</sub>Si<sub>3</sub>O<sub>7</sub>)",
    "cn_name": "硅酸钠;粉状泡花碱;粉状速溶硅酸钠;水玻璃(液体);泡花碱(液体);硅酸钠(液体);泡花碱;水玻璃;",
    "alternate_name": "Silicon sodium oxide (Si<sub>3</sub>Na<sub>2</sub>O<sub>7</sub>);Silicic acid (H<sub>2</sub>Si<sub>3</sub>O<sub>7</sub>), disodium salt;Sodium silicate (Na<sub>2</sub>Si<sub>3</sub>O<sub>7</sub>);Disodium trisilicate;Sodium trisilicate;JM;Disodium trisilicate (Na<sub>2</sub>Si<sub>3</sub>O<sub>7</sub>);Sodium silicon oxide (Na<sub>2</sub>Si<sub>3</sub>O<sub>7</sub>)",
    "duplicated_cas_no": "12058-70-7;1350628-55-5",
    "SMILES": "[O].[Na].[Si]",
    "meta_data": {
        "InChI": "InChI=1S/Na.O.Si",
        "InChIKey": null,
        "Canonical SMILES": "[O].[Na].[Si]",
        "Molecular Formula": "Na.O.Si",
        "Molecular Mass": "",
        "Melting Point": "750 °C"
    }
}