{
    "uri": "substance/pt/13870309",
    "rn": "13870-30-9",
    "name": "Sodium silicate (Na<sub>2</sub>Si<sub>3</sub>O<sub>7</sub>)",
    "images": [],
    "inchi": "InChI=1S/Na.O.Si",
    "inchiKey": "InChIKey=GTDPZZZAGOEBQS-UHFFFAOYSA-N",
    "smile": "[O].[Na].[Si]",
    "canonicalSmile": "[O].[Na].[Si]",
    "molecularFormula": "Na.O.Si",
    "molecularMass": "",
    "experimentalProperties": [
        {
            "name": "Melting Point",
            "property": "750 °C",
            "sourceNumber": 1
        }
    ],
    "propertyCitations": [
        {
            "docUri": "document/pt/document/12241597",
            "sourceNumber": 1,
            "source": "Matveev, M. A.; Trudy Instituta - Moskovskii Khimiko-Tekhnologicheskii Institut imeni D. I. Mendeleeva, (1962), 37, 49-57, CAplus"
        }
    ],
    "synonyms": [
        "Silicon sodium oxide (Si<sub>3</sub>Na<sub>2</sub>O<sub>7</sub>)",
        "Silicic acid (H<sub>2</sub>Si<sub>3</sub>O<sub>7</sub>), disodium salt",
        "Sodium silicate (Na<sub>2</sub>Si<sub>3</sub>O<sub>7</sub>)",
        "Disodium trisilicate",
        "Sodium trisilicate",
        "JM",
        "Disodium trisilicate (Na<sub>2</sub>Si<sub>3</sub>O<sub>7</sub>)",
        "Sodium silicon oxide (Na<sub>2</sub>Si<sub>3</sub>O<sub>7</sub>)"
    ],
    "replacedRns": [
        "12058-70-7",
        "1350628-55-5"
    ],
    "hasMolfile": true,
    "source": "https://commonchemistry.cas.org/detail?cas_rn=13870-30-9"
}