{
    "cas_no": "5131-66-8",
    "key_name": "1-Butoxy-2-propanol",
    "cn_name": "1-丁氧基-2-丙醇;丙二醇1-单丁基醚;",
    "alternate_name": "2-Propanol, 1-butoxy-;1-Butoxy-2-propanol;1-Methyl-3-oxa-1-heptanol;1,2-Propylene glycol 1-monobutyl ether;2-Hydroxy-3-butoxypropane;NSC 2211;Solvenon PnB;3-Butoxy-2-propanol;1-(<em>n</em>-Butoxy)propan-2-ol",
    "duplicated_cas_no": "",
    "SMILES": "O(CC(C)O)CCCC",
    "meta_data": {
        "InChI": "InChI=1S/C7H16O2/c1-3-4-5-9-6-7(2)8/h7-8H,3-6H2,1-2H3",
        "InChIKey": null,
        "Canonical SMILES": "OC(C)COCCCC",
        "Molecular Formula": "C<sub>7</sub>H<sub>16</sub>O<sub>2</sub>",
        "Molecular Mass": "132.20",
        "Boiling Point": "171.5 °C",
        "Density": "0.880 g/cm³ @ Temp: 20 °C"
    }
}