{
    "cas_no": "6882-66-2",
    "key_name": "(-)-Sophoramine",
    "cn_name": "槐胺;槐胺碱;11,12,13,14-四去氢苦参次碱-15-酮;",
    "alternate_name": "1<em>H</em>,5<em>H</em>,10<em>H</em>-Dipyrido[2,1-<em>f</em>:3′,2′,1′-<em>ij</em>][1,6]naphthyridin-10-one, 2,3,6,7,7a,8,13b,13c-octahydro-, (7a<em>S</em>,13b<em>S</em>,13c<em>S</em>)-;Matridin-15-one, 11,12,13,14-tetradehydro-;Sophoramine;(7a<em>S</em>,13b<em>S</em>,13c<em>S</em>)-2,3,6,7,7a,8,13b,13c-Octahydro-1<em>H</em>,5<em>H</em>,10<em>H</em>-dipyrido[2,1-<em>f</em>:3′,2′,1′-<em>ij</em>][1,6]naphthyridin-10-one;(-)-Sophoramine;1<em>H</em>,5<em>H</em>,10<em>H</em>-Dipyrido[2,1-<em>f</em>:3′,2′,1′-<em>ij</em>][1,6]naphthyridin-10-one, 2,3,6,7,7a,8,13b,13c-octahydro-, [7a<em>S</em>-(7aα,13bα,13cα)]-",
    "duplicated_cas_no": "",
    "SMILES": "O=C1N2C([C@@]3([C@@]4([C@](C2)(CCCN4CCC3)[H])[H])[H])=CC=C1",
    "meta_data": {
        "InChI": "InChI=1S/C15H20N2O/c18-14-7-1-6-13-12-5-3-9-16-8-2-4-11(15(12)16)10-17(13)14/h1,6-7,11-12,15H,2-5,8-10H2/t11-,12+,15-/m0/s1",
        "InChIKey": null,
        "Canonical SMILES": "O=C1C=CC=C2N1CC3CCCN4CCCC2C43",
        "Molecular Formula": "C<sub>15</sub>H<sub>20</sub>N<sub>2</sub>O",
        "Molecular Mass": "244.33",
        "Melting Point": "164-165 °C"
    }
}