{
    "cas_no": "108-46-3",
    "key_name": "Resorcinol",
    "cn_name": "间苯二酚;1,3-苯二酚;",
    "alternate_name": "1,3-Benzenediol;Resorcinol;C.I. 76505;<em>m</em>-Benzenediol;C.I. Developer 4;C.I. Oxidation Base 31;Developer O;Developer R;Developer RS;Durafur Developer G;Fouramine RS;Fourrine 79;Fourrine EW;Nako TGG;Pelagol Grey RS;Pelagol RS;Resorcin;1,3-Dihydroxybenzene;<em>m</em>-Hydroquinone;<em>m</em>-Hydroxyphenol;3-Hydroxyphenol;Reso;<em>m</em>-Phenylenediol;RS 11H;RS 11L;<em>m</em>-Dihydroxybenzene;m-Hydroxyphenol;Rodol RS;NSC 1571;Redimix 401RAP60;Rezorsine;Resorcinol 80;1,3-Phenylenediol;<em>m</em>-Resorcinol;Cohedur RS;KH 8420;R 80",
    "duplicated_cas_no": "",
    "SMILES": "OC1=CC(O)=CC=C1",
    "meta_data": {
        "InChI": "InChI=1S/C6H6O2/c7-5-2-1-3-6(8)4-5/h1-4,7-8H",
        "InChIKey": null,
        "Canonical SMILES": "OC1=CC=CC(O)=C1",
        "Molecular Formula": "C<sub>6</sub>H<sub>6</sub>O<sub>2</sub>",
        "Molecular Mass": "110.11",
        "Boiling Point": "280 °C",
        "Melting Point": "109-111 °C",
        "Density": "1.2717 g/cm³"
    }
}