{
    "cas_no": "12069-85-1",
    "key_name": "Hafnium carbide (HfC)",
    "cn_name": "碳化铪;碳化铪陶瓷;",
    "alternate_name": "Hafnium carbide (HfC);Hafnium monocarbide;Hafnium monocarbide (HfC);Hafnium carbide",
    "duplicated_cas_no": "1208266-07-2",
    "SMILES": "",
    "meta_data": {
        "InChI": "",
        "InChIKey": null,
        "Canonical SMILES": "",
        "Molecular Formula": "CHf",
        "Molecular Mass": "",
        "Melting Point": "4160 °C",
        "Density": "12.67 g/cm³"
    }
}