{
    "uri": "substance/pt/12069851",
    "rn": "12069-85-1",
    "name": "Hafnium carbide (HfC)",
    "images": [],
    "inchi": "",
    "inchiKey": "",
    "smile": "",
    "canonicalSmile": "",
    "molecularFormula": "CHf",
    "molecularMass": "",
    "experimentalProperties": [
        {
            "name": "Melting Point",
            "property": "4160 °C",
            "sourceNumber": 1
        },
        {
            "name": "Density",
            "property": "12.67 g/cm³",
            "sourceNumber": 2
        }
    ],
    "propertyCitations": [
        {
            "docUri": "document/pt/document/23106267",
            "sourceNumber": 1,
            "source": "Agte, C.; Zeitschrift fuer Technische Physik, (1930), 11, 182-91, CAplus"
        },
        {
            "docUri": "document/pt/document/49271059",
            "sourceNumber": 2,
            "source": "Wang, Y. K.; Journal of Nuclear Materials, (2017), 492, 260-268, CAplus"
        }
    ],
    "synonyms": [
        "Hafnium carbide (HfC)",
        "Hafnium monocarbide",
        "Hafnium monocarbide (HfC)",
        "Hafnium carbide"
    ],
    "replacedRns": [
        "1208266-07-2"
    ],
    "hasMolfile": false,
    "source": "https://commonchemistry.cas.org/detail?cas_rn=12069-85-1"
}