{
    "cas_no": "1038-95-5",
    "key_name": "Tri-<em>p</em>-tolylphosphine",
    "cn_name": "对甲基三苯基膦;三(4-甲基苯基)膦;对甲基三苯基膦;三(对甲苯基)膦;",
    "alternate_name": "Phosphine, tris(4-methylphenyl)-;Phosphine, tri-<em>p</em>-tolyl-;Tris(4-methylphenyl)phosphine;Tri-<em>p</em>-tolylphosphine;Tris(<em>p</em>-tolyl)phosphine;Tris(<em>p</em>-methylphenyl)phosphine;Tri(4-methylphenyl)phosphine;NSC 97371;TPTP;TPTP (phosphine)",
    "duplicated_cas_no": "",
    "SMILES": "P(C1=CC=C(C)C=C1)(C2=CC=C(C)C=C2)C3=CC=C(C)C=C3",
    "meta_data": {
        "InChI": "InChI=1S/C21H21P/c1-16-4-10-19(11-5-16)22(20-12-6-17(2)7-13-20)21-14-8-18(3)9-15-21/h4-15H,1-3H3",
        "InChIKey": null,
        "Canonical SMILES": "C=1C=C(C=CC1P(C2=CC=C(C=C2)C)C3=CC=C(C=C3)C)C",
        "Molecular Formula": "C<sub>21</sub>H<sub>21</sub>P",
        "Molecular Mass": "304.37",
        "Melting Point": "146 °C"
    }
}