{
    "cas_no": "5259-98-3",
    "key_name": "5-Chloro-1-pentanol",
    "cn_name": null,
    "alternate_name": "1-Pentanol, 5-chloro-;5-Chloro-1-pentanol;Pentamethylene chlorohydrin;5-Chloropentanol;ω-Chloropentanol;NSC 1107;1-Chloro-5-pentanol",
    "duplicated_cas_no": "",
    "SMILES": "C(CCCl)CCO",
    "meta_data": {
        "InChI": "InChI=1S/C5H11ClO/c6-4-2-1-3-5-7/h7H,1-5H2",
        "InChIKey": null,
        "Canonical SMILES": "ClCCCCCO",
        "Molecular Formula": "C<sub>5</sub>H<sub>11</sub>ClO",
        "Molecular Mass": "122.59",
        "Boiling Point": "112 °C @ Press: 12 Torr",
        "Density": "1.0436 g/cm³ @ Temp: 20 °C"
    }
}