{
    "cas_no": "75-61-6",
    "key_name": "Dibromodifluoromethane",
    "cn_name": "二溴二氟甲烷;二氟二溴甲烷;",
    "alternate_name": "Methane, dibromodifluoro-;Dibromodifluoromethane;Halon 1202;Difluorodibromomethane;Freon 12B2;R 12B2;Carbon dibromide difluoride;Carbon bromide fluoride (CBr<sub>2</sub>F<sub>2</sub>);F 12B2",
    "duplicated_cas_no": "",
    "SMILES": "C(Br)(Br)(F)F",
    "meta_data": {
        "InChI": "InChI=1S/CBr2F2/c2-1(3,4)5",
        "InChIKey": null,
        "Canonical SMILES": "FC(F)(Br)Br",
        "Molecular Formula": "CBr<sub>2</sub>F<sub>2</sub>",
        "Molecular Mass": "209.82",
        "Boiling Point": "25 °C @ Press: 760 Torr",
        "Melting Point": "-110.1 °C",
        "Density": "2 x 10<sup>-6</sup> g/cm³ @ Temp: 15 °C"
    }
}