{
    "cas_no": "5340-36-3",
    "key_name": "3-Methyl-3-octanol",
    "cn_name": "3-甲基-3-辛醇;3-甲基-3-辛醇;",
    "alternate_name": "3-Octanol, 3-methyl-;3-Methyl-3-octanol;Amylethylmethylcarbinol;NSC 903",
    "duplicated_cas_no": "138051-58-8",
    "SMILES": "C(CCCCC)(CC)(C)O",
    "meta_data": {
        "InChI": "InChI=1S/C9H20O/c1-4-6-7-8-9(3,10)5-2/h10H,4-8H2,1-3H3",
        "InChIKey": null,
        "Canonical SMILES": "OC(C)(CC)CCCCC",
        "Molecular Formula": "C<sub>9</sub>H<sub>20</sub>O",
        "Molecular Mass": "144.25",
        "Boiling Point": "97.5 °C @ Press: 50 Torr",
        "Density": "0.8108 g/cm³ @ Temp: 25 °C"
    }
}