{
    "cas_no": "3068-78-8",
    "key_name": "<em>N</em>-[3-(Trimethoxysilyl)propyl]cyclohexanamine",
    "cn_name": "环己胺基丙基三甲氧基硅烷;",
    "alternate_name": "Cyclohexanamine, <em>N</em>-[3-(trimethoxysilyl)propyl]-;Cyclohexylamine, <em>N</em>-[3-(trimethoxysilyl)propyl]-;<em>N</em>-[3-(Trimethoxysilyl)propyl]cyclohexanamine;[3-(Cyclohexylamino)propyl]trimethoxysilane;SLM 50-892;PSX 5411;GF 92;MA 0701B;(<em>N</em>-Cyclohexyl-3-aminopropyl)trimethoxysilane;Geniosil GF 92;LMD 58;γ-<em>N</em>-Cyclohexylaminopropyltrimethoxysilane;<em>N</em>-[3-[Trimethoxysilyl]propyl]cyclohexylamine;γ-Cyclohexylaminopropyltrimethoxysilane",
    "duplicated_cas_no": "62169-47-5",
    "SMILES": "[Si](CCCNC1CCCCC1)(OC)(OC)OC",
    "meta_data": {
        "InChI": "InChI=1S/C12H27NO3Si/c1-14-17(15-2,16-3)11-7-10-13-12-8-5-4-6-9-12/h12-13H,4-11H2,1-3H3",
        "InChIKey": null,
        "Canonical SMILES": "O(C)[Si](OC)(OC)CCCNC1CCCCC1",
        "Molecular Formula": "C<sub>12</sub>H<sub>27</sub>NO<sub>3</sub>Si",
        "Molecular Mass": "261.43",
        "Boiling Point": "114 °C @ Press: 3 Torr",
        "Density": "0.99 g/cm³"
    }
}