{
    "cas_no": "556-67-2",
    "key_name": "Octamethylcyclotetrasiloxane",
    "cn_name": "八甲基环四硅氧烷;八甲基硅油;",
    "alternate_name": "Cyclotetrasiloxane, 2,2,4,4,6,6,8,8-octamethyl-;Cyclotetrasiloxane, octamethyl-;2,2,4,4,6,6,8,8-Octamethylcyclotetrasiloxane;Octamethylcyclotetrasiloxane;NUC Silicone VS 7207;Union Carbide 7207;SF 1173;UC 7207;VS 7207;Cyclic dimethylsiloxane tetramer;KF 994;SH 344;Abil K 4;Octamethylcyclotetrasiloxanes;Silbione V 2;Dow Corning 244;Dow Corning 344;Volasil 244;DC 344;Mirasil CM 4;TSF 404;LS 8620;D 4;Dabco DC 5258;DC 5258;Tetracyclomethicone;Y 7175;NSC 345674;SH 244;Silbione 70045V2;DC 244;Dow Corning 244 Fluid;DWQ 110;DWQ 120;PMX 0110;XF 3803;YF 393;ZBH 270;SH 244 Fluid;SH 30;Additive 8030;2,2,4,4,6,6,8,8-Octamethyl-1,3,5,7,2,4,6,8-tetraoxatetrasilocane;L 6907;Xiameter PMX 0244;PMX 0244;TSF 451-100MA;Octamethyltetracyclosiloxane;Dow Corning 344 Fluid;Sylgard 18",
    "duplicated_cas_no": "83874-62-8;104986-37-0;117563-66-3;1257661-59-8",
    "SMILES": "C[Si]1(C)O[Si](C)(C)O[Si](C)(C)O[Si](C)(C)O1",
    "meta_data": {
        "InChI": "InChI=1S/C8H24O4Si4/c1-13(2)9-14(3,4)11-16(7,8)12-15(5,6)10-13/h1-8H3",
        "InChIKey": null,
        "Canonical SMILES": "O1[Si](O[Si](O[Si](O[Si]1(C)C)(C)C)(C)C)(C)C",
        "Molecular Formula": "C<sub>8</sub>H<sub>24</sub>O<sub>4</sub>Si<sub>4</sub>",
        "Molecular Mass": "296.62",
        "Boiling Point": "175 °C",
        "Melting Point": "17.5 °C",
        "Density": "0.9558 g/cm³"
    }
}