{
    "cas_no": "78755-81-4",
    "key_name": "Flumazenil",
    "cn_name": "氟马西尼;8-氟-5,6-二氢-5-甲基-6-氧代-4H-咪唑并[1,5-a][1,4]苯并二氮杂卓-3-甲酸乙酯;",
    "alternate_name": "4<em>H</em>-Imidazo[1,5-<em>a</em>][1,4]benzodiazepine-3-carboxylic acid, 8-fluoro-5,6-dihydro-5-methyl-6-oxo-, ethyl ester;Ro 15-1788;Flumazenil;Anexate;Flumazepil;Ro 151788;Romazicon;Flumenazil;Ro 41-8157;Ro 1722;Mazicon;Lanexat;Ro 15-1788/000;MeSH ID: D005442",
    "duplicated_cas_no": "",
    "SMILES": "C(OCC)(=O)C1=C2N(C=3C(C(=O)N(C)C2)=CC(F)=CC3)C=N1",
    "meta_data": {
        "InChI": "InChI=1S/C15H14FN3O3/c1-3-22-15(21)13-12-7-18(2)14(20)10-6-9(16)4-5-11(10)19(12)8-17-13/h4-6,8H,3,7H2,1-2H3",
        "InChIKey": null,
        "Canonical SMILES": "O=C(OCC)C=1N=CN2C3=CC=C(F)C=C3C(=O)N(C)CC12",
        "Molecular Formula": "C<sub>15</sub>H<sub>14</sub>FN<sub>3</sub>O<sub>3</sub>",
        "Molecular Mass": "303.29",
        "Melting Point": "201-203 °C"
    }
}