{
    "cas_no": "77-73-6",
    "key_name": "Dicyclopentadiene",
    "cn_name": "二聚环戊二烯;二环戊二烯;双环戊二烯;",
    "alternate_name": "4,7-Methano-1<em>H</em>-indene, 3a,4,7,7a-tetrahydro-;4,7-Methanoindene, 3a,4,7,7a-tetrahydro-;3a,4,7,7a-Tetrahydro-4,7-methano-1<em>H</em>-indene;Bicyclopentadiene;Biscyclopentadiene;3a,4,7,7a-Tetrahydro-4,7-methanoindene;Dicyclopentadiene;Cyclopentadiene dimer;Tricyclo[5.2.1.0<sup>2,6</sup>]deca-3,8-diene;NSC 7352;DCPD 103;Tricyclo[4.3.1.0<sup>2,5</sup>]deca-3,7-diene;Prometa XP 100;Ultrene;Tricyclodecadiene;DCPD;Ultrene 99;Ultrene DCPD;Tricyclo[4.3.0.1<sup>2,5</sup>]deca-3,7-diene;3<em>a</em>,4,7,7<em>a</em>-Tetrahydro-4,7-methanoindene;Ultrene 97;Ultrene 99X;Ultrene 99-6;KDCPD 130;SL 6905",
    "duplicated_cas_no": "45737-84-6;54335-17-0;107760-16-7;275363-11-6;1910068-41-5",
    "SMILES": "C12C(C3CC1C=C3)C=CC2",
    "meta_data": {
        "InChI": "InChI=1S/C10H12/c1-2-9-7-4-5-8(6-7)10(9)3-1/h1-2,4-5,7-10H,3,6H2",
        "InChIKey": null,
        "Canonical SMILES": "C1=CC2C3C=CC(C3)C2C1",
        "Molecular Formula": "C<sub>10</sub>H<sub>12</sub>",
        "Molecular Mass": "132.20",
        "Boiling Point": "64-65 °C @ Press: 14 Torr",
        "Melting Point": "32 °C",
        "Density": "0.9302 g/cm³ @ Temp: 35 °C"
    }
}