{
    "cas_no": "3458-98-8",
    "key_name": "Phenol, 3-(2-aminoethyl)-, hydrochloride (1:1)",
    "cn_name": "3-(2-氨基-乙基)苯酚盐酸盐;3-(2-氨基-乙基)苯酚盐酸盐;",
    "alternate_name": "Phenol, 3-(2-aminoethyl)-, hydrochloride (1:1);Phenol, <em>m</em>-(2-aminoethyl)-, hydrochloride;Phenol, 3-(2-aminoethyl)-, hydrochloride;<em>m</em>-Tyramine hydrochloride;2-(3-Hydroxyphenyl)ethanamine hydrochloride;2-(3-Hydroxyphenyl)ethylamine hydrochloride;3-Hydroxyphenethylamine hydrochloride;3-(2-Aminoethyl)phenol hydrochloride",
    "duplicated_cas_no": "",
    "SMILES": "C(CN)C1=CC(O)=CC=C1.Cl",
    "meta_data": {
        "InChI": "InChI=1S/C8H11NO.ClH/c9-5-4-7-2-1-3-8(10)6-7;/h1-3,6,10H,4-5,9H2;1H",
        "InChIKey": null,
        "Canonical SMILES": "Cl.OC1=CC=CC(=C1)CCN",
        "Molecular Formula": "C<sub>8</sub>H<sub>11</sub>NO.ClH",
        "Molecular Mass": "",
        "Melting Point": "162 °C"
    }
}