{
    "cas_no": "629-80-1",
    "key_name": "Hexadecanal",
    "cn_name": null,
    "alternate_name": "Hexadecanal;Palmitaldehyde;<em>n</em>-Hexadecan-1-al;1-Hexadecanal;<em>n</em>-Hexadecanal;Hexadecanaldehyde;Hexadecylaldehyde;Cetyl aldehyde",
    "duplicated_cas_no": "",
    "SMILES": "C(CCCCCCCC)CCCCCCC=O",
    "meta_data": {
        "InChI": "InChI=1S/C16H32O/c1-2-3-4-5-6-7-8-9-10-11-12-13-14-15-16-17/h16H,2-15H2,1H3",
        "InChIKey": null,
        "Canonical SMILES": "O=CCCCCCCCCCCCCCCC",
        "Molecular Formula": "C<sub>16</sub>H<sub>32</sub>O",
        "Molecular Mass": "240.42",
        "Boiling Point": "120 °C @ Press: 2 Torr",
        "Melting Point": "35 °C"
    }
}