{
    "cas_no": "31558-40-4",
    "key_name": "4-Bromo-3,5-dimethoxybenzaldehyde",
    "cn_name": "4-溴-3,5-二甲氧基苯甲醛;",
    "alternate_name": "Benzaldehyde, 4-bromo-3,5-dimethoxy-;4-Bromo-3,5-dimethoxybenzaldehyde;3,5-Dimethoxy-4-bromobenzaldehyde",
    "duplicated_cas_no": "",
    "SMILES": "O(C)C1=C(Br)C(OC)=CC(C=O)=C1",
    "meta_data": {
        "InChI": "InChI=1S/C9H9BrO3/c1-12-7-3-6(5-11)4-8(13-2)9(7)10/h3-5H,1-2H3",
        "InChIKey": null,
        "Canonical SMILES": "O=CC1=CC(OC)=C(Br)C(OC)=C1",
        "Molecular Formula": "C<sub>9</sub>H<sub>9</sub>BrO<sub>3</sub>",
        "Molecular Mass": "245.07",
        "Melting Point": "110-111 °C"
    }
}