{
    "cas_no": "1200-13-1",
    "key_name": "1-[(4-Methylphenyl)thio]-2-propanone",
    "cn_name": "对(甲苯基硫)丙酮;(4-甲基苯基硫)丙酮;",
    "alternate_name": "2-Propanone, 1-[(4-methylphenyl)thio]-;2-Propanone, 1-(<em>p</em>-tolylthio)-;2-Propanone, (<em>p</em>-tolylthio)-;1-[(4-Methylphenyl)thio]-2-propanone;(<em>p</em>-Tolylthio)acetone;(4-Methylphenylthio)acetone;2-Oxopropyl 4-tolyl sulfide;4-Methylphenylthiomethyl methyl ketone;1-(4-Methylphenylthio)-2-propanone;1-(4-Methylphenyl)sulfanylpropan-2-one;1-[(4-Methylphenyl)thio]acetone;1-[(4-Methylphenyl)sulfanyl]propan-2-one",
    "duplicated_cas_no": "",
    "SMILES": "S(CC(C)=O)C1=CC=C(C)C=C1",
    "meta_data": {
        "InChI": "InChI=1S/C10H12OS/c1-8-3-5-10(6-4-8)12-7-9(2)11/h3-6H,7H2,1-2H3",
        "InChIKey": null,
        "Canonical SMILES": "O=C(C)CSC1=CC=C(C=C1)C",
        "Molecular Formula": "C<sub>10</sub>H<sub>12</sub>OS",
        "Molecular Mass": "180.27",
        "Boiling Point": "133-135 °C @ Press: 7-9 Torr",
        "Density": "1.088 g/cm³ @ Temp: 19 °C"
    }
}