{
    "cas_no": "1801-42-9",
    "key_name": "2,3-Diphenyl-1<em>H</em>-inden-1-one",
    "cn_name": "2,3-二苯基-1-二氢茚酮;2.3-二苯基-1-二氢茚酮;2,3-联苯-1-二氢茚酮;2,3-二苯基-1-茚酮;",
    "alternate_name": "1<em>H</em>-Inden-1-one, 2,3-diphenyl-;Indone, 2,3-diphenyl-;2,3-Diphenyl-1<em>H</em>-inden-1-one;2,3-Diphenyl-1-indenone;2,3-Diphenyl-1-indanone;2,3-Diphenylindone;NSC 401880;NSC 60783",
    "duplicated_cas_no": "",
    "SMILES": "O=C1C(=C(C=2C1=CC=CC2)C3=CC=CC=C3)C4=CC=CC=C4",
    "meta_data": {
        "InChI": "InChI=1S/C21H14O/c22-21-18-14-8-7-13-17(18)19(15-9-3-1-4-10-15)20(21)16-11-5-2-6-12-16/h1-14H",
        "InChIKey": null,
        "Canonical SMILES": "O=C1C=2C=CC=CC2C(C=3C=CC=CC3)=C1C=4C=CC=CC4",
        "Molecular Formula": "C<sub>21</sub>H<sub>14</sub>O",
        "Molecular Mass": "282.34",
        "Melting Point": "151-153 °C"
    }
}