{
    "cas_no": "13323-48-3",
    "key_name": "2-Butenoic acid, 2-methyl-, (1a<em>R</em>,3<em>R</em>,3a<em>R</em>,6a<em>R</em>,7<em>E</em>,9<em>S</em>,10a<em>R</em>)-1a,2,3,3a,4,5,6a,9,10,10a-decahydro-9-hydroxy-1a,8-dimethyl-4-methylene-5-oxooxireno[5,6]cyclodeca[1,2-<em>b</em>]furan-3-yl ester, (2<em>E</em>)-",
    "cn_name": null,
    "alternate_name": "2-Butenoic acid, 2-methyl-, (1a<em>R</em>,3<em>R</em>,3a<em>R</em>,6a<em>R</em>,7<em>E</em>,9<em>S</em>,10a<em>R</em>)-1a,2,3,3a,4,5,6a,9,10,10a-decahydro-9-hydroxy-1a,8-dimethyl-4-methylene-5-oxooxireno[5,6]cyclodeca[1,2-<em>b</em>]furan-3-yl ester, (2<em>E</em>)-;Germacra-4,11(13)-dien-12-oic acid, 1β,10-epoxy-3β,6α,8β-trihydroxy-, 12,6-lactone, 8-(2-methylcrotonate), (<em>E</em>,<em>E</em>)-;Heliangin;2-Butenoic acid, 2-methyl-, 1a,2,3,5a,7,8,8a,9,10,10a-decahydro-3-hydroxy-4,10a-dimethyl-8-methylene-7-oxooxireno[5,6]cyclodeca[1,2-<em>b</em>]furan-9-yl ester, [1a<em>R</em>-[1a<em>R</em>*,3<em>S</em>*,4<em>E</em>,5a<em>R</em>*,8a<em>R</em>*,9<em>R</em>*(<em>E</em>),10a<em>R</em>*]]-;2-Butenoic acid, 2-methyl-, (1a<em>R</em>,3<em>S</em>,4<em>E</em>,5a<em>R</em>,8a<em>R</em>,9<em>R</em>,10a<em>R</em>)-1a,2,3,5a,7,8,8a,9,10,10a-decahydro-3-hydroxy-4,10a-dimethyl-8-methylene-7-oxooxireno[5,6]cyclodeca[1,2-<em>b</em>]furan-9-yl ester, (2<em>E</em>)-;Oxireno[5,6]cyclodeca[1,2-<em>b</em>]furan, 2-butenoic acid deriv.;Heliangine;(<em>E</em>,<em>E</em>)-Leptocarpin",
    "duplicated_cas_no": "7727-78-8;10098-43-8",
    "SMILES": "",
    "meta_data": {
        "InChI": "",
        "InChIKey": null,
        "Canonical SMILES": "",
        "Molecular Formula": "C<sub>20</sub>H<sub>26</sub>O<sub>6</sub>",
        "Molecular Mass": "362.42",
        "Melting Point": "213-215 °C"
    }
}