{
    "cas_no": "27115-50-0",
    "key_name": "<em>p</em>-Methylhippuric acid",
    "cn_name": null,
    "alternate_name": "Glycine, <em>N</em>-(4-methylbenzoyl)-;Hippuric acid, <em>p</em>-methyl-;<em>N</em>-(4-Methylbenzoyl)glycine;<em>p</em>-Methylhippuric acid;<em>p</em>-Toluric acid;4-Methylhippuric acid;<em>N</em>-(<em>p</em>-Methylbenzoyl)glycine;NSC 126814;[[(4-Methylphenyl)carbonyl]amino]acetic acid;(4-Methylbenzoylamino)acetic acid;2-[(4-Methylbenzoyl)amino]acetic acid;2-[(4-Methylphenyl)formamido]acetic acid",
    "duplicated_cas_no": "",
    "SMILES": "C(NCC(O)=O)(=O)C1=CC=C(C)C=C1",
    "meta_data": {
        "InChI": "InChI=1S/C10H11NO3/c1-7-2-4-8(5-3-7)10(14)11-6-9(12)13/h2-5H,6H2,1H3,(H,11,14)(H,12,13)",
        "InChIKey": null,
        "Canonical SMILES": "O=C(O)CNC(=O)C1=CC=C(C=C1)C",
        "Molecular Formula": "C<sub>10</sub>H<sub>11</sub>NO<sub>3</sub>",
        "Molecular Mass": "193.20",
        "Melting Point": "161-162 °C"
    }
}