{
    "cas_no": "2280-85-5",
    "key_name": "6-Methyl-<span class=\"text-smallcaps\">DL</span>-tryptophan",
    "cn_name": "6-甲基-DL-色氨酸;6-甲基-DL-色氨酸;6-甲基-DL-胰化蛋白氨基酸;",
    "alternate_name": "Tryptophan, 6-methyl-;Tryptophan, 6-methyl-, <span class=\"text-smallcaps\">DL</span>-;<span class=\"text-smallcaps\">DL</span>-Tryptophan, 6-methyl-;6-Methyltryptophan;6-Methyl-<span class=\"text-smallcaps\">DL</span>-tryptophan;<span class=\"text-smallcaps\">DL</span>-6-Methyltryptophan;<span class=\"text-smallcaps\">DL</span>-6-Methyltryptophane;(±)-6-Methyltryptophan;NSC 1461;2-Amino-3-(6-methyl-1<em>H</em>-indol-3-yl)propanoic acid",
    "duplicated_cas_no": "1991-93-1",
    "SMILES": "C(C(C(O)=O)N)C=1C=2C(NC1)=CC(C)=CC2",
    "meta_data": {
        "InChI": "InChI=1S/C12H14N2O2/c1-7-2-3-9-8(5-10(13)12(15)16)6-14-11(9)4-7/h2-4,6,10,14H,5,13H2,1H3,(H,15,16)",
        "InChIKey": null,
        "Canonical SMILES": "O=C(O)C(N)CC1=CNC=2C=C(C=CC21)C",
        "Molecular Formula": "C<sub>12</sub>H<sub>14</sub>N<sub>2</sub>O<sub>2</sub>",
        "Molecular Mass": "218.25",
        "Melting Point": "258-260 °C"
    }
}