{
    "cas_no": "366-18-7",
    "key_name": "2,2′-Bipyridine",
    "cn_name": "2,2\"-联吡啶;",
    "alternate_name": "2,2′-Bipyridine;α,α′-Bipyridyl;2,2′-Bipyridyl;α,α′-Dipyridyl;2,2′-Dipyridyl;α,α′-Bipyridine;2,2′-Dipyridine;α,α′-Dipyridine;2-(2-Pyridyl)pyridine;Dri-Rx 19LC-E;NSC 1550;NSC 615009;DryMax 2;2-Pyridin-2-ylpyridine;2-(Pyridin-2-yl)pyridine;XL-Dri;MeSH ID: D015082",
    "duplicated_cas_no": "",
    "SMILES": "C1(=CC=CC=N1)C2=CC=CC=N2",
    "meta_data": {
        "InChI": "InChI=1S/C10H8N2/c1-3-7-11-9(5-1)10-6-2-4-8-12-10/h1-8H",
        "InChIKey": null,
        "Canonical SMILES": "N=1C=CC=CC1C=2N=CC=CC2",
        "Molecular Formula": "C<sub>10</sub>H<sub>8</sub>N<sub>2</sub>",
        "Molecular Mass": "156.18",
        "Boiling Point": "273.5 °C",
        "Melting Point": "72 °C"
    }
}