{
    "cas_no": "615-41-8",
    "key_name": "1-Chloro-2-iodobenzene",
    "cn_name": "1-氯-2-碘苯;邻氯碘苯;",
    "alternate_name": "Benzene, 1-chloro-2-iodo-;1-Chloro-2-iodobenzene;<em>o</em>-Chloroiodobenzene;2-Iodochlorobenzene;2-Chloroiodobenzene;<em>o</em>-Iodochlorobenzene;2-Chlorophenyl iodide;<em>o</em>-Chlorophenyl iodide;2-Chloro-1-iodobenzene;NSC 32860;1-Iodo-2-chlorobenzene;2-Iodophenyl chloride",
    "duplicated_cas_no": "",
    "SMILES": "ClC1=C(I)C=CC=C1",
    "meta_data": {
        "InChI": "InChI=1S/C6H4ClI/c7-5-3-1-2-4-6(5)8/h1-4H",
        "InChIKey": null,
        "Canonical SMILES": "ClC=1C=CC=CC1I",
        "Molecular Formula": "C<sub>6</sub>H<sub>4</sub>ClI",
        "Molecular Mass": "238.45",
        "Boiling Point": "234.5 °C",
        "Melting Point": "0.7 °C"
    }
}