{
    "cas_no": "922-68-9",
    "key_name": "Methyl glyoxylate",
    "cn_name": "乙醛酸甲酯;",
    "alternate_name": "Acetic acid, 2-oxo-, methyl ester;Glyoxylic acid, methyl ester;Acetic acid, oxo-, methyl ester;Oxoacetic acid methyl ester;Methyl oxoacetate;Methyl glyoxylate;Methyl 2-oxoacetate",
    "duplicated_cas_no": "",
    "SMILES": "C(C=O)(OC)=O",
    "meta_data": {
        "InChI": "InChI=1S/C3H4O3/c1-6-3(5)2-4/h2H,1H3",
        "InChIKey": null,
        "Canonical SMILES": "O=CC(=O)OC",
        "Molecular Formula": "C<sub>3</sub>H<sub>4</sub>O<sub>3</sub>",
        "Molecular Mass": "88.06",
        "Boiling Point": "45-50 °C @ Press: 29 Torr",
        "Melting Point": "49-51 °C"
    }
}