{
    "cas_no": "76855-69-1",
    "key_name": "Azetidon",
    "cn_name": null,
    "alternate_name": "2-Azetidinone, 4-(acetyloxy)-3-[(1<em>R</em>)-1-[[(1,1-dimethylethyl)dimethylsilyl]oxy]ethyl]-, (3<em>R</em>,4<em>R</em>)-;2-Azetidinone, 4-(acetyloxy)-3-[1-[[(1,1-dimethylethyl)dimethylsilyl]oxy]ethyl]-, [3<em>R</em>-[3α(<em>R</em>*),4β]]-;(3<em>R</em>,4<em>R</em>)-4-(Acetyloxy)-3-[(1<em>R</em>)-1-[[(1,1-dimethylethyl)dimethylsilyl]oxy]ethyl]-2-azetidinone;(1′<em>R</em>,3<em>R</em>,4<em>R</em>)-4-acetoxy-3-(1′-<em>tert</em>-butyldimethylsilyloxyethyl)-2-azetidinone;(3<em>R</em>,4<em>R</em>)-4-Acetoxy-3-[(<em>R</em>)-1-(<em>tert</em>-butyldimethylsilyloxy)ethyl]azetidinone;Azetidon;(3<em>R</em>,4<em>R</em>)-4-Acetoxy-3-[(<em>R</em>)-1-(<em>tert</em>-butyldimethylsiloxy)ethyl]azetidin-2-one;(3<em>R</em>,4<em>R</em>)-4-Acetoxy-3-[(<em>R</em>)-1-(<em>tert</em>-butyldimethylsilyloxy)ethyl]-2-azetidinone;(2<em>R</em>,3<em>R</em>)-3-((<em>R</em>)-1-(<em>tert</em>-Butyldimethylsiloxy)ethyl)-4-oxoazetidin-2-yl acetate",
    "duplicated_cas_no": "134354-63-5;91616-50-1",
    "SMILES": "O(C(C)=O)[C@@H]1[C@@]([C@H](O[Si](C(C)(C)C)(C)C)C)(C(=O)N1)[H]",
    "meta_data": {
        "InChI": "InChI=1S/C13H25NO4Si/c1-8(18-19(6,7)13(3,4)5)10-11(16)14-12(10)17-9(2)15/h8,10,12H,1-7H3,(H,14,16)/t8-,10+,12-/m1/s1",
        "InChIKey": null,
        "Canonical SMILES": "O=C(OC1NC(=O)C1C(O[Si](C)(C)C(C)(C)C)C)C",
        "Molecular Formula": "C<sub>13</sub>H<sub>25</sub>NO<sub>4</sub>Si",
        "Molecular Mass": "287.43",
        "Melting Point": "107.5-108.3 °C"
    }
}