{
    "cas_no": "79815-20-6",
    "key_name": "(<em>S</em>)-Indoline-2-carboxylic acid",
    "cn_name": "(S)-吲哚啉-2-羧酸;",
    "alternate_name": "1<em>H</em>-Indole-2-carboxylic acid, 2,3-dihydro-, (2<em>S</em>)-;1<em>H</em>-Indole-2-carboxylic acid, 2,3-dihydro-, (<em>S</em>)-;(2<em>S</em>)-2,3-Dihydro-1<em>H</em>-indole-2-carboxylic acid;(<em>S</em>)-2-Carboxyindoline;(-)-2,3-Dihydroindole-2-carboxylic acid;(<em>S</em>)-Indoline-2-carboxylic acid;(-)-(<em>S</em>)-2-Indolinecarboxylic acid;<span class=\"text-smallcaps\">L</span>-Indoline-2-carboxylic acid;(2S)-2,3-Dihydroindole-2-carboxylic acid;(2<em>S</em>)-2,3-Dihydroindole-2-carboxylic acid;(<em>S</em>)-2,3-Dihydro-1<em>H</em>-indole-2-carboxylic acid;(<em>S</em>)-(-)-2-Indolinecarboxylic acid;(2<em>S</em>)-2-Indolinecarboxylic acid;(2S)-2,3-Dihydro-1<em>H</em>-indole-2-carboxylic acid",
    "duplicated_cas_no": "",
    "SMILES": "C(O)(=O)[C@@H]1CC=2C(N1)=CC=CC2",
    "meta_data": {
        "InChI": "InChI=1S/C9H9NO2/c11-9(12)8-5-6-3-1-2-4-7(6)10-8/h1-4,8,10H,5H2,(H,11,12)/t8-/m0/s1",
        "InChIKey": null,
        "Canonical SMILES": "O=C(O)C1NC=2C=CC=CC2C1",
        "Molecular Formula": "C<sub>9</sub>H<sub>9</sub>NO<sub>2</sub>",
        "Molecular Mass": "163.17",
        "Melting Point": "160-163 °C (decomp)"
    }
}