{
    "cas_no": "57817-89-7",
    "key_name": "Stevioside",
    "cn_name": "甜菊糖;",
    "alternate_name": "Kaur-16-en-18-oic acid, 13-[(2-<em>O</em>-β-<span class=\"text-smallcaps\">D</smallcap>-glucopyranosyl-β-<smallcap>D</smallcap>-glucopyranosyl)oxy]-, β-<smallcap>D</span>-glucopyranosyl ester, (4α)-;Stevioside;1<em>H</em>-2,10a-Ethanophenanthrene, kaur-16-en-18-oic acid deriv.;Steviosin;α-G-Sweet;Stevian 50;E 960;1,2-Stevioside",
    "duplicated_cas_no": "77-05-4;82080-10-2;138395-02-5;474452-32-9;2734910-61-1",
    "SMILES": "C[C@]12[C@]3([C@]4(C[C@](O[C@H]5[C@H](O[C@@H]6O[C@H](CO)[C@@H](O)[C@H](O)[C@H]6O)[C@@H](O)[C@H](O)[C@@H](CO)O5)(C(=C)C4)CC3)CC[C@@]1([C@@](C(O[C@@H]7O[C@H](CO)[C@@H](O)[C@H](O)[C@H]7O)=O)(C)CCC2)[H])[H]",
    "meta_data": {
        "InChI": "InChI=1S/C38H60O18/c1-16-11-37-9-5-20-35(2,7-4-8-36(20,3)34(50)55-32-29(49)26(46)23(43)18(13-40)52-32)21(37)6-10-38(16,15-37)56-33-30(27(47)24(44)19(14-41)53-33)54-31-28(48)25(45)22(42)17(12-39)51-31/h17-33,39-49H,1,4-15H2,2-3H3/t17-,18-,19-,20+,21+,22-,23-,24-,25+,26+,27+,28-,29-,30-,31+,32+,33+,35-,36-,37-,38+/m1/s1",
        "InChIKey": null,
        "Canonical SMILES": "O=C(OC1OC(CO)C(O)C(O)C1O)C2(C)CCCC3(C)C2CCC45CC(=C)C(OC6OC(CO)C(O)C(O)C6OC7OC(CO)C(O)C(O)C7O)(CCC43)C5",
        "Molecular Formula": "C<sub>38</sub>H<sub>60</sub>O<sub>18</sub>",
        "Molecular Mass": "804.87",
        "Melting Point": "198 °C"
    }
}