{
    "cas_no": "115-09-3",
    "key_name": "Methylmercury chloride",
    "cn_name": "甲基氯化汞;氯化甲基汞;甲基氯汞;",
    "alternate_name": "Mercury, chloromethyl-;Methylmercury chloride;Methylmercuric chloride;Caspan;Monomethyl mercury chloride;Chloromethylmercury;Mercury methyl chloride;Methylmercury monochloride;NSC 19998",
    "duplicated_cas_no": "",
    "SMILES": "[Hg](C)Cl",
    "meta_data": {
        "InChI": "InChI=1S/CH3.ClH.Hg/h1H3;1H;/q;;+1/p-1",
        "InChIKey": null,
        "Canonical SMILES": "Cl[Hg]C",
        "Molecular Formula": "CH<sub>3</sub>ClHg",
        "Molecular Mass": "",
        "Melting Point": "167 °C"
    }
}