{
    "cas_no": "815-24-7",
    "key_name": "Di-<em>tert</em>-butyl ketone",
    "cn_name": "2,2,4,4-四甲基-3-戊酮;",
    "alternate_name": "3-Pentanone, 2,2,4,4-tetramethyl-;2,2,4,4-Tetramethyl-3-pentanone;Pivalone;Di-<em>tert</em>-butyl ketone;Hexamethylacetone;2,2,4,4-Tetramethylpentanone;NSC 848",
    "duplicated_cas_no": "",
    "SMILES": "C(C(C)(C)C)(C(C)(C)C)=O",
    "meta_data": {
        "InChI": "InChI=1S/C9H18O/c1-8(2,3)7(10)9(4,5)6/h1-6H3",
        "InChIKey": null,
        "Canonical SMILES": "O=C(C(C)(C)C)C(C)(C)C",
        "Molecular Formula": "C<sub>9</sub>H<sub>18</sub>O",
        "Molecular Mass": "142.24",
        "Boiling Point": "152 °C",
        "Melting Point": "-25.2 °C",
        "Density": "0.8776 g/cm³ @ Temp: 20 °C"
    }
}