{
    "cas_no": "50-58-8",
    "key_name": "Metra",
    "cn_name": null,
    "alternate_name": "Morpholine, 3,4-dimethyl-2-phenyl-, (2<em>S</em>,3<em>S</em>)-, (2<em>R</em>,3<em>R</em>)-2,3-dihydroxybutanedioate (1:1);Morpholine, 3,4-dimethyl-2-phenyl-, (2<em>S</em>-<em>trans</em>)-, [<em>R</em>-(<em>R</em>*,<em>R</em>*)]-2,3-dihydroxybutanedioate (1:1);Morpholine, 3,4-dimethyl-2-phenyl-, (+)-, tartrate (1:1);Phendimetrazine tartrate;Phendimetrazine bitartrate;Plegine;Statobex;Metra;Prelu 2",
    "duplicated_cas_no": "2233-26-3;21102-82-9",
    "SMILES": "C[C@H]1[C@@H](OCCN1C)C2=CC=CC=C2.[C@@H]([C@H](C(O)=O)O)(C(O)=O)O",
    "meta_data": {
        "InChI": "InChI=1S/C12H17NO.C4H6O6/c1-10-12(14-9-8-13(10)2)11-6-4-3-5-7-11;5-1(3(7)8)2(6)4(9)10/h3-7,10,12H,8-9H2,1-2H3;1-2,5-6H,(H,7,8)(H,9,10)/t10-,12+;1-,2-/m01/s1",
        "InChIKey": null,
        "Canonical SMILES": "O=C(O)C(O)C(O)C(=O)O.O1CCN(C)C(C)C1C=2C=CC=CC2",
        "Molecular Formula": "C<sub>12</sub>H<sub>17</sub>NO.C<sub>4</sub>H<sub>6</sub>O<sub>6</sub>",
        "Molecular Mass": "",
        "Melting Point": "182 °C"
    }
}