{
    "cas_no": "628-09-1",
    "key_name": "3-Chloropropyl acetate",
    "cn_name": "3-氯丙基乙酸酯;乙酸3-氯丙酯;醋酸3-氯丙酯;",
    "alternate_name": "1-Propanol, 3-chloro-, 1-acetate;1-Propanol, 3-chloro-, acetate;3-Chloropropyl acetate;γ-Chloropropyl acetate;3-Acetoxypropyl chloride;3-Chloro-1-propyl acetate;Acetic acid 3-chloropropyl ester",
    "duplicated_cas_no": "",
    "SMILES": "O(CCCCl)C(C)=O",
    "meta_data": {
        "InChI": "InChI=1S/C5H9ClO2/c1-5(7)8-4-2-3-6/h2-4H2,1H3",
        "InChIKey": null,
        "Canonical SMILES": "O=C(OCCCCl)C",
        "Molecular Formula": "C<sub>5</sub>H<sub>9</sub>ClO<sub>2</sub>",
        "Molecular Mass": "136.58",
        "Boiling Point": "164 °C",
        "Density": "1.1150 g/cm³ @ Temp: 20 °C"
    }
}