{
    "cas_no": "93-58-3",
    "key_name": "Methyl benzoate",
    "cn_name": "苯甲酸甲酯;",
    "alternate_name": "Benzoic acid, methyl ester;Methyl benzenecarboxylate;Methyl benzoate;Niobe oil;Clorius;NSC 9394",
    "duplicated_cas_no": "1082718-77-1",
    "SMILES": "C(OC)(=O)C1=CC=CC=C1",
    "meta_data": {
        "InChI": "InChI=1S/C8H8O2/c1-10-8(9)7-5-3-2-4-6-7/h2-6H,1H3",
        "InChIKey": null,
        "Canonical SMILES": "O=C(OC)C=1C=CC=CC1",
        "Molecular Formula": "C<sub>8</sub>H<sub>8</sub>O<sub>2</sub>",
        "Molecular Mass": "136.15",
        "Boiling Point": "198-200 °C",
        "Melting Point": "-12.3 °C",
        "Density": "1.094 g/cm³ @ Temp: 15 °C"
    }
}