{
    "cas_no": "2213-63-0",
    "key_name": "2,3-Dichloroquinoxaline",
    "cn_name": "2,3-二氯喹喔啉;",
    "alternate_name": "Quinoxaline, 2,3-dichloro-;2,3-Dichloroquinoxaline;NSC 33437",
    "duplicated_cas_no": "",
    "SMILES": "ClC1=NC2=C(N=C1Cl)C=CC=C2",
    "meta_data": {
        "InChI": "InChI=1S/C8H4Cl2N2/c9-7-8(10)12-6-4-2-1-3-5(6)11-7/h1-4H",
        "InChIKey": null,
        "Canonical SMILES": "ClC=1N=C2C=CC=CC2=NC1Cl",
        "Molecular Formula": "C<sub>8</sub>H<sub>4</sub>Cl<sub>2</sub>N<sub>2</sub>",
        "Molecular Mass": "199.04",
        "Melting Point": "149-150 °C"
    }
}