{
    "cas_no": "10242-11-2",
    "key_name": "5-Bromo-2-benzofurancarboxylic acid",
    "cn_name": null,
    "alternate_name": "2-Benzofurancarboxylic acid, 5-bromo-;5-Bromo-2-benzofurancarboxylic acid;5-Bromocoumarilic acid;5-Bromobenzofuran-2-carboxylic acid;5-Bromobenzo[<em>b</em>]furan-2-carboxylic acid;5-Bromo-2-benzo[<em>b</em>]furancarboxylic acid;5-Bromo-1-benzofuran-2-carboxylic acid",
    "duplicated_cas_no": "",
    "SMILES": "C(O)(=O)C=1OC=2C(C1)=CC(Br)=CC2",
    "meta_data": {
        "InChI": "InChI=1S/C9H5BrO3/c10-6-1-2-7-5(3-6)4-8(13-7)9(11)12/h1-4H,(H,11,12)",
        "InChIKey": null,
        "Canonical SMILES": "O=C(O)C=1OC=2C=CC(Br)=CC2C1",
        "Molecular Formula": "C<sub>9</sub>H<sub>5</sub>BrO<sub>3</sub>",
        "Molecular Mass": "241.04",
        "Melting Point": "255.5-256.8 °C"
    }
}