{
    "cas_no": "6086-42-6",
    "key_name": "4,4-Dimethyl-2-imidazolidinethione",
    "cn_name": "4,4-二甲基-2-咪唑烷硫酮;",
    "alternate_name": "2-Imidazolidinethione, 4,4-dimethyl-;4,4-Dimethyl-2-imidazolidinethione;4,4-Dimethylimidazolidine-2-thione",
    "duplicated_cas_no": "6596-85-6",
    "SMILES": "CC1(C)NC(=S)NC1",
    "meta_data": {
        "InChI": "InChI=1S/C5H10N2S/c1-5(2)3-6-4(8)7-5/h3H2,1-2H3,(H2,6,7,8)",
        "InChIKey": null,
        "Canonical SMILES": "S=C1NCC(N1)(C)C",
        "Molecular Formula": "C<sub>5</sub>H<sub>10</sub>N<sub>2</sub>S",
        "Molecular Mass": "130.21",
        "Melting Point": "118.5-119.0 °C"
    }
}