{
    "cas_no": "99533-80-9",
    "key_name": "(+)-K 252a",
    "cn_name": null,
    "alternate_name": "9,12-Epoxy-1<em>H</em>-diindolo[1,2,3-<em>fg</em>:3′,2′,1′-<em>kl</em>]pyrrolo[3,4-<em>i</em>][1,6]benzodiazocine-10-carboxylic acid, 2,3,9,10,11,12-hexahydro-10-hydroxy-9-methyl-1-oxo-, methyl ester, (9<em>S</em>,10<em>R</em>,12<em>R</em>)-;9,12-Epoxy-1<em>H</em>-diindolo[1,2,3-<em>fg</em>:3′,2′,1′-<em>kl</em>]pyrrolo[3,4-<em>i</em>][1,6]benzodiazocine-10-carboxylic acid, 2,3,9,10,11,12-hexahydro-10-hydroxy-9-methyl-1-oxo-, methyl ester, [9<em>S</em>-(9α,10β,12α)]-;Antibiotic SF 2370;Antibiotic K 252a, (+)-;K 252a;SF 2370;(+)-Antibiotic K 252a;(+)-K 252a;(+)-Antibiotic SF 2370;(+)-SF 2370;Antibiotic K 252a;Antibiotic SF 2370, (+)-;Protein kinase inhibitor K252a;K 252;K 252a Nocardiopsis sp.",
    "duplicated_cas_no": "105450-17-7;108645-76-7;151004-74-9;97161-97-2",
    "SMILES": "C[C@]12N3C=4C5=C(C6=C(C4C=7C3=CC=CC7)CNC6=O)C=8C(N5[C@](O1)(C[C@@]2(C(OC)=O)O)[H])=CC=CC8",
    "meta_data": {
        "InChI": "InChI=1S/C27H21N3O5/c1-26-27(33,25(32)34-2)11-18(35-26)29-16-9-5-3-7-13(16)20-21-15(12-28-24(21)31)19-14-8-4-6-10-17(14)30(26)23(19)22(20)29/h3-10,18,33H,11-12H2,1-2H3,(H,28,31)/t18-,26+,27+/m1/s1",
        "InChIKey": null,
        "Canonical SMILES": "O=C(OC)C1(O)CC2OC1(N3C=4C=CC=CC4C=5C3=C6C(C7=CC=CC=C7N62)=C8C(=O)NCC85)C",
        "Molecular Formula": "C<sub>27</sub>H<sub>21</sub>N<sub>3</sub>O<sub>5</sub>",
        "Molecular Mass": "467.47",
        "Melting Point": "262-273 °C (decomp)"
    }
}