{
    "cas_no": "52809-07-1",
    "key_name": "Quisqualic acid",
    "cn_name": "使君子氨酸;(+)使君子氨酸;",
    "alternate_name": "1,2,4-Oxadiazolidine-2-propanoic acid, α-amino-3,5-dioxo-, (α<em>S</em>)-;Quisqualic acid;1,2,4-Oxadiazolidine-2-propanoic acid, α-amino-3,5-dioxo-, (<em>S</em>)-;(α<em>S</em>)-α-Amino-3,5-dioxo-1,2,4-oxadiazolidine-2-propanoic acid;<span class=\"text-smallcaps\">L</span>-Quisqualic acid;<em>S</em>-Quisqualic acid;Quisqualinic acid;(2S)-2-Amino-3-(3-hydroxy-5-oxo-2,5-dihydro-1,2,4-oxadiazol-2-yl)propanoic acid;(2S)-2-Amino-3-(3,5-dioxo-1,2,4-oxadiazolidin-2-yl)propanoic acid;(2S)-2-Amino-3-(5-hydroxy-3-oxo-2,3-dihydro-1,2,4-oxadiazol-2-yl)propanoic acid;MeSH ID: D016318",
    "duplicated_cas_no": "51821-59-1;52284-24-9",
    "SMILES": "C([C@@H](C(O)=O)N)N1C(=O)NC(=O)O1",
    "meta_data": {
        "InChI": "InChI=1S/C5H7N3O5/c6-2(3(9)10)1-8-4(11)7-5(12)13-8/h2H,1,6H2,(H,9,10)(H,7,11,12)/t2-/m0/s1",
        "InChIKey": null,
        "Canonical SMILES": "O=C1ON(C(=O)N1)CC(N)C(=O)O",
        "Molecular Formula": "C<sub>5</sub>H<sub>7</sub>N<sub>3</sub>O<sub>5</sub>",
        "Molecular Mass": "189.13",
        "Melting Point": "199-202 °C"
    }
}