{
    "cas_no": "132765-36-7",
    "key_name": "3,3′-[[2-[4,5-Bis[(2-cyanoethyl)thio]-1,3-dithiol-2-ylidene]-1,3-dithiole-4,5-diyl]bis(thio)]bis[propanenitrile]",
    "cn_name": null,
    "alternate_name": "Propanenitrile, 3,3′-[[2-[4,5-bis[(2-cyanoethyl)thio]-1,3-dithiol-2-ylidene]-1,3-dithiole-4,5-diyl]bis(thio)]bis-;1,3-Dithiole, propanenitrile deriv.;3,3′-[[2-[4,5-Bis[(2-cyanoethyl)thio]-1,3-dithiol-2-ylidene]-1,3-dithiole-4,5-diyl]bis(thio)]bis[propanenitrile];2,3,6,7-Tetra(cyanoethylsulfanyl)tetrathiafulvalene;TCE-TTF",
    "duplicated_cas_no": "179010-15-2;1638216-41-7",
    "SMILES": "S(CCC#N)C=1SC(SC1SCCC#N)=C2SC(SCCC#N)=C(SCCC#N)S2",
    "meta_data": {
        "InChI": "InChI=1S/C18H16N4S8/c19-5-1-9-23-13-14(24-10-2-6-20)28-17(27-13)18-29-15(25-11-3-7-21)16(30-18)26-12-4-8-22/h1-4,9-12H2",
        "InChIKey": null,
        "Canonical SMILES": "N#CCCSC=1SC(SC1SCCC#N)=C2SC(SCCC#N)=C(S2)SCCC#N",
        "Molecular Formula": "C<sub>18</sub>H<sub>16</sub>N<sub>4</sub>S<sub>8</sub>",
        "Molecular Mass": "544.87",
        "Melting Point": "186 °C"
    }
}