{
    "cas_no": "2745-54-2",
    "key_name": "3,5-Dimethylbenzyl chloride",
    "cn_name": "3,5-二甲基苄基氯;",
    "alternate_name": "Benzene, 1-(chloromethyl)-3,5-dimethyl-;Mesitylene, α-chloro-;1-(Chloromethyl)-3,5-dimethylbenzene;α-Chloromesitylene;3,5-Dimethylbenzyl chloride;1,3-Dimethyl-5-chloromethylbenzene;3,5-Dimethyl(chloromethyl)benzene",
    "duplicated_cas_no": "",
    "SMILES": "C(Cl)C1=CC(C)=CC(C)=C1",
    "meta_data": {
        "InChI": "InChI=1S/C9H11Cl/c1-7-3-8(2)5-9(4-7)6-10/h3-5H,6H2,1-2H3",
        "InChIKey": null,
        "Canonical SMILES": "ClCC=1C=C(C=C(C1)C)C",
        "Molecular Formula": "C<sub>9</sub>H<sub>11</sub>Cl",
        "Molecular Mass": "154.64",
        "Boiling Point": "250 °C @ Press: 750 Torr"
    }
}