{
    "cas_no": "400-98-6",
    "key_name": "2-Nitro-4-(trifluoromethyl)aniline",
    "cn_name": "4-氨基-3-硝基三氟甲苯;",
    "alternate_name": "Benzenamine, 2-nitro-4-(trifluoromethyl)-;<em>p</em>-Toluidine, α,α,α-trifluoro-2-nitro-;2-Nitro-4-(trifluoromethyl)benzenamine;α,α,α-Trifluoro-2-nitro-<em>p</em>-toluidine;2-Nitro-4-(trifluoromethyl)aniline;4-Amino-3-nitrobenzotrifluoride;4-(Trifluoromethyl)-2-nitroaniline;1-Amino-2-nitro-4-trifluoromethylbenzene;TX 101;NSC 13396;NSC 9429;(2-Nitro-4-trifluoromethylphenyl)amine",
    "duplicated_cas_no": "",
    "SMILES": "N(=O)(=O)C1=CC(C(F)(F)F)=CC=C1N",
    "meta_data": {
        "InChI": "InChI=1S/C7H5F3N2O2/c8-7(9,10)4-1-2-5(11)6(3-4)12(13)14/h1-3H,11H2",
        "InChIKey": null,
        "Canonical SMILES": "O=N(=O)C1=CC(=CC=C1N)C(F)(F)F",
        "Molecular Formula": "C<sub>7</sub>H<sub>5</sub>F<sub>3</sub>N<sub>2</sub>O<sub>2</sub>",
        "Molecular Mass": "206.12",
        "Melting Point": "109-110 °C"
    }
}