{
    "cas_no": "16597-50-5",
    "key_name": "<em>N</em>-[(Phenylmethoxy)carbonyl]-<span class=\"text-smallcaps\">L</span>-threonine phenylmethyl ester",
    "cn_name": null,
    "alternate_name": "<span class=\"text-smallcaps\">L</span>-Threonine, <em>N</em>-[(phenylmethoxy)carbonyl]-, phenylmethyl ester;Threonine, <em>N</em>-carboxy-, dibenzyl ester, <span class=\"text-smallcaps\">L</span>-;Threonine, <em>N</em>-carboxy-, dibenzyl ester;<em>N</em>-[(Phenylmethoxy)carbonyl]-<span class=\"text-smallcaps\">L</span>-threonine phenylmethyl ester;<em>N</em>-(Benzyloxycarbonyl)threonine benzyl ester;<em>N</em>-(Benzyloxycarbonyl)-<span class=\"text-smallcaps\">L</span>-threonine benzyl ester;(2<em>S</em>,3<em>R</em>)-2-[(Benzyloxycarbonyl)amino]-3-hydroxybutanoic acid benzyl ester",
    "duplicated_cas_no": "851678-70-1;1190193-99-7",
    "SMILES": "[C@H](C(OCC1=CC=CC=C1)=O)(NC(OCC2=CC=CC=C2)=O)[C@@H](C)O",
    "meta_data": {
        "InChI": "InChI=1S/C19H21NO5/c1-14(21)17(18(22)24-12-15-8-4-2-5-9-15)20-19(23)25-13-16-10-6-3-7-11-16/h2-11,14,17,21H,12-13H2,1H3,(H,20,23)/t14-,17+/m1/s1",
        "InChIKey": null,
        "Canonical SMILES": "O=C(OCC=1C=CC=CC1)NC(C(=O)OCC=2C=CC=CC2)C(O)C",
        "Molecular Formula": "C<sub>19</sub>H<sub>21</sub>NO<sub>5</sub>",
        "Molecular Mass": "343.37",
        "Melting Point": "63-64 °C"
    }
}