{
    "cas_no": "349-59-7",
    "key_name": "1-Ethenyl-3,5-bis(trifluoromethyl)benzene",
    "cn_name": "3,5-二(三氟甲基)苯乙烯;",
    "alternate_name": "Benzene, 1-ethenyl-3,5-bis(trifluoromethyl)-;1-Ethenyl-3,5-bis(trifluoromethyl)benzene;3,5-Bis(trifluoromethyl)styrene;3,5-Bis(trifluoromethyl)-1-vinylbenzene;3,5-Bis(trifluoromethyl)-1-ethenylbenzene;1,3-Bis(trifluoromethyl)-5-vinylbenzene",
    "duplicated_cas_no": "",
    "SMILES": "C(F)(F)(F)C1=CC(C(F)(F)F)=CC(C=C)=C1",
    "meta_data": {
        "InChI": "InChI=1S/C10H6F6/c1-2-6-3-7(9(11,12)13)5-8(4-6)10(14,15)16/h2-5H,1H2",
        "InChIKey": null,
        "Canonical SMILES": "FC(F)(F)C1=CC(C=C)=CC(=C1)C(F)(F)F",
        "Molecular Formula": "C<sub>10</sub>H<sub>6</sub>F<sub>6</sub>",
        "Molecular Mass": "240.15",
        "Boiling Point": "60 °C @ Press: 20 Torr",
        "Melting Point": "7-8 °C",
        "Density": "1.3341 g/cm³ @ Temp: 23 °C"
    }
}