{
    "cas_no": "456-55-3",
    "key_name": "(Trifluoromethoxy)benzene",
    "cn_name": "三氟甲氧基苯;",
    "alternate_name": "Benzene, (trifluoromethoxy)-;Anisole, α,α,α-trifluoro-;(Trifluoromethoxy)benzene;Phenyl trifluoromethyl ether;Trifluoromethyl phenyl ether;α,α,α-Trifluoroanisole;1-(Trifluoromethoxy)benzene;1-Trifluoromethoxybenzene",
    "duplicated_cas_no": "",
    "SMILES": "O(C(F)(F)F)C1=CC=CC=C1",
    "meta_data": {
        "InChI": "InChI=1S/C7H5F3O/c8-7(9,10)11-6-4-2-1-3-5-6/h1-5H",
        "InChIKey": null,
        "Canonical SMILES": "FC(F)(F)OC=1C=CC=CC1",
        "Molecular Formula": "C<sub>7</sub>H<sub>5</sub>F<sub>3</sub>O",
        "Molecular Mass": "162.11",
        "Boiling Point": "102 °C",
        "Melting Point": "-50 °C",
        "Density": "1.2263 g/cm³ @ Temp: 20 °C"
    }
}