{
    "cas_no": "94-47-3",
    "key_name": "Phenylethyl benzoate",
    "cn_name": null,
    "alternate_name": "Benzoic acid, 2-phenylethyl ester;Benzoic acid, phenethyl ester;Phenethyl alcohol, benzoate;Benzylcarbinyl benzoate;Phenethyl benzoate;Phenylethyl benzoate;β-Phenylethyl benzoate;2-Phenylethyl benzoate;β-Phenethyl benzoate;NSC 24096;Finsolv SUN;X-Tend 226",
    "duplicated_cas_no": "",
    "SMILES": "C(OCCC1=CC=CC=C1)(=O)C2=CC=CC=C2",
    "meta_data": {
        "InChI": "InChI=1S/C15H14O2/c16-15(14-9-5-2-6-10-14)17-12-11-13-7-3-1-4-8-13/h1-10H,11-12H2",
        "InChIKey": null,
        "Canonical SMILES": "O=C(OCCC=1C=CC=CC1)C=2C=CC=CC2",
        "Molecular Formula": "C<sub>15</sub>H<sub>14</sub>O<sub>2</sub>",
        "Molecular Mass": "226.27",
        "Boiling Point": "111-115 °C @ Press: 15 Torr"
    }
}