{
    "cas_no": "75-25-2",
    "key_name": "Bromoform",
    "cn_name": "三溴甲烷;溴仿;",
    "alternate_name": "Methane, tribromo-;Tribromomethane;Bromoform;Methenyl tribromide;NSC 8019",
    "duplicated_cas_no": "",
    "SMILES": "C(Br)(Br)Br",
    "meta_data": {
        "InChI": "InChI=1S/CHBr3/c2-1(3)4/h1H",
        "InChIKey": null,
        "Canonical SMILES": "BrC(Br)Br",
        "Molecular Formula": "CHBr<sub>3</sub>",
        "Molecular Mass": "252.73",
        "Boiling Point": "149.1 °C",
        "Melting Point": "8.0 °C",
        "Density": "2.8899 g/cm³ @ Temp: 15 °C"
    }
}