{
    "cas_no": "61692-84-0",
    "key_name": "Isobutyl tiglate",
    "cn_name": null,
    "alternate_name": "2-Butenoic acid, 2-methyl-, 2-methylpropyl ester, (2<em>E</em>)-;2-Butenoic acid, 2-methyl-, 2-methylpropyl ester, (<em>E</em>)-;Tiglic acid, isobutyl ester;Isobutyl tiglate",
    "duplicated_cas_no": "",
    "SMILES": "C(OCC(C)C)(/C(=C/C)/C)=O",
    "meta_data": {
        "InChI": "InChI=1S/C9H16O2/c1-5-8(4)9(10)11-6-7(2)3/h5,7H,6H2,1-4H3/b8-5+",
        "InChIKey": null,
        "Canonical SMILES": "O=C(OCC(C)C)C(=CC)C",
        "Molecular Formula": "C<sub>9</sub>H<sub>16</sub>O<sub>2</sub>",
        "Molecular Mass": "156.22",
        "Boiling Point": "180 °C @ Press: 760 Torr"
    }
}