{
    "cas_no": "577-19-5",
    "key_name": "1-Bromo-2-nitrobenzene",
    "cn_name": "1-溴-2-硝基苯;邻硝基溴苯;2-溴硝基苯;",
    "alternate_name": "Benzene, 1-bromo-2-nitro-;1-Bromo-2-nitrobenzene;<em>o</em>-Bromonitrobenzene;2-Bromonitrobenzene;<em>o</em>-Nitrobromobenzene;2-Nitrobromobenzene;<em>o</em>-Nitrophenyl bromide;2-Bromo-1-nitrobenzene;2-Nitrophenyl bromide;NSC 403836;2-Nitro-1-bromobenzene",
    "duplicated_cas_no": "",
    "SMILES": "N(=O)(=O)C1=C(Br)C=CC=C1",
    "meta_data": {
        "InChI": "InChI=1S/C6H4BrNO2/c7-5-3-1-2-4-6(5)8(9)10/h1-4H",
        "InChIKey": null,
        "Canonical SMILES": "O=N(=O)C=1C=CC=CC1Br",
        "Molecular Formula": "C<sub>6</sub>H<sub>4</sub>BrNO<sub>2</sub>",
        "Molecular Mass": "202.01",
        "Boiling Point": "258 °C",
        "Melting Point": "43 °C"
    }
}