{
    "cas_no": "770-39-8",
    "key_name": "4-Hydroxyphenylacetone",
    "cn_name": "4-羟基苯基丙酮;对羟基苯基丙酮;",
    "alternate_name": "2-Propanone, 1-(4-hydroxyphenyl)-;2-Propanone, 1-(<em>p</em>-hydroxyphenyl)-;2-Propanone, (<em>p</em>-hydroxyphenyl)-;1-(4-Hydroxyphenyl)-2-propanone;<em>p</em>-Hydroxyphenylacetone;4-Hydroxyphenylacetone;<em>p</em>-Hydroxyphenyl-2-propanone;4-Hydroxyphenyl-2-propanone;1-(<em>p</em>-Hydroxyphenyl)-2-propanone;4-Hydroxybenzyl methyl ketone;1-(4-Hydroxyphenyl)acetone;4-Acetonylphenol",
    "duplicated_cas_no": "",
    "SMILES": "C(C(C)=O)C1=CC=C(O)C=C1",
    "meta_data": {
        "InChI": "InChI=1S/C9H10O2/c1-7(10)6-8-2-4-9(11)5-3-8/h2-5,11H,6H2,1H3",
        "InChIKey": null,
        "Canonical SMILES": "O=C(C)CC1=CC=C(O)C=C1",
        "Molecular Formula": "C<sub>9</sub>H<sub>10</sub>O<sub>2</sub>",
        "Molecular Mass": "150.17",
        "Boiling Point": "130-150 °C @ Press: 0.5 Torr",
        "Melting Point": "35.5 °C",
        "Density": "1.1159 g/cm³ @ Temp: 20 °C"
    }
}