{
    "cas_no": "81422-93-7",
    "key_name": "Sanggenon D",
    "cn_name": null,
    "alternate_name": "11<em>H</em>-Benzofuro[3,2-<em>b</em>][1]benzopyran-11-one, 2-[6-(2,4-dihydroxybenzoyl)-5-(2,4-dihydroxyphenyl)-3-methyl-2-cyclohexen-1-yl]-5a,10a-dihydro-1,3,5a,8-tetrahydroxy-10a-(3-methyl-2-buten-1-yl)-;11<em>H</em>-Benzofuro[3,2-<em>b</em>][1]benzopyran-11-one, 2-[6-(2,4-dihydroxybenzoyl)-5-(2,4-dihydroxyphenyl)-3-methyl-2-cyclohexen-1-yl]-5a,10a-dihydro-1,3,5a,8-tetrahydroxy-10a-(3-methyl-2-butenyl)-;2-[6-(2,4-Dihydroxybenzoyl)-5-(2,4-dihydroxyphenyl)-3-methyl-2-cyclohexen-1-yl]-5a,10a-dihydro-1,3,5a,8-tetrahydroxy-10a-(3-methyl-2-buten-1-yl)-11<em>H</em>-benzofuro[3,2-<em>b</em>][1]benzopyran-11-one;Sanggenone D;Sanggenon D;2-(2-(2,4-Dihydroxybenzoyl)-2′,4′-dihydroxy-5-methyl-1,2,3,6-tetrahydro-[1,1′-biphenyl]-3-yl)-1,3,5a,8-tetrahydroxy-10a-(3-methylbut-2-en-1-yl)-5a<em>H</em>-benzofuro[3,2-<em>b</em>]chromen-11(10a<em>H</em>)-one",
    "duplicated_cas_no": "",
    "SMILES": "C(C=C(C)C)C12C(O)(C=3C(O1)=CC(O)=CC3)OC=4C(C2=O)=C(O)C(=C(O)C4)C5C(C(=O)C6=C(O)C=C(O)C=C6)C(CC(C)=C5)C7=C(O)C=C(O)C=C7",
    "meta_data": {
        "InChI": "InChI=1S/C40H36O12/c1-18(2)10-11-39-38(49)35-32(52-40(39,50)27-9-6-22(43)16-31(27)51-39)17-30(46)34(37(35)48)26-13-19(3)12-25(23-7-4-20(41)14-28(23)44)33(26)36(47)24-8-5-21(42)15-29(24)45/h4-10,13-17,25-26,33,41-46,48,50H,11-12H2,1-3H3",
        "InChIKey": null,
        "Canonical SMILES": "O=C(C1=CC=C(O)C=C1O)C2C(C=C(C)CC2C3=CC=C(O)C=C3O)C4=C(O)C=C5OC6(O)C7=CC=C(O)C=C7OC6(C(=O)C5=C4O)CC=C(C)C",
        "Molecular Formula": "C<sub>40</sub>H<sub>36</sub>O<sub>12</sub>",
        "Molecular Mass": "708.71",
        "Melting Point": "175-185 °C"
    }
}