{
    "cas_no": "1694-31-1",
    "key_name": "<em>tert</em>-Butyl acetoacetate",
    "cn_name": "乙酰乙酸叔丁酯;3-丁酮酸叔丁酯;",
    "alternate_name": "Butanoic acid, 3-oxo-, 1,1-dimethylethyl ester;Acetoacetic acid, <em>tert</em>-butyl ester;<em>tert</em>-Butyl acetoacetate;<em>tert</em>-Butyl 3-oxobutyrate;1,1-Dimethylethyl acetoacetate;<em>tert</em>-Butyl 3-oxobutanoate;<em>tert</em>-Butyl acetylacetonate;3-Oxobutanoic acid 1,1-dimethylethyl ester;NSC 42869;3-Oxobutyric acid <em>tert</em>-butyl ester;<em>tert</em>-Butyl acetylacetate;Lonza TBAA",
    "duplicated_cas_no": "",
    "SMILES": "O(C(C)(C)C)C(CC(C)=O)=O",
    "meta_data": {
        "InChI": "InChI=1S/C8H14O3/c1-6(9)5-7(10)11-8(2,3)4/h5H2,1-4H3",
        "InChIKey": null,
        "Canonical SMILES": "O=C(OC(C)(C)C)CC(=O)C",
        "Molecular Formula": "C<sub>8</sub>H<sub>14</sub>O<sub>3</sub>",
        "Molecular Mass": "158.20",
        "Boiling Point": "71.5 °C @ Press: 11 Torr",
        "Melting Point": "212-213 °C",
        "Density": "0.9698 g/cm³ @ Temp: 25 °C"
    }
}