{
    "cas_no": "13214-66-9",
    "key_name": "Benzenebutanamine",
    "cn_name": null,
    "alternate_name": "Benzenebutanamine;Butylamine, 4-phenyl-;4-Phenylbutylamine;4-Phenyl-1-butylamine;δ-Phenyl-<em>n</em>-butylamine;δ-Phenbutylamine;4-Phenyl-<em>n</em>-butylamine;4-Benzenebutanamine;4-Phenylbutanamine;1-Amino-4-phenylbutane;4-Phenyl-1-aminobutane;4-Phenylbutan-1-amine",
    "duplicated_cas_no": "",
    "SMILES": "C(CCCN)C1=CC=CC=C1",
    "meta_data": {
        "InChI": "InChI=1S/C10H15N/c11-9-5-4-8-10-6-2-1-3-7-10/h1-3,6-7H,4-5,8-9,11H2",
        "InChIKey": null,
        "Canonical SMILES": "NCCCCC=1C=CC=CC1",
        "Molecular Formula": "C<sub>10</sub>H<sub>15</sub>N",
        "Molecular Mass": "149.23",
        "Boiling Point": "123-124 °C"
    }
}