{
    "cas_no": "2848-96-6",
    "key_name": "Lorazepam acetate",
    "cn_name": "7-氯-5-(2-氯苯基)-1,3-二氢-2-氧代-2H-1,4-苯并二氮杂卓-3-基乙酸酯;",
    "alternate_name": "2<em>H</em>-1,4-Benzodiazepin-2-one, 3-(acetyloxy)-7-chloro-5-(2-chlorophenyl)-1,3-dihydro-;2<em>H</em>-1,4-Benzodiazepin-2-one, 7-chloro-5-(<em>o</em>-chlorophenyl)-1,3-dihydro-3-hydroxy-, acetate (ester);2<em>H</em>-1,4-Benzodiazepin-2-one, 7-chloro-5-(<em>o</em>-chlorophenyl)-1,3-dihydro-3-hydroxy-, acetate;3-(Acetyloxy)-7-chloro-5-(2-chlorophenyl)-1,3-dihydro-2<em>H</em>-1,4-benzodiazepin-2-one;Ro 7-8407;Lorazepam acetate;3-Acetoxy-7-chloro-5-(<em>o</em>-chlorophenyl)-1,3-dihydro-2<em>H</em>-1,4-benzodiazepin-2-one;(±)-Lorazepam acetate;7-Chloro-5-(2-chlorophenyl)-2-oxo-2,3-dihydro-1<em>H</em>-benzo[<em>e</em>][1,4]diazepin-3-yl acetate",
    "duplicated_cas_no": "76709-20-1",
    "SMILES": "ClC1=C(C=2C=3C(NC(=O)C(OC(C)=O)N2)=CC=C(Cl)C3)C=CC=C1",
    "meta_data": {
        "InChI": "InChI=1S/C17H12Cl2N2O3/c1-9(22)24-17-16(23)20-14-7-6-10(18)8-12(14)15(21-17)11-4-2-3-5-13(11)19/h2-8,17H,1H3,(H,20,23)",
        "InChIKey": null,
        "Canonical SMILES": "O=C(OC1N=C(C=2C=CC=CC2Cl)C=3C=C(Cl)C=CC3NC1=O)C",
        "Molecular Formula": "C<sub>17</sub>H<sub>12</sub>Cl<sub>2</sub>N<sub>2</sub>O<sub>3</sub>",
        "Molecular Mass": "363.19",
        "Melting Point": "243-245 °C"
    }
}