{
    "cas_no": "35541-81-2",
    "key_name": "Benzoflex 352",
    "cn_name": null,
    "alternate_name": "1,4-Cyclohexanedimethanol, 1,4-dibenzoate;1,4-Cyclohexanedimethanol, dibenzoate;1,4-Bis(benzoyloxymethyl)cyclohexane;Benzoflex 352",
    "duplicated_cas_no": "",
    "SMILES": "C(OCC1CCC(COC(=O)C2=CC=CC=C2)CC1)(=O)C3=CC=CC=C3",
    "meta_data": {
        "InChI": "InChI=1S/C22H24O4/c23-21(19-7-3-1-4-8-19)25-15-17-11-13-18(14-12-17)16-26-22(24)20-9-5-2-6-10-20/h1-10,17-18H,11-16H2",
        "InChIKey": null,
        "Canonical SMILES": "O=C(OCC1CCC(COC(=O)C=2C=CC=CC2)CC1)C=3C=CC=CC3",
        "Molecular Formula": "C<sub>22</sub>H<sub>24</sub>O<sub>4</sub>",
        "Molecular Mass": "352.42",
        "Melting Point": "125 °C"
    }
}