{
    "cas_no": "938-18-1",
    "key_name": "2,4,6-Trimethylbenzoyl chloride",
    "cn_name": "2,4,6-三甲基苯甲酰氯;",
    "alternate_name": "Benzoyl chloride, 2,4,6-trimethyl-;2,4,6-Trimethylbenzoyl chloride;Mesitoyl chloride;Mesitylcarbonyl chloride;2,4,6-Trimethylbenzoic acid chloride;NSC 97606;<em>sym</em>-Trimethylbenzoic acid chloride",
    "duplicated_cas_no": "",
    "SMILES": "C(Cl)(=O)C1=C(C)C=C(C)C=C1C",
    "meta_data": {
        "InChI": "InChI=1S/C10H11ClO/c1-6-4-7(2)9(10(11)12)8(3)5-6/h4-5H,1-3H3",
        "InChIKey": null,
        "Canonical SMILES": "O=C(Cl)C=1C(=CC(=CC1C)C)C",
        "Molecular Formula": "C<sub>10</sub>H<sub>11</sub>ClO",
        "Molecular Mass": "182.65",
        "Boiling Point": "125-126 °C @ Press: 30 Torr"
    }
}