{
    "cas_no": "1152-61-0",
    "key_name": "Benzyloxycarbonyl-<span class=\"text-smallcaps\">L</span>-aspartic acid",
    "cn_name": "N-CBZ-L-天冬氨酸;苯甲氧羰基-L-天门冬氨酸;",
    "alternate_name": "<span class=\"text-smallcaps\">L</span>-Aspartic acid, <em>N</em>-[(phenylmethoxy)carbonyl]-;Aspartic acid, <em>N</em>-carboxy-, <em>N</em>-benzyl ester, <span class=\"text-smallcaps\">L</span>-;Aspartic acid, <em>N</em>-carboxy-, <em>N</em>-benzyl ester;<em>N</em>-[(Phenylmethoxy)carbonyl]-<span class=\"text-smallcaps\">L</span>-aspartic acid;Carbobenzoxy-<span class=\"text-smallcaps\">L</span>-aspartic acid;<em>N</em>-(Benzyloxycarbonyl)-<span class=\"text-smallcaps\">L</span>-aspartic acid;<em>N</em>-Carbobenzoxy-<span class=\"text-smallcaps\">L</span>-aspartic acid;<em>N</em>-Benzyloxylcarbonyl-<span class=\"text-smallcaps\">L</span>-aspartic acid;Cbz-Asp-OH;<em>N</em>-Carbobenzyloxy-<span class=\"text-smallcaps\">L</span>-aspartic acid;NSC 88479;NSC 9972;Benzyloxycarbonyl-<span class=\"text-smallcaps\">L</span>-aspartic acid;(2S)-2-(Phenylmethoxycarbonylamino)butanedioic acid;(2S)-2-[[(Benzyloxy)carbonyl]amino]butanedioic acid",
    "duplicated_cas_no": "111197-43-4;22259-06-9;182410-54-4",
    "SMILES": "C(OC(N[C@@H](CC(O)=O)C(O)=O)=O)C1=CC=CC=C1",
    "meta_data": {
        "InChI": "InChI=1S/C12H13NO6/c14-10(15)6-9(11(16)17)13-12(18)19-7-8-4-2-1-3-5-8/h1-5,9H,6-7H2,(H,13,18)(H,14,15)(H,16,17)/t9-/m0/s1",
        "InChIKey": null,
        "Canonical SMILES": "O=C(O)CC(NC(=O)OCC=1C=CC=CC1)C(=O)O",
        "Molecular Formula": "C<sub>12</sub>H<sub>13</sub>NO<sub>6</sub>",
        "Molecular Mass": "267.23",
        "Melting Point": "116 °C"
    }
}