{
    "cas_no": "107-36-8",
    "key_name": "Isethionic acid",
    "cn_name": "2-羟乙基磺酸;2-羟基乙烷磺酸;",
    "alternate_name": "Ethanesulfonic acid, 2-hydroxy-;2-Hydroxyethanesulfonic acid;(Hydroxyethyl)sulfonic acid;Isethionic acid;Ethanolsulfonic acid;(2-Hydroxyethyl)sulfonic acid;NSC 60516;Tego HES 70;2-Hydroxyethane-1-sulfonic acid;MeSH ID: D007513",
    "duplicated_cas_no": "51694-03-2;2087491-52-7",
    "SMILES": "C(S(=O)(=O)O)CO",
    "meta_data": {
        "InChI": "InChI=1S/C2H6O4S/c3-1-2-7(4,5)6/h3H,1-2H2,(H,4,5,6)",
        "InChIKey": null,
        "Canonical SMILES": "O=S(=O)(O)CCO",
        "Molecular Formula": "C<sub>2</sub>H<sub>6</sub>O<sub>4</sub>S",
        "Molecular Mass": "126.13",
        "Melting Point": "&lt;25 °C"
    }
}