{
    "cas_no": "4674-50-4",
    "key_name": "(+)-Nootkatone",
    "cn_name": "圆柚酮;努特卡酮;",
    "alternate_name": "2(3<em>H</em>)-Naphthalenone, 4,4a,5,6,7,8-hexahydro-4,4a-dimethyl-6-(1-methylethenyl)-, (4<em>R</em>,4a<em>S</em>,6<em>R</em>)-;4β<span class=\"text-smallcaps\">H</span>,5α-Eremophila-1(10),11-dien-2-one;Nootkatone;2(3<em>H</em>)-Naphthalenone, 4,4a,5,6,7,8-hexahydro-4,4a-dimethyl-6-(1-methylethenyl)-, [4<em>R</em>-(4α,4aα,6β)]-;(4<em>R</em>,4a<em>S</em>,6<em>R</em>)-4,4a,5,6,7,8-Hexahydro-4,4a-dimethyl-6-(1-methylethenyl)-2(3<em>H</em>)-naphthalenone;(+)-Nootkatone;Nootkanone;(4R,4AS,6R)-4,4a-dimethyl-6-(prop-1-en-2-yl)-4,4a,5,6,7,8-hexahydronaphthalen-2(3<em>H</em>)-one",
    "duplicated_cas_no": "",
    "SMILES": "C[C@@]12C(=CC(=O)C[C@H]1C)CC[C@@H](C(C)=C)C2",
    "meta_data": {
        "InChI": "InChI=1S/C15H22O/c1-10(2)12-5-6-13-8-14(16)7-11(3)15(13,4)9-12/h8,11-12H,1,5-7,9H2,2-4H3/t11-,12-,15+/m1/s1",
        "InChIKey": null,
        "Canonical SMILES": "O=C1C=C2CCC(C(=C)C)CC2(C)C(C)C1",
        "Molecular Formula": "C<sub>15</sub>H<sub>22</sub>O",
        "Molecular Mass": "218.33",
        "Melting Point": "31-34 °C"
    }
}