{
    "cas_no": "165800-03-3",
    "key_name": "Linezolid",
    "cn_name": "雷奈佐利;吗啉恶酮;(S)-N-[[3-(3-氟-4-吗啉基苯基)-2-氧代-5-噁唑烷基]甲基]乙酰胺;",
    "alternate_name": "Acetamide, <em>N</em>-[[(5<em>S</em>)-3-[3-fluoro-4-(4-morpholinyl)phenyl]-2-oxo-5-oxazolidinyl]methyl]-;Acetamide, <em>N</em>-[[3-[3-fluoro-4-(4-morpholinyl)phenyl]-2-oxo-5-oxazolidinyl]methyl]-, (<em>S</em>)-;<em>N</em>-[[(5<em>S</em>)-3-[3-Fluoro-4-(4-morpholinyl)phenyl]-2-oxo-5-oxazolidinyl]methyl]acetamide;U 100766;Linezolid;PNU 100766;Zyvox;Zyvoxid;<em>N</em>-[[(5S)-3-[3-Fluoro-4-(4-morpholinyl)phenyl]-2-oxo-5-oxazolidinyl]methyl]acetamide;Linox;Linospan;(<em>S</em>)-Linezolid;Lizolid;Lizoforce;Averozolid;Zyrox",
    "duplicated_cas_no": "",
    "SMILES": "O=C1N(C[C@H](CNC(C)=O)O1)C2=CC(F)=C(C=C2)N3CCOCC3",
    "meta_data": {
        "InChI": "InChI=1S/C16H20FN3O4/c1-11(21)18-9-13-10-20(16(22)24-13)12-2-3-15(14(17)8-12)19-4-6-23-7-5-19/h2-3,8,13H,4-7,9-10H2,1H3,(H,18,21)/t13-/m0/s1",
        "InChIKey": null,
        "Canonical SMILES": "O=C1OC(CNC(=O)C)CN1C2=CC=C(C(F)=C2)N3CCOCC3",
        "Molecular Formula": "C<sub>16</sub>H<sub>20</sub>FN<sub>3</sub>O<sub>4</sub>",
        "Molecular Mass": "337.35",
        "Melting Point": "181.5-182.5 °C",
        "Density": "1.302 g/cm³"
    }
}