{
    "cas_no": "1214-16-0",
    "key_name": "3,6-Dibromo-9-ethenyl-9<em>H</em>-carbazole",
    "cn_name": null,
    "alternate_name": "9<em>H</em>-Carbazole, 3,6-dibromo-9-ethenyl-;Carbazole, 3,6-dibromo-9-vinyl-;3,6-Dibromo-9-ethenyl-9<em>H</em>-carbazole;3,6-Dibromo-9-vinylcarbazole;3,6-Dibromo-<em>N</em>-vinylcarbazole",
    "duplicated_cas_no": "",
    "SMILES": "C(=C)N1C=2C(C=3C1=CC=C(Br)C3)=CC(Br)=CC2",
    "meta_data": {
        "InChI": "InChI=1S/C14H9Br2N/c1-2-17-13-5-3-9(15)7-11(13)12-8-10(16)4-6-14(12)17/h2-8H,1H2",
        "InChIKey": null,
        "Canonical SMILES": "BrC1=CC=C2C(=C1)C=3C=C(Br)C=CC3N2C=C",
        "Molecular Formula": "C<sub>14</sub>H<sub>9</sub>Br<sub>2</sub>N",
        "Molecular Mass": "351.04",
        "Melting Point": "74-75 °C"
    }
}