{
    "cas_no": "6740-86-9",
    "key_name": "(1-Bromocyclopentyl)(2-chlorophenyl)methanone",
    "cn_name": null,
    "alternate_name": "Methanone, (1-bromocyclopentyl)(2-chlorophenyl)-;Ketone, 1-bromocyclopentyl <em>o</em>-chlorophenyl;(1-Bromocyclopentyl)(2-chlorophenyl)methanone;1-Bromocyclopentyl <em>o</em>-chlorophenyl ketone;1-Bromocyclopentyl 2-chlorophenyl ketone",
    "duplicated_cas_no": "",
    "SMILES": "C(=O)(C1=C(Cl)C=CC=C1)C2(Br)CCCC2",
    "meta_data": {
        "InChI": "InChI=1S/C12H12BrClO/c13-12(7-3-4-8-12)11(15)9-5-1-2-6-10(9)14/h1-2,5-6H,3-4,7-8H2",
        "InChIKey": null,
        "Canonical SMILES": "O=C(C=1C=CC=CC1Cl)C2(Br)CCCC2",
        "Molecular Formula": "C<sub>12</sub>H<sub>12</sub>BrClO",
        "Molecular Mass": "287.58",
        "Boiling Point": "111-114 °C @ Press: 0.1 Torr"
    }
}