{
    "cas_no": "98-68-0",
    "key_name": "4-Methoxybenzenesulfonyl chloride",
    "cn_name": "对甲氧基苯磺酰氯;",
    "alternate_name": "Benzenesulfonyl chloride, 4-methoxy-;Benzenesulfonyl chloride, <em>p</em>-methoxy-;4-Methoxybenzenesulfonyl chloride;<em>p</em>-Methoxybenzenesulfonyl chloride;<em>p</em>-Anisylsulfonyl chloride;<em>p</em>-Methoxyphenylsulfonyl chloride;4-Methoxyphenylsulfonyl chloride;4-Methoxybenzenesulfonic acid chloride;NSC 403292;4-(Methyloxy)benzenesulfonyl chloride;4-Methoxybenzene-1-sulfonyl chloride;4-Methoxybenzensulfonyl chloride;4-Methoxybezenesulfonyl chloride",
    "duplicated_cas_no": "1620747-86-5",
    "SMILES": "S(Cl)(=O)(=O)C1=CC=C(OC)C=C1",
    "meta_data": {
        "InChI": "InChI=1S/C7H7ClO3S/c1-11-6-2-4-7(5-3-6)12(8,9)10/h2-5H,1H3",
        "InChIKey": null,
        "Canonical SMILES": "O=S(=O)(Cl)C1=CC=C(OC)C=C1",
        "Molecular Formula": "C<sub>7</sub>H<sub>7</sub>ClO<sub>3</sub>S",
        "Molecular Mass": "206.65",
        "Boiling Point": "103-105 °C @ Press: 0.25 Torr",
        "Melting Point": "41 °C"
    }
}