{
    "cas_no": "206559-48-0",
    "key_name": "4-[(Hydrazinylthioxomethyl)amino]benzoic acid",
    "cn_name": null,
    "alternate_name": "Benzoic acid, 4-[(hydrazinylthioxomethyl)amino]-;Benzoic acid, 4-[(hydrazinothioxomethyl)amino]-;4-[(Hydrazinylthioxomethyl)amino]benzoic acid;4-(4-Carboxyphenyl)-3-thiosemicarbazide",
    "duplicated_cas_no": "",
    "SMILES": "N(C(NN)=S)C1=CC=C(C(O)=O)C=C1",
    "meta_data": {
        "InChI": "InChI=1S/C8H9N3O2S/c9-11-8(14)10-6-3-1-5(2-4-6)7(12)13/h1-4H,9H2,(H,12,13)(H2,10,11,14)",
        "InChIKey": null,
        "Canonical SMILES": "O=C(O)C1=CC=C(C=C1)NC(=S)NN",
        "Molecular Formula": "C<sub>8</sub>H<sub>9</sub>N<sub>3</sub>O<sub>2</sub>S",
        "Molecular Mass": "211.24",
        "Melting Point": "&gt;275 °C"
    }
}