{
    "cas_no": "674-26-0",
    "key_name": "(±)-Mevalonolactone",
    "cn_name": "甲瓦龙酸内酯;3,5-二羟基-3-甲基戊酸内酯;",
    "alternate_name": "2<em>H</em>-Pyran-2-one, tetrahydro-4-hydroxy-4-methyl-;2<em>H</em>-Pyran-2-one, tetrahydro-4-hydroxy-4-methyl-, (±)-;Tetrahydro-4-hydroxy-4-methyl-2<em>H</em>-pyran-2-one;<span class=\"text-smallcaps\">DL</span>-Mevalonic acid lactone;<span class=\"text-smallcaps\">DL</span>-Mevalonolactone;(±)-Mevalolactone;(<em>RS</em>)-Mevalonolactone;(±)-Mevalonolactone;<span class=\"text-smallcaps\">DL</span>-Mevalonic acid δ-lactone;β-Hydroxy-β-methyl-δ-valerolactone;Mevalolactone;Mevalonic acid lactone;Mevalonic acid δ-lactone;Mevalonic lactone;Mevalonolactone;MVSL;NSC 90804",
    "duplicated_cas_no": "503-48-0",
    "SMILES": "CC1(O)CC(=O)OCC1",
    "meta_data": {
        "InChI": "InChI=1S/C6H10O3/c1-6(8)2-3-9-5(7)4-6/h8H,2-4H2,1H3",
        "InChIKey": null,
        "Canonical SMILES": "O=C1OCCC(O)(C)C1",
        "Molecular Formula": "C<sub>6</sub>H<sub>10</sub>O<sub>3</sub>",
        "Molecular Mass": "130.14",
        "Boiling Point": "148-151 °C @ Press: 5 Torr",
        "Melting Point": "27-28 °C"
    }
}