{
    "cas_no": "23165-53-9",
    "key_name": "4-Chloro-1-isothiocyanato-2-methylbenzene",
    "cn_name": "4-氯-2-甲基苯基异硫代异氰酸酯;",
    "alternate_name": "Benzene, 4-chloro-1-isothiocyanato-2-methyl-;Isothiocyanic acid, 4-chloro-<em>o</em>-tolyl ester;4-Chloro-1-isothiocyanato-2-methylbenzene;4-Chloro-2-methylphenyl isothiocyanate;4-Chloro-<em>o</em>-tolyl isothiocyanate;2-Methyl-4-chlorophenyl isothiocyanate",
    "duplicated_cas_no": "",
    "SMILES": "N(=C=S)C1=C(C)C=C(Cl)C=C1",
    "meta_data": {
        "InChI": "InChI=1S/C8H6ClNS/c1-6-4-7(9)2-3-8(6)10-5-11/h2-4H,1H3",
        "InChIKey": null,
        "Canonical SMILES": "S=C=NC1=CC=C(Cl)C=C1C",
        "Molecular Formula": "C<sub>8</sub>H<sub>6</sub>ClNS",
        "Molecular Mass": "183.66",
        "Boiling Point": "136 °C @ Press: 13 Torr",
        "Melting Point": "37-38 °C"
    }
}