{
    "cas_no": "85416-75-7",
    "key_name": "(-)-Rolipram",
    "cn_name": "(4R)-4-[3-(环戊氧基)-4-甲氧基苯基]吡咯-2-酮;",
    "alternate_name": "2-Pyrrolidinone, 4-[3-(cyclopentyloxy)-4-methoxyphenyl]-, (4<em>R</em>)-;2-Pyrrolidinone, 4-[3-(cyclopentyloxy)-4-methoxyphenyl]-, (<em>R</em>)-;(4<em>R</em>)-4-[3-(Cyclopentyloxy)-4-methoxyphenyl]-2-pyrrolidinone;(-)-Rolipram;(<em>R</em>)-Rolipram;(<em>R</em>)-(-)-Rolipram;(4r)-4-[3-(Cyclopentyloxy)-4-methoxyphenyl]pyrrolidin-2-one;(4R)-4-(3-Cyclopentyloxy-4-methoxyphenyl)pyrrolidin-2-one",
    "duplicated_cas_no": "",
    "SMILES": "O(C1=C(OC)C=CC(=C1)[C@@H]2CNC(=O)C2)C3CCCC3",
    "meta_data": {
        "InChI": "InChI=1S/C16H21NO3/c1-19-14-7-6-11(12-9-16(18)17-10-12)8-15(14)20-13-4-2-3-5-13/h6-8,12-13H,2-5,9-10H2,1H3,(H,17,18)/t12-/m0/s1",
        "InChIKey": null,
        "Canonical SMILES": "O=C1NCC(C2=CC=C(OC)C(OC3CCCC3)=C2)C1",
        "Molecular Formula": "C<sub>16</sub>H<sub>21</sub>NO<sub>3</sub>",
        "Molecular Mass": "275.34",
        "Melting Point": "129-132 °C"
    }
}