{
    "cas_no": "99-07-0",
    "key_name": "3-(Dimethylamino)phenol",
    "cn_name": "3-羟基-N,N-二甲基苯胺;N,N-二甲基间羟基苯胺;",
    "alternate_name": "Phenol, 3-(dimethylamino)-;Phenol, <em>m</em>-(dimethylamino)-;3-(Dimethylamino)phenol;<em>N</em>,<em>N</em>-Dimethyl-<em>m</em>-aminophenol;<em>m</em>-(Dimethylamino)phenol;(3-Hydroxyphenyl)dimethylamine;3-Hydroxy-<em>N</em>,<em>N</em>-dimethylaniline;<em>m</em>-(<em>N</em>,<em>N</em>-Dimethylamino)phenol;3-<em>N</em>,<em>N</em>-Dimethylaminophenol;NSC 62017;<em>N</em>,<em>N</em>-Dimethyl-3-aminophenol",
    "duplicated_cas_no": "",
    "SMILES": "N(C)(C)C1=CC(O)=CC=C1",
    "meta_data": {
        "InChI": "InChI=1S/C8H11NO/c1-9(2)7-4-3-5-8(10)6-7/h3-6,10H,1-2H3",
        "InChIKey": null,
        "Canonical SMILES": "OC1=CC=CC(=C1)N(C)C",
        "Molecular Formula": "C<sub>8</sub>H<sub>11</sub>NO",
        "Molecular Mass": "137.18",
        "Boiling Point": "266.5 °C",
        "Melting Point": "86 °C"
    }
}