{
    "cas_no": "25391-60-0",
    "key_name": "2-Chloro-3-iodo-5-nitropyridine",
    "cn_name": null,
    "alternate_name": "Pyridine, 2-chloro-3-iodo-5-nitro-;2-Chloro-3-iodo-5-nitropyridine",
    "duplicated_cas_no": "",
    "SMILES": "N(=O)(=O)C=1C=C(I)C(Cl)=NC1",
    "meta_data": {
        "InChI": "InChI=1S/C5H2ClIN2O2/c6-5-4(7)1-3(2-8-5)9(10)11/h1-2H",
        "InChIKey": null,
        "Canonical SMILES": "O=N(=O)C1=CN=C(Cl)C(I)=C1",
        "Molecular Formula": "C<sub>5</sub>H<sub>2</sub>ClIN<sub>2</sub>O<sub>2</sub>",
        "Molecular Mass": "284.44",
        "Melting Point": "104-105 °C"
    }
}