{
    "cas_no": "3414-94-6",
    "key_name": "3-Mercapto-5-phenyl-1,2,4-triazole",
    "cn_name": "3-苯基-1,2,4-三唑-5-硫醇水合物;3-苯基-1,2,4-三唑-5-硫醇水合物;",
    "alternate_name": "3<em>H</em>-1,2,4-Triazole-3-thione, 1,2-dihydro-5-phenyl-;Δ<sup>2</sup>-1,2,4-Triazoline-5-thione, 3-phenyl-;<em>s</em>-Triazole-3-thiol, 5-phenyl-;1,2-Dihydro-5-phenyl-3<em>H</em>-1,2,4-triazole-3-thione;3-Phenyl-5-mercapto-<em>s</em>-triazole;3-Mercapto-5-phenyl-1,2,4-triazole;5-Phenyl-1,2,4-triazole-3-thiol;3-Phenyl-1,2,4-triazole-5-thiol;5-Phenyl-<em>s</em>-triazole-3-thiol;5-Phenyl-1<em>H</em>-1,2,4-triazole-3-thiol;NSC 11565;5-Phenyl-2<em>H</em>-1,2,4-triazole-3-thiol;3-Phenyl-4,5-dihydro-1<em>H</em>-1,2,4-triazole-5-thione;3-Phenyl-1<em>H</em>-1,2,4-triazole-5-thiol",
    "duplicated_cas_no": "7271-53-6;78057-19-9",
    "SMILES": "S=C1NC(=NN1)C2=CC=CC=C2",
    "meta_data": {
        "InChI": "InChI=1S/C8H7N3S/c12-8-9-7(10-11-8)6-4-2-1-3-5-6/h1-5H,(H2,9,10,11,12)",
        "InChIKey": null,
        "Canonical SMILES": "S=C1NN=C(N1)C=2C=CC=CC2",
        "Molecular Formula": "C<sub>8</sub>H<sub>7</sub>N<sub>3</sub>S",
        "Molecular Mass": "177.23",
        "Melting Point": "265-267 °C"
    }
}