{
    "cas_no": "92-62-6",
    "key_name": "Proflavine",
    "cn_name": null,
    "alternate_name": "3,6-Acridinediamine;Acridine, 3,6-diamino-;3,6-Diaminoacridine;Isoflav base;Proflavin;Proflavine;3,7-Diamino-5-azaanthracene;Acriflavin A;MeSH ID: D011370",
    "duplicated_cas_no": "",
    "SMILES": "NC1=CC2=C(C=C3C(=N2)C=C(N)C=C3)C=C1",
    "meta_data": {
        "InChI": "InChI=1S/C13H11N3/c14-10-3-1-8-5-9-2-4-11(15)7-13(9)16-12(8)6-10/h1-7H,14-15H2",
        "InChIKey": null,
        "Canonical SMILES": "N=1C=2C=C(N)C=CC2C=C3C=CC(N)=CC13",
        "Molecular Formula": "C<sub>13</sub>H<sub>11</sub>N<sub>3</sub>",
        "Molecular Mass": "209.25",
        "Melting Point": "284-286 °C"
    }
}