{
    "cas_no": "2243-61-0",
    "key_name": "1,4-Naphthalenediamine",
    "cn_name": null,
    "alternate_name": "1,4-Naphthalenediamine;1,4-Diaminonaphthalene;1,4-Naphthylenediamine",
    "duplicated_cas_no": "",
    "SMILES": "NC=1C2=C(C(N)=CC1)C=CC=C2",
    "meta_data": {
        "InChI": "InChI=1S/C10H10N2/c11-9-5-6-10(12)8-4-2-1-3-7(8)9/h1-6H,11-12H2",
        "InChIKey": null,
        "Canonical SMILES": "NC1=CC=C(N)C=2C=CC=CC12",
        "Molecular Formula": "C<sub>10</sub>H<sub>10</sub>N<sub>2</sub>",
        "Molecular Mass": "158.20",
        "Melting Point": "120 °C"
    }
}