{
    "cas_no": "623-43-8",
    "key_name": "Methyl <em>E</em>-crotonate",
    "cn_name": "巴豆酸甲酯;2-丁烯酸甲酯;",
    "alternate_name": "2-Butenoic acid, methyl ester, (2<em>E</em>)-;Crotonic acid, methyl ester, (<em>E</em>)-;2-Butenoic acid, methyl ester, (<em>E</em>)-;<em>trans</em>-2-Butenoic acid methyl ester;Methyl <em>trans</em>-crotonate;Methyl <em>trans</em>-2-butenoate;Methyl <em>E</em>-propene-1-carboxylate;Methyl <em>E</em>-crotonate;(<em>E</em>)-Crotonic acid methyl ester;Methyl (<em>E</em>)-2-butenoate;(<em>E</em>)-2-Butenoic acid methyl ester;(2<em>E</em>)-2-Butenoic acid methyl ester;(E)-Methyl but-2-enoate;Methyl (E)-crotonate",
    "duplicated_cas_no": "",
    "SMILES": "C(/C=C/C)(OC)=O",
    "meta_data": {
        "InChI": "InChI=1S/C5H8O2/c1-3-4-5(6)7-2/h3-4H,1-2H3/b4-3+",
        "InChIKey": null,
        "Canonical SMILES": "O=C(OC)C=CC",
        "Molecular Formula": "C<sub>5</sub>H<sub>8</sub>O<sub>2</sub>",
        "Molecular Mass": "100.12",
        "Boiling Point": "121 °C",
        "Melting Point": "-42 °C"
    }
}