{
    "cas_no": "22803-05-0",
    "key_name": "3,3′,4,4′-Biphenyltetracarboxylic acid",
    "cn_name": "3,3\",4,4\"-联苯四甲酸;3,3\"4,4\"-联苯四羧酸;",
    "alternate_name": "[1,1′-Biphenyl]-3,3′,4,4′-tetracarboxylic acid;3,3′,4,4′-Biphenyltetracarboxylic acid;3,4,3′,4′-Biphenyltetracarboxylic acid",
    "duplicated_cas_no": "101516-77-2",
    "SMILES": "C(O)(=O)C=1C=C(C=CC1C(O)=O)C2=CC(C(O)=O)=C(C(O)=O)C=C2",
    "meta_data": {
        "InChI": "InChI=1S/C16H10O8/c17-13(18)9-3-1-7(5-11(9)15(21)22)8-2-4-10(14(19)20)12(6-8)16(23)24/h1-6H,(H,17,18)(H,19,20)(H,21,22)(H,23,24)",
        "InChIKey": null,
        "Canonical SMILES": "O=C(O)C1=CC=C(C=C1C(=O)O)C=2C=CC(C(=O)O)=C(C2)C(=O)O",
        "Molecular Formula": "C<sub>16</sub>H<sub>10</sub>O<sub>8</sub>",
        "Molecular Mass": "330.25",
        "Melting Point": "280 °C"
    }
}