{
    "cas_no": "112-40-3",
    "key_name": "Dodecane",
    "cn_name": "十二烷;十二碳烷;",
    "alternate_name": "Dodecane;<em>n</em>-Dodecane;Adakane 12;Ba 51-090453;C12-<em>n</em>-Alkane;NSC 8714;Cactus Normal Paraffin N 12D;Parafol C12-97;Parafol 12-97;Jarcane 12;Parafol 12RSPO-MB",
    "duplicated_cas_no": "",
    "SMILES": "C(CCCCCC)CCCCC",
    "meta_data": {
        "InChI": "InChI=1S/C12H26/c1-3-5-7-9-11-12-10-8-6-4-2/h3-12H2,1-2H3",
        "InChIKey": null,
        "Canonical SMILES": "CCCCCCCCCCCC",
        "Molecular Formula": "C<sub>12</sub>H<sub>26</sub>",
        "Molecular Mass": "170.33",
        "Boiling Point": "216.3 °C @ Press: 760 Torr",
        "Melting Point": "-9.6 °C",
        "Density": "0.7487 g/cm³ @ Temp: 20 °C"
    }
}