{
    "cas_no": "102-13-6",
    "key_name": "Isobutyl phenylacetate",
    "cn_name": "苯乙酸异丁酯;苯乙酸-2-甲基丙酯;",
    "alternate_name": "Benzeneacetic acid, 2-methylpropyl ester;Acetic acid, phenyl-, isobutyl ester;Isobutyl phenylacetate;Isobutyl α-toluate;NSC 6602;2-Methylpropyl 2-phenylacetate",
    "duplicated_cas_no": "",
    "SMILES": "C(C(OCC(C)C)=O)C1=CC=CC=C1",
    "meta_data": {
        "InChI": "InChI=1S/C12H16O2/c1-10(2)9-14-12(13)8-11-6-4-3-5-7-11/h3-7,10H,8-9H2,1-2H3",
        "InChIKey": null,
        "Canonical SMILES": "O=C(OCC(C)C)CC=1C=CC=CC1",
        "Molecular Formula": "C<sub>12</sub>H<sub>16</sub>O<sub>2</sub>",
        "Molecular Mass": "192.25",
        "Boiling Point": "247 °C",
        "Density": "0.9307 g/cm³ @ Temp: 14 °C"
    }
}