{
    "cas_no": "1156-50-9",
    "key_name": "1,1′-Sulfonylbis[4-nitrobenzene]",
    "cn_name": "二(对硝基苯)硫砜;",
    "alternate_name": "Benzene, 1,1′-sulfonylbis[4-nitro-;Sulfone, bis(<em>p</em>-nitrophenyl);1,1′-Sulfonylbis[4-nitrobenzene];4,4′-Dinitrodiphenyl sulfone;Bis(<em>p</em>-nitrophenyl) sulfone;4-Nitrophenyl sulfone;Bis(4-nitrophenyl) sulfone;NSC 20609;1-Nitro-4-(4-nitrophenyl)sulfonylbenzene",
    "duplicated_cas_no": "",
    "SMILES": "S(=O)(=O)(C1=CC=C(N(=O)=O)C=C1)C2=CC=C(N(=O)=O)C=C2",
    "meta_data": {
        "InChI": "InChI=1S/C12H8N2O6S/c15-13(16)9-1-5-11(6-2-9)21(19,20)12-7-3-10(4-8-12)14(17)18/h1-8H",
        "InChIKey": null,
        "Canonical SMILES": "O=N(=O)C1=CC=C(C=C1)S(=O)(=O)C2=CC=C(C=C2)N(=O)=O",
        "Molecular Formula": "C<sub>12</sub>H<sub>8</sub>N<sub>2</sub>O<sub>6</sub>S",
        "Molecular Mass": "308.27",
        "Melting Point": "282 °C"
    }
}