{
    "cas_no": "69-96-5",
    "key_name": "<span class=\"text-smallcaps\">DL</span>-Phenylserine",
    "cn_name": "DL-β-苯基丝氨酸;",
    "alternate_name": "Phenylalanine, β-hydroxy-;Serine, 3-phenyl-, <span class=\"text-smallcaps\">DL</span>-;<span class=\"text-smallcaps\">DL</span>-Phenylalanine, β-hydroxy-;β-Hydroxyphenylalanine;<span class=\"text-smallcaps\">DL</span>-Phenylserine;β-Phenyl-<span class=\"text-smallcaps\">DL</span>-serine;<span class=\"text-smallcaps\">DL</span>-β-Phenylserine;Phenylserine;<span class=\"text-smallcaps\">DL</span>-3-Phenylserine;β-Phenylserine;3-Phenylserine;2-Amino-3-hydroxy-3-phenylpropionic acid;NSC 10123;2-Azaniumyl-3-hydroxy-3-phenylpropanoate;2-Amino-3-hydroxy-3-phenyl-propanoic acid",
    "duplicated_cas_no": "1078-17-7;21881-38-9",
    "SMILES": "C(C(C(O)=O)N)(O)C1=CC=CC=C1",
    "meta_data": {
        "InChI": "InChI=1S/C9H11NO3/c10-7(9(12)13)8(11)6-4-2-1-3-5-6/h1-5,7-8,11H,10H2,(H,12,13)",
        "InChIKey": null,
        "Canonical SMILES": "O=C(O)C(N)C(O)C=1C=CC=CC1",
        "Molecular Formula": "C<sub>9</sub>H<sub>11</sub>NO<sub>3</sub>",
        "Molecular Mass": "181.19",
        "Melting Point": "192 °C (decomp)"
    }
}