{
    "cas_no": "1206-13-9",
    "key_name": "1-(4-Methylphenyl)cyclohexanecarbonitrile",
    "cn_name": "1-(4-甲基苯基)-1-环己腈;1-对甲苯基环己腈;",
    "alternate_name": "Cyclohexanecarbonitrile, 1-(4-methylphenyl)-;Cyclohexanecarbonitrile, 1-<em>p</em>-tolyl-;1-(4-Methylphenyl)cyclohexanecarbonitrile;NSC 155170;1-(4-Methylphenyl)-1-cyclohexanecarbonitrile;1-(4-Methylphenyl)cyclohexane-1-carbonitrile",
    "duplicated_cas_no": "",
    "SMILES": "C(#N)C1(CCCCC1)C2=CC=C(C)C=C2",
    "meta_data": {
        "InChI": "InChI=1S/C14H17N/c1-12-5-7-13(8-6-12)14(11-15)9-3-2-4-10-14/h5-8H,2-4,9-10H2,1H3",
        "InChIKey": null,
        "Canonical SMILES": "N#CC1(C2=CC=C(C=C2)C)CCCCC1",
        "Molecular Formula": "C<sub>14</sub>H<sub>17</sub>N",
        "Molecular Mass": "199.29",
        "Boiling Point": "135 °C @ Press: 2 Torr"
    }
}