{
    "cas_no": "28140-60-5",
    "key_name": "Benzenamine, <em>N</em>-[3-(phenylamino)-2-propen-1-ylidene]-, hydrochloride (1:1)",
    "cn_name": null,
    "alternate_name": "Benzenamine, <em>N</em>-[3-(phenylamino)-2-propen-1-ylidene]-, hydrochloride (1:1);Aniline, <em>N</em>,<em>N</em>′-1-propen-1-yl-3-ylidenedi-, monohydrochloride;Benzenamine, <em>N</em>-[3-(phenylamino)-2-propenylidene]-, monohydrochloride;Aniline, <em>N</em>,<em>N</em>′-1-propen-1-yl-3-ylidenedi-, hydrochloride;β-Anilinoacrolein anil monohydrochloride;<em>N</em>-(3-Anilino-2-propenylidene)aniline monohydrochloride;Malonaldehyde dianylide hydrochloride",
    "duplicated_cas_no": "",
    "SMILES": "N(C=CC=NC1=CC=CC=C1)C2=CC=CC=C2.Cl",
    "meta_data": {
        "InChI": "InChI=1S/C15H14N2.ClH/c1-3-8-14(9-4-1)16-12-7-13-17-15-10-5-2-6-11-15;/h1-13,16H;1H",
        "InChIKey": null,
        "Canonical SMILES": "Cl.N(=CC=CNC=1C=CC=CC1)C=2C=CC=CC2",
        "Molecular Formula": "C<sub>15</sub>H<sub>14</sub>N<sub>2</sub>.ClH",
        "Molecular Mass": "",
        "Melting Point": "210 °C"
    }
}