{
    "cas_no": "713-68-8",
    "key_name": "3-Phenoxyphenol",
    "cn_name": "3-苯氧基苯酚;3-苯氧基苯酚;3-苯氧基苯酚,TECH.;",
    "alternate_name": "Phenol, 3-phenoxy-;Phenol, <em>m</em>-phenoxy-;3-Phenoxyphenol;<em>m</em>-Phenoxyphenol;3-Hydroxydiphenyl ether;NSC 57079",
    "duplicated_cas_no": "",
    "SMILES": "O(C1=CC(O)=CC=C1)C2=CC=CC=C2",
    "meta_data": {
        "InChI": "InChI=1S/C12H10O2/c13-10-5-4-8-12(9-10)14-11-6-2-1-3-7-11/h1-9,13H",
        "InChIKey": null,
        "Canonical SMILES": "OC1=CC=CC(OC=2C=CC=CC2)=C1",
        "Molecular Formula": "C<sub>12</sub>H<sub>10</sub>O<sub>2</sub>",
        "Molecular Mass": "186.21",
        "Boiling Point": "143-146 °C @ Press: 2 Torr",
        "Melting Point": "105 °C"
    }
}