{
    "cas_no": "813-44-5",
    "key_name": "1,1,1,2,4,5,5,5-Octafluoro-2,4-bis(trifluoromethyl)-3-pentanone",
    "cn_name": "双(七氟异丙基)酮;1,1,1,2,4,5,5,5-八氟代-2,4-双(三氟代甲基)-3-戊酮;",
    "alternate_name": "3-Pentanone, 1,1,1,2,4,5,5,5-octafluoro-2,4-bis(trifluoromethyl)-;1,1,1,2,4,5,5,5-Octafluoro-2,4-bis(trifluoromethyl)-3-pentanone;Perfluoroisopropyl ketone;Perfluorodiisopropyl ketone;Perfluorobis(isopropyl) ketone;Tetradecafluoro-2,4-dimethylpentan-3-one",
    "duplicated_cas_no": "",
    "SMILES": "C(C(C(C(F)(F)F)(C(F)(F)F)F)=O)(C(F)(F)F)(C(F)(F)F)F",
    "meta_data": {
        "InChI": "InChI=1S/C7F14O/c8-2(4(10,11)12,5(13,14)15)1(22)3(9,6(16,17)18)7(19,20)21",
        "InChIKey": null,
        "Canonical SMILES": "O=C(C(F)(C(F)(F)F)C(F)(F)F)C(F)(C(F)(F)F)C(F)(F)F",
        "Molecular Formula": "C<sub>7</sub>F<sub>14</sub>O",
        "Molecular Mass": "366.05",
        "Boiling Point": "71-72 °C"
    }
}