{
    "cas_no": "5437-98-9",
    "key_name": "<em>N</em>-(4-Methoxyphenyl)-3-oxobutanamide",
    "cn_name": "乙酰基乙酰对甲氧基苯胺;对甲氧基-N-乙酰乙酰苯胺;AAPA;",
    "alternate_name": "Butanamide, <em>N</em>-(4-methoxyphenyl)-3-oxo-;<em>p</em>-Acetoacetanisidide;<em>N</em>-(4-Methoxyphenyl)-3-oxobutanamide;4′-Methoxyacetoacetanilide;<em>N</em>-(4-Methoxyphenyl)acetoacetamide;<em>p</em>-Methoxyacetoacetanilide;Acetoacetic acid <em>p</em>-anisidide;NSC 116392;NSC 16508;NSC 216130;<em>N</em>-(4-Methoxyphenyl)acetylacetamide",
    "duplicated_cas_no": "",
    "SMILES": "N(C(CC(C)=O)=O)C1=CC=C(OC)C=C1",
    "meta_data": {
        "InChI": "InChI=1S/C11H13NO3/c1-8(13)7-11(14)12-9-3-5-10(15-2)6-4-9/h3-6H,7H2,1-2H3,(H,12,14)",
        "InChIKey": null,
        "Canonical SMILES": "O=C(NC1=CC=C(OC)C=C1)CC(=O)C",
        "Molecular Formula": "C<sub>11</sub>H<sub>13</sub>NO<sub>3</sub>",
        "Molecular Mass": "207.23",
        "Melting Point": "117-118 °C"
    }
}