{
    "cas_no": "22876-20-6",
    "key_name": "6-Chloro-2-mercaptobenzoxazole",
    "cn_name": "6-氯-2-巯基苯并恶唑;",
    "alternate_name": "2(3<em>H</em>)-Benzoxazolethione, 6-chloro-;2-Benzoxazolinethione, 6-chloro-;6-Chloro-2(3<em>H</em>)-benzoxazolethione;6-Chloro-2-thioxobenzoxazoline;6-Chloro-2-benzoxazolinethione;6-Chloro-2-mercaptobenzoxazole;6-Chloro-1,3-benzoxazole-2-thiol;6-Chlorobenzoxazole-2-thiol;6-Chloro-2-mercaptobenzo[<em>d</em>]oxazole;6-Chlorobenzo[<em>d</em>]oxazole-2-thiol",
    "duplicated_cas_no": "",
    "SMILES": "S=C1NC=2C(O1)=CC(Cl)=CC2",
    "meta_data": {
        "InChI": "InChI=1S/C7H4ClNOS/c8-4-1-2-5-6(3-4)10-7(11)9-5/h1-3H,(H,9,11)",
        "InChIKey": null,
        "Canonical SMILES": "S=C1OC2=CC(Cl)=CC=C2N1",
        "Molecular Formula": "C<sub>7</sub>H<sub>4</sub>ClNOS",
        "Molecular Mass": "185.63",
        "Melting Point": "224-225 °C"
    }
}