{
    "cas_no": "107-29-9",
    "key_name": "Aldoxime",
    "cn_name": "乙醛肟;",
    "alternate_name": "Acetaldehyde, oxime;Acetaldoxime;Aldoxime;Ethylidenehydroxylamine;Ethanal oxime;Acetoaldoxime;NSC 4974",
    "duplicated_cas_no": "",
    "SMILES": "C(=NO)C",
    "meta_data": {
        "InChI": "InChI=1S/C2H5NO/c1-2-3-4/h2,4H,1H3",
        "InChIKey": null,
        "Canonical SMILES": "ON=CC",
        "Molecular Formula": "C<sub>2</sub>H<sub>5</sub>NO",
        "Molecular Mass": "59.07",
        "Boiling Point": "114.5 °C",
        "Melting Point": "47 °C",
        "Density": "0.9656 g/cm³ @ Temp: 20 °C"
    }
}