{
    "cas_no": "35356-70-8",
    "key_name": "Methyl 2-acetamidoacrylate",
    "cn_name": "2-乙酰胺基丙烯酸甲酯;",
    "alternate_name": "2-Propenoic acid, 2-(acetylamino)-, methyl ester;Acrylic acid, 2-acetamido-, methyl ester;Methyl α-acetamidoacrylate;Methyl 2-(acetylamino)acrylate;<em>N</em>-Acetyldehydroalanine methyl ester;Methyl 2-acetylamino-2-propenoate;<em>N</em>-(2-Methoxy-1-methylene-2-oxoethyl)acetamide;<em>N</em>-(1-(Methoxycarbonyl)vinyl)acetamide;2-(Acetylamino)-2-propenoic acid methyl ester;Methyl 2-acetamidoacrylate;NSC 156878;2-Acetylaminoacrylic acid methyl ester;Methyl 2-(acetamido)-2-propenoate",
    "duplicated_cas_no": "",
    "SMILES": "C(C(OC)=O)(NC(C)=O)=C",
    "meta_data": {
        "InChI": "InChI=1S/C6H9NO3/c1-4(6(9)10-3)7-5(2)8/h1H2,2-3H3,(H,7,8)",
        "InChIKey": null,
        "Canonical SMILES": "O=C(OC)C(=C)NC(=O)C",
        "Molecular Formula": "C<sub>6</sub>H<sub>9</sub>NO<sub>3</sub>",
        "Molecular Mass": "143.14",
        "Boiling Point": "66-67 °C @ Press: 0.3 Torr",
        "Melting Point": "75-76 °C"
    }
}