{
    "cas_no": "34859-74-0",
    "key_name": "3-Chlorotricyclo[3.3.1.1<sup>3,7</sup>]decane-1-carboxylic acid",
    "cn_name": "3-氯金刚烷-1-羧酸;",
    "alternate_name": "Tricyclo[3.3.1.1<sup>3,7</sup>]decane-1-carboxylic acid, 3-chloro-;1-Adamantanecarboxylic acid, 3-chloro-;3-Chlorotricyclo[3.3.1.1<sup>3,7</sup>]decane-1-carboxylic acid;3-Chloro-1-adamantanecarboxylic acid;1-Chloro-3-adamantanecarboxylic acid",
    "duplicated_cas_no": "",
    "SMILES": "C(O)(=O)C12CC3(Cl)CC(C1)CC(C2)C3",
    "meta_data": {
        "InChI": "InChI=1S/C11H15ClO2/c12-11-4-7-1-8(5-11)3-10(2-7,6-11)9(13)14/h7-8H,1-6H2,(H,13,14)",
        "InChIKey": null,
        "Canonical SMILES": "O=C(O)C12CC3CC(CC(Cl)(C3)C1)C2",
        "Molecular Formula": "C<sub>11</sub>H<sub>15</sub>ClO<sub>2</sub>",
        "Molecular Mass": "214.69",
        "Boiling Point": "130 °C @ Press: 10 Torr",
        "Melting Point": "149 °C"
    }
}