{
    "cas_no": "13435-20-6",
    "key_name": "Tetraethylammonium cyanide",
    "cn_name": "氰化四乙基铵;氰化四乙基铵;",
    "alternate_name": "Ethanaminium, <em>N</em>,<em>N</em>,<em>N</em>-triethyl-, hydrocyanic acid (1:1);Ammonium, tetraethyl-, cyanide;Tetraethylammonium cyanide;Ethanaminium, <em>N</em>,<em>N</em>,<em>N</em>-triethyl-, cyanide",
    "duplicated_cas_no": "",
    "SMILES": "[N+](CC)(CC)(CC)CC.[C-]#N",
    "meta_data": {
        "InChI": "InChI=1S/C8H20N.CN/c1-5-9(6-2,7-3)8-4;1-2/h5-8H2,1-4H3;/q+1;-1",
        "InChIKey": null,
        "Canonical SMILES": "[C-]#N.CC[N+](CC)(CC)CC",
        "Molecular Formula": "C<sub>8</sub>H<sub>20</sub>N.CN",
        "Molecular Mass": "",
        "Melting Point": "240 °C"
    }
}