{
    "cas_no": "3068-34-6",
    "key_name": "2-Acetamido-3,4,6-tri-<em>O</em>-acetyl-2-deoxy-α-<span class=\"text-smallcaps\">D</span>-glucopyranosyl chloride",
    "cn_name": "2-乙酰胺基-2-脱氧-3,4,6-三乙酰-α-D-氯代吡喃葡糖;",
    "alternate_name": "α-<span class=\"text-smallcaps\">D</span>-Glucopyranosyl chloride, 2-(acetylamino)-2-deoxy-, 3,4,6-triacetate;Glucopyranosyl chloride, 2-acetamido-2-deoxy-, 3,4,6-triacetate, α-<span class=\"text-smallcaps\">D</span>-;Glucopyranosyl chloride, 2-acetamido-2-deoxy-, triacetate;2-Acetamido-2-deoxy-3,4,6-tri-<em>O</em>-acetyl-α-<span class=\"text-smallcaps\">D</span>-glucopyranosyl chloride;2-Acetamido-3,4,6-tri-<em>O</em>-acetyl-2-deoxy-α-<span class=\"text-smallcaps\">D</span>-glucopyranosyl chloride;1-Chloro-1-deoxy-2,3,4,6-tetra-<em>O</em>-acetyl-α-<span class=\"text-smallcaps\">D</span>-glucosamine;<em>N</em>,3,4,6-<em>O</em>-Tetraacetyl-α-<span class=\"text-smallcaps\">D</span>-glucosaminyl chloride;<em>N</em>-Acetyl-3,4,6-tri-<em>O</em>-acetyl-α-<span class=\"text-smallcaps\">D</span>-glucosamin-2-yl chloride;2-Acetamido-3,4,6-tri-<em>O</em>-acetyl-2-deoxya-<span class=\"text-smallcaps\">D</span>-glucopyranosyl chloride",
    "duplicated_cas_no": "",
    "SMILES": "O(C(C)=O)[C@H]1[C@H](OC(C)=O)[C@@H](COC(C)=O)O[C@H](Cl)[C@@H]1NC(C)=O",
    "meta_data": {
        "InChI": "InChI=1S/C14H20ClNO8/c1-6(17)16-11-13(23-9(4)20)12(22-8(3)19)10(24-14(11)15)5-21-7(2)18/h10-14H,5H2,1-4H3,(H,16,17)/t10-,11-,12-,13-,14+/m1/s1",
        "InChIKey": null,
        "Canonical SMILES": "O=C(OCC1OC(Cl)C(NC(=O)C)C(OC(=O)C)C1OC(=O)C)C",
        "Molecular Formula": "C<sub>14</sub>H<sub>20</sub>ClNO<sub>8</sub>",
        "Molecular Mass": "365.76",
        "Melting Point": "126-127 °C"
    }
}