{
    "cas_no": "590-18-1",
    "key_name": "<em>cis</em>-2-Butene",
    "cn_name": "(Z)-2-丁烯;顺-2-丁烯;",
    "alternate_name": "2-Butene, (2<em>Z</em>)-;2-Butene, (<em>Z</em>)-;(2<em>Z</em>)-2-Butene;<em>cis</em>-2-Butylene;<em>cis</em>-1,2-Dimethylethylene;<em>cis</em>-2-Butene;(<em>Z</em>)-2-Butene;β-<em>cis</em>-Butylene;<em>cis</em>-Butene;Z-Butene",
    "duplicated_cas_no": "",
    "SMILES": "C(=C\\C)\\C",
    "meta_data": {
        "InChI": "InChI=1S/C4H8/c1-3-4-2/h3-4H,1-2H3/b4-3-",
        "InChIKey": null,
        "Canonical SMILES": "C(=CC)C",
        "Molecular Formula": "C<sub>4</sub>H<sub>8</sub>",
        "Molecular Mass": "56.11",
        "Boiling Point": "3.7 °C",
        "Melting Point": "-138.9 °C",
        "Density": "0.616 g/cm³"
    }
}