{
    "cas_no": "527-61-7",
    "key_name": "2,6-Dimethyl-1,4-benzoquinone",
    "cn_name": "2,6-二甲基苯醌;2,6-二甲基-邻-苯醌;",
    "alternate_name": "2,5-Cyclohexadiene-1,4-dione, 2,6-dimethyl-;<em>p</em>-Benzoquinone, 2,6-dimethyl-;2,6-Dimethyl-2,5-cyclohexadiene-1,4-dione;<em>m</em>-Xyloquinone;2,6-Dimethyl-<em>p</em>-benzoquinone;2,6-Dimethylbenzoquinone;2,6-Dimethyl-1,4-benzoquinone;2,6-Xyloquinone;3,5-Dimethylbenzoquinone;3,5-Dimethyl-1,4-benzoquinone;NSC 17549;3,5-Dimethyl-<em>p</em>-benzoquinone",
    "duplicated_cas_no": "",
    "SMILES": "O=C1C(C)=CC(=O)C=C1C",
    "meta_data": {
        "InChI": "InChI=1S/C8H8O2/c1-5-3-7(9)4-6(2)8(5)10/h3-4H,1-2H3",
        "InChIKey": null,
        "Canonical SMILES": "O=C1C=C(C(=O)C(=C1)C)C",
        "Molecular Formula": "C<sub>8</sub>H<sub>8</sub>O<sub>2</sub>",
        "Molecular Mass": "136.15",
        "Boiling Point": "20-40 °C @ Press: 0.04 Torr",
        "Melting Point": "72.5 °C"
    }
}