{
    "cas_no": "4028-23-3",
    "key_name": "Chlorodimethyl-2-propen-1-ylsilane",
    "cn_name": "二甲基烯丙基氯化硅;",
    "alternate_name": "Silane, chlorodimethyl-2-propen-1-yl-;Silane, allylchlorodimethyl-;Silane, chlorodimethyl-2-propenyl-;Chlorodimethyl-2-propen-1-ylsilane;Allyldimethylchlorosilane;Allylchlorodimethylsilane;Allyldimethylsilyl chloride;Chlorodimethyl(2-propenyl)silane",
    "duplicated_cas_no": "",
    "SMILES": "C([Si](C)(C)Cl)C=C",
    "meta_data": {
        "InChI": "InChI=1S/C5H11ClSi/c1-4-5-7(2,3)6/h4H,1,5H2,2-3H3",
        "InChIKey": null,
        "Canonical SMILES": "Cl[Si](C)(C)CC=C",
        "Molecular Formula": "C<sub>5</sub>H<sub>11</sub>ClSi",
        "Molecular Mass": "134.68",
        "Boiling Point": "111 °C",
        "Density": "0.896 g/cm³"
    }
}