{
    "cas_no": "10538-55-3",
    "key_name": "Cholan-24-oic acid, 3,7-dihydroxy-, methyl ester, (3α,5β,7β)-",
    "cn_name": null,
    "alternate_name": "Cholan-24-oic acid, 3,7-dihydroxy-, methyl ester, (3α,5β,7β)-;5β-Cholan-24-oic acid, 3α,7β-dihydroxy-, methyl ester;5β-Cholanic acid, 3α,7β-dihydroxy-, methyl ester;Methyl 3α,7β-dihydroxy-5β-cholanoate;Ursodeoxycholic acid methyl ester;Methyl ursodeoxycholate",
    "duplicated_cas_no": "2599839-22-0",
    "SMILES": "C[C@@]12[C@]([C@]3([C@@]([C@]4(C)[C@](C[C@@H]3O)(C[C@H](O)CC4)[H])(CC1)[H])[H])(CC[C@@]2([C@@H](CCC(OC)=O)C)[H])[H]",
    "meta_data": {
        "InChI": "InChI=1S/C25H42O4/c1-15(5-8-22(28)29-4)18-6-7-19-23-20(10-12-25(18,19)3)24(2)11-9-17(26)13-16(24)14-21(23)27/h15-21,23,26-27H,5-14H2,1-4H3/t15-,16+,17-,18-,19+,20+,21+,23+,24+,25-/m1/s1",
        "InChIKey": null,
        "Canonical SMILES": "O=C(OC)CCC(C)C1CCC2C3C(O)CC4CC(O)CCC4(C)C3CCC12C",
        "Molecular Formula": "C<sub>25</sub>H<sub>42</sub>O<sub>4</sub>",
        "Molecular Mass": "406.60",
        "Melting Point": "58.4-58.6 °C"
    }
}