{
    "cas_no": "97-14-3",
    "key_name": "<em>N</em>-Acetyl-<span class=\"text-smallcaps\">DL</span>-serine",
    "cn_name": "N-乙酰-DL-丝氨酸;",
    "alternate_name": "Serine, <em>N</em>-acetyl-;Serine, <em>N</em>-acetyl-, <span class=\"text-smallcaps\">DL</span>-;<span class=\"text-smallcaps\">DL</span>-Serine, <em>N</em>-acetyl-;<em>N</em>-Acetylserine;<em>N</em>-Acetyl-<span class=\"text-smallcaps\">DL</span>-serine;NSC 525646;2-Acetamido-3-hydroxypropanoic acid",
    "duplicated_cas_no": "",
    "SMILES": "C(NC(C)=O)(C(O)=O)CO",
    "meta_data": {
        "InChI": "InChI=1S/C5H9NO4/c1-3(8)6-4(2-7)5(9)10/h4,7H,2H2,1H3,(H,6,8)(H,9,10)",
        "InChIKey": null,
        "Canonical SMILES": "O=C(O)C(NC(=O)C)CO",
        "Molecular Formula": "C<sub>5</sub>H<sub>9</sub>NO<sub>4</sub>",
        "Molecular Mass": "147.13",
        "Melting Point": "131-132 °C"
    }
}