{
    "cas_no": "16567-13-8",
    "key_name": "6-Bromo-8-chloroquinoline",
    "cn_name": null,
    "alternate_name": "Quinoline, 6-bromo-8-chloro-;6-Bromo-8-chloroquinoline",
    "duplicated_cas_no": "",
    "SMILES": "ClC=1C2=C(C=C(Br)C1)C=CC=N2",
    "meta_data": {
        "InChI": "InChI=1S/C9H5BrClN/c10-7-4-6-2-1-3-12-9(6)8(11)5-7/h1-5H",
        "InChIKey": null,
        "Canonical SMILES": "ClC=1C=C(Br)C=C2C=CC=NC12",
        "Molecular Formula": "C<sub>9</sub>H<sub>5</sub>BrClN",
        "Molecular Mass": "242.50",
        "Melting Point": "119.5-120 °C"
    }
}