{
    "cas_no": "61813-58-9",
    "key_name": "4-Ethoxy-3-methoxybenzyl alcohol",
    "cn_name": "4-乙氧基-3-甲氧基苯甲醇;",
    "alternate_name": "Benzenemethanol, 4-ethoxy-3-methoxy-;4-Ethoxy-3-methoxybenzenemethanol;4-Ethoxy-3-methoxybenzyl alcohol;(4-Ethoxy-3-methoxyphenyl)methanol",
    "duplicated_cas_no": "",
    "SMILES": "O(CC)C1=C(OC)C=C(CO)C=C1",
    "meta_data": {
        "InChI": "InChI=1S/C10H14O3/c1-3-13-9-5-4-8(7-11)6-10(9)12-2/h4-6,11H,3,7H2,1-2H3",
        "InChIKey": null,
        "Canonical SMILES": "OCC1=CC=C(OCC)C(OC)=C1",
        "Molecular Formula": "C<sub>10</sub>H<sub>14</sub>O<sub>3</sub>",
        "Molecular Mass": "182.22",
        "Melting Point": "56-57 °C"
    }
}