{
    "cas_no": "154-02-9",
    "key_name": "5-Hydroxytryptophol",
    "cn_name": null,
    "alternate_name": "1<em>H</em>-Indole-3-ethanol, 5-hydroxy-;Indole-3-ethanol, 5-hydroxy-;Tryptophol, 5-hydroxy-;5-Hydroxy-1<em>H</em>-indole-3-ethanol;5-Hydroxytryptophol;5-Hydroxy-3-(2-hydroxyethyl)indole;NSC 84416;3-(2-Hydroxyethyl)-1<em>H</em>-indol-5-ol;5-Hydroxyindole-3-(2-hydroxy)ethyl",
    "duplicated_cas_no": "120465-13-6",
    "SMILES": "C(CO)C=1C=2C(NC1)=CC=C(O)C2",
    "meta_data": {
        "InChI": "InChI=1S/C10H11NO2/c12-4-3-7-6-11-10-2-1-8(13)5-9(7)10/h1-2,5-6,11-13H,3-4H2",
        "InChIKey": null,
        "Canonical SMILES": "OC=1C=CC=2NC=C(C2C1)CCO",
        "Molecular Formula": "C<sub>10</sub>H<sub>11</sub>NO<sub>2</sub>",
        "Molecular Mass": "177.20",
        "Melting Point": "111-113 °C"
    }
}