{
    "cas_no": "22881-35-2",
    "key_name": "Famprofazone",
    "cn_name": null,
    "alternate_name": "3<em>H</em>-Pyrazol-3-one, 1,2-dihydro-1-methyl-4-(1-methylethyl)-5-[[methyl(1-methyl-2-phenylethyl)amino]methyl]-2-phenyl-;3-Pyrazolin-5-one, 4-isopropyl-2-methyl-3-[[methyl(α-methylphenethyl)amino]methyl]-1-phenyl-;1,2-Dihydro-1-methyl-4-(1-methylethyl)-5-[[methyl(1-methyl-2-phenylethyl)amino]methyl]-2-phenyl-3<em>H</em>-pyrazol-3-one;Famprofazone;1-Methyl-5-[[methyl(1-phenylpropan-2-yl)amino]methyl]-2-phenyl-4-propan-2-ylpyrazol-3-one",
    "duplicated_cas_no": "",
    "SMILES": "CN1N(C(=O)C(C(C)C)=C1CN(C(CC2=CC=CC=C2)C)C)C3=CC=CC=C3",
    "meta_data": {
        "InChI": "InChI=1S/C24H31N3O/c1-18(2)23-22(17-25(4)19(3)16-20-12-8-6-9-13-20)26(5)27(24(23)28)21-14-10-7-11-15-21/h6-15,18-19H,16-17H2,1-5H3",
        "InChIKey": null,
        "Canonical SMILES": "O=C1C(=C(N(N1C=2C=CC=CC2)C)CN(C)C(C)CC=3C=CC=CC3)C(C)C",
        "Molecular Formula": "C<sub>24</sub>H<sub>31</sub>N<sub>3</sub>O",
        "Molecular Mass": "377.52",
        "Melting Point": "132-133 °C"
    }
}