{
    "cas_no": "71-41-0",
    "key_name": "1-Pentanol",
    "cn_name": "1-戊醇;正戊醇;",
    "alternate_name": "1-Pentanol;Pentyl alcohol;Amyl alcohol;<em>n</em>-Amyl alcohol;Amylol;<em>n</em>-Butyl carbinol;<em>n</em>-Pentanol;Pentanol;<em>n</em>-Pentyl alcohol;1-Pentyl alcohol;<em>n</em>-Pentan-1-ol;Butyl carbinol;NSC 5707",
    "duplicated_cas_no": "",
    "SMILES": "C(CCO)CC",
    "meta_data": {
        "InChI": "InChI=1S/C5H12O/c1-2-3-4-5-6/h6H,2-5H2,1H3",
        "InChIKey": null,
        "Canonical SMILES": "OCCCCC",
        "Molecular Formula": "C<sub>5</sub>H<sub>12</sub>O",
        "Molecular Mass": "88.15",
        "Boiling Point": "137.5 °C",
        "Melting Point": "-79 °C",
        "Density": "0.8146 g/cm³ @ Temp: 20 °C"
    }
}