{
    "cas_no": "2933-29-1",
    "key_name": "4,5,6,7-Tetrahydro-2-benzothiazolamine",
    "cn_name": null,
    "alternate_name": "2-Benzothiazolamine, 4,5,6,7-tetrahydro-;Benzothiazole, 2-amino-4,5,6,7-tetrahydro-;4,5,6,7-Tetrahydro-2-benzothiazolamine;2-Amino-4,5-tetramethylenethiazole;2-Amino-4,5,6,7-tetrahydrobenzothiazole;4,5,6,7-Tetrahydrobenzothiazol-2-amine;4,5,6,7-Tetrahydro-1,3-benzothiazol-2-amine;NSC 45351;(4,5,6,7-Tetrahydrobenzothiazol-2-yl)amine;4,5,6,7-Tetrahydrobenzo[<em>d</em>]thiazol-2-amine;(4,5,6,7-Tetrahydro-1,3-benzothiazol-2-yl)amine;5,6,7,8-Tetrahydrobenzothiazole-2-amine;4,5,6,7-Tetrahydro-1,3-benzothiazole-2-amine",
    "duplicated_cas_no": "",
    "SMILES": "NC1=NC2=C(S1)CCCC2",
    "meta_data": {
        "InChI": "InChI=1S/C7H10N2S/c8-7-9-5-3-1-2-4-6(5)10-7/h1-4H2,(H2,8,9)",
        "InChIKey": null,
        "Canonical SMILES": "N1=C(SC2=C1CCCC2)N",
        "Molecular Formula": "C<sub>7</sub>H<sub>10</sub>N<sub>2</sub>S",
        "Molecular Mass": "154.23",
        "Boiling Point": "100 °C @ Press: 1 x 10<sup>-3</sup> Torr",
        "Melting Point": "87-88 °C"
    }
}