{
    "cas_no": "3587-58-4",
    "key_name": "2-(Chloromethoxy)propane",
    "cn_name": null,
    "alternate_name": "Propane, 2-(chloromethoxy)-;Ether, chloromethyl isopropyl;2-(Chloromethoxy)propane;Chloromethyl isopropyl ether;Isopropoxymethyl chloride;Isopropyl chloromethyl ether",
    "duplicated_cas_no": "",
    "SMILES": "O(C(C)C)CCl",
    "meta_data": {
        "InChI": "InChI=1S/C4H9ClO/c1-4(2)6-3-5/h4H,3H2,1-2H3",
        "InChIKey": null,
        "Canonical SMILES": "ClCOC(C)C",
        "Molecular Formula": "C<sub>4</sub>H<sub>9</sub>ClO",
        "Molecular Mass": "108.57",
        "Boiling Point": "97-98 °C",
        "Density": "1.000 g/cm³ @ Temp: 0 °C"
    }
}