{
    "cas_no": "2105-43-3",
    "key_name": "Formamide, <em>N</em>-[(4-amino-2-methyl-5-pyrimidinyl)methyl]-<em>N</em>-[4-hydroxy-1-methyl-2-[[(tetrahydro-2-furanyl)methyl]dithio]-1-buten-1-yl]-, hydrochloride (1:1)",
    "cn_name": "呋喃硫胺及盐酸呋喃硫胺;",
    "alternate_name": "Formamide, <em>N</em>-[(4-amino-2-methyl-5-pyrimidinyl)methyl]-<em>N</em>-[4-hydroxy-1-methyl-2-[[(tetrahydro-2-furanyl)methyl]dithio]-1-buten-1-yl]-, hydrochloride (1:1);Formamide, <em>N</em>-[(4-amino-2-methyl-5-pyrimidinyl)methyl]-<em>N</em>-[4-hydroxy-1-methyl-2-[(tetrahydrofurfuryl)dithio]-1-butenyl]-, monohydrochloride;Formamide, <em>N</em>-[(4-amino-2-methyl-5-pyrimidinyl)methyl]-<em>N</em>-[4-hydroxy-1-methyl-2-[[(tetrahydro-2-furanyl)methyl]dithio]-1-butenyl]-, monohydrochloride;Thiamine tetrahydrofurfuryl disulfide hydrochloride;TTFD hydrochloride;Thiamin tetrahydrofurfuryl disulfide hydrochloride;Fursultiamine hydrochloride",
    "duplicated_cas_no": "10238-39-8",
    "SMILES": "C(N(C(=C(SSCC1CCCO1)CCO)C)C=O)C=2C(N)=NC(C)=NC2.Cl",
    "meta_data": {
        "InChI": "InChI=1S/C17H26N4O3S2.ClH/c1-12(16(5-6-22)26-25-10-15-4-3-7-24-15)21(11-23)9-14-8-19-13(2)20-17(14)18;/h8,11,15,22H,3-7,9-10H2,1-2H3,(H2,18,19,20);1H",
        "InChIKey": null,
        "Canonical SMILES": "Cl.O=CN(C(=C(SSCC1OCCC1)CCO)C)CC2=CN=C(N=C2N)C",
        "Molecular Formula": "C<sub>17</sub>H<sub>26</sub>N<sub>4</sub>O<sub>3</sub>S<sub>2</sub>.ClH",
        "Molecular Mass": "",
        "Melting Point": "160 °C (decomp)"
    }
}