{
    "cas_no": "537-65-5",
    "key_name": "4,4′-Diaminodiphenylamine",
    "cn_name": "4,4\"-二氨基二苯胺;",
    "alternate_name": "1,4-Benzenediamine, <em>N</em><sup>1</sup>-(4-aminophenyl)-;Diphenylamine, 4,4′-diamino-;1,4-Benzenediamine, <em>N</em>-(4-aminophenyl)-;<em>N</em><sup>1</sup>-(4-Aminophenyl)-1,4-benzenediamine;C.I. 76120;<em>p</em>,<em>p</em>′-Diaminodiphenylamine;4,4′-Diaminodiphenylamine;Di(<em>p</em>-aminophenyl)amine;Diazol Black C;Benzenamine, 4,4′-iminobis-;Indamine;Bis(<em>p</em>-aminophenyl)amine;4,4′-Iminodianiline;<em>p</em>,<em>p</em>′-Iminodianiline;Bis(4-aminophenyl)amine;<em>N</em>-(4-Aminophenyl)-<em>p</em>-phenylenediamine;NSC 33417;<em>N</em>-(4-Aminophenyl)-1,4-benzenediamine;1-<em>N</em>-(4-Aminophenyl)benzene-1,4-diamine",
    "duplicated_cas_no": "854870-24-9",
    "SMILES": "N(C1=CC=C(N)C=C1)C2=CC=C(N)C=C2",
    "meta_data": {
        "InChI": "InChI=1S/C12H13N3/c13-9-1-5-11(6-2-9)15-12-7-3-10(14)4-8-12/h1-8,15H,13-14H2",
        "InChIKey": null,
        "Canonical SMILES": "NC1=CC=C(C=C1)NC2=CC=C(N)C=C2",
        "Molecular Formula": "C<sub>12</sub>H<sub>13</sub>N<sub>3</sub>",
        "Molecular Mass": "199.25",
        "Melting Point": "158 °C"
    }
}