{
    "cas_no": "4046-02-0",
    "key_name": "Ethyl ferulate",
    "cn_name": "阿魏酸乙酯;4\"-羟基-3\"-甲氧基肉桂酸乙酯;",
    "alternate_name": "2-Propenoic acid, 3-(4-hydroxy-3-methoxyphenyl)-, ethyl ester;Cinnamic acid, 4-hydroxy-3-methoxy-, ethyl ester;Ferulic acid ethyl ester;Ethyl ferulate;Ethyl 4-hydroxy-3-methoxycinnamate;BBR 3222;NSC 14879;Ethyl 3-(4-hydroxy-3-methoxyphenyl)acrylate",
    "duplicated_cas_no": "",
    "SMILES": "C(=CC(OCC)=O)C1=CC(OC)=C(O)C=C1",
    "meta_data": {
        "InChI": "InChI=1S/C12H14O4/c1-3-16-12(14)7-5-9-4-6-10(13)11(8-9)15-2/h4-8,13H,3H2,1-2H3",
        "InChIKey": null,
        "Canonical SMILES": "O=C(OCC)C=CC1=CC=C(O)C(OC)=C1",
        "Molecular Formula": "C<sub>12</sub>H<sub>14</sub>O<sub>4</sub>",
        "Molecular Mass": "222.24",
        "Boiling Point": "164-166 °C @ Press: 0.5 Torr",
        "Melting Point": "75.5-76.5 °C"
    }
}