{
    "cas_no": "771-97-1",
    "key_name": "2,3-Diaminonaphthalene",
    "cn_name": "2,3-二氨基萘;2,3-二氨基萘;2,3-萘二胺;2,3-二氨基萘（DAN）;DAN;",
    "alternate_name": "2,3-Naphthalenediamine;2,3-Diaminonaphthalene;NSC 62692",
    "duplicated_cas_no": "",
    "SMILES": "NC1=CC2=C(C=C1N)C=CC=C2",
    "meta_data": {
        "InChI": "InChI=1S/C10H10N2/c11-9-5-7-3-1-2-4-8(7)6-10(9)12/h1-6H,11-12H2",
        "InChIKey": null,
        "Canonical SMILES": "NC1=CC=2C=CC=CC2C=C1N",
        "Molecular Formula": "C<sub>10</sub>H<sub>10</sub>N<sub>2</sub>",
        "Molecular Mass": "158.20",
        "Melting Point": "199 °C"
    }
}