{
    "cas_no": "53164-05-9",
    "key_name": "Acemetacin",
    "cn_name": "阿西美辛;1-(4-氯苯甲酰基)-5-甲氧基-2-甲基-1H-吲哚-3-乙酸羧甲基酯;",
    "alternate_name": "1<em>H</em>-Indole-3-acetic acid, 1-(4-chlorobenzoyl)-5-methoxy-2-methyl-, carboxymethyl ester;Acemetacin;TVX 1322;Rantudil;K 708;Acemethacin;1-(<em>p</em>-Chlorobenzoyl)-5-methoxy-2-methylindole-3-acetic acid carboxymethyl ester;Acemet;Rheumibis;Solart;TV 1322;Emflex;Acemix;2-[2-[1-[(4-Chlorophenyl)carbonyl]-5-methoxy-2-methylindol-3-yl]acetyloxy]acetic acid;Rheutrop;1-(4-Chlorobenzoyl)-5-methoxy-2-methyl-1<em>H</em>-indole-3-acetic acid carboxymethyl ester;Acemethazine;2-[2-[1-(4-Chlorobenzoyl)-5-methoxy-2-methylindol-3-yl]acetyl]oxyacetic acid",
    "duplicated_cas_no": "136298-38-9",
    "SMILES": "C(=O)(N1C=2C(C(CC(OCC(O)=O)=O)=C1C)=CC(OC)=CC2)C3=CC=C(Cl)C=C3",
    "meta_data": {
        "InChI": "InChI=1S/C21H18ClNO6/c1-12-16(10-20(26)29-11-19(24)25)17-9-15(28-2)7-8-18(17)23(12)21(27)13-3-5-14(22)6-4-13/h3-9H,10-11H2,1-2H3,(H,24,25)",
        "InChIKey": null,
        "Canonical SMILES": "O=C(O)COC(=O)CC=1C=2C=C(OC)C=CC2N(C(=O)C3=CC=C(Cl)C=C3)C1C",
        "Molecular Formula": "C<sub>21</sub>H<sub>18</sub>ClNO<sub>6</sub>",
        "Molecular Mass": "415.82",
        "Melting Point": "151.5 °C",
        "Density": "1.428 g/cm³"
    }
}