{
    "cas_no": "38363-32-5",
    "key_name": "Penbutolol sulfate",
    "cn_name": "喷布特罗硫酸盐;",
    "alternate_name": "2-Propanol, 1-(2-cyclopentylphenoxy)-3-[(1,1-dimethylethyl)amino]-, (2<em>S</em>)-, sulfate (2:1);2-Propanol, 1-(2-cyclopentylphenoxy)-3-[(1,1-dimethylethyl)amino]-, (2<em>S</em>)-, sulfate (2:1) (salt);Penbutolol sulfate;(-)-Terbuclomine;Levatol;HOE 39-893d;Paginol",
    "duplicated_cas_no": "42208-19-5;52767-15-4",
    "SMILES": "O(C[C@H](CNC(C)(C)C)O)C1=C(C=CC=C1)C2CCCC2.S(=O)(=O)(O)O",
    "meta_data": {
        "InChI": "InChI=1S/C18H29NO2.H2O4S/c1-18(2,3)19-12-15(20)13-21-17-11-7-6-10-16(17)14-8-4-5-9-14;1-5(2,3)4/h6-7,10-11,14-15,19-20H,4-5,8-9,12-13H2,1-3H3;(H2,1,2,3,4)/t15-;/m0./s1",
        "InChIKey": null,
        "Canonical SMILES": "O=S(=O)(O)O.OC(COC=1C=CC=CC1C2CCCC2)CNC(C)(C)C",
        "Molecular Formula": "C<sub>18</sub>H<sub>29</sub>NO<sub>2</sub>.<sup>1</sup>/<sub>2</sub>H<sub>2</sub>O<sub>4</sub>S",
        "Molecular Mass": "",
        "Melting Point": "216-218 °C (decomp)"
    }
}