{
    "cas_no": "1314-35-8",
    "key_name": "Tungsten oxide (WO<sub>3</sub>)",
    "cn_name": "三氧化钨;",
    "alternate_name": "Tungsten oxide (WO<sub>3</sub>);Tungsten trioxide;Tungstic anhydride;Tungstic oxide;C.I. 77901;Tungsten trioxide (WO<sub>3</sub>);Tungsten oxide;Tungsten(VI) oxide;Tungstic oxide (WO<sub>3</sub>);Tungsten oxide (W<sub>2</sub>O<sub>6</sub>);Ditungsten hexaoxide;Tungsten oxide (W<sub>3</sub>O<sub>9</sub>);Tritungsten nonaoxide;Tungsten oxide (W<sub>4</sub>O<sub>12</sub>);WWO 03PB;YMDS 06;FI-WO 3;Renecat;SII 30;CQ 8116;CQ 81G16;CQM 30;Avantama P10;W 5;MG-W 03-50",
    "duplicated_cas_no": "1328-66-1;12165-16-1;12165-37-6;12165-45-6;12737-75-6;30445-72-8;160637-48-9;530099-64-0;611206-70-3;627811-63-6;1344994-39-3;2303937-83-7;2491732-47-7;2567699-94-7;2771090-51-6",
    "SMILES": "[W](=O)(=O)=O",
    "meta_data": {
        "InChI": "InChI=1S/3O.W",
        "InChIKey": null,
        "Canonical SMILES": "O=[W](=O)=O",
        "Molecular Formula": "O<sub>3</sub>W",
        "Molecular Mass": "",
        "Melting Point": "1472 °C",
        "Density": "7.2 g/cm³"
    }
}