{
    "cas_no": "58880-37-8",
    "key_name": "1-(4-Chlorophenyl)cyclohexanecarboxylic acid",
    "cn_name": "1-(4-氯苯)-1-环己氨羧酸;",
    "alternate_name": "Cyclohexanecarboxylic acid, 1-(4-chlorophenyl)-;1-(4-Chlorophenyl)cyclohexanecarboxylic acid;TAI 746;1-(4-Chlorophenyl)cyclohexane-1-carboxylic acid;1-(4-Chlorophenyl)-1-cyclohexanecarboxylicacid",
    "duplicated_cas_no": "",
    "SMILES": "C(O)(=O)C1(CCCCC1)C2=CC=C(Cl)C=C2",
    "meta_data": {
        "InChI": "InChI=1S/C13H15ClO2/c14-11-6-4-10(5-7-11)13(12(15)16)8-2-1-3-9-13/h4-7H,1-3,8-9H2,(H,15,16)",
        "InChIKey": null,
        "Canonical SMILES": "O=C(O)C1(C2=CC=C(Cl)C=C2)CCCCC1",
        "Molecular Formula": "C<sub>13</sub>H<sub>15</sub>ClO<sub>2</sub>",
        "Molecular Mass": "238.71",
        "Melting Point": "153-154 °C"
    }
}