{
    "cas_no": "1122-17-4",
    "key_name": "Dichloromaleic anhydride",
    "cn_name": "2,3-二氯马来酸酐;2,3-二氯顺酐;二氯顺酐;",
    "alternate_name": "2,5-Furandione, 3,4-dichloro-;Maleic anhydride, dichloro-;3,4-Dichloro-2,5-furandione;Dichloromaleic anhydride;Dichloromaleic acid anhydride;3,4-Dichloromaleic anhydride;NSC 60524",
    "duplicated_cas_no": "",
    "SMILES": "ClC1=C(Cl)C(=O)OC1=O",
    "meta_data": {
        "InChI": "InChI=1S/C4Cl2O3/c5-1-2(6)4(8)9-3(1)7",
        "InChIKey": null,
        "Canonical SMILES": "O=C1OC(=O)C(Cl)=C1Cl",
        "Molecular Formula": "C<sub>4</sub>Cl<sub>2</sub>O<sub>3</sub>",
        "Molecular Mass": "166.95",
        "Boiling Point": "130 °C @ Press: 100 Torr",
        "Melting Point": "117-118 °C"
    }
}