{
    "cas_no": "3007-91-8",
    "key_name": "2-Naphthalenecarboxylic acid, ethyl ester",
    "cn_name": "2-萘甲酸乙酯;2-萘甲酸乙酯;",
    "alternate_name": "2-Naphthalenecarboxylic acid, ethyl ester;2-Naphthoic acid, ethyl ester;Ethyl 2-naphthoate;Ethyl β-naphthoate;Ethyl 2-naphthalenecarboxylate;NSC 171216",
    "duplicated_cas_no": "",
    "SMILES": "C(OCC)(=O)C1=CC2=C(C=C1)C=CC=C2",
    "meta_data": {
        "InChI": "InChI=1S/C13H12O2/c1-2-15-13(14)12-8-7-10-5-3-4-6-11(10)9-12/h3-9H,2H2,1H3",
        "InChIKey": null,
        "Canonical SMILES": "O=C(OCC)C=1C=CC=2C=CC=CC2C1",
        "Molecular Formula": "C<sub>13</sub>H<sub>12</sub>O<sub>2</sub>",
        "Molecular Mass": "200.23",
        "Boiling Point": "308.5 °C",
        "Melting Point": "32 °C"
    }
}