{
    "cas_no": "36886-76-7",
    "key_name": "3′,6′-Dimethoxyspiro[isobenzofuran-1(3<em>H</em>),9′-[9<em>H</em>]xanthen]-3-one",
    "cn_name": null,
    "alternate_name": "Spiro[isobenzofuran-1(3<em>H</em>),9′-[9<em>H</em>]xanthen]-3-one, 3′,6′-dimethoxy-;3′,6′-Dimethoxyspiro[isobenzofuran-1(3<em>H</em>),9′-[9<em>H</em>]xanthen]-3-one;3′,6′-Dimethoxyfluoran;Yellow Y 1;3′,6′-Dimethoxy-3<em>H</em>-spiro[isobenzofuran-1,9′-xanthen]-3-one",
    "duplicated_cas_no": "",
    "SMILES": "O=C1OC2(C=3C(OC=4C2=CC=C(OC)C4)=CC(OC)=CC3)C=5C1=CC=CC5",
    "meta_data": {
        "InChI": "InChI=1S/C22H16O5/c1-24-13-7-9-17-19(11-13)26-20-12-14(25-2)8-10-18(20)22(17)16-6-4-3-5-15(16)21(23)27-22/h3-12H,1-2H3",
        "InChIKey": null,
        "Canonical SMILES": "O=C1OC2(C3=CC=C(OC)C=C3OC4=CC(OC)=CC=C42)C=5C=CC=CC15",
        "Molecular Formula": "C<sub>22</sub>H<sub>16</sub>O<sub>5</sub>",
        "Molecular Mass": "360.36",
        "Melting Point": "198 °C"
    }
}