{
    "cas_no": "605-50-5",
    "key_name": "Diisopentyl phthalate",
    "cn_name": "邻苯二甲酸二异戊酯;邻苯二甲酸二异戊酯;邻酞酸二异戊酯；苯二甲酸二异戊酯;",
    "alternate_name": "1,2-Benzenedicarboxylic acid, 1,2-bis(3-methylbutyl) ester;Phthalic acid, diisopentyl ester;1,2-Benzenedicarboxylic acid, bis(3-methylbutyl) ester;Diisoamyl phthalate;Diisopentyl phthalate;Bis(3-methylbutyl) phthalate;Palatinol DIPP;NSC 17070",
    "duplicated_cas_no": "",
    "SMILES": "C(OCCC(C)C)(=O)C1=C(C(OCCC(C)C)=O)C=CC=C1",
    "meta_data": {
        "InChI": "InChI=1S/C18H26O4/c1-13(2)9-11-21-17(19)15-7-5-6-8-16(15)18(20)22-12-10-14(3)4/h5-8,13-14H,9-12H2,1-4H3",
        "InChIKey": null,
        "Canonical SMILES": "O=C(OCCC(C)C)C=1C=CC=CC1C(=O)OCCC(C)C",
        "Molecular Formula": "C<sub>18</sub>H<sub>26</sub>O<sub>4</sub>",
        "Molecular Mass": "306.40",
        "Boiling Point": "335-337 °C @ Press: 744 Torr",
        "Melting Point": "334 °C (decomp)"
    }
}