{
    "cas_no": "16986-24-6",
    "key_name": "Neocarborane",
    "cn_name": "间碳硼烷;",
    "alternate_name": "1,7-Dicarbadodecaborane(12);<em>m</em>-Barene;Neocarborane;<em>m</em>-Dicarbadodecaborane(12);Neobarene;<em>m</em>-Carborane;<em>m</em>-Decaborocarborane;<em>m</em>-Carborane(12);1,7-Dicarba-<em>closo</em>-dodecaborane;1,7-Dicarbadodecaborane;1,7-Dicarba-<em>closo</em>-dodecaborane(12)",
    "duplicated_cas_no": "",
    "SMILES": "[BH]1234[BH]567[BH]189[BH]2%10%11[BH]3%12%13[BH]45%14[BH]6%15%16[BH]78%17[CH]%109%18[BH]%12%11%19[CH]%13%14%15[BH]%16%17%19%18",
    "meta_data": {
        "InChI": "InChI=1S/C2H12B10/c1-3-2-4(1,3)6(1)8(2,4)10(2)7(2,3)5(1,3)9(1,6)11(5,7,10)12(6,8,9)10/h1-12H",
        "InChIKey": null,
        "Canonical SMILES": "[BH]1234[BH]567[BH]189[BH]2%10%11[BH]3%12%13[BH]45%14[BH]6%15%16[BH]78%17[BH]%15%18%19[BH]%10%12([CH]9%11%17%18)[CH]%14%13%16%19",
        "Molecular Formula": "C<sub>2</sub>H<sub>12</sub>B<sub>10</sub>",
        "Molecular Mass": "",
        "Melting Point": "263.5-265 °C"
    }
}