{
    "cas_no": "2687-91-4",
    "key_name": "<em>N</em>-Ethyl-2-pyrrolidone",
    "cn_name": "N-乙基-2-吡咯烷酮;",
    "alternate_name": "2-Pyrrolidinone, 1-ethyl-;1-Ethyl-2-pyrrolidinone;1-Ethyl-2-pyrrolidone;<em>N</em>-Ethyl-2-pyrrolidone;<em>N</em>-Ethylpyrrolidone;<em>N</em>-Ethyl-2-pyrrolidinone;<em>N</em>-Ethylpyrrolidinone;<em>N</em>-Ethyl-α-pyrrolidinone;1-Ethylazacyclopentan-2-one;<em>N</em>-Ethylbutyrolactam;<em>N</em>-Ethyl-γ-butyrolactam;NEP;NEP 100;E 0358",
    "duplicated_cas_no": "",
    "SMILES": "C(C)N1C(=O)CCC1",
    "meta_data": {
        "InChI": "InChI=1S/C6H11NO/c1-2-7-5-3-4-6(7)8/h2-5H2,1H3",
        "InChIKey": null,
        "Canonical SMILES": "O=C1N(CC)CCC1",
        "Molecular Formula": "C<sub>6</sub>H<sub>11</sub>NO",
        "Molecular Mass": "113.16",
        "Boiling Point": "211-214 °C",
        "Melting Point": "87.5-88.5 °C"
    }
}