{
    "cas_no": "10288-36-5",
    "key_name": "5-Hydroxy-1,4-benzodioxane",
    "cn_name": null,
    "alternate_name": "1,4-Benzodioxin-5-ol, 2,3-dihydro-;1,4-Benzodioxan-5-ol;2,3-Dihydro-1,4-benzodioxin-5-ol;5-Hydroxy-1,4-benzodioxan;2,3-Ethylenedioxyphenol;1,4-Benzodioxan, 5-hydroxy-;5-Hydroxy-1,4-benzodioxane;2,3-Dihydro-5-hydroxy-1,4-benzodioxin;5-Hydroxy-2,3-dihydro-1,4-benzodioxin;2,3-Dihydrobenzo[1,4]dioxine-5-ol;2,3-Dihydrobenzo[<em>b</em>][1,4]dioxin-5-ol",
    "duplicated_cas_no": "",
    "SMILES": "OC1=C2C(=CC=C1)OCCO2",
    "meta_data": {
        "InChI": "InChI=1S/C8H8O3/c9-6-2-1-3-7-8(6)11-5-4-10-7/h1-3,9H,4-5H2",
        "InChIKey": null,
        "Canonical SMILES": "OC1=CC=CC=2OCCOC12",
        "Molecular Formula": "C<sub>8</sub>H<sub>8</sub>O<sub>3</sub>",
        "Molecular Mass": "152.15",
        "Boiling Point": "120-121 °C @ Press: 1 Torr"
    }
}