{
    "cas_no": "24160-53-0",
    "key_name": "3-(2,4,5-Trimethoxyphenyl)-2-propenoic acid",
    "cn_name": "2,4,5-三甲氧基肉桂酸;2,4,5-三甲氧基苯丙烯酸;",
    "alternate_name": "2-Propenoic acid, 3-(2,4,5-trimethoxyphenyl)-;Cinnamic acid, 2,4,5-trimethoxy-;3-(2,4,5-Trimethoxyphenyl)-2-propenoic acid;2,4,5-Trimethoxycinnamic acid;NSC 89300",
    "duplicated_cas_no": "",
    "SMILES": "C(=CC(O)=O)C1=C(OC)C=C(OC)C(OC)=C1",
    "meta_data": {
        "InChI": "InChI=1S/C12H14O5/c1-15-9-7-11(17-3)10(16-2)6-8(9)4-5-12(13)14/h4-7H,1-3H3,(H,13,14)",
        "InChIKey": null,
        "Canonical SMILES": "O=C(O)C=CC1=CC(OC)=C(OC)C=C1OC",
        "Molecular Formula": "C<sub>12</sub>H<sub>14</sub>O<sub>5</sub>",
        "Molecular Mass": "238.24",
        "Melting Point": "163-165 °C"
    }
}