{
    "cas_no": "221347-71-3",
    "key_name": "5-Fluorobenzoxazole",
    "cn_name": "5-氟苯并恶唑;5-氟苯并噁唑;",
    "alternate_name": "Benzoxazole, 5-fluoro-;5-Fluorobenzoxazole",
    "duplicated_cas_no": "",
    "SMILES": "FC=1C=C2C(=CC1)OC=N2",
    "meta_data": {
        "InChI": "InChI=1S/C7H4FNO/c8-5-1-2-7-6(3-5)9-4-10-7/h1-4H",
        "InChIKey": null,
        "Canonical SMILES": "FC=1C=CC=2OC=NC2C1",
        "Molecular Formula": "C<sub>7</sub>H<sub>4</sub>FNO",
        "Molecular Mass": "137.11",
        "Melting Point": "43-45 °C"
    }
}