{
    "cas_no": "255837-19-5",
    "key_name": "2-(Di-<em>tert</em>-butylphosphino)-2′-methyl-1,1′-biphenyl",
    "cn_name": "2-(二-叔丁膦)-2\"-甲基联苯;",
    "alternate_name": "Phosphine, bis(1,1-dimethylethyl)(2′-methyl[1,1′-biphenyl]-2-yl)-;Bis(1,1-dimethylethyl)(2′-methyl[1,1′-biphenyl]-2-yl)phosphine;2-(Di-<em>tert</em>-butylphosphino)-2′-methyl-1,1′-biphenyl;2-Di-<em>t</em>-butylphosphino-2′-methylbiphenyl;<em>t</em>-BuMePhos;t-BuMePhos",
    "duplicated_cas_no": "",
    "SMILES": "P(C(C)(C)C)(C(C)(C)C)C1=C(C=CC=C1)C2=C(C)C=CC=C2",
    "meta_data": {
        "InChI": "InChI=1S/C21H29P/c1-16-12-8-9-13-17(16)18-14-10-11-15-19(18)22(20(2,3)4)21(5,6)7/h8-15H,1-7H3",
        "InChIKey": null,
        "Canonical SMILES": "C=1C=CC(=C(C1)C=2C=CC=CC2C)P(C(C)(C)C)C(C)(C)C",
        "Molecular Formula": "C<sub>21</sub>H<sub>29</sub>P",
        "Molecular Mass": "312.43",
        "Melting Point": "91-92 °C"
    }
}