{
    "cas_no": "99-65-0",
    "key_name": "1,3-Dinitrobenzene",
    "cn_name": "1,3-二硝基苯;间二硝基苯;",
    "alternate_name": "Benzene, 1,3-dinitro-;Benzene, <em>m</em>-dinitro-;1,3-Dinitrobenzene;<em>m</em>-Dinitrobenzene;DNB;Meta-dinitrobenzene;m-Dinitrobenzene;NSC 7189;DNB (explosive)",
    "duplicated_cas_no": "",
    "SMILES": "N(=O)(=O)C1=CC(N(=O)=O)=CC=C1",
    "meta_data": {
        "InChI": "InChI=1S/C6H4N2O4/c9-7(10)5-2-1-3-6(4-5)8(11)12/h1-4H",
        "InChIKey": null,
        "Canonical SMILES": "O=N(=O)C1=CC=CC(=C1)N(=O)=O",
        "Molecular Formula": "C<sub>6</sub>H<sub>4</sub>N<sub>2</sub>O<sub>4</sub>",
        "Molecular Mass": "168.11",
        "Boiling Point": "302.8 °C @ Press: 770 Torr",
        "Melting Point": "89-90 °C",
        "Density": "1.575 g/cm³ @ Temp: 18 °C"
    }
}