{
    "cas_no": "995-83-5",
    "key_name": "1,1,3,3,5,5,7,7,9,9-Decamethylpentasiloxane",
    "cn_name": null,
    "alternate_name": "Pentasiloxane, 1,1,3,3,5,5,7,7,9,9-decamethyl-;1,1,3,3,5,5,7,7,9,9-Decamethylpentasiloxane;1,9-Dihydrodecamethylpentasiloxane;1,9-Dihydrogendecamethylpentasiloxane;1,9-Dihydridodecamethylpentasiloxane",
    "duplicated_cas_no": "",
    "SMILES": "[Si](O[Si](O[SiH](C)C)(C)C)(O[Si](O[SiH](C)C)(C)C)(C)C",
    "meta_data": {
        "InChI": "InChI=1S/C10H32O4Si5/c1-15(2)11-17(5,6)13-19(9,10)14-18(7,8)12-16(3)4/h15-16H,1-10H3",
        "InChIKey": null,
        "Canonical SMILES": "O([SiH](C)C)[Si](O[Si](O[Si](O[SiH](C)C)(C)C)(C)C)(C)C",
        "Molecular Formula": "C<sub>10</sub>H<sub>32</sub>O<sub>4</sub>Si<sub>5</sub>",
        "Molecular Mass": "356.79",
        "Boiling Point": "124 °C @ Press: 50 Torr",
        "Density": "0.8818 g/cm³ @ Temp: 20 °C"
    }
}