{
    "cas_no": "1888-33-1",
    "key_name": "<em>N</em>-[(4-Methylphenyl)sulfonyl]acetamide",
    "cn_name": "N-乙酰基对甲苯磺酰胺;",
    "alternate_name": "Acetamide, <em>N</em>-[(4-methylphenyl)sulfonyl]-;Acetamide, <em>N</em>-(<em>p</em>-tolylsulfonyl)-;<em>N</em>-[(4-Methylphenyl)sulfonyl]acetamide;<em>N</em>-Acetyltoluene-4-sulfonamide;<em>N</em>-Tosylacetamide;<em>N</em>-Acetyl-<em>p</em>-toluenesulfonamide;NSC 144080;<em>N</em>-Acetyl-4-methylbenzenesulfonamide;<em>N</em>-<em>p</em>-Toluenesulfonylacetamide",
    "duplicated_cas_no": "",
    "SMILES": "S(NC(C)=O)(=O)(=O)C1=CC=C(C)C=C1",
    "meta_data": {
        "InChI": "InChI=1S/C9H11NO3S/c1-7-3-5-9(6-4-7)14(12,13)10-8(2)11/h3-6H,1-2H3,(H,10,11)",
        "InChIKey": null,
        "Canonical SMILES": "O=C(NS(=O)(=O)C1=CC=C(C=C1)C)C",
        "Molecular Formula": "C<sub>9</sub>H<sub>11</sub>NO<sub>3</sub>S",
        "Molecular Mass": "213.25",
        "Melting Point": "139 °C"
    }
}