{
    "cas_no": "407-41-0",
    "key_name": "Phospho-<span class=\"text-smallcaps\">L</span>-serine",
    "cn_name": "L-O-磷酸丝氨酸;",
    "alternate_name": "<span class=\"text-smallcaps\">L</span>-Serine, <em>O</em>-phosphono-;Serine, dihydrogen phosphate (ester), <span class=\"text-smallcaps\">L</span>-;<span class=\"text-smallcaps\">L</span>-Serine, dihydrogen phosphate (ester);Serine phosphate, <span class=\"text-smallcaps\">L</span>-;<em>O</em>-Phosphono-<span class=\"text-smallcaps\">L</span>-serine;<em>O</em>-Phosphorylserine;<span class=\"text-smallcaps\">L</span>-Seryl phosphate;3-<em>O</em>-Phosphoserine;<span class=\"text-smallcaps\">L</span>-Phosphoserine;<em>O</em>-Phospho-<span class=\"text-smallcaps\">L</span>-serine;Serine <em>O</em>-phosphate;<span class=\"text-smallcaps\">L</span>-<em>O</em>-Serine phosphate;<em>O</em>-Phosphoryl-<span class=\"text-smallcaps\">L</span>-serine;Fosforina;<span class=\"text-smallcaps\">L</span>-Serinephosphoric acid;Serine dihydrogen phosphate (ester);<span class=\"text-smallcaps\">L</span>-<em>O</em>-Phosphoserine;Phospho-<span class=\"text-smallcaps\">L</span>-serine;Dexfosfoserine;<span class=\"text-smallcaps\">L</span>-3-Phosphoserine;Seriphos;(<em>S</em>)-2-Amino-3-(phosphonooxy)propanoic acid;(2S)-2-Azaniumyl-3-phosphonooxypropanoate;(2S)-2-Amino-3-(phosphonooxy)propanoic acid",
    "duplicated_cas_no": "1118-86-1;7331-08-0;72909-32-1;474519-60-3;1388265-65-3",
    "SMILES": "C([C@@H](C(O)=O)N)OP(=O)(O)O",
    "meta_data": {
        "InChI": "InChI=1S/C3H8NO6P/c4-2(3(5)6)1-10-11(7,8)9/h2H,1,4H2,(H,5,6)(H2,7,8,9)/t2-/m0/s1",
        "InChIKey": null,
        "Canonical SMILES": "O=C(O)C(N)COP(=O)(O)O",
        "Molecular Formula": "C<sub>3</sub>H<sub>8</sub>NO<sub>6</sub>P",
        "Molecular Mass": "185.07",
        "Melting Point": "166 °C (decomp)"
    }
}