{
    "cas_no": "39746-01-5",
    "key_name": "(3a<em>R</em>,4<em>R</em>,5<em>R</em>,6a<em>S</em>)-5-(Benzoyloxy)hexahydro-2-oxo-2<em>H</em>-cyclopenta[<em>b</em>]furan-4-carboxaldehyde",
    "cn_name": "[3aR(3aa,4a,5b,6aa)]-(-)-5-(苯甲酰氧基)六氢-2-氧代-2H-环戊并[b]呋喃-4-甲醛;",
    "alternate_name": "2<em>H</em>-Cyclopenta[<em>b</em>]furan-4-carboxaldehyde, 5-(benzoyloxy)hexahydro-2-oxo-, (3a<em>R</em>,4<em>R</em>,5<em>R</em>,6a<em>S</em>)-;2<em>H</em>-Cyclopenta[<em>b</em>]furan-4-carboxaldehyde, 5-(benzoyloxy)hexahydro-2-oxo-, [3a<em>R</em>-(3aα,4α,5β,6aα)]-;(3a<em>R</em>,4<em>R</em>,5<em>R</em>,6a<em>S</em>)-5-(Benzoyloxy)hexahydro-2-oxo-2<em>H</em>-cyclopenta[<em>b</em>]furan-4-carboxaldehyde;3β-Benzoyloxy-2β-carboxaldehyde-5α-hydroxy-1α-cyclopentaneacetic acid γ-lactone;(1<em>S</em>,5<em>R</em>,6<em>R</em>,7<em>R</em>)-6-Formyl-7-(benzyloxy)-2-oxabicyclo[3.3.0]octan-3-one;PGX 5;(1<em>S</em>,5<em>R</em>,6<em>R</em>,7<em>R</em>)-6-Formyl-7-benzoyloxy-2-oxabicyclo[3.3.0]octan-3-one;(3<em>a</em>R,4R,5R,6<em>a</em>S)-4-Formyl-2-oxohexahydro-2<em>H</em>-cyclopenta[<em>b</em>]furan-5-yl benzoate",
    "duplicated_cas_no": "50889-24-2",
    "SMILES": "C(=O)[C@@H]1[C@@]2([C@](C[C@H]1OC(=O)C3=CC=CC=C3)(OC(=O)C2)[H])[H]",
    "meta_data": {
        "InChI": "InChI=1S/C15H14O5/c16-8-11-10-6-14(17)19-12(10)7-13(11)20-15(18)9-4-2-1-3-5-9/h1-5,8,10-13H,6-7H2/t10-,11-,12+,13-/m1/s1",
        "InChIKey": null,
        "Canonical SMILES": "O=CC1C(OC(=O)C=2C=CC=CC2)CC3OC(=O)CC31",
        "Molecular Formula": "C<sub>15</sub>H<sub>14</sub>O<sub>5</sub>",
        "Molecular Mass": "274.27",
        "Melting Point": "123.5-125.5 °C"
    }
}