{
    "cas_no": "7787-60-2",
    "key_name": "Bismuth trichloride",
    "cn_name": "氯化铋;三氯化铋;",
    "alternate_name": "Bismuthine, trichloro-;Bismuth chloride (BiCl<sub>3</sub>);Trichlorobismuthine;Bismuth chloride;Bismuth trichloride;Bismuth trichloride (BiCl<sub>3</sub>);Trichlorobismuth;Bismuth(III) chloride",
    "duplicated_cas_no": "",
    "SMILES": "[Bi](Cl)(Cl)Cl",
    "meta_data": {
        "InChI": "InChI=1S/Bi.3ClH/h;3*1H/q+3;;;/p-3",
        "InChIKey": null,
        "Canonical SMILES": "Cl[Bi](Cl)Cl",
        "Molecular Formula": "BiCl<sub>3</sub>",
        "Molecular Mass": "",
        "Boiling Point": "447 °C",
        "Melting Point": "224 °C",
        "Density": "3.87 g/cm³ @ Temp: 250 °C"
    }
}