{
    "cas_no": "35694-06-5",
    "key_name": "2,2′,3,4,4′,5-Hexachlorobiphenyl",
    "cn_name": null,
    "alternate_name": "1,1′-Biphenyl, 2,2′,3,4,4′,5-hexachloro-;2,2′,3,4,4′,5-Hexachloro-1,1′-biphenyl;2,2′,3,4,4′,5-Hexachlorobiphenyl;2,3,4,2′,4′,5-Hexachlorobiphenyl;2,3,4,5,2′,4′-Hexachlorobiphenyl;PCB 137",
    "duplicated_cas_no": "",
    "SMILES": "ClC1=C(C=C(Cl)C(Cl)=C1Cl)C2=C(Cl)C=C(Cl)C=C2",
    "meta_data": {
        "InChI": "InChI=1S/C12H4Cl6/c13-5-1-2-6(8(14)3-5)7-4-9(15)11(17)12(18)10(7)16/h1-4H",
        "InChIKey": null,
        "Canonical SMILES": "ClC=1C=CC(=C(Cl)C1)C2=CC(Cl)=C(Cl)C(Cl)=C2Cl",
        "Molecular Formula": "C<sub>12</sub>H<sub>4</sub>Cl<sub>6</sub>",
        "Molecular Mass": "360.88",
        "Melting Point": "77-79 °C"
    }
}