{
    "cas_no": "7791-25-5",
    "key_name": "Sulfuryl chloride",
    "cn_name": "磺酰氯;硫酰氯;氯化硫酰;二氯化砜;",
    "alternate_name": "Sulfuryl chloride;Sulfuric oxychloride;Sulfuric dichloride;Sulfonyl chloride;Sulfur chloride oxide (SO<sub>2</sub>Cl<sub>2</sub>);Sulfuryl chloride (SO<sub>2</sub>Cl<sub>2</sub>);Sulphuryl chloride;Sulfuryl dichloride;Sulfonyl dichloride;Sulfur chloride oxide (SCl<sub>2</sub>O<sub>2</sub>);Sulfur oxychloride (SO<sub>2</sub>Cl<sub>2</sub>)",
    "duplicated_cas_no": "2366156-91-2;2368184-98-7",
    "SMILES": "S(Cl)(Cl)(=O)=O",
    "meta_data": {
        "InChI": "InChI=1S/Cl2O2S/c1-5(2,3)4",
        "InChIKey": null,
        "Canonical SMILES": "O=S(=O)(Cl)Cl",
        "Molecular Formula": "Cl<sub>2</sub>O<sub>2</sub>S",
        "Molecular Mass": "134.97",
        "Boiling Point": "69.3 °C",
        "Melting Point": "-54.1 °C",
        "Density": "1.6674 g/cm³ @ Temp: 20 °C"
    }
}