{
    "cas_no": "501-81-5",
    "key_name": "3-Pyridineacetic acid",
    "cn_name": "3-吡啶乙酸;吡啶-3-乙酸;",
    "alternate_name": "3-Pyridineacetic acid;3-Pyridylacetic acid;Toneon;Coletin;Lessterol;Lioxone;Minedil;Piridil;Piristerol;2-(3-Pyridyl)acetic acid;α-(3-Pyridyl)acetic acid;Pyridin-3-ylacetic acid;2-(Pyridin-3-yl)acetic acid;3-Carboxymethylpyridine;NSC 70769",
    "duplicated_cas_no": "",
    "SMILES": "C(C(O)=O)C=1C=CC=NC1",
    "meta_data": {
        "InChI": "InChI=1S/C7H7NO2/c9-7(10)4-6-2-1-3-8-5-6/h1-3,5H,4H2,(H,9,10)",
        "InChIKey": null,
        "Canonical SMILES": "O=C(O)CC=1C=NC=CC1",
        "Molecular Formula": "C<sub>7</sub>H<sub>7</sub>NO<sub>2</sub>",
        "Molecular Mass": "137.14",
        "Melting Point": "144 °C"
    }
}