{
    "cas_no": "53207-00-4",
    "key_name": "2-Bromo-4,5-dimethoxybenzyl bromide",
    "cn_name": null,
    "alternate_name": "Benzene, 1-bromo-2-(bromomethyl)-4,5-dimethoxy-;Veratrole, 4-bromo-5-(bromomethyl)-;1-Bromo-2-(bromomethyl)-4,5-dimethoxybenzene;1-Bromo-2-bromomethyl-4,5-dimethoxybenzene;2-Bromo-4,5-dimethoxybenzyl bromide",
    "duplicated_cas_no": "",
    "SMILES": "O(C)C1=C(OC)C=C(Br)C(CBr)=C1",
    "meta_data": {
        "InChI": "InChI=1S/C9H10Br2O2/c1-12-8-3-6(5-10)7(11)4-9(8)13-2/h3-4H,5H2,1-2H3",
        "InChIKey": null,
        "Canonical SMILES": "BrC=1C=C(OC)C(OC)=CC1CBr",
        "Molecular Formula": "C<sub>9</sub>H<sub>10</sub>Br<sub>2</sub>O<sub>2</sub>",
        "Molecular Mass": "309.98",
        "Melting Point": "84.0-85.5 °C"
    }
}