{
    "cas_no": "10297-05-9",
    "key_name": "1-Chloro-4-iodobutane",
    "cn_name": "1-氯-4-碘丁烷;",
    "alternate_name": "Butane, 1-chloro-4-iodo-;1-Chloro-4-iodobutane;1-Iodo-4-chlorobutane;4-Iodobutyl chloride;4-Chloro-1-iodobutane;4-Chlorobutyl iodide;4-Iodo-1-chlorobutane;Tetramethylene chloroiodide",
    "duplicated_cas_no": "",
    "SMILES": "C(CCI)CCl",
    "meta_data": {
        "InChI": "InChI=1S/C4H8ClI/c5-3-1-2-4-6/h1-4H2",
        "InChIKey": null,
        "Canonical SMILES": "ClCCCCI",
        "Molecular Formula": "C<sub>4</sub>H<sub>8</sub>ClI",
        "Molecular Mass": "218.46",
        "Boiling Point": "93.0-94.5 °C @ Press: 17 Torr",
        "Density": "1.7712 g/cm³ @ Temp: 20 °C"
    }
}