{
    "cas_no": "120-07-0",
    "key_name": "<em>N</em>-Phenyldiethanolamine",
    "cn_name": "N,N-二羟乙基苯胺;",
    "alternate_name": "Ethanol, 2,2′-(phenylimino)bis-;Ethanol, 2,2′-(phenylimino)di-;2,2′-(Phenylimino)bis[ethanol];Diethanolaminobenzene;Diethanolaniline;<em>N</em>,<em>N</em>-Di(2-hydroxyethyl)aniline;2,2′-(Phenylimino)diethanol;<em>N</em>-Phenyldiethanolamine;Phenyldiethanolamine;<em>N</em>,<em>N</em>-Di(β-hydroxyethyl)aniline;<em>N</em>,<em>N</em>-Bis(2-hydroxyethyl)aniline;Phenylbis(2-hydroxyethyl)amine;<em>N</em>,<em>N</em>-Diethanolaniline;<em>N</em>-Phenyl-<em>N</em>,<em>N</em>-diethanolamine;Diethanolphenylamine;<em>N</em>,<em>N</em>-Bis(β-hydroxyethyl)aniline;[Bis(2-hydroxyethyl)amino]benzene;<em>N</em>-Phenyliminodiethanol;3-Phenyl-3-azapentane-1,5-diol;NSC 6327;2-[(2-Hydroxyethyl)phenylamino]ethanol;<em>N</em>,<em>N</em>-Dihydroxyethylaniline;<em>N</em>,<em>N</em>-Bis(2-hydroxyethyl)-<em>N</em>-phenylamine;Bis(2-hydroxyethyl)aniline;2,2′-(Phenylazanediyl)diethanol;2-[<em>N</em>-(2-Hydroxyethyl)anilino]ethanol;2-[(2-Hydroxyethyl)(phenyl)amino]ethan-1-ol",
    "duplicated_cas_no": "",
    "SMILES": "N(CCO)(CCO)C1=CC=CC=C1",
    "meta_data": {
        "InChI": "InChI=1S/C10H15NO2/c12-8-6-11(7-9-13)10-4-2-1-3-5-10/h1-5,12-13H,6-9H2",
        "InChIKey": null,
        "Canonical SMILES": "OCCN(C=1C=CC=CC1)CCO",
        "Molecular Formula": "C<sub>10</sub>H<sub>15</sub>NO<sub>2</sub>",
        "Molecular Mass": "181.23",
        "Boiling Point": "200 °C",
        "Melting Point": "57 °C"
    }
}