{
    "cas_no": "740-57-8",
    "key_name": "Phenylalanine β-naphthylamide",
    "cn_name": "L-苯丙氨酸-β-萘酰胺;",
    "alternate_name": "Benzenepropanamide, α-amino-<em>N</em>-2-naphthalenyl-, (α<em>S</em>)-;Hydrocinnamamide, α-amino-<em>N</em>-2-naphthyl-, <span class=\"text-smallcaps\">L</span>-;Benzenepropanamide, α-amino-<em>N</em>-2-naphthalenyl-, (<em>S</em>)-;(α<em>S</em>)-α-Amino-<em>N</em>-2-naphthalenylbenzenepropanamide;<span class=\"text-smallcaps\">L</span>-Phenylalanyl-β-naphthylamide;Phenylalanyl-β-naphthylamide;<em>N</em>-<span class=\"text-smallcaps\">L</span>-Phenylalanyl-2-naphthylamide;Phenylalanine β-naphthylamide;<span class=\"text-smallcaps\">L</span>-Phenylalanine-β-naphthylamide;<span class=\"text-smallcaps\">L</span>-Phenylalanine-2-naphthylamide",
    "duplicated_cas_no": "",
    "SMILES": "N(C([C@H](CC1=CC=CC=C1)N)=O)C2=CC3=C(C=C2)C=CC=C3",
    "meta_data": {
        "InChI": "InChI=1S/C19H18N2O/c20-18(12-14-6-2-1-3-7-14)19(22)21-17-11-10-15-8-4-5-9-16(15)13-17/h1-11,13,18H,12,20H2,(H,21,22)/t18-/m0/s1",
        "InChIKey": null,
        "Canonical SMILES": "O=C(NC=1C=CC=2C=CC=CC2C1)C(N)CC=3C=CC=CC3",
        "Molecular Formula": "C<sub>19</sub>H<sub>18</sub>N<sub>2</sub>O",
        "Molecular Mass": "290.36",
        "Melting Point": "102-103 °C"
    }
}