{
    "cas_no": "34598-49-7",
    "key_name": "5-Bromo-1-indanone",
    "cn_name": "5-溴茚酮;5-溴-1-茚酮;",
    "alternate_name": "1<em>H</em>-Inden-1-one, 5-bromo-2,3-dihydro-;1-Indanone, 5-bromo-;5-Bromo-2,3-dihydro-1<em>H</em>-inden-1-one;5-Bromoindanone;5-Bromo-1-indanone;5-Bromo-2,3-dihydroinden-1-one;5-Bromo-2,3-indan-1-one",
    "duplicated_cas_no": "",
    "SMILES": "O=C1C=2C(CC1)=CC(Br)=CC2",
    "meta_data": {
        "InChI": "InChI=1S/C9H7BrO/c10-7-2-3-8-6(5-7)1-4-9(8)11/h2-3,5H,1,4H2",
        "InChIKey": null,
        "Canonical SMILES": "O=C1C2=CC=C(Br)C=C2CC1",
        "Molecular Formula": "C<sub>9</sub>H<sub>7</sub>BrO",
        "Molecular Mass": "211.06",
        "Melting Point": "126 °C"
    }
}