{
    "cas_no": "1007-36-9",
    "key_name": "<em>N</em>-Methyl-<em>N</em>′-phenylurea",
    "cn_name": "N-甲-N-苯脲;N-甲-N-苯脲;",
    "alternate_name": "Urea, <em>N</em>-methyl-<em>N</em>′-phenyl-;Urea, 1-methyl-3-phenyl-;<em>N</em>-Methyl-<em>N</em>′-phenylurea;3-Phenyl-1-methylurea;1-Methyl-3-phenylurea;<em>N</em>-Phenyl-<em>N</em>′-methylurea;Defenuron;FL 174;Defenuron 92;1-Phenyl-3-methylurea;IPO 4328;Desfenuron;3-Methyl-1-phenylurea;Desphenuron;NSC 10989",
    "duplicated_cas_no": "",
    "SMILES": "N(C(NC)=O)C1=CC=CC=C1",
    "meta_data": {
        "InChI": "InChI=1S/C8H10N2O/c1-9-8(11)10-7-5-3-2-4-6-7/h2-6H,1H3,(H2,9,10,11)",
        "InChIKey": null,
        "Canonical SMILES": "O=C(NC=1C=CC=CC1)NC",
        "Molecular Formula": "C<sub>8</sub>H<sub>10</sub>N<sub>2</sub>O",
        "Molecular Mass": "150.18",
        "Melting Point": "150 °C"
    }
}