{
    "cas_no": "16883-69-5",
    "key_name": "Phenacylpyridinium bromide",
    "cn_name": "N-(苄甲基)溴化吡啶;",
    "alternate_name": "Pyridinium, 1-(2-oxo-2-phenylethyl)-, bromide (1:1);Pyridinium, 1-phenacyl-, bromide;Pyridinium, 1-(2-oxo-2-phenylethyl)-, bromide;1-Phenacylpyridinium bromide;Phenacylpyridinium bromide;<em>N</em>-Phenacylpyridinium bromide;<em>N</em>-(2-Phenyl-2-oxoethyl)pyridinium bromide;1-(2-Oxo-2-phenylethyl)pyridinium bromide;<em>N</em>-(Benzoylmethyl)pyridinium bromide;<em>N</em>-(2-Oxo-2-phenylethyl)pyridinium bromide;1-(2-Oxo-2-phenylethyl)pyridin-1-ium bromide",
    "duplicated_cas_no": "",
    "SMILES": "C(C[N+]=1C=CC=CC1)(=O)C2=CC=CC=C2.[Br-]",
    "meta_data": {
        "InChI": "InChI=1S/C13H12NO.BrH/c15-13(12-7-3-1-4-8-12)11-14-9-5-2-6-10-14;/h1-10H,11H2;1H/q+1;/p-1",
        "InChIKey": null,
        "Canonical SMILES": "[Br-].O=C(C=1C=CC=CC1)C[N+]=2C=CC=CC2",
        "Molecular Formula": "C<sub>13</sub>H<sub>12</sub>NO.Br",
        "Molecular Mass": "",
        "Melting Point": "199-200 °C (decomp)"
    }
}