{
    "cas_no": "56586-13-1",
    "key_name": "2-Methylcyclohexanecarboxylic acid",
    "cn_name": null,
    "alternate_name": "Cyclohexanecarboxylic acid, 2-methyl-;2-Methylcyclohexanecarboxylic acid;2-Methyl-1-cyclohexanecarboxylic acid",
    "duplicated_cas_no": "",
    "SMILES": "C(O)(=O)C1C(C)CCCC1",
    "meta_data": {
        "InChI": "InChI=1S/C8H14O2/c1-6-4-2-3-5-7(6)8(9)10/h6-7H,2-5H2,1H3,(H,9,10)",
        "InChIKey": null,
        "Canonical SMILES": "O=C(O)C1CCCCC1C",
        "Molecular Formula": "C<sub>8</sub>H<sub>14</sub>O<sub>2</sub>",
        "Molecular Mass": "142.20",
        "Boiling Point": "101-102 °C @ Press: 2 Torr",
        "Melting Point": "79-80 °C"
    }
}