{
    "cas_no": "36112-95-5",
    "key_name": "Propranolol glycol",
    "cn_name": null,
    "alternate_name": "1,2-Propanediol, 3-(1-naphthalenyloxy)-;1,2-Propanediol, 3-(1-naphthyloxy)-;3-(1-Naphthalenyloxy)-1,2-propanediol;Propranolol glycol;1-(α-Naphthoxy)-2,3-propylene glycol;3-(α-Naphthoxy)-1,2-propanediol;3-(α-Naphthoxy)-1,2-propylene glycol",
    "duplicated_cas_no": "83314-77-6;88547-42-6",
    "SMILES": "O(CC(CO)O)C=1C2=C(C=CC1)C=CC=C2",
    "meta_data": {
        "InChI": "InChI=1S/C13H14O3/c14-8-11(15)9-16-13-7-3-5-10-4-1-2-6-12(10)13/h1-7,11,14-15H,8-9H2",
        "InChIKey": null,
        "Canonical SMILES": "OCC(O)COC1=CC=CC=2C=CC=CC12",
        "Molecular Formula": "C<sub>13</sub>H<sub>14</sub>O<sub>3</sub>",
        "Molecular Mass": "218.25",
        "Melting Point": "92 °C"
    }
}