{
    "cas_no": "348-27-6",
    "key_name": "2-Fluoro-4-hydroxybenzaldehyde",
    "cn_name": "2-氟-4-羟基苯甲醛;",
    "alternate_name": "Benzaldehyde, 2-fluoro-4-hydroxy-;2-Fluoro-4-hydroxybenzaldehyde;3-Fluoro-4-formylphenol",
    "duplicated_cas_no": "",
    "SMILES": "C(=O)C1=C(F)C=C(O)C=C1",
    "meta_data": {
        "InChI": "InChI=1S/C7H5FO2/c8-7-3-6(10)2-1-5(7)4-9/h1-4,10H",
        "InChIKey": null,
        "Canonical SMILES": "O=CC1=CC=C(O)C=C1F",
        "Molecular Formula": "C<sub>7</sub>H<sub>5</sub>FO<sub>2</sub>",
        "Molecular Mass": "140.11",
        "Melting Point": "165 °C"
    }
}