{
    "cas_no": "7077-05-6",
    "key_name": "<em>trans</em>-4-(1-Methylethyl)cyclohexanecarboxylic acid",
    "cn_name": "反式对异丙基环己基甲酸;",
    "alternate_name": "Cyclohexanecarboxylic acid, 4-(1-methylethyl)-, <em>trans</em>-;Cyclohexanecarboxylic acid, 4-isopropyl-, <em>trans</em>-;<em>trans</em>-4-(1-Methylethyl)cyclohexanecarboxylic acid;<em>trans</em>-<em>p</em>-Menthan-7-oic acid;<em>trans</em>-4-Isopropylcyclohexanecarboxylic acid",
    "duplicated_cas_no": "",
    "SMILES": "C(C)(C)[C@H]1CC[C@H](C(O)=O)CC1",
    "meta_data": {
        "InChI": "InChI=1/C10H18O2/c1-7(2)8-3-5-9(6-4-8)10(11)12/h7-9H,3-6H2,1-2H3,(H,11,12)/t8-,9-",
        "InChIKey": null,
        "Canonical SMILES": "O=C(O)C1CCC(CC1)C(C)C",
        "Molecular Formula": "C<sub>10</sub>H<sub>18</sub>O<sub>2</sub>",
        "Molecular Mass": "170.25",
        "Melting Point": "94.0-94.5 °C"
    }
}