{
    "cas_no": "103-04-8",
    "key_name": "(Phenylthio)acetic acid",
    "cn_name": "苯硫代乙酸;",
    "alternate_name": "Acetic acid, 2-(phenylthio)-;Acetic acid, (phenylthio)-;2-(Phenylthio)acetic acid;α-Carboxythioanisole;(Phenylthio)acetic acid;Phenylmercaptoacetic acid;Carboxymethyl phenyl sulfide;Phenylthioglycolic acid;(<em>S</em>-Phenylmercapto)acetic acid;Thiophenoxyacetic acid;2-(Phenylsulfanyl)acetic acid;NSC 9582",
    "duplicated_cas_no": "",
    "SMILES": "S(CC(O)=O)C1=CC=CC=C1",
    "meta_data": {
        "InChI": "InChI=1S/C8H8O2S/c9-8(10)6-11-7-4-2-1-3-5-7/h1-5H,6H2,(H,9,10)",
        "InChIKey": null,
        "Canonical SMILES": "O=C(O)CSC=1C=CC=CC1",
        "Molecular Formula": "C<sub>8</sub>H<sub>8</sub>O<sub>2</sub>S",
        "Molecular Mass": "168.21",
        "Melting Point": "65 °C"
    }
}