{
    "cas_no": "2655-27-8",
    "key_name": "<em>N</em>-Pentylbenzenamine",
    "cn_name": "N-戊基苯胺;",
    "alternate_name": "Benzenamine, <em>N</em>-pentyl-;Aniline, <em>N</em>-pentyl-;<em>N</em>-Pentylbenzenamine;<em>N</em>-Amylaniline;<em>N</em>-Pentylaniline;<em>N</em>-<em>n</em>-Amylaniline",
    "duplicated_cas_no": "",
    "SMILES": "N(CCCCC)C1=CC=CC=C1",
    "meta_data": {
        "InChI": "InChI=1S/C11H17N/c1-2-3-7-10-12-11-8-5-4-6-9-11/h4-6,8-9,12H,2-3,7,10H2,1H3",
        "InChIKey": null,
        "Canonical SMILES": "C=1C=CC(=CC1)NCCCCC",
        "Molecular Formula": "C<sub>11</sub>H<sub>17</sub>N",
        "Molecular Mass": "163.26",
        "Boiling Point": "260-262 °C"
    }
}