{
    "cas_no": "83524-75-8",
    "key_name": "Pigment Black 32",
    "cn_name": null,
    "alternate_name": "Anthra[2,1,9-<em>def</em>:6,5,10-<em>d</em>'<em>e</em>'<em>f</em>′]diisoquinoline-1,3,8,10(2<em>H</em>,9<em>H</em>)-tetrone, 2,9-bis[(4-methoxyphenyl)methyl]-;2,9-Bis[(4-methoxyphenyl)methyl]anthra[2,1,9-<em>def</em>:6,5,10-<em>d</em>'<em>e</em>'<em>f</em>′]diisoquinoline-1,3,8,10(2<em>H</em>,9<em>H</em>)-tetrone;<em>N</em>,<em>N</em>′-Bis(4-methoxybenzyl)perylene-3,4:9,10-bis(dicarboximide);C.I. 71133;C.I. Pigment Black 32;Pigment Black 32;Paliogen Black L 0086;PDI-32;HPP Black 8230;N,N′-Bis(4-methoxybenzyl)perylene-3,4,9,10-bis(dicarboximide);Black L 0086;2,9-Bis(4-methoxybenzyl)anthra[2,1,9-<em>def</em>:6,5,10-<em>d</em>'<em>e</em>'<em>f</em>′]diisoquinoline-1,3,8,10(2<em>H</em>,9<em>H</em>)-tetraone;Perylene Black 32;Spectrasense Black 0086",
    "duplicated_cas_no": "153343-36-3",
    "SMILES": "O=C1C=2C3=C4C(C=5C=6C(C4=CC2)=CC=C7C6C(=CC5)C(=O)N(CC8=CC=C(OC)C=C8)C7=O)=CC=C3C(=O)N1CC9=CC=C(OC)C=C9",
    "meta_data": {
        "InChI": "InChI=1S/C40H26N2O6/c1-47-23-7-3-21(4-8-23)19-41-37(43)29-15-11-25-27-13-17-31-36-32(40(46)42(39(31)45)20-22-5-9-24(48-2)10-6-22)18-14-28(34(27)36)26-12-16-30(38(41)44)35(29)33(25)26/h3-18H,19-20H2,1-2H3",
        "InChIKey": null,
        "Canonical SMILES": "O=C1C2=CC=C3C4=CC=C5C(=O)N(C(=O)C6=CC=C(C=7C=CC(C(=O)N1CC8=CC=C(OC)C=C8)=C2C37)C4=C56)CC9=CC=C(OC)C=C9",
        "Molecular Formula": "C<sub>40</sub>H<sub>26</sub>N<sub>2</sub>O<sub>6</sub>",
        "Molecular Mass": "630.64",
        "Melting Point": "187-188 °C"
    }
}