{
    "cas_no": "6319-06-8",
    "key_name": "5-Norbornene-2,3-dicarboximide, <em>exo</em>-",
    "cn_name": null,
    "alternate_name": "5-Norbornene-2,3-dicarboximide, <em>exo</em>-;4,7-Methano-1<em>H</em>-isoindole-1,3(2<em>H</em>)-dione, 3a,4,7,7a-tetrahydro-, (3aα,4β,7β,7aα)-;(<em>cis</em>-<em>exo</em>)-5-Norbornene-2,3-dicarboximide;Noreximide;NSC 31978;<em>exo</em>-Norbornene-2,3-dicarboximide",
    "duplicated_cas_no": "1309363-55-0;1846560-25-5",
    "SMILES": "O=C1[C@@]2([C@@]([C@@]3(C[C@]2(C=C3)[H])[H])(C(=O)N1)[H])[H]",
    "meta_data": {
        "InChI": "InChI=1/C9H9NO2/c11-8-6-4-1-2-5(3-4)7(6)9(12)10-8/h1-2,4-7H,3H2,(H,10,11,12)/t4-,5+,6+,7-",
        "InChIKey": null,
        "Canonical SMILES": "O=C1NC(=O)C2C3C=CC(C3)C12",
        "Molecular Formula": "C<sub>9</sub>H<sub>9</sub>NO<sub>2</sub>",
        "Molecular Mass": "163.17",
        "Melting Point": "161-162 °C"
    }
}