{
    "cas_no": "929-10-2",
    "key_name": "6-Methylheptanoic acid",
    "cn_name": null,
    "alternate_name": "Heptanoic acid, 6-methyl-;6-Methylheptanoic acid;Isocaprylic acid;<em>iso</em>-Caprylic acid",
    "duplicated_cas_no": "",
    "SMILES": "C(CCC(O)=O)CC(C)C",
    "meta_data": {
        "InChI": "InChI=1S/C8H16O2/c1-7(2)5-3-4-6-8(9)10/h7H,3-6H2,1-2H3,(H,9,10)",
        "InChIKey": null,
        "Canonical SMILES": "O=C(O)CCCCC(C)C",
        "Molecular Formula": "C<sub>8</sub>H<sub>16</sub>O<sub>2</sub>",
        "Molecular Mass": "144.21",
        "Boiling Point": "126-127 °C @ Press: 14 Torr"
    }
}