{
    "cas_no": "1447-88-7",
    "key_name": "Hispidulin",
    "cn_name": "高车前素;高车前素;",
    "alternate_name": "4<em>H</em>-1-Benzopyran-4-one, 5,7-dihydroxy-2-(4-hydroxyphenyl)-6-methoxy-;Flavone, 4′,5,7-trihydroxy-6-methoxy-;5,7-Dihydroxy-2-(4-hydroxyphenyl)-6-methoxy-4<em>H</em>-1-benzopyran-4-one;Dinatin;Hispidulin;4′,5,7-Trihydroxy-6-methoxyflavone;5,7,4′-Trihydroxy-6-methoxyflavone;6-Methoxyapigenin;Salvitin;6-Methoxy-5,7,4′-trihydroxyflavone;Scutellarein 6-methyl ether;Hispedulin;NSC 122415;6-Methylscutellarein;Hispiludin;6-<em>O</em>-Methylscutellarein",
    "duplicated_cas_no": "",
    "SMILES": "OC1=C2C(OC(=CC2=O)C3=CC=C(O)C=C3)=CC(O)=C1OC",
    "meta_data": {
        "InChI": "InChI=1S/C16H12O6/c1-21-16-11(19)7-13-14(15(16)20)10(18)6-12(22-13)8-2-4-9(17)5-3-8/h2-7,17,19-20H,1H3",
        "InChIKey": null,
        "Canonical SMILES": "O=C1C=C(OC2=CC(O)=C(OC)C(O)=C12)C=3C=CC(O)=CC3",
        "Molecular Formula": "C<sub>16</sub>H<sub>12</sub>O<sub>6</sub>",
        "Molecular Mass": "300.26",
        "Melting Point": "291-292 °C"
    }
}