{
    "cas_no": "27129-87-9",
    "key_name": "3,5-Dimethylbenzyl alcohol",
    "cn_name": "3,5-二甲基苯甲醇;",
    "alternate_name": "Benzenemethanol, 3,5-dimethyl-;Benzyl alcohol, 3,5-dimethyl-;3,5-Dimethylbenzenemethanol;3,5-Dimethylbenzyl alcohol;(3,5-Dimethylphenyl)methanol;1-(Hydroxymethyl)-3,5-dimethylbenzene",
    "duplicated_cas_no": "",
    "SMILES": "C(O)C1=CC(C)=CC(C)=C1",
    "meta_data": {
        "InChI": "InChI=1S/C9H12O/c1-7-3-8(2)5-9(4-7)6-10/h3-5,10H,6H2,1-2H3",
        "InChIKey": null,
        "Canonical SMILES": "OCC=1C=C(C=C(C1)C)C",
        "Molecular Formula": "C<sub>9</sub>H<sub>12</sub>O",
        "Molecular Mass": "136.19",
        "Boiling Point": "219.5 °C"
    }
}