{
    "cas_no": "27757-85-3",
    "key_name": "2-Thiophenemethanamine",
    "cn_name": null,
    "alternate_name": "2-Thiophenemethanamine;2-Thenylamine;2-Thiophenemethylamine;2-Aminomethylthiophene;2-Thienylmethylamine;(Thiophen-2-ylmethyl)amine;<em>N</em>-(Thien-2-ylmethyl)amine;1-(Thien-2-yl)methanamine;Thiophen-2-ylmethanamine;1-(Thiophen-2-yl)methanamine;(Thien-2-yl)methanamine",
    "duplicated_cas_no": "",
    "SMILES": "C(N)C1=CC=CS1",
    "meta_data": {
        "InChI": "InChI=1S/C5H7NS/c6-4-5-2-1-3-7-5/h1-3H,4,6H2",
        "InChIKey": null,
        "Canonical SMILES": "S1C=CC=C1CN",
        "Molecular Formula": "C<sub>5</sub>H<sub>7</sub>NS",
        "Molecular Mass": "113.18",
        "Boiling Point": "77 °C",
        "Density": "1.1370 g/cm³ @ Temp: 15 °C"
    }
}