{
    "cas_no": "32503-27-8",
    "key_name": "Tetrabutylammonium hydrogen sulfate",
    "cn_name": "四丁基硫酸氢铵;",
    "alternate_name": "1-Butanaminium, <em>N</em>,<em>N</em>,<em>N</em>-tributyl-, sulfate (1:1);Ammonium, tetrabutyl-, sulfate (1:1);Tetrabutylammonium hydrogen sulfate;Tetrabutylammonium bisulfate;Tetrabutylammonium hydrosulfate;Tetra-<em>n</em>-butylammonium hydrogen sulfate;TBAHS-MB",
    "duplicated_cas_no": "1393673-85-2",
    "SMILES": "S(=O)(=O)([O-])O.[N+](CCCC)(CCCC)(CCCC)CCCC",
    "meta_data": {
        "InChI": "InChI=1S/C16H36N.H2O4S/c1-5-9-13-17(14-10-6-2,15-11-7-3)16-12-8-4;1-5(2,3)4/h5-16H2,1-4H3;(H2,1,2,3,4)/q+1;/p-1",
        "InChIKey": null,
        "Canonical SMILES": "O=S(=O)([O-])O.CCCC[N+](CCCC)(CCCC)CCCC",
        "Molecular Formula": "C<sub>16</sub>H<sub>36</sub>N.HO<sub>4</sub>S",
        "Molecular Mass": "",
        "Melting Point": "170-171 °C"
    }
}