{
    "cas_no": "2901-77-1",
    "key_name": "<em>N</em>-Acetyl-<span class=\"text-smallcaps\">DL</span>-tyrosine",
    "cn_name": null,
    "alternate_name": "Tyrosine, <em>N</em>-acetyl-;Tyrosine, <em>N</em>-acetyl-, <span class=\"text-smallcaps\">DL</span>-;<span class=\"text-smallcaps\">DL</span>-Tyrosine, <em>N</em>-acetyl-;<em>N</em>-Acetyltyrosine;<em>N</em>-Acetyl-<span class=\"text-smallcaps\">DL</span>-tyrosine;2-Acetamido-3-(4-hydroxyphenyl)propanoic acid",
    "duplicated_cas_no": "7760-23-8",
    "SMILES": "C(C(NC(C)=O)C(O)=O)C1=CC=C(O)C=C1",
    "meta_data": {
        "InChI": "InChI=1S/C11H13NO4/c1-7(13)12-10(11(15)16)6-8-2-4-9(14)5-3-8/h2-5,10,14H,6H2,1H3,(H,12,13)(H,15,16)",
        "InChIKey": null,
        "Canonical SMILES": "O=C(O)C(NC(=O)C)CC1=CC=C(O)C=C1",
        "Molecular Formula": "C<sub>11</sub>H<sub>13</sub>NO<sub>4</sub>",
        "Molecular Mass": "223.23",
        "Melting Point": "90 °C"
    }
}