{
    "cas_no": "62336-24-7",
    "key_name": "(2-Bromophenyl)diphenylphosphine",
    "cn_name": null,
    "alternate_name": "Phosphine, (2-bromophenyl)diphenyl-;Phosphine, (<em>o</em>-bromophenyl)diphenyl-;(2-Bromophenyl)diphenylphosphine;(<em>o</em>-Bromophenyl)diphenylphosphine;2-(Diphenylphosphino)-1-bromobenzene;1-Bromo-2-(diphenylphosphino)benzene;2-(Diphenylphosphino)phenyl bromide;2-(Diphenylphosphino)bromobenzene;(2-Bromophenyl)-diphenylphosphane",
    "duplicated_cas_no": "",
    "SMILES": "P(C1=C(Br)C=CC=C1)(C2=CC=CC=C2)C3=CC=CC=C3",
    "meta_data": {
        "InChI": "InChI=1S/C18H14BrP/c19-17-13-7-8-14-18(17)20(15-9-3-1-4-10-15)16-11-5-2-6-12-16/h1-14H",
        "InChIKey": null,
        "Canonical SMILES": "BrC=1C=CC=CC1P(C=2C=CC=CC2)C=3C=CC=CC3",
        "Molecular Formula": "C<sub>18</sub>H<sub>14</sub>BrP",
        "Molecular Mass": "341.18",
        "Melting Point": "115 °C"
    }
}