{
    "cas_no": "8006-64-2",
    "key_name": "Turpentine oil",
    "cn_name": null,
    "alternate_name": "Turpentine oil;Turpentine, oil;Turpentine, Turpentine oil;Turpentine spirits;Oil of turpentine;Terpentine oil;Gum turpentine, oils;G 4134;Essential oils, turpentine;Spirits of turpentine;Gum Terpene N;Oleum terebinthinae;Terebinth oil",
    "duplicated_cas_no": "8052-40-2",
    "SMILES": "",
    "meta_data": {
        "InChI": "",
        "InChIKey": null,
        "Canonical SMILES": "",
        "Molecular Formula": "Unspecified",
        "Molecular Mass": "",
        "Boiling Point": "154-170 °C",
        "Melting Point": "-60--50 °C",
        "Density": "0.854-0.868 g/cm³ @ Temp: 25 °C"
    }
}