{
    "uri": "substance/pt/8006642",
    "rn": "8006-64-2",
    "name": "Turpentine oil",
    "images": [],
    "inchi": "",
    "inchiKey": "",
    "smile": "",
    "canonicalSmile": "",
    "molecularFormula": "Unspecified",
    "molecularMass": "",
    "experimentalProperties": [
        {
            "name": "Boiling Point",
            "property": "154-170 °C",
            "sourceNumber": 1
        },
        {
            "name": "Melting Point",
            "property": "-60--50 °C",
            "sourceNumber": 2
        },
        {
            "name": "Density",
            "property": "0.854-0.868 g/cm³ @ Temp: 25 °C",
            "sourceNumber": 1
        }
    ],
    "propertyCitations": [
        {
            "docUri": "",
            "sourceNumber": 1,
            "source": "Hazardous Substances Data Bank data were obtained from the National Library of Medicine (US)"
        },
        {
            "docUri": "",
            "sourceNumber": 2,
            "source": "International Chemical Safety Cards data were obtained from the National Institute for Occupational Safety and Health (US)"
        }
    ],
    "synonyms": [
        "Turpentine oil",
        "Turpentine, oil",
        "Turpentine, Turpentine oil",
        "Turpentine spirits",
        "Oil of turpentine",
        "Terpentine oil",
        "Gum turpentine, oils",
        "G 4134",
        "Essential oils, turpentine",
        "Spirits of turpentine",
        "Gum Terpene N",
        "Oleum terebinthinae",
        "Terebinth oil"
    ],
    "replacedRns": [
        "8052-40-2"
    ],
    "hasMolfile": false,
    "source": "https://commonchemistry.cas.org/detail?cas_rn=8006-64-2"
}