{
    "cas_no": "119-33-5",
    "key_name": "4-Methyl-2-nitrophenol",
    "cn_name": "2-硝基-4-甲苯酚;4-甲基-2-硝基苯酚;邻硝基对甲基苯酚;邻硝基对甲酚;",
    "alternate_name": "Phenol, 4-methyl-2-nitro-;<em>p</em>-Cresol, 2-nitro-;4-Methyl-2-nitrophenol;2-Nitro-<em>p</em>-cresol;4-Hydroxy-3-nitrotoluene;2-Nitro-4-methylphenol;<em>o</em>-Nitro-<em>p</em>-methylphenol;NSC 5387;NSC 66511",
    "duplicated_cas_no": "",
    "SMILES": "N(=O)(=O)C1=C(O)C=CC(C)=C1",
    "meta_data": {
        "InChI": "InChI=1S/C7H7NO3/c1-5-2-3-7(9)6(4-5)8(10)11/h2-4,9H,1H3",
        "InChIKey": null,
        "Canonical SMILES": "O=N(=O)C1=CC(=CC=C1O)C",
        "Molecular Formula": "C<sub>7</sub>H<sub>7</sub>NO<sub>3</sub>",
        "Molecular Mass": "153.14",
        "Boiling Point": "125 °C",
        "Melting Point": "36.5 °C",
        "Density": "1.2399 g/cm³ @ Temp: 38.60001953125 °C"
    }
}