{
    "cas_no": "134-80-5",
    "key_name": "Diethylpropion hydrochloride",
    "cn_name": "盐酸安非拉酮;盐酸二乙胺苯丙酮;",
    "alternate_name": "1-Propanone, 2-(diethylamino)-1-phenyl-, hydrochloride (1:1);Propiophenone, 2-(diethylamino)-, hydrochloride;1-Propanone, 2-(diethylamino)-1-phenyl-, hydrochloride;Amphepramonum hydrochloride;α-Benzoyltriethylamine hydrochloride;α-Benzoyltriethylammonium chloride;2-(Diethylamino)propiophenone hydrochloride;Diethylpropione hydrochloride;Diethylpropion hydrochloride;1-Phenyl-2-(diethylamino)propanone-1 hydrochloride;Regenon hydrochloride;Tenuate;Tenuate hydrochloride;Amfepramon hydrochloride;α-(Diethylamino)propiophenone hydrochloride;Fepranon;Phepranon;Tenuate-Dospan;Moderatan;Modulor;Prefamone;Regenon;Parabolin;Danylen;Anorex;Dobesin;Keramik;Frekentine;Tepanil;Tylinal;Keramin;Anfamon;<em>N</em>,<em>N</em>-Diethylcathinone hydrochloride;2-(Diethylamino)-1-phenylpropan-1-one hydrochloride",
    "duplicated_cas_no": "4830-79-9",
    "SMILES": "C(C(N(CC)CC)C)(=O)C1=CC=CC=C1.Cl",
    "meta_data": {
        "InChI": "InChI=1S/C13H19NO.ClH/c1-4-14(5-2)11(3)13(15)12-9-7-6-8-10-12;/h6-11H,4-5H2,1-3H3;1H",
        "InChIKey": null,
        "Canonical SMILES": "Cl.O=C(C=1C=CC=CC1)C(N(CC)CC)C",
        "Molecular Formula": "C<sub>13</sub>H<sub>19</sub>NO.ClH",
        "Molecular Mass": "",
        "Melting Point": "168 °C (decomp)"
    }
}