{
    "cas_no": "25775-90-0",
    "key_name": "Zucapsaicin",
    "cn_name": "(Z)-辣椒素;(Z)-辣椒碱;(Z)-N-(4-羟基-3-甲氧基苄基)-8-甲基-6-壬烯酰胺;",
    "alternate_name": "6-Nonenamide, <em>N</em>-[(4-hydroxy-3-methoxyphenyl)methyl]-8-methyl-, (6<em>Z</em>)-;6-Nonenamide, 8-methyl-<em>N</em>-vanillyl-, (<em>Z</em>)-;6-Nonenamide, <em>N</em>-[(4-hydroxy-3-methoxyphenyl)methyl]-8-methyl-, (<em>Z</em>)-;(6<em>Z</em>)-<em>N</em>-[(4-Hydroxy-3-methoxyphenyl)methyl]-8-methyl-6-nonenamide;<em>cis</em>-Capsaicin;Capsaicin, <em>cis</em>-;Zucapsaicin;(<em>Z</em>)-8-Methyl-<em>N</em>-vanillyl-6-nonenamide;Civamide;(<em>Z</em>)-Capsaicin",
    "duplicated_cas_no": "",
    "SMILES": "C(NC(CCCC/C=C\\C(C)C)=O)C1=CC(OC)=C(O)C=C1",
    "meta_data": {
        "InChI": "InChI=1S/C18H27NO3/c1-14(2)8-6-4-5-7-9-18(21)19-13-15-10-11-16(20)17(12-15)22-3/h6,8,10-12,14,20H,4-5,7,9,13H2,1-3H3,(H,19,21)/b8-6-",
        "InChIKey": null,
        "Canonical SMILES": "O=C(NCC1=CC=C(O)C(OC)=C1)CCCCC=CC(C)C",
        "Molecular Formula": "C<sub>18</sub>H<sub>27</sub>NO<sub>3</sub>",
        "Molecular Mass": "305.41",
        "Melting Point": "70 °C"
    }
}