{
    "cas_no": "5866-98-8",
    "key_name": "2,6-Dichloro-3-nitrobenzonitrile",
    "cn_name": null,
    "alternate_name": "Benzonitrile, 2,6-dichloro-3-nitro-;2,6-Dichloro-3-nitrobenzonitrile;3-Nitro-2,6-dichlorobenzonitrile",
    "duplicated_cas_no": "",
    "SMILES": "C(#N)C1=C(Cl)C(N(=O)=O)=CC=C1Cl",
    "meta_data": {
        "InChI": "InChI=1S/C7H2Cl2N2O2/c8-5-1-2-6(11(12)13)7(9)4(5)3-10/h1-2H",
        "InChIKey": null,
        "Canonical SMILES": "N#CC=1C(Cl)=CC=C(C1Cl)N(=O)=O",
        "Molecular Formula": "C<sub>7</sub>H<sub>2</sub>Cl<sub>2</sub>N<sub>2</sub>O<sub>2</sub>",
        "Molecular Mass": "217.01",
        "Melting Point": "106-107 °C"
    }
}