{
    "cas_no": "16858-01-8",
    "key_name": "Tris(2-pyridylmethyl)amine",
    "cn_name": null,
    "alternate_name": "2-Pyridinemethanamine, <em>N</em>,<em>N</em>-bis(2-pyridinylmethyl)-;Pyridine, 2,2′,2′′-[nitrilotris(methylene)]tri-;<em>N</em>,<em>N</em>-Bis(2-pyridinylmethyl)-2-pyridinemethanamine;Tris(2-pyridylmethyl)amine;Tris(2-pyridinylmethyl)amine;NSC 663674;(Tris(pyridin-2-ylmethyl)amine);1-(Pyridin-2-yl)-<em>N</em>,<em>N</em>-bis(pyridin-2-ylmethyl)methanamine;1-Pyridin-2-yl-<em>N</em>,<em>N</em>-bis(pyridin-2-ylmethyl)methanamine",
    "duplicated_cas_no": "",
    "SMILES": "N(CC1=CC=CC=N1)(CC2=CC=CC=N2)CC3=CC=CC=N3",
    "meta_data": {
        "InChI": "InChI=1S/C18H18N4/c1-4-10-19-16(7-1)13-22(14-17-8-2-5-11-20-17)15-18-9-3-6-12-21-18/h1-12H,13-15H2",
        "InChIKey": null,
        "Canonical SMILES": "N=1C=CC=CC1CN(CC2=NC=CC=C2)CC3=NC=CC=C3",
        "Molecular Formula": "C<sub>18</sub>H<sub>18</sub>N<sub>4</sub>",
        "Molecular Mass": "290.36",
        "Melting Point": "73.9 °C"
    }
}