{
    "cas_no": "2373-51-5",
    "key_name": "Chloromethyl methyl sulfide",
    "cn_name": "氯甲基甲硫醚;氯甲基甲基硫醚;",
    "alternate_name": "Methane, chloro(methylthio)-;Sulfide, chloromethyl methyl;Chloro(methylthio)methane;Monochlorodimethyl sulfide;Chloromethyl methyl sulfide;(Methylthio)methyl chloride;α-Chlorodimethyl sulfide;Chlorodimethyl thioether;Chloromethyl methyl thioether;Chlorodimethyl sulfide;Methyl chloromethyl sulfide;NSC 63205;Chloromethylsulfanylmethane;(Chloromethyl)(methyl)sulfane",
    "duplicated_cas_no": "",
    "SMILES": "C(SC)Cl",
    "meta_data": {
        "InChI": "InChI=1S/C2H5ClS/c1-4-2-3/h2H2,1H3",
        "InChIKey": null,
        "Canonical SMILES": "ClCSC",
        "Molecular Formula": "C<sub>2</sub>H<sub>5</sub>ClS",
        "Molecular Mass": "96.58",
        "Boiling Point": "105 °C"
    }
}