{
    "cas_no": "39998-25-9",
    "key_name": "3-Pyridineacetic acid, methyl ester",
    "cn_name": null,
    "alternate_name": "3-Pyridineacetic acid, methyl ester;Methyl 3-pyridylacetate;Methyl 3-pyridineacetate;NSC 75852;Methyl pyridin-3-ylacetate;Methyl 2-(pyridin-3-yl)acetate",
    "duplicated_cas_no": "",
    "SMILES": "C(C(OC)=O)C=1C=CC=NC1",
    "meta_data": {
        "InChI": "InChI=1S/C8H9NO2/c1-11-8(10)5-7-3-2-4-9-6-7/h2-4,6H,5H2,1H3",
        "InChIKey": null,
        "Canonical SMILES": "O=C(OC)CC=1C=NC=CC1",
        "Molecular Formula": "C<sub>8</sub>H<sub>9</sub>NO<sub>2</sub>",
        "Molecular Mass": "151.16",
        "Boiling Point": "112 °C @ Press: 10 Torr"
    }
}