{
    "cas_no": "67247-12-5",
    "key_name": "<em>N</em>-[(1,1-Dimethylethoxy)carbonyl]-<span class=\"text-smallcaps\">L</smallcap>-methionyl-<smallcap>L</smallcap>-leucyl-<smallcap>L</span>-phenylalanine",
    "cn_name": null,
    "alternate_name": "<span class=\"text-smallcaps\">L</smallcap>-Phenylalanine, <em>N</em>-[(1,1-dimethylethoxy)carbonyl]-<smallcap>L</smallcap>-methionyl-<smallcap>L</span>-leucyl-;<span class=\"text-smallcaps\">L</smallcap>-Phenylalanine, <em>N</em>-[<em>N</em>-[<em>N</em>-[(1,1-dimethylethoxy)carbonyl]-<smallcap>L</smallcap>-methionyl]-<smallcap>L</span>-leucyl]-;<em>N</em>-[(1,1-Dimethylethoxy)carbonyl]-<span class=\"text-smallcaps\">L</smallcap>-methionyl-<smallcap>L</smallcap>-leucyl-<smallcap>L</span>-phenylalanine;BOC-MLP",
    "duplicated_cas_no": "",
    "SMILES": "[C@@H](NC([C@@H](NC(OC(C)(C)C)=O)CCSC)=O)(C(N[C@@H](CC1=CC=CC=C1)C(O)=O)=O)CC(C)C",
    "meta_data": {
        "InChI": "InChI=1S/C25H39N3O6S/c1-16(2)14-19(22(30)27-20(23(31)32)15-17-10-8-7-9-11-17)26-21(29)18(12-13-35-6)28-24(33)34-25(3,4)5/h7-11,16,18-20H,12-15H2,1-6H3,(H,26,29)(H,27,30)(H,28,33)(H,31,32)/t18-,19-,20-/m0/s1",
        "InChIKey": null,
        "Canonical SMILES": "O=C(OC(C)(C)C)NC(C(=O)NC(C(=O)NC(C(=O)O)CC=1C=CC=CC1)CC(C)C)CCSC",
        "Molecular Formula": "C<sub>25</sub>H<sub>39</sub>N<sub>3</sub>O<sub>6</sub>S",
        "Molecular Mass": "509.66",
        "Melting Point": "131-133 °C"
    }
}