{
    "cas_no": "85-55-2",
    "key_name": "2-(4-Methylbenzoyl)benzoic acid",
    "cn_name": "2-(对甲苯甲酰基)苯甲酸;2-(4-甲基苯甲酰)苯甲酸;",
    "alternate_name": "Benzoic acid, 2-(4-methylbenzoyl)-;Benzoic acid, <em>o</em>-(<em>p</em>-toluoyl)-;2-(4-Methylbenzoyl)benzoic acid;4′-Methylbenzophenone-2-carboxylic acid;<em>o</em>-(<em>p</em>-Toluoyl)benzoic acid;2-(<em>p</em>-Toluoyl)benzoic acid;4-Methylbenzophenone-2′-carboxylic acid;4′-Methyl-2-benzoylbenzoic acid;2-(4′-Methylbenzoyl)benzoic acid;NSC 11224",
    "duplicated_cas_no": "",
    "SMILES": "C(=O)(C1=C(C(O)=O)C=CC=C1)C2=CC=C(C)C=C2",
    "meta_data": {
        "InChI": "InChI=1S/C15H12O3/c1-10-6-8-11(9-7-10)14(16)12-4-2-3-5-13(12)15(17)18/h2-9H,1H3,(H,17,18)",
        "InChIKey": null,
        "Canonical SMILES": "O=C(O)C=1C=CC=CC1C(=O)C2=CC=C(C=C2)C",
        "Molecular Formula": "C<sub>15</sub>H<sub>12</sub>O<sub>3</sub>",
        "Molecular Mass": "240.25",
        "Melting Point": "146 °C"
    }
}