{
    "cas_no": "118468-18-1",
    "key_name": "4-Phenoxyphenethylamine",
    "cn_name": null,
    "alternate_name": "Benzeneethanamine, 4-phenoxy-;4-Phenoxybenzeneethanamine;2-(4-Phenoxyphenyl)ethyl amine;4-Phenoxyphenethylamine;2-(4-Phenoxyphenyl)ethanamine;2-(4-Phenoxyphenyl)ethan-1-amine",
    "duplicated_cas_no": "",
    "SMILES": "O(C1=CC=C(CCN)C=C1)C2=CC=CC=C2",
    "meta_data": {
        "InChI": "InChI=1S/C14H15NO/c15-11-10-12-6-8-14(9-7-12)16-13-4-2-1-3-5-13/h1-9H,10-11,15H2",
        "InChIKey": null,
        "Canonical SMILES": "O(C=1C=CC=CC1)C2=CC=C(C=C2)CCN",
        "Molecular Formula": "C<sub>14</sub>H<sub>15</sub>NO",
        "Molecular Mass": "213.27",
        "Boiling Point": "169-173 °C @ Press: 12.5 Torr"
    }
}