{
    "cas_no": "101-18-8",
    "key_name": "3-Hydroxydiphenylamine",
    "cn_name": "间羟基二苯胺;",
    "alternate_name": "Phenol, 3-(phenylamino)-;Phenol, <em>m</em>-anilino-;3-(Phenylamino)phenol;<em>m</em>-Anilinophenol;<em>m</em>-Hydroxydiphenylamine;3-Hydroxydiphenylamine;<em>m</em>-(Phenylamino)phenol;3-Anilinophenol;NSC 56930;3-Hydroxy-<em>N</em>-phenylaniline",
    "duplicated_cas_no": "",
    "SMILES": "N(C1=CC(O)=CC=C1)C2=CC=CC=C2",
    "meta_data": {
        "InChI": "InChI=1S/C12H11NO/c14-12-8-4-7-11(9-12)13-10-5-2-1-3-6-10/h1-9,13-14H",
        "InChIKey": null,
        "Canonical SMILES": "OC1=CC=CC(=C1)NC=2C=CC=CC2",
        "Molecular Formula": "C<sub>12</sub>H<sub>11</sub>NO",
        "Molecular Mass": "185.22",
        "Boiling Point": "340 °C",
        "Melting Point": "81.5 °C"
    }
}