{
    "cas_no": "55620-18-3",
    "key_name": "3-[2-(Acetyloxy)phenyl]-2-propenoic acid",
    "cn_name": "2-乙酸基肉桂酸;",
    "alternate_name": "2-Propenoic acid, 3-[2-(acetyloxy)phenyl]-;Cinnamic acid, <em>o</em>-hydroxy-, acetate;3-[2-(Acetyloxy)phenyl]-2-propenoic acid;<em>O</em>-Acetyl-<em>o</em>-coumaric acid;Tylmarin;NSC 98725;2′-Acetoxycinnamic acid;2-Acetoxycinnamic acid",
    "duplicated_cas_no": "",
    "SMILES": "O(C(C)=O)C1=C(C=CC(O)=O)C=CC=C1",
    "meta_data": {
        "InChI": "InChI=1S/C11H10O4/c1-8(12)15-10-5-3-2-4-9(10)6-7-11(13)14/h2-7H,1H3,(H,13,14)",
        "InChIKey": null,
        "Canonical SMILES": "O=C(O)C=CC=1C=CC=CC1OC(=O)C",
        "Molecular Formula": "C<sub>11</sub>H<sub>10</sub>O<sub>4</sub>",
        "Molecular Mass": "206.19",
        "Melting Point": "152-153 °C"
    }
}