{
    "cas_no": "495-62-5",
    "key_name": "γ-Bisabolene",
    "cn_name": "4-(1,5-二甲基-4-己烯亚基)-1-甲基环己烯;",
    "alternate_name": "Cyclohexene, 4-(1,5-dimethyl-4-hexen-1-ylidene)-1-methyl-;2-Heptene, 2-methyl-6-(4-methyl-3-cyclohexen-1-ylidene)-;Bisabolene;Cyclohexene, 4-(1,5-dimethyl-4-hexenylidene)-1-methyl-;4-(1,5-Dimethyl-4-hexen-1-ylidene)-1-methylcyclohexene;γ-Bisabolene",
    "duplicated_cas_no": "11003-31-9",
    "SMILES": "C(CCC=C(C)C)(C)=C1CCC(C)=CC1",
    "meta_data": {
        "InChI": "InChI=1S/C15H24/c1-12(2)6-5-7-14(4)15-10-8-13(3)9-11-15/h6,8H,5,7,9-11H2,1-4H3",
        "InChIKey": null,
        "Canonical SMILES": "C(=C(C)C)CCC(=C1CC=C(C)CC1)C",
        "Molecular Formula": "C<sub>15</sub>H<sub>24</sub>",
        "Molecular Mass": "204.35",
        "Boiling Point": "118-120 °C",
        "Density": "0.8717 g/cm³ @ Temp: 21 °C"
    }
}