{
    "cas_no": "119644-22-3",
    "key_name": "935U83",
    "cn_name": null,
    "alternate_name": "Uridine, 5-chloro-2′,3′-dideoxy-3′-fluoro-;5-Chloro-2′,3′-dideoxy-3′-fluorouridine;2′,3′-Dideoxy-3′-fluoro-5-chlorouridine;5-Chloro-3′-fluoro-2′,3′-dideoxyuridine;935U83;Raluridine;BW 935U83;GW 274666X",
    "duplicated_cas_no": "211307-70-9",
    "SMILES": "O=C1N([C@@H]2O[C@H](CO)[C@@H](F)C2)C=C(Cl)C(=O)N1",
    "meta_data": {
        "InChI": "InChI=1S/C9H10ClFN2O4/c10-4-2-13(9(16)12-8(4)15)7-1-5(11)6(3-14)17-7/h2,5-7,14H,1,3H2,(H,12,15,16)/t5-,6+,7+/m0/s1",
        "InChIKey": null,
        "Canonical SMILES": "O=C1NC(=O)N(C=C1Cl)C2OC(CO)C(F)C2",
        "Molecular Formula": "C<sub>9</sub>H<sub>10</sub>ClFN<sub>2</sub>O<sub>4</sub>",
        "Molecular Mass": "264.64",
        "Melting Point": "181 °C (decomp)"
    }
}