{
    "cas_no": "100-36-7",
    "key_name": "<em>N</em>,<em>N</em>-Diethylethylenediamine",
    "cn_name": "N,N-二乙基乙二胺;",
    "alternate_name": "1,2-Ethanediamine, <em>N</em><sup>1</sup>,<em>N</em><sup>1</sup>-diethyl-;Ethylenediamine, <em>N</em>,<em>N</em>-diethyl-;1,2-Ethanediamine, <em>N</em>,<em>N</em>-diethyl-;<em>N</em><sup>1</sup>,<em>N</em><sup>1</sup>-Diethyl-1,2-ethanediamine;<em>N</em>-(2-Diethylaminoethyl)amine;β-(Diethylamino)ethylamine;<em>N</em>,<em>N</em>-Diethylethylenediamine;2-(Diethylamino)ethylamine;<em>N</em>-(2-Aminoethyl)-<em>N</em>,<em>N</em>-diethylamine;<em>N</em>,<em>N</em>-Diethyl-1,2-ethanediamine;1-Amino-2-(diethylamino)ethane;<em>N</em>,<em>N</em>-Diethyl-1,2-diaminoethane;<em>N</em>,<em>N</em>-Diethyl-1,2-ethylenediamine;2-(Diethylamino)ethanamine;NSC 19675;1-Amino-2-(<em>N</em>,<em>N</em>-diethylamino)ethane;<em>N</em>-[2-(<em>N</em>,<em>N</em>-Diethylamino)ethyl]amine;2-Diethylamino-1-ethylamine;Diethylamineethylamine;<em>N</em>′,<em>N</em>′-Diethyl-1,2-diaminoethane;2-Diethylamino-1-ethaneamine;N1,N1-Diethylethane-1,2-diamine",
    "duplicated_cas_no": "",
    "SMILES": "N(CCN)(CC)CC",
    "meta_data": {
        "InChI": "InChI=1S/C6H16N2/c1-3-8(4-2)6-5-7/h3-7H2,1-2H3",
        "InChIKey": null,
        "Canonical SMILES": "NCCN(CC)CC",
        "Molecular Formula": "C<sub>6</sub>H<sub>16</sub>N<sub>2</sub>",
        "Molecular Mass": "116.20",
        "Boiling Point": "144 °C"
    }
}