{
    "cas_no": "3614-69-5",
    "key_name": "Dimethindene maleate",
    "cn_name": "马来酸二甲茚定;",
    "alternate_name": "1<em>H</em>-Indene-2-ethanamine, <em>N</em>,<em>N</em>-dimethyl-3-[1-(2-pyridinyl)ethyl]-, (2<em>Z</em>)-2-butenedioate (1:1);Pyridine, 2-[1-[2-[2-(dimethylamino)ethyl]inden-3-yl]ethyl]-, maleate (1:1);1<em>H</em>-Indene-2-ethanamine, <em>N</em>,<em>N</em>-dimethyl-3-[1-(2-pyridinyl)ethyl]-, (<em>Z</em>)-2-butenedioate (1:1);Pyridine, 2-[1-[2-(dimethylaminoethyl)inden-3-yl]ethyl]-, maleate;Su-6518;Dimethindene maleate;Dimethpyrindene maleate;2-[1-[2-(2-Dimethylaminoethyl)inden-3-yl]ethyl]pyridine maleate;Forhistal maleate;Fenistil;Fenistil-retard;Dimethinden maleate;Fenostil;NSC 107677",
    "duplicated_cas_no": "121366-94-7",
    "SMILES": "C(C)(C=1C=2C(CC1CCN(C)C)=CC=CC2)C3=CC=CC=N3.C(=C\\C(O)=O)\\C(O)=O",
    "meta_data": {
        "InChI": "InChI=1S/C20H24N2.C4H4O4/c1-15(19-10-6-7-12-21-19)20-17(11-13-22(2)3)14-16-8-4-5-9-18(16)20;5-3(6)1-2-4(7)8/h4-10,12,15H,11,13-14H2,1-3H3;1-2H,(H,5,6)(H,7,8)/b;2-1-",
        "InChIKey": null,
        "Canonical SMILES": "O=C(O)C=CC(=O)O.N=1C=CC=CC1C(C=2C=3C=CC=CC3CC2CCN(C)C)C",
        "Molecular Formula": "C<sub>20</sub>H<sub>24</sub>N<sub>2</sub>.C<sub>4</sub>H<sub>4</sub>O<sub>4</sub>",
        "Molecular Mass": "",
        "Melting Point": "159-161 °C"
    }
}