{
    "cas_no": "6939-35-1",
    "key_name": "5-Methyl-1-tetralone",
    "cn_name": null,
    "alternate_name": "1(2<em>H</em>)-Naphthalenone, 3,4-dihydro-5-methyl-;3,4-Dihydro-5-methyl-1(2<em>H</em>)-naphthalenone;5-Methyl-1-tetralone;NSC 57011;5-Methyl-3,4-dihydro-2<em>H</em>-naphthalen-1-one;5-Methyl-3,4-dihydronaphthalen-1(2<em>H</em>)-one",
    "duplicated_cas_no": "",
    "SMILES": "CC1=C2C(C(=O)CCC2)=CC=C1",
    "meta_data": {
        "InChI": "InChI=1S/C11H12O/c1-8-4-2-6-10-9(8)5-3-7-11(10)12/h2,4,6H,3,5,7H2,1H3",
        "InChIKey": null,
        "Canonical SMILES": "O=C1C2=CC=CC(=C2CCC1)C",
        "Molecular Formula": "C<sub>11</sub>H<sub>12</sub>O",
        "Molecular Mass": "160.21",
        "Boiling Point": "143-145 °C @ Press: 10 Torr",
        "Melting Point": "50-51 °C"
    }
}