{
    "cas_no": "13175-44-5",
    "key_name": "7-Octen-1-ol",
    "cn_name": "7-辛烯-1-醇;",
    "alternate_name": "7-Octen-1-ol;7OEA;1-Octene-8-ol;7-Octenol",
    "duplicated_cas_no": "",
    "SMILES": "C(CCC=C)CCCO",
    "meta_data": {
        "InChI": "InChI=1S/C8H16O/c1-2-3-4-5-6-7-8-9/h2,9H,1,3-8H2",
        "InChIKey": null,
        "Canonical SMILES": "OCCCCCCC=C",
        "Molecular Formula": "C<sub>8</sub>H<sub>16</sub>O",
        "Molecular Mass": "128.21",
        "Boiling Point": "94-96 °C @ Press: 17 Torr"
    }
}