{
    "cas_no": "7735-42-4",
    "key_name": "1,16-Hexadecanediol",
    "cn_name": "1,16-十六烷二醇;",
    "alternate_name": "1,16-Hexadecanediol;1,16-Dihydroxyhexadecane",
    "duplicated_cas_no": "",
    "SMILES": "C(CCCCCCCCO)CCCCCCCO",
    "meta_data": {
        "InChI": "InChI=1S/C16H34O2/c17-15-13-11-9-7-5-3-1-2-4-6-8-10-12-14-16-18/h17-18H,1-16H2",
        "InChIKey": null,
        "Canonical SMILES": "OCCCCCCCCCCCCCCCCO",
        "Molecular Formula": "C<sub>16</sub>H<sub>34</sub>O<sub>2</sub>",
        "Molecular Mass": "258.44",
        "Boiling Point": "197.9 °C @ Press: 3 Torr",
        "Melting Point": "91.2-91.5 °C"
    }
}