{
    "cas_no": "14173-39-8",
    "key_name": "4-Chloro-<span class=\"text-smallcaps\">L</span>-phenylalanine",
    "cn_name": "L-4-氯苯丙氨酸;4-氯-L-苯丙氨酸;",
    "alternate_name": "<span class=\"text-smallcaps\">L</span>-Phenylalanine, 4-chloro-;Alanine, 3-(<em>p</em>-chlorophenyl)-, <span class=\"text-smallcaps\">L</span>-;4-Chloro-<span class=\"text-smallcaps\">L</span>-phenylalanine;<span class=\"text-smallcaps\">L</span>-<em>p</em>-Chlorophenylalanine;<em>p</em>-Chloro-<span class=\"text-smallcaps\">L</span>-phenylalanine;<span class=\"text-smallcaps\">L</span>-4-Chlorophenylalanine;(<em>S</em>)-4-Chlorophenylalanine;(<em>S</em>)-2-Amino-3-(4-chlorophenyl)propanoicacid;(2S)-2-Amino-3-(4-chlorophenyl)propanoic acid",
    "duplicated_cas_no": "",
    "SMILES": "C([C@@H](C(O)=O)N)C1=CC=C(Cl)C=C1",
    "meta_data": {
        "InChI": "InChI=1S/C9H10ClNO2/c10-7-3-1-6(2-4-7)5-8(11)9(12)13/h1-4,8H,5,11H2,(H,12,13)/t8-/m0/s1",
        "InChIKey": null,
        "Canonical SMILES": "O=C(O)C(N)CC1=CC=C(Cl)C=C1",
        "Molecular Formula": "C<sub>9</sub>H<sub>10</sub>ClNO<sub>2</sub>",
        "Molecular Mass": "199.63",
        "Melting Point": "259-264 °C"
    }
}