{
    "cas_no": "13735-81-4",
    "key_name": "α-(Trimethylsiloxy)styrene",
    "cn_name": null,
    "alternate_name": "Benzene, [1-[(trimethylsilyl)oxy]ethenyl]-;Silane, trimethyl[(1-phenylvinyl)oxy]-;Silane, trimethyl[(1-phenylethenyl)oxy]-;[1-[(Trimethylsilyl)oxy]ethenyl]benzene;Trimethyl(1-phenylvinyloxy)silane;α-(Trimethylsilyloxy)styrene;α-(Trimethylsiloxy)styrene;1-Phenyl-1-(trimethylsilyloxy)ethylene;1-Phenyl-1-(trimethylsiloxy)ethylene;1-(Trimethylsilyloxy)-1-phenylethene;1-Phenyl-1-(trimethylsiloxy)ethene;Acetophenone trimethylsilyl enol ether;1-(Trimethylsilyloxy)styrene;1-(Trimethylsilyloxy)-1-phenylethylene;1-Phenyl-1-(trimethylsilyloxy)ethene;Trimethyl(1-phenylethenyloxy)silane;1-(Trimethylsiloxy)-1-phenylethene;[1-(Trimethylsiloxy)vinyl]benzene;1-Phenylethenyloxytrimethylsilane",
    "duplicated_cas_no": "1658447-62-1",
    "SMILES": "C(O[Si](C)(C)C)(=C)C1=CC=CC=C1",
    "meta_data": {
        "InChI": "InChI=1S/C11H16OSi/c1-10(12-13(2,3)4)11-8-6-5-7-9-11/h5-9H,1H2,2-4H3",
        "InChIKey": null,
        "Canonical SMILES": "O(C(=C)C=1C=CC=CC1)[Si](C)(C)C",
        "Molecular Formula": "C<sub>11</sub>H<sub>16</sub>OSi",
        "Molecular Mass": "192.33",
        "Boiling Point": "53-54 °C @ Press: 1 Torr",
        "Melting Point": "122-123 °C",
        "Density": "0.938 g/cm³"
    }
}