{
    "cas_no": "6190-65-4",
    "key_name": "Deethylatrazine",
    "cn_name": null,
    "alternate_name": "1,3,5-Triazine-2,4-diamine, 6-chloro-<em>N</em><sup>2</sup>-(1-methylethyl)-;<em>s</em>-Triazine, 2-amino-4-chloro-6-(isopropylamino)-;1,3,5-Triazine-2,4-diamine, 6-chloro-<em>N</em>-(1-methylethyl)-;6-Chloro-<em>N</em><sup>2</sup>-(1-methylethyl)-1,3,5-triazine-2,4-diamine;2-Chloro-4-amino-6-isopropylamino-<em>s</em>-triazine;G 30033;2-Amino-4-chloro-6-(isopropylamino)-<em>s</em>-triazine;2-Isopropylamino-4-amino-6-chloro-1,3,5-triazine;2-Chloro-4-isopropylamino-6-amino-<em>s</em>-triazine;Deethylatrazine;Desethylatrazine;Deethylatratone;<em>s</em>-Chloroaminoisopropylaminotriazine;<em>N</em>-Deethylatrazine;DEA;2-Chloro-4-amino-6-isopropylamino-1,3,5-triazine;Atrazine-desethyl;6-Amino-2-chloro-4-isopropylamino-<em>s</em>-triazine",
    "duplicated_cas_no": "",
    "SMILES": "N(C(C)C)C=1N=C(Cl)N=C(N)N1",
    "meta_data": {
        "InChI": "InChI=1S/C6H10ClN5/c1-3(2)9-6-11-4(7)10-5(8)12-6/h3H,1-2H3,(H3,8,9,10,11,12)",
        "InChIKey": null,
        "Canonical SMILES": "ClC=1N=C(N=C(N1)NC(C)C)N",
        "Molecular Formula": "C<sub>6</sub>H<sub>10</sub>ClN<sub>5</sub>",
        "Molecular Mass": "187.63",
        "Melting Point": "133 °C"
    }
}