{
    "cas_no": "658-48-0",
    "key_name": "α-Methyl-<em>p</em>-tyrosine",
    "cn_name": null,
    "alternate_name": "Tyrosine, α-methyl-;α-Methyltyrosine;α-Methyl-<em>p</em>-tyrosine;<span class=\"text-smallcaps\">DL</span>-α-Methyltyrosine;<span class=\"text-smallcaps\">DL</span>-α-Methyl-<em>p</em>-tyrosine;α-MPT;(±)-α-Methyl-<em>p</em>-tyrosine;<span class=\"text-smallcaps\">DL</span>-2-Methyl-<em>p</em>-tyrosine;α-Methyl-<span class=\"text-smallcaps\">DL</span>-tyrosine;Racemetirosine;<em>dl</em>-Metyrosine;2-(4-Hydroxybenzyl)-2-aminopropanoic acid;L 1-79;SM 88;(±)-α-Methyl-<span class=\"text-smallcaps\">D</smallcap><smallcap>L</span>-tyrosine;2-Amino-3-(4-hydroxy-phenyl)-2-methyl-propionic acid;2-Amino-3-(4-hydroxyphenyl)-2-methylpropanoic acid",
    "duplicated_cas_no": "620-30-4;2304018-89-9",
    "SMILES": "C(C(C(O)=O)(C)N)C1=CC=C(O)C=C1",
    "meta_data": {
        "InChI": "InChI=1S/C10H13NO3/c1-10(11,9(13)14)6-7-2-4-8(12)5-3-7/h2-5,12H,6,11H2,1H3,(H,13,14)",
        "InChIKey": null,
        "Canonical SMILES": "O=C(O)C(N)(C)CC1=CC=C(O)C=C1",
        "Molecular Formula": "C<sub>10</sub>H<sub>13</sub>NO<sub>3</sub>",
        "Molecular Mass": "195.22",
        "Melting Point": "&gt;300 °C"
    }
}