{
    "cas_no": "41775-76-2",
    "key_name": "1,4,7-Trioxa-10-azacyclododecane",
    "cn_name": null,
    "alternate_name": "1,4,7-Trioxa-10-azacyclododecane;Monoaza-12-crown-4;Aza-12-crown-4;1-Aza-4,7,10-trioxacyclododecane;10-Aza-12-crown-4;12-Crown-O<sub>3</sub>N;1-Aza-12-crown-4",
    "duplicated_cas_no": "",
    "SMILES": "C1COCCOCCOCCN1",
    "meta_data": {
        "InChI": "InChI=1S/C8H17NO3/c1-3-10-5-7-12-8-6-11-4-2-9-1/h9H,1-8H2",
        "InChIKey": null,
        "Canonical SMILES": "O1CCOCCNCCOCC1",
        "Molecular Formula": "C<sub>8</sub>H<sub>17</sub>NO<sub>3</sub>",
        "Molecular Mass": "175.23",
        "Boiling Point": "58-62 °C @ Press: 5 x 10<sup>-3</sup> Torr",
        "Melting Point": "57-59 °C"
    }
}