{
    "cas_no": "2430-22-0",
    "key_name": "7-Methyl-1-octanol",
    "cn_name": "异壬醇;7-甲基-1-辛醇;",
    "alternate_name": "1-Octanol, 7-methyl-;7-Methyl-1-octanol",
    "duplicated_cas_no": "",
    "SMILES": "C(CCCCO)CC(C)C",
    "meta_data": {
        "InChI": "InChI=1S/C9H20O/c1-9(2)7-5-3-4-6-8-10/h9-10H,3-8H2,1-2H3",
        "InChIKey": null,
        "Canonical SMILES": "OCCCCCCC(C)C",
        "Molecular Formula": "C<sub>9</sub>H<sub>20</sub>O",
        "Molecular Mass": "144.25",
        "Boiling Point": "206 °C",
        "Melting Point": "64.5 °C",
        "Density": "7 g/cm³ @ Temp: 26 °C"
    }
}