{
    "cas_no": "68672-66-2",
    "key_name": "(α<em>Z</em>)-α-[[2-(1,1-Dimethylethoxy)-1,1-dimethyl-2-oxoethoxy]imino]-2-[(triphenylmethyl)amino]-4-thiazoleacetic acid",
    "cn_name": null,
    "alternate_name": "4-Thiazoleacetic acid, α-[[2-(1,1-dimethylethoxy)-1,1-dimethyl-2-oxoethoxy]imino]-2-[(triphenylmethyl)amino]-, (α<em>Z</em>)-;4-Thiazoleacetic acid, α-[[2-(1,1-dimethylethoxy)-1,1-dimethyl-2-oxoethoxy]imino]-2-[(triphenylmethyl)amino]-, (<em>Z</em>)-;(α<em>Z</em>)-α-[[2-(1,1-Dimethylethoxy)-1,1-dimethyl-2-oxoethoxy]imino]-2-[(triphenylmethyl)amino]-4-thiazoleacetic acid",
    "duplicated_cas_no": "128293-29-8;78850-68-7;87878-88-4",
    "SMILES": "C(NC1=NC(\\C(=N\\OC(C(OC(C)(C)C)=O)(C)C)\\C(O)=O)=CS1)(C2=CC=CC=C2)(C3=CC=CC=C3)C4=CC=CC=C4",
    "meta_data": {
        "InChI": "InChI=1S/C32H33N3O5S/c1-30(2,3)39-28(38)31(4,5)40-35-26(27(36)37)25-21-41-29(33-25)34-32(22-15-9-6-10-16-22,23-17-11-7-12-18-23)24-19-13-8-14-20-24/h6-21H,1-5H3,(H,33,34)(H,36,37)/b35-26-",
        "InChIKey": null,
        "Canonical SMILES": "O=C(O)C(=NOC(C(=O)OC(C)(C)C)(C)C)C=1N=C(SC1)NC(C=2C=CC=CC2)(C=3C=CC=CC3)C=4C=CC=CC4",
        "Molecular Formula": "C<sub>32</sub>H<sub>33</sub>N<sub>3</sub>O<sub>5</sub>S",
        "Molecular Mass": "571.69",
        "Melting Point": "168-169 °C"
    }
}