{
    "cas_no": "68104-62-1",
    "key_name": "Piperazine, 1-(4-bromophenyl)-, hydrochloride (1:1)",
    "cn_name": null,
    "alternate_name": "Piperazine, 1-(4-bromophenyl)-, hydrochloride (1:1);Piperazine, 1-(4-bromophenyl)-, monohydrochloride;1-(4-Bromophenyl)piperazine monohydrochloride;1-(4-Bromophenyl)piperazine hydrochloride",
    "duplicated_cas_no": "",
    "SMILES": "BrC1=CC=C(C=C1)N2CCNCC2.Cl",
    "meta_data": {
        "InChI": "InChI=1S/C10H13BrN2.ClH/c11-9-1-3-10(4-2-9)13-7-5-12-6-8-13;/h1-4,12H,5-8H2;1H",
        "InChIKey": null,
        "Canonical SMILES": "Cl.BrC1=CC=C(C=C1)N2CCNCC2",
        "Molecular Formula": "C<sub>10</sub>H<sub>13</sub>BrN<sub>2</sub>.ClH",
        "Molecular Mass": "",
        "Melting Point": "240 °C (decomp)"
    }
}