{
    "cas_no": "125-71-3",
    "key_name": "Dextromethorphan",
    "cn_name": "右美沙芬;美沙芬;右甲吗喃;",
    "alternate_name": "Morphinan, 3-methoxy-17-methyl-, (9α,13α,14α)-;9α,13α,14α-Morphinan, 3-methoxy-17-methyl-;(9α,13α,14α)-3-Methoxy-17-methylmorphinan;Dextromethorphan;<em>d</em>-Methorphan;Ba 2666;(+)-3-Methoxy-17-methylmorphinan;Nodex;DEX;(+)-Dextromethorphan;3-Methoxy-17-methyl-9α,13α,14α-morphinan;Bromhist;MeSH ID: D003915",
    "duplicated_cas_no": "18046-32-7;32062-10-5;1469752-79-1",
    "SMILES": "O(C)C=1C=C2[C@]34[C@@]([C@](CC2=CC1)(N(C)CC3)[H])(CCCC4)[H]",
    "meta_data": {
        "InChI": "InChI=1S/C18H25NO/c1-19-10-9-18-8-4-3-5-15(18)17(19)11-13-6-7-14(20-2)12-16(13)18/h6-7,12,15,17H,3-5,8-11H2,1-2H3/t15-,17+,18+/m1/s1",
        "InChIKey": null,
        "Canonical SMILES": "O(C1=CC=C2C(=C1)C34CCN(C)C(C2)C4CCCC3)C",
        "Molecular Formula": "C<sub>18</sub>H<sub>25</sub>NO",
        "Molecular Mass": "271.40",
        "Melting Point": "80 °C"
    }
}