{
    "cas_no": "87199-17-5",
    "key_name": "4-Formylphenylboronic acid",
    "cn_name": "4-甲酰基苯硼酸;对甲酰基苯硼酸;",
    "alternate_name": "Boronic acid, <em>B</em>-(4-formylphenyl)-;Boronic acid, (4-formylphenyl)-;Benzeneboronic acid, <em>p</em>-formyl-;<em>B</em>-(4-Formylphenyl)boronic acid;<em>p</em>-Formylphenylboronic acid;4-Formylphenylboronic acid;<em>p</em>-Formylbenzeneboronic acid;4-Formylbenzeneboronic acid;4-Formylphenylborate;4-FPBA",
    "duplicated_cas_no": "2599159-62-1",
    "SMILES": "B(O)(O)C1=CC=C(C=O)C=C1",
    "meta_data": {
        "InChI": "InChI=1S/C7H7BO3/c9-5-6-1-3-7(4-2-6)8(10)11/h1-5,10-11H",
        "InChIKey": null,
        "Canonical SMILES": "O=CC1=CC=C(C=C1)B(O)O",
        "Molecular Formula": "C<sub>7</sub>H<sub>7</sub>BO<sub>3</sub>",
        "Molecular Mass": "149.94",
        "Melting Point": "128-130 °C"
    }
}