{
    "cas_no": "89179-62-4",
    "key_name": "1-Methyl-1<em>H</em>-pyrazole-3-carboxamide",
    "cn_name": null,
    "alternate_name": "1<em>H</em>-Pyrazole-3-carboxamide, 1-methyl-;Pyrazole-3-carboxamide, 1-methyl-;1-Methyl-1<em>H</em>-pyrazole-3-carboxamide;1-Methylpyrazole-3-carboxamide",
    "duplicated_cas_no": "",
    "SMILES": "C(N)(=O)C1=NN(C)C=C1",
    "meta_data": {
        "InChI": "InChI=1S/C5H7N3O/c1-8-3-2-4(7-8)5(6)9/h2-3H,1H3,(H2,6,9)",
        "InChIKey": null,
        "Canonical SMILES": "O=C(N)C1=NN(C=C1)C",
        "Molecular Formula": "C<sub>5</sub>H<sub>7</sub>N<sub>3</sub>O",
        "Molecular Mass": "125.13",
        "Melting Point": "139-141 °C"
    }
}