{
    "cas_no": "94-49-5",
    "key_name": "Glycol dibenzoate",
    "cn_name": null,
    "alternate_name": "1,2-Ethanediol, 1,2-dibenzoate;1,2-Ethanediol, dibenzoate;Ethylene glycol, dibenzoate;Benzoflex e-60;Ethylene dibenzoate;Glycol dibenzoate;Dibenzoyl ethylene glycol;Ethanediol dibenzoate;NSC 37158;NSC 61739;1,2-Ethylene glycol dibenzoate;2-Benzoyloxyethyl benzoate;Monocizer PB 10;PB 10",
    "duplicated_cas_no": "1272031-37-4",
    "SMILES": "C(OCCOC(=O)C1=CC=CC=C1)(=O)C2=CC=CC=C2",
    "meta_data": {
        "InChI": "InChI=1S/C16H14O4/c17-15(13-7-3-1-4-8-13)19-11-12-20-16(18)14-9-5-2-6-10-14/h1-10H,11-12H2",
        "InChIKey": null,
        "Canonical SMILES": "O=C(OCCOC(=O)C=1C=CC=CC1)C=2C=CC=CC2",
        "Molecular Formula": "C<sub>16</sub>H<sub>14</sub>O<sub>4</sub>",
        "Molecular Mass": "270.28",
        "Boiling Point": "184-192 °C @ Press: 1 Torr",
        "Melting Point": "73.5 °C"
    }
}