{
    "cas_no": "96-17-3",
    "key_name": "2-Methylbutanal",
    "cn_name": "2-甲基丁醛;甲基乙基乙醛;",
    "alternate_name": "Butanal, 2-methyl-;Butyraldehyde, 2-methyl-;Butyraldehyde, α-methyl-;2-Methylbutanal;α-Methylbutanal;α-Methylbutyraldehyde;2-Methylbutyraldehyde;2-Methylbutyric aldehyde;α-Methylbutyric aldehyde;2-Formylbutane;α-Methyl-<em>n</em>-butanal;2-Ethylpropanal;(<em>RS</em>)-2-Methylbutanal;(±)-2-Methylbutanal;NSC 77077;(±)-2-Methylbutyraldehyde",
    "duplicated_cas_no": "57456-98-1",
    "SMILES": "C(CC)(C=O)C",
    "meta_data": {
        "InChI": "InChI=1S/C5H10O/c1-3-5(2)4-6/h4-5H,3H2,1-2H3",
        "InChIKey": null,
        "Canonical SMILES": "O=CC(C)CC",
        "Molecular Formula": "C<sub>5</sub>H<sub>10</sub>O",
        "Molecular Mass": "86.13",
        "Boiling Point": "92-93 °C",
        "Density": "0.8131 g/cm³ @ Temp: 20 °C"
    }
}