{
    "cas_no": "1154-25-2",
    "key_name": "EIPA",
    "cn_name": "5-(N-乙基-N-异丙基)阿米洛利;",
    "alternate_name": "2-Pyrazinecarboxamide, 3-amino-<em>N</em>-(aminoiminomethyl)-6-chloro-5-[ethyl(1-methylethyl)amino]-;Pyrazinecarboxamide, <em>N</em>-amidino-3-amino-6-chloro-5-(ethylisopropylamino)-;Pyrazinecarboxamide, 3-amino-<em>N</em>-(aminoiminomethyl)-6-chloro-5-[ethyl(1-methylethyl)amino]-;3-Amino-<em>N</em>-(aminoiminomethyl)-6-chloro-5-[ethyl(1-methylethyl)amino]-2-pyrazinecarboxamide;5-(<em>N</em>-Ethyl-<em>N</em>-isopropyl)amiloride;L 593754;EIPA;MH 12-43;Ethylisopropylamiloride;3-Amino-6-chloro-<em>N</em>-(diaminomethylidene)-5-[ethyl(propan-2-yl)amino]pyrazine-2-carboxamide",
    "duplicated_cas_no": "",
    "SMILES": "N(C(C)C)(CC)C=1C(Cl)=NC(C(NC(=N)N)=O)=C(N)N1",
    "meta_data": {
        "InChI": "InChI=1S/C11H18ClN7O/c1-4-19(5(2)3)9-7(12)16-6(8(13)17-9)10(20)18-11(14)15/h5H,4H2,1-3H3,(H2,13,17)(H4,14,15,18,20)",
        "InChIKey": null,
        "Canonical SMILES": "O=C(NC(=N)N)C1=NC(Cl)=C(N=C1N)N(CC)C(C)C",
        "Molecular Formula": "C<sub>11</sub>H<sub>18</sub>ClN<sub>7</sub>O",
        "Molecular Mass": "299.76",
        "Melting Point": "207-208 °C"
    }
}