{
    "cas_no": "72956-09-3",
    "key_name": "Carvedilol",
    "cn_name": "卡维地洛;1-(9H-咔唑-4-氧基)-3-[2-(2-甲氧基苯氧基)乙基氨基]-2-丙醇;",
    "alternate_name": "2-Propanol, 1-(9<em>H</em>-carbazol-4-yloxy)-3-[[2-(2-methoxyphenoxy)ethyl]amino]-;1-(9<em>H</em>-Carbazol-4-yloxy)-3-[[2-(2-methoxyphenoxy)ethyl]amino]-2-propanol;BM 14190;Carvedilol;DQ 2466;SKF 105517;(±)-Carvedilol;Coreg;Dilatrend;Eucardic;Querto;Carvediol;Kredex;Dimitone;Artist;1-(9<em>H</em>-Carbazol-4-yloxy)-3-[[2-(2-methoxyphenoxy)ethyl]amino]propan-2-ol;Cardivas;Carca;Carloc;Korvasan;Carvas;Talliton;Cadilan;Carvexal;Coronis;Carvil",
    "duplicated_cas_no": "107741-96-8",
    "SMILES": "O(CC(CNCCOC1=C(OC)C=CC=C1)O)C2=C3C=4C(NC3=CC=C2)=CC=CC4",
    "meta_data": {
        "InChI": "InChI=1S/C24H26N2O4/c1-28-21-10-4-5-11-22(21)29-14-13-25-15-17(27)16-30-23-12-6-9-20-24(23)18-7-2-3-8-19(18)26-20/h2-12,17,25-27H,13-16H2,1H3",
        "InChIKey": null,
        "Canonical SMILES": "OC(COC1=CC=CC=2NC=3C=CC=CC3C12)CNCCOC=4C=CC=CC4OC",
        "Molecular Formula": "C<sub>24</sub>H<sub>26</sub>N<sub>2</sub>O<sub>4</sub>",
        "Molecular Mass": "406.47",
        "Melting Point": "114-115 °C"
    }
}