{
    "cas_no": "2216-16-2",
    "key_name": "<em>N</em>,<em>N</em>-Diethyl-3-nitrobenzenamine",
    "cn_name": "N,N-二乙基-3-硝基苯胺;",
    "alternate_name": "Benzenamine, <em>N</em>,<em>N</em>-diethyl-3-nitro-;Aniline, <em>N</em>,<em>N</em>-diethyl-<em>m</em>-nitro-;<em>N</em>,<em>N</em>-Diethyl-3-nitrobenzenamine;<em>N</em>,<em>N</em>-Diethyl-3-nitroaniline;<em>m</em>-Nitro-<em>N</em>,<em>N</em>-diethylaniline;<em>N</em>,<em>N</em>-Diethyl-<em>m</em>-nitroaniline;3-Nitro-<em>N</em>,<em>N</em>-diethylaniline",
    "duplicated_cas_no": "",
    "SMILES": "N(CC)(CC)C1=CC(N(=O)=O)=CC=C1",
    "meta_data": {
        "InChI": "InChI=1S/C10H14N2O2/c1-3-11(4-2)9-6-5-7-10(8-9)12(13)14/h5-8H,3-4H2,1-2H3",
        "InChIKey": null,
        "Canonical SMILES": "O=N(=O)C1=CC=CC(=C1)N(CC)CC",
        "Molecular Formula": "C<sub>10</sub>H<sub>14</sub>N<sub>2</sub>O<sub>2</sub>",
        "Molecular Mass": "194.23",
        "Boiling Point": "135 °C @ Press: 0.7 Torr"
    }
}