{
    "cas_no": "552-79-4",
    "key_name": "Methylephedrine",
    "cn_name": null,
    "alternate_name": "Benzenemethanol, α-[(1<em>S</em>)-1-(dimethylamino)ethyl]-, (α<em>R</em>)-;Benzyl alcohol, α-[1-(dimethylamino)ethyl]-, (-)-;Benzenemethanol, α-[1-(dimethylamino)ethyl]-, [<em>R</em>-(<em>R</em>*,<em>S</em>*)]-;Ephedrine, <em>N</em>-methyl-, <span class=\"text-smallcaps\">L</span>-;(α<em>R</em>)-α-[(1<em>S</em>)-1-(Dimethylamino)ethyl]benzenemethanol;(-)-<em>N</em>-Methylephedrine;<em>N</em>-Methyl-<span class=\"text-smallcaps\">L</span>-ephedrine;(1<em>R</em>,2<em>S</em>)-(-)-<em>N</em>-Methylephedrine;<em>N</em>-Methylephedrine;Methylephedrine;(1<em>R</em>,2<em>S</em>)-<em>N</em>-Methylephedrine;<span class=\"text-smallcaps\">L</span>-<em>N</em>-Methylephedrine;(1<em>R</em>,2<em>S</em>)-2-Dimethylamino-1-phenylpropanol;(1<em>R</em>,2<em>S</em>)-3-Dimethylamino-1-phenyl-1-propanol;(1<em>R</em>,2<em>S</em>)-2-Dimethylamino-1-phenyl-1-propanol;(-)-Methylephedrine;(1<em>R</em>,2<em>S</em>)-Methylephedrine;(1<em>R</em>,2<em>S</em>)-<em>N</em>-Methylephedrin",
    "duplicated_cas_no": "",
    "SMILES": "[C@@H]([C@@H](N(C)C)C)(O)C1=CC=CC=C1",
    "meta_data": {
        "InChI": "InChI=1S/C11H17NO/c1-9(12(2)3)11(13)10-7-5-4-6-8-10/h4-9,11,13H,1-3H3/t9-,11-/m0/s1",
        "InChIKey": null,
        "Canonical SMILES": "OC(C=1C=CC=CC1)C(N(C)C)C",
        "Molecular Formula": "C<sub>11</sub>H<sub>17</sub>NO",
        "Molecular Mass": "179.26",
        "Melting Point": "87.5 °C"
    }
}