{
    "cas_no": "24905-87-1",
    "key_name": "HC Red 7",
    "cn_name": null,
    "alternate_name": "Ethanol, 2-[(4-amino-3-nitrophenyl)amino]-;Ethanol, 2-(4-amino-3-nitroanilino)-;2-[(4-Amino-3-nitrophenyl)amino]ethanol;2-Amino-5-(<em>N</em>-β-hydroxyethylamino)nitrobenzene;2-Nitro-4-(β-hydroxyethylamino)aniline;2-Amino-5-(2-hydroxyethylamino)nitrobenzene;HC Red No. 7;HC Red 7;2-(4-Amino-3-nitroanilino)ethanol;2-[(4-Amino-3-nitrophenyl)amino]ethan-1-ol",
    "duplicated_cas_no": "",
    "SMILES": "N(=O)(=O)C1=CC(NCCO)=CC=C1N",
    "meta_data": {
        "InChI": "InChI=1S/C8H11N3O3/c9-7-2-1-6(10-3-4-12)5-8(7)11(13)14/h1-2,5,10,12H,3-4,9H2",
        "InChIKey": null,
        "Canonical SMILES": "O=N(=O)C1=CC(=CC=C1N)NCCO",
        "Molecular Formula": "C<sub>8</sub>H<sub>11</sub>N<sub>3</sub>O<sub>3</sub>",
        "Molecular Mass": "197.19",
        "Melting Point": "98 °C"
    }
}