{
    "cas_no": "1126-00-7",
    "key_name": "1-Phenylpyrazole",
    "cn_name": "1-苯基吡唑;",
    "alternate_name": "1<em>H</em>-Pyrazole, 1-phenyl-;Pyrazole, 1-phenyl-;1-Phenyl-1<em>H</em>-pyrazole;1-Phenylpyrazole;<em>N</em>-Phenylpyrazole;NSC 65588",
    "duplicated_cas_no": "1523432-01-0",
    "SMILES": "N1(C=CC=N1)C2=CC=CC=C2",
    "meta_data": {
        "InChI": "InChI=1S/C9H8N2/c1-2-5-9(6-3-1)11-8-4-7-10-11/h1-8H",
        "InChIKey": null,
        "Canonical SMILES": "N1=CC=CN1C=2C=CC=CC2",
        "Molecular Formula": "C<sub>9</sub>H<sub>8</sub>N<sub>2</sub>",
        "Molecular Mass": "144.17",
        "Boiling Point": "141-142 °C",
        "Melting Point": "138 °C",
        "Density": "1.0908 g/cm³ @ Temp: 20 °C"
    }
}