{
    "cas_no": "21948-70-9",
    "key_name": "2-(Methylthio)pyrazine",
    "cn_name": "2-甲硫基吡嗪;",
    "alternate_name": "Pyrazine, 2-(methylthio)-;Pyrazine, (methylthio)-;2-(Methylthio)pyrazine;2-Methylmercaptopyrazine;Methyl pyrazinyl sulfide;(Methylthio)pyrazine;Pyrazinyl methyl sulfide;2-Methylsulfanylpyrazine;2-(Methylsulfanyl)pyrazine",
    "duplicated_cas_no": "",
    "SMILES": "S(C)C=1C=NC=CN1",
    "meta_data": {
        "InChI": "InChI=1S/C5H6N2S/c1-8-5-4-6-2-3-7-5/h2-4H,1H3",
        "InChIKey": null,
        "Canonical SMILES": "N=1C=CN=C(SC)C1",
        "Molecular Formula": "C<sub>5</sub>H<sub>6</sub>N<sub>2</sub>S",
        "Molecular Mass": "126.18",
        "Melting Point": "45-47.5 °C"
    }
}