{
    "cas_no": "13029-08-8",
    "key_name": "PCB 4",
    "cn_name": "2,2-二氯联苯;2,2-二氯联苯PCBNo4;",
    "alternate_name": "1,1′-Biphenyl, 2,2′-dichloro-;Biphenyl, 2,2′-dichloro-;2,2′-Dichloro-1,1′-biphenyl;2,2′-Dichlorobiphenyl;2,2′-Dichlorodiphenyl;<em>o</em>,<em>o</em>′-Dichlorobiphenyl;2,2′-DCBP;PCB 4;NSC 59902",
    "duplicated_cas_no": "",
    "SMILES": "ClC1=C(C=CC=C1)C2=C(Cl)C=CC=C2",
    "meta_data": {
        "InChI": "InChI=1S/C12H8Cl2/c13-11-7-3-1-5-9(11)10-6-2-4-8-12(10)14/h1-8H",
        "InChIKey": null,
        "Canonical SMILES": "ClC=1C=CC=CC1C=2C=CC=CC2Cl",
        "Molecular Formula": "C<sub>12</sub>H<sub>8</sub>Cl<sub>2</sub>",
        "Molecular Mass": "223.10",
        "Melting Point": "61.5 °C"
    }
}