{
    "cas_no": "260443-89-8",
    "key_name": "4-(5-Fluoro-2-benzothiazolyl)-2-methylbenzenamine",
    "cn_name": null,
    "alternate_name": "Benzenamine, 4-(5-fluoro-2-benzothiazolyl)-2-methyl-;4-(5-Fluoro-2-benzothiazolyl)-2-methylbenzenamine;NSC 703786;5F203;NCS 703786",
    "duplicated_cas_no": "",
    "SMILES": "CC=1C=C(C=2SC=3C(N2)=CC(F)=CC3)C=CC1N",
    "meta_data": {
        "InChI": "InChI=1S/C14H11FN2S/c1-8-6-9(2-4-11(8)16)14-17-12-7-10(15)3-5-13(12)18-14/h2-7H,16H2,1H3",
        "InChIKey": null,
        "Canonical SMILES": "FC1=CC=C2SC(=NC2=C1)C=3C=CC(N)=C(C3)C",
        "Molecular Formula": "C<sub>14</sub>H<sub>11</sub>FN<sub>2</sub>S",
        "Molecular Mass": "258.31",
        "Melting Point": "195-196 °C"
    }
}