{
    "cas_no": "29263-94-3",
    "key_name": "1,3-Diethyl 2-bromo-2-methylpropanedioate",
    "cn_name": "2-溴-2-甲基丙二酸二乙酯;",
    "alternate_name": "Propanedioic acid, 2-bromo-2-methyl-, 1,3-diethyl ester;Malonic acid, bromomethyl-, diethyl ester;Propanedioic acid, bromomethyl-, diethyl ester;1,3-Diethyl 2-bromo-2-methylpropanedioate;Diethyl 2-bromo-2-methylmalonate;Diethyl bromomethylmalonate;Diethyl methylbromomalonate;Diethyl α-bromo-α-methylmalonate;NSC 10117;2-Bromo-2-methylmalonic acid diethyl ester;2-Bromo-2-methyl-propanedioic acid 1,3-diethyl ester",
    "duplicated_cas_no": "",
    "SMILES": "C(C(OCC)=O)(C(OCC)=O)(Br)C",
    "meta_data": {
        "InChI": "InChI=1S/C8H13BrO4/c1-4-12-6(10)8(3,9)7(11)13-5-2/h4-5H2,1-3H3",
        "InChIKey": null,
        "Canonical SMILES": "O=C(OCC)C(Br)(C(=O)OCC)C",
        "Molecular Formula": "C<sub>8</sub>H<sub>13</sub>BrO<sub>4</sub>",
        "Molecular Mass": "253.09",
        "Boiling Point": "122 °C @ Press: 13 Torr",
        "Density": "1.3500 g/cm³ @ Temp: 20 °C"
    }
}