{
    "cas_no": "505-66-8",
    "key_name": "Homopiperazine",
    "cn_name": "高哌嗪;1,4-二氮环庚烷;",
    "alternate_name": "1<em>H</em>-1,4-Diazepine, hexahydro-;Hexahydro-1<em>H</em>-1,4-diazepine;1,4-Diazacycloheptane;Hexahydro-1,4-diazepine;Homopiperazine;Trimethyleneethylenediamine;Perhydro-1,4-diazepine;1,4-Diazepane",
    "duplicated_cas_no": "",
    "SMILES": "C1CNCCNC1",
    "meta_data": {
        "InChI": "InChI=1S/C5H12N2/c1-2-6-4-5-7-3-1/h6-7H,1-5H2",
        "InChIKey": null,
        "Canonical SMILES": "N1CCNCCC1",
        "Molecular Formula": "C<sub>5</sub>H<sub>12</sub>N<sub>2</sub>",
        "Molecular Mass": "100.16",
        "Boiling Point": "168-170 °C",
        "Melting Point": "42 °C"
    }
}