{
    "cas_no": "17754-90-4",
    "key_name": "4-(Diethylamino)-2-hydroxybenzaldehyde",
    "cn_name": "4-(二乙氨基)水杨醛;2-羟基-4-二乙氨基苯甲醛;间二乙氨基酚-6-醛;",
    "alternate_name": "Benzaldehyde, 4-(diethylamino)-2-hydroxy-;Salicylaldehyde, 4-(diethylamino)-;4-(Diethylamino)-2-hydroxybenzaldehyde;4-(Diethylamino)salicylaldehyde;<em>p</em>-(Diethylamino)salicylaldehyde;4-(<em>N</em>,<em>N</em>-Diethylamino)-2-hydroxybenzaldehyde;4-(<em>N</em>,<em>N</em>-Diethylamino)salicylic aldehyde;4-(<em>N</em>,<em>N</em>-Diethylamino)salicylaldehyde",
    "duplicated_cas_no": "1436710-40-5",
    "SMILES": "N(CC)(CC)C1=CC(O)=C(C=O)C=C1",
    "meta_data": {
        "InChI": "InChI=1S/C11H15NO2/c1-3-12(4-2)10-6-5-9(8-13)11(14)7-10/h5-8,14H,3-4H2,1-2H3",
        "InChIKey": null,
        "Canonical SMILES": "O=CC1=CC=C(C=C1O)N(CC)CC",
        "Molecular Formula": "C<sub>11</sub>H<sub>15</sub>NO<sub>2</sub>",
        "Molecular Mass": "193.24",
        "Melting Point": "227-228 °C"
    }
}