{
    "cas_no": "107-64-2",
    "key_name": "Distearyldimethylammonium chloride",
    "cn_name": "双十八烷基二甲基氯化铵;双氢化牛脂基二甲基氯化铵;",
    "alternate_name": "1-Octadecanaminium, <em>N</em>,<em>N</em>-dimethyl-<em>N</em>-octadecyl-, chloride (1:1);Dimethyldioctadecylammonium chloride;Ammonium, dimethyldioctadecyl-, chloride;1-Octadecanaminium, <em>N</em>,<em>N</em>-dimethyl-<em>N</em>-octadecyl-, chloride;Aliquat 207;Talofloc;<em>N</em>,<em>N</em>-Dioctadecyl-<em>N</em>,<em>N</em>-dimethylammonium chloride;KD 83;Arquad R 40;Arosurf TA 100;Quaternium 5;Varisoft 100;Genamin DSAC;Di-<em>n</em>-octadecyldimethylammonium chloride;Dimethyldistearylammonium chloride;Cedequat TD 75;Surfroyal DSAC;Sokalan 9200;Arquad 218-100;Arquad 218-100P;Ammonyx 2200P100;Dioctadecyldimethylammonium chloride;Distearyldimethylammonium chloride;Kemamine Q 9702CLP;Dehyquart DAM;CA 3475;Distearyldimonium chloride;Adogen TA 100;Quartamin D 86;Cation DS;DODAC;Quartamin DM 86P;DODA(Cl);Varisoft TA 100;Arosurf TA 101;Aerosurf TA 101;Arquad 218P75E;Dimethyldioctadecanylammonium chloride;HYQMD 1821C;Genamin DSAC 20;Arquad 2HP;Ammoeng 130;Nikkol CA 3475V;TA 101;DHAC;Swanol CA 3475;Quartamin D 85P;Arquad 2HP-75;Genamin DSAP;Cation DSV;Quartamin D 86P;D 86P;Distearic dimethyl ammonium chloride;D 1821;Pionin B 8811;Lipoquad 2HP75;Genamin DSAC 75;Preapagem WB;Cationic surfactant 1821;Fentacare 1821;Alkylquat AQ 2",
    "duplicated_cas_no": "12677-13-3;59111-82-9;66359-86-2;76723-98-3;129119-79-5;134191-39-2;1309573-29-2",
    "SMILES": "C([N+](CCCCCCCCCCCCCCCCCC)(C)C)CCCCCCCCCCCCCCCCC.[Cl-]",
    "meta_data": {
        "InChI": "InChI=1S/C38H80N.ClH/c1-5-7-9-11-13-15-17-19-21-23-25-27-29-31-33-35-37-39(3,4)38-36-34-32-30-28-26-24-22-20-18-16-14-12-10-8-6-2;/h5-38H2,1-4H3;1H/q+1;/p-1",
        "InChIKey": null,
        "Canonical SMILES": "[Cl-].CCCCCCCCCCCCCCCCCC[N+](C)(C)CCCCCCCCCCCCCCCCCC",
        "Molecular Formula": "C<sub>38</sub>H<sub>80</sub>N.Cl",
        "Molecular Mass": "",
        "Melting Point": "67 °C",
        "Density": "0.86 g/cm³ @ Temp: 60 °C"
    }
}