{
    "cas_no": "16533-72-5",
    "key_name": "<em>cis</em>-Epoxysuccinate",
    "cn_name": "cis-环氧琥珀酸;",
    "alternate_name": "2,3-Oxiranedicarboxylic acid, (2<em>R</em>,3<em>S</em>)-<em>rel</em>-;Succinic acid, epoxy-, <em>cis</em>-;2,3-Oxiranedicarboxylic acid, <em>cis</em>-;<em>rel</em>-(2<em>R</em>,3<em>S</em>)-2,3-Oxiranedicarboxylic acid;<em>cis</em>-Epoxysuccinic acid;1-Oxacyclopropane-<em>cis</em>-2,3-dicarboxylic acid;<em>cis</em>-2,3-Oxiranedicarboxylic acid;<em>cis</em>-2,3-Epoxysuccinic acid;<em>cis</em>-Epoxysuccinate;Epoxymaleic acid",
    "duplicated_cas_no": "",
    "SMILES": "C(O)(=O)[C@H]1[C@@H](C(O)=O)O1",
    "meta_data": {
        "InChI": "InChI=1/C4H4O5/c5-3(6)1-2(9-1)4(7)8/h1-2H,(H,5,6)(H,7,8)/t1-,2+",
        "InChIKey": null,
        "Canonical SMILES": "O=C(O)C1OC1C(=O)O",
        "Molecular Formula": "C<sub>4</sub>H<sub>4</sub>O<sub>5</sub>",
        "Molecular Mass": "132.07",
        "Melting Point": "149 °C"
    }
}