{
    "cas_no": "10226-54-7",
    "key_name": "3,7-Dihydro-1,3-dimethyl-7-(5-oxohexyl)-1<em>H</em>-purine-2,6-dione",
    "cn_name": null,
    "alternate_name": "1<em>H</em>-Purine-2,6-dione, 3,7-dihydro-1,3-dimethyl-7-(5-oxohexyl)-;Theophylline, 7-(5-oxohexyl)-;3,7-Dihydro-1,3-dimethyl-7-(5-oxohexyl)-1<em>H</em>-purine-2,6-dione;7-(5-Oxohexyl)-1,3-dimethylxanthine;1,3-Dimethyl-7-(5-oxohexyl)xanthine;Cervilane;Lomifylline;1,3-Dimethyl-7-(5-oxohexyl)-1<em>H</em>-purine-2,6(3<em>H</em>,7<em>H</em>)-dione;1,3-Dimethyl-7-(5-oxohexyl)-2,3,6,7-tetrahydro-1<em>H</em>-purine-2,6-dione",
    "duplicated_cas_no": "",
    "SMILES": "C(CCCC(C)=O)N1C2=C(N(C)C(=O)N(C)C2=O)N=C1",
    "meta_data": {
        "InChI": "InChI=1S/C13H18N4O3/c1-9(18)6-4-5-7-17-8-14-11-10(17)12(19)16(3)13(20)15(11)2/h8H,4-7H2,1-3H3",
        "InChIKey": null,
        "Canonical SMILES": "O=C1C2=C(N=CN2CCCCC(=O)C)N(C(=O)N1C)C",
        "Molecular Formula": "C<sub>13</sub>H<sub>18</sub>N<sub>4</sub>O<sub>3</sub>",
        "Molecular Mass": "278.31",
        "Melting Point": "75-76 °C"
    }
}