{
    "cas_no": "2309-07-1",
    "key_name": "Methyl ferulate",
    "cn_name": null,
    "alternate_name": "2-Propenoic acid, 3-(4-hydroxy-3-methoxyphenyl)-, methyl ester;Cinnamic acid, 4-hydroxy-3-methoxy-, methyl ester;Methyl ferulate;Ferulic acid methyl ester;NSC 74548;Methyl 4′-hydroxy-3′-methoxycinnamate;3-(4-Hydroxy-3-methoxyphenyl)-2-propenoic acid methyl ester",
    "duplicated_cas_no": "",
    "SMILES": "C(=CC(OC)=O)C1=CC(OC)=C(O)C=C1",
    "meta_data": {
        "InChI": "InChI=1S/C11H12O4/c1-14-10-7-8(3-5-9(10)12)4-6-11(13)15-2/h3-7,12H,1-2H3",
        "InChIKey": null,
        "Canonical SMILES": "O=C(OC)C=CC1=CC=C(O)C(OC)=C1",
        "Molecular Formula": "C<sub>11</sub>H<sub>12</sub>O<sub>4</sub>",
        "Molecular Mass": "208.21",
        "Boiling Point": "163 °C @ Press: 1 Torr",
        "Melting Point": "65 °C"
    }
}