{
    "cas_no": "1760-24-3",
    "key_name": "<em>N</em>-(2-Aminoethyl)-3-aminopropyltrimethoxysilane",
    "cn_name": "N-(beta-氨乙基)-gama-氨丙基三甲氧基硅烷;",
    "alternate_name": "1,2-Ethanediamine, <em>N</em><sup>1</sup>-[3-(trimethoxysilyl)propyl]-;Ethylenediamine, <em>N</em>-[3-(trimethoxysilyl)propyl]-;1,2-Ethanediamine, <em>N</em>-[3-(trimethoxysilyl)propyl]-;<em>N</em><sup>1</sup>-[3-(Trimethoxysilyl)propyl]-1,2-ethanediamine;<em>N</em>-[3-(Trimethoxysilyl)propyl]ethylenediamine;γ-(Ethylenediamino)propyltrimethoxysilane;Trimethoxy[3-[(2-aminoethyl)amino]propyl]silane;[3-[(2-Aminoethyl)amino]propyl]trimethoxysilane;Dow Corning Z 6020;<em>N</em>-(Trimethoxysilylpropyl)ethylenediamine;[γ-(β-Aminoethylamino)propyl]trimethoxysilane;A 1120;(Trimethoxysilylpropyl)ethylenediamine;KBM 603;3-[<em>N</em>-(2-Aminoethyl)amino]propyltrimethoxysilane;<em>N</em>-[3-(Trimethoxysilyl)propyl]-1,2-ethylenediamine;SH 6020;AP 132;[<em>N</em>-(2-Aminoethyl)-γ-aminopropyl]trimethoxysilane;<em>N</em>-[3-(Trimethoxysilyl)propyl]-1,2-ethanediamine;GF 91;NUCA 1120;γ-(2-Aminoethyl)aminopropyltrimethoxysilane;AAS-M;<em>N</em>-Aminoethyl-3-aminopropyltrimethoxysilane;Z 6020;A 0700;en-APTAS;TSL 8340;Prosil 3128;<em>N</em>-(β-Aminoethyl)-γ-aminopropyltrimethoxysilane;LS 2480;KH 792;Silane A 1120;SZ 6020;Z 6026;Hydrosil 2776;A 1122;Silquest A 1120;Sila-Ace S 320;<em>N</em>-(β-Aminoethyl)-3-aminopropyltrimethoxysilane;3-(Trimethoxysilyl)propylethylenediamine;<em>N</em>-(Aminoethyl)aminopropyltrimethoxysilane;AO 700;A 1200;A 1200 (amine);<em>N</em>-(2-Aminoethyl)-3-aminopropyltrimethoxysilane;S 320;Z 6094;K 1600;Dynasylan DAMO-T;6-Amino-4-azahexyltrimethoxysilane;U 15;U 15 (coupling agent);LS 3750;G 91;G 91 (coupling agent);Dynasylan DAMO;Unisilan 15;(2-Aminoethyl)(3-(trimethoxysilyl)propyl)amine;SIA 0591.0;U 15D;SG-SI 900;Z 6121;JH 53;YDH 792;Toray Silicone SH 6020;SI 900;DC-Z 6020;Geniosil GF 91;Geniosil GF 9;Aminoethylaminopropyltrimethoxysilane;3-(<em>N</em>-Aminoethyl)aminopropyltrimethoxysilane;<em>N</em>-(2-Aminoethyl)-3-(trimethoxysilyl)propylamine;Z 6094N;Dynasylan DAMO-P;DAMO-P;Silane A 0700;(β-Aminoethyl)-γ-aminopropyltrimethoxysilane;HD 107;Gelest SIA 0591.0;(γ-Ethylenediaminepropyl)trimethoxysilane;HC 792;DAMO-T;γ-Aminoethylaminopropyltrimethoxysilane;DB 792;<em>N</em>-Aminoethyl-γ-aminopropyltrimethoxysilane;Xiameter OFS 6020;ZH 1301;SH 6020P;TMED;OFS 6020;U 156;3-Ethylenediaminopropyltrimethoxysilane;Silquest A 1200;N1-[3-(Trimethoxysilanyl)propyl]ethane-1,2-diamine;Silquest A 1122;DAMO;LMD 1120;[3-(2-Aminoethylamino)propyl]trimethoxylsilane;2-Aminoethylaminopropyltrimethoxysilane;KH 900;WD 51;SCA-A 20M;A 0774;LT 792;CG 792;<em>N</em>-(β-Aminoethyl)-g-aminopropylmethyldimethoxysilane;Dow Corning 6121;SCA 603;Xiameter OFS 6094;KH 729;(Ethylenediaminopropyl)trimethoxysilane;(Ethylenediaminepropyl)trimethoxysilane;GF 9;LD 792;ESL 8340;N-(Beta-aminoethyl)-gamma-aminopropyl-trimethoxy-silane;Dowsil Z 6094;T 101385;Dowsil Z 6020 Silane;Silanol A 1120;JH-A 112;SiSiB PC 1200",
    "duplicated_cas_no": "37251-12-0;53241-21-7;77238-27-8;116711-38-7;127120-81-4;143178-75-0;165168-67-2;184049-27-2;327596-19-0;460988-69-6;467420-00-4;663911-35-1;864240-63-1;1020103-35-8;1259320-26-7;1426546-25-9;1818195-86-6;2635390-46-2",
    "SMILES": "[Si](CCCNCCN)(OC)(OC)OC",
    "meta_data": {
        "InChI": "InChI=1S/C8H22N2O3Si/c1-11-14(12-2,13-3)8-4-6-10-7-5-9/h10H,4-9H2,1-3H3",
        "InChIKey": null,
        "Canonical SMILES": "O(C)[Si](OC)(OC)CCCNCCN",
        "Molecular Formula": "C<sub>8</sub>H<sub>22</sub>N<sub>2</sub>O<sub>3</sub>Si",
        "Molecular Mass": "222.36",
        "Boiling Point": "140 °C @ Press: 15 Torr",
        "Density": "1.010 g/cm³ @ Temp: 25 °C"
    }
}