{
    "cas_no": "1513-65-1",
    "key_name": "2,6-Difluoropyridine",
    "cn_name": "2,6-二氟吡啶;",
    "alternate_name": "Pyridine, 2,6-difluoro-;2,6-Difluoropyridine;NSC 331814",
    "duplicated_cas_no": "",
    "SMILES": "FC=1N=C(F)C=CC1",
    "meta_data": {
        "InChI": "InChI=1S/C5H3F2N/c6-4-2-1-3-5(7)8-4/h1-3H",
        "InChIKey": null,
        "Canonical SMILES": "FC=1N=C(F)C=CC1",
        "Molecular Formula": "C<sub>5</sub>H<sub>3</sub>F<sub>2</sub>N",
        "Molecular Mass": "115.08",
        "Boiling Point": "125 °C"
    }
}