{
    "cas_no": "69308-37-8",
    "key_name": "(-)-Baclofen",
    "cn_name": "(R)-4-氨基-3-(4-氯苯基)丁酸;",
    "alternate_name": "Benzenepropanoic acid, β-(aminomethyl)-4-chloro-, (β<em>R</em>)-;Benzenepropanoic acid, β-(aminomethyl)-4-chloro-, (<em>R</em>)-;(β<em>R</em>)-β-(Aminomethyl)-4-chlorobenzenepropanoic acid;<em>l</em>-Baclofen;(-)-Baclofen;(<em>R</em>)-Baclofen;(<em>R</em>)-(-)-Baclofen;(<em>R</em>)-4-Amino-3-(4-chlorophenyl)butanoic acid;<span class=\"text-smallcaps\">D</span>-Baclofen;R-(-)-Baclofen;(R)-4-Amino-3-(4-chlorophenyl)butyric acid;Arbaclofen;STX 209;AGI 006;(R)-4-Amino-3-(4-chlorophenyl)butanoic acid;(3R)-4-Amino-3-(4-chlorophenyl)butanoic acid",
    "duplicated_cas_no": "2375745-79-0",
    "SMILES": "[C@H](CC(O)=O)(CN)C1=CC=C(Cl)C=C1",
    "meta_data": {
        "InChI": "InChI=1S/C10H12ClNO2/c11-9-3-1-7(2-4-9)8(6-12)5-10(13)14/h1-4,8H,5-6,12H2,(H,13,14)/t8-/m0/s1",
        "InChIKey": null,
        "Canonical SMILES": "O=C(O)CC(C1=CC=C(Cl)C=C1)CN",
        "Molecular Formula": "C<sub>10</sub>H<sub>12</sub>ClNO<sub>2</sub>",
        "Molecular Mass": "213.66",
        "Melting Point": "188-189 °C"
    }
}