{
    "cas_no": "3621-36-1",
    "key_name": "Columbamine",
    "cn_name": null,
    "alternate_name": "Dibenzo[<em>a</em>,<em>g</em>]quinolizinium, 5,6-dihydro-2-hydroxy-3,9,10-trimethoxy-;Berbinium, 7,8,13,13a-tetradehydro-2-hydroxy-3,9,10-trimethoxy-;Columbamine;5,6-Dihydro-2-hydroxy-3,9,10-trimethoxydibenzo[<em>a</em>,<em>g</em>]quinolizinium;Columbamin;Dehydroisocorypalmine",
    "duplicated_cas_no": "",
    "SMILES": "OC=1C=C2C=3[N+](=CC=4C(C3)=CC=C(OC)C4OC)CCC2=CC1OC",
    "meta_data": {
        "InChI": "InChI=1S/C20H19NO4/c1-23-18-5-4-12-8-16-14-10-17(22)19(24-2)9-13(14)6-7-21(16)11-15(12)20(18)25-3/h4-5,8-11H,6-7H2,1-3H3/p+1",
        "InChIKey": null,
        "Canonical SMILES": "OC=1C=C2C=3C=C4C=CC(OC)=C(OC)C4=C[N+]3CCC2=CC1OC",
        "Molecular Formula": "C<sub>20</sub>H<sub>20</sub>NO<sub>4</sub>",
        "Molecular Mass": "",
        "Melting Point": "280-282 °C"
    }
}