{
    "cas_no": "3721-95-7",
    "key_name": "Cyclobutanecarboxylic acid",
    "cn_name": "环丁基甲酸;",
    "alternate_name": "Cyclobutanecarboxylic acid;Cyclobutylcarboxylic acid;Cyclobutane-1-carboxylic acid;NSC 4535;Cyclobutanoic acid",
    "duplicated_cas_no": "",
    "SMILES": "C(O)(=O)C1CCC1",
    "meta_data": {
        "InChI": "InChI=1S/C5H8O2/c6-5(7)4-2-1-3-4/h4H,1-3H2,(H,6,7)",
        "InChIKey": null,
        "Canonical SMILES": "O=C(O)C1CCC1",
        "Molecular Formula": "C<sub>5</sub>H<sub>8</sub>O<sub>2</sub>",
        "Molecular Mass": "100.12",
        "Boiling Point": "190 °C",
        "Melting Point": "-2 °C",
        "Density": "1.0470 g/cm³ @ Temp: 420 °C"
    }
}