{
    "cas_no": "105-33-9",
    "key_name": "4-Chloro-3-hydroxybutanenitrile",
    "cn_name": null,
    "alternate_name": "Butanenitrile, 4-chloro-3-hydroxy-;Butyronitrile, 4-chloro-3-hydroxy-;4-Chloro-3-hydroxybutanenitrile;4-Chloro-3-hydroxybutyronitrile;γ-Chloro-β-hydroxybutyronitrile;1-Chloro-3-cyano-2-propanol",
    "duplicated_cas_no": "637-75-2",
    "SMILES": "C(CC#N)(CCl)O",
    "meta_data": {
        "InChI": "InChI=1S/C4H6ClNO/c5-3-4(7)1-2-6/h4,7H,1,3H2",
        "InChIKey": null,
        "Canonical SMILES": "N#CCC(O)CCl",
        "Molecular Formula": "C<sub>4</sub>H<sub>6</sub>ClNO",
        "Molecular Mass": "119.55",
        "Boiling Point": "138-141 °C @ Press: 18 Torr",
        "Density": "1.2515 g/cm³ @ Temp: 22 °C"
    }
}