{
    "cas_no": "72-18-4",
    "key_name": "<span class=\"text-smallcaps\">L</span>-Valine",
    "cn_name": "L-缬氨酸;L-2-氨基-3-甲基丁酸;",
    "alternate_name": "<span class=\"text-smallcaps\">L</span>-Valine;Valine, <span class=\"text-smallcaps\">L</span>-;<span class=\"text-smallcaps\">L</span>-(+)-α-Aminoisovaleric acid;Valine;Butanoic acid, 2-amino-3-methyl-, (<em>S</em>)-;(<em>S</em>)-2-Amino-3-methylbutyric acid;2-Amino-3-methylbutanoic acid;(<em>S</em>)-Valine;(<em>S</em>)-2-Amino-3-methylbutanoic acid;(<em>S</em>)-α-Amino-β-methylbutyric acid;<span class=\"text-smallcaps\">L</span>-α-Amino-β-methylbutyric acid;NSC 76038;(2<em>S</em>)-2-Amino-3-methylbutanoic acid;(+)-2-Amino-3-methylbutyric acid;(2S)-2-Amino-3-methylbutanoic acid;(2S)-2-Azaniumyl-3-methylbutanoate;MeSH ID: D014633",
    "duplicated_cas_no": "7004-03-7;16872-32-5;154605-70-6;1613375-16-8",
    "SMILES": "[C@H](C(C)C)(C(O)=O)N",
    "meta_data": {
        "InChI": "InChI=1S/C5H11NO2/c1-3(2)4(6)5(7)8/h3-4H,6H2,1-2H3,(H,7,8)/t4-/m0/s1",
        "InChIKey": null,
        "Canonical SMILES": "O=C(O)C(N)C(C)C",
        "Molecular Formula": "C<sub>5</sub>H<sub>11</sub>NO<sub>2</sub>",
        "Molecular Mass": "117.15",
        "Melting Point": "315 °C",
        "Density": "1.32 g/cm³"
    }
}