{
    "cas_no": "938-97-6",
    "key_name": "<span class=\"text-smallcaps\">DL</span>-<em>p</em>-Hydroxyphenylglycine",
    "cn_name": "4-羟基苯甘氨酸;对羟基苯甘氨酸;",
    "alternate_name": "Benzeneacetic acid, α-amino-4-hydroxy-;Glycine, 2-(<em>p</em>-hydroxyphenyl)-;α-Amino-4-hydroxybenzeneacetic acid;(4-Hydroxyphenyl)glycine;α-(4-Hydroxyphenyl)glycine;α-(<em>p</em>-Hydroxyphenyl)glycine;α-Amino-<em>p</em>-hydroxyphenylacetic acid;2-(4-Hydroxyphenyl)glycine;<span class=\"text-smallcaps\">DL</span>-2-(<em>p</em>-Hydroxyphenyl)glycine;(±)-α-Amino-4-hydroxybenzeneacetic acid;<span class=\"text-smallcaps\">DL</span>-2-(4-Hydroxyphenyl)glycine;<span class=\"text-smallcaps\">DL</span>-<em>p</em>-Hydroxyphenylglycine;(±)-2-(4-Hydroxyphenyl)glycine;(±)-Amino(<em>p</em>-hydroxyphenyl)acetic acid;<span class=\"text-smallcaps\">DL</span>-α-Amino(4-hydroxyphenyl)acetic acid;(±)-<em>p</em>-Hydroxyphenylglycine;<span class=\"text-smallcaps\">DL</span>-4-Hydroxyphenylglycine;(<em>RS</em>)-2-(4-Hydroxyphenyl)glycine;(±)-2-(<em>p</em>-Hydroxyphenyl)glycine;<em>p</em>-Hydroxyphenylglycine;NSC 30081;α-Amino-4-hydroxyphenylacetic acid;2-Amino-2-(4-hydroxyphenyl)aceticacid;2-Amino-2-(4-hydroxyphenyl)acetic acid",
    "duplicated_cas_no": "6324-01-2",
    "SMILES": "C(C(O)=O)(N)C1=CC=C(O)C=C1",
    "meta_data": {
        "InChI": "InChI=1S/C8H9NO3/c9-7(8(11)12)5-1-3-6(10)4-2-5/h1-4,7,10H,9H2,(H,11,12)",
        "InChIKey": null,
        "Canonical SMILES": "O=C(O)C(N)C1=CC=C(O)C=C1",
        "Molecular Formula": "C<sub>8</sub>H<sub>9</sub>NO<sub>3</sub>",
        "Molecular Mass": "167.16",
        "Melting Point": "229-230 °C"
    }
}