{
    "cas_no": "54814-64-1",
    "key_name": "(±)-Massoia lactone",
    "cn_name": null,
    "alternate_name": "2<em>H</em>-Pyran-2-one, 5,6-dihydro-6-pentyl-;2-Decenoic acid, 5-hydroxy-, δ-lactone;5,6-Dihydro-6-pentyl-2<em>H</em>-pyran-2-one;(±)-Massoia lactone;(±)-Massoilactone;(±)-Massoja decalactone;2-Decen-5-olide;6-Pentyl-5,6-dihydropyran-2-one",
    "duplicated_cas_no": "501-23-5;21488-85-7",
    "SMILES": "C(CCCC)C1OC(=O)C=CC1",
    "meta_data": {
        "InChI": "InChI=1S/C10H16O2/c1-2-3-4-6-9-7-5-8-10(11)12-9/h5,8-9H,2-4,6-7H2,1H3",
        "InChIKey": null,
        "Canonical SMILES": "O=C1OC(CC=C1)CCCCC",
        "Molecular Formula": "C<sub>10</sub>H<sub>16</sub>O<sub>2</sub>",
        "Molecular Mass": "168.23",
        "Boiling Point": "85-86 °C @ Press: 0.07 Torr",
        "Density": "0.9785 g/cm³ @ Temp: 21 °C"
    }
}