{
    "cas_no": "6949-73-1",
    "key_name": "2-Hydroxyfluorenone",
    "cn_name": null,
    "alternate_name": "9<em>H</em>-Fluoren-9-one, 2-hydroxy-;Fluoren-9-one, 2-hydroxy-;2-Hydroxy-9<em>H</em>-fluoren-9-one;2-Hydroxyfluorenone;2-Hydroxyfluoren-9-one;NSC 22835",
    "duplicated_cas_no": "",
    "SMILES": "O=C1C=2C(C=3C1=CC=CC3)=CC=C(O)C2",
    "meta_data": {
        "InChI": "InChI=1S/C13H8O2/c14-8-5-6-10-9-3-1-2-4-11(9)13(15)12(10)7-8/h1-7,14H",
        "InChIKey": null,
        "Canonical SMILES": "O=C1C=2C=CC=CC2C=3C=CC(O)=CC13",
        "Molecular Formula": "C<sub>13</sub>H<sub>8</sub>O<sub>2</sub>",
        "Molecular Mass": "196.20",
        "Melting Point": "205 °C"
    }
}