{
    "cas_no": "7311-30-0",
    "key_name": "<em>N</em>-Methyl-1-dodecanamine",
    "cn_name": "N-十二烷基甲胺;",
    "alternate_name": "1-Dodecanamine, <em>N</em>-methyl-;Dodecylamine, <em>N</em>-methyl-;<em>N</em>-Methyl-1-dodecanamine;<em>N</em>-Methyldodecylamine;Laurylmethylamine;Dodecylmethylamine;<em>N</em>-<em>n</em>-Dodecyl-<em>N</em>-methylamine;<em>N</em>-<em>n</em>-Dodecylmethylamine;<em>N</em>-Methyldodecanamine;<em>N</em>-Dodecylmethylamine;<em>N</em>-Lauryl-<em>N</em>-methylamine;<em>N</em>-Methyl-<em>N</em>-dodecylamine;NSC 165791;<em>N</em>-Methyl-1-aminododecane",
    "duplicated_cas_no": "",
    "SMILES": "C(CCCCCNC)CCCCCC",
    "meta_data": {
        "InChI": "InChI=1S/C13H29N/c1-3-4-5-6-7-8-9-10-11-12-13-14-2/h14H,3-13H2,1-2H3",
        "InChIKey": null,
        "Canonical SMILES": "N(C)CCCCCCCCCCCC",
        "Molecular Formula": "C<sub>13</sub>H<sub>29</sub>N",
        "Molecular Mass": "199.38",
        "Boiling Point": "108-110 °C",
        "Melting Point": "18-19 °C"
    }
}