{
    "cas_no": "1610-39-5",
    "key_name": "Dodecahydrotriphenylene",
    "cn_name": "十二氢苯并菲;十二氢三亚苯;",
    "alternate_name": "Triphenylene, 1,2,3,4,5,6,7,8,9,10,11,12-dodecahydro-;1,2,3,4,5,6,7,8,9,10,11,12-Dodecahydrotriphenylene;Tritetralin;Dodecahydrotriphenylene;NSC 26930",
    "duplicated_cas_no": "",
    "SMILES": "C=12C3=C(C4=C(C1CCCC2)CCCC4)CCCC3",
    "meta_data": {
        "InChI": "InChI=1S/C18H24/c1-2-8-14-13(7-1)15-9-3-4-11-17(15)18-12-6-5-10-16(14)18/h1-12H2",
        "InChIKey": null,
        "Canonical SMILES": "C=12C(=C3C(=C4C1CCCC4)CCCC3)CCCC2",
        "Molecular Formula": "C<sub>18</sub>H<sub>24</sub>",
        "Molecular Mass": "240.38",
        "Boiling Point": "180-210 °C @ Press: 1.5 Torr",
        "Melting Point": "232-233 °C"
    }
}