{
    "cas_no": "7517-76-2",
    "key_name": "<em>trans</em>-1,4-Diisocyanatocyclohexane",
    "cn_name": null,
    "alternate_name": "Cyclohexane, 1,4-diisocyanato-, <em>trans</em>-;Isocyanic acid, 1,4-cyclohexylene ester, <em>trans</em>-;<em>trans</em>-1,4-Diisocyanatocyclohexane;<em>trans</em>-1,4-Cyclohexanediisocyanate;<em>trans</em>-1,4-Cyclohexylene diisocyanate;<em>trans</em>-1,4-Cyclohexylene isocyanate;<em>trans</em>-1,4-Cyclohexadiylbis(isocyanate)",
    "duplicated_cas_no": "",
    "SMILES": "N(=C=O)[C@H]1CC[C@H](N=C=O)CC1",
    "meta_data": {
        "InChI": "InChI=1/C8H10N2O2/c11-5-9-7-1-2-8(4-3-7)10-6-12/h7-8H,1-4H2/t7-,8-",
        "InChIKey": null,
        "Canonical SMILES": "O=C=NC1CCC(N=C=O)CC1",
        "Molecular Formula": "C<sub>8</sub>H<sub>10</sub>N<sub>2</sub>O<sub>2</sub>",
        "Molecular Mass": "166.18",
        "Boiling Point": "145-146 °C @ Press: 32 Torr"
    }
}