{
    "cas_no": "603-50-9",
    "key_name": "Bisacodyl",
    "cn_name": "比沙可啶;4,4\"-(2-吡啶亚甲基)双酚二乙酸酯;",
    "alternate_name": "Phenol, 4,4′-(2-pyridinylmethylene)bis-, 1,1′-diacetate;Phenol, 4,4′-(2-pyridylmethylene)di-, diacetate (ester);Phenol, 4,4′-(2-pyridinylmethylene)bis-, diacetate (ester);Phenol, 4,4′-(2-pyridylmethylene)di-, diacetate;Bis(<em>p</em>-acetoxyphenyl)-2-pyridylmethane;Bisacodyl;Dulcolan;Dulcolax;LA96a;Laxans;4,4′-(2-Pyridylmethylene)diphenol diacetate;Pyrilax;Brocalax;Telemin;Nigalax;Laco;Laxadin;Laxorex;Durolax;Perilax;Hillcolax;Ivilax;Sanvacual;Neolax;Videx;Zetrax;Laxine;Fenilaxan;Bicol;Theralax;Godalax;Endokolat;Correctol Caplets;Broxalax;Laxanin N;Contralax;Stadalax;Ulcol;Correctol Tablets;Feen-a-Mint Tablets;SK-Bisacodyl;DAMP;Eulaxan;NSC 614826;Prepacol;Fleet;Alophen;(Pyridin-2-ylmethylene)bis(4,1-phenylene) diacetate;MeSH ID: D001726",
    "duplicated_cas_no": "",
    "SMILES": "C(C1=CC=C(OC(C)=O)C=C1)(C2=CC=C(OC(C)=O)C=C2)C3=CC=CC=N3",
    "meta_data": {
        "InChI": "InChI=1S/C22H19NO4/c1-15(24)26-19-10-6-17(7-11-19)22(21-5-3-4-14-23-21)18-8-12-20(13-9-18)27-16(2)25/h3-14,22H,1-2H3",
        "InChIKey": null,
        "Canonical SMILES": "O=C(OC1=CC=C(C=C1)C(C2=NC=CC=C2)C3=CC=C(OC(=O)C)C=C3)C",
        "Molecular Formula": "C<sub>22</sub>H<sub>19</sub>NO<sub>4</sub>",
        "Molecular Mass": "361.39",
        "Melting Point": "138 °C"
    }
}