{
    "cas_no": "19434-34-5",
    "key_name": "2-Phenoxybenzaldehyde",
    "cn_name": "2-苯氧基苯甲醛;",
    "alternate_name": "Benzaldehyde, 2-phenoxy-;Benzaldehyde, <em>o</em>-phenoxy-;2-Phenoxybenzaldehyde;<em>o</em>-Phenoxybenzaldehyde",
    "duplicated_cas_no": "2750419-40-8",
    "SMILES": "O(C1=C(C=O)C=CC=C1)C2=CC=CC=C2",
    "meta_data": {
        "InChI": "InChI=1S/C13H10O2/c14-10-11-6-4-5-9-13(11)15-12-7-2-1-3-8-12/h1-10H",
        "InChIKey": null,
        "Canonical SMILES": "O=CC=1C=CC=CC1OC=2C=CC=CC2",
        "Molecular Formula": "C<sub>13</sub>H<sub>10</sub>O<sub>2</sub>",
        "Molecular Mass": "198.22",
        "Boiling Point": "150-153 °C @ Press: 1 Torr"
    }
}