{
    "cas_no": "579-13-5",
    "key_name": "Oligomycin A",
    "cn_name": null,
    "alternate_name": "Spiro[2,26-dioxabicyclo[23.3.1]nonacosa-4,18,20-triene-27,2′-[2<em>H</em>]pyran]-3,9,13-trione, 22-ethyl-3′,4′,5′,6′-tetrahydro-7,11,14,15-tetrahydroxy-6′-[(2<em>R</em>)-2-hydroxypropyl]-5′,6,8,10,12,14,16,28,29-nonamethyl-, (1<em>R</em>,2′<em>R</em>,4<em>E</em>,5′<em>S</em>,6<em>S</em>,6′<em>S</em>,7<em>R</em>,8<em>S</em>,10<em>R</em>,11<em>R</em>,12<em>S</em>,14<em>R</em>,15<em>S</em>,16<em>R</em>,18<em>E</em>,20<em>E</em>,22<em>R</em>,25<em>S</em>,28<em>S</em>,29<em>R</em>)-;Oligomycin A;Spiro[2,26-dioxabicyclo[23.3.1]nonacosane-27,2′-[2<em>H</em>]pyran], oligomycin A deriv.;(1<em>R</em>,2′<em>R</em>,4<em>E</em>,5′<em>S</em>,6<em>S</em>,6′<em>S</em>,7<em>R</em>,8<em>S</em>,10<em>R</em>,11<em>R</em>,12<em>S</em>,14<em>R</em>,15<em>S</em>,16<em>R</em>,18<em>E</em>,20<em>E</em>,22<em>R</em>,25<em>S</em>,28<em>S</em>,29<em>R</em>)-22-Ethyl-3′,4′,5′,6′-tetrahydro-7,11,14,15-tetrahydroxy-6′-[(2<em>R</em>)-2-hydroxypropyl]-5′,6,8,10,12,14,16,28,29-nonamethylspiro[2,26-dioxabicyclo[23.3.1]nonacosa-4,18,20-triene-27,2′-[2<em>H</em>]pyran]-3,9,13-trione;MCH 32",
    "duplicated_cas_no": "11030-76-5;21307-25-5;31422-20-5;1255037-37-6",
    "SMILES": "",
    "meta_data": {
        "InChI": "",
        "InChIKey": null,
        "Canonical SMILES": "",
        "Molecular Formula": "C<sub>45</sub>H<sub>74</sub>O<sub>11</sub>",
        "Molecular Mass": "791.06",
        "Melting Point": "140-141 °C",
        "Density": "1.116 g/cm³"
    }
}