{
    "cas_no": "18496-54-3",
    "key_name": "Benzenebutanoyl chloride",
    "cn_name": null,
    "alternate_name": "Benzenebutanoyl chloride;Butyryl chloride, 4-phenyl-;4-Phenylbutyryl chloride;4-Phenylbutanoyl chloride;γ-Phenylbutyric chloride;γ-Phenylbutyryl chloride;4-Phenylbutyric acid chloride",
    "duplicated_cas_no": "",
    "SMILES": "C(CCC(Cl)=O)C1=CC=CC=C1",
    "meta_data": {
        "InChI": "InChI=1S/C10H11ClO/c11-10(12)8-4-7-9-5-2-1-3-6-9/h1-3,5-6H,4,7-8H2",
        "InChIKey": null,
        "Canonical SMILES": "O=C(Cl)CCCC=1C=CC=CC1",
        "Molecular Formula": "C<sub>10</sub>H<sub>11</sub>ClO",
        "Molecular Mass": "182.65",
        "Boiling Point": "123-124 °C @ Press: 13 Torr",
        "Melting Point": "96.5-99 °C"
    }
}