{
    "cas_no": "36768-62-4",
    "key_name": "4-Amino-2,2,6,6-tetramethylpiperidine",
    "cn_name": "2,2,6,6-四甲基哌啶胺;4-氨基-2,2,6,6-四甲基哌啶;TEMP;",
    "alternate_name": "4-Piperidinamine, 2,2,6,6-tetramethyl-;2,2,6,6-Tetramethyl-4-piperidinamine;4-Amino-2,2,6,6-tetramethylpiperidine;2,2,6,6-Tetramethyl-4-aminopiperidine;2,2,6,6-Tetramethyl-4-piperidylamine;Triacetonediamine;NSC 102510;EP-S 299",
    "duplicated_cas_no": "118326-87-7;2434633-51-7",
    "SMILES": "CC1(C)NC(C)(C)CC(N)C1",
    "meta_data": {
        "InChI": "InChI=1S/C9H20N2/c1-8(2)5-7(10)6-9(3,4)11-8/h7,11H,5-6,10H2,1-4H3",
        "InChIKey": null,
        "Canonical SMILES": "NC1CC(NC(C)(C)C1)(C)C",
        "Molecular Formula": "C<sub>9</sub>H<sub>20</sub>N<sub>2</sub>",
        "Molecular Mass": "156.27",
        "Boiling Point": "188.5 °C",
        "Melting Point": "17 °C",
        "Density": "0.8966 g/cm³ @ Temp: 20 °C"
    }
}