{
    "cas_no": "30684-07-2",
    "key_name": "Benzenepropanamine, <em>N</em>-methyl-, hydrochloride (1:1)",
    "cn_name": null,
    "alternate_name": "Benzenepropanamine, <em>N</em>-methyl-, hydrochloride (1:1);Propylamine, <em>N</em>-methyl-3-phenyl-, hydrochloride;Benzenepropanamine, <em>N</em>-methyl-, hydrochloride;<em>N</em>-Methyl-3-phenylpropylammonium chloride",
    "duplicated_cas_no": "",
    "SMILES": "C(CCNC)C1=CC=CC=C1.Cl",
    "meta_data": {
        "InChI": "InChI=1S/C10H15N.ClH/c1-11-9-5-8-10-6-3-2-4-7-10;/h2-4,6-7,11H,5,8-9H2,1H3;1H",
        "InChIKey": null,
        "Canonical SMILES": "Cl.C=1C=CC(=CC1)CCCNC",
        "Molecular Formula": "C<sub>10</sub>H<sub>15</sub>N.ClH",
        "Molecular Mass": "",
        "Melting Point": "145.6-146.1 °C"
    }
}