{
    "cas_no": "637-27-4",
    "key_name": "Phenyl propionate",
    "cn_name": null,
    "alternate_name": "Propanoic acid, phenyl ester;Propionic acid, phenyl ester;Phenyl propionate;Phenyl propanoate;Phenol propionate;NSC 67977",
    "duplicated_cas_no": "",
    "SMILES": "O(C(CC)=O)C1=CC=CC=C1",
    "meta_data": {
        "InChI": "InChI=1S/C9H10O2/c1-2-9(10)11-8-6-4-3-5-7-8/h3-7H,2H2,1H3",
        "InChIKey": null,
        "Canonical SMILES": "O=C(OC=1C=CC=CC1)CC",
        "Molecular Formula": "C<sub>9</sub>H<sub>10</sub>O<sub>2</sub>",
        "Molecular Mass": "150.17",
        "Boiling Point": "211 °C",
        "Melting Point": "20 °C"
    }
}