{
    "cas_no": "21881-78-7",
    "key_name": "3,5-Bis(1-methylethyl) 1,4-dihydro-2,6-dimethyl-4-(3-nitrophenyl)-3,5-pyridinedicarboxylate",
    "cn_name": null,
    "alternate_name": "3,5-Pyridinedicarboxylic acid, 1,4-dihydro-2,6-dimethyl-4-(3-nitrophenyl)-, 3,5-bis(1-methylethyl) ester;3,5-Pyridinedicarboxylic acid, 1,4-dihydro-2,6-dimethyl-4-(<em>m</em>-nitrophenyl)-, diisopropyl ester;3,5-Pyridinedicarboxylic acid, 1,4-dihydro-2,6-dimethyl-4-(3-nitrophenyl)-, bis(1-methylethyl) ester;3,5-Bis(1-methylethyl) 1,4-dihydro-2,6-dimethyl-4-(3-nitrophenyl)-3,5-pyridinedicarboxylate;2,6-Dimethyl-4-(3-nitro-phenyl)-1,4-dihydro-pyridine-3,5-dicarboxylic acid diisopropyl ester",
    "duplicated_cas_no": "",
    "SMILES": "C(OC(C)C)(=O)C=1C(C(C(OC(C)C)=O)=C(C)NC1C)C2=CC(N(=O)=O)=CC=C2",
    "meta_data": {
        "InChI": "InChI=1S/C21H26N2O6/c1-11(2)28-20(24)17-13(5)22-14(6)18(21(25)29-12(3)4)19(17)15-8-7-9-16(10-15)23(26)27/h7-12,19,22H,1-6H3",
        "InChIKey": null,
        "Canonical SMILES": "O=C(OC(C)C)C1=C(NC(=C(C(=O)OC(C)C)C1C=2C=CC=C(C2)N(=O)=O)C)C",
        "Molecular Formula": "C<sub>21</sub>H<sub>26</sub>N<sub>2</sub>O<sub>6</sub>",
        "Molecular Mass": "402.44",
        "Melting Point": "122 °C"
    }
}