{
    "cas_no": "103-46-8",
    "key_name": "2-[(Phenylmethyl)thio]acetic acid",
    "cn_name": "S-苄基巯基乙酸;",
    "alternate_name": "Acetic acid, 2-[(phenylmethyl)thio]-;Acetic acid, (benzylthio)-;Acetic acid, [(phenylmethyl)thio]-;2-[(Phenylmethyl)thio]acetic acid;<em>S</em>-Benzylthioglycolic acid;Carboxymethyl benzyl sulfide;(Benzylthio)acetic acid;<em>S</em>-Benzylmercaptoacetic acid;NSC 26553;2-(Benzylthio)acetic acid;2-(Benzylsulfanyl)acetic acid;2-Benzylsulfanylacetic acid",
    "duplicated_cas_no": "",
    "SMILES": "C(SCC(O)=O)C1=CC=CC=C1",
    "meta_data": {
        "InChI": "InChI=1S/C9H10O2S/c10-9(11)7-12-6-8-4-2-1-3-5-8/h1-5H,6-7H2,(H,10,11)",
        "InChIKey": null,
        "Canonical SMILES": "O=C(O)CSCC=1C=CC=CC1",
        "Molecular Formula": "C<sub>9</sub>H<sub>10</sub>O<sub>2</sub>S",
        "Molecular Mass": "182.24",
        "Melting Point": "61 °C"
    }
}