{
    "cas_no": "526-06-7",
    "key_name": "(-)-Eudesmin",
    "cn_name": null,
    "alternate_name": "1<em>H</em>,3<em>H</em>-Furo[3,4-<em>c</em>]furan, 1,4-bis(3,4-dimethoxyphenyl)tetrahydro-, (1<em>R</em>,3a<em>S</em>,4<em>R</em>,6a<em>S</em>)-;1<em>H</em>,3<em>H</em>-Furo[3,4-<em>c</em>]furan, 1α,4α-bis(3,4-dimethoxyphenyl)-3aα,4,6,6aα-tetrahydro-, (-)-;1<em>H</em>,3<em>H</em>-Furo[3,4-<em>c</em>]furan, 1,4-bis(3,4-dimethoxyphenyl)tetrahydro-, [1<em>R</em>-(1α,3aα,4α,6aα)]-;Eudesamin;(1<em>R</em>,3a<em>S</em>,4<em>R</em>,6a<em>S</em>)-1,4-Bis(3,4-dimethoxyphenyl)tetrahydro-1<em>H</em>,3<em>H</em>-furo[3,4-<em>c</em>]furan;Eudesmin;(-)-Eudesmin;NSC 35476",
    "duplicated_cas_no": "",
    "SMILES": "O(C)C=1C=C([C@H]2[C@]3([C@]([C@@H](OC3)C4=CC(OC)=C(OC)C=C4)(CO2)[H])[H])C=CC1OC",
    "meta_data": {
        "InChI": "InChI=1S/C22H26O6/c1-23-17-7-5-13(9-19(17)25-3)21-15-11-28-22(16(15)12-27-21)14-6-8-18(24-2)20(10-14)26-4/h5-10,15-16,21-22H,11-12H2,1-4H3/t15-,16-,21+,22+/m1/s1",
        "InChIKey": null,
        "Canonical SMILES": "O(C1=CC=C(C=C1OC)C2OCC3C(OCC23)C4=CC=C(OC)C(OC)=C4)C",
        "Molecular Formula": "C<sub>22</sub>H<sub>26</sub>O<sub>6</sub>",
        "Molecular Mass": "386.44",
        "Melting Point": "107 °C"
    }
}