{
    "cas_no": "85-47-2",
    "key_name": "1-Naphthalenesulfonic acid",
    "cn_name": "1-萘磺酸;",
    "alternate_name": "1-Naphthalenesulfonic acid;α-Naphthalenesulfonic acid;HT 907;1-Sulfonaphthalene;1-Naphthylsulfonic acid",
    "duplicated_cas_no": "119020-53-0",
    "SMILES": "S(=O)(=O)(O)C=1C2=C(C=CC1)C=CC=C2",
    "meta_data": {
        "InChI": "InChI=1S/C10H8O3S/c11-14(12,13)10-7-3-5-8-4-1-2-6-9(8)10/h1-7H,(H,11,12,13)",
        "InChIKey": null,
        "Canonical SMILES": "O=S(=O)(O)C1=CC=CC=2C=CC=CC21",
        "Molecular Formula": "C<sub>10</sub>H<sub>8</sub>O<sub>3</sub>S",
        "Molecular Mass": "208.23",
        "Melting Point": "140 °C"
    }
}