{
    "cas_no": "7778-43-0",
    "key_name": "Sodium arsenate (Na<sub>2</sub>HAsO<sub>4</sub>)",
    "cn_name": "砷酸氢二钠;",
    "alternate_name": "Arsenic acid (H<sub>3</sub>AsO<sub>4</sub>), sodium salt (1:2);Arsenic acid (H<sub>3</sub>AsO<sub>4</sub>), disodium salt;Sodium biarsenate;Disodium arsenate;Disodium hydrogen arsenate;Sodium arsenate (Na<sub>2</sub>HAsO<sub>4</sub>);Disodium hydrogen orthoarsenate;Disodium monohydrogen arsenate;Hydrogen sodium arsenate (HNa<sub>2</sub>AsO<sub>4</sub>);Sodium arsenate dibasic",
    "duplicated_cas_no": "55957-14-7;1363218-52-3;2761943-12-6",
    "SMILES": "[As](=O)(O)(O)O.[Na]",
    "meta_data": {
        "InChI": "InChI=1S/AsH3O4.2Na/c2-1(3,4)5;;/h(H3,2,3,4,5);;",
        "InChIKey": null,
        "Canonical SMILES": "[Na].O=[As](O)(O)O",
        "Molecular Formula": "AsH<sub>3</sub>O<sub>4</sub>.2Na",
        "Molecular Mass": "",
        "Melting Point": "57 °C",
        "Density": "1.87 g/cm³"
    }
}