{
    "cas_no": "538-23-8",
    "key_name": "Tricaprylin",
    "cn_name": null,
    "alternate_name": "Octanoic acid, 1,1′,1′′-(1,2,3-propanetriyl) ester;Octanoin, tri-;Octanoic acid, 1,2,3-propanetriyl ester;Tricaprylin;Trioctanoin;RATO;Tricaprylic glyceride;Glyceryl trioctanoate;Glycerol tricaprylate;Glycerol trioctanoate;Octanoic acid triglyceride;Trioctanoylglycerol;Caprylic acid triglyceride;Glycerin tricaprylate;Tricaprylyl glycerin;Tricapryloylglycerol;Panacet 800;Glyceryl tricaprylate;Glycerin trioctanoate;Sefsol 810;Trioctanoylglyceride;Captex 8000;NI 01;Coconad RK;Rilanit GTC;Trivent OCG;NSC 4059;Paester 9306;Hexalan;Poem M 2;Hest TC;Tricaprilin;Emalex KTG;Delios 888;Caprylic triglyceride;Myritol 888;Miglyol 808;Stelliesters 55/45;Stelliesters MCT 55/45;2,3-Di(octanoyloxy)propyl octanoate;CER 0001;Propane-1,2,3-triyl trioctanoate",
    "duplicated_cas_no": "114355-15-6",
    "SMILES": "C(COC(CCCCCCC)=O)(COC(CCCCCCC)=O)OC(CCCCCCC)=O",
    "meta_data": {
        "InChI": "InChI=1S/C27H50O6/c1-4-7-10-13-16-19-25(28)31-22-24(33-27(30)21-18-15-12-9-6-3)23-32-26(29)20-17-14-11-8-5-2/h24H,4-23H2,1-3H3",
        "InChIKey": null,
        "Canonical SMILES": "O=C(OCC(OC(=O)CCCCCCC)COC(=O)CCCCCCC)CCCCCCC",
        "Molecular Formula": "C<sub>27</sub>H<sub>50</sub>O<sub>6</sub>",
        "Molecular Mass": "470.68",
        "Boiling Point": "233 °C",
        "Melting Point": "10 °C",
        "Density": "0.954 g/cm³"
    }
}