{
    "cas_no": "486-39-5",
    "key_name": "Coclaurine",
    "cn_name": null,
    "alternate_name": "7-Isoquinolinol, 1,2,3,4-tetrahydro-1-[(4-hydroxyphenyl)methyl]-6-methoxy-, (1<em>S</em>)-;Coclaurine;7-Isoquinolinol, 1,2,3,4-tetrahydro-1-[(4-hydroxyphenyl)methyl]-6-methoxy-, (<em>S</em>)-;(1<em>S</em>)-1,2,3,4-Tetrahydro-1-[(4-hydroxyphenyl)methyl]-6-methoxy-7-isoquinolinol;(<em>S</em>)-1-(<em>p</em>-Hydroxybenzyl)-6-methoxy-7-hydroxy-1,2,3,4-tetrahydroisoquinoline;(<em>S</em>)-1,2,3,4-Tetrahydro-1-(<em>p</em>-hydroxybenzyl)-6-methoxy-7-isoquinolinol;Machiline;Coclaurin;(<em>S</em>)-Coclaurine;(-)-Coclaurine",
    "duplicated_cas_no": "",
    "SMILES": "C([C@H]1C=2C(=CC(OC)=C(O)C2)CCN1)C3=CC=C(O)C=C3",
    "meta_data": {
        "InChI": "InChI=1S/C17H19NO3/c1-21-17-9-12-6-7-18-15(14(12)10-16(17)20)8-11-2-4-13(19)5-3-11/h2-5,9-10,15,18-20H,6-8H2,1H3/t15-/m0/s1",
        "InChIKey": null,
        "Canonical SMILES": "OC1=CC=C(C=C1)CC2NCCC3=CC(OC)=C(O)C=C32",
        "Molecular Formula": "C<sub>17</sub>H<sub>19</sub>NO<sub>3</sub>",
        "Molecular Mass": "285.34",
        "Melting Point": "220 °C"
    }
}