{
    "cas_no": "13674-84-5",
    "key_name": "Tris(2-chloroisopropyl) phosphate",
    "cn_name": "磷酸三(1-氯-2-丙基)酯;磷酸三(2-氯丙基)酯;",
    "alternate_name": "2-Propanol, 1-chloro-, 2,2′,2′′-phosphate;2-Propanol, 1-chloro-, phosphate (3:1);Tris(1-chloro-2-propyl) phosphate;Tris(1-methyl-2-chloroethyl) phosphate;Amgard TMCP;Tris(chloroisopropyl) phosphate;Hostaflam OP 820;Tris(2-chloro-1-methylethyl) phosphate;TCPP;Daltoguard F;Tris(β-chloroisopropyl) phosphate;Tris(2-chloroisopropyl) phosphate;Levagard PP;Tolgard TMCP;Fyrol PCF;Antiblaze 80;Antiblaze TMCP;PUMA 4010;Levagard PP-Z;Phireguard TCPP;Levagard TCPP;WSFR-TCPP;Yoke TCPP;TMPCC;Tris(1-chloro-2-isopropyl)phosphate;Levagard PP 2;PC 1389;ProFlame PC 1389;BS 5852;Antiblaze AB 80;Fyrol PCF-LO;Fyrolflex PCF",
    "duplicated_cas_no": "98112-32-4;16839-32-0",
    "SMILES": "P(OC(CCl)C)(OC(CCl)C)(OC(CCl)C)=O",
    "meta_data": {
        "InChI": "InChI=1S/C9H18Cl3O4P/c1-7(4-10)14-17(13,15-8(2)5-11)16-9(3)6-12/h7-9H,4-6H2,1-3H3",
        "InChIKey": null,
        "Canonical SMILES": "O=P(OC(C)CCl)(OC(C)CCl)OC(C)CCl",
        "Molecular Formula": "C<sub>9</sub>H<sub>18</sub>Cl<sub>3</sub>O<sub>4</sub>P",
        "Molecular Mass": "327.57",
        "Boiling Point": "&gt;270 °C",
        "Melting Point": "-40 °C",
        "Density": "1.2885 g/cm³ @ Temp: 20 °C"
    }
}