{
    "cas_no": "39201-89-3",
    "key_name": "Benzaldehyde, 3,4,5-trimethoxy-, oxime",
    "cn_name": null,
    "alternate_name": "Benzaldehyde, 3,4,5-trimethoxy-, oxime;3,4,5-Trimethoxybenzaldoxime;3,4,5-Trimethoxybenzaldehyde oxime",
    "duplicated_cas_no": "",
    "SMILES": "O(C)C1=C(OC)C=C(C=NO)C=C1OC",
    "meta_data": {
        "InChI": "InChI=1S/C10H13NO4/c1-13-8-4-7(6-11-12)5-9(14-2)10(8)15-3/h4-6,12H,1-3H3",
        "InChIKey": null,
        "Canonical SMILES": "ON=CC1=CC(OC)=C(OC)C(OC)=C1",
        "Molecular Formula": "C<sub>10</sub>H<sub>13</sub>NO<sub>4</sub>",
        "Molecular Mass": "211.21",
        "Melting Point": "83-84 °C"
    }
}