{
    "cas_no": "86604-80-0",
    "key_name": "Pyridine, 4-methoxy-2,3,5-trimethyl-, 1-oxide",
    "cn_name": null,
    "alternate_name": "Pyridine, 4-methoxy-2,3,5-trimethyl-, 1-oxide;4-Methoxy-2,3,5-trimethylpyridine 1-oxide;4-Methoxy-2,3,5-trimethylpyridine <em>N</em>-oxide;2,3,5-Trimethyl-4-methoxypyridine <em>N</em>-oxide",
    "duplicated_cas_no": "",
    "SMILES": "O(C)C=1C(C)=C(C)N(=O)=CC1C",
    "meta_data": {
        "InChI": "InChI=1S/C9H13NO2/c1-6-5-10(11)8(3)7(2)9(6)12-4/h5H,1-4H3",
        "InChIKey": null,
        "Canonical SMILES": "O=N1=CC(=C(OC)C(=C1C)C)C",
        "Molecular Formula": "C<sub>9</sub>H<sub>13</sub>NO<sub>2</sub>",
        "Molecular Mass": "167.21",
        "Melting Point": "35 °C"
    }
}