{
    "cas_no": "26961-27-3",
    "key_name": "2-Amino-4,5-dimethoxybenzonitrile",
    "cn_name": "2-氨基-4,5-二甲氧基苯腈;",
    "alternate_name": "Benzonitrile, 2-amino-4,5-dimethoxy-;Veratronitrile, 6-amino-;2-Amino-4,5-dimethoxybenzonitrile;6-Aminoveratronitrile;6-Amino-3,4-dimethoxybenzonitrile;2-Cyano-4,5-dimethoxyaniline;4,5-Dimethoxyanthranilonitrile;3,4-Dimethoxy-6-cyanoaniline;4,5-Dimethoxy-2-aminobenzonitrile",
    "duplicated_cas_no": "",
    "SMILES": "O(C)C1=C(OC)C=C(N)C(C#N)=C1",
    "meta_data": {
        "InChI": "InChI=1S/C9H10N2O2/c1-12-8-3-6(5-10)7(11)4-9(8)13-2/h3-4H,11H2,1-2H3",
        "InChIKey": null,
        "Canonical SMILES": "N#CC=1C=C(OC)C(OC)=CC1N",
        "Molecular Formula": "C<sub>9</sub>H<sub>10</sub>N<sub>2</sub>O<sub>2</sub>",
        "Molecular Mass": "178.19",
        "Melting Point": "92-93.5 °C"
    }
}