{
    "cas_no": "89-54-3",
    "key_name": "5-Amino-2-chlorobenzoic acid",
    "cn_name": "5-氨基-2-氯苯甲酸;",
    "alternate_name": "Benzoic acid, 5-amino-2-chloro-;5-Amino-2-chlorobenzoic acid;3-Amino-6-chlorobenzoic acid;NSC 25172;2-Chloro-5-aminobenzoic acid",
    "duplicated_cas_no": "",
    "SMILES": "C(O)(=O)C1=C(Cl)C=CC(N)=C1",
    "meta_data": {
        "InChI": "InChI=1S/C7H6ClNO2/c8-6-2-1-4(9)3-5(6)7(10)11/h1-3H,9H2,(H,10,11)",
        "InChIKey": null,
        "Canonical SMILES": "O=C(O)C1=CC(N)=CC=C1Cl",
        "Molecular Formula": "C<sub>7</sub>H<sub>6</sub>ClNO<sub>2</sub>",
        "Molecular Mass": "171.58",
        "Melting Point": "188 °C"
    }
}