{
    "cas_no": "3069-25-8",
    "key_name": "(Methylaminopropyl)trimethoxysilane",
    "cn_name": "N-甲基-3-氨丙基三甲氧基硅烷;甲氨基丙基三甲氧基硅烷;",
    "alternate_name": "1-Propanamine, <em>N</em>-methyl-3-(trimethoxysilyl)-;Propylamine, <em>N</em>-methyl-3-(trimethoxysilyl)-;<em>N</em>-Methyl-3-(trimethoxysilyl)-1-propanamine;(Methylaminopropyl)trimethoxysilane;(<em>N</em>-Methyl-3-aminopropyl)trimethoxysilane;<em>N</em>-Methyl-3-(trimethoxysilyl)propylamine;(Trimethoxysilylpropyl)methylamine;XZ 2024;[3-(Methylamino)propyl]trimethoxysilane;(<em>N</em>-Methylaminopropyl)trimethoxysilane;3-(<em>N</em>-Methylaminopropyl)trimethoxysilane;Dynasylan 1110;X 12-636;<em>N</em>-Methyl-γ-aminopropyltrimethoxysilane;Trimethoxy(3-(methylamino)propyl)silane;Silane 1110;<em>N</em>-[3-(Trimethoxysilyl)propyl)methanamine;DB 1551;γ-<em>N</em>-Methylaminopropyltrimethoxysilane;SIM 6500.0-25GM;T 2868",
    "duplicated_cas_no": "134910-57-9",
    "SMILES": "[Si](CCCNC)(OC)(OC)OC",
    "meta_data": {
        "InChI": "InChI=1S/C7H19NO3Si/c1-8-6-5-7-12(9-2,10-3)11-4/h8H,5-7H2,1-4H3",
        "InChIKey": null,
        "Canonical SMILES": "O(C)[Si](OC)(OC)CCCNC",
        "Molecular Formula": "C<sub>7</sub>H<sub>19</sub>NO<sub>3</sub>Si",
        "Molecular Mass": "193.32",
        "Boiling Point": "106 °C @ Press: 30 Torr",
        "Density": "0.978 g/cm³ @ Temp: 25 °C"
    }
}