{
    "cas_no": "19388-87-5",
    "key_name": "Taurolidine",
    "cn_name": "滔罗林;牛磺罗定;4,4\"-亚甲双[四氢-2H-1,2,4-噻二嗪]1,1,1\",1\"-四氧化物;",
    "alternate_name": "2<em>H</em>-1,2,4-Thiadiazine, 4,4′-methylenebis[tetrahydro-, 1,1,1′,1′-tetraoxide;Taurolin;4,4′-Methylenebis(perhydro-1,2,4-thiadiazin 1,1-dioxide);Tauroline;Taurolidine;T 7329",
    "duplicated_cas_no": "",
    "SMILES": "C(N1CCS(=O)(=O)NC1)N2CCS(=O)(=O)NC2",
    "meta_data": {
        "InChI": "InChI=1S/C7H16N4O4S2/c12-16(13)3-1-10(5-8-16)7-11-2-4-17(14,15)9-6-11/h8-9H,1-7H2",
        "InChIKey": null,
        "Canonical SMILES": "O=S1(=O)NCN(CN2CNS(=O)(=O)CC2)CC1",
        "Molecular Formula": "C<sub>7</sub>H<sub>16</sub>N<sub>4</sub>O<sub>4</sub>S<sub>2</sub>",
        "Molecular Mass": "284.36",
        "Melting Point": "156 °C"
    }
}