{
    "cas_no": "57069-48-4",
    "key_name": "3-[Tris(2-methoxyethoxy)silyl]propyl 2-methyl-2-propenoate",
    "cn_name": null,
    "alternate_name": "2-Propenoic acid, 2-methyl-, 3-[tris(2-methoxyethoxy)silyl]propyl ester;3-[Tris(2-methoxyethoxy)silyl]propyl 2-methyl-2-propenoate;(3-Methacryloxypropyl)tris(2-methoxyethoxy)silane;(3-Methacryloyloxypropyl)tris(2-methoxyethoxy)silane;Methacryloyloxypropyltris(methoxyethoxy)silane;A 175;γ-Methacryloxypropyltris(2-methoxyethoxy)silane;A 175 (acrylate);Methacryloxypropyltri(methoxyethoxy)silane;γ-Methacryloyloxypropyltris(2-methoxyethoxy)silane;3-Methacryloxypropyltris(methoxyethoxy)silane",
    "duplicated_cas_no": "",
    "SMILES": "[Si](CCCOC(C(C)=C)=O)(OCCOC)(OCCOC)OCCOC",
    "meta_data": {
        "InChI": "InChI=1S/C16H32O8Si/c1-15(2)16(17)21-7-6-14-25(22-11-8-18-3,23-12-9-19-4)24-13-10-20-5/h1,6-14H2,2-5H3",
        "InChIKey": null,
        "Canonical SMILES": "O=C(OCCC[Si](OCCOC)(OCCOC)OCCOC)C(=C)C",
        "Molecular Formula": "C<sub>16</sub>H<sub>32</sub>O<sub>8</sub>Si",
        "Molecular Mass": "380.51",
        "Boiling Point": "128 °C @ Press: 10 Torr",
        "Density": "1.065 g/cm³"
    }
}