{
    "cas_no": "5527-95-7",
    "key_name": "4-Chloro-3-fluorobenzaldehyde",
    "cn_name": "4-氯-3-氟苯甲醛;",
    "alternate_name": "Benzaldehyde, 4-chloro-3-fluoro-;4-Chloro-3-fluorobenzaldehyde;3-Fluoro-4-chlorobenzaldehyde;4-Chloro-5-fluorobenzaldehyde",
    "duplicated_cas_no": "1145692-49-4",
    "SMILES": "C(=O)C1=CC(F)=C(Cl)C=C1",
    "meta_data": {
        "InChI": "InChI=1S/C7H4ClFO/c8-6-2-1-5(4-10)3-7(6)9/h1-4H",
        "InChIKey": null,
        "Canonical SMILES": "O=CC1=CC=C(Cl)C(F)=C1",
        "Molecular Formula": "C<sub>7</sub>H<sub>4</sub>ClFO",
        "Molecular Mass": "158.56",
        "Melting Point": "44-46 °C"
    }
}