{
    "cas_no": "19406-86-1",
    "key_name": "3-Amino-4-methylbenzamide",
    "cn_name": "3-氨基-4-甲基苯甲酰胺;",
    "alternate_name": "Benzamide, 3-amino-4-methyl-;<em>p</em>-Toluamide, 3-amino-;3-Amino-4-methylbenzamide",
    "duplicated_cas_no": "",
    "SMILES": "C(N)(=O)C1=CC(N)=C(C)C=C1",
    "meta_data": {
        "InChI": "InChI=1S/C8H10N2O/c1-5-2-3-6(8(10)11)4-7(5)9/h2-4H,9H2,1H3,(H2,10,11)",
        "InChIKey": null,
        "Canonical SMILES": "O=C(N)C1=CC=C(C(N)=C1)C",
        "Molecular Formula": "C<sub>8</sub>H<sub>10</sub>N<sub>2</sub>O",
        "Molecular Mass": "150.18",
        "Melting Point": "113-114 °C"
    }
}