{
    "cas_no": "405-05-0",
    "key_name": "3-Fluoro-4-hydroxybenzaldehyde",
    "cn_name": "3-氟-4-羟基苯甲醛;",
    "alternate_name": "Benzaldehyde, 3-fluoro-4-hydroxy-;3-Fluoro-4-hydroxybenzaldehyde;2-Fluoro-4-formylphenol",
    "duplicated_cas_no": "",
    "SMILES": "C(=O)C1=CC(F)=C(O)C=C1",
    "meta_data": {
        "InChI": "InChI=1S/C7H5FO2/c8-6-3-5(4-9)1-2-7(6)10/h1-4,10H",
        "InChIKey": null,
        "Canonical SMILES": "O=CC1=CC=C(O)C(F)=C1",
        "Molecular Formula": "C<sub>7</sub>H<sub>5</sub>FO<sub>2</sub>",
        "Molecular Mass": "140.11",
        "Melting Point": "121.1-122.9 °C"
    }
}