{
    "cas_no": "62054-49-3",
    "key_name": "Ethyl (2<em>E</em>)-3-methyl-4-oxo-2-butenoate",
    "cn_name": null,
    "alternate_name": "2-Butenoic acid, 3-methyl-4-oxo-, ethyl ester, (2<em>E</em>)-;2-Butenoic acid, 3-methyl-4-oxo-, ethyl ester, (<em>E</em>)-;Fumaraldehydic acid, 3-methyl-, ethyl ester;Ethyl (2<em>E</em>)-3-methyl-4-oxo-2-butenoate;Ethyl (<em>E</em>)-3-methyl-4-oxocrotonate;Ethyl <em>trans</em>-3-methyl-4-oxo-2-butenoate;Ethyl <em>trans</em>-3-methyl-4-oxocrotonate;Ethyl (<em>E</em>)-4-oxo-3-methyl-2-butenoate;Ethyl (E)-3-methyl-4-oxo-2-butenoate;Ethyl (2<em>E</em>)-3-methyl-4-oxobut-2-enoate;Ethyl (<em>E</em>)-3-methyl-4-oxo-2-butenoate;Ethyl trans-3-methyl-4-oxo-2-butenoate",
    "duplicated_cas_no": "1244977-78-3;1558450-61-5",
    "SMILES": "C(\\C(OCC)=O)=C(/C=O)\\C",
    "meta_data": {
        "InChI": "InChI=1S/C7H10O3/c1-3-10-7(9)4-6(2)5-8/h4-5H,3H2,1-2H3/b6-4+",
        "InChIKey": null,
        "Canonical SMILES": "O=CC(=CC(=O)OCC)C",
        "Molecular Formula": "C<sub>7</sub>H<sub>10</sub>O<sub>3</sub>",
        "Molecular Mass": "142.15",
        "Boiling Point": "80 °C @ Press: 2 Torr"
    }
}