{
    "cas_no": "60-51-5",
    "key_name": "Dimethoate",
    "cn_name": "乐果;O,O-二甲基-S-(甲基氨基甲酰甲基)二硫代磷酸酯;",
    "alternate_name": "Phosphorodithioic acid, <em>O</em>,<em>O</em>-dimethyl <em>S</em>-[2-(methylamino)-2-oxoethyl] ester;Phosphorodithioic acid, <em>O</em>,<em>O</em>-dimethyl ester, <em>S</em>-ester with 2-mercapto-<em>N</em>-methylacetamide;Phosphorodithioic acid, <em>O</em>,<em>O</em>-dimethyl <em>S</em>-(methylcarbamoylmethyl) ester;CL 12880;8014 Bis HC;Cygon;Cygon Insecticide;Dimethoate;<em>O</em>,<em>O</em>-Dimethyl <em>S</em>-(<em>N</em>-methylcarbamoylmethyl) phosphorodithioate;Dimeton;Experimental Insecticide 12880;Fostion MM;Lurgo;<em>S</em>-Methylcarbamoylmethyl <em>O</em>,<em>O</em>-dimethyl phosphorodithioate;Perfekthion;Phosphamide;Rogor L;Rogor P;Roxion;BI 58;PEI 75;Rogor 40;Rogor;Fosfotox;Phosphamid;Fosfotox R 35;<em>O</em>,<em>O</em>-Dimethyl <em>S</em>-(<em>N</em>-methylcarbamoylmethyl) dithiophosphate;Rogor 20L;Daphene;ENT 24650;Fosfotox R;De-fend;American Cyanamid 12,880;Cygon 4E;FIP;Fosfatox R;Dimevur;Racusan;Sinoratox;Systoate;Systemin;Sistemin;Cygon 2E;Tara 909;Aadimethoal;Tara;Perfekthion S;Cygon 400;Systemin (pesticide);Dimate;Dimate (insecticide);Tiomet;Laition;Chloromezyl;Dimezyl;Dimezyl 400EC;Ditimur 40;Danadim;Bi 58 Nowy 400EC;Bi 58 Nowy;Cerox;Dudu Ethoate;Super Ethoate;Agrithoate 40EC;Tafgor 40EC;TATA TAFGOR;Tafgor;MeSH ID: D004117",
    "duplicated_cas_no": "11003-53-5;11096-20-1;56833-73-9;79956-18-6",
    "SMILES": "P(SCC(NC)=O)(OC)(OC)=S",
    "meta_data": {
        "InChI": "InChI=1S/C5H12NO3PS2/c1-6-5(7)4-12-10(11,8-2)9-3/h4H2,1-3H3,(H,6,7)",
        "InChIKey": null,
        "Canonical SMILES": "O=C(NC)CSP(=S)(OC)OC",
        "Molecular Formula": "C<sub>5</sub>H<sub>12</sub>NO<sub>3</sub>PS<sub>2</sub>",
        "Molecular Mass": "229.26",
        "Boiling Point": "107 °C @ Press: 0.05 Torr",
        "Melting Point": "49 °C",
        "Density": "1.277 g/cm³ @ Temp: 65 °C"
    }
}