{
    "cas_no": "874-83-9",
    "key_name": "4-(2-Thienyl)-3-buten-2-one",
    "cn_name": null,
    "alternate_name": "3-Buten-2-one, 4-(2-thienyl)-;4-(2-Thienyl)-3-buten-2-one;2-Thienylidenacetone;2-(3-Oxo-1-butenyl)thiophene;2-Thenylideneacetone",
    "duplicated_cas_no": "929900-27-6",
    "SMILES": "C(=CC(C)=O)C1=CC=CS1",
    "meta_data": {
        "InChI": "InChI=1S/C8H8OS/c1-7(9)4-5-8-3-2-6-10-8/h2-6H,1H3",
        "InChIKey": null,
        "Canonical SMILES": "O=C(C=CC=1SC=CC1)C",
        "Molecular Formula": "C<sub>8</sub>H<sub>8</sub>OS",
        "Molecular Mass": "152.21",
        "Boiling Point": "112-114 °C @ Press: 3 Torr",
        "Melting Point": "34-35 °C"
    }
}