{
    "cas_no": "6099-90-7",
    "key_name": "1,3,5-Benzenetriol, hydrate (1:2)",
    "cn_name": "间苯三酚;1,3,5-三羟基苯;均苯三酚;1,3,5-苯三酚;",
    "alternate_name": "1,3,5-Benzenetriol, hydrate (1:2);Phloroglucinol, dihydrate;1,3,5-Benzenetriol, dihydrate",
    "duplicated_cas_no": "2884519-93-9",
    "SMILES": "OC1=CC(O)=CC(O)=C1.O",
    "meta_data": {
        "InChI": "InChI=1S/C6H6O3.2H2O/c7-4-1-5(8)3-6(9)2-4;;/h1-3,7-9H;2*1H2",
        "InChIKey": null,
        "Canonical SMILES": "O.OC=1C=C(O)C=C(O)C1",
        "Molecular Formula": "C<sub>6</sub>H<sub>6</sub>O<sub>3</sub>.2H<sub>2</sub>O",
        "Molecular Mass": "",
        "Melting Point": "215-217 °C (decomp)"
    }
}