{
    "cas_no": "177-10-6",
    "key_name": "1,4-Dioxaspiro[4.5]decane",
    "cn_name": "1,4-二氧螺环[4,5]癸烷;",
    "alternate_name": "1,4-Dioxaspiro[4.5]decane;Spiro[cyclohexane-1,2′-[1,3]dioxolane];Cyclohexanone ethylene ketal;(Ethylenedioxy)cyclohexane;2,2-(Pentamethylene)-1,3-dioxolane;NSC 87562",
    "duplicated_cas_no": "",
    "SMILES": "C12(CCCCC1)OCCO2",
    "meta_data": {
        "InChI": "InChI=1S/C8H14O2/c1-2-4-8(5-3-1)9-6-7-10-8/h1-7H2",
        "InChIKey": null,
        "Canonical SMILES": "O1CCOC12CCCCC2",
        "Molecular Formula": "C<sub>8</sub>H<sub>14</sub>O<sub>2</sub>",
        "Molecular Mass": "142.20",
        "Boiling Point": "82-83 °C @ Press: 24 Torr",
        "Density": "0.980 g/cm³ @ Temp: 30 °C"
    }
}