{
    "cas_no": "23202-81-5",
    "key_name": "Methyl 5-deoxy-2,3-<em>O</em>-(1-methylethylidene)-β-<span class=\"text-smallcaps\">D</span>-ribofuranoside",
    "cn_name": "甲基-5-脱氧-2,3-O-异亚丙基-beta-D-呋喃核糖苷;",
    "alternate_name": "β-<span class=\"text-smallcaps\">D</span>-Ribofuranoside, methyl 5-deoxy-2,3-<em>O</em>-(1-methylethylidene)-;Ribofuranoside, methyl 5-deoxy-2,3-<em>O</em>-isopropylidene-, β-<span class=\"text-smallcaps\">D</span>-;Furo[3,4-<em>d</em>]-1,3-dioxole, β-<span class=\"text-smallcaps\">D</span>-ribofuranoside deriv.;Methyl 5-deoxy-2,3-<em>O</em>-(1-methylethylidene)-β-<span class=\"text-smallcaps\">D</span>-ribofuranoside;Methyl 5-deoxy-2,3-<em>O</em>-isopropylidene-β-<span class=\"text-smallcaps\">D</span>-ribofuranoside",
    "duplicated_cas_no": "",
    "SMILES": "O(C)[C@H]1[C@]2([C@](OC(C)(C)O2)([C@@H](C)O1)[H])[H]",
    "meta_data": {
        "InChI": "InChI=1S/C9H16O4/c1-5-6-7(8(10-4)11-5)13-9(2,3)12-6/h5-8H,1-4H3/t5-,6-,7-,8-/m1/s1",
        "InChIKey": null,
        "Canonical SMILES": "O(C)C1OC(C)C2OC(OC12)(C)C",
        "Molecular Formula": "C<sub>9</sub>H<sub>16</sub>O<sub>4</sub>",
        "Molecular Mass": "188.22",
        "Boiling Point": "150-155 °C @ Press: 80 Torr"
    }
}