{
    "cas_no": "2363-89-5",
    "key_name": "2-Octenal",
    "cn_name": "2-辛烯醛;",
    "alternate_name": "2-Octenal;2-Octen-1-al",
    "duplicated_cas_no": "",
    "SMILES": "C(CCCC)C=CC=O",
    "meta_data": {
        "InChI": "InChI=1S/C8H14O/c1-2-3-4-5-6-7-8-9/h6-8H,2-5H2,1H3",
        "InChIKey": null,
        "Canonical SMILES": "O=CC=CCCCCC",
        "Molecular Formula": "C<sub>8</sub>H<sub>14</sub>O",
        "Molecular Mass": "126.20",
        "Boiling Point": "83 °C"
    }
}