{
    "cas_no": "17480-69-2",
    "key_name": "(-)-<em>N</em>-Benzyl-1-phenylethylamine",
    "cn_name": "(S)-(-)-N-苄基-alpha-甲基苄胺;(S)-(-)-N-苄基-1-苯乙胺;",
    "alternate_name": "Benzenemethanamine, α-methyl-<em>N</em>-(phenylmethyl)-, (α<em>S</em>)-;Dibenzylamine, α-methyl-, (-)-;Benzenemethanamine, α-methyl-<em>N</em>-(phenylmethyl)-, (<em>S</em>)-;(α<em>S</em>)-α-Methyl-<em>N</em>-(phenylmethyl)benzenemethanamine;(-)-<em>N</em>-Benzyl-1-phenylethylamine;(<em>S</em>)-<em>N</em>-Benzyl-α-phenethylamine;(1<em>S</em>)-<em>N</em>-(1-Phenylethyl)benzylamine;(<em>S</em>)-<em>N</em>-Benzyl-1-phenylethylamine;(<em>S</em>)-<em>N</em>-Benzyl-α-methylbenzylamine;(<em>S</em>)-(-)-<em>N</em>-Benzyl-α-methylbenzylamine;(<em>S</em>)-Benzyl(α-methylbenzyl)amine;(Benzyl)((<em>S</em>)-1-phenylethyl)amine;(<em>S</em>)-<em>N</em>-Benzyl-<em>N</em>-(α-methylbenzyl)amine;<em>N</em>-Benzyl-<em>N</em>-((α<em>S</em>)-α-methylbenzyl)amine;(Benzyl)((1<em>S</em>)-1-phenylethyl)amine;<em>N</em>-Benzyl((<em>S</em>)-1-phenylethyl)amine;(<em>S</em>)-<em>N</em>-Benzyl-1-phenylethanamine;(1<em>S</em>)-<em>N</em>-Benzyl-1-phenylethylamine;(<em>S</em>)-(-)-<em>N</em>-Benzyl-alpha-methylbenzylamine;(<em>S</em>)-<em>N</em>-Benzyl-1-phenylethan-1-amine;(1S)-<em>N</em>-Benzyl-1-phenylethanamine;(<em>S</em>)-(-)-<em>N</em>-Benzyl-1-phenylethylamine",
    "duplicated_cas_no": "",
    "SMILES": "[C@H](NCC1=CC=CC=C1)(C)C2=CC=CC=C2",
    "meta_data": {
        "InChI": "InChI=1S/C15H17N/c1-13(15-10-6-3-7-11-15)16-12-14-8-4-2-5-9-14/h2-11,13,16H,12H2,1H3/t13-/m0/s1",
        "InChIKey": null,
        "Canonical SMILES": "C=1C=CC(=CC1)CNC(C=2C=CC=CC2)C",
        "Molecular Formula": "C<sub>15</sub>H<sub>17</sub>N",
        "Molecular Mass": "211.30",
        "Boiling Point": "110-115 °C @ Press: 0.5 Torr"
    }
}