{
    "cas_no": "7440-41-7",
    "key_name": "Beryllium",
    "cn_name": "铍粒;",
    "alternate_name": "Beryllium;Glucinium;Beryllium-9;Beryllium element;Beryllium atom;Beryllium poisoning;MeSH ID: D001608",
    "duplicated_cas_no": "1312815-26-1",
    "SMILES": "[Be]",
    "meta_data": {
        "InChI": "InChI=1S/Be",
        "InChIKey": null,
        "Canonical SMILES": "[Be]",
        "Molecular Formula": "Be",
        "Molecular Mass": "",
        "Boiling Point": "2970 °C",
        "Melting Point": "1287 °C",
        "Density": "1.85 g/cm³ @ Temp: 20 °C"
    }
}