{
    "cas_no": "100-35-6",
    "key_name": "Diethylaminoethyl chloride",
    "cn_name": "N,N-二乙基氯乙胺;2-氯乙基二乙胺;2-氯-N,N-二乙基乙胺;",
    "alternate_name": "Ethanamine, 2-chloro-<em>N</em>,<em>N</em>-diethyl-;Triethylamine, 2-chloro-;2-Chloro-<em>N</em>,<em>N</em>-diethylethanamine;2-Chlorotriethylamine;2-(Diethylamino)-1-chloroethane;Diethylaminoethyl chloride;(2-Chloroethyl)diethylamine;Diethyl(2-chloroethyl)amine;<em>N</em>,<em>N</em>-Diethyl-2-chloroethylamine;β-Chlorotriethylamine;1-Chloro-2-(diethylamino)ethane;2-(Diethylamino)chloroethane;2-(Diethylamino)ethyl chloride;2-(<em>N</em>,<em>N</em>-Diethylamino)ethyl chloride;β-(Diethylamino)ethyl chloride;<em>N</em>-(2-Chloroethyl)diethylamine;<em>N</em>-(2-Chloroethyl)-<em>N</em>,<em>N</em>-diethylamine;<em>N</em>,<em>N</em>-Diethylaminoethyl chloride;1-Diethylamino-2-chloroethane;2-Chloroethyl-<em>N</em>,<em>N</em>-diethylamine;(β-Chloroethyl)diethylamine;NSC 123446;1-Chloro-2-(<em>N</em>,<em>N</em>-diethylamino)ethane;2-(<em>N</em>,<em>N</em>-Diethylamino)-1-chloroethane",
    "duplicated_cas_no": "",
    "SMILES": "N(CCCl)(CC)CC",
    "meta_data": {
        "InChI": "InChI=1S/C6H14ClN/c1-3-8(4-2)6-5-7/h3-6H2,1-2H3",
        "InChIKey": null,
        "Canonical SMILES": "ClCCN(CC)CC",
        "Molecular Formula": "C<sub>6</sub>H<sub>14</sub>ClN",
        "Molecular Mass": "135.64",
        "Boiling Point": "51-52 °C @ Press: 16 Torr",
        "Density": "0.9166 g/cm³ @ Temp: 22 °C"
    }
}