{
    "cas_no": "103-95-7",
    "key_name": "Cyclamen aldehyde",
    "cn_name": "兔耳草醛;",
    "alternate_name": "Benzenepropanal, α-methyl-4-(1-methylethyl)-;Hydrocinnamaldehyde, <em>p</em>-isopropyl-α-methyl-;α-Methyl-4-(1-methylethyl)benzenepropanal;Cyclamal;<em>p</em>-Isopropyl-α-methylhydrocinnamaldehyde;α-Methyl-<em>p</em>-isopropylhydrocinnamaldehyde;2-Methyl-3-(<em>p</em>-isopropylphenyl)propionaldehyde;Cyclamen aldehyde;3-<em>p</em>-Cumenyl-2-methylpropionaldehyde;3-(<em>p</em>-Isopropylphenyl)-2-methylpropionaldehyde;4-Isopropyl-α-methylhydrocinnamic aldehyde;3-(4-Isopropylphenyl)-2-methylpropanal;Cymal;2-Methyl-3-(4-isopropylphenyl)propionaldehyde;Cyclosal perfume;Cyclosal;3-(4-Isopropylphenyl)isobutyraldehyde;2-Methyl-3-(<em>p</em>-isopropylphenyl)propanal;2-Methyl-3-(4-isopropylphenyl)propanal;2-Methyl-3-[4-(propan-2-yl)phenyl]propanal;2-Methyl-3-(4-propan-2-ylphenyl)propanal",
    "duplicated_cas_no": "80949-77-5",
    "SMILES": "C(C(C=O)C)C1=CC=C(C(C)C)C=C1",
    "meta_data": {
        "InChI": "InChI=1S/C13H18O/c1-10(2)13-6-4-12(5-7-13)8-11(3)9-14/h4-7,9-11H,8H2,1-3H3",
        "InChIKey": null,
        "Canonical SMILES": "O=CC(C)CC1=CC=C(C=C1)C(C)C",
        "Molecular Formula": "C<sub>13</sub>H<sub>18</sub>O",
        "Molecular Mass": "190.28",
        "Boiling Point": "133-137 °C @ Press: 9 Torr",
        "Density": "0.9502 g/cm³ @ Temp: 20 °C"
    }
}