{
    "cas_no": "4363-94-4",
    "key_name": "6-Methoxy-4-quinolinecarboxaldehyde",
    "cn_name": null,
    "alternate_name": "4-Quinolinecarboxaldehyde, 6-methoxy-;Cinchoninaldehyde, 6-methoxy-;6-Methoxy-4-quinolinecarboxaldehyde;Quininaldehyde;NSC 449",
    "duplicated_cas_no": "",
    "SMILES": "C(=O)C=1C2=C(C=CC(OC)=C2)N=CC1",
    "meta_data": {
        "InChI": "InChI=1S/C11H9NO2/c1-14-9-2-3-11-10(6-9)8(7-13)4-5-12-11/h2-7H,1H3",
        "InChIKey": null,
        "Canonical SMILES": "O=CC=1C=CN=C2C=CC(OC)=CC21",
        "Molecular Formula": "C<sub>11</sub>H<sub>9</sub>NO<sub>2</sub>",
        "Molecular Mass": "187.19",
        "Melting Point": "160 °C"
    }
}