{
    "cas_no": "251647-48-0",
    "key_name": "<em>N</em>-Benzoyl-5′-<em>O</em>-[bis(4-methoxyphenyl)phenylmethyl]-2′-<em>O</em>-(2-methoxyethyl)adenosine",
    "cn_name": null,
    "alternate_name": "Adenosine, <em>N</em>-benzoyl-5′-<em>O</em>-[bis(4-methoxyphenyl)phenylmethyl]-2′-<em>O</em>-(2-methoxyethyl)-;<em>N</em>-Benzoyl-5′-<em>O</em>-[bis(4-methoxyphenyl)phenylmethyl]-2′-<em>O</em>-(2-methoxyethyl)adenosine;17: PN: US20030211606 PAGE: 19 claimed sequence;24: PN: WO03106645 PAGE: 73 claimed sequence;23: PN: US20040014699 PAGE: 20 claimed sequence;22: PN: US20040014051 PAGE: 23 claimed sequence;21: PN: US20040014050 PAGE: 20 claimed sequence;20: PN: US20040014049 PAGE: 21 claimed sequence;21: PN: US20040014048 PAGE: 21 claimed sequence;20: PN: US20040014047 PAGE: 21 claimed sequence;20: PN: US20040006030 PAGE: 23 claimed sequence;24: PN: US20040006029 PAGE: 23 claimed sequence;95: PN: US20040005707 PAGE: 20 claimed sequence;21: PN: US20040005570 PAGE: 20 claimed sequence;18: PN: US20040005569 PAGE: 22 claimed sequence;22: PN: US20040005565 PAGE: 17-22 claimed sequence;5′-Dimethoxytrityl-2′-<em>O</em>-(2-Methoxyethyl)-<em>N</em><sup>6</sup>-benzoyl adenosine",
    "duplicated_cas_no": "",
    "SMILES": "C(OC[C@H]1O[C@H]([C@H](OCCOC)[C@@H]1O)N2C=3C(N=C2)=C(NC(=O)C4=CC=CC=C4)N=CN3)(C5=CC=C(OC)C=C5)(C6=CC=C(OC)C=C6)C7=CC=CC=C7",
    "meta_data": {
        "InChI": "InChI=1S/C41H41N5O8/c1-49-22-23-52-36-35(47)33(54-40(36)46-26-44-34-37(42-25-43-38(34)46)45-39(48)27-10-6-4-7-11-27)24-53-41(28-12-8-5-9-13-28,29-14-18-31(50-2)19-15-29)30-16-20-32(51-3)21-17-30/h4-21,25-26,33,35-36,40,47H,22-24H2,1-3H3,(H,42,43,45,48)/t33-,35-,36-,40-/m1/s1",
        "InChIKey": null,
        "Canonical SMILES": "O=C(NC1=NC=NC2=C1N=CN2C3OC(COC(C=4C=CC=CC4)(C5=CC=C(OC)C=C5)C6=CC=C(OC)C=C6)C(O)C3OCCOC)C=7C=CC=CC7",
        "Molecular Formula": "C<sub>41</sub>H<sub>41</sub>N<sub>5</sub>O<sub>8</sub>",
        "Molecular Mass": "731.79",
        "Melting Point": "119-121 °C"
    }
}