{
    "cas_no": "101-53-1",
    "key_name": "4-Benzylphenol",
    "cn_name": "4-羟基二苯甲烷;",
    "alternate_name": "Phenol, 4-(phenylmethyl)-;<em>p</em>-Cresol, α-phenyl-;4-(Phenylmethyl)phenol;<em>p</em>-Benzylphenol;4-Hydroxyditane;α-Phenyl-<em>p</em>-cresol;4-Benzylphenol;Fesiasept;<em>p</em>-Hydroxydiphenyl methane;4-Hydroxydiphenylmethane;AI 3-1932;NSC 8078;1-Hydroxy-4-(phenylmethyl)benzene",
    "duplicated_cas_no": "1211394-82-9",
    "SMILES": "C(C1=CC=C(O)C=C1)C2=CC=CC=C2",
    "meta_data": {
        "InChI": "InChI=1S/C13H12O/c14-13-8-6-12(7-9-13)10-11-4-2-1-3-5-11/h1-9,14H,10H2",
        "InChIKey": null,
        "Canonical SMILES": "OC1=CC=C(C=C1)CC=2C=CC=CC2",
        "Molecular Formula": "C<sub>13</sub>H<sub>12</sub>O",
        "Molecular Mass": "184.23",
        "Boiling Point": "322 °C",
        "Melting Point": "84 °C"
    }
}