{
    "cas_no": "78-11-5",
    "key_name": "Pentaerythritol, tetranitrate",
    "cn_name": "季戊四醇四硝酸酯;戊四硝酯;",
    "alternate_name": "1,3-Propanediol, 2,2-bis[(nitrooxy)methyl]-, 1,3-dinitrate;Pentaerythritol, tetranitrate;1,3-Propanediol, 2,2-bis[(nitrooxy)methyl]-, dinitrate (ester);Angicap;Angitet;Antora;Arcotrate;Baritrate;2,2-Bis(hydroxymethyl)-1,3-propanediol tetranitrate;CHot;Deltrate 20;Duotrate;Erinit;Hasethrol;Kaytrate;Lowetrate;Martrate 45;Metranil;Mycardol;Myotrate 10;Neo-Corovas;Neopentanetetrayl nitrate;Niperyt;Niperyth;Nitropenta;Nitropentaerythrite;Nitropentaerythritol;Nitrotalans;Pencard;Pentaerythrityl tetranitrate;Pentafin;Pentanitrine;Pentestan 80;Pentetrate Unicelles;Penthrit;Penthrite;Pentitrate;Pentrate;Pentrite;Pentritol;Pentryate;Pergitral;Peridex LA;Peritrate;Perityl;PETN;Prevangor;Quintrate;Rythritol;Subicard;Tanipent;Tentrate 20;Tetranitropentaerythrite;Tetrasule;Tranite D-Lay;Vasodiatol;Vaso 80 Unicelles;Nitropenton;Extex;TEN;Tetranitropentaerythritol;XTX 8003;Nitropenta 7W;Vasolat;Pentanitrol;Lentrat;Pentral 80;Dipentrate;Dilcoran 80;Peridex;Cardiacap;Nitropent;Nitrinal;Pen-Tetra;Pentrinat;Nitro-Riletten;Nitrin;Nitrine;Nitrolong;Penta;Pentaerithrityl tetranitrate;LX 13;PBXN 301;LX 02-1;LX 08-0;LX 16;LX 16 (explosive);C 2;C 2 (explosive);Terpate;Pentafilin;Tena;Tena (explosive);PENT;PP 83",
    "duplicated_cas_no": "103842-90-6;108736-71-6;53025-84-6",
    "SMILES": "C(CON(=O)=O)(CON(=O)=O)(CON(=O)=O)CON(=O)=O",
    "meta_data": {
        "InChI": "InChI=1S/C5H8N4O12/c10-6(11)18-1-5(2-19-7(12)13,3-20-8(14)15)4-21-9(16)17/h1-4H2",
        "InChIKey": null,
        "Canonical SMILES": "O=N(=O)OCC(CON(=O)=O)(CON(=O)=O)CON(=O)=O",
        "Molecular Formula": "C<sub>5</sub>H<sub>8</sub>N<sub>4</sub>O<sub>12</sub>",
        "Molecular Mass": "316.14",
        "Boiling Point": "180 °C @ Press: 50 Torr",
        "Melting Point": "140 °C",
        "Density": "1.773 g/cm³ @ Temp: 20 °C"
    }
}