{
    "cas_no": "452-69-7",
    "key_name": "4-Fluoro-3-methylaniline",
    "cn_name": "2-氟-5-氨基甲苯;4-氟-3-甲基苯胺;5-氨基-2-氟甲苯;",
    "alternate_name": "Benzenamine, 4-fluoro-3-methyl-;<em>m</em>-Toluidine, 4-fluoro-;4-Fluoro-3-methylbenzenamine;4-Fluoro-3-methylaniline;2-Fluoro-5-aminotoluene;5-Amino-2-fluorotoluene;(4-Fluoro-3-methylphenyl)amine;NSC 88319;3-Methyl-4-fluoroaniline",
    "duplicated_cas_no": "",
    "SMILES": "CC1=C(F)C=CC(N)=C1",
    "meta_data": {
        "InChI": "InChI=1S/C7H8FN/c1-5-4-6(9)2-3-7(5)8/h2-4H,9H2,1H3",
        "InChIKey": null,
        "Canonical SMILES": "FC1=CC=C(N)C=C1C",
        "Molecular Formula": "C<sub>7</sub>H<sub>8</sub>FN",
        "Molecular Mass": "125.14",
        "Boiling Point": "85-86 °C @ Press: 9 Torr",
        "Melting Point": "35 °C"
    }
}