{
    "cas_no": "881-95-8",
    "key_name": "Benzenemethanol, 4-hydroxy-3-methoxy-α-[(methylamino)methyl]-, hydrochloride (1:1)",
    "cn_name": null,
    "alternate_name": "Benzenemethanol, 4-hydroxy-3-methoxy-α-[(methylamino)methyl]-, hydrochloride (1:1);Vanillyl alcohol, α-[(methylamino)methyl]-, hydrochloride, (±)-;Benzenemethanol, 4-hydroxy-3-methoxy-α-[(methylamino)methyl]-, hydrochloride, (±)-;Benzenemethanol, 4-hydroxy-3-methoxy-α-[(methylamino)methyl]-, hydrochloride;(±)-Metanephrine hydrochloride;<em>dl</em>-Metanephrine hydrochloride;Metanephrine hydrochloride",
    "duplicated_cas_no": "5090-31-3",
    "SMILES": "C(CNC)(O)C1=CC(OC)=C(O)C=C1.Cl",
    "meta_data": {
        "InChI": "InChI=1S/C10H15NO3.ClH/c1-11-6-9(13)7-3-4-8(12)10(5-7)14-2;/h3-5,9,11-13H,6H2,1-2H3;1H",
        "InChIKey": null,
        "Canonical SMILES": "Cl.OC1=CC=C(C=C1OC)C(O)CNC",
        "Molecular Formula": "C<sub>10</sub>H<sub>15</sub>NO<sub>3</sub>.ClH",
        "Molecular Mass": "",
        "Melting Point": "177-178 °C",
        "Density": "1.320 g/cm³"
    }
}