{
    "cas_no": "54029-45-7",
    "key_name": "4-Amino-3-nitrophenyl thiocyanate",
    "cn_name": "2-硝基-4-硫氰基苯胺;",
    "alternate_name": "Thiocyanic acid, 4-amino-3-nitrophenyl ester;Aniline, 2-nitro-4-thiocyanato-;4-Amino-3-nitrophenyl thiocyanate;1-Amino-2-nitro-4-thiocyanatobenzene;2-Nitro-4-thiocyanatoaniline;4-Thiocyano-2-nitroaniline;2-Nitro-4-thiocyanoaniline;2-Nitro-4-thiocyanatobenzenamine;4-Thiocyanato-2-nitroaniline;[(4-Amino-3-nitrophenyl)sulfanyl]formonitrile;2-Nitro-4-thiocyanato-phenylamine",
    "duplicated_cas_no": "",
    "SMILES": "N(=O)(=O)C1=CC(SC#N)=CC=C1N",
    "meta_data": {
        "InChI": "InChI=1S/C7H5N3O2S/c8-4-13-5-1-2-6(9)7(3-5)10(11)12/h1-3H,9H2",
        "InChIKey": null,
        "Canonical SMILES": "N#CSC1=CC=C(N)C(=C1)N(=O)=O",
        "Molecular Formula": "C<sub>7</sub>H<sub>5</sub>N<sub>3</sub>O<sub>2</sub>S",
        "Molecular Mass": "195.20",
        "Melting Point": "113 °C"
    }
}