{
    "cas_no": "64-75-5",
    "key_name": "(-)-Tetracycline hydrochloride",
    "cn_name": "盐酸四环素;",
    "alternate_name": "2-Naphthacenecarboxamide, 4-(dimethylamino)-1,4,4a,5,5a,6,11,12a-octahydro-3,6,10,12,12a-pentahydroxy-6-methyl-1,11-dioxo-, hydrochloride (1:1), (4<em>S</em>,4a<em>S</em>,5a<em>S</em>,6<em>S</em>,12a<em>S</em>)-;2-Naphthacenecarboxamide, 4-(dimethylamino)-1,4,4a,5,5a,6,11,12a-octahydro-3,6,10,12,12a-pentahydroxy-6-methyl-1,11-dioxo-, monohydrochloride;2-Naphthacenecarboxamide, 4-(dimethylamino)-1,4,4a,5,5a,6,11,12a-octahydro-3,6,10,12,12a-pentahydroxy-6-methyl-1,11-dioxo-, monohydrochloride, [4<em>S</em>-(4α,4aα,5aα,6β,12aα)]-;2-Naphthacenecarboxamide, 4-(dimethylamino)-1,4,4a,5,5a,6,11,12a-octahydro-3,6,10,12,12a-pentahydroxy-6-methyl-1,11-dioxo-, monohydrochloride, (4<em>S</em>,4a<em>S</em>,5a<em>S</em>,6<em>S</em>,12a<em>S</em>)-;Cancycline-250;Medamycin;Paltet;Panmycin hydrochloride;Polycycline hydrochloride;Tet-Cy;Tetracaps;Tetracycline hydrochloride;Achromycin hydrochloride;Subamycin;Tetracycline chlorohydrate;Steclin;Sanclomycine;Bristaciclina;Bristacycline;Hostacycline;Polyotic ointment;Dumocyclin;Tetrabid;Hostacyclin;Neocycline B;Supramycin;(-)-Tetracycline hydrochloride;Tetracyklin;Ro-Cycline;Diocyclin;Remicyclin;Achro;Tetracyn;Tetrabon;Purocyclina;Criseociclina;Cefracycline;Tefilin;Ala-Tet;Cyclopar;Triphacyclin;Tetracompren;Tetrachel;Tetrabakat;Imex;Partrex;Helvecyclin;Sustamycin;Riocyclin;Topicycline;Tetramavan;Unicin;Tetrablet;Tetralution;Robitet;Tetrosol;TetraSURE;Ambracyn;Tetrakap;Vetquamycin 324;Quadracyclin;Talcin;Laudin;Heromycin;Sumycin",
    "duplicated_cas_no": "102030-19-3;8017-77-4;8026-72-0;90438-83-8",
    "SMILES": "O[C@@]12[C@@](C[C@]3(C(=C1O)C(=O)C=4C([C@@]3(C)O)=CC=CC4O)[H])([C@H](N(C)C)C(O)=C(C(N)=O)C2=O)[H].Cl",
    "meta_data": {
        "InChI": "InChI=1S/C22H24N2O8.ClH/c1-21(31)8-5-4-6-11(25)12(8)16(26)13-9(21)7-10-15(24(2)3)17(27)14(20(23)30)19(29)22(10,32)18(13)28;/h4-6,9-10,15,25,27-28,31-32H,7H2,1-3H3,(H2,23,30);1H/t9-,10-,15-,21+,22-;/m0./s1",
        "InChIKey": null,
        "Canonical SMILES": "Cl.O=C(N)C=1C(=O)C2(O)C(O)=C3C(=O)C=4C(O)=CC=CC4C(O)(C)C3CC2C(C1O)N(C)C",
        "Molecular Formula": "C<sub>22</sub>H<sub>24</sub>N<sub>2</sub>O<sub>8</sub>.ClH",
        "Molecular Mass": "",
        "Melting Point": "214 °C"
    }
}