{
    "cas_no": "616-68-2",
    "key_name": "Trimecaine",
    "cn_name": "三甲卡因;美索卡因;2-(二乙基氨基)-N-均三甲苯基乙酰胺;",
    "alternate_name": "Acetamide, 2-(diethylamino)-<em>N</em>-(2,4,6-trimethylphenyl)-;Acetanilide, 2-(diethylamino)-2′,4′,6′-trimethyl-;2-(Diethylamino)-<em>N</em>-(2,4,6-trimethylphenyl)acetamide;ω-Diethylaminoacetylaminomesitylene;<em>N</em>-(Diethylaminoacetyl)-2,4,6-trimethylaniline;2-(Diethylamino)-2′,4′,6′-trimethylacetanilide;Diethylglycinemesidide;Mesidicaine;Trimecain;Trimecaine;Justecaina;Mesdicain;Mesokain;MeSH ID: D014288",
    "duplicated_cas_no": "91484-70-7",
    "SMILES": "N(C(CN(CC)CC)=O)C1=C(C)C=C(C)C=C1C",
    "meta_data": {
        "InChI": "InChI=1S/C15H24N2O/c1-6-17(7-2)10-14(18)16-15-12(4)8-11(3)9-13(15)5/h8-9H,6-7,10H2,1-5H3,(H,16,18)",
        "InChIKey": null,
        "Canonical SMILES": "O=C(NC=1C(=CC(=CC1C)C)C)CN(CC)CC",
        "Molecular Formula": "C<sub>15</sub>H<sub>24</sub>N<sub>2</sub>O",
        "Molecular Mass": "248.36",
        "Boiling Point": "187 °C",
        "Melting Point": "44 °C"
    }
}