{
    "cas_no": "1196-01-6",
    "key_name": "(<em>S</em>)-Verbenone",
    "cn_name": null,
    "alternate_name": "Bicyclo[3.1.1]hept-3-en-2-one, 4,6,6-trimethyl-, (1<em>S</em>,5<em>S</em>)-;2-Pinen-4-one, (1<em>S</em>,5<em>S</em>)-(-)-;Bicyclo[3.1.1]hept-3-en-2-one, 4,6,6-trimethyl-, (1<em>S</em>)-;(1<em>S</em>,5<em>S</em>)-4,6,6-Trimethylbicyclo[3.1.1]hept-3-en-2-one;(-)-Verbenone;(<em>S</em>)-(-)-Verbenone;(1<em>S</em>,5<em>S</em>)-(-)-Verbenone;(<em>S</em>)-Verbenone;(1<em>S</em>,5<em>S</em>)-Verbenone;(1<em>S</em>)-(-)-<em>cis</em>-Verbenone;(1<em>S</em>)-Verbenone;NSC 6831;(1<em>S</em>)-(-)-Verbenone;Levoverbenone;<span class=\"text-smallcaps\">L</span>(-)-Verbenone",
    "duplicated_cas_no": "1933770-61-6;2308489-04-3;2643322-08-9",
    "SMILES": "CC1(C)[C@]2(C[C@@]1(C(=O)C=C2C)[H])[H]",
    "meta_data": {
        "InChI": "InChI=1S/C10H14O/c1-6-4-9(11)8-5-7(6)10(8,2)3/h4,7-8H,5H2,1-3H3/t7-,8+/m0/s1",
        "InChIKey": null,
        "Canonical SMILES": "O=C1C=C(C)C2CC1C2(C)C",
        "Molecular Formula": "C<sub>10</sub>H<sub>14</sub>O",
        "Molecular Mass": "150.22",
        "Boiling Point": "227.5 °C",
        "Density": "0.980 g/cm³ @ Temp: 15 °C"
    }
}