{
    "cas_no": "91599-74-5",
    "key_name": "Benidipine hydrochloride",
    "cn_name": "盐酸贝尼地平;(R,R)-(+/-)-2,6-二甲基-4-(3-硝基苯)-1,4-二氢-3,5-吡啶二羧酸-甲基-(R)-1-苄基-3-哌啶基酯;",
    "alternate_name": "3,5-Pyridinedicarboxylic acid, 1,4-dihydro-2,6-dimethyl-4-(3-nitrophenyl)-, 3-methyl 5-[(3<em>R</em>)-1-(phenylmethyl)-3-piperidinyl] ester, hydrochloride (1:1), (4<em>R</em>)-<em>rel</em>-;3,5-Pyridinedicarboxylic acid, 1,4-dihydro-2,6-dimethyl-4-(3-nitrophenyl)-, methyl 1-(phenylmethyl)-3-piperidinyl ester, monohydrochloride, (<em>R</em>*,<em>R</em>*)-(±)-;3,5-Pyridinedicarboxylic acid, 1,4-dihydro-2,6-dimethyl-4-(3-nitrophenyl)-, methyl (3<em>R</em>)-1-(phenylmethyl)-3-piperidinyl ester, monohydrochloride, (4<em>R</em>)-<em>rel</em>-;Benidipine hydrochloride;(±)-Benidipine hydrochloride;KW 3049;Coniel",
    "duplicated_cas_no": "105993-05-3",
    "SMILES": "C(O[C@H]1CN(CC2=CC=CC=C2)CCC1)(=O)C=3[C@@H](C(C(OC)=O)=C(C)NC3C)C4=CC(N(=O)=O)=CC=C4.Cl",
    "meta_data": {
        "InChI": "InChI=1/C28H31N3O6.ClH/c1-18-24(27(32)36-3)26(21-11-7-12-22(15-21)31(34)35)25(19(2)29-18)28(33)37-23-13-8-14-30(17-23)16-20-9-5-4-6-10-20;/h4-7,9-12,15,23,26,29H,8,13-14,16-17H2,1-3H3;1H/t23-,26-;/s2",
        "InChIKey": null,
        "Canonical SMILES": "Cl.O=C(OC)C1=C(NC(=C(C(=O)OC2CN(CC=3C=CC=CC3)CCC2)C1C=4C=CC=C(C4)N(=O)=O)C)C",
        "Molecular Formula": "C<sub>28</sub>H<sub>31</sub>N<sub>3</sub>O<sub>6</sub>.ClH",
        "Molecular Mass": "",
        "Melting Point": "199.4-200.4 °C"
    }
}