{
    "cas_no": "6080-33-7",
    "key_name": "Sinomenine hydrochloride",
    "cn_name": null,
    "alternate_name": "Morphinan-6-one, 7,8-didehydro-4-hydroxy-3,7-dimethoxy-17-methyl-, hydrochloride (1:1), (9α,13α,14α)-;9α,13α,14α-Morphinan-6-one, 7,8-didehydro-4-hydroxy-3,7-dimethoxy-17-methyl-, hydrochloride;Sinomenine hydrochloride;Morphinan-6-one, 7,8-didehydro-4-hydroxy-3,7-dimethoxy-17-methyl-, hydrochloride, (9α,13α,14α)-;Cucoline, hydrochloride;NSC 76021;Sinomenin hydrochloride",
    "duplicated_cas_no": "1089707-86-7",
    "SMILES": "OC1=C2[C@]34[C@@]([C@](CC2=CC=C1OC)(N(C)CC3)[H])(C=C(OC)C(=O)C4)[H].Cl",
    "meta_data": {
        "InChI": "InChI=1S/C19H23NO4.ClH/c1-20-7-6-19-10-14(21)16(24-3)9-12(19)13(20)8-11-4-5-15(23-2)18(22)17(11)19;/h4-5,9,12-13,22H,6-8,10H2,1-3H3;1H/t12-,13+,19-;/m1./s1",
        "InChIKey": null,
        "Canonical SMILES": "Cl.O=C1C(OC)=CC2C3N(C)CCC2(C4=C(O)C(OC)=CC=C4C3)C1",
        "Molecular Formula": "C<sub>19</sub>H<sub>23</sub>NO<sub>4</sub>.ClH",
        "Molecular Mass": "",
        "Melting Point": "231 °C (decomp)"
    }
}