{
    "cas_no": "98-82-8",
    "key_name": "Cumene",
    "cn_name": "枯烯;",
    "alternate_name": "Benzene, (1-methylethyl)-;Cumene;(1-Methylethyl)benzene;Cumol;Isopropylbenzene;2-Phenylpropane;NSC 8776;<em>i</em>-Propylbenzene",
    "duplicated_cas_no": "",
    "SMILES": "C(C)(C)C1=CC=CC=C1",
    "meta_data": {
        "InChI": "InChI=1S/C9H12/c1-8(2)9-6-4-3-5-7-9/h3-8H,1-2H3",
        "InChIKey": null,
        "Canonical SMILES": "C=1C=CC(=CC1)C(C)C",
        "Molecular Formula": "C<sub>9</sub>H<sub>12</sub>",
        "Molecular Mass": "120.19",
        "Boiling Point": "152.4 °C @ Press: 760 Torr",
        "Melting Point": "-96.0 °C",
        "Density": "0.862 g/cm³ @ Temp: 20 °C"
    }
}