{
    "cas_no": "10297-73-1",
    "key_name": "1-[4-(Methylsulfonyl)phenyl]ethanone",
    "cn_name": "4-甲砜基苯乙酮;4-甲磺酰基苯乙酮;",
    "alternate_name": "Ethanone, 1-[4-(methylsulfonyl)phenyl]-;Acetophenone, 4′-(methylsulfonyl)-;1-[4-(Methylsulfonyl)phenyl]ethanone;4′-(Methylsulfonyl)acetophenone;4-Methylsulfonylacetophenone;<em>p</em>-Methylsulfonylacetophenone;<em>p</em>-Acetylphenyl methyl sulfone;1-(4-Methylsulfonylphenyl)ethanone;NSC 403928;4-(Methylsulfonyl)propiophenone;1-[4-(Methylsulfonyl)phenyl]ethan-1-one;4-(Methanesulfonyl)acetophenone;1-(4-Methanesulfonylphenyl)ethan-1-one",
    "duplicated_cas_no": "",
    "SMILES": "S(C)(=O)(=O)C1=CC=C(C(C)=O)C=C1",
    "meta_data": {
        "InChI": "InChI=1S/C9H10O3S/c1-7(10)8-3-5-9(6-4-8)13(2,11)12/h3-6H,1-2H3",
        "InChIKey": null,
        "Canonical SMILES": "O=C(C1=CC=C(C=C1)S(=O)(=O)C)C",
        "Molecular Formula": "C<sub>9</sub>H<sub>10</sub>O<sub>3</sub>S",
        "Molecular Mass": "198.24",
        "Melting Point": "128-129 °C",
        "Density": "1.218 g/cm³ @ Temp: 25.000 °C"
    }
}