{
    "cas_no": "7385-67-3",
    "key_name": "Nile red",
    "cn_name": "尼罗红;",
    "alternate_name": "5<em>H</em>-Benzo[<em>a</em>]phenoxazin-5-one, 9-(diethylamino)-;9-(Diethylamino)-5<em>H</em>-benzo[<em>a</em>]phenoxazin-5-one;Nile Blue A oxazone;Nile red;Phenoxazone 9;A 84655;9-(Diethylamino)-5H-benzo[<em>a</em>]phenoxazinone",
    "duplicated_cas_no": "72506-41-3",
    "SMILES": "O=C1C=2C(C=3C(OC=4C(N3)=CC=C(N(CC)CC)C4)=C1)=CC=CC2",
    "meta_data": {
        "InChI": "InChI=1S/C20H18N2O2/c1-3-22(4-2)13-9-10-16-18(11-13)24-19-12-17(23)14-7-5-6-8-15(14)20(19)21-16/h5-12H,3-4H2,1-2H3",
        "InChIKey": null,
        "Canonical SMILES": "O=C1C=C2OC=3C=C(C=CC3N=C2C4=CC=CC=C14)N(CC)CC",
        "Molecular Formula": "C<sub>20</sub>H<sub>18</sub>N<sub>2</sub>O<sub>2</sub>",
        "Molecular Mass": "318.37",
        "Melting Point": "212 °C",
        "Density": "1.20 g/cm³"
    }
}