{
    "cas_no": "56-53-1",
    "key_name": "Diethylstilbestrol",
    "cn_name": "己烯雌酚;(E)-4,4\"-(1,2-二乙基-1,2-亚乙烯基)双苯酚;",
    "alternate_name": "Phenol, 4,4′-[(1<em>E</em>)-1,2-diethyl-1,2-ethenediyl]bis-;4,4′-Stilbenediol, α,α′-diethyl-, (<em>E</em>)-;Phenol, 4,4′-(1,2-diethyl-1,2-ethenediyl)bis-, (<em>E</em>)-;4,4′-Stilbenediol, α,α′-diethyl-, <em>trans</em>-;4,4′-[(1<em>E</em>)-1,2-Diethyl-1,2-ethenediyl]bis[phenol];Bio-des;Comestrol;Cyren A;DEB;DES;Di-Estryl;<em>trans</em>-α,α′-Diethyl-4,4′-stilbenediol;Domestrol;Estilbin MCO;Estrobene;Estrosyn;Fonatol;Grafestrol;Hi-Bestrol;Microest;Milestrol;Oestrogenine;Oestromenin;Oestromensyl;Palestrol;Serral;Sexocretin;Sibol;Stil;Stilbestrol;Stilbetin;Stilboestroform;Stilboestrol;Stilkap;Stil-Rol;Synthoestrin;Syntofolin;<em>trans</em>-Diethylstilbestrol;Diethylstilbestrol;Stilboefral;α,α′-Diethyl-4,4′-stilbenediol;Dawe's destrol solution;4,4′-Dihydroxy-α,β-diethylstilbene;Bufon;Antigestil;Neo-Oestranol I;Distilbene;Iscovesco;Synestrin;(<em>E</em>)-4,4′-(1,2-Diethyl-1,2-ethenediyl)bisphenol;α,α′-Diethylstilbenediol;Dawe's destrol;DiBestrol 2 Premix;Rumestrol 2;Rumestrol 1;4,4′-Dihydroxydiethylstilbene;Cyren;Synthofolin;Pabestrol;Estromenin;Menostilbeen;Agostilben;DES (synthetic estrogen);<em>trans</em>-4,4′-Dihydroxy-α,β-diethylstilbene;(<em>E</em>)-3,4-Bis(4-hydroxyphenyl)-3-hexene;(<em>E</em>)-Diethylstilbestrol;Vagestrol;Oestromon;NSC 3070;Bertrol;<em>trans</em>-α,α′-Diethyl-4,4′-dihydroxystilbene;Estrogenine;MeSH ID: D004054",
    "duplicated_cas_no": "8026-45-7;8028-09-9;8030-34-0;8049-42-1;8053-00-7",
    "SMILES": "C(=C(/CC)\\C1=CC=C(O)C=C1)(\\CC)/C2=CC=C(O)C=C2",
    "meta_data": {
        "InChI": "InChI=1S/C18H20O2/c1-3-17(13-5-9-15(19)10-6-13)18(4-2)14-7-11-16(20)12-8-14/h5-12,19-20H,3-4H2,1-2H3/b18-17+",
        "InChIKey": null,
        "Canonical SMILES": "OC1=CC=C(C=C1)C(=C(C2=CC=C(O)C=C2)CC)CC",
        "Molecular Formula": "C<sub>18</sub>H<sub>20</sub>O<sub>2</sub>",
        "Molecular Mass": "268.35",
        "Melting Point": "169-172 °C"
    }
}