{
    "cas_no": "367-64-6",
    "key_name": "Butyl 2,2,2-trifluoroacetate",
    "cn_name": "正丁基醋酸三氟;",
    "alternate_name": "Acetic acid, 2,2,2-trifluoro-, butyl ester;Acetic acid, trifluoro-, butyl ester;Butyl 2,2,2-trifluoroacetate;Butyl trifluoroacetate;Butyl perfluoroacetate;NSC 77658;<em>n</em>-Butyl trifluoroacetate;1-Butyl trifluoroacetate",
    "duplicated_cas_no": "",
    "SMILES": "C(OCCCC)(C(F)(F)F)=O",
    "meta_data": {
        "InChI": "InChI=1S/C6H9F3O2/c1-2-3-4-11-5(10)6(7,8)9/h2-4H2,1H3",
        "InChIKey": null,
        "Canonical SMILES": "O=C(OCCCC)C(F)(F)F",
        "Molecular Formula": "C<sub>6</sub>H<sub>9</sub>F<sub>3</sub>O<sub>2</sub>",
        "Molecular Mass": "170.13",
        "Boiling Point": "102.7-102.8 °C",
        "Density": "1.016 g/cm³ @ Temp: 20 °C"
    }
}