{
    "cas_no": "78-19-3",
    "key_name": "3,9-Divinyl-2,4,8,10-tetraoxaspiro[5.5]undecane",
    "cn_name": "3,9-二乙烯基-2,4,8,10-四氧杂螺[5.5]十一烷;二丙烯醛缩季戊四醇;",
    "alternate_name": "2,4,8,10-Tetraoxaspiro[5.5]undecane, 3,9-diethenyl-;2,4,8,10-Tetraoxaspiro[5.5]undecane, 3,9-divinyl-;3,9-Diethenyl-2,4,8,10-tetraoxaspiro[5.5]undecane;Acrolein, cyclic diacetal with pentaerythritol;Acrolein, cyclic neopentanetetrayl acetal;3,9-Divinyl-2,4,8,10-tetraoxaspiro[5.5]undecane;Diallylidene pentaerythritol;Pentaerythritol diacrolein acetal;NSC 7585;3,9-Bis(ethenyl)-2,4,8,10-tetraoxaspiro[5.5]undecane",
    "duplicated_cas_no": "10441-96-0;67737-20-6;80208-42-0",
    "SMILES": "C(=C)C1OCC2(COC(C=C)OC2)CO1",
    "meta_data": {
        "InChI": "InChI=1S/C11H16O4/c1-3-9-12-5-11(6-13-9)7-14-10(4-2)15-8-11/h3-4,9-10H,1-2,5-8H2",
        "InChIKey": null,
        "Canonical SMILES": "O1CC2(COC1C=C)COC(OC2)C=C",
        "Molecular Formula": "C<sub>11</sub>H<sub>16</sub>O<sub>4</sub>",
        "Molecular Mass": "212.24",
        "Boiling Point": "93-94 °C @ Press: 1 Torr",
        "Melting Point": "42 °C"
    }
}