{
    "cas_no": "453-18-9",
    "key_name": "Methyl fluoroacetate",
    "cn_name": "氟乙酸甲酯;",
    "alternate_name": "Acetic acid, 2-fluoro-, methyl ester;Acetic acid, fluoro-, methyl ester;Methyl fluoroacetate;Methyl 2-fluoroacetate;Fluoroacetic acid methyl ester",
    "duplicated_cas_no": "",
    "SMILES": "C(CF)(OC)=O",
    "meta_data": {
        "InChI": "InChI=1S/C3H5FO2/c1-6-3(5)2-4/h2H2,1H3",
        "InChIKey": null,
        "Canonical SMILES": "O=C(OC)CF",
        "Molecular Formula": "C<sub>3</sub>H<sub>5</sub>FO<sub>2</sub>",
        "Molecular Mass": "92.07",
        "Boiling Point": "104.5 °C",
        "Melting Point": "-35 °C",
        "Density": "1.1744 g/cm³ @ Temp: 20 °C"
    }
}