{
    "cas_no": "4435-67-0",
    "key_name": "1,3,5-Benzenetriacetic acid",
    "cn_name": null,
    "alternate_name": "1,3,5-Benzenetriacetic acid;<em>s</em>-Phenenyltriacetic acid;(3,5-Bis-carboxymethylphenyl)acetic acid;NSC 408182;2,2′,2′′-(Benzene-1,3,5-triyl)triacetic acid;2,2′,2′′-(Benzene-1,3,5-triyl)triaceticacid",
    "duplicated_cas_no": "",
    "SMILES": "C(C(O)=O)C1=CC(CC(O)=O)=CC(CC(O)=O)=C1",
    "meta_data": {
        "InChI": "InChI=1S/C12H12O6/c13-10(14)4-7-1-8(5-11(15)16)3-9(2-7)6-12(17)18/h1-3H,4-6H2,(H,13,14)(H,15,16)(H,17,18)",
        "InChIKey": null,
        "Canonical SMILES": "O=C(O)CC=1C=C(C=C(C1)CC(=O)O)CC(=O)O",
        "Molecular Formula": "C<sub>12</sub>H<sub>12</sub>O<sub>6</sub>",
        "Molecular Mass": "252.22",
        "Melting Point": "197-204 °C"
    }
}