{
    "cas_no": "94985-27-0",
    "key_name": "1-(Phenylmethyl)-3-azetidinecarboxylic acid",
    "cn_name": null,
    "alternate_name": "3-Azetidinecarboxylic acid, 1-(phenylmethyl)-;1-(Phenylmethyl)-3-azetidinecarboxylic acid;1-Benzyl-3-azetidinecarboxylic acid;<em>N</em>-Benzylazetidine-3-carboxylic acid",
    "duplicated_cas_no": "",
    "SMILES": "C(N1CC(C(O)=O)C1)C2=CC=CC=C2",
    "meta_data": {
        "InChI": "InChI=1S/C11H13NO2/c13-11(14)10-7-12(8-10)6-9-4-2-1-3-5-9/h1-5,10H,6-8H2,(H,13,14)",
        "InChIKey": null,
        "Canonical SMILES": "O=C(O)C1CN(CC=2C=CC=CC2)C1",
        "Molecular Formula": "C<sub>11</sub>H<sub>13</sub>NO<sub>2</sub>",
        "Molecular Mass": "191.23",
        "Melting Point": "132 °C"
    }
}