{
    "cas_no": "25369-78-2",
    "key_name": "5-Chloro-2-mercaptobenzimidazole",
    "cn_name": null,
    "alternate_name": "2<em>H</em>-Benzimidazole-2-thione, 5-chloro-1,3-dihydro-;2-Benzimidazolethiol, 5-chloro-;2-Benzimidazolethiol, 5(<em>or</em> 6)-chloro-;5-Chloro-1,3-dihydro-2<em>H</em>-benzimidazole-2-thione;5-Chloro-2-mercaptobenzimidazole;5-Chlorobenzimidazole-2-thiol;5-Chloro-2-mercapto-1<em>H</em>-benzimidazole;NSC 35063;NSC 45283;5-Chloro-1<em>H</em>-benzoimidazole-2-thione;5-Chloro-1<em>H</em>-benzo[<em>d</em>]imidazole-2-thiol;6-Chloro-1<em>H</em>-1,3-benzodiazole-2-thiol",
    "duplicated_cas_no": "110608-76-9",
    "SMILES": "S=C1NC=2C(N1)=CC(Cl)=CC2",
    "meta_data": {
        "InChI": "InChI=1S/C7H5ClN2S/c8-4-1-2-5-6(3-4)10-7(11)9-5/h1-3H,(H2,9,10,11)",
        "InChIKey": null,
        "Canonical SMILES": "S=C1NC2=CC=C(Cl)C=C2N1",
        "Molecular Formula": "C<sub>7</sub>H<sub>5</sub>ClN<sub>2</sub>S",
        "Molecular Mass": "184.65",
        "Melting Point": "305 °C (decomp)"
    }
}