{
    "cas_no": "119318-15-9",
    "key_name": "3β,24-Dihydroxyolean-12-ene",
    "cn_name": null,
    "alternate_name": "Olean-12-ene-3,23-diol, (3β,4β)-;Olean-12-ene-3β,24-diol;(3β,4β)-Olean-12-ene-3,23-diol;3β,24-Dihydroxyolean-12-ene",
    "duplicated_cas_no": "1174209-19-8",
    "SMILES": "C[C@]12[C@@]3(C)C([C@]4([C@@](C)(CC3)CCC(C)(C)C4)[H])=CC[C@@]1([C@]5(C)[C@@](CC2)([C@](CO)(C)[C@@H](O)CC5)[H])[H]",
    "meta_data": {
        "InChI": "InChI=1S/C30H50O2/c1-25(2)14-15-26(3)16-17-29(6)20(21(26)18-25)8-9-23-27(4)12-11-24(32)28(5,19-31)22(27)10-13-30(23,29)7/h8,21-24,31-32H,9-19H2,1-7H3/t21-,22+,23+,24-,26+,27-,28+,29+,30+/m0/s1",
        "InChIKey": null,
        "Canonical SMILES": "OCC1(C)C(O)CCC2(C)C3CC=C4C5CC(C)(C)CCC5(C)CCC4(C)C3(C)CCC12",
        "Molecular Formula": "C<sub>30</sub>H<sub>50</sub>O<sub>2</sub>",
        "Molecular Mass": "442.72",
        "Melting Point": "243-245 °C"
    }
}