{
    "cas_no": "1633-83-6",
    "key_name": "Butane sultone",
    "cn_name": "1,4-丁磺酸内酯;1,4-丁基磺酸内酯;",
    "alternate_name": "1,2-Oxathiane, 2,2-dioxide;1-Butanesulfonic acid, 4-hydroxy-, δ-sultone;δ-Valerosultone;1,4-Butane sultone;Butane sultone;δ-Butane sultone;NSC 71999;1,4-Butyl sultone;1,4-Butylene sulfone;1,2λ6-Oxathiane-2,2-dione",
    "duplicated_cas_no": "",
    "SMILES": "O=S1(=O)CCCCO1",
    "meta_data": {
        "InChI": "InChI=1S/C4H8O3S/c5-8(6)4-2-1-3-7-8/h1-4H2",
        "InChIKey": null,
        "Canonical SMILES": "O=S1(=O)OCCCC1",
        "Molecular Formula": "C<sub>4</sub>H<sub>8</sub>O<sub>3</sub>S",
        "Molecular Mass": "136.17",
        "Boiling Point": "152-153 °C @ Press: 16 Torr",
        "Melting Point": "14.5 °C",
        "Density": "1.336 g/cm³ @ Temp: 18 °C"
    }
}