{
    "cas_no": "266359-83-5",
    "key_name": "Repertaxin",
    "cn_name": null,
    "alternate_name": "Benzeneacetamide, α-methyl-4-(2-methylpropyl)-<em>N</em>-(methylsulfonyl)-, (α<em>R</em>)-;(α<em>R</em>)-α-Methyl-4-(2-methylpropyl)-<em>N</em>-(methylsulfonyl)benzeneacetamide;Reparixin;Repertaxin;DF 1681Y;(<em>R</em>)-(-)-<em>N</em>-2-[(4-Isobutylphenyl)propionyl]methanesulfonamide;(2R)-2-[4-(2-Methylpropyl)phenyl]-<em>N</em>-methylsulfonylpropanamide",
    "duplicated_cas_no": "",
    "SMILES": "[C@@H](C(NS(C)(=O)=O)=O)(C)C1=CC=C(CC(C)C)C=C1",
    "meta_data": {
        "InChI": "InChI=1S/C14H21NO3S/c1-10(2)9-12-5-7-13(8-6-12)11(3)14(16)15-19(4,17)18/h5-8,10-11H,9H2,1-4H3,(H,15,16)/t11-/m1/s1",
        "InChIKey": null,
        "Canonical SMILES": "O=C(NS(=O)(=O)C)C(C1=CC=C(C=C1)CC(C)C)C",
        "Molecular Formula": "C<sub>14</sub>H<sub>21</sub>NO<sub>3</sub>S",
        "Molecular Mass": "283.39",
        "Melting Point": "103-105 °C"
    }
}