{
    "cas_no": "135-19-3",
    "key_name": "2-Naphthol",
    "cn_name": "2-羟基萘;2-萘酚;beta-萘酚;",
    "alternate_name": "2-Naphthalenol;2-Naphthol;C.I. 37500;Azogen Developer A;C.I. Azoic Coupling Component 1;C.I. Developer 5;Developer A;Developer AMS;Developer BN;Developer NA;β-Hydroxynaphthalene;Isonaphthol;2-Hydroxynaphthalene;Naphthol B;β-Naphthol;Betanaphthol;β-Naphthyl alcohol;NSC 2044;NSC 5737;Bordeaux Base GP",
    "duplicated_cas_no": "860440-31-9",
    "SMILES": "OC1=CC2=C(C=C1)C=CC=C2",
    "meta_data": {
        "InChI": "InChI=1S/C10H8O/c11-10-6-5-8-3-1-2-4-9(8)7-10/h1-7,11H",
        "InChIKey": null,
        "Canonical SMILES": "OC=1C=CC=2C=CC=CC2C1",
        "Molecular Formula": "C<sub>10</sub>H<sub>8</sub>O",
        "Molecular Mass": "144.17",
        "Boiling Point": "285 °C",
        "Melting Point": "121.6 °C",
        "Density": "1.28 g/cm³ @ Temp: 20 °C"
    }
}