{
    "cas_no": "14436-32-9",
    "key_name": "9-Decenoic acid",
    "cn_name": "9-癸烯酸;",
    "alternate_name": "9-Decenoic acid;Caproleic acid",
    "duplicated_cas_no": "",
    "SMILES": "C(CCCCC=C)CCC(O)=O",
    "meta_data": {
        "InChI": "InChI=1S/C10H18O2/c1-2-3-4-5-6-7-8-9-10(11)12/h2H,1,3-9H2,(H,11,12)",
        "InChIKey": null,
        "Canonical SMILES": "O=C(O)CCCCCCCC=C",
        "Molecular Formula": "C<sub>10</sub>H<sub>18</sub>O<sub>2</sub>",
        "Molecular Mass": "170.25",
        "Boiling Point": "142 °C @ Press: 4 Torr",
        "Melting Point": "&lt;0 °C"
    }
}