{
    "cas_no": "122-51-0",
    "key_name": "Triethyl orthoformate",
    "cn_name": "原甲酸三乙酯;",
    "alternate_name": "Ethane, 1,1′,1′′-[methylidynetris(oxy)]tris-;Orthoformic acid, triethyl ester;1,1′,1′′-[Methylidynetris(oxy)]tris[ethane];Aethon;Ethyl orthoformate;Triethoxymethane;Triethyl orthoformate;Orthoformic acid ethyl ester;Ethone;OF;OFE (ether);OFE;NSC 5289;(Diethoxymethoxy)ethane",
    "duplicated_cas_no": "",
    "SMILES": "C(OCC)(OCC)OCC",
    "meta_data": {
        "InChI": "InChI=1S/C7H16O3/c1-4-8-7(9-5-2)10-6-3/h7H,4-6H2,1-3H3",
        "InChIKey": null,
        "Canonical SMILES": "O(CC)C(OCC)OCC",
        "Molecular Formula": "C<sub>7</sub>H<sub>16</sub>O<sub>3</sub>",
        "Molecular Mass": "148.20",
        "Boiling Point": "143 °C",
        "Density": "0.8858 g/cm³ @ Temp: 25 °C"
    }
}