{
    "cas_no": "867130-58-3",
    "key_name": "1,6-Dihydro-6-oxo-4-pyridazinecarboxylic acid",
    "cn_name": null,
    "alternate_name": "4-Pyridazinecarboxylic acid, 1,6-dihydro-6-oxo-;1,6-Dihydro-6-oxo-4-pyridazinecarboxylic acid;6-Oxo-1,6-dihydropyridazine-4-carboxylic acid;3-Oxopyridazine-5-carboxylic acid",
    "duplicated_cas_no": "",
    "SMILES": "C(O)(=O)C1=CC(=O)NN=C1",
    "meta_data": {
        "InChI": "InChI=1S/C5H4N2O3/c8-4-1-3(5(9)10)2-6-7-4/h1-2H,(H,7,8)(H,9,10)",
        "InChIKey": null,
        "Canonical SMILES": "O=C(O)C=1C=NNC(=O)C1",
        "Molecular Formula": "C<sub>5</sub>H<sub>4</sub>N<sub>2</sub>O<sub>3</sub>",
        "Molecular Mass": "140.10",
        "Melting Point": "303 °C"
    }
}