{
    "cas_no": "75625-99-9",
    "key_name": "α-Methyl-4-(2-methyl-1-propen-1-yl)benzeneacetic acid",
    "cn_name": null,
    "alternate_name": "Benzeneacetic acid, α-methyl-4-(2-methyl-1-propen-1-yl)-;Benzeneacetic acid, α-methyl-4-(2-methyl-1-propenyl)-;α-Methyl-4-(2-methyl-1-propen-1-yl)benzeneacetic acid;Gx 258;2-[4-(2-Methylpropenyl)phenyl]propionic Acid;2-[4-(2-Methylprop-1-en-1-yl)phenyl]propanoic acid",
    "duplicated_cas_no": "107672-15-1",
    "SMILES": "C(C(O)=O)(C)C1=CC=C(C=C(C)C)C=C1",
    "meta_data": {
        "InChI": "InChI=1S/C13H16O2/c1-9(2)8-11-4-6-12(7-5-11)10(3)13(14)15/h4-8,10H,1-3H3,(H,14,15)",
        "InChIKey": null,
        "Canonical SMILES": "O=C(O)C(C1=CC=C(C=C1)C=C(C)C)C",
        "Molecular Formula": "C<sub>13</sub>H<sub>16</sub>O<sub>2</sub>",
        "Molecular Mass": "204.26",
        "Melting Point": "50-52 °C"
    }
}