{
    "cas_no": "34403-48-0",
    "key_name": "4-[(Methylamino)methyl]benzonitrile",
    "cn_name": "N-甲基-4-氰基苄胺;",
    "alternate_name": "Benzonitrile, 4-[(methylamino)methyl]-;<em>p</em>-Tolunitrile, α-(methylamino)-;4-[(Methylamino)methyl]benzonitrile;α-(Methylamino)-<em>p</em>-toluonitrile;[(4-Cyanophenyl)methyl]-<em>N</em>-methylamine;<em>N</em>-Methyl-4-cyanobenzylamine;4-Cyanophenylmethyl (methyl)amine",
    "duplicated_cas_no": "",
    "SMILES": "C(NC)C1=CC=C(C#N)C=C1",
    "meta_data": {
        "InChI": "InChI=1S/C9H10N2/c1-11-7-9-4-2-8(6-10)3-5-9/h2-5,11H,7H2,1H3",
        "InChIKey": null,
        "Canonical SMILES": "N#CC1=CC=C(C=C1)CNC",
        "Molecular Formula": "C<sub>9</sub>H<sub>10</sub>N<sub>2</sub>",
        "Molecular Mass": "146.19",
        "Boiling Point": "148-151 °C @ Press: 14 Torr",
        "Melting Point": "108-109 °C"
    }
}