{
    "cas_no": "68497-62-1",
    "key_name": "Pramiracetam",
    "cn_name": null,
    "alternate_name": "1-Pyrrolidineacetamide, <em>N</em>-[2-[bis(1-methylethyl)amino]ethyl]-2-oxo-;<em>N</em>-[2-[Bis(1-methylethyl)amino]ethyl]-2-oxo-1-pyrrolidineacetamide;Amacetam;Pramiracetam;Vinpotropil",
    "duplicated_cas_no": "",
    "SMILES": "C(C(NCCN(C(C)C)C(C)C)=O)N1C(=O)CCC1",
    "meta_data": {
        "InChI": "InChI=1S/C14H27N3O2/c1-11(2)17(12(3)4)9-7-15-13(18)10-16-8-5-6-14(16)19/h11-12H,5-10H2,1-4H3,(H,15,18)",
        "InChIKey": null,
        "Canonical SMILES": "O=C(NCCN(C(C)C)C(C)C)CN1C(=O)CCC1",
        "Molecular Formula": "C<sub>14</sub>H<sub>27</sub>N<sub>3</sub>O<sub>2</sub>",
        "Molecular Mass": "269.38",
        "Boiling Point": "162-164 °C @ Press: 0.15 Torr"
    }
}