{
    "cas_no": "135-13-7",
    "key_name": "2-[(Carboxymethyl)thio]benzoic acid",
    "cn_name": "2-羧甲基硫代苯甲酸;",
    "alternate_name": "Benzoic acid, 2-[(carboxymethyl)thio]-;Benzoic acid, <em>o</em>-[(carboxymethyl)thio]-;Benzoic acid, <em>o</em>-(carboxymethylmercapto)-;2-[(Carboxymethyl)thio]benzoic acid;<em>o</em>-[(Carboxymethyl)thio]benzoic acid;(<em>o</em>-Carboxyphenylthio)acetic acid;NSC 379;NSC 5347;2-[(Carboxymethyl)sulfanyl]benzoic acid",
    "duplicated_cas_no": "",
    "SMILES": "S(CC(O)=O)C1=C(C(O)=O)C=CC=C1",
    "meta_data": {
        "InChI": "InChI=1S/C9H8O4S/c10-8(11)5-14-7-4-2-1-3-6(7)9(12)13/h1-4H,5H2,(H,10,11)(H,12,13)",
        "InChIKey": null,
        "Canonical SMILES": "O=C(O)C=1C=CC=CC1SCC(=O)O",
        "Molecular Formula": "C<sub>9</sub>H<sub>8</sub>O<sub>4</sub>S",
        "Molecular Mass": "212.22",
        "Melting Point": "215 °C"
    }
}