{
    "cas_no": "106463-17-6",
    "key_name": "Tamsulosin hydrochloride",
    "cn_name": "盐酸坦索罗辛;(R)-5-[2-[[2-(2-乙氧基苯氧基)乙基]氨基]丙基]-2-甲氧基-苯磺酰胺盐酸盐;",
    "alternate_name": "Benzenesulfonamide, 5-[(2<em>R</em>)-2-[[2-(2-ethoxyphenoxy)ethyl]amino]propyl]-2-methoxy-, hydrochloride (1:1);Benzenesulfonamide, 5-[2-[[2-(2-ethoxyphenoxy)ethyl]amino]propyl]-2-methoxy-, monohydrochloride, (<em>R</em>)-;Benzenesulfonamide, 5-[(2<em>R</em>)-2-[[2-(2-ethoxyphenoxy)ethyl]amino]propyl]-2-methoxy-, monohydrochloride;(-)-YM 12617;(-)-LY 253352;YM 617;YM 12617-1;(<em>R</em>)-(-)-YM 12617;Harnal;Tamsulosin hydrochloride;LY 253351;Omnic;Omic;Flomax;Yutanal;URIMAX;Dynapress;URIPRO",
    "duplicated_cas_no": "112101-78-7;128332-25-2",
    "SMILES": "S(N)(=O)(=O)C1=C(OC)C=CC(C[C@H](NCCOC2=C(OCC)C=CC=C2)C)=C1.Cl",
    "meta_data": {
        "InChI": "InChI=1S/C20H28N2O5S.ClH/c1-4-26-17-7-5-6-8-18(17)27-12-11-22-15(2)13-16-9-10-19(25-3)20(14-16)28(21,23)24;/h5-10,14-15,22H,4,11-13H2,1-3H3,(H2,21,23,24);1H/t15-;/m1./s1",
        "InChIKey": null,
        "Canonical SMILES": "Cl.O=S(=O)(N)C1=CC(=CC=C1OC)CC(NCCOC=2C=CC=CC2OCC)C",
        "Molecular Formula": "C<sub>20</sub>H<sub>28</sub>N<sub>2</sub>O<sub>5</sub>S.ClH",
        "Molecular Mass": "",
        "Melting Point": "228-230 °C"
    }
}