{
    "cas_no": "69975-66-2",
    "key_name": "2,3-Dihydro-3-oxo-1<em>H</em>-indene-5-carbonitrile",
    "cn_name": "6-氰基-1-茚酮;",
    "alternate_name": "1<em>H</em>-Indene-5-carbonitrile, 2,3-dihydro-3-oxo-;2,3-Dihydro-3-oxo-1<em>H</em>-indene-5-carbonitrile;6-Cyano-1-indanone;3-Oxo-1,2-dihydroindene-5-carbonitrile;3-Oxo-2,3-dihydro-1<em>H</em>-indene-5-carbonitrile;3-Oxo-indan-5-carbonitrile",
    "duplicated_cas_no": "",
    "SMILES": "O=C1C=2C(=CC=C(C#N)C2)CC1",
    "meta_data": {
        "InChI": "InChI=1S/C10H7NO/c11-6-7-1-2-8-3-4-10(12)9(8)5-7/h1-2,5H,3-4H2",
        "InChIKey": null,
        "Canonical SMILES": "N#CC1=CC=C2C(=C1)C(=O)CC2",
        "Molecular Formula": "C<sub>10</sub>H<sub>7</sub>NO",
        "Molecular Mass": "157.17",
        "Melting Point": "109 °C"
    }
}