{
    "cas_no": "58-18-4",
    "key_name": "Methyltestosterone",
    "cn_name": "甲睾酮;甲基睾丸素;甲基睾丸酮;甲基睾酮;17a-甲基-17b-羟基雄甾-4-烯-3-酮;",
    "alternate_name": "Androst-4-en-3-one, 17-hydroxy-17-methyl-, (17β)-;Androst-4-en-3-one, 17β-hydroxy-17-methyl-;(17β)-17-Hydroxy-17-methylandrost-4-en-3-one;Androsan;Anertan;Dumogran;Glosso-Sterandryl;Homandren;Hormale;17-Hydroxy-17-methyl-3-<em>keto</em>-androstene-4;17β-Hydroxy-17α-methylandrost-4-ene-3-one;17β-Hydroxy-17-methylandrost-4-en-3-one;17β-Hydroxy-17α-methylandrost-4-en-3-one;Malestrone;Malogen;Masenone;Metandren;17α-Methylandrost-4-en-17-ol-3-one;17α-Methylandrost-4-en-17β-ol-3-one;17(α)-Methyl-Δ<sup>4</sup>-androsten-17-(β)-ol-3-one;17α-Methyl-17β-hydroxyandrost-4-en-3-one;Methyltestosterone;17-Methyltestosterone;17α-Methyltestosterone;Metrone;<em>M</em>.<em>T</em>.Mucorettes;Neo-Hombreol-M;Nu-man;Oreton-M;Synandrets;Synandrotabs;Testhormone;Testora;Testoviron;17α-Methyl-17β-hydroxyandrost-4-ene-3-one;Androst-4-ene-17α-methyl-17β-ol-3-one;17β-Hydroxy-17α-methyl-3-oxoandrost-4-ene;Androsan (tablets);Anertan (tablets);Mesterone;17-Methyltestosteron;Andrometh;Mastestona;Androsten;Oreton Methyl;Steronyl;17α-Methyl-3-oxo-4-androsten-17β-ol;Testoviron (tablet);L 589.372;RU 24400;U 2842;CDB 110;Testovis Depot;Orchisterone M;Oraviron;Android;Testred;Perandren;NSC 139965;NSC 9701;Methyltestorone;MeSH ID: D008777",
    "duplicated_cas_no": "1300-17-0;31745-24-1;1050679-28-1",
    "SMILES": "C[C@@]12[C@@]3([C@]([C@]4([C@](C)(CC3)[C@@](C)(O)CC4)[H])(CCC1=CC(=O)CC2)[H])[H]",
    "meta_data": {
        "InChI": "InChI=1S/C20H30O2/c1-18-9-6-14(21)12-13(18)4-5-15-16(18)7-10-19(2)17(15)8-11-20(19,3)22/h12,15-17,22H,4-11H2,1-3H3/t15-,16+,17+,18+,19+,20+/m1/s1",
        "InChIKey": null,
        "Canonical SMILES": "O=C1C=C2CCC3C(CCC4(C)C3CCC4(O)C)C2(C)CC1",
        "Molecular Formula": "C<sub>20</sub>H<sub>30</sub>O<sub>2</sub>",
        "Molecular Mass": "302.45",
        "Melting Point": "161-166 °C"
    }
}