{
    "cas_no": "379-79-3",
    "key_name": "Ergotamine tartrate",
    "cn_name": "酒石酸麦角胺;酒石酸麦角胺;",
    "alternate_name": "Ergotaman-3′,6′,18-trione, 12′-hydroxy-2′-methyl-5′-(phenylmethyl)-, (5α)-, (2<em>R</em>,3<em>R</em>)-2,3-dihydroxybutanedioate (2:1);Ergotamine tartrate;Ergotamine, tartrate (2:1) (salt);Ergotaman-3′,6′,18-trione, 12′-hydroxy-2′-methyl-5′-(phenylmethyl)-, (5′α)-, [<em>R</em>-(<em>R</em>*,<em>R</em>*)]-2,3-dihydroxybutanedioate (2:1) (salt);Ergotaman-3′,6′,18-trione, 12′-hydroxy-2′-methyl-5′-(phenylmethyl)-, (5′α)-, (2<em>R</em>,3<em>R</em>)-2,3-dihydroxybutanedioate (2:1) (salt);Gynergen;Ergotamine bitartrate;Gotamine tartrate;Neo-Ergotin;Ergam;Rigetamin;Ergate;Secagyn;Etin;Exmigra;Secupan;Ergomar;Lingraine;Lingran;Ergotartrat;Gynergin;Femergin;Ergostat;Medihaler ergotamine;NSC 41869",
    "duplicated_cas_no": "98260-31-2",
    "SMILES": "O[C@@]12N([C@@H](CC3=CC=CC=C3)C(=O)N4[C@]1(CCC4)[H])C(=O)[C@@](NC(=O)[C@@H]5C=C6C=7C=8C(C[C@]6(N(C)C5)[H])=CNC8C=CC7)(C)O2.[C@@H]([C@H](C(O)=O)O)(C(O)=O)O",
    "meta_data": {
        "InChI": "InChI=1S/C33H35N5O5.C4H6O6/c1-32(35-29(39)21-15-23-22-10-6-11-24-28(22)20(17-34-24)16-25(23)36(2)18-21)31(41)38-26(14-19-8-4-3-5-9-19)30(40)37-13-7-12-27(37)33(38,42)43-32;5-1(3(7)8)2(6)4(9)10/h3-6,8-11,15,17,21,25-27,34,42H,7,12-14,16,18H2,1-2H3,(H,35,39);1-2,5-6H,(H,7,8)(H,9,10)/t21-,25-,26+,27+,32-,33+;1-,2-/m11/s1",
        "InChIKey": null,
        "Canonical SMILES": "O=C(O)C(O)C(O)C(=O)O.O=C(NC1(OC2(O)N(C1=O)C(C(=O)N3CCCC32)CC=4C=CC=CC4)C)C5C=C6C=7C=CC=C8NC=C(C87)CC6N(C)C5",
        "Molecular Formula": "C<sub>33</sub>H<sub>35</sub>N<sub>5</sub>O<sub>5</sub>.<sup>1</sup>/<sub>2</sub>C<sub>4</sub>H<sub>6</sub>O<sub>6</sub>",
        "Molecular Mass": "",
        "Melting Point": "203 °C (decomp)"
    }
}