{
    "cas_no": "15307-93-4",
    "key_name": "2,6-Dichloro-<em>N</em>-phenylbenzenamine",
    "cn_name": "2,6-二氯二苯基胺;",
    "alternate_name": "Benzenamine, 2,6-dichloro-<em>N</em>-phenyl-;Diphenylamine, 2,6-dichloro-;2,6-Dichloro-<em>N</em>-phenylbenzenamine;2,6-Dichlorodiphenylamine;<em>N</em>-(2,6-Dichlorophenyl)aniline;<em>N</em>-Phenyl-2,6-dichloroaniline;<em>N</em>-(2,6-Dichlorophenyl)-<em>N</em>-phenylamine;Decarboxymethyl diclofenac;2,6-Dichloro-<em>N</em>-phenylaniline",
    "duplicated_cas_no": "",
    "SMILES": "N(C1=C(Cl)C=CC=C1Cl)C2=CC=CC=C2",
    "meta_data": {
        "InChI": "InChI=1S/C12H9Cl2N/c13-10-7-4-8-11(14)12(10)15-9-5-2-1-3-6-9/h1-8,15H",
        "InChIKey": null,
        "Canonical SMILES": "ClC1=CC=CC(Cl)=C1NC=2C=CC=CC2",
        "Molecular Formula": "C<sub>12</sub>H<sub>9</sub>Cl<sub>2</sub>N",
        "Molecular Mass": "238.11",
        "Boiling Point": "115 °C @ Press: 0.01 Torr",
        "Melting Point": "48-50 °C"
    }
}