{
    "cas_no": "475-75-2",
    "key_name": "Liriodenine",
    "cn_name": null,
    "alternate_name": "8<em>H</em>-Benzo[<em>g</em>]-1,3-benzodioxolo[6,5,4-<em>de</em>]quinolin-8-one;Liriodenine;Noraporphin-7-one, 4,5,6,6a-tetradehydro-1,2-(methylenedioxy)-;Spermatheridine;Micheline B;Oxoushinsunine;Spermatheridin;Oxoushinsunin;NSC 215254;NSC 93681;VLT 045",
    "duplicated_cas_no": "",
    "SMILES": "O=C1C=2C3=C(C=4C1=CC=CC4)C5=C(C=C3C=CN2)OCO5",
    "meta_data": {
        "InChI": "InChI=1S/C17H9NO3/c19-16-11-4-2-1-3-10(11)14-13-9(5-6-18-15(13)16)7-12-17(14)21-8-20-12/h1-7H,8H2",
        "InChIKey": null,
        "Canonical SMILES": "O=C1C2=NC=CC3=CC=4OCOC4C(C=5C=CC=CC15)=C32",
        "Molecular Formula": "C<sub>17</sub>H<sub>9</sub>NO<sub>3</sub>",
        "Molecular Mass": "275.26",
        "Melting Point": "272-274 °C (decomp)"
    }
}