{
    "cas_no": "4208-64-4",
    "key_name": "α-Methyl-2-furanmethanol",
    "cn_name": "(±)-1-(2-呋喃基)乙醇;",
    "alternate_name": "2-Furanmethanol, α-methyl-;Furfuryl alcohol, α-methyl-;α-Methyl-2-furanmethanol;α-Methylfurfuryl alcohol;2-(1-Hydroxyethyl)furan;1-(2-Furyl)ethanol;1-(2′-Furyl)ethanol;(±)-1-(2-Furyl)ethanol;1-(2-Furanyl)ethanol;1-(2-Furyl)-1-ethanol;1-(Furan-2-yl)ethan-1-ol",
    "duplicated_cas_no": "106565-48-4",
    "SMILES": "C(C)(O)C1=CC=CO1",
    "meta_data": {
        "InChI": "InChI=1S/C6H8O2/c1-5(7)6-3-2-4-8-6/h2-5,7H,1H3",
        "InChIKey": null,
        "Canonical SMILES": "OC(C=1OC=CC1)C",
        "Molecular Formula": "C<sub>6</sub>H<sub>8</sub>O<sub>2</sub>",
        "Molecular Mass": "112.13",
        "Boiling Point": "162.5 °C",
        "Melting Point": "73-74 °C",
        "Density": "1.0771 g/cm³ @ Temp: 25 °C"
    }
}