{
    "cas_no": "23222-97-1",
    "key_name": "2-Nitro-1,4-benzenedimethanol",
    "cn_name": "2-硝基对亚二甲苯基乙二醇;",
    "alternate_name": "1,4-Benzenedimethanol, 2-nitro-;<em>p</em>-Xylene-α,α′-diol, 2-nitro-;2-Nitro-1,4-benzenedimethanol;[4-(Hydroxymethyl)-2-nitrophenyl]methanol;(2-Nitro-1,4-phenylene)dimethanol;(2-Nitrobenzene-1,4-diyl)dimethanol",
    "duplicated_cas_no": "",
    "SMILES": "N(=O)(=O)C1=C(CO)C=CC(CO)=C1",
    "meta_data": {
        "InChI": "InChI=1S/C8H9NO4/c10-4-6-1-2-7(5-11)8(3-6)9(12)13/h1-3,10-11H,4-5H2",
        "InChIKey": null,
        "Canonical SMILES": "O=N(=O)C1=CC(=CC=C1CO)CO",
        "Molecular Formula": "C<sub>8</sub>H<sub>9</sub>NO<sub>4</sub>",
        "Molecular Mass": "183.16",
        "Melting Point": "92 °C"
    }
}