{
    "cas_no": "1071-23-4",
    "key_name": "Phosphoethanolamine",
    "cn_name": "乙醇胺磷酸酯;乙醇胺磷酸酯;",
    "alternate_name": "Ethanol, 2-amino-, 1-(dihydrogen phosphate);Ethanol, 2-amino-, dihydrogen phosphate (ester);Ethanol, 2-amino-, phosphate;Phosphoric acid, 2-aminoethyl ester;<em>O</em>-Phosphoethanolamine;<em>O</em>-Phosphorylethanolamine;Ethanolamine <em>O</em>-phosphate;Phosphoethanolamine;Phosphonoethanolamine;Phosphorylethanolamine;2-Aminoethyl dihydrogen phosphate;Mono(2-aminoethyl) phosphate;Colamine phosphate;Monoaminoethyl phosphate;2-Aminoethanol <em>O</em>-phosphate;NSC 254167;(2-Aminoethoxy)phosphonic acid;2-Azaniumylethyl hydrogen phosphate",
    "duplicated_cas_no": "857343-88-5;2194593-73-0;2194593-74-1",
    "SMILES": "O(P(=O)(O)O)CCN",
    "meta_data": {
        "InChI": "InChI=1S/C2H8NO4P/c3-1-2-7-8(4,5)6/h1-3H2,(H2,4,5,6)",
        "InChIKey": null,
        "Canonical SMILES": "O=P(O)(O)OCCN",
        "Molecular Formula": "C<sub>2</sub>H<sub>8</sub>NO<sub>4</sub>P",
        "Molecular Mass": "141.06",
        "Melting Point": "233-235 °C"
    }
}