{
    "cas_no": "2001-93-6",
    "key_name": "2,4-Dithiouracil",
    "cn_name": null,
    "alternate_name": "2,4(1<em>H</em>,3<em>H</em>)-Pyrimidinedithione;Uracil, 2,4-dithio-;2,4-Dithiouracil;2,4-Pyrimidinedithiol;2,4-Dimercaptopyrimidine;2,4-Dithioxopyrimidine;Dithiouracil;NSC 42031;1,2,3,4-Tetrahydropyrimidine-2,4-dithione;1<em>H</em>-Pyrimidine-2,4-dithione;2-Sulfanyl-1,4-dihydropyrimidine-4-thione",
    "duplicated_cas_no": "107646-92-4;139341-45-0;1193-28-8;35455-73-3",
    "SMILES": "S=C1NC(=S)NC=C1",
    "meta_data": {
        "InChI": "InChI=1S/C4H4N2S2/c7-3-1-2-5-4(8)6-3/h1-2H,(H2,5,6,7,8)",
        "InChIKey": null,
        "Canonical SMILES": "S=C1C=CNC(=S)N1",
        "Molecular Formula": "C<sub>4</sub>H<sub>4</sub>N<sub>2</sub>S<sub>2</sub>",
        "Molecular Mass": "144.22",
        "Melting Point": "&gt;270 °C (decomp)"
    }
}