{
    "cas_no": "5579-81-7",
    "key_name": "Dihydroxyaluminum allantoinate",
    "cn_name": null,
    "alternate_name": "Aluminum, [<em>N</em>-(2,5-dioxo-4-imidazolidinyl)ureato]dihydroxy-;Aluminum, [(2,5-dioxo-4-imidazolidinyl)ureato]dihydroxy-;Aluminum, (allantoinato)dihydroxy-;Aluminum, dihydroxy(allantoinato)-;Urea, (2,5-dioxo-4-imidazolidinyl)-, aluminum complex;RC 172;ALDA;Aluminum dihydroxy allantoinate;Dihydroxy[(2-hydroxy-5-oxo-2-imidazolin-4-yl)ureato]aluminum;Dihydroxy[(2-hydroxy-5-oxo-2-imidazolin-4-yl)ureido]aluminum;Aldioxa;Dihydroxyaluminum allantoinate;Ascomp;Isalon;Isalon (cytoprotective agent);Alanetorin;Nische;Alusa;Arlanto;Peptilate;Chlokale",
    "duplicated_cas_no": "2015-24-9;12125-29-0;52931-97-2",
    "SMILES": "",
    "meta_data": {
        "InChI": "",
        "InChIKey": null,
        "Canonical SMILES": "",
        "Molecular Formula": "C<sub>4</sub>H<sub>7</sub>AlN<sub>4</sub>O<sub>5</sub>",
        "Molecular Mass": "",
        "Melting Point": "230 °C"
    }
}