{
    "uri": "substance/pt/5579817",
    "rn": "5579-81-7",
    "name": "Dihydroxyaluminum allantoinate",
    "images": [],
    "inchi": "",
    "inchiKey": "",
    "smile": "",
    "canonicalSmile": "",
    "molecularFormula": "C<sub>4</sub>H<sub>7</sub>AlN<sub>4</sub>O<sub>5</sub>",
    "molecularMass": "",
    "experimentalProperties": [
        {
            "name": "Melting Point",
            "property": "230 °C",
            "sourceNumber": 1
        }
    ],
    "propertyCitations": [
        {
            "docUri": "",
            "sourceNumber": 1,
            "source": "PhysProp data were obtained from Syracuse Research Corporation of Syracuse, New York (US)"
        }
    ],
    "synonyms": [
        "Aluminum, [<em>N</em>-(2,5-dioxo-4-imidazolidinyl)ureato]dihydroxy-",
        "Aluminum, [(2,5-dioxo-4-imidazolidinyl)ureato]dihydroxy-",
        "Aluminum, (allantoinato)dihydroxy-",
        "Aluminum, dihydroxy(allantoinato)-",
        "Urea, (2,5-dioxo-4-imidazolidinyl)-, aluminum complex",
        "RC 172",
        "ALDA",
        "Aluminum dihydroxy allantoinate",
        "Dihydroxy[(2-hydroxy-5-oxo-2-imidazolin-4-yl)ureato]aluminum",
        "Dihydroxy[(2-hydroxy-5-oxo-2-imidazolin-4-yl)ureido]aluminum",
        "Aldioxa",
        "Dihydroxyaluminum allantoinate",
        "Ascomp",
        "Isalon",
        "Isalon (cytoprotective agent)",
        "Alanetorin",
        "Nische",
        "Alusa",
        "Arlanto",
        "Peptilate",
        "Chlokale"
    ],
    "replacedRns": [
        "2015-24-9",
        "12125-29-0",
        "52931-97-2"
    ],
    "hasMolfile": false,
    "source": "https://commonchemistry.cas.org/detail?cas_rn=5579-81-7"
}