{
    "cas_no": "98-97-5",
    "key_name": "2-Pyrazinecarboxylic acid",
    "cn_name": "2-甲酸吡嗪;",
    "alternate_name": "2-Pyrazinecarboxylic acid;Pyrazinoic acid;Pyrazinecarboxylic acid;1,4-Diazinecarboxylic acid;2-Pyrazinoic acid;Pyrazinic acid;2-Carboxypyrazine;NSC 13146;NSC 27192",
    "duplicated_cas_no": "1580002-29-4",
    "SMILES": "C(O)(=O)C=1C=NC=CN1",
    "meta_data": {
        "InChI": "InChI=1S/C5H4N2O2/c8-5(9)4-3-6-1-2-7-4/h1-3H,(H,8,9)",
        "InChIKey": null,
        "Canonical SMILES": "O=C(O)C1=NC=CN=C1",
        "Molecular Formula": "C<sub>5</sub>H<sub>4</sub>N<sub>2</sub>O<sub>2</sub>",
        "Molecular Mass": "124.10",
        "Melting Point": "225 °C (decomp)"
    }
}