{
    "cas_no": "42521-09-5",
    "key_name": "4-Pyridinecarboxylic acid, 2,6-dichloro-, methyl ester",
    "cn_name": null,
    "alternate_name": "4-Pyridinecarboxylic acid, 2,6-dichloro-, methyl ester;Isonicotinic acid, 2,6-dichloro-, methyl ester;Methyl 2,6-dichloroisonicotinate;CGA 41397;Methyl 2,6-dichloro-4-pyridinecarboxylate;2,6-Dichloroisonicotinic acid methyl ester;2,6-Dichloropyridine-4-carboxylic acid methyl ester",
    "duplicated_cas_no": "",
    "SMILES": "C(OC)(=O)C=1C=C(Cl)N=C(Cl)C1",
    "meta_data": {
        "InChI": "InChI=1S/C7H5Cl2NO2/c1-12-7(11)4-2-5(8)10-6(9)3-4/h2-3H,1H3",
        "InChIKey": null,
        "Canonical SMILES": "O=C(OC)C=1C=C(Cl)N=C(Cl)C1",
        "Molecular Formula": "C<sub>7</sub>H<sub>5</sub>Cl<sub>2</sub>NO<sub>2</sub>",
        "Molecular Mass": "206.03",
        "Melting Point": "83 °C"
    }
}