{
    "cas_no": "13745-86-3",
    "key_name": "11-Chlorodibenzo[<em>b</em>,<em>f</em>][1,4]thiazepine",
    "cn_name": "11-氯-二苯并[b,f][1,4]硫氮杂卓;",
    "alternate_name": "Dibenzo[<em>b</em>,<em>f</em>][1,4]thiazepine, 11-chloro-;11-Chlorodibenzo[<em>b</em>,<em>f</em>][1,4]thiazepine",
    "duplicated_cas_no": "",
    "SMILES": "ClC=1C=2C(SC=3C(N1)=CC=CC3)=CC=CC2",
    "meta_data": {
        "InChI": "InChI=1S/C13H8ClNS/c14-13-9-5-1-3-7-11(9)16-12-8-4-2-6-10(12)15-13/h1-8H",
        "InChIKey": null,
        "Canonical SMILES": "ClC1=NC=2C=CC=CC2SC=3C=CC=CC13",
        "Molecular Formula": "C<sub>13</sub>H<sub>8</sub>ClNS",
        "Molecular Mass": "245.73",
        "Melting Point": "110-111 °C"
    }
}