{
    "cas_no": "2158-14-7",
    "key_name": "4-Acetamidobenzenesulfonyl azide",
    "cn_name": null,
    "alternate_name": "Benzenesulfonyl azide, 4-(acetylamino)-;Sulfanilyl azide, <em>N</em>-acetyl-;4-(Acetylamino)benzenesulfonyl azide;<em>p</em>-Acetamidobenzenesulfonyl azide;4-Acetamidobenzenesulfonyl azide;4-Acetamidophenylsulfonyl azide;NSC 82543;<em>N</em>-(4-Azidosulfonylphenyl)acetamide;<em>p</em>-ABSA;4-Acetamidobenzene-1-sulfonyl azide",
    "duplicated_cas_no": "",
    "SMILES": "S(N=[N+]=[N-])(=O)(=O)C1=CC=C(NC(C)=O)C=C1",
    "meta_data": {
        "InChI": "InChI=1S/C8H8N4O3S/c1-6(13)10-7-2-4-8(5-3-7)16(14,15)12-11-9/h2-5H,1H3,(H,10,13)",
        "InChIKey": null,
        "Canonical SMILES": "[N-]=[N+]=NS(=O)(=O)C1=CC=C(C=C1)NC(=O)C",
        "Molecular Formula": "C<sub>8</sub>H<sub>8</sub>N<sub>4</sub>O<sub>3</sub>S",
        "Molecular Mass": "",
        "Melting Point": "107 °C"
    }
}