{
    "cas_no": "273222-06-3",
    "key_name": "1-(9<em>H</em>-Fluoren-9-ylmethyl) (2<em>S</em>,4<em>R</em>)-4-[[(1,1-dimethylethoxy)carbonyl]amino]-1,2-pyrrolidinedicarboxylate",
    "cn_name": null,
    "alternate_name": "1,2-Pyrrolidinedicarboxylic acid, 4-[[(1,1-dimethylethoxy)carbonyl]amino]-, 1-(9<em>H</em>-fluoren-9-ylmethyl) ester, (2<em>S</em>,4<em>R</em>)-;1-(9<em>H</em>-Fluoren-9-ylmethyl) (2<em>S</em>,4<em>R</em>)-4-[[(1,1-dimethylethoxy)carbonyl]amino]-1,2-pyrrolidinedicarboxylate",
    "duplicated_cas_no": "",
    "SMILES": "C(OC(=O)N1[C@H](C(O)=O)C[C@@H](NC(OC(C)(C)C)=O)C1)C2C=3C(C=4C2=CC=CC4)=CC=CC3",
    "meta_data": {
        "InChI": "InChI=1S/C25H28N2O6/c1-25(2,3)33-23(30)26-15-12-21(22(28)29)27(13-15)24(31)32-14-20-18-10-6-4-8-16(18)17-9-5-7-11-19(17)20/h4-11,15,20-21H,12-14H2,1-3H3,(H,26,30)(H,28,29)/t15-,21+/m1/s1",
        "InChIKey": null,
        "Canonical SMILES": "O=C(OC(C)(C)C)NC1CN(C(=O)OCC2C=3C=CC=CC3C=4C=CC=CC42)C(C(=O)O)C1",
        "Molecular Formula": "C<sub>25</sub>H<sub>28</sub>N<sub>2</sub>O<sub>6</sub>",
        "Molecular Mass": "452.50",
        "Melting Point": "85-87 °C"
    }
}