{
    "cas_no": "42399-49-5",
    "key_name": "(2<em>S</em>,3<em>S</em>)-3-Hydroxy-2-(4-methoxyphenyl)-2,3-dihydro-1,5-benzothiazepin-4(5<em>H</em>)-one",
    "cn_name": "(2S-cis)-(+)-2,3-二氢-3-羟基-2-(4-甲氧苯基)-1,5-苯并硫氮杂卓-4(5H)-酮;",
    "alternate_name": "1,5-Benzothiazepin-4(5<em>H</em>)-one, 2,3-dihydro-3-hydroxy-2-(4-methoxyphenyl)-, (2<em>S</em>,3<em>S</em>)-;1,5-Benzothiazepin-4(5<em>H</em>)-one, 2,3-dihydro-3-hydroxy-2-(4-methoxyphenyl)-, (2<em>S</em>-<em>cis</em>)-;(2<em>S</em>,3<em>S</em>)-2,3-Dihydro-3-hydroxy-2-(4-methoxyphenyl)-1,5-benzothiazepin-4(5<em>H</em>)-one;(2<em>S</em>,3<em>S</em>)-3-Hydroxy-2-(4-methoxyphenyl)-2,3-dihydro-1,5-benzothiazepin-4(5<em>H</em>)-one",
    "duplicated_cas_no": "110073-02-4",
    "SMILES": "O[C@@H]1[C@@H](SC=2C(NC1=O)=CC=CC2)C3=CC=C(OC)C=C3",
    "meta_data": {
        "InChI": "InChI=1S/C16H15NO3S/c1-20-11-8-6-10(7-9-11)15-14(18)16(19)17-12-4-2-3-5-13(12)21-15/h2-9,14-15,18H,1H3,(H,17,19)/t14-,15+/m1/s1",
        "InChIKey": null,
        "Canonical SMILES": "O=C1NC=2C=CC=CC2SC(C3=CC=C(OC)C=C3)C1O",
        "Molecular Formula": "C<sub>16</sub>H<sub>15</sub>NO<sub>3</sub>S",
        "Molecular Mass": "301.36",
        "Melting Point": "208-210 °C"
    }
}