{
    "cas_no": "300-08-3",
    "key_name": "Arecoline hydrobromide",
    "cn_name": null,
    "alternate_name": "3-Pyridinecarboxylic acid, 1,2,5,6-tetrahydro-1-methyl-, methyl ester, hydrobromide (1:1);Nicotinic acid, 1,2,5,6-tetrahydro-1-methyl-, methyl ester, hydrobromide;3-Pyridinecarboxylic acid, 1,2,5,6-tetrahydro-1-methyl-, methyl ester, hydrobromide;Arecoline bromide;Arecoline hydrobromide;Methyl 1,2,5,6-tetrahydro-1-methylnicotinate hydrobromide;Methyl <em>N</em>-methyl-1,2,5,6-tetrahydronicotinate hydrobromide;Taeniolin",
    "duplicated_cas_no": "",
    "SMILES": "C(OC)(=O)C=1CN(C)CCC1.Br",
    "meta_data": {
        "InChI": "InChI=1S/C8H13NO2.BrH/c1-9-5-3-4-7(6-9)8(10)11-2;/h4H,3,5-6H2,1-2H3;1H",
        "InChIKey": null,
        "Canonical SMILES": "Br.O=C(OC)C1=CCCN(C)C1",
        "Molecular Formula": "C<sub>8</sub>H<sub>13</sub>NO<sub>2</sub>.BrH",
        "Molecular Mass": "",
        "Melting Point": "169-171 °C"
    }
}