{
    "cas_no": "22396-77-6",
    "key_name": "2-Butyn-1-ol, 4-(diethylamino)-, 1-acetate",
    "cn_name": "4-(二乙氨基)-2-丁炔醇乙酸酯;",
    "alternate_name": "2-Butyn-1-ol, 4-(diethylamino)-, 1-acetate;2-Butyn-1-ol, 4-(diethylamino)-, acetate (ester);2-Butyn-1-ol, 4-diethylamino-, acetate;4-Diethylamino-2-butynyl acetate;1-Acetoxy-4-diethylamino-2-butyne",
    "duplicated_cas_no": "",
    "SMILES": "N(CC#CCOC(C)=O)(CC)CC",
    "meta_data": {
        "InChI": "InChI=1S/C10H17NO2/c1-4-11(5-2)8-6-7-9-13-10(3)12/h4-5,8-9H2,1-3H3",
        "InChIKey": null,
        "Canonical SMILES": "O=C(OCC#CCN(CC)CC)C",
        "Molecular Formula": "C<sub>10</sub>H<sub>17</sub>NO<sub>2</sub>",
        "Molecular Mass": "183.25",
        "Boiling Point": "94 °C @ Press: 0.5 Torr"
    }
}