{
    "cas_no": "4920-84-7",
    "key_name": "2,4-Dimethoxy-1-nitrobenzene",
    "cn_name": "2,4-二甲氧基-1-硝基苯;",
    "alternate_name": "Benzene, 2,4-dimethoxy-1-nitro-;2,4-Dimethoxy-1-nitrobenzene;1,3-Dimethoxy-4-nitrobenzene;2,4-Dimethoxynitrobenzene;NSC 62004",
    "duplicated_cas_no": "",
    "SMILES": "O(C)C1=C(N(=O)=O)C=CC(OC)=C1",
    "meta_data": {
        "InChI": "InChI=1S/C8H9NO4/c1-12-6-3-4-7(9(10)11)8(5-6)13-2/h3-5H,1-2H3",
        "InChIKey": null,
        "Canonical SMILES": "O=N(=O)C1=CC=C(OC)C=C1OC",
        "Molecular Formula": "C<sub>8</sub>H<sub>9</sub>NO<sub>4</sub>",
        "Molecular Mass": "183.16",
        "Melting Point": "76.5 °C"
    }
}