{
    "cas_no": "519-34-6",
    "key_name": "Maclurin",
    "cn_name": "2,3\",4,4\",6-五羟基二苯甲酮;天然黄11;",
    "alternate_name": "Methanone, (3,4-dihydroxyphenyl)(2,4,6-trihydroxyphenyl)-;Benzophenone, 2,3′,4,4′,6-pentahydroxy-;Maclurin;(3,4-Dihydroxyphenyl)(2,4,6-trihydroxyphenyl)methanone;C.I. 75240;C.I. Natural Yellow 11;Morintannic acid;Moritannic acid;Patent Fustin;2,3′,4,4′,6-Pentahydroxybenzophenone;Laguncurin;Kino-yellow;Macurin;NSC 83240",
    "duplicated_cas_no": "",
    "SMILES": "C(=O)(C1=C(O)C=C(O)C=C1O)C2=CC(O)=C(O)C=C2",
    "meta_data": {
        "InChI": "InChI=1S/C13H10O6/c14-7-4-10(17)12(11(18)5-7)13(19)6-1-2-8(15)9(16)3-6/h1-5,14-18H",
        "InChIKey": null,
        "Canonical SMILES": "O=C(C1=CC=C(O)C(O)=C1)C=2C(O)=CC(O)=CC2O",
        "Molecular Formula": "C<sub>13</sub>H<sub>10</sub>O<sub>6</sub>",
        "Molecular Mass": "262.21",
        "Melting Point": "222.5 °C"
    }
}