{
    "cas_no": "15872-42-1",
    "key_name": "4-(Heptyloxy)benzoic acid",
    "cn_name": "对庚氧基苯甲酸;4-庚氧基苯甲酸;液晶HPB;",
    "alternate_name": "Benzoic acid, 4-(heptyloxy)-;Benzoic acid, <em>p</em>-(heptyloxy)-;4-(Heptyloxy)benzoic acid;<em>p</em>-(Heptyloxy)benzoic acid;<em>p</em>-Heptoxybenzoic acid;4-<em>n</em>-Heptyloxybenzoic acid;<em>p</em>-(<em>n</em>-Heptyloxy)benzoic acid;<em>p</em>-(<em>n</em>-Heptoxy)benzoic acid;NSC 73158",
    "duplicated_cas_no": "",
    "SMILES": "O(CCCCCCC)C1=CC=C(C(O)=O)C=C1",
    "meta_data": {
        "InChI": "InChI=1S/C14H20O3/c1-2-3-4-5-6-11-17-13-9-7-12(8-10-13)14(15)16/h7-10H,2-6,11H2,1H3,(H,15,16)",
        "InChIKey": null,
        "Canonical SMILES": "O=C(O)C1=CC=C(OCCCCCCC)C=C1",
        "Molecular Formula": "C<sub>14</sub>H<sub>20</sub>O<sub>3</sub>",
        "Molecular Mass": "236.31",
        "Melting Point": "92-95 °C"
    }
}