{
    "cas_no": "16188-55-9",
    "key_name": "4-(Methylthio)benzeneacetic acid",
    "cn_name": "4-甲硫基苯乙酸;对甲硫基苯乙酸;",
    "alternate_name": "Benzeneacetic acid, 4-(methylthio)-;Acetic acid, [<em>p</em>-(methylthio)phenyl]-;4-(Methylthio)benzeneacetic acid;4-(Methylthio)phenylacetic acid;[<em>p</em>-(Methylthio)phenyl]acetic acid;2-[4-(Methylthio)phenyl]acetic acid;(4-Methylsulfanylphenyl)acetic acid;2-(4-Methylsulfanylphenyl)acetic acid;2-[4-(Methylsulfanyl)phenyl]acetic acid",
    "duplicated_cas_no": "",
    "SMILES": "C(C(O)=O)C1=CC=C(SC)C=C1",
    "meta_data": {
        "InChI": "InChI=1S/C9H10O2S/c1-12-8-4-2-7(3-5-8)6-9(10)11/h2-5H,6H2,1H3,(H,10,11)",
        "InChIKey": null,
        "Canonical SMILES": "O=C(O)CC1=CC=C(SC)C=C1",
        "Molecular Formula": "C<sub>9</sub>H<sub>10</sub>O<sub>2</sub>S",
        "Molecular Mass": "182.24",
        "Melting Point": "92-94 °C"
    }
}