{
    "cas_no": "123940-54-5",
    "key_name": "Hypocrellin B",
    "cn_name": null,
    "alternate_name": "1<em>H</em>-Cyclohepta[<em>ghi</em>]perylene-5,12-dione, 3-acetyl-6,11-dihydroxy-4,8,9,13-tetramethoxy-2-methyl-;3-Acetyl-6,11-dihydroxy-4,8,9,13-tetramethoxy-2-methyl-1<em>H</em>-cyclohepta[<em>ghi</em>]perylene-5,12-dione;Hypocrellin B",
    "duplicated_cas_no": "123514-09-0",
    "SMILES": "O(C)C1=C2C=3C4=C5C(=C6C3C(C1=O)=C(O)C=C6OC)C(OC)=CC(O)=C5C(=O)C(OC)=C4CC(C)=C2C(C)=O",
    "meta_data": {
        "InChI": "InChI=1S/C30H24O9/c1-10-7-12-18-23-19(27(34)29(12)38-5)13(32)8-15(36-3)21(23)22-16(37-4)9-14(33)20-25(22)24(18)26(17(10)11(2)31)30(39-6)28(20)35/h8-9,32-33H,7H2,1-6H3",
        "InChIKey": null,
        "Canonical SMILES": "O=C1C(OC)=C2C=3C=4C1=C(O)C=C(OC)C4C=5C(OC)=CC(O)=C6C(=O)C(OC)=C(C3C65)CC(=C2C(=O)C)C",
        "Molecular Formula": "C<sub>30</sub>H<sub>24</sub>O<sub>9</sub>",
        "Molecular Mass": "528.51",
        "Melting Point": "261-263 °C"
    }
}