{
    "cas_no": "17969-20-9",
    "key_name": "Fenclozic acid",
    "cn_name": null,
    "alternate_name": "4-Thiazoleacetic acid, 2-(4-chlorophenyl)-;4-Thiazoleacetic acid, 2-(<em>p</em>-chlorophenyl)-;2-(4-Chlorophenyl)-4-thiazoleacetic acid;ICI 54450;2-(4-Chlorophenyl)thiazol-4-ylacetic acid;Myalex;Fenclozic acid;2-(<em>p</em>-Chlorophenyl)-4-thiazoleacetic acid;2-(<em>p</em>-Chlorophenyl)thiazol-4-ylacetic acid;Acidum fenclozicum;Mialex;[2-(4-Chlorophenyl)-1,3-thiazol-4-yl]acetic acid;2-[2-(4-Chlorophenyl)-1,3-thiazol-4-yl]acetic acid;2-(2-(4-Chlorophenyl)thiazol-4-yl)aceticacid",
    "duplicated_cas_no": "",
    "SMILES": "C(C(O)=O)C=1N=C(SC1)C2=CC=C(Cl)C=C2",
    "meta_data": {
        "InChI": "InChI=1S/C11H8ClNO2S/c12-8-3-1-7(2-4-8)11-13-9(6-16-11)5-10(14)15/h1-4,6H,5H2,(H,14,15)",
        "InChIKey": null,
        "Canonical SMILES": "O=C(O)CC=1N=C(SC1)C=2C=CC(Cl)=CC2",
        "Molecular Formula": "C<sub>11</sub>H<sub>8</sub>ClNO<sub>2</sub>S",
        "Molecular Mass": "253.70",
        "Melting Point": "155-156 °C"
    }
}