{
    "cas_no": "29741-09-1",
    "key_name": "Apigenin 7-<em>O</em>-glucuronide",
    "cn_name": null,
    "alternate_name": "β-<span class=\"text-smallcaps\">D</span>-Glucopyranosiduronic acid, 5-hydroxy-2-(4-hydroxyphenyl)-4-oxo-4<em>H</em>-1-benzopyran-7-yl;Glucopyranosiduronic acid, 5-hydroxy-2-(<em>p</em>-hydroxyphenyl)-4-oxo-4<em>H</em>-1-benzopyran-7-yl, β-<span class=\"text-smallcaps\">D</span>-;5-Hydroxy-2-(4-hydroxyphenyl)-4-oxo-4<em>H</em>-1-benzopyran-7-yl β-<span class=\"text-smallcaps\">D</span>-glucopyranosiduronic acid;Apigenin 7-glucuronide;Apigenin 7-<em>O</em>-glucuronide;Apigenin 7-β-glucuronide;Apigenin 7-<em>O</em>-β-<span class=\"text-smallcaps\">D</span>-glucuronide;Apigenin 7-<em>O</em>-β-glucuronide;Apigenin 7-<em>O</em>-β-<span class=\"text-smallcaps\">D</span>-glucuronopyranoside;Scutellarin A;Apigenin-7-<em>O</em>-β-D glucuronoside",
    "duplicated_cas_no": "68759-17-1;956511-44-7;1382137-35-0",
    "SMILES": "O=C1C=2C(OC(=C1)C3=CC=C(O)C=C3)=CC(O[C@@H]4O[C@H](C(O)=O)[C@@H](O)[C@H](O)[C@H]4O)=CC2O",
    "meta_data": {
        "InChI": "InChI=1S/C21H18O11/c22-9-3-1-8(2-4-9)13-7-12(24)15-11(23)5-10(6-14(15)31-13)30-21-18(27)16(25)17(26)19(32-21)20(28)29/h1-7,16-19,21-23,25-27H,(H,28,29)/t16-,17-,18+,19-,21+/m0/s1",
        "InChIKey": null,
        "Canonical SMILES": "O=C(O)C1OC(OC2=CC(O)=C3C(=O)C=C(OC3=C2)C=4C=CC(O)=CC4)C(O)C(O)C1O",
        "Molecular Formula": "C<sub>21</sub>H<sub>18</sub>O<sub>11</sub>",
        "Molecular Mass": "446.36",
        "Melting Point": "&gt;300 °C"
    }
}