{
    "cas_no": "2921-14-4",
    "key_name": "Carboxymethoxylamine hemihydrochloride",
    "cn_name": "羧甲基羟胺半盐酸盐;",
    "alternate_name": "Acetic acid, 2-(aminooxy)-, hydrochloride (2:1);Acetic acid, (aminooxy)-, hydrochloride (2:1);Acetic acid, (aminooxy)-, hemihydrochloride;Aminooxyacetic acid hemihydrochloride;Carboxymethoxyamine hemihydrochloride;<em>O</em>-Carboxymethylhydroxylamine hemihydrochloride;Carboxymethoxylamine hemihydrochloride;Aminooxyacetic acid hemichloride",
    "duplicated_cas_no": "",
    "SMILES": "C(C(O)=O)ON.Cl",
    "meta_data": {
        "InChI": "InChI=1S/C2H5NO3.ClH/c3-6-1-2(4)5;/h1,3H2,(H,4,5);1H",
        "InChIKey": null,
        "Canonical SMILES": "Cl.O=C(O)CON",
        "Molecular Formula": "C<sub>2</sub>H<sub>5</sub>NO<sub>3</sub>.<sup>1</sup>/<sub>2</sub>ClH",
        "Molecular Mass": "",
        "Melting Point": "150-151 °C (decomp)"
    }
}