{
    "cas_no": "360-53-2",
    "key_name": "1,3,3,3-Tetrafluoro-1-methoxy-2-(trifluoromethyl)-1-propene",
    "cn_name": "1-甲氧基(全氟基-2-甲基-1-丙烯);1-甲氧基(全氟基-2-甲基-1-丙烯);",
    "alternate_name": "1-Propene, 1,3,3,3-tetrafluoro-1-methoxy-2-(trifluoromethyl)-;Ether, methyl 1,3,3,3-tetrafluoro-2-(trifluoromethyl)propenyl;Ether, methyl tetrafluoro-2-(trifluoromethyl)propenyl;1,3,3,3-Tetrafluoro-1-methoxy-2-(trifluoromethyl)-1-propene;Methyl perfluoroisobutenyl ether;Heptafluoroisobutenyl methyl ether",
    "duplicated_cas_no": "",
    "SMILES": "C(=C(OC)F)(C(F)(F)F)C(F)(F)F",
    "meta_data": {
        "InChI": "InChI=1S/C5H3F7O/c1-13-3(6)2(4(7,8)9)5(10,11)12/h1H3",
        "InChIKey": null,
        "Canonical SMILES": "FC(OC)=C(C(F)(F)F)C(F)(F)F",
        "Molecular Formula": "C<sub>5</sub>H<sub>3</sub>F<sub>7</sub>O",
        "Molecular Mass": "212.07",
        "Boiling Point": "101-102 °C @ Press: 754 Torr",
        "Density": "1.5078 g/cm³ @ Temp: 20 °C"
    }
}