{
    "cas_no": "4920-95-0",
    "key_name": "3,3′,4,4′-Tetramethylbiphenyl",
    "cn_name": "3,3\",4,4\"-四甲基联苯;3,3\",4,4\"-四甲基联苯;",
    "alternate_name": "1,1′-Biphenyl, 3,3′,4,4′-tetramethyl-;Biphenyl, 3,3′,4,4′-tetramethyl-;3,3′,4,4′-Tetramethyl-1,1′-biphenyl;3,3′,4,4′-Tetramethylbiphenyl;3,3′,4,4′-Tetramethyldiphenyl;3,4,3′,4′-Tetramethylbiphenyl",
    "duplicated_cas_no": "",
    "SMILES": "CC=1C=C(C=CC1C)C2=CC(C)=C(C)C=C2",
    "meta_data": {
        "InChI": "InChI=1S/C16H18/c1-11-5-7-15(9-13(11)3)16-8-6-12(2)14(4)10-16/h5-10H,1-4H3",
        "InChIKey": null,
        "Canonical SMILES": "C=1C=C(C(=CC1C=2C=CC(=C(C2)C)C)C)C",
        "Molecular Formula": "C<sub>16</sub>H<sub>18</sub>",
        "Molecular Mass": "210.31",
        "Melting Point": "76-77 °C"
    }
}