{
    "cas_no": "78-32-0",
    "key_name": "Tri-<em>p</em>-cresyl phosphate",
    "cn_name": "对甲苯酰磷酸酯;磷酸三(4-甲基苯基)酯;三对甲苯磷酸酯;Tris(4-methylphenyl) phosphate;Tris(p-methylpheny;",
    "alternate_name": "Phosphoric acid, tris(4-methylphenyl) ester;Phosphoric acid, tri-<em>p</em>-tolyl ester;<em>p</em>-Tolyl phosphate (C<sub>7</sub>H<sub>7</sub>O)<sub>3</sub>PO;Tri-<em>p</em>-cresyl phosphate;Tri-<em>p</em>-tolyl phosphate;Tris(<em>p</em>-methylphenyl) phosphate;Tris(<em>p</em>-cresyl) phosphate;Tris(4-methylphenyl) phosphate;NSC 2181",
    "duplicated_cas_no": "",
    "SMILES": "P(OC1=CC=C(C)C=C1)(OC2=CC=C(C)C=C2)(OC3=CC=C(C)C=C3)=O",
    "meta_data": {
        "InChI": "InChI=1S/C21H21O4P/c1-16-4-10-19(11-5-16)23-26(22,24-20-12-6-17(2)7-13-20)25-21-14-8-18(3)9-15-21/h4-15H,1-3H3",
        "InChIKey": null,
        "Canonical SMILES": "O=P(OC1=CC=C(C=C1)C)(OC2=CC=C(C=C2)C)OC3=CC=C(C=C3)C",
        "Molecular Formula": "C<sub>21</sub>H<sub>21</sub>O<sub>4</sub>P",
        "Molecular Mass": "368.36",
        "Boiling Point": "244 °C @ Press: 3.5 Torr",
        "Melting Point": "77-78 °C",
        "Density": "1.247 g/cm³ @ Temp: 25 °C"
    }
}