{
    "cas_no": "14752-66-0",
    "key_name": "Benzenesulfinic acid, 4-chloro-, sodium salt (1:1)",
    "cn_name": "对氯苯亚磺酸钠;对氯苯亚砜钠;",
    "alternate_name": "Benzenesulfinic acid, 4-chloro-, sodium salt (1:1);Benzenesulfinic acid, <em>p</em>-chloro-, sodium salt;Benzenesulfinic acid, 4-chloro-, sodium salt;Sodium <em>p</em>-chlorobenzenesulfinate;Sodium 4-chlorobenzenesulfinate;Sodium 4-chlorophenylsulfinate;Sodium <em>p</em>-chlorophenylsulfinate;4-Chlorobenzenesulfinic acid sodium salt;NSC 67146;Sodium 4-Chlorobenzenesulfinic acid",
    "duplicated_cas_no": "53271-65-1;1423065-41-1",
    "SMILES": "S(=O)(O)C1=CC=C(Cl)C=C1.[Na]",
    "meta_data": {
        "InChI": "InChI=1S/C6H5ClO2S.Na/c7-5-1-3-6(4-2-5)10(8)9;/h1-4H,(H,8,9);",
        "InChIKey": null,
        "Canonical SMILES": "[Na].O=S(O)C1=CC=C(Cl)C=C1",
        "Molecular Formula": "C<sub>6</sub>H<sub>5</sub>ClO<sub>2</sub>S.Na",
        "Molecular Mass": "",
        "Melting Point": "&gt;300 °C"
    }
}