{
    "cas_no": "2460-59-5",
    "key_name": "3,5-Dinitrosalicylaldehyde",
    "cn_name": null,
    "alternate_name": "Benzaldehyde, 2-hydroxy-3,5-dinitro-;Salicylaldehyde, 3,5-dinitro-;2-Hydroxy-3,5-dinitrobenzaldehyde;3,5-Dinitrosalicylaldehyde;3,5-Dinitro-2-hydroxybenzaldehyde",
    "duplicated_cas_no": "1186391-14-9",
    "SMILES": "N(=O)(=O)C1=C(O)C(C=O)=CC(N(=O)=O)=C1",
    "meta_data": {
        "InChI": "InChI=1S/C7H4N2O6/c10-3-4-1-5(8(12)13)2-6(7(4)11)9(14)15/h1-3,11H",
        "InChIKey": null,
        "Canonical SMILES": "O=CC=1C=C(C=C(C1O)N(=O)=O)N(=O)=O",
        "Molecular Formula": "C<sub>7</sub>H<sub>4</sub>N<sub>2</sub>O<sub>6</sub>",
        "Molecular Mass": "212.12",
        "Melting Point": "58-60 °C"
    }
}