{
    "cas_no": "7696-12-0",
    "key_name": "Tetramethrin",
    "cn_name": "胺菊酯;避蚊胺;2,2-二甲基-3-(2-甲基-1-丙烯基)环丙烷羧酸-3,4,5,6-四氢肽酰亚胺基甲基酯;",
    "alternate_name": "Cyclopropanecarboxylic acid, 2,2-dimethyl-3-(2-methyl-1-propen-1-yl)-, (1,3,4,5,6,7-hexahydro-1,3-dioxo-2<em>H</em>-isoindol-2-yl)methyl ester;Cyclopropanecarboxylic acid, 2,2-dimethyl-3-(2-methylpropenyl)-, ester with <em>N</em>-(hydroxymethyl)-1-cyclohexene-1,2-dicarboximide;Cyclopropanecarboxylic acid, 2,2-dimethyl-3-(2-methyl-1-propenyl)-, (1,3,4,5,6,7-hexahydro-1,3-dioxo-2<em>H</em>-isoindol-2-yl)methyl ester;Neo-Pynamin;Tetramethrin;(1-Cyclohexene-1,2-dicarboximido)methyl chrysanthemumate;Phthalthrin;(1-Cyclohexene-1,2-dicarboximido)methyl chrysanthemate;Bioneo-Pynamin;Insectol;Neo-Pynamin Forte;Pibutox;Pyrethrol L;<em>d</em>-Tetramethrin;Pion 1;(1,3-Dioxo-4,5,6,7-tetrahydro-1<em>H</em>-isoindol-2(3<em>H</em>)-yl)methyl 2,2-dimethyl-3-(2-methylprop-1-en-1-yl)cyclopropanecarboxylate",
    "duplicated_cas_no": "2735-98-0;16047-22-6;28643-67-6;28752-93-4;66525-27-7",
    "SMILES": "C(=C(C)C)C1C(C(OCN2C(=O)C3=C(C2=O)CCCC3)=O)C1(C)C",
    "meta_data": {
        "InChI": "InChI=1S/C19H25NO4/c1-11(2)9-14-15(19(14,3)4)18(23)24-10-20-16(21)12-7-5-6-8-13(12)17(20)22/h9,14-15H,5-8,10H2,1-4H3",
        "InChIKey": null,
        "Canonical SMILES": "O=C1C2=C(C(=O)N1COC(=O)C3C(C=C(C)C)C3(C)C)CCCC2",
        "Molecular Formula": "C<sub>19</sub>H<sub>25</sub>NO<sub>4</sub>",
        "Molecular Mass": "331.41",
        "Boiling Point": "180-190 °C @ Press: 0.1 Torr",
        "Melting Point": "68-70 °C",
        "Density": "1.108 g/cm³ @ Temp: 20 °C"
    }
}