{
    "cas_no": "3009-97-0",
    "key_name": "2-(Phenylamino)acetonitrile",
    "cn_name": "苯胺基乙腈;",
    "alternate_name": "Acetonitrile, 2-(phenylamino)-;Acetonitrile, anilino-;Acetonitrile, (phenylamino)-;Glycinonitrile, <em>N</em>-phenyl-;2-(Phenylamino)acetonitrile;Phenylglycine nitrile;Anilinoacetonitrile;1-Anilinoacetonitrile;<em>N</em>-(Cyanomethyl)aniline;<em>N</em>-Phenylglycinonitrile;(Phenylamino)acetonitrile;<em>N</em>-(Phenylamino)acetonitrile;NSC 7611;2-Anilinoacetonitrile",
    "duplicated_cas_no": "",
    "SMILES": "N(CC#N)C1=CC=CC=C1",
    "meta_data": {
        "InChI": "InChI=1S/C8H8N2/c9-6-7-10-8-4-2-1-3-5-8/h1-5,10H,7H2",
        "InChIKey": null,
        "Canonical SMILES": "N#CCNC=1C=CC=CC1",
        "Molecular Formula": "C<sub>8</sub>H<sub>8</sub>N<sub>2</sub>",
        "Molecular Mass": "132.16",
        "Boiling Point": "149-150 °C @ Press: 4 Torr",
        "Melting Point": "47 °C"
    }
}