{
    "cas_no": "89565-68-4",
    "key_name": "Tropisetron",
    "cn_name": "托烷司琼;3-吲哚甲酸-(8-甲基-8-氮杂双环[3.2.1]辛-3-基)酯;",
    "alternate_name": "1<em>H</em>-Indole-3-carboxylic acid, (3-<em>endo</em>)-8-methyl-8-azabicyclo[3.2.1]oct-3-yl ester;1<em>H</em>-Indole-3-carboxylic acid, 8-methyl-8-azabicyclo[3.2.1]oct-3-yl ester, <em>endo</em>-;Tropisetron;ICS 205930;Navoban;ICS 205-930",
    "duplicated_cas_no": "121061-97-0;2407912-00-7",
    "SMILES": "C(O[C@H]1C[C@@]2(N(C)[C@](C1)(CC2)[H])[H])(=O)C=3C=4C(NC3)=CC=CC4",
    "meta_data": {
        "InChI": "InChI=1/C17H20N2O2/c1-19-11-6-7-12(19)9-13(8-11)21-17(20)15-10-18-16-5-3-2-4-14(15)16/h2-5,10-13,18H,6-9H2,1H3/t11-,12+,13+",
        "InChIKey": null,
        "Canonical SMILES": "O=C(OC1CC2N(C)C(CC2)C1)C3=CNC=4C=CC=CC43",
        "Molecular Formula": "C<sub>17</sub>H<sub>20</sub>N<sub>2</sub>O<sub>2</sub>",
        "Molecular Mass": "284.35",
        "Melting Point": "201-202 °C"
    }
}