{
    "cas_no": "1475-13-4",
    "key_name": "2,4-Dichloro-α-methylbenzenemethanol",
    "cn_name": "2,4-二氯-α-甲基苄醇;",
    "alternate_name": "Benzenemethanol, 2,4-dichloro-α-methyl-;Benzyl alcohol, 2,4-dichloro-α-methyl-;2,4-Dichloro-α-methylbenzenemethanol;1-(2,4-Dichlorophenyl)ethanol;2,4-Dichloro-α-methylbenzyl alcohol;1-(2′,4′-Dichlorophenyl)ethanol;1-(2,4-Dichlorophenyl)ethyl alcohol;(±)-1-(2,4-Dichlorophenyl)ethanol;1-(2,4-Dichlorophenyl)ethan-1-ol",
    "duplicated_cas_no": "155690-55-4",
    "SMILES": "C(C)(O)C1=C(Cl)C=C(Cl)C=C1",
    "meta_data": {
        "InChI": "InChI=1S/C8H8Cl2O/c1-5(11)7-3-2-6(9)4-8(7)10/h2-5,11H,1H3",
        "InChIKey": null,
        "Canonical SMILES": "ClC1=CC=C(C(Cl)=C1)C(O)C",
        "Molecular Formula": "C<sub>8</sub>H<sub>8</sub>Cl<sub>2</sub>O",
        "Molecular Mass": "191.05",
        "Boiling Point": "154-155 °C @ Press: 22 Torr"
    }
}