{
    "cas_no": "4887-95-0",
    "key_name": "2,6-Dichloro-1<em>H</em>-benzimidazole",
    "cn_name": null,
    "alternate_name": "1<em>H</em>-Benzimidazole, 2,6-dichloro-;Benzimidazole, 2,5-dichloro-;1<em>H</em>-Benzimidazole, 2,5-dichloro-;Benzimidazole, 2,5(<em>or</em> 2,6)-dichloro-;2,6-Dichloro-1<em>H</em>-benzimidazole;2,5-Dichloro-1<em>H</em>-benzimidazole;2,5-Dichloro-1<em>H</em>-1,3-benzodiazole;2,6-Dichloro-1<em>H</em>-1,3-benzodiazole;2,5-Dichloro-1<em>H</em>-benzo[<em>d</em>]imidazole",
    "duplicated_cas_no": "",
    "SMILES": "ClC=1NC=2C(N1)=CC(Cl)=CC2",
    "meta_data": {
        "InChI": "InChI=1S/C7H4Cl2N2/c8-4-1-2-5-6(3-4)11-7(9)10-5/h1-3H,(H,10,11)",
        "InChIKey": null,
        "Canonical SMILES": "ClC=1C=CC=2NC(Cl)=NC2C1",
        "Molecular Formula": "C<sub>7</sub>H<sub>4</sub>Cl<sub>2</sub>N<sub>2</sub>",
        "Molecular Mass": "187.03",
        "Melting Point": "207-208 °C (decomp)"
    }
}