{
    "cas_no": "515-00-4",
    "key_name": "(±)-Myrtenol",
    "cn_name": "6,6-二甲基二环[3.1.1]庚-2-烯-2-甲醇;",
    "alternate_name": "Bicyclo[3.1.1]hept-2-ene-2-methanol, 6,6-dimethyl-;2-Pinen-10-ol;6,6-Dimethylbicyclo[3.1.1]hept-2-ene-2-methanol;Myrtenol;6,6-Dimethyl-2-(hydroxymethyl)bicyclo[3.1.1]hept-2-ene;(±)-Myrtenol;α-Pinene-10-ol;NSC 408846;(6,6-Dimethylbicyclo[3.1.1]hept-2-en-2-yl)methanol",
    "duplicated_cas_no": "111957-74-5;19250-18-1",
    "SMILES": "CC1(C)C2C(CO)=CCC1C2",
    "meta_data": {
        "InChI": "InChI=1S/C10H16O/c1-10(2)8-4-3-7(6-11)9(10)5-8/h3,8-9,11H,4-6H2,1-2H3",
        "InChIKey": null,
        "Canonical SMILES": "OCC1=CCC2CC1C2(C)C",
        "Molecular Formula": "C<sub>10</sub>H<sub>16</sub>O",
        "Molecular Mass": "152.23",
        "Boiling Point": "221.5 °C",
        "Density": "0.9763 g/cm³ @ Temp: 20 °C"
    }
}