{
    "cas_no": "27306-78-1",
    "key_name": "Polyethylene glycol monomethyl ether mono[3-[methylbis(trimethylsiloxy)silyl]propyl] ether",
    "cn_name": "聚醚改性七甲基三硅氧烷;3-[甲氧基聚(乙氧基)]丙基-甲基-双(三甲基硅氧基)硅烷;",
    "alternate_name": "Poly(oxy-1,2-ethanediyl), α-methyl-ω-[3-[1,3,3,3-tetramethyl-1-[(trimethylsilyl)oxy]-1-disiloxanyl]propoxy]-;Glycols, polyethylene, methyl 3-[1,3,3,3-tetramethyl-1-(trimethylsiloxy)disiloxanyl]propyl ether;Poly(oxy-1,2-ethanediyl), α-methyl-ω-[3-[1,3,3,3-tetramethyl-1-[(trimethylsilyl)oxy]disiloxanyl]propoxy]-;3-Oxa-2,4-disilaheptan-1-ol, 2,2,4-trimethyl-4-(trimethylsiloxy)-, monoether with polyethylene glycol;Silwet L 77;Pentra-Bark;Polyethylene glycol monomethyl ether mono[3-[methylbis(trimethylsiloxy)silyl]propyl] ether;Silwet L 77J;N 380;L 77;KP 110 (polymer);KP 110;Silwet L 077;CoatOsil 77",
    "duplicated_cas_no": "150266-49-2;185116-92-1;193764-85-1;275373-95-0;512187-29-0;882006-00-0;883881-28-5;1234475-81-0;1369526-66-8;2204277-36-9;2857059-61-9",
    "SMILES": "",
    "meta_data": {
        "InChI": "",
        "InChIKey": null,
        "Canonical SMILES": "",
        "Molecular Formula": "(C<sub>2</sub>H<sub>4</sub>O)<sub>n</sub>C<sub>11</sub>H<sub>30</sub>O<sub>3</sub>Si<sub>3</sub>",
        "Molecular Mass": "",
        "Boiling Point": "100 °C @ Press: &lt;1 Torr",
        "Density": "1.007 g/cm³ @ Temp: 20-25 °C"
    }
}