{
    "cas_no": "16788-57-1",
    "key_name": "Dipotassium hydrogen phosphate trihydrate",
    "cn_name": "磷酸氢二钾;",
    "alternate_name": "Phosphoric acid, dipotassium salt, trihydrate;Dipotassium hydrogen phosphate (K<sub>2</sub>HPO<sub>4</sub>) trihydrate;Dipotassium monophosphate trihydrate;Dipotassium hydrogen phosphate trihydrate",
    "duplicated_cas_no": "",
    "SMILES": "P(=O)(O)(O)O.[K].O",
    "meta_data": {
        "InChI": "InChI=1S/2K.H3O4P.3H2O/c;;1-5(2,3)4;;;/h;;(H3,1,2,3,4);3*1H2",
        "InChIKey": null,
        "Canonical SMILES": "[K].O=P(O)(O)O.O",
        "Molecular Formula": "H<sub>3</sub>O<sub>4</sub>P.3H<sub>2</sub>O.2K",
        "Molecular Mass": "",
        "Melting Point": "53 °C"
    }
}