{
    "cas_no": "5373-11-5",
    "key_name": "Luteolin 7-<em>O</em>-glucoside",
    "cn_name": "木犀草苷;木犀草素-7-O-葡萄糖苷;",
    "alternate_name": "4<em>H</em>-1-Benzopyran-4-one, 2-(3,4-dihydroxyphenyl)-7-(β-<span class=\"text-smallcaps\">D</span>-glucopyranosyloxy)-5-hydroxy-;Cynaroside;Luteolin, 7-β-<span class=\"text-smallcaps\">D</span>-glucopyranoside;2-(3,4-Dihydroxyphenyl)-7-(β-<span class=\"text-smallcaps\">D</span>-glucopyranosyloxy)-5-hydroxy-4<em>H</em>-1-benzopyran-4-one;Glucoluteolin;Luteoloside;Luteolin 7-β-<span class=\"text-smallcaps\">D</span>-glucoside;7-Glucoluteolin;Luteolin 7-<em>O</em>-β-<span class=\"text-smallcaps\">D</span>-glucoside;Luteolin 7-glucoside;Cinaroside;7-<em>O</em>-β-<span class=\"text-smallcaps\">D</span>-Glucosylluteolin;3′,4′,5,7-Tetrahydroxyflavone 7-β-<span class=\"text-smallcaps\">D</span>-glucopyranoside;Luteolin 7-<em>O</em>-β-<span class=\"text-smallcaps\">D</span>-glucopyranoside;Nephrocizine;Nephrocizin;7-(β-<span class=\"text-smallcaps\">D</span>-Glucosyloxy)-3′,4′,5-trihydroxyflavone;3′,4′,5-Trihydroxyflavone 7-<em>O</em>-β-<span class=\"text-smallcaps\">D</span>-glucopyranoside;Luteolin 7-<em>O</em>-glucoside;Luteolin 7-<em>O</em>-β-glucopyranoside;Luteolin 7-<em>O</em>-β-glucoside;Luteolin-7-<em>O</em>-<sup>4</sup>C<sub>1</sub>-β-<span class=\"text-smallcaps\">D</span>-glucoside;Luteolin 7-<em>O</em>-glucopyranoside;Luteoline-7-glucoside",
    "duplicated_cas_no": "1330-08-1;27215-18-5;27554-17-2;51621-69-3;100569-54-8;116895-84-2;1093070-59-7;1395104-30-9;2223047-42-3",
    "SMILES": "O=C1C=2C(OC(=C1)C3=CC(O)=C(O)C=C3)=CC(O[C@@H]4O[C@H](CO)[C@@H](O)[C@H](O)[C@H]4O)=CC2O",
    "meta_data": {
        "InChI": "InChI=1S/C21H20O11/c22-7-16-18(27)19(28)20(29)21(32-16)30-9-4-12(25)17-13(26)6-14(31-15(17)5-9)8-1-2-10(23)11(24)3-8/h1-6,16,18-25,27-29H,7H2/t16-,18-,19+,20-,21-/m1/s1",
        "InChIKey": null,
        "Canonical SMILES": "O=C1C=C(OC2=CC(OC3OC(CO)C(O)C(O)C3O)=CC(O)=C12)C=4C=CC(O)=C(O)C4",
        "Molecular Formula": "C<sub>21</sub>H<sub>20</sub>O<sub>11</sub>",
        "Molecular Mass": "448.38",
        "Melting Point": "258 °C"
    }
}