{
    "cas_no": "7646-79-9",
    "key_name": "Cobalt chloride (CoCl<sub>2</sub>)",
    "cn_name": "氯化钴;二氯化钴;",
    "alternate_name": "Cobalt chloride (CoCl<sub>2</sub>);Cobaltous chloride;Cobalt(II) chloride;Cobalt dichloride;Cobaltous dichloride;Cobalt chloride;Cobalt dichloride (CoCl<sub>2</sub>);Cobalt(2+) chloride;Dichlorocobalt;NSC 51149",
    "duplicated_cas_no": "",
    "SMILES": "[Co](Cl)Cl",
    "meta_data": {
        "InChI": "InChI=1S/2ClH.Co/h2*1H;/q;;+2/p-2",
        "InChIKey": null,
        "Canonical SMILES": "Cl[Co]Cl",
        "Molecular Formula": "Cl<sub>2</sub>Co",
        "Molecular Mass": "",
        "Boiling Point": "1049 °C",
        "Melting Point": "735 °C",
        "Density": "3.36 g/cm³ @ Temp: 25 °C"
    }
}