{
    "cas_no": "138-65-8",
    "key_name": "(±)-Norepinephrine",
    "cn_name": "DL-去甲肾上腺素;DL-去甲肾上腺素;",
    "alternate_name": "1,2-Benzenediol, 4-(2-amino-1-hydroxyethyl)-;Benzyl alcohol, α-(aminomethyl)-3,4-dihydroxy-, (±)-;1,2-Benzenediol, 4-(2-amino-1-hydroxyethyl)-, (±)-;Arterenol, <em>dl</em>-;4-(2-Amino-1-hydroxyethyl)-1,2-benzenediol;<em>dl</em>-Noradrenaline;<em>dl</em>-Norepinephrine;(±)-Noradrenaline;(±)-Norepinephrine;<span class=\"text-smallcaps\">DL</span>-Arterenol;Racemic norepinephrine;<span class=\"text-smallcaps\">DL</span>-Norepinephrine;<span class=\"text-smallcaps\">DL</span>-Noradrenaline;α-(Aminomethyl)-3,4-dihydroxybenzyl alcohol;2-Amino-1-(3,4-dihydroxyphenyl)ethanol;1-(3,4-Dihydroxy)phenyl-2-aminoethanol;4-(1-Hydroxy-2-aminoethyl)catechol;NSC 294898;2-(Hydroxy)-2-(3,4-dihydroxyphenyl)ethylamine",
    "duplicated_cas_no": "586-17-4",
    "SMILES": "C(CN)(O)C1=CC(O)=C(O)C=C1",
    "meta_data": {
        "InChI": "InChI=1S/C8H11NO3/c9-4-8(12)5-1-2-6(10)7(11)3-5/h1-3,8,10-12H,4,9H2",
        "InChIKey": null,
        "Canonical SMILES": "OC1=CC=C(C=C1O)C(O)CN",
        "Molecular Formula": "C<sub>8</sub>H<sub>11</sub>NO<sub>3</sub>",
        "Molecular Mass": "169.18",
        "Melting Point": "216.5-218 °C (decomp)"
    }
}