{
    "cas_no": "85-57-4",
    "key_name": "2-(4-Hydroxybenzoyl)benzoic acid",
    "cn_name": "2-(4-羟基苯甲酰)苯甲酸;",
    "alternate_name": "Benzoic acid, 2-(4-hydroxybenzoyl)-;Benzoic acid, <em>o</em>-(<em>p</em>-hydroxybenzoyl)-;2-(4-Hydroxybenzoyl)benzoic acid;<em>o</em>-(<em>p</em>-Hydroxybenzoyl)benzoic acid;Phthalein acid;4′-Hydroxy-2-benzoylbenzoic acid;2-(4′-Hydroxybenzoyl)benzoic acid;NSC 122980;NSC 57609;Hibenzate",
    "duplicated_cas_no": "",
    "SMILES": "C(=O)(C1=C(C(O)=O)C=CC=C1)C2=CC=C(O)C=C2",
    "meta_data": {
        "InChI": "InChI=1S/C14H10O4/c15-10-7-5-9(6-8-10)13(16)11-3-1-2-4-12(11)14(17)18/h1-8,15H,(H,17,18)",
        "InChIKey": null,
        "Canonical SMILES": "O=C(O)C=1C=CC=CC1C(=O)C2=CC=C(O)C=C2",
        "Molecular Formula": "C<sub>14</sub>H<sub>10</sub>O<sub>4</sub>",
        "Molecular Mass": "242.23",
        "Melting Point": "213 °C"
    }
}