{
    "cas_no": "187164-19-8",
    "key_name": "Luliconazole",
    "cn_name": "卢立康唑;4-(2,4-二氯苯基)-1,3-二硫戊环-2-叉-1-咪唑基乙腈;",
    "alternate_name": "1<em>H</em>-Imidazole-1-acetonitrile, α-[(4<em>R</em>)-4-(2,4-dichlorophenyl)-1,3-dithiolan-2-ylidene]-, (α<em>E</em>)-;1<em>H</em>-Imidazole-1-acetonitrile, α-[4-(2,4-dichlorophenyl)-1,3-dithiolan-2-ylidene]-, [<em>R</em>-(<em>E</em>)]-;(α<em>E</em>)-α-[(4<em>R</em>)-4-(2,4-Dichlorophenyl)-1,3-dithiolan-2-ylidene]-1<em>H</em>-imidazole-1-acetonitrile;NND 502;Luliconazole;Lulicon;Luzu",
    "duplicated_cas_no": "",
    "SMILES": "ClC1=C(C=CC(Cl)=C1)[C@H]2S/C(=C(\\C#N)/N3C=CN=C3)/SC2",
    "meta_data": {
        "InChI": "InChI=1S/C14H9Cl2N3S2/c15-9-1-2-10(11(16)5-9)13-7-20-14(21-13)12(6-17)19-4-3-18-8-19/h1-5,8,13H,7H2/b14-12+/t13-/m0/s1",
        "InChIKey": null,
        "Canonical SMILES": "N#CC(=C1SCC(S1)C2=CC=C(Cl)C=C2Cl)N3C=NC=C3",
        "Molecular Formula": "C<sub>14</sub>H<sub>9</sub>Cl<sub>2</sub>N<sub>3</sub>S<sub>2</sub>",
        "Molecular Mass": "354.28",
        "Melting Point": "151-152 °C"
    }
}