{
    "cas_no": "119770-60-4",
    "key_name": "[3-[2-(3-Chlorophenyl)ethyl]-2-pyridinyl](1-methyl-4-piperidinyl)methanone hydrochloride",
    "cn_name": "(1-甲基-4-哌啶基)[3-[2-(3-氯苯基)乙基]吡啶-2-基]甲酮盐酸盐;",
    "alternate_name": "Methanone, [3-[2-(3-chlorophenyl)ethyl]-2-pyridinyl](1-methyl-4-piperidinyl)-, hydrochloride (1:1);Methanone, [3-[2-(3-chlorophenyl)ethyl]-2-pyridinyl](1-methyl-4-piperidinyl)-, monohydrochloride;[3-[2-(3-Chlorophenyl)ethyl]-2-pyridinyl](1-methyl-4-piperidinyl)methanone hydrochloride;(1-Methyl-4-piperidinyl)[3-[2-(3-chlorophenyl)ethyl]pyridinyl]methanone hydrochloride",
    "duplicated_cas_no": "",
    "SMILES": "C(=O)(C1=C(CCC2=CC(Cl)=CC=C2)C=CC=N1)C3CCN(C)CC3.Cl",
    "meta_data": {
        "InChI": "InChI=1S/C20H23ClN2O.ClH/c1-23-12-9-17(10-13-23)20(24)19-16(5-3-11-22-19)8-7-15-4-2-6-18(21)14-15;/h2-6,11,14,17H,7-10,12-13H2,1H3;1H",
        "InChIKey": null,
        "Canonical SMILES": "Cl.O=C(C1=NC=CC=C1CCC=2C=CC=C(Cl)C2)C3CCN(C)CC3",
        "Molecular Formula": "C<sub>20</sub>H<sub>23</sub>ClN<sub>2</sub>O.ClH",
        "Molecular Mass": "",
        "Melting Point": "183-185 °C"
    }
}