{
    "cas_no": "687-47-8",
    "key_name": "Ethyl <span class=\"text-smallcaps\">L</span>-lactate",
    "cn_name": "L(-)-乳酸乙酯;2-羟基丙酸乙酯;alpha-羟基丙酸乙酯;",
    "alternate_name": "Propanoic acid, 2-hydroxy-, ethyl ester, (2<em>S</em>)-;Propanoic acid, 2-hydroxy-, ethyl ester, (<em>S</em>)-;Lactic acid, ethyl ester, (-)-;(-)-Ethyl lactate;Ethyl <span class=\"text-smallcaps\">L</span>-lactate;(<em>S</em>)-(-)-Ethyl lactate;(<em>S</em>)-(-)-Lactic acid ethyl ester;Ethyl (<em>S</em>)-lactate;(<em>S</em>)-Lactic acid ethyl ester;Ethyl (-)-(<em>S</em>)-lactate;(-)-Ethyl 2-hydroxypropionate;<span class=\"text-smallcaps\">L</span>-Ethyl lactate;Ethyl (<em>S</em>)-2-hydroxypropionate;(-)-Ethyl 2-hydroxypropanoate;(<span class=\"text-smallcaps\">L</span>)-(-)-Ethyl lactate;Ethyl (<em>S</em>)-2-hydroxypropanoate;Ethyl (<em>S</em>)-(-)-2-hydroxypropionate;(2<em>S</em>)-2-Hydroxypropionic acid ethyl ester;Ethyl <span class=\"text-smallcaps\">L</span>-(-)-lactate;Ethyl (2<em>S</em>)-(-)-2-hydroxypropanoate;(2<em>S</em>)-2-Hydroxypropanoic acid ethyl ester;(<em>S</em>)-2-Hydroxypropanoic acid ethyl ester;Ethyl (2<em>S</em>)-2-hydroxypropanoate;Ethyl (2S)-hydroxypropanoate;Ethyl L-lactate;(-)-Ethyl L-lactate;(2S)-Ethyl 2-hydroxypropanoate;(-)-Ethyl (<em>S</em>)-2-hydroxypropionate",
    "duplicated_cas_no": "13171-69-2",
    "SMILES": "C(OCC)([C@H](C)O)=O",
    "meta_data": {
        "InChI": "InChI=1S/C5H10O3/c1-3-8-5(7)4(2)6/h4,6H,3H2,1-2H3/t4-/m0/s1",
        "InChIKey": null,
        "Canonical SMILES": "O=C(OCC)C(O)C",
        "Molecular Formula": "C<sub>5</sub>H<sub>10</sub>O<sub>3</sub>",
        "Molecular Mass": "118.13",
        "Boiling Point": "154 °C",
        "Density": "1.025 g/cm³ @ Temp: 31 °C"
    }
}