{
    "cas_no": "937-64-4",
    "key_name": "<em>O</em>-(4-Chlorophenyl) carbonochloridothioate",
    "cn_name": "4-氯苯基氯硫代甲酸酯;",
    "alternate_name": "Carbonochloridothioic acid, <em>O</em>-(4-chlorophenyl) ester;Formic acid, chlorothio-, <em>O</em>-(<em>p</em>-chlorophenyl) ester;<em>O</em>-(4-Chlorophenyl) carbonochloridothioate;<em>p</em>-Chlorophenyl chlorothionoformate;<em>O</em>-4-Chlorophenyl chlorothioformate;4-Chlorophenyl thionochloroformate;4-Chlorophenyl chlorothionoformate",
    "duplicated_cas_no": "",
    "SMILES": "O(C(Cl)=S)C1=CC=C(Cl)C=C1",
    "meta_data": {
        "InChI": "InChI=1S/C7H4Cl2OS/c8-5-1-3-6(4-2-5)10-7(9)11/h1-4H",
        "InChIKey": null,
        "Canonical SMILES": "S=C(Cl)OC1=CC=C(Cl)C=C1",
        "Molecular Formula": "C<sub>7</sub>H<sub>4</sub>Cl<sub>2</sub>OS",
        "Molecular Mass": "207.08",
        "Boiling Point": "123-126 °C @ Press: 12 Torr"
    }
}