{
    "cas_no": "6628-28-0",
    "key_name": "6-Ethoxy-2-methylquinoline",
    "cn_name": "2-甲基-6-乙氧喹啉;6-乙氧基-2-甲基喹啉;",
    "alternate_name": "Quinoline, 6-ethoxy-2-methyl-;Quinaldine, 6-ethoxy-;6-Ethoxy-2-methylquinoline;6-Ethoxyquinaldine;NSC 60562;2-Methyl-6-ethoxyquinoline",
    "duplicated_cas_no": "",
    "SMILES": "O(CC)C1=CC2=C(C=C1)N=C(C)C=C2",
    "meta_data": {
        "InChI": "InChI=1S/C12H13NO/c1-3-14-11-6-7-12-10(8-11)5-4-9(2)13-12/h4-8H,3H2,1-2H3",
        "InChIKey": null,
        "Canonical SMILES": "N=1C=2C=CC(OCC)=CC2C=CC1C",
        "Molecular Formula": "C<sub>12</sub>H<sub>13</sub>NO",
        "Molecular Mass": "187.24",
        "Boiling Point": "173 °C @ Press: 14 Torr",
        "Melting Point": "71 °C"
    }
}