{
    "cas_no": "701-35-9",
    "key_name": "1-Methyl-4-(trichlorosilyl)benzene",
    "cn_name": "对甲苯三氯硅烷;",
    "alternate_name": "Benzene, 1-methyl-4-(trichlorosilyl)-;Silane, trichloro-<em>p</em>-tolyl-;Silane, trichloro(4-methylphenyl)-;1-Methyl-4-(trichlorosilyl)benzene;<em>p</em>-Tolyltrichlorosilane;<em>p</em>-Tolylsilyl trichloride;Trichloro-<em>p</em>-tolylsilane;Trichloro(4-methylphenyl)silane;<em>p</em>-Methylphenyltrichlorosilane",
    "duplicated_cas_no": "",
    "SMILES": "[Si](Cl)(Cl)(Cl)C1=CC=C(C)C=C1",
    "meta_data": {
        "InChI": "InChI=1S/C7H7Cl3Si/c1-6-2-4-7(5-3-6)11(8,9)10/h2-5H,1H3",
        "InChIKey": null,
        "Canonical SMILES": "Cl[Si](Cl)(Cl)C1=CC=C(C=C1)C",
        "Molecular Formula": "C<sub>7</sub>H<sub>7</sub>Cl<sub>3</sub>Si",
        "Molecular Mass": "225.57",
        "Boiling Point": "218-220 °C",
        "Density": "1.280 g/cm³"
    }
}