{
    "cas_no": "504-88-1",
    "key_name": "3-Nitropropionic acid",
    "cn_name": null,
    "alternate_name": "Propanoic acid, 3-nitro-;Propionic acid, 3-nitro-;3-Nitropropanoic acid;BNP;Bovinocidin;Hiptagenic acid;β-Nitropropionic acid;3-Nitropropionic acid;NSC 64266",
    "duplicated_cas_no": "",
    "SMILES": "C(CN(=O)=O)C(O)=O",
    "meta_data": {
        "InChI": "InChI=1S/C3H5NO4/c5-3(6)1-2-4(7)8/h1-2H2,(H,5,6)",
        "InChIKey": null,
        "Canonical SMILES": "O=C(O)CCN(=O)=O",
        "Molecular Formula": "C<sub>3</sub>H<sub>5</sub>NO<sub>4</sub>",
        "Molecular Mass": "119.08",
        "Melting Point": "68-70 °C"
    }
}