{
    "cas_no": "38557-82-3",
    "key_name": "4-Pyridinecarboxamide, 1-oxide",
    "cn_name": null,
    "alternate_name": "4-Pyridinecarboxamide, 1-oxide;Isonicotinamide, 1-oxide;Isonicotinamide <em>N</em>-oxide;NSC 18386;1-Oxidopyridin-1-ium-4-carboxamide",
    "duplicated_cas_no": "",
    "SMILES": "C(N)(=O)C=1C=CN(=O)=CC1",
    "meta_data": {
        "InChI": "InChI=1S/C6H6N2O2/c7-6(9)5-1-3-8(10)4-2-5/h1-4H,(H2,7,9)",
        "InChIKey": null,
        "Canonical SMILES": "O=C(N)C1=CC=N(=O)C=C1",
        "Molecular Formula": "C<sub>6</sub>H<sub>6</sub>N<sub>2</sub>O<sub>2</sub>",
        "Molecular Mass": "138.12",
        "Melting Point": "306 °C (decomp)"
    }
}