{
    "cas_no": "2426-54-2",
    "key_name": "(Diethylamino)ethyl acrylate",
    "cn_name": "丙烯酸N,N-二乙基氨基乙酯;",
    "alternate_name": "2-Propenoic acid, 2-(diethylamino)ethyl ester;Acrylic acid, 2-(diethylamino)ethyl ester;(Diethylamino)ethyl acrylate;2-(Diethylamino)ethyl acrylate;β-(Diethylamino)ethyl acrylate;2-(<em>N</em>,<em>N</em>-Diethylamino)ethyl acrylate;Agriflex;(<em>N</em>,<em>N</em>-Diethylamino)ethyl acrylate;NSC 3118;[2-(Acryloyloxy)ethyl]diethylamine",
    "duplicated_cas_no": "496937-74-7",
    "SMILES": "N(CCOC(C=C)=O)(CC)CC",
    "meta_data": {
        "InChI": "InChI=1S/C9H17NO2/c1-4-9(11)12-8-7-10(5-2)6-3/h4H,1,5-8H2,2-3H3",
        "InChIKey": null,
        "Canonical SMILES": "O=C(OCCN(CC)CC)C=C",
        "Molecular Formula": "C<sub>9</sub>H<sub>17</sub>NO<sub>2</sub>",
        "Molecular Mass": "171.24",
        "Boiling Point": "70 °C @ Press: 5.0 Torr",
        "Melting Point": "&lt;-60 °C",
        "Density": "1.4425 g/cm³ @ Temp: 20 °C"
    }
}