{
    "cas_no": "43210-67-9",
    "key_name": "Fenbendazole",
    "cn_name": "苯硫咪唑;芬苯达唑;",
    "alternate_name": "Carbamic acid, <em>N</em>-[6-(phenylthio)-1<em>H</em>-benzimidazol-2-yl]-, methyl ester;Carbamic acid, [5-(phenylthio)-1<em>H</em>-benzimidazol-2-yl]-, methyl ester;Fenbendazol;Fenbendazole;Methyl 5-(phenylthio)-2-benzimidazolecarbamate;HOE 881;2-(Methoxycarbonylamino)-5-(phenylthio)benzimidazole;Panacur;Methyl [5-(phenylthio)-1<em>H</em>-benzimidazol-2-yl]carbamate;Fenbion;Safe-Guard;Febendazole;Axilur;Vigisol;(5-Phenylsulfanyl-1<em>H</em>-benzoimidazol-2-yl)-carbamic acid methyl ester;Panacur AquaSol;MeSH ID: D005273",
    "duplicated_cas_no": "53571-02-1",
    "SMILES": "S(C=1C=C2C(N=C(NC(OC)=O)N2)=CC1)C3=CC=CC=C3",
    "meta_data": {
        "InChI": "InChI=1S/C15H13N3O2S/c1-20-15(19)18-14-16-12-8-7-11(9-13(12)17-14)21-10-5-3-2-4-6-10/h2-9H,1H3,(H2,16,17,18,19)",
        "InChIKey": null,
        "Canonical SMILES": "O=C(OC)NC1=NC=2C=CC(SC=3C=CC=CC3)=CC2N1",
        "Molecular Formula": "C<sub>15</sub>H<sub>13</sub>N<sub>3</sub>O<sub>2</sub>S",
        "Molecular Mass": "299.35",
        "Melting Point": "233 °C (decomp)"
    }
}