{
    "cas_no": "101-42-8",
    "key_name": "Fenuron",
    "cn_name": "非草隆;非草隆；N-苯基-N,N`-二甲基脲；1，1-二甲基-3-苯基脲;",
    "alternate_name": "Urea, <em>N</em>,<em>N</em>-dimethyl-<em>N</em>′-phenyl-;Urea, 1,1-dimethyl-3-phenyl-;<em>N</em>,<em>N</em>-Dimethyl-<em>N</em>′-phenylurea;Dybar;Fenuron;1,1-Dimethyl-3-phenylurea;3-Phenyl-1,1-dimethylurea;PUD;Dibar;1-Phenyl-3,3-dimethylurea;<em>N</em>-Phenyl-<em>N</em>′,<em>N</em>′-dimethylurea;Falisilvan;Omicure 94;Fikure 62U;Dyhard UR 300;Amicure UR;Dyhard RU 300;Omicure U 405;Dyhard 300;UR 300;U 405;PDU 250;3,3-Dimethyl-1-phenylurea;Amicure 7/10",
    "duplicated_cas_no": "",
    "SMILES": "N(C(N(C)C)=O)C1=CC=CC=C1",
    "meta_data": {
        "InChI": "InChI=1S/C9H12N2O/c1-11(2)9(12)10-8-6-4-3-5-7-8/h3-7H,1-2H3,(H,10,12)",
        "InChIKey": null,
        "Canonical SMILES": "O=C(NC=1C=CC=CC1)N(C)C",
        "Molecular Formula": "C<sub>9</sub>H<sub>12</sub>N<sub>2</sub>O",
        "Molecular Mass": "164.20",
        "Melting Point": "133-134 °C",
        "Density": "1.08 g/cm³ @ Temp: 20 °C"
    }
}