{
    "cas_no": "98-59-9",
    "key_name": "Tosyl chloride",
    "cn_name": "4-甲苯磺酰氯;对甲苯磺酰氯;PTSC;",
    "alternate_name": "Benzenesulfonyl chloride, 4-methyl-;<em>p</em>-Toluenesulfonyl chloride;4-Methylbenzenesulfonyl chloride;<em>p</em>-Methylbenzenesulfonyl chloride;Tosyl chloride;<em>p</em>-Toluenesulfochloride;<em>p</em>-Tosyl chloride;<em>p</em>-Tolylsulfonyl chloride;4-Toluenesulfonyl chloride;Toluenesulfonyl chloride;<em>p</em>-Toluenesulfonic acid chloride;<em>p</em>-Methylphenylsulfonyl chloride;4-Tosyl chloride;<em>p</em>-Toluenesulfonic chloride;4-Methylphenylsulfonyl chloride;NSC 175822;4-Toluolsulfonyl chloride;4-Methylbenzene-1-sulfonyl chloride;4-Methylbenzenesulphonyl chloride",
    "duplicated_cas_no": "",
    "SMILES": "S(Cl)(=O)(=O)C1=CC=C(C)C=C1",
    "meta_data": {
        "InChI": "InChI=1S/C7H7ClO2S/c1-6-2-4-7(5-3-6)11(8,9)10/h2-5H,1H3",
        "InChIKey": null,
        "Canonical SMILES": "O=S(=O)(Cl)C1=CC=C(C=C1)C",
        "Molecular Formula": "C<sub>7</sub>H<sub>7</sub>ClO<sub>2</sub>S",
        "Molecular Mass": "190.65",
        "Boiling Point": "146 °C @ Press: 15 Torr",
        "Melting Point": "69-71 °C"
    }
}