{
    "cas_no": "4224-62-8",
    "key_name": "6-Chlorohexanoic acid",
    "cn_name": "6-氯己酸;",
    "alternate_name": "Hexanoic acid, 6-chloro-;6-Chlorohexanoic acid;6-Chlorocaproic acid;ε-Chlorocaproic acid",
    "duplicated_cas_no": "",
    "SMILES": "C(CC(O)=O)CCCCl",
    "meta_data": {
        "InChI": "InChI=1S/C6H11ClO2/c7-5-3-1-2-4-6(8)9/h1-5H2,(H,8,9)",
        "InChIKey": null,
        "Canonical SMILES": "O=C(O)CCCCCCl",
        "Molecular Formula": "C<sub>6</sub>H<sub>11</sub>ClO<sub>2</sub>",
        "Molecular Mass": "150.60",
        "Boiling Point": "116-117 °C @ Press: 1.3 Torr",
        "Melting Point": "24-26 °C",
        "Density": "1.1320 g/cm³ @ Temp: 20 °C"
    }
}