{
    "cas_no": "78-54-6",
    "key_name": "1,1′-(1,2-Ethynediyl)bis[cyclohexanol]",
    "cn_name": "1,2-二(1,1\"-二环己醇基)乙炔;",
    "alternate_name": "Cyclohexanol, 1,1′-(1,2-ethynediyl)bis-;Cyclohexanol, 1,1′-ethynylenedi-;1,1′-(1,2-Ethynediyl)bis[cyclohexanol];1,1′-Ethynylenedicyclohexanol;Bis(1-hydroxycyclohexyl)acetylene;NSC 4321;1-[2-(1-Hydroxycyclohexyl)ethynyl]cyclohexan-1-ol;1-[2-(1-Hydroxycyclohexyl)ethynyl]cyclohexanol",
    "duplicated_cas_no": "",
    "SMILES": "C(#CC1(O)CCCCC1)C2(O)CCCCC2",
    "meta_data": {
        "InChI": "InChI=1S/C14H22O2/c15-13(7-3-1-4-8-13)11-12-14(16)9-5-2-6-10-14/h15-16H,1-10H2",
        "InChIKey": null,
        "Canonical SMILES": "OC1(C#CC2(O)CCCCC2)CCCCC1",
        "Molecular Formula": "C<sub>14</sub>H<sub>22</sub>O<sub>2</sub>",
        "Molecular Mass": "222.32",
        "Boiling Point": "183 °C",
        "Melting Point": "109 °C"
    }
}