{
    "cas_no": "928-50-7",
    "key_name": "5-Chloro-1-pentene",
    "cn_name": null,
    "alternate_name": "1-Pentene, 5-chloro-;5-Chloro-1-pentene;4-Pentenyl chloride;1-Chloro-4-pentene",
    "duplicated_cas_no": "",
    "SMILES": "C(CCCl)C=C",
    "meta_data": {
        "InChI": "InChI=1S/C5H9Cl/c1-2-3-4-5-6/h2H,1,3-5H2",
        "InChIKey": null,
        "Canonical SMILES": "ClCCCC=C",
        "Molecular Formula": "C<sub>5</sub>H<sub>9</sub>Cl",
        "Molecular Mass": "104.58",
        "Boiling Point": "105 °C",
        "Density": "0.9125 g/cm³ @ Temp: 20 °C"
    }
}