{
    "cas_no": "56-85-9",
    "key_name": "<span class=\"text-smallcaps\">L</span>-Glutamine",
    "cn_name": "L-谷氨酰胺;",
    "alternate_name": "<span class=\"text-smallcaps\">L</span>-Glutamine;Glutamine, <span class=\"text-smallcaps\">L</span>-;Glutamic acid amide;Glutamic acid 5-amide;Glumin;Glutamine;Pentanoic acid, 2,5-diamino-5-oxo-, (<em>S</em>)-;<span class=\"text-smallcaps\">L</span>-Glutamic acid γ-amide;γ-Glutamine;2-Aminoglutaramic acid;<span class=\"text-smallcaps\">L</span>-2-Aminoglutaramidic acid;Cebrogen;Stimulina;(<em>S</em>)-2,5-Diamino-5-oxopentanoic acid;<span class=\"text-smallcaps\">L</span>-(+)-Glutamine;Levoglutamide;Glumin (amino acid);NSC 27421;Aesgen 14;Acustasin;Saforis;Endari;(2S)-2-Amino-4-carbamoylbutanoic acid;(2S)-2,5-Diamino-5-oxopentanoic acid;12: PN: WO2021055880 SEQID: 13 claimed protein;47: PN: WO2022204326 SEQID: 81 claimed protein;MeSH ID: D005973",
    "duplicated_cas_no": "32640-56-5;2087491-51-6",
    "SMILES": "[C@H](CCC(N)=O)(C(O)=O)N",
    "meta_data": {
        "InChI": "InChI=1S/C5H10N2O3/c6-3(5(9)10)1-2-4(7)8/h3H,1-2,6H2,(H2,7,8)(H,9,10)/t3-/m0/s1",
        "InChIKey": null,
        "Canonical SMILES": "O=C(O)C(N)CCC(=O)N",
        "Molecular Formula": "C<sub>5</sub>H<sub>10</sub>N<sub>2</sub>O<sub>3</sub>",
        "Molecular Mass": "146.14",
        "Melting Point": "185.5 °C (decomp)"
    }
}