{
    "cas_no": "24522-30-3",
    "key_name": "2-Cyano-<em>N</em>-[4-(trifluoromethyl)phenyl]acetamide",
    "cn_name": null,
    "alternate_name": "Acetamide, 2-cyano-<em>N</em>-[4-(trifluoromethyl)phenyl]-;<em>p</em>-Acetotoluidide, 2-cyano-α,α,α-trifluoro-;2-Cyano-<em>N</em>-[4-(trifluoromethyl)phenyl]acetamide",
    "duplicated_cas_no": "",
    "SMILES": "C(F)(F)(F)C1=CC=C(NC(CC#N)=O)C=C1",
    "meta_data": {
        "InChI": "InChI=1S/C10H7F3N2O/c11-10(12,13)7-1-3-8(4-2-7)15-9(16)5-6-14/h1-4H,5H2,(H,15,16)",
        "InChIKey": null,
        "Canonical SMILES": "N#CCC(=O)NC1=CC=C(C=C1)C(F)(F)F",
        "Molecular Formula": "C<sub>10</sub>H<sub>7</sub>F<sub>3</sub>N<sub>2</sub>O",
        "Molecular Mass": "228.17",
        "Melting Point": "145-147 °C"
    }
}