{
    "cas_no": "5451-40-1",
    "key_name": "2,6-Dichloropurine",
    "cn_name": "2,6-二氯嘌呤;",
    "alternate_name": "9<em>H</em>-Purine, 2,6-dichloro-;Purine, 2,6-dichloro-;1<em>H</em>-Purine, 2,6-dichloro-;2,6-Dichloro-9<em>H</em>-purine;2,6-Dichloropurine;2,6-Dichloro-1<em>H</em>-purine;NSC 18395;2,6-Dichloro-9<em>H</em>-purin;2,6-Dichloro-7<em>H</em>-purine",
    "duplicated_cas_no": "1839-23-2",
    "SMILES": "ClC1=C2C(=NC(Cl)=N1)N=CN2",
    "meta_data": {
        "InChI": "InChI=1S/C5H2Cl2N4/c6-3-2-4(9-1-8-2)11-5(7)10-3/h1H,(H,8,9,10,11)",
        "InChIKey": null,
        "Canonical SMILES": "ClC=1N=C(Cl)C=2NC=NC2N1",
        "Molecular Formula": "C<sub>5</sub>H<sub>2</sub>Cl<sub>2</sub>N<sub>4</sub>",
        "Molecular Mass": "189.00",
        "Melting Point": "177 °C"
    }
}