{
    "cas_no": "132-53-6",
    "key_name": "2-Nitroso-1-naphthol",
    "cn_name": "2-亚硝基-1-萘酚;2-亚硝基-1-萘醇;",
    "alternate_name": "1-Naphthalenol, 2-nitroso-;1-Naphthol, 2-nitroso-;2-Nitroso-1-naphthalenol;C.I. 76610;β-Nitroso-α-naphthol;2-Nitroso-1-naphthol;2-Nitrosonaphthol;β-Nitrosonaphthol;2-Nitroso-1-hydroxynaphthalene;NSC 5034",
    "duplicated_cas_no": "",
    "SMILES": "OC=1C2=C(C=CC1N=O)C=CC=C2",
    "meta_data": {
        "InChI": "InChI=1S/C10H7NO2/c12-10-8-4-2-1-3-7(8)5-6-9(10)11-13/h1-6,12H",
        "InChIKey": null,
        "Canonical SMILES": "O=NC=1C=CC=2C=CC=CC2C1O",
        "Molecular Formula": "C<sub>10</sub>H<sub>7</sub>NO<sub>2</sub>",
        "Molecular Mass": "173.17",
        "Melting Point": "158 °C (decomp)"
    }
}