{
    "cas_no": "161798-01-2",
    "key_name": "5-Thiazolecarboxylic acid, 2-(3-formyl-4-hydroxyphenyl)-4-methyl-, ethyl ester",
    "cn_name": "2-(3-醛基-4-羟基苯基)-4-甲基噻唑-5-羧酸乙酯;",
    "alternate_name": "5-Thiazolecarboxylic acid, 2-(3-formyl-4-hydroxyphenyl)-4-methyl-, ethyl ester;Ethyl 2-(3-formyl-4-hydroxyphenyl)-4-methylthiazole-5-carboxylate",
    "duplicated_cas_no": "",
    "SMILES": "C(OCC)(=O)C=1SC(=NC1C)C2=CC(C=O)=C(O)C=C2",
    "meta_data": {
        "InChI": "InChI=1S/C14H13NO4S/c1-3-19-14(18)12-8(2)15-13(20-12)9-4-5-11(17)10(6-9)7-16/h4-7,17H,3H2,1-2H3",
        "InChIKey": null,
        "Canonical SMILES": "O=CC=1C=C(C=CC1O)C2=NC(=C(S2)C(=O)OCC)C",
        "Molecular Formula": "C<sub>14</sub>H<sub>13</sub>NO<sub>4</sub>S",
        "Molecular Mass": "291.32",
        "Melting Point": "96-100 °C"
    }
}