{
    "cas_no": "70-26-8",
    "key_name": "L-Ornithine",
    "cn_name": "鸟氨酸;2,5-二氨基戊酸;",
    "alternate_name": "<span class=\"text-smallcaps\">L</span>-Ornithine;Ornithine, <span class=\"text-smallcaps\">L</span>-;Pentanoic acid, 2,5-diamino-, (<em>S</em>)-;Ornithine;L-Ornithine;(<em>S</em>)-2,5-Diaminopentanoic acid;(<em>S</em>)-Ornithine;(<em>S</em>)-α,δ-Diaminovaleric acid;(+)-<em>S</em>-Ornithine;<span class=\"text-smallcaps\">L</span>-Norvaline, 5-amino-;(2S)-2,5-Diaminopentanoic acid;MeSH ID: D009952",
    "duplicated_cas_no": "7006-33-9;204201-13-8;410523-46-5",
    "SMILES": "[C@@H](C(O)=O)(CCCN)N",
    "meta_data": {
        "InChI": "InChI=1S/C5H12N2O2/c6-3-1-2-4(7)5(8)9/h4H,1-3,6-7H2,(H,8,9)/t4-/m0/s1",
        "InChIKey": null,
        "Canonical SMILES": "O=C(O)C(N)CCCN",
        "Molecular Formula": "C<sub>5</sub>H<sub>12</sub>N<sub>2</sub>O<sub>2</sub>",
        "Molecular Mass": "132.16",
        "Melting Point": "140 °C"
    }
}