{
    "cas_no": "7400-45-5",
    "key_name": "Propanoic acid, 3-[(2-methoxy-2-oxoethyl)thio]-, methyl ester",
    "cn_name": "3-[(2-甲氧基-2-乙氧基)硫醇]甲基丙酸;",
    "alternate_name": "Propanoic acid, 3-[(2-methoxy-2-oxoethyl)thio]-, methyl ester;Propionic acid, 3-[(carboxymethyl)thio]-, dimethyl ester;Methyl 3-(methoxycarbonylmethylthio)propionate;NSC 59279;Methyl 3-[(2-methoxy-2-oxoethyl)thio]propanoate;3-[[(Methoxycarbonyl)methyl]sulfanyl]propionic acid methyl ester",
    "duplicated_cas_no": "",
    "SMILES": "C(CSCC(OC)=O)C(OC)=O",
    "meta_data": {
        "InChI": "InChI=1S/C7H12O4S/c1-10-6(8)3-4-12-5-7(9)11-2/h3-5H2,1-2H3",
        "InChIKey": null,
        "Canonical SMILES": "O=C(OC)CSCCC(=O)OC",
        "Molecular Formula": "C<sub>7</sub>H<sub>12</sub>O<sub>4</sub>S",
        "Molecular Mass": "192.23",
        "Boiling Point": "115-117 °C @ Press: 3 Torr"
    }
}