{
    "cas_no": "533-67-5",
    "key_name": "Deoxyribose",
    "cn_name": "2-脱氧-D-核糖;",
    "alternate_name": "<span class=\"text-smallcaps\">D</span>-<em>erythro</em>-Pentose, 2-deoxy-;2-Deoxy-<span class=\"text-smallcaps\">D</span>-<em>erythro</em>-pentose;Thyminose;2-Deoxy-<span class=\"text-smallcaps\">D</span>-ribose;Deoxyribose;<span class=\"text-smallcaps\">D</span>-Ribose, 2-deoxy-;2-Deoxy-<span class=\"text-smallcaps\">D</span>-arabinose;<span class=\"text-smallcaps\">D</span>-(-)-2-Deoxyribose;(3<em>S</em>,4<em>R</em>)-3,4,5-Trihydroxypentanal;MeSH ID: D003855",
    "duplicated_cas_no": "452-51-7;14050-34-1;176915-68-7",
    "SMILES": "[C@@H]([C@@H](CO)O)(CC=O)O",
    "meta_data": {
        "InChI": "InChI=1S/C5H10O4/c6-2-1-4(8)5(9)3-7/h2,4-5,7-9H,1,3H2/t4-,5+/m0/s1",
        "InChIKey": null,
        "Canonical SMILES": "O=CCC(O)C(O)CO",
        "Molecular Formula": "C<sub>5</sub>H<sub>10</sub>O<sub>4</sub>",
        "Molecular Mass": "134.13",
        "Melting Point": "91 °C"
    }
}