{
    "cas_no": "519-44-8",
    "key_name": "2,4-Dinitroresorcinol",
    "cn_name": "2,4-二硝基间苯二酚[干的或含水<15%];2,4-二硝基间苯二酚[干的或含水<15%];",
    "alternate_name": "1,3-Benzenediol, 2,4-dinitro-;Resorcinol, 2,4-dinitro-;2,4-Dinitro-1,3-benzenediol;2,4-Dinitroresorcinol;Dinitroresorcinol;3-Hydroxy-2,4-dinitrophenol;2,4-Dinitroresorcin;NSC 243680",
    "duplicated_cas_no": "860672-34-0",
    "SMILES": "N(=O)(=O)C1=C(O)C(N(=O)=O)=CC=C1O",
    "meta_data": {
        "InChI": "InChI=1S/C6H4N2O6/c9-4-2-1-3(7(11)12)6(10)5(4)8(13)14/h1-2,9-10H",
        "InChIKey": null,
        "Canonical SMILES": "O=N(=O)C1=CC=C(O)C(=C1O)N(=O)=O",
        "Molecular Formula": "C<sub>6</sub>H<sub>4</sub>N<sub>2</sub>O<sub>6</sub>",
        "Molecular Mass": "200.11",
        "Melting Point": "147.5 °C"
    }
}