{
    "cas_no": "9004-74-4",
    "key_name": "Polyethylene glycol monomethyl ether",
    "cn_name": null,
    "alternate_name": "Poly(oxy-1,2-ethanediyl), α-methyl-ω-hydroxy-;Glycols, polyethylene, monomethyl ether;Polyethylene glycol monomethyl ether;Carbowax 350;Polyethylene glycol methyl ether;Ethylene oxide-methanol adduct;α-Methyl-ω-hydroxypoly(oxy-1,2-ethanediyl);Methyl polyglycol;Carbowax 750;Methoxypoly(ethylene glycol);Carbowax 550;Carbowax 2000;Carbowax 5000;Monomethoxypolyethylene glycol;MPEG;MPEG 5000;Monomethoxypolyoxyethylene;Nissan Uniox M 2000;Hymol PM;MPG 025;MPG 081;Nissan Uniox M 400;<em>O</em>-Methoxypolyethylene glycol;Breox MPEG 550;GN 8384;CP 2000 (polyoxyalkylene);CP 2000;Monomethoxy poly(ethylene oxide);Nissan Uniox M 550;Poly(ethylene oxide) monomethyl ether;Toho Me-PEG 400;Toho Me-PEG 1000;Uniox M 400;Nissan Uniol 1000;Nissan Uniol 550;MPEG 500;Nissan Uniox M 1000;Uniox M 1000;Uniox M 2000;Carbowax 750ME;MPG 130;Uniox M 550;Polyglycol M 750;Sanfine MM 2000;MPEG 350;MPEG 2000;MPEG 10000;Nissan Uniox M 600;Carbowax MPEG 5000;Pluriol A 500E;Pluriol A 350E;Pluriol A 275E;Nissan Uniox M 4000;MPEG 950;Sunbright MEH 20T;MPG;Carbowax MPEG 450;Pluriol A 2000E;MPG 140;Pluriol A 2000;Methoxy PEG 400;Me-PEG 400;Conion MP 220;Polyoxyethylene monomethyl ether;Polyglycol M 5000S;Polyglycol M 2000S;M 550;2,5,8,11,14,17,20,23,26,29,32,35,38,41,44,47,50-Heptadecaoxadopentacontan-52-ol;Pluriol 350E;M 750;MPEG 750;Pluriol 500;Polyglycol M 500;Uniox M 4000;Sunbright MEH 50H;Pluriol A 750I;Marlipal 1/12;MPEG 550;MPG 130H;Polyethylene glycol monoether with methyl diglycol;PEG-MME;MPEG 1000;Polyglycol M 1000;Polyglycol M 2000;Pluriol A 1000E;Methoxy PEG 4000;Pluriol A 750E;Methoxy PEG 1000;MPEG 2000HQ;Polyglycol M 350;Polyglycol M 5000;Leosolb PEM 700N;PEM 700N;MPEG 700;Pluriol A 5010E;Pluriol A 2030E;Pluriol A 500;Nissan Uniox M 500;Bikanol M 3,4;Pluriol 750;PEG-MME 350;MPEG 400;PGM 25;M 2000;Sunbright MEH 20H;Poly(ethylene oxide) methyl ether;Methyl polyoxyethylene;PEG 550 monomethyl ether;CP 2500;Leosolb PEM 400H;Methoxypolyethylene glycol;MPEG-OH;Blaunon MP 300;Peg monomethyl ether;Pluriol 1020E;MoPEG 750;Macrogol monomethyl ether;Nissan Uniox M 100;Methoxy-PEG-OH;Carbowax MPEG 350;Sitol;mPEO 5000;Pluriol A 760E;Nissan Unilube M 400;Nissan Unilube M 550;Carbowax MPEG 1000;Pluriol A 520E;Aduxol MPEG 750;Aduxol MPEG 550;Pluriol A 1020E;Pluriol A 2020E;Pluriol A 3020E;Pluriol A 2010E;Ethanol, 2-[2-[2-[2-[2-[2-[2-[2-[2-[2-[2-(2-methoxyethoxy)ethoxy]ethoxy]ethoxy]ethoxy]ethoxy]ethoxy]ethoxy]ethoxy]ethoxy]ethoxy]-;Dodecaethylene glycol monomethyl ether;MPEG 1200;DME 1000;Pluriol A 3010E;Sunbright MEH 40T;Carbowax MPEG 750;Methyl Polyglycol 130;Me Polyglycol 130;Newpol MM 400;Carbowax Sentry MPEG 350;Carbowax Sentry MPEG 550;P 4109EGOCH3;P 6274EGOCH3;P 4358EGOCH3;TN 555;Polyglycol M 500PU;MPG 130U;MPEG 520;Blaunon MP 400;Methyl Polyglycol 130H2;Methyl Polyglycol 056H;Methyl Polyglycol 081;mPEG 200;mPEG 600;mPEG 800;M 1000;MPEG 4500;CF 201;SGG 06009;MEPG 3000;MPEG 2200;M 350PU;M 750PU;Blaunon MP 550;Methoxypolyethylene glycol amine-glutathione-palmitic acid copolymer;MPEG 3350;Polyglycol M 3000;Polyglycol M 4000;Wanol MPEG 8000;Wanol MPEG 4000;Polyglykol M 500;M 500;Polyglykol M 3000S;MP 2000 (polyoxyalkylene);MP 2000;MPEG 100;Hexamethylene diisocyanate isocyanurate-methoxypolyethylene glycol copolymer;M-PEG-CP 2500;MPEG 1500;Polyglykol M 400PU;ML 3000;ML 10000;3,6,9,12,15,18,21,24,27,30,33,36,39,42,45,48,51,54,57,60,63-Heneicosaoxatetrahexacontan-1-ol;Ethoxylated methanol;MPEG 450",
    "duplicated_cas_no": "5702-16-9;12623-96-0;41396-14-9;54386-07-1;57244-93-6;64543-87-9;69592-91-2;72664-19-8;77102-87-5;86002-19-9;91826-72-1;95507-78-1;95507-80-5;102868-77-9;104841-59-0;114740-40-8;126966-17-4;134919-42-9;138753-86-3;142172-77-8;146162-92-7;154701-70-9;154885-26-4;158360-78-2;162582-19-6;163294-10-8;163733-28-6;165338-17-0;166441-82-3;178613-33-7;185250-24-2;187523-66-6;189209-93-6;193008-24-1;195970-98-0;207799-14-2;212969-32-9;216693-45-7;226212-72-2;237739-71-8;241466-57-9;252757-04-3;396134-26-2;438245-23-9;497171-84-3;916463-35-9;949587-98-8;1034004-69-7;1059605-03-6;1059605-05-8;1173722-69-4;1238333-93-1;1392446-65-9;1427524-96-6;1470030-94-4;1567667-39-3;1618672-38-0;1618672-41-5;1801528-22-2;1816293-00-1;1860823-72-8;1864893-98-0;1974246-09-7;2044679-31-2;2098037-46-6;2172697-93-5;2305227-44-3;2410621-76-8;2512863-68-0;2512863-76-0;2580498-00-4;2768029-34-9;2897662-56-3;2997677-37-7",
    "SMILES": "",
    "meta_data": {
        "InChI": "",
        "InChIKey": null,
        "Canonical SMILES": "",
        "Molecular Formula": "(C<sub>2</sub>H<sub>4</sub>O)<sub>n</sub>CH<sub>4</sub>O",
        "Molecular Mass": "",
        "Boiling Point": "200-220 °C @ Press: 0.01 Torr",
        "Melting Point": "50 °C",
        "Density": "1.09 g/cm³"
    }
}