{
    "cas_no": "141940-37-6",
    "key_name": "1,1-Dimethylethyl <em>N</em>-[4-(trifluoromethyl)phenyl]carbamate",
    "cn_name": null,
    "alternate_name": "Carbamic acid, <em>N</em>-[4-(trifluoromethyl)phenyl]-, 1,1-dimethylethyl ester;Carbamic acid, [4-(trifluoromethyl)phenyl]-, 1,1-dimethylethyl ester;1,1-Dimethylethyl <em>N</em>-[4-(trifluoromethyl)phenyl]carbamate;<em>tert</em>-Butyl 4-trifluoromethylphenylcarbamate;(4-Trifluoromethylphenyl)carbamic acid tert-butyl ester",
    "duplicated_cas_no": "",
    "SMILES": "C(F)(F)(F)C1=CC=C(NC(OC(C)(C)C)=O)C=C1",
    "meta_data": {
        "InChI": "InChI=1S/C12H14F3NO2/c1-11(2,3)18-10(17)16-9-6-4-8(5-7-9)12(13,14)15/h4-7H,1-3H3,(H,16,17)",
        "InChIKey": null,
        "Canonical SMILES": "O=C(OC(C)(C)C)NC1=CC=C(C=C1)C(F)(F)F",
        "Molecular Formula": "C<sub>12</sub>H<sub>14</sub>F<sub>3</sub>NO<sub>2</sub>",
        "Molecular Mass": "261.24",
        "Melting Point": "123-124 °C"
    }
}