{
    "cas_no": "13327-27-0",
    "key_name": "6-Methyl-3(2<em>H</em>)-pyridazinone",
    "cn_name": "6-甲基-3(2H)-哒嗪酮;",
    "alternate_name": "3(2<em>H</em>)-Pyridazinone, 6-methyl-;6-Methyl-3(2<em>H</em>)-pyridazinone;3-Hydroxy-6-methylpyridazine;6-Methyl-3-pyridazinone;4-Methyl-5,6-diaza-2,4-cyclohexadien-1-one;NSC 10841;NSC 17180;6-Methyl-2<em>H</em>-pyridazin-3-one;6-Methyl-2<em>H</em>-pyridazine-3-one;6-Methylpyridazin-3-ol;3-Methyl-1<em>H</em>-pyridazin-6-one",
    "duplicated_cas_no": "",
    "SMILES": "CC=1C=CC(=O)NN1",
    "meta_data": {
        "InChI": "InChI=1S/C5H6N2O/c1-4-2-3-5(8)7-6-4/h2-3H,1H3,(H,7,8)",
        "InChIKey": null,
        "Canonical SMILES": "O=C1C=CC(=NN1)C",
        "Molecular Formula": "C<sub>5</sub>H<sub>6</sub>N<sub>2</sub>O",
        "Molecular Mass": "110.11",
        "Melting Point": "138 °C"
    }
}