{
    "cas_no": "6064-63-7",
    "key_name": "(±)-2-Hydroxyhexanoic acid",
    "cn_name": "DL-α-羟基己酸;DL-2-羟基己酸;DL-alpha-羟基己酸;",
    "alternate_name": "Hexanoic acid, 2-hydroxy-;2-Hydroxyhexanoic acid;2-Hydroxycaproic acid;α-Hydroxy-<em>n</em>-caproic acid;α-Hydroxycaproic acid;α-Hydroxyhexanoic acid;<span class=\"text-smallcaps\">DL</span>-α-Hydroxycaproic acid;<span class=\"text-smallcaps\">DL</span>-2-Hydroxycaproic acid;<span class=\"text-smallcaps\">DL</span>-2-Hydroxyhexanoic acid;(±)-2-Hydroxyhexanoic acid;(±)-2-Hydroxycaproic acid;(±)-α-Hydroxycaproic acid;<em>dl</em>-2-Hydroxyhexanoic acid;NSC 227903",
    "duplicated_cas_no": "636-36-2",
    "SMILES": "C(C(O)=O)(CCCC)O",
    "meta_data": {
        "InChI": "InChI=1S/C6H12O3/c1-2-3-4-5(7)6(8)9/h5,7H,2-4H2,1H3,(H,8,9)",
        "InChIKey": null,
        "Canonical SMILES": "O=C(O)C(O)CCCC",
        "Molecular Formula": "C<sub>6</sub>H<sub>12</sub>O<sub>3</sub>",
        "Molecular Mass": "132.16",
        "Boiling Point": "305 °C",
        "Melting Point": "61 °C"
    }
}