{
    "cas_no": "34841-11-7",
    "key_name": "Benzoic acid, 2-methoxy-5-nitro-, methyl ester",
    "cn_name": "2-甲氧基-5-硝基苯甲酸甲酯;",
    "alternate_name": "Benzoic acid, 2-methoxy-5-nitro-, methyl ester;<em>o</em>-Anisic acid, 5-nitro-, methyl ester;Methyl 2-methoxy-5-nitrobenzoate;2-Methoxy-5-nitrobenzoic acid methyl ester",
    "duplicated_cas_no": "",
    "SMILES": "C(OC)(=O)C1=C(OC)C=CC(N(=O)=O)=C1",
    "meta_data": {
        "InChI": "InChI=1S/C9H9NO5/c1-14-8-4-3-6(10(12)13)5-7(8)9(11)15-2/h3-5H,1-2H3",
        "InChIKey": null,
        "Canonical SMILES": "O=C(OC)C1=CC(=CC=C1OC)N(=O)=O",
        "Molecular Formula": "C<sub>9</sub>H<sub>9</sub>NO<sub>5</sub>",
        "Molecular Mass": "211.17",
        "Melting Point": "95-97 °C"
    }
}