{
    "cas_no": "5619-04-5",
    "key_name": "Serine, methyl ester, hydrochloride (1:1)",
    "cn_name": "DL-丝氨酸甲酯盐酸盐;",
    "alternate_name": "Serine, methyl ester, hydrochloride (1:1);Serine, methyl ester, hydrochloride, <span class=\"text-smallcaps\">DL</span>-;<span class=\"text-smallcaps\">DL</span>-Serine, methyl ester, hydrochloride;Serine, methyl ester, hydrochloride;Methyl 2-amino-3-hydroxypropionate hydrochloride;Methyl <span class=\"text-smallcaps\">D</smallcap>,<smallcap>L</span>-serinate hydrochloride;Methyl 2-amino-3-hydroxypropanoate hydrochloride;2-Amino-3-hydroxy-propionic acid methyl ester; hydrochloride;Methyl <span class=\"text-smallcaps\">D</smallcap><smallcap>L</span>-serinate hydrochloride",
    "duplicated_cas_no": "",
    "SMILES": "C(C(OC)=O)(CO)N.Cl",
    "meta_data": {
        "InChI": "InChI=1S/C4H9NO3.ClH/c1-8-4(7)3(5)2-6;/h3,6H,2,5H2,1H3;1H",
        "InChIKey": null,
        "Canonical SMILES": "Cl.O=C(OC)C(N)CO",
        "Molecular Formula": "C<sub>4</sub>H<sub>9</sub>NO<sub>3</sub>.ClH",
        "Molecular Mass": "",
        "Melting Point": "133-134 °C"
    }
}