{
    "cas_no": "106461-41-0",
    "key_name": "2,4-Dihydro-4-[4-[4-(4-hydroxyphenyl)-1-piperazinyl]phenyl]-2-(1-methylpropyl)-3<em>H</em>-1,2,4-triazol-3-one",
    "cn_name": "2,4-二氢-4-[4-[4-(4-羟基苯基)-1-哌嗪基]苯基]-2-(1-甲基丙基)-3H-1,2,4-三氮唑-3-酮;",
    "alternate_name": "3<em>H</em>-1,2,4-Triazol-3-one, 2,4-dihydro-4-[4-[4-(4-hydroxyphenyl)-1-piperazinyl]phenyl]-2-(1-methylpropyl)-;2,4-Dihydro-4-[4-[4-(4-hydroxyphenyl)-1-piperazinyl]phenyl]-2-(1-methylpropyl)-3<em>H</em>-1,2,4-triazol-3-one;T 1330;1-(<em>sec</em>-Butyl)-4-(4-(4-(4-hydroxyphenyl)piperazin-1-yl)phenyl)-1<em>H</em>-1,2,4-triazol-5(4<em>H</em>)-one;2-Butan-2-yl-4-[4-[4-(4-hydroxyphenyl)piperazin-1-yl]phenyl]-1,2,4-triazol-3-one",
    "duplicated_cas_no": "154003-28-8",
    "SMILES": "O=C1N(C=NN1C(CC)C)C2=CC=C(C=C2)N3CCN(CC3)C4=CC=C(O)C=C4",
    "meta_data": {
        "InChI": "InChI=1S/C22H27N5O2/c1-3-17(2)27-22(29)26(16-23-27)20-6-4-18(5-7-20)24-12-14-25(15-13-24)19-8-10-21(28)11-9-19/h4-11,16-17,28H,3,12-15H2,1-2H3",
        "InChIKey": null,
        "Canonical SMILES": "O=C1N(C=NN1C(C)CC)C2=CC=C(C=C2)N3CCN(C4=CC=C(O)C=C4)CC3",
        "Molecular Formula": "C<sub>22</sub>H<sub>27</sub>N<sub>5</sub>O<sub>2</sub>",
        "Molecular Mass": "393.48",
        "Melting Point": "76-78 °C"
    }
}