{
    "cas_no": "1200-22-2",
    "key_name": "α-Lipoic acid",
    "cn_name": "R-(+)-硫辛酸;(R)-(+)-1,2-二硫戊环基-3-戊酸;",
    "alternate_name": "1,2-Dithiolane-3-pentanoic acid, (3<em>R</em>)-;1,2-Dithiolane-3-valeric acid, (+)-;1,2-Dithiolane-3-pentanoic acid, (<em>R</em>)-;(3<em>R</em>)-1,2-Dithiolane-3-pentanoic acid;<em>d</em>-Thioctic acid;(<em>R</em>)-(+)-α-Lipoic acid;α-(+)-Lipoic acid;α-Lipoic acid;Lipoic acid;(<em>R</em>)-α-Lipoic acid;(<em>R</em>)-Lipoic acid;<em>R</em>-(+)-Thioctic acid;Tiobec;Thiogamma;Byodinoral 300;Tiobec Retard;Lipoec;Berlition;Thioderm;alpha-Lipoic acid;Destior-R;Matris thioctic;(R)-(+)-1,2-Dithiolane-3-pentanoic acid;(R)-5-(1,2-Dithiolan-3-yl)pentanoicacid;Arlipoic acid",
    "duplicated_cas_no": "57828-26-9;2087491-16-3",
    "SMILES": "C(CCCC(O)=O)[C@@H]1CCSS1",
    "meta_data": {
        "InChI": "InChI=1S/C8H14O2S2/c9-8(10)4-2-1-3-7-5-6-11-12-7/h7H,1-6H2,(H,9,10)/t7-/m1/s1",
        "InChIKey": null,
        "Canonical SMILES": "O=C(O)CCCCC1SSCC1",
        "Molecular Formula": "C<sub>8</sub>H<sub>14</sub>O<sub>2</sub>S<sub>2</sub>",
        "Molecular Mass": "206.33",
        "Boiling Point": "185-195 °C @ Press: 0.5 Torr",
        "Melting Point": "46-48 °C"
    }
}