{
    "cas_no": "23426-63-3",
    "key_name": "Methyl 2-bromo-2-methylpropanoate",
    "cn_name": "2-溴代异丁酸甲酯;",
    "alternate_name": "Propanoic acid, 2-bromo-2-methyl-, methyl ester;Propionic acid, 2-bromo-2-methyl-, methyl ester;Methyl 2-bromo-2-methylpropanoate;α-Bromoisobutyric acid methyl ester;Methyl 2-bromo-2-methylpropionate;Methyl 2-bromoisobutyrate;Methyl α-bromo-α-methylpropionate;Methyl α-bromoisobutyrate;2-Bromo-2-methylpropanoic acid methyl ester;2-Bromoisobutyric acid methyl ester;NSC 406890;Methyl 2-bromoisobutanoate;2-Bromo-2-methylpropionic acid methyl ester;2-Bromomethyl methacrylate;Methyl α,α-dimethylbromoacetate;Methyl 2-bromoisobutylate;Methyl bromodimethylacetate",
    "duplicated_cas_no": "",
    "SMILES": "C(C(Br)(C)C)(OC)=O",
    "meta_data": {
        "InChI": "InChI=1S/C5H9BrO2/c1-5(2,6)4(7)8-3/h1-3H3",
        "InChIKey": null,
        "Canonical SMILES": "O=C(OC)C(Br)(C)C",
        "Molecular Formula": "C<sub>5</sub>H<sub>9</sub>BrO<sub>2</sub>",
        "Molecular Mass": "181.03",
        "Boiling Point": "52 °C @ Press: 19 Torr",
        "Density": "1.331 g/cm³ @ Temp: 20 °C"
    }
}