{
    "cas_no": "63284-71-9",
    "key_name": "Nuarimol",
    "cn_name": "噻菌醇;(±)2-氯-4′-氟-Α-(嘧啶-5-基)二苯基甲醇;氟苯嘧啶醇;",
    "alternate_name": "5-Pyrimidinemethanol, α-(2-chlorophenyl)-α-(4-fluorophenyl)-;α-(2-Chlorophenyl)-α-(4-fluorophenyl)-5-pyrimidinemethanol;Nuarimol;EL 2289;EL 228;Trimidal;Trimifruit SC;(±)-Nuarimol;Trimidal EC;Tridal;EL 228 (fungicide)",
    "duplicated_cas_no": "109023-55-4;75872-04-7;1135442-60-2",
    "SMILES": "C(O)(C1=C(Cl)C=CC=C1)(C2=CC=C(F)C=C2)C=3C=NC=NC3",
    "meta_data": {
        "InChI": "InChI=1S/C17H12ClFN2O/c18-16-4-2-1-3-15(16)17(22,13-9-20-11-21-10-13)12-5-7-14(19)8-6-12/h1-11,22H",
        "InChIKey": null,
        "Canonical SMILES": "FC1=CC=C(C=C1)C(O)(C=2C=NC=NC2)C=3C=CC=CC3Cl",
        "Molecular Formula": "C<sub>17</sub>H<sub>12</sub>ClFN<sub>2</sub>O",
        "Molecular Mass": "314.74",
        "Melting Point": "126 °C"
    }
}