{
    "cas_no": "12069-69-1",
    "key_name": "Basic copper carbonate",
    "cn_name": "碱式碳酸铜;",
    "alternate_name": "Copper, [μ-[carbonato(2-)-κ<em>O</em>:κ<em>O</em>′]]dihydroxydi-;Copper carbonate hydroxide (Cu<sub>2</sub>(OH)<sub>2</sub>CO<sub>3</sub>);Copper, (carbonato)dihydroxydi-;Copper, [μ-[carbonato(2-)-<em>O</em>:<em>O</em>′]]dihydroxydi-;Carbonic acid, copper complex;[μ-[Carbonato(2-)-κ<em>O</em>:κ<em>O</em>′]]dihydroxydicopper;Cheshunt compound;Dicopper dihydroxycarbonate;Copper basic carbonate;Copper hydroxide carbonate (Cu<sub>2</sub>(OH)<sub>2</sub>CO<sub>3</sub>);Basic cupric carbonate;Basic copper carbonate;Copper carbonate hydroxide [CuCO<sub>3</sub>.Cu(OH)<sub>2</sub>];Cupric carbonate, basic;Cupric carbonate hydroxide (CuCO<sub>3</sub>.Cu(OH)<sub>2</sub>);Basic copper(II) carbonate;Cupric carbonate (CuCO<sub>3</sub>.Cu(OH)<sub>2</sub>);Basic copper carbonate (Cu<sub>2</sub>(OH)<sub>2</sub>CO<sub>3</sub>);Basic copper carbonate (Cu<sub>2</sub>(CO<sub>3</sub>)(OH)<sub>2</sub>);Carbonic acid, copper(2+) salt (1:1), basic;Dicopper(2+) carbonate dihydroxide;Carbonatodihydroxodicopper;Copper dihydroxide carbonate;Copper carbonate hydroxide (Cu<sub>2</sub>(CO<sub>3</sub>)(OH)<sub>2</sub>);[Carbonato(2-)]copper-dihydroxycopper (1:1);Copper(II) hydroxycarbonate",
    "duplicated_cas_no": "1344-66-7;37396-60-4;39361-73-4;138210-92-1;866114-86-5;1036286-41-5;1821514-05-9;2108065-66-1;2130903-30-7",
    "SMILES": "C(O[Cu]O)(O[Cu]O)=O",
    "meta_data": {
        "InChI": "InChI=1S/CH2O3.2Cu.2H2O/c2-1(3)4;;;;/h(H2,2,3,4);;;2*1H2/q;2*+2;;/p-4",
        "InChIKey": null,
        "Canonical SMILES": "O=C(O[Cu]O)O[Cu]O",
        "Molecular Formula": "CH<sub>2</sub>Cu<sub>2</sub>O<sub>5</sub>",
        "Molecular Mass": "",
        "Melting Point": "200 °C (decomp)"
    }
}