{
    "cas_no": "402-49-3",
    "key_name": "4-(Trifluoromethyl)benzyl bromide",
    "cn_name": "4-(三氟甲基)苄基溴;",
    "alternate_name": "Benzene, 1-(bromomethyl)-4-(trifluoromethyl)-;<em>p</em>-Xylene, α′-bromo-α,α,α-trifluoro-;1-(Bromomethyl)-4-(trifluoromethyl)benzene;α′-Bromo-α,α,α-trifluoro-<em>p</em>-xylene;<em>p</em>-(Trifluoromethyl)benzyl bromide;4-(Trifluoromethyl)benzyl bromide;1-Trifluoromethyl-4-(bromomethyl)benzene;4-Bromomethylbenzotrifluoride",
    "duplicated_cas_no": "",
    "SMILES": "C(F)(F)(F)C1=CC=C(CBr)C=C1",
    "meta_data": {
        "InChI": "InChI=1S/C8H6BrF3/c9-5-6-1-3-7(4-2-6)8(10,11)12/h1-4H,5H2",
        "InChIKey": null,
        "Canonical SMILES": "FC(F)(F)C1=CC=C(C=C1)CBr",
        "Molecular Formula": "C<sub>8</sub>H<sub>6</sub>BrF<sub>3</sub>",
        "Molecular Mass": "239.03",
        "Boiling Point": "65-66 °C @ Press: 5 Torr"
    }
}