{
    "cas_no": "3433-80-5",
    "key_name": "2-Bromobenzyl bromide",
    "cn_name": "2-溴溴苄;邻溴溴苄;",
    "alternate_name": "Benzene, 1-bromo-2-(bromomethyl)-;Toluene, <em>o</em>,α-dibromo-;1-Bromo-2-(bromomethyl)benzene;2-Bromobenzyl bromide;<em>o</em>-Bromobenzyl bromide;α,<em>o</em>-Dibromotoluene;<em>o</em>-(Bromomethyl)bromobenzene;2-(Bromomethyl)bromobenzene;1-Bromomethyl-2-bromobenzene",
    "duplicated_cas_no": "",
    "SMILES": "C(Br)C1=C(Br)C=CC=C1",
    "meta_data": {
        "InChI": "InChI=1S/C7H6Br2/c8-5-6-3-1-2-4-7(6)9/h1-4H,5H2",
        "InChIKey": null,
        "Canonical SMILES": "BrC=1C=CC=CC1CBr",
        "Molecular Formula": "C<sub>7</sub>H<sub>6</sub>Br<sub>2</sub>",
        "Molecular Mass": "249.93",
        "Boiling Point": "124-128 °C @ Press: 17 Torr",
        "Melting Point": "31 °C"
    }
}