{
    "cas_no": "2049-80-1",
    "key_name": "Diethyl allylmalonate",
    "cn_name": "烯丙基丙二酸二乙酯;",
    "alternate_name": "Propanedioic acid, 2-(2-propen-1-yl)-, 1,3-diethyl ester;Malonic acid, allyl-, diethyl ester;Propanedioic acid, 2-propenyl-, diethyl ester;Diethyl allylmalonate;Ethyl allylmalonate;Diethyl 2-allylmalonate;Diethyl 2-prop-2-enylmalonate;Diethyl 2-allyl-1,3-propanedioate;Allylmalonic acid diethyl ester;Diethyl 2-propenylmalonate;2-Allylmalonic acid diethyl ester;NSC 67393;NSC 8777;(2-Propenyl)propanedioic acid diethyl ester;Diethyl 1-butene-4,4-dicarboxylate;1,3-Diethyl 2-(prop-2-en-1-yl)propanedioate;Diethyl 2-allylpropanedioate",
    "duplicated_cas_no": "1347703-47-2",
    "SMILES": "C(C(OCC)=O)(C(OCC)=O)CC=C",
    "meta_data": {
        "InChI": "InChI=1S/C10H16O4/c1-4-7-8(9(11)13-5-2)10(12)14-6-3/h4,8H,1,5-7H2,2-3H3",
        "InChIKey": null,
        "Canonical SMILES": "O=C(OCC)C(C(=O)OCC)CC=C",
        "Molecular Formula": "C<sub>10</sub>H<sub>16</sub>O<sub>4</sub>",
        "Molecular Mass": "200.23",
        "Boiling Point": "222.5 °C",
        "Density": "1.0092 g/cm³ @ Temp: 20 °C"
    }
}