{
    "cas_no": "929-73-7",
    "key_name": "Dodecylammonium chloride",
    "cn_name": "十二烷胺盐酸盐;",
    "alternate_name": "1-Dodecanamine, hydrochloride (1:1);Dodecylamine, hydrochloride;1-Dodecanamine, hydrochloride;Dodecylammonium chloride;Laurylamine hydrochloride;1-Aminododecane hydrochloride;<em>n</em>-Dodecylammonium chloride;Dodecanamine hydrochloride;Laurylammonium chloride;<em>n</em>-Dodecylamine hydrochloride",
    "duplicated_cas_no": "",
    "SMILES": "C(CCCCCC)CCCCCN.Cl",
    "meta_data": {
        "InChI": "InChI=1S/C12H27N.ClH/c1-2-3-4-5-6-7-8-9-10-11-12-13;/h2-13H2,1H3;1H",
        "InChIKey": null,
        "Canonical SMILES": "Cl.NCCCCCCCCCCCC",
        "Molecular Formula": "C<sub>12</sub>H<sub>27</sub>N.ClH",
        "Molecular Mass": "",
        "Melting Point": "183-186 °C (decomp)"
    }
}