{
    "cas_no": "3002-78-6",
    "key_name": "5-Methyl-1,10-phenanthroline",
    "cn_name": "5-甲基-邻二氮杂菲;5-甲基-1,10-菲咯林;",
    "alternate_name": "1,10-Phenanthroline, 5-methyl-;5-Methyl-1,10-phenanthroline;5-Methylphenanthroline;5-Methyl-<em>o</em>-phenanthroline;NSC 4272",
    "duplicated_cas_no": "71958-77-5",
    "SMILES": "CC1=C2C(=C3C(=C1)C=CC=N3)N=CC=C2",
    "meta_data": {
        "InChI": "InChI=1S/C13H10N2/c1-9-8-10-4-2-6-14-12(10)13-11(9)5-3-7-15-13/h2-8H,1H3",
        "InChIKey": null,
        "Canonical SMILES": "N=1C=CC=C2C=C(C=3C=CC=NC3C12)C",
        "Molecular Formula": "C<sub>13</sub>H<sub>10</sub>N<sub>2</sub>",
        "Molecular Mass": "194.23",
        "Melting Point": "113 °C"
    }
}