{
    "cas_no": "940-71-6",
    "key_name": "Hexachlorocyclotriphosphazene",
    "cn_name": "三聚氯化磷腈;六氯三聚磷腈;六氯环三磷腈;",
    "alternate_name": "2λ<sup>5</sup>,4λ<sup>5</sup>,6λ<sup>5</sup>-1,3,5,2,4,6-Triazatriphosphorine, 2,2,4,4,6,6-hexachloro-;1,3,5,2,4,6-Triazatriphosphorine, 2,2,4,4,6,6-hexachloro-2,2,4,4,6,6-hexahydro-;Phosphonitrile chloride, trimer;2,2,4,4,6,6-Hexachloro-2λ<sup>5</sup>,4λ<sup>5</sup>,6λ<sup>5</sup>-1,3,5,2,4,6-triazatriphosphorine;Hexachlorotriphosphonitrile;Phosphonitrile chloride, cyclic trimer;Hexachlorocyclophosphazatriene;Triphosphonitrilic chloride;Phosphonitrilic chloride cyclic trimer;Cyclophosphonitrilic chloride trimer;Phosphononitrilic chloride trimer;Triphosphonitrile chloride;Phosphonitrilic chloride trimer;Hexachlorocyclotriphosphazatriene;2,2,4,4,6,6-Hexachloro-2,2,4,4,6,6-hexahydro-1,3,5,2,4,6-triazatriphosphorine;Cyclophosphazene dichloride trimer;Hexachloro-1,3,5,2,4,6-triazatriphosphorine;2,2,4,4,6,6-Hexachlorocyclotriphosphazatriene;Dichlorocyclotriphosphazene;Hexachlorocyclotriphosphazene;2,2,4,4,6,6-Hexachlorocyclotriphosphazene;Hexachlorocyclotriphosphatriazene;Hexachlorotriphosphazene;Phosnic 390;Dichlorophosphazene trimer;NSC 209799;NSC 2667;Dichlorophosphazene cyclic trimer;Tris(phosphonitriliic chloride);Tris(phosphonitrilic chloride);Samreal 87;HCCP",
    "duplicated_cas_no": "16422-79-0;65796-81-8;68106-70-7;78697-26-4;94776-89-3;141552-05-8;204453-45-2;1081797-13-8",
    "SMILES": "ClP=1(Cl)N=P(Cl)(Cl)N=P(Cl)(Cl)N1",
    "meta_data": {
        "InChI": "InChI=1S/Cl6N3P3/c1-10(2)7-11(3,4)9-12(5,6)8-10",
        "InChIKey": null,
        "Canonical SMILES": "ClP=1(Cl)N=P(Cl)(Cl)N=P(Cl)(Cl)N1",
        "Molecular Formula": "Cl<sub>6</sub>N<sub>3</sub>P<sub>3</sub>",
        "Molecular Mass": "347.66",
        "Boiling Point": "257 °C",
        "Melting Point": "114 °C"
    }
}