{
    "cas_no": "313651-25-1",
    "key_name": "(3<em>R</em>,4<em>R</em>)-3-(Aminomethyl)-4,5-dimethylhexanoic acid",
    "cn_name": null,
    "alternate_name": "Hexanoic acid, 3-(aminomethyl)-4,5-dimethyl-, (3<em>R</em>,4<em>R</em>)-;(3<em>R</em>,4<em>R</em>)-3-(Aminomethyl)-4,5-dimethylhexanoic acid",
    "duplicated_cas_no": "",
    "SMILES": "[C@H]([C@@H](C(C)C)C)(CC(O)=O)CN",
    "meta_data": {
        "InChI": "InChI=1S/C9H19NO2/c1-6(2)7(3)8(5-10)4-9(11)12/h6-8H,4-5,10H2,1-3H3,(H,11,12)/t7-,8+/m1/s1",
        "InChIKey": null,
        "Canonical SMILES": "O=C(O)CC(CN)C(C)C(C)C",
        "Molecular Formula": "C<sub>9</sub>H<sub>19</sub>NO<sub>2</sub>",
        "Molecular Mass": "173.25",
        "Melting Point": "163-165 °C"
    }
}