{
    "cas_no": "17587-33-6",
    "key_name": "(<em>E</em>,<em>E</em>)-2,6-Nonadienal",
    "cn_name": "反-2,6-壬二醛;反式-2,6-壬二醛;C2H5CH=CHCH2CH2CH=CHCHO;",
    "alternate_name": "2,6-Nonadienal, (2<em>E</em>,6<em>E</em>)-;2,6-Nonadienal, (<em>E</em>,<em>E</em>)-;2,6-Nonadienal, <em>trans</em>,<em>trans</em>-;(2<em>E</em>,6<em>E</em>)-2,6-Nonadienal;<em>trans</em>-2-<em>trans</em>-6-Nonadienal;2-<em>trans</em>-6-<em>trans</em>-Nonadienal;(<em>E</em>,<em>E</em>)-2,6-Nonadienal;(2<em>E</em>,6<em>E</em>)-Nonadienal;<em>trans</em>,<em>trans</em>-2,6-Nonadienal",
    "duplicated_cas_no": "",
    "SMILES": "C(C/C=C/C=O)/C=C/CC",
    "meta_data": {
        "InChI": "InChI=1S/C9H14O/c1-2-3-4-5-6-7-8-9-10/h3-4,7-9H,2,5-6H2,1H3/b4-3+,8-7+",
        "InChIKey": null,
        "Canonical SMILES": "O=CC=CCCC=CCC",
        "Molecular Formula": "C<sub>9</sub>H<sub>14</sub>O",
        "Molecular Mass": "138.21",
        "Boiling Point": "88-89 °C @ Press: 10 Torr",
        "Density": "0.8705 g/cm³ @ Temp: 20 °C"
    }
}