{
    "cas_no": "3240-94-6",
    "key_name": "4-(2-Chloroethyl)morpholine",
    "cn_name": "4-(2-氯乙基)吗啉;",
    "alternate_name": "Morpholine, 4-(2-chloroethyl)-;4-(2-Chloroethyl)morpholine;<em>N</em>-(2-Chloroethyl)morpholine;Morpholinoethyl chloride;β-Morpholinoethyl chloride;2-Morpholinoethyl chloride;2-Morpholino-1-chloroethane;β-Chloroethylmorpholine;1-Chloro-2-morpholinoethane;2-(4-Morpholinyl)ethyl chloride;1-Morpholino-2-chloroethane;<em>N</em>-(Chloroethyl)morpholine",
    "duplicated_cas_no": "",
    "SMILES": "C(CCl)N1CCOCC1",
    "meta_data": {
        "InChI": "InChI=1S/C6H12ClNO/c7-1-2-8-3-5-9-6-4-8/h1-6H2",
        "InChIKey": null,
        "Canonical SMILES": "ClCCN1CCOCC1",
        "Molecular Formula": "C<sub>6</sub>H<sub>12</sub>ClNO",
        "Molecular Mass": "149.62",
        "Boiling Point": "93-94 °C @ Press: 12 Torr"
    }
}