{
    "cas_no": "32917-52-5",
    "key_name": "α,2,5-Trimethylbenzenemethanol",
    "cn_name": null,
    "alternate_name": "Benzenemethanol, α,2,5-trimethyl-;Benzyl alcohol, α,2,5-trimethyl-;α,2,5-Trimethylbenzenemethanol;1-(2,5-Dimethylphenyl)ethanol;α,2,5-Trimethylbenzyl alcohol;2,5-Dimethylphenyl-methyl-carbinol;1-(2,5-Dimethylphenyl)ethan-1-ol",
    "duplicated_cas_no": "",
    "SMILES": "C(C)(O)C1=C(C)C=CC(C)=C1",
    "meta_data": {
        "InChI": "InChI=1S/C10H14O/c1-7-4-5-8(2)10(6-7)9(3)11/h4-6,9,11H,1-3H3",
        "InChIKey": null,
        "Canonical SMILES": "OC(C1=CC(=CC=C1C)C)C",
        "Molecular Formula": "C<sub>10</sub>H<sub>14</sub>O",
        "Molecular Mass": "150.22",
        "Boiling Point": "93-94 °C @ Press: 4 Torr",
        "Density": "0.987 g/cm³ @ Temp: 25 °C"
    }
}