{
    "cas_no": "66-83-1",
    "key_name": "Mexamine",
    "cn_name": "5-甲氧基色胺盐酸盐;",
    "alternate_name": "1<em>H</em>-Indole-3-ethanamine, 5-methoxy-, hydrochloride (1:1);Indole, 3-(2-aminoethyl)-5-methoxy-, monohydrochloride;1<em>H</em>-Indole-3-ethanamine, 5-methoxy-, monohydrochloride;5-Methoxytryptamine monohydrochloride;Mexamine;Mexamin;5-Methoxytryptamine chloride;1H-Indole-3-ethanamine 5-methoxy-, hydrochloride (1:1);2-(5-Methoxy-1<em>H</em>-indol-3-yl)ethylamine hydrochloride;2-(5-Methoxy-1<em>H</em>-indol-3-yl)ethan-1-aminium chloride;2-(5-Methoxy-1<em>H</em>-indol-3-yl)ethanamine hydrochloride;5-methoxytryptammonium chloride;2-(5-Methoxy-1<em>H</em>-indol-3-yl)ethan-1-amine hydrochloride",
    "duplicated_cas_no": "",
    "SMILES": "C(CN)C=1C=2C(NC1)=CC=C(OC)C2.Cl",
    "meta_data": {
        "InChI": "InChI=1S/C11H14N2O.ClH/c1-14-9-2-3-11-10(6-9)8(4-5-12)7-13-11;/h2-3,6-7,13H,4-5,12H2,1H3;1H",
        "InChIKey": null,
        "Canonical SMILES": "Cl.O(C=1C=CC=2NC=C(C2C1)CCN)C",
        "Molecular Formula": "C<sub>11</sub>H<sub>14</sub>N<sub>2</sub>O.ClH",
        "Molecular Mass": "",
        "Melting Point": "239-240 °C"
    }
}