{
    "cas_no": "459-80-3",
    "key_name": "Geranic acid",
    "cn_name": "3,7-二甲基-2,6-辛二烯酸;香叶酸;",
    "alternate_name": "2,6-Octadienoic acid, 3,7-dimethyl-;Geranic acid;3,7-Dimethyl-2,6-octadienoic acid;NSC 229335",
    "duplicated_cas_no": "",
    "SMILES": "C(CCC=C(C)C)(=CC(O)=O)C",
    "meta_data": {
        "InChI": "InChI=1S/C10H16O2/c1-8(2)5-4-6-9(3)7-10(11)12/h5,7H,4,6H2,1-3H3,(H,11,12)",
        "InChIKey": null,
        "Canonical SMILES": "O=C(O)C=C(C)CCC=C(C)C",
        "Molecular Formula": "C<sub>10</sub>H<sub>16</sub>O<sub>2</sub>",
        "Molecular Mass": "168.23",
        "Boiling Point": "118-120 °C @ Press: 0.1 Torr",
        "Melting Point": "185-186 °C (decomp)",
        "Density": "1.10 g/cm³"
    }
}