{
    "cas_no": "540-37-4",
    "key_name": "4-Iodoaniline",
    "cn_name": "对碘苯胺;",
    "alternate_name": "Benzenamine, 4-iodo-;Aniline, <em>p</em>-iodo-;4-Iodobenzenamine;<em>p</em>-Iodoaniline;4-Iodoaniline;<em>p</em>-Aminophenyl iodide;4-Iodophenylamine;1-Iodo-4-aminobenzene;<em>p</em>-Aminoiodobenzene;NSC 9246;4-Iodobenzeneamine;1-Amino-4-iodobenzene;4-Aminoiodobenzene;Iodo-4-aminobenzene",
    "duplicated_cas_no": "62751-12-6",
    "SMILES": "IC1=CC=C(N)C=C1",
    "meta_data": {
        "InChI": "InChI=1S/C6H6IN/c7-5-1-3-6(8)4-2-5/h1-4H,8H2",
        "InChIKey": null,
        "Canonical SMILES": "IC1=CC=C(N)C=C1",
        "Molecular Formula": "C<sub>6</sub>H<sub>6</sub>IN",
        "Molecular Mass": "219.02",
        "Melting Point": "67.5 °C",
        "Density": "1.71 g/cm³"
    }
}