{
    "cas_no": "764-01-2",
    "key_name": "2-Butyn-1-ol",
    "cn_name": "2-丁炔-1-醇;",
    "alternate_name": "2-Butyn-1-ol;2-Butynol;2-Butynyl alcohol;1-Hydroxybut-2-yne;NSC 222371;3-Methylprop-2-yn-1-ol",
    "duplicated_cas_no": "",
    "SMILES": "C(#CC)CO",
    "meta_data": {
        "InChI": "InChI=1S/C4H6O/c1-2-3-4-5/h5H,4H2,1H3",
        "InChIKey": null,
        "Canonical SMILES": "OCC#CC",
        "Molecular Formula": "C<sub>4</sub>H<sub>6</sub>O",
        "Molecular Mass": "70.09",
        "Boiling Point": "148 °C",
        "Melting Point": "-2.2 °C",
        "Density": "0.958 g/cm³ @ Temp: 21 °C"
    }
}