{
    "cas_no": "57444-62-9",
    "key_name": "Resiniferatoxin",
    "cn_name": "RESINIFERATOXIN;",
    "alternate_name": "Benzeneacetic acid, 4-hydroxy-3-methoxy-, [(2<em>S</em>,3a<em>R</em>,3b<em>S</em>,6a<em>R</em>,9a<em>R</em>,9b<em>R</em>,10<em>R</em>,11a<em>R</em>)-3a,3b,6,6a,9a,10,11,11a-octahydro-6a-hydroxy-8,10-dimethyl-11a-(1-methylethenyl)-7-oxo-2-(phenylmethyl)-7<em>H</em>-2,9b-epoxyazuleno[5,4-<em>e</em>]-1,3-benzodioxol-5-yl]methyl ester;Daphnetoxin, 6,7-deepoxy-6,7-didehydro-5-deoxy-21-dephenyl-21-(phenylmethyl)-, 20-(4-hydroxy-3-methoxybenzeneacetate);Benzeneacetic acid, 4-hydroxy-3-methoxy-, [3a,3b,6,6a,9a,10,11,11a-octahydro-6a-hydroxy-8,10-dimethyl-11a-(1-methylethenyl)-7-oxo-2-(phenylmethyl)-7<em>H</em>-2,9b-epoxyazuleno[5,4-<em>e</em>]-1,3-benzodioxol-5-yl]methyl ester, [2<em>S</em>-(2α,3aβ,3bβ,6aβ,9aα,9bα,10α,11aβ)]-;Resiniferatoxin;(+)-Resiniferatoxin;RTX;[(2<em>S</em>,3a<em>R</em>,3b<em>S</em>,6a<em>R</em>,9a<em>R</em>,9b<em>R</em>,10<em>R</em>,11a<em>R</em>)-2-benzyl-6a-hydroxy-8,10-dimethyl-11a-(prop-1-en-2-yl)-7-oxo-3a,6,6a,7,9a,10,11,11a-octahydro-3b<em>H</em>-2,9b-epoxyazuleno[5,4-<em>e</em>]-1,3-benzodioxol-5-yl]methyl 2-(4-hydroxy-3-methoxyphenyl)acetate",
    "duplicated_cas_no": "",
    "SMILES": "C[C@H]1[C@]23[C@]([C@@]4([C@](C(C)=C)(C1)O[C@](CC5=CC=CC=C5)(O2)O4)[H])(C=C(COC(CC6=CC(OC)=C(O)C=C6)=O)C[C@@]7(O)[C@]3(C=C(C)C7=O)[H])[H]",
    "meta_data": {
        "InChI": "InChI=1S/C37H40O9/c1-21(2)35-17-23(4)37-27(33(35)44-36(45-35,46-37)19-24-9-7-6-8-10-24)14-26(18-34(41)30(37)13-22(3)32(34)40)20-43-31(39)16-25-11-12-28(38)29(15-25)42-5/h6-15,23,27,30,33,38,41H,1,16-20H2,2-5H3/t23-,27+,30-,33-,34-,35-,36-,37-/m1/s1",
        "InChIKey": null,
        "Canonical SMILES": "O=C(OCC1=CC2C3OC4(OC3(C(=C)C)CC(C)C2(O4)C5C=C(C(=O)C5(O)C1)C)CC=6C=CC=CC6)CC7=CC=C(O)C(OC)=C7",
        "Molecular Formula": "C<sub>37</sub>H<sub>40</sub>O<sub>9</sub>",
        "Molecular Mass": "628.71",
        "Melting Point": "64-67 °C"
    }
}