{
    "cas_no": "1485-07-0",
    "key_name": "2-Naphthaleneethanol",
    "cn_name": "2-萘乙醇;beta-萘乙醇;",
    "alternate_name": "2-Naphthaleneethanol;2-(2-Naphthyl)ethanol;2-β-Naphthylethanol;2-(2-Hydroxyethyl)naphthalene;2-(2-Naphthyl)ethyl alcohol;2-Naphthalen-2-ylethanol;NSC 21040;2-Naphthyl ethanol;2-(Naphthalen-2-yl)ethan-1-ol",
    "duplicated_cas_no": "",
    "SMILES": "C(CO)C1=CC2=C(C=C1)C=CC=C2",
    "meta_data": {
        "InChI": "InChI=1S/C12H12O/c13-8-7-10-5-6-11-3-1-2-4-12(11)9-10/h1-6,9,13H,7-8H2",
        "InChIKey": null,
        "Canonical SMILES": "OCCC=1C=CC=2C=CC=CC2C1",
        "Molecular Formula": "C<sub>12</sub>H<sub>12</sub>O",
        "Molecular Mass": "172.22",
        "Melting Point": "67 °C"
    }
}