{
    "cas_no": "615-83-8",
    "key_name": "Pentanoic acid, 2-bromo-, ethyl ester",
    "cn_name": "2-溴戊酸乙酯;",
    "alternate_name": "Pentanoic acid, 2-bromo-, ethyl ester;Valeric acid, 2-bromo-, ethyl ester;Ethyl α-bromovalerate;2-Bromovaleric acid ethyl ester;Ethyl 2-bromopentanoate;Ethyl 2-bromovalerate;2-Bromopentanoic acid ethyl ester;NSC 8865",
    "duplicated_cas_no": "79584-43-3",
    "SMILES": "C(C(OCC)=O)(CCC)Br",
    "meta_data": {
        "InChI": "InChI=1S/C7H13BrO2/c1-3-5-6(8)7(9)10-4-2/h6H,3-5H2,1-2H3",
        "InChIKey": null,
        "Canonical SMILES": "O=C(OCC)C(Br)CCC",
        "Molecular Formula": "C<sub>7</sub>H<sub>13</sub>BrO<sub>2</sub>",
        "Molecular Mass": "209.08",
        "Boiling Point": "191 °C"
    }
}