{
    "cas_no": "3541-42-2",
    "key_name": "2-Hydroxycinnamaldehyde",
    "cn_name": null,
    "alternate_name": "2-Propenal, 3-(2-hydroxyphenyl)-;Cinnamaldehyde, <em>o</em>-hydroxy-;3-(2-Hydroxyphenyl)-2-propenal;<em>o</em>-Hydroxycinnamaldehyde;2-Hydroxycinnamic aldehyde;2-Hydroxycinnamaldehyde;NSC 114588;3-(2-Hydroxyphenyl)acrylaldehyde",
    "duplicated_cas_no": "",
    "SMILES": "C(=CC=O)C1=C(O)C=CC=C1",
    "meta_data": {
        "InChI": "InChI=1S/C9H8O2/c10-7-3-5-8-4-1-2-6-9(8)11/h1-7,11H",
        "InChIKey": null,
        "Canonical SMILES": "O=CC=CC=1C=CC=CC1O",
        "Molecular Formula": "C<sub>9</sub>H<sub>8</sub>O<sub>2</sub>",
        "Molecular Mass": "148.16",
        "Melting Point": "133 °C"
    }
}