{
    "cas_no": "38646-68-3",
    "key_name": "Piperidine, 4,4-dimethyl-, hydrochloride (1:1)",
    "cn_name": null,
    "alternate_name": "Piperidine, 4,4-dimethyl-, hydrochloride (1:1);Piperidine, 4,4-dimethyl-, hydrochloride;4,4-Dimethylpiperidine hydrochloride",
    "duplicated_cas_no": "",
    "SMILES": "CC1(C)CCNCC1.Cl",
    "meta_data": {
        "InChI": "InChI=1S/C7H15N.ClH/c1-7(2)3-5-8-6-4-7;/h8H,3-6H2,1-2H3;1H",
        "InChIKey": null,
        "Canonical SMILES": "Cl.N1CCC(C)(C)CC1",
        "Molecular Formula": "C<sub>7</sub>H<sub>15</sub>N.ClH",
        "Molecular Mass": "",
        "Melting Point": "227-228 °C"
    }
}