{
    "cas_no": "883-62-5",
    "key_name": "3-Methoxy-2-naphthoic acid",
    "cn_name": "3-甲氧基-2-萘甲酸;3-甲氧基-2-萘甲酸;",
    "alternate_name": "2-Naphthalenecarboxylic acid, 3-methoxy-;2-Naphthoic acid, 3-methoxy-;3-Methoxy-2-naphthalenecarboxylic acid;3-Methoxy-2-naphthoic acid;2-Methoxy-3-naphthoic acid;NSC 36216",
    "duplicated_cas_no": "",
    "SMILES": "C(O)(=O)C=1C(OC)=CC2=C(C1)C=CC=C2",
    "meta_data": {
        "InChI": "InChI=1S/C12H10O3/c1-15-11-7-9-5-3-2-4-8(9)6-10(11)12(13)14/h2-7H,1H3,(H,13,14)",
        "InChIKey": null,
        "Canonical SMILES": "O=C(O)C1=CC=2C=CC=CC2C=C1OC",
        "Molecular Formula": "C<sub>12</sub>H<sub>10</sub>O<sub>3</sub>",
        "Molecular Mass": "202.21",
        "Melting Point": "133-134 °C"
    }
}