{
    "cas_no": "532-12-7",
    "key_name": "Myosmine",
    "cn_name": "麦斯明;米喔斯明;麦司明;",
    "alternate_name": "Pyridine, 3-(3,4-dihydro-2<em>H</em>-pyrrol-5-yl)-;Pyridine, 3-(1-pyrrolin-2-yl)-;3-(3,4-Dihydro-2<em>H</em>-pyrrol-5-yl)pyridine;Myosmine;2-(3-Pyridyl)-1-pyrroline",
    "duplicated_cas_no": "",
    "SMILES": "C=1(CCCN1)C=2C=CC=NC2",
    "meta_data": {
        "InChI": "InChI=1S/C9H10N2/c1-3-8(7-10-5-1)9-4-2-6-11-9/h1,3,5,7H,2,4,6H2",
        "InChIKey": null,
        "Canonical SMILES": "N=1C=CC=C(C1)C2=NCCC2",
        "Molecular Formula": "C<sub>9</sub>H<sub>10</sub>N<sub>2</sub>",
        "Molecular Mass": "146.19",
        "Boiling Point": "125 °C @ Press: 8 Torr",
        "Melting Point": "42-43 °C"
    }
}