{
    "cas_no": "9011-14-7",
    "key_name": "Poly(methyl methacrylate)",
    "cn_name": null,
    "alternate_name": "2-Propenoic acid, 2-methyl-, methyl ester, homopolymer;Methacrylic acid methyl ester, polymers;Methacrylic acid, Me ester, homopolymer;Crinothene;Methyl methacrylate polymer;Altulor M 70;Elvacite 2041;Superacryl AE;Poly(methyl methacrylate);Rhoplex B 85;Methyl methacrylate resin;LSO-M 4B;A 21LV;Superacryl O;Perspex;Pontalite;Kallodent 222;Organic glass E 2;PMMA;Torex G;Lucite;Lucite 129;Acrypet V;Degalan S 85;Elvacite 2009;LPT 1;LPT;Methyl methacrylate homopolymer;Repairsin;Resarit 4000;Riston;Shinkolite;SO 120;SO 95;SOL 90;SOL;Sumipex LO;Sumipex MHO;Sumipex B-MHD;Tensol 7;Vedril 5;50N;Acryloid A 15;Disapol M;Plexigum M 920;Elvacite 2010;SOL 95;Acronal S 320D;Vedril 8;Metaplex 4002T;Kallodent clear;Stellon pink;LSO-M;Lucite 180;Acrypet M 001;Sumipex B-LG;Diakon MG;Lucite 47;Diakon MG 101;Plex 8572F;Elvacite 6012;PMMA-A;Diakon;MH 101-2;Metaplex NO;Parapet 60N;Paraplex P 543;Paraplex P 681;AO 120;SO 140;DV 400;Palacos;CMW Bone Cement;Surgical Simplex;Lucite 147;Lucite 140;Lucite 120;Kallocryl K;Osteobond Surgical Bone Cement;Osteobond;Elvacite 6011;Delpet 50M;50N (polymer);Diakon LO 951;Elvacite 2021;Elvacite 2008;Degalan LP 59/03;Vedril;Zimmer Bone Cement;V 920/100;Esschem 12;Akronil;Altuglas 8000;Acrylite H 12;Diakon S;Plexigum 7N;Lucite 202X;Imperplex;Elvacite 290;V (811)-100;Surgical Simplex Bone Cement;Superacryl;Akrylon;Diakon M 0900;Acrylub 101;Acrylub 102;Metaplex;Diakon MH 253;Sumipex 000 clear;Sumipex B-MHO;Sumipex B-LO;NeoCryl NH 20;Dianal BR 60;Dakril Ch;Degalan G 7E;Sol Ch;Dakril 2MO;Homolite 100;Sumipex B-MMO;Metaplex SC;Lucite 4F;Orthofil;Piacryl;Perspex 3042;Perspex 4034;Cranioplast;Dianal BR 85;Altuglas M 70;Plextol M 600;Plexiglas G;Dakril 6;Polycast (acrylic polymer);Polycast;Torex G 1;EPMF 1;XXL 15;Altuglas;Resarit KOX 125;Acrylite S 001;Umaplex;Sumipex B-MHG;Plexit 60;Plex 8664;Acrylite S;Plexiglas GS 233;Plexidur 907;Plexit M 69;Vedril 9D;M 90;P 701 (homopolymer);P 701;Diakon MH 254;Acrylite AR;Degalan V 26;M 5561;OEBR 1000;Plexiglas II-UVA;Acrivue;Acryloid A 102;Acryfix;Technovit 4004;Technovit 4071;Sampl-Kwick;Xetex 600;Xetex 700;Xetex 701;Xetex 800;Plastik-Kit;Acrylite L;Acron;New Lucicone;Quick Acron;Implast;Plexiglas 222;Metablen P 530;Plexiglas GS;PVS-H;Zimmer LVC;Parapet HR;Parapet GF 1000;Primal B 85;B 85;ST 1 (acrylic polymer);ST 1;Delpet 50N;Metablen F 410;Pyroplast;Durodent;Plexiglas V 062;Waloplast PMMA;Asterite;Plexiglas V 052;Metablen P 530E;Diakon CM-G 302;Plexiglas 920;Sumipex LC 2;LS 123;Plexiglas V 811-100;Dianal BR 88;Eastman 6041;CP 81;PT 64;MP 1000;Acrylite MR;Elvacite 4025;Degalan G 8;Acrylite E 001;Plexigum M 914;Visconyl PMS;Kallocryl NX;Plexiglas V 811;Diakon MG 2;BXX 4720;ASC 08;AS 08;PL 25;Swedlow 350;Oroglas 55;Acrylite FF;Vedril 9K;Vedril 18V;NeoCryl B 728;NeoCryl B 1042;Kralix S;Mecaprex KM;Sumipex SC 2;Sumipex E 000;T 10-10;Acrylar 2416;Plexigum 5N;Plexigum 6H;Pearlcomb M 80;Acryloid A 21;Paraloid A 21;Degalan LP 50/09;OCF-RP 775;Plexiglas ZK 20;P 1330;Altufix P 103;Sumipex B-MH;D 250M;Plexiglas V 044;Plexiglas 3-1581;Degalan 7E;PD 2713;MC 1;MC 6;Biolon;Acryloid A 101;Paraloid A 101;Acrypet VH 60;PMMK;Altulite 2774;ME 3100;SD 95;BR 85;Plexiglas 201;Microsphere M 100;Parapet EH 1500;Plexidon M 449;Plexidon M 489;Plexidon M 527;M 2000;PH 91;Sumipex White 068;Parapet G;Parapet EH 1000;PH 93;Stellon RR;Parapet HR 1000P;SOK 011;SOK 111;SOK 101.5;SOK 131.5;SOZ 122;SOZ 123;SOZ 132;SOZ 063;Callocryl;Techpolymer MB 8;E 2;Sumipex B;BR 88;Wearless Acrylic Teeth;F 1000B;Dynoadd P 530;Diakon CMH 454;Sumipex B-MHOG;Parapet F 1000B;Sumipex B-EX;Sumipex B-LG 6;De Trey RR;EL 2041;MP 2000 (acrylic polymer);MP 2000;H 12;M 90-04;Ruminasu TB 1000;Ruminasu TB 500;Ruminasu FB 1000;GS 233;SC 462;Degalan G 6;MB 8;Metablen P 550;Sumipex B-LO 6;GS 218;Techpolymer MB 100;H 1000B;Plexiglas Y 8N;Plexiglas Y 7N;MC 8;MSC 14;Diakon MO 900;GS 214;Plexiglas MG;Acry Sirup DR 510;SCX 611;NeoCryl B 735;1000L;Plexiglas V;Acrypol 932HR;1000L (methacrylic polymer);Acrypol 876G;MP 2701;Radix RN 15;Sol Ch (acrylic polymer);Microgel P 5002;Microgel SEP 1;Sumipex MH;Epostar MA;PD 2774;BA 40;BR 60;E 2 (methacrylate polymer);Plexiglas GS 218;Acrylite 001;TOSP;Plex 8704;GI 633;Taftic A 166;Plexiglas 5N;Geon R 20;MP 1400;Acrypet VHF;MR 7G;Parapet HR 1000;Perspex CQ/UV;Shinkolite HBS 001;Delpet 560F;PRD 41;Acrylite GP;Oroglas V 052;Techpolymer MBP;IRD 1;Smipex LO;NeoCryl BT 48;Super Enuka;Vedril 7;Acry Sirup SY 102;Degalan 7;Degalan 6;Degalan 6E;Plexiglas 6H;Plexiglas 8N;Diakon CMH 454L;Rhoplex latex B 85;Elvacite 2140;P 5002;Elvacite 2051;HFI 10;Acrypet HBX 189;Hipet HBX 189;Acrypet VA;Sumipex MHF;Acrypet VHK;Acrylite 240;Acryplen HBS 001;Jurymer MB-S;Hipearl M 4003;Oraglas VO 52;Oroglas V 825;Epostar MA 1010;Shinkolite A;Rebaron;Taftic AR 650L;MR 60G;HFJ 10;Vicalon;Degalan G 7;Diakon TD 542;Jurymer MB 10X;Acrylite HR;Plexidon M 727;Acry Sirup SY 430;Sumipex LO 2;Sumikaclean ED;Microgel E 2002;SY 430;Finepearl PM 3050;Finepearl PM 3030;Parapet GF;Geon F 320;Acrylite H 15-003;VH 1;F 320;Sumipex LG 6;Sumipex HTO 13B;Sumipex MM;Hipearl HPA;Techpolymer BM 20;MBP 3;Scotchlite Electronic Cuttable Film 1170;Scotchlite 1170;Lucky IG 840;Sumipex 000;Parapet HR 1000N;Techpolymer MBP 5;Plexiglas Y 7H;Plexiglas VO 44;Homolite;XT 20070;Sumipex MHG;Lucite L;Acrypet IR-VH;NeoCryl B 811;Plexiglas XT 20070;Sumipex LG 6A;Effcoat B 45;Plexiglas 20070FF;Plexiglas GS 2458;Acrylite EX;Altuglas 9DFG;Polybase IJ;Y 7N-ZK6A;Acrypet IRS 404;GR 5P;Diakon CMG 001;Acrypet TF;MB 20X5;Sumipex L 06;Acrycon ACPI;Acry Sirup SY 102C;CP 82;M 90 (acrylic polymer);Microsphere M 306;CMW 1;CMW 2;CMW 3;MP 1100;MBP 5;Dianal BR 55;Metaplex SO;MX 10;BR 78;Sumipex LO 6;DWS 709-1;V 825;Techpolymer MB 20X5;Lucryl G 66Q14;Degalan P 6;MHO;Plexiglas GS 201;Acrylite VH;Plexiglas V 502;Geon F 325;F 325;Acrypet 001S;Plexiglas GS 222;LG 6;Zimmer Low Viscosity;Elvacite 2020;Jurymer MB 1;SRM 1487;MX 500KS;8N;MD 001;Hipet HBS 001;RT 030;Paraglas PGP 405;HBS 001;Corian N;Plex 4913D;MX 1500;Thermolac LP 45M;Perspex CP 80;Diakon DA 100;DA 100;Agomet U 4;CP 51;S 10-001;GF 1000;CP 51 (acrylic polymer);Carboset 1034;Chemisnow MP 2200;Plexiglas V 825;Dakril 2;GS 279;Lucite 2041;Elvacon 10071;Sumipex K 503;Thermolac M 1002B;M 1002B;Parapet EB;Sumipex ME;Dianal BR 87;Altuglas GR 9E;Jurymer MB 20X;MX 100;Acrypet TF 3;MX 100 (acrylic polymer);MP 2700M;560F;MP 1450;Sumipex EXA;Acrypet VM;Plexiglas V 826;V 826;MHGA;Aropol Q 701C;CAT 037B;Sumipex BLG 6A;LG 6A;Perspex CP 924;Plexiglas V 045;Acrylite LN 084;Colacryl DP 300;Delaglas;Delaglas K;Acrypet SVK;Sumipex HT 013E;Jurymer MB 1P;Lucryl G 86;BR 87;Parapet SH-N;Nippe Microgel RCP 7;100B;Sumipex E;Techpolymer MB 05;Plexiglas DRG;Rikabond ES 90;Rikabond ES 63;Rikabond ES 52;MR 20G;Soken MR 20G;Oroglas V 826;MB 3002;CP 71;UY 55SB;821T;BK 1.0F;Plexiglas V 826-100;MX 100α;FR-M 1P;Plexiglas VQ 101S;Acrylite OP 4;Acryace E;Parapet H 1000B;Thermolac M 2000;Techpolymer MST 0530A;Oroglas DRT;Oroglas HFI 10;GC Rebaron;Acrypet IR-G 504;Altuglas BS 9EL;Oroglas V 045;Altuglas 20010;MP 300;V 826-100;Parapet GH 1000S;GH 1000S;Techpolymer MBX 2AB;Lucite 2008;Plexiglas V 825-100;Altuglas GR 5;IRD 2;Chemisnow MX 220;Delpet SR 8000;SD 004;BR 100;Dianal BR 100;MP 116 Fines;Sumipex LG 21;PM 5K;Cerim LT;Cemex Isoplastic;Zimmer DT;CMW 1 Original;Zimmer Dough Type;Lucryl G 77E;CMW Type I;Parapet GH-S;Sumipex ME-A;Cemex System;Plexiglas 814;T 111B26;Acrypet VR;V 045;V 052;Plexiglas VO 52;CP 75UVA;CP 71UVA;Parapet HR 1000S;GR-F 5;HR 1000S;Acrypet UT 100;UT 100;T 10-10 (acrylic polymer);Simplex B;MP 1201;P 511A;Dianal BR 84;Parapet GC 1000;Lucryl G 87e;Acrybase 24;E 011;BTA 101;Hipearl M 4005;Art Resin M 4005;MG 5;Parapet GR;Delpowder 60N;MH 101-5;Oroglas VM;Plexus AO 425;ES 52;GR (graft copolymer);Sumipex SA;LX 040;Techpolymer EAX Color;Microsphere S 102;S 102;Bestsvetnaya;Acryrex CM 207;Plexiglas VS;Plexiglas HFI 10;D 250ML;Amatis;Ultra-quartz;Plexiglas VA 26-100;PL 25 (acrylic polymer);Acrypet VF;Microsphere M 101;Klirit;Grip Coat C 180;Lucryl KR 2006/1;ME 303-050;HF 870;Plexiglas XT Resist 21;Plexiglas XT Resist 31;Plexiglas XT Resist 41;Plexiglas SDP 16;Arteplast;Artecoll;PS 101A;Siflex 4;Flex 60;CeeOn 740P;Acrypet MD 50;Ganz Pearl G 0810;Plexiglas G 8E;IH 830;MR 20;Parapet LW 1000P;MR 20 (acrylic polymer);Plexiglas Glasklar 7N;Sumipex HT 51Y;VQ 105;Acrypet TF 8;J 899;Parapet LW 1000;Acrypet G;AC 050S;XX 05AC;PL 150;MB 100;Lucryl KR 2015;Decosilk Art;Chemisnow MP 1000;Chemisnow MP 1400;IF 850;A 5.5;Techpolymer BM 50;Chemisnow MR 20G;Acrypol P 8015;P 8015;MP 2200;Oroglas 9EL;Rhohadon M 449;BM 310;Degalan BM 310;CSX 500;V 920A;Ganz Pearl GM 2000;Ganz Pearl GM 0800S;Ganz Pearl GM 0600;PS 30 (acrylic polymer);Geon F 360;F 360;PS 30;Spacer-G;Techpolymer MB 12C;MB 12C;MA 1010;Plexiglas PSR 9;Sunduren SD 002AN;Parapet LW 500;LW 500;Sunduren SD 004;AC 956;CP 80 Clear;MXB 5W;Techpolymer MBX 5B;Oroglas VOD 100;Plexiglas VOD 100;Chemisnow MP 300;Degalan M 825;Plexiglas G 7;Clarex (acrylic polymer);Clarex;Plexiglas 99845;Atoglas V 020;DP 300;Acrypet VHS;Microsphere M;GR 400T;IG 840;1H830;SD 35;CP 61;SD 35 (acrylic polymer);DS 200E;Acrypet VH 101;Epostar MX 050W;Sumipex LG 32;Parapet HR 1000L;Paraglas HR 1000L;HR 1000L;Autoflex;MPB-X 12;Acrypet E;HESA-GLAS;Micropearl M 100;MB 1;BK 1.6U;DQ 501;VOD 100;Akurirusande;Versa-Bond;EH 910;Piacryl SG 90;Art Pearl G 7P;Chemisnow MX 3000;Atoglas V 920T;HT 51YR5;GS 222;MP 116;Acryrex CM 211;Ganzpearl GM 0801;Parapet G 1000P;G 1000P;TN 200;TN 200 (polyester);SA 1000CW001;LP 45M;T 602;Acryrex CM 205;IF 870;OF 104S;Diakon ST 45G8;MGSS;Sumipex MGSS;P 4942;Acrypet VH 5-000;Acrylite XE 001;PMMA 7N;Ganz Pearl GM 0600W;GM 0600W;Perspex CS Black 962;Acrypet MF 001;MF 001;Chemisnow MR 90G;MR 90G;Vedril 09;M 4003;HA;Y 7H;Plexiglas GS-SW;SS 100P;MP 1100 (acrylic polymer);ME 303021;Plexiglas V 415;Plexiglas Sunactive GS;CM 205;Sumipex MG;IRK 304;L-XX 07AA;Acrylite L 001;Gujpol P 876H001;Orthognath;Acryplen Pellet HBS 001;Plexit 55;Plexiglas V 825NA;D 250;D 250 (acrylic polymer);MAX 12;MX 3000;Diakon CMG 314V;Degalan 8744;CM 207;Perspex CP 61a;KC 60BN;Acrypet VH 01;Plexiglas V 045100;B 000;NP 1451;M 503B;GMX 0615;Parapet SA-F;Synolite 8199M1;Sumipex 068;SV 001;ME 303010;Acrypet V 001;Diakon CLH 952T;Technovit 3040;Technolloy S 001;Technolloy S 013;Technolloy S 014;Technolloy HG;Technolloy;Technolloy THG;Technolloy S 003;Altuglas V 920T;Altuglas DR 2T;PSR 9;Plexiglas V 052-100;Plexiglas ZK 5HC;DHAF;V 021;LG 21;Gujpol P 876G;Perspex CP 81;A 3-950K;Parapet G-P;950K-C4;MX 600;MX 800;S 10-100;Acrylite IR;01DH-LE-P;Art Pearl SE 15;YB-MD 3;MX 800S;Acrybase LH 101;S 014;MH-LG 2;DRT 101;Plexiglas XT 20700;Techpolymer MBX 30;MBX 30;Techpolymer MB 12;Palapreg H 850-01;Vivodent;CA 1000;Techpolymer MB 30X15SS;Techpolymer XX 450Z;Paraloid A 14;Acrylite S 10/8N;Degalan M 527;Parapet HR-F 1;CK 40 (acrylic polymer);Oroglas V 852T;CK 40;P 4831MMA;9D;Acrypet VH 5-001;Sumipex ES;K 21;Gellner K 21;IF 870S;K 21 (acrylic polymer);Delpet 540F;GW 1;GW 6;GW 8;PM 1000;Elvacite 4206;Plexiglas 7M;Plexiglas POQ 62;EF 830;Optix;LS 127769JV;Plexiglas Glasklar 6N;Lucite CP;Acrylite OP 1;Perspex CQ;Solacryl 2750;Metacrill;NewPlastic;Acrypet VH 3;LX 015;Plexpol SC;Degalan LP 51/07;Plexiglas 99524;MDYB 3;HP 202;V 020;Altuglas V 825T101;Barlo XT;IH 093B;Acrigel DHLE;Epoch 6125A;Chemisnow MX 1500;Zefiac F 320;L 84;CT 4000;Oroglas MI 2T;Acrypet M;Acrypet M 100;Spheromers CA 15;V 045100;V 150;S 50;S 50 (filler);WF 001;Cosmedia PMMA-V 8;Covabed LH 85;EG 920;VO 44;BG 1.6U;MG 515;MM 50;MM 100;Plexiglas MCM;M 100;Colacryl B 866;VH 5-000;GK 5BR;Immutex NF-PMA;Altuglas V 021C;SB-LL White;Esprix 1451;Thermocules;V 001;HESA Glas VOS;Plexiglas V 920UVT;Zefiac F 325;950K-A6;BG 1.6PQ;HI 7;ABVT 22;HI 7 (polymer);Sumipex HT 25X;Plexiglas 8N Clear;Altuglas VSE-UVT;MP 2701B;F 1801;Lucite CP 81;MX 20E30H;MX 1500HF;Saivinol X 204-936E1;Thermolac LP 45M30;Techpolymer MBP 8HP;M 4006;Lucite CP 1000E;Sunpmma LDX 50;AR-K 100;Plexiglas VH 100NA;MHF;Matsumoto Microsphere M 100;XP 0733;Acrypet VH 6;AR 8000;BPA 500;Ganzpearl GM 1001;E 8559;IH 830LG;Altuglas V 045I;Delpet 940N;TMZQ 210;VHK;Degalan PM 685;Gujpol 876G;Taftic FH-S 008;Perfex;SPP 037D;Sumipex MM 011;Chemisnow MX 100;Acrypet VRL 40-001;Comoglas HI;MP 116CF;CH 1.0N;CH 1.0SX;Sepimat P;Cristal 01DH-ECL;100B (acrylic polymer);Acryplen HEXN 47;950PMMA-C4;LX 40;Acrypet HT 01X;Super-Bond Clear;Sumipex HT 54X;B 728;B 735;Plexiglas GS 0F00 Clear;Plexiglas GS 0F00;S 001;V 040;CM 205X;TS 3SC;Light Ester M homopolymer;Optix CA 1000I;LH 101-10;Acrybase MH 101-10;LH 101;MX 801;Acrypet VHS 001;VHK 000;Plexiglas VM;PMMA 720;PMMA 2000;MH 10FD;CM 211;HP 210;Chemisnow MX 800;Acrylite MD-L 40;Plexiglas Satinice;Matsumoto Microsphere M 306;Viscoplex 1-248;Viscoplex 8-450;MH 15FD;GF 1000G;Kanase Lite 1300 Clear;XX 131AA;CP 51A;Techpolymer MBP 4;Acrylite LN 865;B 811;Plexiglas V 825UVA5A;Sphereomeres CA 30;B 3-1.6A;CP 80;MG 888;Spheromers CA 30;Technolloy S 001G;Plexiglas XT;TP 160;LG 02;MB 20X8;Diakon CLG 902L;CLG 902L;Acrylite 8N;V 825NA;SO 120S;LDX 150;S 120 (acrylic polymer);S 120;Acrybase MH 101-5;IH 930;Altuglas V 40;LG 65;GM 2005;V 825-100;70HS;RT 050;VB 7103;Acrypet VH 000;LG 2;VH 000;Techpolymer MBX-SS;Acryplen HBS 010;Taftic ARS 650S;IF 80;HBS 010;Sunduren SD 015NAH;Plexiglas GS 7F61;Cemex HP;YB 2;YB 2 (acrylic polymer);Acryester M-MMA;S 001G;G 87E;Altuglas VSUVT 100;Plex 8943F;Sumipex EXN;EXN;HRAG;Delpowder 70HS;Pergan PA;CR 205;Altuglas V 150;Altuglas V 040;Degacryl M 527;Degacryl M 546;Techpolymer SSX 103DXE;Degacryl M 449;B 70;IF 805;Plexiglas VM 100M;Plexiglas FM 6N;Acrypet HV;Acryplen HBS 010P;HBS 010P;Diasphere MH 5FD;IH 830B;Kaneace UC 508;Kaneace PA 210;Sumipex E 011;IF 850B;BN 890B;Delpet 70N;MA 830M50;MB 20X10;8589K24;PP 02N9861;MAX 5;Plexiglas 0A000;Anulon 120;MH 117Y;TF 8;TF 9;K 150;G 0500;Viscoplex 1-333;SP 2-037B;CA 945UVA10;Scotchlite Diamond Grade DG 34095;Plaskolite CA 945UVA10;Scotchlite DG 34085;CA 923UVA2;ME 306820;Sunpmma S;Helioplate HD 6;Chemisnow MR 5C;Acron Duo;Plexiglas FT 15;PMMA 85K;Acryplen HBS 006;HBS 006;Altuglas BS 9ELS;Perspex CP 82;Dacryl 61;Altuglas BS 684;M 101;HBS 002;Dianal BR 78;HI 835S;Acryplen HBX-N 47;HBX-N 47;Acrypet TF 9;Acryester M homopolymer;LP 45M30;Poly[1-(methoxycarbonyl)-1-methylethylene];ArtBloc Temp;SHP 470-10;Elvacite 4080;Elvacite 4104;Techpolymer BMSA 18GN;PUA 9012;CP 1000E;MC 60BD;Diasphere MH 5FHD;Decosilk 10;Acrycon AC;EH 1000;Elvacite 2694;Biocryl C;RS 900;RS 900 (acrylic polymer);GM 1001;Technolloy S 014G;Perspex CP 61;Altuglas CN;Clarex S;IRG 304;LX 0253;IRF 404;H 835M;H 855M;Snowleaf C;Degalan 64/12N;Degalan UC 508;V 041;SSX 103DXE;Sunpmma S 50;Degalan M 345;TP 727;Plexalioy PFE 70;Degacryl MW 730;IF 830A;Hisoft X 500;Sphereomers CA Solid;MH 5FD;AC 341-36;AC 341-7;AC 341-13;ZHL 201;ZHL 200;AC 341-1;EMB 457;IH 830C;VH 067A;J 3PY;Matsumoto Microsphere M 503B;Techpolymer MB 4;TF-VH;Parapet HR 100L;Spheromers CA 15-1;CM 207G;HT 25X;Duracryl Self Cure;SX 305;SX 301;SX 309;CA 86;MRN 5HN;Sumipex NH;JH 6602;HY 690;J 592;S 014G;TexMatte 6005;Acrypet MH 011;PW 978B;VXI 248;Plexiglas WH 46SC;IH 830L;HI 835MU;MH 5FHD;Diasphere MH 40FDKP;MH 40FDKP;24120A;VRJ 40;HP 05;MaxiGlas 888;MaxiGlas 515;Acrylite LED 8N-LD96;Azembly NLD 303;P 05;30D54AE;MR 5C;495A8;Parapet SA 1000CW001;M 825;ECL 100;FMA 403;Polycasa G 87E;A 21;Perspex VR-CP 6;Delaglass 999;C 3-495;Perspex Crystalclear S 2;TexMatte 6025;Sumipex Clear 011;Taftic C 12;Technolloy 125S001;Sabic 20HR;Shinkolite MR 200;MR 200;ZK 6HF;Daesang VH 5;Kurarity HI 50-75;XX 52BQ;GH-S;HI 855H;Quinn XT;Parapet EH;ShieldUP;Comoglas DK 3;ME 306020;ME 303031;GS 0407;MX 800T;I-FHC 338;V 100 (acrylic polymer);V 100;BR 84;Optix CA 51;Delpowder 500V;Folie farblos 99524GT;99524GT;CG-P 204;Plexiglas Soundstop GS-CC;Plexiglas LD 96;P 104;HI 855M;Delpet 500V;Delpet 80HD;Sumipex MGSV;DF 23-8N;P 104 (acrylic polymer);Acriplex XT;495PMMAA2;Altuglas MI 2T101;Parapure IT 75;Technolloy S 000;S 000;Matsumoto Microsphere M 101;AR-P 631.04;Agryrex 205;IRG 504;HI 835H;Diakon CLG 902;VM 920;Plexiglas 8N Black 9V022;Covabead PMMA;IH 830A;PMMA 495A2;Matsumoto Microsphere S 102;Diakon CLG 356;Parapet HMH 2;Delpet 60N99140;Lucite Diakon CLG 356;CM 203;CM 209;V 40;Sumipex MH 5;CM 211G;Parapet GH;Plexiglas V 920-100;UVA 20;X 800RG;Clarex 001;Taftic AR 650;HRAG acryl;EH 1000DP;AP 40L;LP 3601;HW 55-9V913;LG 840;8N-DF21;IRD 60;MicroChem 950A4;PMMA 950A4;HI 535;TB 588;Altuglas BS 215;WOO 1AU60;CA 82;AL 500BN;Parapure HI;Orthocryl Sealing Resin 617H21;Orthocryl Resin 617H21;Parapure hydriodide;MRN 8HN;HS 9812;V 825A;SG 805;Spheromer CA 20;Spheromer CA 10;POQ 66;Acryrex CM 211G;MGSV;BA 611;BN 600;DR 66080;LEP 100;Plexiglas P 8N;Orthocryl Resin 617H119;Acrylite MR 200;ZK 6HC;Acrigel AFP 100;Comoglas CG-P;Degalan 5906;Sanzhong 420-300;SA-FFR 201;EL 8115;LPA 5;MicroChem 495A4;HD 01;KM 500;M 0088;NB 80;Rohacryl 55;Plexiglas 8N9V002;Degussa AG Plexiglas;B 44;MAX 200;VT 825;YB 3;YB 3 (acrylic polymer);Technolloy S 001S;HD 03;CM 20 (polymer);HD 03 (acrylic polymer);Bimodal 80NEN;505NAH;Plexiglas RV 825;RS 567;DX 001;MH 40FD;Plexiglas V 825-100G;M 001;Plexiglas XT 0A000;AR-P 672.08;Acrylite 9H01GT;PMR 2 (polyacrylate);PMR 2;SD 015NAH;GP 756;V 040C;Parapet GF-P;VH 5-001;IH 830XT;CO 120C;CO 120A;AO 120C;Plaskolite CA 41;Antalis 014;GM 0801;Parapet EH 1000S;Setacryl 1000;FILA 72;Altuglas V 825T101 Clear;SL 5000;Sabic PMMA 140HF;Sabic 140HF;SX 303;HT 320 (polyacrylate);JCS-P 01;JCS-P 02;HT 320;CN 211;Frosted DR;JG 2020-3-1;XX 160AP;Solarkote H 300;M 449;Ganzpearl GM 0801S;Acrylite SuPure;W 001U80;W 002N80;Polycasa Cast;TN 001;LG-IF 830;G 5065;G 5098;V 180;Vikuglas;ACA 2H;Spheromer CA 6;Parapet HM 1000;Maxiglas MG 845;Maxiglas MG 555;Altuglas BS 510;Technovit 9100;TMR 600;Acrypet VH 5001;TM-R 600;IRS 309;Plexiglas V 045-100;MX 500ML;MP 1441;XX 6666Z;MeSH ID: D019904;ME 306010;PMMA 8803;950K-A4;Altuglass 520L;Altuglass BS 440;Delpet 80NM;Olycox KC 7000F;Altuglas HFI 7;P 914038;KC 7000F;Acryplas HD 04;HD 04;SS 103;IH 830HF;Supure 8N;Acrylite 000;Parapet HM;Acrypet VRS 40-0001;MH 30FD;Acrylite L 100;VH 6;MH 20FD;MH 60FD;MH 80FD;MH 100FD;MX 050W;Acrit 0403KA;Colacryl TS 2050;Lucite 47GI;Optix CA 924;CM 215 (acrylic polymer);CM 215;Sepimat SB;Plexiglas VSUVT 100;80NR;Sumipex HM;VH 5001;8560K172;MR 7GCP;PM 20 (acrylic polymer);M 20",
    "duplicated_cas_no": "9011-73-8;9063-48-3;25038-55-5;37206-27-2;37243-53-1;37260-20-1;37317-20-7;37329-99-0;37348-71-3;37383-74-7;39307-02-3;39307-03-4;39316-50-2;39404-54-1;41354-82-9;41354-83-0;41354-84-1;42617-05-0;51004-99-0;52051-98-6;52254-09-8;53148-92-8;53637-32-4;53663-63-1;53988-85-5;54018-50-7;54242-52-3;55802-92-1;55819-46-0;57455-95-5;57460-14-7;57608-32-9;57829-16-0;57881-75-1;58057-15-1;58968-50-6;58968-51-7;59355-82-7;59519-93-6;61642-69-1;61642-70-4;63454-83-1;67167-42-4;69071-17-6;70226-46-9;70816-47-6;72270-10-1;72394-21-9;72626-03-0;73019-88-2;74239-45-5;74871-03-7;75831-68-4;76559-66-5;77751-16-7;78206-73-2;78207-23-5;78590-85-9;80209-57-0;80619-68-7;83764-37-8;86438-94-0;87210-32-0;88528-61-4;88813-80-3;90092-82-3;90248-99-0;94469-08-6;95567-24-1;95918-30-2;96420-95-0;98825-30-0;99550-36-4;102583-16-4;103220-63-9;105417-82-1;106008-78-0;106440-59-9;110617-09-9;110866-51-8;113041-33-1;113096-36-9;113284-86-9;114512-63-9;114558-18-8;115165-76-9;115190-04-0;115252-35-2;116189-91-4;122463-54-1;122525-41-1;123611-48-3;123897-62-1;124181-99-3;126482-57-3;127120-26-7;128151-87-1;128417-83-4;130123-99-8;130243-03-7;131463-02-0;131831-56-6;132694-62-3;134490-64-5;137012-63-6;138185-30-5;138186-02-4;141911-57-1;143476-91-9;144747-15-9;146909-33-3;148092-40-4;149983-59-5;155123-40-3;155197-46-9;155421-39-9;157090-38-5;158319-04-1;160170-94-5;161740-99-4;161755-86-8;161776-43-8;170905-97-2;170906-20-4;171022-07-4;171040-50-9;171970-80-2;176366-03-3;179530-26-8;183131-10-4;183325-79-3;183868-88-4;189021-27-0;191551-10-7;192464-91-8;195009-31-5;196623-67-3;198292-76-1;201948-33-6;202289-62-1;203526-74-3;203665-52-5;205599-74-2;210823-97-5;212624-68-5;220286-91-9;225105-96-4;245346-80-9;263719-36-4;281223-34-5;288264-32-4;292865-40-8;292865-41-9;296786-06-6;302571-62-6;303190-69-4;304916-25-4;304916-26-5;304916-28-7;308276-89-3;331443-38-0;335316-80-8;359645-67-3;416900-03-3;429685-09-6;444904-47-6;446263-19-0;478957-91-4;483278-40-6;487021-45-4;487021-47-6;487021-48-7;501120-97-4;501645-98-3;627538-96-9;682813-36-1;864969-70-0;865348-93-2;869186-75-4;871813-56-8;887401-03-8;888615-56-3;890935-36-1;890935-37-2;948029-82-1;948310-79-0;952661-37-9;958641-20-8;1044505-99-8;1045710-27-7;1059626-94-6;1093414-48-2;1182269-95-9;1204590-23-7;1235553-02-2;1256366-04-7;1292307-41-5;1307225-98-4;1337906-00-9;1346137-15-2;1350742-95-8;1354782-14-1;1365259-75-1;1403332-00-2;1425464-38-5;1432622-98-4;1459224-03-3;1494678-71-5;1542146-23-5;1613141-49-3;1622251-29-9;1687726-63-1;1884332-11-9;1885120-62-6;1887074-71-6;2047387-31-3;2093331-74-7;2129536-49-6;2227451-09-2;2230584-98-0;2305919-03-1;2376834-73-8;2762227-74-5;2792087-75-1;2925568-36-9;2945829-93-4;3016287-15-0",
    "SMILES": "C(C(C)=C)(OC)=O",
    "meta_data": {
        "InChI": "InChI=1S/C5H8O2/c1-4(2)5(6)7-3/h1H2,2-3H3",
        "InChIKey": null,
        "Canonical SMILES": "O=C(OC)C(=C)C",
        "Molecular Formula": "(C<sub>5</sub>H<sub>8</sub>O<sub>2</sub>)<sub>x</sub>",
        "Molecular Mass": "",
        "Boiling Point": "108 °C",
        "Melting Point": "150 °C",
        "Density": "1.191 g/cm³"
    }
}