{
    "cas_no": "1992-48-9",
    "key_name": "Tetraisopropoxysilane",
    "cn_name": "四(1-甲基乙基)硅酸酯;硅酸异丙酯;",
    "alternate_name": "Silicic acid (H<sub>4</sub>SiO<sub>4</sub>), tetrakis(1-methylethyl) ester;Silicic acid (H<sub>4</sub>SiO<sub>4</sub>), tetraisopropyl ester;Isopropyl silicate ((C<sub>3</sub>H<sub>7</sub>O)<sub>4</sub>Si);Tetraisopropoxysilane;Silicon tetraisopropoxide;Tetrakis(isopropyloxy)silane;Tetraisopropyl orthosilicate;Tetraisopropyl silicate;Silicon isopropoxide;Tetrakis(1-methylethoxy)silane;NSC 252164;TK 217;Isopropyl orthosilicate",
    "duplicated_cas_no": "",
    "SMILES": "[Si](OC(C)C)(OC(C)C)(OC(C)C)OC(C)C",
    "meta_data": {
        "InChI": "InChI=1S/C12H28O4Si/c1-9(2)13-17(14-10(3)4,15-11(5)6)16-12(7)8/h9-12H,1-8H3",
        "InChIKey": null,
        "Canonical SMILES": "O(C(C)C)[Si](OC(C)C)(OC(C)C)OC(C)C",
        "Molecular Formula": "C<sub>12</sub>H<sub>28</sub>O<sub>4</sub>Si",
        "Molecular Mass": "264.43",
        "Boiling Point": "185-186 °C",
        "Melting Point": "146 °C (decomp)",
        "Density": "0.8772 g/cm³"
    }
}