{
    "cas_no": "529-05-5",
    "key_name": "Chamazulene",
    "cn_name": null,
    "alternate_name": "Azulene, 7-ethyl-1,4-dimethyl-;7-Ethyl-1,4-dimethylazulene;Chamazulene;Dimethulene;Camazulene;Chamazulen;Ba 2784;1,4-Dimethyl-7-ethylazulene;Dimethulen",
    "duplicated_cas_no": "",
    "SMILES": "CC=1C=2C(=CC1)C(C)=CC=C(CC)C2",
    "meta_data": {
        "InChI": "InChI=1S/C14H16/c1-4-12-7-5-10(2)13-8-6-11(3)14(13)9-12/h5-9H,4H2,1-3H3",
        "InChIKey": null,
        "Canonical SMILES": "C=1C=C(C2=CC=C(C2=CC1CC)C)C",
        "Molecular Formula": "C<sub>14</sub>H<sub>16</sub>",
        "Molecular Mass": "184.28",
        "Boiling Point": "135-190 °C @ Press: 11 Torr",
        "Melting Point": "&lt;25 °C"
    }
}