{
    "cas_no": "1641-74-3",
    "key_name": "3-Pyridinecarboxylic acid, 2-(diethylamino)ethyl ester, 2-hydroxy-1,2,3-propanetricarboxylate (1:1)",
    "cn_name": "枸橼酸烟胺乙酯;[2-(3-吡啶甲酰氧)乙基]-二乙基胺柠檬酸盐;",
    "alternate_name": "3-Pyridinecarboxylic acid, 2-(diethylamino)ethyl ester, 2-hydroxy-1,2,3-propanetricarboxylate (1:1);Nicotinic acid, 2-(diethylamino)ethyl ester, citrate (1:1);53-11 C;2-Diethylaminoethyl nicotinate citrate;Euclidan;3-Diethylaminoethoxycarbonylpyridine citrate;Provasan;Nicametate dihydrogen citrate;Eucast;Soclidan;Nicametate citrate;Nutrin;NSC 169477;2-(Diethylamino)ethyl nicotinate 2-hydroxypropane-1,2,3-tricarboxylate",
    "duplicated_cas_no": "",
    "SMILES": "C(OCCN(CC)CC)(=O)C=1C=CC=NC1.C(CC(O)=O)(CC(O)=O)(C(O)=O)O",
    "meta_data": {
        "InChI": "InChI=1S/C12H18N2O2.C6H8O7/c1-3-14(4-2)8-9-16-12(15)11-6-5-7-13-10-11;7-3(8)1-6(13,5(11)12)2-4(9)10/h5-7,10H,3-4,8-9H2,1-2H3;13H,1-2H2,(H,7,8)(H,9,10)(H,11,12)",
        "InChIKey": null,
        "Canonical SMILES": "O=C(O)CC(O)(C(=O)O)CC(=O)O.O=C(OCCN(CC)CC)C=1C=NC=CC1",
        "Molecular Formula": "C<sub>12</sub>H<sub>18</sub>N<sub>2</sub>O<sub>2</sub>.C<sub>6</sub>H<sub>8</sub>O<sub>7</sub>",
        "Molecular Mass": "",
        "Melting Point": "123 °C"
    }
}