{
    "cas_no": "27106-51-0",
    "key_name": "1-[(4-Methylphenyl)sulfonyl]piperazine",
    "cn_name": "1-(甲苯-4-磺酰基)哌嗪;",
    "alternate_name": "Piperazine, 1-[(4-methylphenyl)sulfonyl]-;Piperazine, 1-(<em>p</em>-tolylsulfonyl)-;1-[(4-Methylphenyl)sulfonyl]piperazine;<em>N</em>-Toluenesulfonylpiperazine;<em>N</em>-(<em>p</em>-Toluenesulfonyl)piperazine;<em>N</em>-(<em>p</em>-Tolylsulfonyl)piperazine;1-(<em>p</em>-Tolylsulfonyl)piperazine;1-(<em>p</em>-Tosyl)piperazine;1-Tosylpiperazine;1-(4-Methylphenyl)sulfonyl-2,3,5,6-tetrahydropyrazine;1-(Toluene-4-sulfonyl)-piperazine;4-Tosylpiperazine",
    "duplicated_cas_no": "",
    "SMILES": "S(=O)(=O)(C1=CC=C(C)C=C1)N2CCNCC2",
    "meta_data": {
        "InChI": "InChI=1S/C11H16N2O2S/c1-10-2-4-11(5-3-10)16(14,15)13-8-6-12-7-9-13/h2-5,12H,6-9H2,1H3",
        "InChIKey": null,
        "Canonical SMILES": "O=S(=O)(C1=CC=C(C=C1)C)N2CCNCC2",
        "Molecular Formula": "C<sub>11</sub>H<sub>16</sub>N<sub>2</sub>O<sub>2</sub>S",
        "Molecular Mass": "240.32",
        "Melting Point": "110 °C"
    }
}