{
    "cas_no": "460-40-2",
    "key_name": "3,3,3-Trifluoropropanal",
    "cn_name": "3,3,3-三氟丙醛;",
    "alternate_name": "Propanal, 3,3,3-trifluoro-;Propionaldehyde, 3,3,3-trifluoro-;3,3,3-Trifluoropropanal;3,3,3-Trifluoropropionaldehyde",
    "duplicated_cas_no": "",
    "SMILES": "C(C(F)(F)F)C=O",
    "meta_data": {
        "InChI": "InChI=1S/C3H3F3O/c4-3(5,6)1-2-7/h2H,1H2",
        "InChIKey": null,
        "Canonical SMILES": "O=CCC(F)(F)F",
        "Molecular Formula": "C<sub>3</sub>H<sub>3</sub>F<sub>3</sub>O",
        "Molecular Mass": "112.05",
        "Boiling Point": "56-56.5 °C @ Press: 745 Torr",
        "Density": "1.365 g/cm³ @ Temp: 20 °C"
    }
}