{
    "cas_no": "100-29-8",
    "key_name": "<em>p</em>-Nitrophenetole",
    "cn_name": "4-硝基苯乙醚;",
    "alternate_name": "Benzene, 1-ethoxy-4-nitro-;Phenetole, <em>p</em>-nitro-;1-Ethoxy-4-nitrobenzene;<em>p</em>-Nitrophenetole;4-Nitrophenetole;Ethyl <em>p</em>-nitrophenyl ether;<em>p</em>-Ethoxynitrobenzene;4-Ethoxynitrobenzene;4-Nitrophenyl ethyl ether;4-Ethoxy-1-nitrobenzene;<em>p</em>-Nitrobenzene ethyl ether;NSC 9812;Ethyl 4-nitrophenyl ether",
    "duplicated_cas_no": "",
    "SMILES": "N(=O)(=O)C1=CC=C(OCC)C=C1",
    "meta_data": {
        "InChI": "InChI=1S/C8H9NO3/c1-2-12-8-5-3-7(4-6-8)9(10)11/h3-6H,2H2,1H3",
        "InChIKey": null,
        "Canonical SMILES": "O=N(=O)C1=CC=C(OCC)C=C1",
        "Molecular Formula": "C<sub>8</sub>H<sub>9</sub>NO<sub>3</sub>",
        "Molecular Mass": "167.16",
        "Boiling Point": "283 °C",
        "Melting Point": "60 °C",
        "Density": "1.1176 g/cm³ @ Temp: 100 °C"
    }
}