{
    "cas_no": "118-12-7",
    "key_name": "1,3,3-Trimethyl-2-methyleneindoline",
    "cn_name": "1,3,3-三甲基-2-亚甲基吲哚啉;",
    "alternate_name": "1<em>H</em>-Indole, 2,3-dihydro-1,3,3-trimethyl-2-methylene-;Indoline, 1,3,3-trimethyl-2-methylene-;2,3-Dihydro-1,3,3-trimethyl-2-methylene-1<em>H</em>-indole;Fischer base;Fischer's base;1,3,3-Trimethyl-2-methyleneindoline;1,3,3-Trimethyl-2-methylene-2,3-dihydroindole;2-Methylene-1,3,3-trimethylindoline;1,2-Dihydro-1,3,3-trimethyl-2-methyleneindole;2,3-Dihydro-1,3,3-trimethyl-2-methyleneindole;1,3-Dihydro-1,3,3-trimethyl-2-methyleneindoline;Fischer's methylene base;NSC 66176;1,3,3-Trimethyl-2-methylene indolenine;1,3,3-Trimethyl-2-methylidene-2,3-dihydro-1<em>H</em>-indole;1,3,3-Trimethyl-2-methylideneindole",
    "duplicated_cas_no": "",
    "SMILES": "CN1C=2C(C(C)(C)C1=C)=CC=CC2",
    "meta_data": {
        "InChI": "InChI=1S/C12H15N/c1-9-12(2,3)10-7-5-6-8-11(10)13(9)4/h5-8H,1H2,2-4H3",
        "InChIKey": null,
        "Canonical SMILES": "C=C1N(C=2C=CC=CC2C1(C)C)C",
        "Molecular Formula": "C<sub>12</sub>H<sub>15</sub>N",
        "Molecular Mass": "173.25",
        "Boiling Point": "80 °C @ Press: 0.01 Torr"
    }
}