{
    "cas_no": "1198-27-2",
    "key_name": "1-Amino-2-naphthol hydrochloride",
    "cn_name": "1-氨基-2-萘酚盐酸盐;",
    "alternate_name": "2-Naphthalenol, 1-amino-, hydrochloride (1:1);2-Naphthol, 1-amino-, hydrochloride;2-Naphthalenol, 1-amino-, hydrochloride;1-Amino-2-naphthol hydrochloride;1-Amino-2-naphthalenol hydrochloride",
    "duplicated_cas_no": "",
    "SMILES": "NC=1C2=C(C=CC1O)C=CC=C2.Cl",
    "meta_data": {
        "InChI": "InChI=1S/C10H9NO.ClH/c11-10-8-4-2-1-3-7(8)5-6-9(10)12;/h1-6,12H,11H2;1H",
        "InChIKey": null,
        "Canonical SMILES": "Cl.OC=1C=CC=2C=CC=CC2C1N",
        "Molecular Formula": "C<sub>10</sub>H<sub>9</sub>NO.ClH",
        "Molecular Mass": "",
        "Melting Point": "252 °C"
    }
}