{
    "cas_no": "156-54-7",
    "key_name": "Sodium butyrate",
    "cn_name": "丁酸钠;",
    "alternate_name": "Butanoic acid, sodium salt (1:1);Butyric acid, sodium salt;Butanoic acid, sodium salt;Sodium butyrate;Sodium butanoate;Butyrate sodium;Sodium <em>n</em>-butyrate;Sodium propanecarboxylate;Gustor XXI B 70;Adimix",
    "duplicated_cas_no": "",
    "SMILES": "C(C(O)=O)CC.[Na]",
    "meta_data": {
        "InChI": "InChI=1S/C4H8O2.Na/c1-2-3-4(5)6;/h2-3H2,1H3,(H,5,6);",
        "InChIKey": null,
        "Canonical SMILES": "[Na].O=C(O)CCC",
        "Molecular Formula": "C<sub>4</sub>H<sub>8</sub>O<sub>2</sub>.Na",
        "Molecular Mass": "",
        "Melting Point": "251 °C"
    }
}