{
    "cas_no": "41037-26-7",
    "key_name": "6-Methoxy-4-methylquinoline",
    "cn_name": null,
    "alternate_name": "Quinoline, 6-methoxy-4-methyl-;Lepidine, 6-methoxy-;6-Methoxy-4-methylquinoline;6-Methoxylepidine;4-Methyl-6-methoxyquinoline",
    "duplicated_cas_no": "",
    "SMILES": "CC=1C2=C(C=CC(OC)=C2)N=CC1",
    "meta_data": {
        "InChI": "InChI=1S/C11H11NO/c1-8-5-6-12-11-4-3-9(13-2)7-10(8)11/h3-7H,1-2H3",
        "InChIKey": null,
        "Canonical SMILES": "N=1C=CC(=C2C=C(OC)C=CC12)C",
        "Molecular Formula": "C<sub>11</sub>H<sub>11</sub>NO",
        "Molecular Mass": "173.21",
        "Boiling Point": "145-150 °C @ Press: 18 Torr",
        "Melting Point": "52 °C"
    }
}