{
    "cas_no": "3181-38-2",
    "key_name": "2′,3′,5′-Tri-<em>O</em>-acetylinosine",
    "cn_name": "2\",3\",5\"-三乙酰肌苷;",
    "alternate_name": "Inosine, 2′,3′,5′-triacetate;2′,3′,5′-Triacetylinosine;2′,3′,5′-Tri-<em>O</em>-acetylinosine;NSC 66386;Chembridge 5141605",
    "duplicated_cas_no": "288154-83-6;307942-38-7",
    "SMILES": "O(C(C)=O)[C@H]1[C@@H](O[C@H](COC(C)=O)[C@H]1OC(C)=O)N2C3=C(N=C2)C(=O)N=CN3",
    "meta_data": {
        "InChI": "InChI=1S/C16H18N4O8/c1-7(21)25-4-10-12(26-8(2)22)13(27-9(3)23)16(28-10)20-6-19-11-14(20)17-5-18-15(11)24/h5-6,10,12-13,16H,4H2,1-3H3,(H,17,18,24)/t10-,12-,13-,16-/m1/s1",
        "InChIKey": null,
        "Canonical SMILES": "O=C1N=CNC2=C1N=CN2C3OC(COC(=O)C)C(OC(=O)C)C3OC(=O)C",
        "Molecular Formula": "C<sub>16</sub>H<sub>18</sub>N<sub>4</sub>O<sub>8</sub>",
        "Molecular Mass": "394.34",
        "Melting Point": "241 °C"
    }
}