{
    "cas_no": "875-74-1",
    "key_name": "(-)-Phenylglycine",
    "cn_name": "左旋苯甘氨酸;",
    "alternate_name": "Benzeneacetic acid, α-amino-, (α<em>R</em>)-;Glycine, 2-phenyl-, <span class=\"text-smallcaps\">D</span>-;Benzeneacetic acid, α-amino-, (<em>R</em>)-;(α<em>R</em>)-α-Aminobenzeneacetic acid;<span class=\"text-smallcaps\">D</span>-α-Aminophenylacetic acid;<span class=\"text-smallcaps\">D</span>-(-)-2-Phenylglycine;<span class=\"text-smallcaps\">D</span>-(-)-Aminophenylacetic acid;<span class=\"text-smallcaps\">D</span>-(-)-α-Aminophenylacetic acid;(<em>R</em>)-α-Phenylglycine;<span class=\"text-smallcaps\">D</span>-(-)-α-Phenylglycine;<span class=\"text-smallcaps\">D</span>-α-Phenylglycine;<span class=\"text-smallcaps\">D</span>-(-)-Phenylglycine;<span class=\"text-smallcaps\">D</span>-Phenylglycine;<span class=\"text-smallcaps\">D</span>-2-Phenylglycine;(-)-(<em>R</em>)-Phenylglycine;<span class=\"text-smallcaps\">D</span>-<em>C</em>-Phenylglycine;(<em>R</em>)-2-Phenylglycine;(<em>R</em>)-Phenylglycine;(-)-Phenylglycine;(R)-Phenylglycine;(<em>R</em>)-(-)-2-Phenylglycine;(<em>R</em>)-2-Amino-2-phenylacetic acid;(R)-2-Phenylglycine;(<em>R</em>)-2-Amino-2-phenylethanoic acid;(2<em>R</em>)-Amino-2-phenylethanoic acid;(<em>R</em>)-2-Phenyl-2-aminoethanoic acid;(2R)-2-Azaniumyl-2-phenylacetate;(2R)-2-Amino-2-phenylacetic acid",
    "duplicated_cas_no": "",
    "SMILES": "[C@@H](C(O)=O)(N)C1=CC=CC=C1",
    "meta_data": {
        "InChI": "InChI=1S/C8H9NO2/c9-7(8(10)11)6-4-2-1-3-5-6/h1-5,7H,9H2,(H,10,11)/t7-/m1/s1",
        "InChIKey": null,
        "Canonical SMILES": "O=C(O)C(N)C=1C=CC=CC1",
        "Molecular Formula": "C<sub>8</sub>H<sub>9</sub>NO<sub>2</sub>",
        "Molecular Mass": "151.16",
        "Melting Point": "300-301 °C"
    }
}