{
    "cas_no": "1663-61-2",
    "key_name": "Triethyl orthobenzoate",
    "cn_name": "原苯甲酸三乙酯;",
    "alternate_name": "Benzene, (triethoxymethyl)-;Orthobenzoic acid, triethyl ester;(Triethoxymethyl)benzene;Triethyl orthobenzoate;Ethyl orthobenzoate;Triethoxyphenylmethane",
    "duplicated_cas_no": "",
    "SMILES": "C(OCC)(OCC)(OCC)C1=CC=CC=C1",
    "meta_data": {
        "InChI": "InChI=1S/C13H20O3/c1-4-14-13(15-5-2,16-6-3)12-10-8-7-9-11-12/h7-11H,4-6H2,1-3H3",
        "InChIKey": null,
        "Canonical SMILES": "O(CC)C(OCC)(OCC)C=1C=CC=CC1",
        "Molecular Formula": "C<sub>13</sub>H<sub>20</sub>O<sub>3</sub>",
        "Molecular Mass": "224.30",
        "Boiling Point": "240 °C",
        "Density": "1.0325 g/cm³ @ Temp: 25 °C"
    }
}