{
    "cas_no": "825633-94-1",
    "key_name": "5-Iodo-3(2<em>H</em>)-pyridazinone",
    "cn_name": null,
    "alternate_name": "3(2<em>H</em>)-Pyridazinone, 5-iodo-;5-Iodo-3(2<em>H</em>)-pyridazinone;5-Iodopyridazin-3(2<em>H</em>)-one;5-Iodo-2,3-dihydropyridazin-3-one;4-Iodo-1<em>H</em>-pyridazin-6-one",
    "duplicated_cas_no": "",
    "SMILES": "IC1=CC(=O)NN=C1",
    "meta_data": {
        "InChI": "InChI=1S/C4H3IN2O/c5-3-1-4(8)7-6-2-3/h1-2H,(H,7,8)",
        "InChIKey": null,
        "Canonical SMILES": "O=C1C=C(I)C=NN1",
        "Molecular Formula": "C<sub>4</sub>H<sub>3</sub>IN<sub>2</sub>O",
        "Molecular Mass": "221.98",
        "Melting Point": "147-148 °C"
    }
}