{
    "cas_no": "154-93-8",
    "key_name": "Carmustine",
    "cn_name": null,
    "alternate_name": "Urea, <em>N</em>,<em>N</em>′-bis(2-chloroethyl)-<em>N</em>-nitroso-;Urea, 1,3-bis(2-chloroethyl)-1-nitroso-;<em>N</em>,<em>N</em>′-Bis(2-chloroethyl)-<em>N</em>-nitrosourea;BCNU;1,3-Bis(2-chlorethyl)-1-nitrosourea;Carmustine;1,3-Bis(β-chloroethyl)-1-nitrosourea;NSC 409962;Carmustin;1,3-Bis(2-chloroethyl)-1-nitrosourea;BiCNU;Gliadel;Becenun;SK 27702;SRI 1720;Nitrumon;FDA 0345;Carmubris;DTI 015;Gliadel Wafer;1,3-Bis(2-chloroethyl)nitrosourea;Becenum",
    "duplicated_cas_no": "1159711-15-5;1191292-23-5",
    "SMILES": "N(C(NCCCl)=O)(CCCl)N=O",
    "meta_data": {
        "InChI": "InChI=1S/C5H9Cl2N3O2/c6-1-3-8-5(11)10(9-12)4-2-7/h1-4H2,(H,8,11)",
        "InChIKey": null,
        "Canonical SMILES": "O=NN(C(=O)NCCCl)CCCl",
        "Molecular Formula": "C<sub>5</sub>H<sub>9</sub>Cl<sub>2</sub>N<sub>3</sub>O<sub>2</sub>",
        "Molecular Mass": "214.05",
        "Melting Point": "31 °C"
    }
}