{
    "cas_no": "2369-12-2",
    "key_name": "3-Fluoro-5-nitrobenzenamine",
    "cn_name": "5-氟-3-硝基苯胺;3-氟-5-硝基苯胺;",
    "alternate_name": "Benzenamine, 3-fluoro-5-nitro-;Aniline, 3-fluoro-5-nitro-;3-Fluoro-5-nitrobenzenamine;5-Fluoro-3-nitroaniline;3-Fluoro-5-nitroaniline;3-Nitro-5-fluoroaniline",
    "duplicated_cas_no": "",
    "SMILES": "N(=O)(=O)C1=CC(F)=CC(N)=C1",
    "meta_data": {
        "InChI": "InChI=1S/C6H5FN2O2/c7-4-1-5(8)3-6(2-4)9(10)11/h1-3H,8H2",
        "InChIKey": null,
        "Canonical SMILES": "O=N(=O)C=1C=C(F)C=C(N)C1",
        "Molecular Formula": "C<sub>6</sub>H<sub>5</sub>FN<sub>2</sub>O<sub>2</sub>",
        "Molecular Mass": "156.11",
        "Melting Point": "115-116 °C"
    }
}