{
    "cas_no": "1623-19-4",
    "key_name": "Triallyl phosphate",
    "cn_name": "三烯丙基磷酸酯;三烯丙基磷酸酯;",
    "alternate_name": "Phosphoric acid, tri-2-propen-1-yl ester;Phosphoric acid, triallyl ester;Phosphoric acid, tri-2-propenyl ester;Triallyl phosphate;Triallyl orthophosphate;NSC 30703;Trially phosphate",
    "duplicated_cas_no": "",
    "SMILES": "P(OCC=C)(OCC=C)(OCC=C)=O",
    "meta_data": {
        "InChI": "InChI=1S/C9H15O4P/c1-4-7-11-14(10,12-8-5-2)13-9-6-3/h4-6H,1-3,7-9H2",
        "InChIKey": null,
        "Canonical SMILES": "O=P(OCC=C)(OCC=C)OCC=C",
        "Molecular Formula": "C<sub>9</sub>H<sub>15</sub>O<sub>4</sub>P",
        "Molecular Mass": "218.19",
        "Boiling Point": "80 °C @ Press: 0.5 Torr",
        "Density": "1.064 g/cm³ @ Temp: 25 °C"
    }
}