{
    "cas_no": "4919-40-8",
    "key_name": "4-Amino-3,5-dimethylbenzoic acid",
    "cn_name": null,
    "alternate_name": "Benzoic acid, 4-amino-3,5-dimethyl-;4-Amino-3,5-dimethylbenzoic acid;3,5-Dimethyl-4-aminobenzoic acid;NSC 38033",
    "duplicated_cas_no": "",
    "SMILES": "C(O)(=O)C1=CC(C)=C(N)C(C)=C1",
    "meta_data": {
        "InChI": "InChI=1S/C9H11NO2/c1-5-3-7(9(11)12)4-6(2)8(5)10/h3-4H,10H2,1-2H3,(H,11,12)",
        "InChIKey": null,
        "Canonical SMILES": "O=C(O)C=1C=C(C(N)=C(C1)C)C",
        "Molecular Formula": "C<sub>9</sub>H<sub>11</sub>NO<sub>2</sub>",
        "Molecular Mass": "165.19",
        "Melting Point": "251-252 °C"
    }
}