{
    "cas_no": "548-66-3",
    "key_name": "Drofenine hydrochloride",
    "cn_name": null,
    "alternate_name": "Benzeneacetic acid, α-cyclohexyl-, 2-(diethylamino)ethyl ester, hydrochloride (1:1);Cyclohexaneacetic acid, α-phenyl-, 2-(diethylamino)ethyl ester hydrochloride;Benzeneacetic acid, α-cyclohexyl-, 2-(diethylamino)ethyl ester, hydrochloride;IT 19;Cycloadiphenine hydrochloride;Cyclospasmol [Tempelhof];Cycloadiphenine;2-(Diethylamino)ethyl α-cyclohexylbenzeneacetate hydrochloride;Cyclovegantine;Hexahydroadiphenine hydrochloride;Adiphenine H hydrochloride;Trasentine A;Trasentin H;Drofenine hydrochloride;NSC 42559;2-(Diethylamino)ethyl 2-cyclohexyl-2-phenylacetate hydrochloride",
    "duplicated_cas_no": "",
    "SMILES": "C(C(OCCN(CC)CC)=O)(C1CCCCC1)C2=CC=CC=C2.Cl",
    "meta_data": {
        "InChI": "InChI=1S/C20H31NO2.ClH/c1-3-21(4-2)15-16-23-20(22)19(17-11-7-5-8-12-17)18-13-9-6-10-14-18;/h5,7-8,11-12,18-19H,3-4,6,9-10,13-16H2,1-2H3;1H",
        "InChIKey": null,
        "Canonical SMILES": "Cl.O=C(OCCN(CC)CC)C(C=1C=CC=CC1)C2CCCCC2",
        "Molecular Formula": "C<sub>20</sub>H<sub>31</sub>NO<sub>2</sub>.ClH",
        "Molecular Mass": "",
        "Melting Point": "145-147 °C"
    }
}