{
    "cas_no": "6981-18-6",
    "key_name": "Ormetoprim",
    "cn_name": "奥美普林;5-(4,5-二甲氧基-2-甲基苄基)-2,4-二氨嘧啶;",
    "alternate_name": "2,4-Pyrimidinediamine, 5-[(4,5-dimethoxy-2-methylphenyl)methyl]-;Pyrimidine, 2,4-diamino-5-(6-methylveratryl)-;5-[(4,5-Dimethoxy-2-methylphenyl)methyl]-2,4-pyrimidinediamine;2,4-Diamino-5-(4,5-dimethoxy-2-methylbenzyl)pyrimidine;2,4-Diamino-5-(2-methyl-4,5-dimethoxybenzyl)pyrimidine;Ormetoprim;2,4-Diamino-5-(6-methylveratryl)pyrimidine;2,4-Diamino-5-(2′-methyl-4′,5′-dimethoxybenzyl)pyrimidine;2,4-Diamino-5-(4′,5′-dimethoxy-2′-methylbenzyl)pyrimidine;2,4-Diamino-5-(3,4-dimethoxy-6-methylbenzyl)pyrimidine;Ormethoprim;Ro 5-9754;NSC 95072",
    "duplicated_cas_no": "",
    "SMILES": "C(C1=CC(OC)=C(OC)C=C1C)C=2C(N)=NC(N)=NC2",
    "meta_data": {
        "InChI": "InChI=1S/C14H18N4O2/c1-8-4-11(19-2)12(20-3)6-9(8)5-10-7-17-14(16)18-13(10)15/h4,6-7H,5H2,1-3H3,(H4,15,16,17,18)",
        "InChIKey": null,
        "Canonical SMILES": "N=1C=C(C(=NC1N)N)CC2=CC(OC)=C(OC)C=C2C",
        "Molecular Formula": "C<sub>14</sub>H<sub>18</sub>N<sub>4</sub>O<sub>2</sub>",
        "Molecular Mass": "274.32",
        "Melting Point": "230 °C"
    }
}