{
    "cas_no": "3856-05-1",
    "key_name": "Isobutyl gallate",
    "cn_name": "异丁酸酯;",
    "alternate_name": "Benzoic acid, 3,4,5-trihydroxy-, 2-methylpropyl ester;Gallic acid, isobutyl ester;Isobutyl gallate;NSC 147482;2-Methylpropyl 3,4,5-trihydroxybenzoate;Isobutyl 3,4,5-trihydroxybenzoate",
    "duplicated_cas_no": "",
    "SMILES": "C(OCC(C)C)(=O)C1=CC(O)=C(O)C(O)=C1",
    "meta_data": {
        "InChI": "InChI=1S/C11H14O5/c1-6(2)5-16-11(15)7-3-8(12)10(14)9(13)4-7/h3-4,6,12-14H,5H2,1-2H3",
        "InChIKey": null,
        "Canonical SMILES": "O=C(OCC(C)C)C1=CC(O)=C(O)C(O)=C1",
        "Molecular Formula": "C<sub>11</sub>H<sub>14</sub>O<sub>5</sub>",
        "Molecular Mass": "226.23",
        "Melting Point": "130-131 °C"
    }
}