{
    "cas_no": "38360-81-5",
    "key_name": "3,5-Dimethylbenzenethiol",
    "cn_name": null,
    "alternate_name": "Benzenethiol, 3,5-dimethyl-;3,5-Xylenethiol;3,5-Dimethylbenzenethiol;3,5-Dimethylthiophenol;3,5-Dimethylbenzene-1-thiol",
    "duplicated_cas_no": "",
    "SMILES": "CC1=CC(C)=CC(S)=C1",
    "meta_data": {
        "InChI": "InChI=1S/C8H10S/c1-6-3-7(2)5-8(9)4-6/h3-5,9H,1-2H3",
        "InChIKey": null,
        "Canonical SMILES": "SC=1C=C(C=C(C1)C)C",
        "Molecular Formula": "C<sub>8</sub>H<sub>10</sub>S",
        "Molecular Mass": "138.23",
        "Boiling Point": "127.5 °C @ Press: 50 Torr"
    }
}