{
    "cas_no": "6299-39-4",
    "key_name": "4-Nitrobenzotriazole",
    "cn_name": null,
    "alternate_name": "1<em>H</em>-Benzotriazole, 7-nitro-;1<em>H</em>-Benzotriazole, 4-nitro-;Benzotriazole, 4-nitro-;7-Nitro-1<em>H</em>-benzotriazole;4-Nitrobenzotriazole;4-Nitro-1<em>H</em>-benzotriazole;NSC 44657;4-Nitro-1<em>H</em>-benzo[<em>d</em>][1,2,3]triazole",
    "duplicated_cas_no": "",
    "SMILES": "N(=O)(=O)C1=C2C(N=NN2)=CC=C1",
    "meta_data": {
        "InChI": "InChI=1S/C6H4N4O2/c11-10(12)5-3-1-2-4-6(5)8-9-7-4/h1-3H,(H,7,8,9)",
        "InChIKey": null,
        "Canonical SMILES": "O=N(=O)C1=CC=CC=2N=NNC21",
        "Molecular Formula": "C<sub>6</sub>H<sub>4</sub>N<sub>4</sub>O<sub>2</sub>",
        "Molecular Mass": "164.12",
        "Melting Point": "163-173 °C"
    }
}