{
    "cas_no": "6228-73-5",
    "key_name": "Cyclopropanecarboxamide",
    "cn_name": "环丙酰胺;",
    "alternate_name": "Cyclopropanecarboxamide;Carbamoylcyclopropane;Cyclopropylcarboxamide;NSC 402033;1-Cyclopropanecarboxamide",
    "duplicated_cas_no": "",
    "SMILES": "C(N)(=O)C1CC1",
    "meta_data": {
        "InChI": "InChI=1S/C4H7NO/c5-4(6)3-1-2-3/h3H,1-2H2,(H2,5,6)",
        "InChIKey": null,
        "Canonical SMILES": "O=C(N)C1CC1",
        "Molecular Formula": "C<sub>4</sub>H<sub>7</sub>NO",
        "Molecular Mass": "85.10",
        "Melting Point": "223.5-224.5 °C"
    }
}