{
    "cas_no": "108-58-7",
    "key_name": "1,3-Benzenediol, 1,3-diacetate",
    "cn_name": "1,3-二乙酰氧基苯;间苯二酚二乙酸酯;",
    "alternate_name": "1,3-Benzenediol, 1,3-diacetate;Resorcinol, diacetate;1,3-Benzenediol, diacetate;1,3-Dihydroxybenzene diacetate;<em>m</em>-Phenylenediacetate;1,3-Diacetoxybenzene;<em>m</em>-Dihydroxybenzene diacetate;NSC 4885;<em>m</em>-Acetoxyphenyl acetate;<em>m</em>-Diacetoxybenzene;(3-Acetyloxyphenyl) acetate",
    "duplicated_cas_no": "27015-73-2",
    "SMILES": "O(C(C)=O)C1=CC(OC(C)=O)=CC=C1",
    "meta_data": {
        "InChI": "InChI=1S/C10H10O4/c1-7(11)13-9-4-3-5-10(6-9)14-8(2)12/h3-6H,1-2H3",
        "InChIKey": null,
        "Canonical SMILES": "O=C(OC1=CC=CC(OC(=O)C)=C1)C",
        "Molecular Formula": "C<sub>10</sub>H<sub>10</sub>O<sub>4</sub>",
        "Molecular Mass": "194.18",
        "Boiling Point": "266 °C @ Press: 625 Torr",
        "Melting Point": "145-146 °C"
    }
}