{
    "cas_no": "29082-92-6",
    "key_name": "5-Methoxypicolinic acid",
    "cn_name": "5-甲氧基吡啶-2-羧酸;",
    "alternate_name": "2-Pyridinecarboxylic acid, 5-methoxy-;Picolinic acid, 5-methoxy-;5-Methoxy-2-pyridinecarboxylic acid;5-Methoxypicolinic acid",
    "duplicated_cas_no": "",
    "SMILES": "C(O)(=O)C1=CC=C(OC)C=N1",
    "meta_data": {
        "InChI": "InChI=1S/C7H7NO3/c1-11-5-2-3-6(7(9)10)8-4-5/h2-4H,1H3,(H,9,10)",
        "InChIKey": null,
        "Canonical SMILES": "O=C(O)C1=NC=C(OC)C=C1",
        "Molecular Formula": "C<sub>7</sub>H<sub>7</sub>NO<sub>3</sub>",
        "Molecular Mass": "153.14",
        "Melting Point": "172-174 °C"
    }
}