{
    "cas_no": "1668-08-2",
    "key_name": "<span class=\"text-smallcaps\">L</span>-Galactono-1,4-lactone",
    "cn_name": "半乳糖酸?酯;半乳糖酸?酯;",
    "alternate_name": "<span class=\"text-smallcaps\">L</span>-Galactonic acid, γ-lactone;Galactonic acid, γ-lactone, <span class=\"text-smallcaps\">L</span>-;<span class=\"text-smallcaps\">L</span>-Galactono-1,4-lactone;<span class=\"text-smallcaps\">L</span>-Galactono-γ-lactone;NSC 25282",
    "duplicated_cas_no": "55648-37-8;1072930-42-7",
    "SMILES": "[C@@H](CO)(O)[C@@]1([C@@H](O)[C@H](O)C(=O)O1)[H]",
    "meta_data": {
        "InChI": "InChI=1S/C6H10O6/c7-1-2(8)5-3(9)4(10)6(11)12-5/h2-5,7-10H,1H2/t2-,3-,4-,5+/m0/s1",
        "InChIKey": null,
        "Canonical SMILES": "O=C1OC(C(O)CO)C(O)C1O",
        "Molecular Formula": "C<sub>6</sub>H<sub>10</sub>O<sub>6</sub>",
        "Molecular Mass": "178.14",
        "Melting Point": "134 °C"
    }
}