{
    "cas_no": "2627-69-2",
    "key_name": "AICAr",
    "cn_name": null,
    "alternate_name": "1<em>H</em>-Imidazole-4-carboxamide, 5-amino-1-β-<span class=\"text-smallcaps\">D</span>-ribofuranosyl-;Imidazole-4-carboxamide, 5-amino-1-β-<span class=\"text-smallcaps\">D</span>-ribofuranosyl-;5-Amino-1-β-<span class=\"text-smallcaps\">D</span>-ribofuranosyl-1<em>H</em>-imidazole-4-carboxamide;5-Amino-1-ribosyl-4-imidazolecarboxamide;5-Amino-4-imidazolecarboxamide ribofuranoside;1-β-<span class=\"text-smallcaps\">D</span>-Ribofuranosyl-5-amino-4-imidazolecarboxamide;5-Amino-4-imidazolecarboxamide riboside;5-Amino-1-β-<span class=\"text-smallcaps\">D</span>-ribofuranosylimidazole-4-carboxamide;1-Ribosyl-4-carboxamido-5-aminoimidazole;AICA-Riboside;AIC-Riboside;AICAr;Acadesine;Arasine;GP 1-110;5-Aminoimidazole-4-carboxamide 1-(β-<span class=\"text-smallcaps\">D</span>-ribofuranoside);NSC 105823;Acadra;5-Aminoimidazole-4-carboxamid-1-β-<span class=\"text-smallcaps\">D</span>-ribofuranoside",
    "duplicated_cas_no": "",
    "SMILES": "O[C@H]1[C@@H](O[C@H](CO)[C@H]1O)N2C(N)=C(C(N)=O)N=C2",
    "meta_data": {
        "InChI": "InChI=1S/C9H14N4O5/c10-7-4(8(11)17)12-2-13(7)9-6(16)5(15)3(1-14)18-9/h2-3,5-6,9,14-16H,1,10H2,(H2,11,17)/t3-,5-,6-,9-/m1/s1",
        "InChIKey": null,
        "Canonical SMILES": "O=C(N)C=1N=CN(C1N)C2OC(CO)C(O)C2O",
        "Molecular Formula": "C<sub>9</sub>H<sub>14</sub>N<sub>4</sub>O<sub>5</sub>",
        "Molecular Mass": "258.23",
        "Melting Point": "213 °C (decomp)"
    }
}