{
    "cas_no": "1817-73-8",
    "key_name": "2-Bromo-4,6-dinitroaniline",
    "cn_name": "2-溴-4,6-二硝基苯胺;6-溴-2,4-二硝基苯胺;2,4-二硝基-6-溴苯胺;",
    "alternate_name": "Benzenamine, 2-bromo-4,6-dinitro-;Aniline, 2-bromo-4,6-dinitro-;2-Bromo-4,6-dinitrobenzenamine;2-Bromo-4,6-dinitroaniline;6-Bromo-2,4-dinitroaniline;2-Bromo-4,6-dinitroaminobenzene;2,4-Dinitro-6-bromoaniline;NSC 16572",
    "duplicated_cas_no": "",
    "SMILES": "N(=O)(=O)C1=CC(N(=O)=O)=CC(Br)=C1N",
    "meta_data": {
        "InChI": "InChI=1S/C6H4BrN3O4/c7-4-1-3(9(11)12)2-5(6(4)8)10(13)14/h1-2H,8H2",
        "InChIKey": null,
        "Canonical SMILES": "O=N(=O)C1=CC(Br)=C(N)C(=C1)N(=O)=O",
        "Molecular Formula": "C<sub>6</sub>H<sub>4</sub>BrN<sub>3</sub>O<sub>4</sub>",
        "Molecular Mass": "262.02",
        "Melting Point": "153 °C"
    }
}