{
    "cas_no": "461-28-9",
    "key_name": "3-Fluoro-1-propanesulfonyl chloride",
    "cn_name": null,
    "alternate_name": "1-Propanesulfonyl chloride, 3-fluoro-;3-Fluoro-1-propanesulfonyl chloride;3-Fluoropropane-1-sulfonyl chloride;3-Fluoropropanesulfonyl chloride;3-Fluoropropan-1-sulfonyl chloride",
    "duplicated_cas_no": "",
    "SMILES": "C(S(Cl)(=O)=O)CCF",
    "meta_data": {
        "InChI": "InChI=1S/C3H6ClFO2S/c4-8(6,7)3-1-2-5/h1-3H2",
        "InChIKey": null,
        "Canonical SMILES": "O=S(=O)(Cl)CCCF",
        "Molecular Formula": "C<sub>3</sub>H<sub>6</sub>ClFO<sub>2</sub>S",
        "Molecular Mass": "160.59",
        "Boiling Point": "95.5-96 °C @ Press: 12 Torr"
    }
}