{
    "cas_no": "4468-48-8",
    "key_name": "α-Acetylbenzeneacetonitrile",
    "cn_name": "2-苯基乙酰基乙腈;alpha-氰基苯丙酮;alpha-乙酰基苯乙腈;",
    "alternate_name": "Benzeneacetonitrile, α-acetyl-;Acetoacetonitrile, 2-phenyl-;α-Acetylbenzeneacetonitrile;α-Phenylacetoacetonitrile;1-Cyano-1-phenylpropan-2-one;2-Acetyl-2-phenylacetonitrile;α-Acetylphenylacetonitrile;3-Oxo-2-phenylbutanenitrile;NSC 11777;NSC 25183;NSC 55206;3-Oxo-2-phenyl-butyronitrile;1-Phenyl-1-cyanopropan-2-one;2-Phenylacetoacetonitrile",
    "duplicated_cas_no": "128252-19-7",
    "SMILES": "C(C(C)=O)(C#N)C1=CC=CC=C1",
    "meta_data": {
        "InChI": "InChI=1S/C10H9NO/c1-8(12)10(7-11)9-5-3-2-4-6-9/h2-6,10H,1H3",
        "InChIKey": null,
        "Canonical SMILES": "N#CC(C=1C=CC=CC1)C(=O)C",
        "Molecular Formula": "C<sub>10</sub>H<sub>9</sub>NO",
        "Molecular Mass": "159.18",
        "Boiling Point": "120 °C @ Press: 0.03 Torr",
        "Melting Point": "90 °C"
    }
}