{
    "cas_no": "305-84-0",
    "key_name": "<span class=\"text-smallcaps\">L</span>-Carnosine",
    "cn_name": "L-肌肽;N-beta-丙氨酰-L-组氨酸;",
    "alternate_name": "<span class=\"text-smallcaps\">L</span>-Histidine, β-alanyl-;Carnosine;β-Alanyl-<span class=\"text-smallcaps\">L</span>-histidine;β-Alanylhistidine;Ignotine;<span class=\"text-smallcaps\">L</span>-Carnosine;Karnozin;<em>N</em>-(β-Alanyl)-<span class=\"text-smallcaps\">L</span>-histidine;NSC 524045;Sevitin;2: PN: WO2009033754 PAGE: 98 claimed protein;Ignotin;Dragosine;(2S)-2-(3-Aminopropanoylamino)-3-(1<em>H</em>-imidazol-5-yl)propanoic acid;(2S)-2-(3-Aminopropanamido)-3-(1<em>H</em>-imidazol-4-yl)propanoic acid",
    "duplicated_cas_no": "7683-28-5",
    "SMILES": "[C@@H](CC1=CN=CN1)(NC(CCN)=O)C(O)=O",
    "meta_data": {
        "InChI": "InChI=1S/C9H14N4O3/c10-2-1-8(14)13-7(9(15)16)3-6-4-11-5-12-6/h4-5,7H,1-3,10H2,(H,11,12)(H,13,14)(H,15,16)/t7-/m0/s1",
        "InChIKey": null,
        "Canonical SMILES": "O=C(O)C(NC(=O)CCN)CC1=CN=CN1",
        "Molecular Formula": "C<sub>9</sub>H<sub>14</sub>N<sub>4</sub>O<sub>3</sub>",
        "Molecular Mass": "226.23",
        "Melting Point": "260 °C"
    }
}