{
    "cas_no": "13676-91-0",
    "key_name": "Solvent Yellow 163",
    "cn_name": "溶剂黄163;1,8-双(苯硫基)-9,10-蒽二酮;",
    "alternate_name": "9,10-Anthracenedione, 1,8-bis(phenylthio)-;Anthraquinone, 1,8-bis(phenylthio)-;1,8-Bis(phenylthio)-9,10-anthracenedione;1,8-Bis(phenylthio)anthraquinone;C.I. 58840;C.I. Solvent Yellow 163;Oracet Yellow GHS;Oplas Yellow 120;Solvent Yellow 163;Morplas Yellow GS;NSC 156516;Dymic MBR-D 05;Oracet GHS;KP Plast Yellow HK;Teratop Yellow HL-G;Dymic MBR-D 05 Yellow;Oracet Yellow 180;NCI ID: NSC 156516",
    "duplicated_cas_no": "106768-99-4",
    "SMILES": "S(C1=C2C(C(=O)C=3C(C2=O)=C(SC4=CC=CC=C4)C=CC3)=CC=C1)C5=CC=CC=C5",
    "meta_data": {
        "InChI": "InChI=1S/C26H16O2S2/c27-25-19-13-7-15-21(29-17-9-3-1-4-10-17)23(19)26(28)24-20(25)14-8-16-22(24)30-18-11-5-2-6-12-18/h1-16H",
        "InChIKey": null,
        "Canonical SMILES": "O=C1C=2C=CC=C(SC=3C=CC=CC3)C2C(=O)C=4C(SC=5C=CC=CC5)=CC=CC14",
        "Molecular Formula": "C<sub>26</sub>H<sub>16</sub>O<sub>2</sub>S<sub>2</sub>",
        "Molecular Mass": "424.53",
        "Melting Point": "187 °C"
    }
}