{
    "cas_no": "13380-94-4",
    "key_name": "Octahydro-4,7-methano-5<em>H</em>-inden-5-one",
    "cn_name": "八氢-4,7-亚甲基-5H-茚-5-酮;",
    "alternate_name": "4,7-Methano-5<em>H</em>-inden-5-one, octahydro-;4,7-Methanoindan-5(4<em>H</em>)-one, tetrahydro-;Octahydro-4,7-methano-5<em>H</em>-inden-5-one;8-Oxotricyclo[5.2.1.0<sup>2,6</sup>]decane;Tricyclo[5.2.1.0<sup>2,6</sup>]decan-8-one;8-Ketotricyclo[5.2.1.0<sup>2,6</sup>]decane;NSC 77098",
    "duplicated_cas_no": "",
    "SMILES": "O=C1C2C3C(C(C2)C1)CCC3",
    "meta_data": {
        "InChI": "InChI=1S/C10H14O/c11-10-5-6-4-9(10)8-3-1-2-7(6)8/h6-9H,1-5H2",
        "InChIKey": null,
        "Canonical SMILES": "O=C1CC2CC1C3CCCC23",
        "Molecular Formula": "C<sub>10</sub>H<sub>14</sub>O",
        "Molecular Mass": "150.22",
        "Boiling Point": "70 °C @ Press: 1 Torr"
    }
}