{
    "cas_no": "40720-05-6",
    "key_name": "1<em>H</em>-Thieno[3,4-<em>d</em>]imidazole-4-pentanoic acid, hexahydro-2-oxo-, 5,5-dioxide, (3a<em>S</em>,4<em>S</em>,6a<em>R</em>)-",
    "cn_name": null,
    "alternate_name": "1<em>H</em>-Thieno[3,4-<em>d</em>]imidazole-4-pentanoic acid, hexahydro-2-oxo-, 5,5-dioxide, (3a<em>S</em>,4<em>S</em>,6a<em>R</em>)-;1<em>H</em>-Thieno[3,4-<em>d</em>]imidazole-4-pentanoic acid, hexahydro-2-oxo-, 5,5-dioxide, [3a<em>S</em>-(3aα,4β,6aα)]-;Biotin, 5,5-dioxide;Biotin sulfone",
    "duplicated_cas_no": "",
    "SMILES": "C(CCCC(O)=O)[C@H]1[C@@]2([C@](CS1(=O)=O)(NC(=O)N2)[H])[H]",
    "meta_data": {
        "InChI": "InChI=1S/C10H16N2O5S/c13-8(14)4-2-1-3-7-9-6(5-18(7,16)17)11-10(15)12-9/h6-7,9H,1-5H2,(H,13,14)(H2,11,12,15)/t6-,7-,9-/m0/s1",
        "InChIKey": null,
        "Canonical SMILES": "O=C1NC2CS(=O)(=O)C(CCCCC(=O)O)C2N1",
        "Molecular Formula": "C<sub>10</sub>H<sub>16</sub>N<sub>2</sub>O<sub>5</sub>S",
        "Molecular Mass": "276.31",
        "Melting Point": "268-270 °C"
    }
}