{
    "cas_no": "1795-05-7",
    "key_name": "2,3,5-Trimethylthiophene",
    "cn_name": "2,3,5-三甲基噻吩;",
    "alternate_name": "Thiophene, 2,3,5-trimethyl-;2,3,5-Trimethylthiophene",
    "duplicated_cas_no": "",
    "SMILES": "CC1=C(C)SC(C)=C1",
    "meta_data": {
        "InChI": "InChI=1S/C7H10S/c1-5-4-6(2)8-7(5)3/h4H,1-3H3",
        "InChIKey": null,
        "Canonical SMILES": "S1C(=CC(=C1C)C)C",
        "Molecular Formula": "C<sub>7</sub>H<sub>10</sub>S",
        "Molecular Mass": "126.22",
        "Boiling Point": "164.5 °C",
        "Density": "0.9753 g/cm³ @ Temp: 20 °C"
    }
}