{
    "cas_no": "108-67-8",
    "key_name": "Mesitylene",
    "cn_name": null,
    "alternate_name": "Benzene, 1,3,5-trimethyl-;Mesitylene;1,3,5-Trimethylbenzene;<em>sym</em>-Trimethylbenzene;2,4,6-Trimethylbenzene;3,5-Dimethyltoluene;NSC 9273",
    "duplicated_cas_no": "",
    "SMILES": "CC1=CC(C)=CC(C)=C1",
    "meta_data": {
        "InChI": "InChI=1S/C9H12/c1-7-4-8(2)6-9(3)5-7/h4-6H,1-3H3",
        "InChIKey": null,
        "Canonical SMILES": "C=1C(=CC(=CC1C)C)C",
        "Molecular Formula": "C<sub>9</sub>H<sub>12</sub>",
        "Molecular Mass": "120.19",
        "Boiling Point": "164.7 °C @ Press: 760 Torr",
        "Melting Point": "-44.8 °C",
        "Density": "0.8637 g/cm³ @ Temp: 20 °C"
    }
}