{
    "cas_no": "592-45-0",
    "key_name": "1,4-Hexadiene",
    "cn_name": null,
    "alternate_name": "1,4-Hexadiene",
    "duplicated_cas_no": "",
    "SMILES": "C(C=CC)C=C",
    "meta_data": {
        "InChI": "InChI=1S/C6H10/c1-3-5-6-4-2/h3-4,6H,1,5H2,2H3",
        "InChIKey": null,
        "Canonical SMILES": "C=CCC=CC",
        "Molecular Formula": "C<sub>6</sub>H<sub>10</sub>",
        "Molecular Mass": "82.14",
        "Boiling Point": "65 °C @ Press: 760 Torr",
        "Melting Point": "&lt;25 °C",
        "Density": "0.7000 g/cm³ @ Temp: 20 °C"
    }
}