{
    "cas_no": "490-64-2",
    "key_name": "2,4,5-Trimethoxybenzoic acid",
    "cn_name": "2,4,5-三甲氧基苯甲酸;扁桃酸;苦杏仁酸;",
    "alternate_name": "Benzoic acid, 2,4,5-trimethoxy-;2,4,5-Trimethoxybenzoic acid;Asaronic acid;Asarylic acid;Calamonic acid;3,4,6-Trimethoxybenzoic acid",
    "duplicated_cas_no": "",
    "SMILES": "C(O)(=O)C1=C(OC)C=C(OC)C(OC)=C1",
    "meta_data": {
        "InChI": "InChI=1S/C10H12O5/c1-13-7-5-9(15-3)8(14-2)4-6(7)10(11)12/h4-5H,1-3H3,(H,11,12)",
        "InChIKey": null,
        "Canonical SMILES": "O=C(O)C1=CC(OC)=C(OC)C=C1OC",
        "Molecular Formula": "C<sub>10</sub>H<sub>12</sub>O<sub>5</sub>",
        "Molecular Mass": "212.20",
        "Boiling Point": "300 °C",
        "Melting Point": "145 °C"
    }
}