{
    "cas_no": "1620-68-4",
    "key_name": "2,6-Bis[(2-hydroxy-5-methylphenyl)methyl]-4-methylphenol",
    "cn_name": "2,6-双[(2-羟基-5-甲基苯基)甲基]-4-甲基苯酚;2,6-双(对甲酚-2-甲基)对甲酚;",
    "alternate_name": "Phenol, 2,6-bis[(2-hydroxy-5-methylphenyl)methyl]-4-methyl-;Mesitol, α<sup>2</sup>,α<sup>6</sup>-bis(6-hydroxy-<em>m</em>-tolyl)-;2,6-Bis[(2-hydroxy-5-methylphenyl)methyl]-4-methylphenol;2-[Di(2-hydroxy-5-methyl-<em>m</em>-phenylenemethylene)]-<em>p</em>-cresol;α<sup>2</sup>,α<sup>6</sup>-Bis(6-hydroxy-<em>m</em>-tolyl)mesitol;2,6-Bis(2-hydroxy-5-methylbenzyl)-4-methylphenol;Antioxidant 80;NSC 634601;3PC",
    "duplicated_cas_no": "79029-79-1",
    "SMILES": "C(C1=C(O)C(CC2=C(O)C=CC(C)=C2)=CC(C)=C1)C3=C(O)C=CC(C)=C3",
    "meta_data": {
        "InChI": "InChI=1S/C23H24O3/c1-14-4-6-21(24)17(8-14)12-19-10-16(3)11-20(23(19)26)13-18-9-15(2)5-7-22(18)25/h4-11,24-26H,12-13H2,1-3H3",
        "InChIKey": null,
        "Canonical SMILES": "OC1=CC=C(C=C1CC2=CC(=CC(=C2O)CC3=CC(=CC=C3O)C)C)C",
        "Molecular Formula": "C<sub>23</sub>H<sub>24</sub>O<sub>3</sub>",
        "Molecular Mass": "348.43",
        "Melting Point": "215 °C"
    }
}