{
    "cas_no": "1600-44-8",
    "key_name": "Tetramethylene sulfoxide",
    "cn_name": "四亚甲基亚砜;丁撑亚砜;四甲(基)撑亚砜;四甲基亚砜;四亚甲基亚砜;四次甲基亚砜;四甲撑亚砜;四甲基亚砜(环丁;",
    "alternate_name": "Thiophene, tetrahydro-, 1-oxide;Tetrahydrothiophene 1-oxide;Tetramethylene sulfoxide;Thiophane oxide;Tetrahydrothiophene oxide;Thiophane monoxide;Thiophane 1-oxide;Tetrahydrothiophene sulfoxide;Tetrahydrothiophene <em>S</em>-oxide;Thiolane 1-oxide;Thiolane sulfoxide;NSC 65433;TMSO;1-Oxo-tetrahydrothiophene;Tetrahydrothiophene-1-monoxide;1λ4-Thiolan-1-one;tetrahydrothiophene 1-oxide",
    "duplicated_cas_no": "",
    "SMILES": "O=S1CCCC1",
    "meta_data": {
        "InChI": "InChI=1S/C4H8OS/c5-6-3-1-2-4-6/h1-4H2",
        "InChIKey": null,
        "Canonical SMILES": "O=S1CCCC1",
        "Molecular Formula": "C<sub>4</sub>H<sub>8</sub>OS",
        "Molecular Mass": "104.17",
        "Boiling Point": "105-107 °C @ Press: 12 Torr"
    }
}