{
    "cas_no": "625-35-4",
    "key_name": "<em>trans</em>-Crotonyl chloride",
    "cn_name": "巴豆酰氯;2-丁烯酰氯;",
    "alternate_name": "2-Butenoyl chloride, (2<em>E</em>)-;Crotonoyl chloride, (<em>E</em>)-;2-Butenoyl chloride, (<em>E</em>)-;(2<em>E</em>)-2-Butenoyl chloride;(<em>E</em>)-Crotonoyl chloride;<em>trans</em>-2-Butenoyl chloride;<em>trans</em>-Crotonoyl chloride;(<em>E</em>)-But-2-enoyl chloride;(<em>E</em>)-Crotonic acid chloride;(<em>E</em>)-Crotonyl chloride;<em>trans</em>-Crotonyl chloride;(E)-Crotonyl chloride",
    "duplicated_cas_no": "",
    "SMILES": "C(\\C(Cl)=O)=C/C",
    "meta_data": {
        "InChI": "InChI=1S/C4H5ClO/c1-2-3-4(5)6/h2-3H,1H3/b3-2+",
        "InChIKey": null,
        "Canonical SMILES": "O=C(Cl)C=CC",
        "Molecular Formula": "C<sub>4</sub>H<sub>5</sub>ClO",
        "Molecular Mass": "104.53",
        "Boiling Point": "77-80 °C @ Press: 15 Torr",
        "Melting Point": "72-74 °C"
    }
}