{
    "cas_no": "560-62-3",
    "key_name": "9α-Hydroxyandrost-4-ene-3,17-dione",
    "cn_name": null,
    "alternate_name": "Androst-4-ene-3,17-dione, 9-hydroxy-;9-Hydroxyandrost-4-ene-3,17-dione;9α-Hydroxyandrost-4-ene-3,17-dione;Androst-4-en-9α-ol-3,17-dione;9-Hydroxy-4-androstene-3,17-dione",
    "duplicated_cas_no": "24495-63-4;497847-63-9",
    "SMILES": "O[C@@]12[C@]([C@]3([C@](C)(CC1)C(=O)CC3)[H])(CCC=4[C@]2(C)CCC(=O)C4)[H]",
    "meta_data": {
        "InChI": "InChI=1S/C19H26O3/c1-17-9-10-19(22)15(14(17)5-6-16(17)21)4-3-12-11-13(20)7-8-18(12,19)2/h11,14-15,22H,3-10H2,1-2H3/t14-,15-,17-,18-,19+/m0/s1",
        "InChIKey": null,
        "Canonical SMILES": "O=C1C=C2CCC3C4CCC(=O)C4(C)CCC3(O)C2(C)CC1",
        "Molecular Formula": "C<sub>19</sub>H<sub>26</sub>O<sub>3</sub>",
        "Molecular Mass": "302.41",
        "Melting Point": "222-223.5 °C"
    }
}