{
    "cas_no": "37161-74-3",
    "key_name": "Methyl 3-phenyl-2-oxiranecarboxylate",
    "cn_name": null,
    "alternate_name": "2-Oxiranecarboxylic acid, 3-phenyl-, methyl ester;Oxiranecarboxylic acid, 3-phenyl-, methyl ester;Glycidic acid, 3-phenyl-, methyl ester;Methyl 3-phenyl-2-oxiranecarboxylate;1-Phenyl-2-methoxycarbonyloxirane;Methyl β-phenylglycidate;Methyl 2-phenyloxirane-1-carboxylate;NSC 53768;(±)-Methyl 2,3-epoxycinnamate;Methyl 3-phenyloxiran-2-carboxylate",
    "duplicated_cas_no": "",
    "SMILES": "C(OC)(=O)C1C(O1)C2=CC=CC=C2",
    "meta_data": {
        "InChI": "InChI=1S/C10H10O3/c1-12-10(11)9-8(13-9)7-5-3-2-4-6-7/h2-6,8-9H,1H3",
        "InChIKey": null,
        "Canonical SMILES": "O=C(OC)C1OC1C=2C=CC=CC2",
        "Molecular Formula": "C<sub>10</sub>H<sub>10</sub>O<sub>3</sub>",
        "Molecular Mass": "178.18",
        "Boiling Point": "115-116 °C @ Press: 6 Torr"
    }
}