{
    "cas_no": "674-76-0",
    "key_name": "<em>trans</em>-4-Methyl-2-pentene",
    "cn_name": "反式-4-甲基-2-戊烯;反式-4-甲基-2-戊烯;",
    "alternate_name": "2-Pentene, 4-methyl-, (2<em>E</em>)-;2-Pentene, 4-methyl-, (<em>E</em>)-;2-Pentene, 4-methyl-, <em>trans</em>-;(2<em>E</em>)-4-Methyl-2-pentene;<em>trans</em>-4-Methyl-2-pentene;(<em>E</em>)-4-Methyl-2-pentene;4-Methyl-<em>trans</em>-2-pentene;<em>trans</em>-2-Methyl-3-pentene;NSC 73914",
    "duplicated_cas_no": "",
    "SMILES": "C(\\C(C)C)=C/C",
    "meta_data": {
        "InChI": "InChI=1S/C6H12/c1-4-5-6(2)3/h4-6H,1-3H3/b5-4+",
        "InChIKey": null,
        "Canonical SMILES": "C(=CC(C)C)C",
        "Molecular Formula": "C<sub>6</sub>H<sub>12</sub>",
        "Molecular Mass": "84.16",
        "Boiling Point": "58.6 °C",
        "Melting Point": "-140.8 °C"
    }
}