{
    "cas_no": "119-24-4",
    "key_name": "Pteroic acid",
    "cn_name": "蝶酸;",
    "alternate_name": "Benzoic acid, 4-[[(2-amino-3,4-dihydro-4-oxo-6-pteridinyl)methyl]amino]-;Pteroic acid;Benzoic acid, 4-[[(2-amino-1,4-dihydro-4-oxo-6-pteridinyl)methyl]amino]-;Benzoic acid, <em>p</em>-[[(2-amino-3,4-dihydro-4-oxo-6-pteridinyl)methyl]amino]-;4-[[(2-Amino-3,4-dihydro-4-oxo-6-pteridinyl)methyl]amino]benzoic acid;<em>p</em>-[(2-Amino-4-hydroxy-6-pteridylmethyl)amino]benzoic acid;NSC 14972;Pyrofolic acid",
    "duplicated_cas_no": "33448-71-4;34794-86-0",
    "SMILES": "O=C1C=2C(NC=C(CNC3=CC=C(C(O)=O)C=C3)N2)=NC(N)=N1",
    "meta_data": {
        "InChI": "InChI=1S/C14H12N6O3/c15-14-19-11-10(12(21)20-14)18-9(6-17-11)5-16-8-3-1-7(2-4-8)13(22)23/h1-4,6,16H,5H2,(H,22,23)(H3,15,17,19,20,21)",
        "InChIKey": null,
        "Canonical SMILES": "O=C(O)C1=CC=C(C=C1)NCC=2N=C3C(=O)N=C(N=C3NC2)N",
        "Molecular Formula": "C<sub>14</sub>H<sub>12</sub>N<sub>6</sub>O<sub>3</sub>",
        "Molecular Mass": "312.28",
        "Melting Point": "&gt;400 °C"
    }
}