{
    "cas_no": "20493-60-1",
    "key_name": "5-Bromo-3-methylisothiazole",
    "cn_name": null,
    "alternate_name": "Isothiazole, 5-bromo-3-methyl-;5-Bromo-3-methylisothiazole",
    "duplicated_cas_no": "",
    "SMILES": "CC=1C=C(Br)SN1",
    "meta_data": {
        "InChI": "InChI=1S/C4H4BrNS/c1-3-2-4(5)7-6-3/h2H,1H3",
        "InChIKey": null,
        "Canonical SMILES": "BrC=1SN=C(C1)C",
        "Molecular Formula": "C<sub>4</sub>H<sub>4</sub>BrNS",
        "Molecular Mass": "178.05",
        "Boiling Point": "72 °C @ Press: 13 Torr"
    }
}