{
    "cas_no": "776-86-3",
    "key_name": "Isoscopoletin",
    "cn_name": null,
    "alternate_name": "2<em>H</em>-1-Benzopyran-2-one, 6-hydroxy-7-methoxy-;Coumarin, 6-hydroxy-7-methoxy-;Herniarin, 6-hydroxy-;6-Hydroxy-7-methoxy-2<em>H</em>-1-benzopyran-2-one;Esculetin, 7-methyl ether;6-Hydroxy-7-methoxycoumarin;Isoscopoletin;7-Methoxyesculetin",
    "duplicated_cas_no": "",
    "SMILES": "O(C)C=1C=C2C(=CC1O)C=CC(=O)O2",
    "meta_data": {
        "InChI": "InChI=1S/C10H8O4/c1-13-9-5-8-6(4-7(9)11)2-3-10(12)14-8/h2-5,11H,1H3",
        "InChIKey": null,
        "Canonical SMILES": "O=C1OC=2C=C(OC)C(O)=CC2C=C1",
        "Molecular Formula": "C<sub>10</sub>H<sub>8</sub>O<sub>4</sub>",
        "Molecular Mass": "192.17",
        "Melting Point": "185 °C",
        "Density": "1.37 g/cm³"
    }
}