{
    "cas_no": "13171-64-7",
    "key_name": "Dimethyl (2<em>S</em>,3<em>S</em>)-2,3-dihydroxybutanedioate",
    "cn_name": null,
    "alternate_name": "Butanedioic acid, 2,3-dihydroxy-, dimethyl ester, (2<em>S</em>,3<em>S</em>)-;Tartaric acid, dimethyl ester, <span class=\"text-smallcaps\">D</span>-(-)-;Butanedioic acid, 2,3-dihydroxy-, dimethyl ester, [<em>S</em>-(<em>R</em>*,<em>R</em>*)]-;Dimethyl (2<em>S</em>,3<em>S</em>)-2,3-dihydroxybutanedioate;Dimethyl (-)-<span class=\"text-smallcaps\">D</span>-tartrate;Dimethyl <span class=\"text-smallcaps\">D</span>-tartrate;<span class=\"text-smallcaps\">D</span>-(-)-Tartaric acid dimethyl ester;Dimethyl (-)-tartrate;<span class=\"text-smallcaps\">D</span>-Tartaric acid dimethyl ester;(<em>S</em>,<em>S</em>)-Dimethyl tartrate;(-)-Dimethyl <span class=\"text-smallcaps\">D</span>-tartarate;(-)-Dimethyl D-tartrate",
    "duplicated_cas_no": "",
    "SMILES": "[C@H]([C@@H](C(OC)=O)O)(C(OC)=O)O",
    "meta_data": {
        "InChI": "InChI=1S/C6H10O6/c1-11-5(9)3(7)4(8)6(10)12-2/h3-4,7-8H,1-2H3/t3-,4-/m0/s1",
        "InChIKey": null,
        "Canonical SMILES": "O=C(OC)C(O)C(O)C(=O)OC",
        "Molecular Formula": "C<sub>6</sub>H<sub>10</sub>O<sub>6</sub>",
        "Molecular Mass": "178.14",
        "Boiling Point": "153 °C @ Press: 12 Torr",
        "Melting Point": "112-113 °C"
    }
}