{
    "cas_no": "6902-77-8",
    "key_name": "(+)-Genipin",
    "cn_name": "京尼平;格尼泊素;",
    "alternate_name": "Cyclopenta[<em>c</em>]pyran-4-carboxylic acid, 1,4a,5,7a-tetrahydro-1-hydroxy-7-(hydroxymethyl)-, methyl ester, (1<em>R</em>,4a<em>S</em>,7a<em>S</em>)-;Cyclopenta[<em>c</em>]pyran-4-carboxylic acid, 1,4aα,5,7aα-tetrahydro-1-hydroxy-7-(hydroxymethyl)-, methyl ester;Genipin;Cyclopenta[<em>c</em>]pyran-4-carboxylic acid, 1,4a,5,7a-tetrahydro-1-hydroxy-7-(hydroxymethyl)-, methyl ester, [1<em>R</em>-(1α,4aα,7aα)]-;(+)-Genipin",
    "duplicated_cas_no": "1202641-87-9;1642810-78-3",
    "SMILES": "C(O)C=1[C@@]2([C@@](C(C(OC)=O)=CO[C@H]2O)(CC1)[H])[H]",
    "meta_data": {
        "InChI": "InChI=1S/C11H14O5/c1-15-10(13)8-5-16-11(14)9-6(4-12)2-3-7(8)9/h2,5,7,9,11-12,14H,3-4H2,1H3/t7-,9-,11-/m1/s1",
        "InChIKey": null,
        "Canonical SMILES": "O=C(OC)C1=COC(O)C2C(=CCC12)CO",
        "Molecular Formula": "C<sub>11</sub>H<sub>14</sub>O<sub>5</sub>",
        "Molecular Mass": "226.23",
        "Melting Point": "120-121 °C"
    }
}