{
    "cas_no": "84348-37-8",
    "key_name": "1-(1,1-Dimethylethyl) (2<em>S</em>)-4-oxo-1,2-pyrrolidinedicarboxylate",
    "cn_name": "N-Boc-4-氧代-L-脯氨酸;(S)-1-叔丁氧羰基-4-氧代吡咯烷-2-甲酸;",
    "alternate_name": "1,2-Pyrrolidinedicarboxylic acid, 4-oxo-, 1-(1,1-dimethylethyl) ester, (2<em>S</em>)-;1,2-Pyrrolidinedicarboxylic acid, 4-oxo-, 1-(1,1-dimethylethyl) ester, (<em>S</em>)-;1-(1,1-Dimethylethyl) (2<em>S</em>)-4-oxo-1,2-pyrrolidinedicarboxylate;<em>N</em>-<em>tert</em>-Butoxycarbonyl-4-oxo-<span class=\"text-smallcaps\">L</span>-proline;(2S)-1-(<em>tert</em>-Butoxycarbonyl)-4-oxo-2-pyrrolidinecarboxylic acid;(2<em>S</em>)-1-(<em>tert</em>-Butoxycarbonyl)-4-oxo-2-pyrrolidinecarboxylic acid;<em>N</em>-<em>tert</em>-Butoxycarbonyl-4-keto-<span class=\"text-smallcaps\">L</span>-proline;1-(<em>tert</em>-Butoxycarbonyl)-4-oxo-<span class=\"text-smallcaps\">L</span>-proline;(<em>S</em>)-1-(<em>tert</em>-Butoxycarbonyl)-4-oxopyrrolidine-2-carboxylic acid;<em>N</em>-Boc-4-oxo-<span class=\"text-smallcaps\">L</span>-proline",
    "duplicated_cas_no": "",
    "SMILES": "C(OC(C)(C)C)(=O)N1[C@H](C(O)=O)CC(=O)C1",
    "meta_data": {
        "InChI": "InChI=1S/C10H15NO5/c1-10(2,3)16-9(15)11-5-6(12)4-7(11)8(13)14/h7H,4-5H2,1-3H3,(H,13,14)/t7-/m0/s1",
        "InChIKey": null,
        "Canonical SMILES": "O=C(OC(C)(C)C)N1CC(=O)CC1C(=O)O",
        "Molecular Formula": "C<sub>10</sub>H<sub>15</sub>NO<sub>5</sub>",
        "Molecular Mass": "229.23",
        "Melting Point": "159-163 °C"
    }
}