{
    "cas_no": "107-05-1",
    "key_name": "Allyl chloride",
    "cn_name": "烯丙基氯;3-氯丙烯;",
    "alternate_name": "1-Propene, 3-chloro-;Propene, 3-chloro-;3-Chloro-1-propene;Allyl chloride;1-Chloro-2-propene;3-Chloropropylene;3-Chloropropene;2-Propenyl chloride;NSC 20939;HCO 1260ZF",
    "duplicated_cas_no": "",
    "SMILES": "C(CCl)=C",
    "meta_data": {
        "InChI": "InChI=1S/C3H5Cl/c1-2-3-4/h2H,1,3H2",
        "InChIKey": null,
        "Canonical SMILES": "ClCC=C",
        "Molecular Formula": "C<sub>3</sub>H<sub>5</sub>Cl",
        "Molecular Mass": "76.52",
        "Boiling Point": "44-45 °C",
        "Melting Point": "-135 °C",
        "Density": "0.938 g/cm³ @ Temp: 20 °C"
    }
}