{
    "cas_no": "355-02-2",
    "key_name": "Perfluoro(methylcyclohexane)",
    "cn_name": "全氟甲基环己烷;十一氟(三氟甲基)环己烷;S-1液体;",
    "alternate_name": "Cyclohexane, 1,1,2,2,3,3,4,4,5,5,6-undecafluoro-6-(trifluoromethyl)-;Cyclohexane, undecafluoro(trifluoromethyl)-;1,1,2,2,3,3,4,4,5,5,6-Undecafluoro-6-(trifluoromethyl)cyclohexane;Perfluoro(methylcyclohexane);Undecafluoro(trifluoromethyl)cyclohexane;Flutec PP 2;PP 2;Flutec PC 2;NSC 4779;Khladon 350",
    "duplicated_cas_no": "",
    "SMILES": "C(F)(F)(F)C1(F)C(F)(F)C(F)(F)C(F)(F)C(F)(F)C1(F)F",
    "meta_data": {
        "InChI": "InChI=1S/C7F14/c8-1(7(19,20)21)2(9,10)4(13,14)6(17,18)5(15,16)3(1,11)12",
        "InChIKey": null,
        "Canonical SMILES": "FC(F)(F)C1(F)C(F)(F)C(F)(F)C(F)(F)C(F)(F)C1(F)F",
        "Molecular Formula": "C<sub>7</sub>F<sub>14</sub>",
        "Molecular Mass": "350.05",
        "Boiling Point": "76.3 °C",
        "Melting Point": "-44.7 °C",
        "Density": "1.7994 g/cm³ @ Temp: 20 °C"
    }
}