{
    "cas_no": "3392-07-2",
    "key_name": "<em>N</em>-(<em>tert</em>-Butyloxycarbonyl)glycine <em>N</em>-hydroxysuccinimide ester",
    "cn_name": "Boc-Gly-OSu;",
    "alternate_name": "Glycine, <em>N</em>-[(1,1-dimethylethoxy)carbonyl]-, 2,5-dioxo-1-pyrrolidinyl ester;Succinimide, <em>N</em>-[(<em>N</em>-carboxyglycyl)oxy]-, <em>tert</em>-butyl ester;Carbamic acid, [2-[(2,5-dioxo-1-pyrrolidinyl)oxy]-2-oxoethyl]-, 1,1-dimethylethyl ester;<em>N</em>-[[<em>N</em>-(<em>tert</em>-Butoxycarbonyl)glycyl]oxy]succinimide;<em>N</em>-(<em>tert</em>-Butyloxycarbonyl)glycine <em>N</em>-hydroxysuccinimide ester;NSC 164050;<em>tert</em>-Butyl [2-[(2,5-dioxo-1-pyrrolidinyl)oxy]-2-oxoethyl]carbamate;2,5-Dioxopyrrolidin-1-yl 2-(<em>tert</em>-butoxycarbonylamino)acetate;<em>N</em>-Boc-glycine <em>N</em>-hydroxysuccinimidyl ester;<em>N</em>-Boc-glycine hydroxysuccinimide ester;<em>N</em>-<em>tert</em>-Butoxycarbonylglycine <em>N</em>-hydroxysuccinimide ester",
    "duplicated_cas_no": "99234-50-1;93672-44-7",
    "SMILES": "O(C(CNC(OC(C)(C)C)=O)=O)N1C(=O)CCC1=O",
    "meta_data": {
        "InChI": "InChI=1S/C11H16N2O6/c1-11(2,3)18-10(17)12-6-9(16)19-13-7(14)4-5-8(13)15/h4-6H2,1-3H3,(H,12,17)",
        "InChIKey": null,
        "Canonical SMILES": "O=C(OC(C)(C)C)NCC(=O)ON1C(=O)CCC1=O",
        "Molecular Formula": "C<sub>11</sub>H<sub>16</sub>N<sub>2</sub>O<sub>6</sub>",
        "Molecular Mass": "272.25",
        "Melting Point": "168-170 °C"
    }
}