{
    "cas_no": "75887-54-6",
    "key_name": "Arteether",
    "cn_name": "蒿乙醚;10-乙氧基十氢-3,6,9-三甲基-3,12-环氧-12H-吡喃并[4,3-j]-1,2-苯并二氧杂环庚烷;",
    "alternate_name": "3,12-Epoxy-12<em>H</em>-pyrano[4,3-<em>j</em>]-1,2-benzodioxepin, 10-ethoxydecahydro-3,6,9-trimethyl-, (3<em>R</em>,5a<em>S</em>,6<em>R</em>,8a<em>S</em>,9<em>R</em>,10<em>S</em>,12<em>R</em>,12a<em>R</em>)-;3,12-Epoxy-12<em>H</em>-pyrano[4,3-<em>j</em>]-1,2-benzodioxepin, 10-ethoxydecahydro-3,6,9-trimethyl-, [3<em>R</em>-(3α,5aβ,6β,8aβ,9α,10α,12β,12a<em>R</em>*)]-;(3<em>R</em>,5a<em>S</em>,6<em>R</em>,8a<em>S</em>,9<em>R</em>,10<em>S</em>,12<em>R</em>,12a<em>R</em>)-10-Ethoxydecahydro-3,6,9-trimethyl-3,12-epoxy-12<em>H</em>-pyrano[4,3-<em>j</em>]-1,2-benzodioxepin;SM 227;Arteether;β-Arteether;Artemotil;Dihydroqinghaosu ethyl ether;Dihydroartemisinin ethyl ether;NSC 665971;β-Dihydroartemisinin ethyl ether;(+)-Arteether",
    "duplicated_cas_no": "159510-58-4",
    "SMILES": "C[C@@H]1[C@]2([C@]34[C@](O[C@@H]1OCC)(O[C@](C)(OO3)CC[C@]4([C@H](C)CC2)[H])[H])[H]",
    "meta_data": {
        "InChI": "InChI=1S/C17H28O5/c1-5-18-14-11(3)13-7-6-10(2)12-8-9-16(4)20-15(19-14)17(12,13)22-21-16/h10-15H,5-9H2,1-4H3/t10-,11-,12+,13+,14+,15-,16-,17-/m1/s1",
        "InChIKey": null,
        "Canonical SMILES": "O1OC23C4OC(OCC)C(C)C3CCC(C)C2CCC1(O4)C",
        "Molecular Formula": "C<sub>17</sub>H<sub>28</sub>O<sub>5</sub>",
        "Molecular Mass": "312.40",
        "Melting Point": "80-82 °C"
    }
}