{
    "cas_no": "696-29-7",
    "key_name": "Isopropylcyclohexane",
    "cn_name": "异丙基环己烷;",
    "alternate_name": "Cyclohexane, (1-methylethyl)-;Cyclohexane, isopropyl-;(1-Methylethyl)cyclohexane;Isopropylcyclohexane;NSC 73963;(Propan-2-yl)cyclohexane",
    "duplicated_cas_no": "",
    "SMILES": "C(C)(C)C1CCCCC1",
    "meta_data": {
        "InChI": "InChI=1S/C9H18/c1-8(2)9-6-4-3-5-7-9/h8-9H,3-7H2,1-2H3",
        "InChIKey": null,
        "Canonical SMILES": "CC(C)C1CCCCC1",
        "Molecular Formula": "C<sub>9</sub>H<sub>18</sub>",
        "Molecular Mass": "126.24",
        "Boiling Point": "154.8 °C",
        "Melting Point": "-89.4 °C",
        "Density": "0.7974 g/cm³ @ Temp: 20 °C"
    }
}