{
    "cas_no": "646-19-5",
    "key_name": "1,7-Heptanediamine",
    "cn_name": "1,7-二氨基戊烷;",
    "alternate_name": "1,7-Heptanediamine;1,7-Diaminoheptane;Heptamethylenediamine;1,7-Heptamethylenediamine;1,7-Diamino-<em>n</em>-heptane;1,9-Diazanonane;α,ω-Heptanediamine;NSC 45777;(7-Aminoheptyl)amine",
    "duplicated_cas_no": "95930-98-6",
    "SMILES": "C(CCCN)CCCN",
    "meta_data": {
        "InChI": "InChI=1S/C7H18N2/c8-6-4-2-1-3-5-7-9/h1-9H2",
        "InChIKey": null,
        "Canonical SMILES": "NCCCCCCCN",
        "Molecular Formula": "C<sub>7</sub>H<sub>18</sub>N<sub>2</sub>",
        "Molecular Mass": "130.23",
        "Boiling Point": "224 °C",
        "Melting Point": "28.9 °C"
    }
}