{
    "cas_no": "2011-70-3",
    "key_name": "<em>N</em>-(2-Benzoyl-4-nitrophenyl)-2-bromoacetamide",
    "cn_name": null,
    "alternate_name": "Acetamide, <em>N</em>-(2-benzoyl-4-nitrophenyl)-2-bromo-;Acetanilide, 2′-benzoyl-2-bromo-4′-nitro-;<em>N</em>-(2-Benzoyl-4-nitrophenyl)-2-bromoacetamide;5-Nitro-2-(bromoacetamido)benzophenone",
    "duplicated_cas_no": "",
    "SMILES": "C(=O)(C1=C(NC(CBr)=O)C=CC(N(=O)=O)=C1)C2=CC=CC=C2",
    "meta_data": {
        "InChI": "InChI=1S/C15H11BrN2O4/c16-9-14(19)17-13-7-6-11(18(21)22)8-12(13)15(20)10-4-2-1-3-5-10/h1-8H,9H2,(H,17,19)",
        "InChIKey": null,
        "Canonical SMILES": "O=C(C=1C=CC=CC1)C2=CC(=CC=C2NC(=O)CBr)N(=O)=O",
        "Molecular Formula": "C<sub>15</sub>H<sub>11</sub>BrN<sub>2</sub>O<sub>4</sub>",
        "Molecular Mass": "363.16",
        "Melting Point": "155-156 °C"
    }
}