{
    "cas_no": "330793-01-6",
    "key_name": "<em>tert</em>-Butyl [4-(4,4,5,5-tetramethyl-[1,3,2]dioxaborolan-2-yl)phenyl]carbamate",
    "cn_name": "N-Boc-4-氨基苯硼酸频哪醇酯;4-叔丁氧羰基氨基苯硼酸频哪醇酯;",
    "alternate_name": "Carbamic acid, <em>N</em>-[4-(4,4,5,5-tetramethyl-1,3,2-dioxaborolan-2-yl)phenyl]-, 1,1-dimethylethyl ester;Carbamic acid, [4-(4,4,5,5-tetramethyl-1,3,2-dioxaborolan-2-yl)phenyl]-, 1,1-dimethylethyl ester;<em>tert</em>-Butyl <em>N</em>-[4-(4,4,5,5-tetramethyl-1,3,2-dioxaborolan-2-yl)phenyl]carbamate;[4-(4,4,5,5-Tetramethyl-[1,3,2]dioxaborolan-2-yl)phenyl]carbamic acid tert-butyl ester;<em>tert</em>-Butyl [4-(4,4,5,5-tetramethyl-[1,3,2]dioxaborolan-2-yl)phenyl]carbamate;4-(Boc-amino)benzeneboronic acid pinacol ester;[4-[(<em>tert</em>-Butoxycarbonyl)amino]phenyl]boronic acid pinacol ester;<em>tert</em>-Butyl <em>N</em>-[4-(4,4,5,5-tetramethyl-1,3,2-dioxoborolan-2-yl)phenyl]carbamate",
    "duplicated_cas_no": "",
    "SMILES": "CC1(C)OB(OC1(C)C)C2=CC=C(NC(OC(C)(C)C)=O)C=C2",
    "meta_data": {
        "InChI": "InChI=1S/C17H26BNO4/c1-15(2,3)21-14(20)19-13-10-8-12(9-11-13)18-22-16(4,5)17(6,7)23-18/h8-11H,1-7H3,(H,19,20)",
        "InChIKey": null,
        "Canonical SMILES": "O=C(OC(C)(C)C)NC1=CC=C(C=C1)B2OC(C)(C)C(O2)(C)C",
        "Molecular Formula": "C<sub>17</sub>H<sub>26</sub>BNO<sub>4</sub>",
        "Molecular Mass": "319.20",
        "Melting Point": "135-137 °C"
    }
}