{
    "cas_no": "27126-76-7",
    "key_name": "[Hydroxy(tosyloxy)iodo]benzene",
    "cn_name": "羟基甲苯磺酰碘苯;",
    "alternate_name": "Iodine, hydroxy(4-methylbenzenesulfonato-κ<em>O</em>)phenyl-;Benzene, [hydroxy[(<em>p</em>-tolylsulfonyl)oxy]iodo]-;Iodine, hydroxy(4-methylbenzenesulfonato-<em>O</em>)phenyl-;Benzenesulfonic acid, 4-methyl-, iodine complex;Hydroxy(4-methylbenzenesulfonato-κ<em>O</em>)phenyliodine;Phenyliodoso hydroxide tosylate;[Hydroxy(tosyloxy)iodo]benzene;Hydroxy(4-methylbenzenesulfonato-<em>O</em>)phenyliodine;Phenyliodosyl hydroxide tosylate;HTIB;Koser's reagent;[Hydroxy(4-toluenesulfonato)iodo]benzene;Reagents, Koser's;Hydroxy(phenyl)iodo tosylate;NSC 294176",
    "duplicated_cas_no": "80967-80-2;124515-97-5;131251-60-0;596797-12-5;890138-00-8;1372709-39-1;2240996-00-1;2902588-97-8",
    "SMILES": "S(OI(O)C1=CC=CC=C1)(=O)(=O)C2=CC=C(C)C=C2",
    "meta_data": {
        "InChI": "InChI=1S/C13H13IO4S/c1-11-7-9-13(10-8-11)19(16,17)18-14(15)12-5-3-2-4-6-12/h2-10,15H,1H3",
        "InChIKey": null,
        "Canonical SMILES": "O=S(=O)(OI(O)C=1C=CC=CC1)C2=CC=C(C=C2)C",
        "Molecular Formula": "C<sub>13</sub>H<sub>13</sub>IO<sub>4</sub>S",
        "Molecular Mass": "392.21",
        "Melting Point": "134-136 °C"
    }
}