{
    "cas_no": "137-43-9",
    "key_name": "Cyclopentyl bromide",
    "cn_name": "溴代环戊烷;",
    "alternate_name": "Cyclopentane, bromo-;Bromocyclopentane;Cyclopentyl bromide;NSC 1110;2-Bromocyclopentane;4-Bromocyclopentane",
    "duplicated_cas_no": "",
    "SMILES": "BrC1CCCC1",
    "meta_data": {
        "InChI": "InChI=1S/C5H9Br/c6-5-3-1-2-4-5/h5H,1-4H2",
        "InChIKey": null,
        "Canonical SMILES": "BrC1CCCC1",
        "Molecular Formula": "C<sub>5</sub>H<sub>9</sub>Br",
        "Molecular Mass": "149.03",
        "Boiling Point": "137.5 °C",
        "Density": "1.38500122070313 g/cm³ @ Temp: 19 °C"
    }
}