{
    "cas_no": "10493-43-3",
    "key_name": "1,1,2-Trifluoro-2-(1,1,2,2,2-pentafluoroethoxy)ethene",
    "cn_name": null,
    "alternate_name": "Ethene, 1,1,2-trifluoro-2-(1,1,2,2,2-pentafluoroethoxy)-;Ether, pentafluoroethyl trifluorovinyl;Ethene, trifluoro(pentafluoroethoxy)-;1,1,2-Trifluoro-2-(1,1,2,2,2-pentafluoroethoxy)ethene;Trifluoro(pentafluoroethoxy)ethylene;Perfluoroethyl vinyl ether;Pentafluoroethyl trifluorovinyl ether;PEVE;Perfluoroethyl perfluorovinyl ether;1,1,1,2,2-Pentafluoro-2-(1,2,2-trifluoroethenoxy)ethane;1,1,2-Trifluoro-2-(pentafluoroethoxy)ethene;Perfluorinated ethyl vinyl ether",
    "duplicated_cas_no": "",
    "SMILES": "C(OC(=C(F)F)F)(C(F)(F)F)(F)F",
    "meta_data": {
        "InChI": "InChI=1S/C4F8O/c5-1(6)2(7)13-4(11,12)3(8,9)10",
        "InChIKey": null,
        "Canonical SMILES": "FC(F)=C(F)OC(F)(F)C(F)(F)F",
        "Molecular Formula": "C<sub>4</sub>F<sub>8</sub>O",
        "Molecular Mass": "216.03",
        "Boiling Point": "8 °C"
    }
}