{
    "cas_no": "405-50-5",
    "key_name": "(4-Fluorophenyl)acetic acid",
    "cn_name": "4-氟苯乙酸;对氟苯乙酸;",
    "alternate_name": "Benzeneacetic acid, 4-fluoro-;Acetic acid, (<em>p</em>-fluorophenyl)-;4-Fluorobenzeneacetic acid;Ba 2821;(4-Fluorophenyl)acetic acid;(<em>p</em>-Fluorophenyl)acetic acid;2-(4-Fluorophenyl)acetic acid;NSC 402;<em>p</em>-Fluorobenzeneacetic acid",
    "duplicated_cas_no": "",
    "SMILES": "C(C(O)=O)C1=CC=C(F)C=C1",
    "meta_data": {
        "InChI": "InChI=1S/C8H7FO2/c9-7-3-1-6(2-4-7)5-8(10)11/h1-4H,5H2,(H,10,11)",
        "InChIKey": null,
        "Canonical SMILES": "O=C(O)CC1=CC=C(F)C=C1",
        "Molecular Formula": "C<sub>8</sub>H<sub>7</sub>FO<sub>2</sub>",
        "Molecular Mass": "154.14",
        "Boiling Point": "164 °C",
        "Melting Point": "86 °C"
    }
}