{
    "cas_no": "111-79-5",
    "key_name": "Methyl 2-nonenoate",
    "cn_name": "2-壬烯酸甲酯;",
    "alternate_name": "2-Nonenoic acid, methyl ester;Methyl 2-nonenoate;Neofolione;NSC 76416",
    "duplicated_cas_no": "",
    "SMILES": "C(C=CC(OC)=O)CCCCC",
    "meta_data": {
        "InChI": "InChI=1S/C10H18O2/c1-3-4-5-6-7-8-9-10(11)12-2/h8-9H,3-7H2,1-2H3",
        "InChIKey": null,
        "Canonical SMILES": "O=C(OC)C=CCCCCCC",
        "Molecular Formula": "C<sub>10</sub>H<sub>18</sub>O<sub>2</sub>",
        "Molecular Mass": "170.25",
        "Boiling Point": "108-109 °C @ Press: 12 Torr"
    }
}