{
    "cas_no": "6631-94-3",
    "key_name": "2-Acetylphenothiazine",
    "cn_name": "2-乙酰基吩噻嗪;",
    "alternate_name": "Ethanone, 1-(10<em>H</em>-phenothiazin-2-yl)-;Ketone, methyl phenothiazin-2-yl;1-(10<em>H</em>-Phenothiazin-2-yl)ethanone;2-Acetylphenothiazine;2-Acetyl-10<em>H</em>-phenothiazine;NSC 169669;NSC 57951;1-(10<em>H</em>-Phenothiazin-2-yl)ethan-1-one",
    "duplicated_cas_no": "",
    "SMILES": "C(C)(=O)C=1C=C2C(SC=3C(N2)=CC=CC3)=CC1",
    "meta_data": {
        "InChI": "InChI=1S/C14H11NOS/c1-9(16)10-6-7-14-12(8-10)15-11-4-2-3-5-13(11)17-14/h2-8,15H,1H3",
        "InChIKey": null,
        "Canonical SMILES": "O=C(C1=CC=C2SC=3C=CC=CC3NC2=C1)C",
        "Molecular Formula": "C<sub>14</sub>H<sub>11</sub>NOS",
        "Molecular Mass": "241.31",
        "Melting Point": "188-189 °C"
    }
}