{
    "cas_no": "728-61-0",
    "key_name": "Linderalactone",
    "cn_name": "钓樟内酯;",
    "alternate_name": "6<em>H</em>-4,7-Methenofuro[3,2-<em>c</em>]oxacycloundecin-6-one, 4,8,9,12-tetrahydro-3,11-dimethyl-, (4<em>R</em>,10<em>E</em>)-;Germacra-1(10),4,7,11-tetraen-15-oic acid, 8,12-epoxy-6α-hydroxy-, γ-lactone, (<em>E</em>)-(+)-;Linderalactone;6<em>H</em>-4,7-Methenofuro[3,2-<em>c</em>]oxacycloundecin-6-one, 4,8,9,12-tetrahydro-3,11-dimethyl-, [<em>R</em>-(<em>E</em>)]-;(4<em>R</em>,10<em>E</em>)-4,8,9,12-Tetrahydro-3,11-dimethyl-6<em>H</em>-4,7-methenofuro[3,2-<em>c</em>]oxacycloundecin-6-one",
    "duplicated_cas_no": "32663-41-5;857366-20-2",
    "SMILES": "",
    "meta_data": {
        "InChI": "",
        "InChIKey": null,
        "Canonical SMILES": "",
        "Molecular Formula": "C<sub>15</sub>H<sub>16</sub>O<sub>3</sub>",
        "Molecular Mass": "244.29",
        "Melting Point": "136-138 °C"
    }
}