{
    "cas_no": "94-98-4",
    "key_name": "2,4-Dimethylbenzenemethanamine",
    "cn_name": "2,4-二甲基苄胺;",
    "alternate_name": "Benzenemethanamine, 2,4-dimethyl-;Benzylamine, 2,4-dimethyl-;2,4-Dimethylbenzenemethanamine;2,4-Dimethylbenzylamine;(2,4-Dimethylphenyl)methanamine",
    "duplicated_cas_no": "",
    "SMILES": "C(N)C1=C(C)C=C(C)C=C1",
    "meta_data": {
        "InChI": "InChI=1S/C9H13N/c1-7-3-4-9(6-10)8(2)5-7/h3-5H,6,10H2,1-2H3",
        "InChIKey": null,
        "Canonical SMILES": "NCC1=CC=C(C=C1C)C",
        "Molecular Formula": "C<sub>9</sub>H<sub>13</sub>N",
        "Molecular Mass": "135.21",
        "Boiling Point": "105-115 °C @ Press: 20 Torr",
        "Melting Point": "214-216 °C"
    }
}