{
    "cas_no": "6971-51-3",
    "key_name": "3-Methoxybenzyl alcohol",
    "cn_name": "3-甲氧基苯甲醇;间甲氧基苯甲醇;",
    "alternate_name": "Benzenemethanol, 3-methoxy-;Benzyl alcohol, <em>m</em>-methoxy-;3-Methoxybenzenemethanol;<em>m</em>-Methoxybenzyl alcohol;3-Methoxybenzyl alcohol;(3-Methoxyphenyl)methanol;<em>m</em>-Anisalcohol;1-(Hydroxymethyl)-3-methoxybenzene;NSC 66559;[3-(Methyloxy)phenyl]methanol",
    "duplicated_cas_no": "185532-85-8",
    "SMILES": "C(O)C1=CC(OC)=CC=C1",
    "meta_data": {
        "InChI": "InChI=1S/C8H10O2/c1-10-8-4-2-3-7(5-8)6-9/h2-5,9H,6H2,1H3",
        "InChIKey": null,
        "Canonical SMILES": "OCC=1C=CC=C(OC)C1",
        "Molecular Formula": "C<sub>8</sub>H<sub>10</sub>O<sub>2</sub>",
        "Molecular Mass": "138.16",
        "Boiling Point": "252 °C",
        "Melting Point": "29-30 °C"
    }
}