{
    "cas_no": "5396-71-4",
    "key_name": "2-Propenoic acid, 3-(3-nitrophenyl)-, ethyl ester",
    "cn_name": "3-硝基肉桂酸乙酯;3-硝基肉桂酸乙酯;间硝基肉桂酸乙酯;",
    "alternate_name": "2-Propenoic acid, 3-(3-nitrophenyl)-, ethyl ester;Cinnamic acid, <em>m</em>-nitro-, ethyl ester;Ethyl <em>m</em>-nitrocinnamate;Ethyl 3-nitrocinnamate;3-(3-Nitrophenyl)-2-propenoic acid ethyl ester;NSC 4346;3-(3-Nitrophenyl)acrylic acid ethyl ester",
    "duplicated_cas_no": "",
    "SMILES": "C(=CC(OCC)=O)C1=CC(N(=O)=O)=CC=C1",
    "meta_data": {
        "InChI": "InChI=1S/C11H11NO4/c1-2-16-11(13)7-6-9-4-3-5-10(8-9)12(14)15/h3-8H,2H2,1H3",
        "InChIKey": null,
        "Canonical SMILES": "O=C(OCC)C=CC1=CC=CC(=C1)N(=O)=O",
        "Molecular Formula": "C<sub>11</sub>H<sub>11</sub>NO<sub>4</sub>",
        "Molecular Mass": "221.21",
        "Melting Point": "110 °C"
    }
}