{
    "cas_no": "19407-42-2",
    "key_name": "2-(Acetylamino)-6-chlorobenzoic acid",
    "cn_name": "2-乙酸胺基-6-氯苯甲酸;",
    "alternate_name": "Benzoic acid, 2-(acetylamino)-6-chloro-;Anthranilic acid, <em>N</em>-acetyl-6-chloro-;2-(Acetylamino)-6-chlorobenzoic acid;<em>N</em>-Acetyl-6-chloroanthranilic acid;2-Acetamido-6-chlorobenzoic acid;2-Chloro-6-acetamidobenzoic acid",
    "duplicated_cas_no": "",
    "SMILES": "C(O)(=O)C1=C(NC(C)=O)C=CC=C1Cl",
    "meta_data": {
        "InChI": "InChI=1S/C9H8ClNO3/c1-5(12)11-7-4-2-3-6(10)8(7)9(13)14/h2-4H,1H3,(H,11,12)(H,13,14)",
        "InChIKey": null,
        "Canonical SMILES": "O=C(O)C=1C(Cl)=CC=CC1NC(=O)C",
        "Molecular Formula": "C<sub>9</sub>H<sub>8</sub>ClNO<sub>3</sub>",
        "Molecular Mass": "213.62",
        "Melting Point": "204-207 °C"
    }
}