{
    "cas_no": "55-43-6",
    "key_name": "Benzenemethanamine, <em>N</em>-(2-chloroethyl)-<em>N</em>-(phenylmethyl)-, hydrochloride (1:1)",
    "cn_name": "三聚甘油单硬脂酸酯;",
    "alternate_name": "Benzenemethanamine, <em>N</em>-(2-chloroethyl)-<em>N</em>-(phenylmethyl)-, hydrochloride (1:1);Dibenzylamine, <em>N</em>-(2-chloroethyl)-, hydrochloride;Benzenemethanamine, <em>N</em>-(2-chloroethyl)-<em>N</em>-(phenylmethyl)-, hydrochloride;<em>N</em>-(2-Chloroethyl)dibenzylamine hydrochloride;Dibenamine hydrochloride;(<em>N</em>,<em>N</em>-Dibenzylamino)ethyl chloride hydrochloride;<em>N</em>,<em>N</em>-Dibenzyl-β-chloroethylamine hydrochloride;(β-Chloroethyl)dibenzylamine hydrochloride;Sympatholytin;2-(Dibenzylamino)ethyl chloride hydrochloride;(2-Chloroethyl)dibenzylamine hydrochloride;<em>N</em>,<em>N</em>-Dibenzyl-2-chloroethanamine hydrochloride",
    "duplicated_cas_no": "798545-01-4",
    "SMILES": "N(CC1=CC=CC=C1)(CC2=CC=CC=C2)CCCl.Cl",
    "meta_data": {
        "InChI": "InChI=1S/C16H18ClN.ClH/c17-11-12-18(13-15-7-3-1-4-8-15)14-16-9-5-2-6-10-16;/h1-10H,11-14H2;1H",
        "InChIKey": null,
        "Canonical SMILES": "Cl.ClCCN(CC=1C=CC=CC1)CC=2C=CC=CC2",
        "Molecular Formula": "C<sub>16</sub>H<sub>18</sub>ClN.ClH",
        "Molecular Mass": "",
        "Melting Point": "192 °C"
    }
}