{
    "cas_no": "5328-01-8",
    "key_name": "1-Ethoxynaphthalene",
    "cn_name": null,
    "alternate_name": "Naphthalene, 1-ethoxy-;1-Ethoxynaphthalene;Ethyl α-naphthyl ether;Ethyl 1-naphthyl ether;α-Ethoxynaphthalene;NSC 4174",
    "duplicated_cas_no": "",
    "SMILES": "O(CC)C=1C2=C(C=CC1)C=CC=C2",
    "meta_data": {
        "InChI": "InChI=1S/C12H12O/c1-2-13-12-9-5-7-10-6-3-4-8-11(10)12/h3-9H,2H2,1H3",
        "InChIKey": null,
        "Canonical SMILES": "O(C1=CC=CC=2C=CC=CC12)CC",
        "Molecular Formula": "C<sub>12</sub>H<sub>12</sub>O",
        "Molecular Mass": "172.22",
        "Boiling Point": "280.5 °C",
        "Melting Point": "5.5 °C"
    }
}