{
    "cas_no": "591-23-1",
    "key_name": "3-Methylcyclohexanol",
    "cn_name": "3-甲基环己醇;间甲基环己醇;六氢间甲酚;",
    "alternate_name": "Cyclohexanol, 3-methyl-;3-Methylcyclohexanol;3-Methyl-1-cyclohexanol;NSC 123022",
    "duplicated_cas_no": "",
    "SMILES": "CC1CC(O)CCC1",
    "meta_data": {
        "InChI": "InChI=1S/C7H14O/c1-6-3-2-4-7(8)5-6/h6-8H,2-5H2,1H3",
        "InChIKey": null,
        "Canonical SMILES": "OC1CCCC(C)C1",
        "Molecular Formula": "C<sub>7</sub>H<sub>14</sub>O",
        "Molecular Mass": "114.19",
        "Boiling Point": "174 °C",
        "Melting Point": "36-37 °C",
        "Density": "0.92 g/cm³"
    }
}