{
    "cas_no": "1080-07-5",
    "key_name": "3-(3-Bromo-4-methoxyphenyl)-2-propenoic acid",
    "cn_name": null,
    "alternate_name": "2-Propenoic acid, 3-(3-bromo-4-methoxyphenyl)-;Cinnamic acid, 3-bromo-4-methoxy-;3-(3-Bromo-4-methoxyphenyl)-2-propenoic acid;3-Bromo-4-methoxycinnamic acid",
    "duplicated_cas_no": "",
    "SMILES": "C(=CC(O)=O)C1=CC(Br)=C(OC)C=C1",
    "meta_data": {
        "InChI": "InChI=1S/C10H9BrO3/c1-14-9-4-2-7(6-8(9)11)3-5-10(12)13/h2-6H,1H3,(H,12,13)",
        "InChIKey": null,
        "Canonical SMILES": "O=C(O)C=CC1=CC=C(OC)C(Br)=C1",
        "Molecular Formula": "C<sub>10</sub>H<sub>9</sub>BrO<sub>3</sub>",
        "Molecular Mass": "257.08",
        "Melting Point": "241-243 °C"
    }
}