{
    "cas_no": "1195-91-1",
    "key_name": "2-Bromo-5,5-dimethyl-1,3-cyclohexanedione",
    "cn_name": null,
    "alternate_name": "1,3-Cyclohexanedione, 2-bromo-5,5-dimethyl-;2-Bromo-5,5-dimethyl-1,3-cyclohexanedione;Bromodimedone;2-Bromodimedone;1-Bromo-4,4-dimethyl-2,6-cyclohexanedione",
    "duplicated_cas_no": "",
    "SMILES": "CC1(C)CC(=O)C(Br)C(=O)C1",
    "meta_data": {
        "InChI": "InChI=1S/C8H11BrO2/c1-8(2)3-5(10)7(9)6(11)4-8/h7H,3-4H2,1-2H3",
        "InChIKey": null,
        "Canonical SMILES": "O=C1CC(C)(C)CC(=O)C1Br",
        "Molecular Formula": "C<sub>8</sub>H<sub>11</sub>BrO<sub>2</sub>",
        "Molecular Mass": "219.08",
        "Melting Point": "175-176 °C (decomp)"
    }
}