{
    "cas_no": "6519-67-1",
    "key_name": "Tryptophan, ethyl ester, hydrochloride (1:1)",
    "cn_name": null,
    "alternate_name": "Tryptophan, ethyl ester, hydrochloride (1:1);Tryptophan, ethyl ester, monohydrochloride, <span class=\"text-smallcaps\">DL</span>-;<span class=\"text-smallcaps\">DL</span>-Tryptophan, ethyl ester, monohydrochloride;Tryptophan, ethyl ester, monohydrochloride;NSC 34499",
    "duplicated_cas_no": "",
    "SMILES": "C(C(C(OCC)=O)N)C=1C=2C(NC1)=CC=CC2.Cl",
    "meta_data": {
        "InChI": "InChI=1S/C13H16N2O2.ClH/c1-2-17-13(16)11(14)7-9-8-15-12-6-4-3-5-10(9)12;/h3-6,8,11,15H,2,7,14H2,1H3;1H",
        "InChIKey": null,
        "Canonical SMILES": "Cl.O=C(OCC)C(N)CC1=CNC=2C=CC=CC21",
        "Molecular Formula": "C<sub>13</sub>H<sub>16</sub>N<sub>2</sub>O<sub>2</sub>.ClH",
        "Molecular Mass": "",
        "Melting Point": "233 °C (decomp)"
    }
}