{
    "cas_no": "1068-27-5",
    "key_name": "2,5-Dimethyl-2,5-di(tert-butylperoxy)hexyne-3",
    "cn_name": "2,5-二甲基-2,5-二叔丁基过氧基-3-己炔;",
    "alternate_name": "Peroxide, 1,1′-(1,1,4,4-tetramethyl-2-butyne-1,4-diyl)bis[2-(1,1-dimethylethyl);Peroxide, (1,1,4,4-tetramethyl-2-butynylene)bis[<em>tert</em>-butyl;Peroxide, (1,1,4,4-tetramethyl-2-butyne-1,4-diyl)bis[(1,1-dimethylethyl);Peroxide, (tetramethyl-2-butynylene)bis[<em>tert</em>-butyl;1,1′-(1,1,4,4-Tetramethyl-2-butyne-1,4-diyl)bis[2-(1,1-dimethylethyl) peroxide];3,4,9,10-Tetraoxadodec-6-yne, 2,2,5,5,8,8,11,11-octamethyl-;Luperox 130;Lupersol 130;Luperco 130XL;Cab-O-Cure 2P;2,5-Dimethyl-2,5-bis(<em>tert</em>-butyldioxy)-3-hexyne;Perhexyne 2.5B;2,5-Dimethyl-2,5-bis(<em>tert</em>-butylperoxy)-3-hexyne;PX 1;Kayahexa YD;Perhexyne 2.5B40;Perhexyne 25B40;Perhexyne 25B;2,5-Dimethyl-2,5-di(<em>t</em>-butylperoxy)hexyne-3;2,5-Bis(<em>tert</em>-butylperoxy)-2,5-dimethyl-3-hexyne;Trigonox 145;Luperox XL 130;Varox 130XL;PX 1 (peroxide);2,5-Di(<em>tert</em>-butylperoxy)-2,5-dimethyl-3-hexyne;2,5-Dimethyl-2,5-di(<em>tert</em>-butylperoxy)-3-hexyne;2,5-Bis(<em>tert</em>-butylperoxy)-2,5-dimethylhexyne;2,5-Dimethyl-2,5-di(<em>t</em>-butylperoxy)-3-hexyne;L 130;L 130 (peroxide);Trigonox 145E85;LX 130;2,5-Dimethyl-2,5-di(tert-butylperoxy)hexyne-3;Sanperox YPO;DYBP;Trigonox 145-45B;2,5-Dimethyl-2,5-di-<em>tert</em>-butylperoxyhexyne;Aztec DYBP;25B;Peroxide D 25;D 25 (peroxide);D 25;Interox DYBP;Trigonox 145B45PD;2,5-Dimethyl-2,5-di(<em>tert</em>-butylperoxy)hexyne-3;Kayahexa YD 50C;Luperox 130XL45;2,5-Dimethyl-2,5-di(t-butylperoxy)hexyne;DYBP 85WO;2,5-Dimethyl-2,5-bis(<em>tert</em>-butylperoxy)hexyne;Trigonox 101HP;2,5-Dimethyl-2,5-(tert-butylperoxy)hexyne-3;Enox 101;P 130 (peroxide);P 130",
    "duplicated_cas_no": "151768-59-1;261178-83-0;2780415-28-1",
    "SMILES": "C(C#CC(OOC(C)(C)C)(C)C)(OOC(C)(C)C)(C)C",
    "meta_data": {
        "InChI": "InChI=1S/C16H30O4/c1-13(2,3)17-19-15(7,8)11-12-16(9,10)20-18-14(4,5)6/h1-10H3",
        "InChIKey": null,
        "Canonical SMILES": "C(#CC(OOC(C)(C)C)(C)C)C(OOC(C)(C)C)(C)C",
        "Molecular Formula": "C<sub>16</sub>H<sub>30</sub>O<sub>4</sub>",
        "Molecular Mass": "286.41",
        "Boiling Point": "65-67 °C @ Press: 2 Torr",
        "Density": "0.881 g/cm³ @ Temp: 25 °C"
    }
}