{
    "cas_no": "776-53-4",
    "key_name": "5-Pyrimidinecarboxylic acid, 4-amino-2-(methylthio)-, ethyl ester",
    "cn_name": "2-甲硫基-4-氨基嘧啶-5-羧酸乙酯;",
    "alternate_name": "5-Pyrimidinecarboxylic acid, 4-amino-2-(methylthio)-, ethyl ester;4-Amino-2-methanethiopyrimidine-5-carboxylic acid ethyl ester;Ethyl 4-amino-2-(methylthio)pyrimidine-5-carboxylate;NSC 9310;Ethyl 4-amino-2-methylsulfanyl-5-pyrimidinecarboxylate",
    "duplicated_cas_no": "",
    "SMILES": "C(OCC)(=O)C=1C(N)=NC(SC)=NC1",
    "meta_data": {
        "InChI": "InChI=1S/C8H11N3O2S/c1-3-13-7(12)5-4-10-8(14-2)11-6(5)9/h4H,3H2,1-2H3,(H2,9,10,11)",
        "InChIKey": null,
        "Canonical SMILES": "O=C(OCC)C1=CN=C(N=C1N)SC",
        "Molecular Formula": "C<sub>8</sub>H<sub>11</sub>N<sub>3</sub>O<sub>2</sub>S",
        "Molecular Mass": "213.26",
        "Melting Point": "127-128 °C"
    }
}