{
    "cas_no": "81098-60-4",
    "key_name": "Cisapride",
    "cn_name": "西沙必利;(+/-)-顺式-4-氨基-5-氯-N-[1-[3-(4-氟苯氧基)丙基]-3-甲氧基-4-哌啶基]-2-甲氧基苯甲酰胺;",
    "alternate_name": "Benzamide, 4-amino-5-chloro-<em>N</em>-[(3<em>R</em>,4<em>S</em>)-1-[3-(4-fluorophenoxy)propyl]-3-methoxy-4-piperidinyl]-2-methoxy-, <em>rel</em>-;Benzamide, 4-amino-5-chloro-<em>N</em>-[1-[3-(4-fluorophenoxy)propyl]-3-methoxy-4-piperidinyl]-2-methoxy-, <em>cis</em>-;<em>rel</em>-4-Amino-5-chloro-<em>N</em>-[(3<em>R</em>,4<em>S</em>)-1-[3-(4-fluorophenoxy)propyl]-3-methoxy-4-piperidinyl]-2-methoxybenzamide;Cisapride;R 51619;Propulsid;Acenalin;(±)-Cisapride;T 1341;Prepulsid;<em>cis</em>-2-Methoxy-4-amino-5-chloro-<em>N</em>-[1-[3-(4-fluorophenoxy)propyl]-3-methoxy-4-piperidinyl]benzamide;Propulsin;Alimix;Risamal;Cipril;Coordinax;Cisad;MeSH ID: D020117",
    "duplicated_cas_no": "86718-68-5",
    "SMILES": "C(N[C@H]1[C@@H](OC)CN(CCCOC2=CC=C(F)C=C2)CC1)(=O)C3=C(OC)C=C(N)C(Cl)=C3",
    "meta_data": {
        "InChI": "InChI=1/C23H29ClFN3O4/c1-30-21-13-19(26)18(24)12-17(21)23(29)27-20-8-10-28(14-22(20)31-2)9-3-11-32-16-6-4-15(25)5-7-16/h4-7,12-13,20,22H,3,8-11,14,26H2,1-2H3,(H,27,29)/t20-,22+/s2",
        "InChIKey": null,
        "Canonical SMILES": "O=C(NC1CCN(CCCOC2=CC=C(F)C=C2)CC1OC)C=3C=C(Cl)C(N)=CC3OC",
        "Molecular Formula": "C<sub>23</sub>H<sub>29</sub>ClFN<sub>3</sub>O<sub>4</sub>",
        "Molecular Mass": "465.95",
        "Melting Point": "109.8 °C"
    }
}