{
    "cas_no": "499-44-5",
    "key_name": "Hinokitiol",
    "cn_name": "桧木醇;2-羟基-4-异丙基-2,4,6-环庚三烯-1-酮;",
    "alternate_name": "2,4,6-Cycloheptatrien-1-one, 2-hydroxy-4-(1-methylethyl)-;2,4,6-Cycloheptatrien-1-one, 2-hydroxy-4-isopropyl-;2-Hydroxy-4-(1-methylethyl)-2,4,6-cycloheptatrien-1-one;Hinokitiol;2-Hydroxy-4-isopropyl-2,4,6-cycloheptatrien-1-one;4-Isopropyltropolone;β-Thujaplicin;β-Thujaplicine;β-Isopropyltropolon;IPT;6-Isopropyltropolone;Hyka 1;S-HT;HT-SF;NSC 18804;Kisei Pro-Sol N;Hinokitiol S-HT;beta-Thujaplicin;beta-Thujaplicine;H 0142;2-Hydroxy-6-propan-2-ylcyclohepta-2,4,6-trien-1-one;2-Hydroxy-6-(propan-2-yl)cyclohepta-2,4,6-trien-1-one;2-Hydroxy-4-(propan-2-yl)cyclohepta-2,4,6-trien-1-one",
    "duplicated_cas_no": "772-41-8;333760-35-3;1411673-73-8",
    "SMILES": "C(C)(C)C=1C=C(O)C(=O)C=CC1",
    "meta_data": {
        "InChI": "InChI=1S/C10H12O2/c1-7(2)8-4-3-5-9(11)10(12)6-8/h3-7H,1-2H3,(H,11,12)",
        "InChIKey": null,
        "Canonical SMILES": "O=C1C=CC=C(C=C1O)C(C)C",
        "Molecular Formula": "C<sub>10</sub>H<sub>12</sub>O<sub>2</sub>",
        "Molecular Mass": "164.20",
        "Melting Point": "52-52.5 °C",
        "Density": "1.21 g/cm³"
    }
}