{
    "cas_no": "13672-07-6",
    "key_name": "2-Bromo-1-tetralone",
    "cn_name": "2-溴-3,4-二氢-2H-1-萘酮;2-溴-1-四氢萘酮;",
    "alternate_name": "1(2<em>H</em>)-Naphthalenone, 2-bromo-3,4-dihydro-;2-Bromo-3,4-dihydro-1(2<em>H</em>)-naphthalenone;2-Bromo-1-tetralone;2-Bromo-α-tetralone;2-Bromotetralone;2-Bromo-1-oxotetralin;3,4-Dihydro-2-bromo-1(2<em>H</em>)-naphthalenone;2-Bromo-3,4-dihydro-2<em>H</em>-naphthalen-1-one;NSC 402212;2-Bromo-1,2,3,4-tetrahydro-1-naphthalenone",
    "duplicated_cas_no": "121254-08-8",
    "SMILES": "O=C1C=2C(CCC1Br)=CC=CC2",
    "meta_data": {
        "InChI": "InChI=1S/C10H9BrO/c11-9-6-5-7-3-1-2-4-8(7)10(9)12/h1-4,9H,5-6H2",
        "InChIKey": null,
        "Canonical SMILES": "O=C1C=2C=CC=CC2CCC1Br",
        "Molecular Formula": "C<sub>10</sub>H<sub>9</sub>BrO",
        "Molecular Mass": "225.08",
        "Boiling Point": "140-142 °C @ Press: 0.56-1 Torr",
        "Melting Point": "40-41 °C"
    }
}