{
    "cas_no": "37993-32-1",
    "key_name": "Cyclohexanecarboxylic acid, 1-amino-, methyl ester, hydrochloride (1:1)",
    "cn_name": null,
    "alternate_name": "Cyclohexanecarboxylic acid, 1-amino-, methyl ester, hydrochloride (1:1);Cyclohexanecarboxylic acid, 1-amino-, methyl ester, hydrochloride;Methyl 1-aminocyclohexanecarboxylate hydrochloride;1-Aminocyclohexanecarboxylic acid methyl ester hydrochloride",
    "duplicated_cas_no": "2306907-37-7",
    "SMILES": "C(OC)(=O)C1(N)CCCCC1.Cl",
    "meta_data": {
        "InChI": "InChI=1S/C8H15NO2.ClH/c1-11-7(10)8(9)5-3-2-4-6-8;/h2-6,9H2,1H3;1H",
        "InChIKey": null,
        "Canonical SMILES": "Cl.O=C(OC)C1(N)CCCCC1",
        "Molecular Formula": "C<sub>8</sub>H<sub>15</sub>NO<sub>2</sub>.ClH",
        "Molecular Mass": "",
        "Melting Point": "210-212 °C"
    }
}