{
    "cas_no": "55779-48-1",
    "key_name": "Coelenterazine",
    "cn_name": "腔肠素;2-[(4-羟基苯基)甲基]-6-(4-羟基苯基)-8-苄基-咪唑并[1,2-a]吡嗪-3-(7H)-酮;",
    "alternate_name": "Imidazo[1,2-<em>a</em>]pyrazin-3(7<em>H</em>)-one, 6-(4-hydroxyphenyl)-2-[(4-hydroxyphenyl)methyl]-8-(phenylmethyl)-;6-(4-Hydroxyphenyl)-2-[(4-hydroxyphenyl)methyl]-8-(phenylmethyl)imidazo[1,2-<em>a</em>]pyrazin-3(7<em>H</em>)-one;Coelenterazine;Preluciferin;Preluciferin (Watasenia);Luciferin;Coelenterazin;NanoFuel;Watasenia preluciferin;Coelenterazine ntv;Native coelenterazine;Coelenterazine luciferin;2-(4-Hydroxyphenylmethyl)-6-(4-hydroxyphenyl)-8-(phenylmethyl)imidazo[1,2-<em>a</em>]pyrazin-3(7<em>H</em>)-one;Native CTZ;NCTZ;Luciferin (Oplophorus)",
    "duplicated_cas_no": "57683-96-2",
    "SMILES": "C(C1=C2N(C=C(N1)C3=CC=C(O)C=C3)C(=O)C(CC4=CC=C(O)C=C4)=N2)C5=CC=CC=C5",
    "meta_data": {
        "InChI": "InChI=1S/C26H21N3O3/c30-20-10-6-18(7-11-20)15-23-26(32)29-16-24(19-8-12-21(31)13-9-19)27-22(25(29)28-23)14-17-4-2-1-3-5-17/h1-13,16,27,30-31H,14-15H2",
        "InChIKey": null,
        "Canonical SMILES": "O=C1C(=NC2=C(NC(=CN12)C=3C=CC(O)=CC3)CC=4C=CC=CC4)CC5=CC=C(O)C=C5",
        "Molecular Formula": "C<sub>26</sub>H<sub>21</sub>N<sub>3</sub>O<sub>3</sub>",
        "Molecular Mass": "423.46",
        "Melting Point": "176-181 °C (decomp)"
    }
}