{
    "cas_no": "924663-40-1",
    "key_name": "2-[[[4-(3-Methoxypropoxy)-3-methyl-1-oxido-2-pyridinyl]methyl]thio]-1<em>H</em>-benzimidazole",
    "cn_name": null,
    "alternate_name": "1<em>H</em>-Benzimidazole, 2-[[[4-(3-methoxypropoxy)-3-methyl-1-oxido-2-pyridinyl]methyl]thio]-;2-[[[4-(3-Methoxypropoxy)-3-methyl-1-oxido-2-pyridinyl]methyl]thio]-1<em>H</em>-benzimidazole;2-[[[3-Methyl-4-(3-methoxypropoxy)-1-oxo-2-pyridinyl]methyl]sulfanyl]-1<em>H</em>-benzimidazole;2-[[4-(3-Methoxypropoxy)-3-methyl-1-oxidopyridin-1-ium-2-yl]methylsulfanyl]-1<em>H</em>-benzimidazole",
    "duplicated_cas_no": "",
    "SMILES": "S(CC1=C(C)C(OCCCOC)=CC=N1=O)C=2NC=3C(N2)=CC=CC3",
    "meta_data": {
        "InChI": "InChI=1S/C18H21N3O3S/c1-13-16(21(22)9-8-17(13)24-11-5-10-23-2)12-25-18-19-14-6-3-4-7-15(14)20-18/h3-4,6-9H,5,10-12H2,1-2H3,(H,19,20)",
        "InChIKey": null,
        "Canonical SMILES": "O=N1=CC=C(OCCCOC)C(=C1CSC2=NC=3C=CC=CC3N2)C",
        "Molecular Formula": "C<sub>18</sub>H<sub>21</sub>N<sub>3</sub>O<sub>3</sub>S",
        "Molecular Mass": "359.44",
        "Melting Point": "149-150 °C"
    }
}