{
    "cas_no": "42822-86-6",
    "key_name": "<em>p</em>-Menthane-3,8-diol",
    "cn_name": "孟二醇;对薄荷基-3,8-二醇;2-羟基-alpha,alpha,4-三甲基环己烷甲醇;",
    "alternate_name": "Cyclohexanemethanol, 2-hydroxy-α,α,4-trimethyl-;<em>p</em>-Menthane-3,8-diol;2-Hydroxy-α,α,4-trimethylcyclohexanemethanol;3,8-<em>p</em>-Menthanediol;1-Hydroxy-5-methyl-2-(1-methyl-1-hydroxyethyl)cyclohexane;1-Hydroxy-2-(1-methyl-1-hydroxyethyl)-5-methylcyclohexane;Geranium cyclohexane;Geranodyle;Citriodiol;Citrepel;Cooling agent 38D;<em>p</em>-Menthan-3,8-diol;2-(2-Hydroxypropan-2-yl)-5-methylcyclohexan-1-ol;2-(2-Hydroxypropan-2-yl)-5-methylcyclohexanol;Citradiol",
    "duplicated_cas_no": "",
    "SMILES": "C(C)(C)(O)C1C(O)CC(C)CC1",
    "meta_data": {
        "InChI": "InChI=1S/C10H20O2/c1-7-4-5-8(9(11)6-7)10(2,3)12/h7-9,11-12H,4-6H2,1-3H3",
        "InChIKey": null,
        "Canonical SMILES": "OC1CC(C)CCC1C(O)(C)C",
        "Molecular Formula": "C<sub>10</sub>H<sub>20</sub>O<sub>2</sub>",
        "Molecular Mass": "172.26",
        "Melting Point": "82-83 °C"
    }
}