{
    "cas_no": "4644-61-5",
    "key_name": "3-Piperidinecarboxylic acid, 4-oxo-, ethyl ester, hydrochloride (1:1)",
    "cn_name": "4-哌啶酮-3-甲酸乙酯盐酸盐;盐酸-4-哌啶酮-3-羧酸乙酯;",
    "alternate_name": "3-Piperidinecarboxylic acid, 4-oxo-, ethyl ester, hydrochloride (1:1);Nipecotic acid, 4-oxo-, ethyl ester, hydrochloride;3-Piperidinecarboxylic acid, 4-oxo-, ethyl ester, hydrochloride;3-Ethoxycarbonyl-4-piperidinone hydrochloride;Ethyl 4-piperidone-3-carboxylate hydrochloride;3-Ethoxycarbonyl-4-piperidone hydrochloride;Ethyl 4-oxo-3-piperidinecarboxylate hydrochloride;4-Oxo-3-piperidinecarboxylic acid ethyl ester hydrochloride;3-(Ethoxycarbonyl)-4-oxopiperidinium chloride;NSC 74467",
    "duplicated_cas_no": "178210-93-0;916814-38-5",
    "SMILES": "C(OCC)(=O)C1C(=O)CCNC1.Cl",
    "meta_data": {
        "InChI": "InChI=1S/C8H13NO3.ClH/c1-2-12-8(11)6-5-9-4-3-7(6)10;/h6,9H,2-5H2,1H3;1H",
        "InChIKey": null,
        "Canonical SMILES": "Cl.O=C(OCC)C1C(=O)CCNC1",
        "Molecular Formula": "C<sub>8</sub>H<sub>13</sub>NO<sub>3</sub>.ClH",
        "Molecular Mass": "",
        "Melting Point": "168-169 °C (decomp)"
    }
}