{
    "cas_no": "160232-08-6",
    "key_name": "1,1-Dimethylethyl <em>N</em>-[(1<em>S</em>,2<em>R</em>)-2-hydroxy-3-[(2-methylpropyl)amino]-1-(phenylmethyl)propyl]carbamate",
    "cn_name": null,
    "alternate_name": "Carbamic acid, <em>N</em>-[(1<em>S</em>,2<em>R</em>)-2-hydroxy-3-[(2-methylpropyl)amino]-1-(phenylmethyl)propyl]-, 1,1-dimethylethyl ester;Carbamic acid, [2-hydroxy-3-[(2-methylpropyl)amino]-1-(phenylmethyl)propyl]-, 1,1-dimethylethyl ester, [<em>R</em>-(<em>R</em>*,<em>S</em>*)]-;Carbamic acid, [(1<em>S</em>,2<em>R</em>)-2-hydroxy-3-[(2-methylpropyl)amino]-1-(phenylmethyl)propyl]-, 1,1-dimethylethyl ester;1,1-Dimethylethyl <em>N</em>-[(1<em>S</em>,2<em>R</em>)-2-hydroxy-3-[(2-methylpropyl)amino]-1-(phenylmethyl)propyl]carbamate;<em>tert</em>-Butyl [(1<em>S</em>,2<em>R</em>)-1-benzyl-2-hydroxy-3-(isobutylamino)propyl]carbamate;<em>tert</em>-Butyl [(2<em>S</em>,3<em>R</em>)-3-hydroxy-4-(isobutylamino)-1-phenylbutan-2-yl]carbamate",
    "duplicated_cas_no": "398516-25-1;1026701-61-0",
    "SMILES": "[C@@H](CC1=CC=CC=C1)(NC(OC(C)(C)C)=O)[C@@H](CNCC(C)C)O",
    "meta_data": {
        "InChI": "InChI=1S/C19H32N2O3/c1-14(2)12-20-13-17(22)16(11-15-9-7-6-8-10-15)21-18(23)24-19(3,4)5/h6-10,14,16-17,20,22H,11-13H2,1-5H3,(H,21,23)/t16-,17+/m0/s1",
        "InChIKey": null,
        "Canonical SMILES": "O=C(OC(C)(C)C)NC(CC=1C=CC=CC1)C(O)CNCC(C)C",
        "Molecular Formula": "C<sub>19</sub>H<sub>32</sub>N<sub>2</sub>O<sub>3</sub>",
        "Molecular Mass": "336.47",
        "Melting Point": "145 °C"
    }
}