{
    "cas_no": "116332-54-8",
    "key_name": "4-Fluoro-<em>N</em>-methoxy-<em>N</em>-methylbenzamide",
    "cn_name": null,
    "alternate_name": "Benzamide, 4-fluoro-<em>N</em>-methoxy-<em>N</em>-methyl-;4-Fluoro-<em>N</em>-methoxy-<em>N</em>-methylbenzamide;<em>N</em>-Methoxy-<em>N</em>-methyl-4-fluorobenzaldehyde;<em>N</em>-Methyl-<em>N</em>-methoxy-4-fluorobenzamide;4-Fluoro-<em>N</em>-methyl-<em>N</em>-methoxybenzamide;4-Fluoro-<em>N</em>-methoxy-<em>N</em>-methylbenzylamide",
    "duplicated_cas_no": "",
    "SMILES": "C(N(OC)C)(=O)C1=CC=C(F)C=C1",
    "meta_data": {
        "InChI": "InChI=1S/C9H10FNO2/c1-11(13-2)9(12)7-3-5-8(10)6-4-7/h3-6H,1-2H3",
        "InChIKey": null,
        "Canonical SMILES": "O=C(C1=CC=C(F)C=C1)N(OC)C",
        "Molecular Formula": "C<sub>9</sub>H<sub>10</sub>FNO<sub>2</sub>",
        "Molecular Mass": "183.18",
        "Boiling Point": "120 °C"
    }
}