{
    "cas_no": "10294-34-5",
    "key_name": "Boron trichloride",
    "cn_name": "三氯化硼;",
    "alternate_name": "Borane, trichloro-;Boron chloride (BCl<sub>3</sub>);Trichloroborane;Boron trichloride;Trichloroboron;Boron chloride",
    "duplicated_cas_no": "31012-04-1",
    "SMILES": "B(Cl)(Cl)Cl",
    "meta_data": {
        "InChI": "InChI=1S/BCl3/c2-1(3)4",
        "InChIKey": null,
        "Canonical SMILES": "ClB(Cl)Cl",
        "Molecular Formula": "BCl<sub>3</sub>",
        "Molecular Mass": "117.17",
        "Boiling Point": "12.5 °C",
        "Melting Point": "-107 °C",
        "Density": "1.35 g/cm³ @ Temp: 12 °C"
    }
}