{
    "cas_no": "960203-27-4",
    "key_name": "Vortioxetine hydrobromide",
    "cn_name": null,
    "alternate_name": "Piperazine, 1-[2-[(2,4-dimethylphenyl)thio]phenyl]-, hydrobromide (1:1);Lu AA 21004 hydrobromide;Vortioxetine hydrobromide;1-[2-[(2,4-Dimethylphenyl)thio]phenyl]piperazine hydrobromide;Vothiaxetine",
    "duplicated_cas_no": "2361026-23-3",
    "SMILES": "S(C1=C(C=CC=C1)N2CCNCC2)C3=C(C)C=C(C)C=C3.Br",
    "meta_data": {
        "InChI": "InChI=1S/C18H22N2S.BrH/c1-14-7-8-17(15(2)13-14)21-18-6-4-3-5-16(18)20-11-9-19-10-12-20;/h3-8,13,19H,9-12H2,1-2H3;1H",
        "InChIKey": null,
        "Canonical SMILES": "Br.S(C=1C=CC=CC1N2CCNCC2)C3=CC=C(C=C3C)C",
        "Molecular Formula": "C<sub>18</sub>H<sub>22</sub>N<sub>2</sub>S.BrH",
        "Molecular Mass": "",
        "Melting Point": "218 °C"
    }
}