{
    "cas_no": "5333-27-7",
    "key_name": "1-(4-Methyl-3-nitrophenyl)ethanone",
    "cn_name": "3-硝基-4-甲基苯乙酮;",
    "alternate_name": "Ethanone, 1-(4-methyl-3-nitrophenyl)-;Acetophenone, 4′-methyl-3′-nitro-;Acetophenone, 4-methyl-3-nitro-;1-(4-Methyl-3-nitrophenyl)ethanone;4′-Methyl-3′-nitroacetophenone;3′-Nitro-4′-methylacetophenone;NSC 617;1-(4-Methyl-3-nitrophenyl)ethan-1-one",
    "duplicated_cas_no": "",
    "SMILES": "N(=O)(=O)C1=CC(C(C)=O)=CC=C1C",
    "meta_data": {
        "InChI": "InChI=1S/C9H9NO3/c1-6-3-4-8(7(2)11)5-9(6)10(12)13/h3-5H,1-2H3",
        "InChIKey": null,
        "Canonical SMILES": "O=C(C1=CC=C(C(=C1)N(=O)=O)C)C",
        "Molecular Formula": "C<sub>9</sub>H<sub>9</sub>NO<sub>3</sub>",
        "Molecular Mass": "179.17",
        "Melting Point": "62 °C"
    }
}