{
    "cas_no": "502-49-8",
    "key_name": "Cyclooctanone",
    "cn_name": "环辛酮;",
    "alternate_name": "Cyclooctanone;NSC 9475",
    "duplicated_cas_no": "",
    "SMILES": "O=C1CCCCCCC1",
    "meta_data": {
        "InChI": "InChI=1S/C8H14O/c9-8-6-4-2-1-3-5-7-8/h1-7H2",
        "InChIKey": null,
        "Canonical SMILES": "O=C1CCCCCCC1",
        "Molecular Formula": "C<sub>8</sub>H<sub>14</sub>O",
        "Molecular Mass": "126.20",
        "Boiling Point": "196 °C",
        "Melting Point": "29 °C",
        "Density": "0.9584 g/cm³ @ Temp: 20 °C"
    }
}