{
    "cas_no": "771-51-7",
    "key_name": "Indole-3-acetonitrile",
    "cn_name": "吲哚-3-乙腈;",
    "alternate_name": "1<em>H</em>-Indole-3-acetonitrile;Indole-3-acetonitrile;3-Indolylacetonitrile;Indoleacetonitrile;Indolylacetonitrile;3-(Cyanomethyl)indole;IAN;3-Cyanomethyl-1<em>H</em>-indole;NSC 523272;(1<em>H</em>-Indol-3-yl)acetonitrile;2-(1<em>H</em>-Indol-3-yl)acetonitrile",
    "duplicated_cas_no": "",
    "SMILES": "C(C#N)C=1C=2C(NC1)=CC=CC2",
    "meta_data": {
        "InChI": "InChI=1S/C10H8N2/c11-6-5-8-7-12-10-4-2-1-3-9(8)10/h1-4,7,12H,5H2",
        "InChIKey": null,
        "Canonical SMILES": "N#CCC1=CNC=2C=CC=CC21",
        "Molecular Formula": "C<sub>10</sub>H<sub>8</sub>N<sub>2</sub>",
        "Molecular Mass": "156.18",
        "Boiling Point": "160 °C @ Press: 0.2 Torr",
        "Melting Point": "34.5-36.0 °C"
    }
}