{
    "cas_no": "4839-60-5",
    "key_name": "Chrysophanein",
    "cn_name": null,
    "alternate_name": "9,10-Anthracenedione, 1-(β-<span class=\"text-smallcaps\">D</span>-glucopyranosyloxy)-8-hydroxy-3-methyl-;Chrysophanein;Glucopyranoside, 8-hydroxy-3-methyl-1-anthraquinonyl, β-<span class=\"text-smallcaps\">D</span>-;1-(β-<span class=\"text-smallcaps\">D</span>-Glucopyranosyloxy)-8-hydroxy-3-methyl-9,10-anthracenedione;Chrysophaneine;Chrysophanol 1-<em>O</em>-β-<span class=\"text-smallcaps\">D</span>-glucopyranoside;1-<em>O</em>-β-<span class=\"text-smallcaps\">D</span>-Glucopyranosylchrysophanol;Chrysophanol 1-<em>O</em>-glucoside",
    "duplicated_cas_no": "1329-09-5;862252-97-9",
    "SMILES": "O(C1=C2C(C(=O)C=3C(C2=O)=C(O)C=CC3)=CC(C)=C1)[C@@H]4O[C@H](CO)[C@@H](O)[C@H](O)[C@H]4O",
    "meta_data": {
        "InChI": "InChI=1S/C21H20O9/c1-8-5-10-15(18(26)14-9(16(10)24)3-2-4-11(14)23)12(6-8)29-21-20(28)19(27)17(25)13(7-22)30-21/h2-6,13,17,19-23,25,27-28H,7H2,1H3/t13-,17-,19+,20-,21-/m1/s1",
        "InChIKey": null,
        "Canonical SMILES": "O=C1C=2C=CC=C(O)C2C(=O)C3=C(OC4OC(CO)C(O)C(O)C4O)C=C(C=C13)C",
        "Molecular Formula": "C<sub>21</sub>H<sub>20</sub>O<sub>9</sub>",
        "Molecular Mass": "416.38",
        "Melting Point": "245-246 °C"
    }
}