{
    "cas_no": "638-07-3",
    "key_name": "Ethyl 4-chloroacetoacetate",
    "cn_name": "4-氯乙酰乙酸乙酯;",
    "alternate_name": "Butanoic acid, 4-chloro-3-oxo-, ethyl ester;Acetoacetic acid, 4-chloro-, ethyl ester;γ-Chloroacetoacetic acid ethyl ester;Ethyl 4-chloroacetoacetate;Ethyl γ-chloroacetoacetate;Ethyl ω-chloroacetoacetate;Ethyl 4-chloro-3-oxobutanoate;Ethyl 4-chloro-3-oxobutyrate;4-Chloroacetoacetic acid ethyl ester;Ethyl (chloroacetyl)acetate;4-Chloro-3-oxobutyric acid ethyl ester;4-Chloro-3-oxobutanoic acid ethyl ester;4-Chloro acetoethylacetate;Ethyl 3-oxo-4-chlorobutanoate;Ethyl chloroacetoacetate",
    "duplicated_cas_no": "",
    "SMILES": "C(C(OCC)=O)C(CCl)=O",
    "meta_data": {
        "InChI": "InChI=1S/C6H9ClO3/c1-2-10-6(9)3-5(8)4-7/h2-4H2,1H3",
        "InChIKey": null,
        "Canonical SMILES": "O=C(OCC)CC(=O)CCl",
        "Molecular Formula": "C<sub>6</sub>H<sub>9</sub>ClO<sub>3</sub>",
        "Molecular Mass": "164.59",
        "Boiling Point": "107 °C @ Press: 14 Torr",
        "Melting Point": "-8 °C",
        "Density": "1.2182 g/cm³ @ Temp: 16 °C"
    }
}