{
    "cas_no": "75-17-2",
    "key_name": "Nitrone",
    "cn_name": "甲醛肟;甲酰肟水溶液;Formaldehydeoxime;Formaldoximesolution;Methyleneamine N-oxide;N-Hydroxymethylene;",
    "alternate_name": "Formaldehyde, oxime;Formaldoxime;Formoxime;Methyleneamine <em>N</em>-oxide;Methylenenitrone;Nitrone",
    "duplicated_cas_no": "113872-14-3",
    "SMILES": "N(=C)O",
    "meta_data": {
        "InChI": "InChI=1S/CH3NO/c1-2-3/h3H,1H2",
        "InChIKey": null,
        "Canonical SMILES": "ON=C",
        "Molecular Formula": "CH<sub>3</sub>NO",
        "Molecular Mass": "45.04",
        "Boiling Point": "109 °C",
        "Melting Point": "2.5 °C",
        "Density": "1.434 g/cm³ @ Temp: -5 °C"
    }
}