{
    "cas_no": "25155-30-0",
    "key_name": "Sodium dodecylbenzenesulfonate",
    "cn_name": "十二烷基苯磺酸钠;",
    "alternate_name": "Benzenesulfonic acid, dodecyl-, sodium salt (1:1);Benzenesulfonic acid, dodecyl-, sodium salt;Sodium laurylbenzenesulfonate;Stepan DS 60;Ultrawet 1T;Marlon A 350;Sodium dodecylphenylsulfonate;Sulframin 85;Marlon A;Dodecylbenzenesulfonic acid sodium salt;Maranil;Marlon A 375;Nacconol 35SL;Siponate DS 10;Trepolate F 40;Conoco C 550;KB (surfactant);Nansa SL;Santomerse Me;Merpisap AP 90P;Nansa SS;Trepolate F 95;Nansa HS 80;Deterlon;Ultrawet 99LS;Sulfuril 50;F 90;Elfan WA Powder;Sandet 60;Steinaryl NKS 50;Sinnozon;Nansa HS 85S;C 550;KB;HS 85S;Nansa HF 80;Arylan SBC;Marlon 375A;X 2073;Conco AAS 35H;Neopelex 05;Richonate 40B;DS 60;Pelopon A;Sulframin 1240;Richonate 1850;35SL;Calsoft L 40;Calsoft F 90;SDBS;Alkanate DC;Sulfaril Paste;Steinaryl NKS 100;Siponate DS 4;Siponate LDS 10;Nestapone;Nansa 1260;Marlon 375;Neopelex F 60;Abeson NAM;Emulin B 22;Neopelex 6;Bio-Soft D 40;Neogen SC;Nissan Newrex R;Conco AAS 35;Reworyl NKS 50;Elfan WA 35;Neopelex 25;Elfan WA 50;MB-VR;Marlon A 396;Neopelex F 25;Witconate 1238;Sulframin 40;Nacconol 40F;Nansa HS 80S;Conco AAS 45S;Newrex R;A 1-1575;Nansa 1106;Maranil A 55;Neopelex 6E;Liponox LE 110;Nissan Newrex H;Vista C 550;Witconate 1250;Conco AAS 40S;Bio-Soft D 35X;Stepantan DS 40;Phenyl Sulfonate HSR;Deterlon A;Polystep A 15;Nansa HS 80SA;Bio-Soft LAS 40S;Witconate 60B;Nissan Newrex F;Newrex Powder F;F 90 (sulfonic acid);Nansa SSA 055;Newrex T;Nissan Newrex T;Calsoft L 60;Bio-Soft D 62;Vista SA 597;Nacconol 90G;Caflon SNA;Polystep A 7;Dobanic 560;DS 60 (surfactant);Oromin O;Maranil A;Nansa 1169P;DoBS;Sodium laurylphenylsulfonate;Neopelex F 65;Marlon A 365;Sodium dodecylbenzenesulfonate;Newcol 220L;Rhodacal DS 4;Caflon NAS 30;Neogen S 20;Witconate 90;Witconate 1260;Vista C 560;Neopelex N 6;C 560;Merpisap AP 85W;Rhodacal DS 10;Teikapawa BN 2060M;Nacconol 40G;Witconate K;Nansa HS 90S;Sorpol DBNa;Pionin A 41S;Witconate 1240;FAW 01;Elecut S 412;Nissan Newrex Soft 60;Calsoft 90F;MOA 215;Sorpol 9775;DS 10;Jugopon;S 412;Polystep A 4;Calsoft L 50;Neopelex 6F;Anstex MJ 420;TPL 456;AS 101-1;Sorpol 5060;Berol 496;Stepatan DS 40;Lipon PS 860;TME 020;Bio-Soft 40S;Sulframin 1207;Maranil 2G;Rhodacal LDS 22;Bio-Soft D 40RC;Lipon PS 260;Maranil 55;EPA 219;Lavagion;Lutensit A-LBS;Lipon LS 250;DBS;Newrex Soft 60;Neopelex G 15;Nansa 66;TYS 101;Taycapower BN 2070M;Newrex Soft 60N;F 25;Neogen SC-F;Neopelex G 65;Lutensit A-LBN 50;AKS 518-2;A 41S;Maranil A 25;Witconate 1223L;Polystep LAS 50;SC-F;Maranil Paste A 55;Taycapower LN 2065;Maranil Lab;Neopelex G 20;AKS 518-2M;Neopelex F 15;NKS 50;Newrex R 25;Taycapower LN 2050D;Marlon ARL;Neogen S 20A;ABS;DSB (surfactant);DSB;DBS 60;Taycapower BN 2060;BN 2060;LN 2025D;Marlon A 315;S 412-2;Elecut S 412-2;Witco 90 Flake;Coulter Dispersant IIA;Bio-Soft SDBS 25;Newkalgen SX-C;Disponil LDBS 55;Neogen S 20F;S 20F;NANSA HS 90;Neogen S 20D;LS 250;Nansa SS 55;Maranil A 30;CP 10;CP 10 (emulsifier);Naconol 90G;Noigen R 272;WR-LAS 60;LAS 70;Bio-Soft S 101 sodium salt;EOS 9;Taycapower L 121 sodium salt;DS 40;P 60;Disponil A 19;RDC 25S;Neoplex G 65;LAS;Neoperex G 65;Neoperex G 15;Emulten 430;Maranil A 19;8044EE;Rhodacal SS 40A;TR-WLFP;Disponil LBDS 55;DS 4AP;ABS 15 (surfactant);LAS 80;LAS 89R;DBS-G 15;A 19 (surfactant);A 19;Polystep LAS 40",
    "duplicated_cas_no": "1323-13-3;11114-21-9;12068-21-2;12627-25-7;12676-70-9;18618-53-6;19327-14-1;28675-02-7;37334-89-7;39316-39-7;39386-98-6;39405-16-8;52624-37-0;56590-39-7;57762-50-2;58517-33-2;60328-33-8;63530-22-3;68445-25-0;71244-85-4;76483-01-7;82028-94-2;82785-43-1;83203-33-2;83652-87-3;83652-88-4;83652-89-5;88495-86-7;90452-02-1;94187-92-5;122390-78-7;128452-17-5;138362-06-8;142986-60-5;147035-77-6;167163-39-5;170006-86-7;177645-67-9;178900-97-5;189201-38-5;254117-47-0;295348-93-5;312629-70-2;352212-18-1;863016-65-3;863727-58-6;906063-68-1;941291-66-3;950892-60-1;1036266-20-2;2376743-26-7;2839527-22-7",
    "SMILES": "",
    "meta_data": {
        "InChI": "",
        "InChIKey": null,
        "Canonical SMILES": "",
        "Molecular Formula": "C<sub>18</sub>H<sub>30</sub>O<sub>3</sub>S.Na",
        "Molecular Mass": "",
        "Melting Point": "&gt;300 °C",
        "Density": "1.02 g/cm³"
    }
}