{
    "cas_no": "1945-78-4",
    "key_name": "2,2′-Methylenebis[benzothiazole]",
    "cn_name": "2,2-亚甲基双苯并噻唑;",
    "alternate_name": "Benzothiazole, 2,2′-methylenebis-;2,2′-Methylenebis[benzothiazole];2,2′-Methylenebisbenzothiazole;Bis(2-benzothiazolyl)methane;2-[(1,3-Benzothiazol-2-yl)methyl]-1,3-benzothiazole;2-(1,3-Benzothiazol-2-ylmethyl)-1,3-benzothiazole",
    "duplicated_cas_no": "",
    "SMILES": "C(C1=NC=2C(S1)=CC=CC2)C3=NC=4C(S3)=CC=CC4",
    "meta_data": {
        "InChI": "InChI=1S/C15H10N2S2/c1-3-7-12-10(5-1)16-14(18-12)9-15-17-11-6-2-4-8-13(11)19-15/h1-8H,9H2",
        "InChIKey": null,
        "Canonical SMILES": "N1=C(SC=2C=CC=CC12)CC3=NC=4C=CC=CC4S3",
        "Molecular Formula": "C<sub>15</sub>H<sub>10</sub>N<sub>2</sub>S<sub>2</sub>",
        "Molecular Mass": "282.38",
        "Melting Point": "280 °C"
    }
}