{
    "cas_no": "39251-88-2",
    "key_name": "Octyl 2-furoate",
    "cn_name": "2-糠酸辛酯;2-呋喃羧酸正辛酯；正辛基-2-呋喃羧酸酯;",
    "alternate_name": "2-Furancarboxylic acid, octyl ester;Octyl 2-furancarboxylate;2-Furoic acid octyl ester;Octyl 2-furoate;<em>n</em>-Octyl 2-furancarboxylate",
    "duplicated_cas_no": "",
    "SMILES": "C(OCCCCCCCC)(=O)C1=CC=CO1",
    "meta_data": {
        "InChI": "InChI=1S/C13H20O3/c1-2-3-4-5-6-7-10-16-13(14)12-9-8-11-15-12/h8-9,11H,2-7,10H2,1H3",
        "InChIKey": null,
        "Canonical SMILES": "O=C(OCCCCCCCC)C=1OC=CC1",
        "Molecular Formula": "C<sub>13</sub>H<sub>20</sub>O<sub>3</sub>",
        "Molecular Mass": "224.30",
        "Boiling Point": "125 °C @ Press: 1 Torr"
    }
}