{
    "cas_no": "13063-43-9",
    "key_name": "2,2-Dichloropropanedinitrile",
    "cn_name": "二氯丙二腈;2,2-二氯丙二腈;",
    "alternate_name": "Propanedinitrile, 2,2-dichloro-;Malononitrile, dichloro-;Propanedinitrile, dichloro-;2,2-Dichloropropanedinitrile;Dichlorodicyanomethane;Dichloromalononitrile;Dichloromalonodinitrile;NSC 89686;2,2-Dichloromalononitrile;2,2-Dichloro-malononitrile",
    "duplicated_cas_no": "",
    "SMILES": "C(C#N)(C#N)(Cl)Cl",
    "meta_data": {
        "InChI": "InChI=1S/C3Cl2N2/c4-3(5,1-6)2-7",
        "InChIKey": null,
        "Canonical SMILES": "N#CC(Cl)(Cl)C#N",
        "Molecular Formula": "C<sub>3</sub>Cl<sub>2</sub>N<sub>2</sub>",
        "Molecular Mass": "134.95",
        "Boiling Point": "97 °C"
    }
}