{
    "cas_no": "95-02-3",
    "key_name": "4-Amino-2-methyl-5-pyrimidinemethanamine",
    "cn_name": "4-氨基-2-甲基-5-(氨甲基)嘧啶;",
    "alternate_name": "5-Pyrimidinemethanamine, 4-amino-2-methyl-;Pyrimidine, 4-amino-5-(aminomethyl)-2-methyl-;4-Amino-2-methyl-5-pyrimidinemethanamine;4-Amino-5-aminomethyl-2-methylpyrimidine;2-Methyl-4-amino-5-(aminomethyl)pyrimidine;5-(Aminomethyl)-4-amino-2-methylpyrimidine;Grewe diamine;5-(Aminomethyl)-2-methylpyrimidin-4-amine",
    "duplicated_cas_no": "",
    "SMILES": "C(N)C=1C(N)=NC(C)=NC1",
    "meta_data": {
        "InChI": "InChI=1S/C6H10N4/c1-4-9-3-5(2-7)6(8)10-4/h3H,2,7H2,1H3,(H2,8,9,10)",
        "InChIKey": null,
        "Canonical SMILES": "N=1C=C(C(=NC1C)N)CN",
        "Molecular Formula": "C<sub>6</sub>H<sub>10</sub>N<sub>4</sub>",
        "Molecular Mass": "138.17",
        "Boiling Point": "121-125 °C",
        "Melting Point": "262 °C"
    }
}