{
    "cas_no": "621-61-4",
    "key_name": "2-Monostearin",
    "cn_name": null,
    "alternate_name": "Octadecanoic acid, 2-hydroxy-1-(hydroxymethyl)ethyl ester;Stearin, 2-mono-;Glycerol β-monostearate;2-Monostearin;2-Monostearoylglycerol;β-Glyceryl monostearate;β-Monostearin;Stearic acid β-monoglyceride;2-Monooctadecanoylglycerol;2-Stearoylglycerol;1,3-Dihydroxypropan-2-yl stearate;2-Stearoyl-rac-glycerol;GMS;GMS (antistatic agent);2-Glyceryl stearate",
    "duplicated_cas_no": "75656-13-2",
    "SMILES": "C(OC(CCCCCCCCCCCCCCCCC)=O)(CO)CO",
    "meta_data": {
        "InChI": "InChI=1S/C21H42O4/c1-2-3-4-5-6-7-8-9-10-11-12-13-14-15-16-17-21(24)25-20(18-22)19-23/h20,22-23H,2-19H2,1H3",
        "InChIKey": null,
        "Canonical SMILES": "O=C(OC(CO)CO)CCCCCCCCCCCCCCCCC",
        "Molecular Formula": "C<sub>21</sub>H<sub>42</sub>O<sub>4</sub>",
        "Molecular Mass": "358.56",
        "Melting Point": "74-75 °C"
    }
}