{
    "cas_no": "1203-68-5",
    "key_name": "[1,1′-Biphenyl]-2-carboxaldehyde",
    "cn_name": "联苯-2-甲醛;",
    "alternate_name": "[1,1′-Biphenyl]-2-carboxaldehyde;2-Biphenylcarboxaldehyde;2-Phenylbenzaldehyde;2-Formyl-1,1′-biphenyl;2-Formylbiphenyl;<em>o</em>-Formylphenyl benzene;<em>o</em>-Phenylbenzaldehyde;[1,1′-Biphenyl]-2-carbaldehyde;Biphenyl-2-carbaldehyde",
    "duplicated_cas_no": "",
    "SMILES": "C(=O)C1=C(C=CC=C1)C2=CC=CC=C2",
    "meta_data": {
        "InChI": "InChI=1S/C13H10O/c14-10-12-8-4-5-9-13(12)11-6-2-1-3-7-11/h1-10H",
        "InChIKey": null,
        "Canonical SMILES": "O=CC=1C=CC=CC1C=2C=CC=CC2",
        "Molecular Formula": "C<sub>13</sub>H<sub>10</sub>O",
        "Molecular Mass": "182.22",
        "Boiling Point": "150 °C @ Press: 7 Torr",
        "Melting Point": "202 °C"
    }
}