{
    "cas_no": "656-43-9",
    "key_name": "2,2,5-Trifluoro-1,3-benzodioxole",
    "cn_name": "2,2,5-三氟-1,3-苯并二恶茂;",
    "alternate_name": "1,3-Benzodioxole, 2,2,5-trifluoro-;Benzene, 1,2-[(difluoromethylene)dioxy]-4-fluoro-;2,2,5-Trifluoro-1,3-benzodioxole;2,2,5-Trifluoro-1,3-dioxaindane",
    "duplicated_cas_no": "",
    "SMILES": "FC1(F)OC=2C(O1)=CC(F)=CC2",
    "meta_data": {
        "InChI": "InChI=1S/C7H3F3O2/c8-4-1-2-5-6(3-4)12-7(9,10)11-5/h1-3H",
        "InChIKey": null,
        "Canonical SMILES": "FC1=CC=C2OC(F)(F)OC2=C1",
        "Molecular Formula": "C<sub>7</sub>H<sub>3</sub>F<sub>3</sub>O<sub>2</sub>",
        "Molecular Mass": "176.09",
        "Boiling Point": "128-129 °C @ Press: 760 Torr"
    }
}