{
    "cas_no": "57292-45-2",
    "key_name": "(2<em>R</em>)-2-(<em>tert</em>-Butoxycarbonylamino)-3-(4-fluorophenyl)propanoic acid",
    "cn_name": "BOC-D-4-氟苯丙氨酸;N-叔丁氧羰基-D-4-氟苯丙氨酸;",
    "alternate_name": "<span class=\"text-smallcaps\">D</span>-Phenylalanine, <em>N</em>-[(1,1-dimethylethoxy)carbonyl]-4-fluoro-;<em>N</em>-[(1,1-Dimethylethoxy)carbonyl]-4-fluoro-<span class=\"text-smallcaps\">D</span>-phenylalanine;(2<em>R</em>)-2-(<em>tert</em>-Butoxycarbonylamino)-3-(4-fluorophenyl)propanoic acid;(2R)-3-(4-Fluorophenyl)-2-[(2-methylpropan-2-yl)oxycarbonylamino]propanoic acid",
    "duplicated_cas_no": "",
    "SMILES": "C([C@@H](NC(OC(C)(C)C)=O)C(O)=O)C1=CC=C(F)C=C1",
    "meta_data": {
        "InChI": "InChI=1S/C14H18FNO4/c1-14(2,3)20-13(19)16-11(12(17)18)8-9-4-6-10(15)7-5-9/h4-7,11H,8H2,1-3H3,(H,16,19)(H,17,18)/t11-/m1/s1",
        "InChIKey": null,
        "Canonical SMILES": "O=C(OC(C)(C)C)NC(C(=O)O)CC1=CC=C(F)C=C1",
        "Molecular Formula": "C<sub>14</sub>H<sub>18</sub>FNO<sub>4</sub>",
        "Molecular Mass": "283.30",
        "Melting Point": "131 °C"
    }
}