{
    "cas_no": "10333-68-3",
    "key_name": "2-(1<em>H</em>-Pyrrol-1-yl)benzoic acid",
    "cn_name": "1-(2-羰基苯)吡咯;",
    "alternate_name": "Benzoic acid, 2-(1<em>H</em>-pyrrol-1-yl)-;Benzoic acid, <em>o</em>-pyrrol-1-yl-;2-(1<em>H</em>-Pyrrol-1-yl)benzoic acid;2-(1-Pyrrolyl)benzoic acid;1-(2-Carboxyphenyl)pyrrole",
    "duplicated_cas_no": "",
    "SMILES": "C(O)(=O)C1=C(C=CC=C1)N2C=CC=C2",
    "meta_data": {
        "InChI": "InChI=1S/C11H9NO2/c13-11(14)9-5-1-2-6-10(9)12-7-3-4-8-12/h1-8H,(H,13,14)",
        "InChIKey": null,
        "Canonical SMILES": "O=C(O)C=1C=CC=CC1N2C=CC=C2",
        "Molecular Formula": "C<sub>11</sub>H<sub>9</sub>NO<sub>2</sub>",
        "Molecular Mass": "187.19",
        "Melting Point": "103 °C"
    }
}