{
    "cas_no": "5391-88-8",
    "key_name": "1-(4-Bromophenyl)ethanol",
    "cn_name": "1-(4-溴苯基)-1-乙醇;",
    "alternate_name": "Benzenemethanol, 4-bromo-α-methyl-;Benzyl alcohol, <em>p</em>-bromo-α-methyl-;4-Bromo-α-methylbenzenemethanol;<em>p</em>-Bromo-α-methylbenzyl alcohol;(4-Bromophenyl)methylcarbinol;1-(<em>p</em>-Bromophenyl)ethanol;1-(4-Bromophenyl)ethanol;4-(1-Hydroxyethyl)bromobenzene;<em>p</em>-Bromophenyl methyl carbinol;4-Bromo-α-methylbenzyl alcohol;(±)-1-(4-Bromophenyl)ethanol;NSC 3223;(±)-1-(<em>p</em>-Bromophenyl)ethanol;1-(4-Bromophenyl)ethan-1-ol",
    "duplicated_cas_no": "25675-29-0",
    "SMILES": "C(C)(O)C1=CC=C(Br)C=C1",
    "meta_data": {
        "InChI": "InChI=1S/C8H9BrO/c1-6(10)7-2-4-8(9)5-3-7/h2-6,10H,1H3",
        "InChIKey": null,
        "Canonical SMILES": "BrC1=CC=C(C=C1)C(O)C",
        "Molecular Formula": "C<sub>8</sub>H<sub>9</sub>BrO",
        "Molecular Mass": "201.06",
        "Boiling Point": "127-128 °C @ Press: 11 Torr",
        "Melting Point": "20-30 °C",
        "Density": "1.463 g/cm³ @ Temp: 20 °C"
    }
}