{
    "cas_no": "7722-76-1",
    "key_name": "Ammonium dihydrogen phosphate",
    "cn_name": "磷酸二氢铵;",
    "alternate_name": "Phosphoric acid, ammonium salt (1:1);Phosphoric acid, monoammonium salt;Ammonium biphosphate;Monoammonium phosphate;Monobasic ammonium phosphate;Ammonium phosphate (NH<sub>4</sub>H<sub>2</sub>PO<sub>4</sub>);Ammonium phosphate;Ammonium dihydrogen phosphate;Ammonium dihydrogen orthophosphate;Monoammonium orthophosphate;Ammonium dihydrophosphate;Monoammonium hydrogen phosphate;Monoammonium dihydrogen phosphate;Monoammonium acid phosphate;Ammonium monobasic phosphate;Ammonium diacid phosphate;Monoammonium dihydrogen phosphate ((NH<sub>4</sub>)H<sub>2</sub>PO<sub>4</sub>);VTI 57;Ammonium monobasic phosphate (NH<sub>4</sub>H<sub>2</sub>PO<sub>4</sub>);Dihydrogen ammonium phosphate;Ammonium dihydrogen phosphate ((NH<sub>4</sub>)H<sub>2</sub>PO<sub>4</sub>);Ammonium primary phosphate;Monoammonium dihydrogen orthophosphate;ABC;ABC (fire extinguisher);Furex 770;Ammonium hydrogen phosphate ((NH<sub>4</sub>)H<sub>2</sub>PO<sub>4</sub>);ADP;ADP (filter);Ammonium orthophosphate monobasic;MAP-B;PoliFAM NP 1452;P-FKChS 2;Feniks AVS 70;Feniks AVS 40;Vekson AVS 25;Vekson AVS 30;Vekson AVS 50;Rongchuang P 501;P 501;Phos-Chek MVP-Fx",
    "duplicated_cas_no": "1801523-63-6",
    "SMILES": "P(=O)(O)(O)O.N",
    "meta_data": {
        "InChI": "InChI=1S/H3N.H3O4P/c;1-5(2,3)4/h1H3;(H3,1,2,3,4)",
        "InChIKey": null,
        "Canonical SMILES": "O=P(O)(O)O.N",
        "Molecular Formula": "H<sub>3</sub>N.H<sub>3</sub>O<sub>4</sub>P",
        "Molecular Mass": "",
        "Boiling Point": "376.1 °C",
        "Melting Point": "190 °C",
        "Density": "1.803 g/cm³"
    }
}