{
    "cas_no": "21423-81-4",
    "key_name": "3-Chloro-4-methylbenzonitrile",
    "cn_name": null,
    "alternate_name": "Benzonitrile, 3-chloro-4-methyl-;<em>p</em>-Tolunitrile, 3-chloro-;3-Chloro-4-methylbenzonitrile;3-Chloro-<em>p</em>-tolunitrile;3-Chloro-4-methylaminobenzoate;2-Chloro-4-cyanotoluene",
    "duplicated_cas_no": "",
    "SMILES": "C(#N)C1=CC(Cl)=C(C)C=C1",
    "meta_data": {
        "InChI": "InChI=1S/C8H6ClN/c1-6-2-3-7(5-10)4-8(6)9/h2-4H,1H3",
        "InChIKey": null,
        "Canonical SMILES": "N#CC1=CC=C(C(Cl)=C1)C",
        "Molecular Formula": "C<sub>8</sub>H<sub>6</sub>ClN",
        "Molecular Mass": "151.59",
        "Boiling Point": "90 °C @ Press: 2 Torr"
    }
}