{
    "cas_no": "16271-33-3",
    "key_name": "2,4-Dichlorobenzenesulfonyl chloride",
    "cn_name": "2,4-二氯苯磺酰氯;",
    "alternate_name": "Benzenesulfonyl chloride, 2,4-dichloro-;2,4-Dichlorobenzenesulfonyl chloride;2,4-Dichlorophenylsulfonyl chloride;2,4-Dichlorobenzene-1-sulfonyl chloride",
    "duplicated_cas_no": "",
    "SMILES": "S(Cl)(=O)(=O)C1=C(Cl)C=C(Cl)C=C1",
    "meta_data": {
        "InChI": "InChI=1S/C6H3Cl3O2S/c7-4-1-2-6(5(8)3-4)12(9,10)11/h1-3H",
        "InChIKey": null,
        "Canonical SMILES": "O=S(=O)(Cl)C1=CC=C(Cl)C=C1Cl",
        "Molecular Formula": "C<sub>6</sub>H<sub>3</sub>Cl<sub>3</sub>O<sub>2</sub>S",
        "Molecular Mass": "245.51",
        "Melting Point": "56 °C"
    }
}