{
    "cas_no": "479-20-9",
    "key_name": "Atranorin",
    "cn_name": "巴美灵;",
    "alternate_name": "Benzoic acid, 3-formyl-2,4-dihydroxy-6-methyl-, 3-hydroxy-4-(methoxycarbonyl)-2,5-dimethylphenyl ester;Atranoric acid;Isophthalaldehydic acid, 2,4-dihydroxy-6-methyl-, 4-ester with methyl 3,6-dimethyl-β-resorcylate;Atranorin;Atranorine;Parmelin;Parmelin acid;Usnarin;Usnarin acid;NSC 685591;NSC 249980;NSC 87512;Antranorin",
    "duplicated_cas_no": "",
    "SMILES": "C(OC1=C(C)C(O)=C(C(OC)=O)C(C)=C1)(=O)C2=C(O)C(C=O)=C(O)C=C2C",
    "meta_data": {
        "InChI": "InChI=1S/C19H18O8/c1-8-5-12(21)11(7-20)17(23)15(8)19(25)27-13-6-9(2)14(18(24)26-4)16(22)10(13)3/h5-7,21-23H,1-4H3",
        "InChIKey": null,
        "Canonical SMILES": "O=CC1=C(O)C=C(C(C(=O)OC=2C=C(C(C(=O)OC)=C(O)C2C)C)=C1O)C",
        "Molecular Formula": "C<sub>19</sub>H<sub>18</sub>O<sub>8</sub>",
        "Molecular Mass": "374.34",
        "Melting Point": "195 °C"
    }
}