{
    "cas_no": "154598-53-5",
    "key_name": "1-(2-Amino-5-chlorophenyl)-2,2,2-trifluoroethanone",
    "cn_name": null,
    "alternate_name": "Ethanone, 1-(2-amino-5-chlorophenyl)-2,2,2-trifluoro-;1-(2-Amino-5-chlorophenyl)-2,2,2-trifluoroethanone;4-Chloro-2-(trifluoroacetyl)aniline;2-Amino-5-chlorophenyl trifluoromethyl ketone;2-Trifluoroacetyl-4-chloroaniline;1-(2-Amino-5-chlorophenyl)-2,2,2-trifluoroethan-1-one",
    "duplicated_cas_no": "",
    "SMILES": "C(C(F)(F)F)(=O)C1=C(N)C=CC(Cl)=C1",
    "meta_data": {
        "InChI": "InChI=1S/C8H5ClF3NO/c9-4-1-2-6(13)5(3-4)7(14)8(10,11)12/h1-3H,13H2",
        "InChIKey": null,
        "Canonical SMILES": "O=C(C1=CC(Cl)=CC=C1N)C(F)(F)F",
        "Molecular Formula": "C<sub>8</sub>H<sub>5</sub>ClF<sub>3</sub>NO",
        "Molecular Mass": "223.58",
        "Melting Point": "90-91 °C"
    }
}