{
    "cas_no": "5018-30-4",
    "key_name": "1,3-Dimethyl 2-methoxypropanedioate",
    "cn_name": "甲氧基丙二酸二甲酯;甲氧基马来酸二甲酯;",
    "alternate_name": "Propanedioic acid, 2-methoxy-, 1,3-dimethyl ester;Malonic acid, methoxy-, dimethyl ester;Propanedioic acid, methoxy-, dimethyl ester;1,3-Dimethyl 2-methoxypropanedioate;Dimethyl methoxymalonate;Dimethyl 2-methoxymalonate;2-Methoxy-malonic acid dimethyl ester",
    "duplicated_cas_no": "639855-40-6",
    "SMILES": "C(C(OC)=O)(C(OC)=O)OC",
    "meta_data": {
        "InChI": "InChI=1S/C6H10O5/c1-9-4(5(7)10-2)6(8)11-3/h4H,1-3H3",
        "InChIKey": null,
        "Canonical SMILES": "O=C(OC)C(OC)C(=O)OC",
        "Molecular Formula": "C<sub>6</sub>H<sub>10</sub>O<sub>5</sub>",
        "Molecular Mass": "162.14",
        "Boiling Point": "103-104 °C @ Press: 11 Torr"
    }
}