{
    "cas_no": "14292-26-3",
    "key_name": "(±)-3-Hydroxydecanoic acid",
    "cn_name": null,
    "alternate_name": "Decanoic acid, 3-hydroxy-;3-Hydroxydecanoic acid;β-Hydroxycapric acid;β-Hydroxydecanoic acid;3-Hydroxycapric acid;(±)-3-Hydroxydecanoic acid;(<em>RS</em>)-3-Hydroxydecanoic acid;3-Hydroxidecanoic acid",
    "duplicated_cas_no": "5561-87-5;1111092-37-5;1639952-40-1",
    "SMILES": "C(C(CC(O)=O)O)CCCCCC",
    "meta_data": {
        "InChI": "InChI=1S/C10H20O3/c1-2-3-4-5-6-7-9(11)8-10(12)13/h9,11H,2-8H2,1H3,(H,12,13)",
        "InChIKey": null,
        "Canonical SMILES": "O=C(O)CC(O)CCCCCCC",
        "Molecular Formula": "C<sub>10</sub>H<sub>20</sub>O<sub>3</sub>",
        "Molecular Mass": "188.26",
        "Melting Point": "47-48 °C"
    }
}