{
    "cas_no": "709-72-8",
    "key_name": "(3-Nitrophenyl)thiourea",
    "cn_name": "1-(3-硝基苯基)-2-硫脲;1-(3-硝基苯基)-2-硫脲;",
    "alternate_name": "Thiourea, <em>N</em>-(3-nitrophenyl)-;Urea, 1-(<em>m</em>-nitrophenyl)-2-thio-;Thiourea, (3-nitrophenyl)-;<em>N</em>-(3-Nitrophenyl)thiourea;(<em>m</em>-Nitrophenyl)thiourea;(3-Nitrophenyl)thiourea;1-(3-Nitrophenyl)thiourea;NSC 407996;1-(3-Nitrophenyl)-2-thiourea",
    "duplicated_cas_no": "",
    "SMILES": "N(C(N)=S)C1=CC(N(=O)=O)=CC=C1",
    "meta_data": {
        "InChI": "InChI=1S/C7H7N3O2S/c8-7(13)9-5-2-1-3-6(4-5)10(11)12/h1-4H,(H3,8,9,13)",
        "InChIKey": null,
        "Canonical SMILES": "O=N(=O)C=1C=CC=C(C1)NC(=S)N",
        "Molecular Formula": "C<sub>7</sub>H<sub>7</sub>N<sub>3</sub>O<sub>2</sub>S",
        "Molecular Mass": "197.21",
        "Melting Point": "156 °C"
    }
}