{
    "cas_no": "25319-90-8",
    "key_name": "MCPA-thioethyl",
    "cn_name": "酚硫杀;2甲4氯乙硫酯；芳米大；禾必特；硫赶2甲4氯乙酯;",
    "alternate_name": "Ethanethioic acid, 2-(4-chloro-2-methylphenoxy)-, <em>S</em>-ethyl ester;Acetic acid, [(4-chloro-<em>o</em>-tolyl)oxy]thio-, <em>S</em>-ethyl ester;Ethanethioic acid, (4-chloro-2-methylphenoxy)-, <em>S</em>-ethyl ester;<em>S</em>-Ethyl-2-methyl-4-chlorophenoxythioacetate;HOK 7501;2-Methyl-4-chlorophenoxymonothioacetic acid <em>S</em>-ethyl ester;<em>S</em>-Ethyl (4-chloro-2-methylphenoxy)thioacetate;Phenothiol;Tripion CB;Herbit;MCPA-thioethyl;Fenothiol",
    "duplicated_cas_no": "",
    "SMILES": "O(CC(SCC)=O)C1=C(C)C=C(Cl)C=C1",
    "meta_data": {
        "InChI": "InChI=1S/C11H13ClO2S/c1-3-15-11(13)7-14-10-5-4-9(12)6-8(10)2/h4-6H,3,7H2,1-2H3",
        "InChIKey": null,
        "Canonical SMILES": "O=C(SCC)COC1=CC=C(Cl)C=C1C",
        "Molecular Formula": "C<sub>11</sub>H<sub>13</sub>ClO<sub>2</sub>S",
        "Molecular Mass": "244.74",
        "Boiling Point": "165 °C",
        "Melting Point": "41.5 °C"
    }
}