{
    "cas_no": "3055-86-5",
    "key_name": "3-Phenoxypropanenitrile",
    "cn_name": "3-苯氧基丙腈;",
    "alternate_name": "Propanenitrile, 3-phenoxy-;Propionitrile, 3-phenoxy-;3-Phenoxypropanenitrile;β-Phenoxypropionitrile;3-Phenoxypropionitrile;NSC 108215",
    "duplicated_cas_no": "",
    "SMILES": "O(CCC#N)C1=CC=CC=C1",
    "meta_data": {
        "InChI": "InChI=1S/C9H9NO/c10-7-4-8-11-9-5-2-1-3-6-9/h1-3,5-6H,4,8H2",
        "InChIKey": null,
        "Canonical SMILES": "N#CCCOC=1C=CC=CC1",
        "Molecular Formula": "C<sub>9</sub>H<sub>9</sub>NO",
        "Molecular Mass": "147.17",
        "Boiling Point": "158 °C @ Press: 20 Torr",
        "Melting Point": "62-65 °C"
    }
}