{
    "cas_no": "18694-40-1",
    "key_name": "Epirizole",
    "cn_name": "依匹唑;2-(5-甲氧基-3-甲基-1-吡嗪基)-4-甲氧基-6-甲基-嘧啶;",
    "alternate_name": "Pyrimidine, 4-methoxy-2-(5-methoxy-3-methyl-1<em>H</em>-pyrazol-1-yl)-6-methyl-;Pyrimidine, 4-methoxy-2-(5-methoxy-3-methylpyrazol-1-yl)-6-methyl-;4-Methoxy-2-(5-methoxy-3-methyl-1<em>H</em>-pyrazol-1-yl)-6-methylpyrimidine;1-(4-Methyl-6-methoxy-2-pyrimidinyl)-3-methyl-5-methoxypyrazole;DA 398;Mepirizole;1-(4-Methoxy-6-methyl-2-pyrimidinyl)-3-methyl-5-methoxypyrazole;4-Methoxy-2-(5-methoxy-3-methylpyrazol-1-yl)-6-methylpyrimidine;2-(3-Methyl-5-methoxy-1-pyrazolyl)-4-methoxy-6-methylpyrimidine;2-(3-Methoxy-5-methylpyrazol-2-yl)-4-methoxy-6-methylpyrimidine;Mebron;Epirizole",
    "duplicated_cas_no": "",
    "SMILES": "O(C)C=1N(C=2N=C(OC)C=C(C)N2)N=C(C)C1",
    "meta_data": {
        "InChI": "InChI=1S/C11H14N4O2/c1-7-5-9(16-3)13-11(12-7)15-10(17-4)6-8(2)14-15/h5-6H,1-4H3",
        "InChIKey": null,
        "Canonical SMILES": "N=1C(=NC(=CC1OC)C)N2N=C(C=C2OC)C",
        "Molecular Formula": "C<sub>11</sub>H<sub>14</sub>N<sub>4</sub>O<sub>2</sub>",
        "Molecular Mass": "234.25",
        "Melting Point": "90-92 °C"
    }
}