{
    "cas_no": "274-09-9",
    "key_name": "1,3-Benzodioxole",
    "cn_name": "1,2-亚甲二氧基苯;1,3-苯并间二氧杂环戊烯;胡椒环;1,3-苯并二噁茂;",
    "alternate_name": "1,3-Benzodioxole;Benzene, 1,2-(methylenedioxy)-;1,3-Dioxaindan;1,3-Dioxindan;Benzene, 1,2-[methylenebis(oxy)]-;<em>o</em>-(Methylenedioxy)benzene;(Methylenedioxy)benzene;1,2-(Methylenedioxy)benzene;2<em>H</em>-1,3-Benzodioxole;NSC 30095;2<em>H</em>-Benzo[<em>d</em>]-1,3-dioxolane;Benzo[<em>d</em>]-1,3-dioxole",
    "duplicated_cas_no": "",
    "SMILES": "C1=2C(OCO1)=CC=CC2",
    "meta_data": {
        "InChI": "InChI=1S/C7H6O2/c1-2-4-7-6(3-1)8-5-9-7/h1-4H,5H2",
        "InChIKey": null,
        "Canonical SMILES": "O1C=2C=CC=CC2OC1",
        "Molecular Formula": "C<sub>7</sub>H<sub>6</sub>O<sub>2</sub>",
        "Molecular Mass": "122.12",
        "Boiling Point": "172.5 °C",
        "Melting Point": "-18 °C",
        "Density": "1.185 g/cm³ @ Temp: 20 °C"
    }
}