{
    "cas_no": "607-68-1",
    "key_name": "2,4-Dichloroquinazoline",
    "cn_name": "2,4-二氯喹唑啉;",
    "alternate_name": "Quinazoline, 2,4-dichloro-;2,4-Dichloroquinazoline;NSC 75192",
    "duplicated_cas_no": "",
    "SMILES": "ClC=1C2=C(N=C(Cl)N1)C=CC=C2",
    "meta_data": {
        "InChI": "InChI=1S/C8H4Cl2N2/c9-7-5-3-1-2-4-6(5)11-8(10)12-7/h1-4H",
        "InChIKey": null,
        "Canonical SMILES": "ClC=1N=C(Cl)C=2C=CC=CC2N1",
        "Molecular Formula": "C<sub>8</sub>H<sub>4</sub>Cl<sub>2</sub>N<sub>2</sub>",
        "Molecular Mass": "199.04",
        "Melting Point": "119.5 °C"
    }
}