{
    "cas_no": "27115-74-8",
    "key_name": "5-(1-Methylethyl)-1,3,4-thiadiazol-2-amine",
    "cn_name": null,
    "alternate_name": "1,3,4-Thiadiazol-2-amine, 5-(1-methylethyl)-;1,3,4-Thiadiazole, 2-amino-5-isopropyl-;Thiadiazole, 2-amino-5-isopropyl-;5-(1-Methylethyl)-1,3,4-thiadiazol-2-amine;2-Amino-5-isopropyl-1,3,4-thiadiazole;5-Isopropyl-2-amino-1,3,4-thiadiazole;5-Amino-2-isopropyl-1,3,4-thiadiazole;(5-Isopropyl-[1,3,4]thiadiazol-2-yl)amine;5-Isopropyl-1,3,4-thiadiazol-2-amine",
    "duplicated_cas_no": "",
    "SMILES": "C(C)(C)C=1SC(N)=NN1",
    "meta_data": {
        "InChI": "InChI=1S/C5H9N3S/c1-3(2)4-7-8-5(6)9-4/h3H,1-2H3,(H2,6,8)",
        "InChIKey": null,
        "Canonical SMILES": "N=1N=C(SC1N)C(C)C",
        "Molecular Formula": "C<sub>5</sub>H<sub>9</sub>N<sub>3</sub>S",
        "Molecular Mass": "143.21",
        "Melting Point": "186-187 °C"
    }
}