{
    "cas_no": "54326-16-8",
    "key_name": "5-Chloro-2(1<em>H</em>)-pyrimidinone",
    "cn_name": null,
    "alternate_name": "2(1<em>H</em>)-Pyrimidinone, 5-chloro-;2-Pyrimidinol, 5-chloro-;5-Chloro-2(1<em>H</em>)-pyrimidinone;5-Chloropyrimidin-2-one;NY 3000;5-Chloro-2-hydroxypyrimidine;2-Oxo-5-chloropyrimidine;5-Chloro-2-pyrimidone",
    "duplicated_cas_no": "107646-95-7",
    "SMILES": "ClC1=CNC(=O)N=C1",
    "meta_data": {
        "InChI": "InChI=1S/C4H3ClN2O/c5-3-1-6-4(8)7-2-3/h1-2H,(H,6,7,8)",
        "InChIKey": null,
        "Canonical SMILES": "O=C1N=CC(Cl)=CN1",
        "Molecular Formula": "C<sub>4</sub>H<sub>3</sub>ClN<sub>2</sub>O",
        "Molecular Mass": "130.53",
        "Melting Point": "237-238 °C (decomp)"
    }
}