{
    "cas_no": "2757-23-5",
    "key_name": "(Chlorocarbonyl)sulfenyl chloride",
    "cn_name": "氯羰基次磺酰氯;",
    "alternate_name": "Carbonochloridothioic acid, anhydrosulfide with thiohypochlorous acid;Formyl thiohypochlorite, chloro-;Formyl chloride, (chlorothio)-;Sulfenyl chloride, (chloroformyl)-;(Chlorothio)formyl chloride;(Chloroformyl)sulfur chloride;Chloroformylsulfenyl chloride;(Chlorocarbonyl)sulfenyl chloride;1-(Chlorothio)formyl chloride;Chlorosulfenylcarbonyl chloride;Carbonochloridic hypochlorous thioanhydride;Chlorocarboynylsulfenyl chloride;Chloro(chlorosulfanyl)methanone",
    "duplicated_cas_no": "1918133-02-4",
    "SMILES": "C(SCl)(Cl)=O",
    "meta_data": {
        "InChI": "InChI=1S/CCl2OS/c2-1(4)5-3",
        "InChIKey": null,
        "Canonical SMILES": "O=C(Cl)SCl",
        "Molecular Formula": "CCl<sub>2</sub>OS",
        "Molecular Mass": "130.98",
        "Boiling Point": "98 °C @ Press: 760 Torr",
        "Density": "1.569 g/cm³ @ Temp: 22 °C"
    }
}