{
    "cas_no": "34552-14-2",
    "key_name": "2-Bromo-5-methyl-3-pyridinamine",
    "cn_name": null,
    "alternate_name": "3-Pyridinamine, 2-bromo-5-methyl-;2-Bromo-5-methyl-3-pyridinamine;3-Amino-2-bromo-5-methylpyridine;(2-Bromo-5-methylpyridin-3-yl)amine;2-Bromo-5-methylpyridin-3-amine;3-Amino-2-bromo-5-picoline",
    "duplicated_cas_no": "",
    "SMILES": "NC1=C(Br)N=CC(C)=C1",
    "meta_data": {
        "InChI": "InChI=1S/C6H7BrN2/c1-4-2-5(8)6(7)9-3-4/h2-3H,8H2,1H3",
        "InChIKey": null,
        "Canonical SMILES": "BrC1=NC=C(C=C1N)C",
        "Molecular Formula": "C<sub>6</sub>H<sub>7</sub>BrN<sub>2</sub>",
        "Molecular Mass": "187.04",
        "Melting Point": "106-107 °C"
    }
}