{
    "cas_no": "2973-17-3",
    "key_name": "<em>N</em>-Allylmaleimide",
    "cn_name": "N-烯丙基马来酰亚胺;",
    "alternate_name": "1<em>H</em>-Pyrrole-2,5-dione, 1-(2-propen-1-yl)-;Maleimide, <em>N</em>-allyl-;1<em>H</em>-Pyrrole-2,5-dione, 1-(2-propenyl)-;1-(2-Propen-1-yl)-1<em>H</em>-pyrrole-2,5-dione;<em>N</em>-Allylmaleimide;NSC 177880;1-Allyl-1<em>H</em>-pyrrole-2,5-dione;1-Prop-2-enylpyrrole-2,5-dione;1-(2-Propenyl)-1<em>H</em>-pyrrole-2,5-dione;1-Allyl-pyrrole-2,5-dione;1-(Prop-2-en-1-yl)-2,5-dihydro-1<em>H</em>-pyrrole-2,5-dione",
    "duplicated_cas_no": "",
    "SMILES": "C(C=C)N1C(=O)C=CC1=O",
    "meta_data": {
        "InChI": "InChI=1S/C7H7NO2/c1-2-5-8-6(9)3-4-7(8)10/h2-4H,1,5H2",
        "InChIKey": null,
        "Canonical SMILES": "O=C1C=CC(=O)N1CC=C",
        "Molecular Formula": "C<sub>7</sub>H<sub>7</sub>NO<sub>2</sub>",
        "Molecular Mass": "137.14",
        "Boiling Point": "134 °C @ Press: 12 Torr",
        "Melting Point": "45 °C"
    }
}