{
    "cas_no": "3230-65-7",
    "key_name": "3,4-Dihydroisoquinoline",
    "cn_name": null,
    "alternate_name": "Isoquinoline, 3,4-dihydro-;3,4-Dihydroisoquinoline;NSC 3007",
    "duplicated_cas_no": "110229-15-7",
    "SMILES": "C=12C(=CC=CC1)C=NCC2",
    "meta_data": {
        "InChI": "InChI=1S/C9H9N/c1-2-4-9-7-10-6-5-8(9)3-1/h1-4,7H,5-6H2",
        "InChIKey": null,
        "Canonical SMILES": "N1=CC=2C=CC=CC2CC1",
        "Molecular Formula": "C<sub>9</sub>H<sub>9</sub>N",
        "Molecular Mass": "131.17",
        "Boiling Point": "122-123 °C @ Press: 25 Torr",
        "Melting Point": "175-176 °C",
        "Density": "1.075 g/cm³ @ Temp: 40 °C"
    }
}