{
    "cas_no": "10552-74-6",
    "key_name": "Nitrothal-isopropyl",
    "cn_name": "间硝酞异丙酯;异丙消；5-硝基间苯二甲酸二异丙酯;",
    "alternate_name": "1,3-Benzenedicarboxylic acid, 5-nitro-, 1,3-bis(1-methylethyl) ester;Isophthalic acid, 5-nitro-, diisopropyl ester;1,3-Benzenedicarboxylic acid, 5-nitro-, bis(1-methylethyl) ester;Nitrothal-isopropyl;Pallitop",
    "duplicated_cas_no": "1135443-70-7",
    "SMILES": "C(OC(C)C)(=O)C1=CC(C(OC(C)C)=O)=CC(N(=O)=O)=C1",
    "meta_data": {
        "InChI": "InChI=1S/C14H17NO6/c1-8(2)20-13(16)10-5-11(14(17)21-9(3)4)7-12(6-10)15(18)19/h5-9H,1-4H3",
        "InChIKey": null,
        "Canonical SMILES": "O=C(OC(C)C)C=1C=C(C=C(C1)N(=O)=O)C(=O)OC(C)C",
        "Molecular Formula": "C<sub>14</sub>H<sub>17</sub>NO<sub>6</sub>",
        "Molecular Mass": "295.29",
        "Melting Point": "65 °C"
    }
}