{
    "cas_no": "4773-33-5",
    "key_name": "Ethyl α-chlorobenzeneacetate",
    "cn_name": "&alpha;-氯代苯乙酸乙酯;",
    "alternate_name": "Benzeneacetic acid, α-chloro-, ethyl ester;Acetic acid, chlorophenyl-, ethyl ester;Ethyl α-chlorobenzeneacetate;Ethyl α-chlorophenylacetate;Ethyl chlorophenylacetate;Ethyl α-chloro-α-phenylacetate;Ethyl 2-chloro-2-phenylacetate;α-Chlorobenzeneacetic acid ethyl ester;NSC 34191",
    "duplicated_cas_no": "99531-04-1",
    "SMILES": "C(C(OCC)=O)(Cl)C1=CC=CC=C1",
    "meta_data": {
        "InChI": "InChI=1S/C10H11ClO2/c1-2-13-10(12)9(11)8-6-4-3-5-7-8/h3-7,9H,2H2,1H3",
        "InChIKey": null,
        "Canonical SMILES": "O=C(OCC)C(Cl)C=1C=CC=CC1",
        "Molecular Formula": "C<sub>10</sub>H<sub>11</sub>ClO<sub>2</sub>",
        "Molecular Mass": "198.65",
        "Boiling Point": "132-133 °C @ Press: 13 Torr",
        "Density": "1.162 g/cm³ @ Temp: 16.4 °C"
    }
}