{
    "cas_no": "57999-49-2",
    "key_name": "2-(3-Bromophenoxy)tetrahydro-2<em>H</em>-pyran",
    "cn_name": null,
    "alternate_name": "2<em>H</em>-Pyran, 2-(3-bromophenoxy)tetrahydro-;Pyran, 2-(<em>m</em>-bromophenoxy)tetrahydro-;2-(3-Bromophenoxy)tetrahydro-2<em>H</em>-pyran;3-(Tetrahydropyran-2-yloxy)phenyl bromide;2-(3-Bromophenoxy)tetrahydropyran;3-Bromophenyl tetrahydro-2<em>H</em>-pyran-2-yl ether;2-(3-Bromophenoxy)oxane",
    "duplicated_cas_no": "1189572-66-4",
    "SMILES": "O(C1=CC(Br)=CC=C1)C2CCCCO2",
    "meta_data": {
        "InChI": "InChI=1S/C11H13BrO2/c12-9-4-3-5-10(8-9)14-11-6-1-2-7-13-11/h3-5,8,11H,1-2,6-7H2",
        "InChIKey": null,
        "Canonical SMILES": "BrC1=CC=CC(OC2OCCCC2)=C1",
        "Molecular Formula": "C<sub>11</sub>H<sub>13</sub>BrO<sub>2</sub>",
        "Molecular Mass": "257.12",
        "Boiling Point": "115 °C @ Press: 0.4 Torr"
    }
}