{
    "cas_no": "1572-52-7",
    "key_name": "2-Methyleneglutaronitrile",
    "cn_name": "2-亚甲基戊二腈;",
    "alternate_name": "Pentanedinitrile, 2-methylene-;Glutaronitrile, 2-methylene-;2-Methylenepentanedinitrile;α-Methyleneglutaronitrile;2,4-Dicyano-1-butene;2-Methyleneglutaronitrile;α-Methyleneglutarodinitrile;2-Methyleneglutarodinitrile;α-Cyanoethylacrylonitrile;2-Methylidenepentanedinitrile",
    "duplicated_cas_no": "",
    "SMILES": "C(CCC#N)(C#N)=C",
    "meta_data": {
        "InChI": "InChI=1S/C6H6N2/c1-6(5-8)3-2-4-7/h1-3H2",
        "InChIKey": null,
        "Canonical SMILES": "N#CC(=C)CCC#N",
        "Molecular Formula": "C<sub>6</sub>H<sub>6</sub>N<sub>2</sub>",
        "Molecular Mass": "106.13",
        "Boiling Point": "75-78 °C @ Press: 0.15 Torr",
        "Density": "0.9756 g/cm³ @ Temp: 25 °C"
    }
}