{
    "cas_no": "6294-89-9",
    "key_name": "Methyl carbazate",
    "cn_name": "肼基甲酸甲酯;",
    "alternate_name": "Hydrazinecarboxylic acid, methyl ester;Carbazic acid, methyl ester;Methyl carbazate;Methyl hydrazinoformate;Methyl hydrazinocarboxylate;Carbomethoxyhydrazide;(Methoxycarbonyl)hydrazine;Methyl hydrazinecarboxylate;Methyl carbazinate;(Methoxycarbonyl)hydrazide;Carbomethoxyhydrazine;NSC 11709;<em>N</em>-(Methoxycarbonyl)hydrazine;Methyl <em>N</em>-aminocarbamate",
    "duplicated_cas_no": "",
    "SMILES": "C(NN)(OC)=O",
    "meta_data": {
        "InChI": "InChI=1S/C2H6N2O2/c1-6-2(5)4-3/h3H2,1H3,(H,4,5)",
        "InChIKey": null,
        "Canonical SMILES": "O=C(OC)NN",
        "Molecular Formula": "C<sub>2</sub>H<sub>6</sub>N<sub>2</sub>O<sub>2</sub>",
        "Molecular Mass": "90.08",
        "Melting Point": "73 °C"
    }
}