{
    "cas_no": "17057-04-4",
    "key_name": "<em>N</em>-(4-Carboxyphenyl)maleimide",
    "cn_name": null,
    "alternate_name": "Benzoic acid, 4-(2,5-dihydro-2,5-dioxo-1<em>H</em>-pyrrol-1-yl)-;Benzoic acid, <em>p</em>-maleimido-;4-(2,5-Dihydro-2,5-dioxo-1<em>H</em>-pyrrol-1-yl)benzoic acid;4-Maleimidobenzoic acid;<em>N</em>-(4-Carboxyphenyl)maleimide;<em>p</em>-Maleimidobenzoic acid;<em>p</em>-(<em>N</em>-Maleimido)benzoic acid;<em>N</em>-(<em>p</em>-Carboxyphenyl)maleimide;NSC 14889;NSC 521355;<em>p</em>-Carboxyphenylmaleimide;4-(2,5-Dioxo-2,5-dihydropyrrol-1-yl)benzoic acid",
    "duplicated_cas_no": "",
    "SMILES": "O=C1N(C2=CC=C(C(O)=O)C=C2)C(=O)C=C1",
    "meta_data": {
        "InChI": "InChI=1S/C11H7NO4/c13-9-5-6-10(14)12(9)8-3-1-7(2-4-8)11(15)16/h1-6H,(H,15,16)",
        "InChIKey": null,
        "Canonical SMILES": "O=C(O)C1=CC=C(C=C1)N2C(=O)C=CC2=O",
        "Molecular Formula": "C<sub>11</sub>H<sub>7</sub>NO<sub>4</sub>",
        "Molecular Mass": "217.18",
        "Melting Point": "225-228 °C"
    }
}