{
    "cas_no": "990-91-0",
    "key_name": "<em>P</em>,<em>P</em>,<em>P</em>′,<em>P</em>′-Tetrakis(phenylmethyl) (diphosphate)",
    "cn_name": "焦磷酸四苄酯;",
    "alternate_name": "Diphosphoric acid, <em>P</em>,<em>P</em>,<em>P</em>′,<em>P</em>′-tetrakis(phenylmethyl) ester;Pyrophosphoric acid, tetrabenzyl ester;Diphosphoric acid, tetrakis(phenylmethyl) ester;Benzyl pyrophosphate ([(C<sub>7</sub>H<sub>7</sub>O)<sub>2</sub>PO]<sub>2</sub>O);<em>P</em>,<em>P</em>,<em>P</em>′,<em>P</em>′-Tetrakis(phenylmethyl) (diphosphate);Tetrabenzyl pyrophosphate;Tetrabenzyl diphosphate;Dibenzyl [[bis-(benzyloxy)phosphoryl]oxy]phosphonate;Diphosphoric acid tetrabenzyl ester",
    "duplicated_cas_no": "",
    "SMILES": "P(OP(OCC1=CC=CC=C1)(OCC2=CC=CC=C2)=O)(OCC3=CC=CC=C3)(OCC4=CC=CC=C4)=O",
    "meta_data": {
        "InChI": "InChI=1S/C28H28O7P2/c29-36(31-21-25-13-5-1-6-14-25,32-22-26-15-7-2-8-16-26)35-37(30,33-23-27-17-9-3-10-18-27)34-24-28-19-11-4-12-20-28/h1-20H,21-24H2",
        "InChIKey": null,
        "Canonical SMILES": "O=P(OCC=1C=CC=CC1)(OCC=2C=CC=CC2)OP(=O)(OCC=3C=CC=CC3)OCC=4C=CC=CC4",
        "Molecular Formula": "C<sub>28</sub>H<sub>28</sub>O<sub>7</sub>P<sub>2</sub>",
        "Molecular Mass": "538.47",
        "Melting Point": "59-60 °C"
    }
}