{
    "cas_no": "25068-38-6",
    "key_name": "Bisphenol A epoxy resin",
    "cn_name": "环氧树脂粘合剂506;双酚 A 与环氧氯丙烷的聚合物;环氧树脂1001;",
    "alternate_name": "Phenol, 4,4′-(1-methylethylidene)bis-, polymer with 2-(chloromethyl)oxirane;Phenol, 4,4′-isopropylidenedi-, polymer with 1-chloro-2,3-epoxypropane;Phenol, 4,4′-(1-methylethylidene)bis-, polymer with (chloromethyl)oxirane;Propane, 1-chloro-2,3-epoxy-, polymer with 4,4′-isopropylidenediphenol;Oxirane, (chloromethyl)-, polymer with 4,4′-(1-methylethylidene)bis[phenol];2,2-Bis(<em>p</em>-hydroxyphenyl)propane-epichlorohydrin condensate;Epon 828;Bisphenol A-epichlorohydrin copolymer;Epichlorohydrin-bisphenol A epoxy resin;Epichlorohydrin-bisphenol A resin;Bisphenol A-epichlorohydrin resin;Epichlorohydrin-bisphenol A copolymer;Bisphenol A-epichlorohydrin epoxy resin;ED 5;Bisphenol A-epichlorohydrin condensate;Epon 836;Bis(<em>p</em>-hydroxyphenyl)dimethylmethane-epichlorohydrin copolymer;Bakelite PKDA;Epi-Rez 510;ERL 2795;Diphenylolpropane-epichlorohydrin copolymer;Phenoxy PKHH;Epichlorohydrin-4,4′-dihydroxydiphenylpropane copolymer;Epoxy 7071;Epon 1004;Araldite 6084;Epikote 828;Araldite 6010;Diphenylolpropane-epichlorohydrin polymer;ED-L;Epikote 1004;Epikote 1007;Epon 1001;Epon 1002;Epon 826;Epotuf 37-139;1-Chloro-2,3-epoxypropane-4,4′-isopropylidenebisphenol polymers;1-Chloro-2,3-epoxypropane-4,4′-isopropylidenediphenol polymer;2,2-Bis(4-hydroxyphenyl)propane-epichlorohydrin polymer;4,4′-Dihydroxydiphenylpropane-epichlorohydrin polymer;4,4′-Isopropylidenediphenol-1-chloro-2,3-epoxypropane polymer;Casting Resin F;2,2-Bis(<em>p</em>-hydroxyphenyl)propane-epichlorohydrin copolymer;Epichlorohydrin-2,2-bis(4-hydroxyphenyl)propane copolymer;ERL 2774;Epon Resin 828;Araldite GY 280;Epon 834;E 40 (epoxy resin);Epikote 834;Araldite GY 250;Araldite GY 260;Araldite 6005;Bakelite PAHJ;ChS 110;CY 205;DER 321;DER 331;Dian-epichlorohydrin polymer;EKR 2002;Epichlorohydrin-diphenylolpropane polymer;Epichlorohydrin-2,2-bis(4-hydroxyphenyl)propane polymer;Epichlorohydrin-4,4′-isopropylidenediphenol polymer;Epikote OL 53L32;Epikote 1001;Epikote 1009;Epikote 1010;Epi-Rez 508;Epon 1009;Epon 830;Epon 840;Eponol 53B40;Eponol 53L32;Eponol 55B40;Eponol 55L32;Grilonit WLT 4305;GY 250;Phenoxy 8500;PRNA 8000;2,2-Bis(<em>p</em>-hydroxyphenyl)propane-epichlorohydrin polymer;2,2-Diphenylolpropane-epichlorohydrin polymer;Epon 1001X80;Araldite 471X75;PKHH;Epikote DX 231;Epon 1007;Beckopox EP 301;4,4′-Isopropylidenediphenol-epichlorohydrin polymer;Araldite 527;DER 330;GY 280;Araldite 7065;Araldite AY 103;AY 103;EP 301;EP 302;EP 304;Beckopox EP 307;Epiterm;MY 740;Epikote 830;Epikote 836;Epikote 840;Epikote 1002;Genepoxide;EKPA 8424;Araldite 6020;Araldite MY 750;SD 636;Epi-Rez 530;Eponol 55;Epon 825;DER 622;Phenoxy PAHJ;ChS 15;ChS Epoxy 15;Araldite CY 205;ChS 1/33;Epichlorohydrin-bisphenol A polymer;Epocast 221-40;2,2-Bis(4-hydroxyphenyl)propane-epichlorohydrin copolymer;Rutapox 0180E;Thixon AB 1244;Epoxy 15;Grilonit G 16.05;Bakelite PRDA 8060;DER 661;Epikote DX 210;Araldite MY 740;X 102;Epiterm 1;Epikote 1055;Epikote DX 57;Epiterm W 5;Epiterm W 20;Epiterm W 30;Epiterm W 40;DER 488N40;Araldite 684EK40;Araldite AW 116A;Araldite CY 206;Araldite 6004;Epon 201;Thixon XAB 894;PRDA 8080;DER 684;PAHJ;Sumiepoxy ELA 115CA;Epikote 828 resin;ChS 15 (epoxy resin);Bakelite PKHH;2,2-Bis(hydroxyphenyl)propane-epichlorohydrin copolymer;684EK40;SD 289;ED 20;ED 22;Bakelite ERL 2774;Epon 1010;Epon 384;Epon 820;Epon 829;Epiterm W;Beckopox EP 304;Eurepox 110;Epomik A 3;Lopox R 200;Araldite LY 556;LY 556;ChS Epoxy 110;Ciba Geigy MY 750;GenEpoxy 205;TSX 679;Epidian 1;Vanoxy 128;Epidian 3;Epidian 4;DER 671;Epidian 5;Epidian 2;Epidian 12;Epidian 14;Dinox 040;E 44 (resin);ED 24;ED-NSP;ED 8;164SV;Gromalit K 300;E 44;Epo Tohto YD 128;Eurepox 7004;Eurepox 716;Yuka E 102;Yuka E 803;Epon DRH 201;Epi-Rez 510C;Araldite 6099;Sumiepoxy ELA 128;UP 503A;Araldite 6071;DER 66;Shodine 428;AER 331;Epi-Rez 520C;DRH 302;EP 420;Araldite 6097;Stycast 2850FT;Araldite XU 167;AER 661;Araldite 7072;Epomik R 130;STER;Lopox 200;Epomik R 144;Eponol 55BQ20;E 49 (polymer);Bisphenol A-Epon 829 copolymer;EP 1001;E 41 (resin);Shell 826;PKHC;Bakelite ERL 2744;Bakelite PKHC;Araldite EP 828;EP 302 (polymer);EP 5196N;EP 5196V;Epotuf 37-301;Beckopox 37-140;EP 828;Bakelite PKHJ;E 41;Aicarpox BS 001SS;Aicarpox BS 001OG;Aicarpox BS 001;Aicarpox BS 004S;Aicarpox BS 004;Aicarpox BL 100;Aicarpox BS;Aicarpox BL;Lekutherm X 18;Araldite 7071;XB 301;Bakelite PKHH 8500;ChS 1003;Dian-epichlorohydrin copolymer;DER 331-DER 332 copolymer;SB 20;SB 20 (epoxy resin);Araldite GT 7004;Levepox 4020;Sumiepoxy ESA 011;Sumiepoxy ESA 014;Beckopox 37139;Epiclon H 353;AER 337;Bakelite PKDA 8500;AER 664;Arnox 3110;Epiclon 850;Epon 2001;AER 667;AER 669;Pheno Tohto YP 50CS25B;Araldite MY 6100;Araldite MY 6200;Araldite MY 6400;Araldite 6100;DX 57;DX 231;CE 10;E 15;Epidian 51;Sumiepoxy ESA 001;Beckopox VEP 2354;Bakelite 164;Varcum 27-109;Epon 9302;AER 664P;Epon 1104;E 828;UP 5-207;Araldite GT 6071;Araldite GT 7071;Epikote 100;PKHH 8500;Araldite CY 225;Araldite CW 226;EP 825;Araldite GT 6084;DX 210;Epikote 829;Epi-Rez 828;Araldite GT 7097;Araldite GT 6099;Epikote 834X90;Epikote 834X80;Eurepox 710;DER 383;Epidian 6;Epomik R 140;Epikote 2057;Eponol 53;Epon 9102;Epikote 255;PKHJ;Epoxy 270;Epidian 202;E 40;Adeka EP 4300;Epon 1004F;EP 420 (polymer);Epon 1009F;E 49;AER 661x-75;Epon 1001B80;Shell 828;Epon 828LS;Epon 1001X75;CB 4 (epoxy resin);Epon 834X90;CB 4;Epiclon 1051-75M;YD 128;A 39;Adeka EP 5100-75X;Epon 1001F;LC 81-0920;ChS 12;Epomik R 364;Araldite GY 6010;GY 260;Epon 1007F;Epikote 1100L;ELA 128;Phenoxy PKHJ;Phenoxy PKHA;Bakelite PKHA;Epiclon EXA;DER 668E;Bisphenol A epoxy resin;GT 7004;Denacast EM 103;Denacast EM 101;Epon 2004;Epoxa AP 2;Bisphenol A-(chloromethyl)oxirane copolymer;AP 2;E 05m;H 353;Pheno Tohto YP 50;YP 50;Novepox 380;Ucar PKHC;ESA 001;EP 1004;Epikote EP 1004;Epiclon 9055;Epiclon 4050;Epiclon 840;Epiclon 1050;Epiclon 7050;Lopox 440;Epiclon 9155;E 6101;Epoxy 6101;DER 361;PKCH;Epiol E 001;Epiol E 034;AD 301;Ucar PKHH;Bakelite PKHH 4240;E 1004;Araldite GT 7013;Epiclon 9056;E 39;Diepoxa 600;Diepox 600;X 2317;Adeka Optomer KRM 2410;KRM 2510;Araldite GY 6071;Araldite GY 6084;Araldite GY 6097;GY 6084;FE 6026A;Adbond 5300A;ED 16;Ucar Phenoxy PKHH;Epoxy 1200L;Epiclon 4055;Epiclon 7055;Epikote 3003;Epikote EP 1007;Epikote 828X90;EP 1007;Adeka EP 5900;Adeka EP 5700;A 39 (polymer);Epikote E 1001;E 1001;DER 668;Araldite GT 7072;Araldite GT 7203;DER 669;EP 5900;DER 684EK40;Cardolite NC 1307;Araldite GT 6100;Epomik R 307;Epomik R 309;R 309;Dow 331;Epiclon 1050-70;XAC 5020;E 31 (epoxy resin);E 31;Epon 2002;Epon 827;Epon 287;CYD 128;Epo Tohto YD 014;YD 014;Araldite XB 3083;Epikote 828 homopolymer;EP 1002;Epon 291;CY 225;Oshikadain TE 54;Epotuf 92-737;EP 1009;YD 7011R;Epomik R 140C;Araldite PZ 3961;Araldite GZ 7071X75;Bisphenol A-epichlorohydrin polymer;Epomik R 367;Epon 880;Araldite GT 7099;Araldite GZ 488N40;Epotuf 38-525;Epi-Rez 3540WY55;AA 2662;R 367;N 4002-5;Epo Tohto YD 927;EDSV 95;Eposir 7020;Eurepox 730;ED 8 (epoxy resin);Paphen PKHH;Paphen 301;UCAR Phenoxy Resin PKHJ;EX 1548;Epo Tohto YD 7020;YD 7020;Epikote 1003F;Nelco N 4002-5;Epon 828RS;Bakelite PRDA 8080;Bisphenol A-glycidyl chloride copolymer;Epon DPS 2014;Epon DPS 2012;Epiclon HM 091;Araldite XB 3010;ARC-R 12D15;Epiclon 860;ZX 1519;Paphen PKHJ;Epon 2042;Epikote E 5048;Epichlorohydrin-4,4′-isopropylidenediphenol copolymer;GZ 9625W90;DER 333N;E 001-75X;Epiclon 1121-75M;Epi-Rez 3540;Epo Tohto YD 011-75X;ED 6;ED 6 (epoxy resin);ED 5-ED 6 mixt.;Epikote 828US;Araldite GY 257;AER 2603;KRM 2410;Araldite AER 2603;BE 502;TH 4000 (epoxy resin);Epoxy 828;4,4′-Isopropylidenediphenol-epichlorohydrin copolymer;MY 750;RE 310;EE 190;EPO 1451-310;ZX 1449-8;XZ 92500;Epikote 545;Waterpoxy 1455;EH 82;EP 850;Epikote R 140;Epiclon E 850;E 850;EP 116;EP 116 (epoxy resin);Epikote 828CD;ED 14;Epikote 1001X50;Arsonpol 825/2;E 20;E 20 (Chinese resin);Diaplast;Pri-epoh PE 10;Araldite GT 6703;NSC 11096;Bisphenol A-<em>p</em>-cumylphenol-epichlorohydrin copolymer;Paphen PKHS;KD 242G;Stycast Blue 2850FT;Stycast Black 2850FT;Vantico LY 556;R 140;Epon Resin 826;GT 6071;Curezol 2E4MZ-EP 828 copolymer;DER 331J;Araldite CY 219;Dicfine EN 0270;EN 0270;Epikote E 1004;Paphen PKHB;EP 5100-75P;Adeka Resin EP 5100-75P;Epiclon AM 040P;E 001-75B;Specifix 20;02Y040;Epi-Rez 3551WY43;ED 5 (epoxy resin);Araldite GZ 7071X75CH;Epiclon 900IM;PY 3483;RSW 3861;RSW 3860;RSW 3822;Ropoxide 500;EDT 69MR;PKHB;JER 828;Araldite PY 3483;GT 7071;Epilox A 50-02;Epon 834X80;Araldite GT 6063ES;Epidian 16;Bisphenol A-Epikote 828 copolymer;Pheno Tohto YP 50S;YP 50S;Uvicure P 1000;JER 1001B80;JER 1007;Easy Cast;JER 1002;Epotec YD 126;Epotec YD 128;JER 834;JER 1055;JER 828US;PKHA;Reploxy 467;Bisphenol A-Epiclon 850 copolymer;Shell 1009;YLH 1302L;YLH 1302;YD 128SM;BPA 348;PKHP 80;JER-E 1256;Epikote E 1256;E 1256;JER 1010;EP 3 (epoxy resin);EP 3;EP 4;EP 4 (epoxy resin);GY 6010;Epikote 1009F;JER 1009F;Kukdo KD 242G;Epikote 1001X75;JER 1001X75;Bisphenol A-epichlorohydrin-Epikote 1001X75 copolymer;EK 1001;Epo-Tek OG 142-17;Epikote EP 1009;Epiclon AM 020P;Epokukdo YD 128;JER 834X90;YL 7620;Hexion 1002;Hexion 1001;Araldite G 277071X75;Eponol 53BH35;YN 1828;Epicoat 828-2-phenyl-4-methylimidazole copolymer;AB-EP 51;Y 128;Epothin 20-8140-032;Bisphenol A-DER 331 copolymer;Araldite GY 6010CSR;L 930HT;AER 6084;Paphen PKFE;UCAR PKFE;PKFE;InChemRez Phenoxy PKFE;Phenoxy PKFE;XZ 92533.0;EP 4500A;YD 126;EEW 230-257;AD 502SR;828US;HM 091;Araldite GZ 7-7071X75;1001X75;E 44 epoxy resin;SM 601;EP 828-YP 50 copolymer;Stycast FT 2850;XR 6310B;Biresin CR 120;RA 928;Epox MK-R 151HF;YD 128-YP 50 copolymer;JER 828-YP 50 copolymer;Araldite DY-E/BD;CHS 141 (epoxy resin);SM 601 (epoxy resin);Epoxy Ester 600A;(Chloromethyl)oxirane-4,4′-(1-methylethylidene)bisphenol copolymer;DER 667E;Epoxy 826;Epi-Rez 3546WH53;YN 1826;R 307;Baxxores ER 2200;Bisphenol A-DER 331J copolymer;UniBond 5 Minute Epoxy;UniBond Repair 5 Minute;UniBond Repair 5 Minute Epoxy;BBT 7892;E 834;Sanmu 601;DT 206;DER 6330A10;DER 317;DER 6224;DER 6155;RenLam CY 219;Epiclon EP 1050-70X;Bisphenol A-2-(chloromethyl)oxirane copolymer;Bisphenol A-epichlorohydrine copolymer;JER 1255HX30;JER 1004K;Epikote 1004K;Epidian 6D;JER-W 2801;Epokukdo YD 128K;EXA 840;ChemRes 628;KER 828;TH 4000;Amosil 4R;GT 7072;Epoxylite 3750LV;Epon 828-Epikure 3253 copolymer;Epoxy 1001;Epocyl NC-E 128-02;JER 1003F;Euderm Fix GA-I;ER 828;YD 535LV;Epotec YD 535LV;WSR 6101;Dow 661;EXE 313;Huntsman PZ 3961;Epoxy 3961;GELR 28E;G 703A;GZ 7-7071X75;KB 500;E 1451-310;Bisphenol a-epichlorohydrin-benzyl alcohol copolymer;Bisphenol a-epichlorohydrin-dibenzylamine copolymer;E 838;WAR 618;Epoxy 1200;ChS 1200;CHS Epoxy 1200;Epikote 04976;Araldite FCI;Aradur 22962-Araldite LY 556 copolymer;GY 257;Araldite LY 3585;HW 828;CHS-Epoxy G 530;EnviPOXY 530;CHS-G 530;HDE 8179WB;CY 219;Epon 28;Biresin CR 82;Epoxy L 385;DER 31;EDK-R 05;Bontepone 1030;PKHB+ XLV;Duratek DTE 1710;Araldite LY 556CS;CYD 144;Epon 828-HY 9601 copolymer;Epiran 06FL;YT-CC 301;JER 5045;E 834-85X;E 128 (epoxy resin);E 128;WEP 353;JER 1002W;Epotec YDL 670;Epilok 60-600G;Epon Resin 830;Epon Resin 834;Adeka resin EP 4300;Epoxy 1828;Adeka Resin EP 4700;YPE 011P;CHS-Epoxy 324;CHS-Epoxy 525;Razeen LR 1110;Hongchang 128;Changchun 188;YD 126SP;Stantone 25-04;CHS-Epoxy 582;AM 8927A;E 16 (epoxy resin);E 16;EPR 174;WS 615;EM 0425C;Vipel F 013AAB00;SM 6101;Norfox 828;Epon 2003;WRS 6101;Epo Tohto YD 128D;YL 7852BT40;EP 3162EMG;XW 6640-1;G 277071X75;Ecopond SEW 47S;Epikote JER 1004K;Epikote 828-tetraethylenetriamine copolymer;Epores 11564;YD 128K;EP 806;Bisphenol A-epichlorohydrin-2-methylimidazole copolymer;ThreeBond 2086M Main Agent;AC 510UV;BE 509;EU 6001;ZAR 2050H;E 001-75MEK;KFR 511;YD 13;BE 501A80;KP 158;EM 828;SWR 618",
    "duplicated_cas_no": "1336-88-5;1337-15-1;8000-31-5;9015-99-0;9049-54-1;9050-21-9;9081-91-8;9083-76-5;9084-94-0;9086-62-8;9087-26-7;9087-76-7;11097-80-6;11098-13-8;11098-40-1;11100-23-5;11108-41-1;11120-31-3;11121-19-0;11126-36-6;20232-24-0;35038-60-9;36344-96-4;36347-13-4;36347-14-5;37184-50-2;37184-52-4;37208-29-0;37217-92-8;37230-74-3;37243-66-6;37243-67-7;37251-33-5;37265-21-7;37270-82-9;37291-75-1;37293-07-5;37294-18-1;37305-82-1;37307-45-2;37317-45-6;37325-21-6;37338-63-9;37342-17-9;37345-34-9;37348-56-4;37348-57-5;37357-73-6;37360-93-3;39277-59-3;39288-99-8;39296-08-7;39296-09-8;39296-11-2;39296-15-6;39315-77-0;39349-91-2;39354-86-4;39362-25-9;39362-45-3;39373-81-4;39378-29-5;39378-55-7;39389-49-6;39405-18-0;39412-57-2;39419-66-4;39453-22-0;39453-23-1;39454-54-1;39454-69-8;39470-62-7;42612-34-0;42618-03-1;50642-36-9;50642-55-2;50642-78-9;51158-20-4;51273-81-5;51329-73-8;51393-99-8;51394-03-7;51553-00-5;52011-87-7;52038-45-6;52051-70-4;52051-82-8;52052-16-1;52136-93-3;52232-05-0;52232-75-4;52276-55-8;52365-33-0;52519-66-1;52519-67-2;52627-94-8;52907-38-7;52907-70-7;53027-88-6;53127-14-3;53200-30-9;53238-86-1;53238-87-2;53239-67-1;53239-68-2;53570-97-1;53570-98-2;53681-78-0;53858-93-8;54018-73-4;54352-05-5;55464-96-5;55584-55-9;55585-07-4;55818-73-0;56258-35-6;56449-43-5;56509-48-9;57107-66-1;57284-90-9;57534-21-1;57693-04-6;58052-05-4;58128-38-4;58392-89-5;58392-92-0;58516-14-6;58572-71-7;59029-19-5;59459-14-2;59473-30-2;59948-36-6;60202-19-9;60267-31-4;60382-89-0;60606-56-6;60800-54-6;60831-77-8;60894-16-8;61036-82-6;61287-42-1;61356-27-2;61711-38-4;61763-30-2;61991-18-2;62169-28-2;62169-29-3;62601-75-6;62601-76-7;62887-23-4;63055-40-3;63172-55-4;63799-24-6;63993-57-7;63993-58-8;64086-14-2;64086-16-4;64176-52-9;64176-61-0;64176-66-5;64177-03-3;65233-49-0;65931-38-6;65931-39-7;66995-96-8;67185-62-0;68821-97-6;69899-40-7;70179-83-8;70213-44-4;70726-45-3;71965-91-8;72514-40-0;73413-19-1;74504-20-4;74564-76-4;75831-44-6;78564-77-9;79585-43-6;80702-61-0;81458-12-0;81843-56-3;81843-57-4;81843-58-5;81855-87-0;82197-12-4;82197-46-4;83202-85-1;84286-97-5;84683-04-5;84931-29-3;85537-69-5;86090-60-0;88385-37-9;88528-19-2;88651-18-7;89750-00-5;91727-28-5;91727-29-6;92481-37-3;95327-25-6;96420-31-4;96510-68-8;97568-16-6;97709-01-8;99400-50-7;101027-12-7;102256-87-1;103599-13-9;103599-14-0;104364-97-8;104491-99-8;105521-57-1;106207-08-3;106856-89-7;107991-47-9;108556-05-4;108728-21-8;110158-22-0;111367-08-9;111517-59-0;112651-28-2;112651-29-3;114013-37-5;115902-32-4;117216-90-7;117313-45-8;117786-92-2;118340-04-8;120146-74-9;120797-43-5;121181-85-9;121273-37-8;121547-73-7;123939-44-6;125147-87-7;127176-80-1;127176-81-2;128281-71-0;132822-20-9;132893-73-3;135976-90-8;137545-29-0;138157-20-7;138361-18-9;139554-29-3;142540-11-2;144046-24-2;144046-25-3;144855-66-3;149013-58-1;150825-32-4;157321-42-1;157481-46-4;158725-45-2;160674-45-3;161937-12-8;162031-55-2;167972-06-7;168042-08-8;179607-24-0;183581-68-2;183890-12-2;187619-11-0;188448-56-8;189282-47-1;189282-49-3;191606-83-4;201304-19-0;220090-06-2;222835-65-6;222835-66-7;222835-68-9;222835-69-0;222835-70-3;222835-72-5;222835-74-7;222835-77-0;309945-96-8;328935-09-7;339530-81-3;353239-57-3;367523-08-8;383889-26-7;383889-27-8;395069-05-3;470462-49-8;681001-41-2;848887-61-6;872596-37-7;891487-48-2;913745-83-2;917483-69-3;922728-11-8;934588-09-7;941597-99-5;945610-97-9;948992-61-8;950907-45-6;1033821-54-3;1034342-45-4;1048989-43-0;1068160-75-7;1070874-17-7;1082736-74-0;1096473-97-0;1114797-08-8;1189565-70-5;1190235-62-1;1190729-68-0;1192045-32-1;1195324-26-5;1196030-95-1;1198291-96-1;1199811-18-1;1203835-26-0;1206700-05-1;1228639-00-6;1245563-83-0;1271727-39-9;1276666-33-1;1300093-58-6;1300102-07-1;1305321-17-8;1338071-08-1;1353045-94-9;1365383-44-3;1380230-29-4;1446691-72-0;1450839-98-1;1620807-39-7;1641551-32-7;1803435-34-8;1807886-27-6;1807886-28-7;1815624-46-4;1815624-47-5;1994388-81-6;1994388-82-7;2111196-55-3;2170564-75-5;2249753-66-8;2252390-18-2;2299275-93-5;2380226-09-3;2416773-20-9;2448339-62-4;2495113-45-4;2597986-71-3;2598942-65-3;2636014-98-5;2725752-42-9;2728646-80-6;2767256-64-2;2802422-01-9;2802422-02-0;2978634-74-9",
    "SMILES": "C(Cl)C1CO1.C(C)(C)(C1=CC=C(O)C=C1)C2=CC=C(O)C=C2",
    "meta_data": {
        "InChI": "InChI=1S/C15H16O2.C3H5ClO/c1-15(2,11-3-7-13(16)8-4-11)12-5-9-14(17)10-6-12;4-1-3-2-5-3/h3-10,16-17H,1-2H3;3H,1-2H2",
        "InChIKey": null,
        "Canonical SMILES": "ClCC1OC1.OC1=CC=C(C=C1)C(C2=CC=C(O)C=C2)(C)C",
        "Molecular Formula": "(C<sub>15</sub>H<sub>16</sub>O<sub>2</sub>.C<sub>3</sub>H<sub>5</sub>ClO)<sub>x</sub>",
        "Molecular Mass": "",
        "Boiling Point": "114-118 °C",
        "Melting Point": "64-74 °C",
        "Density": "1.159 g/cm³"
    }
}