{
    "cas_no": "3512-18-3",
    "key_name": "2,3,6-Trifluoropyridine",
    "cn_name": "2,3,6-三氟吡啶;2,3,6-三氟吡啶;",
    "alternate_name": "Pyridine, 2,3,6-trifluoro-;2,3,6-Trifluoropyridine",
    "duplicated_cas_no": "",
    "SMILES": "FC1=C(F)C=CC(F)=N1",
    "meta_data": {
        "InChI": "InChI=1S/C5H2F3N/c6-3-1-2-4(7)9-5(3)8/h1-2H",
        "InChIKey": null,
        "Canonical SMILES": "FC=1N=C(F)C(F)=CC1",
        "Molecular Formula": "C<sub>5</sub>H<sub>2</sub>F<sub>3</sub>N",
        "Molecular Mass": "133.07",
        "Boiling Point": "115-117 °C"
    }
}