{
    "cas_no": "322-79-2",
    "key_name": "Triflusal",
    "cn_name": "三氟醋柳酸;2-乙酰氧基-4-三氟甲基苯甲酸;",
    "alternate_name": "Benzoic acid, 2-(acetyloxy)-4-(trifluoromethyl)-;2,4-Cresotic acid, α,α,α-trifluoro-, acetate;2-(Acetyloxy)-4-(trifluoromethyl)benzoic acid;Triflusal;UR 1501;2-Acetoxy-4-(trifluoromethyl)benzoic acid;Disgren;2-Carboxy-5-(trifluoromethyl)phenyl acetate",
    "duplicated_cas_no": "2087491-29-8",
    "SMILES": "O(C(C)=O)C1=C(C(O)=O)C=CC(C(F)(F)F)=C1",
    "meta_data": {
        "InChI": "InChI=1S/C10H7F3O4/c1-5(14)17-8-4-6(10(11,12)13)2-3-7(8)9(15)16/h2-4H,1H3,(H,15,16)",
        "InChIKey": null,
        "Canonical SMILES": "O=C(O)C1=CC=C(C=C1OC(=O)C)C(F)(F)F",
        "Molecular Formula": "C<sub>10</sub>H<sub>7</sub>F<sub>3</sub>O<sub>4</sub>",
        "Molecular Mass": "248.16",
        "Melting Point": "121 °C"
    }
}