{
    "cas_no": "101-54-2",
    "key_name": "<em>N</em>-Phenyl-<em>p</em>-phenylenediamine",
    "cn_name": "对氨基二苯胺;N-苯基-1,4-苯二胺;N-苯基对苯二胺;4-氨基二苯胺;",
    "alternate_name": "1,4-Benzenediamine, <em>N</em><sup>1</sup>-phenyl-;<em>p</em>-Phenylenediamine, <em>N</em>-phenyl-;1,4-Benzenediamine, <em>N</em>-phenyl-;Variamine Blue RT;<em>N</em><sup>1</sup>-Phenyl-1,4-benzenediamine;C.I. 76085;<em>p</em>-Aminodiphenylamine;C.I. Developer 15;C.I. Oxidation Base 2;Diphenyl Black;Luxan Black R;Peltol BR;Peltol BR II;<em>N</em>-Phenyl-<em>p</em>-aminoaniline;<em>N</em>-Phenyl-<em>p</em>-phenylenediamine;4-Aminodiphenylamine;<em>p</em>-Anilinoaniline;<em>N</em>-Phenyl-1,4-phenylenediamine;Semidine;Semidin;<em>p</em>-(Phenylamino)aniline;<em>N</em>,4′-Bianiline;<em>p</em>-Semidine;<em>N</em>-Phenyl-1,4-benzenediamine;4-(Phenylamino)aniline;4-Amino-<em>N</em>-phenylaniline;<em>N</em>-(4-Aminophenyl)aniline;4ADPA;4-Anilinoaniline;(4-(Phenylamino)phenyl)amine;NSC 3401;NSC 37074;4-Anilinophenylamine;4-(<em>N</em>-Phenylamino)aniline;S 789;Azoic Diazo Component 22;1-<em>N</em>-Phenylbenzene-1,4-diamine",
    "duplicated_cas_no": "12227-74-6;76600-63-0;2365226-94-2",
    "SMILES": "N(C1=CC=C(N)C=C1)C2=CC=CC=C2",
    "meta_data": {
        "InChI": "InChI=1S/C12H12N2/c13-10-6-8-12(9-7-10)14-11-4-2-1-3-5-11/h1-9,14H,13H2",
        "InChIKey": null,
        "Canonical SMILES": "NC1=CC=C(C=C1)NC=2C=CC=CC2",
        "Molecular Formula": "C<sub>12</sub>H<sub>12</sub>N<sub>2</sub>",
        "Molecular Mass": "184.24",
        "Boiling Point": "354 °C",
        "Melting Point": "75 °C",
        "Density": "1.09 g/cm³"
    }
}