{
    "cas_no": "1817-57-8",
    "key_name": "4-Phenyl-3-butyn-2-one",
    "cn_name": "4-苯基-3-丁炔-2-酮;",
    "alternate_name": "3-Butyn-2-one, 4-phenyl-;4-Phenyl-3-butyn-2-one;Acetylphenylacetylene;Methyl phenylethynyl ketone;Phenylethynyl methyl ketone;1-Phenyl-1-butyn-3-one;4-Phenyl-3-butyne-2-one;(3-Oxo-1-butynyl)benzene",
    "duplicated_cas_no": "",
    "SMILES": "C(#CC(C)=O)C1=CC=CC=C1",
    "meta_data": {
        "InChI": "InChI=1S/C10H8O/c1-9(11)7-8-10-5-3-2-4-6-10/h2-6H,1H3",
        "InChIKey": null,
        "Canonical SMILES": "O=C(C#CC=1C=CC=CC1)C",
        "Molecular Formula": "C<sub>10</sub>H<sub>8</sub>O",
        "Molecular Mass": "144.17",
        "Boiling Point": "110-111 °C @ Press: 5 Torr",
        "Melting Point": "4.0-4.5 °C",
        "Density": "1.0257 g/cm³ @ Temp: 20 °C"
    }
}