{
    "cas_no": "77-08-7",
    "key_name": "5,5′,6,6′-Tetrahydroxy-3,3,3′,3′-tetramethyl-1,1′-spirobisindane",
    "cn_name": "3,3,3\",3\"-四甲基2,2\",3,3\"-四氢-1,1-螺双[1H-茚]-5,5\",6,6\"-四醇;",
    "alternate_name": "1,1′-Spirobi[1<em>H</em>-indene]-5,5′,6,6′-tetrol, 2,2′,3,3′-tetrahydro-3,3,3′,3′-tetramethyl-;1,1′-Spirobi[indan]-5,5′,6,6′-tetrol, 3,3,3′,3′-tetramethyl-;2,2′,3,3′-Tetrahydro-3,3,3′,3′-tetramethyl-1,1′-spirobi[1<em>H</em>-indene]-5,5′,6,6′-tetrol;TTS 5;3,3,3′,3′-Tetramethyl-5,6,5′,6′-tetrahydroxy-1,1′-spirobiindan;3,3,3′,3′-Tetramethyl-1,1′-spirobi[indan]-5,5′,6,6′-tetrol;3,3,3′,3′-Tetramethyl-1,1′-spirobiindan-5,6,5′,6′-tetrol;5,6,5′,6′-Tetrahydroxy-3,3,3′,3′-tetramethyl-1,1′-spirobiindan;5,5′,6,6′-Tetrahydroxy-3,3,3′,3′-tetramethyl-1,1′-spirobihydrindene;5,5′,6,6′-Tetrahydroxy-3,3,3′,3′-tetramethyl-1,1′-spirobiindan;3,3,3′,3′-Tetramethyl-1,1′-spirobisindan-5,5′,6,6′-tetrol;(±)-5,5′,6,6′-Tetrahydroxy-3,3,3′,3′-tetramethyl-1,1′-spirobis(indan);NSC 512922;NSC 82063;3,3,3′,3′-Tetramethyl-1,1′-spirobisindane-5,5′,6,6′-tetrol;5,5′,6,6′-Tetrahydroxy-3,3,3′,3′-tetramethyl-1,1′-spirobisindane;1,1,1′,1′-Tetramethyl-3,3′-spirobi[2<em>H</em>-indene]-5,5′,6,6′-tetrol;3,3,3′,3′-Tetramethyl-2,2′,3,3′-tetrahydro-1,1′-spirobi[indene]-5,5′,6,6′-tetraol;3,3,3′,3′-Tetramethyl-2,2′,3,3′-tetrahydro-1,1′-spirobi[indene]-5,5′,6,6′-tetrol;5,5′,6,6′-Tetrahydroxy-3,3,3′,3′-tetramethyl-1,1′-spirobiindane;5,5′,6,6′-Tetrahydroxy-3,3,3′,3′-tetramethylspirobisindane",
    "duplicated_cas_no": "122465-36-5;163385-89-5;1010693-29-4",
    "SMILES": "CC1(C)CC2(C=3C(C(C)(C)C2)=CC(O)=C(O)C3)C=4C1=CC(O)=C(O)C4",
    "meta_data": {
        "InChI": "InChI=1S/C21H24O4/c1-19(2)9-21(13-7-17(24)15(22)5-11(13)19)10-20(3,4)12-6-16(23)18(25)8-14(12)21/h5-8,22-25H,9-10H2,1-4H3",
        "InChIKey": null,
        "Canonical SMILES": "OC=1C=C2C(=CC1O)C(C)(C)CC23C4=CC(O)=C(O)C=C4C(C)(C)C3",
        "Molecular Formula": "C<sub>21</sub>H<sub>24</sub>O<sub>4</sub>",
        "Molecular Mass": "340.41",
        "Melting Point": "315 °C"
    }
}