{
    "cas_no": "5072-26-4",
    "key_name": "Buthionine sulfoximine",
    "cn_name": "DL-(3-氨基-4-羧丙基)-(S,R)-丁基硫氧亚胺;",
    "alternate_name": "Butanoic acid, 2-amino-4-(<em>S</em>-butylsulfonimidoyl)-;Sulfoximine, <em>S</em>-(3-amino-3-carboxypropyl)-<em>S</em>-butyl-;Sulfoximine, 3-amino-3-carboxypropyl butyl;2-Amino-4-(<em>S</em>-butylsulfonimidoyl)butanoic acid;Butionine sulfoximine;Buthionine sulfoximine;<span class=\"text-smallcaps\">DL</span>-Buthionine (<em>S</em>,<em>R</em>)-sulfoximine;NSC 381100;MeSH ID: D019328",
    "duplicated_cas_no": "71765-30-5",
    "SMILES": "S(CCC(C(O)=O)N)(CCCC)(=N)=O",
    "meta_data": {
        "InChI": "InChI=1S/C8H18N2O3S/c1-2-3-5-14(10,13)6-4-7(9)8(11)12/h7,10H,2-6,9H2,1H3,(H,11,12)",
        "InChIKey": null,
        "Canonical SMILES": "O=C(O)C(N)CCS(=O)(=N)CCCC",
        "Molecular Formula": "C<sub>8</sub>H<sub>18</sub>N<sub>2</sub>O<sub>3</sub>S",
        "Molecular Mass": "222.31",
        "Melting Point": "254-255 °C"
    }
}