{
    "cas_no": "131-11-3",
    "key_name": "Dimethyl phthalate",
    "cn_name": "酞酸二甲酯;邻苯二甲酸二甲酯;避蚊酯;",
    "alternate_name": "1,2-Benzenedicarboxylic acid, 1,2-dimethyl ester;Phthalic acid, dimethyl ester;1,2-Benzenedicarboxylic acid, dimethyl ester;Dimethyl 1,2-benzenedicarboxylate;Dimethyl phthalate;DMP;Fermine;Avolin;Mipax;NTM;Palatinol M;Solvanom;Solvarone;Unimoll DM;DMF (insect repellent);Repeftal;Dimethyl <em>o</em>-phthalate;NSC 15398;Metox 50;1,2-Dimethyl benzene-1,2-dicarboxylate",
    "duplicated_cas_no": "64441-70-9;1352054-35-3",
    "SMILES": "C(OC)(=O)C1=C(C(OC)=O)C=CC=C1",
    "meta_data": {
        "InChI": "InChI=1S/C10H10O4/c1-13-9(11)7-5-3-4-6-8(7)10(12)14-2/h3-6H,1-2H3",
        "InChIKey": null,
        "Canonical SMILES": "O=C(OC)C=1C=CC=CC1C(=O)OC",
        "Molecular Formula": "C<sub>10</sub>H<sub>10</sub>O<sub>4</sub>",
        "Molecular Mass": "194.18",
        "Boiling Point": "283.7 °C @ Press: 760 Torr",
        "Melting Point": "5.5 °C",
        "Density": "1.189 g/cm³ @ Temp: 25 °C"
    }
}