{
    "cas_no": "426463-09-4",
    "key_name": "2-Chloro-5-iodo-3-pyridinamine",
    "cn_name": null,
    "alternate_name": "3-Pyridinamine, 2-chloro-5-iodo-;2-Chloro-5-iodo-3-pyridinamine;2-Chloro-5-iodo-pyridin-3-ylamine;3-Amino-2-chloro-5-iodopyridine",
    "duplicated_cas_no": "",
    "SMILES": "NC1=C(Cl)N=CC(I)=C1",
    "meta_data": {
        "InChI": "InChI=1S/C5H4ClIN2/c6-5-4(8)1-3(7)2-9-5/h1-2H,8H2",
        "InChIKey": null,
        "Canonical SMILES": "ClC1=NC=C(I)C=C1N",
        "Molecular Formula": "C<sub>5</sub>H<sub>4</sub>ClIN<sub>2</sub>",
        "Molecular Mass": "254.46",
        "Melting Point": "129 °C"
    }
}