{
    "cas_no": "3586-14-9",
    "key_name": "3-Phenoxytoluene",
    "cn_name": null,
    "alternate_name": "Benzene, 1-methyl-3-phenoxy-;Ether, phenyl <em>m</em>-tolyl;1-Methyl-3-phenoxybenzene;Phenyl <em>m</em>-tolyl ether;<em>m</em>-Phenoxytoluene;<em>m</em>-Methylphenyl phenyl ether;3-Methylphenyl phenyl ether;3-Phenoxytoluene;3-Methyldiphenyl ether",
    "duplicated_cas_no": "",
    "SMILES": "O(C1=CC(C)=CC=C1)C2=CC=CC=C2",
    "meta_data": {
        "InChI": "InChI=1S/C13H12O/c1-11-6-5-9-13(10-11)14-12-7-3-2-4-8-12/h2-10H,1H3",
        "InChIKey": null,
        "Canonical SMILES": "O(C=1C=CC=CC1)C2=CC=CC(=C2)C",
        "Molecular Formula": "C<sub>13</sub>H<sub>12</sub>O",
        "Molecular Mass": "184.23",
        "Boiling Point": "272 °C",
        "Melting Point": "151 °C"
    }
}