{
    "cas_no": "98-98-6",
    "key_name": "Picolinic acid",
    "cn_name": "2-吡啶甲酸;吡啶-2-甲酸;皮考林酸;",
    "alternate_name": "2-Pyridinecarboxylic acid;Picolinic acid;<em>o</em>-Pyridinecarboxylic acid;2-Carboxypyridine;α-Pyridinecarboxylic acid;2-Pyridylcarboxylic acid;NSC 171;PCL 016;Pyridine-2-carboxylic acid",
    "duplicated_cas_no": "1580002-25-0;2244586-27-2",
    "SMILES": "C(O)(=O)C1=CC=CC=N1",
    "meta_data": {
        "InChI": "InChI=1S/C6H5NO2/c8-6(9)5-3-1-2-4-7-5/h1-4H,(H,8,9)",
        "InChIKey": null,
        "Canonical SMILES": "O=C(O)C1=NC=CC=C1",
        "Molecular Formula": "C<sub>6</sub>H<sub>5</sub>NO<sub>2</sub>",
        "Molecular Mass": "123.11",
        "Boiling Point": "115 °C @ Press: 5 Torr",
        "Melting Point": "136.5 °C",
        "Density": "1.49 g/cm³"
    }
}