{
    "cas_no": "20173-04-0",
    "key_name": "<em>N</em>-Methyl-3-pyridinemethanamine",
    "cn_name": "N-甲基-3-吡啶甲基胺;N-甲基-N-(吡啶-3-基)甲基胺;N-(3-吡啶甲基)甲基胺;",
    "alternate_name": "3-Pyridinemethanamine, <em>N</em>-methyl-;Pyridine, 3-[(methylamino)methyl]-;<em>N</em>-Methyl-3-pyridinemethanamine;<em>N</em>-Methyl-3-picolylamine;3-(Methylaminomethyl)pyridine;<em>N</em>-Methyl-<em>N</em>-(3-pyridylmethyl)amine;3-(<em>N</em>-Methylaminomethyl)pyridine;<em>N</em>-Methylpyridine-3-methanamine;Methyl[(pyridin-3-yl)methyl]amine;NSC 63901;NSC 66532;<em>N</em>-Methyl-<em>N</em>-(pyridin-3-ylmethyl)amine;<em>N</em>-Methyl-1-(pyridin-3-yl)methanamine;<em>N</em>-(Pyridin-3-ylmethyl)methylamine;<em>N</em>-[(Pyridin-3-yl)methyl]-<em>N</em>-methylamine;<em>N</em>-Methyl-1-(3-pyridyl)methanamine",
    "duplicated_cas_no": "",
    "SMILES": "C(NC)C=1C=CC=NC1",
    "meta_data": {
        "InChI": "InChI=1S/C7H10N2/c1-8-5-7-3-2-4-9-6-7/h2-4,6,8H,5H2,1H3",
        "InChIKey": null,
        "Canonical SMILES": "N=1C=CC=C(C1)CNC",
        "Molecular Formula": "C<sub>7</sub>H<sub>10</sub>N<sub>2</sub>",
        "Molecular Mass": "122.17",
        "Boiling Point": "93-95 °C @ Press: 12 Torr"
    }
}