{
    "cas_no": "171596-29-5",
    "key_name": "Tadalafil",
    "cn_name": "西力士;他地那非;他达那非;(6R-12aR)-6-(1,3-苯并二噁茂-5-基)-2-甲基-2,3,6,7,12,12a-六氢化吡嗪并[1\",2\"-;",
    "alternate_name": "Pyrazino[1′,2′:1,6]pyrido[3,4-<em>b</em>]indole-1,4-dione, 6-(1,3-benzodioxol-5-yl)-2,3,6,7,12,12a-hexahydro-2-methyl-, (6<em>R</em>,12a<em>R</em>)-;Pyrazino[1′,2′:1,6]pyrido[3,4-<em>b</em>]indole-1,4-dione, 6-(1,3-benzodioxol-5-yl)-2,3,6,7,12,12a-hexahydro-2-methyl-, (6<em>R</em>-<em>trans</em>)-;(6<em>R</em>,12a<em>R</em>)-6-(1,3-Benzodioxol-5-yl)-2,3,6,7,12,12a-hexahydro-2-methylpyrazino[1′,2′:1,6]pyrido[3,4-<em>b</em>]indole-1,4-dione;Cialis;ICOS 351;IC 351;GF 196960;Tadalafil;(6<em>R</em>,12a<em>R</em>)-2,3,6,7,12,12a-hexahydro-2-methyl-6-(3,4-methylenedioxyphenyl)pyrazino[1′,2′:1,6]pyrido[3,4-<em>b</em>]indole-1,4-dione;UK 336017;Tildenafil;Adcirca;Tardenafil;Zydalis;Tadfil;Tadora;Lifta;Pentadafil;Talmanco;Tadalafil Lilly",
    "duplicated_cas_no": "240822-07-5;282541-36-0",
    "SMILES": "O=C1N2[C@@H](C3=C(C=4C(N3)=CC=CC4)C[C@@]2(C(=O)N(C)C1)[H])C=5C=C6C(=CC5)OCO6",
    "meta_data": {
        "InChI": "InChI=1S/C22H19N3O4/c1-24-10-19(26)25-16(22(24)27)9-14-13-4-2-3-5-15(13)23-20(14)21(25)12-6-7-17-18(8-12)29-11-28-17/h2-8,16,21,23H,9-11H2,1H3/t16-,21-/m1/s1",
        "InChIKey": null,
        "Canonical SMILES": "O=C1N2C(C3=CC=C4OCOC4=C3)C=5NC=6C=CC=CC6C5CC2C(=O)N(C)C1",
        "Molecular Formula": "C<sub>22</sub>H<sub>19</sub>N<sub>3</sub>O<sub>4</sub>",
        "Molecular Mass": "389.40",
        "Melting Point": "301-303 °C"
    }
}