{
    "cas_no": "613-73-0",
    "key_name": "1,2-Benzenediacetonitrile",
    "cn_name": "邻二苯乙腈;1,2-亚苯基二乙腈;",
    "alternate_name": "1,2-Benzenediacetonitrile;<em>o</em>-Benzenediacetonitrile;<em>o</em>-Bis(cyanomethyl)benzene;<em>o</em>-Xylylene dicyanide;1,2-Bis(cyanomethyl)benzene;(2-(Cyanomethyl)phenyl)acetonitrile;α,α′-Dicyano-<em>o</em>-xylene;1,2-Phenylenediacetonitrile;NSC 5170;<em>o</em>-Phenylenediacetonitrile;2,2′-(1,2-Phenylene)-diacetonitrile;2-[2-(Cyanomethyl)phenyl]acetonitrile",
    "duplicated_cas_no": "",
    "SMILES": "C(C#N)C1=C(CC#N)C=CC=C1",
    "meta_data": {
        "InChI": "InChI=1S/C10H8N2/c11-7-5-9-3-1-2-4-10(9)6-8-12/h1-4H,5-6H2",
        "InChIKey": null,
        "Canonical SMILES": "N#CCC=1C=CC=CC1CC#N",
        "Molecular Formula": "C<sub>10</sub>H<sub>8</sub>N<sub>2</sub>",
        "Molecular Mass": "156.18",
        "Boiling Point": "74 °C @ Press: 0.7 Torr",
        "Melting Point": "58-59 °C"
    }
}