{
    "cas_no": "771-60-8",
    "key_name": "Pentafluoroaniline",
    "cn_name": "2,3,4,5,6-五氟苯胺;五氟苯胺;",
    "alternate_name": "Benzenamine, 2,3,4,5,6-pentafluoro-;Aniline, 2,3,4,5,6-pentafluoro-;2,3,4,5,6-Pentafluorobenzenamine;2,3,4,5,6-Pentafluoroaniline;Pentafluorophenylamine;Pentafluoroaniline;Aminopentafluorobenzene;1-Amino-2,3,4,5,6-pentafluorobenzene;NSC 88320",
    "duplicated_cas_no": "",
    "SMILES": "FC1=C(F)C(F)=C(N)C(F)=C1F",
    "meta_data": {
        "InChI": "InChI=1S/C6H2F5N/c7-1-2(8)4(10)6(12)5(11)3(1)9/h12H2",
        "InChIKey": null,
        "Canonical SMILES": "FC=1C(F)=C(F)C(N)=C(F)C1F",
        "Molecular Formula": "C<sub>6</sub>H<sub>2</sub>F<sub>5</sub>N",
        "Molecular Mass": "183.08",
        "Boiling Point": "153 °C",
        "Melting Point": "35-36 °C"
    }
}