{
    "cas_no": "598-23-2",
    "key_name": "3-Methyl-1-butyne",
    "cn_name": "3-甲基-1-丁炔;3-甲基丁炔;",
    "alternate_name": "1-Butyne, 3-methyl-;3-Methyl-1-butyne;Isopentyne;Isopropylacetylene;2-Methyl-3-butyne;3-Methylbutyne;3,3-Dimethyl-1-propyne;1-Isopentyne;Isopropylethyne",
    "duplicated_cas_no": "",
    "SMILES": "C(C#C)(C)C",
    "meta_data": {
        "InChI": "InChI=1S/C5H8/c1-4-5(2)3/h1,5H,2-3H3",
        "InChIKey": null,
        "Canonical SMILES": "C#CC(C)C",
        "Molecular Formula": "C<sub>5</sub>H<sub>8</sub>",
        "Molecular Mass": "68.12",
        "Boiling Point": "26.3 °C",
        "Melting Point": "-89.7 °C",
        "Density": "0.666 g/cm³ @ Temp: 19 °C"
    }
}