{
    "cas_no": "73609-36-6",
    "key_name": "1<em>H</em>,1<em>H</em>,2<em>H</em>,2<em>H</em>-Perfluorooctylmethyldichlorosilane",
    "cn_name": "1H,1H,2H,2H-全氟辛基甲基二氯硅烷;全氟辛基甲基二氯硅烷;",
    "alternate_name": "Silane, dichloromethyl(3,3,4,4,5,5,6,6,7,7,8,8,8-tridecafluorooctyl)-;Dichloromethyl(3,3,4,4,5,5,6,6,7,7,8,8,8-tridecafluorooctyl)silane;T 2491;3,3,4,4,5,5,6,6,7,7,8,8,8-Tridecafluorooctylmethyldichlorosilane;1<em>H</em>,1<em>H</em>,2<em>H</em>,2<em>H</em>-Perfluorooctylmethyldichlorosilane;(Tridecafluoro-1,1,2,2-tetrahydrooctyl)methyldichlorosilane;Dichloromethyl(1<em>H</em>,1<em>H</em>,2<em>H</em>,2<em>H</em>-perfluorooctyl)silane",
    "duplicated_cas_no": "474952-07-3",
    "SMILES": "C(C(C(C(F)(F)F)(F)F)(F)F)(C(C(CC[Si](C)(Cl)Cl)(F)F)(F)F)(F)F",
    "meta_data": {
        "InChI": "InChI=1S/C9H7Cl2F13Si/c1-25(10,11)3-2-4(12,13)5(14,15)6(16,17)7(18,19)8(20,21)9(22,23)24/h2-3H2,1H3",
        "InChIKey": null,
        "Canonical SMILES": "FC(F)(F)C(F)(F)C(F)(F)C(F)(F)C(F)(F)C(F)(F)CC[Si](Cl)(Cl)C",
        "Molecular Formula": "C<sub>9</sub>H<sub>7</sub>Cl<sub>2</sub>F<sub>13</sub>Si",
        "Molecular Mass": "461.12",
        "Boiling Point": "189-190 °C",
        "Density": "1.55 g/cm³ @ Temp: 25 °C"
    }
}