{
    "cas_no": "2592-18-9",
    "key_name": "<em>N</em>-<em>tert</em>-Butoxycarbonyl-<span class=\"text-smallcaps\">L</span>-threonine",
    "cn_name": "Boc-L-苏氨酸;N-叔丁氧羰基-L-苏氨酸;",
    "alternate_name": "<span class=\"text-smallcaps\">L</span>-Threonine, <em>N</em>-[(1,1-dimethylethoxy)carbonyl]-;Threonine, <em>N</em>-carboxy-, <em>N</em>-<em>tert</em>-butyl ester, <span class=\"text-smallcaps\">L</span>-;Threonine, <em>N</em>-carboxy-, <em>N</em>-<em>tert</em>-butyl ester;<em>N</em>-[(1,1-Dimethylethoxy)carbonyl]-<span class=\"text-smallcaps\">L</span>-threonine;<em>N</em>-<em>tert</em>-Butoxycarbonyl-<span class=\"text-smallcaps\">L</span>-threonine;<em>N</em>-<em>tert</em>-Butyloxycarbonyl-<span class=\"text-smallcaps\">L</span>-threonine;<span class=\"text-smallcaps\">L</span>-<em>N</em>-(<em>tert</em>-Butoxycarbonyl)threonine;<em>N</em>-(<em>tert</em>-Butoxycarbonyl)threonine;<em>N</em>-α-<em>tert</em>-Butoxycarbonyl-<span class=\"text-smallcaps\">L</span>-threonine;<em>N</em>-α-<em>tert</em>-Butoxycarbonylthreonine;NSC 334305;<em>N</em>-BOC-<span class=\"text-smallcaps\">L</span>-Threonine;(2<em>S</em>,3<em>R</em>)-2-(<em>tert</em>-Butoxycarbonylamino)-3-hydroxybutanoic acid;(2<em>S</em>,3<em>R</em>)-2-<em>tert</em>-Butoxycarbonylamino-3-hydroxybutyric acid;Boc-<span class=\"text-smallcaps\">L</span>-threonine",
    "duplicated_cas_no": "57031-98-8;210772-28-4;1221292-57-4;1236362-41-6;1397001-38-5;1416064-92-0;2062685-19-0;2909532-81-4",
    "SMILES": "[C@H](NC(OC(C)(C)C)=O)([C@@H](C)O)C(O)=O",
    "meta_data": {
        "InChI": "InChI=1S/C9H17NO5/c1-5(11)6(7(12)13)10-8(14)15-9(2,3)4/h5-6,11H,1-4H3,(H,10,14)(H,12,13)/t5-,6+/m1/s1",
        "InChIKey": null,
        "Canonical SMILES": "O=C(OC(C)(C)C)NC(C(=O)O)C(O)C",
        "Molecular Formula": "C<sub>9</sub>H<sub>17</sub>NO<sub>5</sub>",
        "Molecular Mass": "219.24",
        "Melting Point": "79-81 °C"
    }
}