{
    "cas_no": "3746-67-6",
    "key_name": "3-(Acetylamino)-4-methoxybenzenesulfonyl chloride",
    "cn_name": "3-乙酰氨基-4-甲氧基苯磺酰氯;",
    "alternate_name": "Benzenesulfonyl chloride, 3-(acetylamino)-4-methoxy-;Metanilyl chloride, <em>N</em>-acetyl-4-methoxy-;3-(Acetylamino)-4-methoxybenzenesulfonyl chloride;2-Acetamidoanisole-4-sulfonyl chloride;3-Acetamido-4-methoxybenzenesulfonyl chloride;3-Acetamido-4-methoxybenzene-1-sulfonylchloride;3-Acetamido-4-methoxybenzene-1-sulfonyl chloride",
    "duplicated_cas_no": "",
    "SMILES": "N(C(C)=O)C1=C(OC)C=CC(S(Cl)(=O)=O)=C1",
    "meta_data": {
        "InChI": "InChI=1S/C9H10ClNO4S/c1-6(12)11-8-5-7(16(10,13)14)3-4-9(8)15-2/h3-5H,1-2H3,(H,11,12)",
        "InChIKey": null,
        "Canonical SMILES": "O=C(NC1=CC(=CC=C1OC)S(=O)(=O)Cl)C",
        "Molecular Formula": "C<sub>9</sub>H<sub>10</sub>ClNO<sub>4</sub>S",
        "Molecular Mass": "263.70",
        "Melting Point": "152-153 °C"
    }
}