{
    "cas_no": "1978-61-6",
    "key_name": "4-(4-Fluorophenyl)-1,2,3,6-tetrahydropyridine hydrochloride",
    "cn_name": "4-氟苯基-四羟基吡啶;",
    "alternate_name": "Pyridine, 4-(4-fluorophenyl)-1,2,3,6-tetrahydro-, hydrochloride (1:1);Pyridine, 4-(<em>p</em>-fluorophenyl)-1,2,3,6-tetrahydro-, hydrochloride;Pyridine, 4-(4-fluorophenyl)-1,2,3,6-tetrahydro-, hydrochloride;4-(4-Fluorophenyl)-1,2,3,6-tetrahydropyridine hydrochloride;4-(4-Fluorophenyl)-1,2,5,6-tetrahydropyridine hydrochloride",
    "duplicated_cas_no": "",
    "SMILES": "FC1=CC=C(C=C1)C=2CCNCC2.Cl",
    "meta_data": {
        "InChI": "InChI=1S/C11H12FN.ClH/c12-11-3-1-9(2-4-11)10-5-7-13-8-6-10;/h1-5,13H,6-8H2;1H",
        "InChIKey": null,
        "Canonical SMILES": "Cl.FC=1C=CC(=CC1)C2=CCNCC2",
        "Molecular Formula": "C<sub>11</sub>H<sub>12</sub>FN.ClH",
        "Molecular Mass": "",
        "Melting Point": "172-173.5 °C"
    }
}