{
    "cas_no": "101-48-4",
    "key_name": "Phenylacetaldehyde dimethyl acetal",
    "cn_name": "苯乙醛二甲缩醛;",
    "alternate_name": "Benzene, (2,2-dimethoxyethyl)-;Acetaldehyde, phenyl-, dimethyl acetal;(2,2-Dimethoxyethyl)benzene;Phenylacetaldehyde dimethyl acetal;α-Tolylaldehyde dimethyl acetal;Hyscylene P;1,1-Dimethoxy-2-phenylethane;2,2-Dimethoxy-1-phenylethane;2-Phenylacetaldehyde dimethyl acetal;NSC 5174",
    "duplicated_cas_no": "",
    "SMILES": "C(C(OC)OC)C1=CC=CC=C1",
    "meta_data": {
        "InChI": "InChI=1S/C10H14O2/c1-11-10(12-2)8-9-6-4-3-5-7-9/h3-7,10H,8H2,1-2H3",
        "InChIKey": null,
        "Canonical SMILES": "O(C)C(OC)CC=1C=CC=CC1",
        "Molecular Formula": "C<sub>10</sub>H<sub>14</sub>O<sub>2</sub>",
        "Molecular Mass": "166.22",
        "Boiling Point": "219-221 °C",
        "Density": "1.005 g/cm³ @ Temp: 25 °C"
    }
}