{
    "cas_no": "7127-19-7",
    "key_name": "2-Phenyl-2-oxazoline",
    "cn_name": null,
    "alternate_name": "Oxazole, 4,5-dihydro-2-phenyl-;2-Oxazoline, 2-phenyl-;4,5-Dihydro-2-phenyloxazole;2-Phenyl-2-oxazoline;2-Phenyl-4,5-dihydrooxazole;2-Phenyl-1,3-oxazoline;2-Phenyl-4,5-dihydro-1,3-oxazole",
    "duplicated_cas_no": "",
    "SMILES": "C1(=NCCO1)C2=CC=CC=C2",
    "meta_data": {
        "InChI": "InChI=1S/C9H9NO/c1-2-4-8(5-3-1)9-10-6-7-11-9/h1-5H,6-7H2",
        "InChIKey": null,
        "Canonical SMILES": "N1=C(OCC1)C=2C=CC=CC2",
        "Molecular Formula": "C<sub>9</sub>H<sub>9</sub>NO",
        "Molecular Mass": "147.17",
        "Boiling Point": "80 °C @ Press: 1.5-2 Torr",
        "Melting Point": "112 °C"
    }
}