{
    "cas_no": "632-15-5",
    "key_name": "3,4-Dimethylthiophene",
    "cn_name": null,
    "alternate_name": "Thiophene, 3,4-dimethyl-;3,4-Dimethylthiophene",
    "duplicated_cas_no": "",
    "SMILES": "CC=1C(C)=CSC1",
    "meta_data": {
        "InChI": "InChI=1S/C6H8S/c1-5-3-7-4-6(5)2/h3-4H,1-2H3",
        "InChIKey": null,
        "Canonical SMILES": "S1C=C(C(=C1)C)C",
        "Molecular Formula": "C<sub>6</sub>H<sub>8</sub>S",
        "Molecular Mass": "112.19",
        "Boiling Point": "146-147 °C @ Press: 750 Torr",
        "Density": "1.0055 g/cm³ @ Temp: 20 °C"
    }
}