{
    "cas_no": "56341-36-7",
    "key_name": "1,5-Dimethylpyrrole-2-carbonitrile",
    "cn_name": "1,5-二甲基-2-吡咯甲腈;",
    "alternate_name": "1<em>H</em>-Pyrrole-2-carbonitrile, 1,5-dimethyl-;1,5-Dimethyl-1<em>H</em>-pyrrole-2-carbonitrile;5-Cyano-1,2-dimethylpyrrole;1,5-Dimethylpyrrole-2-carbonitrile;1,2-Dimethyl-5-cyanopyrrole;2-Cyano-1,5-dimethylpyrrole",
    "duplicated_cas_no": "",
    "SMILES": "C(#N)C=1N(C)C(C)=CC1",
    "meta_data": {
        "InChI": "InChI=1S/C7H8N2/c1-6-3-4-7(5-8)9(6)2/h3-4H,1-2H3",
        "InChIKey": null,
        "Canonical SMILES": "N#CC1=CC=C(N1C)C",
        "Molecular Formula": "C<sub>7</sub>H<sub>8</sub>N<sub>2</sub>",
        "Molecular Mass": "120.15",
        "Melting Point": "53-55 °C"
    }
}