{
    "cas_no": "4454-05-1",
    "key_name": "3,4-Dihydro-2-methoxy-2<em>H</em>-pyran",
    "cn_name": "3,4-二氢-2-甲基-吡喃;",
    "alternate_name": "2<em>H</em>-Pyran, 3,4-dihydro-2-methoxy-;3,4-Dihydro-2-methoxy-2<em>H</em>-pyran;2,3-Dihydro-2-methoxy-4<em>H</em>-pyran;2-Methoxy-3,4-dihydro-2<em>H</em>-pyran;2-Methoxy-2,3-dihydro-4<em>H</em>-pyran;2-Methoxy-3,4-dihydropyran;3,4-Dihydro-2-methoxypyran;NSC 44974;2<em>H</em>-2-Methoxy-3,4-dihydropyran",
    "duplicated_cas_no": "71709-46-1",
    "SMILES": "O(C)C1CCC=CO1",
    "meta_data": {
        "InChI": "InChI=1S/C6H10O2/c1-7-6-4-2-3-5-8-6/h3,5-6H,2,4H2,1H3",
        "InChIKey": null,
        "Canonical SMILES": "O1C=CCCC1OC",
        "Molecular Formula": "C<sub>6</sub>H<sub>10</sub>O<sub>2</sub>",
        "Molecular Mass": "114.14",
        "Boiling Point": "136-138 °C",
        "Density": "1.0013 g/cm³ @ Temp: 20 °C"
    }
}