{
    "cas_no": "942-92-7",
    "key_name": "Hexanophenone",
    "cn_name": "正己酰苯;戊基酮;",
    "alternate_name": "1-Hexanone, 1-phenyl-;Hexanophenone;1-Phenyl-1-hexanone;Caprophenone;Pentyl phenyl ketone;1-Benzoylpentane;Phenyl pentyl ketone;<em>n</em>-Pentyl phenyl ketone;NSC 8480",
    "duplicated_cas_no": "",
    "SMILES": "C(CCCCC)(=O)C1=CC=CC=C1",
    "meta_data": {
        "InChI": "InChI=1S/C12H16O/c1-2-3-5-10-12(13)11-8-6-4-7-9-11/h4,6-9H,2-3,5,10H2,1H3",
        "InChIKey": null,
        "Canonical SMILES": "O=C(C=1C=CC=CC1)CCCCC",
        "Molecular Formula": "C<sub>12</sub>H<sub>16</sub>O",
        "Molecular Mass": "176.25",
        "Boiling Point": "265 °C",
        "Melting Point": "27 °C",
        "Density": "0.95761 g/cm³ @ Temp: 25 °C"
    }
}