{
    "cas_no": "609-93-8",
    "key_name": "2,6-Dinitro-<em>p</em>-cresol",
    "cn_name": "2,6-二硝基-4-甲基苯酚;",
    "alternate_name": "Phenol, 4-methyl-2,6-dinitro-;<em>p</em>-Cresol, 2,6-dinitro-;4-Methyl-2,6-dinitrophenol;2,6-Dinitro-4-methylphenol;2,6-Dinitro-<em>p</em>-cresol;3,5-Dinitro-4-hydroxytoluene;2,6-Dinitro-4-cresol;NSC 33870;I 95",
    "duplicated_cas_no": "",
    "SMILES": "N(=O)(=O)C1=C(O)C(N(=O)=O)=CC(C)=C1",
    "meta_data": {
        "InChI": "InChI=1S/C7H6N2O5/c1-4-2-5(8(11)12)7(10)6(3-4)9(13)14/h2-3,10H,1H3",
        "InChIKey": null,
        "Canonical SMILES": "O=N(=O)C1=CC(=CC(=C1O)N(=O)=O)C",
        "Molecular Formula": "C<sub>7</sub>H<sub>6</sub>N<sub>2</sub>O<sub>5</sub>",
        "Molecular Mass": "198.13",
        "Melting Point": "85 °C"
    }
}