{
    "cas_no": "697-91-6",
    "key_name": "2,6-Dichloro-1,4-benzoquinone",
    "cn_name": "2,6-二氯苯醌;2,6-二氯-P-苯醌;",
    "alternate_name": "2,5-Cyclohexadiene-1,4-dione, 2,6-dichloro-;<em>p</em>-Benzoquinone, 2,6-dichloro-;Quinone, 2,6-dichloro-;2,6-Dichloro-2,5-cyclohexadiene-1,4-dione;2,6-Dichloro-<em>p</em>-benzoquinone;2,6-Dichlorobenzoquinone;2,6-Dichloro-1,4-benzoquinone;2,6-Dichloroquinone;NSC 6211",
    "duplicated_cas_no": "",
    "SMILES": "O=C1C(Cl)=CC(=O)C=C1Cl",
    "meta_data": {
        "InChI": "InChI=1S/C6H2Cl2O2/c7-4-1-3(9)2-5(8)6(4)10/h1-2H",
        "InChIKey": null,
        "Canonical SMILES": "O=C1C=C(Cl)C(=O)C(Cl)=C1",
        "Molecular Formula": "C<sub>6</sub>H<sub>2</sub>Cl<sub>2</sub>O<sub>2</sub>",
        "Molecular Mass": "176.98",
        "Melting Point": "120-121 °C"
    }
}