{
    "cas_no": "10099-66-8",
    "key_name": "Lutetium trichloride",
    "cn_name": "无水氯化镥(III);无水氯化镥;",
    "alternate_name": "Lutetium chloride (LuCl<sub>3</sub>);Lutetium chloride (Lu<sub>2</sub>Cl<sub>6</sub>);Lutetium chloride;Lutetium(III) chloride;Lutetium trichloride;NSC 132042",
    "duplicated_cas_no": "12314-14-6",
    "SMILES": "[Lu](Cl)(Cl)Cl",
    "meta_data": {
        "InChI": "InChI=1S/3ClH.Lu/h3*1H;/q;;;+3/p-3",
        "InChIKey": null,
        "Canonical SMILES": "Cl[Lu](Cl)Cl",
        "Molecular Formula": "Cl<sub>3</sub>Lu",
        "Molecular Mass": "",
        "Boiling Point": "1422 °C"
    }
}