{
    "cas_no": "667-27-6",
    "key_name": "Ethyl bromodifluoroacetate",
    "cn_name": "二氟溴乙酸乙酯;",
    "alternate_name": "Acetic acid, 2-bromo-2,2-difluoro-, ethyl ester;Acetic acid, bromodifluoro-, ethyl ester;Ethyl bromodifluoroacetate;Ethyl 2-bromo-2,2-difluoroacetate;Ethyl difluorobromoacetate;Bromodifluoroacetic acid ethyl ester;2-Bromo-2,2-difluoroacetic acid ethyl ester;Ethaneperoxoic acid, 2-bromo-2,2-difluoro-, ethyl ester;Ethyl 2-bromo-2,2-difluoroethaneperoxoate",
    "duplicated_cas_no": "120315-97-1;1002355-94-3;2862040-52-4",
    "SMILES": "C(C(Br)(F)F)(OCC)=O",
    "meta_data": {
        "InChI": "InChI=1S/C4H5BrF2O2/c1-2-9-3(8)4(5,6)7/h2H2,1H3",
        "InChIKey": null,
        "Canonical SMILES": "O=C(OCC)C(F)(F)Br",
        "Molecular Formula": "C<sub>4</sub>H<sub>5</sub>BrF<sub>2</sub>O<sub>2</sub>",
        "Molecular Mass": "202.98",
        "Boiling Point": "113 °C",
        "Density": "1.583 g/cm³ @ Temp: 25 °C"
    }
}