{
    "cas_no": "5470-37-1",
    "key_name": "1-Methyl-1,2,3,4-tetrahydro-β-carboline-3-carboxylic acid",
    "cn_name": "1-甲基-1,2,3,4-四氢-β-咔啉-3-羧酸;",
    "alternate_name": "1<em>H</em>-Pyrido[3,4-<em>b</em>]indole-3-carboxylic acid, 2,3,4,9-tetrahydro-1-methyl-;2,3,4,9-Tetrahydro-1-methyl-1<em>H</em>-pyrido[3,4-<em>b</em>]indole-3-carboxylic acid;1-Methyl-1,2,3,4-tetrahydro-β-carboline-3-carboxylic acid;Tetrahydroharman-3-carboxylic acid;NSC 26225;1,2,3,4-Tetrahydro-3-carboxyharmane;1-Methyl-1,2,3,4-Tetrahydropyrido[3,4-<em>b</em>]indole-3-carboxylic acid;1,2,3,4-Tetrahydroharman-3-carboxylic acid;1-Methyl-2,3,4,9-tetrahydro-1<em>H</em>-β-carboline-3-carboxylic acid;1-Methyl-2,3,4,9-tetrahydro-1<em>H</em>-pyrido[3,4-<em>b</em>]indole-3-carboxylic acid;1-Methyl-1<em>H</em>,2<em>H</em>,3<em>H</em>,4<em>H</em>,9<em>H</em>-pyrido[3,4-<em>b</em>]indole-3-carboxylic acid",
    "duplicated_cas_no": "22677-22-1",
    "SMILES": "CC1C2=C(C=3C(N2)=CC=CC3)CC(C(O)=O)N1",
    "meta_data": {
        "InChI": "InChI=1S/C13H14N2O2/c1-7-12-9(6-11(14-7)13(16)17)8-4-2-3-5-10(8)15-12/h2-5,7,11,14-15H,6H2,1H3,(H,16,17)",
        "InChIKey": null,
        "Canonical SMILES": "O=C(O)C1NC(C=2NC=3C=CC=CC3C2C1)C",
        "Molecular Formula": "C<sub>13</sub>H<sub>14</sub>N<sub>2</sub>O<sub>2</sub>",
        "Molecular Mass": "230.26",
        "Melting Point": "242-243 °C (decomp)"
    }
}