{
    "cas_no": "5401-94-5",
    "key_name": "5-Nitroindazole",
    "cn_name": "5-硝基吲唑;",
    "alternate_name": "1<em>H</em>-Indazole, 5-nitro-;Indazole, 5-nitro-;5-Nitro-1<em>H</em>-indazole;5-Nitroindazole;NSC 5032;5-Nitro-1<em>H</em>-benzopyrazole",
    "duplicated_cas_no": "",
    "SMILES": "N(=O)(=O)C=1C=C2C(=CC1)NN=C2",
    "meta_data": {
        "InChI": "InChI=1S/C7H5N3O2/c11-10(12)6-1-2-7-5(3-6)4-8-9-7/h1-4H,(H,8,9)",
        "InChIKey": null,
        "Canonical SMILES": "O=N(=O)C=1C=CC=2NN=CC2C1",
        "Molecular Formula": "C<sub>7</sub>H<sub>5</sub>N<sub>3</sub>O<sub>2</sub>",
        "Molecular Mass": "163.13",
        "Melting Point": "208 °C"
    }
}