{
    "cas_no": "52499-14-6",
    "key_name": "4-Dodecylbenzenesulfonyl chloride",
    "cn_name": "对十二烷基苯磺酰氯;",
    "alternate_name": "Benzenesulfonyl chloride, 4-dodecyl-;4-Dodecylbenzenesulfonyl chloride;<em>p</em>-Dodecylbenzenesulfonyl chloride",
    "duplicated_cas_no": "",
    "SMILES": "S(Cl)(=O)(=O)C1=CC=C(CCCCCCCCCCCC)C=C1",
    "meta_data": {
        "InChI": "InChI=1S/C18H29ClO2S/c1-2-3-4-5-6-7-8-9-10-11-12-17-13-15-18(16-14-17)22(19,20)21/h13-16H,2-12H2,1H3",
        "InChIKey": null,
        "Canonical SMILES": "O=S(=O)(Cl)C1=CC=C(C=C1)CCCCCCCCCCCC",
        "Molecular Formula": "C<sub>18</sub>H<sub>29</sub>ClO<sub>2</sub>S",
        "Molecular Mass": "344.94",
        "Boiling Point": "205 °C @ Press: 0.2 Torr",
        "Melting Point": "33 °C"
    }
}