{
    "cas_no": "1620-53-7",
    "key_name": "1-Phenyl-2-(2-pyridinyl)ethanone",
    "cn_name": "1-苯基-2-吡啶-2-基乙酮;",
    "alternate_name": "Ethanone, 1-phenyl-2-(2-pyridinyl)-;Acetophenone, 2-(2-pyridyl)-;1-Phenyl-2-(2-pyridinyl)ethanone;2-(Benzoylmethyl)pyridine;α-Pyridylacetophenone;Phenyl 2-pyridylmethyl ketone;2-Phenacylpyridine;Phenyl 2-picolyl ketone;1-Phenyl-2-(2-pyridyl)ethanone;2-(2-Oxo-2-phenylethyl)pyridine;NSC 145890;1-Phenyl-2-(pyridin-2-yl)ethan-1-one",
    "duplicated_cas_no": "",
    "SMILES": "C(CC1=CC=CC=N1)(=O)C2=CC=CC=C2",
    "meta_data": {
        "InChI": "InChI=1S/C13H11NO/c15-13(11-6-2-1-3-7-11)10-12-8-4-5-9-14-12/h1-9H,10H2",
        "InChIKey": null,
        "Canonical SMILES": "O=C(C=1C=CC=CC1)CC2=NC=CC=C2",
        "Molecular Formula": "C<sub>13</sub>H<sub>11</sub>NO",
        "Molecular Mass": "197.23",
        "Boiling Point": "140-150 °C @ Press: 0.2 Torr",
        "Melting Point": "59 °C"
    }
}