{
    "cas_no": "638-56-2",
    "key_name": "1,1′-Oxybis[2-(2-chloroethoxy)ethane]",
    "cn_name": "双[2-(2-氯化乙氧基)乙基]醚;二乙二醇双氯乙酯;",
    "alternate_name": "Ethane, 1,1′-oxybis[2-(2-chloroethoxy)-;Ether, bis[2-(2-chloroethoxy)ethyl];1,1′-Oxybis[2-(2-chloroethoxy)ethane];1,11-Dichloro-3,6,9-trioxaundecane;Diethylene glycol bis(2-chloroethyl) ether;β,β′-Di(β-chloroethoxy)diethyl ether;Tetraethylene glycol dichloride;Bis(2-(2-chloroethoxy)ethyl) ether;NSC 39639;Bis(2-(2-chlorethoxy)ethyl)ether;1-Chloro-2-[2-[2-(2-chloroethoxy)ethoxy]ethoxy]ethane;1-(2-Chloroethoxy)-2-[2-(2-chloroethoxy)ethoxy]ethane",
    "duplicated_cas_no": "50906-80-4",
    "SMILES": "O(CCOCCCl)CCOCCCl",
    "meta_data": {
        "InChI": "InChI=1S/C8H16Cl2O3/c9-1-3-11-5-7-13-8-6-12-4-2-10/h1-8H2",
        "InChIKey": null,
        "Canonical SMILES": "ClCCOCCOCCOCCCl",
        "Molecular Formula": "C<sub>8</sub>H<sub>16</sub>Cl<sub>2</sub>O<sub>3</sub>",
        "Molecular Mass": "231.12",
        "Boiling Point": "126-130 °C @ Press: 1 Torr"
    }
}