{
    "cas_no": "1591-31-7",
    "key_name": "4-Iodobiphenyl",
    "cn_name": "4-碘联苯;",
    "alternate_name": "1,1′-Biphenyl, 4-iodo-;Biphenyl, 4-iodo-;4-Iodo-1,1′-biphenyl;<em>p</em>-Phenyliodobenzene;4-Iodobiphenyl;<em>p</em>-Iodobiphenyl;4-Biphenyl iodide;4-Iododiphenyl;<em>p</em>-(Iodophenyl)benzene;4-Phenyliodobenzene;NSC 3791;4-Phenyl-1-iodobenzene;1-Iodo-4-phenylbenzene",
    "duplicated_cas_no": "2222571-92-6",
    "SMILES": "IC1=CC=C(C=C1)C2=CC=CC=C2",
    "meta_data": {
        "InChI": "InChI=1S/C12H9I/c13-12-8-6-11(7-9-12)10-4-2-1-3-5-10/h1-9H",
        "InChIKey": null,
        "Canonical SMILES": "IC=1C=CC(=CC1)C=2C=CC=CC2",
        "Molecular Formula": "C<sub>12</sub>H<sub>9</sub>I",
        "Molecular Mass": "280.10",
        "Boiling Point": "320 °C",
        "Melting Point": "113.5 °C"
    }
}