{
    "cas_no": "175135-63-4",
    "key_name": "2-(2,4-Difluorophenoxy)-3-pyridinamine",
    "cn_name": "3-氨基-2-(2,4-二氟苯氧基)吡啶;",
    "alternate_name": "3-Pyridinamine, 2-(2,4-difluorophenoxy)-;2-(2,4-Difluorophenoxy)-3-pyridinamine;3-Amino-2-(2,4-difluorophenoxy)pyridine;2-(2,4-Difluorophenoxy)pyridin-3-amine",
    "duplicated_cas_no": "",
    "SMILES": "O(C1=C(F)C=C(F)C=C1)C2=C(N)C=CC=N2",
    "meta_data": {
        "InChI": "InChI=1S/C11H8F2N2O/c12-7-3-4-10(8(13)6-7)16-11-9(14)2-1-5-15-11/h1-6H,14H2",
        "InChIKey": null,
        "Canonical SMILES": "FC1=CC=C(OC2=NC=CC=C2N)C(F)=C1",
        "Molecular Formula": "C<sub>11</sub>H<sub>8</sub>F<sub>2</sub>N<sub>2</sub>O",
        "Molecular Mass": "222.19",
        "Melting Point": "87-89 °C"
    }
}