{
    "cas_no": "18450-27-6",
    "key_name": "Ethyl 3-formyl-1<em>H</em>-indole-2-carboxylate",
    "cn_name": null,
    "alternate_name": "1<em>H</em>-Indole-2-carboxylic acid, 3-formyl-, ethyl ester;Indole-2-carboxylic acid, 3-formyl-, ethyl ester;Ethyl 3-formyl-1<em>H</em>-indole-2-carboxylate;Ethyl 3-formylindole-2-carboxylate;3-Formyl-1<em>H</em>-indole-2-carboxylic acid ethyl ester",
    "duplicated_cas_no": "",
    "SMILES": "C(=O)C=1C=2C(NC1C(OCC)=O)=CC=CC2",
    "meta_data": {
        "InChI": "InChI=1S/C12H11NO3/c1-2-16-12(15)11-9(7-14)8-5-3-4-6-10(8)13-11/h3-7,13H,2H2,1H3",
        "InChIKey": null,
        "Canonical SMILES": "O=CC=1C=2C=CC=CC2NC1C(=O)OCC",
        "Molecular Formula": "C<sub>12</sub>H<sub>11</sub>NO<sub>3</sub>",
        "Molecular Mass": "217.22",
        "Melting Point": "185 °C"
    }
}