{
    "cas_no": "2495-27-4",
    "key_name": "Hexadecyl methacrylate",
    "cn_name": "甲基丙烯酸十六烷基酯;2-甲基-2-丙烯酸十六烷基酯;",
    "alternate_name": "2-Propenoic acid, 2-methyl-, hexadecyl ester;Methacrylic acid, hexadecyl ester;1-Hexadecanol, methacrylate;Cetyl methacrylate;Hexadecyl methacrylate;Hexadecyl 2-methyl-2-propenoate;Blemmer CMA;Palmityl methacrylate;<em>n</em>-Hexadecyl methacrylate",
    "duplicated_cas_no": "",
    "SMILES": "C(CCCCCCCCCCCCCC)COC(C(C)=C)=O",
    "meta_data": {
        "InChI": "InChI=1S/C20H38O2/c1-4-5-6-7-8-9-10-11-12-13-14-15-16-17-18-22-20(21)19(2)3/h2,4-18H2,1,3H3",
        "InChIKey": null,
        "Canonical SMILES": "O=C(OCCCCCCCCCCCCCCCC)C(=C)C",
        "Molecular Formula": "C<sub>20</sub>H<sub>38</sub>O<sub>2</sub>",
        "Molecular Mass": "310.51",
        "Boiling Point": "190-191 °C @ Press: 5 Torr",
        "Density": "0.8612 g/cm³ @ Temp: 20 °C"
    }
}