{
    "cas_no": "1078-61-1",
    "key_name": "Dihydrocaffeic acid",
    "cn_name": "3,4-二羟基苯基丙酸;",
    "alternate_name": "Benzenepropanoic acid, 3,4-dihydroxy-;Hydrocinnamic acid, 3,4-dihydroxy-;3,4-Dihydroxybenzenepropanoic acid;Hydrocaffeic acid;3,4-Dihydroxy-β-phenylpropionic acid;3,4-Dihydroxyphenylpropionic acid;3-(3,4-Dihydroxyphenyl)propionic acid;3,4-Dihydroxyhydrocinnamic acid;Dihydrocaffeic acid;3,4-Dihydroxybenzenepropionic acid;3,4-Dihydroxydihydrocinnamic acid;3-(3,4-Dihydroxyphenyl)propanoic acid;NSC 407275;NSC 624007;STBB 8922V;DHC",
    "duplicated_cas_no": "27174-92-1;37417-25-7",
    "SMILES": "C(CC(O)=O)C1=CC(O)=C(O)C=C1",
    "meta_data": {
        "InChI": "InChI=1S/C9H10O4/c10-7-3-1-6(5-8(7)11)2-4-9(12)13/h1,3,5,10-11H,2,4H2,(H,12,13)",
        "InChIKey": null,
        "Canonical SMILES": "O=C(O)CCC1=CC=C(O)C(O)=C1",
        "Molecular Formula": "C<sub>9</sub>H<sub>10</sub>O<sub>4</sub>",
        "Molecular Mass": "182.17",
        "Melting Point": "139 °C"
    }
}