{
    "cas_no": "26121-56-2",
    "key_name": "(2α)-2-Hydroxy-12-methoxypicras-12-ene-1,11,16-trione",
    "cn_name": null,
    "alternate_name": "Picras-12-ene-1,11,16-trione, 2-hydroxy-12-methoxy-, (2α)-;Phenanthro[10,1-<em>bc</em>]pyran-1,5,11(4<em>H</em>)-trione, 3aβ,6aβ,7,7aα,8,9,10,11a,11bα,11c-decahydro-10α-hydroxy-2-methoxy-3,8α,11aβ,11cβ-tetramethyl-;(2α)-2-Hydroxy-12-methoxypicras-12-ene-1,11,16-trione;Picrasin B;Nigakilactone I;Simalikalactone B;(+)-Picrasin B",
    "duplicated_cas_no": "",
    "SMILES": "C[C@]12[C@]3([C@]4(C)[C@@](C[C@]1(OC(=O)C[C@]2(C(C)=C(OC)C3=O)[H])[H])([C@H](C)C[C@H](O)C4=O)[H])[H]",
    "meta_data": {
        "InChI": "InChI=1S/C21H28O6/c1-9-6-13(22)19(25)21(4)11(9)7-14-20(3)12(8-15(23)27-14)10(2)17(26-5)16(24)18(20)21/h9,11-14,18,22H,6-8H2,1-5H3/t9-,11+,12+,13+,14-,18+,20-,21+/m1/s1",
        "InChIKey": null,
        "Canonical SMILES": "O=C1OC2CC3C(C)CC(O)C(=O)C3(C)C4C(=O)C(OC)=C(C)C(C1)C24C",
        "Molecular Formula": "C<sub>21</sub>H<sub>28</sub>O<sub>6</sub>",
        "Molecular Mass": "376.44",
        "Melting Point": "255-257 °C"
    }
}