{
    "cas_no": "885521-40-4",
    "key_name": "3-Bromo-4-chloro-1<em>H</em>-indazole",
    "cn_name": "3-溴-4-氯吲唑;",
    "alternate_name": "1<em>H</em>-Indazole, 3-bromo-4-chloro-;3-Bromo-4-chloro-1<em>H</em>-indazole;3-Bromo-4-chloro-2<em>H</em>-indazole",
    "duplicated_cas_no": "",
    "SMILES": "ClC1=C2C(=CC=C1)NN=C2Br",
    "meta_data": {
        "InChI": "InChI=1S/C7H4BrClN2/c8-7-6-4(9)2-1-3-5(6)10-11-7/h1-3H,(H,10,11)",
        "InChIKey": null,
        "Canonical SMILES": "ClC1=CC=CC=2NN=C(Br)C12",
        "Molecular Formula": "C<sub>7</sub>H<sub>4</sub>BrClN<sub>2</sub>",
        "Molecular Mass": "231.48",
        "Melting Point": "236 °C"
    }
}