{
    "cas_no": "583-47-1",
    "key_name": "4-(Phenylmethyl)-2,5-oxazolidinedione",
    "cn_name": null,
    "alternate_name": "2,5-Oxazolidinedione, 4-(phenylmethyl)-;2,5-Oxazolidinedione, 4-benzyl-;4-(Phenylmethyl)-2,5-oxazolidinedione;Phenylalanine, <em>N</em>-carboxy-, cyclic anhydride;<span class=\"text-smallcaps\">DL</span>-Phenylalanine <em>N</em>-carboxy anhydride;<em>N</em>-Carboxyl-<span class=\"text-smallcaps\">D</smallcap><smallcap>L</span>-phenylalanine anhydride;NSC 36252",
    "duplicated_cas_no": "1892-35-9",
    "SMILES": "C(C1C(=O)OC(=O)N1)C2=CC=CC=C2",
    "meta_data": {
        "InChI": "InChI=1S/C10H9NO3/c12-9-8(11-10(13)14-9)6-7-4-2-1-3-5-7/h1-5,8H,6H2,(H,11,13)",
        "InChIKey": null,
        "Canonical SMILES": "O=C1OC(=O)C(N1)CC=2C=CC=CC2",
        "Molecular Formula": "C<sub>10</sub>H<sub>9</sub>NO<sub>3</sub>",
        "Molecular Mass": "191.18",
        "Melting Point": "128 °C (decomp)"
    }
}