{
    "cas_no": "22910-60-7",
    "key_name": "Ginkgolic acid",
    "cn_name": "银杏酸;6-[(8Z)-十五烯基]水杨酸;",
    "alternate_name": "Benzoic acid, 2-hydroxy-6-(8<em>Z</em>)-8-pentadecen-1-yl-;Salicylic acid, 6-(8-pentadecenyl)-, (<em>Z</em>)-;Benzoic acid, 2-hydroxy-6-(8-pentadecenyl)-, (<em>Z</em>)-;Benzoic acid, 2-hydroxy-6-(8<em>Z</em>)-8-pentadecenyl-;2-Hydroxy-6-(8<em>Z</em>)-8-pentadecen-1-ylbenzoic acid;Ginkgolic acid;1-Hydroxy-2-carboxy-3-(pentadecen-8′-yl)benzene;Ginkgoic acid;6-(<em>Z</em>)-8-Pentadecenylsalicylic acid;Romanicardic acid;6-(8<em>Z</em>)-Pentadecenylsalicylic acid;Ginkgolic acid I;Anacardic acid monoene;22:1-ω<sup>7</sup>-Anacardic acid;Ginkgolic acid 15:1;6-(8-Pentadecenyl)salicylic acid;6-(8′Z-Pentadecenyl)salicylic acid;(15:1)-Anacardic acid;Ginkgolic acid C15:1",
    "duplicated_cas_no": "480-48-8",
    "SMILES": "C(O)(=O)C1=C(CCCCCCC/C=C\\CCCCCC)C=CC=C1O",
    "meta_data": {
        "InChI": "InChI=1S/C22H34O3/c1-2-3-4-5-6-7-8-9-10-11-12-13-14-16-19-17-15-18-20(23)21(19)22(24)25/h7-8,15,17-18,23H,2-6,9-14,16H2,1H3,(H,24,25)/b8-7-",
        "InChIKey": null,
        "Canonical SMILES": "O=C(O)C=1C(O)=CC=CC1CCCCCCCC=CCCCCCC",
        "Molecular Formula": "C<sub>22</sub>H<sub>34</sub>O<sub>3</sub>",
        "Molecular Mass": "346.50",
        "Boiling Point": "221-223 °C @ Press: 4 Torr",
        "Melting Point": "92 °C",
        "Density": "0.9148 g/cm³ @ Temp: 20 °C"
    }
}