{
    "cas_no": "13825-74-6",
    "key_name": "Titanium oxysulfate",
    "cn_name": "硫酸氧钛;硫酸氧化钛(IV);",
    "alternate_name": "Titanium, oxo[sulfato(2-)-κ<em>O</em>,κ<em>O</em>′]-;Titanium, oxosulfato-;Titanyl sulfate (TiO(SO<sub>4</sub>));Titanium, oxo[sulfato(2-)-<em>O</em>,<em>O</em>′]-;Oxo[sulfato(2-)-κ<em>O</em>,κ<em>O</em>′]titanium;Titanium oxide sulfate (TiO(SO<sub>4</sub>));Titanium oxide sulfate;Titanium oxysulfate;Tai-Sult Y 9;Uniti 909",
    "duplicated_cas_no": "1314-58-5;15550-72-8;126165-81-9;742005-85-2;2415933-87-6",
    "SMILES": "O=S1(=O)O[Ti](=O)O1",
    "meta_data": {
        "InChI": "InChI=1S/H2O4S.O.Ti/c1-5(2,3)4;;/h(H2,1,2,3,4);;/q;;+2/p-2",
        "InChIKey": null,
        "Canonical SMILES": "O=[Ti]1OS(=O)(=O)O1",
        "Molecular Formula": "O<sub>5</sub>STi",
        "Molecular Mass": "",
        "Boiling Point": "&gt;130 °C",
        "Density": "1.3984 g/cm³ @ Temp: 25 °C"
    }
}