{
    "cas_no": "477600-74-1",
    "key_name": "<em>N</em>-Methyl-<em>N</em>-[(3<em>R</em>,4<em>R</em>)-4-methyl-3-piperidinyl]-7<em>H</em>-pyrrolo[2,3-<em>d</em>]pyrimidin-4-amine",
    "cn_name": null,
    "alternate_name": "7<em>H</em>-Pyrrolo[2,3-<em>d</em>]pyrimidin-4-amine, <em>N</em>-methyl-<em>N</em>-[(3<em>R</em>,4<em>R</em>)-4-methyl-3-piperidinyl]-;1<em>H</em>-Pyrrolo[2,3-<em>d</em>]pyrimidin-4-amine, <em>N</em>-methyl-<em>N</em>-[(3<em>R</em>,4<em>R</em>)-4-methyl-3-piperidinyl]-;<em>N</em>-Methyl-<em>N</em>-[(3<em>R</em>,4<em>R</em>)-4-methyl-3-piperidinyl]-7<em>H</em>-pyrrolo[2,3-<em>d</em>]pyrimidin-4-amine;(3<em>R</em>,4<em>R</em>)-Methyl{(4-methylpiperidin-3-yl)(7<em>H</em>-pyrrolo[2,3-<em>d</em>]pyrimidin-4-yl)}amine",
    "duplicated_cas_no": "",
    "SMILES": "N(C)(C1=C2C(NC=C2)=NC=N1)[C@@H]3[C@H](C)CCNC3",
    "meta_data": {
        "InChI": "InChI=1S/C13H19N5/c1-9-3-5-14-7-11(9)18(2)13-10-4-6-15-12(10)16-8-17-13/h4,6,8-9,11,14H,3,5,7H2,1-2H3,(H,15,16,17)/t9-,11+/m1/s1",
        "InChIKey": null,
        "Canonical SMILES": "N=1C=NC(=C2C=CNC12)N(C)C3CNCCC3C",
        "Molecular Formula": "C<sub>13</sub>H<sub>19</sub>N<sub>5</sub>",
        "Molecular Mass": "245.32",
        "Melting Point": "158.5-159.5 °C"
    }
}