{
    "cas_no": "927-77-5",
    "key_name": "Propylmagnesium bromide",
    "cn_name": "丙基溴化镁;丙基溴化镁(0404禁空运);",
    "alternate_name": "Magnesium, bromopropyl-;Propylmagnesium bromide;Bromopropylmagnesium;1-Propylmagnesium bromide;<em>n</em>-Propylmagnesium bromide",
    "duplicated_cas_no": "",
    "SMILES": "C(CC)[Mg]Br",
    "meta_data": {
        "InChI": "InChI=1S/C3H7.BrH.Mg/c1-3-2;;/h1,3H2,2H3;1H;/q;;+1/p-1",
        "InChIKey": null,
        "Canonical SMILES": "Br[Mg]CCC",
        "Molecular Formula": "C<sub>3</sub>H<sub>7</sub>BrMg",
        "Molecular Mass": "",
        "Boiling Point": "120-121 °C @ Press: 0.2 Torr",
        "Melting Point": "61.5-62.5 °C"
    }
}