{
    "cas_no": "2782-57-2",
    "key_name": "Dichloroisocyanurate",
    "cn_name": "二氯异氰尿酸;杀菌剂;优氯净;防散剂;",
    "alternate_name": "1,3,5-Triazine-2,4,6(1<em>H</em>,3<em>H</em>,5<em>H</em>)-trione, 1,3-dichloro-;<em>s</em>-Triazine-2,4,6(1<em>H</em>,3<em>H</em>,5<em>H</em>)-trione, 1,3-dichloro-;<em>s</em>-Triazine-2,4,6(1<em>H</em>,3<em>H</em>,5<em>H</em>)-trione, dichloro-;1,3-Dichloro-1,3,5-triazine-2,4,6(1<em>H</em>,3<em>H</em>,5<em>H</em>)-trione;ACL 70;Dichlorocyanuric acid;Dichloroisocyanuric acid;1,3-Dichloro-<em>s</em>-triazine-2,4,6-trione;Troclosene;Isocyanuric dichloride;Fi Clor 71;CDB 60;Hilite 60;Orced;Dichloroisocyanurate;Dichlor;DCCA",
    "duplicated_cas_no": "76162-35-1",
    "SMILES": "ClN1C(=O)N(Cl)C(=O)NC1=O",
    "meta_data": {
        "InChI": "InChI=1S/C3HCl2N3O3/c4-7-1(9)6-2(10)8(5)3(7)11/h(H,6,9,10)",
        "InChIKey": null,
        "Canonical SMILES": "O=C1NC(=O)N(Cl)C(=O)N1Cl",
        "Molecular Formula": "C<sub>3</sub>HCl<sub>2</sub>N<sub>3</sub>O<sub>3</sub>",
        "Molecular Mass": "197.96",
        "Melting Point": "226.4-226.7 °C"
    }
}