{
    "cas_no": "41447-18-1",
    "key_name": "<em>N</em>-Methyl-<span class=\"text-smallcaps\">L</span>-pipecolic acid",
    "cn_name": null,
    "alternate_name": "2-Piperidinecarboxylic acid, 1-methyl-, (2<em>S</em>)-;2-Piperidinecarboxylic acid, 1-methyl-, (<em>S</em>)-;(2<em>S</em>)-1-Methyl-2-piperidinecarboxylic acid;(-)-(<em>S</em>)-<em>N</em>-Methylpipecolic acid;<em>N</em>-Methyl-<span class=\"text-smallcaps\">L</span>-pipecolic acid;(2S)-1-Methylpiperidine-2-carboxylic acid;(<em>S</em>)-1-Methylpiperidine-2-carboxylic acid;(-)-(2S)-1-Methylpiperidine-2-carboxylic acid;2-Piperidinecarboxylic acid 1-methyl-, (2S)-",
    "duplicated_cas_no": "",
    "SMILES": "C(O)(=O)[C@H]1N(C)CCCC1",
    "meta_data": {
        "InChI": "InChI=1S/C7H13NO2/c1-8-5-3-2-4-6(8)7(9)10/h6H,2-5H2,1H3,(H,9,10)/t6-/m0/s1",
        "InChIKey": null,
        "Canonical SMILES": "O=C(O)C1N(C)CCCC1",
        "Molecular Formula": "C<sub>7</sub>H<sub>13</sub>NO<sub>2</sub>",
        "Molecular Mass": "143.18",
        "Melting Point": "213-214 °C (decomp)"
    }
}