{
    "cas_no": "687-69-4",
    "key_name": "<span class=\"text-smallcaps\">L</span>-Alanylglycine",
    "cn_name": "L-丙氨酰甘氨酸;L-丙氨酰甘氨酸;L-丙甘二肽；L-丙氨酰氨基乙酸;",
    "alternate_name": "Glycine, <span class=\"text-smallcaps\">L</span>-alanyl-;Glycine, <em>N</em>-<span class=\"text-smallcaps\">L</span>-alanyl-;<span class=\"text-smallcaps\">L</span>-Alanylglycine;Alanylglycine;<em>N</em>-<span class=\"text-smallcaps\">L</span>-Alanylglycine;<span class=\"text-smallcaps\">L</span>-α-Alanylglycine;(<em>S</em>)-Alanylglycine;33: PN: WO03052099 PAGE: 84 claimed protein;NSC 89597;52: PN: WO2009086116 SEQID: 27 unclaimed protein;18: PN: WO2014063098 TABLE: 5 claimed protein;113: PN: US20130123467 SEQID: 137 claimed protein;1: PN: US20180169179 SEQID: 1 claimed protein;3: PN: CN109305994 PAGE: 5 claimed sequence;(<em>S</em>)-2-(2-Aminopropanamido)acetic acid;2-[(2S)-2-Aminopropanamido]acetic acid;2: PN: WO2022099157 PAGE: 113 claimed sequence;2: PN: WO2022192664 PAGE: 110 claimed sequence;13: PN: WO2022226242 SEQID: 13 claimed protein;3: PN: WO2022218941 PAGE: 253 claimed sequence",
    "duplicated_cas_no": "2946-91-0",
    "SMILES": "C(NCC(O)=O)([C@H](C)N)=O",
    "meta_data": {
        "InChI": "InChI=1S/C5H10N2O3/c1-3(6)5(10)7-2-4(8)9/h3H,2,6H2,1H3,(H,7,10)(H,8,9)/t3-/m0/s1",
        "InChIKey": null,
        "Canonical SMILES": "O=C(O)CNC(=O)C(N)C",
        "Molecular Formula": "C<sub>5</sub>H<sub>10</sub>N<sub>2</sub>O<sub>3</sub>",
        "Molecular Mass": "146.14",
        "Melting Point": "250 °C"
    }
}