{
    "cas_no": "127-77-5",
    "key_name": "Sulfabenz",
    "cn_name": "磺胺苯;苯磺胺;4-氨基-N-苯基苯磺酰胺;",
    "alternate_name": "Benzenesulfonamide, 4-amino-<em>N</em>-phenyl-;Sulfanilanilide;4-Amino-<em>N</em>-phenylbenzenesulfonamide;4-Aminobenzenesulfonanilide;<em>N</em><sup>1</sup>-Phenylsulfanilamide;Sulfa Vet;Sulfabenz;<em>p</em>-Aminobenzenesulfonanilide;<em>p</em>-Amino-<em>N</em>-phenylbenzenesulfonamide;4-(Phenylsulfamoyl)benzenamine;NSC 2619;<em>N</em>-Phenyl 4-aminobenzenesulfonamide",
    "duplicated_cas_no": "",
    "SMILES": "S(NC1=CC=CC=C1)(=O)(=O)C2=CC=C(N)C=C2",
    "meta_data": {
        "InChI": "InChI=1S/C12H12N2O2S/c13-10-6-8-12(9-7-10)17(15,16)14-11-4-2-1-3-5-11/h1-9,14H,13H2",
        "InChIKey": null,
        "Canonical SMILES": "O=S(=O)(NC=1C=CC=CC1)C2=CC=C(N)C=C2",
        "Molecular Formula": "C<sub>12</sub>H<sub>12</sub>N<sub>2</sub>O<sub>2</sub>S",
        "Molecular Mass": "248.30",
        "Melting Point": "200 °C"
    }
}