{
    "cas_no": "16961-83-4",
    "key_name": "Fluorosilicic acid",
    "cn_name": "氟硅酸;硅氟酸;",
    "alternate_name": "Silicate(2-), hexafluoro-, hydrogen (1:2);Silicate(2-), hexafluoro-, dihydrogen;Fluosilicic acid;Dihydrogen hexafluorosilicate;Hexafluorosilicic acid;Hydrofluorosilicic acid;Fluorosilicic acid;Fluorosilicic acid (H<sub>2</sub>SiF<sub>6</sub>);Silicon hexafluoride dihydride;Dihydrogen hexafluorosilicate(2-);Hydrogen hexafluorosilicate (H<sub>2</sub>SiF<sub>6</sub>);NSC 16894;Hydrosilicofluoric acid;Dihydrogen(2+) hexafluorosilicate(4-)",
    "duplicated_cas_no": "1309-45-1;12672-67-2;1202864-64-9",
    "SMILES": "[Si+4]([F-])([F-])([F-])([F-])([F-])[F-].[H+]",
    "meta_data": {
        "InChI": "InChI=1S/F6Si/c1-7(2,3,4,5)6/q-2/p+2",
        "InChIKey": null,
        "Canonical SMILES": "[H+].[F-][Si+4]([F-])([F-])([F-])([F-])[F-]",
        "Molecular Formula": "F<sub>6</sub>Si.2H",
        "Molecular Mass": "",
        "Boiling Point": "~120 °C (approx)"
    }
}