{
    "cas_no": "1095-78-9",
    "key_name": "4,4′-[2,2,2-Trifluoro-1-(trifluoromethyl)ethylidene]bis[benzenamine]",
    "cn_name": "2,2-双(4-氨基苯基)六氟丙烷;4,4\"-(六氟异亚丙基)二苯胺;",
    "alternate_name": "Benzenamine, 4,4′-[2,2,2-trifluoro-1-(trifluoromethyl)ethylidene]bis-;Aniline, 4,4′-[trifluoro-1-(trifluoromethyl)ethylidene]di-;Aniline, 4,4′-[2,2,2-trifluoro-1-(trifluoromethyl)ethylidene]di-;4,4′-[2,2,2-Trifluoro-1-(trifluoromethyl)ethylidene]bis[benzenamine];4,4′-(Hexafluoroisopropylidene)dianiline;2,2-Bis(4-aminophenyl)hexafluoropropane;BIS-A-AF;Hexafluoroisopropylidene-4,4′-dianiline;2,2-Bis(4-aminophenyl)-1,1,1,3,3,3-hexafluoropropane;HFDA",
    "duplicated_cas_no": "",
    "SMILES": "C(C(F)(F)F)(C(F)(F)F)(C1=CC=C(N)C=C1)C2=CC=C(N)C=C2",
    "meta_data": {
        "InChI": "InChI=1S/C15H12F6N2/c16-14(17,18)13(15(19,20)21,9-1-5-11(22)6-2-9)10-3-7-12(23)8-4-10/h1-8H,22-23H2",
        "InChIKey": null,
        "Canonical SMILES": "FC(F)(F)C(C1=CC=C(N)C=C1)(C2=CC=C(N)C=C2)C(F)(F)F",
        "Molecular Formula": "C<sub>15</sub>H<sub>12</sub>F<sub>6</sub>N<sub>2</sub>",
        "Molecular Mass": "334.26",
        "Melting Point": "197 °C"
    }
}