{
    "cas_no": "12060-08-1",
    "key_name": "Scandium oxide (Sc<sub>2</sub>O<sub>3</sub>)",
    "cn_name": "氧化钪;三氧化二钪;",
    "alternate_name": "Scandium oxide (Sc<sub>2</sub>O<sub>3</sub>);Scandium sesquioxide;Scandium oxide;Discandium trioxide;Scandia;Scandium trioxide;Scandium(3+) oxide;Scandium(III) oxide;Scandia (Sc<sub>2</sub>O<sub>3</sub>);Scandium oxide (ScO<sub>1.5</sub>)",
    "duplicated_cas_no": "256652-08-1;256652-09-2;1187313-37-6;1257584-26-1",
    "SMILES": "",
    "meta_data": {
        "InChI": "",
        "InChIKey": null,
        "Canonical SMILES": "",
        "Molecular Formula": "O<sub>3</sub>Sc<sub>2</sub>",
        "Molecular Mass": "",
        "Melting Point": "2430 °C",
        "Density": "3.860 g/cm³"
    }
}