{
    "uri": "substance/pt/12060081",
    "rn": "12060-08-1",
    "name": "Scandium oxide (Sc<sub>2</sub>O<sub>3</sub>)",
    "images": [],
    "inchi": "",
    "inchiKey": "",
    "smile": "",
    "canonicalSmile": "",
    "molecularFormula": "O<sub>3</sub>Sc<sub>2</sub>",
    "molecularMass": "",
    "experimentalProperties": [
        {
            "name": "Melting Point",
            "property": "2430 °C",
            "sourceNumber": 1
        },
        {
            "name": "Density",
            "property": "3.860 g/cm³",
            "sourceNumber": 2
        }
    ],
    "propertyCitations": [
        {
            "docUri": "document/pt/document/11717625",
            "sourceNumber": 1,
            "source": "Tresvyatskii, S.G.; Izv. Akad Nauk SSSR, Neorgan. Materialy, (1966), 2(2), 269-74, CAplus"
        },
        {
            "docUri": "document/pt/document/12368075",
            "sourceNumber": 2,
            "source": "Toropov, N. A.; Kristallografiya, (1961), 6, 968-72, CAplus"
        }
    ],
    "synonyms": [
        "Scandium oxide (Sc<sub>2</sub>O<sub>3</sub>)",
        "Scandium sesquioxide",
        "Scandium oxide",
        "Discandium trioxide",
        "Scandia",
        "Scandium trioxide",
        "Scandium(3+) oxide",
        "Scandium(III) oxide",
        "Scandia (Sc<sub>2</sub>O<sub>3</sub>)",
        "Scandium oxide (ScO<sub>1.5</sub>)"
    ],
    "replacedRns": [
        "256652-08-1",
        "256652-09-2",
        "1187313-37-6",
        "1257584-26-1"
    ],
    "hasMolfile": false,
    "source": "https://commonchemistry.cas.org/detail?cas_rn=12060-08-1"
}