{
    "cas_no": "1313-60-6",
    "key_name": "Sodium peroxide",
    "cn_name": "过氧化钠;双氧化钠;二氧化钠;",
    "alternate_name": "Sodium peroxide (Na<sub>2</sub>(O<sub>2</sub>));Sodium peroxide;Sodium oxide (Na<sub>2</sub>O<sub>2</sub>);Disodium dioxide;Disodium peroxide",
    "duplicated_cas_no": "55248-04-9;2306022-28-4",
    "SMILES": "O(O[Na])[Na]",
    "meta_data": {
        "InChI": "InChI=1S/2Na.O2/c;;1-2/q2*+1;-2",
        "InChIKey": null,
        "Canonical SMILES": "[Na]OO[Na]",
        "Molecular Formula": "Na<sub>2</sub>O<sub>2</sub>",
        "Molecular Mass": "",
        "Melting Point": "460 °C (decomp)",
        "Density": "2.805 g/cm³ @ Temp: 20 °C"
    }
}