{
    "cas_no": "4736-60-1",
    "key_name": "Ethyltriphenylphosphonium iodide",
    "cn_name": "三苯基乙基碘化鏻;乙基三苯基碘化鏻;",
    "alternate_name": "Phosphonium, ethyltriphenyl-, iodide (1:1);Phosphonium, ethyltriphenyl-, iodide;Ethyltriphenylphosphonium iodide;Phenylphosphonium ethyl iodide;Triphenylethylphosphonium iodide;ETPPI;Hishicolin ETPPI",
    "duplicated_cas_no": "856366-43-3;20667-20-3",
    "SMILES": "[P+](CC)(C1=CC=CC=C1)(C2=CC=CC=C2)C3=CC=CC=C3.[I-]",
    "meta_data": {
        "InChI": "InChI=1S/C20H20P.HI/c1-2-21(18-12-6-3-7-13-18,19-14-8-4-9-15-19)20-16-10-5-11-17-20;/h3-17H,2H2,1H3;1H/q+1;/p-1",
        "InChIKey": null,
        "Canonical SMILES": "[I-].C=1C=CC(=CC1)[P+](C=2C=CC=CC2)(C=3C=CC=CC3)CC",
        "Molecular Formula": "C<sub>20</sub>H<sub>20</sub>P.I",
        "Molecular Mass": "",
        "Melting Point": "164-165 °C"
    }
}