{
    "cas_no": "1074-16-4",
    "key_name": "2-Bromobenzeneethanol",
    "cn_name": "2-(2-溴苯基)乙醇;",
    "alternate_name": "Benzeneethanol, 2-bromo-;Phenethyl alcohol, <em>o</em>-bromo-;2-Bromobenzeneethanol;<em>o</em>-Bromophenethyl alcohol;<em>o</em>-Bromophenylethyl alcohol;2-Bromophenethyl alcohol;2-(2-Bromophenyl)ethanol;2-(2-Hydroxyethyl)bromobenzene;2-(2-Bromophenyl)ethan-1-ol",
    "duplicated_cas_no": "",
    "SMILES": "C(CO)C1=C(Br)C=CC=C1",
    "meta_data": {
        "InChI": "InChI=1S/C8H9BrO/c9-8-4-2-1-3-7(8)5-6-10/h1-4,10H,5-6H2",
        "InChIKey": null,
        "Canonical SMILES": "BrC=1C=CC=CC1CCO",
        "Molecular Formula": "C<sub>8</sub>H<sub>9</sub>BrO",
        "Molecular Mass": "201.06",
        "Boiling Point": "135-137 °C @ Press: 12 Torr"
    }
}