{
    "cas_no": "11096-82-5",
    "key_name": "PCB 1260",
    "cn_name": null,
    "alternate_name": "PCB 1260;Aroclor 1260",
    "duplicated_cas_no": "",
    "SMILES": "",
    "meta_data": {
        "InChI": "",
        "InChIKey": null,
        "Canonical SMILES": "",
        "Molecular Formula": "Unspecified",
        "Molecular Mass": "",
        "Boiling Point": "385-420 °C",
        "Density": "1.58 g/cm³ @ Temp: 25 °C"
    }
}