{
    "uri": "substance/pt/11096825",
    "rn": "11096-82-5",
    "name": "PCB 1260",
    "images": [],
    "inchi": "",
    "inchiKey": "",
    "smile": "",
    "canonicalSmile": "",
    "molecularFormula": "Unspecified",
    "molecularMass": "",
    "experimentalProperties": [
        {
            "name": "Boiling Point",
            "property": "385-420 °C",
            "sourceNumber": 1
        },
        {
            "name": "Density",
            "property": "1.58 g/cm³ @ Temp: 25 °C",
            "sourceNumber": 1
        }
    ],
    "propertyCitations": [
        {
            "docUri": "",
            "sourceNumber": 1,
            "source": "Hazardous Substances Data Bank data were obtained from the National Library of Medicine (US)"
        }
    ],
    "synonyms": [
        "PCB 1260",
        "Aroclor 1260"
    ],
    "replacedRns": [],
    "hasMolfile": false,
    "source": "https://commonchemistry.cas.org/detail?cas_rn=11096-82-5"
}