{
    "cas_no": "14752-75-1",
    "key_name": "Heptadecylbenzene",
    "cn_name": "十七烷基苯;",
    "alternate_name": "Benzene, heptadecyl-;Heptadecane, 1-phenyl-;Heptadecylbenzene;Heptadecylbenzol;<em>n</em>-Heptadecylbenzene;1-Phenylheptadecane",
    "duplicated_cas_no": "",
    "SMILES": "C(CCCCCCCCCCCCCCCC)C1=CC=CC=C1",
    "meta_data": {
        "InChI": "InChI=1S/C23H40/c1-2-3-4-5-6-7-8-9-10-11-12-13-14-15-17-20-23-21-18-16-19-22-23/h16,18-19,21-22H,2-15,17,20H2,1H3",
        "InChIKey": null,
        "Canonical SMILES": "C=1C=CC(=CC1)CCCCCCCCCCCCCCCCC",
        "Molecular Formula": "C<sub>23</sub>H<sub>40</sub>",
        "Molecular Mass": "316.56",
        "Boiling Point": "397 °C",
        "Melting Point": "32 °C"
    }
}