{
    "cas_no": "1059-14-9",
    "key_name": "Taraxasterol",
    "cn_name": null,
    "alternate_name": "Urs-20(30)-en-3-ol, (3β,18α,19α)-;18α,19β<span class=\"text-smallcaps\">H</span>-Urs-20(30)-en-3β-ol;Taraxasterol;(3β,18α,19α)-Urs-20(30)-en-3-ol;4-Taraxasterol;Isolactucerol;Saussurol;α-Lactucerol;Lactucerol",
    "duplicated_cas_no": "1392-12-7;1400-18-6",
    "SMILES": "C[C@]12[C@@]3(C)[C@@]([C@@]4([C@@](C)(CC3)CCC(=C)[C@H]4C)[H])(CC[C@@]1([C@]5(C)[C@@](CC2)(C(C)(C)[C@@H](O)CC5)[H])[H])[H]",
    "meta_data": {
        "InChI": "InChI=1S/C30H50O/c1-19-11-14-27(5)17-18-29(7)21(25(27)20(19)2)9-10-23-28(6)15-13-24(31)26(3,4)22(28)12-16-30(23,29)8/h20-25,31H,1,9-18H2,2-8H3/t20-,21-,22+,23-,24+,25-,27-,28+,29-,30-/m1/s1",
        "InChIKey": null,
        "Canonical SMILES": "OC1CCC2(C)C(CCC3(C)C2CCC4C5C(C(=C)CCC5(C)CCC43C)C)C1(C)C",
        "Molecular Formula": "C<sub>30</sub>H<sub>50</sub>O",
        "Molecular Mass": "426.72",
        "Melting Point": "221-222 °C"
    }
}