{
    "cas_no": "2109-66-2",
    "key_name": "<em>N</em>-(2-Hydroxypropyl)morpholine",
    "cn_name": "N-(2-羟丙基)吗啉;&alpha;-甲基-4-吗啉乙醇;",
    "alternate_name": "4-Morpholineethanol, α-methyl-;α-Methyl-4-morpholineethanol;<em>N</em>-(β-Hydroxypropyl)morpholine;<em>N</em>-(2-Hydroxypropyl)morpholine;1-Morpholino-2-propanol;4-(2-Hydroxypropyl)morpholine;(±)-1-Morpholino-2-propanol;NSC 61987;1-(Morpholin-4-yl)propan-2-ol;1-Morpholinopropan-2-ol",
    "duplicated_cas_no": "",
    "SMILES": "C(C(C)O)N1CCOCC1",
    "meta_data": {
        "InChI": "InChI=1S/C7H15NO2/c1-7(9)6-8-2-4-10-5-3-8/h7,9H,2-6H2,1H3",
        "InChIKey": null,
        "Canonical SMILES": "OC(C)CN1CCOCC1",
        "Molecular Formula": "C<sub>7</sub>H<sub>15</sub>NO<sub>2</sub>",
        "Molecular Mass": "145.20",
        "Boiling Point": "97-98 °C @ Press: 13 Torr",
        "Density": "1.0203 g/cm³ @ Temp: 20 °C"
    }
}