{
    "cas_no": "146939-27-7",
    "key_name": "Ziprasidone",
    "cn_name": "齐拉西酮;5-(2-(4-(1,2-苯并异噻唑-3-基)-1-哌嗪基)乙基)-6-氯-1,3-二氢-2H-吲哚-2-酮;",
    "alternate_name": "2<em>H</em>-Indol-2-one, 5-[2-[4-(1,2-benzisothiazol-3-yl)-1-piperazinyl]ethyl]-6-chloro-1,3-dihydro-;5-[2-[4-(1,2-Benzisothiazol-3-yl)-1-piperazinyl]ethyl]-6-chloro-1,3-dihydro-2<em>H</em>-indol-2-one;5-[2-[4-(1,2-Benzisothiazol-3-yl)-1-piperazinyl]ethyl]-6-chloro-2-indolinone;Ziprasidone;CP 88059;Geodon;5-[2-[4-(Benzo[<em>d</em>]isothiazol-3-yl)piperazin-1-yl]ethyl]-6-chloro-1,3-dihydroindol-2-one;Zeldox",
    "duplicated_cas_no": "",
    "SMILES": "C(CC=1C=C2C(=CC1Cl)NC(=O)C2)N3CCN(C=4C=5C(SN4)=CC=CC5)CC3",
    "meta_data": {
        "InChI": "InChI=1S/C21H21ClN4OS/c22-17-13-18-15(12-20(27)23-18)11-14(17)5-6-25-7-9-26(10-8-25)21-16-3-1-2-4-19(16)28-24-21/h1-4,11,13H,5-10,12H2,(H,23,27)",
        "InChIKey": null,
        "Canonical SMILES": "O=C1NC2=CC(Cl)=C(C=C2C1)CCN3CCN(C4=NSC=5C=CC=CC54)CC3",
        "Molecular Formula": "C<sub>21</sub>H<sub>21</sub>ClN<sub>4</sub>OS",
        "Molecular Mass": "412.94",
        "Melting Point": "304 °C"
    }
}