{
    "cas_no": "13508-51-5",
    "key_name": "2-Chloroethylmethyldimethoxysilane",
    "cn_name": null,
    "alternate_name": "Silane, (2-chloroethyl)dimethoxymethyl-;(2-Chloroethyl)dimethoxymethylsilane;2-Chloroethylmethyldimethoxysilane",
    "duplicated_cas_no": "",
    "SMILES": "[Si](CCCl)(OC)(OC)C",
    "meta_data": {
        "InChI": "InChI=1S/C5H13ClO2Si/c1-7-9(3,8-2)5-4-6/h4-5H2,1-3H3",
        "InChIKey": null,
        "Canonical SMILES": "ClCC[Si](OC)(OC)C",
        "Molecular Formula": "C<sub>5</sub>H<sub>13</sub>ClO<sub>2</sub>Si",
        "Molecular Mass": "168.69",
        "Boiling Point": "77 °C @ Press: 25 Torr",
        "Density": "1.029 g/cm³ @ Temp: 25 °C"
    }
}