{
    "cas_no": "473-81-4",
    "key_name": "Glyceric acid",
    "cn_name": "2,3-二羟基丙酸;甘油酸;",
    "alternate_name": "Propanoic acid, 2,3-dihydroxy-;Glyceric acid;2,3-Dihydroxypropanoic acid;Glyceronic acid;α,β-Hydroxypropionic acid;Glycerolic acid;β-Hydroxylactic acid;2,3-Dihydroxypropionic acid;<span class=\"text-smallcaps\">DL</span>-Glyceric acid;(±)-Glyceric acid;NSC 9227",
    "duplicated_cas_no": "600-19-1",
    "SMILES": "C(C(O)=O)(CO)O",
    "meta_data": {
        "InChI": "InChI=1S/C3H6O4/c4-1-2(5)3(6)7/h2,4-5H,1H2,(H,6,7)",
        "InChIKey": null,
        "Canonical SMILES": "O=C(O)C(O)CO",
        "Molecular Formula": "C<sub>3</sub>H<sub>6</sub>O<sub>4</sub>",
        "Molecular Mass": "106.08",
        "Melting Point": "&lt;25 °C"
    }
}