{
    "cas_no": "27072-45-3",
    "key_name": "Fluorescein isothiocyanate",
    "cn_name": null,
    "alternate_name": "Spiro[isobenzofuran-1(3<em>H</em>),9′-[9<em>H</em>]xanthen]-3-one, 3′,6′-dihydroxy-5(<em>or</em> 6)-isothiocyanato-;Fluorescein, isothiocyanato-;3′,6′-Dihydroxy-5(<em>or</em> 6)-isothiocyanatospiro[isobenzofuran-1(3<em>H</em>),9′-[9<em>H</em>]xanthen]-3-one;FITC;Fluorescein isothiocyanate;71: PN: WO2016072662 SEQID: 71 claimed sequence",
    "duplicated_cas_no": "15042-94-1;28325-37-3;29792-10-7;64937-10-6;2769156-70-7",
    "SMILES": "",
    "meta_data": {
        "InChI": "",
        "InChIKey": null,
        "Canonical SMILES": "",
        "Molecular Formula": "C<sub>21</sub>H<sub>11</sub>NO<sub>5</sub>S",
        "Molecular Mass": "",
        "Melting Point": "109-111 °C"
    }
}