{
    "cas_no": "63-56-9",
    "key_name": "Thonzylamine hydrochloride",
    "cn_name": null,
    "alternate_name": "1,2-Ethanediamine, <em>N</em><sup>1</sup>-[(4-methoxyphenyl)methyl]-<em>N</em><sup>2</sup>,<em>N</em><sup>2</sup>-dimethyl-<em>N</em><sup>1</sup>-2-pyrimidinyl-, hydrochloride (1:1);Pyrimidine, 2-[[2-(dimethylamino)ethyl](<em>p</em>-methoxybenzyl)amino]-, monohydrochloride;1,2-Ethanediamine, <em>N</em>-[(4-methoxyphenyl)methyl]-<em>N</em>′,<em>N</em>′-dimethyl-<em>N</em>-2-pyrimidinyl-, monohydrochloride;Pyrimidine, 2-[[2-(dimethylamino)ethyl](<em>p</em>-methoxybenzyl)amino]-, hydrochloride;Anahist;2-[(2-Dimethylaminoethyl)(<em>p</em>-methoxybenzyl)amino]pyrimidine hydrochloride;<em>N</em>,<em>N</em>-Dimethyl-<em>N</em>′-(<em>p</em>-methoxybenzyl)-<em>N</em>′-(2-pyrimidyl)ethylenediamine hydrochloride;<em>N</em>-<em>p</em>-Methoxybenzyl-<em>N</em>′,<em>N</em>′-dimethyl-<em>N</em>-2-pyrimidinylethylene diamine hydrochloride;Neohetramine hydrochloride;Resistab;Thonzylaminium chloride;Thonzylamine hydrochloride;NH 188;Super Anahist;Tonamil",
    "duplicated_cas_no": "95061-88-4;121160-34-7;1192475-83-4",
    "SMILES": "N(CC1=CC=C(OC)C=C1)(CCN(C)C)C=2N=CC=CN2.Cl",
    "meta_data": {
        "InChI": "InChI=1S/C16H22N4O.ClH/c1-19(2)11-12-20(16-17-9-4-10-18-16)13-14-5-7-15(21-3)8-6-14;/h4-10H,11-13H2,1-3H3;1H",
        "InChIKey": null,
        "Canonical SMILES": "Cl.N=1C=CC=NC1N(CC2=CC=C(OC)C=C2)CCN(C)C",
        "Molecular Formula": "C<sub>16</sub>H<sub>22</sub>N<sub>4</sub>O.ClH",
        "Molecular Mass": "",
        "Melting Point": "174.5 °C"
    }
}