{
    "cas_no": "16518-62-0",
    "key_name": "3-Bromo-<em>N</em>,<em>N</em>-dimethylaniline",
    "cn_name": null,
    "alternate_name": "Benzenamine, 3-bromo-<em>N</em>,<em>N</em>-dimethyl-;Aniline, <em>m</em>-bromo-<em>N</em>,<em>N</em>-dimethyl-;3-Bromo-<em>N</em>,<em>N</em>-dimethylbenzenamine;<em>N</em>,<em>N</em>-Dimethyl-3-bromoaniline;3-Bromo-<em>N</em>,<em>N</em>-dimethylaniline;<em>m</em>-Bromo-<em>N</em>,<em>N</em>-dimethylaniline;(3-Bromophenyl)dimethylamine;<em>N</em>-(3-Bromophenyl)dimethylamine;3-(<em>N</em>,<em>N</em>-Dimethylamino)-1-bromobenzene;1-Bromo-3-dimethylaminobenzene",
    "duplicated_cas_no": "",
    "SMILES": "N(C)(C)C1=CC(Br)=CC=C1",
    "meta_data": {
        "InChI": "InChI=1S/C8H10BrN/c1-10(2)8-5-3-4-7(9)6-8/h3-6H,1-2H3",
        "InChIKey": null,
        "Canonical SMILES": "BrC1=CC=CC(=C1)N(C)C",
        "Molecular Formula": "C<sub>8</sub>H<sub>10</sub>BrN",
        "Molecular Mass": "200.08",
        "Boiling Point": "100-104 °C @ Press: 2 Torr",
        "Melting Point": "11 °C"
    }
}