{
    "cas_no": "141-79-7",
    "key_name": "Mesityl oxide",
    "cn_name": "异亚丙基丙酮;异丙烯基丙酮;4-甲基-3-戊烯-2-酮;",
    "alternate_name": "3-Penten-2-one, 4-methyl-;4-Methyl-3-penten-2-one;Isobutenyl methyl ketone;Isopropylideneacetone;Mesityl oxide;Methyl isobutenyl ketone;2-Methyl-2-penten-4-one;4-Methyl-3-pentene-2-one;Methyl 2-methyl-1-propenyl ketone;Methyl 2,2-dimethylvinyl ketone;2-Methyl-4-oxo-2-pentene;2,2-Dimethylvinyl methyl ketone;NSC 38717",
    "duplicated_cas_no": "",
    "SMILES": "C(=C(C)C)C(C)=O",
    "meta_data": {
        "InChI": "InChI=1S/C6H10O/c1-5(2)4-6(3)7/h4H,1-3H3",
        "InChIKey": null,
        "Canonical SMILES": "O=C(C=C(C)C)C",
        "Molecular Formula": "C<sub>6</sub>H<sub>10</sub>O",
        "Molecular Mass": "98.14",
        "Boiling Point": "130 °C @ Press: 760 Torr",
        "Melting Point": "-52.9 °C",
        "Density": "0.8592 g/cm³ @ Temp: 15 °C"
    }
}