{
    "cas_no": "359-35-3",
    "key_name": "1,1,2,2-Tetrafluoroethane",
    "cn_name": "1,1,2,2-四氟乙烷;",
    "alternate_name": "Ethane, 1,1,2,2-tetrafluoro-;1,1,2,2-Tetrafluoroethane;Freon 134;R 134;HFC 134;F 134;FC 134;Fron 134;α,ω-Dihydroperfluoroethane;R 134 (fluorocarbon);KLEA 134;HFO 134;HFA",
    "duplicated_cas_no": "",
    "SMILES": "C(C(F)F)(F)F",
    "meta_data": {
        "InChI": "InChI=1S/C2H2F4/c3-1(4)2(5)6/h1-2H",
        "InChIKey": null,
        "Canonical SMILES": "FC(F)C(F)F",
        "Molecular Formula": "C<sub>2</sub>H<sub>2</sub>F<sub>4</sub>",
        "Molecular Mass": "102.03",
        "Boiling Point": "-19.9 °C",
        "Melting Point": "-89 °C"
    }
}