{
    "cas_no": "2648-61-5",
    "key_name": "2,2-Dichloroacetophenone",
    "cn_name": "2,2-二氯苯乙酮;",
    "alternate_name": "Ethanone, 2,2-dichloro-1-phenyl-;Acetophenone, 2,2-dichloro-;2,2-Dichloro-1-phenylethanone;ω,ω-Dichloroacetophenone;α,α-Dichloroacetophenone;2,2-Dichloroacetophenone;Phenacylidene dichloride;NSC 53617;2,2-Dichloro-1-phenylethan-1-one",
    "duplicated_cas_no": "",
    "SMILES": "C(C(Cl)Cl)(=O)C1=CC=CC=C1",
    "meta_data": {
        "InChI": "InChI=1S/C8H6Cl2O/c9-8(10)7(11)6-4-2-1-3-5-6/h1-5,8H",
        "InChIKey": null,
        "Canonical SMILES": "O=C(C=1C=CC=CC1)C(Cl)Cl",
        "Molecular Formula": "C<sub>8</sub>H<sub>6</sub>Cl<sub>2</sub>O",
        "Molecular Mass": "189.04",
        "Boiling Point": "249 °C",
        "Melting Point": "20.5 °C",
        "Density": "1.3392 g/cm³ @ Temp: 20 °C"
    }
}