{
    "cas_no": "603-76-9",
    "key_name": "1-Methylindole",
    "cn_name": "N-甲基吲哚;",
    "alternate_name": "1<em>H</em>-Indole, 1-methyl-;Indole, 1-methyl-;1-Methyl-1<em>H</em>-indole;1-Methylindole;<em>N</em>-Methylindole;NSC 212534",
    "duplicated_cas_no": "",
    "SMILES": "CN1C=2C(=CC=CC2)C=C1",
    "meta_data": {
        "InChI": "InChI=1S/C9H9N/c1-10-7-6-8-4-2-3-5-9(8)10/h2-7H,1H3",
        "InChIKey": null,
        "Canonical SMILES": "C=1C=CC2=C(C1)C=CN2C",
        "Molecular Formula": "C<sub>9</sub>H<sub>9</sub>N",
        "Molecular Mass": "131.17",
        "Boiling Point": "237 °C",
        "Melting Point": "186-187 °C"
    }
}