{
    "cas_no": "52667-89-7",
    "key_name": "Octahydro-1,4,7-tris[(4-methylphenyl)sulfonyl]-1<em>H</em>-1,4,7-triazonine",
    "cn_name": null,
    "alternate_name": "1<em>H</em>-1,4,7-Triazonine, octahydro-1,4,7-tris[(4-methylphenyl)sulfonyl]-;Octahydro-1,4,7-tris[(4-methylphenyl)sulfonyl]-1<em>H</em>-1,4,7-triazonine;1,4,7-Tris(<em>p</em>-tolylsulfonyl)-1,4,7-triazacyclononane;1,4,7-Tritosyl-1,4,7-triazacyclononane;1,4,7-Tris(4-toluenesulfonyl)-1,4,7-triazacyclononane;1,4,7-Tri(<em>p</em>-tolylsulfonyl)-1,4,7-triazacyclononane;1,4,7-Tris(<em>p</em>-toluenesulfonyl)-1,4,7-triazacyclononane;1,4,7-Tritosyl-1,4,7-triazonane;1,4,7-Tris-(4-methylphenyl)sulfonyl-1,4,7-triazonane",
    "duplicated_cas_no": "",
    "SMILES": "S(=O)(=O)(N1CCN(S(=O)(=O)C2=CC=C(C)C=C2)CCN(S(=O)(=O)C3=CC=C(C)C=C3)CC1)C4=CC=C(C)C=C4",
    "meta_data": {
        "InChI": "InChI=1S/C27H33N3O6S3/c1-22-4-10-25(11-5-22)37(31,32)28-16-18-29(38(33,34)26-12-6-23(2)7-13-26)20-21-30(19-17-28)39(35,36)27-14-8-24(3)9-15-27/h4-15H,16-21H2,1-3H3",
        "InChIKey": null,
        "Canonical SMILES": "O=S(=O)(C1=CC=C(C=C1)C)N2CCN(CCN(CC2)S(=O)(=O)C3=CC=C(C=C3)C)S(=O)(=O)C4=CC=C(C=C4)C",
        "Molecular Formula": "C<sub>27</sub>H<sub>33</sub>N<sub>3</sub>O<sub>6</sub>S<sub>3</sub>",
        "Molecular Mass": "591.76",
        "Melting Point": "222 °C"
    }
}