{
    "cas_no": "94-02-0",
    "key_name": "Ethyl benzoylacetate",
    "cn_name": "苯甲酰乙酸乙酯;",
    "alternate_name": "Benzenepropanoic acid, β-oxo-, ethyl ester;Acetic acid, benzoyl-, ethyl ester;Benzoylacetic acid ethyl ester;Ethyl benzoylacetate;Ethyl β-oxobenzenepropanoate;1-Ethoxy-3-phenylpropane-1,3-dione;Ethyl 3-oxo-3-phenylpropanoate;Ethyl 3-oxo-3-phenylpropionate;β-Oxobenzenepropanoic acid ethyl ester;3-Oxo-3-phenylpropionic acid ethyl ester;NSC 227214;NSC 6774;3-Oxo-3-phenylpropanoic acid ethyl ester;Ethyl 2-benzoylacetate;Ethyl 3-phenyl-3-oxopropanoate;3-Phenyl-3-oxopropanoic acid ethyl ester",
    "duplicated_cas_no": "",
    "SMILES": "C(CC(OCC)=O)(=O)C1=CC=CC=C1",
    "meta_data": {
        "InChI": "InChI=1S/C11H12O3/c1-2-14-11(13)8-10(12)9-6-4-3-5-7-9/h3-7H,2,8H2,1H3",
        "InChIKey": null,
        "Canonical SMILES": "O=C(OCC)CC(=O)C=1C=CC=CC1",
        "Molecular Formula": "C<sub>11</sub>H<sub>12</sub>O<sub>3</sub>",
        "Molecular Mass": "192.21",
        "Boiling Point": "135-137 °C @ Press: 18 Torr",
        "Melting Point": "&lt;0 °C",
        "Density": "0.9678 g/cm³ @ Temp: 15 °C"
    }
}