{
    "cas_no": "1619-34-7",
    "key_name": "(±)-3-Quinuclidinol",
    "cn_name": "奎宁环-3-醇;3-羟基奎宁;1-氮杂双环[2.2.2]辛烷-3-醇;",
    "alternate_name": "1-Azabicyclo[2.2.2]octan-3-ol;3-Quinuclidinol;(±)-1-Azabicyclo[2.2.2]octan-3-ol;3-Hydroxyquinuclidine;(±)-3-Quinuclidinol;<em>dl</em>-3-Quinuclidinol;NSC 93905;1-Azabicyclo[2.2.2]oct-3-yl alcohol;3-Hydroxy-1-azabicyclo[2.2.2]octane;(<em>RS</em>)-3-Quinuclidinol;4-Azabicyclo[2.2.2]octan-2-ol",
    "duplicated_cas_no": "3684-26-2;29924-74-1",
    "SMILES": "OC1C2CCN(C1)CC2",
    "meta_data": {
        "InChI": "InChI=1S/C7H13NO/c9-7-5-8-3-1-6(7)2-4-8/h6-7,9H,1-5H2",
        "InChIKey": null,
        "Canonical SMILES": "OC1CN2CCC1CC2",
        "Molecular Formula": "C<sub>7</sub>H<sub>13</sub>NO",
        "Molecular Mass": "127.18",
        "Melting Point": "221 °C"
    }
}