{
    "cas_no": "149597-92-2",
    "key_name": "β-Phenyl-<span class=\"text-smallcaps\">L</span>-phenylalanine",
    "cn_name": null,
    "alternate_name": "<span class=\"text-smallcaps\">L</span>-Phenylalanine, β-phenyl-;β-Phenyl-<span class=\"text-smallcaps\">L</span>-phenylalanine;<span class=\"text-smallcaps\">L</span>-3,3-Diphenylalanine;<span class=\"text-smallcaps\">L</span>-Diphenylalanine;(2S)-2-Azaniumyl-3,3-diphenylpropanoate;(<em>S</em>)-2-Amino-3,3-diphenylpropanoic acid",
    "duplicated_cas_no": "",
    "SMILES": "C([C@@H](C(O)=O)N)(C1=CC=CC=C1)C2=CC=CC=C2",
    "meta_data": {
        "InChI": "InChI=1S/C15H15NO2/c16-14(15(17)18)13(11-7-3-1-4-8-11)12-9-5-2-6-10-12/h1-10,13-14H,16H2,(H,17,18)/t14-/m0/s1",
        "InChIKey": null,
        "Canonical SMILES": "O=C(O)C(N)C(C=1C=CC=CC1)C=2C=CC=CC2",
        "Molecular Formula": "C<sub>15</sub>H<sub>15</sub>NO<sub>2</sub>",
        "Molecular Mass": "241.29",
        "Melting Point": "234-240 °C"
    }
}