{
    "cas_no": "340-05-6",
    "key_name": "2,2,2-Trifluoro-1-phenylethanol",
    "cn_name": "1-苯基-2,2,2-三氟乙醇;",
    "alternate_name": "Benzenemethanol, α-(trifluoromethyl)-;Benzyl alcohol, α-(trifluoromethyl)-, (±)-;Benzenemethanol, α-(trifluoromethyl)-, (±)-;Benzyl alcohol, α-(trifluoromethyl)-;α-(Trifluoromethyl)benzenemethanol;(±)-1-Phenyl-2,2,2-trifluoroethanol;(±)-2,2,2-Trifluoro-1-phenylethanol;α-(Trifluoromethyl)benzyl alcohol;2,2,2-Trifluoro-1-phenylethanol;2,2,2-Trifluorophenylethanol;1-Phenyl-2,2,2-trifluoroethanol;(±)-α-(Trifluoromethyl) benzyl alcohol;β,β,β-Trifluoro-α-hydroxyethylbenzene;NSC 20214;(±)-1-Phenyl-2-trifluoroethanol;2,2,2-Trifluoro-1-phenylethan-1-ol",
    "duplicated_cas_no": "340-04-5",
    "SMILES": "C(C(F)(F)F)(O)C1=CC=CC=C1",
    "meta_data": {
        "InChI": "InChI=1S/C8H7F3O/c9-8(10,11)7(12)6-4-2-1-3-5-6/h1-5,7,12H",
        "InChIKey": null,
        "Canonical SMILES": "FC(F)(F)C(O)C=1C=CC=CC1",
        "Molecular Formula": "C<sub>8</sub>H<sub>7</sub>F<sub>3</sub>O",
        "Molecular Mass": "176.14",
        "Boiling Point": "125-127 °C @ Press: 760 Torr",
        "Melting Point": "74.3-75.2 °C"
    }
}