{
    "cas_no": "629-11-8",
    "key_name": "1,6-Hexanediol",
    "cn_name": "1,6-己二醇;",
    "alternate_name": "1,6-Hexanediol;Hexamethylene glycol;Hexamethylenediol;1,6-Dihydroxyhexane;α,ω-Hexanediol;ω-Hexanediol;NSC 508;1,6-Hexylene glycol;Hexane-1,6-diol",
    "duplicated_cas_no": "140434-69-1",
    "SMILES": "C(CCCO)CCO",
    "meta_data": {
        "InChI": "InChI=1S/C6H14O2/c7-5-3-1-2-4-6-8/h7-8H,1-6H2",
        "InChIKey": null,
        "Canonical SMILES": "OCCCCCCO",
        "Molecular Formula": "C<sub>6</sub>H<sub>14</sub>O<sub>2</sub>",
        "Molecular Mass": "118.17",
        "Boiling Point": "208 °C @ Press: 760 Torr",
        "Melting Point": "42.8 °C",
        "Density": "0.967 g/cm³ @ Temp: 0 °C"
    }
}