{
    "cas_no": "776-74-9",
    "key_name": "Bromodiphenylmethane",
    "cn_name": "二苯基溴甲烷;",
    "alternate_name": "Benzene, 1,1′-(bromomethylene)bis-;Methane, bromodiphenyl-;1,1′-(Bromomethylene)bis[benzene];Bromodiphenylmethane;Benzhydryl bromide;Diphenylmethyl bromide;α-Bromodiphenylmethane;Diphenylbromomethane;α-Phenylbenzyl bromide;1-[Bromo(phenyl)methyl]benzene;NSC 39226;(Bromomethylene)dibenzene;[Bromo(phenyl)methyl]benzene",
    "duplicated_cas_no": "",
    "SMILES": "C(Br)(C1=CC=CC=C1)C2=CC=CC=C2",
    "meta_data": {
        "InChI": "InChI=1S/C13H11Br/c14-13(11-7-3-1-4-8-11)12-9-5-2-6-10-12/h1-10,13H",
        "InChIKey": null,
        "Canonical SMILES": "BrC(C=1C=CC=CC1)C=2C=CC=CC2",
        "Molecular Formula": "C<sub>13</sub>H<sub>11</sub>Br",
        "Molecular Mass": "247.13",
        "Boiling Point": "173-180 °C @ Press: 13 Torr",
        "Melting Point": "45 °C",
        "Density": "1.45 g/cm³ @ Temp: 20 °C"
    }
}