{
    "cas_no": "16411-33-9",
    "key_name": "<em>N</em>,<em>N</em>′,<em>N</em>′′-Tributyl-1-methylsilanetriamine",
    "cn_name": "三丁氨基甲基硅烷;",
    "alternate_name": "Silanetriamine, <em>N</em>,<em>N</em>′,<em>N</em>′′-tributyl-1-methyl-;<em>N</em>,<em>N</em>′,<em>N</em>′′-Tributyl-1-methylsilanetriamine;Methyltris(butylamino)silane;Tris(butylamino)methylsilane",
    "duplicated_cas_no": "",
    "SMILES": "[Si](NCCCC)(NCCCC)(NCCCC)C",
    "meta_data": {
        "InChI": "InChI=1S/C13H33N3Si/c1-5-8-11-14-17(4,15-12-9-6-2)16-13-10-7-3/h14-16H,5-13H2,1-4H3",
        "InChIKey": null,
        "Canonical SMILES": "N(CCCC)[Si](NCCCC)(NCCCC)C",
        "Molecular Formula": "C<sub>13</sub>H<sub>33</sub>N<sub>3</sub>Si",
        "Molecular Mass": "259.51",
        "Boiling Point": "98-100 °C @ Press: 3 Torr",
        "Density": "0.8586 g/cm³ @ Temp: 20 °C"
    }
}