{
    "cas_no": "2295-35-4",
    "key_name": "2-Pyrrolidinethione",
    "cn_name": "四氢吡咯-2-硫酮;四氢吡咯-2-硫酮;",
    "alternate_name": "2-Pyrrolidinethione;Thiopyrrolidone;γ-Butyrothiolactam;Thiobutyrolactam;2-Thiopyrrolidone;Pyrrolidine-2(1<em>H</em>)-thione;Pyrrolidine-2-thione",
    "duplicated_cas_no": "",
    "SMILES": "S=C1CCCN1",
    "meta_data": {
        "InChI": "InChI=1S/C4H7NS/c6-4-2-1-3-5-4/h1-3H2,(H,5,6)",
        "InChIKey": null,
        "Canonical SMILES": "S=C1NCCC1",
        "Molecular Formula": "C<sub>4</sub>H<sub>7</sub>NS",
        "Molecular Mass": "101.17",
        "Melting Point": "116 °C"
    }
}