{
    "cas_no": "2960-66-9",
    "key_name": "Ethyl (2<em>E</em>)-4-oxo-2-butenoate",
    "cn_name": "反式-4-氧基-2-丁烯酸乙酯;反式-4-氧基-2-丁烯酸乙酯,96%;",
    "alternate_name": "2-Butenoic acid, 4-oxo-, ethyl ester, (2<em>E</em>)-;Fumaraldehydic acid, ethyl ester;2-Butenoic acid, 4-oxo-, ethyl ester, (<em>E</em>)-;Ethyl (2<em>E</em>)-4-oxo-2-butenoate;Ethyl <em>trans</em>-4-oxobutenoate;Ethyl fumaraldehydate;(<em>E</em>)-Ethyl 4-oxo-2-butenoate;Ethyl (<em>E</em>)-3-formylacrylate;Ethyl <em>trans</em>-4-oxo-2-butenoate;(<em>E</em>)-4-Oxo-2-butenoic acid ethyl ester;(2<em>E</em>)-4-Oxobut-2-enoic acid ethyl ester;Ethyl (2<em>E</em>)-4-oxobut-2-enoate;Ethyl (E)-4-oxobut-2-enoate",
    "duplicated_cas_no": "",
    "SMILES": "C(/C=C/C=O)(OCC)=O",
    "meta_data": {
        "InChI": "InChI=1S/C6H8O3/c1-2-9-6(8)4-3-5-7/h3-5H,2H2,1H3/b4-3+",
        "InChIKey": null,
        "Canonical SMILES": "O=CC=CC(=O)OCC",
        "Molecular Formula": "C<sub>6</sub>H<sub>8</sub>O<sub>3</sub>",
        "Molecular Mass": "128.13",
        "Boiling Point": "74 °C @ Press: 16 Torr"
    }
}