{
    "cas_no": "28026-96-2",
    "key_name": "3,5-Dihydroxy-4-methylbenzoic acid",
    "cn_name": "3,5-二羟基-4-甲基苯甲酸;",
    "alternate_name": "Benzoic acid, 3,5-dihydroxy-4-methyl-;α-Resorcylic acid, 4-methyl-;3,5-Dihydroxy-4-methylbenzoic acid;2-Methyl-5-carboxyresorcinol;3,5-Dihydroxy-<em>p</em>-toluic acid;4-Methyl-3,5-dihydroxybenzoic acid",
    "duplicated_cas_no": "",
    "SMILES": "C(O)(=O)C1=CC(O)=C(C)C(O)=C1",
    "meta_data": {
        "InChI": "InChI=1S/C8H8O4/c1-4-6(9)2-5(8(11)12)3-7(4)10/h2-3,9-10H,1H3,(H,11,12)",
        "InChIKey": null,
        "Canonical SMILES": "O=C(O)C1=CC(O)=C(C(O)=C1)C",
        "Molecular Formula": "C<sub>8</sub>H<sub>8</sub>O<sub>4</sub>",
        "Molecular Mass": "168.15",
        "Melting Point": "262 °C"
    }
}