{
    "cas_no": "104700-96-1",
    "key_name": "Ganoderol B",
    "cn_name": null,
    "alternate_name": "Lanosta-7,9(11),24-triene-3,26-diol, (3β,24<em>E</em>)-;(3β,24<em>E</em>)-Lanosta-7,9(11),24-triene-3,26-diol;(+)-Ganoderol B;Ganoderol B;Ganodermadiol",
    "duplicated_cas_no": "",
    "SMILES": "C[C@]12C=3C([C@]4(C)[C@@](CC3)(C(C)(C)[C@@H](O)CC4)[H])=CC[C@]1(C)[C@@]([C@@H](CC/C=C(/CO)\\C)C)(CC2)[H]",
    "meta_data": {
        "InChI": "InChI=1S/C30H48O2/c1-20(19-31)9-8-10-21(2)22-13-17-30(7)24-11-12-25-27(3,4)26(32)15-16-28(25,5)23(24)14-18-29(22,30)6/h9,11,14,21-22,25-26,31-32H,8,10,12-13,15-19H2,1-7H3/b20-9+/t21-,22-,25+,26+,28-,29-,30+/m1/s1",
        "InChIKey": null,
        "Canonical SMILES": "OCC(=CCCC(C)C1CCC2(C3=CCC4C(C3=CCC12C)(C)CCC(O)C4(C)C)C)C",
        "Molecular Formula": "C<sub>30</sub>H<sub>48</sub>O<sub>2</sub>",
        "Molecular Mass": "440.70",
        "Melting Point": "171-173 °C"
    }
}