{
    "cas_no": "73-31-4",
    "key_name": "Melatonin",
    "cn_name": "松果体素;褪黑素;褪黑色素;N-乙酰基-5-甲氧基色胺;",
    "alternate_name": "Acetamide, <em>N</em>-[2-(5-methoxy-1<em>H</em>-indol-3-yl)ethyl]-;Acetamide, <em>N</em>-[2-(5-methoxyindol-3-yl)ethyl]-;<em>N</em>-[2-(5-Methoxy-1<em>H</em>-indol-3-yl)ethyl]acetamide;<em>N</em>-Acetyl-5-methoxytryptamine;Melatonin;Melatonine;5-Methoxy-<em>N</em>-acetyltryptamine;<em>N</em>-[2-(5-Methoxyindol-3-yl)ethyl]acetamide;Regulin;Melovine;Circadin;Melatol;NSC 113928;NSC 56423;3-(2-Acetamidoethyl)-5-methoxyindole;Melaxen;Slenyto;MeSH ID: D008550",
    "duplicated_cas_no": "942407-96-7;1581233-31-9",
    "SMILES": "C(CNC(C)=O)C=1C=2C(NC1)=CC=C(OC)C2",
    "meta_data": {
        "InChI": "InChI=1S/C13H16N2O2/c1-9(16)14-6-5-10-8-15-13-4-3-11(17-2)7-12(10)13/h3-4,7-8,15H,5-6H2,1-2H3,(H,14,16)",
        "InChIKey": null,
        "Canonical SMILES": "O=C(NCCC1=CNC=2C=CC(OC)=CC21)C",
        "Molecular Formula": "C<sub>13</sub>H<sub>16</sub>N<sub>2</sub>O<sub>2</sub>",
        "Molecular Mass": "232.28",
        "Melting Point": "117 °C",
        "Density": "1.269 g/cm³"
    }
}