{
    "cas_no": "3481-09-2",
    "key_name": "<em>N</em>-Chlorophthalimide",
    "cn_name": "N-氯代酞酰亚胺;",
    "alternate_name": "1<em>H</em>-Isoindole-1,3(2<em>H</em>)-dione, 2-chloro-;Phthalimide, <em>N</em>-chloro-;2-Chloro-1<em>H</em>-isoindole-1,3(2<em>H</em>)-dione;<em>N</em>-Chlorophthalimide;Phthalimidoyl chloride;Phthalimide chloride;NSC 76078;2-Chloroisoindole-1,3-dione;2-Chloro-2,3-dihydro-1<em>H</em>-isoindole-1,3-dione;2-Chloroisoindoline-1,3-dione",
    "duplicated_cas_no": "127878-01-7",
    "SMILES": "O=C1C=2C(C(=O)N1Cl)=CC=CC2",
    "meta_data": {
        "InChI": "InChI=1S/C8H4ClNO2/c9-10-7(11)5-3-1-2-4-6(5)8(10)12/h1-4H",
        "InChIKey": null,
        "Canonical SMILES": "O=C1C=2C=CC=CC2C(=O)N1Cl",
        "Molecular Formula": "C<sub>8</sub>H<sub>4</sub>ClNO<sub>2</sub>",
        "Molecular Mass": "181.58",
        "Melting Point": "181-183 °C"
    }
}