{
    "cas_no": "3779-29-1",
    "key_name": "Diethyl 1,1-cyclobutanedicarboxylate",
    "cn_name": "环丁基-1,1-二羧酸二乙酯;",
    "alternate_name": "1,1-Cyclobutanedicarboxylic acid, 1,1-diethyl ester;1,1-Cyclobutanedicarboxylic acid, diethyl ester;Diethyl 1,1-cyclobutanedicarboxylate;NSC 9017;1,1-Diethyl cyclobutane-1,1-dicarboxylate",
    "duplicated_cas_no": "",
    "SMILES": "C(OCC)(=O)C1(C(OCC)=O)CCC1",
    "meta_data": {
        "InChI": "InChI=1S/C10H16O4/c1-3-13-8(11)10(6-5-7-10)9(12)14-4-2/h3-7H2,1-2H3",
        "InChIKey": null,
        "Canonical SMILES": "O=C(OCC)C1(C(=O)OCC)CCC1",
        "Molecular Formula": "C<sub>10</sub>H<sub>16</sub>O<sub>4</sub>",
        "Molecular Mass": "200.23",
        "Boiling Point": "224 °C",
        "Density": "1.0350 g/cm³ @ Temp: 420 °C"
    }
}