{
    "cas_no": "52629-46-6",
    "key_name": "2,4,6-Trimethylbenzeneacetyl chloride",
    "cn_name": "2,4,6-三甲基苯乙酸;",
    "alternate_name": "Benzeneacetyl chloride, 2,4,6-trimethyl-;Acetyl chloride, mesityl-;2,4,6-Trimethylbenzeneacetyl chloride;(2,4,6-Trimethylphenyl)acetyl chloride;Mesityleneacetyl chloride;Mesitylacetyl chloride;α-Mesitylacetyl chloride;Mesitylacetic acid chloride;2,4,6-Trimethylphenylacetic acid chloride;2-Mesitylacetylchloride;2-Mesitylacetyl chloride",
    "duplicated_cas_no": "",
    "SMILES": "C(C(Cl)=O)C1=C(C)C=C(C)C=C1C",
    "meta_data": {
        "InChI": "InChI=1S/C11H13ClO/c1-7-4-8(2)10(6-11(12)13)9(3)5-7/h4-5H,6H2,1-3H3",
        "InChIKey": null,
        "Canonical SMILES": "O=C(Cl)CC=1C(=CC(=CC1C)C)C",
        "Molecular Formula": "C<sub>11</sub>H<sub>13</sub>ClO",
        "Molecular Mass": "196.67",
        "Boiling Point": "130 °C @ Press: 10 Torr"
    }
}