{
    "cas_no": "711-79-5",
    "key_name": "2-Acetyl-1-naphthol",
    "cn_name": null,
    "alternate_name": "Ethanone, 1-(1-hydroxy-2-naphthalenyl)-;2′-Acetonaphthone, 1′-hydroxy-;2-Acetonaphthone, 1-hydroxy-;1-(1-Hydroxy-2-naphthalenyl)ethanone;2-Acetyl-1-naphthol;1-Hydroxy-2-acetylnaphthalene;2-Acetyl-1-hydroxynaphthalene;1-Hydroxy-2-naphthyl methyl ketone;1′-Hydroxy-2′-acetonaphthone;2-Acetyl-1-naphthalenol;2-Aceto-1-naphthol;1′-Hydroxy-2-acetonapthone;NSC 4973;1-(1-Hydroxynaphthalen-2-yl)ethan-1-one",
    "duplicated_cas_no": "",
    "SMILES": "OC=1C2=C(C=CC1C(C)=O)C=CC=C2",
    "meta_data": {
        "InChI": "InChI=1S/C12H10O2/c1-8(13)10-7-6-9-4-2-3-5-11(9)12(10)14/h2-7,14H,1H3",
        "InChIKey": null,
        "Canonical SMILES": "O=C(C=1C=CC=2C=CC=CC2C1O)C",
        "Molecular Formula": "C<sub>12</sub>H<sub>10</sub>O<sub>2</sub>",
        "Molecular Mass": "186.21",
        "Melting Point": "101 °C"
    }
}