{
    "cas_no": "3602-55-9",
    "key_name": "<em>tert</em>-Butyl-1,4-benzoquinone",
    "cn_name": "叔丁基对苯醌;",
    "alternate_name": "2,5-Cyclohexadiene-1,4-dione, 2-(1,1-dimethylethyl)-;<em>p</em>-Benzoquinone, 2-<em>tert</em>-butyl-;<em>p</em>-Benzoquinone, <em>tert</em>-butyl-;2-(1,1-Dimethylethyl)-2,5-cyclohexadiene-1,4-dione;<em>tert</em>-Butylquinone;<em>tert</em>-Butyl-<em>p</em>-benzoquinone;2-<em>tert</em>-Butyl-1,4-benzoquinone;<em>tert</em>-Butyl-1,4-benzoquinone;2-<em>tert</em>-Butyl-<em>p</em>-benzoquinone;<em>tert</em>-Butylbenzoquinone;NSC 124503;2-(<em>tert</em>-Butyl)benzoquinone;2-<em>tert</em>-Butylcyclohexa-2,5-diene-1,4-dione",
    "duplicated_cas_no": "",
    "SMILES": "C(C)(C)(C)C=1C(=O)C=CC(=O)C1",
    "meta_data": {
        "InChI": "InChI=1S/C10H12O2/c1-10(2,3)8-6-7(11)4-5-9(8)12/h4-6H,1-3H3",
        "InChIKey": null,
        "Canonical SMILES": "O=C1C=CC(=O)C(=C1)C(C)(C)C",
        "Molecular Formula": "C<sub>10</sub>H<sub>12</sub>O<sub>2</sub>",
        "Molecular Mass": "164.20",
        "Melting Point": "59 °C"
    }
}