{
    "cas_no": "993-95-3",
    "key_name": "1,1,1,2,3,3-Hexafluoro-3-(2,2,2-trifluoroethoxy)propane",
    "cn_name": null,
    "alternate_name": "Propane, 1,1,1,2,3,3-hexafluoro-3-(2,2,2-trifluoroethoxy)-;Ether, 1,1,2,3,3,3-hexafluoropropyl 2,2,2-trifluoroethyl;1,1,1,2,3,3-Hexafluoro-3-(2,2,2-trifluoroethoxy)propane;1,1,2,3,3,3-Hexafluoropropyl 2,2,2-trifluoroethyl ether;HFE 449mec-f;2,2,2-Trisfluoroethyl 1,1,2,3,3,3-hexafluoropropyl ether",
    "duplicated_cas_no": "",
    "SMILES": "C(C(C(F)(F)F)F)(OCC(F)(F)F)(F)F",
    "meta_data": {
        "InChI": "InChI=1S/C5H3F9O/c6-2(4(10,11)12)5(13,14)15-1-3(7,8)9/h2H,1H2",
        "InChIKey": null,
        "Canonical SMILES": "FC(C(F)(F)F)C(F)(F)OCC(F)(F)F",
        "Molecular Formula": "C<sub>5</sub>H<sub>3</sub>F<sub>9</sub>O",
        "Molecular Mass": "250.06",
        "Boiling Point": "72 °C @ Press: 750 Torr",
        "Density": "1.5398 g/cm³ @ Temp: 20 °C"
    }
}