{
    "cas_no": "113641-37-5",
    "key_name": "4-[Chlorobis(1-methylethyl)silyl]butanenitrile",
    "cn_name": null,
    "alternate_name": "Butanenitrile, 4-[chlorobis(1-methylethyl)silyl]-;4-[Chlorobis(1-methylethyl)silyl]butanenitrile;(3-Cyanopropyl)diisopropylchlorosilane;Diisopropyl-3-cyanopropylchlorosilane",
    "duplicated_cas_no": "",
    "SMILES": "[Si](CCCC#N)(C(C)C)(C(C)C)Cl",
    "meta_data": {
        "InChI": "InChI=1S/C10H20ClNSi/c1-9(2)13(11,10(3)4)8-6-5-7-12/h9-10H,5-6,8H2,1-4H3",
        "InChIKey": null,
        "Canonical SMILES": "N#CCCC[Si](Cl)(C(C)C)C(C)C",
        "Molecular Formula": "C<sub>10</sub>H<sub>20</sub>ClNSi",
        "Molecular Mass": "217.81",
        "Boiling Point": "95 °C @ Press: 0.2 Torr",
        "Density": "0.970 g/cm³"
    }
}