{
    "cas_no": "40204-26-0",
    "key_name": "1-(Phenylmethyl) propanedioate",
    "cn_name": "单-丙二酸苯甲酯;",
    "alternate_name": "Propanedioic acid, 1-(phenylmethyl) ester;Propanedioic acid, mono(phenylmethyl) ester;1-(Phenylmethyl) propanedioate;Monobenzyl malonate;Benzyl hemimalonate;Malonic acid monobenzyl ester;2-(Benzyloxycarbonyl)acetic acid;Benzyl hydrogen malonate;(Benzyloxycarbonyl)acetic acid;3-(Benzyloxy)-3-oxopropanoic acid;3-Oxo-3-phenylmethoxypropanoic acid",
    "duplicated_cas_no": "",
    "SMILES": "C(OC(CC(O)=O)=O)C1=CC=CC=C1",
    "meta_data": {
        "InChI": "InChI=1S/C10H10O4/c11-9(12)6-10(13)14-7-8-4-2-1-3-5-8/h1-5H,6-7H2,(H,11,12)",
        "InChIKey": null,
        "Canonical SMILES": "O=C(O)CC(=O)OCC=1C=CC=CC1",
        "Molecular Formula": "C<sub>10</sub>H<sub>10</sub>O<sub>4</sub>",
        "Molecular Mass": "194.18",
        "Melting Point": "50.5 °C",
        "Density": "1.0737 g/cm³ @ Temp: 20 °C"
    }
}