{
    "cas_no": "28954-12-3",
    "key_name": "<span class=\"text-smallcaps\">L</span>-Allothreonine",
    "cn_name": "L-别苏氨酸;(2S,3S)-2-氨基-3-羟基丁酸;",
    "alternate_name": "<span class=\"text-smallcaps\">L</span>-Allothreonine;Allothreonine, <span class=\"text-smallcaps\">L</span>-;Butanoic acid, 2-amino-3-hydroxy-, [<em>S</em>-(<em>R</em>*,<em>R</em>*)]-;<em>allo</em>-<span class=\"text-smallcaps\">L</span>-Threonine;<span class=\"text-smallcaps\">L</span>-<em>allo</em>-Threonine;[<em>S</em>-(<em>R</em>*,<em>R</em>*)]-2-Amino-3-hydroxybutanoic acid;(<em>S</em>)-<em>allo</em>-Threonine;(<em>S</em>)-Allothreonine;NSC 206283;(2S,3S)-2-Amino-3-hydroxybutanoic acid",
    "duplicated_cas_no": "",
    "SMILES": "[C@H]([C@H](C)O)(C(O)=O)N",
    "meta_data": {
        "InChI": "InChI=1S/C4H9NO3/c1-2(6)3(5)4(7)8/h2-3,6H,5H2,1H3,(H,7,8)/t2-,3-/m0/s1",
        "InChIKey": null,
        "Canonical SMILES": "O=C(O)C(N)C(O)C",
        "Molecular Formula": "C<sub>4</sub>H<sub>9</sub>NO<sub>3</sub>",
        "Molecular Mass": "119.12",
        "Melting Point": "273.5-275.0 °C (decomp)"
    }
}