{
    "cas_no": "35153-15-2",
    "key_name": "(<em>Z</em>)-9-Tetradecen-1-ol",
    "cn_name": "顺-9-十四碳烯醇;",
    "alternate_name": "9-Tetradecen-1-ol, (9<em>Z</em>)-;9-Tetradecen-1-ol, (<em>Z</em>)-;(9<em>Z</em>)-9-Tetradecen-1-ol;<em>cis</em>-9-Tetradecen-1-ol;Myristoleyl alcohol;9-<em>cis</em>-Tetradecenol;Δ<sup>9</sup>-<em>cis</em>-<em>n</em>-Tetradecen-1-ol;<em>cis</em>-Δ<sup>9</sup>-Tetradecenol;(<em>Z</em>)-9-Tetradecen-1-ol;(<em>Z</em>)-9-Tetradecenyl alcohol;<em>cis</em>-9-Tetradecenol",
    "duplicated_cas_no": "",
    "SMILES": "C(C/C=C\\CCCC)CCCCCCO",
    "meta_data": {
        "InChI": "InChI=1S/C14H28O/c1-2-3-4-5-6-7-8-9-10-11-12-13-14-15/h5-6,15H,2-4,7-14H2,1H3/b6-5-",
        "InChIKey": null,
        "Canonical SMILES": "OCCCCCCCCC=CCCCC",
        "Molecular Formula": "C<sub>14</sub>H<sub>28</sub>O",
        "Molecular Mass": "212.37",
        "Boiling Point": "128-130 °C @ Press: 0.3 Torr"
    }
}