{
    "cas_no": "21702-84-1",
    "key_name": "2,4-Dibromoanisole",
    "cn_name": "2,4-二溴苯甲醚;",
    "alternate_name": "Benzene, 2,4-dibromo-1-methoxy-;Anisole, 2,4-dibromo-;2,4-Dibromo-1-methoxybenzene;2,4-Dibromoanisole;1,5-Dibromo-2-methoxybenzene;1,3-Dibromo-4-methoxybenzene",
    "duplicated_cas_no": "",
    "SMILES": "O(C)C1=C(Br)C=C(Br)C=C1",
    "meta_data": {
        "InChI": "InChI=1S/C7H6Br2O/c1-10-7-3-2-5(8)4-6(7)9/h2-4H,1H3",
        "InChIKey": null,
        "Canonical SMILES": "BrC1=CC=C(OC)C(Br)=C1",
        "Molecular Formula": "C<sub>7</sub>H<sub>6</sub>Br<sub>2</sub>O",
        "Molecular Mass": "265.93",
        "Boiling Point": "100-102 °C @ Press: 1 Torr",
        "Melting Point": "61 °C"
    }
}