{
    "cas_no": "5422-88-8",
    "key_name": "Cyclopentyl phenyl ketone",
    "cn_name": "苯基环戊基酮;苯基酮环戊酯;",
    "alternate_name": "Methanone, cyclopentylphenyl-;Ketone, cyclopentyl phenyl;Cyclopentylphenylmethanone;Cyclopentyl phenyl ketone;Phenyl cyclopentyl ketone;Benzoylcyclopentane;NSC 10749;NSC 401765",
    "duplicated_cas_no": "",
    "SMILES": "C(=O)(C1CCCC1)C2=CC=CC=C2",
    "meta_data": {
        "InChI": "InChI=1S/C12H14O/c13-12(11-8-4-5-9-11)10-6-2-1-3-7-10/h1-3,6-7,11H,4-5,8-9H2",
        "InChIKey": null,
        "Canonical SMILES": "O=C(C=1C=CC=CC1)C2CCCC2",
        "Molecular Formula": "C<sub>12</sub>H<sub>14</sub>O",
        "Molecular Mass": "174.24",
        "Boiling Point": "136-140 °C @ Press: 16 Torr"
    }
}