{
    "cas_no": "5715-23-1",
    "key_name": "3,4-Dimethylcyclohexanol",
    "cn_name": "3,4-二甲基环己醇;3,4-二甲基环己醇;1-羟基-3,4-二甲基环己烷;",
    "alternate_name": "Cyclohexanol, 3,4-dimethyl-;3,4-Dimethylcyclohexanol;3,4-Dimethylcyclohexyl alcohol;NSC 62034;3,4-Dimethylcyclohexan-1-ol",
    "duplicated_cas_no": "",
    "SMILES": "CC1C(C)CCC(O)C1",
    "meta_data": {
        "InChI": "InChI=1S/C8H16O/c1-6-3-4-8(9)5-7(6)2/h6-9H,3-5H2,1-2H3",
        "InChIKey": null,
        "Canonical SMILES": "OC1CCC(C)C(C)C1",
        "Molecular Formula": "C<sub>8</sub>H<sub>16</sub>O",
        "Molecular Mass": "128.21",
        "Boiling Point": "189 °C",
        "Melting Point": "-1 °C",
        "Density": "0.906 g/cm³ @ Temp: 20 °C"
    }
}