{
    "cas_no": "302-15-8",
    "key_name": "Hydrazine, methyl-, sulfate (1:1)",
    "cn_name": "甲基肼硫酸盐;硫酸甲肼;",
    "alternate_name": "Hydrazine, methyl-, sulfate (1:1);MHS;Methylhydrazine sulfate;Methylhydrazine monosulfate;Methylhydrazine sulfate (1:1);NSC 3802;Methylhydrazinium sulfate;<em>N</em>-Methylhydrazine sulfate",
    "duplicated_cas_no": "",
    "SMILES": "S(=O)(=O)(O)O.N(C)N",
    "meta_data": {
        "InChI": "InChI=1S/CH6N2.H2O4S/c1-3-2;1-5(2,3)4/h3H,2H2,1H3;(H2,1,2,3,4)",
        "InChIKey": null,
        "Canonical SMILES": "O=S(=O)(O)O.NNC",
        "Molecular Formula": "CH<sub>6</sub>N<sub>2</sub>.H<sub>2</sub>O<sub>4</sub>S",
        "Molecular Mass": "",
        "Melting Point": "140-141 °C"
    }
}