{
    "cas_no": "1401-69-0",
    "key_name": "Tylosin",
    "cn_name": "泰乐菌素;",
    "alternate_name": "Tylosin;Oxacyclohexadecane, tylosin deriv.;Tylosin A;Tylosine;Tylocine;[4<em>R</em>-(4<em>R</em>*,5<em>S</em>*,6<em>S</em>*,7<em>R</em>*,9<em>R</em>*,11<em>E</em>,13<em>E</em>,15<em>R</em>*,16<em>R</em>*)]-15-[[(6-Deoxy-2,3-di-<em>O</em>-methyl-β-<span class=\"text-smallcaps\">D</smallcap>-allopyranosyl)oxy]methyl]-6-[[3,6-dideoxy-4-<em>O</em>-(2,6-dideoxy-3-<em>C</em>-methyl-α-<smallcap>L</smallcap>-<em>ribo</em>-hexopyranosyl)-3-(dimethylamino)-β-<smallcap>D</span>-glucopyranosyl]oxy]-16-ethyl-4-hydroxy-5,9,13-trimethyl-2,10-dioxooxacyclohexadeca-11,13-diene-7-acetaldehyde;Oxacyclohexadeca-11,13-diene-7-acetaldehyde, 15-[[(6-deoxy-2,3-di-<em>O</em>-methyl-β-<span class=\"text-smallcaps\">D</smallcap>-allopyranosyl)oxy]methyl]-6-[[3,6-dideoxy-4-<em>O</em>-(2,6-dideoxy-3-<em>C</em>-methyl-α-<smallcap>L</smallcap>-<em>ribo</em>-hexopyranosyl)-3-(dimethylamino)-β-<smallcap>D</span>-glucopyranosyl]oxy]-16-ethyl-4-hydroxy-5,9,13-trimethyl-2,10-dioxo-, [4<em>R</em>-(4<em>R</em>*,5<em>S</em>*,6<em>S</em>*,7<em>R</em>*,9<em>R</em>*,11<em>E</em>,13<em>E</em>,15<em>R</em>*,16<em>R</em>*)]-;Fradizine;Vubityl 200;MeSH ID: D015645",
    "duplicated_cas_no": "8026-48-0;11112-11-1;39282-33-2;1348250-42-9",
    "SMILES": "O([C@H]1[C@H](N(C)C)[C@@H](O)[C@H](O[C@H]2[C@@H](CC=O)C[C@@H](C)C(=O)/C=C/C(/C)=C/[C@H](CO[C@H]3[C@H](OC)[C@H](OC)[C@H](O)[C@@H](C)O3)[C@@H](CC)OC(=O)C[C@@H](O)[C@@H]2C)O[C@@H]1C)[C@H]4C[C@@](C)(O)[C@@H](O)[C@H](C)O4",
    "meta_data": {
        "InChI": "InChI=1S/C46H77NO17/c1-13-33-30(22-58-45-42(57-12)41(56-11)37(52)26(5)60-45)18-23(2)14-15-31(49)24(3)19-29(16-17-48)39(25(4)32(50)20-34(51)62-33)64-44-38(53)36(47(9)10)40(27(6)61-44)63-35-21-46(8,55)43(54)28(7)59-35/h14-15,17-18,24-30,32-33,35-45,50,52-55H,13,16,19-22H2,1-12H3/b15-14+,23-18+/t24-,25+,26-,27-,28+,29+,30-,32-,33-,35+,36-,37-,38-,39-,40-,41-,42-,43+,44+,45-,46-/m1/s1",
        "InChIKey": null,
        "Canonical SMILES": "O=CCC1CC(C(=O)C=CC(=CC(COC2OC(C)C(O)C(OC)C2OC)C(OC(=O)CC(O)C(C)C1OC3OC(C)C(OC4OC(C)C(O)C(O)(C)C4)C(N(C)C)C3O)CC)C)C",
        "Molecular Formula": "C<sub>46</sub>H<sub>77</sub>NO<sub>17</sub>",
        "Molecular Mass": "916.10",
        "Melting Point": "128-132 °C"
    }
}