{
    "cas_no": "52112-68-2",
    "key_name": "2-Amino-6-chlorobenzoxazole",
    "cn_name": null,
    "alternate_name": "2-Benzoxazolamine, 6-chloro-;Benzoxazole, 2-amino-6-chloro-;6-Chloro-2-benzoxazolamine;2-Amino-6-chlorobenzoxazole;NSC 24991",
    "duplicated_cas_no": "",
    "SMILES": "NC1=NC=2C(O1)=CC(Cl)=CC2",
    "meta_data": {
        "InChI": "InChI=1S/C7H5ClN2O/c8-4-1-2-5-6(3-4)11-7(9)10-5/h1-3H,(H2,9,10)",
        "InChIKey": null,
        "Canonical SMILES": "ClC=1C=CC=2N=C(OC2C1)N",
        "Molecular Formula": "C<sub>7</sub>H<sub>5</sub>ClN<sub>2</sub>O",
        "Molecular Mass": "168.58",
        "Melting Point": "184 °C"
    }
}