{
    "cas_no": "102-06-7",
    "key_name": "Diphenylguanidine",
    "cn_name": "二苯胍;橡胶硫化促进剂DPG;",
    "alternate_name": "Guanidine, <em>N</em>,<em>N</em>′-diphenyl-;Guanidine, 1,3-diphenyl-;<em>N</em>,<em>N</em>′-Diphenylguanidine;<em>sym</em>-Diphenylguanidine;1,3-Diphenylguanidine;DPG;Melaniline;Vulkazit;1,2-Diphenylguanidine;Denax;DFG;Vulcafor DPG;Vulkacit D;Diphenylguanidine;Accelerator D;Nocceler D;Denax DPG;Soxinol D;Chlorostain BR;Rhenogran DPG;Accel DM-R;Sanceler D;Vanax DPG;Perkacit DP;Rhenogran DPG 80P;Sanceler D-G;Vulkacit D/C;Accel D;Perkacit DPG;NSC 3272;Soxinol DG;Rhenogran DPG 80;Oricel D;Vulkacit D/EG-C;DPG 75;Guanid F;Rhenocure DPG;Accelerator BR;Accelerator DPG;DPG 80;Nocceler D-P;D 80;Nocceler DPG;Ekaland DPG-C",
    "duplicated_cas_no": "25323-69-7;33505-70-3;39291-21-9;55556-10-0;368867-99-6",
    "SMILES": "N(C(NC1=CC=CC=C1)=N)C2=CC=CC=C2",
    "meta_data": {
        "InChI": "InChI=1S/C13H13N3/c14-13(15-11-7-3-1-4-8-11)16-12-9-5-2-6-10-12/h1-10H,(H3,14,15,16)",
        "InChIKey": null,
        "Canonical SMILES": "N=C(NC=1C=CC=CC1)NC=2C=CC=CC2",
        "Molecular Formula": "C<sub>13</sub>H<sub>13</sub>N<sub>3</sub>",
        "Molecular Mass": "211.26",
        "Boiling Point": "170 °C",
        "Melting Point": "150 °C",
        "Density": "1.19 g/cm³"
    }
}