{
    "cas_no": "6287-86-1",
    "key_name": "Benzoic acid, 4-formyl-, ethyl ester",
    "cn_name": null,
    "alternate_name": "Benzoic acid, 4-formyl-, ethyl ester;Terephthalaldehydic acid, ethyl ester;<em>p</em>-Carbethoxybenzaldehyde;Ethyl <em>p</em>-formylbenzoate;Ethyl 4-formylbenzoate;4-(Ethoxycarbonyl)benzaldehyde;4-Carbethoxybenzaldehyde;4-Carboxybenzaldehyde ethyl ester;<em>p</em>-(Ethoxycarbonyl)benzaldehyde;NSC 12007;4-Formylbenzoic acid ethyl ester;Terephthaldehydic acid ethyl ester",
    "duplicated_cas_no": "",
    "SMILES": "C(OCC)(=O)C1=CC=C(C=O)C=C1",
    "meta_data": {
        "InChI": "InChI=1S/C10H10O3/c1-2-13-10(12)9-5-3-8(7-11)4-6-9/h3-7H,2H2,1H3",
        "InChIKey": null,
        "Canonical SMILES": "O=CC1=CC=C(C=C1)C(=O)OCC",
        "Molecular Formula": "C<sub>10</sub>H<sub>10</sub>O<sub>3</sub>",
        "Molecular Mass": "178.18",
        "Boiling Point": "142 °C @ Press: 13 Torr",
        "Melting Point": "138-140 °C"
    }
}