{
    "cas_no": "6320-01-0",
    "key_name": "3-Bromothiophenol",
    "cn_name": "间溴苯硫酚;3-溴苯硫酚;",
    "alternate_name": "Benzenethiol, 3-bromo-;Benzenethiol, <em>m</em>-bromo-;3-Bromobenzenethiol;<em>m</em>-Bromobenzenethiol;<em>m</em>-Bromothiophenol;3-Bromothiophenol;NSC 32017;3-Bromobenzene-1-thiol",
    "duplicated_cas_no": "",
    "SMILES": "BrC1=CC(S)=CC=C1",
    "meta_data": {
        "InChI": "InChI=1S/C6H5BrS/c7-5-2-1-3-6(8)4-5/h1-4,8H",
        "InChIKey": null,
        "Canonical SMILES": "BrC1=CC=CC(S)=C1",
        "Molecular Formula": "C<sub>6</sub>H<sub>5</sub>BrS",
        "Molecular Mass": "189.07",
        "Boiling Point": "119-121 °C @ Press: 20-22 Torr",
        "Melting Point": "214-215 °C"
    }
}