{
    "cas_no": "127946-77-4",
    "key_name": "Cyclopropanecarbonitrile, 1-amino-, hydrochloride (1:1)",
    "cn_name": null,
    "alternate_name": "Cyclopropanecarbonitrile, 1-amino-, hydrochloride (1:1);Cyclopropanecarbonitrile, 1-amino-, monohydrochloride;1-Aminocyclopropanecarbonitrile hydrochloride;1-Cyanocyclopropanamine hydrochloride;1-Cyanocyclopropanaminium chloride;1-Amino-1-cyclopropanecarbonitrile hydrochloride;1-Cyanocyclopropylamine hydrochloride;1-Aminocyclopropanecarbonitrile monohydrochloride;1-Amino-1-cyanocyclopropane hydrochloride;1-Aminocyclopropanecarbonitrile hydrochloride (1:1)",
    "duplicated_cas_no": "1700611-11-5",
    "SMILES": "C(#N)C1(N)CC1.Cl",
    "meta_data": {
        "InChI": "InChI=1S/C4H6N2.ClH/c5-3-4(6)1-2-4;/h1-2,6H2;1H",
        "InChIKey": null,
        "Canonical SMILES": "Cl.N#CC1(N)CC1",
        "Molecular Formula": "C<sub>4</sub>H<sub>6</sub>N<sub>2</sub>.ClH",
        "Molecular Mass": "",
        "Melting Point": "170-172 °C"
    }
}