{
    "cas_no": "104-51-8",
    "key_name": "Butylbenzene",
    "cn_name": "丁苯;丁基苯;正丁基苯;正丁苯;",
    "alternate_name": "Benzene, butyl-;Butylbenzene;<em>n</em>-Butylbenzene;1-Phenylbutane;1-Butylbenzene;NSC 8465",
    "duplicated_cas_no": "74296-32-5",
    "SMILES": "C(CCC)C1=CC=CC=C1",
    "meta_data": {
        "InChI": "InChI=1S/C10H14/c1-2-3-7-10-8-5-4-6-9-10/h4-6,8-9H,2-3,7H2,1H3",
        "InChIKey": null,
        "Canonical SMILES": "C=1C=CC(=CC1)CCCC",
        "Molecular Formula": "C<sub>10</sub>H<sub>14</sub>",
        "Molecular Mass": "134.22",
        "Boiling Point": "183.3 °C",
        "Melting Point": "-87.9 °C",
        "Density": "0.8601 g/cm³ @ Temp: 20 °C"
    }
}