{
    "cas_no": "13392-69-3",
    "key_name": "5-Hydroxypentanoic acid",
    "cn_name": null,
    "alternate_name": "Pentanoic acid, 5-hydroxy-;Valeric acid, 5-hydroxy-;5-Hydroxypentanoic acid;5-Hydroxyvaleric acid;δ-Hydroxypentanoic acid",
    "duplicated_cas_no": "1111092-46-6",
    "SMILES": "C(CCCO)C(O)=O",
    "meta_data": {
        "InChI": "InChI=1S/C5H10O3/c6-4-2-1-3-5(7)8/h6H,1-4H2,(H,7,8)",
        "InChIKey": null,
        "Canonical SMILES": "O=C(O)CCCCO",
        "Molecular Formula": "C<sub>5</sub>H<sub>10</sub>O<sub>3</sub>",
        "Molecular Mass": "118.13",
        "Boiling Point": "120-122 °C @ Press: 20 Torr"
    }
}