{
    "cas_no": "16915-70-1",
    "key_name": "Nifursol",
    "cn_name": null,
    "alternate_name": "Benzoic acid, 2-hydroxy-3,5-dinitro-, 2-[(5-nitro-2-furanyl)methylene]hydrazide;Salicylic acid, 3,5-dinitro-, (5-nitrofurfurylidene)hydrazide;Benzoic acid, 2-hydroxy-3,5-dinitro-, [(5-nitro-2-furanyl)methylene]hydrazide;3,5-Dinitrosalicylic acid (5-nitrofurfurylidene)hydrazide;Nifursol;Histomon;Salfuride;Sulfuride;2-Hydroxy-3,5-dinitro-<em>N</em>′-((5-nitrofuran-2-yl)methylene)benzohydrazide;BT06G06",
    "duplicated_cas_no": "",
    "SMILES": "C(NN=CC=1OC(N(=O)=O)=CC1)(=O)C2=C(O)C(N(=O)=O)=CC(N(=O)=O)=C2",
    "meta_data": {
        "InChI": "InChI=1S/C12H7N5O9/c18-11-8(3-6(15(20)21)4-9(11)16(22)23)12(19)14-13-5-7-1-2-10(26-7)17(24)25/h1-5,18H,(H,14,19)",
        "InChIKey": null,
        "Canonical SMILES": "O=C(NN=CC=1OC(=CC1)N(=O)=O)C2=CC(=CC(=C2O)N(=O)=O)N(=O)=O",
        "Molecular Formula": "C<sub>12</sub>H<sub>7</sub>N<sub>5</sub>O<sub>9</sub>",
        "Molecular Mass": "365.21",
        "Melting Point": "227-229 °C"
    }
}