{
    "cas_no": "42918-86-5",
    "key_name": "(2<em>S</em>)-2-[[(Phenylmethoxy)carbonyl]amino]butanoic acid",
    "cn_name": "Cbz-Abu-OH;",
    "alternate_name": "Butanoic acid, 2-[[(phenylmethoxy)carbonyl]amino]-, (2<em>S</em>)-;Butanoic acid, 2-[[(phenylmethoxy)carbonyl]amino]-, (<em>S</em>)-;(2<em>S</em>)-2-[[(Phenylmethoxy)carbonyl]amino]butanoic acid;(<em>S</em>)-2-(Benzyloxycarbonylamino)butyric acid;NSC 164666;(<em>S</em>)-2-(((Benzyloxy)carbonyl)amino)butanoic acid;(2<em>S</em>)-2-[[(Benzyloxy)carbonyl]amino]butanoic acid;<span class=\"text-smallcaps\">L</span>-Cbz-Aminobutyric acid;(2S)-2-[[(Benzyloxy)carbonyl]amino]butanoic acid",
    "duplicated_cas_no": "",
    "SMILES": "C(OC(N[C@H](C(O)=O)CC)=O)C1=CC=CC=C1",
    "meta_data": {
        "InChI": "InChI=1S/C12H15NO4/c1-2-10(11(14)15)13-12(16)17-8-9-6-4-3-5-7-9/h3-7,10H,2,8H2,1H3,(H,13,16)(H,14,15)/t10-/m0/s1",
        "InChIKey": null,
        "Canonical SMILES": "O=C(OCC=1C=CC=CC1)NC(C(=O)O)CC",
        "Molecular Formula": "C<sub>12</sub>H<sub>15</sub>NO<sub>4</sub>",
        "Molecular Mass": "237.25",
        "Melting Point": "79 °C"
    }
}