{
    "cas_no": "17201-43-3",
    "key_name": "4-Cyanobenzyl bromide",
    "cn_name": "对氰基溴化苄;4-氰基溴化苄;",
    "alternate_name": "Benzonitrile, 4-(bromomethyl)-;<em>p</em>-Tolunitrile, α-bromo-;4-(Bromomethyl)benzonitrile;<em>p</em>-Cyanobenzyl bromide;<em>p</em>-(Bromomethyl)benzonitrile;4-Cyanobenzyl bromide;α-Bromo-<em>p</em>-tolunitrile;(<em>p</em>-Cyanophenyl)bromomethane;α-Bromo-<em>p</em>-tolylnitrile;α-Bromo-<em>p</em>-toluenecarbonitrile;(4-Cyanophenyl)methyl bromide;NSC 95792;1-Bromomethyl-4-cyanobenzene;4-(1-Bromomethyl)benzonitrile",
    "duplicated_cas_no": "",
    "SMILES": "C(Br)C1=CC=C(C#N)C=C1",
    "meta_data": {
        "InChI": "InChI=1S/C8H6BrN/c9-5-7-1-3-8(6-10)4-2-7/h1-4H,5H2",
        "InChIKey": null,
        "Canonical SMILES": "N#CC1=CC=C(C=C1)CBr",
        "Molecular Formula": "C<sub>8</sub>H<sub>6</sub>BrN",
        "Molecular Mass": "196.04",
        "Boiling Point": "135-137 °C @ Press: 0.6 Torr",
        "Melting Point": "113-115 °C"
    }
}