{
    "cas_no": "18536-91-9",
    "key_name": "Dodecyltriethoxysilane",
    "cn_name": "正十二烷基三乙氧基硅烷;十二烷基三乙氧基硅烷;N-癸基三乙氧基硅烷;N-十二烷基三乙氧基硅;",
    "alternate_name": "Silane, dodecyltriethoxy-;Dodecyltriethoxysilane;1-(Triethoxysilyl)dodecane;Triethoxydodecylsilane;LS 6570;NSC 139837;<em>n</em>-Dodecyltriethoxysilane;S 08550;D 3383;KH 3041;SICO-N 1223",
    "duplicated_cas_no": "",
    "SMILES": "[Si](CCCCCCCCCCCC)(OCC)(OCC)OCC",
    "meta_data": {
        "InChI": "InChI=1S/C18H40O3Si/c1-5-9-10-11-12-13-14-15-16-17-18-22(19-6-2,20-7-3)21-8-4/h5-18H2,1-4H3",
        "InChIKey": null,
        "Canonical SMILES": "O(CC)[Si](OCC)(OCC)CCCCCCCCCCCC",
        "Molecular Formula": "C<sub>18</sub>H<sub>40</sub>O<sub>3</sub>Si",
        "Molecular Mass": "332.59",
        "Boiling Point": "152-153 °C @ Press: 3 Torr",
        "Density": "0.884 g/cm³ @ Temp: 25 °C"
    }
}