{
    "cas_no": "178488-37-4",
    "key_name": "5-Methylimidazo[1,2-<em>a</em>]pyridine-3-carboxaldehyde",
    "cn_name": null,
    "alternate_name": "Imidazo[1,2-<em>a</em>]pyridine-3-carboxaldehyde, 5-methyl-;5-Methylimidazo[1,2-<em>a</em>]pyridine-3-carboxaldehyde",
    "duplicated_cas_no": "",
    "SMILES": "C(=O)C=1N2C(=NC1)C=CC=C2C",
    "meta_data": {
        "InChI": "InChI=1S/C9H8N2O/c1-7-3-2-4-9-10-5-8(6-12)11(7)9/h2-6H,1H3",
        "InChIKey": null,
        "Canonical SMILES": "O=CC1=CN=C2C=CC=C(N21)C",
        "Molecular Formula": "C<sub>9</sub>H<sub>8</sub>N<sub>2</sub>O",
        "Molecular Mass": "160.17",
        "Melting Point": "117-119 °C"
    }
}