{
    "cas_no": "303-81-1",
    "key_name": "Novobiocin",
    "cn_name": null,
    "alternate_name": "Benzamide, <em>N</em>-[7-[[3-<em>O</em>-(aminocarbonyl)-6-deoxy-5-<em>C</em>-methyl-4-<em>O</em>-methyl-α-<span class=\"text-smallcaps\">L</span>-<em>lyxo</em>-hexopyranosyl]oxy]-4-hydroxy-8-methyl-2-oxo-2<em>H</em>-1-benzopyran-3-yl]-4-hydroxy-3-(3-methyl-2-buten-1-yl)-;Novobiocin;Benzamide, <em>N</em>-[7-[[3-<em>O</em>-(aminocarbonyl)-6-deoxy-5-<em>C</em>-methyl-4-<em>O</em>-methyl-α-<span class=\"text-smallcaps\">L</span>-<em>lyxo</em>-hexopyranosyl]oxy]-4-hydroxy-8-methyl-2-oxo-2<em>H</em>-1-benzopyran-3-yl]-4-hydroxy-3-(3-methyl-2-butenyl)-;Coumarin, 7-[4-(carbamoyloxy)tetrahydro-3-hydroxy-5-methoxy-6,6-dimethylpyran-2-yloxy]-4-hydroxy-3-[4-hydroxy-3-(3-methyl-2-butenyl)benzamido]-8-methyl-;<em>N</em>-[7-[[3-<em>O</em>-(Aminocarbonyl)-6-deoxy-5-<em>C</em>-methyl-4-<em>O</em>-methyl-α-<span class=\"text-smallcaps\">L</span>-<em>lyxo</em>-hexopyranosyl]oxy]-4-hydroxy-8-methyl-2-oxo-2<em>H</em>-1-benzopyran-3-yl]-4-hydroxy-3-(3-methyl-2-buten-1-yl)benzamide;PA 93;Antibiotic PA-93;Cathocin;Crystallinic acid;Novo-R;Streptonivicin;Cathomycin;Albamix;Inamycin;Albamycin;Robiocina;Sirbiocina;Spheromycin;Stilbiocina;Cardelmycin;U 6391;MeSH ID: D009675",
    "duplicated_cas_no": "8028-29-3;47851-17-2;107781-69-1;894408-25-4;1000144-74-0;2244057-52-9",
    "SMILES": "CC1=C2C(C(O)=C(NC(=O)C3=CC(CC=C(C)C)=C(O)C=C3)C(=O)O2)=CC=C1O[C@H]4[C@H](O)[C@H](OC(N)=O)[C@@H](OC)C(C)(C)O4",
    "meta_data": {
        "InChI": "InChI=1S/C31H36N2O11/c1-14(2)7-8-16-13-17(9-11-19(16)34)27(37)33-21-22(35)18-10-12-20(15(3)24(18)42-28(21)38)41-29-23(36)25(43-30(32)39)26(40-6)31(4,5)44-29/h7,9-13,23,25-26,29,34-36H,8H2,1-6H3,(H2,32,39)(H,33,37)/t23-,25+,26-,29-/m1/s1",
        "InChIKey": null,
        "Canonical SMILES": "O=C(OC1C(O)C(OC=2C=CC=3C(O)=C(NC(=O)C4=CC=C(O)C(=C4)CC=C(C)C)C(=O)OC3C2C)OC(C)(C)C1OC)N",
        "Molecular Formula": "C<sub>31</sub>H<sub>36</sub>N<sub>2</sub>O<sub>11</sub>",
        "Molecular Mass": "612.62",
        "Melting Point": "152-154 °C"
    }
}