{
    "cas_no": "402-54-0",
    "key_name": "4-Nitrobenzotrifluoride",
    "cn_name": "4-硝基三氟甲苯;",
    "alternate_name": "Benzene, 1-nitro-4-(trifluoromethyl)-;Toluene, α,α,α-trifluoro-<em>p</em>-nitro-;1-Nitro-4-(trifluoromethyl)benzene;<em>p</em>-Nitrobenzotrifluoride;α,α,α-Trifluoro-<em>p</em>-nitrotoluene;4-(Trifluoromethyl)nitrobenzene;<em>p</em>-Nitro(trifluoromethyl)benzene;<em>p</em>-(Trifluoromethyl)nitrobenzene;4-(Trifluoromethyl)-1-nitrobenzene;4-Nitrobenzotrifluoride;4-Nitro-1-(trifluoromethyl)benzene;NSC 159121;4-Nitro(trifluoromethyl)benzene",
    "duplicated_cas_no": "",
    "SMILES": "C(F)(F)(F)C1=CC=C(N(=O)=O)C=C1",
    "meta_data": {
        "InChI": "InChI=1S/C7H4F3NO2/c8-7(9,10)5-1-3-6(4-2-5)11(12)13/h1-4H",
        "InChIKey": null,
        "Canonical SMILES": "O=N(=O)C1=CC=C(C=C1)C(F)(F)F",
        "Molecular Formula": "C<sub>7</sub>H<sub>4</sub>F<sub>3</sub>NO<sub>2</sub>",
        "Molecular Mass": "191.11",
        "Boiling Point": "82 °C",
        "Melting Point": "39 °C"
    }
}