{
    "cas_no": "533-75-5",
    "key_name": "Tropolone",
    "cn_name": "环庚三烯酚酮;",
    "alternate_name": "2,4,6-Cycloheptatrien-1-one, 2-hydroxy-;Tropolone;2-Hydroxy-2,4,6-cycloheptatrien-1-one;Purpurocatechol;2-Hydroxytropone;α-Tropolone;NSC 89303;2-Hydroxycyclohepta-2,4,6-trienone;MeSH ID: D014334",
    "duplicated_cas_no": "2204257-33-8",
    "SMILES": "O=C1C(O)=CC=CC=C1",
    "meta_data": {
        "InChI": "InChI=1S/C7H6O2/c8-6-4-2-1-3-5-7(6)9/h1-5H,(H,8,9)",
        "InChIKey": null,
        "Canonical SMILES": "O=C1C=CC=CC=C1O",
        "Molecular Formula": "C<sub>7</sub>H<sub>6</sub>O<sub>2</sub>",
        "Molecular Mass": "122.12",
        "Boiling Point": "67-73 °C @ Press: 0.2-0.3 Torr",
        "Melting Point": "50.8 °C"
    }
}