{
    "cas_no": "7681-82-5",
    "key_name": "Sodium iodide",
    "cn_name": "碘化钠;",
    "alternate_name": "Sodium iodide (NaI);Sodium iodide;Ioduril;Sodium monoiodide;Soiodin;Anayodin;NSC 77388;MeSH ID: D012974",
    "duplicated_cas_no": "59216-98-7;61456-04-0",
    "SMILES": "I[Na]",
    "meta_data": {
        "InChI": "InChI=1S/HI.Na/h1H;/q;+1/p-1",
        "InChIKey": null,
        "Canonical SMILES": "[Na]I",
        "Molecular Formula": "INa",
        "Molecular Mass": "",
        "Boiling Point": "1304 °C",
        "Melting Point": "651 °C",
        "Density": "3.67 g/cm³"
    }
}