{
    "cas_no": "116666-63-8",
    "key_name": "Mibefradil dihydrochloride",
    "cn_name": null,
    "alternate_name": "Acetic acid, 2-methoxy-, (1<em>S</em>,2<em>S</em>)-2-[2-[[3-(1<em>H</em>-benzimidazol-2-yl)propyl]methylamino]ethyl]-6-fluoro-1,2,3,4-tetrahydro-1-(1-methylethyl)-2-naphthalenyl ester, hydrochloride (1:2);Acetic acid, methoxy-, 2-[2-[[3-(1<em>H</em>-benzimidazol-2-yl)propyl]methylamino]ethyl]-6-fluoro-1,2,3,4-tetrahydro-1-(1-methylethyl)-2-naphthalenyl ester, dihydrochloride, (1<em>S</em>-<em>cis</em>)-;Acetic acid, methoxy-, (1<em>S</em>,2<em>S</em>)-2-[2-[[3-(1<em>H</em>-benzimidazol-2-yl)propyl]methylamino]ethyl]-6-fluoro-1,2,3,4-tetrahydro-1-(1-methylethyl)-2-naphthalenyl ester, dihydrochloride;Ro 40-5967;Ro 40-5967/001;Mibefradil dihydrochloride;Posicor",
    "duplicated_cas_no": "121039-16-5;153127-38-9",
    "SMILES": "C(CN(CCCC=1NC=2C(N1)=CC=CC2)C)[C@]3(OC(COC)=O)[C@@H]([C@@H](C)C)C=4C(CC3)=CC(F)=CC4.Cl",
    "meta_data": {
        "InChI": "InChI=1S/C29H38FN3O3.2ClH/c1-20(2)28-23-12-11-22(30)18-21(23)13-14-29(28,36-27(34)19-35-4)15-17-33(3)16-7-10-26-31-24-8-5-6-9-25(24)32-26;;/h5-6,8-9,11-12,18,20,28H,7,10,13-17,19H2,1-4H3,(H,31,32);2*1H/t28-,29-;;/m0../s1",
        "InChIKey": null,
        "Canonical SMILES": "Cl.O=C(OC1(CCC2=CC(F)=CC=C2C1C(C)C)CCN(C)CCCC3=NC=4C=CC=CC4N3)COC",
        "Molecular Formula": "C<sub>29</sub>H<sub>38</sub>FN<sub>3</sub>O<sub>3</sub>.2ClH",
        "Molecular Mass": "",
        "Melting Point": "128 °C"
    }
}