{
    "cas_no": "7495-78-5",
    "key_name": "1,4-Diisopropoxybenzene",
    "cn_name": "对二异丙氧基苯;",
    "alternate_name": "Benzene, 1,4-bis(1-methylethoxy)-;Benzene, <em>p</em>-diisopropoxy-;1,4-Bis(1-methylethoxy)benzene;<em>p</em>-Diisopropoxybenzene;1,4-Diisopropoxybenzene;NSC 407768",
    "duplicated_cas_no": "",
    "SMILES": "O(C(C)C)C1=CC=C(OC(C)C)C=C1",
    "meta_data": {
        "InChI": "InChI=1S/C12H18O2/c1-9(2)13-11-5-7-12(8-6-11)14-10(3)4/h5-10H,1-4H3",
        "InChIKey": null,
        "Canonical SMILES": "O(C1=CC=C(OC(C)C)C=C1)C(C)C",
        "Molecular Formula": "C<sub>12</sub>H<sub>18</sub>O<sub>2</sub>",
        "Molecular Mass": "194.27",
        "Boiling Point": "235 °C @ Press: 40 Torr",
        "Density": "1.065 g/cm³ @ Temp: 34 °C"
    }
}