{
    "cas_no": "106-21-8",
    "key_name": "3,7-Dimethyl-1-octanol",
    "cn_name": "3,7-二甲基-1-辛醇;",
    "alternate_name": "1-Octanol, 3,7-dimethyl-;3,7-Dimethyl-1-octanol;Citronellol, dihydro-;Dihydrocitronellol;2,6-Dimethyl-8-octanol;Geraniol, perhydro-;Geraniol, tetrahydro-;Geraniol tetrahydride;Pelargol;Perhydrogeraniol;Tetrahydrogeraniol;3,7-Dimethyloctane-1-ol;(±)-3,7-Dimethyloctan-1-ol;NSC 18917",
    "duplicated_cas_no": "59204-02-3",
    "SMILES": "C(CCCC(C)C)(CCO)C",
    "meta_data": {
        "InChI": "InChI=1S/C10H22O/c1-9(2)5-4-6-10(3)7-8-11/h9-11H,4-8H2,1-3H3",
        "InChIKey": null,
        "Canonical SMILES": "OCCC(C)CCCC(C)C",
        "Molecular Formula": "C<sub>10</sub>H<sub>22</sub>O",
        "Molecular Mass": "158.28",
        "Boiling Point": "115-120 °C @ Press: 15 Torr",
        "Density": "0.852 g/cm³ @ Temp: 18 °C"
    }
}