{
    "cas_no": "611-32-5",
    "key_name": "8-Methylquinoline",
    "cn_name": "8-甲基喹啉;",
    "alternate_name": "Quinoline, 8-methyl-;8-Methylquinoline;NSC 9409",
    "duplicated_cas_no": "",
    "SMILES": "CC=1C2=C(C=CC1)C=CC=N2",
    "meta_data": {
        "InChI": "InChI=1S/C10H9N/c1-8-4-2-5-9-6-3-7-11-10(8)9/h2-7H,1H3",
        "InChIKey": null,
        "Canonical SMILES": "N=1C=CC=C2C=CC=C(C12)C",
        "Molecular Formula": "C<sub>10</sub>H<sub>9</sub>N",
        "Molecular Mass": "143.19",
        "Boiling Point": "247.5 °C",
        "Melting Point": "-80 °C"
    }
}