{
    "cas_no": "96-11-7",
    "key_name": "1,2,3-Tribromopropane",
    "cn_name": "1,2,3-三溴丙烷;",
    "alternate_name": "Propane, 1,2,3-tribromo-;1,2,3-Tribromopropane;Glycerol tribromohydrin;<em>sym</em>-Tribromopropane;NSC 78932",
    "duplicated_cas_no": "",
    "SMILES": "C(CBr)(CBr)Br",
    "meta_data": {
        "InChI": "InChI=1S/C3H5Br3/c4-1-3(6)2-5/h3H,1-2H2",
        "InChIKey": null,
        "Canonical SMILES": "BrCC(Br)CBr",
        "Molecular Formula": "C<sub>3</sub>H<sub>5</sub>Br<sub>3</sub>",
        "Molecular Mass": "280.78",
        "Boiling Point": "222.1 °C",
        "Melting Point": "16.9 °C",
        "Density": "1.4215 g/cm³ @ Temp: 20 °C"
    }
}