{
    "cas_no": "3087-36-3",
    "key_name": "Titanium ethoxide",
    "cn_name": "钛酸乙酯;钛酸四乙酯;四乙氧基钛;",
    "alternate_name": "Ethanol, titanium(4+) salt (4:1);Ethyl alcohol, titanium(4+) salt;Ethyl titanate(IV);Ethanol, titanium(4+) salt;Titanium ethoxide (Ti(OEt)<sub>4</sub>);Titanium, tetraethoxy-;Tetraethyl titanate;Tetraethoxytitanium;Titanium tetraethoxide;Ethyl titanate;Titanium ethoxide;Titanic acid ethyl ester;Tetraethyl orthotitanate;Tetraethyl titanate (Ti(OC<sub>2</sub>H<sub>5</sub>)<sub>4</sub>);Titanium(4+) ethoxide;Titanium tetrakis(ethoxide);Titanium tetraethanolate;Titanium(IV) ethoxide;Titanium ethylate;TEOT;Tyzor ET;Tetrakis(ethanolato)titanium;Titanium, tetraethoxy-, (<em>T</em>-4)-",
    "duplicated_cas_no": "97583-04-5;104814-62-2;260561-26-0;334497-44-8;426266-86-6;753456-54-1;1391846-91-5;2042146-99-4;2146162-29-8;2242883-31-2;2761177-65-3;2981429-32-5",
    "SMILES": "C(C)O.[Ti]",
    "meta_data": {
        "InChI": "InChI=1S/C2H6O.Ti/c1-2-3;/h3H,2H2,1H3;",
        "InChIKey": null,
        "Canonical SMILES": "[Ti].OCC",
        "Molecular Formula": "C<sub>2</sub>H<sub>6</sub>O.<sup>1</sup>/<sub>4</sub>Ti",
        "Molecular Mass": "",
        "Boiling Point": "122 °C @ Press: 1 Torr",
        "Melting Point": "38 °C",
        "Density": "1.107 g/cm³"
    }
}