{
    "cas_no": "127-09-3",
    "key_name": "Sodium acetate",
    "cn_name": "无水醋酸钠;",
    "alternate_name": "Acetic acid, sodium salt (1:1);Sodium acetate;Acetic acid, sodium salt;Anhydrous sodium acetate;Cryotech NAAC;Safeway SD;Protecta Super;Sanmi-Ace 42;Smitey;MeSH ID: D019346;CSN 001",
    "duplicated_cas_no": "325477-99-4;883902-29-2;1613375-15-7;2771312-07-1",
    "SMILES": "C(C)(O)=O.[Na]",
    "meta_data": {
        "InChI": "InChI=1S/C2H4O2.Na/c1-2(3)4;/h1H3,(H,3,4);",
        "InChIKey": null,
        "Canonical SMILES": "[Na].O=C(O)C",
        "Molecular Formula": "C<sub>2</sub>H<sub>4</sub>O<sub>2</sub>.Na",
        "Molecular Mass": "",
        "Melting Point": "324 °C",
        "Density": "1.528 g/cm³"
    }
}