{
    "cas_no": "15440-98-9",
    "key_name": "1-(Hexyloxy)-4-nitrobenzene",
    "cn_name": "1-己氧基-4-硝基苯;",
    "alternate_name": "Benzene, 1-(hexyloxy)-4-nitro-;Ether, hexyl <em>p</em>-nitrophenyl;1-(Hexyloxy)-4-nitrobenzene;4-Hexyloxynitrobenzene;<em>p</em>-Nitrophenyl hexyl ether;Hexyl <em>p</em>-nitrophenyl ether;4-Hexyloxy-1-nitrobenzene;1-Hexyloxy-4-nitrobenzene",
    "duplicated_cas_no": "",
    "SMILES": "O(CCCCCC)C1=CC=C(N(=O)=O)C=C1",
    "meta_data": {
        "InChI": "InChI=1S/C12H17NO3/c1-2-3-4-5-10-16-12-8-6-11(7-9-12)13(14)15/h6-9H,2-5,10H2,1H3",
        "InChIKey": null,
        "Canonical SMILES": "O=N(=O)C1=CC=C(OCCCCCC)C=C1",
        "Molecular Formula": "C<sub>12</sub>H<sub>17</sub>NO<sub>3</sub>",
        "Molecular Mass": "223.27",
        "Boiling Point": "170-174 °C @ Press: 5 Torr"
    }
}