{
    "cas_no": "634-36-6",
    "key_name": "1,2,3-Trimethoxybenzene",
    "cn_name": "1,2,3―三甲氧基苯;",
    "alternate_name": "Benzene, 1,2,3-trimethoxy-;1,2,3-Trimethoxybenzene;Methylsyringol;Pyrogallol trimethyl ether;Tri-<em>O</em>-methylpyrogallol;3,4,5-Trimethoxybenzole;NSC 10124;Pyrogallol trimethoxy ether;1,2,6-Trimethoxybenzene",
    "duplicated_cas_no": "",
    "SMILES": "O(C)C1=C(OC)C=CC=C1OC",
    "meta_data": {
        "InChI": "InChI=1S/C9H12O3/c1-10-7-5-4-6-8(11-2)9(7)12-3/h4-6H,1-3H3",
        "InChIKey": null,
        "Canonical SMILES": "O(C1=CC=CC(OC)=C1OC)C",
        "Molecular Formula": "C<sub>9</sub>H<sub>12</sub>O<sub>3</sub>",
        "Molecular Mass": "168.19",
        "Boiling Point": "235 °C",
        "Melting Point": "48.5 °C"
    }
}