{
    "cas_no": "110193-60-7",
    "key_name": "Ethyl α-oxo-3-(trifluoromethyl)benzeneacetate",
    "cn_name": null,
    "alternate_name": "Benzeneacetic acid, α-oxo-3-(trifluoromethyl)-, ethyl ester;Ethyl α-oxo-3-(trifluoromethyl)benzeneacetate;2-(3-Trifluoromethylphenyl)-2-oxoacetic acid ethyl ester",
    "duplicated_cas_no": "",
    "SMILES": "C(C(OCC)=O)(=O)C1=CC(C(F)(F)F)=CC=C1",
    "meta_data": {
        "InChI": "InChI=1S/C11H9F3O3/c1-2-17-10(16)9(15)7-4-3-5-8(6-7)11(12,13)14/h3-6H,2H2,1H3",
        "InChIKey": null,
        "Canonical SMILES": "O=C(OCC)C(=O)C1=CC=CC(=C1)C(F)(F)F",
        "Molecular Formula": "C<sub>11</sub>H<sub>9</sub>F<sub>3</sub>O<sub>3</sub>",
        "Molecular Mass": "246.18",
        "Boiling Point": "117-119 °C @ Press: 5 Torr",
        "Melting Point": "120-122 °C",
        "Density": "1.2606 g/cm³ @ Temp: 20 °C"
    }
}