{
    "cas_no": "108-70-3",
    "key_name": "1,3,5-Trichlorobenzene",
    "cn_name": "1,3,5-三氯苯;",
    "alternate_name": "Benzene, 1,3,5-trichloro-;1,3,5-Trichlorobenzene;<em>sym</em>-Trichlorobenzene;<em>s</em>-Trichlorobenzene;Symmetrical trichlorobenzene;NSC 4389",
    "duplicated_cas_no": "",
    "SMILES": "ClC1=CC(Cl)=CC(Cl)=C1",
    "meta_data": {
        "InChI": "InChI=1S/C6H3Cl3/c7-4-1-5(8)3-6(9)2-4/h1-3H",
        "InChIKey": null,
        "Canonical SMILES": "ClC=1C=C(Cl)C=C(Cl)C1",
        "Molecular Formula": "C<sub>6</sub>H<sub>3</sub>Cl<sub>3</sub>",
        "Molecular Mass": "181.45",
        "Boiling Point": "208 °C @ Press: 763 Torr",
        "Melting Point": "63.5 °C",
        "Density": "1 x 10<sup>-6</sup> g/cm³ @ Temp: 100 °C"
    }
}