{
    "cas_no": "1968-05-4",
    "key_name": "3,3′-Diindolylmethane",
    "cn_name": "3,3\"-二吲哚甲烷;",
    "alternate_name": "1<em>H</em>-Indole, 3,3′-methylenebis-;Indole, 3,3′-methylenedi-;3,3′-Methylenebis[1<em>H</em>-indole];3,3′-Diindolylmethane;3,3′-Bisindolylmethane;Arundine;Bis(3-indolyl)methane;HB 236;Bis(1<em>H</em>-indol-3-yl)methane;DIM (AhR agonist);DIM (diindolylmethane);Cervicon-DIM;Infemin;Diindolylmethane;Di(1<em>H</em>-indol-3-yl)methane;DIM;3,3′-Methanediyldi(1<em>H</em>-indole);3-[(1<em>H</em>-Indol-3-yl)methyl]-1<em>H</em>-indole",
    "duplicated_cas_no": "",
    "SMILES": "C(C=1C=2C(NC1)=CC=CC2)C=3C=4C(NC3)=CC=CC4",
    "meta_data": {
        "InChI": "InChI=1S/C17H14N2/c1-3-7-16-14(5-1)12(10-18-16)9-13-11-19-17-8-4-2-6-15(13)17/h1-8,10-11,18-19H,9H2",
        "InChIKey": null,
        "Canonical SMILES": "C=1C=CC2=C(C1)NC=C2CC3=CNC=4C=CC=CC43",
        "Molecular Formula": "C<sub>17</sub>H<sub>14</sub>N<sub>2</sub>",
        "Molecular Mass": "246.31",
        "Boiling Point": "~230 °C (approx) @ Press: 0.01 Torr",
        "Melting Point": "167 °C"
    }
}