{
    "cas_no": "194423-15-9",
    "key_name": "PD 168393",
    "cn_name": null,
    "alternate_name": "2-Propenamide, <em>N</em>-[4-[(3-bromophenyl)amino]-6-quinazolinyl]-;<em>N</em>-[4-[(3-Bromophenyl)amino]-6-quinazolinyl]-2-propenamide;PD 168393",
    "duplicated_cas_no": "",
    "SMILES": "N(C=1C2=C(C=CC(NC(C=C)=O)=C2)N=CN1)C3=CC(Br)=CC=C3",
    "meta_data": {
        "InChI": "InChI=1S/C17H13BrN4O/c1-2-16(23)21-13-6-7-15-14(9-13)17(20-10-19-15)22-12-5-3-4-11(18)8-12/h2-10H,1H2,(H,21,23)(H,19,20,22)",
        "InChIKey": null,
        "Canonical SMILES": "O=C(C=C)NC=1C=CC2=NC=NC(NC=3C=CC=C(Br)C3)=C2C1",
        "Molecular Formula": "C<sub>17</sub>H<sub>13</sub>BrN<sub>4</sub>O",
        "Molecular Mass": "369.22",
        "Melting Point": "279 °C"
    }
}