{
    "cas_no": "29342-05-0",
    "key_name": "Ciclopirox",
    "cn_name": null,
    "alternate_name": "2(1<em>H</em>)-Pyridinone, 6-cyclohexyl-1-hydroxy-4-methyl-;2(1<em>H</em>)-Pyridone, 6-cyclohexyl-1-hydroxy-4-methyl-;6-Cyclohexyl-1-hydroxy-4-methyl-2(1<em>H</em>)-pyridinone;Ciclopirox;HOE 296b;Penlac;1-Hydroxy-4-methyl-6-cyclohexyl-2-pyridinone;Ciclopoli",
    "duplicated_cas_no": "859173-87-8",
    "SMILES": "ON1C(=CC(C)=CC1=O)C2CCCCC2",
    "meta_data": {
        "InChI": "InChI=1S/C12H17NO2/c1-9-7-11(13(15)12(14)8-9)10-5-3-2-4-6-10/h7-8,10,15H,2-6H2,1H3",
        "InChIKey": null,
        "Canonical SMILES": "O=C1C=C(C=C(N1O)C2CCCCC2)C",
        "Molecular Formula": "C<sub>12</sub>H<sub>17</sub>NO<sub>2</sub>",
        "Molecular Mass": "207.27",
        "Melting Point": "144 °C"
    }
}