{
    "cas_no": "527-17-3",
    "key_name": "Duroquinone",
    "cn_name": "2,3,5,6-四甲基1,4-苯醌;",
    "alternate_name": "2,5-Cyclohexadiene-1,4-dione, 2,3,5,6-tetramethyl-;<em>p</em>-Benzoquinone, 2,3,5,6-tetramethyl-;<em>p</em>-Benzoquinone, tetramethyl-, semiquinone;<em>p</em>-Benzoquinone, tetramethyl-;2,3,5,6-Tetramethyl-2,5-cyclohexadiene-1,4-dione;Duroquinone;Tetramethyl-<em>p</em>-benzoquinone;2,3,5,6-Tetramethyl-1,4-benzoquinone;2,3,5,6-Tetramethylbenzoquinone;2,3,5,6-Tetramethyl-<em>p</em>-benzoquinone;Tetramethylquinone;Tetramethyl-1,4-benzoquinone;Tetramethyl-<em>p</em>-quinone;TMQ;Tetramethylbenzoquinone;NSC 2068",
    "duplicated_cas_no": "",
    "SMILES": "CC1=C(C)C(=O)C(C)=C(C)C1=O",
    "meta_data": {
        "InChI": "InChI=1S/C10H12O2/c1-5-6(2)10(12)8(4)7(3)9(5)11/h1-4H3",
        "InChIKey": null,
        "Canonical SMILES": "O=C1C(=C(C(=O)C(=C1C)C)C)C",
        "Molecular Formula": "C<sub>10</sub>H<sub>12</sub>O<sub>2</sub>",
        "Molecular Mass": "164.20",
        "Melting Point": "111.5 °C"
    }
}