{
    "cas_no": "85-06-3",
    "key_name": "3-Methylbenzo[<em>f</em>]quinoline",
    "cn_name": "3-甲基苯-5,6-喹啉;",
    "alternate_name": "Benzo[<em>f</em>]quinoline, 3-methyl-;3-Methylbenzo[<em>f</em>]quinoline;β-Naphthoquinaldine;NSC 43316;NSC 4999",
    "duplicated_cas_no": "",
    "SMILES": "CC1=NC=2C(=C3C(=CC2)C=CC=C3)C=C1",
    "meta_data": {
        "InChI": "InChI=1S/C14H11N/c1-10-6-8-13-12-5-3-2-4-11(12)7-9-14(13)15-10/h2-9H,1H3",
        "InChIKey": null,
        "Canonical SMILES": "N=1C2=CC=C3C=CC=CC3=C2C=CC1C",
        "Molecular Formula": "C<sub>14</sub>H<sub>11</sub>N",
        "Molecular Mass": "193.24",
        "Boiling Point": "214-215 °C @ Press: 21 Torr",
        "Melting Point": "82-83 °C"
    }
}