{
    "cas_no": "108-90-7",
    "key_name": "Chlorobenzene",
    "cn_name": "氯苯;一氯代苯;",
    "alternate_name": "Benzene, chloro-;Chlorobenzene;MCB;Monochlorobenzene;Phenyl chloride;Tetrosin SP;IP Carrier T 40;CP 27;NSC 8433;Chlorobenezene",
    "duplicated_cas_no": "50717-45-8",
    "SMILES": "ClC1=CC=CC=C1",
    "meta_data": {
        "InChI": "InChI=1S/C6H5Cl/c7-6-4-2-1-3-5-6/h1-5H",
        "InChIKey": null,
        "Canonical SMILES": "ClC=1C=CC=CC1",
        "Molecular Formula": "C<sub>6</sub>H<sub>5</sub>Cl",
        "Molecular Mass": "112.56",
        "Boiling Point": "131.7 °C",
        "Melting Point": "-45.2 °C",
        "Density": "1.1058 g/cm³ @ Temp: 20 °C"
    }
}