{
    "cas_no": "977-96-8",
    "key_name": "Pseudoisocyanine",
    "cn_name": "1,1-二乙基-2,2-碘化氰;",
    "alternate_name": "Quinolinium, 1-ethyl-2-[(1-ethyl-2(1<em>H</em>)-quinolinylidene)methyl]-, iodide (1:1);Quinolinium, 1-ethyl-2-[(1-ethyl-2(1<em>H</em>)-quinolylidene)methyl]-, iodide;Quinolinium, 1-ethyl-2-[(1-ethyl-2(1<em>H</em>)-quinolinylidene)methyl]-, iodide;1-Ethyl-2-[(1-ethyl-4(1<em>H</em>)-quinolylidene)methyl]quinolinium iodide;1-Ethyl-2-[(1-ethyl-2(1<em>H</em>)-quinolylidene)methyl]quinolinium iodide;1,1′-Diethyl-2,2′-cyanine iodide;1,1′-Diethyl-2,2′-quinocyanine iodide;2,2′-Quinocyanine iodide;Pseudoisocyanin;<em>N</em>,<em>N</em>′-Diethylpseudoisocyanine iodide;Pseudoisocyanine;Pseudoisocyanine iodide;Diethylcyanine iodide;Eastman 7851;1,1′-Diethyl-2,2′-diquinocyanine iodide;<em>pseudo</em>-Isocyanine iodide;Decynium 22;PICI",
    "duplicated_cas_no": "188653-03-4",
    "SMILES": "C(C)N1C=2C(C=CC1=CC3=[N+](CC)C4=C(C=C3)C=CC=C4)=CC=CC2.[I-]",
    "meta_data": {
        "InChI": "InChI=1S/C23H23N2.HI/c1-3-24-20(15-13-18-9-5-7-11-22(18)24)17-21-16-14-19-10-6-8-12-23(19)25(21)4-2;/h5-17H,3-4H2,1-2H3;1H/q+1;/p-1",
        "InChIKey": null,
        "Canonical SMILES": "[I-].C=1C=CC2=C(C1)C=CC(=CC=3C=CC=4C=CC=CC4[N+]3CC)N2CC",
        "Molecular Formula": "C<sub>23</sub>H<sub>23</sub>N<sub>2</sub>.I",
        "Molecular Mass": "",
        "Melting Point": "265 °C (decomp)"
    }
}