{
    "cas_no": "4131-74-2",
    "key_name": "Dimethyl 3,3′-thiodipropionate",
    "cn_name": "3,3\"-硫代二丙酸二甲酯;",
    "alternate_name": "Propanoic acid, 3,3′-thiobis-, 1,1′-dimethyl ester;Propanoic acid, 3,3′-thiobis-, dimethyl ester;Propionic acid, 3,3′-thiodi-, dimethyl ester;Dimethyl 3,3′-thiodipropionate;Dimethyl thiodipropionate;Thiodipropionic acid dimethyl ester;Bis(2-methoxycarbonylethyl) sulfide;β,β′-Dicarbomethoxydiethyl sulfide;3,3′-Thiobis(methyl propionate);NSC 2244;NSC 35224;Mark 5152",
    "duplicated_cas_no": "54779-12-3;1012338-39-4",
    "SMILES": "C(CSCCC(OC)=O)C(OC)=O",
    "meta_data": {
        "InChI": "InChI=1S/C8H14O4S/c1-11-7(9)3-5-13-6-4-8(10)12-2/h3-6H2,1-2H3",
        "InChIKey": null,
        "Canonical SMILES": "O=C(OC)CCSCCC(=O)OC",
        "Molecular Formula": "C<sub>8</sub>H<sub>14</sub>O<sub>4</sub>S",
        "Molecular Mass": "206.26",
        "Boiling Point": "148.5-149 °C @ Press: 8 Torr",
        "Density": "1.156 g/cm³ @ Temp: 20 °C"
    }
}