{
    "cas_no": "121554-10-7",
    "key_name": "5-Bromo-2-iodobenzonitrile",
    "cn_name": "5-溴-2-碘苯甲腈;",
    "alternate_name": "Benzonitrile, 5-bromo-2-iodo-;5-Bromo-2-iodobenzonitrile;2-Iodo-5-bromobenzonitrile",
    "duplicated_cas_no": "",
    "SMILES": "C(#N)C1=C(I)C=CC(Br)=C1",
    "meta_data": {
        "InChI": "InChI=1S/C7H3BrIN/c8-6-1-2-7(9)5(3-6)4-10/h1-3H",
        "InChIKey": null,
        "Canonical SMILES": "N#CC1=CC(Br)=CC=C1I",
        "Molecular Formula": "C<sub>7</sub>H<sub>3</sub>BrIN",
        "Molecular Mass": "307.91",
        "Melting Point": "123-124 °C"
    }
}