{
    "cas_no": "628-89-7",
    "key_name": "2-(Chloroethoxy)ethanol",
    "cn_name": "2-氯乙氧基乙醇;",
    "alternate_name": "Ethanol, 2-(2-chloroethoxy)-;2-(2-Chloroethoxy)ethanol;Diglycol chlorohydrin;5-Chloro-3-oxa-1-pentanol;2-Chloroethyl 2-hydroxyethyl ether;Diethylene glycol monochlorohydrin;2-(2′-Chloroethoxy)ethanol;2-(2-Hydroxyethoxy)ethyl chloride;2-(Chloroethoxy)ethanol;Ethylene glycol mono(2-chloroethyl) ether;NSC 2648;2-[(2-Chloroethyl)oxy]ethanol;2-(2-Chloroethoxy)ethan-1-ol",
    "duplicated_cas_no": "",
    "SMILES": "O(CCCl)CCO",
    "meta_data": {
        "InChI": "InChI=1S/C4H9ClO2/c5-1-3-7-4-2-6/h6H,1-4H2",
        "InChIKey": null,
        "Canonical SMILES": "ClCCOCCO",
        "Molecular Formula": "C<sub>4</sub>H<sub>9</sub>ClO<sub>2</sub>",
        "Molecular Mass": "124.57",
        "Boiling Point": "91-92 °C @ Press: 13 Torr"
    }
}