{
    "cas_no": "3438-16-2",
    "key_name": "5-Chloro-2-methoxybenzoic acid",
    "cn_name": "5-氯-2-甲氧基苯甲酸;",
    "alternate_name": "Benzoic acid, 5-chloro-2-methoxy-;<em>o</em>-Anisic acid, 5-chloro-;5-Chloro-2-methoxybenzoic acid;2-Methoxy-5-chlorobenzoic acid;5-Chloro-<em>o</em>-anisic acid",
    "duplicated_cas_no": "",
    "SMILES": "C(O)(=O)C1=C(OC)C=CC(Cl)=C1",
    "meta_data": {
        "InChI": "InChI=1S/C8H7ClO3/c1-12-7-3-2-5(9)4-6(7)8(10)11/h2-4H,1H3,(H,10,11)",
        "InChIKey": null,
        "Canonical SMILES": "O=C(O)C1=CC(Cl)=CC=C1OC",
        "Molecular Formula": "C<sub>8</sub>H<sub>7</sub>ClO<sub>3</sub>",
        "Molecular Mass": "186.59",
        "Melting Point": "82 °C"
    }
}