{
    "cas_no": "13431-36-2",
    "key_name": "4-Isopropylthiosemicarbazide",
    "cn_name": "4-异丙基-3-氨基硫脲;",
    "alternate_name": "Hydrazinecarbothioamide, <em>N</em>-(1-methylethyl)-;Semicarbazide, 4-isopropyl-3-thio-;<em>N</em>-(1-Methylethyl)hydrazinecarbothioamide;B 1132;4-Isopropylthiosemicarbazide;4-Isopropyl-3-thiosemicarbazide;1-Amino-3-isopropylthiourea;1-Amino-3-propan-2-ylthiourea;3-Amino-1-(propan-2-yl)thiourea",
    "duplicated_cas_no": "",
    "SMILES": "C(NC(C)C)(NN)=S",
    "meta_data": {
        "InChI": "InChI=1S/C4H11N3S/c1-3(2)6-4(8)7-5/h3H,5H2,1-2H3,(H2,6,7,8)",
        "InChIKey": null,
        "Canonical SMILES": "S=C(NN)NC(C)C",
        "Molecular Formula": "C<sub>4</sub>H<sub>11</sub>N<sub>3</sub>S",
        "Molecular Mass": "133.22",
        "Melting Point": "82-83 °C"
    }
}