{
    "cas_no": "111-40-0",
    "key_name": "Diethylenetriamine",
    "cn_name": "二乙烯三胺;N-(2-氨基乙基)-1,2-乙二胺;二乙撑三胺;DETA;",
    "alternate_name": "1,2-Ethanediamine, <em>N</em><sup>1</sup>-(2-aminoethyl)-;Diethylenetriamine;1,2-Ethanediamine, <em>N</em>-(2-aminoethyl)-;<em>N</em><sup>1</sup>-(2-Aminoethyl)-1,2-ethanediamine;3-Azapentane-1,5-diamine;Bis(β-aminoethyl)amine;2,2′-Diaminodiethylamine;Bis(2-aminoethyl)amine;<em>N</em>,<em>N</em>-Bis(2-aminoethyl)amine;1,4,7-Triazaheptane;1,5-Diamino-3-azapentane;<em>N</em>-(2-Aminoethyl)-1,2-ethanediamine;ChS-P 1;<em>N</em>-(2-Aminoethyl)ethylenediamine;2,2′-Iminobis(ethanamine);2-(2-Aminoethylamino)ethylamine;DEH 20;H 9506;Ancamine DETA;Epon 3223;Epicure T;DETA;NSC 446;NCI 138881;Epicure 3223;JER Cure T;JER-T;Epicure 3290;P 11 (crosslinking agent);P 11;3-Azapentanediyl-1,5-diamine;D 93856;ChS-P 11;FS-B 412;Epikure 3223;N1-(2-Aminoethyl)ethane-1,2-diamine;Amosil 4H;D 1551;Aradur HY 950BR;ChS Hardener P 11;D 0493",
    "duplicated_cas_no": "8076-55-9;26915-78-6;53303-76-7;54018-92-7;59135-90-9;73989-30-7;94700-17-1;98824-35-2;203009-17-0;419553-44-9;859039-00-2;1078151-43-5;1380230-30-7;1801663-13-7",
    "SMILES": "N(CCN)CCN",
    "meta_data": {
        "InChI": "InChI=1S/C4H13N3/c5-1-3-7-4-2-6/h7H,1-6H2",
        "InChIKey": null,
        "Canonical SMILES": "NCCNCCN",
        "Molecular Formula": "C<sub>4</sub>H<sub>13</sub>N<sub>3</sub>",
        "Molecular Mass": "103.17",
        "Boiling Point": "207 °C @ Press: 760 Torr",
        "Melting Point": "-39 °C",
        "Density": "0.9586 g/cm³ @ Temp: 20 °C"
    }
}