{
    "cas_no": "4192-90-9",
    "key_name": "Trilobatin",
    "cn_name": null,
    "alternate_name": "1-Propanone, 1-[4-(β-<span class=\"text-smallcaps\">D</span>-glucopyranosyloxy)-2,6-dihydroxyphenyl]-3-(4-hydroxyphenyl)-;<em>p</em>-Phlorizin;1-[4-(β-<span class=\"text-smallcaps\">D</span>-Glucopyranosyloxy)-2,6-dihydroxyphenyl]-3-(4-hydroxyphenyl)-1-propanone;<em>p</em>-Phloridzin;Prunin dihydrochalcone;Trilobatin;Phloretin 4′-glucoside;Phloretine-4′-glucoside;Phloretin 4′-β-<span class=\"text-smallcaps\">D</span>-glucoside;Phloretin-4′-<em>O</em>-β-<span class=\"text-smallcaps\">D</span>-glucopyranoside;Phloretin-4-<em>O</em>-glycoside",
    "duplicated_cas_no": "11024-91-2;20545-62-4",
    "SMILES": "C(CCC1=CC=C(O)C=C1)(=O)C2=C(O)C=C(O[C@@H]3O[C@H](CO)[C@@H](O)[C@H](O)[C@H]3O)C=C2O",
    "meta_data": {
        "InChI": "InChI=1S/C21H24O10/c22-9-16-18(27)19(28)20(29)21(31-16)30-12-7-14(25)17(15(26)8-12)13(24)6-3-10-1-4-11(23)5-2-10/h1-2,4-5,7-8,16,18-23,25-29H,3,6,9H2/t16-,18-,19+,20-,21-/m1/s1",
        "InChIKey": null,
        "Canonical SMILES": "O=C(C1=C(O)C=C(OC2OC(CO)C(O)C(O)C2O)C=C1O)CCC3=CC=C(O)C=C3",
        "Molecular Formula": "C<sub>21</sub>H<sub>24</sub>O<sub>10</sub>",
        "Molecular Mass": "436.41",
        "Melting Point": "170-173 °C"
    }
}