{
    "cas_no": "999-55-3",
    "key_name": "Allyl acrylate",
    "cn_name": "丙烯酸烯丙酯90%;丙烯酸烯丙酯;",
    "alternate_name": "2-Propenoic acid, 2-propen-1-yl ester;Acrylic acid, allyl ester;2-Propenoic acid, 2-propenyl ester;Allyl alcohol, acrylate;Allyl acrylate;Allyl 2-propenoate;NSC 20945",
    "duplicated_cas_no": "",
    "SMILES": "C(OCC=C)(C=C)=O",
    "meta_data": {
        "InChI": "InChI=1S/C6H8O2/c1-3-5-8-6(7)4-2/h3-4H,1-2,5H2",
        "InChIKey": null,
        "Canonical SMILES": "O=C(OCC=C)C=C",
        "Molecular Formula": "C<sub>6</sub>H<sub>8</sub>O<sub>2</sub>",
        "Molecular Mass": "112.13",
        "Boiling Point": "122 °C @ Press: 760 Torr",
        "Density": "0.9441 g/cm³ @ Temp: 20 °C"
    }
}