{
    "cas_no": "5329-29-3",
    "key_name": "Carbonohydrazonic dihydrazide, hydrochloride (1:1)",
    "cn_name": null,
    "alternate_name": "Carbonohydrazonic dihydrazide, hydrochloride (1:1);Guanidine, 1,2,3-triamino-, monohydrochloride;Carbonohydrazonic dihydrazide, monohydrochloride;Triaminoguanidine hydrochloride;1,2,3-Triaminoguanidinium chloride;Triaminoguanidinium chloride;Triaminoguanidine monohydrochloride;1,2,3-Triaminoguanidine hydrochloride",
    "duplicated_cas_no": "1797420-22-4;1992754-77-4;2135433-14-4",
    "SMILES": "C(=NN)(NN)NN.Cl",
    "meta_data": {
        "InChI": "InChI=1S/CH8N6.ClH/c2-5-1(6-3)7-4;/h2-4H2,(H2,5,6,7);1H",
        "InChIKey": null,
        "Canonical SMILES": "Cl.N(N)=C(NN)NN",
        "Molecular Formula": "CH<sub>8</sub>N<sub>6</sub>.ClH",
        "Molecular Mass": "",
        "Melting Point": "234-236 °C"
    }
}