{
    "cas_no": "7417-99-4",
    "key_name": "4,4′-Bis(ethyleneiminocarbonylamino)diphenylmethane",
    "cn_name": "N,N\"-(亚甲基-4,1-二亚苯基)二-1-氮杂环丙酰胺;",
    "alternate_name": "1-Aziridinecarboxamide, <em>N</em>,<em>N</em>′-(methylenedi-4,1-phenylene)bis-;1-Aziridinecarboxanilide, 4′,4′′′-methylenebis-;<em>N</em>,<em>N</em>′-(Methylenedi-4,1-phenylene)bis[1-aziridinecarboxamide];Diphenylmethane-4,4′-bis(ethyleneurea);<em>p</em>,<em>p</em>′-Bis(ethyleneureido)diphenylmethane;4,4′-Bis(3,3-ethyleneureido)diphenylmethane;Diphenylmethane-4,4′-bis(<em>N</em>,<em>N</em>-ethyleneurea);4,4′-Bis(<em>N</em>′,<em>N</em>′-ethyleneureido)diphenylmethane;<em>N</em>,<em>N</em>′-(Methylenedi-4,1-phenylene)bis(1-aziridinecarboxamide);4,4′-Diphenylmethanebis(ethyleneurea);Diphenylmethane 4,4′-diethyleneurea;FS 50;4,4′-Bis(ethyleneiminocarbonylamino)diphenylmethane;Chemitite DZ 22;Millionate MEW;Chemitite DZ 22E;Chemitite DZ 22N;DZ 22;Millionate MEW-A;FS 50 (crosslinking agent);Diphenylmethane-4,4′-bis(<em>N</em>,<em>N</em>-diethyleneurea);NSC 26234;SU 125F;XC 205;4,4′-Methylene bis(phenyl-<em>N</em>,<em>N</em>-ethyleneurea);DZ 22E;<em>N</em>,<em>N</em>′-(Methylene di-<em>p</em>-phenylene)bis(aziridine-1-carboxamide);HDU-P 25",
    "duplicated_cas_no": "65597-18-4;70595-26-5;96353-56-9;123113-53-1",
    "SMILES": "C(NC1=CC=C(CC2=CC=C(NC(=O)N3CC3)C=C2)C=C1)(=O)N4CC4",
    "meta_data": {
        "InChI": "InChI=1S/C19H20N4O2/c24-18(22-9-10-22)20-16-5-1-14(2-6-16)13-15-3-7-17(8-4-15)21-19(25)23-11-12-23/h1-8H,9-13H2,(H,20,24)(H,21,25)",
        "InChIKey": null,
        "Canonical SMILES": "O=C(NC1=CC=C(C=C1)CC2=CC=C(C=C2)NC(=O)N3CC3)N4CC4",
        "Molecular Formula": "C<sub>19</sub>H<sub>20</sub>N<sub>4</sub>O<sub>2</sub>",
        "Molecular Mass": "336.39",
        "Melting Point": "168-169 °C"
    }
}