{
    "cas_no": "2182-14-1",
    "key_name": "(-)-Vindoline",
    "cn_name": "文多灵;文朵灵;",
    "alternate_name": "Aspidospermidine-3-carboxylic acid, 4-(acetyloxy)-6,7-didehydro-3-hydroxy-16-methoxy-1-methyl-, methyl ester, (2β,3β,4β,5α,12<em>R</em>,19α)-;Vindoline, (-)-;Aspidospermidine-3-carboxylic acid, 4-(acetyloxy)-6,7-didehydro-3-hydroxy-16-methoxy-1-methyl-, methyl ester, (2β,3β,4β,5α,12β,19α)-;1<em>H</em>-Indolizino[8,1-<em>cd</em>]carbazole, aspidospermidine-3-carboxylic acid deriv.;Vindolin;(-)-Vindoline;Vindoline;NSC 91994",
    "duplicated_cas_no": "7616-06-0",
    "SMILES": "C(C)[C@@]12[C@]3([C@@]4([C@]([C@](C(OC)=O)(O)[C@@H]1OC(C)=O)(N(C)C=5C4=CC=C(OC)C5)[H])CCN3CC=C2)[H]",
    "meta_data": {
        "InChI": "InChI=1S/C25H32N2O6/c1-6-23-10-7-12-27-13-11-24(19(23)27)17-9-8-16(31-4)14-18(17)26(3)20(24)25(30,22(29)32-5)21(23)33-15(2)28/h7-10,14,19-21,30H,6,11-13H2,1-5H3/t19-,20+,21+,23+,24+,25-/m0/s1",
        "InChIKey": null,
        "Canonical SMILES": "O=C(OC1C(O)(C(=O)OC)C2N(C3=CC(OC)=CC=C3C42CCN5CC=CC1(CC)C54)C)C",
        "Molecular Formula": "C<sub>25</sub>H<sub>32</sub>N<sub>2</sub>O<sub>6</sub>",
        "Molecular Mass": "456.53",
        "Melting Point": "164-165 °C"
    }
}