{
    "cas_no": "7723-14-0",
    "key_name": "Phosphorus",
    "cn_name": "红磷;黄磷;",
    "alternate_name": "Phosphorus;Phosphorus-31;Exolit VPK-n 361;Exolit LPKN 275;Exolit 405;Novared 120UF;Hishigado CP;Novared 280;Novared 120UFA;Hishigado NP 10;Hishigado AP;Novaexcel 150;Exolit 385;Nova Sol R 20;Hishigado;Novaexcel 140;Novaexcel ST 140;Novared C 120;Novaexcel ST 100;Amgard CPC 405;Hostaflam RP 614;Hostaflam RP 622;Novaexcel F 5;Novared 120VFA;Hostaflam RP 654;Hostaflam RP 602;Masteret 70450;Amgard CPC;Exolit RP 650;Exolit RP 652;Exolit RP 605;Novared 140;Exolit RP 654;RP 654;Novared F 5;NVE 140;FR-T 2;FR-T 2 (element);Novaexcel ST 300;Hishigado PL;Exolit PR 602;Black phosphorus;Novared 120F;FR 120UFA;120UFA;Hishigado TP-A 10;RP 614;Novared 1200;Hishigado White LP;PX 140;Exolit RP 694;Hishigado EL-Z;Exolit RP 695;Exolit RP 689;Exolit RP 6500;Nova Quell;<sup>31</sup>P;Novaexcel 140F;RPM 540B;FR-P;RPM 650;Exolit RP 683;Safest A;Hishigado LP-F;Hishigado LP-E;FRW 30;Exolit RP 607;HB 701;RPM 440;FRP 1500;HP 1250;Rinka FE 140F;FRP 52;440T;FRP 950-9;FR 120;NC 701;Hishigado TP 10F;440B;FR 4140R;KPP 340;RPM 340B;TYB 300E;SD 102;FR 350;RP 607;RP;Nova Quell ST 100;Rednic 30450N3;FRP 950X;WBH 1500;KSC 30RP;RL-EP;F 2;XF 207;CPS-X 50;AT 700;FR 4140BK;RPM 450;RPM 440W;340B;MM-F 1;FR 9950KF;HT 2951;FSE-M 2002;WQ 12;FR 9240;RPM 440YK;Safest B 2XF;MM-F 2;DY 114PEET;MeSH ID: D010758;Masteret 80450;FSE-M 1001;HDFRMB 40;HDFRMB 65BK;FRP 301",
    "duplicated_cas_no": "29879-37-6",
    "SMILES": "[P]",
    "meta_data": {
        "InChI": "InChI=1S/P",
        "InChIKey": null,
        "Canonical SMILES": "[P]",
        "Molecular Formula": "P",
        "Molecular Mass": "",
        "Boiling Point": "280 °C",
        "Melting Point": "44.1 °C",
        "Density": "1.83 g/cm³"
    }
}