{
    "cas_no": "13190-97-1",
    "key_name": "Solanesol",
    "cn_name": "茄尼醇;茄呢醇;九聚异戌二烯醇;",
    "alternate_name": "2,6,10,14,18,22,26,30,34-Hexatriacontanonaen-1-ol, 3,7,11,15,19,23,27,31,35-nonamethyl-, (2<em>E</em>,6<em>E</em>,10<em>E</em>,14<em>E</em>,18<em>E</em>,22<em>E</em>,26<em>E</em>,30<em>E</em>)-;2,6,10,14,18,22,26,30,34-Hexatriacontanonaen-1-ol, 3,7,11,15,19,23,27,31,35-nonamethyl-, (<em>all</em>-<em>E</em>)-;(2<em>E</em>,6<em>E</em>,10<em>E</em>,14<em>E</em>,18<em>E</em>,22<em>E</em>,26<em>E</em>,30<em>E</em>)-3,7,11,15,19,23,27,31,35-Nonamethyl-2,6,10,14,18,22,26,30,34-hexatriacontanonaen-1-ol;Solanesol;Nonaisoprenol;Farnesylfarnesylfarnesol",
    "duplicated_cas_no": "111820-07-6;540-03-4",
    "SMILES": "C(=C/CC/C(=C/CC/C(=C/CC/C(=C/CC/C(=C/CO)/C)/C)/C)/C)(\\CC/C=C(/CC/C=C(/CC/C=C(/CCC=C(C)C)\\C)\\C)\\C)/C",
    "meta_data": {
        "InChI": "InChI=1S/C45H74O/c1-37(2)19-11-20-38(3)21-12-22-39(4)23-13-24-40(5)25-14-26-41(6)27-15-28-42(7)29-16-30-43(8)31-17-32-44(9)33-18-34-45(10)35-36-46/h19,21,23,25,27,29,31,33,35,46H,11-18,20,22,24,26,28,30,32,34,36H2,1-10H3/b38-21+,39-23+,40-25+,41-27+,42-29+,43-31+,44-33+,45-35+",
        "InChIKey": null,
        "Canonical SMILES": "OCC=C(C)CCC=C(C)CCC=C(C)CCC=C(C)CCC=C(C)CCC=C(C)CCC=C(C)CCC=C(C)CCC=C(C)C",
        "Molecular Formula": "C<sub>45</sub>H<sub>74</sub>O",
        "Molecular Mass": "631.07",
        "Melting Point": "33-35 °C"
    }
}