{
    "cas_no": "504-29-0",
    "key_name": "2-Aminopyridine",
    "cn_name": "2-氨基吡啶;",
    "alternate_name": "2-Pyridinamine;Pyridine, 2-amino-;<em>o</em>-Aminopyridine;α-Aminopyridine;2-Aminopyridine;1,2-Dihydro-2-iminopyridine;2-Pyridylamine;α-Pyridinamine;α-Pyridylamine;2-Pyridinylamine;NSC 431",
    "duplicated_cas_no": "29212-31-5;45505-67-7;102769-74-4;2222571-76-6",
    "SMILES": "NC1=CC=CC=N1",
    "meta_data": {
        "InChI": "InChI=1S/C5H6N2/c6-5-3-1-2-4-7-5/h1-4H,(H2,6,7)",
        "InChIKey": null,
        "Canonical SMILES": "N=1C=CC=CC1N",
        "Molecular Formula": "C<sub>5</sub>H<sub>6</sub>N<sub>2</sub>",
        "Molecular Mass": "94.11",
        "Boiling Point": "210.6 °C",
        "Melting Point": "58.1 °C",
        "Density": "1.065 g/cm³ @ Temp: 20 °C"
    }
}