{
    "cas_no": "3222-56-8",
    "key_name": "2-Methylnicotinic acid",
    "cn_name": "2-甲基烟酸;2-甲基吡啶-3-甲酸;",
    "alternate_name": "3-Pyridinecarboxylic acid, 2-methyl-;Nicotinic acid, 2-methyl-;2-Methyl-3-pyridinecarboxylic acid;2-Picoline-3-carboxylic acid;2-Methylnicotinic acid",
    "duplicated_cas_no": "",
    "SMILES": "C(O)(=O)C1=C(C)N=CC=C1",
    "meta_data": {
        "InChI": "InChI=1S/C7H7NO2/c1-5-6(7(9)10)3-2-4-8-5/h2-4H,1H3,(H,9,10)",
        "InChIKey": null,
        "Canonical SMILES": "O=C(O)C1=CC=CN=C1C",
        "Molecular Formula": "C<sub>7</sub>H<sub>7</sub>NO<sub>2</sub>",
        "Molecular Mass": "137.14",
        "Melting Point": "226-227 °C"
    }
}