{
    "cas_no": "41608-64-4",
    "key_name": "Benzoic acid, 4-amino-3-methoxy-, methyl ester",
    "cn_name": "4-氨基-3-甲氧基苯甲酸甲酯;",
    "alternate_name": "Benzoic acid, 4-amino-3-methoxy-, methyl ester;Methyl 4-amino-3-methoxybenzoate;4-Amino-3-methoxybenzoic acid methyl ester",
    "duplicated_cas_no": "",
    "SMILES": "C(OC)(=O)C1=CC(OC)=C(N)C=C1",
    "meta_data": {
        "InChI": "InChI=1S/C9H11NO3/c1-12-8-5-6(9(11)13-2)3-4-7(8)10/h3-5H,10H2,1-2H3",
        "InChIKey": null,
        "Canonical SMILES": "O=C(OC)C1=CC=C(N)C(OC)=C1",
        "Molecular Formula": "C<sub>9</sub>H<sub>11</sub>NO<sub>3</sub>",
        "Molecular Mass": "181.19",
        "Melting Point": "127-129 °C"
    }
}