{
    "cas_no": "7620-77-1",
    "key_name": "Lithium 12-hydroxystearate",
    "cn_name": "12-羟基十八烷酸单锂;",
    "alternate_name": "Octadecanoic acid, 12-hydroxy-, lithium salt (1:1);Octadecanoic acid, 12-hydroxy-, monolithium salt;Lithium 12-hydroxystearate;12-Hydroxystearic acid lithium salt;Lithium 12-hydroxyoctadecanoate;Daiwax OHL;OHL;S 700H;LS 6;S 7000H;NLGI 3;Ligastar LI 12 OXY",
    "duplicated_cas_no": "10294-14-1",
    "SMILES": "C(CCCCCCCCCCC(O)=O)(CCCCCC)O.[Li]",
    "meta_data": {
        "InChI": "InChI=1S/C18H36O3.Li/c1-2-3-4-11-14-17(19)15-12-9-7-5-6-8-10-13-16-18(20)21;/h17,19H,2-16H2,1H3,(H,20,21);",
        "InChIKey": null,
        "Canonical SMILES": "[Li].O=C(O)CCCCCCCCCCC(O)CCCCCC",
        "Molecular Formula": "C<sub>18</sub>H<sub>36</sub>O<sub>3</sub>.Li",
        "Molecular Mass": "",
        "Melting Point": "200 °C"
    }
}