{
    "cas_no": "2319-29-1",
    "key_name": "Decanamide",
    "cn_name": "癸酰胺;癸醯胺;",
    "alternate_name": "Decanamide;<em>n</em>-Decanamide;Decanoic acid amide;Capramide;Decylamide;Armid 10;NSC 57564;Capric acid amide",
    "duplicated_cas_no": "8014-74-2",
    "SMILES": "C(CCCCCC)CCC(N)=O",
    "meta_data": {
        "InChI": "InChI=1S/C10H21NO/c1-2-3-4-5-6-7-8-9-10(11)12/h2-9H2,1H3,(H2,11,12)",
        "InChIKey": null,
        "Canonical SMILES": "O=C(N)CCCCCCCCC",
        "Molecular Formula": "C<sub>10</sub>H<sub>21</sub>NO",
        "Molecular Mass": "171.28",
        "Melting Point": "108 °C"
    }
}