{
    "cas_no": "10347-88-3",
    "key_name": "3-(1,1-Dimethylethyl)hexanedioic acid",
    "cn_name": "3-叔丁基己二酸;3-叔丁基己二酸;",
    "alternate_name": "Hexanedioic acid, 3-(1,1-dimethylethyl)-;Hexanedioic acid, 3-<em>tert</em>-butyl-;3-(1,1-Dimethylethyl)hexanedioic acid;3-<em>tert</em>-Butyladipic acid;3-<em>tert</em>-Butyl-1,6-hexanedioic acid;3-<em>tert</em>-Butylhexanedioic acid;NSC 158330",
    "duplicated_cas_no": "66007-64-5",
    "SMILES": "C(CCC(O)=O)(CC(O)=O)C(C)(C)C",
    "meta_data": {
        "InChI": "InChI=1S/C10H18O4/c1-10(2,3)7(6-9(13)14)4-5-8(11)12/h7H,4-6H2,1-3H3,(H,11,12)(H,13,14)",
        "InChIKey": null,
        "Canonical SMILES": "O=C(O)CCC(CC(=O)O)C(C)(C)C",
        "Molecular Formula": "C<sub>10</sub>H<sub>18</sub>O<sub>4</sub>",
        "Molecular Mass": "202.25",
        "Melting Point": "117 °C"
    }
}