{
    "cas_no": "4389-45-1",
    "key_name": "2-Amino-3-methylbenzoic acid",
    "cn_name": "2-氨基-3-甲基苯甲酸;",
    "alternate_name": "Benzoic acid, 2-amino-3-methyl-;<em>m</em>-Toluic acid, 2-amino-;2-Amino-3-methylbenzoic acid;3-Methylanthranilic acid;3-Methyl-2-aminobenzoic acid;2-Amino-<em>m</em>-toluic acid;NSC 16049",
    "duplicated_cas_no": "",
    "SMILES": "C(O)(=O)C1=C(N)C(C)=CC=C1",
    "meta_data": {
        "InChI": "InChI=1S/C8H9NO2/c1-5-3-2-4-6(7(5)9)8(10)11/h2-4H,9H2,1H3,(H,10,11)",
        "InChIKey": null,
        "Canonical SMILES": "O=C(O)C1=CC=CC(=C1N)C",
        "Molecular Formula": "C<sub>8</sub>H<sub>9</sub>NO<sub>2</sub>",
        "Molecular Mass": "151.16",
        "Melting Point": "168-169 °C",
        "Density": "1.254 g/cm³ @ Temp: 21.9 °C"
    }
}