{
    "cas_no": "20312-36-1",
    "key_name": "(-)-3-Phenyllactic acid",
    "cn_name": "L-3-苯乳酸;(S)-2-羟基-3-苯基丙酸;",
    "alternate_name": "Benzenepropanoic acid, α-hydroxy-, (α<em>S</em>)-;Lactic acid, 3-phenyl-, (<em>S</em>)-;Benzenepropanoic acid, α-hydroxy-, (<em>S</em>)-;(α<em>S</em>)-α-Hydroxybenzenepropanoic acid;<span class=\"text-smallcaps\">L</span>-β-Phenyllactic acid;<span class=\"text-smallcaps\">L</span>-2-Hydroxy-3-phenylpropionic acid;β-Phenyl-<span class=\"text-smallcaps\">L</span>-lactic acid;<em>S</em>-(-)-3-Phenyllactic acid;(<em>S</em>)-2-Hydroxy-3-phenylpropionic acid;(<em>S</em>)-Phenyllactic acid;(-)-2-Hydroxy-3-phenylpropionic acid;(<em>S</em>)-2-Hydroxy-3-phenylpropanoic acid;(2<em>S</em>)-2-Hydroxy-3-phenylpropionic acid;<span class=\"text-smallcaps\">L</span>-(-)-3-Phenyllactic acid;(<em>S</em>)-β-Phenyllactic acid;<span class=\"text-smallcaps\">L</span>-3-Phenyllactic acid;(-)-3-Phenyllactic acid;(<em>S</em>)-3-Phenyllactic acid;(-)-β-Phenyllactic acid;<span class=\"text-smallcaps\">L</span>-Phenyllactic acid;(-)-2-Hydroxy-3-phenylpropanoic acid;3-(<em>S</em>)-Phenyl lactic acid;(2<em>S</em>)-2-Hydroxy-3-phenylpropanoic acid;(2S)-2-Hydroxy-3-phenylpropanoic acid",
    "duplicated_cas_no": "2820-47-5",
    "SMILES": "C([C@@H](C(O)=O)O)C1=CC=CC=C1",
    "meta_data": {
        "InChI": "InChI=1S/C9H10O3/c10-8(9(11)12)6-7-4-2-1-3-5-7/h1-5,8,10H,6H2,(H,11,12)/t8-/m0/s1",
        "InChIKey": null,
        "Canonical SMILES": "O=C(O)C(O)CC=1C=CC=CC1",
        "Molecular Formula": "C<sub>9</sub>H<sub>10</sub>O<sub>3</sub>",
        "Molecular Mass": "166.17",
        "Melting Point": "121 °C"
    }
}