{
    "cas_no": "1878-49-5",
    "key_name": "(2-Methylphenoxy)acetic acid",
    "cn_name": "(2-甲苯氧基)乙酸;",
    "alternate_name": "Acetic acid, 2-(2-methylphenoxy)-;Acetic acid, (<em>o</em>-tolyloxy)-;Acetic acid, (2-methylphenoxy)-;2-(2-Methylphenoxy)acetic acid;(2-Methylphenoxy)acetic acid;<em>o</em>-Cresoxyacetic acid;2-(<em>o</em>-Tolyloxy)acetic acid;<em>o</em>-Cresyloxyacetic acid;<em>o</em>-Tolyloxyacetic acid;(<em>o</em>-Methylphenoxy)acetic acid;<em>o</em>-Cresolglycolic acid;NSC 5293;2-[(2-Methylphenyl)oxy]acetic acid;2-Methylphenyloxyacetic acid",
    "duplicated_cas_no": "",
    "SMILES": "O(CC(O)=O)C1=C(C)C=CC=C1",
    "meta_data": {
        "InChI": "InChI=1S/C9H10O3/c1-7-4-2-3-5-8(7)12-6-9(10)11/h2-5H,6H2,1H3,(H,10,11)",
        "InChIKey": null,
        "Canonical SMILES": "O=C(O)COC=1C=CC=CC1C",
        "Molecular Formula": "C<sub>9</sub>H<sub>10</sub>O<sub>3</sub>",
        "Molecular Mass": "166.17",
        "Boiling Point": "&gt;150 °C",
        "Melting Point": "153-154 °C"
    }
}