{
    "cas_no": "1120-24-7",
    "key_name": "Dimethyldecylamine",
    "cn_name": "N,N-二甲基癸胺;癸烷基二甲基叔胺;",
    "alternate_name": "1-Decanamine, <em>N</em>,<em>N</em>-dimethyl-;Decylamine, <em>N</em>,<em>N</em>-dimethyl-;<em>N</em>,<em>N</em>-Dimethyl-1-decanamine;Decyldimethylamine;<em>N</em>,<em>N</em>-Dimethyl-<em>N</em>-decylamine;<em>N</em>,<em>N</em>-Dimethyldecylamine;<em>N</em>,<em>N</em>-Dimethyl-1-decylamine;Dimethyldecylamine;Farmin DM 10P;ADMA 10;NSC 24529;<em>N</em>-Decyl-<em>N</em>,<em>N</em>-dimethylamine;Armeen DM 10D;Farmin DM 1098;1-Dimethylaminodecane",
    "duplicated_cas_no": "",
    "SMILES": "C(CCCCCC)CCCN(C)C",
    "meta_data": {
        "InChI": "InChI=1S/C12H27N/c1-4-5-6-7-8-9-10-11-12-13(2)3/h4-12H2,1-3H3",
        "InChIKey": null,
        "Canonical SMILES": "N(C)(C)CCCCCCCCCC",
        "Molecular Formula": "C<sub>12</sub>H<sub>27</sub>N",
        "Molecular Mass": "185.35",
        "Boiling Point": "106 °C @ Press: 9 Torr"
    }
}