{
    "cas_no": "484-14-0",
    "key_name": "Osthenol",
    "cn_name": null,
    "alternate_name": "2<em>H</em>-1-Benzopyran-2-one, 7-hydroxy-8-(3-methyl-2-buten-1-yl)-;Coumarin, 7-hydroxy-8-(3-methyl-2-butenyl)-;Osthenol;2<em>H</em>-1-Benzopyran-2-one, 7-hydroxy-8-(3-methyl-2-butenyl)-;7-Hydroxy-8-(3-methyl-2-buten-1-yl)-2<em>H</em>-1-benzopyran-2-one;7-Hydroxy-8-isopent-2-enylcoumarin;Ostenol;7-Hydroxy-8-prenylcoumarin;NSC 625328",
    "duplicated_cas_no": "",
    "SMILES": "C(C=C(C)C)C1=C2C(=CC=C1O)C=CC(=O)O2",
    "meta_data": {
        "InChI": "InChI=1S/C14H14O3/c1-9(2)3-6-11-12(15)7-4-10-5-8-13(16)17-14(10)11/h3-5,7-8,15H,6H2,1-2H3",
        "InChIKey": null,
        "Canonical SMILES": "O=C1OC2=C(C=C1)C=CC(O)=C2CC=C(C)C",
        "Molecular Formula": "C<sub>14</sub>H<sub>14</sub>O<sub>3</sub>",
        "Molecular Mass": "230.26",
        "Melting Point": "89-91 °C"
    }
}