{
    "cas_no": "83366-66-9",
    "key_name": "Nefazodone",
    "cn_name": "奈法唑酮;2-[3-[4-(3-氯苯基)-1-哌嗪基]丙基]-5-乙基-2,4-二氢-4-(2-苯氧乙基)-3H-1,2,4-三唑-3-酮;",
    "alternate_name": "3<em>H</em>-1,2,4-Triazol-3-one, 2-[3-[4-(3-chlorophenyl)-1-piperazinyl]propyl]-5-ethyl-2,4-dihydro-4-(2-phenoxyethyl)-;2-[3-[4-(3-Chlorophenyl)-1-piperazinyl]propyl]-5-ethyl-2,4-dihydro-4-(2-phenoxyethyl)-3<em>H</em>-1,2,4-triazol-3-one;Nefazodone",
    "duplicated_cas_no": "",
    "SMILES": "C(COC1=CC=CC=C1)N2C(CC)=NN(CCCN3CCN(CC3)C4=CC(Cl)=CC=C4)C2=O",
    "meta_data": {
        "InChI": "InChI=1S/C25H32ClN5O2/c1-2-24-27-31(25(32)30(24)18-19-33-23-10-4-3-5-11-23)13-7-12-28-14-16-29(17-15-28)22-9-6-8-21(26)20-22/h3-6,8-11,20H,2,7,12-19H2,1H3",
        "InChIKey": null,
        "Canonical SMILES": "O=C1N(N=C(N1CCOC=2C=CC=CC2)CC)CCCN3CCN(C=4C=CC=C(Cl)C4)CC3",
        "Molecular Formula": "C<sub>25</sub>H<sub>32</sub>ClN<sub>5</sub>O<sub>2</sub>",
        "Molecular Mass": "470.01",
        "Melting Point": "83.5 °C"
    }
}