{
    "cas_no": "699-02-5",
    "key_name": "4-Methylbenzeneethanol",
    "cn_name": "4-甲基苯乙醇;对甲基苯乙醇;烟苄酯;",
    "alternate_name": "Benzeneethanol, 4-methyl-;Phenethyl alcohol, <em>p</em>-methyl-;4-Methylbenzeneethanol;4-Methylphenethyl alcohol;2-(<em>p</em>-Methylphenyl)ethanol;2-(4-Methylphenyl)ethanol;<em>p</em>-Methylphenethyl alcohol;2-<em>p</em>-Tolylethanol;<em>p</em>-Methylphenylethyl alcohol;<em>p</em>-(2-Hydroxyethyl)toluene;4-Methyl-1-(2-hydroxyethyl)benzene;NSC 5295;NSC 54360;4-Methylphenethanol;2-(4-Methylphenyl)-1-ethanol;2-(<em>p</em>-Tolyl)ethan-1-ol",
    "duplicated_cas_no": "",
    "SMILES": "C(CO)C1=CC=C(C)C=C1",
    "meta_data": {
        "InChI": "InChI=1S/C9H12O/c1-8-2-4-9(5-3-8)6-7-10/h2-5,10H,6-7H2,1H3",
        "InChIKey": null,
        "Canonical SMILES": "OCCC1=CC=C(C=C1)C",
        "Molecular Formula": "C<sub>9</sub>H<sub>12</sub>O",
        "Molecular Mass": "136.19",
        "Boiling Point": "244.5 °C",
        "Melting Point": "165.2-166.3 °C",
        "Density": "1.0008 g/cm³ @ Temp: 20 °C"
    }
}