{
    "cas_no": "32315-10-9",
    "key_name": "Triphosgene",
    "cn_name": null,
    "alternate_name": "Methanol, 1,1,1-trichloro-, 1,1′-carbonate;Carbonic acid, bis(trichloromethyl) ester;Methanol, trichloro-, carbonate (2:1);Triphosgene;Bis(trichloromethyl) carbonate;BTC",
    "duplicated_cas_no": "1026306-50-2",
    "SMILES": "O(C(Cl)(Cl)Cl)C(OC(Cl)(Cl)Cl)=O",
    "meta_data": {
        "InChI": "InChI=1S/C3Cl6O3/c4-2(5,6)11-1(10)12-3(7,8)9",
        "InChIKey": null,
        "Canonical SMILES": "O=C(OC(Cl)(Cl)Cl)OC(Cl)(Cl)Cl",
        "Molecular Formula": "C<sub>3</sub>Cl<sub>6</sub>O<sub>3</sub>",
        "Molecular Mass": "296.75",
        "Boiling Point": "203 °C",
        "Melting Point": "79 °C",
        "Density": "1.73 g/cm³"
    }
}