{
    "cas_no": "71989-20-3",
    "key_name": "<em>N</em><sup>2</sup>-(9-Fluorenylmethoxycarbonyl)-<span class=\"text-smallcaps\">L</span>-glutamine",
    "cn_name": "Fmoc-L-谷氨酰胺;芴甲氧羰基-L-谷氨酰胺;",
    "alternate_name": "<span class=\"text-smallcaps\">L</span>-Glutamine, <em>N</em><sup>2</sup>-[(9<em>H</em>-fluoren-9-ylmethoxy)carbonyl]-;<em>N</em><sup>2</sup>-[(9<em>H</em>-Fluoren-9-ylmethoxy)carbonyl]-<span class=\"text-smallcaps\">L</span>-glutamine;<em>N</em><sup>2</sup>-(9-Fluorenylmethoxycarbonyl)-<span class=\"text-smallcaps\">L</span>-glutamine;FMOC-Gln-OH;<em>N</em>-(9-Fluorenylmethoxycarbonyl)glutamine;Fmoc-<span class=\"text-smallcaps\">L</span>-Gln-OH;<em>N</em><sup>2</sup>-FMOC-<span class=\"text-smallcaps\">L</span>-glutamine;NSC 334303;Fmoc-<span class=\"text-smallcaps\">L</span>-glutamine;(2S)-4-Carbamoyl-2-([[(9<em>H</em>-fluoren-9-yl)methoxy]carbonyl]amino)butanoic acid;(2S)-5-Amino-2-(9<em>H</em>-fluoren-9-ylmethoxycarbonylamino)-5-oxopentanoic acid;(2S)-4-Carbamoyl-2-[[(9<em>H</em>-fluoren-9-ylmethoxy)carbonyl]amino]butanoic acid",
    "duplicated_cas_no": "115057-39-1;1325677-04-0",
    "SMILES": "C(OC(N[C@@H](CCC(N)=O)C(O)=O)=O)C1C=2C(C=3C1=CC=CC3)=CC=CC2",
    "meta_data": {
        "InChI": "InChI=1S/C20H20N2O5/c21-18(23)10-9-17(19(24)25)22-20(26)27-11-16-14-7-3-1-5-12(14)13-6-2-4-8-15(13)16/h1-8,16-17H,9-11H2,(H2,21,23)(H,22,26)(H,24,25)/t17-/m0/s1",
        "InChIKey": null,
        "Canonical SMILES": "O=C(OCC1C=2C=CC=CC2C=3C=CC=CC31)NC(C(=O)O)CCC(=O)N",
        "Molecular Formula": "C<sub>20</sub>H<sub>20</sub>N<sub>2</sub>O<sub>5</sub>",
        "Molecular Mass": "368.38",
        "Melting Point": "219-220 °C"
    }
}