{
    "cas_no": "1914-60-9",
    "key_name": "2,3-Dihydrobenzofuran-2-carboxylic acid",
    "cn_name": "苯并二氢呋喃-2-羧酸;2,3-二氢-1-苯并呋喃-2-羧酸;",
    "alternate_name": "2-Benzofurancarboxylic acid, 2,3-dihydro-;Coumarilic acid, 2,3-dihydro-;2,3-Dihydro-2-benzofurancarboxylic acid;2,3-Dihydrocoumarilic acid;2,3-Dihydrobenzofuran-2-carboxylic acid;2,3-Dihydro-1-benzofuran-2-carboxylic acid",
    "duplicated_cas_no": "",
    "SMILES": "C(O)(=O)C1CC=2C(O1)=CC=CC2",
    "meta_data": {
        "InChI": "InChI=1S/C9H8O3/c10-9(11)8-5-6-3-1-2-4-7(6)12-8/h1-4,8H,5H2,(H,10,11)",
        "InChIKey": null,
        "Canonical SMILES": "O=C(O)C1OC=2C=CC=CC2C1",
        "Molecular Formula": "C<sub>9</sub>H<sub>8</sub>O<sub>3</sub>",
        "Molecular Mass": "164.16",
        "Melting Point": "116-117 °C"
    }
}