{
    "cas_no": "44860-68-6",
    "key_name": "Bis(2-hydroxyethylthio)methane",
    "cn_name": "3,5-二硫杂-1,7-庚二醇;",
    "alternate_name": "Ethanol, 2,2′-[methylenebis(thio)]bis-;Ethanol, 2,2′-(methylenedithio)di-;2,2′-[Methylenebis(thio)]bis[ethanol];NSC 2875;NSC 409772;Bis(2-hydroxyethylthio)methane;1,1-Bis(2-hydroxyethylsulfanyl)methane;3,5-Dithia-1,7-heptanediol;2,2′-(Methylenebis(sulfanediyl))diethanol;2-(2-Hydroxyethylsulfanylmethylsulfanyl)ethanol",
    "duplicated_cas_no": "",
    "SMILES": "C(SCCO)SCCO",
    "meta_data": {
        "InChI": "InChI=1S/C5H12O2S2/c6-1-3-8-5-9-4-2-7/h6-7H,1-5H2",
        "InChIKey": null,
        "Canonical SMILES": "OCCSCSCCO",
        "Molecular Formula": "C<sub>5</sub>H<sub>12</sub>O<sub>2</sub>S<sub>2</sub>",
        "Molecular Mass": "168.28",
        "Boiling Point": "145 °C @ Press: 0.02 Torr"
    }
}