{
    "cas_no": "515-96-8",
    "key_name": "2-Amino-2-oxoacetic acid hydrazide",
    "cn_name": "奥肼;草胺酰肼;",
    "alternate_name": "Acetic acid, 2-amino-2-oxo-, hydrazide;Semioxamazide;Acetic acid, aminooxo-, hydrazide;2-Amino-2-oxoacetic acid hydrazide;Aminooxamide;Oxamic acid hydrazide;Semioxamazid;Oxamic hydrazide;<em>N</em>-Aminooxamide;Carbamoylformic acid hydrazide;NSC 45889;2-Hydrazinyl-2-oxoacetamide;1-(Hydrazinecarbonyl)formamide",
    "duplicated_cas_no": "",
    "SMILES": "C(C(N)=O)(NN)=O",
    "meta_data": {
        "InChI": "InChI=1S/C2H5N3O2/c3-1(6)2(7)5-4/h4H2,(H2,3,6)(H,5,7)",
        "InChIKey": null,
        "Canonical SMILES": "O=C(N)C(=O)NN",
        "Molecular Formula": "C<sub>2</sub>H<sub>5</sub>N<sub>3</sub>O<sub>2</sub>",
        "Molecular Mass": "103.08",
        "Melting Point": "221 °C (decomp)"
    }
}