{
    "cas_no": "33486-90-7",
    "key_name": "1,3-Dichloro-2-(methoxymethyl)benzene",
    "cn_name": "2,6-二氯苯甲基甲醚;",
    "alternate_name": "Benzene, 1,3-dichloro-2-(methoxymethyl)-;Ether, 2,6-dichlorobenzyl methyl;1,3-Dichloro-2-(methoxymethyl)benzene;2,6-Dichlorobenzyl methyl ether",
    "duplicated_cas_no": "",
    "SMILES": "C(OC)C1=C(Cl)C=CC=C1Cl",
    "meta_data": {
        "InChI": "InChI=1S/C8H8Cl2O/c1-11-5-6-7(9)3-2-4-8(6)10/h2-4H,5H2,1H3",
        "InChIKey": null,
        "Canonical SMILES": "ClC1=CC=CC(Cl)=C1COC",
        "Molecular Formula": "C<sub>8</sub>H<sub>8</sub>Cl<sub>2</sub>O",
        "Molecular Mass": "191.05",
        "Boiling Point": "83 °C @ Press: 2 Torr"
    }
}