{
    "cas_no": "13195-76-1",
    "key_name": "Boric acid (H<sub>3</sub>BO<sub>3</sub>), tris(2-methylpropyl) ester",
    "cn_name": "硼酸三(2-甲基丙基)酯;",
    "alternate_name": "Boric acid (H<sub>3</sub>BO<sub>3</sub>), tris(2-methylpropyl) ester;Boric acid (H<sub>3</sub>BO<sub>3</sub>), triisobutyl ester;Isobutyl borate ((C<sub>4</sub>H<sub>9</sub>O)<sub>3</sub>B);Isobutyl borate;Triisobutyl borate;Triisobutyl orthoborate;NSC 65329",
    "duplicated_cas_no": "",
    "SMILES": "B(OCC(C)C)(OCC(C)C)OCC(C)C",
    "meta_data": {
        "InChI": "InChI=1S/C12H27BO3/c1-10(2)7-14-13(15-8-11(3)4)16-9-12(5)6/h10-12H,7-9H2,1-6H3",
        "InChIKey": null,
        "Canonical SMILES": "O(B(OCC(C)C)OCC(C)C)CC(C)C",
        "Molecular Formula": "C<sub>12</sub>H<sub>27</sub>BO<sub>3</sub>",
        "Molecular Mass": "230.15",
        "Boiling Point": "211.5-213.0 °C",
        "Density": "0.83909 g/cm³ @ Temp: 25 °C"
    }
}