{
    "cas_no": "1121-60-4",
    "key_name": "2-Pyridinecarboxaldehyde",
    "cn_name": "吡啶-2-甲醛;",
    "alternate_name": "2-Pyridinecarboxaldehyde;Picolinaldehyde;Pyridine-2-aldehyde;2-Pyridaldehyde;2-Picolinaldehyde;2-Pyridinecarbaldehyde;<em>o</em>-Nicotinaldehyde;2-Formylpyridine;2-Pyridinaldehyde;Picolinal;2-Picolinealdehyde;2-Pyridylcarboxaldehyde;Picolinic aldehyde;α-Picolinaldehyde;α-Formylpyridine;Pyridin-2-al;<em>o</em>-Formylpyridine;Picolylaldehyde;NSC 8951;2-Pydridinecarboxaldehyde;<em>o</em>-Pyridinemethanal",
    "duplicated_cas_no": "",
    "SMILES": "C(=O)C1=CC=CC=N1",
    "meta_data": {
        "InChI": "InChI=1S/C6H5NO/c8-5-6-3-1-2-4-7-6/h1-5H",
        "InChIKey": null,
        "Canonical SMILES": "O=CC1=NC=CC=C1",
        "Molecular Formula": "C<sub>6</sub>H<sub>5</sub>NO",
        "Molecular Mass": "107.11",
        "Boiling Point": "180 °C",
        "Melting Point": "148-151 °C",
        "Density": "1.1255 g/cm³ @ Temp: 18.5 °C"
    }
}