{
    "cas_no": "17019-92-0",
    "key_name": "11-Keto-β-boswellic acid",
    "cn_name": null,
    "alternate_name": "Urs-12-en-23-oic acid, 3-hydroxy-11-oxo-, (3α,4β)-;Urs-12-en-24-oic acid, 3α-hydroxy-11-oxo-;(3α,4β)-3-Hydroxy-11-oxours-12-en-23-oic acid;11-Oxo-β-boswellic acid;11-Keto-β-boswellic acid;11-<em>keto</em>-β-Boswellic;KBA (keto boswellic acid);11-<em>keto</em>-β-Boswellic acid",
    "duplicated_cas_no": "",
    "SMILES": "C[C@]12[C@@]([C@]3(C)[C@@](CC1)([C@](C(O)=O)(C)[C@H](O)CC3)[H])(C(=O)C=C4[C@@]2(C)CC[C@]5(C)[C@]4([C@@H](C)[C@H](C)CC5)[H])[H]",
    "meta_data": {
        "InChI": "InChI=1S/C30H46O4/c1-17-8-11-26(3)14-15-28(5)19(23(26)18(17)2)16-20(31)24-27(4)12-10-22(32)30(7,25(33)34)21(27)9-13-29(24,28)6/h16-18,21-24,32H,8-15H2,1-7H3,(H,33,34)/t17-,18+,21-,22-,23+,24-,26-,27+,28-,29-,30-/m1/s1",
        "InChIKey": null,
        "Canonical SMILES": "O=C(O)C1(C)C(O)CCC2(C)C3C(=O)C=C4C5C(C)C(C)CCC5(C)CCC4(C)C3(C)CCC12",
        "Molecular Formula": "C<sub>30</sub>H<sub>46</sub>O<sub>4</sub>",
        "Molecular Mass": "470.68",
        "Melting Point": "194-195 °C (decomp)"
    }
}