{
    "cas_no": "15492-52-1",
    "key_name": "(<em>OC</em>-6-11)-Tris(2,2,6,6-tetramethyl-3,5-heptanedionato-κ<em>O</em><sup>3</sup>,κ<em>O</em><sup>5</sup>)ytterbium",
    "cn_name": "三(2,2,6,6-四甲基-3,5-庚二酮酸)镱;",
    "alternate_name": "Ytterbium, tris(2,2,6,6-tetramethyl-3,5-heptanedionato-κ<em>O</em><sup>3</sup>,κ<em>O</em><sup>5</sup>)-, (<em>OC</em>-6-11)-;Ytterbium, tris(2,2,6,6-tetramethyl-3,5-heptanedionato)-;Ytterbium, tris(2,2,6,6-tetramethyl-3,5-heptanedionato-<em>O</em>,<em>O</em>′)-, (<em>OC</em>-6-11)-;Ytterbium, tris(2,2,6,6-tetramethyl-3,5-heptanedionato-κ<em>O</em>,κ<em>O</em>′)-, (<em>OC</em>-6-11)-;3,5-Heptanedione, 2,2,6,6-tetramethyl-, ytterbium complex;(<em>OC</em>-6-11)-Tris(2,2,6,6-tetramethyl-3,5-heptanedionato-κ<em>O</em><sup>3</sup>,κ<em>O</em><sup>5</sup>)ytterbium;Tris(dipivaloylmethanato)ytterbium;Tris(2,2,6,6-tetramethyl-3,5-heptanedionato)ytterbium(III);Tris(dipivaloylmethanato)ytterbium(III);Tris(2,2,6,6-tetramethyl-3,5-heptanedionato)ytterbium;NSC 177672",
    "duplicated_cas_no": "",
    "SMILES": "C(C)(C)(C)C1=O[Yb+3]23(O=C(C(C)(C)C)[CH-]C(C(C)(C)C)=O2)(O=C(C(C)(C)C)[CH-]C(C(C)(C)C)=O3)O=C(C(C)(C)C)[CH-]1",
    "meta_data": {
        "InChI": "InChI=1S/3C11H19O2.Yb/c3*1-10(2,3)8(12)7-9(13)11(4,5)6;/h3*7H,1-6H3;/q3*-1;+3",
        "InChIKey": null,
        "Canonical SMILES": "O1=C([CH-]C(=O[Yb+3]123(O=C([CH-]C(=O2)C(C)(C)C)C(C)(C)C)O=C([CH-]C(=O3)C(C)(C)C)C(C)(C)C)C(C)(C)C)C(C)(C)C",
        "Molecular Formula": "C<sub>33</sub>H<sub>57</sub>O<sub>6</sub>Yb",
        "Molecular Mass": "",
        "Melting Point": "163 °C"
    }
}