{
    "cas_no": "2238-07-5",
    "key_name": "2,2′-[Oxybis(methylene)]bis[oxirane]",
    "cn_name": "2,2\"-[氧双(亚甲基)双环氧乙烷;二环氧甘油醚;",
    "alternate_name": "Oxirane, 2,2′-[oxybis(methylene)]bis-;Ether, bis(2,3-epoxypropyl);2,2′-[Oxybis(methylene)]bis[oxirane];Diglycidyl ether;NSC 54739;Bis(2,3-epoxypropyl) ether;Di-2,3-epoxypropyl ether;1,2,6,7-Diepoxy-4-oxaheptane",
    "duplicated_cas_no": "186354-95-0",
    "SMILES": "C(OCC1CO1)C2CO2",
    "meta_data": {
        "InChI": "InChI=1S/C6H10O3/c1(5-3-8-5)7-2-6-4-9-6/h5-6H,1-4H2",
        "InChIKey": null,
        "Canonical SMILES": "O(CC1OC1)CC2OC2",
        "Molecular Formula": "C<sub>6</sub>H<sub>10</sub>O<sub>3</sub>",
        "Molecular Mass": "130.14",
        "Boiling Point": "260 °C @ Press: 760 Torr",
        "Density": "1.1195 g/cm³ @ Temp: 20 °C"
    }
}