{
    "cas_no": "850544-21-7",
    "key_name": "Methyl 4-amino-5-nitro-2-pyridinecarboxylate",
    "cn_name": "4-氨基-5-硝基-2-吡啶羧酸甲酯;4-氨基-5-硝基-2-吡啶甲酸甲酯;",
    "alternate_name": "2-Pyridinecarboxylic acid, 4-amino-5-nitro-, methyl ester;Methyl 4-amino-5-nitro-2-pyridinecarboxylate;4-Amino-5-nitropyridine-2-carboxylic acid methyl ester;4-Amino-5-nitropicolinic acid methyl ester",
    "duplicated_cas_no": "",
    "SMILES": "C(OC)(=O)C1=CC(N)=C(N(=O)=O)C=N1",
    "meta_data": {
        "InChI": "InChI=1S/C7H7N3O4/c1-14-7(11)5-2-4(8)6(3-9-5)10(12)13/h2-3H,1H3,(H2,8,9)",
        "InChIKey": null,
        "Canonical SMILES": "O=C(OC)C1=NC=C(C(N)=C1)N(=O)=O",
        "Molecular Formula": "C<sub>7</sub>H<sub>7</sub>N<sub>3</sub>O<sub>4</sub>",
        "Molecular Mass": "197.15",
        "Melting Point": "223-225 °C"
    }
}