{
    "cas_no": "596-85-0",
    "key_name": "Manool",
    "cn_name": "泪杉醇;",
    "alternate_name": "1-Naphthalenepropanol, α-ethenyldecahydro-α,5,5,8a-tetramethyl-2-methylene-, (α<em>R</em>,1<em>S</em>,4a<em>S</em>,8a<em>S</em>)-;Labda-8(20),14-dien-13-ol, (13<em>R</em>)-;Manool;1-Naphthalenepropanol, α-ethenyldecahydro-α,5,5,8a-tetramethyl-2-methylene-, [1<em>S</em>-[1α(<em>S</em>*),4aβ,8aα]]-;(α<em>R</em>,1<em>S</em>,4a<em>S</em>,8a<em>S</em>)-α-Ethenyldecahydro-α,5,5,8a-tetramethyl-2-methylene-1-naphthalenepropanol;NSC 165961;Labd-8(17),14-dien-13-ol",
    "duplicated_cas_no": "",
    "SMILES": "C[C@@]12[C@](C(C)(C)CCC1)(CCC(=C)[C@@H]2CC[C@@](C=C)(C)O)[H]",
    "meta_data": {
        "InChI": "InChI=1S/C20H34O/c1-7-19(5,21)14-11-16-15(2)9-10-17-18(3,4)12-8-13-20(16,17)6/h7,16-17,21H,1-2,8-14H2,3-6H3/t16-,17-,19-,20+/m0/s1",
        "InChIKey": null,
        "Canonical SMILES": "OC(C=C)(C)CCC1C(=C)CCC2C(C)(C)CCCC12C",
        "Molecular Formula": "C<sub>20</sub>H<sub>34</sub>O",
        "Molecular Mass": "290.48",
        "Boiling Point": "150-153 °C @ Press: 0.3 Torr",
        "Melting Point": "41-43.5 °C"
    }
}