{
    "cas_no": "526-86-3",
    "key_name": "2,3-Dimethyl-2,5-cyclohexadiene-1,4-dione",
    "cn_name": null,
    "alternate_name": "2,5-Cyclohexadiene-1,4-dione, 2,3-dimethyl-;<em>p</em>-Benzoquinone, 2,3-dimethyl-;2,3-Dimethyl-2,5-cyclohexadiene-1,4-dione;<em>o</em>-Xyloquinone;2,3-Dimethylbenzoquinone;2,3-Dimethyl-1,4-benzoquinone;2,3-Dimethyl-<em>p</em>-benzoquinone;2,3-Dimethyl-<em>p</em>-quinone;2,3-Dimethylquinone;NSC 402192",
    "duplicated_cas_no": "",
    "SMILES": "CC1=C(C)C(=O)C=CC1=O",
    "meta_data": {
        "InChI": "InChI=1S/C8H8O2/c1-5-6(2)8(10)4-3-7(5)9/h3-4H,1-2H3",
        "InChIKey": null,
        "Canonical SMILES": "O=C1C=CC(=O)C(=C1C)C",
        "Molecular Formula": "C<sub>8</sub>H<sub>8</sub>O<sub>2</sub>",
        "Molecular Mass": "136.15",
        "Melting Point": "55 °C"
    }
}