{
    "cas_no": "54571-66-3",
    "key_name": "Methyl 5-oxopyrrolidine-2-carboxylate",
    "cn_name": null,
    "alternate_name": "Proline, 5-oxo-, methyl ester;<span class=\"text-smallcaps\">DL</span>-Proline, 5-oxo-, methyl ester;Methyl <span class=\"text-smallcaps\">DL</span>-pyroglutamate;(±)-Methyl 5-oxo-2-pyrrolidinecarboxylate;Methyl 5-oxopyrrolidine-2-carboxylate;Methyl 5-oxopyrrolidin-2-carboxylate",
    "duplicated_cas_no": "",
    "SMILES": "C(OC)(=O)C1NC(=O)CC1",
    "meta_data": {
        "InChI": "InChI=1S/C6H9NO3/c1-10-6(9)4-2-3-5(8)7-4/h4H,2-3H2,1H3,(H,7,8)",
        "InChIKey": null,
        "Canonical SMILES": "O=C(OC)C1NC(=O)CC1",
        "Molecular Formula": "C<sub>6</sub>H<sub>9</sub>NO<sub>3</sub>",
        "Molecular Mass": "143.14",
        "Boiling Point": "131-133 °C @ Press: 0.8 Torr"
    }
}