{
    "cas_no": "17191-44-5",
    "key_name": "1-[[(Phenylmethoxy)carbonyl]amino]cyclopentanecarboxylic acid",
    "cn_name": null,
    "alternate_name": "Cyclopentanecarboxylic acid, 1-[[(phenylmethoxy)carbonyl]amino]-;Cyclopentanecarbamic acid, 1-carboxy-, <em>N</em>-benzyl ester;Cyclopentanecarbamic acid, 1-carboxy-, benzyl ester;1-[[(Phenylmethoxy)carbonyl]amino]cyclopentanecarboxylic acid;Carbobenzoxy-1-aminocyclopentane-1-carboxylic acid;<em>N</em>-Benzyloxycarbonylcycloleucine;1-[[(Benzyloxy)carbonyl]amino]cyclopentanecarboxylic acid;1-(Phenylmethoxycarbonylamino)cyclopentane-1-carboxylic acid;1-[[(Benzyloxy)carbonyl]amino]cyclopentane-1-carboxylic acid",
    "duplicated_cas_no": "1349709-69-8",
    "SMILES": "N(C(OCC1=CC=CC=C1)=O)C2(C(O)=O)CCCC2",
    "meta_data": {
        "InChI": "InChI=1S/C14H17NO4/c16-12(17)14(8-4-5-9-14)15-13(18)19-10-11-6-2-1-3-7-11/h1-3,6-7H,4-5,8-10H2,(H,15,18)(H,16,17)",
        "InChIKey": null,
        "Canonical SMILES": "O=C(OCC=1C=CC=CC1)NC2(C(=O)O)CCCC2",
        "Molecular Formula": "C<sub>14</sub>H<sub>17</sub>NO<sub>4</sub>",
        "Molecular Mass": "263.29",
        "Melting Point": "95-98 °C"
    }
}