{
    "cas_no": "4795-29-3",
    "key_name": "Tetrahydrofurfurylamine",
    "cn_name": "2-四氢糠胺;",
    "alternate_name": "2-Furanmethanamine, tetrahydro-;Furfurylamine, tetrahydro-;Tetrahydro-2-furanmethanamine;Tetrahydrofurfurylamine;2-(Aminomethyl)tetrahydrofuran;2-Tetrahydrofurfurylamine;(Tetrahydrofuran-2-ylmethyl)amine;(±)-Tetrahydrofurfurylamine;2-Tetrahydrofuranmethanamine;(<em>RS</em>)-(2-Tetrahydrofuryl)methylamine;(<em>RS</em>)-2-Tetrahydrofurfurylamine;<em>C</em>-(Tetrahydrofuran-2-yl)methylamine;(2-Tetrahydrofurylmethyl)amine;NSC 76037;1-(Tetrahydrofuran-2-yl)methanamine;(Tetrahydrofuran-2-yl)methanamine;<em>N</em>-[(Oxolan-2-yl)methyl]amine;Tetrahydrofuran-2-methylamine;Oxolan-2-ylmethylamine;(Oxolan-2-yl)methanamine",
    "duplicated_cas_no": "13346-01-5",
    "SMILES": "C(N)C1CCCO1",
    "meta_data": {
        "InChI": "InChI=1S/C5H11NO/c6-4-5-2-1-3-7-5/h5H,1-4,6H2",
        "InChIKey": null,
        "Canonical SMILES": "O1CCCC1CN",
        "Molecular Formula": "C<sub>5</sub>H<sub>11</sub>NO",
        "Molecular Mass": "101.15",
        "Boiling Point": "153 °C",
        "Melting Point": "108-109 °C",
        "Density": "0.9792 g/cm³ @ Temp: 17 °C"
    }
}