{
    "cas_no": "5464-12-0",
    "key_name": "4-Methyl-1-piperazineethanol",
    "cn_name": "1-羟乙基-4-甲基哌嗪;",
    "alternate_name": "1-Piperazineethanol, 4-methyl-;4-Methyl-1-piperazineethanol;1-(2-Hydroxyethyl)-4-methylpiperazine;2-(4-Methyl-1-piperazinyl)ethanol;1-Methyl-4-(2-hydroxyethyl)piperazine;1-(Hydroxyethyl)-4-methylpiperazine;<em>N</em>-(2-Hydroxyethyl)-<em>N</em>′-methylpiperazine;Toyocat HP;HP;4-(2-Hydroxyethyl)-1-methylpiperazine;NSC 26888;<em>N</em>-Methyl-<em>N</em>′-(2-hydroxyethyl)piperazine;HPW;Toyocat HPW;2-(4-Methylpiperazin-1-yl)ethan-1-ol",
    "duplicated_cas_no": "207869-70-3",
    "SMILES": "C(CO)N1CCN(C)CC1",
    "meta_data": {
        "InChI": "InChI=1S/C7H16N2O/c1-8-2-4-9(5-3-8)6-7-10/h10H,2-7H2,1H3",
        "InChIKey": null,
        "Canonical SMILES": "OCCN1CCN(C)CC1",
        "Molecular Formula": "C<sub>7</sub>H<sub>16</sub>N<sub>2</sub>O",
        "Molecular Mass": "144.21",
        "Boiling Point": "73-75 °C @ Press: 3 Torr"
    }
}