{
    "cas_no": "28737-32-8",
    "key_name": "3-Chloro-1<em>H</em>-indole-2-carboxylic acid",
    "cn_name": null,
    "alternate_name": "1<em>H</em>-Indole-2-carboxylic acid, 3-chloro-;Indole-2-carboxylic acid, 3-chloro-;3-Chloro-1<em>H</em>-indole-2-carboxylic acid;3-Chloroindole-2-carboxylic acid",
    "duplicated_cas_no": "",
    "SMILES": "ClC=1C=2C(NC1C(O)=O)=CC=CC2",
    "meta_data": {
        "InChI": "InChI=1S/C9H6ClNO2/c10-7-5-3-1-2-4-6(5)11-8(7)9(12)13/h1-4,11H,(H,12,13)",
        "InChIKey": null,
        "Canonical SMILES": "O=C(O)C=1NC=2C=CC=CC2C1Cl",
        "Molecular Formula": "C<sub>9</sub>H<sub>6</sub>ClNO<sub>2</sub>",
        "Molecular Mass": "195.60",
        "Melting Point": "192-194 °C"
    }
}