{
    "cas_no": "5452-75-5",
    "key_name": "Ethyl cyclohexylacetate",
    "cn_name": "环己烷甲酸乙酯;",
    "alternate_name": "Cyclohexaneacetic acid, ethyl ester;Ethyl cyclohexylacetate;Ethyl cyclohexaneacetate;Ethyl α-cyclohexylacetate;NSC 18985;Ethyl 2-cyclohexylacetate",
    "duplicated_cas_no": "",
    "SMILES": "C(C(OCC)=O)C1CCCCC1",
    "meta_data": {
        "InChI": "InChI=1S/C10H18O2/c1-2-12-10(11)8-9-6-4-3-5-7-9/h9H,2-8H2,1H3",
        "InChIKey": null,
        "Canonical SMILES": "O=C(OCC)CC1CCCCC1",
        "Molecular Formula": "C<sub>10</sub>H<sub>18</sub>O<sub>2</sub>",
        "Molecular Mass": "170.25",
        "Boiling Point": "211 °C"
    }
}