{
    "cas_no": "637-89-8",
    "key_name": "4-Mercaptophenol",
    "cn_name": "4-羟基苯硫酚;",
    "alternate_name": "Phenol, 4-mercapto-;Phenol, <em>p</em>-mercapto-;4-Mercaptophenol;<em>p</em>-Mercaptophenol;Thiohydroquinone;4-Hydroxybenzenethiol;4-Hydroxythiophenol;<em>p</em>-Hydroxythiophenol;<em>p</em>-Hydroxybenzenethiol;Monothiohydroquinone;NSC 46192;4-Merpcatophenol;4-Sulfanylphenol",
    "duplicated_cas_no": "",
    "SMILES": "OC1=CC=C(S)C=C1",
    "meta_data": {
        "InChI": "InChI=1S/C6H6OS/c7-5-1-3-6(8)4-2-5/h1-4,7-8H",
        "InChIKey": null,
        "Canonical SMILES": "OC1=CC=C(S)C=C1",
        "Molecular Formula": "C<sub>6</sub>H<sub>6</sub>OS",
        "Molecular Mass": "126.18",
        "Boiling Point": "144-146 °C @ Press: 20 Torr",
        "Melting Point": "29.5 °C"
    }
}