{
    "cas_no": "320345-99-1",
    "key_name": "Aclidinium bromide",
    "cn_name": "阿地溴铵;(3R)-(2-羟基-2,2-二噻吩-2-基乙酰氧基)-1-(3-苯氧丙基)-1-氮杂鎓双环[2.2.2]辛烷溴化物;",
    "alternate_name": "1-Azoniabicyclo[2.2.2]octane, 3-[(2-hydroxy-2,2-di-2-thienylacetyl)oxy]-1-(3-phenoxypropyl)-, bromide (1:1), (3<em>R</em>)-;1-Azoniabicyclo[2.2.2]octane, 3-[(hydroxydi-2-thienylacetyl)oxy]-1-(3-phenoxypropyl)-, bromide, (3<em>R</em>)-;Aclidinium bromide;LAS 34273;LAS-W 330;(3<em>R</em>)-(2-Hydroxy-2,2-dithien-2-ylacetoxy)-1-(3-phenoxypropyl)-1-azoniabicyclo[2.2.2]octane bromide;Genuair;Eklira Genuair;Bretaris Genuair;Tudorza Pressair",
    "duplicated_cas_no": "",
    "SMILES": "C(CCOC1=CC=CC=C1)[N+]23C[C@H](OC(C(O)(C4=CC=CS4)C5=CC=CS5)=O)C(CC2)CC3.[Br-]",
    "meta_data": {
        "InChI": "InChI=1S/C26H30NO4S2.BrH/c28-25(26(29,23-9-4-17-32-23)24-10-5-18-33-24)31-22-19-27(14-11-20(22)12-15-27)13-6-16-30-21-7-2-1-3-8-21;/h1-5,7-10,17-18,20,22,29H,6,11-16,19H2;1H/q+1;/p-1/t20?,22-,27?;/m0./s1",
        "InChIKey": null,
        "Canonical SMILES": "[Br-].O=C(OC1C[N+]2(CCCOC=3C=CC=CC3)CCC1CC2)C(O)(C=4SC=CC4)C=5SC=CC5",
        "Molecular Formula": "C<sub>26</sub>H<sub>30</sub>NO<sub>4</sub>S<sub>2</sub>.Br",
        "Molecular Mass": "",
        "Melting Point": "230 °C"
    }
}