{
    "cas_no": "1460-34-0",
    "key_name": "(±)-3-Methyl-2-oxovaleric acid",
    "cn_name": "3-甲基-2-氧基戊酸;3-甲基-2-氧基戊酸;",
    "alternate_name": "Pentanoic acid, 3-methyl-2-oxo-;Valeric acid, 3-methyl-2-oxo-;3-Methyl-2-oxopentanoic acid;α-Oxo-β-methylvaleric acid;α-Oxo-β-methyl-<em>n</em>-valeric acid;α-Keto-β-methylvaleric acid;α-<em>keto</em>-β-Methylvaleric acid;2-Oxoisoleucine;2-Oxo-3-methylvaleric acid;α-<em>keto</em>-β-Methyl-<em>n</em>-valeric acid;3-Methyl-2-oxovaleric acid;2-Oxo-3-methyl-<em>n</em>-valeric acid;<span class=\"text-smallcaps\">DL</span>-3-Ethyl-3-methylpyruvic acid;<em>dl</em>-3-Methyl-2-oxovaleric acid;<span class=\"text-smallcaps\">DL</span>-3-Methyl-2-oxopentanoic acid;<span class=\"text-smallcaps\">DL</span>-3-Methyl-2-oxopentanoate;2-Oxo-3-methylpentanoic acid;3-Methyl-2-ketovaleric acid;(±)-3-Methyl-2-oxovaleric acid;2-Oxo-3(RS)-methylvaleric acid",
    "duplicated_cas_no": "39748-49-7",
    "SMILES": "C(C(CC)C)(C(O)=O)=O",
    "meta_data": {
        "InChI": "InChI=1S/C6H10O3/c1-3-4(2)5(7)6(8)9/h4H,3H2,1-2H3,(H,8,9)",
        "InChIKey": null,
        "Canonical SMILES": "O=C(O)C(=O)C(C)CC",
        "Molecular Formula": "C<sub>6</sub>H<sub>10</sub>O<sub>3</sub>",
        "Molecular Mass": "130.14",
        "Boiling Point": "78-80 °C @ Press: 12 Torr",
        "Melting Point": "30 °C"
    }
}