{
    "cas_no": "39255-32-8",
    "key_name": "Ethyl 2-methylpentanoate",
    "cn_name": "2-甲基戊酸乙酯;",
    "alternate_name": "Pentanoic acid, 2-methyl-, ethyl ester;Ethyl α-methylvalerate;Ethyl 2-methylpentanoate;Ethyl 2-methylvalerate;Manzanate;Applinate",
    "duplicated_cas_no": "177771-95-8",
    "SMILES": "C(C(OCC)=O)(CCC)C",
    "meta_data": {
        "InChI": "InChI=1S/C8H16O2/c1-4-6-7(3)8(9)10-5-2/h7H,4-6H2,1-3H3",
        "InChIKey": null,
        "Canonical SMILES": "O=C(OCC)C(C)CCC",
        "Molecular Formula": "C<sub>8</sub>H<sub>16</sub>O<sub>2</sub>",
        "Molecular Mass": "144.21",
        "Boiling Point": "153.5-154 °C @ Press: 758 Torr"
    }
}