{
    "cas_no": "461642-78-4",
    "key_name": "<em>S</em>-1-Dodecyl-<em>S</em>′-(α,α′-dimethyl-α′′-acetic acid) trithiocarbonate",
    "cn_name": "三硫代碳酸酯;",
    "alternate_name": "Propanoic acid, 2-[[(dodecylthio)thioxomethyl]thio]-2-methyl-;2-[[(Dodecylthio)thioxomethyl]thio]-2-methylpropanoic acid;2-[(Dodecylsulfanyl)carbonothioyl]sulfanyl]-2-methylpropanoic acid;2-(Dodecylsulfanylthiocarbonylsulfanyl)-2-methylpropionic acid;<em>S</em>-1-Dodecyl <em>S</em>′-(α,α-dimethylacetic acid) trithiocarbonate;2-[Dodecylthio(thiocarbonyl)thio]-2-methylpropionic acid;2-(Dodecylthiocarbonothioylthio)-2-methylpropionic acid;2-Methyl-2-[(dodecylsulfanylthiocarbonyl)sulfanyl]propanoic acid;2-(Dodecylthiocarbonothioylthio)-2-methylpropanoic acid;<em>S</em>-1-Dodecyl-<em>S</em>′-(α,α′-dimethyl-α′′-acetic acid) trithiocarbonate;DDATC;<em>S</em>-1-Dodecyl-<em>S</em>′-(α,α-dimethyl-α′′-acetic acid) trithiocarbonate;<em>S</em>-Dodecyl-<em>S</em>′-(α,α′-dimethyl-α′′-acetic acid) trithiocarbonate;<em>S</em>-1-Dodecyl-<em>S</em>′′-(α,α′-dimethyl-α′′-acetic acid)trithiocarbonate;2-[[(Dodecylsulfanyl)carbonothioyl]sulfanyl]-2-methylpropionic acid;DDMAT",
    "duplicated_cas_no": "1605346-99-3",
    "SMILES": "C(SCCCCCCCCCCCC)(SC(C(O)=O)(C)C)=S",
    "meta_data": {
        "InChI": "InChI=1S/C17H32O2S3/c1-4-5-6-7-8-9-10-11-12-13-14-21-16(20)22-17(2,3)15(18)19/h4-14H2,1-3H3,(H,18,19)",
        "InChIKey": null,
        "Canonical SMILES": "O=C(O)C(SC(=S)SCCCCCCCCCCCC)(C)C",
        "Molecular Formula": "C<sub>17</sub>H<sub>32</sub>O<sub>2</sub>S<sub>3</sub>",
        "Molecular Mass": "364.63",
        "Melting Point": "60-61 °C"
    }
}