{
    "cas_no": "32580-26-0",
    "key_name": "<em>N</em>-(2-Benzoyl-4-chlorophenyl)-2-bromoacetamide",
    "cn_name": null,
    "alternate_name": "Acetamide, <em>N</em>-(2-benzoyl-4-chlorophenyl)-2-bromo-;Acetanilide, 2′-benzoyl-2-bromo-4′-chloro-;<em>N</em>-(2-Benzoyl-4-chlorophenyl)-2-bromoacetamide;2-(Bromoacetamido)-5-chlorobenzophenone;2′-Benzoyl-2-bromo-4′-chloroacetanilide;2-(2-Bromoacetamido)-5-chlorobenzophenone;5-Chloro-2-(bromoacetamido)benzophenone",
    "duplicated_cas_no": "2233573-35-6",
    "SMILES": "C(=O)(C1=C(NC(CBr)=O)C=CC(Cl)=C1)C2=CC=CC=C2",
    "meta_data": {
        "InChI": "InChI=1S/C15H11BrClNO2/c16-9-14(19)18-13-7-6-11(17)8-12(13)15(20)10-4-2-1-3-5-10/h1-8H,9H2,(H,18,19)",
        "InChIKey": null,
        "Canonical SMILES": "O=C(C=1C=CC=CC1)C2=CC(Cl)=CC=C2NC(=O)CBr",
        "Molecular Formula": "C<sub>15</sub>H<sub>11</sub>BrClNO<sub>2</sub>",
        "Molecular Mass": "352.61",
        "Melting Point": "125.5 °C"
    }
}