{
    "cas_no": "702-62-5",
    "key_name": "1,3-Diazaspiro[4.5]decane-2,4-dione",
    "cn_name": "1,3-二氮杂螺[4,5]癸烷-2,4-二酮;1,3-二氮杂螺[4,5]癸烷-2,4-二酮;",
    "alternate_name": "1,3-Diazaspiro[4.5]decane-2,4-dione;5,5-Pentamethylenehydantoin;Spiro[cyclohexane-1,5′-hydantoin];Ba 2840;5,5-Pentamethylenespirohydantoin;5,5′-Cyclohexanespirohydantoin;NSC 16617;NSC 172110",
    "duplicated_cas_no": "",
    "SMILES": "O=C1C2(NC(=O)N1)CCCCC2",
    "meta_data": {
        "InChI": "InChI=1S/C8H12N2O2/c11-6-8(10-7(12)9-6)4-2-1-3-5-8/h1-5H2,(H2,9,10,11,12)",
        "InChIKey": null,
        "Canonical SMILES": "O=C1NC(=O)C2(N1)CCCCC2",
        "Molecular Formula": "C<sub>8</sub>H<sub>12</sub>N<sub>2</sub>O<sub>2</sub>",
        "Molecular Mass": "168.19",
        "Melting Point": "215 °C"
    }
}