{
    "cas_no": "56079-16-4",
    "key_name": "Ethyl 1,3,5-trimethyl-1<em>H</em>-pyrazole-4-carboxylate",
    "cn_name": null,
    "alternate_name": "1<em>H</em>-Pyrazole-4-carboxylic acid, 1,3,5-trimethyl-, ethyl ester;Ethyl 1,3,5-trimethyl-1<em>H</em>-pyrazole-4-carboxylate;4-Carbethoxy-1,3,5-trimethylpyrazole;1,3,5-Trimethyl-4-ethoxycarbonylpyrazole",
    "duplicated_cas_no": "",
    "SMILES": "C(OCC)(=O)C1=C(C)N(C)N=C1C",
    "meta_data": {
        "InChI": "InChI=1S/C9H14N2O2/c1-5-13-9(12)8-6(2)10-11(4)7(8)3/h5H2,1-4H3",
        "InChIKey": null,
        "Canonical SMILES": "O=C(OCC)C=1C(=NN(C1C)C)C",
        "Molecular Formula": "C<sub>9</sub>H<sub>14</sub>N<sub>2</sub>O<sub>2</sub>",
        "Molecular Mass": "182.22",
        "Boiling Point": "53-55 °C @ Press: 0.5 Torr",
        "Melting Point": "37 °C"
    }
}