{
    "cas_no": "18470-76-3",
    "key_name": "3-Decyldihydro-2,5-furandione",
    "cn_name": "癸基琥珀酸酐;",
    "alternate_name": "2,5-Furandione, 3-decyldihydro-;Succinic anhydride, decyl-;3-Decyldihydro-2,5-furandione;Decylsuccinic anhydride;<em>n</em>-Decylsuccinic anhydride;NSC 80684;3-Decyloxolane-2,5-dione",
    "duplicated_cas_no": "",
    "SMILES": "C(CCCCCCCCC)C1C(=O)OC(=O)C1",
    "meta_data": {
        "InChI": "InChI=1S/C14H24O3/c1-2-3-4-5-6-7-8-9-10-12-11-13(15)17-14(12)16/h12H,2-11H2,1H3",
        "InChIKey": null,
        "Canonical SMILES": "O=C1OC(=O)C(C1)CCCCCCCCCC",
        "Molecular Formula": "C<sub>14</sub>H<sub>24</sub>O<sub>3</sub>",
        "Molecular Mass": "240.34",
        "Melting Point": "70-71 °C"
    }
}