{
    "cas_no": "93-92-5",
    "key_name": "1-Phenylethyl acetate",
    "cn_name": "乙酸苏合香酯;",
    "alternate_name": "Benzenemethanol, α-methyl-, 1-acetate;Benzyl alcohol, α-methyl-, acetate;Benzenemethanol, α-methyl-, acetate;Gardeniol II;Gardenol;α-Methylbenzyl acetate;α-Methylbenzyl alcohol, acetate;Methyl phenyl carbinyl acetate;<em>sec</em>-Phenylethyl acetate;α-Phenylethyl acetate;1-Phenylethyl acetate;Methylphenylcarbinol acetate;<em>sec</em>-Phenethyl acetate;Styrallyl acetate;Styrylallyl acetate;α-Phenethyl acetate;1-Acetoxy-1-phenylethane;(±)-α-Phenethyl acetate;<em>dl</em>-1-Phenylethyl acetate;(±)-Styrallyl acetate;α-Methylbenzenemethanol acetate;(±)-α-Methylbenzyl acetate;NSC 2397;Styrolyl acetate",
    "duplicated_cas_no": "1335-75-7;50373-55-2",
    "SMILES": "C(OC(C)=O)(C)C1=CC=CC=C1",
    "meta_data": {
        "InChI": "InChI=1S/C10H12O2/c1-8(12-9(2)11)10-6-4-3-5-7-10/h3-8H,1-2H3",
        "InChIKey": null,
        "Canonical SMILES": "O=C(OC(C=1C=CC=CC1)C)C",
        "Molecular Formula": "C<sub>10</sub>H<sub>12</sub>O<sub>2</sub>",
        "Molecular Mass": "164.20",
        "Boiling Point": "222 °C",
        "Density": "1.0715 g/cm³ @ Temp: 25 °C"
    }
}