{
    "cas_no": "870-46-2",
    "key_name": "<em>tert</em>-Butyl carbazate",
    "cn_name": "肼基甲酸叔丁酯;叔丁基咔唑;",
    "alternate_name": "Hydrazinecarboxylic acid, 1,1-dimethylethyl ester;Carbazic acid, <em>tert</em>-butyl ester;<em>tert</em>-Butyl carbazate;(<em>tert</em>-Butoxycarbonyl)hydrazide;(<em>tert</em>-Butyloxycarbonyl)hydrazide;Hydrazinecarboxylic acid <em>tert</em>-butyl ester;(<em>tert</em>-Butoxycarbonyl)hydrazine;1-(<em>tert</em>-Butoxycarbonyl)hydrazine;1,1-Dimethylethyl carbazate;<em>N</em>-(<em>tert</em>-Butoxycarbonyl)hydrazine;<em>tert</em>-Butyl hydrazinecarboxylate;NSC 60250;Hydrazinecarboxylic acid tert-butyl ester;<em>N</em>-Boc-hydrazine;1,1-Dimethylethyl hydrazinecarboxylate;Boc-hydrazine;<em>tert</em>-Butyl <em>N</em>-aminocarbamate;<em>tert</em>-Butyl hydrazinoformate",
    "duplicated_cas_no": "2408684-07-9",
    "SMILES": "O(C(C)(C)C)C(NN)=O",
    "meta_data": {
        "InChI": "InChI=1S/C5H12N2O2/c1-5(2,3)9-4(8)7-6/h6H2,1-3H3,(H,7,8)",
        "InChIKey": null,
        "Canonical SMILES": "O=C(OC(C)(C)C)NN",
        "Molecular Formula": "C<sub>5</sub>H<sub>12</sub>N<sub>2</sub>O<sub>2</sub>",
        "Molecular Mass": "132.16",
        "Boiling Point": "76 °C @ Press: 4 Torr",
        "Melting Point": "38.5-39 °C"
    }
}