{
    "cas_no": "18495-27-7",
    "key_name": "1-Bromo-2-octyne",
    "cn_name": "1-溴-2辛炔;",
    "alternate_name": "2-Octyne, 1-bromo-;1-Bromo-2-octyne;2-Octynyl bromide",
    "duplicated_cas_no": "",
    "SMILES": "C(C#CCBr)CCCC",
    "meta_data": {
        "InChI": "InChI=1S/C8H13Br/c1-2-3-4-5-6-7-8-9/h2-5,8H2,1H3",
        "InChIKey": null,
        "Canonical SMILES": "BrCC#CCCCCC",
        "Molecular Formula": "C<sub>8</sub>H<sub>13</sub>Br",
        "Molecular Mass": "189.09",
        "Boiling Point": "95 °C @ Press: 12 Torr",
        "Density": "1.1666 g/cm³ @ Temp: 20 °C"
    }
}