{
    "cas_no": "2162-98-3",
    "key_name": "1,10-Dichlorodecane",
    "cn_name": null,
    "alternate_name": "Decane, 1,10-dichloro-;1,10-Dichlorodecane;NSC 9484",
    "duplicated_cas_no": "",
    "SMILES": "C(CCCCCCl)CCCCCl",
    "meta_data": {
        "InChI": "InChI=1S/C10H20Cl2/c11-9-7-5-3-1-2-4-6-8-10-12/h1-10H2",
        "InChIKey": null,
        "Canonical SMILES": "ClCCCCCCCCCCCl",
        "Molecular Formula": "C<sub>10</sub>H<sub>20</sub>Cl<sub>2</sub>",
        "Molecular Mass": "211.17",
        "Boiling Point": "104-110 °C @ Press: 2 Torr",
        "Melting Point": "15.6 °C",
        "Density": "0.9853 g/cm³ @ Temp: 27 °C"
    }
}