{
    "cas_no": "18073-84-2",
    "key_name": "1,3-Di-(<em>N</em>-β-hydroxyethyl-4-piperidyl)propane",
    "cn_name": "1,3-二[1-(2-羟乙基)-4-呱啶基]丙烷;",
    "alternate_name": "1-Piperidineethanol, 4,4′-(1,3-propanediyl)bis-;1-Piperidineethanol, 4,4′-trimethylenedi-;4,4′-(1,3-Propanediyl)bis[1-piperidineethanol];1,3-Bis[<em>N</em>-(β-hydroxyethyl)-4-piperidyl]propane;1,3-Di-(<em>N</em>-β-hydroxyethyl-4-piperidyl)propane;S 43259-8;NSC 99743;2-(4-[3-[1-(2-Hydroxyethyl)piperidin-4-yl]propyl]piperidin-1-yl)ethan-1-ol",
    "duplicated_cas_no": "",
    "SMILES": "C(CCC1CCN(CCO)CC1)C2CCN(CCO)CC2",
    "meta_data": {
        "InChI": "InChI=1S/C17H34N2O2/c20-14-12-18-8-4-16(5-9-18)2-1-3-17-6-10-19(11-7-17)13-15-21/h16-17,20-21H,1-15H2",
        "InChIKey": null,
        "Canonical SMILES": "OCCN1CCC(CC1)CCCC2CCN(CCO)CC2",
        "Molecular Formula": "C<sub>17</sub>H<sub>34</sub>N<sub>2</sub>O<sub>2</sub>",
        "Molecular Mass": "298.46",
        "Boiling Point": "219 °C @ Press: 1 Torr",
        "Melting Point": "95 °C"
    }
}