{
    "cas_no": "90717-03-6",
    "key_name": "Quinmerac",
    "cn_name": "喹草酸;7-氯-3-甲基-8-喹啉羧酸;",
    "alternate_name": "8-Quinolinecarboxylic acid, 7-chloro-3-methyl-;7-Chloro-3-methyl-8-quinolinecarboxylic acid;BAS 518H;BAS 518;Quinmerac;BAS 51802H",
    "duplicated_cas_no": "",
    "SMILES": "C(O)(=O)C=1C2=C(C=CC1Cl)C=C(C)C=N2",
    "meta_data": {
        "InChI": "InChI=1S/C11H8ClNO2/c1-6-4-7-2-3-8(12)9(11(14)15)10(7)13-5-6/h2-5H,1H3,(H,14,15)",
        "InChIKey": null,
        "Canonical SMILES": "O=C(O)C1=C(Cl)C=CC2=CC(=CN=C21)C",
        "Molecular Formula": "C<sub>11</sub>H<sub>8</sub>ClNO<sub>2</sub>",
        "Molecular Mass": "221.64",
        "Melting Point": "244 °C"
    }
}