{
    "cas_no": "3238-60-6",
    "key_name": "2-Propylpiperidine",
    "cn_name": "2-丙基哌啶;",
    "alternate_name": "Piperidine, 2-propyl-;Piperidine, 2-propyl-, (±)-;Coniine, <span class=\"text-smallcaps\">DL</span>-;2-Propylpiperidine;<em>dl</em>-Coniine;(±)-Coniine",
    "duplicated_cas_no": "10388-95-1",
    "SMILES": "C(CC)C1CCCCN1",
    "meta_data": {
        "InChI": "InChI=1S/C8H17N/c1-2-5-8-6-3-4-7-9-8/h8-9H,2-7H2,1H3",
        "InChIKey": null,
        "Canonical SMILES": "N1CCCCC1CCC",
        "Molecular Formula": "C<sub>8</sub>H<sub>17</sub>N",
        "Molecular Mass": "127.23",
        "Boiling Point": "56-60 °C @ Press: 13 Torr",
        "Melting Point": "98-100 °C"
    }
}