{
    "cas_no": "3994-50-1",
    "key_name": "1-Methyl-4-nitro-1<em>H</em>-pyrazole",
    "cn_name": null,
    "alternate_name": "1<em>H</em>-Pyrazole, 1-methyl-4-nitro-;Pyrazole, 1-methyl-4-nitro-;1-Methyl-4-nitro-1<em>H</em>-pyrazole;1-Methyl-4-nitropyrazole",
    "duplicated_cas_no": "",
    "SMILES": "N(=O)(=O)C1=CN(C)N=C1",
    "meta_data": {
        "InChI": "InChI=1S/C4H5N3O2/c1-6-3-4(2-5-6)7(8)9/h2-3H,1H3",
        "InChIKey": null,
        "Canonical SMILES": "O=N(=O)C=1C=NN(C1)C",
        "Molecular Formula": "C<sub>4</sub>H<sub>5</sub>N<sub>3</sub>O<sub>2</sub>",
        "Molecular Mass": "127.10",
        "Melting Point": "91-92 °C"
    }
}