{
    "cas_no": "832-71-3",
    "key_name": "3-Methylphenanthrene",
    "cn_name": "3-甲基菲;",
    "alternate_name": "Phenanthrene, 3-methyl-;3-Methylphenanthrene;NSC 408897",
    "duplicated_cas_no": "",
    "SMILES": "CC1=CC2=C3C(=CC=C2C=C1)C=CC=C3",
    "meta_data": {
        "InChI": "InChI=1S/C15H12/c1-11-6-7-13-9-8-12-4-2-3-5-14(12)15(13)10-11/h2-10H,1H3",
        "InChIKey": null,
        "Canonical SMILES": "C=1C=CC2=C(C1)C=CC=3C=CC(=CC32)C",
        "Molecular Formula": "C<sub>15</sub>H<sub>12</sub>",
        "Molecular Mass": "192.26",
        "Boiling Point": "350 °C",
        "Melting Point": "65 °C",
        "Density": "1.100 g/cm³"
    }
}