{
    "cas_no": "362-43-6",
    "key_name": "2′,3′-<em>O</em>-Isopropylideneuridine",
    "cn_name": null,
    "alternate_name": "Uridine, 2′,3′-<em>O</em>-(1-methylethylidene)-;Uridine, 2′,3′-<em>O</em>-isopropylidene-;Furo[3,4-<em>d</em>]-1,3-dioxole, uridine deriv.;2′,3′-<em>O</em>-(1-Methylethylidene)uridine;Uridine 2′,3′-acetonide;2′,3′-<em>O</em>-Isopropylideneuridine;NSC 520038",
    "duplicated_cas_no": "80681-71-6;198699-05-7;1299596-14-7",
    "SMILES": "C(O)[C@@H]1[C@@]2([C@]([C@@H](O1)N3C(=O)NC(=O)C=C3)(OC(C)(C)O2)[H])[H]",
    "meta_data": {
        "InChI": "InChI=1S/C12H16N2O6/c1-12(2)19-8-6(5-15)18-10(9(8)20-12)14-4-3-7(16)13-11(14)17/h3-4,6,8-10,15H,5H2,1-2H3,(H,13,16,17)/t6-,8-,9-,10-/m1/s1",
        "InChIKey": null,
        "Canonical SMILES": "O=C1C=CN(C(=O)N1)C2OC(CO)C3OC(OC23)(C)C",
        "Molecular Formula": "C<sub>12</sub>H<sub>16</sub>N<sub>2</sub>O<sub>6</sub>",
        "Molecular Mass": "284.27",
        "Melting Point": "168-170 °C"
    }
}