{
    "cas_no": "29745-04-8",
    "key_name": "Norcantharidin",
    "cn_name": "外型-7-氧杂二环[2.2.1]庚烷-2,3-二羧酸酐;外型-7-氧杂二环[2.2.1]庚烷-2,3-二羧酸酐;二甲基-5-降冰片烯-2,;",
    "alternate_name": "4,7-Epoxyisobenzofuran-1,3-dione, hexahydro-, (3a<em>R</em>,4<em>S</em>,7<em>R</em>,7a<em>S</em>)-<em>rel</em>-;7-Oxabicyclo[2.2.1]heptane-2,3-dicarboxylic anhydride, <em>exo</em>-;4,7-Epoxyisobenzofuran-1,3-dione, hexahydro-, (3aα,4β,7β,7aα)-;<em>rel</em>-(3a<em>R</em>,4<em>S</em>,7<em>R</em>,7a<em>S</em>)-Hexahydro-4,7-epoxyisobenzofuran-1,3-dione;7-Oxabicyclo[2.2.1]heptane-<em>exo</em>-<em>cis</em>-2,3-dicarboxylic anhydride;Norcantharidin;NSC 59023;(3a<em>R</em>,4<em>S</em>,7<em>R</em>,7a<em>S</em>)-<em>rel</em>-Hexahydro-4,7-epoxyisobenzofuran-1,3-dione;Isocantharidin;Demethylcantharidin;<em>exo</em>-7-Oxabicyclo[2.2.1]heptane-2,3-dicarboxylic acid anhydride",
    "duplicated_cas_no": "167933-28-0;201815-15-8;204204-47-7;433956-00-4;1446101-67-2;1474031-41-8;2398563-52-3;2903470-98-2",
    "SMILES": "O=C1[C@]2([C@]([C@]3(O[C@@]2(CC3)[H])[H])(C(=O)O1)[H])[H]",
    "meta_data": {
        "InChI": "InChI=1/C8H8O4/c9-7-5-3-1-2-4(11-3)6(5)8(10)12-7/h3-6H,1-2H2/t3-,4+,5-,6+",
        "InChIKey": null,
        "Canonical SMILES": "O=C1OC(=O)C2C3OC(CC3)C12",
        "Molecular Formula": "C<sub>8</sub>H<sub>8</sub>O<sub>4</sub>",
        "Molecular Mass": "168.15",
        "Melting Point": "116-117 °C"
    }
}