{
    "cas_no": "106910-77-4",
    "key_name": "<em>N</em>-(Phenylmethyl)-<span class=\"text-smallcaps\">D</span>-serine",
    "cn_name": null,
    "alternate_name": "<span class=\"text-smallcaps\">D</span>-Serine, <em>N</em>-(phenylmethyl)-;<em>N</em>-(Phenylmethyl)-<span class=\"text-smallcaps\">D</span>-serine;(<em>R</em>)-2-Benzylamino-3-hydroxypropionic acid;<em>N</em>-Benzyl-<span class=\"text-smallcaps\">D</span>-serine;(2R)-2-(Benzylamino)-3-hydroxypropanoic acid;(R)-2-(Benzylamino)-3-hydroxypropanoic acid",
    "duplicated_cas_no": "",
    "SMILES": "C(N[C@@H](C(O)=O)CO)C1=CC=CC=C1",
    "meta_data": {
        "InChI": "InChI=1S/C10H13NO3/c12-7-9(10(13)14)11-6-8-4-2-1-3-5-8/h1-5,9,11-12H,6-7H2,(H,13,14)/t9-/m1/s1",
        "InChIKey": null,
        "Canonical SMILES": "O=C(O)C(NCC=1C=CC=CC1)CO",
        "Molecular Formula": "C<sub>10</sub>H<sub>13</sub>NO<sub>3</sub>",
        "Molecular Mass": "195.22",
        "Melting Point": "235-237 °C"
    }
}