{
    "cas_no": "104-28-9",
    "key_name": "Cinoxate",
    "cn_name": "西诺沙酯;西诺沙酯;",
    "alternate_name": "2-Propenoic acid, 3-(4-methoxyphenyl)-, 2-ethoxyethyl ester;Cinnamic acid, <em>p</em>-methoxy-, 2-ethoxyethyl ester;Ethanol, 2-ethoxy-, <em>p</em>-methoxycinnamate;2-Ethoxyethyl <em>p</em>-methoxycinnamate;Cinoxate;Giv Tan F;<em>p</em>-Methoxycinnamic acid 2-ethoxyethyl ester;Give-Tan;Sundare;Phiasol;2-Ethoxyethyl 4-methoxycinnamate",
    "duplicated_cas_no": "1322-65-2",
    "SMILES": "C(=CC(OCCOCC)=O)C1=CC=C(OC)C=C1",
    "meta_data": {
        "InChI": "InChI=1S/C14H18O4/c1-3-17-10-11-18-14(15)9-6-12-4-7-13(16-2)8-5-12/h4-9H,3,10-11H2,1-2H3",
        "InChIKey": null,
        "Canonical SMILES": "O=C(OCCOCC)C=CC1=CC=C(OC)C=C1",
        "Molecular Formula": "C<sub>14</sub>H<sub>18</sub>O<sub>4</sub>",
        "Molecular Mass": "250.29",
        "Boiling Point": "185.5 °C",
        "Melting Point": "-25 °C",
        "Density": "1.1000 g/cm³"
    }
}