{
    "cas_no": "485-47-2",
    "key_name": "Ninhydrin",
    "cn_name": "水合茚三酮;2,2-二羟基-1H-茚并-1,3(2H)-二酮水合物;",
    "alternate_name": "1<em>H</em>-Indene-1,3(2<em>H</em>)-dione, 2,2-dihydroxy-;1,3-Indandione, 2,2-dihydroxy-;2,2-Dihydroxy-1<em>H</em>-indene-1,3(2<em>H</em>)-dione;2,2-Dihydroxy-1,3-indandione;Ninhydrin;Triketohydrindene hydrate;1<em>H</em>-Indene-1,2,3-trione, 2-hydrate;Indane-1,2,3-trione monohydrate;2,3-Dihydro-2,2-dihydroxy-1,3-dioxo-1<em>H</em>-indene;2,2-Dihydroxy-1,3-dioxoindan;2,2-Dihydroxyindane-1,3-dione;2,2-Dihydroxyindene-1,3-dione;2,2-Dihydroxy-2,3-dihydro-1<em>H</em>-indene-1,3-dione;MeSH ID: D009555",
    "duplicated_cas_no": "",
    "SMILES": "O=C1C=2C(C(=O)C1(O)O)=CC=CC2",
    "meta_data": {
        "InChI": "InChI=1S/C9H6O4/c10-7-5-3-1-2-4-6(5)8(11)9(7,12)13/h1-4,12-13H",
        "InChIKey": null,
        "Canonical SMILES": "O=C1C=2C=CC=CC2C(=O)C1(O)O",
        "Molecular Formula": "C<sub>9</sub>H<sub>6</sub>O<sub>4</sub>",
        "Molecular Mass": "178.14",
        "Melting Point": "242 °C (decomp)"
    }
}