{
    "cas_no": "122-39-4",
    "key_name": "Diphenylamine",
    "cn_name": "二苯胺;",
    "alternate_name": "Benzenamine, <em>N</em>-phenyl-;Diphenylamine;<em>N</em>-Phenylbenzenamine;Anilinobenzene;DFA;DPA;Benzene, (phenylamino)-;<em>N</em>,<em>N</em>-Diphenylamine;<em>N</em>-Phenylaniline;DBA;No-Scald;Naugalube 428L;NSC 215210;Antioxidant DPA;<em>N</em>-Phenyl-α-aniline;MeSH ID: D004159",
    "duplicated_cas_no": "1135443-74-1",
    "SMILES": "N(C1=CC=CC=C1)C2=CC=CC=C2",
    "meta_data": {
        "InChI": "InChI=1S/C12H11N/c1-3-7-11(8-4-1)13-12-9-5-2-6-10-12/h1-10,13H",
        "InChIKey": null,
        "Canonical SMILES": "C=1C=CC(=CC1)NC=2C=CC=CC2",
        "Molecular Formula": "C<sub>12</sub>H<sub>11</sub>N",
        "Molecular Mass": "169.22",
        "Boiling Point": "302 °C",
        "Melting Point": "53-54 °C",
        "Density": "1.16 g/cm³"
    }
}