{
    "cas_no": "1003-38-9",
    "key_name": "2,5-Dimethyltetrahydrofuran",
    "cn_name": "2,5-二甲基四氢呋喃;",
    "alternate_name": "Furan, tetrahydro-2,5-dimethyl-;Tetrahydro-2,5-dimethylfuran;2,5-Dimethyltetrahydrofuran;2,5-Dimethyloxolane;NSC 12594",
    "duplicated_cas_no": "",
    "SMILES": "CC1OC(C)CC1",
    "meta_data": {
        "InChI": "InChI=1S/C6H12O/c1-5-3-4-6(2)7-5/h5-6H,3-4H2,1-2H3",
        "InChIKey": null,
        "Canonical SMILES": "O1C(C)CCC1C",
        "Molecular Formula": "C<sub>6</sub>H<sub>12</sub>O",
        "Molecular Mass": "100.16",
        "Boiling Point": "90-92 °C",
        "Density": "0.8270 g/cm³ @ Temp: 20 °C"
    }
}