{
    "cas_no": "50472-20-3",
    "key_name": "2-Azulenamine",
    "cn_name": null,
    "alternate_name": "2-Azulenamine;2-Aminoazulene",
    "duplicated_cas_no": "",
    "SMILES": "NC1=CC=2C(=C1)C=CC=CC2",
    "meta_data": {
        "InChI": "InChI=1S/C10H9N/c11-10-6-8-4-2-1-3-5-9(8)7-10/h1-7H,11H2",
        "InChIKey": null,
        "Canonical SMILES": "NC=1C=C2C=CC=CC=C2C1",
        "Molecular Formula": "C<sub>10</sub>H<sub>9</sub>N",
        "Molecular Mass": "143.19",
        "Melting Point": "93-94 °C"
    }
}