{
    "cas_no": "532-34-3",
    "key_name": "Butopyronoxyl",
    "cn_name": "避蚊酮;避虫酮;Indalone;避蟲酮;",
    "alternate_name": "2<em>H</em>-Pyran-6-carboxylic acid, 3,4-dihydro-2,2-dimethyl-4-oxo-, butyl ester;Butopyronoxyl;Butyl 3,4-dihydro-2,2-dimethyl-4-oxo-2<em>H</em>-pyran-6-carboxylate;<em>n</em>-Butyl ester of 3,4-dihydro-2,2-dimethyl-4-oxo-2<em>H</em>-pyran-6-carboxylic acid;2-Carbo-<em>n</em>-butoxy-6,6-dimethyl-5,6-dihydro-1,4-pyrone;2,2-Dimethyl-6-carbobutoxy-2,3-dihydro-4-pyrone;α,α-Dimethyl-α′-carbobutoxy-dihydro-γ-pyrone;Indalone;BMOO;Butyl mesityl oxide oxalate;NSC 404420;NSC 5750",
    "duplicated_cas_no": "1341-44-2;8039-36-9",
    "SMILES": "C(OCCCC)(=O)C=1OC(C)(C)CC(=O)C1",
    "meta_data": {
        "InChI": "InChI=1S/C12H18O4/c1-4-5-6-15-11(14)10-7-9(13)8-12(2,3)16-10/h7H,4-6,8H2,1-3H3",
        "InChIKey": null,
        "Canonical SMILES": "O=C(OCCCC)C=1OC(C)(C)CC(=O)C1",
        "Molecular Formula": "C<sub>12</sub>H<sub>18</sub>O<sub>4</sub>",
        "Molecular Mass": "226.27",
        "Boiling Point": "256-270 °C @ Press: 760 Torr",
        "Melting Point": "&lt;25 °C",
        "Density": "1.052-1.060 g/cm³ @ Temp: 25 °C"
    }
}