{
    "cas_no": "4107-65-7",
    "key_name": "2,4-Dimethoxybenzonitrile",
    "cn_name": "2,4-二甲氧基苯甲腈;2,4-二甲氧基苯腈;",
    "alternate_name": "Benzonitrile, 2,4-dimethoxy-;2,4-Dimethoxybenzonitrile;1-Cyano-2,4-dimethoxybenzene;4-Cyano-3-methoxyanisole;NSC 27020",
    "duplicated_cas_no": "",
    "SMILES": "O(C)C1=C(C#N)C=CC(OC)=C1",
    "meta_data": {
        "InChI": "InChI=1S/C9H9NO2/c1-11-8-4-3-7(6-10)9(5-8)12-2/h3-5H,1-2H3",
        "InChIKey": null,
        "Canonical SMILES": "N#CC1=CC=C(OC)C=C1OC",
        "Molecular Formula": "C<sub>9</sub>H<sub>9</sub>NO<sub>2</sub>",
        "Molecular Mass": "163.17",
        "Boiling Point": "165-170 °C @ Press: 5 Torr",
        "Melting Point": "95-96 °C"
    }
}