{
    "cas_no": "552-63-6",
    "key_name": "(±)-Tropic acid",
    "cn_name": "DL-托品酸;",
    "alternate_name": "Benzeneacetic acid, α-(hydroxymethyl)-;Tropic acid, (±)-;Benzeneacetic acid, α-(hydroxymethyl)-, (±)-;α-(Hydroxymethyl)benzeneacetic acid;(±)-Tropic acid;<em>dl</em>-Tropic acid;<span class=\"text-smallcaps\">DL</span>-Tropic acid;Tropic acid;2-Phenylhydracrylic acid;3-Hydroxy-2-phenylpropionic acid;(±)-2-Phenyl-3-hydroxypropionic acid;2-Phenyl-3-hydroxypropionic acid;(±)-3-Hydroxy-2-phenylpropionic acid;2-Phenyl-3-hydroxypropanoic acid;NSC 20990;3-Hydroxy-2-phenylpropanoicacid",
    "duplicated_cas_no": "529-64-6;28845-94-5",
    "SMILES": "C(C(O)=O)(CO)C1=CC=CC=C1",
    "meta_data": {
        "InChI": "InChI=1S/C9H10O3/c10-6-8(9(11)12)7-4-2-1-3-5-7/h1-5,8,10H,6H2,(H,11,12)",
        "InChIKey": null,
        "Canonical SMILES": "O=C(O)C(C=1C=CC=CC1)CO",
        "Molecular Formula": "C<sub>9</sub>H<sub>10</sub>O<sub>3</sub>",
        "Molecular Mass": "166.17",
        "Melting Point": "118 °C"
    }
}