{
    "cas_no": "54881-13-9",
    "key_name": "<em>N</em>-Benzyl-3-hydroxyazetidine",
    "cn_name": null,
    "alternate_name": "3-Azetidinol, 1-(phenylmethyl)-;1-(Phenylmethyl)-3-azetidinol;1-Benzyl-3-azetidinol;<em>N</em>-Benzyl-3-hydroxyazetidine;1-Benzyl-3-hydroxyazetidine",
    "duplicated_cas_no": "",
    "SMILES": "C(N1CC(O)C1)C2=CC=CC=C2",
    "meta_data": {
        "InChI": "InChI=1S/C10H13NO/c12-10-7-11(8-10)6-9-4-2-1-3-5-9/h1-5,10,12H,6-8H2",
        "InChIKey": null,
        "Canonical SMILES": "OC1CN(CC=2C=CC=CC2)C1",
        "Molecular Formula": "C<sub>10</sub>H<sub>13</sub>NO",
        "Molecular Mass": "163.22",
        "Melting Point": "64-65 °C"
    }
}