{
    "cas_no": "915095-87-3",
    "key_name": "(2-Chloro-5-iodophenyl)[4-[[(3<em>S</em>)-tetrahydro-3-furanyl]oxy]phenyl]methanone",
    "cn_name": null,
    "alternate_name": "Methanone, (2-chloro-5-iodophenyl)[4-[[(3<em>S</em>)-tetrahydro-3-furanyl]oxy]phenyl]-;(2-Chloro-5-iodophenyl)[4-[[(3<em>S</em>)-tetrahydro-3-furanyl]oxy]phenyl]methanone;(2-Chloro-5-iodophenyl)-[4-[(3S)-oxolan-3-yl]oxyphenyl]methanone;(<em>S</em>)-(2-Chloro-5-iodophenyl)(4-((tetrahydrofuran-3-yl)oxy)phenyl)methanone",
    "duplicated_cas_no": "",
    "SMILES": "C(=O)(C1=C(Cl)C=CC(I)=C1)C2=CC=C(O[C@H]3CCOC3)C=C2",
    "meta_data": {
        "InChI": "InChI=1S/C17H14ClIO3/c18-16-6-3-12(19)9-15(16)17(20)11-1-4-13(5-2-11)22-14-7-8-21-10-14/h1-6,9,14H,7-8,10H2/t14-/m0/s1",
        "InChIKey": null,
        "Canonical SMILES": "O=C(C1=CC=C(OC2COCC2)C=C1)C3=CC(I)=CC=C3Cl",
        "Molecular Formula": "C<sub>17</sub>H<sub>14</sub>ClIO<sub>3</sub>",
        "Molecular Mass": "428.65",
        "Melting Point": "110-111 °C"
    }
}