{
    "cas_no": "16024-82-1",
    "key_name": "Benzoic acid, 2-isothiocyanato-, methyl ester",
    "cn_name": "2-甲氧基羰基苯基硫代异氰酸酯;",
    "alternate_name": "Benzoic acid, 2-isothiocyanato-, methyl ester;Benzoic acid, <em>o</em>-isothiocyanato-, methyl ester;Methyl 2-isothiocyanatobenzoate;2-(Methoxycarbonyl)phenyl isothiocyanate;2-Isothiocyanato-benzoic acid methyl ester",
    "duplicated_cas_no": "",
    "SMILES": "N(=C=S)C1=C(C(OC)=O)C=CC=C1",
    "meta_data": {
        "InChI": "InChI=1S/C9H7NO2S/c1-12-9(11)7-4-2-3-5-8(7)10-6-13/h2-5H,1H3",
        "InChIKey": null,
        "Canonical SMILES": "O=C(OC)C=1C=CC=CC1N=C=S",
        "Molecular Formula": "C<sub>9</sub>H<sub>7</sub>NO<sub>2</sub>S",
        "Molecular Mass": "193.22",
        "Boiling Point": "100-102 °C @ Press: 0.35 Torr"
    }
}