{
    "cas_no": "1860-26-0",
    "key_name": "Tris(2-ethylhexyl)amine",
    "cn_name": "三异辛胺;三异辛胺;",
    "alternate_name": "1-Hexanamine, 2-ethyl-<em>N</em>,<em>N</em>-bis(2-ethylhexyl)-;Trihexylamine, 2,2′,2′′-triethyl-;2-Ethyl-<em>N</em>,<em>N</em>-bis(2-ethylhexyl)-1-hexanamine;Tris(2-ethylhexyl)amine;Tri(2-ethylhexyl)amine;TEHA",
    "duplicated_cas_no": "",
    "SMILES": "N(CC(CCCC)CC)(CC(CCCC)CC)CC(CCCC)CC",
    "meta_data": {
        "InChI": "InChI=1S/C24H51N/c1-7-13-16-22(10-4)19-25(20-23(11-5)17-14-8-2)21-24(12-6)18-15-9-3/h22-24H,7-21H2,1-6H3",
        "InChIKey": null,
        "Canonical SMILES": "N(CC(CC)CCCC)(CC(CC)CCCC)CC(CC)CCCC",
        "Molecular Formula": "C<sub>24</sub>H<sub>51</sub>N",
        "Molecular Mass": "353.67",
        "Boiling Point": "120-125 °C @ Press: 0.1 Torr",
        "Density": "0.817 g/cm³ @ Temp: 20 °C"
    }
}