{
    "cas_no": "5326-23-8",
    "key_name": "6-Chloronicotinic acid",
    "cn_name": "6-氯烟酸;",
    "alternate_name": "3-Pyridinecarboxylic acid, 6-chloro-;Nicotinic acid, 6-chloro-;6-Chloro-3-pyridinecarboxylic acid;6-Chloronicotinic acid;2-Chloro-5-pyridinecarboxylic acid;3-Carboxy-6-chloropyridine;NSC 277;6-Chloropyridin-3-carboxylic acid",
    "duplicated_cas_no": "",
    "SMILES": "C(O)(=O)C=1C=CC(Cl)=NC1",
    "meta_data": {
        "InChI": "InChI=1S/C6H4ClNO2/c7-5-2-1-4(3-8-5)6(9)10/h1-3H,(H,9,10)",
        "InChIKey": null,
        "Canonical SMILES": "O=C(O)C1=CN=C(Cl)C=C1",
        "Molecular Formula": "C<sub>6</sub>H<sub>4</sub>ClNO<sub>2</sub>",
        "Molecular Mass": "157.55",
        "Melting Point": "199 °C"
    }
}