{
    "cas_no": "29051-44-3",
    "key_name": "6-Phenylnicotinic acid",
    "cn_name": null,
    "alternate_name": "3-Pyridinecarboxylic acid, 6-phenyl-;Nicotinic acid, 6-phenyl-;6-Phenyl-3-pyridinecarboxylic acid;2-Phenyl-5-pyridinecarboxylic acid;6-Phenylnicotinic acid;6-Phenylpyridine-3-carboxylic acid",
    "duplicated_cas_no": "",
    "SMILES": "C(O)(=O)C1=CC=C(N=C1)C2=CC=CC=C2",
    "meta_data": {
        "InChI": "InChI=1S/C12H9NO2/c14-12(15)10-6-7-11(13-8-10)9-4-2-1-3-5-9/h1-8H,(H,14,15)",
        "InChIKey": null,
        "Canonical SMILES": "O=C(O)C1=CN=C(C=C1)C=2C=CC=CC2",
        "Molecular Formula": "C<sub>12</sub>H<sub>9</sub>NO<sub>2</sub>",
        "Molecular Mass": "199.21",
        "Melting Point": "232-233 °C"
    }
}