{
    "cas_no": "496-64-0",
    "key_name": "3-Hydroxy-2-pyrone",
    "cn_name": null,
    "alternate_name": "2<em>H</em>-Pyran-2-one, 3-hydroxy-;2,4-Pentadienoic acid, 2,5-dihydroxy-, δ-lactone;3-Hydroxy-2<em>H</em>-pyran-2-one;3-Hydroxy-2-pyrone;3-Hydroxypyran-2-one;3-Hydroxy-α-pyrone",
    "duplicated_cas_no": "",
    "SMILES": "OC=1C(=O)OC=CC1",
    "meta_data": {
        "InChI": "InChI=1S/C5H4O3/c6-4-2-1-3-8-5(4)7/h1-3,6H",
        "InChIKey": null,
        "Canonical SMILES": "O=C1OC=CC=C1O",
        "Molecular Formula": "C<sub>5</sub>H<sub>4</sub>O<sub>3</sub>",
        "Molecular Mass": "112.08",
        "Boiling Point": "99 °C @ Press: 14 Torr",
        "Melting Point": "93.8 °C"
    }
}