{
    "cas_no": "14316-14-4",
    "key_name": "<em>N</em>-(2-Hydroxyethyl)-4-methylbenzenesulfonamide",
    "cn_name": null,
    "alternate_name": "Benzenesulfonamide, <em>N</em>-(2-hydroxyethyl)-4-methyl-;<em>p</em>-Toluenesulfonamide, <em>N</em>-(2-hydroxyethyl)-;<em>N</em>-(2-Hydroxyethyl)-4-methylbenzenesulfonamide;<em>N</em>-Tosylethanolamine;2-(Tosylamino)ethanol;<em>N</em>-(2-Hydroxyethyl)-<em>p</em>-toluenesulfonamide;<em>N</em>-(4-Methylphenylsulfonyl)ethanolamine",
    "duplicated_cas_no": "125458-11-9",
    "SMILES": "S(NCCO)(=O)(=O)C1=CC=C(C)C=C1",
    "meta_data": {
        "InChI": "InChI=1S/C9H13NO3S/c1-8-2-4-9(5-3-8)14(12,13)10-6-7-11/h2-5,10-11H,6-7H2,1H3",
        "InChIKey": null,
        "Canonical SMILES": "O=S(=O)(NCCO)C1=CC=C(C=C1)C",
        "Molecular Formula": "C<sub>9</sub>H<sub>13</sub>NO<sub>3</sub>S",
        "Molecular Mass": "215.27",
        "Boiling Point": "200-210 °C @ Press: 0.06 Torr",
        "Melting Point": "56 °C",
        "Density": "1.2566 g/cm³"
    }
}