{
    "cas_no": "56468-23-6",
    "key_name": "8-Chloroimidazo[1,5-<em>a</em>]pyrazine",
    "cn_name": null,
    "alternate_name": "Imidazo[1,5-<em>a</em>]pyrazine, 8-chloro-;8-Chloroimidazo[1,5-<em>a</em>]pyrazine",
    "duplicated_cas_no": "",
    "SMILES": "ClC=1C=2N(C=CN1)C=NC2",
    "meta_data": {
        "InChI": "InChI=1S/C6H4ClN3/c7-6-5-3-8-4-10(5)2-1-9-6/h1-4H",
        "InChIKey": null,
        "Canonical SMILES": "ClC1=NC=CN2C=NC=C12",
        "Molecular Formula": "C<sub>6</sub>H<sub>4</sub>ClN<sub>3</sub>",
        "Molecular Mass": "153.57",
        "Melting Point": "105-106 °C"
    }
}