{
    "cas_no": "89-75-8",
    "key_name": "2,4-Dichlorobenzoyl chloride",
    "cn_name": "2,4-二氯苯甲酰氯;2,4-二氯代氯化苯甲酰;",
    "alternate_name": "Benzoyl chloride, 2,4-dichloro-;2,4-Dichlorobenzoyl chloride;<em>o</em>,<em>p</em>-Dichlorobenzoyl chloride",
    "duplicated_cas_no": "",
    "SMILES": "C(Cl)(=O)C1=C(Cl)C=C(Cl)C=C1",
    "meta_data": {
        "InChI": "InChI=1S/C7H3Cl3O/c8-4-1-2-5(7(10)11)6(9)3-4/h1-3H",
        "InChIKey": null,
        "Canonical SMILES": "O=C(Cl)C1=CC=C(Cl)C=C1Cl",
        "Molecular Formula": "C<sub>7</sub>H<sub>3</sub>Cl<sub>3</sub>O",
        "Molecular Mass": "209.46",
        "Boiling Point": "110.5-111.5 °C @ Press: 7.5 Torr",
        "Melting Point": "16.5 °C"
    }
}