{
    "cas_no": "158237-07-1",
    "key_name": "Fentrazamide",
    "cn_name": null,
    "alternate_name": "1<em>H</em>-Tetrazole-1-carboxamide, 4-(2-chlorophenyl)-<em>N</em>-cyclohexyl-<em>N</em>-ethyl-4,5-dihydro-5-oxo-;4-(2-Chlorophenyl)-<em>N</em>-cyclohexyl-<em>N</em>-ethyl-4,5-dihydro-5-oxo-1<em>H</em>-tetrazole-1-carboxamide;1-(2-Chlorophenyl)-4-(<em>N</em>-cyclohexyl-<em>N</em>-ethylcarbamoyl)-5(4<em>H</em>)-tetrazolinone;NBA 061;Fentrazamide;BAY-YRC 2388;NB 061;YRC 2388;Jumbo;Innova;Bai Tian Jing;Jumbo (herbicide)",
    "duplicated_cas_no": "",
    "SMILES": "O=C1N(N=NN1C(N(CC)C2CCCCC2)=O)C3=C(Cl)C=CC=C3",
    "meta_data": {
        "InChI": "InChI=1S/C16H20ClN5O2/c1-2-20(12-8-4-3-5-9-12)15(23)22-16(24)21(18-19-22)14-11-7-6-10-13(14)17/h6-7,10-12H,2-5,8-9H2,1H3",
        "InChIKey": null,
        "Canonical SMILES": "O=C1N(N=NN1C=2C=CC=CC2Cl)C(=O)N(CC)C3CCCCC3",
        "Molecular Formula": "C<sub>16</sub>H<sub>20</sub>ClN<sub>5</sub>O<sub>2</sub>",
        "Molecular Mass": "349.82",
        "Melting Point": "79 °C"
    }
}