{
    "cas_no": "51598-60-8",
    "key_name": "Cimetropium bromide",
    "cn_name": "西托溴铵;",
    "alternate_name": "3-Oxa-9-azoniatricyclo[3.3.1.0<sup>2,4</sup>]nonane, 9-(cyclopropylmethyl)-7-[(2<em>S</em>)-3-hydroxy-1-oxo-2-phenylpropoxy]-9-methyl-, bromide (1:1), (1α,2β,4β,5α,7β)-;3-Oxa-9-azoniatricyclo[3.3.1.0<sup>2,4</sup>]nonane, 9-(cyclopropylmethyl)-7-(3-hydroxy-1-oxo-2-phenylpropoxy)-9-methyl-, bromide, [7(<em>S</em>)-(1α,2β,4β,5α,7β)]-;3-Oxa-9-azoniatricyclo[3.3.1.0<sup>2,4</sup>]nonane, 9-(cyclopropylmethyl)-7-[(2<em>S</em>)-3-hydroxy-1-oxo-2-phenylpropoxy]-9-methyl-, bromide, (1α,2β,4β,5α,7β)-;3-Oxa-9-azatricyclo[3.3.1.0<sup>2,4</sup>]nonane, 3-oxa-9-azoniatricyclo[3.3.1.0<sup>2,4</sup>]nonane deriv.;DA 3177;Cimetropium bromide;Alginor;<em>N</em>-Cyclopropylmethylscopolamine bromide",
    "duplicated_cas_no": "",
    "SMILES": "C([N+]1(C)[C@]2([C@@]3([C@@](O3)([C@@]1(C[C@H](OC([C@H](CO)C4=CC=CC=C4)=O)C2)[H])[H])[H])[H])C5CC5.[Br-]",
    "meta_data": {
        "InChI": "InChI=1S/C21H28NO4.BrH/c1-22(11-13-7-8-13)17-9-15(10-18(22)20-19(17)26-20)25-21(24)16(12-23)14-5-3-2-4-6-14;/h2-6,13,15-20,23H,7-12H2,1H3;1H/q+1;/p-1/t15-,16-,17-,18+,19-,20+,22?;/m1./s1",
        "InChIKey": null,
        "Canonical SMILES": "[Br-].O=C(OC1CC2C3OC3C(C1)[N+]2(C)CC4CC4)C(C=5C=CC=CC5)CO",
        "Molecular Formula": "C<sub>21</sub>H<sub>28</sub>NO<sub>4</sub>.Br",
        "Molecular Mass": "",
        "Melting Point": "174 °C"
    }
}