{
    "cas_no": "52-49-3",
    "key_name": "(±)-Trihexyphenidyl hydrochloride",
    "cn_name": "盐酸苯海索;1-环己基-1-苯基-3-(1-哌啶基)-丙醇盐酸盐;",
    "alternate_name": "1-Piperidinepropanol, α-cyclohexyl-α-phenyl-, hydrochloride (1:1);1-Piperidinepropanol, α-cyclohexyl-α-phenyl-, hydrochloride;Alpha-Cyclohexyl-alpha-phenyl-1-piperidinepropanol hydrochloride;Artane;Artane hydrochloride;Benzhexol hydrochloride;α-Cyclohexyl-α-phenyl-1-piperidinepropanol hydrochloride;Pacitane;Pargitan;Peragit;1-Phenyl-1-cyclohexyl-3-piperidyl-1-propanol hydrochloride;Pipanol;3-(1-Piperidyl)-1-cyclohexyl-1-phenyl-1-propanol hydrochloride;3-(1-Piperidyl)-1-phenyl-1-cyclohexyl-1-propanol hydrochloride;Tremin;Trihexyphenidyl hydrochloride;Benzhexol chloride;Parkopan;Cyclodol;Romparkin;Parcopane;Tsiklodol;Parkisan;Partigan;Parkidyl;Trihexy;Trihexyphenidyl chlorhydrate;Parkinsan;(±)-Trihexyphenidyl hydrochloride;Triphenidyl;Parkinane;Paralest;Aparkane;Sedrina;Broflex;Antitrem;Triphedinon;Parkinol;1-Cyclohexyl-1-phenyl-3-(piperidin-1-yl)propan-1-ol hydrochloride",
    "duplicated_cas_no": "27678-77-9;58947-95-8",
    "SMILES": "C(CCN1CCCCC1)(O)(C2CCCCC2)C3=CC=CC=C3.Cl",
    "meta_data": {
        "InChI": "InChI=1S/C20H31NO.ClH/c22-20(18-10-4-1-5-11-18,19-12-6-2-7-13-19)14-17-21-15-8-3-9-16-21;/h1,4-5,10-11,19,22H,2-3,6-9,12-17H2;1H",
        "InChIKey": null,
        "Canonical SMILES": "Cl.OC(C=1C=CC=CC1)(CCN2CCCCC2)C3CCCCC3",
        "Molecular Formula": "C<sub>20</sub>H<sub>31</sub>NO.ClH",
        "Molecular Mass": "",
        "Melting Point": "258.5 °C"
    }
}