{
    "cas_no": "1234616-25-1",
    "key_name": "4-Bromo-1-methyl-1<em>H</em>-pyrrolo[2,3-<em>b</em>]pyridine",
    "cn_name": null,
    "alternate_name": "1<em>H</em>-Pyrrolo[2,3-<em>b</em>]pyridine, 4-bromo-1-methyl-;4-Bromo-1-methyl-1<em>H</em>-pyrrolo[2,3-<em>b</em>]pyridine",
    "duplicated_cas_no": "",
    "SMILES": "BrC1=C2C(N(C)C=C2)=NC=C1",
    "meta_data": {
        "InChI": "InChI=1S/C8H7BrN2/c1-11-5-3-6-7(9)2-4-10-8(6)11/h2-5H,1H3",
        "InChIKey": null,
        "Canonical SMILES": "BrC1=CC=NC2=C1C=CN2C",
        "Molecular Formula": "C<sub>8</sub>H<sub>7</sub>BrN<sub>2</sub>",
        "Molecular Mass": "211.06",
        "Melting Point": "25.2-27.1 °C"
    }
}