{
    "cas_no": "7189-82-4",
    "key_name": "2,2′-Bis(2-chlorophenyl)-4,4′,5,5′-tetraphenyl-1,2′-biimidazole",
    "cn_name": null,
    "alternate_name": "1<em>H</em>-Imidazole, 2-(2-chlorophenyl)-1-[2-(2-chlorophenyl)-4,5-diphenyl-2<em>H</em>-imidazol-2-yl]-4,5-diphenyl-;Imidazole, 2-(<em>o</em>-chlorophenyl)-1-[2-(<em>o</em>-chlorophenyl)-4,5-diphenyl-2<em>H</em>-imidazol-2-yl]-4,5-diphenyl-;2-(2-Chlorophenyl)-1-[2-(2-chlorophenyl)-4,5-diphenyl-2<em>H</em>-imidazol-2-yl]-4,5-diphenyl-1<em>H</em>-imidazole;2,2′-Bis(<em>o</em>-chlorophenyl)-4,4′,5,5′-tetraphenyl-1,2′-biimidazole;2,2′-Bis(2-chlorophenyl)-4,4′,5,5′-tetraphenyl-1,2′-biimidazole;2,2′-Bis(<em>o</em>-chlorophenyl)-4,4′,5,5′-tetraphenyl-1,2′-diimidazole;2,2′-Bis(2-chlorophenyl)-4,5,4′,5′-tetraphenyl-1,2′-biimidazole;2-(2-Chlorophenyl)-1-[2-(2-chlorophenyl)-4,5-diphenyl-1,3-diazol-2-yl]-4,5-diphenylimidazole;2,2′-Bis(<em>o</em>-chlorophenyl)-4,5,4′,5′-tetraphenyl-1,2′-biimidazole;<em>o</em>-Cl-HABI;o-Cl-HABI;BIMD;Speedcure BCIM;2,2-Bis-(2-chlorophenyl)-4,5,4′,5′-tetraphenyl-2′<em>H</em>-[1,2]biimidazolyl;2-(2-Chlorophenyl)-1-[2-(2-chlorophenyl)-4,5-diphenylimidazol-2-yl]-4,5-diphenylimidazole;HABI 1-2",
    "duplicated_cas_no": "160307-14-2;947726-91-2;1196413-86-1;1651214-72-0",
    "SMILES": "ClC1=C(C2(N=C(C(=N2)C3=CC=CC=C3)C4=CC=CC=C4)N5C(=C(N=C5C6=C(Cl)C=CC=C6)C7=CC=CC=C7)C8=CC=CC=C8)C=CC=C1",
    "meta_data": {
        "InChI": "InChI=1S/C42H28Cl2N4/c43-35-27-15-13-25-33(35)41-45-39(31-21-9-3-10-22-31)40(32-23-11-4-12-24-32)48(41)42(34-26-14-16-28-36(34)44)46-37(29-17-5-1-6-18-29)38(47-42)30-19-7-2-8-20-30/h1-28H",
        "InChIKey": null,
        "Canonical SMILES": "ClC=1C=CC=CC1C2=NC(C=3C=CC=CC3)=C(C=4C=CC=CC4)N2C5(N=C(C=6C=CC=CC6)C(=N5)C7=CC=CC=C7)C=8C=CC=CC8Cl",
        "Molecular Formula": "C<sub>42</sub>H<sub>28</sub>Cl<sub>2</sub>N<sub>4</sub>",
        "Molecular Mass": "659.60",
        "Melting Point": "208.5 °C"
    }
}