{
    "cas_no": "1797-74-6",
    "key_name": "2-Propen-1-yl benzeneacetate",
    "cn_name": "苯乙酸-2-丙烯酯;",
    "alternate_name": "Benzeneacetic acid, 2-propen-1-yl ester;Acetic acid, phenyl-, allyl ester;Benzeneacetic acid, 2-propenyl ester;2-Propen-1-yl benzeneacetate;Allyl phenylacetate;NSC 6574;Allyl 2-phenylethanoate",
    "duplicated_cas_no": "",
    "SMILES": "C(C(OCC=C)=O)C1=CC=CC=C1",
    "meta_data": {
        "InChI": "InChI=1S/C11H12O2/c1-2-8-13-11(12)9-10-6-4-3-5-7-10/h2-7H,1,8-9H2",
        "InChIKey": null,
        "Canonical SMILES": "O=C(OCC=C)CC=1C=CC=CC1",
        "Molecular Formula": "C<sub>11</sub>H<sub>12</sub>O<sub>2</sub>",
        "Molecular Mass": "176.21",
        "Melting Point": "93-97 °C"
    }
}