{
    "cas_no": "1645-83-6",
    "key_name": "1,3,3,3-Tetrafluoropropene",
    "cn_name": null,
    "alternate_name": "1-Propene, 1,3,3,3-tetrafluoro-;Propene, 1,3,3,3-tetrafluoro-;1,3,3,3-Tetrafluoro-1-propene;1,3,3,3-Tetrafluoropropylene;1,3,3,3-Tetrafluoropropene;1,1,1,3-Tetrafluoro-2-propene;HFO 1234ze;HFC 1234ze;R 1234ze",
    "duplicated_cas_no": "",
    "SMILES": "C(C(F)(F)F)=CF",
    "meta_data": {
        "InChI": "InChI=1S/C3H2F4/c4-2-1-3(5,6)7/h1-2H",
        "InChIKey": null,
        "Canonical SMILES": "FC=CC(F)(F)F",
        "Molecular Formula": "C<sub>3</sub>H<sub>2</sub>F<sub>4</sub>",
        "Molecular Mass": "114.04",
        "Boiling Point": "-16 °C",
        "Density": "1.163 g/cm³ @ Temp: 25 °C"
    }
}