{
    "cas_no": "497-25-6",
    "key_name": "2-Oxazolidinone",
    "cn_name": "2-噁唑烷酮;",
    "alternate_name": "2-Oxazolidinone;Carbamic acid, (2-hydroxyethyl)-, γ-lactone;2-Oxazolidone;1,3-Oxazolidin-2-one;2-Oxotetrahydro-1,3-oxazole;NSC 35382;NSC 38240;2-Oxo-1,3-oxazolidine",
    "duplicated_cas_no": "",
    "SMILES": "O=C1NCCO1",
    "meta_data": {
        "InChI": "InChI=1S/C3H5NO2/c5-3-4-1-2-6-3/h1-2H2,(H,4,5)",
        "InChIKey": null,
        "Canonical SMILES": "O=C1OCCN1",
        "Molecular Formula": "C<sub>3</sub>H<sub>5</sub>NO<sub>2</sub>",
        "Molecular Mass": "87.08",
        "Boiling Point": "152 °C @ Press: 0.4 Torr",
        "Melting Point": "87-89 °C",
        "Density": "1.50 g/cm³"
    }
}