{
    "cas_no": "13355-96-9",
    "key_name": "Butyltin chloride dihydroxide",
    "cn_name": "氯代单丁基锡酸;",
    "alternate_name": "Stannane, butylchlorodihydroxy-;Butylchlorodihydroxystannane;Butylchlorotin dihydroxide;Fascat 4101;NSC 323990;Butyltin chloride dihydroxide;Butylchlorostannanediol;Butyltin dihydroxychloride;PC 4101;TMG 250;XB 3 (catalyst);XB 3",
    "duplicated_cas_no": "",
    "SMILES": "C([Sn](Cl)(O)O)CCC",
    "meta_data": {
        "InChI": "InChI=1S/C4H9.ClH.2H2O.Sn/c1-3-4-2;;;;/h1,3-4H2,2H3;1H;2*1H2;/q;;;;+3/p-3",
        "InChIKey": null,
        "Canonical SMILES": "Cl[Sn](O)(O)CCCC",
        "Molecular Formula": "C<sub>4</sub>H<sub>11</sub>ClO<sub>2</sub>Sn",
        "Molecular Mass": "245.29",
        "Melting Point": "107-112 °C"
    }
}