{
    "cas_no": "1309-60-0",
    "key_name": "Lead dioxide",
    "cn_name": "二氧化铅;",
    "alternate_name": "Lead oxide (PbO<sub>2</sub>);C.I. 77580;Lead Brown;Lead oxide brown;Lead peroxide;Lead superoxide;Lead peroxide (PbO<sub>2</sub>);Lead oxide;Lead(IV) oxide;Plumbic oxide;Thiolead A;Lead dioxide",
    "duplicated_cas_no": "60525-54-4",
    "SMILES": "[Pb](=O)=O",
    "meta_data": {
        "InChI": "InChI=1S/2O.Pb",
        "InChIKey": null,
        "Canonical SMILES": "O=[Pb]=O",
        "Molecular Formula": "O<sub>2</sub>Pb",
        "Molecular Mass": "239.20",
        "Melting Point": "290 °C (decomp)",
        "Density": "9.38 g/cm³"
    }
}