{
    "cas_no": "5029-67-4",
    "key_name": "2-Iodopyridine",
    "cn_name": "2-碘吡啶;",
    "alternate_name": "Pyridine, 2-iodo-;2-Iodopyridine;2-Pyridyl iodide;NSC 5075",
    "duplicated_cas_no": "",
    "SMILES": "IC1=CC=CC=N1",
    "meta_data": {
        "InChI": "InChI=1S/C5H4IN/c6-5-3-1-2-4-7-5/h1-4H",
        "InChIKey": null,
        "Canonical SMILES": "IC1=NC=CC=C1",
        "Molecular Formula": "C<sub>5</sub>H<sub>4</sub>IN",
        "Molecular Mass": "205.00",
        "Boiling Point": "93 °C @ Press: 13 Torr",
        "Melting Point": "118-120 °C",
        "Density": "1.9735 g/cm³ @ Temp: 20 °C"
    }
}