{
    "cas_no": "9001-98-3",
    "key_name": "Rennin",
    "cn_name": null,
    "alternate_name": "Rennin;Chymosin;E.C. 3.4.23.4;E.C. 3.4.4.3;EC 3.4.23.4;Chymogen;Maxiren;Aniren;Renninomezenterin;Rennase;Lab;Abomasal enzyme;Milk-clotting protease;Stamix 1150;Maxiren 600;EC 3.4.4.3;FAR-M",
    "duplicated_cas_no": "",
    "SMILES": "",
    "meta_data": {
        "InChI": "",
        "InChIKey": null,
        "Canonical SMILES": "",
        "Molecular Formula": "Unspecified",
        "Molecular Mass": "",
        "Melting Point": "225-227 °C"
    }
}