{
    "uri": "substance/pt/9001983",
    "rn": "9001-98-3",
    "name": "Rennin",
    "images": [],
    "inchi": "",
    "inchiKey": "",
    "smile": "",
    "canonicalSmile": "",
    "molecularFormula": "Unspecified",
    "molecularMass": "",
    "experimentalProperties": [
        {
            "name": "Melting Point",
            "property": "225-227 °C",
            "sourceNumber": 1
        }
    ],
    "propertyCitations": [
        {
            "docUri": "document/pt/document/15843567",
            "sourceNumber": 1,
            "source": "Oheda, M.; Nippon Chikusan Gakkaiho, (1954), 25, 209-11, CAplus"
        }
    ],
    "synonyms": [
        "Rennin",
        "Chymosin",
        "E.C. 3.4.23.4",
        "E.C. 3.4.4.3",
        "EC 3.4.23.4",
        "Chymogen",
        "Maxiren",
        "Aniren",
        "Renninomezenterin",
        "Rennase",
        "Lab",
        "Abomasal enzyme",
        "Milk-clotting protease",
        "Stamix 1150",
        "Maxiren 600",
        "EC 3.4.4.3",
        "FAR-M"
    ],
    "replacedRns": [],
    "hasMolfile": false,
    "source": "https://commonchemistry.cas.org/detail?cas_rn=9001-98-3"
}