{
    "cas_no": "20736-08-7",
    "key_name": "Saikosaponin C",
    "cn_name": "柴胡皂苷C;柴胡皂甙C;",
    "alternate_name": "β-<span class=\"text-smallcaps\">D</smallcap>-Glucopyranoside, (3β,16β)-13,28-epoxy-16-hydroxyolean-11-en-3-yl <em>O</em>-6-deoxy-α-<smallcap>L</smallcap>-mannopyranosyl-(1→4)-<em>O</em>-[β-<smallcap>D</span>-glucopyranosyl-(1→6)]-;Saikosaponin C;Oleanane, β-<span class=\"text-smallcaps\">D</span>-glucopyranoside deriv.;(3β,16β)-13,28-Epoxy-16-hydroxyolean-11-en-3-yl <em>O</em>-6-deoxy-α-<span class=\"text-smallcaps\">L</smallcap>-mannopyranosyl-(1→4)-<em>O</em>-[β-<smallcap>D</smallcap>-glucopyranosyl-(1→6)]-β-<smallcap>D</span>-glucopyranoside;Cyclosaponin C",
    "duplicated_cas_no": "",
    "SMILES": "C[C@]12[C@@]3(C4([C@@](CO3)([C@@H](O)C1)CCC(C)(C)C4)[H])C=C[C@]5([C@@]2(C)CC[C@@]6([C@]5(C)CC[C@H](O[C@@H]7O[C@H](CO[C@@H]8O[C@H](CO)[C@@H](O)[C@H](O)[C@H]8O)[C@@H](O[C@H]9[C@H](O)[C@H](O)[C@@H](O)[C@H](C)O9)[C@H](O)[C@H]7O)C6(C)C)[H])[H]",
    "meta_data": {
        "InChI": "InChI=1S/C48H78O17/c1-22-30(51)32(53)36(57)40(61-22)65-38-24(20-59-39-35(56)33(54)31(52)23(19-49)62-39)63-41(37(58)34(38)55)64-29-11-12-44(6)25(43(29,4)5)9-13-45(7)26(44)10-14-48-27-17-42(2,3)15-16-47(27,21-60-48)28(50)18-46(45,48)8/h10,14,22-41,49-58H,9,11-13,15-21H2,1-8H3/t22-,23+,24+,25-,26+,27?,28-,29-,30-,31+,32+,33-,34+,35+,36+,37+,38+,39+,40-,41-,44-,45+,46-,47+,48-/m0/s1",
        "InChIKey": null,
        "Canonical SMILES": "OCC1OC(OCC2OC(OC3CCC4(C)C5C=CC67OCC8(CCC(C)(C)CC68)C(O)CC7(C)C5(C)CCC4C3(C)C)C(O)C(O)C2OC9OC(C)C(O)C(O)C9O)C(O)C(O)C1O",
        "Molecular Formula": "C<sub>48</sub>H<sub>78</sub>O<sub>17</sub>",
        "Molecular Mass": "927.12",
        "Melting Point": "310-314 °C"
    }
}