{
    "cas_no": "110-61-2",
    "key_name": "Succinonitrile",
    "cn_name": "丁二腈;",
    "alternate_name": "Butanedinitrile;Succinonitrile;Deprelin;<em>sym</em>-Dicyanoethane;Dinile;Ethane, 1,2-dicyano-;Ethylene cyanide;Ethylene dicyanide;Succinic acid dinitrile;Succinodinitrile;Suxil;Succinic dinitrile;1,2-Dicyanoethane;Succinil;Dician;Disuxyl;Evanex;Succinic acid nitrile;1,2-Ethanedicarbonitrile;1,4-Butanedinitrile;NSC 4852;Succinyl cyanide",
    "duplicated_cas_no": "191362-21-7",
    "SMILES": "C(CC#N)C#N",
    "meta_data": {
        "InChI": "InChI=1S/C4H4N2/c5-3-1-2-4-6/h1-2H2",
        "InChIKey": null,
        "Canonical SMILES": "N#CCCC#N",
        "Molecular Formula": "C<sub>4</sub>H<sub>4</sub>N<sub>2</sub>",
        "Molecular Mass": "80.09",
        "Boiling Point": "266 °C",
        "Melting Point": "54.5 °C",
        "Density": "0.9867 g/cm³ @ Temp: 60 °C"
    }
}