{
    "cas_no": "80-43-3",
    "key_name": "Dicumyl peroxide",
    "cn_name": "过氧化二异丙苯;硫化剂DCP;",
    "alternate_name": "Peroxide, bis(1-methyl-1-phenylethyl);Peroxide, bis(α,α-dimethylbenzyl);Bis(1-methyl-1-phenylethyl) peroxide;Active dicumyl peroxide;Bis(α,α-dimethylbenzyl) peroxide;Cumene peroxide;Cumyl peroxide;Dicumyl peroxide;Di-α-cumyl peroxide;Di-Cup;Perkadox B;Dicumenyl peroxide;Di-Cup 40C;α-Cumyl peroxide;Di-Cup 40;Percumyl D;Luperox 500R;Isopropylbenzene peroxide;Di-Cup 40KE;Bis(2-phenyl-2-propyl) peroxide;Perkadox SB;Perkadox BC;Luperox 500T;Dicumene hydroperoxide;Percumyl D 40;Luperco 500-40C;Luperco 500-40KE;α,α′-Dicumyl peroxide;Luperox 500;α,α-Dimethylbenzyl peroxide;Kayacumyl D;Di-Cup R;Di-Cup T;Di-Cup 40HAF;Perkadox BC 95;Lupersol 500;Perkadox BC 40;Perkadox BC 9;DCP;Perkadox BC 96;Sanperox DCP;Interox DCUP 40G;Luperco 500R;Di-Cup 60;Varox 40C;TC 3 (vulcanizer);TC 3;DCP 95R;C 3 (crosslinking agent);C 3;RC 3 (crosslinking agent);RC 3;Perkadox BC 40KPD;Dicup 4OKE;Varox DCP-R;Varox DCP 40C;SWD 40C;DCP 40C;Peroximon DC;Peroximon DC 40;Kayacumyl D 40K;Perkadox BC-FF;Norox DCP;Varox 40KE;Luperox DC;Luperox DC 40KEP;LX 500;NSC 56772;Retic DCP;Perkadox BC 40B;Px SB;Peroximon DC/SC;Di-Cup 90;Trigonox 239A;Varox DCP 40KE;Interox DCUP 1;DCP 40;Luperox PP 20;Perkadox BC 40B-PD;PO-D;Kayacumyl D 40C;D 40C;Perkadox BC 40K;Luperox DC 40P-SP2;Varox DCP 40C-SP2;Luperox 505R;Luperox DCP 40P;Luperox DC 40P-SP;Parkmill D;Luperox DCP;DCP 99;Luperox DC 40P;Percumyl D 40B;E-DCP 40P;Peroxan DC;Kayacumyl DCP;14S-F1;Luperox DC-SC;BC-FF;F 40;F 40 (crosslinking agent);40B;Percumyl D 40MB;Kayacumyl D 40MB-S;Kayacumyl D 40MB;Diisopropylbenzene peroxide;Akroform DC 40EPR;D 100480;PERO 302;Perkadox BC 40S-PS;F 40P;Perkadox BC 40MB-GR;Percumyl D-GP;Luperox DC 40KE;Percumyl C;ACEOX DCP;Di-Cup 40KE-U;Di-Cup 40KEU;Kayacumyl DCP 40C;Peroxan DC 40GS;Perkadox 14S-F1;Sanperox DCP 98;DCP 98;DCP 40KE;Peroxan DC-P +;Di-Cup 40A;Perkadox BFCC;Buloxyn KED 40MB;KED 40MB;Perkadox BC 40C;A 69780;Percumyl D 40C;Perkadox BD-FF;UN 3106;Peroxan BIB 40PK",
    "duplicated_cas_no": "82322-57-4;88161-12-0;169149-63-7;188070-59-9;209969-79-9;246180-99-4;478016-94-3;945614-06-2;1228307-55-8;2324106-99-0",
    "SMILES": "C(OOC(C)(C)C1=CC=CC=C1)(C)(C)C2=CC=CC=C2",
    "meta_data": {
        "InChI": "InChI=1S/C18H22O2/c1-17(2,15-11-7-5-8-12-15)19-20-18(3,4)16-13-9-6-10-14-16/h5-14H,1-4H3",
        "InChIKey": null,
        "Canonical SMILES": "O(OC(C=1C=CC=CC1)(C)C)C(C=2C=CC=CC2)(C)C",
        "Molecular Formula": "C<sub>18</sub>H<sub>22</sub>O<sub>2</sub>",
        "Molecular Mass": "270.37",
        "Boiling Point": "396 °C",
        "Melting Point": "39 °C",
        "Density": "1.02 g/cm³"
    }
}