{
    "cas_no": "3916-64-1",
    "key_name": "3,5-Heptadien-2-one",
    "cn_name": "2,4-二庚烯-6-酮;5-乙酰-2,4-戊二烯;",
    "alternate_name": "3,5-Heptadien-2-one;Crotylideneacetone;Crotonylideneacetone;2,4-Heptadien-6-one;3,5-Heptadienone",
    "duplicated_cas_no": "",
    "SMILES": "C(=CC=CC)C(C)=O",
    "meta_data": {
        "InChI": "InChI=1S/C7H10O/c1-3-4-5-6-7(2)8/h3-6H,1-2H3",
        "InChIKey": null,
        "Canonical SMILES": "O=C(C=CC=CC)C",
        "Molecular Formula": "C<sub>7</sub>H<sub>10</sub>O",
        "Molecular Mass": "110.15",
        "Boiling Point": "74-75 °C",
        "Density": "0.8995 g/cm³ @ Temp: 15 °C"
    }
}