{
    "cas_no": "100-93-6",
    "key_name": "TPPD",
    "cn_name": "4-甲基-N-[4-(苯胺基)苯基]苯磺酰胺;",
    "alternate_name": "Benzenesulfonamide, 4-methyl-<em>N</em>-[4-(phenylamino)phenyl]-;<em>p</em>-Toluenesulfonanilide, 4′-anilino-;4-Methyl-<em>N</em>-[4-(phenylamino)phenyl]benzenesulfonamide;<em>p</em>-(<em>p</em>-Tolylsulfonylamido)diphenylamine;4-(<em>p</em>-Toluenesulfonamido)diphenylamine;Aranox;Nocrac TD;<em>N</em>-Phenyl-<em>N</em>′-<em>p</em>-toluenesulfonyl-<em>p</em>-phenylenediamine;4′-Anilino-<em>p</em>-toluenesulfonanilide;Naugard SA;NSC 41053;<em>N</em>-<em>p</em>-(Phenylaminophenyl)-<em>p</em>-toluenesulfonic acid amide;4′-Anilinotoluene-4-sulfonanilide;<em>p</em>-(<em>p</em>-Toluenesulfonylamido)diphenylamine;TPPD;Antioxidant TPPD",
    "duplicated_cas_no": "890401-96-4",
    "SMILES": "N(S(=O)(=O)C1=CC=C(C)C=C1)C2=CC=C(NC3=CC=CC=C3)C=C2",
    "meta_data": {
        "InChI": "InChI=1S/C19H18N2O2S/c1-15-7-13-19(14-8-15)24(22,23)21-18-11-9-17(10-12-18)20-16-5-3-2-4-6-16/h2-14,20-21H,1H3",
        "InChIKey": null,
        "Canonical SMILES": "O=S(=O)(NC1=CC=C(C=C1)NC=2C=CC=CC2)C3=CC=C(C=C3)C",
        "Molecular Formula": "C<sub>19</sub>H<sub>18</sub>N<sub>2</sub>O<sub>2</sub>S",
        "Molecular Mass": "338.42",
        "Melting Point": "147 °C"
    }
}