{
    "cas_no": "1617-32-9",
    "key_name": "(3<em>E</em>)-3-Pentenoic acid",
    "cn_name": "(E)-3-戊酸;",
    "alternate_name": "3-Pentenoic acid, (3<em>E</em>)-;3-Pentenoic acid, (<em>E</em>)-;3-Pentenoic acid, <em>trans</em>-;(3<em>E</em>)-3-Pentenoic acid;<em>trans</em>-3-Pentenoic acid;(<em>E</em>)-3-Pentenoic acid;(3<em>E</em>)-Pent-3-enoic acid",
    "duplicated_cas_no": "",
    "SMILES": "C(C(O)=O)/C=C/C",
    "meta_data": {
        "InChI": "InChI=1S/C5H8O2/c1-2-3-4-5(6)7/h2-3H,4H2,1H3,(H,6,7)/b3-2+",
        "InChIKey": null,
        "Canonical SMILES": "O=C(O)CC=CC",
        "Molecular Formula": "C<sub>5</sub>H<sub>8</sub>O<sub>2</sub>",
        "Molecular Mass": "100.12",
        "Boiling Point": "50-53 °C @ Press: 1.0-1.5 Torr"
    }
}