{
    "cas_no": "94361-06-5",
    "key_name": "Cyproconazole",
    "cn_name": null,
    "alternate_name": "1<em>H</em>-1,2,4-Triazole-1-ethanol, α-(4-chlorophenyl)-α-(1-cyclopropylethyl)-;α-(4-Chlorophenyl)-α-(1-cyclopropylethyl)-1<em>H</em>-1,2,4-triazole-1-ethanol;SAN 619F;Cyproconazole;Alto;SN 108266;Atemi C;Atemi;Alto 100SL;Alto 100;Alto 240EC;Caddy;Atemi 10 Pepite;2-(4-Chlorophenyl)-3-cyclopropyl-1-(1<em>H</em>-1,2,4-triazol-1-yl)butan-2-ol",
    "duplicated_cas_no": "113096-99-4;1135441-02-9",
    "SMILES": "C(C(C)C1CC1)(CN2C=NC=N2)(O)C3=CC=C(Cl)C=C3",
    "meta_data": {
        "InChI": "InChI=1S/C15H18ClN3O/c1-11(12-2-3-12)15(20,8-19-10-17-9-18-19)13-4-6-14(16)7-5-13/h4-7,9-12,20H,2-3,8H2,1H3",
        "InChIKey": null,
        "Canonical SMILES": "ClC1=CC=C(C=C1)C(O)(CN2N=CN=C2)C(C)C3CC3",
        "Molecular Formula": "C<sub>15</sub>H<sub>18</sub>ClN<sub>3</sub>O",
        "Molecular Mass": "291.78",
        "Boiling Point": "&gt;250 °C",
        "Melting Point": "107.5 °C"
    }
}