{
    "cas_no": "512-85-6",
    "key_name": "Ascaridole",
    "cn_name": null,
    "alternate_name": "2,3-Dioxabicyclo[2.2.2]oct-5-ene, 1-methyl-4-(1-methylethyl)-;<em>p</em>-Menth-2-ene, 1,4-epidioxy-;1-Methyl-4-(1-methylethyl)-2,3-dioxabicyclo[2.2.2]oct-5-ene;Ascaridole;Ascarisin;1,4-Peroxido-<em>p</em>-menthene-2;Ascaridol;1,4-Peroxy-<em>p</em>-menth-2-ene;Askaridol;Ascaricum;NSC 406266;NSC 406924;Boldo ascaridole",
    "duplicated_cas_no": "122346-63-8",
    "SMILES": "C(C)(C)C12CCC(C)(C=C1)OO2",
    "meta_data": {
        "InChI": "InChI=1S/C10H16O2/c1-8(2)10-6-4-9(3,5-7-10)11-12-10/h4,6,8H,5,7H2,1-3H3",
        "InChIKey": null,
        "Canonical SMILES": "O1OC2(C=CC1(C)CC2)C(C)C",
        "Molecular Formula": "C<sub>10</sub>H<sub>16</sub>O<sub>2</sub>",
        "Molecular Mass": "168.23",
        "Boiling Point": "39-40 °C @ Press: 0.2 Torr",
        "Melting Point": "3.3 °C",
        "Density": "0.9985 g/cm³ @ Temp: 20 °C"
    }
}