{
    "cas_no": "682-30-4",
    "key_name": "Diethyl vinylphosphonate",
    "cn_name": "乙烯基膦酸二乙酯;乙烯基磷酸二乙酯;乙烯基膦酸二乙酯;",
    "alternate_name": "Phosphonic acid, <em>P</em>-ethenyl-, diethyl ester;Phosphonic acid, vinyl-, diethyl ester;Phosphonic acid, ethenyl-, diethyl ester;Diethyl vinylphosphonate;<em>O</em>,<em>O</em>-Diethyl vinylphosphonate;Diethoxyphosphinylethene;Vinylphosphonic acid diethyl ester;Diethyl ethenylphosphonate;1-[Ethenyl(ethoxy)phosphoryl]oxyethane",
    "duplicated_cas_no": "",
    "SMILES": "P(OCC)(OCC)(C=C)=O",
    "meta_data": {
        "InChI": "InChI=1S/C6H13O3P/c1-4-8-10(7,6-3)9-5-2/h6H,3-5H2,1-2H3",
        "InChIKey": null,
        "Canonical SMILES": "O=P(OCC)(OCC)C=C",
        "Molecular Formula": "C<sub>6</sub>H<sub>13</sub>O<sub>3</sub>P",
        "Molecular Mass": "164.14",
        "Boiling Point": "50 °C @ Press: 1 Torr",
        "Density": "1.0529 g/cm³ @ Temp: 20 °C"
    }
}