{
    "cas_no": "5631-70-9",
    "key_name": "5,7,4′-Trimethoxyflavone",
    "cn_name": null,
    "alternate_name": "4<em>H</em>-1-Benzopyran-4-one, 5,7-dimethoxy-2-(4-methoxyphenyl)-;Flavone, 4′,5,7-trimethoxy-;5,7-Dimethoxy-2-(4-methoxyphenyl)-4<em>H</em>-1-benzopyran-4-one;4′,5,7-Trimethoxyflavone;Tri-<em>O</em>-methylapigenin;Trimethylapigenin;5,7,4′-Trimethoxyapigenin;5,7,4′-Trimethoxyflavone;5,7-Dimethoxy-2-(4-methoxyphenyl)chromone;5,7-Dimethoxy-4-oxo-2-(4-methoxyphenyl)-4<em>H</em>-1-benzopyran;Apigenin trimethyl ether;5,7,4′-Tri-<em>O</em>-methylapigenin;5,7-Dimethoxy-2-(4-methoxyphenyl)-4<em>H</em>-chromen-4-one",
    "duplicated_cas_no": "",
    "SMILES": "O(C)C1=C2C(OC(=CC2=O)C3=CC=C(OC)C=C3)=CC(OC)=C1",
    "meta_data": {
        "InChI": "InChI=1S/C18H16O5/c1-20-12-6-4-11(5-7-12)15-10-14(19)18-16(22-3)8-13(21-2)9-17(18)23-15/h4-10H,1-3H3",
        "InChIKey": null,
        "Canonical SMILES": "O=C1C=C(OC2=CC(OC)=CC(OC)=C12)C=3C=CC(OC)=CC3",
        "Molecular Formula": "C<sub>18</sub>H<sub>16</sub>O<sub>5</sub>",
        "Molecular Mass": "312.32",
        "Melting Point": "152-154 °C"
    }
}