{
    "cas_no": "1113-02-6",
    "key_name": "Omethoate",
    "cn_name": "氧化乐果;氧乐果;O,O-二甲基-S-(N-甲基氨基甲酰甲基)硫代磷酸酯;",
    "alternate_name": "Phosphorothioic acid, <em>O</em>,<em>O</em>-dimethyl <em>S</em>-[2-(methylamino)-2-oxoethyl] ester;Phosphorothioic acid, <em>O</em>,<em>O</em>-dimethyl ester, <em>S</em>-ester with 2-mercapto-<em>N</em>-methylacetamide;Phosphorothioic acid, <em>O</em>,<em>O</em>-dimethyl <em>S</em>-(methylcarbamoylmethyl) ester;Dimethoate <em>O</em>-analog;Dimethoate oxygen analog;Dimethoxon;<em>O</em>,<em>O</em>-Dimethyl <em>S</em>-[(methylcarbamoyl)methyl] phosphorothioate;PO-Dimethoate;Bayer 45432;Folimat;BAY 45432;Omethoate;Dimethoate PO isologue;Folimat 4E;Dimethoate oxon;Spraymate L 1700;Le-mat",
    "duplicated_cas_no": "",
    "SMILES": "P(SCC(NC)=O)(OC)(OC)=O",
    "meta_data": {
        "InChI": "InChI=1S/C5H12NO4PS/c1-6-5(7)4-12-11(8,9-2)10-3/h4H2,1-3H3,(H,6,7)",
        "InChIKey": null,
        "Canonical SMILES": "O=C(NC)CSP(=O)(OC)OC",
        "Molecular Formula": "C<sub>5</sub>H<sub>12</sub>NO<sub>4</sub>PS",
        "Molecular Mass": "213.19",
        "Boiling Point": "150-152 °C @ Press: 0.1-0.2 Torr",
        "Melting Point": "-28 °C",
        "Density": "1.32 g/cm³"
    }
}