{
    "cas_no": "2941-72-2",
    "key_name": "6-Methoxy-2-methylbenzothiazole",
    "cn_name": "6-甲氧基-2-甲基苯并噻唑;",
    "alternate_name": "Benzothiazole, 6-methoxy-2-methyl-;6-Methoxy-2-methylbenzothiazole;2-Methyl-6-methoxybenzothiazole;NSC 93804",
    "duplicated_cas_no": "",
    "SMILES": "CC1=NC=2C(=CC(OC)=CC2)S1",
    "meta_data": {
        "InChI": "InChI=1S/C9H9NOS/c1-6-10-8-4-3-7(11-2)5-9(8)12-6/h3-5H,1-2H3",
        "InChIKey": null,
        "Canonical SMILES": "N=1C=2C=CC(OC)=CC2SC1C",
        "Molecular Formula": "C<sub>9</sub>H<sub>9</sub>NOS",
        "Molecular Mass": "179.24",
        "Boiling Point": "176 °C @ Press: 25 Torr",
        "Melting Point": "182 °C (decomp)"
    }
}