{
    "cas_no": "41764-74-3",
    "key_name": "Benzoic acid, 3,4-dimethoxy-, hydrazide",
    "cn_name": "3,4-二甲氧基苯酰肼;",
    "alternate_name": "Benzoic acid, 3,4-dimethoxy-, hydrazide;Veratric acid hydrazide;3,4-Dimethoxybenzoic acid hydrazide;3,4-Dimethoxybenzohydrazide;(3,4-Dimethoxybenzoyl)hydrazine;1,2-Dimethoxybenzene-4-carbohydrazide;3,4-Dimethoxybenzhydrazide;3,4-Dimethoxybenzoyl hydrazide",
    "duplicated_cas_no": "",
    "SMILES": "O(C)C1=C(OC)C=CC(C(NN)=O)=C1",
    "meta_data": {
        "InChI": "InChI=1S/C9H12N2O3/c1-13-7-4-3-6(9(12)11-10)5-8(7)14-2/h3-5H,10H2,1-2H3,(H,11,12)",
        "InChIKey": null,
        "Canonical SMILES": "O=C(NN)C1=CC=C(OC)C(OC)=C1",
        "Molecular Formula": "C<sub>9</sub>H<sub>12</sub>N<sub>2</sub>O<sub>3</sub>",
        "Molecular Mass": "196.20",
        "Melting Point": "145 °C"
    }
}