{
    "cas_no": "2065-75-0",
    "key_name": "2-Bromopropanedial",
    "cn_name": "2-溴丙二醛;",
    "alternate_name": "Propanedial, 2-bromo-;Malonaldehyde, bromo-;Propanedial, bromo-;2-Bromopropanedial;Bromomalonaldehyde;Bromomalondialdehyde;2-Bromomalondialdehyde;2-Bromo-1,3-propanedialdehyde;2-Bromomalonaldehyde;2-BromoPropane-1,3-dial;Bromopropanedial",
    "duplicated_cas_no": "",
    "SMILES": "C(C=O)(C=O)Br",
    "meta_data": {
        "InChI": "InChI=1S/C3H3BrO2/c4-3(1-5)2-6/h1-3H",
        "InChIKey": null,
        "Canonical SMILES": "O=CC(Br)C=O",
        "Molecular Formula": "C<sub>3</sub>H<sub>3</sub>BrO<sub>2</sub>",
        "Molecular Mass": "150.96",
        "Melting Point": "148 °C"
    }
}