{
    "cas_no": "721-04-0",
    "key_name": "2-Phenoxy-1-phenylethanone",
    "cn_name": null,
    "alternate_name": "Ethanone, 2-phenoxy-1-phenyl-;Acetophenone, 2-phenoxy-;2-Phenoxy-1-phenylethanone;α-Phenoxyacetophenone;ω-Phenoxyacetophenone;2-Phenoxyacetophenone;Phenyl phenacyl ether;NSC 7586;2-Phenoxy-1-phenyl-1-ethanone",
    "duplicated_cas_no": "",
    "SMILES": "C(COC1=CC=CC=C1)(=O)C2=CC=CC=C2",
    "meta_data": {
        "InChI": "InChI=1S/C14H12O2/c15-14(12-7-3-1-4-8-12)11-16-13-9-5-2-6-10-13/h1-10H,11H2",
        "InChIKey": null,
        "Canonical SMILES": "O=C(C=1C=CC=CC1)COC=2C=CC=CC2",
        "Molecular Formula": "C<sub>14</sub>H<sub>12</sub>O<sub>2</sub>",
        "Molecular Mass": "212.24",
        "Boiling Point": "187 °C @ Press: 8 Torr",
        "Melting Point": "74 °C"
    }
}