{
    "cas_no": "525-21-3",
    "key_name": "Fraxidin",
    "cn_name": null,
    "alternate_name": "2<em>H</em>-1-Benzopyran-2-one, 8-hydroxy-6,7-dimethoxy-;Coumarin, 8-hydroxy-6,7-dimethoxy-;Fraxidin;8-Hydroxy-6,7-dimethoxy-2<em>H</em>-1-benzopyran-2-one",
    "duplicated_cas_no": "",
    "SMILES": "OC1=C2C(=CC(OC)=C1OC)C=CC(=O)O2",
    "meta_data": {
        "InChI": "InChI=1S/C11H10O5/c1-14-7-5-6-3-4-8(12)16-10(6)9(13)11(7)15-2/h3-5,13H,1-2H3",
        "InChIKey": null,
        "Canonical SMILES": "O=C1OC=2C(O)=C(OC)C(OC)=CC2C=C1",
        "Molecular Formula": "C<sub>11</sub>H<sub>10</sub>O<sub>5</sub>",
        "Molecular Mass": "222.19",
        "Melting Point": "195 °C"
    }
}