{
    "cas_no": "2381-21-7",
    "key_name": "1-Methylpyrene",
    "cn_name": "1-甲基芘;1-甲基芘;",
    "alternate_name": "Pyrene, 1-methyl-;1-Methylpyrene;3-Methylpyrene;NSC 90776",
    "duplicated_cas_no": "",
    "SMILES": "CC1=C2C3=C4C(C=C2)=CC=CC4=CC=C3C=C1",
    "meta_data": {
        "InChI": "InChI=1S/C17H12/c1-11-5-6-14-8-7-12-3-2-4-13-9-10-15(11)17(14)16(12)13/h2-10H,1H3",
        "InChIKey": null,
        "Canonical SMILES": "C=1C=C2C=CC3=CC=C(C=4C=CC(C1)=C2C34)C",
        "Molecular Formula": "C<sub>17</sub>H<sub>12</sub>",
        "Molecular Mass": "216.28",
        "Melting Point": "70-71 °C"
    }
}