{
    "cas_no": "19763-90-7",
    "key_name": "Hydrazine, (3,4-dichlorophenyl)-, hydrochloride (1:1)",
    "cn_name": "3,4-二氯苯肼盐酸盐;",
    "alternate_name": "Hydrazine, (3,4-dichlorophenyl)-, hydrochloride (1:1);Hydrazine, (3,4-dichlorophenyl)-, monohydrochloride;3,4-Dichlorophenylhydrazine hydrochloride;2-(3,4-Dichlorophenyl)hydrazinium chloride",
    "duplicated_cas_no": "",
    "SMILES": "N(N)C1=CC(Cl)=C(Cl)C=C1.Cl",
    "meta_data": {
        "InChI": "InChI=1S/C6H6Cl2N2.ClH/c7-5-2-1-4(10-9)3-6(5)8;/h1-3,10H,9H2;1H",
        "InChIKey": null,
        "Canonical SMILES": "Cl.ClC1=CC=C(C=C1Cl)NN",
        "Molecular Formula": "C<sub>6</sub>H<sub>6</sub>Cl<sub>2</sub>N<sub>2</sub>.ClH",
        "Molecular Mass": "",
        "Melting Point": "202 °C (decomp)"
    }
}