{
    "cas_no": "487-52-5",
    "key_name": "Butein",
    "cn_name": "紫铆因;",
    "alternate_name": "2-Propen-1-one, 1-(2,4-dihydroxyphenyl)-3-(3,4-dihydroxyphenyl)-, (2<em>E</em>)-;Chalcone, 2′,3,4,4′-tetrahydroxy-;Butein;2-Propen-1-one, 1-(2,4-dihydroxyphenyl)-3-(3,4-dihydroxyphenyl)-, (<em>E</em>)-;(2<em>E</em>)-1-(2,4-Dihydroxyphenyl)-3-(3,4-dihydroxyphenyl)-2-propen-1-one;(E)-1-(2,4-Dihydroxyphenyl)-3-(3,4-hydroxyphenyl)prop-2-en-1-one",
    "duplicated_cas_no": "",
    "SMILES": "C(/C=C/C1=CC(O)=C(O)C=C1)(=O)C2=C(O)C=C(O)C=C2",
    "meta_data": {
        "InChI": "InChI=1S/C15H12O5/c16-10-3-4-11(14(19)8-10)12(17)5-1-9-2-6-13(18)15(20)7-9/h1-8,16,18-20H/b5-1+",
        "InChIKey": null,
        "Canonical SMILES": "O=C(C=CC1=CC=C(O)C(O)=C1)C2=CC=C(O)C=C2O",
        "Molecular Formula": "C<sub>15</sub>H<sub>12</sub>O<sub>5</sub>",
        "Molecular Mass": "272.25",
        "Melting Point": "212-215 °C"
    }
}