{
    "cas_no": "1066-54-2",
    "key_name": "(Trimethylsilyl)acetylene",
    "cn_name": "三甲基乙炔基硅;三甲基硅基乙炔;",
    "alternate_name": "Silane, ethynyltrimethyl-;Ethynyltrimethylsilane;Trimethylethynylsilane;(Trimethylsilyl)ethyne;1-(Trimethylsilyl)acetylene;1-Trimethylsilylethyne;(Trimethylsilyl)acetylene;Trimethylsilanylethyne;Acetylenyltrimethylsilane;(Trimethylsilanyl)acetylene;2,2-Dimethyl-2-sila-3-butyne;TMS-acetylene",
    "duplicated_cas_no": "959419-58-0;1042949-84-7;1277091-35-6",
    "SMILES": "[Si](C#C)(C)(C)C",
    "meta_data": {
        "InChI": "InChI=1S/C5H10Si/c1-5-6(2,3)4/h1H,2-4H3",
        "InChIKey": null,
        "Canonical SMILES": "C#C[Si](C)(C)C",
        "Molecular Formula": "C<sub>5</sub>H<sub>10</sub>Si",
        "Molecular Mass": "98.22",
        "Boiling Point": "52 °C",
        "Density": "0.709 g/cm³"
    }
}