{
    "cas_no": "95-15-8",
    "key_name": "Benzo[<em>b</em>]thiophene",
    "cn_name": "苯并噻吩;",
    "alternate_name": "Benzo[<em>b</em>]thiophene;Benzothiofuran;1-Thiaindene;Thianaphthene;Thionaphthene;Benzothiophene;2,3-Benzothiophene;Benzothiophen;1-Benzothiophene;Thianaphthen;NSC 47196",
    "duplicated_cas_no": "11095-43-5",
    "SMILES": "C1=2C(SC=C1)=CC=CC2",
    "meta_data": {
        "InChI": "InChI=1S/C8H6S/c1-2-4-8-7(3-1)5-6-9-8/h1-6H",
        "InChIKey": null,
        "Canonical SMILES": "S1C=CC=2C=CC=CC12",
        "Molecular Formula": "C<sub>8</sub>H<sub>6</sub>S",
        "Molecular Mass": "134.20",
        "Boiling Point": "221 °C",
        "Melting Point": "32 °C",
        "Density": "1.4250 g/cm³ @ Temp: 37 °C"
    }
}