{
    "cas_no": "934-00-9",
    "key_name": "3-Methoxycatechol",
    "cn_name": "3-甲氧基邻苯二酚;3-甲氧基儿茶酚;",
    "alternate_name": "1,2-Benzenediol, 3-methoxy-;Pyrocatechol, 3-methoxy-;3-Methoxy-1,2-benzenediol;3-Methoxycatechol;3-Methoxypyrocatechol;Pyrogallol 1-monomethyl ether;Pyrogallol 1-methyl ether;2,3-Dihydroxyanisole;1,2-Dihydroxy-3-methoxybenzene;2-Hydroxy-3-methoxyphenol;6-Methoxycatechol;3-Methoxy-<em>o</em>-hydroquinone;3-Methoxy-1,2-dihydroxybenzene;1-<em>O</em>-Methylpyrogallol;NSC 66525",
    "duplicated_cas_no": "2529777-48-6",
    "SMILES": "O(C)C1=C(O)C(O)=CC=C1",
    "meta_data": {
        "InChI": "InChI=1S/C7H8O3/c1-10-6-4-2-3-5(8)7(6)9/h2-4,8-9H,1H3",
        "InChIKey": null,
        "Canonical SMILES": "OC1=CC=CC(OC)=C1O",
        "Molecular Formula": "C<sub>7</sub>H<sub>8</sub>O<sub>3</sub>",
        "Molecular Mass": "140.14",
        "Boiling Point": "129 °C @ Press: 10 Torr",
        "Melting Point": "42.8 °C"
    }
}