{
    "cas_no": "55934-01-5",
    "key_name": "2,4,5-Trichloropyridine",
    "cn_name": null,
    "alternate_name": "Pyridine, 2,4,5-trichloro-;2,4,5-Trichloropyridine",
    "duplicated_cas_no": "",
    "SMILES": "ClC=1C(Cl)=CN=C(Cl)C1",
    "meta_data": {
        "InChI": "InChI=1S/C5H2Cl3N/c6-3-1-5(8)9-2-4(3)7/h1-2H",
        "InChIKey": null,
        "Canonical SMILES": "ClC1=NC=C(Cl)C(Cl)=C1",
        "Molecular Formula": "C<sub>5</sub>H<sub>2</sub>Cl<sub>3</sub>N",
        "Molecular Mass": "182.44",
        "Melting Point": "8-9 °C"
    }
}