{
    "cas_no": "611-55-2",
    "key_name": "6,7-Dimethylpterin",
    "cn_name": "2-氨基-6,7-二甲基-4-羟基蝶啶;",
    "alternate_name": "4(3<em>H</em>)-Pteridinone, 2-amino-6,7-dimethyl-;4(1<em>H</em>)-Pteridinone, 2-amino-6,7-dimethyl-;4-Pteridinol, 2-amino-6,7-dimethyl-;2-Amino-6,7-dimethyl-4(3<em>H</em>)-pteridinone;2-Amino-4-hydroxy-6,7-dimethylpteridine;6,7-Dimethylpterin;2-Amino-6,7-dimethylpteridin-4-ol;NSC 31671;2-Amino-6,7-dimethyl-4-hydroxypteridine;2-Amino-6,7-dimethyl-1<em>H</em>-pteridin-4-one;2-Amino-6,7-dimethyl-4,8-dihydropteridin-4-one;2-Amino-6,7-dimethyl-3,4-dihydropteridin-4-one",
    "duplicated_cas_no": "13045-84-6",
    "SMILES": "O=C1C=2C(NC(C)=C(C)N2)=NC(N)=N1",
    "meta_data": {
        "InChI": "InChI=1S/C8H9N5O/c1-3-4(2)11-6-5(10-3)7(14)13-8(9)12-6/h1-2H3,(H3,9,11,12,13,14)",
        "InChIKey": null,
        "Canonical SMILES": "O=C1N=C(N=C2NC(=C(N=C12)C)C)N",
        "Molecular Formula": "C<sub>8</sub>H<sub>9</sub>N<sub>5</sub>O",
        "Molecular Mass": "191.19",
        "Melting Point": "&gt;260 °C"
    }
}