{
    "cas_no": "84540-59-0",
    "key_name": "4-(Chloromethyl)-1-methyl-2-nitrobenzene",
    "cn_name": "4-甲基-3-硝基苄基氯;",
    "alternate_name": "Benzene, 4-(chloromethyl)-1-methyl-2-nitro-;<em>p</em>-Xylene, α<sup>4</sup>-chloro-2-nitro-;4-(Chloromethyl)-1-methyl-2-nitrobenzene;4-Methyl-3-nitrobenzyl chloride;4-Chloromethyl-1-methyl-2-nitro-benzene",
    "duplicated_cas_no": "",
    "SMILES": "N(=O)(=O)C1=CC(CCl)=CC=C1C",
    "meta_data": {
        "InChI": "InChI=1S/C8H8ClNO2/c1-6-2-3-7(5-9)4-8(6)10(11)12/h2-4H,5H2,1H3",
        "InChIKey": null,
        "Canonical SMILES": "O=N(=O)C1=CC(=CC=C1C)CCl",
        "Molecular Formula": "C<sub>8</sub>H<sub>8</sub>ClNO<sub>2</sub>",
        "Molecular Mass": "185.61",
        "Melting Point": "45 °C"
    }
}