{
    "cas_no": "16741-80-3",
    "key_name": "<em>S</em>-Benzyl-<span class=\"text-smallcaps\">L</span>-cysteine methyl ester hydrochloride",
    "cn_name": null,
    "alternate_name": "<span class=\"text-smallcaps\">L</span>-Cysteine, <em>S</em>-(phenylmethyl)-, methyl ester, hydrochloride (1:1);Alanine, 3-(benzylthio)-, methyl ester, hydrochloride, <span class=\"text-smallcaps\">L</span>-;<span class=\"text-smallcaps\">L</span>-Cysteine, <em>S</em>-(phenylmethyl)-, methyl ester, hydrochloride;<em>S</em>-Benzylcysteine hydrochloride methyl ester;<em>S</em>-Benzyl-<span class=\"text-smallcaps\">L</span>-cysteine methyl ester hydrochloride;Methyl 3-benzyl-<span class=\"text-smallcaps\">L</span>-cysteinate hydrochloride;<span class=\"text-smallcaps\">L</span>-Cysteine benzyl thioether methyl ester hydrochloride;NSC 161612;<span class=\"text-smallcaps\">L</span>-<em>S</em>-Benzylcysteine methyl ester hydrochloride",
    "duplicated_cas_no": "170278-52-1",
    "SMILES": "C(SC[C@@H](C(OC)=O)N)C1=CC=CC=C1.Cl",
    "meta_data": {
        "InChI": "InChI=1S/C11H15NO2S.ClH/c1-14-11(13)10(12)8-15-7-9-5-3-2-4-6-9;/h2-6,10H,7-8,12H2,1H3;1H/t10-;/m0./s1",
        "InChIKey": null,
        "Canonical SMILES": "Cl.O=C(OC)C(N)CSCC=1C=CC=CC1",
        "Molecular Formula": "C<sub>11</sub>H<sub>15</sub>NO<sub>2</sub>S.ClH",
        "Molecular Mass": "",
        "Melting Point": "160-162 °C"
    }
}