{
    "cas_no": "609-11-0",
    "key_name": "Butanoic acid, 2,3-dibromo-, ethyl ester",
    "cn_name": "2,3-二溴正丁酸乙酯;",
    "alternate_name": "Butanoic acid, 2,3-dibromo-, ethyl ester;Butyric acid, 2,3-dibromo-, ethyl ester;Butyric acid, α,β-dibromo-, Et ester;Ethyl 2,3-dibromobutanoate;Ethyl 2,3-dibromobutyrate;NSC 83552;2,3-Dibromobutyric acid ethyl ester",
    "duplicated_cas_no": "",
    "SMILES": "C(C(OCC)=O)(C(Br)C)Br",
    "meta_data": {
        "InChI": "InChI=1S/C6H10Br2O2/c1-3-10-6(9)5(8)4(2)7/h4-5H,3H2,1-2H3",
        "InChIKey": null,
        "Canonical SMILES": "O=C(OCC)C(Br)C(Br)C",
        "Molecular Formula": "C<sub>6</sub>H<sub>10</sub>Br<sub>2</sub>O<sub>2</sub>",
        "Molecular Mass": "273.95",
        "Boiling Point": "103-104 °C @ Press: 17 Torr",
        "Melting Point": "58.5 °C",
        "Density": "1.7014 g/cm³ @ Temp: 20 °C"
    }
}