{
    "cas_no": "7177-48-2",
    "key_name": "Ampicillin trihydrate",
    "cn_name": null,
    "alternate_name": "4-Thia-1-azabicyclo[3.2.0]heptane-2-carboxylic acid, 6-[[(2<em>R</em>)-2-amino-2-phenylacetyl]amino]-3,3-dimethyl-7-oxo-, hydrate (1:3), (2<em>S</em>,5<em>R</em>,6<em>R</em>)-;4-Thia-1-azabicyclo[3.2.0]heptane-2-carboxylic acid, 6-(2-amino-2-phenylacetamido)-3,3-dimethyl-7-oxo-, trihydrate, <span class=\"text-smallcaps\">D</span>-(-)-;4-Thia-1-azabicyclo[3.2.0]heptane-2-carboxylic acid, 6-[(aminophenylacetyl)amino]-3,3-dimethyl-7-oxo-, trihydrate, [2<em>S</em>-[2α,5α,6β(<em>S</em>*)]]-;4-Thia-1-azabicyclo[3.2.0]heptane-2-carboxylic acid, 6-[[(2<em>R</em>)-aminophenylacetyl]amino]-3,3-dimethyl-7-oxo-, trihydrate, (2<em>S</em>,5<em>R</em>,6<em>R</em>)-;Ampicillin trihydrate;Polycillin;[<span class=\"text-smallcaps\">D</span>-(-)-α-Aminobenzyl]penicillin trihydrate;α-Aminobenzylpenicillin trihydrate;Aminobenzylpenicillin trihydrate;Principen",
    "duplicated_cas_no": "",
    "SMILES": "C(O)(=O)[C@@H]1N2[C@@]([C@H](NC([C@H](N)C3=CC=CC=C3)=O)C2=O)(SC1(C)C)[H].O",
    "meta_data": {
        "InChI": "InChI=1S/C16H19N3O4S.3H2O/c1-16(2)11(15(22)23)19-13(21)10(14(19)24-16)18-12(20)9(17)8-6-4-3-5-7-8;;;/h3-7,9-11,14H,17H2,1-2H3,(H,18,20)(H,22,23);3*1H2/t9-,10-,11+,14-;;;/m1.../s1",
        "InChIKey": null,
        "Canonical SMILES": "O=C(O)C1N2C(=O)C(NC(=O)C(N)C=3C=CC=CC3)C2SC1(C)C.O",
        "Molecular Formula": "C<sub>16</sub>H<sub>19</sub>N<sub>3</sub>O<sub>4</sub>S.3H<sub>2</sub>O",
        "Molecular Mass": "",
        "Melting Point": "198 °C"
    }
}