{
    "cas_no": "573-17-1",
    "key_name": "9-Bromophenanthrene",
    "cn_name": "9-溴菲;",
    "alternate_name": "Phenanthrene, 9-bromo-;9-Bromophenanthrene;9-Phenanthryl bromide;NSC 400708",
    "duplicated_cas_no": "",
    "SMILES": "BrC1=C2C(=C3C(=C1)C=CC=C3)C=CC=C2",
    "meta_data": {
        "InChI": "InChI=1S/C14H9Br/c15-14-9-10-5-1-2-6-11(10)12-7-3-4-8-13(12)14/h1-9H",
        "InChIKey": null,
        "Canonical SMILES": "BrC1=CC=2C=CC=CC2C=3C=CC=CC13",
        "Molecular Formula": "C<sub>14</sub>H<sub>9</sub>Br",
        "Molecular Mass": "257.13",
        "Boiling Point": "190 °C @ Press: 1.2 Torr",
        "Melting Point": "64.5 °C"
    }
}