{
    "cas_no": "55696-57-6",
    "key_name": "Manghaslin",
    "cn_name": null,
    "alternate_name": "4<em>H</em>-1-Benzopyran-4-one, 3-[(<em>O</em>-6-deoxy-α-<span class=\"text-smallcaps\">L</smallcap>-mannopyranosyl-(1→2)-<em>O</em>-[6-deoxy-α-<smallcap>L</smallcap>-mannopyranosyl-(1→6)]-β-<smallcap>D</span>-glucopyranosyl)oxy]-2-(3,4-dihydroxyphenyl)-5,7-dihydroxy-;3-[(<em>O</em>-6-Deoxy-α-<span class=\"text-smallcaps\">L</smallcap>-mannopyranosyl-(1→2)-<em>O</em>-[6-deoxy-α-<smallcap>L</smallcap>-mannopyranosyl-(1→6)]-β-<smallcap>D</span>-glucopyranosyl)oxy]-2-(3,4-dihydroxyphenyl)-5,7-dihydroxy-4<em>H</em>-1-benzopyran-4-one;Q2;Manghaslin;Quercetin 3-<em>O</em>-2<sup>G</sup>-rhamnosylrutinoside;Quercetin 3-(2<sup>G</sup>-rhamnosylrutinoside);Quercetin 3-<em>O</em>-(2,6-α-<span class=\"text-smallcaps\">L</smallcap>-dirhamnopyranosyl-β-<smallcap>D</span>-glucopyranoside);Quercetin 3-<em>O</em>-(2′′,6′′-di-<em>O</em>-α-<span class=\"text-smallcaps\">L</smallcap>-rhamnopyranosyl)-β-<smallcap>D</span>-glucopyranoside;Quercetin 3-<em>O</em>-rutinoside-(1→2)-<em>O</em>-rhamnoside;Quercetin-3-<em>O</em>-(2′′,6′′-di-<em>O</em>-α-<span class=\"text-smallcaps\">L</smallcap>-rhamnopyranosyl)-β-<smallcap>D</span>-glucoside",
    "duplicated_cas_no": "32602-82-7;216157-88-9;1214731-14-2",
    "SMILES": "O(C1=C(OC=2C(C1=O)=C(O)C=C(O)C2)C3=CC(O)=C(O)C=C3)[C@H]4[C@H](O[C@H]5[C@H](O)[C@H](O)[C@@H](O)[C@H](C)O5)[C@@H](O)[C@H](O)[C@@H](CO[C@H]6[C@H](O)[C@H](O)[C@@H](O)[C@H](C)O6)O4",
    "meta_data": {
        "InChI": "InChI=1S/C33H40O20/c1-9-19(38)23(42)26(45)31(48-9)47-8-17-21(40)25(44)30(53-32-27(46)24(43)20(39)10(2)49-32)33(51-17)52-29-22(41)18-15(37)6-12(34)7-16(18)50-28(29)11-3-4-13(35)14(36)5-11/h3-7,9-10,17,19-21,23-27,30-40,42-46H,8H2,1-2H3/t9-,10-,17+,19-,20-,21+,23+,24+,25-,26+,27+,30+,31+,32-,33-/m0/s1",
        "InChIKey": null,
        "Canonical SMILES": "O=C1C(OC2OC(COC3OC(C)C(O)C(O)C3O)C(O)C(O)C2OC4OC(C)C(O)C(O)C4O)=C(OC=5C=C(O)C=C(O)C15)C=6C=CC(O)=C(O)C6",
        "Molecular Formula": "C<sub>33</sub>H<sub>40</sub>O<sub>20</sub>",
        "Molecular Mass": "756.66",
        "Melting Point": "168-170 °C"
    }
}