{
    "cas_no": "500011-91-6",
    "key_name": "1<em>H</em>-Pyrazole-5-carboxylic acid, 3-bromo-1-(3-chloro-2-pyridinyl)-4,5-dihydro-, ethyl ester",
    "cn_name": null,
    "alternate_name": "1<em>H</em>-Pyrazole-5-carboxylic acid, 3-bromo-1-(3-chloro-2-pyridinyl)-4,5-dihydro-, ethyl ester;Ethyl 3-Bromo-1-(3-chloro-2-pyridinyl)-4,5-dihydro-1<em>H</em>-pyrazole-5-carboxylate",
    "duplicated_cas_no": "",
    "SMILES": "C(OCC)(=O)C1N(N=C(Br)C1)C2=C(Cl)C=CC=N2",
    "meta_data": {
        "InChI": "InChI=1S/C11H11BrClN3O2/c1-2-18-11(17)8-6-9(12)15-16(8)10-7(13)4-3-5-14-10/h3-5,8H,2,6H2,1H3",
        "InChIKey": null,
        "Canonical SMILES": "O=C(OCC)C1N(N=C(Br)C1)C2=NC=CC=C2Cl",
        "Molecular Formula": "C<sub>11</sub>H<sub>11</sub>BrClN<sub>3</sub>O<sub>2</sub>",
        "Molecular Mass": "332.58",
        "Melting Point": "59-60 °C"
    }
}