{
    "cas_no": "110-54-3",
    "key_name": "Hexane",
    "cn_name": "正己烷;",
    "alternate_name": "Hexane;<em>n</em>-Hexane;Skellysolve B;NSC 68472",
    "duplicated_cas_no": "8031-34-3",
    "SMILES": "C(CCC)CC",
    "meta_data": {
        "InChI": "InChI=1S/C6H14/c1-3-5-6-4-2/h3-6H2,1-2H3",
        "InChIKey": null,
        "Canonical SMILES": "CCCCCC",
        "Molecular Formula": "C<sub>6</sub>H<sub>14</sub>",
        "Molecular Mass": "86.18",
        "Boiling Point": "68.7 °C",
        "Melting Point": "-94.3 °C",
        "Density": "0.6548 g/cm³ @ Temp: 25 °C"
    }
}