{
    "cas_no": "2523-56-0",
    "key_name": "<em>cis</em>-4-Methylcyclohexanamine",
    "cn_name": null,
    "alternate_name": "Cyclohexanamine, 4-methyl-, <em>cis</em>-;Cyclohexylamine, 4-methyl-, <em>cis</em>-;<em>cis</em>-4-Methylcyclohexanamine;<em>cis</em>-4-Methylcyclohexylamine;4-<em>cis</em>-Methylcyclohexanamine;<em>cis</em>-1-Amino-4-methylcyclohexane;4-<em>cis</em>-Methylcyclohexylamine;<em>cis</em>-4-Methyl-1-cyclohexanamine",
    "duplicated_cas_no": "",
    "SMILES": "C[C@H]1CC[C@@H](N)CC1",
    "meta_data": {
        "InChI": "InChI=1/C7H15N/c1-6-2-4-7(8)5-3-6/h6-7H,2-5,8H2,1H3/t6-,7+",
        "InChIKey": null,
        "Canonical SMILES": "NC1CCC(C)CC1",
        "Molecular Formula": "C<sub>7</sub>H<sub>15</sub>N",
        "Molecular Mass": "113.20",
        "Boiling Point": "152-153 °C",
        "Density": "0.858 g/cm³ @ Temp: 20 °C"
    }
}