{
    "cas_no": "6048-82-4",
    "key_name": "Decanophenone",
    "cn_name": "癸酮;",
    "alternate_name": "1-Decanone, 1-phenyl-;Decanophenone;1-Phenyl-1-decanone;Capriphenone;Nonyl phenyl ketone;NSC 22014",
    "duplicated_cas_no": "",
    "SMILES": "C(CCCCCCCCC)(=O)C1=CC=CC=C1",
    "meta_data": {
        "InChI": "InChI=1S/C16H24O/c1-2-3-4-5-6-7-11-14-16(17)15-12-9-8-10-13-15/h8-10,12-13H,2-7,11,14H2,1H3",
        "InChIKey": null,
        "Canonical SMILES": "O=C(C=1C=CC=CC1)CCCCCCCCC",
        "Molecular Formula": "C<sub>16</sub>H<sub>24</sub>O",
        "Molecular Mass": "232.36",
        "Boiling Point": "142-146 °C @ Press: 2 Torr",
        "Melting Point": "33.0-33.5 °C"
    }
}