{
    "cas_no": "52488-28-5",
    "key_name": "1-Bromo-3-methyl-5-nitrobenzene",
    "cn_name": null,
    "alternate_name": "Benzene, 1-bromo-3-methyl-5-nitro-;Toluene, 3-bromo-5-nitro-;1-Bromo-3-methyl-5-nitrobenzene;3-Bromo-5-nitrotoluene",
    "duplicated_cas_no": "",
    "SMILES": "N(=O)(=O)C1=CC(Br)=CC(C)=C1",
    "meta_data": {
        "InChI": "InChI=1S/C7H6BrNO2/c1-5-2-6(8)4-7(3-5)9(10)11/h2-4H,1H3",
        "InChIKey": null,
        "Canonical SMILES": "O=N(=O)C1=CC(Br)=CC(=C1)C",
        "Molecular Formula": "C<sub>7</sub>H<sub>6</sub>BrNO<sub>2</sub>",
        "Molecular Mass": "216.03",
        "Boiling Point": "269.5 °C",
        "Melting Point": "83 °C"
    }
}