{
    "cas_no": "120162-55-2",
    "key_name": "Azimsulfuron",
    "cn_name": "四唑嘧磺隆;1-[(4,6-二甲氧基嘧啶-2-基)-3-[1-甲基-4-(2-甲基-2H-四唑-5-基)吡唑]-5-基磺酰基]脲;",
    "alternate_name": "1<em>H</em>-Pyrazole-5-sulfonamide, <em>N</em>-[[(4,6-dimethoxy-2-pyrimidinyl)amino]carbonyl]-1-methyl-4-(2-methyl-2<em>H</em>-tetrazol-5-yl)-;<em>N</em>-[[(4,6-Dimethoxy-2-pyrimidinyl)amino]carbonyl]-1-methyl-4-(2-methyl-2<em>H</em>-tetrazol-5-yl)-1<em>H</em>-pyrazole-5-sulfonamide;DPX 47;IN-A 8947;Azimsulfuron;DPX-A 8947;Gulliver",
    "duplicated_cas_no": "1198427-77-8",
    "SMILES": "S(NC(NC=1N=C(OC)C=C(OC)N1)=O)(=O)(=O)C2=C(C=NN2C)C3=NN(C)N=N3",
    "meta_data": {
        "InChI": "InChI=1S/C13H16N10O5S/c1-22-11(7(6-14-22)10-18-21-23(2)19-10)29(25,26)20-13(24)17-12-15-8(27-3)5-9(16-12)28-4/h5-6H,1-4H3,(H2,15,16,17,20,24)",
        "InChIKey": null,
        "Canonical SMILES": "O=C(NC=1N=C(OC)C=C(N1)OC)NS(=O)(=O)C2=C(C=NN2C)C=3N=NN(N3)C",
        "Molecular Formula": "C<sub>13</sub>H<sub>16</sub>N<sub>10</sub>O<sub>5</sub>S",
        "Molecular Mass": "424.40",
        "Melting Point": "170 °C"
    }
}