{
    "cas_no": "6044-68-4",
    "key_name": "3,3-Dimethoxy-1-propene",
    "cn_name": "3,3-二甲氧基-1-丙烯;",
    "alternate_name": "1-Propene, 3,3-dimethoxy-;Acrolein, dimethyl acetal;3,3-Dimethoxy-1-propene;1,1-Dimethoxyprop-2-ene;2-Propenal, dimethyl acetal;3,3-Dimethoxypropene;NSC 84156;A 151049",
    "duplicated_cas_no": "",
    "SMILES": "C(C=C)(OC)OC",
    "meta_data": {
        "InChI": "InChI=1S/C5H10O2/c1-4-5(6-2)7-3/h4-5H,1H2,2-3H3",
        "InChIKey": null,
        "Canonical SMILES": "O(C)C(OC)C=C",
        "Molecular Formula": "C<sub>5</sub>H<sub>10</sub>O<sub>2</sub>",
        "Molecular Mass": "102.13",
        "Boiling Point": "88 °C"
    }
}