{
    "cas_no": "76-39-1",
    "key_name": "2-Methyl-2-nitro-1-propanol",
    "cn_name": "2-甲基-2-硝基-1-丙醇;",
    "alternate_name": "1-Propanol, 2-methyl-2-nitro-;2-Methyl-2-nitro-1-propanol;2-Nitro-2-methyl-1-propanol;2-Nitro-2-methylpropanol;2-Methyl-2-nitropropanol;NSC 17676",
    "duplicated_cas_no": "",
    "SMILES": "C(N(=O)=O)(CO)(C)C",
    "meta_data": {
        "InChI": "InChI=1S/C4H9NO3/c1-4(2,3-6)5(7)8/h6H,3H2,1-2H3",
        "InChIKey": null,
        "Canonical SMILES": "O=N(=O)C(C)(C)CO",
        "Molecular Formula": "C<sub>4</sub>H<sub>9</sub>NO<sub>3</sub>",
        "Molecular Mass": "119.12",
        "Boiling Point": "94 °C",
        "Melting Point": "89.5 °C"
    }
}