{
    "cas_no": "579-07-7",
    "key_name": "1-Phenyl-1,2-propanedione",
    "cn_name": "1-苯基-1,2-丙二酮;",
    "alternate_name": "1,2-Propanedione, 1-phenyl-;1-Phenyl-1,2-propanedione;Pyruvophenone;Acetylbenzoyl;Benzoyl methyl ketone;Methylphenylglyoxal;3-Phenyl-2,3-propanedione;Benzoylacetyl;2-Oxopropiophenone;NSC 7643;1-Phenyl-2-oxopropan-1-one;3-Oxo-3-phenylpropan-2-one",
    "duplicated_cas_no": "30581-69-2",
    "SMILES": "C(C(C)=O)(=O)C1=CC=CC=C1",
    "meta_data": {
        "InChI": "InChI=1S/C9H8O2/c1-7(10)9(11)8-5-3-2-4-6-8/h2-6H,1H3",
        "InChIKey": null,
        "Canonical SMILES": "O=C(C=1C=CC=CC1)C(=O)C",
        "Molecular Formula": "C<sub>9</sub>H<sub>8</sub>O<sub>2</sub>",
        "Molecular Mass": "148.16",
        "Boiling Point": "222 °C",
        "Melting Point": "&lt;20 °C",
        "Density": "1.1083 g/cm³ @ Temp: 9.6 °C"
    }
}