{
    "cas_no": "14517-44-3",
    "key_name": "Methionylglutamic acid",
    "cn_name": null,
    "alternate_name": "<span class=\"text-smallcaps\">L</smallcap>-Glutamic acid, <smallcap>L</span>-methionyl-;Glutamic acid, <em>N</em>-<span class=\"text-smallcaps\">L</smallcap>-methionyl-, <smallcap>L</span>-;<span class=\"text-smallcaps\">L</smallcap>-Glutamic acid, <em>N</em>-<smallcap>L</span>-methionyl-;Glutamic acid, <em>N</em>-<span class=\"text-smallcaps\">L</span>-methionyl-;<span class=\"text-smallcaps\">L</smallcap>-Methionyl-<smallcap>L</span>-glutamic acid;Methionylglutamic acid;4: PN: KR20160137004 SEQID: 4 claimed sequence;8: PN: CN113637688 SEQID: 8 claimed protein;95: PN: WO2023161197 SEQID: 97 claimed sequence",
    "duplicated_cas_no": "",
    "SMILES": "[C@H](NC([C@H](CCSC)N)=O)(CCC(O)=O)C(O)=O",
    "meta_data": {
        "InChI": "InChI=1S/C10H18N2O5S/c1-18-5-4-6(11)9(15)12-7(10(16)17)2-3-8(13)14/h6-7H,2-5,11H2,1H3,(H,12,15)(H,13,14)(H,16,17)/t6-,7-/m0/s1",
        "InChIKey": null,
        "Canonical SMILES": "O=C(O)CCC(NC(=O)C(N)CCSC)C(=O)O",
        "Molecular Formula": "C<sub>10</sub>H<sub>18</sub>N<sub>2</sub>O<sub>5</sub>S",
        "Molecular Mass": "278.33",
        "Melting Point": "205-206 °C"
    }
}