{
    "cas_no": "81633-29-6",
    "key_name": "5-Pyrimidinecarboxylic acid, 2-amino-4-methyl-, ethyl ester",
    "cn_name": null,
    "alternate_name": "5-Pyrimidinecarboxylic acid, 2-amino-4-methyl-, ethyl ester;2-Amino-4-methylpyrimidine-5-carboxylic acid ethyl ester;Ethyl 2-amino-4-methylpyrimidine-5-carboxylate",
    "duplicated_cas_no": "",
    "SMILES": "C(OCC)(=O)C=1C(C)=NC(N)=NC1",
    "meta_data": {
        "InChI": "InChI=1S/C8H11N3O2/c1-3-13-7(12)6-4-10-8(9)11-5(6)2/h4H,3H2,1-2H3,(H2,9,10,11)",
        "InChIKey": null,
        "Canonical SMILES": "O=C(OCC)C1=CN=C(N=C1C)N",
        "Molecular Formula": "C<sub>8</sub>H<sub>11</sub>N<sub>3</sub>O<sub>2</sub>",
        "Molecular Mass": "181.19",
        "Melting Point": "222 °C"
    }
}