{
    "cas_no": "2291-59-0",
    "key_name": "9-Azabicyclo[3.3.1]nonan-3-one, 9-(phenylmethyl)-, hydrochloride (1:1)",
    "cn_name": "9-苄基-9-氮杂双环[3.3.1]壬-3-酮;",
    "alternate_name": "9-Azabicyclo[3.3.1]nonan-3-one, 9-(phenylmethyl)-, hydrochloride (1:1);9-Azabicyclo[3.3.1]nonan-3-one, 9-benzyl-, hydrochloride;9-Azabicyclo[3.3.1]nonan-3-one, 9-(phenylmethyl)-, hydrochloride;Norpseudopelletierine, <em>N</em>-benzyl-, hydrochloride;NSC 116041;9-Benzyl-9-azabicyclo[3.3.1]nonan-3-one hydrochloride",
    "duplicated_cas_no": "",
    "SMILES": "C(N1C2CC(=O)CC1CCC2)C3=CC=CC=C3.Cl",
    "meta_data": {
        "InChI": "InChI=1S/C15H19NO.ClH/c17-15-9-13-7-4-8-14(10-15)16(13)11-12-5-2-1-3-6-12;/h1-3,5-6,13-14H,4,7-11H2;1H",
        "InChIKey": null,
        "Canonical SMILES": "Cl.O=C1CC2N(CC=3C=CC=CC3)C(C1)CCC2",
        "Molecular Formula": "C<sub>15</sub>H<sub>19</sub>NO.ClH",
        "Molecular Mass": "",
        "Melting Point": "228 °C (decomp)"
    }
}