{
    "cas_no": "2350-89-2",
    "key_name": "4-Ethenyl-1,1′-biphenyl",
    "cn_name": "4-乙烯基联苯;4-苯基苯乙烯;",
    "alternate_name": "1,1′-Biphenyl, 4-ethenyl-;Biphenyl, 4-vinyl-;4-Ethenyl-1,1′-biphenyl;4-Vinylbiphenyl;4-Phenylstyrene;4-Vinyldiphenyl;<em>p</em>-Phenylstyrene;<em>p</em>-Vinylbiphenyl;4-Ethenylbiphenyl;NSC 58060;4-Vinyl-1,1′-biphenyl;(Biphenyl-4-yl)ethene;1-Ethenyl-4-phenylbenzene;Poly-<em>p</em>-phenylstyrene",
    "duplicated_cas_no": "",
    "SMILES": "C(=C)C1=CC=C(C=C1)C2=CC=CC=C2",
    "meta_data": {
        "InChI": "InChI=1S/C14H12/c1-2-12-8-10-14(11-9-12)13-6-4-3-5-7-13/h2-11H,1H2",
        "InChIKey": null,
        "Canonical SMILES": "C=CC=1C=CC(=CC1)C=2C=CC=CC2",
        "Molecular Formula": "C<sub>14</sub>H<sub>12</sub>",
        "Molecular Mass": "180.25",
        "Boiling Point": "136-138 °C @ Press: 6 Torr",
        "Melting Point": "119 °C"
    }
}