{
    "cas_no": "2373-89-9",
    "key_name": "4,4′-Dimethoxychalcone",
    "cn_name": "4,4\"-二甲氧基查耳酮;4,4\"-二甲氧基查耳酮;",
    "alternate_name": "2-Propen-1-one, 1,3-bis(4-methoxyphenyl)-;Chalcone, 4,4′-dimethoxy-;1,3-Bis(4-methoxyphenyl)-2-propen-1-one;4,4′-Dimethoxychalcone;<em>p</em>, <em>p</em>′-Dimethoxychalcone;NSC 87339;1,3-Bis(4-methoxyphenyl)propenone",
    "duplicated_cas_no": "47095-66-9",
    "SMILES": "C(C=CC1=CC=C(OC)C=C1)(=O)C2=CC=C(OC)C=C2",
    "meta_data": {
        "InChI": "InChI=1S/C17H16O3/c1-19-15-8-3-13(4-9-15)5-12-17(18)14-6-10-16(20-2)11-7-14/h3-12H,1-2H3",
        "InChIKey": null,
        "Canonical SMILES": "O=C(C=CC1=CC=C(OC)C=C1)C2=CC=C(OC)C=C2",
        "Molecular Formula": "C<sub>17</sub>H<sub>16</sub>O<sub>3</sub>",
        "Molecular Mass": "268.31",
        "Melting Point": "101-102 °C"
    }
}