{
    "cas_no": "3932-97-6",
    "key_name": "2,4-Dichloro-5-(trifluoromethyl)pyrimidine",
    "cn_name": "2,4-二氯-5-三氟甲基嘧啶;",
    "alternate_name": "Pyrimidine, 2,4-dichloro-5-(trifluoromethyl)-;2,4-Dichloro-5-(trifluoromethyl)pyrimidine;5-Trifluoromethyl-2,4-dichloropyrimidine;2,6-Dichloro-5-trifluoromethylpyrimidine",
    "duplicated_cas_no": "",
    "SMILES": "C(F)(F)(F)C=1C(Cl)=NC(Cl)=NC1",
    "meta_data": {
        "InChI": "InChI=1S/C5HCl2F3N2/c6-3-2(5(8,9)10)1-11-4(7)12-3/h1H",
        "InChIKey": null,
        "Canonical SMILES": "FC(F)(F)C1=CN=C(Cl)N=C1Cl",
        "Molecular Formula": "C<sub>5</sub>HCl<sub>2</sub>F<sub>3</sub>N<sub>2</sub>",
        "Molecular Mass": "216.98",
        "Boiling Point": "126 °C @ Press: 650 Torr"
    }
}