{
    "cas_no": "130-89-2",
    "key_name": "Quinine, monohydrochloride",
    "cn_name": null,
    "alternate_name": "Cinchonan-9-ol, 6′-methoxy-, hydrochloride (1:1), (8α,9<em>R</em>)-;Quinine, monohydrochloride;Cinchonan-9-ol, 6′-methoxy-, monohydrochloride, (8α,9<em>R</em>)-;Quinine hydrochloride;Quinine muriate;Chinimetten;Chinine hydrochloride",
    "duplicated_cas_no": "11034-23-4;70181-38-3;70181-37-2;918656-55-0",
    "SMILES": "[C@@H](O)(C=1C2=C(C=CC(OC)=C2)N=CC1)[C@]3([N@@]4C[C@H](C=C)[C@](C3)(CC4)[H])[H].Cl",
    "meta_data": {
        "InChI": "InChI=1S/C20H24N2O2.ClH/c1-3-13-12-22-9-7-14(13)10-19(22)20(23)16-6-8-21-18-5-4-15(24-2)11-17(16)18;/h3-6,8,11,13-14,19-20,23H,1,7,9-10,12H2,2H3;1H/t13-,14-,19-,20+;/m0./s1",
        "InChIKey": null,
        "Canonical SMILES": "Cl.OC(C=1C=CN=C2C=CC(OC)=CC21)C3N4CCC(C3)C(C=C)C4",
        "Molecular Formula": "C<sub>20</sub>H<sub>24</sub>N<sub>2</sub>O<sub>2</sub>.ClH",
        "Molecular Mass": "",
        "Melting Point": "159 °C"
    }
}