{
    "cas_no": "1169-49-9",
    "key_name": "Testosterone, isobutyrate",
    "cn_name": "异丁酸睾酮;",
    "alternate_name": "Androst-4-en-3-one, 17-(2-methyl-1-oxopropoxy)-, (17β)-;Testosterone, isobutyrate;Isobutyric acid, ester with testosterone;(17β)-17-(2-Methyl-1-oxopropoxy)androst-4-en-3-one;Perandren M;Testosterone 17-isobutyrate;Testosterone 2-methylpropionate;17β-(Isobutyroxy)androst-4-en-3-one;3-Oxoandrost-4-en-17β-yl isobutyrate;Agovirin-Depot;Testocryst;Testosterone 2-methylpropanoate",
    "duplicated_cas_no": "",
    "SMILES": "C[C@@]12[C@@]3([C@]([C@]4([C@](C)(CC3)[C@@H](OC(C(C)C)=O)CC4)[H])(CCC1=CC(=O)CC2)[H])[H]",
    "meta_data": {
        "InChI": "InChI=1S/C23H34O3/c1-14(2)21(25)26-20-8-7-18-17-6-5-15-13-16(24)9-11-22(15,3)19(17)10-12-23(18,20)4/h13-14,17-20H,5-12H2,1-4H3/t17-,18-,19-,20-,22-,23-/m0/s1",
        "InChIKey": null,
        "Canonical SMILES": "O=C1C=C2CCC3C(CCC4(C)C(OC(=O)C(C)C)CCC34)C2(C)CC1",
        "Molecular Formula": "C<sub>23</sub>H<sub>34</sub>O<sub>3</sub>",
        "Molecular Mass": "358.51",
        "Melting Point": "134-136 °C"
    }
}