{
    "cas_no": "73080-51-0",
    "key_name": "Repirinast",
    "cn_name": "瑞吡司特;7,8-二甲基-4,5-二氧代-6H-吡喃并[5,6-c]喹啉-2-甲酸3-甲基丁基酯;",
    "alternate_name": "4<em>H</em>-Pyrano[3,2-<em>c</em>]quinoline-2-carboxylic acid, 5,6-dihydro-7,8-dimethyl-4,5-dioxo-, 3-methylbutyl ester;MY 5116;Repirinast;Romet",
    "duplicated_cas_no": "",
    "SMILES": "O=C1C2=C(C=3C(N1)=C(C)C(C)=CC3)OC(C(OCCC(C)C)=O)=CC2=O",
    "meta_data": {
        "InChI": "InChI=1S/C20H21NO5/c1-10(2)7-8-25-20(24)15-9-14(22)16-18(26-15)13-6-5-11(3)12(4)17(13)21-19(16)23/h5-6,9-10H,7-8H2,1-4H3,(H,21,23)",
        "InChIKey": null,
        "Canonical SMILES": "O=C(OCCC(C)C)C=1OC=2C=3C=CC(=C(C3NC(=O)C2C(=O)C1)C)C",
        "Molecular Formula": "C<sub>20</sub>H<sub>21</sub>NO<sub>5</sub>",
        "Molecular Mass": "355.38",
        "Melting Point": "236-241 °C"
    }
}