{
    "cas_no": "53915-69-8",
    "key_name": "Tributyl-1,2-propadien-1-ylstannane",
    "cn_name": "1,2-丙二烯三丁基锡;",
    "alternate_name": "Stannane, tributyl-1,2-propadien-1-yl-;Stannane, tributyl-1,2-propadienyl-;Tributyl-1,2-propadien-1-ylstannane;Allenyltributyltin;Allenyltributylstannane;Allenyltri-<em>n</em>-butylstannane;Tributyl(1,2-propadienyl)stannane;1-(Tributylstannyl)propa-1,2-diene",
    "duplicated_cas_no": "",
    "SMILES": "[Sn](CCCC)(CCCC)(CCCC)C=C=C",
    "meta_data": {
        "InChI": "InChI=1S/3C4H9.C3H3.Sn/c3*1-3-4-2;1-3-2;/h3*1,3-4H2,2H3;1H,2H2;",
        "InChIKey": null,
        "Canonical SMILES": "C(=C)=C[Sn](CCCC)(CCCC)CCCC",
        "Molecular Formula": "C<sub>15</sub>H<sub>30</sub>Sn",
        "Molecular Mass": "329.11",
        "Boiling Point": "90-92 °C @ Press: 0.1 Torr"
    }
}