{
    "cas_no": "1131604-99-3",
    "key_name": "5-Bromo-4-chloro-2,3-pyridinediamine",
    "cn_name": null,
    "alternate_name": "2,3-Pyridinediamine, 5-bromo-4-chloro-;5-Bromo-4-chloro-2,3-pyridinediamine",
    "duplicated_cas_no": "",
    "SMILES": "ClC=1C(N)=C(N)N=CC1Br",
    "meta_data": {
        "InChI": "InChI=1S/C5H5BrClN3/c6-2-1-10-5(9)4(8)3(2)7/h1H,8H2,(H2,9,10)",
        "InChIKey": null,
        "Canonical SMILES": "ClC=1C(Br)=CN=C(N)C1N",
        "Molecular Formula": "C<sub>5</sub>H<sub>5</sub>BrClN<sub>3</sub>",
        "Molecular Mass": "222.47",
        "Melting Point": "164 °C"
    }
}