{
    "cas_no": "121-72-2",
    "key_name": "Dimethyl-<em>m</em>-toluidine",
    "cn_name": "N,N-二甲基间甲苯胺;3-甲基-N,N-二甲基苯胺;",
    "alternate_name": "Benzenamine, <em>N</em>,<em>N</em>,3-trimethyl-;<em>m</em>-Toluidine, <em>N</em>,<em>N</em>-dimethyl-;<em>N</em>,<em>N</em>,3-Trimethylbenzenamine;<em>N</em>,<em>N</em>-Dimethyl-<em>m</em>-methylaniline;<em>m</em>-Methyl-<em>N</em>,<em>N</em>-dimethylaniline;<em>N</em>,<em>N</em>-Dimethyl-3-methylaniline;<em>m</em>,<em>N</em>,<em>N</em>-Trimethylaniline;Dimethyl-<em>m</em>-toluidine;<em>N</em>,<em>N</em>,3-Trimethylaniline;3-Methyl-<em>N</em>,<em>N</em>-dimethylaniline;3-(Dimethylamino)toluene;<em>N</em>,<em>N</em>-Dimethyl-<em>m</em>-toluidine;NSC 1788",
    "duplicated_cas_no": "",
    "SMILES": "N(C)(C)C1=CC(C)=CC=C1",
    "meta_data": {
        "InChI": "InChI=1S/C9H13N/c1-8-5-4-6-9(7-8)10(2)3/h4-7H,1-3H3",
        "InChIKey": null,
        "Canonical SMILES": "C=1C=C(C=C(C1)C)N(C)C",
        "Molecular Formula": "C<sub>9</sub>H<sub>13</sub>N",
        "Molecular Mass": "135.21",
        "Boiling Point": "212 °C",
        "Melting Point": "127 °C",
        "Density": "0.9410 g/cm³"
    }
}