{
    "cas_no": "1003-99-2",
    "key_name": "2-Bromo-5-fluorobenzenamine",
    "cn_name": "2-溴-5-氟苯胺;",
    "alternate_name": "Benzenamine, 2-bromo-5-fluoro-;Aniline, 2-bromo-5-fluoro-;2-Bromo-5-fluorobenzenamine;2-Bromo-5-fluoroaniline;2-Bromo-5-fluorobenzeneamine",
    "duplicated_cas_no": "",
    "SMILES": "NC1=C(Br)C=CC(F)=C1",
    "meta_data": {
        "InChI": "InChI=1S/C6H5BrFN/c7-5-2-1-4(8)3-6(5)9/h1-3H,9H2",
        "InChIKey": null,
        "Canonical SMILES": "FC1=CC=C(Br)C(N)=C1",
        "Molecular Formula": "C<sub>6</sub>H<sub>5</sub>BrFN",
        "Molecular Mass": "190.01",
        "Boiling Point": "109-110 °C @ Press: 15 Torr"
    }
}