{
    "cas_no": "33203-82-6",
    "key_name": "Phenoxazin-5-ium, 3,7-bis(diethylamino)-, chloride (1:1)",
    "cn_name": "阳离子翠蓝GB;阳离子翠蓝GB;阳离子翠蓝X-GB;碱性兰3;碱性蓝 3;",
    "alternate_name": "Phenoxazin-5-ium, 3,7-bis(diethylamino)-, chloride (1:1);Ammonium, [7-(diethylamino)-3<em>H</em>-phenoxazin-3-ylidene]diethyl-, chloride;Ethanaminium, <em>N</em>-[7-(diethylamino)-3<em>H</em>-phenoxazin-3-ylidene]-<em>N</em>-ethyl-, chloride;Phenoxazin-5-ium, 3,7-bis(diethylamino)-, chloride;Diethyl(7-diethylamino-3<em>H</em>-phenoxazin-3-ylidene)ammonium chloride;3,7-Bis(diethylamino)phenoxazonium chloride;Cationic Turquoise 2Z;Rhoduline Basic Blue 3G;Maxilon Blue",
    "duplicated_cas_no": "6703-67-9;77641-00-0;127302-45-8;940888-75-5;2097526-91-3",
    "SMILES": "N(CC)(CC)C1=CC2=C(N=C3C(=[O+]2)C=C(N(CC)CC)C=C3)C=C1.[Cl-]",
    "meta_data": {
        "InChI": "InChI=1S/C20H26N3O.ClH/c1-5-22(6-2)15-9-11-17-19(13-15)24-20-14-16(23(7-3)8-4)10-12-18(20)21-17;/h9-14H,5-8H2,1-4H3;1H/q+1;/p-1",
        "InChIKey": null,
        "Canonical SMILES": "[Cl-].N=1C2=CC=C(C=C2[O+]=C3C=C(C=CC13)N(CC)CC)N(CC)CC",
        "Molecular Formula": "C<sub>20</sub>H<sub>26</sub>N<sub>3</sub>O.Cl",
        "Molecular Mass": "",
        "Melting Point": "194-195 °C"
    }
}