{
    "cas_no": "364-30-7",
    "key_name": "2,4-Difluoro-6-nitrobenzenamine",
    "cn_name": "2,4-二氟-6-硝基苯胺;",
    "alternate_name": "Benzenamine, 2,4-difluoro-6-nitro-;Aniline, 2,4-difluoro-6-nitro-;2,4-Difluoro-6-nitrobenzenamine;2,4-Difluoro-6-nitroaniline;2-Amino-3,5-difluoronitrobenzene;NSC 81335;(2,4-Difluoro-6-nitrophenyl)amine",
    "duplicated_cas_no": "",
    "SMILES": "N(=O)(=O)C1=C(N)C(F)=CC(F)=C1",
    "meta_data": {
        "InChI": "InChI=1S/C6H4F2N2O2/c7-3-1-4(8)6(9)5(2-3)10(11)12/h1-2H,9H2",
        "InChIKey": null,
        "Canonical SMILES": "O=N(=O)C=1C=C(F)C=C(F)C1N",
        "Molecular Formula": "C<sub>6</sub>H<sub>4</sub>F<sub>2</sub>N<sub>2</sub>O<sub>2</sub>",
        "Molecular Mass": "174.10",
        "Melting Point": "85.5-86.5 °C (sublm)"
    }
}