{
    "cas_no": "7699-31-2",
    "key_name": "Hydrazine, 1,2-diethyl-, hydrochloride (1:2)",
    "cn_name": "N,N\"-二乙基肼二盐酸盐;N,N\"-二乙基肼二盐酸盐;",
    "alternate_name": "Hydrazine, 1,2-diethyl-, hydrochloride (1:2);Hydrazine, 1,2-diethyl-, dihydrochloride;1,2-Diethylhydrazine dihydrochloride;<em>N</em>,<em>N</em>′-Diethylhydrazine dihydrochloride",
    "duplicated_cas_no": "",
    "SMILES": "N(NCC)CC.Cl",
    "meta_data": {
        "InChI": "InChI=1S/C4H12N2.2ClH/c1-3-5-6-4-2;;/h5-6H,3-4H2,1-2H3;2*1H",
        "InChIKey": null,
        "Canonical SMILES": "Cl.N(NCC)CC",
        "Molecular Formula": "C<sub>4</sub>H<sub>12</sub>N<sub>2</sub>.2ClH",
        "Molecular Mass": "",
        "Melting Point": "168-169 °C"
    }
}