{
    "cas_no": "366789-02-8",
    "key_name": "Rivaroxaban",
    "cn_name": null,
    "alternate_name": "2-Thiophenecarboxamide, 5-chloro-<em>N</em>-[[(5<em>S</em>)-2-oxo-3-[4-(3-oxo-4-morpholinyl)phenyl]-5-oxazolidinyl]methyl]-;5-Chloro-<em>N</em>-[[(5<em>S</em>)-2-oxo-3-[4-(3-oxo-4-morpholinyl)phenyl]-5-oxazolidinyl]methyl]-2-thiophenecarboxamide;Rivaroxaban;BAY 59-7939;5-Chloro-<em>N</em>-[[(<em>S</em>)-3-(4-(3-oxomorpholin-4-yl)phenyl)-2-oxo-1,3-oxazolidin-5-yl]methyl]-thiophene-2-carboxamide;Xarelto;5-Chloro-<em>N</em>-[[(5<em>S</em>)-2-oxo-3-[4-(3-oxo-4-morpholinyl)phenyl]-1,3-oxazolidin-5-yl]methyl]-2-thiophenecarboxamide;5-Chloro-<em>N</em>-([(5S)-2-oxo-3-[4-(3-oxo-4-morpholinyl)-phenyl]-1,3-oxazolidin-5-yl]-methyl)-2-thiophenecarboxamide;(<em>S</em>)-Rivaroxaban",
    "duplicated_cas_no": "869880-21-7;931117-62-3;1807854-46-1",
    "SMILES": "O=C1N(C[C@H](CNC(=O)C=2SC(Cl)=CC2)O1)C3=CC=C(C=C3)N4C(=O)COCC4",
    "meta_data": {
        "InChI": "InChI=1S/C19H18ClN3O5S/c20-16-6-5-15(29-16)18(25)21-9-14-10-23(19(26)28-14)13-3-1-12(2-4-13)22-7-8-27-11-17(22)24/h1-6,14H,7-11H2,(H,21,25)/t14-/m0/s1",
        "InChIKey": null,
        "Canonical SMILES": "O=C1OC(CNC(=O)C=2SC(Cl)=CC2)CN1C3=CC=C(C=C3)N4C(=O)COCC4",
        "Molecular Formula": "C<sub>19</sub>H<sub>18</sub>ClN<sub>3</sub>O<sub>5</sub>S",
        "Molecular Mass": "435.88",
        "Melting Point": "230 °C",
        "Density": "1.5167 g/cm³"
    }
}