{
    "cas_no": "23056-47-5",
    "key_name": "2-Bromo-4-methyl-5-nitropyridine",
    "cn_name": "2-溴-4-甲基-5-硝基吡啶;",
    "alternate_name": "Pyridine, 2-bromo-4-methyl-5-nitro-;4-Picoline, 2-bromo-5-nitro-;2-Bromo-4-methyl-5-nitropyridine;NSC 403724",
    "duplicated_cas_no": "",
    "SMILES": "N(=O)(=O)C=1C(C)=CC(Br)=NC1",
    "meta_data": {
        "InChI": "InChI=1S/C6H5BrN2O2/c1-4-2-6(7)8-3-5(4)9(10)11/h2-3H,1H3",
        "InChIKey": null,
        "Canonical SMILES": "O=N(=O)C1=CN=C(Br)C=C1C",
        "Molecular Formula": "C<sub>6</sub>H<sub>5</sub>BrN<sub>2</sub>O<sub>2</sub>",
        "Molecular Mass": "217.02",
        "Melting Point": "180-181 °C"
    }
}