{
    "cas_no": "7146-15-8",
    "key_name": "<span class=\"text-smallcaps\">D</span>-Valine, methyl ester, hydrochloride (1:1)",
    "cn_name": "D-缬氨酸甲酯盐酸盐;",
    "alternate_name": "<span class=\"text-smallcaps\">D</span>-Valine, methyl ester, hydrochloride (1:1);Valine, methyl ester, hydrochloride, <span class=\"text-smallcaps\">D</span>-;<span class=\"text-smallcaps\">D</span>-Valine, methyl ester, hydrochloride;Methyl <span class=\"text-smallcaps\">D</span>-valinate hydrochloride;(<em>R</em>)-2-Amino-3-methylbutyric acid methyl ester hydrochloride;NSC 22921;(<em>R</em>)-2-Amino-3-methylbutanoic acid methyl ester hydrochloride;Methyl (<em>R</em>)-2-amino-3-methylbutanoate hydrochloride;(R)-Methyl 2-amino-3-methylbutanoate hydrochloride",
    "duplicated_cas_no": "",
    "SMILES": "[C@H](C(OC)=O)(C(C)C)N.Cl",
    "meta_data": {
        "InChI": "InChI=1S/C6H13NO2.ClH/c1-4(2)5(7)6(8)9-3;/h4-5H,7H2,1-3H3;1H/t5-;/m1./s1",
        "InChIKey": null,
        "Canonical SMILES": "Cl.O=C(OC)C(N)C(C)C",
        "Molecular Formula": "C<sub>6</sub>H<sub>13</sub>NO<sub>2</sub>.ClH",
        "Molecular Mass": "",
        "Melting Point": "167.5-168 °C"
    }
}