{
    "cas_no": "93-85-6",
    "key_name": "2-Amino-6-benzothiazolecarboxylic acid",
    "cn_name": "2-氨基苯并噻唑-6-甲酸;",
    "alternate_name": "6-Benzothiazolecarboxylic acid, 2-amino-;2-Amino-6-benzothiazolecarboxylic acid;2-Amino-6-carboxybenzothiazole;NSC 39119;2-Amino-1,3-benzothiazole-6-carboxylic acid;2-Aminobenzo[<em>d</em>]thiazole-6-carboxylic acid",
    "duplicated_cas_no": "",
    "SMILES": "C(O)(=O)C=1C=C2C(=CC1)N=C(N)S2",
    "meta_data": {
        "InChI": "InChI=1S/C8H6N2O2S/c9-8-10-5-2-1-4(7(11)12)3-6(5)13-8/h1-3H,(H2,9,10)(H,11,12)",
        "InChIKey": null,
        "Canonical SMILES": "O=C(O)C=1C=CC=2N=C(SC2C1)N",
        "Molecular Formula": "C<sub>8</sub>H<sub>6</sub>N<sub>2</sub>O<sub>2</sub>S",
        "Molecular Mass": "194.21",
        "Melting Point": "265 °C (decomp)"
    }
}