{
    "cas_no": "16415-13-7",
    "key_name": "Hexadecyltriethoxysilane",
    "cn_name": "十六烷基三乙氧基硅烷;",
    "alternate_name": "Silane, triethoxyhexadecyl-;Triethoxyhexadecylsilane;Hexadecyltriethoxysilane;Cetyltriethoxysilane;Triethoxy-<em>n</em>-hexadecylsilane;VP-Si 216;<em>n</em>-Hexadecyltriethoxysilane",
    "duplicated_cas_no": "",
    "SMILES": "[Si](CCCCCCCCCCCCCCCC)(OCC)(OCC)OCC",
    "meta_data": {
        "InChI": "InChI=1S/C22H48O3Si/c1-5-9-10-11-12-13-14-15-16-17-18-19-20-21-22-26(23-6-2,24-7-3)25-8-4/h5-22H2,1-4H3",
        "InChIKey": null,
        "Canonical SMILES": "O(CC)[Si](OCC)(OCC)CCCCCCCCCCCCCCCC",
        "Molecular Formula": "C<sub>22</sub>H<sub>48</sub>O<sub>3</sub>Si",
        "Molecular Mass": "388.70",
        "Boiling Point": "160-161 °C @ Press: 1 Torr",
        "Melting Point": "-9 °C",
        "Density": "0.888 g/cm³"
    }
}