{
    "cas_no": "14933-08-5",
    "key_name": "<em>N</em>-Dodecyl-<em>N</em>,<em>N</em>-dimethyl-3-ammonio-1-propanesulfonate",
    "cn_name": "3-(N,N-二甲基十二烷基铵)丙烷磺酸盐;3-磺丙基十二烷基二甲基甜菜碱;",
    "alternate_name": "1-Dodecanaminium, <em>N</em>,<em>N</em>-dimethyl-<em>N</em>-(3-sulfopropyl)-, inner salt;Ammonium, dodecyldimethyl(3-sulfopropyl)-, hydroxide, inner salt;1-Dodecanaminium, <em>N</em>,<em>N</em>-dimethyl-<em>N</em>-(3-sulfopropyl)-, hydroxide, inner salt;3-(<em>N</em>,<em>N</em>-Dimethyl-<em>N</em>-dodecylammonio)propane-1-sulfonate;3-(Dimethyldodecylammonio)propane-1-sulfonate;Zwittergent 3-12;<em>N</em>-Dodecylsulfobetaine;ZWIG 12;ZWT 12;3-(<em>N</em>-Dodecyl-<em>N</em>,<em>N</em>-dimethylammonium)propane-1-sulfonic acid inner salt;Zwittergent TM 3-12;Zwittergent TM 12;SB 3-12;SB<sub>12</sub>;Ralufon DL;SB<sub>12</sub> (quaternary compound);3-(<em>N</em>-Dodecyl-<em>N</em>,<em>N</em>-dimethylammonio)-1-propanesulfonate;Sulfobetaine 12;Hartomer HB 5175;NDA;Dodecyldimethyl(3-sulfopropyl)ammonium hydroxide inner salt;3-(Dodecyldimethylammonio)-1-propanesulfonate;α-(Dodecyldimethylammonio)-ω-propanesulfonate;Sulfobetain 12;Dodecyldimethyl(3-sulfopropyl)ammonium hydroxide;<em>N</em>-Dodecyl-<em>N</em>,<em>N</em>-dimethylammonio-3-propanesulfonate;<em>N</em>-Dodecyl-<em>N</em>,<em>N</em>-dimethyl-3-ammonio-1-propanesulfonate;DDAPS;Dodecyldimethyl(3-sulfopropyl)ammonium inner salt;Sulfobetaine 3-10;3-(Dodecyldimethylammonio)propanesulfonate;Laurylpropylsulfobetaine;<em>N</em>-Dodecyl-<em>N</em>,<em>N</em>-dimethyl-3-ammonio-1-propanesulphonate;ZW 3-12;DPS;3-(<em>N</em>,<em>N</em>-Dimethyl-<em>N</em>-laurylamino)propanesulfonic acid inner salt;3-(<em>N</em>-Lauryl-<em>N</em>,<em>N</em>-dimethylamino)propanesulfonate inner salt;Anzergent 3-12;<em>N</em>-Dodecyl-<em>N</em>,<em>N</em>-dimethyl-3-ammonium-1-propanesulfonate;3-(Dodecyldimethylammonio)propanesulfonate inner salt;3-(<em>N</em>,<em>N</em>-Dimethyl-1-dodecylammonium)propanesulfonate;SB 12;SB 12 (onium compound);DSB;C 12APS;C12APS;Dodecyldimethylammonium propanesulfonate;Sulfobetaine 3-12",
    "duplicated_cas_no": "74812-18-3;76975-15-0;107934-23-6;134280-89-0;881682-60-6",
    "SMILES": "C([N+](CCCCCCCCCCCC)(C)C)CCS(=O)(=O)[O-]",
    "meta_data": {
        "InChI": "InChI=1S/C17H37NO3S/c1-4-5-6-7-8-9-10-11-12-13-15-18(2,3)16-14-17-22(19,20)21/h4-17H2,1-3H3",
        "InChIKey": null,
        "Canonical SMILES": "O=S(=O)([O-])CCC[N+](C)(C)CCCCCCCCCCCC",
        "Molecular Formula": "C<sub>17</sub>H<sub>37</sub>NO<sub>3</sub>S",
        "Molecular Mass": "",
        "Melting Point": "300-302 °C (decomp)"
    }
}