{
    "cas_no": "54527-84-3",
    "key_name": "Nicardipine hydrochloride",
    "cn_name": "盐酸尼卡地平;2,6-二甲基-4-(3-硝基苯基)-1,4-二氢-3,5-吡啶二羧酸2-[甲基(苄基)氨基]乙基甲基酯盐酸盐;",
    "alternate_name": "3,5-Pyridinedicarboxylic acid, 1,4-dihydro-2,6-dimethyl-4-(3-nitrophenyl)-, 3-methyl 5-[2-[methyl(phenylmethyl)amino]ethyl] ester, hydrochloride (1:1);3,5-Pyridinedicarboxylic acid, 1,4-dihydro-2,6-dimethyl-4-(3-nitrophenyl)-, methyl 2-[methyl(phenylmethyl)amino]ethyl ester, monohydrochloride;2,6-Dimethyl-4-(3-nitrophenyl)-1,4-dihydropyridine-3,5-dicarboxylic acid 3-[2-(<em>N</em>-benzyl-<em>N</em>-methylamino)]-ethyl ester 5-methyl ester hydrochloride;YC 93;Nicardipine hydrochloride;Perdipine;Cardene;Cardene (pharmaceutical);Vasonase;Ridene;Vasodin;Nicardal;Nicapress;Lescodil;RS 69216;Rycarden;Nerdipina;Lecibral;Nicant;RS 69216XX07-0;Bionicard;Dacarel;Barizin;Nicodel;Perdipina;Ranvil;Loxen;Nimicor;Rydene;Nicarpin;Cardepine;Cardene SR",
    "duplicated_cas_no": "152046-25-8",
    "SMILES": "C(OCCN(CC1=CC=CC=C1)C)(=O)C=2C(C(C(OC)=O)=C(C)NC2C)C3=CC(N(=O)=O)=CC=C3.Cl",
    "meta_data": {
        "InChI": "InChI=1S/C26H29N3O6.ClH/c1-17-22(25(30)34-4)24(20-11-8-12-21(15-20)29(32)33)23(18(2)27-17)26(31)35-14-13-28(3)16-19-9-6-5-7-10-19;/h5-12,15,24,27H,13-14,16H2,1-4H3;1H",
        "InChIKey": null,
        "Canonical SMILES": "Cl.O=C(OC)C1=C(NC(=C(C(=O)OCCN(C)CC=2C=CC=CC2)C1C=3C=CC=C(C3)N(=O)=O)C)C",
        "Molecular Formula": "C<sub>26</sub>H<sub>29</sub>N<sub>3</sub>O<sub>6</sub>.ClH",
        "Molecular Mass": "",
        "Melting Point": "168-170 °C"
    }
}