{
    "cas_no": "343-65-7",
    "key_name": "Kynurenine",
    "cn_name": "DL-犬尿素;",
    "alternate_name": "Benzenebutanoic acid, α,2-diamino-γ-oxo-;Alanine, 3-anthraniloyl-;α,2-Diamino-γ-oxobenzenebutanoic acid;3-Anthraniloylalanine;Kynurenine;Kynurenin;<span class=\"text-smallcaps\">DL</span>-Kynurenine;(±)-Kynurenine;<em>dl</em>-Kynurenine;3-Anthraniloyl-<span class=\"text-smallcaps\">D</smallcap><smallcap>L</span>-alanine;2-Amino-4-(2-aminophenyl)-4-oxobutanoicacid;MeSH ID: D007737",
    "duplicated_cas_no": "3039-10-9",
    "SMILES": "C(CC(C(O)=O)N)(=O)C1=C(N)C=CC=C1",
    "meta_data": {
        "InChI": "InChI=1S/C10H12N2O3/c11-7-4-2-1-3-6(7)9(13)5-8(12)10(14)15/h1-4,8H,5,11-12H2,(H,14,15)",
        "InChIKey": null,
        "Canonical SMILES": "O=C(O)C(N)CC(=O)C=1C=CC=CC1N",
        "Molecular Formula": "C<sub>10</sub>H<sub>12</sub>N<sub>2</sub>O<sub>3</sub>",
        "Molecular Mass": "208.21",
        "Melting Point": "191 °C (decomp)"
    }
}