{
    "cas_no": "3303-45-5",
    "key_name": "<span class=\"text-smallcaps\">L</smallcap>-Alanyl-<smallcap>L</span>-valine",
    "cn_name": null,
    "alternate_name": "<span class=\"text-smallcaps\">L</smallcap>-Valine, <smallcap>L</span>-alanyl-;<span class=\"text-smallcaps\">L</smallcap>-Valine, <em>N</em>-<smallcap>L</span>-alanyl-;Valine, <em>N</em>-<span class=\"text-smallcaps\">L</smallcap>-alanyl-, <smallcap>L</span>-;<span class=\"text-smallcaps\">L</smallcap>-Alanyl-<smallcap>L</span>-valine;Alanylvaline;Ala-Val;NSC 89603;447: PN: WO2005081628 SEQID: 1556 claimed protein;36: PN: WO2014102104 SEQID: 135 claimed protein;36: PN: WO2014102101 SEQID: 336 claimed protein;76: PN: WO2014102103 TABLE: 1 claimed protein;55: PN: WO2014102100 TABLE: 1 claimed protein;70: PN: WO2014170713 SEQID: 176 claimed protein;2: PN: CN109305994 PAGE: 5 claimed sequence;486: PN: WO2022177963 SEQID: 587 claimed protein;1: PN: WO2023281657 PAGE: 22 claimed sequence;8: PN: WO2023056433 PAGE: 60 claimed sequence;89: PN: WO2023161197 SEQID: 91 claimed sequence",
    "duplicated_cas_no": "",
    "SMILES": "[C@H](NC([C@H](C)N)=O)([C@H](C)C)C(O)=O",
    "meta_data": {
        "InChI": "InChI=1S/C8H16N2O3/c1-4(2)6(8(12)13)10-7(11)5(3)9/h4-6H,9H2,1-3H3,(H,10,11)(H,12,13)/t5-,6-/m0/s1",
        "InChIKey": null,
        "Canonical SMILES": "O=C(O)C(NC(=O)C(N)C)C(C)C",
        "Molecular Formula": "C<sub>8</sub>H<sub>16</sub>N<sub>2</sub>O<sub>3</sub>",
        "Molecular Mass": "188.22",
        "Melting Point": "238 °C",
        "Density": "1.180 g/cm³ @ Temp: 26 °C"
    }
}