{
    "cas_no": "4143-62-8",
    "key_name": "3′,4′-Dimethoxyflavone",
    "cn_name": "3\",4\"-二甲氧基黄酮;3\",4\"-二甲氧基黄酮;",
    "alternate_name": "4<em>H</em>-1-Benzopyran-4-one, 2-(3,4-dimethoxyphenyl)-;Flavone, 3′,4′-dimethoxy-;2-(3,4-Dimethoxyphenyl)-4<em>H</em>-1-benzopyran-4-one;3′,4′-Dimethoxyflavone;2-(3,4-Dimethoxyphenyl)-4<em>H</em>-chromen-4-one;2-(3,4-Dimethoxyphenyl)chromen-4-one",
    "duplicated_cas_no": "",
    "SMILES": "O=C1C=C(OC=2C1=CC=CC2)C3=CC(OC)=C(OC)C=C3",
    "meta_data": {
        "InChI": "InChI=1S/C17H14O4/c1-19-15-8-7-11(9-17(15)20-2)16-10-13(18)12-5-3-4-6-14(12)21-16/h3-10H,1-2H3",
        "InChIKey": null,
        "Canonical SMILES": "O=C1C=C(OC=2C=CC=CC12)C=3C=CC(OC)=C(OC)C3",
        "Molecular Formula": "C<sub>17</sub>H<sub>14</sub>O<sub>4</sub>",
        "Molecular Mass": "282.29",
        "Melting Point": "156 °C"
    }
}