{
    "cas_no": "617-33-4",
    "key_name": "Ethyl 2,2-dibromoacetate",
    "cn_name": "二溴乙酸乙酯;",
    "alternate_name": "Acetic acid, 2,2-dibromo-, ethyl ester;Acetic acid, dibromo-, ethyl ester;Ethyl 2,2-dibromoacetate;Dibromoacetic acid ethyl ester;Ethyl dibromoacetate;NSC 8830;2,2-Dibromoacetic acid ethyl ester",
    "duplicated_cas_no": "",
    "SMILES": "C(OCC)(C(Br)Br)=O",
    "meta_data": {
        "InChI": "InChI=1S/C4H6Br2O2/c1-2-8-4(7)3(5)6/h3H,2H2,1H3",
        "InChIKey": null,
        "Canonical SMILES": "O=C(OCC)C(Br)Br",
        "Molecular Formula": "C<sub>4</sub>H<sub>6</sub>Br<sub>2</sub>O<sub>2</sub>",
        "Molecular Mass": "245.90",
        "Boiling Point": "194 °C",
        "Density": "1.902 g/cm³ (liquid)"
    }
}