{
    "cas_no": "92-61-5",
    "key_name": "Scopoletin",
    "cn_name": "东莨菪内酯;莨菪亭;7-羟基-6-甲氧基香豆素;7-羟基-6-甲氧基-2H-1-苯并吡喃-2-酮;",
    "alternate_name": "2<em>H</em>-1-Benzopyran-2-one, 7-hydroxy-6-methoxy-;Coumarin, 7-hydroxy-6-methoxy-;7-Hydroxy-6-methoxy-2<em>H</em>-1-benzopyran-2-one;Chrysatropic acid;Esculetin 6-methyl ether;Gelseminic acid;7-Hydroxy-6-methoxycoumarin;6-Methoxy-7-hydroxycoumarin;β-Methylesculetin;Murrayetin;Scopoletin;6-Methylesculetin;Scopoletol;Scopoletine;Escopoletin;6-<em>O</em>-Methylesculetin;Buxuletin;NSC 405647;MeSH ID: D012603",
    "duplicated_cas_no": "",
    "SMILES": "O(C)C=1C=C2C(=CC1O)OC(=O)C=C2",
    "meta_data": {
        "InChI": "InChI=1S/C10H8O4/c1-13-9-4-6-2-3-10(12)14-8(6)5-7(9)11/h2-5,11H,1H3",
        "InChIKey": null,
        "Canonical SMILES": "O=C1OC=2C=C(O)C(OC)=CC2C=C1",
        "Molecular Formula": "C<sub>10</sub>H<sub>8</sub>O<sub>4</sub>",
        "Molecular Mass": "192.17",
        "Melting Point": "204 °C",
        "Density": "1.37 g/cm³"
    }
}