{
    "cas_no": "4214-79-3",
    "key_name": "5-Chloro-2(1<em>H</em>)-pyridinone",
    "cn_name": "氯吡醇;康乐安;5-氯-2-羟基吡啶;",
    "alternate_name": "2(1<em>H</em>)-Pyridinone, 5-chloro-;2(1<em>H</em>)-Pyridone, 5-chloro-;2-Pyridinol, 5-chloro-;5-Chloro-2(1<em>H</em>)-pyridinone;5-Chloro-2-pyridone;5-Chloro-2-pyridinol;5-Chloro-2-hydroxypyridine;5-Chloro-2(1<em>H</em>)-pyridone;5-Chloro-1<em>H</em>-2-pyridinone;2-Hydroxy-5-chloropyridine;5-Chloro-1,2-dihydropyridin-2-one;3-Chloro-6-hydroxypyridine",
    "duplicated_cas_no": "109163-42-0;13466-36-9",
    "SMILES": "ClC=1C=CC(=O)NC1",
    "meta_data": {
        "InChI": "InChI=1S/C5H4ClNO/c6-4-1-2-5(8)7-3-4/h1-3H,(H,7,8)",
        "InChIKey": null,
        "Canonical SMILES": "O=C1C=CC(Cl)=CN1",
        "Molecular Formula": "C<sub>5</sub>H<sub>4</sub>ClNO",
        "Molecular Mass": "129.54",
        "Melting Point": "163 °C"
    }
}