{
    "cas_no": "4318-78-9",
    "key_name": "3,5-Pyridinediamine",
    "cn_name": null,
    "alternate_name": "3,5-Pyridinediamine;Pyridine, 3,5-diamino-;3,5-Diaminopyridine",
    "duplicated_cas_no": "",
    "SMILES": "NC=1C=C(N)C=NC1",
    "meta_data": {
        "InChI": "InChI=1S/C5H7N3/c6-4-1-5(7)3-8-2-4/h1-3H,6-7H2",
        "InChIKey": null,
        "Canonical SMILES": "N=1C=C(N)C=C(N)C1",
        "Molecular Formula": "C<sub>5</sub>H<sub>7</sub>N<sub>3</sub>",
        "Molecular Mass": "109.13",
        "Melting Point": "110-111 °C"
    }
}