{
    "cas_no": "40047-23-2",
    "key_name": "6-Hydroxy-1<em>H</em>-indole-2-carboxylic acid",
    "cn_name": "6-羟基-2-吲哚甲酸;",
    "alternate_name": "1<em>H</em>-Indole-2-carboxylic acid, 6-hydroxy-;6-Hydroxy-1<em>H</em>-indole-2-carboxylic acid;6-Hydroxyindole-2-carboxylic acid",
    "duplicated_cas_no": "",
    "SMILES": "C(O)(=O)C1=CC=2C(N1)=CC(O)=CC2",
    "meta_data": {
        "InChI": "InChI=1S/C9H7NO3/c11-6-2-1-5-3-8(9(12)13)10-7(5)4-6/h1-4,10-11H,(H,12,13)",
        "InChIKey": null,
        "Canonical SMILES": "O=C(O)C1=CC=2C=CC(O)=CC2N1",
        "Molecular Formula": "C<sub>9</sub>H<sub>7</sub>NO<sub>3</sub>",
        "Molecular Mass": "177.16",
        "Melting Point": "236 °C (decomp)"
    }
}