{
    "cas_no": "2949-92-0",
    "key_name": "<em>S</em>-Methyl methanethiosulfonate",
    "cn_name": "甲基硫代磺酸甲酯;",
    "alternate_name": "Methanesulfonothioic acid, <em>S</em>-methyl ester;Methanesulfonic acid, thio-, <em>S</em>-methyl ester;<em>S</em>-Methyl methanethiosulfonate;Methyl methanethiolsulfonate;<em>S</em>-Methyl methanesulfonothioate;Methyl methanesulfonothioate;NSC 21545;<em>S</em>-Methyl methanethiolsulfonate;(Methanesulfonylsulfanyl)methane",
    "duplicated_cas_no": "117991-82-9;31761-75-8",
    "SMILES": "S(SC)(C)(=O)=O",
    "meta_data": {
        "InChI": "InChI=1S/C2H6O2S2/c1-5-6(2,3)4/h1-2H3",
        "InChIKey": null,
        "Canonical SMILES": "O=S(=O)(SC)C",
        "Molecular Formula": "C<sub>2</sub>H<sub>6</sub>O<sub>2</sub>S<sub>2</sub>",
        "Molecular Mass": "126.20",
        "Boiling Point": "104-105 °C @ Press: 10 Torr",
        "Melting Point": "117.0-119.0 °C",
        "Density": "1.3567 g/cm³ @ Temp: 0 °C"
    }
}