{
    "cas_no": "90982-32-4",
    "key_name": "Chlorimuron-ethyl",
    "cn_name": "氯嘧黄隆;氯嘧磺隆;3-(4-氯-6-甲氧基嘧啶-2-基)-1-(2-乙氧基甲酰基苯基)磺酰脲;",
    "alternate_name": "Benzoic acid, 2-[[[[(4-chloro-6-methoxy-2-pyrimidinyl)amino]carbonyl]amino]sulfonyl]-, ethyl ester;DPX-F 6025;Classic;Chlorimuron-ethyl;Chlorimuron ethyl ester;HIT 25VP;Classic 25DF;Ethyl 2-[<em>N</em>-[<em>N</em>-(4-chloro-6-methoxypyrimidin-2-yl)carbamoyl]sulfamoyl]benzoate",
    "duplicated_cas_no": "95754-33-9;94365-91-0",
    "SMILES": "C(OCC)(=O)C1=C(S(NC(NC=2N=C(OC)C=C(Cl)N2)=O)(=O)=O)C=CC=C1",
    "meta_data": {
        "InChI": "InChI=1S/C15H15ClN4O6S/c1-3-26-13(21)9-6-4-5-7-10(9)27(23,24)20-15(22)19-14-17-11(16)8-12(18-14)25-2/h4-8H,3H2,1-2H3,(H2,17,18,19,20,22)",
        "InChIKey": null,
        "Canonical SMILES": "O=C(OCC)C=1C=CC=CC1S(=O)(=O)NC(=O)NC2=NC(Cl)=CC(=N2)OC",
        "Molecular Formula": "C<sub>15</sub>H<sub>15</sub>ClN<sub>4</sub>O<sub>6</sub>S",
        "Molecular Mass": "414.82",
        "Melting Point": "198-201 °C"
    }
}