{
    "cas_no": "723284-79-5",
    "key_name": "(β<em>S</em>)-β-Amino-3-fluorobenzenepropanoic acid",
    "cn_name": null,
    "alternate_name": "Benzenepropanoic acid, β-amino-3-fluoro-, (β<em>S</em>)-;(β<em>S</em>)-β-Amino-3-fluorobenzenepropanoic acid;(<em>S</em>)-3-Amino-3-(3-fluorophenyl)propanoicacid;(<em>S</em>)-3-Amino-3-(3-fluoro-phenyl)-propionic acid;(3S)-3-Amino-3-(3-fluorophenyl)propanoic acid",
    "duplicated_cas_no": "",
    "SMILES": "[C@@H](CC(O)=O)(N)C1=CC(F)=CC=C1",
    "meta_data": {
        "InChI": "InChI=1S/C9H10FNO2/c10-7-3-1-2-6(4-7)8(11)5-9(12)13/h1-4,8H,5,11H2,(H,12,13)/t8-/m0/s1",
        "InChIKey": null,
        "Canonical SMILES": "O=C(O)CC(N)C=1C=CC=C(F)C1",
        "Molecular Formula": "C<sub>9</sub>H<sub>10</sub>FNO<sub>2</sub>",
        "Molecular Mass": "183.18",
        "Melting Point": "226-229 °C"
    }
}