{
    "cas_no": "1095-77-8",
    "key_name": "1,1′-[2,2,2-Trifluoro-1-(trifluoromethyl)ethylidene]bis[4-methylbenzene]",
    "cn_name": "2,2-双(4-甲基苯基)六氟丙烷;",
    "alternate_name": "Benzene, 1,1′-[2,2,2-trifluoro-1-(trifluoromethyl)ethylidene]bis[4-methyl-;Propane, hexafluoro-2,2-di-<em>p</em>-tolyl-;Propane, 1,1,1,3,3,3-hexafluoro-2,2-di-<em>p</em>-tolyl-;1,1′-[2,2,2-Trifluoro-1-(trifluoromethyl)ethylidene]bis[4-methylbenzene];2,2-Bis(<em>p</em>-tolyl)hexafluoropropane;2,2-Bis(4-methylphenyl)hexafluoropropane;1-[1,1,1,3,3,3-Hexafluoro-2-(4-methylphenyl)propan-2-yl]-4-methylbenzene",
    "duplicated_cas_no": "",
    "SMILES": "C(C(F)(F)F)(C(F)(F)F)(C1=CC=C(C)C=C1)C2=CC=C(C)C=C2",
    "meta_data": {
        "InChI": "InChI=1S/C17H14F6/c1-11-3-7-13(8-4-11)15(16(18,19)20,17(21,22)23)14-9-5-12(2)6-10-14/h3-10H,1-2H3",
        "InChIKey": null,
        "Canonical SMILES": "FC(F)(F)C(C1=CC=C(C=C1)C)(C2=CC=C(C=C2)C)C(F)(F)F",
        "Molecular Formula": "C<sub>17</sub>H<sub>14</sub>F<sub>6</sub>",
        "Molecular Mass": "332.28",
        "Boiling Point": "110-112 °C @ Press: 1.7 Torr",
        "Melting Point": "80-81 °C"
    }
}