{
    "cas_no": "1874-22-2",
    "key_name": "3-(5-Nitro-2-furyl)acrolein",
    "cn_name": "5-硝基呋喃-2-丙烯醛;",
    "alternate_name": "2-Propenal, 3-(5-nitro-2-furanyl)-;2-Furanacrolein, 5-nitro-;3-(5-Nitro-2-furanyl)-2-propenal;β-(5-Nitro-2-furyl)acrolein;5-Nitro-2-furylacrolein;2-(5-Nitro-2-furyl)acrolein;3-(5-Nitro-2-furyl)acrolein;5-Nitrofuracrolein;(5-Nitrofuryl)acrolein;β-(5-Nitro-2-furanyl)acrolein;5-Nitro-2-furanacrolein;β-(5-Nitrofuryl)acrolein;3-(5-Nitro-2-furyl)propenal",
    "duplicated_cas_no": "",
    "SMILES": "N(=O)(=O)C=1OC(C=CC=O)=CC1",
    "meta_data": {
        "InChI": "InChI=1S/C7H5NO4/c9-5-1-2-6-3-4-7(12-6)8(10)11/h1-5H",
        "InChIKey": null,
        "Canonical SMILES": "O=CC=CC=1OC(=CC1)N(=O)=O",
        "Molecular Formula": "C<sub>7</sub>H<sub>5</sub>NO<sub>4</sub>",
        "Molecular Mass": "167.12",
        "Melting Point": "117-120 °C"
    }
}