{
    "cas_no": "156-62-7",
    "key_name": "Calcium cyanamide",
    "cn_name": "氰氨化钙;",
    "alternate_name": "Cyanamide, calcium salt (1:1);Calcium cyanamide;Calcium carbimide;Cyanamid;Lime nitrogen;Nitrogen lime;Nitrolim;Nitrolime;CCC;Alzodef;Cy-L 500;Calcium cyanamide (CaCN<sub>2</sub>);Perlka;Cyanoiminocalcium",
    "duplicated_cas_no": "1015936-91-0;1202864-94-5;1203558-43-3;1215336-73-4;2195408-26-3",
    "SMILES": "C(N)#N.[Ca]",
    "meta_data": {
        "InChI": "InChI=1S/CH2N2.Ca/c2-1-3;/h2H2;",
        "InChIKey": null,
        "Canonical SMILES": "[Ca].N#CN",
        "Molecular Formula": "CH<sub>2</sub>N<sub>2</sub>.Ca",
        "Molecular Mass": "",
        "Melting Point": "1340 °C",
        "Density": "2.29 g/cm³ @ Temp: 20 °C"
    }
}