{
    "cas_no": "4556-23-4",
    "key_name": "4-Mercaptopyridine",
    "cn_name": "4-吡啶硫醇;",
    "alternate_name": "4-Pyridinethiol;4-Mercaptopyridine;4-Thiopyridine;4-Sulfanylpyridine;NSC 76036",
    "duplicated_cas_no": "811801-38-4",
    "SMILES": "SC=1C=CN=CC1",
    "meta_data": {
        "InChI": "InChI=1S/C5H5NS/c7-5-1-3-6-4-2-5/h1-4H,(H,6,7)",
        "InChIKey": null,
        "Canonical SMILES": "SC=1C=CN=CC1",
        "Molecular Formula": "C<sub>5</sub>H<sub>5</sub>NS",
        "Molecular Mass": "111.16",
        "Melting Point": "177 °C (decomp)"
    }
}