{
    "cas_no": "5718-75-2",
    "key_name": "(1<em>R</em>,4<em>R</em>,5<em>R</em>)-4,7,7-Trimethyl-6-thiabicyclo[3.2.1]octane",
    "cn_name": null,
    "alternate_name": "6-Thiabicyclo[3.2.1]octane, 4,7,7-trimethyl-, (1<em>R</em>,4<em>R</em>,5<em>R</em>)-;<em>p</em>-Menthane, 2,8-epithio-;6-Thiabicyclo[3.2.1]octane, 4,7,7-trimethyl-, <em>exo</em>-(-)-;(1<em>R</em>,4<em>R</em>,5<em>R</em>)-4,7,7-Trimethyl-6-thiabicyclo[3.2.1]octane;Isothiocineole;2,8-Epithio-<em>p</em>-menthane;(-)-Isothiocineol",
    "duplicated_cas_no": "",
    "SMILES": "CC1(C)[C@]2(C[C@@](S1)([C@H](C)CC2)[H])[H]",
    "meta_data": {
        "InChI": "InChI=1S/C10H18S/c1-7-4-5-8-6-9(7)11-10(8,2)3/h7-9H,4-6H2,1-3H3/t7-,8-,9-/m1/s1",
        "InChIKey": null,
        "Canonical SMILES": "S1C2CC(CCC2C)C1(C)C",
        "Molecular Formula": "C<sub>10</sub>H<sub>18</sub>S",
        "Molecular Mass": "170.31",
        "Boiling Point": "85-90 °C @ Press: 5 Torr"
    }
}