{
    "cas_no": "19808-30-1",
    "key_name": "5-Bromo-4(3<em>H</em>)-pyrimidinone",
    "cn_name": null,
    "alternate_name": "4(3<em>H</em>)-Pyrimidinone, 5-bromo-;4(1<em>H</em>)-Pyrimidinone, 5-bromo-;4-Pyrimidinol, 5-bromo-;5-Bromo-4(3<em>H</em>)-pyrimidinone;5-Bromo-4-hydroxypyrimidine;5-Bromopyrimidin-4(1<em>H</em>)-one;5-Bromopyrimidin-4-ol;5-Bromo-1<em>H</em>-pyrimidin-6-one",
    "duplicated_cas_no": "",
    "SMILES": "BrC=1C(=O)NC=NC1",
    "meta_data": {
        "InChI": "InChI=1S/C4H3BrN2O/c5-3-1-6-2-7-4(3)8/h1-2H,(H,6,7,8)",
        "InChIKey": null,
        "Canonical SMILES": "O=C1NC=NC=C1Br",
        "Molecular Formula": "C<sub>4</sub>H<sub>3</sub>BrN<sub>2</sub>O",
        "Molecular Mass": "174.98",
        "Melting Point": "199-200 °C"
    }
}