{
    "cas_no": "57696-89-6",
    "key_name": "3,5,5-Trimethyl-1,2-cyclohexanedione",
    "cn_name": "3,5,5-三甲基环己烷-1,2-二酮;烟酮;",
    "alternate_name": "1,2-Cyclohexanedione, 3,5,5-trimethyl-;3,5,5-Trimethyl-1,2-cyclohexanedione;3,5,5-Trimethylcyclohexane-1,2-dione",
    "duplicated_cas_no": "",
    "SMILES": "CC1(C)CC(C)C(=O)C(=O)C1",
    "meta_data": {
        "InChI": "InChI=1S/C9H14O2/c1-6-4-9(2,3)5-7(10)8(6)11/h6H,4-5H2,1-3H3",
        "InChIKey": null,
        "Canonical SMILES": "O=C1C(=O)C(C)CC(C)(C)C1",
        "Molecular Formula": "C<sub>9</sub>H<sub>14</sub>O<sub>2</sub>",
        "Molecular Mass": "154.21",
        "Melting Point": "91 °C"
    }
}