{
    "cas_no": "168088-61-7",
    "key_name": "Pyribenzoxim",
    "cn_name": "嘧啶肟草醚;O-(2,6-双(4,6-二甲氧基嘧啶-2-基氧基)苯甲酰)肟二苯甲酮;",
    "alternate_name": "Methanone, diphenyl-, <em>O</em>-[2,6-bis[(4,6-dimethoxy-2-pyrimidinyl)oxy]benzoyl]oxime;LGC 40863;Pyanchor;Pyribenzoxim;Kiljabi gold",
    "duplicated_cas_no": "",
    "SMILES": "C(ON=C(C1=CC=CC=C1)C2=CC=CC=C2)(=O)C3=C(OC=4N=C(OC)C=C(OC)N4)C=CC=C3OC=5N=C(OC)C=C(OC)N5",
    "meta_data": {
        "InChI": "InChI=1S/C32H27N5O8/c1-39-24-18-25(40-2)34-31(33-24)43-22-16-11-17-23(44-32-35-26(41-3)19-27(36-32)42-4)28(22)30(38)45-37-29(20-12-7-5-8-13-20)21-14-9-6-10-15-21/h5-19H,1-4H3",
        "InChIKey": null,
        "Canonical SMILES": "O=C(ON=C(C=1C=CC=CC1)C=2C=CC=CC2)C=3C(OC=4N=C(OC)C=C(N4)OC)=CC=CC3OC=5N=C(OC)C=C(N5)OC",
        "Molecular Formula": "C<sub>32</sub>H<sub>27</sub>N<sub>5</sub>O<sub>8</sub>",
        "Molecular Mass": "609.59",
        "Melting Point": "129 °C"
    }
}