{
    "cas_no": "38330-80-2",
    "key_name": "Propanedioic acid, 1-methyl ester, potassium salt (1:1)",
    "cn_name": "丙二酸单甲酯钾盐;",
    "alternate_name": "Propanedioic acid, 1-methyl ester, potassium salt (1:1);Propanedioic acid, monomethyl ester, potassium salt;Potassium methyl malonate;Potassium (carbomethoxy)acetate;Methyl potassium malonate;Monomethyl malonate potassium salt;Potassium monomethyl malonate;Methyl malonate potassium salt;Potassium methoxycarbonylacetate;Potassium 3-methoxy-3-oxopropanoate;3-Methoxy-3-oxopropanoic acid potassium salt",
    "duplicated_cas_no": "131645-60-8;875479-57-5",
    "SMILES": "C(CC(O)=O)(OC)=O.[K]",
    "meta_data": {
        "InChI": "InChI=1S/C4H6O4.K/c1-8-4(7)2-3(5)6;/h2H2,1H3,(H,5,6);",
        "InChIKey": null,
        "Canonical SMILES": "[K].O=C(O)CC(=O)OC",
        "Molecular Formula": "C<sub>4</sub>H<sub>6</sub>O<sub>4</sub>.K",
        "Molecular Mass": "",
        "Melting Point": "201-205 °C"
    }
}