{
    "cas_no": "905-96-4",
    "key_name": "3,3′-Diethyloxacarbocyanine iodide",
    "cn_name": "碘化-3,3-二乙基氧杂羰花青;",
    "alternate_name": "Benzoxazolium, 3-ethyl-2-[3-(3-ethyl-2(3<em>H</em>)-benzoxazolylidene)-1-propen-1-yl]-, iodide (1:1);Benzoxazolium, 3-ethyl-2-[3-(3-ethyl-2-benzoxazolinylidene)propenyl]-, iodide;Benzoxazolium, 3-ethyl-2-[3-(3-ethyl-2(3<em>H</em>)-benzoxazolylidene)-1-propenyl]-, iodide;3-Ethyl-2-[3-(3-ethyl-2-benzoxazolinylidene)propenyl]benzoxazolium iodide;3,3′-Diethyloxacarbocyanine iodide;3,3′-Diethyl-2,2′-oxacarbocyanine iodide;G 1745;3-Ethyl-2-[3-ethyl-2(3<em>H</em>)-benzoxazolylidene)-1-propenyl]benzoxazolium iodide);NK 85;DOC (dye);DOC;DOCI;DiOC 2(3);DiOC 2",
    "duplicated_cas_no": "66796-36-9;188652-76-8",
    "SMILES": "C(C)N1C=2C(OC1=CC=CC3=[N+](CC)C=4C(O3)=CC=CC4)=CC=CC2.[I-]",
    "meta_data": {
        "InChI": "InChI=1S/C21H21N2O2.HI/c1-3-22-16-10-5-7-12-18(16)24-20(22)14-9-15-21-23(4-2)17-11-6-8-13-19(17)25-21;/h5-15H,3-4H2,1-2H3;1H/q+1;/p-1",
        "InChIKey": null,
        "Canonical SMILES": "[I-].O1C=2C=CC=CC2N(C1=CC=CC=3OC=4C=CC=CC4[N+]3CC)CC",
        "Molecular Formula": "C<sub>21</sub>H<sub>21</sub>N<sub>2</sub>O<sub>2</sub>.I",
        "Molecular Mass": "",
        "Melting Point": "210 °C (decomp)"
    }
}