{
    "cas_no": "111991-09-4",
    "key_name": "Nicosulfuron",
    "cn_name": "烟嘧磺隆;1-(4,6-二甲氧基嘧啶-2-基)-3-(3-二甲基氨基甲酰吡啶-2-基磺酰)脲;",
    "alternate_name": "3-Pyridinecarboxamide, 2-[[[[(4,6-dimethoxy-2-pyrimidinyl)amino]carbonyl]amino]sulfonyl]-<em>N</em>,<em>N</em>-dimethyl-;2-[[[[(4,6-Dimethoxy-2-pyrimidinyl)amino]carbonyl]amino]sulfonyl]-<em>N</em>,<em>N</em>-dimethyl-3-pyridinecarboxamide;HU 195;SL 950;Nicosulfuron;DPX-V 9360;Accent;Accent (pesticide);EMA 1534;Motivell;Milagro;Onehope Nyuzai;Kelvin;<em>N</em>-[(4,6-Dimethoxypyrimidin-2-yl)aminocarbonyl]-3-dimethylaminocarbonyl-2-pyridinesulfonamide;Samson;One Hope;Kelvin OD;Termidor (herbicide);Termidor;Milagro Extra;Milagro Extra 6 OD",
    "duplicated_cas_no": "",
    "SMILES": "C(N(C)C)(=O)C1=C(S(NC(NC=2N=C(OC)C=C(OC)N2)=O)(=O)=O)N=CC=C1",
    "meta_data": {
        "InChI": "InChI=1S/C15H18N6O6S/c1-21(2)13(22)9-6-5-7-16-12(9)28(24,25)20-15(23)19-14-17-10(26-3)8-11(18-14)27-4/h5-8H,1-4H3,(H2,17,18,19,20,23)",
        "InChIKey": null,
        "Canonical SMILES": "O=C(NC=1N=C(OC)C=C(N1)OC)NS(=O)(=O)C2=NC=CC=C2C(=O)N(C)C",
        "Molecular Formula": "C<sub>15</sub>H<sub>18</sub>N<sub>6</sub>O<sub>6</sub>S",
        "Molecular Mass": "410.40",
        "Melting Point": "142 °C"
    }
}