{
    "cas_no": "2167-51-3",
    "key_name": "Bisphenol P",
    "cn_name": "双酚 P; 4,4\"-(1,4-亚苯基二异丙基)二苯酚; alpha,alpha\"-双(4-羟基苯基)-1,4-二异丙基苯;",
    "alternate_name": "Phenol, 4,4′-[1,4-phenylenebis(1-methylethylidene)]bis-;Phenol, 4,4′-(<em>p</em>-phenylenediisopropylidene)di-;4,4′-[1,4-Phenylenebis(1-methylethylidene)]bis[phenol];α,α′-Bis(4-hydroxyphenyl)-<em>p</em>-diisopropylbenzene;4,4′-(<em>p</em>-Phenylenediisopropylidene)diphenol;1,4-Bis[2-(4-hydroxyphenyl)-2-propyl]benzene;1,4-Bis(<em>p</em>-hydroxycumyl)benzene;4,4′-(<em>p</em>-Phenylenediisopropylidene)bisphenol;Bisphenol P;1,4-Bis(4-hydroxycumyl)benzene;1,4-Bis[α-methyl-α-(4-hydroxyphenyl)ethyl]benzene;α,α′-Bis(4-hydroxyphenyl)-1,4-diisopropylbenzene;1,4-Bis(1-(4-hydroxyphenyl)-1-methylethyl)benzene;B 1563;4,4′-(1,4-Phenylenediisopropylidene)bisphenol;4,4′-(1,4-Phenylenebis(propan-2,2-diyl))diphenol;Bis(4-hydroxyphenyl)-1,4-diisopropylbenzene",
    "duplicated_cas_no": "",
    "SMILES": "C(C)(C)(C1=CC=C(C(C)(C)C2=CC=C(O)C=C2)C=C1)C3=CC=C(O)C=C3",
    "meta_data": {
        "InChI": "InChI=1S/C24H26O2/c1-23(2,19-9-13-21(25)14-10-19)17-5-7-18(8-6-17)24(3,4)20-11-15-22(26)16-12-20/h5-16,25-26H,1-4H3",
        "InChIKey": null,
        "Canonical SMILES": "OC1=CC=C(C=C1)C(C2=CC=C(C=C2)C(C3=CC=C(O)C=C3)(C)C)(C)C",
        "Molecular Formula": "C<sub>24</sub>H<sub>26</sub>O<sub>2</sub>",
        "Molecular Mass": "346.46",
        "Boiling Point": "246 °C @ Press: 0.1 Torr",
        "Melting Point": "192 °C"
    }
}