{
    "cas_no": "2922-41-0",
    "key_name": "4-Amino-<span class=\"text-smallcaps\">DL</span>-phenylalanine",
    "cn_name": "对氨基-DL-苯丙氨酸水合物;4-氨基-DL-苯丙氨酸水合物; p-Amino-DL-phenylalanine hydrate;",
    "alternate_name": "Phenylalanine, 4-amino-;Alanine, 3-(<em>p</em>-aminophenyl)-, <span class=\"text-smallcaps\">DL</span>-;<span class=\"text-smallcaps\">DL</span>-Phenylalanine, 4-amino-;4-Aminophenylalanine;<span class=\"text-smallcaps\">DL</span>-<em>p</em>-Aminophenylalanine;<span class=\"text-smallcaps\">DL</span>-4-Aminophenylalanine;4-Amino-<span class=\"text-smallcaps\">DL</span>-phenylalanine;<em>p</em>-Amino-<span class=\"text-smallcaps\">DL</span>-phenylalanine;NSC 21918;NSC 29446;2-Amino-3-(4-aminophenyl)propanoic acid;2-Amino-3-(4-aminophenyl)propanoicacid",
    "duplicated_cas_no": "2410-24-4;4555-10-6",
    "SMILES": "C(C(C(O)=O)N)C1=CC=C(N)C=C1",
    "meta_data": {
        "InChI": "InChI=1S/C9H12N2O2/c10-7-3-1-6(2-4-7)5-8(11)9(12)13/h1-4,8H,5,10-11H2,(H,12,13)",
        "InChIKey": null,
        "Canonical SMILES": "O=C(O)C(N)CC1=CC=C(N)C=C1",
        "Molecular Formula": "C<sub>9</sub>H<sub>12</sub>N<sub>2</sub>O<sub>2</sub>",
        "Molecular Mass": "180.20",
        "Melting Point": "242-245 °C"
    }
}