{
    "cas_no": "20174-68-9",
    "key_name": "2-Hydrazino-4-methylbenzothiazole",
    "cn_name": "4-甲基-2-肼基苯并噻唑;2-肼基-4-甲基苯并噻唑;",
    "alternate_name": "Benzothiazole, 2-hydrazinyl-4-methyl-;Benzothiazole, 2-hydrazino-4-methyl-;2(3<em>H</em>)-Benzothiazolone, 4-methyl-, hydrazone;2-Hydrazinyl-4-methylbenzothiazole;2-Hydrazino-4-methylbenzothiazole;2-Hydrazino-4-methyl-1,3-benzothiazole;4-Methyl-2-hydrazinobenzothiazole;4-Methyl-2-benzothiazolyl hydrazine;(4-Methyl-1,3-benzothiazol-2-yl)hydrazine;(4-Methyl-benzothiazol-2-yl)-hydrazine;2-Hydrazinyl-4-methyl-1,3-benzothiazole",
    "duplicated_cas_no": "",
    "SMILES": "CC1=C2C(SC(=NN)N2)=CC=C1",
    "meta_data": {
        "InChI": "InChI=1S/C8H9N3S/c1-5-3-2-4-6-7(5)10-8(11-9)12-6/h2-4H,9H2,1H3,(H,10,11)",
        "InChIKey": null,
        "Canonical SMILES": "N(N)=C1SC2=CC=CC(=C2N1)C",
        "Molecular Formula": "C<sub>8</sub>H<sub>9</sub>N<sub>3</sub>S",
        "Molecular Mass": "179.24",
        "Melting Point": "167-169 °C"
    }
}