{
    "cas_no": "7642-15-1",
    "key_name": "<em>cis</em>-4-Octene",
    "cn_name": "顺-4-辛烯;",
    "alternate_name": "4-Octene, (4<em>Z</em>)-;4-Octene, (<em>Z</em>)-;4-Octene, <em>cis</em>-;(4<em>Z</em>)-4-Octene;<em>cis</em>-4-Octene;(<em>Z</em>)-4-Octene;δ-<em>cis</em>-Octene;<em>cis</em>-1,2-Dipropylethylene",
    "duplicated_cas_no": "",
    "SMILES": "C(=C\\CCC)\\CCC",
    "meta_data": {
        "InChI": "InChI=1S/C8H16/c1-3-5-7-8-6-4-2/h7-8H,3-6H2,1-2H3/b8-7-",
        "InChIKey": null,
        "Canonical SMILES": "C(=CCCC)CCC",
        "Molecular Formula": "C<sub>8</sub>H<sub>16</sub>",
        "Molecular Mass": "112.21",
        "Boiling Point": "122.5 °C",
        "Melting Point": "-118.7 °C",
        "Density": "0.7186 g/cm³ @ Temp: 20 °C"
    }
}