{
    "cas_no": "402-44-8",
    "key_name": "4-Fluorobenzotrifluoride",
    "cn_name": "4-氟三氟甲苯;对氟三氟甲苯;",
    "alternate_name": "Benzene, 1-fluoro-4-(trifluoromethyl)-;Toluene, <em>p</em>,α,α,α-tetrafluoro-;1-Fluoro-4-(trifluoromethyl)benzene;<em>p</em>-Fluorobenzotrifluoride;<em>p</em>-Fluoro(trifluoromethyl)benzene;α,α,α,<em>p</em>-Tetrafluorotoluene;4-Fluorobenzotrifluoride;<em>p</em>-(Trifluoromethyl)fluorobenzene;<em>p</em>,α,α,α-Tetrafluorotoluene;α,α,α,4-Tetrafluorotoluene;4-(Trifluoromethyl)fluorobenzene;4-Fluoro(trifluoromethyl)benzene;NSC 88289;4-Trifluoromethyl-1-fluorobenzene;4-Trifluoromethylphenyl fluoride;4-Fluoro-1-trifluoromethylbenzene",
    "duplicated_cas_no": "",
    "SMILES": "C(F)(F)(F)C1=CC=C(F)C=C1",
    "meta_data": {
        "InChI": "InChI=1S/C7H4F4/c8-6-3-1-5(2-4-6)7(9,10)11/h1-4H",
        "InChIKey": null,
        "Canonical SMILES": "FC1=CC=C(C=C1)C(F)(F)F",
        "Molecular Formula": "C<sub>7</sub>H<sub>4</sub>F<sub>4</sub>",
        "Molecular Mass": "164.10",
        "Boiling Point": "103.5 °C",
        "Melting Point": "-41.7 °C"
    }
}