{
    "cas_no": "623-42-7",
    "key_name": "Methyl butyrate",
    "cn_name": "丁酸甲酯;",
    "alternate_name": "Butanoic acid, methyl ester;Butyric acid, methyl ester;Butyric acid, ester with MeOH;Methyl butyrate;Methyl <em>n</em>-butyrate;Methyl butanoate;3-Methylpropanoic acid methyl ester;NSC 9380",
    "duplicated_cas_no": "",
    "SMILES": "C(CCC)(OC)=O",
    "meta_data": {
        "InChI": "InChI=1S/C5H10O2/c1-3-4-5(6)7-2/h3-4H2,1-2H3",
        "InChIKey": null,
        "Canonical SMILES": "O=C(OC)CCC",
        "Molecular Formula": "C<sub>5</sub>H<sub>10</sub>O<sub>2</sub>",
        "Molecular Mass": "102.13",
        "Boiling Point": "102.8 °C @ Press: 760 Torr",
        "Melting Point": "-85.8 °C",
        "Density": "0.8984 g/cm³ @ Temp: 20 °C"
    }
}