{
    "cas_no": "17452-09-4",
    "key_name": "1,3-Dihydro-1-phenyl-2<em>H</em>-imidazole-2-thione",
    "cn_name": "1-苯基-2,3-二氢咪唑-2-硫酮;",
    "alternate_name": "2<em>H</em>-Imidazole-2-thione, 1,3-dihydro-1-phenyl-;Imidazole-2-thiol, 1-phenyl-;4-Imidazoline-2-thione, 1-phenyl-;1,3-Dihydro-1-phenyl-2<em>H</em>-imidazole-2-thione;1-Phenyl-2-mercaptoimidazole;2-Mercapto-1-phenylimidazole;1-Phenyl-2,3-dihydroimidazole-2-thione;NSC 513730;1-Phenyl-1<em>H</em>-imidazole-2-thiol;1-Phenyl-1<em>H</em>-imidazole-2(3<em>H</em>)-thione;1-Phenyl-2,3-dihydro-1<em>H</em>-imidazole-2-thione;1-Phenyl-1,3-dihydro-imidazole-2-thione;3-Phenyl-1<em>H</em>-imidazole-2-thione",
    "duplicated_cas_no": "10551-06-1",
    "SMILES": "S=C1N(C=CN1)C2=CC=CC=C2",
    "meta_data": {
        "InChI": "InChI=1S/C9H8N2S/c12-9-10-6-7-11(9)8-4-2-1-3-5-8/h1-7H,(H,10,12)",
        "InChIKey": null,
        "Canonical SMILES": "S=C1NC=CN1C=2C=CC=CC2",
        "Molecular Formula": "C<sub>9</sub>H<sub>8</sub>N<sub>2</sub>S",
        "Molecular Mass": "176.24",
        "Melting Point": "180-181 °C"
    }
}