{
    "cas_no": "163521-12-8",
    "key_name": "Vilazodone",
    "cn_name": null,
    "alternate_name": "2-Benzofurancarboxamide, 5-[4-[4-(5-cyano-1<em>H</em>-indol-3-yl)butyl]-1-piperazinyl]-;5-[4-[4-(5-Cyano-1<em>H</em>-indol-3-yl)butyl]-1-piperazinyl]-2-benzofurancarboxamide;Vilazodone;EMD 515259;1-[4-(5-Cyanoindol-3-yl)butyl]-4-(2-carbamoylbenzofuran-5-yl)piperazine",
    "duplicated_cas_no": "",
    "SMILES": "C(CCCN1CCN(CC1)C=2C=C3C(=CC2)OC(C(N)=O)=C3)C=4C=5C(NC4)=CC=C(C#N)C5",
    "meta_data": {
        "InChI": "InChI=1S/C26H27N5O2/c27-16-18-4-6-23-22(13-18)19(17-29-23)3-1-2-8-30-9-11-31(12-10-30)21-5-7-24-20(14-21)15-25(33-24)26(28)32/h4-7,13-15,17,29H,1-3,8-12H2,(H2,28,32)",
        "InChIKey": null,
        "Canonical SMILES": "N#CC=1C=CC=2NC=C(C2C1)CCCCN3CCN(C=4C=CC=5OC(=CC5C4)C(=O)N)CC3",
        "Molecular Formula": "C<sub>26</sub>H<sub>27</sub>N<sub>5</sub>O<sub>2</sub>",
        "Molecular Mass": "441.52",
        "Melting Point": "277-279 °C"
    }
}