{
    "cas_no": "885126-35-2",
    "key_name": "<em>N</em>-Methyl-2-[[3-[(1<em>E</em>)-2-(2-pyridinyl)ethenyl]-1-(tetrahydro-2<em>H</em>-pyran-2-yl)-1<em>H</em>-indazol-6-yl]thio]benzamide",
    "cn_name": null,
    "alternate_name": "Benzamide, <em>N</em>-methyl-2-[[3-[(1<em>E</em>)-2-(2-pyridinyl)ethenyl]-1-(tetrahydro-2<em>H</em>-pyran-2-yl)-1<em>H</em>-indazol-6-yl]thio]-;<em>N</em>-Methyl-2-[[3-[(1<em>E</em>)-2-(2-pyridinyl)ethenyl]-1-(tetrahydro-2<em>H</em>-pyran-2-yl)-1<em>H</em>-indazol-6-yl]thio]benzamide",
    "duplicated_cas_no": "",
    "SMILES": "C(=C/C1=CC=CC=N1)\\C=2C=3C(N(N2)C4CCCCO4)=CC(SC5=C(C(NC)=O)C=CC=C5)=CC3",
    "meta_data": {
        "InChI": "InChI=1/C27H26N4O2S/c1-28-27(32)22-9-2-3-10-25(22)34-20-13-14-21-23(15-12-19-8-4-6-16-29-19)30-31(24(21)18-20)26-11-5-7-17-33-26/h2-4,6,8-10,12-16,18,26H,5,7,11,17H2,1H3,(H,28,32)/b15-12+",
        "InChIKey": null,
        "Canonical SMILES": "O=C(NC)C=1C=CC=CC1SC=2C=CC=3C(=NN(C3C2)C4OCCCC4)C=CC5=NC=CC=C5",
        "Molecular Formula": "C<sub>27</sub>H<sub>26</sub>N<sub>4</sub>O<sub>2</sub>S",
        "Molecular Mass": "470.59",
        "Melting Point": "240 °C"
    }
}