{
    "cas_no": "637-81-0",
    "key_name": "Ethyl azidoacetate",
    "cn_name": "乙基叠氮乙酸酯;",
    "alternate_name": "Acetic acid, 2-azido-, ethyl ester;Acetic acid, azido-, ethyl ester;Ethyl azidoacetate;Ethyl α-azidoacetate;(Ethoxycarbonyl)methyl azide;Ethyl 2-azidoacetate;Azidoacetic acid ethyl ester;NSC 84132;2-Azidoacetate ethyl ester",
    "duplicated_cas_no": "2138158-99-1",
    "SMILES": "C(CN=[N+]=[N-])(OCC)=O",
    "meta_data": {
        "InChI": "InChI=1S/C4H7N3O2/c1-2-9-4(8)3-6-7-5/h2-3H2,1H3",
        "InChIKey": null,
        "Canonical SMILES": "[N-]=[N+]=NCC(=O)OCC",
        "Molecular Formula": "C<sub>4</sub>H<sub>7</sub>N<sub>3</sub>O<sub>2</sub>",
        "Molecular Mass": "",
        "Boiling Point": "74-75 °C @ Press: 23 Torr",
        "Density": "1.1181 g/cm³ @ Temp: 25 °C"
    }
}