{
    "cas_no": "97-90-5",
    "key_name": "Ethylene glycol dimethacrylate",
    "cn_name": "乙二醇二甲基丙烯酸酯;甲基丙烯酸乙二醇酯;2-甲基-2-丙烯酸-1,2-乙二醇酯;",
    "alternate_name": "2-Propenoic acid, 2-methyl-, 1,1′-(1,2-ethanediyl) ester;Methacrylic acid, ethylene ester;2-Propenoic acid, 2-methyl-, 1,2-ethanediyl ester;Diglycol dimethacrylate;Ethylene dimethacrylate;Ethylene glycol bis(methacrylate);Sartomer SR 206;SR 206;1,2-Bis(methacryloyloxy)ethane;Ethylene methacrylate;Ethanediol dimethacrylate;DMM 2;1,2-Ethanediol dimethacrylate;TGM 1 (ester);TGM 1;NK Ester 1G;Ethylene glycol dimethacrylate;Acryester ED;EGDMA;Light Ester EG;Perkalink 401;Perkalink 7401;Acryester EDMA;San Ester EG;Blemmer PDE 50;NSC 24166;Hi-Cross ED;Hi-Cross ED-P;Perkalink 401-50D-pd;EG 50;Luvomaxx EDMA-DL 75;Fancryl FA 121M;FA 121M;EM 320;SR 206NS;1 G;Miramer M 221;2-Methacryloyloxyethyl methacrylate;2-[(2-Methylprop-2-enoyl)oxy]ethyl 2-methylprop-2-enoate;2-(2-Methylprop-2-enoyloxy)ethyl 2-methylprop-2-enoate;Light Ester EG 50;Saret 206",
    "duplicated_cas_no": "37211-46-4;51026-92-7;56480-56-9;81897-47-4;108772-05-0;121266-93-1;121978-90-3;130865-23-5;135623-36-8;138454-60-1;138533-09-2;154855-14-8;156940-26-0;205501-13-9;256439-71-1;930792-25-9;1134189-44-8;1205547-89-2;1552289-42-5;1623115-14-9;1803532-84-4;2803295-08-9",
    "SMILES": "C(OCCOC(C(C)=C)=O)(C(C)=C)=O",
    "meta_data": {
        "InChI": "InChI=1S/C10H14O4/c1-7(2)9(11)13-5-6-14-10(12)8(3)4/h1,3,5-6H2,2,4H3",
        "InChIKey": null,
        "Canonical SMILES": "O=C(OCCOC(=O)C(=C)C)C(=C)C",
        "Molecular Formula": "C<sub>10</sub>H<sub>14</sub>O<sub>4</sub>",
        "Molecular Mass": "198.22",
        "Boiling Point": "260 °C",
        "Melting Point": "-40 °C",
        "Density": "1.055 g/cm³ @ Temp: 20 °C"
    }
}