{
    "cas_no": "629-65-2",
    "key_name": "Diheptyl sulfide",
    "cn_name": "庚基硫醚;二正庚基硫醚;二正庚基一硫;一硫化二正庚烷;",
    "alternate_name": "Heptane, 1,1′-thiobis-;Heptyl sulfide;1,1′-Thiobis[heptane];Diheptyl sulfide;8-Thiapentadecane;Di-<em>n</em>-heptyl thioether;Di-<em>n</em>-heptyl sulfide;Diheptyl thioether;1-Heptylsulfanylheptane",
    "duplicated_cas_no": "",
    "SMILES": "S(CCCCCCC)CCCCCCC",
    "meta_data": {
        "InChI": "InChI=1S/C14H30S/c1-3-5-7-9-11-13-15-14-12-10-8-6-4-2/h3-14H2,1-2H3",
        "InChIKey": null,
        "Canonical SMILES": "S(CCCCCCC)CCCCCCC",
        "Molecular Formula": "C<sub>14</sub>H<sub>30</sub>S",
        "Molecular Mass": "230.45",
        "Boiling Point": "298 °C",
        "Melting Point": "70 °C",
        "Density": "0.8407 g/cm³ @ Temp: 20 °C"
    }
}