{
    "cas_no": "112-02-7",
    "key_name": "Hexadecyltrimethylammonium chloride",
    "cn_name": "十六烷基三甲基氯化铵;鲸蜡烷三甲基氯化铵;西曲氯铵;",
    "alternate_name": "1-Hexadecanaminium, <em>N</em>,<em>N</em>,<em>N</em>-trimethyl-, chloride (1:1);Ammonium, hexadecyltrimethyl-, chloride;Hexadecyltrimethylammonium chloride;1-Hexadecanaminium, <em>N</em>,<em>N</em>,<em>N</em>-trimethyl-, chloride;Aliquat 6;Cetyltrimethylammonium chloride;Intexan CTC 29;Morpan CHA;Trimethylhexadecylammonium chloride;Trimethylcetylammonium chloride;Arquad 16-50;Dehyquart A;HTAC;Cetrimonium chloride;Cation PB 40;Genamin CTAC;Barquat CT 29;Intexsan CTC 29;Intexsan CTC 50;PB 40;Nissan Cation PB 40;<em>n</em>-Hexadecyltrimethylammonium chloride;Palmityltrimethylammonium chloride;Arquad 16-29;Variquat E 228;Adogen 444;Dodigen 1383;CTMA;Lebon TM 16;CTAC;CETAC;Surfroyal CTAC;<em>N</em>,<em>N</em>,<em>N</em>-Trimethyl-1-hexadecanaminium chloride;Arquad 16;Pionin B 611;Arquad 16-25W;FSM 28;Carsoquat CT 429;Swanol CA 2350;Catinal CTC 70ET;HDTMA-Cl;Ammonyx Cetac 30;Quartamin 60W;Arquad 16-29W;Quatramine C 16/29;Lebon TM 60;BP 40;Dehyquart A-CA;Varisoft 300;Arquad 16-26;Arquad 16-25LO;Incroquat CTC 30;Cetac 30;Catiogen TMP;Protaquat CT 29;CTAC 30KC;C 16TAC;Genamin CTAC 50;Genamin CTAC 50ET;CTACL;1631CL;Arquad 16-25;Cationic 1631;D 1631;Carsoquat CT 425;Dehyquart A-CE;Ammonyx Cetac;Adogen 444-29;CA 2350;CTAC 1;Catiogen TMR;Cetyltrimethylammomium chloride;Aliquat 1529;Nissan Cation PB 40R;Ammonyx CETAC 25;Cation PB 300;<em>N</em>-Palmityl-<em>N</em>,<em>N</em>,<em>N</em>-trimethylammonium chloride;Saboquat;Quartamin 60W30;CTAC CT-429;CM 29;Cationic Surfactant 1631;Lipoquad 16-29;Nikkol CA-2350E;Nikkol CA 2330;Belsil ADM 4000 E;Fentacare 1631-70;Alkapav 16S50",
    "duplicated_cas_no": "53023-95-3;79728-63-5;129290-73-9;139272-33-6;146909-27-5;217468-43-4;2124222-94-0",
    "SMILES": "C(CCCCCCCCCCCCC)CC[N+](C)(C)C.[Cl-]",
    "meta_data": {
        "InChI": "InChI=1S/C19H42N.ClH/c1-5-6-7-8-9-10-11-12-13-14-15-16-17-18-19-20(2,3)4;/h5-19H2,1-4H3;1H/q+1;/p-1",
        "InChIKey": null,
        "Canonical SMILES": "[Cl-].CCCCCCCCCCCCCCCC[N+](C)(C)C",
        "Molecular Formula": "C<sub>19</sub>H<sub>42</sub>N.Cl",
        "Molecular Mass": "",
        "Melting Point": "70 °C",
        "Density": "0.88 g/cm³ @ Temp: 60 °C"
    }
}