{
    "cas_no": "934-37-2",
    "key_name": "2-Methylimidazo[1,2-<em>a</em>]pyridine",
    "cn_name": null,
    "alternate_name": "Imidazo[1,2-<em>a</em>]pyridine, 2-methyl-;2-Methylimidazo[1,2-<em>a</em>]pyridine",
    "duplicated_cas_no": "",
    "SMILES": "CC=1N=C2N(C1)C=CC=C2",
    "meta_data": {
        "InChI": "InChI=1S/C8H8N2/c1-7-6-10-5-3-2-4-8(10)9-7/h2-6H,1H3",
        "InChIKey": null,
        "Canonical SMILES": "N1=C2C=CC=CN2C=C1C",
        "Molecular Formula": "C<sub>8</sub>H<sub>8</sub>N<sub>2</sub>",
        "Molecular Mass": "132.16",
        "Boiling Point": "134-136 °C @ Press: 15 Torr",
        "Melting Point": "45-46 °C"
    }
}