{
    "cas_no": "4521-31-7",
    "key_name": "2-Mercaptobenzenemethanol",
    "cn_name": "2-巯基苯甲醇;",
    "alternate_name": "Benzenemethanol, 2-mercapto-;Benzyl alcohol, <em>o</em>-mercapto-;2-Mercaptobenzenemethanol;<em>o</em>-Mercaptobenzyl alcohol;Thiosalicyl alcohol;2-Mercaptobenzyl alcohol;<em>o</em>-(Hydroxymethyl)benzenethiol;2-(Hydroxymethyl)benzenethiol;2-Sulfanylbenzenemethanol;2-(Hydroxymethyl)thiophenol;(2-Mercaptophenyl)methanol;(2-Sulfanylphenyl)methanol",
    "duplicated_cas_no": "",
    "SMILES": "C(O)C1=C(S)C=CC=C1",
    "meta_data": {
        "InChI": "InChI=1S/C7H8OS/c8-5-6-3-1-2-4-7(6)9/h1-4,8-9H,5H2",
        "InChIKey": null,
        "Canonical SMILES": "OCC=1C=CC=CC1S",
        "Molecular Formula": "C<sub>7</sub>H<sub>8</sub>OS",
        "Molecular Mass": "140.20",
        "Boiling Point": "85 °C @ Press: 1 x 10<sup>-3</sup> Torr",
        "Melting Point": "30-31 °C"
    }
}