{
    "cas_no": "3804-70-4",
    "key_name": "(+)-Columbianetin",
    "cn_name": null,
    "alternate_name": "2<em>H</em>-Furo[2,3-<em>h</em>]-1-benzopyran-2-one, 8,9-dihydro-8-(1-hydroxy-1-methylethyl)-, (8<em>S</em>)-;2<em>H</em>-Furo[2,3-<em>h</em>]-1-benzopyran-2-one, 8,9-dihydro-8-(1-hydroxy-1-methylethyl)-, (<em>S</em>)-(+)-;Columbianetin;2<em>H</em>-Furo[2,3-<em>h</em>]-1-benzopyran-2-one, 8,9-dihydro-8-(1-hydroxy-1-methylethyl)-, (<em>S</em>)-;(8<em>S</em>)-8,9-Dihydro-8-(1-hydroxy-1-methylethyl)-2<em>H</em>-furo[2,3-<em>h</em>]-1-benzopyran-2-one;(+)-Columbianetin;(8S)-8-(2-Hydroxypropan-2-yl)-8,9-dihydrofuro[2,3-<em>h</em>]chromen-2-one",
    "duplicated_cas_no": "36482-92-5;2842596-73-8",
    "SMILES": "C(C)(C)(O)[C@@H]1CC=2C3=C(C=CC2O1)C=CC(=O)O3",
    "meta_data": {
        "InChI": "InChI=1S/C14H14O4/c1-14(2,16)11-7-9-10(17-11)5-3-8-4-6-12(15)18-13(8)9/h3-6,11,16H,7H2,1-2H3/t11-/m0/s1",
        "InChIKey": null,
        "Canonical SMILES": "O=C1OC2=C(C=C1)C=CC=3OC(CC32)C(O)(C)C",
        "Molecular Formula": "C<sub>14</sub>H<sub>14</sub>O<sub>4</sub>",
        "Molecular Mass": "246.26",
        "Melting Point": "143-145 °C"
    }
}