{
    "cas_no": "3144-16-9",
    "key_name": "Camphorsulfonic acid",
    "cn_name": "D(+)-10-樟脑磺酸;右旋樟脑磺酸;右旋-7,7-三甲基二环[2.2.1]庚烷-2-酮-1-甲磺酸;",
    "alternate_name": "Bicyclo[2.2.1]heptane-1-methanesulfonic acid, 7,7-dimethyl-2-oxo-, (1<em>S</em>,4<em>R</em>)-;10-Bornanesulfonic acid, 2-oxo-, (1<em>S</em>,4<em>R</em>)-(+)-;Bicyclo[2.2.1]heptane-1-methanesulfonic acid, 7,7-dimethyl-2-oxo-, (1<em>S</em>)-;Camphorsulfonic acid;(1<em>S</em>,4<em>R</em>)-7,7-Dimethyl-2-oxobicyclo[2.2.1]heptane-1-methanesulfonic acid;(+)-Camphor-10-sulfonic acid;<em>d</em>-Camphorsulfonic acid;Reychler's acid;2-Oxo-10-bornanesulfonic acid;Camphor-10-sulfonic acid, (+)-;Camphor-ω-sulfonic acid, (+)-;β-Camphorsulfonic acid, (+)-;(+)-Camphorsulfonic acid;(+)-Camphor-ω-sulfonic acid;(+)-β-Camphorsulfonic acid;(+)-<span class=\"text-smallcaps\">D</span>-Camphor-10-sulfonic acid;<span class=\"text-smallcaps\">D</span>-(+)-Camphorsulfonic acid;<span class=\"text-smallcaps\">D</span>-Camphorsulfonic acid;(+)-2-Oxo-10-bornanesulfonic acid;<span class=\"text-smallcaps\">D</span>-(+)-Camphor-10-sulfonic acid;<span class=\"text-smallcaps\">D</span>-Camphor-10-sulfonic acid;(<em>S</em>)-Camphor-10-sulfonic acid;(1<em>S</em>)-(+)-10-Camphorsulfonic acid;<em>d</em>-10-Camphorsulfonic acid;(<em>S</em>)-(+)-Camphor-10-sulfonic acid;<span class=\"text-smallcaps\">D</span>-Camphor-β-sulfonic acid;(+)-(<em>S</em>)-Camphor-10-sulfonic acid;(1<em>S</em>)-10-Camphorsulfonic acid;(S)-(+)-CSA;((1<em>S</em>,4<em>R</em>)-7,7-Dimethyl-2-oxobicyclo[2.2.1]heptan-1-yl)methanesulfonic acid;(<em>S</em>)-Camphorsulfonic acid;(1S,4R)-10-Camphorsulfonic acid;((1S,4R)-7,7-Dimethyl-2-oxobicyclo[2.2.1]heptan-1-yl)methanesulfonic acid",
    "duplicated_cas_no": "1300-83-0;26637-28-5;27457-20-1;36408-79-4;46471-65-2;51018-95-2;57564-99-5;61380-66-3;202256-79-9;856658-12-3;861510-88-5;908577-83-3;1055089-29-6;1071658-71-3;1194784-47-8;1195314-64-7;1195649-04-7;1217491-10-5;1272768-46-3;1283735-11-4;1399184-56-5;1654012-57-3;1822333-84-5;1909301-24-1;1955485-32-1;2166394-45-0;2241798-98-9;2296713-99-8;2361930-67-6;2408758-08-5;2648924-82-5;2925658-82-6;2983103-65-5",
    "SMILES": "C(S(=O)(=O)O)[C@@]12C(C)(C)[C@@](CC1=O)(CC2)[H]",
    "meta_data": {
        "InChI": "InChI=1S/C10H16O4S/c1-9(2)7-3-4-10(9,8(11)5-7)6-15(12,13)14/h7H,3-6H2,1-2H3,(H,12,13,14)/t7-,10-/m1/s1",
        "InChIKey": null,
        "Canonical SMILES": "O=C1CC2CCC1(CS(=O)(=O)O)C2(C)C",
        "Molecular Formula": "C<sub>10</sub>H<sub>16</sub>O<sub>4</sub>S",
        "Molecular Mass": "232.30",
        "Melting Point": "195 °C (decomp)"
    }
}