{
    "cas_no": "79794-75-5",
    "key_name": "Loratadine",
    "cn_name": "氯雷他定;4-(8-氯-5,6-二氢-11H-苯并[5,6]环庚基[1,2-b]并吡啶-11-烯)-1-哌啶羧酸乙酯;",
    "alternate_name": "1-Piperidinecarboxylic acid, 4-(8-chloro-5,6-dihydro-11<em>H</em>-benzo[5,6]cyclohepta[1,2-<em>b</em>]pyridin-11-ylidene)-, ethyl ester;11<em>H</em>-Benzo[5,6]cyclohepta[1,2-<em>b</em>]pyridine, 1-piperidinecarboxylic acid deriv.;Sch 29851;Loratadine;Loratidine;Klaritin;Claritin;Bonalerg;Civeran;Anhissen;Claritine;Clarityn;Claratyne;Cronopen;Fristamin;Histaloran;Lertamine;Lisino;Loracert;Clarityne;Loranox;Lorastine;Loratyne;Lorfast;Lowadina;Optimin;Polaratyne;Pylor;Restamine;Sensibit;Sohotin;Tadine;Velodan;Zeos;Loradex;Alavert;Flonidan;Klarifer;Clarotadin;Erolin;Lomilan;Symphoral;Ethyl 4-(8-chloro-5,6-dihydro-11<em>H</em>-benzo[5,6]cyclohepta[1,2-<em>b</em>]pyridin-11-ylidene)piperidine-1-carboxylate;MeSH ID: D017336;Loraclear",
    "duplicated_cas_no": "",
    "SMILES": "ClC=1C=C2C(C(C=3C(CC2)=CC=CN3)=C4CCN(C(OCC)=O)CC4)=CC1",
    "meta_data": {
        "InChI": "InChI=1S/C22H23ClN2O2/c1-2-27-22(26)25-12-9-15(10-13-25)20-19-8-7-18(23)14-17(19)6-5-16-4-3-11-24-21(16)20/h3-4,7-8,11,14H,2,5-6,9-10,12-13H2,1H3",
        "InChIKey": null,
        "Canonical SMILES": "O=C(OCC)N1CCC(=C2C=3N=CC=CC3CCC=4C=C(Cl)C=CC42)CC1",
        "Molecular Formula": "C<sub>22</sub>H<sub>23</sub>ClN<sub>2</sub>O<sub>2</sub>",
        "Molecular Mass": "382.88",
        "Melting Point": "134-136 °C"
    }
}