{
    "cas_no": "6781-98-2",
    "key_name": "2-Chloro-1,3-dimethylbenzene",
    "cn_name": "2-氯-1,3-二甲苯;2-氯间二甲苯;",
    "alternate_name": "Benzene, 2-chloro-1,3-dimethyl-;<em>m</em>-Xylene, 2-chloro-;2-Chloro-1,3-dimethylbenzene;1-Chloro-2,6-dimethylbenzene;2-Chloro-<em>m</em>-xylene;2,6-Dimethylchlorobenzene;2,6-Dimethylphenyl chloride;2,6-Dimethyl-1-chlorobenzene",
    "duplicated_cas_no": "",
    "SMILES": "ClC1=C(C)C=CC=C1C",
    "meta_data": {
        "InChI": "InChI=1S/C8H9Cl/c1-6-4-3-5-7(2)8(6)9/h3-5H,1-2H3",
        "InChIKey": null,
        "Canonical SMILES": "ClC=1C(=CC=CC1C)C",
        "Molecular Formula": "C<sub>8</sub>H<sub>9</sub>Cl",
        "Molecular Mass": "140.61",
        "Boiling Point": "186 °C",
        "Melting Point": "-35 °C",
        "Density": "1.053 g/cm³ @ Temp: 20 °C"
    }
}