{
    "cas_no": "2681-55-2",
    "key_name": "Methyl (17β)-3-oxoandrost-4-ene-17-carboxylate",
    "cn_name": "雄甾-3-酮-4-烯-17bata-羧酸甲酯;3-酮-4-雄烯-17beta-羧酸甲酯;",
    "alternate_name": "Androst-4-ene-17-carboxylic acid, 3-oxo-, methyl ester, (17β)-;Androst-4-ene-17β-carboxylic acid, 3-oxo-, methyl ester;Methyl (17β)-3-oxoandrost-4-ene-17-carboxylate;Methyl 4-androsten-3-one 17β-carboxylate;4-Androsten-3-one 17β-carboxylic acid methyl ester;L 589.170;Methyl 3-oxo-4-androstene-17β-carboxylate;Org 7329-0;Methyl 3-oxoandrost-4-ene-17β-carboxylate",
    "duplicated_cas_no": "22945-40-0;84449-14-9",
    "SMILES": "C[C@@]12[C@]([C@]3([C@@]([C@]4(C)C(CC3)=CC(=O)CC4)(CC1)[H])[H])(CC[C@@H]2C(OC)=O)[H]",
    "meta_data": {
        "InChI": "InChI=1S/C21H30O3/c1-20-10-8-14(22)12-13(20)4-5-15-16-6-7-18(19(23)24-3)21(16,2)11-9-17(15)20/h12,15-18H,4-11H2,1-3H3/t15-,16-,17-,18+,20-,21-/m0/s1",
        "InChIKey": null,
        "Canonical SMILES": "O=C1C=C2CCC3C(CCC4(C)C(C(=O)OC)CCC34)C2(C)CC1",
        "Molecular Formula": "C<sub>21</sub>H<sub>30</sub>O<sub>3</sub>",
        "Molecular Mass": "330.46",
        "Melting Point": "130-131 °C"
    }
}