{
    "cas_no": "852620-97-4",
    "key_name": "Pyrrolidinium, 1-methyl-1-propyl-, salt with imidodisulfuryl fluoride (1:1)",
    "cn_name": null,
    "alternate_name": "Pyrrolidinium, 1-methyl-1-propyl-, salt with imidodisulfuryl fluoride (1:1);1-Methyl-1-propylpyrrolidinium bis(fluorosulfonyl)imide;Elexcel IL 120;<em>N</em>-Methyl-<em>N</em>-propylpyrrolidinium bis(fluorosulfonyl)imide;1-Propyl-1-methylpyrrolidinium bis(fluorosulfonyl)imide;1-Butyl-3-methylpyrrolidinium bisfluorosulfonylimide;IL 120;Elexcel AS 120;AS 120;<em>N</em>-Propyl-<em>N</em>-methylpyrrolidinium bis(fluorosulfonyl)imide;1-Methyl-1-propylpyrrolidinium bis(fluorosulfonyl)amide;PY<sub>13</sub>FSI",
    "duplicated_cas_no": "1038413-95-4;1990509-22-2",
    "SMILES": "C(CC)[N+]1(C)CCCC1.[N-](S(F)(=O)=O)S(F)(=O)=O",
    "meta_data": {
        "InChI": "InChI=1S/C8H18N.F2NO4S2/c1-3-6-9(2)7-4-5-8-9;1-8(4,5)3-9(2,6)7/h3-8H2,1-2H3;/q+1;-1",
        "InChIKey": null,
        "Canonical SMILES": "O=S(=O)(F)[N-]S(=O)(=O)F.CCC[N+]1(C)CCCC1",
        "Molecular Formula": "C<sub>8</sub>H<sub>18</sub>N.F<sub>2</sub>NO<sub>4</sub>S<sub>2</sub>",
        "Molecular Mass": "",
        "Melting Point": "256 °C",
        "Density": "1.3225 g/cm³ (liquid) @ Temp: 90.000 °C; Press: 5 x 10⁵ Torr"
    }
}