{
    "cas_no": "2373-31-1",
    "key_name": "6-Hydroxy-4-methylcoumarin",
    "cn_name": "6-羟基-4-甲基香豆素;",
    "alternate_name": "2<em>H</em>-1-Benzopyran-2-one, 6-hydroxy-4-methyl-;Coumarin, 6-hydroxy-4-methyl-;6-Hydroxy-4-methyl-2<em>H</em>-1-benzopyran-2-one;4-Methyl-6-hydroxycoumarin;6-Hydroxy-4-methylcoumarin;6-Hydroxy-4-methylcumarin;6-Hydroxy-4-methyl-2<em>H</em>-chromen-2-one;6-Hydroxy-4-methylchromen-2-one",
    "duplicated_cas_no": "",
    "SMILES": "CC=1C=2C(OC(=O)C1)=CC=C(O)C2",
    "meta_data": {
        "InChI": "InChI=1S/C10H8O3/c1-6-4-10(12)13-9-3-2-7(11)5-8(6)9/h2-5,11H,1H3",
        "InChIKey": null,
        "Canonical SMILES": "O=C1OC=2C=CC(O)=CC2C(=C1)C",
        "Molecular Formula": "C<sub>10</sub>H<sub>8</sub>O<sub>3</sub>",
        "Molecular Mass": "176.17",
        "Melting Point": "243 °C"
    }
}