{
    "cas_no": "1312-43-2",
    "key_name": "Indium oxide",
    "cn_name": "氧化铟;",
    "alternate_name": "Indium oxide (In<sub>2</sub>O<sub>3</sub>);Indium sesquioxide;Indium(III) oxide;Diindium trioxide;Indium oxide;Indium trioxide;Indium(3+) oxide;India;Indium oxide (2:3);Mesatron;Trioxodiindium;EP-ITO-DL 1;XH-ITO 02-1",
    "duplicated_cas_no": "1338813-59-4;2559750-15-9",
    "SMILES": "",
    "meta_data": {
        "InChI": "",
        "InChIKey": null,
        "Canonical SMILES": "",
        "Molecular Formula": "In<sub>2</sub>O<sub>3</sub>",
        "Molecular Mass": "",
        "Melting Point": "1910 °C",
        "Density": "7.18 g/cm³ @ Temp: Room temp"
    }
}