{
    "uri": "substance/pt/1312432",
    "rn": "1312-43-2",
    "name": "Indium oxide",
    "images": [],
    "inchi": "",
    "inchiKey": "",
    "smile": "",
    "canonicalSmile": "",
    "molecularFormula": "In<sub>2</sub>O<sub>3</sub>",
    "molecularMass": "",
    "experimentalProperties": [
        {
            "name": "Melting Point",
            "property": "1910 °C",
            "sourceNumber": 1
        },
        {
            "name": "Density",
            "property": "7.18 g/cm³ @ Temp: Room temp",
            "sourceNumber": 2
        }
    ],
    "propertyCitations": [
        {
            "docUri": "document/pt/document/12381410",
            "sourceNumber": 1,
            "source": "Schneider, S. J.; Journal of Research of the National Bureau of Standards, Section A:  Physics and Chemistry, (1961), 65A, 429-34, CAplus"
        },
        {
            "docUri": "document/pt/document/30307411",
            "sourceNumber": 2,
            "source": "Zhang, Weijun; Guijinshu, (2007), 28(1), 23-27, CAplus"
        }
    ],
    "synonyms": [
        "Indium oxide (In<sub>2</sub>O<sub>3</sub>)",
        "Indium sesquioxide",
        "Indium(III) oxide",
        "Diindium trioxide",
        "Indium oxide",
        "Indium trioxide",
        "Indium(3+) oxide",
        "India",
        "Indium oxide (2:3)",
        "Mesatron",
        "Trioxodiindium",
        "EP-ITO-DL 1",
        "XH-ITO 02-1"
    ],
    "replacedRns": [
        "1338813-59-4",
        "2559750-15-9"
    ],
    "hasMolfile": false,
    "source": "https://commonchemistry.cas.org/detail?cas_rn=1312-43-2"
}