{
    "cas_no": "16219-75-3",
    "key_name": "Ethylidenenorbornene",
    "cn_name": "5-亚乙基降冰片烯-2;5-亚乙基二环[2.2.1]庚-2-烯;亚乙基降冰片烯;乙叉降冰片烯;5-乙叉基双环[2,2,1]庚-2-烯;",
    "alternate_name": "Bicyclo[2.2.1]hept-2-ene, 5-ethylidene-;2-Norbornene, 5-ethylidene-;5-Ethylidenebicyclo[2.2.1]hept-2-ene;Ethylidenenorbornene;5-Ethylidenenorbornene;Ethylidene-2-norbornene;2-Ethylidene-5-norbornene;2-Ethylidenebicyclo[2.2.1]hept-5-ene;5-Ethylidene-2-norbornene",
    "duplicated_cas_no": "59006-74-5;62181-74-2;1135584-95-0",
    "SMILES": "C(C)=C1C2CC(C1)C=C2",
    "meta_data": {
        "InChI": "InChI=1S/C9H12/c1-2-8-5-7-3-4-9(8)6-7/h2-4,7,9H,5-6H2,1H3",
        "InChIKey": null,
        "Canonical SMILES": "C1=CC2CC(=CC)C1C2",
        "Molecular Formula": "C<sub>9</sub>H<sub>12</sub>",
        "Molecular Mass": "120.19",
        "Boiling Point": "67 °C @ Press: 50 Torr",
        "Melting Point": "-80 °C",
        "Density": "0.8958 g/cm³ @ Temp: 20 °C"
    }
}