{
    "cas_no": "5811-88-1",
    "key_name": "Naphthalamic acid",
    "cn_name": "8-羧基萘甲酰氨;8-(氢基羰基)1-萘酸;8-羧基萘-1-甲酰氨;",
    "alternate_name": "1-Naphthalenecarboxylic acid, 8-(aminocarbonyl)-;Naphthalamic acid;8-(Aminocarbonyl)-1-naphthalenecarboxylic acid",
    "duplicated_cas_no": "",
    "SMILES": "C(N)(=O)C=1C=2C(C(O)=O)=CC=CC2C=CC1",
    "meta_data": {
        "InChI": "InChI=1S/C12H9NO3/c13-11(14)8-5-1-3-7-4-2-6-9(10(7)8)12(15)16/h1-6H,(H2,13,14)(H,15,16)",
        "InChIKey": null,
        "Canonical SMILES": "O=C(O)C=1C=CC=C2C=CC=C(C(=O)N)C21",
        "Molecular Formula": "C<sub>12</sub>H<sub>9</sub>NO<sub>3</sub>",
        "Molecular Mass": "215.20",
        "Melting Point": "245 °C"
    }
}