{
    "cas_no": "79055-59-7",
    "key_name": "2-Bromo-6-methyl-4-pyridinamine",
    "cn_name": null,
    "alternate_name": "4-Pyridinamine, 2-bromo-6-methyl-;2-Bromo-6-methyl-4-pyridinamine;4-Amino-2-bromo-6-methylpyridine;2-Bromo-6-methylpyridin-4-ylamine",
    "duplicated_cas_no": "",
    "SMILES": "NC=1C=C(Br)N=C(C)C1",
    "meta_data": {
        "InChI": "InChI=1S/C6H7BrN2/c1-4-2-5(8)3-6(7)9-4/h2-3H,1H3,(H2,8,9)",
        "InChIKey": null,
        "Canonical SMILES": "BrC=1N=C(C=C(N)C1)C",
        "Molecular Formula": "C<sub>6</sub>H<sub>7</sub>BrN<sub>2</sub>",
        "Molecular Mass": "187.04",
        "Melting Point": "179 °C"
    }
}