{
    "cas_no": "109-53-5",
    "key_name": "Isobutyl vinyl ether",
    "cn_name": "乙烯基异丁醚;",
    "alternate_name": "Propane, 1-(ethenyloxy)-2-methyl-;Ether, isobutyl vinyl;1-(Ethenyloxy)-2-methylpropane;Isobutyl vinyl ether;IVE;Vinoflex MO 400;Vinyl isobutyl ether;<em>iso</em>-Butyl vinyl ether;Lutonal LR 8500;Isobutanol vinyl ether;Isobutoxyethene;NSC 8265",
    "duplicated_cas_no": "",
    "SMILES": "C(C(C)C)OC=C",
    "meta_data": {
        "InChI": "InChI=1S/C6H12O/c1-4-7-5-6(2)3/h4,6H,1,5H2,2-3H3",
        "InChIKey": null,
        "Canonical SMILES": "O(C=C)CC(C)C",
        "Molecular Formula": "C<sub>6</sub>H<sub>12</sub>O",
        "Molecular Mass": "100.16",
        "Boiling Point": "83 °C",
        "Melting Point": "-112 °C",
        "Density": "0.7693 g/cm³ @ Temp: 20 °C"
    }
}