{
    "cas_no": "6920-38-3",
    "key_name": "Luteolin 4′-<em>O</em>-glucoside",
    "cn_name": null,
    "alternate_name": "4<em>H</em>-1-Benzopyran-4-one, 2-[4-(β-<span class=\"text-smallcaps\">D</span>-glucopyranosyloxy)-3-hydroxyphenyl]-5,7-dihydroxy-;Flavone, 3′,4′,5,7-tetrahydroxy-, 4′-β-<span class=\"text-smallcaps\">D</span>-glucopyranoside;Luteolin 4′-glucoside;Glucopyranoside, luteolin-4′, β-<span class=\"text-smallcaps\">D</span>-;2-[4-(β-<span class=\"text-smallcaps\">D</span>-Glucopyranosyloxy)-3-hydroxyphenyl]-5,7-dihydroxy-4<em>H</em>-1-benzopyran-4-one;Luteolin 4′-<em>O</em>-β-<span class=\"text-smallcaps\">D</span>-glucoside;Luteolin 4′-<em>O</em>-β-<span class=\"text-smallcaps\">D</span>-glucopyranoside;Juncein;4′-β-<span class=\"text-smallcaps\">D</span>-Glucosylluteolin;Luteolin 4′-<em>O</em>-glucoside;3′,4′,5,7-Tetrahydroxyflavone 4′-β-<span class=\"text-smallcaps\">D</span>-glucoside",
    "duplicated_cas_no": "520-35-4;30370-79-7;31564-16-6;100455-52-5;141301-02-2;1421046-51-6;1788036-67-8",
    "SMILES": "O=C1C=2C(OC(=C1)C3=CC(O)=C(O[C@@H]4O[C@H](CO)[C@@H](O)[C@H](O)[C@H]4O)C=C3)=CC(O)=CC2O",
    "meta_data": {
        "InChI": "InChI=1S/C21H20O11/c22-7-16-18(27)19(28)20(29)21(32-16)31-13-2-1-8(3-10(13)24)14-6-12(26)17-11(25)4-9(23)5-15(17)30-14/h1-6,16,18-25,27-29H,7H2/t16-,18-,19+,20-,21-/m1/s1",
        "InChIKey": null,
        "Canonical SMILES": "O=C1C=C(OC=2C=C(O)C=C(O)C12)C=3C=CC(OC4OC(CO)C(O)C(O)C4O)=C(O)C3",
        "Molecular Formula": "C<sub>21</sub>H<sub>20</sub>O<sub>11</sub>",
        "Molecular Mass": "448.38",
        "Melting Point": "178-179 °C"
    }
}