{
    "cas_no": "50594-82-6",
    "key_name": "3,4,5-Trichlorobenzotrifluoride",
    "cn_name": "3,4,5-三氯三氟甲苯;",
    "alternate_name": "Benzene, 1,2,3-trichloro-5-(trifluoromethyl)-;1,2,3-Trichloro-5-(trifluoromethyl)benzene;3,4,5-Trichloro-α,α,α-trifluorotoluene;3,4,5-Trichlorobenzotrifluoride",
    "duplicated_cas_no": "",
    "SMILES": "C(F)(F)(F)C1=CC(Cl)=C(Cl)C(Cl)=C1",
    "meta_data": {
        "InChI": "InChI=1S/C7H2Cl3F3/c8-4-1-3(7(11,12)13)2-5(9)6(4)10/h1-2H",
        "InChIKey": null,
        "Canonical SMILES": "FC(F)(F)C1=CC(Cl)=C(Cl)C(Cl)=C1",
        "Molecular Formula": "C<sub>7</sub>H<sub>2</sub>Cl<sub>3</sub>F<sub>3</sub>",
        "Molecular Mass": "249.45",
        "Boiling Point": "82-86 °C @ Press: 10 Torr"
    }
}