{
    "cas_no": "4221-80-1",
    "key_name": "2,4-Di-<em>tert</em>-butylphenyl 3′,5′-di-<em>tert</em>-butyl-4′-hydroxybenzoate",
    "cn_name": "3,5-二叔丁基-4-羟基苯甲酸-2,4-二叔丁基苯酯;UV-120;",
    "alternate_name": "Benzoic acid, 3,5-bis(1,1-dimethylethyl)-4-hydroxy-, 2,4-bis(1,1-dimethylethyl)phenyl ester;Benzoic acid, 3,5-di-<em>tert</em>-butyl-4-hydroxy-, 2,4-di-<em>tert</em>-butylphenyl ester;2,4-Di-<em>tert</em>-butylphenyl 3,5-di-<em>tert</em>-butyl-4-hydroxybenzoate;2′,4′-Di-<em>tert</em>-butylphenyl 3,5-di-<em>tert</em>-butyl-4-hydroxybenzoate;2,4-Di-<em>tert</em>-butylphenyl 4′-hydroxy-3′,5′-di-<em>tert</em>-butylbenzoate;Ferro Am 340;UV-Chek AM 340;Tinuvin 120;AM 340;Seesorb 712;2,4-Di-<em>tert</em>-butylphenyl 3′,5′-di-<em>tert</em>-butyl-4′-hydroxybenzoate;Viosorb 80;Sumisorb 400;Cyasorb 712;Ionox 901;TN 120;JLSun UV 120;UV 120;3,5-Bis(1,1-dimethylethyl)-4-hydroxybenzoic acid 2,4-bis(1,1-dimethylethyl)phenyl ester;Songsorb 7120",
    "duplicated_cas_no": "68822-27-5;71958-80-0;107528-48-3;114757-48-1;122304-64-7;1262872-66-1",
    "SMILES": "O(C(=O)C1=CC(C(C)(C)C)=C(O)C(C(C)(C)C)=C1)C2=C(C(C)(C)C)C=C(C(C)(C)C)C=C2",
    "meta_data": {
        "InChI": "InChI=1S/C29H42O3/c1-26(2,3)19-13-14-23(20(17-19)27(4,5)6)32-25(31)18-15-21(28(7,8)9)24(30)22(16-18)29(10,11)12/h13-17,30H,1-12H3",
        "InChIKey": null,
        "Canonical SMILES": "O=C(OC1=CC=C(C=C1C(C)(C)C)C(C)(C)C)C=2C=C(C(O)=C(C2)C(C)(C)C)C(C)(C)C",
        "Molecular Formula": "C<sub>29</sub>H<sub>42</sub>O<sub>3</sub>",
        "Molecular Mass": "438.64",
        "Melting Point": "191-192 °C"
    }
}