{
    "cas_no": "41011-01-2",
    "key_name": "2-Bromo-1-(3-chlorophenyl)ethanone",
    "cn_name": null,
    "alternate_name": "Ethanone, 2-bromo-1-(3-chlorophenyl)-;Acetophenone, 2-bromo-3′-chloro-;2-Bromo-1-(3-chlorophenyl)ethanone;2-Bromo-3′-chloroacetophenone;3-Chlorophenacyl bromide;<em>m</em>-Chlorophenacyl bromide;2-Bromo-<em>m</em>-chloroacetophenone;α-Bromo-3-chloroacetophenone;2-Bromo-1-(3-chlorophenyl)-1-ethanone",
    "duplicated_cas_no": "",
    "SMILES": "C(CBr)(=O)C1=CC(Cl)=CC=C1",
    "meta_data": {
        "InChI": "InChI=1S/C8H6BrClO/c9-5-8(11)6-2-1-3-7(10)4-6/h1-4H,5H2",
        "InChIKey": null,
        "Canonical SMILES": "O=C(C=1C=CC=C(Cl)C1)CBr",
        "Molecular Formula": "C<sub>8</sub>H<sub>6</sub>BrClO",
        "Molecular Mass": "233.49",
        "Melting Point": "39.5-40 °C"
    }
}