{
    "cas_no": "498-62-4",
    "key_name": "3-Thiophenecarboxaldehyde",
    "cn_name": "3-噻吩甲醛;",
    "alternate_name": "3-Thiophenecarboxaldehyde;3-Formylthiophene;3-Thiophenecarbaldehyde;3-Thiophenealdehyde;3-Thienylcarboxaldehyde;3-Thienaldehyde;Thiophen-3-aldehyde;NSC 172858;Thiofuran-3-carboxaldehyde",
    "duplicated_cas_no": "",
    "SMILES": "C(=O)C=1C=CSC1",
    "meta_data": {
        "InChI": "InChI=1S/C5H4OS/c6-3-5-1-2-7-4-5/h1-4H",
        "InChIKey": null,
        "Canonical SMILES": "O=CC1=CSC=C1",
        "Molecular Formula": "C<sub>5</sub>H<sub>4</sub>OS",
        "Molecular Mass": "112.15",
        "Boiling Point": "86.7 °C",
        "Density": "1.229 g/cm³"
    }
}