{
    "cas_no": "122-94-1",
    "key_name": "4-Butoxyphenol",
    "cn_name": "4-正丁氧基苯酚;",
    "alternate_name": "Phenol, 4-butoxy-;Phenol, <em>p</em>-butoxy-;4-Butoxyphenol;<em>p</em>-Butoxyphenol;Hydroquinone butyl ether;Hydroquinone monobutyl ether;4-<em>n</em>-Butoxyphenol;NSC 60292",
    "duplicated_cas_no": "",
    "SMILES": "O(CCCC)C1=CC=C(O)C=C1",
    "meta_data": {
        "InChI": "InChI=1S/C10H14O2/c1-2-3-8-12-10-6-4-9(11)5-7-10/h4-7,11H,2-3,8H2,1H3",
        "InChIKey": null,
        "Canonical SMILES": "OC1=CC=C(OCCCC)C=C1",
        "Molecular Formula": "C<sub>10</sub>H<sub>14</sub>O<sub>2</sub>",
        "Molecular Mass": "166.22",
        "Boiling Point": "125 °C @ Press: 4 Torr",
        "Melting Point": "65.5 °C"
    }
}