{
    "uri": "substance/pt/8001794",
    "rn": "8001-79-4",
    "name": "Castor oil",
    "images": [],
    "inchi": "",
    "inchiKey": "",
    "smile": "",
    "canonicalSmile": "",
    "molecularFormula": "Unspecified",
    "molecularMass": "",
    "experimentalProperties": [
        {
            "name": "Boiling Point",
            "property": "313 °C",
            "sourceNumber": 1
        },
        {
            "name": "Melting Point",
            "property": "-18--10 °C",
            "sourceNumber": 2
        },
        {
            "name": "Density",
            "property": "0.96 g/cm³",
            "sourceNumber": 2
        }
    ],
    "propertyCitations": [
        {
            "docUri": "",
            "sourceNumber": 1,
            "source": "Hazardous Substances Data Bank data were obtained from the National Library of Medicine (US)"
        },
        {
            "docUri": "",
            "sourceNumber": 2,
            "source": "International Chemical Safety Cards data were obtained from the National Institute for Occupational Safety and Health (US)"
        }
    ],
    "synonyms": [
        "Castor oil",
        "Phorbyol",
        "Aromatic castor oil",
        "3 Castor Oil",
        "No. 3 Castor oil",
        "Castor oil 3",
        "Oils, glyceridic, ricin",
        "Ricinus communis oil",
        "Fats and Glyceridic oils, castor",
        "Fats and Glyceridic oils, ricin",
        "LAVCO",
        "Viscotrol C",
        "ELA-DR",
        "DB Oil",
        "Ricinol",
        "Crystal O",
        "Tangantangan oil",
        "Oil of Palma Christi",
        "Neoloid",
        "Z 1",
        "Z 1 (oil)",
        "Thixcin ST",
        "Rizinusoel PD",
        "Acrol 1070",
        "HGS 120",
        "FD-ZY 05",
        "Refined Castor Oil Special Grade A",
        "FSG",
        "Refined Castor Oil A",
        "Himashiyu D",
        "Castor Oil D",
        "Jayant 9011",
        "AS 15",
        "AS 15 (oil)",
        "Parafarm",
        "LAV (polyol)",
        "LAV",
        "LAV (oil)",
        "Castor Oil SL",
        "Natunola Castor 1023",
        "Recastol 2790",
        "Kakutoku A",
        "Oleum Ricini",
        "Marutoku A",
        "Ricos CO-EX",
        "Spark M 80",
        "Industrial No. 1 castor oil",
        "L 04224",
        "CD 2020",
        "C 010 (polyurethane)",
        "C 010",
        "Rizinusol Q 1",
        "BMY 01",
        "Resinol EXP-PU 160-10",
        "AP 21",
        "AP 19",
        "Sternoil HCO",
        "MeSH ID: D002368",
        "Solvermol 805",
        "CY 368",
        "CY 750",
        "H 1830",
        "Vertellus DB",
        "PC 10",
        "Uapoly 7140",
        "FHB 2010",
        "HDPOL 150T",
        "Uric H 144"
    ],
    "replacedRns": [
        "8013-56-7",
        "8015-57-4",
        "8021-37-2",
        "8036-08-6",
        "8041-22-3",
        "8041-95-0",
        "89958-32-7",
        "151438-72-1",
        "898831-11-3",
        "2641325-54-2",
        "2924230-64-6"
    ],
    "hasMolfile": false,
    "source": "https://commonchemistry.cas.org/detail?cas_rn=8001-79-4"
}