{
    "cas_no": "94055-76-2",
    "key_name": "Suplatast tosilate",
    "cn_name": "甲磺司特;(2-(4-(3-乙氧基-2-羟基丙氧基)苯基氨基甲酰)乙基)二甲基锍对甲苯磺酸盐;",
    "alternate_name": "Sulfonium, [3-[[4-(3-ethoxy-2-hydroxypropoxy)phenyl]amino]-3-oxopropyl]dimethyl-, 4-methylbenzenesulfonate (1:1);Sulfonium, [3-[[4-(3-ethoxy-2-hydroxypropoxy)phenyl]amino]-3-oxopropyl]dimethyl-, salt with 4-methylbenzenesulfonic acid (1:1);Suplatast tosilate;Suplatast tosylate;IPD 1151T;[2-[4-(3-Ethoxy-2-hydroxypropoxy)phenylcarbamoyl]ethyl]dimethylsulfonium <em>p</em>-toluenesulfonate;(±)-[2-[4-(3-Ethoxy-2-hydroxypropoxy)phenylcarbamoyl]ethyl]dimethylsulfonium <em>p</em>-toluenesulfonate",
    "duplicated_cas_no": "160114-29-4;1776086-79-3",
    "SMILES": "O(CC(COCC)O)C1=CC=C(NC(CC[S+](C)C)=O)C=C1.S(=O)(=O)([O-])C1=CC=C(C)C=C1",
    "meta_data": {
        "InChI": "InChI=1S/C16H25NO4S.C7H8O3S/c1-4-20-11-14(18)12-21-15-7-5-13(6-8-15)17-16(19)9-10-22(2)3;1-6-2-4-7(5-3-6)11(8,9)10/h5-8,14,18H,4,9-12H2,1-3H3;2-5H,1H3,(H,8,9,10)",
        "InChIKey": null,
        "Canonical SMILES": "O=C(NC1=CC=C(OCC(O)COCC)C=C1)CC[S+](C)C.O=S(=O)([O-])C1=CC=C(C=C1)C",
        "Molecular Formula": "C<sub>16</sub>H<sub>26</sub>NO<sub>4</sub>S.C<sub>7</sub>H<sub>7</sub>O<sub>3</sub>S",
        "Molecular Mass": "",
        "Melting Point": "70-73 °C"
    }
}