{
    "cas_no": "3934-20-1",
    "key_name": "2,4-Dichloropyrimidine",
    "cn_name": "2,4-二氯嘧啶;",
    "alternate_name": "Pyrimidine, 2,4-dichloro-;2,4-Dichloropyrimidine;2,6-Dichloropyrimidine;NSC 20212;NSC 37531;NSC 49119;2-Chloropyrimidin-4-yl chloride",
    "duplicated_cas_no": "1846580-24-2",
    "SMILES": "ClC1=NC(Cl)=NC=C1",
    "meta_data": {
        "InChI": "InChI=1S/C4H2Cl2N2/c5-3-1-2-7-4(6)8-3/h1-2H",
        "InChIKey": null,
        "Canonical SMILES": "ClC1=NC=CC(Cl)=N1",
        "Molecular Formula": "C<sub>4</sub>H<sub>2</sub>Cl<sub>2</sub>N<sub>2</sub>",
        "Molecular Mass": "148.98",
        "Boiling Point": "100 °C @ Press: 19 Torr",
        "Melting Point": "61 °C"
    }
}