{
    "cas_no": "78-78-4",
    "key_name": "Isopentane",
    "cn_name": "异戊烷;2-甲基丁烷;",
    "alternate_name": "Butane, 2-methyl-;2-Methylbutane;Isopentane;<em>iso</em>-Pentane;1,1,2-Trimethylethane;Methylbutane;Borger Isopentane;Exxsol Isopentane S;NSC 119476;R 601A",
    "duplicated_cas_no": "68923-44-4;92046-46-3;1326305-74-1",
    "SMILES": "C(CC)(C)C",
    "meta_data": {
        "InChI": "InChI=1S/C5H12/c1-4-5(2)3/h5H,4H2,1-3H3",
        "InChIKey": null,
        "Canonical SMILES": "CCC(C)C",
        "Molecular Formula": "C<sub>5</sub>H<sub>12</sub>",
        "Molecular Mass": "72.15",
        "Boiling Point": "27.8 °C @ Press: 760 Torr",
        "Melting Point": "-159.9 °C",
        "Density": "0.6201 g/cm³ @ Temp: 20 °C"
    }
}