{
    "cas_no": "81998-04-1",
    "key_name": "4′-Methyl[2,2′-bipyridine]-4-methanol",
    "cn_name": null,
    "alternate_name": "[2,2′-Bipyridine]-4-methanol, 4′-methyl-;4′-Methyl[2,2′-bipyridine]-4-methanol;4-(Hydroxymethyl)-4′-methyl-2,2′-bipyridine;[2-(4-Methylpyridin-2-yl)pyridin-4-yl]methanol;(4′-Methyl-[2,2′-bipyridin]-4-yl)methanol",
    "duplicated_cas_no": "",
    "SMILES": "C(O)C=1C=C(N=CC1)C2=CC(C)=CC=N2",
    "meta_data": {
        "InChI": "InChI=1S/C12H12N2O/c1-9-2-4-13-11(6-9)12-7-10(8-15)3-5-14-12/h2-7,15H,8H2,1H3",
        "InChIKey": null,
        "Canonical SMILES": "OCC1=CC=NC(=C1)C2=NC=CC(=C2)C",
        "Molecular Formula": "C<sub>12</sub>H<sub>12</sub>N<sub>2</sub>O",
        "Molecular Mass": "200.24",
        "Melting Point": "115-117 °C"
    }
}