{
    "cas_no": "645-09-0",
    "key_name": "3-Nitrobenzamide",
    "cn_name": "3-硝基苯甲酰胺;",
    "alternate_name": "Benzamide, 3-nitro-;Benzamide, <em>m</em>-nitro-;3-Nitrobenzamide;<em>m</em>-Nitrobenzamide;NSC 37327",
    "duplicated_cas_no": "",
    "SMILES": "C(N)(=O)C1=CC(N(=O)=O)=CC=C1",
    "meta_data": {
        "InChI": "InChI=1S/C7H6N2O3/c8-7(10)5-2-1-3-6(4-5)9(11)12/h1-4H,(H2,8,10)",
        "InChIKey": null,
        "Canonical SMILES": "O=C(N)C1=CC=CC(=C1)N(=O)=O",
        "Molecular Formula": "C<sub>7</sub>H<sub>6</sub>N<sub>2</sub>O<sub>3</sub>",
        "Molecular Mass": "166.13",
        "Boiling Point": "312.5 °C",
        "Melting Point": "142.7 °C",
        "Density": "1.54 g/cm³ @ Temp: 19.9 °C"
    }
}