{
    "cas_no": "139-85-5",
    "key_name": "3,4-Dihydroxybenzaldehyde",
    "cn_name": "3,4-二羟基苯甲醛;",
    "alternate_name": "Benzaldehyde, 3,4-dihydroxy-;Protocatechualdehyde;3,4-Dihydroxybenzaldehyde;3,4-Dihydroxybenzenecarbonal;Protocatechuic aldehyde;4-Formyl-1,2-dihydroxybenzene;Rancinamycin IV;1,2-Dihydroxy-4-formylbenzene;NC 033;4-Formyl-1,2-benzenediol;Catechaldehyde;NSC 22961;4-Formylcatechol;3,4-Dihydroxybezaldehyde;4-Formyl-2-hydroxyphenol",
    "duplicated_cas_no": "",
    "SMILES": "C(=O)C1=CC(O)=C(O)C=C1",
    "meta_data": {
        "InChI": "InChI=1S/C7H6O3/c8-4-5-1-2-6(9)7(10)3-5/h1-4,9-10H",
        "InChIKey": null,
        "Canonical SMILES": "O=CC1=CC=C(O)C(O)=C1",
        "Molecular Formula": "C<sub>7</sub>H<sub>6</sub>O<sub>3</sub>",
        "Molecular Mass": "138.12",
        "Melting Point": "153 °C (decomp)",
        "Density": "0.992 g/cm³ @ Temp: 39.9 °C; Press: 4 x 10⁵ Torr"
    }
}