{
    "cas_no": "17407-56-6",
    "key_name": "(-)-2-Hydroxy-3-methylbutyric acid",
    "cn_name": "D-α-羟基异缬草酸;",
    "alternate_name": "Butanoic acid, 2-hydroxy-3-methyl-, (2<em>R</em>)-;Butanoic acid, 2-hydroxy-3-methyl-, (<em>R</em>)-;Butyric acid, 2-hydroxy-3-methyl-, <span class=\"text-smallcaps\">D</span>-;(2<em>R</em>)-2-Hydroxy-3-methylbutanoic acid;<span class=\"text-smallcaps\">D</span>-α-Hydroxyisovaleric acid;<span class=\"text-smallcaps\">D</span>-2-Hydroxyisovaleric acid;(<em>R</em>)-2-Hydroxyisovaleric acid;(-)-2-Hydroxy-3-methylbutyric acid;(-)-α-Hydroxyisovaleric acid;(<em>R</em>)-2-Hydroxy-3-methylbutanoic acid;(-)-2-Hydroxyisovaleric acid;(<em>R</em>)-2-Hydroxy-3-methylbutyric acid;(<em>R</em>)-(-)-2-Hydroxyisovaleric acid;(2<em>R</em>)-3-Methyl-2-hydroxybutanoic acid;(R)-2-Hydroxy-3-methylbutanoic acid;(2R)-2-Hydroxy-3-methylbutanoic acid;<span class=\"text-smallcaps\">D</span>-2-Hydroxy-3-methylbutanoic acid",
    "duplicated_cas_no": "",
    "SMILES": "[C@@H](C(C)C)(C(O)=O)O",
    "meta_data": {
        "InChI": "InChI=1S/C5H10O3/c1-3(2)4(6)5(7)8/h3-4,6H,1-2H3,(H,7,8)/t4-/m1/s1",
        "InChIKey": null,
        "Canonical SMILES": "O=C(O)C(O)C(C)C",
        "Molecular Formula": "C<sub>5</sub>H<sub>10</sub>O<sub>3</sub>",
        "Molecular Mass": "118.13",
        "Melting Point": "68.7 °C"
    }
}