{
    "cas_no": "56660-19-6",
    "key_name": "1-Butanaminium, <em>N</em>,<em>N</em>,<em>N</em>-tributyl-, salt with chromic acid (H<sub>2</sub>Cr<sub>2</sub>O<sub>7</sub>) (2:1)",
    "cn_name": "双四丁基铵重铬酸盐;",
    "alternate_name": "1-Butanaminium, <em>N</em>,<em>N</em>,<em>N</em>-tributyl-, salt with chromic acid (H<sub>2</sub>Cr<sub>2</sub>O<sub>7</sub>) (2:1);Chromate (Cr<sub>2</sub>O<sub>7</sub><sup>2-</sup>), bis(<em>N</em>,<em>N</em>,<em>N</em>-tributyl-1-butanaminium);Bis(tetrabutyl ammonium) dichromate;TBPDC;Tetrabutylammonium dichromate",
    "duplicated_cas_no": "",
    "SMILES": "O([Cr]([O-])(=O)=O)[Cr]([O-])(=O)=O.[N+](CCCC)(CCCC)(CCCC)CCCC",
    "meta_data": {
        "InChI": "InChI=1S/C16H36N.2Cr.7O/c1-5-9-13-17(14-10-6-2,15-11-7-3)16-12-8-4;;;;;;;;;/h5-16H2,1-4H3;;;;;;;;;/q+1;;;;;;;;2*-1",
        "InChIKey": null,
        "Canonical SMILES": "O=[Cr](=O)([O-])O[Cr](=O)(=O)[O-].CCCC[N+](CCCC)(CCCC)CCCC",
        "Molecular Formula": "C<sub>16</sub>H<sub>36</sub>N.<sup>1</sup>/<sub>2</sub>Cr<sub>2</sub>O<sub>7</sub>",
        "Molecular Mass": "",
        "Melting Point": "129-133 °C"
    }
}