{
    "cas_no": "2158-08-9",
    "key_name": "<em>N</em>-Octadecylurea",
    "cn_name": "N-正十八烷基脲;n-十八烷基脲;",
    "alternate_name": "Urea, <em>N</em>-octadecyl-;Urea, octadecyl-;<em>N</em>-Octadecylurea;Octadecylurea;<em>N</em>-Stearylurea;Stearylurea;NSC 16075",
    "duplicated_cas_no": "110175-59-2",
    "SMILES": "C(CCCCCCCCCCCC)CCCCCNC(N)=O",
    "meta_data": {
        "InChI": "InChI=1S/C19H40N2O/c1-2-3-4-5-6-7-8-9-10-11-12-13-14-15-16-17-18-21-19(20)22/h2-18H2,1H3,(H3,20,21,22)",
        "InChIKey": null,
        "Canonical SMILES": "O=C(N)NCCCCCCCCCCCCCCCCCC",
        "Molecular Formula": "C<sub>19</sub>H<sub>40</sub>N<sub>2</sub>O",
        "Molecular Mass": "312.53",
        "Melting Point": "101 °C"
    }
}