{
    "cas_no": "2622-05-1",
    "key_name": "Allylmagnesium chloride",
    "cn_name": "氯丙烯镁;丙烯基氯化镁;",
    "alternate_name": "Magnesium, chloro-2-propen-1-yl-;Magnesium, allylchloro-;Magnesium, chloro-2-propenyl-;Allylmagnesium chloride;Chloro-2-propen-1-ylmagnesium;Allylchloromagnesium",
    "duplicated_cas_no": "",
    "SMILES": "C(C=C)[Mg]Cl",
    "meta_data": {
        "InChI": "InChI=1S/C3H5.ClH.Mg/c1-3-2;;/h3H,1-2H2;1H;/q;;+1/p-1",
        "InChIKey": null,
        "Canonical SMILES": "Cl[Mg]CC=C",
        "Molecular Formula": "C<sub>3</sub>H<sub>5</sub>ClMg",
        "Molecular Mass": "",
        "Boiling Point": "143-145 °C @ Press: 14 Torr",
        "Melting Point": "350 °C (decomp)"
    }
}