{
    "cas_no": "3095-95-2",
    "key_name": "(Diethoxyphosphinyl)acetic acid",
    "cn_name": "(二乙氧基膦基)乙酸;",
    "alternate_name": "Acetic acid, 2-(diethoxyphosphinyl)-;Acetic acid, phosphono-, <em>P</em>,<em>P</em>-diethyl ester;Acetic acid, (diethoxyphosphinyl)-;2-(Diethoxyphosphinyl)acetic acid;(Diethylphosphono)acetic acid;Diethyl carboxymethylphosphonate;Diethyl carboxymethanephosphonate;(Diethoxyphosphinyl)acetic acid;Diethoxyphosphorylacetic acid;NSC 272281;2-(Diethoxyphosphoryl)acetic acid",
    "duplicated_cas_no": "",
    "SMILES": "P(CC(O)=O)(OCC)(OCC)=O",
    "meta_data": {
        "InChI": "InChI=1S/C6H13O5P/c1-3-10-12(9,11-4-2)5-6(7)8/h3-5H2,1-2H3,(H,7,8)",
        "InChIKey": null,
        "Canonical SMILES": "O=C(O)CP(=O)(OCC)OCC",
        "Molecular Formula": "C<sub>6</sub>H<sub>13</sub>O<sub>5</sub>P",
        "Molecular Mass": "196.14",
        "Boiling Point": "95 °C @ Press: 5 Torr",
        "Density": "1.2308 g/cm³ @ Temp: 20 °C"
    }
}