{
    "cas_no": "716-39-2",
    "key_name": "2,3-Naphthalenedicarboxylic anhydride",
    "cn_name": "2,3-萘二羧酸酐;",
    "alternate_name": "Naphtho[2,3-<em>c</em>]furan-1,3-dione;2,3-Naphthalenedicarboxylic anhydride;1,3-ββ-Isonaphthofurandione;2,3-Naphthalenedicarboxylic acid anhydride;2,3-Naphthalic anhydride",
    "duplicated_cas_no": "",
    "SMILES": "O=C1C=2C(=CC=3C(C2)=CC=CC3)C(=O)O1",
    "meta_data": {
        "InChI": "InChI=1S/C12H6O3/c13-11-9-5-7-3-1-2-4-8(7)6-10(9)12(14)15-11/h1-6H",
        "InChIKey": null,
        "Canonical SMILES": "O=C1OC(=O)C2=CC=3C=CC=CC3C=C12",
        "Molecular Formula": "C<sub>12</sub>H<sub>6</sub>O<sub>3</sub>",
        "Molecular Mass": "198.17",
        "Boiling Point": "275-280 °C @ Press: 100 Torr",
        "Melting Point": "246 °C"
    }
}