{
    "cas_no": "557-18-6",
    "key_name": "Diethylmagnesium",
    "cn_name": "二乙基镁;二乙基镁;",
    "alternate_name": "Magnesium, diethyl-;Diethylmagnesium",
    "duplicated_cas_no": "",
    "SMILES": "[Mg](CC)CC",
    "meta_data": {
        "InChI": "InChI=1S/2C2H5.Mg/c2*1-2;/h2*1H2,2H3;",
        "InChIKey": null,
        "Canonical SMILES": "[Mg](CC)CC",
        "Molecular Formula": "C<sub>4</sub>H<sub>10</sub>Mg",
        "Molecular Mass": "",
        "Melting Point": "0 °C"
    }
}