{
    "cas_no": "75-96-7",
    "key_name": "Tribromoacetic acid",
    "cn_name": "三溴乙酸;",
    "alternate_name": "Acetic acid, 2,2,2-tribromo-;Acetic acid, tribromo-;2,2,2-Tribromoacetic acid;Tribromoacetic acid;NSC 171102",
    "duplicated_cas_no": "",
    "SMILES": "C(C(O)=O)(Br)(Br)Br",
    "meta_data": {
        "InChI": "InChI=1S/C2HBr3O2/c3-2(4,5)1(6)7/h(H,6,7)",
        "InChIKey": null,
        "Canonical SMILES": "O=C(O)C(Br)(Br)Br",
        "Molecular Formula": "C<sub>2</sub>HBr<sub>3</sub>O<sub>2</sub>",
        "Molecular Mass": "296.74",
        "Melting Point": "132 °C"
    }
}