{
    "cas_no": "761460-03-1",
    "key_name": "(3<em>R</em>)-4-[(1,1-Dimethylethoxy)carbonyl]-3-morpholineacetic acid",
    "cn_name": null,
    "alternate_name": "3-Morpholineacetic acid, 4-[(1,1-dimethylethoxy)carbonyl]-, (3<em>R</em>)-;(3<em>R</em>)-4-[(1,1-Dimethylethoxy)carbonyl]-3-morpholineacetic acid;(<em>R</em>)-2-[4-(<em>tert</em>-Butoxycarbonyl)morpholin-3-yl]ethanoic acid;(R)-<em>N</em>-Boc-3-Morpholineaceticacid;(R)-2-(4-(<em>tert</em>-Butoxycarbonyl)morpholin-3-yl)acetic acid;2-[(3R)-4-[(2-Methylpropan-2-yl)oxycarbonyl]morpholin-3-yl]acetic acid",
    "duplicated_cas_no": "",
    "SMILES": "C(OC(C)(C)C)(=O)N1[C@H](CC(O)=O)COCC1",
    "meta_data": {
        "InChI": "InChI=1S/C11H19NO5/c1-11(2,3)17-10(15)12-4-5-16-7-8(12)6-9(13)14/h8H,4-7H2,1-3H3,(H,13,14)/t8-/m1/s1",
        "InChIKey": null,
        "Canonical SMILES": "O=C(OC(C)(C)C)N1CCOCC1CC(=O)O",
        "Molecular Formula": "C<sub>11</sub>H<sub>19</sub>NO<sub>5</sub>",
        "Molecular Mass": "245.27",
        "Melting Point": "82 °C"
    }
}