{
    "cas_no": "620-24-6",
    "key_name": "3-Hydroxybenzyl alcohol",
    "cn_name": "3-羟基苯甲醇;间羟基苄醇;",
    "alternate_name": "Benzenemethanol, 3-hydroxy-;Benzyl alcohol, <em>m</em>-hydroxy-;3-Hydroxybenzenemethanol;KSD 2405;3-Hydroxybenzyl alcohol;<em>m</em>-Hydroxybenzyl alcohol;3-(Hydroxymethyl)phenol;NSC 60735",
    "duplicated_cas_no": "",
    "SMILES": "C(O)C1=CC(O)=CC=C1",
    "meta_data": {
        "InChI": "InChI=1S/C7H8O2/c8-5-6-2-1-3-7(9)4-6/h1-4,8-9H,5H2",
        "InChIKey": null,
        "Canonical SMILES": "OC1=CC=CC(=C1)CO",
        "Molecular Formula": "C<sub>7</sub>H<sub>8</sub>O<sub>2</sub>",
        "Molecular Mass": "124.14",
        "Melting Point": "73 °C"
    }
}