{
    "cas_no": "25423-56-7",
    "key_name": "1,4,7,10-Tetrathiacyclododecane",
    "cn_name": "四硫环十二烷;",
    "alternate_name": "1,4,7,10-Tetrathiacyclododecane;Thio-12-crown-4;12-Thiacrown-4;NSC 295589;Tetrathia-12-crown-4",
    "duplicated_cas_no": "",
    "SMILES": "C1CSCCSCCSCCS1",
    "meta_data": {
        "InChI": "InChI=1S/C8H16S4/c1-2-10-5-6-12-8-7-11-4-3-9-1/h1-8H2",
        "InChIKey": null,
        "Canonical SMILES": "S1CCSCCSCCSCC1",
        "Molecular Formula": "C<sub>8</sub>H<sub>16</sub>S<sub>4</sub>",
        "Molecular Mass": "240.47",
        "Melting Point": "214-216 °C"
    }
}