{
    "cas_no": "4026-95-3",
    "key_name": "Desacetylcinobufagin",
    "cn_name": null,
    "alternate_name": "Bufa-20,22-dienolide, 14,15-epoxy-3,16-dihydroxy-, (3β,5β,15β,16β)-;5β-Bufa-20,22-dienolide, 14,15β-epoxy-3β,16β-dihydroxy-;Cinobufagin, deacetyl-;(3β,5β,15β,16β)-14,15-Epoxy-3,16-dihydroxybufa-20,22-dienolide;Deacetylcinobufagin;Desacetylcinobufagin;NSC 234203",
    "duplicated_cas_no": "",
    "SMILES": "C[C@]12[C@]3([C@](O3)([C@H](O)[C@@H]1C=4C=CC(=O)OC4)[H])[C@]5([C@](CC2)([C@]6(C)[C@](CC5)(C[C@@H](O)CC6)[H])[H])[H]",
    "meta_data": {
        "InChI": "InChI=1S/C24H32O5/c1-22-9-7-15(25)11-14(22)4-5-17-16(22)8-10-23(2)19(13-3-6-18(26)28-12-13)20(27)21-24(17,23)29-21/h3,6,12,14-17,19-21,25,27H,4-5,7-11H2,1-2H3/t14-,15+,16+,17-,19+,20-,21-,22+,23-,24-/m1/s1",
        "InChIKey": null,
        "Canonical SMILES": "O=C1OC=C(C=C1)C2C(O)C3OC34C5CCC6CC(O)CCC6(C)C5CCC24C",
        "Molecular Formula": "C<sub>24</sub>H<sub>32</sub>O<sub>5</sub>",
        "Molecular Mass": "400.51",
        "Melting Point": "129-130 °C"
    }
}