{
    "cas_no": "505-23-7",
    "key_name": "1,3-Dithiane",
    "cn_name": "1,3-二噻烷;",
    "alternate_name": "1,3-Dithiane;<em>m</em>-Dithiane;m-Dithiane;1,3-Dithiacyclohexane;NSC 157830",
    "duplicated_cas_no": "",
    "SMILES": "C1CSCSC1",
    "meta_data": {
        "InChI": "InChI=1S/C4H8S2/c1-2-5-4-6-3-1/h1-4H2",
        "InChIKey": null,
        "Canonical SMILES": "S1CSCCC1",
        "Molecular Formula": "C<sub>4</sub>H<sub>8</sub>S<sub>2</sub>",
        "Molecular Mass": "120.24",
        "Melting Point": "54 °C"
    }
}