{
    "cas_no": "320-37-6",
    "key_name": "4-Nitro-2-(trifluoromethyl)benzoic acid",
    "cn_name": "4-硝基-2-(三氟甲基)苯甲酸;",
    "alternate_name": "Benzoic acid, 4-nitro-2-(trifluoromethyl)-;<em>o</em>-Toluic acid, α,α,α-trifluoro-4-nitro-;4-Nitro-2-(trifluoromethyl)benzoic acid;4-Nitro-2-trifluoromethylbenzoic acid",
    "duplicated_cas_no": "",
    "SMILES": "C(F)(F)(F)C1=C(C(O)=O)C=CC(N(=O)=O)=C1",
    "meta_data": {
        "InChI": "InChI=1S/C8H4F3NO4/c9-8(10,11)6-3-4(12(15)16)1-2-5(6)7(13)14/h1-3H,(H,13,14)",
        "InChIKey": null,
        "Canonical SMILES": "O=C(O)C1=CC=C(C=C1C(F)(F)F)N(=O)=O",
        "Molecular Formula": "C<sub>8</sub>H<sub>4</sub>F<sub>3</sub>NO<sub>4</sub>",
        "Molecular Mass": "235.12",
        "Melting Point": "137-140 °C"
    }
}