{
    "cas_no": "3584-66-5",
    "key_name": "6-Chloro-2-(trichloromethyl)-1<em>H</em>-benzimidazole",
    "cn_name": null,
    "alternate_name": "1<em>H</em>-Benzimidazole, 6-chloro-2-(trichloromethyl)-;Benzimidazole, 5-chloro-2-(trichloromethyl)-;1<em>H</em>-Benzimidazole, 5-chloro-2-(trichloromethyl)-;Benzimidazole, 5(<em>or</em> 6)-chloro-2-(trichloromethyl)-;6-Chloro-2-(trichloromethyl)-1<em>H</em>-benzimidazole;2-Trichloromethyl-5(6)-chlorobenzimidazole;NSC 158057",
    "duplicated_cas_no": "",
    "SMILES": "C(Cl)(Cl)(Cl)C=1NC=2C(N1)=CC(Cl)=CC2",
    "meta_data": {
        "InChI": "InChI=1S/C8H4Cl4N2/c9-4-1-2-5-6(3-4)14-7(13-5)8(10,11)12/h1-3H,(H,13,14)",
        "InChIKey": null,
        "Canonical SMILES": "ClC=1C=CC=2NC(=NC2C1)C(Cl)(Cl)Cl",
        "Molecular Formula": "C<sub>8</sub>H<sub>4</sub>Cl<sub>4</sub>N<sub>2</sub>",
        "Molecular Mass": "269.94",
        "Melting Point": "235 °C"
    }
}