{
    "cas_no": "111902-57-9",
    "key_name": "Temocapril",
    "cn_name": "替莫普利;2-[(2S)-6-[[(1S)-1-乙氧基甲酰-3-苯基丙基]氨基]-5-氧代-2-噻吩-2-基-1,4-硫氮杂卓-4-基]乙酸;",
    "alternate_name": "1,4-Thiazepine-4(5<em>H</em>)-acetic acid, 6-[[(1<em>S</em>)-1-(ethoxycarbonyl)-3-phenylpropyl]amino]tetrahydro-5-oxo-2-(2-thienyl)-, (2<em>S</em>,6<em>R</em>)-;1,4-Thiazepine-4(5<em>H</em>)-acetic acid, 6-[[1-(ethoxycarbonyl)-3-phenylpropyl]amino]tetrahydro-5-oxo-2-(2-thienyl)-, [2<em>S</em>-[2α,6β(<em>R</em>*)]]-;(2<em>S</em>,6<em>R</em>)-6-[[(1<em>S</em>)-1-(Ethoxycarbonyl)-3-phenylpropyl]amino]tetrahydro-5-oxo-2-(2-thienyl)-1,4-thiazepine-4(5<em>H</em>)-acetic acid;Temocapril",
    "duplicated_cas_no": "",
    "SMILES": "C(C(O)=O)N1C[C@H](SC[C@H](N[C@@H](CCC2=CC=CC=C2)C(OCC)=O)C1=O)C3=CC=CS3",
    "meta_data": {
        "InChI": "InChI=1S/C23H28N2O5S2/c1-2-30-23(29)17(11-10-16-7-4-3-5-8-16)24-18-15-32-20(19-9-6-12-31-19)13-25(22(18)28)14-21(26)27/h3-9,12,17-18,20,24H,2,10-11,13-15H2,1H3,(H,26,27)/t17-,18-,20-/m0/s1",
        "InChIKey": null,
        "Canonical SMILES": "O=C(O)CN1C(=O)C(NC(C(=O)OCC)CCC=2C=CC=CC2)CSC(C=3SC=CC3)C1",
        "Molecular Formula": "C<sub>23</sub>H<sub>28</sub>N<sub>2</sub>O<sub>5</sub>S<sub>2</sub>",
        "Molecular Mass": "476.61",
        "Melting Point": "168 °C"
    }
}