{
    "cas_no": "7447-39-4",
    "key_name": "Cupric chloride",
    "cn_name": "无水氯化铜;",
    "alternate_name": "Copper chloride (CuCl<sub>2</sub>);Copper bichloride;Copper(II) chloride;Copper dichloride;Cupric chloride;Copper chloride;Cupric dichloride;Copper(2+) chloride;NSC 165706;GBC 4L",
    "duplicated_cas_no": "423724-63-4;2773455-32-4",
    "SMILES": "[Cu](Cl)Cl",
    "meta_data": {
        "InChI": "InChI=1S/2ClH.Cu/h2*1H;/q;;+2/p-2",
        "InChIKey": null,
        "Canonical SMILES": "Cl[Cu]Cl",
        "Molecular Formula": "Cl<sub>2</sub>Cu",
        "Molecular Mass": "",
        "Melting Point": "620 °C",
        "Density": "3.39 g/cm³ @ Temp: 25 °C"
    }
}