{
    "cas_no": "58-36-6",
    "key_name": "10,10′-Oxybisphenoxarsine",
    "cn_name": "10,10\"-氧代双吩噁砒;防霉剂OBPA;",
    "alternate_name": "10<em>H</em>-Phenoxarsine, 10,10′-oxybis-;Phenoxarsine, 10,10′-oxydi-;10,10′-Oxybis[10<em>H</em>-phenoxarsine];10,10′-Oxybisphenoxarsine;Bis(phenoxarsin-10-yl) ether;DID 47;10,10′-Oxidiphenoxarsine;Bis(10-phenoxarsyl) oxide;Bis(10-phenoxarsinyl) oxide;SA 546;Vinyzene;Vinyzene (pesticide);Vinyzene BP 5;Vinyzene BP 5-2;Vinyzene SB 1;10,10′-Bis(phenoxarsinyl) oxide;Vinadine;Durotex;Vinyzene SB 1PS;Intercide ABF 1 Esbo;Vinyzene BP 505;Vinyzene BS 1;Vinyzene SB 1PR;OBPA;Vinyzene BP 5-2DIDP;ABF 5DIDP;Micropel 5DIDP;SB 1PR",
    "duplicated_cas_no": "53923-27-6;64684-28-2;64887-10-1;107391-69-5;115728-29-5;1463955-27-2",
    "SMILES": "O([As]1C=2C(OC=3C1=CC=CC3)=CC=CC2)[As]4C=5C(OC=6C4=CC=CC6)=CC=CC5",
    "meta_data": {
        "InChI": "InChI=1S/C24H16As2O3/c1-5-13-21-17(9-1)25(18-10-2-6-14-22(18)27-21)29-26-19-11-3-7-15-23(19)28-24-16-8-4-12-20(24)26/h1-16H",
        "InChIKey": null,
        "Canonical SMILES": "O1C=2C=CC=CC2[As](O[As]3C=4C=CC=CC4OC=5C=CC=CC53)C=6C=CC=CC16",
        "Molecular Formula": "C<sub>24</sub>H<sub>16</sub>As<sub>2</sub>O<sub>3</sub>",
        "Molecular Mass": "502.23",
        "Melting Point": "184-185 °C",
        "Density": "1.40-1.42 g/cm³"
    }
}