{
    "cas_no": "586-39-0",
    "key_name": "3-Nitrostyrene",
    "cn_name": "3-硝基苯乙烯;",
    "alternate_name": "Benzene, 1-ethenyl-3-nitro-;Styrene, <em>m</em>-nitro-;1-Ethenyl-3-nitrobenzene;<em>m</em>-Nitrostyrene;3-Nitrostyrene;<em>m</em>-Vinylnitrobenzene;3-Nitrophenylethene;NSC 66550;1-Nitro-3-vinylbenzene;3-Ethenyl-1-nitrobenzene",
    "duplicated_cas_no": "",
    "SMILES": "N(=O)(=O)C1=CC(C=C)=CC=C1",
    "meta_data": {
        "InChI": "InChI=1S/C8H7NO2/c1-2-7-4-3-5-8(6-7)9(10)11/h2-6H,1H2",
        "InChIKey": null,
        "Canonical SMILES": "O=N(=O)C=1C=CC=C(C=C)C1",
        "Molecular Formula": "C<sub>8</sub>H<sub>7</sub>NO<sub>2</sub>",
        "Molecular Mass": "149.15",
        "Boiling Point": "96-100 °C @ Press: 3 Torr",
        "Melting Point": "-10 °C",
        "Density": "1.1552 g/cm³ @ Temp: 32.5 °C"
    }
}