{
    "cas_no": "81335-87-7",
    "key_name": "2-Amino-4-methylbenzenemethanol",
    "cn_name": null,
    "alternate_name": "Benzenemethanol, 2-amino-4-methyl-;Benzyl alcohol, 2-amino-4-methyl-;2-Amino-4-methylbenzenemethanol;2-Amino-4-methylbenzyl alcohol;(2-Amino-4-methylphenyl)methanol",
    "duplicated_cas_no": "",
    "SMILES": "C(O)C1=C(N)C=C(C)C=C1",
    "meta_data": {
        "InChI": "InChI=1S/C8H11NO/c1-6-2-3-7(5-10)8(9)4-6/h2-4,10H,5,9H2,1H3",
        "InChIKey": null,
        "Canonical SMILES": "OCC1=CC=C(C=C1N)C",
        "Molecular Formula": "C<sub>8</sub>H<sub>11</sub>NO",
        "Molecular Mass": "137.18",
        "Melting Point": "138-139 °C"
    }
}