{
    "cas_no": "10043-01-3",
    "key_name": "Aluminum sulfate",
    "cn_name": "硫酸铝;",
    "alternate_name": "Sulfuric acid, aluminum salt (3:2);Sulfatodialuminum disulfate (Al<sub>2</sub>(SO<sub>4</sub>)<sub>3</sub>);Aluminum sulfate (Al<sub>2</sub>(SO<sub>4</sub>)<sub>3</sub>);Aluminum sulfate;Cake alum;Alum;Aluminum alum;Dialuminum trisulfate;Aluminum sulfate (2:3);Dialuminum sulfate;Sulfuric acid aluminum(3+) salt (3:2);Sulfuric acid aluminum salt (Al<sub>2</sub>(SO<sub>4</sub>)<sub>3</sub>);Aluminum trisulfate;Aluminum sulphate;Aluminum sesquisulfate;Aluminum(III) sulfate;Tai-Ace S 150;Nalco 7530;Fertosan;Hi Soft C 2;Tai-Ace S 100;Alunogenite;Alumen;Nalco 7530 (salt);S 150;Al+Clear;Gel Cord;Fennosize KD 266MB;aluminum sulfate",
    "duplicated_cas_no": "19239-71-5;22515-37-3;66578-72-1;121739-79-5;124027-27-6;139939-73-4;1937262-06-0",
    "SMILES": "S(=O)(=O)(O)O.[Al]",
    "meta_data": {
        "InChI": "InChI=1S/Al.H2O4S/c;1-5(2,3)4/h;(H2,1,2,3,4)",
        "InChIKey": null,
        "Canonical SMILES": "[Al].O=S(=O)(O)O",
        "Molecular Formula": "Al.<sup>3</sup>/<sub>2</sub>H<sub>2</sub>O<sub>4</sub>S",
        "Molecular Mass": "",
        "Melting Point": "770 °C (decomp)",
        "Density": "1.61 g/cm³"
    }
}