{
    "cas_no": "32791-84-7",
    "key_name": "Panaxatriol",
    "cn_name": "人参三醇;",
    "alternate_name": "Dammarane-3,6,12-triol, 20,25-epoxy-, (3β,6β,12β,20<em>R</em>)-;Panaxatriol;Dammarane-3β,6β,12β-triol, 20,25-epoxy-, (20<em>R</em>)-;(3β,6β,12β,20<em>R</em>)-20,25-Epoxydammarane-3,6,12-triol;NSC 308880",
    "duplicated_cas_no": "5700-98-1;22135-76-8",
    "SMILES": "C[C@]12[C@@]3(C)[C@@]([C@](CC3)([C@]4(C)OC(C)(C)CCC4)[H])([C@H](O)C[C@@]1([C@]5(C)[C@@]([C@H](O)C2)(C(C)(C)[C@@H](O)CC5)[H])[H])[H]",
    "meta_data": {
        "InChI": "InChI=1S/C30H52O4/c1-25(2)12-9-13-30(8,34-25)18-10-15-28(6)23(18)19(31)16-21-27(5)14-11-22(33)26(3,4)24(27)20(32)17-29(21,28)7/h18-24,31-33H,9-17H2,1-8H3/t18-,19+,20+,21+,22-,23-,24-,27+,28+,29+,30+/m0/s1",
        "InChIKey": null,
        "Canonical SMILES": "OC1CC2C3(C)CCC(O)C(C)(C)C3C(O)CC2(C)C4(C)CCC(C14)C5(OC(C)(C)CCC5)C",
        "Molecular Formula": "C<sub>30</sub>H<sub>52</sub>O<sub>4</sub>",
        "Molecular Mass": "476.73",
        "Melting Point": "238-239 °C"
    }
}