{
    "cas_no": "62476-56-6",
    "key_name": "2,6-Dichloro-3-pyridinamine",
    "cn_name": "2,6-二氯-3-氨基吡啶;",
    "alternate_name": "3-Pyridinamine, 2,6-dichloro-;2,6-Dichloro-3-pyridinamine;3-Amino-2,6-dichloropyridine;2,6-Dichloro-3-aminopyridine;2,6-Dichloropyridin-3-ylamine;2,6-Dichloropyridin-3-amine",
    "duplicated_cas_no": "",
    "SMILES": "ClC1=C(N)C=CC(Cl)=N1",
    "meta_data": {
        "InChI": "InChI=1S/C5H4Cl2N2/c6-4-2-1-3(8)5(7)9-4/h1-2H,8H2",
        "InChIKey": null,
        "Canonical SMILES": "ClC=1N=C(Cl)C(N)=CC1",
        "Molecular Formula": "C<sub>5</sub>H<sub>4</sub>Cl<sub>2</sub>N<sub>2</sub>",
        "Molecular Mass": "163.00",
        "Melting Point": "119 °C"
    }
}