{
    "cas_no": "25999-20-6",
    "key_name": "Lasalocid sodium",
    "cn_name": "拉沙里菌素;",
    "alternate_name": "Benzoic acid, 6-[(3<em>R</em>,4<em>S</em>,5<em>S</em>,7<em>R</em>)-7-[(2<em>S</em>,3<em>S</em>,5<em>S</em>)-5-ethyl-5-[(2<em>R</em>,5<em>R</em>,6<em>S</em>)-5-ethyltetrahydro-5-hydroxy-6-methyl-2<em>H</em>-pyran-2-yl]tetrahydro-3-methyl-2-furanyl]-4-hydroxy-3,5-dimethyl-6-oxononyl]-2-hydroxy-3-methyl-, sodium salt (1:1);2,3-Cresotic acid, 6-[7-[5-ethyl-5-(5-ethyltetrahydro-5-hydroxy-6-methyl-2<em>H</em>-pyran-2-yl)tetrahydro-3-methyl-2-furyl]-4-hydroxy-3,5-dimethyl-6-oxononyl]-, monosodium salt, (-)-;Benzoic acid, 6-[7-[5-ethyl-5-(5-ethyltetrahydro-5-hydroxy-6-methyl-2<em>H</em>-pyran-2-yl)tetrahydro-3-methyl-2-furanyl]-4-hydroxy-3,5-dimethyl-6-oxononyl]-2-hydroxy-3-methyl-, monosodium salt, [2<em>R</em>-[2α[2<em>S</em>*(3<em>R</em>*,4<em>S</em>*,5<em>S</em>*,7<em>R</em>*),3<em>S</em>*,5<em>S</em>*],5α,6β]]-;Benzoic acid, 6-[(3<em>R</em>,4<em>S</em>,5<em>S</em>,7<em>R</em>)-7-[(2<em>S</em>,3<em>S</em>,5<em>S</em>)-5-ethyl-5-[(2<em>R</em>,5<em>R</em>,6<em>S</em>)-5-ethyltetrahydro-5-hydroxy-6-methyl-2<em>H</em>-pyran-2-yl]tetrahydro-3-methyl-2-furanyl]-4-hydroxy-3,5-dimethyl-6-oxononyl]-2-hydroxy-3-methyl-, monosodium salt;Lasalocid sodium;Ro 2-2985;Sodium lasalocid A;Avatec;Sodium lasalocid;Lasalocid sodium salt;Bovatec;MT 2007;NSC 243046",
    "duplicated_cas_no": "33913-39-2;57157-99-0;67249-45-0;73837-09-9",
    "SMILES": "C(C)[C@@]1(O[C@]([C@H](C([C@H]([C@H]([C@@H](CCC2=C(C(O)=O)C(O)=C(C)C=C2)C)O)C)=O)CC)([C@@H](C)C1)[H])[C@@]3(O[C@@H](C)[C@](CC)(O)CC3)[H].[Na]",
    "meta_data": {
        "InChI": "InChI=1S/C34H54O8.Na/c1-9-25(31-21(6)18-34(11-3,42-31)26-16-17-33(40,10-2)23(8)41-26)30(37)22(7)28(35)19(4)12-14-24-15-13-20(5)29(36)27(24)32(38)39;/h13,15,19,21-23,25-26,28,31,35-36,40H,9-12,14,16-18H2,1-8H3,(H,38,39);/t19-,21+,22+,23+,25+,26-,28+,31+,33-,34+;/m1./s1",
        "InChIKey": null,
        "Canonical SMILES": "[Na].O=C(O)C1=C(O)C(=CC=C1CCC(C)C(O)C(C(=O)C(CC)C2OC(CC)(CC2C)C3OC(C)C(O)(CC)CC3)C)C",
        "Molecular Formula": "C<sub>34</sub>H<sub>54</sub>O<sub>8</sub>.Na",
        "Molecular Mass": "",
        "Melting Point": "168-171 °C"
    }
}