{
    "cas_no": "13297-17-1",
    "key_name": "Mequindox",
    "cn_name": null,
    "alternate_name": "Ethanone, 1-(3-methyl-1,4-dioxido-2-quinoxalinyl)-;Ketone, methyl 3-methyl-2-quinoxalinyl, <em>N</em>,<em>N</em>′-dioxide;Ethanone, 1-(3-methyl-2-quinoxalinyl)-, <em>N</em>,<em>N</em>′-dioxide;1-(3-Methyl-1,4-dioxido-2-quinoxalinyl)ethanone;2-Acetyl-3-methylquinoxaline 1,4-di-<em>N</em>-oxide;2-Acetyl-3-methylquinoxaline 1,4-dioxide;2-Methyl-3-acetylquinoxaline 1,4-dioxide;Maqo;Maquindox;Mequindox;3-Acetyl-2-methylquinoxaline-1,4-diium-1,4-bis(olate)",
    "duplicated_cas_no": "879574-48-8",
    "SMILES": "O=N=1C2=C(N(=O)=C(C)C1C(C)=O)C=CC=C2",
    "meta_data": {
        "InChI": "InChI=1S/C11H10N2O3/c1-7-11(8(2)14)13(16)10-6-4-3-5-9(10)12(7)15/h3-6H,1-2H3",
        "InChIKey": null,
        "Canonical SMILES": "O=C(C1=C(N(=O)=C2C=CC=CC2=N1=O)C)C",
        "Molecular Formula": "C<sub>11</sub>H<sub>10</sub>N<sub>2</sub>O<sub>3</sub>",
        "Molecular Mass": "218.21",
        "Melting Point": "153-154 °C"
    }
}