{
    "cas_no": "108-77-0",
    "key_name": "Cyanuric chloride",
    "cn_name": "三聚氯氰;2,4,6-三氯-1,3,5-三嗪;三聚氰酰氯;氰脲酰氯;",
    "alternate_name": "1,3,5-Triazine, 2,4,6-trichloro-;<em>s</em>-Triazine, 2,4,6-trichloro-;2,4,6-Trichloro-1,3,5-triazine;Cyanuric trichloride;Trichlorocyanidine;Trichloro-<em>s</em>-triazine;2,4,6-Trichloro-<em>s</em>-triazine;Cyanur chloride;Cyanuryl chloride;Cyanuric chloride;1,3,5-Trichlorotriazine;<em>s</em>-Triazine trichloride;2,4,6-Trichlorotriazine;<em>sym</em>-Trichlorotriazine;2,4,6-Trichloro-<em>sym</em>-triazine;Isocyanuric trichloride;1,3,5-Trichloro-2,4,6-triazine;Zorugeru W 08;Solgel W 08;NSC 3512",
    "duplicated_cas_no": "190086-22-7",
    "SMILES": "ClC=1N=C(Cl)N=C(Cl)N1",
    "meta_data": {
        "InChI": "InChI=1S/C3Cl3N3/c4-1-7-2(5)9-3(6)8-1",
        "InChIKey": null,
        "Canonical SMILES": "ClC=1N=C(Cl)N=C(Cl)N1",
        "Molecular Formula": "C<sub>3</sub>Cl<sub>3</sub>N<sub>3</sub>",
        "Molecular Mass": "184.41",
        "Boiling Point": "192 °C",
        "Melting Point": "146 °C",
        "Density": "1.32 g/cm³"
    }
}