{
    "cas_no": "23031-32-5",
    "key_name": "Terbutaline sulfate",
    "cn_name": null,
    "alternate_name": "1,3-Benzenediol, 5-[2-[(1,1-dimethylethyl)amino]-1-hydroxyethyl]-, sulfate (2:1);Benzyl alcohol, α-[(<em>tert</em>-butylamino)methyl]-3,5-dihydroxy-, sulfate (2:1) (salt);1,3-Benzenediol, 5-[2-[(1,1-dimethylethyl)amino]-1-hydroxyethyl]-, sulfate (2:1) (salt);Terbutaline sulfate;Terbutalin sulfate;2-(<em>tert</em>-Butylamino)-1-(3,5-dihydroxyphenyl)ethanol sulfate (2:1);Bricanyl;Brethine;Brithine;Benzyl alcohol, α-[(<em>tert</em>-butylamino)methyl]-3,5-dihydroxy-, sulfate (2:1) (salt), (±)-;(±)-Terbutaline sulfate;1,3-Benzenediol, 5-[2-[(1,1-dimethylethyl)amino]-1-hydroxyethyl]-, (±)-, sulfate (2:1) (salt);<em>dl</em>-Terbutaline sulfate;Terbasmin;Terbul;Monovent;Butaliret;Brethaire;(±)-Terbutaline hemisulfate;Terbutaline hemisulphate;Terbutaline hemisulfate",
    "duplicated_cas_no": "98225-49-1;32550-09-7",
    "SMILES": "C(CNC(C)(C)C)(O)C1=CC(O)=CC(O)=C1.S(=O)(=O)(O)O",
    "meta_data": {
        "InChI": "InChI=1S/C12H19NO3.H2O4S/c1-12(2,3)13-7-11(16)8-4-9(14)6-10(15)5-8;1-5(2,3)4/h4-6,11,13-16H,7H2,1-3H3;(H2,1,2,3,4)",
        "InChIKey": null,
        "Canonical SMILES": "O=S(=O)(O)O.OC=1C=C(O)C=C(C1)C(O)CNC(C)(C)C",
        "Molecular Formula": "C<sub>12</sub>H<sub>19</sub>NO<sub>3</sub>.<sup>1</sup>/<sub>2</sub>H<sub>2</sub>O<sub>4</sub>S",
        "Molecular Mass": "",
        "Melting Point": "246-248 °C"
    }
}