{
    "cas_no": "41552-82-3",
    "key_name": "N<sup>6</sup>-cyclopentyladenosine",
    "cn_name": "N6-环戊基TYLADENOSINE;",
    "alternate_name": "Adenosine, <em>N</em>-cyclopentyl-;<em>N</em>-Cyclopentyladenosine;CPA;<em>N</em><sup>6</sup>-Cyclopentyladenosine;N<sup>6</sup>-cyclopentyladenosine;UK 80882;(2R,3R,4S,5R)-2-[6-(Cyclopentylamino)-9<em>H</em>-purin-9-yl]-5-(hydroxymethyl)tetrahydrofuran-3,4-diol",
    "duplicated_cas_no": "",
    "SMILES": "O[C@H]1[C@H](N2C=3C(N=C2)=C(NC4CCCC4)N=CN3)O[C@H](CO)[C@H]1O",
    "meta_data": {
        "InChI": "InChI=1S/C15H21N5O4/c21-5-9-11(22)12(23)15(24-9)20-7-18-10-13(16-6-17-14(10)20)19-8-3-1-2-4-8/h6-9,11-12,15,21-23H,1-5H2,(H,16,17,19)/t9-,11-,12-,15-/m1/s1",
        "InChIKey": null,
        "Canonical SMILES": "OCC1OC(N2C=NC=3C(=NC=NC32)NC4CCCC4)C(O)C1O",
        "Molecular Formula": "C<sub>15</sub>H<sub>21</sub>N<sub>5</sub>O<sub>4</sub>",
        "Molecular Mass": "335.36",
        "Melting Point": "78.8 °C"
    }
}