{
    "cas_no": "6949-77-5",
    "key_name": "1-Aminocycloheptanecarboxylic acid",
    "cn_name": null,
    "alternate_name": "Cycloheptanecarboxylic acid, 1-amino-;1-Aminocycloheptanecarboxylic acid;1-Aminocycloheptane-1-carboxylic acid;NSC 22849;1-Azaniumylcycloheptane-1-carboxylate",
    "duplicated_cas_no": "",
    "SMILES": "C(O)(=O)C1(N)CCCCCC1",
    "meta_data": {
        "InChI": "InChI=1S/C8H15NO2/c9-8(7(10)11)5-3-1-2-4-6-8/h1-6,9H2,(H,10,11)",
        "InChIKey": null,
        "Canonical SMILES": "O=C(O)C1(N)CCCCCC1",
        "Molecular Formula": "C<sub>8</sub>H<sub>15</sub>NO<sub>2</sub>",
        "Molecular Mass": "157.21",
        "Melting Point": "320 °C (decomp)"
    }
}