{
    "cas_no": "598-38-9",
    "key_name": "2,2-Dichloroethanol",
    "cn_name": null,
    "alternate_name": "Ethanol, 2,2-dichloro-;2,2-Dichloroethanol;Dichloroethanol;NSC 60513;2,2-Dichloroethan-1-ol",
    "duplicated_cas_no": "",
    "SMILES": "C(CO)(Cl)Cl",
    "meta_data": {
        "InChI": "InChI=1S/C2H4Cl2O/c3-2(4)1-5/h2,5H,1H2",
        "InChIKey": null,
        "Canonical SMILES": "ClC(Cl)CO",
        "Molecular Formula": "C<sub>2</sub>H<sub>4</sub>Cl<sub>2</sub>O",
        "Molecular Mass": "114.96",
        "Boiling Point": "146 °C"
    }
}