{
    "cas_no": "115619-01-7",
    "key_name": "4-(4-Ethyl-1-piperazinyl)benzenamine",
    "cn_name": "4-(4-乙基哌嗪-1-基)苯胺;",
    "alternate_name": "Benzenamine, 4-(4-ethyl-1-piperazinyl)-;4-(4-Ethyl-1-piperazinyl)benzenamine;4-(4-Ethylpiperazin-1-yl)phenylamine;4-(4-Ethylpiperazin-1-yl)aniline;4-(4-Ethylpiperazin-1-yl)benzenamine;4-(4-Ethylpiperazine-1-yl)aniline",
    "duplicated_cas_no": "",
    "SMILES": "C(C)N1CCN(CC1)C2=CC=C(N)C=C2",
    "meta_data": {
        "InChI": "InChI=1S/C12H19N3/c1-2-14-7-9-15(10-8-14)12-5-3-11(13)4-6-12/h3-6H,2,7-10,13H2,1H3",
        "InChIKey": null,
        "Canonical SMILES": "NC1=CC=C(C=C1)N2CCN(CC)CC2",
        "Molecular Formula": "C<sub>12</sub>H<sub>19</sub>N<sub>3</sub>",
        "Molecular Mass": "205.30",
        "Melting Point": "73-75 °C"
    }
}