{
    "cas_no": "17887-41-1",
    "key_name": "[Dichloro(1,1-dimethylethyl)silyl]benzene",
    "cn_name": null,
    "alternate_name": "Benzene, [dichloro(1,1-dimethylethyl)silyl]-;Silane, <em>tert</em>-butyldichlorophenyl-;Silane, dichloro(1,1-dimethylethyl)phenyl-;[Dichloro(1,1-dimethylethyl)silyl]benzene;<em>tert</em>-Butyldichlorophenylsilane;<em>tert</em>-Butylphenyldichlorosilane",
    "duplicated_cas_no": "",
    "SMILES": "[Si](C(C)(C)C)(Cl)(Cl)C1=CC=CC=C1",
    "meta_data": {
        "InChI": "InChI=1S/C10H14Cl2Si/c1-10(2,3)13(11,12)9-7-5-4-6-8-9/h4-8H,1-3H3",
        "InChIKey": null,
        "Canonical SMILES": "Cl[Si](Cl)(C=1C=CC=CC1)C(C)(C)C",
        "Molecular Formula": "C<sub>10</sub>H<sub>14</sub>Cl<sub>2</sub>Si",
        "Molecular Mass": "233.21",
        "Boiling Point": "126 °C @ Press: 25 Torr",
        "Density": "1.106 g/cm³"
    }
}