{
    "cas_no": "3087-39-6",
    "key_name": "<em>tert</em>-Butyl titanate",
    "cn_name": "四叔丁基钛酸酯;",
    "alternate_name": "2-Propanol, 2-methyl-, titanium(4+) salt (4:1);<em>tert</em>-Butyl alcohol, titanium(4+) salt;2-Propanol, 2-methyl-, titanium(4+) salt;<em>tert</em>-Butyl titanate(IV);<em>tert</em>-Butyl titanate(IV) ((C<sub>4</sub>H<sub>9</sub>O)<sub>4</sub>Ti);Tetra-<em>tert</em>-butyl titanate;Tetra-<em>tert</em>-butoxytitanium;Titanium tetrakis(<em>tert</em>-butoxide);Titanium <em>tert</em>-butylate;<em>tert</em>-Butyl orthotitanate;Titanium tetra-<em>tert</em>-butoxide;Titanium(4+) <em>tert</em>-butoxide;Titanium <em>tert</em>-butoxide;Titanium(IV) <em>tert</em>-butoxide;Tetrakis(<em>tert</em>-butanolato)titanium;Titanium tetrakis(<em>t</em>-butoxide);Titanium tetrakis(<em>tert</em>-butanolate);<em>t</em>-Butanol titanium(4+) salt;Tetrakis(<em>tert</em>-butoxy)titanium;Titanium tetrakis(2-methyl-2-propoxide);<em>tert</em>-Butyl titanate;<em>tert</em>-Butoxytitanium (IV);Tetratertbutyl orthotitanate;Orgatix TA 80",
    "duplicated_cas_no": "24997-09-9;78788-28-0;216859-07-3",
    "SMILES": "C(C)(C)(C)O.[Ti]",
    "meta_data": {
        "InChI": "InChI=1S/C4H10O.Ti/c1-4(2,3)5;/h5H,1-3H3;",
        "InChIKey": null,
        "Canonical SMILES": "[Ti].OC(C)(C)C",
        "Molecular Formula": "C<sub>4</sub>H<sub>10</sub>O.<sup>1</sup>/<sub>4</sub>Ti",
        "Molecular Mass": "",
        "Boiling Point": "59-60 °C @ Press: 0.3 Torr"
    }
}