{
    "cas_no": "632-25-7",
    "key_name": "2-Sulfobenzoic acid",
    "cn_name": "2-磺基苯甲酸;",
    "alternate_name": "Benzoic acid, 2-sulfo-;Benzoic acid, <em>o</em>-sulfo-;2-Sulfobenzoic acid;<em>o</em>-Sulfobenzoic acid;<em>o</em>-Carboxybenzenesulfonic acid;2-Carboxybenzenesulfonic acid",
    "duplicated_cas_no": "",
    "SMILES": "S(=O)(=O)(O)C1=C(C(O)=O)C=CC=C1",
    "meta_data": {
        "InChI": "InChI=1S/C7H6O5S/c8-7(9)5-3-1-2-4-6(5)13(10,11)12/h1-4H,(H,8,9)(H,10,11,12)",
        "InChIKey": null,
        "Canonical SMILES": "O=C(O)C=1C=CC=CC1S(=O)(=O)O",
        "Molecular Formula": "C<sub>7</sub>H<sub>6</sub>O<sub>5</sub>S",
        "Molecular Mass": "202.18",
        "Melting Point": "141 °C"
    }
}