{
    "cas_no": "45534-08-5",
    "key_name": "5-(Methylthio)-1<em>H</em>-1,2,4-triazol-3-amine",
    "cn_name": "3-氨基-5-甲硫基-1H-1,2,4-噻二唑;3-氨基-5-甲基硫代-1,2,4-三唑;",
    "alternate_name": "1<em>H</em>-1,2,4-Triazol-3-amine, 5-(methylthio)-;<em>s</em>-Triazole, 3-amino-5-(methylthio)-;5-(Methylthio)-1<em>H</em>-1,2,4-triazol-3-amine;3-Amino-5-(methylthio)-1,2,4-triazole;NSC 178858;[5-(Methylsulfenyl)-1<em>H</em>-[1,2,4]triazol-3-yl]amine;3-Amino-5-methylsulfanyl-1,2,4-triazole;3-Methylthio-5-amino-1,2,4-triazole;5-(Methylthio)-4<em>H</em>-1,2,4-triazol-3-amine;3-Amino-5-methylthio-1<em>H</em>-1,2,4-triazole;3-(Methylthio)-1,2,4-triazol-5-amine;3-Methylsulfanyl-1<em>H</em>-1,2,4-triazol-5-amine",
    "duplicated_cas_no": "53741-65-4",
    "SMILES": "S(C)C=1NC(N)=NN1",
    "meta_data": {
        "InChI": "InChI=1S/C3H6N4S/c1-8-3-5-2(4)6-7-3/h1H3,(H3,4,5,6,7)",
        "InChIKey": null,
        "Canonical SMILES": "N=1N=C(N)NC1SC",
        "Molecular Formula": "C<sub>3</sub>H<sub>6</sub>N<sub>4</sub>S",
        "Molecular Mass": "130.17",
        "Melting Point": "135 °C"
    }
}