{
    "cas_no": "42923-79-5",
    "key_name": "1,2,3,4-Tetrahydro-7-nitroisoquinoline",
    "cn_name": "7-硝基-1,2,3,4-四氢异喹啉;",
    "alternate_name": "Isoquinoline, 1,2,3,4-tetrahydro-7-nitro-;1,2,3,4-Tetrahydro-7-nitroisoquinoline",
    "duplicated_cas_no": "1189805-07-9",
    "SMILES": "N(=O)(=O)C=1C=C2C(=CC1)CCNC2",
    "meta_data": {
        "InChI": "InChI=1S/C9H10N2O2/c12-11(13)9-2-1-7-3-4-10-6-8(7)5-9/h1-2,5,10H,3-4,6H2",
        "InChIKey": null,
        "Canonical SMILES": "O=N(=O)C1=CC=C2C(=C1)CNCC2",
        "Molecular Formula": "C<sub>9</sub>H<sub>10</sub>N<sub>2</sub>O<sub>2</sub>",
        "Molecular Mass": "178.19",
        "Melting Point": "121 °C"
    }
}