{
    "cas_no": "2181-97-7",
    "key_name": "Phosphonium, (2-methoxy-2-oxoethyl)triphenyl-, chloride (1:1)",
    "cn_name": "(甲氧基羰基甲基)三苯基氯化鏻;",
    "alternate_name": "Phosphonium, (2-methoxy-2-oxoethyl)triphenyl-, chloride (1:1);Phosphonium, (carboxymethyl)triphenyl-, chloride, methyl ester;Phosphonium, (2-methoxy-2-oxoethyl)triphenyl-, chloride;(Carboxymethyl)triphenylphosphonium chloride, methyl ester;(Methoxycarbonylmethyl)triphenylphosphonium chloride;(2-Methoxy-2-oxoethyl)triphenylphosphonium chloride;(Methoxycarbonylmethyl)tris(phenyl)phosphonium chloride",
    "duplicated_cas_no": "",
    "SMILES": "[P+](CC(OC)=O)(C1=CC=CC=C1)(C2=CC=CC=C2)C3=CC=CC=C3.[Cl-]",
    "meta_data": {
        "InChI": "InChI=1S/C21H20O2P.ClH/c1-23-21(22)17-24(18-11-5-2-6-12-18,19-13-7-3-8-14-19)20-15-9-4-10-16-20;/h2-16H,17H2,1H3;1H/q+1;/p-1",
        "InChIKey": null,
        "Canonical SMILES": "[Cl-].O=C(OC)C[P+](C=1C=CC=CC1)(C=2C=CC=CC2)C=3C=CC=CC3",
        "Molecular Formula": "C<sub>21</sub>H<sub>20</sub>O<sub>2</sub>P.Cl",
        "Molecular Mass": "",
        "Melting Point": "142 °C"
    }
}