{
    "cas_no": "1477-24-3",
    "key_name": "5-(Pyridin-4-yl)-4<em>H</em>-[1,2,4]triazole-3-thiol",
    "cn_name": null,
    "alternate_name": "3<em>H</em>-1,2,4-Triazole-3-thione, 1,2-dihydro-5-(4-pyridinyl)-;Δ<sup>2</sup>-1,2,4-Triazoline-5-thione, 3-(4-pyridyl)-;<em>s</em>-Triazole-3-thiol, 5-(4-pyridyl)-;1,2-Dihydro-5-(4-pyridinyl)-3<em>H</em>-1,2,4-triazole-3-thione;5-(4-Pyridyl)-1<em>H</em>-1,2,4-triazole-3-thiol;NSC 151062;5-(Pyridin-4-yl)-4<em>H</em>-[1,2,4]triazole-3-thiol;3-Mercapto-5-(4-pyridyl)-1,2,4-triazole;3-(Pyridin-4-yl)-1<em>H</em>-1,2,4-triazole-5(4<em>H</em>)-thione;5-(4-Pyridinyl)-1<em>H</em>-1,2,4-triazole-3-thiol",
    "duplicated_cas_no": "14910-06-6;32362-86-0",
    "SMILES": "S=C1NC(=NN1)C=2C=CN=CC2",
    "meta_data": {
        "InChI": "InChI=1S/C7H6N4S/c12-7-9-6(10-11-7)5-1-3-8-4-2-5/h1-4H,(H2,9,10,11,12)",
        "InChIKey": null,
        "Canonical SMILES": "S=C1NN=C(N1)C=2C=CN=CC2",
        "Molecular Formula": "C<sub>7</sub>H<sub>6</sub>N<sub>4</sub>S",
        "Molecular Mass": "178.21",
        "Melting Point": "321-322 °C (decomp)"
    }
}