{
    "cas_no": "13035-61-5",
    "key_name": "β-<span class=\"text-smallcaps\">D</span>-Ribofuranose, 1,2,3,5-tetraacetate",
    "cn_name": "四乙酰核糖;",
    "alternate_name": "β-<span class=\"text-smallcaps\">D</span>-Ribofuranose, 1,2,3,5-tetraacetate;Ribofuranose, tetraacetate, β-<span class=\"text-smallcaps\">D</span>-;β-<span class=\"text-smallcaps\">D</span>-Ribofuranose, tetraacetate;1,2,3,5-Tetra-<em>O</em>-acetyl-β-<span class=\"text-smallcaps\">D</span>-ribofuranose;Tetra-<em>O</em>-acetyl-β-<span class=\"text-smallcaps\">D</span>-ribofuranose;Tetraacetyl-β-<span class=\"text-smallcaps\">D</span>-ribofuranose;1,2,3,5-Tetra-<em>O</em>-acetyl-β-<span class=\"text-smallcaps\">D</span>-ribose;1,2,3,5-Tetraacetyl-β-<span class=\"text-smallcaps\">D</span>-ribofuranose;1β-<span class=\"text-smallcaps\">D</span>-Tetraacetylribose;NSC 18738;β-Ribofuranose-1,2,3,5-tetraacetate;1′,2′,3′,5′-Tetra-<em>O</em>-acetyl-β-<span class=\"text-smallcaps\">D</span>-ribofuranose",
    "duplicated_cas_no": "82264-12-8",
    "SMILES": "O(C(C)=O)[C@H]1[C@@H](OC(C)=O)[C@H](OC(C)=O)O[C@@H]1COC(C)=O",
    "meta_data": {
        "InChI": "InChI=1S/C13H18O9/c1-6(14)18-5-10-11(19-7(2)15)12(20-8(3)16)13(22-10)21-9(4)17/h10-13H,5H2,1-4H3/t10-,11-,12-,13-/m1/s1",
        "InChIKey": null,
        "Canonical SMILES": "O=C(OCC1OC(OC(=O)C)C(OC(=O)C)C1OC(=O)C)C",
        "Molecular Formula": "C<sub>13</sub>H<sub>18</sub>O<sub>9</sub>",
        "Molecular Mass": "318.28",
        "Boiling Point": "~0.105 °C (approx) @ Press: 1 x 10<sup>-3</sup> Torr",
        "Melting Point": "82 °C"
    }
}