{
    "cas_no": "80194-70-3",
    "key_name": "3-Chloro-5-(trifluoromethyl)-2-pyridinecarbonitrile",
    "cn_name": "3-氯-2-氰基-5-三氟甲基吡啶;",
    "alternate_name": "2-Pyridinecarbonitrile, 3-chloro-5-(trifluoromethyl)-;3-Chloro-5-(trifluoromethyl)-2-pyridinecarbonitrile;3-Chloro-2-cyano-5-trifluoromethylpyridine;2-Cyano-3-chloro-5-trifluoromethylpyridine;3-Chloro-5-(trifluoromethyl)picolinonitrile",
    "duplicated_cas_no": "",
    "SMILES": "C(F)(F)(F)C=1C=C(Cl)C(C#N)=NC1",
    "meta_data": {
        "InChI": "InChI=1S/C7H2ClF3N2/c8-5-1-4(7(9,10)11)3-13-6(5)2-12/h1,3H",
        "InChIKey": null,
        "Canonical SMILES": "N#CC1=NC=C(C=C1Cl)C(F)(F)F",
        "Molecular Formula": "C<sub>7</sub>H<sub>2</sub>ClF<sub>3</sub>N<sub>2</sub>",
        "Molecular Mass": "206.55",
        "Boiling Point": "108-110 °C @ Press: 30 Torr"
    }
}