{
    "cas_no": "154-17-6",
    "key_name": "2-Deoxyglucose",
    "cn_name": "D-2-脱氧葡萄糖;2-去氧-D-葡萄糖;",
    "alternate_name": "<span class=\"text-smallcaps\">D</span>-<em>arabino</em>-Hexose, 2-deoxy-;2-Deoxy-<span class=\"text-smallcaps\">D</span>-<em>arabino</em>-hexose;<span class=\"text-smallcaps\">D</span>-Glucose, 2-deoxy-;2-Deoxyglucose;Ba 2758;2-Deoxy-<span class=\"text-smallcaps\">D</span>-glucose;2-Desoxy-<span class=\"text-smallcaps\">D</span>-glucose;2-Deoxy-<span class=\"text-smallcaps\">D</span>-mannose;NSC 15193;2 DG",
    "duplicated_cas_no": "2092-72-0;3724-71-8;4825-30-3;7640-18-8",
    "SMILES": "[C@H]([C@@H](CC=O)O)([C@@H](CO)O)O",
    "meta_data": {
        "InChI": "InChI=1S/C6H12O5/c7-2-1-4(9)6(11)5(10)3-8/h2,4-6,8-11H,1,3H2/t4-,5-,6+/m1/s1",
        "InChIKey": null,
        "Canonical SMILES": "O=CCC(O)C(O)C(O)CO",
        "Molecular Formula": "C<sub>6</sub>H<sub>12</sub>O<sub>5</sub>",
        "Molecular Mass": "164.16",
        "Melting Point": "146.5 °C"
    }
}