{
    "cas_no": "88-32-4",
    "key_name": "2-<em>tert</em>-Butyl-4-hydroxyanisole",
    "cn_name": "2-叔丁基-4-羟基茴香醚;",
    "alternate_name": "Phenol, 3-(1,1-dimethylethyl)-4-methoxy-;Phenol, 3-<em>tert</em>-butyl-4-methoxy-;3-(1,1-Dimethylethyl)-4-methoxyphenol;2-<em>tert</em>-Butyl-4-hydroxyanisole;3-<em>tert</em>-Butyl-4-methoxyphenol;<em>tert</em>-Butyl-3-methoxy-4-phenol;2-<em>tert</em>-Butyl-<em>p</em>-hydroxyanisole;4-Methoxy-3-<em>tert</em>-butylphenol;2-(1,1-Dimethylethyl)-4-hydroxyanisole;4-Methoxy-3-(1,1-dimethylethyl)phenol",
    "duplicated_cas_no": "344312-06-7",
    "SMILES": "C(C)(C)(C)C1=C(OC)C=CC(O)=C1",
    "meta_data": {
        "InChI": "InChI=1S/C11H16O2/c1-11(2,3)9-7-8(12)5-6-10(9)13-4/h5-7,12H,1-4H3",
        "InChIKey": null,
        "Canonical SMILES": "OC1=CC=C(OC)C(=C1)C(C)(C)C",
        "Molecular Formula": "C<sub>11</sub>H<sub>16</sub>O<sub>2</sub>",
        "Molecular Mass": "180.24",
        "Boiling Point": "142 °C @ Press: 14 Torr",
        "Melting Point": "62.3 °C"
    }
}