{
    "cas_no": "38985-70-5",
    "key_name": "4-(4-Nitrophenyl)thiosemicarbazide",
    "cn_name": null,
    "alternate_name": "Hydrazinecarbothioamide, <em>N</em>-(4-nitrophenyl)-;Semicarbazide, 4-(<em>p</em>-nitrophenyl)-3-thio-;<em>N</em>-(4-Nitrophenyl)hydrazinecarbothioamide;4-(4-Nitrophenyl)thiosemicarbazide;4-(4-Nitrophenyl)-3-thiosemicarbazide;1-Amino-3-(4-nitrophenyl)thiourea",
    "duplicated_cas_no": "",
    "SMILES": "N(C(NN)=S)C1=CC=C(N(=O)=O)C=C1",
    "meta_data": {
        "InChI": "InChI=1S/C7H8N4O2S/c8-10-7(14)9-5-1-3-6(4-2-5)11(12)13/h1-4H,8H2,(H2,9,10,14)",
        "InChIKey": null,
        "Canonical SMILES": "O=N(=O)C1=CC=C(C=C1)NC(=S)NN",
        "Molecular Formula": "C<sub>7</sub>H<sub>8</sub>N<sub>4</sub>O<sub>2</sub>S",
        "Molecular Mass": "212.23",
        "Melting Point": "190 °C"
    }
}