{
    "cas_no": "3522-94-9",
    "key_name": "2,2,5-Trimethylhexane",
    "cn_name": "2,2,5-三甲基己烷;2,2,5-三甲基己烷;",
    "alternate_name": "Hexane, 2,2,5-trimethyl-;2,2,5-Trimethylhexane;NSC 65657",
    "duplicated_cas_no": "",
    "SMILES": "C(C(C)(C)C)CC(C)C",
    "meta_data": {
        "InChI": "InChI=1S/C9H20/c1-8(2)6-7-9(3,4)5/h8H,6-7H2,1-5H3",
        "InChIKey": null,
        "Canonical SMILES": "CC(C)CCC(C)(C)C",
        "Molecular Formula": "C<sub>9</sub>H<sub>20</sub>",
        "Molecular Mass": "128.26",
        "Boiling Point": "124 °C",
        "Melting Point": "-105.7 °C",
        "Density": "0.7082 g/cm³ @ Temp: 20 °C"
    }
}