{
    "cas_no": "22244-22-0",
    "key_name": "Ethyl 3,4-dihydro-2<em>H</em>-1,4-benzoxazine-2-carboxylate",
    "cn_name": null,
    "alternate_name": "2<em>H</em>-1,4-Benzoxazine-2-carboxylic acid, 3,4-dihydro-, ethyl ester;Ethyl 3,4-dihydro-2<em>H</em>-1,4-benzoxazine-2-carboxylate;3,4-Dihydro-2<em>H</em>-1,4-benzoxazine-2-carboxylic acid ethyl ester;Ethyl 3,4-dihydro-2<em>H</em>-benzo[<em>b</em>][1,4]oxazine-2-carboxylate",
    "duplicated_cas_no": "",
    "SMILES": "C(OCC)(=O)C1OC=2C(NC1)=CC=CC2",
    "meta_data": {
        "InChI": "InChI=1S/C11H13NO3/c1-2-14-11(13)10-7-12-8-5-3-4-6-9(8)15-10/h3-6,10,12H,2,7H2,1H3",
        "InChIKey": null,
        "Canonical SMILES": "O=C(OCC)C1OC=2C=CC=CC2NC1",
        "Molecular Formula": "C<sub>11</sub>H<sub>13</sub>NO<sub>3</sub>",
        "Molecular Mass": "207.23",
        "Boiling Point": "131-133 °C @ Press: 760 Torr"
    }
}