{
    "cas_no": "348-67-4",
    "key_name": "<span class=\"text-smallcaps\">D</span>-Methionine",
    "cn_name": "D-蛋氨酸;D-2-氨基-4-甲硫基丁酸;",
    "alternate_name": "<span class=\"text-smallcaps\">D</span>-Methionine;Methionine, <span class=\"text-smallcaps\">D</span>-;(<em>R</em>)-Methionine;NSC 45689;<em>S</em>-Methyl-<span class=\"text-smallcaps\">D</span>-homocysteine;MRX 1024;(R)-2-Amino-4-(methylthio)butanoic acid;(2R)-2-Amino-4-methylsulfanylbutanoic acid",
    "duplicated_cas_no": "",
    "SMILES": "[C@H](C(O)=O)(CCSC)N",
    "meta_data": {
        "InChI": "InChI=1S/C5H11NO2S/c1-9-3-2-4(6)5(7)8/h4H,2-3,6H2,1H3,(H,7,8)/t4-/m1/s1",
        "InChIKey": null,
        "Canonical SMILES": "O=C(O)C(N)CCSC",
        "Molecular Formula": "C<sub>5</sub>H<sub>11</sub>NO<sub>2</sub>S",
        "Molecular Mass": "149.21",
        "Melting Point": "275-277 °C (decomp)"
    }
}