{
    "cas_no": "14300-33-5",
    "key_name": "Dicyclopropylmethanol",
    "cn_name": null,
    "alternate_name": "Cyclopropanemethanol, α-cyclopropyl-;Methanol, dicyclopropyl-;α-Cyclopropylcyclopropanemethanol;Dicyclopropylmethanol;Dicyclopropyl carbinol;Dicyclopropylmethyl alcohol;Dicyclopropylmethan-1-ol",
    "duplicated_cas_no": "",
    "SMILES": "C(O)(C1CC1)C2CC2",
    "meta_data": {
        "InChI": "InChI=1S/C7H12O/c8-7(5-1-2-5)6-3-4-6/h5-8H,1-4H2",
        "InChIKey": null,
        "Canonical SMILES": "OC(C1CC1)C2CC2",
        "Molecular Formula": "C<sub>7</sub>H<sub>12</sub>O",
        "Molecular Mass": "112.17",
        "Boiling Point": "48 °C @ Press: 3 Torr"
    }
}