{
    "cas_no": "4221-99-2",
    "key_name": "(+)-2-Butanol",
    "cn_name": "(S)-(+)-2-丁醇;",
    "alternate_name": "2-Butanol, (2<em>S</em>)-;<em>sec</em>-Butyl alcohol, (<em>S</em>)-(+)-;2-Butanol, (<em>S</em>)-;(<em>S</em>)-(+)-2-Butanol;(+)-2-Butanol;(<em>S</em>)-2-Butanol;<span class=\"text-smallcaps\">L</span>-2-Butanol;<em>d</em>-Butanol;(<em>S</em>)-<em>sec</em>-Butanol;(<em>S</em>)-<em>sec</em>-Butyl alcohol;(2<em>S</em>)-2-Butanol;(<em>S</em>)-(+)-<em>sec</em>-Butanol;(1<em>S</em>)-1-Methylpropan-1-ol;(<em>S</em>)-(-)-2-Butanol",
    "duplicated_cas_no": "",
    "SMILES": "[C@@H](CC)(C)O",
    "meta_data": {
        "InChI": "InChI=1S/C4H10O/c1-3-4(2)5/h4-5H,3H2,1-2H3/t4-/m0/s1",
        "InChIKey": null,
        "Canonical SMILES": "OC(C)CC",
        "Molecular Formula": "C<sub>4</sub>H<sub>10</sub>O",
        "Molecular Mass": "74.12",
        "Boiling Point": "97.5-98 °C @ Press: 745 Torr",
        "Density": "0.804 g/cm³"
    }
}