{
    "cas_no": "51163-29-2",
    "key_name": "2,4-Dimethylphenyl isocyanate",
    "cn_name": null,
    "alternate_name": "Benzene, 1-isocyanato-2,4-dimethyl-;Isocyanic acid, 2,4-xylyl ester;1-Isocyanato-2,4-dimethylbenzene;2,4-Dimethylphenyl isocyanate",
    "duplicated_cas_no": "",
    "SMILES": "N(=C=O)C1=C(C)C=C(C)C=C1",
    "meta_data": {
        "InChI": "InChI=1S/C9H9NO/c1-7-3-4-9(10-6-11)8(2)5-7/h3-5H,1-2H3",
        "InChIKey": null,
        "Canonical SMILES": "O=C=NC1=CC=C(C=C1C)C",
        "Molecular Formula": "C<sub>9</sub>H<sub>9</sub>NO",
        "Molecular Mass": "147.17",
        "Boiling Point": "211.2-212.0 °C",
        "Melting Point": "53-55 °C"
    }
}