{
    "cas_no": "623-73-4",
    "key_name": "Ethyl diazoacetate",
    "cn_name": "重氮乙酸乙酯;",
    "alternate_name": "Acetic acid, 2-diazo-, ethyl ester;Acetic acid, diazo-, ethyl ester;Diazoacetic acid ethyl ester;Ethyl diazoacetate;Ethoxycarbonyldiazomethane;Ethyl 2-diazoacetate;Diazoacetic ester;DAAE;Ethyl 2-diazoethanoate;NSC 79147;2-Diazo-1-ethoxyethanone;Ethyl α-diazoacetate;Ethanediazonium, 2-ethoxy-2-oxo-, inner salt;Acetic acid, 2-hydrazinylidene-, 1,1-dimethylethyl ester",
    "duplicated_cas_no": "623-74-5;14088-56-3;25386-24-7;27332-36-1;41810-60-0;622872-57-5;1007309-24-1;1968545-71-2;2658580-27-7;2727165-81-1;2759161-40-3;2780309-24-0;2935408-52-7",
    "SMILES": "C(C=[N+]=[N-])(OCC)=O",
    "meta_data": {
        "InChI": "InChI=1S/C4H6N2O2/c1-2-8-4(7)3-6-5/h3H,2H2,1H3",
        "InChIKey": null,
        "Canonical SMILES": "[N-]=[N+]=CC(=O)OCC",
        "Molecular Formula": "C<sub>4</sub>H<sub>6</sub>N<sub>2</sub>O<sub>2</sub>",
        "Molecular Mass": "",
        "Boiling Point": "145 °C",
        "Melting Point": "-22 °C"
    }
}