{
    "cas_no": "4072-67-7",
    "key_name": "1,1′-[1,1′-Biphenyl]-4,4′-diylbis[2-bromoethanone]",
    "cn_name": "4,4\"-二(2-溴乙酰基)联苯;",
    "alternate_name": "Ethanone, 1,1′-[1,1′-biphenyl]-4,4′-diylbis[2-bromo-;4′,4′′′-Biacetophenone, 2,2′′-dibromo-;1,1′-[1,1′-Biphenyl]-4,4′-diylbis[2-bromoethanone];<em>p</em>,<em>p</em>′-Bis(bromoacetyl)biphenyl;α,α′-Dibromo-4,4′-biacetophenone;4,4′-Bis(bromoacetyl)biphenyl;NSC 619613;4,4′-Bis(2-bromoacetyl)biphenyl;1,1′-[1,1′-Biphenyl]-4,4′-diylbis[2-bromoethan-1-one];2-Bromo-1-[4-[4-(2-bromoacetyl)phenyl]phenyl]ethanone",
    "duplicated_cas_no": "",
    "SMILES": "C(CBr)(=O)C1=CC=C(C=C1)C2=CC=C(C(CBr)=O)C=C2",
    "meta_data": {
        "InChI": "InChI=1S/C16H12Br2O2/c17-9-15(19)13-5-1-11(2-6-13)12-3-7-14(8-4-12)16(20)10-18/h1-8H,9-10H2",
        "InChIKey": null,
        "Canonical SMILES": "O=C(C1=CC=C(C=C1)C=2C=CC(=CC2)C(=O)CBr)CBr",
        "Molecular Formula": "C<sub>16</sub>H<sub>12</sub>Br<sub>2</sub>O<sub>2</sub>",
        "Molecular Mass": "396.07",
        "Melting Point": "226-227 °C"
    }
}