{
    "cas_no": "6164-80-3",
    "key_name": "Pyridazine, hydrochloride (1:1)",
    "cn_name": "盐酸哒嗪;",
    "alternate_name": "Pyridazine, hydrochloride (1:1);Pyridazine, monohydrochloride",
    "duplicated_cas_no": "",
    "SMILES": "C=1C=CN=NC1.Cl",
    "meta_data": {
        "InChI": "InChI=1S/C4H4N2.ClH/c1-2-4-6-5-3-1;/h1-4H;1H",
        "InChIKey": null,
        "Canonical SMILES": "Cl.N=1N=CC=CC1",
        "Molecular Formula": "C<sub>4</sub>H<sub>4</sub>N<sub>2</sub>.ClH",
        "Molecular Mass": "",
        "Melting Point": "161-163 °C"
    }
}