{
    "cas_no": "63659-18-7",
    "key_name": "Betaxolol",
    "cn_name": "倍他洛尔;1-[4-[2-(环丙甲氧基)乙基]苯氧基]-3-(异丙基氨基)丙-2-醇;",
    "alternate_name": "2-Propanol, 1-[4-[2-(cyclopropylmethoxy)ethyl]phenoxy]-3-[(1-methylethyl)amino]-;1-[4-[2-(Cyclopropylmethoxy)ethyl]phenoxy]-3-[(1-methylethyl)amino]-2-propanol;Betaxolol;1-Isopropylamino-3-[4-(2-cyclopropylmethoxy-ethyl)phenoxy]-2-propanol;Betoptic S;(±)-Betaxolol;InOrpha;1-[4-[2-(Cyclopropylmethoxy)ethyl]phenoxy]-3-(propan-2-ylamino)propan-2-ol;MeSH ID: D015784",
    "duplicated_cas_no": "87896-30-8",
    "SMILES": "O(CC(CNC(C)C)O)C1=CC=C(CCOCC2CC2)C=C1",
    "meta_data": {
        "InChI": "InChI=1S/C18H29NO3/c1-14(2)19-11-17(20)13-22-18-7-5-15(6-8-18)9-10-21-12-16-3-4-16/h5-8,14,16-17,19-20H,3-4,9-13H2,1-2H3",
        "InChIKey": null,
        "Canonical SMILES": "OC(COC1=CC=C(C=C1)CCOCC2CC2)CNC(C)C",
        "Molecular Formula": "C<sub>18</sub>H<sub>29</sub>NO<sub>3</sub>",
        "Molecular Mass": "307.43",
        "Melting Point": "70-72 °C"
    }
}