{
    "cas_no": "3179-90-6",
    "key_name": "Disperse Blue 7",
    "cn_name": "分散蓝7;分散蓝7DisperseBlue7;",
    "alternate_name": "9,10-Anthracenedione, 1,4-dihydroxy-5,8-bis[(2-hydroxyethyl)amino]-;Anthraquinone, 1,4-dihydroxy-5,8-bis[(2-hydroxyethyl)amino]-;Celliton Fast Blue Green B;1,4-Dihydroxy-5,8-bis[(2-hydroxyethyl)amino]-9,10-anthracenedione;C.I. 62500;Acetate Turquoise Blue B;Acetoquinone Light Green Blue JL;Amacel Green Blue B;Amacel Green Blue G;Artisil Blue Green GP;Celanthrene Fast Blue 2G;Celliton Fast Blue Green BA-CF;Celutate Green Blue BGH;Cibacet Blue Green CB;Cibacet Blue Green C;Cibacet Turquoise Blue G;Cilla Fast Blue Green B;Cibacet Turquoise Blue 2G;Cibacet Turquoise Blue 4G;C.I. Solvent Blue 69;C.I. Disperse Blue 7;Diacelliton Fast Blue Green B;Duranol Blue Green B;Duranol Printing Blue Green B;Esteroquinone Light Blue 4JL;Fenacet Fast Turquoise B;Interchem Acetate Green Blue ALF;Interchem Hisperse Green Blue ALFH;Miketon Fast Turquoise Blue G;Nacelan Blue CBG;Nyloquinone Blue 4J;Palanil Blue 7G;Perliton Blue Green B;Samaron Blue 5G;Seriplas Glue Green BW;Serisol Fast Blue Green B;Setacyl Blue 6GN;Setacyl Blue Green P-BS;Setacyl Turquoise Blue G;Setacyl Turquoise Blue 2G;Setacyl Turquoise Blue 4G;Setacyl Turquoise Blue GD;Supracet Blue Green B;Supracet Fast Green Blue B;Terasil Blue Green CB;Terasil Turquoise Blue G;Disperse Blue 7;Disperse Blue Green;1,4-Bis(β-hydroxyethylamino)-5,8-dihydroxyanthraquinone;5,8-Dihydroxy-1,4-bis[(2-hydroxyethyl)amino]anthraquinone;Celliton Blue Green B;Dispersive blue-green;1,4-Bishydroxyethylamino-5,8-dihydroxy-9,10-anthraquinone;1,4-Bis[(2-hydroxyethyl)amino]-5,8-dihydroxyanthraquinone;1,4-Dihydroxy-5,8-bis[(2-hydroxyethyl)amino]anthraquinone;1,4-Diethanolamino-5,8-dihydroxyanthraquinone;Serisol Fast Blue Green BW;Dispersol Blue 7G;NSC 227207",
    "duplicated_cas_no": "",
    "SMILES": "N(CCO)C1=C2C(=C(NCCO)C=C1)C(=O)C=3C(C2=O)=C(O)C=CC3O",
    "meta_data": {
        "InChI": "InChI=1S/C18H18N2O6/c21-7-5-19-9-1-2-10(20-6-8-22)14-13(9)17(25)15-11(23)3-4-12(24)16(15)18(14)26/h1-4,19-24H,5-8H2",
        "InChIKey": null,
        "Canonical SMILES": "O=C1C=2C(O)=CC=C(O)C2C(=O)C=3C(=CC=C(NCCO)C13)NCCO",
        "Molecular Formula": "C<sub>18</sub>H<sub>18</sub>N<sub>2</sub>O<sub>6</sub>",
        "Molecular Mass": "358.35",
        "Melting Point": "215-220 °C (sublm)"
    }
}