{
    "cas_no": "1719-58-0",
    "key_name": "Chloroethenyldimethylsilane",
    "cn_name": "二甲基乙烯基氯硅烷;",
    "alternate_name": "Silane, chloroethenyldimethyl-;Silane, chlorodimethylvinyl-;Chloroethenyldimethylsilane;Dimethylvinylchlorosilane;Chlorodimethylvinylsilane;Vinyldimethylchlorosilane;Vinylchlorodimethylsilane;Dimethylvinylsilyl chloride;Dimethylchlorovinylsilane;Vinyldimethylsilyl chloride;OFS 1719",
    "duplicated_cas_no": "",
    "SMILES": "[Si](C=C)(C)(C)Cl",
    "meta_data": {
        "InChI": "InChI=1S/C4H9ClSi/c1-4-6(2,3)5/h4H,1H2,2-3H3",
        "InChIKey": null,
        "Canonical SMILES": "Cl[Si](C=C)(C)C",
        "Molecular Formula": "C<sub>4</sub>H<sub>9</sub>ClSi",
        "Molecular Mass": "120.65",
        "Boiling Point": "83.5 °C",
        "Density": "0.884 g/cm³"
    }
}