{
    "cas_no": "75530-68-6",
    "key_name": "Nilvadipine",
    "cn_name": "尼伐地平;3-甲氧羰基-6-甲基-4-(3-硝基苯基)-2-氰基-1,4-二氢吡啶-5-羧酸异丙酯;",
    "alternate_name": "3,5-Pyridinedicarboxylic acid, 2-cyano-1,4-dihydro-6-methyl-4-(3-nitrophenyl)-, 3-methyl 5-(1-methylethyl) ester;FR 34235;FK 235;Nilvadipine;(±)-Nilvadipine;<em>dl</em>-Nilvadipine;Nivadil;SKF 102362;Escor;Nivaldipine;CL 287389;Nivadip;3-<em>O</em>-Methyl 5-<em>O</em>-propan-2-yl 2-cyano-6-methyl-4-(3-nitrophenyl)-1,4-dihydropyridine-3,5-dicarboxylate",
    "duplicated_cas_no": "111102-35-3",
    "SMILES": "C(OC)(=O)C=1C(C(C(OC(C)C)=O)=C(C)NC1C#N)C2=CC(N(=O)=O)=CC=C2",
    "meta_data": {
        "InChI": "InChI=1S/C19H19N3O6/c1-10(2)28-19(24)15-11(3)21-14(9-20)17(18(23)27-4)16(15)12-6-5-7-13(8-12)22(25)26/h5-8,10,16,21H,1-4H3",
        "InChIKey": null,
        "Canonical SMILES": "N#CC=1NC(=C(C(=O)OC(C)C)C(C=2C=CC=C(C2)N(=O)=O)C1C(=O)OC)C",
        "Molecular Formula": "C<sub>19</sub>H<sub>19</sub>N<sub>3</sub>O<sub>6</sub>",
        "Molecular Mass": "385.37",
        "Melting Point": "148-150 °C"
    }
}