{
    "cas_no": "1307-96-6",
    "key_name": "Cobalt oxide (CoO)",
    "cn_name": "氧化钴;",
    "alternate_name": "Cobalt oxide (CoO);C.I. 77322;Cobalt Black;Cobalt monoxide;Cobaltous oxide;C.I. Pigment Black 13;Zaffre;Cobalt oxide;Cobalt monooxide;Cobalt(2+) oxide;Cobalt(II) oxide;Cobaltous oxide (CoO);FCO 178;SP 301",
    "duplicated_cas_no": "185461-93-2;186373-01-3",
    "SMILES": "[Co]=O",
    "meta_data": {
        "InChI": "InChI=1S/Co.O",
        "InChIKey": null,
        "Canonical SMILES": "O=[Co]",
        "Molecular Formula": "CoO",
        "Molecular Mass": "",
        "Melting Point": "~1935 °C (approx)",
        "Density": "6.45 g/cm³"
    }
}