{
    "cas_no": "5396-24-7",
    "key_name": "Propyl chloroacetate",
    "cn_name": "氯乙酸正丙酯;",
    "alternate_name": "Acetic acid, 2-chloro-, propyl ester;Acetic acid, chloro-, propyl ester;Propyl chloroacetate;NSC 1205;Chloroacetic acid propyl ester",
    "duplicated_cas_no": "",
    "SMILES": "C(OCCC)(CCl)=O",
    "meta_data": {
        "InChI": "InChI=1S/C5H9ClO2/c1-2-3-8-5(7)4-6/h2-4H2,1H3",
        "InChIKey": null,
        "Canonical SMILES": "O=C(OCCC)CCl",
        "Molecular Formula": "C<sub>5</sub>H<sub>9</sub>ClO<sub>2</sub>",
        "Molecular Mass": "136.58",
        "Boiling Point": "161 °C"
    }
}