{
    "cas_no": "314-50-1",
    "key_name": "Orotidine",
    "cn_name": "乳清苷;乳清苷;",
    "alternate_name": "4-Pyrimidinecarboxylic acid, 1,2,3,6-tetrahydro-2,6-dioxo-3-β-<span class=\"text-smallcaps\">D</span>-ribofuranosyl-;Orotidine;1,2,3,6-Tetrahydro-2,6-dioxo-3-β-<span class=\"text-smallcaps\">D</span>-ribofuranosyl-4-pyrimidinecarboxylic acid;Orotic acid riboside;6-Carboxyuridine",
    "duplicated_cas_no": "",
    "SMILES": "C(O)(=O)C=1N(C(=O)NC(=O)C1)[C@@H]2O[C@H](CO)[C@@H](O)[C@H]2O",
    "meta_data": {
        "InChI": "InChI=1S/C10H12N2O8/c13-2-4-6(15)7(16)8(20-4)12-3(9(17)18)1-5(14)11-10(12)19/h1,4,6-8,13,15-16H,2H2,(H,17,18)(H,11,14,19)/t4-,6-,7-,8-/m1/s1",
        "InChIKey": null,
        "Canonical SMILES": "O=C(O)C1=CC(=O)NC(=O)N1C2OC(CO)C(O)C2O",
        "Molecular Formula": "C<sub>10</sub>H<sub>12</sub>N<sub>2</sub>O<sub>8</sub>",
        "Molecular Mass": "288.21",
        "Melting Point": "&gt;400 °C"
    }
}