{
    "cas_no": "312-73-2",
    "key_name": "2-(Trifluoromethyl)-1<em>H</em>-benzimidazole",
    "cn_name": "2-(三氟甲基)苯并咪唑;",
    "alternate_name": "1<em>H</em>-Benzimidazole, 2-(trifluoromethyl)-;Benzimidazole, 2-(trifluoromethyl)-;2-(Trifluoromethyl)-1<em>H</em>-benzimidazole;2-(Trifluoromethyl)benzimidazole;NSC 512765;NSC 97013;2-(Trifluoromethyl)-1<em>H</em>-1,3-benzodiazole;2-(Trifluoromethyl)-1<em>H</em>-benzo[<em>d</em>]imidazole;2-Trifluoromethyl-1<em>H</em>-benzoimidazole",
    "duplicated_cas_no": "",
    "SMILES": "C(F)(F)(F)C=1NC=2C(N1)=CC=CC2",
    "meta_data": {
        "InChI": "InChI=1S/C8H5F3N2/c9-8(10,11)7-12-5-3-1-2-4-6(5)13-7/h1-4H,(H,12,13)",
        "InChIKey": null,
        "Canonical SMILES": "FC(F)(F)C1=NC=2C=CC=CC2N1",
        "Molecular Formula": "C<sub>8</sub>H<sub>5</sub>F<sub>3</sub>N<sub>2</sub>",
        "Molecular Mass": "186.13",
        "Melting Point": "209.5 °C"
    }
}