{
    "cas_no": "52918-63-5",
    "key_name": "Deltamethrin",
    "cn_name": "溴氰菊酯;(S)-alpha-氰基-3-苯氧苄基-(+)-顺-3-(2,2,二溴乙烯基)-2,2-二甲基环丙烷羧酸酯;",
    "alternate_name": "Cyclopropanecarboxylic acid, 3-(2,2-dibromoethenyl)-2,2-dimethyl-, (<em>S</em>)-cyano(3-phenoxyphenyl)methyl ester, (1<em>R</em>,3<em>R</em>)-;Cyclopropanecarboxylic acid, 3-(2,2-dibromoethenyl)-2,2-dimethyl-, cyano(3-phenoxyphenyl)methyl ester, [1<em>R</em>-[1α(<em>S</em>*),3α]]-;NRDC 161;Decamethrin;RU 22974;FMC 45498;Decis;Decamethrine;K-Othrin;Deltamethrin;Cislin;K-Othrine;Butox;RUP 987;Decis 1.5ULV;Decis 2.5ULV;Decis 0.5ULV;Deltagran;Crackdown;Glossinex 200;K-Obiol;Phagase 1;IPO 8831;New Musigie;Suspend;DeltaGard;Zorcis;Deltadust;Decistab;Decistab TB;Ezeetab;Decis Extra;Ultratec;Timbertreat DM 5;Battalion;Decis Super;Delta Gold;Alpha Max;K-Obiol 2P;Deltacid;Decis flow 2.5;(<em>S</em>)-Cyano(3-phenoxyphenyl)methyl (1<em>R</em>,3<em>R</em>)-3-(2,2-dibromoethenyl)-2,2-dimethylcyclopropanecarboxylate;AquaK'othrine;Scalibor;Pendelta;K-O Tab;Vectocid;Decis Flow;K-Othrine Flow 25;Decis 2.5EC;Spritex antiwasp powder;Decis Expert;Delta Gold (insecticide);Decis Jet;K-Othrine Polyzone;Lamtox;Harris Scorpion Killer;Spritex",
    "duplicated_cas_no": "55700-96-4;62229-77-0",
    "SMILES": "C(O[C@H](C#N)C1=CC(OC2=CC=CC=C2)=CC=C1)(=O)[C@@H]3[C@H](C=C(Br)Br)C3(C)C",
    "meta_data": {
        "InChI": "InChI=1S/C22H19Br2NO3/c1-22(2)17(12-19(23)24)20(22)21(26)28-18(13-25)14-7-6-10-16(11-14)27-15-8-4-3-5-9-15/h3-12,17-18,20H,1-2H3/t17-,18+,20-/m0/s1",
        "InChIKey": null,
        "Canonical SMILES": "N#CC(OC(=O)C1C(C=C(Br)Br)C1(C)C)C=2C=CC=C(OC=3C=CC=CC3)C2",
        "Molecular Formula": "C<sub>22</sub>H<sub>19</sub>Br<sub>2</sub>NO<sub>3</sub>",
        "Molecular Mass": "505.20",
        "Melting Point": "101-102 °C",
        "Density": "0.5 g/cm³"
    }
}