{
    "cas_no": "16156-59-5",
    "key_name": "Phenyl methanesulfonate",
    "cn_name": "甲磺酸苯酯;",
    "alternate_name": "Methanesulfonic acid, phenyl ester;Phenyl methanesulfonate;Phenyl mesylate;NSC 243664;Phenoxy methyl sulfone",
    "duplicated_cas_no": "",
    "SMILES": "O(S(C)(=O)=O)C1=CC=CC=C1",
    "meta_data": {
        "InChI": "InChI=1S/C7H8O3S/c1-11(8,9)10-7-5-3-2-4-6-7/h2-6H,1H3",
        "InChIKey": null,
        "Canonical SMILES": "O=S(=O)(OC=1C=CC=CC1)C",
        "Molecular Formula": "C<sub>7</sub>H<sub>8</sub>O<sub>3</sub>S",
        "Molecular Mass": "172.20",
        "Melting Point": "61.5 °C"
    }
}