{
    "cas_no": "28395-03-1",
    "key_name": "Bumetanide",
    "cn_name": "布美他尼;丁脲胺;丁尿胺;丁苯氧酸;5-正丁氨基-4-苯氧基-3-氨基磺酰基苯甲酸;",
    "alternate_name": "Benzoic acid, 3-(aminosulfonyl)-5-(butylamino)-4-phenoxy-;Benzoic acid, 3-(butylamino)-4-phenoxy-5-sulfamoyl-;3-(Aminosulfonyl)-5-(butylamino)-4-phenoxybenzoic acid;3-<em>n</em>-Butylamino-4-phenoxy-5-sulfamoylbenzoic acid;Bumetanide;3-(Butylamino)-4-phenoxy-5-sulfamoylbenzoic acid;Burinex;Lunetoron;Bufenox;Fordiuran;Bumethanide;PF 1593;Bumex;Lixil;Fontego;Ro 10-6338;Edemex;MeSH ID: D002034",
    "duplicated_cas_no": "",
    "SMILES": "O(C1=C(NCCCC)C=C(C(O)=O)C=C1S(N)(=O)=O)C2=CC=CC=C2",
    "meta_data": {
        "InChI": "InChI=1S/C17H20N2O5S/c1-2-3-9-19-14-10-12(17(20)21)11-15(25(18,22)23)16(14)24-13-7-5-4-6-8-13/h4-8,10-11,19H,2-3,9H2,1H3,(H,20,21)(H2,18,22,23)",
        "InChIKey": null,
        "Canonical SMILES": "O=C(O)C=1C=C(NCCCC)C(OC=2C=CC=CC2)=C(C1)S(=O)(=O)N",
        "Molecular Formula": "C<sub>17</sub>H<sub>20</sub>N<sub>2</sub>O<sub>5</sub>S",
        "Molecular Mass": "364.42",
        "Melting Point": "230.5 °C"
    }
}