{
    "cas_no": "454-78-4",
    "key_name": "3-Bromo-4-chlorobenzotrifluoride",
    "cn_name": "3-溴-4-氯三氟甲苯;",
    "alternate_name": "Benzene, 2-bromo-1-chloro-4-(trifluoromethyl)-;Toluene, 3-bromo-4-chloro-α,α,α-trifluoro-;2-Bromo-1-chloro-4-(trifluoromethyl)benzene;3-Bromo-4-chloro-α,α,α-trifluorotoluene;3-Bromo-4-chlorobenzotrifluoride;3-Bromo-4-chloro-1-(trifluoromethyl)benzene;NSC 59728;1-Bromo-2-chloro-5-trifluoromethylbenzene",
    "duplicated_cas_no": "",
    "SMILES": "C(F)(F)(F)C1=CC(Br)=C(Cl)C=C1",
    "meta_data": {
        "InChI": "InChI=1S/C7H3BrClF3/c8-5-3-4(7(10,11)12)1-2-6(5)9/h1-3H",
        "InChIKey": null,
        "Canonical SMILES": "FC(F)(F)C1=CC=C(Cl)C(Br)=C1",
        "Molecular Formula": "C<sub>7</sub>H<sub>3</sub>BrClF<sub>3</sub>",
        "Molecular Mass": "259.45",
        "Boiling Point": "191-192 °C @ Press: 740 Torr",
        "Melting Point": "-22.5--21.9 °C"
    }
}