{
    "cas_no": "56406-50-9",
    "key_name": "Benzenecarboximidamide, 3-nitro-, hydrochloride (1:1)",
    "cn_name": "3-硝基苯甲脒盐酸盐;",
    "alternate_name": "Benzenecarboximidamide, 3-nitro-, hydrochloride (1:1);Benzenecarboximidamide, 3-nitro-, monohydrochloride;Benzamidine, <em>m</em>-nitro-, hydrochloride;3-Nitrobenzamidine hydrochloride;3-Nitrobenzene-1-carboximidamide hydrochloride",
    "duplicated_cas_no": "",
    "SMILES": "C(=N)(N)C1=CC(N(=O)=O)=CC=C1.Cl",
    "meta_data": {
        "InChI": "InChI=1S/C7H7N3O2.ClH/c8-7(9)5-2-1-3-6(4-5)10(11)12;/h1-4H,(H3,8,9);1H",
        "InChIKey": null,
        "Canonical SMILES": "Cl.O=N(=O)C=1C=CC=C(C1)C(=N)N",
        "Molecular Formula": "C<sub>7</sub>H<sub>7</sub>N<sub>3</sub>O<sub>2</sub>.ClH",
        "Molecular Mass": "",
        "Melting Point": "199-201 °C"
    }
}