{
    "cas_no": "695-56-7",
    "key_name": "1,4-Dioxaspiro[4.4]non-6-ene",
    "cn_name": "2-环戊烯-1-酮缩乙醛;",
    "alternate_name": "1,4-Dioxaspiro[4.4]non-6-ene;2-Cyclopenten-1-one, cyclic 1,2-ethanediyl acetal;2-Cyclopenten-1-one ethylene acetal;2-Cyclopentenone ethylene acetal;2-Cyclopenten-1-one ethylene ketal;NSC 160533",
    "duplicated_cas_no": "",
    "SMILES": "C12(CCC=C1)OCCO2",
    "meta_data": {
        "InChI": "InChI=1S/C7H10O2/c1-2-4-7(3-1)8-5-6-9-7/h1,3H,2,4-6H2",
        "InChIKey": null,
        "Canonical SMILES": "O1CCOC12C=CCC2",
        "Molecular Formula": "C<sub>7</sub>H<sub>10</sub>O<sub>2</sub>",
        "Molecular Mass": "126.15",
        "Boiling Point": "55 °C @ Press: 11 Torr",
        "Density": "1.061 g/cm³ @ Temp: 20 °C"
    }
}