{
    "cas_no": "4338-48-1",
    "key_name": "<em>N</em><sup>6</sup>-(2-Hydroxyethyl)adenosine",
    "cn_name": null,
    "alternate_name": "Adenosine, <em>N</em>-(2-hydroxyethyl)-;<em>N</em>-(2-Hydroxyethyl)adenosine;6-[(2-Hydroxyethyl)amino]-9-β-<span class=\"text-smallcaps\">D</span>-ribofuranosylpurine;NSC 54251;<em>N</em><sup>6</sup>-(2-Hydroxyethyl)adenosine;6-Hydroxyethyladenosine",
    "duplicated_cas_no": "32476-37-2",
    "SMILES": "O[C@H]1[C@H](N2C=3C(N=C2)=C(NCCO)N=CN3)O[C@H](CO)[C@H]1O",
    "meta_data": {
        "InChI": "InChI=1S/C12H17N5O5/c18-2-1-13-10-7-11(15-4-14-10)17(5-16-7)12-9(21)8(20)6(3-19)22-12/h4-6,8-9,12,18-21H,1-3H2,(H,13,14,15)/t6-,8-,9-,12-/m1/s1",
        "InChIKey": null,
        "Canonical SMILES": "OCCNC1=NC=NC2=C1N=CN2C3OC(CO)C(O)C3O",
        "Molecular Formula": "C<sub>12</sub>H<sub>17</sub>N<sub>5</sub>O<sub>5</sub>",
        "Molecular Mass": "311.29",
        "Melting Point": "195-196 °C"
    }
}