{
    "cas_no": "1878-71-3",
    "key_name": "3-Cyanobenzeneacetic acid",
    "cn_name": null,
    "alternate_name": "Benzeneacetic acid, 3-cyano-;Acetic acid, (<em>m</em>-cyanophenyl)-;3-Cyanobenzeneacetic acid;(<em>m</em>-Cyanophenyl)acetic acid;3-Cyanophenylacetic acid;2-(3-Cyanophenyl)acetic acid",
    "duplicated_cas_no": "",
    "SMILES": "C(C(O)=O)C1=CC(C#N)=CC=C1",
    "meta_data": {
        "InChI": "InChI=1S/C9H7NO2/c10-6-8-3-1-2-7(4-8)5-9(11)12/h1-4H,5H2,(H,11,12)",
        "InChIKey": null,
        "Canonical SMILES": "N#CC1=CC=CC(=C1)CC(=O)O",
        "Molecular Formula": "C<sub>9</sub>H<sub>7</sub>NO<sub>2</sub>",
        "Molecular Mass": "161.16",
        "Melting Point": "117.5-118.5 °C"
    }
}