{
    "cas_no": "50-99-7",
    "key_name": "Glucose",
    "cn_name": "D-无水葡萄糖;葡萄糖;",
    "alternate_name": "<span class=\"text-smallcaps\">D</span>-Glucose;Anhydrous dextrose;Cartose;Cerelose;Corn sugar;Dextropur;Dextrose;Dextrosol;Glucolin;Grape sugar;Glucose;<span class=\"text-smallcaps\">D</span>(+)-Glucose;Sugar, grape;Glucosteril;Tabfine 097(HS);(+)-Glucose;Staleydex 111;Staleydex 333;Vadex;Cerelose 2001;Goldsugar;Maxim Energy Gel;Roferose ST;Glucose intolerance;Clintose L;Staleydex 130;CPC hydrate;Clearsweet 95;Glucodin;Meritose 200;Meritose;Staleydex 95M;C*Dry GL 01934;Hi-Mesh;Impaired glucose tolerance;Latent diabetes;Malabsorption of glucose;Tackidex 30L75;Roclys C 30725;D 50W;TDA-S;Toleran G;FeedBead;Glucopyranose;NSC 287045;Glucosoft;Brake (pH-encapsulated glucose);TDA-C;TDA-CJ;Chemical diabetes;Hi-Fructo M;D-Glucose;<span class=\"text-smallcaps\">D</span>-glucose;MeSH ID: D005947",
    "duplicated_cas_no": "8012-24-6;8030-23-7;50933-92-1;80206-31-1;111688-73-4;162222-91-5;165659-51-8;2095624-06-7",
    "SMILES": "[C@H]([C@@H]([C@H](C=O)O)O)([C@@H](CO)O)O",
    "meta_data": {
        "InChI": "InChI=1S/C6H12O6/c7-1-3(9)5(11)6(12)4(10)2-8/h1,3-6,8-12H,2H2/t3-,4+,5+,6+/m0/s1",
        "InChIKey": null,
        "Canonical SMILES": "O=CC(O)C(O)C(O)C(O)CO",
        "Molecular Formula": "C<sub>6</sub>H<sub>12</sub>O<sub>6</sub>",
        "Molecular Mass": "180.16",
        "Melting Point": "146 °C",
        "Density": "1.544 g/cm³"
    }
}