{
    "cas_no": "22161-81-5",
    "key_name": "(+)-Ketoprofen",
    "cn_name": "右旋酮洛芬;(S)-(+)-2-(3-苯甲酰基苯基)丙酸;",
    "alternate_name": "Benzeneacetic acid, 3-benzoyl-α-methyl-, (α<em>S</em>)-;Benzeneacetic acid, 3-benzoyl-α-methyl-, (<em>S</em>)-;Hydratropic acid, <em>m</em>-benzoyl-, (+)-;(α<em>S</em>)-3-Benzoyl-α-methylbenzeneacetic acid;(+)-Ketoprofen;(<em>S</em>)-Ketoprofen;(+)-3-Benzoylhydratropic acid;(+)-2-(3-Benzoylphenyl)propionic acid;(2<em>S</em>)-2-(3-Benzoylphenyl)propionic acid;Dexketoprofen;(+)-(<em>S</em>)-<em>m</em>-Benzoylhydratropic acid;(<em>S</em>)-(+)-2-(3-Benzoylphenyl)propionic acid;(<em>S</em>)-2-(3-Benzoylphenyl)propionic acid;(+)-3-Benzoyl-α-methylbenzeneacetic acid;<em>S</em>-(+)-Ketoprofen;(<em>S</em>)-2-(3-Benzoylphenyl)propanoic acid;Arveles;(2S)-2-(3-Benzoylphenyl)propanoic acid",
    "duplicated_cas_no": "",
    "SMILES": "C(=O)(C1=CC([C@@H](C(O)=O)C)=CC=C1)C2=CC=CC=C2",
    "meta_data": {
        "InChI": "InChI=1S/C16H14O3/c1-11(16(18)19)13-8-5-9-14(10-13)15(17)12-6-3-2-4-7-12/h2-11H,1H3,(H,18,19)/t11-/m0/s1",
        "InChIKey": null,
        "Canonical SMILES": "O=C(O)C(C=1C=CC=C(C1)C(=O)C=2C=CC=CC2)C",
        "Molecular Formula": "C<sub>16</sub>H<sub>14</sub>O<sub>3</sub>",
        "Molecular Mass": "254.28",
        "Melting Point": "72 °C"
    }
}