{
    "cas_no": "36567-72-3",
    "key_name": "(<em>S</em>)-3-Hydroxy-3-phenylpropionic acid",
    "cn_name": null,
    "alternate_name": "Benzenepropanoic acid, β-hydroxy-, (β<em>S</em>)-;Benzenepropanoic acid, β-hydroxy-, (<em>S</em>)-;(β<em>S</em>)-β-Hydroxybenzenepropanoic acid;(<em>S</em>)-3-Hydroxybenzenepropanoic acid;(<em>S</em>)-3-Hydroxy-3-phenylpropanoic acid;<span class=\"text-smallcaps\">L</span>-3-Hydroxy-3-phenylpropionic acid;(3<em>S</em>)-3-Hydroxy-3-phenylpropionic acid;(3<em>S</em>)-3-Hydroxy-3-phenylpropanoic acid;(<em>S</em>)-3-Hydroxy-3-phenylpropionic acid;(3<em>S</em>)-3-Phenyl-3-hydroxypropionic acid;(3S)-3-Hydroxy-3-phenylpropanoic acid",
    "duplicated_cas_no": "",
    "SMILES": "[C@@H](CC(O)=O)(O)C1=CC=CC=C1",
    "meta_data": {
        "InChI": "InChI=1S/C9H10O3/c10-8(6-9(11)12)7-4-2-1-3-5-7/h1-5,8,10H,6H2,(H,11,12)/t8-/m0/s1",
        "InChIKey": null,
        "Canonical SMILES": "O=C(O)CC(O)C=1C=CC=CC1",
        "Molecular Formula": "C<sub>9</sub>H<sub>10</sub>O<sub>3</sub>",
        "Molecular Mass": "166.17",
        "Melting Point": "118-120 °C"
    }
}