{
    "cas_no": "15219-34-8",
    "key_name": "Ethanedioyl dibromide",
    "cn_name": "草酰溴;草酰溴;",
    "alternate_name": "Ethanedioyl dibromide;Oxalyl bromide;Ethanedioyl bromide;Oxalyl dibromide;NSC 96957",
    "duplicated_cas_no": "",
    "SMILES": "C(C(Br)=O)(Br)=O",
    "meta_data": {
        "InChI": "InChI=1S/C2Br2O2/c3-1(5)2(4)6",
        "InChIKey": null,
        "Canonical SMILES": "O=C(Br)C(=O)Br",
        "Molecular Formula": "C<sub>2</sub>Br<sub>2</sub>O<sub>2</sub>",
        "Molecular Mass": "215.83",
        "Boiling Point": "103-105 °C",
        "Melting Point": "-19.5 °C"
    }
}