{
    "cas_no": "2154-68-9",
    "key_name": "3-Carboxy-2,2,5,5-tetramethyl-1-pyrrolidinyloxy",
    "cn_name": "3-羧基-PR氧L;3-羧基-2,2,5,5-四甲基吡咯烷1-氧自由基;",
    "alternate_name": "1-Pyrrolidinyloxy, 3-carboxy-2,2,5,5-tetramethyl-;3-Carboxy-2,2,5,5-tetramethyl-1-pyrrolidinyloxy;2,2,5,5-Tetramethyl-3-carboxypyrrolidinooxy;3-Carboxy-2,2,5,5-tetramethylpyrrolidinyloxyl;2,2,5,5-Tetramethyl-3-carboxypyrrolidine-<em>N</em>-oxyl;3-Carboxy-2,2,5,5-tetramethylpyrrolidine-1-oxyl;PCA;2,2,5,5-Tetramethylpyrrolidine-1-oxyl-3-carboxylic acid;PCA (radical);T 517;2,2,5,5-Tetramethylpiperidine-1-oxyl-3-carboxylic acid;<span class=\"text-smallcaps\">D</smallcap><smallcap>L</span>-3-Carboxy-2,2,5,5-tetramethyl-1-pyrrolidinyloxyl;3-Carboxy-2,2,5,5-tetramethylpyrrolidinyloxy;NSC 158842;3-Carboxy-2,2,5,5-tetramethylpyrrolidin-1-oxy;3-Carboxy-1-oxyl-2,2,5,5-tetramethylpyrrolidine;3-Carboxyproxyl;C 1406",
    "duplicated_cas_no": "56048-07-8;68398-73-2",
    "SMILES": "",
    "meta_data": {
        "InChI": "",
        "InChIKey": null,
        "Canonical SMILES": "",
        "Molecular Formula": "C<sub>9</sub>H<sub>16</sub>NO<sub>3</sub>",
        "Molecular Mass": "",
        "Melting Point": "193 °C"
    }
}