{
    "cas_no": "4407-36-7",
    "key_name": "<em>trans</em>-Cinnamyl alcohol",
    "cn_name": null,
    "alternate_name": "2-Propen-1-ol, 3-phenyl-, (2<em>E</em>)-;Cinnamyl alcohol, (<em>E</em>)-;2-Propen-1-ol, 3-phenyl-, (<em>E</em>)-;(2<em>E</em>)-3-Phenyl-2-propen-1-ol;<em>trans</em>-Cinnamyl alcohol;1-Phenyl-1-(<em>E</em>)-propen-3-ol;(<em>E</em>)-Cinnamyl alcohol;<em>trans</em>-3-Phenyl-2-propen-1-ol;(<em>E</em>)-3-Phenyl-2-propen-1-ol;(<em>E</em>)-3-Phenyl-2-propenol;<em>trans</em>-Cinnamic alcohol;<em>trans</em>-3-Phenyl-2-propenol;(<em>E</em>)-Cinnamic alcohol;<em>trans</em>-1-Phenyl-1-propen-3-ol;<em>trans</em>-3-Phenyl-2-propenyl alcohol;(2E)-3-Phenylprop-2-en-1-ol;(E)-3-Phenyl-2-propenol",
    "duplicated_cas_no": "1613504-07-6",
    "SMILES": "C(=C/CO)\\C1=CC=CC=C1",
    "meta_data": {
        "InChI": "InChI=1S/C9H10O/c10-8-4-7-9-5-2-1-3-6-9/h1-7,10H,8H2/b7-4+",
        "InChIKey": null,
        "Canonical SMILES": "OCC=CC=1C=CC=CC1",
        "Molecular Formula": "C<sub>9</sub>H<sub>10</sub>O",
        "Molecular Mass": "134.18",
        "Boiling Point": "248-252 °C",
        "Melting Point": "32 °C",
        "Density": "1.0442 g/cm³ @ Temp: 20 °C"
    }
}