{
    "cas_no": "21062-20-4",
    "key_name": "2,2′-Oxybis[acetyl chloride]",
    "cn_name": "2,2-氧化二乙酰氯;",
    "alternate_name": "Acetyl chloride, 2,2′-oxybis-;Acetyl chloride, oxydi-;2,2′-Oxybis[acetyl chloride];Diglycolic acid dichloride;Oxydiacetyl chloride;Diglycolyl dichloride;2,2′-Oxydiacetyl chloride;Diglycolic dichloride;Diglycoloyl chloride;Oxydiacetyl dichloride;Oxybis(acetyl chloride);Diglycolic acid chloride;2-(2-Chloro-2-oxoethoxy)acetyl chloride;Diglycolyl chloride",
    "duplicated_cas_no": "",
    "SMILES": "O(CC(Cl)=O)CC(Cl)=O",
    "meta_data": {
        "InChI": "InChI=1S/C4H4Cl2O3/c5-3(7)1-9-2-4(6)8/h1-2H2",
        "InChIKey": null,
        "Canonical SMILES": "O=C(Cl)COCC(=O)Cl",
        "Molecular Formula": "C<sub>4</sub>H<sub>4</sub>Cl<sub>2</sub>O<sub>3</sub>",
        "Molecular Mass": "170.98",
        "Boiling Point": "37-38 °C @ Press: 1.05 Torr",
        "Melting Point": "121-123 °C"
    }
}