{
    "cas_no": "76474-56-1",
    "key_name": "Dihydrocurcumin",
    "cn_name": null,
    "alternate_name": "4,6-Heptadien-3-one, 5-hydroxy-1,7-bis(4-hydroxy-3-methoxyphenyl)-, (4<em>Z</em>,6<em>E</em>)-;4,6-Heptadien-3-one, 5-hydroxy-1,7-bis(4-hydroxy-3-methoxyphenyl)-, (<em>Z</em>,<em>E</em>)-;(4<em>Z</em>,6<em>E</em>)-5-Hydroxy-1,7-bis(4-hydroxy-3-methoxyphenyl)-4,6-heptadien-3-one;Dihydrocurcumin;Letestuianin B",
    "duplicated_cas_no": "1803619-83-1",
    "SMILES": "C(CC(/C=C(/C=C/C1=CC(OC)=C(O)C=C1)\\O)=O)C2=CC(OC)=C(O)C=C2",
    "meta_data": {
        "InChI": "InChI=1S/C21H22O6/c1-26-20-11-14(5-9-18(20)24)3-7-16(22)13-17(23)8-4-15-6-10-19(25)21(12-15)27-2/h3,5-7,9-13,22,24-25H,4,8H2,1-2H3/b7-3+,16-13-",
        "InChIKey": null,
        "Canonical SMILES": "O=C(C=C(O)C=CC1=CC=C(O)C(OC)=C1)CCC2=CC=C(O)C(OC)=C2",
        "Molecular Formula": "C<sub>21</sub>H<sub>22</sub>O<sub>6</sub>",
        "Molecular Mass": "370.40",
        "Melting Point": "179-180 °C"
    }
}