{
    "cas_no": "304-06-3",
    "key_name": "2-Hydroxy[1,1′-biphenyl]-3-carboxylic acid",
    "cn_name": "3-苯基水杨酸;",
    "alternate_name": "[1,1′-Biphenyl]-3-carboxylic acid, 2-hydroxy-;3-Biphenylcarboxylic acid, 2-hydroxy-;Salicylic acid, 3-phenyl-;2-Hydroxy[1,1′-biphenyl]-3-carboxylic acid;3-Phenylsalicylic acid;2-Hydroxy-3-phenylbenzoic acid;<em>m</em>-Phenylsalicylic acid;NSC 109101;NSC 1886;2-Hydroxybiphenyl-3-carboxylic acid",
    "duplicated_cas_no": "",
    "SMILES": "OC1=C(C=CC=C1C(O)=O)C2=CC=CC=C2",
    "meta_data": {
        "InChI": "InChI=1S/C13H10O3/c14-12-10(9-5-2-1-3-6-9)7-4-8-11(12)13(15)16/h1-8,14H,(H,15,16)",
        "InChIKey": null,
        "Canonical SMILES": "O=C(O)C1=CC=CC(C=2C=CC=CC2)=C1O",
        "Molecular Formula": "C<sub>13</sub>H<sub>10</sub>O<sub>3</sub>",
        "Molecular Mass": "214.22",
        "Melting Point": "184-185 °C"
    }
}