{
    "cas_no": "2465-93-2",
    "key_name": "3,3′,3′′-[1,2,3-Propanetriyltris(oxy)]tris[propanenitrile]",
    "cn_name": "1,2,3-三-(2-氰乙氧基)丙烷;1,2,3-三(2-氰氧基)丙烷;",
    "alternate_name": "Propanenitrile, 3,3′,3′′-[1,2,3-propanetriyltris(oxy)]tris-;Propionitrile, 3,3′,3′′-(1,2,3-propanetriyltrioxy)tri-;3,3′,3′′-[1,2,3-Propanetriyltris(oxy)]tris[propanenitrile];1,2,3-Tris(2-cyanoethoxy)propane;1,2,3-Tris(β-cyanoethoxy)propane;Tris(β-cyanoethoxy)propane;1,2,3-Tris(β-cyanethoxy)propane;Tris(cyanoethoxy)propane;TCEP;NSC 105812;3-[[1,3-Bis(2-cyanoethoxy)propan-2-yl]oxy]propanenitrile;3,3′,3′′-Propane-1,2,3-triyltrioxytripropiononitrile",
    "duplicated_cas_no": "66526-01-0",
    "SMILES": "C(COCCC#N)(COCCC#N)OCCC#N",
    "meta_data": {
        "InChI": "InChI=1S/C12H17N3O3/c13-4-1-7-16-10-12(18-9-3-6-15)11-17-8-2-5-14/h12H,1-3,7-11H2",
        "InChIKey": null,
        "Canonical SMILES": "N#CCCOCC(OCCC#N)COCCC#N",
        "Molecular Formula": "C<sub>12</sub>H<sub>17</sub>N<sub>3</sub>O<sub>3</sub>",
        "Molecular Mass": "251.28",
        "Boiling Point": "250-260 °C @ Press: 1-2 Torr"
    }
}