{
    "cas_no": "17119-15-2",
    "key_name": "3-Hydroxymandelic acid",
    "cn_name": "3-羟基苯乙醇酸;",
    "alternate_name": "Benzeneacetic acid, α,3-dihydroxy-;Mandelic acid, <em>m</em>-hydroxy-;α,3-Dihydroxybenzeneacetic acid;<em>m</em>-Hydroxymandelic acid;3-Hydroxymandelic acid;<span class=\"text-smallcaps\">DL</span>-3-Hydroxymandelic acid;(±)-<em>m</em>-Hydroxymandelic acid;2-Hydroxy-2-(3-hydroxyphenyl)acetic acid",
    "duplicated_cas_no": "53623-77-1",
    "SMILES": "C(C(O)=O)(O)C1=CC(O)=CC=C1",
    "meta_data": {
        "InChI": "InChI=1S/C8H8O4/c9-6-3-1-2-5(4-6)7(10)8(11)12/h1-4,7,9-10H,(H,11,12)",
        "InChIKey": null,
        "Canonical SMILES": "O=C(O)C(O)C=1C=CC=C(O)C1",
        "Molecular Formula": "C<sub>8</sub>H<sub>8</sub>O<sub>4</sub>",
        "Molecular Mass": "168.15",
        "Melting Point": "131-132 °C"
    }
}