{
    "cas_no": "434-07-1",
    "key_name": "17β-Hydroxy-2-(hydroxymethylene)-17-methyl-5α-androstan-3-one",
    "cn_name": "羟甲烯龙;康复龙;",
    "alternate_name": "Androstan-3-one, 17-hydroxy-2-(hydroxymethylene)-17-methyl-, (5α,17β)-;5α-Androstan-3-one, 17β-hydroxy-2-(hydroxymethylene)-17-methyl-;(5α,17β)-17-Hydroxy-2-(hydroxymethylene)-17-methylandrostan-3-one;C.I. 406;Adroyd;Anadrol;Anapolon;Anasterone;17-Beta-Hydroxy-2-hydroxymethylene-17-alpha-methyl-3-androstanone;HMD;17β-Hydroxy-2-(hydroxymethylene)-17α-methyl-5α-androstan-3-one;17β-Hydroxy-2-(hydroxymethylene)-17-methyl-5α-androstan-3-one;2-(Hydroxymethylene)-17-methyldihydrotestosterone;2-Hydroxymethylene-17α-methyl-17β-hydroxy-3-androstanone;Nastenon;Oxymetholone;2-Hydroxymethylene-17α-methylandrostan-17β-ol-3-one;17α-Methyl-2-hydroxymethylene-17-hydroxy-5α-androstan-3-one;Oxymethenolone;2-Hydroxymethylene-17β-hydroxy-17α-methyl-5α-androstan-3-one;Roboral;NSC-26198;Anasteron;Anasteronal;Becorel;Protanabol;Synasteron 50;Anapolan 50;Synasteron;Pardroyd;Plenastril;Hemogenin;MeSH ID: D010110",
    "duplicated_cas_no": "",
    "SMILES": "C[C@@]12[C@@]3([C@]([C@]4([C@](C)(CC3)[C@@](C)(O)CC4)[H])(CC[C@]1(CC(=O)C(=CO)C2)[H])[H])[H]",
    "meta_data": {
        "InChI": "InChI=1S/C21H32O3/c1-19-11-13(12-22)18(23)10-14(19)4-5-15-16(19)6-8-20(2)17(15)7-9-21(20,3)24/h12,14-17,22,24H,4-11H2,1-3H3/t14-,15+,16-,17-,19-,20-,21-/m0/s1",
        "InChIKey": null,
        "Canonical SMILES": "O=C1C(=CO)CC2(C)C(C1)CCC3C2CCC4(C)C3CCC4(O)C",
        "Molecular Formula": "C<sub>21</sub>H<sub>32</sub>O<sub>3</sub>",
        "Molecular Mass": "332.48",
        "Melting Point": "178-180 °C"
    }
}