{
    "cas_no": "3397-32-8",
    "key_name": "<em>N</em>-Carbobenzyloxy-<span class=\"text-smallcaps\">L</span>-phenylalanyl <em>N</em>-hydroxysuccinimide ester",
    "cn_name": null,
    "alternate_name": "<span class=\"text-smallcaps\">L</span>-Phenylalanine, <em>N</em>-[(phenylmethoxy)carbonyl]-, 2,5-dioxo-1-pyrrolidinyl ester;Succinimide, <em>N</em>-[(<em>N</em>-carboxy-3-phenyl-<span class=\"text-smallcaps\">L</span>-alanyl)oxy]-, benzyl ester;Carbamic acid, [2-[(2,5-dioxo-1-pyrrolidinyl)oxy]-2-oxo-1-(phenylmethyl)ethyl]-, phenylmethyl ester, (<em>S</em>)-;Carbamic acid, [(1<em>S</em>)-2-[(2,5-dioxo-1-pyrrolidinyl)oxy]-2-oxo-1-(phenylmethyl)ethyl]-, phenylmethyl ester;Alanine, <em>N</em>-carboxy-3-phenyl-, <em>N</em>-benzyl ester, succinimido deriv., <span class=\"text-smallcaps\">L</span>-;<em>N</em>-Carbobenzyloxy-<span class=\"text-smallcaps\">L</span>-phenylalanyl <em>N</em>-hydroxysuccinimide ester;(<em>S</em>)-2,5-Dioxopyrrolidin-1-yl 2-(((benzyloxy)carbonyl)amino)-3-phenylpropanoate;(2,5-Dioxopyrrolidin-1-yl) (2S)-3-phenyl-2-(phenylmethoxycarbonylamino)propanoate",
    "duplicated_cas_no": "51537-11-2;84126-50-1;1640985-56-3",
    "SMILES": "O(C([C@H](CC1=CC=CC=C1)NC(OCC2=CC=CC=C2)=O)=O)N3C(=O)CCC3=O",
    "meta_data": {
        "InChI": "InChI=1S/C21H20N2O6/c24-18-11-12-19(25)23(18)29-20(26)17(13-15-7-3-1-4-8-15)22-21(27)28-14-16-9-5-2-6-10-16/h1-10,17H,11-14H2,(H,22,27)/t17-/m0/s1",
        "InChIKey": null,
        "Canonical SMILES": "O=C(OCC=1C=CC=CC1)NC(C(=O)ON2C(=O)CCC2=O)CC=3C=CC=CC3",
        "Molecular Formula": "C<sub>21</sub>H<sub>20</sub>N<sub>2</sub>O<sub>6</sub>",
        "Molecular Mass": "396.39",
        "Melting Point": "140-140.5 °C"
    }
}