{
    "cas_no": "567-61-3",
    "key_name": "6-Methylsalicylic acid",
    "cn_name": "2-羟基-6-甲基苯甲酸;",
    "alternate_name": "Benzoic acid, 2-hydroxy-6-methyl-;2,6-Cresotic acid;2-Hydroxy-6-methylbenzoic acid;6-MS;6-MSA;6-Hydroxy-<em>o</em>-toluic acid;6-Methylsalicylic acid;NSC 403256",
    "duplicated_cas_no": "",
    "SMILES": "C(O)(=O)C1=C(C)C=CC=C1O",
    "meta_data": {
        "InChI": "InChI=1S/C8H8O3/c1-5-3-2-4-6(9)7(5)8(10)11/h2-4,9H,1H3,(H,10,11)",
        "InChIKey": null,
        "Canonical SMILES": "O=C(O)C=1C(O)=CC=CC1C",
        "Molecular Formula": "C<sub>8</sub>H<sub>8</sub>O<sub>3</sub>",
        "Molecular Mass": "152.15",
        "Melting Point": "170 °C"
    }
}