{
    "cas_no": "928-01-8",
    "key_name": "Maleamide",
    "cn_name": null,
    "alternate_name": "2-Butenediamide, (2<em>Z</em>)-;Maleamide;2-Butenediamide, (<em>Z</em>)-;(2<em>Z</em>)-2-Butenediamide;Maleic diamide;Maleic acid diamide;(<em>Z</em>)-2-Butenediamide",
    "duplicated_cas_no": "",
    "SMILES": "C(=C\\C(N)=O)\\C(N)=O",
    "meta_data": {
        "InChI": "InChI=1S/C4H6N2O2/c5-3(7)1-2-4(6)8/h1-2H,(H2,5,7)(H2,6,8)/b2-1-",
        "InChIKey": null,
        "Canonical SMILES": "O=C(N)C=CC(=O)N",
        "Molecular Formula": "C<sub>4</sub>H<sub>6</sub>N<sub>2</sub>O<sub>2</sub>",
        "Molecular Mass": "114.10",
        "Melting Point": "180 °C"
    }
}