{
    "cas_no": "53957-33-8",
    "key_name": "2,5-Dimethylbenzyl alcohol",
    "cn_name": "2,5-二甲基苯甲醇;",
    "alternate_name": "Benzenemethanol, 2,5-dimethyl-;Benzyl alcohol, 2,5-dimethyl-;2,5-Dimethylbenzenemethanol;2,5-Dimethylbenzyl alcohol;(2,5-Dimethylphenyl)methanol",
    "duplicated_cas_no": "",
    "SMILES": "C(O)C1=C(C)C=CC(C)=C1",
    "meta_data": {
        "InChI": "InChI=1S/C9H12O/c1-7-3-4-8(2)9(5-7)6-10/h3-5,10H,6H2,1-2H3",
        "InChIKey": null,
        "Canonical SMILES": "OCC1=CC(=CC=C1C)C",
        "Molecular Formula": "C<sub>9</sub>H<sub>12</sub>O",
        "Molecular Mass": "136.19",
        "Boiling Point": "140-144 °C @ Press: 37 Torr"
    }
}