{
    "cas_no": "4433-13-0",
    "key_name": "4,4′-Diethenyl-1,1′-biphenyl",
    "cn_name": null,
    "alternate_name": "1,1′-Biphenyl, 4,4′-diethenyl-;Biphenyl, 4,4′-divinyl-;4,4′-Diethenyl-1,1′-biphenyl;4,4′-Divinylbiphenyl;4,4′-Divinyl-1,1′-biphenyl;1-Ethenyl-4-(4-ethenylphenyl)benzene",
    "duplicated_cas_no": "",
    "SMILES": "C(=C)C1=CC=C(C=C1)C2=CC=C(C=C)C=C2",
    "meta_data": {
        "InChI": "InChI=1S/C16H14/c1-3-13-5-9-15(10-6-13)16-11-7-14(4-2)8-12-16/h3-12H,1-2H2",
        "InChIKey": null,
        "Canonical SMILES": "C=CC=1C=CC(=CC1)C2=CC=C(C=C)C=C2",
        "Molecular Formula": "C<sub>16</sub>H<sub>14</sub>",
        "Molecular Mass": "206.28",
        "Melting Point": "153 °C"
    }
}