{
    "cas_no": "93-71-0",
    "key_name": "Allidochlor",
    "cn_name": "二丙烯草胺;",
    "alternate_name": "Acetamide, 2-chloro-<em>N</em>,<em>N</em>-di-2-propen-1-yl-;Acetamide, <em>N</em>,<em>N</em>-diallyl-2-chloro-;Acetamide, 2-chloro-<em>N</em>,<em>N</em>-di-2-propenyl-;2-Chloro-<em>N</em>,<em>N</em>-di-2-propen-1-ylacetamide;CP 6,343;CDAA;α-Chloro-<em>N</em>,<em>N</em>-diallylacetamide;2-Chloro-<em>N</em>,<em>N</em>-diallylacetamide;<em>N</em>,<em>N</em>-Diallyl-α-chloroacetamide;<em>N</em>,<em>N</em>-Diallyl-2-chloroacetamide;Randox;Allidochlor;<em>N</em>,<em>N</em>-Diallylchloroacetamide;Alidochlor;Alidochlore;Lucaoxian;2-Chloro-<em>N</em>,<em>N</em>-bis(prop-2-en-1-yl)acetamide",
    "duplicated_cas_no": "",
    "SMILES": "N(C(CCl)=O)(CC=C)CC=C",
    "meta_data": {
        "InChI": "InChI=1S/C8H12ClNO/c1-3-5-10(6-4-2)8(11)7-9/h3-4H,1-2,5-7H2",
        "InChIKey": null,
        "Canonical SMILES": "O=C(N(CC=C)CC=C)CCl",
        "Molecular Formula": "C<sub>8</sub>H<sub>12</sub>ClNO",
        "Molecular Mass": "173.64",
        "Boiling Point": "92 °C @ Press: 2 Torr",
        "Melting Point": "145 °C",
        "Density": "1.088 g/cm³ @ Temp: 25 °C"
    }
}