{
    "cas_no": "60207-90-1",
    "key_name": "Propiconazole",
    "cn_name": "丙环唑;敌力脱;丙唑灵;1-[2-(2,4-二氯苯基)-4-丙基-1,3-二氧戊环-2-基甲基]-1H-1,2,4-三唑;",
    "alternate_name": "1<em>H</em>-1,2,4-Triazole, 1-[[2-(2,4-dichlorophenyl)-4-propyl-1,3-dioxolan-2-yl]methyl]-;1-[[2-(2,4-Dichlorophenyl)-4-propyl-1,3-dioxolan-2-yl]methyl]-1<em>H</em>-1,2,4-triazole;CGA 64250;Propiconazole;CGD 92710F;Desmel;Proconazole;Tilt;Tilt 125;Wocosin 50TK;Wocosin;Radar (insecticide);Cane Sett Treatment;Juno;Juno (pesticide);Radar;Busan 1292;Mycostat P;Bumper;Bamper 25EC;Bamper;Banner Maxx;Wocosen Technical;Tilt Premium;Microban S 2140;S 2140;Dhan;Fertilome Liquid Systemic Fungicide;Microban PZ;Orbit;Orbit (fungicide);Binghuanzuo;Wocosen;Wolsit KD 10;Aidol SW 900;Propimax;1-[2-(2,4-Dichlorophenyl)-4-<em>n</em>-propyl-1,3-dioxolan-2-ylmethyl]-1<em>H</em>-1,2,4-triazole;Woodtreat 10;PPZ;PPZ (fungicide);Tilt 3.6EC;PropiMax 3.6EC;Bumper 41.8EC;Preventol A 12;Bumper 250EC;Biogard PPZ 250;Biogard PPZ;Banner Maxx II;Procon-Z 14.3 L;Procon-Z;Utconazol;Echion;Preventol A 12TK50;Marazo",
    "duplicated_cas_no": "75881-82-2;125407-52-5;181591-67-3;1135441-15-4;2103217-17-8",
    "SMILES": "C(C1(OC(CCC)CO1)C2=C(Cl)C=C(Cl)C=C2)N3C=NC=N3",
    "meta_data": {
        "InChI": "InChI=1S/C15H17Cl2N3O2/c1-2-3-12-7-21-15(22-12,8-20-10-18-9-19-20)13-5-4-11(16)6-14(13)17/h4-6,9-10,12H,2-3,7-8H2,1H3",
        "InChIKey": null,
        "Canonical SMILES": "ClC1=CC=C(C(Cl)=C1)C2(OCC(O2)CCC)CN3N=CN=C3",
        "Molecular Formula": "C<sub>15</sub>H<sub>17</sub>Cl<sub>2</sub>N<sub>3</sub>O<sub>2</sub>",
        "Molecular Mass": "342.22",
        "Boiling Point": "180 °C @ Press: 0.1 Torr",
        "Melting Point": "&lt;25 °C"
    }
}