{
    "cas_no": "3081-61-6",
    "key_name": "<span class=\"text-smallcaps\">L</span>-Theanine",
    "cn_name": "L-茶氨酸;N-乙基-L-谷氨酰胺;",
    "alternate_name": "<span class=\"text-smallcaps\">L</span>-Glutamine, <em>N</em>-ethyl-;Glutamine, <em>N</em>-ethyl-, <span class=\"text-smallcaps\">L</span>-;<em>N</em>-Ethyl-<span class=\"text-smallcaps\">L</span>-glutamine;<span class=\"text-smallcaps\">L</span>-Theanine;Theanine;Theanin;Suntheanine;NSC 21308;N<sub>γ</sub>-Ethyl-<span class=\"text-smallcaps\">L</span>-glutamine;Suntheanine CG 100;(2S)-2-Amino-4-(ethylcarbamoyl)butanoic acid;(2S)-2-Azaniumyl-5-(ethylamino)-5-oxopentanoate;(<em>S</em>)-2-Amino-5-(ethylamino)-5-oxopentanoic acid",
    "duplicated_cas_no": "",
    "SMILES": "C(C[C@@H](C(O)=O)N)C(NCC)=O",
    "meta_data": {
        "InChI": "InChI=1S/C7H14N2O3/c1-2-9-6(10)4-3-5(8)7(11)12/h5H,2-4,8H2,1H3,(H,9,10)(H,11,12)/t5-/m0/s1",
        "InChIKey": null,
        "Canonical SMILES": "O=C(O)C(N)CCC(=O)NCC",
        "Molecular Formula": "C<sub>7</sub>H<sub>14</sub>N<sub>2</sub>O<sub>3</sub>",
        "Molecular Mass": "174.20",
        "Melting Point": "217-218 °C (decomp)"
    }
}