{
    "cas_no": "35878-41-2",
    "key_name": "(-)-Vestitol",
    "cn_name": null,
    "alternate_name": "2<em>H</em>-1-Benzopyran-7-ol, 3,4-dihydro-3-(2-hydroxy-4-methoxyphenyl)-, (3<em>R</em>)-;2<em>H</em>-1-Benzopyran-7-ol, 3,4-dihydro-3-(2-hydroxy-4-methoxyphenyl)-, (<em>R</em>)-;(3<em>R</em>)-3,4-Dihydro-3-(2-hydroxy-4-methoxyphenyl)-2<em>H</em>-1-benzopyran-7-ol;Vestitol, (-)-;(3<em>R</em>)-Vestitol;(-)-Vestitol;Vestitol;(<em>R</em>)-(-)-Vestitol",
    "duplicated_cas_no": "",
    "SMILES": "OC1=C(C=CC(OC)=C1)[C@H]2CC=3C(OC2)=CC(O)=CC3",
    "meta_data": {
        "InChI": "InChI=1S/C16H16O4/c1-19-13-4-5-14(15(18)8-13)11-6-10-2-3-12(17)7-16(10)20-9-11/h2-5,7-8,11,17-18H,6,9H2,1H3/t11-/m0/s1",
        "InChIKey": null,
        "Canonical SMILES": "OC1=CC=C2C(OCC(C3=CC=C(OC)C=C3O)C2)=C1",
        "Molecular Formula": "C<sub>16</sub>H<sub>16</sub>O<sub>4</sub>",
        "Molecular Mass": "272.30",
        "Melting Point": "154-156 °C"
    }
}