{
    "cas_no": "23458-02-8",
    "key_name": "(+)-Decursinol",
    "cn_name": null,
    "alternate_name": "2<em>H</em>,6<em>H</em>-Benzo[1,2-<em>b</em>:5,4-<em>b</em>′]dipyran-2-one, 7,8-dihydro-7-hydroxy-8,8-dimethyl-, (7<em>S</em>)-;2<em>H</em>,6<em>H</em>-Benzo[1,2-<em>b</em>:5,4-<em>b</em>′]dipyran-2-one, 7,8-dihydro-7-hydroxy-8,8-dimethyl-, (<em>S</em>)-(+)-;2<em>H</em>,6<em>H</em>-Benzo[1,2-<em>b</em>:5,4-<em>b</em>′]dipyran-2-one, 7,8-dihydro-7-hydroxy-8,8-dimethyl-, (<em>S</em>)-;(7<em>S</em>)-7,8-Dihydro-7-hydroxy-8,8-dimethyl-2<em>H</em>,6<em>H</em>-benzo[1,2-<em>b</em>:5,4-<em>b</em>′]dipyran-2-one;Decursinol;(+)-Decursinol;Smyrinol;Smirinol;(3S)-3-Hydroxy-2,2-dimethyl-3,4-dihydropyrano[3,2-<em>g</em>]chromen-8-one",
    "duplicated_cas_no": "21705-59-9",
    "SMILES": "O[C@H]1CC=2C(=CC3=C(C2)C=CC(=O)O3)OC1(C)C",
    "meta_data": {
        "InChI": "InChI=1S/C14H14O4/c1-14(2)12(15)6-9-5-8-3-4-13(16)17-10(8)7-11(9)18-14/h3-5,7,12,15H,6H2,1-2H3/t12-/m0/s1",
        "InChIKey": null,
        "Canonical SMILES": "O=C1OC=2C=C3OC(C)(C)C(O)CC3=CC2C=C1",
        "Molecular Formula": "C<sub>14</sub>H<sub>14</sub>O<sub>4</sub>",
        "Molecular Mass": "246.26",
        "Melting Point": "178 °C"
    }
}