{
    "cas_no": "625-84-3",
    "key_name": "2,5-Dimethylpyrrole",
    "cn_name": "2,5-二甲基吡咯;",
    "alternate_name": "1<em>H</em>-Pyrrole, 2,5-dimethyl-;Pyrrole, 2,5-dimethyl-;2,5-Dimethyl-1<em>H</em>-pyrrole;2,5-Dimethylpyrrole;NSC 4507",
    "duplicated_cas_no": "",
    "SMILES": "CC=1NC(C)=CC1",
    "meta_data": {
        "InChI": "InChI=1S/C6H9N/c1-5-3-4-6(2)7-5/h3-4,7H,1-2H3",
        "InChIKey": null,
        "Canonical SMILES": "C=1C=C(NC1C)C",
        "Molecular Formula": "C<sub>6</sub>H<sub>9</sub>N",
        "Molecular Mass": "95.14",
        "Boiling Point": "171 °C",
        "Melting Point": "7.7 °C",
        "Density": "0.9281 g/cm³ @ Temp: 20 °C"
    }
}