{
    "cas_no": "13637-68-8",
    "key_name": "Molybdenum chloride oxide (MoCl<sub>2</sub>O<sub>2</sub>), (<em>T</em>-4)-",
    "cn_name": null,
    "alternate_name": "Molybdenum chloride oxide (MoCl<sub>2</sub>O<sub>2</sub>), (<em>T</em>-4)-;Molybdenum chloride oxide (MoO<sub>2</sub>Cl<sub>2</sub>);Molybdenum chloride (MoO<sub>2</sub>Cl<sub>2</sub>);Molybdenum dioxide dichloride;Molybdenum dioxychloride;Molybdenum dichloride dioxide;Molybdenum oxychloride (MoO<sub>2</sub>Cl<sub>2</sub>);Molybdyl chloride;Dichlorodioxomolybdenum;Molybdenum chloride oxide (MoCl<sub>2</sub>O<sub>2</sub>);Dichlorodioxomolybdenum(VI);Molybdenum dioxodichloride;Molybdenum carbide oxide (MoC<sub>12</sub>O<sub>2</sub>)",
    "duplicated_cas_no": "3017159-07-5",
    "SMILES": "[Mo](Cl)(Cl)(=O)=O",
    "meta_data": {
        "InChI": "InChI=1S/2ClH.Mo.2O/h2*1H;;;/q;;+2;;/p-2",
        "InChIKey": null,
        "Canonical SMILES": "O=[Mo](=O)(Cl)Cl",
        "Molecular Formula": "Cl<sub>2</sub>MoO<sub>2</sub>",
        "Molecular Mass": "",
        "Melting Point": "298 °C"
    }
}