{
    "cas_no": "2079-95-0",
    "key_name": "1-Tetradecanethiol",
    "cn_name": "正十四烷基硫醇;十四硫醇;",
    "alternate_name": "1-Tetradecanethiol;Tetradecyl mercaptan;1-Mercaptotetradecane;Myristyl mercaptan;<em>n</em>-Tetradecylmercaptan;NSC 57865;<em>n</em>-Tetradecyl thiolate;1-Tetradecylthiol",
    "duplicated_cas_no": "902459-03-4",
    "SMILES": "C(CCCCCCC)CCCCCCS",
    "meta_data": {
        "InChI": "InChI=1S/C14H30S/c1-2-3-4-5-6-7-8-9-10-11-12-13-14-15/h15H,2-14H2,1H3",
        "InChIKey": null,
        "Canonical SMILES": "SCCCCCCCCCCCCCC",
        "Molecular Formula": "C<sub>14</sub>H<sub>30</sub>S",
        "Molecular Mass": "230.45",
        "Boiling Point": "176-180 °C",
        "Melting Point": "89-90 °C",
        "Density": "0.8484 g/cm³"
    }
}