{
    "cas_no": "13532-18-8",
    "key_name": "Methyl 3-(methylthio)propionate",
    "cn_name": "3-甲硫基丙酸甲酯;",
    "alternate_name": "Propanoic acid, 3-(methylthio)-, methyl ester;Propionic acid, 3-(methylthio)-, methyl ester;Methyl β-methylthiopropionate;Methyl 3-(methylthio)propionate;2-Methoxycarbonylethyl methyl sulfide;Methyl 3-methylthiopropanoate;NSC 76415;Methyl 3-(methylsulfanyl)propanoate",
    "duplicated_cas_no": "",
    "SMILES": "C(CCSC)(OC)=O",
    "meta_data": {
        "InChI": "InChI=1S/C5H10O2S/c1-7-5(6)3-4-8-2/h3-4H2,1-2H3",
        "InChIKey": null,
        "Canonical SMILES": "O=C(OC)CCSC",
        "Molecular Formula": "C<sub>5</sub>H<sub>10</sub>O<sub>2</sub>S",
        "Molecular Mass": "134.20",
        "Boiling Point": "69 °C @ Press: 11 Torr",
        "Melting Point": "204-205 °C",
        "Density": "1.075 g/cm³ @ Temp: 20 °C"
    }
}