{
    "cas_no": "26833-87-4",
    "key_name": "Homoharringtonine",
    "cn_name": "高三尖杉酯碱;",
    "alternate_name": "Cephalotaxine, 3-[4-methyl (2<em>R</em>)-2-hydroxy-2-(4-hydroxy-4-methylpentyl)butanedioate];Homoharringtonine;Cephalotaxine, 4-methyl (2<em>R</em>)-2-hydroxy-2-(4-hydroxy-4-methylpentyl)butanedioate (ester);NSC 141633;Ceflatonin;Myelostat;Omacetaxine mepesuccinate;CGX 635;Synribo;(-)-Homoharringtonine;Omacetaxine",
    "duplicated_cas_no": "",
    "SMILES": "O(C([C@@](CCCC(C)(C)O)(CC(OC)=O)O)=O)[C@H]1[C@@]2([C@@]3(N(CCC=4C2=CC5=C(C4)OCO5)CCC3)C=C1OC)[H]",
    "meta_data": {
        "InChI": "InChI=1S/C29H39NO9/c1-27(2,33)8-5-10-29(34,16-23(31)36-4)26(32)39-25-22(35-3)15-28-9-6-11-30(28)12-7-18-13-20-21(38-17-37-20)14-19(18)24(25)28/h13-15,24-25,33-34H,5-12,16-17H2,1-4H3/t24-,25-,28+,29-/m1/s1",
        "InChIKey": null,
        "Canonical SMILES": "O=C(OC)CC(O)(C(=O)OC1C(OC)=CC23N(CCC4=CC=5OCOC5C=C4C12)CCC3)CCCC(O)(C)C",
        "Molecular Formula": "C<sub>29</sub>H<sub>39</sub>NO<sub>9</sub>",
        "Molecular Mass": "545.62",
        "Melting Point": "141-142 °C"
    }
}