{
    "cas_no": "303121-11-1",
    "key_name": "6-Ethoxy-4-quinolinol",
    "cn_name": null,
    "alternate_name": "4-Quinolinol, 6-ethoxy-;6-Ethoxy-4-quinolinol;6-Ethoxyquinolin-4-ol",
    "duplicated_cas_no": "",
    "SMILES": "OC=1C2=C(C=CC(OCC)=C2)N=CC1",
    "meta_data": {
        "InChI": "InChI=1S/C11H11NO2/c1-2-14-8-3-4-10-9(7-8)11(13)5-6-12-10/h3-7H,2H2,1H3,(H,12,13)",
        "InChIKey": null,
        "Canonical SMILES": "OC=1C=CN=C2C=CC(OCC)=CC12",
        "Molecular Formula": "C<sub>11</sub>H<sub>11</sub>NO<sub>2</sub>",
        "Molecular Mass": "189.21",
        "Melting Point": "263-264 °C"
    }
}