{
    "cas_no": "363-03-1",
    "key_name": "Phenyl-1,4-benzoquinone",
    "cn_name": "苯基-p-苯醌;苯基-P-苯醌;",
    "alternate_name": "2,5-Cyclohexadiene-1,4-dione, 2-phenyl-;<em>p</em>-Benzoquinone, 2-phenyl-;<em>p</em>-Benzoquinone, phenyl-;Quinone, phenyl-;2-Phenyl-2,5-cyclohexadiene-1,4-dione;Phenyl-<em>p</em>-benzoquinone;Phenylquinone;Phenylbenzoquinone;2-Phenylbenzoquinone;2-Phenyl-1,4-benzoquinone;Phenyl-1,4-benzoquinone;2-Phenyl-<em>p</em>-benzoquinone;2-Phenylquinone;NSC 2806;[1,1′-Biphenyl]-2,5-dione",
    "duplicated_cas_no": "",
    "SMILES": "O=C1C(=CC(=O)C=C1)C2=CC=CC=C2",
    "meta_data": {
        "InChI": "InChI=1S/C12H8O2/c13-10-6-7-12(14)11(8-10)9-4-2-1-3-5-9/h1-8H",
        "InChIKey": null,
        "Canonical SMILES": "O=C1C=CC(=O)C(=C1)C=2C=CC=CC2",
        "Molecular Formula": "C<sub>12</sub>H<sub>8</sub>O<sub>2</sub>",
        "Molecular Mass": "184.19",
        "Melting Point": "114 °C"
    }
}