{
    "cas_no": "3049-24-9",
    "key_name": "Diphenyl <em>P</em>-phenylphosphonate",
    "cn_name": null,
    "alternate_name": "Phosphonic acid, <em>P</em>-phenyl-, diphenyl ester;Phosphonic acid, phenyl-, diphenyl ester;Diphenyl <em>P</em>-phenylphosphonate;Diphenyl benzenephosphonate;Diphenyl phenylphosphonate;Triphenyl phosphonate;NSC 25435;[Phenoxy(phenyl)phosphoryl]oxybenzene",
    "duplicated_cas_no": "",
    "SMILES": "P(OC1=CC=CC=C1)(OC2=CC=CC=C2)(=O)C3=CC=CC=C3",
    "meta_data": {
        "InChI": "InChI=1S/C18H15O3P/c19-22(18-14-8-3-9-15-18,20-16-10-4-1-5-11-16)21-17-12-6-2-7-13-17/h1-15H",
        "InChIKey": null,
        "Canonical SMILES": "O=P(OC=1C=CC=CC1)(OC=2C=CC=CC2)C=3C=CC=CC3",
        "Molecular Formula": "C<sub>18</sub>H<sub>15</sub>O<sub>3</sub>P",
        "Molecular Mass": "310.28",
        "Melting Point": "74.0-74.9 °C"
    }
}