{
    "cas_no": "3963-62-0",
    "key_name": "2,2-Diphenylethylamine",
    "cn_name": "2,2-二苯基乙胺;",
    "alternate_name": "Benzeneethanamine, β-phenyl-;Ethylamine, 2,2-diphenyl-;β-Phenylbenzeneethanamine;Ethanamine, 2,2-diphenyl-;2,2-Diphenethylamine;2,2-Diphenylethylamine;2,2-Diphenylethanamine;IEM 2009;β,β-Diphenylethylamine;NSC 27209;2,2-Diphenylethan-1-amine",
    "duplicated_cas_no": "",
    "SMILES": "C(CN)(C1=CC=CC=C1)C2=CC=CC=C2",
    "meta_data": {
        "InChI": "InChI=1S/C14H15N/c15-11-14(12-7-3-1-4-8-12)13-9-5-2-6-10-13/h1-10,14H,11,15H2",
        "InChIKey": null,
        "Canonical SMILES": "NCC(C=1C=CC=CC1)C=2C=CC=CC2",
        "Molecular Formula": "C<sub>14</sub>H<sub>15</sub>N",
        "Molecular Mass": "197.28",
        "Boiling Point": "170 °C @ Press: 11 Torr",
        "Melting Point": "38 °C"
    }
}