{
    "cas_no": "57-06-7",
    "key_name": "Allyl isothiocyanate",
    "cn_name": "异硫氰酸烯丙酯;",
    "alternate_name": "1-Propene, 3-isothiocyanato-;Isothiocyanic acid, allyl ester;3-Isothiocyanato-1-propene;AITC;Allyl isothiocyanate;2-Propenyl isothiocyanate;Redskin;Oleum sinapis;Allylsevenolum;Senfoel;Carbospol;Allyl thioisocyanate;Allyspol;Allyspol 75EC;NSC 5572;Wasaouro EXT;Wasaouro",
    "duplicated_cas_no": "50888-64-7;50978-48-8;58391-87-0;107231-30-1;1001911-93-8",
    "SMILES": "C(N=C=S)C=C",
    "meta_data": {
        "InChI": "InChI=1S/C4H5NS/c1-2-3-5-4-6/h2H,1,3H2",
        "InChIKey": null,
        "Canonical SMILES": "S=C=NCC=C",
        "Molecular Formula": "C<sub>4</sub>H<sub>5</sub>NS",
        "Molecular Mass": "99.15",
        "Boiling Point": "148-154 °C",
        "Melting Point": "-80 °C",
        "Density": "1.013-1.020 g/cm³"
    }
}