{
    "cas_no": "118-13-8",
    "key_name": "3-Hydroxy-4-quinolinecarboxylic acid",
    "cn_name": null,
    "alternate_name": "4-Quinolinecarboxylic acid, 3-hydroxy-;Cinchoninic acid, 3-hydroxy-;3-Hydroxy-4-quinolinecarboxylic acid;3-Hydroxycinchoninic acid",
    "duplicated_cas_no": "",
    "SMILES": "C(O)(=O)C=1C2=C(N=CC1O)C=CC=C2",
    "meta_data": {
        "InChI": "InChI=1S/C10H7NO3/c12-8-5-11-7-4-2-1-3-6(7)9(8)10(13)14/h1-5,12H,(H,13,14)",
        "InChIKey": null,
        "Canonical SMILES": "O=C(O)C=1C(O)=CN=C2C=CC=CC21",
        "Molecular Formula": "C<sub>10</sub>H<sub>7</sub>NO<sub>3</sub>",
        "Molecular Mass": "189.17",
        "Melting Point": "212 °C (decomp)"
    }
}