{
    "cas_no": "552331-00-7",
    "key_name": "4-Iodo-2-pyridinamine",
    "cn_name": null,
    "alternate_name": "2-Pyridinamine, 4-iodo-;4-Iodo-2-pyridinamine;(4-Iodopyridin-2-yl)amine;4-Iodopyridin-2-amine;2-Amino-4-iodopyridine;4-Iodo-2-aminopyridine",
    "duplicated_cas_no": "",
    "SMILES": "IC=1C=C(N)N=CC1",
    "meta_data": {
        "InChI": "InChI=1S/C5H5IN2/c6-4-1-2-8-5(7)3-4/h1-3H,(H2,7,8)",
        "InChIKey": null,
        "Canonical SMILES": "IC=1C=CN=C(N)C1",
        "Molecular Formula": "C<sub>5</sub>H<sub>5</sub>IN<sub>2</sub>",
        "Molecular Mass": "220.01",
        "Melting Point": "163-164 °C"
    }
}