{
    "cas_no": "605-54-9",
    "key_name": "Bis(2-ethoxyethyl) phthalate",
    "cn_name": null,
    "alternate_name": "1,2-Benzenedicarboxylic acid, 1,2-bis(2-ethoxyethyl) ester;Phthalic acid, bis(2-ethoxyethyl) ester;1,2-Benzenedicarboxylic acid, bis(2-ethoxyethyl) ester;Ethanol, 2-ethoxy-, phthalate (2:1);Bis(2-ethoxyethyl) phthalate;Diethoxyethyl phthalate;Bis(ethoxyethyl) phthalate;Di-2-ethoxyethyl phthalate;NSC 4825",
    "duplicated_cas_no": "",
    "SMILES": "C(OCCOCC)(=O)C1=C(C(OCCOCC)=O)C=CC=C1",
    "meta_data": {
        "InChI": "InChI=1S/C16H22O6/c1-3-19-9-11-21-15(17)13-7-5-6-8-14(13)16(18)22-12-10-20-4-2/h5-8H,3-4,9-12H2,1-2H3",
        "InChIKey": null,
        "Canonical SMILES": "O=C(OCCOCC)C=1C=CC=CC1C(=O)OCCOCC",
        "Molecular Formula": "C<sub>16</sub>H<sub>22</sub>O<sub>6</sub>",
        "Molecular Mass": "310.34",
        "Boiling Point": "345 °C",
        "Melting Point": "34 °C",
        "Density": "1.121 g/cm³ @ Temp: 20 °C"
    }
}