{
    "cas_no": "303-98-0",
    "key_name": "Coenzyme Q<sub>10</sub>",
    "cn_name": "辅酶Q10;2-(3,7,11,15,19,23,27,31,35,39-十甲基-2,6,10,14,18,22,26,30,34,38-四十碳十烯基)-5,6-二甲氧基;",
    "alternate_name": "2,5-Cyclohexadiene-1,4-dione, 2-[(2<em>E</em>,6<em>E</em>,10<em>E</em>,14<em>E</em>,18<em>E</em>,22<em>E</em>,26<em>E</em>,30<em>E</em>,34<em>E</em>)-3,7,11,15,19,23,27,31,35,39-decamethyl-2,6,10,14,18,22,26,30,34,38-tetracontadecaen-1-yl]-5,6-dimethoxy-3-methyl-;Coenzyme Q<sub>10</sub>;2,5-Cyclohexadiene-1,4-dione, 2-(3,7,11,15,19,23,27,31,35,39-decamethyl-2,6,10,14,18,22,26,30,34,38-tetracontadecaenyl)-5,6-dimethoxy-3-methyl-, (<em>all</em>-<em>E</em>)-;<em>p</em>-Benzoquinone, 2-(3,7,11,15,19,23,27,31,35,39-decamethyl-2,6,10,14,18,22,26,30,34,38-tetracontadecaenyl)-5,6-dimethoxy-3-methyl-;2,5-Cyclohexadiene-1,4-dione, 2-[(2<em>E</em>,6<em>E</em>,10<em>E</em>,14<em>E</em>,18<em>E</em>,22<em>E</em>,26<em>E</em>,30<em>E</em>,34<em>E</em>)-3,7,11,15,19,23,27,31,35,39-decamethyl-2,6,10,14,18,22,26,30,34,38-tetracontadecaenyl]-5,6-dimethoxy-3-methyl-;2-[(2<em>E</em>,6<em>E</em>,10<em>E</em>,14<em>E</em>,18<em>E</em>,22<em>E</em>,26<em>E</em>,30<em>E</em>,34<em>E</em>)-3,7,11,15,19,23,27,31,35,39-Decamethyl-2,6,10,14,18,22,26,30,34,38-tetracontadecaen-1-yl]-5,6-dimethoxy-3-methyl-2,5-cyclohexadiene-1,4-dione;Ubiquinone 50;CoQ<sub>10</sub>;Ubidecarenone;Ubiquinone 10;Ubiquinone Q<sub>10</sub>;Neuquinon;Neuquinone;Bio-Quinon;Ensorb;Bio-Quinone Q<sub>10</sub>;NSC 140865;(<em>all</em>-<em>E</em>)-2-(3,7,11,15,19,23,27,31,35,39-Decamethyl-2,6,10,14,18,22,26,30,34,38-tetracontadecaenyl)-5,6-dimethoxy-3-methyl-2,5-cyclohexadiene-1,4-dione;Kudesan;Q-Gel 100;Q 10AA;Unispheres Q 10;Kaneka Q<sub>10</sub>;Aqua Q 10L10;Aqua Q10;Q-Gel;Liquid-Q;Li-Q-Sorb;PureSorb Q 40;Vitamin Q;Cosmesome Q 10;Q-absorb;Cudesan;Adelir;Aqua-Q 10P40;Coenzyme Qter;Q-ter;BPM 31510;API 31510",
    "duplicated_cas_no": "13448-14-1;55870-43-4;55127-92-9",
    "SMILES": "C(/C=C(/CC/C=C(/CC/C=C(/CC/C=C(/CC/C=C(/CC/C=C(/CC/C=C(/CC/C=C(/CC/C=C(/CCC=C(C)C)\\C)\\C)\\C)\\C)\\C)\\C)\\C)\\C)\\C)C=1C(=O)C(OC)=C(OC)C(=O)C1C",
    "meta_data": {
        "InChI": "InChI=1S/C59H90O4/c1-44(2)24-15-25-45(3)26-16-27-46(4)28-17-29-47(5)30-18-31-48(6)32-19-33-49(7)34-20-35-50(8)36-21-37-51(9)38-22-39-52(10)40-23-41-53(11)42-43-55-54(12)56(60)58(62-13)59(63-14)57(55)61/h24,26,28,30,32,34,36,38,40,42H,15-23,25,27,29,31,33,35,37,39,41,43H2,1-14H3/b45-26+,46-28+,47-30+,48-32+,49-34+,50-36+,51-38+,52-40+,53-42+",
        "InChIKey": null,
        "Canonical SMILES": "O=C1C(OC)=C(OC)C(=O)C(=C1C)CC=C(C)CCC=C(C)CCC=C(C)CCC=C(C)CCC=C(C)CCC=C(C)CCC=C(C)CCC=C(C)CCC=C(C)CCC=C(C)C",
        "Molecular Formula": "C<sub>59</sub>H<sub>90</sub>O<sub>4</sub>",
        "Molecular Mass": "863.34",
        "Melting Point": "48-50 °C"
    }
}