{
    "cas_no": "81409-90-7",
    "key_name": "Cabergoline",
    "cn_name": "卡麦角林;6-烯丙基-N-[3-(二甲基氨基)丙基]-N-(乙基氨基甲酰基)麦角林-8-甲酰胺;",
    "alternate_name": "Ergoline-8-carboxamide, <em>N</em>-[3-(dimethylamino)propyl]-<em>N</em>-[(ethylamino)carbonyl]-6-(2-propen-1-yl)-, (8β)-;Ergoline-8-carboxamide, <em>N</em>-[3-(dimethylamino)propyl]-<em>N</em>-[(ethylamino)carbonyl]-6-(2-propenyl)-, (8β)-;(8β)-<em>N</em>-[3-(Dimethylamino)propyl]-<em>N</em>-[(ethylamino)carbonyl]-6-(2-propen-1-yl)ergoline-8-carboxamide;Cabergoline;Sogilen;Dostinex;Cabaser;Galastop;Cabaseril;Velactis",
    "duplicated_cas_no": "",
    "SMILES": "C(C=C)N1[C@]2([C@@](C=3C=4C(C2)=CNC4C=CC3)(C[C@@H](C(N(C(NCC)=O)CCCN(C)C)=O)C1)[H])[H]",
    "meta_data": {
        "InChI": "InChI=1S/C26H37N5O2/c1-5-11-30-17-19(25(32)31(26(33)27-6-2)13-8-12-29(3)4)14-21-20-9-7-10-22-24(20)18(16-28-22)15-23(21)30/h5,7,9-10,16,19,21,23,28H,1,6,8,11-15,17H2,2-4H3,(H,27,33)/t19-,21-,23-/m1/s1",
        "InChIKey": null,
        "Canonical SMILES": "O=C(NCC)N(C(=O)C1CN(CC=C)C2CC3=CNC4=CC=CC(=C43)C2C1)CCCN(C)C",
        "Molecular Formula": "C<sub>26</sub>H<sub>37</sub>N<sub>5</sub>O<sub>2</sub>",
        "Molecular Mass": "451.60",
        "Melting Point": "102-104 °C"
    }
}