{
    "cas_no": "1673-47-8",
    "key_name": "3-Chlorobenzohydrazide",
    "cn_name": "3-氯苯甲酰肼;",
    "alternate_name": "Benzoic acid, 3-chloro-, hydrazide;Benzoic acid, <em>m</em>-chloro-, hydrazide;<em>m</em>-Chlorobenzoic acid hydrazide;3-Chlorobenzhydrazide;(<em>m</em>-Chlorobenzoyl)hydrazine;3-Chlorobenzoyl hydrazide;(3-Chlorobenzoyl)hydrazine;<em>m</em>-Chlorobenzoic hydrazide;3-Chlorobenzoic acid hydrazide;3-Chlorobenzohydrazide;3-Chlorobenzenecarboxylic acid hydrazide;<em>m</em>-Chlorobenzoyl hydrazide;3-Chlorobenzoic hydrazide;3-Chlorobenzohydroazide;3-Chlorobenzene-1-carbohydrazide",
    "duplicated_cas_no": "",
    "SMILES": "C(NN)(=O)C1=CC(Cl)=CC=C1",
    "meta_data": {
        "InChI": "InChI=1S/C7H7ClN2O/c8-6-3-1-2-5(4-6)7(11)10-9/h1-4H,9H2,(H,10,11)",
        "InChIKey": null,
        "Canonical SMILES": "O=C(NN)C=1C=CC=C(Cl)C1",
        "Molecular Formula": "C<sub>7</sub>H<sub>7</sub>ClN<sub>2</sub>O",
        "Molecular Mass": "170.60",
        "Melting Point": "155-156 °C"
    }
}