{
    "cas_no": "1189-71-5",
    "key_name": "Chlorosulfonyl isocyanate",
    "cn_name": "氯磺酰异氰酸酯;",
    "alternate_name": "Sulfuryl chloride isocyanate;Isocyanic acid, anhydride with chlorosulfonic acid;Chlorosulfuric acid, anhydride with isocyanic acid;Isocyanic acid, anhydride with chlorosulfuric acid;Chlorosulfonyl isocyanate;<em>N</em>-Chlorosulfonyl isocyanate;Chlorsulfonyl isocyanate;CSI;Sulfonyl chloride isocyanate;Sulfurisocyanatidic chloride;Chlorosulfonamide isocyanate;[(Chlorosulfonyl)imino]methanone",
    "duplicated_cas_no": "134273-64-6",
    "SMILES": "N(S(Cl)(=O)=O)=C=O",
    "meta_data": {
        "InChI": "InChI=1S/CClNO3S/c2-7(5,6)3-1-4",
        "InChIKey": null,
        "Canonical SMILES": "O=C=NS(=O)(=O)Cl",
        "Molecular Formula": "CClNO<sub>3</sub>S",
        "Molecular Mass": "141.53",
        "Boiling Point": "107 °C",
        "Melting Point": "-44 °C",
        "Density": "1.626 g/cm³ @ Temp: 20 °C"
    }
}