{
    "cas_no": "1086062-66-9",
    "key_name": "Omipalisib",
    "cn_name": null,
    "alternate_name": "Benzenesulfonamide, 2,4-difluoro-<em>N</em>-[2-methoxy-5-[4-(4-pyridazinyl)-6-quinolinyl]-3-pyridinyl]-;2,4-Difluoro-<em>N</em>-[2-methoxy-5-[4-(4-pyridazinyl)-6-quinolinyl]-3-pyridinyl]benzenesulfonamide;GSK 2126458;Omipalisib;GSK 458",
    "duplicated_cas_no": "",
    "SMILES": "N(S(=O)(=O)C1=C(F)C=C(F)C=C1)C2=CC(C3=CC=4C(=CC=NC4C=C3)C=5C=CN=NC5)=CN=C2OC",
    "meta_data": {
        "InChI": "InChI=1S/C25H17F2N5O3S/c1-35-25-23(32-36(33,34)24-5-3-18(26)12-21(24)27)11-17(13-29-25)15-2-4-22-20(10-15)19(7-8-28-22)16-6-9-30-31-14-16/h2-14,32H,1H3",
        "InChIKey": null,
        "Canonical SMILES": "O=S(=O)(NC=1C=C(C=NC1OC)C=2C=CC3=NC=CC(C=4C=NN=CC4)=C3C2)C5=CC=C(F)C=C5F",
        "Molecular Formula": "C<sub>25</sub>H<sub>17</sub>F<sub>2</sub>N<sub>5</sub>O<sub>3</sub>S",
        "Molecular Mass": "505.50",
        "Melting Point": "187-189 °C"
    }
}