{
    "cas_no": "593-49-7",
    "key_name": "Heptacosane",
    "cn_name": "二十七烷;",
    "alternate_name": "Heptacosane;<em>n</em>-Heptacosane",
    "duplicated_cas_no": "",
    "SMILES": "C(CCCCCCCCCCCCC)CCCCCCCCCCCCC",
    "meta_data": {
        "InChI": "InChI=1S/C27H56/c1-3-5-7-9-11-13-15-17-19-21-23-25-27-26-24-22-20-18-16-14-12-10-8-6-4-2/h3-27H2,1-2H3",
        "InChIKey": null,
        "Canonical SMILES": "CCCCCCCCCCCCCCCCCCCCCCCCCCC",
        "Molecular Formula": "C<sub>27</sub>H<sub>56</sub>",
        "Molecular Mass": "380.73",
        "Boiling Point": "442 °C",
        "Melting Point": "59.5 °C",
        "Density": "0.7730 g/cm³ @ Temp: 65 °C"
    }
}