{
    "cas_no": "14177-51-6",
    "key_name": "Nickel tungsten oxide (NiWO<sub>4</sub>)",
    "cn_name": "钨酸镍;",
    "alternate_name": "Nickel tungsten oxide (NiWO<sub>4</sub>);Tungstic acid (H<sub>2</sub>WO<sub>4</sub>), nickel(2+) salt (1:1);Nickel tungstate(VI) (NiWO<sub>4</sub>);Nickel tungstate (NiWO<sub>4</sub>)",
    "duplicated_cas_no": "52014-29-6",
    "SMILES": "[O].[W].[Ni]",
    "meta_data": {
        "InChI": "InChI=1S/Ni.O.W",
        "InChIKey": null,
        "Canonical SMILES": "[O].[Ni].[W]",
        "Molecular Formula": "Ni.O.W",
        "Molecular Mass": "",
        "Melting Point": "1420 °C",
        "Density": "7.29 g/cm³ @ Temp: 1200 °C"
    }
}