{
    "uri": "substance/pt/14177516",
    "rn": "14177-51-6",
    "name": "Nickel tungsten oxide (NiWO<sub>4</sub>)",
    "images": [],
    "inchi": "InChI=1S/Ni.O.W",
    "inchiKey": "InChIKey=USPVIMZDBBWXGM-UHFFFAOYSA-N",
    "smile": "[O].[W].[Ni]",
    "canonicalSmile": "[O].[Ni].[W]",
    "molecularFormula": "Ni.O.W",
    "molecularMass": "",
    "experimentalProperties": [
        {
            "name": "Melting Point",
            "property": "1420 °C",
            "sourceNumber": 1
        },
        {
            "name": "Density",
            "property": "7.29 g/cm³ @ Temp: 1200 °C",
            "sourceNumber": 2
        }
    ],
    "propertyCitations": [
        {
            "docUri": "document/pt/document/28946881",
            "sourceNumber": 1,
            "source": "Lebukhova, N. V.; Inorganic Materials, (2006), 42(3), 310-315, CAplus"
        },
        {
            "docUri": "document/pt/document/29927223",
            "sourceNumber": 2,
            "source": "Pullar, R. C.; Journal of the European Ceramic Society, (2006), 27(2-3), 1059-1063, CAplus"
        }
    ],
    "synonyms": [
        "Nickel tungsten oxide (NiWO<sub>4</sub>)",
        "Tungstic acid (H<sub>2</sub>WO<sub>4</sub>), nickel(2+) salt (1:1)",
        "Nickel tungstate(VI) (NiWO<sub>4</sub>)",
        "Nickel tungstate (NiWO<sub>4</sub>)"
    ],
    "replacedRns": [
        "52014-29-6"
    ],
    "hasMolfile": true,
    "source": "https://commonchemistry.cas.org/detail?cas_rn=14177-51-6"
}