{
    "cas_no": "39106-10-0",
    "key_name": "2-Chloro-<em>N</em>-(2,4-dimethylphenyl)acetamide",
    "cn_name": null,
    "alternate_name": "Acetamide, 2-chloro-<em>N</em>-(2,4-dimethylphenyl)-;2-Chloro-<em>N</em>-(2,4-dimethylphenyl)acetamide;<em>N</em>-(2,4-Dimethylphenyl)-2-chloroacetamide",
    "duplicated_cas_no": "",
    "SMILES": "N(C(CCl)=O)C1=C(C)C=C(C)C=C1",
    "meta_data": {
        "InChI": "InChI=1S/C10H12ClNO/c1-7-3-4-9(8(2)5-7)12-10(13)6-11/h3-5H,6H2,1-2H3,(H,12,13)",
        "InChIKey": null,
        "Canonical SMILES": "O=C(NC1=CC=C(C=C1C)C)CCl",
        "Molecular Formula": "C<sub>10</sub>H<sub>12</sub>ClNO",
        "Molecular Mass": "197.66",
        "Melting Point": "144-146 °C"
    }
}