{
    "cas_no": "19224-26-1",
    "key_name": "Propylene glycol dibenzoate",
    "cn_name": "1,2-丙二醇二苯甲酸酯;",
    "alternate_name": "1,2-Propanediol, 1,2-dibenzoate;1,2-Propanediol, dibenzoate;Propylene glycol dibenzoate;Benzoflex 284;1,2-Propylene glycol dibenzoate;LexFeel Shine;K-Flex PG;1-(Benzoyloxy)propan-2-yl benzoate",
    "duplicated_cas_no": "105928-08-3",
    "SMILES": "C(OCC(OC(=O)C1=CC=CC=C1)C)(=O)C2=CC=CC=C2",
    "meta_data": {
        "InChI": "InChI=1S/C17H16O4/c1-13(21-17(19)15-10-6-3-7-11-15)12-20-16(18)14-8-4-2-5-9-14/h2-11,13H,12H2,1H3",
        "InChIKey": null,
        "Canonical SMILES": "O=C(OCC(OC(=O)C=1C=CC=CC1)C)C=2C=CC=CC2",
        "Molecular Formula": "C<sub>17</sub>H<sub>16</sub>O<sub>4</sub>",
        "Molecular Mass": "284.31",
        "Boiling Point": "232 °C @ Press: 12 Torr"
    }
}