{
    "cas_no": "1122-54-9",
    "key_name": "4-Acetylpyridine",
    "cn_name": "4-乙酰吡啶;4-乙酰基吡啶;",
    "alternate_name": "Ethanone, 1-(4-pyridinyl)-;Ketone, methyl 4-pyridyl;1-(4-Pyridinyl)ethanone;4-Acetylpyridine;4-Pyridyl methyl ketone;Methyl 4-pyridyl ketone;γ-Acetylpyridine;NSC 111;4-Pyridinyl methyl ketone;1-(Pyridin-4-yl)ethan-1-one;1-(Pyridin-4-yl)ethanone;Methyl pyridin-4-yl ketone;4-Pyridylethanone;1-(4-Pyridyl)ethanone",
    "duplicated_cas_no": "",
    "SMILES": "C(C)(=O)C=1C=CN=CC1",
    "meta_data": {
        "InChI": "InChI=1S/C7H7NO/c1-6(9)7-2-4-8-5-3-7/h2-5H,1H3",
        "InChIKey": null,
        "Canonical SMILES": "O=C(C=1C=CN=CC1)C",
        "Molecular Formula": "C<sub>7</sub>H<sub>7</sub>NO",
        "Molecular Mass": "121.14",
        "Boiling Point": "212 °C",
        "Melting Point": "16 °C"
    }
}