{
    "cas_no": "2457-76-3",
    "key_name": "4-Amino-2-chlorobenzoic acid",
    "cn_name": "4-氨基-2-氯苯甲酸;",
    "alternate_name": "Benzoic acid, 4-amino-2-chloro-;4-Amino-2-chlorobenzoic acid;2-Chloro-<em>p</em>-aminobenzoic acid;2-Chloro-4-aminobenzoic acid;<em>o</em>-Chloro-<em>p</em>-aminobenzoic acid;NSC 33944;NSC 53160;NSC 64328",
    "duplicated_cas_no": "",
    "SMILES": "C(O)(=O)C1=C(Cl)C=C(N)C=C1",
    "meta_data": {
        "InChI": "InChI=1S/C7H6ClNO2/c8-6-3-4(9)1-2-5(6)7(10)11/h1-3H,9H2,(H,10,11)",
        "InChIKey": null,
        "Canonical SMILES": "O=C(O)C1=CC=C(N)C=C1Cl",
        "Molecular Formula": "C<sub>7</sub>H<sub>6</sub>ClNO<sub>2</sub>",
        "Molecular Mass": "171.58",
        "Melting Point": "211 °C (decomp)"
    }
}