{
    "cas_no": "106-45-6",
    "key_name": "4-Methylbenzenethiol",
    "cn_name": "4-甲苯硫酚;对甲苯硫酚;4-巯基甲苯;对硫代甲酚;",
    "alternate_name": "Benzenethiol, 4-methyl-;<em>p</em>-Toluenethiol;4-Methylbenzenethiol;<em>p</em>-Thiocresol;<em>p</em>-Tolyl mercaptan;4-Methylphenyl mercaptan;4-Toluenethiol;<em>p</em>-Methylbenzenethiol;4-Thiocresol;<em>p</em>-Tolylthiol;<em>p</em>-Thiolcresol;1-Mercapto-4-methylbenzene;<em>p</em>-Methylphenyl mercaptan;<em>p</em>-Mercaptotoluene;4-Methyl-1-thiophenol;4-Methylphenylthiol;4-Mercaptotoluene;<em>p</em>-Methylphenylthiol;4-Methylthiophenol;<em>p</em>-Methylthiophenol;NSC 2227;NSC 229565;<em>p</em>-Methylbenzenthiol",
    "duplicated_cas_no": "",
    "SMILES": "CC1=CC=C(S)C=C1",
    "meta_data": {
        "InChI": "InChI=1S/C7H8S/c1-6-2-4-7(8)5-3-6/h2-5,8H,1H3",
        "InChIKey": null,
        "Canonical SMILES": "SC1=CC=C(C=C1)C",
        "Molecular Formula": "C<sub>7</sub>H<sub>8</sub>S",
        "Molecular Mass": "124.20",
        "Boiling Point": "195 °C @ Press: 760 Torr",
        "Melting Point": "43-44 °C"
    }
}