{
    "cas_no": "834-24-2",
    "key_name": "4-Aminostilbene",
    "cn_name": "4-氨基二苯乙烯;",
    "alternate_name": "Benzenamine, 4-(2-phenylethenyl)-;4-Stilbenamine;4-(2-Phenylethenyl)benzenamine;4-Aminostilbene;<em>p</em>-Styrylaniline;<em>p</em>-Aminostilbene;NSC 36396;4-Styrylaniline",
    "duplicated_cas_no": "",
    "SMILES": "C(=CC1=CC=CC=C1)C2=CC=C(N)C=C2",
    "meta_data": {
        "InChI": "InChI=1S/C14H13N/c15-14-10-8-13(9-11-14)7-6-12-4-2-1-3-5-12/h1-11H,15H2",
        "InChIKey": null,
        "Canonical SMILES": "NC1=CC=C(C=C1)C=CC=2C=CC=CC2",
        "Molecular Formula": "C<sub>14</sub>H<sub>13</sub>N",
        "Molecular Mass": "195.26",
        "Melting Point": "151-152 °C"
    }
}