{
    "cas_no": "23239-36-3",
    "key_name": "Benzenemethanol, 4-hydroxy-α-[[(1-methylethyl)amino]methyl]-, hydrochloride (1:1)",
    "cn_name": null,
    "alternate_name": "Benzenemethanol, 4-hydroxy-α-[[(1-methylethyl)amino]methyl]-, hydrochloride (1:1);Benzyl alcohol, <em>p</em>-hydroxy-α-[(isopropylamino)methyl]-, hydrochloride, (±)-;Benzenemethanol, 4-hydroxy-α-[[(1-methylethyl)amino]methyl]-, hydrochloride, (±)-;Benzenemethanol, 4-hydroxy-α-[[(1-methylethyl)amino]methyl]-, hydrochloride;<em>dl</em>-1-(4-Hydroxyphenyl)-2-(isopropylamino)ethanol hydrochloride;(±)-1-(4-Hydroxyphenyl)-2-isopropylaminoethanol hydrochloride;Deterenol hydrochloride;Detenerol hydrochloride",
    "duplicated_cas_no": "",
    "SMILES": "C(CNC(C)C)(O)C1=CC=C(O)C=C1.Cl",
    "meta_data": {
        "InChI": "InChI=1S/C11H17NO2.ClH/c1-8(2)12-7-11(14)9-3-5-10(13)6-4-9;/h3-6,8,11-14H,7H2,1-2H3;1H",
        "InChIKey": null,
        "Canonical SMILES": "Cl.OC1=CC=C(C=C1)C(O)CNC(C)C",
        "Molecular Formula": "C<sub>11</sub>H<sub>17</sub>NO<sub>2</sub>.ClH",
        "Molecular Mass": "",
        "Melting Point": "155-157 °C"
    }
}