{
    "cas_no": "1708-81-2",
    "key_name": "<em>cis</em>-3-Hepten-1-ol",
    "cn_name": "顺-3-庚烯-1-醇;",
    "alternate_name": "3-Hepten-1-ol, (3<em>Z</em>)-;3-Hepten-1-ol, (<em>Z</em>)-;(3<em>Z</em>)-3-Hepten-1-ol;<em>cis</em>-3-Hepten-1-ol;(<em>Z</em>)-3-Hepten-1-ol;(Z)-3-Hepten-1-ol;(<em>Z</em>)-3-Heptenol;(3<em>Z</em>)-Hepten-1-ol",
    "duplicated_cas_no": "",
    "SMILES": "C(=C\\CCO)\\CCC",
    "meta_data": {
        "InChI": "InChI=1S/C7H14O/c1-2-3-4-5-6-7-8/h4-5,8H,2-3,6-7H2,1H3/b5-4-",
        "InChIKey": null,
        "Canonical SMILES": "OCCC=CCCC",
        "Molecular Formula": "C<sub>7</sub>H<sub>14</sub>O",
        "Molecular Mass": "114.19",
        "Boiling Point": "169-170 °C @ Press: 760 Torr"
    }
}