{
    "cas_no": "558-32-7",
    "key_name": "Tetramethylammonium hexafluorophosphate",
    "cn_name": null,
    "alternate_name": "Methanaminium, <em>N</em>,<em>N</em>,<em>N</em>-trimethyl-, hexafluorophosphate(1-) (1:1);Ammonium, tetramethyl-, hexafluorophosphate(1-);Tetramethylammonium hexafluorophosphate;Methanaminium, <em>N</em>,<em>N</em>,<em>N</em>-trimethyl-, hexafluorophosphate(1-);Phosphate(1-), hexafluoro-, tetramethylammonium;Phosphate(1-), hexafluoro-, <em>N</em>,<em>N</em>,<em>N</em>-trimethylmethanaminium;Tetramethylammonium hexafluorophosphate(1-);NSC 221175;[Me<sub>4</sub>N][PF<sub>6</sub>]",
    "duplicated_cas_no": "879655-69-3",
    "SMILES": "[P+5]([F-])([F-])([F-])([F-])([F-])[F-].[N+](C)(C)(C)C",
    "meta_data": {
        "InChI": "InChI=1S/C4H12N.F6P/c1-5(2,3)4;1-7(2,3,4,5)6/h1-4H3;/q+1;-1",
        "InChIKey": null,
        "Canonical SMILES": "[F-][P+5]([F-])([F-])([F-])([F-])[F-].C[N+](C)(C)C",
        "Molecular Formula": "C<sub>4</sub>H<sub>12</sub>N.F<sub>6</sub>P",
        "Molecular Mass": "",
        "Melting Point": "&gt;250 °C"
    }
}