{
    "cas_no": "822-23-1",
    "key_name": "Octadecyl acetate",
    "cn_name": "乙酸十八脂;",
    "alternate_name": "Acetic acid, octadecyl ester;1-Octadecanol acetate;Octadecyl acetate;Stearyl acetate;1-Octadecyl acetate;<em>n</em>-Octadecyl acetate;NSC 5546",
    "duplicated_cas_no": "",
    "SMILES": "C(CCCCCCCCCCCC)CCCCCOC(C)=O",
    "meta_data": {
        "InChI": "InChI=1S/C20H40O2/c1-3-4-5-6-7-8-9-10-11-12-13-14-15-16-17-18-19-22-20(2)21/h3-19H2,1-2H3",
        "InChIKey": null,
        "Canonical SMILES": "O=C(OCCCCCCCCCCCCCCCCCC)C",
        "Molecular Formula": "C<sub>20</sub>H<sub>40</sub>O<sub>2</sub>",
        "Molecular Mass": "312.53",
        "Boiling Point": "172.4 °C @ Press: 1.5 Torr",
        "Melting Point": "34.5 °C"
    }
}