{
    "cas_no": "58878-37-8",
    "key_name": "Piperidine, 2-(2-chloroethyl)-1-methyl-, hydrochloride (1:1)",
    "cn_name": "2-氯乙基-N-甲基哌啶盐酸盐;2-(2-氯乙基)-1-甲基哌啶盐酸盐;",
    "alternate_name": "Piperidine, 2-(2-chloroethyl)-1-methyl-, hydrochloride (1:1);Piperidine, 2-(2-chloroethyl)-1-methyl-, hydrochloride;2-(2-Chloroethyl)-1-methylpiperidine hydrochloride",
    "duplicated_cas_no": "107388-85-2",
    "SMILES": "C(CCl)C1N(C)CCCC1.Cl",
    "meta_data": {
        "InChI": "InChI=1S/C8H16ClN.ClH/c1-10-7-3-2-4-8(10)5-6-9;/h8H,2-7H2,1H3;1H",
        "InChIKey": null,
        "Canonical SMILES": "Cl.ClCCC1N(C)CCCC1",
        "Molecular Formula": "C<sub>8</sub>H<sub>16</sub>ClN.ClH",
        "Molecular Mass": "",
        "Melting Point": "132-133 °C"
    }
}