{
    "cas_no": "2031-67-6",
    "key_name": "Triethoxymethylsilane",
    "cn_name": "甲基三乙氧基硅烷;",
    "alternate_name": "Silane, triethoxymethyl-;Triethoxymethylsilane;Methaneorthosiliconic acid, triethyl ester;Methyltriethoxysilane;Triethoxysilylmethane;A 162;ICI-EP 5850;TSL 8123;Monomethyltriethoxysilane;KBE 13LS1890;KBE 13;SZ 6072;Silquest A 162;LS 1890;Dynasylan MTES;NSC 5226;SIM 6555.0;ND 27;SZ 6383;Dynasylan MIES;MTES;Z 6383;SZ 607;KH 202;D 150;DX 701;D 150 (silane);DB 8031;WD 922;KH 132;CJ 8300;Xiameter OFS 6370;Geniosil M 1 Triethoxy;Z 8383;OFS 6383;A 11180;UP 301",
    "duplicated_cas_no": "",
    "SMILES": "[Si](OCC)(OCC)(OCC)C",
    "meta_data": {
        "InChI": "InChI=1S/C7H18O3Si/c1-5-8-11(4,9-6-2)10-7-3/h5-7H2,1-4H3",
        "InChIKey": null,
        "Canonical SMILES": "O(CC)[Si](OCC)(OCC)C",
        "Molecular Formula": "C<sub>7</sub>H<sub>18</sub>O<sub>3</sub>Si",
        "Molecular Mass": "178.30",
        "Boiling Point": "142 °C",
        "Density": "0.894 g/cm³"
    }
}