{
    "cas_no": "39977-44-1",
    "key_name": "Methyl 6-(hydroxymethyl)picolinate",
    "cn_name": "6-羟甲基吡啶-2-羧酸甲酯;",
    "alternate_name": "2-Pyridinecarboxylic acid, 6-(hydroxymethyl)-, methyl ester;Methyl 6-(hydroxymethyl)picolinate;2-(Hydroxymethyl)-6-methoxycarbonylpyridine;Methyl 6-(hydroxymethyl)-2-pyridinecarboxylate;6-(Hydroxymethyl)picolinic acid methyl ester",
    "duplicated_cas_no": "",
    "SMILES": "C(OC)(=O)C=1N=C(CO)C=CC1",
    "meta_data": {
        "InChI": "InChI=1S/C8H9NO3/c1-12-8(11)7-4-2-3-6(5-10)9-7/h2-4,10H,5H2,1H3",
        "InChIKey": null,
        "Canonical SMILES": "O=C(OC)C=1N=C(C=CC1)CO",
        "Molecular Formula": "C<sub>8</sub>H<sub>9</sub>NO<sub>3</sub>",
        "Molecular Mass": "167.16",
        "Melting Point": "178 °C"
    }
}