{
    "cas_no": "686-69-1",
    "key_name": "Chlorodiethylphosphine",
    "cn_name": "氯(二乙基)膦;氯化二乙基磷;二乙基氯化膦;",
    "alternate_name": "Phosphinous chloride, <em>P</em>,<em>P</em>-diethyl-;Phosphinous chloride, diethyl-;<em>P</em>,<em>P</em>-Diethylphosphinous chloride;Chlorodiethylphosphine;Diethylchlorophosphine;Diethylphosphine chloride;Diethylphosphinous chloride;Chlorodiethylphosphane",
    "duplicated_cas_no": "",
    "SMILES": "P(CC)(CC)Cl",
    "meta_data": {
        "InChI": "InChI=1S/C4H10ClP/c1-3-6(5)4-2/h3-4H2,1-2H3",
        "InChIKey": null,
        "Canonical SMILES": "ClP(CC)CC",
        "Molecular Formula": "C<sub>4</sub>H<sub>10</sub>ClP",
        "Molecular Mass": "124.55",
        "Boiling Point": "131-132 °C",
        "Density": "1.0233 g/cm³ @ Temp: 20 °C"
    }
}