{
    "cas_no": "5290-24-4",
    "key_name": "1-Propanol, 3-(dichloromethylsilyl)-, 1-acetate",
    "cn_name": "3-乙酰氧基丙基甲基二氯硅烷;",
    "alternate_name": "1-Propanol, 3-(dichloromethylsilyl)-, 1-acetate;1-Propanol, 3-(dichloromethylsilyl)-, acetate;γ-Acetoxypropylmethyldichlorosilane;(3-Acetoxypropyl)dichloromethylsilane;3-Acetoxypropyl methyl dichlorosilane",
    "duplicated_cas_no": "",
    "SMILES": "C(COC(C)=O)C[Si](C)(Cl)Cl",
    "meta_data": {
        "InChI": "InChI=1S/C6H12Cl2O2Si/c1-6(9)10-4-3-5-11(2,7)8/h3-5H2,1-2H3",
        "InChIKey": null,
        "Canonical SMILES": "O=C(OCCC[Si](Cl)(Cl)C)C",
        "Molecular Formula": "C<sub>6</sub>H<sub>12</sub>Cl<sub>2</sub>O<sub>2</sub>Si",
        "Molecular Mass": "215.15",
        "Boiling Point": "142 °C @ Press: 73 Torr",
        "Density": "1.151 g/cm³ @ Temp: 25 °C"
    }
}