{
    "cas_no": "2430-27-5",
    "key_name": "Valpromide",
    "cn_name": "丙戊酰胺;2,2-二-正丙基乙酰胺;",
    "alternate_name": "Pentanamide, 2-propyl-;Valeramide, 2-propyl-;2-Propylpentanamide;Depamide;2-Propylvaleramide;α-Propylvaleramide;2-Propylpentamide;Depamid;Dipropylacetamide;Di-<em>n</em>-propylacetamide;Valpromide",
    "duplicated_cas_no": "",
    "SMILES": "C(CCC)(CCC)C(N)=O",
    "meta_data": {
        "InChI": "InChI=1S/C8H17NO/c1-3-5-7(6-4-2)8(9)10/h7H,3-6H2,1-2H3,(H2,9,10)",
        "InChIKey": null,
        "Canonical SMILES": "O=C(N)C(CCC)CCC",
        "Molecular Formula": "C<sub>8</sub>H<sub>17</sub>NO",
        "Molecular Mass": "143.23",
        "Melting Point": "125 °C"
    }
}