{
    "cas_no": "23357-52-0",
    "key_name": "(+)-1,2,3,4-Tetrahydro-1-naphthylamine",
    "cn_name": "(S)-1,2,3,4-四氢-1-萘胺;(S)-1-氨基-1,2,3,4-四氢化萘;",
    "alternate_name": "1-Naphthalenamine, 1,2,3,4-tetrahydro-, (1<em>S</em>)-;1-Naphthylamine, 1,2,3,4-tetrahydro-, (<em>S</em>)-(+)-;1-Naphthalenamine, 1,2,3,4-tetrahydro-, (<em>S</em>)-;(1<em>S</em>)-1,2,3,4-Tetrahydro-1-naphthalenamine;(<em>S</em>)-(+)-1,2,3,4-Tetrahydro-1-aminonaphthalene;(+)-1,2,3,4-Tetrahydro-1-naphthylamine;(<em>S</em>)-(+)-1,2,3,4-Tetrahydro-1-naphthylamine;(<em>S</em>)-(+)-1-Aminotetralin;(<em>S</em>)-1,2,3,4-Tetrahydro-1-naphthylamine;(<em>S</em>)-1-Aminotetralin;(+)-1-Aminotetralin;<em>S</em>-(+)-1-Amino-1,2,3,4-tetrahydronaphthalene;(<em>S</em>)-1,2,3,4-Tetrahydro-1-naphthalenamine;(1<em>S</em>)-1,2,3,4-Tetrahydro-1-naphthalenylamine;(1S)-1,2,3,4-Tetrahydronaphthalen-1-amine;(<em>S</em>)-1,2,3,4-Tetrahydronaphthalen-1-ylamine;(1<em>S</em>)-1,2,3,4-Tetrahydronaphthalen-1-amine;(<em>S</em>)-1-Amino-1,2,3,4-tetrahydronaphthalene;(1S)-Tetralin-1-amine",
    "duplicated_cas_no": "",
    "SMILES": "N[C@@H]1C=2C(CCC1)=CC=CC2",
    "meta_data": {
        "InChI": "InChI=1S/C10H13N/c11-10-7-3-5-8-4-1-2-6-9(8)10/h1-2,4,6,10H,3,5,7,11H2/t10-/m0/s1",
        "InChIKey": null,
        "Canonical SMILES": "NC1C=2C=CC=CC2CCC1",
        "Molecular Formula": "C<sub>10</sub>H<sub>13</sub>N",
        "Molecular Mass": "147.22",
        "Melting Point": "95-97 °C"
    }
}