{
    "cas_no": "4044-65-9",
    "key_name": "<em>p</em>-Phenylene diisothiocyanate",
    "cn_name": "双硫氰苄;",
    "alternate_name": "Benzene, 1,4-diisothiocyanato-;Isothiocyanic acid, <em>p</em>-phenylene ester;1,4-Diisothiocyanatobenzene;Bitoscanate;WM 842;Jonit;Phenylene-1,4-diisothiocyanate;<em>p</em>-Phenylene diisothiocyanate;<em>p</em>-Phenylene bisisothiocyanate;Bitoscanat;PDITC;1,4-phenylenediisothiocyanate",
    "duplicated_cas_no": "",
    "SMILES": "N(=C=S)C1=CC=C(N=C=S)C=C1",
    "meta_data": {
        "InChI": "InChI=1S/C8H4N2S2/c11-5-9-7-1-2-8(4-3-7)10-6-12/h1-4H",
        "InChIKey": null,
        "Canonical SMILES": "S=C=NC1=CC=C(N=C=S)C=C1",
        "Molecular Formula": "C<sub>8</sub>H<sub>4</sub>N<sub>2</sub>S<sub>2</sub>",
        "Molecular Mass": "192.26",
        "Melting Point": "132 °C"
    }
}