{
    "cas_no": "55750-62-4",
    "key_name": "Succinimidyl 3-maleimidopropionate",
    "cn_name": "3-马来酰亚胺基丙酸羟基琥珀酰亚胺酯;",
    "alternate_name": "1<em>H</em>-Pyrrole-1-propanoic acid, 2,5-dihydro-2,5-dioxo-, 2,5-dioxo-1-pyrrolidinyl ester;1<em>H</em>-Pyrrole-2,5-dione, 1-[3-[(2,5-dioxo-1-pyrrolidinyl)oxy]-3-oxopropyl]-;3-Maleimidopropionic acid hydroxysuccinimide ester;<em>N</em>-Succinimidyl 3-(<em>N</em>-maleimido)propionate;<em>N</em>-Succinimidyl 3-maleimidopropionate;β-Maleimidopropionic acid <em>N</em>-hydroxysuccinimide ester;3-Maleimidopropionic acid <em>N</em>-hydroxysuccinimide ester;BMPS;BMPS (crosslinking agent);3-(2,5-Dioxo-2,5-dihydropyrrol-1-yl)propionic acid 2,5-dioxopyrrolidiny-1-yl ester;Succinimidyl 3-maleimidopropanoate;3-Maleimidopropionic acid <em>N</em>-succinimidyl ester;Succinimidyl 3-maleimidopropionate;2,5-Dioxopyrrolidin-1-yl 3-(2,5-dioxo-2,5-dihydro-lH-pyrrol-1-yl)propanoate;(2,5-Dioxopyrrolidin-1-yl) 3-(2,5-dioxopyrrol-1-yl)propanoate;2,5-Dioxopyrrolidin-1-yl 3-(2,5-dioxo-2,5-dihydro-1<em>H</em>-pyrrol-1-yl)propanoate;<em>N</em>-(3-Maleimidopropanoyloxy)succinimide",
    "duplicated_cas_no": "",
    "SMILES": "O(C(CCN1C(=O)C=CC1=O)=O)N2C(=O)CCC2=O",
    "meta_data": {
        "InChI": "InChI=1S/C11H10N2O6/c14-7-1-2-8(15)12(7)6-5-11(18)19-13-9(16)3-4-10(13)17/h1-2H,3-6H2",
        "InChIKey": null,
        "Canonical SMILES": "O=C1C=CC(=O)N1CCC(=O)ON2C(=O)CCC2=O",
        "Molecular Formula": "C<sub>11</sub>H<sub>10</sub>N<sub>2</sub>O<sub>6</sub>",
        "Molecular Mass": "266.21",
        "Melting Point": "158-161 °C"
    }
}