{
    "cas_no": "1067-74-9",
    "key_name": "Methyl (diethylphosphono)acetate",
    "cn_name": "膦酰基乙酸甲酯二乙酯;",
    "alternate_name": "Acetic acid, 2-(diethoxyphosphinyl)-, methyl ester;Acetic acid, phosphono-, <em>P</em>,<em>P</em>-diethyl methyl ester;Acetic acid, (diethoxyphosphinyl)-, methyl ester;Acetic acid, phosphono-, diethyl 1-methyl ester;Diethylphosphonoacetic acid methyl ester;Diethyl methoxycarbonylmethanephosphonate;Diethyl carbomethoxymethylphosphonate;Diethyl phosphonate, methoxycarbonylmethyl-;Methyl (diethylphosphono)acetate;<em>O</em>,<em>O</em>-Diethyl phosphonoacetic acid methyl ester;(Methoxycarbonylmethyl) diethoxyphosphine oxide;Methoxycarbonylmethanephosphonic acid diethyl ester;Methyl diethoxyphosphonoacetate;Methyl di-<em>O</em>-ethylphosphonoacetate;Diethyl (methoxycarbonylmethyl)phosphonate;[(Methoxycarbonyl)methyl]phosphonic acid diethyl ester;Methyl 2-(diethylphosphonato)acetate;(Diethoxyphosphinyl)acetic acid methyl ester;Methyl (diethoxyphosphinyl)acetate;NSC 147757;Methyl 2-(diethylphosphono)acetate;Methyl 2-(diethoxyphosphono)acetate;Methyl 2-(diethoxyphosphinyl)acetate;Methyl 2-(diethoxyphosphoryl)acetate",
    "duplicated_cas_no": "",
    "SMILES": "P(CC(OC)=O)(OCC)(OCC)=O",
    "meta_data": {
        "InChI": "InChI=1S/C7H15O5P/c1-4-11-13(9,12-5-2)6-7(8)10-3/h4-6H2,1-3H3",
        "InChIKey": null,
        "Canonical SMILES": "O=C(OC)CP(=O)(OCC)OCC",
        "Molecular Formula": "C<sub>7</sub>H<sub>15</sub>O<sub>5</sub>P",
        "Molecular Mass": "210.16",
        "Boiling Point": "99 °C @ Press: 1 Torr",
        "Density": "1.1611 g/cm³ @ Temp: 20 °C"
    }
}