{
    "cas_no": "146-77-0",
    "key_name": "2-Chloroadenosine",
    "cn_name": "2-氯腺嘌呤核苷;",
    "alternate_name": "Adenosine, 2-chloro-;2-Chloroadenosine;2-Chloro-<span class=\"text-smallcaps\">D</span>-adenosine;Antibiotic AT 265B;NSC 36896;CADO;MeSH ID: D015762",
    "duplicated_cas_no": "",
    "SMILES": "NC1=C2C(N(C=N2)[C@@H]3O[C@H](CO)[C@@H](O)[C@H]3O)=NC(Cl)=N1",
    "meta_data": {
        "InChI": "InChI=1S/C10H12ClN5O4/c11-10-14-7(12)4-8(15-10)16(2-13-4)9-6(19)5(18)3(1-17)20-9/h2-3,5-6,9,17-19H,1H2,(H2,12,14,15)/t3-,5-,6-,9-/m1/s1",
        "InChIKey": null,
        "Canonical SMILES": "ClC=1N=C(N)C=2N=CN(C2N1)C3OC(CO)C(O)C3O",
        "Molecular Formula": "C<sub>10</sub>H<sub>12</sub>ClN<sub>5</sub>O<sub>4</sub>",
        "Molecular Mass": "301.69",
        "Melting Point": "135 °C"
    }
}