{
    "cas_no": "477-48-5",
    "key_name": "(-)-Picropodophyllone",
    "cn_name": null,
    "alternate_name": "Furo[3′,4′:6,7]naphtho[2,3-<em>d</em>]-1,3-dioxole-5,8-dione, 5a,6,8a,9-tetrahydro-9-(3,4,5-trimethoxyphenyl)-, (5a<em>R</em>,8a<em>S</em>,9<em>R</em>)-;Picropodophyllone;Furo[3′,4′:6,7]naphtho[2,3-<em>d</em>]-1,3-dioxole-5,8-dione, 5a,6,8a,9-tetrahydro-9-(3,4,5-trimethoxyphenyl)-, [5a<em>R</em>-(5aα,8aα,9α)]-;(5a<em>R</em>,8a<em>S</em>,9<em>R</em>)-5a,6,8a,9-Tetrahydro-9-(3,4,5-trimethoxyphenyl)furo[3′,4′:6,7]naphtho[2,3-<em>d</em>]-1,3-dioxole-5,8-dione;Picropodophyllotoxon;Picropodophyllotoxone;(-)-Picropodophyllone",
    "duplicated_cas_no": "104264-44-0",
    "SMILES": "O=C1[C@]2([C@@H](C=3C(C(=O)[C@]2(CO1)[H])=CC4=C(C3)OCO4)C5=CC(OC)=C(OC)C(OC)=C5)[H]",
    "meta_data": {
        "InChI": "InChI=1S/C22H20O8/c1-25-16-4-10(5-17(26-2)21(16)27-3)18-11-6-14-15(30-9-29-14)7-12(11)20(23)13-8-28-22(24)19(13)18/h4-7,13,18-19H,8-9H2,1-3H3/t13-,18+,19+/m0/s1",
        "InChIKey": null,
        "Canonical SMILES": "O=C1OCC2C(=O)C3=CC=4OCOC4C=C3C(C5=CC(OC)=C(OC)C(OC)=C5)C12",
        "Molecular Formula": "C<sub>22</sub>H<sub>20</sub>O<sub>8</sub>",
        "Molecular Mass": "412.39",
        "Melting Point": "153-154 °C"
    }
}