{
    "cas_no": "40499-83-0",
    "key_name": "3-Pyrrolidinol",
    "cn_name": "3-羟基吡咯烷;3-吡咯烷醇;",
    "alternate_name": "3-Pyrrolidinol;3-Pyrrolidinol, (±)-;3-Hydroxypyrrolidine;(±)-3-Pyrrolidinol;(<em>RS</em>)-3-Pyrrolidinol;(±)-3-Hydroxypyrrolidine;NSC 89294;Pyrrolidin-3-ol;Pyrrolidine-3-ol",
    "duplicated_cas_no": "83220-72-8",
    "SMILES": "OC1CCNC1",
    "meta_data": {
        "InChI": "InChI=1S/C4H9NO/c6-4-1-2-5-3-4/h4-6H,1-3H2",
        "InChIKey": null,
        "Canonical SMILES": "OC1CNCC1",
        "Molecular Formula": "C<sub>4</sub>H<sub>9</sub>NO",
        "Molecular Mass": "87.12",
        "Boiling Point": "102-103 °C @ Press: 12 Torr"
    }
}