{
    "cas_no": "479-27-6",
    "key_name": "1,8-Diaminonaphthalene",
    "cn_name": "1,8-二氨基萘;",
    "alternate_name": "1,8-Naphthalenediamine;1,8-Diaminonaphthalene;1,8-Naphthylenediamine;NSC 6081;1,8-Diamine naphthaline",
    "duplicated_cas_no": "",
    "SMILES": "NC=1C2=C(C=CC=C2N)C=CC1",
    "meta_data": {
        "InChI": "InChI=1S/C10H10N2/c11-8-5-1-3-7-4-2-6-9(12)10(7)8/h1-6H,11-12H2",
        "InChIKey": null,
        "Canonical SMILES": "NC1=CC=CC=2C=CC=C(N)C12",
        "Molecular Formula": "C<sub>10</sub>H<sub>10</sub>N<sub>2</sub>",
        "Molecular Mass": "158.20",
        "Boiling Point": "205 °C",
        "Melting Point": "66.5 °C"
    }
}