{
    "cas_no": "50-12-4",
    "key_name": "(±)-Mephenytoin",
    "cn_name": null,
    "alternate_name": "2,4-Imidazolidinedione, 5-ethyl-3-methyl-5-phenyl-;Hydantoin, 5-ethyl-3-methyl-5-phenyl-;5-Ethyl-3-methyl-5-phenyl-2,4-imidazolidinedione;5-Ethyl-3-methyl-5-phenylhydantoin;5-Ethyl-3-methyl-5-phenyl-2,4(3<em>H</em>,5<em>H</em>)-imidazoledione;5-Ethyl-3-methyl-5-phenylimidazolidin-2,4-dione;Insulton;Mephenytoin;Mesantoin;Mesontoin;Methoin;3-Methyl-5-ethyl-5-phenylhydantoin;Phenantoin;Phenylethylmethylhydantoin;Triantoin;Epilan;Sacerno;3-Methyl-5-ethyl-5-phenyl-2,4-imidazolidinedione;Methylphenetoin;Epiazin;Metydan;Sedantoin;Fenantoin;(±)-Mephenytoin;(±)-5-Ethyl-3-methyl-5-phenylhydantoin;(±)-Mesantoin;<span class=\"text-smallcaps\">DL</span>-Mephenytoin;Gerot-Epilan;Sedantional;Mesdontoin;3-Ethylnirvanol;NSC 34652;MeSH ID: D008617",
    "duplicated_cas_no": "74007-05-9",
    "SMILES": "C(C)C1(C(=O)N(C)C(=O)N1)C2=CC=CC=C2",
    "meta_data": {
        "InChI": "InChI=1S/C12H14N2O2/c1-3-12(9-7-5-4-6-8-9)10(15)14(2)11(16)13-12/h4-8H,3H2,1-2H3,(H,13,16)",
        "InChIKey": null,
        "Canonical SMILES": "O=C1NC(C=2C=CC=CC2)(C(=O)N1C)CC",
        "Molecular Formula": "C<sub>12</sub>H<sub>14</sub>N<sub>2</sub>O<sub>2</sub>",
        "Molecular Mass": "218.25",
        "Melting Point": "136-137 °C"
    }
}