{
    "cas_no": "7473-98-5",
    "key_name": "2-Hydroxy-2-methyl-1-phenylpropan-1-one",
    "cn_name": "2-羟基-2-甲基-1-苯基-1-丙酮;2-羟基-2-甲基苯基丙烷-1-酮;",
    "alternate_name": "1-Propanone, 2-hydroxy-2-methyl-1-phenyl-;Propiophenone, 2-hydroxy-2-methyl-;2-Hydroxy-2-methyl-1-phenyl-1-propanone;2-Hydroxy-2-methylpropiophenone;α-Hydroxyisobutyrophenone;2-Benzoyl-2-propanol;1-Phenyl-2-hydroxy-2-methyl-1-propanone;2-Hydroxy-2-benzoylpropane;2-Hydroxy-2-methyl-1-phenylpropanone;2-Hydroxy-2,2-dimethylacetophenone;1-Hydroxy-1-methylethyl phenyl ketone;α-Hydroxy-α-methylpropiophenone;UV 1173;EM 1173;Darocur 1173;2-Hydroxy-2-methyl-1-phenylpropane-1-one;DC 1173;Irgacure 1173;α-Hydroxy-α,α-dimethylacetophenone;2-Benzoyl-2-hydroxypropane;I 1173;1-Phenyl-2-methyl-2-hydroxypropanone;Chivacure 173;NSC 401744;FirstCure HMPP;Benacure 1173;D 1173;Darocur 173;SR 1121;Sarcure 1121;Micure HP 8;IHT-PI 1173;2-Methyl-2-hydroxy-1-phenyl-1-propanone;Omnirad 73;Runtecure 1103;Additol HDMAP;DAR 1173;α,α-Dimethyl-α-hydroxyacetophenone;Runtecure 1173;Ciba 1173;Photocure 1173;Genocure DMHA;2-Hydroxy-2-methyl-1-propiophenone;2-Hydroxy-2-methyl-propylphenone;Doublecure 173;IHT-PI 6022;IHT-PI PBZ;UV 636;Genocure DHMA;Esacure KL 200;H 0991;Darocur DR 1173;2-Hydroxy-2-methyl-1-phenylpropan-1-one;Chemcure 73;1173HMPE;Photoinitiator 1173;AgiSyn 1810;IRG 1173;HMPP;Methyl-1-phenylpropan-1-one;JRCure 1103;2,2-Dimethyl-2-hydroxyacetophenone;Boxing 1173;Doublecure 1173;JRcure 1173;2-Hydroxy-methylphenylpropan-1-one;2-Hydroxy-2-methylphenylpropanone;API 1173;Hydroxy dimethyl acetophenone;2-Methyl-3-phenyl-3-oxopropan-2-ol;Omnirad 1173;IC 1173;MV 5002;Photo 1173;Darocur 1137;Gencure 1173;Darocur 1173D;Photoinitiator 1173D;IGM 1173;PI 1173;Lunacure 100;Omnicure 1173;Speedcure 73;Darocur 1172;Omnirad 102;KL 200;Photocure 50;H 15540;DA 1173;Darocur 97;Hycure 1173;HMPP 1173",
    "duplicated_cas_no": "71833-40-4;75718-48-8;126038-32-2;1245266-91-4;1266684-64-3;2228828-75-7;2493119-98-3",
    "SMILES": "C(C(C)(C)O)(=O)C1=CC=CC=C1",
    "meta_data": {
        "InChI": "InChI=1S/C10H12O2/c1-10(2,12)9(11)8-6-4-3-5-7-8/h3-7,12H,1-2H3",
        "InChIKey": null,
        "Canonical SMILES": "O=C(C=1C=CC=CC1)C(O)(C)C",
        "Molecular Formula": "C<sub>10</sub>H<sub>12</sub>O<sub>2</sub>",
        "Molecular Mass": "164.20",
        "Boiling Point": "116-118 °C @ Press: 11 Torr",
        "Melting Point": "&gt;186 °C",
        "Density": "1.0775 g/cm³ @ Temp: 20 °C"
    }
}