{
    "cas_no": "13343-63-0",
    "key_name": "Phenylmethyl 2-(acetylamino)-2-deoxy-4,6-<em>O</em>-(phenylmethylene)-α-<span class=\"text-smallcaps\">D</span>-glucopyranoside",
    "cn_name": null,
    "alternate_name": "α-<span class=\"text-smallcaps\">D</span>-Glucopyranoside, phenylmethyl 2-(acetylamino)-2-deoxy-4,6-<em>O</em>-(phenylmethylene)-;Glucopyranoside, benzyl 2-acetamido-4,6-<em>O</em>-benzylidene-2-deoxy-, α-<span class=\"text-smallcaps\">D</span>-;α-<span class=\"text-smallcaps\">D</span>-Glucopyranoside, benzyl 2-acetamido-4,6-<em>O</em>-benzylidene-2-deoxy-;Pyrano[3,2-<em>d</em>]-1,3-dioxin, α-<span class=\"text-smallcaps\">D</span>-glucopyranoside deriv.;Phenylmethyl 2-(acetylamino)-2-deoxy-4,6-<em>O</em>-(phenylmethylene)-α-<span class=\"text-smallcaps\">D</span>-glucopyranoside;Benzyl 2-acetamido-2-deoxy-4,6-<em>O</em>-benzylidene-α-<span class=\"text-smallcaps\">D</span>-glucopyranoside",
    "duplicated_cas_no": "",
    "SMILES": "O[C@H]1[C@]2([C@](O[C@H](OCC3=CC=CC=C3)[C@@H]1NC(C)=O)(COC(O2)C4=CC=CC=C4)[H])[H]",
    "meta_data": {
        "InChI": "InChI=1S/C22H25NO6/c1-14(24)23-18-19(25)20-17(13-27-21(29-20)16-10-6-3-7-11-16)28-22(18)26-12-15-8-4-2-5-9-15/h2-11,17-22,25H,12-13H2,1H3,(H,23,24)/t17-,18-,19-,20-,21?,22+/m1/s1",
        "InChIKey": null,
        "Canonical SMILES": "O=C(NC1C(OCC=2C=CC=CC2)OC3COC(OC3C1O)C=4C=CC=CC4)C",
        "Molecular Formula": "C<sub>22</sub>H<sub>25</sub>NO<sub>6</sub>",
        "Molecular Mass": "399.44",
        "Melting Point": "260-262 °C"
    }
}