{
    "cas_no": "18868-43-4",
    "key_name": "Molybdenum dioxide",
    "cn_name": null,
    "alternate_name": "Molybdenum oxide (MoO<sub>2</sub>);Molybdenum dioxide;Molybdenum oxide",
    "duplicated_cas_no": "12058-08-1",
    "SMILES": "[Mo](=O)=O",
    "meta_data": {
        "InChI": "InChI=1S/Mo.2O",
        "InChIKey": null,
        "Canonical SMILES": "O=[Mo]=O",
        "Molecular Formula": "MoO<sub>2</sub>",
        "Molecular Mass": "",
        "Melting Point": "2000 °C",
        "Density": "3.5 g/cm³"
    }
}