{
    "cas_no": "109-19-3",
    "key_name": "Butyl isovalerate",
    "cn_name": "异戊酸丁酯;3-甲基丁酸丁酯;",
    "alternate_name": "Butanoic acid, 3-methyl-, butyl ester;Isovaleric acid, butyl ester;Butyl isovalerate;Butyl 3-methylbutyrate;<em>n</em>-Butyl isovalerate;Butyl 3-methylbutanoate;3-Methylbutyric acid butyl ester;<em>n</em>-Butyl 3-methylbutyrate;NSC 6187;3-Methylbutanoic acid butyl ester",
    "duplicated_cas_no": "",
    "SMILES": "O(C(CC(C)C)=O)CCCC",
    "meta_data": {
        "InChI": "InChI=1S/C9H18O2/c1-4-5-6-11-9(10)7-8(2)3/h8H,4-7H2,1-3H3",
        "InChIKey": null,
        "Canonical SMILES": "O=C(OCCCC)CC(C)C",
        "Molecular Formula": "C<sub>9</sub>H<sub>18</sub>O<sub>2</sub>",
        "Molecular Mass": "158.24",
        "Boiling Point": "150 °C",
        "Density": "0.87 g/cm³"
    }
}