{
    "cas_no": "1287-13-4",
    "key_name": "Ruthenocene",
    "cn_name": "双(环戊二烯)钌;二茂钌;",
    "alternate_name": "Ruthenocene;Ruthenium, di-π-cyclopentadienyl-;Ruthenium, dicyclopentadienyl-;Ruthenium, bis(η<sup>5</sup>-2,4-cyclopentadien-1-yl)-;Dicyclopentadienyl ruthenium;Bis(cyclopentadienyl)ruthenium;Bis(cyclopentadienyl)ruthenium(II)",
    "duplicated_cas_no": "",
    "SMILES": "[Ru+2]12345678([CH]=9[CH]1=[CH]2[CH-]3[CH]49)[CH]=%10[CH-]5[CH]6=[CH]7[CH]8%10",
    "meta_data": {
        "InChI": "InChI=1S/2C5H5.Ru/c2*1-2-4-5-3-1;/h2*1-5H;/q2*-1;+2",
        "InChIKey": null,
        "Canonical SMILES": "[CH]=12[CH]3=[CH]4[CH-]5[CH]1[Ru+2]23678945[CH]=%10[CH]9=[CH]8[CH-]7[CH]%106",
        "Molecular Formula": "C<sub>10</sub>H<sub>10</sub>Ru",
        "Molecular Mass": "",
        "Melting Point": "195.5 °C"
    }
}