{
    "cas_no": "98-00-0",
    "key_name": "Furfuryl alcohol",
    "cn_name": "糠醇;",
    "alternate_name": "2-Furanmethanol;Furfuryl alcohol;2-Furancarbinol;Furfuralcohol;α-Furylcarbinol;2-Furylcarbinol;Furylcarbinol;2-Furfuryl alcohol;2-(Hydroxymethyl)furan;5-Hydroxymethylfuran;α-Furfuryl alcohol;2-Furylmethanol;2-Furanylmethanol;Chem-Rez 200;Furfuranol;NSC 8843;2-Furylmethyl alcohol;Chem-Rez Fury 454",
    "duplicated_cas_no": "1262335-14-7",
    "SMILES": "C(O)C1=CC=CO1",
    "meta_data": {
        "InChI": "InChI=1S/C5H6O2/c6-4-5-2-1-3-7-5/h1-3,6H,4H2",
        "InChIKey": null,
        "Canonical SMILES": "OCC=1OC=CC1",
        "Molecular Formula": "C<sub>5</sub>H<sub>6</sub>O<sub>2</sub>",
        "Molecular Mass": "98.10",
        "Boiling Point": "171 °C @ Press: 750 Torr",
        "Melting Point": "-15 °C",
        "Density": "1.1296 g/cm³ @ Temp: 20 °C"
    }
}