{
    "cas_no": "58-28-6",
    "key_name": "Desipramine hydrochloride",
    "cn_name": "3-氟茴香硫醚;盐酸去甲丙咪嗪;",
    "alternate_name": "5<em>H</em>-Dibenz[<em>b</em>,<em>f</em>]azepine-5-propanamine, 10,11-dihydro-<em>N</em>-methyl-, hydrochloride (1:1);5<em>H</em>-Dibenz[<em>b</em>,<em>f</em>]azepine, 10,11-dihydro-5-[3-(methylamino)propyl]-, monohydrochloride;5<em>H</em>-Dibenz[<em>b</em>,<em>f</em>]azepine-5-propanamine, 10,11-dihydro-<em>N</em>-methyl-, monohydrochloride;EX 4355;JB 8181;G 35020;Demethylimipramine hydrochloride;Desipramine hydrochloride;10,11-Dihydro-5-[3-(methylamino)propyl]-5<em>H</em>-dibenz[<em>b</em>,<em>f</em>]azepine monohydrochloride;DMI hydrochloride;GMI;<em>N</em>-(γ-Methylaminopropyl)iminodibenzyl hydrochloride;Pertofrane;Desipramine monohydrochloride;Pertofran;Desmethylimipramine monohydrochloride;Desmethylimipramine chloride;5-[3-(Methylamino)propyl]-5<em>H</em>-dibenz[<em>b</em>,<em>f</em>]azepine hydrochloride;Desimipramine-hydrochloride;Norpramin;Desmethylimipramine-hydrochloride;RMI 9384A;NSC 114901;Nortrimil;Petilil",
    "duplicated_cas_no": "",
    "SMILES": "C(CCNC)N1C=2C(CCC=3C1=CC=CC3)=CC=CC2.Cl",
    "meta_data": {
        "InChI": "InChI=1S/C18H22N2.ClH/c1-19-13-6-14-20-17-9-4-2-7-15(17)11-12-16-8-3-5-10-18(16)20;/h2-5,7-10,19H,6,11-14H2,1H3;1H",
        "InChIKey": null,
        "Canonical SMILES": "Cl.C=1C=CC2=C(C1)N(C=3C=CC=CC3CC2)CCCNC",
        "Molecular Formula": "C<sub>18</sub>H<sub>22</sub>N<sub>2</sub>.ClH",
        "Molecular Mass": "",
        "Melting Point": "215-216 °C"
    }
}