{
    "cas_no": "132605-96-0",
    "key_name": "(2<em>R</em>)-2-[[[(1,1-Dimethylethoxy)carbonyl]amino]methyl]-4-methylpentanoic acid",
    "cn_name": null,
    "alternate_name": "Pentanoic acid, 2-[[[(1,1-dimethylethoxy)carbonyl]amino]methyl]-4-methyl-, (2<em>R</em>)-;Pentanoic acid, 2-[[[(1,1-dimethylethoxy)carbonyl]amino]methyl]-4-methyl-, (<em>R</em>)-;(2<em>R</em>)-2-[[[(1,1-Dimethylethoxy)carbonyl]amino]methyl]-4-methylpentanoic acid;(2R)-2-([[(<em>tert</em>-Butoxy)carbonyl]amino]methyl)-4-methylpentanoic acid",
    "duplicated_cas_no": "",
    "SMILES": "[C@H](CNC(OC(C)(C)C)=O)(CC(C)C)C(O)=O",
    "meta_data": {
        "InChI": "InChI=1S/C12H23NO4/c1-8(2)6-9(10(14)15)7-13-11(16)17-12(3,4)5/h8-9H,6-7H2,1-5H3,(H,13,16)(H,14,15)/t9-/m1/s1",
        "InChIKey": null,
        "Canonical SMILES": "O=C(OC(C)(C)C)NCC(C(=O)O)CC(C)C",
        "Molecular Formula": "C<sub>12</sub>H<sub>23</sub>NO<sub>4</sub>",
        "Molecular Mass": "245.32",
        "Melting Point": "74 °C"
    }
}