{
    "cas_no": "998-93-6",
    "key_name": "4-Bromoheptane",
    "cn_name": "4-溴庚烷;4-溴庚烷;",
    "alternate_name": "Heptane, 4-bromo-;4-Bromoheptane;4-Heptyl bromide",
    "duplicated_cas_no": "",
    "SMILES": "C(CCC)(CCC)Br",
    "meta_data": {
        "InChI": "InChI=1S/C7H15Br/c1-3-5-7(8)6-4-2/h7H,3-6H2,1-2H3",
        "InChIKey": null,
        "Canonical SMILES": "BrC(CCC)CCC",
        "Molecular Formula": "C<sub>7</sub>H<sub>15</sub>Br",
        "Molecular Mass": "179.10",
        "Boiling Point": "55 °C @ Press: 11 Torr",
        "Density": "1.1389 g/cm³ @ Temp: 20 °C"
    }
}