{
    "cas_no": "17018-07-4",
    "key_name": "1,3-Bis(2-propen-1-yloxy)-2-propanol",
    "cn_name": "α,α-二丙烯酸甘油酯;",
    "alternate_name": "2-Propanol, 1,3-bis(2-propen-1-yloxy)-;2-Propanol, 1,3-bis(allyloxy)-;2-Propanol, 1,3-bis(2-propenyloxy)-;1,3-Bis(2-propen-1-yloxy)-2-propanol;Glycerol 1,3-diallyl diether;4,8-Dioxa-6-hydroxy-1,10-undecadiene;1,3-Bis(allyloxy)-2-propanol;Glycerol 1,3-diallyl ether;1,3-Diallyloxy-2-propanol;Glyceryl 1,3-diallyl ether;1,3-Di-<em>O</em>-allylglycerin;1,3-Bis(prop-2-enoxy)propan-2-ol;D 2146;Glycerol α,α′-diallyl ether",
    "duplicated_cas_no": "132735-04-7;53146-44-4",
    "SMILES": "C(C(COCC=C)O)OCC=C",
    "meta_data": {
        "InChI": "InChI=1S/C9H16O3/c1-3-5-11-7-9(10)8-12-6-4-2/h3-4,9-10H,1-2,5-8H2",
        "InChIKey": null,
        "Canonical SMILES": "OC(COCC=C)COCC=C",
        "Molecular Formula": "C<sub>9</sub>H<sub>16</sub>O<sub>3</sub>",
        "Molecular Mass": "172.22",
        "Boiling Point": "68-69 °C @ Press: 0.9-1.0 Torr",
        "Density": "0.991 g/cm³ @ Temp: 20 °C"
    }
}