{
    "cas_no": "595-39-1",
    "key_name": "<span class=\"text-smallcaps\">DL</span>-Isovaline",
    "cn_name": null,
    "alternate_name": "Isovaline;<span class=\"text-smallcaps\">DL</span>-Isovaline;<em>dl</em>-2-Amino-2-methylbutyric acid;<span class=\"text-smallcaps\">DL</span>-α-Ethylalanine;DL-α-Amino-α-methylbutyric acid;Alanine, 2-ethyl-;2-Amino-2-methylbutanoic acid;2-Amino-2-methylbutyric acid;2-Azaniumyl-2-methylbutanoate",
    "duplicated_cas_no": "465-58-7",
    "SMILES": "C(C(O)=O)(CC)(C)N",
    "meta_data": {
        "InChI": "InChI=1S/C5H11NO2/c1-3-5(2,6)4(7)8/h3,6H2,1-2H3,(H,7,8)",
        "InChIKey": null,
        "Canonical SMILES": "O=C(O)C(N)(C)CC",
        "Molecular Formula": "C<sub>5</sub>H<sub>11</sub>NO<sub>2</sub>",
        "Molecular Mass": "117.15",
        "Boiling Point": "170-175 °C @ Press: 15 Torr",
        "Melting Point": "316.5 °C"
    }
}