{
    "cas_no": "15074-54-1",
    "key_name": "Phosphorodichloridic acid, 2-chlorophenyl ester",
    "cn_name": "2-氯苯基二氯膦;2-氯苯二氯磷酸酯;二氯磷酸-2-氯苯酯;2-氯苯基二氯磷酸酯;",
    "alternate_name": "Phosphorodichloridic acid, 2-chlorophenyl ester;Phosphorodichloridic acid, <em>o</em>-chlorophenyl ester;Phenol, <em>o</em>-chloro-, phosphorodichloridate;<em>o</em>-Chlorophenyl dichlorophosphate;<em>o</em>-Chlorophenyl phosphorodichloridate;2-Chlorophenyl phosphorodichloridate;2-Chlorophenyl dichlorophosphate;2-Chlorophenyl phosphodichloridate;2-Chlorophenyl dichlorophosphinate;(2-Chlorophenoxy)phosphonoyl dichloride;1-Chloro-2-dichlorophosphoryloxybenzene",
    "duplicated_cas_no": "1257441-01-2",
    "SMILES": "O(P(Cl)(Cl)=O)C1=C(Cl)C=CC=C1",
    "meta_data": {
        "InChI": "InChI=1S/C6H4Cl3O2P/c7-5-3-1-2-4-6(5)11-12(8,9)10/h1-4H",
        "InChIKey": null,
        "Canonical SMILES": "O=P(Cl)(Cl)OC=1C=CC=CC1Cl",
        "Molecular Formula": "C<sub>6</sub>H<sub>4</sub>Cl<sub>3</sub>O<sub>2</sub>P",
        "Molecular Mass": "245.43",
        "Boiling Point": "85 °C @ Press: 0.6 Torr"
    }
}