{
    "cas_no": "25322-69-4",
    "key_name": "Polypropylene glycol",
    "cn_name": null,
    "alternate_name": "Poly[oxy(methyl-1,2-ethanediyl)], α-hydro-ω-hydroxy-;Glycols, polypropylene;P 400;Pluracol 2010;Poly(oxypropylene) glycol;Polypropylene glycol;Poly(propylene oxide);Emkapyl;Polyglycol P 4000;Polyglycol Type P 250;Polyglycol Type P 400;Polyglycol Type P 750;Polyglycol Type P 1200;Polyglycol Type P 2000;Polyglycol Type P 3000;Niax Polyol PPG 4025;α-Hydro-ω-hydroxypoly(oxypropylene);Napter E 8075;Oxirane, methyl-, homopolymer;Pluracol P 2010;Voranol P 1010;Voranol P 4000;PPG;Niax PPG 1025;Niax 10-25;Pluracol 1010;Actcol 51-530;Propylan 8123;Niax 61-582;Niax PPG 4025;Voranol P 2000;Pluracol P 410;Niax PPG 425;Niax PPG 3025;OOPG 1000;NIAX Polyol PPG 2025;PPG 30;Propylene oxide homopolymer;Desmophen 360C;PPG 15;Diol 400;Niax PPG 2025;Niax 20-25;PPG 2025;Pluracol P 1010;P 1200 (glycol);Propylan D 1002;Propylan D 2002;Niax 61-58;Poly(1,2-epoxypropane);Laprol 2002;Lineartop E;1,2-Epoxypropane polymer;Nissan Uniol D 400;Adeka P 700;P 400 (polyglycol);Monolan PPG 700;Niax PPG;FRA 1173;W 166;Takelac P 21;Pluracol P 710;Laprol 1602-3-100;P 4000;P 2000;Methyloxirane homopolymer;L 1502-3-100;Rokopol D 2002;Laprol 1502-3-100;Laprol 702;SL 1000;Hodag HT 11;Nalco 131S;Dielectrol VI;Pluriol P;Adeka P 3000;PPG Diol 1000;OPD 500;OPD 600;T 32/75;Nissan Uniol D 2000;OOPG 1002;Laprol 2102;Sannix PP 200;Sannix PP 400;Poly-G 20-265;Poly-G 20-56;P 425;Excenol 1020;Pluriol P 900;Pluriol P 2000;Diol 1000;Lupramol 1010;Systol T 121;Hyprox DP 400;Adeka P 1000;Sannix PP 1000;Poly-G 1020P;PPG Diol 400;PPG 400;PPG Diol 2000;Prodiol;SL 1000 (polyglycol);Propylene glycol-propylene oxide polymer;Propylene oxide-propylene glycol copolymer;1,2-Propylene glycol-propylene oxide polymer;Arcol PPG 1025;Sannix PP 2000;Voranol 5591;PPG 4025;Propylan D 2122;EL 540;Sannix PP 4000;Dowfroth 1012;Nissan Uniol D 1000;Ryflex 3200;Propylan 333;Hiflex 445;K 3532;Excenol 540;P 2010;Polyurax PPG 20.25;Niax Polyol PPG 425;Sannix PP 3000;Nissan Uniol D 700;Nissan Uniol D 1200;Excenol 330;Excenol 902;Voranol P 425;Polikol P 650;Paral;Konishibond UH 100A;PPG Diol 1500;Adeka P 400;Nissan Uniol D 3000;Arcol 1020;L 702;Adeka Carpol DL 80;Arcol 1010;Adeka P 2000;PPG Diol 3000;1,2-Propanediol, homopolymer;Alkapol PPG 4000;Texox 1000;Uniol D 3000;PP 200;Texox 2000;Jeffox PPG 400;Adeka Carpol M 110;Laprol 1052;Dianol 2210;Montronal E 9109;Diol 3000;POPG 1020;835E;Niax PPG 725;Arcol PPG 425;Arcol 2025;PP 950;PPG 3000;P 4000 (polyoxyalkylene);Vittacol;PPG 725;Adeka Carpol DL 150;Adeka Carpol DL;PPG 1000;Arcol PPG 725;ED 28;Uniol D 400;Poly(methyloxirane);Hyprox DP 2000;Takelac P 22;Rokopol D 7P;D 7P;N 210 (polyol);N 210;M 3600;Multranol M 3600;Multranol 9121;EPD 450;SC 100 (polyoxyalkylene);Actcol P 23;Actcol P 21;Actcol P 22;SC 100;S-P 0265;Takelac P 74;PPG 2000;Pandex OD-X 825;Desmophen L 800;Desmophen LP 112;Arcol R 1885;Texox 400;Arcol 1004;PP 400;Diol 700;PPG Diol 700;TNT 410;Diol 4000;PP 1000;P 1200;PPG 4000;PPG 425;D 400;Newpol PP 1000;Newpol PP 2000;D 2000;Laprol 1002;Laprol 202;Mitec TN 2192;Mitec TN 1133;Mitec TN 1131;PPG 2010;Hyprox DP 1500;Arcol PPG 3025;Acclaim 2020;PPG-EP 828;Voranol 1010;PE 8901;BP 18100;Sannix Diol PP 2000;Arcol PPG 2025;Acclaim 3200;Newpol PP 950;Newpol PP 400;PP 3000;Newpol PP 4000;Newpol PP 3000;Arco R 2446;Dowanol 4000;Acclaim DPP 12200;Preminol PML 4010;Empeyol 2000;Uniol D 2000;Uniol D 1000;Sannix Diol PP 1000;M 40;M 40 (polyether);Flotanol C 7;Desmophen 1600U;PP 700;Takelac 79-56;Diol 2000;Actcol P 25;Actcol MF 30;Laprol 2000;PP 2000;Voranol P 3000;PPG 220;GE 210;Voranol 220-056N;Pandex 1145B;Pluriol P 600;DL 400;Polyhardner D 200;Polyhardner D 300;Nissan Uniol D 4000;Uniol D 4000;D 300;Preminol D 8000;L 202;L 2102;Fluka 1200;Acclaim 8000;Jeffol PPG 2000;PML 4016;Uniol D 700;PP 4000;PML 4010;Actcol P 23K;Tercarol VD 2000;Dihydroxypolyoxypropylene glycol;Hiflex D 2000;Lubrimet P 900;Excenol 3021;Sumiphen 1600;Poly-G 2177;EL 720;Arcol 1000N;Adeka Polyether P 700;Actcol PC 244;Excenol 511;Voranol P 400;Newpol PP 200;H 600 (polyoxyalkylene);H 600;Poly-G 26-150;Sannix GP 3000S;Konix PP 3000;Sannix ST 30;Nissan Uniol D 250;Nissan Uniol D 600;Uniol D 250;Uniol D 600;PPG 700;PPG 700 (polyoxyalkylene);Dowfroth 25;A 65;A 65 (flotation collector);PPG 33;Polyoxypropylenediol;PPG 1025;Pluriol P 4000;Polyglycol P 400E;D 1002;Acclaim 4000;Arcol PPG 2000;Primepol PX 1000;OHV 112.2;OHV 187;OHV 168;PPG 4925;PPG 2056;PPG 2028;Desmophen 2061BD;D 2002;Dior 3000;NPML 2002A;PPG 5000;P 700;Arcol PPG 1000;Preminol 4011;N 220 (polyoxyalkylene);N 220;PX 2000;Adeka Carpol DL 30;P 3000;P 1000;Desmophen 1262BD;Desmophen 2062BD;Desmophen 2060BD;PML-SX 4015;PPG 20-265;Pluracol P 425;Hyprox RT 400;Acclaim 18200N;Primepol PX 2000;Alcupol D 2021;D 2021;Sannix PP 950;Hilube D 660;MM 1052;PML S-X 4001;Acclaim 8200N;N 204 (polyol);N 204;PPG 210;Adeka Polyether P 3000;GE 220;XBE 2000;EXL 5030;Hyprox MP 600;Lupranol 1100;Lupranol 1200;Preminol S 4012;PF 751;PF 752;F 150;F 150 (frothing agent);PPG 900;Adeka Polyether P 1000;Adeka Polyether P 2000;PF 754;PF 753;DL 2000;DL 3000;Excenol EL 1020;PPG 2K;PPG 10;N 240;Polyglycol P 1000TB;3600K;N 260;DL 1000P;DL 2000B;DL 2000P;PPG 204;P 21;Hiflex D 4000;DL 1000;Voranol 220-110N;Voranol V 220-056N;Pluriol P 400;Actcol 1000;Preminol S 4102;MPL-S 4011;Preminol S 4011;PMLS 4006;Uniol D 1200;KR 403;Polyglycol P 425;Voranol 2000L;Sannix PP 600;Synalox 100D95;Lupranol L 1100;Excenol 4600;PPG 600;Sannix PP 2000NS;D 250;D 1000;Pluracol P 710R;PPD 2000;EcoSafe EHC 46;PPG 300;EXL 3020;PPG 2000SN;Preminol 4001;Polypropylene glycol 1000;Uniox D 400;SMC-PPZ;SMC-PPT;SMC-PPF;SMC-PPS;Adeka Polyether P 400;Voranol 1010L;Lupranol 400;Hiflex D 3000;Preminol S 5030;Hiflex G 3000;DF 8000;PPG 450;Ucon AP;PPG 2290;Pluriol P 425;Hiflex D 1000;Sannix PP 1200;PPG 1500;Y 7325N;PPG 3500;Actcol Diol 700;Actcol Diol 1000;Actcol Diol 2000;DDL;PMLS 1004F;DF 1000;Sumiphen 3600K;Sumiphen 3086K;Multranol 9198;Preminol 4004;Preminol S 4015;Jeffol PPG 1000;Sannix PP 750;PP 750;PPG 200;Voranol 2000;Propoxylated dipropylene glycol;Empeyol 1000;Propol 400;Polyglycol P 1200;Voranol 8000LM;EL 1020;Alcupol D 1011;Hiflex D 200;Dagu 1000;Preminol S 1005;Preminol 4015;Propylene glycol-propylene oxide copolymer;PPG 1000D;Poly-G 20-56U;PPG 1200;DK Polyol D 400;Hiflex D 400;PPG 240;PPG 206;Laprol 4002D;Laprol 8002D;Laprol 1002D;Laprol 12002D;Laprol 18002D;LA 6038;PPG 3000D;ZSN 2030;ZSN 2035;ZSN 2120;ZSN 2140;ZSN 2160;Excenol 720;Voranol V 1010;PPG 230;Jeffox PPG 230;Polyfroth W 31;Preminol S 4318F;PPG 950;Dowfax DF 106;Polyglycol P 4000E;Pluriol P 230;Desmophen 3600Z;3600Z;Acclaim Polyol 18200N;Acclaim Polyol 22000N;Acclaim 22000N;TF 3000;PPG 2470;PPG 1052;Lupranol 1005/1;Preminol S-X 4001;Voranol LM 4000;Voranol LM 8000;Diol 1500;EX 2020;DP 3000;L 800;Arcol Polyol 1004;Sannix PK 1000;EL 3021;PML 4001;PPG 6500;Primepol FH 2202;Newpol PP 900;Lupranol 1000/1;PPG 28;Desmophen PE 9015;Actcol PPG 3000;Actcol PPG 10000;Actcol PPG 2000;D 4000;PPG 800;Pluracol P 410R;Desmophen 4028BD;Carpol PGP 2000;PGP 2000;Excestar 3020;TDiol 300;DF 106;Flotanol C 07;Preminol S 4013;Preminol S 4318;Adeka Polyol PP 2000;2000LM;Voranol 2000LM;Voranol 200-56;Preminol S 4001;SC 2404;Sannix PK 400;HK 1856;Polyglycol P 2000P;Arcol PPG 4000;FF 2100;Dow LM 1000;Alcupol D 0511;PPG 3050D;PPG 4000D;DQ-Q 019;PPG-T 700;XH 001;Sanix PP 3000;Voranol 3000LM;Arcol Polyol PPG 2000;Caradol ED 56-200;P 1000TB;Wanhua A 210;A 210;A 220;N 230;PPG-DL 4000;C 2010D;PX 1000;LP 112;Arcol 1000;BD 2-8000A;BD 2-12000A;Actcol D 1000;Loxanol PL 5824;Jiahua C 1510;C 1510;Primepol FF 2202;Puranol C 1510;DL 12000D;H 2000;PolyU L 4000;PolyU L 12000;Rokopol LDB 8000;Rokopol LDB 12000;Rokopol LDB 18000;NJ 204 (polyol);NJ 204;N 400;Poly-G 20-37;LD 2000D;LD 3000D;GP 220;GP 210;GP 204;Boruite 149807;Pronon 102;Rokopol 1002;Rokopol 3502;Rokopol DE 4020;3003N;DP 1000;D 204;D 210;Wanol C 2010D;C 2020D;Wanol 2010D;PPO 2k;Creapol RD 2241/30;Wanol 2310;Desmophen 28HS98;PolyU L 8000;PolyU L 18000;PolyU-Pol D 2002;Preminol S1004;PL 25 (polyoxyalkylene);PL 30G;PL 25;NJ 210D;Desmophen 1632;Wanol C 2020D;Disperplast 1180;PPG 350;polyether L 800;Alcupol D 411;CHE 203;DM 2000;Sannix PP 4000NS;Actcol Diol 3000;Konix PP 2000;PT 700;P 750E;P 190-588;Petol 250-2;JQN 210;Rokopol LDB Delta 4000;Sannix PA 2000",
    "duplicated_cas_no": "9003-15-0;9079-22-5;9079-23-6;9087-30-3;27274-27-7;27615-86-7;28724-27-8;29434-03-5;34465-52-6;37231-68-8;39465-43-5;51019-30-8;51568-92-4;51922-49-7;52309-41-8;53528-82-8;53863-41-5;54500-36-6;56591-76-5;57137-06-1;61090-28-6;63279-07-2;64176-87-0;64940-80-3;66174-27-4;66988-34-9;68821-81-8;69900-45-4;70992-51-7;74870-00-1;75139-15-0;80408-02-2;80803-40-3;81774-53-0;81774-61-0;82548-17-2;84420-39-3;84503-25-3;84682-96-2;85497-31-0;87608-88-6;87940-78-1;88025-94-9;89126-79-4;91218-84-7;92094-60-5;94586-80-8;97199-67-2;98444-52-1;98565-98-1;98913-22-5;99130-49-1;100357-60-6;105844-84-6;109489-48-7;111146-16-8;115450-63-0;116958-46-4;117715-07-8;117968-93-1;118441-48-8;119652-85-6;120468-96-4;122392-88-5;123687-98-9;124448-74-4;124631-70-5;125147-71-9;125386-95-0;126906-04-5;130842-36-3;131649-30-4;133439-62-0;134092-40-3;134192-23-7;135355-02-1;138704-46-8;143550-15-6;143710-19-4;145699-74-7;146024-61-5;150825-72-2;152287-82-6;161278-03-1;171904-01-1;174206-36-1;174722-18-0;176742-37-3;187954-99-0;205657-26-7;250380-45-1;252369-71-4;310902-91-1;372166-28-4;380912-66-3;380912-82-3;490025-10-0;660439-52-1;777067-78-4;824420-00-0;865704-12-7;879098-15-4;907603-46-7;913723-55-4;942421-73-0;956483-22-0;1014983-27-7;1049785-16-1;1169934-33-1;1203457-47-9;1205544-87-1;1269983-38-1;1381802-76-1;1419790-34-3;1629855-91-9;1698041-51-8;1883798-63-7;2085678-39-1;2133455-29-3;2231650-10-3;2254557-57-6;2387900-80-1;2416719-98-5;2417683-17-9;2462729-04-8;2496343-64-5;2665018-18-6",
    "SMILES": "",
    "meta_data": {
        "InChI": "",
        "InChIKey": null,
        "Canonical SMILES": "",
        "Molecular Formula": "(C<sub>3</sub>H<sub>6</sub>O)<sub>n</sub>H<sub>2</sub>O",
        "Molecular Mass": "",
        "Boiling Point": "&gt;300 °C",
        "Melting Point": "50-70 °C",
        "Density": "1.002-1.007 g/cm³"
    }
}