{
    "cas_no": "144702-27-2",
    "key_name": "4′-[(1,4′-Dimethyl-2′-propyl[2,6′-bi-1<em>H</em>-benzimidazol]-1′-yl)methyl][1,1′-biphenyl]-2-carbonitrile",
    "cn_name": null,
    "alternate_name": "[1,1′-Biphenyl]-2-carbonitrile, 4′-[(1,4′-dimethyl-2′-propyl[2,6′-bi-1<em>H</em>-benzimidazol]-1′-yl)methyl]-;4′-[(1,4′-Dimethyl-2′-propyl[2,6′-bi-1<em>H</em>-benzimidazol]-1′-yl)methyl][1,1′-biphenyl]-2-carbonitrile;2-[4-[[4-Methyl-6-(1-methylbenzimidazol-2-yl)-2-propylbenzimidazol-1-yl]methyl]phenyl]benzonitrile",
    "duplicated_cas_no": "",
    "SMILES": "C(N1C=2C(N=C1CCC)=C(C)C=C(C2)C=3N(C)C=4C(N3)=CC=CC4)C5=CC=C(C=C5)C6=C(C#N)C=CC=C6",
    "meta_data": {
        "InChI": "InChI=1S/C33H29N5/c1-4-9-31-36-32-22(2)18-26(33-35-28-12-7-8-13-29(28)37(33)3)19-30(32)38(31)21-23-14-16-24(17-15-23)27-11-6-5-10-25(27)20-34/h5-8,10-19H,4,9,21H2,1-3H3",
        "InChIKey": null,
        "Canonical SMILES": "N#CC=1C=CC=CC1C=2C=CC(=CC2)CN3C4=CC(=CC(=C4N=C3CCC)C)C5=NC=6C=CC=CC6N5C",
        "Molecular Formula": "C<sub>33</sub>H<sub>29</sub>N<sub>5</sub>",
        "Molecular Mass": "495.62",
        "Melting Point": "181.2-182.1 °C"
    }
}