{
    "cas_no": "16940-66-2",
    "key_name": "Sodium borohydride",
    "cn_name": "硼氢化钠;",
    "alternate_name": "Borate(1-), tetrahydro-, sodium (1:1);Borate(1-), tetrahydro-, sodium;Sodium borohydride;Sodium tetrahydroborate(1-);Sodium borohydride (Na(BH<sub>4</sub>));Sodium tetrahydroborate;Borol;Sodium hydroborate;Sodium borohydrate;Hidkitex DF;Sodium tetrahydridoborate;VenMet;Colorstrip 2000;Hydrifin;Venpure SF;Boron sodium hydride (BNaH<sub>4</sub>);Borino",
    "duplicated_cas_no": "1303-74-8;13034-02-1;24917-15-5;29158-40-5;2004653-69-2",
    "SMILES": "[B+3]([H-])([H-])([H-])[H-].[Na+]",
    "meta_data": {
        "InChI": "InChI=1S/BH4.Na/h1H4;/q-1;+1",
        "InChIKey": null,
        "Canonical SMILES": "[Na+].[H-][B+3]([H-])([H-])[H-]",
        "Molecular Formula": "BH<sub>4</sub>.Na",
        "Molecular Mass": "",
        "Boiling Point": "89-90 °C @ Press: 3.5 Torr",
        "Melting Point": "&gt;400 °C",
        "Density": "1.074 g/cm³"
    }
}