{
    "cas_no": "24706-50-1",
    "key_name": "3-(Phenylamino)-2-cyclohexen-1-one",
    "cn_name": "3-苯胺基-2-环己烯-1-酮;",
    "alternate_name": "2-Cyclohexen-1-one, 3-(phenylamino)-;2-Cyclohexen-1-one, 3-anilino-;3-(Phenylamino)-2-cyclohexen-1-one;3-Anilino-2-cyclohexen-1-one;3-Phenylamino-2-cyclohexenone;NSC 166087",
    "duplicated_cas_no": "",
    "SMILES": "N(C1=CC(=O)CCC1)C2=CC=CC=C2",
    "meta_data": {
        "InChI": "InChI=1S/C12H13NO/c14-12-8-4-7-11(9-12)13-10-5-2-1-3-6-10/h1-3,5-6,9,13H,4,7-8H2",
        "InChIKey": null,
        "Canonical SMILES": "O=C1C=C(NC=2C=CC=CC2)CCC1",
        "Molecular Formula": "C<sub>12</sub>H<sub>13</sub>NO",
        "Molecular Mass": "187.24",
        "Melting Point": "173-174 °C"
    }
}