{
    "cas_no": "86-29-3",
    "key_name": "Diphenylacetonitrile",
    "cn_name": "二苯乙腈;",
    "alternate_name": "Benzeneacetonitrile, α-phenyl-;Acetonitrile, diphenyl-;α-Phenylbenzeneacetonitrile;Dipan;Diphenyl-α-cyanomethane;Diphenylmethyl cyanide;α-Phenylbenzyl cyanide;Diphenatrile;Diphenylacetonitrile;Benzhydryl cyanide;α-Phenylphenylacetonitrile;NSC 130268;NSC 884",
    "duplicated_cas_no": "",
    "SMILES": "C(C#N)(C1=CC=CC=C1)C2=CC=CC=C2",
    "meta_data": {
        "InChI": "InChI=1S/C14H11N/c15-11-14(12-7-3-1-4-8-12)13-9-5-2-6-10-13/h1-10,14H",
        "InChIKey": null,
        "Canonical SMILES": "N#CC(C=1C=CC=CC1)C=2C=CC=CC2",
        "Molecular Formula": "C<sub>14</sub>H<sub>11</sub>N",
        "Molecular Mass": "193.24",
        "Boiling Point": "182-184 °C @ Press: 11 Torr",
        "Melting Point": "74.3 °C"
    }
}