{
    "cas_no": "55242-64-3",
    "key_name": "3,7-Dihydro-3-methyl-7-propyl-1<em>H</em>-purine-2,6-dione",
    "cn_name": "3-甲基-7-丙基黄嘌呤;3-甲基-7-丙基-3,7-二氢-1H-嘌呤-2,6-二酮;",
    "alternate_name": "1<em>H</em>-Purine-2,6-dione, 3,7-dihydro-3-methyl-7-propyl-;3,7-Dihydro-3-methyl-7-propyl-1<em>H</em>-purine-2,6-dione;3-Methyl-7-propylxanthine;3-Methyl-7-<em>n</em>-propylxanthine;3-Methyl-7-propylpurine-2,6-dione;3-Methyl-7-propyl-2,3,6,7-tetrahydro-1<em>H</em>-purine-2,6-dione",
    "duplicated_cas_no": "",
    "SMILES": "C(CC)N1C2=C(N(C)C(=O)NC2=O)N=C1",
    "meta_data": {
        "InChI": "InChI=1S/C9H12N4O2/c1-3-4-13-5-10-7-6(13)8(14)11-9(15)12(7)2/h5H,3-4H2,1-2H3,(H,11,14,15)",
        "InChIKey": null,
        "Canonical SMILES": "O=C1NC(=O)N(C=2N=CN(C12)CCC)C",
        "Molecular Formula": "C<sub>9</sub>H<sub>12</sub>N<sub>4</sub>O<sub>2</sub>",
        "Molecular Mass": "208.22",
        "Melting Point": "250-252 °C"
    }
}