{
    "cas_no": "71839-12-8",
    "key_name": "Benzoic acid, 4-(butylamino)-, methyl ester",
    "cn_name": null,
    "alternate_name": "Benzoic acid, 4-(butylamino)-, methyl ester;<em>N</em>-Butyl-4-(methoxycarbonyl)aniline;Methyl 4-(butylamino)benzoate",
    "duplicated_cas_no": "",
    "SMILES": "C(OC)(=O)C1=CC=C(NCCCC)C=C1",
    "meta_data": {
        "InChI": "InChI=1S/C12H17NO2/c1-3-4-9-13-11-7-5-10(6-8-11)12(14)15-2/h5-8,13H,3-4,9H2,1-2H3",
        "InChIKey": null,
        "Canonical SMILES": "O=C(OC)C1=CC=C(C=C1)NCCCC",
        "Molecular Formula": "C<sub>12</sub>H<sub>17</sub>NO<sub>2</sub>",
        "Molecular Mass": "207.27",
        "Melting Point": "104 °C"
    }
}