{
    "cas_no": "146478-72-0",
    "key_name": "(2<em>Z</em>,4<em>S</em>)-4-(Acetyloxy)-<em>N</em>-[(2<em>R</em>,3<em>R</em>,5<em>S</em>,6<em>S</em>)-6-[(2<em>E</em>,4<em>E</em>)-5-[(3<em>R</em>,4<em>R</em>,5<em>R</em>,7<em>S</em>)-4,7-dihydroxy-7-methyl-1,6-dioxaspiro[2.5]oct-5-yl]-3-methyl-2,4-pentadien-1-yl]tetrahydro-2,5-dimethyl-2<em>H</em>-pyran-3-yl]-2-pentenamide",
    "cn_name": null,
    "alternate_name": "2-Pentenamide, 4-(acetyloxy)-<em>N</em>-[(2<em>R</em>,3<em>R</em>,5<em>S</em>,6<em>S</em>)-6-[(2<em>E</em>,4<em>E</em>)-5-[(3<em>R</em>,4<em>R</em>,5<em>R</em>,7<em>S</em>)-4,7-dihydroxy-7-methyl-1,6-dioxaspiro[2.5]oct-5-yl]-3-methyl-2,4-pentadien-1-yl]tetrahydro-2,5-dimethyl-2<em>H</em>-pyran-3-yl]-, (2<em>Z</em>,4<em>S</em>)-;2-Pentenamide, 4-(acetyloxy)-<em>N</em>-[6-[5-(4,7-dihydroxy-7-methyl-1,6-dioxaspiro[2.5]oct-5-yl)-3-methyl-2,4-pentadienyl]tetrahydro-2,5-dimethyl-2<em>H</em>-pyran-3-yl]-, [3<em>R</em>-[3<em>R</em>*,4<em>R</em>*,5<em>R</em>*[1[2<em>R</em>*,3<em>R</em>*(2<em>Z</em>,4<em>S</em>*),5<em>S</em>*,6<em>S</em>*],2<em>E</em>,4<em>E</em>],7<em>S</em>*]]-;2-Pentenamide, 4-(acetyloxy)-<em>N</em>-[(2<em>R</em>,3<em>R</em>,5<em>S</em>,6<em>S</em>)-6-[(2<em>E</em>,4<em>E</em>)-5-[(3<em>R</em>,4<em>R</em>,5<em>R</em>,7<em>S</em>)-4,7-dihydroxy-7-methyl-1,6-dioxaspiro[2.5]oct-5-yl]-3-methyl-2,4-pentadienyl]tetrahydro-2,5-dimethyl-2<em>H</em>-pyran-3-yl]-, (2<em>Z</em>,4<em>S</em>)-;(2<em>Z</em>,4<em>S</em>)-4-(Acetyloxy)-<em>N</em>-[(2<em>R</em>,3<em>R</em>,5<em>S</em>,6<em>S</em>)-6-[(2<em>E</em>,4<em>E</em>)-5-[(3<em>R</em>,4<em>R</em>,5<em>R</em>,7<em>S</em>)-4,7-dihydroxy-7-methyl-1,6-dioxaspiro[2.5]oct-5-yl]-3-methyl-2,4-pentadien-1-yl]tetrahydro-2,5-dimethyl-2<em>H</em>-pyran-3-yl]-2-pentenamide;WB 2663B;FR 901464",
    "duplicated_cas_no": "",
    "SMILES": "O[C@H]1[C@]2(CO2)C[C@@](C)(O)O[C@@H]1/C=C/C(=C/C[C@H]3[C@@H](C)C[C@@H](NC(/C=C\\[C@@H](OC(C)=O)C)=O)[C@@H](C)O3)/C",
    "meta_data": {
        "InChI": "InChI=1S/C27H41NO8/c1-16(8-11-23-25(31)27(15-33-27)14-26(6,32)36-23)7-10-22-17(2)13-21(19(4)35-22)28-24(30)12-9-18(3)34-20(5)29/h7-9,11-12,17-19,21-23,25,31-32H,10,13-15H2,1-6H3,(H,28,30)/b11-8+,12-9-,16-7+/t17-,18-,19+,21+,22-,23+,25+,26-,27+/m0/s1",
        "InChIKey": null,
        "Canonical SMILES": "O=C(OC(C=CC(=O)NC1CC(C)C(OC1C)CC=C(C=CC2OC(O)(C)CC3(OC3)C2O)C)C)C",
        "Molecular Formula": "C<sub>27</sub>H<sub>41</sub>NO<sub>8</sub>",
        "Molecular Mass": "507.62",
        "Melting Point": "65-70 °C"
    }
}