{
    "cas_no": "5026-65-3",
    "key_name": "Cetyl gallate",
    "cn_name": "3,4,5-三羟基苯甲酸十六烷基酯;",
    "alternate_name": "Benzoic acid, 3,4,5-trihydroxy-, hexadecyl ester;Gallic acid, hexadecyl ester;1-Hexadecanol, gallate;Nipagallin CE;Progallin CE;Cetyl gallate;Palmityl gallate;Gallic acid, cetyl ester;Hexadecyl gallate",
    "duplicated_cas_no": "",
    "SMILES": "C(OCCCCCCCCCCCCCCCC)(=O)C1=CC(O)=C(O)C(O)=C1",
    "meta_data": {
        "InChI": "InChI=1S/C23H38O5/c1-2-3-4-5-6-7-8-9-10-11-12-13-14-15-16-28-23(27)19-17-20(24)22(26)21(25)18-19/h17-18,24-26H,2-16H2,1H3",
        "InChIKey": null,
        "Canonical SMILES": "O=C(OCCCCCCCCCCCCCCCC)C1=CC(O)=C(O)C(O)=C1",
        "Molecular Formula": "C<sub>23</sub>H<sub>38</sub>O<sub>5</sub>",
        "Molecular Mass": "394.54",
        "Melting Point": "99.5-100 °C"
    }
}