{
    "cas_no": "11021-14-0",
    "key_name": "Ginsenoside Rc",
    "cn_name": "人参皂甙Rc;",
    "alternate_name": "β-<span class=\"text-smallcaps\">D</smallcap>-Glucopyranoside, (3β,12β)-20-[(6-<em>O</em>-α-<smallcap>L</smallcap>-arabinofuranosyl-β-<smallcap>D</smallcap>-glucopyranosyl)oxy]-12-hydroxydammar-24-en-3-yl 2-<em>O</em>-β-<smallcap>D</span>-glucopyranosyl-;Dammarane, β-<span class=\"text-smallcaps\">D</span>-glucopyranoside deriv.;(3β,12β)-20-[(6-<em>O</em>-α-<span class=\"text-smallcaps\">L</smallcap>-Arabinofuranosyl-β-<smallcap>D</smallcap>-glucopyranosyl)oxy]-12-hydroxydammar-24-en-3-yl 2-<em>O</em>-β-<smallcap>D</smallcap>-glucopyranosyl-β-<smallcap>D</span>-glucopyranoside;Ginsenoside Rc;Panaxoside Rc;NSC 310104",
    "duplicated_cas_no": "52286-73-4;52590-96-2;75047-29-9;212055-72-6",
    "SMILES": "C[C@]12[C@@]([C@]3(C)[C@@](CC1)(C(C)(C)[C@@H](O[C@H]4[C@H](O[C@@H]5O[C@H](CO)[C@@H](O)[C@H](O)[C@H]5O)[C@@H](O)[C@H](O)[C@@H](CO)O4)CC3)[H])(C[C@@H](O)[C@]6([C@@]2(C)CC[C@@]6([C@@](O[C@@H]7O[C@H](CO[C@@H]8O[C@@H](CO)[C@H](O)[C@H]8O)[C@@H](O)[C@H](O)[C@H]7O)(CCC=C(C)C)C)[H])[H])[H]",
    "meta_data": {
        "InChI": "InChI=1S/C53H90O22/c1-23(2)10-9-14-53(8,75-47-43(67)39(63)37(61)29(72-47)22-68-45-41(65)36(60)28(21-56)69-45)24-11-16-52(7)33(24)25(57)18-31-50(5)15-13-32(49(3,4)30(50)12-17-51(31,52)6)73-48-44(40(64)35(59)27(20-55)71-48)74-46-42(66)38(62)34(58)26(19-54)70-46/h10,24-48,54-67H,9,11-22H2,1-8H3/t24-,25+,26+,27+,28-,29+,30-,31+,32-,33-,34+,35+,36-,37+,38-,39-,40-,41+,42+,43+,44+,45+,46-,47-,48-,50-,51+,52+,53-/m0/s1",
        "InChIKey": null,
        "Canonical SMILES": "OCC1OC(OC2C(O)C(O)C(OC2OC3CCC4(C)C(CCC5(C)C4CC(O)C6C(CCC65C)C(OC7OC(COC8OC(CO)C(O)C8O)C(O)C(O)C7O)(C)CCC=C(C)C)C3(C)C)CO)C(O)C(O)C1O",
        "Molecular Formula": "C<sub>53</sub>H<sub>90</sub>O<sub>22</sub>",
        "Molecular Mass": "1079.27",
        "Melting Point": "193-196 °C"
    }
}