{
    "cas_no": "543-27-1",
    "key_name": "Isobutyl chloroformate",
    "cn_name": "氯甲酸异丁酯;",
    "alternate_name": "Carbonochloridic acid, 2-methylpropyl ester;Formic acid, chloro-, isobutyl ester;Isobutyl chlorocarbonate;Isobutyl chloroformate;2-Methylpropyl chloroformate;2-Methylpropyl carbonochloridate;Chloroformic acid isobutyl ester;Chlorocarbonic acid isobutyl ester;Isobutoxycarbonyl chloride;Isobutyloxycarbonyl chloride;Isobutyl chloridocarbonate;IBCF;NSC 8429;Isobutyl carbonochloridate;2-Methylpropan-1-yl chloroformate",
    "duplicated_cas_no": "",
    "SMILES": "C(OC(Cl)=O)C(C)C",
    "meta_data": {
        "InChI": "InChI=1S/C5H9ClO2/c1-4(2)3-8-5(6)7/h4H,3H2,1-2H3",
        "InChIKey": null,
        "Canonical SMILES": "O=C(Cl)OCC(C)C",
        "Molecular Formula": "C<sub>5</sub>H<sub>9</sub>ClO<sub>2</sub>",
        "Molecular Mass": "136.58",
        "Boiling Point": "128.8 °C"
    }
}