{
    "cas_no": "915-76-4",
    "key_name": "2,4,6-Tris(1,1,2,2,3,3,3-heptafluoropropyl)-1,3,5-triazine",
    "cn_name": "2,4,6-三(七氟丙基)-1,3,5-三嗪;",
    "alternate_name": "1,3,5-Triazine, 2,4,6-tris(1,1,2,2,3,3,3-heptafluoropropyl)-;<em>s</em>-Triazine, 2,4,6-tris(heptafluoropropyl)-;1,3,5-Triazine, 2,4,6-tris(heptafluoropropyl)-;2,4,6-Tris(1,1,2,2,3,3,3-heptafluoropropyl)-1,3,5-triazine;NSC 71020;2,4,6-Tris(heptafluoropropyl)-1,3,5-triazine",
    "duplicated_cas_no": "",
    "SMILES": "C(C(F)(F)C=1N=C(C(C(C(F)(F)F)(F)F)(F)F)N=C(C(C(C(F)(F)F)(F)F)(F)F)N1)(C(F)(F)F)(F)F",
    "meta_data": {
        "InChI": "InChI=1S/C12F21N3/c13-4(14,7(19,20)10(25,26)27)1-34-2(5(15,16)8(21,22)11(28,29)30)36-3(35-1)6(17,18)9(23,24)12(31,32)33",
        "InChIKey": null,
        "Canonical SMILES": "FC(F)(F)C(F)(F)C(F)(F)C=1N=C(N=C(N1)C(F)(F)C(F)(F)C(F)(F)F)C(F)(F)C(F)(F)C(F)(F)F",
        "Molecular Formula": "C<sub>12</sub>F<sub>21</sub>N<sub>3</sub>",
        "Molecular Mass": "585.11",
        "Boiling Point": "164.5-165.0 °C",
        "Melting Point": "35 °C",
        "Density": "1.716 g/cm³ @ Temp: 25 °C"
    }
}