{
    "cas_no": "79-00-5",
    "key_name": "1,1,2-Trichloroethane",
    "cn_name": "1,1,2-三氯乙烷;",
    "alternate_name": "Ethane, 1,1,2-trichloro-;1,1,2-Trichloroethane;β-Trichloroethane;Vinyltrichloride;1,2,2-Trichloroethane;β-T;Trichloroethane;NSC 405074;HCC 140",
    "duplicated_cas_no": "",
    "SMILES": "C(CCl)(Cl)Cl",
    "meta_data": {
        "InChI": "InChI=1S/C2H3Cl3/c3-1-2(4)5/h2H,1H2",
        "InChIKey": null,
        "Canonical SMILES": "ClCC(Cl)Cl",
        "Molecular Formula": "C<sub>2</sub>H<sub>3</sub>Cl<sub>3</sub>",
        "Molecular Mass": "133.40",
        "Boiling Point": "113.8 °C @ Press: 760 Torr",
        "Melting Point": "-36.6 °C",
        "Density": "1.4416 g/cm³ @ Temp: 20 °C"
    }
}