{
    "cas_no": "3395-91-3",
    "key_name": "Methyl 3-bromopropanoate",
    "cn_name": "3-溴丙酸甲酯;",
    "alternate_name": "Propanoic acid, 3-bromo-, methyl ester;Propionic acid, 3-bromo-, methyl ester;Methyl 3-bromopropanoate;β-Bromopropionic acid methyl ester;Methyl β-bromopropionate;Methyl 3-bromopropionate;3-Bromopropanoic acid methyl ester;3-Bromopropionic acid methyl ester;NSC 3705",
    "duplicated_cas_no": "",
    "SMILES": "C(CCBr)(OC)=O",
    "meta_data": {
        "InChI": "InChI=1S/C4H7BrO2/c1-7-4(6)2-3-5/h2-3H2,1H3",
        "InChIKey": null,
        "Canonical SMILES": "O=C(OC)CCBr",
        "Molecular Formula": "C<sub>4</sub>H<sub>7</sub>BrO<sub>2</sub>",
        "Molecular Mass": "167.00",
        "Boiling Point": "80 °C @ Press: 27 Torr",
        "Density": "1.4897 g/cm³ @ Temp: 15 °C"
    }
}