{
    "cas_no": "120511-72-0",
    "key_name": "3,5-Bis(2-cyanoprop-2-yl)toluene",
    "cn_name": "五甲基-1,3-二乙氰基苯;a,a,a\",a\",5-五甲基-1,3-苯二乙腈;",
    "alternate_name": "1,3-Benzenediacetonitrile, α<sup>1</sup>,α<sup>1</sup>,α<sup>3</sup>,α<sup>3</sup>,5-pentamethyl-;1,3-Benzenediacetonitrile, α,α,α′,α′,5-pentamethyl-;α<sup>1</sup>,α<sup>1</sup>,α<sup>3</sup>,α<sup>3</sup>,5-Pentamethyl-1,3-benzenediacetonitrile;2,2′-(5-Methyl-1,3-phenylene)di(2-methylpropionitrile);3,5-Bis(2-cyanoprop-2-yl)toluene;3,5-Bis(2-cyano-2-methylethyl)toluene;2-[3-(Cyanodimethylmethyl)-5-methylphenyl]-2-methylpropionitrile;2,2′-(5-Methyl-1,3-phenylene)bis(2-methylpropanenitrile);2,2′-(5-methylbenzene-1,3-diyl)bis(2-methylpropanenitrile);2-[3-(2-Cyanopropan-2-yl)-5-methylphenyl]-2-methylpropanenitrile",
    "duplicated_cas_no": "",
    "SMILES": "C(C#N)(C)(C)C1=CC(C(C#N)(C)C)=CC(C)=C1",
    "meta_data": {
        "InChI": "InChI=1S/C15H18N2/c1-11-6-12(14(2,3)9-16)8-13(7-11)15(4,5)10-17/h6-8H,1-5H3",
        "InChIKey": null,
        "Canonical SMILES": "N#CC(C1=CC(=CC(=C1)C(C#N)(C)C)C)(C)C",
        "Molecular Formula": "C<sub>15</sub>H<sub>18</sub>N<sub>2</sub>",
        "Molecular Mass": "226.32",
        "Melting Point": "124-129 °C"
    }
}