{
    "cas_no": "23308-82-9",
    "key_name": "(±)-1-(3-Methoxyphenyl)ethanol",
    "cn_name": null,
    "alternate_name": "Benzenemethanol, 3-methoxy-α-methyl-;Benzyl alcohol, <em>m</em>-methoxy-α-methyl-;3-Methoxy-α-methylbenzenemethanol;α-(<em>m</em>-Methoxyphenyl)ethanol;1-(3′-Methoxyphenyl)ethanol;3-Methoxy-α-methylbenzyl alcohol;1-(3-Methoxyphenyl)ethanol;α-(3-Methoxyphenyl)ethanol;1-(1-Hydroxyethyl)-3-methoxybenzene;(±)-1-(3-Methoxyphenyl)ethanol;NSC 143364;1-(3-Methoxyphenyl)ethan-1-ol",
    "duplicated_cas_no": "89691-63-4",
    "SMILES": "C(C)(O)C1=CC(OC)=CC=C1",
    "meta_data": {
        "InChI": "InChI=1S/C9H12O2/c1-7(10)8-4-3-5-9(6-8)11-2/h3-7,10H,1-2H3",
        "InChIKey": null,
        "Canonical SMILES": "OC(C=1C=CC=C(OC)C1)C",
        "Molecular Formula": "C<sub>9</sub>H<sub>12</sub>O<sub>2</sub>",
        "Molecular Mass": "152.19",
        "Boiling Point": "133 °C @ Press: 14.5 Torr"
    }
}