{
    "cas_no": "36335-67-8",
    "key_name": "Butamifos",
    "cn_name": "抑草磷;O-乙基-O-(5-甲基-2-硝基苯基)-N-仲丁基氨基硫代磷酸酯;",
    "alternate_name": "Phosphoramidothioic acid, <em>N</em>-(1-methylpropyl)-, <em>O</em>-ethyl <em>O</em>-(5-methyl-2-nitrophenyl) ester;Phosphoramidothioic acid, (1-methylpropyl)-, <em>O</em>-ethyl <em>O</em>-(5-methyl-2-nitrophenyl) ester;<em>O</em>-Ethyl <em>O</em>-(5-methyl-2-nitrophenyl) <em>N</em>-<em>sec</em>-butylphosphorothionoamidate;<em>O</em>-Ethyl <em>O</em>-(2-nitro-5-methylphenyl) <em>N</em>-<em>sec</em>-butylphosphorothionoamidate;<em>O</em>-Ethyl <em>O</em>-(3-methyl-6-nitrophenyl) <em>sec</em>-butylphosphoramidothionate;S 2846;Hercules 26905;Cremart;H 26905;<em>O</em>-Ethyl <em>O</em>-(5-methyl-2-nitrophenyl) <em>sec</em>-butylphosphonoamidothioate;S 28;S 28 (pesticide);<em>O</em>-Ethyl <em>O</em>-(3-methyl-6-nitrophenyl) <em>N</em>-<em>sec</em>-butylphosphorothioamidate;Butamifos;Metacrefos;<em>O</em>-Ethyl-<em>O</em>-(5-methyl-2-nitrophenyl)-<em>sec</em>-butylphosphoroamidothioate;Butamiphos",
    "duplicated_cas_no": "",
    "SMILES": "O(P(NC(CC)C)(OCC)=S)C1=C(N(=O)=O)C=CC(C)=C1",
    "meta_data": {
        "InChI": "InChI=1S/C13H21N2O4PS/c1-5-11(4)14-20(21,18-6-2)19-13-9-10(3)7-8-12(13)15(16)17/h7-9,11H,5-6H2,1-4H3,(H,14,21)",
        "InChIKey": null,
        "Canonical SMILES": "O=N(=O)C1=CC=C(C=C1OP(=S)(OCC)NC(C)CC)C",
        "Molecular Formula": "C<sub>13</sub>H<sub>21</sub>N<sub>2</sub>O<sub>4</sub>PS",
        "Molecular Mass": "332.36",
        "Melting Point": "&lt;25 °C"
    }
}