{
    "cas_no": "2993-85-3",
    "key_name": "2,2,3,3,4,4,5,5,6,6,7,7-Dodecafluoroheptyl acrylate",
    "cn_name": "1H,1H,7H-十二氟庚基丙烯酸酯;",
    "alternate_name": "2-Propenoic acid, 2,2,3,3,4,4,5,5,6,6,7,7-dodecafluoroheptyl ester;Acrylic acid, 2,2,3,3,4,4,5,5,6,6,7,7-dodecafluoroheptyl ester;1-Heptanol, 2,2,3,3,4,4,5,5,6,6,7,7-dodecafluoro-, acrylate;1<em>H</em>,1<em>H</em>,7<em>H</em>-Dodecafluoro-1-heptyl acrylate;1,1,7-Trihydrododecafluoroheptyl acrylate;1,1,7-Trihydroperfluoroheptyl acrylate;2,2,3,3,4,4,5,5,6,6,7,7-Dodecafluoroheptyl acrylate;R 5610;1<em>H</em>,1<em>H</em>,7<em>H</em>-Perfluoroheptyl acrylate;1<em>H</em>,1<em>H</em>,7<em>H</em>-Dodecafluoroheptyl acrylate;2,2,3,3,4,4,5,5,6,6,7,7-Dodecafluoroheptyl prop-2-enoate",
    "duplicated_cas_no": "848665-02-1",
    "SMILES": "C(C(C(COC(C=C)=O)(F)F)(F)F)(C(C(C(F)F)(F)F)(F)F)(F)F",
    "meta_data": {
        "InChI": "InChI=1S/C10H6F12O2/c1-2-4(23)24-3-6(13,14)8(17,18)10(21,22)9(19,20)7(15,16)5(11)12/h2,5H,1,3H2",
        "InChIKey": null,
        "Canonical SMILES": "O=C(OCC(F)(F)C(F)(F)C(F)(F)C(F)(F)C(F)(F)C(F)F)C=C",
        "Molecular Formula": "C<sub>10</sub>H<sub>6</sub>F<sub>12</sub>O<sub>2</sub>",
        "Molecular Mass": "386.13",
        "Boiling Point": "56-58 °C @ Press: 6 Torr",
        "Density": "1.488 g/cm³ @ Temp: 20 °C"
    }
}