{
    "cas_no": "108-31-6",
    "key_name": "Maleic anhydride",
    "cn_name": "马来酸酐;顺丁烯二酸酐;顺酐;",
    "alternate_name": "2,5-Furandione;Maleic anhydride;<em>cis</em>-Butenedioic anhydride;Maleic acid anhydride;Toxilic anhydride;Dihydro-2,5-dioxofuran;BM 10;Nourymix MA 901;Crystal Man;Crystal Man AB;NSC 137651;NSC 137652;NSC 137653;NSC 9568;HG 3-993-76;M 188;2,5-Dihydrofuran-2,5-dione;SY-A;WS 8201;GR 216;A 1018;Baolilong A 1018;HA 59;M 116389;UMEX;MeSH ID: D008299",
    "duplicated_cas_no": "184288-31-1;1190407-73-8;1229972-04-6;1380217-40-2;2254521-46-3",
    "SMILES": "O=C1OC(=O)C=C1",
    "meta_data": {
        "InChI": "InChI=1S/C4H2O3/c5-3-1-2-4(6)7-3/h1-2H",
        "InChIKey": null,
        "Canonical SMILES": "O=C1OC(=O)C=C1",
        "Molecular Formula": "C<sub>4</sub>H<sub>2</sub>O<sub>3</sub>",
        "Molecular Mass": "98.06",
        "Boiling Point": "202.0 °C @ Press: 760 Torr",
        "Melting Point": "52.8 °C",
        "Density": "1.48 g/cm³"
    }
}