{
    "cas_no": "34135-85-8",
    "key_name": "Allyl methyl trisulfide",
    "cn_name": "甲基烯丙基三硫醚;烯丙基甲基三硫醚;",
    "alternate_name": "Trisulfide, methyl 2-propenyl;Trisulfide, allyl methyl;Methyl 2-propenyl trisulfide;Methyl allyl trisulfide;Allyl methyl trisulfide;1-Methyl-3-allyl trisulfide;1-Methyl-3-(prop-2-en-1-yl)trisulfane",
    "duplicated_cas_no": "105108-23-4",
    "SMILES": "S(CC=C)SSC",
    "meta_data": {
        "InChI": "InChI=1S/C4H8S3/c1-3-4-6-7-5-2/h3H,1,4H2,2H3",
        "InChIKey": null,
        "Canonical SMILES": "S(SC)SCC=C",
        "Molecular Formula": "C<sub>4</sub>H<sub>8</sub>S<sub>3</sub>",
        "Molecular Mass": "152.30",
        "Boiling Point": "29 °C",
        "Melting Point": "&lt;25 °C"
    }
}