{
    "cas_no": "51725-82-7",
    "key_name": "Ethyl 2-methyl-β-oxobenzenepropanoate",
    "cn_name": "(2-甲基苯甲酰)乙酸乙酯;",
    "alternate_name": "Benzenepropanoic acid, 2-methyl-β-oxo-, ethyl ester;Ethyl 2-methyl-β-oxobenzenepropanoate;Ethyl 2-methylbenzoylacetate;Ethyl <em>o</em>-methylbenzoylacetate;Ethyl <em>o</em>-toluoylacetate;Ethyl 3-(2-methylphenyl)-3-oxopropanoate;Ethyl 2-(2-methylbenzoyl)acetate;Ethyl 3-oxo-3-(<em>o</em>-tolyl)propanoate;3-(2-Methylphenyl)-3-oxopropanoic acid ethyl ester;3-Oxo-3-<em>o</em>-tolyl-propionic acid ethyl ester",
    "duplicated_cas_no": "",
    "SMILES": "C(CC(OCC)=O)(=O)C1=C(C)C=CC=C1",
    "meta_data": {
        "InChI": "InChI=1S/C12H14O3/c1-3-15-12(14)8-11(13)10-7-5-4-6-9(10)2/h4-7H,3,8H2,1-2H3",
        "InChIKey": null,
        "Canonical SMILES": "O=C(OCC)CC(=O)C=1C=CC=CC1C",
        "Molecular Formula": "C<sub>12</sub>H<sub>14</sub>O<sub>3</sub>",
        "Molecular Mass": "206.24",
        "Boiling Point": "103-105 °C @ Press: 0.4 Torr"
    }
}