{
    "cas_no": "75-78-5",
    "key_name": "Dichlorodimethylsilane",
    "cn_name": "二氯二甲基硅烷;",
    "alternate_name": "Silane, dichlorodimethyl-;Dichlorodimethylsilane;Dimethyldichlorosilane;Inerton AW-DMCS;Dichlorodimethylsilicon;Dimethylsilane dichloride;Repel-Silane;LS 130;M 2 (silane);M 2;KA 22;NSC 77070;LS 130 (silane);DCDMS;KA 12;SID 4120.0;TSL 8032",
    "duplicated_cas_no": "",
    "SMILES": "[Si](C)(C)(Cl)Cl",
    "meta_data": {
        "InChI": "InChI=1S/C2H6Cl2Si/c1-5(2,3)4/h1-2H3",
        "InChIKey": null,
        "Canonical SMILES": "Cl[Si](Cl)(C)C",
        "Molecular Formula": "C<sub>2</sub>H<sub>6</sub>Cl<sub>2</sub>Si",
        "Molecular Mass": "129.06",
        "Boiling Point": "70.5 °C",
        "Melting Point": "&lt;-70 °C",
        "Density": "1.07 g/cm³"
    }
}