{
    "cas_no": "78281-02-4",
    "key_name": "Hydroxysafflor yellow A",
    "cn_name": "羟基红花黄色素A;",
    "alternate_name": "2,5-Cyclohexadien-1-one, 2,4-di-β-<span class=\"text-smallcaps\">D</span>-glucopyranosyl-3,4,5-trihydroxy-6-[(2<em>E</em>)-3-(4-hydroxyphenyl)-1-oxo-2-propen-1-yl]-;2,5-Cyclohexadien-1-one, 2,4-di-β-<span class=\"text-smallcaps\">D</span>-glucopyranosyl-3,4,5-trihydroxy-6-[(2<em>E</em>)-3-(4-hydroxyphenyl)-1-oxo-2-propenyl]-;2,4-Di-β-<span class=\"text-smallcaps\">D</span>-glucopyranosyl-3,4,5-trihydroxy-6-[(2<em>E</em>)-3-(4-hydroxyphenyl)-1-oxo-2-propen-1-yl]-2,5-cyclohexadien-1-one;Safflomin A;Hydroxysafflor yellow A;HSYA",
    "duplicated_cas_no": "146087-19-6;664361-78-8",
    "SMILES": "OC1(C(O)=C(C(=O)C(C(/C=C/C2=CC=C(O)C=C2)=O)=C1O)[C@@H]3O[C@H](CO)[C@@H](O)[C@H](O)[C@H]3O)[C@@H]4O[C@H](CO)[C@@H](O)[C@H](O)[C@H]4O",
    "meta_data": {
        "InChI": "InChI=1S/C27H32O16/c28-7-12-16(32)19(35)21(37)23(42-12)15-18(34)14(11(31)6-3-9-1-4-10(30)5-2-9)24(39)27(41,25(15)40)26-22(38)20(36)17(33)13(8-29)43-26/h1-6,12-13,16-17,19-23,26,28-30,32-33,35-41H,7-8H2/b6-3+/t12-,13-,16-,17-,19+,20+,21-,22-,23+,26-,27?/m1/s1",
        "InChIKey": null,
        "Canonical SMILES": "O=C(C=CC1=CC=C(O)C=C1)C=2C(=O)C(=C(O)C(O)(C2O)C3OC(CO)C(O)C(O)C3O)C4OC(CO)C(O)C(O)C4O",
        "Molecular Formula": "C<sub>27</sub>H<sub>32</sub>O<sub>16</sub>",
        "Molecular Mass": "612.53",
        "Melting Point": "184-186 °C"
    }
}