{
    "cas_no": "112225-87-3",
    "key_name": "1,2-Dibenzoyl-1-(<em>tert</em>-butyl)hydrazine",
    "cn_name": "抑食肼;",
    "alternate_name": "Benzoic acid, 2-benzoyl-1-(1,1-dimethylethyl)hydrazide;RH 5849;1,2-Dibenzoyl-1-(<em>tert</em>-butyl)hydrazine;RH 5849-2F;Benzoic acid <em>N</em>-benzoyl-<em>N</em>-<em>tert</em>-butylhydrazide;Yishijing",
    "duplicated_cas_no": "468062-59-1",
    "SMILES": "N(C(=O)C1=CC=CC=C1)(NC(=O)C2=CC=CC=C2)C(C)(C)C",
    "meta_data": {
        "InChI": "InChI=1S/C18H20N2O2/c1-18(2,3)20(17(22)15-12-8-5-9-13-15)19-16(21)14-10-6-4-7-11-14/h4-13H,1-3H3,(H,19,21)",
        "InChIKey": null,
        "Canonical SMILES": "O=C(NN(C(=O)C=1C=CC=CC1)C(C)(C)C)C=2C=CC=CC2",
        "Molecular Formula": "C<sub>18</sub>H<sub>20</sub>N<sub>2</sub>O<sub>2</sub>",
        "Molecular Mass": "296.36",
        "Melting Point": "178.5 °C"
    }
}