{
    "cas_no": "19542-54-2",
    "key_name": "<em>N</em>-[(Phenylmethoxy)carbonyl]-<span class=\"text-smallcaps\">L</smallcap>-valyl-<smallcap>L</span>-valine",
    "cn_name": null,
    "alternate_name": "<span class=\"text-smallcaps\">L</smallcap>-Valine, <em>N</em>-[(phenylmethoxy)carbonyl]-<smallcap>L</span>-valyl-;Valine, <em>N</em>-(<em>N</em>-carboxy-<span class=\"text-smallcaps\">L</smallcap>-valyl)-, <em>N</em>-benzyl ester, <smallcap>L</span>-;<span class=\"text-smallcaps\">L</smallcap>-Valine, <em>N</em>-[<em>N</em>-[(phenylmethoxy)carbonyl]-<smallcap>L</span>-valyl]-;Valine, <em>N</em>-(<em>N</em>-carboxyvalyl)-, <em>N</em>-benzyl ester;<em>N</em>-[(Phenylmethoxy)carbonyl]-<span class=\"text-smallcaps\">L</smallcap>-valyl-<smallcap>L</span>-valine;Carbobenzoxy-<span class=\"text-smallcaps\">L</smallcap>-valyl-<smallcap>L</span>-valine;<em>N</em>-(Benzyloxycarbonyl)-<span class=\"text-smallcaps\">L</smallcap>-valyl-<smallcap>L</span>-valine;<em>N</em>-(Benzyloxycarbonyl)valylvaline",
    "duplicated_cas_no": "",
    "SMILES": "[C@H](C(N[C@@H](C(C)C)C(O)=O)=O)(NC(OCC1=CC=CC=C1)=O)[C@@H](C)C",
    "meta_data": {
        "InChI": "InChI=1S/C18H26N2O5/c1-11(2)14(16(21)19-15(12(3)4)17(22)23)20-18(24)25-10-13-8-6-5-7-9-13/h5-9,11-12,14-15H,10H2,1-4H3,(H,19,21)(H,20,24)(H,22,23)/t14-,15-/m0/s1",
        "InChIKey": null,
        "Canonical SMILES": "O=C(OCC=1C=CC=CC1)NC(C(=O)NC(C(=O)O)C(C)C)C(C)C",
        "Molecular Formula": "C<sub>18</sub>H<sub>26</sub>N<sub>2</sub>O<sub>5</sub>",
        "Molecular Mass": "350.41",
        "Melting Point": "139.5-140 °C"
    }
}