{
    "cas_no": "1126-74-5",
    "key_name": "3-(3-Pyridinyl)-2-propenoic acid",
    "cn_name": "3-(3-吡啶)丙烯酸;",
    "alternate_name": "2-Propenoic acid, 3-(3-pyridinyl)-;3-Pyridineacrylic acid;3-(3-Pyridinyl)-2-propenoic acid;β-(3-Pyridyl)-acrylic acid;ω-(3-Pyridyl)acrylic acid;Pyridyl-3-acrylic acid;3-(3-Pyridyl)-2-propenoic acid;3-(3-Pyridyl)acrylic acid;3-(3′-Pyridyl)acrylic acid;3-(Pyridin-3-yl)acrylic acid;3-(Pyridin-3-yl)-2-propenoic acid",
    "duplicated_cas_no": "",
    "SMILES": "C(=CC(O)=O)C=1C=CC=NC1",
    "meta_data": {
        "InChI": "InChI=1S/C8H7NO2/c10-8(11)4-3-7-2-1-5-9-6-7/h1-6H,(H,10,11)",
        "InChIKey": null,
        "Canonical SMILES": "O=C(O)C=CC=1C=NC=CC1",
        "Molecular Formula": "C<sub>8</sub>H<sub>7</sub>NO<sub>2</sub>",
        "Molecular Mass": "149.15",
        "Melting Point": "233 °C"
    }
}