{
    "cas_no": "42287-90-1",
    "key_name": "3-(3-Bromophenyl)propionic acid",
    "cn_name": "3-(3-溴苯基)丙酸;",
    "alternate_name": "Benzenepropanoic acid, 3-bromo-;3-Bromobenzenepropanoic acid;<em>m</em>-Bromohydrocinnamic acid;3-(3-Bromophenyl)propanoic acid;3-(3-Bromophenyl)propionic acid",
    "duplicated_cas_no": "",
    "SMILES": "C(CC(O)=O)C1=CC(Br)=CC=C1",
    "meta_data": {
        "InChI": "InChI=1S/C9H9BrO2/c10-8-3-1-2-7(6-8)4-5-9(11)12/h1-3,6H,4-5H2,(H,11,12)",
        "InChIKey": null,
        "Canonical SMILES": "O=C(O)CCC=1C=CC=C(Br)C1",
        "Molecular Formula": "C<sub>9</sub>H<sub>9</sub>BrO<sub>2</sub>",
        "Molecular Mass": "229.07",
        "Melting Point": "74 °C"
    }
}