{
    "cas_no": "92-92-2",
    "key_name": "[1,1′-Biphenyl]-4-carboxylic acid",
    "cn_name": "4-苯基苯甲酸;对苯基苯甲酸;4-联苯羧酸;联苯单甲酸;",
    "alternate_name": "[1,1′-Biphenyl]-4-carboxylic acid;4-Biphenylcarboxylic acid;Benzoic acid, <em>p</em>-phenyl-;<em>p</em>-Phenylbenzoic acid;4-Carboxybiphenyl;4-Diphenylcarboxylic acid;4-Phenylbenzoic acid;4-Carboxy-1,1′-biphenyl;4-Biphenylylcarboxylic acid;<em>p</em>-Biphenylcarboxylic acid;NSC 23040",
    "duplicated_cas_no": "92533-42-1;2764684-54-8",
    "SMILES": "C(O)(=O)C1=CC=C(C=C1)C2=CC=CC=C2",
    "meta_data": {
        "InChI": "InChI=1S/C13H10O2/c14-13(15)12-8-6-11(7-9-12)10-4-2-1-3-5-10/h1-9H,(H,14,15)",
        "InChIKey": null,
        "Canonical SMILES": "O=C(O)C=1C=CC(=CC1)C=2C=CC=CC2",
        "Molecular Formula": "C<sub>13</sub>H<sub>10</sub>O<sub>2</sub>",
        "Molecular Mass": "198.22",
        "Melting Point": "228 °C"
    }
}