{
    "cas_no": "745-62-0",
    "key_name": "PGF<sub>1α</sub>",
    "cn_name": "前列腺素F1α;",
    "alternate_name": "Prost-13-en-1-oic acid, 9,11,15-trihydroxy-, (9α,11α,13<em>E</em>,15<em>S</em>)-;Cyclopentaneheptanoic acid, 3,5-dihydroxy-2-(3-hydroxy-1-octenyl)-;Prostaglandin F<sub>1</sub>;(9α,11α,13<em>E</em>,15<em>S</em>)-9,11,15-Trihydroxyprost-13-en-1-oic acid;PGF<sub>1α</sub>;Prostaglandin F<sub>1α</sub>;9α,11α,15(<em>S</em>)-Trihydroxy-13-<em>trans</em>-prostenoic acid;U 18714",
    "duplicated_cas_no": "21562-44-7",
    "SMILES": "C(CCCCCC(O)=O)[C@@H]1[C@@H](/C=C/[C@H](CCCCC)O)[C@H](O)C[C@@H]1O",
    "meta_data": {
        "InChI": "InChI=1S/C20H36O5/c1-2-3-6-9-15(21)12-13-17-16(18(22)14-19(17)23)10-7-4-5-8-11-20(24)25/h12-13,15-19,21-23H,2-11,14H2,1H3,(H,24,25)/b13-12+/t15-,16+,17+,18-,19+/m0/s1",
        "InChIKey": null,
        "Canonical SMILES": "O=C(O)CCCCCCC1C(O)CC(O)C1C=CC(O)CCCCC",
        "Molecular Formula": "C<sub>20</sub>H<sub>36</sub>O<sub>5</sub>",
        "Molecular Mass": "356.50",
        "Melting Point": "100-102 °C"
    }
}