{
    "cas_no": "84163-77-9",
    "key_name": "6-Fluoro-3-(4-piperidinyl)-1,2-benzisoxazole",
    "cn_name": "6-氟-3-(4-哌啶基)-1,2苯并异噁唑;",
    "alternate_name": "1,2-Benzisoxazole, 6-fluoro-3-(4-piperidinyl)-;6-Fluoro-3-(4-piperidinyl)-1,2-benzisoxazole;R 56109;4-(6-Fluoro-1,2-benzisoxazol-3-yl)piperidine;6-Fluoro-3-(4-piperidinyl)benzisoxazole;6-Fluoro-3-(piperidin-4-yl)benzo[<em>d</em>]isoxazole;3-(4-Piperidinyl)-6-fluorobenzo[<em>d</em>]isoxazole;4-(6-Fluorobenzo[<em>d</em>]isoxazol-3-yl)piperidine;6-Fluoro-3-(piperidin-4-yl)benz[<em>d</em>]isoxazole",
    "duplicated_cas_no": "",
    "SMILES": "FC=1C=C2C(C(=NO2)C3CCNCC3)=CC1",
    "meta_data": {
        "InChI": "InChI=1S/C12H13FN2O/c13-9-1-2-10-11(7-9)16-15-12(10)8-3-5-14-6-4-8/h1-2,7-8,14H,3-6H2",
        "InChIKey": null,
        "Canonical SMILES": "FC=1C=CC2=C(ON=C2C3CCNCC3)C1",
        "Molecular Formula": "C<sub>12</sub>H<sub>13</sub>FN<sub>2</sub>O",
        "Molecular Mass": "220.24",
        "Melting Point": "302-306 °C"
    }
}