{
    "cas_no": "76179-40-3",
    "key_name": "4,5-Difluoro-1,2-phenylenediamine",
    "cn_name": null,
    "alternate_name": "1,2-Benzenediamine, 4,5-difluoro-;4,5-Difluoro-1,2-benzenediamine;4,5-Difluoro-<em>o</em>-phenylenediamine;4,5-Difluoro-1,2-phenylenediamine;2-Amino-4,5-difluoroaniline;1,2-Diamino-4,5-difluorobenzene;1,2-Diamine-4,5-difluorobenzene;4,5-Difluoro-1,2-diaminobenzene",
    "duplicated_cas_no": "",
    "SMILES": "FC1=C(F)C=C(N)C(N)=C1",
    "meta_data": {
        "InChI": "InChI=1S/C6H6F2N2/c7-3-1-5(9)6(10)2-4(3)8/h1-2H,9-10H2",
        "InChIKey": null,
        "Canonical SMILES": "FC=1C=C(N)C(N)=CC1F",
        "Molecular Formula": "C<sub>6</sub>H<sub>6</sub>F<sub>2</sub>N<sub>2</sub>",
        "Molecular Mass": "144.12",
        "Melting Point": "131-132 °C"
    }
}