{
    "cas_no": "26544-34-3",
    "key_name": "Apiin",
    "cn_name": "芹菜甙;",
    "alternate_name": "4<em>H</em>-1-Benzopyran-4-one, 7-[(2-<em>O</em>-<span class=\"text-smallcaps\">D</smallcap>-apio-β-<smallcap>D</smallcap>-furanosyl-β-<smallcap>D</span>-glucopyranosyl)oxy]-5-hydroxy-2-(4-hydroxyphenyl)-;Apiin;7-[(2-<em>O</em>-<span class=\"text-smallcaps\">D</smallcap>-Apio-β-<smallcap>D</smallcap>-furanosyl-β-<smallcap>D</span>-glucopyranosyl)oxy]-5-hydroxy-2-(4-hydroxyphenyl)-4<em>H</em>-1-benzopyran-4-one;Apigenin 7-<em>O</em>-β-<span class=\"text-smallcaps\">D</smallcap>-apiofuranosyl(1→2)-β-<smallcap>D</span>-glucopyranoside",
    "duplicated_cas_no": "1329-41-5;25429-01-0;28709-95-7;36839-81-3",
    "SMILES": "O=C1C=2C(OC(=C1)C3=CC=C(O)C=C3)=CC(O[C@H]4[C@H](O[C@H]5[C@H](O)[C@](CO)(O)CO5)[C@@H](O)[C@H](O)[C@@H](CO)O4)=CC2O",
    "meta_data": {
        "InChI": "InChI=1S/C26H28O14/c27-8-18-20(32)21(33)22(40-25-23(34)26(35,9-28)10-36-25)24(39-18)37-13-5-14(30)19-15(31)7-16(38-17(19)6-13)11-1-3-12(29)4-2-11/h1-7,18,20-25,27-30,32-35H,8-10H2/t18-,20-,21+,22-,23+,24-,25+,26-/m1/s1",
        "InChIKey": null,
        "Canonical SMILES": "O=C1C=C(OC2=CC(OC3OC(CO)C(O)C(O)C3OC4OCC(O)(CO)C4O)=CC(O)=C12)C=5C=CC(O)=CC5",
        "Molecular Formula": "C<sub>26</sub>H<sub>28</sub>O<sub>14</sub>",
        "Molecular Mass": "564.49",
        "Melting Point": "232-233 °C"
    }
}