{
    "cas_no": "75-30-9",
    "key_name": "Isopropyl iodide",
    "cn_name": "2-碘代丙烷;2-碘丙烷;碘代异丙烷;",
    "alternate_name": "Propane, 2-iodo-;2-Iodopropane;Isopropyl iodide;<em>sec</em>-Propyl iodide;2-Propyl iodide;1-Methylethyl iodide",
    "duplicated_cas_no": "",
    "SMILES": "C(C)(C)I",
    "meta_data": {
        "InChI": "InChI=1S/C3H7I/c1-3(2)4/h3H,1-2H3",
        "InChIKey": null,
        "Canonical SMILES": "IC(C)C",
        "Molecular Formula": "C<sub>3</sub>H<sub>7</sub>I",
        "Molecular Mass": "169.99",
        "Boiling Point": "89.5 °C",
        "Melting Point": "-90 °C",
        "Density": "1.68503 g/cm³ @ Temp: 30 °C"
    }
}