{
    "cas_no": "1113-13-9",
    "key_name": "<em>S</em>-Propyl propanethiosulfonate",
    "cn_name": null,
    "alternate_name": "1-Propanesulfonothioic acid, <em>S</em>-propyl ester;1-Propanesulfonic acid, thio-, <em>S</em>-propyl ester;<em>S</em>-Propyl propanethiosulfonate;Proallium SO DMC",
    "duplicated_cas_no": "134014-08-7",
    "SMILES": "S(SCCC)(CCC)(=O)=O",
    "meta_data": {
        "InChI": "InChI=1S/C6H14O2S2/c1-3-5-9-10(7,8)6-4-2/h3-6H2,1-2H3",
        "InChIKey": null,
        "Canonical SMILES": "O=S(=O)(SCCC)CCC",
        "Molecular Formula": "C<sub>6</sub>H<sub>14</sub>O<sub>2</sub>S<sub>2</sub>",
        "Molecular Mass": "182.30",
        "Boiling Point": "120 °C @ Press: 4 Torr"
    }
}