{
    "cas_no": "675126-26-8",
    "key_name": "4-Methoxy-5-[3-(4-morpholinyl)propoxy]-2-nitrobenzonitrile",
    "cn_name": null,
    "alternate_name": "Benzonitrile, 4-methoxy-5-[3-(4-morpholinyl)propoxy]-2-nitro-;4-Methoxy-5-[3-(4-morpholinyl)propoxy]-2-nitrobenzonitrile;4-Methoxy-5-(3-morpholinopropoxy)-2-nitrobenzonitrile;2-Nitro-4-methoxy-5-[3-(morpholin-4-yl)]propoxybenzonitrile",
    "duplicated_cas_no": "",
    "SMILES": "O(CCCN1CCOCC1)C2=C(OC)C=C(N(=O)=O)C(C#N)=C2",
    "meta_data": {
        "InChI": "InChI=1S/C15H19N3O5/c1-21-14-10-13(18(19)20)12(11-16)9-15(14)23-6-2-3-17-4-7-22-8-5-17/h9-10H,2-8H2,1H3",
        "InChIKey": null,
        "Canonical SMILES": "N#CC=1C=C(OCCCN2CCOCC2)C(OC)=CC1N(=O)=O",
        "Molecular Formula": "C<sub>15</sub>H<sub>19</sub>N<sub>3</sub>O<sub>5</sub>",
        "Molecular Mass": "321.33",
        "Melting Point": "127 °C"
    }
}