{
    "cas_no": "1195-42-2",
    "key_name": "Isopropylcyclohexylamine",
    "cn_name": "N-异丙基环己胺;N-异丙基-环已胺;",
    "alternate_name": "Cyclohexanamine, <em>N</em>-(1-methylethyl)-;Cyclohexylamine, <em>N</em>-isopropyl-;<em>N</em>-(1-Methylethyl)cyclohexanamine;<em>N</em>-Isopropylcyclohexylamine;Cyclohexylisopropylamine;<em>N</em>-Cyclohexyl-<em>N</em>-isopropylamine;Isopropylcyclohexylamine;<em>N</em>-Isopropylcyclohexanamine;<em>N</em>-Cyclohexylisopropylamine;NSC 86132;<em>N</em>-Isopropyl-<em>N</em>-cyclohexylamine",
    "duplicated_cas_no": "",
    "SMILES": "N(C(C)C)C1CCCCC1",
    "meta_data": {
        "InChI": "InChI=1S/C9H19N/c1-8(2)10-9-6-4-3-5-7-9/h8-10H,3-7H2,1-2H3",
        "InChIKey": null,
        "Canonical SMILES": "N(C(C)C)C1CCCCC1",
        "Molecular Formula": "C<sub>9</sub>H<sub>19</sub>N",
        "Molecular Mass": "141.25",
        "Boiling Point": "169-171 °C",
        "Melting Point": "60-63 °C"
    }
}