{
    "cas_no": "27304-13-8",
    "key_name": "Oxychlordane",
    "cn_name": null,
    "alternate_name": "2,5-Methano-2<em>H</em>-indeno[1,2-<em>b</em>]oxirene, 2,3,4,5,6,6a,7,7-octachloro-1a,1b,5,5a,6,6a-hexahydro-, (1a<em>R</em>,1b<em>S</em>,2<em>R</em>,5<em>S</em>,5a<em>R</em>,6<em>S</em>,6a<em>S</em>)-<em>rel</em>-;4,7-Methanoindan, 1,2,4,5,6,7,8,8-octachloro-2,3-epoxy-3a,4,7,7a-tetrahydro-, <em>exo</em>,<em>endo</em>-;2,5-Methano-2<em>H</em>-indeno[1,2-<em>b</em>]oxirene, 2,3,4,5,6,6a,7,7-octachloro-1a,1b,5,5a,6,6a-hexahydro-, (1aα,1bβ,2α,5α,5aβ,6β,6aα)-;<em>rel</em>-(1a<em>R</em>,1b<em>S</em>,2<em>R</em>,5<em>S</em>,5a<em>R</em>,6<em>S</em>,6a<em>S</em>)-2,3,4,5,6,6a,7,7-Octachloro-1a,1b,5,5a,6,6a-hexahydro-2,5-methano-2<em>H</em>-indeno[1,2-<em>b</em>]oxirene;Octachlor epoxide;Oxychlordane;Oxychlordan;(±)-Oxychlordane",
    "duplicated_cas_no": "26880-48-8",
    "SMILES": "Cl[C@]12[C@@]3([C@]([C@](Cl)(C1(Cl)Cl)C(Cl)=C2Cl)([C@@H](Cl)[C@]4(Cl)[C@]3(O4)[H])[H])[H]",
    "meta_data": {
        "InChI": "InChI=1/C10H4Cl8O/c11-3-1-2(6-9(3,16)19-6)8(15)5(13)4(12)7(1,14)10(8,17)18/h1-3,6H/t1-,2+,3+,6-,7+,8-,9+/s2",
        "InChIKey": null,
        "Canonical SMILES": "ClC1=C(Cl)C2(Cl)C3C4OC4(Cl)C(Cl)C3C1(Cl)C2(Cl)Cl",
        "Molecular Formula": "C<sub>10</sub>H<sub>4</sub>Cl<sub>8</sub>O",
        "Molecular Mass": "423.76",
        "Boiling Point": "353 °C",
        "Melting Point": "144 °C"
    }
}