{
    "cas_no": "638-02-8",
    "key_name": "2,5-Dimethylthiophene",
    "cn_name": "2,5-二甲基噻吩;",
    "alternate_name": "Thiophene, 2,5-dimethyl-;2,5-Dimethylthiophene;NSC 60689",
    "duplicated_cas_no": "",
    "SMILES": "CC=1SC(C)=CC1",
    "meta_data": {
        "InChI": "InChI=1S/C6H8S/c1-5-3-4-6(2)7-5/h3-4H,1-2H3",
        "InChIKey": null,
        "Canonical SMILES": "S1C(=CC=C1C)C",
        "Molecular Formula": "C<sub>6</sub>H<sub>8</sub>S",
        "Molecular Mass": "112.19",
        "Boiling Point": "136.5 °C",
        "Melting Point": "-62.6 °C",
        "Density": "0.9836 g/cm³ @ Temp: 20 °C"
    }
}