{
    "cas_no": "10051-44-2",
    "key_name": "Sodium hexanoate",
    "cn_name": "已酸钠;",
    "alternate_name": "Hexanoic acid, sodium salt (1:1);Hexanoic acid, sodium salt;Sodium caproate;Sodium hexanoate;Sodium hexoate;Sodium capronate;Sodium <em>n</em>-caproate;Caproic acid sodium salt",
    "duplicated_cas_no": "",
    "SMILES": "C(CCCC)C(O)=O.[Na]",
    "meta_data": {
        "InChI": "InChI=1S/C6H12O2.Na/c1-2-3-4-5-6(7)8;/h2-5H2,1H3,(H,7,8);",
        "InChIKey": null,
        "Canonical SMILES": "[Na].O=C(O)CCCCC",
        "Molecular Formula": "C<sub>6</sub>H<sub>12</sub>O<sub>2</sub>.Na",
        "Molecular Mass": "",
        "Melting Point": "225 °C"
    }
}