{
    "cas_no": "616-04-6",
    "key_name": "1-Methylhydantoin",
    "cn_name": null,
    "alternate_name": "2,4-Imidazolidinedione, 1-methyl-;Hydantoin, 1-methyl-;1-Methyl-2,4-imidazolidinedione;Dioxy-creatinine;1-Methylhydantoin;1-Methylimidazolidine-2,4-dione;NSC 80560",
    "duplicated_cas_no": "",
    "SMILES": "O=C1N(C)CC(=O)N1",
    "meta_data": {
        "InChI": "InChI=1S/C4H6N2O2/c1-6-2-3(7)5-4(6)8/h2H2,1H3,(H,5,7,8)",
        "InChIKey": null,
        "Canonical SMILES": "O=C1NC(=O)CN1C",
        "Molecular Formula": "C<sub>4</sub>H<sub>6</sub>N<sub>2</sub>O<sub>2</sub>",
        "Molecular Mass": "114.10",
        "Melting Point": "156-157 °C"
    }
}