{
    "cas_no": "119-67-5",
    "key_name": "2-Carboxybenzaldehyde",
    "cn_name": "2-羧基苯甲醛;邻羧基苯甲醛;",
    "alternate_name": "Benzoic acid, 2-formyl-;Phthalaldehydic acid;2-Formylbenzoic acid;<em>o</em>-Formylbenzoic acid;<em>o</em>-Carboxybenzaldehyde;2-Carboxybenzaldehyde;NSC 5045",
    "duplicated_cas_no": "",
    "SMILES": "C(=O)C1=C(C(O)=O)C=CC=C1",
    "meta_data": {
        "InChI": "InChI=1S/C8H6O3/c9-5-6-3-1-2-4-7(6)8(10)11/h1-5H,(H,10,11)",
        "InChIKey": null,
        "Canonical SMILES": "O=CC=1C=CC=CC1C(=O)O",
        "Molecular Formula": "C<sub>8</sub>H<sub>6</sub>O<sub>3</sub>",
        "Molecular Mass": "150.13",
        "Melting Point": "98 °C"
    }
}