{
    "cas_no": "17564-64-6",
    "key_name": "2-(Chloromethyl)-1<em>H</em>-isoindole-1,3(2<em>H</em>)-dione",
    "cn_name": "N-氯甲基邻苯二甲酰亚胺;",
    "alternate_name": "1<em>H</em>-Isoindole-1,3(2<em>H</em>)-dione, 2-(chloromethyl)-;Phthalimide, <em>N</em>-(chloromethyl)-;2-(Chloromethyl)-1<em>H</em>-isoindole-1,3(2<em>H</em>)-dione;<em>N</em>-(Chloromethyl)phthalimide;Chloromethylphthalimide;NSC 29558;Phthalimidomethyl chloride;2-(Chloromethyl)isoindoline-1,3-dione;2-(Chloromethyl)isoindole-1,3-dione;2-(Chloromethyl)-2,3-dihydro-1<em>H</em>-isoindole-1,3-dione",
    "duplicated_cas_no": "",
    "SMILES": "O=C1C=2C(C(=O)N1CCl)=CC=CC2",
    "meta_data": {
        "InChI": "InChI=1S/C9H6ClNO2/c10-5-11-8(12)6-3-1-2-4-7(6)9(11)13/h1-4H,5H2",
        "InChIKey": null,
        "Canonical SMILES": "O=C1C=2C=CC=CC2C(=O)N1CCl",
        "Molecular Formula": "C<sub>9</sub>H<sub>6</sub>ClNO<sub>2</sub>",
        "Molecular Mass": "195.60",
        "Melting Point": "153 °C",
        "Density": "1.081 g/cm³"
    }
}