{
    "cas_no": "3511-90-8",
    "key_name": "4-Bromotetrafluoropyridine",
    "cn_name": "4-溴-2,3,5,6-四氟吡啶;",
    "alternate_name": "Pyridine, 4-bromo-2,3,5,6-tetrafluoro-;4-Bromo-2,3,5,6-tetrafluoropyridine;4-Bromotetrafluoropyridine;4-bromo-2,3,5,6-Tetrafluoropyridine",
    "duplicated_cas_no": "",
    "SMILES": "FC=1C(Br)=C(F)C(F)=NC1F",
    "meta_data": {
        "InChI": "InChI=1S/C5BrF4N/c6-1-2(7)4(9)11-5(10)3(1)8",
        "InChIKey": null,
        "Canonical SMILES": "FC=1N=C(F)C(F)=C(Br)C1F",
        "Molecular Formula": "C<sub>5</sub>BrF<sub>4</sub>N",
        "Molecular Mass": "229.96",
        "Boiling Point": "134-135 °C"
    }
}