{
    "cas_no": "134-29-2",
    "key_name": "<em>o</em>-Anisidine, hydrochloride",
    "cn_name": "邻苯胺盐酸盐;",
    "alternate_name": "Benzenamine, 2-methoxy-, hydrochloride (1:1);<em>o</em>-Anisidine, hydrochloride;Benzenamine, 2-methoxy-, hydrochloride;C.I. 37115;Fast Red BB Base;2-Methoxyaniline hydrochloride;<em>o</em>-Methoxyaniline hydrochloride;2-Methoxybenzenamine hydrochloride",
    "duplicated_cas_no": "",
    "SMILES": "O(C)C1=C(N)C=CC=C1.Cl",
    "meta_data": {
        "InChI": "InChI=1S/C7H9NO.ClH/c1-9-7-5-3-2-4-6(7)8;/h2-5H,8H2,1H3;1H",
        "InChIKey": null,
        "Canonical SMILES": "Cl.O(C=1C=CC=CC1N)C",
        "Molecular Formula": "C<sub>7</sub>H<sub>9</sub>NO.ClH",
        "Molecular Mass": "",
        "Melting Point": "228-230 °C"
    }
}