{
    "cas_no": "2888-06-4",
    "key_name": "3-Chlorobenzenesulfonyl chloride",
    "cn_name": "3-氯苯磺酰氯;间氯苯磺酰氯;",
    "alternate_name": "Benzenesulfonyl chloride, 3-chloro-;Benzenesulfonyl chloride, <em>m</em>-chloro-;3-Chlorobenzenesulfonyl chloride;<em>m</em>-Chlorobenzenesulfonyl chloride;3-Chlorophenylsulfonyl chloride;3-Chlorobenzene-1-sulfonyl chloride",
    "duplicated_cas_no": "",
    "SMILES": "S(Cl)(=O)(=O)C1=CC(Cl)=CC=C1",
    "meta_data": {
        "InChI": "InChI=1S/C6H4Cl2O2S/c7-5-2-1-3-6(4-5)11(8,9)10/h1-4H",
        "InChIKey": null,
        "Canonical SMILES": "O=S(=O)(Cl)C=1C=CC=C(Cl)C1",
        "Molecular Formula": "C<sub>6</sub>H<sub>4</sub>Cl<sub>2</sub>O<sub>2</sub>S",
        "Molecular Mass": "211.07",
        "Boiling Point": "142-145 °C @ Press: 16 Torr"
    }
}