{
    "cas_no": "1083168-94-8",
    "key_name": "2-Methoxy-3-nitro-5-(4,4,5,5-tetramethyl-1,3,2-dioxaborolan-2-yl)pyridine",
    "cn_name": null,
    "alternate_name": "Pyridine, 2-methoxy-3-nitro-5-(4,4,5,5-tetramethyl-1,3,2-dioxaborolan-2-yl)-;2-Methoxy-3-nitro-5-(4,4,5,5-tetramethyl-1,3,2-dioxaborolan-2-yl)pyridine",
    "duplicated_cas_no": "",
    "SMILES": "CC1(C)OB(OC1(C)C)C=2C=C(N(=O)=O)C(OC)=NC2",
    "meta_data": {
        "InChI": "InChI=1S/C12H17BN2O5/c1-11(2)12(3,4)20-13(19-11)8-6-9(15(16)17)10(18-5)14-7-8/h6-7H,1-5H3",
        "InChIKey": null,
        "Canonical SMILES": "O=N(=O)C1=CC(=CN=C1OC)B2OC(C)(C)C(O2)(C)C",
        "Molecular Formula": "C<sub>12</sub>H<sub>17</sub>BN<sub>2</sub>O<sub>5</sub>",
        "Molecular Mass": "280.08",
        "Melting Point": "107-109 °C"
    }
}