{
    "cas_no": "106685-41-0",
    "key_name": "Methyl 6-(4-methoxy-3-tricyclo[3.3.1.1<sup>3,7</sup>]dec-1-ylphenyl)-2-naphthalenecarboxylate",
    "cn_name": "6-[3-(1-金刚烷基)-4-甲氧基苯基]-2-萘甲酸甲酯;",
    "alternate_name": "2-Naphthalenecarboxylic acid, 6-(4-methoxy-3-tricyclo[3.3.1.1<sup>3,7</sup>]dec-1-ylphenyl)-, methyl ester;Methyl 6-(4-methoxy-3-tricyclo[3.3.1.1<sup>3,7</sup>]dec-1-ylphenyl)-2-naphthalenecarboxylate;Methyl 6-(3-(adamantan-1-yl)-4-methoxyphenyl)-2-naphthoate",
    "duplicated_cas_no": "",
    "SMILES": "O(C)C1=C(C23CC4CC(C2)CC(C3)C4)C=C(C=C1)C5=CC6=C(C=C5)C=C(C(OC)=O)C=C6",
    "meta_data": {
        "InChI": "InChI=1S/C29H30O3/c1-31-27-8-7-24(14-26(27)29-15-18-9-19(16-29)11-20(10-18)17-29)22-3-4-23-13-25(28(30)32-2)6-5-21(23)12-22/h3-8,12-14,18-20H,9-11,15-17H2,1-2H3",
        "InChIKey": null,
        "Canonical SMILES": "O=C(OC)C=1C=CC2=CC(=CC=C2C1)C=3C=CC(OC)=C(C3)C45CC6CC(CC(C6)C4)C5",
        "Molecular Formula": "C<sub>29</sub>H<sub>30</sub>O<sub>3</sub>",
        "Molecular Mass": "426.55",
        "Melting Point": "221-222 °C"
    }
}