{
    "cas_no": "85-68-7",
    "key_name": "Butyl benzyl phthalate",
    "cn_name": "邻苯二甲酸丁苄酯;酞酸丁基苄酯;",
    "alternate_name": "1,2-Benzenedicarboxylic acid, 1-butyl 2-(phenylmethyl) ester;Phthalic acid, benzyl butyl ester;1,2-Benzenedicarboxylic acid, butyl phenylmethyl ester;Benzyl butyl phthalate;Butyl benzyl phthalate;Palatinol BB;Santicizer 160;Sicol 160;Unimoll BB;Benzyl <em>n</em>-butyl phthalate;BBP;Santicizer C 160;Diacizer D 160;Ketjenflex 160;Santicizer S 160;S 160;<em>n</em>-Butyl benzyl phthalate diester;<em>n</em>-Butyl benzyl phthalate;Sant 160;NSC 71001;Spatozoate;Santicizer S 106;2-<em>O</em>-Benzyl 1-<em>O</em>-butyl benzene-1,2-dicarboxylate;Santiciser 160",
    "duplicated_cas_no": "58128-78-2",
    "SMILES": "C(OCC1=CC=CC=C1)(=O)C2=C(C(OCCCC)=O)C=CC=C2",
    "meta_data": {
        "InChI": "InChI=1S/C19H20O4/c1-2-3-13-22-18(20)16-11-7-8-12-17(16)19(21)23-14-15-9-5-4-6-10-15/h4-12H,2-3,13-14H2,1H3",
        "InChIKey": null,
        "Canonical SMILES": "O=C(OCC=1C=CC=CC1)C=2C=CC=CC2C(=O)OCCCC",
        "Molecular Formula": "C<sub>19</sub>H<sub>20</sub>O<sub>4</sub>",
        "Molecular Mass": "312.36",
        "Boiling Point": "370 °C",
        "Melting Point": "-35 °C",
        "Density": "1.113-1.121 g/cm³ @ Temp: 25 °C"
    }
}