{
    "cas_no": "119389-05-8",
    "key_name": "4-(Phenylethynyl)phthalic anhydride",
    "cn_name": "4-苯基乙炔基邻苯二甲酸酐;",
    "alternate_name": "1,3-Isobenzofurandione, 5-(2-phenylethynyl)-;1,3-Isobenzofurandione, 5-(phenylethynyl)-;5-(2-Phenylethynyl)-1,3-isobenzofurandione;4-(Phenylethynyl)phthalic anhydride;4-(2-Phenylethynyl)phthalic anhydride;2-(3,4-Dicarboxyphenyl)-1-phenylacetylene anhydride;4-(Phenylethynyl)-1,2-benzenedicarboxylic anhydride;CKK 2;PEPA",
    "duplicated_cas_no": "",
    "SMILES": "O=C1C=2C(C(=O)O1)=CC=C(C#CC3=CC=CC=C3)C2",
    "meta_data": {
        "InChI": "InChI=1S/C16H8O3/c17-15-13-9-8-12(10-14(13)16(18)19-15)7-6-11-4-2-1-3-5-11/h1-5,8-10H",
        "InChIKey": null,
        "Canonical SMILES": "O=C1OC(=O)C2=CC(C#CC=3C=CC=CC3)=CC=C12",
        "Molecular Formula": "C<sub>16</sub>H<sub>8</sub>O<sub>3</sub>",
        "Molecular Mass": "248.23",
        "Melting Point": "152.6-152.7 °C"
    }
}