{
    "cas_no": "7789-47-1",
    "key_name": "Mercury dibromide",
    "cn_name": "溴化汞;",
    "alternate_name": "Mercury bromide (HgBr<sub>2</sub>);Mercuric bromide;Mercury dibromide;Mercuric dibromide;Mercury(II) bromide;Dibromomercury",
    "duplicated_cas_no": "",
    "SMILES": "[Hg](Br)Br",
    "meta_data": {
        "InChI": "InChI=1S/2BrH.Hg/h2*1H;/q;;+2/p-2",
        "InChIKey": null,
        "Canonical SMILES": "Br[Hg]Br",
        "Molecular Formula": "Br<sub>2</sub>Hg",
        "Molecular Mass": "",
        "Boiling Point": "322 °C",
        "Melting Point": "237 °C",
        "Density": "6.05 g/cm³"
    }
}