{
    "cas_no": "5636-83-9",
    "key_name": "(±)-Dimethindene",
    "cn_name": "二甲茚定;",
    "alternate_name": "1<em>H</em>-Indene-2-ethanamine, <em>N</em>,<em>N</em>-dimethyl-3-[1-(2-pyridinyl)ethyl]-;Pyridine, 2-[1-[2-[2-(dimethylamino)ethyl]inden-3-yl]ethyl]-;<em>N</em>,<em>N</em>-Dimethyl-3-[1-(2-pyridinyl)ethyl]-1<em>H</em>-indene-2-ethanamine;Dimethindene;2-(1-[2-(2-Dimethylaminoethyl)inden-3-yl]ethyl)pyridine;Dimethpyrindene;Dimetindene;Forhistal;3-[α-(2′-Pyridyl)ethyl]-2-(β-dimethylaminoethyl)indene;(±)-Dimethindene;Feniallerg",
    "duplicated_cas_no": "102737-81-5",
    "SMILES": "C(C)(C=1C=2C(CC1CCN(C)C)=CC=CC2)C3=CC=CC=N3",
    "meta_data": {
        "InChI": "InChI=1S/C20H24N2/c1-15(19-10-6-7-12-21-19)20-17(11-13-22(2)3)14-16-8-4-5-9-18(16)20/h4-10,12,15H,11,13-14H2,1-3H3",
        "InChIKey": null,
        "Canonical SMILES": "N=1C=CC=CC1C(C=2C=3C=CC=CC3CC2CCN(C)C)C",
        "Molecular Formula": "C<sub>20</sub>H<sub>24</sub>N<sub>2</sub>",
        "Molecular Mass": "292.42",
        "Boiling Point": "165-175 °C @ Press: 0.5 Torr"
    }
}