{
    "cas_no": "73570-52-2",
    "key_name": "Phenoxazin-5-ium, 3,7-bis(diethylamino)-, nitrate (1:1)",
    "cn_name": null,
    "alternate_name": "Phenoxazin-5-ium, 3,7-bis(diethylamino)-, nitrate (1:1);Phenoxazin-5-ium, 3,7-bis(diethylamino)-, nitrate",
    "duplicated_cas_no": "74578-08-8;156113-81-4",
    "SMILES": "N(CC)(CC)C1=CC2=C(N=C3C(=[O+]2)C=C(N(CC)CC)C=C3)C=C1.N(=O)(=O)[O-]",
    "meta_data": {
        "InChI": "InChI=1S/C20H26N3O.NO3/c1-5-22(6-2)15-9-11-17-19(13-15)24-20-14-16(23(7-3)8-4)10-12-18(20)21-17;2-1(3)4/h9-14H,5-8H2,1-4H3;/q+1;-1",
        "InChIKey": null,
        "Canonical SMILES": "O=N(=O)[O-].N=1C2=CC=C(C=C2[O+]=C3C=C(C=CC13)N(CC)CC)N(CC)CC",
        "Molecular Formula": "C<sub>20</sub>H<sub>26</sub>N<sub>3</sub>O.NO<sub>3</sub>",
        "Molecular Mass": "",
        "Melting Point": "193-194 °C"
    }
}