{
    "cas_no": "5329-33-9",
    "key_name": "Carbamimidic acid, methyl ester, hydrochloride (1:1)",
    "cn_name": "O-甲基异脲盐酸盐;甲氧基异脲盐酸盐;",
    "alternate_name": "Carbamimidic acid, methyl ester, hydrochloride (1:1);Pseudourea, 2-methyl-, monohydrochloride;Carbamimidic acid, methyl ester, monohydrochloride;Pseudourea, 2-methyl-, hydrochloride;<em>O</em>-Methylisourea hydrochloride;2-Methylpseudourea hydrochloride;<em>O</em>-Methyluronium chloride;Methyl carbamimidate hydrochloride",
    "duplicated_cas_no": "30989-22-1;40817-44-5;84678-15-9",
    "SMILES": "C(OC)(=N)N.Cl",
    "meta_data": {
        "InChI": "InChI=1S/C2H6N2O.ClH/c1-5-2(3)4;/h1H3,(H3,3,4);1H",
        "InChIKey": null,
        "Canonical SMILES": "Cl.N=C(OC)N",
        "Molecular Formula": "C<sub>2</sub>H<sub>6</sub>N<sub>2</sub>O.ClH",
        "Molecular Mass": "",
        "Melting Point": "122-124 °C (decomp)"
    }
}