{
    "cas_no": "27894-50-4",
    "key_name": "<span class=\"text-smallcaps\">L</span>-Lysine, <em>N</em><sup>6</sup>-[(phenylmethoxy)carbonyl]-, methyl ester, hydrochloride (1:1)",
    "cn_name": "N(ε)-苄氧羰基-L-赖氨酸甲酯盐酸盐;",
    "alternate_name": "<span class=\"text-smallcaps\">L</span>-Lysine, <em>N</em><sup>6</sup>-[(phenylmethoxy)carbonyl]-, methyl ester, hydrochloride (1:1);Lysine, <em>N</em><sup>6</sup>-carboxy-, <em>N</em><sup>6</sup>-benzyl methyl ester, monohydrochloride, <span class=\"text-smallcaps\">L</span>-;<span class=\"text-smallcaps\">L</span>-Lysine, <em>N</em><sup>6</sup>-[(phenylmethoxy)carbonyl]-, methyl ester, monohydrochloride;Lysine, <em>N</em><sup>6</sup>-carboxy-, <em>N</em><sup>6</sup>-benzyl methyl ester, hydrochloride, <span class=\"text-smallcaps\">L</span>-;<span class=\"text-smallcaps\">L</span>-Lysine, <em>N</em><sup>6</sup>-carboxy-, <em>N</em>-benzyl methyl ester, hydrochloride;ε-(<em>N</em>-Benzyloxycarbonyl)-<span class=\"text-smallcaps\">L</span>-lysine methyl ester hydrochloride;ε-(<em>N</em>-Benzyloxycarbonyl)lysine methyl ester hydrochloride;<em>N</em><sup>2</sup>-Carboxy-<span class=\"text-smallcaps\">L</span>-lysine <em>N</em>-benzyl methyl ester hydrochloride;<em>N</em><sup>ε</sup>-Benzyloxycarbonyl-<span class=\"text-smallcaps\">L</span>-lysine methyl ester hydrochloride;NSC 83263;Nε-CbZ-<span class=\"text-smallcaps\">L</span>-Lysine methyl ester hydrochloride;H-Lys(<em>Z</em>)-OMe hydrochloride",
    "duplicated_cas_no": "5134-43-0;2377808-93-8",
    "SMILES": "C(OC(NCCCC[C@@H](C(OC)=O)N)=O)C1=CC=CC=C1.Cl",
    "meta_data": {
        "InChI": "InChI=1S/C15H22N2O4.ClH/c1-20-14(18)13(16)9-5-6-10-17-15(19)21-11-12-7-3-2-4-8-12;/h2-4,7-8,13H,5-6,9-11,16H2,1H3,(H,17,19);1H/t13-;/m0./s1",
        "InChIKey": null,
        "Canonical SMILES": "Cl.O=C(OCC=1C=CC=CC1)NCCCCC(N)C(=O)OC",
        "Molecular Formula": "C<sub>15</sub>H<sub>22</sub>N<sub>2</sub>O<sub>4</sub>.ClH",
        "Molecular Mass": "",
        "Melting Point": "75-77 °C"
    }
}