{
    "cas_no": "539-86-6",
    "key_name": "Allicin",
    "cn_name": "二烯丙基二硫;大蒜素;",
    "alternate_name": "2-Propene-1-sulfinothioic acid, <em>S</em>-2-propen-1-yl ester;2-Propene-1-sulfinic acid, thio-, <em>S</em>-allyl ester;Allicin;2-Propene-1-sulfinothioic acid, <em>S</em>-2-propenyl ester;Diallyl thiosulfinate;Thio-2-propene-1-sulfinic acid <em>S</em>-allyl ester;Alliosan;Allisure Liquid;Allimed;Dianyctrsnlgide;3-[(Prop-2-ene-1-sulfinyl)sulfanyl]prop-1-ene;3-Prop-2-enylsulfinylsulfanylprop-1-ene",
    "duplicated_cas_no": "",
    "SMILES": "S(SCC=C)(CC=C)=O",
    "meta_data": {
        "InChI": "InChI=1S/C6H10OS2/c1-3-5-8-9(7)6-4-2/h3-4H,1-2,5-6H2",
        "InChIKey": null,
        "Canonical SMILES": "O=S(SCC=C)CC=C",
        "Molecular Formula": "C<sub>6</sub>H<sub>10</sub>OS<sub>2</sub>",
        "Molecular Mass": "162.27",
        "Melting Point": "37 °C (decomp)",
        "Density": "1.112 g/cm³ @ Temp: 20 °C"
    }
}