{
    "cas_no": "22936-75-0",
    "key_name": "Dimethametryn",
    "cn_name": "异戊乙净;N-(1,2-二甲基丙基)-N-乙基-6-(甲基硫)-1,3,5-三嗪-2,4-二胺;",
    "alternate_name": "1,3,5-Triazine-2,4-diamine, <em>N</em><sup>2</sup>-(1,2-dimethylpropyl)-<em>N</em><sup>4</sup>-ethyl-6-(methylthio)-;<em>s</em>-Triazine, 2-[(1,2-dimethylpropyl)amino]-4-(ethylamino)-6-(methylthio)-;1,3,5-Triazine-2,4-diamine, <em>N</em>-(1,2-dimethylpropyl)-<em>N</em>′-ethyl-6-(methylthio)-;<em>N</em><sup>2</sup>-(1,2-Dimethylpropyl)-<em>N</em><sup>4</sup>-ethyl-6-(methylthio)-1,3,5-triazine-2,4-diamine;C 18898;2-(1′,2′-Dimethylpropylamino)-4-ethylamino-6-methylthio-1,3,5-triazine;4-(1,2-Dimethylpropylamino)-2-ethylamino-6-methylthiotriazine;Dimethametorin;Dimethametryn;2-[(1,2-Dimethylpropyl)amino]-4-(ethylamino)-6-(methylthio)-<em>s</em>-triazine;2-(1,2-Dimethylpropylamino)-4-ethylamino-6-methylthio-1,3,5-triazine;2-Ethylamino-4-(1,2-dimethylpropylamino)-6-methylthio-<em>s</em>-triazine;Belclene 310;CG 7103;2-Ethylamino-4-(1,2-dimethylpropylamino)-6-methylthio-1,3,5-triazine",
    "duplicated_cas_no": "60617-10-9",
    "SMILES": "N(C(C(C)C)C)C=1N=C(NCC)N=C(SC)N1",
    "meta_data": {
        "InChI": "InChI=1S/C11H21N5S/c1-6-12-9-14-10(13-8(4)7(2)3)16-11(15-9)17-5/h7-8H,6H2,1-5H3,(H2,12,13,14,15,16)",
        "InChIKey": null,
        "Canonical SMILES": "N=1C(=NC(=NC1NCC)NC(C)C(C)C)SC",
        "Molecular Formula": "C<sub>11</sub>H<sub>21</sub>N<sub>5</sub>S",
        "Molecular Mass": "255.38",
        "Boiling Point": "152 °C",
        "Melting Point": "65 °C"
    }
}