{
    "cas_no": "27317-69-7",
    "key_name": "<em>N</em>-[(1,1-Dimethylethoxy)carbonyl]-<span class=\"text-smallcaps\">L</smallcap>-alanyl-<smallcap>L</span>-alanine",
    "cn_name": null,
    "alternate_name": "<span class=\"text-smallcaps\">L</smallcap>-Alanine, <em>N</em>-[(1,1-dimethylethoxy)carbonyl]-<smallcap>L</span>-alanyl-;Alanine, <em>N</em>-(<em>N</em>-carboxy-<span class=\"text-smallcaps\">L</smallcap>-alanyl)-, <em>N</em>-<em>tert</em>-butyl ester, <smallcap>L</span>-;<span class=\"text-smallcaps\">L</smallcap>-Alanine, <em>N</em>-[<em>N</em>-[(1,1-dimethylethoxy)carbonyl]-<smallcap>L</span>-alanyl]-;<em>N</em>-[(1,1-Dimethylethoxy)carbonyl]-<span class=\"text-smallcaps\">L</smallcap>-alanyl-<smallcap>L</span>-alanine;<em>tert</em>-Butoxycarbonyl-<span class=\"text-smallcaps\">L</smallcap>-alanyl-<smallcap>L</span>-alanine;<em>N</em>-<em>tert</em>-Butoxycarbonylalanylalanine;<em>N</em>-<em>tert</em>-Butoxycarbonyl-<span class=\"text-smallcaps\">L</smallcap>-alanyl-<smallcap>L</span>-alanine;NSC 334362;<em>N</em>-Boc-<span class=\"text-smallcaps\">L</smallcap>-alanyl-<smallcap>L</span>-alanine",
    "duplicated_cas_no": "",
    "SMILES": "N([C@H](C(N[C@H](C(O)=O)C)=O)C)C(OC(C)(C)C)=O",
    "meta_data": {
        "InChI": "InChI=1S/C11H20N2O5/c1-6(8(14)12-7(2)9(15)16)13-10(17)18-11(3,4)5/h6-7H,1-5H3,(H,12,14)(H,13,17)(H,15,16)/t6-,7-/m0/s1",
        "InChIKey": null,
        "Canonical SMILES": "O=C(OC(C)(C)C)NC(C(=O)NC(C(=O)O)C)C",
        "Molecular Formula": "C<sub>11</sub>H<sub>20</sub>N<sub>2</sub>O<sub>5</sub>",
        "Molecular Mass": "260.29",
        "Melting Point": "132-133 °C"
    }
}