{
    "cas_no": "613-45-6",
    "key_name": "2,4-Dimethoxybenzaldehyde",
    "cn_name": "2,4-二甲氧基苯甲醛;",
    "alternate_name": "Benzaldehyde, 2,4-dimethoxy-;2,4-Dimethoxybenzaldehyde;NSC 27023",
    "duplicated_cas_no": "",
    "SMILES": "O(C)C1=C(C=O)C=CC(OC)=C1",
    "meta_data": {
        "InChI": "InChI=1S/C9H10O3/c1-11-8-4-3-7(6-10)9(5-8)12-2/h3-6H,1-2H3",
        "InChIKey": null,
        "Canonical SMILES": "O=CC1=CC=C(OC)C=C1OC",
        "Molecular Formula": "C<sub>9</sub>H<sub>10</sub>O<sub>3</sub>",
        "Molecular Mass": "166.17",
        "Boiling Point": "290 °C",
        "Melting Point": "72 °C"
    }
}