{
    "cas_no": "1794-89-4",
    "key_name": "9,10,12,13-Tetrabromooctadecanoic acid",
    "cn_name": "9,10,12,13-四溴硬脂酸;9,10,12,13-四溴十八酸;",
    "alternate_name": "Octadecanoic acid, 9,10,12,13-tetrabromo-;9,10,12,13-Tetrabromooctadecanoic acid;9,10,12,13-Tetrabromostearic acid;NSC 148709",
    "duplicated_cas_no": "",
    "SMILES": "C(C(C(CCCCCCCC(O)=O)Br)Br)C(C(CCCCC)Br)Br",
    "meta_data": {
        "InChI": "InChI=1S/C18H32Br4O2/c1-2-3-7-10-14(19)16(21)13-17(22)15(20)11-8-5-4-6-9-12-18(23)24/h14-17H,2-13H2,1H3,(H,23,24)",
        "InChIKey": null,
        "Canonical SMILES": "O=C(O)CCCCCCCC(Br)C(Br)CC(Br)C(Br)CCCCC",
        "Molecular Formula": "C<sub>18</sub>H<sub>32</sub>Br<sub>4</sub>O<sub>2</sub>",
        "Molecular Mass": "600.06",
        "Melting Point": "115 °C"
    }
}