{
    "cas_no": "3687-46-5",
    "key_name": "Decyl oleate",
    "cn_name": "油酸癸脂;癸基油酸酯;",
    "alternate_name": "9-Octadecenoic acid (9<em>Z</em>)-, decyl ester;Oleic acid, decyl ester;9-Octadecenoic acid (<em>Z</em>)-, decyl ester;Cetiol V;Decyl oleate;Ceraphyl 140;Standamul CTV;Oleic acid <em>n</em>-decyl ester;Tegosoft DO;Estol DCO 3662;Saboderm DO;Decyl <em>cis</em>-9-octadecenoate;Cetiol V-PH;Kollicream DO;Decyl cis-9-octadecenoate",
    "duplicated_cas_no": "",
    "SMILES": "C(CCCCCCC/C=C\\CCCCCCCC)(OCCCCCCCCCC)=O",
    "meta_data": {
        "InChI": "InChI=1S/C28H54O2/c1-3-5-7-9-11-13-14-15-16-17-18-19-20-22-24-26-28(29)30-27-25-23-21-12-10-8-6-4-2/h15-16H,3-14,17-27H2,1-2H3/b16-15-",
        "InChIKey": null,
        "Canonical SMILES": "O=C(OCCCCCCCCCC)CCCCCCCC=CCCCCCCCC",
        "Molecular Formula": "C<sub>28</sub>H<sub>54</sub>O<sub>2</sub>",
        "Molecular Mass": "422.73",
        "Melting Point": "2.8 °C",
        "Density": "0.862 g/cm³ @ Temp: 20 °C"
    }
}