{
    "cas_no": "42429-27-6",
    "key_name": "2-Pyrrolidinecarboxamide, hydrochloride (1:1), (2<em>S</em>)-",
    "cn_name": "L-脯氨酰胺盐酸盐;",
    "alternate_name": "2-Pyrrolidinecarboxamide, hydrochloride (1:1), (2<em>S</em>)-;2-Pyrrolidinecarboxamide, monohydrochloride, (<em>S</em>)-;2-Pyrrolidinecarboxamide, monohydrochloride, (2<em>S</em>)-;<span class=\"text-smallcaps\">L</span>-Prolinamide hydrochloride;Prolinamide hydrochloride;(<em>S</em>)-Pyrrolidine-2-carboxamide hydrochloride;(<em>S</em>)-2-Carbamoylpyrrolidine hydrochloride",
    "duplicated_cas_no": "127376-31-2",
    "SMILES": "C(N)(=O)[C@@H]1CCCN1.Cl",
    "meta_data": {
        "InChI": "InChI=1S/C5H10N2O.ClH/c6-5(8)4-2-1-3-7-4;/h4,7H,1-3H2,(H2,6,8);1H/t4-;/m0./s1",
        "InChIKey": null,
        "Canonical SMILES": "Cl.O=C(N)C1NCCC1",
        "Molecular Formula": "C<sub>5</sub>H<sub>10</sub>N<sub>2</sub>O.ClH",
        "Molecular Mass": "",
        "Melting Point": "182 °C"
    }
}