{
    "cas_no": "579-60-2",
    "key_name": "<em>o</em>-Eugenol",
    "cn_name": "邻丁子香酚;2-甲氧基-6-烯丙基苯酚;O-丁子香酚;",
    "alternate_name": "Phenol, 2-methoxy-6-(2-propen-1-yl)-;Phenol, 2-allyl-6-methoxy-;Phenol, 2-methoxy-6-(2-propenyl)-;Guaiacol, 6-allyl-;2-Methoxy-6-(2-propen-1-yl)phenol;<em>o</em>-Eugenol;6-Allyl-2-methoxyphenol;<em>o</em>-Allylguaiacol;2-Allyl-6-methoxyphenol;2-Hydroxy-3-methoxy-1-allylbenzene;NSC 406351;2-Methoxy-6-prop-2-enylphenol",
    "duplicated_cas_no": "",
    "SMILES": "C(C=C)C1=C(O)C(OC)=CC=C1",
    "meta_data": {
        "InChI": "InChI=1S/C10H12O2/c1-3-5-8-6-4-7-9(12-2)10(8)11/h3-4,6-7,11H,1,5H2,2H3",
        "InChIKey": null,
        "Canonical SMILES": "OC=1C(OC)=CC=CC1CC=C",
        "Molecular Formula": "C<sub>10</sub>H<sub>12</sub>O<sub>2</sub>",
        "Molecular Mass": "164.20",
        "Boiling Point": "250.5 °C",
        "Melting Point": "81 °C",
        "Density": "1.0904 g/cm³ @ Temp: 20 °C"
    }
}