{
    "cas_no": "174913-20-3",
    "key_name": "2-Bromo-1,3-dichloro-5-methoxybenzene",
    "cn_name": null,
    "alternate_name": "Benzene, 2-bromo-1,3-dichloro-5-methoxy-;2-Bromo-1,3-dichloro-5-methoxybenzene",
    "duplicated_cas_no": "",
    "SMILES": "O(C)C1=CC(Cl)=C(Br)C(Cl)=C1",
    "meta_data": {
        "InChI": "InChI=1S/C7H5BrCl2O/c1-11-4-2-5(9)7(8)6(10)3-4/h2-3H,1H3",
        "InChIKey": null,
        "Canonical SMILES": "ClC=1C=C(OC)C=C(Cl)C1Br",
        "Molecular Formula": "C<sub>7</sub>H<sub>5</sub>BrCl<sub>2</sub>O",
        "Molecular Mass": "255.92",
        "Melting Point": "59-60 °C"
    }
}