{
    "cas_no": "106-96-7",
    "key_name": "Propargyl bromide",
    "cn_name": "3-溴丙炔;",
    "alternate_name": "1-Propyne, 3-bromo-;Propyne, 3-bromo-;3-Bromo-1-propyne;3-Bromopropyne;Propargyl bromide;2-Propynyl bromide;1-Bromo-2-propyne;NSC 8801;1-(Bromomethyl)acetylene;3-Propargyl bromide",
    "duplicated_cas_no": "1009031-47-3;1187488-61-4;1802649-19-9",
    "SMILES": "C(C#C)Br",
    "meta_data": {
        "InChI": "InChI=1S/C3H3Br/c1-2-3-4/h1H,3H2",
        "InChIKey": null,
        "Canonical SMILES": "BrCC#C",
        "Molecular Formula": "C<sub>3</sub>H<sub>3</sub>Br",
        "Molecular Mass": "118.96",
        "Boiling Point": "88-90 °C",
        "Density": "1.579 g/cm³ @ Temp: 19 °C"
    }
}