{
    "cas_no": "31431-39-7",
    "key_name": "Mebendazole",
    "cn_name": "甲苯达唑;甲苯咪唑;二苯酮胍甲酯;",
    "alternate_name": "Carbamic acid, <em>N</em>-(6-benzoyl-1<em>H</em>-benzimidazol-2-yl)-, methyl ester;2-Benzimidazolecarbamic acid, 5-benzoyl-, methyl ester;Carbamic acid, (5-benzoyl-1<em>H</em>-benzimidazol-2-yl)-, methyl ester;Mebendazole;Methyl 5-benzoyl-2-benzimidazolecarbamate;R 17635;Methyl 5-benzoyl-2-benzimidazolylcarbamate;(5-Benzoyl-1<em>H</em>-benzimidazol-2-yl)carbamic acid methyl ester;5-Benzoyl-2-benzimidazolecarbamic acid methyl ester;Pantelmin;Telmin;Vermox;Mebenvet;Ovitelmin;Besantin;NSC 184849;Verpanyl;Mebex;Equivurm Plus;Vermirax;Bantenol;Noverme;Lomper;Vermicidin;Zhihuanqing;Vermoxine;MeSH ID: D008463",
    "duplicated_cas_no": "52776-90-6",
    "SMILES": "C(=O)(C=1C=C2C(N=C(NC(OC)=O)N2)=CC1)C3=CC=CC=C3",
    "meta_data": {
        "InChI": "InChI=1S/C16H13N3O3/c1-22-16(21)19-15-17-12-8-7-11(9-13(12)18-15)14(20)10-5-3-2-4-6-10/h2-9H,1H3,(H2,17,18,19,21)",
        "InChIKey": null,
        "Canonical SMILES": "O=C(OC)NC1=NC=2C=CC(=CC2N1)C(=O)C=3C=CC=CC3",
        "Molecular Formula": "C<sub>16</sub>H<sub>13</sub>N<sub>3</sub>O<sub>3</sub>",
        "Molecular Mass": "295.29",
        "Melting Point": "288.5 °C",
        "Density": "1.38 g/cm³"
    }
}