{
    "cas_no": "40348-66-1",
    "key_name": "(2<em>R</em>)-1,2-Butanediol",
    "cn_name": "(R)-1,2-丁二醇;",
    "alternate_name": "1,2-Butanediol, (2<em>R</em>)-;1,2-Butanediol, (<em>R</em>)-;(2<em>R</em>)-1,2-Butanediol;(<em>R</em>)-(-)-1,2-Butanediol;(-)-1,2-Butanediol;(<em>R</em>)-1,2-Butanediol;(2R)-Butane-1,2-diol;(R)-(-)-1,2-Butanediol",
    "duplicated_cas_no": "",
    "SMILES": "[C@@H](CC)(CO)O",
    "meta_data": {
        "InChI": "InChI=1S/C4H10O2/c1-2-4(6)3-5/h4-6H,2-3H2,1H3/t4-/m1/s1",
        "InChIKey": null,
        "Canonical SMILES": "OCC(O)CC",
        "Molecular Formula": "C<sub>4</sub>H<sub>10</sub>O<sub>2</sub>",
        "Molecular Mass": "90.12",
        "Boiling Point": "70-72 °C @ Press: 10 Torr"
    }
}