{
    "cas_no": "615-62-3",
    "key_name": "3-Chloro-4-methylphenol",
    "cn_name": "3-氯-4-甲基苯酚;",
    "alternate_name": "Phenol, 3-chloro-4-methyl-;<em>p</em>-Cresol, 3-chloro-;3-Chloro-4-methylphenol;2-Chloro-4-hydroxytoluene;NSC 157351",
    "duplicated_cas_no": "",
    "SMILES": "ClC1=C(C)C=CC(O)=C1",
    "meta_data": {
        "InChI": "InChI=1S/C7H7ClO/c1-5-2-3-6(9)4-7(5)8/h2-4,9H,1H3",
        "InChIKey": null,
        "Canonical SMILES": "ClC1=CC(O)=CC=C1C",
        "Molecular Formula": "C<sub>7</sub>H<sub>7</sub>ClO",
        "Molecular Mass": "142.58",
        "Boiling Point": "228 °C",
        "Melting Point": "55.5 °C"
    }
}