{
    "cas_no": "302912-34-1",
    "key_name": "1-Ethynyl-2,4-difluorobenzene",
    "cn_name": "1-乙炔基-2,4-二氟苯;",
    "alternate_name": "Benzene, 1-ethynyl-2,4-difluoro-;1-Ethynyl-2,4-difluorobenzene;2,4-Difluorophenylacetylene;[2,4-Difluorophenyl]ethyne",
    "duplicated_cas_no": "",
    "SMILES": "C(#C)C1=C(F)C=C(F)C=C1",
    "meta_data": {
        "InChI": "InChI=1S/C8H4F2/c1-2-6-3-4-7(9)5-8(6)10/h1,3-5H",
        "InChIKey": null,
        "Canonical SMILES": "FC1=CC=C(C#C)C(F)=C1",
        "Molecular Formula": "C<sub>8</sub>H<sub>4</sub>F<sub>2</sub>",
        "Molecular Mass": "138.11",
        "Melting Point": "30-32 °C"
    }
}