{
    "cas_no": "3066-71-5",
    "key_name": "Cyclohexyl acrylate",
    "cn_name": "2-丙烯酸环己基酯;环己基丙烯酸酯;",
    "alternate_name": "2-Propenoic acid, cyclohexyl ester;Acrylic acid, cyclohexyl ester;Cyclohexyl acrylate;Sartomer SR 220;SR 220;Viscoat 155;NSC 18612;Viscoat 115;V 155;Viscoat V 155;Cyclohexyl 2-propenoate;Blemmer CHA",
    "duplicated_cas_no": "125658-21-1;866228-30-0;2056117-91-8",
    "SMILES": "O(C(C=C)=O)C1CCCCC1",
    "meta_data": {
        "InChI": "InChI=1S/C9H14O2/c1-2-9(10)11-8-6-4-3-5-7-8/h2,8H,1,3-7H2",
        "InChIKey": null,
        "Canonical SMILES": "O=C(OC1CCCCC1)C=C",
        "Molecular Formula": "C<sub>9</sub>H<sub>14</sub>O<sub>2</sub>",
        "Molecular Mass": "154.21",
        "Boiling Point": "75 °C @ Press: 11 Torr",
        "Density": "0.9705 g/cm³ @ Temp: 20 °C"
    }
}