{
    "cas_no": "1121-25-1",
    "key_name": "3-Hydroxy-2-methylpyridine",
    "cn_name": "3-羟基-2-甲基吡啶;",
    "alternate_name": "3-Pyridinol, 2-methyl-;2-Methyl-3-pyridinol;3-Hydroxy-2-methylpyridine;2-Methyl-3-hydroxypyridine;NSC 27506",
    "duplicated_cas_no": "",
    "SMILES": "OC1=C(C)N=CC=C1",
    "meta_data": {
        "InChI": "InChI=1S/C6H7NO/c1-5-6(8)3-2-4-7-5/h2-4,8H,1H3",
        "InChIKey": null,
        "Canonical SMILES": "OC1=CC=CN=C1C",
        "Molecular Formula": "C<sub>6</sub>H<sub>7</sub>NO",
        "Molecular Mass": "109.13",
        "Boiling Point": "185-195 °C @ Press: 70 Torr",
        "Melting Point": "164-166 °C"
    }
}