{
    "cas_no": "13472-61-2",
    "key_name": "5-Iodo-2-methoxypyridine",
    "cn_name": "5-碘-2-甲氧基吡啶;",
    "alternate_name": "Pyridine, 5-iodo-2-methoxy-;5-Iodo-2-methoxypyridine;2-Methoxy-5-iodopyridine",
    "duplicated_cas_no": "",
    "SMILES": "O(C)C1=CC=C(I)C=N1",
    "meta_data": {
        "InChI": "InChI=1S/C6H6INO/c1-9-6-3-2-5(7)4-8-6/h2-4H,1H3",
        "InChIKey": null,
        "Canonical SMILES": "IC1=CN=C(OC)C=C1",
        "Molecular Formula": "C<sub>6</sub>H<sub>6</sub>INO",
        "Molecular Mass": "235.02",
        "Boiling Point": "109-110 °C"
    }
}