{
    "cas_no": "26110-32-7",
    "key_name": "<em>N</em>-[5-[[4-[2,4-Bis(1,1-dimethylpropyl)phenoxy]-1-oxobutyl]amino]-2-chlorophenyl]-4,4-dimethyl-3-oxopentanamide",
    "cn_name": "alpha-特戊酰基-N-[2-氯-5-[4-(2,4-二特戊基苯氧基)正丁酰胺基]]乙酰苯胺;",
    "alternate_name": "Pentanamide, <em>N</em>-[5-[[4-[2,4-bis(1,1-dimethylpropyl)phenoxy]-1-oxobutyl]amino]-2-chlorophenyl]-4,4-dimethyl-3-oxo-;Valeranilide, 2′-chloro-5′-[4-(2,4-di-<em>tert</em>-pentylphenoxy)butyramido]-4,4-dimethyl-3-oxo-;<em>N</em>-[5-[[4-[2,4-Bis(1,1-dimethylpropyl)phenoxy]-1-oxobutyl]amino]-2-chlorophenyl]-4,4-dimethyl-3-oxopentanamide;α-Pivalyl-2-chloro-5-[γ-(2,4-di-<em>tert</em>-amylphenoxy)butyramido]acetanilide;2′-Chloro-5′-[4-(2,4-di-<em>tert</em>-pentylphenoxy)butyrylamino]-4,4-dimethyl-3-oxopentananilide",
    "duplicated_cas_no": "",
    "SMILES": "O(CCCC(NC1=CC(NC(CC(C(C)(C)C)=O)=O)=C(Cl)C=C1)=O)C2=C(C(CC)(C)C)C=C(C(CC)(C)C)C=C2",
    "meta_data": {
        "InChI": "InChI=1S/C33H47ClN2O4/c1-10-32(6,7)22-14-17-27(24(19-22)33(8,9)11-2)40-18-12-13-29(38)35-23-15-16-25(34)26(20-23)36-30(39)21-28(37)31(3,4)5/h14-17,19-20H,10-13,18,21H2,1-9H3,(H,35,38)(H,36,39)",
        "InChIKey": null,
        "Canonical SMILES": "O=C(NC1=CC(=CC=C1Cl)NC(=O)CCCOC2=CC=C(C=C2C(C)(C)CC)C(C)(C)CC)CC(=O)C(C)(C)C",
        "Molecular Formula": "C<sub>33</sub>H<sub>47</sub>ClN<sub>2</sub>O<sub>4</sub>",
        "Molecular Mass": "571.19",
        "Melting Point": "55-60 °C"
    }
}