{
    "cas_no": "103213-32-7",
    "key_name": "<em>N</em>-[(9<em>H</em>-Fluoren-9-ylmethoxy)carbonyl]-<em>S</em>-(triphenylmethyl)-<span class=\"text-smallcaps\">L</span>-cysteine",
    "cn_name": "Fmoc-S-三苯甲基-L-半胱氨酸;芴甲氧羰基-S-三苯甲基-L-半胱氨酸;",
    "alternate_name": "<span class=\"text-smallcaps\">L</span>-Cysteine, <em>N</em>-[(9<em>H</em>-fluoren-9-ylmethoxy)carbonyl]-<em>S</em>-(triphenylmethyl)-;<em>N</em>-[(9<em>H</em>-Fluoren-9-ylmethoxy)carbonyl]-<em>S</em>-(triphenylmethyl)-<span class=\"text-smallcaps\">L</span>-cysteine;3: PN: US20040265921 PAGE: 4 claimed protein;Fmoc-L-Cys(Trt)-OH;<em>N</em>-(((9<em>H</em>-Fluoren-9-yl)methoxy)carbonyl)-<em>S</em>-trityl-<span class=\"text-smallcaps\">L</span>-cysteine;(2R)-2-(9<em>H</em>-Fluoren-9-ylmethoxycarbonylamino)-3-tritylsulfanylpropanoic acid",
    "duplicated_cas_no": "126550-27-4;1848230-44-3",
    "SMILES": "C(SC[C@H](NC(OCC1C=2C(C=3C1=CC=CC3)=CC=CC2)=O)C(O)=O)(C4=CC=CC=C4)(C5=CC=CC=C5)C6=CC=CC=C6",
    "meta_data": {
        "InChI": "InChI=1S/C37H31NO4S/c39-35(40)34(38-36(41)42-24-33-31-22-12-10-20-29(31)30-21-11-13-23-32(30)33)25-43-37(26-14-4-1-5-15-26,27-16-6-2-7-17-27)28-18-8-3-9-19-28/h1-23,33-34H,24-25H2,(H,38,41)(H,39,40)/t34-/m0/s1",
        "InChIKey": null,
        "Canonical SMILES": "O=C(OCC1C=2C=CC=CC2C=3C=CC=CC31)NC(C(=O)O)CSC(C=4C=CC=CC4)(C=5C=CC=CC5)C=6C=CC=CC6",
        "Molecular Formula": "C<sub>37</sub>H<sub>31</sub>NO<sub>4</sub>S",
        "Molecular Mass": "585.71",
        "Melting Point": "171-174 °C"
    }
}