{
    "cas_no": "527-18-4",
    "key_name": "Tetramethylhydroquinone",
    "cn_name": "四甲基对苯二酚;",
    "alternate_name": "1,4-Benzenediol, 2,3,5,6-tetramethyl-;Hydroquinone, tetramethyl-;2,3,5,6-Tetramethyl-1,4-benzenediol;Dihydroxydurene;Durohydroquinone;Tetramethylhydroquinone;Duro-<em>p</em>-hydroquinone;2,3,5,6-Tetramethylhydroquinone;Tetramethyl-<em>p</em>-hydroquinone;Duroquinol;2,3,5,6-Tetramethyl-1,4-dihydroquinone;TMQ(H);NSC 401619",
    "duplicated_cas_no": "",
    "SMILES": "CC1=C(C)C(O)=C(C)C(C)=C1O",
    "meta_data": {
        "InChI": "InChI=1S/C10H14O2/c1-5-6(2)10(12)8(4)7(3)9(5)11/h11-12H,1-4H3",
        "InChIKey": null,
        "Canonical SMILES": "OC=1C(=C(C(O)=C(C1C)C)C)C",
        "Molecular Formula": "C<sub>10</sub>H<sub>14</sub>O<sub>2</sub>",
        "Molecular Mass": "166.22",
        "Melting Point": "233 °C"
    }
}