{
    "cas_no": "24589-78-4",
    "key_name": "<em>N</em>-Methyl-<em>N</em>-(trimethylsilyl)trifluoroacetamide",
    "cn_name": "N-甲基-N-(三甲基硅烷基)三氟乙酰胺;",
    "alternate_name": "Acetamide, 2,2,2-trifluoro-<em>N</em>-methyl-<em>N</em>-(trimethylsilyl)-;2,2,2-Trifluoro-<em>N</em>-methyl-<em>N</em>-(trimethylsilyl)acetamide;<em>N</em>-Methyl-<em>N</em>-(trimethylsilyl)trifluoroacetamide;MSTFA;<em>N</em>-Methyl-<em>N</em>-trimethylsilyltrifluoracetamide;NSC 339701;<em>N</em>-Methyl-N(trimethylsilyl) trifluoroacetamide",
    "duplicated_cas_no": "",
    "SMILES": "C(N([Si](C)(C)C)C)(C(F)(F)F)=O",
    "meta_data": {
        "InChI": "InChI=1S/C6H12F3NOSi/c1-10(12(2,3)4)5(11)6(7,8)9/h1-4H3",
        "InChIKey": null,
        "Canonical SMILES": "O=C(N(C)[Si](C)(C)C)C(F)(F)F",
        "Molecular Formula": "C<sub>6</sub>H<sub>12</sub>F<sub>3</sub>NOSi",
        "Molecular Mass": "199.25",
        "Boiling Point": "131-132 °C",
        "Density": "1.074 g/cm³"
    }
}