{
    "cas_no": "2423-71-4",
    "key_name": "2,6-Dimethyl-4-nitrophenol",
    "cn_name": "2,6-二甲基-4-硝基苯酚;4-硝基-2,6-二甲苯酚;",
    "alternate_name": "Phenol, 2,6-dimethyl-4-nitro-;2,6-Xylenol, 4-nitro-;2,6-Dimethyl-4-nitrophenol;4-Nitro-2,6-dimethylphenol;4-Nitro-2,6-xylenol;NSC 2990",
    "duplicated_cas_no": "",
    "SMILES": "N(=O)(=O)C1=CC(C)=C(O)C(C)=C1",
    "meta_data": {
        "InChI": "InChI=1S/C8H9NO3/c1-5-3-7(9(11)12)4-6(2)8(5)10/h3-4,10H,1-2H3",
        "InChIKey": null,
        "Canonical SMILES": "O=N(=O)C=1C=C(C(O)=C(C1)C)C",
        "Molecular Formula": "C<sub>8</sub>H<sub>9</sub>NO<sub>3</sub>",
        "Molecular Mass": "167.16",
        "Melting Point": "168 °C (decomp)"
    }
}