{
    "cas_no": "16837-52-8",
    "key_name": "Oxymatrine",
    "cn_name": "氧化苦参碱;苦参素;",
    "alternate_name": "1<em>H</em>,5<em>H</em>,10<em>H</em>-Dipyrido[2,1-<em>f</em>:3′,2′,1′-<em>ij</em>][1,6]naphthyridin-10-one, dodecahydro-, 4-oxide, (4<em>R</em>,7a<em>S</em>,13a<em>R</em>,13b<em>R</em>,13c<em>S</em>)-;Matridin-15-one, 1-oxide, (1β)-;Matrine, 1-oxide;Matrine, <em>N</em>-oxide;Oxymatrine;Matrine <em>N</em><sup>1</sup>-oxide;Matrine 1β-oxide;(+)-Matrine <em>N</em>-oxide;(+)-Oxymatrine;1<em>H</em>,5<em>H</em>,10<em>H</em>-Dipyrido[2,1-<em>f</em>:3′,2′,1′-<em>ij</em>][1,6]naphthyridin-10-one, dodecahydro-, 4-oxide, [4<em>R</em>-(4α,7aβ,13aα,13bβ,13cβ)]-;Ammothamnine",
    "duplicated_cas_no": "38989-43-4;2764701-87-1;2815250-63-4",
    "SMILES": "O=N12[C@@]3([C@@]([C@@]4(N(C[C@@]3(CCC1)[H])C(=O)CCC4)[H])(CCC2)[H])[H]",
    "meta_data": {
        "InChI": "InChI=1S/C15H24N2O2/c18-14-7-1-6-13-12-5-3-9-17(19)8-2-4-11(15(12)17)10-16(13)14/h11-13,15H,1-10H2/t11-,12+,13+,15-,17+/m0/s1",
        "InChIKey": null,
        "Canonical SMILES": "O=C1N2CC3CCCN4(=O)CCCC(C2CCC1)C34",
        "Molecular Formula": "C<sub>15</sub>H<sub>24</sub>N<sub>2</sub>O<sub>2</sub>",
        "Molecular Mass": "264.36",
        "Melting Point": "199-201 °C",
        "Density": "0.4225 g/cm³ @ Temp: 55.000 °C; Press: 82807 Torr"
    }
}