{
    "cas_no": "19992-50-8",
    "key_name": "4-[(1,4-Dihydro-1,4-dioxo-2-naphthalenyl)amino]benzenesulfonamide",
    "cn_name": null,
    "alternate_name": "Benzenesulfonamide, 4-[(1,4-dihydro-1,4-dioxo-2-naphthalenyl)amino]-;Sulfanilamide, <em>N</em><sup>4</sup>-(1,4-dihydro-1,4-dioxo-2-naphthyl)-;4-[(1,4-Dihydro-1,4-dioxo-2-naphthalenyl)amino]benzenesulfonamide;ML 329",
    "duplicated_cas_no": "",
    "SMILES": "O=C1C=2C(C(=O)C=C1NC3=CC=C(S(N)(=O)=O)C=C3)=CC=CC2",
    "meta_data": {
        "InChI": "InChI=1S/C16H12N2O4S/c17-23(21,22)11-7-5-10(6-8-11)18-14-9-15(19)12-3-1-2-4-13(12)16(14)20/h1-9,18H,(H2,17,21,22)",
        "InChIKey": null,
        "Canonical SMILES": "O=C1C=C(NC2=CC=C(C=C2)S(=O)(=O)N)C(=O)C=3C=CC=CC13",
        "Molecular Formula": "C<sub>16</sub>H<sub>12</sub>N<sub>2</sub>O<sub>4</sub>S",
        "Molecular Mass": "328.34",
        "Melting Point": "293-294 °C (decomp)"
    }
}