{
    "cas_no": "1192-28-5",
    "key_name": "Cyclopentanone, oxime",
    "cn_name": "环戊酮肟;",
    "alternate_name": "Cyclopentanone, oxime;Cyclopentanone oxime;NSC 3164",
    "duplicated_cas_no": "136057-00-6;136056-94-5",
    "SMILES": "N(O)=C1CCCC1",
    "meta_data": {
        "InChI": "InChI=1S/C5H9NO/c7-6-5-3-1-2-4-5/h7H,1-4H2",
        "InChIKey": null,
        "Canonical SMILES": "ON=C1CCCC1",
        "Molecular Formula": "C<sub>5</sub>H<sub>9</sub>NO",
        "Molecular Mass": "99.13",
        "Boiling Point": "196 °C",
        "Melting Point": "57.8 °C"
    }
}