{
    "cas_no": "19895-95-5",
    "key_name": "Kaempferol 3-<em>O</em>-sophoroside",
    "cn_name": null,
    "alternate_name": "4<em>H</em>-1-Benzopyran-4-one, 3-[(2-<em>O</em>-β-<span class=\"text-smallcaps\">D</smallcap>-glucopyranosyl-β-<smallcap>D</span>-glucopyranosyl)oxy]-5,7-dihydroxy-2-(4-hydroxyphenyl)-;Flavone, 3,4′,5,7-tetrahydroxy-, 3-(2-<em>O</em>-β-<span class=\"text-smallcaps\">D</smallcap>-glucopyranosyl-β-<smallcap>D</span>-glucopyranoside);3-[(2-<em>O</em>-β-<span class=\"text-smallcaps\">D</smallcap>-Glucopyranosyl-β-<smallcap>D</span>-glucopyranosyl)oxy]-5,7-dihydroxy-2-(4-hydroxyphenyl)-4<em>H</em>-1-benzopyran-4-one;Kaempferol 3-β-sophoroside;Flavone, 3,4′,5,7-tetrahydroxy-, 3-sophoroside;Kaempferol 3-sophoroside;Sophoraflavonoloside;Kaempferol 3-<em>O</em>-sophoroside;3,4′,5,7-Tetrahydroxyflavone 3-β-<span class=\"text-smallcaps\">D</span>-sophoroside;Flavone, 3,4′,5,7-tetrahydroxy-, 3-β-sophoroside;Kaempherol 3-<em>O</em>-β-sophoroside;Kaempferol 3-<em>O</em>-β-<span class=\"text-smallcaps\">D</span>-sophoroside;Kaempferol 3-<em>O</em>-β-sophoroside;Kaempferol 3-<em>O</em>-β-<span class=\"text-smallcaps\">D</smallcap>-glucopyranosyl-(1→2)-β-<smallcap>D</span>-glucopyranoside;Kaempferol 3-<em>O</em>-β-<span class=\"text-smallcaps\">D</smallcap>-glucosyl-(2→1)-β-<smallcap>D</span>-glucoside;Astragalin-2′′-<em>O</em>-β-<span class=\"text-smallcaps\">D</span>-glucopyranoside;Kaempferide-3-<em>O</em>-sophoroside",
    "duplicated_cas_no": "5964-21-6;27661-61-6;64290-93-3",
    "SMILES": "O(C1=C(OC=2C(C1=O)=C(O)C=C(O)C2)C3=CC=C(O)C=C3)[C@H]4[C@H](O[C@@H]5O[C@H](CO)[C@@H](O)[C@H](O)[C@H]5O)[C@@H](O)[C@H](O)[C@@H](CO)O4",
    "meta_data": {
        "InChI": "InChI=1S/C27H30O16/c28-7-14-17(33)20(36)22(38)26(40-14)43-25-21(37)18(34)15(8-29)41-27(25)42-24-19(35)16-12(32)5-11(31)6-13(16)39-23(24)9-1-3-10(30)4-2-9/h1-6,14-15,17-18,20-22,25-34,36-38H,7-8H2/t14-,15-,17-,18-,20+,21+,22-,25-,26+,27+/m1/s1",
        "InChIKey": null,
        "Canonical SMILES": "O=C1C(OC2OC(CO)C(O)C(O)C2OC3OC(CO)C(O)C(O)C3O)=C(OC=4C=C(O)C=C(O)C14)C=5C=CC(O)=CC5",
        "Molecular Formula": "C<sub>27</sub>H<sub>30</sub>O<sub>16</sub>",
        "Molecular Mass": "610.52",
        "Melting Point": "195 °C"
    }
}