{
    "cas_no": "372-16-7",
    "key_name": "4-[(Trifluoromethyl)thio]benzenamine",
    "cn_name": "对三氟甲硫基苯胺;4-三氟甲硫基苯胺;",
    "alternate_name": "Benzenamine, 4-[(trifluoromethyl)thio]-;Aniline, <em>p</em>-[(trifluoromethyl)thio]-;4-[(Trifluoromethyl)thio]benzenamine;<em>p</em>-[(Trifluoromethyl)thio]aniline;4-[(Trifluoromethyl)mercapto]benzenamine;4-Trifluoromethylthioaniline;<em>p</em>-Aminophenyl trifluoromethyl sulfide;4-(Trifluoromethanethio)aniline;4-Trifluoromethylsulfanylphenylamine;4-Trifluoromethylsulfanylaniline;<em>p</em>-Trifluoromethylsulfanylphenylamine;4-(Trifluoromethylsufanyl)phenylamine;4-Aminophenyl trifluoromethylsulfide",
    "duplicated_cas_no": "",
    "SMILES": "S(C(F)(F)F)C1=CC=C(N)C=C1",
    "meta_data": {
        "InChI": "InChI=1S/C7H6F3NS/c8-7(9,10)12-6-3-1-5(11)2-4-6/h1-4H,11H2",
        "InChIKey": null,
        "Canonical SMILES": "FC(F)(F)SC1=CC=C(N)C=C1",
        "Molecular Formula": "C<sub>7</sub>H<sub>6</sub>F<sub>3</sub>NS",
        "Molecular Mass": "193.19",
        "Boiling Point": "102-103 °C @ Press: 8 Torr"
    }
}