{
    "cas_no": "63160-13-4",
    "key_name": "3-Phenyl-2-(phenylsulfonyl)oxaziridine",
    "cn_name": null,
    "alternate_name": "Oxaziridine, 3-phenyl-2-(phenylsulfonyl)-;3-Phenyl-2-(phenylsulfonyl)oxaziridine;3-Phenyl-2-phenylsulfonyloxaziridine;2-(Phenylsulfonyl)-3-phenyloxaziridine;3-Phenyl-<em>N</em>-phenylsulfonyloxaziridine;<em>N</em>-(Phenylsulfonyl)phenyloxaziridine;<em>N</em>-Benzenesulfonyl-3-phenyloxaziridine;2-Benzenesulfonyl-3-phenyloxaziridine;NSC 268112;3-Phenyl-2-(phenylsulfonyl)-1,2-oxaziridine;Ox-W2",
    "duplicated_cas_no": "121054-33-9;1162661-91-7",
    "SMILES": "S(=O)(=O)(N1C(O1)C2=CC=CC=C2)C3=CC=CC=C3",
    "meta_data": {
        "InChI": "InChI=1S/C13H11NO3S/c15-18(16,12-9-5-2-6-10-12)14-13(17-14)11-7-3-1-4-8-11/h1-10,13H",
        "InChIKey": null,
        "Canonical SMILES": "O=S(=O)(C=1C=CC=CC1)N2OC2C=3C=CC=CC3",
        "Molecular Formula": "C<sub>13</sub>H<sub>11</sub>NO<sub>3</sub>S",
        "Molecular Mass": "261.30",
        "Melting Point": "96-97 °C"
    }
}