{
    "cas_no": "2216-94-6",
    "key_name": "2-Propynoic acid, 3-phenyl-, ethyl ester",
    "cn_name": null,
    "alternate_name": "2-Propynoic acid, 3-phenyl-, ethyl ester;Propiolic acid, phenyl-, ethyl ester;Ethyl phenylpropiolate;Ethyl 3-phenylpropiolate;Ethyl phenylacetylenecarboxylate;Ethyl 3-phenylpropynoate;Ethyl phenylpropynoate;EPP;Ethyl 3-phenyl-2-propynoate;Ethyl 2-phenylacetylenecarboxylate;3-Phenyl-2-propynoic acid ethyl ester;Ethyl 3-phenylpropargylate;NSC 41566;3-Phenylpropynic acid ethyl ester",
    "duplicated_cas_no": "",
    "SMILES": "C(#CC(OCC)=O)C1=CC=CC=C1",
    "meta_data": {
        "InChI": "InChI=1S/C11H10O2/c1-2-13-11(12)9-8-10-6-4-3-5-7-10/h3-7H,2H2,1H3",
        "InChIKey": null,
        "Canonical SMILES": "O=C(C#CC=1C=CC=CC1)OCC",
        "Molecular Formula": "C<sub>11</sub>H<sub>10</sub>O<sub>2</sub>",
        "Molecular Mass": "174.20",
        "Boiling Point": "265 °C",
        "Melting Point": "149-150 °C"
    }
}