{
    "cas_no": "57-92-1",
    "key_name": "Streptomycin",
    "cn_name": "链霉素;",
    "alternate_name": "<span class=\"text-smallcaps\">D</smallcap>-Streptamine, <em>O</em>-2-deoxy-2-(methylamino)-α-<smallcap>L</smallcap>-glucopyranosyl-(1→2)-<em>O</em>-5-deoxy-3-<em>C</em>-formyl-α-<smallcap>L</span>-lyxofuranosyl-(1→4)-<em>N</em><sup>1</sup>,<em>N</em><sup>3</sup>-bis(aminoiminomethyl)-;Streptomycin;<span class=\"text-smallcaps\">D</smallcap>-Streptamine, <em>O</em>-2-deoxy-2-(methylamino)-α-<smallcap>L</smallcap>-glucopyranosyl-(1→2)-<em>O</em>-5-deoxy-3-<em>C</em>-formyl-α-<smallcap>L</span>-lyxofuranosyl-(1→4)-<em>N</em>,<em>N</em>′-bis(aminoiminomethyl)-;<em>O</em>-2-Deoxy-2-(methylamino)-α-<span class=\"text-smallcaps\">L</smallcap>-glucopyranosyl-(1→2)-<em>O</em>-5-deoxy-3-<em>C</em>-formyl-α-<smallcap>L</smallcap>-lyxofuranosyl-(1→4)-<em>N</em><sup>1</sup>,<em>N</em><sup>3</sup>-bis(aminoiminomethyl)-<smallcap>D</span>-streptamine;NSC 14083;2,4-Diguanidino-3,5,6-trihydroxycyclohexyl 5-deoxy-2-<em>O</em>-(2-deoxy-2-methylamino-α-glucopyranosyl)-3-formylpentofuranoside;Streptomycin A;Agrimycin;Neodiestreptopab;Agrept;MeSH ID: D013307;Poushamycin",
    "duplicated_cas_no": "12672-24-1;47814-83-5;47816-81-9;82958-69-8;364062-67-9;880764-37-4;883721-83-3;900498-26-2;910329-69-0;934544-71-5;958849-24-6;1071756-76-7;1135443-27-4;1217442-17-5;1347983-50-9;1350008-26-2",
    "SMILES": "O([C@H]1[C@H](O[C@@H]2[C@@H](NC(=N)N)[C@H](O)[C@@H](NC(=N)N)[C@H](O)[C@H]2O)O[C@@H](C)[C@@]1(C=O)O)[C@H]3[C@@H](NC)[C@H](O)[C@@H](O)[C@H](CO)O3",
    "meta_data": {
        "InChI": "InChI=1S/C21H39N7O12/c1-5-21(36,4-30)16(40-17-9(26-2)13(34)10(31)6(3-29)38-17)18(37-5)39-15-8(28-20(24)25)11(32)7(27-19(22)23)12(33)14(15)35/h4-18,26,29,31-36H,3H2,1-2H3,(H4,22,23,27)(H4,24,25,28)/t5-,6-,7+,8-,9-,10-,11+,12-,13-,14+,15+,16-,17-,18-,21+/m0/s1",
        "InChIKey": null,
        "Canonical SMILES": "O=CC1(O)C(OC(OC2C(O)C(O)C(NC(=N)N)C(O)C2NC(=N)N)C1OC3OC(CO)C(O)C(O)C3NC)C",
        "Molecular Formula": "C<sub>21</sub>H<sub>39</sub>N<sub>7</sub>O<sub>12</sub>",
        "Molecular Mass": "581.57",
        "Melting Point": "194 °C"
    }
}