{
    "cas_no": "4433-79-8",
    "key_name": "<em>N</em>-(4-Chloro-2,5-dimethoxyphenyl)-3-oxobutanamide",
    "cn_name": "乙酰乙酰-4-氯-2,5-二甲氧基苯胺;色酚AS-IRG;",
    "alternate_name": "Butanamide, <em>N</em>-(4-chloro-2,5-dimethoxyphenyl)-3-oxo-;Acetoacetanilide, 4′-chloro-2′,5′-dimethoxy-;<em>N</em>-(4-Chloro-2,5-dimethoxyphenyl)-3-oxobutanamide;C.I. 37613;<em>N</em>-Acetoacetyl-5-chloro-2-amino-1,4-dimethoxybenzene;C.I. Azoic Coupling Component 44;Naphtanilide LRG;Naphtazol 4J;Naphthol AS-IRG;Naphtol AS-IRG;Naphtol AS-LGLL;1-Acetoacetylamino-2,5-dimethoxy-4-chlorobenzene;4′-Chloro-2′,5′-dimethoxyacetoacetanilide;Acetoacetyl-2,5-dimethoxy-4-chloroanilide;<em>N</em>-Acetoacetyl-4-chloro-2,5-dimethoxyaniline;Naphthol AS 13GH;<em>N</em>-(2,5-Dimethoxy-4-chlorophenyl)acetoacetamide;Acetoaceto-2,5-dimethoxy-4-chloroanilide;<em>N</em>-(2,5-Dimethoxy-4-chlorophenyl)-3-oxobutanamide;2,5-Dimethoxy-4-chloro-<em>N</em>-acetoacetyl aniline;NSC 50638;Naftol AS-IRG;Yellow Base GC;Napthol ASIRG;1-Acetoacetylamino-4-chloro-2,5-dimethoxy-benzene",
    "duplicated_cas_no": "83936-61-2",
    "SMILES": "N(C(CC(C)=O)=O)C1=C(OC)C=C(Cl)C(OC)=C1",
    "meta_data": {
        "InChI": "InChI=1S/C12H14ClNO4/c1-7(15)4-12(16)14-9-6-10(17-2)8(13)5-11(9)18-3/h5-6H,4H2,1-3H3,(H,14,16)",
        "InChIKey": null,
        "Canonical SMILES": "O=C(NC1=CC(OC)=C(Cl)C=C1OC)CC(=O)C",
        "Molecular Formula": "C<sub>12</sub>H<sub>14</sub>ClNO<sub>4</sub>",
        "Molecular Mass": "271.70",
        "Melting Point": "99 °C"
    }
}