{
    "cas_no": "37280-56-1",
    "key_name": "Leucomycin, (2<em>R</em>,3<em>R</em>)-2,3-dihydroxybutanedioate (1:?)",
    "cn_name": "酒石酸吉他霉素;酒石酸柱晶白霉素;",
    "alternate_name": "Leucomycin, (2<em>R</em>,3<em>R</em>)-2,3-dihydroxybutanedioate (1:?);Leucomycin, [<em>R</em>-(<em>R</em>*,<em>R</em>*)]-2,3-dihydroxybutanedioate (salt);Leucomycin, (2<em>R</em>,3<em>R</em>)-2,3-dihydroxybutanedioate (salt);Leucomycin tartrate;Kitasamycin tartrate;Trubin",
    "duplicated_cas_no": "37353-69-8",
    "SMILES": "",
    "meta_data": {
        "InChI": "",
        "InChIKey": null,
        "Canonical SMILES": "",
        "Molecular Formula": "C<sub>4</sub>H<sub>6</sub>O<sub>6</sub>.xUnspecified",
        "Molecular Mass": "",
        "Melting Point": "125 °C"
    }
}