{
    "cas_no": "407-97-6",
    "key_name": "1-Bromo-5-fluoropentane",
    "cn_name": "1-溴-5-氟戊烷;",
    "alternate_name": "Pentane, 1-bromo-5-fluoro-;1-Bromo-5-fluoropentane",
    "duplicated_cas_no": "",
    "SMILES": "C(CCBr)CCF",
    "meta_data": {
        "InChI": "InChI=1S/C5H10BrF/c6-4-2-1-3-5-7/h1-5H2",
        "InChIKey": null,
        "Canonical SMILES": "FCCCCCBr",
        "Molecular Formula": "C<sub>5</sub>H<sub>10</sub>BrF",
        "Molecular Mass": "169.04",
        "Boiling Point": "162.0 °C",
        "Density": "1.3604 g/cm³ @ Temp: 25 °C"
    }
}