{
    "cas_no": "364622-33-3",
    "key_name": "Lucidenic acid N",
    "cn_name": null,
    "alternate_name": "Chol-8-en-24-oic acid, 3,7-dihydroxy-4,4,14-trimethyl-11,15-dioxo-, (3β,5α,7β)-;(3β,5α,7β)-3,7-Dihydroxy-4,4,14-trimethyl-11,15-dioxochol-8-en-24-oic acid;Lucidenic acid N;Lucidenic acid LM<sub>1</sub>;Lucidenic acid SP1;Lucideric acid SP1;Lucidenic acid LM1",
    "duplicated_cas_no": "",
    "SMILES": "C[C@]12C3=C([C@]4(C)[C@@](C[C@@H]3O)(C(C)(C)[C@@H](O)CC4)[H])C(=O)C[C@]1(C)[C@@]([C@@H](CCC(O)=O)C)(CC2=O)[H]",
    "meta_data": {
        "InChI": "InChI=1S/C27H40O6/c1-14(7-8-21(32)33)15-11-20(31)27(6)23-16(28)12-18-24(2,3)19(30)9-10-25(18,4)22(23)17(29)13-26(15,27)5/h14-16,18-19,28,30H,7-13H2,1-6H3,(H,32,33)/t14-,15-,16+,18+,19+,25+,26-,27+/m1/s1",
        "InChIKey": null,
        "Canonical SMILES": "O=C(O)CCC(C)C1CC(=O)C2(C3=C(C(=O)CC12C)C4(C)CCC(O)C(C)(C)C4CC3O)C",
        "Molecular Formula": "C<sub>27</sub>H<sub>40</sub>O<sub>6</sub>",
        "Molecular Mass": "460.60",
        "Melting Point": "202-204 °C"
    }
}