{
    "cas_no": "20237-98-3",
    "key_name": "2,6-Bis(4-azidobenzal)cyclohexanone",
    "cn_name": "2,6-二(4-叠氮苯亚甲基)-4环己酮;",
    "alternate_name": "Cyclohexanone, 2,6-bis[(4-azidophenyl)methylene]-;Cyclohexanone, 2,6-bis(<em>p</em>-azidobenzylidene)-;2,6-Bis[(4-azidophenyl)methylene]cyclohexanone;2,6-Bis(4-azidobenzylidene)cyclohexanone;2,6-Bis(4′-azidobenzal)cyclohexanone;2,6-Bis(4-azidobenzal)cyclohexanone;2,6-Di(4′-azidobenzal)cyclohexanone;2,6-Bis(<em>p</em>-azidobenzylidene)cyclohexanone;2,6-Bis(4′-azidobenzyl)cyclohexanone;2,6-Di(4-azidobenzal)cyclohexanone",
    "duplicated_cas_no": "",
    "SMILES": "C(=C1C(=O)C(=CC2=CC=C(N=[N+]=[N-])C=C2)CCC1)C3=CC=C(N=[N+]=[N-])C=C3",
    "meta_data": {
        "InChI": "InChI=1S/C20H16N6O/c21-25-23-18-8-4-14(5-9-18)12-16-2-1-3-17(20(16)27)13-15-6-10-19(11-7-15)24-26-22/h4-13H,1-3H2",
        "InChIKey": null,
        "Canonical SMILES": "[N-]=[N+]=NC1=CC=C(C=C1)C=C2C(=O)C(=CC3=CC=C(N=[N+]=[N-])C=C3)CCC2",
        "Molecular Formula": "C<sub>20</sub>H<sub>16</sub>N<sub>6</sub>O",
        "Molecular Mass": "",
        "Melting Point": "140 °C"
    }
}