{
    "cas_no": "5162-44-7",
    "key_name": "4-Bromo-1-butene",
    "cn_name": "4-溴-1-丁烯;",
    "alternate_name": "1-Butene, 4-bromo-;4-Bromo-1-butene;1-Bromo-3-butene;3-Butenyl bromide;Homoallyl bromide;4-Bromobutene-1;Allylcarbinyl bromide;But-3-en-1-yl bromide;4-Bromobut-1-ene",
    "duplicated_cas_no": "1570498-36-0",
    "SMILES": "C(CBr)C=C",
    "meta_data": {
        "InChI": "InChI=1S/C4H7Br/c1-2-3-4-5/h2H,1,3-4H2",
        "InChIKey": null,
        "Canonical SMILES": "BrCCC=C",
        "Molecular Formula": "C<sub>4</sub>H<sub>7</sub>Br",
        "Molecular Mass": "135.00",
        "Boiling Point": "98.5 °C",
        "Density": "1.3230 g/cm³ @ Temp: 20 °C"
    }
}