{
    "cas_no": "29555-02-0",
    "key_name": "2-Methylcyclopropanecarboxylic acid",
    "cn_name": null,
    "alternate_name": "Cyclopropanecarboxylic acid, 2-methyl-;2-Methylcyclopropanecarboxylic acid;2-Methylcyclopropylcarboxylic acid;2-Methyl-1-cyclopropanecarboxylic acid",
    "duplicated_cas_no": "",
    "SMILES": "C(O)(=O)C1C(C)C1",
    "meta_data": {
        "InChI": "InChI=1S/C5H8O2/c1-3-2-4(3)5(6)7/h3-4H,2H2,1H3,(H,6,7)",
        "InChIKey": null,
        "Canonical SMILES": "O=C(O)C1CC1C",
        "Molecular Formula": "C<sub>5</sub>H<sub>8</sub>O<sub>2</sub>",
        "Molecular Mass": "100.12",
        "Boiling Point": "191 °C",
        "Density": "1.0269 g/cm³ @ Temp: 20 °C"
    }
}