{
    "cas_no": "1312-41-0",
    "key_name": "Indium antimonide",
    "cn_name": "锑化铟;锑化铟晶片;",
    "alternate_name": "Antimony, compd. with indium (1:1);Indium antimonide (InSb);Antimony compd. with indium (1:1);Indium antimonide;Indium compd. with antimony (1:1);Indium monoantimonide;Antimony alloy, base, Sb 51,In 49;Indium alloy, nonbase, Sb 51,In 49;Indium 50, antimony 50 (atomic);Antimony 50, indium 50 (atomic)",
    "duplicated_cas_no": "26209-91-6;37257-75-3;50814-97-6;56668-68-9;71747-80-3;85307-36-4",
    "SMILES": "[In].[Sb]",
    "meta_data": {
        "InChI": "InChI=1S/In.Sb",
        "InChIKey": null,
        "Canonical SMILES": "[In].[Sb]",
        "Molecular Formula": "In.Sb",
        "Molecular Mass": "",
        "Melting Point": "536 °C",
        "Density": "6.51 g/cm³"
    }
}