{
    "uri": "substance/pt/1312410",
    "rn": "1312-41-0",
    "name": "Indium antimonide",
    "images": [],
    "inchi": "InChI=1S/In.Sb",
    "inchiKey": "InChIKey=WPYVAWXEWQSOGY-UHFFFAOYSA-N",
    "smile": "[In].[Sb]",
    "canonicalSmile": "[In].[Sb]",
    "molecularFormula": "In.Sb",
    "molecularMass": "",
    "experimentalProperties": [
        {
            "name": "Melting Point",
            "property": "536 °C",
            "sourceNumber": 1
        },
        {
            "name": "Density",
            "property": "6.51 g/cm³",
            "sourceNumber": 2
        }
    ],
    "propertyCitations": [
        {
            "docUri": "document/pt/document/18334866",
            "sourceNumber": 1,
            "source": "Pogodin, S. A.; Izvestiya Sektora Fiziko-Khimicheskogo Analiza, Institut Obshchei i Neorganicheskoi Khimii, Akademiya Nauk SSSR, (1949), 17, 204-8, CAplus"
        },
        {
            "docUri": "document/pt/document/27770443",
            "sourceNumber": 2,
            "source": "Zhang, Changqiao; Chemical Physics Letters, (2005), 408(4-6), 348-353, CAplus"
        }
    ],
    "synonyms": [
        "Antimony, compd. with indium (1:1)",
        "Indium antimonide (InSb)",
        "Antimony compd. with indium (1:1)",
        "Indium antimonide",
        "Indium compd. with antimony (1:1)",
        "Indium monoantimonide",
        "Antimony alloy, base, Sb 51,In 49",
        "Indium alloy, nonbase, Sb 51,In 49",
        "Indium 50, antimony 50 (atomic)",
        "Antimony 50, indium 50 (atomic)"
    ],
    "replacedRns": [
        "26209-91-6",
        "37257-75-3",
        "50814-97-6",
        "56668-68-9",
        "71747-80-3",
        "85307-36-4"
    ],
    "hasMolfile": true,
    "source": "https://commonchemistry.cas.org/detail?cas_rn=1312-41-0"
}