{
    "cas_no": "1759-53-1",
    "key_name": "Cyclopropanecarboxylic acid",
    "cn_name": "环丙甲酸;",
    "alternate_name": "Cyclopropanecarboxylic acid;Cyclopropionic acid;Cyclopropylcarboxylic acid;Carboxycyclopropane;NSC 1112",
    "duplicated_cas_no": "",
    "SMILES": "C(O)(=O)C1CC1",
    "meta_data": {
        "InChI": "InChI=1S/C4H6O2/c5-4(6)3-1-2-3/h3H,1-2H2,(H,5,6)",
        "InChIKey": null,
        "Canonical SMILES": "O=C(O)C1CC1",
        "Molecular Formula": "C<sub>4</sub>H<sub>6</sub>O<sub>2</sub>",
        "Molecular Mass": "86.09",
        "Boiling Point": "183 °C",
        "Melting Point": "18.5 °C",
        "Density": "0.9154 g/cm³ @ Temp: 0 °C"
    }
}