{
    "cas_no": "3347-90-8",
    "key_name": "(<em>S</em>)-2-Hydroxybutyric acid",
    "cn_name": "(S)-2-羟基丁酸;",
    "alternate_name": "Butanoic acid, 2-hydroxy-, (2<em>S</em>)-;Butanoic acid, 2-hydroxy-, (<em>S</em>)-;(2<em>S</em>)-2-Hydroxybutanoic acid;<span class=\"text-smallcaps\">L</span>-2-Hydroxybutyric acid;(+)-2-Hydroxybutyric acid;(+)-2-Hydroxy-<em>n</em>-butyric acid;(+)-2-Hydroxybutanoic acid;(<em>S</em>)-2-Hydroxybutyric acid;<span class=\"text-smallcaps\">L</span>-α-Hydroxybutyric acid;(+)-α-Hydroxybutyric acid;(<em>S</em>)-2-Hydroxybutanoic acid;(<em>S</em>)-(+)-2-Hydroxybutanoic acid;(2S)-2-Hydroxybutanoic acid",
    "duplicated_cas_no": "",
    "SMILES": "[C@@H](C(O)=O)(CC)O",
    "meta_data": {
        "InChI": "InChI=1S/C4H8O3/c1-2-3(5)4(6)7/h3,5H,2H2,1H3,(H,6,7)/t3-/m0/s1",
        "InChIKey": null,
        "Canonical SMILES": "O=C(O)C(O)CC",
        "Molecular Formula": "C<sub>4</sub>H<sub>8</sub>O<sub>3</sub>",
        "Molecular Mass": "104.10",
        "Melting Point": "40-42 °C"
    }
}