{
    "cas_no": "70-58-6",
    "key_name": "5-Fluoro-3-pyridinecarboxamide",
    "cn_name": null,
    "alternate_name": "3-Pyridinecarboxamide, 5-fluoro-;Nicotinamide, 5-fluoro-;5-Fluoro-3-pyridinecarboxamide;5-Fluoronicotinamide;NSC 403725",
    "duplicated_cas_no": "",
    "SMILES": "C(N)(=O)C=1C=C(F)C=NC1",
    "meta_data": {
        "InChI": "InChI=1S/C6H5FN2O/c7-5-1-4(6(8)10)2-9-3-5/h1-3H,(H2,8,10)",
        "InChIKey": null,
        "Canonical SMILES": "O=C(N)C=1C=NC=C(F)C1",
        "Molecular Formula": "C<sub>6</sub>H<sub>5</sub>FN<sub>2</sub>O",
        "Molecular Mass": "140.12",
        "Melting Point": "173-175 °C"
    }
}