{
    "cas_no": "500-22-1",
    "key_name": "3-Pyridinecarboxaldehyde",
    "cn_name": "3-吡啶甲醛;吡啶-3-甲醛;",
    "alternate_name": "3-Pyridinecarboxaldehyde;Nicotinaldehyde;3-Pyridinealdehyde;β-Pyridinecarbonaldehyde;Rowalind;3-Pyridylcarboxaldehyde;3-Pyridinaldehyde;3-Formylpyridine;3-Pyridylaldehyde;Nicotinealdehyde;Nicotinic aldehyde;Pyridine-3-carbaldehyde;β-Formylpyridine;<em>m</em>-Formylpyridine;NSC 8952;Pyridine-5-carboxaldehyde;3-Pyridylcarboxyaldehyde;Pyridine-3-formaldehyde;Pyridine-3-carboxaldehyde",
    "duplicated_cas_no": "",
    "SMILES": "C(=O)C=1C=CC=NC1",
    "meta_data": {
        "InChI": "InChI=1S/C6H5NO/c8-5-6-2-1-3-7-4-6/h1-5H",
        "InChIKey": null,
        "Canonical SMILES": "O=CC=1C=NC=CC1",
        "Molecular Formula": "C<sub>6</sub>H<sub>5</sub>NO",
        "Molecular Mass": "107.11",
        "Boiling Point": "89.5 °C",
        "Melting Point": "214 °C"
    }
}