{
    "cas_no": "40283-46-3",
    "key_name": "2-Amino-5-thiazolecarboxylic acid",
    "cn_name": null,
    "alternate_name": "5-Thiazolecarboxylic acid, 2-amino-;2-Amino-5-thiazolecarboxylic acid;NSC 239729;2-Amino-1,3-thiazole-5-carboxylic acid",
    "duplicated_cas_no": "",
    "SMILES": "C(O)(=O)C=1SC(N)=NC1",
    "meta_data": {
        "InChI": "InChI=1S/C4H4N2O2S/c5-4-6-1-2(9-4)3(7)8/h1H,(H2,5,6)(H,7,8)",
        "InChIKey": null,
        "Canonical SMILES": "O=C(O)C=1SC(=NC1)N",
        "Molecular Formula": "C<sub>4</sub>H<sub>4</sub>N<sub>2</sub>O<sub>2</sub>S",
        "Molecular Mass": "144.15",
        "Melting Point": "213-215 °C (decomp)"
    }
}