{
    "cas_no": "26186-00-5",
    "key_name": "1-Heptadecyne",
    "cn_name": null,
    "alternate_name": "1-Heptadecyne",
    "duplicated_cas_no": "",
    "SMILES": "C(CCCCCCCC)CCCCCCC#C",
    "meta_data": {
        "InChI": "InChI=1S/C17H32/c1-3-5-7-9-11-13-15-17-16-14-12-10-8-6-4-2/h1H,4-17H2,2H3",
        "InChIKey": null,
        "Canonical SMILES": "C#CCCCCCCCCCCCCCCC",
        "Molecular Formula": "C<sub>17</sub>H<sub>32</sub>",
        "Molecular Mass": "236.44",
        "Boiling Point": "171 °C @ Press: 17 Torr",
        "Melting Point": "26 °C"
    }
}