{
    "cas_no": "1193-92-6",
    "key_name": "3-Pyridinecarboxaldehyde, oxime",
    "cn_name": "3-吡啶醛肟;3-吡啶肟;吡啶-3-乙醛肟;",
    "alternate_name": "3-Pyridinecarboxaldehyde, oxime;Nicotinaldehyde, oxime;Nicotinaldoxime;3-Pyridinaldoxime;3-Pyridinecarboxaldoxime;3-Pyridylaldoxime;3-[(Hydroxyimino)methyl]pyridine;NSC 66485",
    "duplicated_cas_no": "",
    "SMILES": "C(=NO)C=1C=CC=NC1",
    "meta_data": {
        "InChI": "InChI=1S/C6H6N2O/c9-8-5-6-2-1-3-7-4-6/h1-5,9H",
        "InChIKey": null,
        "Canonical SMILES": "ON=CC=1C=NC=CC1",
        "Molecular Formula": "C<sub>6</sub>H<sub>6</sub>N<sub>2</sub>O",
        "Molecular Mass": "122.12",
        "Melting Point": "150 °C"
    }
}