{
    "cas_no": "52214-84-3",
    "key_name": "Ciprofibrate",
    "cn_name": "环丙贝特;2-[4-(2,2-二氯环丙基)苯氧基]-2-甲基丙酸;",
    "alternate_name": "Propanoic acid, 2-[4-(2,2-dichlorocyclopropyl)phenoxy]-2-methyl-;2-[4-(2,2-Dichlorocyclopropyl)phenoxy]-2-methylpropanoic acid;2-[<em>p</em>-(2,2-Dichlorocyclopropyl)phenoxy]-2-methylpropionic acid;Ciprofibrate;Win 35833;(±)-Ciprofibrate;Lipanor;Ciprol;Modalim;2-[4-(2,2-Dichloro-cyclopropyl)-phenoxy]-2-methyl-propionic acid",
    "duplicated_cas_no": "128660-46-8",
    "SMILES": "ClC1(Cl)C(C1)C2=CC=C(OC(C(O)=O)(C)C)C=C2",
    "meta_data": {
        "InChI": "InChI=1S/C13H14Cl2O3/c1-12(2,11(16)17)18-9-5-3-8(4-6-9)10-7-13(10,14)15/h3-6,10H,7H2,1-2H3,(H,16,17)",
        "InChIKey": null,
        "Canonical SMILES": "O=C(O)C(OC1=CC=C(C=C1)C2CC2(Cl)Cl)(C)C",
        "Molecular Formula": "C<sub>13</sub>H<sub>14</sub>Cl<sub>2</sub>O<sub>3</sub>",
        "Molecular Mass": "289.15",
        "Melting Point": "115 °C"
    }
}