{
    "cas_no": "103-26-4",
    "key_name": "Methyl cinnamate",
    "cn_name": "肉桂酸甲酯;",
    "alternate_name": "2-Propenoic acid, 3-phenyl-, methyl ester;Cinnamic acid, methyl ester;Methyl cinnamate;Methyl cinnamylate;Methyl 3-phenylpropenoate;Methyl 3-phenyl-2-propenoate;Methyl 3-phenylacrylate;3-Phenyl-2-propenoic acid methyl ester;3-Phenylacrylic acid methyl ester;NSC 9411;SemaSORB 9815",
    "duplicated_cas_no": "403649-70-7",
    "SMILES": "C(=CC(OC)=O)C1=CC=CC=C1",
    "meta_data": {
        "InChI": "InChI=1S/C10H10O2/c1-12-10(11)8-7-9-5-3-2-4-6-9/h2-8H,1H3",
        "InChIKey": null,
        "Canonical SMILES": "O=C(OC)C=CC=1C=CC=CC1",
        "Molecular Formula": "C<sub>10</sub>H<sub>10</sub>O<sub>2</sub>",
        "Molecular Mass": "162.19",
        "Boiling Point": "260.4 °C",
        "Melting Point": "36 °C",
        "Density": "1.0672 g/cm³ @ Temp: 15 °C"
    }
}