{
    "cas_no": "5893-10-7",
    "key_name": "<em>N</em>-Formylalanine",
    "cn_name": "N-甲酰-DL-丙氨酸;",
    "alternate_name": "Alanine, <em>N</em>-formyl-;Alanine, <em>N</em>-formyl-, <span class=\"text-smallcaps\">DL</span>-;<em>N</em>-Formylalanine;<em>N</em>-Formyl-<span class=\"text-smallcaps\">DL</span>-alanine;NSC 6749;2-Formamidopropanoic acid",
    "duplicated_cas_no": "",
    "SMILES": "C(NC=O)(C(O)=O)C",
    "meta_data": {
        "InChI": "InChI=1S/C4H7NO3/c1-3(4(7)8)5-2-6/h2-3H,1H3,(H,5,6)(H,7,8)",
        "InChIKey": null,
        "Canonical SMILES": "O=CNC(C(=O)O)C",
        "Molecular Formula": "C<sub>4</sub>H<sub>7</sub>NO<sub>3</sub>",
        "Molecular Mass": "117.10",
        "Melting Point": "149 °C"
    }
}