{
    "cas_no": "15263-53-3",
    "key_name": "Cartap",
    "cn_name": null,
    "alternate_name": "Carbamothioic acid, <em>S</em><sup>C</sup>,<em>S</em><sup>C′</sup>-[2-(dimethylamino)-1,3-propanediyl] ester;Carbamic acid, thio-, <em>S</em>,<em>S</em>′-[2-(dimethylamino)trimethylene] ester;Carbamothioic acid, <em>S</em>,<em>S</em>′-[2-(dimethylamino)-1,3-propanediyl] ester;1,3-Propanedithiol, 2-(dimethylamino)-, dicarbamate (ester);Cartap;1,3-Bis(carbamoylthio)-2-(dimethylamino)propane;Sanvex;Thiobel;Cartrap",
    "duplicated_cas_no": "",
    "SMILES": "C(CSC(N)=O)(CSC(N)=O)N(C)C",
    "meta_data": {
        "InChI": "InChI=1S/C7H15N3O2S2/c1-10(2)5(3-13-6(8)11)4-14-7(9)12/h5H,3-4H2,1-2H3,(H2,8,11)(H2,9,12)",
        "InChIKey": null,
        "Canonical SMILES": "O=C(SCC(N(C)C)CSC(=O)N)N",
        "Molecular Formula": "C<sub>7</sub>H<sub>15</sub>N<sub>3</sub>O<sub>2</sub>S<sub>2</sub>",
        "Molecular Mass": "237.34",
        "Melting Point": "131 °C (decomp)"
    }
}