{
    "cas_no": "97-17-6",
    "key_name": "Dichlofenthion",
    "cn_name": "酚线磷;O-2,4-二氯苯基-O,O-二乙基硫代磷酸酯;除线磷;氯线磷;",
    "alternate_name": "Phosphorothioic acid, <em>O</em>-(2,4-dichlorophenyl) <em>O</em>,<em>O</em>-diethyl ester;VC 13;ENT 17470;Dichlofenthion;<em>O</em>,<em>O</em>-Diethyl <em>O</em>-(2,4-dichlorophenyl) phosphorothioate;ECP;Nemacide;VC 13 Nemacide;<em>O</em>-(2,4-Dichlorophenyl) <em>O</em>,<em>O</em>-diethyl phosphorothioate;VC 1-13;Hexanema;ECP (pesticide);VC 13 (pesticide);NSC 52964",
    "duplicated_cas_no": "11137-49-8",
    "SMILES": "O(P(OCC)(OCC)=S)C1=C(Cl)C=C(Cl)C=C1",
    "meta_data": {
        "InChI": "InChI=1S/C10H13Cl2O3PS/c1-3-13-16(17,14-4-2)15-10-6-5-8(11)7-9(10)12/h5-7H,3-4H2,1-2H3",
        "InChIKey": null,
        "Canonical SMILES": "S=P(OC1=CC=C(Cl)C=C1Cl)(OCC)OCC",
        "Molecular Formula": "C<sub>10</sub>H<sub>13</sub>Cl<sub>2</sub>O<sub>3</sub>PS",
        "Molecular Mass": "315.15",
        "Boiling Point": "164-169 °C @ Press: 0.1 Torr",
        "Density": "1.300 g/cm³ @ Temp: 20 °C"
    }
}