{
    "cas_no": "84478-72-8",
    "key_name": "5-Amino-2-chloro-4-fluorophenol",
    "cn_name": null,
    "alternate_name": "Phenol, 5-amino-2-chloro-4-fluoro-;5-Amino-2-chloro-4-fluorophenol;2-Chloro-4-fluoro-5-aminophenol;4-Chloro-2-fluoro-5-hydroxyaniline;2-Fluoro-4-chloro-5-hydroxyaniline",
    "duplicated_cas_no": "",
    "SMILES": "ClC1=C(O)C=C(N)C(F)=C1",
    "meta_data": {
        "InChI": "InChI=1S/C6H5ClFNO/c7-3-1-4(8)5(9)2-6(3)10/h1-2,10H,9H2",
        "InChIKey": null,
        "Canonical SMILES": "FC=1C=C(Cl)C(O)=CC1N",
        "Molecular Formula": "C<sub>6</sub>H<sub>5</sub>ClFNO",
        "Molecular Mass": "161.56",
        "Melting Point": "145-146 °C (decomp)"
    }
}