{
    "cas_no": "5418-95-1",
    "key_name": "2-Guanidinobenzimidazole",
    "cn_name": null,
    "alternate_name": "Guanidine, <em>N</em>-1<em>H</em>-benzimidazol-2-yl-;Guanidine, (2-benzimidazolyl)-;Guanidine, 1<em>H</em>-benzimidazol-2-yl-;<em>N</em>-1<em>H</em>-Benzimidazol-2-ylguanidine;2-Guanidinobenzimidazole;2-Benzimidazolylguanidine;NSC 10548;(1<em>H</em>-Benzimidazol-2-yl)guanidine;1-(1<em>H</em>-1,3-Benzimidazol-2-yl)guanidine;1-(1<em>H</em>-1,3-Benzodiazol-2-yl)guanidine;1-(1<em>H</em>-Benzo[<em>d</em>]imidazol-2-yl)guanidine;1-(1<em>H</em>-Benzimidazol-2-yl)guanidine;2-(1<em>H</em>-Benzimidazol-2-yl)guanidine",
    "duplicated_cas_no": "108940-88-1;111682-91-8;79454-77-6",
    "SMILES": "N(C(=N)N)C=1NC=2C(N1)=CC=CC2",
    "meta_data": {
        "InChI": "InChI=1S/C8H9N5/c9-7(10)13-8-11-5-3-1-2-4-6(5)12-8/h1-4H,(H5,9,10,11,12,13)",
        "InChIKey": null,
        "Canonical SMILES": "N=C(N)NC1=NC=2C=CC=CC2N1",
        "Molecular Formula": "C<sub>8</sub>H<sub>9</sub>N<sub>5</sub>",
        "Molecular Mass": "175.19",
        "Melting Point": "245 °C (decomp)"
    }
}