{
    "cas_no": "22620-32-2",
    "key_name": "5-Fluoro-3-pyridinemethanol",
    "cn_name": null,
    "alternate_name": "3-Pyridinemethanol, 5-fluoro-;5-Fluoro-3-pyridinemethanol;(5-Fluoro-3-pyridyl)methanol;5-Fluoro-3-hydroxymethylpyridine;(5-Fluoropyridin-3-yl)methanol",
    "duplicated_cas_no": "",
    "SMILES": "C(O)C=1C=C(F)C=NC1",
    "meta_data": {
        "InChI": "InChI=1S/C6H6FNO/c7-6-1-5(4-9)2-8-3-6/h1-3,9H,4H2",
        "InChIKey": null,
        "Canonical SMILES": "FC1=CN=CC(=C1)CO",
        "Molecular Formula": "C<sub>6</sub>H<sub>6</sub>FNO",
        "Molecular Mass": "127.12",
        "Boiling Point": "123 °C @ Press: 0.4 Torr"
    }
}