{
    "cas_no": "14255-87-9",
    "key_name": "Parbendazole",
    "cn_name": "帕苯咪唑;虫帕唑;5-丁基-2-苯并咪唑氨基甲酸甲酯;",
    "alternate_name": "Carbamic acid, <em>N</em>-(6-butyl-1<em>H</em>-benzimidazol-2-yl)-, methyl ester;2-Benzimidazolecarbamic acid, 5-butyl-, methyl ester;Carbamic acid, (5-butyl-1<em>H</em>-benzimidazol-2-yl)-, methyl ester;Methyl 5(6)-butyl-2-benzimidazolecarbamate;Parbendazole;5-Butyl-2-(carbomethoxyamino)benzimidazole;SKF 29044;Methyl 5-butylbenzimidazole-2-carbamate;Helmatac;Methyl (5-butyl-1<em>H</em>-benzimidazol-2-yl)carbamate;Helatac;PBZ (fungicide);PBZ",
    "duplicated_cas_no": "52980-90-2",
    "SMILES": "N(C(OC)=O)C=1NC=2C(N1)=CC(CCCC)=CC2",
    "meta_data": {
        "InChI": "InChI=1S/C13H17N3O2/c1-3-4-5-9-6-7-10-11(8-9)15-12(14-10)16-13(17)18-2/h6-8H,3-5H2,1-2H3,(H2,14,15,16,17)",
        "InChIKey": null,
        "Canonical SMILES": "O=C(OC)NC1=NC=2C=C(C=CC2N1)CCCC",
        "Molecular Formula": "C<sub>13</sub>H<sub>17</sub>N<sub>3</sub>O<sub>2</sub>",
        "Molecular Mass": "247.29",
        "Melting Point": "226 °C (decomp)"
    }
}