{
    "cas_no": "4309-82-4",
    "key_name": "<em>N</em>-Formylmethionine",
    "cn_name": "N-甲酰-DL-甲硫氨酸;",
    "alternate_name": "Methionine, <em>N</em>-formyl-;Methionine, <em>N</em>-formyl-, <span class=\"text-smallcaps\">DL</span>-;<em>N</em>-Formylmethionine;<em>N</em>-Formyl-<span class=\"text-smallcaps\">DL</span>-methionine;NSC 206506;2-Formamido-4-(methylsulfanyl)butanoic acid;2-Formamido-4-methylsulfanylbutanoic acid",
    "duplicated_cas_no": "",
    "SMILES": "C(CCSC)(NC=O)C(O)=O",
    "meta_data": {
        "InChI": "InChI=1S/C6H11NO3S/c1-11-3-2-5(6(9)10)7-4-8/h4-5H,2-3H2,1H3,(H,7,8)(H,9,10)",
        "InChIKey": null,
        "Canonical SMILES": "O=CNC(C(=O)O)CCSC",
        "Molecular Formula": "C<sub>6</sub>H<sub>11</sub>NO<sub>3</sub>S",
        "Molecular Mass": "177.22",
        "Melting Point": "99-100 °C"
    }
}