{
    "cas_no": "2766-18-9",
    "key_name": "1-[(Phenylmethoxy)carbonyl]-<span class=\"text-smallcaps\">L</span>-prolylglycine",
    "cn_name": null,
    "alternate_name": "Glycine, 1-[(phenylmethoxy)carbonyl]-<span class=\"text-smallcaps\">L</span>-prolyl-;1-Pyrrolidinecarboxylic acid, 2-[(carboxymethyl)carbamoyl]-, 1-benzyl ester, <span class=\"text-smallcaps\">L</span>-;Glycine, <em>N</em>-[1-[(phenylmethoxy)carbonyl]-<span class=\"text-smallcaps\">L</span>-prolyl]-;1-Pyrrolidinecarboxylic acid, <span class=\"text-smallcaps\">L</span>-2-[(carboxymethyl)carbamoyl]-, 1-benzyl ester;1-[(Phenylmethoxy)carbonyl]-<span class=\"text-smallcaps\">L</span>-prolylglycine;<em>N</em>-Benzyloxycarbonyl-<span class=\"text-smallcaps\">L</span>-prolylglycine;NSC 334028;2-[[(2S)-1-Phenylmethoxycarbonylpyrrolidine-2-carbonyl]amino]acetic acid",
    "duplicated_cas_no": "",
    "SMILES": "C(OCC1=CC=CC=C1)(=O)N2[C@H](C(NCC(O)=O)=O)CCC2",
    "meta_data": {
        "InChI": "InChI=1S/C15H18N2O5/c18-13(19)9-16-14(20)12-7-4-8-17(12)15(21)22-10-11-5-2-1-3-6-11/h1-3,5-6,12H,4,7-10H2,(H,16,20)(H,18,19)/t12-/m0/s1",
        "InChIKey": null,
        "Canonical SMILES": "O=C(O)CNC(=O)C1N(C(=O)OCC=2C=CC=CC2)CCC1",
        "Molecular Formula": "C<sub>15</sub>H<sub>18</sub>N<sub>2</sub>O<sub>5</sub>",
        "Molecular Mass": "306.31",
        "Melting Point": "196 °C"
    }
}