{
    "cas_no": "22134-75-4",
    "key_name": "4-Amino-3,5-dichlorobenzenesulfonamide",
    "cn_name": "3,5-二氯磺胺;",
    "alternate_name": "Benzenesulfonamide, 4-amino-3,5-dichloro-;Sulfanilamide, 3,5-dichloro-;4-Amino-3,5-dichlorobenzenesulfonamide;3,5-Dichlorosulfanilamide;3,5-Dichlorosulfanilimide;NSC 62888",
    "duplicated_cas_no": "1028259-95-1",
    "SMILES": "S(N)(=O)(=O)C1=CC(Cl)=C(N)C(Cl)=C1",
    "meta_data": {
        "InChI": "InChI=1S/C6H6Cl2N2O2S/c7-4-1-3(13(10,11)12)2-5(8)6(4)9/h1-2H,9H2,(H2,10,11,12)",
        "InChIKey": null,
        "Canonical SMILES": "O=S(=O)(N)C1=CC(Cl)=C(N)C(Cl)=C1",
        "Molecular Formula": "C<sub>6</sub>H<sub>6</sub>Cl<sub>2</sub>N<sub>2</sub>O<sub>2</sub>S",
        "Molecular Mass": "241.10",
        "Melting Point": "205-205.5 °C"
    }
}