{
    "cas_no": "459-31-4",
    "key_name": "3-(4-Fluorophenyl)propionic acid",
    "cn_name": "3-(4-氟苯基)丙酸;",
    "alternate_name": "Benzenepropanoic acid, 4-fluoro-;Hydrocinnamic acid, <em>p</em>-fluoro-;4-Fluorobenzenepropanoic acid;<em>p</em>-Fluorohydrocinnamic acid;3-(<em>p</em>-Fluorophenyl)propionic acid;3-(4-Fluorophenyl)propionic acid;3-(4-Fluorophenyl)propanoic acid;NSC 403021;4-Fluorobenzylacetic acid",
    "duplicated_cas_no": "",
    "SMILES": "C(CC(O)=O)C1=CC=C(F)C=C1",
    "meta_data": {
        "InChI": "InChI=1S/C9H9FO2/c10-8-4-1-7(2-5-8)3-6-9(11)12/h1-2,4-5H,3,6H2,(H,11,12)",
        "InChIKey": null,
        "Canonical SMILES": "O=C(O)CCC1=CC=C(F)C=C1",
        "Molecular Formula": "C<sub>9</sub>H<sub>9</sub>FO<sub>2</sub>",
        "Molecular Mass": "168.16",
        "Boiling Point": "105-107 °C @ Press: 22 Torr",
        "Melting Point": "95 °C"
    }
}