{
    "cas_no": "10025-74-8",
    "key_name": "Dysprosium chloride",
    "cn_name": "氯化钪;",
    "alternate_name": "Dysprosium chloride (DyCl<sub>3</sub>);Dysprosium trichloride;Dysprosium(III) chloride;Dysprosium chloride;NSC 174321",
    "duplicated_cas_no": "",
    "SMILES": "[Dy](Cl)(Cl)Cl",
    "meta_data": {
        "InChI": "InChI=1S/3ClH.Dy/h3*1H;/q;;;+3/p-3",
        "InChIKey": null,
        "Canonical SMILES": "Cl[Dy](Cl)Cl",
        "Molecular Formula": "Cl<sub>3</sub>Dy",
        "Molecular Mass": "",
        "Melting Point": "654 °C"
    }
}