{
    "cas_no": "40736-26-3",
    "key_name": "1-(Methylsulfonyl)-1<em>H</em>-imidazole",
    "cn_name": null,
    "alternate_name": "1<em>H</em>-Imidazole, 1-(methylsulfonyl)-;1-(Methylsulfonyl)-1<em>H</em>-imidazole;<em>N</em>-Methanesulfonylimidazole;1-Methanesulfonylimidazole;1-(Methylsulfonyl)imidazole;1-Methanesulfonyl-1<em>H</em>-imidazole",
    "duplicated_cas_no": "",
    "SMILES": "S(C)(=O)(=O)N1C=CN=C1",
    "meta_data": {
        "InChI": "InChI=1S/C4H6N2O2S/c1-9(7,8)6-3-2-5-4-6/h2-4H,1H3",
        "InChIKey": null,
        "Canonical SMILES": "O=S(=O)(N1C=NC=C1)C",
        "Molecular Formula": "C<sub>4</sub>H<sub>6</sub>N<sub>2</sub>O<sub>2</sub>S",
        "Molecular Mass": "146.17",
        "Melting Point": "189-190 °C"
    }
}