{
    "cas_no": "994-49-0",
    "key_name": "Hexaethyldisiloxane",
    "cn_name": "六乙基二硅氧烷;六乙基二硅氧烷;",
    "alternate_name": "Disiloxane, 1,1,1,3,3,3-hexaethyl-;Disiloxane, hexaethyl-;1,1,1,3,3,3-Hexaethyldisiloxane;Hexaethyldisiloxane;Bis(triethylsilyl) ether;NSC 139841",
    "duplicated_cas_no": "",
    "SMILES": "[Si](O[Si](CC)(CC)CC)(CC)(CC)CC",
    "meta_data": {
        "InChI": "InChI=1S/C12H30OSi2/c1-7-14(8-2,9-3)13-15(10-4,11-5)12-6/h7-12H2,1-6H3",
        "InChIKey": null,
        "Canonical SMILES": "O([Si](CC)(CC)CC)[Si](CC)(CC)CC",
        "Molecular Formula": "C<sub>12</sub>H<sub>30</sub>OSi<sub>2</sub>",
        "Molecular Mass": "246.54",
        "Boiling Point": "233 °C",
        "Melting Point": "-115 °C",
        "Density": "0.844 g/cm³"
    }
}