{
    "cas_no": "3453-64-3",
    "key_name": "3-Methylphthalide",
    "cn_name": null,
    "alternate_name": "1(3<em>H</em>)-Isobenzofuranone, 3-methyl-;Phthalide, 3-methyl-;3-Methyl-1(3<em>H</em>)-isobenzofuranone;Benzoic acid, 2-(1-hydroxyethyl)-, γ-lactone;3-Methylphthalide;3-Methyl-2-benzofuran-1(3<em>H</em>)-one;3-Methyl-1,3-dihydro-2-benzofuran-1-one",
    "duplicated_cas_no": "",
    "SMILES": "CC1C=2C(C(=O)O1)=CC=CC2",
    "meta_data": {
        "InChI": "InChI=1S/C9H8O2/c1-6-7-4-2-3-5-8(7)9(10)11-6/h2-6H,1H3",
        "InChIKey": null,
        "Canonical SMILES": "O=C1OC(C=2C=CC=CC12)C",
        "Molecular Formula": "C<sub>9</sub>H<sub>8</sub>O<sub>2</sub>",
        "Molecular Mass": "148.16",
        "Boiling Point": "272-274 °C @ Press: 758 Torr"
    }
}