{
    "cas_no": "10097-28-6",
    "key_name": "Silicon oxide (SiO)",
    "cn_name": "一氧化硅;",
    "alternate_name": "Silylene, oxo-;Silicon oxide (OSi);Oxosilylene;Silicon monoxide;Silicon oxide (SiO);Silicon monooxide",
    "duplicated_cas_no": "12396-92-8;13779-62-9;2281795-36-4",
    "SMILES": "O=[Si]",
    "meta_data": {
        "InChI": "InChI=1S/OSi/c1-2",
        "InChIKey": null,
        "Canonical SMILES": "O=[Si]",
        "Molecular Formula": "OSi",
        "Molecular Mass": "",
        "Melting Point": "1880 °C",
        "Density": "2.130 g/cm³"
    }
}