{
    "cas_no": "19241-20-4",
    "key_name": "Benzene, 1-ethyl-3-isothiocyanato-",
    "cn_name": null,
    "alternate_name": "Benzene, 1-ethyl-3-isothiocyanato-;Isothiocyanic acid, <em>m</em>-ethylphenyl ester;3-Ethylphenyl isothiocyanate;1-Ethyl-3-isothiocyanatobenzene",
    "duplicated_cas_no": "",
    "SMILES": "N(=C=S)C1=CC(CC)=CC=C1",
    "meta_data": {
        "InChI": "InChI=1S/C9H9NS/c1-2-8-4-3-5-9(6-8)10-7-11/h3-6H,2H2,1H3",
        "InChIKey": null,
        "Canonical SMILES": "S=C=NC1=CC=CC(=C1)CC",
        "Molecular Formula": "C<sub>9</sub>H<sub>9</sub>NS",
        "Molecular Mass": "163.24",
        "Boiling Point": "116 °C @ Press: 7 Torr"
    }
}