{
    "cas_no": "13280-07-4",
    "key_name": "4-Chloro-2-butyn-1-ol",
    "cn_name": "4-氯-2-丁炔-1-醇;",
    "alternate_name": "2-Butyn-1-ol, 4-chloro-;4-Chloro-2-butyn-1-ol;4-Chloro-2-butynol;1-Chloro-2-butyn-4-ol;4-Chloro-2-butyne-1-ol;1-Chloro-4-hydroxy-2-butyne",
    "duplicated_cas_no": "",
    "SMILES": "C(#CCO)CCl",
    "meta_data": {
        "InChI": "InChI=1S/C4H5ClO/c5-3-1-2-4-6/h6H,3-4H2",
        "InChIKey": null,
        "Canonical SMILES": "ClCC#CCO",
        "Molecular Formula": "C<sub>4</sub>H<sub>5</sub>ClO",
        "Molecular Mass": "104.53",
        "Boiling Point": "87-88 °C @ Press: 12 Torr",
        "Density": "1.2049 g/cm³ @ Temp: 25 °C"
    }
}