{
    "cas_no": "67085-11-4",
    "key_name": "α-[2-(4-Chlorophenyl)ethyl]-1<em>H</em>-imidazole-1-ethanol",
    "cn_name": "1-[4-(4-氯苯基)-2-羟基正丁基]咪唑;",
    "alternate_name": "1<em>H</em>-Imidazole-1-ethanol, α-[2-(4-chlorophenyl)ethyl]-;α-[2-(4-Chlorophenyl)ethyl]-1<em>H</em>-imidazole-1-ethanol;1-[4-(4-Chlorophenyl)-2-hydroxylbutyl]imidazole",
    "duplicated_cas_no": "143327-57-5",
    "SMILES": "C(C(CCC1=CC=C(Cl)C=C1)O)N2C=CN=C2",
    "meta_data": {
        "InChI": "InChI=1S/C13H15ClN2O/c14-12-4-1-11(2-5-12)3-6-13(17)9-16-8-7-15-10-16/h1-2,4-5,7-8,10,13,17H,3,6,9H2",
        "InChIKey": null,
        "Canonical SMILES": "ClC1=CC=C(C=C1)CCC(O)CN2C=NC=C2",
        "Molecular Formula": "C<sub>13</sub>H<sub>15</sub>ClN<sub>2</sub>O",
        "Molecular Mass": "250.72",
        "Melting Point": "106-109 °C"
    }
}