{
    "cas_no": "514-36-3",
    "key_name": "Fludrocortisone acetate",
    "cn_name": "醋酸氟氢可的松;",
    "alternate_name": "Pregn-4-ene-3,20-dione, 21-(acetyloxy)-9-fluoro-11,17-dihydroxy-, (11β)-;Pregn-4-ene-3,20-dione, 9-fluoro-11β,17,21-trihydroxy-, 21-acetate;Corticosterone, 9-fluoro-17-hydroxy-, 21-acetate;(11β)-21-(Acetyloxy)-9-fluoro-11,17-dihydroxypregn-4-ene-3,20-dione;Alflorone acetate;Fludrocortisone 21-acetate;9α-Fluorohydrocortisone 21-acetate;9α-Fluoro-11β,17α,21-trihydroxypregn-4-ene-3,20-dione 21-acetate;U 4845;9α-Fluorocortisol acetate;9α-Fluorohydrocortisone acetate;Fluorocortisol acetate;Fludrocortisone acetate;Cortineff;Scherofluron;9-Fluorohydrocortisone acetate;Fluorohydrocortisone acetate;9α-Fluorocortisol 21-acetate;NSC 15186;Fluorhydrocortisone acetate",
    "duplicated_cas_no": "25331-48-0;56857-33-1",
    "SMILES": "F[C@@]12[C@]([C@]3([C@](C)(C[C@@H]1O)[C@](C(COC(C)=O)=O)(O)CC3)[H])(CCC=4[C@]2(C)CCC(=O)C4)[H]",
    "meta_data": {
        "InChI": "InChI=1S/C23H31FO6/c1-13(25)30-12-19(28)22(29)9-7-16-17-5-4-14-10-15(26)6-8-20(14,2)23(17,24)18(27)11-21(16,22)3/h10,16-18,27,29H,4-9,11-12H2,1-3H3/t16-,17-,18-,20-,21-,22-,23-/m0/s1",
        "InChIKey": null,
        "Canonical SMILES": "O=C(OCC(=O)C1(O)CCC2C3CCC4=CC(=O)CCC4(C)C3(F)C(O)CC21C)C",
        "Molecular Formula": "C<sub>23</sub>H<sub>31</sub>FO<sub>6</sub>",
        "Molecular Mass": "422.49",
        "Melting Point": "233-234 °C"
    }
}