{
    "cas_no": "6779-09-5",
    "key_name": "Ethylphosphonic acid",
    "cn_name": "乙基磷酸;乙基磷酸;亚磷酸单乙酯;乙基磷酸, 98+%;",
    "alternate_name": "Phosphonic acid, <em>P</em>-ethyl-;Phosphonic acid, ethyl-;<em>P</em>-Ethylphosphonic acid;Ethanephosphonic acid;Ethylphosphonic acid",
    "duplicated_cas_no": "",
    "SMILES": "P(CC)(=O)(O)O",
    "meta_data": {
        "InChI": "InChI=1S/C2H7O3P/c1-2-6(3,4)5/h2H2,1H3,(H2,3,4,5)",
        "InChIKey": null,
        "Canonical SMILES": "O=P(O)(O)CC",
        "Molecular Formula": "C<sub>2</sub>H<sub>7</sub>O<sub>3</sub>P",
        "Molecular Mass": "110.05",
        "Boiling Point": "330-340 °C @ Press: 8 Torr",
        "Melting Point": "30-35 °C"
    }
}