{
    "cas_no": "3699-66-9",
    "key_name": "Triethyl 2-phosphonopropionate",
    "cn_name": null,
    "alternate_name": "Propanoic acid, 2-(diethoxyphosphinyl)-, ethyl ester;Propionic acid, 2-phosphono-, triethyl ester;α-Diethylphosphonopropionic acid ethyl ester;Ethyl α-diethylphosphonopropionate;Ethyl 2-(diethylphosphono)propionate;Triethyl α-phosphonopropionate;Triethyl 2-phosphonopropionate;Ethyl 2-(diethoxyphosphinyl)propanoate;2-Phosphonopropanoic acid triethyl ester;2-Phosphonopropionic acid triethyl ester;Triethyl 2-phosphonopropanoate;2-(Diethoxyphosphoryl)propionic acid ethyl ester;2-(Diethoxyphosphinyl)propanoic acid ethyl ester;Ethyl 2-(diethoxyphosphoryl)propanoate;Ethyl 2-(diethoxyphosphoryl)propionate;Ethyl 2(diethyoxyphosphoryl)propanoate;Triethyl 2-phosphonoproprionate",
    "duplicated_cas_no": "99440-39-8",
    "SMILES": "P(C(C(OCC)=O)C)(OCC)(OCC)=O",
    "meta_data": {
        "InChI": "InChI=1S/C9H19O5P/c1-5-12-9(10)8(4)15(11,13-6-2)14-7-3/h8H,5-7H2,1-4H3",
        "InChIKey": null,
        "Canonical SMILES": "O=C(OCC)C(C)P(=O)(OCC)OCC",
        "Molecular Formula": "C<sub>9</sub>H<sub>19</sub>O<sub>5</sub>P",
        "Molecular Mass": "238.22",
        "Boiling Point": "130.5-132.5 °C @ Press: 10.5 Torr",
        "Density": "1.093 g/cm³ @ Temp: 20 °C"
    }
}