{
    "cas_no": "873-69-8",
    "key_name": "Pyridine 2-aldoxime",
    "cn_name": "2-吡啶甲醛肟;",
    "alternate_name": "2-Pyridinecarboxaldehyde, oxime;Picolinaldehyde, oxime;2-Pyridinealdoxime;Picolinaldoxime;2-Hydroxyiminomethyl pyridine;2-Pyridylaldoxime;Pyridine 2-aldoxime;2-Formylpyridine ketoxime;2-Pyridinaldoxime;2-Formylpyridine oxime;2-Aldoximepyridine;Pyridine-2-carbaldoxime;NSC 66484;Pyridine-2-carboxaldoxime",
    "duplicated_cas_no": "",
    "SMILES": "C(=NO)C1=CC=CC=N1",
    "meta_data": {
        "InChI": "InChI=1S/C6H6N2O/c9-8-5-6-3-1-2-4-7-6/h1-5,9H",
        "InChIKey": null,
        "Canonical SMILES": "ON=CC1=NC=CC=C1",
        "Molecular Formula": "C<sub>6</sub>H<sub>6</sub>N<sub>2</sub>O",
        "Molecular Mass": "122.12",
        "Melting Point": "114 °C"
    }
}