{
    "cas_no": "134030-22-1",
    "key_name": "<em>N</em><sup>1</sup>,<em>N</em><sup>2</sup>-Bis[2,6-bis(1-methylethyl)phenyl]-1,2-ethanediamine",
    "cn_name": null,
    "alternate_name": "1,2-Ethanediamine, <em>N</em><sup>1</sup>,<em>N</em><sup>2</sup>-bis[2,6-bis(1-methylethyl)phenyl]-;1,2-Ethanediamine, <em>N</em>,<em>N</em>′-bis[2,6-bis(1-methylethyl)phenyl]-;<em>N</em><sup>1</sup>,<em>N</em><sup>2</sup>-Bis[2,6-bis(1-methylethyl)phenyl]-1,2-ethanediamine;<em>N</em>,<em>N</em>′-Bis(2,6-diisopropylphenyl)ethylenediamine;<em>N</em>-[2-[(2,6-Diisopropylphenyl)amino]ethyl]-2,6-diisopropylaniline;<em>N</em>,<em>N</em>′-Bis(2,6-diisopropylphenyl)ethane-1,2-diamine",
    "duplicated_cas_no": "",
    "SMILES": "N(CCNC1=C(C(C)C)C=CC=C1C(C)C)C2=C(C(C)C)C=CC=C2C(C)C",
    "meta_data": {
        "InChI": "InChI=1S/C26H40N2/c1-17(2)21-11-9-12-22(18(3)4)25(21)27-15-16-28-26-23(19(5)6)13-10-14-24(26)20(7)8/h9-14,17-20,27-28H,15-16H2,1-8H3",
        "InChIKey": null,
        "Canonical SMILES": "C=1C=C(C(NCCNC=2C(=CC=CC2C(C)C)C(C)C)=C(C1)C(C)C)C(C)C",
        "Molecular Formula": "C<sub>26</sub>H<sub>40</sub>N<sub>2</sub>",
        "Molecular Mass": "380.61",
        "Melting Point": "101.5 °C"
    }
}