{
    "cas_no": "15785-54-3",
    "key_name": "4-Hydroxy-3-methoxy-5-nitrobenzoic acid",
    "cn_name": null,
    "alternate_name": "Benzoic acid, 4-hydroxy-3-methoxy-5-nitro-;Vanillic acid, 5-nitro-;4-Hydroxy-3-methoxy-5-nitrobenzoic acid;5-Nitrovanillic acid;3-Nitro-4-hydroxy-5-methoxybenzoic acid",
    "duplicated_cas_no": "",
    "SMILES": "N(=O)(=O)C1=C(O)C(OC)=CC(C(O)=O)=C1",
    "meta_data": {
        "InChI": "InChI=1S/C8H7NO6/c1-15-6-3-4(8(11)12)2-5(7(6)10)9(13)14/h2-3,10H,1H3,(H,11,12)",
        "InChIKey": null,
        "Canonical SMILES": "O=C(O)C1=CC(OC)=C(O)C(=C1)N(=O)=O",
        "Molecular Formula": "C<sub>8</sub>H<sub>7</sub>NO<sub>6</sub>",
        "Molecular Mass": "213.14",
        "Melting Point": "216 °C"
    }
}