{
    "cas_no": "97-00-7",
    "key_name": "1-Chloro-2,4-dinitrobenzene",
    "cn_name": "2,4-二硝基氯苯;",
    "alternate_name": "Benzene, 1-chloro-2,4-dinitro-;1-Chloro-2,4-dinitrobenzene;1,3-Dinitro-4-chlorobenzene;2,4-Dinitrochlorobenzene;2,4-Dinitro-1-chlorobenzene;DNCB;4-Chloro-1,3-dinitrobenzene;Dinitrochlorobenzene;2,4-Dinitrophenyl chloride;CDNB;6-Chloro-1,3-dinitrobenzene;1-Chloro-2,4-nitrobenzene;2-Chloro-1,5-dinitrobenzene;NSC 6292;MeSH ID: D004137",
    "duplicated_cas_no": "",
    "SMILES": "N(=O)(=O)C1=CC(N(=O)=O)=CC=C1Cl",
    "meta_data": {
        "InChI": "InChI=1S/C6H3ClN2O4/c7-5-2-1-4(8(10)11)3-6(5)9(12)13/h1-3H",
        "InChIKey": null,
        "Canonical SMILES": "O=N(=O)C1=CC=C(Cl)C(=C1)N(=O)=O",
        "Molecular Formula": "C<sub>6</sub>H<sub>3</sub>ClN<sub>2</sub>O<sub>4</sub>",
        "Molecular Mass": "202.55",
        "Boiling Point": "315 °C",
        "Melting Point": "54 °C",
        "Density": "1.7 g/cm³"
    }
}