{
    "cas_no": "62666-20-0",
    "key_name": "Progabide",
    "cn_name": null,
    "alternate_name": "Butanamide, 4-[[(4-chlorophenyl)(5-fluoro-2-hydroxyphenyl)methylene]amino]-;4-[[(4-Chlorophenyl)(5-fluoro-2-hydroxyphenyl)methylene]amino]butanamide;SL 76-002;Progabide;Gabrene;Gabren;SL 76002;Halogabide",
    "duplicated_cas_no": "",
    "SMILES": "C(=NCCCC(N)=O)(C1=C(O)C=CC(F)=C1)C2=CC=C(Cl)C=C2",
    "meta_data": {
        "InChI": "InChI=1S/C17H16ClFN2O2/c18-12-5-3-11(4-6-12)17(21-9-1-2-16(20)23)14-10-13(19)7-8-15(14)22/h3-8,10,22H,1-2,9H2,(H2,20,23)",
        "InChIKey": null,
        "Canonical SMILES": "O=C(N)CCCN=C(C1=CC=C(Cl)C=C1)C2=CC(F)=CC=C2O",
        "Molecular Formula": "C<sub>17</sub>H<sub>16</sub>ClFN<sub>2</sub>O<sub>2</sub>",
        "Molecular Mass": "334.77",
        "Melting Point": "133-135 °C"
    }
}