{
    "cas_no": "3426-71-9",
    "key_name": "Benzyl <em>N</em>-hydroxycarbamate",
    "cn_name": "N-(苄氧羰基)羟基胺;羟氨羧酸苄酯;",
    "alternate_name": "Carbamic acid, <em>N</em>-hydroxy-, phenylmethyl ester;Carbamic acid, hydroxy-, benzyl ester;Carbamic acid, hydroxy-, phenylmethyl ester;Benzyl <em>N</em>-hydroxycarbamate;<em>N</em>-Benzyloxycarbonylhydroxylamine;<em>N</em>-Hydroxycarbamic acid benzyl ester;NSC 528506;Benzyl hydroxycarbamate;<em>N</em>-Cbz-hydroxylamine",
    "duplicated_cas_no": "",
    "SMILES": "C(OC(NO)=O)C1=CC=CC=C1",
    "meta_data": {
        "InChI": "InChI=1S/C8H9NO3/c10-8(9-11)12-6-7-4-2-1-3-5-7/h1-5,11H,6H2,(H,9,10)",
        "InChIKey": null,
        "Canonical SMILES": "O=C(OCC=1C=CC=CC1)NO",
        "Molecular Formula": "C<sub>8</sub>H<sub>9</sub>NO<sub>3</sub>",
        "Molecular Mass": "167.16",
        "Melting Point": "68-69 °C"
    }
}