{
    "cas_no": "622-93-5",
    "key_name": "3-(Diethylamino)-1-propanol",
    "cn_name": null,
    "alternate_name": "1-Propanol, 3-(diethylamino)-;3-(Diethylamino)-1-propanol;<em>N</em>,<em>N</em>-Diethyl-3-amino-1-propanol;<em>N</em>,<em>N</em>-Diethyl-3-hydroxypropylamine;3-(Diethylamino)propyl alcohol;Diethylpropanolamine;3-(<em>N</em>,<em>N</em>-Diethylamino)-1-propanol;NSC 8697;<em>N</em>-(3-Hydroxypropyl)diethylamine",
    "duplicated_cas_no": "",
    "SMILES": "N(CCCO)(CC)CC",
    "meta_data": {
        "InChI": "InChI=1S/C7H17NO/c1-3-8(4-2)6-5-7-9/h9H,3-7H2,1-2H3",
        "InChIKey": null,
        "Canonical SMILES": "OCCCN(CC)CC",
        "Molecular Formula": "C<sub>7</sub>H<sub>17</sub>NO",
        "Molecular Mass": "131.22",
        "Boiling Point": "189.5 °C",
        "Melting Point": "73-74 °C",
        "Density": "0.8600 g/cm³ @ Temp: 20 °C"
    }
}