{
    "cas_no": "52899-09-9",
    "key_name": "<span class=\"text-smallcaps\">L</smallcap>-Prolyl-<smallcap>L</span>-valine",
    "cn_name": null,
    "alternate_name": "<span class=\"text-smallcaps\">L</smallcap>-Valine, <smallcap>L</span>-prolyl-;<span class=\"text-smallcaps\">L</smallcap>-Valine, <em>N</em>-<smallcap>L</span>-prolyl-;Valine, <em>N</em>-<span class=\"text-smallcaps\">L</span>-prolyl-;<span class=\"text-smallcaps\">L</smallcap>-Prolyl-<smallcap>L</span>-valine;Prolyl-valine;NSC 319054;107: PN: WO2006024694 SEQID: 107 claimed protein;147: PN: EP2161028 PAGE: 10 claimed protein;34: PN: WO2014102104 SEQID: 133 claimed protein;34: PN: WO2014102101 SEQID: 334 claimed protein;74: PN: WO2014102103 TABLE: 1 claimed protein;53: PN: WO2014102100 TABLE: 1 claimed protein;805: PN: WO2022215055 SEQID: 805 claimed protein",
    "duplicated_cas_no": "",
    "SMILES": "[C@H](NC(=O)[C@@H]1CCCN1)([C@@H](C)C)C(O)=O",
    "meta_data": {
        "InChI": "InChI=1S/C10H18N2O3/c1-6(2)8(10(14)15)12-9(13)7-4-3-5-11-7/h6-8,11H,3-5H2,1-2H3,(H,12,13)(H,14,15)/t7-,8-/m0/s1",
        "InChIKey": null,
        "Canonical SMILES": "O=C(O)C(NC(=O)C1NCCC1)C(C)C",
        "Molecular Formula": "C<sub>10</sub>H<sub>18</sub>N<sub>2</sub>O<sub>3</sub>",
        "Molecular Mass": "214.26",
        "Melting Point": "221 °C"
    }
}