{
    "cas_no": "18542-42-2",
    "key_name": "2-(Methylthio)ethylamine",
    "cn_name": "2-(甲硫基)乙胺;2-(甲基硫代)乙胺;2-(甲硫基)乙胺;2-(甲硫基)乙胺,95%;2-(甲硫基)乙胺(订作2-3周);2-(硫代;",
    "alternate_name": "Ethanamine, 2-(methylthio)-;Ethylamine, 2-(methylthio)-;<em>S</em>-Methylcysteamine;2-(Methylthio)ethylamine;2-Aminoethyl methyl sulfide;1-Aza-4-thiapentane;1-Amino-2-(methylthio)ethane;2-(Methylthio)ethanamine;2-Methylmercaptoethylamine;2-(Methylsulfanyl)ethylamine;2-(Methylsulfanyl)ethanamine;2-(Methylsulfanyl)ethan-1-amine;2-(Methylthio)-1-ethanamine",
    "duplicated_cas_no": "",
    "SMILES": "C(CN)SC",
    "meta_data": {
        "InChI": "InChI=1S/C3H9NS/c1-5-3-2-4/h2-4H2,1H3",
        "InChIKey": null,
        "Canonical SMILES": "S(C)CCN",
        "Molecular Formula": "C<sub>3</sub>H<sub>9</sub>NS",
        "Molecular Mass": "91.18",
        "Boiling Point": "146-148 °C"
    }
}