{
    "cas_no": "851386-32-8",
    "key_name": "4-Chloro-5,6-difluoro-3-pyridinecarboxylic acid",
    "cn_name": "4-氯-5,6-二氟吡啶-3-甲酸;",
    "alternate_name": "3-Pyridinecarboxylic acid, 4-chloro-5,6-difluoro-;4-Chloro-5,6-difluoro-3-pyridinecarboxylic acid;4-Chloro-5,6-difluoronicotinic acid;4-Chloro-5,6-difluoropyridine-3-carboxylic acid",
    "duplicated_cas_no": "",
    "SMILES": "C(O)(=O)C=1C(Cl)=C(F)C(F)=NC1",
    "meta_data": {
        "InChI": "InChI=1S/C6H2ClF2NO2/c7-3-2(6(11)12)1-10-5(9)4(3)8/h1H,(H,11,12)",
        "InChIKey": null,
        "Canonical SMILES": "O=C(O)C1=CN=C(F)C(F)=C1Cl",
        "Molecular Formula": "C<sub>6</sub>H<sub>2</sub>ClF<sub>2</sub>NO<sub>2</sub>",
        "Molecular Mass": "193.54",
        "Melting Point": "117-118 °C (decomp)"
    }
}