{
    "cas_no": "6329-74-4",
    "key_name": "5-Bromo-2-hydroxybenzamide",
    "cn_name": "5-溴水杨酰胺;",
    "alternate_name": "Benzamide, 5-bromo-2-hydroxy-;Salicylamide, 5-bromo-;5-Bromo-2-hydroxybenzamide;5-Bromosalicylamide;NSC 14278;2-Hydroxy-5-bromobenzamide",
    "duplicated_cas_no": "",
    "SMILES": "C(N)(=O)C1=C(O)C=CC(Br)=C1",
    "meta_data": {
        "InChI": "InChI=1S/C7H6BrNO2/c8-4-1-2-6(10)5(3-4)7(9)11/h1-3,10H,(H2,9,11)",
        "InChIKey": null,
        "Canonical SMILES": "O=C(N)C1=CC(Br)=CC=C1O",
        "Molecular Formula": "C<sub>7</sub>H<sub>6</sub>BrNO<sub>2</sub>",
        "Molecular Mass": "216.03",
        "Melting Point": "233-238 °C"
    }
}