{
    "cas_no": "558-42-9",
    "key_name": "1-Chloro-2-methyl-2-propanol",
    "cn_name": "1-氯-2-甲基-2-丙醇;",
    "alternate_name": "2-Propanol, 1-chloro-2-methyl-;1-Chloro-2-methyl-2-propanol;Isobutylene chlorohydrin;Chloro-<em>tert</em>-butyl alcohol;1,1-Dimethyl-2-chloroethyl alcohol;2-Chloro-1,1-dimethylethanol;NSC 46574",
    "duplicated_cas_no": "",
    "SMILES": "C(CCl)(C)(C)O",
    "meta_data": {
        "InChI": "InChI=1S/C4H9ClO/c1-4(2,6)3-5/h6H,3H2,1-2H3",
        "InChIKey": null,
        "Canonical SMILES": "ClCC(O)(C)C",
        "Molecular Formula": "C<sub>4</sub>H<sub>9</sub>ClO",
        "Molecular Mass": "108.57",
        "Boiling Point": "128.5 °C",
        "Melting Point": "-20 °C",
        "Density": "1.087 g/cm³ @ Temp: 0 °C"
    }
}