{
    "cas_no": "452-75-5",
    "key_name": "4-Chloro-2-fluoro-1-methylbenzene",
    "cn_name": "4-氯-2-氟甲苯;2-氟-4-氯甲苯;",
    "alternate_name": "Benzene, 4-chloro-2-fluoro-1-methyl-;Toluene, 4-chloro-2-fluoro-;4-Chloro-2-fluoro-1-methylbenzene;2-Fluoro-4-chlorotoluene;4-Chloro-2-fluorotoluene",
    "duplicated_cas_no": "",
    "SMILES": "FC1=C(C)C=CC(Cl)=C1",
    "meta_data": {
        "InChI": "InChI=1S/C7H6ClF/c1-5-2-3-6(8)4-7(5)9/h2-4H,1H3",
        "InChIKey": null,
        "Canonical SMILES": "FC1=CC(Cl)=CC=C1C",
        "Molecular Formula": "C<sub>7</sub>H<sub>6</sub>ClF",
        "Molecular Mass": "144.57",
        "Boiling Point": "158 °C @ Press: 743 Torr"
    }
}