{
    "cas_no": "16726-41-3",
    "key_name": "Hydrazine, (1-methylethyl)-, hydrochloride (1:1)",
    "cn_name": "异丙基肼盐酸盐;",
    "alternate_name": "Hydrazine, (1-methylethyl)-, hydrochloride (1:1);Hydrazine, isopropyl-, monohydrochloride;Hydrazine, (1-methylethyl)-, monohydrochloride;Hydrazine, isopropyl-, hydrochloride;Isopropylhydrazine hydrochloride;Propan-2-ylhydrazine hydrochloride;<em>N</em>-Isopropylhydrazine hydrochloride",
    "duplicated_cas_no": "",
    "SMILES": "C(NN)(C)C.Cl",
    "meta_data": {
        "InChI": "InChI=1S/C3H10N2.ClH/c1-3(2)5-4;/h3,5H,4H2,1-2H3;1H",
        "InChIKey": null,
        "Canonical SMILES": "Cl.NNC(C)C",
        "Molecular Formula": "C<sub>3</sub>H<sub>10</sub>N<sub>2</sub>.ClH",
        "Molecular Mass": "",
        "Melting Point": "114 °C"
    }
}