{
    "cas_no": "6894-43-5",
    "key_name": "Kahweol",
    "cn_name": "中文名称暂缺;",
    "alternate_name": "5a,8-Methano-5a<em>H</em>-cyclohepta[5,6]naphtho[2,1-<em>b</em>]furan-7-methanol, 3b,4,5,6,7,8,9,10,10a,10b-decahydro-7-hydroxy-10b-methyl-, (3b<em>S</em>,5a<em>S</em>,7<em>R</em>,8<em>R</em>,10a<em>R</em>,10b<em>S</em>)-;5a,8-Methano-5a<em>H</em>-cyclohepta[5,6]naphtho[2,1-<em>b</em>]furan-7-methanol, 3bα,4,5,6,7,8α,9,10,10a,10b-decahydro-7-hydroxy-10bβ-methyl-;5a,8-Methano-5a<em>H</em>-cyclohepta[5,6]naphtho[2,1-<em>b</em>]furan-7-methanol, 3b,4,5,6,7,8,9,10,10a,10b-decahydro-7-hydroxy-10b-methyl-, [3b<em>S</em>-(3bα,5aβ,7β,8β,10aα,10bβ)]-;Kahweol;(3b<em>S</em>,5a<em>S</em>,7<em>R</em>,8<em>R</em>,10a<em>R</em>,10b<em>S</em>)-3b,4,5,6,7,8,9,10,10a,10b-Decahydro-7-hydroxy-10b-methyl-5a,8-methano-5a<em>H</em>-cyclohepta[5,6]naphtho[2,1-<em>b</em>]furan-7-methanol",
    "duplicated_cas_no": "",
    "SMILES": "C[C@]12[C@]3([C@]4(C[C@]([C@](CO)(O)C4)(CC3)[H])CC[C@@]1(C5=C(C=C2)OC=C5)[H])[H]",
    "meta_data": {
        "InChI": "InChI=1S/C20H26O3/c1-18-7-5-16-14(6-9-23-16)15(18)4-8-19-10-13(2-3-17(18)19)20(22,11-19)12-21/h5-7,9,13,15,17,21-22H,2-4,8,10-12H2,1H3/t13-,15-,17+,18-,19+,20+/m1/s1",
        "InChIKey": null,
        "Canonical SMILES": "OCC1(O)CC23CCC4C=5C=COC5C=CC4(C)C3CCC1C2",
        "Molecular Formula": "C<sub>20</sub>H<sub>26</sub>O<sub>3</sub>",
        "Molecular Mass": "314.42",
        "Melting Point": "88-90 °C"
    }
}