{
    "cas_no": "141846-57-3",
    "key_name": "α-<span class=\"text-smallcaps\">L</span>-<em>erythro</em>-Pentofuranosyl chloride, 2-deoxy-, 3,5-bis(4-methylbenzoate)",
    "cn_name": null,
    "alternate_name": "α-<span class=\"text-smallcaps\">L</span>-<em>erythro</em>-Pentofuranosyl chloride, 2-deoxy-, 3,5-bis(4-methylbenzoate);α-<span class=\"text-smallcaps\">L</span>-<em>erythro</em>-Pentofuranosyl chloride, 2-deoxy-, bis(4-methylbenzoate);3,5-Di-<em>O</em>-(4-methylbenzoyl)-2-deoxy-α-<span class=\"text-smallcaps\">L</span>-<em>erythro</em>-pentofuranosyl chloride",
    "duplicated_cas_no": "",
    "SMILES": "C(OC(=O)C1=CC=C(C)C=C1)[C@H]2[C@H](OC(=O)C3=CC=C(C)C=C3)C[C@H](Cl)O2",
    "meta_data": {
        "InChI": "InChI=1S/C21H21ClO5/c1-13-3-7-15(8-4-13)20(23)25-12-18-17(11-19(22)26-18)27-21(24)16-9-5-14(2)6-10-16/h3-10,17-19H,11-12H2,1-2H3/t17-,18+,19-/m1/s1",
        "InChIKey": null,
        "Canonical SMILES": "O=C(OCC1OC(Cl)CC1OC(=O)C2=CC=C(C=C2)C)C3=CC=C(C=C3)C",
        "Molecular Formula": "C<sub>21</sub>H<sub>21</sub>ClO<sub>5</sub>",
        "Molecular Mass": "388.84",
        "Melting Point": "118-121 °C"
    }
}