{
    "cas_no": "544-31-0",
    "key_name": "Palmitoylethanolamide",
    "cn_name": "十六酰胺乙醇;",
    "alternate_name": "Hexadecanamide, <em>N</em>-(2-hydroxyethyl)-;<em>N</em>-(2-Hydroxyethyl)hexadecanamide;<em>N</em>-(2-Hydroxyethyl)palmitamide;Palmidrol;Palmitoylethanolamide;Palmitic acid monoethanolamide;(Hydroxyethyl)palmitamide;Impulsin;Palmitic monoethanolamide;Loramine P 256;2-Palmitamidoethanol;<em>N</em>-Palmitoylethanolamine;2-(Palmitoylamino)ethanol;<em>N</em>-Hexadecanoylethanolamine;AM 3112;NSC 23320;Mackpeart DR 14V;PEA-um;Palmitic acid ethanolamide;FSD 201",
    "duplicated_cas_no": "1451152-25-2",
    "SMILES": "C(CCCCCCCCCCCCC)CC(NCCO)=O",
    "meta_data": {
        "InChI": "InChI=1S/C18H37NO2/c1-2-3-4-5-6-7-8-9-10-11-12-13-14-15-18(21)19-16-17-20/h20H,2-17H2,1H3,(H,19,21)",
        "InChIKey": null,
        "Canonical SMILES": "O=C(NCCO)CCCCCCCCCCCCCCC",
        "Molecular Formula": "C<sub>18</sub>H<sub>37</sub>NO<sub>2</sub>",
        "Molecular Mass": "299.49",
        "Melting Point": "98.5 °C"
    }
}