{
    "cas_no": "1984-23-2",
    "key_name": "1-Isocyano-4-nitrobenzene",
    "cn_name": null,
    "alternate_name": "Benzene, 1-isocyano-4-nitro-;Phenyl isocyanide, <em>p</em>-nitro-;1-Isocyano-4-nitrobenzene;<em>p</em>-Nitrophenyl isocyanide;4-Nitrophenyl isocyanide;<em>p</em>-Nitrophenyl isonitrile",
    "duplicated_cas_no": "128202-84-6",
    "SMILES": "N(=O)(=O)C1=CC=C([N+]#[C-])C=C1",
    "meta_data": {
        "InChI": "InChI=1S/C7H4N2O2/c1-8-6-2-4-7(5-3-6)9(10)11/h2-5H",
        "InChIKey": null,
        "Canonical SMILES": "[C-]#[N+]C1=CC=C(C=C1)N(=O)=O",
        "Molecular Formula": "C<sub>7</sub>H<sub>4</sub>N<sub>2</sub>O<sub>2</sub>",
        "Molecular Mass": "",
        "Melting Point": "95-97 °C"
    }
}