{
    "cas_no": "71125-38-7",
    "key_name": "Meloxicam",
    "cn_name": "美洛昔康;4-羟-2-甲基-N-(5-甲基-2-噻唑)-2H-1,2-苯并噻唑-3-酰胺-1,1-二氧化物;",
    "alternate_name": "2<em>H</em>-1,2-Benzothiazine-3-carboxamide, 4-hydroxy-2-methyl-<em>N</em>-(5-methyl-2-thiazolyl)-, 1,1-dioxide;Meloxicam;UH-AC 62XX;Mobec;Metacam;Mobic;Mobicox;Movalis;Melonex;Coxflam;Revmoksikam;Movatec;Maxicam;Melfax;Melfax (NSAID);Coxicam;Novem 5;Rheumocam;Recocam;RevitaCAM;Novaquin;Novem;Meloxivet;Meloxoral;Emdocam;Contacera;Meloxidyl;Acticam;Melosus;Loxicom;Inflacam;Flexicam;Meloxidolor;Melovem;Petcam;MoSEIC Meloxicam",
    "duplicated_cas_no": "133687-22-6",
    "SMILES": "OC=1C=2C(S(=O)(=O)N(C)C1C(NC3=NC=C(C)S3)=O)=CC=CC2",
    "meta_data": {
        "InChI": "InChI=1S/C14H13N3O4S2/c1-8-7-15-14(22-8)16-13(19)11-12(18)9-5-3-4-6-10(9)23(20,21)17(11)2/h3-7,18H,1-2H3,(H,15,16,19)",
        "InChIKey": null,
        "Canonical SMILES": "O=C(NC1=NC=C(S1)C)C2=C(O)C=3C=CC=CC3S(=O)(=O)N2C",
        "Molecular Formula": "C<sub>14</sub>H<sub>13</sub>N<sub>3</sub>O<sub>4</sub>S<sub>2</sub>",
        "Molecular Mass": "351.40",
        "Melting Point": "254 °C (decomp)"
    }
}