{
    "cas_no": "1643-15-8",
    "key_name": "2-(3-Methylphenoxy)acetic acid",
    "cn_name": "3-甲苯氧基乙酸;",
    "alternate_name": "Acetic acid, 2-(3-methylphenoxy)-;Acetic acid, (<em>m</em>-tolyloxy)-;Acetic acid, (3-methylphenoxy)-;2-(3-Methylphenoxy)acetic acid;<em>m</em>-Methylphenoxyacetic acid;(3-Methylphenoxy)acetic acid;(<em>m</em>-Tolyloxy)acetic acid;NSC 35913;2-<em>m</em>-Tolyloxyacetic acid",
    "duplicated_cas_no": "",
    "SMILES": "O(CC(O)=O)C1=CC(C)=CC=C1",
    "meta_data": {
        "InChI": "InChI=1S/C9H10O3/c1-7-3-2-4-8(5-7)12-6-9(10)11/h2-5H,6H2,1H3,(H,10,11)",
        "InChIKey": null,
        "Canonical SMILES": "O=C(O)COC1=CC=CC(=C1)C",
        "Molecular Formula": "C<sub>9</sub>H<sub>10</sub>O<sub>3</sub>",
        "Molecular Mass": "166.17",
        "Melting Point": "102 °C"
    }
}