{
    "cas_no": "541-42-4",
    "key_name": "Isopropyl nitrite",
    "cn_name": "亚硝酸异丙酯;亚硝酸异丙酯;",
    "alternate_name": "Nitrous acid, 1-methylethyl ester;Nitrous acid, isopropyl ester;Isopropyl nitrite",
    "duplicated_cas_no": "",
    "SMILES": "O(C(C)C)N=O",
    "meta_data": {
        "InChI": "InChI=1S/C3H7NO2/c1-3(2)6-4-5/h3H,1-2H3",
        "InChIKey": null,
        "Canonical SMILES": "O=NOC(C)C",
        "Molecular Formula": "C<sub>3</sub>H<sub>7</sub>NO<sub>2</sub>",
        "Molecular Mass": "89.09",
        "Boiling Point": "40 °C",
        "Density": "0.8684 g/cm³ @ Temp: 15 °C"
    }
}