{
    "cas_no": "22245-96-1",
    "key_name": "7-Nitro-3,4-dihydro-2<em>H</em>-isoquinolin-1-one",
    "cn_name": null,
    "alternate_name": "1(2<em>H</em>)-Isoquinolinone, 3,4-dihydro-7-nitro-;Isocarbostyril, 3,4-dihydro-7-nitro-;3,4-Dihydro-7-nitro-1(2<em>H</em>)-isoquinolinone;7-Nitro-3,4-dihydroisocarbostyril;7-Nitro-3,4-dihydro-2<em>H</em>-isoquinolin-1-one;7-Nitro-2,3,4-trihydroisoquinolin-1-one;7-Nitro-3,4-dihydroisoquinolin-1(2<em>H</em>)-one",
    "duplicated_cas_no": "",
    "SMILES": "O=C1C=2C(=CC=C(N(=O)=O)C2)CCN1",
    "meta_data": {
        "InChI": "InChI=1S/C9H8N2O3/c12-9-8-5-7(11(13)14)2-1-6(8)3-4-10-9/h1-2,5H,3-4H2,(H,10,12)",
        "InChIKey": null,
        "Canonical SMILES": "O=C1NCCC2=CC=C(C=C12)N(=O)=O",
        "Molecular Formula": "C<sub>9</sub>H<sub>8</sub>N<sub>2</sub>O<sub>3</sub>",
        "Molecular Mass": "192.17",
        "Melting Point": "225-230 °C"
    }
}