{
    "cas_no": "30432-16-7",
    "key_name": "1,4-Dibromo-2,3-bis(bromomethyl)-2-butene",
    "cn_name": null,
    "alternate_name": "2-Butene, 1,4-dibromo-2,3-bis(bromomethyl)-;1,4-Dibromo-2,3-bis(bromomethyl)-2-butene;Tetrakis(bromomethyl)ethylene;Tetra(bromomethyl)ethene;1,4-Dibromo-2,3-bromomethyl-2-butene",
    "duplicated_cas_no": "",
    "SMILES": "C(=C(CBr)CBr)(CBr)CBr",
    "meta_data": {
        "InChI": "InChI=1S/C6H8Br4/c7-1-5(2-8)6(3-9)4-10/h1-4H2",
        "InChIKey": null,
        "Canonical SMILES": "BrCC(=C(CBr)CBr)CBr",
        "Molecular Formula": "C<sub>6</sub>H<sub>8</sub>Br<sub>4</sub>",
        "Molecular Mass": "399.74",
        "Melting Point": "158-159 °C"
    }
}