{
    "cas_no": "7779-50-2",
    "key_name": "Oxacycloheptadec-7-en-2-one",
    "cn_name": null,
    "alternate_name": "Oxacycloheptadec-7-en-2-one;1-Oxa-7-cycloheptadecen-2-one;16-Hydroxy-6-hexadecenoic acid ω-lactone;16-Hydroxy-6-hexadecenoic acid lactone;Ambrettol",
    "duplicated_cas_no": "",
    "SMILES": "O=C1CCCCC=CCCCCCCCCCO1",
    "meta_data": {
        "InChI": "InChI=1S/C16H28O2/c17-16-14-12-10-8-6-4-2-1-3-5-7-9-11-13-15-18-16/h4,6H,1-3,5,7-15H2",
        "InChIKey": null,
        "Canonical SMILES": "O=C1OCCCCCCCCCC=CCCCC1",
        "Molecular Formula": "C<sub>16</sub>H<sub>28</sub>O<sub>2</sub>",
        "Molecular Mass": "252.39",
        "Boiling Point": "185 °C @ Press: 16 Torr"
    }
}