{
    "cas_no": "610-30-0",
    "key_name": "2,4-Dinitrobenzoic acid",
    "cn_name": "2,4-二硝基苯甲酸;",
    "alternate_name": "Benzoic acid, 2,4-dinitro-;2,4-Dinitrobenzoic acid;1-Carboxy-2,4-dinitrobenzene;NSC 243713",
    "duplicated_cas_no": "",
    "SMILES": "N(=O)(=O)C1=C(C(O)=O)C=CC(N(=O)=O)=C1",
    "meta_data": {
        "InChI": "InChI=1S/C7H4N2O6/c10-7(11)5-2-1-4(8(12)13)3-6(5)9(14)15/h1-3H,(H,10,11)",
        "InChIKey": null,
        "Canonical SMILES": "O=C(O)C1=CC=C(C=C1N(=O)=O)N(=O)=O",
        "Molecular Formula": "C<sub>7</sub>H<sub>4</sub>N<sub>2</sub>O<sub>6</sub>",
        "Molecular Mass": "212.12",
        "Boiling Point": "184-185 °C @ Press: 0.5 Torr",
        "Melting Point": "182 °C"
    }
}