{
    "cas_no": "4727-29-1",
    "key_name": "Phthalanilic acid",
    "cn_name": "N-苯基邻苯二甲酸单酰胺;",
    "alternate_name": "Benzoic acid, 2-[(phenylamino)carbonyl]-;Phthalanilic acid;2-[(Phenylamino)carbonyl]benzoic acid;<em>N</em>-Phenylphthalamic acid;2-(Phenylcarbamoyl)benzoic acid;<em>o</em>-(Phenylcarbamoyl)benzoic acid;Phthalomonoanilide;Phthalic monoanilide;Nevirol;Phthalic acid monoanilide;<em>N</em>-Phenylphthalamidic acid;2-Carboxybenzanilide;Lemax;NSC 26414;2-(Anilinocarbonyl)benzoic acid",
    "duplicated_cas_no": "",
    "SMILES": "C(NC1=CC=CC=C1)(=O)C2=C(C(O)=O)C=CC=C2",
    "meta_data": {
        "InChI": "InChI=1S/C14H11NO3/c16-13(15-10-6-2-1-3-7-10)11-8-4-5-9-12(11)14(17)18/h1-9H,(H,15,16)(H,17,18)",
        "InChIKey": null,
        "Canonical SMILES": "O=C(O)C=1C=CC=CC1C(=O)NC=2C=CC=CC2",
        "Molecular Formula": "C<sub>14</sub>H<sub>11</sub>NO<sub>3</sub>",
        "Molecular Mass": "241.24",
        "Melting Point": "169 °C (decomp)"
    }
}