{
    "cas_no": "82294-70-0",
    "key_name": "4-Methyl-5-thiazolecarboxaldehyde",
    "cn_name": "4-甲基噻唑-5-甲醛;4-甲基-5-甲酰基噻唑;",
    "alternate_name": "5-Thiazolecarboxaldehyde, 4-methyl-;4-Methyl-5-thiazolecarboxaldehyde;4-Methyl-5-formyl-1,3-thiazole;4-Methyl-5-formylthiazole;4-Methylthiazole-5-carbaldehyde",
    "duplicated_cas_no": "",
    "SMILES": "C(=O)C1=C(C)N=CS1",
    "meta_data": {
        "InChI": "InChI=1S/C5H5NOS/c1-4-5(2-7)8-3-6-4/h2-3H,1H3",
        "InChIKey": null,
        "Canonical SMILES": "O=CC=1SC=NC1C",
        "Molecular Formula": "C<sub>5</sub>H<sub>5</sub>NOS",
        "Molecular Mass": "127.16",
        "Melting Point": "75 °C"
    }
}