{
    "cas_no": "1309-37-1",
    "key_name": "Iron oxide (Fe<sub>2</sub>O<sub>3</sub>)",
    "cn_name": null,
    "alternate_name": "Iron oxide (Fe<sub>2</sub>O<sub>3</sub>);Caput mortuum;Colloidal ferric oxide;Deanox;Ferrugo;Iron sesquioxide;Jeweler's rouge;Rouge;Rubigo;Ferric oxide;Iron(III) oxide;Crocus (iron oxide);α-Ferric oxide;Iron trioxide;Colliron;Diiron trioxide;γ-Ferric oxide;Bayer S 11;Felac;Pigdex 100;γ-Iron oxide (Fe<sub>2</sub>O<sub>3</sub>);α-Iron oxide;Cerven H;Krokus;Rouge (iron oxide);LN 1331;Iron(3+) oxide;RO 8097;YLO 2288B;C.I. Pigment Red 101;Turkey red;C.I. 77491;Iron minium;Iron Oxide Red Transparent 288VN;Mapico Red R 220-3;Iron Oxide Red 110M;Iron Oxide Red;Pigment Red 101;Prussian red;MAG 1730;Red iron oxide;Protohematite;R 5098 (oxide);R 5098;Venetian red;English iron oxide red;γ-MYD;Bayferrox 130M;Caput Mortuum Light;Red oxide;Tenyo 501;Bayferrox 110M;Mapico Red 347;Pferrox 2380;Mapico Red 297;Ariabel Sienna 300406;Mapico Red R 516L;Bayferrox 8220;Pferrox 2228HC;Sangol;NSK 500;MX 450;Bayferrox 140;MMY 40CT;Red Oxide 881-1045F;Iron oxide;TR 420S;R 1299 (pigment);Ferro Red VX 3100;R 1299;AQI 2199;Ferric sesquioxide;FX 6410;L 12 (pigment);L 12;Sicotrans Red L 2817;Surik 2;OLKZ;Microspin Red;Laminox F;Pferrox MO 2228;Sicotrans Red L 2915D;KFA-NH;PM 1A;MO 2230;Sicomet Brown 75;PM 1A (oxide);LKN-M;GX 1104;C 73 (catalyst);C 73;KM (pigment);KM;Crocus;Sicotrans Red S 402;Sicotrans Red L 2815;MAT 502;140M;160M;Colcothar;Pferrox 2228;Transoxide Red 30-1005;Sicotrans Red NB-L 2817;Cappoxyt Red 4437B;ST 801;English red;Red 110M;Sicoflush L Red 2817;Iron Oxide Red N 135;Toda Color 120R;Bayferrox 130;Cosmetic red oxide;Fine Ferric Red 35;Bengara N 45;Bayferrox 130BM;Iron sesquioxide (Fe<sub>2</sub>O<sub>3</sub>);Mapico Red 567;Nanotite 60;Bayferrox 110;100ED;NYR 60N;Bayferrox 140M;Bayferrox 111;Ferrobionat;Bayferrox 120N;Sicotrans Red L 2917;S 2400 Red 2;Bayferrox 105M;Bayferrox 180M;Toda Color 130ED;Bayferrox 120;Bengala;Toda Color 180ED;OX 8370;DEFIC-R 1007;Corona 10863;Sicotrans Red L 2816;Sanylene Brown 3RLM;40G;Bayferrox 120NM;Bengara EP 40;PMZ;PM 1;PM 1 (oxide);Luconyl Red 3396;Levanox Red 130Z01;E 333;CP 21;Disperse HG 838;DPN 250BX;E 1352;Lumirem;Abdoscan;FRO 3;Tarox R 516L;Nanotite 30;TF 100;TF 100 (oxide);Bengara CH 2-223;RB 4097;Transoxide Red;Bengara CM 25P;Bayferrox 720N;Auvicorb BL;Bayferrox 120M;DPN 250BW;Bayferrox 130B;Sicotrans Red L 2915;130ED;120ED;Toda Color 120ED;1030AC1005;B 4792;C 888-1045F;Dark Brown B 4792;RB 2500;TOR;TOR (pigment);RO 4097;R 4098D;RY 2096;Taishya;Sicovit Rot 30;Sicotrans L 2816;DPN 250;DPN 245;DPN 270BX;DPN 550BX;E 270;E 271 (oxide);E 300 (oxide);E 300;E 271;140ED;Bayferrox BF 110;Tarox R 110-7;Bengarashichiho;Bayferrox Red 130M;Iron Oxide Red 130M;Sicotrans Red L 2715;Transoxide Red AA 2005;Bengara 217;Fe 227100;Bayferrox Red 140M;Bayferrox Red 160M;Bayferrox 160M;FE 29;FT 26;FT 26 (oxide);YP 100N;Bayferrox 910;Toda Color 100ED;DBN 455Bx;R 516L;Silicovit Rot 30;Kroma RO 8097;Bayferrox Red 180M;Tan 8848;XMO 401;OX 8400P;Kroma RO 3097;RO 3097;DNS 235;Cappoxyt Red 4435B;Ryuka 100;APC 944;Kroma Red;Iron oxide (FeO<sub>1.5</sub>);KA (pigment);MR 420;Cerac I 1074;KA;Unisperse Red Oxide R-S;IS 445;LOR 120R;KH-DC;H 130;H 130 (oxide);Bayferrox Red 105M;Bayferrox 225;Heucorox UFL;Mapico Iron Oxide R 516L;DBN 650RX;Nanogard iron oxide Fe45;QX 440;Toda Color 335R;Bengara N 58;Mars red;DB 65;Ferroxide 212;Toda Color 190ED;Nubifer EF;JC-FH 04;Bayferrox 180;R 4098;C 9 (oxide);C 9;CQX 440KC;Fepren TP 303;Fepren TD 202;Fepren TD 202F;Fepren TP 200;Iron Red TP 303;TP 303;RP 500M;Synox HR 1208;FRO 20;DBNB;Cerac I 2012;FA 28-41;Fepren TP 120;TP 120;PR 101;Bayoxide E-III;Auvico γ-MRD;Colortrend 888-1045F;Tarox LL 100;Bayferrox Red 110;Toda Color 140ED;C 33W075;Xfast Red 2817;Duploxide 226P;Unipure LC 380;Bayferrox Red 130;IS 473;Nanos 3000;R 2899;Sicoflush P Red 2817;Polytrend 850-1840;Toda Color KN-O;Dittany R 77491;B 30S;Timbasol PW 896;Bayer 4125;SunPuro Red C 33-8001;Kobo Red WSJ 22ERAMP;CSB 191NV2;Tarox Red R 516L;Bayferrox Red 110M;C 7051;Syn-Ox HTR 870;Xfast Red 3390;Alfa Aesar 12375;R 516PS;R 481;R 497M;Tarox TRR 100;TRR 100;FL 3013;EGM 1111;KDT 5094;FRO-6T2;Sicotrans Red L 2818;Colortherm Red 520;Ferroxide Red 224M;MS 80 (oxide);MS 80;Tarox R 516P;Red R 516P;R 516P;Unipure Red LC 361EM;CWD 8801;H 860;Tarox R-MR;B 130CN;Toda Color 130R;CM 3FA55EYH;CM 3F30TRR;FAF 40TRR;EMF-Brown HR;Bengara R 516;CM 1000;PC 13;R 3098D;SunPURO Red;Unipure Red LC 381;Toda Color KN-V;Red R 516PS;H 101;H 101 (pigment);Colortherm Red 130M;RedCap 1;NanoArc Magnetic Iron Oxide;NanoArc Iron Oxide;R 2199D;KP 105;TR 708-5W;SR 85-162;AM Brown 8800;Iron oxide (Fe<sub>2</sub>O<sub>3</sub>) nanoparticles;Unipure Red LC 381EM;E 172 Red;Trans Oxide Red AA 2005K;Bayferrox Red 4140;Bayferrox Red 4110;SIOF Red 1020;Iron Red 6597;Iron Red 4597;Iron Red 5597;Iron Red 2597;Bengara 216P;SP 708;Pure Red R 8098;Red Iron Oxide R 1599D;R 1599D;Iron Oxide Red 130A;Unipure Red LC 381AS-EM;Cappoxyt Red L 2715D;Transparent Iron Oxide Red Ac 1005;R 9998;Toda Color 160ED;H 001-2;H 001-3;R 2817;Bayferrox Red 130BM;NO 404;CB 500;Tarox Red R 516P;TR 718;Ferroxide Red 212M;Ferroxide Red 216M;H 130M;Z 895;Sicotrans Red L 2715D;Colortherm Red 180M;Cosmetic Red T 3000;190D;190D (pigment);MR 120;Chromaflo 888-1045;Daipyroxide Red 8270;HR 1203;CG 160;γ-MRD;F 888-1045;DK 401;Iron red;110M;H 190;S 130;S 130 (pigment);MR 420 (iron oxide);Bengara red;Iron Red 3602;Xeracolor Red Oxide;Xeracolour Red Oxide;Xeracolor Brown;Xeracolour Brown;L 2817;878A;Ferric oxide, red;EMF Color Brown HY;S 190;S 190 (pigment);Colortherm Red 110M;110A;Bayferrox 130C;Bayferrox Red 130C;S 110;Gekko BB;Iron Oxides CI 77491;Tarox TRR 100P;S 120;Micronox R 02;Unipure Red LC 388;R 01;Anbang R 01;Rouge 110M;Creasperse Red CP 070;R 110-7;R-MR;E 8840;Timbasol oxide red;Ecosperse Oxide Red BA 100CN;3310DX;Bayferrox 4180;R 1299D;Silo 208;Penniman Red 808;Penniman Red NS 110;SE 632;S 110M;Earth Red;Micronox R 01;WS-R 101;Bengara 130R;Toda Color EP 13D;Bayferrox Red 4130;TM Red 8270;IPN 050H;S 130-3;4130FM;RR 4597;Sicotrans Red K 291;Bayer 4330;R 5597;RP 29FL;YF 010N30;BASF L 2910;F 130;F 130 (pigment);Cameleon Red;GXH 101;RD 130M;Bayferrox 4100;Bengara Ryuka 100;Transparent Red Oxide 1054;G 100CN;RR 559;BP 203;BP 208;JC-W;LC 388;Sicotrans Red K 2819;BTR 201W;RS 11;Bayferrox 4130;Cathaycoat Red RA 11A;Nubifer R 554;Unipure Red LC 383;Tecnapow Fe<sub>2</sub>O<sub>3</sub>;Biral Fe-C 10;UG-F 902D;WD-IOR 50;Tarox R 516HP;R 516HP;H 109;1200EZ;Yiping H 109;WS-R 102;Red 190;R 800HP;R 110P;SM 8805;Y 101;Bayferrox 6593;S 103;S 103 (iron oxide);Micronox BR 01;A 130 (iron oxide);A 130;Bayferrox Rot 130M;Toda Color NM 50;VK-E 01;R 180M;R 4101;US 3200;Red Oxide Medium PR 101;Colortrend 808;Colortrend 808 Red;Y 130 (oxide);Y 103;C 33-8001;S 101 (oxide);S 101;Ecosperse SE OG-CN;Luconyl RED 2817;KE Color BL;Geolor Red 106;Bayferrox 132M;Bengala 130ED;130S;SE OR-CN;B 130-01CN Red;B 130 (iron oxide);CP 3A;B 130;Hyrox F 110;SM 8811HT;R 4102 (oxide);R 4102;ZT-E 01;RT 1595D;S 130H;KNK 01A",
    "duplicated_cas_no": "1343-09-5;8011-97-0;8049-50-1;12000-93-0;12002-17-4;12227-87-1;60880-86-6;65455-44-9;65637-71-0;88528-26-1;90452-21-4;110736-41-9;118277-31-9;129131-59-5;131874-41-4;135507-53-8;147229-90-1;147229-91-2;160186-10-7;177715-24-1;185464-44-2;188357-78-0;220787-06-4;253310-52-0;448923-71-5;741267-31-2;1115688-11-3;1146982-11-7;1210992-56-5;1382787-02-1;1397708-80-3;1430053-95-4;2001597-72-2;2361022-24-2;2564724-57-6;2808427-72-5;2923745-42-8;2925159-84-6;2959468-22-3",
    "SMILES": "",
    "meta_data": {
        "InChI": "",
        "InChIKey": null,
        "Canonical SMILES": "",
        "Molecular Formula": "Fe<sub>2</sub>O<sub>3</sub>",
        "Molecular Mass": "",
        "Melting Point": "565 °C",
        "Density": "5.24 g/cm³"
    }
}