{
    "cas_no": "491-69-0",
    "key_name": "Isosakuranin",
    "cn_name": null,
    "alternate_name": "4<em>H</em>-1-Benzopyran-4-one, 7-(β-<span class=\"text-smallcaps\">D</span>-glucopyranosyloxy)-2,3-dihydro-5-hydroxy-2-(4-methoxyphenyl)-, (2<em>S</em>)-;<em>p</em>-Isosakuranin;4<em>H</em>-1-Benzopyran-4-one, 7-(β-<span class=\"text-smallcaps\">D</span>-glucopyranosyloxy)-2,3-dihydro-5-hydroxy-2-(4-methoxyphenyl)-, (<em>S</em>)-;(2<em>S</em>)-7-(β-<span class=\"text-smallcaps\">D</span>-Glucopyranosyloxy)-2,3-dihydro-5-hydroxy-2-(4-methoxyphenyl)-4<em>H</em>-1-benzopyran-4-one;Isosakuranin;Poncirenin",
    "duplicated_cas_no": "114297-94-8;19342-12-2",
    "SMILES": "O=C1C=2C(O[C@@H](C1)C3=CC=C(OC)C=C3)=CC(O[C@@H]4O[C@H](CO)[C@@H](O)[C@H](O)[C@H]4O)=CC2O",
    "meta_data": {
        "InChI": "InChI=1S/C22H24O10/c1-29-11-4-2-10(3-5-11)15-8-14(25)18-13(24)6-12(7-16(18)31-15)30-22-21(28)20(27)19(26)17(9-23)32-22/h2-7,15,17,19-24,26-28H,8-9H2,1H3/t15-,17+,19+,20-,21+,22+/m0/s1",
        "InChIKey": null,
        "Canonical SMILES": "O=C1C2=C(O)C=C(OC3OC(CO)C(O)C(O)C3O)C=C2OC(C4=CC=C(OC)C=C4)C1",
        "Molecular Formula": "C<sub>22</sub>H<sub>24</sub>O<sub>10</sub>",
        "Molecular Mass": "448.42",
        "Melting Point": "190 °C"
    }
}