{
    "cas_no": "21617-12-9",
    "key_name": "4,8-Dichloroquinoline",
    "cn_name": null,
    "alternate_name": "Quinoline, 4,8-dichloro-;4,8-Dichloroquinoline",
    "duplicated_cas_no": "",
    "SMILES": "ClC=1C2=C(C(Cl)=CC=C2)N=CC1",
    "meta_data": {
        "InChI": "InChI=1S/C9H5Cl2N/c10-7-4-5-12-9-6(7)2-1-3-8(9)11/h1-5H",
        "InChIKey": null,
        "Canonical SMILES": "ClC1=CC=CC2=C(Cl)C=CN=C12",
        "Molecular Formula": "C<sub>9</sub>H<sub>5</sub>Cl<sub>2</sub>N",
        "Molecular Mass": "198.05",
        "Melting Point": "155-156 °C"
    }
}