{
    "cas_no": "504-03-0",
    "key_name": "2,6-Dimethylpiperidine",
    "cn_name": "2,6-二甲基哌啶;",
    "alternate_name": "Piperidine, 2,6-dimethyl-;2,6-Lupetidine;2,6-Dimethylpiperidine;Nanofin;Nanophyn;Nanophine;Naniopinum;Nanophin;Lupetidin;NSC 63890;NSC 7513",
    "duplicated_cas_no": "149300-91-4;884380-24-9",
    "SMILES": "CC1NC(C)CCC1",
    "meta_data": {
        "InChI": "InChI=1S/C7H15N/c1-6-4-3-5-7(2)8-6/h6-8H,3-5H2,1-2H3",
        "InChIKey": null,
        "Canonical SMILES": "N1C(C)CCCC1C",
        "Molecular Formula": "C<sub>7</sub>H<sub>15</sub>N",
        "Molecular Mass": "113.20",
        "Boiling Point": "127 °C",
        "Melting Point": "14 °C",
        "Density": "0.8158 g/cm³ @ Temp: 25 °C"
    }
}