{
    "cas_no": "1196-38-9",
    "key_name": "3,4-Dihydroisoquinolin-1(2<em>H</em>)-one",
    "cn_name": "3,4-二氢异喹啉-1(2H)-酮;",
    "alternate_name": "1(2<em>H</em>)-Isoquinolinone, 3,4-dihydro-;Isocarbostyril, 3,4-dihydro-;3,4-Dihydro-1(2<em>H</em>)-isoquinolinone;3,4-Dihydro-1-isoquinolinone;3,4-Dihydroisocarbostyril;3,4-Dihydroisoquinolin-1(2<em>H</em>)-one;3,4-Dihydroisoquinol-1(2<em>H</em>)-one;3,4-Dihydro-2<em>H</em>-isoquinolin-1-one;3,4-Dihydroisoquinolinone;1,2,3,4-Tetrahydroisoquinolin-1-one",
    "duplicated_cas_no": "",
    "SMILES": "O=C1C=2C(CCN1)=CC=CC2",
    "meta_data": {
        "InChI": "InChI=1S/C9H9NO/c11-9-8-4-2-1-3-7(8)5-6-10-9/h1-4H,5-6H2,(H,10,11)",
        "InChIKey": null,
        "Canonical SMILES": "O=C1NCCC=2C=CC=CC12",
        "Molecular Formula": "C<sub>9</sub>H<sub>9</sub>NO",
        "Molecular Mass": "147.17",
        "Boiling Point": "138-143 °C @ Press: 0.3 Torr",
        "Melting Point": "166 °C"
    }
}