{
    "cas_no": "51865-84-0",
    "key_name": "4-(Formylmethylamino)benzoic acid",
    "cn_name": "4-(N-甲酰基-N-甲基氨基)苯甲酸;",
    "alternate_name": "Benzoic acid, 4-(formylmethylamino)-;4-(Formylmethylamino)benzoic acid;<em>p</em>-(<em>N</em>-Methylformamido)benzoic acid;NSC 114013;4-(<em>N</em>-Formyl-<em>N</em>-methylamino)benzoic acid",
    "duplicated_cas_no": "",
    "SMILES": "N(C=O)(C)C1=CC=C(C(O)=O)C=C1",
    "meta_data": {
        "InChI": "InChI=1S/C9H9NO3/c1-10(6-11)8-4-2-7(3-5-8)9(12)13/h2-6H,1H3,(H,12,13)",
        "InChIKey": null,
        "Canonical SMILES": "O=CN(C1=CC=C(C=C1)C(=O)O)C",
        "Molecular Formula": "C<sub>9</sub>H<sub>9</sub>NO<sub>3</sub>",
        "Molecular Mass": "179.17",
        "Melting Point": "214-215 °C"
    }
}