{
    "cas_no": "23268-00-0",
    "key_name": "Hydrazine, hydrobromide (1:2)",
    "cn_name": "肼二氢溴酸盐;二氢溴肼;二氢溴联氨;二氢溴酸肼;二氢溴酸联氨;二氢溴化肼二水合物;",
    "alternate_name": "Hydrazine, hydrobromide (1:2);Hydrazine, dihydrobromide",
    "duplicated_cas_no": "",
    "SMILES": "NN.Br",
    "meta_data": {
        "InChI": "InChI=1S/2BrH.H4N2/c;;1-2/h2*1H;1-2H2",
        "InChIKey": null,
        "Canonical SMILES": "Br.NN",
        "Molecular Formula": "BrH.<sup>1</sup>/<sub>2</sub>H<sub>4</sub>N<sub>2</sub>",
        "Molecular Mass": "",
        "Melting Point": "199 °C (decomp)"
    }
}