{
    "cas_no": "598-79-8",
    "key_name": "2-Chloro-2-propenoic acid",
    "cn_name": "2-氯丙烯酸;alpha-氯代丙烯酸;",
    "alternate_name": "2-Propenoic acid, 2-chloro-;Acrylic acid, 2-chloro-;2-Chloro-2-propenoic acid;α-Chloroacrylic acid;2-Chloroacrylic acid;Chloroacrylic acid;2-Chloropropenoic acid;NSC 97174",
    "duplicated_cas_no": "",
    "SMILES": "C(C(O)=O)(=C)Cl",
    "meta_data": {
        "InChI": "InChI=1S/C3H3ClO2/c1-2(4)3(5)6/h1H2,(H,5,6)",
        "InChIKey": null,
        "Canonical SMILES": "O=C(O)C(Cl)=C",
        "Molecular Formula": "C<sub>3</sub>H<sub>3</sub>ClO<sub>2</sub>",
        "Molecular Mass": "106.51",
        "Boiling Point": "178-179 °C @ Press: 722 Torr",
        "Melting Point": "64-65 °C"
    }
}