{
    "cas_no": "57090-45-6",
    "key_name": "(2<em>R</em>)-3-Chloro-1,2-propanediol",
    "cn_name": "(R)-3-氯-1,2-丙二醇;R-氯甘油;",
    "alternate_name": "1,2-Propanediol, 3-chloro-, (2<em>R</em>)-;1,2-Propanediol, 3-chloro-, (<em>R</em>)-;(2<em>R</em>)-3-Chloro-1,2-propanediol;(<em>R</em>)-α-Chlorohydrin;(-)-3-Chloro-1,2-propanediol;(<em>R</em>)-3-Chloro-1,2-propanediol;(<em>R</em>)-(-)-3-Chloro-1,2-propanediol;(R)-Monochlorohydrin;(R)-3-Chloropropan-1,2-diol;1,2-Propanediol 3-chloro-, (2R)-",
    "duplicated_cas_no": "",
    "SMILES": "[C@H](CCl)(CO)O",
    "meta_data": {
        "InChI": "InChI=1S/C3H7ClO2/c4-1-3(6)2-5/h3,5-6H,1-2H2/t3-/m0/s1",
        "InChIKey": null,
        "Canonical SMILES": "ClCC(O)CO",
        "Molecular Formula": "C<sub>3</sub>H<sub>7</sub>ClO<sub>2</sub>",
        "Molecular Mass": "110.54",
        "Boiling Point": "100-105 °C @ Press: 3 Torr",
        "Melting Point": "1 °C"
    }
}