{
    "cas_no": "104196-68-1",
    "key_name": "(1<em>R</em>,4<em>S</em>,9<em>Z</em>,13<em>S</em>,13a<em>R</em>,20a<em>R</em>,21a<em>R</em>)-2,3,5,6,7,8,11,12,15,16,17,18,20a,21-Tetradecahydro-24-(9<em>H</em>-pyrido[3,4-<em>b</em>]indol-1-yl)-1,13-etheno-4,21a-methano-1<em>H</em>-azocino[1′,2′:1,5]pyrrolo[3,2-<em>e</em>]azacyclopentadecin-13(13a<em>H</em>)-ol",
    "cn_name": null,
    "alternate_name": "1,13-Etheno-4,21a-methano-1<em>H</em>-azocino[1′,2′:1,5]pyrrolo[3,2-<em>e</em>]azacyclopentadecin-13(13a<em>H</em>)-ol, 2,3,5,6,7,8,11,12,15,16,17,18,20a,21-tetradecahydro-24-(9<em>H</em>-pyrido[3,4-<em>b</em>]indol-1-yl)-, (1<em>R</em>,4<em>S</em>,9<em>Z</em>,13<em>S</em>,13a<em>R</em>,20a<em>R</em>,21a<em>R</em>)-;1,13-Etheno-4,21a-methano-1<em>H</em>-azocino[1′,2′:1,5]pyrrolo[3,2-<em>e</em>]azacyclopentadecin-13(13a<em>H</em>)-ol, 2,3,5,6,7,8,11,12,15,16,17,18,20a,21-tetradecahydro-24-(9<em>H</em>-pyrido[3,4-<em>b</em>]indol-1-yl)-, [1<em>R</em>-(1<em>R</em>*,9<em>Z</em>,13<em>S</em>*,13a<em>R</em>*,20a<em>R</em>*,21a<em>R</em>*)]-;9<em>H</em>-Pyrido[3,4-<em>b</em>]indole, 1,13-etheno-4,21a-methano-1<em>H</em>-azocino[1′,2′:1,5]pyrrolo[3,2-<em>e</em>]azacyclopentadecin-13(13a<em>H</em>)-ol deriv.;(1<em>R</em>,4<em>S</em>,9<em>Z</em>,13<em>S</em>,13a<em>R</em>,20a<em>R</em>,21a<em>R</em>)-2,3,5,6,7,8,11,12,15,16,17,18,20a,21-Tetradecahydro-24-(9<em>H</em>-pyrido[3,4-<em>b</em>]indol-1-yl)-1,13-etheno-4,21a-methano-1<em>H</em>-azocino[1′,2′:1,5]pyrrolo[3,2-<em>e</em>]azacyclopentadecin-13(13a<em>H</em>)-ol;Manzamine A;Keramamine A;(+)-Manzamine A",
    "duplicated_cas_no": "",
    "SMILES": "",
    "meta_data": {
        "InChI": "",
        "InChIKey": null,
        "Canonical SMILES": "",
        "Molecular Formula": "C<sub>36</sub>H<sub>44</sub>N<sub>4</sub>O",
        "Molecular Mass": "548.76",
        "Melting Point": "124-128 °C"
    }
}