{
    "cas_no": "50-33-9",
    "key_name": "Phenylbutazone",
    "cn_name": "保泰松;苯基丁氮酮;4-丁基-1,2-二苯基-3,5-吡唑烷二酮;",
    "alternate_name": "3,5-Pyrazolidinedione, 4-butyl-1,2-diphenyl-;4-Butyl-1,2-diphenyl-3,5-pyrazolidinedione;G 13,871;Artrizin;Butalidon;Butapirazol;Butazolidin;Butazolidine;Butidiona;4-Butyl-1,2-diphenyl-3,5-dioxopyrazolidine;4-Butyl-1,2-diphenylpyrazolidine-3,5-dione;3,5-Dioxo-1,2-diphenyl-4-<em>n</em>-butylpyrazolidine;Diphebuzol;Diphenylbutazone;1,2-Diphenyl-4-butyl-3,5-pyrazolidinedione;Fenibutazona;Phebuzine;Phenylbutazone;Pirarreumol B;Reudo;Reudox;Reumuzol;Shigrodin;Ticinil;Butadion;Butadione;VAC-10;Pyrabutol;1,2-Diphenyl-3,5-dioxo-4-<em>n</em>-butylpyrazolidine;1,2-Diphenyl-3,5-dioxo-4-butylpyrazolidine;Fenylbutazon;Alindor;Flexazone;Ia-But;Antadol;Buzon;R-3-ZON;Anuspiramin;Ecobutazone;Fenotone;Bunetzone;Fenilbutina;Zolaphen;Azolid;Betazed;Benzone;Butoz;Butacote;Tencodyne;Fenibutal;Robizone;Mephabutazon;Bizolin 200;Uzone;4-n-Butyl-1,2-diphenyl-3,5-pyrazolidinedione;Butartrina;Butazina;Arthrizon;Reumazin;Todalgil;Artropan;Kadol;Butapirazole;Equipalazone;Phenylbutazon;Alkazone;NSC 25134;Tevcodyne;Butatron;Phen-Buta;MeSH ID: D010653",
    "duplicated_cas_no": "4297-92-1",
    "SMILES": "O=C1N(N(C(=O)C1CCCC)C2=CC=CC=C2)C3=CC=CC=C3",
    "meta_data": {
        "InChI": "InChI=1S/C19H20N2O2/c1-2-3-14-17-18(22)20(15-10-6-4-7-11-15)21(19(17)23)16-12-8-5-9-13-16/h4-13,17H,2-3,14H2,1H3",
        "InChIKey": null,
        "Canonical SMILES": "O=C1N(C=2C=CC=CC2)N(C=3C=CC=CC3)C(=O)C1CCCC",
        "Molecular Formula": "C<sub>19</sub>H<sub>20</sub>N<sub>2</sub>O<sub>2</sub>",
        "Molecular Mass": "308.37",
        "Melting Point": "105 °C",
        "Density": "1.19 g/cm³"
    }
}