{
    "cas_no": "3331-47-3",
    "key_name": "3,8-Dimethyl-5-(1-methylethyl)-1-azulenecarboxaldehyde",
    "cn_name": null,
    "alternate_name": "1-Azulenecarboxaldehyde, 3,8-dimethyl-5-(1-methylethyl)-;1-Azulenecarboxaldehyde, 5-isopropyl-3,8-dimethyl-;3,8-Dimethyl-5-(1-methylethyl)-1-azulenecarboxaldehyde;3-Formylguaiazulene;3-Guaiazulenecarbaldehyde;1,4-Dimethyl-7-(1-methylethyl)azulene-3-carboxaldehyde;3,8-Dimethyl-5-propan-2-ylazulene-1-carbaldehyde;3,8-Dimethyl-5-propan-2-yl-1-azulenecarboxaldehyde;3,8-Dimethyl-5-(propan-2-yl)azulene-1-carbaldehyde",
    "duplicated_cas_no": "",
    "SMILES": "CC=1C=2C(=C(C=O)C1)C(C)=CC=C(C(C)C)C2",
    "meta_data": {
        "InChI": "InChI=1S/C16H18O/c1-10(2)13-6-5-11(3)16-14(9-17)7-12(4)15(16)8-13/h5-10H,1-4H3",
        "InChIKey": null,
        "Canonical SMILES": "O=CC1=CC(=C2C=C(C=CC(=C12)C)C(C)C)C",
        "Molecular Formula": "C<sub>16</sub>H<sub>18</sub>O",
        "Molecular Mass": "226.31",
        "Melting Point": "83-84 °C"
    }
}