{
    "cas_no": "355-20-4",
    "key_name": "2,3-Dichloro-1,1,1,2,3,4,4,4-octafluorobutane",
    "cn_name": "2,3-二氯八氟丁烷;",
    "alternate_name": "Butane, 2,3-dichloro-1,1,1,2,3,4,4,4-octafluoro-;Butane, 2,3-dichlorooctafluoro-;2,3-Dichloro-1,1,1,2,3,4,4,4-octafluorobutane;2,3-Dichlorooctafluorobutane;1,1,1,2,3,4,4,4-Octafluoro-2,3-dichlorobutane;2,3-Dichloroperfluorobutane;NSC 76604",
    "duplicated_cas_no": "",
    "SMILES": "C(C(C(F)(F)F)(Cl)F)(C(F)(F)F)(Cl)F",
    "meta_data": {
        "InChI": "InChI=1S/C4Cl2F8/c5-1(7,3(9,10)11)2(6,8)4(12,13)14",
        "InChIKey": null,
        "Canonical SMILES": "FC(F)(F)C(F)(Cl)C(F)(Cl)C(F)(F)F",
        "Molecular Formula": "C<sub>4</sub>Cl<sub>2</sub>F<sub>8</sub>",
        "Molecular Mass": "270.94",
        "Boiling Point": "63 °C",
        "Melting Point": "-68 °C",
        "Density": "1.6801 g/cm³ @ Temp: 20 °C"
    }
}