{
    "cas_no": "697-17-6",
    "key_name": "1,1,2-Trichloro-2,3,3-trifluorocyclobutane",
    "cn_name": "三氯-三氯环丁烷;",
    "alternate_name": "Cyclobutane, 1,1,2-trichloro-2,3,3-trifluoro-;1,1,2-Trichloro-2,3,3-trifluorocyclobutane;1,4,4-Trichloro-1,2,2-trifluorocyclobutane",
    "duplicated_cas_no": "",
    "SMILES": "ClC1(Cl)C(Cl)(F)C(F)(F)C1",
    "meta_data": {
        "InChI": "InChI=1S/C4H2Cl3F3/c5-2(6)1-3(8,9)4(2,7)10/h1H2",
        "InChIKey": null,
        "Canonical SMILES": "FC1(F)CC(Cl)(Cl)C1(F)Cl",
        "Molecular Formula": "C<sub>4</sub>H<sub>2</sub>Cl<sub>3</sub>F<sub>3</sub>",
        "Molecular Mass": "213.41",
        "Boiling Point": "120-121 °C"
    }
}