{
    "cas_no": "100-65-2",
    "key_name": "<em>N</em>-Phenylhydroxylamine",
    "cn_name": "苯基羟胺;",
    "alternate_name": "Benzenamine, <em>N</em>-hydroxy-;Hydroxylamine, <em>N</em>-phenyl-;Hydroxylamine, β-phenyl-;<em>N</em>-Hydroxybenzenamine;<em>N</em>-Phenylhydroxylamine;β-Phenylhydroxylamine;Phenylhydroxylamine;Phenylhydroxyamine;<em>N</em>-Hydroxyaniline;Hydroxyaminobenzene;NSC 223099",
    "duplicated_cas_no": "",
    "SMILES": "N(O)C1=CC=CC=C1",
    "meta_data": {
        "InChI": "InChI=1S/C6H7NO/c8-7-6-4-2-1-3-5-6/h1-5,7-8H",
        "InChIKey": null,
        "Canonical SMILES": "ONC=1C=CC=CC1",
        "Molecular Formula": "C<sub>6</sub>H<sub>7</sub>NO",
        "Molecular Mass": "109.13",
        "Boiling Point": "60-90 °C",
        "Melting Point": "82 °C"
    }
}