{
    "cas_no": "16534-24-0",
    "key_name": "Cinnamoylglycine",
    "cn_name": null,
    "alternate_name": "Glycine, <em>N</em>-(1-oxo-3-phenyl-2-propen-1-yl)-;Glycine, <em>N</em>-(1-oxo-3-phenyl-2-propenyl)-;Glycine, <em>N</em>-cinnamoyl-;<em>N</em>-(1-Oxo-3-phenyl-2-propen-1-yl)glycine;Cinnamoylglycine;<em>N</em>-Cinnamoylglycine;<em>N</em>-Cinnamylglycine;2-(3-Phenylacrylamido)acetic acid;2-(3-Phenylprop-2-enamido)acetic acid",
    "duplicated_cas_no": "",
    "SMILES": "C(=CC(NCC(O)=O)=O)C1=CC=CC=C1",
    "meta_data": {
        "InChI": "InChI=1S/C11H11NO3/c13-10(12-8-11(14)15)7-6-9-4-2-1-3-5-9/h1-7H,8H2,(H,12,13)(H,14,15)",
        "InChIKey": null,
        "Canonical SMILES": "O=C(O)CNC(=O)C=CC=1C=CC=CC1",
        "Molecular Formula": "C<sub>11</sub>H<sub>11</sub>NO<sub>3</sub>",
        "Molecular Mass": "205.21",
        "Melting Point": "197 °C"
    }
}