{
    "cas_no": "2493-84-7",
    "key_name": "Octyloxybenzoic acid",
    "cn_name": "4-(辛氧基)苯甲酸;对辛氧基苯甲酸;",
    "alternate_name": "Benzoic acid, 4-(octyloxy)-;Benzoic acid, <em>p</em>-(octyloxy)-;4-(Octyloxy)benzoic acid;<em>p</em>-(<em>n</em>-Octyloxy)benzoic acid;<em>p</em>-(Octyloxy)benzoic acid;<em>p</em>-Octoxybenzoic acid;4-<em>n</em>-Octyloxybenzoic acid;<em>p</em>-(<em>n</em>-Octoxy)benzoic acid;Octyloxybenzoic acid;NSC 142138",
    "duplicated_cas_no": "",
    "SMILES": "O(CCCCCCCC)C1=CC=C(C(O)=O)C=C1",
    "meta_data": {
        "InChI": "InChI=1S/C15H22O3/c1-2-3-4-5-6-7-12-18-14-10-8-13(9-11-14)15(16)17/h8-11H,2-7,12H2,1H3,(H,16,17)",
        "InChIKey": null,
        "Canonical SMILES": "O=C(O)C1=CC=C(OCCCCCCCC)C=C1",
        "Molecular Formula": "C<sub>15</sub>H<sub>22</sub>O<sub>3</sub>",
        "Molecular Mass": "250.33",
        "Melting Point": "100.9 °C",
        "Density": "1.169 g/cm³ (crystalline)"
    }
}