{
    "cas_no": "16420-13-6",
    "key_name": "Dimethylthiocarbamoyl chloride",
    "cn_name": "二甲氨基硫代甲酰氯;N,N-二甲基硫代氨基甲酰氯;",
    "alternate_name": "Carbamothioic chloride, <em>N</em>,<em>N</em>-dimethyl-;Carbamoyl chloride, dimethylthio-;Carbamothioic chloride, dimethyl-;Carbamyl chloride, dimethylthio-;<em>N</em>,<em>N</em>-Dimethylcarbamothioic chloride;Dimethylthiocarbamoyl chloride;<em>N</em>,<em>N</em>-Dimethylthiocarbamoyl chloride;<em>N</em>,<em>N</em>-Dimethylthiocarbamyl chloride;Dimethylcarbamothioyl chloride;1-Chloro-<em>N</em>,<em>N</em>-dimethylthioformamide;<em>N</em>,<em>N</em>-Dimethylthiocarbamic acid chloride;<em>N</em>,<em>N</em>′-Dimethylchlorothioformamide;<em>N</em>,<em>N</em>-Dimethylchlorothiocarbamate;Dimethylcarbamothioic chloride;<em>N</em>,<em>N</em>-Dimethylcarbamothioyl chloride;(Chloromethanethioyl)dimethylamine",
    "duplicated_cas_no": "42326-60-3",
    "SMILES": "C(N(C)C)(Cl)=S",
    "meta_data": {
        "InChI": "InChI=1S/C3H6ClNS/c1-5(2)3(4)6/h1-2H3",
        "InChIKey": null,
        "Canonical SMILES": "S=C(Cl)N(C)C",
        "Molecular Formula": "C<sub>3</sub>H<sub>6</sub>ClNS",
        "Molecular Mass": "123.60",
        "Boiling Point": "102 °C @ Press: 12 Torr",
        "Melting Point": "42.5 °C"
    }
}