{
    "cas_no": "632-13-3",
    "key_name": "<span class=\"text-smallcaps\">L</span>-Isoserine",
    "cn_name": "(S)-异丝氨酸;(S)-2-羟基-3-氨基丙酸;",
    "alternate_name": "Propanoic acid, 3-amino-2-hydroxy-, (2<em>S</em>)-;Propanoic acid, 3-amino-2-hydroxy-, (<em>S</em>)-;(2<em>S</em>)-3-Amino-2-hydroxypropanoic acid;<span class=\"text-smallcaps\">L</span>-Isoserine;(<em>S</em>)-Isoserine;(2S)-3-Amino-2-hydroxypropanoic acid",
    "duplicated_cas_no": "",
    "SMILES": "[C@@H](C(O)=O)(CN)O",
    "meta_data": {
        "InChI": "InChI=1S/C3H7NO3/c4-1-2(5)3(6)7/h2,5H,1,4H2,(H,6,7)/t2-/m0/s1",
        "InChIKey": null,
        "Canonical SMILES": "O=C(O)C(O)CN",
        "Molecular Formula": "C<sub>3</sub>H<sub>7</sub>NO<sub>3</sub>",
        "Molecular Mass": "105.09",
        "Melting Point": "99-200 °C"
    }
}