{
    "cas_no": "30751-05-4",
    "key_name": "Troxipide",
    "cn_name": "曲昔匹特;3,4,5-三甲氧基-N-(3-哌啶基)苯甲酰胺;",
    "alternate_name": "Benzamide, 3,4,5-trimethoxy-<em>N</em>-3-piperidinyl-;Benzamide, 3,4,5-trimethoxy-<em>N</em>-3-piperidyl-;3,4,5-Trimethoxy-<em>N</em>-3-piperidinylbenzamide;3-(3,4,5-Trimethoxybenzamido)piperidine;KU 54;Troxipide;Aplace;(<em>N</em>-Piperidin-3-yl)-3,4,5-trimethoxybenzamide",
    "duplicated_cas_no": "99777-81-8",
    "SMILES": "C(NC1CCCNC1)(=O)C2=CC(OC)=C(OC)C(OC)=C2",
    "meta_data": {
        "InChI": "InChI=1S/C15H22N2O4/c1-19-12-7-10(8-13(20-2)14(12)21-3)15(18)17-11-5-4-6-16-9-11/h7-8,11,16H,4-6,9H2,1-3H3,(H,17,18)",
        "InChIKey": null,
        "Canonical SMILES": "O=C(NC1CNCCC1)C2=CC(OC)=C(OC)C(OC)=C2",
        "Molecular Formula": "C<sub>15</sub>H<sub>22</sub>N<sub>2</sub>O<sub>4</sub>",
        "Molecular Mass": "294.35",
        "Melting Point": "179-185 °C"
    }
}