{
    "cas_no": "2778-42-9",
    "key_name": "1,3-Bis(1-isocyanato-1-methylethyl)benzene",
    "cn_name": "1,3-双(1-异氰酸根-1-甲基乙基)苯;",
    "alternate_name": "Benzene, 1,3-bis(1-isocyanato-1-methylethyl)-;Isocyanic acid, α,α,α′,α′-tetramethyl-<em>m</em>-xylylene ester;Isocyanic acid, <em>m</em>-phenylenediisopropylidene ester;1,3-Bis(1-isocyanato-1-methylethyl)benzene;α,α,α′,α′-Tetramethyl-<em>m</em>-phenylenedimethylene diisocyanate;1,3-Bis(α-isocyanatoisopropyl)benzene;<em>m</em>-TMXDI;<em>m</em>-Bis(1-isocyanato-1-methylethyl)benzene;α,α,α′,α′-Tetramethyl-<em>m</em>-xylylene diisocyanate;Tetramethyl-<em>m</em>-xylylene diisocyanate;α,α,α′,α′-Tetramethyl-1,3-xylylene diisocyanate;<em>m</em>-Tetramethylxylene diisocyanate;α,α,α′,α′-Tetramethyl-<em>m</em>-xylene diisocyanate;Tetramethyl-1,3-xylylene diisocyanate;1,3-Bis(1-isocyanatolmethylethyl)benzene;1,3-Bis(2-isocyanato-prop-2-yl)benzene;α,α,α′,α′-Tetramethyl-1,3-xylylen diisocyanate;1,3-Bis(2-isocyanatopropan-2-yl)benzene;1,3-Bis(1-methyl-1-isocyanatoethyl)benzene;α,α,α′,α′-Tetramethyl-1,3-xylene diisocyanate",
    "duplicated_cas_no": "85902-02-9;116723-39-8;945843-99-2;1809802-53-6;1998085-41-8",
    "SMILES": "C(N=C=O)(C)(C)C1=CC(C(N=C=O)(C)C)=CC=C1",
    "meta_data": {
        "InChI": "InChI=1S/C14H16N2O2/c1-13(2,15-9-17)11-6-5-7-12(8-11)14(3,4)16-10-18/h5-8H,1-4H3",
        "InChIKey": null,
        "Canonical SMILES": "O=C=NC(C1=CC=CC(=C1)C(N=C=O)(C)C)(C)C",
        "Molecular Formula": "C<sub>14</sub>H<sub>16</sub>N<sub>2</sub>O<sub>2</sub>",
        "Molecular Mass": "244.29",
        "Boiling Point": "106 °C"
    }
}