{
    "cas_no": "21327-86-6",
    "key_name": "2-Chloro-6-methylbenzoic acid",
    "cn_name": "2-氯-6-甲基苯甲酸;2-甲基-6-氯苯甲酸;",
    "alternate_name": "Benzoic acid, 2-chloro-6-methyl-;<em>o</em>-Toluic acid, 6-chloro-;2-Chloro-6-methylbenzoic acid",
    "duplicated_cas_no": "",
    "SMILES": "C(O)(=O)C1=C(C)C=CC=C1Cl",
    "meta_data": {
        "InChI": "InChI=1S/C8H7ClO2/c1-5-3-2-4-6(9)7(5)8(10)11/h2-4H,1H3,(H,10,11)",
        "InChIKey": null,
        "Canonical SMILES": "O=C(O)C=1C(Cl)=CC=CC1C",
        "Molecular Formula": "C<sub>8</sub>H<sub>7</sub>ClO<sub>2</sub>",
        "Molecular Mass": "170.59",
        "Melting Point": "108 °C"
    }
}