{
    "cas_no": "1458-98-6",
    "key_name": "Methallyl bromide",
    "cn_name": "3-溴-2-甲基丙烯;甲基烯丙基溴;",
    "alternate_name": "1-Propene, 3-bromo-2-methyl-;Propene, 3-bromo-2-methyl-;Methallyl bromide;2-Methylallyl bromide;β-Methylallyl bromide;Methylallyl bromide;3-Bromo-2-methylpropene;2-(Bromomethyl)propene;3-Bromo-2-methyl-1-propene;2-Methyl-2-propenyl bromide;1-Bromo-2-methyl-2-propene;2-Methyl-3-bromo-1-propene;β-Methallyl bromide;3-Bromo-2-methyl-1-propylene;NSC 617310;2-Methyl-3-bromopropene;3-Bromoisobutylene",
    "duplicated_cas_no": "",
    "SMILES": "C(CBr)(C)=C",
    "meta_data": {
        "InChI": "InChI=1S/C4H7Br/c1-4(2)3-5/h1,3H2,2H3",
        "InChIKey": null,
        "Canonical SMILES": "BrCC(=C)C",
        "Molecular Formula": "C<sub>4</sub>H<sub>7</sub>Br",
        "Molecular Mass": "135.00",
        "Boiling Point": "94.2-95.2 °C @ Press: 774 Torr",
        "Density": "1.31335 g/cm³ @ Temp: 20 °C"
    }
}