{
    "cas_no": "74227-35-3",
    "key_name": "Bis[4-(diphenylsulfonio)phenyl] sulfide bis(hexafluorophosphate)",
    "cn_name": "双(4-(二苯基锍)苯基)硫醚-双六氟磷酸盐;",
    "alternate_name": "Sulfonium, <em>S</em>,<em>S</em>′-(thiodi-4,1-phenylene)bis[<em>S</em>,<em>S</em>-diphenyl-, hexafluorophosphate(1-) (1:2);Sulfonium, (thiodi-4,1-phenylene)bis[diphenyl-, bis[hexafluorophosphate(1-)];Phosphate(1-), hexafluoro-, (thiodi-4,1-phenylene)bis[diphenylsulfonium] (2:1);Bis[4-(diphenylsulfonio)phenyl] sulfide bis(hexafluorophosphate);KI 85;Degacure KI 85;Adeka Optomer SP 55;SP 55;Bis[4-(diphenylsulfonium)phenyl] sulfide bis(hexafluorophosphate);Degacure KI 85B;Thiobis(4,1-phenylene)-<em>S</em>,<em>S</em>,<em>S</em>′,<em>S</em>′-(tetraphenyldisulfonium) bis(hexafluorophosphate)",
    "duplicated_cas_no": "96726-69-1",
    "SMILES": "[S+](C1=CC=C(SC2=CC=C([S+](C3=CC=CC=C3)C4=CC=CC=C4)C=C2)C=C1)(C5=CC=CC=C5)C6=CC=CC=C6.[P+5]([F-])([F-])([F-])([F-])([F-])[F-]",
    "meta_data": {
        "InChI": "InChI=1S/C36H28S3.F6P/c1-5-13-31(14-6-1)38(32-15-7-2-8-16-32)35-25-21-29(22-26-35)37-30-23-27-36(28-24-30)39(33-17-9-3-10-18-33)34-19-11-4-12-20-34;1-7(2,3,4,5)6/h1-28H;/q+2;-1",
        "InChIKey": null,
        "Canonical SMILES": "[F-][P+5]([F-])([F-])([F-])([F-])[F-].S(C1=CC=C(C=C1)[S+](C=2C=CC=CC2)C=3C=CC=CC3)C4=CC=C(C=C4)[S+](C=5C=CC=CC5)C=6C=CC=CC6",
        "Molecular Formula": "C<sub>36</sub>H<sub>28</sub>S<sub>3</sub>.2F<sub>6</sub>P",
        "Molecular Mass": "",
        "Melting Point": "230-240 °C"
    }
}