{
    "cas_no": "51908-29-3",
    "key_name": "4-Isothiocyanatobenzenesulfonamide",
    "cn_name": "4-异硫氰基苯磺酰胺;",
    "alternate_name": "Benzenesulfonamide, 4-isothiocyanato-;Isothiocyanic acid, <em>p</em>-sulfamoylphenyl ester;4-Isothiocyanatobenzenesulfonamide;<em>p</em>-Sulfamoylphenyl isothiocyanate;4-(Aminosulfonyl)phenyl isothiocyanate",
    "duplicated_cas_no": "",
    "SMILES": "S(N)(=O)(=O)C1=CC=C(N=C=S)C=C1",
    "meta_data": {
        "InChI": "InChI=1S/C7H6N2O2S2/c8-13(10,11)7-3-1-6(2-4-7)9-5-12/h1-4H,(H2,8,10,11)",
        "InChIKey": null,
        "Canonical SMILES": "O=S(=O)(N)C1=CC=C(N=C=S)C=C1",
        "Molecular Formula": "C<sub>7</sub>H<sub>6</sub>N<sub>2</sub>O<sub>2</sub>S<sub>2</sub>",
        "Molecular Mass": "214.26",
        "Melting Point": "212-214 °C (decomp)"
    }
}