{
    "cas_no": "14523-22-9",
    "key_name": "Rhodium, tetracarbonyldi-μ-chlorodi-",
    "cn_name": null,
    "alternate_name": "Rhodium, tetracarbonyldi-μ-chlorodi-;Bis(dicarbonylrhodium chloride);Rhodium dicarbonyl chloride dimer;Tetracarbonyldi-μ-chlorodirhodium;Tetracarbonyl-μ,μ′-dichlorodirhodium;Tetracarbonyldichlorodirhodium;Chlorodicarbonylrhodium dimer;Rhodium carbonyl chloride dimer;Dicarbonylchlororhodium dimer;Dichlorodirhodiumtetracarbonyl;μ-Dichlorotetracarbonyldirhodium;Di-μ-Chlorotetracarbonyldirhodium(I);Tetracarbonyl-μ,μ′-dichlorodirhodium(I);Bis(dicarbonylchlororhodium);Dirhodium tetracarbonyl dichloride;Bis(chlororhodiumdicarbonyl);Tetracarbonylbis(μ-chloro)dirhodium;Chlororhodium dicarbonyl dimer;Dicarbonylrhodium chloride dimer;Rhodium carbonyl chloride (Rh<sub>2</sub>(CO)<sub>4</sub>Cl<sub>2</sub>);Dichlorotetracarbonyldirhodium;Bis(dicarbonyl(μ-chloro)rhodium);NSC 120116;Bis(μ-chloro)bis(dicarbonylrhodium)",
    "duplicated_cas_no": "12352-28-2;12352-29-3;14404-25-2;15730-03-7;32408-34-7",
    "SMILES": "C(#O)[Rh+]1(C#O)[Cl-][Rh+](C#O)(C#O)[Cl-]1",
    "meta_data": {
        "InChI": "InChI=1S/4CO.2ClH.2Rh/c4*1-2;;;;/h;;;;2*1H;;/q;;;;;;2*+1/p-2",
        "InChIKey": null,
        "Canonical SMILES": "O#C[Rh+]1(C#O)[Cl-][Rh+](C#O)(C#O)[Cl-]1",
        "Molecular Formula": "C<sub>4</sub>Cl<sub>2</sub>O<sub>4</sub>Rh<sub>2</sub>",
        "Molecular Mass": "",
        "Melting Point": "123 °C"
    }
}