{
    "cas_no": "34145-05-6",
    "key_name": "2,5-Dichlorobenzenemethanol",
    "cn_name": null,
    "alternate_name": "Benzenemethanol, 2,5-dichloro-;Benzyl alcohol, 2,5-dichloro-;2,5-Dichlorobenzenemethanol;2,5-Dichlorobenzyl alcohol;(2,5-Dichlorophenyl)methanol",
    "duplicated_cas_no": "",
    "SMILES": "C(O)C1=C(Cl)C=CC(Cl)=C1",
    "meta_data": {
        "InChI": "InChI=1S/C7H6Cl2O/c8-6-1-2-7(9)5(3-6)4-10/h1-3,10H,4H2",
        "InChIKey": null,
        "Canonical SMILES": "ClC1=CC=C(Cl)C(=C1)CO",
        "Molecular Formula": "C<sub>7</sub>H<sub>6</sub>Cl<sub>2</sub>O",
        "Molecular Mass": "177.03",
        "Melting Point": "80 °C"
    }
}