{
    "cas_no": "65615-90-9",
    "key_name": "4-Amino-<em>N</em>-[(1,1-dimethylethoxy)carbonyl]-<span class=\"text-smallcaps\">L</span>-phenylalanine methyl ester",
    "cn_name": null,
    "alternate_name": "<span class=\"text-smallcaps\">L</span>-Phenylalanine, 4-amino-<em>N</em>-[(1,1-dimethylethoxy)carbonyl]-, methyl ester;4-Amino-<em>N</em>-[(1,1-dimethylethoxy)carbonyl]-<span class=\"text-smallcaps\">L</span>-phenylalanine methyl ester;Methyl (2<em>S</em>)-3-(4-aminophenyl)-2-[(<em>tert</em>-butoxycarbonyl)amino]propanoate;(<em>s</em>)-Methyl 3-(4-aminophenyl)-2-((<em>tert</em>-butoxycarbonyl)amino)propanoate",
    "duplicated_cas_no": "",
    "SMILES": "[C@@H](CC1=CC=C(N)C=C1)(NC(OC(C)(C)C)=O)C(OC)=O",
    "meta_data": {
        "InChI": "InChI=1S/C15H22N2O4/c1-15(2,3)21-14(19)17-12(13(18)20-4)9-10-5-7-11(16)8-6-10/h5-8,12H,9,16H2,1-4H3,(H,17,19)/t12-/m0/s1",
        "InChIKey": null,
        "Canonical SMILES": "O=C(OC(C)(C)C)NC(C(=O)OC)CC1=CC=C(N)C=C1",
        "Molecular Formula": "C<sub>15</sub>H<sub>22</sub>N<sub>2</sub>O<sub>4</sub>",
        "Molecular Mass": "294.35",
        "Melting Point": "85-87 °C"
    }
}