{
    "cas_no": "14737-80-5",
    "key_name": "4,5,6,7-Tetrachloro-2-methyl-1<em>H</em>-isoindole-1,3(2<em>H</em>)-dione",
    "cn_name": null,
    "alternate_name": "1<em>H</em>-Isoindole-1,3(2<em>H</em>)-dione, 4,5,6,7-tetrachloro-2-methyl-;Phthalimide, 3,4,5,6-tetrachloro-<em>N</em>-methyl-;4,5,6,7-Tetrachloro-2-methyl-1<em>H</em>-isoindole-1,3(2<em>H</em>)-dione;Tetrachloro-<em>N</em>-methylphthalimide;<em>N</em>-Methyltetrachlorophthalimide;<em>N</em>-Methyl-3,4,5,6-tetrachlorophthalimide;3,4,5,6-Tetrachloro-<em>N</em>-methylphthalimide;NSC 45112",
    "duplicated_cas_no": "",
    "SMILES": "O=C1C=2C(C(=O)N1C)=C(Cl)C(Cl)=C(Cl)C2Cl",
    "meta_data": {
        "InChI": "InChI=1S/C9H3Cl4NO2/c1-14-8(15)2-3(9(14)16)5(11)7(13)6(12)4(2)10/h1H3",
        "InChIKey": null,
        "Canonical SMILES": "O=C1C=2C(Cl)=C(Cl)C(Cl)=C(Cl)C2C(=O)N1C",
        "Molecular Formula": "C<sub>9</sub>H<sub>3</sub>Cl<sub>4</sub>NO<sub>2</sub>",
        "Molecular Mass": "298.94",
        "Melting Point": "210-212 °C"
    }
}