{
    "cas_no": "34381-71-0",
    "key_name": "(2<em>S</em>)-1-Methyl-2-pyrrolidinemethanol",
    "cn_name": "N-甲基-L-脯氨醇;(S)-N-甲基-2-吡咯烷甲醇;",
    "alternate_name": "2-Pyrrolidinemethanol, 1-methyl-, (2<em>S</em>)-;2-Pyrrolidinemethanol, 1-methyl-, (<em>S</em>)-;(2<em>S</em>)-1-Methyl-2-pyrrolidinemethanol;<span class=\"text-smallcaps\">L</span>-(-)-<em>N</em>-Methyl-2-pyrrolidinylmethanol;<span class=\"text-smallcaps\">L</span>-<em>N</em>-Methylprolinol;(<em>S</em>)-(-)-1-Methylpyrrolidine-2-methanol;(<em>S</em>)-1-Methyl-2-pyrrolidinemethanol;(<em>S</em>)-<em>N</em>-Methylpyrrolidine-2-methanol;(<em>S</em>)-2-(Hydroxymethyl)-1-methylpyrrolidine;(2<em>S</em>)-1-Methylpyrrolidin-2-ylmethanol;<em>N</em>-Methyl-<span class=\"text-smallcaps\">L</span>-prolinol;(-)-(<em>S</em>)-1-Methyl-2-pyrrolidinemethanol;(<em>S</em>)-(-)-2-Hydroxymethyl-1-methylpyrrolidine;(<em>S</em>)-(-)-(1-Methyl-2-pyrrolidinyl)methanol;(2<em>S</em>)-(Hydroxymethyl)-1-methylpyrrolidine;(<em>S</em>)-1-Methylpyrrolidin-2-ylmethanol;(2<em>S</em>)-1-Methylpyrrolidine-2-methanol;((2S)-1-Methylpyrrolidin-2-yl)methanol;2-Pyrrolidinemethanol 1-methyl-, (2S)-",
    "duplicated_cas_no": "566157-15-1",
    "SMILES": "C(O)[C@H]1N(C)CCC1",
    "meta_data": {
        "InChI": "InChI=1S/C6H13NO/c1-7-4-2-3-6(7)5-8/h6,8H,2-5H2,1H3/t6-/m0/s1",
        "InChIKey": null,
        "Canonical SMILES": "OCC1N(C)CCC1",
        "Molecular Formula": "C<sub>6</sub>H<sub>13</sub>NO",
        "Molecular Mass": "115.17",
        "Boiling Point": "64-66 °C @ Press: 11 Torr",
        "Density": "0.9743 g/cm³ @ Temp: 20 °C"
    }
}