{
    "cas_no": "395-64-2",
    "key_name": "2,5-Bis(trifluoromethyl)benzaldehyde",
    "cn_name": "2,5-双(三氟甲基)苯甲醛;",
    "alternate_name": "Benzaldehyde, 2,5-bis(trifluoromethyl)-;2,5-Bis(trifluoromethyl)benzaldehyde",
    "duplicated_cas_no": "",
    "SMILES": "C(=O)C1=C(C(F)(F)F)C=CC(C(F)(F)F)=C1",
    "meta_data": {
        "InChI": "InChI=1S/C9H4F6O/c10-8(11,12)6-1-2-7(9(13,14)15)5(3-6)4-16/h1-4H",
        "InChIKey": null,
        "Canonical SMILES": "O=CC1=CC(=CC=C1C(F)(F)F)C(F)(F)F",
        "Molecular Formula": "C<sub>9</sub>H<sub>4</sub>F<sub>6</sub>O",
        "Molecular Mass": "242.12",
        "Boiling Point": "170-172 °C"
    }
}