{
    "cas_no": "16311-69-6",
    "key_name": "3,4-Dimethyl-5-(2-hydroxyethyl)thiazolium iodide",
    "cn_name": "5-(2-羟基乙基)-3,4-二甲硫基唑碘正离子;",
    "alternate_name": "Thiazolium, 5-(2-hydroxyethyl)-3,4-dimethyl-, iodide (1:1);Thiazolium, 5-(2-hydroxyethyl)-3,4-dimethyl-, iodide;5-(2-Hydroxyethyl)-3,4-dimethylthiazolium iodide;3,4-Dimethyl-5-(2-hydroxyethyl)thiazolium iodide;3,4-Dimethyl-5-(β-hydroxyethyl)thiazolium iodide;<em>N</em>,4-Dimethyl-5-(2-hydroxyethyl)thiazolium iodide",
    "duplicated_cas_no": "",
    "SMILES": "C(CO)C1=C(C)[N+](C)=CS1.[I-]",
    "meta_data": {
        "InChI": "InChI=1S/C7H12NOS.HI/c1-6-7(3-4-9)10-5-8(6)2;/h5,9H,3-4H2,1-2H3;1H/q+1;/p-1",
        "InChIKey": null,
        "Canonical SMILES": "[I-].OCCC=1SC=[N+](C1C)C",
        "Molecular Formula": "C<sub>7</sub>H<sub>12</sub>NOS.I",
        "Molecular Mass": "",
        "Melting Point": "82-84 °C"
    }
}