{
    "cas_no": "265652-39-9",
    "key_name": "4-Bromo-3-methyl-2-thiophenecarboxylic acid",
    "cn_name": null,
    "alternate_name": "2-Thiophenecarboxylic acid, 4-bromo-3-methyl-;4-Bromo-3-methyl-2-thiophenecarboxylic acid;4-Bromo-3-methylthiophene-2-carboxylic acid",
    "duplicated_cas_no": "",
    "SMILES": "C(O)(=O)C1=C(C)C(Br)=CS1",
    "meta_data": {
        "InChI": "InChI=1S/C6H5BrO2S/c1-3-4(7)2-10-5(3)6(8)9/h2H,1H3,(H,8,9)",
        "InChIKey": null,
        "Canonical SMILES": "O=C(O)C=1SC=C(Br)C1C",
        "Molecular Formula": "C<sub>6</sub>H<sub>5</sub>BrO<sub>2</sub>S",
        "Molecular Mass": "221.07",
        "Melting Point": "187.5-188.5 °C"
    }
}