{
    "cas_no": "14091-15-7",
    "key_name": "4-Bromophenylalanine",
    "cn_name": null,
    "alternate_name": "Phenylalanine, 4-bromo-;Alanine, 3-(<em>p</em>-bromophenyl)-, <span class=\"text-smallcaps\">DL</span>-;<span class=\"text-smallcaps\">DL</span>-Phenylalanine, 4-bromo-;4-Bromophenylalanine;<span class=\"text-smallcaps\">DL</span>-4-Bromophenylalanine;<span class=\"text-smallcaps\">DL</span>-<em>p</em>-Bromophenylalanine;<em>p</em>-Bromo-<span class=\"text-smallcaps\">DL</span>-phenylalanine;4-Bromo-<span class=\"text-smallcaps\">DL</span>-phenylalanine;<em>p</em>-Bromophenylalanine;NSC 12762;2-Amino-3-(4-bromophenyl)propionic acid;2-Amino-3-(4-bromophenyl)propanoic acid;α-Amino-4-bromobenzenepropanoic acid",
    "duplicated_cas_no": "1991-80-6",
    "SMILES": "C(C(C(O)=O)N)C1=CC=C(Br)C=C1",
    "meta_data": {
        "InChI": "InChI=1S/C9H10BrNO2/c10-7-3-1-6(2-4-7)5-8(11)9(12)13/h1-4,8H,5,11H2,(H,12,13)",
        "InChIKey": null,
        "Canonical SMILES": "O=C(O)C(N)CC1=CC=C(Br)C=C1",
        "Molecular Formula": "C<sub>9</sub>H<sub>10</sub>BrNO<sub>2</sub>",
        "Molecular Mass": "244.09",
        "Melting Point": "258 °C (decomp)"
    }
}