{
    "cas_no": "99-88-7",
    "key_name": "4-Isopropylaniline",
    "cn_name": "4-异丙基苯胺;对异丙基苯胺;",
    "alternate_name": "Benzenamine, 4-(1-methylethyl)-;Cumidine;4-(1-Methylethyl)benzenamine;4-Aminocumene;4-Amino-1-isopropylbenzene;β-(4-Aminophenyl)propane;<em>p</em>-Cumidine;<em>p</em>-Isopropylaniline;4-Isopropylaniline;4-Aminoisopropylbenzene;1-Amino-4-isopropylbenzene;4-Isopropylphenylamine;4-(2-Propyl)aniline;4-Isopropylbenzenamine;NSC 7198;[4-(1-Methylethyl)phenyl]amine;4-(Propan-2-yl)aniline;<em>p</em>-Aminocumene",
    "duplicated_cas_no": "",
    "SMILES": "C(C)(C)C1=CC=C(N)C=C1",
    "meta_data": {
        "InChI": "InChI=1S/C9H13N/c1-7(2)8-3-5-9(10)6-4-8/h3-7H,10H2,1-2H3",
        "InChIKey": null,
        "Canonical SMILES": "NC1=CC=C(C=C1)C(C)C",
        "Molecular Formula": "C<sub>9</sub>H<sub>13</sub>N",
        "Molecular Mass": "135.21",
        "Boiling Point": "225 °C",
        "Melting Point": "163-164 °C"
    }
}