{
    "cas_no": "95-95-4",
    "key_name": "2,4,5-Trichlorophenol",
    "cn_name": "2,4,5-三氯苯酚;",
    "alternate_name": "Phenol, 2,4,5-trichloro-;2,4,5-Trichlorophenol;Dowicide 2;Preventol I;TCP;2.4,5-Trichlorophenic acid;NSC 2266",
    "duplicated_cas_no": "77001-45-7",
    "SMILES": "ClC1=C(Cl)C=C(O)C(Cl)=C1",
    "meta_data": {
        "InChI": "InChI=1S/C6H3Cl3O/c7-3-1-5(9)6(10)2-4(3)8/h1-2,10H",
        "InChIKey": null,
        "Canonical SMILES": "ClC=1C=C(Cl)C(O)=CC1Cl",
        "Molecular Formula": "C<sub>6</sub>H<sub>3</sub>Cl<sub>3</sub>O",
        "Molecular Mass": "197.45",
        "Boiling Point": "247 °C @ Press: 760 Torr",
        "Melting Point": "69 °C",
        "Density": "1.678 g/cm³ @ Temp: 25 °C"
    }
}