{
    "cas_no": "2393-58-0",
    "key_name": "α-Muricholic acid",
    "cn_name": null,
    "alternate_name": "Cholan-24-oic acid, 3,6,7-trihydroxy-, (3α,5β,6β,7α)-;α-Muricholic acid;5β-Cholan-24-oic acid, 3α,6β,7α-trihydroxy-;5β-Cholanic acid, 3α,6β,7α-trihydroxy-;(3α,5β,6β,7α)-3,6,7-Trihydroxycholan-24-oic acid;5β-Cholanic acid-3α,6β,7α-triol;3α,6β,7α-Trihydroxy-5β-cholan-24-oic acid",
    "duplicated_cas_no": "",
    "SMILES": "C[C@@]12[C@@]3([C@]([C@]4([C@](C)(CC3)[C@@]([C@@H](CCC(O)=O)C)(CC4)[H])[H])([C@H](O)[C@@H](O)[C@@]1(C[C@H](O)CC2)[H])[H])[H]",
    "meta_data": {
        "InChI": "InChI=1S/C24H40O5/c1-13(4-7-19(26)27)15-5-6-16-20-17(9-11-23(15,16)2)24(3)10-8-14(25)12-18(24)21(28)22(20)29/h13-18,20-22,25,28-29H,4-12H2,1-3H3,(H,26,27)/t13-,14-,15-,16+,17+,18+,20+,21+,22+,23-,24-/m1/s1",
        "InChIKey": null,
        "Canonical SMILES": "O=C(O)CCC(C)C1CCC2C3C(O)C(O)C4CC(O)CCC4(C)C3CCC12C",
        "Molecular Formula": "C<sub>24</sub>H<sub>40</sub>O<sub>5</sub>",
        "Molecular Mass": "408.57",
        "Melting Point": "200-202 °C"
    }
}