{
    "cas_no": "75-66-1",
    "key_name": "<em>tert</em>-Butyl mercaptan",
    "cn_name": "叔丁基硫醇;2-甲基-2-丙硫醇;叔丁硫醇;",
    "alternate_name": "2-Propanethiol, 2-methyl-;2-Methyl-2-propanethiol;<em>tert</em>-Butanethiol;<em>tert</em>-Butylthiol;1,1-Dimethylethanethiol;2-Isobutanethiol;<em>t</em>-Butylmercaptan;<em>t</em>-Butylthiol;<em>t</em>-Butanethiol;<em>tert</em>-Butyl mercaptan;TBM",
    "duplicated_cas_no": "",
    "SMILES": "C(C)(C)(C)S",
    "meta_data": {
        "InChI": "InChI=1S/C4H10S/c1-4(2,3)5/h5H,1-3H3",
        "InChIKey": null,
        "Canonical SMILES": "SC(C)(C)C",
        "Molecular Formula": "C<sub>4</sub>H<sub>10</sub>S",
        "Molecular Mass": "90.19",
        "Boiling Point": "-63.7-64.2 °C @ Press: 760 Torr",
        "Melting Point": "-0.5 °C",
        "Density": "0.80 g/cm³"
    }
}