{
    "cas_no": "99-49-0",
    "key_name": "Carvone",
    "cn_name": "2-甲基-5-(1-甲基乙烯基)-2-环己烯-1-酮;L-香芹酮;左旋香芹酮;葛缕子酮;香旱芹子油萜酮;",
    "alternate_name": "2-Cyclohexen-1-one, 2-methyl-5-(1-methylethenyl)-;<em>p</em>-Mentha-6,8-dien-2-one;2-Methyl-5-(1-methylethenyl)-2-cyclohexen-1-one;Carvone;<em>p</em>-Mentha-1(6),8-dien-2-one;Karvon;5-Isopropyl-2-methyl-2-cyclohexen-1-one;<span class=\"text-smallcaps\">DL</span>-Carvone;(±)-Carvone;2-Methyl-5-isopropenyl-2-cyclohexenone;NSC 6275;Limonen-6-one;5-Isopropenyl-2-methylcyclohex-2-enone;2-Methyl-5-(1-methyl-1-ethenyl)-2-cyclohexen-1-one;2-Methyl-5-(prop-1-en-2-yl)cyclohex-2-en-1-one;2-Methyl-5-prop-1-en-2-ylcyclohex-2-en-1-one;2-Methyl-5-(prop-1-en-2-yl)cyclohex-2-enone",
    "duplicated_cas_no": "22327-39-5",
    "SMILES": "C(C)(=C)C1CC(=O)C(C)=CC1",
    "meta_data": {
        "InChI": "InChI=1S/C10H14O/c1-7(2)9-5-4-8(3)10(11)6-9/h4,9H,1,5-6H2,2-3H3",
        "InChIKey": null,
        "Canonical SMILES": "O=C1C(=CCC(C(=C)C)C1)C",
        "Molecular Formula": "C<sub>10</sub>H<sub>14</sub>O",
        "Molecular Mass": "150.22",
        "Boiling Point": "231 °C",
        "Melting Point": "100 °C",
        "Density": "0.9600 g/cm³ @ Temp: 26 °C"
    }
}