{
    "cas_no": "38380-03-9",
    "key_name": "PCB 110",
    "cn_name": null,
    "alternate_name": "1,1′-Biphenyl, 2,3,3′,4′,6-pentachloro-;2,3,3′,4′,6-Pentachloro-1,1′-biphenyl;3,4,2′,3′,6′-Pentachlorobiphenyl;2,3,3′,4′,6-Pentachlorobiphenyl;2′,3,3′,4,6′-Pentachlorobiphenyl;2,3,6,3′,4′-Pentachlorobiphenyl;PCB 110",
    "duplicated_cas_no": "",
    "SMILES": "ClC1=C(C(Cl)=CC=C1Cl)C2=CC(Cl)=C(Cl)C=C2",
    "meta_data": {
        "InChI": "InChI=1S/C12H5Cl5/c13-7-2-1-6(5-10(7)16)11-8(14)3-4-9(15)12(11)17/h1-5H",
        "InChIKey": null,
        "Canonical SMILES": "ClC=1C=CC(=CC1Cl)C=2C(Cl)=CC=C(Cl)C2Cl",
        "Molecular Formula": "C<sub>12</sub>H<sub>5</sub>Cl<sub>5</sub>",
        "Molecular Mass": "326.43",
        "Boiling Point": "193-215 °C"
    }
}