{
    "cas_no": "5580-83-6",
    "key_name": "1-Bromo-2,3,4,5-tetrafluoro-6-nitrobenzene",
    "cn_name": null,
    "alternate_name": "Benzene, 1-bromo-2,3,4,5-tetrafluoro-6-nitro-;1-Bromo-2,3,4,5-tetrafluoro-6-nitrobenzene;Bromo-2,3,4,5-tetrafluoronitrobenzene",
    "duplicated_cas_no": "",
    "SMILES": "N(=O)(=O)C1=C(Br)C(F)=C(F)C(F)=C1F",
    "meta_data": {
        "InChI": "InChI=1S/C6BrF4NO2/c7-1-2(8)3(9)4(10)5(11)6(1)12(13)14",
        "InChIKey": null,
        "Canonical SMILES": "O=N(=O)C=1C(F)=C(F)C(F)=C(F)C1Br",
        "Molecular Formula": "C<sub>6</sub>BrF<sub>4</sub>NO<sub>2</sub>",
        "Molecular Mass": "273.97",
        "Boiling Point": "94 °C @ Press: 20 Torr"
    }
}