{
    "cas_no": "103863-15-6",
    "key_name": "3-Phenyl-2-pyridinecarboxylic acid",
    "cn_name": null,
    "alternate_name": "2-Pyridinecarboxylic acid, 3-phenyl-;Picolinic acid, 3-phenyl-;3-Phenyl-2-pyridinecarboxylic acid;3-Phenylpyridine-2-carboxylic acid;3-Phenylpicolinic acid",
    "duplicated_cas_no": "",
    "SMILES": "C(O)(=O)C1=C(C=CC=N1)C2=CC=CC=C2",
    "meta_data": {
        "InChI": "InChI=1S/C12H9NO2/c14-12(15)11-10(7-4-8-13-11)9-5-2-1-3-6-9/h1-8H,(H,14,15)",
        "InChIKey": null,
        "Canonical SMILES": "O=C(O)C1=NC=CC=C1C=2C=CC=CC2",
        "Molecular Formula": "C<sub>12</sub>H<sub>9</sub>NO<sub>2</sub>",
        "Molecular Mass": "199.21",
        "Melting Point": "131-131.5 °C (decomp)"
    }
}