{
    "cas_no": "785-30-8",
    "key_name": "4,4′-Diaminobenzanilide",
    "cn_name": "4,4\"-二氨基苯酰替苯胺;",
    "alternate_name": "Benzamide, 4-amino-<em>N</em>-(4-aminophenyl)-;Benzanilide, 4,4′-diamino-;4-Amino-<em>N</em>-(4-aminophenyl)benzamide;4,4′-Diaminobenzanilide;4-Aminobenzoyl-4′-aminoanilide;<em>N</em>-(4-Aminophenyl)-4-aminobenzamide;NSC 37092;DABAN;4,4′-Diaminodiphenylamide",
    "duplicated_cas_no": "",
    "SMILES": "C(NC1=CC=C(N)C=C1)(=O)C2=CC=C(N)C=C2",
    "meta_data": {
        "InChI": "InChI=1S/C13H13N3O/c14-10-3-1-9(2-4-10)13(17)16-12-7-5-11(15)6-8-12/h1-8H,14-15H2,(H,16,17)",
        "InChIKey": null,
        "Canonical SMILES": "O=C(NC1=CC=C(N)C=C1)C2=CC=C(N)C=C2",
        "Molecular Formula": "C<sub>13</sub>H<sub>13</sub>N<sub>3</sub>O",
        "Molecular Mass": "227.26",
        "Melting Point": "204 °C"
    }
}