{
    "cas_no": "7060-74-4",
    "key_name": "Oleandomycin phosphate",
    "cn_name": "磷酸竹桃霉素;",
    "alternate_name": "Oleandomycin, phosphate (1:1) (salt);Oleandomycin phosphate;1,9-Dioxaspiro[2.13]hexadecane, oleandomycin deriv.;Matromycin",
    "duplicated_cas_no": "16726-37-7",
    "SMILES": "P(=O)(O)(O)O.O=C1[C@]2(CO2)C[C@H](C)[C@H](O[C@H]3[C@H](O)[C@@H](N(C)C)C[C@@H](C)O3)[C@@H](C)[C@H](O[C@H]4C[C@H](OC)[C@@H](O)[C@H](C)O4)[C@@H](C)C(=O)O[C@H](C)[C@H](C)[C@H](O)[C@H]1C",
    "meta_data": {
        "InChI": "InChI=1S/C35H61NO12.H3O4P/c1-16-14-35(15-43-35)32(40)19(4)27(37)18(3)22(7)46-33(41)21(6)31(47-26-13-25(42-11)28(38)23(8)45-26)20(5)30(16)48-34-29(39)24(36(9)10)12-17(2)44-34;1-5(2,3)4/h16-31,34,37-39H,12-15H2,1-11H3;(H3,1,2,3,4)/t16-,17+,18-,19+,20+,21+,22+,23-,24-,25-,26-,27-,28-,29+,30-,31-,34-,35+;/m0./s1",
        "InChIKey": null,
        "Canonical SMILES": "O=C1OC(C)C(C)C(O)C(C(=O)C2(OC2)CC(C)C(OC3OC(C)CC(N(C)C)C3O)C(C)C(OC4OC(C)C(O)C(OC)C4)C1C)C.O=P(O)(O)O",
        "Molecular Formula": "C<sub>35</sub>H<sub>61</sub>NO<sub>12</sub>.H<sub>3</sub>O<sub>4</sub>P",
        "Molecular Mass": "",
        "Melting Point": "145-147 °C"
    }
}