{
    "cas_no": "523-44-4",
    "key_name": "Orange I",
    "cn_name": null,
    "alternate_name": "Benzenesulfonic acid, 4-[2-(4-hydroxy-1-naphthalenyl)diazenyl]-, sodium salt (1:1);C.I. Acid Orange 20, monosodium salt;Benzenesulfonic acid, 4-[(4-hydroxy-1-naphthalenyl)azo]-, monosodium salt;C.I. Acid Orange 20;C.I. 14600;Acid Leather Orange I;Acid Orange I;Aizen Orange I;Certiqual Orange I;Dye orange No. 1;Eniacid Orange I;Ext D and C Orange No. 3;Hispacid Orange 1;Java Orange I;Naphthalene Orange I;Neklacid Orange 1;Orange I;1333 Orange;Orange I Extra Conc. A Export;Orange IM;A.F. Orange No. 1;4-<em>p</em>-Sulfophenylazo-1-naphthol monosodium salt;Tertracid Orange I;α-Naphthol Orange;External D and C Orange Number 3;FD and C Orange No. 1;Orange 1 sodium salt;Tropaeolin 1;Acid Orange 20;Naphthol Orange;Tropaeolin OOO 1;Yellow 404;Japan Orange 402;Japan Orange No. 402;Japan Orange 1;FD and C Orange 1;Ext D &amp; C Orange 3;Orange 402;Orange No. 402",
    "duplicated_cas_no": "67621-59-4;67621-51-6",
    "SMILES": "N(=NC1=CC=C(S(=O)(=O)O)C=C1)C=2C3=C(C(O)=CC2)C=CC=C3.[Na]",
    "meta_data": {
        "InChI": "InChI=1S/C16H12N2O4S.Na/c19-16-10-9-15(13-3-1-2-4-14(13)16)18-17-11-5-7-12(8-6-11)23(20,21)22;/h1-10,19H,(H,20,21,22);",
        "InChIKey": null,
        "Canonical SMILES": "[Na].O=S(=O)(O)C1=CC=C(N=NC2=CC=C(O)C=3C=CC=CC23)C=C1",
        "Molecular Formula": "C<sub>16</sub>H<sub>12</sub>N<sub>2</sub>O<sub>4</sub>S.Na",
        "Molecular Mass": "",
        "Melting Point": "260 °C (decomp)"
    }
}