{
    "cas_no": "122-96-3",
    "key_name": "1,4-Piperazinediethanol",
    "cn_name": "1,4-双(2-羟氧基)对二氮乙环乙烷;",
    "alternate_name": "1,4-Piperazinediethanol;<em>N</em>,<em>N</em>′-Bis(β-hydroxyethyl)piperazine;1,4-Bis(2-hydroxyethyl)piperazine;<em>N</em>,<em>N</em>′-Di(2-hydroxyethyl)piperazine;1,4-Di(2-hydroxyethyl)piperazine;1,4-Bis(β-hydroxyethyl)piperazine;<em>N</em>,<em>N</em>′-Bis(2-hydroxyethyl)piperazine;NSC 26892;NSC 31268;NSC 36645;1,4-Bis(hydroxyethyl)piperazine;2,2′-(Piperazine-1,4-diyl)diethanol;2-[4-(2-Hydroxyethyl)piperazin-1-yl]ethan-1-ol;2-[4-(2-Hydroxyethyl)piperazin-1-yl]ethanol",
    "duplicated_cas_no": "",
    "SMILES": "C(CO)N1CCN(CCO)CC1",
    "meta_data": {
        "InChI": "InChI=1S/C8H18N2O2/c11-7-5-9-1-2-10(4-3-9)6-8-12/h11-12H,1-8H2",
        "InChIKey": null,
        "Canonical SMILES": "OCCN1CCN(CCO)CC1",
        "Molecular Formula": "C<sub>8</sub>H<sub>18</sub>N<sub>2</sub>O<sub>2</sub>",
        "Molecular Mass": "174.24",
        "Boiling Point": "215-220 °C @ Press: 50 Torr",
        "Melting Point": "134-135 °C"
    }
}