{
    "cas_no": "141-16-2",
    "key_name": "Citronellyl butyrate",
    "cn_name": "3,7-二甲基-6-辛烯醇丁酸酯;",
    "alternate_name": "Butanoic acid, 3,7-dimethyl-6-octen-1-yl ester;Butyric acid, 3,7-dimethyl-6-octenyl ester;Butanoic acid, 3,7-dimethyl-6-octenyl ester;Butyric acid, ester with citronellol;6-Octen-1-ol, 3,7-dimethyl-, butyrate;Citronellyl butyrate;2,6-Dimethyl-2-octen-8-ol ester with butyric acid;2,6-Dimethyl-2-octen-8-yl butyrate;Citronellyl <em>n</em>-butyrate;Citronellyl butanoate;3,7-Dimethyl-6-octenyl butanoate;Citronellol butyrate;NSC 46147",
    "duplicated_cas_no": "134982-45-9;76444-24-1",
    "SMILES": "C(CCOC(CCC)=O)(CCC=C(C)C)C",
    "meta_data": {
        "InChI": "InChI=1S/C14H26O2/c1-5-7-14(15)16-11-10-13(4)9-6-8-12(2)3/h8,13H,5-7,9-11H2,1-4H3",
        "InChIKey": null,
        "Canonical SMILES": "O=C(OCCC(C)CCC=C(C)C)CCC",
        "Molecular Formula": "C<sub>14</sub>H<sub>26</sub>O<sub>2</sub>",
        "Molecular Mass": "226.35",
        "Boiling Point": "135-139 °C @ Press: 13 Torr",
        "Density": "0.8898-0.8928 g/cm³ @ Temp: 15 °C"
    }
}