{
    "cas_no": "19432-69-0",
    "key_name": "Methyl 5-methyl-2-thiophenecarboxylate",
    "cn_name": null,
    "alternate_name": "2-Thiophenecarboxylic acid, 5-methyl-, methyl ester;Methyl 5-methyl-2-thiophenecarboxylate;5-Methylthiophene-2-carboxylic acid methyl ester",
    "duplicated_cas_no": "",
    "SMILES": "C(OC)(=O)C=1SC(C)=CC1",
    "meta_data": {
        "InChI": "InChI=1S/C7H8O2S/c1-5-3-4-6(10-5)7(8)9-2/h3-4H,1-2H3",
        "InChIKey": null,
        "Canonical SMILES": "O=C(OC)C=1SC(=CC1)C",
        "Molecular Formula": "C<sub>7</sub>H<sub>8</sub>O<sub>2</sub>S",
        "Molecular Mass": "156.20",
        "Boiling Point": "77-79 °C @ Press: 5 Torr",
        "Density": "1.1736 g/cm³ @ Temp: 20 °C"
    }
}