{
    "cas_no": "152-72-7",
    "key_name": "(±)-Acenocoumarol",
    "cn_name": null,
    "alternate_name": "2<em>H</em>-1-Benzopyran-2-one, 4-hydroxy-3-[1-(4-nitrophenyl)-3-oxobutyl]-;Acenocoumarol;Coumarin, 3-(α-acetonyl-<em>p</em>-nitrobenzyl)-4-hydroxy-;4-Hydroxy-3-[1-(4-nitrophenyl)-3-oxobutyl]-2<em>H</em>-1-benzopyran-2-one;G 23,350;Acenocoumarin;3-(α-Acetonyl-<em>p</em>-nitrobenzyl)-4-hydroxycoumarin;3-(α-Acetonyl-4-nitrobenzyl)-4-hydroxycoumarin;3-(Alpha-acetonyl-4-nitrobenzyl)-4-hydroxycoumarin;Nicoumalone;3-[α-(<em>p</em>-Nitrophenol)-β-acetylethyl]-4-hydroxycoumarin;3-(α-<em>p</em>-Nitrophenyl-β-acetylethyl)-4-hydroxycoumarin;Sincoumar;Sinthrom;Sintrom;Syncoumar;Syncumar;Syntrom;Nitrowarfarin;3-[α-(4′-Nitrophenyl)-β-acetylethyl]-4-hydroxycoumarin;3-[2-Acetyl-1-(<em>p</em>-nitrophenyl)ethyl]-4-hydroxycoumarin;4-Hydroxy-2-oxo-3-[3-oxo-1-(4-nitrophenyl)butyl]-2<em>H</em>-chromene;Sinkumar;Ascumar;G 23350;Zotil;Sinthrome;Sintroma;Trombostop;(±)-Acenocoumarin;(±)-Acenocoumarol;(±)-<em>p</em>-Nitrowarfarin;(±)-Nicoumalone;<span class=\"text-smallcaps\">DL</span>-3-(α-Acetonyl-4-nitrobenzyl)-4-hydroxycoumarin;Sintrom Mitis;Minisintrom;Acitrom;Acenokumarol;Acebron;Neo-Sintrom;MeSH ID: D000074",
    "duplicated_cas_no": "70897-81-3",
    "SMILES": "C(CC(C)=O)(C1=C(O)C=2C(OC1=O)=CC=CC2)C3=CC=C(N(=O)=O)C=C3",
    "meta_data": {
        "InChI": "InChI=1S/C19H15NO6/c1-11(21)10-15(12-6-8-13(9-7-12)20(24)25)17-18(22)14-4-2-3-5-16(14)26-19(17)23/h2-9,15,22H,10H2,1H3",
        "InChIKey": null,
        "Canonical SMILES": "O=C1OC=2C=CC=CC2C(O)=C1C(C3=CC=C(C=C3)N(=O)=O)CC(=O)C",
        "Molecular Formula": "C<sub>19</sub>H<sub>15</sub>NO<sub>6</sub>",
        "Molecular Mass": "353.33",
        "Melting Point": "196-199 °C"
    }
}