{
    "cas_no": "4714-67-4",
    "key_name": "4-Aminobenzenecarbothioamide",
    "cn_name": "4-氨基硫代苯甲酰胺;",
    "alternate_name": "Benzenecarbothioamide, 4-amino-;Benzamide, <em>p</em>-aminothio-;4-Aminobenzenecarbothioamide;<em>p</em>-Aminobenzothiamide;4-Aminothiobenzamide;NSC 18337",
    "duplicated_cas_no": "",
    "SMILES": "C(N)(=S)C1=CC=C(N)C=C1",
    "meta_data": {
        "InChI": "InChI=1S/C7H8N2S/c8-6-3-1-5(2-4-6)7(9)10/h1-4H,8H2,(H2,9,10)",
        "InChIKey": null,
        "Canonical SMILES": "S=C(N)C1=CC=C(N)C=C1",
        "Molecular Formula": "C<sub>7</sub>H<sub>8</sub>N<sub>2</sub>S",
        "Molecular Mass": "152.22",
        "Melting Point": "188 °C"
    }
}