{
    "cas_no": "4584-46-7",
    "key_name": "Dimethylaminoethyl chloride hydrochloride",
    "cn_name": "二甲氨基氯乙烷盐酸;",
    "alternate_name": "Ethanamine, 2-chloro-<em>N</em>,<em>N</em>-dimethyl-, hydrochloride (1:1);Ethylamine, 2-chloro-<em>N</em>,<em>N</em>-dimethyl-, hydrochloride;Ethanamine, 2-chloro-<em>N</em>,<em>N</em>-dimethyl-, hydrochloride;(β-Chloroethyl)dimethylamine-hydrochloride;<em>N</em>,<em>N</em>-Dimethyl-<em>N</em>-(2-chloroethyl)amine hydrochloride;2-Chloro-<em>N</em>,<em>N</em>-dimethylethylamine hydrochloride;Chloro(dimethylamino)ethane hydrochloride;1-Chloro-2-(dimethylamino)ethane hydrochloride;Dimethylaminoethyl chloride hydrochloride;2-(Dimethylamino)ethyl chloride hydrochloride;2-Chloro-<em>N</em>,<em>N</em>-dimethylethanamine hydrochloride;β-Dimethylaminoethyl chloride hydrochloride;Chloroethyldimethylamine hydrochloride;(2-Chloroethyl)dimethylamine hydrochloride;2-Chloroethyldimethylamine monohydrochloride;<em>N</em>-(2-Chloroethyl)-<em>N</em>,<em>N</em>-dimethylammonium chloride;2-Chloroethyldimethylammonium chloride;2-(Dimethylamino)chloroethane hydrochloride;2-(<em>N</em>,<em>N</em>-Dimethylamino)ethyl chloride hydrochloride;<em>N</em>-(2-Chloroethyl)dimethylamine hydrochloride;<em>N</em>,<em>N</em>-Dimethyl-2-chloroethylamine hydrochloride;2-Chloroethyl-<em>N</em>,<em>N</em>-dimethylamine hydrochloride;1-Chloro-2-<em>N</em>,<em>N</em>-dimethylaminoethane hydrochloride;1-(Dimethylamino)-2-chloroethane hydrochloride;<em>N</em>,<em>N</em>-Dimethyl-2-chloroethanamine hydrochloride;1-Chloro-2-dimethylaminoethane monohydrochloride;<em>N</em>-(2-Chloroethyl)-<em>N</em>,<em>N</em>-dimethylamine hydrochloride;β-Chloroethyl-<em>N</em>,<em>N</em>-dimethylamine hydrochloride;2-Chloro-<em>N</em>,<em>N</em>-dimethylethane amine hydrochloride;2-Chloro-<em>N</em>,<em>N</em>-dimethylethan-1-amine hydrochloride",
    "duplicated_cas_no": "",
    "SMILES": "C(N(C)C)CCl.Cl",
    "meta_data": {
        "InChI": "InChI=1S/C4H10ClN.ClH/c1-6(2)4-3-5;/h3-4H2,1-2H3;1H",
        "InChIKey": null,
        "Canonical SMILES": "Cl.ClCCN(C)C",
        "Molecular Formula": "C<sub>4</sub>H<sub>10</sub>ClN.ClH",
        "Molecular Mass": "",
        "Melting Point": "201 °C"
    }
}