{
    "cas_no": "2842-44-6",
    "key_name": "<em>N</em>-Methyl-<em>N</em>-(2-hydroxyethyl)-<em>p</em>-toluidine",
    "cn_name": null,
    "alternate_name": "Ethanol, 2-[methyl(4-methylphenyl)amino]-;Ethanol, 2-(<em>N</em>-methyl-<em>p</em>-toluidino)-;2-[Methyl(4-methylphenyl)amino]ethanol;2-(<em>N</em>-Methyl-<em>N</em>-4-tolylamino)ethanol;<em>N</em>-(2-Hydroxyethyl)-<em>N</em>-methyl-<em>p</em>-toluidine;FirstCure MHPT;<em>N</em>-Methyl-<em>N</em>-(2-hydroxyethyl)-<em>p</em>-toluidine;2-[Methyl(4-methylphenyl)amino]ethan-1-ol;2-(Methyl-<em>p</em>-tolylamino)ethanol;2-(<em>N</em>,4-Dimethylanilino)ethanol;2-(Methyl(<em>p</em>-tolyl)amino)ethanol",
    "duplicated_cas_no": "",
    "SMILES": "N(CCO)(C)C1=CC=C(C)C=C1",
    "meta_data": {
        "InChI": "InChI=1S/C10H15NO/c1-9-3-5-10(6-4-9)11(2)7-8-12/h3-6,12H,7-8H2,1-2H3",
        "InChIKey": null,
        "Canonical SMILES": "OCCN(C1=CC=C(C=C1)C)C",
        "Molecular Formula": "C<sub>10</sub>H<sub>15</sub>NO",
        "Molecular Mass": "165.23",
        "Boiling Point": "152-154 °C @ Press: 10 Torr"
    }
}