{
    "cas_no": "32911-62-9",
    "key_name": "Withanolide A",
    "cn_name": null,
    "alternate_name": "Ergosta-2,24-dien-26-oic acid, 6,7-epoxy-5,20,22-trihydroxy-1-oxo-, δ-lactone, (5α,6α,7α,22<em>R</em>)-;5α-Ergosta-2,24-dien-26-oic acid, 6α,7α-epoxy-5,20,22-trihydroxy-1-oxo-, δ-lactone, (22<em>R</em>)-;6,7-Epoxy-1<em>H</em>-cyclopenta[<em>a</em>]phenanthrene, ergosta-2,24-dien-26-oic acid deriv.;5,20α-Dihydroxy-6α,7α-epoxy-1-oxowitha-2,24-dienolide;Withaniol;Withanolide A;5α,20α<sub>F</sub>(<em>R</em>)-Dihydroxy-6α,7α-epoxy-1-oxowitha-2,24-dienolide",
    "duplicated_cas_no": "2390452-42-1;2390452-66-9",
    "SMILES": "C[C@@]12[C@@]3([C@@]([C@]4([C@](O4)([C@@]1(O)CC=CC2=O)[H])[H])([C@]5([C@](C)(CC3)[C@@]([C@@](C)(O)[C@]6(CC(C)=C(C)C(=O)O6)[H])(CC5)[H])[H])[H])[H]",
    "meta_data": {
        "InChI": "InChI=1S/C28H38O6/c1-14-13-20(33-24(30)15(14)2)27(5,31)18-9-8-16-21-17(10-12-25(16,18)3)26(4)19(29)7-6-11-28(26,32)23-22(21)34-23/h6-7,16-18,20-23,31-32H,8-13H2,1-5H3/t16-,17-,18-,20+,21-,22-,23-,25-,26-,27+,28-/m0/s1",
        "InChIKey": null,
        "Canonical SMILES": "O=C1OC(CC(=C1C)C)C(O)(C)C2CCC3C4C5OC5C6(O)CC=CC(=O)C6(C)C4CCC32C",
        "Molecular Formula": "C<sub>28</sub>H<sub>38</sub>O<sub>6</sub>",
        "Molecular Mass": "470.60",
        "Melting Point": "305 °C (decomp)"
    }
}