{
    "cas_no": "1592-31-0",
    "key_name": "1,4-Bis(dibromomethyl)benzene",
    "cn_name": "α,α,α,α-四溴对二甲苯;",
    "alternate_name": "Benzene, 1,4-bis(dibromomethyl)-;<em>p</em>-Xylene, α,α,α′,α′-tetrabromo-;1,4-Bis(dibromomethyl)benzene;ω,ω,ω′,ω′-Tetrabromo-<em>p</em>-xylene;α,α,α′,α′-Tetrabromo-<em>p</em>-xylene;NSC 30633;1,4-Di(dibromomethyl)benzene",
    "duplicated_cas_no": "",
    "SMILES": "C(Br)(Br)C1=CC=C(C(Br)Br)C=C1",
    "meta_data": {
        "InChI": "InChI=1S/C8H6Br4/c9-7(10)5-1-2-6(4-3-5)8(11)12/h1-4,7-8H",
        "InChIKey": null,
        "Canonical SMILES": "BrC(Br)C1=CC=C(C=C1)C(Br)Br",
        "Molecular Formula": "C<sub>8</sub>H<sub>6</sub>Br<sub>4</sub>",
        "Molecular Mass": "421.75",
        "Melting Point": "169 °C"
    }
}