{
    "cas_no": "1008-91-9",
    "key_name": "1-(4-Pyridyl)piperazine",
    "cn_name": "1-(4-吡啶基)哌嗪;",
    "alternate_name": "Piperazine, 1-(4-pyridinyl)-;Piperazine, 1-(4-pyridyl)-;1-(4-Pyridinyl)piperazine;1-(4-Pyridyl)piperazine;<em>N</em>-(4-Pyridyl)piperazine;<em>N</em>-(Pyridin-4-yl)piperazine;4-(Pyridin-4-yl)piperazine;4-(4-Pyridyl)piperazine;1-(4-pyridyl)piperazine;1-(Pyridin-4-yl)piperazine",
    "duplicated_cas_no": "",
    "SMILES": "C=1(C=CN=CC1)N2CCNCC2",
    "meta_data": {
        "InChI": "InChI=1S/C9H13N3/c1-3-10-4-2-9(1)12-7-5-11-6-8-12/h1-4,11H,5-8H2",
        "InChIKey": null,
        "Canonical SMILES": "N=1C=CC(=CC1)N2CCNCC2",
        "Molecular Formula": "C<sub>9</sub>H<sub>13</sub>N<sub>3</sub>",
        "Molecular Mass": "163.22",
        "Melting Point": "140 °C"
    }
}