{
    "cas_no": "35944-64-0",
    "key_name": "3-Iodo-4-methylbenzenamine",
    "cn_name": null,
    "alternate_name": "Benzenamine, 3-iodo-4-methyl-;3-Iodo-4-methylbenzenamine;3-Iodo-<em>p</em>-toluidine;4-Amino-2-iodotoluene;3-Iodo-4-methylaniline;3-Iodo-4-methylphenylamine",
    "duplicated_cas_no": "",
    "SMILES": "IC1=C(C)C=CC(N)=C1",
    "meta_data": {
        "InChI": "InChI=1S/C7H8IN/c1-5-2-3-6(9)4-7(5)8/h2-4H,9H2,1H3",
        "InChIKey": null,
        "Canonical SMILES": "IC1=CC(N)=CC=C1C",
        "Molecular Formula": "C<sub>7</sub>H<sub>8</sub>IN",
        "Molecular Mass": "233.05",
        "Melting Point": "40 °C"
    }
}