{
    "cas_no": "871-84-1",
    "key_name": "1,7-Octadiyne",
    "cn_name": "1,7-辛二炔;1，7-辛二炔;",
    "alternate_name": "1,7-Octadiyne;NSC 35135;Octa-1,7-diyne",
    "duplicated_cas_no": "",
    "SMILES": "C(CCC#C)CC#C",
    "meta_data": {
        "InChI": "InChI=1S/C8H10/c1-3-5-7-8-6-4-2/h1-2H,5-8H2",
        "InChIKey": null,
        "Canonical SMILES": "C#CCCCCC#C",
        "Molecular Formula": "C<sub>8</sub>H<sub>10</sub>",
        "Molecular Mass": "106.17",
        "Boiling Point": "135.5 °C"
    }
}