{
    "cas_no": "618-40-6",
    "key_name": "1-Methyl-1-phenylhydrazine",
    "cn_name": "1-甲基-1-苯肼;",
    "alternate_name": "Hydrazine, 1-methyl-1-phenyl-;1-Methyl-1-phenylhydrazine;<em>N</em>-Methyl-<em>N</em>-phenylhydrazine;<em>N</em>-Phenyl-<em>N</em>-methylhydrazine;α-Methyl-α-phenylhydrazine;1-Methylphenylhydrazine;NSC 525518",
    "duplicated_cas_no": "",
    "SMILES": "N(C)(N)C1=CC=CC=C1",
    "meta_data": {
        "InChI": "InChI=1S/C7H10N2/c1-9(8)7-5-3-2-4-6-7/h2-6H,8H2,1H3",
        "InChIKey": null,
        "Canonical SMILES": "NN(C=1C=CC=CC1)C",
        "Molecular Formula": "C<sub>7</sub>H<sub>10</sub>N<sub>2</sub>",
        "Molecular Mass": "122.17",
        "Boiling Point": "228 °C"
    }
}