{
    "cas_no": "4248-19-5",
    "key_name": "1,1-Dimethylethyl carbamate",
    "cn_name": "氨基甲酸叔丁酯;",
    "alternate_name": "Carbamic acid, 1,1-dimethylethyl ester;Carbamic acid, <em>tert</em>-butyl ester;1,1-Dimethylethyl carbamate;<em>tert</em>-Butyl carbamate;<em>O</em>-<em>tert</em>-Butyl carbamate;NSC 131089;Carbamic acid tert-butyl ester",
    "duplicated_cas_no": "",
    "SMILES": "O(C(C)(C)C)C(N)=O",
    "meta_data": {
        "InChI": "InChI=1S/C5H11NO2/c1-5(2,3)8-4(6)7/h1-3H3,(H2,6,7)",
        "InChIKey": null,
        "Canonical SMILES": "O=C(OC(C)(C)C)N",
        "Molecular Formula": "C<sub>5</sub>H<sub>11</sub>NO<sub>2</sub>",
        "Molecular Mass": "117.15",
        "Melting Point": "105-108 °C"
    }
}