{
    "cas_no": "33422-35-4",
    "key_name": "Ethyl 3-oxo-2-piperazineacetate",
    "cn_name": null,
    "alternate_name": "2-Piperazineacetic acid, 3-oxo-, ethyl ester;Ethyl 3-oxo-2-piperazineacetate;Ethyl 2-(3-oxopiperazin-2-yl)acetate;3-Oxopiperazin-2-ylacetic acid ethyl ester",
    "duplicated_cas_no": "",
    "SMILES": "C(C(OCC)=O)C1C(=O)NCCN1",
    "meta_data": {
        "InChI": "InChI=1S/C8H14N2O3/c1-2-13-7(11)5-6-8(12)10-4-3-9-6/h6,9H,2-5H2,1H3,(H,10,12)",
        "InChIKey": null,
        "Canonical SMILES": "O=C(OCC)CC1NCCNC1=O",
        "Molecular Formula": "C<sub>8</sub>H<sub>14</sub>N<sub>2</sub>O<sub>3</sub>",
        "Molecular Mass": "186.21",
        "Melting Point": "109-110 °C"
    }
}