{
    "cas_no": "22996-24-3",
    "key_name": "4-Methyl-2-nitrobenzenemethanol",
    "cn_name": null,
    "alternate_name": "Benzenemethanol, 4-methyl-2-nitro-;Benzyl alcohol, 4-methyl-2-nitro-;4-Methyl-2-nitrobenzenemethanol;4-Methyl-2-nitrobenzyl alcohol;(4-Methyl-2-nitrophenyl)methanol;2-Nitro-4-methylbenzyl alcohol",
    "duplicated_cas_no": "",
    "SMILES": "N(=O)(=O)C1=C(CO)C=CC(C)=C1",
    "meta_data": {
        "InChI": "InChI=1S/C8H9NO3/c1-6-2-3-7(5-10)8(4-6)9(11)12/h2-4,10H,5H2,1H3",
        "InChIKey": null,
        "Canonical SMILES": "O=N(=O)C1=CC(=CC=C1CO)C",
        "Molecular Formula": "C<sub>8</sub>H<sub>9</sub>NO<sub>3</sub>",
        "Molecular Mass": "167.16",
        "Melting Point": "86-87 °C"
    }
}