{
    "cas_no": "3403-47-2",
    "key_name": "5-Amino-2-methoxybenzoic acid",
    "cn_name": null,
    "alternate_name": "Benzoic acid, 5-amino-2-methoxy-;<em>o</em>-Anisic acid, 5-amino-;5-Amino-2-methoxybenzoic acid;3-Carboxy-4-methoxyaniline;5-Amino-<em>o</em>-anisic acid",
    "duplicated_cas_no": "",
    "SMILES": "C(O)(=O)C1=C(OC)C=CC(N)=C1",
    "meta_data": {
        "InChI": "InChI=1S/C8H9NO3/c1-12-7-3-2-5(9)4-6(7)8(10)11/h2-4H,9H2,1H3,(H,10,11)",
        "InChIKey": null,
        "Canonical SMILES": "O=C(O)C1=CC(N)=CC=C1OC",
        "Molecular Formula": "C<sub>8</sub>H<sub>9</sub>NO<sub>3</sub>",
        "Molecular Mass": "167.16",
        "Melting Point": "153-154 °C"
    }
}