{
    "cas_no": "6232-92-4",
    "key_name": "2-Amino-5-nitrobenzimidazole",
    "cn_name": null,
    "alternate_name": "1<em>H</em>-Benzimidazol-2-amine, 6-nitro-;Benzimidazole, 2-amino-5-nitro-;1<em>H</em>-Benzimidazol-2-amine, 5-nitro-;Benzimidazole, 2-amino-5(<em>or</em> 6)-nitro-;6-Nitro-1<em>H</em>-benzimidazol-2-amine;2-Amino-5-nitrobenzimidazole;5-Nitro-2-benzimidazolamine;NSC 287065;2-Amino-6-nitrobenzimidazole;5-Nitro-1<em>H</em>-benzimidazol-2-amine",
    "duplicated_cas_no": "89843-44-7",
    "SMILES": "N(=O)(=O)C=1C=C2C(=CC1)N=C(N)N2",
    "meta_data": {
        "InChI": "InChI=1S/C7H6N4O2/c8-7-9-5-2-1-4(11(12)13)3-6(5)10-7/h1-3H,(H3,8,9,10)",
        "InChIKey": null,
        "Canonical SMILES": "O=N(=O)C=1C=CC=2N=C(N)NC2C1",
        "Molecular Formula": "C<sub>7</sub>H<sub>6</sub>N<sub>4</sub>O<sub>2</sub>",
        "Molecular Mass": "178.15",
        "Melting Point": "222-223 °C (decomp)"
    }
}