{
    "uri": "substance/pt/8012951",
    "rn": "8012-95-1",
    "name": "Paraffin oils",
    "images": [],
    "inchi": "",
    "inchiKey": "",
    "smile": "",
    "canonicalSmile": "",
    "molecularFormula": "Unspecified",
    "molecularMass": "",
    "experimentalProperties": [
        {
            "name": "Boiling Point",
            "property": "360 °C",
            "sourceNumber": 1
        },
        {
            "name": "Density",
            "property": "0.875-0.905 g/cm³",
            "sourceNumber": 1
        }
    ],
    "propertyCitations": [
        {
            "docUri": "",
            "sourceNumber": 1,
            "source": "Hazardous Substances Data Bank data were obtained from the National Library of Medicine (US)"
        }
    ],
    "synonyms": [
        "Paraffin oils",
        "Paraffin oil",
        "Mineral oil, paraffinic",
        "Primol D",
        "Ultrol 7",
        "Sunpar 150",
        "Uvasol",
        "Flexon 845",
        "Irgawax 361",
        "Shellflex 310",
        "Drakeol 35",
        "Manol",
        "Peneteck",
        "Mineral oils, paraffinic",
        "Paraffins",
        "Petrolatum, liq.",
        "White mineral oil",
        "Liquid petrolatum",
        "Vaseline oil",
        "BP 620",
        "Caloria HT 43",
        "Daphne FP 50",
        "Crystol 325",
        "Essobayol 90",
        "Fractol A",
        "Gulf 2210",
        "Irgawax 360",
        "ISO P 370",
        "Marcol 70",
        "Mobiltherm 603",
        "Nujol",
        "Paraflex HT 320",
        "Primol 355",
        "Prorex 33",
        "R 1890",
        "Rubrex 150",
        "Savol",
        "Shellflex 68",
        "Shellflex 131",
        "Shellflex 214NC",
        "Shellsol TD",
        "Sonic Process Oil P 200",
        "Sontex 55NF",
        "Sunflex 110",
        "Sunflex 3340",
        "Sun Oil 7N",
        "Sunpar",
        "Sunpar 2280",
        "Thermia C",
        "Transcal 65",
        "Transcal N",
        "Tref 20",
        "Uvasol (hydrocarbon)",
        "Magnaflux",
        "MagieSol 44",
        "RTEmp",
        "Smoil P 55",
        "Smoil P 350",
        "Hydrocarbon oils, alkane or paraffin",
        "P 80",
        "PW 90",
        "Arcoprime 200",
        "KP 30 (paraffin)",
        "P 100",
        "P 350",
        "KP 30",
        "EM 80",
        "Klearol",
        "Diana PW 90",
        "Smoil PS 260",
        "Smoil P 350P",
        "Smoil P 80",
        "Diana PW 32",
        "P 15 (oil)",
        "Exxsol D 80",
        "Synthol 20",
        "Waksol K",
        "Unico H 150",
        "P 300 (oil)",
        "Exxsol D 100",
        "Ondina 17",
        "BP Energol WM 2",
        "Faxam 22",
        "Ondina 68",
        "MagieSol 47",
        "Diana PW-LV",
        "Tufflo 30",
        "Parex II",
        "Daphne CP 15N",
        "Smoil P 70",
        "Process oils",
        "TE 14",
        "KP 15",
        "Carnation 70",
        "P 400 (oil)",
        "Shellsol 71",
        "P 400",
        "Petrolatum oil",
        "Shellflex 491JY",
        "Diana PS 32",
        "Smoil P 260",
        "P 200 (oil)",
        "Plaxene 6110",
        "P 200",
        "Hicol K 350",
        "Bayol 72",
        "Lacquer Diluent 6",
        "P 15",
        "P 300",
        "KP 100",
        "Fluid paraffins",
        "Catenex P 491",
        "Crystol 70",
        "Exxsol D 100-140",
        "Avilub RS",
        "Witco 300",
        "Promanal",
        "Parabase",
        "Paraflex HT 10",
        "Arcoprime 350",
        "Exxsol D 110",
        "ISOVG 32",
        "Daphne AL 35",
        "D 110",
        "Sontex 150",
        "Sontex 55",
        "Moresco-White",
        "Acme S 105",
        "Stanohl 52",
        "Arcoprime 70",
        "Arcoprime 300",
        "Arcoprime 400",
        "P 35 (oil)",
        "P 60 (oil)",
        "P 150",
        "Sapnar 2210",
        "CP 40",
        "Shellsol D 60",
        "Drakeol 9",
        "Ondina EL",
        "Sontex 100",
        "Moresco-White P 70",
        "Drakeol 34",
        "Sirius 85",
        "M 85 (oil)",
        "M 85",
        "Nisseki Komorex EL 30",
        "Exxsol D 40",
        "Hyper White 350",
        "Paraffin",
        "P 60",
        "P 500",
        "P 35",
        "CP 40 (oil)",
        "Exxsol D 30",
        "Ondina 15",
        "ROL-OB 55AT",
        "Escaid 90",
        "Witco 40",
        "Witco 70",
        "Freezene 100",
        "Nopco 1407",
        "Shellsol D 70",
        "Iberpesa T 601",
        "Daphne KP 100",
        "Shellflex 210",
        "Shellsol T",
        "Revigum H 14",
        "Shellsol 2037",
        "Shellsol 2358",
        "Tufflo 6016",
        "Nisseki Hi-White 70",
        "Whiterex 334",
        "Nisseki Hi-White 350",
        "Hicol K 280",
        "Hicol K 140",
        "Moresco-White P 260",
        "350S",
        "Atpolan",
        "Additol VXW 4932",
        "Exxsol D 130",
        "Smoil P 200",
        "Purex 400",
        "Peptoil",
        "Crystol 322",
        "Tysolv",
        "Smoil P 150",
        "Fukkol Process Oil P 100",
        "Fukkol Process Oil P 200",
        "Fukkol Process Oil P 400",
        "Komorex EL 30",
        "Flexon 865",
        "Enerpar 1903",
        "Enerpar M 1930",
        "Lacolene",
        "Pale Oil 60",
        "Marcol 72",
        "Marcol 425",
        "MCW 32",
        "MCW 8",
        "MCW 380",
        "Marcol 82",
        "EZL 600",
        "EZL 550",
        "Diana Process Oil PW 90",
        "Diana PS 90",
        "Stanohl 66",
        "BVM 100N",
        "Exxsol D 60",
        "Turbinol 32",
        "Winog 70",
        "Exxysn",
        "Catenex 956",
        "EZL 675",
        "Sunpar 110",
        "100 Solvent",
        "NS Clean 100",
        "Ondina G 33",
        "Actrel 4493L",
        "Actrel 3360L",
        "Actrel 3349L",
        "PS 32",
        "Liquid Parrafin No. 70",
        "CP 50S",
        "KP 32",
        "Daphne KP 32",
        "Moresco-White P 350P",
        "Daphne CP 50S",
        "CP 15N",
        "Pionier 2024",
        "Diana Solvent 2",
        "Crystol 352",
        "Daphne 32N",
        "Parol 70",
        "Tufflo 6026",
        "Sirukoru P 70",
        "White 350",
        "Exxsol D 140",
        "Exxsol D 100S",
        "Plaxene 190",
        "Enerpar 13",
        "Hydrorafinat H 5",
        "S 40",
        "Paraffin S 40",
        "Sunpar 400",
        "Crystol J 352",
        "Gulf 150E",
        "Cantenex SM 925",
        "Catenex SM 925",
        "Sunpar LW 003",
        "Catenex OR",
        "Agrirob",
        "Tufflo 10",
        "Mineral Seal Oil",
        "Duoprime 400",
        "70S",
        "Kyowazol C 1200",
        "70S (paraffin)",
        "Drakeol 7",
        "Paraffin 40S",
        "40S",
        "Sonic MTF 120",
        "40S (paraffin)",
        "F 9807",
        "Fina F 9807",
        "Stanohl 40",
        "Sunflex 2280",
        "Shell 8703",
        "HC 370",
        "Sunpar LW 107",
        "Inland 19",
        "Crystol 202",
        "PW 32",
        "Whiterex 309",
        "Paraffin 26",
        "Paraffin 120",
        "Newsol",
        "Atplus 411F Oil",
        "MC Oil P 22",
        "Moresco-White P 350",
        "Parprol 22",
        "SunSpray Ultra-Fine Spray Oil",
        "Quendilla 19",
        "Catenex P 941",
        "Whiterex 335",
        "Smoil P 300",
        "Osco Baby Oil",
        "Saraline 200",
        "Paraffin 140",
        "Citgo 340 Neutral",
        "MT 60",
        "Diana PX 8",
        "Primol 542",
        "Kermac 500T",
        "CP 68N",
        "Process P 200",
        "Cypar 7",
        "Cypar 9",
        "Crystol 172",
        "Flexon 885",
        "Crystol J 262",
        "Daphne KP 15",
        "Coker gatch oil",
        "Ondina 7047",
        "Enerpar M 2520",
        "PL 380",
        "Clenvex AS 58",
        "Shellsol IC 1",
        "Stanohl LP 35",
        "PL 500",
        "Ipsol H",
        "PL 500 (paraffin)",
        "Sunspray oil",
        "Sunpar 115",
        "100S",
        "150S",
        "260S",
        "Moresco-White P 55",
        "Moresco-White P 120",
        "Moresco-White P 200",
        "Moresco-White P 300",
        "Whiterex 2210",
        "100S (paraffin)",
        "Duoprime 90",
        "Duoprime 70",
        "Duoprime 200",
        "Duoprime 500",
        "Duoprime 350",
        "LP 150",
        "Abion E",
        "Surueto 24",
        "Sankei Tick",
        "Essotherm 500",
        "Moresco-White P 80",
        "Moresco-White P 60",
        "Moresco-White P 250",
        "Shirukoru P 70",
        "Stanohl 69",
        "Waxrex 79",
        "Promor 626",
        "KRC 103",
        "Ondina 32",
        "LP 170F",
        "Lubinol",
        "Drakeol",
        "Drakeol 33",
        "Drakeol 15",
        "Drakeol 13",
        "Drakeol 10",
        "Drakeol 32",
        "Drakeol 24",
        "Drakeol 21",
        "Drakeol 19",
        "Drakeol 6VR",
        "Drakeol 10B",
        "Golden Bear Oil 1111",
        "Golden Bear Oil",
        "Bonide",
        "Ondina N 68",
        "Daphne KP 68",
        "KP 68",
        "Diana NU 80",
        "Daphne KP 32U",
        "LIAV 110",
        "P 830",
        "Daphne CP 68N",
        "PW 360",
        "55S",
        "Biobase 300",
        "IPAR 3",
        "Sirius M 85",
        "HC 250",
        "HC-FX 50",
        "Sundex 840",
        "BJ Oil",
        "HC 250 (solvent)",
        "HW 350",
        "HW 350 (paraffin)",
        "P 430",
        "PS 90",
        "Conosol C 200",
        "PM 90",
        "Diana PM 90",
        "Sunpar L 104",
        "Britol 20T",
        "Thiotec",
        "Pharma 240B/HV6TI",
        "M 1930",
        "60S",
        "Paraffin 60S",
        "Sunpar LW 103",
        "Sunpar LW 104",
        "Sunpar LW 105",
        "Sunpar LW 110",
        "60S (paraffin)",
        "Hicol K 230",
        "Crystol J 52",
        "Crystol J 72",
        "Crop oil",
        "Liquid Paraffin 60S",
        "Synfluid PAO 401",
        "Synfluid PAO 601",
        "Synfluid PAO 801",
        "Ampol C<sub>15</sub> CPD",
        "Ampol C<sub>23</sub> DC-Tron NR",
        "FIH 6",
        "PL 380 (paraffin)",
        "Diana Process Oil PS 32",
        "Moresco-Viores U 8",
        "Spray oil 10",
        "Spray oil 13",
        "Spray oil 15",
        "Spray oil 22",
        "Exxon 100N",
        "Chevron 100R",
        "SunSpray 11N",
        "BP Energol GR-XP 220",
        "CEC-RL 175/3",
        "KZ oil",
        "Citrole",
        "Sunpar 150LW",
        "JMS Stylet-Oil",
        "SunSpray UltraFine",
        "Sunpar Oil 120",
        "Dicera 11833",
        "Sunpar Oil 110",
        "Sunpar Oil 115",
        "ED 320H",
        "KP 6002",
        "KP 6005",
        "KP 6010",
        "KP 6025",
        "Exxsol D 70",
        "Hiwhite 70",
        "SB 350",
        "Flexon 815",
        "Smoil P 60",
        "Crystol 52",
        "Crystol 102",
        "Crystol 72",
        "Sunspray 7E sun oil",
        "Exxpar 252",
        "Diana Process Oil PW 32",
        "PennzUltra 1113",
        "PennzUltra 1122",
        "PennzUltra 1144",
        "PennzUltra 1199",
        "Brian R-N",
        "MagieSol M 47",
        "MC Oil W 32",
        "Drakeol 10LT",
        "E-C 100N",
        "CP 14N",
        "Hicol K 300",
        "Hicol K 160",
        "Rudol",
        "Crystol 542",
        "Solvent 100",
        "Redesmol 300",
        "Mobilcer 115",
        "Mobilcer 730",
        "Ondina G 34",
        "Freezene 200",
        "Paralux 6001R",
        "Klearol 50",
        "Hicol M 352",
        "Smoil P 40",
        "Puredrill IA 35",
        "Paralux 6001",
        "Drakeol 34NF",
        "Drakeol 7NF",
        "DW 6266",
        "DW 7580",
        "DW 5052",
        "LP 350",
        "Exxsol D 160",
        "Exxsol D 95",
        "Moresco-White P 40",
        "Solvent M Type O",
        "Supasol LA 35",
        "Exchange",
        "Sol EC",
        "Capl 1",
        "Capl 2",
        "Kemesol",
        "Bio-Dux",
        "PW 3080",
        "P 830 (oil)",
        "Moresco-White P 500",
        "Diana Process Oil PS 430",
        "Diana PS 430",
        "PS 430",
        "Liquid paraffin",
        "Edelex SM 925",
        "TPS 2250",
        "HMVIP 30",
        "Smoil P 100",
        "PS 260",
        "Shellflex 6371",
        "Crystol J 142",
        "Catenex SNR",
        "Diana Process Oil PW 380",
        "Diana PW 380",
        "PW 380",
        "Bayol 82",
        "Miclube 1460",
        "Hicol M 172",
        "M 172",
        "Barrel Process Oil P 2200",
        "Barrel Process Oil P 10000",
        "Flexon 819",
        "Flexon 848",
        "Pureflex SNH 100SP",
        "SNH 100SP",
        "Moresco-White P 100",
        "Moresco-White P 150",
        "VivaTec 200",
        "VivaTec 500",
        "Superla 35",
        "Treol",
        "Versapol GP 446",
        "Daphne Oil CP 68N",
        "SP 83",
        "Nikko White N 10",
        "D 70",
        "Plastol 355",
        "PT 32",
        "Fixaoil",
        "Markol 82",
        "Lucant 360",
        "Behran 840",
        "Plaxene 185",
        "Drakesol 260",
        "AES 150",
        "Torilis 7200",
        "Drakeol 600",
        "FBK Oil RO 100",
        "Texatherm 46",
        "Parax 40K3",
        "Crystol N 72",
        "D 95",
        "D 130",
        "Exxsol D 200",
        "Hicol K 250",
        "Exxsol D 220/230",
        "Jomo Process P 500",
        "Cosmo Purespin G",
        "Cosmo Purespin D",
        "Process NC 140",
        "NC 140",
        "KP 6035",
        "LP 70",
        "Finavestan A 80B",
        "LP 70 (solvent)",
        "Super Oil N 100",
        "XLD 80",
        "Paraffin 60",
        "Crystol N 352",
        "Diana Fresia P 430",
        "Sunpar 150M",
        "Drakeol Supreme",
        "Daphne CP 68",
        "Diana Fresia PW 8",
        "Diana Fresia S 32",
        "Smoil P 500",
        "Ultra-Fine Oil",
        "Sunoco SN 70",
        "Sunoco CN 70",
        "Dalian SN 70",
        "Saf-T-Side",
        "Saraline 185",
        "Shell Vitrea 320",
        "Shell Vitrea 220",
        "COC",
        "Recosol P 212",
        "Daphne CP 12N",
        "Exxal D 60",
        "Exxal D 80",
        "Exxal D 110",
        "Shellsol 140/160",
        "NR 415 Spray Oil",
        "P 460",
        "Moresco-White P 85",
        "R.O.C.",
        "Drakeol 7LT-NF",
        "White Oil Broom 350",
        "7LT-NF",
        "PW 100",
        "Shellflex B",
        "Diana Process Oil PW 100",
        "Carnation",
        "Certrex 60",
        "Diana PW 100",
        "Primol N 382",
        "Octafoam",
        "PS 350S",
        "AF 400",
        "Primol 382",
        "Ondina 934",
        "W 260",
        "Superla No 7",
        "JOMO Process P 200",
        "Moresco-White MT 450",
        "KP 6030",
        "Hicol K 140N",
        "Winog 100",
        "JOMO Process P 300",
        "Stanlube 80",
        "Stanlube 60",
        "415 Oil",
        "Hicol M 202",
        "Syntack PA 95",
        "Diana Process Oil P 430",
        "Samic GA 1010",
        "Hydroseal GH",
        "Hydroseal G 400H",
        "Plastol 537",
        "Finavestan A 50B",
        "Cosmo Pure Flex",
        "Drakesol 260AT",
        "Kolex 320",
        "Sunspray 7N",
        "PKWF 6/9AP74",
        "Moresco-White P 70M",
        "Bayol 95",
        "Ondina 917",
        "PW 308",
        "Moresco-Viores U 6",
        "EDC 99DW",
        "Paraflex HT 3",
        "NP 200",
        "Syntack PA 100",
        "Lucant HC 180",
        "Elevast R 170",
        "LP 55",
        "Sipdrill 4/0",
        "Daphne Oil CP",
        "Drakeol 350",
        "Drakeol LT",
        "Banole",
        "Flavex 913",
        "NTK 400",
        "P 350P",
        "Cosmo White P 70",
        "Syntack P 470",
        "Super Oil Y 22",
        "KP 6020",
        "Cosmol (oil)",
        "Cosmol",
        "Hi-Soflon S 260",
        "Hydrowax 730",
        "Hydrowax 138",
        "Elevast R 120",
        "Elevast R 130",
        "Elevast R 150",
        "Elevast C 30",
        "Elevast C 70",
        "Elevast E 10",
        "Elevast E 20",
        "Michang P 3",
        "Catenex T",
        "Catenex S",
        "Banole HV",
        "Sunspray 6N",
        "Marcol N 172",
        "EP-POIL",
        "KL 1100",
        "P 70",
        "Catenex S 932",
        "E 340",
        "E 340 (paraffin)",
        "Exxon D 60",
        "Citation 70NY",
        "Daphne Oil KP 32",
        "Daphne Oil KP 100",
        "Paramil MES 15",
        "Tudalen 3909",
        "Puretol 10",
        "Catenex 946",
        "Rajol WP 70H",
        "Hicol M 72",
        "Solvent Oil 120",
        "Parprol 32",
        "VG 100",
        "Hyprene P 150BS",
        "Tudalen B 8014 Extra",
        "Tudalen B 8013",
        "80S",
        "SHD 30",
        "SHD 40",
        "SHD 65",
        "SHD 80",
        "Super Oil N 22",
        "Pioneer 2002",
        "Diana Process Oil PS 90",
        "Hi-Call K 350",
        "VivaTec 400",
        "Hiclean CF 50",
        "Hiclean CFK",
        "Turpesol",
        "Sanko 380S",
        "Oleo FC",
        "NP 200 (paraffin)",
        "Super Oil N 56",
        "Daphne Oil KP 68",
        "Paralux 2401",
        "Organic JMS Stylet-Oil",
        "V 500",
        "GQ-HVI Ib 500",
        "Diana Process Oil NR",
        "Super Oil N 320",
        "LP 350F",
        "KL 900",
        "D 80",
        "DC 350",
        "DE 69",
        "DY 36",
        "HB",
        "HB (paraffin)",
        "O-WO 2",
        "Moresco-White MT 80",
        "Moresco-White MT 260",
        "Moresco-White MT 40",
        "Puretol 550",
        "Process Oil NC 140",
        "Komorex H 30",
        "R 2291",
        "Moresco White MT 30P",
        "Diana Process Oil PW 32AH24",
        "Lamacit APM 520",
        "KL 900B",
        "G 400H",
        "Extensoil 51-24T",
        "Tudalen 1968",
        "Tolex RHT 70",
        "TBP 260",
        "Smoil PS 120",
        "Texpar 22",
        "Three Bond 3391",
        "Isocer NL",
        "Calpar 70",
        "High Flash Jet",
        "LSRD",
        "Kornoil Concentrate",
        "Atpolan 80EC",
        "PH 500",
        "Diana Fresia PW 90",
        "KD-P 50H",
        "VivaTec 700",
        "Timbersurf 90",
        "Catenex T 145",
        "n-Paraffin",
        "n-Paraffins",
        "Normal paraffin",
        "Normal paraffins",
        "N 250",
        "SHD 60",
        "SHD 70",
        "SHD 100",
        "SHD 110",
        "P 2280",
        "Perleam 18",
        "JOMO Process NC 140",
        "Saraline 185V",
        "Sunpure P 100",
        "D 60",
        "P 40",
        "Shellsol D 100",
        "Hi-Call K 230",
        "W 1900",
        "Cosmo Neutral 500",
        "Kixx PO 8",
        "Yubase 8",
        "Drakeol 5",
        "Crystal Plus 70T",
        "Kixx LP 600",
        "Kixx LP 2200",
        "Kixx White 150N",
        "Kixx White 220N",
        "Diana Process Oil PS 380",
        "Diana PS 380",
        "BZ 1",
        "Hicol K 290",
        "R 2280",
        "Hicol E 7",
        "N-Paraffin 1408",
        "Cactus Normal Paraffin YHNP",
        "Sunpar 1300",
        "Plaxene 5100",
        "S 579",
        "Sipdrill 2/0",
        "Exssol D 80",
        "PO 70N",
        "Exxsol D 120",
        "250SN",
        "PS 40 (white oil)",
        "T 16",
        "T 16 (paraffin)",
        "Hydrowax 140",
        "Hicol K 23",
        "Solvent oil S 200#",
        "Exxsol D 60S",
        "Solvent Oil S 200",
        "Exxsol",
        "Turmosynth VG",
        "D 90",
        "Normal Paraffin TS 6",
        "HL 100",
        "Diana Fureshia P 22",
        "K 140N",
        "K 160",
        "K 230",
        "Paracos KF 350",
        "Super Oil M-P 500S",
        "BFR 20",
        "PW 3801",
        "TW 330",
        "KEW-J 200",
        "D 160",
        "P 2286T",
        "P 90",
        "Carnation LP 70",
        "Ondina X 430E1002644",
        "P 600",
        "Phazol 35",
        "P 600 (paraffin)",
        "NP 330",
        "HT 10",
        "NovaSpec 2050",
        "Tudalen 12",
        "Octopus P Plus 3029",
        "NIMBUS",
        "Moresco P 40",
        "Peneteck LT",
        "Vivashield 8652",
        "Moresco-White P 240",
        "Lily 70",
        "P 2281",
        "Lubspar 2280",
        "Sun AG Oil",
        "Diana PW 32AH24",
        "Hydrowax 115",
        "P 2291",
        "neothiozole",
        "Sun AG 7N",
        "Macro 82",
        "Sun Oil 2280",
        "MP 100H",
        "PAO 300",
        "Sunpar 90",
        "Moresco-White P 70K",
        "Enspray N",
        "Enspray M",
        "Conoco 2500",
        "P 815707",
        "NO 380SP",
        "Shell Solvent GS 170",
        "PB 2251",
        "KF 550",
        "Cosmo SP 83",
        "Cosmo Pure Safety 68",
        "Cosmo Pure Safety 32",
        "Cosmo Pure Safety 22",
        "Process Oil 123",
        "Shell 123",
        "Smoyl <em>P</em> 350P",
        "Naftolen P 611",
        "831AA",
        "Sunpar 120",
        "BP crop oil",
        "HS 069",
        "Yubase 8J",
        "HBP 460",
        "Pionier 1535",
        "1968A",
        "Paramount 6001R",
        "Hansheng 2158",
        "Shellsol D 80",
        "M 352",
        "M 72",
        "NY 120",
        "T 145",
        "Moresco 60",
        "PM 300",
        "PM 300 (paraffin)",
        "Tolex RMO 70",
        "Fluid Genera 12",
        "Fluid Genera 9",
        "Genera 12",
        "Genera 9",
        "Kristol",
        "M14 Marcol 82",
        "Moresco White P 500P",
        "YB 6100",
        "Diana Process Oil K 350",
        "HBS-L 278",
        "Nypar 330",
        "LTP 500",
        "LAFT 810",
        "HP 6010",
        "RB 300P",
        "Tudalen 11",
        "Diala S 4ZX-I",
        "Process Oil P 100K",
        "Process Oil P 500S",
        "P 100K",
        "W 1900H",
        "Super Oil N 1000",
        "Super Oil N 150",
        "FOMI 550",
        "Fomi 550",
        "Sunpure LW 70",
        "P 6030",
        "P 6030 (paraffin)",
        "Rubitherm RT 18",
        "Rubitherm RT 15",
        "Phazol 18",
        "Market S 580",
        "Parol 80",
        "HP Elasto 215",
        "Catenex T 121",
        "T 1535",
        "FRDGBY 07",
        "300HV-S(J)",
        "IPOL 2300",
        "KP 500",
        "HV 300S(J)",
        "Kixx LUBO 2cSt",
        "Pionier 2261",
        "Crystal Plus 70FG",
        "Crystal Plus 500FG",
        "Moresco-White 350P",
        "Mobiltherm 610",
        "Moresco White 350P",
        "Michang P 2",
        "Chevron 100N",
        "DK 650",
        "Pharma 55",
        "Pionier 2071",
        "Tudalen 3036",
        "Diana Process Oil PW 1",
        "V 500 (paraffin oil)",
        "Paralux 60001",
        "LD 300",
        "Paramount 6001",
        "TC 300",
        "Silicol P 70",
        "Paraffin 350S",
        "Tudalen 3912B",
        "Hicol M 52",
        "Calpar 325",
        "Super Oil B 32",
        "Plaxene 25110",
        "P 5110",
        "RX 430",
        "Diana Process Oil TMPW 100",
        "TMPW 100",
        "KPO 50",
        "HP Elasto 245",
        "KF 350"
    ],
    "replacedRns": [
        "8015-59-6",
        "8033-89-4",
        "8038-04-8",
        "8039-14-3",
        "8039-75-6",
        "8043-78-5",
        "37231-69-9",
        "37232-05-6",
        "37232-06-7",
        "37232-07-8",
        "39290-23-8",
        "39296-25-8",
        "39355-08-3",
        "39355-09-4",
        "39355-35-6",
        "39464-77-2",
        "39464-78-3",
        "50935-85-8",
        "50935-95-0",
        "51004-58-1",
        "51109-96-7",
        "52012-27-8",
        "52012-28-9",
        "53028-74-3",
        "58391-38-1",
        "58615-80-8",
        "60327-80-2",
        "74870-90-9",
        "79956-36-8",
        "83046-05-3",
        "97048-20-9",
        "99551-14-1",
        "102819-98-7",
        "106803-31-0",
        "115251-26-8",
        "116357-36-9",
        "122176-99-2",
        "124448-52-8",
        "146908-77-2",
        "172307-10-7",
        "187112-19-2",
        "188832-17-9",
        "219686-29-0",
        "261380-10-3",
        "331464-54-1",
        "1219939-75-9",
        "1258406-96-0",
        "2274757-91-2",
        "2296682-15-8",
        "2414982-97-9",
        "2414985-54-7"
    ],
    "hasMolfile": false,
    "source": "https://commonchemistry.cas.org/detail?cas_rn=8012-95-1"
}