{
    "cas_no": "7784-33-0",
    "key_name": "Arsenous tribromide",
    "cn_name": "三溴化砷;",
    "alternate_name": "Arsenous tribromide;Arsenic bromide (AsBr<sub>3</sub>);Arsenous bromide;Tribromoarsine;Arsenic tribromide",
    "duplicated_cas_no": "",
    "SMILES": "[As](Br)(Br)Br",
    "meta_data": {
        "InChI": "InChI=1S/AsBr3/c2-1(3)4",
        "InChIKey": null,
        "Canonical SMILES": "Br[As](Br)Br",
        "Molecular Formula": "AsBr<sub>3</sub>",
        "Molecular Mass": "314.63",
        "Boiling Point": "221 °C",
        "Melting Point": "31.1 °C",
        "Density": "3.40 g/cm³ @ Temp: 25 °C"
    }
}