{
    "cas_no": "2050-49-9",
    "key_name": "2,4-Dibromo-1-naphthalenol",
    "cn_name": "2,4-二溴-1-萘酚;2,4-二溴-1-萘酚;",
    "alternate_name": "1-Naphthalenol, 2,4-dibromo-;1-Naphthol, 2,4-dibromo-;2,4-Dibromo-1-naphthalenol;2,4-Dibromo-1-naphthol;2,4-Dibromo-α-naphthol;2,4-Dibromonaphthol;NSC 6230",
    "duplicated_cas_no": "",
    "SMILES": "OC=1C2=C(C(Br)=CC1Br)C=CC=C2",
    "meta_data": {
        "InChI": "InChI=1S/C10H6Br2O/c11-8-5-9(12)10(13)7-4-2-1-3-6(7)8/h1-5,13H",
        "InChIKey": null,
        "Canonical SMILES": "BrC=1C=C(Br)C=2C=CC=CC2C1O",
        "Molecular Formula": "C<sub>10</sub>H<sub>6</sub>Br<sub>2</sub>O",
        "Molecular Mass": "301.96",
        "Melting Point": "105 °C"
    }
}