{
    "cas_no": "10068-67-4",
    "key_name": "Carbamic acid, [(1<em>S</em>)-1-[[4-(1,1-dimethylethoxy)phenyl]methyl]-2-[(2,5-dioxo-1-pyrrolidinyl)oxy]-2-oxoethyl]-, phenylmethyl ester",
    "cn_name": "Z-酪氨酸-(TBU)-OSU;",
    "alternate_name": "Carbamic acid, [(1<em>S</em>)-1-[[4-(1,1-dimethylethoxy)phenyl]methyl]-2-[(2,5-dioxo-1-pyrrolidinyl)oxy]-2-oxoethyl]-, phenylmethyl ester;Succinimide, <em>N</em>-[[3-(<em>p</em>-<em>tert</em>-butoxyphenyl)-<em>N</em>-carboxy-<span class=\"text-smallcaps\">L</span>-alanyl]oxy]-, benzyl ester;2,5-Pyrrolidinedione, 1-[3-[4-(1,1-dimethylethoxy)phenyl]-1-oxo-2-[[(phenylmethoxy)carbonyl]amino]propoxy]-, (<em>S</em>)-;Alanine, 3-(<em>p</em>-<em>tert</em>-butoxyphenyl)-<em>N</em>-carboxy-, <em>N</em>-benzyl ester, <em>O</em>-succinimido deriv., <span class=\"text-smallcaps\">L</span>-;<span class=\"text-smallcaps\">L</span>-Tyrosine, <em>O</em>-(1,1-dimethylethyl)-<em>N</em>-[(phenylmethoxy)carbonyl]-, 2,5-pyrrolidinedione deriv.;(2,5-Dioxopyrrolidin-1-yl) (2S)-3-[4-[(2-methylpropan-2-yl)oxy]phenyl]-2-(phenylmethoxycarbonylamino)propanoate",
    "duplicated_cas_no": "",
    "SMILES": "[C@H](CC1=CC=C(OC(C)(C)C)C=C1)(C(ON2C(=O)CCC2=O)=O)NC(OCC3=CC=CC=C3)=O",
    "meta_data": {
        "InChI": "InChI=1S/C25H28N2O7/c1-25(2,3)33-19-11-9-17(10-12-19)15-20(23(30)34-27-21(28)13-14-22(27)29)26-24(31)32-16-18-7-5-4-6-8-18/h4-12,20H,13-16H2,1-3H3,(H,26,31)/t20-/m0/s1",
        "InChIKey": null,
        "Canonical SMILES": "O=C(OCC=1C=CC=CC1)NC(C(=O)ON2C(=O)CCC2=O)CC3=CC=C(OC(C)(C)C)C=C3",
        "Molecular Formula": "C<sub>25</sub>H<sub>28</sub>N<sub>2</sub>O<sub>7</sub>",
        "Molecular Mass": "468.50",
        "Melting Point": "118 °C"
    }
}