{
    "cas_no": "14630-40-1",
    "key_name": "1,1′-(1,2-Ethynediyl)bis[1,1,1-trimethylsilane]",
    "cn_name": "双(三甲基硅烷基)乙炔;二(三甲基甲硅烷基)乙炔;",
    "alternate_name": "Silane, 1,1′-(1,2-ethynediyl)bis[1,1,1-trimethyl-;2,5-Disilahex-3-yne, 2,2,5,5-tetramethyl-;Silane, 1,2-ethynediylbis[trimethyl-;1,1′-(1,2-Ethynediyl)bis[1,1,1-trimethylsilane];Bis(trimethylsilyl)acetylene;1,2-Bis(trimethylsilyl)acetylene;Bis(trimethylsilyl)ethyne;1,2-Bis(trimethylsilyl)ethyne;1,2-Bis(trimethylsilanyl)ethyne;Ethyne-1,2-diylbis(trimethylsilane);Trimethyl(2-trimethylsilylethynyl)silane",
    "duplicated_cas_no": "1246365-73-0",
    "SMILES": "C(#C[Si](C)(C)C)[Si](C)(C)C",
    "meta_data": {
        "InChI": "InChI=1S/C8H18Si2/c1-9(2,3)7-8-10(4,5)6/h1-6H3",
        "InChIKey": null,
        "Canonical SMILES": "C(#C[Si](C)(C)C)[Si](C)(C)C",
        "Molecular Formula": "C<sub>8</sub>H<sub>18</sub>Si<sub>2</sub>",
        "Molecular Mass": "170.40",
        "Boiling Point": "134 °C",
        "Melting Point": "26 °C",
        "Density": "0.770 g/cm³"
    }
}