{
    "cas_no": "6107-56-8",
    "key_name": "Calcium octanoate",
    "cn_name": "辛酸钙;",
    "alternate_name": "Octanoic acid, calcium salt (2:1);Octanoic acid, calcium salt;Calcium octanoate;Caprylic acid, calcium salt;Calcium caprylate;Calcium octoate;Calcium octylate;Octlife Ca;Octa-Soligen Calcium 5HS",
    "duplicated_cas_no": "55852-90-9",
    "SMILES": "C(CCCCC)CC(O)=O.[Ca]",
    "meta_data": {
        "InChI": "InChI=1S/C8H16O2.Ca/c1-2-3-4-5-6-7-8(9)10;/h2-7H2,1H3,(H,9,10);",
        "InChIKey": null,
        "Canonical SMILES": "[Ca].O=C(O)CCCCCCC",
        "Molecular Formula": "C<sub>8</sub>H<sub>16</sub>O<sub>2</sub>.<sup>1</sup>/<sub>2</sub>Ca",
        "Molecular Mass": "",
        "Melting Point": "238 °C",
        "Density": "1.18 g/cm³"
    }
}