{
    "cas_no": "892-20-6",
    "key_name": "Triphenylstannane",
    "cn_name": "三苯基氢化锡;三苯基锡化氢;",
    "alternate_name": "Stannane, triphenyl-;Tin, triphenyl-, hydride;Triphenylstannane;Triphenyltin hydride;Triphenylstannyl hydride",
    "duplicated_cas_no": "",
    "SMILES": "[SnH](C1=CC=CC=C1)(C2=CC=CC=C2)C3=CC=CC=C3",
    "meta_data": {
        "InChI": "InChI=1S/3C6H5.Sn.H/c3*1-2-4-6-5-3-1;;/h3*1-5H;;",
        "InChIKey": null,
        "Canonical SMILES": "C=1C=CC(=CC1)[SnH](C=2C=CC=CC2)C=3C=CC=CC3",
        "Molecular Formula": "C<sub>18</sub>H<sub>16</sub>Sn",
        "Molecular Mass": "351.03",
        "Boiling Point": "165 °C @ Press: 0.3 Torr",
        "Melting Point": "26-28 °C",
        "Density": "1.374 g/cm³"
    }
}