{
    "cas_no": "16851-72-2",
    "key_name": "<em>N</em>-Tosyl-2,5-dihydropyrrole",
    "cn_name": "N-对甲苯磺酰-3-吡咯啉;",
    "alternate_name": "1<em>H</em>-Pyrrole, 2,5-dihydro-1-[(4-methylphenyl)sulfonyl]-;3-Pyrroline, 1-(<em>p</em>-tolylsulfonyl)-;2,5-Dihydro-1-[(4-methylphenyl)sulfonyl]-1<em>H</em>-pyrrole;<em>N</em>-Tosyl-2,5-dihydropyrrole;1-(<em>p</em>-Toluenesulfonyl)-2,5-dihydropyrrole;2,5-Dihydro-1-(4-methylphenylsulfonyl)-1<em>H</em>-pyrrole;2,5-Dihydro-<em>N</em>-(4-methylphenylsulfonyl)-1<em>H</em>-pyrrole;<em>N</em>-<em>p</em>-Toluenesulfonyl-3-pyrroline;<em>N</em>-Tosyl-3-pyrroline;<em>N</em>-Tosylpyrroline;1-(Toluene-4-sulfonyl)-2,5-dihydro-1<em>H</em>-pyrrole;1-[(4-Methylphenyl)sulfonyl]-2,5-dihydro-1<em>H</em>-pyrrole;1-Tosyl-2,5-dihydropyrrole;2,5-Dihydro-1-tosyl-1<em>H</em>-pyrrole;1-(<em>p</em>-Toluenesulfonyl)-2,5-dihydropyrole;1-(4-Methylphenylsulfonyl)-2,5-dihydropyrrole;1-Tosyl-2,5-dihydro-1<em>H</em>-pyrrole;2,5-Dihydro-1-tosylpyrrole;1-Tosyl-3-pyrroline;1-(4-Methylbenzenesulfonyl)-2,5-dihydro-1<em>H</em>-pyrrole",
    "duplicated_cas_no": "",
    "SMILES": "S(=O)(=O)(C1=CC=C(C)C=C1)N2CC=CC2",
    "meta_data": {
        "InChI": "InChI=1S/C11H13NO2S/c1-10-4-6-11(7-5-10)15(13,14)12-8-2-3-9-12/h2-7H,8-9H2,1H3",
        "InChIKey": null,
        "Canonical SMILES": "O=S(=O)(C1=CC=C(C=C1)C)N2CC=CC2",
        "Molecular Formula": "C<sub>11</sub>H<sub>13</sub>NO<sub>2</sub>S",
        "Molecular Mass": "223.29",
        "Melting Point": "129.5-130.5 °C"
    }
}