{
    "cas_no": "6164-98-3",
    "key_name": "Chlordimeform",
    "cn_name": "氯苯脒;克死螨;杀螨脒;N\"-(4-氯-2-甲基苯基)-N,N-二甲基甲亚氨酰胺;N-(4-氯邻甲苯基)-N,N-二甲基甲脒;N-(4-;",
    "alternate_name": "Methanimidamide, <em>N</em>′-(4-chloro-2-methylphenyl)-<em>N</em>,<em>N</em>-dimethyl-;Formamidine, <em>N</em>′-(4-chloro-<em>o</em>-tolyl)-<em>N</em>,<em>N</em>-dimethyl-;<em>N</em>′-(4-Chloro-2-methylphenyl)-<em>N</em>,<em>N</em>-dimethylmethanimidamide;C 8514;Chlorophenamidine;<em>N</em>′-(<em>p</em>-Chloro-<em>o</em>-tolyl)-<em>N</em>,<em>N</em>-dimethylformamidine;<em>N</em>′-(4-Chloro-<em>o</em>-tolyl)-<em>N</em>,<em>N</em>-dimethylformamidine;Chlorphenamidine;<em>N</em>,<em>N</em>-Dimethyl-<em>N</em>′-(2-methyl-4-chlorophenyl)formamidine;Galecron;CIBA 8514;Formamidine, <em>N</em>,<em>N</em>-dimethyl-<em>N</em>′-(2-methyl-4-chlorophenyl)-;Chlorophenamidin;<em>N</em>′-(2-Methyl-4-chlorophenyl)-<em>N</em>,<em>N</em>-dimethylformamidine;Chlordimeform;Fundal;1-(2-Methyl-4-chlorophenyl)-3,3-dimethylformamidine;Schering 36,268;Fundal 500;RS 141;CDM;Acaron;CDM (acaricide)",
    "duplicated_cas_no": "",
    "SMILES": "N(=CN(C)C)C1=C(C)C=C(Cl)C=C1",
    "meta_data": {
        "InChI": "InChI=1S/C10H13ClN2/c1-8-6-9(11)4-5-10(8)12-7-13(2)3/h4-7H,1-3H3",
        "InChIKey": null,
        "Canonical SMILES": "ClC1=CC=C(N=CN(C)C)C(=C1)C",
        "Molecular Formula": "C<sub>10</sub>H<sub>13</sub>ClN<sub>2</sub>",
        "Molecular Mass": "196.68",
        "Boiling Point": "163-165 °C @ Press: 14 Torr",
        "Melting Point": "35 °C",
        "Density": "1.105 g/cm³ @ Temp: 25 °C"
    }
}