{
    "cas_no": "99-29-6",
    "key_name": "2-Bromo-6-chloro-4-nitroaniline",
    "cn_name": "2-氯-4-硝基-6-溴苯胺;2-溴-6-氯-4-硝基苯胺;",
    "alternate_name": "Benzenamine, 2-bromo-6-chloro-4-nitro-;Aniline, 2-bromo-6-chloro-4-nitro-;2-Bromo-6-chloro-4-nitrobenzenamine;2-Bromo-6-chloro-4-nitroaniline;2-Bromo-4-nitro-6-chloroaniline;2-Chloro-6-bromo-4-nitroaniline;6-Bromo-2-chloro-4-nitroaniline;NSC 88985;1-Amino-2-bromo-4-nitro-6-chlorobenzene;2-Chloro-4-nitro-6-bromoaniline",
    "duplicated_cas_no": "",
    "SMILES": "N(=O)(=O)C1=CC(Br)=C(N)C(Cl)=C1",
    "meta_data": {
        "InChI": "InChI=1S/C6H4BrClN2O2/c7-4-1-3(10(11)12)2-5(8)6(4)9/h1-2H,9H2",
        "InChIKey": null,
        "Canonical SMILES": "O=N(=O)C1=CC(Cl)=C(N)C(Br)=C1",
        "Molecular Formula": "C<sub>6</sub>H<sub>4</sub>BrClN<sub>2</sub>O<sub>2</sub>",
        "Molecular Mass": "251.47",
        "Melting Point": "177.4 °C"
    }
}