{
    "cas_no": "205873-58-1",
    "key_name": "Ethyl 1<em>H</em>-indole-7-carboxylate",
    "cn_name": "吲哚-7-甲酸乙酯;",
    "alternate_name": "1<em>H</em>-Indole-7-carboxylic acid, ethyl ester;Ethyl 1<em>H</em>-indole-7-carboxylate",
    "duplicated_cas_no": "",
    "SMILES": "C(OCC)(=O)C1=C2C(=CC=C1)C=CN2",
    "meta_data": {
        "InChI": "InChI=1S/C11H11NO2/c1-2-14-11(13)9-5-3-4-8-6-7-12-10(8)9/h3-7,12H,2H2,1H3",
        "InChIKey": null,
        "Canonical SMILES": "O=C(OCC)C1=CC=CC=2C=CNC21",
        "Molecular Formula": "C<sub>11</sub>H<sub>11</sub>NO<sub>2</sub>",
        "Molecular Mass": "189.21",
        "Melting Point": "56-57 °C"
    }
}