{
    "cas_no": "12154-95-9",
    "key_name": "Iron, di-μ-carbonyldicarbonylbis(η<sup>5</sup>-2,4-cyclopentadien-1-yl)di-, (<em>Fe</em>-<em>Fe</em>)",
    "cn_name": null,
    "alternate_name": "Iron, di-μ-carbonyldicarbonylbis(η<sup>5</sup>-2,4-cyclopentadien-1-yl)di-, (<em>Fe</em>-<em>Fe</em>);Iron, di-μ-carbonyldicarbonyldi-π-cyclopentadienyldi-, (Fe-Fe);Dicyclopentadienyldiiron tetracarbonyl;Bis(cyclopentadienyliron dicarbonyl);Bis(cyclopentadienyldicarbonyliron);Bis(π-cyclopentadienylirondicarbonyl);Di-μ-carbonyldicarbonyldi-π-cyclopentadienyldiiron;Dicyclopentadienyliron dicarbonyl dimer;Cyclopentadienyldicarbonyliron dimer;Dicarbonyl-π-cyclopentadienyliron dimer;Tetracarbonylbis(cyclopentadienyl)diiron;Bis(π-cyclopentadienyldicarbonyliron);Dicarbonylcyclopentadienyliron dimer;Cyclopentadienylirondicarbonyl dimer;Bis(dicarbonyl-π-cyclopentadienyliron);Dicyclopentadienyltetracarbonyldiiron;Bis[dicarbonyl(π-cyclopentadienyl)iron(II)];Tetracarbonylbis(η<sup>5</sup>-cyclopentadienyl)diiron;Bis(dicarbonyl(η<sup>5</sup>-cyclopentadienyl)iron);Di-μ-carbonyldicarbonylbis[(1,2,3,4,5-η)-2,4-cyclopentadien-1-yl]diiron;Di-μ-carbonylbis[carbonyl(η<sup>5</sup>-cyclopentadienyl)iron];Di-μ-carbonyldicarbonylbis(η<sup>5</sup>-cyclopentadienyl)diiron",
    "duplicated_cas_no": "12169-77-6;39278-71-2;39465-95-7",
    "SMILES": "C(#O)[Fe+3]123456([Fe+3]789%10(C#O)([C-2]1=O)([C-2]2=O)[CH-]%11[CH]7=[CH]8[CH]9=[CH]%10%11)[CH-]%12[CH]3=[CH]4[CH]5=[CH]6%12",
    "meta_data": {
        "InChI": "InChI=1S/2C5H5.4CO.2Fe/c2*1-2-4-5-3-1;4*1-2;;/h2*1-5H;;;;;;/q2*-1;;;2*-2;2*+3",
        "InChIKey": null,
        "Canonical SMILES": "O#C[Fe+3]123456([C-2](=O)[Fe+3]789%102(C#O)([C-2]1=O)[CH]=%11[CH]%10=[CH]9[CH-]8[CH]%117)[CH]=%12[CH]6=[CH]5[CH-]4[CH]%123",
        "Molecular Formula": "C<sub>14</sub>H<sub>10</sub>Fe<sub>2</sub>O<sub>4</sub>",
        "Molecular Mass": "",
        "Melting Point": "195 °C (decomp)"
    }
}