{
    "cas_no": "183428-91-3",
    "key_name": "6-Amino-5-methyl-3-pyridinecarbonitrile",
    "cn_name": "2-氨基-3-甲基-5-氰基吡啶; 5-甲基-6-氨基吡啶-3-甲腈;",
    "alternate_name": "3-Pyridinecarbonitrile, 6-amino-5-methyl-;6-Amino-5-methyl-3-pyridinecarbonitrile;6-Amino-5-methylnicotinonitrile",
    "duplicated_cas_no": "",
    "SMILES": "C(#N)C=1C=C(C)C(N)=NC1",
    "meta_data": {
        "InChI": "InChI=1S/C7H7N3/c1-5-2-6(3-8)4-10-7(5)9/h2,4H,1H3,(H2,9,10)",
        "InChIKey": null,
        "Canonical SMILES": "N#CC1=CN=C(N)C(=C1)C",
        "Molecular Formula": "C<sub>7</sub>H<sub>7</sub>N<sub>3</sub>",
        "Molecular Mass": "133.15",
        "Melting Point": "184-188 °C"
    }
}