{
    "cas_no": "513-31-5",
    "key_name": "2,3-Dibromopropene",
    "cn_name": "2,3-二溴-1-丙烯;",
    "alternate_name": "1-Propene, 2,3-dibromo-;Propene, 2,3-dibromo-;2,3-Dibromo-1-propene;2-Bromoallyl bromide;2,3-Dibromopropene;2,3-Dibromopropylene;α-Epidibromohydrin;1,2-Dibromo-2-propene;NSC 6200;(2-Bromo-2-propenyl) bromide",
    "duplicated_cas_no": "",
    "SMILES": "C(CBr)(Br)=C",
    "meta_data": {
        "InChI": "InChI=1S/C3H4Br2/c1-3(5)2-4/h1-2H2",
        "InChIKey": null,
        "Canonical SMILES": "BrC(=C)CBr",
        "Molecular Formula": "C<sub>3</sub>H<sub>4</sub>Br<sub>2</sub>",
        "Molecular Mass": "199.87",
        "Boiling Point": "141 °C",
        "Density": "1.9702 g/cm³ @ Temp: 20 °C"
    }
}