{
    "cas_no": "53967-73-0",
    "key_name": "2-Methoxy-6-nitrobenzoic acid",
    "cn_name": "2-甲氧基-6-硝基苯甲酸;",
    "alternate_name": "Benzoic acid, 2-methoxy-6-nitro-;<em>o</em>-Anisic acid, 6-nitro-;2-Methoxy-6-nitrobenzoic acid;2-Nitro-6-methoxybenzoic acid",
    "duplicated_cas_no": "",
    "SMILES": "C(O)(=O)C1=C(N(=O)=O)C=CC=C1OC",
    "meta_data": {
        "InChI": "InChI=1S/C8H7NO5/c1-14-6-4-2-3-5(9(12)13)7(6)8(10)11/h2-4H,1H3,(H,10,11)",
        "InChIKey": null,
        "Canonical SMILES": "O=C(O)C=1C(OC)=CC=CC1N(=O)=O",
        "Molecular Formula": "C<sub>8</sub>H<sub>7</sub>NO<sub>5</sub>",
        "Molecular Mass": "197.14",
        "Melting Point": "179-180 °C"
    }
}