{
    "cas_no": "3918-84-1",
    "key_name": "<span class=\"text-smallcaps\">L</smallcap>-α-Glutamyl-<smallcap>L</span>-aspartic acid",
    "cn_name": null,
    "alternate_name": "<span class=\"text-smallcaps\">L</smallcap>-Aspartic acid, <smallcap>L</span>-α-glutamyl-;Aspartic acid, <em>N</em>-<span class=\"text-smallcaps\">L</smallcap>-α-glutamyl-, <smallcap>L</span>-;<span class=\"text-smallcaps\">L</smallcap>-Aspartic acid, <em>N</em>-<smallcap>L</span>-α-glutamyl-;Aspartic acid, <em>N</em>-<span class=\"text-smallcaps\">L</span>-α-glutamyl-;<span class=\"text-smallcaps\">L</smallcap>-α-Glutamyl-<smallcap>L</span>-aspartic acid;<span class=\"text-smallcaps\">L</smallcap>-Glutamyl-<smallcap>L</span>-aspartic acid;α-<span class=\"text-smallcaps\">L</smallcap>-Glutamyl-<smallcap>L</span>-aspartic acid;NSC 186905;76: PN: WO2005016244 PAGE: 71 claimed protein;456: PN: WO2005081628 SEQID: 1565 claimed protein;4: PN: WO2008083678 PAGE: 33 claimed protein;170: PN: EP2161028 PAGE: 10 claimed protein;59: PN: WO2011146121 PAGE: 114 claimed sequence;10: PN: WO2013130683 TABLE: 7 claimed sequence;α-Glu-Asp;102: PN: WO2022240360 SEQID: 110 claimed protein;52: PN: WO2023003984 SEQID: 62 claimed sequence;15: PN: WO2023056433 PAGE: 60 claimed sequence",
    "duplicated_cas_no": "877605-44-2",
    "SMILES": "[C@H](NC([C@H](CCC(O)=O)N)=O)(CC(O)=O)C(O)=O",
    "meta_data": {
        "InChI": "InChI=1S/C9H14N2O7/c10-4(1-2-6(12)13)8(16)11-5(9(17)18)3-7(14)15/h4-5H,1-3,10H2,(H,11,16)(H,12,13)(H,14,15)(H,17,18)/t4-,5-/m0/s1",
        "InChIKey": null,
        "Canonical SMILES": "O=C(O)CCC(N)C(=O)NC(C(=O)O)CC(=O)O",
        "Molecular Formula": "C<sub>9</sub>H<sub>14</sub>N<sub>2</sub>O<sub>7</sub>",
        "Molecular Mass": "262.22",
        "Melting Point": "150-153 °C (decomp)"
    }
}