{
    "cas_no": "2591-86-8",
    "key_name": "1-Piperidinecarboxaldehyde",
    "cn_name": "哌啶-1-甲醛;1-甲酰基哌啶;N-甲酰基哌啶;",
    "alternate_name": "1-Piperidinecarboxaldehyde;Piperidine, 1-formyl-;<em>N</em>-Formylpiperidine;Formylpiperidine;1-Formylpiperidine;Piperidinoformamide;NFP;Formylpiperidide;<em>N</em>-Piperidinecarboxaldehyde;NSC 1066;NSC 404158;<em>N</em>-Carbaldehyde piperidine;<em>N</em>,<em>N</em>-Formylpiperidine",
    "duplicated_cas_no": "",
    "SMILES": "C(=O)N1CCCCC1",
    "meta_data": {
        "InChI": "InChI=1S/C6H11NO/c8-6-7-4-2-1-3-5-7/h6H,1-5H2",
        "InChIKey": null,
        "Canonical SMILES": "O=CN1CCCCC1",
        "Molecular Formula": "C<sub>6</sub>H<sub>11</sub>NO",
        "Molecular Mass": "113.16",
        "Boiling Point": "222.5 °C",
        "Melting Point": "-30.8 °C",
        "Density": "1.0198 g/cm³ @ Temp: 20 °C"
    }
}