{
    "cas_no": "18306-79-1",
    "key_name": "(3-Aminopropyl)dimethylethoxysilane",
    "cn_name": "(3-氨基丙基)二甲基乙氧基硅烷;3-(二甲基乙氧基硅基)正丙烷;",
    "alternate_name": "1-Propanamine, 3-(ethoxydimethylsilyl)-;Propylamine, 3-(ethoxydimethylsilyl)-;3-(Ethoxydimethylsilyl)-1-propanamine;Dimethyl(γ-aminopropyl)ethoxysilane;(3-Aminopropyl)dimethylethoxysilane;(3-Aminopropyl)ethoxydimethylsilane;(γ-Aminopropyl)dimethylethoxysilane;(3-(Ethoxydimethylsilyl)propyl)amine;APDMES;3-(Ethoxydimethylsilanyl)propylamine;3-(Ethoxydimethylsilyl)propylamine",
    "duplicated_cas_no": "",
    "SMILES": "[Si](CCCN)(OCC)(C)C",
    "meta_data": {
        "InChI": "InChI=1S/C7H19NOSi/c1-4-9-10(2,3)7-5-6-8/h4-8H2,1-3H3",
        "InChIKey": null,
        "Canonical SMILES": "O(CC)[Si](C)(C)CCCN",
        "Molecular Formula": "C<sub>7</sub>H<sub>19</sub>NOSi",
        "Molecular Mass": "161.32",
        "Boiling Point": "78-79 °C @ Press: 24 Torr",
        "Density": "0.857 g/cm³ @ Temp: 25 °C"
    }
}