{
    "cas_no": "107534-93-0",
    "key_name": "Macelignan",
    "cn_name": null,
    "alternate_name": "Phenol, 4-[(2<em>S</em>,3<em>R</em>)-4-(1,3-benzodioxol-5-yl)-2,3-dimethylbutyl]-2-methoxy-;Phenol, 4-[4-(1,3-benzodioxol-5-yl)-2,3-dimethylbutyl]-2-methoxy-, [<em>S</em>-(<em>R</em>*,<em>S</em>*)]-;4-[(2<em>S</em>,3<em>R</em>)-4-(1,3-Benzodioxol-5-yl)-2,3-dimethylbutyl]-2-methoxyphenol;Macelignan;Anwulignan;(+)-Anwulignan;Anwuligan",
    "duplicated_cas_no": "",
    "SMILES": "C([C@H]([C@H](CC1=CC(OC)=C(O)C=C1)C)C)C=2C=C3C(=CC2)OCO3",
    "meta_data": {
        "InChI": "InChI=1S/C20H24O4/c1-13(8-15-4-6-17(21)19(10-15)22-3)14(2)9-16-5-7-18-20(11-16)24-12-23-18/h4-7,10-11,13-14,21H,8-9,12H2,1-3H3/t13-,14+/m0/s1",
        "InChIKey": null,
        "Canonical SMILES": "OC1=CC=C(C=C1OC)CC(C)C(C)CC2=CC=C3OCOC3=C2",
        "Molecular Formula": "C<sub>20</sub>H<sub>24</sub>O<sub>4</sub>",
        "Molecular Mass": "328.40",
        "Melting Point": "70-72 °C"
    }
}