{
    "cas_no": "63980-69-8",
    "key_name": "<em>N</em>-(5-Chloro-2-methoxyphenyl)thiourea",
    "cn_name": null,
    "alternate_name": "Thiourea, <em>N</em>-(5-chloro-2-methoxyphenyl)-;Thiourea, (5-chloro-2-methoxyphenyl)-;<em>N</em>-(5-Chloro-2-methoxyphenyl)thiourea;(5-Chloro-2-methoxyphenyl)thiourea;1-(2-Methoxy-5-chlorophenyl)thiourea;NSC 25002;2-Methoxy-5-chlorophenyl thiourea;(2-Methoxy-5-chlorophenyl)-2-thiourea;1-(5-Chloro-2-methoxyphenyl)thiourea",
    "duplicated_cas_no": "1031720-96-3",
    "SMILES": "N(C(N)=S)C1=C(OC)C=CC(Cl)=C1",
    "meta_data": {
        "InChI": "InChI=1S/C8H9ClN2OS/c1-12-7-3-2-5(9)4-6(7)11-8(10)13/h2-4H,1H3,(H3,10,11,13)",
        "InChIKey": null,
        "Canonical SMILES": "S=C(N)NC1=CC(Cl)=CC=C1OC",
        "Molecular Formula": "C<sub>8</sub>H<sub>9</sub>ClN<sub>2</sub>OS",
        "Molecular Mass": "216.69",
        "Melting Point": "144-145 °C"
    }
}