{
    "cas_no": "40642-40-8",
    "key_name": "<em>cis</em>-8-Dodecen-1-ol",
    "cn_name": null,
    "alternate_name": "8-Dodecen-1-ol, (8<em>Z</em>)-;8-Dodecen-1-ol, (<em>Z</em>)-;(8<em>Z</em>)-8-Dodecen-1-ol;<em>cis</em>-8-Dodecen-1-ol;(<em>Z</em>)-8-Dodecenyl alcohol;(<em>Z</em>)-8-Dodecen-1-ol;(8<em>Z</em>)-Dodec-8-en-1-ol",
    "duplicated_cas_no": "",
    "SMILES": "C(C/C=C\\CCC)CCCCCO",
    "meta_data": {
        "InChI": "InChI=1S/C12H24O/c1-2-3-4-5-6-7-8-9-10-11-12-13/h4-5,13H,2-3,6-12H2,1H3/b5-4-",
        "InChIKey": null,
        "Canonical SMILES": "OCCCCCCCC=CCCC",
        "Molecular Formula": "C<sub>12</sub>H<sub>24</sub>O",
        "Molecular Mass": "184.32",
        "Boiling Point": "88-90 °C @ Press: 1 Torr"
    }
}