{
    "cas_no": "2466-76-4",
    "key_name": "1-(1<em>H</em>-Imidazol-1-yl)ethanone",
    "cn_name": "1-乙酰基咪唑;N-乙酰基咪唑;",
    "alternate_name": "Ethanone, 1-(1<em>H</em>-imidazol-1-yl)-;Imidazole, 1-acetyl-;1<em>H</em>-Imidazole, 1-acetyl-;1-(1<em>H</em>-Imidazol-1-yl)ethanone;Acetylimidazole;<em>N</em>-Acetylimidazole;1-Acetylimidazole;1-Acetyl-1<em>H</em>-imidazole;1-(1<em>H</em>-Imidazol-1-yl)ethan-1-one",
    "duplicated_cas_no": "",
    "SMILES": "C(C)(=O)N1C=CN=C1",
    "meta_data": {
        "InChI": "InChI=1S/C5H6N2O/c1-5(8)7-3-2-6-4-7/h2-4H,1H3",
        "InChIKey": null,
        "Canonical SMILES": "O=C(N1C=NC=C1)C",
        "Molecular Formula": "C<sub>5</sub>H<sub>6</sub>N<sub>2</sub>O",
        "Molecular Mass": "110.11",
        "Melting Point": "99-105 °C"
    }
}