{
    "cas_no": "306-94-5",
    "key_name": "Perfluorodecalin",
    "cn_name": "全氟萘烷;十八氟十氢萘;",
    "alternate_name": "Naphthalene, 1,1,2,2,3,3,4,4,4a,5,5,6,6,7,7,8,8,8a-octadecafluorodecahydro-;Naphthalene, octadecafluorodecahydro-;1,1,2,2,3,3,4,4,4a,5,5,6,6,7,7,8,8,8a-Octadecafluorodecahydronaphthalene;Perfluorodecahydronaphthalene;Perfluorodecalin;Flutec PP 5;Octadecafluorodecahydronaphthalene;PP 5;FDC;Flutec PP 7;Octadecafluorodecalin;Decalin perfluoride;Perflunafene;Flutec PP 6;APF 140;NSC 97066;PP 6;1,1,2,2,3,3,4,4,4a,5,5,6,6,7,7,8,8,8a-Octadecafluoronaphthalene",
    "duplicated_cas_no": "70323-33-0;77115-10-7;127964-38-9;159813-90-8;1201928-37-1",
    "SMILES": "FC12C(F)(C(F)(F)C(F)(F)C(F)(F)C1(F)F)C(F)(F)C(F)(F)C(F)(F)C2(F)F",
    "meta_data": {
        "InChI": "InChI=1S/C10F18/c11-1-2(12,5(17,18)9(25,26)7(21,22)3(1,13)14)6(19,20)10(27,28)8(23,24)4(1,15)16",
        "InChIKey": null,
        "Canonical SMILES": "FC1(F)C(F)(F)C(F)(F)C2(F)C(F)(F)C(F)(F)C(F)(F)C(F)(F)C2(F)C1(F)F",
        "Molecular Formula": "C<sub>10</sub>F<sub>18</sub>",
        "Molecular Mass": "462.08",
        "Boiling Point": "142 °C",
        "Melting Point": "-10 °C",
        "Density": "1.9456 g/cm³ @ Temp: 20 °C"
    }
}