{
    "cas_no": "324-94-7",
    "key_name": "4′-Fluoro[1,1′-biphenyl]-4-ol",
    "cn_name": "4-氟-4\"-羟基联苯;",
    "alternate_name": "[1,1′-Biphenyl]-4-ol, 4′-fluoro-;4-Biphenylol, 4′-fluoro-;4′-Fluoro[1,1′-biphenyl]-4-ol;4-(<em>p</em>-Fluorophenyl)phenol;4-(4-Fluorophenyl)phenol;4-Fluoro-4′-hydroxybiphenyl;NSC 403046;4′-Fluorobiphenyl-4-ol;4′-Fluoro-1,1′-biphenyl-4-ol",
    "duplicated_cas_no": "",
    "SMILES": "FC1=CC=C(C=C1)C2=CC=C(O)C=C2",
    "meta_data": {
        "InChI": "InChI=1S/C12H9FO/c13-11-5-1-9(2-6-11)10-3-7-12(14)8-4-10/h1-8,14H",
        "InChIKey": null,
        "Canonical SMILES": "FC=1C=CC(=CC1)C2=CC=C(O)C=C2",
        "Molecular Formula": "C<sub>12</sub>H<sub>9</sub>FO",
        "Molecular Mass": "188.20",
        "Melting Point": "167-168 °C"
    }
}