{
    "cas_no": "6948-30-7",
    "key_name": "3-Bromo-4,5-dimethoxybenzaldehyde",
    "cn_name": "3-溴-4,5-二甲氧基苯甲醛;",
    "alternate_name": "Benzaldehyde, 3-bromo-4,5-dimethoxy-;Veratraldehyde, 5-bromo-;3-Bromo-4,5-dimethoxybenzaldehyde;3,4-Dimethoxy-5-bromobenzaldehyde;5-Bromo-3,4-dimethoxybenzaldehyde;5-Bromoveratraldehyde;NSC 55757",
    "duplicated_cas_no": "",
    "SMILES": "O(C)C1=C(OC)C(Br)=CC(C=O)=C1",
    "meta_data": {
        "InChI": "InChI=1S/C9H9BrO3/c1-12-8-4-6(5-11)3-7(10)9(8)13-2/h3-5H,1-2H3",
        "InChIKey": null,
        "Canonical SMILES": "O=CC1=CC(Br)=C(OC)C(OC)=C1",
        "Molecular Formula": "C<sub>9</sub>H<sub>9</sub>BrO<sub>3</sub>",
        "Molecular Mass": "245.07",
        "Melting Point": "59.5 °C"
    }
}