{
    "cas_no": "141-30-0",
    "key_name": "3,6-Dichloropyridazine",
    "cn_name": "3,6-二氯哒嗪;二氯吡哒嗪;",
    "alternate_name": "Pyridazine, 3,6-dichloro-;3,6-Dichloropyridazine;NSC 54498",
    "duplicated_cas_no": "",
    "SMILES": "ClC1=CC=C(Cl)N=N1",
    "meta_data": {
        "InChI": "InChI=1S/C4H2Cl2N2/c5-3-1-2-4(6)8-7-3/h1-2H",
        "InChIKey": null,
        "Canonical SMILES": "ClC1=NN=C(Cl)C=C1",
        "Molecular Formula": "C<sub>4</sub>H<sub>2</sub>Cl<sub>2</sub>N<sub>2</sub>",
        "Molecular Mass": "148.98",
        "Boiling Point": "123-127 °C @ Press: 5 Torr",
        "Melting Point": "66-68 °C"
    }
}