{
    "cas_no": "8007-35-0",
    "key_name": "Terpineol, acetate",
    "cn_name": null,
    "alternate_name": "Terpineol, acetate;Terpinyl acetate",
    "duplicated_cas_no": "39427-28-6;1191242-15-5",
    "SMILES": "",
    "meta_data": {
        "InChI": "",
        "InChIKey": null,
        "Canonical SMILES": "",
        "Molecular Formula": "C<sub>12</sub>H<sub>20</sub>O<sub>2</sub>",
        "Molecular Mass": "",
        "Boiling Point": "104-106 °C @ Press: 11 Torr",
        "Density": "0.9216 g/cm³ @ Temp: 15.5 °C"
    }
}