{
    "uri": "substance/pt/8007350",
    "rn": "8007-35-0",
    "name": "Terpineol, acetate",
    "images": [],
    "inchi": "",
    "inchiKey": "",
    "smile": "",
    "canonicalSmile": "",
    "molecularFormula": "C<sub>12</sub>H<sub>20</sub>O<sub>2</sub>",
    "molecularMass": "",
    "experimentalProperties": [
        {
            "name": "Boiling Point",
            "property": "104-106 °C @ Press: 11 Torr",
            "sourceNumber": 1
        },
        {
            "name": "Density",
            "property": "0.9216 g/cm³ @ Temp: 15.5 °C",
            "sourceNumber": 2
        }
    ],
    "propertyCitations": [
        {
            "docUri": "document/pt/document/23705123",
            "sourceNumber": 1,
            "source": "Knoevenagel, E.; Annalen der Chemie, Justus Liebigs, (1914), 402, 111-48, CAplus"
        },
        {
            "docUri": "document/pt/document/21957248",
            "sourceNumber": 2,
            "source": "Jones, T. G. H.; Proc. Roy. Soc. Queensland, (1943), 55, 85-6, CAplus"
        }
    ],
    "synonyms": [
        "Terpineol, acetate",
        "Terpinyl acetate"
    ],
    "replacedRns": [
        "39427-28-6",
        "1191242-15-5"
    ],
    "hasMolfile": false,
    "source": "https://commonchemistry.cas.org/detail?cas_rn=8007-35-0"
}