{
    "cas_no": "626-05-1",
    "key_name": "2,6-Dibromopyridine",
    "cn_name": "2,6-二溴吡啶;",
    "alternate_name": "Pyridine, 2,6-dibromo-;2,6-Dibromopyridine;NSC 613",
    "duplicated_cas_no": "",
    "SMILES": "BrC=1N=C(Br)C=CC1",
    "meta_data": {
        "InChI": "InChI=1S/C5H3Br2N/c6-4-2-1-3-5(7)8-4/h1-3H",
        "InChIKey": null,
        "Canonical SMILES": "BrC=1N=C(Br)C=CC1",
        "Molecular Formula": "C<sub>5</sub>H<sub>3</sub>Br<sub>2</sub>N",
        "Molecular Mass": "236.89",
        "Boiling Point": "249 °C",
        "Melting Point": "118-119 °C"
    }
}