{
    "cas_no": "6238-13-7",
    "key_name": "1-Azabicyclo[2.2.2]octan-3-ol, hydrochloride (1:1)",
    "cn_name": "3-奎宁环酮盐酸盐;",
    "alternate_name": "1-Azabicyclo[2.2.2]octan-3-ol, hydrochloride (1:1);3-Quinuclidinol, hydrochloride;1-Azabicyclo[2.2.2]octan-3-ol, hydrochloride;1-Azabicyclo[2.2.2]octan-3-ol, hydrochloride, (±)-;<em>dl</em>-3-Quinuclidinol hydrochloride;(±)-3-Quinuclidinol hydrochloride;(±)-1-Azabicyclo[2.2.2]octan-3-ol hydrochloride",
    "duplicated_cas_no": "25333-43-1",
    "SMILES": "OC1C2CCN(C1)CC2.Cl",
    "meta_data": {
        "InChI": "InChI=1S/C7H13NO.ClH/c9-7-5-8-3-1-6(7)2-4-8;/h6-7,9H,1-5H2;1H",
        "InChIKey": null,
        "Canonical SMILES": "Cl.OC1CN2CCC1CC2",
        "Molecular Formula": "C<sub>7</sub>H<sub>13</sub>NO.ClH",
        "Molecular Mass": "",
        "Melting Point": "&gt;300 °C"
    }
}