{
    "cas_no": "480-15-9",
    "key_name": "Datiscetin",
    "cn_name": "橡精;橡精;",
    "alternate_name": "4<em>H</em>-1-Benzopyran-4-one, 3,5,7-trihydroxy-2-(2-hydroxyphenyl)-;Datiscetin;Flavone, 2′,3,5,7-tetrahydroxy-;3,5,7-Trihydroxy-2-(2-hydroxyphenyl)-4<em>H</em>-1-benzopyran-4-one;C.I. 75630;Akalbir;C.I. Natural Yellow 12;2′,3,5,7-Tetrahydroxyflavone;2-(2-Hydroxyphenyl)-3,5,7-tris(oxidanyl)chromen-4-one",
    "duplicated_cas_no": "",
    "SMILES": "O=C1C=2C(OC(=C1O)C3=C(O)C=CC=C3)=CC(O)=CC2O",
    "meta_data": {
        "InChI": "InChI=1S/C15H10O6/c16-7-5-10(18)12-11(6-7)21-15(14(20)13(12)19)8-3-1-2-4-9(8)17/h1-6,16-18,20H",
        "InChIKey": null,
        "Canonical SMILES": "O=C1C(O)=C(OC=2C=C(O)C=C(O)C12)C=3C=CC=CC3O",
        "Molecular Formula": "C<sub>15</sub>H<sub>10</sub>O<sub>6</sub>",
        "Molecular Mass": "286.24",
        "Melting Point": "276 °C"
    }
}