{
    "cas_no": "556-64-9",
    "key_name": "Methyl thiocyanate",
    "cn_name": "硫氰酸甲酯;",
    "alternate_name": "Thiocyanic acid, methyl ester;Methyl sulfocyanate;Methyl thiocyanate;NSC 9368",
    "duplicated_cas_no": "1800084-80-3",
    "SMILES": "C(SC)#N",
    "meta_data": {
        "InChI": "InChI=1S/C2H3NS/c1-4-2-3/h1H3",
        "InChIKey": null,
        "Canonical SMILES": "N#CSC",
        "Molecular Formula": "C<sub>2</sub>H<sub>3</sub>NS",
        "Molecular Mass": "73.12",
        "Boiling Point": "130-133 °C",
        "Melting Point": "-51 °C",
        "Density": "1.068 g/cm³ @ Temp: 25 °C"
    }
}