{
    "cas_no": "100-97-0",
    "key_name": "Hexamethylenetetramine",
    "cn_name": "乌洛托品;六亚甲基四胺;六次甲基四胺;促进剂H;1,3,5,7-四氮杂三环[3.3.1.1.(3,7)]癸烷;",
    "alternate_name": "1,3,5,7-Tetraazatricyclo[3.3.1.1<sup>3,7</sup>]decane;Hexamethylenetetramine;Aceto HMT;Aminoform;Ammoform;Cystogen;Formamine;Hexaform;1,3,5,7-Tetraazaadamantane;Uritone;Urotropin;Urotropine;Hexamine (heterocycle);Methenamine;Preparation AF;Ekagom H;Formin (heterocycle);Hexa-Flo-Pulver;Hexamethylenamine;Hexamine;Herax UTS;Hexasan;Heterin;Duirexol;Uramin;Antihydral;Urodeine;Xametrin;Uratrine;Methenamin;Nocceler H;Vulkacit H 30;Hexa (vulcanization accelerator);Hexa;Formin;HMT;Methenamide;HA;Sanceler H;S 4 (heterocycle);S 4;NSC 26346;NSC 403347;Thixon 715B;Hexa B;Sanceler HT-PO;Nocceler H-PO;Sanceler HT;Heksa K;HMTA;Vulkacit H;1,3,5,7-Tetraazatricyclo[3.3.1.1<sup>3,7</sup>]decane (Urotropine);Hexamine Superfine;EL 10;EL 10 (corrosion inhibitor);Cohedur H 30;Rhenogran HEXA 80;Rhenogran HEXA 80SBR;HEXA 80;Accelerator H;Sanceler HMT;H 80;KH 8410;Nocrac H",
    "duplicated_cas_no": "11103-67-6;15978-33-3;56549-34-9;74734-16-0;91773-48-7;187285-07-0;859974-71-3;1556839-80-5",
    "SMILES": "N12CN3CN(C1)CN(C2)C3",
    "meta_data": {
        "InChI": "InChI=1S/C6H12N4/c1-7-2-9-4-8(1)5-10(3-7)6-9/h1-6H2",
        "InChIKey": null,
        "Canonical SMILES": "N12CN3CN(C1)CN(C2)C3",
        "Molecular Formula": "C<sub>6</sub>H<sub>12</sub>N<sub>4</sub>",
        "Molecular Mass": "140.19",
        "Boiling Point": "280 °C",
        "Melting Point": "263 °C (sublm)",
        "Density": "1.331 g/cm³ @ Temp: -5 °C"
    }
}