{
    "cas_no": "16400-13-8",
    "key_name": "2,3-Dihydro-7-methyl-1<em>H</em>-inden-4-ol",
    "cn_name": "4-羟基-7甲基茚;4-羟基-7甲基茚;4-羟基-7甲基茚,97%;",
    "alternate_name": "1<em>H</em>-Inden-4-ol, 2,3-dihydro-7-methyl-;4-Indanol, 7-methyl-;2,3-Dihydro-7-methyl-1<em>H</em>-inden-4-ol;7-Methyl-4-indanol;4-Hydroxy-7-methylindan",
    "duplicated_cas_no": "",
    "SMILES": "CC1=C2C(=C(O)C=C1)CCC2",
    "meta_data": {
        "InChI": "InChI=1S/C10H12O/c1-7-5-6-10(11)9-4-2-3-8(7)9/h5-6,11H,2-4H2,1H3",
        "InChIKey": null,
        "Canonical SMILES": "OC1=CC=C(C2=C1CCC2)C",
        "Molecular Formula": "C<sub>10</sub>H<sub>12</sub>O",
        "Molecular Mass": "148.20",
        "Melting Point": "85.5-87.0 °C"
    }
}