{
    "cas_no": "2212-11-5",
    "key_name": "(Chloromethyl)dimethoxymethylsilane",
    "cn_name": "氯甲基甲基二甲氧基硅烷;",
    "alternate_name": "Silane, (chloromethyl)dimethoxymethyl-;(Chloromethyl)dimethoxymethylsilane;Methylchloromethyldimethoxysilane;Chloromethylmethyldimethoxysilane",
    "duplicated_cas_no": "",
    "SMILES": "[Si](CCl)(OC)(OC)C",
    "meta_data": {
        "InChI": "InChI=1S/C4H11ClO2Si/c1-6-8(3,4-5)7-2/h4H2,1-3H3",
        "InChIKey": null,
        "Canonical SMILES": "ClC[Si](OC)(OC)C",
        "Molecular Formula": "C<sub>4</sub>H<sub>11</sub>ClO<sub>2</sub>Si",
        "Molecular Mass": "154.67",
        "Boiling Point": "141-144 °C",
        "Density": "1.08 g/cm³ @ Temp: 20 °C"
    }
}