{
    "cas_no": "23504-03-2",
    "key_name": "4-Isopropylresorcinol",
    "cn_name": "4-异丙基间苯二酚;4-异丙基苯-1,3-二醇;",
    "alternate_name": "1,3-Benzenediol, 4-(1-methylethyl)-;Resorcinol, 4-isopropyl-;4-(1-Methylethyl)-1,3-benzenediol;4-Isopropyl-1,3-benzenediol;4-Isopropylresorcinol;2,4-Dihydroxy-1-isopropylbenzene",
    "duplicated_cas_no": "",
    "SMILES": "C(C)(C)C1=C(O)C=C(O)C=C1",
    "meta_data": {
        "InChI": "InChI=1S/C9H12O2/c1-6(2)8-4-3-7(10)5-9(8)11/h3-6,10-11H,1-2H3",
        "InChIKey": null,
        "Canonical SMILES": "OC1=CC=C(C(O)=C1)C(C)C",
        "Molecular Formula": "C<sub>9</sub>H<sub>12</sub>O<sub>2</sub>",
        "Molecular Mass": "152.19",
        "Boiling Point": "114 °C @ Press: 0.2 Torr",
        "Melting Point": "105 °C"
    }
}