{
    "cas_no": "17654-88-5",
    "key_name": "Bismuthiol II",
    "cn_name": "铋试剂II;3-苯基-1,3,4-噻二唑亚基-2,5-二硫酮;5-硫基-3-苯基-2-硫-1,3,4-硫代二唑,钾盐;铋试剂II;",
    "alternate_name": "1,3,4-Thiadiazolidine-2,5-dithione, 3-phenyl-;Δ<sup>2</sup>-1,3,4-Thiadiazoline-5-thione, 2-mercapto-4-phenyl-;3-Phenyl-1,3,4-thiadiazolidine-2,5-dithione;3-Phenylbismuthol;5-Mercapto-3-phenyl-1,3,4-thiadiazoline-2-thione;5-Mercapto-3-phenyl-1,3,4-thiadiazole-2-thione;2-Mercapto-4-phenyl-1,3,4-thiadiazoline-5-thione;Bismuthiol II;2-Mercapto-4-phenyl-1,3,4-thiadiazole-5-thione;5-Mercapto-3-phenyl-1,3,4-thiadazole-2-thione;3-Phenyl-5-sulfanyl-2,3-dihydro-1,3,4-thiadiazole-2-thione",
    "duplicated_cas_no": "38351-38-1",
    "SMILES": "S=C1N(NC(=S)S1)C2=CC=CC=C2",
    "meta_data": {
        "InChI": "InChI=1S/C8H6N2S3/c11-7-9-10(8(12)13-7)6-4-2-1-3-5-6/h1-5H,(H,9,11)",
        "InChIKey": null,
        "Canonical SMILES": "S=C1SC(=S)N(N1)C=2C=CC=CC2",
        "Molecular Formula": "C<sub>8</sub>H<sub>6</sub>N<sub>2</sub>S<sub>3</sub>",
        "Molecular Mass": "226.34",
        "Melting Point": "250 °C"
    }
}