{
    "cas_no": "392-85-8",
    "key_name": "2-Fluorobenzotrifluoride",
    "cn_name": "2-氟三氟甲苯;邻氟三氟甲苯;",
    "alternate_name": "Benzene, 1-fluoro-2-(trifluoromethyl)-;Toluene, <em>o</em>,α,α,α-tetrafluoro-;1-Fluoro-2-(trifluoromethyl)benzene;<em>o</em>-Fluorobenzotrifluoride;2-Fluorobenzotrifluoride;<em>o</em>,α,α,α-Tetrafluorotoluene;2-Trifluoromethylfluorobenzene;<em>o</em>-Fluoro(trifluoromethyl)benzene;NSC 10314;2-Fluoro-1-trifluoromethylbenzene",
    "duplicated_cas_no": "",
    "SMILES": "C(F)(F)(F)C1=C(F)C=CC=C1",
    "meta_data": {
        "InChI": "InChI=1S/C7H4F4/c8-6-4-2-1-3-5(6)7(9,10)11/h1-4H",
        "InChIKey": null,
        "Canonical SMILES": "FC=1C=CC=CC1C(F)(F)F",
        "Molecular Formula": "C<sub>7</sub>H<sub>4</sub>F<sub>4</sub>",
        "Molecular Mass": "164.10",
        "Boiling Point": "114.5 °C"
    }
}