{
    "cas_no": "2131-63-7",
    "key_name": "3-Isothiocyanatobenzoic acid",
    "cn_name": "3-羧基异硫氰酸苯酯;",
    "alternate_name": "Benzoic acid, 3-isothiocyanato-;Benzoic acid, <em>m</em>-isothiocyanato-;3-Isothiocyanatobenzoic acid;<em>m</em>-Isothiocyanatobenzoic acid;3-Carboxyphenyl isothiocyanate;NSC 53162",
    "duplicated_cas_no": "",
    "SMILES": "N(=C=S)C1=CC(C(O)=O)=CC=C1",
    "meta_data": {
        "InChI": "InChI=1S/C8H5NO2S/c10-8(11)6-2-1-3-7(4-6)9-5-12/h1-4H,(H,10,11)",
        "InChIKey": null,
        "Canonical SMILES": "O=C(O)C=1C=CC=C(N=C=S)C1",
        "Molecular Formula": "C<sub>8</sub>H<sub>5</sub>NO<sub>2</sub>S",
        "Molecular Mass": "179.20",
        "Melting Point": "165 °C"
    }
}