{
    "cas_no": "100-38-9",
    "key_name": "2-(Diethylamino)ethanethiol",
    "cn_name": "2-二乙氨基乙硫醇;",
    "alternate_name": "Ethanethiol, 2-(diethylamino)-;2-(Diethylamino)ethanethiol;Diethylcysteamine;Diethyl(2-mercaptoethyl)amine;2-(Diethylamino)ethyl mercaptan;<em>N</em>,<em>N</em>-Diethylcysteamine;2-(<em>N</em>,<em>N</em>-Diethylamino)ethanethiol;(2-Mercaptoethyl)diethylamine;NSC 49193;2-(Diethylamino)ethane-1-thiol",
    "duplicated_cas_no": "",
    "SMILES": "N(CCS)(CC)CC",
    "meta_data": {
        "InChI": "InChI=1S/C6H15NS/c1-3-7(4-2)5-6-8/h8H,3-6H2,1-2H3",
        "InChIKey": null,
        "Canonical SMILES": "SCCN(CC)CC",
        "Molecular Formula": "C<sub>6</sub>H<sub>15</sub>NS",
        "Molecular Mass": "133.26",
        "Boiling Point": "74 °C @ Press: 32 Torr",
        "Density": "0.8751 g/cm³ @ Temp: 20 °C"
    }
}