{
    "cas_no": "78350-50-2",
    "key_name": "4-Amino-1,2,5-oxadiazole-3-carboxylic acid",
    "cn_name": "3-氨基呋咱-4-羧酸;4-氨基-1,2,5-恶二唑-3-羧酸;",
    "alternate_name": "1,2,5-Oxadiazole-3-carboxylic acid, 4-amino-;Furazancarboxylic acid, amino-;4-Amino-1,2,5-oxadiazole-3-carboxylic acid;4-Amino-3-furazancarboxylic acid",
    "duplicated_cas_no": "",
    "SMILES": "C(O)(=O)C=1C(N)=NON1",
    "meta_data": {
        "InChI": "InChI=1S/C3H3N3O3/c4-2-1(3(7)8)5-9-6-2/h(H2,4,6)(H,7,8)",
        "InChIKey": null,
        "Canonical SMILES": "O=C(O)C1=NON=C1N",
        "Molecular Formula": "C<sub>3</sub>H<sub>3</sub>N<sub>3</sub>O<sub>3</sub>",
        "Molecular Mass": "129.07",
        "Melting Point": "216-217 °C",
        "Density": "1.859 g/cm³"
    }
}