{
    "cas_no": "1074-89-1",
    "key_name": "6-Methoxy-9<em>H</em>-purine",
    "cn_name": "6-甲氧基嘌呤;",
    "alternate_name": "9<em>H</em>-Purine, 6-methoxy-;Purine, 6-methoxy-;1<em>H</em>-Purine, 6-methoxy-;6-Methoxy-9<em>H</em>-purine;6-Methoxypurine;<em>O</em>-Methylhypoxanthine;<em>O</em><sup>6</sup>-Methylhypoxanthine;NSC 23723",
    "duplicated_cas_no": "2365-42-6",
    "SMILES": "O(C)C1=C2C(N=CN2)=NC=N1",
    "meta_data": {
        "InChI": "InChI=1S/C6H6N4O/c1-11-6-4-5(8-2-7-4)9-3-10-6/h2-3H,1H3,(H,7,8,9,10)",
        "InChIKey": null,
        "Canonical SMILES": "N1=CN=C(OC)C=2NC=NC12",
        "Molecular Formula": "C<sub>6</sub>H<sub>6</sub>N<sub>4</sub>O",
        "Molecular Mass": "150.14",
        "Melting Point": "195-196 °C"
    }
}