{
    "cas_no": "4162-45-2",
    "key_name": "Tetrabromobisphenol A bis(2-hydroxyethyl) ether",
    "cn_name": "2,2-双[4-(2-羟基乙氧基)-3,5-二溴苯基]丙烷;",
    "alternate_name": "Ethanol, 2,2′-[(1-methylethylidene)bis[(2,6-dibromo-4,1-phenylene)oxy]]bis-;Ethanol, 2,2′-[isopropylidenebis[(2,6-dibromo-<em>p</em>-phenylene)oxy]]di-;2,2′-[(1-Methylethylidene)bis[(2,6-dibromo-4,1-phenylene)oxy]]bis[ethanol];2,2′-Isopropylidenebis[(2,6-dibromo-<em>p</em>-phenyleneoxy)diethanol];2,2-Bis[4-(2-hydroxyethoxy)-3,5-dibromophenyl]propane;2,2-Bis[3,5-dibromo-4-(2-hydroxyethoxy)phenyl]propane;2,2-Bis[3,5-dibromo-4-(β-hydroxyethoxy)phenyl]propane;Fire Guard 3600;AFR 1011;BA 50P;BA 50;FG 3600;Tetrabromobisphenol A bis(2-hydroxyethyl) ether;4,4′-Isopropylidenebis[2-(2,6-dibromophenoxy)ethanol];TBA-EO 20;2-[2,6-Dibromo-4-[2-[3,5-dibromo-4-(2-hydroxyethoxy)phenyl]propan-2-yl]phenoxy]ethanol",
    "duplicated_cas_no": "105417-76-3;132185-10-5;47524-60-7;84871-79-4;91105-01-0;808144-01-6",
    "SMILES": "C(C)(C)(C1=CC(Br)=C(OCCO)C(Br)=C1)C2=CC(Br)=C(OCCO)C(Br)=C2",
    "meta_data": {
        "InChI": "InChI=1S/C19H20Br4O4/c1-19(2,11-7-13(20)17(14(21)8-11)26-5-3-24)12-9-15(22)18(16(23)10-12)27-6-4-25/h7-10,24-25H,3-6H2,1-2H3",
        "InChIKey": null,
        "Canonical SMILES": "BrC=1C=C(C=C(Br)C1OCCO)C(C2=CC(Br)=C(OCCO)C(Br)=C2)(C)C",
        "Molecular Formula": "C<sub>19</sub>H<sub>20</sub>Br<sub>4</sub>O<sub>4</sub>",
        "Molecular Mass": "631.98",
        "Melting Point": "107 °C"
    }
}