{
    "cas_no": "1835-65-0",
    "key_name": "3,4,5,6-Tetrafluoro-1,2-benzenedicarbonitrile",
    "cn_name": "3,4,5,6-四氟邻苯二腈;3,4,5,6-四氟邻苯二甲腈;",
    "alternate_name": "1,2-Benzenedicarbonitrile, 3,4,5,6-tetrafluoro-;Phthalonitrile, tetrafluoro-;3,4,5,6-Tetrafluoro-1,2-benzenedicarbonitrile;Tetrafluorophthalonitrile;1,2-Dicyanotetrafluorobenzene;3,4,5,6-Tetrafluorophthalodinitrile;3,4,5,6-Tetrafluorophthalonitrile;1,2-Dicyano-3,4,5,6-tetrafluorobenzene;3,4,5,6-Tetrafluoro-1,2-dicyanobenzene;Perfluorophthalonitrile;Tetrafluoro-1,2-dicyanobenzene",
    "duplicated_cas_no": "185506-63-2",
    "SMILES": "C(#N)C1=C(C#N)C(F)=C(F)C(F)=C1F",
    "meta_data": {
        "InChI": "InChI=1S/C8F4N2/c9-5-3(1-13)4(2-14)6(10)8(12)7(5)11",
        "InChIKey": null,
        "Canonical SMILES": "N#CC=1C(F)=C(F)C(F)=C(F)C1C#N",
        "Molecular Formula": "C<sub>8</sub>F<sub>4</sub>N<sub>2</sub>",
        "Molecular Mass": "200.09",
        "Melting Point": "83 °C"
    }
}