{
    "cas_no": "1185-55-3",
    "key_name": "Methyltrimethoxysilane",
    "cn_name": "甲基三甲氧基硅烷;",
    "alternate_name": "Silane, trimethoxymethyl-;Trimethoxymethylsilane;Methyltrimethoxysilane;Z 6070;A 163;(Trimethoxysilyl)methane;KBM 13;MTS 31;Methyltrimethyloxysilane;SZ 6070;Methylsilicon trimethoxide (MeSi(OMe)<sub>3</sub>);TSL 8113;Dynasylan MTMS;SI 41;NUC Silicone A 163;Silquest A 163;AY 43-043;SS 1670;Glasca B;Silquest A 1630;LS 530;M 9100;A 1630;NSC 93883;KC 89R;ND 28;WD 921;Z 6366;ZH 1101;JH-N 311;DSL 9900;WE 22;LMD 921;MTMS;MTMS (silane);KBM 11;LS 530 (silane);DB 8030;SIP 6560.0;KH 370;CG 68;D 20;KH 163;DMT 20;SIM 6560.0;NP 31;CG-N 113;OFS 6070;Xiameter OFS 6070;Silane M 1 Trimethoxy;Silquest A 1630A;Si 1630;Xinlantian D 30;D 30;D 30 (silane);CG 8030;UP 302;N 113;KH 131;HZ 2007;Dowsil Z 6366;Dowsil SZ 6070;HG 211 (silane);HG 211;ND 63 (silane);ND 63;MeTMS",
    "duplicated_cas_no": "106153-30-4;120250-60-4;1937324-08-7;2353507-75-0",
    "SMILES": "[Si](OC)(OC)(OC)C",
    "meta_data": {
        "InChI": "InChI=1S/C4H12O3Si/c1-5-8(4,6-2)7-3/h1-4H3",
        "InChIKey": null,
        "Canonical SMILES": "O(C)[Si](OC)(OC)C",
        "Molecular Formula": "C<sub>4</sub>H<sub>12</sub>O<sub>3</sub>Si",
        "Molecular Mass": "136.22",
        "Boiling Point": "102.5 °C",
        "Melting Point": "-78 °C",
        "Density": "0.955 g/cm³"
    }
}