{
    "cas_no": "1300-71-6",
    "key_name": "Dimethylphenol",
    "cn_name": null,
    "alternate_name": "Phenol, dimethyl-;Xylenol;Dimethylphenol;Sudol;LBX 98",
    "duplicated_cas_no": "144700-02-7;1638758-52-7",
    "SMILES": "",
    "meta_data": {
        "InChI": "",
        "InChIKey": null,
        "Canonical SMILES": "",
        "Molecular Formula": "C<sub>8</sub>H<sub>10</sub>O",
        "Molecular Mass": "",
        "Boiling Point": "203-225 °C",
        "Melting Point": "20-76 °C",
        "Density": "1.02-1.03 g/cm³ @ Temp: 15 °C"
    }
}