{
    "cas_no": "57717-80-3",
    "key_name": "3,5-Bis(1,1-dimethylethyl)-4-hydroxy-β,β-dimethylbenzenepropanol",
    "cn_name": null,
    "alternate_name": "Benzenepropanol, 3,5-bis(1,1-dimethylethyl)-4-hydroxy-β,β-dimethyl-;3,5-Bis(1,1-dimethylethyl)-4-hydroxy-β,β-dimethylbenzenepropanol;3-(3,5-Di-<em>tert</em>-butyl-4-hydroxyphenyl)-2,2-dimethylpropyl alcohol;2,2-Dimethyl-3-(3,5-di-<em>tert</em>-butyl-4-hydroxyphenyl)-1-propanol;3-(3,5-di-<em>tert</em>-butyl-4-hydroxyphenyl)-2,2-dimethylpropanol;CGP 7930;2,6-Bis(<em>tert</em>-butyl)-4-(3-hydroxy-2,2-dimethylpropyl)phenol;2,6-Di-<em>tert</em>-butyl-4-(3-hydroxy-2,2-dimethylpropyl)phenol",
    "duplicated_cas_no": "",
    "SMILES": "C(C)(C)(C)C1=C(O)C(C(C)(C)C)=CC(CC(CO)(C)C)=C1",
    "meta_data": {
        "InChI": "InChI=1S/C19H32O2/c1-17(2,3)14-9-13(11-19(7,8)12-20)10-15(16(14)21)18(4,5)6/h9-10,20-21H,11-12H2,1-8H3",
        "InChIKey": null,
        "Canonical SMILES": "OC=1C(=CC(=CC1C(C)(C)C)CC(C)(C)CO)C(C)(C)C",
        "Molecular Formula": "C<sub>19</sub>H<sub>32</sub>O<sub>2</sub>",
        "Molecular Mass": "292.46",
        "Melting Point": "80-82 °C"
    }
}