{
    "cas_no": "177995-40-3",
    "key_name": "4-Methoxy-1,2-benzisoxazol-3-amine",
    "cn_name": null,
    "alternate_name": "1,2-Benzisoxazol-3-amine, 4-methoxy-;4-Methoxy-1,2-benzisoxazol-3-amine;3-Amino-4-methoxybenzo[<em>d</em>]isoxazole",
    "duplicated_cas_no": "",
    "SMILES": "O(C)C1=C2C(ON=C2N)=CC=C1",
    "meta_data": {
        "InChI": "InChI=1S/C8H8N2O2/c1-11-5-3-2-4-6-7(5)8(9)10-12-6/h2-4H,1H3,(H2,9,10)",
        "InChIKey": null,
        "Canonical SMILES": "N=1OC2=CC=CC(OC)=C2C1N",
        "Molecular Formula": "C<sub>8</sub>H<sub>8</sub>N<sub>2</sub>O<sub>2</sub>",
        "Molecular Mass": "164.16",
        "Melting Point": "141-142 °C"
    }
}