{
    "cas_no": "617-35-6",
    "key_name": "Ethyl pyruvate",
    "cn_name": "丙酮酸乙酯;",
    "alternate_name": "Propanoic acid, 2-oxo-, ethyl ester;Pyruvic acid, ethyl ester;Ethyl pyruvate;Ethyl 2-oxopropanoate;Ethyl 2-oxopropionate;Ethyl methylglyoxylate;2-Oxopropanoic acid ethyl ester;NSC 48386;2-Oxopropionic acid ethyl ester;Methyl ethoxycarbonyl ketone",
    "duplicated_cas_no": "",
    "SMILES": "C(OCC)(C(C)=O)=O",
    "meta_data": {
        "InChI": "InChI=1S/C5H8O3/c1-3-8-5(7)4(2)6/h3H2,1-2H3",
        "InChIKey": null,
        "Canonical SMILES": "O=C(OCC)C(=O)C",
        "Molecular Formula": "C<sub>5</sub>H<sub>8</sub>O<sub>3</sub>",
        "Molecular Mass": "116.12",
        "Boiling Point": "155 °C",
        "Melting Point": "-50 °C",
        "Density": "1.0596 g/cm³ @ Temp: 15-16 °C"
    }
}