{
    "cas_no": "855-38-9",
    "key_name": "Tris(4-methoxyphenyl)phosphine",
    "cn_name": "三(4-甲氧苯基)膦;三(4-甲氧苯基)膦;",
    "alternate_name": "Phosphine, tris(4-methoxyphenyl)-;Phosphine, tris(<em>p</em>-methoxyphenyl)-;Tris(4-methoxyphenyl)phosphine;Tri-<em>p</em>-anisylphosphine;Tris(<em>p</em>-methoxyphenyl)phosphine;Tris(<em>p</em>-anisyl)phosphine;Trianisylphosphine;Tri(<em>p</em>-methoxyphenyl)phosphine;Tris(4-anisyl)phosphine;Tri(4-methoxyphenyl)phosphine;NSC 136458;TPAP;Tris(4-methoxylphenyl)phosphine;Tris(4-methoxyphenyl)phosphane",
    "duplicated_cas_no": "24342-83-4",
    "SMILES": "P(C1=CC=C(OC)C=C1)(C2=CC=C(OC)C=C2)C3=CC=C(OC)C=C3",
    "meta_data": {
        "InChI": "InChI=1S/C21H21O3P/c1-22-16-4-10-19(11-5-16)25(20-12-6-17(23-2)7-13-20)21-14-8-18(24-3)9-15-21/h4-15H,1-3H3",
        "InChIKey": null,
        "Canonical SMILES": "O(C1=CC=C(C=C1)P(C2=CC=C(OC)C=C2)C3=CC=C(OC)C=C3)C",
        "Molecular Formula": "C<sub>21</sub>H<sub>21</sub>O<sub>3</sub>P",
        "Molecular Mass": "352.36",
        "Melting Point": "131 °C"
    }
}