{
    "cas_no": "89380-77-8",
    "key_name": "2-Thiophenecarboxylic acid, 3-hydroxy-5-nitro-, methyl ester",
    "cn_name": "3-羟基-5-硝基噻吩-2-羧酸甲酯;",
    "alternate_name": "2-Thiophenecarboxylic acid, 3-hydroxy-5-nitro-, methyl ester;Methyl 3-hydroxy-5-nitro-2-thiophenecarboxylate;3-Hydroxy-5-nitro-thiophene-2-carboxylic acid methyl ester",
    "duplicated_cas_no": "",
    "SMILES": "C(OC)(=O)C=1SC(N(=O)=O)=CC1O",
    "meta_data": {
        "InChI": "InChI=1S/C6H5NO5S/c1-12-6(9)5-3(8)2-4(13-5)7(10)11/h2,8H,1H3",
        "InChIKey": null,
        "Canonical SMILES": "O=C(OC)C=1SC(=CC1O)N(=O)=O",
        "Molecular Formula": "C<sub>6</sub>H<sub>5</sub>NO<sub>5</sub>S",
        "Molecular Mass": "203.17",
        "Melting Point": "110-111 °C"
    }
}