{
    "cas_no": "25561-30-2",
    "key_name": "Bis(trimethylsilyl)trifluoroacetamide",
    "cn_name": "N,O-双(三甲基硅烷基)三氟乙酰胺;",
    "alternate_name": "Ethanimidic acid, 2,2,2-trifluoro-<em>N</em>-(trimethylsilyl)-, trimethylsilyl ester;Acetimidic acid, 2,2,2-trifluoro-<em>N</em>-(trimethylsilyl)-, trimethylsilyl ester;Silanol, trimethyl-, 2,2,2-trifluoro-<em>N</em>-(trimethylsilyl)acetimidate;<em>N</em>,<em>O</em>-Bis(trimethylsilyl)trifluoroacetamide;Trifluoro-<em>N</em>,<em>O</em>-bis(trimethylsilyl)acetamide;2,2,2-Trifluoro-<em>N</em>,<em>O</em>-bis(trimethylsilyl)acetamide;<em>N</em>,<em>O</em>-Bis(trimethylsilyl)trifluoracetamide;BSTFA;Bis(trimethylsilyl)trifluoroacetamide;NSC 379423",
    "duplicated_cas_no": "",
    "SMILES": "C(=N[Si](C)(C)C)(O[Si](C)(C)C)C(F)(F)F",
    "meta_data": {
        "InChI": "InChI=1S/C8H18F3NOSi2/c1-14(2,3)12-7(8(9,10)11)13-15(4,5)6/h1-6H3",
        "InChIKey": null,
        "Canonical SMILES": "FC(F)(F)C(=N[Si](C)(C)C)O[Si](C)(C)C",
        "Molecular Formula": "C<sub>8</sub>H<sub>18</sub>F<sub>3</sub>NOSi<sub>2</sub>",
        "Molecular Mass": "257.40",
        "Boiling Point": "45-50 °C @ Press: 15 Torr",
        "Melting Point": "-10 °C",
        "Density": "0.969 g/cm³"
    }
}