{
    "cas_no": "7635-29-2",
    "key_name": "<em>O</em>-Methyltyrosine",
    "cn_name": null,
    "alternate_name": "Tyrosine, <em>O</em>-methyl-;Alanine, 3-(<em>p</em>-methoxyphenyl)-, <span class=\"text-smallcaps\">DL</span>-;<span class=\"text-smallcaps\">DL</span>-Tyrosine, <em>O</em>-methyl-;<em>O</em>-Methyltyrosine;<em>p</em>-Methoxy-<span class=\"text-smallcaps\">DL</span>-phenylalanine;<em>O</em>-Methyl-<span class=\"text-smallcaps\">DL</span>-tyrosine;Phenylalanine, 4-methoxy-;4-Methoxyphenylalanine;<span class=\"text-smallcaps\">DL</span>-<em>o</em>-Methyltyrosine;<span class=\"text-smallcaps\">DL</span>-4-Methoxyphenylalanine;NSC 101132;α-Amino-4-methoxybenzenepropanoic acid;2-Amino-3-(4-methoxyphenyl)propanoic acid;2-Amino-3-(4-methoxyphenyl)propanoicacid",
    "duplicated_cas_no": "3308-72-3",
    "SMILES": "C(C(C(O)=O)N)C1=CC=C(OC)C=C1",
    "meta_data": {
        "InChI": "InChI=1S/C10H13NO3/c1-14-8-4-2-7(3-5-8)6-9(11)10(12)13/h2-5,9H,6,11H2,1H3,(H,12,13)",
        "InChIKey": null,
        "Canonical SMILES": "O=C(O)C(N)CC1=CC=C(OC)C=C1",
        "Molecular Formula": "C<sub>10</sub>H<sub>13</sub>NO<sub>3</sub>",
        "Molecular Mass": "195.22",
        "Melting Point": "285-287 °C (decomp)"
    }
}