{
    "cas_no": "84803-57-6",
    "key_name": "4-(1,1-Dimethylethyl)-2,6-dimethylbenzeneacetonitrile",
    "cn_name": null,
    "alternate_name": "Benzeneacetonitrile, 4-(1,1-dimethylethyl)-2,6-dimethyl-;4-(1,1-Dimethylethyl)-2,6-dimethylbenzeneacetonitrile;4-<em>tert</em>-Butyl-2,6-dimethylphenylacetonitrile;2-(4-<em>tert</em>-Butyl-2,6-dimethylphenyl)acetonitrile",
    "duplicated_cas_no": "",
    "SMILES": "C(C#N)C1=C(C)C=C(C(C)(C)C)C=C1C",
    "meta_data": {
        "InChI": "InChI=1S/C14H19N/c1-10-8-12(14(3,4)5)9-11(2)13(10)6-7-15/h8-9H,6H2,1-5H3",
        "InChIKey": null,
        "Canonical SMILES": "N#CCC=1C(=CC(=CC1C)C(C)(C)C)C",
        "Molecular Formula": "C<sub>14</sub>H<sub>19</sub>N",
        "Molecular Mass": "201.31",
        "Boiling Point": "169-170 °C @ Press: 23 Torr",
        "Melting Point": "90 °C"
    }
}