{
    "cas_no": "693-13-0",
    "key_name": "Diisopropylcarbodiimide",
    "cn_name": "N,N\"-二异丙基碳二亚胺;N,N\"-二异丙基碳酰亚胺;",
    "alternate_name": "2-Propanamine, <em>N</em>,<em>N</em>′-methanetetraylbis-;Carbodiimide, diisopropyl-;<em>N</em>,<em>N</em>′-Methanetetraylbis[2-propanamine];<em>N</em>,<em>N</em>′-Diisopropylcarbodiimide;Diisopropylcarbodiimide;1,3-Diisopropylcarbodiimide;DIC;DIPC;NSC 42080;DIPCDI;DIPCI;<em>N</em>,<em>N</em>′-Diisopropylmethanediimine;(Propan-2-yl)([[(propan-2-yl)imino]methylidene])amine;N,N′-Methane-tetraylbis(1-methylethylamine)",
    "duplicated_cas_no": "",
    "SMILES": "C(=NC(C)C)=NC(C)C",
    "meta_data": {
        "InChI": "InChI=1S/C7H14N2/c1-6(2)8-5-9-7(3)4/h6-7H,1-4H3",
        "InChIKey": null,
        "Canonical SMILES": "C(=NC(C)C)=NC(C)C",
        "Molecular Formula": "C<sub>7</sub>H<sub>14</sub>N<sub>2</sub>",
        "Molecular Mass": "126.20",
        "Boiling Point": "147 °C",
        "Density": "0.815 g/cm³"
    }
}