{
    "cas_no": "133238-87-6",
    "key_name": "2-Butyl-5-nitrobenzofuran",
    "cn_name": null,
    "alternate_name": "Benzofuran, 2-butyl-5-nitro-;2-Butyl-5-nitrobenzofuran;2-<em>n</em>-Butyl-5-nitrobenzofuran;2-Butyl-5-nitro-1-benzofuran",
    "duplicated_cas_no": "",
    "SMILES": "N(=O)(=O)C=1C=C2C(OC(CCCC)=C2)=CC1",
    "meta_data": {
        "InChI": "InChI=1S/C12H13NO3/c1-2-3-4-11-8-9-7-10(13(14)15)5-6-12(9)16-11/h5-8H,2-4H2,1H3",
        "InChIKey": null,
        "Canonical SMILES": "O=N(=O)C=1C=CC=2OC(=CC2C1)CCCC",
        "Molecular Formula": "C<sub>12</sub>H<sub>13</sub>NO<sub>3</sub>",
        "Molecular Mass": "219.24",
        "Boiling Point": "120-123 °C"
    }
}