{
    "cas_no": "2917-46-6",
    "key_name": "Bis(chloromethyl)dimethylsilane",
    "cn_name": "双二氯甲基二甲基硅烷;",
    "alternate_name": "Silane, bis(chloromethyl)dimethyl-;Bis(chloromethyl)dimethylsilane",
    "duplicated_cas_no": "",
    "SMILES": "[Si](CCl)(CCl)(C)C",
    "meta_data": {
        "InChI": "InChI=1S/C4H10Cl2Si/c1-7(2,3-5)4-6/h3-4H2,1-2H3",
        "InChIKey": null,
        "Canonical SMILES": "ClC[Si](C)(C)CCl",
        "Molecular Formula": "C<sub>4</sub>H<sub>10</sub>Cl<sub>2</sub>Si",
        "Molecular Mass": "157.11",
        "Boiling Point": "163-164 °C",
        "Density": "1.075 g/cm³"
    }
}