{
    "cas_no": "59729-32-7",
    "key_name": "Citalopram hydrobromide",
    "cn_name": null,
    "alternate_name": "5-Isobenzofurancarbonitrile, 1-[3-(dimethylamino)propyl]-1-(4-fluorophenyl)-1,3-dihydro-, hydrobromide (1:1);5-Isobenzofurancarbonitrile, 1-[3-(dimethylamino)propyl]-1-(4-fluorophenyl)-1,3-dihydro-, monohydrobromide;Citalopram hydrobromide;Seropram;Cipramil;Celexa;Cipram;Lupram;Apertia;Sepram;Lu 10-171B;Elopram;Prisdal;(±)-Citalopram hydrobromide;Lecital;S-Pram;Pramcit;Cheer;Citopram;[3-(Dimethylamino)propyl]-1-(4-fluorophenyl)-1,3-dihydro-2-isobenzofuran-5-carbonitrile hydrobromide;1-[3-(Dimethylamino)propyl]-1-(4-fluorophenyl)-1,3-dihydro-2-benzofuran-5-carbonitrile hydrobromide;Oropram",
    "duplicated_cas_no": "",
    "SMILES": "C(CCN(C)C)C1(C=2C(CO1)=CC(C#N)=CC2)C3=CC=C(F)C=C3.Br",
    "meta_data": {
        "InChI": "InChI=1S/C20H21FN2O.BrH/c1-23(2)11-3-10-20(17-5-7-18(21)8-6-17)19-9-4-15(13-22)12-16(19)14-24-20;/h4-9,12H,3,10-11,14H2,1-2H3;1H",
        "InChIKey": null,
        "Canonical SMILES": "Br.N#CC1=CC=C2C(=C1)COC2(C3=CC=C(F)C=C3)CCCN(C)C",
        "Molecular Formula": "C<sub>20</sub>H<sub>21</sub>FN<sub>2</sub>O.BrH",
        "Molecular Mass": "",
        "Melting Point": "182-183 °C"
    }
}