{
    "cas_no": "120738-89-8",
    "key_name": "<em>N</em>-[(6-Chloro-3-pyridinyl)methyl]-<em>N</em>-ethyl-<em>N</em>′-methyl-2-nitro-1,1-ethenediamine",
    "cn_name": "烯啶虫胺;(E)-N-(6-氯-3-吡啶甲基)-N-乙基-N\"-甲基-2-硝基亚乙烯基二胺;",
    "alternate_name": "1,1-Ethenediamine, <em>N</em>-[(6-chloro-3-pyridinyl)methyl]-<em>N</em>-ethyl-<em>N</em>′-methyl-2-nitro-;<em>N</em>-[(6-Chloro-3-pyridinyl)methyl]-<em>N</em>-ethyl-<em>N</em>′-methyl-2-nitro-1,1-ethenediamine",
    "duplicated_cas_no": "",
    "SMILES": "N(C(=CN(=O)=O)NC)(CC=1C=CC(Cl)=NC1)CC",
    "meta_data": {
        "InChI": "InChI=1S/C11H15ClN4O2/c1-3-15(11(13-2)8-16(17)18)7-9-4-5-10(12)14-6-9/h4-6,8,13H,3,7H2,1-2H3",
        "InChIKey": null,
        "Canonical SMILES": "O=N(=O)C=C(NC)N(CC1=CN=C(Cl)C=C1)CC",
        "Molecular Formula": "C<sub>11</sub>H<sub>15</sub>ClN<sub>4</sub>O<sub>2</sub>",
        "Molecular Mass": "270.72",
        "Melting Point": "83.5 °C"
    }
}