{
    "cas_no": "156-38-7",
    "key_name": "Hydroxyphenylacetic acid",
    "cn_name": "对羟基苯乙酸;",
    "alternate_name": "Benzeneacetic acid, 4-hydroxy-;Acetic acid, (<em>p</em>-hydroxyphenyl)-;4-Hydroxybenzeneacetic acid;(4-Hydroxyphenyl)acetic acid;Hydroxyphenylacetic acid;4-(Carboxymethyl)phenol;(<em>p</em>-Hydroxyphenyl)acetic acid;NSC 25066;NSC 27460;2-[4-(Hydroxy)phenyl]acetic acid;<em>p</em>-Hydroxybenzeneacetic acid;2-(4′-Hydroxyphenyl)acetic acid;4′-Hydroxyphenylacetic acid",
    "duplicated_cas_no": "",
    "SMILES": "C(C(O)=O)C1=CC=C(O)C=C1",
    "meta_data": {
        "InChI": "InChI=1S/C8H8O3/c9-7-3-1-6(2-4-7)5-8(10)11/h1-4,9H,5H2,(H,10,11)",
        "InChIKey": null,
        "Canonical SMILES": "O=C(O)CC1=CC=C(O)C=C1",
        "Molecular Formula": "C<sub>8</sub>H<sub>8</sub>O<sub>3</sub>",
        "Molecular Mass": "152.15",
        "Boiling Point": "120-130 °C @ Press: 0.01 Torr",
        "Melting Point": "152 °C"
    }
}