{
    "cas_no": "116632-54-3",
    "key_name": "2-Chloro-3-quinolinamine",
    "cn_name": null,
    "alternate_name": "3-Quinolinamine, 2-chloro-;2-Chloro-3-quinolinamine;2-Chloroquinolin-3-ylamine;2-Chloroquinolin-3-amine",
    "duplicated_cas_no": "",
    "SMILES": "NC1=CC2=C(N=C1Cl)C=CC=C2",
    "meta_data": {
        "InChI": "InChI=1S/C9H7ClN2/c10-9-7(11)5-6-3-1-2-4-8(6)12-9/h1-5H,11H2",
        "InChIKey": null,
        "Canonical SMILES": "ClC=1N=C2C=CC=CC2=CC1N",
        "Molecular Formula": "C<sub>9</sub>H<sub>7</sub>ClN<sub>2</sub>",
        "Molecular Mass": "178.62",
        "Melting Point": "168 °C"
    }
}