{
    "cas_no": "610-71-9",
    "key_name": "2,5-Dibromobenzoic acid",
    "cn_name": "2,5-二溴苯甲酸;",
    "alternate_name": "Benzoic acid, 2,5-dibromo-;2,5-Dibromobenzoic acid;NSC 190697",
    "duplicated_cas_no": "",
    "SMILES": "C(O)(=O)C1=C(Br)C=CC(Br)=C1",
    "meta_data": {
        "InChI": "InChI=1S/C7H4Br2O2/c8-4-1-2-6(9)5(3-4)7(10)11/h1-3H,(H,10,11)",
        "InChIKey": null,
        "Canonical SMILES": "O=C(O)C1=CC(Br)=CC=C1Br",
        "Molecular Formula": "C<sub>7</sub>H<sub>4</sub>Br<sub>2</sub>O<sub>2</sub>",
        "Molecular Mass": "279.91",
        "Melting Point": "157 °C"
    }
}