{
    "cas_no": "167933-07-5",
    "key_name": "Flibanserin",
    "cn_name": "氟立班丝氨;3-[2-[4-[4-(三氟甲基)苯基]哌嗪-1-基]乙基]-1H-苯并咪唑-2-酮;",
    "alternate_name": "2<em>H</em>-Benzimidazol-2-one, 1,3-dihydro-1-[2-[4-[3-(trifluoromethyl)phenyl]-1-piperazinyl]ethyl]-;1,3-Dihydro-1-[2-[4-[3-(trifluoromethyl)phenyl]-1-piperazinyl]ethyl]-2<em>H</em>-benzimidazol-2-one;BIMT 17;Flibanserin;BIMT 17BS;Addyi;1-(2-[4-[3-(Trifluoromethyl)phenyl]piperazin-1-yl]ethyl)-1,3-dihydro-2<em>H</em>-benzimidazol-2-one",
    "duplicated_cas_no": "",
    "SMILES": "C(CN1CCN(CC1)C2=CC(C(F)(F)F)=CC=C2)N3C=4C(NC3=O)=CC=CC4",
    "meta_data": {
        "InChI": "InChI=1S/C20H21F3N4O/c21-20(22,23)15-4-3-5-16(14-15)26-11-8-25(9-12-26)10-13-27-18-7-2-1-6-17(18)24-19(27)28/h1-7,14H,8-13H2,(H,24,28)",
        "InChIKey": null,
        "Canonical SMILES": "O=C1NC=2C=CC=CC2N1CCN3CCN(C4=CC=CC(=C4)C(F)(F)F)CC3",
        "Molecular Formula": "C<sub>20</sub>H<sub>21</sub>F<sub>3</sub>N<sub>4</sub>O",
        "Molecular Mass": "390.40",
        "Melting Point": "150-152 °C"
    }
}