{
    "cas_no": "4702-90-3",
    "key_name": "Solvent Yellow 93",
    "cn_name": "溶剂黄93;",
    "alternate_name": "3<em>H</em>-Pyrazol-3-one, 4-[(1,5-dihydro-3-methyl-5-oxo-1-phenyl-4<em>H</em>-pyrazol-4-ylidene)methyl]-2,4-dihydro-5-methyl-2-phenyl-;2-Pyrazolin-5-one, 4,4′-methylidynebis[3-methyl-1-phenyl-;4-[(1,5-Dihydro-3-methyl-5-oxo-1-phenyl-4<em>H</em>-pyrazol-4-ylidene)methyl]-2,4-dihydro-5-methyl-2-phenyl-3<em>H</em>-pyrazol-3-one;C.I. 48160;C.I. Solvent Yellow 93;Oplas Yellow 140;Macrolex Yellow 3G;Solvent Yellow 93;Thermoplast Yellow 104;Diaresin Yellow L 3G;Plast Yellow 8000;Kayaset Yellow GN;Sandoplast Yellow 3G;Keyplast Yellow 3G;Solvaperm Yellow 3G;KP Plast Yellow G",
    "duplicated_cas_no": "59459-29-9;61969-52-6;190086-12-5",
    "SMILES": "O=C1N(N=C(C)C1C=C2C(=O)N(N=C2C)C3=CC=CC=C3)C4=CC=CC=C4",
    "meta_data": {
        "InChI": "InChI=1S/C21H18N4O2/c1-14-18(20(26)24(22-14)16-9-5-3-6-10-16)13-19-15(2)23-25(21(19)27)17-11-7-4-8-12-17/h3-13,18H,1-2H3",
        "InChIKey": null,
        "Canonical SMILES": "O=C1C(=CC2C(=O)N(N=C2C)C=3C=CC=CC3)C(=NN1C=4C=CC=CC4)C",
        "Molecular Formula": "C<sub>21</sub>H<sub>18</sub>N<sub>4</sub>O<sub>2</sub>",
        "Molecular Mass": "358.39",
        "Melting Point": "180 °C"
    }
}