{
    "cas_no": "13114-72-2",
    "key_name": "Akardite II",
    "cn_name": "3-甲基-1,1-二苯基脲;3-甲基-1,1-二苯基脲;",
    "alternate_name": "Urea, <em>N</em>′-methyl-<em>N</em>,<em>N</em>-diphenyl-;Urea, 3-methyl-1,1-diphenyl-;<em>N</em>′-Methyl-<em>N</em>,<em>N</em>-diphenylurea;Acardite II;Akardite II;Akardit II;<em>N</em>-Methyl-<em>N</em>′,<em>N</em>′-diphenylurea;Acardit II;3-Methyl-1,1-diphenyl-urea",
    "duplicated_cas_no": "",
    "SMILES": "N(C(NC)=O)(C1=CC=CC=C1)C2=CC=CC=C2",
    "meta_data": {
        "InChI": "InChI=1S/C14H14N2O/c1-15-14(17)16(12-8-4-2-5-9-12)13-10-6-3-7-11-13/h2-11H,1H3,(H,15,17)",
        "InChIKey": null,
        "Canonical SMILES": "O=C(NC)N(C=1C=CC=CC1)C=2C=CC=CC2",
        "Molecular Formula": "C<sub>14</sub>H<sub>14</sub>N<sub>2</sub>O",
        "Molecular Mass": "226.27",
        "Melting Point": "173 °C"
    }
}