{
    "cas_no": "21886-62-4",
    "key_name": "2-Chloro-1-[4-(1,1-dimethylethyl)phenyl]ethanone",
    "cn_name": "4-叔丁基-2-氯苯乙酮;",
    "alternate_name": "Ethanone, 2-chloro-1-[4-(1,1-dimethylethyl)phenyl]-;Acetophenone, 4′-<em>tert</em>-butyl-2-chloro-;2-Chloro-1-[4-(1,1-dimethylethyl)phenyl]ethanone;2-Chloro-4′-<em>tert</em>-butylacetophenone;4-<em>tert</em>-Butylphenacyl chloride;NSC 23491;1-(4-<em>tert</em>-Butylphenyl)-2-chloroethanone;1-(4-<em>tert</em>-Butylphenyl)-2-chloroethan-1-one;2-Chloro-1-(4-<em>tert</em>-butylphenyl)ethanone",
    "duplicated_cas_no": "",
    "SMILES": "C(C)(C)(C)C1=CC=C(C(CCl)=O)C=C1",
    "meta_data": {
        "InChI": "InChI=1S/C12H15ClO/c1-12(2,3)10-6-4-9(5-7-10)11(14)8-13/h4-7H,8H2,1-3H3",
        "InChIKey": null,
        "Canonical SMILES": "O=C(C1=CC=C(C=C1)C(C)(C)C)CCl",
        "Molecular Formula": "C<sub>12</sub>H<sub>15</sub>ClO",
        "Molecular Mass": "210.70",
        "Boiling Point": "142-146 °C @ Press: 1 Torr"
    }
}