{
    "cas_no": "16691-43-3",
    "key_name": "3-Amino-5-mercapto-1,2,4-triazole",
    "cn_name": null,
    "alternate_name": "3<em>H</em>-1,2,4-Triazole-3-thione, 5-amino-1,2-dihydro-;<em>s</em>-Triazole-3-thiol, 5-amino-;1,2,4-Triazolidine-3-thione, 5-imino-;5-Amino-1,2-dihydro-3<em>H</em>-1,2,4-triazole-3-thione;3-Amino-5-mercapto-1,2,4-triazole;Iminothiourazole;4<em>H</em>-3-Amino-5-mercapto-1,2,4-triazole;ENT 61388;3-Imino-5-thiourazole;3-Amino-5-mercapto-<em>s</em>-triazole;5-Amino-3-mercapto-1,2,4-triazole;3-Thio-5-amino-1,2,4-triazole;2-Amino-5-mercapto-1,3,4-triazole;3-Amino-1<em>H</em>-1,2,4-triazole-5-thiol;3-Mercapto-5-amino-1,2,4-triazole;NSC 145149;NSC 34807;5-Amino-4<em>H</em>-1,2,4-triazole-3-thiol;5-Amino-1<em>H</em>-[1,2,4]triazole-3-thiol;5-Mercapto-3-amino-1,2,4-Triazole;5-Mercapto-1,2,4-triazol-3-amine;p-AMTa;ASTA-P;3-Amino-1,2,4-triazole-5-thiol;5-Amino-2,4-dihydro-3<em>H</em>-1,2,4-triazole-3-thione",
    "duplicated_cas_no": "134127-91-6;15988-12-2;29087-39-6;41434-29-1;43162-44-3",
    "SMILES": "NC=1NC(=S)NN1",
    "meta_data": {
        "InChI": "InChI=1S/C2H4N4S/c3-1-4-2(7)6-5-1/h(H4,3,4,5,6,7)",
        "InChIKey": null,
        "Canonical SMILES": "S=C1NN=C(N)N1",
        "Molecular Formula": "C<sub>2</sub>H<sub>4</sub>N<sub>4</sub>S",
        "Molecular Mass": "116.14",
        "Melting Point": "303 °C"
    }
}