{
    "cas_no": "1074-43-7",
    "key_name": "1-Methyl-3-propylbenzene",
    "cn_name": "3-丙基甲苯;",
    "alternate_name": "Benzene, 1-methyl-3-propyl-;Toluene, <em>m</em>-propyl-;1-Methyl-3-propylbenzene;<em>m</em>-Propyltoluene;3-<em>n</em>-Propyltoluene;<em>m</em>-Methylpropylbenzene;1-Propyl-3-methylbenzene;1-Methyl-3-<em>n</em>-propylbenzene;3-Methyl-1-propylbenzene;NSC 73974;3-Propyltoluene",
    "duplicated_cas_no": "",
    "SMILES": "C(CC)C1=CC(C)=CC=C1",
    "meta_data": {
        "InChI": "InChI=1S/C10H14/c1-3-5-10-7-4-6-9(2)8-10/h4,6-8H,3,5H2,1-2H3",
        "InChIKey": null,
        "Canonical SMILES": "C=1C=C(C=C(C1)CCC)C",
        "Molecular Formula": "C<sub>10</sub>H<sub>14</sub>",
        "Molecular Mass": "134.22",
        "Boiling Point": "182 °C",
        "Melting Point": "-82.5 °C",
        "Density": "0.862 g/cm³ @ Temp: 20 °C"
    }
}