{
    "cas_no": "328-75-6",
    "key_name": "1-Nitro-3,5-bis(trifluoromethyl)benzene",
    "cn_name": "3,5-二三氟甲基硝基苯;",
    "alternate_name": "Benzene, 1-nitro-3,5-bis(trifluoromethyl)-;<em>m</em>-Xylene, α,α,α,α′,α′,α′-hexafluoro-5-nitro-;1-Nitro-3,5-bis(trifluoromethyl)benzene;3,5-Bis(trifluoromethyl)nitrobenzene;3,5-Di(trifluoromethyl)nitrobenzene;1,3-Bis(trifluoromethyl)-5-nitrobenzene",
    "duplicated_cas_no": "",
    "SMILES": "C(F)(F)(F)C1=CC(C(F)(F)F)=CC(N(=O)=O)=C1",
    "meta_data": {
        "InChI": "InChI=1S/C8H3F6NO2/c9-7(10,11)4-1-5(8(12,13)14)3-6(2-4)15(16)17/h1-3H",
        "InChIKey": null,
        "Canonical SMILES": "O=N(=O)C=1C=C(C=C(C1)C(F)(F)F)C(F)(F)F",
        "Molecular Formula": "C<sub>8</sub>H<sub>3</sub>F<sub>6</sub>NO<sub>2</sub>",
        "Molecular Mass": "259.11",
        "Boiling Point": "71-72 °C"
    }
}