{
    "cas_no": "89-05-4",
    "key_name": "Pyromellitic acid",
    "cn_name": "均苯四甲酸;",
    "alternate_name": "1,2,4,5-Benzenetetracarboxylic acid;Pyromellitic acid;1,2,4,5-Tetracarboxybenzene;NSC 6369",
    "duplicated_cas_no": "",
    "SMILES": "C(O)(=O)C1=C(C(O)=O)C=C(C(O)=O)C(C(O)=O)=C1",
    "meta_data": {
        "InChI": "InChI=1S/C10H6O8/c11-7(12)3-1-4(8(13)14)6(10(17)18)2-5(3)9(15)16/h1-2H,(H,11,12)(H,13,14)(H,15,16)(H,17,18)",
        "InChIKey": null,
        "Canonical SMILES": "O=C(O)C=1C=C(C(=O)O)C(=CC1C(=O)O)C(=O)O",
        "Molecular Formula": "C<sub>10</sub>H<sub>6</sub>O<sub>8</sub>",
        "Molecular Mass": "254.15",
        "Melting Point": "276 °C"
    }
}