{
    "cas_no": "4530-20-5",
    "key_name": "<em>N</em>-(<em>tert</em>-Butoxycarbonyl)glycine",
    "cn_name": "BOC-甘氨酸;N-叔丁氧羰基-甘氨酸;",
    "alternate_name": "Glycine, <em>N</em>-[(1,1-dimethylethoxy)carbonyl]-;Glycine, <em>N</em>-carboxy-, <em>N</em>-<em>tert</em>-butyl ester;<em>N</em>-[(1,1-Dimethylethoxy)carbonyl]glycine;<em>N</em>-<em>t</em>-Butyloxycarbonylglycine;<em>N</em><sup>α</sup>-<em>tert</em>-Butyloxycarbonylglycine;<em>N</em>-[(<em>tert</em>-Butyloxy)carbonyl]glycine;<em>N</em>-(<em>tert</em>-Butoxycarbonyl)glycine;(<em>tert</em>-Butoxycarbonyl)aminoacetic acid;<em>N</em>-BOC-glycine;2-(<em>tert</em>-Butoxycarbonylamino)acetic acid;NSC 127669;<em>N</em>-[[(1,1-Dimethylethyl)oxy]carbonyl]glycine;<em>N</em>-<em>tert</em>-Butoxycarbonyl-2-aminoacetic acid;Boc-<span class=\"text-smallcaps\">L</span>-glycine;(<em>tert</em>-Butoxycarbonyl)glycine;Boc-glycine;2-[(2-Methylpropan-2-yl)oxycarbonylamino]acetic acid",
    "duplicated_cas_no": "",
    "SMILES": "O(C(NCC(O)=O)=O)C(C)(C)C",
    "meta_data": {
        "InChI": "InChI=1S/C7H13NO4/c1-7(2,3)12-6(11)8-4-5(9)10/h4H2,1-3H3,(H,8,11)(H,9,10)",
        "InChIKey": null,
        "Canonical SMILES": "O=C(OC(C)(C)C)NCC(=O)O",
        "Molecular Formula": "C<sub>7</sub>H<sub>13</sub>NO<sub>4</sub>",
        "Molecular Mass": "175.18",
        "Melting Point": "88-89 °C"
    }
}