{
    "cas_no": "101-21-3",
    "key_name": "Chlorpropham",
    "cn_name": "氯苯胺灵;N-(3-氯苯基)氨基甲酸异丙酯;",
    "alternate_name": "Carbamic acid, <em>N</em>-(3-chlorophenyl)-, 1-methylethyl ester;Carbanilic acid, <em>m</em>-chloro-, isopropyl ester;Carbamic acid, (3-chlorophenyl)-, 1-methylethyl ester;Y 3;Chloro-IPC;Chloropropham;Chlorpropham;CI-IPC;CIPC;Elbanil;Isopropyl 3-chlorocarbanilate;Isopropyl <em>N</em>-(3-chlorophenyl)carbamate;Metoxon;Preventol 56;Triherbicide CIPC;Chlor IFC;Isopropyl <em>m</em>-chlorocarbanilate;Nexoval;Preventol;Liro CIPC;Chlor IPC;<em>m</em>-Chlorocarbanilic acid isopropyl ester;Furloe 3EC;Isopropyl <em>N</em>-(<em>m</em>-chlorophenyl)carbamate;Chlor IFK;Cl-IFK;Furloe;Bygran;Mirvale;Bud Nip;Keim-Stop;IPCPC;NSC 29466;Shield Potato Sprout Inhibitor;Neo Stop 5;MeSH ID: D002748",
    "duplicated_cas_no": "11097-02-2",
    "SMILES": "N(C(OC(C)C)=O)C1=CC(Cl)=CC=C1",
    "meta_data": {
        "InChI": "InChI=1S/C10H12ClNO2/c1-7(2)14-10(13)12-9-5-3-4-8(11)6-9/h3-7H,1-2H3,(H,12,13)",
        "InChIKey": null,
        "Canonical SMILES": "O=C(OC(C)C)NC=1C=CC=C(Cl)C1",
        "Molecular Formula": "C<sub>10</sub>H<sub>12</sub>ClNO<sub>2</sub>",
        "Molecular Mass": "213.66",
        "Boiling Point": "149 °C @ Press: 2 Torr",
        "Melting Point": "40.7-41.1 °C",
        "Density": "1.180 g/cm³ @ Temp: 30 °C"
    }
}