{
    "cas_no": "86393-32-0",
    "key_name": "Ciprofloxacin hydrochloride monohydrate",
    "cn_name": "盐酸环丙沙星(一水物);1-环丙基-6-氟-1,4-二氢-4-氧代-7-(1-哌嗪基)-3-喹啉羧酸盐酸盐一水物;",
    "alternate_name": "3-Quinolinecarboxylic acid, 1-cyclopropyl-6-fluoro-1,4-dihydro-4-oxo-7-(1-piperazinyl)-, hydrochloride, hydrate (1:1:1);3-Quinolinecarboxylic acid, 1-cyclopropyl-6-fluoro-1,4-dihydro-4-oxo-7-(1-piperazinyl)-, monohydrochloride, monohydrate;Ciprofloxacin hydrochloride monohydrate",
    "duplicated_cas_no": "",
    "SMILES": "O=C1C=2C(N(C=C1C(O)=O)C3CC3)=CC(=C(F)C2)N4CCNCC4.Cl.O",
    "meta_data": {
        "InChI": "InChI=1S/C17H18FN3O3.ClH.H2O/c18-13-7-11-14(8-15(13)20-5-3-19-4-6-20)21(10-1-2-10)9-12(16(11)22)17(23)24;;/h7-10,19H,1-6H2,(H,23,24);1H;1H2",
        "InChIKey": null,
        "Canonical SMILES": "Cl.O=C(O)C1=CN(C2=CC(=C(F)C=C2C1=O)N3CCNCC3)C4CC4.O",
        "Molecular Formula": "C<sub>17</sub>H<sub>18</sub>FN<sub>3</sub>O<sub>3</sub>.ClH.H<sub>2</sub>O",
        "Molecular Mass": "",
        "Melting Point": "318-320 °C"
    }
}