{
    "cas_no": "31729-66-5",
    "key_name": "1-Phenylcyclopropanemethanol",
    "cn_name": null,
    "alternate_name": "Cyclopropanemethanol, 1-phenyl-;1-Phenylcyclopropanemethanol;1-Phenyl-1-(hydroxymethyl)cyclopropane;1-Phenyl-1-cyclopropanemethanol;(1-Phenylcyclopropyl)methanol",
    "duplicated_cas_no": "",
    "SMILES": "C(O)C1(CC1)C2=CC=CC=C2",
    "meta_data": {
        "InChI": "InChI=1S/C10H12O/c11-8-10(6-7-10)9-4-2-1-3-5-9/h1-5,11H,6-8H2",
        "InChIKey": null,
        "Canonical SMILES": "OCC1(C=2C=CC=CC2)CC1",
        "Molecular Formula": "C<sub>10</sub>H<sub>12</sub>O",
        "Molecular Mass": "148.20",
        "Boiling Point": "117-122 °C @ Press: 112 Torr"
    }
}