{
    "cas_no": "5464-11-9",
    "key_name": "1<em>H</em>-Imidazole, 4,5-dihydro-2-(methylthio)-, hydriodide (1:1)",
    "cn_name": null,
    "alternate_name": "1<em>H</em>-Imidazole, 4,5-dihydro-2-(methylthio)-, hydriodide (1:1);2-Imidazoline, 2-(methylthio)-, monohydriodide;1<em>H</em>-Imidazole, 4,5-dihydro-2-(methylthio)-, monohydriodide;2-(Methylthio)imidazolinium iodide;2-(Methylthio)-2-imidazoline hydriodide;3-Methylthio-4,5-dihydroimidazole hydroiodide;2-Methylmercapto-4,5-dihydroimidazole hydroiodide;2-Methylsulfanyl-4,5-dihydro-1<em>H</em>-imidazole hydrogen iodide;2-Methylthio-2-imidazoline monohydroiodide;2-Methylsulfanyl-4,5-dihydro-1<em>H</em>-imidazole hydroiodide;2-(Methylthio)-4,5-dihydro-1<em>H</em>-imidazole hydroiodide;2-Methylthio-2-imidazoline hydroiodide;2-Methylthio-4,5-dihydroimidazole hydroiodide",
    "duplicated_cas_no": "142913-43-7;72317-17-0;342401-58-5",
    "SMILES": "S(C)C=1NCCN1.I",
    "meta_data": {
        "InChI": "InChI=1S/C4H8N2S.HI/c1-7-4-5-2-3-6-4;/h2-3H2,1H3,(H,5,6);1H",
        "InChIKey": null,
        "Canonical SMILES": "I.N1=C(SC)NCC1",
        "Molecular Formula": "C<sub>4</sub>H<sub>8</sub>N<sub>2</sub>S.HI",
        "Molecular Mass": "",
        "Melting Point": "140-141 °C"
    }
}