{
    "cas_no": "13506-76-8",
    "key_name": "2-Methyl-6-nitrobenzoic acid",
    "cn_name": "2-甲基-6-硝基苯甲酸;",
    "alternate_name": "Benzoic acid, 2-methyl-6-nitro-;<em>o</em>-Toluic acid, 6-nitro-;2-Methyl-6-nitrobenzoic acid;6-Methyl-2-nitrobenzoic acid;6-Nitro-<em>o</em>-toluic acid",
    "duplicated_cas_no": "27329-28-8",
    "SMILES": "C(O)(=O)C1=C(N(=O)=O)C=CC=C1C",
    "meta_data": {
        "InChI": "InChI=1S/C8H7NO4/c1-5-3-2-4-6(9(12)13)7(5)8(10)11/h2-4H,1H3,(H,10,11)",
        "InChIKey": null,
        "Canonical SMILES": "O=C(O)C=1C(=CC=CC1C)N(=O)=O",
        "Molecular Formula": "C<sub>8</sub>H<sub>7</sub>NO<sub>4</sub>",
        "Molecular Mass": "181.15",
        "Melting Point": "151-153 °C"
    }
}