{
    "cas_no": "17061-62-0",
    "key_name": "Bis(4-methoxybenzyl)amine",
    "cn_name": null,
    "alternate_name": "Benzenemethanamine, 4-methoxy-<em>N</em>-[(4-methoxyphenyl)methyl]-;Dibenzylamine, 4,4′-dimethoxy-;4-Methoxy-<em>N</em>-[(4-methoxyphenyl)methyl]benzenemethanamine;Bis(4-methoxybenzyl)amine;<em>N</em>,<em>N</em>-Bis(4-methoxybenzyl)amine;<em>N</em>-(4-Methoxybenzyl)-1-(4-methoxyphenyl)methanamine;1-(4-Methoxyphenyl)-<em>N</em>-[(4-methoxyphenyl)methyl]methanamine;Bis(<em>p</em>-methoxybenzyl)amine",
    "duplicated_cas_no": "",
    "SMILES": "C(NCC1=CC=C(OC)C=C1)C2=CC=C(OC)C=C2",
    "meta_data": {
        "InChI": "InChI=1S/C16H19NO2/c1-18-15-7-3-13(4-8-15)11-17-12-14-5-9-16(19-2)10-6-14/h3-10,17H,11-12H2,1-2H3",
        "InChIKey": null,
        "Canonical SMILES": "O(C1=CC=C(C=C1)CNCC2=CC=C(OC)C=C2)C",
        "Molecular Formula": "C<sub>16</sub>H<sub>19</sub>NO<sub>2</sub>",
        "Molecular Mass": "257.33",
        "Boiling Point": "225-230 °C @ Press: 10 Torr",
        "Melting Point": "35-37 °C"
    }
}