{
    "cas_no": "153977-22-1",
    "key_name": "2-Chloro-3-[<em>trans</em>-4-(4-chlorophenyl)cyclohexyl]-1,4-naphthalenedione",
    "cn_name": "反式-2-氯-3-[4-(4-氯苯基)环己基]-1,4-萘二酮;",
    "alternate_name": "1,4-Naphthalenedione, 2-chloro-3-[<em>trans</em>-4-(4-chlorophenyl)cyclohexyl]-;1,4-Naphthalenedione, 2-chloro-3-[4-(4-chlorophenyl)cyclohexyl]-, <em>trans</em>-;2-Chloro-3-[<em>trans</em>-4-(4-chlorophenyl)cyclohexyl]-1,4-naphthalenedione",
    "duplicated_cas_no": "",
    "SMILES": "O=C1C(=C(Cl)C(=O)C=2C1=CC=CC2)[C@H]3CC[C@@H](CC3)C4=CC=C(Cl)C=C4",
    "meta_data": {
        "InChI": "InChI=1/C22H18Cl2O2/c23-16-11-9-14(10-12-16)13-5-7-15(8-6-13)19-20(24)22(26)18-4-2-1-3-17(18)21(19)25/h1-4,9-13,15H,5-8H2/t13-,15-",
        "InChIKey": null,
        "Canonical SMILES": "O=C1C(Cl)=C(C(=O)C=2C=CC=CC12)C3CCC(C4=CC=C(Cl)C=C4)CC3",
        "Molecular Formula": "C<sub>22</sub>H<sub>18</sub>Cl<sub>2</sub>O<sub>2</sub>",
        "Molecular Mass": "385.28",
        "Melting Point": "185-187 °C"
    }
}