{
    "cas_no": "7787-20-4",
    "key_name": "(-)-Fenchone",
    "cn_name": null,
    "alternate_name": "Bicyclo[2.2.1]heptan-2-one, 1,3,3-trimethyl-, (1<em>R</em>,4<em>S</em>)-;2-Norbornanone, 1,3,3-trimethyl-, (1<em>R</em>,4<em>S</em>)-(-)-;Bicyclo[2.2.1]heptan-2-one, 1,3,3-trimethyl-, (1<em>R</em>)-;(1<em>R</em>,4<em>S</em>)-1,3,3-Trimethylbicyclo[2.2.1]heptan-2-one;(-)-Fenchone;<span class=\"text-smallcaps\">L</span>-Fenchone;<em>l</em>-Fenchone;(1<em>R</em>)-Fenchone;<span class=\"text-smallcaps\">L</span>-(-)-Fenchone;(<em>R</em>)-Fenchone;(1<em>R</em>)-(-)-Fenchone;(<em>R</em>)-(-)-Fenchone",
    "duplicated_cas_no": "11000-29-6;1421788-37-5;1822335-31-8;1980023-27-5;2180102-04-7;2308507-23-3;2566622-27-1;2925654-93-7",
    "SMILES": "C[C@]12C(=O)C(C)(C)[C@](C1)(CC2)[H]",
    "meta_data": {
        "InChI": "InChI=1S/C10H16O/c1-9(2)7-4-5-10(3,6-7)8(9)11/h7H,4-6H2,1-3H3/t7-,10+/m0/s1",
        "InChIKey": null,
        "Canonical SMILES": "O=C1C(C)(C)C2CCC1(C)C2",
        "Molecular Formula": "C<sub>10</sub>H<sub>16</sub>O",
        "Molecular Mass": "152.23",
        "Boiling Point": "193 °C",
        "Melting Point": "5 °C",
        "Density": "1.1994 g/cm³ @ Temp: 25.00 °C"
    }
}