{
    "cas_no": "767-64-6",
    "key_name": "2,1,3-Benzothiadiazol-4-amine",
    "cn_name": "4-氨基-2,1,3-苯并噻二唑;",
    "alternate_name": "2,1,3-Benzothiadiazol-4-amine;2,1,3-Benzothiadiazole, 4-amino-;4-Amino-2,1,3-benzothiadiazole;NSC 73013;Benzo[<em>c</em>][1,2,5]thiadiazol-4-amine;(Benzo[2,1,3]thiadiazol-4-yl)amine;Benzo[1,2,5]thiadiazol-4-ylamine;2λ<sup>4</sup>δ<sup>2</sup>-2,1,3-Benzothiadiazol-4-amine",
    "duplicated_cas_no": "22726-33-6;1816954-42-3;2086261-06-3",
    "SMILES": "NC=1C=2C(C=CC1)=NSN2",
    "meta_data": {
        "InChI": "InChI=1S/C6H5N3S/c7-4-2-1-3-5-6(4)9-10-8-5/h1-3H,7H2",
        "InChIKey": null,
        "Canonical SMILES": "N=1SN=C2C1C=CC=C2N",
        "Molecular Formula": "C<sub>6</sub>H<sub>5</sub>N<sub>3</sub>S",
        "Molecular Mass": "151.19",
        "Melting Point": "68 °C"
    }
}