{
    "cas_no": "122111-03-9",
    "key_name": "Gemcitabine hydrochloride",
    "cn_name": "盐酸吉西他滨;吉西他宾盐酸盐;4-氨基-1-(3,3-二氟-4-羟基-5-羟甲基四氢呋喃-2-基)-1H-嘧啶-2-酮盐酸盐;",
    "alternate_name": "Cytidine, 2′-deoxy-2′,2′-difluoro-, hydrochloride (1:1);Cytidine, 2′-deoxy-2′,2′-difluoro-, monohydrochloride;LY 188011 hydrochloride;Gemcitabine hydrochloride;Gemzar;Gemsar;Gemcitera;GEMORAL;2′-Deoxy-2′,2′-difluorocytidine monohydrochloride;Infugem",
    "duplicated_cas_no": "",
    "SMILES": "FC1(F)[C@@H](O[C@H](CO)[C@H]1O)N2C(=O)N=C(N)C=C2.Cl",
    "meta_data": {
        "InChI": "InChI=1S/C9H11F2N3O4.ClH/c10-9(11)6(16)4(3-15)18-7(9)14-2-1-5(12)13-8(14)17;/h1-2,4,6-7,15-16H,3H2,(H2,12,13,17);1H/t4-,6-,7-;/m1./s1",
        "InChIKey": null,
        "Canonical SMILES": "Cl.O=C1N=C(N)C=CN1C2OC(CO)C(O)C2(F)F",
        "Molecular Formula": "C<sub>9</sub>H<sub>11</sub>F<sub>2</sub>N<sub>3</sub>O<sub>4</sub>.ClH",
        "Molecular Mass": "",
        "Melting Point": "287-292 °C"
    }
}