{
    "cas_no": "63547-22-8",
    "key_name": "2-[(Diphenylmethyl)thio]acetic acid",
    "cn_name": "2-[(二苯甲基)巯基]乙酸;",
    "alternate_name": "Acetic acid, 2-[(diphenylmethyl)thio]-;Acetic acid, [(diphenylmethyl)thio]-;2-[(Diphenylmethyl)thio]acetic acid;(Benzhydrylthio)acetic acid;2-(Benzhydrylthio)acetic acid;(Benzhydrylsulfanyl)acetic acid;2-Benzhydrylsulfanylacetic acid;2-[(Diphenylmethyl)sulfanyl]acetic acid",
    "duplicated_cas_no": "",
    "SMILES": "C(SCC(O)=O)(C1=CC=CC=C1)C2=CC=CC=C2",
    "meta_data": {
        "InChI": "InChI=1S/C15H14O2S/c16-14(17)11-18-15(12-7-3-1-4-8-12)13-9-5-2-6-10-13/h1-10,15H,11H2,(H,16,17)",
        "InChIKey": null,
        "Canonical SMILES": "O=C(O)CSC(C=1C=CC=CC1)C=2C=CC=CC2",
        "Molecular Formula": "C<sub>15</sub>H<sub>14</sub>O<sub>2</sub>S",
        "Molecular Mass": "258.34",
        "Melting Point": "127 °C"
    }
}