{
    "cas_no": "37014-08-7",
    "key_name": "<em>N</em>-(3-Methoxyphenyl)thiourea",
    "cn_name": null,
    "alternate_name": "Thiourea, <em>N</em>-(3-methoxyphenyl)-;Thiourea, (3-methoxyphenyl)-;Urea, 1-(<em>m</em>-methoxyphenyl)-2-thio-;<em>N</em>-(3-Methoxyphenyl)thiourea;<em>N</em>-(<em>m</em>-Methoxyphenyl)thiourea;1-(<em>m</em>-Methoxyphenyl)thiourea;(3-Methoxyphenyl)thiourea;3-Thioureidoanisole;NSC 130357",
    "duplicated_cas_no": "",
    "SMILES": "N(C(N)=S)C1=CC(OC)=CC=C1",
    "meta_data": {
        "InChI": "InChI=1S/C8H10N2OS/c1-11-7-4-2-3-6(5-7)10-8(9)12/h2-5H,1H3,(H3,9,10,12)",
        "InChIKey": null,
        "Canonical SMILES": "S=C(N)NC=1C=CC=C(OC)C1",
        "Molecular Formula": "C<sub>8</sub>H<sub>10</sub>N<sub>2</sub>OS",
        "Molecular Mass": "182.24",
        "Melting Point": "159 °C"
    }
}