{
    "cas_no": "141-53-7",
    "key_name": "Sodium formate",
    "cn_name": "甲酸钠;",
    "alternate_name": "Formic acid, sodium salt (1:1);Sodium formate;Formic acid, sodium salt;NA-Amasil",
    "duplicated_cas_no": "84050-15-7;84050-16-8;84050-17-9;1015855-65-8",
    "SMILES": "C(O)=O.[Na]",
    "meta_data": {
        "InChI": "InChI=1S/CH2O2.Na/c2-1-3;/h1H,(H,2,3);",
        "InChIKey": null,
        "Canonical SMILES": "[Na].O=CO",
        "Molecular Formula": "CH<sub>2</sub>O<sub>2</sub>.Na",
        "Molecular Mass": "",
        "Melting Point": "253 °C",
        "Density": "1.92 g/cm³ @ Temp: 20 °C"
    }
}