{
    "cas_no": "19429-30-2",
    "key_name": "Dichlorobis(1,1-dimethylethyl)stannane",
    "cn_name": "二叔丁基二氯化锡;二丁基氯;[(CH3)3C]2SnCl2;",
    "alternate_name": "Stannane, dichlorobis(1,1-dimethylethyl)-;Stannane, di-<em>tert</em>-butyldichloro-;Dichlorobis(1,1-dimethylethyl)stannane;Di-<em>tert</em>-butyldichlorostannane;Dichlorodi-<em>tert</em>-butylstannane;Di-<em>tert</em>-butyltin dichloride;Di-<em>tert</em>-butyldichlorotin",
    "duplicated_cas_no": "",
    "SMILES": "[Sn](C(C)(C)C)(C(C)(C)C)(Cl)Cl",
    "meta_data": {
        "InChI": "InChI=1S/2C4H9.2ClH.Sn/c2*1-4(2)3;;;/h2*1-3H3;2*1H;/q;;;;+2/p-2",
        "InChIKey": null,
        "Canonical SMILES": "Cl[Sn](Cl)(C(C)(C)C)C(C)(C)C",
        "Molecular Formula": "C<sub>8</sub>H<sub>18</sub>Cl<sub>2</sub>Sn",
        "Molecular Mass": "303.84",
        "Boiling Point": "66 °C @ Press: 3 Torr",
        "Melting Point": "42-43 °C"
    }
}