{
    "cas_no": "52411-35-5",
    "key_name": "5-Ethyl-2-hydroxybenzaldehyde",
    "cn_name": null,
    "alternate_name": "Benzaldehyde, 5-ethyl-2-hydroxy-;Salicylaldehyde, 5-ethyl-;5-Ethyl-2-hydroxybenzaldehyde;3-Ethyl-6-hydroxybenzaldehyde;5-Ethylsalicylaldehyde",
    "duplicated_cas_no": "",
    "SMILES": "C(=O)C1=CC(CC)=CC=C1O",
    "meta_data": {
        "InChI": "InChI=1S/C9H10O2/c1-2-7-3-4-9(11)8(5-7)6-10/h3-6,11H,2H2,1H3",
        "InChIKey": null,
        "Canonical SMILES": "O=CC1=CC(=CC=C1O)CC",
        "Molecular Formula": "C<sub>9</sub>H<sub>10</sub>O<sub>2</sub>",
        "Molecular Mass": "150.17",
        "Boiling Point": "115-116 °C @ Press: 16 Torr",
        "Melting Point": "55-57 °C",
        "Density": "1.0861 g/cm³ @ Temp: 20 °C"
    }
}