{
    "cas_no": "3060-89-7",
    "key_name": "Metobromuron",
    "cn_name": "溴谷隆;3-对溴苯基-1-甲氧基甲基脲;N-(4-溴苯基)-N\"-甲氧基-N\"-甲基脲;",
    "alternate_name": "Urea, <em>N</em>′-(4-bromophenyl)-<em>N</em>-methoxy-<em>N</em>-methyl-;Urea, 3-(<em>p</em>-bromophenyl)-1-methoxy-1-methyl-;<em>N</em>′-(4-Bromophenyl)-<em>N</em>-methoxy-<em>N</em>-methylurea;C 3126;<em>N</em>-(4-Bromophenyl)-<em>N</em>′-methyl-<em>N</em>′-methoxyurea;3-(4-Bromophenyl)-1-methyl-1-methoxyurea;Metobromuron;Patoran;<em>N</em>-(<em>p</em>-Bromophenyl)-<em>N</em>′-methyl-<em>N</em>′-methoxyurea;1-Methoxy-1-methyl-3-(<em>p</em>-bromophenyl)urea;Metbromuron;3-(<em>p</em>-Bromophenyl)-1-methyl-1-methoxyurea;<em>N</em>-(4-Bromophenyl)-<em>N</em>′-methoxy-<em>N</em>′-methylurea;1-(<em>p</em>-Bromophenyl)-3-methoxy-3-methylurea;3-(<em>p</em>-Bromophenyl)-1-methoxy-1-methylurea;1-Methoxy-1-methyl-3-(4-bromophenyl)urea;Monobromuron;3-(4-Bromophenyl)-1-methoxy-1-methylurea",
    "duplicated_cas_no": "",
    "SMILES": "N(C(N(OC)C)=O)C1=CC=C(Br)C=C1",
    "meta_data": {
        "InChI": "InChI=1S/C9H11BrN2O2/c1-12(14-2)9(13)11-8-5-3-7(10)4-6-8/h3-6H,1-2H3,(H,11,13)",
        "InChIKey": null,
        "Canonical SMILES": "O=C(NC1=CC=C(Br)C=C1)N(OC)C",
        "Molecular Formula": "C<sub>9</sub>H<sub>11</sub>BrN<sub>2</sub>O<sub>2</sub>",
        "Molecular Mass": "259.10",
        "Melting Point": "95-96 °C"
    }
}