{
    "cas_no": "88-45-9",
    "key_name": "2,5-Diaminobenzenesulfonic acid",
    "cn_name": "2,5-二氨基苯磺酸;邻磺酸对苯二胺;",
    "alternate_name": "Benzenesulfonic acid, 2,5-diamino-;2,5-Diaminobenzenesulfonic acid;<em>p</em>-Phenylenediaminesulfonic acid;<em>p</em>-Phenylenediamine-2-sulfonic acid;1,4-Diaminobenzene-2-sulfonic acid;1,4-Phenylenediamine-2-sulfonic acid;1,4-Diamino-2-benzenesulfonic acid;1,4-Phenylenediamine-3-sulfonic acid;2,5-Diaminophenyl-1-sulfonic acid;2-Sulfo-1,4-phenylenediamine;2,5-Diaminobenzene-1-sulfonic acid;1,4-Diaminobenzene-3-sulfonic acid",
    "duplicated_cas_no": "",
    "SMILES": "S(=O)(=O)(O)C1=C(N)C=CC(N)=C1",
    "meta_data": {
        "InChI": "InChI=1S/C6H8N2O3S/c7-4-1-2-5(8)6(3-4)12(9,10)11/h1-3H,7-8H2,(H,9,10,11)",
        "InChIKey": null,
        "Canonical SMILES": "O=S(=O)(O)C1=CC(N)=CC=C1N",
        "Molecular Formula": "C<sub>6</sub>H<sub>8</sub>N<sub>2</sub>O<sub>3</sub>S",
        "Molecular Mass": "188.20",
        "Melting Point": "&gt;309 °C"
    }
}