{
    "cas_no": "183322-16-9",
    "key_name": "Benzoic acid, 3,4-bis(2-methoxyethoxy)-, ethyl ester",
    "cn_name": "3,4-二(2-甲氧基乙氧基)苯甲酸乙酯;",
    "alternate_name": "Benzoic acid, 3,4-bis(2-methoxyethoxy)-, ethyl ester;Ethyl 3,4-bis(2-methoxyethoxy)benzoate",
    "duplicated_cas_no": "",
    "SMILES": "O(CCOC)C1=C(OCCOC)C=CC(C(OCC)=O)=C1",
    "meta_data": {
        "InChI": "InChI=1S/C15H22O6/c1-4-19-15(16)12-5-6-13(20-9-7-17-2)14(11-12)21-10-8-18-3/h5-6,11H,4,7-10H2,1-3H3",
        "InChIKey": null,
        "Canonical SMILES": "O=C(OCC)C1=CC=C(OCCOC)C(OCCOC)=C1",
        "Molecular Formula": "C<sub>15</sub>H<sub>22</sub>O<sub>6</sub>",
        "Molecular Mass": "298.33",
        "Melting Point": "55-58 °C"
    }
}