{
    "cas_no": "2026-48-4",
    "key_name": "(+)-Valinol",
    "cn_name": "L-缬氨醇;",
    "alternate_name": "1-Butanol, 2-amino-3-methyl-, (2<em>S</em>)-;1-Butanol, 2-amino-3-methyl-, <span class=\"text-smallcaps\">L</span>-;1-Butanol, 2-amino-3-methyl-, (<em>S</em>)-;(2<em>S</em>)-2-Amino-3-methyl-1-butanol;<span class=\"text-smallcaps\">L</span>-Valinol;(<em>S</em>)-2-Amino-3-methyl-1-butanol;(<em>S</em>)-Valinol;(<em>S</em>)-(+)-Valinol;(+)-(<em>S</em>)-Valinol;(+)-Valinol;(2<em>S</em>)-Valinol;(<em>S</em>)-(+)-2-Amino-3-methyl-1-butanol;[(<em>S</em>)-1-(Hydroxymethyl)-2-methylpropyl]amine;NSC 322922;(+)-2-Amino-3-methyl-1-butanol;(<em>S</em>)-2-Amino-3-methylbutanol;(2S)-1-Hydroxy-3-methylbutan-2-amine",
    "duplicated_cas_no": "2682068-58-0",
    "SMILES": "[C@H](C(C)C)(CO)N",
    "meta_data": {
        "InChI": "InChI=1S/C5H13NO/c1-4(2)5(6)3-7/h4-5,7H,3,6H2,1-2H3/t5-/m1/s1",
        "InChIKey": null,
        "Canonical SMILES": "OCC(N)C(C)C",
        "Molecular Formula": "C<sub>5</sub>H<sub>13</sub>NO",
        "Molecular Mass": "103.16",
        "Boiling Point": "71.5-73.5 °C",
        "Melting Point": "31-32 °C"
    }
}