{
    "cas_no": "524-20-9",
    "key_name": "Armepavine",
    "cn_name": null,
    "alternate_name": "Phenol, 4-[[(1<em>R</em>)-1,2,3,4-tetrahydro-6,7-dimethoxy-2-methyl-1-isoquinolinyl]methyl]-;Armepavine;Phenol, 4-[(1,2,3,4-tetrahydro-6,7-dimethoxy-2-methyl-1-isoquinolinyl)methyl]-, (<em>R</em>)-;4-[[(1<em>R</em>)-1,2,3,4-Tetrahydro-6,7-dimethoxy-2-methyl-1-isoquinolinyl]methyl]phenol;Alkaloid D, from <em>Evonymus</em><em>europaea</em>;Evoeuropine;(-)-Armepavine;(<em>R</em>)-(-)-Armepavine;NSC 110381",
    "duplicated_cas_no": "",
    "SMILES": "C([C@@H]1C=2C(=CC(OC)=C(OC)C2)CCN1C)C3=CC=C(O)C=C3",
    "meta_data": {
        "InChI": "InChI=1S/C19H23NO3/c1-20-9-8-14-11-18(22-2)19(23-3)12-16(14)17(20)10-13-4-6-15(21)7-5-13/h4-7,11-12,17,21H,8-10H2,1-3H3/t17-/m1/s1",
        "InChIKey": null,
        "Canonical SMILES": "OC1=CC=C(C=C1)CC2C3=CC(OC)=C(OC)C=C3CCN2C",
        "Molecular Formula": "C<sub>19</sub>H<sub>23</sub>NO<sub>3</sub>",
        "Molecular Mass": "313.39",
        "Melting Point": "166 °C"
    }
}