{
    "cas_no": "7146-68-1",
    "key_name": "4-[(4-Chlorophenyl)sulfonyl]benzenamine",
    "cn_name": null,
    "alternate_name": "Benzenamine, 4-[(4-chlorophenyl)sulfonyl]-;Aniline, <em>p</em>-[(<em>p</em>-chlorophenyl)sulfonyl]-;4-[(4-Chlorophenyl)sulfonyl]benzenamine;4-Amino-4′-chlorodiphenyl sulfone;4-Aminophenyl 4-chlorophenyl sulfone;<em>p</em>-(<em>p</em>-Chlorophenylsulfonyl)aniline;<em>p</em>-Aminophenyl <em>p</em>-chlorophenyl sulfone;4-(4-Chlorobenzenesulfonyl)phenylamine;NSC 23812;NSC 51990",
    "duplicated_cas_no": "",
    "SMILES": "S(=O)(=O)(C1=CC=C(Cl)C=C1)C2=CC=C(N)C=C2",
    "meta_data": {
        "InChI": "InChI=1S/C12H10ClNO2S/c13-9-1-5-11(6-2-9)17(15,16)12-7-3-10(14)4-8-12/h1-8H,14H2",
        "InChIKey": null,
        "Canonical SMILES": "O=S(=O)(C1=CC=C(Cl)C=C1)C2=CC=C(N)C=C2",
        "Molecular Formula": "C<sub>12</sub>H<sub>10</sub>ClNO<sub>2</sub>S",
        "Molecular Mass": "267.73",
        "Melting Point": "184-185 °C"
    }
}