{
    "cas_no": "89766-91-6",
    "key_name": "Propanoic acid, 2-(aminooxy)-2-methyl-, hydrochloride (1:1)",
    "cn_name": null,
    "alternate_name": "Propanoic acid, 2-(aminooxy)-2-methyl-, hydrochloride (1:1);Propanoic acid, 2-(aminooxy)-2-methyl-, hydrochloride;Propionic acid, 2-(aminooxy)-2-methyl-, hydrochloride;1-Carboxy-1-methylethoxyammonium chloride;2,2-Dimethyl(aminooxy)acetic acid hydrochloride;2-(Aminooxy)-2-methylpropanoic acid hydrochloride",
    "duplicated_cas_no": "",
    "SMILES": "C(C(O)=O)(ON)(C)C.Cl",
    "meta_data": {
        "InChI": "InChI=1S/C4H9NO3.ClH/c1-4(2,8-5)3(6)7;/h5H2,1-2H3,(H,6,7);1H",
        "InChIKey": null,
        "Canonical SMILES": "Cl.O=C(O)C(ON)(C)C",
        "Molecular Formula": "C<sub>4</sub>H<sub>9</sub>NO<sub>3</sub>.ClH",
        "Molecular Mass": "",
        "Melting Point": "164-166 °C"
    }
}