{
    "cas_no": "885520-31-0",
    "key_name": "4-Fluoro-1<em>H</em>-indole-6-carboxylic acid",
    "cn_name": null,
    "alternate_name": "1<em>H</em>-Indole-6-carboxylic acid, 4-fluoro-;4-Fluoro-1<em>H</em>-indole-6-carboxylic acid",
    "duplicated_cas_no": "",
    "SMILES": "FC1=C2C(=CC(C(O)=O)=C1)NC=C2",
    "meta_data": {
        "InChI": "InChI=1S/C9H6FNO2/c10-7-3-5(9(12)13)4-8-6(7)1-2-11-8/h1-4,11H,(H,12,13)",
        "InChIKey": null,
        "Canonical SMILES": "O=C(O)C=1C=C(F)C=2C=CNC2C1",
        "Molecular Formula": "C<sub>9</sub>H<sub>6</sub>FNO<sub>2</sub>",
        "Molecular Mass": "179.15",
        "Melting Point": "215-217 °C"
    }
}