{
    "cas_no": "5240-72-2",
    "key_name": "Bicyclo[2.2.1]heptane-2-methanol",
    "cn_name": "2-降莰烷甲醇;降冰片烷-2-甲醇;",
    "alternate_name": "Bicyclo[2.2.1]heptane-2-methanol;2-Norbornanemethanol;CPC 1207;Experimental chemotherapeutant 1,207;2-(Hydroxymethyl)bicyclo[2.2.1]heptane;2-(Hydroxymethyl)norcamphane;2-Norcamphanemethanol;2-Norbornylmethanol;2-(Hydroxymethyl)norbornane;NSC 53599;NSC 55693;(Bicyclo[2.2.1]hept-2-yl)methanol;Bicyclo[2.2.1]heptan-2-ylmethanol;3-Bicyclo[2.2.1]heptanylmethanol",
    "duplicated_cas_no": "",
    "SMILES": "C(O)C1C2CC(C1)CC2",
    "meta_data": {
        "InChI": "InChI=1S/C8H14O/c9-5-8-4-6-1-2-7(8)3-6/h6-9H,1-5H2",
        "InChIKey": null,
        "Canonical SMILES": "OCC1CC2CCC1C2",
        "Molecular Formula": "C<sub>8</sub>H<sub>14</sub>O",
        "Molecular Mass": "126.20",
        "Boiling Point": "94 °C",
        "Density": "1.005 g/cm³ @ Temp: 20 °C"
    }
}