{
    "cas_no": "88-06-2",
    "key_name": "2,4,6-Trichlorophenol",
    "cn_name": "2,4,6-三氯酚;2,4,6-三氯苯酚;",
    "alternate_name": "Phenol, 2,4,6-trichloro-;2,4,6-Trichlorophenol;Dowicide 2S;Omal;Phenachlor;1,3,5-Trichloro-2-hydroxybenzene;2,4,6-TCP;NSC 2165;BTS 45186",
    "duplicated_cas_no": "",
    "SMILES": "OC1=C(Cl)C=C(Cl)C=C1Cl",
    "meta_data": {
        "InChI": "InChI=1S/C6H3Cl3O/c7-3-1-4(8)6(10)5(9)2-3/h1-2,10H",
        "InChIKey": null,
        "Canonical SMILES": "ClC=1C=C(Cl)C(O)=C(Cl)C1",
        "Molecular Formula": "C<sub>6</sub>H<sub>3</sub>Cl<sub>3</sub>O",
        "Molecular Mass": "197.45",
        "Boiling Point": "246 °C",
        "Melting Point": "69 °C",
        "Density": "1.4901 g/cm³"
    }
}