{
    "cas_no": "54889-48-4",
    "key_name": "1,1-Diethoxyoctane",
    "cn_name": "1,1-二乙氧基辛烷;",
    "alternate_name": "Octane, 1,1-diethoxy-;Octanal, diethyl acetal;1,1-Diethoxyoctane;NSC 408319",
    "duplicated_cas_no": "",
    "SMILES": "C(CCCCCCC)(OCC)OCC",
    "meta_data": {
        "InChI": "InChI=1S/C12H26O2/c1-4-7-8-9-10-11-12(13-5-2)14-6-3/h12H,4-11H2,1-3H3",
        "InChIKey": null,
        "Canonical SMILES": "O(CC)C(OCC)CCCCCCC",
        "Molecular Formula": "C<sub>12</sub>H<sub>26</sub>O<sub>2</sub>",
        "Molecular Mass": "202.33",
        "Boiling Point": "202-205 °C",
        "Density": "0.832 g/cm³ @ Temp: 19 °C"
    }
}