{
    "cas_no": "112-86-7",
    "key_name": "Erucic acid",
    "cn_name": "芥酸;二十二-13-烯酸;二十二碳-13-烯酸;",
    "alternate_name": "13-Docosenoic acid, (13<em>Z</em>)-;13-Docosenoic acid, (<em>Z</em>)-;(13<em>Z</em>)-13-Docosenoic acid;Erucic acid;<em>cis</em>-13-Docosenoic acid;Δ<sup>13</sup>-<em>cis</em>-Docosenoic acid;13-<em>cis</em>-Docosenoic acid;(<em>Z</em>)-13-Docosenoic acid;13(Z)-Docosenoic acid;Hystrene 2290;<em>cis</em>-13-Erucic acid;(13<em>Z</em>)-Docosenoic acid;Nouracid RE 07;Jaric 22:1;Prifrac 2990;(<em>Z</em>)-Erucic acid",
    "duplicated_cas_no": "",
    "SMILES": "C(CCCC/C=C\\CCCCCCCC)CCCCCCC(O)=O",
    "meta_data": {
        "InChI": "InChI=1S/C22H42O2/c1-2-3-4-5-6-7-8-9-10-11-12-13-14-15-16-17-18-19-20-21-22(23)24/h9-10H,2-8,11-21H2,1H3,(H,23,24)/b10-9-",
        "InChIKey": null,
        "Canonical SMILES": "O=C(O)CCCCCCCCCCCC=CCCCCCCCC",
        "Molecular Formula": "C<sub>22</sub>H<sub>42</sub>O<sub>2</sub>",
        "Molecular Mass": "338.57",
        "Boiling Point": "265 °C @ Press: 15 Torr",
        "Melting Point": "33.8 °C",
        "Density": "0.860 g/cm³ @ Temp: 55 °C"
    }
}