{
    "cas_no": "132-60-5",
    "key_name": "2-Phenyl-4-quinolinecarboxylic acid",
    "cn_name": "辛可芬;阿托方;2-苯基喹啉-4-羧酸;",
    "alternate_name": "4-Quinolinecarboxylic acid, 2-phenyl-;Cinchoninic acid, 2-phenyl-;2-Phenyl-4-quinolinecarboxylic acid;Agotan;Alutyl;Artam;Atocin;Atophan;Cinchophen;Cinchophene;Cinchophenic acid;Cinconal;Cincophen;Cincosal;Mylofanol;Phenoquin;2-Phenylcinchonic acid;2-Phenylcinchoninic acid;Quinophan;Rhematan;Rheumine;Tophol;Tophosan;Vantyl;Viophan;Quinophen;Aciphenochinolinium;Polyphlogin;Quinofen;Atofan;Artexin;Traubofan;Atigoa;Tervalon;Aminophan;Phenophan;Ikterosan;Aciphenochinoline;4-Carboxy-2-phenylquinoline;Rheumatan;Alutyo;Rheumin;NSC 2617;NSC 70178",
    "duplicated_cas_no": "",
    "SMILES": "C(O)(=O)C=1C2=C(N=C(C1)C3=CC=CC=C3)C=CC=C2",
    "meta_data": {
        "InChI": "InChI=1S/C16H11NO2/c18-16(19)13-10-15(11-6-2-1-3-7-11)17-14-9-5-4-8-12(13)14/h1-10H,(H,18,19)",
        "InChIKey": null,
        "Canonical SMILES": "O=C(O)C1=CC(=NC=2C=CC=CC21)C=3C=CC=CC3",
        "Molecular Formula": "C<sub>16</sub>H<sub>11</sub>NO<sub>2</sub>",
        "Molecular Mass": "249.26",
        "Melting Point": "218 °C"
    }
}