{
    "cas_no": "68460-01-5",
    "key_name": "3<em>H</em>-2,1-Benzoxathiol-3-one, 4,5,6,7-tetrabromo-, 1,1-dioxide",
    "cn_name": "四溴-2-磺基苯甲酸环酐;",
    "alternate_name": "3<em>H</em>-2,1-Benzoxathiol-3-one, 4,5,6,7-tetrabromo-, 1,1-dioxide;3,4,5,6-Tetrabromo-2-sulfobenzoic acid cyclic anhydride;Tetrabromo-<em>o</em>-sulfobenzoic anhydride;Tetrabromo-2-sulfobenzoic acid cycloanhydride;Tetrabromo-<em>o</em>-sulfobenzoic acid cyclic anhydride;Tetrabromo-2-sulfobenzoic acid cyclic anhydride",
    "duplicated_cas_no": "",
    "SMILES": "O=C1C=2C(S(=O)(=O)O1)=C(Br)C(Br)=C(Br)C2Br",
    "meta_data": {
        "InChI": "InChI=1S/C7Br4O4S/c8-2-1-6(5(11)4(10)3(2)9)16(13,14)15-7(1)12",
        "InChIKey": null,
        "Canonical SMILES": "O=C1OS(=O)(=O)C=2C(Br)=C(Br)C(Br)=C(Br)C12",
        "Molecular Formula": "C<sub>7</sub>Br<sub>4</sub>O<sub>4</sub>S",
        "Molecular Mass": "499.75",
        "Melting Point": "216-217 °C"
    }
}