{
    "cas_no": "19152-93-3",
    "key_name": "2,4-Diamino-6-phenyl-7(8<em>H</em>)-pteridinone",
    "cn_name": null,
    "alternate_name": "7(8<em>H</em>)-Pteridinone, 2,4-diamino-6-phenyl-;7-Pteridinol, 2,4-diamino-6-phenyl-;7(1<em>H</em>)-Pteridinone, 2,4-diamino-6-phenyl-;2,4-Diamino-6-phenyl-7(8<em>H</em>)-pteridinone;2,4-Diamino-7-hydroxy-6-phenylpteridine;NSC 33416;2,4-Diamino-6-phenyl-8<em>H</em>-pteridin-7-one;2,4-Diamino-6-phenyl-7-pteridinol",
    "duplicated_cas_no": "",
    "SMILES": "NC1=C2C(NC(=O)C(=N2)C3=CC=CC=C3)=NC(N)=N1",
    "meta_data": {
        "InChI": "InChI=1S/C12H10N6O/c13-9-8-10(18-12(14)16-9)17-11(19)7(15-8)6-4-2-1-3-5-6/h1-5H,(H5,13,14,16,17,18,19)",
        "InChIKey": null,
        "Canonical SMILES": "O=C1NC=2N=C(N=C(N)C2N=C1C=3C=CC=CC3)N",
        "Molecular Formula": "C<sub>12</sub>H<sub>10</sub>N<sub>6</sub>O",
        "Molecular Mass": "254.25",
        "Melting Point": "406-408 °C (decomp)"
    }
}