{
    "cas_no": "6589-55-5",
    "key_name": "2-(Methylamino)-1-phenylethanol",
    "cn_name": "α-(甲氨甲基)苯甲醇;",
    "alternate_name": "Benzenemethanol, α-[(methylamino)methyl]-;Benzyl alcohol, α-[(methylamino)methyl]-;α-[(Methylamino)methyl]benzenemethanol;2-(Methylamino)-1-phenylethanol;<em>N</em>-Methyl-β-hydroxyphenylethylamine;α-(Methylaminomethyl)benzyl alcohol;<em>dl</em>-Halostachine;(±)-Halostachine;2-Methylamino-1-phenyl-1-ethanol;Methyl(2-hydroxy-2-phenylethyl)amine;1-Phenyl-2-(<em>N</em>-methylamino)ethanol;<em>N</em>-Methyl-β-hydroxylphenylethylamine;<em>N</em>-Methyl-2-amino-1-phenylethanol",
    "duplicated_cas_no": "68579-60-2",
    "SMILES": "C(CNC)(O)C1=CC=CC=C1",
    "meta_data": {
        "InChI": "InChI=1S/C9H13NO/c1-10-7-9(11)8-5-3-2-4-6-8/h2-6,9-11H,7H2,1H3",
        "InChIKey": null,
        "Canonical SMILES": "OC(C=1C=CC=CC1)CNC",
        "Molecular Formula": "C<sub>9</sub>H<sub>13</sub>NO",
        "Molecular Mass": "151.21",
        "Boiling Point": "132-133 °C @ Press: 15 Torr",
        "Melting Point": "78 °C",
        "Density": "1.02 g/cm³ @ Temp: 0 °C"
    }
}