{
    "cas_no": "34662-32-3",
    "key_name": "4-Chloro-2-nitrobenzonitrile",
    "cn_name": "4-氯-2-硝基苯甲腈;",
    "alternate_name": "Benzonitrile, 4-chloro-2-nitro-;4-Chloro-2-nitrobenzonitrile;NSC 93896",
    "duplicated_cas_no": "",
    "SMILES": "N(=O)(=O)C1=C(C#N)C=CC(Cl)=C1",
    "meta_data": {
        "InChI": "InChI=1S/C7H3ClN2O2/c8-6-2-1-5(4-9)7(3-6)10(11)12/h1-3H",
        "InChIKey": null,
        "Canonical SMILES": "N#CC1=CC=C(Cl)C=C1N(=O)=O",
        "Molecular Formula": "C<sub>7</sub>H<sub>3</sub>ClN<sub>2</sub>O<sub>2</sub>",
        "Molecular Mass": "182.56",
        "Melting Point": "97 °C"
    }
}