{
    "cas_no": "83-48-7",
    "key_name": "Stigmasterol",
    "cn_name": "豆固醇;豆甾醇;",
    "alternate_name": "Stigmasta-5,22-dien-3-ol, (3β,22<em>E</em>)-;Stigmasta-5,22-dien-3β-ol;(3β,22<em>E</em>)-Stigmasta-5,22-dien-3-ol;Stigmasterol;Stigmasterin;24-Ethyl-5,22-cholestadien-3β-ol;β-Stigmasterol;(24<em>S</em>)-24-Ethylcholesta-5,22-dien-3β-ol;(24<em>S</em>)-5,22-Stigmastadien-3β-ol;Δ<sup>5,22</sup>-Stigmastadien-3β-ol;Δ<sup>5</sup>-Stigmasterol;(24<em>S</em>)-Stigmast-5,22-dien-3β-ol;NSC 8095;24β-Ethyl-5,22-cholestadien-3β-ol;Stigmasta-5,22(<em>E</em>)-dien-3β-ol;MeSH ID: D013265",
    "duplicated_cas_no": "37571-80-5;203395-58-8;290307-81-2;1105699-57-7",
    "SMILES": "C[C@@]12[C@]([C@]3([C@@]([C@]4(C)C(=CC3)C[C@@H](O)CC4)(CC1)[H])[H])(CC[C@@]2([C@@H](/C=C/[C@H](C(C)C)CC)C)[H])[H]",
    "meta_data": {
        "InChI": "InChI=1S/C29H48O/c1-7-21(19(2)3)9-8-20(4)25-12-13-26-24-11-10-22-18-23(30)14-16-28(22,5)27(24)15-17-29(25,26)6/h8-10,19-21,23-27,30H,7,11-18H2,1-6H3/b9-8+/t20-,21-,23+,24+,25-,26+,27+,28+,29-/m1/s1",
        "InChIKey": null,
        "Canonical SMILES": "OC1CC2=CCC3C(CCC4(C)C(CCC34)C(C=CC(CC)C(C)C)C)C2(C)CC1",
        "Molecular Formula": "C<sub>29</sub>H<sub>48</sub>O",
        "Molecular Mass": "412.69",
        "Melting Point": "170 °C"
    }
}