{
    "cas_no": "14419-11-5",
    "key_name": "1-(3-Chloro-2-hydroxypropyl)-2-methyl-4-nitroimidazole",
    "cn_name": null,
    "alternate_name": "1<em>H</em>-Imidazole-1-ethanol, α-(chloromethyl)-2-methyl-4-nitro-;Imidazole-1-ethanol, α-(chloromethyl)-2-methyl-4-nitro-;α-(Chloromethyl)-2-methyl-4-nitro-1<em>H</em>-imidazole-1-ethanol;1-(3-Chloro-2-hydroxypropyl)-2-methyl-4-nitroimidazole;1-Chloro-3-(2-methyl-4-nitroimidazol-1-yl)propan-2-ol",
    "duplicated_cas_no": "",
    "SMILES": "C(C(CCl)O)N1C(C)=NC(N(=O)=O)=C1",
    "meta_data": {
        "InChI": "InChI=1S/C7H10ClN3O3/c1-5-9-7(11(13)14)4-10(5)3-6(12)2-8/h4,6,12H,2-3H2,1H3",
        "InChIKey": null,
        "Canonical SMILES": "O=N(=O)C=1N=C(N(C1)CC(O)CCl)C",
        "Molecular Formula": "C<sub>7</sub>H<sub>10</sub>ClN<sub>3</sub>O<sub>3</sub>",
        "Molecular Mass": "219.63",
        "Melting Point": "151-153 °C"
    }
}