{
    "cas_no": "75144-60-4",
    "key_name": "1,1,1,3,3,3-Hexaethenyldisiloxane",
    "cn_name": null,
    "alternate_name": "Disiloxane, 1,1,1,3,3,3-hexaethenyl-;Disiloxane, hexaethenyl-;1,1,1,3,3,3-Hexaethenyldisiloxane;Hexavinyldisiloxane",
    "duplicated_cas_no": "",
    "SMILES": "[Si](O[Si](C=C)(C=C)C=C)(C=C)(C=C)C=C",
    "meta_data": {
        "InChI": "InChI=1S/C12H18OSi2/c1-7-14(8-2,9-3)13-15(10-4,11-5)12-6/h7-12H,1-6H2",
        "InChIKey": null,
        "Canonical SMILES": "O([Si](C=C)(C=C)C=C)[Si](C=C)(C=C)C=C",
        "Molecular Formula": "C<sub>12</sub>H<sub>18</sub>OSi<sub>2</sub>",
        "Molecular Mass": "234.44",
        "Boiling Point": "115-116 °C @ Press: 20 Torr",
        "Density": "0.840 g/cm³"
    }
}