{
    "cas_no": "872-31-1",
    "key_name": "3-Bromothiophene",
    "cn_name": "3-溴噻吩;",
    "alternate_name": "Thiophene, 3-bromo-;3-Bromothiophene;3-Thienyl bromide;β-Bromothiophene;NSC 96612;3-Bromothiofuran",
    "duplicated_cas_no": "",
    "SMILES": "BrC=1C=CSC1",
    "meta_data": {
        "InChI": "InChI=1S/C4H3BrS/c5-4-1-2-6-3-4/h1-3H",
        "InChIKey": null,
        "Canonical SMILES": "BrC1=CSC=C1",
        "Molecular Formula": "C<sub>4</sub>H<sub>3</sub>BrS",
        "Molecular Mass": "163.04",
        "Boiling Point": "150 °C",
        "Melting Point": "&lt;25 °C"
    }
}