{
    "cas_no": "128143-89-5",
    "key_name": "4′-Chloro-2,2′:6′,2′′-terpyridine",
    "cn_name": "4-氯-2,2\",6\",2\"\"-四吡啶;4\"-氯-2,2\":6\",2\"\"-三联吡啶;",
    "alternate_name": "2,2′:6′,2′′-Terpyridine, 4′-chloro-;4′-Chloro-2,2′:6′,2′′-terpyridine;4′-Chloro-2,2,2′:6′,2′′-terpyridine",
    "duplicated_cas_no": "",
    "SMILES": "ClC=1C=C(N=C(C1)C2=CC=CC=N2)C3=CC=CC=N3",
    "meta_data": {
        "InChI": "InChI=1S/C15H10ClN3/c16-11-9-14(12-5-1-3-7-17-12)19-15(10-11)13-6-2-4-8-18-13/h1-10H",
        "InChIKey": null,
        "Canonical SMILES": "ClC=1C=C(N=C(C1)C=2N=CC=CC2)C3=NC=CC=C3",
        "Molecular Formula": "C<sub>15</sub>H<sub>10</sub>ClN<sub>3</sub>",
        "Molecular Mass": "267.71",
        "Melting Point": "149-152 °C"
    }
}