{
    "cas_no": "912-60-7",
    "key_name": "Noscapine hydrochloride",
    "cn_name": "那可丁;",
    "alternate_name": "1(3<em>H</em>)-Isobenzofuranone, 6,7-dimethoxy-3-[(5<em>R</em>)-5,6,7,8-tetrahydro-4-methoxy-6-methyl-1,3-dioxolo[4,5-<em>g</em>]isoquinolin-5-yl]-, hydrochloride (1:1), (3<em>S</em>)-;Narcotine, hydrochloride;1(3<em>H</em>)-Isobenzofuranone, 6,7-dimethoxy-3-(5,6,7,8-tetrahydro-4-methoxy-6-methyl-1,3-dioxolo[4,5-<em>g</em>]isoquinolin-5-yl)-, hydrochloride, [<em>S</em>-(<em>R</em>*,<em>S</em>*)]-;1(3<em>H</em>)-Isobenzofuranone, 6,7-dimethoxy-3-[(5<em>R</em>)-5,6,7,8-tetrahydro-4-methoxy-6-methyl-1,3-dioxolo[4,5-<em>g</em>]isoquinolin-5-yl]-, hydrochloride, (3<em>S</em>)-;1,3-Dioxolo[4,5-<em>g</em>]isoquinoline, 1(3<em>H</em>)-isobenzofuranone deriv.;<em>l</em>-Narcotine hydrochloride;Noscapine hydrochloride;Opianine hydrochloride",
    "duplicated_cas_no": "11035-01-1",
    "SMILES": "O(C)C=1C=2[C@@](N(C)CCC2C=C3C1OCO3)([C@@]4(C=5C(C(=O)O4)=C(OC)C(OC)=CC5)[H])[H].Cl",
    "meta_data": {
        "InChI": "InChI=1S/C22H23NO7.ClH/c1-23-8-7-11-9-14-20(29-10-28-14)21(27-4)15(11)17(23)18-12-5-6-13(25-2)19(26-3)16(12)22(24)30-18;/h5-6,9,17-18H,7-8,10H2,1-4H3;1H/t17-,18+;/m1./s1",
        "InChIKey": null,
        "Canonical SMILES": "Cl.O=C1OC(C2=CC=C(OC)C(OC)=C12)C3C4=C(OC)C=5OCOC5C=C4CCN3C",
        "Molecular Formula": "C<sub>22</sub>H<sub>23</sub>NO<sub>7</sub>.ClH",
        "Molecular Mass": "",
        "Melting Point": "190-191 °C"
    }
}