{
    "cas_no": "4435-50-1",
    "key_name": "1,2,3-Butanetriol",
    "cn_name": "1,2,3-丁三醇;",
    "alternate_name": "1,2,3-Butanetriol;1,2,3-Trihydroxybutane;1-Methylglycerol;1-Methyl-1,2,3-propanetriol",
    "duplicated_cas_no": "",
    "SMILES": "C(C(C)O)(CO)O",
    "meta_data": {
        "InChI": "InChI=1S/C4H10O3/c1-3(6)4(7)2-5/h3-7H,2H2,1H3",
        "InChIKey": null,
        "Canonical SMILES": "OCC(O)C(O)C",
        "Molecular Formula": "C<sub>4</sub>H<sub>10</sub>O<sub>3</sub>",
        "Molecular Mass": "106.12",
        "Boiling Point": "170 °C"
    }
}