{
    "cas_no": "54678-23-8",
    "key_name": "Bromo[1,1′-thiobis[methane]]copper",
    "cn_name": null,
    "alternate_name": "Copper, bromo[1,1′-thiobis[methane]]-;Copper, bromo[thiobis[methane]]-;Bromo[1,1′-thiobis[methane]]copper;Bromo(dimethyl sulfide)copper;(Dimethyl sulfide)cuprous bromide;Copper bromide dimethyl sulfide adduct;bromo[thiobis[methane]]copper;Copper(I) bromide dimethyl sulfide complex;Copper(I) bromide-dimethyl sulfide",
    "duplicated_cas_no": "",
    "SMILES": "[S]([Cu+][Br-])(C)C",
    "meta_data": {
        "InChI": "InChI=1S/C2H6S.BrH.Cu/c1-3-2;;/h1-2H3;1H;/q;;+1/p-1",
        "InChIKey": null,
        "Canonical SMILES": "[Br-][Cu+][S](C)C",
        "Molecular Formula": "C<sub>2</sub>H<sub>6</sub>BrCuS",
        "Molecular Mass": "",
        "Melting Point": "127-129 °C (decomp)"
    }
}