{
    "cas_no": "96-74-2",
    "key_name": "2-(Methylsulfonyl)-4-nitrobenzenamine",
    "cn_name": "3,4-甲苯二硫醇;",
    "alternate_name": "Benzenamine, 2-(methylsulfonyl)-4-nitro-;Aniline, 2-(methylsulfonyl)-4-nitro-;2-(Methylsulfonyl)-4-nitrobenzenamine;Methyl 2-amino-5-nitrophenyl sulfone;2-(Methylsulfonyl)-4-nitroaniline;2-Amino-5-nitrophenyl methyl sulfone;1-Amino-2-methylsulphonyl-4-nitrobenzene;2-Methanesulfonyl-4-nitroaniline",
    "duplicated_cas_no": "",
    "SMILES": "S(C)(=O)(=O)C1=CC(N(=O)=O)=CC=C1N",
    "meta_data": {
        "InChI": "InChI=1S/C7H8N2O4S/c1-14(12,13)7-4-5(9(10)11)2-3-6(7)8/h2-4H,8H2,1H3",
        "InChIKey": null,
        "Canonical SMILES": "O=N(=O)C1=CC=C(N)C(=C1)S(=O)(=O)C",
        "Molecular Formula": "C<sub>7</sub>H<sub>8</sub>N<sub>2</sub>O<sub>4</sub>S",
        "Molecular Mass": "216.21",
        "Melting Point": "203-204 °C"
    }
}