{
    "cas_no": "1538-62-1",
    "key_name": "Bis(acetato-κ<em>O</em>)triphenylantimony",
    "cn_name": null,
    "alternate_name": "Antimony, bis(acetato-κ<em>O</em>)triphenyl-;Antimony, bis(acetato)triphenyl-;Antimony, bis(acetato-<em>O</em>)triphenyl-;Antimony, diacetoxytriphenyl-;Stibine, triphenyl-, diacetate;Bis(acetato-κ<em>O</em>)triphenylantimony;Bis(acetato)triphenylantimony;Triphenylantimony diacetate;Diacetoxytriphenylstiborane;NSC 179784",
    "duplicated_cas_no": "",
    "SMILES": "[Sb](OC(C)=O)(OC(C)=O)(C1=CC=CC=C1)(C2=CC=CC=C2)C3=CC=CC=C3",
    "meta_data": {
        "InChI": "InChI=1S/3C6H5.2C2H4O2.Sb/c3*1-2-4-6-5-3-1;2*1-2(3)4;/h3*1-5H;2*1H3,(H,3,4);/q;;;;;+2/p-2",
        "InChIKey": null,
        "Canonical SMILES": "O=C(O[Sb](OC(=O)C)(C=1C=CC=CC1)(C=2C=CC=CC2)C=3C=CC=CC3)C",
        "Molecular Formula": "C<sub>22</sub>H<sub>21</sub>O<sub>4</sub>Sb",
        "Molecular Mass": "",
        "Melting Point": "214-215 °C"
    }
}