{
    "cas_no": "142-26-7",
    "key_name": "<em>N</em>-(2-Hydroxyethyl)acetamide",
    "cn_name": "N-乙酰乙醇胺;N-(2-羟乙基)乙酰胺;2-乙酰氨基乙醇;",
    "alternate_name": "Acetamide, <em>N</em>-(2-hydroxyethyl)-;<em>N</em>-(2-Hydroxyethyl)acetamide;<em>N</em>-Acetylethanolamine;β-Hydroxyethylacetamide;Acetylcolamine;<em>N</em>-(β-Hydroxyethyl)acetamide;2-Acetamidoethanol;<em>N</em>-Ethanolacetamide;2-Acetylaminoethanol;<em>N</em>-Acetyl-2-aminoethanol;Schercomid AME 70;2-<em>N</em>-Acetylaminoethanol;Acetamide MEA;Incromectant AMEA 100;Incromectant AMEA 70;NSC 5999;Mackamide AME 100",
    "duplicated_cas_no": "",
    "SMILES": "N(C(C)=O)CCO",
    "meta_data": {
        "InChI": "InChI=1S/C4H9NO2/c1-4(7)5-2-3-6/h6H,2-3H2,1H3,(H,5,7)",
        "InChIKey": null,
        "Canonical SMILES": "O=C(NCCO)C",
        "Molecular Formula": "C<sub>4</sub>H<sub>9</sub>NO<sub>2</sub>",
        "Molecular Mass": "103.12",
        "Boiling Point": "166-167 °C @ Press: 8 Torr",
        "Melting Point": "63-65 °C",
        "Density": "1.1079 g/cm³ @ Temp: 25 °C"
    }
}