{
    "cas_no": "6722-54-9",
    "key_name": "1-(2-Methoxy-2-phenylethyl)piperazine",
    "cn_name": null,
    "alternate_name": "Piperazine, 1-(2-methoxy-2-phenylethyl)-;Piperazine, 1-(β-methoxyphenethyl)-;1-(2-Methoxy-2-phenylethyl)piperazine",
    "duplicated_cas_no": "",
    "SMILES": "C(CN1CCNCC1)(OC)C2=CC=CC=C2",
    "meta_data": {
        "InChI": "InChI=1S/C13H20N2O/c1-16-13(12-5-3-2-4-6-12)11-15-9-7-14-8-10-15/h2-6,13-14H,7-11H2,1H3",
        "InChIKey": null,
        "Canonical SMILES": "O(C)C(C=1C=CC=CC1)CN2CCNCC2",
        "Molecular Formula": "C<sub>13</sub>H<sub>20</sub>N<sub>2</sub>O",
        "Molecular Mass": "220.31",
        "Boiling Point": "163 °C",
        "Melting Point": "11 °C"
    }
}