{
    "cas_no": "22663-37-2",
    "key_name": "<em>N</em>-(Aminocarbonyl)-4-chlorobenzenesulfonamide",
    "cn_name": "4-氯苯磺酰脲;对氯苯磺酰脲;",
    "alternate_name": "Benzenesulfonamide, <em>N</em>-(aminocarbonyl)-4-chloro-;Urea, [(<em>p</em>-chlorophenyl)sulfonyl]-;<em>N</em>-(Aminocarbonyl)-4-chlorobenzenesulfonamide;<em>p</em>-Chlorobenzenesulfonylurea;[(<em>p</em>-Chlorophenyl)sulfonyl]urea;4-Chlorobenzenesulfonylurea;P 571;<em>N</em>-(<em>p</em>-Chlorobenzenesulfonyl)urea;1-(<em>p</em>-Chlorophenylsulfonyl)urea;(4-Chlorophenyl)sulfonylurea",
    "duplicated_cas_no": "",
    "SMILES": "S(NC(N)=O)(=O)(=O)C1=CC=C(Cl)C=C1",
    "meta_data": {
        "InChI": "InChI=1S/C7H7ClN2O3S/c8-5-1-3-6(4-2-5)14(12,13)10-7(9)11/h1-4H,(H3,9,10,11)",
        "InChIKey": null,
        "Canonical SMILES": "O=C(N)NS(=O)(=O)C1=CC=C(Cl)C=C1",
        "Molecular Formula": "C<sub>7</sub>H<sub>7</sub>ClN<sub>2</sub>O<sub>3</sub>S",
        "Molecular Mass": "234.66",
        "Melting Point": "180-182 °C"
    }
}