{
    "cas_no": "132089-34-0",
    "key_name": "Ethyl 2-(3-chlorophenyl)-4-thiazolecarboxylate",
    "cn_name": null,
    "alternate_name": "4-Thiazolecarboxylic acid, 2-(3-chlorophenyl)-, ethyl ester;Ethyl 2-(3-chlorophenyl)-4-thiazolecarboxylate;2-(3-Chloro-phenyl)-thiazole-4-carboxylic acid ethyl ester",
    "duplicated_cas_no": "",
    "SMILES": "C(OCC)(=O)C=1N=C(SC1)C2=CC(Cl)=CC=C2",
    "meta_data": {
        "InChI": "InChI=1S/C12H10ClNO2S/c1-2-16-12(15)10-7-17-11(14-10)8-4-3-5-9(13)6-8/h3-7H,2H2,1H3",
        "InChIKey": null,
        "Canonical SMILES": "O=C(OCC)C=1N=C(SC1)C=2C=CC=C(Cl)C2",
        "Molecular Formula": "C<sub>12</sub>H<sub>10</sub>ClNO<sub>2</sub>S",
        "Molecular Mass": "267.73",
        "Melting Point": "66 °C"
    }
}