{
    "cas_no": "4771-80-6",
    "key_name": "3-Cyclohexene-1-carboxylic acid",
    "cn_name": null,
    "alternate_name": "3-Cyclohexene-1-carboxylic acid;Δ<sup>3</sup>-Cyclohexenecarboxylic acid;Δ<sup>3</sup>-Cyclohexenylcarboxylic acid;3-Cyclohexenecarboxylic acid;1-Cyclohexene-4-carboxylic acid;3-Cyclohexenylcarboxylic acid;(±)-3-Cyclohexene-1-carboxylic acid;NSC 44712;NSC 44883;3-Cyclohexenyl-1-formic acid",
    "duplicated_cas_no": "114774-78-6;49543-08-0",
    "SMILES": "C(O)(=O)C1CCC=CC1",
    "meta_data": {
        "InChI": "InChI=1S/C7H10O2/c8-7(9)6-4-2-1-3-5-6/h1-2,6H,3-5H2,(H,8,9)",
        "InChIKey": null,
        "Canonical SMILES": "O=C(O)C1CC=CCC1",
        "Molecular Formula": "C<sub>7</sub>H<sub>10</sub>O<sub>2</sub>",
        "Molecular Mass": "126.15",
        "Boiling Point": "234.5 °C",
        "Melting Point": "17 °C",
        "Density": "1.081 g/cm³ @ Temp: 15 °C"
    }
}