{
    "cas_no": "140-87-4",
    "key_name": "Cyanoacetic acid hydrazide",
    "cn_name": "氰乙酰肼;氰基乙酰肼;",
    "alternate_name": "Acetic acid, 2-cyano-, hydrazide;Acetic acid, cyano-, hydrazide;AB-42;Armazal;Cyacetacide;Cyacetazide;Cyanacethydrazide;Cyanacetic acid hydrazide;Cyanacetohydrazide;Cyanacetylhydrazide;Cyanazide;Cyanizide;Cyanoacetic acid hydrazide;Cyanoacetohydrazide;Cyazide;Dictycide;Dictyzide;Helmox;Hidacian;Leandin;Malonitrile hydrazide;Malononitrile hydrazide;Neohydrazid;Reacid;Reazide;Cyanoacethydrazide;α-Cyanoacetohydrazide;Cyanoacetyl hydrazide;(Cyanoacetyl)hydrazine;Mackreazid;Tsiazid;Cyazid;Cyacetazid;Reazid;Cianazil;Cyacetacid;Hidaciann;2-Cyanoacetohydrazide;Cyanoacetic hydrazide;(α-Cyanoacetyl)hydrazine;Cyanoethanoic hydrazide;2-Cyanoacethydrazide;2-Cyanoacetylhydrazide;NSC 24261;2-Cyanoacetyl hydrazine;2-Cyanoacetic acid hydrazide",
    "duplicated_cas_no": "",
    "SMILES": "C(CC#N)(NN)=O",
    "meta_data": {
        "InChI": "InChI=1S/C3H5N3O/c4-2-1-3(7)6-5/h1,5H2,(H,6,7)",
        "InChIKey": null,
        "Canonical SMILES": "N#CCC(=O)NN",
        "Molecular Formula": "C<sub>3</sub>H<sub>5</sub>N<sub>3</sub>O",
        "Molecular Mass": "99.09",
        "Melting Point": "114.5-115 °C"
    }
}