{
    "cas_no": "383-62-0",
    "key_name": "Ethyl 2-chloro-2,2-difluoroacetate",
    "cn_name": "二氟氯乙酸乙酯;",
    "alternate_name": "Acetic acid, 2-chloro-2,2-difluoro-, ethyl ester;Acetic acid, chlorodifluoro-, ethyl ester;Ethyl 2-chloro-2,2-difluoroacetate;Ethyl chlorodifluoroacetate;Chlorodifluoroacetic acid ethyl ester;NSC 62664;Difluorochloroacetic acid ethyl ester;Ethyl difluorochloroacetate",
    "duplicated_cas_no": "",
    "SMILES": "C(C(Cl)(F)F)(OCC)=O",
    "meta_data": {
        "InChI": "InChI=1S/C4H5ClF2O2/c1-2-9-3(8)4(5,6)7/h2H2,1H3",
        "InChIKey": null,
        "Canonical SMILES": "O=C(OCC)C(F)(F)Cl",
        "Molecular Formula": "C<sub>4</sub>H<sub>5</sub>ClF<sub>2</sub>O<sub>2</sub>",
        "Molecular Mass": "158.53",
        "Boiling Point": "95.5 °C",
        "Density": "1.2471 g/cm³ @ Temp: 30 °C"
    }
}