{
    "cas_no": "4146-43-4",
    "key_name": "Succinic dihydrazide",
    "cn_name": null,
    "alternate_name": "Butanedioic acid, 1,4-dihydrazide;Succinic acid, dihydrazide;Butanedioic acid, dihydrazide;Succinhydrazide;Succinic dihydrazide;Succinyl dihydrazide;Succinic acid, hydrazide;Succinoyldihydrazine;NSC 25180;NSC 29540;NSC 42940;SUDH",
    "duplicated_cas_no": "124246-57-7;1788094-07-4",
    "SMILES": "C(CCC(NN)=O)(NN)=O",
    "meta_data": {
        "InChI": "InChI=1S/C4H10N4O2/c5-7-3(9)1-2-4(10)8-6/h1-2,5-6H2,(H,7,9)(H,8,10)",
        "InChIKey": null,
        "Canonical SMILES": "O=C(NN)CCC(=O)NN",
        "Molecular Formula": "C<sub>4</sub>H<sub>10</sub>N<sub>4</sub>O<sub>2</sub>",
        "Molecular Mass": "146.15",
        "Melting Point": "166-167 °C"
    }
}