{
    "cas_no": "10251-17-9",
    "key_name": "2-Naphthalenyl octanoate",
    "cn_name": "2-萘基碘苯腈辛酸酯;",
    "alternate_name": "Octanoic acid, 2-naphthalenyl ester;Octanoic acid, 2-naphthyl ester;2-Naphthalenyl octanoate;2-Naphthyl octanoate;β-Naphthyl octanoate;β-Naphthyl caprylate;NSC 60371;2-Naphthyl caprylate",
    "duplicated_cas_no": "",
    "SMILES": "O(C(CCCCCCC)=O)C1=CC2=C(C=C1)C=CC=C2",
    "meta_data": {
        "InChI": "InChI=1S/C18H22O2/c1-2-3-4-5-6-11-18(19)20-17-13-12-15-9-7-8-10-16(15)14-17/h7-10,12-14H,2-6,11H2,1H3",
        "InChIKey": null,
        "Canonical SMILES": "O=C(OC=1C=CC=2C=CC=CC2C1)CCCCCCC",
        "Molecular Formula": "C<sub>18</sub>H<sub>22</sub>O<sub>2</sub>",
        "Molecular Mass": "270.37",
        "Melting Point": "35-37 °C"
    }
}