{
    "cas_no": "85264-33-1",
    "key_name": "1-(Hydroxymethyl)-3,5-dimethylpyrazole",
    "cn_name": "3,5-二甲基吡唑-1-甲醇;二甲基羟甲基吡唑;",
    "alternate_name": "1<em>H</em>-Pyrazole-1-methanol, 3,5-dimethyl-;Pyrazole-1-methanol, 3,5-dimethyl-;3,5-Dimethyl-1<em>H</em>-pyrazole-1-methanol;<em>N</em>-(Hydroxymethyl)-3,5-dimethylpyrazole;3,5-Dimethylpyrazole-1-methanol;1-(Hydroxymethyl)-3,5-dimethylpyrazole;3,5-Dimethyl-1-(hydroxymethyl)pyrazole;3,5-Dimethylpyrazol-1-methanol;NSC 71880;(3,5-Dimethyl-1<em>H</em>-pyrazol-1-yl)methanol;2-(Hydroxymethyl)-3,5-dimethylpyrazole;(3,5-Dimethyl-pyrazol-1-yl)-methanol;Di(3,5-dimethyl-1<em>H</em>-pyrazol-1-yl)-1-methanol",
    "duplicated_cas_no": "",
    "SMILES": "C(O)N1C(C)=CC(C)=N1",
    "meta_data": {
        "InChI": "InChI=1S/C6H10N2O/c1-5-3-6(2)8(4-9)7-5/h3,9H,4H2,1-2H3",
        "InChIKey": null,
        "Canonical SMILES": "OCN1N=C(C=C1C)C",
        "Molecular Formula": "C<sub>6</sub>H<sub>10</sub>N<sub>2</sub>O",
        "Molecular Mass": "126.16",
        "Melting Point": "108-109 °C"
    }
}