{
    "cas_no": "23239-51-2",
    "key_name": "Ritodrine hydrochloride",
    "cn_name": null,
    "alternate_name": "Benzenemethanol, 4-hydroxy-α-[(1<em>R</em>)-1-[[2-(4-hydroxyphenyl)ethyl]amino]ethyl]-, hydrochloride (1:1), (α<em>S</em>)-<em>rel</em>-;Benzyl alcohol, <em>p</em>-hydroxy-α-[1-[(<em>p</em>-hydroxyphenethyl)amino]ethyl]-, hydrochloride, <em>erythro</em>-;Benzenemethanol, 4-hydroxy-α-[1-[[2-(4-hydroxyphenyl)ethyl]amino]ethyl]-, hydrochloride, (<em>R</em>*,<em>S</em>*)-;Benzenemethanol, 4-hydroxy-α-[(1<em>R</em>)-1-[[2-(4-hydroxyphenyl)ethyl]amino]ethyl]-, hydrochloride, (α<em>S</em>)-<em>rel</em>-;Ritodrine hydrochloride;DU 21220;Yutopar;Pre-Par;(±)-Ritodrine hydrochloride;Miolene;Prempar;Utemerin;Utopar;NSC 291565",
    "duplicated_cas_no": "52447-11-7",
    "SMILES": "[C@H]([C@H](NCCC1=CC=C(O)C=C1)C)(O)C2=CC=C(O)C=C2.Cl",
    "meta_data": {
        "InChI": "InChI=1/C17H21NO3.ClH/c1-12(17(21)14-4-8-16(20)9-5-14)18-11-10-13-2-6-15(19)7-3-13;/h2-9,12,17-21H,10-11H2,1H3;1H/t12-,17-;/s2",
        "InChIKey": null,
        "Canonical SMILES": "Cl.OC1=CC=C(C=C1)CCNC(C)C(O)C2=CC=C(O)C=C2",
        "Molecular Formula": "C<sub>17</sub>H<sub>21</sub>NO<sub>3</sub>.ClH",
        "Molecular Mass": "",
        "Melting Point": "193-195 °C (decomp)"
    }
}