{
    "cas_no": "2084-28-8",
    "key_name": "Cyclohexanecarboxylic acid, 4-amino-, ethyl ester, hydrochloride (1:1), <em>trans</em>-",
    "cn_name": null,
    "alternate_name": "Cyclohexanecarboxylic acid, 4-amino-, ethyl ester, hydrochloride (1:1), <em>trans</em>-;Cyclohexanecarboxylic acid, 4-amino-, ethyl ester, hydrochloride, <em>trans</em>-;Ethyl trans-4-aminocyclohexanecarboxylate hydrochloride;Ethyl trans-4-aminocyclohexanecarboxylate monohydrochloride",
    "duplicated_cas_no": "",
    "SMILES": "C(OCC)(=O)[C@H]1CC[C@H](N)CC1.Cl",
    "meta_data": {
        "InChI": "InChI=1/C9H17NO2.ClH/c1-2-12-9(11)7-3-5-8(10)6-4-7;/h7-8H,2-6,10H2,1H3;1H/t7-,8-;",
        "InChIKey": null,
        "Canonical SMILES": "Cl.O=C(OCC)C1CCC(N)CC1",
        "Molecular Formula": "C<sub>9</sub>H<sub>17</sub>NO<sub>2</sub>.ClH",
        "Molecular Mass": "",
        "Melting Point": "153 °C"
    }
}