{
    "cas_no": "847818-70-6",
    "key_name": "1-Ethylpyrazole-4-boronic acid pinacol ester",
    "cn_name": null,
    "alternate_name": "1<em>H</em>-Pyrazole, 1-ethyl-4-(4,4,5,5-tetramethyl-1,3,2-dioxaborolan-2-yl)-;1-Ethyl-4-(4,4,5,5-tetramethyl-1,3,2-dioxaborolan-2-yl)-1<em>H</em>-pyrazole;(1-Ethyl-1<em>H</em>-pyrazol-4-yl)boronic acid pinacol ester;1-Ethylpyrazole-4-boronic acid pinacol ester;1-Ethyl-4-(4,4,5,5-tetramethyl-1,3,2-dioxaborolan-2-yl)pyrazole;2-(1-Ethyl-1<em>H</em>-pyrazol-4-yl)-4,4,5,5-tetramethyl-1,3,2-dioxaborolane;1-Ethyl-4-(tetramethyl-1,3,2-dioxaborolan-2-yl)-1<em>H</em>-pyrazole",
    "duplicated_cas_no": "",
    "SMILES": "CC1(C)OB(OC1(C)C)C2=CN(CC)N=C2",
    "meta_data": {
        "InChI": "InChI=1S/C11H19BN2O2/c1-6-14-8-9(7-13-14)12-15-10(2,3)11(4,5)16-12/h7-8H,6H2,1-5H3",
        "InChIKey": null,
        "Canonical SMILES": "N1=CC(=CN1CC)B2OC(C)(C)C(O2)(C)C",
        "Molecular Formula": "C<sub>11</sub>H<sub>19</sub>BN<sub>2</sub>O<sub>2</sub>",
        "Molecular Mass": "222.09",
        "Melting Point": "43-45 °C"
    }
}