{
    "cas_no": "7716-66-7",
    "key_name": "3-Chloro-1,2-benzisothiazole",
    "cn_name": "3-氯-1,2-苯并异噻唑;",
    "alternate_name": "1,2-Benzisothiazole, 3-chloro-;3-Chloro-1,2-benzisothiazole;3-Chlorobenzo[<em>d</em>]isothiazole;3-Chloro-1,2-benzothiazole",
    "duplicated_cas_no": "",
    "SMILES": "ClC=1C=2C(=CC=CC2)SN1",
    "meta_data": {
        "InChI": "InChI=1S/C7H4ClNS/c8-7-5-3-1-2-4-6(5)10-9-7/h1-4H",
        "InChIKey": null,
        "Canonical SMILES": "ClC1=NSC=2C=CC=CC12",
        "Molecular Formula": "C<sub>7</sub>H<sub>4</sub>ClNS",
        "Molecular Mass": "169.63",
        "Boiling Point": "122 °C @ Press: 10 Torr",
        "Melting Point": "40 °C"
    }
}