{
    "cas_no": "4884-24-6",
    "key_name": "2-Cyclopentylcyclopentanone",
    "cn_name": null,
    "alternate_name": "[1,1′-Bicyclopentyl]-2-one;[Bicyclopentyl]-2-one;Cyclopentanone, 2-cyclopentyl-;[1,1′-Bicyclopentan]-2-one;2-Cyclopentylcyclopentanone;2-Cyclopentylcyclopentan-1-one",
    "duplicated_cas_no": "3063-68-1",
    "SMILES": "O=C1C(CCC1)C2CCCC2",
    "meta_data": {
        "InChI": "InChI=1S/C10H16O/c11-10-7-3-6-9(10)8-4-1-2-5-8/h8-9H,1-7H2",
        "InChIKey": null,
        "Canonical SMILES": "O=C1CCCC1C2CCCC2",
        "Molecular Formula": "C<sub>10</sub>H<sub>16</sub>O",
        "Molecular Mass": "152.23",
        "Boiling Point": "232.5 °C",
        "Melting Point": "-13 °C",
        "Density": "0.985 g/cm³ @ Temp: 20 °C"
    }
}