{
    "cas_no": "936-02-7",
    "key_name": "Salicylic acid, hydrazide",
    "cn_name": "水杨酰肼;2-羟基苯甲酰肼;",
    "alternate_name": "Benzoic acid, 2-hydroxy-, hydrazide;Salicylic acid, hydrazide;<em>o</em>-Hydroxylbenzhydrazide;Salicyloyl hydrazide;2-Hydroxybenzohydrazide;<em>o</em>-Hydroxybenzoic acid hydrazide;<em>o</em>-Hydroxybenzhydrazide;Salicyl hydrazide;2-Hydroxybenzoyl hydrazide;Salicyloylhydrazine;2-Hydroxybenzoic acid hydrazide;<em>o</em>-Hydroxybenzoylhydrazine;<em>o</em>-Hydroxybenzoylhydrazide;2-Hydroxybenzoylhydrazine;Salicylic hydrazide;2-Hydroxybenzenecarboxylic acid hydrazide;<em>o</em>-Hydroxybenzoic hydrazide;NSC 652;2-Hydroxybenzoic hydrazide;<em>o</em>-Hydroxybenzohydrazide;Ortho-hydroxybenzohydrazide;<em>o</em>-Salicyloylhydrazide;2-Hydroxybenzene-1-carbohydrazide;2-Hydroxybenzene-1-carbohydrazonic acid",
    "duplicated_cas_no": "",
    "SMILES": "C(NN)(=O)C1=C(O)C=CC=C1",
    "meta_data": {
        "InChI": "InChI=1S/C7H8N2O2/c8-9-7(11)5-3-1-2-4-6(5)10/h1-4,10H,8H2,(H,9,11)",
        "InChIKey": null,
        "Canonical SMILES": "O=C(NN)C=1C=CC=CC1O",
        "Molecular Formula": "C<sub>7</sub>H<sub>8</sub>N<sub>2</sub>O<sub>2</sub>",
        "Molecular Mass": "152.15",
        "Boiling Point": "147-149 °C",
        "Melting Point": "147-150 °C"
    }
}