{
    "cas_no": "495-18-1",
    "key_name": "Benzohydroxamic acid",
    "cn_name": "苯甲羟肟酸;",
    "alternate_name": "Benzamide, <em>N</em>-hydroxy-;Benzohydroxamic acid;<em>N</em>-Hydroxybenzamide;Hydroxylamine, <em>N</em>-benzoyl-;Benzhydroxamic acid;Benzohydroximic acid;Phenylhydroxamic acid;Benzoylhydroxylamine;<em>N</em>-Benzohydroxamic acid;Benzenehydroxamic acid;BHAM;NSC 147248;NSC 3136;<em>N</em>-Benzoylhydroxylamine;BRD 3493",
    "duplicated_cas_no": "1005-00-1",
    "SMILES": "C(NO)(=O)C1=CC=CC=C1",
    "meta_data": {
        "InChI": "InChI=1S/C7H7NO2/c9-7(8-10)6-4-2-1-3-5-6/h1-5,10H,(H,8,9)",
        "InChIKey": null,
        "Canonical SMILES": "O=C(NO)C=1C=CC=CC1",
        "Molecular Formula": "C<sub>7</sub>H<sub>7</sub>NO<sub>2</sub>",
        "Molecular Mass": "137.14",
        "Melting Point": "128 °C"
    }
}