{
    "cas_no": "466-09-1",
    "key_name": "Uzarigenin",
    "cn_name": null,
    "alternate_name": "Card-20(22)-enolide, 3,14-dihydroxy-, (3β,5α)-;Uzarigenin;5α-Card-20(22)-enolide, 3β,14-dihydroxy-;(3β,5α)-3,14-Dihydroxycard-20(22)-enolide;Urarigenin;Odorigeni;NSC 119993;NSC 277290",
    "duplicated_cas_no": "",
    "SMILES": "O[C@@]12[C@]3([C@@]([C@]4(C)[C@@](CC3)(C[C@@H](O)CC4)[H])(CC[C@]1(C)[C@H](CC2)C=5COC(=O)C5)[H])[H]",
    "meta_data": {
        "InChI": "InChI=1S/C23H34O4/c1-21-8-5-16(24)12-15(21)3-4-19-18(21)6-9-22(2)17(7-10-23(19,22)26)14-11-20(25)27-13-14/h11,15-19,24,26H,3-10,12-13H2,1-2H3/t15-,16-,17+,18-,19+,21-,22+,23-/m0/s1",
        "InChIKey": null,
        "Canonical SMILES": "O=C1OCC(=C1)C2CCC3(O)C4CCC5CC(O)CCC5(C)C4CCC23C",
        "Molecular Formula": "C<sub>23</sub>H<sub>34</sub>O<sub>4</sub>",
        "Molecular Mass": "374.51",
        "Melting Point": "240-256 °C"
    }
}