{
    "cas_no": "5989-54-8",
    "key_name": "(<em>S</em>)-Limonene",
    "cn_name": "(-)-柠檬烯;(S)-1-甲基-4-(1-甲基乙烯基)环己烯;",
    "alternate_name": "Cyclohexene, 1-methyl-4-(1-methylethenyl)-, (4<em>S</em>)-;<em>p</em>-Mentha-1,8-diene, (<em>S</em>)-(-)-;Cyclohexene, 1-methyl-4-(1-methylethenyl)-, (<em>S</em>)-;(4<em>S</em>)-1-Methyl-4-(1-methylethenyl)cyclohexene;<em>l</em>-Limonene;(-)-Limonene;(-)-(<em>S</em>)-Limonene;(<em>S</em>)-Limonene;β-Limonene;(<em>S</em>)-(-)-Limonene;(-)-α-Limonene;(<em>S</em>)-4-Isopropenyl-1-methyl-1-cyclohexene;(4<em>S</em>)-Limonene;(-)-(4<em>S</em>)-Limonene;l-Carvene;(<em>S</em>)-1-Methyl-4-(prop-1-en-2-yl)cyclohex-1-ene;(4S)-1-Methyl-4-(prop-1-en-2-yl)cyclohex-1-ene",
    "duplicated_cas_no": "7721-11-1",
    "SMILES": "C(C)(=C)[C@H]1CCC(C)=CC1",
    "meta_data": {
        "InChI": "InChI=1S/C10H16/c1-8(2)10-6-4-9(3)5-7-10/h4,10H,1,5-7H2,2-3H3/t10-/m1/s1",
        "InChIKey": null,
        "Canonical SMILES": "C=C(C)C1CC=C(C)CC1",
        "Molecular Formula": "C<sub>10</sub>H<sub>16</sub>",
        "Molecular Mass": "136.23",
        "Boiling Point": "176 °C",
        "Melting Point": "-90 °C",
        "Density": "0.8402 g/cm³ @ Temp: 20 °C"
    }
}