{
    "cas_no": "17865-54-2",
    "key_name": "Cyclohexyltrimethoxysilane",
    "cn_name": null,
    "alternate_name": "Cyclohexane, (trimethoxysilyl)-;Silane, cyclohexyltrimethoxy-;(Trimethoxysilyl)cyclohexane;Cyclohexyltrimethoxysilane;C 2280",
    "duplicated_cas_no": "",
    "SMILES": "[Si](OC)(OC)(OC)C1CCCCC1",
    "meta_data": {
        "InChI": "InChI=1S/C9H20O3Si/c1-10-13(11-2,12-3)9-7-5-4-6-8-9/h9H,4-8H2,1-3H3",
        "InChIKey": null,
        "Canonical SMILES": "O(C)[Si](OC)(OC)C1CCCCC1",
        "Molecular Formula": "C<sub>9</sub>H<sub>20</sub>O<sub>3</sub>Si",
        "Molecular Mass": "204.34",
        "Boiling Point": "207-209 °C"
    }
}