{
    "cas_no": "2798-25-6",
    "key_name": "Bellidifolin",
    "cn_name": "雏菊叶龙胆酮;雏菊叶龙胆酮;",
    "alternate_name": "9<em>H</em>-Xanthen-9-one, 1,5,8-trihydroxy-3-methoxy-;Xanthen-9-one, 1,5,8-trihydroxy-3-methoxy-;1,5,8-Trihydroxy-3-methoxy-9<em>H</em>-xanthen-9-one;Bellidifolin;Bellidifolium;Bellidifoline;1,5,8-Trihydroxy-3-methoxyxanthone;Bellidifodin;1,5,8-Trihydroxy-3-methoxyxanthen-9-one",
    "duplicated_cas_no": "1578263-19-0",
    "SMILES": "O=C1C=2C(OC=3C1=C(O)C=CC3O)=CC(OC)=CC2O",
    "meta_data": {
        "InChI": "InChI=1S/C14H10O6/c1-19-6-4-9(17)11-10(5-6)20-14-8(16)3-2-7(15)12(14)13(11)18/h2-5,15-17H,1H3",
        "InChIKey": null,
        "Canonical SMILES": "O=C1C2=C(O)C=C(OC)C=C2OC=3C(O)=CC=C(O)C13",
        "Molecular Formula": "C<sub>14</sub>H<sub>10</sub>O<sub>6</sub>",
        "Molecular Mass": "274.23",
        "Melting Point": "270 °C"
    }
}