{
    "cas_no": "99-60-5",
    "key_name": "2-Chloro-4-nitrobenzoic acid",
    "cn_name": "2-氯-4-硝基苯甲酸;",
    "alternate_name": "Benzoic acid, 2-chloro-4-nitro-;2-Chloro-4-nitrobenzoic acid;NSC 150;4-Nitro-2-chlorobenzoic acid",
    "duplicated_cas_no": "",
    "SMILES": "N(=O)(=O)C1=CC(Cl)=C(C(O)=O)C=C1",
    "meta_data": {
        "InChI": "InChI=1S/C7H4ClNO4/c8-6-3-4(9(12)13)1-2-5(6)7(10)11/h1-3H,(H,10,11)",
        "InChIKey": null,
        "Canonical SMILES": "O=C(O)C1=CC=C(C=C1Cl)N(=O)=O",
        "Molecular Formula": "C<sub>7</sub>H<sub>4</sub>ClNO<sub>4</sub>",
        "Molecular Mass": "201.56",
        "Melting Point": "140 °C",
        "Density": "1.602 g/cm³ (Solid)"
    }
}