{
    "cas_no": "5600-21-5",
    "key_name": "2-Amino-4-chloro-6-methylpyrimidine",
    "cn_name": "2-氨基-4-氯-6-甲基嘧啶;",
    "alternate_name": "2-Pyrimidinamine, 4-chloro-6-methyl-;Pyrimidine, 2-amino-4-chloro-6-methyl-;4-Chloro-6-methyl-2-pyrimidinamine;2-Amino-4-chloro-6-methylpyrimidine;AM;AM (nitrification inhibitor);NSC 23661;NSC 7892;2-Amino-6-chloro-4-methylpyrimidine;4-Chloro-6-methylpyrimidin-2-ylamine",
    "duplicated_cas_no": "60451-67-4;63957-85-7",
    "SMILES": "CC=1C=C(Cl)N=C(N)N1",
    "meta_data": {
        "InChI": "InChI=1S/C5H6ClN3/c1-3-2-4(6)9-5(7)8-3/h2H,1H3,(H2,7,8,9)",
        "InChIKey": null,
        "Canonical SMILES": "ClC=1N=C(N=C(C1)C)N",
        "Molecular Formula": "C<sub>5</sub>H<sub>6</sub>ClN<sub>3</sub>",
        "Molecular Mass": "143.57",
        "Melting Point": "182-183 °C"
    }
}