{
    "cas_no": "3598-16-1",
    "key_name": "Sodium phenoxyacetate",
    "cn_name": "苯氧乙酸钠;",
    "alternate_name": "Acetic acid, 2-phenoxy-, sodium salt (1:1);Acetic acid, phenoxy-, sodium salt;Sodium phenoxyacetate",
    "duplicated_cas_no": "",
    "SMILES": "O(CC(O)=O)C1=CC=CC=C1.[Na]",
    "meta_data": {
        "InChI": "InChI=1S/C8H8O3.Na/c9-8(10)6-11-7-4-2-1-3-5-7;/h1-5H,6H2,(H,9,10);",
        "InChIKey": null,
        "Canonical SMILES": "[Na].O=C(O)COC=1C=CC=CC1",
        "Molecular Formula": "C<sub>8</sub>H<sub>8</sub>O<sub>3</sub>.Na",
        "Molecular Mass": "",
        "Melting Point": "216 °C"
    }
}