{
    "cas_no": "14323-06-9",
    "key_name": "Tris(2,2′-bipyridyl)ruthenium(II) chloride",
    "cn_name": "三(2,2\"-联吡啶)二氯化钌;",
    "alternate_name": "Ruthenium(2+), tris(2,2′-bipyridine-κ<em>N</em><sup>1</sup>,κ<em>N</em><sup>1′</sup>)-, chloride (1:2), (<em>OC</em>-6-11)-;Ruthenium(2+), tris(2,2′-bipyridine)-, dichloride;Ruthenium(2+), tris(2,2′-bipyridine-<em>N</em>,<em>N</em>′)-, dichloride, (<em>OC</em>-6-11)-;Tris(2,2′-bipyridine)ruthenium dichloride;Ruthenium(2+), tris(2,2′-bipyridine-κ<em>N</em><sup>1</sup>,κ<em>N</em><sup>1′</sup>)-, dichloride, (<em>OC</em>-6-11)-;Tris(2,2′-bipyridine)ruthenium(II) dichloride;Tris(2,2′-bipyridine)ruthenium(2+) dichloride;Tris(bipyridine)ruthenium(2+) dichloride;Tris(2,2′-bipyridine)ruthenium(II) chloride;Tris(2,2′-bipyridine)dichlororuthenium;Ruthenium tris(2,2′-bipyridine) dichloride;Tris(bipyridine)ruthenium dichloride;Tris(2,2′-bipyridyl)Ru(II) dichloride;Ruthenium(2+), tris(2,2′-bipyridyl)-, dichloride;Tris(2,2′-bipyridyl)ruthenium dichloride;Tris(2,2′-bipyridyl)ruthenium(II) chloride;Ruthenium tris(2,2′-bipyridyl) dichloride;Dichlorotris(2,2′-bipyridyl)ruthenium(II);NSC 71326;Tris(2,2′-bipyridyl)ruthenium(2+) dichloride;Tris(bipyridine)ruthenium(II) chloride;Tris(2,2′-bipyridyl) dichlororuthenium (II)",
    "duplicated_cas_no": "53686-74-1;1448638-56-9",
    "SMILES": "[Ru+2]123([N]=4C(C=5[N]1=CC=CC5)=CC=CC4)([N]=6C(C=7[N]2=CC=CC7)=CC=CC6)[N]=8C(C=9[N]3=CC=CC9)=CC=CC8.[Cl-]",
    "meta_data": {
        "InChI": "InChI=1S/3C10H8N2.2ClH.Ru/c3*1-3-7-11-9(5-1)10-6-2-4-8-12-10;;;/h3*1-8H;2*1H;/q;;;;;+2/p-2",
        "InChIKey": null,
        "Canonical SMILES": "[Cl-].C=1C=C[N]2=C(C1)C=3C=CC=C[N]3[Ru+2]245([N]=6C=CC=CC6C=7C=CC=C[N]74)[N]=8C=CC=CC8C=9C=CC=C[N]95",
        "Molecular Formula": "C<sub>30</sub>H<sub>24</sub>N<sub>6</sub>Ru.2Cl",
        "Molecular Mass": "",
        "Melting Point": "&gt;300 °C"
    }
}