{
    "cas_no": "86060-96-0",
    "key_name": "<span class=\"text-smallcaps\">L</span>-Cysteine, <em>S</em>-[(acetylamino)methyl]-<em>N</em>-[(9<em>H</em>-fluoren-9-ylmethoxy)carbonyl]-, pentafluorophenyl ester",
    "cn_name": "N-芴甲氧羰基-S-乙酰胺基甲基-L-半胱氨酸五氟苯酯;",
    "alternate_name": "<span class=\"text-smallcaps\">L</span>-Cysteine, <em>S</em>-[(acetylamino)methyl]-<em>N</em>-[(9<em>H</em>-fluoren-9-ylmethoxy)carbonyl]-, pentafluorophenyl ester;(2,3,4,5,6-Pentafluorophenyl) (2R)-3-(acetamidomethylsulfanyl)-2-(9<em>H</em>-fluoren-9-ylmethoxycarbonylamino)propanoate",
    "duplicated_cas_no": "",
    "SMILES": "C(OC(N[C@H](C(OC1=C(F)C(F)=C(F)C(F)=C1F)=O)CSCNC(C)=O)=O)C2C=3C(C=4C2=CC=CC4)=CC=CC3",
    "meta_data": {
        "InChI": "InChI=1S/C27H21F5N2O5S/c1-13(35)33-12-40-11-19(26(36)39-25-23(31)21(29)20(28)22(30)24(25)32)34-27(37)38-10-18-16-8-4-2-6-14(16)15-7-3-5-9-17(15)18/h2-9,18-19H,10-12H2,1H3,(H,33,35)(H,34,37)/t19-/m0/s1",
        "InChIKey": null,
        "Canonical SMILES": "O=C(OCC1C=2C=CC=CC2C=3C=CC=CC31)NC(C(=O)OC=4C(F)=C(F)C(F)=C(F)C4F)CSCNC(=O)C",
        "Molecular Formula": "C<sub>27</sub>H<sub>21</sub>F<sub>5</sub>N<sub>2</sub>O<sub>5</sub>S",
        "Molecular Mass": "580.52",
        "Melting Point": "155-158 °C"
    }
}