{
    "cas_no": "1186-52-3",
    "key_name": "Acetic acid-<em>d</em><sub>4</sub>",
    "cn_name": "氘代乙酸;",
    "alternate_name": "Acetic-<em>d</em><sub>3</sub> acid-<em>d</em>;Acetic acid-<em>d</em><sub>4</sub>;Tetradeuteroacetic acid;Perdeuterioacetic acid;Acetic acid (CD<sub>3</sub>COOD);Tetradeuterioacetic acid;Perdeuteroacetic acid",
    "duplicated_cas_no": "2375359-78-5",
    "SMILES": "C(C([2H])([2H])[2H])(O[2H])=O",
    "meta_data": {
        "InChI": "InChI=1S/C2H4O2/c1-2(3)4/h1H3,(H,3,4)/i1D3/hD",
        "InChIKey": null,
        "Canonical SMILES": "O=C(O)C",
        "Molecular Formula": "C<sub>2</sub>D<sub>4</sub>O<sub>2</sub>",
        "Molecular Mass": "",
        "Melting Point": "15.8-16 °C",
        "Density": "1.137 g/cm³ @ Temp: 25 °C"
    }
}