{
    "cas_no": "2719-15-5",
    "key_name": "<em>N</em>-(2-Methyl-4-nitrophenyl)acetamide",
    "cn_name": "2-甲基-4-硝基乙酰苯胺;",
    "alternate_name": "Acetamide, <em>N</em>-(2-methyl-4-nitrophenyl)-;<em>o</em>-Acetotoluidide, 4′-nitro-;<em>N</em>-(2-Methyl-4-nitrophenyl)acetamide;2′-Methyl-4′-nitroacetanilide;Acetyl-<em>p</em>-nitro-<em>o</em>-toluidine;5-Nitro-2-acetamidotoluene;NSC 29042",
    "duplicated_cas_no": "",
    "SMILES": "N(C(C)=O)C1=C(C)C=C(N(=O)=O)C=C1",
    "meta_data": {
        "InChI": "InChI=1S/C9H10N2O3/c1-6-5-8(11(13)14)3-4-9(6)10-7(2)12/h3-5H,1-2H3,(H,10,12)",
        "InChIKey": null,
        "Canonical SMILES": "O=C(NC1=CC=C(C=C1C)N(=O)=O)C",
        "Molecular Formula": "C<sub>9</sub>H<sub>10</sub>N<sub>2</sub>O<sub>3</sub>",
        "Molecular Mass": "194.19",
        "Melting Point": "150-151 °C"
    }
}