{
    "cas_no": "17685-05-1",
    "key_name": "Phenol glucuronide",
    "cn_name": "苯基-β-D-葡糖苷酸;",
    "alternate_name": "β-<span class=\"text-smallcaps\">D</span>-Glucopyranosiduronic acid, phenyl;Glucopyranosiduronic acid, phenyl, β-<span class=\"text-smallcaps\">D</span>-;Glucopyranosiduronic acid, phenyl;Phenyl β-<span class=\"text-smallcaps\">D</span>-glucopyranosiduronic acid;Phenol β-<span class=\"text-smallcaps\">D</span>-glucuronide;Phenyl glucuronide;Phenol glucuronide;Phenyl β-<span class=\"text-smallcaps\">D</span>-glucuronide;Phenyl β-<span class=\"text-smallcaps\">D</span>-glucosiduronic acid",
    "duplicated_cas_no": "27937-29-7;30137-90-7",
    "SMILES": "O([C@@H]1O[C@H](C(O)=O)[C@@H](O)[C@H](O)[C@H]1O)C2=CC=CC=C2",
    "meta_data": {
        "InChI": "InChI=1S/C12H14O7/c13-7-8(14)10(11(16)17)19-12(9(7)15)18-6-4-2-1-3-5-6/h1-5,7-10,12-15H,(H,16,17)/t7-,8-,9+,10-,12+/m0/s1",
        "InChIKey": null,
        "Canonical SMILES": "O=C(O)C1OC(OC=2C=CC=CC2)C(O)C(O)C1O",
        "Molecular Formula": "C<sub>12</sub>H<sub>14</sub>O<sub>7</sub>",
        "Molecular Mass": "270.24",
        "Melting Point": "160-161 °C"
    }
}