{
    "cas_no": "6750-03-4",
    "key_name": "2,4-Nonadienal",
    "cn_name": null,
    "alternate_name": "2,4-Nonadienal;<em>n</em>-Nona-2,4-dienal",
    "duplicated_cas_no": "",
    "SMILES": "C(=CC=CC=O)CCCC",
    "meta_data": {
        "InChI": "InChI=1S/C9H14O/c1-2-3-4-5-6-7-8-9-10/h5-9H,2-4H2,1H3",
        "InChIKey": null,
        "Canonical SMILES": "O=CC=CC=CCCCC",
        "Molecular Formula": "C<sub>9</sub>H<sub>14</sub>O",
        "Molecular Mass": "138.21",
        "Boiling Point": "72-74 °C @ Press: 3 Torr"
    }
}