{
    "cas_no": "93-51-6",
    "key_name": "2-Methoxy-4-methylphenol",
    "cn_name": "2-甲氧基-4-甲基苯酚;4-甲基愈创木酚;",
    "alternate_name": "Phenol, 2-methoxy-4-methyl-;Creosol;<em>p</em>-Cresol, 2-methoxy-;2-Methoxy-4-methylphenol;Homoguaiacol;4-Hydroxy-3-methoxy-1-methylbenzene;4-Hydroxy-3-methoxytoluene;2-Methoxy-<em>p</em>-cresol;<em>p</em>-Methylguaiacol;4-Methylguaiacol;<em>p</em>-Creosol;4-Methyl-2-methoxyphenol;3-Methoxy-4-hydroxytoluene;NSC 4969;3-Methoxy-4-hydroxybenzaldhyde;Methyl guaiacol;Methylguaiacol-4",
    "duplicated_cas_no": "",
    "SMILES": "O(C)C1=C(O)C=CC(C)=C1",
    "meta_data": {
        "InChI": "InChI=1S/C8H10O2/c1-6-3-4-7(9)8(5-6)10-2/h3-5,9H,1-2H3",
        "InChIKey": null,
        "Canonical SMILES": "OC1=CC=C(C=C1OC)C",
        "Molecular Formula": "C<sub>8</sub>H<sub>10</sub>O<sub>2</sub>",
        "Molecular Mass": "138.16",
        "Boiling Point": "221 °C",
        "Melting Point": "5.5 °C",
        "Density": "1.0789 g/cm³ @ Temp: 38.60001953125 °C"
    }
}