{
    "cas_no": "170729-80-3",
    "key_name": "Aprepitant",
    "cn_name": "阿瑞吡坦;阿瑞匹坦;5-[2(R)-[1(R)-[3,5-二(三氟甲基)苯基]乙氧基]-3(S)-(4-氟苯基)吗啉-4-基甲基]-3,4-二氢;",
    "alternate_name": "3<em>H</em>-1,2,4-Triazol-3-one, 5-[[(2<em>R</em>,3<em>S</em>)-2-[(1<em>R</em>)-1-[3,5-bis(trifluoromethyl)phenyl]ethoxy]-3-(4-fluorophenyl)-4-morpholinyl]methyl]-1,2-dihydro-;3<em>H</em>-1,2,4-Triazol-3-one, 5-[[2-[1-[3,5-bis(trifluoromethyl)phenyl]ethoxy]-3-(4-fluorophenyl)-4-morpholinyl]methyl]-1,2-dihydro-, [2<em>R</em>-[2α(<em>R</em>*),3α]]-;5-[[(2<em>R</em>,3<em>S</em>)-2-[(1<em>R</em>)-1-[3,5-Bis(trifluoromethyl)phenyl]ethoxy]-3-(4-fluorophenyl)-4-morpholinyl]methyl]-1,2-dihydro-3<em>H</em>-1,2,4-triazol-3-one;L 754030;MK 869;Aprepitant;MK 0869;Emend;ONO 7436;Cinvanti",
    "duplicated_cas_no": "221350-96-5",
    "SMILES": "C(N1[C@H]([C@@H](O[C@H](C)C2=CC(C(F)(F)F)=CC(C(F)(F)F)=C2)OCC1)C3=CC=C(F)C=C3)C4=NNC(=O)N4",
    "meta_data": {
        "InChI": "InChI=1S/C23H21F7N4O3/c1-12(14-8-15(22(25,26)27)10-16(9-14)23(28,29)30)37-20-19(13-2-4-17(24)5-3-13)34(6-7-36-20)11-18-31-21(35)33-32-18/h2-5,8-10,12,19-20H,6-7,11H2,1H3,(H2,31,32,33,35)/t12-,19+,20-/m1/s1",
        "InChIKey": null,
        "Canonical SMILES": "O=C1NN=C(N1)CN2CCOC(OC(C=3C=C(C=C(C3)C(F)(F)F)C(F)(F)F)C)C2C4=CC=C(F)C=C4",
        "Molecular Formula": "C<sub>23</sub>H<sub>21</sub>F<sub>7</sub>N<sub>4</sub>O<sub>3</sub>",
        "Molecular Mass": "534.43",
        "Melting Point": "255 °C"
    }
}