{
    "cas_no": "557-93-7",
    "key_name": "2-Bromopropene",
    "cn_name": "2-溴丙烯;",
    "alternate_name": "1-Propene, 2-bromo-;Propene, 2-bromo-;2-Bromo-1-propene;Isopropenyl bromide;2-Bromopropene;2-Bromopropylene;α-Methylvinyl bromide;NSC 87535",
    "duplicated_cas_no": "",
    "SMILES": "C(Br)(C)=C",
    "meta_data": {
        "InChI": "InChI=1S/C3H5Br/c1-3(2)4/h1H2,2H3",
        "InChIKey": null,
        "Canonical SMILES": "BrC(=C)C",
        "Molecular Formula": "C<sub>3</sub>H<sub>5</sub>Br",
        "Molecular Mass": "120.98",
        "Boiling Point": "48.4 °C",
        "Melting Point": "-126 °C",
        "Density": "1.4333 g/cm³ @ Temp: 16.2 °C"
    }
}