{
    "cas_no": "2388-32-1",
    "key_name": "2-Chloro-4-quinolinecarbonyl chloride",
    "cn_name": "2-氯喹啉-4-甲酰氯;",
    "alternate_name": "4-Quinolinecarbonyl chloride, 2-chloro-;Cinchoninoyl chloride, 2-chloro-;2-Chloro-4-quinolinecarbonyl chloride",
    "duplicated_cas_no": "",
    "SMILES": "C(Cl)(=O)C=1C2=C(N=C(Cl)C1)C=CC=C2",
    "meta_data": {
        "InChI": "InChI=1S/C10H5Cl2NO/c11-9-5-7(10(12)14)6-3-1-2-4-8(6)13-9/h1-5H",
        "InChIKey": null,
        "Canonical SMILES": "O=C(Cl)C=1C=C(Cl)N=C2C=CC=CC21",
        "Molecular Formula": "C<sub>10</sub>H<sub>5</sub>Cl<sub>2</sub>NO",
        "Molecular Mass": "226.06",
        "Boiling Point": "170 °C @ Press: 1.0 Torr",
        "Melting Point": "89 °C"
    }
}