{
    "cas_no": "494-52-0",
    "key_name": "Anabasine",
    "cn_name": null,
    "alternate_name": "Pyridine, 3-(2<em>S</em>)-2-piperidinyl-;Anabasine;Pyridine, 3-(2-piperidinyl)-, (<em>S</em>)-;3-(2<em>S</em>)-2-Piperidinylpyridine;Neonicotine;(-)-2-(3′-Pyridyl)piperidine;(-)-Anabasine;Anabasin;(<em>S</em>)-(-)-Anabasine;Neonikotin;(<em>S</em>)-Anabasine;NSC 87504;(2<em>S</em>)-2-(Pyridin-3-yl)piperidine;(<em>S</em>)-3-(Piperidin-2-yl)pyridine;3-[(2S)-2-Piperidyl]pyridine;3-[(2S)-Piperidin-2-yl]pyridine;MeSH ID: D000691",
    "duplicated_cas_no": "15973-56-5",
    "SMILES": "C=1(C=CC=NC1)[C@@H]2CCCCN2",
    "meta_data": {
        "InChI": "InChI=1S/C10H14N2/c1-2-7-12-10(5-1)9-4-3-6-11-8-9/h3-4,6,8,10,12H,1-2,5,7H2/t10-/m0/s1",
        "InChIKey": null,
        "Canonical SMILES": "N=1C=CC=C(C1)C2NCCCC2",
        "Molecular Formula": "C<sub>10</sub>H<sub>14</sub>N<sub>2</sub>",
        "Molecular Mass": "162.23",
        "Boiling Point": "270-272 °C",
        "Melting Point": "9 °C",
        "Density": "1.0455 g/cm³ @ Temp: 20 °C"
    }
}