{
    "cas_no": "38212-33-8",
    "key_name": "1-(4-Chlorophenyl)piperazine",
    "cn_name": "1-(4-氯苯基)哌嗪;",
    "alternate_name": "Piperazine, 1-(4-chlorophenyl)-;Piperazine, 1-(<em>p</em>-chlorophenyl)-;1-(4-Chlorophenyl)piperazine;1-(<em>p</em>-Chlorophenyl)piperazine;<em>N</em>-(<em>p</em>-Chlorophenyl)piperazine;4-(4-Chlorophenyl)piperazine;<em>N</em>-(4-Chlorophenyl)piperazine;<em>p</em>-Chlorophenylpiperazine;NSC 126708;<em>N</em>-(4-Chloroophenyl)piperazine",
    "duplicated_cas_no": "1268599-77-4",
    "SMILES": "ClC1=CC=C(C=C1)N2CCNCC2",
    "meta_data": {
        "InChI": "InChI=1S/C10H13ClN2/c11-9-1-3-10(4-2-9)13-7-5-12-6-8-13/h1-4,12H,5-8H2",
        "InChIKey": null,
        "Canonical SMILES": "ClC1=CC=C(C=C1)N2CCNCC2",
        "Molecular Formula": "C<sub>10</sub>H<sub>13</sub>ClN<sub>2</sub>",
        "Molecular Mass": "196.68",
        "Boiling Point": "155.7-157.2 °C @ Press: 5 Torr",
        "Melting Point": "71.5-73.5 °C"
    }
}