{
    "cas_no": "27568-05-4",
    "key_name": "3-Quinolinecarboxylic acid, 4-chloro-8-methoxy-, ethyl ester",
    "cn_name": "4-氯-8-甲氧基喹啉-3-甲酸乙酯;",
    "alternate_name": "3-Quinolinecarboxylic acid, 4-chloro-8-methoxy-, ethyl ester;Ethyl 4-chloro-8-methoxy-3-quinolinecarboxylate;4-Chloro-8-methoxy-3-quinolinecarboxylic acid ethyl ester;NSC 196906",
    "duplicated_cas_no": "",
    "SMILES": "O(C)C=1C2=C(C(Cl)=C(C(OCC)=O)C=N2)C=CC1",
    "meta_data": {
        "InChI": "InChI=1S/C13H12ClNO3/c1-3-18-13(16)9-7-15-12-8(11(9)14)5-4-6-10(12)17-2/h4-7H,3H2,1-2H3",
        "InChIKey": null,
        "Canonical SMILES": "O=C(OCC)C1=CN=C2C(OC)=CC=CC2=C1Cl",
        "Molecular Formula": "C<sub>13</sub>H<sub>12</sub>ClNO<sub>3</sub>",
        "Molecular Mass": "265.69",
        "Melting Point": "77-78 °C"
    }
}