{
    "cas_no": "376-90-9",
    "key_name": "2,2,3,3,4,4-Hexafluoro-1,5-pentanediol",
    "cn_name": "2,2,3,3,4,4-六氟-1,5-戊烷二醇;2,2,3,3,4,4-六氟环-1,5-戊二醇;六氟戊二醇;2,2,3,3,4,4-六氟-1,5-戊烷二醇;",
    "alternate_name": "1,5-Pentanediol, 2,2,3,3,4,4-hexafluoro-;2,2,3,3,4,4-Hexafluoro-1,5-pentanediol;Hexafluoroamylene glycol;2,2,3,3,4,4-Hexafluoropentanediol;NSC 29196",
    "duplicated_cas_no": "29713-13-1",
    "SMILES": "C(C(CO)(F)F)(C(CO)(F)F)(F)F",
    "meta_data": {
        "InChI": "InChI=1S/C5H6F6O2/c6-3(7,1-12)5(10,11)4(8,9)2-13/h12-13H,1-2H2",
        "InChIKey": null,
        "Canonical SMILES": "FC(F)(CO)C(F)(F)C(F)(F)CO",
        "Molecular Formula": "C<sub>5</sub>H<sub>6</sub>F<sub>6</sub>O<sub>2</sub>",
        "Molecular Mass": "212.09",
        "Boiling Point": "111.5 °C @ Press: 10 Torr",
        "Melting Point": "77.5 °C"
    }
}