{
    "cas_no": "1660-04-4",
    "key_name": "1-Acetyladamantane",
    "cn_name": "1-金刚烷甲酮;",
    "alternate_name": "Ethanone, 1-tricyclo[3.3.1.1<sup>3,7</sup>]dec-1-yl-;Ketone, 1-adamantyl methyl;1-Tricyclo[3.3.1.1<sup>3,7</sup>]dec-1-ylethanone;1-Adamantyl methyl ketone;Methyl 1-adamantyl ketone;1-Acetyladamantane;Adamantyl methyl ketone;1-(1-Adamantyl)ethanone;Methyl adamantyl ketone;1-(Adamantan-1-yl)ethanone;1-(Adamantan-1-yl)ethan-1-one;1-(1-Adamantyl)ethan-1-one",
    "duplicated_cas_no": "",
    "SMILES": "C(C)(=O)C12CC3CC(C1)CC(C2)C3",
    "meta_data": {
        "InChI": "InChI=1S/C12H18O/c1-8(13)12-5-9-2-10(6-12)4-11(3-9)7-12/h9-11H,2-7H2,1H3",
        "InChIKey": null,
        "Canonical SMILES": "O=C(C)C12CC3CC(CC(C3)C1)C2",
        "Molecular Formula": "C<sub>12</sub>H<sub>18</sub>O",
        "Molecular Mass": "178.27",
        "Melting Point": "54 °C"
    }
}