{
    "cas_no": "100-83-4",
    "key_name": "3-Hydroxybenzaldehyde",
    "cn_name": "间羟基苯甲醛;3-羟基苯甲醛;",
    "alternate_name": "Benzaldehyde, 3-hydroxy-;Benzaldehyde, <em>m</em>-hydroxy-;3-Hydroxybenzaldehyde;<em>m</em>-Formylphenol;3-Formylphenol;<em>m</em>-Hydroxybenzaldehyde;NSC 3504;5-Hydroxybenzaldehyde",
    "duplicated_cas_no": "",
    "SMILES": "C(=O)C1=CC(O)=CC=C1",
    "meta_data": {
        "InChI": "InChI=1S/C7H6O2/c8-5-6-2-1-3-7(9)4-6/h1-5,9H",
        "InChIKey": null,
        "Canonical SMILES": "O=CC=1C=CC=C(O)C1",
        "Molecular Formula": "C<sub>7</sub>H<sub>6</sub>O<sub>2</sub>",
        "Molecular Mass": "122.12",
        "Boiling Point": "240 °C",
        "Melting Point": "108 °C",
        "Density": "1.1299 g/cm³ @ Temp: 113.6 °C"
    }
}