{
    "cas_no": "644-64-4",
    "key_name": "Dimetilan",
    "cn_name": null,
    "alternate_name": "Carbamic acid, <em>N</em>,<em>N</em>-dimethyl-, 1-[(dimethylamino)carbonyl]-5-methyl-1<em>H</em>-pyrazol-3-yl ester;Carbamic acid, dimethyl-, ester with 3-hydroxy-<em>N</em>,<em>N</em>,5-trimethylpyrazole-1-carboxamide;Carbamic acid, dimethyl-, 1-[(dimethylamino)carbonyl]-5-methyl-1<em>H</em>-pyrazol-3-yl ester;Carbamic acid, dimethyl-, 1-dimethylcarbamoyl-5-methylpyrazol-3-yl ester;Pyrazole-1-carboxamide, 3-hydroxy-<em>N</em>,<em>N</em>,5-trimethyl-, dimethylcarbamate (ester);Geigy 22870;2-Dimethylcarbamoyl-3-methyl-5-pyrazolyl dimethylcarbamate;2-(<em>N</em>,<em>N</em>-Dimethylcarbamyl)-3-methylpyrazolyl-5 N,<em>N</em>-dimethylcarbamate;Snip Fly;2-Dimethylcarbamyl-3-methylpyrazol-5-yl dimethylcarbamate;1-Dimethylcarbamoyl-5-methyl-3-pyrazolyl dimethylcarbamate;Dimetilan;Dimetilane;1-(Dimethylcarbamoyl)-5-methyl-3-pyrazolyl <em>N</em>,<em>N</em>-dimethylcarbamate",
    "duplicated_cas_no": "",
    "SMILES": "C(N(C)C)(=O)N1N=C(OC(N(C)C)=O)C=C1C",
    "meta_data": {
        "InChI": "InChI=1S/C10H16N4O3/c1-7-6-8(17-10(16)13(4)5)11-14(7)9(15)12(2)3/h6H,1-5H3",
        "InChIKey": null,
        "Canonical SMILES": "O=C(OC1=NN(C(=O)N(C)C)C(=C1)C)N(C)C",
        "Molecular Formula": "C<sub>10</sub>H<sub>16</sub>N<sub>4</sub>O<sub>3</sub>",
        "Molecular Mass": "240.26",
        "Boiling Point": "200-210 °C @ Press: 13 Torr",
        "Melting Point": "68-71 °C"
    }
}