{
    "cas_no": "119-12-0",
    "key_name": "Pyridaphenthion",
    "cn_name": "哒嗪硫磷;苯哒嗪硫磷;O-(1,6-二氢-6-氧代-1-苯基-3-哒嗪基)-O,O-二乙基硫代磷酸酯;",
    "alternate_name": "Phosphorothioic acid, <em>O</em>-(1,6-dihydro-6-oxo-1-phenyl-3-pyridazinyl) <em>O</em>,<em>O</em>-diethyl ester;Phosphorothioic acid, <em>O</em>,<em>O</em>-diethyl ester, <em>O</em>-ester with 6-hydroxy-2-phenyl-3(2<em>H</em>)-pyridazinone;3(2<em>H</em>)-Pyridazinone, 6-hydroxy-2-phenyl-, <em>O</em>-ester with <em>O</em>,<em>O</em>-diethyl phosphorothioate;ENT 23,968;American Cyanamid 12,503;<em>O</em>,<em>O</em>-Diethyl <em>O</em>-(2,3-dihydro-3-oxo-2-phenyl-6-pyridazinyl) phosphorothioate;<em>O</em>,<em>O</em>-Diethyl phosphorothioate O-ester with 6-hydroxy-2-phenyl-3(2<em>H</em>)-pyridazinone;<em>O</em>-(1,6)-Dihydro-6-oxo-1-phenylpyridazin-3-yl) <em>O</em>,<em>O</em>-diethyl phosphorothioate;CL 12503;Pyridafenthion;Pyridaphenthion;Ofunack;Oreste",
    "duplicated_cas_no": "88966-94-3",
    "SMILES": "O=C1N(N=C(OP(OCC)(OCC)=S)C=C1)C2=CC=CC=C2",
    "meta_data": {
        "InChI": "InChI=1S/C14H17N2O4PS/c1-3-18-21(22,19-4-2)20-13-10-11-14(17)16(15-13)12-8-6-5-7-9-12/h5-11H,3-4H2,1-2H3",
        "InChIKey": null,
        "Canonical SMILES": "O=C1C=CC(=NN1C=2C=CC=CC2)OP(=S)(OCC)OCC",
        "Molecular Formula": "C<sub>14</sub>H<sub>17</sub>N<sub>2</sub>O<sub>4</sub>PS",
        "Molecular Mass": "340.33",
        "Melting Point": "55 °C"
    }
}