{
    "cas_no": "61832-41-5",
    "key_name": "<em>N</em>-Methyl-1-(methylthio)-2-nitroethenamine",
    "cn_name": "N-甲基-1-甲硫基-2-硝基乙烯胺;",
    "alternate_name": "Ethenamine, <em>N</em>-methyl-1-(methylthio)-2-nitro-;<em>N</em>-Methyl-1-(methylthio)-2-nitroethenamine;1-(Methylamino)-1-(methylthio)-2-nitroethylene;1-(Methylthio)-1-(methylamino)-2-nitroethylene;2-(Methylthio)-2-(methylamino)-1-nitroethene;2-(Methylamino)-2-(methylthio)-1-nitroethene;1-(Methylthio)-1-(methylamino)-2-nitroethene;<em>N</em>-Methyl-1-(methylthio)-2-nitro-1-ethenamine;1-(Methylamino)-1-(methylthio)-2-nitroethene;2-(Methylamino)-2-(methylthio)-1-nitroethylene;1-(Methylthio)-2-nitro-<em>N</em>-methylethyleneamine;<em>N</em>-Methyl-1-methylthio-2-nitroethyleneamine",
    "duplicated_cas_no": "",
    "SMILES": "C(=CN(=O)=O)(NC)SC",
    "meta_data": {
        "InChI": "InChI=1S/C4H8N2O2S/c1-5-4(9-2)3-6(7)8/h3,5H,1-2H3",
        "InChIKey": null,
        "Canonical SMILES": "O=N(=O)C=C(SC)NC",
        "Molecular Formula": "C<sub>4</sub>H<sub>8</sub>N<sub>2</sub>O<sub>2</sub>S",
        "Molecular Mass": "148.18",
        "Melting Point": "113-115 °C"
    }
}