{
    "cas_no": "74209-25-9",
    "key_name": "3-Bromo-1-methyl-5-nitro-1<em>H</em>-indazole",
    "cn_name": null,
    "alternate_name": "1<em>H</em>-Indazole, 3-bromo-1-methyl-5-nitro-;3-Bromo-1-methyl-5-nitro-1<em>H</em>-indazole;3-Bromo-1-methyl-5-nitroindazole",
    "duplicated_cas_no": "1620816-88-7",
    "SMILES": "BrC=1C=2C(N(C)N1)=CC=C(N(=O)=O)C2",
    "meta_data": {
        "InChI": "InChI=1S/C8H6BrN3O2/c1-11-7-3-2-5(12(13)14)4-6(7)8(9)10-11/h2-4H,1H3",
        "InChIKey": null,
        "Canonical SMILES": "O=N(=O)C=1C=CC2=C(C1)C(Br)=NN2C",
        "Molecular Formula": "C<sub>8</sub>H<sub>6</sub>BrN<sub>3</sub>O<sub>2</sub>",
        "Molecular Mass": "256.06",
        "Melting Point": "225 °C"
    }
}