{
    "cas_no": "304680-36-2",
    "key_name": "1-Octyl-3-methylimidazolium hexafluorophosphate",
    "cn_name": null,
    "alternate_name": "1<em>H</em>-Imidazolium, 1-methyl-3-octyl-, hexafluorophosphate(1-) (1:1);1<em>H</em>-Imidazolium, 1-methyl-3-octyl-, hexafluorophosphate(1-);1-Methyl-3-octylimidazolium hexafluorophosphate;1-Octyl-3-methylimidazolium hexafluorophosphate;1-<em>n</em>-Octyl-3-methylimidazolium hexafluorophosphate;1-Methyl-3-octyl-1<em>H</em>-imidazolium hexafluorophosphate(1-);[Omim]PF<sub>6</sub>;1-Methyl-3-octyl-1<em>H</em>-imidazolium hexafluorophosphate;1-Octyl-3-methylimidazolium hexafluorophosphate(1-);1-Octyl-3-methylimidazolium hexaflurophosphate;1-Methyl-3-octylimidazolium hexafluorophosphate(1-);1-Methyl-3-<em>n</em>-octylimidazolium Hexafluorophosphate",
    "duplicated_cas_no": "2170204-21-2;2629309-67-5",
    "SMILES": "C(CCCCCCC)[N+]1=CN(C)C=C1.[P+5]([F-])([F-])([F-])([F-])([F-])[F-]",
    "meta_data": {
        "InChI": "InChI=1S/C12H23N2.F6P/c1-3-4-5-6-7-8-9-14-11-10-13(2)12-14;1-7(2,3,4,5)6/h10-12H,3-9H2,1-2H3;/q+1;-1",
        "InChIKey": null,
        "Canonical SMILES": "[F-][P+5]([F-])([F-])([F-])([F-])[F-].C1=C[N+](=CN1C)CCCCCCCC",
        "Molecular Formula": "C<sub>12</sub>H<sub>23</sub>N<sub>2</sub>.F<sub>6</sub>P",
        "Molecular Mass": "",
        "Melting Point": "-70 °C",
        "Density": "1.21 g/cm³"
    }
}