{
    "cas_no": "78686-79-0",
    "key_name": "Methyl 5-bromo-2-chloronicotinate",
    "cn_name": "5-溴-2-氯烟酸甲酯;",
    "alternate_name": "3-Pyridinecarboxylic acid, 5-bromo-2-chloro-, methyl ester;Methyl 2-chloro-5-bromo-3-pyridinecarboxylate;5-Bromo-2-chloronicotinic acid methyl ester;Methyl 5-bromo-2-chloronicotinate;5-Bromo-2-chloropyridine-3-carboxylic acid methyl ester;Methyl 5-bromo-2-chloropyridine-3-carboxylate",
    "duplicated_cas_no": "",
    "SMILES": "C(OC)(=O)C1=C(Cl)N=CC(Br)=C1",
    "meta_data": {
        "InChI": "InChI=1S/C7H5BrClNO2/c1-12-7(11)5-2-4(8)3-10-6(5)9/h2-3H,1H3",
        "InChIKey": null,
        "Canonical SMILES": "O=C(OC)C1=CC(Br)=CN=C1Cl",
        "Molecular Formula": "C<sub>7</sub>H<sub>5</sub>BrClNO<sub>2</sub>",
        "Molecular Mass": "250.48",
        "Melting Point": "48-49 °C"
    }
}