{
    "cas_no": "2277-28-3",
    "key_name": "1-Monolinolein",
    "cn_name": "1-单壬烷-rac-甘油;1-亚油酸单甘油酯;",
    "alternate_name": "9,12-Octadecadienoic acid (9<em>Z</em>,12<em>Z</em>)-, 2,3-dihydroxypropyl ester;Linolein, 1-mono-;9,12-Octadecadienoic acid (<em>Z</em>,<em>Z</em>)-, 2,3-dihydroxypropyl ester;α-Glyceryl linoleate;1-Monolinolein;Glycerol 1-monolinolate;1-Glyceryl linoleate;Oleinate 288;α-Monolinolein;1-Linoleylglycerol;1-Monolinoleoyl-<em>rac</em>-glycerol;(±)-2,3-Dihydroxypropyl 9(<em>Z</em>),12(<em>Z</em>)-octadecadienoate;2,3-Dihydroxypropyl linoleate;3-<em>O</em>-(9Z,12Z-Octadecadienoyl)glycerol;1-<em>O</em>-(9<em>Z</em>,12<em>Z</em>-Octadecadienoyl)glycerol;(9Z,12Z)-2,3-Dihydroxypropyl octadecadienoate;1-Monolinoleoyl-rac-glycerol;1-Linoleoyl-rac-glycerol",
    "duplicated_cas_no": "107380-08-5",
    "SMILES": "C(CC(OCC(CO)O)=O)CCCCC/C=C\\C/C=C\\CCCCC",
    "meta_data": {
        "InChI": "InChI=1/C21H38O4/c1-2-3-4-5-6-7-8-9-10-11-12-13-14-15-16-17-21(24)25-19-20(23)18-22/h6-7,9-10,20,22-23H,2-5,8,11-19H2,1H3/b7-6-,10-9-",
        "InChIKey": null,
        "Canonical SMILES": "O=C(OCC(O)CO)CCCCCCCC=CCC=CCCCCC",
        "Molecular Formula": "C<sub>21</sub>H<sub>38</sub>O<sub>4</sub>",
        "Molecular Mass": "354.52",
        "Melting Point": "14-15 °C"
    }
}