{
    "cas_no": "606-22-4",
    "key_name": "2,6-Dinitroaniline",
    "cn_name": "2,6-二硝基苯胺;",
    "alternate_name": "Benzenamine, 2,6-dinitro-;Aniline, 2,6-dinitro-;2,6-Dinitrobenzenamine;2,6-Dinitroaniline;2-Amino-1,3-dinitrobenzene;1-Amino-2,6-dinitrobenzene;NSC 93399;2,6-Dinitro-phenylamine",
    "duplicated_cas_no": "",
    "SMILES": "N(=O)(=O)C1=C(N)C(N(=O)=O)=CC=C1",
    "meta_data": {
        "InChI": "InChI=1S/C6H5N3O4/c7-6-4(8(10)11)2-1-3-5(6)9(12)13/h1-3H,7H2",
        "InChIKey": null,
        "Canonical SMILES": "O=N(=O)C1=CC=CC(=C1N)N(=O)=O",
        "Molecular Formula": "C<sub>6</sub>H<sub>5</sub>N<sub>3</sub>O<sub>4</sub>",
        "Molecular Mass": "183.12",
        "Melting Point": "141.5 °C"
    }
}