{
    "cas_no": "2002-44-0",
    "key_name": "<span class=\"text-smallcaps\">L</smallcap>-Prolyl-<smallcap>L</span>-leucylglycinamide",
    "cn_name": "Pro-Leu-Gly amide;",
    "alternate_name": "Glycinamide, <span class=\"text-smallcaps\">L</smallcap>-prolyl-<smallcap>L</span>-leucyl-;2-Pyrrolidinecarboxamide, <em>N</em>-[1-[(carbamoylmethyl)carbamoyl]-3-methylbutyl]-;<span class=\"text-smallcaps\">L</smallcap>-Prolyl-<smallcap>L</span>-leucylglycinamide;<span class=\"text-smallcaps\">L</smallcap>-Proline-<smallcap>L</span>-leucine-glycine-amide;Pro-Leu-Gly-NH<sub>2</sub>;H-Pro-Leu-Gly-NH<sub>2</sub>;Melanocyte-stimulating hormone release-inhibiting factor I (ox);<span class=\"text-smallcaps\">L</smallcap>-Prolyl-<smallcap>L</span>-leucylglycylamide;<span class=\"text-smallcaps\">L</smallcap>-Prolyl-<smallcap>L</span>-leucyl-glycine amide;MSH-release inhibiting factor I;Melanocyte-stimulating hormone release-inhibiting factor I;Prolylleucylglycine amide;Prolyleucyl-glycinamide;Melanostatin I (ox);MIF-I;MIF-1;Oxytocin C-terminal tripeptide;7-9-Oxytocin;26: PN: US6093797 PAGE: 15 claimed protein;27: PN: US6093797 PAGE: 15 claimed protein;2: PN: WO2009039992 PAGE: 107 claimed protein;Melanocyte-stimulating hormone release-inhibiting factor 1",
    "duplicated_cas_no": "15569-83-2",
    "SMILES": "[C@@H](NC(=O)[C@@H]1CCCN1)(C(NCC(N)=O)=O)CC(C)C",
    "meta_data": {
        "InChI": "InChI=1S/C13H24N4O3/c1-8(2)6-10(12(19)16-7-11(14)18)17-13(20)9-4-3-5-15-9/h8-10,15H,3-7H2,1-2H3,(H2,14,18)(H,16,19)(H,17,20)/t9-,10-/m0/s1",
        "InChIKey": null,
        "Canonical SMILES": "O=C(N)CNC(=O)C(NC(=O)C1NCCC1)CC(C)C",
        "Molecular Formula": "C<sub>13</sub>H<sub>24</sub>N<sub>4</sub>O<sub>3</sub>",
        "Molecular Mass": "284.35",
        "Melting Point": "122-123 °C"
    }
}