{
    "cas_no": "67-36-7",
    "key_name": "4-Phenoxybenzaldehyde",
    "cn_name": null,
    "alternate_name": "Benzaldehyde, 4-phenoxy-;Benzaldehyde, <em>p</em>-phenoxy-;4-Phenoxybenzaldehyde;<em>p</em>-Phenoxybenzaldehyde;4-Formyldiphenyl ether;4-Phenoxybenzenecarboxaldehyde",
    "duplicated_cas_no": "",
    "SMILES": "O(C1=CC=C(C=O)C=C1)C2=CC=CC=C2",
    "meta_data": {
        "InChI": "InChI=1S/C13H10O2/c14-10-11-6-8-13(9-7-11)15-12-4-2-1-3-5-12/h1-10H",
        "InChIKey": null,
        "Canonical SMILES": "O=CC1=CC=C(OC=2C=CC=CC2)C=C1",
        "Molecular Formula": "C<sub>13</sub>H<sub>10</sub>O<sub>2</sub>",
        "Molecular Mass": "198.22",
        "Boiling Point": "183-185 °C @ Press: 18 Torr"
    }
}