{
    "cas_no": "610-15-1",
    "key_name": "2-Nitrobenzamide",
    "cn_name": "2-硝基苯甲酰胺;",
    "alternate_name": "Benzamide, 2-nitro-;Benzamide, <em>o</em>-nitro-;2-Nitrobenzamide;<em>o</em>-Nitrobenzamide;2-Carbamoylnitrobenzene;NSC 407995",
    "duplicated_cas_no": "",
    "SMILES": "C(N)(=O)C1=C(N(=O)=O)C=CC=C1",
    "meta_data": {
        "InChI": "InChI=1S/C7H6N2O3/c8-7(10)5-3-1-2-4-6(5)9(11)12/h1-4H,(H2,8,10)",
        "InChIKey": null,
        "Canonical SMILES": "O=C(N)C=1C=CC=CC1N(=O)=O",
        "Molecular Formula": "C<sub>7</sub>H<sub>6</sub>N<sub>2</sub>O<sub>3</sub>",
        "Molecular Mass": "166.13",
        "Boiling Point": "317 °C",
        "Melting Point": "176.6 °C",
        "Density": "1.43 g/cm³"
    }
}