{
    "cas_no": "5455-98-1",
    "key_name": "<em>N</em>-(2,3-Epoxypropyl)phthalimide",
    "cn_name": "N-(2,3-环氧丙基)邻苯二甲酰胺;N-环氧丙基邻苯二甲酰亚胺;N-(2,3-环氧丙基)邻苯二甲酰亚胺;PHT-环氧丙胺;",
    "alternate_name": "1<em>H</em>-Isoindole-1,3(2<em>H</em>)-dione, 2-(2-oxiranylmethyl)-;1<em>H</em>-Isoindole-1,3(2<em>H</em>)-dione, 2-(oxiranylmethyl)-;Phthalimide, <em>N</em>-(2,3-epoxypropyl)-;2-(2-Oxiranylmethyl)-1<em>H</em>-isoindole-1,3(2<em>H</em>)-dione;<em>N</em>-(2,3-Epoxypropyl)phthalimide;2,3-Epoxypropylphthalimide;<em>N</em>-Glycidylphthalimide;Denacol EX 731;(Phthalimidomethyl)oxirane;2-(Phthalimidomethyl)oxirane;<em>N</em>-Oxiranylmethylphthalimide;NSC 7244;<em>N</em>-(2,3-Epoxypropan-1-yl)phthalimide;2-[(Oxiranyl)methyl]isoindole-1,3-dione;<em>N</em>-(2,3-Epoxypropyl)-2-phthalimide;2-(Oxiran-2-ylmethyl)-2,3-dihydro-1<em>H</em>-isoindole-1,3-dione;2-(Oxiran-2-ylmethyl)isoindoline-1,3-dione;2-(Oxiran-2-ylmethyl)isoindole-1,3-dione;2-(Oxiranylmethyl)-1<em>H</em>-isoindole-1,3(2<em>H</em>)-dione;EX 731",
    "duplicated_cas_no": "142176-79-2",
    "SMILES": "O=C1C=2C(C(=O)N1CC3CO3)=CC=CC2",
    "meta_data": {
        "InChI": "InChI=1S/C11H9NO3/c13-10-8-3-1-2-4-9(8)11(14)12(10)5-7-6-15-7/h1-4,7H,5-6H2",
        "InChIKey": null,
        "Canonical SMILES": "O=C1C=2C=CC=CC2C(=O)N1CC3OC3",
        "Molecular Formula": "C<sub>11</sub>H<sub>9</sub>NO<sub>3</sub>",
        "Molecular Mass": "203.19",
        "Melting Point": "93-94 °C"
    }
}