{
    "cas_no": "7212-44-4",
    "key_name": "Nerolidol",
    "cn_name": "橙花叔醇;3,7,11-三甲基-1,6,10-十二碳三烯-3-醇;",
    "alternate_name": "1,6,10-Dodecatrien-3-ol, 3,7,11-trimethyl-;Nerolidol;3,7,11-Trimethyl-1,6,10-dodecatrien-3-ol;FCI 119b;(±)-Nerolidol;Nerodilol",
    "duplicated_cas_no": "35944-21-9",
    "SMILES": "C(CCC(C=C)(C)O)=C(CCC=C(C)C)C",
    "meta_data": {
        "InChI": "InChI=1S/C15H26O/c1-6-15(5,16)12-8-11-14(4)10-7-9-13(2)3/h6,9,11,16H,1,7-8,10,12H2,2-5H3",
        "InChIKey": null,
        "Canonical SMILES": "OC(C=C)(C)CCC=C(C)CCC=C(C)C",
        "Molecular Formula": "C<sub>15</sub>H<sub>26</sub>O",
        "Molecular Mass": "222.37",
        "Boiling Point": "75-76 °C @ Press: 0.1 Torr",
        "Melting Point": "&lt;25 °C",
        "Density": "0.8739 g/cm³ @ Temp: 22 °C"
    }
}