{
    "cas_no": "89193-16-8",
    "key_name": "Ethyl 5-methyl-1-phenyl-1<em>H</em>-pyrazole-4-carboxylate",
    "cn_name": null,
    "alternate_name": "1<em>H</em>-Pyrazole-4-carboxylic acid, 5-methyl-1-phenyl-, ethyl ester;Pyrazole-4-carboxylic acid, 5-methyl-1-phenyl-, ethyl ester;Ethyl 5-methyl-1-phenyl-1<em>H</em>-pyrazole-4-carboxylate;NSC 85879;Ethyl 5-methyl-1-phenylpyrazole-4-carboxylate;5-Methyl-1-phenyl-1<em>H</em>-pyrazole-4-carboxylic acid ethyl ester;5-Methyl-1-phenylpyrazole-4-carboxylic acid ethyl ester",
    "duplicated_cas_no": "",
    "SMILES": "CC=1N(N=CC1C(OCC)=O)C2=CC=CC=C2",
    "meta_data": {
        "InChI": "InChI=1S/C13H14N2O2/c1-3-17-13(16)12-9-14-15(10(12)2)11-7-5-4-6-8-11/h4-9H,3H2,1-2H3",
        "InChIKey": null,
        "Canonical SMILES": "O=C(OCC)C=1C=NN(C=2C=CC=CC2)C1C",
        "Molecular Formula": "C<sub>13</sub>H<sub>14</sub>N<sub>2</sub>O<sub>2</sub>",
        "Molecular Mass": "230.26",
        "Melting Point": "55-56 °C"
    }
}