{
    "cas_no": "19780-10-0",
    "key_name": "5-Dodecanone",
    "cn_name": "5-十二酮;",
    "alternate_name": "5-Dodecanone;Butyl heptyl ketone;NSC 158524",
    "duplicated_cas_no": "",
    "SMILES": "C(CCCCCCC)(CCCC)=O",
    "meta_data": {
        "InChI": "InChI=1S/C12H24O/c1-3-5-7-8-9-11-12(13)10-6-4-2/h3-11H2,1-2H3",
        "InChIKey": null,
        "Canonical SMILES": "O=C(CCCC)CCCCCCC",
        "Molecular Formula": "C<sub>12</sub>H<sub>24</sub>O",
        "Molecular Mass": "184.32",
        "Boiling Point": "93-96 °C @ Press: 0.9 Torr"
    }
}