{
    "cas_no": "10160-24-4",
    "key_name": "7-Bromo-1-heptanol",
    "cn_name": "7-溴-1-庚醇;",
    "alternate_name": "1-Heptanol, 7-bromo-;7-Bromo-1-heptanol;7-Bromoheptanol",
    "duplicated_cas_no": "",
    "SMILES": "C(CCCBr)CCCO",
    "meta_data": {
        "InChI": "InChI=1S/C7H15BrO/c8-6-4-2-1-3-5-7-9/h9H,1-7H2",
        "InChIKey": null,
        "Canonical SMILES": "BrCCCCCCCO",
        "Molecular Formula": "C<sub>7</sub>H<sub>15</sub>BrO",
        "Molecular Mass": "195.10",
        "Boiling Point": "108 °C @ Press: 1 Torr"
    }
}