{
    "cas_no": "4247-02-3",
    "key_name": "Isobutylparaben",
    "cn_name": "尼泊金异丁酯;对羟基苯甲酸异丁酯;",
    "alternate_name": "Benzoic acid, 4-hydroxy-, 2-methylpropyl ester;Benzoic acid, <em>p</em>-hydroxy-, isobutyl ester;Isobutyl <em>p</em>-hydroxybenzoate;Isobutyl 4-hydroxybenzoate;2-Methylpropyl <em>p</em>-hydroxybenzoate;Isobutylparaben;<em>iso</em>-Butyl <em>p</em>-hydroxybenzoate;<em>p</em>-Hydroxybenzoic acid isobutyl ester;2-Methylpropyl 4-hydroxybenzoate",
    "duplicated_cas_no": "",
    "SMILES": "C(OCC(C)C)(=O)C1=CC=C(O)C=C1",
    "meta_data": {
        "InChI": "InChI=1S/C11H14O3/c1-8(2)7-14-11(13)9-3-5-10(12)6-4-9/h3-6,8,12H,7H2,1-2H3",
        "InChIKey": null,
        "Canonical SMILES": "O=C(OCC(C)C)C1=CC=C(O)C=C1",
        "Molecular Formula": "C<sub>11</sub>H<sub>14</sub>O<sub>3</sub>",
        "Molecular Mass": "194.23",
        "Melting Point": "74-77 °C"
    }
}