{
    "cas_no": "578-54-1",
    "key_name": "2-Ethylaniline",
    "cn_name": "2-乙基苯胺;邻乙基苯胺;",
    "alternate_name": "Benzenamine, 2-ethyl-;Aniline, <em>o</em>-ethyl-;2-Ethylbenzenamine;<em>o</em>-Ethylaniline;2-Ethylaniline;<em>o</em>-Aminoethylbenzene;2-Ethylphenylamine;NSC 62014",
    "duplicated_cas_no": "",
    "SMILES": "C(C)C1=C(N)C=CC=C1",
    "meta_data": {
        "InChI": "InChI=1S/C8H11N/c1-2-7-5-3-4-6-8(7)9/h3-6H,2,9H2,1H3",
        "InChIKey": null,
        "Canonical SMILES": "NC=1C=CC=CC1CC",
        "Molecular Formula": "C<sub>8</sub>H<sub>11</sub>N",
        "Molecular Mass": "121.18",
        "Boiling Point": "209.65 °C",
        "Melting Point": "-46.5 °C",
        "Density": "0.982 g/cm³ @ Temp: 20 °C"
    }
}