{
    "cas_no": "673-32-5",
    "key_name": "Methylphenylacetylene",
    "cn_name": "1-苯基-1-丙炔;",
    "alternate_name": "Benzene, 1-propyn-1-yl-;Benzene, (1-propynyl)-;Benzene, 1-propynyl-;Propyne, 1-phenyl-;Propine, 1-phenyl-;1-Propyn-1-ylbenzene;1-Phenylpropyne;Phenylmethylacetylene;1-Phenyl-1-propyne;Methylphenylacetylene;1-Methyl-2-phenylacetylene;1-Propynylbenzene;Methylphenylethyne;3-Phenyl-2-propyne;(2-Methylethynyl)benzene",
    "duplicated_cas_no": "",
    "SMILES": "C(#CC)C1=CC=CC=C1",
    "meta_data": {
        "InChI": "InChI=1S/C9H8/c1-2-6-9-7-4-3-5-8-9/h3-5,7-8H,1H3",
        "InChIKey": null,
        "Canonical SMILES": "C(#CC)C=1C=CC=CC1",
        "Molecular Formula": "C<sub>9</sub>H<sub>8</sub>",
        "Molecular Mass": "116.16",
        "Boiling Point": "183 °C",
        "Melting Point": "90 °C",
        "Density": "0.9409 g/cm³ @ Temp: 20 °C"
    }
}