{
    "cas_no": "571-60-8",
    "key_name": "1,4-Naphthalenediol",
    "cn_name": null,
    "alternate_name": "1,4-Naphthalenediol;Naphthohydroquinone;1,4-Dihydroxynaphthalene;Hydronaphthoquinone;1,4-Naphthohydroquinone;α-Naphthoquinhydrone;1,4-Naphthoquinol",
    "duplicated_cas_no": "",
    "SMILES": "OC=1C2=C(C(O)=CC1)C=CC=C2",
    "meta_data": {
        "InChI": "InChI=1S/C10H8O2/c11-9-5-6-10(12)8-4-2-1-3-7(8)9/h1-6,11-12H",
        "InChIKey": null,
        "Canonical SMILES": "OC1=CC=C(O)C=2C=CC=CC12",
        "Molecular Formula": "C<sub>10</sub>H<sub>8</sub>O<sub>2</sub>",
        "Molecular Mass": "160.17",
        "Melting Point": "&gt;190 °C (decomp)"
    }
}