{
    "cas_no": "429-42-5",
    "key_name": "Tetrabutylammonium tetrafluoroborate",
    "cn_name": "四丁基四氟硼酸铵;",
    "alternate_name": "1-Butanaminium, <em>N</em>,<em>N</em>,<em>N</em>-tributyl-, tetrafluoroborate(1-) (1:1);Ammonium, tetrabutyl-, tetrafluoroborate(1-);Tetrabutylammonium tetrafluoroborate;1-Butanaminium, <em>N</em>,<em>N</em>,<em>N</em>-tributyl-, tetrafluoroborate(1-);Borate(1-), tetrafluoro-, tetrabutylammonium;Borate(1-), tetrafluoro-, <em>N</em>,<em>N</em>,<em>N</em>-tributyl-1-butanaminium;Tetrabutylammonium fluoborate;Tetrabutylammonium tetrafluoroborate(1-);Tetra-<em>n</em>-butylammonium tetrafluoroborate;Tetrabutylammonium tetrafluoroborane;Ammonium tetra-<em>n</em>-butyl tetrafluoroborate",
    "duplicated_cas_no": "",
    "SMILES": "[B+3]([F-])([F-])([F-])[F-].[N+](CCCC)(CCCC)(CCCC)CCCC",
    "meta_data": {
        "InChI": "InChI=1S/C16H36N.BF4/c1-5-9-13-17(14-10-6-2,15-11-7-3)16-12-8-4;2-1(3,4)5/h5-16H2,1-4H3;/q+1;-1",
        "InChIKey": null,
        "Canonical SMILES": "[F-][B+3]([F-])([F-])[F-].CCCC[N+](CCCC)(CCCC)CCCC",
        "Molecular Formula": "C<sub>16</sub>H<sub>36</sub>N.BF<sub>4</sub>",
        "Molecular Mass": "",
        "Melting Point": "158-159 °C"
    }
}