{
    "cas_no": "28860-95-9",
    "key_name": "Carbidopa",
    "cn_name": "卡别多巴;卡比多巴;(S)-3-(3,4-二羟基苯基)-2-肼基-2-甲基-丙酸;",
    "alternate_name": "Benzenepropanoic acid, α-hydrazinyl-3,4-dihydroxy-α-methyl-, (α<em>S</em>)-;Hydrocinnamic acid, α-hydrazino-3,4-dihydroxy-α-methyl-, <span class=\"text-smallcaps\">L</span>-;Benzenepropanoic acid, α-hydrazino-3,4-dihydroxy-α-methyl-, (<em>S</em>)-;Benzenepropanoic acid, α-hydrazino-3,4-dihydroxy-α-methyl-, (α<em>S</em>)-;(α<em>S</em>)-α-Hydrazinyl-3,4-dihydroxy-α-methylbenzenepropanoic acid;<span class=\"text-smallcaps\">L</span>-α-Hydrazino-α-methyl-β-(3,4-dihydroxyphenyl)propionic acid;MK 486;<span class=\"text-smallcaps\">L</span>-3-(3,4-Dihydroxyphenyl)-2-methyl-2-hydrazinopropionic acid;<span class=\"text-smallcaps\">L</span>-α-Methyl-α-hydrazino-β-(3,4-dihydroxyphenyl)propionic acid;<span class=\"text-smallcaps\">L</span>-α-Methyl-β-(3,4-dihydroxyphenyl)-α-hydrazinopropionic acid;<span class=\"text-smallcaps\">L</span>-α-Methyldopahydrazine;Carbidopa;(-)-<span class=\"text-smallcaps\">L</span>-α-Hydrazino-3,4-dihydroxy-α-methylhydrocinnamic acid monohydrate;<span class=\"text-smallcaps\">L</span>-α-(3,4-Dihydroxybenzyl)-α-hydrazinopropionic acid;1-α-(3,4-Dihydroxybenzyl)-α-hydrazinopropionic acid;(-)-<span class=\"text-smallcaps\">L</span>-α-Hydrazino-3,4-dihydroxy-α-methylhydrocinamic acid;α-Hydrazino-α-methyl-β-(3,4-dihydroxyphenyl)propionic acid;α-Methyldopahydrazine;Hydrazino-α-methyldopa;<span class=\"text-smallcaps\">L</span>-α-Hydrazino-α-methyl-3,4-dihydroxyphenylpropionic acid;<span class=\"text-smallcaps\">L</span>-α-Methyl-α-hydrazino-3,4-dihydroxyphenylpropionic acid;<em>N</em>-Aminomethyldopa;<span class=\"text-smallcaps\">L</span>-α-Hydrazino-3,4-dihydroxy-α-methylbenzenepropanoic acid;Lodosyn;HMD;Lodosin;(<em>S</em>)-Carbidopa;<span class=\"text-smallcaps\">L</span>-Carbidopa;(2S)-2-(Aminoazaniumyl)-3-(3,4-dihydroxyphenyl)-2-methylpropanoate;(2S)-3-(3,4-Dihydroxyphenyl)-2-hydrazinyl-2-methylpropanoic acid;Cabidopa;MeSH ID: D002230",
    "duplicated_cas_no": "27925-91-3;31823-41-3",
    "SMILES": "[C@@](CC1=CC(O)=C(O)C=C1)(C(O)=O)(NN)C",
    "meta_data": {
        "InChI": "InChI=1S/C10H14N2O4/c1-10(12-11,9(15)16)5-6-2-3-7(13)8(14)4-6/h2-4,12-14H,5,11H2,1H3,(H,15,16)/t10-/m0/s1",
        "InChIKey": null,
        "Canonical SMILES": "O=C(O)C(NN)(C)CC1=CC=C(O)C(O)=C1",
        "Molecular Formula": "C<sub>10</sub>H<sub>14</sub>N<sub>2</sub>O<sub>4</sub>",
        "Molecular Mass": "226.23",
        "Melting Point": "208 °C"
    }
}