{
    "cas_no": "80-06-8",
    "key_name": "1,1-Bis(4-chlorophenyl)ethanol",
    "cn_name": "杀螨醇;",
    "alternate_name": "Benzenemethanol, 4-chloro-α-(4-chlorophenyl)-α-methyl-;Benzhydrol, 4,4′-dichloro-α-methyl-;4-Chloro-α-(4-chlorophenyl)-α-methylbenzenemethanol;ENT 9624;Bis(<em>p</em>-chlorophenyl)methyl carbinol;DCPC;4,4′-Dichloro-α-methylbenzhydrol;Di(<em>p</em>-chlorophenyl)ethanol;Dimite;DMC;Bis(4-chlorophenyl)methyl carbinol;Micasin;1,1-Bis(4-chlorophenyl)ethanol;Quickron;BPE;Mikazene;Chlorfenethol;Dimit;BCPE (pesticide);BCPE;Qikron;1,1-Di(4-chlorophenyl)ethanol;NSC 2848;1,1-Bis(4-chlorophenyl)ethan-1-ol",
    "duplicated_cas_no": "",
    "SMILES": "C(C)(O)(C1=CC=C(Cl)C=C1)C2=CC=C(Cl)C=C2",
    "meta_data": {
        "InChI": "InChI=1S/C14H12Cl2O/c1-14(17,10-2-6-12(15)7-3-10)11-4-8-13(16)9-5-11/h2-9,17H,1H3",
        "InChIKey": null,
        "Canonical SMILES": "ClC1=CC=C(C=C1)C(O)(C2=CC=C(Cl)C=C2)C",
        "Molecular Formula": "C<sub>14</sub>H<sub>12</sub>Cl<sub>2</sub>O",
        "Molecular Mass": "267.15",
        "Melting Point": "70 °C"
    }
}