{
    "cas_no": "7789-59-5",
    "key_name": "Phosphoric tribromide",
    "cn_name": "氧溴化磷;溴化磷酰;磷酰溴;三溴氧磷;",
    "alternate_name": "Phosphoric tribromide;Phosphoryl bromide;Phosphorus oxybromide;Phosphoryl tribromide;Tribromophosphorus oxide;Phosphorus oxytribromide;Phosphonyl tribromide;Phosphorus bromide oxide (PBr<sub>3</sub>O)",
    "duplicated_cas_no": "",
    "SMILES": "P(Br)(Br)(Br)=O",
    "meta_data": {
        "InChI": "InChI=1S/Br3OP/c1-5(2,3)4",
        "InChIKey": null,
        "Canonical SMILES": "O=P(Br)(Br)Br",
        "Molecular Formula": "Br<sub>3</sub>OP",
        "Molecular Mass": "286.69",
        "Boiling Point": "192.0 °C",
        "Melting Point": "55-56 °C",
        "Density": "2.822 g/cm³"
    }
}