{
    "cas_no": "4956-37-0",
    "key_name": "Estradiol enanthate",
    "cn_name": "雌二醇庚酸酯;庚酸雌二醇;",
    "alternate_name": "Estra-1,3,5(10)-triene-3,17-diol (17β)-, 17-heptanoate;Estradiol, 17-heptanoate;Heptanoic acid, 3-hydroxyestra-1,3,5(10)-trien-17β-yl ester;SQ 16150;Estradiol 17-enanthate;Estradiol enanthate",
    "duplicated_cas_no": "",
    "SMILES": "C[C@@]12[C@]([C@]3([C@@](C=4C(CC3)=CC(O)=CC4)(CC1)[H])[H])(CC[C@@H]2OC(CCCCCC)=O)[H]",
    "meta_data": {
        "InChI": "InChI=1S/C25H36O3/c1-3-4-5-6-7-24(27)28-23-13-12-22-21-10-8-17-16-18(26)9-11-19(17)20(21)14-15-25(22,23)2/h9,11,16,20-23,26H,3-8,10,12-15H2,1-2H3/t20-,21-,22+,23+,25+/m1/s1",
        "InChIKey": null,
        "Canonical SMILES": "O=C(OC1CCC2C3CCC4=CC(O)=CC=C4C3CCC12C)CCCCCC",
        "Molecular Formula": "C<sub>25</sub>H<sub>36</sub>O<sub>3</sub>",
        "Molecular Mass": "384.55",
        "Melting Point": "94-96 °C"
    }
}