{
    "cas_no": "7598-61-0",
    "key_name": "Diethyl <em>P</em>-(2,2-diethoxyethyl)phosphonate",
    "cn_name": "2,2-二乙氧基乙基磷酸二乙酯;",
    "alternate_name": "Phosphonic acid, <em>P</em>-(2,2-diethoxyethyl)-, diethyl ester;Phosphonic acid, (formylmethyl)-, diethyl ester, diethyl acetal;Phosphonic acid, (2,2-diethoxyethyl)-, diethyl ester;Diethyl <em>P</em>-(2,2-diethoxyethyl)phosphonate;Diethylphosphonoacetaldehyde diethyl acetal;Diethyl (2,2-diethoxyethyl)phosphonate;NSC 407851;NSC 77101;2-Diethoxyphosphoryl-1,1-diethoxyethane",
    "duplicated_cas_no": "",
    "SMILES": "P(CC(OCC)OCC)(OCC)(OCC)=O",
    "meta_data": {
        "InChI": "InChI=1S/C10H23O5P/c1-5-12-10(13-6-2)9-16(11,14-7-3)15-8-4/h10H,5-9H2,1-4H3",
        "InChIKey": null,
        "Canonical SMILES": "O=P(OCC)(OCC)CC(OCC)OCC",
        "Molecular Formula": "C<sub>10</sub>H<sub>23</sub>O<sub>5</sub>P",
        "Molecular Mass": "254.26",
        "Boiling Point": "146-149 °C",
        "Density": "1.0515 g/cm³ @ Temp: 20 °C"
    }
}