{
    "cas_no": "3034-94-4",
    "key_name": "1-Ethynyl-3-nitrobenzene",
    "cn_name": "3-硝基苯乙炔; 1-乙炔基-3-硝基苯;",
    "alternate_name": "Benzene, 1-ethynyl-3-nitro-;1-Ethynyl-3-nitrobenzene;<em>m</em>-Nitrophenylacetylene;(<em>m</em>-Nitrophenyl)ethyne;3-Nitrophenylacetylene;3-Nitroethynylbenzene",
    "duplicated_cas_no": "",
    "SMILES": "N(=O)(=O)C1=CC(C#C)=CC=C1",
    "meta_data": {
        "InChI": "InChI=1S/C8H5NO2/c1-2-7-4-3-5-8(6-7)9(10)11/h1,3-6H",
        "InChIKey": null,
        "Canonical SMILES": "O=N(=O)C=1C=CC=C(C#C)C1",
        "Molecular Formula": "C<sub>8</sub>H<sub>5</sub>NO<sub>2</sub>",
        "Molecular Mass": "147.13",
        "Boiling Point": "120 °C @ Press: 11 Torr",
        "Melting Point": "27 °C"
    }
}