{
    "cas_no": "2432-74-8",
    "key_name": "6-Aminohexanenitrile",
    "cn_name": "6-胺己腈;",
    "alternate_name": "Hexanenitrile, 6-amino-;6-Aminohexanenitrile;ω-Aminocapronitrile;6-Aminocapronitrile;6-Aminohexanonitrile;ε-Aminocapronitrile;NSC 510;5-Cyanopentylamine",
    "duplicated_cas_no": "",
    "SMILES": "C(CCC#N)CCN",
    "meta_data": {
        "InChI": "InChI=1S/C6H12N2/c7-5-3-1-2-4-6-8/h1-5,7H2",
        "InChIKey": null,
        "Canonical SMILES": "N#CCCCCCN",
        "Molecular Formula": "C<sub>6</sub>H<sub>12</sub>N<sub>2</sub>",
        "Molecular Mass": "112.17",
        "Boiling Point": "235.5 °C",
        "Melting Point": "-31.4 °C"
    }
}