{
    "cas_no": "13080-89-2",
    "key_name": "4,4′-[Sulfonylbis(4,1-phenyleneoxy)]bis[benzenamine]",
    "cn_name": "4,4\"-双(4-氨基苯氧基)二苯砜;",
    "alternate_name": "Benzenamine, 4,4′-[sulfonylbis(4,1-phenyleneoxy)]bis-;Aniline, 4,4′-[sulfonylbis(<em>p</em>-phenyleneoxy)]di-;4,4′-[Sulfonylbis(4,1-phenyleneoxy)]bis[benzenamine];Bis[4-(4-aminophenoxy)phenyl] sulfone;Bis[<em>p</em>-(<em>p</em>-aminophenoxy)phenyl] sulfone;4,4′-[Sulfonylbis(<em>p</em>-phenyleneoxy)]dianiline;4,4′-Bis(4-aminophenoxy)diphenyl sulfone;SED;Bis[4-(4′-aminophenoxy)phenyl) sulfone;4,4′-(Sulfonylbis(4,1-phenylene))bis(oxy)dianiline;BAPS",
    "duplicated_cas_no": "139776-92-4;162521-85-9",
    "SMILES": "S(=O)(=O)(C1=CC=C(OC2=CC=C(N)C=C2)C=C1)C3=CC=C(OC4=CC=C(N)C=C4)C=C3",
    "meta_data": {
        "InChI": "InChI=1S/C24H20N2O4S/c25-17-1-5-19(6-2-17)29-21-9-13-23(14-10-21)31(27,28)24-15-11-22(12-16-24)30-20-7-3-18(26)4-8-20/h1-16H,25-26H2",
        "InChIKey": null,
        "Canonical SMILES": "O=S(=O)(C1=CC=C(OC2=CC=C(N)C=C2)C=C1)C3=CC=C(OC4=CC=C(N)C=C4)C=C3",
        "Molecular Formula": "C<sub>24</sub>H<sub>20</sub>N<sub>2</sub>O<sub>4</sub>S",
        "Molecular Mass": "432.49",
        "Melting Point": "188-191 °C"
    }
}