{
    "cas_no": "477-90-7",
    "key_name": "(-)-Bergenin",
    "cn_name": "岩白菜素;",
    "alternate_name": "Pyrano[3,2-<em>c</em>][2]benzopyran-6(2<em>H</em>)-one, 3,4,4a,10b-tetrahydro-3,4,8,10-tetrahydroxy-2-(hydroxymethyl)-9-methoxy-, (2<em>R</em>,3<em>S</em>,4<em>S</em>,4a<em>R</em>,10b<em>S</em>)-;Bergenin;Pyrano[3,2-<em>c</em>][2]benzopyran-6(2<em>H</em>)-one, 3,4,4a,10b-tetrahydro-3,4,8,10-tetrahydroxy-2-(hydroxymethyl)-9-methoxy-, [2<em>R</em>-(2α,3β,4α,4aα,10bβ)]-;α-Resorcylic acid, 4-methoxy-2-[tetrahydro-3,4,5-trihydroxy-6-(hydroxymethyl)pyran-2-yl]-, δ-lactone;(2<em>R</em>,3<em>S</em>,4<em>S</em>,4a<em>R</em>,10b<em>S</em>)-3,4,4a,10b-Tetrahydro-3,4,8,10-tetrahydroxy-2-(hydroxymethyl)-9-methoxypyrano[3,2-<em>c</em>][2]benzopyran-6(2<em>H</em>)-one;Ai Cha Su;Corylopsin;Vakerin;Peltophorin;Cuscutin;Ardisic acid B;Bergenit;NSC 661749;(-)-Bergenin;Bergeninum;Bengenin",
    "duplicated_cas_no": "1391-25-9;12262-00-9;22550-81-8",
    "SMILES": "OC1=C2[C@]3([C@](OC(=O)C2=CC(O)=C1OC)([C@@H](O)[C@H](O)[C@@H](CO)O3)[H])[H]",
    "meta_data": {
        "InChI": "InChI=1S/C14H16O9/c1-21-11-5(16)2-4-7(9(11)18)12-13(23-14(4)20)10(19)8(17)6(3-15)22-12/h2,6,8,10,12-13,15-19H,3H2,1H3/t6-,8-,10+,12+,13-/m1/s1",
        "InChIKey": null,
        "Canonical SMILES": "O=C1OC2C(O)C(O)C(OC2C3=C(O)C(OC)=C(O)C=C13)CO",
        "Molecular Formula": "C<sub>14</sub>H<sub>16</sub>O<sub>9</sub>",
        "Molecular Mass": "328.27",
        "Melting Point": "238 °C"
    }
}