{
    "cas_no": "4808-70-2",
    "key_name": "5-Methyl-3-pyridinesulfonic acid",
    "cn_name": "5-甲基吡啶-3-磺酸;",
    "alternate_name": "3-Pyridinesulfonic acid, 5-methyl-;5-Methyl-3-pyridinesulfonic acid",
    "duplicated_cas_no": "",
    "SMILES": "S(=O)(=O)(O)C=1C=C(C)C=NC1",
    "meta_data": {
        "InChI": "InChI=1S/C6H7NO3S/c1-5-2-6(4-7-3-5)11(8,9)10/h2-4H,1H3,(H,8,9,10)",
        "InChIKey": null,
        "Canonical SMILES": "O=S(=O)(O)C=1C=NC=C(C1)C",
        "Molecular Formula": "C<sub>6</sub>H<sub>7</sub>NO<sub>3</sub>S",
        "Molecular Mass": "173.19",
        "Melting Point": "310-312 °C"
    }
}