{
    "cas_no": "927-74-2",
    "key_name": "3-Butyn-1-ol",
    "cn_name": "3-丁炔-1-醇;",
    "alternate_name": "3-Butyn-1-ol;1-Butyn-4-ol;(2-Hydroxyethyl)acetylene;3-Butynol;4-Hydroxy-1-butyne;3-Butynyl alcohol;1-Hydroxy-3-butyne;NSC 9708;3-Butyn-1-yl alcohol",
    "duplicated_cas_no": "2855112-12-6",
    "SMILES": "C(C#C)CO",
    "meta_data": {
        "InChI": "InChI=1S/C4H6O/c1-2-3-4-5/h1,5H,3-4H2",
        "InChIKey": null,
        "Canonical SMILES": "C#CCCO",
        "Molecular Formula": "C<sub>4</sub>H<sub>6</sub>O",
        "Molecular Mass": "70.09",
        "Boiling Point": "129 °C",
        "Melting Point": "-63.6 °C",
        "Density": "0.9236 g/cm³ @ Temp: 20 °C"
    }
}