{
    "cas_no": "624-28-2",
    "key_name": "2,5-Dibromopyridine",
    "cn_name": "2,5-二溴吡啶;",
    "alternate_name": "Pyridine, 2,5-dibromo-;2,5-Dibromopyridine;NSC 76597;3,6-Dibromopyridine",
    "duplicated_cas_no": "",
    "SMILES": "BrC=1C=CC(Br)=NC1",
    "meta_data": {
        "InChI": "InChI=1S/C5H3Br2N/c6-4-1-2-5(7)8-3-4/h1-3H",
        "InChIKey": null,
        "Canonical SMILES": "BrC1=NC=C(Br)C=C1",
        "Molecular Formula": "C<sub>5</sub>H<sub>3</sub>Br<sub>2</sub>N",
        "Molecular Mass": "236.89",
        "Melting Point": "94-95 °C (sublm)",
        "Density": "1.633-1.635 g/cm³ @ Temp: 25 °C"
    }
}