{
    "cas_no": "92-48-8",
    "key_name": "6-Methylcoumarin",
    "cn_name": "6-甲基香豆素;",
    "alternate_name": "2<em>H</em>-1-Benzopyran-2-one, 6-methyl-;Coumarin, 6-methyl-;6-Methyl-2<em>H</em>-1-benzopyran-2-one;6-MC;6-Methylbenzopyrone;6-Methylcoumarin;6-Methylcoumarinic anhydride;Toncarine;NSC 5870;6-Methyl-2<em>H</em>-chromen-2-one",
    "duplicated_cas_no": "",
    "SMILES": "CC=1C=C2C(OC(=O)C=C2)=CC1",
    "meta_data": {
        "InChI": "InChI=1S/C10H8O2/c1-7-2-4-9-8(6-7)3-5-10(11)12-9/h2-6H,1H3",
        "InChIKey": null,
        "Canonical SMILES": "O=C1OC=2C=CC(=CC2C=C1)C",
        "Molecular Formula": "C<sub>10</sub>H<sub>8</sub>O<sub>2</sub>",
        "Molecular Mass": "160.17",
        "Boiling Point": "304 °C",
        "Melting Point": "76.5 °C"
    }
}