{
    "cas_no": "54910-89-3",
    "key_name": "Fluoxetine",
    "cn_name": "氟西汀;N-甲基-3-苯基-3-(对三氟甲基苯氧基)丙胺;",
    "alternate_name": "Benzenepropanamine, <em>N</em>-methyl-γ-[4-(trifluoromethyl)phenoxy]-;Benzenepropanamine, <em>N</em>-methyl-γ-[4-(trifluoromethyl)phenoxy]-, (±)-;<em>N</em>-Methyl-γ-[4-(trifluoromethyl)phenoxy]benzenepropanamine;Fluoxetine;<em>dl</em>-3-(<em>p</em>-Trifluoromethylphenoxy)-<em>N</em>-methyl-3-phenylpropylamine;(±)-Fluoxetine;(±)-<em>N</em>-Methyl-3-phenyl-3-[4-(trifluoromethyl)phenoxy]propylamine;3-(<em>p</em>-Trifluoromethylphenoxy)-<em>N</em>-methyl-3-phenylpropylamine;Deprex;Fluval;NSC 283480;<em>N</em>-Methyl-3-(<em>p</em>-trifluoromethylphenoxy)-3-phenylpropylamine;Nikomed;Fluoxin;Fluoxetin Ratiopharm;Symbiax;Seronil;<em>N</em>-Methyl-3-[4-(trifluoromethyl)phenoxy]-3-phenylpropanamine;Daforin;MeSH ID: D005473",
    "duplicated_cas_no": "52341-67-0;57226-07-0;2852796-61-1",
    "SMILES": "C(OC1=CC=C(C(F)(F)F)C=C1)(CCNC)C2=CC=CC=C2",
    "meta_data": {
        "InChI": "InChI=1S/C17H18F3NO/c1-21-12-11-16(13-5-3-2-4-6-13)22-15-9-7-14(8-10-15)17(18,19)20/h2-10,16,21H,11-12H2,1H3",
        "InChIKey": null,
        "Canonical SMILES": "FC(F)(F)C1=CC=C(OC(C=2C=CC=CC2)CCNC)C=C1",
        "Molecular Formula": "C<sub>17</sub>H<sub>18</sub>F<sub>3</sub>NO",
        "Molecular Mass": "309.33",
        "Melting Point": "158 °C"
    }
}