{
    "cas_no": "640-61-9",
    "key_name": "<em>N</em>-Methyl-<em>p</em>-toluenesulfonamide",
    "cn_name": "N-甲基对甲苯磺酰胺;",
    "alternate_name": "Benzenesulfonamide, <em>N</em>,4-dimethyl-;<em>p</em>-Toluenesulfonamide, <em>N</em>-methyl-;<em>N</em>,4-Dimethylbenzenesulfonamide;<em>N</em>-Methyl-<em>p</em>-toluenesulfonamide;(<em>p</em>-Tolylsulfonyl)methylamine;<em>N</em>-Methyl-<em>p</em>-toluenesulphonamide;<em>N</em>-Methyl-4-methylbenzenesulfonamide;4,<em>N</em>-Dimethylbenzenesulfonamide;NSC 2223;NSC 36991;<em>N</em>-Methyl-<em>para</em>-toluenesulfonamide;4-Methyl-<em>N</em>-methylbenzenesulfonamide",
    "duplicated_cas_no": "",
    "SMILES": "S(NC)(=O)(=O)C1=CC=C(C)C=C1",
    "meta_data": {
        "InChI": "InChI=1S/C8H11NO2S/c1-7-3-5-8(6-4-7)12(10,11)9-2/h3-6,9H,1-2H3",
        "InChIKey": null,
        "Canonical SMILES": "O=S(=O)(NC)C1=CC=C(C=C1)C",
        "Molecular Formula": "C<sub>8</sub>H<sub>11</sub>NO<sub>2</sub>S",
        "Molecular Mass": "185.24",
        "Melting Point": "78.5 °C"
    }
}