{
    "cas_no": "100-88-9",
    "key_name": "Cyclamate",
    "cn_name": "环拉酸;环己基氨基磺酸;",
    "alternate_name": "Sulfamic acid, <em>N</em>-cyclohexyl-;Cyclohexanesulfamic acid;Sulfamic acid, cyclohexyl-;<em>N</em>-Cyclohexylsulfamic acid;Cyclamate;Cyclamic acid;Cyclohexylsulfamic acid;Hexamic acid;Cyclohexylaminesulfonic acid;Cyclohexylamidosulfuric acid;Polycat 200;NSC 220327",
    "duplicated_cas_no": "45951-45-9",
    "SMILES": "N(S(=O)(=O)O)C1CCCCC1",
    "meta_data": {
        "InChI": "InChI=1S/C6H13NO3S/c8-11(9,10)7-6-4-2-1-3-5-6/h6-7H,1-5H2,(H,8,9,10)",
        "InChIKey": null,
        "Canonical SMILES": "O=S(=O)(O)NC1CCCCC1",
        "Molecular Formula": "C<sub>6</sub>H<sub>13</sub>NO<sub>3</sub>S",
        "Molecular Mass": "179.24",
        "Melting Point": "169.5 °C"
    }
}