{
    "cas_no": "168619-25-8",
    "key_name": "[1,1′-Biphenyl]-3-carboxylic acid, 3′-amino-, methyl ester",
    "cn_name": null,
    "alternate_name": "[1,1′-Biphenyl]-3-carboxylic acid, 3′-amino-, methyl ester;3′-Amino-[1,1′-biphenyl]-3-carboxylic acid methyl ester;Methyl 3′-amino-1,1′-biphenyl-3-carboxylate;Methyl 3′-aminobiphenyl-3-carboxylate;3′-Aminobiphenyl-3-carboxylic acid methyl ester",
    "duplicated_cas_no": "",
    "SMILES": "C(OC)(=O)C=1C=C(C=CC1)C2=CC(N)=CC=C2",
    "meta_data": {
        "InChI": "InChI=1S/C14H13NO2/c1-17-14(16)12-6-2-4-10(8-12)11-5-3-7-13(15)9-11/h2-9H,15H2,1H3",
        "InChIKey": null,
        "Canonical SMILES": "O=C(OC)C1=CC=CC(=C1)C2=CC=CC(N)=C2",
        "Molecular Formula": "C<sub>14</sub>H<sub>13</sub>NO<sub>2</sub>",
        "Molecular Mass": "227.26",
        "Melting Point": "84.9-85.1 °C"
    }
}