{
    "cas_no": "67648-61-7",
    "key_name": "2-(4-Hydroxyphenoxy)propionic acid",
    "cn_name": "2-(4-羟基苯氧基)丙酸;",
    "alternate_name": "Propanoic acid, 2-(4-hydroxyphenoxy)-;Propionic acid, 2-(<em>p</em>-hydroxyphenoxy)-;2-(4-Hydroxyphenoxy)propanoic acid;2-(<em>p</em>-Hydroxyphenoxy)propionic acid;2-(4-Hydroxyphenoxy)propionic acid;α-(<em>p</em>-Hydroxyphenoxy)propionic acid;(±)-2-(4-Hydroxyphenoxy)propionic acid;Methyl (±)-2-(4-hydroxyphenoxy)propanoate;<em>O</em>-(4-Hydroxyphenyl)lactic acid;NSC 522955;Radianskin PW LS 9918",
    "duplicated_cas_no": "95977-31-4",
    "SMILES": "O(C(C(O)=O)C)C1=CC=C(O)C=C1",
    "meta_data": {
        "InChI": "InChI=1S/C9H10O4/c1-6(9(11)12)13-8-4-2-7(10)3-5-8/h2-6,10H,1H3,(H,11,12)",
        "InChIKey": null,
        "Canonical SMILES": "O=C(O)C(OC1=CC=C(O)C=C1)C",
        "Molecular Formula": "C<sub>9</sub>H<sub>10</sub>O<sub>4</sub>",
        "Molecular Mass": "182.17",
        "Melting Point": "144 °C"
    }
}