{
    "cas_no": "59227-89-3",
    "key_name": "Laurocapram",
    "cn_name": "月桂氮酮;",
    "alternate_name": "2<em>H</em>-Azepin-2-one, 1-dodecylhexahydro-;1-Dodecylhexahydro-2<em>H</em>-azepin-2-one;1-Dodecylazacycloheptan-2-one;Azone;Laurocapram;<em>N</em>-Dodecylcaprolactam;Azon;1-Dodecylazepan-2-one",
    "duplicated_cas_no": "",
    "SMILES": "C(CCCCCCCCCCC)N1C(=O)CCCCC1",
    "meta_data": {
        "InChI": "InChI=1S/C18H35NO/c1-2-3-4-5-6-7-8-9-10-13-16-19-17-14-11-12-15-18(19)20/h2-17H2,1H3",
        "InChIKey": null,
        "Canonical SMILES": "O=C1N(CCCCC1)CCCCCCCCCCCC",
        "Molecular Formula": "C<sub>18</sub>H<sub>35</sub>NO",
        "Molecular Mass": "281.48",
        "Boiling Point": "195-200 °C @ Press: 3 Torr",
        "Melting Point": "-7 °C"
    }
}