{
    "cas_no": "17356-09-1",
    "key_name": "1-Iodo-4-isopropylbenzene",
    "cn_name": "4-碘基异丙苯;4-碘异丙苯;",
    "alternate_name": "Benzene, 1-iodo-4-(1-methylethyl)-;Cumene, <em>p</em>-iodo-;1-Iodo-4-(1-methylethyl)benzene;4-Iodocumene;1-Iodo-4-isopropylbenzene;<em>p</em>-Iodocumene;4-Isopropyliodobenzene;4-Isopropylphenyl iodide;4-Iodo-1-isopropylbenzene;4-Iodoisopropylbenzene;<em>p</em>-Iodoisopropylbenzene;4-Isopropyl-1-iodobenzene;1-Iodo-4-(propan-2-yl)benzene;1-Iodo-4-propan-2-ylbenzene",
    "duplicated_cas_no": "",
    "SMILES": "C(C)(C)C1=CC=C(I)C=C1",
    "meta_data": {
        "InChI": "InChI=1S/C9H11I/c1-7(2)8-3-5-9(10)6-4-8/h3-7H,1-2H3",
        "InChIKey": null,
        "Canonical SMILES": "IC1=CC=C(C=C1)C(C)C",
        "Molecular Formula": "C<sub>9</sub>H<sub>11</sub>I",
        "Molecular Mass": "246.09",
        "Boiling Point": "86-92 °C @ Press: 5-6 Torr",
        "Density": "1.5137 g/cm³ @ Temp: 20 °C"
    }
}