{
    "cas_no": "22536-63-6",
    "key_name": "2-Chloro-4-methoxypyrimidine",
    "cn_name": "2-氯-4-甲氧基嘧啶;",
    "alternate_name": "Pyrimidine, 2-chloro-4-methoxy-;2-Chloro-4-methoxypyrimidine",
    "duplicated_cas_no": "",
    "SMILES": "O(C)C1=NC(Cl)=NC=C1",
    "meta_data": {
        "InChI": "InChI=1S/C5H5ClN2O/c1-9-4-2-3-7-5(6)8-4/h2-3H,1H3",
        "InChIKey": null,
        "Canonical SMILES": "ClC1=NC=CC(=N1)OC",
        "Molecular Formula": "C<sub>5</sub>H<sub>5</sub>ClN<sub>2</sub>O",
        "Molecular Mass": "144.56",
        "Boiling Point": "96-97 °C @ Press: 18 Torr",
        "Melting Point": "55 °C"
    }
}