{
    "cas_no": "5675-51-4",
    "key_name": "1,12-Dodecanediol",
    "cn_name": "1,12-十二烷二醇;十二烷二元醇;油墨;",
    "alternate_name": "1,12-Dodecanediol;1,12-Dihydroxydodecane;<em>n</em>-Dodecane-1,12-diol;α,ω-Dodecanediol;NSC 81250;Dodecamethylene glycol;D 0969",
    "duplicated_cas_no": "",
    "SMILES": "C(CCCCCCO)CCCCCO",
    "meta_data": {
        "InChI": "InChI=1S/C12H26O2/c13-11-9-7-5-3-1-2-4-6-8-10-12-14/h13-14H,1-12H2",
        "InChIKey": null,
        "Canonical SMILES": "OCCCCCCCCCCCCO",
        "Molecular Formula": "C<sub>12</sub>H<sub>26</sub>O<sub>2</sub>",
        "Molecular Mass": "202.33",
        "Boiling Point": "175-180 °C @ Press: 3 Torr",
        "Melting Point": "81.3 °C"
    }
}