{
    "cas_no": "1450-94-8",
    "key_name": "1<em>H</em>-Imidazol-2-amine, 1-methyl-, hydrochloride (1:1)",
    "cn_name": null,
    "alternate_name": "1<em>H</em>-Imidazol-2-amine, 1-methyl-, hydrochloride (1:1);Imidazole, 2-amino-1-methyl-, monohydrochloride;1<em>H</em>-Imidazol-2-amine, 1-methyl-, monohydrochloride;1-Methyl-1<em>H</em>-imidazol-2-amine monohydrochloride;1-Methyl-1<em>H</em>-imidazol-2-amine hydrochloride",
    "duplicated_cas_no": "",
    "SMILES": "NC=1N(C)C=CN1.Cl",
    "meta_data": {
        "InChI": "InChI=1S/C4H7N3.ClH/c1-7-3-2-6-4(7)5;/h2-3H,1H3,(H2,5,6);1H",
        "InChIKey": null,
        "Canonical SMILES": "Cl.N=1C=CN(C1N)C",
        "Molecular Formula": "C<sub>4</sub>H<sub>7</sub>N<sub>3</sub>.ClH",
        "Molecular Mass": "",
        "Melting Point": "84.5 °C"
    }
}