{
    "cas_no": "1121-92-2",
    "key_name": "Azocan",
    "cn_name": "氮杂环辛烷;环庚亚胺;七甲亚胺;",
    "alternate_name": "Azocine, octahydro-;Heptamethylenimine;Octahydroazocine;Azacyclooctane;Perhydroazocine;1-Azacyclooctane;Azocan;Azocane",
    "duplicated_cas_no": "",
    "SMILES": "C1CCCNCCC1",
    "meta_data": {
        "InChI": "InChI=1S/C7H15N/c1-2-4-6-8-7-5-3-1/h8H,1-7H2",
        "InChIKey": null,
        "Canonical SMILES": "N1CCCCCCC1",
        "Molecular Formula": "C<sub>7</sub>H<sub>15</sub>N",
        "Molecular Mass": "113.20",
        "Boiling Point": "174-175 °C @ Press: 764 Torr",
        "Melting Point": "29 °C",
        "Density": "0.869 g/cm³ @ Temp: 17 °C"
    }
}