{
    "cas_no": "5460-32-2",
    "key_name": "4-Iodoveratrole",
    "cn_name": "4-碘藜芦醚;",
    "alternate_name": "Benzene, 4-iodo-1,2-dimethoxy-;Veratrole, 4-iodo-;4-Iodo-1,2-dimethoxybenzene;4-Iodoveratrole;3,4-Dimethoxyphenyl iodide;3,4-Dimethoxyiodobenzene;1-Iodo-3,4-dimethoxybenzene;1,2-Dimethoxy-4-iodobenzene;NSC 25012",
    "duplicated_cas_no": "",
    "SMILES": "O(C)C1=C(OC)C=C(I)C=C1",
    "meta_data": {
        "InChI": "InChI=1S/C8H9IO2/c1-10-7-4-3-6(9)5-8(7)11-2/h3-5H,1-2H3",
        "InChIKey": null,
        "Canonical SMILES": "IC1=CC=C(OC)C(OC)=C1",
        "Molecular Formula": "C<sub>8</sub>H<sub>9</sub>IO<sub>2</sub>",
        "Molecular Mass": "264.06",
        "Boiling Point": "163-164 °C @ Press: 26 Torr",
        "Melting Point": "34.5 °C"
    }
}