{
    "cas_no": "56317-21-6",
    "key_name": "Moracin M",
    "cn_name": null,
    "alternate_name": "1,3-Benzenediol, 5-(6-hydroxy-2-benzofuranyl)-;5-(6-Hydroxy-2-benzofuranyl)-1,3-benzenediol;6,3′,5′-Trihydroxy-2-phenylbenzofuran;Moracin M;Veraphenol;2-(3,5-Dihydroxyphenyl)-6-hydroxybenzofuran",
    "duplicated_cas_no": "",
    "SMILES": "OC=1C=C(C2=CC=3C(O2)=CC(O)=CC3)C=C(O)C1",
    "meta_data": {
        "InChI": "InChI=1S/C14H10O4/c15-10-2-1-8-5-13(18-14(8)7-10)9-3-11(16)6-12(17)4-9/h1-7,15-17H",
        "InChIKey": null,
        "Canonical SMILES": "OC=1C=CC=2C=C(OC2C1)C3=CC(O)=CC(O)=C3",
        "Molecular Formula": "C<sub>14</sub>H<sub>10</sub>O<sub>4</sub>",
        "Molecular Mass": "242.23",
        "Melting Point": "271-273 °C"
    }
}