{
    "cas_no": "35946-91-9",
    "key_name": "2,5-Diisopropylphenol",
    "cn_name": null,
    "alternate_name": "Phenol, 2,5-bis(1-methylethyl)-;Phenol, 2,5-diisopropyl-;2,5-Bis(1-methylethyl)phenol;2,5-Diisopropylphenol;2,5-Di(propan-2-yl)phenol;2,5-Bis(propan-2-yl)phenol;3,6-Di-isopropyl-phenol",
    "duplicated_cas_no": "50356-24-6",
    "SMILES": "C(C)(C)C1=CC(O)=C(C(C)C)C=C1",
    "meta_data": {
        "InChI": "InChI=1S/C12H18O/c1-8(2)10-5-6-11(9(3)4)12(13)7-10/h5-9,13H,1-4H3",
        "InChIKey": null,
        "Canonical SMILES": "OC1=CC(=CC=C1C(C)C)C(C)C",
        "Molecular Formula": "C<sub>12</sub>H<sub>18</sub>O",
        "Molecular Mass": "178.27",
        "Boiling Point": "115-120 °C"
    }
}