{
    "cas_no": "321-97-1",
    "key_name": "(-)-Pseudoephedrine",
    "cn_name": "左旋伪麻黄碱;",
    "alternate_name": "Benzenemethanol, α-[(1<em>R</em>)-1-(methylamino)ethyl]-, (α<em>R</em>)-;Pseudoephedrine, (-)-;Benzenemethanol, α-[1-(methylamino)ethyl]-, [<em>R</em>-(<em>R</em>*,<em>R</em>*)]-;(α<em>R</em>)-α-[(1<em>R</em>)-1-(Methylamino)ethyl]benzenemethanol;<span class=\"text-smallcaps\">D</span>-(-)-Pseudoephedrine;(-)-Pseudoephedrine;<em>l</em>-Pseudoephedrine;(-)-ψ-Ephedrine;(1<em>R</em>,2<em>R</em>)-Ephedrine;(-)-<em>threo</em>-Ephedrine;(1<em>R</em>,2<em>R</em>)-Pseudoephedrine;(1<em>R</em>,2<em>R</em>)-(-)-Pseudoephedrine;<span class=\"text-smallcaps\">D</span>-Pseudoephedrine;(-)-(1<em>R</em>,2<em>R</em>)-Pseudoephedrine;CPDD 0049;l-(1<em>R</em>,2<em>R</em>)-Pseudoephedrine;(<em>R</em>,<em>R</em>)-Pseudoephedrine",
    "duplicated_cas_no": "7009-81-6",
    "SMILES": "[C@@H]([C@H](NC)C)(O)C1=CC=CC=C1",
    "meta_data": {
        "InChI": "InChI=1S/C10H15NO/c1-8(11-2)10(12)9-6-4-3-5-7-9/h3-8,10-12H,1-2H3/t8-,10+/m1/s1",
        "InChIKey": null,
        "Canonical SMILES": "OC(C=1C=CC=CC1)C(NC)C",
        "Molecular Formula": "C<sub>10</sub>H<sub>15</sub>NO",
        "Molecular Mass": "165.23",
        "Melting Point": "119 °C"
    }
}