{
    "cas_no": "625-06-9",
    "key_name": "2,4-Dimethyl-2-pentanol",
    "cn_name": "2,4-二甲基-2-戊醇;二甲基异丁基甲醇;",
    "alternate_name": "2-Pentanol, 2,4-dimethyl-;2,4-Dimethyl-2-pentanol;Isobutyldimethylcarbinol;NSC 87555",
    "duplicated_cas_no": "",
    "SMILES": "C(C(C)(C)O)C(C)C",
    "meta_data": {
        "InChI": "InChI=1S/C7H16O/c1-6(2)5-7(3,4)8/h6,8H,5H2,1-4H3",
        "InChIKey": null,
        "Canonical SMILES": "OC(C)(C)CC(C)C",
        "Molecular Formula": "C<sub>7</sub>H<sub>16</sub>O",
        "Molecular Mass": "116.20",
        "Boiling Point": "133.1 °C",
        "Melting Point": "&lt;-20 °C",
        "Density": "0.8158 g/cm³ @ Temp: 20 °C"
    }
}