{
    "cas_no": "60-57-1",
    "key_name": "Dieldrin",
    "cn_name": null,
    "alternate_name": "2,7:3,6-Dimethanonaphth[2,3-<em>b</em>]oxirene, 3,4,5,6,9,9-hexachloro-1a,2,2a,3,6,6a,7,7a-octahydro-, (1a<em>R</em>,2<em>R</em>,2a<em>S</em>,3<em>S</em>,6<em>R</em>,6a<em>R</em>,7<em>S</em>,7a<em>S</em>)-<em>rel</em>-;2,7:3,6-Dimethanonaphth[2,3-<em>b</em>]oxirene, 3,4,5,6,9,9-hexachloro-1a,2,2a,3,6,6a,7,7a-octahydro-, (1aα,2β,2aα,3β,6β,6aα,7β,7aα)-;1,4:5,8-Dimethanonaphthalene, 1,2,3,4,10,10-hexachloro-6,7-epoxy-1,4,4a,5,6,7,8,8a-octahydro-, <em>endo</em>,<em>exo</em>-;<em>rel</em>-(1a<em>R</em>,2<em>R</em>,2a<em>S</em>,3<em>S</em>,6<em>R</em>,6a<em>R</em>,7<em>S</em>,7a<em>S</em>)-3,4,5,6,9,9-Hexachloro-1a,2,2a,3,6,6a,7,7a-octahydro-2,7:3,6-dimethanonaphth[2,3-<em>b</em>]oxirene;Dieldrin;HEOD;1,2,3,4,10,10-Hexachloro-6,7-epoxy-1,4,4a,5,6,7,8,8a-octahydro-<em>endo</em>-1,4-<em>exo</em>-5,8-dimethanonaphthalene;Illoxol;Octalox;1,2,3,4,10,10-Hexachloro-6,7-epoxy-1,4,4a,5,6,7,8,8a-octahydro-1,4-<em>endo</em>,<em>exo</em>-5,8-dimethanonaphthalene;Aldrin epoxide;Insectlack;Alvit 55;ENT-16225;Red Shield;SD 3417;Dieldrex;Dielmoth;Dorytox;Moth Snub D;Kombi-Albertan;Termitox;<em>exo</em>-Dieldrin;MeSH ID: D004026",
    "duplicated_cas_no": "3039-00-7;12622-75-2;17301-10-9;33648-22-5;59029-57-1",
    "SMILES": "Cl[C@@]12[C@]3([C@@]([C@@](Cl)(C1(Cl)Cl)C(Cl)=C2Cl)([C@]4(C[C@@]3([C@]5([C@@]4(O5)[H])[H])[H])[H])[H])[H]",
    "meta_data": {
        "InChI": "InChI=1/C12H8Cl6O/c13-8-9(14)11(16)5-3-1-2(6-7(3)19-6)4(5)10(8,15)12(11,17)18/h2-7H,1H2/t2-,3+,4+,5-,6-,7+,10+,11-",
        "InChIKey": null,
        "Canonical SMILES": "ClC1=C(Cl)C2(Cl)C3C4CC(C5OC54)C3C1(Cl)C2(Cl)Cl",
        "Molecular Formula": "C<sub>12</sub>H<sub>8</sub>Cl<sub>6</sub>O",
        "Molecular Mass": "380.91",
        "Boiling Point": "330 °C",
        "Melting Point": "175.5 °C",
        "Density": "1.75 g/cm³"
    }
}