{
    "cas_no": "618-51-9",
    "key_name": "3-Iodobenzoic acid",
    "cn_name": "3-碘苯甲酸;间碘苯甲酸;",
    "alternate_name": "Benzoic acid, 3-iodo-;Benzoic acid, <em>m</em>-iodo-;3-Iodobenzoic acid;<em>m</em>-Iodobenzoic acid;<em>m</em>-Carboxyiodobenzene;NSC 176131;NSC 74693;3-Iodobenzenecarboxylic acid;Benzoic acid, 3-(iodocarbonyl)-",
    "duplicated_cas_no": "2375204-47-8",
    "SMILES": "C(O)(=O)C1=CC(I)=CC=C1",
    "meta_data": {
        "InChI": "InChI=1S/C7H5IO2/c8-6-3-1-2-5(4-6)7(9)10/h1-4H,(H,9,10)",
        "InChIKey": null,
        "Canonical SMILES": "O=C(O)C=1C=CC=C(I)C1",
        "Molecular Formula": "C<sub>7</sub>H<sub>5</sub>IO<sub>2</sub>",
        "Molecular Mass": "248.02",
        "Melting Point": "188.3 °C"
    }
}