{
    "cas_no": "39150-45-3",
    "key_name": "4-Amino-3,5-dibromobenzenesulfonamide",
    "cn_name": "3,5-二溴对氨基苯磺酰胺;",
    "alternate_name": "Benzenesulfonamide, 4-amino-3,5-dibromo-;Sulfanilamide, 3,5-dibromo-;4-Amino-3,5-dibromobenzenesulfonamide;1-Amino-2,6-dibromobenzene-4-sulphonic acid amide",
    "duplicated_cas_no": "",
    "SMILES": "S(N)(=O)(=O)C1=CC(Br)=C(N)C(Br)=C1",
    "meta_data": {
        "InChI": "InChI=1S/C6H6Br2N2O2S/c7-4-1-3(13(10,11)12)2-5(8)6(4)9/h1-2H,9H2,(H2,10,11,12)",
        "InChIKey": null,
        "Canonical SMILES": "O=S(=O)(N)C1=CC(Br)=C(N)C(Br)=C1",
        "Molecular Formula": "C<sub>6</sub>H<sub>6</sub>Br<sub>2</sub>N<sub>2</sub>O<sub>2</sub>S",
        "Molecular Mass": "330.00",
        "Melting Point": "237 °C"
    }
}