{
    "cas_no": "7664-66-6",
    "key_name": "4-(1-Methylethoxy)benzenamine",
    "cn_name": "4-异丙氧基苯胺;对异丙氧基苯胺;对氨基苯异丙醚;",
    "alternate_name": "Benzenamine, 4-(1-methylethoxy)-;Aniline, <em>p</em>-isopropoxy-;4-(1-Methylethoxy)benzenamine;4-Isopropoxyaniline;<em>p</em>-Isopropoxyaniline;4-Isopropoxyphenylamine;4-[(1-Methylethyl)oxy]aniline",
    "duplicated_cas_no": "",
    "SMILES": "O(C(C)C)C1=CC=C(N)C=C1",
    "meta_data": {
        "InChI": "InChI=1S/C9H13NO/c1-7(2)11-9-5-3-8(10)4-6-9/h3-7H,10H2,1-2H3",
        "InChIKey": null,
        "Canonical SMILES": "O(C1=CC=C(N)C=C1)C(C)C",
        "Molecular Formula": "C<sub>9</sub>H<sub>13</sub>NO",
        "Molecular Mass": "151.21",
        "Boiling Point": "136 °C @ Press: 19 Torr",
        "Melting Point": "244 °C (decomp)"
    }
}