{
    "cas_no": "94-30-4",
    "key_name": "Ethyl 4-methoxybenzoate",
    "cn_name": "对甲氧基苯甲酸乙酯;茴香酸乙酯;",
    "alternate_name": "Benzoic acid, 4-methoxy-, ethyl ester;<em>p</em>-Anisic acid, ethyl ester;Ethyl <em>p</em>-methoxybenzoate;Ethyl <em>p</em>-anisate;Ethyl 4-methoxybenzoate;Ethyl anisate;Ethyl <em>p</em>-anisoate;4-Methoxybenzoic acid ethyl ester;NSC 4160",
    "duplicated_cas_no": "",
    "SMILES": "C(OCC)(=O)C1=CC=C(OC)C=C1",
    "meta_data": {
        "InChI": "InChI=1S/C10H12O3/c1-3-13-10(11)8-4-6-9(12-2)7-5-8/h4-7H,3H2,1-2H3",
        "InChIKey": null,
        "Canonical SMILES": "O=C(OCC)C1=CC=C(OC)C=C1",
        "Molecular Formula": "C<sub>10</sub>H<sub>12</sub>O<sub>3</sub>",
        "Molecular Mass": "180.20",
        "Boiling Point": "269.5 °C",
        "Melting Point": "7.5 °C",
        "Density": "1.106 g/cm³ @ Temp: 16.5 °C"
    }
}