{
    "cas_no": "706-14-9",
    "key_name": "γ-Decalactone",
    "cn_name": "丙位癸内酯;",
    "alternate_name": "2(3<em>H</em>)-Furanone, 5-hexyldihydro-;Decanoic acid, 4-hydroxy-, γ-lactone;Capric acid, γ-hydroxy-, lactone;5-Hexyldihydro-2(3<em>H</em>)-furanone;γ-Decanolactone;Decanolactone;γ-Decalactone;γ-Hexylbutyrolactone;4-Hexyl-γ-butyrolactone;4-Decanolide;4-Hexyl-4-butanolide;4-Hydroxydecanoic acid γ-lactone;2-Decalactone;γ-Hexyl-γ-butyrolactone;4-Hydroxydecanoic acid lactone;γ-<em>n</em>-Hexyl-γ-butyrolactone;γ-Decanolide;5-Hexyltetrahydro-2-furanone;(±)-4-<em>n</em>-Hexylbutyrolactone;(<em>RS</em>)-γ-Decalactone;(±)-γ-Decanolactone;(±)-γ-Decalactone;NSC 24248;NSC 26510;5-Hexyloxolan-2-one",
    "duplicated_cas_no": "1336-42-1;2825-92-5",
    "SMILES": "C(CCCCC)C1OC(=O)CC1",
    "meta_data": {
        "InChI": "InChI=1S/C10H18O2/c1-2-3-4-5-6-9-7-8-10(11)12-9/h9H,2-8H2,1H3",
        "InChIKey": null,
        "Canonical SMILES": "O=C1OC(CC1)CCCCCC",
        "Molecular Formula": "C<sub>10</sub>H<sub>18</sub>O<sub>2</sub>",
        "Molecular Mass": "170.25",
        "Boiling Point": "125-127 °C @ Press: 3.5 Torr",
        "Density": "0.9482 g/cm³ @ Temp: 20 °C"
    }
}