{
    "cas_no": "12083-48-6",
    "key_name": "Dichlorobis(η<sup>5</sup>-2,4-cyclopentadien-1-yl)vanadium",
    "cn_name": null,
    "alternate_name": "Vanadium, dichlorobis(η<sup>5</sup>-2,4-cyclopentadien-1-yl)-;Vanadium, dichlorodi-π-cyclopentadienyl-;Vanadium, dichlorodicyclopentadienyl-;Dicyclopentadienylvanadium dichloride;Dichlorobis(η<sup>5</sup>-2,4-cyclopentadien-1-yl)vanadium;Vanadocene, dichloride;Dichlorodi-π-cyclopentadienylvanadium;Dicyclopentadienyldichlorovanadium;Bis(cyclopentadienyl)vanadium dichloride;Dichlorovanadocene;Dichlorobis(η-cyclopentadienyl)vanadium;Dichlorobis(ε-cyclopentadienyl)vanadium;Dicyclopentadienevanadium dichloride;Di-π-Cyclopentadienylvanadium dichloride;Dichlorobis(cyclopentadienyl)vanadium;Dichlorobis(η<sup>5</sup>-cyclopentadienyl)vanadium;Vanadinocene dichloride",
    "duplicated_cas_no": "",
    "SMILES": "[Cl-][V+4]12345678([Cl-])([CH]=9[CH-]1[CH]2=[CH]3[CH]49)[CH]=%10[CH]5=[CH]6[CH-]7[CH]8%10",
    "meta_data": {
        "InChI": "InChI=1S/2C5H5.2ClH.V/c2*1-2-4-5-3-1;;;/h2*1-5H;2*1H;/q2*-1;;;+4/p-2",
        "InChIKey": null,
        "Canonical SMILES": "[Cl-][V+4]12345678([Cl-])([CH]=9[CH]4=[CH]3[CH-]2[CH]91)[CH]=%10[CH]8=[CH]7[CH-]6[CH]%105",
        "Molecular Formula": "C<sub>10</sub>H<sub>10</sub>Cl<sub>2</sub>V",
        "Molecular Mass": "",
        "Melting Point": "250 °C (decomp)"
    }
}