{
    "cas_no": "7779-81-9",
    "key_name": "Isobutyl angelate",
    "cn_name": "(Z)-2-甲基-2-丁酸-2-甲丙酯;(Z)-2-甲基-2-丁酸-2-甲丙酯;",
    "alternate_name": "2-Butenoic acid, 2-methyl-, 2-methylpropyl ester, (2<em>Z</em>)-;Crotonic acid, 2-methyl-, isobutyl ester, (<em>Z</em>)-;2-Butenoic acid, 2-methyl-, 2-methylpropyl ester, (<em>Z</em>)-;Angelic acid, isobutyl ester;Isobutyl angelate;Isobutyl <em>cis</em>-2-methyl-2-butenoate;(<em>Z</em>)-Isobutyl 2-methylbut-2-enoate;2-Methylpropyl angelate",
    "duplicated_cas_no": "",
    "SMILES": "C(OCC(C)C)(/C(=C\\C)/C)=O",
    "meta_data": {
        "InChI": "InChI=1S/C9H16O2/c1-5-8(4)9(10)11-6-7(2)3/h5,7H,6H2,1-4H3/b8-5-",
        "InChIKey": null,
        "Canonical SMILES": "O=C(OCC(C)C)C(=CC)C",
        "Molecular Formula": "C<sub>9</sub>H<sub>16</sub>O<sub>2</sub>",
        "Molecular Mass": "156.22",
        "Boiling Point": "176-177 °C",
        "Density": "0.8974 g/cm³ @ Temp: 14 °C"
    }
}