{
    "cas_no": "2497-91-8",
    "key_name": "2-Chloro-3,5-dinitrobenzoic acid",
    "cn_name": "2-氯-3,5-二硝基苯甲酸;",
    "alternate_name": "Benzoic acid, 2-chloro-3,5-dinitro-;2-Chloro-3,5-dinitrobenzoic acid;3,5-Dinitro-2-chlorobenzoic acid;NSC 4538",
    "duplicated_cas_no": "",
    "SMILES": "C(O)(=O)C1=C(Cl)C(N(=O)=O)=CC(N(=O)=O)=C1",
    "meta_data": {
        "InChI": "InChI=1S/C7H3ClN2O6/c8-6-4(7(11)12)1-3(9(13)14)2-5(6)10(15)16/h1-2H,(H,11,12)",
        "InChIKey": null,
        "Canonical SMILES": "O=C(O)C=1C=C(C=C(C1Cl)N(=O)=O)N(=O)=O",
        "Molecular Formula": "C<sub>7</sub>H<sub>3</sub>ClN<sub>2</sub>O<sub>6</sub>",
        "Molecular Mass": "246.56",
        "Melting Point": "55 °C"
    }
}