{
    "cas_no": "543-49-7",
    "key_name": "2-Heptanol",
    "cn_name": "2-庚醇;",
    "alternate_name": "2-Heptanol;Amyl methyl carbinol;<em>s</em>-Heptyl alcohol;2-Hydroxyheptane;Methyl amyl carbinol;2-Heptyl alcohol;1-Methylhexanol;(±)-2-Heptanol;<span class=\"text-smallcaps\">DL</span>-Heptan-2-ol;NSC 2220",
    "duplicated_cas_no": "52390-72-4",
    "SMILES": "C(CCCC)C(C)O",
    "meta_data": {
        "InChI": "InChI=1S/C7H16O/c1-3-4-5-6-7(2)8/h7-8H,3-6H2,1-2H3",
        "InChIKey": null,
        "Canonical SMILES": "OC(C)CCCCC",
        "Molecular Formula": "C<sub>7</sub>H<sub>16</sub>O",
        "Molecular Mass": "116.20",
        "Boiling Point": "158-160 °C",
        "Melting Point": "80-81 °C",
        "Density": "0.82 g/cm³"
    }
}