{
    "cas_no": "1448-87-9",
    "key_name": "2-Chloroquinoxaline",
    "cn_name": "2-氯喹喔啉;",
    "alternate_name": "Quinoxaline, 2-chloro-;2-Chloroquinoxaline;NSC 43553",
    "duplicated_cas_no": "",
    "SMILES": "ClC1=NC2=C(N=C1)C=CC=C2",
    "meta_data": {
        "InChI": "InChI=1S/C8H5ClN2/c9-8-5-10-6-3-1-2-4-7(6)11-8/h1-5H",
        "InChIKey": null,
        "Canonical SMILES": "ClC1=NC2=CC=CC=C2N=C1",
        "Molecular Formula": "C<sub>8</sub>H<sub>5</sub>ClN<sub>2</sub>",
        "Molecular Mass": "164.59",
        "Boiling Point": "80 °C @ Press: 0.5 Torr",
        "Melting Point": "46-47 °C"
    }
}