{
    "cas_no": "74-93-1",
    "key_name": "Methanethiol",
    "cn_name": "甲硫醇;甲硫醇；巯基甲烷；硫氢甲烷;",
    "alternate_name": "Methanethiol;Mercaptomethane;Methyl mercaptan",
    "duplicated_cas_no": "63933-47-1;505027-72-5;1417534-47-4",
    "SMILES": "CS",
    "meta_data": {
        "InChI": "InChI=1S/CH4S/c1-2/h2H,1H3",
        "InChIKey": null,
        "Canonical SMILES": "SC",
        "Molecular Formula": "CH<sub>4</sub>S",
        "Molecular Mass": "48.11",
        "Boiling Point": "5.95 °C @ Press: 760 Torr",
        "Melting Point": "-123 °C",
        "Density": "0.9600 g/cm³ @ Temp: 25 °C"
    }
}