{
    "cas_no": "5468-97-3",
    "key_name": "4-Chloro-α,α-dimethylbenzeneethanol",
    "cn_name": "1-(4-氯苯基)-2-甲基-2-丙醇;",
    "alternate_name": "Benzeneethanol, 4-chloro-α,α-dimethyl-;Phenethyl alcohol, <em>p</em>-chloro-α,α-dimethyl-;4-Chloro-α,α-dimethylbenzeneethanol;1-(<em>p</em>-Chlorophenyl)-2-methyl-2-propanol;1-(4-Chlorophenyl)-2-methyl-2-propanol;2-(4-Chlorophenyl)-1,1-dimethylethanol;NSC 15669",
    "duplicated_cas_no": "",
    "SMILES": "C(C(C)(C)O)C1=CC=C(Cl)C=C1",
    "meta_data": {
        "InChI": "InChI=1S/C10H13ClO/c1-10(2,12)7-8-3-5-9(11)6-4-8/h3-6,12H,7H2,1-2H3",
        "InChIKey": null,
        "Canonical SMILES": "ClC1=CC=C(C=C1)CC(O)(C)C",
        "Molecular Formula": "C<sub>10</sub>H<sub>13</sub>ClO",
        "Molecular Mass": "184.66",
        "Boiling Point": "129 °C @ Press: 11 Torr",
        "Melting Point": "34 °C"
    }
}