{
    "cas_no": "14548-48-2",
    "key_name": "4-(4-Chlorobenzoyl)pyridine",
    "cn_name": "4-(4-氯苯甲酰氯)吡啶;4-(4-氯苯甲酰基)吡啶;",
    "alternate_name": "Methanone, (4-chlorophenyl)-4-pyridinyl-;Ketone, <em>p</em>-chlorophenyl 4-pyridyl;(4-Chlorophenyl)-4-pyridinylmethanone;4-(<em>p</em>-Chlorobenzoyl)pyridine;4-(4-Chlorobenzoyl)pyridine;4-Chlorophenyl 4-pyridyl ketone;NSC 76045",
    "duplicated_cas_no": "",
    "SMILES": "C(=O)(C1=CC=C(Cl)C=C1)C=2C=CN=CC2",
    "meta_data": {
        "InChI": "InChI=1S/C12H8ClNO/c13-11-3-1-9(2-4-11)12(15)10-5-7-14-8-6-10/h1-8H",
        "InChIKey": null,
        "Canonical SMILES": "O=C(C=1C=CN=CC1)C2=CC=C(Cl)C=C2",
        "Molecular Formula": "C<sub>12</sub>H<sub>8</sub>ClNO",
        "Molecular Mass": "217.65",
        "Melting Point": "108-109 °C"
    }
}