{
    "cas_no": "5804-73-9",
    "key_name": "5-(Acetylamino)-2-methoxybenzenesulfonyl chloride",
    "cn_name": "5-乙酰氨基-2-甲氧基苯磺酰氯;",
    "alternate_name": "Benzenesulfonyl chloride, 5-(acetylamino)-2-methoxy-;Metanilyl chloride, <em>N</em>-acetyl-6-methoxy-;5-(Acetylamino)-2-methoxybenzenesulfonyl chloride;NSC 160918;2-Methoxy-5-acetylaminobenzenesulfonyl chloride",
    "duplicated_cas_no": "",
    "SMILES": "S(Cl)(=O)(=O)C1=C(OC)C=CC(NC(C)=O)=C1",
    "meta_data": {
        "InChI": "InChI=1S/C9H10ClNO4S/c1-6(12)11-7-3-4-8(15-2)9(5-7)16(10,13)14/h3-5H,1-2H3,(H,11,12)",
        "InChIKey": null,
        "Canonical SMILES": "O=C(NC1=CC=C(OC)C(=C1)S(=O)(=O)Cl)C",
        "Molecular Formula": "C<sub>9</sub>H<sub>10</sub>ClNO<sub>4</sub>S",
        "Molecular Mass": "263.70",
        "Melting Point": "149-151 °C"
    }
}