{
    "cas_no": "930-60-9",
    "key_name": "2-Cyclopentene-1,4-dione",
    "cn_name": null,
    "alternate_name": "4-Cyclopentene-1,3-dione;Cyclopentenedione;Cyclopentene-3,5-dione;Cyclopentene-1,3-dione;2-Cyclopentene-1,4-dione;1-Cyclopentene-3,5-dione;NSC 155336;2-Cyclopenten-1,4-dione;Cyclopent-4-en-1,3-dione",
    "duplicated_cas_no": "",
    "SMILES": "O=C1CC(=O)C=C1",
    "meta_data": {
        "InChI": "InChI=1S/C5H4O2/c6-4-1-2-5(7)3-4/h1-2H,3H2",
        "InChIKey": null,
        "Canonical SMILES": "O=C1C=CC(=O)C1",
        "Molecular Formula": "C<sub>5</sub>H<sub>4</sub>O<sub>2</sub>",
        "Molecular Mass": "96.08",
        "Boiling Point": "60 °C",
        "Melting Point": "37 °C"
    }
}