{
    "cas_no": "1754-47-8",
    "key_name": "Dioctyl phenylphosphonate",
    "cn_name": "苯基磷酸二辛酯;",
    "alternate_name": "Phosphonic acid, <em>P</em>-phenyl-, dioctyl ester;Phosphonic acid, phenyl-, dioctyl ester;Dioctyl phenylphosphonate;Di-<em>n</em>-octyl phenylphosphonate;DOPP;NSC 3224",
    "duplicated_cas_no": "",
    "SMILES": "P(OCCCCCCCC)(OCCCCCCCC)(=O)C1=CC=CC=C1",
    "meta_data": {
        "InChI": "InChI=1S/C22H39O3P/c1-3-5-7-9-11-16-20-24-26(23,22-18-14-13-15-19-22)25-21-17-12-10-8-6-4-2/h13-15,18-19H,3-12,16-17,20-21H2,1-2H3",
        "InChIKey": null,
        "Canonical SMILES": "O=P(OCCCCCCCC)(OCCCCCCCC)C=1C=CC=CC1",
        "Molecular Formula": "C<sub>22</sub>H<sub>39</sub>O<sub>3</sub>P",
        "Molecular Mass": "382.52",
        "Boiling Point": "207 °C"
    }
}