{
    "cas_no": "59944-76-2",
    "key_name": "Thieno[2,3-<em>b</em>]pyridine-2-carboxylic acid",
    "cn_name": "噻吩并[2,3-B]吡啶-2-甲酸;",
    "alternate_name": "Thieno[2,3-<em>b</em>]pyridine-2-carboxylic acid",
    "duplicated_cas_no": "",
    "SMILES": "C(O)(=O)C1=CC=2C(S1)=NC=CC2",
    "meta_data": {
        "InChI": "InChI=1S/C8H5NO2S/c10-8(11)6-4-5-2-1-3-9-7(5)12-6/h1-4H,(H,10,11)",
        "InChIKey": null,
        "Canonical SMILES": "O=C(O)C=1SC=2N=CC=CC2C1",
        "Molecular Formula": "C<sub>8</sub>H<sub>5</sub>NO<sub>2</sub>S",
        "Molecular Mass": "179.20",
        "Melting Point": "311-312 °C"
    }
}