{
    "cas_no": "28485-17-8",
    "key_name": "Ethyl 1,2,3,4-tetrahydro-2,4-dioxo-5-pyrimidinecarboxylate",
    "cn_name": "尿嘧啶-5-甲酸乙酯;",
    "alternate_name": "5-Pyrimidinecarboxylic acid, 1,2,3,4-tetrahydro-2,4-dioxo-, ethyl ester;Ethyl 1,2,3,4-tetrahydro-2,4-dioxo-5-pyrimidinecarboxylate;Uracil-5-carboxylic acid ethyl ester;5-Carbethoxyuracil;5-Ethoxycarbonyluracil;NSC 513173;Ethyl 2,4-dioxo-1,2,3,4-tetrahydropyrimidine-5-carboxylate;2,4-Dihydroxypyrimidine-5-carboxylic acid ethyl ester",
    "duplicated_cas_no": "",
    "SMILES": "C(OCC)(=O)C=1C(=O)NC(=O)NC1",
    "meta_data": {
        "InChI": "InChI=1S/C7H8N2O4/c1-2-13-6(11)4-3-8-7(12)9-5(4)10/h3H,2H2,1H3,(H2,8,9,10,12)",
        "InChIKey": null,
        "Canonical SMILES": "O=C(OCC)C1=CNC(=O)NC1=O",
        "Molecular Formula": "C<sub>7</sub>H<sub>8</sub>N<sub>2</sub>O<sub>4</sub>",
        "Molecular Mass": "184.15",
        "Melting Point": "236-237 °C"
    }
}