{
    "cas_no": "749886-87-1",
    "key_name": "4-Methyl-<em>N</em><sup>1</sup>-(3-phenylpropyl)-1,2-benzenediamine",
    "cn_name": null,
    "alternate_name": "1,2-Benzenediamine, 4-methyl-<em>N</em><sup>1</sup>-(3-phenylpropyl)-;4-Methyl-<em>N</em><sup>1</sup>-(3-phenylpropyl)-1,2-benzenediamine;JSH 23",
    "duplicated_cas_no": "",
    "SMILES": "N(CCCC1=CC=CC=C1)C2=C(N)C=C(C)C=C2",
    "meta_data": {
        "InChI": "InChI=1S/C16H20N2/c1-13-9-10-16(15(17)12-13)18-11-5-8-14-6-3-2-4-7-14/h2-4,6-7,9-10,12,18H,5,8,11,17H2,1H3",
        "InChIKey": null,
        "Canonical SMILES": "NC1=CC(=CC=C1NCCCC=2C=CC=CC2)C",
        "Molecular Formula": "C<sub>16</sub>H<sub>20</sub>N<sub>2</sub>",
        "Molecular Mass": "240.34",
        "Melting Point": "104.4-105.0 °C"
    }
}