{
    "cas_no": "608-93-5",
    "key_name": "Pentachlorobenzene",
    "cn_name": "五氯苯;",
    "alternate_name": "Benzene, 1,2,3,4,5-pentachloro-;Benzene, pentachloro-;1,2,3,4,5-Pentachlorobenzene;Pentachlorobenzene;QCB;NSC 1857;2,3,4,5,6-Pentachlorobenzene",
    "duplicated_cas_no": "",
    "SMILES": "ClC1=C(Cl)C(Cl)=C(Cl)C=C1Cl",
    "meta_data": {
        "InChI": "InChI=1S/C6HCl5/c7-2-1-3(8)5(10)6(11)4(2)9/h1H",
        "InChIKey": null,
        "Canonical SMILES": "ClC=1C=C(Cl)C(Cl)=C(Cl)C1Cl",
        "Molecular Formula": "C<sub>6</sub>HCl<sub>5</sub>",
        "Molecular Mass": "250.34",
        "Boiling Point": "277 °C",
        "Melting Point": "86 °C",
        "Density": "1.8342 g/cm³ @ Temp: 16.5 °C"
    }
}