{
    "cas_no": "343-90-8",
    "key_name": "5-Fluoro-<em>N</em>,<em>N</em>-dimethyl-1<em>H</em>-indole-3-methanamine",
    "cn_name": null,
    "alternate_name": "1<em>H</em>-Indole-3-methanamine, 5-fluoro-<em>N</em>,<em>N</em>-dimethyl-;Indole, 3-[(dimethylamino)methyl]-5-fluoro-;5-Fluoro-<em>N</em>,<em>N</em>-dimethyl-1<em>H</em>-indole-3-methanamine;5-Fluorogramine;NSC 88621;5-Fluoro-3-(dimethylaminomethyl)indole;1-(5-Fluoro-1<em>H</em>-indol-3-yl)-<em>N</em>,<em>N</em>-dimethylmethanamine;[(5-Fluoro-1<em>H</em>-indol-3-yl)methyl]dimethylamine;3-Dimethylaminomethyl-5-fluoroindole",
    "duplicated_cas_no": "",
    "SMILES": "C(N(C)C)C=1C=2C(NC1)=CC=C(F)C2",
    "meta_data": {
        "InChI": "InChI=1S/C11H13FN2/c1-14(2)7-8-6-13-11-4-3-9(12)5-10(8)11/h3-6,13H,7H2,1-2H3",
        "InChIKey": null,
        "Canonical SMILES": "FC=1C=CC=2NC=C(C2C1)CN(C)C",
        "Molecular Formula": "C<sub>11</sub>H<sub>13</sub>FN<sub>2</sub>",
        "Molecular Mass": "192.23",
        "Melting Point": "139-141 °C"
    }
}