{
    "cas_no": "37687-57-3",
    "key_name": "2-Chloro-3-hydroxy-4-methoxybenzaldehyde",
    "cn_name": null,
    "alternate_name": "Benzaldehyde, 2-chloro-3-hydroxy-4-methoxy-;<em>p</em>-Anisaldehyde, 2-chloro-3-hydroxy-;Isovanillin, 2-chloro-;2-Chloro-3-hydroxy-4-methoxybenzaldehyde;2-Chloroisovanillin",
    "duplicated_cas_no": "",
    "SMILES": "C(=O)C1=C(Cl)C(O)=C(OC)C=C1",
    "meta_data": {
        "InChI": "InChI=1S/C8H7ClO3/c1-12-6-3-2-5(4-10)7(9)8(6)11/h2-4,11H,1H3",
        "InChIKey": null,
        "Canonical SMILES": "O=CC1=CC=C(OC)C(O)=C1Cl",
        "Molecular Formula": "C<sub>8</sub>H<sub>7</sub>ClO<sub>3</sub>",
        "Molecular Mass": "186.59",
        "Melting Point": "207-208 °C"
    }
}