{
    "cas_no": "103766-25-2",
    "key_name": "Gimeracil",
    "cn_name": "吉莫斯特;5-氯-2,4-二羟基吡啶;",
    "alternate_name": "2(1<em>H</em>)-Pyridinone, 5-chloro-4-hydroxy-;5-Chloro-4-hydroxy-2(1<em>H</em>)-pyridinone;5-Chloro-4-hydroxy-2-pyridone;Gimestat;Gimeracil;5-Chloro-2,4-dihydroxypyridine",
    "duplicated_cas_no": "",
    "SMILES": "OC=1C(Cl)=CNC(=O)C1",
    "meta_data": {
        "InChI": "InChI=1S/C5H4ClNO2/c6-3-2-7-5(9)1-4(3)8/h1-2H,(H2,7,8,9)",
        "InChIKey": null,
        "Canonical SMILES": "O=C1C=C(O)C(Cl)=CN1",
        "Molecular Formula": "C<sub>5</sub>H<sub>4</sub>ClNO<sub>2</sub>",
        "Molecular Mass": "145.54",
        "Melting Point": "265-270 °C"
    }
}