{
    "cas_no": "373-88-6",
    "key_name": "2,2,2-Trifluoroethylamine hydrochloride",
    "cn_name": "2,2,2-三氟乙胺盐酸盐;",
    "alternate_name": "Ethanamine, 2,2,2-trifluoro-, hydrochloride (1:1);Ethylamine, 2,2,2-trifluoro-, hydrochloride;Ethanamine, 2,2,2-trifluoro-, hydrochloride;2,2,2-Trifluoroethylamine hydrochloride;2,2,2-Trifluoroethanamine hydrochloride;2,2,2-Trifluoro-1-ethanamine hydrochloride;2,2,2-Trifluoroethan-1-aminium chloride;2,2,2-Trifluoroethaneamine hydrochloride",
    "duplicated_cas_no": "",
    "SMILES": "C(CN)(F)(F)F.Cl",
    "meta_data": {
        "InChI": "InChI=1S/C2H4F3N.ClH/c3-2(4,5)1-6;/h1,6H2;1H",
        "InChIKey": null,
        "Canonical SMILES": "Cl.FC(F)(F)CN",
        "Molecular Formula": "C<sub>2</sub>H<sub>4</sub>F<sub>3</sub>N.ClH",
        "Molecular Mass": "",
        "Melting Point": "&gt;200 °C (sublm)"
    }
}