{
    "cas_no": "501-94-0",
    "key_name": "Tyrosol",
    "cn_name": "对羟基苯乙醇;4-羟基苯乙醇;",
    "alternate_name": "Benzeneethanol, 4-hydroxy-;Tyrosol;Phenethyl alcohol, <em>p</em>-hydroxy-;4-Hydroxybenzeneethanol;<em>p</em>-Hydroxyphenethyl alcohol;β-(<em>p</em>-Hydroxyphenyl)ethanol;<em>p</em>-Tyrosol;β-(4-Hydroxyphenyl)ethanol;2-(4-Hydroxyphenyl)ethanol;2-(<em>p</em>-Hydroxyphenyl)ethanol;4-(2-Hydroxyethyl)phenol;4-Hydroxyphenethyl alcohol;<em>p</em>-(2-Hydroxyethyl)phenol;4-Hydroxyphenylethanol;2-(4-Hydroxyphenyl)ethyl alcohol;Tyrosol C;NSC 59876;<em>p</em>-HPEA",
    "duplicated_cas_no": "",
    "SMILES": "C(CO)C1=CC=C(O)C=C1",
    "meta_data": {
        "InChI": "InChI=1S/C8H10O2/c9-6-5-7-1-3-8(10)4-2-7/h1-4,9-10H,5-6H2",
        "InChIKey": null,
        "Canonical SMILES": "OC1=CC=C(C=C1)CCO",
        "Molecular Formula": "C<sub>8</sub>H<sub>10</sub>O<sub>2</sub>",
        "Molecular Mass": "138.16",
        "Boiling Point": "310 °C",
        "Melting Point": "90 °C",
        "Density": "1.16 g/cm³ (solid)"
    }
}