{
    "cas_no": "57807-28-0",
    "key_name": "1-Bromo-2-cyclopropylbenzene",
    "cn_name": "1-溴-2-环丙基苯;",
    "alternate_name": "Benzene, 1-bromo-2-cyclopropyl-;1-Bromo-2-cyclopropylbenzene;<em>o</em>-Bromophenylcyclopropane;(2-Bromophenyl)cyclopropane",
    "duplicated_cas_no": "",
    "SMILES": "BrC1=C(C=CC=C1)C2CC2",
    "meta_data": {
        "InChI": "InChI=1S/C9H9Br/c10-9-4-2-1-3-8(9)7-5-6-7/h1-4,7H,5-6H2",
        "InChIKey": null,
        "Canonical SMILES": "BrC=1C=CC=CC1C2CC2",
        "Molecular Formula": "C<sub>9</sub>H<sub>9</sub>Br",
        "Molecular Mass": "197.07",
        "Boiling Point": "110-113 °C @ Press: 18 Torr"
    }
}