{
    "cas_no": "824-98-6",
    "key_name": "3-Methoxybenzyl chloride",
    "cn_name": "3-甲氧基氯化苄;3-甲氧基苄氯;",
    "alternate_name": "Benzene, 1-(chloromethyl)-3-methoxy-;Anisole, <em>m</em>-(chloromethyl)-;1-(Chloromethyl)-3-methoxybenzene;α-Chloro-<em>m</em>-methoxytoluene;<em>m</em>-(Chloromethyl)anisole;3-Methoxybenzyl chloride;<em>m</em>-Methoxybenzyl chloride;(3-Methoxyphenyl)methyl chloride;3-(Chloromethyl)anisole;NSC 268684;3-(Chloromethyl)phenyl methyl ether;5-Methoxybenzyl chloride",
    "duplicated_cas_no": "",
    "SMILES": "C(Cl)C1=CC(OC)=CC=C1",
    "meta_data": {
        "InChI": "InChI=1S/C8H9ClO/c1-10-8-4-2-3-7(5-8)6-9/h2-5H,6H2,1H3",
        "InChIKey": null,
        "Canonical SMILES": "ClCC=1C=CC=C(OC)C1",
        "Molecular Formula": "C<sub>8</sub>H<sub>9</sub>ClO",
        "Molecular Mass": "156.61",
        "Boiling Point": "124 °C @ Press: 13 Torr",
        "Melting Point": "37-41 °C"
    }
}