{
    "cas_no": "1983-10-4",
    "key_name": "Tributyltin fluoride",
    "cn_name": "三正丁基氟化锡;三丁锡氟化物;氟化三丁锡;氟三丁基锡;",
    "alternate_name": "Stannane, tributylfluoro-;Tributyltin fluoride;Tin, tributylfluoro-;Tributylfluorostannane;Fluorotributyltin;Tri-<em>n</em>-butylstannyl fluoride;BioMeT TBTF;CBL 9B;Tri-<em>n</em>-butyltin fluoride;Aceto TBTF;TBTF;Fluoro(tributyl)stannane;NSC 179737;NSC 195319",
    "duplicated_cas_no": "",
    "SMILES": "[Sn](CCCC)(CCCC)(CCCC)F",
    "meta_data": {
        "InChI": "InChI=1S/3C4H9.FH.Sn/c3*1-3-4-2;;/h3*1,3-4H2,2H3;1H;/q;;;;+1/p-1",
        "InChIKey": null,
        "Canonical SMILES": "F[Sn](CCCC)(CCCC)CCCC",
        "Molecular Formula": "C<sub>12</sub>H<sub>27</sub>FSn",
        "Molecular Mass": "309.05",
        "Melting Point": "260 °C"
    }
}