{
    "cas_no": "20830-81-3",
    "key_name": "Daunorubicin",
    "cn_name": "柔红霉素;道诺霉素;",
    "alternate_name": "5,12-Naphthacenedione, 8-acetyl-10-[(3-amino-2,3,6-trideoxy-α-<span class=\"text-smallcaps\">L</span>-<em>lyxo</em>-hexopyranosyl)oxy]-7,8,9,10-tetrahydro-6,8,11-trihydroxy-1-methoxy-, (8<em>S</em>,10<em>S</em>)-;Daunomycin;5,12-Naphthacenedione, 8-acetyl-10-[(3-amino-2,3,6-trideoxy-α-<span class=\"text-smallcaps\">L</span>-<em>lyxo</em>-hexopyranosyl)oxy]-7,8,9,10-tetrahydro-6,8,11-trihydroxy-1-methoxy-, (8<em>S</em>-<em>cis</em>)-;(8<em>S</em>,10<em>S</em>)-8-Acetyl-10-[(3-amino-2,3,6-trideoxy-α-<span class=\"text-smallcaps\">L</span>-<em>lyxo</em>-hexopyranosyl)oxy]-7,8,9,10-tetrahydro-6,8,11-trihydroxy-1-methoxy-5,12-naphthacenedione;Rubomycin C;Daunorubicin;Daunorubicine;NSC 82151;RP 13057;Rubidomycin;Acetyladriamycin;Cerubidin;Leukaemomycin C;(+)-Daunomycin;Daunomycine;DaunoXome;NSC 83142;Daunoblastina;(7S,9S)-9-Acetyl-7-[(2R,4S,5S,6S)-4-amino-5-hydroxy-6-methyloxan-2-yl]oxy-6,9,l 1-trihydroxy-4-methoxy-8,10-dihydro-7<em>H</em>-tetracene-5,12-dione;FSL 0507;MeSH ID: D003630",
    "duplicated_cas_no": "1407-15-4;11006-54-5;11048-29-6;23942-76-9;27576-81-4;28020-80-6;149541-57-1;182250-71-1;1088231-28-0;1263312-57-7",
    "SMILES": "OC=1C2=C([C@@H](O[C@H]3C[C@H](N)[C@H](O)[C@H](C)O3)C[C@@](C(C)=O)(O)C2)C(O)=C4C1C(=O)C=5C(C4=O)=C(OC)C=CC5",
    "meta_data": {
        "InChI": "InChI=1S/C27H29NO10/c1-10-22(30)14(28)7-17(37-10)38-16-9-27(35,11(2)29)8-13-19(16)26(34)21-20(24(13)32)23(31)12-5-4-6-15(36-3)18(12)25(21)33/h4-6,10,14,16-17,22,30,32,34-35H,7-9,28H2,1-3H3/t10-,14-,16-,17-,22+,27-/m0/s1",
        "InChIKey": null,
        "Canonical SMILES": "O=C1C=2C=CC=C(OC)C2C(=O)C=3C(O)=C4C(=C(O)C13)CC(O)(C(=O)C)CC4OC5OC(C)C(O)C(N)C5",
        "Molecular Formula": "C<sub>27</sub>H<sub>29</sub>NO<sub>10</sub>",
        "Molecular Mass": "527.52",
        "Melting Point": "208-209 °C"
    }
}