{
    "cas_no": "5231-87-8",
    "key_name": "Diethyl squarate",
    "cn_name": "方酸二乙酯;3,4-二乙氧基-环丁-3-烯-1,2-二酮;",
    "alternate_name": "3-Cyclobutene-1,2-dione, 3,4-diethoxy-;Cyclobutenedione, diethoxy-;3,4-Diethoxy-3-cyclobutene-1,2-dione;Diethoxycyclobutenedione;Diethyl squarate;1,2-Diethoxy-1-cyclobutene-3,4-dione;3,4-Diethoxycyclobutene-1,2-dione;Diethyl quadratate;1,2-Diethoxy-3,4-dioxocyclobut-1-ene;1,2-Diethoxycyclobutenedione;Diethoxycyclobut-3-ene-1,2-dione",
    "duplicated_cas_no": "",
    "SMILES": "O(CC)C1=C(OCC)C(=O)C1=O",
    "meta_data": {
        "InChI": "InChI=1S/C8H10O4/c1-3-11-7-5(9)6(10)8(7)12-4-2/h3-4H2,1-2H3",
        "InChIKey": null,
        "Canonical SMILES": "O=C1C(=O)C(OCC)=C1OCC",
        "Molecular Formula": "C<sub>8</sub>H<sub>10</sub>O<sub>4</sub>",
        "Molecular Mass": "170.16",
        "Boiling Point": "245 °C",
        "Melting Point": "13-18 °C"
    }
}