{
    "cas_no": "930-73-4",
    "key_name": "1-Methylpyridinium iodide",
    "cn_name": null,
    "alternate_name": "Pyridinium, 1-methyl-, iodide (1:1);Pyridinium, 1-methyl-, iodide;1-Methylpyridinium iodide;Pyridine methiodide;<em>N</em>-Methylpyridinium iodide;1-Methylpyridin-1-ium iodide",
    "duplicated_cas_no": "61734-40-5",
    "SMILES": "C[N+]=1C=CC=CC1.[I-]",
    "meta_data": {
        "InChI": "InChI=1S/C6H8N.HI/c1-7-5-3-2-4-6-7;/h2-6H,1H3;1H/q+1;/p-1",
        "InChIKey": null,
        "Canonical SMILES": "[I-].C=1C=C[N+](=CC1)C",
        "Molecular Formula": "C<sub>6</sub>H<sub>8</sub>N.I",
        "Molecular Mass": "",
        "Melting Point": "116 °C"
    }
}