{
    "cas_no": "156-87-6",
    "key_name": "3-Amino-1-propanol",
    "cn_name": "3-氨基-1-丙醇;3-氨基丙醇;3-羟基丙胺;",
    "alternate_name": "1-Propanol, 3-amino-;3-Amino-1-propanol;β-Alaninol;3-Aminopropanol;3-Hydroxypropylamine;Propanolamine;3-Aminopropyl alcohol;γ-Aminopropanol;1-Amino-3-propanol;3-Propanolamine;1-Amino-3-hydroxypropane;3-Hydroxy-1-propylamine;γ-Hydroxy-1-propylamine;1,3-Propanolamine;3-Hydroxy-1-aminopropane;NSC 7766;<em>N</em>-(3-Hydroxypropyl)amine;3-Hydroxypropan-1-amine;3-Aminopropan-1-ol",
    "duplicated_cas_no": "",
    "SMILES": "C(CN)CO",
    "meta_data": {
        "InChI": "InChI=1S/C3H9NO/c4-2-1-3-5/h5H,1-4H2",
        "InChIKey": null,
        "Canonical SMILES": "OCCCN",
        "Molecular Formula": "C<sub>3</sub>H<sub>9</sub>NO",
        "Molecular Mass": "75.11",
        "Boiling Point": "187-188 °C @ Press: 756 Torr",
        "Melting Point": "12.4 °C",
        "Density": "0.9824 g/cm³ @ Temp: 26 °C"
    }
}