{
    "cas_no": "160096-59-3",
    "key_name": "Dimethoxycurcumin",
    "cn_name": null,
    "alternate_name": "1,6-Heptadiene-3,5-dione, 1,7-bis(3,4-dimethoxyphenyl)-, (1<em>E</em>,6<em>E</em>)-;1,6-Heptadiene-3,5-dione, 1,7-bis(3,4-dimethoxyphenyl)-, (<em>E</em>,<em>E</em>)-;(1<em>E</em>,6<em>E</em>)-1,7-Bis(3,4-dimethoxyphenyl)-1,6-heptadiene-3,5-dione;CHC 004;Dimethoxycurcumin;Di-<em>O</em>-methylcurcumin;ASCJ 9",
    "duplicated_cas_no": "",
    "SMILES": "O(C)C1=C(OC)C=CC(/C=C/C(CC(/C=C/C2=CC(OC)=C(OC)C=C2)=O)=O)=C1",
    "meta_data": {
        "InChI": "InChI=1S/C23H24O6/c1-26-20-11-7-16(13-22(20)28-3)5-9-18(24)15-19(25)10-6-17-8-12-21(27-2)23(14-17)29-4/h5-14H,15H2,1-4H3/b9-5+,10-6+",
        "InChIKey": null,
        "Canonical SMILES": "O=C(C=CC1=CC=C(OC)C(OC)=C1)CC(=O)C=CC2=CC=C(OC)C(OC)=C2",
        "Molecular Formula": "C<sub>23</sub>H<sub>24</sub>O<sub>6</sub>",
        "Molecular Mass": "396.43",
        "Melting Point": "130-131 °C"
    }
}