{
    "cas_no": "6556-11-2",
    "key_name": "Inositol nicotinate",
    "cn_name": "肌醇烟酸酯;烟酸肌醇酯;",
    "alternate_name": "<em>myo</em>-Inositol, hexa-3-pyridinecarboxylate;Inositol, hexanicotinate, <em>myo</em>-;Nicotinic acid, hexaester with <em>myo</em>-inositol;Esantene;Hexanicit;Hexanicotinoyl inositol;Hexanicotol;Hexopal;Inositol niacinate;Linodil;Inositol nicotinate;<em>myo</em>-Inositol hexanicotinate;<em>meso</em>-Inositol hexanicotinate;Dilcit;Dilexpal;Mesotal;Mesonex;Palohex;Inositol hexanicotinate;3-Pyridinecarboxylic acid, 1,2,3,4,5,6-cyclohexanehexayl ester;Inositol hexaniacinate;Hamovannid;Meso-inositol hexanicotinate",
    "duplicated_cas_no": "2090-94-0;14154-33-7",
    "SMILES": "O(C(=O)C=1C=CC=NC1)[C@@H]2[C@@H](OC(=O)C=3C=CC=NC3)[C@@H](OC(=O)C=4C=CC=NC4)[C@@H](OC(=O)C=5C=CC=NC5)[C@H](OC(=O)C=6C=CC=NC6)[C@H]2OC(=O)C=7C=CC=NC7",
    "meta_data": {
        "InChI": "InChI=1/C42H30N6O12/c49-37(25-7-1-13-43-19-25)55-31-32(56-38(50)26-8-2-14-44-20-26)34(58-40(52)28-10-4-16-46-22-28)36(60-42(54)30-12-6-18-48-24-30)35(59-41(53)29-11-5-17-47-23-29)33(31)57-39(51)27-9-3-15-45-21-27/h1-24,31-36H/t31-,32-,33-,34+,35-,36-",
        "InChIKey": null,
        "Canonical SMILES": "O=C(OC1C(OC(=O)C=2C=NC=CC2)C(OC(=O)C=3C=NC=CC3)C(OC(=O)C=4C=NC=CC4)C(OC(=O)C=5C=NC=CC5)C1OC(=O)C=6C=NC=CC6)C=7C=NC=CC7",
        "Molecular Formula": "C<sub>42</sub>H<sub>30</sub>N<sub>6</sub>O<sub>12</sub>",
        "Molecular Mass": "810.72",
        "Melting Point": "254.6 °C"
    }
}