{
    "cas_no": "611-13-2",
    "key_name": "Methyl 2-furoate",
    "cn_name": "2-糠酸甲酯;",
    "alternate_name": "2-Furancarboxylic acid, methyl ester;2-Furoic acid, methyl ester;Methyl pyromucate;Methyl 2-furoate;Pyromucic acid methyl ester;Methyl 2-furancarboxylate;2-(Methoxycarbonyl)furan;Methyl 2-furylcarboxylate;Methyl α-furoate;NSC 35551;5-(Methoxymethyl)-furoic acid",
    "duplicated_cas_no": "",
    "SMILES": "C(OC)(=O)C1=CC=CO1",
    "meta_data": {
        "InChI": "InChI=1S/C6H6O3/c1-8-6(7)5-3-2-4-9-5/h2-4H,1H3",
        "InChIKey": null,
        "Canonical SMILES": "O=C(OC)C=1OC=CC1",
        "Molecular Formula": "C<sub>6</sub>H<sub>6</sub>O<sub>3</sub>",
        "Molecular Mass": "126.11",
        "Boiling Point": "181.3 °C",
        "Melting Point": "110-112 °C",
        "Density": "1.1783 g/cm³ @ Temp: 20 °C"
    }
}