{
    "cas_no": "600-30-6",
    "key_name": "2,3-Dibromobutanoic acid",
    "cn_name": "2,3-二溴丁酸;",
    "alternate_name": "Butanoic acid, 2,3-dibromo-;Butyric acid, 2,3-dibromo-;2,3-Dibromobutanoic acid;2,3-Dibromobutyric acid;α,β-Dibromobutanoic acid;NSC 6207",
    "duplicated_cas_no": "",
    "SMILES": "C(C(Br)C)(C(O)=O)Br",
    "meta_data": {
        "InChI": "InChI=1S/C4H6Br2O2/c1-2(5)3(6)4(7)8/h2-3H,1H3,(H,7,8)",
        "InChIKey": null,
        "Canonical SMILES": "O=C(O)C(Br)C(Br)C",
        "Molecular Formula": "C<sub>4</sub>H<sub>6</sub>Br<sub>2</sub>O<sub>2</sub>",
        "Molecular Mass": "245.90",
        "Melting Point": "87 °C"
    }
}