{
    "cas_no": "550-74-3",
    "key_name": "Picrolonic acid",
    "cn_name": "苦酮酸;3-甲基-4-硝基-1-(对硝基苯基)-2-吡唑啉-5-酮;4-硝基-3-甲基-1-(对硝基苯)-5-吡唑啉酮;3-甲基-4-硝;",
    "alternate_name": "3<em>H</em>-Pyrazol-3-one, 2,4-dihydro-5-methyl-4-nitro-2-(4-nitrophenyl)-;Picrolonic acid;2,4-Dihydro-5-methyl-4-nitro-2-(4-nitrophenyl)-3<em>H</em>-pyrazol-3-one;NSC 5049;3-Methyl-4-nitro-1-(4-nitrophenyl)-1<em>H</em>-pyrazol-5(4<em>H</em>)-one",
    "duplicated_cas_no": "46972-75-2",
    "SMILES": "O=C1N(N=C(C)C1N(=O)=O)C2=CC=C(N(=O)=O)C=C2",
    "meta_data": {
        "InChI": "InChI=1S/C10H8N4O5/c1-6-9(14(18)19)10(15)12(11-6)7-2-4-8(5-3-7)13(16)17/h2-5,9H,1H3",
        "InChIKey": null,
        "Canonical SMILES": "O=C1N(N=C(C)C1N(=O)=O)C2=CC=C(C=C2)N(=O)=O",
        "Molecular Formula": "C<sub>10</sub>H<sub>8</sub>N<sub>4</sub>O<sub>5</sub>",
        "Molecular Mass": "264.19",
        "Melting Point": "116 °C"
    }
}