{
    "cas_no": "4671-75-4",
    "key_name": "Tetradecylphosphonic acid",
    "cn_name": "1-十四基磷酸;N-四癸基磷酸;",
    "alternate_name": "Phosphonic acid, <em>P</em>-tetradecyl-;Phosphonic acid, tetradecyl-;<em>P</em>-Tetradecylphosphonic acid;1-Tetradecanephosphonic acid;<em>n</em>-Tetradecylphosphonic acid;Tetradecylphosphonic acid;Tetradecanephosphonic acid;TDPA;1-Tetradecylphosphonic acid",
    "duplicated_cas_no": "",
    "SMILES": "C(CCCCCCCCCCC)CCP(=O)(O)O",
    "meta_data": {
        "InChI": "InChI=1S/C14H31O3P/c1-2-3-4-5-6-7-8-9-10-11-12-13-14-18(15,16)17/h2-14H2,1H3,(H2,15,16,17)",
        "InChIKey": null,
        "Canonical SMILES": "O=P(O)(O)CCCCCCCCCCCCCC",
        "Molecular Formula": "C<sub>14</sub>H<sub>31</sub>O<sub>3</sub>P",
        "Molecular Mass": "278.37",
        "Melting Point": "97-98 °C"
    }
}