{
    "cas_no": "3752-25-8",
    "key_name": "2-Chlorocinnamic acid",
    "cn_name": null,
    "alternate_name": "2-Propenoic acid, 3-(2-chlorophenyl)-;Cinnamic acid, <em>o</em>-chloro-;3-(2-Chlorophenyl)-2-propenoic acid;2-Chlorocinnamic acid;<em>o</em>-Chlorocinnamic acid;3-(2-Chlorophenyl)propenoic acid;NSC 4792;3-(2-Chlorophenyl)acrylic acid",
    "duplicated_cas_no": "",
    "SMILES": "C(=CC(O)=O)C1=C(Cl)C=CC=C1",
    "meta_data": {
        "InChI": "InChI=1S/C9H7ClO2/c10-8-4-2-1-3-7(8)5-6-9(11)12/h1-6H,(H,11,12)",
        "InChIKey": null,
        "Canonical SMILES": "O=C(O)C=CC=1C=CC=CC1Cl",
        "Molecular Formula": "C<sub>9</sub>H<sub>7</sub>ClO<sub>2</sub>",
        "Molecular Mass": "182.60",
        "Melting Point": "205 °C"
    }
}