{
    "cas_no": "607-66-9",
    "key_name": "2-Hydroxy-4-methylquinoline",
    "cn_name": "2-羟基-4-甲基喹啉;4-甲基-2(1H)-喹诺酮;4-甲基-2-羟基喹啉;4-甲基喹啉酮;4-甲-2-喹啉酚;",
    "alternate_name": "2(1<em>H</em>)-Quinolinone, 4-methyl-;Carbostyril, 4-methyl-;4-Methyl-2(1<em>H</em>)-quinolinone;2(1<em>H</em>)-Lepidinone;2-Lepidinol;4-Methylcarbostyril;4-Methyl-2-quinolone;4-Methylquinolin-2-one;2-Hydroxylepidine;4-Methyl-1,2-dihydroquinolin-2-one;4-Methyl-2(1<em>H</em>)-quinolone;2-Hydroxy-4-methylquinoline;4-Methyl-2-quinolinol;NSC 2057;4-Methyl-1<em>H</em>-quinolin-2-one",
    "duplicated_cas_no": "4437-64-3",
    "SMILES": "CC=1C=2C(NC(=O)C1)=CC=CC2",
    "meta_data": {
        "InChI": "InChI=1S/C10H9NO/c1-7-6-10(12)11-9-5-3-2-4-8(7)9/h2-6H,1H3,(H,11,12)",
        "InChIKey": null,
        "Canonical SMILES": "O=C1C=C(C=2C=CC=CC2N1)C",
        "Molecular Formula": "C<sub>10</sub>H<sub>9</sub>NO",
        "Molecular Mass": "159.18",
        "Melting Point": "222-223 °C"
    }
}