{
    "cas_no": "3460-23-9",
    "key_name": "<em>N</em>-(4-Bromo-2-chlorophenyl)acetamide",
    "cn_name": null,
    "alternate_name": "Acetamide, <em>N</em>-(4-bromo-2-chlorophenyl)-;Acetanilide, 4′-bromo-2′-chloro-;<em>N</em>-(4-Bromo-2-chlorophenyl)acetamide;4′-Bromo-2′-chloroacetanilide;<em>N</em>-(2-Chloro-4-Bromophenyl)acetamide",
    "duplicated_cas_no": "",
    "SMILES": "N(C(C)=O)C1=C(Cl)C=C(Br)C=C1",
    "meta_data": {
        "InChI": "InChI=1S/C8H7BrClNO/c1-5(12)11-8-3-2-6(9)4-7(8)10/h2-4H,1H3,(H,11,12)",
        "InChIKey": null,
        "Canonical SMILES": "O=C(NC1=CC=C(Br)C=C1Cl)C",
        "Molecular Formula": "C<sub>8</sub>H<sub>7</sub>BrClNO",
        "Molecular Mass": "248.50",
        "Melting Point": "151 °C"
    }
}