{
    "cas_no": "1310-32-3",
    "key_name": "Iron selenide (FeSe)",
    "cn_name": null,
    "alternate_name": "Iron selenide (FeSe);Ferrous selenide;Iron monoselenide;NSC 378337",
    "duplicated_cas_no": "1214720-55-4",
    "SMILES": "[Fe]=[Se]",
    "meta_data": {
        "InChI": "InChI=1S/Fe.Se",
        "InChIKey": null,
        "Canonical SMILES": "[Fe]=[Se]",
        "Molecular Formula": "FeSe",
        "Molecular Mass": "",
        "Melting Point": "1070 °C"
    }
}