{
    "cas_no": "62-97-5",
    "key_name": "Diphemanil methyl sulfate",
    "cn_name": "匹卡米隆;4-((吡啶-3-羧基)-氨基)-丁酸;",
    "alternate_name": "Piperidinium, 4-(diphenylmethylene)-1,1-dimethyl-, methyl sulfate (1:1);Piperidinium, 4-(diphenylmethylene)-1,1-dimethyl-, methyl sulfate;4-(Diphenylmethylene)-1,1-dimethylpiperidinium methyl sulfate;Demotil;<em>N</em>,<em>N</em>-Dimethyl-4-piperidylidene-1,1-diphenylmethane methylsulfate;Diphemanil;Diphenatil;Diphenmanil methylsulfate;Diphenmethanil;Diphenmethanil methylsulfate;Nivelona;Prantal;Vagophemanil;Vagophemanil methyl sulfate;Diphemanil methyl sulfate;Diphemanil methosulfate;Nivelon;Prantil;Prentol;Talpran;Variton;Diphemanil metilsulfate;NSC 41725;Biphemanil",
    "duplicated_cas_no": "",
    "SMILES": "S(OC)(=O)(=O)[O-].C(=C1CC[N+](C)(C)CC1)(C2=CC=CC=C2)C3=CC=CC=C3",
    "meta_data": {
        "InChI": "InChI=1S/C20H24N.CH4O4S/c1-21(2)15-13-19(14-16-21)20(17-9-5-3-6-10-17)18-11-7-4-8-12-18;1-5-6(2,3)4/h3-12H,13-16H2,1-2H3;1H3,(H,2,3,4)/q+1;/p-1",
        "InChIKey": null,
        "Canonical SMILES": "O=S(=O)([O-])OC.C=1C=CC(=CC1)C(C=2C=CC=CC2)=C3CC[N+](C)(C)CC3",
        "Molecular Formula": "C<sub>20</sub>H<sub>24</sub>N.CH<sub>3</sub>O<sub>4</sub>S",
        "Molecular Mass": "",
        "Melting Point": "194.5 °C"
    }
}