{
    "cas_no": "91296-87-6",
    "key_name": "Sarafloxacin hydrochloride",
    "cn_name": "盐酸沙拉沙星;6-氟-1-(4-氟苯基)-4-氧代-7-哌嗪-1-基喹啉-3-羧酸盐酸盐;",
    "alternate_name": "3-Quinolinecarboxylic acid, 6-fluoro-1-(4-fluorophenyl)-1,4-dihydro-4-oxo-7-(1-piperazinyl)-, hydrochloride (1:1);3-Quinolinecarboxylic acid, 6-fluoro-1-(4-fluorophenyl)-1,4-dihydro-4-oxo-7-(1-piperazinyl)-, monohydrochloride;Sarafloxacin hydrochloride;Sarafin",
    "duplicated_cas_no": "",
    "SMILES": "O=C1C=2C(N(C=C1C(O)=O)C3=CC=C(F)C=C3)=CC(=C(F)C2)N4CCNCC4.Cl",
    "meta_data": {
        "InChI": "InChI=1S/C20H17F2N3O3.ClH/c21-12-1-3-13(4-2-12)25-11-15(20(27)28)19(26)14-9-16(22)18(10-17(14)25)24-7-5-23-6-8-24;/h1-4,9-11,23H,5-8H2,(H,27,28);1H",
        "InChIKey": null,
        "Canonical SMILES": "Cl.O=C(O)C1=CN(C2=CC=C(F)C=C2)C3=CC(=C(F)C=C3C1=O)N4CCNCC4",
        "Molecular Formula": "C<sub>20</sub>H<sub>17</sub>F<sub>2</sub>N<sub>3</sub>O<sub>3</sub>.ClH",
        "Molecular Mass": "",
        "Melting Point": "&gt;275 °C"
    }
}