{
    "cas_no": "764-35-2",
    "key_name": "2-Hexyne",
    "cn_name": "2-已炔;2-己炔;2-已炔;甲基丙基乙炔;",
    "alternate_name": "2-Hexyne;1-Methyl-2-propylacetylene;Methyl(propyl)acetylene",
    "duplicated_cas_no": "",
    "SMILES": "C(C#CC)CC",
    "meta_data": {
        "InChI": "InChI=1S/C6H10/c1-3-5-6-4-2/h3,5H2,1-2H3",
        "InChIKey": null,
        "Canonical SMILES": "C(#CCCC)C",
        "Molecular Formula": "C<sub>6</sub>H<sub>10</sub>",
        "Molecular Mass": "82.14",
        "Boiling Point": "84.5 °C",
        "Melting Point": "-89.6 °C",
        "Density": "0.7352 g/cm³ @ Temp: 15 °C"
    }
}