{
    "cas_no": "7681-93-8",
    "key_name": "Natamycin",
    "cn_name": "纳他霉素;那他霉素;游霉素;",
    "alternate_name": "6,11,28-Trioxatricyclo[22.3.1.0<sup>5,7</sup>]octacosa-8,14,16,18,20-pentaene-25-carboxylic acid, 22-[(3-amino-3,6-dideoxy-β-<span class=\"text-smallcaps\">D</span>-mannopyranosyl)oxy]-1,3,26-trihydroxy-12-methyl-10-oxo-, (1<em>R</em>,3<em>S</em>,5<em>R</em>,7<em>R</em>,8<em>E</em>,12<em>R</em>,14<em>E</em>,16<em>E</em>,18<em>E</em>,20<em>E</em>,22<em>R</em>,24<em>S</em>,25<em>R</em>,26<em>S</em>)-;Pimaricin;6,11,28-Trioxatricyclo[22.3.1.0<sup>5,7</sup>]octacosa-8,14,16,18,20-pentaene-25-carboxylic acid, 22-[(3-amino-3,6-dideoxy-β-<span class=\"text-smallcaps\">D</span>-mannopyranosyl)oxy]-1,3,26-trihydroxy-12-methyl-10-oxo-, [1<em>R</em>-(1<em>R</em>*,3<em>S</em>*,5<em>R</em>*,7<em>R</em>*,8<em>E</em>,12<em>R</em>*,14<em>E</em>,16<em>E</em>,18<em>E</em>,20<em>E</em>,22<em>R</em>*,24<em>S</em>*,25<em>R</em>*,26<em>S</em>*)]-;Tennecetin;6,11,28-Trioxatricyclo[22.3.1.0<sup>5,7</sup>]octacosane, pimaricin deriv.;(1<em>R</em>,3<em>S</em>,5<em>R</em>,7<em>R</em>,8<em>E</em>,12<em>R</em>,14<em>E</em>,16<em>E</em>,18<em>E</em>,20<em>E</em>,22<em>R</em>,24<em>S</em>,25<em>R</em>,26<em>S</em>)-22-[(3-Amino-3,6-dideoxy-β-<span class=\"text-smallcaps\">D</span>-mannopyranosyl)oxy]-1,3,26-trihydroxy-12-methyl-10-oxo-6,11,28-trioxatricyclo[22.3.1.0<sup>5,7</sup>]octacosa-8,14,16,18,20-pentaene-25-carboxylic acid;Myprozine;Natamycin;Pimafucin;[1<em>R</em>-(1<em>R</em>*,3<em>S</em>*,5<em>R</em>*,7<em>R</em>*,8<em>E</em>,12<em>R</em>*,14<em>E</em>,16<em>E</em>,18<em>E</em>,20<em>E</em>,22<em>R</em>*,24<em>S</em>*,25<em>R</em>*,26<em>S</em>*)]-22-[(3-Amino-3,6-dideoxy-β-<span class=\"text-smallcaps\">D</span>-mannopyranosyl)oxy]-1,3,26-trihydroxy-12-methyl-10-oxo-6,11,28-trioxatricyclo[22.3.1.0<sup>5,7</sup>]octacosa-8,14,16,18,20-pentaene-25-carboxylic acid;δ-Natamycin;Myuprozine;CL 12625;Antibiotic A 5283;Synogil;Natacyn;Mycophyt;E 235;Natamax lactose;Natamax SF;Natamax;Delvocid;Natajen;Natamatrix;Fungin;MeSH ID: D010866",
    "duplicated_cas_no": "141-35-5;306-36-5;1383-95-5;1406-71-9;223558-57-4;81612-01-3",
    "SMILES": "",
    "meta_data": {
        "InChI": "",
        "InChIKey": null,
        "Canonical SMILES": "",
        "Molecular Formula": "C<sub>33</sub>H<sub>47</sub>NO<sub>13</sub>",
        "Molecular Mass": "665.73",
        "Melting Point": "290 °C (decomp)"
    }
}