{
    "cas_no": "453-72-5",
    "key_name": "1-Fluoro-4-(methylsulfonyl)-2-nitrobenzene",
    "cn_name": "2-氟-5-甲基磺酰硝基苯;",
    "alternate_name": "Benzene, 1-fluoro-4-(methylsulfonyl)-2-nitro-;Sulfone, 4-fluoro-3-nitrophenyl methyl;1-Fluoro-4-(methylsulfonyl)-2-nitrobenzene;1-Fluoro-2-nitro-4-methylsulfonylbenzene;4-Fluoro-3-nitrophenyl methyl sulfone;NSC 226257;1-Fluoro-4-methylsulfonyl-2-nitrobenzene;2-Fluoro-5-methylsulfonyl-1-nitrobenzene;4-(Methylsulfonyl)-2-nitrofluorobenzene;1-Fluoro-4-methanesulfonyl-2-nitrobenzene;(3-Nitro-4-fluorophenyl)methyl sulfone;2-Fluoro-5-methylsulphonylnitrobenzene",
    "duplicated_cas_no": "",
    "SMILES": "N(=O)(=O)C1=CC(S(C)(=O)=O)=CC=C1F",
    "meta_data": {
        "InChI": "InChI=1S/C7H6FNO4S/c1-14(12,13)5-2-3-6(8)7(4-5)9(10)11/h2-4H,1H3",
        "InChIKey": null,
        "Canonical SMILES": "O=N(=O)C1=CC(=CC=C1F)S(=O)(=O)C",
        "Molecular Formula": "C<sub>7</sub>H<sub>6</sub>FNO<sub>4</sub>S",
        "Molecular Mass": "219.19",
        "Melting Point": "156 °C"
    }
}