{
    "cas_no": "7399-00-0",
    "key_name": "Octadecyltriethoxysilane",
    "cn_name": "正十八烷基三乙氧基硅烷;",
    "alternate_name": "Silane, triethoxyoctadecyl-;Triethoxyoctadecylsilane;Octadecyltriethoxysilane;P 09775;ODES;Stearyltriethoxysilane;LS 6970;Si 118;<em>n</em>-Octadecyltriethoxysilane;SIO 6645.0;S 12325",
    "duplicated_cas_no": "1247019-86-8",
    "SMILES": "[Si](CCCCCCCCCCCCCCCCCC)(OCC)(OCC)OCC",
    "meta_data": {
        "InChI": "InChI=1S/C24H52O3Si/c1-5-9-10-11-12-13-14-15-16-17-18-19-20-21-22-23-24-28(25-6-2,26-7-3)27-8-4/h5-24H2,1-4H3",
        "InChIKey": null,
        "Canonical SMILES": "O(CC)[Si](OCC)(OCC)CCCCCCCCCCCCCCCCCC",
        "Molecular Formula": "C<sub>24</sub>H<sub>52</sub>O<sub>3</sub>Si",
        "Molecular Mass": "416.75",
        "Boiling Point": "165-169 °C @ Press: 2 Torr",
        "Melting Point": "10-12 °C",
        "Density": "0.870 g/cm³"
    }
}