{
    "cas_no": "1004-66-6",
    "key_name": "2,6-Dimethylanisole",
    "cn_name": null,
    "alternate_name": "Benzene, 2-methoxy-1,3-dimethyl-;Anisole, 2,6-dimethyl-;2-Methoxy-1,3-dimethylbenzene;Methyl 2,6-xylyl ether;2,6-Dimethylanisole;2-Methoxy-<em>m</em>-xylene;1-Methoxy-2,6-dimethylbenzene;2,6-Dimethyl-1-methoxybenzene;NSC 62672;3,5-Dimethyl-4-methoxybenzene",
    "duplicated_cas_no": "",
    "SMILES": "O(C)C1=C(C)C=CC=C1C",
    "meta_data": {
        "InChI": "InChI=1S/C9H12O/c1-7-5-4-6-8(2)9(7)10-3/h4-6H,1-3H3",
        "InChIKey": null,
        "Canonical SMILES": "O(C=1C(=CC=CC1C)C)C",
        "Molecular Formula": "C<sub>9</sub>H<sub>12</sub>O",
        "Molecular Mass": "136.19",
        "Boiling Point": "182.5 °C",
        "Density": "1.1258 g/cm³ @ Temp: 0 °C"
    }
}