{
    "cas_no": "1701-20-8",
    "key_name": "6-Methyl-2-(trifluoromethyl)-4-quinolinol",
    "cn_name": null,
    "alternate_name": "4-Quinolinol, 6-methyl-2-(trifluoromethyl)-;6-Methyl-2-(trifluoromethyl)-4-quinolinol",
    "duplicated_cas_no": "",
    "SMILES": "OC=1C2=C(N=C(C(F)(F)F)C1)C=CC(C)=C2",
    "meta_data": {
        "InChI": "InChI=1S/C11H8F3NO/c1-6-2-3-8-7(4-6)9(16)5-10(15-8)11(12,13)14/h2-5H,1H3,(H,15,16)",
        "InChIKey": null,
        "Canonical SMILES": "FC(F)(F)C1=NC=2C=CC(=CC2C(O)=C1)C",
        "Molecular Formula": "C<sub>11</sub>H<sub>8</sub>F<sub>3</sub>NO",
        "Molecular Mass": "227.18",
        "Melting Point": "251-252 °C"
    }
}