{
    "cas_no": "130931-83-8",
    "key_name": "(+)-2-Azabicyclo[2.2.1]hept-5-en-3-one",
    "cn_name": "(1S)-(+)-2-氮杂双环[2.2.1]庚-5-烯-3-酮;",
    "alternate_name": "2-Azabicyclo[2.2.1]hept-5-en-3-one, (1<em>S</em>,4<em>R</em>)-;2-Azabicyclo[2.2.1]hept-5-en-3-one, (1<em>S</em>)-;(1<em>S</em>,4<em>R</em>)-2-Azabicyclo[2.2.1]hept-5-en-3-one;(1<em>S</em>)-(+)-2-Azabicyclo[2.2.1]hept-5-en-3-one;(1<em>S</em>,4<em>R</em>)-(+)-2-Azabicyclo[2.2.1]hept-5-en-3-one;(+)-2-Azabicyclo[2.2.1]hept-5-en-3-one;(1S,4R)-2-Azabicyclo[2.2.1]hept-5-en-3-one;(+)-Vince lactam",
    "duplicated_cas_no": "1212450-72-0;1276016-84-2;1315057-11-4;1354217-90-5;1787294-06-7;1933725-30-4;2104845-61-4;2180124-23-4;2649107-73-1",
    "SMILES": "O=C1[C@@]2(C[C@](N1)(C=C2)[H])[H]",
    "meta_data": {
        "InChI": "InChI=1S/C6H7NO/c8-6-4-1-2-5(3-4)7-6/h1-2,4-5H,3H2,(H,7,8)/t4-,5+/m0/s1",
        "InChIKey": null,
        "Canonical SMILES": "O=C1NC2C=CC1C2",
        "Molecular Formula": "C<sub>6</sub>H<sub>7</sub>NO",
        "Molecular Mass": "109.13",
        "Melting Point": "93-95 °C"
    }
}