{
    "cas_no": "21436-03-3",
    "key_name": "(+)-<em>trans</em>-1,2-Diaminocyclohexane",
    "cn_name": "(1S,2S)-(+)-1,2-环己二胺;",
    "alternate_name": "1,2-Cyclohexanediamine, (1<em>S</em>,2<em>S</em>)-;1,2-Cyclohexanediamine, (1<em>S</em>-<em>trans</em>)-;(1<em>S</em>,2<em>S</em>)-1,2-Cyclohexanediamine;<em>trans</em>-(+)-1,2-Diaminocyclohexane;<em>d</em>-<em>trans</em>-1,2-Diaminocyclohexane;<em>trans</em>-(<em>S</em>,<em>S</em>)-1,2-Diaminocyclohexane;(1<em>S</em>,2<em>S</em>)-<em>trans</em>-Cyclohexane-1,2-diamine;(1<em>S</em>,2<em>S</em>)-Diaminocyclohexane;(1<em>S</em>-<em>trans</em>)-1,2-Cyclohexanediamine;(+)-<em>trans</em>-1,2-Diaminocyclohexane;(<em>S</em>,<em>S</em>)-1,2-Diaminocyclohexane;(1<em>S</em>,2<em>S</em>)-(+)-Cyclohexane-1,2-diamine;(1<em>S</em>,2<em>S</em>)-<em>trans</em>-1,2-Diaminocyclohexane;(1<em>S</em>,2<em>S</em>)-1,2-Diaminocyclohexane;<em>trans</em>-(+)-1,2-Cyclohexanediamine;(+)-<em>trans</em>-1,2-Cyclohexanediamine;(<em>S</em>,<em>S</em>)-1,2-Cyclohexanediamine;(+)-(1<em>S</em>,2<em>S</em>)-Diaminocyclohexane;<em>trans</em>-(1<em>S</em>,2<em>S</em>)-1,2-Diaminocyclohexane;(1<em>S</em>,2<em>S</em>)-(+)-1,2-Diaminocyclohexane;1<em>S</em>,2<em>S</em>-<em>trans</em>-Cyclohexanediamine;(1<em>S</em>,2<em>S</em>)-(+)-1,2-Aminocyclohexane;(<em>S</em>,<em>S</em>)-<em>trans</em>-1,2-Diaminocyclohexane;((1<em>S</em>,2<em>S</em>)-2-Aminocyclohexyl)amine;(<em>S</em>,<em>S</em>)-<em>trans</em>-1,2-Cyclohexanediamine;Cyclohexane-(1<em>S</em>,2<em>S</em>)-diamine;(1<em>S</em>,2<em>S</em>)-1,2-<em>trans</em>-Cyclohexanediamine;(1<em>S</em>,2<em>S</em>)-(+)-Diaminocyclohexane;(1<em>S</em>,2<em>S</em>)-(+)-<em>trans</em>-1,2-Diaminocyclohexane;1,2-(<em>S</em>,<em>S</em>)-Diaminocyclohexane",
    "duplicated_cas_no": "1315057-90-9",
    "SMILES": "N[C@@H]1[C@@H](N)CCCC1",
    "meta_data": {
        "InChI": "InChI=1S/C6H14N2/c7-5-3-1-2-4-6(5)8/h5-6H,1-4,7-8H2/t5-,6-/m0/s1",
        "InChIKey": null,
        "Canonical SMILES": "NC1CCCCC1N",
        "Molecular Formula": "C<sub>6</sub>H<sub>14</sub>N<sub>2</sub>",
        "Molecular Mass": "114.19",
        "Melting Point": "40-43 °C"
    }
}