{
    "cas_no": "609-70-1",
    "key_name": "4-Hydroxynicotinic acid",
    "cn_name": "4-羟基烟酸;4-羟基-3-吡啶甲酸;",
    "alternate_name": "3-Pyridinecarboxylic acid, 4-hydroxy-;Nicotinic acid, 4-hydroxy-;4-Hydroxy-3-pyridinecarboxylic acid;4-Hydroxynicotinic acid;4-Hydroxypyridine-3-carboxylic acid",
    "duplicated_cas_no": "",
    "SMILES": "C(O)(=O)C=1C(O)=CC=NC1",
    "meta_data": {
        "InChI": "InChI=1S/C6H5NO3/c8-5-1-2-7-3-4(5)6(9)10/h1-3H,(H,7,8)(H,9,10)",
        "InChIKey": null,
        "Canonical SMILES": "O=C(O)C=1C=NC=CC1O",
        "Molecular Formula": "C<sub>6</sub>H<sub>5</sub>NO<sub>3</sub>",
        "Molecular Mass": "139.11",
        "Melting Point": "245-247 °C"
    }
}