{
    "cas_no": "104594-70-9",
    "key_name": "Caffeic acid phenethyl ester",
    "cn_name": "咖啡酸苯乙酯;",
    "alternate_name": "2-Propenoic acid, 3-(3,4-dihydroxyphenyl)-, 2-phenylethyl ester;β-Phenylethyl caffeate;2-Phenylethyl caffeate;Caffeic acid phenethyl ester;CAPE;2-Phenylethyl 3-(3,4-dihydroxyphenyl)prop-2-enoate",
    "duplicated_cas_no": "132031-37-9",
    "SMILES": "C(=CC(OCCC1=CC=CC=C1)=O)C2=CC(O)=C(O)C=C2",
    "meta_data": {
        "InChI": "InChI=1S/C17H16O4/c18-15-8-6-14(12-16(15)19)7-9-17(20)21-11-10-13-4-2-1-3-5-13/h1-9,12,18-19H,10-11H2",
        "InChIKey": null,
        "Canonical SMILES": "O=C(OCCC=1C=CC=CC1)C=CC2=CC=C(O)C(O)=C2",
        "Molecular Formula": "C<sub>17</sub>H<sub>16</sub>O<sub>4</sub>",
        "Molecular Mass": "284.31",
        "Melting Point": "153-155 °C"
    }
}