{
    "cas_no": "5333-84-6",
    "key_name": "3-Methyltetrahydrophthalic anhydride",
    "cn_name": "3-甲基四氢苯酐;3-甲基-1,2,3,6-四氢苯酐;",
    "alternate_name": "1,3-Isobenzofurandione, 3a,4,7,7a-tetrahydro-4-methyl-;4-Cyclohexene-1,2-dicarboxylic anhydride, 3-methyl-;3a,4,7,7a-Tetrahydro-4-methyl-1,3-isobenzofurandione;3-Methyltetrahydrophthalic anhydride;3-Methyl-1,2,3,6-tetrahydrophthalic anhydride;3-Methyl-4-cyclohexene-1,2-dicarboxylic anhydride;3-Methyl-Δ<sup>4</sup>-tetrahydrophthalic anhydride;3-Methyl-4-cyclohexene-1,2-dicarboxylic acid anhydride;1,2,3,6-Tetrahydro-3-methylphthalic anhydride;I-MTHFA;NSC 2352;ECH 202;Dicure 319;Aradur 917-1",
    "duplicated_cas_no": "1014107-91-5",
    "SMILES": "CC1C2C(C(=O)OC2=O)CC=C1",
    "meta_data": {
        "InChI": "InChI=1S/C9H10O3/c1-5-3-2-4-6-7(5)9(11)12-8(6)10/h2-3,5-7H,4H2,1H3",
        "InChIKey": null,
        "Canonical SMILES": "O=C1OC(=O)C2C(C=CCC12)C",
        "Molecular Formula": "C<sub>9</sub>H<sub>10</sub>O<sub>3</sub>",
        "Molecular Mass": "166.17",
        "Melting Point": "61 °C"
    }
}