{
    "cas_no": "593-66-8",
    "key_name": "Iodoethene",
    "cn_name": "碘化乙烯;",
    "alternate_name": "Ethene, iodo-;Ethylene, iodo-;Iodoethene;Vinyl iodide;Iodoethylene",
    "duplicated_cas_no": "",
    "SMILES": "C(=C)I",
    "meta_data": {
        "InChI": "InChI=1S/C2H3I/c1-2-3/h2H,1H2",
        "InChIKey": null,
        "Canonical SMILES": "IC=C",
        "Molecular Formula": "C<sub>2</sub>H<sub>3</sub>I",
        "Molecular Mass": "153.95",
        "Boiling Point": "56 °C",
        "Melting Point": "121 °C",
        "Density": "2.037 g/cm³ @ Temp: 20 °C"
    }
}