{
    "cas_no": "614-72-2",
    "key_name": "1-Chloro-2-ethoxybenzene",
    "cn_name": "鄰氯苯基乙基醚;",
    "alternate_name": "Benzene, 1-chloro-2-ethoxy-;Phenetole, <em>o</em>-chloro-;1-Chloro-2-ethoxybenzene;2-Chlorophenol ethyl ether;<em>o</em>-Chlorophenyl ethyl ether;<em>o</em>-Chlorophenetole;NSC 6160;2-Chlorophenetole",
    "duplicated_cas_no": "",
    "SMILES": "O(CC)C1=C(Cl)C=CC=C1",
    "meta_data": {
        "InChI": "InChI=1S/C8H9ClO/c1-2-10-8-6-4-3-5-7(8)9/h3-6H,2H2,1H3",
        "InChIKey": null,
        "Canonical SMILES": "ClC=1C=CC=CC1OCC",
        "Molecular Formula": "C<sub>8</sub>H<sub>9</sub>ClO",
        "Molecular Mass": "156.61",
        "Boiling Point": "210 °C",
        "Melting Point": "190-191.5 °C"
    }
}