{
    "cas_no": "72-43-5",
    "key_name": "Methoxychlor",
    "cn_name": "甲氧滴滴涕;1,1,1-三氯-2,2-双对甲氧苯基乙烷;甲氧滴滴涕,甲氧氯;",
    "alternate_name": "Benzene, 1,1′-(2,2,2-trichloroethylidene)bis[4-methoxy-;Ethane, 1,1,1-trichloro-2,2-bis(<em>p</em>-methoxyphenyl)-;1,1′-(2,2,2-Trichloroethylidene)bis[4-methoxybenzene];2,2-Bis(<em>p</em>-methoxyphenyl)-1,1,1-trichloroethane;2,2-Di-<em>p</em>-anisyl-1,1,1-trichloroethane;Dimethoxy-DDT;Di(<em>p</em>-methoxyphenyl)(trichloromethyl)methane;DMDT;Marlate;Methoxychlor;Methoxy-DDT;1,1,1-Trichloro-2,2-bis(<em>p</em>-methoxyphenyl)ethane;1,1,1-Trichloro-2,2-di(4-methoxyphenyl)ethane;<em>p</em>,<em>p</em>′-Dimethoxydiphenyltrichloroethane;<em>p</em>,<em>p</em>′-Methoxychlor;Metox;<em>p</em>,<em>p</em>′-DMDT;1,1-Bis(<em>p</em>-methoxyphenyl)-2,2,2-trichloroethane;4,4′-(2,2,2-Trichloroethylidene)dianisole;1,1,1-Trichloro-2,2-bis(4-methoxyphenyl)ethane;2,2,2-Trichloro-1,1-bis(4-methoxyphenyl)ethane;Mezox K;Mesox K;Methoxcide;Metox plynny;2,2-Bis(4-methoxyphenyl)-1,1,1-trichloroethane;NSC 8945;1,1,1-Trichloro-2,2-bis(4-methoxyphenyl)ethylene;MeSH ID: D008731",
    "duplicated_cas_no": "",
    "SMILES": "C(C(Cl)(Cl)Cl)(C1=CC=C(OC)C=C1)C2=CC=C(OC)C=C2",
    "meta_data": {
        "InChI": "InChI=1S/C16H15Cl3O2/c1-20-13-7-3-11(4-8-13)15(16(17,18)19)12-5-9-14(21-2)10-6-12/h3-10,15H,1-2H3",
        "InChIKey": null,
        "Canonical SMILES": "ClC(Cl)(Cl)C(C1=CC=C(OC)C=C1)C2=CC=C(OC)C=C2",
        "Molecular Formula": "C<sub>16</sub>H<sub>15</sub>Cl<sub>3</sub>O<sub>2</sub>",
        "Molecular Mass": "345.65",
        "Boiling Point": "346 °C",
        "Melting Point": "87 °C",
        "Density": "1.41 g/cm³ @ Temp: 25 °C"
    }
}