{
    "cas_no": "83-15-8",
    "key_name": "4-Acetylaminoantipyrine",
    "cn_name": null,
    "alternate_name": "Acetamide, <em>N</em>-(2,3-dihydro-1,5-dimethyl-3-oxo-2-phenyl-1<em>H</em>-pyrazol-4-yl)-;Acetamide, <em>N</em>-antipyrinyl-;Antipyrine, 4-acetamido-;<em>N</em>-(2,3-Dihydro-1,5-dimethyl-3-oxo-2-phenyl-1<em>H</em>-pyrazol-4-yl)acetamide;4-Acetamidoantipyrine;<em>N</em>-Acetyl-4-aminoantipyrine;4-Acetylaminoantipyrine;Acetylaminoantipyrine;4-Acetoaminoantipyrine;4-Acetylaminophenazone;<em>N</em>-Antipyrinylacetamide;4-Acetaminoantipyrine;<em>N</em>-Acetyl-4-aminophenazone;4-(<em>N</em>-Acetylamino)antipyrine;4-Acetamido-2,3-dimethyl-1-phenylpyrazol-5-one;NSC 331807",
    "duplicated_cas_no": "",
    "SMILES": "O=C1N(N(C)C(C)=C1NC(C)=O)C2=CC=CC=C2",
    "meta_data": {
        "InChI": "InChI=1S/C13H15N3O2/c1-9-12(14-10(2)17)13(18)16(15(9)3)11-7-5-4-6-8-11/h4-8H,1-3H3,(H,14,17)",
        "InChIKey": null,
        "Canonical SMILES": "O=C(NC=1C(=O)N(C=2C=CC=CC2)N(C1C)C)C",
        "Molecular Formula": "C<sub>13</sub>H<sub>15</sub>N<sub>3</sub>O<sub>2</sub>",
        "Molecular Mass": "245.28",
        "Melting Point": "198-199 °C"
    }
}