{
    "cas_no": "13134-76-4",
    "key_name": "Methyl 3-hydroxybenzo[<em>b</em>]thiophene-2-carboxylate",
    "cn_name": null,
    "alternate_name": "Benzo[<em>b</em>]thiophene-2-carboxylic acid, 3-hydroxy-, methyl ester;Methyl 3-hydroxybenzo[<em>b</em>]thiophene-2-carboxylate;3-Hydroxybenzo[<em>b</em>]thiophene-2-carboxylic acid methyl ester",
    "duplicated_cas_no": "",
    "SMILES": "OC=1C=2C(SC1C(OC)=O)=CC=CC2",
    "meta_data": {
        "InChI": "InChI=1S/C10H8O3S/c1-13-10(12)9-8(11)6-4-2-3-5-7(6)14-9/h2-5,11H,1H3",
        "InChIKey": null,
        "Canonical SMILES": "O=C(OC)C=1SC=2C=CC=CC2C1O",
        "Molecular Formula": "C<sub>10</sub>H<sub>8</sub>O<sub>3</sub>S",
        "Molecular Mass": "208.23",
        "Melting Point": "106-108 °C"
    }
}