{
    "cas_no": "1951-12-8",
    "key_name": "3-Chlorobutanoic acid",
    "cn_name": "3-氯-正丁酸;",
    "alternate_name": "Butanoic acid, 3-chloro-;Butyric acid, 3-chloro-;Butyric acid, β-chloro-;3-Chlorobutanoic acid;3-Chlorobutyric acid;β-Chlorobutyric acid;(±)-3-Chlorobutyric acid;NSC 404459",
    "duplicated_cas_no": "625-68-3",
    "SMILES": "C(C(C)Cl)C(O)=O",
    "meta_data": {
        "InChI": "InChI=1S/C4H7ClO2/c1-3(5)2-4(6)7/h3H,2H2,1H3,(H,6,7)",
        "InChIKey": null,
        "Canonical SMILES": "O=C(O)CC(Cl)C",
        "Molecular Formula": "C<sub>4</sub>H<sub>7</sub>ClO<sub>2</sub>",
        "Molecular Mass": "122.55",
        "Boiling Point": "103-105 °C @ Press: 15 Torr",
        "Melting Point": "43-44.5 °C",
        "Density": "1.1865 g/cm³ @ Temp: 19.85 °C"
    }
}