{
    "cas_no": "1072-47-5",
    "key_name": "4-Methyl-1,3-dioxolane",
    "cn_name": "4-甲基-1,3-二氧戊环;4-甲基-1,3-二氧戊烷;",
    "alternate_name": "1,3-Dioxolane, 4-methyl-;4-Methyl-1,3-dioxolane;Propylene glycol formal",
    "duplicated_cas_no": "",
    "SMILES": "CC1COCO1",
    "meta_data": {
        "InChI": "InChI=1S/C4H8O2/c1-4-2-5-3-6-4/h4H,2-3H2,1H3",
        "InChIKey": null,
        "Canonical SMILES": "O1COC(C)C1",
        "Molecular Formula": "C<sub>4</sub>H<sub>8</sub>O<sub>2</sub>",
        "Molecular Mass": "88.11",
        "Boiling Point": "84.2 °C @ Press: 745 Torr",
        "Density": "0.9834 g/cm³ @ Temp: 25 °C"
    }
}