{
    "cas_no": "105-40-8",
    "key_name": "Carbamic acid, <em>N</em>-methyl-, ethyl ester",
    "cn_name": "甲氨基甲酸乙酯;甲基尿烷;甲基乌来糖;N-甲基氨基甲酸乙酯;N-甲基乌来糖;甲胺基甲酸乙酯;甲基脲烷;",
    "alternate_name": "Carbamic acid, <em>N</em>-methyl-, ethyl ester;Carbamic acid, methyl-, ethyl ester;Ethyl <em>N</em>-methylcarbamate;<em>N</em>-Methylurethan;Methylurethane;Ethyl methylcarbamate;<em>N</em>-Methylurethane;NSC 8836",
    "duplicated_cas_no": "",
    "SMILES": "C(OCC)(NC)=O",
    "meta_data": {
        "InChI": "InChI=1S/C4H9NO2/c1-3-7-4(6)5-2/h3H2,1-2H3,(H,5,6)",
        "InChIKey": null,
        "Canonical SMILES": "O=C(OCC)NC",
        "Molecular Formula": "C<sub>4</sub>H<sub>9</sub>NO<sub>2</sub>",
        "Molecular Mass": "103.12",
        "Boiling Point": "170 °C @ Press: 760 Torr",
        "Density": "1.0115 g/cm³ @ Temp: 20 °C"
    }
}