{
    "cas_no": "179897-95-1",
    "key_name": "1-Bromo-5-chloro-4-methoxy-2-methylbenzene",
    "cn_name": null,
    "alternate_name": "Benzene, 1-bromo-5-chloro-4-methoxy-2-methyl-;1-Bromo-5-chloro-4-methoxy-2-methylbenzene;4-Bromo-2-chloro-5-methylanisole",
    "duplicated_cas_no": "",
    "SMILES": "O(C)C1=C(Cl)C=C(Br)C(C)=C1",
    "meta_data": {
        "InChI": "InChI=1S/C8H8BrClO/c1-5-3-8(11-2)7(10)4-6(5)9/h3-4H,1-2H3",
        "InChIKey": null,
        "Canonical SMILES": "ClC=1C=C(Br)C(=CC1OC)C",
        "Molecular Formula": "C<sub>8</sub>H<sub>8</sub>BrClO",
        "Molecular Mass": "235.51",
        "Melting Point": "55 °C"
    }
}