{
    "cas_no": "14811-73-5",
    "key_name": "Methyl 10-oxodecanoate",
    "cn_name": null,
    "alternate_name": "Decanoic acid, 10-oxo-, methyl ester;Sebacaldehydic acid, methyl ester;Pelargonic acid, θ-formyl-, methyl ester;Methyl 10-oxodecanoate;Methyl 9-formylnonanoate;10-Methoxy-10-oxodecanal",
    "duplicated_cas_no": "",
    "SMILES": "C(CCC(OC)=O)CCCCCC=O",
    "meta_data": {
        "InChI": "InChI=1S/C11H20O3/c1-14-11(13)9-7-5-3-2-4-6-8-10-12/h10H,2-9H2,1H3",
        "InChIKey": null,
        "Canonical SMILES": "O=CCCCCCCCCC(=O)OC",
        "Molecular Formula": "C<sub>11</sub>H<sub>20</sub>O<sub>3</sub>",
        "Molecular Mass": "200.27",
        "Boiling Point": "107 °C @ Press: 0.3 Torr",
        "Density": "0.979 g/cm³ @ Temp: 20 °C"
    }
}