{
    "cas_no": "349-97-3",
    "key_name": "<em>N</em>-[4-(Trifluoromethyl)phenyl]acetamide",
    "cn_name": "4-(三氟甲基)乙酰苯胺;",
    "alternate_name": "Acetamide, <em>N</em>-[4-(trifluoromethyl)phenyl]-;<em>p</em>-Acetotoluidide, α,α,α-trifluoro-;<em>N</em>-[4-(Trifluoromethyl)phenyl]acetamide;<em>p</em>-(Trifluoromethyl)acetanilide;α,α,α-Trifluoro-<em>p</em>-acetotoluidide;4′-(Trifluoromethyl)acetanilide;NSC 403019;<em>N</em>-Acetyl-4-(trifluoromethyl)aniline",
    "duplicated_cas_no": "",
    "SMILES": "C(F)(F)(F)C1=CC=C(NC(C)=O)C=C1",
    "meta_data": {
        "InChI": "InChI=1S/C9H8F3NO/c1-6(14)13-8-4-2-7(3-5-8)9(10,11)12/h2-5H,1H3,(H,13,14)",
        "InChIKey": null,
        "Canonical SMILES": "O=C(NC1=CC=C(C=C1)C(F)(F)F)C",
        "Molecular Formula": "C<sub>9</sub>H<sub>8</sub>F<sub>3</sub>NO",
        "Molecular Mass": "203.16",
        "Melting Point": "153-155 °C"
    }
}