{
    "cas_no": "1192-81-0",
    "key_name": "5-(Chloromethyl)-3-methyl-1,2,4-oxadiazole",
    "cn_name": null,
    "alternate_name": "1,2,4-Oxadiazole, 5-(chloromethyl)-3-methyl-;5-(Chloromethyl)-3-methyl-1,2,4-oxadiazole;3-Methyl-5-(chloromethyl)-1,2,4-oxadiazole",
    "duplicated_cas_no": "",
    "SMILES": "C(Cl)C1=NC(C)=NO1",
    "meta_data": {
        "InChI": "InChI=1S/C4H5ClN2O/c1-3-6-4(2-5)8-7-3/h2H2,1H3",
        "InChIKey": null,
        "Canonical SMILES": "ClCC1=NC(=NO1)C",
        "Molecular Formula": "C<sub>4</sub>H<sub>5</sub>ClN<sub>2</sub>O",
        "Molecular Mass": "132.55",
        "Boiling Point": "112 °C @ Press: 90 Torr"
    }
}