{
    "cas_no": "22280-62-2",
    "key_name": "6-Methyl-5-nitro-2-pyridinamine",
    "cn_name": "2-氨基-5-硝基-6-甲基吡啶;6-氨基-2-甲基-3-硝基吡啶;",
    "alternate_name": "2-Pyridinamine, 6-methyl-5-nitro-;2-Picoline, 6-amino-3-nitro-;6-Methyl-5-nitro-2-pyridinamine;2-Amino-5-nitro-6-methylpyridine;2-Amino-6-methyl-5-nitropyridine;6-Amino-3-nitro-2-picoline;3-Nitro-6-amino-2-picoline;NSC 63855;6-Methyl-5-nitropyridin-2-ylamine",
    "duplicated_cas_no": "",
    "SMILES": "N(=O)(=O)C1=C(C)N=C(N)C=C1",
    "meta_data": {
        "InChI": "InChI=1S/C6H7N3O2/c1-4-5(9(10)11)2-3-6(7)8-4/h2-3H,1H3,(H2,7,8)",
        "InChIKey": null,
        "Canonical SMILES": "O=N(=O)C1=CC=C(N=C1C)N",
        "Molecular Formula": "C<sub>6</sub>H<sub>7</sub>N<sub>3</sub>O<sub>2</sub>",
        "Molecular Mass": "153.14",
        "Melting Point": "188 °C"
    }
}