{
    "cas_no": "15802-80-9",
    "key_name": "3-(1,1-Dimethylethyl)-1<em>H</em>-pyrazole",
    "cn_name": null,
    "alternate_name": "1<em>H</em>-Pyrazole, 3-(1,1-dimethylethyl)-;Pyrazole, 3-<em>tert</em>-butyl-;3-(1,1-Dimethylethyl)-1<em>H</em>-pyrazole;3-<em>tert</em>-Butylpyrazole;3-<em>tert</em>-Butyl-1<em>H</em>-pyrazole",
    "duplicated_cas_no": "141665-15-8;196207-20-2;286384-49-4;1444611-32-8;1801687-10-4",
    "SMILES": "C(C)(C)(C)C=1C=CNN1",
    "meta_data": {
        "InChI": "InChI=1S/C7H12N2/c1-7(2,3)6-4-5-8-9-6/h4-5H,1-3H3,(H,8,9)",
        "InChIKey": null,
        "Canonical SMILES": "N=1NC=CC1C(C)(C)C",
        "Molecular Formula": "C<sub>7</sub>H<sub>12</sub>N<sub>2</sub>",
        "Molecular Mass": "124.18",
        "Boiling Point": "127 °C @ Press: 0.15 Torr",
        "Melting Point": "53-54 °C"
    }
}