{
    "cas_no": "403-41-8",
    "key_name": "1-(4-Fluorophenyl)ethanol",
    "cn_name": "1-(4-氟苯基)-1-乙醇;",
    "alternate_name": "Benzenemethanol, 4-fluoro-α-methyl-;Benzyl alcohol, <em>p</em>-fluoro-α-methyl-;4-Fluoro-α-methylbenzenemethanol;<em>p</em>-Fluoro-α-methylbenzyl alcohol;4-Fluoro-α-methylbenzyl alcohol;1-(<em>p</em>-Fluorophenyl)ethanol;1-(4-Fluorophenyl)ethanol;(±)-1-(4-Fluorophenyl)ethanol;NSC 2983;α-Methyl-4-fluorobenzyl alcohol;(±)-1-(<em>p</em>-Fluorophenyl)ethanol;1-(4-Flourophenyl)ethanol;1-(4-Fluorophenyl)ethan-1-ol",
    "duplicated_cas_no": "",
    "SMILES": "C(C)(O)C1=CC=C(F)C=C1",
    "meta_data": {
        "InChI": "InChI=1S/C8H9FO/c1-6(10)7-2-4-8(9)5-3-7/h2-6,10H,1H3",
        "InChIKey": null,
        "Canonical SMILES": "FC1=CC=C(C=C1)C(O)C",
        "Molecular Formula": "C<sub>8</sub>H<sub>9</sub>FO",
        "Molecular Mass": "140.15",
        "Boiling Point": "122-123 °C @ Press: 45 Torr",
        "Melting Point": "9 °C",
        "Density": "1.122 g/cm³ @ Temp: 20 °C"
    }
}