{
    "cas_no": "526-78-3",
    "key_name": "2,3-Dibromosuccinic acid",
    "cn_name": "2,3-二溴丁二酸;",
    "alternate_name": "Butanedioic acid, 2,3-dibromo-;Succinic acid, 2,3-dibromo-;Succinic acid, α,β-dibromo-;2,3-Dibromobutanedioic acid;α,β-Dibromosuccinic acid;2,3-Dibromosuccinic acid;NSC 119053;NSC 1904",
    "duplicated_cas_no": "860113-84-4",
    "SMILES": "C(C(C(O)=O)Br)(C(O)=O)Br",
    "meta_data": {
        "InChI": "InChI=1S/C4H4Br2O4/c5-1(3(7)8)2(6)4(9)10/h1-2H,(H,7,8)(H,9,10)",
        "InChIKey": null,
        "Canonical SMILES": "O=C(O)C(Br)C(Br)C(=O)O",
        "Molecular Formula": "C<sub>4</sub>H<sub>4</sub>Br<sub>2</sub>O<sub>4</sub>",
        "Molecular Mass": "275.88",
        "Melting Point": "167 °C"
    }
}