{
    "cas_no": "96-48-0",
    "key_name": "γ-Butyrolactone",
    "cn_name": "gamma-丁内酯;4-羟基丁酸内酯;",
    "alternate_name": "2(3<em>H</em>)-Furanone, dihydro-;Dihydro-2(3<em>H</em>)-furanone;NIH 10540;γ-BL;Butyrolactone;1,4-Butanolide;γ-Butyrolactone;4-Hydroxybutanoic acid lactone;γ-Hydroxybutyric acid lactone;Butanoic acid, 4-hydroxy-, γ-lactone;Butyric acid lactone;4-Hydroxybutyric acid lactone;Tetrahydro-2-furanone;4-Butanolide;4-Deoxytetronic acid;1-Oxacyclopentan-2-one;2-Oxotetrahydrofuran;γ-Butyryllactone;4,5-Dihydro-2(3<em>H</em>)-furanone;γ-Butalactone;2-Oxolanone;2,3,4,5-Tetrahydro-2-furanone;Paint Clean G;NSC 4592;GBL;LBG 11785;B 0767",
    "duplicated_cas_no": "187997-16-6",
    "SMILES": "O=C1CCCO1",
    "meta_data": {
        "InChI": "InChI=1S/C4H6O2/c5-4-2-1-3-6-4/h1-3H2",
        "InChIKey": null,
        "Canonical SMILES": "O=C1OCCC1",
        "Molecular Formula": "C<sub>4</sub>H<sub>6</sub>O<sub>2</sub>",
        "Molecular Mass": "86.09",
        "Boiling Point": "204 °C @ Press: 760 Torr",
        "Melting Point": "-43.53 °C",
        "Density": "1.1284 g/cm³ @ Temp: 16 °C"
    }
}