{
    "cas_no": "39538-68-6",
    "key_name": "2-Methoxy-4-methylaniline",
    "cn_name": null,
    "alternate_name": "Benzenamine, 2-methoxy-4-methyl-;2-Methoxy-4-methylbenzenamine;2-Methoxy-<em>p</em>-toluidine;2-Methoxy-4-methylaniline;4-Methyl-<em>o</em>-anisidine;4-Methyl-2-methoxyaniline;(2-Methoxy-4-methylphenyl)amine",
    "duplicated_cas_no": "",
    "SMILES": "O(C)C1=C(N)C=CC(C)=C1",
    "meta_data": {
        "InChI": "InChI=1S/C8H11NO/c1-6-3-4-7(9)8(5-6)10-2/h3-5H,9H2,1-2H3",
        "InChIKey": null,
        "Canonical SMILES": "O(C1=CC(=CC=C1N)C)C",
        "Molecular Formula": "C<sub>8</sub>H<sub>11</sub>NO",
        "Molecular Mass": "137.18",
        "Boiling Point": "109 °C @ Press: 11 Torr"
    }
}