{
    "cas_no": "115610-29-2",
    "key_name": "(<em>E</em>)-Caffeic acid phenethyl ester",
    "cn_name": null,
    "alternate_name": "2-Propenoic acid, 3-(3,4-dihydroxyphenyl)-, 2-phenylethyl ester, (2<em>E</em>)-;2-Propenoic acid, 3-(3,4-dihydroxyphenyl)-, 2-phenylethyl ester, (<em>E</em>)-;(<em>E</em>)-Caffeic acid phenethyl ester;Phenethyl (<em>E</em>)-caffeate",
    "duplicated_cas_no": "1208233-07-1",
    "SMILES": "C(=C/C(OCCC1=CC=CC=C1)=O)\\C2=CC(O)=C(O)C=C2",
    "meta_data": {
        "InChI": "InChI=1S/C17H16O4/c18-15-8-6-14(12-16(15)19)7-9-17(20)21-11-10-13-4-2-1-3-5-13/h1-9,12,18-19H,10-11H2/b9-7+",
        "InChIKey": null,
        "Canonical SMILES": "O=C(OCCC=1C=CC=CC1)C=CC2=CC=C(O)C(O)=C2",
        "Molecular Formula": "C<sub>17</sub>H<sub>16</sub>O<sub>4</sub>",
        "Molecular Mass": "284.31",
        "Melting Point": "121-123 °C"
    }
}