{
    "cas_no": "394-32-1",
    "key_name": "5′-Fluoro-2′-hydroxyacetophenone",
    "cn_name": "5-氟-2-羟基苯乙酮;",
    "alternate_name": "Ethanone, 1-(5-fluoro-2-hydroxyphenyl)-;Acetophenone, 5′-fluoro-2′-hydroxy-;1-(5-Fluoro-2-hydroxyphenyl)ethanone;5′-Fluoro-2′-hydroxyacetophenone;2-Acetyl-4-fluorophenol;NSC 46624;2′-Hydroxy-5′-fluoroacetophenone;3-Fluoro-6-hydroxyacetophenone;1-(5-Fluoro-2-hydroxyphenyl)ethan-1-one",
    "duplicated_cas_no": "",
    "SMILES": "C(C)(=O)C1=C(O)C=CC(F)=C1",
    "meta_data": {
        "InChI": "InChI=1S/C8H7FO2/c1-5(10)7-4-6(9)2-3-8(7)11/h2-4,11H,1H3",
        "InChIKey": null,
        "Canonical SMILES": "O=C(C1=CC(F)=CC=C1O)C",
        "Molecular Formula": "C<sub>8</sub>H<sub>7</sub>FO<sub>2</sub>",
        "Molecular Mass": "154.14",
        "Boiling Point": "94-99 °C @ Press: 12 Torr",
        "Melting Point": "56-56.5 °C"
    }
}