{
    "cas_no": "2362-12-1",
    "key_name": "4-Bromo-2-methylphenol",
    "cn_name": "4-溴-2-甲基苯酚;",
    "alternate_name": "Phenol, 4-bromo-2-methyl-;<em>o</em>-Cresol, 4-bromo-;4-Bromo-2-methylphenol;4-Bromo-<em>o</em>-cresol;3-Bromo-6-hydroxytoluene;2-Methyl-4-bromophenol",
    "duplicated_cas_no": "",
    "SMILES": "CC1=C(O)C=CC(Br)=C1",
    "meta_data": {
        "InChI": "InChI=1S/C7H7BrO/c1-5-4-6(8)2-3-7(5)9/h2-4,9H,1H3",
        "InChIKey": null,
        "Canonical SMILES": "BrC1=CC=C(O)C(=C1)C",
        "Molecular Formula": "C<sub>7</sub>H<sub>7</sub>BrO",
        "Molecular Mass": "187.03",
        "Boiling Point": "235 °C",
        "Melting Point": "64.7 °C"
    }
}