{
    "cas_no": "10105-42-7",
    "key_name": "Trihydrazinotriazine",
    "cn_name": null,
    "alternate_name": "1,3,5-Triazine, 2,4,6-trihydrazinyl-;<em>s</em>-Triazine, 2,4,6-trihydrazino-;1,3,5-Triazine-2,4,6(1<em>H</em>,3<em>H</em>,5<em>H</em>)-trione, trihydrazone;<em>s</em>-Triazine, trihydrazino-;2,4,6-Trihydrazinyl-1,3,5-triazine;Genitron THT;Trihydrazino-<em>s</em>-triazine;Trihydrazino-<em>sym</em>-triazine;Trihydrazinotriazine;2,4,6-Trihydrazino-1,3,5-triazine;NSC 231588;2,4,6-Tris(hydrazino)-<em>s</em>-triazine;(4,6-Dihydrazinyl-1,3,5-triazin-2-yl)hydrazine;SJ 1392",
    "duplicated_cas_no": "",
    "SMILES": "N(N)=C1NC(=NN)NC(=NN)N1",
    "meta_data": {
        "InChI": "InChI=1S/C3H9N9/c4-10-1-7-2(11-5)9-3(8-1)12-6/h4-6H2,(H3,7,8,9,10,11,12)",
        "InChIKey": null,
        "Canonical SMILES": "N(N)=C1NC(=NN)NC(=NN)N1",
        "Molecular Formula": "C<sub>3</sub>H<sub>9</sub>N<sub>9</sub>",
        "Molecular Mass": "171.16",
        "Melting Point": "&gt;300 °C (decomp)"
    }
}