{
    "cas_no": "4670-56-8",
    "key_name": "Benzoic acid, 2-hydroxy-4-methyl-, methyl ester",
    "cn_name": "4-甲基水杨酸甲酯;4-甲基-2-羟基苯甲酸甲酯;",
    "alternate_name": "Benzoic acid, 2-hydroxy-4-methyl-, methyl ester;2,4-Cresotic acid, methyl ester;Methyl 2-hydroxy-<em>p</em>-toluate;2-Hydroxy-<em>p</em>-toluic acid methyl ester;Methyl 2-hydroxy-4-methylbenzoate;2-Hydroxy-4-methylbenzoic acid methyl ester;Methyl 4-methylsalicylate;2-(Methoxycarbonyl)-5-methylphenol;4-Methylsalicylic acid methyl ester",
    "duplicated_cas_no": "",
    "SMILES": "C(OC)(=O)C1=C(O)C=C(C)C=C1",
    "meta_data": {
        "InChI": "InChI=1S/C9H10O3/c1-6-3-4-7(8(10)5-6)9(11)12-2/h3-5,10H,1-2H3",
        "InChIKey": null,
        "Canonical SMILES": "O=C(OC)C1=CC=C(C=C1O)C",
        "Molecular Formula": "C<sub>9</sub>H<sub>10</sub>O<sub>3</sub>",
        "Molecular Mass": "166.17",
        "Boiling Point": "243 °C",
        "Melting Point": "27.5 °C",
        "Density": "1.1621 g/cm³ @ Temp: 0 °C"
    }
}