{
    "cas_no": "13007-92-6",
    "key_name": "Chromium hexacarbonyl",
    "cn_name": "六羰基铬;",
    "alternate_name": "Chromium carbonyl (Cr(CO)<sub>6</sub>), (<em>OC</em>-6-11)-;Chromium carbonyl (Cr(CO)<sub>6</sub>);Chromium hexacarbonyl;Hexacarbonylchromium;Chromium carbonyl",
    "duplicated_cas_no": "13930-94-4;51053-45-3;848779-19-1",
    "SMILES": "[Cr](C#O)(C#O)(C#O)(C#O)(C#O)C#O",
    "meta_data": {
        "InChI": "InChI=1S/6CO.Cr/c6*1-2;",
        "InChIKey": null,
        "Canonical SMILES": "O#C[Cr](C#O)(C#O)(C#O)(C#O)C#O",
        "Molecular Formula": "C<sub>6</sub>CrO<sub>6</sub>",
        "Molecular Mass": "",
        "Boiling Point": "64 °C @ Press: 50 Torr",
        "Melting Point": "149-150 °C",
        "Density": "1.77 g/cm³"
    }
}