{
    "cas_no": "131002-10-3",
    "key_name": "6-Methyl-1(2<em>H</em>)-isoquinolinone",
    "cn_name": null,
    "alternate_name": "1(2<em>H</em>)-Isoquinolinone, 6-methyl-;6-Methyl-1(2<em>H</em>)-isoquinolinone;6-Methyl-2<em>H</em>-isoquinolin-1-one",
    "duplicated_cas_no": "",
    "SMILES": "O=C1C=2C(=CC(C)=CC2)C=CN1",
    "meta_data": {
        "InChI": "InChI=1S/C10H9NO/c1-7-2-3-9-8(6-7)4-5-11-10(9)12/h2-6H,1H3,(H,11,12)",
        "InChIKey": null,
        "Canonical SMILES": "O=C1NC=CC=2C=C(C=CC21)C",
        "Molecular Formula": "C<sub>10</sub>H<sub>9</sub>NO",
        "Molecular Mass": "159.18",
        "Melting Point": "181-183 °C"
    }
}