{
    "cas_no": "80-69-3",
    "key_name": "Tartronic acid",
    "cn_name": "羟基丙二酸;丙醇二酸；亚酒石酸;",
    "alternate_name": "Propanedioic acid, 2-hydroxy-;Tartronic acid;Propanedioic acid, hydroxy-;2-Hydroxypropanedioic acid;Hydroxymalonic acid;α-Hydroxymalonic acid;Hydroxypropanedioic acid;NSC 36171;2-Hydroxymalonic acid",
    "duplicated_cas_no": "",
    "SMILES": "C(C(O)=O)(C(O)=O)O",
    "meta_data": {
        "InChI": "InChI=1S/C3H4O5/c4-1(2(5)6)3(7)8/h1,4H,(H,5,6)(H,7,8)",
        "InChIKey": null,
        "Canonical SMILES": "O=C(O)C(O)C(=O)O",
        "Molecular Formula": "C<sub>3</sub>H<sub>4</sub>O<sub>5</sub>",
        "Molecular Mass": "120.06",
        "Melting Point": "157 °C"
    }
}