{
    "cas_no": "10602-34-3",
    "key_name": "1,1-Diethoxy-2-butene",
    "cn_name": "丁烯缩醛;",
    "alternate_name": "2-Butene, 1,1-diethoxy-;Crotonaldehyde, diethyl acetal;1,1-Diethoxy-2-butene;2-Butenal diethyl acetal;NSC 219876;NSC 506646",
    "duplicated_cas_no": "",
    "SMILES": "C(C=CC)(OCC)OCC",
    "meta_data": {
        "InChI": "InChI=1S/C8H16O2/c1-4-7-8(9-5-2)10-6-3/h4,7-8H,5-6H2,1-3H3",
        "InChIKey": null,
        "Canonical SMILES": "O(CC)C(OCC)C=CC",
        "Molecular Formula": "C<sub>8</sub>H<sub>16</sub>O<sub>2</sub>",
        "Molecular Mass": "144.21",
        "Boiling Point": "147.5 °C"
    }
}