{
    "cas_no": "132203-70-4",
    "key_name": "Cilnidipine",
    "cn_name": "西尼地平;1,4-二氢-2,6-二甲基-4-(3-硝基苯基)-3,5-吡啶二羧酸2-甲氧基乙酯肉桂醇酯;",
    "alternate_name": "3,5-Pyridinedicarboxylic acid, 1,4-dihydro-2,6-dimethyl-4-(3-nitrophenyl)-, 3-(2-methoxyethyl) 5-[(2<em>E</em>)-3-phenyl-2-propen-1-yl] ester;3,5-Pyridinedicarboxylic acid, 1,4-dihydro-2,6-dimethyl-4-(3-nitrophenyl)-, 2-methoxyethyl 3-phenyl-2-propenyl ester, (<em>E</em>)-(±)-;3,5-Pyridinedicarboxylic acid, 1,4-dihydro-2,6-dimethyl-4-(3-nitrophenyl)-, 2-methoxyethyl (2<em>E</em>)-3-phenyl-2-propenyl ester;(±)-FRC 8653;FRC 8653;Cilnidipine;Atelec;Cinalong;Siscard;3,5-Pyridinedicarboxylic acid, 1,4-dihydro-2,6-dimethyl-4-(3-nitrophenyl)-, 2-methoxyethyl 3-phenyl-2-propenyl ester, (<em>E</em>)-;FRG 8653;Cinaldipine;Cilacar 10;C 1493;Prestw 1376",
    "duplicated_cas_no": "153220-67-8",
    "SMILES": "C(OC/C=C/C1=CC=CC=C1)(=O)C=2C(C(C(OCCOC)=O)=C(C)NC2C)C3=CC(N(=O)=O)=CC=C3",
    "meta_data": {
        "InChI": "InChI=1/C27H28N2O7/c1-18-23(26(30)35-14-8-11-20-9-5-4-6-10-20)25(21-12-7-13-22(17-21)29(32)33)24(19(2)28-18)27(31)36-16-15-34-3/h4-13,17,25,28H,14-16H2,1-3H3/b11-8+",
        "InChIKey": null,
        "Canonical SMILES": "O=C(OCC=CC=1C=CC=CC1)C2=C(NC(=C(C(=O)OCCOC)C2C=3C=CC=C(C3)N(=O)=O)C)C",
        "Molecular Formula": "C<sub>27</sub>H<sub>28</sub>N<sub>2</sub>O<sub>7</sub>",
        "Molecular Mass": "492.52",
        "Melting Point": "115.5-116.6 °C"
    }
}