{
    "cas_no": "531-59-9",
    "key_name": "Methylumbelliferone",
    "cn_name": "7-甲氧基香豆素;",
    "alternate_name": "2<em>H</em>-1-Benzopyran-2-one, 7-methoxy-;Herniarin;Coumarin, 7-methoxy-;Umbelliferone, methyl ether;7-Methoxy-2<em>H</em>-1-benzopyran-2-one;Ayapanin;7-Methoxycoumarin;Methylumbelliferone;NSC 404559;7-Methoxychromen-2-one;Gerniarin;7-Methoxy-2<em>H</em>-chromen-2-one",
    "duplicated_cas_no": "",
    "SMILES": "O(C)C=1C=C2C(=CC1)C=CC(=O)O2",
    "meta_data": {
        "InChI": "InChI=1S/C10H8O3/c1-12-8-4-2-7-3-5-10(11)13-9(7)6-8/h2-6H,1H3",
        "InChIKey": null,
        "Canonical SMILES": "O=C1OC=2C=C(OC)C=CC2C=C1",
        "Molecular Formula": "C<sub>10</sub>H<sub>8</sub>O<sub>3</sub>",
        "Molecular Mass": "176.17",
        "Boiling Point": "130 °C @ Press: 0.02 Torr",
        "Melting Point": "117-118 °C"
    }
}