{
    "cas_no": "4403-70-7",
    "key_name": "3-Aminobenzylamine",
    "cn_name": "3-氨基苄胺;间氨基苄胺;",
    "alternate_name": "Benzenemethanamine, 3-amino-;Toluene-α,3-diamine;3-Aminobenzenemethanamine;3-Aminobenzylamine;<em>m</em>-Aminobenzylamine;3-Aminomethylphenylamine;3-(Aminomethyl)aniline",
    "duplicated_cas_no": "",
    "SMILES": "C(N)C1=CC(N)=CC=C1",
    "meta_data": {
        "InChI": "InChI=1S/C7H10N2/c8-5-6-2-1-3-7(9)4-6/h1-4H,5,8-9H2",
        "InChIKey": null,
        "Canonical SMILES": "NC1=CC=CC(=C1)CN",
        "Molecular Formula": "C<sub>7</sub>H<sub>10</sub>N<sub>2</sub>",
        "Molecular Mass": "122.17",
        "Boiling Point": "267 °C @ Press: 760 mmHg",
        "Melting Point": "41-45 °C"
    }
}