{
    "cas_no": "4128-37-4",
    "key_name": "<em>N</em>,<em>N</em>′-Bis(1-methylethyl)urea",
    "cn_name": "对称二异丙基脲;均二异丙基脲;",
    "alternate_name": "Urea, <em>N</em>,<em>N</em>′-bis(1-methylethyl)-;Urea, 1,3-diisopropyl-;<em>N</em>,<em>N</em>′-Bis(1-methylethyl)urea;1,3-Diisopropylurea;<em>N</em>,<em>N</em>′-Diisopropylurea;Diptocarpamidine;NSC 112719;1,3-Di(propan-2-yl)urea;1,3-Bis(propan-2-yl)urea",
    "duplicated_cas_no": "",
    "SMILES": "N(C(NC(C)C)=O)C(C)C",
    "meta_data": {
        "InChI": "InChI=1S/C7H16N2O/c1-5(2)8-7(10)9-6(3)4/h5-6H,1-4H3,(H2,8,9,10)",
        "InChIKey": null,
        "Canonical SMILES": "O=C(NC(C)C)NC(C)C",
        "Molecular Formula": "C<sub>7</sub>H<sub>16</sub>N<sub>2</sub>O",
        "Molecular Mass": "144.21",
        "Melting Point": "192 °C",
        "Density": "1.0987 g/cm³"
    }
}