{
    "cas_no": "129-03-3",
    "key_name": "Cyproheptadine",
    "cn_name": "塞庚啶;二苯环庚啶;甲哌啶叉二苯环庚啶;",
    "alternate_name": "Piperidine, 4-(5<em>H</em>-dibenzo[<em>a</em>,<em>d</em>]cyclohepten-5-ylidene)-1-methyl-;4-(5<em>H</em>-Dibenzo[<em>a</em>,<em>d</em>]cyclohepten-5-ylidene)-1-methylpiperidine;Cyproheptadine;1-Methyl-4-(5<em>H</em>-dibenzo[<em>a</em>,<em>d</em>]cycloheptenylidene)piperidine;Periactinol;1-Methyl-4-(dibenzo[<em>a</em>,<em>e</em>]cycloheptatrien-5-ylidene)piperidine;Cycloheptadine;MeSH ID: D003533",
    "duplicated_cas_no": "",
    "SMILES": "CN1CCC(=C2C=3C(C=CC=4C2=CC=CC4)=CC=CC3)CC1",
    "meta_data": {
        "InChI": "InChI=1S/C21H21N/c1-22-14-12-18(13-15-22)21-19-8-4-2-6-16(19)10-11-17-7-3-5-9-20(17)21/h2-11H,12-15H2,1H3",
        "InChIKey": null,
        "Canonical SMILES": "C=1C=CC2=C(C1)C=CC=3C=CC=CC3C2=C4CCN(C)CC4",
        "Molecular Formula": "C<sub>21</sub>H<sub>21</sub>N",
        "Molecular Mass": "287.40",
        "Melting Point": "112.3-113.3 °C"
    }
}