{
    "cas_no": "1198-69-2",
    "key_name": "<span class=\"text-smallcaps\">D</span>-Gluconolactone",
    "cn_name": null,
    "alternate_name": "<span class=\"text-smallcaps\">D</span>-Gluconic acid, γ-lactone;Gluconic acid, γ-lactone, <span class=\"text-smallcaps\">D</span>-;<span class=\"text-smallcaps\">D</span>-Gluconolactone;Glucono-γ-lactone;1,4-Gluconolactone;1,4-<span class=\"text-smallcaps\">D</span>-Gluconolactone;Gluconic acid, γ-lactone;<span class=\"text-smallcaps\">D</span>-Glucono-1,4-lactone;<span class=\"text-smallcaps\">D</span>-Glucono-γ-lactone",
    "duplicated_cas_no": "40017-37-6",
    "SMILES": "[C@H](CO)(O)[C@@]1([C@H](O)[C@@H](O)C(=O)O1)[H]",
    "meta_data": {
        "InChI": "InChI=1S/C6H10O6/c7-1-2(8)5-3(9)4(10)6(11)12-5/h2-5,7-10H,1H2/t2-,3-,4-,5-/m1/s1",
        "InChIKey": null,
        "Canonical SMILES": "O=C1OC(C(O)CO)C(O)C1O",
        "Molecular Formula": "C<sub>6</sub>H<sub>10</sub>O<sub>6</sub>",
        "Molecular Mass": "178.14",
        "Melting Point": "134-135 °C"
    }
}