{
    "cas_no": "112-00-5",
    "key_name": "Dodecyltrimethylammonium chloride",
    "cn_name": "十二烷基三甲基氯化铵;月桂基三甲基氯化铵;乳化剂1231;",
    "alternate_name": "1-Dodecanaminium, <em>N</em>,<em>N</em>,<em>N</em>-trimethyl-, chloride (1:1);Ammonium, dodecyltrimethyl-, chloride;Dodecyltrimethylammonium chloride;1-Dodecanaminium, <em>N</em>,<em>N</em>,<em>N</em>-trimethyl-, chloride;Aliquat 4;Arquad 12D;Lauryltrimethylammonium chloride;Trimethyllaurylammonium chloride;Trimethyldodecylammonium chloride;<em>n</em>-Dodecyltrimethylammonium chloride;Arquad 12;Nissan Cation BB;Alicop;Cation FB;Cation BB;Rewoquat B 18;Dehyquart LT;Redicote E 5;Nissan Cation FB;Catiogen L;DTAC;Arquad 12-50;<em>N</em>-Dodecyl-<em>N</em>,<em>N</em>,<em>N</em>-trimethylammonium chloride;Monolauryltrimethylammonium chloride;<em>N</em>,<em>N</em>,<em>N</em>-Trimethyl-1-dodecanaminium chloride;Quartamin 24W;Laurtrimonium chloride;Arquad 12-33;Rhodaquat M 242C29;Swanol CA 2150;Adogen 412;Catinal LTC 35A;Nissan Cation BB 300;Arquad 12-23;Arquad 12-37W;Radiaquat 6465;Arquad 12-25;CA 2150;Catiogen TML;I 0453;Lauryltrimonium chloride;Pionin B 111;Quartamin 24;Quartamin 24P;<em>N</em>-Lauryl-<em>N</em>,<em>N</em>,<em>N</em>-trimethylammonium chloride;<em>N</em>-Lauryltrimethylammonium chloride;Germicide 1231;Emal 60W;C12TAC;Cationic 1231;Cationic Surfactant 1231;Lipoquad 12-37W;Fentacare 1231-37;E 010077;Quartamin 20W;Cortamine 24P;Fentacare 1231-37K",
    "duplicated_cas_no": "37293-08-6;37380-56-6;59680-23-8;62395-69-1;71061-07-9;108779-79-9;769136-50-7;1392044-09-5",
    "SMILES": "C(CCCCCCCCC)CC[N+](C)(C)C.[Cl-]",
    "meta_data": {
        "InChI": "InChI=1S/C15H34N.ClH/c1-5-6-7-8-9-10-11-12-13-14-15-16(2,3)4;/h5-15H2,1-4H3;1H/q+1;/p-1",
        "InChIKey": null,
        "Canonical SMILES": "[Cl-].CCCCCCCCCCCC[N+](C)(C)C",
        "Molecular Formula": "C<sub>15</sub>H<sub>34</sub>N.Cl",
        "Molecular Mass": "",
        "Melting Point": "37 °C"
    }
}