{
    "cas_no": "16339-07-4",
    "key_name": "1-Methyl-4-nitrosopiperazine",
    "cn_name": "1-甲基-4-亚硝基哌嗪;1-甲基-4-亚硝基哌嗪;",
    "alternate_name": "Piperazine, 1-methyl-4-nitroso-;1-Methyl-4-nitrosopiperazine;1-Nitroso-4-methylpiperazine;<em>N</em>-Nitroso-<em>N</em>′-methylpiperazine;NSC 523886",
    "duplicated_cas_no": "",
    "SMILES": "N(=O)N1CCN(C)CC1",
    "meta_data": {
        "InChI": "InChI=1S/C5H11N3O/c1-7-2-4-8(6-9)5-3-7/h2-5H2,1H3",
        "InChIKey": null,
        "Canonical SMILES": "O=NN1CCN(C)CC1",
        "Molecular Formula": "C<sub>5</sub>H<sub>11</sub>N<sub>3</sub>O",
        "Molecular Mass": "129.16",
        "Boiling Point": "118-120 °C @ Press: 25 Torr"
    }
}