{
    "cas_no": "102-92-1",
    "key_name": "Cinnamoyl chloride",
    "cn_name": "肉桂酰氯;3-苯基-2-丙烯酰氯;",
    "alternate_name": "2-Propenoyl chloride, 3-phenyl-;Cinnamoyl chloride;β-Phenylacryloyl chloride;Cinnamic acid chloride;3-Phenyl-2-propenoyl chloride;Cinnamic chloride;Benzylideneacetyl chloride;3-Phenylpropenoyl chloride;NSC 4683;3-Phenylacryloyl chloride",
    "duplicated_cas_no": "919299-20-0",
    "SMILES": "C(=CC(Cl)=O)C1=CC=CC=C1",
    "meta_data": {
        "InChI": "InChI=1S/C9H7ClO/c10-9(11)7-6-8-4-2-1-3-5-8/h1-7H",
        "InChIKey": null,
        "Canonical SMILES": "O=C(Cl)C=CC=1C=CC=CC1",
        "Molecular Formula": "C<sub>9</sub>H<sub>7</sub>ClO",
        "Molecular Mass": "166.60",
        "Boiling Point": "257 °C",
        "Melting Point": "36 °C"
    }
}