{
    "cas_no": "23500-10-9",
    "key_name": "1-(2-Chloroacetyl)-<span class=\"text-smallcaps\">L</span>-proline",
    "cn_name": null,
    "alternate_name": "<span class=\"text-smallcaps\">L</span>-Proline, 1-(2-chloroacetyl)-;Proline, 1-(chloroacetyl)-, <span class=\"text-smallcaps\">L</span>-;<span class=\"text-smallcaps\">L</span>-Proline, 1-(chloroacetyl)-;1-(2-Chloroacetyl)-<span class=\"text-smallcaps\">L</span>-proline;<em>N</em>-α-Chloroacetyl-<span class=\"text-smallcaps\">L</span>-proline;(<em>S</em>)-1-(2-Chloroacetyl)pyrrolidine-2-carboxylic acid;1-(2-ChloroacetyL)proline;(2S)-1-(2-Chloroacetyl)pyrrolidine-2-carboxylic acid",
    "duplicated_cas_no": "",
    "SMILES": "C(CCl)(=O)N1[C@H](C(O)=O)CCC1",
    "meta_data": {
        "InChI": "InChI=1S/C7H10ClNO3/c8-4-6(10)9-3-1-2-5(9)7(11)12/h5H,1-4H2,(H,11,12)/t5-/m0/s1",
        "InChIKey": null,
        "Canonical SMILES": "O=C(N1CCCC1C(=O)O)CCl",
        "Molecular Formula": "C<sub>7</sub>H<sub>10</sub>ClNO<sub>3</sub>",
        "Molecular Mass": "191.61",
        "Melting Point": "112-113 °C"
    }
}