{
    "cas_no": "113852-37-2",
    "key_name": "Cidofovir",
    "cn_name": "西多福韦;[1-(4-氨基-2-氧代嘧啶-1-基)-3-羟基丙烷-2-基]氧甲基膦酸;",
    "alternate_name": "Phosphonic acid, <em>P</em>-[[(1<em>S</em>)-2-(4-amino-2-oxo-1(2<em>H</em>)-pyrimidinyl)-1-(hydroxymethyl)ethoxy]methyl]-;Phosphonic acid, [[2-(4-amino-2-oxo-1(2<em>H</em>)-pyrimidinyl)-1-(hydroxymethyl)ethoxy]methyl]-, (<em>S</em>)-;Phosphonic acid, [[(1<em>S</em>)-2-(4-amino-2-oxo-1(2<em>H</em>)-pyrimidinyl)-1-(hydroxymethyl)ethoxy]methyl]-;<em>P</em>-[[(1<em>S</em>)-2-(4-Amino-2-oxo-1(2<em>H</em>)-pyrimidinyl)-1-(hydroxymethyl)ethoxy]methyl]phosphonic acid;(<em>S</em>)-HPMPC;HPMPC;1-(<em>S</em>)-(3-Hydroxy-2-phosphonylmethoxypropyl)cytosine;1-[(<em>S</em>)-3-Hydroxy-2-(phosphonomethoxy)propyl]cytosine;(<em>S</em>)-1-(3-hydroxy-2-phosphonomethoxypropyl)cytosine;GS 0504;Cidofovir;Vistide;Cidovir;Cidofovir monophosphate",
    "duplicated_cas_no": "",
    "SMILES": "C([C@H](OCP(=O)(O)O)CO)N1C(=O)N=C(N)C=C1",
    "meta_data": {
        "InChI": "InChI=1S/C8H14N3O6P/c9-7-1-2-11(8(13)10-7)3-6(4-12)17-5-18(14,15)16/h1-2,6,12H,3-5H2,(H2,9,10,13)(H2,14,15,16)/t6-/m0/s1",
        "InChIKey": null,
        "Canonical SMILES": "O=C1N=C(N)C=CN1CC(OCP(=O)(O)O)CO",
        "Molecular Formula": "C<sub>8</sub>H<sub>14</sub>N<sub>3</sub>O<sub>6</sub>P",
        "Molecular Mass": "279.19",
        "Melting Point": "260 °C (decomp)"
    }
}