{
    "cas_no": "6704-31-0",
    "key_name": "3-Oxetanone",
    "cn_name": "3-氧杂环丁酮;1,3-环氧-2-丙酮;",
    "alternate_name": "3-Oxetanone;2-Propanone, 1,3-epoxy-;Oxetan-3-one",
    "duplicated_cas_no": "",
    "SMILES": "O=C1COC1",
    "meta_data": {
        "InChI": "InChI=1S/C3H4O2/c4-3-1-5-2-3/h1-2H2",
        "InChIKey": null,
        "Canonical SMILES": "O=C1COC1",
        "Molecular Formula": "C<sub>3</sub>H<sub>4</sub>O<sub>2</sub>",
        "Molecular Mass": "72.06",
        "Boiling Point": "58-60 °C @ Press: 150 Torr"
    }
}