{
    "cas_no": "556-02-5",
    "key_name": "<span class=\"text-smallcaps\">D</span>-Tyrosine",
    "cn_name": "D-酪氨酸;3-(4-羟基苯基)-D-丙氨酸;",
    "alternate_name": "<span class=\"text-smallcaps\">D</span>-Tyrosine;Tyrosine, <span class=\"text-smallcaps\">D</span>-;<span class=\"text-smallcaps\">D</span>-<em>p</em>-Tyrosine;(<em>R</em>)-Tyrosine;(2R)-2-Amino-3-(4-hydroxyphenyl)propanoic acid;H-<span class=\"text-smallcaps\">D</span>-Tyr-OH;<em>D</em>-Tyr-OH;3-(4-Hydroxyphenyl)-<span class=\"text-smallcaps\">D</span>-alanine;<span class=\"text-smallcaps\">D</span>-4-Hydroxyphenylalanine;(2R)-2-Azaniumyl-3-(4-hydroxyphenyl)propanoate;(R)-2-Amino-3-(4-hydroxyphenyl)propanoic acid",
    "duplicated_cas_no": "",
    "SMILES": "C([C@H](C(O)=O)N)C1=CC=C(O)C=C1",
    "meta_data": {
        "InChI": "InChI=1S/C9H11NO3/c10-8(9(12)13)5-6-1-3-7(11)4-2-6/h1-4,8,11H,5,10H2,(H,12,13)/t8-/m1/s1",
        "InChIKey": null,
        "Canonical SMILES": "O=C(O)C(N)CC1=CC=C(O)C=C1",
        "Molecular Formula": "C<sub>9</sub>H<sub>11</sub>NO<sub>3</sub>",
        "Molecular Mass": "181.19",
        "Melting Point": "294-300 °C (decomp)"
    }
}