{
    "cas_no": "15262-86-9",
    "key_name": "Testosterone isocaproate",
    "cn_name": null,
    "alternate_name": "Androst-4-en-3-one, 17-[(4-methyl-1-oxopentyl)oxy]-, (17β)-;Testosterone, 4-methylvalerate;Valeric acid, 4-methyl-, ester with testosterone;(17β)-17-[(4-Methyl-1-oxopentyl)oxy]androst-4-en-3-one;Testosterone isocaproate;Testosterone 4-methylpentanoate;3-Oxoandrost-4-en-17β-yl isocaproate;Testosterone 17-isocaproate;NSC 26641;4-Androstene-17β-ol-3-one isocaproate",
    "duplicated_cas_no": "",
    "SMILES": "C[C@@]12[C@@]3([C@]([C@]4([C@](C)(CC3)[C@@H](OC(CCC(C)C)=O)CC4)[H])(CCC1=CC(=O)CC2)[H])[H]",
    "meta_data": {
        "InChI": "InChI=1S/C25H38O3/c1-16(2)5-10-23(27)28-22-9-8-20-19-7-6-17-15-18(26)11-13-24(17,3)21(19)12-14-25(20,22)4/h15-16,19-22H,5-14H2,1-4H3/t19-,20-,21-,22-,24-,25-/m0/s1",
        "InChIKey": null,
        "Canonical SMILES": "O=C(OC1CCC2C3CCC4=CC(=O)CCC4(C)C3CCC12C)CCC(C)C",
        "Molecular Formula": "C<sub>25</sub>H<sub>38</sub>O<sub>3</sub>",
        "Molecular Mass": "386.57",
        "Melting Point": "79-80 °C"
    }
}