{
    "cas_no": "67442-07-3",
    "key_name": "2-Chloro-<em>N</em>-methoxy-<em>N</em>-methylacetamide",
    "cn_name": null,
    "alternate_name": "Acetamide, 2-chloro-<em>N</em>-methoxy-<em>N</em>-methyl-;2-Chloro-<em>N</em>-methoxy-<em>N</em>-methylacetamide;<em>N</em>-Methoxy-<em>N</em>-methylchloroacetamide;α-Chloro-<em>N</em>-methoxy-<em>N</em>-methylacetamide;<em>N</em>-Methyl-<em>N</em>-methoxy-2-chloroacetamide",
    "duplicated_cas_no": "",
    "SMILES": "C(N(OC)C)(CCl)=O",
    "meta_data": {
        "InChI": "InChI=1S/C4H8ClNO2/c1-6(8-2)4(7)3-5/h3H2,1-2H3",
        "InChIKey": null,
        "Canonical SMILES": "O=C(N(OC)C)CCl",
        "Molecular Formula": "C<sub>4</sub>H<sub>8</sub>ClNO<sub>2</sub>",
        "Molecular Mass": "137.56",
        "Boiling Point": "85 °C @ Press: 6 mmHg",
        "Melting Point": "38.1-39.0 °C"
    }
}