{
    "cas_no": "303-04-8",
    "key_name": "2,3-Dichloro-1,1,1,4,4,4-hexafluoro-2-butene",
    "cn_name": "2,3-二氯六氟-2-丁烯;六氟-2,3-二氯-2-丁烯;",
    "alternate_name": "2-Butene, 2,3-dichloro-1,1,1,4,4,4-hexafluoro-;2-Butene, 2,3-dichlorohexafluoro-;2,3-Dichloro-1,1,1,4,4,4-hexafluoro-2-butene;2,3-Dichlorohexafluoro-2-butene;1,1,1,4,4,4-Hexafluoro-2,3-dichloro-2-butene;CFC 1316;CFC 1316mxx;1,1,1,4,4,4-Hexafluoro-2,3-dichlorobutene;R 1316",
    "duplicated_cas_no": "",
    "SMILES": "C(=C(C(F)(F)F)Cl)(C(F)(F)F)Cl",
    "meta_data": {
        "InChI": "InChI=1S/C4Cl2F6/c5-1(3(7,8)9)2(6)4(10,11)12",
        "InChIKey": null,
        "Canonical SMILES": "FC(F)(F)C(Cl)=C(Cl)C(F)(F)F",
        "Molecular Formula": "C<sub>4</sub>Cl<sub>2</sub>F<sub>6</sub>",
        "Molecular Mass": "232.94",
        "Boiling Point": "68.5 °C",
        "Melting Point": "-67.3 °C"
    }
}