{
    "cas_no": "76824-35-6",
    "key_name": "Famotidine",
    "cn_name": null,
    "alternate_name": "Propanimidamide, 3-[[[2-[(aminoiminomethyl)amino]-4-thiazolyl]methyl]thio]-<em>N</em>-(aminosulfonyl)-;3-[[[2-[(Aminoiminomethyl)amino]-4-thiazolyl]methyl]thio]-<em>N</em>-(aminosulfonyl)propanimidamide;YM 11170;3-[(2-Diaminomethyleneaminothiazol-4-yl)methylthio]-<em>N</em>-sulfamoylpropionamidine;Famotidine;MK 208;<em>N</em>-(Aminosulfonyl)-3-[[[2-[(diaminomethylene)amino]-4-thiazolyl]methyl]thio]propanimidamide;Gaster;Gastridin;Ulfinol;Motiax;Ulcetrax;Ganor;Ulfamid;Famodil;Famoxal;Nulcerin;Amfamox;Pepcidina;Pepcidine;Dispromil;Lecedil;Pepcid;Pepdine;Fanosin;Fibonel;Famosan;Peptan;Gastropen;Muclox;Pepcid PM;Pepdul;Ifada;Famodine;Pepcid AC;Pepdul mite;Ganor mite;Nevofam;Famogast;Fadine;Ulcatif;Famopsin;Sedanium R;Apogastine;H 2 Bloc;Supertidine;Tamin;Famodar;Famox;Quamatel;Digervin;FamoABZ;Quamtel;Ulped;Ulcedine;Ulcidine;Fuweidin;Mosul;Ulceran;Apo-Famotidine;Purifam;Famo;Logos;Peptifam;Fenox;Famonerton;Famos;Gastro;Durater;Panalba;Famodin;Gastrodomina;Restadin;Pepfamin;Dispronil;Ulfagel;Weimok;Pepcidin;Fudone;Fagastine;Famowal;Famotin;Famotal;Gastrion;Fanox;Topcid;Ulped AR;Ulcofam;Fadin;Bestidine;Pepzan;Kemofam;Brolin;Famotep;Pepdif;Ulfam;Dibrit 40;Rogasti;Pepcidin Rapitab;Agufam;Antodine;Famogard;Facid;Farmotex;Fadyn;Cepal;Famocid;Famostagine-D;Servipep;Peptec;Famolta;Famoser;Mabo;3-[[2-(Diaminomethylideneamino)-1,3-thiazol-4-yl]methylsulfanyl]-<em>N</em>′-sulfamoylpropanimidamide;3-[([2-[(Diaminomethylidene)amino]-1,3-thiazol-4-yl]methyl)sulfanyl]-<em>N</em>-sulfamoylpropanimidamide;MeSH ID: D015738",
    "duplicated_cas_no": "214692-67-8",
    "SMILES": "N(C(=N)N)C1=NC(CSCCC(NS(N)(=O)=O)=N)=CS1",
    "meta_data": {
        "InChI": "InChI=1S/C8H15N7O2S3/c9-6(15-20(12,16)17)1-2-18-3-5-4-19-8(13-5)14-7(10)11/h4H,1-3H2,(H2,9,15)(H2,12,16,17)(H4,10,11,13,14)",
        "InChIKey": null,
        "Canonical SMILES": "O=S(=O)(N)NC(=N)CCSCC=1N=C(SC1)NC(=N)N",
        "Molecular Formula": "C<sub>8</sub>H<sub>15</sub>N<sub>7</sub>O<sub>2</sub>S<sub>3</sub>",
        "Molecular Mass": "337.45",
        "Melting Point": "163-164 °C"
    }
}