{
    "cas_no": "52601-70-4",
    "key_name": "8-Methyl-1,2,3,4-tetrahydroquinoline",
    "cn_name": "8-甲基-1,2,3,4-四氢喹啉;",
    "alternate_name": "Quinoline, 1,2,3,4-tetrahydro-8-methyl-;1,2,3,4-Tetrahydro-8-methylquinoline;8-Methyl-1,2,3,4-tetrahydroquinoline",
    "duplicated_cas_no": "",
    "SMILES": "CC1=C2C(=CC=C1)CCCN2",
    "meta_data": {
        "InChI": "InChI=1S/C10H13N/c1-8-4-2-5-9-6-3-7-11-10(8)9/h2,4-5,11H,3,6-7H2,1H3",
        "InChIKey": null,
        "Canonical SMILES": "C=1C=C(C=2NCCCC2C1)C",
        "Molecular Formula": "C<sub>10</sub>H<sub>13</sub>N",
        "Molecular Mass": "147.22",
        "Boiling Point": "97-98 °C @ Press: 3 Torr"
    }
}