{
    "cas_no": "62-44-2",
    "key_name": "Phenacetin",
    "cn_name": "非那西丁;对乙酰氨基苯乙醚;",
    "alternate_name": "Acetamide, <em>N</em>-(4-ethoxyphenyl)-;<em>p</em>-Acetophenetidide;<em>N</em>-(4-Ethoxyphenyl)acetamide;Acetophenetidin;Acetophenetin;<em>N</em>-Acetyl-<em>p</em>-phenetidine;<em>p</em>-Ethoxyacetanilide;Aceto-4-phenetidine;Phenacetin;Phenacetine;4-Ethoxyacetanilide;Acetophenetidine;4′-Ethoxyacetanilide;Fenidina;Fenina;Kalmin;Pertonal;Phenazetin;Phenedina;Phenidin;Phenin;<em>N</em>-Acetyl-<em>p</em>-ethoxyaniline;<em>N</em>-Acetyl-4-ethoxyaniline;4-(Acetylamino)phenetole;Acetphenetidin;NSC 7651;4-Ethoxy-1-acetylaminobenzene;Acetparaphenetidine;MeSH ID: D010615",
    "duplicated_cas_no": "",
    "SMILES": "N(C(C)=O)C1=CC=C(OCC)C=C1",
    "meta_data": {
        "InChI": "InChI=1S/C10H13NO2/c1-3-13-10-6-4-9(5-7-10)11-8(2)12/h4-7H,3H2,1-2H3,(H,11,12)",
        "InChIKey": null,
        "Canonical SMILES": "O=C(NC1=CC=C(OCC)C=C1)C",
        "Molecular Formula": "C<sub>10</sub>H<sub>13</sub>NO<sub>2</sub>",
        "Molecular Mass": "179.22",
        "Melting Point": "134-135 °C",
        "Density": "1.21 g/cm³"
    }
}