{
    "cas_no": "30766-12-2",
    "key_name": "2-Pyridinecarboxylic acid, 5-hydroxy-, methyl ester",
    "cn_name": null,
    "alternate_name": "2-Pyridinecarboxylic acid, 5-hydroxy-, methyl ester;Picolinic acid, 5-hydroxy-, methyl ester;Methyl 5-hydroxy-2-pyridinecarboxylate;5-Hydroxy-2-pyridinecarboxylic acid methyl ester;6-Methoxycarbonylpyridin-3-ol;Methyl 5-hydroxypicolinate;5-Hydroxypicolinic acid methyl ester",
    "duplicated_cas_no": "",
    "SMILES": "C(OC)(=O)C1=CC=C(O)C=N1",
    "meta_data": {
        "InChI": "InChI=1S/C7H7NO3/c1-11-7(10)6-3-2-5(9)4-8-6/h2-4,9H,1H3",
        "InChIKey": null,
        "Canonical SMILES": "O=C(OC)C1=NC=C(O)C=C1",
        "Molecular Formula": "C<sub>7</sub>H<sub>7</sub>NO<sub>3</sub>",
        "Molecular Mass": "153.14",
        "Melting Point": "71.5-73.0 °C"
    }
}