{
    "cas_no": "6638-60-4",
    "key_name": "2-Amino-7-bromofluorene",
    "cn_name": "2-氨基-7-溴芴;",
    "alternate_name": "9<em>H</em>-Fluoren-2-amine, 7-bromo-;Fluoren-2-amine, 7-bromo-;7-Bromo-9<em>H</em>-fluoren-2-amine;2-Amino-7-bromofluorene;2-Bromo-7-aminofluorene;NSC 48265;7-Bromo-9<em>H</em>-fluoren-2-ylamine",
    "duplicated_cas_no": "",
    "SMILES": "BrC=1C=C2C(C=3C(C2)=CC(N)=CC3)=CC1",
    "meta_data": {
        "InChI": "InChI=1S/C13H10BrN/c14-10-1-3-12-8(6-10)5-9-7-11(15)2-4-13(9)12/h1-4,6-7H,5,15H2",
        "InChIKey": null,
        "Canonical SMILES": "BrC=1C=CC=2C3=CC=C(N)C=C3CC2C1",
        "Molecular Formula": "C<sub>13</sub>H<sub>10</sub>BrN",
        "Molecular Mass": "260.13",
        "Melting Point": "146 °C"
    }
}