{
    "cas_no": "26259-45-0",
    "key_name": "Secbumeton",
    "cn_name": "仲丁通;仲丁通;密草通;",
    "alternate_name": "1,3,5-Triazine-2,4-diamine, <em>N</em><sup>2</sup>-ethyl-6-methoxy-<em>N</em><sup>4</sup>-(1-methylpropyl)-;<em>s</em>-Triazine, 2-(<em>sec</em>-butylamino)-4-(ethylamino)-6-methoxy-;1,3,5-Triazine-2,4-diamine, <em>N</em>-ethyl-6-methoxy-<em>N</em>′-(1-methylpropyl)-;<em>N</em><sup>2</sup>-Ethyl-6-methoxy-<em>N</em><sup>4</sup>-(1-methylpropyl)-1,3,5-triazine-2,4-diamine;2-Methoxy-4-ethylamino-6-<em>sec</em>-butylamino-<em>s</em>-triazine;Geigy GS 14254;2-(<em>sec</em>-Butylamino)-4-ethylamino-6-methoxy-<em>s</em>-triazine;Ezitan;GS 14254;2-Methoxy-4-ethylamino-6-<em>sec</em>-butylamino-1,3,5-triazine;Sumitol;Sumitol 80W;Secbumeton;Etazine;Etazin;<em>sec</em>-Bumeton;<em>sec</em>-Bumetone;2-<em>N</em>-(Butan-2-yl)-4-<em>N</em>-ethyl-6-methoxy-1,3,5-triazine-2,4-diamine",
    "duplicated_cas_no": "11096-33-6;38473-42-6",
    "SMILES": "N(C(CC)C)C=1N=C(NCC)N=C(OC)N1",
    "meta_data": {
        "InChI": "InChI=1S/C10H19N5O/c1-5-7(3)12-9-13-8(11-6-2)14-10(15-9)16-4/h7H,5-6H2,1-4H3,(H2,11,12,13,14,15)",
        "InChIKey": null,
        "Canonical SMILES": "N=1C(=NC(=NC1NCC)NC(C)CC)OC",
        "Molecular Formula": "C<sub>10</sub>H<sub>19</sub>N<sub>5</sub>O",
        "Molecular Mass": "225.29",
        "Melting Point": "87 °C"
    }
}