{
    "cas_no": "14159-61-6",
    "key_name": "3-(2-Methylpropyl)pyridine",
    "cn_name": "3-异丁基吡啶;",
    "alternate_name": "Pyridine, 3-(2-methylpropyl)-;Pyridine, 3-isobutyl-;3-(2-Methylpropyl)pyridine;3-Isobutylpyridine",
    "duplicated_cas_no": "",
    "SMILES": "C(C(C)C)C=1C=CC=NC1",
    "meta_data": {
        "InChI": "InChI=1S/C9H13N/c1-8(2)6-9-4-3-5-10-7-9/h3-5,7-8H,6H2,1-2H3",
        "InChIKey": null,
        "Canonical SMILES": "N=1C=CC=C(C1)CC(C)C",
        "Molecular Formula": "C<sub>9</sub>H<sub>13</sub>N",
        "Molecular Mass": "135.21",
        "Boiling Point": "85.5-87.5 °C @ Press: 19 Torr",
        "Melting Point": "113-114 °C"
    }
}