{
    "cas_no": "7697-27-0",
    "key_name": "2-Bromo-4-methylbenzoic acid",
    "cn_name": "2-溴-4-甲基苯甲酸;",
    "alternate_name": "Benzoic acid, 2-bromo-4-methyl-;<em>p</em>-Toluic acid, 2-bromo-;2-Bromo-4-methylbenzoic acid;NSC 16629",
    "duplicated_cas_no": "",
    "SMILES": "C(O)(=O)C1=C(Br)C=C(C)C=C1",
    "meta_data": {
        "InChI": "InChI=1S/C8H7BrO2/c1-5-2-3-6(8(10)11)7(9)4-5/h2-4H,1H3,(H,10,11)",
        "InChIKey": null,
        "Canonical SMILES": "O=C(O)C1=CC=C(C=C1Br)C",
        "Molecular Formula": "C<sub>8</sub>H<sub>7</sub>BrO<sub>2</sub>",
        "Molecular Mass": "215.04",
        "Melting Point": "141-142 °C"
    }
}