{
    "cas_no": "22026-39-7",
    "key_name": "1,3-Benzodioxole-5-carboxylic acid, hydrazide",
    "cn_name": "3,4-亚甲基二氧苄肼;3,4-亚甲二氧基苯酰肼;3,4-亚甲基二氧苯甲酰肼;",
    "alternate_name": "1,3-Benzodioxole-5-carboxylic acid, hydrazide;Piperonylic acid, hydrazide;3,4-(Methylenedioxy)benzohydrazide;3,4-Methylenedioxybenzhydrazide;2<em>H</em>-Benzo[<em>d</em>]-1,3-dioxolane-5-carbohydrazide;1,3-Benzodioxole-5-carbohydrazide;5-(Hydrazinocarbonyl)benzo[<em>d</em>][1,3]dioxole;Benzo[<em>d</em>][1,3]dioxole-5-carbohydrazide;1,3-Dioxaindane-5-carbohydrazide;2<em>H</em>-1,3-Benzodioxole-5-carbohydrazide",
    "duplicated_cas_no": "959698-03-4",
    "SMILES": "C(NN)(=O)C=1C=C2C(=CC1)OCO2",
    "meta_data": {
        "InChI": "InChI=1S/C8H8N2O3/c9-10-8(11)5-1-2-6-7(3-5)13-4-12-6/h1-3H,4,9H2,(H,10,11)",
        "InChIKey": null,
        "Canonical SMILES": "O=C(NN)C1=CC=C2OCOC2=C1",
        "Molecular Formula": "C<sub>8</sub>H<sub>8</sub>N<sub>2</sub>O<sub>3</sub>",
        "Molecular Mass": "180.16",
        "Melting Point": "175-176 °C"
    }
}