{
    "cas_no": "82097-50-5",
    "key_name": "Triasulfuron",
    "cn_name": null,
    "alternate_name": "Benzenesulfonamide, 2-(2-chloroethoxy)-<em>N</em>-[[(4-methoxy-6-methyl-1,3,5-triazin-2-yl)amino]carbonyl]-;2-(2-Chloroethoxy)-<em>N</em>-[[(4-methoxy-6-methyl-1,3,5-triazin-2-yl)amino]carbonyl]benzenesulfonamide;CGA 131036;Logran;Triasulfuron;Amber;Amber (insecticide)",
    "duplicated_cas_no": "135100-29-7",
    "SMILES": "S(NC(NC=1N=C(OC)N=C(C)N1)=O)(=O)(=O)C2=C(OCCCl)C=CC=C2",
    "meta_data": {
        "InChI": "InChI=1S/C14H16ClN5O5S/c1-9-16-12(19-14(17-9)24-2)18-13(21)20-26(22,23)11-6-4-3-5-10(11)25-8-7-15/h3-6H,7-8H2,1-2H3,(H2,16,17,18,19,20,21)",
        "InChIKey": null,
        "Canonical SMILES": "O=C(NC1=NC(=NC(=N1)C)OC)NS(=O)(=O)C=2C=CC=CC2OCCCl",
        "Molecular Formula": "C<sub>14</sub>H<sub>16</sub>ClN<sub>5</sub>O<sub>5</sub>S",
        "Molecular Mass": "401.83",
        "Boiling Point": "150-260 °C",
        "Melting Point": "186 °C",
        "Density": "1.05-1.10 g/cm³"
    }
}