{
    "cas_no": "66-98-8",
    "key_name": "[1,1′-Biphenyl]-4,4′-dicarboxaldehyde",
    "cn_name": "4,4\"-联苯二甲醛;",
    "alternate_name": "[1,1′-Biphenyl]-4,4′-dicarboxaldehyde;4,4′-Biphenyldicarboxaldehyde;Biphenyl-4,4′-dialdehyde;4,4′-Diformylbiphenyl;<em>p</em>,<em>p</em>′-Diformylbiphenyl;4,4′-Diformyl-1,1′-biphenyl;4,4′-Bisformylbiphenyl;4,4′-Diformyldiphenyl;4,4′-Biphenyl dicarboxyaldehyde;[1,1′-Biphenyl]-4,4′-dicarbaldehyde",
    "duplicated_cas_no": "106781-58-2",
    "SMILES": "C(=O)C1=CC=C(C=C1)C2=CC=C(C=O)C=C2",
    "meta_data": {
        "InChI": "InChI=1S/C14H10O2/c15-9-11-1-5-13(6-2-11)14-7-3-12(10-16)4-8-14/h1-10H",
        "InChIKey": null,
        "Canonical SMILES": "O=CC=1C=CC(=CC1)C2=CC=C(C=O)C=C2",
        "Molecular Formula": "C<sub>14</sub>H<sub>10</sub>O<sub>2</sub>",
        "Molecular Mass": "210.23",
        "Melting Point": "113.9-114.2 °C"
    }
}