{
    "cas_no": "1520-27-0",
    "key_name": "<em>N</em>-(4-Hydroxyphenyl)thiourea",
    "cn_name": null,
    "alternate_name": "Thiourea, <em>N</em>-(4-hydroxyphenyl)-;Urea, 1-(<em>p</em>-hydroxyphenyl)-2-thio-;Thiourea, (4-hydroxyphenyl)-;<em>N</em>-(4-Hydroxyphenyl)thiourea;<em>p</em>-Hydroxyphenylthiourea;4-Hydroxyphenylthiourea;4-Thioureidophenol;NSC 43638;1-(4-Hydroxyphenyl)thiourea;1-(4-Hydroxyphenyl)-2-thiourea",
    "duplicated_cas_no": "",
    "SMILES": "N(C(N)=S)C1=CC=C(O)C=C1",
    "meta_data": {
        "InChI": "InChI=1S/C7H8N2OS/c8-7(11)9-5-1-3-6(10)4-2-5/h1-4,10H,(H3,8,9,11)",
        "InChIKey": null,
        "Canonical SMILES": "S=C(N)NC1=CC=C(O)C=C1",
        "Molecular Formula": "C<sub>7</sub>H<sub>8</sub>N<sub>2</sub>OS",
        "Molecular Mass": "168.22",
        "Melting Point": "214 °C"
    }
}