{
    "cas_no": "55947-46-1",
    "key_name": "2-Propyne-1-sulfonic acid, sodium salt (1:1)",
    "cn_name": "炔丙基磺酸钠;PS;",
    "alternate_name": "2-Propyne-1-sulfonic acid, sodium salt (1:1);2-Propyne-1-sulfonic acid, sodium salt;Sodium 2-propyne-1-sulfonate;Sodium propargylsulfonate;Sodium propynesulfonate",
    "duplicated_cas_no": "",
    "SMILES": "C(S(=O)(=O)O)C#C.[Na]",
    "meta_data": {
        "InChI": "InChI=1S/C3H4O3S.Na/c1-2-3-7(4,5)6;/h1H,3H2,(H,4,5,6);",
        "InChIKey": null,
        "Canonical SMILES": "[Na].O=S(=O)(O)CC#C",
        "Molecular Formula": "C<sub>3</sub>H<sub>4</sub>O<sub>3</sub>S.Na",
        "Molecular Mass": "",
        "Melting Point": "220 °C (decomp)"
    }
}