{
    "cas_no": "6609-56-9",
    "key_name": "2-Methoxybenzonitrile",
    "cn_name": "2-甲氧基苯甲腈;邻甲氧基苯甲腈;邻甲氧基苯腈;2-甲氧基氰苯;",
    "alternate_name": "Benzonitrile, 2-methoxy-;<em>o</em>-Anisonitrile;2-Methoxybenzonitrile;<em>o</em>-Methoxybenzonitrile;<em>o</em>-Cyanoanisole;2-Cyanoanisole;2-(Methyloxy)benzonitrile",
    "duplicated_cas_no": "",
    "SMILES": "C(#N)C1=C(OC)C=CC=C1",
    "meta_data": {
        "InChI": "InChI=1S/C8H7NO/c1-10-8-5-3-2-4-7(8)6-9/h2-5H,1H3",
        "InChIKey": null,
        "Canonical SMILES": "N#CC=1C=CC=CC1OC",
        "Molecular Formula": "C<sub>8</sub>H<sub>7</sub>NO",
        "Molecular Mass": "133.15",
        "Boiling Point": "255.5 °C",
        "Melting Point": "24.5 °C",
        "Density": "1.107 g/cm³ @ Temp: 20 °C"
    }
}