{
    "cas_no": "35203-44-2",
    "key_name": "1-Propylimidazole",
    "cn_name": "1-丙基咪唑;",
    "alternate_name": "1<em>H</em>-Imidazole, 1-propyl-;Imidazole, 1-propyl-;1-Propyl-1<em>H</em>-imidazole;1-Propylimidazole;<em>N</em>-Propylimidazole",
    "duplicated_cas_no": "91491-09-7",
    "SMILES": "C(CC)N1C=CN=C1",
    "meta_data": {
        "InChI": "InChI=1S/C6H10N2/c1-2-4-8-5-3-7-6-8/h3,5-6H,2,4H2,1H3",
        "InChIKey": null,
        "Canonical SMILES": "N=1C=CN(C1)CCC",
        "Molecular Formula": "C<sub>6</sub>H<sub>10</sub>N<sub>2</sub>",
        "Molecular Mass": "110.16",
        "Boiling Point": "89-90 °C @ Press: 18 Torr"
    }
}