{
    "cas_no": "82413-20-5",
    "key_name": "Droloxifene",
    "cn_name": "屈洛昔芬;屈洛昔酚;3-[1-[4-(2-二甲基氨基乙氧基)苯基]-2-苯基丁-1-烯基]苯酚;",
    "alternate_name": "Phenol, 3-[(1<em>E</em>)-1-[4-[2-(dimethylamino)ethoxy]phenyl]-2-phenyl-1-buten-1-yl]-;Phenol, 3-[1-[4-[2-(dimethylamino)ethoxy]phenyl]-2-phenyl-1-butenyl]-, (<em>E</em>)-;Phenol, 3-[(1<em>E</em>)-1-[4-[2-(dimethylamino)ethoxy]phenyl]-2-phenyl-1-butenyl]-;3-[(1<em>E</em>)-1-[4-[2-(Dimethylamino)ethoxy]phenyl]-2-phenyl-1-buten-1-yl]phenol;K 060;K 21.060E;3-Hydroxytamoxifen;K 060E;Droloxifene;<em>E</em>-Droloxifene",
    "duplicated_cas_no": "887501-03-3",
    "SMILES": "C(=C(/CC)\\C1=CC=CC=C1)(\\C2=CC=C(OCCN(C)C)C=C2)/C3=CC(O)=CC=C3",
    "meta_data": {
        "InChI": "InChI=1S/C26H29NO2/c1-4-25(20-9-6-5-7-10-20)26(22-11-8-12-23(28)19-22)21-13-15-24(16-14-21)29-18-17-27(2)3/h5-16,19,28H,4,17-18H2,1-3H3/b26-25+",
        "InChIKey": null,
        "Canonical SMILES": "OC1=CC=CC(=C1)C(C2=CC=C(OCCN(C)C)C=C2)=C(C=3C=CC=CC3)CC",
        "Molecular Formula": "C<sub>26</sub>H<sub>29</sub>NO<sub>2</sub>",
        "Molecular Mass": "387.51",
        "Melting Point": "158-159 °C"
    }
}