{
    "cas_no": "2152-34-3",
    "key_name": "Pemoline",
    "cn_name": null,
    "alternate_name": "4(5<em>H</em>)-Oxazolone, 2-amino-5-phenyl-;2-Oxazolin-4-one, 2-amino-5-phenyl-;4-Oxazolidinone, 2-imino-5-phenyl-;2-Amino-5-phenyl-4(5<em>H</em>)-oxazolone;Azoxodone;2-Imino-5-phenyl-4-oxazolidinone;Kethamed;Okodon;Pemoline;5-Phenyl-2-imino-4-oxooxazolidine;Tradon;Tradone;Pemolin;Pondex;5-Phenyl-2-iminooxazolidin-4-one;2-Imino-4-oxo-5-phenyloxazolidine;2-Amino-5-phenyl-2-oxazolin-4-one;2-Imino-4-<em>keto</em>-5-phenyltetrahydrooxazole;Pheniminooxazolidinone;Phenoxazole;Phenylisohydantoin;Phenylpseudohydantoin;LA 956;Yh 1;PIO;Azoksodon;Dantromin;Azoxodon;Centramin;Deltamin;Stimul;Ronyl;Hyton;Sistra;Pioxol;Stimulol;Sigmadyn;NSC 25159;Hyton Asa;Nitan;Volital;Deltamine;Senior;NSC 169499;2-Amino-5-phenyl-1,3-oxazol-4(5<em>H</em>)-one;Fenoxazol;2-Amino-5-phenyl-4-oxazolone;MeSH ID: D010389",
    "duplicated_cas_no": "101053-01-4;2933-45-1",
    "SMILES": "O=C1C(OC(N)=N1)C2=CC=CC=C2",
    "meta_data": {
        "InChI": "InChI=1S/C9H8N2O2/c10-9-11-8(12)7(13-9)6-4-2-1-3-5-6/h1-5,7H,(H2,10,11,12)",
        "InChIKey": null,
        "Canonical SMILES": "O=C1N=C(OC1C=2C=CC=CC2)N",
        "Molecular Formula": "C<sub>9</sub>H<sub>8</sub>N<sub>2</sub>O<sub>2</sub>",
        "Molecular Mass": "176.17",
        "Melting Point": "256 °C (decomp)"
    }
}