{
    "cas_no": "78214-33-2",
    "key_name": "Ginsenoside Rh<sub>2</sub>",
    "cn_name": "人参皂甙Rh2;",
    "alternate_name": "β-<span class=\"text-smallcaps\">D</span>-Glucopyranoside, (3β,12β)-12,20-dihydroxydammar-24-en-3-yl;Dammarane, β-<span class=\"text-smallcaps\">D</span>-glucopyranoside deriv.;(3β,12β)-12,20-Dihydroxydammar-24-en-3-yl β-<span class=\"text-smallcaps\">D</span>-glucopyranoside;Ginsenoside Rh<sub>2</sub>;3-<em>O</em>-β-<span class=\"text-smallcaps\">D</span>-Glucopyranosyl-20(<em>S</em>)-protopanaxadiol;20(<em>S</em>)-Ginsenoside Rh<sub>2</sub>;20(<em>S</em>)-Rh2;Ginsenoside 20-Rh2;Ginsenoside rh2(<em>S</em>)",
    "duplicated_cas_no": "67400-18-4",
    "SMILES": "C[C@]12[C@@]3(C)[C@@]([C@@]([C@@](CCC=C(C)C)(C)O)(CC3)[H])([C@H](O)C[C@@]1([C@]4(C)[C@@](CC2)(C(C)(C)[C@@H](O[C@@H]5O[C@H](CO)[C@@H](O)[C@H](O)[C@H]5O)CC4)[H])[H])[H]",
    "meta_data": {
        "InChI": "InChI=1S/C36H62O8/c1-20(2)10-9-14-36(8,42)21-11-16-35(7)27(21)22(38)18-25-33(5)15-13-26(32(3,4)24(33)12-17-34(25,35)6)44-31-30(41)29(40)28(39)23(19-37)43-31/h10,21-31,37-42H,9,11-19H2,1-8H3/t21-,22+,23+,24-,25+,26-,27-,28+,29-,30+,31-,33-,34+,35+,36-/m0/s1",
        "InChIKey": null,
        "Canonical SMILES": "OCC1OC(OC2CCC3(C)C(CCC4(C)C3CC(O)C5C(CCC54C)C(O)(C)CCC=C(C)C)C2(C)C)C(O)C(O)C1O",
        "Molecular Formula": "C<sub>36</sub>H<sub>62</sub>O<sub>8</sub>",
        "Molecular Mass": "622.87",
        "Melting Point": "139-144 °C"
    }
}