{
    "cas_no": "16930-95-3",
    "key_name": "Ethyl 2-heptynoate",
    "cn_name": "2-庚炔酸乙酯;",
    "alternate_name": "2-Heptynoic acid, ethyl ester;Ethyl 2-heptynoate;ENT 33391;NSC 190963",
    "duplicated_cas_no": "",
    "SMILES": "C(C#CCCCC)(OCC)=O",
    "meta_data": {
        "InChI": "InChI=1S/C9H14O2/c1-3-5-6-7-8-9(10)11-4-2/h3-6H2,1-2H3",
        "InChIKey": null,
        "Canonical SMILES": "O=C(C#CCCCC)OCC",
        "Molecular Formula": "C<sub>9</sub>H<sub>14</sub>O<sub>2</sub>",
        "Molecular Mass": "154.21",
        "Boiling Point": "193 °C @ Press: 760 Torr"
    }
}