{
    "cas_no": "14489-75-9",
    "key_name": "<em>N</em>-Methyl-1-naphthalenemethanamine",
    "cn_name": "N-甲基-1-萘甲氨;",
    "alternate_name": "1-Naphthalenemethanamine, <em>N</em>-methyl-;1-Naphthalenemethylamine, <em>N</em>-methyl-;<em>N</em>-Methyl-1-naphthalenemethanamine;<em>N</em>-Methyl-1-naphthylmethylamine;<em>N</em>-Methyl-1-naphthalenemethylamine;1-Methylaminomethylnaphthalene;NSC 129392;Methyl(naphthalen-1-ylmethyl)amine;[(Naphthalen-1-yl)methyl]methylamine;<em>N</em>-Methyl-<em>N</em>-[(1-naphthyl)methyl]amine;<em>N</em>-(Naphthalen-1-yl-methyl)-<em>N</em>-methylamine;<em>N</em>-Methyl-<em>N</em>-[(naphthalen-1-yl)methyl]amine;Methyl(1-naphthylmethyl)amine;<em>N</em>-(1-Naphthylmethyl)methylamine;<em>N</em>-Methyl-<em>N</em>-naphthylmethylamine",
    "duplicated_cas_no": "130282-38-1;130282-37-0",
    "SMILES": "C(NC)C=1C2=C(C=CC1)C=CC=C2",
    "meta_data": {
        "InChI": "InChI=1S/C12H13N/c1-13-9-11-7-4-6-10-5-2-3-8-12(10)11/h2-8,13H,9H2,1H3",
        "InChIKey": null,
        "Canonical SMILES": "C=1C=CC2=C(C1)C=CC=C2CNC",
        "Molecular Formula": "C<sub>12</sub>H<sub>13</sub>N",
        "Molecular Mass": "171.24",
        "Boiling Point": "115-120 °C @ Press: 1 Torr",
        "Melting Point": "189.5-190 °C"
    }
}