{
    "cas_no": "55779-18-5",
    "key_name": "Arprinocid",
    "cn_name": "尔扑利诺;氟嘌呤;9-[(2-氯-6-氟苯基)甲基]-9H-嘌呤-6-胺;",
    "alternate_name": "9<em>H</em>-Purin-6-amine, 9-[(2-chloro-6-fluorophenyl)methyl]-;9-[(2-Chloro-6-fluorophenyl)methyl]-9<em>H</em>-purin-6-amine;6-Amino-9-(2-chloro-6-fluorobenzyl)purine;Arprinocid;MK 302;Arpocox",
    "duplicated_cas_no": "",
    "SMILES": "C(N1C=2C(N=C1)=C(N)N=CN2)C3=C(Cl)C=CC=C3F",
    "meta_data": {
        "InChI": "InChI=1S/C12H9ClFN5/c13-8-2-1-3-9(14)7(8)4-19-6-18-10-11(15)16-5-17-12(10)19/h1-3,5-6H,4H2,(H2,15,16,17)",
        "InChIKey": null,
        "Canonical SMILES": "FC1=CC=CC(Cl)=C1CN2C=NC=3C(=NC=NC32)N",
        "Molecular Formula": "C<sub>12</sub>H<sub>9</sub>ClFN<sub>5</sub>",
        "Molecular Mass": "277.68",
        "Melting Point": "245-246 °C",
        "Density": "1.568 g/cm³"
    }
}