{
    "cas_no": "204255-06-1",
    "key_name": "Ethyl (3R,4R,5S)-4-acetamido-5-azido-3-(1-ethylpropoxy)-1-cyclohexene-1-carboxylate",
    "cn_name": null,
    "alternate_name": "1-Cyclohexene-1-carboxylic acid, 4-(acetylamino)-5-azido-3-(1-ethylpropoxy)-, ethyl ester, (3<em>R</em>,4<em>R</em>,5<em>S</em>)-;1-Cyclohexene-1-carboxylic acid, 4-(acetylamino)-5-azido-3-(1-ethylpropoxy)-, ethyl ester, [3<em>R</em>-(3α,4β,5α)]-;Ethyl (3R,4R,5S)-4-acetamido-5-azido-3-(1-ethylpropoxy)-1-cyclohexene-1-carboxylate",
    "duplicated_cas_no": "",
    "SMILES": "O(C(CC)CC)[C@H]1[C@H](NC(C)=O)[C@@H](N=[N+]=[N-])CC(C(OCC)=O)=C1",
    "meta_data": {
        "InChI": "InChI=1S/C16H26N4O4/c1-5-12(6-2)24-14-9-11(16(22)23-7-3)8-13(19-20-17)15(14)18-10(4)21/h9,12-15H,5-8H2,1-4H3,(H,18,21)/t13-,14+,15+/m0/s1",
        "InChIKey": null,
        "Canonical SMILES": "[N-]=[N+]=NC1CC(=CC(OC(CC)CC)C1NC(=O)C)C(=O)OCC",
        "Molecular Formula": "C<sub>16</sub>H<sub>26</sub>N<sub>4</sub>O<sub>4</sub>",
        "Molecular Mass": "",
        "Melting Point": "121-123 °C"
    }
}