{
    "cas_no": "53016-31-2",
    "key_name": "Norelgestromin",
    "cn_name": "甲基孕酮;甲基孕酮;",
    "alternate_name": "18,19-Dinorpregn-4-en-20-yn-3-one, 13-ethyl-17-hydroxy-, oxime, (17α)-;<span class=\"text-smallcaps\">D</span>-Norgestrel 3-oxime;18-Methylnorethindrone oxime;17-Deacetylnorgestimate;Levonorgestrel 3-oxime;Norplant 3-oxime;Norelgestromin;RWJ 10553;BRN 4202099;Levonorgestrel oxime;<em>d</em>-(17α)-13-Ethyl-17-hydroxy-18,19-dinorpregn-4-en-20-yn-3-one oxime;17-Deacylnorgestimate",
    "duplicated_cas_no": "",
    "SMILES": "C(C)[C@@]12[C@]([C@]3([C@](CC1)([C@@]4(C(CC3)=CC(=NO)CC4)[H])[H])[H])(CC[C@]2(C#C)O)[H]",
    "meta_data": {
        "InChI": "InChI=1S/C21H29NO2/c1-3-20-11-9-17-16-8-6-15(22-24)13-14(16)5-7-18(17)19(20)10-12-21(20,23)4-2/h2,13,16-19,23-24H,3,5-12H2,1H3/t16-,17+,18+,19-,20-,21-/m0/s1",
        "InChIKey": null,
        "Canonical SMILES": "C#CC1(O)CCC2C3CCC4=CC(=NO)CCC4C3CCC21CC",
        "Molecular Formula": "C<sub>21</sub>H<sub>29</sub>NO<sub>2</sub>",
        "Molecular Mass": "327.46",
        "Melting Point": "110-130 °C"
    }
}