{
    "cas_no": "2370-88-9",
    "key_name": "1,3,5,7-Tetramethylcyclotetrasiloxane",
    "cn_name": "2,4,6,8-四甲基环四硅氧烷;",
    "alternate_name": "Cyclotetrasiloxane, 2,4,6,8-tetramethyl-;2,4,6,8-Tetramethylcyclotetrasiloxane;Tetramethylcyclotetrasiloxane;1,3,5,7-Tetramethylcyclotetrasiloxane;LS 8600;KF 9902;Hydrosilox;SIT 7530.0;1,3,5,7-Tetrahydrogen-1,3,5,7-tetramethylcyclotetrasiloxane;1,3,5,7-Cyclotetra(methylsiloxane);D 4H;D<sub>4</sub>H;2,4,6,8-Tetramethyl-1,3,5,7,2,4,6,8-tetraoxatetrasilocane;LA 6N;SI 1631",
    "duplicated_cas_no": "121904-05-0",
    "SMILES": "C[SiH]1O[SiH](C)O[SiH](C)O[SiH](C)O1",
    "meta_data": {
        "InChI": "InChI=1S/C4H16O4Si4/c1-9-5-10(2)7-12(4)8-11(3)6-9/h9-12H,1-4H3",
        "InChIKey": null,
        "Canonical SMILES": "O1[SiH](O[SiH](O[SiH](O[SiH]1C)C)C)C",
        "Molecular Formula": "C<sub>4</sub>H<sub>16</sub>O<sub>4</sub>Si<sub>4</sub>",
        "Molecular Mass": "240.51",
        "Boiling Point": "134.5 °C",
        "Melting Point": "-65 °C",
        "Density": "0.991 g/cm³"
    }
}