{
    "cas_no": "40392-27-6",
    "key_name": "5-Nitro-2-phenyl-1<em>H</em>-isoindole-1,3(2<em>H</em>)-dione",
    "cn_name": null,
    "alternate_name": "1<em>H</em>-Isoindole-1,3(2<em>H</em>)-dione, 5-nitro-2-phenyl-;Phthalimide, 4-nitro-<em>N</em>-phenyl-;5-Nitro-2-phenyl-1<em>H</em>-isoindole-1,3(2<em>H</em>)-dione;<em>N</em>-Phenyl-4-nitrophthalimide;4-Nitro-<em>N</em>-phenylphthalimide;5-Nitro-2-phenylisoindole-1,3-dione",
    "duplicated_cas_no": "",
    "SMILES": "O=C1C=2C(C(=O)N1C3=CC=CC=C3)=CC=C(N(=O)=O)C2",
    "meta_data": {
        "InChI": "InChI=1S/C14H8N2O4/c17-13-11-7-6-10(16(19)20)8-12(11)14(18)15(13)9-4-2-1-3-5-9/h1-8H",
        "InChIKey": null,
        "Canonical SMILES": "O=C1C2=CC=C(C=C2C(=O)N1C=3C=CC=CC3)N(=O)=O",
        "Molecular Formula": "C<sub>14</sub>H<sub>8</sub>N<sub>2</sub>O<sub>4</sub>",
        "Molecular Mass": "268.22",
        "Melting Point": "189 °C"
    }
}