{
    "cas_no": "844-51-9",
    "key_name": "2,5-Diphenyl-2,5-cyclohexadiene-1,4-dione",
    "cn_name": "2,5-二苯基-1,4-苯醌;2,5-二苯基对苯醌;",
    "alternate_name": "2,5-Cyclohexadiene-1,4-dione, 2,5-diphenyl-;<em>p</em>-Benzoquinone, 2,5-diphenyl-;Quinone, 2,5-diphenyl-;2,5-Diphenyl-2,5-cyclohexadiene-1,4-dione;2,5-Diphenyl-<em>p</em>-benzoquinone;2,5-Diphenyl-1,4-benzoquinone;Stearer DPQ;NSC 8725",
    "duplicated_cas_no": "",
    "SMILES": "O=C1C(=CC(=O)C(=C1)C2=CC=CC=C2)C3=CC=CC=C3",
    "meta_data": {
        "InChI": "InChI=1S/C18H12O2/c19-17-12-16(14-9-5-2-6-10-14)18(20)11-15(17)13-7-3-1-4-8-13/h1-12H",
        "InChIKey": null,
        "Canonical SMILES": "O=C1C=C(C(=O)C=C1C=2C=CC=CC2)C=3C=CC=CC3",
        "Molecular Formula": "C<sub>18</sub>H<sub>12</sub>O<sub>2</sub>",
        "Molecular Mass": "260.29",
        "Melting Point": "214 °C"
    }
}