{
    "cas_no": "393-09-9",
    "key_name": "4-Fluoro-1-nitro-2-(trifluoromethyl)benzene",
    "cn_name": "5-氟-2-硝基三氟甲苯;2-硝基-5-氟三氟甲苯;",
    "alternate_name": "Benzene, 4-fluoro-1-nitro-2-(trifluoromethyl)-;Toluene, α,α,α,5-tetrafluoro-2-nitro-;4-Fluoro-1-nitro-2-(trifluoromethyl)benzene;5-Fluoro-2-nitrobenzotrifluoride;5-Fluoro-2-nitro(trifluoromethyl)benzene;NSC 10304;4-Fluoro-6-(trifluoromethyl)nitrobenzene;4-Fluoro-2-(trifluoromethyl)nitrobenzene;1-Fluoro-3-trifluoromethyl-4-nitrobenzene;4-Nitro-3-(trifluoromethyl)fluorobenzene;5-Fluoro-2-nitro-1-trifluoromethylbenzene",
    "duplicated_cas_no": "",
    "SMILES": "C(F)(F)(F)C1=C(N(=O)=O)C=CC(F)=C1",
    "meta_data": {
        "InChI": "InChI=1S/C7H3F4NO2/c8-4-1-2-6(12(13)14)5(3-4)7(9,10)11/h1-3H",
        "InChIKey": null,
        "Canonical SMILES": "O=N(=O)C1=CC=C(F)C=C1C(F)(F)F",
        "Molecular Formula": "C<sub>7</sub>H<sub>3</sub>F<sub>4</sub>NO<sub>2</sub>",
        "Molecular Mass": "209.10",
        "Boiling Point": "88 °C @ Press: 12 Torr"
    }
}