{
    "cas_no": "50-50-0",
    "key_name": "Estradiol benzoate",
    "cn_name": "苯甲酸雌二醇;3-羟基雌甾-1,3,5(10)-三烯-17b-醇-3-苯甲酸酯;",
    "alternate_name": "Estra-1,3,5(10)-triene-3,17-diol (17β)-, 3-benzoate;Estradiol, 3-benzoate;Benovocylin;Benzhormovarine;Benzoestrofol;Benzofoline;Benzo-Gynoestryl;De Graafina;Diffollisterol;Difolliculine;Dimenformon benzoate;Diogyn B;Eston B;1,3,5(10)-Estratriene-3,17β-diol 3-benzoate;Femestrone;Graafina;Gynecormone;Hidroestron;Hormogynon;Oestroform [BDH];Ovasterol B;Ovocyclin M;Ovocyclin Benzoate;Ovocyclin MB;Primogyn B;Progynon B;Progynon benzoate;Recthormone Oestradiol;Unistradiol;Solestro;17β-Estradiol 3-benzoate;β-Estradiol 3-benzoate;Estradiol benzoate;Estradiol monobenzoate;β-Estradiol benzoate;3-Benzoyloxy-17β-hydroxyestra-1,3,5(10)-triene;Gynformone;Ovahormon benzoate;Primogyn B oleosum;17β-Estradiol benzoate;Folone;Agofollin Depot;Agofollin;Benztrone;Pelanin benzoate;NSC 9566;Cidirol;Estrogin;Mesalin;Ric-BE;Gonadiol;SY Esrone;Difolliculin;Oestradiol benzoate",
    "duplicated_cas_no": "1713228-24-0",
    "SMILES": "C[C@@]12[C@]([C@]3([C@@](C=4C(CC3)=CC(OC(=O)C5=CC=CC=C5)=CC4)(CC1)[H])[H])(CC[C@@H]2O)[H]",
    "meta_data": {
        "InChI": "InChI=1S/C25H28O3/c1-25-14-13-20-19-10-8-18(28-24(27)16-5-3-2-4-6-16)15-17(19)7-9-21(20)22(25)11-12-23(25)26/h2-6,8,10,15,20-23,26H,7,9,11-14H2,1H3/t20-,21-,22+,23+,25+/m1/s1",
        "InChIKey": null,
        "Canonical SMILES": "O=C(OC1=CC=C2C(=C1)CCC3C2CCC4(C)C(O)CCC34)C=5C=CC=CC5",
        "Molecular Formula": "C<sub>25</sub>H<sub>28</sub>O<sub>3</sub>",
        "Molecular Mass": "376.49",
        "Melting Point": "196 °C"
    }
}