{
    "cas_no": "62893-19-0",
    "key_name": "Cefoperazone",
    "cn_name": "头孢哌酮;头孢哌酮酸;(6R,7R)-3-[[(1-甲基-1H-四唑-5-基)硫]甲基]-7-[(R)-2-(4-乙基-2,3-二氧代-1-哌嗪甲酰;",
    "alternate_name": "5-Thia-1-azabicyclo[4.2.0]oct-2-ene-2-carboxylic acid, 7-[[(2<em>R</em>)-2-[[(4-ethyl-2,3-dioxo-1-piperazinyl)carbonyl]amino]-2-(4-hydroxyphenyl)acetyl]amino]-3-[[(1-methyl-1<em>H</em>-tetrazol-5-yl)thio]methyl]-8-oxo-, (6<em>R</em>,7<em>R</em>)-;5-Thia-1-azabicyclo[4.2.0]oct-2-ene-2-carboxylic acid, 7-[[[[(4-ethyl-2,3-dioxo-1-piperazinyl)carbonyl]amino](4-hydroxyphenyl)acetyl]amino]-3-[[(1-methyl-1<em>H</em>-tetrazol-5-yl)thio]methyl]-8-oxo-, [6<em>R</em>-[6α,7β(<em>R</em>*)]]-;5-Thia-1-azabicyclo[4.2.0]oct-2-ene-2-carboxylic acid, 7-[[(2<em>R</em>)-[[(4-ethyl-2,3-dioxo-1-piperazinyl)carbonyl]amino](4-hydroxyphenyl)acetyl]amino]-3-[[(1-methyl-1<em>H</em>-tetrazol-5-yl)thio]methyl]-8-oxo-, (6<em>R</em>,7<em>R</em>)-;(6<em>R</em>,7<em>R</em>)-7-[[(2<em>R</em>)-2-[[(4-Ethyl-2,3-dioxo-1-piperazinyl)carbonyl]amino]-2-(4-hydroxyphenyl)acetyl]amino]-3-[[(1-methyl-1<em>H</em>-tetrazol-5-yl)thio]methyl]-8-oxo-5-thia-1-azabicyclo[4.2.0]oct-2-ene-2-carboxylic acid;Cefoperazone;Cefoperazine;Cefobid;Cefob;Cephaperazon;Medocef;Cefozon;Biocefazon;MeSH ID: D002438",
    "duplicated_cas_no": "72448-63-6",
    "SMILES": "C(O)(=O)C=1N2[C@@]([C@H](NC([C@H](NC(=O)N3C(=O)C(=O)N(CC)CC3)C4=CC=C(O)C=C4)=O)C2=O)(SCC1CSC=5N(C)N=NN5)[H]",
    "meta_data": {
        "InChI": "InChI=1S/C25H27N9O8S2/c1-3-32-8-9-33(21(39)20(32)38)24(42)27-15(12-4-6-14(35)7-5-12)18(36)26-16-19(37)34-17(23(40)41)13(10-43-22(16)34)11-44-25-28-29-30-31(25)2/h4-7,15-16,22,35H,3,8-11H2,1-2H3,(H,26,36)(H,27,42)(H,40,41)/t15-,16-,22-/m1/s1",
        "InChIKey": null,
        "Canonical SMILES": "O=C(O)C1=C(CSC2=NN=NN2C)CSC3N1C(=O)C3NC(=O)C(NC(=O)N4C(=O)C(=O)N(CC)CC4)C5=CC=C(O)C=C5",
        "Molecular Formula": "C<sub>25</sub>H<sub>27</sub>N<sub>9</sub>O<sub>8</sub>S<sub>2</sub>",
        "Molecular Mass": "645.67",
        "Melting Point": "167-171 °C"
    }
}