{
    "cas_no": "2002-04-2",
    "key_name": "5-(Pyridin-4-yl)-1,3,4-thiadiazol-2-amine",
    "cn_name": "2-氨基-5-(4-吡啶基)-1,3,4-噻重氮;",
    "alternate_name": "1,3,4-Thiadiazol-2-amine, 5-(4-pyridinyl)-;Pyridine, 4-(5-amino-1,3,4-thiadiazol-2-yl)-;5-(4-Pyridinyl)-1,3,4-thiadiazol-2-amine;5-(4-Pyridyl)-2-amino-1,3,4-thiadiazole;5-(Pyridin-4-yl)-1,3,4-thiadiazol-2-amine;2-Amino-5-(4-pyridinyl)-1,3,4-thiadiazole",
    "duplicated_cas_no": "",
    "SMILES": "NC=1SC(=NN1)C=2C=CN=CC2",
    "meta_data": {
        "InChI": "InChI=1S/C7H6N4S/c8-7-11-10-6(12-7)5-1-3-9-4-2-5/h1-4H,(H2,8,11)",
        "InChIKey": null,
        "Canonical SMILES": "N=1N=C(SC1N)C=2C=CN=CC2",
        "Molecular Formula": "C<sub>7</sub>H<sub>6</sub>N<sub>4</sub>S",
        "Molecular Mass": "178.21",
        "Melting Point": "240-241 °C (decomp)"
    }
}