{
    "cas_no": "104366-23-6",
    "key_name": "2-Amino-4-chloro-5-formyl-3-thiophenecarbonitrile",
    "cn_name": "2-氨基-3-氰基-4-氯噻吩-5-甲醛;",
    "alternate_name": "3-Thiophenecarbonitrile, 2-amino-4-chloro-5-formyl-;2-Amino-4-chloro-5-formyl-3-thiophenecarbonitrile;2-Amino-4-chloro-3-cyano-5-formylthiophene;2-Amino-3-cyano-4-chloro-5-formylthiophene;2-Amino-4-chloro-5-formyl-3-cyanothiophene",
    "duplicated_cas_no": "",
    "SMILES": "C(#N)C=1C(Cl)=C(C=O)SC1N",
    "meta_data": {
        "InChI": "InChI=1S/C6H3ClN2OS/c7-5-3(1-8)6(9)11-4(5)2-10/h2H,9H2",
        "InChIKey": null,
        "Canonical SMILES": "N#CC=1C(Cl)=C(SC1N)C=O",
        "Molecular Formula": "C<sub>6</sub>H<sub>3</sub>ClN<sub>2</sub>OS",
        "Molecular Mass": "186.62",
        "Melting Point": "270 °C"
    }
}