{
    "cas_no": "148-18-5",
    "key_name": "Sodium diethyldithiocarbamate",
    "cn_name": "二乙基二硫代氨基甲酸钠;",
    "alternate_name": "Carbamodithioic acid, <em>N</em>,<em>N</em>-diethyl-, sodium salt (1:1);Carbamic acid, diethyldithio-, sodium salt;Carbamodithioic acid, diethyl-, sodium salt;Sodium DEDT;Sodium <em>N</em>,<em>N</em>-diethyldithiocarbamate;Sodium diethyldithiocarbamate;DEDC;Dithiocarb;Diethyldithiocarbamic acid sodium salt;<em>N</em>,<em>N</em>-Diethyldithiocarbamic acid, sodium salt;Sodium diethylaminocarbodithioate;Thiocarb;Cupral;Imuthiol;Soxinol ESL;Kupral;Ditiocarb sodium;Sodium diethylaminocarbodithiolate;Na-DDTC;Nocceler SDC;DDTC;DDC;DeDTC;DTC;Dithiocarb sodium;SDDTC;Aquamet E;Diethyl dithiocarbamate sodium salt",
    "duplicated_cas_no": "19622-06-1;143189-63-3;149099-81-0;1086257-94-4;1240386-50-8",
    "SMILES": "N(C(=S)S)(CC)CC.[Na]",
    "meta_data": {
        "InChI": "InChI=1S/C5H11NS2.Na/c1-3-6(4-2)5(7)8;/h3-4H2,1-2H3,(H,7,8);",
        "InChIKey": null,
        "Canonical SMILES": "[Na].S=C(S)N(CC)CC",
        "Molecular Formula": "C<sub>5</sub>H<sub>11</sub>NS<sub>2</sub>.Na",
        "Molecular Mass": "",
        "Melting Point": "94-96 °C",
        "Density": "1.1 g/cm³ @ Temp: 20 °C"
    }
}