{
    "cas_no": "113085-62-4",
    "key_name": "7-Methoxyrosmanol",
    "cn_name": null,
    "alternate_name": "2<em>H</em>-10,4a-(Epoxymethano)phenanthren-12-one, 1,3,4,9,10,10a-hexahydro-5,6-dihydroxy-9-methoxy-1,1-dimethyl-7-(1-methylethyl)-, (4a<em>R</em>,9<em>S</em>,10<em>S</em>,10a<em>S</em>)-;2<em>H</em>-10,4a-(Epoxymethano)phenanthren-12-one, 1,3,4,9,10,10a-hexahydro-5,6-dihydroxy-9-methoxy-1,1-dimethyl-7-(1-methylethyl)-, [4a<em>R</em>-(4aα,9β,10α,10aβ)]-;(4a<em>R</em>,9<em>S</em>,10<em>S</em>,10a<em>S</em>)-1,3,4,9,10,10a-Hexahydro-5,6-dihydroxy-9-methoxy-1,1-dimethyl-7-(1-methylethyl)-2<em>H</em>-10,4a-(epoxymethano)phenanthren-12-one;7-Methoxyrosamanol;7-<em>o</em>-Methylrosmanol;7-Methoxyrosmanol;7α-Methoxyrosmanol",
    "duplicated_cas_no": "",
    "SMILES": "O=C1C23[C@@]([C@](O1)([C@@H](OC)C=4C2=C(O)C(O)=C(C(C)C)C4)[H])(C(C)(C)CCC3)[H]",
    "meta_data": {
        "InChI": "InChI=1S/C21H28O5/c1-10(2)11-9-12-13(15(23)14(11)22)21-8-6-7-20(3,4)18(21)17(16(12)25-5)26-19(21)24/h9-10,16-18,22-23H,6-8H2,1-5H3/t16-,17+,18-,21?/m0/s1",
        "InChIKey": null,
        "Canonical SMILES": "O=C1OC2C(OC)C3=CC(=C(O)C(O)=C3C14CCCC(C)(C)C24)C(C)C",
        "Molecular Formula": "C<sub>21</sub>H<sub>28</sub>O<sub>5</sub>",
        "Molecular Mass": "360.44",
        "Melting Point": "169-171 °C"
    }
}