{
    "cas_no": "3001-15-8",
    "key_name": "4,4′-Diiodo-1,1′-biphenyl",
    "cn_name": "4,4-二碘联苯;",
    "alternate_name": "1,1′-Biphenyl, 4,4′-diiodo-;Biphenyl, 4,4′-diiodo-;4,4′-Diiodo-1,1′-biphenyl;4,4′-Diiodobiphenyl;4,4′-Diiododiphenyl;<em>p</em>,<em>p</em>′-Diiodobiphenyl;1-Iodo-4-(4-iodophenyl)benzene",
    "duplicated_cas_no": "",
    "SMILES": "IC1=CC=C(C=C1)C2=CC=C(I)C=C2",
    "meta_data": {
        "InChI": "InChI=1S/C12H8I2/c13-11-5-1-9(2-6-11)10-3-7-12(14)8-4-10/h1-8H",
        "InChIKey": null,
        "Canonical SMILES": "IC=1C=CC(=CC1)C2=CC=C(I)C=C2",
        "Molecular Formula": "C<sub>12</sub>H<sub>8</sub>I<sub>2</sub>",
        "Molecular Mass": "406.00",
        "Melting Point": "202 °C"
    }
}