{
    "cas_no": "959-52-4",
    "key_name": "1,1′,1′′-(1,3,5-Triazine-1,3,5(2<em>H</em>,4<em>H</em>,6<em>H</em>)-triyl)tris[2-propen-1-one]",
    "cn_name": "1,3,5-三丙烯酰基六氢-1,3,5-三嗪;",
    "alternate_name": "2-Propen-1-one, 1,1′,1′′-(1,3,5-triazine-1,3,5(2<em>H</em>,4<em>H</em>,6<em>H</em>)-triyl)tris-;<em>s</em>-Triazine, 1,3,5-triacryloylhexahydro-;1,3,5-Triazine, hexahydro-1,3,5-tris(1-oxo-2-propenyl)-;1,1′,1′′-(1,3,5-Triazine-1,3,5(2<em>H</em>,4<em>H</em>,6<em>H</em>)-triyl)tris[2-propen-1-one];Triacrylformal;Hexahydro-1,3,5-triacryloyl-<em>s</em>-triazine;1,3,5-Triacryloyltrimethylenetriamine;Fixierer P;Triacryloylhexahydrotriazine;Tris(acryloyl)hexahydro-<em>s</em>-triazine;1,3,5-Triacryloylhexahydro-<em>s</em>-triazine;Triacryloylperhydrotriazine;Tri(<em>N</em>-acryloyl)hexahydrotriazine;1,3,5-Triacryloylhexahydro-1,3,5-triazine;1,3,5-Triacryloyl-<em>s</em>-triazine;1,3,5-Triacryloylhexahydrotriazine;1,3,5-Tris(acryloyl)hexahydro-<em>s</em>-triazine;Tris(<em>N</em>-acryloyl)hexahydrotriazine;Triacryloylhexahydro-<em>s</em>-triazine;Hexahydrotris(acryloyl)-<em>s</em>-triazine;DU 801;Fixing Agent P;TAF;TAF (crosslinking agent);1,3,5-Triacryloylaminohexahydro-<em>s</em>-triazine;NSC 63839;NSC 8185;1-[3,5-Di(prop-2-enoyl)-1,3,5-triazinan-1-yl]prop-2-en-1-one;1: PN: WO2020148529 PAGE: 32 claimed sequence;TAT;1,1′1′′-(1,3,5-Triazinane-1,3,5-triyl)triprop-2-en-1-one;113: PN: WO2024009108 SEQID: 115 claimed sequence",
    "duplicated_cas_no": "136510-67-3;31426-62-7;85996-24-3;166516-55-8",
    "SMILES": "C(C=C)(=O)N1CN(C(C=C)=O)CN(C(C=C)=O)C1",
    "meta_data": {
        "InChI": "InChI=1S/C12H15N3O3/c1-4-10(16)13-7-14(11(17)5-2)9-15(8-13)12(18)6-3/h4-6H,1-3,7-9H2",
        "InChIKey": null,
        "Canonical SMILES": "O=C(C=C)N1CN(C(=O)C=C)CN(C(=O)C=C)C1",
        "Molecular Formula": "C<sub>12</sub>H<sub>15</sub>N<sub>3</sub>O<sub>3</sub>",
        "Molecular Mass": "249.27",
        "Melting Point": "158 °C"
    }
}