{
    "cas_no": "640-19-7",
    "key_name": "Fluoroacetamide",
    "cn_name": "氟乙酰胺;",
    "alternate_name": "Acetamide, 2-fluoro-;2-Fluoroacetamide;AFL 1081;Compound 1081;Fluorakil 100;Fussol;Megatox;Fluoroacetamide;Monofluoroacetamide;Fluoroacetic acid amide;Flutritex 1;1081;α-Fluoroacetamide;NSC 31876",
    "duplicated_cas_no": "",
    "SMILES": "C(CF)(N)=O",
    "meta_data": {
        "InChI": "InChI=1S/C2H4FNO/c3-1-2(4)5/h1H2,(H2,4,5)",
        "InChIKey": null,
        "Canonical SMILES": "O=C(N)CF",
        "Molecular Formula": "C<sub>2</sub>H<sub>4</sub>FNO",
        "Molecular Mass": "77.06",
        "Melting Point": "108 °C"
    }
}