{
    "cas_no": "1514-90-5",
    "key_name": "1,1,1,2,3,3,4,4-Octafluoro-4-iodo-2-(trifluoromethyl)butane",
    "cn_name": "全氟异戊基碘;",
    "alternate_name": "Butane, 1,1,1,2,3,3,4,4-octafluoro-4-iodo-2-(trifluoromethyl)-;Butane, octafluoro-1-iodo-3-(trifluoromethyl)-;1,1,1,2,3,3,4,4-Octafluoro-4-iodo-2-(trifluoromethyl)butane;1,1,2,2,3,4,4,4-Octafluoro-3-(trifluoromethyl)butyl iodide;1-Iodoperfluoro(3-methylbutane)",
    "duplicated_cas_no": "",
    "SMILES": "C(C(C(F)(F)I)(F)F)(C(F)(F)F)(C(F)(F)F)F",
    "meta_data": {
        "InChI": "InChI=1S/C5F11I/c6-1(3(9,10)11,4(12,13)14)2(7,8)5(15,16)17",
        "InChIKey": null,
        "Canonical SMILES": "FC(F)(F)C(F)(C(F)(F)F)C(F)(F)C(F)(F)I",
        "Molecular Formula": "C<sub>5</sub>F<sub>11</sub>I",
        "Molecular Mass": "395.94",
        "Boiling Point": "94 °C @ Press: 760 Torr"
    }
}