{
    "cas_no": "300-76-5",
    "key_name": "Naled",
    "cn_name": "二溴磷;1,2-二溴-2,2-二氯乙基二甲基磷酸酯;",
    "alternate_name": "Phosphoric acid, 1,2-dibromo-2,2-dichloroethyl dimethyl ester;Ethanol, 1,2-dibromo-2,2-dichloro-, dimethyl phosphate;RE 4355;ENT 24988;Dibrom;Naled;Bromex;<em>O</em>,<em>O</em>-Dimethyl <em>O</em>-(1,2-dibromo-2,2-dichloroethyl) phosphate;Bromex 50;Dimethyl 1,2-dibromo-2,2-dichloroethyl phosphate;Dibromfos;1,2-Dibromo-2,2-dichloroethyl dimethyl phosphate;Alvora;Fosbrom;Bromex (insecticide);BRP;Bromchlophos;Flibol Ex;Trumpet;Dibrom 8 Emulsive;Dibrom 8;MeSH ID: D009267",
    "duplicated_cas_no": "53095-31-1",
    "SMILES": "O(P(OC)(OC)=O)C(C(Br)(Cl)Cl)Br",
    "meta_data": {
        "InChI": "InChI=1S/C4H7Br2Cl2O4P/c1-10-13(9,11-2)12-3(5)4(6,7)8/h3H,1-2H3",
        "InChIKey": null,
        "Canonical SMILES": "O=P(OC)(OC)OC(Br)C(Cl)(Cl)Br",
        "Molecular Formula": "C<sub>4</sub>H<sub>7</sub>Br<sub>2</sub>Cl<sub>2</sub>O<sub>4</sub>P",
        "Molecular Mass": "380.78",
        "Boiling Point": "110 °C @ Press: 0.50 Torr",
        "Melting Point": "26.5-27.5 °C",
        "Density": "1.96 g/cm³ @ Temp: 25 °C"
    }
}