{
    "cas_no": "1646-53-3",
    "key_name": "3-Bromo-1,2,4,5-tetramethylbenzene",
    "cn_name": "1-溴-2,3,5,6-四甲苯;",
    "alternate_name": "Benzene, 3-bromo-1,2,4,5-tetramethyl-;Durene, bromo-;3-Bromo-1,2,4,5-tetramethylbenzene;Bromodurene;3-Bromodurene;1-Bromo-2,3,5,6-tetramethylbenzene;2,3,5,6-Tetramethylbromobenzene;Duryl bromide;NSC 87881",
    "duplicated_cas_no": "",
    "SMILES": "CC1=C(Br)C(C)=C(C)C=C1C",
    "meta_data": {
        "InChI": "InChI=1S/C10H13Br/c1-6-5-7(2)9(4)10(11)8(6)3/h5H,1-4H3",
        "InChIKey": null,
        "Canonical SMILES": "BrC=1C(=C(C=C(C1C)C)C)C",
        "Molecular Formula": "C<sub>10</sub>H<sub>13</sub>Br",
        "Molecular Mass": "213.11",
        "Boiling Point": "111-113 °C @ Press: 6 Torr",
        "Melting Point": "60-61 °C"
    }
}