{
    "cas_no": "3959-07-7",
    "key_name": "4-Bromobenzenemethanamine",
    "cn_name": "4-溴苄胺;对溴苄胺;",
    "alternate_name": "Benzenemethanamine, 4-bromo-;Benzylamine, <em>p</em>-bromo-;4-Bromobenzenemethanamine;4-Bromobenzylamine;<em>p</em>-Bromobenzylamine;<em>p</em>-Bromobenzenemethanamine;(4-Bromophenyl)methanamine;1-(4-Bromophenyl)methanamine",
    "duplicated_cas_no": "",
    "SMILES": "C(N)C1=CC=C(Br)C=C1",
    "meta_data": {
        "InChI": "InChI=1S/C7H8BrN/c8-7-3-1-6(5-9)2-4-7/h1-4H,5,9H2",
        "InChIKey": null,
        "Canonical SMILES": "BrC1=CC=C(C=C1)CN",
        "Molecular Formula": "C<sub>7</sub>H<sub>8</sub>BrN",
        "Molecular Mass": "186.05",
        "Boiling Point": "250 °C",
        "Melting Point": "20 °C"
    }
}