{
    "cas_no": "3012-80-4",
    "key_name": "1-Methyl-2-formylbenzimidazole",
    "cn_name": "1-甲基-1H-苯并咪唑-2-甲醛;1-甲基-2-甲酰苯并咪唑;",
    "alternate_name": "1<em>H</em>-Benzimidazole-2-carboxaldehyde, 1-methyl-;2-Benzimidazolecarboxaldehyde, 1-methyl-;1-Methyl-1<em>H</em>-benzimidazole-2-carboxaldehyde;1-Methyl-2-benzimidazolecarboxaldehyde;1-Methyl-2-formylbenzimidazole;2-Formyl-1-methylbenzimidazole;1-Methyl-1<em>H</em>-benzimidazol-2-carboxaldehyde;1-Methyl-1<em>H</em>-benzo[<em>d</em>]imidazole-2-carboxaldehyde;<em>N</em>-Methylbenzimidazole-2-carboxaldehyde;1-Methyl-2-formyl-1<em>H</em>-benzimidazole;1-Methyl-1<em>H</em>-benzo[<em>d</em>]imidazole-2-carbaldehyde;1-Methylbenzimidazole-2-carbaldehyde;1-Methyl-1<em>H</em>-1,3-benzodiazole-2-carbaldehyde;1-Methyl-1<em>H</em>-benzimidazole-2-carbaldehyde",
    "duplicated_cas_no": "",
    "SMILES": "CN1C=2C(N=C1C=O)=CC=CC2",
    "meta_data": {
        "InChI": "InChI=1S/C9H8N2O/c1-11-8-5-3-2-4-7(8)10-9(11)6-12/h2-6H,1H3",
        "InChIKey": null,
        "Canonical SMILES": "O=CC1=NC=2C=CC=CC2N1C",
        "Molecular Formula": "C<sub>9</sub>H<sub>8</sub>N<sub>2</sub>O",
        "Molecular Mass": "160.17",
        "Melting Point": "121 °C"
    }
}