{
    "cas_no": "1786-81-8",
    "key_name": "Prilocaine hydrochloride",
    "cn_name": "盐酸丙胺卡因;2-丙胺基-邻丙酰胺基甲苯盐酸盐;",
    "alternate_name": "Propanamide, <em>N</em>-(2-methylphenyl)-2-(propylamino)-, hydrochloride (1:1);<em>o</em>-Propionotoluidide, 2-(propylamino)-, monohydrochloride;Propanamide, <em>N</em>-(2-methylphenyl)-2-(propylamino)-, monohydrochloride;Citanest hydrochloride;L 67 hydrochloride;α-(Propylamino)-2-methylpropionanilide hydrochloride;2-(Propylamino)-<em>o</em>-propionotoluidide hydrochloride;Prilocaine hydrochloride;Propitocaine hydrochloride;Xylonest;Prilocaine chloride;Citanest Plain;L 67;2-(Propylamino)-<em>N</em>-(<em>o</em>-tolyl)propanamide hydrochloride",
    "duplicated_cas_no": "88208-29-1",
    "SMILES": "N(C(C(NCCC)C)=O)C1=C(C)C=CC=C1.Cl",
    "meta_data": {
        "InChI": "InChI=1S/C13H20N2O.ClH/c1-4-9-14-11(3)13(16)15-12-8-6-5-7-10(12)2;/h5-8,11,14H,4,9H2,1-3H3,(H,15,16);1H",
        "InChIKey": null,
        "Canonical SMILES": "Cl.O=C(NC=1C=CC=CC1C)C(NCCC)C",
        "Molecular Formula": "C<sub>13</sub>H<sub>20</sub>N<sub>2</sub>O.ClH",
        "Molecular Mass": "",
        "Melting Point": "167-168 °C"
    }
}