{
    "cas_no": "4534-74-1",
    "key_name": "4-Ethylcyclohexanol",
    "cn_name": "4-乙基环己醇;",
    "alternate_name": "Cyclohexanol, 4-ethyl-;4-Ethylcyclohexanol;NSC 21118;4-Ethylcyclohexan-1-ol",
    "duplicated_cas_no": "",
    "SMILES": "C(C)C1CCC(O)CC1",
    "meta_data": {
        "InChI": "InChI=1S/C8H16O/c1-2-7-3-5-8(9)6-4-7/h7-9H,2-6H2,1H3",
        "InChIKey": null,
        "Canonical SMILES": "OC1CCC(CC)CC1",
        "Molecular Formula": "C<sub>8</sub>H<sub>16</sub>O",
        "Molecular Mass": "128.21",
        "Boiling Point": "191-192 °C",
        "Density": "0.9194 g/cm³ @ Temp: 21 °C"
    }
}