{
    "cas_no": "16851-84-6",
    "key_name": "1-[(4-Bromophenyl)sulfonyl]-1<em>H</em>-pyrrole",
    "cn_name": null,
    "alternate_name": "1<em>H</em>-Pyrrole, 1-[(4-bromophenyl)sulfonyl]-;Pyrrole, 1-[(<em>p</em>-bromophenyl)sulfonyl]-;1-[(4-Bromophenyl)sulfonyl]-1<em>H</em>-pyrrole;1-(4-Bromophenylsulfonyl)-1<em>H</em>-pyrrole;1-(4-Bromophenyl)sulfonylpyrrole;1-(4-Bromobenzenesulfonyl)-1<em>H</em>-pyrrole",
    "duplicated_cas_no": "",
    "SMILES": "S(=O)(=O)(C1=CC=C(Br)C=C1)N2C=CC=C2",
    "meta_data": {
        "InChI": "InChI=1S/C10H8BrNO2S/c11-9-3-5-10(6-4-9)15(13,14)12-7-1-2-8-12/h1-8H",
        "InChIKey": null,
        "Canonical SMILES": "O=S(=O)(C1=CC=C(Br)C=C1)N2C=CC=C2",
        "Molecular Formula": "C<sub>10</sub>H<sub>8</sub>BrNO<sub>2</sub>S",
        "Molecular Mass": "286.14",
        "Melting Point": "131-132 °C"
    }
}