{
    "cas_no": "191226-98-9",
    "key_name": "<em>tert</em>-Butyl [(1<em>S</em>,2<em>R</em>)-1-benzyl-2-hydroxy-3-[isobutyl[(4-nitrophenyl)sulfonyl]amino]propyl]carbamate",
    "cn_name": "[(1S,2R)-1-苄基-2-羟基-3-[异丁基[(4-硝基苯基)磺酰]氨基]丙基]氨基甲酸叔丁酯;",
    "alternate_name": "Carbamic acid, <em>N</em>-[(1<em>S</em>,2<em>R</em>)-2-hydroxy-3-[(2-methylpropyl)[(4-nitrophenyl)sulfonyl]amino]-1-(phenylmethyl)propyl]-, 1,1-dimethylethyl ester;Carbamic acid, [2-hydroxy-3-[(2-methylpropyl)[(4-nitrophenyl)sulfonyl]amino]-1-(phenylmethyl)propyl]-, 1,1-dimethylethyl ester, [<em>R</em>-(<em>R</em>*,<em>S</em>*)]-;Carbamic acid, [(1<em>S</em>,2<em>R</em>)-2-hydroxy-3-[(2-methylpropyl)[(4-nitrophenyl)sulfonyl]amino]-1-(phenylmethyl)propyl]-, 1,1-dimethylethyl ester;<em>tert</em>-Butyl [(1<em>S</em>,2<em>R</em>)-1-benzyl-2-hydroxy-3-[isobutyl[(4-nitrophenyl)sulfonyl]amino]propyl]carbamate",
    "duplicated_cas_no": "",
    "SMILES": "S(N(C[C@H]([C@H](CC1=CC=CC=C1)NC(OC(C)(C)C)=O)O)CC(C)C)(=O)(=O)C2=CC=C(N(=O)=O)C=C2",
    "meta_data": {
        "InChI": "InChI=1S/C25H35N3O7S/c1-18(2)16-27(36(33,34)21-13-11-20(12-14-21)28(31)32)17-23(29)22(15-19-9-7-6-8-10-19)26-24(30)35-25(3,4)5/h6-14,18,22-23,29H,15-17H2,1-5H3,(H,26,30)/t22-,23+/m0/s1",
        "InChIKey": null,
        "Canonical SMILES": "O=C(OC(C)(C)C)NC(CC=1C=CC=CC1)C(O)CN(CC(C)C)S(=O)(=O)C2=CC=C(C=C2)N(=O)=O",
        "Molecular Formula": "C<sub>25</sub>H<sub>35</sub>N<sub>3</sub>O<sub>7</sub>S",
        "Molecular Mass": "521.63",
        "Melting Point": "166.5-168.5 °C"
    }
}