{
    "cas_no": "103-31-1",
    "key_name": "4-Styrylpyridine",
    "cn_name": "4-苯乙烯基吡啶;",
    "alternate_name": "Pyridine, 4-(2-phenylethenyl)-;Pyridine, 4-styryl-;4-Stilbazole;4-(2-Phenylethenyl)pyridine;γ-Stilbazole;4-Styrylpyridine;Ba 35998;Ba 35988;4-(2-Phenylvinyl)pyridine;NSC 360203;NSC 44776;NSC 9496",
    "duplicated_cas_no": "39836-54-9",
    "SMILES": "C(=CC=1C=CN=CC1)C2=CC=CC=C2",
    "meta_data": {
        "InChI": "InChI=1S/C13H11N/c1-2-4-12(5-3-1)6-7-13-8-10-14-11-9-13/h1-11H",
        "InChIKey": null,
        "Canonical SMILES": "N=1C=CC(=CC1)C=CC=2C=CC=CC2",
        "Molecular Formula": "C<sub>13</sub>H<sub>11</sub>N",
        "Molecular Mass": "181.23",
        "Boiling Point": "208-210 °C @ Press: 33 Torr",
        "Melting Point": "125-127 °C"
    }
}