{
    "cas_no": "693-65-2",
    "key_name": "Pentyl ether",
    "cn_name": "4-乙炔基苯甲酸钠;二戊醚;二正戊基醚;正戊醚;戊醚(戊二醚);二正戊醚;二戊基醚;戊氧戊烷;",
    "alternate_name": "Pentane, 1,1′-oxybis-;Pentyl ether;1,1′-Oxybis[pentane];Amyl ether;<em>n</em>-Amyl ether;Diamyl ether;Di-<em>n</em>-amyl ether;Dipentyl ether;<em>n</em>-Pentyl ether;Di-<em>n</em>-Pentyl ether;Bis(1-pentyl) ether;1,1-Dipentyl ether;NSC 6571;1-Pentoxypentane",
    "duplicated_cas_no": "",
    "SMILES": "O(CCCCC)CCCCC",
    "meta_data": {
        "InChI": "InChI=1S/C10H22O/c1-3-5-7-9-11-10-8-6-4-2/h3-10H2,1-2H3",
        "InChIKey": null,
        "Canonical SMILES": "O(CCCCC)CCCCC",
        "Molecular Formula": "C<sub>10</sub>H<sub>22</sub>O",
        "Molecular Mass": "158.28",
        "Boiling Point": "190 °C",
        "Melting Point": "-69 °C",
        "Density": "0.7864 g/cm³ @ Temp: 15 °C"
    }
}