{
    "cas_no": "2270-20-4",
    "key_name": "Benzenepentanoic acid",
    "cn_name": "5-苯基戊酸;",
    "alternate_name": "Benzenepentanoic acid;Valeric acid, 5-phenyl-;Valeric acid, δ-phenyl-;Phenylvaleric acid;5-Phenylvaleric acid;Phenylpentanoic acid;5-Phenylpentanoic acid;δ-Phenylvaleric acid;NSC 65637",
    "duplicated_cas_no": "",
    "SMILES": "C(CCCC(O)=O)C1=CC=CC=C1",
    "meta_data": {
        "InChI": "InChI=1S/C11H14O2/c12-11(13)9-5-4-8-10-6-2-1-3-7-10/h1-3,6-7H,4-5,8-9H2,(H,12,13)",
        "InChIKey": null,
        "Canonical SMILES": "O=C(O)CCCCC=1C=CC=CC1",
        "Molecular Formula": "C<sub>11</sub>H<sub>14</sub>O<sub>2</sub>",
        "Molecular Mass": "178.23",
        "Boiling Point": "190 °C",
        "Melting Point": "57.5 °C"
    }
}