{
    "cas_no": "2578-58-7",
    "key_name": "Histidylglycine",
    "cn_name": null,
    "alternate_name": "Glycine, <span class=\"text-smallcaps\">L</span>-histidyl-;Glycine, <em>N</em>-<span class=\"text-smallcaps\">L</span>-histidyl-;<span class=\"text-smallcaps\">L</span>-Histidylglycine;Histidylglycine;<em>N</em>-(<span class=\"text-smallcaps\">L</span>-Histidyl)glycine;NSC 522626;153: PN: EP2161028 PAGE: 10 claimed protein;13: PN: WO2014018423 PAGE: 215 claimed sequence;7: PN: EP2878667 TABLE: 5 claimed sequence;(<em>S</em>)-2-(2-Amino-3-(1<em>H</em>-imidazol-4-yl)propanamido)acetic acid;(<em>S</em>)-2-(2-Amino-3-(1<em>H</em>-imidazol-4-yl)propanamido)aceticacid;18: PN: WO2021026336 PAGE: 101 claimed sequence;131: PN: WO2022105914 SEQID: 137 claimed protein",
    "duplicated_cas_no": "",
    "SMILES": "C([C@@H](C(NCC(O)=O)=O)N)C1=CN=CN1",
    "meta_data": {
        "InChI": "InChI=1S/C8H12N4O3/c9-6(1-5-2-10-4-12-5)8(15)11-3-7(13)14/h2,4,6H,1,3,9H2,(H,10,12)(H,11,15)(H,13,14)/t6-/m0/s1",
        "InChIKey": null,
        "Canonical SMILES": "O=C(O)CNC(=O)C(N)CC1=CN=CN1",
        "Molecular Formula": "C<sub>8</sub>H<sub>12</sub>N<sub>4</sub>O<sub>3</sub>",
        "Molecular Mass": "212.21",
        "Melting Point": "167-170 °C (decomp)"
    }
}