{
    "cas_no": "123-92-2",
    "key_name": "Isoamyl acetate",
    "cn_name": "乙酸异戊酯;乙酸-3-甲基丁酯;3-甲基-1-丁醇乙酸酯;醋酸异戊酯;",
    "alternate_name": "1-Butanol, 3-methyl-, 1-acetate;Isopentyl alcohol, acetate;1-Butanol, 3-methyl-, acetate;Acetic acid, isoamyl ester;Banana oil;Isoamyl ethanoate;Isopentyl acetate;3-Methylbutyl acetate;Pear oil;Acetic acid 3-methylbutyl ester;<em>i</em>-Amyl acetate;3-Methyl-1-butyl acetate;Isopentyl ethanoate;Isoamyl acetate;<em>iso</em>-Amyl acetate;Isoamyl alcohol acetate;3-Methyl-1-butanol acetate;Acetic acid isopentyl ester;NSC 9260;<em>iso</em>-Pentyl acetate;3-Methylbutyl ethanoate;Acetic acid 3-methyl-1-butyl ester;T 615B;T 815A",
    "duplicated_cas_no": "29732-50-1",
    "SMILES": "C(CC(C)C)OC(C)=O",
    "meta_data": {
        "InChI": "InChI=1S/C7H14O2/c1-6(2)4-5-9-7(3)8/h6H,4-5H2,1-3H3",
        "InChIKey": null,
        "Canonical SMILES": "O=C(OCCC(C)C)C",
        "Molecular Formula": "C<sub>7</sub>H<sub>14</sub>O<sub>2</sub>",
        "Molecular Mass": "130.18",
        "Boiling Point": "142.5 °C",
        "Melting Point": "-78.5 °C",
        "Density": "0.876 g/cm³ @ Temp: 15 °C"
    }
}