{
    "cas_no": "114-49-8",
    "key_name": "Scopolamine hydrobromide",
    "cn_name": "东莨菪碱氢溴酸盐;",
    "alternate_name": "Benzeneacetic acid, α-(hydroxymethyl)-, (1α,2β,4β,5α,7β)-9-methyl-3-oxa-9-azatricyclo[3.3.1.0<sup>2,4</sup>]non-7-yl ester, hydrobromide (1:1), (α<em>S</em>)-;1α<span class=\"text-smallcaps\">H</smallcap>,5α<smallcap>H</span>-Tropan-3α-ol, 6β,7β-epoxy-, (-)-tropate (ester), hydrobromide;Benzeneacetic acid, α-(hydroxymethyl)-, 9-methyl-3-oxa-9-azatricyclo[3.3.1.0<sup>2,4</sup>]non-7-yl ester, hydrobromide, [7(<em>S</em>)-(1α,2β,4β,5α,7β)]-;Scopolamine bromide;Benzeneacetic acid, α-(hydroxymethyl)-, (1α,2β,4β,5α,7β)-9-methyl-3-oxa-9-azatricyclo[3.3.1.0<sup>2,4</sup>]non-7-yl ester, hydrobromide, (α<em>S</em>)-;3-Oxa-9-azatricyclo[3.3.1.0<sup>2,4</sup>]nonane, benzeneacetic acid deriv.;Beldavrin;Euscopol;Hyoscine bromide;(-)-Hyoscine hydrobromide;Kwells;Scopolamine hydrobromide;Scopos;Scopolaminium bromide;Hyoscine hydrobromide;(-)-Scopolamine bromide;Scopolammonium bromide;(-)-Scopolamine hydrobromide;Hysco;Isoscopil;Scopamin;Sereen;<em>l</em>-Scopolamine hydrobromide;Hydroscine hydrobromide;Triptone;<em>l</em>-Hyoscine hydrobromide;Sea Legs;Hyocine F hydrobromide;Wellcome Brand Scopolamine hydrobromide Injection;MeSH ID: D012601",
    "duplicated_cas_no": "70-50-8;8013-72-7",
    "SMILES": "CN1[C@@]2([C@]3([C@](O3)([C@]1(C[C@@H](OC([C@H](CO)C4=CC=CC=C4)=O)C2)[H])[H])[H])[H].Br",
    "meta_data": {
        "InChI": "InChI=1S/C17H21NO4.BrH/c1-18-13-7-11(8-14(18)16-15(13)22-16)21-17(20)12(9-19)10-5-3-2-4-6-10;/h2-6,11-16,19H,7-9H2,1H3;1H/t11-,12-,13-,14+,15-,16+;/m1./s1",
        "InChIKey": null,
        "Canonical SMILES": "Br.O=C(OC1CC2N(C)C(C1)C3OC32)C(C=4C=CC=CC4)CO",
        "Molecular Formula": "C<sub>17</sub>H<sub>21</sub>NO<sub>4</sub>.BrH",
        "Molecular Mass": "",
        "Melting Point": "196.5 °C"
    }
}