{
    "cas_no": "4214-74-8",
    "key_name": "2-Amino-3,5-dichloropyridine",
    "cn_name": "2-氨基-3,5二氯吡啶;3,5-二氯-2-氨基吡啶;",
    "alternate_name": "2-Pyridinamine, 3,5-dichloro-;Pyridine, 2-amino-3,5-dichloro-;3,5-Dichloro-2-pyridinamine;3,5-Dichloro-2-aminopyridine;2-Amino-3,5-dichloropyridine;NSC 51586;3,5-Dichloropyridin-2-ylamine",
    "duplicated_cas_no": "",
    "SMILES": "ClC1=C(N)N=CC(Cl)=C1",
    "meta_data": {
        "InChI": "InChI=1S/C5H4Cl2N2/c6-3-1-4(7)5(8)9-2-3/h1-2H,(H2,8,9)",
        "InChIKey": null,
        "Canonical SMILES": "ClC1=CN=C(N)C(Cl)=C1",
        "Molecular Formula": "C<sub>5</sub>H<sub>4</sub>Cl<sub>2</sub>N<sub>2</sub>",
        "Molecular Mass": "163.00",
        "Melting Point": "85-86 °C"
    }
}