{
    "cas_no": "33421-40-8",
    "key_name": "5-Phenyl-2-pyridinamine",
    "cn_name": "2-氨基-5-苯基吡啶,97%;",
    "alternate_name": "2-Pyridinamine, 5-phenyl-;Pyridine, 2-amino-5-phenyl-;5-Phenyl-2-pyridinamine;2-Amino-5-phenylpyridine;Phe-P 1;5-Phenylpyridin-2-ylamine",
    "duplicated_cas_no": "",
    "SMILES": "NC=1C=CC(=CN1)C2=CC=CC=C2",
    "meta_data": {
        "InChI": "InChI=1S/C11H10N2/c12-11-7-6-10(8-13-11)9-4-2-1-3-5-9/h1-8H,(H2,12,13)",
        "InChIKey": null,
        "Canonical SMILES": "N1=CC(=CC=C1N)C2=CC=CC=C2",
        "Molecular Formula": "C<sub>11</sub>H<sub>10</sub>N<sub>2</sub>",
        "Molecular Mass": "170.21",
        "Melting Point": "133 °C"
    }
}