{
    "cas_no": "153815-60-2",
    "key_name": "9<em>H</em>-Fluoren-9-ylmethyl <em>N</em>-[(1<em>S</em>)-2-hydroxy-1-(1<em>H</em>-indol-3-ylmethyl)ethyl]carbamate",
    "cn_name": null,
    "alternate_name": "Carbamic acid, <em>N</em>-[(1<em>S</em>)-2-hydroxy-1-(1<em>H</em>-indol-3-ylmethyl)ethyl]-, 9<em>H</em>-fluoren-9-ylmethyl ester;Carbamic acid, [2-hydroxy-1-(1<em>H</em>-indol-3-ylmethyl)ethyl]-, 9<em>H</em>-fluoren-9-ylmethyl ester, (<em>S</em>)-;Carbamic acid, [(1<em>S</em>)-2-hydroxy-1-(1<em>H</em>-indol-3-ylmethyl)ethyl]-, 9<em>H</em>-fluoren-9-ylmethyl ester;9<em>H</em>-Fluoren-9-ylmethyl <em>N</em>-[(1<em>S</em>)-2-hydroxy-1-(1<em>H</em>-indol-3-ylmethyl)ethyl]carbamate",
    "duplicated_cas_no": "",
    "SMILES": "C(OC(N[C@@H](CC=1C=2C(NC1)=CC=CC2)CO)=O)C3C=4C(C=5C3=CC=CC5)=CC=CC4",
    "meta_data": {
        "InChI": "InChI=1S/C26H24N2O3/c29-15-18(13-17-14-27-25-12-6-5-7-19(17)25)28-26(30)31-16-24-22-10-3-1-8-20(22)21-9-2-4-11-23(21)24/h1-12,14,18,24,27,29H,13,15-16H2,(H,28,30)/t18-/m0/s1",
        "InChIKey": null,
        "Canonical SMILES": "O=C(OCC1C=2C=CC=CC2C=3C=CC=CC31)NC(CO)CC4=CNC=5C=CC=CC54",
        "Molecular Formula": "C<sub>26</sub>H<sub>24</sub>N<sub>2</sub>O<sub>3</sub>",
        "Molecular Mass": "412.48",
        "Melting Point": "86-90 °C"
    }
}