{
    "cas_no": "71173-62-1",
    "key_name": "Arginine acetate",
    "cn_name": "L-精氨酸醋酸盐;",
    "alternate_name": "<span class=\"text-smallcaps\">L</span>-Arginine, acetate (1:1);<span class=\"text-smallcaps\">L</span>-Arginine, monoacetate;Arginine, acetate, <span class=\"text-smallcaps\">L</span>-;Arginine acetate",
    "duplicated_cas_no": "92351-57-0",
    "SMILES": "C(CCNC(=N)N)[C@@H](C(O)=O)N.C(C)(O)=O",
    "meta_data": {
        "InChI": "InChI=1S/C6H14N4O2.C2H4O2/c7-4(5(11)12)2-1-3-10-6(8)9;1-2(3)4/h4H,1-3,7H2,(H,11,12)(H4,8,9,10);1H3,(H,3,4)/t4-;/m0./s1",
        "InChIKey": null,
        "Canonical SMILES": "O=C(O)C.O=C(O)C(N)CCCNC(=N)N",
        "Molecular Formula": "C<sub>6</sub>H<sub>14</sub>N<sub>4</sub>O<sub>2</sub>.C<sub>2</sub>H<sub>4</sub>O<sub>2</sub>",
        "Molecular Mass": "",
        "Melting Point": "222-225 °C"
    }
}