{
    "cas_no": "6222-35-1",
    "key_name": "Cyclohexyl propionate",
    "cn_name": "丙醇环己酯;",
    "alternate_name": "Propanoic acid, cyclohexyl ester;Propionic acid, cyclohexyl ester;Cyclohexyl propionate;Cyclohexyl propanoate;NSC 11770",
    "duplicated_cas_no": "",
    "SMILES": "O(C(CC)=O)C1CCCCC1",
    "meta_data": {
        "InChI": "InChI=1S/C9H16O2/c1-2-9(10)11-8-6-4-3-5-7-8/h8H,2-7H2,1H3",
        "InChIKey": null,
        "Canonical SMILES": "O=C(OC1CCCCC1)CC",
        "Molecular Formula": "C<sub>9</sub>H<sub>16</sub>O<sub>2</sub>",
        "Molecular Mass": "156.22",
        "Boiling Point": "193 °C",
        "Density": "0.9529 g/cm³ @ Temp: 20 °C"
    }
}