{
    "cas_no": "18409-17-1",
    "key_name": "(<em>E</em>)-2-Octen-1-ol",
    "cn_name": "反式-2-辛烯-1-醇;",
    "alternate_name": "2-Octen-1-ol, (2<em>E</em>)-;2-Octen-1-ol, (<em>E</em>)-;(2<em>E</em>)-2-Octen-1-ol;<em>trans</em>-2-Octenol;<em>trans</em>-2-Octen-1-ol;<em>n</em>-Oct-<em>trans</em>-2-en-1-ol;(<em>E</em>)-2-Octenol;(<em>E</em>)-2-Octen-1-ol;(2<em>E</em>)-Oct-2-en-1-ol",
    "duplicated_cas_no": "",
    "SMILES": "C(CCCC)/C=C/CO",
    "meta_data": {
        "InChI": "InChI=1S/C8H16O/c1-2-3-4-5-6-7-8-9/h6-7,9H,2-5,8H2,1H3/b7-6+",
        "InChIKey": null,
        "Canonical SMILES": "OCC=CCCCCC",
        "Molecular Formula": "C<sub>8</sub>H<sub>16</sub>O",
        "Molecular Mass": "128.21",
        "Boiling Point": "70.5-70.7 °C @ Press: 10 Torr",
        "Density": "0.8435 g/cm³ @ Temp: 20 °C"
    }
}