{
    "cas_no": "7493-72-3",
    "key_name": "Allyl nonanoate",
    "cn_name": "壬酸烯丙酯;",
    "alternate_name": "Nonanoic acid, 2-propen-1-yl ester;Nonanoic acid, allyl ester;Nonanoic acid, 2-propenyl ester;Allyl nonanoate;Allyl pelargonate;NSC 20974",
    "duplicated_cas_no": "",
    "SMILES": "C(CCCCCCCC)(OCC=C)=O",
    "meta_data": {
        "InChI": "InChI=1S/C12H22O2/c1-3-5-6-7-8-9-10-12(13)14-11-4-2/h4H,2-3,5-11H2,1H3",
        "InChIKey": null,
        "Canonical SMILES": "O=C(OCC=C)CCCCCCCC",
        "Molecular Formula": "C<sub>12</sub>H<sub>22</sub>O<sub>2</sub>",
        "Molecular Mass": "198.30",
        "Boiling Point": "87 °C",
        "Density": "0.8963 g/cm³ @ Temp: 20 °C"
    }
}