{
    "cas_no": "7778-44-1",
    "key_name": "Calcium arsenate",
    "cn_name": "砷酸钙;砷酸钙;砷酸三钙;",
    "alternate_name": "Arsenic acid (H<sub>3</sub>AsO<sub>4</sub>), calcium salt (2:3);Calcium arsenate (Ca<sub>3</sub>(AsO<sub>4</sub>)<sub>2</sub>);Chip-Cal Granular;Cucumber dust;Pencal;Spra-cal;Tricalcium arsenate;Calcium arsenate",
    "duplicated_cas_no": "1333-25-1;1450620-86-6;1940140-03-3;2226341-09-7",
    "SMILES": "[As](=O)(O)(O)O.[Ca]",
    "meta_data": {
        "InChI": "InChI=1S/AsH3O4.Ca/c2-1(3,4)5;/h(H3,2,3,4,5);",
        "InChIKey": null,
        "Canonical SMILES": "[Ca].O=[As](O)(O)O",
        "Molecular Formula": "AsH<sub>3</sub>O<sub>4</sub>.<sup>3</sup>/<sub>2</sub>Ca",
        "Molecular Mass": "",
        "Melting Point": "1455 °C",
        "Density": "3.620 g/cm³"
    }
}