{
    "cas_no": "51630-58-1",
    "key_name": "Fenvalerate",
    "cn_name": "氰戊菊酯;(RS)-alpha-氰基-3-苯氧基苄基(RS)-2-(4-氯苯基)-3-甲基丁酸酯;",
    "alternate_name": "Benzeneacetic acid, 4-chloro-α-(1-methylethyl)-, cyano(3-phenoxyphenyl)methyl ester;SD 43775;WL 43775;S 5602;Sumicidin;Fenvalerate;Pydrin;Phenvalerate;Cyano(3-phenoxyphenyl)methyl 4-chloro-α-(1-methylethyl)benzeneacetate;Belmark;α-Cyano-3-phenoxybenzyl 2-(4-chlorophenyl)isovalerate;Aqmatrine;Fenval;Ectrin;Evercide 2362;Agrofen;Fenkill;SCS;Insectral;Furitrothion;Fenkem;Tribute;Sanmarton;Phenaxin;Phenoxin;Fenaxin;Fenoxin;Vapcocidin;Tatafen;Valour;Hafen;Tribute (insecticide)",
    "duplicated_cas_no": "131641-62-8",
    "SMILES": "C(C(OC(C#N)C1=CC(OC2=CC=CC=C2)=CC=C1)=O)(C(C)C)C3=CC=C(Cl)C=C3",
    "meta_data": {
        "InChI": "InChI=1S/C25H22ClNO3/c1-17(2)24(18-11-13-20(26)14-12-18)25(28)30-23(16-27)19-7-6-10-22(15-19)29-21-8-4-3-5-9-21/h3-15,17,23-24H,1-2H3",
        "InChIKey": null,
        "Canonical SMILES": "N#CC(OC(=O)C(C1=CC=C(Cl)C=C1)C(C)C)C=2C=CC=C(OC=3C=CC=CC3)C2",
        "Molecular Formula": "C<sub>25</sub>H<sub>22</sub>ClNO<sub>3</sub>",
        "Molecular Mass": "419.90",
        "Boiling Point": "300 °C @ Press: 37 Torr",
        "Melting Point": "45 °C",
        "Density": "1.17 g/cm³ @ Temp: 23 °C"
    }
}