{
    "cas_no": "91374-20-8",
    "key_name": "Ropinirole hydrochloride",
    "cn_name": "盐酸罗匹尼罗;4-[2-二正丙基胺乙基]-1,3-二氢-2H-吲哚-2-酮盐酸盐;",
    "alternate_name": "2<em>H</em>-Indol-2-one, 4-[2-(dipropylamino)ethyl]-1,3-dihydro-, hydrochloride (1:1);2<em>H</em>-Indol-2-one, 4-[2-(dipropylamino)ethyl]-1,3-dihydro-, monohydrochloride;SKF 101468 hydrochloride;Ropinirole hydrochloride;SKF 101468A;Requip;Parkirop;Ropitar;Ropark;Repreve;Ronirol;Adartrel;Spiroco XL;Ralnea XL;Clevor",
    "duplicated_cas_no": "115616-44-9",
    "SMILES": "C(CN(CCC)CCC)C1=C2C(NC(=O)C2)=CC=C1.Cl",
    "meta_data": {
        "InChI": "InChI=1S/C16H24N2O.ClH/c1-3-9-18(10-4-2)11-8-13-6-5-7-15-14(13)12-16(19)17-15;/h5-7H,3-4,8-12H2,1-2H3,(H,17,19);1H",
        "InChIKey": null,
        "Canonical SMILES": "Cl.O=C1NC2=CC=CC(=C2C1)CCN(CCC)CCC",
        "Molecular Formula": "C<sub>16</sub>H<sub>24</sub>N<sub>2</sub>O.ClH",
        "Molecular Mass": "",
        "Melting Point": "241-243 °C"
    }
}