{
    "cas_no": "613-91-2",
    "key_name": "Acetophenonoxime",
    "cn_name": "苯乙酮肟;",
    "alternate_name": "Ethanone, 1-phenyl-, oxime;Acetophenone, oxime;Acetophenonoxime;Methyl phenyl ketone oxime;Methyl phenyl ketoxime;NSC 3988;NSC 52223;NSC 627226;1-Phenylethanone oxime;Acetophenone oxime;1-Phenylethan-1-one oxime",
    "duplicated_cas_no": "",
    "SMILES": "C(=NO)(C)C1=CC=CC=C1",
    "meta_data": {
        "InChI": "InChI=1S/C8H9NO/c1-7(9-10)8-5-3-2-4-6-8/h2-6,10H,1H3",
        "InChIKey": null,
        "Canonical SMILES": "ON=C(C=1C=CC=CC1)C",
        "Molecular Formula": "C<sub>8</sub>H<sub>9</sub>NO",
        "Molecular Mass": "135.16",
        "Boiling Point": "245 °C",
        "Melting Point": "60 °C"
    }
}