{
    "cas_no": "104-86-9",
    "key_name": "4-Chlorobenzylamine",
    "cn_name": "对氯苄胺;对氯苯甲胺;",
    "alternate_name": "Benzenemethanamine, 4-chloro-;Benzylamine, <em>p</em>-chloro-;4-Chlorobenzenemethanamine;<em>p</em>-Chlorobenzylamine;4-Chlorobenzylamine;(<em>p</em>-Chlorophenyl)methylamine;(4-Chlorophenyl)methylamine;<em>p</em>-Chlorobenzenemethanamine;NSC 60119;1-(4-Chlorophenyl)methanamine;(4-Chlorophenyl)methanamine;(<em>p</em>-Aminomethyl)phenyl chloride",
    "duplicated_cas_no": "",
    "SMILES": "C(N)C1=CC=C(Cl)C=C1",
    "meta_data": {
        "InChI": "InChI=1S/C7H8ClN/c8-7-3-1-6(5-9)2-4-7/h1-4H,5,9H2",
        "InChIKey": null,
        "Canonical SMILES": "ClC1=CC=C(C=C1)CN",
        "Molecular Formula": "C<sub>7</sub>H<sub>8</sub>ClN",
        "Molecular Mass": "141.60",
        "Boiling Point": "115-117 °C @ Press: 15 Torr",
        "Melting Point": "277-278 °C"
    }
}