{
    "cas_no": "13335-71-2",
    "key_name": "2-(2,6-Dimethylphenoxy)acetic acid",
    "cn_name": "2,6-二甲基苯氧基乙酸;",
    "alternate_name": "Acetic acid, 2-(2,6-dimethylphenoxy)-;Acetic acid, (2,6-xylyloxy)-;Acetic acid, (2,6-dimethylphenoxy)-;2-(2,6-Dimethylphenoxy)acetic acid;(2,6-Dimethylphenoxy)acetic acid;NSC 408599",
    "duplicated_cas_no": "",
    "SMILES": "O(CC(O)=O)C1=C(C)C=CC=C1C",
    "meta_data": {
        "InChI": "InChI=1S/C10H12O3/c1-7-4-3-5-8(2)10(7)13-6-9(11)12/h3-5H,6H2,1-2H3,(H,11,12)",
        "InChIKey": null,
        "Canonical SMILES": "O=C(O)COC=1C(=CC=CC1C)C",
        "Molecular Formula": "C<sub>10</sub>H<sub>12</sub>O<sub>3</sub>",
        "Molecular Mass": "180.20",
        "Melting Point": "141 °C"
    }
}