{
    "cas_no": "6668-27-5",
    "key_name": "α-(1-Methylethyl)benzenemethanamine",
    "cn_name": null,
    "alternate_name": "Benzenemethanamine, α-(1-methylethyl)-;Benzylamine, α-isopropyl-;α-(1-Methylethyl)benzenemethanamine;2-Methyl-1-phenylpropylamine;α-Isopropylbenzylamine;1-Phenyl-2-methylpropylamine;2-Methyl-1-phenylpropan-1-amine;2-Methyl-1-phenyl-1-propylamine",
    "duplicated_cas_no": "42070-94-0",
    "SMILES": "C(C(C)C)(N)C1=CC=CC=C1",
    "meta_data": {
        "InChI": "InChI=1S/C10H15N/c1-8(2)10(11)9-6-4-3-5-7-9/h3-8,10H,11H2,1-2H3",
        "InChIKey": null,
        "Canonical SMILES": "NC(C=1C=CC=CC1)C(C)C",
        "Molecular Formula": "C<sub>10</sub>H<sub>15</sub>N",
        "Molecular Mass": "149.23",
        "Boiling Point": "213-215 °C",
        "Melting Point": "289-290 °C"
    }
}