{
    "cas_no": "82640-04-8",
    "key_name": "Raloxifene hydrochloride",
    "cn_name": "盐酸雷洛昔芬;[6-羟基-2-(4-羟苯基)苯并[b]噻酚-3-基]-[4-[2-(1-哌啶基)乙氧基]-苯基]-甲酮盐酸盐;",
    "alternate_name": "Methanone, [6-hydroxy-2-(4-hydroxyphenyl)benzo[<em>b</em>]thien-3-yl][4-[2-(1-piperidinyl)ethoxy]phenyl]-, hydrochloride (1:1);Methanone, [6-hydroxy-2-(4-hydroxyphenyl)benzo[<em>b</em>]thien-3-yl][4-[2-(1-piperidinyl)ethoxy]phenyl]-, hydrochloride;LY 156758;Raloxifene hydrochloride;Evista;Keoxifene hydrochloride;Fiona;Bonebay;Reloxafine;Bontact;Ralofen;Ralista;2-(4-Hydroxyphenyl)-3-[4-[2-(piperidin-1-yl)ethoxy]benzoyl]-1-benzothiophen-6-ol hydrochloride;Optruma",
    "duplicated_cas_no": "2600799-89-9",
    "SMILES": "C(=O)(C1=C(SC=2C1=CC=C(O)C2)C3=CC=C(O)C=C3)C4=CC=C(OCCN5CCCCC5)C=C4.Cl",
    "meta_data": {
        "InChI": "InChI=1S/C28H27NO4S.ClH/c30-21-8-4-20(5-9-21)28-26(24-13-10-22(31)18-25(24)34-28)27(32)19-6-11-23(12-7-19)33-17-16-29-14-2-1-3-15-29;/h4-13,18,30-31H,1-3,14-17H2;1H",
        "InChIKey": null,
        "Canonical SMILES": "Cl.O=C(C1=CC=C(OCCN2CCCCC2)C=C1)C3=C(SC4=CC(O)=CC=C43)C=5C=CC(O)=CC5",
        "Molecular Formula": "C<sub>28</sub>H<sub>27</sub>NO<sub>4</sub>S.ClH",
        "Molecular Mass": "",
        "Melting Point": "258 °C"
    }
}