{
    "cas_no": "62-76-0",
    "key_name": "Sodium oxalate",
    "cn_name": "草酸钠;乙二酸钠;",
    "alternate_name": "Ethanedioic acid, sodium salt (1:2);Oxalic acid, disodium salt;Ethanedioic acid, disodium salt;Sodium oxalate;Disodium oxalate;CSN 1;Citroma",
    "duplicated_cas_no": "1620061-50-8",
    "SMILES": "C(C(O)=O)(O)=O.[Na]",
    "meta_data": {
        "InChI": "InChI=1S/C2H2O4.2Na/c3-1(4)2(5)6;;/h(H,3,4)(H,5,6);;",
        "InChIKey": null,
        "Canonical SMILES": "[Na].O=C(O)C(=O)O",
        "Molecular Formula": "C<sub>2</sub>H<sub>2</sub>O<sub>4</sub>.2Na",
        "Molecular Mass": "",
        "Melting Point": "260 °C (decomp)",
        "Density": "2.340 g/cm³"
    }
}