{
    "cas_no": "129630-17-7",
    "key_name": "Pyraflufen",
    "cn_name": null,
    "alternate_name": "Acetic acid, 2-[2-chloro-5-[4-chloro-5-(difluoromethoxy)-1-methyl-1<em>H</em>-pyrazol-3-yl]-4-fluorophenoxy]-;Acetic acid, [2-chloro-5-[4-chloro-5-(difluoromethoxy)-1-methyl-1<em>H</em>-pyrazol-3-yl]-4-fluorophenoxy]-;2-[2-Chloro-5-[4-chloro-5-(difluoromethoxy)-1-methyl-1<em>H</em>-pyrazol-3-yl]-4-fluorophenoxy]acetic acid;Pyraflufen;E 1;2-Chloro-5-(4-chloro-5-difluoromethoxy-1-methylpyrazol-3-yl)-4-fluorophenoxyacetic acid",
    "duplicated_cas_no": "",
    "SMILES": "ClC=1C(=NN(C)C1OC(F)F)C2=CC(OCC(O)=O)=C(Cl)C=C2F",
    "meta_data": {
        "InChI": "InChI=1S/C13H9Cl2F3N2O4/c1-20-12(24-13(17)18)10(15)11(19-20)5-2-8(23-4-9(21)22)6(14)3-7(5)16/h2-3,13H,4H2,1H3,(H,21,22)",
        "InChIKey": null,
        "Canonical SMILES": "O=C(O)COC1=CC(=C(F)C=C1Cl)C2=NN(C(OC(F)F)=C2Cl)C",
        "Molecular Formula": "C<sub>13</sub>H<sub>9</sub>Cl<sub>2</sub>F<sub>3</sub>N<sub>2</sub>O<sub>4</sub>",
        "Molecular Mass": "385.12",
        "Melting Point": "126.5 °C"
    }
}