{
    "cas_no": "13894-63-8",
    "key_name": "Methyl (<em>E</em>)-2-hexenoate",
    "cn_name": null,
    "alternate_name": "2-Hexenoic acid, methyl ester, (2<em>E</em>)-;2-Hexenoic acid, methyl ester, (<em>E</em>)-;Methyl (<em>E</em>)-2-hexenoate;Methyl <em>trans</em>-2-hexenoate;(2<em>E</em>)-2-Hexenoic acid methyl ester;Methyl (E)-hex-2-enoate",
    "duplicated_cas_no": "",
    "SMILES": "C(/C=C/CCC)(OC)=O",
    "meta_data": {
        "InChI": "InChI=1S/C7H12O2/c1-3-4-5-6-7(8)9-2/h5-6H,3-4H2,1-2H3/b6-5+",
        "InChIKey": null,
        "Canonical SMILES": "O=C(OC)C=CCCC",
        "Molecular Formula": "C<sub>7</sub>H<sub>12</sub>O<sub>2</sub>",
        "Molecular Mass": "128.17",
        "Boiling Point": "132-135 °C @ Press: 760 Torr"
    }
}