{
    "cas_no": "112-62-9",
    "key_name": "Methyl oleate",
    "cn_name": "油酸甲酯;",
    "alternate_name": "9-Octadecenoic acid (9<em>Z</em>)-, methyl ester;Oleic acid, methyl ester;9-Octadecenoic acid (<em>Z</em>)-, methyl ester;Emery 2301;Methyl oleate;Emerest 2801;Methyl (<em>Z</em>)-9-octadecenoate;Methyl <em>cis</em>-9-octadecenoate;<em>cis</em>-9-Octadecenoic acid methyl ester;Edenor MeTiO<sub>5</sub>;Witconol 2301;(<em>Z</em>)-9-Octadecenoic acid methyl ester;Esterol 112;Priolube 1403;Nissan Unister M 182A;Exceparl M-OL;Unister M 182A;ADJ 100;Phytorob 926-67;Edenor Me 90/95V;Radia 7060;Agnique ME 181U;Carolube 1885;Agrique ME 181-1;Priolube 1400;Synative ES-ME-V;CE 1897;Pernil MeTiO5;Synative ES ME TI 05;<em>cis</em>-Oleic acid methyl ester;Amesolv CME;M 182A;Ti 05;Methyl (9Z)-9-octadecenoate;Toenol 2180;Agnique ME 181;Exceparl MOL;Trilube 11",
    "duplicated_cas_no": "139152-82-2;228858-36-4",
    "SMILES": "C(CC/C=C\\CCCCCCCC)CCCCC(OC)=O",
    "meta_data": {
        "InChI": "InChI=1S/C19H36O2/c1-3-4-5-6-7-8-9-10-11-12-13-14-15-16-17-18-19(20)21-2/h10-11H,3-9,12-18H2,1-2H3/b11-10-",
        "InChIKey": null,
        "Canonical SMILES": "O=C(OC)CCCCCCCC=CCCCCCCCC",
        "Molecular Formula": "C<sub>19</sub>H<sub>36</sub>O<sub>2</sub>",
        "Molecular Mass": "296.49",
        "Boiling Point": "218.5 °C @ Press: 20 Torr",
        "Melting Point": "-19.9 °C",
        "Density": "0.8739 g/cm³ @ Temp: 20 °C"
    }
}