{
    "cas_no": "1450-76-6",
    "key_name": "1-(2-Hydroxy-5-nitrophenyl)ethanone",
    "cn_name": "2-羟基-5-硝基苯乙酮;",
    "alternate_name": "Ethanone, 1-(2-hydroxy-5-nitrophenyl)-;Acetophenone, 2′-hydroxy-5′-nitro-;1-(2-Hydroxy-5-nitrophenyl)ethanone;2′-Hydroxy-5′-nitroacetophenone;5′-Nitro-2′-hydroxyacetophenone;2-Acetyl-4-nitrophenol;NSC 64461;1-(2-Hydroxy-5-nitrophenyl)ethan-1-one",
    "duplicated_cas_no": "",
    "SMILES": "C(C)(=O)C1=CC(N(=O)=O)=CC=C1O",
    "meta_data": {
        "InChI": "InChI=1S/C8H7NO4/c1-5(10)7-4-6(9(12)13)2-3-8(7)11/h2-4,11H,1H3",
        "InChIKey": null,
        "Canonical SMILES": "O=C(C1=CC(=CC=C1O)N(=O)=O)C",
        "Molecular Formula": "C<sub>8</sub>H<sub>7</sub>NO<sub>4</sub>",
        "Molecular Mass": "181.15",
        "Melting Point": "99.5 °C"
    }
}