{
    "cas_no": "1120-48-5",
    "key_name": "Dioctylamine",
    "cn_name": "二正辛胺;",
    "alternate_name": "1-Octanamine, <em>N</em>-octyl-;Dioctylamine;<em>N</em>-Octyl-1-octanamine;RC 5632;Di-<em>n</em>-Octylamine;<em>N</em>-<em>n</em>-Octyl-<em>n</em>-octylamine;NSC 1765;<em>N</em>,<em>N</em>-Dioctylamine",
    "duplicated_cas_no": "52550-92-2",
    "SMILES": "N(CCCCCCCC)CCCCCCCC",
    "meta_data": {
        "InChI": "InChI=1S/C16H35N/c1-3-5-7-9-11-13-15-17-16-14-12-10-8-6-4-2/h17H,3-16H2,1-2H3",
        "InChIKey": null,
        "Canonical SMILES": "N(CCCCCCCC)CCCCCCCC",
        "Molecular Formula": "C<sub>16</sub>H<sub>35</sub>N",
        "Molecular Mass": "241.46",
        "Boiling Point": "297.5 °C",
        "Melting Point": "35.5 °C",
        "Density": "0.7985 g/cm³ @ Temp: 20 °C"
    }
}