{
    "cas_no": "10397-13-4",
    "key_name": "4-(4,6-Dichloropyrimidin-2-yl)morpholine",
    "cn_name": "2-吗啉基-4,6-二氯嘧啶;",
    "alternate_name": "Morpholine, 4-(4,6-dichloro-2-pyrimidinyl)-;4-(4,6-Dichloro-2-pyrimidinyl)morpholine;4,6-Dichloro-2-(4-morpholinyl)pyrimidine;4,6-Dichloro-2-morpholinopyrimidine;2-Morpholino-4,6-dichloropyrimidine;4-(4,6-Dichloropyrimidin-2-yl)morpholine",
    "duplicated_cas_no": "",
    "SMILES": "ClC1=NC(=NC(Cl)=C1)N2CCOCC2",
    "meta_data": {
        "InChI": "InChI=1S/C8H9Cl2N3O/c9-6-5-7(10)12-8(11-6)13-1-3-14-4-2-13/h5H,1-4H2",
        "InChIKey": null,
        "Canonical SMILES": "ClC=1N=C(N=C(Cl)C1)N2CCOCC2",
        "Molecular Formula": "C<sub>8</sub>H<sub>9</sub>Cl<sub>2</sub>N<sub>3</sub>O",
        "Molecular Mass": "234.08",
        "Melting Point": "105.5-108.0 °C"
    }
}