{
    "cas_no": "4022-81-5",
    "key_name": "Imidodicarbonimidic diamide, <em>N</em>-(4-chlorophenyl)-, hydrochloride (1:1)",
    "cn_name": "1-(4-氯苯基)双胍盐酸盐;1-(4-氯苯基)双胍盐酸盐;",
    "alternate_name": "Imidodicarbonimidic diamide, <em>N</em>-(4-chlorophenyl)-, hydrochloride (1:1);Biguanide, 1-(<em>p</em>-chlorophenyl)-, monohydrochloride;Imidodicarbonimidic diamide, <em>N</em>-(4-chlorophenyl)-, monohydrochloride;1-(<em>p</em>-Chlorophenyl)biguanide monohydrochloride;<em>N</em>-<em>p</em>-Chlorophenylbiguanide hydrochloride;1-(<em>p</em>-Chlorophenyl)biguanide hydrochloride;<em>N</em>-(4-Chlorophenyl)imidodicarbonimidic diamide monohydrochloride;[[(4-Chloroanilino)(imino)methyl]amino]methanimidamide hydrochloride;1-(4-Chlorophenyl)biguanide hydrochloride",
    "duplicated_cas_no": "402846-55-3",
    "SMILES": "N(C(NC(=N)N)=N)C1=CC=C(Cl)C=C1.Cl",
    "meta_data": {
        "InChI": "InChI=1S/C8H10ClN5.ClH/c9-5-1-3-6(4-2-5)13-8(12)14-7(10)11;/h1-4H,(H6,10,11,12,13,14);1H",
        "InChIKey": null,
        "Canonical SMILES": "Cl.ClC1=CC=C(C=C1)NC(=N)NC(=N)N",
        "Molecular Formula": "C<sub>8</sub>H<sub>10</sub>ClN<sub>5</sub>.ClH",
        "Molecular Mass": "",
        "Melting Point": "253-254 °C"
    }
}