{
    "cas_no": "95-56-7",
    "key_name": "2-Bromophenol",
    "cn_name": "2-溴苯酚;邻溴苯酚;",
    "alternate_name": "Phenol, 2-bromo-;Phenol, <em>o</em>-bromo-;2-Bromophenol;<em>o</em>-Bromophenol;NSC 6970;2-Hydroxy-1-bromobenzene;2-Bromo-3-hydroxybenzene",
    "duplicated_cas_no": "",
    "SMILES": "BrC1=C(O)C=CC=C1",
    "meta_data": {
        "InChI": "InChI=1S/C6H5BrO/c7-5-3-1-2-4-6(5)8/h1-4,8H",
        "InChIKey": null,
        "Canonical SMILES": "BrC=1C=CC=CC1O",
        "Molecular Formula": "C<sub>6</sub>H<sub>5</sub>BrO",
        "Molecular Mass": "173.01",
        "Boiling Point": "194.5 °C",
        "Melting Point": "5.6 °C"
    }
}