{
    "cas_no": "113583-35-0",
    "key_name": "4,6-Dimethoxy-2-(methylsulfonyl)pyrimidine",
    "cn_name": "4,6-二甲氧基-2-甲磺酰基嘧啶;",
    "alternate_name": "Pyrimidine, 4,6-dimethoxy-2-(methylsulfonyl)-;4,6-Dimethoxy-2-(methylsulfonyl)pyrimidine;2-Methanesulfonyl-4,6-dimethoxypyrimidine;2-(Methylsulfonyl)-4,6-dimethoxypyrimidine",
    "duplicated_cas_no": "",
    "SMILES": "S(C)(=O)(=O)C=1N=C(OC)C=C(OC)N1",
    "meta_data": {
        "InChI": "InChI=1S/C7H10N2O4S/c1-12-5-4-6(13-2)9-7(8-5)14(3,10)11/h4H,1-3H3",
        "InChIKey": null,
        "Canonical SMILES": "O=S(=O)(C1=NC(OC)=CC(=N1)OC)C",
        "Molecular Formula": "C<sub>7</sub>H<sub>10</sub>N<sub>2</sub>O<sub>4</sub>S",
        "Molecular Mass": "218.23",
        "Melting Point": "125-126 °C"
    }
}