{
    "cas_no": "39515-51-0",
    "key_name": "3-Phenoxybenzaldehyde",
    "cn_name": "间苯氧基苯甲醛;",
    "alternate_name": "Benzaldehyde, 3-phenoxy-;3-Phenoxybenzaldehyde;<em>m</em>-Phenoxybenzaldehyde;<em>m</em>-(Phenyloxy)benzaldehyde;m-Phenoxybenzaldehyde;5-Phenoxybenzaldehyde",
    "duplicated_cas_no": "",
    "SMILES": "O(C1=CC(C=O)=CC=C1)C2=CC=CC=C2",
    "meta_data": {
        "InChI": "InChI=1S/C13H10O2/c14-10-11-5-4-8-13(9-11)15-12-6-2-1-3-7-12/h1-10H",
        "InChIKey": null,
        "Canonical SMILES": "O=CC=1C=CC=C(OC=2C=CC=CC2)C1",
        "Molecular Formula": "C<sub>13</sub>H<sub>10</sub>O<sub>2</sub>",
        "Molecular Mass": "198.22",
        "Boiling Point": "140 °C",
        "Melting Point": "153 °C"
    }
}