{
    "cas_no": "573-11-5",
    "key_name": "2,3,4-Trimethoxybenzoic acid",
    "cn_name": "2,3,4-三甲氧基苯甲酸;",
    "alternate_name": "Benzoic acid, 2,3,4-trimethoxy-;2,3,4-Trimethoxybenzoic acid",
    "duplicated_cas_no": "",
    "SMILES": "O(C)C1=C(OC)C(OC)=CC=C1C(O)=O",
    "meta_data": {
        "InChI": "InChI=1S/C10H12O5/c1-13-7-5-4-6(10(11)12)8(14-2)9(7)15-3/h4-5H,1-3H3,(H,11,12)",
        "InChIKey": null,
        "Canonical SMILES": "O=C(O)C1=CC=C(OC)C(OC)=C1OC",
        "Molecular Formula": "C<sub>10</sub>H<sub>12</sub>O<sub>5</sub>",
        "Molecular Mass": "212.20",
        "Boiling Point": "142-146 °C @ Press: 0.5 Torr",
        "Melting Point": "100.5 °C"
    }
}