{
    "cas_no": "70-30-4",
    "key_name": "Hexachlorophene",
    "cn_name": "六氯芬;灭菌酚;2,2\"-亚甲基双(3,4,6-三氯苯酚);",
    "alternate_name": "Phenol, 2,2′-methylenebis[3,4,6-trichloro-;2,2′-Methylenebis[3,4,6-trichlorophenol];AT 7;G 11 (bactericide);Almederm;Bis(3,5,6-trichloro-2-hydroxyphenyl)methane;2,2′-Dihydroxy-3,3′,5,5′,6,6′-hexachlorodiphenylmethane;2,2′-Dihydroxy-3,5,6,3′,5′,6′-hexachlorodiphenylmethane;Exofene;Fostril;Gamophen;Gamophene;Germa-Medica;Hexachlorophen;Hexachlorophene;Hexophene;Hexosan;Septisol;Steral;Surgi-Cen;Surofene;Nabac;Bis(2-hydroxy-3,5,6-trichlorophenyl)methane;Neosept V;pHisoHex;Cotofilm;2,2′,3,3′,5,5′-Hexachloro-6,6′-dihydroxydiphenylmethane;B 32;Ritosept;Hexachlorofen;Acigena;Tersaseptic;Hexabalm;Septofen;Hexafen;Steraskin;Distodin;Fesia-sin;G 11;Dermadex;Bilevon;Soy-Dome;NSC 49115;NSC 9887;MeSH ID: D006582",
    "duplicated_cas_no": "139411-96-4;8054-98-6;1195388-85-2",
    "SMILES": "C(C1=C(Cl)C(Cl)=CC(Cl)=C1O)C2=C(Cl)C(Cl)=CC(Cl)=C2O",
    "meta_data": {
        "InChI": "InChI=1S/C13H6Cl6O2/c14-6-2-8(16)12(20)4(10(6)18)1-5-11(19)7(15)3-9(17)13(5)21/h2-3,20-21H,1H2",
        "InChIKey": null,
        "Canonical SMILES": "ClC=1C=C(Cl)C(O)=C(C1Cl)CC=2C(Cl)=C(Cl)C=C(Cl)C2O",
        "Molecular Formula": "C<sub>13</sub>H<sub>6</sub>Cl<sub>6</sub>O<sub>2</sub>",
        "Molecular Mass": "406.90",
        "Boiling Point": "479 °C",
        "Melting Point": "164-165 °C"
    }
}