{
    "cas_no": "129968-11-2",
    "key_name": "Benzenamine, 2-bromo-5-methoxy-, hydrochloride (1:1)",
    "cn_name": "2-Bromo-5-methoxyaniline;",
    "alternate_name": "Benzenamine, 2-bromo-5-methoxy-, hydrochloride (1:1);Benzenamine, 2-bromo-5-methoxy-, hydrochloride;2-Bromo-5-methoxyaniline hydrochloride",
    "duplicated_cas_no": "",
    "SMILES": "O(C)C1=CC(N)=C(Br)C=C1.Cl",
    "meta_data": {
        "InChI": "InChI=1S/C7H8BrNO.ClH/c1-10-5-2-3-6(8)7(9)4-5;/h2-4H,9H2,1H3;1H",
        "InChIKey": null,
        "Canonical SMILES": "Cl.BrC1=CC=C(OC)C=C1N",
        "Molecular Formula": "C<sub>7</sub>H<sub>8</sub>BrNO.ClH",
        "Molecular Mass": "",
        "Melting Point": "186 °C"
    }
}