{
    "cas_no": "7003-32-9",
    "key_name": "2-Methylcyclohexylamine",
    "cn_name": "2-甲基环己胺;邻甲基环己胺;",
    "alternate_name": "Cyclohexanamine, 2-methyl-;Cyclohexylamine, 2-methyl-;2-Methylcyclohexanamine;<em>o</em>-Methylcyclohexylamine;2-Methylcyclohexylamine;NSC 27455;1-Amino-2-methylcyclohexane;2-Methylcyclohexan-1-amine",
    "duplicated_cas_no": "",
    "SMILES": "CC1C(N)CCCC1",
    "meta_data": {
        "InChI": "InChI=1S/C7H15N/c1-6-4-2-3-5-7(6)8/h6-7H,2-5,8H2,1H3",
        "InChIKey": null,
        "Canonical SMILES": "NC1CCCCC1C",
        "Molecular Formula": "C<sub>7</sub>H<sub>15</sub>N",
        "Molecular Mass": "113.20",
        "Boiling Point": "150 °C",
        "Density": "0.8836 g/cm³"
    }
}