{
    "cas_no": "637-53-6",
    "key_name": "<em>N</em>-Phenylethanethioamide",
    "cn_name": "硫代乙酰苯胺;N-苯基硫代乙酰胺;",
    "alternate_name": "Ethanethioamide, <em>N</em>-phenyl-;Acetanilide, thio-;<em>N</em>-Phenylethanethioamide;Thioacetanilide;<em>N</em>-Phenylthioacetamide;NSC 36984",
    "duplicated_cas_no": "22768-70-3",
    "SMILES": "N(C(C)=S)C1=CC=CC=C1",
    "meta_data": {
        "InChI": "InChI=1S/C8H9NS/c1-7(10)9-8-5-3-2-4-6-8/h2-6H,1H3,(H,9,10)",
        "InChIKey": null,
        "Canonical SMILES": "S=C(NC=1C=CC=CC1)C",
        "Molecular Formula": "C<sub>8</sub>H<sub>9</sub>NS",
        "Molecular Mass": "151.23",
        "Melting Point": "76-79 °C"
    }
}