{
    "cas_no": "527-62-8",
    "key_name": "2-Amino-4,6-dichlorophenol",
    "cn_name": "2-氨基-4,6-二氯苯酚;",
    "alternate_name": "Phenol, 2-amino-4,6-dichloro-;2-Amino-4,6-dichlorophenol;2,4-Dichloro-6-aminophenol;4,6-Dichloro-<em>o</em>-aminophenol;4,6-Dichloro-2-aminophenol;6-Amino-2,4-dichlorophenol;NSC 658464;2-Amino-4,6-dichloro-1-hydroxybenzene",
    "duplicated_cas_no": "",
    "SMILES": "OC1=C(Cl)C=C(Cl)C=C1N",
    "meta_data": {
        "InChI": "InChI=1S/C6H5Cl2NO/c7-3-1-4(8)6(10)5(9)2-3/h1-2,10H,9H2",
        "InChIKey": null,
        "Canonical SMILES": "ClC=1C=C(Cl)C(O)=C(N)C1",
        "Molecular Formula": "C<sub>6</sub>H<sub>5</sub>Cl<sub>2</sub>NO",
        "Molecular Mass": "178.02",
        "Melting Point": "95.5 °C"
    }
}