{
    "cas_no": "86811-58-7",
    "key_name": "Fluazuron",
    "cn_name": "吡虫隆;啶蜱脲;1-[4-氯-3-(3-氯-5-三氟甲基-2-吡啶氧基)苯基]-3-(2,6-二氟苯甲酰)脲;",
    "alternate_name": "Benzamide, <em>N</em>-[[[4-chloro-3-[[3-chloro-5-(trifluoromethyl)-2-pyridinyl]oxy]phenyl]amino]carbonyl]-2,6-difluoro-;<em>N</em>-[[[4-Chloro-3-[[3-chloro-5-(trifluoromethyl)-2-pyridinyl]oxy]phenyl]amino]carbonyl]-2,6-difluorobenzamide;Fluazuron;CGA 157419;Acatak",
    "duplicated_cas_no": "",
    "SMILES": "O(C1=CC(NC(NC(=O)C2=C(F)C=CC=C2F)=O)=CC=C1Cl)C3=C(Cl)C=C(C(F)(F)F)C=N3",
    "meta_data": {
        "InChI": "InChI=1S/C20H10Cl2F5N3O3/c21-11-5-4-10(29-19(32)30-17(31)16-13(23)2-1-3-14(16)24)7-15(11)33-18-12(22)6-9(8-28-18)20(25,26)27/h1-8H,(H2,29,30,31,32)",
        "InChIKey": null,
        "Canonical SMILES": "O=C(NC(=O)C=1C(F)=CC=CC1F)NC2=CC=C(Cl)C(OC3=NC=C(C=C3Cl)C(F)(F)F)=C2",
        "Molecular Formula": "C<sub>20</sub>H<sub>10</sub>Cl<sub>2</sub>F<sub>5</sub>N<sub>3</sub>O<sub>3</sub>",
        "Molecular Mass": "506.21",
        "Melting Point": "219 °C (decomp)"
    }
}