{
    "cas_no": "131-17-9",
    "key_name": "Diallyl phthalate",
    "cn_name": "邻苯二甲酸二烯丙酯;",
    "alternate_name": "1,2-Benzenedicarboxylic acid, 1,2-di-2-propen-1-yl ester;Phthalic acid, diallyl ester;1,2-Benzenedicarboxylic acid, di-2-propenyl ester;Dapon R;Diallyl phthalate;Allyl phthalate;Dappu;DAP-M;DT 170;DAP Monomer;Dap Tohto DT 170;NSC 7667;Daiso DAP monomer;KY 5200;DAP;Monoplex DAP;DCP-A",
    "duplicated_cas_no": "124743-27-7;143318-73-4",
    "SMILES": "C(OCC=C)(=O)C1=C(C(OCC=C)=O)C=CC=C1",
    "meta_data": {
        "InChI": "InChI=1S/C14H14O4/c1-3-9-17-13(15)11-7-5-6-8-12(11)14(16)18-10-4-2/h3-8H,1-2,9-10H2",
        "InChIKey": null,
        "Canonical SMILES": "O=C(OCC=C)C=1C=CC=CC1C(=O)OCC=C",
        "Molecular Formula": "C<sub>14</sub>H<sub>14</sub>O<sub>4</sub>",
        "Molecular Mass": "246.26",
        "Boiling Point": "158-165 °C @ Press: 4 Torr",
        "Melting Point": "-70 °C",
        "Density": "1.120 g/cm³ @ Temp: 20 °C"
    }
}