{
    "cas_no": "18368-63-3",
    "key_name": "2-Chloro-6-methylpyridine",
    "cn_name": "2-甲基-6-氯吡啶;2-氯-6-甲基吡啶;",
    "alternate_name": "Pyridine, 2-chloro-6-methyl-;2-Picoline, 6-chloro-;2-Chloro-6-methylpyridine;2-Chloro-6-picoline;6-Chloro-2-picoline;6-Methyl-2-chloropyridine;6-Chloro-2-methylpyridine",
    "duplicated_cas_no": "",
    "SMILES": "CC=1N=C(Cl)C=CC1",
    "meta_data": {
        "InChI": "InChI=1S/C6H6ClN/c1-5-3-2-4-6(7)8-5/h2-4H,1H3",
        "InChIKey": null,
        "Canonical SMILES": "ClC=1N=C(C=CC1)C",
        "Molecular Formula": "C<sub>6</sub>H<sub>6</sub>ClN",
        "Molecular Mass": "127.57",
        "Boiling Point": "183.5 °C",
        "Density": "1.1506 g/cm³ @ Temp: 420 °C"
    }
}