{
    "cas_no": "20780-78-3",
    "key_name": "7-Iodoisatin",
    "cn_name": null,
    "alternate_name": "1<em>H</em>-Indole-2,3-dione, 7-iodo-;Indole-2,3-dione, 7-iodo-;Isatin, 7-iodo-;7-Iodo-1<em>H</em>-indole-2,3-dione;7-Iodoisatin;7-Iodoindoline-2,3-dione",
    "duplicated_cas_no": "",
    "SMILES": "O=C1C=2C(=C(I)C=CC2)NC1=O",
    "meta_data": {
        "InChI": "InChI=1S/C8H4INO2/c9-5-3-1-2-4-6(5)10-8(12)7(4)11/h1-3H,(H,10,11,12)",
        "InChIKey": null,
        "Canonical SMILES": "O=C1NC=2C(I)=CC=CC2C1=O",
        "Molecular Formula": "C<sub>8</sub>H<sub>4</sub>INO<sub>2</sub>",
        "Molecular Mass": "273.03",
        "Melting Point": "209 °C"
    }
}