{
    "cas_no": "1449-46-3",
    "key_name": "Phosphonium, triphenyl(phenylmethyl)-, bromide (1:1)",
    "cn_name": "苄基三苯基溴化膦;三苯基苄基溴化膦;",
    "alternate_name": "Phosphonium, triphenyl(phenylmethyl)-, bromide (1:1);Phosphonium, benzyltriphenyl-, bromide;Phosphonium, triphenyl(phenylmethyl)-, bromide;Benzyltriphenylphosphonium bromide;Triphenylbenzylphosphonium bromide;(Phenylmethyl)triphenylphosphonium bromide;U-CAT SA 5003;Triphenyl(phenylmethyl)phosphonium bromide;NSC 54813;Bromo(benzyl)triphenylphosphorane;PX 2H;B 2025",
    "duplicated_cas_no": "20767-31-1;1437255-82-7",
    "SMILES": "[P+](CC1=CC=CC=C1)(C2=CC=CC=C2)(C3=CC=CC=C3)C4=CC=CC=C4.[Br-]",
    "meta_data": {
        "InChI": "InChI=1S/C25H22P.BrH/c1-5-13-22(14-6-1)21-26(23-15-7-2-8-16-23,24-17-9-3-10-18-24)25-19-11-4-12-20-25;/h1-20H,21H2;1H/q+1;/p-1",
        "InChIKey": null,
        "Canonical SMILES": "[Br-].C=1C=CC(=CC1)C[P+](C=2C=CC=CC2)(C=3C=CC=CC3)C=4C=CC=CC4",
        "Molecular Formula": "C<sub>25</sub>H<sub>22</sub>P.Br",
        "Molecular Mass": "",
        "Melting Point": "288 °C"
    }
}