{
    "cas_no": "27298-98-2",
    "key_name": "(-)-1-(4-Methylphenyl)ethylamine",
    "cn_name": "(S)-1-(4-甲基苯基)乙胺;",
    "alternate_name": "Benzenemethanamine, α,4-dimethyl-, (α<em>S</em>)-;Benzylamine, <em>p</em>,α-dimethyl-, (<em>S</em>)-(-)-;Benzenemethanamine, α,4-dimethyl-, (<em>S</em>)-;(α<em>S</em>)-α,4-Dimethylbenzenemethanamine;(-)-1-(<em>p</em>-Tolyl)ethylamine;(<em>S</em>)-(-)-<em>p</em>,α-Dimethylbenzylamine;(<em>S</em>)-α,4-Dimethylbenzylamine;(-)-<em>p</em>-Methyl-α-phenylethylamine;(<em>S</em>)-1-(<em>p</em>-Tolyl)ethylamine;(<em>S</em>)-1-(4-Methylphenyl)ethylamine;(<em>S</em>)-1-(<em>p</em>-Methylphenyl)ethylamine;(<em>S</em>)-(-)-1-(4-Methylphenyl)ethylamine;(1<em>S</em>)-(<em>p</em>-Tolyl)ethylamine;(-)-1-(4-Methylphenyl)ethylamine;(1<em>S</em>)-1-(4-Methylphenyl)ethanamine;<em>N</em>-[(1<em>S</em>)-1-(4-Methylphenyl)ethyl]amine;(<em>S</em>)-1-(<em>p</em>-Tolyl)ethanamine;(<em>S</em>)-(-)-4-Methyl-α-methylbenzylamine;(1S)-1-(4-Methylphenyl)ethanamine",
    "duplicated_cas_no": "",
    "SMILES": "[C@@H](C)(N)C1=CC=C(C)C=C1",
    "meta_data": {
        "InChI": "InChI=1S/C9H13N/c1-7-3-5-9(6-4-7)8(2)10/h3-6,8H,10H2,1-2H3/t8-/m0/s1",
        "InChIKey": null,
        "Canonical SMILES": "NC(C1=CC=C(C=C1)C)C",
        "Molecular Formula": "C<sub>9</sub>H<sub>13</sub>N",
        "Molecular Mass": "135.21",
        "Boiling Point": "85-86 °C @ Press: 30 Torr"
    }
}