{
    "cas_no": "51639-48-6",
    "key_name": "1-(4-Acetylphenyl)piperazine",
    "cn_name": "4-哌嗪苯乙酮;4\"-哌嗪苯乙酮;",
    "alternate_name": "Ethanone, 1-[4-(1-piperazinyl)phenyl]-;1-[4-(1-Piperazinyl)phenyl]ethanone;<em>N</em>-(4-Acetylphenyl)piperazine;1-[4-(1-Piperazinyl)phenyl]-1-ethanone;4′-Piperazinoacetophenone;1-(<em>p</em>-Acetylphenyl)piperazine;4-(4-Acetylphenyl)piperazine;1-(4-Piperazin-1-ylphenyl)ethanone;NSC 109890;4-(Piperazin-1-yl)acetophenone;1-(4-Acetylphenyl)piperazine",
    "duplicated_cas_no": "",
    "SMILES": "C(C)(=O)C1=CC=C(C=C1)N2CCNCC2",
    "meta_data": {
        "InChI": "InChI=1S/C12H16N2O/c1-10(15)11-2-4-12(5-3-11)14-8-6-13-7-9-14/h2-5,13H,6-9H2,1H3",
        "InChIKey": null,
        "Canonical SMILES": "O=C(C1=CC=C(C=C1)N2CCNCC2)C",
        "Molecular Formula": "C<sub>12</sub>H<sub>16</sub>N<sub>2</sub>O",
        "Molecular Mass": "204.27",
        "Melting Point": "95 °C"
    }
}