{
    "cas_no": "2164-67-2",
    "key_name": "2-Amino-4-pyrimidinemethanol",
    "cn_name": null,
    "alternate_name": "4-Pyrimidinemethanol, 2-amino-;2-Amino-4-pyrimidinemethanol;2-Amino-4-hydroxymethylpyrimidine;(2-Aminopyrimidin-4-yl)methanol",
    "duplicated_cas_no": "",
    "SMILES": "C(O)C1=NC(N)=NC=C1",
    "meta_data": {
        "InChI": "InChI=1S/C5H7N3O/c6-5-7-2-1-4(3-9)8-5/h1-2,9H,3H2,(H2,6,7,8)",
        "InChIKey": null,
        "Canonical SMILES": "OCC1=NC(=NC=C1)N",
        "Molecular Formula": "C<sub>5</sub>H<sub>7</sub>N<sub>3</sub>O",
        "Molecular Mass": "125.13",
        "Melting Point": "145 °C"
    }
}