{
    "cas_no": "625095-57-0",
    "key_name": "(1<em>S</em>)-1-(3-Chlorophenyl)-1,3-propanediol",
    "cn_name": null,
    "alternate_name": "1,3-Propanediol, 1-(3-chlorophenyl)-, (1<em>S</em>)-;(1<em>S</em>)-1-(3-Chlorophenyl)-1,3-propanediol;(<em>S</em>)-1-(3-Chlorophenyl)-1,3-propanediol;(1<em>S</em>)-(-)-1-(3-Chlorophenyl)-1,3-propanediol;1,3-Propanediol 1-(3-chlorophenyl)-, (1S)-;(<em>S</em>)-(-)-1-(3-Chlorophenyl)-1,3-propanediol",
    "duplicated_cas_no": "",
    "SMILES": "[C@@H](CCO)(O)C1=CC(Cl)=CC=C1",
    "meta_data": {
        "InChI": "InChI=1S/C9H11ClO2/c10-8-3-1-2-7(6-8)9(12)4-5-11/h1-3,6,9,11-12H,4-5H2/t9-/m0/s1",
        "InChIKey": null,
        "Canonical SMILES": "ClC1=CC=CC(=C1)C(O)CCO",
        "Molecular Formula": "C<sub>9</sub>H<sub>11</sub>ClO<sub>2</sub>",
        "Molecular Mass": "186.64",
        "Boiling Point": "142-144 °C @ Press: 0.2 mmHg"
    }
}