{
    "cas_no": "54143-56-5",
    "key_name": "Flecainide acetate",
    "cn_name": null,
    "alternate_name": "Benzamide, <em>N</em>-(2-piperidinylmethyl)-2,5-bis(2,2,2-trifluoroethoxy)-, acetate (1:1);Benzamide, <em>N</em>-(2-piperidinylmethyl)-2,5-bis(2,2,2-trifluoroethoxy)-, monoacetate;R 818;Flecainide acetate;(±)-Flecainide acetate;Tambocor;2,5-Bis(2,2,2-trifluoroethoxy)-<em>N</em>-(2-piperidylmethyl)benzamide acetate;Apocard;Ecrinal;Almarytm;R 818 (pharmaceutical)",
    "duplicated_cas_no": "99495-88-2",
    "SMILES": "C(NCC1CCCCN1)(=O)C2=C(OCC(F)(F)F)C=CC(OCC(F)(F)F)=C2.C(C)(O)=O",
    "meta_data": {
        "InChI": "InChI=1S/C17H20F6N2O3.C2H4O2/c18-16(19,20)9-27-12-4-5-14(28-10-17(21,22)23)13(7-12)15(26)25-8-11-3-1-2-6-24-11;1-2(3)4/h4-5,7,11,24H,1-3,6,8-10H2,(H,25,26);1H3,(H,3,4)",
        "InChIKey": null,
        "Canonical SMILES": "O=C(O)C.O=C(NCC1NCCCC1)C2=CC(OCC(F)(F)F)=CC=C2OCC(F)(F)F",
        "Molecular Formula": "C<sub>17</sub>H<sub>20</sub>F<sub>6</sub>N<sub>2</sub>O<sub>3</sub>.C<sub>2</sub>H<sub>4</sub>O<sub>2</sub>",
        "Molecular Mass": "",
        "Melting Point": "145-147 °C"
    }
}