{
    "cas_no": "118-96-7",
    "key_name": "2,4,6-Trinitrotoluene",
    "cn_name": "2,4,6-三硝基甲苯;2-甲基-1,3,5-三硝基苯;梯恩梯;梯恩梯;TNT;",
    "alternate_name": "Benzene, 2-methyl-1,3,5-trinitro-;Toluene, 2,4,6-trinitro-;2-Methyl-1,3,5-trinitrobenzene;TNT;Tolite;<em>sym</em>-Trinitrotoluene;Trinitrotoluene;<em>sym</em>-Trinitrotoluol;Trotyl;α-TNT;2,4,6-Trinitrotoluene;Tritol;Tolit;Trotyl oil;1-Methyl-2,4,6-trinitrobenzene;Tritol (explosive);Gradetol;4-Methyl-1,3,5-trinitrobenzene;NSC 36949;MeSH ID: D014303",
    "duplicated_cas_no": "",
    "SMILES": "N(=O)(=O)C1=C(C)C(N(=O)=O)=CC(N(=O)=O)=C1",
    "meta_data": {
        "InChI": "InChI=1S/C7H5N3O6/c1-4-6(9(13)14)2-5(8(11)12)3-7(4)10(15)16/h2-3H,1H3",
        "InChIKey": null,
        "Canonical SMILES": "O=N(=O)C=1C=C(C(=C(C1)N(=O)=O)C)N(=O)=O",
        "Molecular Formula": "C<sub>7</sub>H<sub>5</sub>N<sub>3</sub>O<sub>6</sub>",
        "Molecular Mass": "227.13",
        "Boiling Point": "335-340 °C",
        "Melting Point": "80.1 °C",
        "Density": "1.654 g/cm³ @ Temp: 20 °C"
    }
}