{
    "cas_no": "14401-73-1",
    "key_name": "1-(3,5-Dibromophenyl)ethanone",
    "cn_name": "3,5-二溴苯乙酮;",
    "alternate_name": "Ethanone, 1-(3,5-dibromophenyl)-;Acetophenone, 3′,5′-dibromo-;1-(3,5-Dibromophenyl)ethanone;3,5-Dibromoacetophenone;3′,5′-Dibromoacetophenone",
    "duplicated_cas_no": "",
    "SMILES": "C(C)(=O)C1=CC(Br)=CC(Br)=C1",
    "meta_data": {
        "InChI": "InChI=1S/C8H6Br2O/c1-5(11)6-2-7(9)4-8(10)3-6/h2-4H,1H3",
        "InChIKey": null,
        "Canonical SMILES": "O=C(C=1C=C(Br)C=C(Br)C1)C",
        "Molecular Formula": "C<sub>8</sub>H<sub>6</sub>Br<sub>2</sub>O",
        "Molecular Mass": "277.94",
        "Boiling Point": "160-164 °C @ Press: 1-2 Torr",
        "Melting Point": "66 °C"
    }
}