{
    "cas_no": "5699-41-2",
    "key_name": "<em>N</em>-Acetylputrescine",
    "cn_name": null,
    "alternate_name": "Acetamide, <em>N</em>-(4-aminobutyl)-;<em>N</em>-(4-Aminobutyl)acetamide;Acetylputrescine;Monoacetylputrescine;Putrescine, <em>N</em>-acetyl-;<em>N</em>-Acetylputrescine;N<sup>1</sup>-Acetyl putrescine;(4-(Acetylamino)butyl)amine",
    "duplicated_cas_no": "",
    "SMILES": "C(NC(C)=O)CCCN",
    "meta_data": {
        "InChI": "InChI=1S/C6H14N2O/c1-6(9)8-5-3-2-4-7/h2-5,7H2,1H3,(H,8,9)",
        "InChIKey": null,
        "Canonical SMILES": "O=C(NCCCCN)C",
        "Molecular Formula": "C<sub>6</sub>H<sub>14</sub>N<sub>2</sub>O",
        "Molecular Mass": "130.19",
        "Boiling Point": "162-163 °C @ Press: 3 Torr"
    }
}