{
    "cas_no": "5193-88-4",
    "key_name": "4-Chloro-5,6-dimethoxypyrimidine",
    "cn_name": null,
    "alternate_name": "Pyrimidine, 4-chloro-5,6-dimethoxy-;4-Chloro-5,6-dimethoxypyrimidine",
    "duplicated_cas_no": "",
    "SMILES": "O(C)C=1C(OC)=C(Cl)N=CN1",
    "meta_data": {
        "InChI": "InChI=1S/C6H7ClN2O2/c1-10-4-5(7)8-3-9-6(4)11-2/h3H,1-2H3",
        "InChIKey": null,
        "Canonical SMILES": "ClC1=NC=NC(OC)=C1OC",
        "Molecular Formula": "C<sub>6</sub>H<sub>7</sub>ClN<sub>2</sub>O<sub>2</sub>",
        "Molecular Mass": "174.59",
        "Melting Point": "53-55 °C"
    }
}