{
    "cas_no": "580-18-7",
    "key_name": "3-Hydroxyquinoline",
    "cn_name": "3-羟基喹啉;",
    "alternate_name": "3-Quinolinol;3-Hydroxyquinoline;3-Quinolol",
    "duplicated_cas_no": "36834-50-1",
    "SMILES": "OC1=CC2=C(N=C1)C=CC=C2",
    "meta_data": {
        "InChI": "InChI=1S/C9H7NO/c11-8-5-7-3-1-2-4-9(7)10-6-8/h1-6,11H",
        "InChIKey": null,
        "Canonical SMILES": "OC1=CN=C2C=CC=CC2=C1",
        "Molecular Formula": "C<sub>9</sub>H<sub>7</sub>NO",
        "Molecular Mass": "145.16",
        "Melting Point": "198 °C"
    }
}