{
    "cas_no": "3005-27-4",
    "key_name": "Dibromo-<em>N</em>-methylmaleimide",
    "cn_name": "2,3-二溴-N-甲基马来酰亚胺;3,4-二溴-1-甲基-1H-吡咯-2,5-二酮;",
    "alternate_name": "1<em>H</em>-Pyrrole-2,5-dione, 3,4-dibromo-1-methyl-;Maleimide, 2,3-dibromo-<em>N</em>-methyl-;3,4-Dibromo-1-methyl-1<em>H</em>-pyrrole-2,5-dione;<em>N</em>-Methyl-2,3-dibromomaleimide;3,4-Dibromo-<em>N</em>-methylpyrrole-2,5-dione;Dibromo-<em>N</em>-methylmaleimide;<em>N</em>-Methyldibromomaleimide;2,3-Dibromo-<em>N</em>-methylmaleimide;3,4-Dibromo-<em>N</em>-methylmaleimide;1-Methyl-3,4-dibromomaleimide;NSC 120444;3,4-Dibromo-1-methyl-2,5-dihydropyrrole-2,5-dione;3,4-Dibromo-1-methylpyrrole-2,5-dione",
    "duplicated_cas_no": "",
    "SMILES": "BrC1=C(Br)C(=O)N(C)C1=O",
    "meta_data": {
        "InChI": "InChI=1S/C5H3Br2NO2/c1-8-4(9)2(6)3(7)5(8)10/h1H3",
        "InChIKey": null,
        "Canonical SMILES": "O=C1C(Br)=C(Br)C(=O)N1C",
        "Molecular Formula": "C<sub>5</sub>H<sub>3</sub>Br<sub>2</sub>NO<sub>2</sub>",
        "Molecular Mass": "268.89",
        "Melting Point": "120 °C"
    }
}