{
    "cas_no": "53-41-8",
    "key_name": "Androsterone",
    "cn_name": "雄酮;",
    "alternate_name": "Androstan-17-one, 3-hydroxy-, (3α,5α)-;Androsterone;(3α,5α)-3-Hydroxyandrostan-17-one;5α-Androsterone;3-Epihydroxyetioallocholan-17-one;3α-Hydroxy-5α-androstan-17-one;3α-Hydroxy-17-androstanone;3α-Hydroxyetioallocholan-17-one;Atromide ICI;3α-Hydroxy-5α-androstane-17-one;5α-Androstane-3α-ol-17-one;5α-Androstan-3α-ol-17-one;Androkinin;Androtin;U 60366;NSC 9898;5α-Androstan-17-one-3α-ol;MeSH ID: D000738",
    "duplicated_cas_no": "209904-46-1;1050677-75-2",
    "SMILES": "C[C@@]12[C@@]3([C@]([C@]4([C@](C)(CC3)C(=O)CC4)[H])(CC[C@]1(C[C@H](O)CC2)[H])[H])[H]",
    "meta_data": {
        "InChI": "InChI=1S/C19H30O2/c1-18-9-7-13(20)11-12(18)3-4-14-15-5-6-17(21)19(15,2)10-8-16(14)18/h12-16,20H,3-11H2,1-2H3/t12-,13+,14-,15-,16-,18-,19-/m0/s1",
        "InChIKey": null,
        "Canonical SMILES": "O=C1CCC2C3CCC4CC(O)CCC4(C)C3CCC12C",
        "Molecular Formula": "C<sub>19</sub>H<sub>30</sub>O<sub>2</sub>",
        "Molecular Mass": "290.44",
        "Melting Point": "185 °C",
        "Density": "1.164 g/cm³"
    }
}