{
    "cas_no": "2732-28-7",
    "key_name": "1-(2-Methyl-4-pyridinyl)ethanone",
    "cn_name": null,
    "alternate_name": "Ethanone, 1-(2-methyl-4-pyridinyl)-;Ketone, methyl 2-methyl-4-pyridyl;1-(2-Methyl-4-pyridinyl)ethanone;4-Acetyl-2-methylpyridine;2-Methyl-4-acetylpyridine;1-(2-Methylpyridin-4-yl)ethan-1-one",
    "duplicated_cas_no": "",
    "SMILES": "C(C)(=O)C=1C=C(C)N=CC1",
    "meta_data": {
        "InChI": "InChI=1S/C8H9NO/c1-6-5-8(7(2)10)3-4-9-6/h3-5H,1-2H3",
        "InChIKey": null,
        "Canonical SMILES": "O=C(C=1C=CN=C(C1)C)C",
        "Molecular Formula": "C<sub>8</sub>H<sub>9</sub>NO",
        "Molecular Mass": "135.16",
        "Boiling Point": "130 °C @ Press: 4 Torr",
        "Melting Point": "149 °C"
    }
}