{
    "cas_no": "3615-24-5",
    "key_name": "Ramifenazone",
    "cn_name": "异丙基氨基比林;异丙氨基比林;雷米那酮;1,2-二氢-1,5-二甲基-4-(异丙基氨基)-2-苯基-3H-吡唑-3-酮;",
    "alternate_name": "3<em>H</em>-Pyrazol-3-one, 1,2-dihydro-1,5-dimethyl-4-[(1-methylethyl)amino]-2-phenyl-;Antipyrine, 4-(isopropylamino)-;1,2-Dihydro-1,5-dimethyl-4-[(1-methylethyl)amino]-2-phenyl-3<em>H</em>-pyrazol-3-one;Isopropylaminoantipyrine;Isopropylaminophenazone;1-Phenyl-2,3-dimethyl-4-(isopropylamino)-2-pyrazolin-5-one;Isopyrine;Isopyrin;4-(Isopropylamino)antipyrine;4-Isopropylamino-2,3-dimethyl-1-phenyl-3-pyrazolin-5-one;1-Phenyl-2,3-dimethyl-4-isopropylaminopyrazolone;4-Monoisopropylamino-1-phenyl-2,3-dimethyl-5-pyrazolone;Isopirina;4-(Isopropylamino)phenazone;Ramifenazone;1,5-Dimethyl-2-phenyl-4-(propan-2-ylamino)pyrazol-3-one;1,5-Dimethyl-2-phenyl-4-[(propan-2-yl)amino]-2,3-dihydro-1<em>H</em>-pyrazol-3-one",
    "duplicated_cas_no": "2044-80-6",
    "SMILES": "O=C1N(N(C)C(C)=C1NC(C)C)C2=CC=CC=C2",
    "meta_data": {
        "InChI": "InChI=1S/C14H19N3O/c1-10(2)15-13-11(3)16(4)17(14(13)18)12-8-6-5-7-9-12/h5-10,15H,1-4H3",
        "InChIKey": null,
        "Canonical SMILES": "O=C1C(NC(C)C)=C(N(N1C=2C=CC=CC2)C)C",
        "Molecular Formula": "C<sub>14</sub>H<sub>19</sub>N<sub>3</sub>O",
        "Molecular Mass": "245.32",
        "Melting Point": "80 °C"
    }
}