{
    "cas_no": "3034-31-9",
    "key_name": "Isonicotinanilide",
    "cn_name": "异烟酰苯胺;异烟酰苯胺;",
    "alternate_name": "4-Pyridinecarboxamide, <em>N</em>-phenyl-;Isonicotinanilide;<em>N</em>-Phenyl-4-pyridinecarboxamide;Ba 35630;Isonicotinic acid anilide;4-(<em>N</em>-Phenylcarbamoyl)pyridine;4-(Phenylcarbamoyl)pyridine;Pyridine-4-carboxylic acid phenylamide;NSC 4266;<em>N</em>-Phenylisonicotinic amide;<em>N</em>-Phenylisonicotinamide",
    "duplicated_cas_no": "",
    "SMILES": "C(NC1=CC=CC=C1)(=O)C=2C=CN=CC2",
    "meta_data": {
        "InChI": "InChI=1S/C12H10N2O/c15-12(10-6-8-13-9-7-10)14-11-4-2-1-3-5-11/h1-9H,(H,14,15)",
        "InChIKey": null,
        "Canonical SMILES": "O=C(NC=1C=CC=CC1)C=2C=CN=CC2",
        "Molecular Formula": "C<sub>12</sub>H<sub>10</sub>N<sub>2</sub>O",
        "Molecular Mass": "198.22",
        "Melting Point": "170-172 °C"
    }
}