{
    "cas_no": "68758-68-9",
    "key_name": "Ethyl α,4-dihydroxybenzeneacetate",
    "cn_name": "4-羟基扁桃酸乙酯;",
    "alternate_name": "Benzeneacetic acid, α,4-dihydroxy-, ethyl ester;Mandelic acid, <em>p</em>-hydroxy-, ethyl ester;Ethyl α,4-dihydroxybenzeneacetate;Ethyl 4-hydroxymandelate;<em>dl</em>-Ethyl <em>p</em>-hydroxymandelate",
    "duplicated_cas_no": "7138-33-2",
    "SMILES": "C(C(OCC)=O)(O)C1=CC=C(O)C=C1",
    "meta_data": {
        "InChI": "InChI=1S/C10H12O4/c1-2-14-10(13)9(12)7-3-5-8(11)6-4-7/h3-6,9,11-12H,2H2,1H3",
        "InChIKey": null,
        "Canonical SMILES": "O=C(OCC)C(O)C1=CC=C(O)C=C1",
        "Molecular Formula": "C<sub>10</sub>H<sub>12</sub>O<sub>4</sub>",
        "Molecular Mass": "196.20",
        "Melting Point": "129.20 °C"
    }
}