{
    "cas_no": "40034-44-4",
    "key_name": "3-(4-Pyridinyl)benzenamine",
    "cn_name": null,
    "alternate_name": "Benzenamine, 3-(4-pyridinyl)-;Pyridine, 4-(<em>m</em>-aminophenyl)-;3-(4-Pyridinyl)benzenamine;4-(3-Aminophenyl)pyridine;4-(<em>m</em>-Aminophenyl)pyridine;3-(4-Pyridyl)aniline;3-(4-Pyridinyl)aniline;3-(Pyridin-4-yl)benzenamine",
    "duplicated_cas_no": "",
    "SMILES": "NC=1C=C(C=CC1)C=2C=CN=CC2",
    "meta_data": {
        "InChI": "InChI=1S/C11H10N2/c12-11-3-1-2-10(8-11)9-4-6-13-7-5-9/h1-8H,12H2",
        "InChIKey": null,
        "Canonical SMILES": "N=1C=CC(=CC1)C=2C=CC=C(N)C2",
        "Molecular Formula": "C<sub>11</sub>H<sub>10</sub>N<sub>2</sub>",
        "Molecular Mass": "170.21",
        "Melting Point": "165-166 °C"
    }
}