{
    "cas_no": "100-52-7",
    "key_name": "Benzaldehyde",
    "cn_name": "苯甲醛;",
    "alternate_name": "Benzaldehyde;Benzenecarbonal;Benzenecarboxaldehyde;Benzoic aldehyde;Phenylmethanal;Artificial Almond Oil;Benzaldehyde FFC;Phenylformaldehyde;NSC 7917;Benzoic acid aldehyde",
    "duplicated_cas_no": "",
    "SMILES": "C(=O)C1=CC=CC=C1",
    "meta_data": {
        "InChI": "InChI=1S/C7H6O/c8-6-7-4-2-1-3-5-7/h1-6H",
        "InChIKey": null,
        "Canonical SMILES": "O=CC=1C=CC=CC1",
        "Molecular Formula": "C<sub>7</sub>H<sub>6</sub>O",
        "Molecular Mass": "106.12",
        "Boiling Point": "179 °C",
        "Melting Point": "-26 °C",
        "Density": "1.050 g/cm³ @ Temp: 15 °C"
    }
}