{
    "cas_no": "1984-65-2",
    "key_name": "2,6-Dichloroanisole",
    "cn_name": "2,6-二氯苯甲醚;",
    "alternate_name": "Benzene, 1,3-dichloro-2-methoxy-;Anisole, 2,6-dichloro-;1,3-Dichloro-2-methoxybenzene;2,6-Dichloroanisole;2,6-Dichloranisole;2,6-Dichlorophenyl methyl ether",
    "duplicated_cas_no": "",
    "SMILES": "O(C)C1=C(Cl)C=CC=C1Cl",
    "meta_data": {
        "InChI": "InChI=1S/C7H6Cl2O/c1-10-7-5(8)3-2-4-6(7)9/h2-4H,1H3",
        "InChIKey": null,
        "Canonical SMILES": "ClC1=CC=CC(Cl)=C1OC",
        "Molecular Formula": "C<sub>7</sub>H<sub>6</sub>Cl<sub>2</sub>O",
        "Molecular Mass": "177.03",
        "Boiling Point": "105-106 °C",
        "Melting Point": "&lt;25 °C",
        "Density": "1.291 g/cm³"
    }
}