{
    "cas_no": "1852-04-6",
    "key_name": "Undecanedioic acid",
    "cn_name": "十一烷二酸;",
    "alternate_name": "Undecanedioic acid;1,9-Nonanedicarboxylic acid;Hendecanedioic acid;NSC 400241;TCI-N 0333",
    "duplicated_cas_no": "138950-82-0",
    "SMILES": "C(CC(O)=O)CCCCCCCC(O)=O",
    "meta_data": {
        "InChI": "InChI=1S/C11H20O4/c12-10(13)8-6-4-2-1-3-5-7-9-11(14)15/h1-9H2,(H,12,13)(H,14,15)",
        "InChIKey": null,
        "Canonical SMILES": "O=C(O)CCCCCCCCCC(=O)O",
        "Molecular Formula": "C<sub>11</sub>H<sub>20</sub>O<sub>4</sub>",
        "Molecular Mass": "216.27",
        "Boiling Point": "170-174 °C @ Press: 0.25-0.27 Torr",
        "Melting Point": "109-111 °C"
    }
}