{
    "cas_no": "956317-36-5",
    "key_name": "5-Methyl-2-(2<em>H</em>-1,2,3-triazol-2-yl)benzoic acid",
    "cn_name": null,
    "alternate_name": "Benzoic acid, 5-methyl-2-(2<em>H</em>-1,2,3-triazol-2-yl)-;5-Methyl-2-(2<em>H</em>-1,2,3-triazol-2-yl)benzoic acid;2-(2<em>H</em>-1,2,3-Triazol-2-yl)-5-methylbenzoic acid;5-Methyl-2-1,2,3-triazol-2-ylbenzoic acid",
    "duplicated_cas_no": "",
    "SMILES": "C(O)(=O)C1=C(C=CC(C)=C1)N2N=CC=N2",
    "meta_data": {
        "InChI": "InChI=1S/C10H9N3O2/c1-7-2-3-9(8(6-7)10(14)15)13-11-4-5-12-13/h2-6H,1H3,(H,14,15)",
        "InChIKey": null,
        "Canonical SMILES": "O=C(O)C1=CC(=CC=C1N2N=CC=N2)C",
        "Molecular Formula": "C<sub>10</sub>H<sub>9</sub>N<sub>3</sub>O<sub>2</sub>",
        "Molecular Mass": "203.20",
        "Melting Point": "174-176 °C"
    }
}