{
    "cas_no": "42973-56-8",
    "key_name": "2-Hydroxy-3-methoxybenzeneacetonitrile",
    "cn_name": null,
    "alternate_name": "Benzeneacetonitrile, 2-hydroxy-3-methoxy-;2-Hydroxy-3-methoxybenzeneacetonitrile;(2-Hydroxy-3-methoxyphenyl)acetonitrile;NSC 291918;2-(2-Hydroxy-3-methoxyphenyl)acetonitrile",
    "duplicated_cas_no": "",
    "SMILES": "C(C#N)C1=C(O)C(OC)=CC=C1",
    "meta_data": {
        "InChI": "InChI=1S/C9H9NO2/c1-12-8-4-2-3-7(5-6-10)9(8)11/h2-4,11H,5H2,1H3",
        "InChIKey": null,
        "Canonical SMILES": "N#CCC=1C=CC=C(OC)C1O",
        "Molecular Formula": "C<sub>9</sub>H<sub>9</sub>NO<sub>2</sub>",
        "Molecular Mass": "163.17",
        "Melting Point": "102-104 °C"
    }
}