{
    "cas_no": "6636-78-8",
    "key_name": "2-Chloro-3-pyridinol",
    "cn_name": "2-氯-3-羟基吡啶;",
    "alternate_name": "3-Pyridinol, 2-chloro-;2-Chloro-3-pyridinol;2-Chloro-3-hydroxypyridine;3-Hydroxy-2-chloropyridine;NSC 18469",
    "duplicated_cas_no": "",
    "SMILES": "OC1=C(Cl)N=CC=C1",
    "meta_data": {
        "InChI": "InChI=1S/C5H4ClNO/c6-5-4(8)2-1-3-7-5/h1-3,8H",
        "InChIKey": null,
        "Canonical SMILES": "ClC1=NC=CC=C1O",
        "Molecular Formula": "C<sub>5</sub>H<sub>4</sub>ClNO",
        "Molecular Mass": "129.54",
        "Melting Point": "165 °C"
    }
}