{
    "cas_no": "943735-44-2",
    "key_name": "2,5-Dibromo-4-thiazolecarboxylic acid",
    "cn_name": null,
    "alternate_name": "4-Thiazolecarboxylic acid, 2,5-dibromo-;2,5-Dibromo-4-thiazolecarboxylic acid;2,5-Dibromo-1,3-thiazole-4-carboxylic acid",
    "duplicated_cas_no": "",
    "SMILES": "C(O)(=O)C=1N=C(Br)SC1Br",
    "meta_data": {
        "InChI": "InChI=1S/C4HBr2NO2S/c5-2-1(3(8)9)7-4(6)10-2/h(H,8,9)",
        "InChIKey": null,
        "Canonical SMILES": "O=C(O)C=1N=C(Br)SC1Br",
        "Molecular Formula": "C<sub>4</sub>HBr<sub>2</sub>NO<sub>2</sub>S",
        "Molecular Mass": "286.93",
        "Melting Point": "84 °C"
    }
}