{
    "cas_no": "14283-07-9",
    "key_name": "Lithium tetrafluoroborate",
    "cn_name": "四氟硼酸锂;",
    "alternate_name": "Borate(1-), tetrafluoro-, lithium (1:1);Borate(1-), tetrafluoro-, lithium;Lithium tetrafluoroborate;Lithium fluoborate;Lithium fluoroborate;Lithium tetrafluoroborate(1-);Lithium tetrafluoroborate (LiBF<sub>4</sub>);Lithium fluoroborate (LiBF<sub>4</sub>);Lithium boridefluoride (LiBF<sub>4</sub>)",
    "duplicated_cas_no": "12710-06-4;1602495-57-7;2428629-91-6",
    "SMILES": "[B+3]([F-])([F-])([F-])[F-].[Li+]",
    "meta_data": {
        "InChI": "InChI=1S/BF4.Li/c2-1(3,4)5;/q-1;+1",
        "InChIKey": null,
        "Canonical SMILES": "[Li+].[F-][B+3]([F-])([F-])[F-]",
        "Molecular Formula": "BF<sub>4</sub>.Li",
        "Molecular Mass": "",
        "Melting Point": "117 °C"
    }
}