{
    "cas_no": "12045-63-5",
    "key_name": "Titanium diboride",
    "cn_name": "二硼化钛;硼化钛;钛白,二氧化钛;碳氮化钛;",
    "alternate_name": "Titanium boride (TiB<sub>2</sub>);Titanium diboride;Titanium boride;TiBX;Ceralloy 225;Titanium boride (Ti<sub>8</sub>B<sub>16</sub>)",
    "duplicated_cas_no": "161088-90-0;681215-79-2;827581-01-1;1088528-17-9;1301243-49-1;1383706-94-2;1428333-90-7;1439384-78-7;1611441-08-7;1615228-13-1;1644294-53-0;1809784-78-8;1821115-24-5;2119569-60-5;2295712-67-1",
    "SMILES": "[Ti](#B)#B",
    "meta_data": {
        "InChI": "InChI=1S/2B.Ti",
        "InChIKey": null,
        "Canonical SMILES": "B#[Ti]#B",
        "Molecular Formula": "B<sub>2</sub>Ti",
        "Molecular Mass": "",
        "Melting Point": "2850-2900 °C",
        "Density": "4.52 g/cm³"
    }
}