{
    "cas_no": "588-96-5",
    "key_name": "4-Bromophenetole",
    "cn_name": "4-溴苯乙醚;对溴苯乙醚;",
    "alternate_name": "Benzene, 1-bromo-4-ethoxy-;Phenetole, <em>p</em>-bromo-;1-Bromo-4-ethoxybenzene;<em>p</em>-Bromophenetole;<em>p</em>-Bromophenol ethyl ether;<em>p</em>-Ethoxybromobenzene;<em>p</em>-Ethoxyphenyl bromide;4-Bromophenetole;<em>p</em>-Bromoethoxybenzene;4-Ethoxyphenyl bromide;Ethyl 4-bromophenyl ether;4-Bromoethoxybenzene;4-Bromophenyl ethyl ether;4-Ethoxybromobenzene;NSC 8053;4-Ethoxy-1-bromobenzene",
    "duplicated_cas_no": "",
    "SMILES": "O(CC)C1=CC=C(Br)C=C1",
    "meta_data": {
        "InChI": "InChI=1S/C8H9BrO/c1-2-10-8-5-3-7(9)4-6-8/h3-6H,2H2,1H3",
        "InChIKey": null,
        "Canonical SMILES": "BrC1=CC=C(OCC)C=C1",
        "Molecular Formula": "C<sub>8</sub>H<sub>9</sub>BrO",
        "Molecular Mass": "201.06",
        "Boiling Point": "231 °C",
        "Melting Point": "4 °C"
    }
}