{
    "cas_no": "28292-43-5",
    "key_name": "1,4-Dimethylpentylamine",
    "cn_name": "2-氨基-5-甲基己烷;",
    "alternate_name": "2-Hexanamine, 5-methyl-;Pentylamine, 1,4-dimethyl-;5-Methyl-2-hexanamine;1,4-Dimethylpentylamine;2-Amino-5-methylhexane;5-Methyl-2-hexylamine;(±)-2-Amino-5-methylhexane;<em>dl</em>-2-Amino-5-methylhexane;NSC 73708",
    "duplicated_cas_no": "52646-89-6",
    "SMILES": "C(CC(C)N)C(C)C",
    "meta_data": {
        "InChI": "InChI=1S/C7H17N/c1-6(2)4-5-7(3)8/h6-7H,4-5,8H2,1-3H3",
        "InChIKey": null,
        "Canonical SMILES": "NC(C)CCC(C)C",
        "Molecular Formula": "C<sub>7</sub>H<sub>17</sub>N",
        "Molecular Mass": "115.22",
        "Boiling Point": "131-133 °C"
    }
}