{
    "cas_no": "82-35-9",
    "key_name": "1,5-Dinitro-9,10-anthracenedione",
    "cn_name": "1,5-二硝基蒽醌;",
    "alternate_name": "9,10-Anthracenedione, 1,5-dinitro-;Anthraquinone, 1,5-dinitro-;1,5-Dinitro-9,10-anthracenedione;1,5-Dinitroanthraquinone;1,5-Dinitro-9,10-anthraquinone;NSC 37583;1,5-Dinitro-9,10-dihydroanthracene-9,10-dione",
    "duplicated_cas_no": "",
    "SMILES": "O=C1C=2C(C(=O)C=3C1=CC=CC3N(=O)=O)=CC=CC2N(=O)=O",
    "meta_data": {
        "InChI": "InChI=1S/C14H6N2O6/c17-13-7-3-1-5-9(15(19)20)11(7)14(18)8-4-2-6-10(12(8)13)16(21)22/h1-6H",
        "InChIKey": null,
        "Canonical SMILES": "O=C1C2=CC=CC(=C2C(=O)C3=CC=CC(=C13)N(=O)=O)N(=O)=O",
        "Molecular Formula": "C<sub>14</sub>H<sub>6</sub>N<sub>2</sub>O<sub>6</sub>",
        "Molecular Mass": "298.21",
        "Melting Point": "385 °C"
    }
}