{
    "cas_no": "401-81-0",
    "key_name": "1-Iodo-3-(trifluoromethyl)benzene",
    "cn_name": "3-碘三氟甲苯;间碘三氟甲苯;",
    "alternate_name": "Benzene, 1-iodo-3-(trifluoromethyl)-;Toluene, α,α,α-trifluoro-<em>m</em>-iodo-;1-Iodo-3-(trifluoromethyl)benzene;α,α,α-Trifluoro-<em>m</em>-iodotoluene;<em>m</em>-(Trifluoromethyl)iodobenzene;3-(Trifluoromethyl)iodobenzene;<em>m</em>-Iodobenzotrifluoride;3-Iodo-1-(trifluoromethyl)benzene;3-Iodo-α,α,α-trifluorotoluene;3-Trifluoromethyl-1-iodobenzene;3-(Trifluoromethyl)phenyl iodide;3-Iodo(trifluoromethyl)benzene;3-Iodobenzotrifluoride;NSC 88322;1-Trifluoromethyl-3-iodobenzene",
    "duplicated_cas_no": "",
    "SMILES": "C(F)(F)(F)C1=CC(I)=CC=C1",
    "meta_data": {
        "InChI": "InChI=1S/C7H4F3I/c8-7(9,10)5-2-1-3-6(11)4-5/h1-4H",
        "InChIKey": null,
        "Canonical SMILES": "FC(F)(F)C=1C=CC=C(I)C1",
        "Molecular Formula": "C<sub>7</sub>H<sub>4</sub>F<sub>3</sub>I",
        "Molecular Mass": "272.01",
        "Boiling Point": "82.0-82.5 °C @ Press: 25 Torr",
        "Melting Point": "230 °C"
    }
}