{
    "cas_no": "1698-53-9",
    "key_name": "4,5-Dichloro-2-phenyl-3(2<em>H</em>)-pyridazinone",
    "cn_name": "1-苯基-4,5-二氯-6-哒嗪酮;1-苯基-4，5-二氯-6-哒酮;",
    "alternate_name": "3(2<em>H</em>)-Pyridazinone, 4,5-dichloro-2-phenyl-;4,5-Dichloro-2-phenyl-3(2<em>H</em>)-pyridazinone;1-Phenyl-4,5-dichloro-6-pyridazinone;1-Phenyl-4,5-dichloro-6-pyridazone;4,5-Dichloro-1-phenyl-6-pyridazone;4,5-Dichloro-1-phenylpyridazin-6(1<em>H</em>)-one;2-Phenyl-4,5-dichloro-3-pyridazinone;4,5-Dichloro-2-phenylpyridazin-3-one;4,5-Dichloro-1-phenylpyridazin-6-one;2-Phenyl-4,5-dichloro-3(2<em>H</em>)-pyridazinone;NSC 224369;NSC 642642",
    "duplicated_cas_no": "",
    "SMILES": "O=C1N(N=CC(Cl)=C1Cl)C2=CC=CC=C2",
    "meta_data": {
        "InChI": "InChI=1S/C10H6Cl2N2O/c11-8-6-13-14(10(15)9(8)12)7-4-2-1-3-5-7/h1-6H",
        "InChIKey": null,
        "Canonical SMILES": "O=C1C(Cl)=C(Cl)C=NN1C=2C=CC=CC2",
        "Molecular Formula": "C<sub>10</sub>H<sub>6</sub>Cl<sub>2</sub>N<sub>2</sub>O",
        "Molecular Mass": "241.07",
        "Melting Point": "164 °C"
    }
}