{
    "cas_no": "4282-44-4",
    "key_name": "Undecyl iodide",
    "cn_name": null,
    "alternate_name": "Undecane, 1-iodo-;1-Iodoundecane;Undecyl iodide;1-Iodo-<em>n</em>-undecane",
    "duplicated_cas_no": "146846-81-3",
    "SMILES": "C(CCCCCI)CCCCC",
    "meta_data": {
        "InChI": "InChI=1S/C11H23I/c1-2-3-4-5-6-7-8-9-10-11-12/h2-11H2,1H3",
        "InChIKey": null,
        "Canonical SMILES": "ICCCCCCCCCCC",
        "Molecular Formula": "C<sub>11</sub>H<sub>23</sub>I",
        "Molecular Mass": "282.20",
        "Boiling Point": "125-130 °C"
    }
}