{
    "cas_no": "37843-11-1",
    "key_name": "1-[2-(Trichlorosilyl)ethyl]tricyclo[3.3.1.1<sup>3,7</sup>]decane",
    "cn_name": null,
    "alternate_name": "Tricyclo[3.3.1.1<sup>3,7</sup>]decane, 1-[2-(trichlorosilyl)ethyl]-;Silane, trichloro(2-tricyclo[3.3.1.1<sup>3,7</sup>]dec-1-ylethyl)-;1-[2-(Trichlorosilyl)ethyl]tricyclo[3.3.1.1<sup>3,7</sup>]decane;1-[2-(Trichlorosilyl)ethyl]adamantane;2-(1-Adamantyl)ethyltrichlorosilane",
    "duplicated_cas_no": "",
    "SMILES": "C(C[Si](Cl)(Cl)Cl)C12CC3CC(C1)CC(C2)C3",
    "meta_data": {
        "InChI": "InChI=1S/C12H19Cl3Si/c13-16(14,15)2-1-12-6-9-3-10(7-12)5-11(4-9)8-12/h9-11H,1-8H2",
        "InChIKey": null,
        "Canonical SMILES": "Cl[Si](Cl)(Cl)CCC12CC3CC(CC(C3)C1)C2",
        "Molecular Formula": "C<sub>12</sub>H<sub>19</sub>Cl<sub>3</sub>Si",
        "Molecular Mass": "297.72",
        "Boiling Point": "135 °C @ Press: 3 Torr",
        "Melting Point": "36-37 °C",
        "Density": "1.220 g/cm³"
    }
}