{
    "cas_no": "636-58-8",
    "key_name": "γ-<span class=\"text-smallcaps\">L</smallcap>-Glutamyl-<smallcap>L</span>-cysteine",
    "cn_name": null,
    "alternate_name": "<span class=\"text-smallcaps\">L</smallcap>-Cysteine, <smallcap>L</span>-γ-glutamyl-;Glutamine, <em>N</em>-(1-carboxy-2-mercaptoethyl)-, <span class=\"text-smallcaps\">L</span>-;<span class=\"text-smallcaps\">L</smallcap>-Cysteine, <em>N</em>-<smallcap>L</span>-γ-glutamyl-;Glutamine, <em>N</em>-(1-carboxy-2-mercaptoethyl)-;Cysteine, γ-glutamyl-;<span class=\"text-smallcaps\">L</smallcap>-γ-Glutamyl-<smallcap>L</span>-cysteine;γ-Glutamylcysteine;γ-<span class=\"text-smallcaps\">L</smallcap>-Glutamyl-<smallcap>L</span>-cysteine;γ-Glu-Cys;7: PN: CN107114752 PAGE: 2 claimed sequence;γ-<span class=\"text-smallcaps\">L</span>-Glutamyl-cysteine",
    "duplicated_cas_no": "6710-20-9;190063-04-8;910891-06-4;1296212-88-8",
    "SMILES": "[C@@H](NC(CC[C@@H](C(O)=O)N)=O)(C(O)=O)CS",
    "meta_data": {
        "InChI": "InChI=1S/C8H14N2O5S/c9-4(7(12)13)1-2-6(11)10-5(3-16)8(14)15/h4-5,16H,1-3,9H2,(H,10,11)(H,12,13)(H,14,15)/t4-,5-/m0/s1",
        "InChIKey": null,
        "Canonical SMILES": "O=C(O)C(N)CCC(=O)NC(C(=O)O)CS",
        "Molecular Formula": "C<sub>8</sub>H<sub>14</sub>N<sub>2</sub>O<sub>5</sub>S",
        "Molecular Mass": "250.27",
        "Melting Point": "167 °C"
    }
}