{
    "cas_no": "839-90-7",
    "key_name": "Tris(hydroxyethyl) isocyanurate",
    "cn_name": "1,3,5-三(2-羟乙基)氰尿酸;",
    "alternate_name": "1,3,5-Triazine-2,4,6(1<em>H</em>,3<em>H</em>,5<em>H</em>)-trione, 1,3,5-tris(2-hydroxyethyl)-;<em>s</em>-Triazine-2,4,6(1<em>H</em>,3<em>H</em>,5<em>H</em>)-trione, 1,3,5-tris(2-hydroxyethyl)-;<em>s</em>-Triazine-2,4,6(1<em>H</em>,3<em>H</em>,5<em>H</em>)-trione, tris(2-hydroxyethyl)-;1,3,5-Tris(2-hydroxyethyl)-1,3,5-triazine-2,4,6(1<em>H</em>,3<em>H</em>,5<em>H</em>)-trione;Tris(2-hydroxyethyl) isocyanurate;Tris(β-hydroxyethyl) isocyanurate;Tris(hydroxyethyl) isocyanurate;Isocyanuric acid tris(2-hydroxyethyl) ester;1,3,5-Tris(2-hydroxyethyl) isocyanurate;<em>N</em>,<em>N</em>′,<em>N</em>′′-Tris(2-hydroxyethyl) isocyanurate;THEIC;1,3,5-Tris(2-hydroxyethyl)cyanuric acid;NF-SE;Tanac;NSC 11680;THEIC-G;1,3,5-Tris(2-hydroxyethyl)-1,3,5-triazine-2,4,6-trione;Theic P;Theic PW;Trihydroxyethyl isocyanurate;THEIC-A;Tris(2-hydroxyethyl)isocyanuric acid;Tris(2-hydroxyethyl)isocyanurate;1,3,5-Tris(2-hydroxyethyl)-1,3,5-triazinane-2,4,6-trione;Tanac P;1,3,5-Tris(2-hydroxyethyl)-<em>S</em>-triazine-2,4,6-trione;JH-39",
    "duplicated_cas_no": "63118-42-3;248590-65-0;1027769-55-6",
    "SMILES": "C(CO)N1C(=O)N(CCO)C(=O)N(CCO)C1=O",
    "meta_data": {
        "InChI": "InChI=1S/C9H15N3O6/c13-4-1-10-7(16)11(2-5-14)9(18)12(3-6-15)8(10)17/h13-15H,1-6H2",
        "InChIKey": null,
        "Canonical SMILES": "O=C1N(C(=O)N(C(=O)N1CCO)CCO)CCO",
        "Molecular Formula": "C<sub>9</sub>H<sub>15</sub>N<sub>3</sub>O<sub>6</sub>",
        "Molecular Mass": "261.23",
        "Melting Point": "135 °C"
    }
}