{
    "cas_no": "6374-92-1",
    "key_name": "5,7-Dichloroisatin",
    "cn_name": "5,7-二氯-1H-吲哚-2,3-二酮;5,7-二氯靛红;",
    "alternate_name": "1<em>H</em>-Indole-2,3-dione, 5,7-dichloro-;Indole-2,3-dione, 5,7-dichloro-;Isatin, 5,7-dichloro-;5,7-Dichloro-1<em>H</em>-indole-2,3-dione;5,7-Dichloroisatin;NSC 26045",
    "duplicated_cas_no": "",
    "SMILES": "ClC1=C2C(C(=O)C(=O)N2)=CC(Cl)=C1",
    "meta_data": {
        "InChI": "InChI=1S/C8H3Cl2NO2/c9-3-1-4-6(5(10)2-3)11-8(13)7(4)12/h1-2H,(H,11,12,13)",
        "InChIKey": null,
        "Canonical SMILES": "O=C1NC=2C(Cl)=CC(Cl)=CC2C1=O",
        "Molecular Formula": "C<sub>8</sub>H<sub>3</sub>Cl<sub>2</sub>NO<sub>2</sub>",
        "Molecular Mass": "216.02",
        "Melting Point": "313 °C"
    }
}