{
    "cas_no": "1013-69-0",
    "key_name": "Noreugenin",
    "cn_name": null,
    "alternate_name": "4<em>H</em>-1-Benzopyran-4-one, 5,7-dihydroxy-2-methyl-;Chromone, 5,7-dihydroxy-2-methyl-;5,7-Dihydroxy-2-methyl-4<em>H</em>-1-benzopyran-4-one;Noreugenin;5,7-Dihydroxy-2-methylchromone;2-Methyl-5,7-dihydroxychromone;5,7-Dihydroxy-2-methylchromome;RonaCare Luremin",
    "duplicated_cas_no": "",
    "SMILES": "O=C1C=2C(=CC(O)=CC2O)OC(C)=C1",
    "meta_data": {
        "InChI": "InChI=1S/C10H8O4/c1-5-2-7(12)10-8(13)3-6(11)4-9(10)14-5/h2-4,11,13H,1H3",
        "InChIKey": null,
        "Canonical SMILES": "O=C1C=C(OC=2C=C(O)C=C(O)C12)C",
        "Molecular Formula": "C<sub>10</sub>H<sub>8</sub>O<sub>4</sub>",
        "Molecular Mass": "192.17",
        "Melting Point": "279 °C"
    }
}