{
    "cas_no": "13050-47-0",
    "key_name": "3-Methylbenzohydrazide",
    "cn_name": "3-甲基苯甲酰肼;间甲苯甲酰肼;",
    "alternate_name": "Benzoic acid, 3-methyl-, hydrazide;<em>m</em>-Toluic acid, hydrazide;3-Methylbenzhydrazide;<em>m</em>-Methylbenzoic acid hydrazide;(<em>m</em>-Methylbenzoyl)hydrazine;<em>m</em>-Toluic hydrazide;3-Methylbenzoic acid hydrazide;(3-Methylbenzoyl)hydrazine;<em>m</em>-Toluoylhydrazine;3-Methylbenzohydrazide;3-Methylbenzenecarboxylic acid hydrazide;<em>m</em>-Methylbenzoyl hydrazide;3-Methylbenzoic hydrazide;3-Toluic hydrazide;NSC 116189",
    "duplicated_cas_no": "",
    "SMILES": "C(NN)(=O)C1=CC(C)=CC=C1",
    "meta_data": {
        "InChI": "InChI=1S/C8H10N2O/c1-6-3-2-4-7(5-6)8(11)10-9/h2-5H,9H2,1H3,(H,10,11)",
        "InChIKey": null,
        "Canonical SMILES": "O=C(NN)C1=CC=CC(=C1)C",
        "Molecular Formula": "C<sub>8</sub>H<sub>10</sub>N<sub>2</sub>O",
        "Molecular Mass": "150.18",
        "Melting Point": "96-98 °C"
    }
}