{
    "cas_no": "765-10-6",
    "key_name": "1-Tetradecyne",
    "cn_name": "1-十四炔;",
    "alternate_name": "1-Tetradecyne",
    "duplicated_cas_no": "",
    "SMILES": "C(CCCCCC#C)CCCCCC",
    "meta_data": {
        "InChI": "InChI=1S/C14H26/c1-3-5-7-9-11-13-14-12-10-8-6-4-2/h1H,4-14H2,2H3",
        "InChIKey": null,
        "Canonical SMILES": "C#CCCCCCCCCCCCC",
        "Molecular Formula": "C<sub>14</sub>H<sub>26</sub>",
        "Molecular Mass": "194.36",
        "Boiling Point": "132-134 °C @ Press: 14 Torr"
    }
}