{
    "cas_no": "14227-95-3",
    "key_name": "β-Oxo-1-pyrrolidinepropanenitrile",
    "cn_name": "1-(氰基乙酰基)吡咯烷;",
    "alternate_name": "1-Pyrrolidinepropanenitrile, β-oxo-;Pyrrolidine, 1-(cyanoacetyl)-;β-Oxo-1-pyrrolidinepropanenitrile;Cyanoacetic acid pyrrolidide;1-(2-Cyanoacetyl)pyrrolidine;1-(Cyanoacetyl)pyrrolidine;NSC 102766;3-Oxo-3-(1-pyrrolidinyl)propanenitrile;3-Oxo-3-tetrahydro-1<em>H</em>-pyrrol-1-ylpropanenitrile",
    "duplicated_cas_no": "",
    "SMILES": "C(CC#N)(=O)N1CCCC1",
    "meta_data": {
        "InChI": "InChI=1S/C7H10N2O/c8-4-3-7(10)9-5-1-2-6-9/h1-3,5-6H2",
        "InChIKey": null,
        "Canonical SMILES": "N#CCC(=O)N1CCCC1",
        "Molecular Formula": "C<sub>7</sub>H<sub>10</sub>N<sub>2</sub>O",
        "Molecular Mass": "138.17",
        "Melting Point": "74-75 °C"
    }
}