{
    "cas_no": "60956-23-2",
    "key_name": "1,2-Dibromo-4-methylbenzene",
    "cn_name": "3,4-二溴甲苯;",
    "alternate_name": "Benzene, 1,2-dibromo-4-methyl-;Toluene, 3,4-dibromo-;1,2-Dibromo-4-methylbenzene;3,4-Dibromotoluene;NSC 139879",
    "duplicated_cas_no": "",
    "SMILES": "BrC1=C(Br)C=CC(C)=C1",
    "meta_data": {
        "InChI": "InChI=1S/C7H6Br2/c1-5-2-3-6(8)7(9)4-5/h2-4H,1H3",
        "InChIKey": null,
        "Canonical SMILES": "BrC1=CC=C(C=C1Br)C",
        "Molecular Formula": "C<sub>7</sub>H<sub>6</sub>Br<sub>2</sub>",
        "Molecular Mass": "249.93",
        "Boiling Point": "123-124 °C @ Press: 19 Torr",
        "Melting Point": "2 °C",
        "Density": "1.8197 g/cm³ @ Temp: 25 °C"
    }
}