{
    "cas_no": "460-00-4",
    "key_name": "1-Bromo-4-fluorobenzene",
    "cn_name": "对溴氟苯;4-溴氟苯;",
    "alternate_name": "Benzene, 1-bromo-4-fluoro-;1-Bromo-4-fluorobenzene;<em>p</em>-Fluorobromobenzene;1-Fluoro-4-bromobenzene;<em>p</em>-Bromofluorobenzene;<em>p</em>-Fluorophenyl bromide;4-Bromofluorobenzene;4-Fluorophenyl bromide;4-Fluoro-1-bromobenzene;4-Fluorobromobenzene;4-Fluorobenzene bromide;4-Bromo-1-fluorobenzene;4-Bromophenyl fluoride;NSC 10268;NSC 9460;<em>p</em>-Bromophenyl fluoride",
    "duplicated_cas_no": "",
    "SMILES": "BrC1=CC=C(F)C=C1",
    "meta_data": {
        "InChI": "InChI=1S/C6H4BrF/c7-5-1-3-6(8)4-2-5/h1-4H",
        "InChIKey": null,
        "Canonical SMILES": "FC1=CC=C(Br)C=C1",
        "Molecular Formula": "C<sub>6</sub>H<sub>4</sub>BrF",
        "Molecular Mass": "175.00",
        "Boiling Point": "151.5 °C",
        "Melting Point": "-17.4 °C",
        "Density": "1.7282 g/cm³ @ Temp: 21 °C"
    }
}