{
    "cas_no": "120-73-0",
    "key_name": "Purine",
    "cn_name": "嘌呤;7H-咪唑[4,5-d]嘧啶;",
    "alternate_name": "9<em>H</em>-Purine;Purine;1<em>H</em>-Purine;3,5,7-Triazaindole;β-Purine;3<em>H</em>-Imidazo[4,5-<em>d</em>]pyrimidine;Isopurine;7<em>H</em>-Purine;NSC 753;6<em>H</em>-Imidazo[4,5-<em>d</em>]pyrimidine",
    "duplicated_cas_no": "111055-93-7;273-25-6;273-26-7;51953-03-8;915749-01-8",
    "SMILES": "C1=2C(N=CN1)=NC=NC2",
    "meta_data": {
        "InChI": "InChI=1S/C5H4N4/c1-4-5(8-2-6-1)9-3-7-4/h1-3H,(H,6,7,8,9)",
        "InChIKey": null,
        "Canonical SMILES": "N=1C=NC=2N=CNC2C1",
        "Molecular Formula": "C<sub>5</sub>H<sub>4</sub>N<sub>4</sub>",
        "Molecular Mass": "120.11",
        "Melting Point": "216.5 °C"
    }
}