{
    "cas_no": "4345-03-3",
    "key_name": "Vitamin E succinate",
    "cn_name": "维生素E琥珀酸酯;D-alpha-生育酚琥珀酸酯;",
    "alternate_name": "Butanedioic acid, 1-[(2<em>R</em>)-3,4-dihydro-2,5,7,8-tetramethyl-2-[(4<em>R</em>,8<em>R</em>)-4,8,12-trimethyltridecyl]-2<em>H</em>-1-benzopyran-6-yl] ester;Succinic acid, mono[2,5,7,8-tetramethyl-2-(4,8,12-trimethyltridecyl)-6-chromanyl] ester, (+)-;Butanedioic acid, mono[3,4-dihydro-2,5,7,8-tetramethyl-2-(4,8,12-trimethyltridecyl)-2<em>H</em>-1-benzopyran-6-yl] ester, [2<em>R</em>-[2<em>R</em>*(4<em>R</em>*,8<em>R</em>*)]]-;α-Tocopherol, succinate;Butanedioic acid, mono[(2<em>R</em>)-3,4-dihydro-2,5,7,8-tetramethyl-2-[(4<em>R</em>,8<em>R</em>)-4,8,12-trimethyltridecyl]-2<em>H</em>-1-benzopyran-6-yl] ester;6-Chromanol, 2,5,7,8-tetramethyl-2-(4,8,12-trimethyltridecyl)-, hydrogen succinate, (+)-;(+)-α-Tocopheryl succinate;α-Tocopheryl acid succinate;<em>d</em>-α-Tocopherol acid succinate;<em>d</em>-α-Tocopheryl acid succinate;α-Tocopheryl succinate;α-Tocopherol hemisuccinate;Covitol 1210;α-Tocopherol acid succinate;<em>d</em>-α-Tocopheryl hemisuccinate;Vitamin E hemisuccinate;Vitamin E <em>d</em>-α-tocosuccinate;Vitamin E acid succinate;Vitamin E succinate;CV 104;NSC 173849;α-Vitamin E succinate;Tocopherol succinate;α-Tocopheryl hemisuccinate;α-TOS",
    "duplicated_cas_no": "120246-47-1;53532-12-0;55134-51-5",
    "SMILES": "CC1=C2C(=C(C)C(OC(CCC(O)=O)=O)=C1C)CC[C@](CCC[C@@H](CCC[C@@H](CCCC(C)C)C)C)(C)O2",
    "meta_data": {
        "InChI": "InChI=1S/C33H54O5/c1-22(2)12-9-13-23(3)14-10-15-24(4)16-11-20-33(8)21-19-28-27(7)31(25(5)26(6)32(28)38-33)37-30(36)18-17-29(34)35/h22-24H,9-21H2,1-8H3,(H,34,35)/t23-,24-,33-/m1/s1",
        "InChIKey": null,
        "Canonical SMILES": "O=C(O)CCC(=O)OC=1C(=C(C=2OC(C)(CCC2C1C)CCCC(C)CCCC(C)CCCC(C)C)C)C",
        "Molecular Formula": "C<sub>33</sub>H<sub>54</sub>O<sub>5</sub>",
        "Molecular Mass": "530.78",
        "Melting Point": "76-77 °C",
        "Density": "0.8704 g/cm³ (crystalline) @ Temp: 50 °C; Press: 2.3 x 10⁵ Torr"
    }
}