{
    "cas_no": "15861-24-2",
    "key_name": "Indole-5-carbonitrile",
    "cn_name": "5-氰基吲哚;",
    "alternate_name": "1<em>H</em>-Indole-5-carbonitrile;Indole-5-carbonitrile;5-Cyanoindole;5-Cyano-1<em>H</em>-indole;1<em>H</em>-Indole-5-carbonitrile, hydrate (1:2);1<em>H</em>-Indole-5-carbonitrile, hydrate (1:1)",
    "duplicated_cas_no": "3027515-82-5;3027515-83-6",
    "SMILES": "C(#N)C=1C=C2C(=CC1)NC=C2",
    "meta_data": {
        "InChI": "InChI=1S/C9H6N2/c10-6-7-1-2-9-8(5-7)3-4-11-9/h1-5,11H",
        "InChIKey": null,
        "Canonical SMILES": "N#CC=1C=CC=2NC=CC2C1",
        "Molecular Formula": "C<sub>9</sub>H<sub>6</sub>N<sub>2</sub>",
        "Molecular Mass": "142.16",
        "Melting Point": "106-108 °C"
    }
}