{
    "cas_no": "877399-00-3",
    "key_name": "5-Bromo-3-[(1<em>R</em>)-1-(2,6-dichloro-3-fluorophenyl)ethoxy]-2-pyridinamine",
    "cn_name": null,
    "alternate_name": "2-Pyridinamine, 5-bromo-3-[(1<em>R</em>)-1-(2,6-dichloro-3-fluorophenyl)ethoxy]-;5-Bromo-3-[(1<em>R</em>)-1-(2,6-dichloro-3-fluorophenyl)ethoxy]-2-pyridinamine;[5-Bromo-3-[1(<em>R</em>)-(2,6-dichloro-3-fluorophenyl)ethoxy]pyridin-2-yl]amine;[5-Bromo-3-[[(<em>R</em>)-1-(2,6-dichloro-3-fluorophenyl)ethyl]oxy]pyridin-2-yl]amine;(<em>R</em>)-5-Bromo-3-[1-(2,6-dichloro-3-fluorophenyl)ethoxy]pyridin-2-amine;(R)-5-Bromo-3-[1-(2,6-dichloro-3-fluorophenyl)ethoxy]pyridin-2-amine",
    "duplicated_cas_no": "1421926-42-2",
    "SMILES": "[C@@H](OC1=C(N)N=CC(Br)=C1)(C)C2=C(Cl)C(F)=CC=C2Cl",
    "meta_data": {
        "InChI": "InChI=1S/C13H10BrCl2FN2O/c1-6(11-8(15)2-3-9(17)12(11)16)20-10-4-7(14)5-19-13(10)18/h2-6H,1H3,(H2,18,19)/t6-/m1/s1",
        "InChIKey": null,
        "Canonical SMILES": "FC1=CC=C(Cl)C(=C1Cl)C(OC2=CC(Br)=CN=C2N)C",
        "Molecular Formula": "C<sub>13</sub>H<sub>10</sub>BrCl<sub>2</sub>FN<sub>2</sub>O",
        "Molecular Mass": "380.04",
        "Melting Point": "103 °C"
    }
}