{
    "cas_no": "4545-21-5",
    "key_name": "4-Methylbenzenesulfonic acid 2-(1-phenylethylidene)hydrazide",
    "cn_name": null,
    "alternate_name": "Benzenesulfonic acid, 4-methyl-, 2-(1-phenylethylidene)hydrazide;<em>p</em>-Toluenesulfonic acid, (α-methylbenzylidene)hydrazide;Benzenesulfonic acid, 4-methyl-, (1-phenylethylidene)hydrazide;4-Methylbenzenesulfonic acid 2-(1-phenylethylidene)hydrazide;Acetophenone tolylsulfonylhydrazone;Acetophenone tosylhydrazone;Acetophenone <em>p</em>-toluenesulfonylhydrazone;NSC 126912",
    "duplicated_cas_no": "",
    "SMILES": "S(NN=C(C)C1=CC=CC=C1)(=O)(=O)C2=CC=C(C)C=C2",
    "meta_data": {
        "InChI": "InChI=1S/C15H16N2O2S/c1-12-8-10-15(11-9-12)20(18,19)17-16-13(2)14-6-4-3-5-7-14/h3-11,17H,1-2H3",
        "InChIKey": null,
        "Canonical SMILES": "O=S(=O)(NN=C(C=1C=CC=CC1)C)C2=CC=C(C=C2)C",
        "Molecular Formula": "C<sub>15</sub>H<sub>16</sub>N<sub>2</sub>O<sub>2</sub>S",
        "Molecular Mass": "288.36",
        "Melting Point": "144-146 °C"
    }
}