{
    "cas_no": "3785-34-0",
    "key_name": "1,1′-(1,2-Ethanediyl) bis(2-bromoacetate)",
    "cn_name": "1,2-双(溴乙酰氧基)乙烷;",
    "alternate_name": "Acetic acid, 2-bromo-, 1,1′-(1,2-ethanediyl) ester;Acetic acid, bromo-, ethylene ester;Acetic acid, bromo-, 1,2-ethanediyl ester;Ethylene glycol, bis(bromoacetate);1,1′-(1,2-Ethanediyl) bis(2-bromoacetate);Pandurol;Bromoacetic acid 1,2-ethanediyl ester;1,2-Bis(bromoacetoxy)ethane;Ethylene bromoacetate;BBAE;NSC 25854;NSC 406054;Ethylene bis(2-bromoacetate)",
    "duplicated_cas_no": "",
    "SMILES": "O(CCOC(CBr)=O)C(CBr)=O",
    "meta_data": {
        "InChI": "InChI=1S/C6H8Br2O4/c7-3-5(9)11-1-2-12-6(10)4-8/h1-4H2",
        "InChIKey": null,
        "Canonical SMILES": "O=C(OCCOC(=O)CBr)CBr",
        "Molecular Formula": "C<sub>6</sub>H<sub>8</sub>Br<sub>2</sub>O<sub>4</sub>",
        "Molecular Mass": "303.93",
        "Boiling Point": "135-136 °C @ Press: 1.5 Torr"
    }
}