{
    "cas_no": "836-41-9",
    "key_name": "<em>N</em>-(4-Methoxybenzylidene)aniline",
    "cn_name": null,
    "alternate_name": "Benzenamine, <em>N</em>-[(4-methoxyphenyl)methylene]-;Aniline, <em>N</em>-(<em>p</em>-methoxybenzylidene)-;<em>N</em>-[(4-Methoxyphenyl)methylene]benzenamine;(<em>p</em>-Methoxybenzylidene)aniline;<em>N</em>-(<em>p</em>-Methoxybenzylidene)aniline;<em>p</em>-Methoxybenzaldehyde anil;<em>p</em>-Methoxybenzalaniline;(4-Methoxybenzylidene)aniline;<em>N</em>-(4-Methoxybenzylidene)aniline;(4-Methoxyphenylmethylene)(phenyl)amine;(4-Methoxybenzylidene)phenylamine;NSC 155535;<em>N</em>-[(4-Methoxyphenyl)methylene]phenylamine;<em>N</em>-Phenyl-4-methoxybenzylideneimine",
    "duplicated_cas_no": "922525-36-8",
    "SMILES": "C(=NC1=CC=CC=C1)C2=CC=C(OC)C=C2",
    "meta_data": {
        "InChI": "InChI=1S/C14H13NO/c1-16-14-9-7-12(8-10-14)11-15-13-5-3-2-4-6-13/h2-11H,1H3",
        "InChIKey": null,
        "Canonical SMILES": "N(=CC1=CC=C(OC)C=C1)C=2C=CC=CC2",
        "Molecular Formula": "C<sub>14</sub>H<sub>13</sub>NO",
        "Molecular Mass": "211.26",
        "Melting Point": "63 °C"
    }
}