{
    "cas_no": "4316-98-7",
    "key_name": "6-Chloro-4,5-pyrimidinediamine",
    "cn_name": "4,5-二氨基-6-氯嘧啶;4,5-二氨基-6-氯嘧啶;",
    "alternate_name": "4,5-Pyrimidinediamine, 6-chloro-;Pyrimidine, 4,5-diamino-6-chloro-;6-Chloro-4,5-pyrimidinediamine;4,5-Diamino-6-chloropyrimidine;NSC 36907;6-Chloropyrimidine-4,5-diamine;5,6-Diamino-4-chloropyrimidine;4-Chloropyrimidine-5,6-diamine;6-Chloro-4,5-diaminopyrimidine",
    "duplicated_cas_no": "",
    "SMILES": "NC=1C(Cl)=NC=NC1N",
    "meta_data": {
        "InChI": "InChI=1S/C4H5ClN4/c5-3-2(6)4(7)9-1-8-3/h1H,6H2,(H2,7,8,9)",
        "InChIKey": null,
        "Canonical SMILES": "ClC1=NC=NC(N)=C1N",
        "Molecular Formula": "C<sub>4</sub>H<sub>5</sub>ClN<sub>4</sub>",
        "Molecular Mass": "144.56",
        "Melting Point": "252 °C (decomp)"
    }
}