{
    "cas_no": "107-94-8",
    "key_name": "3-Chloropropionic acid",
    "cn_name": "3-氯丙酸;",
    "alternate_name": "Propanoic acid, 3-chloro-;Propionic acid, 3-chloro-;Propionic acid, β-chloro-;3-Chloropropanoic acid;β-Chloropropionic acid;β-Monochloropropionic acid;3-Chloropropionic acid;NSC 174;NSC 2183",
    "duplicated_cas_no": "",
    "SMILES": "C(C(O)=O)CCl",
    "meta_data": {
        "InChI": "InChI=1S/C3H5ClO2/c4-2-1-3(5)6/h1-2H2,(H,5,6)",
        "InChIKey": null,
        "Canonical SMILES": "O=C(O)CCCl",
        "Molecular Formula": "C<sub>3</sub>H<sub>5</sub>ClO<sub>2</sub>",
        "Molecular Mass": "108.52",
        "Boiling Point": "200 °C",
        "Melting Point": "41 °C",
        "Density": "1.2214 g/cm³ @ Temp: 20 °C"
    }
}