{
    "cas_no": "1070-62-8",
    "key_name": "Monoethyl glutarate",
    "cn_name": "戊二酸氢乙酯;戊二酸甲酯;",
    "alternate_name": "Pentanedioic acid, 1-ethyl ester;Glutaric acid, monoethyl ester;Pentanedioic acid, monoethyl ester;Glutaric acid, ethyl ester;Monoethyl glutarate;Ethyl hydrogen glutarate;Ethyl hydrogen pentanedioate",
    "duplicated_cas_no": "",
    "SMILES": "C(CCCC(O)=O)(OCC)=O",
    "meta_data": {
        "InChI": "InChI=1S/C7H12O4/c1-2-11-7(10)5-3-4-6(8)9/h2-5H2,1H3,(H,8,9)",
        "InChIKey": null,
        "Canonical SMILES": "O=C(O)CCCC(=O)OCC",
        "Molecular Formula": "C<sub>7</sub>H<sub>12</sub>O<sub>4</sub>",
        "Molecular Mass": "160.17",
        "Boiling Point": "150 °C @ Press: 15 Torr",
        "Melting Point": "7-8 °C",
        "Density": "1.1242 g/cm³ @ Temp: 13.5 °C"
    }
}