{
    "cas_no": "399-97-3",
    "key_name": "2-Amino-4-fluorophenol",
    "cn_name": "2-氨基-4-氟苯酚;",
    "alternate_name": "Phenol, 2-amino-4-fluoro-;2-Amino-4-fluorophenol;5-Fluoro-2-hydroxyaniline;4-Fluoro-2-aminophenol",
    "duplicated_cas_no": "",
    "SMILES": "NC1=C(O)C=CC(F)=C1",
    "meta_data": {
        "InChI": "InChI=1S/C6H6FNO/c7-4-1-2-6(9)5(8)3-4/h1-3,9H,8H2",
        "InChIKey": null,
        "Canonical SMILES": "FC1=CC=C(O)C(N)=C1",
        "Molecular Formula": "C<sub>6</sub>H<sub>6</sub>FNO",
        "Molecular Mass": "127.12",
        "Melting Point": "145-146 °C"
    }
}