{
    "cas_no": "89-95-2",
    "key_name": "2-Methylbenzyl alcohol",
    "cn_name": "邻甲基苄醇;2-甲基苄醇;",
    "alternate_name": "Benzenemethanol, 2-methyl-;Benzyl alcohol, <em>o</em>-methyl-;2-Methylbenzenemethanol;<em>o</em>-Methylbenzyl alcohol;<em>o</em>-Tolyl alcohol;2-Methylbenzyl alcohol;<em>o</em>-Tolualcohol;α-Hydroxy-<em>o</em>-xylene;<em>o</em>-Tolylmethanol;NSC 91;(2-Tolyl)methanol;(2-Methylphenyl)methanol;2-(Methyl)-1-(hydroxymethyl)benzene",
    "duplicated_cas_no": "185532-95-0",
    "SMILES": "C(O)C1=C(C)C=CC=C1",
    "meta_data": {
        "InChI": "InChI=1S/C8H10O/c1-7-4-2-3-5-8(7)6-9/h2-5,9H,6H2,1H3",
        "InChIKey": null,
        "Canonical SMILES": "OCC=1C=CC=CC1C",
        "Molecular Formula": "C<sub>8</sub>H<sub>10</sub>O",
        "Molecular Mass": "122.16",
        "Boiling Point": "224 °C",
        "Melting Point": "38 °C",
        "Density": "1.02189 g/cm³ @ Temp: 19.8 °C"
    }
}