{
    "cas_no": "456-41-7",
    "key_name": "3-Fluorobenzyl bromide",
    "cn_name": "3-氟溴苄;",
    "alternate_name": "Benzene, 1-(bromomethyl)-3-fluoro-;Toluene, α-bromo-<em>m</em>-fluoro-;1-(Bromomethyl)-3-fluorobenzene;<em>m</em>-Fluorobenzyl bromide;3-Fluorobenzyl bromide;NSC 91494;(3-Fluorophenyl)methyl bromide;3-(Bromomethyl)fluorobenzene;α-Bromo-3-fluorotoluene;m-Fluorobenzyl bromide;1-Fluoro-3-(bromomethyl)benzene",
    "duplicated_cas_no": "",
    "SMILES": "C(Br)C1=CC(F)=CC=C1",
    "meta_data": {
        "InChI": "InChI=1S/C7H6BrF/c8-5-6-2-1-3-7(9)4-6/h1-4H,5H2",
        "InChIKey": null,
        "Canonical SMILES": "FC1=CC=CC(=C1)CBr",
        "Molecular Formula": "C<sub>7</sub>H<sub>6</sub>BrF",
        "Molecular Mass": "189.02",
        "Boiling Point": "77 °C @ Press: 12 Torr"
    }
}