{
    "cas_no": "27817-67-0",
    "key_name": "3-(Propylthio)-1-propene",
    "cn_name": "烯丙基丙基硫醚;",
    "alternate_name": "1-Propene, 3-(propylthio)-;Sulfide, allyl propyl;3-(Propylthio)-1-propene;Allyl propyl sulfide;Propyl allyl sulfide;2-Propenyl propyl sulfide;Allyl <em>n</em>-propyl sulfide;NSC 164926;1-Prop-2-enylsulfanylpropane",
    "duplicated_cas_no": "",
    "SMILES": "S(CCC)CC=C",
    "meta_data": {
        "InChI": "InChI=1S/C6H12S/c1-3-5-7-6-4-2/h3H,1,4-6H2,2H3",
        "InChIKey": null,
        "Canonical SMILES": "S(CC=C)CCC",
        "Molecular Formula": "C<sub>6</sub>H<sub>12</sub>S",
        "Molecular Mass": "116.22",
        "Boiling Point": "66-69 °C @ Press: 16 Torr",
        "Density": "0.8642 g/cm³ @ Temp: 20 °C"
    }
}