{
    "cas_no": "1198-40-9",
    "key_name": "4-Amino-7-chloroquinoline",
    "cn_name": "4-氨基-7-氯喹啉;",
    "alternate_name": "4-Quinolinamine, 7-chloro-;Quinoline, 4-amino-7-chloro-;7-Chloro-4-quinolinamine;4-Amino-7-chloroquinoline;7-Chloro-4-aminoquinoline;BM 07365;NSC 119495;NSC 13;7-Chloroquinolin-4-amine;(7-Chloroquinolin-4-yl)-amine",
    "duplicated_cas_no": "",
    "SMILES": "NC=1C2=C(C=C(Cl)C=C2)N=CC1",
    "meta_data": {
        "InChI": "InChI=1S/C9H7ClN2/c10-6-1-2-7-8(11)3-4-12-9(7)5-6/h1-5H,(H2,11,12)",
        "InChIKey": null,
        "Canonical SMILES": "ClC=1C=CC=2C(=NC=CC2N)C1",
        "Molecular Formula": "C<sub>9</sub>H<sub>7</sub>ClN<sub>2</sub>",
        "Molecular Mass": "178.62",
        "Melting Point": "150-152.5 °C"
    }
}