{
    "cas_no": "35274-05-6",
    "key_name": "Cetyl lactate",
    "cn_name": "十六烷基乳酸酯;鲸蜡醇乳酸酯;",
    "alternate_name": "Propanoic acid, 2-hydroxy-, hexadecyl ester;Lactic acid, hexadecyl ester;Hexadecyl lactate;Cetyl lactate;Cyclochem CL;Spermol lactate;Ceraphyl 28",
    "duplicated_cas_no": "",
    "SMILES": "C(CCCCCCCCCCCCCC)COC(C(C)O)=O",
    "meta_data": {
        "InChI": "InChI=1S/C19H38O3/c1-3-4-5-6-7-8-9-10-11-12-13-14-15-16-17-22-19(21)18(2)20/h18,20H,3-17H2,1-2H3",
        "InChIKey": null,
        "Canonical SMILES": "O=C(OCCCCCCCCCCCCCCCC)C(O)C",
        "Molecular Formula": "C<sub>19</sub>H<sub>38</sub>O<sub>3</sub>",
        "Molecular Mass": "314.50",
        "Melting Point": "41 °C"
    }
}