{
    "cas_no": "17812-07-6",
    "key_name": "(2<em>E</em>)-4-Oxo-4-phenyl-2-butenoic acid",
    "cn_name": "trans-3-苯甲酰丙烯酸;",
    "alternate_name": "2-Butenoic acid, 4-oxo-4-phenyl-, (2<em>E</em>)-;Acrylic acid, 3-benzoyl-, (<em>E</em>)-;2-Butenoic acid, 4-oxo-4-phenyl-, (<em>E</em>)-;(2<em>E</em>)-4-Oxo-4-phenyl-2-butenoic acid;<em>trans</em>-3-Benzoylacrylic acid;(<em>E</em>)-4-Oxo-4-phenyl-2-butenoic acid;<em>trans</em>-β-Benzoylacrylic acid;4-Oxo-4-phenyl-2(<em>E</em>)-butenoic acid;4-Phenyl-4-oxo-2(<em>E</em>)-butenoic acid;(E)-4-Oxo-4-phenylbut-2-enoic acid",
    "duplicated_cas_no": "",
    "SMILES": "C(/C=C/C(O)=O)(=O)C1=CC=CC=C1",
    "meta_data": {
        "InChI": "InChI=1S/C10H8O3/c11-9(6-7-10(12)13)8-4-2-1-3-5-8/h1-7H,(H,12,13)/b7-6+",
        "InChIKey": null,
        "Canonical SMILES": "O=C(O)C=CC(=O)C=1C=CC=CC1",
        "Molecular Formula": "C<sub>10</sub>H<sub>8</sub>O<sub>3</sub>",
        "Molecular Mass": "176.17",
        "Melting Point": "95-96 °C"
    }
}