{
    "cas_no": "75980-60-8",
    "key_name": "(2,4,6-Trimethylbenzoyl)diphenylphosphine oxide",
    "cn_name": "(2,4,6-三甲基苯甲酰基)二苯基氧化膦;",
    "alternate_name": "Methanone, (diphenylphosphinyl)(2,4,6-trimethylphenyl)-;Phosphine oxide, diphenyl(2,4,6-trimethylbenzoyl)-;(Diphenylphosphinyl)(2,4,6-trimethylphenyl)methanone;Lucirin LR 8728;Diphenyl(2,4,6-trimethylbenzoyl)phosphine oxide;(2,4,6-Trimethylbenzoyl)diphenylphosphine oxide;Lucirin LR 8893;Lucirin 8893X;Chivacure TPO;Irgacure TPO;Photocure TPO;Darocur TPO;Speedcure TPO;L-TPO;Lucirin TPO Solid;Lucirin TPO-X;TPO-X;Genocure TPO;Lucirin TPO;Lucirin LR 8953;TPO;Esacure TPO;D-TPO;UV-Cure APO;Lucirin LR 8953X;Doublecure TPO;Chemcure TPO;DCTPO;TPO 173;Genocure LTM;D 3358;Micure TPO;Additol TPO;Ciba TPO;Irganox 819;Omnirad TPO;JRCure 1108;I-TPO;Diphenyl (2,4,6-trimethylbenzoyl)phosphine oxide;IHT-PI TPO;Photoinitiator TPO;JRcure TPO;Genocure TPO-L;Lunacure TPO;IGR 819;Omnirad TPO-H;Ryoji TPO;2,4,6-(Trimethylbenzoyl)diphenylphosphorus oxide;(Diphenylphosphoryl)(mesityl)methanone;SB-PI 718;LR 8953;Gencure TPO;OR TPO-H;UV-Cure TPO;Daido UV-Cure TPO;IGM TPO;TPO-H;Kaiji 3033A;3033A;Omnirad TPO-G;Chemark TPO;YG 1610;PI 718;Omnirad TPO-S;JRCure TPO;Daido UV-Cure APO;GR-TPO;Lencolo 5007",
    "duplicated_cas_no": "596818-40-5;743458-22-2;1004988-40-2;1266684-52-9;1629246-19-0;2378004-46-5",
    "SMILES": "P(C(=O)C1=C(C)C=C(C)C=C1C)(=O)(C2=CC=CC=C2)C3=CC=CC=C3",
    "meta_data": {
        "InChI": "InChI=1S/C22H21O2P/c1-16-14-17(2)21(18(3)15-16)22(23)25(24,19-10-6-4-7-11-19)20-12-8-5-9-13-20/h4-15H,1-3H3",
        "InChIKey": null,
        "Canonical SMILES": "O=C(C=1C(=CC(=CC1C)C)C)P(=O)(C=2C=CC=CC2)C=3C=CC=CC3",
        "Molecular Formula": "C<sub>22</sub>H<sub>21</sub>O<sub>2</sub>P",
        "Molecular Mass": "348.37",
        "Melting Point": "87-89 °C",
        "Density": "1.17 g/cm³ @ Temp: 20 °C"
    }
}