{
    "cas_no": "426844-23-7",
    "key_name": "2-Pyrrolidinecarboxamide, 4-fluoro-, hydrochloride (1:1), (2<em>S</em>,4<em>S</em>)-",
    "cn_name": "4-顺式氟-L-脯氨酸酰胺盐酸盐;",
    "alternate_name": "2-Pyrrolidinecarboxamide, 4-fluoro-, hydrochloride (1:1), (2<em>S</em>,4<em>S</em>)-;2-Pyrrolidinecarboxamide, 4-fluoro-, monohydrochloride, (2<em>S</em>,4<em>S</em>)-;(2<em>S</em>,4<em>S</em>)-2-(Aminocarbonyl)-4-fluoropyrrolidine hydrochloride;(2<em>S</em>,4<em>S</em>)-4-Fluoro-2-pyrrolidinecarboxamide hydrochloride",
    "duplicated_cas_no": "",
    "SMILES": "C(N)(=O)[C@@H]1C[C@H](F)CN1.Cl",
    "meta_data": {
        "InChI": "InChI=1S/C5H9FN2O.ClH/c6-3-1-4(5(7)9)8-2-3;/h3-4,8H,1-2H2,(H2,7,9);1H/t3-,4-;/m0./s1",
        "InChIKey": null,
        "Canonical SMILES": "Cl.O=C(N)C1NCC(F)C1",
        "Molecular Formula": "C<sub>5</sub>H<sub>9</sub>FN<sub>2</sub>O.ClH",
        "Molecular Mass": "",
        "Melting Point": "230-231 °C (decomp)"
    }
}