{
    "cas_no": "312-94-7",
    "key_name": "2-(Trifluoromethyl)benzoyl chloride",
    "cn_name": "2-三氟甲基苯甲酰氯;邻三氟甲基苯甲酰氯;",
    "alternate_name": "Benzoyl chloride, 2-(trifluoromethyl)-;<em>o</em>-Toluoyl chloride, α,α,α-trifluoro-;2-(Trifluoromethyl)benzoyl chloride;α,α,α-Trifluoro-<em>o</em>-toluoyl chloride;<em>o</em>-(Trifluoromethyl)benzoyl chloride;NSC 88290;2-(Trifluoromethyl)benzene-1-carbonyl chloride",
    "duplicated_cas_no": "",
    "SMILES": "C(F)(F)(F)C1=C(C(Cl)=O)C=CC=C1",
    "meta_data": {
        "InChI": "InChI=1S/C8H4ClF3O/c9-7(13)5-3-1-2-4-6(5)8(10,11)12/h1-4H",
        "InChIKey": null,
        "Canonical SMILES": "O=C(Cl)C=1C=CC=CC1C(F)(F)F",
        "Molecular Formula": "C<sub>8</sub>H<sub>4</sub>ClF<sub>3</sub>O",
        "Molecular Mass": "208.57",
        "Boiling Point": "190 °C",
        "Density": "1.4158 g/cm³ @ Temp: 20 °C"
    }
}