{
    "cas_no": "14121-36-9",
    "key_name": "2,3,4,6-Tetrachloropyridine",
    "cn_name": null,
    "alternate_name": "Pyridine, 2,3,4,6-tetrachloro-;2,3,4,6-Tetrachloropyridine",
    "duplicated_cas_no": "",
    "SMILES": "ClC=1C(Cl)=CC(Cl)=NC1Cl",
    "meta_data": {
        "InChI": "InChI=1S/C5HCl4N/c6-2-1-3(7)10-5(9)4(2)8/h1H",
        "InChIKey": null,
        "Canonical SMILES": "ClC=1N=C(Cl)C(Cl)=C(Cl)C1",
        "Molecular Formula": "C<sub>5</sub>HCl<sub>4</sub>N",
        "Molecular Mass": "216.88",
        "Boiling Point": "248.0-249.5 °C @ Press: 760 Torr",
        "Melting Point": "37.5-38 °C"
    }
}