{
    "cas_no": "2068-02-2",
    "key_name": "Quercetin 3,7-dimethyl ether",
    "cn_name": null,
    "alternate_name": "4<em>H</em>-1-Benzopyran-4-one, 2-(3,4-dihydroxyphenyl)-5-hydroxy-3,7-dimethoxy-;Flavone, 3′,4′,5-trihydroxy-3,7-dimethoxy-;2-(3,4-Dihydroxyphenyl)-5-hydroxy-3,7-dimethoxy-4<em>H</em>-1-benzopyran-4-one;3,7-Di-<em>O</em>-methylquercetin;Quercetin 3,7-dimethyl ether;3,7-Dimethylquercetin;5,3′,4′-Trihydroxy-3,7-dimethoxyflavone;3′,4′,5-Trihydroxy-3,7-dimethoxyflavone;3,7-Dimethoxy-3′,4′,5-trihydroxyflavone;Quercetin 3,7-di-<em>O</em>-methyl ether;3,7-Dimethoxy-5,3′,4′-trihydroxyflavone;2-(3,4-Dihydroxyphenyl)-5-hydroxy-3,7-dimethoxychromen-4-one",
    "duplicated_cas_no": "",
    "SMILES": "O(C)C1=C(OC=2C(C1=O)=C(O)C=C(OC)C2)C3=CC(O)=C(O)C=C3",
    "meta_data": {
        "InChI": "InChI=1S/C17H14O7/c1-22-9-6-12(20)14-13(7-9)24-16(17(23-2)15(14)21)8-3-4-10(18)11(19)5-8/h3-7,18-20H,1-2H3",
        "InChIKey": null,
        "Canonical SMILES": "O=C1C(OC)=C(OC2=CC(OC)=CC(O)=C12)C=3C=CC(O)=C(O)C3",
        "Molecular Formula": "C<sub>17</sub>H<sub>14</sub>O<sub>7</sub>",
        "Molecular Mass": "330.29",
        "Melting Point": "234-235 °C"
    }
}