{
    "cas_no": "122-57-6",
    "key_name": "4-Phenyl-3-buten-2-one",
    "cn_name": "苯亚甲基丙酮;苄叉丙酮;4-苯基-3-丁烯-2-酮;",
    "alternate_name": "3-Buten-2-one, 4-phenyl-;Ketone, methyl styryl;2-Butenone, 4-phenyl-;4-Phenyl-3-buten-2-one;Acetocinnamone;Methyl styryl ketone;Benzalacetone;Benzylideneacetone;4-Phenylbutenone;1-Phenyl-1-buten-3-one;Methyl β-styryl ketone;2-Phenylvinyl methyl ketone;Methyl 2-phenylvinyl ketone;Styryl methyl ketone;4-Phenyl-3-butene-2-one;2-Phenylethenyl methyl ketone;NSC 5605;Methyl phenylvinyl ketone",
    "duplicated_cas_no": "",
    "SMILES": "C(=CC(C)=O)C1=CC=CC=C1",
    "meta_data": {
        "InChI": "InChI=1S/C10H10O/c1-9(11)7-8-10-5-3-2-4-6-10/h2-8H,1H3",
        "InChIKey": null,
        "Canonical SMILES": "O=C(C=CC=1C=CC=CC1)C",
        "Molecular Formula": "C<sub>10</sub>H<sub>10</sub>O",
        "Molecular Mass": "146.19",
        "Boiling Point": "261 °C",
        "Melting Point": "41.5 °C"
    }
}