{
    "cas_no": "3373-53-3",
    "key_name": "Isoguanine",
    "cn_name": "2-羟基-6-氨基嘌呤;",
    "alternate_name": "2<em>H</em>-Purin-2-one, 6-amino-3,7-dihydro-;Isoguanine;2<em>H</em>-Purin-2-one, 6-amino-1,3-dihydro-;6-Amino-3,7-dihydro-2<em>H</em>-purin-2-one;2-Oxyadenine;Guanopterin;2-Hydroxyadenine;2-Hydroxy-6-aminopurine;6-Amino-2-hydroxypurine;2-Oxoadenine;NSC 241501",
    "duplicated_cas_no": "492-32-0;2684-07-3;26788-75-0",
    "SMILES": "NC=1C2=C(NC(=O)N1)N=CN2",
    "meta_data": {
        "InChI": "InChI=1S/C5H5N5O/c6-3-2-4(8-1-7-2)10-5(11)9-3/h1H,(H4,6,7,8,9,10,11)",
        "InChIKey": null,
        "Canonical SMILES": "O=C1N=C(N)C=2NC=NC2N1",
        "Molecular Formula": "C<sub>5</sub>H<sub>5</sub>N<sub>5</sub>O",
        "Molecular Mass": "151.13",
        "Melting Point": "&gt;360 °C"
    }
}