{
    "cas_no": "5241-59-8",
    "key_name": "(α<em>R</em>)-α-Aminobenzenepropanamide",
    "cn_name": null,
    "alternate_name": "Benzenepropanamide, α-amino-, (α<em>R</em>)-;Hydrocinnamamide, α-amino-, (<em>R</em>)-;Benzenepropanamide, α-amino-, (<em>R</em>)-;(α<em>R</em>)-α-Aminobenzenepropanamide;<span class=\"text-smallcaps\">D</span>-Phenylalaninamide;(<em>R</em>)-Phenylalaninamide;(<em>R</em>)-2-Amino-3-phenylpropionamide;(2R)-2-Amino-3-phenylpropanamide;(R)-2-Amino-3-phenylpropanamide",
    "duplicated_cas_no": "",
    "SMILES": "C([C@H](C(N)=O)N)C1=CC=CC=C1",
    "meta_data": {
        "InChI": "InChI=1S/C9H12N2O/c10-8(9(11)12)6-7-4-2-1-3-5-7/h1-5,8H,6,10H2,(H2,11,12)/t8-/m1/s1",
        "InChIKey": null,
        "Canonical SMILES": "O=C(N)C(N)CC=1C=CC=CC1",
        "Molecular Formula": "C<sub>9</sub>H<sub>12</sub>N<sub>2</sub>O",
        "Molecular Mass": "164.20",
        "Melting Point": "234-237 °C (decomp)"
    }
}