{
    "cas_no": "52577-09-0",
    "key_name": "3-(Chloromethyl)-4-methoxybenzaldehyde",
    "cn_name": null,
    "alternate_name": "Benzaldehyde, 3-(chloromethyl)-4-methoxy-;3-(Chloromethyl)-4-methoxybenzaldehyde;3-Chloromethyl-4-methoxybenzaldehyde",
    "duplicated_cas_no": "",
    "SMILES": "C(Cl)C1=C(OC)C=CC(C=O)=C1",
    "meta_data": {
        "InChI": "InChI=1S/C9H9ClO2/c1-12-9-3-2-7(6-11)4-8(9)5-10/h2-4,6H,5H2,1H3",
        "InChIKey": null,
        "Canonical SMILES": "O=CC1=CC=C(OC)C(=C1)CCl",
        "Molecular Formula": "C<sub>9</sub>H<sub>9</sub>ClO<sub>2</sub>",
        "Molecular Mass": "184.62",
        "Boiling Point": "150-155 °C @ Press: 5 Torr",
        "Melting Point": "60 °C"
    }
}