{
    "cas_no": "6003-11-8",
    "key_name": "Alizarin 2-methyl ether",
    "cn_name": null,
    "alternate_name": "9,10-Anthracenedione, 1-hydroxy-2-methoxy-;Anthraquinone, 1-hydroxy-2-methoxy-;1-Hydroxy-2-methoxy-9,10-anthracenedione;Alizarin 2-methyl ether;1-Hydroxy-2-methoxyanthraquinone",
    "duplicated_cas_no": "",
    "SMILES": "O=C1C=2C(C(=O)C=3C1=CC=CC3)=CC=C(OC)C2O",
    "meta_data": {
        "InChI": "InChI=1S/C15H10O4/c1-19-11-7-6-10-12(15(11)18)14(17)9-5-3-2-4-8(9)13(10)16/h2-7,18H,1H3",
        "InChIKey": null,
        "Canonical SMILES": "O=C1C=2C=CC=CC2C(=O)C3=C(O)C(OC)=CC=C13",
        "Molecular Formula": "C<sub>15</sub>H<sub>10</sub>O<sub>4</sub>",
        "Molecular Mass": "254.24",
        "Melting Point": "229-230 °C"
    }
}