{
    "cas_no": "771-62-0",
    "key_name": "Pentafluorobenzenethiol",
    "cn_name": "五氟苯硫酚;",
    "alternate_name": "Benzenethiol, 2,3,4,5,6-pentafluoro-;Benzenethiol, pentafluoro-;2,3,4,5,6-Pentafluorobenzenethiol;Pentafluorothiophenol;Pentafluorobenzenethiol;2,3,4,5,6-Pentafluorothiophenol;Perfluorothiophenol;Mercapto(pentafluoro)benzene;(Pentafluorophenyl)thiol;NSC 88286;PFBT;Pentafluorophenyl mercaptan;P 0861",
    "duplicated_cas_no": "",
    "SMILES": "FC1=C(F)C(F)=C(S)C(F)=C1F",
    "meta_data": {
        "InChI": "InChI=1S/C6HF5S/c7-1-2(8)4(10)6(12)5(11)3(1)9/h12H",
        "InChIKey": null,
        "Canonical SMILES": "FC=1C(F)=C(F)C(S)=C(F)C1F",
        "Molecular Formula": "C<sub>6</sub>HF<sub>5</sub>S",
        "Molecular Mass": "200.13",
        "Boiling Point": "143 °C",
        "Melting Point": "-24 °C"
    }
}