{
    "cas_no": "20056-92-2",
    "key_name": "(<em>Z</em>)-7-Dodecen-1-ol",
    "cn_name": null,
    "alternate_name": "7-Dodecen-1-ol, (7<em>Z</em>)-;7-Dodecen-1-ol, (<em>Z</em>)-;(7<em>Z</em>)-7-Dodecen-1-ol;<em>cis</em>-7-Dodecen-1-ol;(<em>Z</em>)-7-Dodecen-1-ol;(<em>Z</em>)-7-Dodecenyl alcohol",
    "duplicated_cas_no": "",
    "SMILES": "C(/C=C\\CCCC)CCCCCO",
    "meta_data": {
        "InChI": "InChI=1S/C12H24O/c1-2-3-4-5-6-7-8-9-10-11-12-13/h5-6,13H,2-4,7-12H2,1H3/b6-5-",
        "InChIKey": null,
        "Canonical SMILES": "OCCCCCCC=CCCCC",
        "Molecular Formula": "C<sub>12</sub>H<sub>24</sub>O",
        "Molecular Mass": "184.32",
        "Boiling Point": "270.1 °C"
    }
}