{
    "cas_no": "344-80-9",
    "key_name": "(2-Amino-5-nitrophenyl)(2-fluorophenyl)methanone",
    "cn_name": "2-氨基-5-硝基-2\"-氟二苯甲酮;",
    "alternate_name": "Methanone, (2-amino-5-nitrophenyl)(2-fluorophenyl)-;Benzophenone, 2-amino-2′-fluoro-5-nitro-;(2-Amino-5-nitrophenyl)(2-fluorophenyl)methanone;2-Amino-2′-fluoro-5-nitrobenzophenone;2-Amino-5-nitro-2′-fluorobenzophenone",
    "duplicated_cas_no": "",
    "SMILES": "C(=O)(C1=CC(N(=O)=O)=CC=C1N)C2=C(F)C=CC=C2",
    "meta_data": {
        "InChI": "InChI=1S/C13H9FN2O3/c14-11-4-2-1-3-9(11)13(17)10-7-8(16(18)19)5-6-12(10)15/h1-7H,15H2",
        "InChIKey": null,
        "Canonical SMILES": "O=C(C=1C=CC=CC1F)C2=CC(=CC=C2N)N(=O)=O",
        "Molecular Formula": "C<sub>13</sub>H<sub>9</sub>FN<sub>2</sub>O<sub>3</sub>",
        "Molecular Mass": "260.22",
        "Melting Point": "161-163 °C"
    }
}