{
    "cas_no": "557-17-5",
    "key_name": "Methyl propyl ether",
    "cn_name": "甲丙醚;甲基丙基醚;1-甲氧基丙烷;甲氧基丙烷;1-甲氧丙烷;",
    "alternate_name": "Propane, 1-methoxy-;Ether, methyl propyl;Methyl propyl ether;Methyl <em>n</em>-propyl ether;Metopryl;Neothyl;1-Methoxypropane;α-Methoxypropane;Propyl methyl ether",
    "duplicated_cas_no": "",
    "SMILES": "C(CC)OC",
    "meta_data": {
        "InChI": "InChI=1S/C4H10O/c1-3-4-5-2/h3-4H2,1-2H3",
        "InChIKey": null,
        "Canonical SMILES": "O(C)CCC",
        "Molecular Formula": "C<sub>4</sub>H<sub>10</sub>O",
        "Molecular Mass": "74.12",
        "Boiling Point": "39.1 °C",
        "Density": "0.7356 g/cm³ @ Temp: 13 °C"
    }
}