{
    "cas_no": "2217-41-6",
    "key_name": "5,6,7,8-Tetrahydro-1-naphthylamine",
    "cn_name": "1-氨基四氢化萘;",
    "alternate_name": "1-Naphthalenamine, 5,6,7,8-tetrahydro-;1-Naphthylamine, 5,6,7,8-tetrahydro-;5,6,7,8-Tetrahydro-1-naphthalenamine;5-Aminotetralin;5-Amino-1,2,3,4-tetrahydronaphthalene;1-Amino-5,6,7,8-tetrahydronaphthalene;5-Tetralinylamine;5,6,7,8-Tetrahydro-1-naphthylamine;1,2,3,4-Tetrahydro-5-naphthylamine;5,6,7,8-Tetrahydro-1-naphthalenylamine;NSC 53503;1,2,3,4-Tetrahydro-5-naphthalenamine;1,2,3,4-Tetrahydro-5-aminonaphthalene",
    "duplicated_cas_no": "",
    "SMILES": "NC1=C2C(=CC=C1)CCCC2",
    "meta_data": {
        "InChI": "InChI=1S/C10H13N/c11-10-7-3-5-8-4-1-2-6-9(8)10/h3,5,7H,1-2,4,6,11H2",
        "InChIKey": null,
        "Canonical SMILES": "NC1=CC=CC2=C1CCCC2",
        "Molecular Formula": "C<sub>10</sub>H<sub>13</sub>N",
        "Molecular Mass": "147.22",
        "Boiling Point": "279 °C",
        "Melting Point": "38 °C",
        "Density": "1.0607 g/cm³ @ Temp: 20 °C"
    }
}