{
    "cas_no": "21732-17-2",
    "key_name": "1<em>H</em>-Tetrazole-1-acetic acid",
    "cn_name": "四氮唑乙酸;",
    "alternate_name": "1<em>H</em>-Tetrazole-1-acetic acid;1-Tetrazoleacetic acid;1-Tetrazolylacetic acid;1<em>H</em>-Tetrazol-1-ylacetic acid;2-(1<em>H</em>-Tetrazol-1-yl)acetic acid;2-(1<em>H</em>-1,2,3,4-Tetrazol-1-yl)acetic acid;2-(Tetrazol-1-yl)acetic acid;1<em>H</em>-Tetraazol-1-ylacetic acid;1<em>H</em>-1,2,3,4-Tetrazole-1-acetic acid",
    "duplicated_cas_no": "",
    "SMILES": "C(C(O)=O)N1C=NN=N1",
    "meta_data": {
        "InChI": "InChI=1S/C3H4N4O2/c8-3(9)1-7-2-4-5-6-7/h2H,1H2,(H,8,9)",
        "InChIKey": null,
        "Canonical SMILES": "O=C(O)CN1N=NN=C1",
        "Molecular Formula": "C<sub>3</sub>H<sub>4</sub>N<sub>4</sub>O<sub>2</sub>",
        "Molecular Mass": "128.09",
        "Melting Point": "128.2-129.2 °C"
    }
}