{
    "cas_no": "1004-24-6",
    "key_name": "4-Methylenecyclohexanemethanol",
    "cn_name": null,
    "alternate_name": "Cyclohexanemethanol, 4-methylene-;4-Methylenecyclohexanemethanol;4-Methylenecyclohexylmethanol",
    "duplicated_cas_no": "",
    "SMILES": "C(O)C1CCC(=C)CC1",
    "meta_data": {
        "InChI": "InChI=1S/C8H14O/c1-7-2-4-8(6-9)5-3-7/h8-9H,1-6H2",
        "InChIKey": null,
        "Canonical SMILES": "OCC1CCC(=C)CC1",
        "Molecular Formula": "C<sub>8</sub>H<sub>14</sub>O",
        "Molecular Mass": "126.20",
        "Boiling Point": "128-130 °C @ Press: 57 Torr"
    }
}