{
    "cas_no": "107-83-5",
    "key_name": "2-Methylpentane",
    "cn_name": "2-甲基戊烷;异己烷;",
    "alternate_name": "Pentane, 2-methyl-;2-Methylpentane;Isohexane;1,1-Dimethylbutane;Kyowazol C 600;NSC 66496;Kyowasol C 600M;2-Methylpentan",
    "duplicated_cas_no": "",
    "SMILES": "C(C(C)C)CC",
    "meta_data": {
        "InChI": "InChI=1S/C6H14/c1-4-5-6(2)3/h6H,4-5H2,1-3H3",
        "InChIKey": null,
        "Canonical SMILES": "CCCC(C)C",
        "Molecular Formula": "C<sub>6</sub>H<sub>14</sub>",
        "Molecular Mass": "86.18",
        "Boiling Point": "60.3 °C",
        "Melting Point": "-153.7 °C",
        "Density": "0.6532 g/cm³ @ Temp: 20 °C"
    }
}