{
    "cas_no": "617-27-6",
    "key_name": "Alanine, ethyl ester, hydrochloride (1:1)",
    "cn_name": "DL-丙氨酸乙酯盐酸盐;",
    "alternate_name": "Alanine, ethyl ester, hydrochloride (1:1);Alanine, ethyl ester, hydrochloride, <span class=\"text-smallcaps\">DL</span>-;<span class=\"text-smallcaps\">DL</span>-Alanine, ethyl ester, hydrochloride;Alanine, ethyl ester, hydrochloride;<span class=\"text-smallcaps\">DL</span>-α-Alanine ethyl ester hydrochloride;NSC 46032;Ethyl 2-aminopropanoate hydrochloride",
    "duplicated_cas_no": "200066-77-9",
    "SMILES": "C(OCC)(C(C)N)=O.Cl",
    "meta_data": {
        "InChI": "InChI=1S/C5H11NO2.ClH/c1-3-8-5(7)4(2)6;/h4H,3,6H2,1-2H3;1H",
        "InChIKey": null,
        "Canonical SMILES": "Cl.O=C(OCC)C(N)C",
        "Molecular Formula": "C<sub>5</sub>H<sub>11</sub>NO<sub>2</sub>.ClH",
        "Molecular Mass": "",
        "Melting Point": "81-83 °C"
    }
}