{
    "cas_no": "35225-79-7",
    "key_name": "(1<em>E</em>,4<em>E</em>)-1,5-Diphenyl-1,4-pentadien-3-one",
    "cn_name": "反式,反式-二苄叉丙酮;",
    "alternate_name": "1,4-Pentadien-3-one, 1,5-diphenyl-, (1<em>E</em>,4<em>E</em>)-;1,4-Pentadien-3-one, 1,5-diphenyl-, (<em>E</em>,<em>E</em>)-;(1<em>E</em>,4<em>E</em>)-1,5-Diphenyl-1,4-pentadien-3-one;<em>trans</em>,<em>trans</em>-1,5-Diphenylpenta-1,4-dien-3-one;<em>trans</em>,<em>trans</em>-Dibenzylideneacetone;(<em>E</em>,<em>E</em>)-1,5-Diphenylpenta-1,4-dien-3-one;<em>trans</em>,<em>trans</em>-Dibenzalacetone;(<em>E</em>,<em>E</em>)-Dibenzylideneacetone;Bis((<em>E</em>)-2-phenylethenyl) ketone;(E,E)-1,5-Diphenyl-1,4-pentadien-3-one",
    "duplicated_cas_no": "",
    "SMILES": "C(=C/C(/C=C/C1=CC=CC=C1)=O)\\C2=CC=CC=C2",
    "meta_data": {
        "InChI": "InChI=1S/C17H14O/c18-17(13-11-15-7-3-1-4-8-15)14-12-16-9-5-2-6-10-16/h1-14H/b13-11+,14-12+",
        "InChIKey": null,
        "Canonical SMILES": "O=C(C=CC=1C=CC=CC1)C=CC=2C=CC=CC2",
        "Molecular Formula": "C<sub>17</sub>H<sub>14</sub>O",
        "Molecular Mass": "234.29",
        "Boiling Point": "230-240 °C @ Press: 1 mmHg",
        "Melting Point": "111 °C"
    }
}