{
    "cas_no": "12317-46-3",
    "key_name": "[(2,3,5,6-η)-Bicyclo[2.2.1]hepta-2,5-diene]dichloropalladium",
    "cn_name": "(双环[2.2.1]七-2,5-二烯)二氯钯(II);",
    "alternate_name": "Palladium, [(2,3,5,6-η)-bicyclo[2.2.1]hepta-2,5-diene]dichloro-;Palladium, dichloro(2,5-norbornadiene)-;Bicyclo[2.2.1]hepta-2,5-diene, palladium complex;[(2,3,5,6-η)-Bicyclo[2.2.1]hepta-2,5-diene]dichloropalladium;Norbornadiene palladium dichloride;Bicyclo[2.2.1]hepta-2,5-diene(dichloro)palladium;Dichloro(norbornadiene)palladium;Dichloro(norbornadiene)palladium(II);NSC 176915;2,5-Norbornadiene Palladium(II) Dichloride",
    "duplicated_cas_no": "",
    "SMILES": "[Cl-][Pd+2]123([Cl-])[CH]4=[CH]1C5[CH]2=[CH]3C4C5",
    "meta_data": {
        "InChI": "InChI=1S/C7H8.2ClH.Pd/c1-2-7-4-3-6(1)5-7;;;/h1-4,6-7H,5H2;2*1H;/q;;;+2/p-2",
        "InChIKey": null,
        "Canonical SMILES": "[Cl-][Pd+2]123([Cl-])[CH]=4C5CC([CH]41)[CH]3=[CH]52",
        "Molecular Formula": "C<sub>7</sub>H<sub>8</sub>Cl<sub>2</sub>Pd",
        "Molecular Mass": "",
        "Melting Point": "190-200 °C (decomp)"
    }
}