{
    "cas_no": "7383-71-3",
    "key_name": "2,2,3,3-Tetrafluoropropyl acrylate",
    "cn_name": "2,2,3,3-四氟丙基丙烯酸酯;",
    "alternate_name": "2-Propenoic acid, 2,2,3,3-tetrafluoropropyl ester;Acrylic acid, 2,2,3,3-tetrafluoropropyl ester;1-Propanol, 2,2,3,3-tetrafluoro-, acrylate;1,1,3-Trihydroperfluoropropyl acrylate;Viscoat 4F;2,2,3,3-Tetrafluoropropyl acrylate;FA 2 (acrylate);FA 2;Tetrafluoropropyl acrylate;R 5210;V 4F;1<em>H</em>,1<em>H</em>,3<em>H</em>-Perfluoropropyl acrylate;2,2,3,3-Tetrafluoropropyl prop-2-enoate;2,2,3,3-Tetrafluropropyl acrylate",
    "duplicated_cas_no": "",
    "SMILES": "C(COC(C=C)=O)(C(F)F)(F)F",
    "meta_data": {
        "InChI": "InChI=1S/C6H6F4O2/c1-2-4(11)12-3-6(9,10)5(7)8/h2,5H,1,3H2",
        "InChIKey": null,
        "Canonical SMILES": "O=C(OCC(F)(F)C(F)F)C=C",
        "Molecular Formula": "C<sub>6</sub>H<sub>6</sub>F<sub>4</sub>O<sub>2</sub>",
        "Molecular Mass": "186.10",
        "Boiling Point": "132.5 °C",
        "Density": "1.2532 g/cm³ @ Temp: 20 °C"
    }
}