{
    "cas_no": "18609-16-0",
    "key_name": "Deacetylnimbin",
    "cn_name": null,
    "alternate_name": "2<em>H</em>-Cyclopenta[<em>b</em>]naphtho[2,3-<em>d</em>]furan-10-acetic acid, 2-(3-furanyl)-3,3a,4a,5,5a,6,9,9a,10,10a-decahydro-5-hydroxy-6-(methoxycarbonyl)-1,6,9a,10a-tetramethyl-9-oxo-, methyl ester, (2<em>R</em>,3a<em>R</em>,4a<em>S</em>,5<em>R</em>,5a<em>R</em>,6<em>R</em>,9a<em>R</em>,10<em>S</em>,10a<em>R</em>)-;2<em>H</em>-Cyclopenta[<em>b</em>]naphtho[2,3-<em>d</em>]furan-10-acetic acid, 6β-carboxy-2α-(3-furyl)-3,3aβ,4aβ,5,5aα,6,9,9a,10,10a-decahydro-5α-hydroxy-1,6,9aβ,10aβ-tetramethyl-9-oxo-, dimethyl ester;18,24-Dinor-11,12-secochola-2,13,20,22-tetraene-4,11-dicarboxylic acid, 7,15:21,23-diepoxy-6-hydroxy-4,8-dimethyl-1-oxo-, dimethyl ester, (4α,5α,6α,7α,15β,17α)-;Nimbic acid, dimethyl ester;Deacetylnimbin;6-Deacetylnimbin;Desacetylnimbin;(+)-Desacetylnimbin;6-Desacetylnimbin",
    "duplicated_cas_no": "108044-13-9",
    "SMILES": "C[C@]12[C@H](CC(OC)=O)[C@]3(C)[C@@]([C@@H](O)[C@]1(O[C@]4(C2=C(C)[C@@H](C4)C=5C=COC5)[H])[H])([C@@](C(OC)=O)(C)C=CC3=O)[H]",
    "meta_data": {
        "InChI": "InChI=1S/C28H34O8/c1-14-16(15-8-10-35-13-15)11-17-21(14)28(4)18(12-20(30)33-5)27(3)19(29)7-9-26(2,25(32)34-6)23(27)22(31)24(28)36-17/h7-10,13,16-18,22-24,31H,11-12H2,1-6H3/t16-,17-,18-,22-,23+,24-,26-,27+,28-/m1/s1",
        "InChIKey": null,
        "Canonical SMILES": "O=C(OC)CC1C2(C(=O)C=CC(C(=O)OC)(C)C2C(O)C3OC4C(=C(C)C(C5=COC=C5)C4)C31C)C",
        "Molecular Formula": "C<sub>28</sub>H<sub>34</sub>O<sub>8</sub>",
        "Molecular Mass": "498.56",
        "Melting Point": "190-195 °C"
    }
}