{
    "cas_no": "65673-63-4",
    "key_name": "<em>rel</em>-Ethyl (α<em>R</em>,4<em>R</em>)-2-amino-6-bromo-α-cyano-3-(ethoxycarbonyl)-4<em>H</em>-1-benzopyran-4-acetate",
    "cn_name": "乙基-2-氨基-6-溴-4-(1-氰基-2-乙氧基-2-甲酰)-4H-苯并呋喃-3-羧酸;",
    "alternate_name": "4<em>H</em>-1-Benzopyran-4-acetic acid, 2-amino-6-bromo-α-cyano-3-(ethoxycarbonyl)-, ethyl ester, (α<em>R</em>,4<em>R</em>)-<em>rel</em>-;<em>rel</em>-Ethyl (α<em>R</em>,4<em>R</em>)-2-amino-6-bromo-α-cyano-3-(ethoxycarbonyl)-4<em>H</em>-1-benzopyran-4-acetate;HA 14-1;H 8787",
    "duplicated_cas_no": "445291-24-7",
    "SMILES": "[C@H](C(OCC)=O)(C#N)[C@@]1(C=2C(OC(N)=C1C(OCC)=O)=CC=C(Br)C2)[H]",
    "meta_data": {
        "InChI": "InChI=1/C17H17BrN2O5/c1-3-23-16(21)11(8-19)13-10-7-9(18)5-6-12(10)25-15(20)14(13)17(22)24-4-2/h5-7,11,13H,3-4,20H2,1-2H3/t11-,13-/s2",
        "InChIKey": null,
        "Canonical SMILES": "N#CC(C(=O)OCC)C1C2=CC(Br)=CC=C2OC(N)=C1C(=O)OCC",
        "Molecular Formula": "C<sub>17</sub>H<sub>17</sub>BrN<sub>2</sub>O<sub>5</sub>",
        "Molecular Mass": "409.23",
        "Melting Point": "107-108 °C"
    }
}