{
    "cas_no": "5854-77-3",
    "key_name": "<span class=\"text-smallcaps\">L</span>-Threonine, <em>O</em>-(1,1-dimethylethyl)-, 1,1-dimethylethyl ester, acetate (1:1)",
    "cn_name": null,
    "alternate_name": "<span class=\"text-smallcaps\">L</span>-Threonine, <em>O</em>-(1,1-dimethylethyl)-, 1,1-dimethylethyl ester, acetate (1:1);Butyric acid, 2-amino-3-<em>tert</em>-butoxy-, <em>tert</em>-butyl ester, acetate, <span class=\"text-smallcaps\">L</span>-;<span class=\"text-smallcaps\">L</span>-Threonine, <em>O</em>-(1,1-dimethylethyl)-, 1,1-dimethylethyl ester, acetate;Butyric acid, 2-amino-3-<em>tert</em>-butoxy-, <em>tert</em>-butyl ester, acetate;<em>O</em>-<em>tert</em>-Butyl-<span class=\"text-smallcaps\">L</span>-threonine tert-butyl ester acetate",
    "duplicated_cas_no": "",
    "SMILES": "[C@@H]([C@@H](C(OC(C)(C)C)=O)N)(OC(C)(C)C)C.C(C)(O)=O",
    "meta_data": {
        "InChI": "InChI=1S/C12H25NO3.C2H4O2/c1-8(15-11(2,3)4)9(13)10(14)16-12(5,6)7;1-2(3)4/h8-9H,13H2,1-7H3;1H3,(H,3,4)/t8-,9+;/m1./s1",
        "InChIKey": null,
        "Canonical SMILES": "O=C(O)C.O=C(OC(C)(C)C)C(N)C(OC(C)(C)C)C",
        "Molecular Formula": "C<sub>12</sub>H<sub>25</sub>NO<sub>3</sub>.C<sub>2</sub>H<sub>4</sub>O<sub>2</sub>",
        "Molecular Mass": "",
        "Melting Point": "54-57 °C"
    }
}