{
    "cas_no": "473-55-2",
    "key_name": "Pinane",
    "cn_name": "蒎烷;",
    "alternate_name": "Bicyclo[3.1.1]heptane, 2,6,6-trimethyl-;Pinane;2,6,6-Trimethylbicyclo[3.1.1]heptane;Dihydropinene;NSC 76674",
    "duplicated_cas_no": "3092-29-3",
    "SMILES": "CC1(C)C2CC1CCC2C",
    "meta_data": {
        "InChI": "InChI=1S/C10H18/c1-7-4-5-8-6-9(7)10(8,2)3/h7-9H,4-6H2,1-3H3",
        "InChIKey": null,
        "Canonical SMILES": "CC1CCC2CC1C2(C)C",
        "Molecular Formula": "C<sub>10</sub>H<sub>18</sub>",
        "Molecular Mass": "138.25",
        "Boiling Point": "169 °C",
        "Melting Point": "&lt;25 °C",
        "Density": "0.8 g/cm³"
    }
}