{
    "cas_no": "93-98-1",
    "key_name": "Benzanilide",
    "cn_name": "N-苯甲酰苯胺;",
    "alternate_name": "Benzamide, <em>N</em>-phenyl-;Benzanilide;<em>N</em>-Phenylbenzamide;Benzoic acid anilide;<em>N</em>-Benzoylaniline;<em>N</em>-Phenylbenzenecarboxamide;NSC 3131;<em>N</em>-Phenylethylbenzamide;PMSA 953",
    "duplicated_cas_no": "100747-15-7",
    "SMILES": "C(NC1=CC=CC=C1)(=O)C2=CC=CC=C2",
    "meta_data": {
        "InChI": "InChI=1S/C13H11NO/c15-13(11-7-3-1-4-8-11)14-12-9-5-2-6-10-12/h1-10H,(H,14,15)",
        "InChIKey": null,
        "Canonical SMILES": "O=C(NC=1C=CC=CC1)C=2C=CC=CC2",
        "Molecular Formula": "C<sub>13</sub>H<sub>11</sub>NO",
        "Molecular Mass": "197.23",
        "Boiling Point": "117-119 °C",
        "Melting Point": "163 °C"
    }
}