{
    "cas_no": "2400-66-0",
    "key_name": "Eicosanal",
    "cn_name": null,
    "alternate_name": "Eicosanal;<em>n</em>-Eicosanal;Eicosyl aldehyde;1-Eicosanal",
    "duplicated_cas_no": "",
    "SMILES": "C(CCCCCCCCCC)CCCCCCCCC=O",
    "meta_data": {
        "InChI": "InChI=1S/C20H40O/c1-2-3-4-5-6-7-8-9-10-11-12-13-14-15-16-17-18-19-20-21/h20H,2-19H2,1H3",
        "InChIKey": null,
        "Canonical SMILES": "O=CCCCCCCCCCCCCCCCCCCC",
        "Molecular Formula": "C<sub>20</sub>H<sub>40</sub>O",
        "Molecular Mass": "296.53",
        "Melting Point": "77-79 °C"
    }
}