{
    "cas_no": "610-49-1",
    "key_name": "1-Aminoanthracene",
    "cn_name": "1-氨基蒽;",
    "alternate_name": "1-Anthracenamine;1-Anthramine;1-Anthracylamine;α-Aminoanthracene;1-Aminoanthracene;1-Anthrylamine;1-Anthracenylamine;NSC 60017",
    "duplicated_cas_no": "",
    "SMILES": "NC=1C2=C(C=C3C(=C2)C=CC=C3)C=CC1",
    "meta_data": {
        "InChI": "InChI=1S/C14H11N/c15-14-7-3-6-12-8-10-4-1-2-5-11(10)9-13(12)14/h1-9H,15H2",
        "InChIKey": null,
        "Canonical SMILES": "NC1=CC=CC2=CC=3C=CC=CC3C=C12",
        "Molecular Formula": "C<sub>14</sub>H<sub>11</sub>N",
        "Molecular Mass": "193.24",
        "Melting Point": "116 °C"
    }
}