{
    "cas_no": "126-00-1",
    "key_name": "4,4′-Bis(4-hydroxyphenyl)valeric acid",
    "cn_name": "双酚酸;",
    "alternate_name": "Benzenebutanoic acid, 4-hydroxy-γ-(4-hydroxyphenyl)-γ-methyl-;Valeric acid, 4,4-bis(<em>p</em>-hydroxyphenyl)-;4-Hydroxy-γ-(4-hydroxyphenyl)-γ-methylbenzenebutanoic acid;4,4-Bis(<em>p</em>-hydroxyphenyl)pentanoic acid;4,4-Bis(4-hydroxyphenyl)pentanoic acid;γ,γ-Bis(<em>p</em>-hydroxyphenyl)valeric acid;4,4-Bis(<em>p</em>-hydroxyphenyl)valeric acid;Diphenolic acid;DPA;4,4-Bis(4-hydroxyphenyl)valeric acid;4,4-Bis(4-hydroxyphenyl)pentanic acid;4,4′-Bis(4-hydroxyphenyl)valeric acid;NSC 3371;NSC 34824;NSC 55069;Bisphenol acid;D 1274",
    "duplicated_cas_no": "",
    "SMILES": "C(CCC(O)=O)(C)(C1=CC=C(O)C=C1)C2=CC=C(O)C=C2",
    "meta_data": {
        "InChI": "InChI=1S/C17H18O4/c1-17(11-10-16(20)21,12-2-6-14(18)7-3-12)13-4-8-15(19)9-5-13/h2-9,18-19H,10-11H2,1H3,(H,20,21)",
        "InChIKey": null,
        "Canonical SMILES": "O=C(O)CCC(C1=CC=C(O)C=C1)(C2=CC=C(O)C=C2)C",
        "Molecular Formula": "C<sub>17</sub>H<sub>18</sub>O<sub>4</sub>",
        "Molecular Mass": "286.32",
        "Melting Point": "171.5 °C"
    }
}