{
    "cas_no": "29816-01-1",
    "key_name": "Glycylsarcosine",
    "cn_name": "甘氨酰肌氨酸;",
    "alternate_name": "Glycine, glycyl-<em>N</em>-methyl-;Sarcosine, <em>N</em>-glycyl-;Glycine, <em>N</em>-glycyl-<em>N</em>-methyl-;Glycyl-<em>N</em>-methylglycine;Glycylsarcosine;NSC 206288;2-[(2-Aminoacetyl)-methylamino]acetic acid;2-(2-Amino-<em>N</em>-methylacetamido)acetic acid",
    "duplicated_cas_no": "",
    "SMILES": "N(C(CN)=O)(CC(O)=O)C",
    "meta_data": {
        "InChI": "InChI=1S/C5H10N2O3/c1-7(3-5(9)10)4(8)2-6/h2-3,6H2,1H3,(H,9,10)",
        "InChIKey": null,
        "Canonical SMILES": "O=C(O)CN(C(=O)CN)C",
        "Molecular Formula": "C<sub>5</sub>H<sub>10</sub>N<sub>2</sub>O<sub>3</sub>",
        "Molecular Mass": "146.14",
        "Melting Point": "200-201 °C"
    }
}