{
    "cas_no": "908600-75-9",
    "key_name": "7-Fluoro-1<em>H</em>-indole-6-carboxylic acid",
    "cn_name": null,
    "alternate_name": "1<em>H</em>-Indole-6-carboxylic acid, 7-fluoro-;7-Fluoro-1<em>H</em>-indole-6-carboxylic acid",
    "duplicated_cas_no": "",
    "SMILES": "FC1=C2C(=CC=C1C(O)=O)C=CN2",
    "meta_data": {
        "InChI": "InChI=1S/C9H6FNO2/c10-7-6(9(12)13)2-1-5-3-4-11-8(5)7/h1-4,11H,(H,12,13)",
        "InChIKey": null,
        "Canonical SMILES": "O=C(O)C=1C=CC=2C=CNC2C1F",
        "Molecular Formula": "C<sub>9</sub>H<sub>6</sub>FNO<sub>2</sub>",
        "Molecular Mass": "179.15",
        "Melting Point": "160-162 °C"
    }
}