{
    "cas_no": "13434-13-4",
    "key_name": "Actinonin",
    "cn_name": null,
    "alternate_name": "Butanediamide, <em>N</em><sup>4</sup>-hydroxy-<em>N</em><sup>1</sup>-[(1<em>S</em>)-1-[[(2<em>S</em>)-2-(hydroxymethyl)-1-pyrrolidinyl]carbonyl]-2-methylpropyl]-2-pentyl-, (2<em>R</em>)-;Actinonine;Octanohydroxamic acid, 3-[[1-[[2-(hydroxymethyl)-1-pyrrolidinyl]carbonyl]-2-methylpropyl]carbamoyl]-;Butanediamide, <em>N</em><sup>4</sup>-hydroxy-<em>N</em><sup>1</sup>-[1-[[2-(hydroxymethyl)-1-pyrrolidinyl]carbonyl]-2-methylpropyl]-2-pentyl-, stereoisomer;(2<em>R</em>)-<em>N</em><sup>4</sup>-Hydroxy-<em>N</em><sup>1</sup>-[(1<em>S</em>)-1-[[(2<em>S</em>)-2-(hydroxymethyl)-1-pyrrolidinyl]carbonyl]-2-methylpropyl]-2-pentylbutanediamide;Actinonin;(-)-Actinonin;Ro 06-1467;CONA 57",
    "duplicated_cas_no": "",
    "SMILES": "C([C@@H](NC([C@@H](CC(NO)=O)CCCCC)=O)[C@H](C)C)(=O)N1[C@H](CO)CCC1",
    "meta_data": {
        "InChI": "InChI=1S/C19H35N3O5/c1-4-5-6-8-14(11-16(24)21-27)18(25)20-17(13(2)3)19(26)22-10-7-9-15(22)12-23/h13-15,17,23,27H,4-12H2,1-3H3,(H,20,25)(H,21,24)/t14-,15+,17+/m1/s1",
        "InChIKey": null,
        "Canonical SMILES": "O=C(NO)CC(C(=O)NC(C(=O)N1CCCC1CO)C(C)C)CCCCC",
        "Molecular Formula": "C<sub>19</sub>H<sub>35</sub>N<sub>3</sub>O<sub>5</sub>",
        "Molecular Mass": "385.50",
        "Melting Point": "148-149 °C"
    }
}