{
    "cas_no": "139528-85-1",
    "key_name": "Metosulam",
    "cn_name": null,
    "alternate_name": "[1,2,4]Triazolo[1,5-<em>a</em>]pyrimidine-2-sulfonamide, <em>N</em>-(2,6-dichloro-3-methylphenyl)-5,7-dimethoxy-;<em>N</em>-(2,6-Dichloro-3-methylphenyl)-5,7-dimethoxy[1,2,4]triazolo[1,5-<em>a</em>]pyrimidine-2-sulfonamide;DE 511;Metosulam;Tacco;Sinal",
    "duplicated_cas_no": "",
    "SMILES": "O(C)C=1N2C(=NC(S(NC3=C(Cl)C(C)=CC=C3Cl)(=O)=O)=N2)N=C(OC)C1",
    "meta_data": {
        "InChI": "InChI=1S/C14H13Cl2N5O4S/c1-7-4-5-8(15)12(11(7)16)20-26(22,23)14-18-13-17-9(24-2)6-10(25-3)21(13)19-14/h4-6,20H,1-3H3",
        "InChIKey": null,
        "Canonical SMILES": "O=S(=O)(NC=1C(Cl)=CC=C(C1Cl)C)C=2N=C3N=C(OC)C=C(OC)N3N2",
        "Molecular Formula": "C<sub>14</sub>H<sub>13</sub>Cl<sub>2</sub>N<sub>5</sub>O<sub>4</sub>S",
        "Molecular Mass": "418.26",
        "Melting Point": "211 °C"
    }
}