{
    "cas_no": "68337-15-5",
    "key_name": "4-(1,2,4-Triazol-1-yl)phenol",
    "cn_name": "4‘-（1H-1,2,4-三唑基）苯酚;",
    "alternate_name": "Phenol, 4-(1<em>H</em>-1,2,4-triazol-1-yl)-;4-(1<em>H</em>-1,2,4-Triazol-1-yl)phenol;4-(1,2,4-Triazol-1-yl)phenol;1-(4-Hydroxyphenyl)-1<em>H</em>-1,2,4-triazole;4-(5-Methyl-1<em>H</em>-1,2,4-triazol-1-yl)phenol",
    "duplicated_cas_no": "",
    "SMILES": "OC1=CC=C(C=C1)N2C=NC=N2",
    "meta_data": {
        "InChI": "InChI=1S/C8H7N3O/c12-8-3-1-7(2-4-8)11-6-9-5-10-11/h1-6,12H",
        "InChIKey": null,
        "Canonical SMILES": "OC1=CC=C(C=C1)N2N=CN=C2",
        "Molecular Formula": "C<sub>8</sub>H<sub>7</sub>N<sub>3</sub>O",
        "Molecular Mass": "161.16",
        "Melting Point": "216-220 °C"
    }
}