{
    "cas_no": "138-59-0",
    "key_name": "Shikimic acid",
    "cn_name": "莽草酸;3,4,5-三羟基-1-环己烯-1-甲酸;",
    "alternate_name": "1-Cyclohexene-1-carboxylic acid, 3,4,5-trihydroxy-, (3<em>R</em>,4<em>S</em>,5<em>R</em>)-;1-Cyclohexene-1-carboxylic acid, 3,4,5-trihydroxy-, [3<em>R</em>-(3α,4α,5β)]-;(3<em>R</em>,4<em>S</em>,5<em>R</em>)-3,4,5-Trihydroxy-1-cyclohexene-1-carboxylic acid;Shikimic acid;[3<em>R</em>-(3α,4α,5β)]-3,4,5-Trihydroxy-1-cyclohexene-1-carboxylic acid;(-)-Shikimic acid;<span class=\"text-smallcaps\">L</span>-Shikimic acid;NSC 59257;(-)-3,4,5-Trihydroxy-1-cyclohexene-1-carboxylic acid;MeSH ID: D012765",
    "duplicated_cas_no": "22574-35-2",
    "SMILES": "C(O)(=O)C=1C[C@@H](O)[C@H](O)[C@H](O)C1",
    "meta_data": {
        "InChI": "InChI=1S/C7H10O5/c8-4-1-3(7(11)12)2-5(9)6(4)10/h1,4-6,8-10H,2H2,(H,11,12)/t4-,5-,6-/m1/s1",
        "InChIKey": null,
        "Canonical SMILES": "O=C(O)C1=CC(O)C(O)C(O)C1",
        "Molecular Formula": "C<sub>7</sub>H<sub>10</sub>O<sub>5</sub>",
        "Molecular Mass": "174.15",
        "Boiling Point": "185-187 °C",
        "Melting Point": "183-184.5 °C"
    }
}