{
    "cas_no": "87-81-0",
    "key_name": "<span class=\"text-smallcaps\">D</span>-Tagatose",
    "cn_name": "D-塔格糖;D-万寿菊糖;",
    "alternate_name": "<span class=\"text-smallcaps\">D</span>-Tagatose;Tagatose, <span class=\"text-smallcaps\">D</span>-;<span class=\"text-smallcaps\">D</span>-<em>lyxo</em>-2-Hexulose",
    "duplicated_cas_no": "",
    "SMILES": "[C@@H]([C@@H](C(CO)=O)O)([C@@H](CO)O)O",
    "meta_data": {
        "InChI": "InChI=1S/C6H12O6/c7-1-3(9)5(11)6(12)4(10)2-8/h3,5-9,11-12H,1-2H2/t3-,5+,6-/m1/s1",
        "InChIKey": null,
        "Canonical SMILES": "O=C(CO)C(O)C(O)C(O)CO",
        "Molecular Formula": "C<sub>6</sub>H<sub>12</sub>O<sub>6</sub>",
        "Molecular Mass": "180.16",
        "Melting Point": "134.5 °C"
    }
}