{
    "cas_no": "35674-20-5",
    "key_name": "3,4-Diiodobenzoic acid",
    "cn_name": "3,4-二碘苯甲酸;",
    "alternate_name": "Benzoic acid, 3,4-diiodo-;3,4-Diiodobenzoic acid",
    "duplicated_cas_no": "",
    "SMILES": "C(O)(=O)C1=CC(I)=C(I)C=C1",
    "meta_data": {
        "InChI": "InChI=1S/C7H4I2O2/c8-5-2-1-4(7(10)11)3-6(5)9/h1-3H,(H,10,11)",
        "InChIKey": null,
        "Canonical SMILES": "O=C(O)C1=CC=C(I)C(I)=C1",
        "Molecular Formula": "C<sub>7</sub>H<sub>4</sub>I<sub>2</sub>O<sub>2</sub>",
        "Molecular Mass": "373.91",
        "Melting Point": "257 °C"
    }
}