{
    "cas_no": "16409-44-2",
    "key_name": "2,6-Octadien-1-ol, 3,7-dimethyl-, acetate",
    "cn_name": null,
    "alternate_name": "2,6-Octadien-1-ol, 3,7-dimethyl-, 1-acetate;2,6-Octadien-1-ol, 3,7-dimethyl-, acetate;3,7-Dimethyl-2,6-octadienyl acetate;2,6-Dimethyl-2,6-octadien-8-yl acetate;3,7-Dimethyl-2,6-octadien-1-yl acetate",
    "duplicated_cas_no": "",
    "SMILES": "C(CCC=C(C)C)(=CCOC(C)=O)C",
    "meta_data": {
        "InChI": "InChI=1S/C12H20O2/c1-10(2)6-5-7-11(3)8-9-14-12(4)13/h6,8H,5,7,9H2,1-4H3",
        "InChIKey": null,
        "Canonical SMILES": "O=C(OCC=C(C)CCC=C(C)C)C",
        "Molecular Formula": "C<sub>12</sub>H<sub>20</sub>O<sub>2</sub>",
        "Molecular Mass": "196.29",
        "Boiling Point": "240 °C",
        "Melting Point": "&lt;25 °C"
    }
}