{
    "cas_no": "7778-39-4",
    "key_name": "Arsenic acid (H<sub>3</sub>AsO<sub>4</sub>)",
    "cn_name": null,
    "alternate_name": "Arsenic acid (H<sub>3</sub>AsO<sub>4</sub>);Orthoarsenic acid;Arsenic acid",
    "duplicated_cas_no": "1327-52-2;58076-82-7",
    "SMILES": "[As](=O)(O)(O)O",
    "meta_data": {
        "InChI": "InChI=1S/AsH3O4/c2-1(3,4)5/h(H3,2,3,4,5)",
        "InChIKey": null,
        "Canonical SMILES": "O=[As](O)(O)O",
        "Molecular Formula": "AsH<sub>3</sub>O<sub>4</sub>",
        "Molecular Mass": "141.94",
        "Melting Point": "35 °C",
        "Density": "~2.2 g/cm³ (approx)"
    }
}