{
    "cas_no": "6953-65-7",
    "key_name": "6-Chloro-1<em>H</em>-benzimidazole-2-methanol",
    "cn_name": null,
    "alternate_name": "1<em>H</em>-Benzimidazole-2-methanol, 6-chloro-;2-Benzimidazolemethanol, 5-chloro-;1<em>H</em>-Benzimidazole-2-methanol, 5-chloro-;6-Chloro-1<em>H</em>-benzimidazole-2-methanol;NSC 38854;5-Chlorobenzimidazole-2-methanol;(5-Chloro-1<em>H</em>-1,3-benzodiazol-2-yl)methanol;(6-Chloro-1<em>H</em>-benzimidazol-2-yl)methanol;(5-Chloro-1<em>H</em>-benzimidazol-2-yl)methanol",
    "duplicated_cas_no": "172807-02-2",
    "SMILES": "C(O)C=1NC=2C(N1)=CC(Cl)=CC2",
    "meta_data": {
        "InChI": "InChI=1S/C8H7ClN2O/c9-5-1-2-6-7(3-5)11-8(4-12)10-6/h1-3,12H,4H2,(H,10,11)",
        "InChIKey": null,
        "Canonical SMILES": "ClC=1C=CC=2NC(=NC2C1)CO",
        "Molecular Formula": "C<sub>8</sub>H<sub>7</sub>ClN<sub>2</sub>O",
        "Molecular Mass": "182.61",
        "Melting Point": "205 °C"
    }
}