{
    "cas_no": "1640-39-7",
    "key_name": "2,3,3-Trimethylindolenine",
    "cn_name": "2,3,3-三甲基-3H-吲哚;",
    "alternate_name": "3<em>H</em>-Indole, 2,3,3-trimethyl-;2,3,3-Trimethyl-3<em>H</em>-indole;2,3,3-Trimethylindolenine;2,3,3-Trimethylindole;NSC 65633;2,3,3-Trimethyl-3<em>H</em>-indolenine",
    "duplicated_cas_no": "",
    "SMILES": "CC1(C)C=2C(N=C1C)=CC=CC2",
    "meta_data": {
        "InChI": "InChI=1S/C11H13N/c1-8-11(2,3)9-6-4-5-7-10(9)12-8/h4-7H,1-3H3",
        "InChIKey": null,
        "Canonical SMILES": "N=1C=2C=CC=CC2C(C1C)(C)C",
        "Molecular Formula": "C<sub>11</sub>H<sub>13</sub>N",
        "Molecular Mass": "159.23",
        "Boiling Point": "115 °C @ Press: 12 Torr",
        "Melting Point": "156 °C"
    }
}