{
    "cas_no": "15733-87-6",
    "key_name": "2-Bromo-4-quinolinecarboxylic acid",
    "cn_name": "2-溴喹啉-4-羧酸;",
    "alternate_name": "4-Quinolinecarboxylic acid, 2-bromo-;Cinchoninic acid, 2-bromo-;2-Bromo-4-quinolinecarboxylic acid",
    "duplicated_cas_no": "",
    "SMILES": "C(O)(=O)C=1C2=C(N=C(Br)C1)C=CC=C2",
    "meta_data": {
        "InChI": "InChI=1S/C10H6BrNO2/c11-9-5-7(10(13)14)6-3-1-2-4-8(6)12-9/h1-5H,(H,13,14)",
        "InChIKey": null,
        "Canonical SMILES": "O=C(O)C=1C=C(Br)N=C2C=CC=CC21",
        "Molecular Formula": "C<sub>10</sub>H<sub>6</sub>BrNO<sub>2</sub>",
        "Molecular Mass": "252.06",
        "Melting Point": "175-176 °C"
    }
}