{
    "cas_no": "72738-09-1",
    "key_name": "4-Piperidinecarboxylic acid, 3-oxo-, ethyl ester, hydrochloride (1:1)",
    "cn_name": null,
    "alternate_name": "4-Piperidinecarboxylic acid, 3-oxo-, ethyl ester, hydrochloride (1:1);4-Piperidinecarboxylic acid, 3-oxo-, ethyl ester, hydrochloride;4-(Ethoxycarbonyl)-3-oxopiperidinium chloride",
    "duplicated_cas_no": "1446259-83-1",
    "SMILES": "C(OCC)(=O)C1C(=O)CNCC1.Cl",
    "meta_data": {
        "InChI": "InChI=1S/C8H13NO3.ClH/c1-2-12-8(11)6-3-4-9-5-7(6)10;/h6,9H,2-5H2,1H3;1H",
        "InChIKey": null,
        "Canonical SMILES": "Cl.O=C(OCC)C1C(=O)CNCC1",
        "Molecular Formula": "C<sub>8</sub>H<sub>13</sub>NO<sub>3</sub>.ClH",
        "Molecular Mass": "",
        "Melting Point": "200-202 °C"
    }
}