{
    "cas_no": "2186-92-7",
    "key_name": "Anisaldehyde dimethyl acetal",
    "cn_name": "4-甲氧基苯甲醛二甲基缩醛;",
    "alternate_name": "Benzene, 1-(dimethoxymethyl)-4-methoxy-;<em>p</em>-Anisaldehyde, dimethyl acetal;Toluene, <em>p</em>,α,α-trimethoxy-;1-(Dimethoxymethyl)-4-methoxybenzene;<em>p</em>-Methoxybenzaldehyde dimethyl acetal;4-Methoxybenzaldehyde dimethyl acetal;Anisaldehyde dimethyl acetal;(p-Methoxyphenyl)dimethoxymethane;Anisic aldehyde dimethyl acetal;Dimethoxy(4-methoxyphenyl)methane;4-Anisaldehyde dimethyl acetal;<em>p</em>-(Dimethoxymethyl)anisole",
    "duplicated_cas_no": "",
    "SMILES": "C(OC)(OC)C1=CC=C(OC)C=C1",
    "meta_data": {
        "InChI": "InChI=1S/C10H14O3/c1-11-9-6-4-8(5-7-9)10(12-2)13-3/h4-7,10H,1-3H3",
        "InChIKey": null,
        "Canonical SMILES": "O(C1=CC=C(C=C1)C(OC)OC)C",
        "Molecular Formula": "C<sub>10</sub>H<sub>14</sub>O<sub>3</sub>",
        "Molecular Mass": "182.22",
        "Boiling Point": "123 °C"
    }
}