{
    "cas_no": "7803-57-8",
    "key_name": "Hydrazine hydrate (1:1)",
    "cn_name": null,
    "alternate_name": "Hydrazine, hydrate (1:1);Hydrazine, monohydrate;Hydrazine, hydrate;Hydrazine hydrate (1:1);Hydrazinium hydroxide;Hydrazine hydroxide;Hydrazine hydrate",
    "duplicated_cas_no": "65209-65-6;65492-74-2;79785-97-0;2089212-75-7;2639144-96-8",
    "SMILES": "NN.O",
    "meta_data": {
        "InChI": "InChI=1S/H4N2.H2O/c1-2;/h1-2H2;1H2",
        "InChIKey": null,
        "Canonical SMILES": "O.NN",
        "Molecular Formula": "H<sub>4</sub>N<sub>2</sub>.H<sub>2</sub>O",
        "Molecular Mass": "",
        "Boiling Point": "59-67 °C @ Press: 70 Torr",
        "Melting Point": "-51.7 °C"
    }
}