{
    "cas_no": "16695-54-8",
    "key_name": "Acetoacetylmorpholine",
    "cn_name": "N-乙酰丙酮吗啉;",
    "alternate_name": "1,3-Butanedione, 1-(4-morpholinyl)-;Morpholine, 4-acetoacetyl-;Morpholine, 4-(1,3-dioxobutyl)-;1-(4-Morpholinyl)-1,3-butanedione;<em>N</em>-Acetoacetylmorpholine;Acetoacetmorpholide;Acetoacetylmorpholine;Acetoacetic acid morpholide;NSC 621758;NSC 67250;1-(4-Morpholinyl)butane-1,3-dione;1-Morpholinobutane-1,3-dione",
    "duplicated_cas_no": "",
    "SMILES": "C(CC(C)=O)(=O)N1CCOCC1",
    "meta_data": {
        "InChI": "InChI=1S/C8H13NO3/c1-7(10)6-8(11)9-2-4-12-5-3-9/h2-6H2,1H3",
        "InChIKey": null,
        "Canonical SMILES": "O=C(N1CCOCC1)CC(=O)C",
        "Molecular Formula": "C<sub>8</sub>H<sub>13</sub>NO<sub>3</sub>",
        "Molecular Mass": "171.19",
        "Boiling Point": "155 °C @ Press: 7 Torr",
        "Melting Point": "74 °C"
    }
}