{
    "cas_no": "7308-90-9",
    "key_name": "1,1′-(3-Oxospiro[isobenzofuran-1(3<em>H</em>),9′-[9<em>H</em>]xanthene]-3′,6′-diyl) didodecanoate",
    "cn_name": "荧光素双十二酸酯;",
    "alternate_name": "Dodecanoic acid, 1,1′-(3-oxospiro[isobenzofuran-1(3<em>H</em>),9′-[9<em>H</em>]xanthene]-3′,6′-diyl) ester;Fluorescein, dilaurate;Dodecanoic acid, 3-oxospiro[isobenzofuran-1(3<em>H</em>),9′-[9<em>H</em>]xanthene]-3′,6′-diyl ester;Lauric acid, diester with fluorescein;1,1′-(3-Oxospiro[isobenzofuran-1(3<em>H</em>),9′-[9<em>H</em>]xanthene]-3′,6′-diyl) didodecanoate;Fluorescein dilauric acid ester;Fluorescein didodecanoate;3-Oxo-3<em>H</em>-spiro[isobenzofuran-1,9′-xanthene]-3′,6′-diyl didodecanoate",
    "duplicated_cas_no": "",
    "SMILES": "O=C1OC2(C=3C(OC=4C2=CC=C(OC(CCCCCCCCCCC)=O)C4)=CC(OC(CCCCCCCCCCC)=O)=CC3)C=5C1=CC=CC5",
    "meta_data": {
        "InChI": "InChI=1S/C44H56O7/c1-3-5-7-9-11-13-15-17-19-25-41(45)48-33-27-29-37-39(31-33)50-40-32-34(49-42(46)26-20-18-16-14-12-10-8-6-4-2)28-30-38(40)44(37)36-24-22-21-23-35(36)43(47)51-44/h21-24,27-32H,3-20,25-26H2,1-2H3",
        "InChIKey": null,
        "Canonical SMILES": "O=C1OC2(C3=CC=C(OC(=O)CCCCCCCCCCC)C=C3OC4=CC(OC(=O)CCCCCCCCCCC)=CC=C42)C=5C=CC=CC15",
        "Molecular Formula": "C<sub>44</sub>H<sub>56</sub>O<sub>7</sub>",
        "Molecular Mass": "696.91",
        "Melting Point": "83 °C"
    }
}