{
    "cas_no": "41934-47-8",
    "key_name": "7-(Diethylamino)-4-(trifluoromethyl)coumarin",
    "cn_name": "香豆素-35;",
    "alternate_name": "2<em>H</em>-1-Benzopyran-2-one, 7-(diethylamino)-4-(trifluoromethyl)-;7-(Diethylamino)-4-(trifluoromethyl)-2<em>H</em>-1-benzopyran-2-one;7-(Diethylamino)-4-(trifluoromethyl)coumarin;Coumarin 481;Pilot 481;Coumarin 481F;C 152A;Coumarin 35;Blue 7;Coumarin 152A;C 481",
    "duplicated_cas_no": "95507-27-0;90981-76-3",
    "SMILES": "C(F)(F)(F)C=1C=2C(=CC(N(CC)CC)=CC2)OC(=O)C1",
    "meta_data": {
        "InChI": "InChI=1S/C14H14F3NO2/c1-3-18(4-2)9-5-6-10-11(14(15,16)17)8-13(19)20-12(10)7-9/h5-8H,3-4H2,1-2H3",
        "InChIKey": null,
        "Canonical SMILES": "O=C1OC=2C=C(C=CC2C(=C1)C(F)(F)F)N(CC)CC",
        "Molecular Formula": "C<sub>14</sub>H<sub>14</sub>F<sub>3</sub>NO<sub>2</sub>",
        "Molecular Mass": "285.26",
        "Melting Point": "80-81 °C",
        "Density": "1.405 g/cm³"
    }
}