{
    "cas_no": "15165-67-0",
    "key_name": "(+)-Dichlorprop",
    "cn_name": "(R)-2-(2,4-二氯苯氧基)丙酸;",
    "alternate_name": "Propanoic acid, 2-(2,4-dichlorophenoxy)-, (2<em>R</em>)-;Propionic acid, 2-(2,4-dichlorophenoxy)-, (+)-;Propanoic acid, 2-(2,4-dichlorophenoxy)-, (<em>R</em>)-;(2<em>R</em>)-2-(2,4-Dichlorophenoxy)propanoic acid;(+)-2,4-DP;(+)-2-(2,4-Dichlorophenoxy)propanoic acid;(<em>R</em>)-(+)-2-(2,4-Dichlorophenoxy)propionic acid;Dichlorprop-P;(<em>R</em>)-2-(2,4-Dichlorophenoxy)propionic acid;(+)-Dichlorprop;(<em>R</em>)-Dichlorprop;(+)-2-(2,4-Dichlorophenoxy)propionic acid;<em>R</em>-(+)-Dichlorprop;(<em>R</em>)-Dichloroprop;(<em>R</em>)-2-(2,4-Dichlorophenoxy)propanoic acid;(R)-2-(2,4-Dichlorophenoxy)propanoic acid;2,4-DP-P",
    "duplicated_cas_no": "",
    "SMILES": "O([C@@H](C(O)=O)C)C1=C(Cl)C=C(Cl)C=C1",
    "meta_data": {
        "InChI": "InChI=1S/C9H8Cl2O3/c1-5(9(12)13)14-8-3-2-6(10)4-7(8)11/h2-5H,1H3,(H,12,13)/t5-/m1/s1",
        "InChIKey": null,
        "Canonical SMILES": "O=C(O)C(OC1=CC=C(Cl)C=C1Cl)C",
        "Molecular Formula": "C<sub>9</sub>H<sub>8</sub>Cl<sub>2</sub>O<sub>3</sub>",
        "Molecular Mass": "235.06",
        "Melting Point": "122-123 °C"
    }
}