{
    "cas_no": "847490-69-1",
    "key_name": "4-Iodoisoxazole",
    "cn_name": null,
    "alternate_name": "Isoxazole, 4-iodo-;4-Iodoisoxazole",
    "duplicated_cas_no": "",
    "SMILES": "IC=1C=NOC1",
    "meta_data": {
        "InChI": "InChI=1S/C3H2INO/c4-3-1-5-6-2-3/h1-2H",
        "InChIKey": null,
        "Canonical SMILES": "IC=1C=NOC1",
        "Molecular Formula": "C<sub>3</sub>H<sub>2</sub>INO",
        "Molecular Mass": "194.96",
        "Melting Point": "61-63 °C"
    }
}