{
    "cas_no": "23563-26-0",
    "key_name": "<em>N</em>-(4-Butoxyphenyl)acetamide",
    "cn_name": "4-丁氧基乙酰苯胺;",
    "alternate_name": "Acetamide, <em>N</em>-(4-butoxyphenyl)-;Acetanilide, 4′-butoxy-;<em>N</em>-(4-Butoxyphenyl)acetamide;4′-Butoxyacetanilide;4-Butoxyacetanilide",
    "duplicated_cas_no": "",
    "SMILES": "N(C(C)=O)C1=CC=C(OCCCC)C=C1",
    "meta_data": {
        "InChI": "InChI=1S/C12H17NO2/c1-3-4-9-15-12-7-5-11(6-8-12)13-10(2)14/h5-8H,3-4,9H2,1-2H3,(H,13,14)",
        "InChIKey": null,
        "Canonical SMILES": "O=C(NC1=CC=C(OCCCC)C=C1)C",
        "Molecular Formula": "C<sub>12</sub>H<sub>17</sub>NO<sub>2</sub>",
        "Molecular Mass": "207.27",
        "Melting Point": "112 °C"
    }
}