{
    "cas_no": "38861-88-0",
    "key_name": "4-Isobutylbenzoic acid",
    "cn_name": "对异丁基苯甲酸;",
    "alternate_name": "Benzoic acid, 4-(2-methylpropyl)-;4-(2-Methylpropyl)benzoic acid;4-Isobutylbenzoic acid;<em>p</em>-Isobutylbenzoic acid;<em>p</em>-(2-Methylpropyl)benzoic acid;NSC 168984",
    "duplicated_cas_no": "",
    "SMILES": "C(C(C)C)C1=CC=C(C(O)=O)C=C1",
    "meta_data": {
        "InChI": "InChI=1S/C11H14O2/c1-8(2)7-9-3-5-10(6-4-9)11(12)13/h3-6,8H,7H2,1-2H3,(H,12,13)",
        "InChIKey": null,
        "Canonical SMILES": "O=C(O)C1=CC=C(C=C1)CC(C)C",
        "Molecular Formula": "C<sub>11</sub>H<sub>14</sub>O<sub>2</sub>",
        "Molecular Mass": "178.23",
        "Melting Point": "141-143 °C"
    }
}