{
    "cas_no": "18171-59-0",
    "key_name": "Chloro(dichloromethyl)dimethylsilane",
    "cn_name": "(二氯甲基)二甲基氯硅烷;",
    "alternate_name": "Silane, chloro(dichloromethyl)dimethyl-;Chloro(dichloromethyl)dimethylsilane;(Dichloromethyl)dimethylchlorosilane",
    "duplicated_cas_no": "",
    "SMILES": "[Si](C(Cl)Cl)(C)(C)Cl",
    "meta_data": {
        "InChI": "InChI=1S/C3H7Cl3Si/c1-7(2,6)3(4)5/h3H,1-2H3",
        "InChIKey": null,
        "Canonical SMILES": "ClC(Cl)[Si](Cl)(C)C",
        "Molecular Formula": "C<sub>3</sub>H<sub>7</sub>Cl<sub>3</sub>Si",
        "Molecular Mass": "177.53",
        "Boiling Point": "149 °C",
        "Melting Point": "-48 °C",
        "Density": "1.237 g/cm³"
    }
}