{
    "cas_no": "7693-27-8",
    "key_name": "Magnesium hydride",
    "cn_name": "氢化镁;二氢化镁;氢化镁;",
    "alternate_name": "Magnesium hydride (MgH<sub>2</sub>);Magnesium dihydride;Magnesium hydride;Tego Magnan",
    "duplicated_cas_no": "",
    "SMILES": "[MgH2]",
    "meta_data": {
        "InChI": "InChI=1S/Mg.2H",
        "InChIKey": null,
        "Canonical SMILES": "[MgH2]",
        "Molecular Formula": "H<sub>2</sub>Mg",
        "Molecular Mass": "",
        "Melting Point": "&gt;250 °C (decomp)",
        "Density": "1.38 g/cm³ (solid)"
    }
}