{
    "cas_no": "104-45-0",
    "key_name": "4-Propylanisole",
    "cn_name": null,
    "alternate_name": "Benzene, 1-methoxy-4-propyl-;Anisole, <em>p</em>-propyl-;1-Methoxy-4-propylbenzene;Dihydroanethole;<em>p</em>-Propylanisole;4-Propylanisole;4-<em>n</em>-Propylanisole;Methyl <em>p</em>-propylphenyl ether;<em>p</em>-Propylphenol methyl ether;4-Methoxy-1-propylbenzene;NSC 37996",
    "duplicated_cas_no": "",
    "SMILES": "C(CC)C1=CC=C(OC)C=C1",
    "meta_data": {
        "InChI": "InChI=1S/C10H14O/c1-3-4-9-5-7-10(11-2)8-6-9/h5-8H,3-4H2,1-2H3",
        "InChIKey": null,
        "Canonical SMILES": "O(C1=CC=C(C=C1)CCC)C",
        "Molecular Formula": "C<sub>10</sub>H<sub>14</sub>O",
        "Molecular Mass": "150.22",
        "Boiling Point": "211.5 °C",
        "Melting Point": "45-46 °C",
        "Density": "0.9312 g/cm³ @ Temp: 20 °C"
    }
}