{
    "cas_no": "121679-13-8",
    "key_name": "Naratriptan",
    "cn_name": "纳拉曲坦;那拉曲坦;诺拉替坦;",
    "alternate_name": "1<em>H</em>-Indole-5-ethanesulfonamide, <em>N</em>-methyl-3-(1-methyl-4-piperidinyl)-;<em>N</em>-Methyl-3-(1-methyl-4-piperidinyl)-1<em>H</em>-indole-5-ethanesulfonamide;<em>N</em>-Methyl-3-(1-methyl-4-piperidyl)indole-5-ethanesulfonamide;Naratriptan",
    "duplicated_cas_no": "",
    "SMILES": "C(CS(NC)(=O)=O)C=1C=C2C(=CNC2=CC1)C3CCN(C)CC3",
    "meta_data": {
        "InChI": "InChI=1S/C17H25N3O2S/c1-18-23(21,22)10-7-13-3-4-17-15(11-13)16(12-19-17)14-5-8-20(2)9-6-14/h3-4,11-12,14,18-19H,5-10H2,1-2H3",
        "InChIKey": null,
        "Canonical SMILES": "O=S(=O)(NC)CCC=1C=CC=2NC=C(C2C1)C3CCN(C)CC3",
        "Molecular Formula": "C<sub>17</sub>H<sub>25</sub>N<sub>3</sub>O<sub>2</sub>S",
        "Molecular Mass": "335.46",
        "Melting Point": "170-171 °C"
    }
}