{
    "cas_no": "6521-29-5",
    "key_name": "Pentyl <em>p</em>-hydroxybenzoate",
    "cn_name": "对羟基苯甲酸正戊酯;",
    "alternate_name": "Benzoic acid, 4-hydroxy-, pentyl ester;Benzoic acid, <em>p</em>-hydroxy-, pentyl ester;Pentyl 4-hydroxybenzoate;Pentyl <em>p</em>-hydroxybenzoate;Amyl <em>p</em>-hydroxybenzoate;<em>n</em>-Amyl 4-hydroxybenzoate;Pentyl paraben;NSC 309817;4-Hydroxybenzoic acid <em>n</em>-amyl ester",
    "duplicated_cas_no": "",
    "SMILES": "C(OCCCCC)(=O)C1=CC=C(O)C=C1",
    "meta_data": {
        "InChI": "InChI=1S/C12H16O3/c1-2-3-4-9-15-12(14)10-5-7-11(13)8-6-10/h5-8,13H,2-4,9H2,1H3",
        "InChIKey": null,
        "Canonical SMILES": "O=C(OCCCCC)C1=CC=C(O)C=C1",
        "Molecular Formula": "C<sub>12</sub>H<sub>16</sub>O<sub>3</sub>",
        "Molecular Mass": "208.25",
        "Boiling Point": "165-167 °C @ Press: 1.5 Torr"
    }
}