{
    "cas_no": "15862-36-9",
    "key_name": "2,3-Dibromo-5-nitropyridine",
    "cn_name": "2,3-二溴-5-硝基吡啶;",
    "alternate_name": "Pyridine, 2,3-dibromo-5-nitro-;2,3-Dibromo-5-nitropyridine",
    "duplicated_cas_no": "",
    "SMILES": "N(=O)(=O)C=1C=C(Br)C(Br)=NC1",
    "meta_data": {
        "InChI": "InChI=1S/C5H2Br2N2O2/c6-4-1-3(9(10)11)2-8-5(4)7/h1-2H",
        "InChIKey": null,
        "Canonical SMILES": "O=N(=O)C1=CN=C(Br)C(Br)=C1",
        "Molecular Formula": "C<sub>5</sub>H<sub>2</sub>Br<sub>2</sub>N<sub>2</sub>O<sub>2</sub>",
        "Molecular Mass": "281.89",
        "Melting Point": "78 °C"
    }
}