{
    "cas_no": "704-00-7",
    "key_name": "1,2-Diacetylbenzene",
    "cn_name": "1,2-二乙酰苯;",
    "alternate_name": "Ethanone, 1,1′-(1,2-phenylene)bis-;Benzene, <em>o</em>-diacetyl-;1,1′-(1,2-Phenylene)bis[ethanone];<em>o</em>-Diacetylbenzene;1,2-Diacetylbenzene;1-(2-Acetylphenyl)ethanone",
    "duplicated_cas_no": "",
    "SMILES": "C(C)(=O)C1=C(C(C)=O)C=CC=C1",
    "meta_data": {
        "InChI": "InChI=1S/C10H10O2/c1-7(11)9-5-3-4-6-10(9)8(2)12/h3-6H,1-2H3",
        "InChIKey": null,
        "Canonical SMILES": "O=C(C=1C=CC=CC1C(=O)C)C",
        "Molecular Formula": "C<sub>10</sub>H<sub>10</sub>O<sub>2</sub>",
        "Molecular Mass": "162.19",
        "Boiling Point": "110 °C @ Press: 0.1 Torr",
        "Melting Point": "38.5 °C"
    }
}