{
    "cas_no": "168828-84-0",
    "key_name": "(5<em>R</em>)-5-(Azidomethyl)-3-[3-fluoro-4-(4-morpholinyl)phenyl]-2-oxazolidinone",
    "cn_name": null,
    "alternate_name": "2-Oxazolidinone, 5-(azidomethyl)-3-[3-fluoro-4-(4-morpholinyl)phenyl]-, (5<em>R</em>)-;2-Oxazolidinone, 5-(azidomethyl)-3-[3-fluoro-4-(4-morpholinyl)phenyl]-, (<em>R</em>)-;(5<em>R</em>)-5-(Azidomethyl)-3-[3-fluoro-4-(4-morpholinyl)phenyl]-2-oxazolidinone;(<em>R</em>)-5-Azidomethyl-3-[3-fluoro-4-(morpholin-4-yl)phenyl]oxazolidin-2-one;(<em>R</em>)-[<em>N</em>-[3-Fluoro-4-(morpholin-4-yl)phenyl]-2-oxo-5-oxazolidinyl]methyl azide;(R)-[3-(3-Fluoro-4-morpholin-4-ylphenyl)-2-oxo-5-oxazolidinyl]methyl azide;(5R)-5-(Azidomethyl)-3-(3-fluoro-4-morpholin-4-ylphenyl)-1,3-oxazolidin-2-one",
    "duplicated_cas_no": "",
    "SMILES": "O=C1N(C[C@H](CN=[N+]=[N-])O1)C2=CC(F)=C(C=C2)N3CCOCC3",
    "meta_data": {
        "InChI": "InChI=1S/C14H16FN5O3/c15-12-7-10(1-2-13(12)19-3-5-22-6-4-19)20-9-11(8-17-18-16)23-14(20)21/h1-2,7,11H,3-6,8-9H2/t11-/m0/s1",
        "InChIKey": null,
        "Canonical SMILES": "[N-]=[N+]=NCC1OC(=O)N(C2=CC=C(C(F)=C2)N3CCOCC3)C1",
        "Molecular Formula": "C<sub>14</sub>H<sub>16</sub>FN<sub>5</sub>O<sub>3</sub>",
        "Molecular Mass": "",
        "Melting Point": "102.5-103.5 °C"
    }
}