{
    "cas_no": "64-17-5",
    "key_name": "Ethanol",
    "cn_name": "乙醇;酒精;无水乙醇;",
    "alternate_name": "Ethanol;Ethyl alcohol;Alcohol;Algrain;Anhydrol;Ethyl hydrate;Ethyl hydroxide;Jaysol;Jaysol S;Methylcarbinol;Molasses alcohol;Potato alcohol;Tecsol;Alcohol anhydrous;Denatured ethanol;Tecsol C;Alcare Hand Degermer;SY Fresh M;Ethicap;Synasol;Desinfektol EL;Duplicating Fluid 100C.NPA;100C.NPA;Anhydrol PM 4085;SDA 3A;Esumiru WK 88;Hinetoless;IMS 99;Lux;AHD 2000;Sekundasprit;NSC 85228;Infinity Pure;CDA 19;CDA 19-200;Sterillium Rub;Germ-X;Vinic alcohol;SD 3A;Denatured alcohol;Neocol CQ;Black Warrant;Bioethanol;Surfin 96;SDA 23A;Amanol SD;Alpet E;Alpet NV;PM 6193-200;ICON Dry;Adechiru 750;Traceable 95;Shunkol B;Prethanol A;LEK 01;95PGF2;ProtectorPlus gel;THS gel;SD 29 (alcohol);MeSH ID: D000431;Drysol NM;Traceable 99",
    "duplicated_cas_no": "8000-16-6;8024-45-1;121182-78-3",
    "SMILES": "C(C)O",
    "meta_data": {
        "InChI": "InChI=1S/C2H6O/c1-2-3/h3H,2H2,1H3",
        "InChIKey": null,
        "Canonical SMILES": "OCC",
        "Molecular Formula": "C<sub>2</sub>H<sub>6</sub>O",
        "Molecular Mass": "46.07",
        "Boiling Point": "78.5 °C",
        "Melting Point": "-114.1 °C",
        "Density": "0.789 g/cm³ @ Temp: 20 °C"
    }
}