{
    "cas_no": "3386-97-8",
    "key_name": "3-Butenyl isothiocyanate",
    "cn_name": null,
    "alternate_name": "1-Butene, 4-isothiocyanato-;Isothiocyanic acid, 3-butenyl ester;4-Isothiocyanato-1-butene;3-Butenyl isothiocyanate;3-Buten-1-yl Isothiocyanate",
    "duplicated_cas_no": "",
    "SMILES": "C(CC=C)N=C=S",
    "meta_data": {
        "InChI": "InChI=1S/C5H7NS/c1-2-3-4-6-5-7/h2H,1,3-4H2",
        "InChIKey": null,
        "Canonical SMILES": "S=C=NCCC=C",
        "Molecular Formula": "C<sub>5</sub>H<sub>7</sub>NS",
        "Molecular Mass": "113.18",
        "Boiling Point": "77.5 °C @ Press: 28 Torr"
    }
}