{
    "cas_no": "6753-98-6",
    "key_name": "Humulene",
    "cn_name": "α-石竹烯;ALPHA-律草烯;Α-丁香汕烃;Α-丁子香烯;Α-葎草萜;Α-葎草烯;Α-石竹素;律草烯;丁香烯;",
    "alternate_name": "1,4,8-Cycloundecatriene, 2,6,6,9-tetramethyl-, (1<em>E</em>,4<em>E</em>,8<em>E</em>)-;1,4,8-Cycloundecatriene, 2,6,6,9-tetramethyl-, (<em>E</em>,<em>E</em>,<em>E</em>)-;α-Humulene;(1<em>E</em>,4<em>E</em>,8<em>E</em>)-2,6,6,9-Tetramethyl-1,4,8-cycloundecatriene;Humulene;α-Caryophyllene;(±)-α-Humulene",
    "duplicated_cas_no": "19132-75-3;65907-25-7",
    "SMILES": "",
    "meta_data": {
        "InChI": "",
        "InChIKey": null,
        "Canonical SMILES": "",
        "Molecular Formula": "C<sub>15</sub>H<sub>24</sub>",
        "Molecular Mass": "204.35",
        "Boiling Point": "123 °C",
        "Melting Point": "&lt;25 °C",
        "Density": "0.8953 g/cm³ @ Temp: 20 °C"
    }
}