{
    "cas_no": "580-22-3",
    "key_name": "2-Aminoquinoline",
    "cn_name": "2-氨基喹啉;",
    "alternate_name": "2-Quinolinamine;Quinoline, 2-amino-;Quinoline, 1,2-dihydro-2-imino-;2-Aminoquinoline;2-Quinolinylamine;NSC 57739;NSC 58387",
    "duplicated_cas_no": "",
    "SMILES": "NC1=NC2=C(C=C1)C=CC=C2",
    "meta_data": {
        "InChI": "InChI=1S/C9H8N2/c10-9-6-5-7-3-1-2-4-8(7)11-9/h1-6H,(H2,10,11)",
        "InChIKey": null,
        "Canonical SMILES": "N=1C(N)=CC=C2C=CC=CC12",
        "Molecular Formula": "C<sub>9</sub>H<sub>8</sub>N<sub>2</sub>",
        "Molecular Mass": "144.17",
        "Melting Point": "131.5 °C"
    }
}