{
    "cas_no": "7554-12-3",
    "key_name": "Diethyl malate",
    "cn_name": "DL-苹果酸二乙酯;羟基丁二酸二乙酯;",
    "alternate_name": "Butanedioic acid, 2-hydroxy-, 1,4-diethyl ester;Malic acid, diethyl ester;Butanedioic acid, hydroxy-, diethyl ester;Diethyl malate;Diethyl <span class=\"text-smallcaps\">DL</span>-malate;(±)-Diethyl malate;Diethyl 2-hydroxysuccinate;1,4-Diethyl 2-hydroxybutanedioate",
    "duplicated_cas_no": "121401-63-6;626-11-9",
    "SMILES": "C(C(C(OCC)=O)O)C(OCC)=O",
    "meta_data": {
        "InChI": "InChI=1S/C8H14O5/c1-3-12-7(10)5-6(9)8(11)13-4-2/h6,9H,3-5H2,1-2H3",
        "InChIKey": null,
        "Canonical SMILES": "O=C(OCC)CC(O)C(=O)OCC",
        "Molecular Formula": "C<sub>8</sub>H<sub>14</sub>O<sub>5</sub>",
        "Molecular Mass": "190.19",
        "Boiling Point": "128-136 °C"
    }
}