{
    "cas_no": "218926-47-7",
    "key_name": "<em>N</em>-[(9<em>H</em>-Fluoren-9-ylmethoxy)carbonyl]-2-propylnorvaline",
    "cn_name": null,
    "alternate_name": "Norvaline, <em>N</em>-[(9<em>H</em>-fluoren-9-ylmethoxy)carbonyl]-2-propyl-;<em>N</em>-[(9<em>H</em>-Fluoren-9-ylmethoxy)carbonyl]-2-propylnorvaline",
    "duplicated_cas_no": "",
    "SMILES": "C(OC(NC(CCC)(CCC)C(O)=O)=O)C1C=2C(C=3C1=CC=CC3)=CC=CC2",
    "meta_data": {
        "InChI": "InChI=1S/C23H27NO4/c1-3-13-23(14-4-2,21(25)26)24-22(27)28-15-20-18-11-7-5-9-16(18)17-10-6-8-12-19(17)20/h5-12,20H,3-4,13-15H2,1-2H3,(H,24,27)(H,25,26)",
        "InChIKey": null,
        "Canonical SMILES": "O=C(OCC1C=2C=CC=CC2C=3C=CC=CC31)NC(C(=O)O)(CCC)CCC",
        "Molecular Formula": "C<sub>23</sub>H<sub>27</sub>NO<sub>4</sub>",
        "Molecular Mass": "381.46",
        "Melting Point": "102-105 °C"
    }
}