{
    "cas_no": "1074-88-0",
    "key_name": "Indole-7-carboxaldehyde",
    "cn_name": "吲哚-7-甲醛;",
    "alternate_name": "1<em>H</em>-Indole-7-carboxaldehyde;Indole-7-carboxaldehyde;7-Formylindole;1<em>H</em>-Indole-7-carbaldehyde",
    "duplicated_cas_no": "",
    "SMILES": "C(=O)C1=C2C(C=CN2)=CC=C1",
    "meta_data": {
        "InChI": "InChI=1S/C9H7NO/c11-6-8-3-1-2-7-4-5-10-9(7)8/h1-6,10H",
        "InChIKey": null,
        "Canonical SMILES": "O=CC1=CC=CC=2C=CNC12",
        "Molecular Formula": "C<sub>9</sub>H<sub>7</sub>NO",
        "Molecular Mass": "145.16",
        "Melting Point": "87-89 °C"
    }
}