{
    "cas_no": "7446-08-4",
    "key_name": "Selenium dioxide",
    "cn_name": "二氧化硒;",
    "alternate_name": "Selenium oxide (SeO<sub>2</sub>);NSC 56753;Selenium(IV) oxide;Selenium dioxide;ED 30 (oxide);ED 30",
    "duplicated_cas_no": "12397-00-1",
    "SMILES": "[Se](=O)=O",
    "meta_data": {
        "InChI": "InChI=1S/O2Se/c1-3-2",
        "InChIKey": null,
        "Canonical SMILES": "O=[Se]=O",
        "Molecular Formula": "O<sub>2</sub>Se",
        "Molecular Mass": "110.96",
        "Melting Point": "340 °C",
        "Density": "3.954 g/cm³ @ Temp: 15 °C"
    }
}