{
    "cas_no": "25906-66-5",
    "key_name": "2,5-Dimercapto-1,4-benzenedicarboxylic acid",
    "cn_name": null,
    "alternate_name": "1,4-Benzenedicarboxylic acid, 2,5-dimercapto-;Terephthalic acid, 2,5-dimercapto-;2,5-Dimercapto-1,4-benzenedicarboxylic acid;2,5-Dimercaptoterephthalic acid",
    "duplicated_cas_no": "",
    "SMILES": "C(O)(=O)C1=C(S)C=C(C(O)=O)C(S)=C1",
    "meta_data": {
        "InChI": "InChI=1S/C8H6O4S2/c9-7(10)3-1-5(13)4(8(11)12)2-6(3)14/h1-2,13-14H,(H,9,10)(H,11,12)",
        "InChIKey": null,
        "Canonical SMILES": "O=C(O)C1=CC(S)=C(C=C1S)C(=O)O",
        "Molecular Formula": "C<sub>8</sub>H<sub>6</sub>O<sub>4</sub>S<sub>2</sub>",
        "Molecular Mass": "230.26",
        "Melting Point": "&gt;387 °C (decomp)"
    }
}