{
    "cas_no": "635-79-0",
    "key_name": "2-Methyl-3-quinolinecarboxylic acid",
    "cn_name": null,
    "alternate_name": "3-Quinolinecarboxylic acid, 2-methyl-;2-Methyl-3-quinolinecarboxylic acid",
    "duplicated_cas_no": "",
    "SMILES": "C(O)(=O)C1=CC2=C(N=C1C)C=CC=C2",
    "meta_data": {
        "InChI": "InChI=1S/C11H9NO2/c1-7-9(11(13)14)6-8-4-2-3-5-10(8)12-7/h2-6H,1H3,(H,13,14)",
        "InChIKey": null,
        "Canonical SMILES": "O=C(O)C1=CC=2C=CC=CC2N=C1C",
        "Molecular Formula": "C<sub>11</sub>H<sub>9</sub>NO<sub>2</sub>",
        "Molecular Mass": "187.19",
        "Melting Point": "251 °C"
    }
}