{
    "cas_no": "536-78-7",
    "key_name": "3-Ethylpyridine",
    "cn_name": "3-乙基吡啶;",
    "alternate_name": "Pyridine, 3-ethyl-;3-Ethylpyridine;β-Lutidine;β-Ethylpyridine",
    "duplicated_cas_no": "",
    "SMILES": "C(C)C=1C=CC=NC1",
    "meta_data": {
        "InChI": "InChI=1S/C7H9N/c1-2-7-4-3-5-8-6-7/h3-6H,2H2,1H3",
        "InChIKey": null,
        "Canonical SMILES": "N=1C=CC=C(C1)CC",
        "Molecular Formula": "C<sub>7</sub>H<sub>9</sub>N",
        "Molecular Mass": "107.15",
        "Boiling Point": "165 °C",
        "Melting Point": "-76.9 °C",
        "Density": "0.9403 g/cm³ @ Temp: 20 °C"
    }
}