{
    "cas_no": "3753-18-2",
    "key_name": "4,4′-Bis(methoxymethyl)-1,1′-biphenyl",
    "cn_name": "4,4\"-联苯二甲基二甲醚;4,4\"-双(甲氧甲基)联苯;",
    "alternate_name": "1,1′-Biphenyl, 4,4′-bis(methoxymethyl)-;<em>p</em>,<em>p</em>′-Bitolyl, α,α′-dimethoxy-;4,4′-Bis(methoxymethyl)-1,1′-biphenyl;4,4′-Bis(methoxymethyl)biphenyl;1-(Methoxymethyl)-4-[4-(methoxymethyl)phenyl]benzene;BMMB",
    "duplicated_cas_no": "",
    "SMILES": "C(OC)C1=CC=C(C=C1)C2=CC=C(COC)C=C2",
    "meta_data": {
        "InChI": "InChI=1S/C16H18O2/c1-17-11-13-3-7-15(8-4-13)16-9-5-14(6-10-16)12-18-2/h3-10H,11-12H2,1-2H3",
        "InChIKey": null,
        "Canonical SMILES": "O(C)CC1=CC=C(C=C1)C=2C=CC(=CC2)COC",
        "Molecular Formula": "C<sub>16</sub>H<sub>18</sub>O<sub>2</sub>",
        "Molecular Mass": "242.31",
        "Melting Point": "46-49 °C"
    }
}