{
    "cas_no": "5985-24-0",
    "key_name": "1,3-Benzenedicarboxylic acid, 4-hydroxy-, 1,3-dimethyl ester",
    "cn_name": "4-羟基苯二甲酸甲酯;",
    "alternate_name": "1,3-Benzenedicarboxylic acid, 4-hydroxy-, 1,3-dimethyl ester;Isophthalic acid, 4-hydroxy-, dimethyl ester;1,3-Benzenedicarboxylic acid, 4-hydroxy-, dimethyl ester;4-Hydroxyisophthalic acid dimethyl ester;Dimethyl 4-hydroxyisophthalate;NSC 109108;1,3-Dimethyl 4-hydroxybenzene-1,3-dicarboxylate",
    "duplicated_cas_no": "",
    "SMILES": "C(OC)(=O)C1=CC(C(OC)=O)=CC=C1O",
    "meta_data": {
        "InChI": "InChI=1S/C10H10O5/c1-14-9(12)6-3-4-8(11)7(5-6)10(13)15-2/h3-5,11H,1-2H3",
        "InChIKey": null,
        "Canonical SMILES": "O=C(OC)C1=CC=C(O)C(=C1)C(=O)OC",
        "Molecular Formula": "C<sub>10</sub>H<sub>10</sub>O<sub>5</sub>",
        "Molecular Mass": "210.18",
        "Melting Point": "75-76 °C"
    }
}