{
    "cas_no": "4091-50-3",
    "key_name": "4-Methoxy-<em>N</em>-methylbenzeneethanamine",
    "cn_name": null,
    "alternate_name": "Benzeneethanamine, 4-methoxy-<em>N</em>-methyl-;Phenethylamine, <em>p</em>-methoxy-<em>N</em>-methyl-;4-Methoxy-<em>N</em>-methylbenzeneethanamine;<em>p</em>-Methoxy-<em>N</em>-methylphenethylamine;(<em>p</em>-Methoxyphenethyl)methylamine;<em>N</em>-Methyl-4-methoxyphenethylamine;<em>N</em>-Methyl-4-methoxy-β-phenethylamine;4-Methoxy-<em>N</em>-methylphenethylamine;<em>N</em>-(<em>p</em>-Methoxyphenethyl)methylamine;<em>N</em>-Methyl-<em>N</em>-(4-methoxyphenethyl)amine;<em>N</em>-Methyl-2-(4-methoxyphenyl)ethylamine;<em>N</em>-Methyl-β-(4-methoxyphenyl)ethylamine;[2-(4-Methoxyphenyl)ethyl]methylamine;<em>N</em>-Methyl-(<em>p</em>-methoxyphenethyl)amine;2-(4-Methoxyphenyl)-<em>N</em>-methylethanamine",
    "duplicated_cas_no": "",
    "SMILES": "C(CNC)C1=CC=C(OC)C=C1",
    "meta_data": {
        "InChI": "InChI=1S/C10H15NO/c1-11-8-7-9-3-5-10(12-2)6-4-9/h3-6,11H,7-8H2,1-2H3",
        "InChIKey": null,
        "Canonical SMILES": "O(C1=CC=C(C=C1)CCNC)C",
        "Molecular Formula": "C<sub>10</sub>H<sub>15</sub>NO",
        "Molecular Mass": "165.23",
        "Boiling Point": "258-259 °C @ Press: 760 Torr"
    }
}