{
    "cas_no": "75-29-6",
    "key_name": "2-Chloropropane",
    "cn_name": "2-氯丙烷;氯异丙烷;异丙基氯;",
    "alternate_name": "Propane, 2-chloro-;2-Chloropropane;Isoprid;Isopropyl chloride;Narcosop;2-Propyl chloride;<em>sec</em>-Propyl chloride;Chlorodimethylmethane;R 280da;LBL 2",
    "duplicated_cas_no": "",
    "SMILES": "C(C)(C)Cl",
    "meta_data": {
        "InChI": "InChI=1S/C3H7Cl/c1-3(2)4/h3H,1-2H3",
        "InChIKey": null,
        "Canonical SMILES": "ClC(C)C",
        "Molecular Formula": "C<sub>3</sub>H<sub>7</sub>Cl",
        "Molecular Mass": "78.54",
        "Boiling Point": "35.7 °C",
        "Melting Point": "-117.2 °C",
        "Density": "0.8617 g/cm³ @ Temp: 20 °C"
    }
}