{
    "cas_no": "497-03-0",
    "key_name": "Tiglaldehyde",
    "cn_name": null,
    "alternate_name": "2-Butenal, 2-methyl-, (2<em>E</em>)-;Crotonaldehyde, 2-methyl-, (<em>E</em>)-;Tiglaldehyde;2-Butenal, 2-methyl-, (<em>E</em>)-;(2<em>E</em>)-2-Methyl-2-butenal;<em>trans</em>-2-Methyl-2-butenal;Tiglic aldehyde;<em>trans</em>-Tiglaldehyde;(<em>E</em>)-2-Methylbut-2-en-1-al;(<em>E</em>)-2-Methyl-2-butenal;NSC 2179;(E)-2-Methyl-2-butenal",
    "duplicated_cas_no": "",
    "SMILES": "C(=C/C)(\\C=O)/C",
    "meta_data": {
        "InChI": "InChI=1S/C5H8O/c1-3-5(2)4-6/h3-4H,1-2H3/b5-3+",
        "InChIKey": null,
        "Canonical SMILES": "O=CC(=CC)C",
        "Molecular Formula": "C<sub>5</sub>H<sub>8</sub>O",
        "Molecular Mass": "84.12",
        "Boiling Point": "117 °C",
        "Density": "0.886 g/cm³ @ Temp: 0 °C"
    }
}