{
    "cas_no": "5292-53-5",
    "key_name": "Diethyl benzylidenemalonate",
    "cn_name": "亚苄基丙二酸二乙酯;",
    "alternate_name": "Propanedioic acid, 2-(phenylmethylene)-, 1,3-diethyl ester;Malonic acid, benzylidene-, diethyl ester;Propanedioic acid, (phenylmethylene)-, diethyl ester;Diethyl benzylidenemalonate;Diethyl benzalmalonate;Benzylidenemalonic acid diethyl ester;Ethyl benzylidenemalonate;Diethyl (phenylmethylene)malonate;β,β-Diethoxycarbonylstyrene;(Phenylmethylene)propanedioic acid diethyl ester;NSC 1272;Diethyl 2-benzylidenemalonate;Diethyl benzylidenepropanedioate;1,3-Diethyl 2-(phenylmethylidene)propanedioate",
    "duplicated_cas_no": "",
    "SMILES": "C(C(OCC)=O)(C(OCC)=O)=CC1=CC=CC=C1",
    "meta_data": {
        "InChI": "InChI=1S/C14H16O4/c1-3-17-13(15)12(14(16)18-4-2)10-11-8-6-5-7-9-11/h5-10H,3-4H2,1-2H3",
        "InChIKey": null,
        "Canonical SMILES": "O=C(OCC)C(=CC=1C=CC=CC1)C(=O)OCC",
        "Molecular Formula": "C<sub>14</sub>H<sub>16</sub>O<sub>4</sub>",
        "Molecular Mass": "248.27",
        "Boiling Point": "216 °C",
        "Melting Point": "32 °C",
        "Density": "1.0528 g/cm³ @ Temp: 84 °C"
    }
}