{
    "cas_no": "494-97-3",
    "key_name": "Nornicotine",
    "cn_name": null,
    "alternate_name": "Pyridine, 3-(2<em>S</em>)-2-pyrrolidinyl-;Nicotine, 1′-demethyl-;Pyridine, 3-(2-pyrrolidinyl)-, (<em>S</em>)-;3-(2<em>S</em>)-2-Pyrrolidinylpyridine;(<em>S</em>)-2-(3-Pyridyl)pyrrolidine;Nornicotine;(<em>S</em>)-(-)-Nornicotine;(-)-Nornicotine;Nornicotin;(<em>S</em>)-Nornicotine;1′-Demethylnicotine;<em>l</em>-Nornicotine;(-)-(<em>S</em>)-Nornicotine;(<em>S</em>)-3-(Pyrrolidin-2-yl)pyridine",
    "duplicated_cas_no": "",
    "SMILES": "[C@H]1(CCCN1)C=2C=CC=NC2",
    "meta_data": {
        "InChI": "InChI=1S/C9H12N2/c1-3-8(7-10-5-1)9-4-2-6-11-9/h1,3,5,7,9,11H,2,4,6H2/t9-/m0/s1",
        "InChIKey": null,
        "Canonical SMILES": "N=1C=CC=C(C1)C2NCCC2",
        "Molecular Formula": "C<sub>9</sub>H<sub>12</sub>N<sub>2</sub>",
        "Molecular Mass": "148.21",
        "Boiling Point": "270 °C",
        "Density": "1.044 g/cm³ @ Temp: 19 °C"
    }
}