{
    "cas_no": "84540-47-6",
    "key_name": "2,6-Dihydroxy-3,4-dimethylpyridine",
    "cn_name": "2,6-二羟基-3,4-二甲基吡啶;",
    "alternate_name": "2(1<em>H</em>)-Pyridinone, 6-hydroxy-4,5-dimethyl-;2(1<em>H</em>)-Pyridinone, 6-hydroxy-3,4-dimethyl-;6-Hydroxy-4,5-dimethyl-2(1<em>H</em>)-pyridinone;2,6-Dihydroxy-3,4-dimethylpyridine",
    "duplicated_cas_no": "",
    "SMILES": "CC1=C(C)C=C(O)NC1=O",
    "meta_data": {
        "InChI": "InChI=1S/C7H9NO2/c1-4-3-6(9)8-7(10)5(4)2/h3H,1-2H3,(H2,8,9,10)",
        "InChIKey": null,
        "Canonical SMILES": "O=C1NC(O)=CC(=C1C)C",
        "Molecular Formula": "C<sub>7</sub>H<sub>9</sub>NO<sub>2</sub>",
        "Molecular Mass": "139.15",
        "Melting Point": "187 °C"
    }
}