{
    "cas_no": "76114-73-3",
    "key_name": "2-Propyn-1-yl <em>N</em>-butylcarbamate",
    "cn_name": "2-炔丙基-N-丁基氨基甲酸酯;",
    "alternate_name": "Carbamic acid, <em>N</em>-butyl-, 2-propyn-1-yl ester;Carbamic acid, butyl-, 2-propynyl ester;2-Propyn-1-yl <em>N</em>-butylcarbamate;<em>N</em>-Butyl propargyl carbamate;2-Propynyl butylcarbamate;Propargyl butylcarbamate",
    "duplicated_cas_no": "864493-71-0;1372101-14-8",
    "SMILES": "N(C(OCC#C)=O)CCCC",
    "meta_data": {
        "InChI": "InChI=1S/C8H13NO2/c1-3-5-6-9-8(10)11-7-4-2/h2H,3,5-7H2,1H3,(H,9,10)",
        "InChIKey": null,
        "Canonical SMILES": "O=C(OCC#C)NCCCC",
        "Molecular Formula": "C<sub>8</sub>H<sub>13</sub>NO<sub>2</sub>",
        "Molecular Mass": "155.19",
        "Boiling Point": "90-91 °C @ Press: 0.5 Torr"
    }
}