{
    "cas_no": "54143-55-4",
    "key_name": "Flecainide",
    "cn_name": "氟卡尼;氟卡尼碱;N-(2-哌啶基甲基)-2,5-双(2,2,2-三氟乙氧基)苯甲酰胺;",
    "alternate_name": "Benzamide, <em>N</em>-(2-piperidinylmethyl)-2,5-bis(2,2,2-trifluoroethoxy)-;<em>N</em>-(2-Piperidinylmethyl)-2,5-bis(2,2,2-trifluoroethoxy)benzamide;Flecainide;(±)-Flecainide;Flecaine;MeSH ID: D005424",
    "duplicated_cas_no": "99495-87-1",
    "SMILES": "C(NCC1CCCCN1)(=O)C2=C(OCC(F)(F)F)C=CC(OCC(F)(F)F)=C2",
    "meta_data": {
        "InChI": "InChI=1S/C17H20F6N2O3/c18-16(19,20)9-27-12-4-5-14(28-10-17(21,22)23)13(7-12)15(26)25-8-11-3-1-2-6-24-11/h4-5,7,11,24H,1-3,6,8-10H2,(H,25,26)",
        "InChIKey": null,
        "Canonical SMILES": "O=C(NCC1NCCCC1)C2=CC(OCC(F)(F)F)=CC=C2OCC(F)(F)F",
        "Molecular Formula": "C<sub>17</sub>H<sub>20</sub>F<sub>6</sub>N<sub>2</sub>O<sub>3</sub>",
        "Molecular Mass": "414.34",
        "Melting Point": "145-147 °C"
    }
}