{
    "cas_no": "1141-06-6",
    "key_name": "α-Pyridoin",
    "cn_name": "吡咯酮;",
    "alternate_name": "Ethanone, 2-hydroxy-1,2-di-2-pyridinyl-;Ketone, hydroxy-2-pyridylmethyl 2-pyridyl;2-Hydroxy-1,2-di-2-pyridinylethanone;α-Pyridoin;2-Pyridoin;NSC 24017;2-Hydroxy-1,2-bis(pyridin-2-yl)ethanone;2-Hydroxy-1,2-bis(pyridin-2-yl)ethan-1-one",
    "duplicated_cas_no": "105776-16-7",
    "SMILES": "C(C(=O)C1=CC=CC=N1)(O)C2=CC=CC=N2",
    "meta_data": {
        "InChI": "InChI=1S/C12H10N2O2/c15-11(9-5-1-3-7-13-9)12(16)10-6-2-4-8-14-10/h1-8,11,15H",
        "InChIKey": null,
        "Canonical SMILES": "O=C(C1=NC=CC=C1)C(O)C2=NC=CC=C2",
        "Molecular Formula": "C<sub>12</sub>H<sub>10</sub>N<sub>2</sub>O<sub>2</sub>",
        "Molecular Mass": "214.22",
        "Melting Point": "156 °C"
    }
}