{
    "cas_no": "5798-79-8",
    "key_name": "α-Bromobenzeneacetonitrile",
    "cn_name": "溴苯乙腈;2-溴-2-苯基乙腈;&alpha;-溴代苯乙腈;&alpha;-溴代苄基氰;",
    "alternate_name": "Benzeneacetonitrile, α-bromo-;Acetonitrile, bromophenyl-;α-Bromobenzeneacetonitrile;α-Bromobenzyl cyanide;α-Bromo-α-tolunitrile;Camite;α-Bromobenzylnitrile;α-Bromophenylacetonitrile;2-Bromo-2-phenylacetonitrile;BBC",
    "duplicated_cas_no": "",
    "SMILES": "C(C#N)(Br)C1=CC=CC=C1",
    "meta_data": {
        "InChI": "InChI=1S/C8H6BrN/c9-8(6-10)7-4-2-1-3-5-7/h1-5,8H",
        "InChIKey": null,
        "Canonical SMILES": "N#CC(Br)C=1C=CC=CC1",
        "Molecular Formula": "C<sub>8</sub>H<sub>6</sub>BrN",
        "Molecular Mass": "196.04",
        "Boiling Point": "242 °C @ Press: 760 Torr",
        "Melting Point": "29 °C",
        "Density": "1.539 g/cm³ @ Temp: 29 °C"
    }
}