{
    "cas_no": "12150-46-8",
    "key_name": "1,1-Bis(diphenylphosphino)ferrocene",
    "cn_name": null,
    "alternate_name": "Ferrocene, 1,1′-bis(diphenylphosphino)-;Phosphine, 1,1′-ferrocenediylbis[diphenyl-;Phosphine, cyclopentadienyldiphenyl-, iron deriv.;1,1′-Bis(diphenylphosphino)ferrocene;DPPF;1,1′-Ferrocendiylbis(diphenylphosphine);NSC 238923;1,1-Bis(diphenylphosphino)ferrocene;1,10-Bis(diphenylphosphanyl)ferrocene;Zirconium ionophore I",
    "duplicated_cas_no": "",
    "SMILES": "P([C-]12[Fe+2]3456789([C-]%10(P(C%11=CC=CC=C%11)C%12=CC=CC=C%12)[CH]3=[CH]4[CH]5=[CH]6%10)[CH]1=[CH]7[CH]8=[CH]92)(C%13=CC=CC=C%13)C%14=CC=CC=C%14",
    "meta_data": {
        "InChI": "InChI=1S/2C17H14P.Fe/c2*1-3-9-15(10-4-1)18(17-13-7-8-14-17)16-11-5-2-6-12-16;/h2*1-14H;/q2*-1;+2",
        "InChIKey": null,
        "Canonical SMILES": "C=1C=CC(=CC1)P(C=2C=CC=CC2)[C-]34[CH]5=[CH]6[CH]7=[CH]3[Fe+2]6789%10%1154[CH]=%12[CH]%11=[CH]%10[C-]9(P(C=%13C=CC=CC%13)C=%14C=CC=CC%14)[CH]%128",
        "Molecular Formula": "C<sub>34</sub>H<sub>28</sub>FeP<sub>2</sub>",
        "Molecular Mass": "",
        "Melting Point": "180-184 °C"
    }
}