{
    "cas_no": "824-62-4",
    "key_name": "Bicyclo[2.2.1]heptane-2-carboxylic acid",
    "cn_name": "2-降莰烷羧酸;降冰片烷-2-羧酸;",
    "alternate_name": "Bicyclo[2.2.1]heptane-2-carboxylic acid;2-Norbornanecarboxylic acid;2-Norcamphanecarboxylic acid",
    "duplicated_cas_no": "",
    "SMILES": "C(O)(=O)C1C2CC(C1)CC2",
    "meta_data": {
        "InChI": "InChI=1S/C8H12O2/c9-8(10)7-4-5-1-2-6(7)3-5/h5-7H,1-4H2,(H,9,10)",
        "InChIKey": null,
        "Canonical SMILES": "O=C(O)C1CC2CCC1C2",
        "Molecular Formula": "C<sub>8</sub>H<sub>12</sub>O<sub>2</sub>",
        "Molecular Mass": "140.18",
        "Boiling Point": "125-127 °C @ Press: 13 Torr",
        "Melting Point": "221-222 °C (sublm)"
    }
}