{
    "cas_no": "26371-07-3",
    "key_name": "1-Piperidinepropanoic acid",
    "cn_name": "1-哌啶丙酸;1-哌啶丙酸;1-丙酸哌啶;",
    "alternate_name": "1-Piperidinepropanoic acid;1-Piperidinepropionic acid;3-Piperidinopropionic acid;3-Piperidin-1-ylpropionic acid;3-(1-Piperidinyl)propanoic acid;3-Piperidinopropanoic acid;3-Piperidin-1-ium-1-ylpropanoate",
    "duplicated_cas_no": "",
    "SMILES": "C(CC(O)=O)N1CCCCC1",
    "meta_data": {
        "InChI": "InChI=1S/C8H15NO2/c10-8(11)4-7-9-5-2-1-3-6-9/h1-7H2,(H,10,11)",
        "InChIKey": null,
        "Canonical SMILES": "O=C(O)CCN1CCCCC1",
        "Molecular Formula": "C<sub>8</sub>H<sub>15</sub>NO<sub>2</sub>",
        "Molecular Mass": "157.21",
        "Boiling Point": "105-108 °C @ Press: 0.5 Torr",
        "Melting Point": "82-83 °C"
    }
}