{
    "cas_no": "25425-12-1",
    "key_name": "Citreoviridin",
    "cn_name": null,
    "alternate_name": "<span class=\"text-smallcaps\">D</span>-Iditol, 2,5-anhydro-1,6-dideoxy-2-<em>C</em>-[(1<em>E</em>,3<em>E</em>,5<em>E</em>,7<em>E</em>)-8-(4-methoxy-5-methyl-2-oxo-2<em>H</em>-pyran-6-yl)-2-methyl-1,3,5,7-octatetraen-1-yl]-4-<em>C</em>-methyl-;2<em>H</em>-Pyran-2-one, 4-methoxy-5-methyl-6-[7-methyl-8-(tetrahydro-3,4-dihydroxy-2,4,5-trimethyl-2-furyl)-1,3,5,7-octatetraenyl]-;2<em>H</em>-Pyran-2-one, 4-methoxy-5-methyl-6-[7-methyl-8-(tetrahydro-3,4-dihydroxy-2,4,5-trimethyl-2-furanyl)-1,3,5,7-octatetraenyl]-, [2<em>S</em>-[2α(1<em>E</em>,3<em>E</em>,5<em>E</em>,7<em>E</em>),3β,4α,5α]]-;2,4,6,8,10,12-Tridecahexaenoic acid, 5-hydroxy-3-methoxy-4,12-dimethyl-13-(tetrahydro-3,4-dihydroxy-2,4,5-trimethyl-2-furyl)-, δ-lactone;<span class=\"text-smallcaps\">D</span>-Iditol, 2,5-anhydro-1,6-dideoxy-2-<em>C</em>-[(1<em>E</em>,3<em>E</em>,5<em>E</em>,7<em>E</em>)-8-(4-methoxy-5-methyl-2-oxo-2<em>H</em>-pyran-6-yl)-2-methyl-1,3,5,7-octatetraenyl]-4-<em>C</em>-methyl-;2,5-Anhydro-1,6-dideoxy-2-<em>C</em>-[(1<em>E</em>,3<em>E</em>,5<em>E</em>,7<em>E</em>)-8-(4-methoxy-5-methyl-2-oxo-2<em>H</em>-pyran-6-yl)-2-methyl-1,3,5,7-octatetraen-1-yl]-4-<em>C</em>-methyl-<span class=\"text-smallcaps\">D</span>-iditol;Citreoviridin A;Citreoviridine A;Citreoviridin;Citreoviridine",
    "duplicated_cas_no": "",
    "SMILES": "C(=C(/C=C/C=C/C=C/C1=C(C)C(OC)=CC(=O)O1)\\C)\\[C@@]2(C)[C@H](O)[C@@](C)(O)[C@@H](C)O2",
    "meta_data": {
        "InChI": "InChI=1S/C23H30O6/c1-15(14-22(4)21(25)23(5,26)17(3)29-22)11-9-7-8-10-12-18-16(2)19(27-6)13-20(24)28-18/h7-14,17,21,25-26H,1-6H3/b8-7+,11-9+,12-10+,15-14+/t17-,21+,22+,23+/m1/s1",
        "InChIKey": null,
        "Canonical SMILES": "O=C1OC(C=CC=CC=CC(=CC2(OC(C)C(O)(C)C2O)C)C)=C(C(OC)=C1)C",
        "Molecular Formula": "C<sub>23</sub>H<sub>30</sub>O<sub>6</sub>",
        "Molecular Mass": "402.48",
        "Melting Point": "107-111 °C"
    }
}