{
    "cas_no": "868-26-8",
    "key_name": "1,3-Dimethyl 2-bromopropanedioate",
    "cn_name": null,
    "alternate_name": "Propanedioic acid, 2-bromo-, 1,3-dimethyl ester;Malonic acid, bromo-, dimethyl ester;Propanedioic acid, bromo-, dimethyl ester;1,3-Dimethyl 2-bromopropanedioate;Dimethyl bromomalonate;Dimethyl α-bromomalonate;Dimethyl 2-bromopropanedioate;NSC 175888;Dimethyl 2-bromomalonate",
    "duplicated_cas_no": "",
    "SMILES": "C(C(OC)=O)(C(OC)=O)Br",
    "meta_data": {
        "InChI": "InChI=1S/C5H7BrO4/c1-9-4(7)3(6)5(8)10-2/h3H,1-2H3",
        "InChIKey": null,
        "Canonical SMILES": "O=C(OC)C(Br)C(=O)OC",
        "Molecular Formula": "C<sub>5</sub>H<sub>7</sub>BrO<sub>4</sub>",
        "Molecular Mass": "211.01",
        "Boiling Point": "103-104 °C @ Press: 19 Torr",
        "Density": "1.6094 g/cm³ @ Temp: 20 °C"
    }
}