{
    "cas_no": "27554-26-3",
    "key_name": "Diisooctyl phthalate",
    "cn_name": "邻苯二甲酸二异辛酯;邻酞酸二异辛酯;邻酞酸二(2-乙基己基)酯;",
    "alternate_name": "1,2-Benzenedicarboxylic acid, 1,2-diisooctyl ester;1,2-Benzenedicarboxylic acid, diisooctyl ester;Phthalic acid, diisooctyl ester;Hexaplas M/O;Corflex 880;Unem 5005;Hexaplas DIOP;Jayflex DIOP;Diisooctyl phthalate;Diisooctyl 1,2-benzenedicarboxylate;Diisooctyl <em>o</em>-phthalate",
    "duplicated_cas_no": "1330-91-2;25103-50-8;41375-90-0",
    "SMILES": "",
    "meta_data": {
        "InChI": "",
        "InChIKey": null,
        "Canonical SMILES": "",
        "Molecular Formula": "C<sub>24</sub>H<sub>38</sub>O<sub>4</sub>",
        "Molecular Mass": "",
        "Boiling Point": "370 °C",
        "Melting Point": "-4 °C",
        "Density": "0.984 g/cm³ @ Temp: 20 °C"
    }
}