{
    "cas_no": "773-47-7",
    "key_name": "Dimethyl <em>P</em>-(phenylmethyl)phosphonate",
    "cn_name": "苯甲基膦酸二甲酯;苄基膦酸二甲酯;",
    "alternate_name": "Phosphonic acid, <em>P</em>-(phenylmethyl)-, dimethyl ester;Phosphonic acid, benzyl-, dimethyl ester;Phosphonic acid, (phenylmethyl)-, dimethyl ester;Dimethyl <em>P</em>-(phenylmethyl)phosphonate;Dimethyl benzylphosphonate;NSC 202848",
    "duplicated_cas_no": "",
    "SMILES": "P(CC1=CC=CC=C1)(OC)(OC)=O",
    "meta_data": {
        "InChI": "InChI=1S/C9H13O3P/c1-11-13(10,12-2)8-9-6-4-3-5-7-9/h3-7H,8H2,1-2H3",
        "InChIKey": null,
        "Canonical SMILES": "O=P(OC)(OC)CC=1C=CC=CC1",
        "Molecular Formula": "C<sub>9</sub>H<sub>13</sub>O<sub>3</sub>P",
        "Molecular Mass": "200.17",
        "Boiling Point": "132 °C @ Press: 0.3 Torr"
    }
}