{
    "cas_no": "544-97-8",
    "key_name": "Dimethylzinc",
    "cn_name": "二甲基锌;甲基锌;2,4-二甲基锌;二甲基锌;二甲锌;",
    "alternate_name": "Zinc, dimethyl-;Dimethylzinc",
    "duplicated_cas_no": "",
    "SMILES": "[Zn](C)C",
    "meta_data": {
        "InChI": "InChI=1S/2CH3.Zn/h2*1H3;",
        "InChIKey": null,
        "Canonical SMILES": "[Zn](C)C",
        "Molecular Formula": "C<sub>2</sub>H<sub>6</sub>Zn",
        "Molecular Mass": "",
        "Boiling Point": "46 °C",
        "Melting Point": "-40 °C",
        "Density": "1.386 g/cm³ @ Temp: 10.5 °C"
    }
}