{
    "cas_no": "14098-44-3",
    "key_name": "Benzo-15-crown-5",
    "cn_name": "苯并-15-冠醚-5;",
    "alternate_name": "1,4,7,10,13-Benzopentaoxacyclopentadecin, 2,3,5,6,8,9,11,12-octahydro-;2,3,5,6,8,9,11,12-Octahydro-1,4,7,10,13-benzopentaoxacyclopentadecin;Benzo-15-crown-5;Monobenzo-15-crown-5;2,3-Benzo-15-crown-5;2,3-Benzo-1,4,7,10,13-pentaoxacyclopentadecane;Benzo15C5;NSC 175877;2,5,8,11,14-Pentaoxabicyclo[13.4.0]nonadeca-1(19),15,17-triene",
    "duplicated_cas_no": "66402-98-0",
    "SMILES": "C=12C(=CC=CC1)OCCOCCOCCOCCO2",
    "meta_data": {
        "InChI": "InChI=1S/C14H20O5/c1-2-4-14-13(3-1)18-11-9-16-7-5-15-6-8-17-10-12-19-14/h1-4H,5-12H2",
        "InChIKey": null,
        "Canonical SMILES": "O1C=2C=CC=CC2OCCOCCOCCOCC1",
        "Molecular Formula": "C<sub>14</sub>H<sub>20</sub>O<sub>5</sub>",
        "Molecular Mass": "268.31",
        "Melting Point": "78-80 °C",
        "Density": "1.230 g/cm³"
    }
}