{
    "cas_no": "18395-30-7",
    "key_name": "Isobutyltrimethoxysilane",
    "cn_name": "异丁基三甲氧基硅烷;",
    "alternate_name": "Silane, trimethoxy(2-methylpropyl)-;Silane, isobutyltrimethoxy-;Trimethoxy(2-methylpropyl)silane;Isobutyltrimethoxysilane;Dynasylan BSM 40;Prosil 178;Dynasylan BSM 40N;SS 1120;Dynasylan IBT-MO;Silquest I 7810;Z 2306;AY 43-048;Isobutyltrimethoxylsilane;OFS 2306;Sil-Act ATS 100;Xiameter OFS 2306;CG 8430",
    "duplicated_cas_no": "99550-64-8;86168-13-0",
    "SMILES": "[Si](CC(C)C)(OC)(OC)OC",
    "meta_data": {
        "InChI": "InChI=1S/C7H18O3Si/c1-7(2)6-11(8-3,9-4)10-5/h7H,6H2,1-5H3",
        "InChIKey": null,
        "Canonical SMILES": "O(C)[Si](OC)(OC)CC(C)C",
        "Molecular Formula": "C<sub>7</sub>H<sub>18</sub>O<sub>3</sub>Si",
        "Molecular Mass": "178.30",
        "Boiling Point": "154 °C",
        "Density": "0.933 g/cm³"
    }
}