{
    "cas_no": "941-98-0",
    "key_name": "1-Acetylnaphthalene",
    "cn_name": "1-乙酰基萘;1-萘乙酮;alpha-萘乙酮;alpha-乙酰萘;1-乙酰萘;",
    "alternate_name": "Ethanone, 1-(1-naphthalenyl)-;1′-Acetonaphthone;1-(1-Naphthalenyl)ethanone;α-Acetonaphthone;Methyl 1-naphthyl ketone;1-Acetonaphthone;Methyl α-naphthyl ketone;1-Acetonaphthalene;1-Acetylnaphthalene;1-Naphthyl methyl ketone;α-Acetylnaphthalene;α-Naphthyl methyl ketone;1-(1-Naphthyl)ethanone;NSC 7659;1-(Naphthalen-4-yl)ethanone;1-(Naphthalen-1-yl)ethan-1-one",
    "duplicated_cas_no": "",
    "SMILES": "C(C)(=O)C=1C2=C(C=CC1)C=CC=C2",
    "meta_data": {
        "InChI": "InChI=1S/C12H10O/c1-9(13)11-8-4-6-10-5-2-3-7-12(10)11/h2-8H,1H3",
        "InChIKey": null,
        "Canonical SMILES": "O=C(C1=CC=CC=2C=CC=CC21)C",
        "Molecular Formula": "C<sub>12</sub>H<sub>10</sub>O",
        "Molecular Mass": "170.21",
        "Boiling Point": "297 °C",
        "Melting Point": "34 °C",
        "Density": "1.1251 g/cm³ @ Temp: 20 °C"
    }
}