{
    "cas_no": "106685-40-9",
    "key_name": "Adapalene",
    "cn_name": "阿达帕林;6-[3-(1-金刚烷)-4-甲氧基-苯基]萘-2-甲酸;",
    "alternate_name": "2-Naphthalenecarboxylic acid, 6-(4-methoxy-3-tricyclo[3.3.1.1<sup>3,7</sup>]dec-1-ylphenyl)-;6-(4-Methoxy-3-tricyclo[3.3.1.1<sup>3,7</sup>]dec-1-ylphenyl)-2-naphthalenecarboxylic acid;CD 271;Adapalene;Differin;6-[3-(1-Adamantyl)-4-methoxyphenyl]-2-naphthalenecarboxylic acid;Differin Gel;6-[3-(1-Adamantyl)-4-methoxyphenyl]-2-naphthoic acid;CD 271 (pharmaceutical);Aclene Gel;Aclene;6-(3-(Adamantan-1-yl)-4-methoxyphenyl)-2-naphthoic acid",
    "duplicated_cas_no": "",
    "SMILES": "O(C)C1=C(C23CC4CC(C2)CC(C3)C4)C=C(C=C1)C5=CC6=C(C=C5)C=C(C(O)=O)C=C6",
    "meta_data": {
        "InChI": "InChI=1S/C28H28O3/c1-31-26-7-6-23(21-2-3-22-12-24(27(29)30)5-4-20(22)11-21)13-25(26)28-14-17-8-18(15-28)10-19(9-17)16-28/h2-7,11-13,17-19H,8-10,14-16H2,1H3,(H,29,30)",
        "InChIKey": null,
        "Canonical SMILES": "O=C(O)C=1C=CC2=CC(=CC=C2C1)C=3C=CC(OC)=C(C3)C45CC6CC(CC(C6)C4)C5",
        "Molecular Formula": "C<sub>28</sub>H<sub>28</sub>O<sub>3</sub>",
        "Molecular Mass": "412.52",
        "Melting Point": "320-322 °C"
    }
}