{
    "cas_no": "162607-23-0",
    "key_name": "<em>B</em>-(2,5-Dimethyl-3-thienyl)boronic acid",
    "cn_name": null,
    "alternate_name": "Boronic acid, <em>B</em>-(2,5-dimethyl-3-thienyl)-;Boronic acid, (2,5-dimethyl-3-thienyl)-;<em>B</em>-(2,5-Dimethyl-3-thienyl)boronic acid;2,5-Dimethyl-3-thienylboronic acid;2,5-Dimethylthien-3-ylboronic acid;(2,5-Dimethylthiophen-3-yl)boronic acid;2,5-Dimethylthiophene-3-boronic acid",
    "duplicated_cas_no": "",
    "SMILES": "B(O)(O)C=1C=C(C)SC1C",
    "meta_data": {
        "InChI": "InChI=1S/C6H9BO2S/c1-4-3-6(7(8)9)5(2)10-4/h3,8-9H,1-2H3",
        "InChIKey": null,
        "Canonical SMILES": "OB(O)C=1C=C(SC1C)C",
        "Molecular Formula": "C<sub>6</sub>H<sub>9</sub>BO<sub>2</sub>S",
        "Molecular Mass": "156.01",
        "Melting Point": "180-183 °C"
    }
}