{
    "cas_no": "70258-18-3",
    "key_name": "2-Chloro-5-(chloromethyl)pyridine",
    "cn_name": "2-氯-5-氯甲基吡啶;",
    "alternate_name": "Pyridine, 2-chloro-5-(chloromethyl)-;2-Chloro-5-(chloromethyl)pyridine;3-(Chloromethyl)-6-chloropyridine;5-(Chloromethyl)-2-chloropyridine;2-Chloropyridin-5-ylmethyl chloride;6-Chloro-3-(chloromethyl)pyridine;2-Chloro-5-pyridylmethyl chloride;(6-Chloro-3-pyridyl)methyl chloride",
    "duplicated_cas_no": "",
    "SMILES": "C(Cl)C=1C=CC(Cl)=NC1",
    "meta_data": {
        "InChI": "InChI=1S/C6H5Cl2N/c7-3-5-1-2-6(8)9-4-5/h1-2,4H,3H2",
        "InChIKey": null,
        "Canonical SMILES": "ClC1=NC=C(C=C1)CCl",
        "Molecular Formula": "C<sub>6</sub>H<sub>5</sub>Cl<sub>2</sub>N",
        "Molecular Mass": "162.02",
        "Boiling Point": "50 °C @ Press: 0.5 Torr",
        "Melting Point": "96-98 °C"
    }
}