{
    "cas_no": "7790-99-0",
    "key_name": "Iodine chloride",
    "cn_name": "一氯化碘;",
    "alternate_name": "Iodine chloride (ICl);Wijs' chloride;Iodine monochloride;Chlorine iodide (ClI);Iodochlorine;Chlorine iodide;Iodine(I) chloride;Chlorine monoiodide;Iodine chloride;Iodomonochloride;Iodonium chloride",
    "duplicated_cas_no": "",
    "SMILES": "ClI",
    "meta_data": {
        "InChI": "InChI=1S/ClI/c1-2",
        "InChIKey": null,
        "Canonical SMILES": "ClI",
        "Molecular Formula": "ClI",
        "Molecular Mass": "162.36",
        "Melting Point": "27.19 °C",
        "Density": "3.10 g/cm³ @ Temp: 29 °C"
    }
}