{
    "cas_no": "1020-84-4",
    "key_name": "2,2,4,4,6,6,8,8-Octamethylcyclotetrasilazane",
    "cn_name": "八甲基环四硅氮烷;",
    "alternate_name": "Cyclotetrasilazane, 2,2,4,4,6,6,8,8-octamethyl-;2,2,4,4,6,6,8,8-Octamethylcyclotetrasilazane;1,1,3,3,5,5,7,7-Octamethylcyclotetrasilazane;2,2,4,4,6,6,8,8-Octamethyl-1,3,5,7,2,4,6,8-tetrazatetrasilocane",
    "duplicated_cas_no": "111150-04-0",
    "SMILES": "C[Si]1(C)N[Si](C)(C)N[Si](C)(C)N[Si](C)(C)N1",
    "meta_data": {
        "InChI": "InChI=1S/C8H28N4Si4/c1-13(2)9-14(3,4)11-16(7,8)12-15(5,6)10-13/h9-12H,1-8H3",
        "InChIKey": null,
        "Canonical SMILES": "N1[Si](N[Si](N[Si](N[Si]1(C)C)(C)C)(C)C)(C)C",
        "Molecular Formula": "C<sub>8</sub>H<sub>28</sub>N<sub>4</sub>Si<sub>4</sub>",
        "Molecular Mass": "292.68",
        "Boiling Point": "225 °C",
        "Melting Point": "97 °C",
        "Density": "0.950 g/cm³ @ Temp: 22 °C"
    }
}