{
    "cas_no": "5292-21-7",
    "key_name": "Cyclohexaneacetic acid",
    "cn_name": "环己基乙酸;",
    "alternate_name": "Cyclohexaneacetic acid;Cyclohexylacetic acid;NCI 204816;2-Cyclohexylacetic acid;NSC 2159",
    "duplicated_cas_no": "",
    "SMILES": "C(C(O)=O)C1CCCCC1",
    "meta_data": {
        "InChI": "InChI=1S/C8H14O2/c9-8(10)6-7-4-2-1-3-5-7/h7H,1-6H2,(H,9,10)",
        "InChIKey": null,
        "Canonical SMILES": "O=C(O)CC1CCCCC1",
        "Molecular Formula": "C<sub>8</sub>H<sub>14</sub>O<sub>2</sub>",
        "Molecular Mass": "142.20",
        "Boiling Point": "245 °C",
        "Melting Point": "33 °C",
        "Density": "0.985 g/cm³ @ Temp: 22 °C"
    }
}