{
    "cas_no": "13014-18-1",
    "key_name": "2,4-Dichlorobenzotrichloride",
    "cn_name": "2,4-二氯三氯甲苯;2,4-二氯三氯苄;&alpha;,&alpha;,&alpha;,2,4-五氯甲苯;1,3-二氯-4-三甲基苯;",
    "alternate_name": "Benzene, 2,4-dichloro-1-(trichloromethyl)-;Toluene, α,α,α,2,4-pentachloro-;2,4-Dichloro-1-(trichloromethyl)benzene;2,4-Dichlorophenyltrichloromethane;2,4,α,α,α-Pentachlorotoluene;1,3-Dichloro-4-(trichloromethyl)benzene;2,4-Dichlorobenzotrichloride;α,α,α,2,4-Pentachlorotoluene;NSC 403840",
    "duplicated_cas_no": "",
    "SMILES": "C(Cl)(Cl)(Cl)C1=C(Cl)C=C(Cl)C=C1",
    "meta_data": {
        "InChI": "InChI=1S/C7H3Cl5/c8-4-1-2-5(6(9)3-4)7(10,11)12/h1-3H",
        "InChIKey": null,
        "Canonical SMILES": "ClC1=CC=C(C(Cl)=C1)C(Cl)(Cl)Cl",
        "Molecular Formula": "C<sub>7</sub>H<sub>3</sub>Cl<sub>5</sub>",
        "Molecular Mass": "264.36",
        "Boiling Point": "146-151 °C @ Press: 12 Torr",
        "Melting Point": "47-48 °C"
    }
}