{
    "cas_no": "961-68-2",
    "key_name": "2,4-Dinitrodiphenylamine",
    "cn_name": "2,4-二硝基二苯胺;",
    "alternate_name": "Benzenamine, 2,4-dinitro-<em>N</em>-phenyl-;Diphenylamine, 2,4-dinitro-;2,4-Dinitro-<em>N</em>-phenylbenzenamine;C.I. 10340;Acetoquinone Yellow 5JZ;C.I. Disperse Yellow 14;2,4-Dinitrodiphenylamine;Serisol Yellow 2G;Supracet Yellow 3G;<em>N</em>-(2,4-Dinitrophenyl)aniline;<em>o</em>,<em>p</em>-Dinitrodiphenylamine;<em>N</em>-Phenyl-2,4-dinitroaniline;<em>N</em>-(2,4-Dinitrophenyl)benzenamine;NSC 6150;<em>N</em>-(2,4-Dinitrophenyl)-<em>N</em>-phenylamine;Disperse yellow 14;(2,4-Dinitro-phenyl)-phenyl-amine;2,4-Dinitro-<em>N</em>-phenylaniline",
    "duplicated_cas_no": "",
    "SMILES": "N(C1=C(N(=O)=O)C=C(N(=O)=O)C=C1)C2=CC=CC=C2",
    "meta_data": {
        "InChI": "InChI=1S/C12H9N3O4/c16-14(17)10-6-7-11(12(8-10)15(18)19)13-9-4-2-1-3-5-9/h1-8,13H",
        "InChIKey": null,
        "Canonical SMILES": "O=N(=O)C1=CC=C(NC=2C=CC=CC2)C(=C1)N(=O)=O",
        "Molecular Formula": "C<sub>12</sub>H<sub>9</sub>N<sub>3</sub>O<sub>4</sub>",
        "Molecular Mass": "259.22",
        "Melting Point": "159 °C"
    }
}