{
    "cas_no": "491-60-1",
    "key_name": "1,3,8-Trihydroxy-6-methyl-9(10<em>H</em>)-anthracenone",
    "cn_name": "大黄素蒽酮;1,3,8-三羟基-6-甲基-10H-蒽-9-酮;",
    "alternate_name": "9(10<em>H</em>)-Anthracenone, 1,3,8-trihydroxy-6-methyl-;Anthrone, 1,3,8-trihydroxy-6-methyl-;1,3,8-Trihydroxy-6-methyl-9(10<em>H</em>)-anthracenone;Emodin anthrone;Emodin-9-anthrone;Frangula emodin anthrone",
    "duplicated_cas_no": "1314041-10-5",
    "SMILES": "O=C1C=2C(CC=3C1=C(O)C=C(O)C3)=CC(C)=CC2O",
    "meta_data": {
        "InChI": "InChI=1S/C15H12O4/c1-7-2-8-4-9-5-10(16)6-12(18)14(9)15(19)13(8)11(17)3-7/h2-3,5-6,16-18H,4H2,1H3",
        "InChIKey": null,
        "Canonical SMILES": "O=C1C=2C(O)=CC(O)=CC2CC3=CC(=CC(O)=C13)C",
        "Molecular Formula": "C<sub>15</sub>H<sub>12</sub>O<sub>4</sub>",
        "Molecular Mass": "256.25",
        "Melting Point": "254-258 °C (decomp)"
    }
}