{
    "cas_no": "2438-40-6",
    "key_name": "Triheptadecanoin",
    "cn_name": "甘油三十七烷酸酯;甘油三十七烷酸酯;",
    "alternate_name": "Heptadecanoic acid, 1,1′,1′′-(1,2,3-propanetriyl) ester;Heptadecanoin, tri-;Intarvin;Heptadecanoic acid, 1,2,3-propanetriyl ester;Glyceryl margarate;Heptadecanoic acid triglyceride;Triheptadecanoin;Trimargarine;Trimargaroylglycerol;Glycerol triheptadecanoate;Trimargarin;Triglyceride HdHdHd;Palmitic acid triglyderide;1,2,3-Propanetriyltris(heptadecanoate)",
    "duplicated_cas_no": "",
    "SMILES": "C(OC(CCCCCCCCCCCCCCCC)=O)(COC(CCCCCCCCCCCCCCCC)=O)COC(CCCCCCCCCCCCCCCC)=O",
    "meta_data": {
        "InChI": "InChI=1S/C54H104O6/c1-4-7-10-13-16-19-22-25-28-31-34-37-40-43-46-52(55)58-49-51(60-54(57)48-45-42-39-36-33-30-27-24-21-18-15-12-9-6-3)50-59-53(56)47-44-41-38-35-32-29-26-23-20-17-14-11-8-5-2/h51H,4-50H2,1-3H3",
        "InChIKey": null,
        "Canonical SMILES": "O=C(OCC(OC(=O)CCCCCCCCCCCCCCCC)COC(=O)CCCCCCCCCCCCCCCC)CCCCCCCCCCCCCCCC",
        "Molecular Formula": "C<sub>54</sub>H<sub>104</sub>O<sub>6</sub>",
        "Molecular Mass": "849.40",
        "Melting Point": "59.5-60 °C"
    }
}