{
    "cas_no": "5247-86-9",
    "key_name": "1-Naphthalenecarboxylic acid, 8-hydroxy-, methyl ester",
    "cn_name": null,
    "alternate_name": "1-Naphthalenecarboxylic acid, 8-hydroxy-, methyl ester;1-Naphthoic acid, 8-hydroxy-, methyl ester;Methyl 8-hydroxy-1-naphthoate;Methyl 8-hydroxy-1-naphthalenecarboxylate",
    "duplicated_cas_no": "",
    "SMILES": "C(OC)(=O)C=1C2=C(C=CC=C2O)C=CC1",
    "meta_data": {
        "InChI": "InChI=1S/C12H10O3/c1-15-12(14)9-6-2-4-8-5-3-7-10(13)11(8)9/h2-7,13H,1H3",
        "InChIKey": null,
        "Canonical SMILES": "O=C(OC)C1=CC=CC=2C=CC=C(O)C21",
        "Molecular Formula": "C<sub>12</sub>H<sub>10</sub>O<sub>3</sub>",
        "Molecular Mass": "202.21",
        "Melting Point": "59-62 °C"
    }
}