{
    "cas_no": "27147-71-3",
    "key_name": "2-Methylhexadecanoic acid",
    "cn_name": null,
    "alternate_name": "Hexadecanoic acid, 2-methyl-;2-Methylhexadecanoic acid;α-Methylpalmitic acid;2-Methylpalmitic acid;(<em>dl</em>)-2-Methylhexadecanoic acid",
    "duplicated_cas_no": "7613-21-0",
    "SMILES": "C(CCCCCCCCCCCC)CC(C(O)=O)C",
    "meta_data": {
        "InChI": "InChI=1S/C17H34O2/c1-3-4-5-6-7-8-9-10-11-12-13-14-15-16(2)17(18)19/h16H,3-15H2,1-2H3,(H,18,19)",
        "InChIKey": null,
        "Canonical SMILES": "O=C(O)C(C)CCCCCCCCCCCCCC",
        "Molecular Formula": "C<sub>17</sub>H<sub>34</sub>O<sub>2</sub>",
        "Molecular Mass": "270.45",
        "Boiling Point": "160 °C @ Press: 0.5 Torr",
        "Melting Point": "54 °C"
    }
}