{
    "cas_no": "27176-87-0",
    "key_name": "Dodecylbenzenesulfonic acid",
    "cn_name": null,
    "alternate_name": "Benzenesulfonic acid, dodecyl-;Dodecylbenzenesulfonic acid;Laurylbenzenesulfonic acid;<em>n</em>-Dodecylbenzenesulfonic acid;E 7256;Nacconol 98SA;Nansa SSA;Elfan WA Sulfonic Acid;Calsoft LAS 99;Sulframin Acid 1298;Sulframin 1298;Richonic Acid B;Marlon AS 3;Nansa 1042P;Bio-Soft S 100;LAS 99;DBS;P 3 Vetralat;Polystep A 13;Cycat 600;Nacure 5076;Catalyst 6000;Cat 6000;Sulfosoft;ABS 100;Nacure 5074;Catalyst 600;Bio-Soft S 126;Nansa 1042;Witco 1298;Pelex F 25;Lipon LH 500;Soft Osen 5S;Ufacid K;S 100;Witco 1298 Soft Acid;Witco 1298 Acid Soft;Ambicat LE 4476;Maranil DBS;Neopelex FS;Taycapower L 122;Taycacure AC 430;Bio-Soft S 101;Neopelex GS;Rhodacal SSA/A;Dobanic acid;Taycapower L 120D;A 40S;Taycapower L 121;B 121;Witconic 1298 Hard Acid;Neopelex GS-P;Witconic 1298 Soft Acid;Statsafe 6000;LABS;LABS (detergent);Taycatox 120;Witconic 1298H;Bio-Soft LA acid;Vanwet acid 98;LE 4476;CATA CFC 5019KC;Taycapower B 121;Taycacure AC 450;Nacure 5525;XP 221;Lunan A 98;A 98;83X822;Taycacure AC 400S;DBSA;DDBSA;Nacure XP 221",
    "duplicated_cas_no": "1323-12-2;27157-97-7;37321-08-7;39355-45-8;54824-36-1;61400-71-3;106602-89-5;111839-63-5;112509-31-6;124743-21-1;147625-74-9;175069-51-9;210106-05-1;219316-00-4;220880-99-9;313478-89-6;811862-51-8;889890-18-0;1232441-14-3;2205889-82-1;2756222-56-5",
    "SMILES": "",
    "meta_data": {
        "InChI": "",
        "InChIKey": null,
        "Canonical SMILES": "",
        "Molecular Formula": "C<sub>18</sub>H<sub>30</sub>O<sub>3</sub>S",
        "Molecular Mass": "",
        "Melting Point": "10 °C",
        "Density": "1 g/cm³ @ Temp: 25 °C"
    }
}