{
    "cas_no": "2557-78-0",
    "key_name": "2-Fluorothiophenol",
    "cn_name": "邻氟苯硫酚;",
    "alternate_name": "Benzenethiol, 2-fluoro-;Benzenethiol, <em>o</em>-fluoro-;2-Fluorobenzenethiol;2-Fluorothiophenol;<em>o</em>-Fluorobenzenethiol;(2-Fluorophenyl)thiol;<em>o</em>-Fluorothiophenol;2-Fluorobenzene-1-thiol",
    "duplicated_cas_no": "",
    "SMILES": "FC1=C(S)C=CC=C1",
    "meta_data": {
        "InChI": "InChI=1S/C6H5FS/c7-5-3-1-2-4-6(5)8/h1-4,8H",
        "InChIKey": null,
        "Canonical SMILES": "FC=1C=CC=CC1S",
        "Molecular Formula": "C<sub>6</sub>H<sub>5</sub>FS",
        "Molecular Mass": "128.17",
        "Boiling Point": "72-73 °C @ Press: 35 Torr"
    }
}