{
    "cas_no": "50479-11-3",
    "key_name": "Phosphonium, (4-ethoxy-4-oxobutyl)triphenyl-, bromide (1:1)",
    "cn_name": "[3-(乙氧羰基)丙基]三苯鏻溴化锂;",
    "alternate_name": "Phosphonium, (4-ethoxy-4-oxobutyl)triphenyl-, bromide (1:1);Phosphonium, (4-ethoxy-4-oxobutyl)triphenyl-, bromide;[3-(Ethoxycarbonyl)propyl]triphenylphosphonium bromide;3-Carboethoxypropyltriphenylphosphonium bromide;NSC 269919;(4-Ethoxy-4-oxobutyl)triphenylphosphonium bromide;Triphenyl(3-(ethoxycarbonyl)propyl)phosphonium bromide",
    "duplicated_cas_no": "",
    "SMILES": "[P+](CCCC(OCC)=O)(C1=CC=CC=C1)(C2=CC=CC=C2)C3=CC=CC=C3.[Br-]",
    "meta_data": {
        "InChI": "InChI=1S/C24H26O2P.BrH/c1-2-26-24(25)19-12-20-27(21-13-6-3-7-14-21,22-15-8-4-9-16-22)23-17-10-5-11-18-23;/h3-11,13-18H,2,12,19-20H2,1H3;1H/q+1;/p-1",
        "InChIKey": null,
        "Canonical SMILES": "[Br-].O=C(OCC)CCC[P+](C=1C=CC=CC1)(C=2C=CC=CC2)C=3C=CC=CC3",
        "Molecular Formula": "C<sub>24</sub>H<sub>26</sub>O<sub>2</sub>P.Br",
        "Molecular Mass": "",
        "Melting Point": "172-174 °C"
    }
}