{
    "cas_no": "98-17-9",
    "key_name": "3-(Trifluoromethyl)phenol",
    "cn_name": "间三氟甲基苯酚;",
    "alternate_name": "Phenol, 3-(trifluoromethyl)-;<em>m</em>-Cresol, α,α,α-trifluoro-;3-(Trifluoromethyl)phenol;<em>m</em>-Hydroxybenzotrifluoride;<em>m</em>-(Trifluoromethyl)phenol;3-Hydroxybenzotrifluoride;α,α,α-Trifluoro-<em>m</em>-cresol;<em>m</em>-α,α,α-Trifluorocresol;5-Trifluoromethylphenol;NSC 9884",
    "duplicated_cas_no": "",
    "SMILES": "C(F)(F)(F)C1=CC(O)=CC=C1",
    "meta_data": {
        "InChI": "InChI=1S/C7H5F3O/c8-7(9,10)5-2-1-3-6(11)4-5/h1-4,11H",
        "InChIKey": null,
        "Canonical SMILES": "FC(F)(F)C=1C=CC=C(O)C1",
        "Molecular Formula": "C<sub>7</sub>H<sub>5</sub>F<sub>3</sub>O",
        "Molecular Mass": "162.11",
        "Boiling Point": "178 °C",
        "Melting Point": "-1.8 °C",
        "Density": "1.3458 g/cm³ @ Temp: 25 °C"
    }
}