{
    "cas_no": "618-49-5",
    "key_name": "3-Hydroxybenzamide",
    "cn_name": null,
    "alternate_name": "Benzamide, 3-hydroxy-;Benzamide, <em>m</em>-hydroxy-;3-Hydroxybenzamide;<em>m</em>-Hydroxybenzamide;m-Hydroxybenzamide;SR 4267;NSC 379289;3-Hydroxybenzenecarboxamide",
    "duplicated_cas_no": "",
    "SMILES": "C(N)(=O)C1=CC(O)=CC=C1",
    "meta_data": {
        "InChI": "InChI=1S/C7H7NO2/c8-7(10)5-2-1-3-6(9)4-5/h1-4,9H,(H2,8,10)",
        "InChIKey": null,
        "Canonical SMILES": "O=C(N)C=1C=CC=C(O)C1",
        "Molecular Formula": "C<sub>7</sub>H<sub>7</sub>NO<sub>2</sub>",
        "Molecular Mass": "137.14",
        "Melting Point": "170 °C",
        "Density": "1.449 g/cm³"
    }
}