{
    "cas_no": "101-55-3",
    "key_name": "4-Bromodiphenyl ether",
    "cn_name": "4-溴苯基苯基醚;4-溴联苯醚;",
    "alternate_name": "Benzene, 1-bromo-4-phenoxy-;Ether, <em>p</em>-bromophenyl phenyl;1-Bromo-4-phenoxybenzene;<em>p</em>-Bromophenyl phenyl ether;4-Bromophenoxybenzene;<em>p</em>-Bromodiphenyl ether;4-Bromophenyl phenyl ether;<em>p</em>-Phenoxybromobenzene;4-Bromodiphenyl ether;<em>p</em>-Bromophenoxybenzene;<em>p</em>-Phenoxyphenyl bromide;4-Phenoxyphenyl bromide;4-Phenoxybromobenzene;BDE 3;PBDE 3;NSC 5619;4-Phenoxy-1-bromobenzene;BDE 003",
    "duplicated_cas_no": "",
    "SMILES": "O(C1=CC=C(Br)C=C1)C2=CC=CC=C2",
    "meta_data": {
        "InChI": "InChI=1S/C12H9BrO/c13-10-6-8-12(9-7-10)14-11-4-2-1-3-5-11/h1-9H",
        "InChIKey": null,
        "Canonical SMILES": "BrC1=CC=C(OC=2C=CC=CC2)C=C1",
        "Molecular Formula": "C<sub>12</sub>H<sub>9</sub>BrO",
        "Molecular Mass": "249.10",
        "Boiling Point": "310.1 °C @ Press: 760 Torr",
        "Melting Point": "18.72 °C",
        "Density": "1.6088 g/cm³ @ Temp: 20 °C"
    }
}