{
    "cas_no": "3376-24-7",
    "key_name": "<em>N</em>-<em>tert</em>-Butyl-α-phenylnitrone",
    "cn_name": "N-叔丁基-α-苯基硝酮;N-叔丁基-α-苯基硝酸灵;",
    "alternate_name": "2-Propanamine, 2-methyl-<em>N</em>-(phenylmethylene)-, <em>N</em>-oxide;Nitrone, <em>N</em>-<em>tert</em>-butyl-α-phenyl-;2-Phenyl-<em>N</em>-<em>tert</em>-butylnitrone;α-Phenyl-<em>N</em>-<em>tert</em>-butylnitrone;<em>N</em>-<em>tert</em>-Butyl-α-phenylnitrone;<em>C</em>-Phenyl-<em>N</em>-<em>tert</em>-butylnitrone;Benzylidene-<em>tert</em>-butylamine <em>N</em>-oxide;<em>N</em>-Benzylidene-<em>tert</em>-butylamine oxide;PBN;<em>N</em>-<em>tert</em>-Butyl-2-phenylnitrone;<em>N</em>-Benzylidene-<em>tert</em>-butylamine <em>N</em>-oxide;<em>N</em>-<em>tert</em>-Butyl-<em>C</em>-phenylnitrone;<em>tert</em>-Butyl(benzylidene)amine <em>N</em>-oxide;PBN (amine oxide);Benzylidene-<em>tert</em>-butylamine oxide;C-Phenyl-<em>N</em>-<em>tert</em>-butylnitrone;2-Methyl-<em>N</em>-(phenylmethylene)-2-propanamine <em>N</em>-oxide",
    "duplicated_cas_no": "50643-08-8;68315-30-0;104702-45-6;115995-20-5;154345-12-7;165047-88-1;173777-90-7;2244192-70-7",
    "SMILES": "C(=N(C(C)(C)C)=O)C1=CC=CC=C1",
    "meta_data": {
        "InChI": "InChI=1S/C11H15NO/c1-11(2,3)12(13)9-10-7-5-4-6-8-10/h4-9H,1-3H3",
        "InChIKey": null,
        "Canonical SMILES": "O=N(=CC=1C=CC=CC1)C(C)(C)C",
        "Molecular Formula": "C<sub>11</sub>H<sub>15</sub>NO",
        "Molecular Mass": "177.24",
        "Melting Point": "76 °C"
    }
}