{
    "cas_no": "5405-53-8",
    "key_name": "2,7-Dinitrofluorene",
    "cn_name": "2,7-二硝基芴;",
    "alternate_name": "9<em>H</em>-Fluorene, 2,7-dinitro-;Fluorene, 2,7-dinitro-;2,7-Dinitro-9<em>H</em>-fluorene;2,7-Dinitrofluorene;NSC 5180",
    "duplicated_cas_no": "",
    "SMILES": "N(=O)(=O)C=1C=C2C(C=3C(C2)=CC(N(=O)=O)=CC3)=CC1",
    "meta_data": {
        "InChI": "InChI=1S/C13H8N2O4/c16-14(17)10-1-3-12-8(6-10)5-9-7-11(15(18)19)2-4-13(9)12/h1-4,6-7H,5H2",
        "InChIKey": null,
        "Canonical SMILES": "O=N(=O)C=1C=CC=2C3=CC=C(C=C3CC2C1)N(=O)=O",
        "Molecular Formula": "C<sub>13</sub>H<sub>8</sub>N<sub>2</sub>O<sub>4</sub>",
        "Molecular Mass": "256.21",
        "Melting Point": "334 °C"
    }
}