{
    "cas_no": "35927-38-9",
    "key_name": "Vicenin 1",
    "cn_name": null,
    "alternate_name": "4<em>H</em>-1-Benzopyran-4-one, 8-β-<span class=\"text-smallcaps\">D</smallcap>-glucopyranosyl-5,7-dihydroxy-2-(4-hydroxyphenyl)-6-β-<smallcap>D</span>-xylopyranosyl-;8-β-<span class=\"text-smallcaps\">D</smallcap>-Glucopyranosyl-5,7-dihydroxy-2-(4-hydroxyphenyl)-6-β-<smallcap>D</span>-xylopyranosyl-4<em>H</em>-1-benzopyran-4-one;Vicenin 1;6-<em>C</em>-Xylosyl-8-<em>C</em>-glucosylapigenin;Vitexin 1;6-<em>C</em>-β-<span class=\"text-smallcaps\">D</smallcap>-Xylopyranosyl-8-<em>C</em>-β-<smallcap>D</span>-glucopyranosylapigenin",
    "duplicated_cas_no": "51012-98-7;51911-16-1;64090-97-7;886588-02-9",
    "SMILES": "OC=1C(=C2C(=C(O)C1[C@H]3[C@H](O)[C@@H](O)[C@H](O)CO3)C(=O)C=C(O2)C4=CC=C(O)C=C4)[C@@H]5O[C@H](CO)[C@@H](O)[C@H](O)[C@H]5O",
    "meta_data": {
        "InChI": "InChI=1S/C26H28O14/c27-6-13-18(32)21(35)23(37)26(40-13)16-20(34)15(25-22(36)17(31)11(30)7-38-25)19(33)14-10(29)5-12(39-24(14)16)8-1-3-9(28)4-2-8/h1-5,11,13,17-18,21-23,25-28,30-37H,6-7H2/t11-,13-,17+,18-,21+,22-,23-,25+,26+/m1/s1",
        "InChIKey": null,
        "Canonical SMILES": "O=C1C=C(OC2=C1C(O)=C(C(O)=C2C3OC(CO)C(O)C(O)C3O)C4OCC(O)C(O)C4O)C=5C=CC(O)=CC5",
        "Molecular Formula": "C<sub>26</sub>H<sub>28</sub>O<sub>14</sub>",
        "Molecular Mass": "564.49",
        "Melting Point": "230 °C (decomp)"
    }
}