{
    "cas_no": "10031-90-0",
    "key_name": "Ethyl 2-furanpropanoate",
    "cn_name": "3-(2-呋喃基)丙酸乙酯;2-呋喃丙酸乙酯;",
    "alternate_name": "2-Furanpropanoic acid, ethyl ester;2-Furanpropionic acid, ethyl ester;Ethyl 2-furanpropanoate;Ethyl 2-furanpropionate;Ethyl β-furylpropionate;Ethyl 3-(α-furyl)propionate;Ethyl 3-(2-furyl)propionate;NSC 97529;Ethyl 3-(2-furyl)propanoate;Ethyl 3-(furan-2-yl)propanoate;Ethyl 3-(furan-2-yl)propionate",
    "duplicated_cas_no": "",
    "SMILES": "C(CC(OCC)=O)C1=CC=CO1",
    "meta_data": {
        "InChI": "InChI=1S/C9H12O3/c1-2-11-9(10)6-5-8-4-3-7-12-8/h3-4,7H,2,5-6H2,1H3",
        "InChIKey": null,
        "Canonical SMILES": "O=C(OCC)CCC=1OC=CC1",
        "Molecular Formula": "C<sub>9</sub>H<sub>12</sub>O<sub>3</sub>",
        "Molecular Mass": "168.19",
        "Boiling Point": "108-110 °C @ Press: 10 Torr",
        "Density": "1.0562 g/cm³ @ Temp: 20 °C"
    }
}