{
    "cas_no": "638-03-9",
    "key_name": "3-Methylaniline hydrochloride",
    "cn_name": "间甲苯胺盐酸盐;",
    "alternate_name": "Benzenamine, 3-methyl-, hydrochloride (1:1);<em>m</em>-Toluidine, hydrochloride;Benzenamine, 3-methyl-, hydrochloride;3-Methylaniline hydrochloride;3-Methylanilinium chloride;3-Methylbenzenamine hydrochloride;3-Methylphenylamine hydrochloride",
    "duplicated_cas_no": "",
    "SMILES": "CC1=CC(N)=CC=C1.Cl",
    "meta_data": {
        "InChI": "InChI=1S/C7H9N.ClH/c1-6-3-2-4-7(8)5-6;/h2-5H,8H2,1H3;1H",
        "InChIKey": null,
        "Canonical SMILES": "Cl.NC1=CC=CC(=C1)C",
        "Molecular Formula": "C<sub>7</sub>H<sub>9</sub>N.ClH",
        "Molecular Mass": "",
        "Melting Point": "223-225 °C"
    }
}