{
    "cas_no": "312303-48-3",
    "key_name": "4,4,5,5-Tetramethyl-2-(2-methyl-1-naphthalenyl)-1,3,2-dioxaborolane",
    "cn_name": null,
    "alternate_name": "1,3,2-Dioxaborolane, 4,4,5,5-tetramethyl-2-(2-methyl-1-naphthalenyl)-;4,4,5,5-Tetramethyl-2-(2-methyl-1-naphthalenyl)-1,3,2-dioxaborolane;4,4,5,5-Tetramethyl-2-(2-methylnaphthalen-1-yl)-[1,3,2]dioxaborolane;4,4,5,5-Tetramethyl-2-(2-methyl-1-naphthyl)-1,3,2-dioxaborolane",
    "duplicated_cas_no": "",
    "SMILES": "CC1=C(B2OC(C)(C)C(C)(C)O2)C3=C(C=C1)C=CC=C3",
    "meta_data": {
        "InChI": "InChI=1S/C17H21BO2/c1-12-10-11-13-8-6-7-9-14(13)15(12)18-19-16(2,3)17(4,5)20-18/h6-11H,1-5H3",
        "InChIKey": null,
        "Canonical SMILES": "O1B(OC(C)(C)C1(C)C)C=2C=3C=CC=CC3C=CC2C",
        "Molecular Formula": "C<sub>17</sub>H<sub>21</sub>BO<sub>2</sub>",
        "Molecular Mass": "268.16",
        "Melting Point": "63.8-63.9 °C"
    }
}