{
    "cas_no": "372-66-7",
    "key_name": "Heptaminol",
    "cn_name": "6-氨基-2-甲基-2-庚醇;氨甲庚醇;庚胺醇;辛胺醇;",
    "alternate_name": "2-Heptanol, 6-amino-2-methyl-;6-Amino-2-methyl-2-heptanol;Heptaminol;6-Hydroxy-6-methyl-2-heptamine;6-Hydroxy-6-methyl-2-aminoheptane;2-Methyl-6-amino-2-heptanol;6-Methyl-2-amino-6-heptanol;6-Hydroxy-6-methyl-2-heptylamine;2-Amino-6-hydroxy-6-methylheptane;Ginkor Fort;Corasore;(5-Hydroxy-1,5-dimethylhexyl)amine;MeSH ID: D006535",
    "duplicated_cas_no": "166239-89-0",
    "SMILES": "C(CCC(C)N)C(C)(C)O",
    "meta_data": {
        "InChI": "InChI=1S/C8H19NO/c1-7(9)5-4-6-8(2,3)10/h7,10H,4-6,9H2,1-3H3",
        "InChIKey": null,
        "Canonical SMILES": "OC(C)(C)CCCC(N)C",
        "Molecular Formula": "C<sub>8</sub>H<sub>19</sub>NO",
        "Molecular Mass": "145.24",
        "Boiling Point": "92.5 °C",
        "Melting Point": "&lt;25 °C"
    }
}