{
    "cas_no": "2944-49-2",
    "key_name": "2,3-Dimethylanisole",
    "cn_name": "2,3-二甲基苯甲醚;",
    "alternate_name": "Benzene, 1-methoxy-2,3-dimethyl-;Anisole, 2,3-dimethyl-;1-Methoxy-2,3-dimethylbenzene;2,3-Dimethylanisole;3-Methoxy-<em>o</em>-xylene;2,3-Dimethylphenol methyl ether;1,2-Dimethyl-6-methoxybenzene;NSC 137144",
    "duplicated_cas_no": "",
    "SMILES": "O(C)C1=C(C)C(C)=CC=C1",
    "meta_data": {
        "InChI": "InChI=1S/C9H12O/c1-7-5-4-6-9(10-3)8(7)2/h4-6H,1-3H3",
        "InChIKey": null,
        "Canonical SMILES": "O(C1=CC=CC(=C1C)C)C",
        "Molecular Formula": "C<sub>9</sub>H<sub>12</sub>O",
        "Molecular Mass": "136.19",
        "Boiling Point": "199 °C",
        "Melting Point": "29 °C"
    }
}