{
    "cas_no": "19932-85-5",
    "key_name": "6-Bromo-2(3<em>H</em>)-benzoxazolone",
    "cn_name": null,
    "alternate_name": "2(3<em>H</em>)-Benzoxazolone, 6-bromo-;2-Benzoxazolinone, 6-bromo-;6-Bromo-2(3<em>H</em>)-benzoxazolone;6-Bromo-2-benzoxazolinone;6-Bromo-2-benzoxazolone;6-Bromobenzoxazolone;6-Bromo-3<em>H</em>-benzoxazol-2-one;NSC 26190;Cincreasin;6-Bromo-1,3-benzoxazol-2(3<em>H</em>)-one;6-Bromobenzo[<em>d</em>]oxazol-2(3<em>H</em>)-one",
    "duplicated_cas_no": "32850-86-5",
    "SMILES": "O=C1NC=2C(O1)=CC(Br)=CC2",
    "meta_data": {
        "InChI": "InChI=1S/C7H4BrNO2/c8-4-1-2-5-6(3-4)11-7(10)9-5/h1-3H,(H,9,10)",
        "InChIKey": null,
        "Canonical SMILES": "O=C1OC2=CC(Br)=CC=C2N1",
        "Molecular Formula": "C<sub>7</sub>H<sub>4</sub>BrNO<sub>2</sub>",
        "Molecular Mass": "214.02",
        "Melting Point": "188-190 °C"
    }
}