{
    "cas_no": "94-82-6",
    "key_name": "4-(2,4-Dichlorophenoxy)butyric acid",
    "cn_name": "2,4-二氯苯氧丁酸;4-(2,4-二氯苯氧基)丁酸;2,4-滴丁酸;",
    "alternate_name": "Butanoic acid, 4-(2,4-dichlorophenoxy)-;Butyric acid, 4-(2,4-dichlorophenoxy)-;4-(2,4-Dichlorophenoxy)butanoic acid;2,4-DB;Butyrac;Butyrac 118;γ-(2,4-Dichlorophenoxy)butyric acid;4-(2,4-Dichlorophenoxy)butyric acid;Legumex D;2,4-Dichlorophenoxybutyric acid;2,4-DM;Legumex;Sys 67 Buratal;Buratal;NSC 70337;Butyrac 200",
    "duplicated_cas_no": "",
    "SMILES": "O(CCCC(O)=O)C1=C(Cl)C=C(Cl)C=C1",
    "meta_data": {
        "InChI": "InChI=1S/C10H10Cl2O3/c11-7-3-4-9(8(12)6-7)15-5-1-2-10(13)14/h3-4,6H,1-2,5H2,(H,13,14)",
        "InChIKey": null,
        "Canonical SMILES": "O=C(O)CCCOC1=CC=C(Cl)C=C1Cl",
        "Molecular Formula": "C<sub>10</sub>H<sub>10</sub>Cl<sub>2</sub>O<sub>3</sub>",
        "Molecular Mass": "249.09",
        "Boiling Point": "324.35 °C",
        "Melting Point": "118-120 °C"
    }
}