{
    "cas_no": "768-49-0",
    "key_name": "(2-Methyl-1-propen-1-yl)benzene",
    "cn_name": "2-甲基-1-苯丙烯;",
    "alternate_name": "Benzene, (2-methyl-1-propen-1-yl)-;Benzene, (2-methylpropenyl)-;Benzene, (2-methyl-1-propenyl)-;Benzene, isobutenyl-;(2-Methyl-1-propen-1-yl)benzene;1-Propene, 2-methyl-1-phenyl-;1-Phenyl-2-methyl-1-propene;β,β-Dimethylstyrene;1,1-Dimethyl-2-phenylethylene;2-Methyl-1-phenyl-1-propene;(2-Methylpropenyl)benzene;1-Phenyl-2-methylpropene;β-Methylisoallylbenzene;2-Methyl-1-phenylpropene;2-Benzylidenepropane;Isobutenylbenzene;2-Methyl-3-phenyl-2-propene;β-Dimethylstyrene;NSC 163349;(2-Methyl-1-propenyl)benzene",
    "duplicated_cas_no": "",
    "SMILES": "C(=C(C)C)C1=CC=CC=C1",
    "meta_data": {
        "InChI": "InChI=1S/C10H12/c1-9(2)8-10-6-4-3-5-7-10/h3-8H,1-2H3",
        "InChIKey": null,
        "Canonical SMILES": "C=1C=CC(=CC1)C=C(C)C",
        "Molecular Formula": "C<sub>10</sub>H<sub>12</sub>",
        "Molecular Mass": "132.20",
        "Boiling Point": "63.5 °C @ Press: 10 Torr",
        "Melting Point": "-52--51 °C",
        "Density": "0.9006 g/cm³ @ Temp: 20 °C"
    }
}