{
    "cas_no": "13499-05-3",
    "key_name": "Hafnium tetrachloride",
    "cn_name": null,
    "alternate_name": "Hafnium chloride (HfCl<sub>4</sub>), (<em>T</em>-4)-;Hafnium chloride (HfCl<sub>4</sub>);Hafnium tetrachloride;Tetrachlorohafnium;Hafnium chloride;Hafnium(IV) chloride",
    "duplicated_cas_no": "",
    "SMILES": "[Hf](Cl)(Cl)(Cl)Cl",
    "meta_data": {
        "InChI": "InChI=1S/4ClH.Hf/h4*1H;/q;;;;+4/p-4",
        "InChIKey": null,
        "Canonical SMILES": "Cl[Hf](Cl)(Cl)Cl",
        "Molecular Formula": "Cl<sub>4</sub>Hf",
        "Molecular Mass": "",
        "Boiling Point": "250 °C",
        "Density": "0.32 g/cm³"
    }
}