{
    "cas_no": "99-34-3",
    "key_name": "3,5-Dinitrobenzoic acid",
    "cn_name": "3,5-二硝基苯甲酸;",
    "alternate_name": "Benzoic acid, 3,5-dinitro-;3,5-Dinitrobenzoic acid;3-Carboxy-1,5-dinitrobenzene;DNBA;NSC 8732",
    "duplicated_cas_no": "64582-71-4;73881-46-6",
    "SMILES": "C(O)(=O)C1=CC(N(=O)=O)=CC(N(=O)=O)=C1",
    "meta_data": {
        "InChI": "InChI=1S/C7H4N2O6/c10-7(11)4-1-5(8(12)13)3-6(2-4)9(14)15/h1-3H,(H,10,11)",
        "InChIKey": null,
        "Canonical SMILES": "O=C(O)C=1C=C(C=C(C1)N(=O)=O)N(=O)=O",
        "Molecular Formula": "C<sub>7</sub>H<sub>4</sub>N<sub>2</sub>O<sub>6</sub>",
        "Molecular Mass": "212.12",
        "Melting Point": "205 °C",
        "Density": "1.498 g/cm³"
    }
}