{
    "cas_no": "6163-66-2",
    "key_name": "<em>tert</em>-Butyl ether",
    "cn_name": "叔丁醚;",
    "alternate_name": "Propane, 2-(1,1-dimethylethoxy)-2-methyl-;<em>tert</em>-Butyl ether;Propane, 2,2′-oxybis[2-methyl-;2-(1,1-Dimethylethoxy)-2-methylpropane;Di-<em>tert</em>-Butyl ether;Bis(<em>tert</em>-butyl)ether;2-Methyl-2-[(2-methylpropan-2-yl)oxy]propane;2-(<em>tert</em>-Butoxy)-2-methylpropane;2-<em>tert</em>-Butoxy-2-methylpropane",
    "duplicated_cas_no": "",
    "SMILES": "O(C(C)(C)C)C(C)(C)C",
    "meta_data": {
        "InChI": "InChI=1S/C8H18O/c1-7(2,3)9-8(4,5)6/h1-6H3",
        "InChIKey": null,
        "Canonical SMILES": "O(C(C)(C)C)C(C)(C)C",
        "Molecular Formula": "C<sub>8</sub>H<sub>18</sub>O",
        "Molecular Mass": "130.23",
        "Boiling Point": "107.2 °C",
        "Density": "0.7658 g/cm³ @ Temp: 20 °C"
    }
}