{
    "cas_no": "1020-31-1",
    "key_name": "3,5-Di-<em>tert</em>-butylcatechol",
    "cn_name": "3,5-二叔丁基邻苯二酚;3,5-二叔丁基-1,2-苯二酚;3,5-DTBC;",
    "alternate_name": "1,2-Benzenediol, 3,5-bis(1,1-dimethylethyl)-;Pyrocatechol, 3,5-di-<em>tert</em>-butyl-;3,5-Bis(1,1-dimethylethyl)-1,2-benzenediol;4,6-Di-<em>tert</em>-butylpyrocatechol;3,5-Di-<em>tert</em>-butylpyrocatechol;3,5-Di-<em>t</em>-butylcatechol;3,5-Di-<em>tert</em>-butyl-1,2-benzenediol;3,5-Di-<em>tert</em>-butylcatechol;3,5-Di-<em>tert</em>-butyl-1,2-dihydroxybenzene;3,5-Di-<em>tert</em>-butyl-<em>o</em>-hydroquinone;4,6-Di-<em>tert</em>-butyl-1,2-benzenediol;3,5-Bis(<em>tert</em>-butyl)catechol;NSC 59767;DTBQH<sub>2</sub>;3,5-Di-<em>tert</em>-Butyl-1,2-Hydroxybenzene;3,5-Ditert-butylbenzene-1,2-diol",
    "duplicated_cas_no": "122983-47-5",
    "SMILES": "C(C)(C)(C)C1=CC(C(C)(C)C)=CC(O)=C1O",
    "meta_data": {
        "InChI": "InChI=1S/C14H22O2/c1-13(2,3)9-7-10(14(4,5)6)12(16)11(15)8-9/h7-8,15-16H,1-6H3",
        "InChIKey": null,
        "Canonical SMILES": "OC=1C=C(C=C(C1O)C(C)(C)C)C(C)(C)C",
        "Molecular Formula": "C<sub>14</sub>H<sub>22</sub>O<sub>2</sub>",
        "Molecular Mass": "222.32",
        "Melting Point": "99-100 °C"
    }
}