{
    "cas_no": "4488-57-7",
    "key_name": "Dihydrodicyclopentadiene",
    "cn_name": "5,6-二氢双环戊二烯;3a,4,5,6,7,7a-六氢--4,7-亚甲基八氢茚三环[5.2.1.0(2,6)]癸烯;",
    "alternate_name": "4,7-Methano-1<em>H</em>-indene, 3a,4,5,6,7,7a-hexahydro-;4,7-Methanoindene, 3a,4,5,6,7,7a-hexahydro-;3a,4,5,6,7,7a-Hexahydro-4,7-methano-1<em>H</em>-indene;Tricyclo[5.2.1.0<sup>2,6</sup>]dec-3-ene;Dihydrodicyclopentadiene;NSC 22462;5,6-Dihydrodicyclopentadiene",
    "duplicated_cas_no": "52642-53-2",
    "SMILES": "C12C(C3CC1CC3)C=CC2",
    "meta_data": {
        "InChI": "InChI=1S/C10H14/c1-2-9-7-4-5-8(6-7)10(9)3-1/h1-2,7-10H,3-6H2",
        "InChIKey": null,
        "Canonical SMILES": "C1=CC2C3CCC(C3)C2C1",
        "Molecular Formula": "C<sub>10</sub>H<sub>14</sub>",
        "Molecular Mass": "134.22",
        "Boiling Point": "103-105 °C @ Press: 12 Torr",
        "Melting Point": "57 °C"
    }
}