{
    "cas_no": "278-74-0",
    "key_name": "3-Oxatricyclo[3.2.1.0<sup>2,4</sup>]octane",
    "cn_name": null,
    "alternate_name": "3-Oxatricyclo[3.2.1.0<sup>2,4</sup>]octane;Norbornane, 2,3-epoxy-;2,3-Epoxybicyclo[2.2.1]heptane;Norbornene epoxide;2,3-Epoxynorbornene;2,3-Epoxynorbornane;Norbornene oxide;Norbornane epoxide",
    "duplicated_cas_no": "",
    "SMILES": "C12C(O1)C3CC2CC3",
    "meta_data": {
        "InChI": "InChI=1S/C7H10O/c1-2-5-3-4(1)6-7(5)8-6/h4-7H,1-3H2",
        "InChIKey": null,
        "Canonical SMILES": "O1C2C3CCC(C3)C12",
        "Molecular Formula": "C<sub>7</sub>H<sub>10</sub>O",
        "Molecular Mass": "110.15",
        "Melting Point": "118-119 °C"
    }
}