{
    "cas_no": "1817-90-9",
    "key_name": "(2-Ethoxyethyl)benzene",
    "cn_name": "2-乙氧基乙基苯;乙基苯乙基醚;",
    "alternate_name": "Benzene, (2-ethoxyethyl)-;Ether, ethyl phenethyl;(2-Ethoxyethyl)benzene;Ethyl phenethyl ether;2-Phenylethyl ethyl ether;NSC 37997",
    "duplicated_cas_no": "",
    "SMILES": "C(COCC)C1=CC=CC=C1",
    "meta_data": {
        "InChI": "InChI=1S/C10H14O/c1-2-11-9-8-10-6-4-3-5-7-10/h3-7H,2,8-9H2,1H3",
        "InChIKey": null,
        "Canonical SMILES": "O(CC)CCC=1C=CC=CC1",
        "Molecular Formula": "C<sub>10</sub>H<sub>14</sub>O",
        "Molecular Mass": "150.22",
        "Boiling Point": "193-196 °C"
    }
}