{
    "cas_no": "26402-22-2",
    "key_name": "Monocaprin",
    "cn_name": null,
    "alternate_name": "Decanoic acid, monoester with 1,2,3-propanetriol;Decanoin, mono-;Glyceryl monocaprate;Monocaprin;Capric acid monoglyceride;Glycerol monocaprate;Decanoic acid monoglyceride;Sunsoft 767;Poem M 200;Glycerin monodecanoate;Monodecanoin;Glycerin monocaprate;Sunsoft 760;Monocaprinoylglycerin;Glyceryl monocaprinate;Capmul MCM-C 10;Glyceryl monodecanoate;Monodecanoyl glycerol;Sunsoft 760H;Glycerol monodecanoate;Capric monoglyceride;Sunsoft 760C",
    "duplicated_cas_no": "1322-59-4;27214-36-4",
    "SMILES": "",
    "meta_data": {
        "InChI": "",
        "InChIKey": null,
        "Canonical SMILES": "",
        "Molecular Formula": "C<sub>13</sub>H<sub>26</sub>O<sub>4</sub>",
        "Molecular Mass": "",
        "Melting Point": "47 °C"
    }
}