{
    "cas_no": "15507-52-5",
    "key_name": "Cholesteryl methyl carbonate",
    "cn_name": null,
    "alternate_name": "Cholest-5-en-3-ol (3β)-, 3-(methyl carbonate);Cholesterol, methyl carbonate;Cholest-5-en-3-ol (3β)-, methyl carbonate;Carbonic acid, cholesteryl methyl ester;Cholesteryl methyl carbonate;NSC 93985;Cholest-5-en-3β-ol methyl carbonate;5-Cholesten-3β-ol methyl carbonate",
    "duplicated_cas_no": "",
    "SMILES": "C[C@@]12[C@@]3([C@]([C@]4([C@](C)(CC3)[C@@]([C@@H](CCCC(C)C)C)(CC4)[H])[H])(CC=C1C[C@@H](OC(OC)=O)CC2)[H])[H]",
    "meta_data": {
        "InChI": "InChI=1S/C29H48O3/c1-19(2)8-7-9-20(3)24-12-13-25-23-11-10-21-18-22(32-27(30)31-6)14-16-28(21,4)26(23)15-17-29(24,25)5/h10,19-20,22-26H,7-9,11-18H2,1-6H3/t20-,22+,23+,24-,25+,26+,28+,29-/m1/s1",
        "InChIKey": null,
        "Canonical SMILES": "O=C(OC)OC1CC2=CCC3C(CCC4(C)C(CCC34)C(C)CCCC(C)C)C2(C)CC1",
        "Molecular Formula": "C<sub>29</sub>H<sub>48</sub>O<sub>3</sub>",
        "Molecular Mass": "444.69",
        "Melting Point": "115 °C"
    }
}