{
    "cas_no": "13529-27-6",
    "key_name": "2-Furaldehyde, diethyl acetal",
    "cn_name": "2-糠醛缩二乙醇;2-呋喃甲醛缩二乙醇;",
    "alternate_name": "Furan, 2-(diethoxymethyl)-;2-Furaldehyde, diethyl acetal;2-(Diethoxymethyl)furan;2-Furfural diethyl acetal;2-Furancarboxaldehyde diethyl acetal;Furfural diethyl acetal",
    "duplicated_cas_no": "",
    "SMILES": "C(OCC)(OCC)C1=CC=CO1",
    "meta_data": {
        "InChI": "InChI=1S/C9H14O3/c1-3-10-9(11-4-2)8-6-5-7-12-8/h5-7,9H,3-4H2,1-2H3",
        "InChIKey": null,
        "Canonical SMILES": "O1C=CC=C1C(OCC)OCC",
        "Molecular Formula": "C<sub>9</sub>H<sub>14</sub>O<sub>3</sub>",
        "Molecular Mass": "170.21",
        "Boiling Point": "191.5 °C"
    }
}