{
    "cas_no": "14268-66-7",
    "key_name": "Benzodioxol-5-amine",
    "cn_name": "3,4-亚甲二氧基苯胺;胡椒胺;",
    "alternate_name": "1,3-Benzodioxol-5-amine;Aniline, 3,4-(methylenedioxy)-;5-Amino-1,3-benzodioxole;1-Amino-3,4-(methylenedioxy)benzene;3,4-(Methylenedioxy)-1-aminobenzene;4-Amino-1,2-(methylenedioxy)benzene;3,4-(Methylenedioxy)aniline;1,2-(Methylenedioxy)-4-aminobenzene;(Benzo[1,3]dioxol-5-yl)amine;3,4-Methylendioxyaniline;(Benzodioxol-5-yl)amine;1,3-Benzodioxolan-6-amine;NSC 155176;3,4-Methylenedioxybenzeneamine;Benzo[<em>d</em>][1,3]dioxol-5-amine;Benzodioxol-5-amine;Benzo[<em>d</em>][1,3]dioxol-5-ylamine;1,3-Dioxaindan-5-amine;2<em>H</em>-1,3-Benzodioxol-5-amine;Benzo[<em>d</em>][1,3]dioxolan-5-amine",
    "duplicated_cas_no": "",
    "SMILES": "NC=1C=C2C(=CC1)OCO2",
    "meta_data": {
        "InChI": "InChI=1S/C7H7NO2/c8-5-1-2-6-7(3-5)10-4-9-6/h1-3H,4,8H2",
        "InChIKey": null,
        "Canonical SMILES": "O1C2=CC=C(N)C=C2OC1",
        "Molecular Formula": "C<sub>7</sub>H<sub>7</sub>NO<sub>2</sub>",
        "Molecular Mass": "137.14",
        "Boiling Point": "97 °C @ Press: 0.2 Torr",
        "Melting Point": "44.5-45.5 °C"
    }
}