{
    "cas_no": "21293-29-8",
    "key_name": "Abscisic acid",
    "cn_name": "(+)-脱落酸;(S)-5-(1-羟基-4-氧代-2,6,6-三甲基-2-环己烯-1-基)-3-甲基-(2Z,4E)-戊二烯酸;",
    "alternate_name": "2,4-Pentadienoic acid, 5-[(1<em>S</em>)-1-hydroxy-2,6,6-trimethyl-4-oxo-2-cyclohexen-1-yl]-3-methyl-, (2<em>Z</em>,4<em>E</em>)-;2,4-Pentadienoic acid, 5-(1-hydroxy-2,6,6-trimethyl-4-oxo-2-cyclohexen-1-yl)-3-methyl-, (<em>Z</em>,<em>E</em>)-(<em>S</em>)-(+)-;2,4-Pentadienoic acid, 5-(1-hydroxy-2,6,6-trimethyl-4-oxo-2-cyclohexen-1-yl)-3-methyl-, [<em>S</em>-(<em>Z</em>,<em>E</em>)]-;(2<em>Z</em>,4<em>E</em>)-5-[(1<em>S</em>)-1-Hydroxy-2,6,6-trimethyl-4-oxo-2-cyclohexen-1-yl]-3-methyl-2,4-pentadienoic acid;<em>cis</em>-<em>trans</em>-(+)-Abscisic acid;Abscisin II;Dormin;Abscisic acid;(+)-Abscisic acid;Abscisic acid, (+)-;2-<em>cis</em>,4-<em>trans</em>-Abscisic acid;(+)-Abscisin II;(+)-<em>cis</em>-Abscisic acid;<em>cis</em>-Abscisic acid;(<em>S</em>)-(+)-Abscisic acid;Dormin (abscission factor);ABA;<em>cis</em>,<em>trans</em>-Abscisic acid;ABK;(+)-(<em>S</em>)-Abscisic acid;(+)-(<em>cis</em>,<em>trans</em>)-Abscisic acid;(<em>S</em>)-(+)-ABA;(+)-ABA;PBI 58;(<em>S</em>)-ABA;NSC 146877;NSC 148832;(<em>Z</em>,<em>E</em>)-Abscisic acid;ProTone;MeSH ID: D000040",
    "duplicated_cas_no": "11010-88-1;11027-12-6;11038-32-7;14488-90-5;16669-24-2;18463-18-8;22330-12-7;34612-56-1",
    "SMILES": "C(=C/C(=C\\C(O)=O)/C)\\[C@]1(O)C(C)(C)CC(=O)C=C1C",
    "meta_data": {
        "InChI": "InChI=1S/C15H20O4/c1-10(7-13(17)18)5-6-15(19)11(2)8-12(16)9-14(15,3)4/h5-8,19H,9H2,1-4H3,(H,17,18)/b6-5+,10-7-/t15-/m1/s1",
        "InChIKey": null,
        "Canonical SMILES": "O=C(O)C=C(C=CC1(O)C(=CC(=O)CC1(C)C)C)C",
        "Molecular Formula": "C<sub>15</sub>H<sub>20</sub>O<sub>4</sub>",
        "Molecular Mass": "264.32",
        "Melting Point": "160 °C"
    }
}