{
    "cas_no": "2445-80-9",
    "key_name": "7,8-Dimethoxycoumarin",
    "cn_name": null,
    "alternate_name": "2<em>H</em>-1-Benzopyran-2-one, 7,8-dimethoxy-;Coumarin, 7,8-dimethoxy-;7,8-Dimethoxy-2<em>H</em>-1-benzopyran-2-one;Daphnetin dimethyl ether;7,8-Dimethoxycoumarin",
    "duplicated_cas_no": "",
    "SMILES": "O(C)C1=C2C(=CC=C1OC)C=CC(=O)O2",
    "meta_data": {
        "InChI": "InChI=1S/C11H10O4/c1-13-8-5-3-7-4-6-9(12)15-10(7)11(8)14-2/h3-6H,1-2H3",
        "InChIKey": null,
        "Canonical SMILES": "O=C1OC=2C(OC)=C(OC)C=CC2C=C1",
        "Molecular Formula": "C<sub>11</sub>H<sub>10</sub>O<sub>4</sub>",
        "Molecular Mass": "206.19",
        "Melting Point": "118-119 °C"
    }
}