{
    "cas_no": "584-08-7",
    "key_name": "Potassium carbonate",
    "cn_name": "碳酸钾;",
    "alternate_name": "Carbonic acid, potassium salt (1:2);Potassium carbonate (K<sub>2</sub>CO<sub>3</sub>);Carbonic acid, dipotassium salt;Pearl ash;Potassium carbonate (K<sub>2</sub>(CO<sub>3</sub>));Dipotassium carbonate;Potassium carbonate (2:1);Potash;Potassium carbonate;Salt of tartar;Sorb KX 35;FG;DCAD Plus;CLIMB;PX 1390-1;EF 80;LH 90",
    "duplicated_cas_no": "30095-94-4;1643774-52-0;2976383-45-4",
    "SMILES": "C(=O)(O)O.[K]",
    "meta_data": {
        "InChI": "InChI=1S/CH2O3.2K/c2-1(3)4;;/h(H2,2,3,4);;",
        "InChIKey": null,
        "Canonical SMILES": "[K].O=C(O)O",
        "Molecular Formula": "CH<sub>2</sub>O<sub>3</sub>.2K",
        "Molecular Mass": "",
        "Melting Point": "891 °C",
        "Density": "2.29 g/cm³"
    }
}