{
    "cas_no": "589-59-3",
    "key_name": "Isobutyl isovalerate",
    "cn_name": "异戊酸异丁酯;3-甲基丁酸2-甲基丙酯;",
    "alternate_name": "Butanoic acid, 3-methyl-, 2-methylpropyl ester;Isovaleric acid, isobutyl ester;Isobutyl isovalerate;2-Methylpropyl 3-methylbutyrate;2-Methylpropyl isovalerate;Isobutyl 3-methylbutyrate;Isobutyl isopentanoate;2-Methylpropyl 3-methylbutanoate;Isobutyl 3-methylbutanoate;NSC 6993",
    "duplicated_cas_no": "",
    "SMILES": "C(OCC(C)C)(CC(C)C)=O",
    "meta_data": {
        "InChI": "InChI=1S/C9H18O2/c1-7(2)5-9(10)11-6-8(3)4/h7-8H,5-6H2,1-4H3",
        "InChIKey": null,
        "Canonical SMILES": "O=C(OCC(C)C)CC(C)C",
        "Molecular Formula": "C<sub>9</sub>H<sub>18</sub>O<sub>2</sub>",
        "Molecular Mass": "158.24",
        "Boiling Point": "168.5 °C",
        "Melting Point": "110 °C"
    }
}