{
    "cas_no": "354-08-5",
    "key_name": "2-Bromo-2,2-difluoroacetic acid",
    "cn_name": "二氟溴乙酸;",
    "alternate_name": "Acetic acid, 2-bromo-2,2-difluoro-;Acetic acid, bromodifluoro-;2-Bromo-2,2-difluoroacetic acid;Bromodifluoroacetic acid",
    "duplicated_cas_no": "",
    "SMILES": "C(C(O)=O)(Br)(F)F",
    "meta_data": {
        "InChI": "InChI=1S/C2HBrF2O2/c3-2(4,5)1(6)7/h(H,6,7)",
        "InChIKey": null,
        "Canonical SMILES": "O=C(O)C(F)(F)Br",
        "Molecular Formula": "C<sub>2</sub>HBrF<sub>2</sub>O<sub>2</sub>",
        "Molecular Mass": "174.93",
        "Boiling Point": "155-160 °C",
        "Melting Point": "112-113 °C"
    }
}