{
    "cas_no": "78246-49-8",
    "key_name": "Paroxetine hydrochloride",
    "cn_name": "盐酸帕罗西汀;(-)-反式-4-(4-氟苯基)-3-{[3,4-(亚甲二氧基)苯氧基]甲基}-哌啶盐酸盐;",
    "alternate_name": "Piperidine, 3-[(1,3-benzodioxol-5-yloxy)methyl]-4-(4-fluorophenyl)-, hydrochloride (1:1), (3<em>S</em>,4<em>R</em>)-;Piperidine, 3-[(1,3-benzodioxol-5-yloxy)methyl]-4-(4-fluorophenyl)-, hydrochloride, (3<em>S</em>-<em>trans</em>)-;Piperidine, 3-[(1,3-benzodioxol-5-yloxy)methyl]-4-(4-fluorophenyl)-, hydrochloride, (3<em>S</em>,4<em>R</em>)-;Paroxetine hydrochloride;BRL 29060 hydrochloride;BRL 29060A;Paxil;(-)-<em>trans</em>-4-(4-Fluorophenyl)-3-(3,4-methylenedioxyphenoxymethyl)piperidine hydrochloride;Seroxat;Aropax 20;Tagonis;Deroxat;Paroxet;Xanadol",
    "duplicated_cas_no": "172501-13-2",
    "SMILES": "C(OC=1C=C2C(=CC1)OCO2)[C@H]3[C@@H](CCNC3)C4=CC=C(F)C=C4.Cl",
    "meta_data": {
        "InChI": "InChI=1S/C19H20FNO3.ClH/c20-15-3-1-13(2-4-15)17-7-8-21-10-14(17)11-22-16-5-6-18-19(9-16)24-12-23-18;/h1-6,9,14,17,21H,7-8,10-12H2;1H/t14-,17-;/m0./s1",
        "InChIKey": null,
        "Canonical SMILES": "Cl.FC1=CC=C(C=C1)C2CCNCC2COC3=CC=C4OCOC4=C3",
        "Molecular Formula": "C<sub>19</sub>H<sub>20</sub>FNO<sub>3</sub>.ClH",
        "Molecular Mass": "",
        "Melting Point": "120-133 °C"
    }
}