{
    "cas_no": "50329-91-4",
    "key_name": "4-Chloro-3-formylcoumarin",
    "cn_name": "4-氯-3-甲酰基香豆素;",
    "alternate_name": "2<em>H</em>-1-Benzopyran-3-carboxaldehyde, 4-chloro-2-oxo-;4-Chloro-2-oxo-2<em>H</em>-1-benzopyran-3-carboxaldehyde;4-Chloro-3-formylcoumarin;4-Chlorocoumarin-3-carboxaldehyde;4-Chloro-2-oxo-2<em>H</em>-chromene-3-carbaldehyde;3-Formyl-4-chlorocoumarin;4-Chloro-2-oxo-2<em>H</em>-chromene-3-carboxaldehyde",
    "duplicated_cas_no": "",
    "SMILES": "ClC=1C=2C(OC(=O)C1C=O)=CC=CC2",
    "meta_data": {
        "InChI": "InChI=1S/C10H5ClO3/c11-9-6-3-1-2-4-8(6)14-10(13)7(9)5-12/h1-5H",
        "InChIKey": null,
        "Canonical SMILES": "O=CC=1C(=O)OC=2C=CC=CC2C1Cl",
        "Molecular Formula": "C<sub>10</sub>H<sub>5</sub>ClO<sub>3</sub>",
        "Molecular Mass": "208.60",
        "Melting Point": "115-120 °C"
    }
}