{
    "cas_no": "57981-02-9",
    "key_name": "<em>o</em>-(2,3,4,5,6-Pentafluorobenzyl)hydroxylamine hydrochloride",
    "cn_name": "O-(2,3,4,5,6-五氟苄基)羟胺盐酸盐;邻-(2,3,4,5,6-全氟苯基)羟基氨盐酸盐;",
    "alternate_name": "Hydroxylamine, <em>O</em>-[(2,3,4,5,6-pentafluorophenyl)methyl]-, hydrochloride (1:1);Hydroxylamine, <em>O</em>-[(pentafluorophenyl)methyl]-, hydrochloride;2,3,4,5,6-Pentafluorobenzyloxyamine hydrochloride;Pentafluorobenzyloxyamine hydrochloride;<em>O</em>-[(2,3,4,5,6-Pentafluorophenyl)methyl]hydroxylamine hydrochloride;<em>O</em>-(Pentafluorobenzyl)hydroxylamine hydrochloride;<em>o</em>-(2,3,4,5,6-Pentafluorobenzyl)hydroxylamine hydrochloride;<em>N</em>-[(2,3,4,5,6-Pentafluorobenzyl)oxy]amine hydrochloride;<em>O</em>-(Pentafluorobenzyl)hydroxyamine hydrochloride;((Perfluorophenyl)methoxy)amine hydrochloride",
    "duplicated_cas_no": "84592-12-1",
    "SMILES": "C(ON)C1=C(F)C(F)=C(F)C(F)=C1F.Cl",
    "meta_data": {
        "InChI": "InChI=1S/C7H4F5NO.ClH/c8-3-2(1-14-13)4(9)6(11)7(12)5(3)10;/h1,13H2;1H",
        "InChIKey": null,
        "Canonical SMILES": "Cl.FC=1C(F)=C(F)C(=C(F)C1F)CON",
        "Molecular Formula": "C<sub>7</sub>H<sub>4</sub>F<sub>5</sub>NO.ClH",
        "Molecular Mass": "",
        "Melting Point": "227 °C"
    }
}