{
    "cas_no": "540-09-0",
    "key_name": "12-Tricosanone",
    "cn_name": "12-二十三酮;",
    "alternate_name": "12-Tricosanone;Laurone;Undecyl ketone;Diundecyl ketone;Lauron;NSC 2200",
    "duplicated_cas_no": "",
    "SMILES": "C(CCCCCCCCCCC)(CCCCCCCCCCC)=O",
    "meta_data": {
        "InChI": "InChI=1S/C23H46O/c1-3-5-7-9-11-13-15-17-19-21-23(24)22-20-18-16-14-12-10-8-6-4-2/h3-22H2,1-2H3",
        "InChIKey": null,
        "Canonical SMILES": "O=C(CCCCCCCCCCC)CCCCCCCCCCC",
        "Molecular Formula": "C<sub>23</sub>H<sub>46</sub>O",
        "Molecular Mass": "338.61",
        "Melting Point": "70.2 °C",
        "Density": "0.866 g/cm³ @ Temp: 12 °C"
    }
}