{
    "cas_no": "629-89-0",
    "key_name": "1-Octadecyne",
    "cn_name": "正十八炔;1-十八炔;",
    "alternate_name": "1-Octadecyne",
    "duplicated_cas_no": "",
    "SMILES": "C(CCCCCCCC#C)CCCCCCCC",
    "meta_data": {
        "InChI": "InChI=1S/C18H34/c1-3-5-7-9-11-13-15-17-18-16-14-12-10-8-6-4-2/h1H,4-18H2,2H3",
        "InChIKey": null,
        "Canonical SMILES": "C#CCCCCCCCCCCCCCCCC",
        "Molecular Formula": "C<sub>18</sub>H<sub>34</sub>",
        "Molecular Mass": "250.46",
        "Boiling Point": "313 °C",
        "Melting Point": "22.5 °C"
    }
}