{
    "cas_no": "6443-72-7",
    "key_name": "3-(3,4-Dimethoxyphenyl)-2-propenenitrile",
    "cn_name": "3,4-二甲氧基肉桂酸;",
    "alternate_name": "2-Propenenitrile, 3-(3,4-dimethoxyphenyl)-;Cinnamonitrile, 3,4-dimethoxy-;3-(3,4-Dimethoxyphenyl)-2-propenenitrile;β-(3,4-Dimethoxyphenyl)acrylonitrile;NSC 51968",
    "duplicated_cas_no": "",
    "SMILES": "O(C)C1=C(OC)C=CC(C=CC#N)=C1",
    "meta_data": {
        "InChI": "InChI=1S/C11H11NO2/c1-13-10-6-5-9(4-3-7-12)8-11(10)14-2/h3-6,8H,1-2H3",
        "InChIKey": null,
        "Canonical SMILES": "N#CC=CC1=CC=C(OC)C(OC)=C1",
        "Molecular Formula": "C<sub>11</sub>H<sub>11</sub>NO<sub>2</sub>",
        "Molecular Mass": "189.21",
        "Boiling Point": "172-178 °C @ Press: 4 Torr",
        "Melting Point": "98 °C"
    }
}