{
    "cas_no": "19171-19-8",
    "key_name": "Pomalidomide",
    "cn_name": "Pomalidomide;3-氨基-N-(2,6-二氧代-3-哌啶基)邻苯二甲酰亚胺;",
    "alternate_name": "1<em>H</em>-Isoindole-1,3(2<em>H</em>)-dione, 4-amino-2-(2,6-dioxo-3-piperidinyl)-;Phthalimide, 3-amino-<em>N</em>-(2,6-dioxo-3-piperidyl)-;4-Amino-2-(2,6-dioxo-3-piperidinyl)-1<em>H</em>-isoindole-1,3(2<em>H</em>)-dione;4-Amino-2-(2,6-dioxo-3-piperidyl)isoindoline-1,3-dione;CC 4047;Actimid;4-Amino-2-(2,6-dioxo-3-piperidinyl)isoindole-1,3-dione;Pomalidomide;4-Amino-2-(2,6-dioxopiperidine-3-yl)isoindoline-1,3-dione;2-(2,6-Dioxopiperidin-3-yl)-4-amino-isoindole-1,3-dione;4-Amino-2-(2,6-dioxopiperidin-3-yl)isoindoline-1,3-dione;Pomalyst;Imnovid",
    "duplicated_cas_no": "443912-23-0;443919-33-3",
    "SMILES": "O=C1N(C(=O)C=2C1=CC=CC2N)C3C(=O)NC(=O)CC3",
    "meta_data": {
        "InChI": "InChI=1S/C13H11N3O4/c14-7-3-1-2-6-10(7)13(20)16(12(6)19)8-4-5-9(17)15-11(8)18/h1-3,8H,4-5,14H2,(H,15,17,18)",
        "InChIKey": null,
        "Canonical SMILES": "O=C1C=2C=CC=C(N)C2C(=O)N1C3C(=O)NC(=O)CC3",
        "Molecular Formula": "C<sub>13</sub>H<sub>11</sub>N<sub>3</sub>O<sub>4</sub>",
        "Molecular Mass": "273.24",
        "Melting Point": "&gt;250 °C"
    }
}