{
    "cas_no": "509-34-2",
    "key_name": "Solvent Red 49",
    "cn_name": "溶剂红49;油溶红49;",
    "alternate_name": "Spiro[isobenzofuran-1(3<em>H</em>),9′-[9<em>H</em>]xanthen]-3-one, 3′,6′-bis(diethylamino)-;Fluoran, 3′,6′-bis(diethylamino)-;C.I. Solvent Red 49;3′,6′-Bis(diethylamino)spiro[isobenzofuran-1(3<em>H</em>),9′-[9<em>H</em>]xanthen]-3-one;Rhodamine B lactone;Rhodamine B base;Aizen Rhodamine B Base;Certiqual Rhodamine;Eljon Magenta Toner;Fast Oil Pink B;Lacquer Pink S;Rhodamine B Extra Base;Waxoline Rhodamine B;Waxoline Rhodamine BS;Rhodamine Base B Extra;Solvent Red 49;Rhodamine B Base Extra;Rhodamine S lactone;3′,6′-Bis(diethylamino)-3-oxospiro[isobenzofuran-1(3<em>H</em>),9′-[9<em>H</em>]xanthene];Oil Pink 312;Orient Oil Pink 312;Rhodamine S (Russian), lactone;Rhodamine Base FB;Baso Red 546;Neptune Red Base 543;Baso Red NB 546;Aizen SOT Pink 1;Rhodamine Base B;Oil Pink 330;Orient Pink 312;NSC 43944;Neptune Red Base NB 543LD;Oil Red 312;Orient Oil Red 312;Vali Fast Pink 2312;3′,6′-Bis(diethylamino)spiro[2-benzofuran-3,9′-xanthene]-1-one",
    "duplicated_cas_no": "1326-02-9;12262-50-9;39277-78-6",
    "SMILES": "O=C1OC2(C=3C(OC=4C2=CC=C(N(CC)CC)C4)=CC(N(CC)CC)=CC3)C=5C1=CC=CC5",
    "meta_data": {
        "InChI": "InChI=1S/C28H30N2O3/c1-5-29(6-2)19-13-15-23-25(17-19)32-26-18-20(30(7-3)8-4)14-16-24(26)28(23)22-12-10-9-11-21(22)27(31)33-28/h9-18H,5-8H2,1-4H3",
        "InChIKey": null,
        "Canonical SMILES": "O=C1OC2(C3=CC=C(C=C3OC4=CC(=CC=C42)N(CC)CC)N(CC)CC)C=5C=CC=CC15",
        "Molecular Formula": "C<sub>28</sub>H<sub>30</sub>N<sub>2</sub>O<sub>3</sub>",
        "Molecular Mass": "442.55",
        "Melting Point": "73-75 °C"
    }
}