{
    "cas_no": "3720-16-9",
    "key_name": "Celery ketone",
    "cn_name": "芹菜酮;3-甲基-5-丙基-2-环己烯-1-酮;",
    "alternate_name": "2-Cyclohexen-1-one, 3-methyl-5-propyl-;3-Methyl-5-propyl-2-cyclohexen-1-one;Livescone;3-Methyl-5-propyl-2-cyclohexene-1-one;Celery ketone;3-Methyl-5-propyl-2-cyclohexenone",
    "duplicated_cas_no": "",
    "SMILES": "C(CC)C1CC(C)=CC(=O)C1",
    "meta_data": {
        "InChI": "InChI=1S/C10H16O/c1-3-4-9-5-8(2)6-10(11)7-9/h6,9H,3-5,7H2,1-2H3",
        "InChIKey": null,
        "Canonical SMILES": "O=C1C=C(C)CC(C1)CCC",
        "Molecular Formula": "C<sub>10</sub>H<sub>16</sub>O",
        "Molecular Mass": "152.23",
        "Boiling Point": "110-113 °C @ Press: 9 Torr"
    }
}