{
    "cas_no": "23779-32-0",
    "key_name": "Ureidopropyltriethoxysilane",
    "cn_name": "gamma-脲丙基三乙氧基硅烷;",
    "alternate_name": "Urea, <em>N</em>-[3-(triethoxysilyl)propyl]-;Urea, [3-(triethoxysilyl)propyl]-;<em>N</em>-[3-(Triethoxysilyl)propyl]urea;Y 5650;Triethoxy(γ-ureidopropyl)silane;A 1160;(γ-Ureidopropyl)triethoxysilane;Ureidopropyltriethoxysilane;<em>N</em>-(Triethoxysilylpropyl)urea;AY 43-031;KBE 585;NUC-A 1160;[3-(Triethoxysilyl)propyl]urea;SIU 9055.0;NUC Silicone A 1160;3-Ureidopropyltriethoxysilane;Z 6676;Dynasylan 2201EQ;1-[3-(Triethoxysilyl)propyl]urea;Silquest A 1160;UCT 801;LT 1160;Z 6675;KH 1161;KBE 585A;Z 6119;GX 1160",
    "duplicated_cas_no": "872006-13-8;2781124-94-3",
    "SMILES": "[Si](CCCNC(N)=O)(OCC)(OCC)OCC",
    "meta_data": {
        "InChI": "InChI=1S/C10H24N2O4Si/c1-4-14-17(15-5-2,16-6-3)9-7-8-12-10(11)13/h4-9H2,1-3H3,(H3,11,12,13)",
        "InChIKey": null,
        "Canonical SMILES": "O=C(N)NCCC[Si](OCC)(OCC)OCC",
        "Molecular Formula": "C<sub>10</sub>H<sub>24</sub>N<sub>2</sub>O<sub>4</sub>Si",
        "Molecular Mass": "264.39",
        "Melting Point": "-97 °C",
        "Density": "0.920 g/cm³"
    }
}