{
    "cas_no": "144-67-2",
    "key_name": "Zeaxanthin dipalmitate",
    "cn_name": null,
    "alternate_name": "β,β-Carotene-3,3′-diol, 3,3′-dihexadecanoate, (3<em>R</em>,3′<em>R</em>)-;β-Carotene-3,3′-diol, dipalmitate, <em>all</em>-<em>trans</em>-;β,β-Carotene-3,3′-diol, dihexadecanoate, (3<em>R</em>,3′<em>R</em>)-;Zeaxanthin dipalmitate;Physalien;Physalien, <em>all</em>-<em>trans</em>-;Physaliene;<em>all</em>-<em>trans</em>-Physalien;(3<em>R</em>,3′<em>R</em>)-β-Carotene-3,3′-diyl dipalmitate;(<em>all</em>-<em>E</em>)-Zeaxanthin dipalmitate",
    "duplicated_cas_no": "19902-81-9;28765-34-6;258833-02-2",
    "SMILES": "C(=C/C(=C/C=C/C(=C/C=C/C=C(/C=C/C=C(/C=C/C=1C(C)(C)C[C@H](OC(CCCCCCCCCCCCCCC)=O)CC1C)\\C)\\C)/C)/C)\\C=2C(C)(C)C[C@H](OC(CCCCCCCCCCCCCCC)=O)CC2C",
    "meta_data": {
        "InChI": "InChI=1S/C72H116O4/c1-13-15-17-19-21-23-25-27-29-31-33-35-37-49-69(73)75-65-55-63(7)67(71(9,10)57-65)53-51-61(5)47-41-45-59(3)43-39-40-44-60(4)46-42-48-62(6)52-54-68-64(8)56-66(58-72(68,11)12)76-70(74)50-38-36-34-32-30-28-26-24-22-20-18-16-14-2/h39-48,51-54,65-66H,13-38,49-50,55-58H2,1-12H3/b40-39+,45-41+,46-42+,53-51+,54-52+,59-43+,60-44+,61-47+,62-48+/t65-,66-/m1/s1",
        "InChIKey": null,
        "Canonical SMILES": "O=C(OC1CC(=C(C=CC(=CC=CC(=CC=CC=C(C=CC=C(C=CC2=C(C)CC(OC(=O)CCCCCCCCCCCCCCC)CC2(C)C)C)C)C)C)C(C)(C)C1)C)CCCCCCCCCCCCCCC",
        "Molecular Formula": "C<sub>72</sub>H<sub>116</sub>O<sub>4</sub>",
        "Molecular Mass": "1045.69",
        "Melting Point": "99 °C"
    }
}