{
    "cas_no": "145438-94-4",
    "key_name": "(2<em>S</em>,3a<em>R</em>,7a<em>S</em>)-Octahydro-1<em>H</em>-indole-2-carboxylic acid",
    "cn_name": "(2S,3aR,7aS)-1H-八氢吲哚-2-羧酸;",
    "alternate_name": "1<em>H</em>-Indole-2-carboxylic acid, octahydro-, (2<em>S</em>,3a<em>R</em>,7a<em>S</em>)-;1<em>H</em>-Indole-2-carboxylic acid, octahydro-, [2<em>S</em>-(2α,3aα,7aβ)]-;(2<em>S</em>,3a<em>R</em>,7a<em>S</em>)-Octahydro-1<em>H</em>-indole-2-carboxylic acid;(2S,3AR,7aS)-octahydroindole-2-carboxylic acid",
    "duplicated_cas_no": "",
    "SMILES": "C(O)(=O)[C@@H]1C[C@@]2([C@@](N1)(CCCC2)[H])[H]",
    "meta_data": {
        "InChI": "InChI=1S/C9H15NO2/c11-9(12)8-5-6-3-1-2-4-7(6)10-8/h6-8,10H,1-5H2,(H,11,12)/t6-,7+,8+/m1/s1",
        "InChIKey": null,
        "Canonical SMILES": "O=C(O)C1NC2CCCCC2C1",
        "Molecular Formula": "C<sub>9</sub>H<sub>15</sub>NO<sub>2</sub>",
        "Molecular Mass": "169.22",
        "Melting Point": "211-212 °C"
    }
}