{
    "cas_no": "79-04-9",
    "key_name": "Chloroacetyl chloride",
    "cn_name": "氯乙酰氯;",
    "alternate_name": "Acetyl chloride, 2-chloro-;Acetyl chloride, chloro-;2-Chloroacetyl chloride;Chloroacetyl chloride;Chloracetyl chloride;Monochloroacetyl chloride;Chloroacetic chloride;Chloroacetic acid chloride;Chloroethanoyl chloride;α-Chloroacetic chloride;9: PN: WO2007101224 PAGE: 36 claimed sequence;Chloro (chloromethyl) ketone",
    "duplicated_cas_no": "1256778-77-4",
    "SMILES": "C(CCl)(Cl)=O",
    "meta_data": {
        "InChI": "InChI=1S/C2H2Cl2O/c3-1-2(4)5/h1H2",
        "InChIKey": null,
        "Canonical SMILES": "O=C(Cl)CCl",
        "Molecular Formula": "C<sub>2</sub>H<sub>2</sub>Cl<sub>2</sub>O",
        "Molecular Mass": "112.94",
        "Boiling Point": "106 °C",
        "Melting Point": "-21.77 °C",
        "Density": "1.4202 g/cm³ @ Temp: 20 °C"
    }
}