{
    "cas_no": "3882-98-2",
    "key_name": "2-Thiazolamine, 4,5-dihydro-, hydrochloride (1:1)",
    "cn_name": "2-氨基-2-噻唑啉盐酸盐;",
    "alternate_name": "2-Thiazolamine, 4,5-dihydro-, hydrochloride (1:1);2-Thiazolamine, 4,5-dihydro-, monohydrochloride;Thiazolidine, 2-imino-, hydrochloride;2-Amino-1,3-thiazoline monohydrochloride;4,5-Dihydrothiazol-2-amine monohydrochloride;2-Amino-2-thiazoline hydrochloride",
    "duplicated_cas_no": "",
    "SMILES": "NC1=NCCS1.Cl",
    "meta_data": {
        "InChI": "InChI=1S/C3H6N2S.ClH/c4-3-5-1-2-6-3;/h1-2H2,(H2,4,5);1H",
        "InChIKey": null,
        "Canonical SMILES": "Cl.N1=C(SCC1)N",
        "Molecular Formula": "C<sub>3</sub>H<sub>6</sub>N<sub>2</sub>S.ClH",
        "Molecular Mass": "",
        "Melting Point": "198 °C"
    }
}