{
    "cas_no": "406-76-8",
    "key_name": "(±)-Carnitine",
    "cn_name": "DL-肉碱;",
    "alternate_name": "1-Propanaminium, 3-carboxy-2-hydroxy-<em>N</em>,<em>N</em>,<em>N</em>-trimethyl-, inner salt;Ammonium, (3-carboxy-2-hydroxypropyl)trimethyl-, hydroxide, inner salt, <span class=\"text-smallcaps\">DL</span>-;1-Propanaminium, 3-carboxy-2-hydroxy-<em>N</em>,<em>N</em>,<em>N</em>-trimethyl-, hydroxide, inner salt, (±)-;(±)-Carnitine;<span class=\"text-smallcaps\">DL</span>-Carnitine;<em>dl</em>-Carnitine;γ-Amino-β-hydroxybutyric acid trimethylbetaine;Excitine;β-Hydroxy-γ-trimethylaminobutyric acid;Novaine;γ-Trimethyl-β-hydroxybutyrobetaine;Carnitin;Novain;Carnicor;Carnum;3-Hydroxy-4-trimethylammoniobutanoate;Miocor;Carrier;Cardiogen;Vitacarn;Miotonal;(±)-(3-Carboxy-2-hydroxypropyl)trimethylammonium hydroxide;3-Hydroxy-4-(trimethylazaniumyl)butanoate;CID 85",
    "duplicated_cas_no": "122195-30-6;461-06-3;15183-21-8",
    "SMILES": "C([N+](C)(C)C)C(CC([O-])=O)O",
    "meta_data": {
        "InChI": "InChI=1S/C7H15NO3/c1-8(2,3)5-6(9)4-7(10)11/h6,9H,4-5H2,1-3H3",
        "InChIKey": null,
        "Canonical SMILES": "O=C([O-])CC(O)C[N+](C)(C)C",
        "Molecular Formula": "C<sub>7</sub>H<sub>15</sub>NO<sub>3</sub>",
        "Molecular Mass": "",
        "Melting Point": "197-198 °C (decomp)"
    }
}