{
    "cas_no": "109-99-9",
    "key_name": "Tetrahydrofuran",
    "cn_name": "四氢呋喃;氧戊环;",
    "alternate_name": "Furan, tetrahydro-;Tetrahydrofuran;Butane, 1,4-epoxy-;Butane α,δ-oxide;Cyclotetramethylene oxide;Furanidine;Oxacyclopentane;Oxolane;Tetramethylene oxide;THF;NSC 57858;2,3,4,5-Tetrahydrofuran;EKOS 1 (solvent);T 103262",
    "duplicated_cas_no": "77392-70-2",
    "SMILES": "C1CCOC1",
    "meta_data": {
        "InChI": "InChI=1S/C4H8O/c1-2-4-5-3-1/h1-4H2",
        "InChIKey": null,
        "Canonical SMILES": "O1CCCC1",
        "Molecular Formula": "C<sub>4</sub>H<sub>8</sub>O",
        "Molecular Mass": "72.11",
        "Boiling Point": "65 °C @ Press: 760 Torr",
        "Melting Point": "-108.3 °C",
        "Density": "0.8892 g/cm³ @ Temp: 20 °C"
    }
}