{
    "cas_no": "425386-60-3",
    "key_name": "Semagacestat",
    "cn_name": "司马西特;(2S)-2-羟基-3-甲基-N-[(1S)-1-甲基-2-氧代-2-[[(1S)-2,3,4,5-四氢-3-甲基-2-氧代-1H-3-苯并氮杂;",
    "alternate_name": "Butanamide, 2-hydroxy-3-methyl-<em>N</em>-[(1<em>S</em>)-1-methyl-2-oxo-2-[[(1<em>S</em>)-2,3,4,5-tetrahydro-3-methyl-2-oxo-1<em>H</em>-3-benzazepin-1-yl]amino]ethyl]-, (2<em>S</em>)-;(2<em>S</em>)-2-Hydroxy-3-methyl-<em>N</em>-[(1<em>S</em>)-1-methyl-2-oxo-2-[[(1<em>S</em>)-2,3,4,5-tetrahydro-3-methyl-2-oxo-1<em>H</em>-3-benzazepin-1-yl]amino]ethyl]butanamide;LY 450139;Semagacestat;LY 450149",
    "duplicated_cas_no": "866488-53-1;1644443-23-1",
    "SMILES": "N(C([C@@H](NC([C@H](C(C)C)O)=O)C)=O)[C@H]1C=2C(CCN(C)C1=O)=CC=CC2",
    "meta_data": {
        "InChI": "InChI=1S/C19H27N3O4/c1-11(2)16(23)18(25)20-12(3)17(24)21-15-14-8-6-5-7-13(14)9-10-22(4)19(15)26/h5-8,11-12,15-16,23H,9-10H2,1-4H3,(H,20,25)(H,21,24)/t12-,15-,16-/m0/s1",
        "InChIKey": null,
        "Canonical SMILES": "O=C(NC(C(=O)NC1C(=O)N(C)CCC=2C=CC=CC21)C)C(O)C(C)C",
        "Molecular Formula": "C<sub>19</sub>H<sub>27</sub>N<sub>3</sub>O<sub>4</sub>",
        "Molecular Mass": "361.44",
        "Melting Point": "208-212 °C"
    }
}