{
    "cas_no": "950-81-2",
    "key_name": "4-Formylantipyrine",
    "cn_name": null,
    "alternate_name": "1<em>H</em>-Pyrazole-4-carboxaldehyde, 2,3-dihydro-1,5-dimethyl-3-oxo-2-phenyl-;Antipyraldehyde;2,3-Dihydro-1,5-dimethyl-3-oxo-2-phenyl-1<em>H</em>-pyrazole-4-carboxaldehyde;2,3-Dimethyl-4-formyl-1-phenyl-5-pyrazolone;4-Formylantipyrine;4-Antipyrinecarboxaldehyde;2,3-Dimethyl-5-oxo-1-phenyl-3-pyrazoline-4-carboxaldehyde;4-Formyl-2,3-dimethyl-1-phenyl-3-pyrazoline-5-one;4-Formyl-2,3-dimethyl-1-phenyl-3-pyrazolin-5-one;NSC 60408;1,5-Dimethyl-3-oxo-2-phenyl-2,3-dihydro-1<em>H</em>-pyrazole-4-carboxaldehyde;1,5-Dimethyl-3-oxo-2-phenylpyrazole-4-carbaldehyde;1,5-Dimethyl-3-oxo-2-phenyl-2,3-dihydro-1<em>H</em>-pyrazole-4-carbaldehyde",
    "duplicated_cas_no": "",
    "SMILES": "O=C1N(N(C)C(C)=C1C=O)C2=CC=CC=C2",
    "meta_data": {
        "InChI": "InChI=1S/C12H12N2O2/c1-9-11(8-15)12(16)14(13(9)2)10-6-4-3-5-7-10/h3-8H,1-2H3",
        "InChIKey": null,
        "Canonical SMILES": "O=CC=1C(=O)N(C=2C=CC=CC2)N(C1C)C",
        "Molecular Formula": "C<sub>12</sub>H<sub>12</sub>N<sub>2</sub>O<sub>2</sub>",
        "Molecular Mass": "216.24",
        "Melting Point": "161 °C"
    }
}