{
    "cas_no": "695-06-7",
    "key_name": "γ-Hexalactone",
    "cn_name": null,
    "alternate_name": "2(3<em>H</em>)-Furanone, 5-ethyldihydro-;Hexanoic acid, 4-hydroxy-, γ-lactone;Hexanoic acid, 4-hydroxy-, lactone;Caproic acid, γ-hydroxy-, lactone;5-Ethyldihydro-2(3<em>H</em>)-furanone;γ-Caprolactone;γ-Hexalactone;γ-Ethyl-γ-butyrolactone;γ-Ethylbutyrolactone;4-Hydroxyhexanoic acid lactone;γ-Hexanolactone;6-Caprolactone;4-Ethyl-4-butanolide;4-Hexanolide;γ-Hexanolide;5-Ethyltetrahydro-2-furanone;(±)-γ-Ethyl-γ-butyrolactone;(±)-4-Ethylbutyrolactone;(<em>RS</em>)-γ-Hexalactone;(±)-γ-Hexalactone;NSC 134769;NSC 24255",
    "duplicated_cas_no": "57129-70-1",
    "SMILES": "C(C)C1OC(=O)CC1",
    "meta_data": {
        "InChI": "InChI=1S/C6H10O2/c1-2-5-3-4-6(7)8-5/h5H,2-4H2,1H3",
        "InChIKey": null,
        "Canonical SMILES": "O=C1OC(CC)CC1",
        "Molecular Formula": "C<sub>6</sub>H<sub>10</sub>O<sub>2</sub>",
        "Molecular Mass": "114.14",
        "Boiling Point": "215.5 °C",
        "Melting Point": "-18 °C",
        "Density": "1.027 g/cm³ @ Temp: 20 °C"
    }
}