{
    "cas_no": "58493-50-8",
    "key_name": "<em>N</em>-[(4-Hydroxy-3-methoxyphenyl)methyl]octadecanamide",
    "cn_name": null,
    "alternate_name": "Octadecanamide, <em>N</em>-[(4-hydroxy-3-methoxyphenyl)methyl]-;<em>N</em>-[(4-Hydroxy-3-methoxyphenyl)methyl]octadecanamide;<em>N</em>-Vanillyloctadecanamide",
    "duplicated_cas_no": "875336-23-5;1082686-79-0",
    "SMILES": "C(NC(CCCCCCCCCCCCCCCCC)=O)C1=CC(OC)=C(O)C=C1",
    "meta_data": {
        "InChI": "InChI=1S/C26H45NO3/c1-3-4-5-6-7-8-9-10-11-12-13-14-15-16-17-18-26(29)27-22-23-19-20-24(28)25(21-23)30-2/h19-21,28H,3-18,22H2,1-2H3,(H,27,29)",
        "InChIKey": null,
        "Canonical SMILES": "O=C(NCC1=CC=C(O)C(OC)=C1)CCCCCCCCCCCCCCCCC",
        "Molecular Formula": "C<sub>26</sub>H<sub>45</sub>NO<sub>3</sub>",
        "Molecular Mass": "419.64",
        "Melting Point": "94.5-95 °C"
    }
}