{
    "cas_no": "3674-54-2",
    "key_name": "1-Butanaminium, <em>N</em>,<em>N</em>,<em>N</em>-tributyl-, thiocyanate (1:1)",
    "cn_name": "硫氰酸四丁基铵;",
    "alternate_name": "1-Butanaminium, <em>N</em>,<em>N</em>,<em>N</em>-tributyl-, thiocyanate (1:1);Ammonium, tetrabutyl-, thiocyanate;1-Butanaminium, <em>N</em>,<em>N</em>,<em>N</em>-tributyl-, thiocyanate;Tetrabutylammonium thiocyanate;Tetrabutylammonium rhodanide;Tetrabutylammonium isothiocyanide;Tetrabutylammonium isothiocyanate;Tetra-<em>n</em>-butylammonium thiocyanate",
    "duplicated_cas_no": "",
    "SMILES": "[N+](CCCC)(CCCC)(CCCC)CCCC.C(#N)[S-]",
    "meta_data": {
        "InChI": "InChI=1S/C16H36N.CHNS/c1-5-9-13-17(14-10-6-2,15-11-7-3)16-12-8-4;2-1-3/h5-16H2,1-4H3;3H/q+1;/p-1",
        "InChIKey": null,
        "Canonical SMILES": "N#C[S-].CCCC[N+](CCCC)(CCCC)CCCC",
        "Molecular Formula": "C<sub>16</sub>H<sub>36</sub>N.CNS",
        "Molecular Mass": "",
        "Melting Point": "119-120 °C"
    }
}