{
    "cas_no": "2316-64-5",
    "key_name": "5-Bromo-2-hydroxybenzyl alcohol",
    "cn_name": "5-溴-2-羟基苯甲醇;",
    "alternate_name": "Benzenemethanol, 5-bromo-2-hydroxy-;Benzyl alcohol, 5-bromo-2-hydroxy-;5-Bromo-2-hydroxybenzenemethanol;5-Bromosalicyl alcohol;5-Bromosaligenin;Bromsalizol;5-Bromo-2-hydroxybenzyl alcohol;Bromosaligenin;2-Hydroxy-5-bromobenzyl alcohol;2-Hydroxymethyl-4-bromophenol;4-Bromo-2-(hydroxymethyl)phenol;NSC 13010",
    "duplicated_cas_no": "",
    "SMILES": "C(O)C1=C(O)C=CC(Br)=C1",
    "meta_data": {
        "InChI": "InChI=1S/C7H7BrO2/c8-6-1-2-7(10)5(3-6)4-9/h1-3,9-10H,4H2",
        "InChIKey": null,
        "Canonical SMILES": "BrC1=CC=C(O)C(=C1)CO",
        "Molecular Formula": "C<sub>7</sub>H<sub>7</sub>BrO<sub>2</sub>",
        "Molecular Mass": "203.03",
        "Melting Point": "113 °C"
    }
}