{
    "cas_no": "581-40-8",
    "key_name": "2,3-Dimethylnaphthalene",
    "cn_name": "2,3-二甲基萘;",
    "alternate_name": "Naphthalene, 2,3-dimethyl-;2,3-Dimethylnaphthalene;Guajen;NSC 36850",
    "duplicated_cas_no": "",
    "SMILES": "CC1=CC2=C(C=C1C)C=CC=C2",
    "meta_data": {
        "InChI": "InChI=1S/C12H12/c1-9-7-11-5-3-4-6-12(11)8-10(9)2/h3-8H,1-2H3",
        "InChIKey": null,
        "Canonical SMILES": "C=1C=CC=2C=C(C(=CC2C1)C)C",
        "Molecular Formula": "C<sub>12</sub>H<sub>12</sub>",
        "Molecular Mass": "156.22",
        "Boiling Point": "268 °C",
        "Melting Point": "105 °C"
    }
}