{
    "cas_no": "841-77-0",
    "key_name": "Benzhydrylpiperazine",
    "cn_name": "N-二苯甲基哌嗪;二苯甲基哌嗪;",
    "alternate_name": "Piperazine, 1-(diphenylmethyl)-;1-(Diphenylmethyl)piperazine;Norcyclizine;Benzhydrylpiperazine;<em>N</em>-Benzhydrylpiperazine;1-Benzhydrylpiperazine;<em>N</em>-(Diphenylmethyl)piperazine;4-(Diphenylmethyl)piperazine;4-Benzhydrylpiperazine;NSC 35536",
    "duplicated_cas_no": "",
    "SMILES": "C(C1=CC=CC=C1)(C2=CC=CC=C2)N3CCNCC3",
    "meta_data": {
        "InChI": "InChI=1S/C17H20N2/c1-3-7-15(8-4-1)17(16-9-5-2-6-10-16)19-13-11-18-12-14-19/h1-10,17-18H,11-14H2",
        "InChIKey": null,
        "Canonical SMILES": "C=1C=CC(=CC1)C(C=2C=CC=CC2)N3CCNCC3",
        "Molecular Formula": "C<sub>17</sub>H<sub>20</sub>N<sub>2</sub>",
        "Molecular Mass": "252.35",
        "Boiling Point": "189-190 °C @ Press: 1 Torr",
        "Melting Point": "70-72 °C"
    }
}