{
    "cas_no": "37777-71-2",
    "key_name": "4-Chloro-2-nitrobenzeneacetic acid",
    "cn_name": null,
    "alternate_name": "Benzeneacetic acid, 4-chloro-2-nitro-;4-Chloro-2-nitrobenzeneacetic acid;4-Chloro-2-nitrophenylacetic acid;NSC 115143;2-(4-Chloro-2-nitrophenyl)-acetic acid",
    "duplicated_cas_no": "",
    "SMILES": "C(C(O)=O)C1=C(N(=O)=O)C=C(Cl)C=C1",
    "meta_data": {
        "InChI": "InChI=1S/C8H6ClNO4/c9-6-2-1-5(3-8(11)12)7(4-6)10(13)14/h1-2,4H,3H2,(H,11,12)",
        "InChIKey": null,
        "Canonical SMILES": "O=C(O)CC1=CC=C(Cl)C=C1N(=O)=O",
        "Molecular Formula": "C<sub>8</sub>H<sub>6</sub>ClNO<sub>4</sub>",
        "Molecular Mass": "215.59",
        "Melting Point": "155 °C"
    }
}