{
    "cas_no": "2487-90-3",
    "key_name": "Trimethoxysilane",
    "cn_name": "三甲氧基硅烷;",
    "alternate_name": "Silane, trimethoxy-;Trimethoxysilane;LS 330;LMD 930;SY 2012;LT 160;03MS;T 1035 (silane);T 1035",
    "duplicated_cas_no": "",
    "SMILES": "[SiH](OC)(OC)OC",
    "meta_data": {
        "InChI": "InChI=1S/C3H10O3Si/c1-4-7(5-2)6-3/h7H,1-3H3",
        "InChIKey": null,
        "Canonical SMILES": "O(C)[SiH](OC)OC",
        "Molecular Formula": "C<sub>3</sub>H<sub>10</sub>O<sub>3</sub>Si",
        "Molecular Mass": "122.20",
        "Boiling Point": "86-87 °C @ Press: 760 Torr",
        "Melting Point": "-115 °C",
        "Density": "0.860 g/cm³"
    }
}