{
    "cas_no": "3107-19-5",
    "key_name": "1,3-Dichloro-2-fluoro-5-nitrobenzene",
    "cn_name": "3,5-二氯-4-氟硝基苯;",
    "alternate_name": "Benzene, 1,3-dichloro-2-fluoro-5-nitro-;1,3-Dichloro-2-fluoro-5-nitrobenzene;3,5-Dichloro-4-fluoronitrobenzene",
    "duplicated_cas_no": "",
    "SMILES": "N(=O)(=O)C1=CC(Cl)=C(F)C(Cl)=C1",
    "meta_data": {
        "InChI": "InChI=1S/C6H2Cl2FNO2/c7-4-1-3(10(11)12)2-5(8)6(4)9/h1-2H",
        "InChIKey": null,
        "Canonical SMILES": "O=N(=O)C1=CC(Cl)=C(F)C(Cl)=C1",
        "Molecular Formula": "C<sub>6</sub>H<sub>2</sub>Cl<sub>2</sub>FNO<sub>2</sub>",
        "Molecular Mass": "209.99",
        "Melting Point": "44 °C"
    }
}