{
    "cas_no": "75178-96-0",
    "key_name": "<em>tert</em>-Butyl (3-aminopropyl)carbamate",
    "cn_name": "N-叔丁氧羰基-1,3-丙二胺;N-(3-氨基丙基)氨基甲酸叔丁酯;",
    "alternate_name": "Carbamic acid, <em>N</em>-(3-aminopropyl)-, 1,1-dimethylethyl ester;Carbamic acid, (3-aminopropyl)-, 1,1-dimethylethyl ester;<em>N</em>-(<em>tert</em>-Butoxycarbonyl)-1,3-propanediamine;<em>N</em>-(<em>tert</em>-Butyloxycarbonyl)-1,3-propanediamine;3-[(<em>tert</em>-Butoxycarbonyl)amino]-1-propylamine;<em>N</em>-<em>tert</em>-Butoxycarbonyl-1,3-diaminopropane;1-[(<em>tert</em>-Butoxycarbonyl)amino]-3-aminopropane;<em>tert</em>-Butyl (3-aminopropyl)carbamate;<em>tert</em>-Butyl <em>N</em>-(3-aminopropyl)carbamate;3-(<em>tert</em>-Butoxycarbonylamino)propylamine;<em>N</em>-BOC-1,3-diaminopropane;3-[<em>N</em>-<em>tert</em>-Butoxycarbonylamino]propylamine;1-[(<em>tert</em>-Butoxycarbonyl)amino]-3-propylamine;<em>N</em>-(3-Aminopropyl)carbamic acid tert-butyl ester;3-Aminopropylcarbamic acid tert-butyl ester;3-Aminopropylcarbamic acid 1,1-dimethylethyl ester;<em>N</em>-(3-Aminopropyl)carbamic acid <em>tert</em>-butyl ester;<em>N</em>-BOC-1,3-propanediamine;1,1-Dimethylethyl (3-aminopropyl)carbamate;(3-Aminopropyl)-carbamic acid <em>tert</em>-butyl ester;2-methylpropan-2-yl (3-aminopropyl)carbamate;<em>N</em>-Boc-1,3-propylenediamine;Boc-1,3-diaminopropane;3-(Boc-amino)propylamine",
    "duplicated_cas_no": "",
    "SMILES": "O(C(NCCCN)=O)C(C)(C)C",
    "meta_data": {
        "InChI": "InChI=1S/C8H18N2O2/c1-8(2,3)12-7(11)10-6-4-5-9/h4-6,9H2,1-3H3,(H,10,11)",
        "InChIKey": null,
        "Canonical SMILES": "O=C(OC(C)(C)C)NCCCN",
        "Molecular Formula": "C<sub>8</sub>H<sub>18</sub>N<sub>2</sub>O<sub>2</sub>",
        "Molecular Mass": "174.24",
        "Melting Point": "106-108 °C"
    }
}