{
    "cas_no": "59669-26-0",
    "key_name": "Thiodicarb",
    "cn_name": "灭多威;硫双威;3,7,9.13-四甲基-5,11-二氧杂-2,8,14-三硫杂-4,7,9,12-四氮杂十五烷-3,12-二烯-6,10-二酮;",
    "alternate_name": "6-Oxa-3,9-dithia-2,4,7-triazadec-7-enoic acid, 2,4,8-trimethyl-5-oxo-, [1-(methylthio)ethylidene]azanyl ester;Ethanimidothioic acid, <em>N</em>,<em>N</em>′-[thiobis[(methylimino)carbonyloxy]]bis-, dimethyl ester;UC 51762;Bismethomyl thioether;Larvin;Thiodicarb;Lepicron;CGA 45156;Dicarbasulf;Semevin;Liushuanwei",
    "duplicated_cas_no": "65154-62-3;72424-66-9;78876-59-2;149440-58-4",
    "SMILES": "N(SN(C(ON=C(SC)C)=O)C)(C(ON=C(SC)C)=O)C",
    "meta_data": {
        "InChI": "InChI=1S/C10H18N4O4S3/c1-7(19-5)11-17-9(15)13(3)21-14(4)10(16)18-12-8(2)20-6/h1-6H3",
        "InChIKey": null,
        "Canonical SMILES": "O=C(ON=C(SC)C)N(SN(C(=O)ON=C(SC)C)C)C",
        "Molecular Formula": "C<sub>10</sub>H<sub>18</sub>N<sub>4</sub>O<sub>4</sub>S<sub>3</sub>",
        "Molecular Mass": "354.47",
        "Melting Point": "173 °C",
        "Density": "1.44 g/cm³ @ Temp: 20 °C"
    }
}