{
    "cas_no": "65148-10-9",
    "key_name": "6-Bromo-2-quinolinecarboxylic acid",
    "cn_name": "6-溴-2-喹啉甲酸;",
    "alternate_name": "2-Quinolinecarboxylic acid, 6-bromo-;6-Bromo-2-quinolinecarboxylic acid;6-Bromoquinaldic acid;6-Bromoquinoline-2-carboxylic acid",
    "duplicated_cas_no": "",
    "SMILES": "C(O)(=O)C1=NC2=C(C=C(Br)C=C2)C=C1",
    "meta_data": {
        "InChI": "InChI=1S/C10H6BrNO2/c11-7-2-4-8-6(5-7)1-3-9(12-8)10(13)14/h1-5H,(H,13,14)",
        "InChIKey": null,
        "Canonical SMILES": "O=C(O)C=1N=C2C=CC(Br)=CC2=CC1",
        "Molecular Formula": "C<sub>10</sub>H<sub>6</sub>BrNO<sub>2</sub>",
        "Molecular Mass": "252.06",
        "Melting Point": "226 °C"
    }
}