{
    "cas_no": "7500-53-0",
    "key_name": "1,2-Benzenediacetic acid",
    "cn_name": "邻苯二乙酸;",
    "alternate_name": "1,2-Benzenediacetic acid;<em>o</em>-Benzenediacetic acid;<em>o</em>-Phenylenediacetic acid;1,2-Phenylenediacetic acid;NSC 401681;(2-Carboxymethylphenyl)acetic acid;2,2′-(1,2-Phenylene)diacetic acid;2-[2-(Carboxymethyl)phenyl]acetic acid",
    "duplicated_cas_no": "879722-08-4",
    "SMILES": "C(C(O)=O)C1=C(CC(O)=O)C=CC=C1",
    "meta_data": {
        "InChI": "InChI=1S/C10H10O4/c11-9(12)5-7-3-1-2-4-8(7)6-10(13)14/h1-4H,5-6H2,(H,11,12)(H,13,14)",
        "InChIKey": null,
        "Canonical SMILES": "O=C(O)CC=1C=CC=CC1CC(=O)O",
        "Molecular Formula": "C<sub>10</sub>H<sub>10</sub>O<sub>4</sub>",
        "Molecular Mass": "194.18",
        "Melting Point": "150-152 °C"
    }
}