{
    "cas_no": "116-82-5",
    "key_name": "1-Amino-2-bromo-4-hydroxy-9,10-anthracenedione",
    "cn_name": "分散紫17;1-氨基-2-溴-4-羟基蒽醌;",
    "alternate_name": "9,10-Anthracenedione, 1-amino-2-bromo-4-hydroxy-;Anthraquinone, 1-amino-2-bromo-4-hydroxy-;1-Amino-2-bromo-4-hydroxy-9,10-anthracenedione;1-Amino-2-bromo-4-hydroxyanthraquinone;1-Amino-4-hydroxy-2-bromoanthraquinone;1-Amino-2-bromo-4-hydroxy-9,10-anthraquinone;C.I. Disperse Violet 17;Sumikaron Red 3B;Latyl Red B;Resiren Red T 3B;Sandoplast Red 2B;Intratherm Red P 1339;Disperse Violet 17;NSC 176660;Red P 1339;DV 17",
    "duplicated_cas_no": "12217-92-4",
    "SMILES": "O=C1C=2C(C(=O)C=3C1=CC=CC3)=C(O)C=C(Br)C2N",
    "meta_data": {
        "InChI": "InChI=1S/C14H8BrNO3/c15-8-5-9(17)10-11(12(8)16)14(19)7-4-2-1-3-6(7)13(10)18/h1-5,17H,16H2",
        "InChIKey": null,
        "Canonical SMILES": "O=C1C=2C=CC=CC2C(=O)C=3C(N)=C(Br)C=C(O)C13",
        "Molecular Formula": "C<sub>14</sub>H<sub>8</sub>BrNO<sub>3</sub>",
        "Molecular Mass": "318.12",
        "Melting Point": "232 °C"
    }
}