{
    "cas_no": "7700-17-6",
    "key_name": "Crotoxyphos",
    "cn_name": null,
    "alternate_name": "2-Butenoic acid, 3-[(dimethoxyphosphinyl)oxy]-, 1-phenylethyl ester, (2<em>E</em>)-;Crotonic acid, 3-hydroxy-, α-methylbenzyl ester, dimethyl phosphate, (<em>E</em>)-;2-Butenoic acid, 3-[(dimethoxyphosphinyl)oxy]-, 1-phenylethyl ester, (<em>E</em>)-;Ciodrin;SD 4294;Crotoxyphos;3-Hydroxycrotonic acid α-methylbenzyl ester dimethyl phosphate;<em>O</em>,<em>O</em>-Dimethyl <em>O</em>-[1-methyl-2-(1-phenylcarbethoxy)vinyl] phosphate;Dimethyl 2-(α-methylbenzyloxycarbonyl)-1-methylvinyl phosphate;Cyodrin;Volfazol;Pantozol 1;<em>trans</em>-Crotoxyphos;Crotoxyfos",
    "duplicated_cas_no": "16825-37-9;57828-44-1",
    "SMILES": "C(OC(/C=C(/OP(OC)(OC)=O)\\C)=O)(C)C1=CC=CC=C1",
    "meta_data": {
        "InChI": "InChI=1/C14H19O6P/c1-11(20-21(16,17-3)18-4)10-14(15)19-12(2)13-8-6-5-7-9-13/h5-10,12H,1-4H3/b11-10+",
        "InChIKey": null,
        "Canonical SMILES": "O=C(OC(C=1C=CC=CC1)C)C=C(OP(=O)(OC)OC)C",
        "Molecular Formula": "C<sub>14</sub>H<sub>19</sub>O<sub>6</sub>P",
        "Molecular Mass": "314.27",
        "Boiling Point": "135 °C @ Press: 0.03 Torr",
        "Density": "1.19 g/cm³ @ Temp: 25 °C"
    }
}