{
    "cas_no": "602-56-2",
    "key_name": "9-Phenylacridine",
    "cn_name": "9-苯基吖啶;",
    "alternate_name": "Acridine, 9-phenyl-;9-Phenylacridine;NSC 62730;9PA",
    "duplicated_cas_no": "",
    "SMILES": "C=1(C2=C(N=C3C1C=CC=C3)C=CC=C2)C4=CC=CC=C4",
    "meta_data": {
        "InChI": "InChI=1S/C19H13N/c1-2-8-14(9-3-1)19-15-10-4-6-12-17(15)20-18-13-7-5-11-16(18)19/h1-13H",
        "InChIKey": null,
        "Canonical SMILES": "N=1C=2C=CC=CC2C(C=3C=CC=CC3)=C4C=CC=CC14",
        "Molecular Formula": "C<sub>19</sub>H<sub>13</sub>N",
        "Molecular Mass": "255.31",
        "Boiling Point": "404 °C",
        "Melting Point": "184 °C"
    }
}