{
    "cas_no": "7083-19-4",
    "key_name": "2-Methoxy-5-methylbenzaldehyde",
    "cn_name": null,
    "alternate_name": "Benzaldehyde, 2-methoxy-5-methyl-;<em>o</em>-Anisaldehyde, 5-methyl-;2-Methoxy-5-methylbenzaldehyde;5-Methyl-2-methoxybenzaldehyde",
    "duplicated_cas_no": "",
    "SMILES": "O(C)C1=C(C=O)C=C(C)C=C1",
    "meta_data": {
        "InChI": "InChI=1S/C9H10O2/c1-7-3-4-9(11-2)8(5-7)6-10/h3-6H,1-2H3",
        "InChIKey": null,
        "Canonical SMILES": "O=CC1=CC(=CC=C1OC)C",
        "Molecular Formula": "C<sub>9</sub>H<sub>10</sub>O<sub>2</sub>",
        "Molecular Mass": "150.17",
        "Boiling Point": "138-139 °C @ Press: 19 Torr",
        "Density": "1.0056 g/cm³ @ Temp: 20 °C"
    }
}