{
    "cas_no": "6843-49-8",
    "key_name": "5-Methyl-5-phenylhydantoin",
    "cn_name": "5-甲基-5-苯海因;5-甲基-5-苯基乙内酰脲;5-甲基-5-苯基海因;",
    "alternate_name": "2,4-Imidazolidinedione, 5-methyl-5-phenyl-;Hydantoin, 5-methyl-5-phenyl-;5-Methyl-5-phenyl-2,4-imidazolidinedione;5-Methyl-5-phenylhydantoin;(±)-5-Methyl-5-phenylhydantoin;NSC 14839;5-Methyl-5-phenylimidazolidine-2,4-dione",
    "duplicated_cas_no": "99571-24-1",
    "SMILES": "CC1(NC(=O)NC1=O)C2=CC=CC=C2",
    "meta_data": {
        "InChI": "InChI=1S/C10H10N2O2/c1-10(7-5-3-2-4-6-7)8(13)11-9(14)12-10/h2-6H,1H3,(H2,11,12,13,14)",
        "InChIKey": null,
        "Canonical SMILES": "O=C1NC(=O)C(N1)(C=2C=CC=CC2)C",
        "Molecular Formula": "C<sub>10</sub>H<sub>10</sub>N<sub>2</sub>O<sub>2</sub>",
        "Molecular Mass": "190.20",
        "Melting Point": "178 °C"
    }
}