{
    "cas_no": "25059-80-7",
    "key_name": "Benazolin-ethyl",
    "cn_name": "草除灵;4-氯-2,3-二氢-2-氧化-4,3-苯并噻唑-3-基乙酸乙酯;",
    "alternate_name": "3(2<em>H</em>)-Benzothiazoleacetic acid, 4-chloro-2-oxo-, ethyl ester;3-Benzothiazolineacetic acid, 4-chloro-2-oxo-, ethyl ester;4-Chloro-2-oxobenzothiazolin-3-ylacetic acid ethyl ester;Benazolin ethyl ester;Benazolin-ethyl;Galtak;Ethyl 2-(4-chloro-2-oxo-2,3-dihydro-1,3-benzothiazol-3-yl)acetate",
    "duplicated_cas_no": "",
    "SMILES": "C(C(OCC)=O)N1C=2C(SC1=O)=CC=CC2Cl",
    "meta_data": {
        "InChI": "InChI=1S/C11H10ClNO3S/c1-2-16-9(14)6-13-10-7(12)4-3-5-8(10)17-11(13)15/h3-5H,2,6H2,1H3",
        "InChIKey": null,
        "Canonical SMILES": "O=C1SC=2C=CC=C(Cl)C2N1CC(=O)OCC",
        "Molecular Formula": "C<sub>11</sub>H<sub>10</sub>ClNO<sub>3</sub>S",
        "Molecular Mass": "271.72",
        "Melting Point": "79.2 °C"
    }
}