{
    "cas_no": "1111-92-8",
    "key_name": "Phosphinic chloride, dimethyl-",
    "cn_name": "二甲基膦酰氯;",
    "alternate_name": "Phosphinic chloride, dimethyl-;Dimethylphosphinic chloride;Dimethylphosphinoyl chloride;Chlorodimethylphosphine oxide;Dimethylphosphinyl chloride;[Chloro(methyl)phosphoryl]methane",
    "duplicated_cas_no": "",
    "SMILES": "P(C)(C)(Cl)=O",
    "meta_data": {
        "InChI": "InChI=1S/C2H6ClOP/c1-5(2,3)4/h1-2H3",
        "InChIKey": null,
        "Canonical SMILES": "O=P(Cl)(C)C",
        "Molecular Formula": "C<sub>2</sub>H<sub>6</sub>ClOP",
        "Molecular Mass": "112.50",
        "Boiling Point": "202-204 °C",
        "Melting Point": "68-69 °C"
    }
}