{
    "cas_no": "659-70-1",
    "key_name": "Isoamyl isovalerate",
    "cn_name": "异戊酸异戊酯;",
    "alternate_name": "Butanoic acid, 3-methyl-, 3-methylbutyl ester;Isovaleric acid, isopentyl ester;Isopentyl alcohol, isovalerate;<em>iso</em>-Amyl isovalerate;Isoamyl isovalerate;Isopentyl isovalerate;3-Methylbutyl 3-methylbutyrate;Isopentyl 3-methylbutyrate;Solusterol;Isopentyl 3-methylbutanoate;3-Methylbutyl 3-methylbutanoate;3-Methylbutyl isovalerate;Isoamyl 3-methylbutyrate;Isoamyl 3-methylbutanoate;NSC 6565",
    "duplicated_cas_no": "",
    "SMILES": "C(OCCC(C)C)(CC(C)C)=O",
    "meta_data": {
        "InChI": "InChI=1S/C10H20O2/c1-8(2)5-6-12-10(11)7-9(3)4/h8-9H,5-7H2,1-4H3",
        "InChIKey": null,
        "Canonical SMILES": "O=C(OCCC(C)C)CC(C)C",
        "Molecular Formula": "C<sub>10</sub>H<sub>20</sub>O<sub>2</sub>",
        "Molecular Mass": "172.26",
        "Boiling Point": "190.4 °C"
    }
}