{
    "cas_no": "15085-71-9",
    "key_name": "Micromelin",
    "cn_name": null,
    "alternate_name": "3,6-Dioxabicyclo[3.1.0]hexan-2-one, 4-(7-methoxy-2-oxo-2<em>H</em>-1-benzopyran-6-yl)-1-methyl-, (1<em>R</em>,4<em>R</em>,5<em>R</em>)-<em>rel</em>-;Coumarin, 7-methoxy-6-(5-methyl-4-oxo-3,6-dioxabicyclo[3.1.0]hex-2-yl)-;3,6-Dioxabicyclo[3.1.0]hexan-2-one, 4-(7-methoxy-2-oxo-2<em>H</em>-1-benzopyran-6-yl)-1-methyl-, (1α,4α,5α)-;<em>rel</em>-(1<em>R</em>,4<em>R</em>,5<em>R</em>)-4-(7-Methoxy-2-oxo-2<em>H</em>-1-benzopyran-6-yl)-1-methyl-3,6-dioxabicyclo[3.1.0]hexan-2-one;Micromelin;Micromelumin;NSC 281267;NSC 77149",
    "duplicated_cas_no": "19668-68-9",
    "SMILES": "C[C@]12[C@]([C@@H](OC1=O)C3=C(OC)C=C4C(=C3)C=CC(=O)O4)(O2)[H]",
    "meta_data": {
        "InChI": "InChI=1S/C15H12O6/c1-15-13(21-15)12(20-14(15)17)8-5-7-3-4-11(16)19-9(7)6-10(8)18-2/h3-6,12-13H,1-2H3/t12-,13-,15-/m0/s1",
        "InChIKey": null,
        "Canonical SMILES": "O=C1OC=2C=C(OC)C(=CC2C=C1)C3OC(=O)C4(OC34)C",
        "Molecular Formula": "C<sub>15</sub>H<sub>12</sub>O<sub>6</sub>",
        "Molecular Mass": "288.25",
        "Melting Point": "218-219 °C"
    }
}