{
    "cas_no": "22726-00-7",
    "key_name": "3-Bromobenzamide",
    "cn_name": "3-溴苯甲酰胺;",
    "alternate_name": "Benzamide, 3-bromo-;Benzamide, <em>m</em>-bromo-;3-Bromobenzamide;<em>m</em>-Bromobenzamide;3-Bromobenzenecarboxamide;NSC 81217",
    "duplicated_cas_no": "",
    "SMILES": "C(N)(=O)C1=CC(Br)=CC=C1",
    "meta_data": {
        "InChI": "InChI=1S/C7H6BrNO/c8-6-3-1-2-5(4-6)7(9)10/h1-4H,(H2,9,10)",
        "InChIKey": null,
        "Canonical SMILES": "O=C(N)C=1C=CC=C(Br)C1",
        "Molecular Formula": "C<sub>7</sub>H<sub>6</sub>BrNO",
        "Molecular Mass": "200.03",
        "Melting Point": "155.3 °C"
    }
}