{
    "cas_no": "1200-03-9",
    "key_name": "(4-Bromobutoxy)benzene",
    "cn_name": "4-苯氧基溴丁烷;4-溴丁基苯基醚;",
    "alternate_name": "Benzene, (4-bromobutoxy)-;Ether, 4-bromobutyl phenyl;(4-Bromobutoxy)benzene;1-Bromo-4-phenoxybutane;4-Bromobutyl phenyl ether;4-Phenoxybutyl bromide;1-Phenoxy-4-bromobutane;4-Phenoxy-1-bromobutane;4-Bromo-1-phenoxybutane;NSC 17155",
    "duplicated_cas_no": "",
    "SMILES": "O(CCCCBr)C1=CC=CC=C1",
    "meta_data": {
        "InChI": "InChI=1S/C10H13BrO/c11-8-4-5-9-12-10-6-2-1-3-7-10/h1-3,6-7H,4-5,8-9H2",
        "InChIKey": null,
        "Canonical SMILES": "BrCCCCOC=1C=CC=CC1",
        "Molecular Formula": "C<sub>10</sub>H<sub>13</sub>BrO",
        "Molecular Mass": "229.11",
        "Boiling Point": "156 °C @ Press: 18 Torr",
        "Melting Point": "41 °C"
    }
}