{
    "cas_no": "2706-90-3",
    "key_name": "Perfluoropentanoic acid",
    "cn_name": "全氟戊酸;九氟戊酸;全氟戊酸;",
    "alternate_name": "Pentanoic acid, 2,2,3,3,4,4,5,5,5-nonafluoro-;Valeric acid, nonafluoro-;Pentanoic acid, nonafluoro-;2,2,3,3,4,4,5,5,5-Nonafluoropentanoic acid;Perfluorovaleric acid;Nonafluoropentanoic acid;Perfluoropentanoic acid;Nonafluorovaleric acid;NSC 18404;PFPeA",
    "duplicated_cas_no": "",
    "SMILES": "C(C(C(F)(F)F)(F)F)(C(C(O)=O)(F)F)(F)F",
    "meta_data": {
        "InChI": "InChI=1S/C5HF9O2/c6-2(7,1(15)16)3(8,9)4(10,11)5(12,13)14/h(H,15,16)",
        "InChIKey": null,
        "Canonical SMILES": "O=C(O)C(F)(F)C(F)(F)C(F)(F)C(F)(F)F",
        "Molecular Formula": "C<sub>5</sub>HF<sub>9</sub>O<sub>2</sub>",
        "Molecular Mass": "264.05",
        "Boiling Point": "139 °C @ Press: 749 Torr",
        "Density": "1.713 g/cm³ @ Temp: 20 °C"
    }
}