{
    "cas_no": "458-45-7",
    "key_name": "3-(3-Fluorophenyl)propionic acid",
    "cn_name": "3-(3-氟苯基)丙酸;",
    "alternate_name": "Benzenepropanoic acid, 3-fluoro-;Hydrocinnamic acid, <em>m</em>-fluoro-;3-Fluorobenzenepropanoic acid;<em>m</em>-Fluorohydrocinnamic acid;3-(3-Fluorophenyl)propanoic acid;3-(3-Fluorophenyl)propionic acid",
    "duplicated_cas_no": "",
    "SMILES": "C(CC(O)=O)C1=CC(F)=CC=C1",
    "meta_data": {
        "InChI": "InChI=1S/C9H9FO2/c10-8-3-1-2-7(6-8)4-5-9(11)12/h1-3,6H,4-5H2,(H,11,12)",
        "InChIKey": null,
        "Canonical SMILES": "O=C(O)CCC=1C=CC=C(F)C1",
        "Molecular Formula": "C<sub>9</sub>H<sub>9</sub>FO<sub>2</sub>",
        "Molecular Mass": "168.16",
        "Melting Point": "36-37 °C"
    }
}