{
    "cas_no": "61432-55-1",
    "key_name": "Dimepiperate",
    "cn_name": null,
    "alternate_name": "1-Piperidinecarbothioic acid, <em>S</em>-(1-methyl-1-phenylethyl) ester;MY 93;Dimepiperate;MUW 1193;Yukamate",
    "duplicated_cas_no": "",
    "SMILES": "C(SC(=O)N1CCCCC1)(C)(C)C2=CC=CC=C2",
    "meta_data": {
        "InChI": "InChI=1S/C15H21NOS/c1-15(2,13-9-5-3-6-10-13)18-14(17)16-11-7-4-8-12-16/h3,5-6,9-10H,4,7-8,11-12H2,1-2H3",
        "InChIKey": null,
        "Canonical SMILES": "O=C(SC(C=1C=CC=CC1)(C)C)N2CCCCC2",
        "Molecular Formula": "C<sub>15</sub>H<sub>21</sub>NOS",
        "Molecular Mass": "263.40",
        "Boiling Point": "166 °C",
        "Melting Point": "39 °C"
    }
}