{
    "cas_no": "5434-30-0",
    "key_name": "2-Acetylamino-4-aminotoluene",
    "cn_name": "5-氨基-2-甲基乙酰苯胺;",
    "alternate_name": "Acetamide, <em>N</em>-(5-amino-2-methylphenyl)-;<em>N</em>-(5-Amino-2-methylphenyl)acetamide;2-Acetylamino-4-aminotoluene;NSC 15762",
    "duplicated_cas_no": "",
    "SMILES": "N(C(C)=O)C1=C(C)C=CC(N)=C1",
    "meta_data": {
        "InChI": "InChI=1S/C9H12N2O/c1-6-3-4-8(10)5-9(6)11-7(2)12/h3-5H,10H2,1-2H3,(H,11,12)",
        "InChIKey": null,
        "Canonical SMILES": "O=C(NC1=CC(N)=CC=C1C)C",
        "Molecular Formula": "C<sub>9</sub>H<sub>12</sub>N<sub>2</sub>O",
        "Molecular Mass": "164.20",
        "Melting Point": "139-140 °C"
    }
}