{
    "cas_no": "18514-76-6",
    "key_name": "5-Nitroquinoxaline",
    "cn_name": null,
    "alternate_name": "Quinoxaline, 5-nitro-;5-Nitroquinoxaline;NSC 128768",
    "duplicated_cas_no": "",
    "SMILES": "N(=O)(=O)C=1C2=C(C=CC1)N=CC=N2",
    "meta_data": {
        "InChI": "InChI=1S/C8H5N3O2/c12-11(13)7-3-1-2-6-8(7)10-5-4-9-6/h1-5H",
        "InChIKey": null,
        "Canonical SMILES": "O=N(=O)C=1C=CC=C2N=CC=NC21",
        "Molecular Formula": "C<sub>8</sub>H<sub>5</sub>N<sub>3</sub>O<sub>2</sub>",
        "Molecular Mass": "175.14",
        "Melting Point": "96-97 °C"
    }
}