{
    "cas_no": "16807-13-9",
    "key_name": "3-Iodocarbazole",
    "cn_name": null,
    "alternate_name": "9<em>H</em>-Carbazole, 3-iodo-;Carbazole, 3-iodo-;3-Iodo-9<em>H</em>-carbazole;3-Iodocarbazole",
    "duplicated_cas_no": "",
    "SMILES": "IC=1C=C2C=3C(NC2=CC1)=CC=CC3",
    "meta_data": {
        "InChI": "InChI=1S/C12H8IN/c13-8-5-6-12-10(7-8)9-3-1-2-4-11(9)14-12/h1-7,14H",
        "InChIKey": null,
        "Canonical SMILES": "IC=1C=CC=2NC=3C=CC=CC3C2C1",
        "Molecular Formula": "C<sub>12</sub>H<sub>8</sub>IN",
        "Molecular Mass": "293.10",
        "Melting Point": "192-194 °C"
    }
}