{
    "cas_no": "78-42-2",
    "key_name": "Tris(2-ethylhexyl) phosphate",
    "cn_name": "磷酸三辛酯;磷酸三异辛酯;三(2-乙基己基)磷酸酯;",
    "alternate_name": "Phosphoric acid, tris(2-ethylhexyl) ester;TOF;Tris(2-ethylhexyl) phosphate;Flexol TOF;Trioctyl phosphate;Tri(2-ethylhexyl) phosphate;Disflamoll TOF;TEHP;TOP;Reomol TOF;NSC 407921;Durad TOP;Vulcanol TOF",
    "duplicated_cas_no": "1546892-14-1",
    "SMILES": "P(OCC(CCCC)CC)(OCC(CCCC)CC)(OCC(CCCC)CC)=O",
    "meta_data": {
        "InChI": "InChI=1S/C24H51O4P/c1-7-13-16-22(10-4)19-26-29(25,27-20-23(11-5)17-14-8-2)28-21-24(12-6)18-15-9-3/h22-24H,7-21H2,1-6H3",
        "InChIKey": null,
        "Canonical SMILES": "O=P(OCC(CC)CCCC)(OCC(CC)CCCC)OCC(CC)CCCC",
        "Molecular Formula": "C<sub>24</sub>H<sub>51</sub>O<sub>4</sub>P",
        "Molecular Mass": "434.63",
        "Boiling Point": "215 °C @ Press: 4 Torr",
        "Melting Point": "-74 °C",
        "Density": "0.924 g/cm³ @ Temp: 26 °C"
    }
}