{
    "cas_no": "2325-17-9",
    "key_name": "Glycyl-<span class=\"text-smallcaps\">DL</span>-valine",
    "cn_name": null,
    "alternate_name": "Valine, glycyl-;Valine, <em>N</em>-glycyl-, <span class=\"text-smallcaps\">DL</span>-;<span class=\"text-smallcaps\">DL</span>-Valine, <em>N</em>-glycyl-;Glycylvaline;Glycyl-<span class=\"text-smallcaps\">DL</span>-valine;NSC 122051;2-(2-Aminoacetamido)-3-methylbutanoic acid;2-(2-Aminoacetamido)-3-methylbutanoicacid",
    "duplicated_cas_no": "6491-59-4",
    "SMILES": "C(NC(CN)=O)(C(C)C)C(O)=O",
    "meta_data": {
        "InChI": "InChI=1S/C7H14N2O3/c1-4(2)6(7(11)12)9-5(10)3-8/h4,6H,3,8H2,1-2H3,(H,9,10)(H,11,12)",
        "InChIKey": null,
        "Canonical SMILES": "O=C(O)C(NC(=O)CN)C(C)C",
        "Molecular Formula": "C<sub>7</sub>H<sub>14</sub>N<sub>2</sub>O<sub>3</sub>",
        "Molecular Mass": "174.20",
        "Melting Point": "173-174 °C"
    }
}