{
    "cas_no": "89499-43-4",
    "key_name": "Methyl 4-amino-2-thiophenecarboxylate",
    "cn_name": null,
    "alternate_name": "2-Thiophenecarboxylic acid, 4-amino-, methyl ester;Methyl 4-amino-2-thiophenecarboxylate",
    "duplicated_cas_no": "",
    "SMILES": "C(OC)(=O)C1=CC(N)=CS1",
    "meta_data": {
        "InChI": "InChI=1S/C6H7NO2S/c1-9-6(8)5-2-4(7)3-10-5/h2-3H,7H2,1H3",
        "InChIKey": null,
        "Canonical SMILES": "O=C(OC)C=1SC=C(N)C1",
        "Molecular Formula": "C<sub>6</sub>H<sub>7</sub>NO<sub>2</sub>S",
        "Molecular Mass": "157.19",
        "Melting Point": "82-84 °C"
    }
}