{
    "cas_no": "20941-65-5",
    "key_name": "Tetrakis(diethyldithiocarbamato)tellurium",
    "cn_name": "二乙基二硫代氨基甲酸碲;硫化促进剂TDEC;",
    "alternate_name": "Tellurium, tetrakis(<em>N</em>,<em>N</em>-diethylcarbamodithioato-κ<em>S</em>,κ<em>S</em>′)-, (<em>DD</em>-8-111′′1′′1′1′1′′′1′′′)-;Tellurium, tetrakis(diethyldithiocarbamato)-;Tellurium, tetrakis(diethylcarbamodithioato-<em>S</em>,<em>S</em>′)-, (<em>DD</em>-8-111′′1′′1′1′1′′′1′′′)-;Tellurium, tetrakis(diethylcarbamodithioato-κ<em>S</em>,κ<em>S</em>′)-, (<em>DD</em>-8-111′′1′′1′1′1′′′1′′′)-;(<em>DD</em>-8-111′′1′′1′1′1′′′1′′′)-Tetrakis(<em>N</em>,<em>N</em>-diethylcarbamodithioato-κ<em>S</em>,κ<em>S</em>′)tellurium;Tellurium(IV) diethyl dithiocarbamate;Tetrakis(diethyldithiocarbamato)tellurium;Tellurium diethyldithiocarbamate;Ethyl Tellurac;Carbamodithioic acid, diethyl-, tetrakis(anhydrosulfide) with thiotelluric acid (H<sub>4</sub>TeS<sub>4</sub>);Tellurac;Nocceler TTTE;Tetrakis(diethyldithiocarbamato)tellurium(IV);Accel TTTE;Accelerator TL;TTTE",
    "duplicated_cas_no": "105425-53-4;107129-43-1;109973-85-5;116836-04-5;12367-49-6;30145-38-1;35745-75-6;84135-96-6",
    "SMILES": "N(CC)(CC)C1=[S][Te+4]234([S-]C(N(CC)CC)=[S]2)([S-]C(N(CC)CC)=[S]3)([S-]C(N(CC)CC)=[S]4)[S-]1",
    "meta_data": {
        "InChI": "InChI=1S/C20H40N4S8Te/c1-9-21(10-2)17-25-33(26-17,27-18(28-33)22(11-3)12-4,29-19(30-33)23(13-5)14-6)31-20(32-33)24(15-7)16-8/h9-16H2,1-8H3",
        "InChIKey": null,
        "Canonical SMILES": "[S]1=C([S-][Te+4]1234([S]=C([S-]2)N(CC)CC)([S]=C([S-]3)N(CC)CC)[S]=C([S-]4)N(CC)CC)N(CC)CC",
        "Molecular Formula": "C<sub>20</sub>H<sub>40</sub>N<sub>4</sub>S<sub>8</sub>Te",
        "Molecular Mass": "",
        "Melting Point": "108-109 °C",
        "Density": "1.55 g/cm³"
    }
}