{
    "cas_no": "994-31-0",
    "key_name": "Triethyltin chloride",
    "cn_name": "三乙基氯化锡;氯化三乙基锡;",
    "alternate_name": "Stannane, chlorotriethyl-;Triethyltin chloride;Chlorotriethylstannane;Chlorotriethyltin;Triethylstannyl chloride;Triethylchlorostannane;Triethylchlorotin;NSC 5283",
    "duplicated_cas_no": "",
    "SMILES": "[Sn](CC)(CC)(CC)Cl",
    "meta_data": {
        "InChI": "InChI=1S/3C2H5.ClH.Sn/c3*1-2;;/h3*1H2,2H3;1H;/q;;;;+1/p-1",
        "InChIKey": null,
        "Canonical SMILES": "Cl[Sn](CC)(CC)CC",
        "Molecular Formula": "C<sub>6</sub>H<sub>15</sub>ClSn",
        "Molecular Mass": "241.35",
        "Boiling Point": "100-101 °C @ Press: 16 Torr",
        "Melting Point": "50.15 °C",
        "Density": "1.429 g/cm³ @ Temp: 20 °C"
    }
}