{
    "cas_no": "3147-75-9",
    "key_name": "2-(2-Hydroxy-5-<em>tert</em>-octylphenyl)benzotriazole",
    "cn_name": "奥克三唑;2-(2\"-羟基-5\"-叔辛基苯基)苯并三唑;紫外线吸收剂UV-329;",
    "alternate_name": "Phenol, 2-(2<em>H</em>-benzotriazol-2-yl)-4-(1,1,3,3-tetramethylbutyl)-;2-(2<em>H</em>-Benzotriazol-2-yl)-4-(1,1,3,3-tetramethylbutyl)phenol;2-(2-Hydroxy-5-<em>tert</em>-octylphenyl)benzotriazole;Cyasorb UV 5411;Octrizole;Cyasorb 5411;2-(2-Hydroxy-5-<em>tert</em>-octylphenyl)-2<em>H</em>-benzotriazole;Spectra-Sorb UV 5411;2-Benzotriazolyl-4-<em>tert</em>-octylphenol;Sumisorb 340;Viosorb 583;Tinuvin 329;2-(2′-Hydroxy-5′-<em>tert</em>-octylphenyl)benzotriazole;2-(2′-Hydroxy-5′-<em>tert</em>-octylphenyl)benztriazole;2-(2-Hydroxy-5-<em>t</em>-octylphenyl)benzotriazole;2-[2′-Hydroxy-5′-(1,1,3,3-tetramethylbutyl)phenyl]benzotriazole;Seesorb 709;2-(5-<em>t</em>-Octyl-2-hydroxyphenyl)benzotriazole;2-(2-Hydroxy-<em>5</em>-<em>t</em>-octylphenyl)-2<em>H</em>-benzotriazole;2-(5′-<em>tert</em>-Octyl-2′-hydroxyphenyl)benzotriazole;UV 5411;Kemisorb 79;UV 329;Chisorb 5411;Uvinul 3029;Eversorb 72;JF 83;2-(2<em>H</em>-Benzotriazol-2-yl)-4-<em>tert</em>-octylphenol;2-(2<em>H</em>-Benzotriazol-2-yl)-4-(2,4,4-trimethylpentan-2-yl)phenol;1268A;Seesorb 709G;2-(2<em>H</em>-Benzotriazole-2-yl)-4-(1,1,3,3-tetramethylbutyl)phenol;BLS 5411;Fisorb 329;Biosoap 583;UVA 235;Songsorb 3290;LA 29;ADK Stab LA 29;UVA 5411;UV 31 (UV absorber);UV 31;Chemsorb 329;Adeka Stab LA 29",
    "duplicated_cas_no": "31016-94-1;51656-56-5;52188-76-8;108021-89-2;123307-21-1;131242-52-9;134018-56-7;149780-04-1;188025-34-5;862695-39-4;866032-39-5;1395785-95-1;1502813-89-9;1687727-77-0;2305191-21-1",
    "SMILES": "OC=1C(N2N=C3C(=N2)C=CC=C3)=CC(C(CC(C)(C)C)(C)C)=CC1",
    "meta_data": {
        "InChI": "InChI=1S/C20H25N3O/c1-19(2,3)13-20(4,5)14-10-11-18(24)17(12-14)23-21-15-8-6-7-9-16(15)22-23/h6-12,24H,13H2,1-5H3",
        "InChIKey": null,
        "Canonical SMILES": "OC1=CC=C(C=C1N2N=C3C=CC=CC3=N2)C(C)(C)CC(C)(C)C",
        "Molecular Formula": "C<sub>20</sub>H<sub>25</sub>N<sub>3</sub>O",
        "Molecular Mass": "323.43",
        "Melting Point": "104.0-105.2 °C"
    }
}