{
    "cas_no": "1745-72-8",
    "key_name": "Dichlorodiethenylsilane",
    "cn_name": null,
    "alternate_name": "Silane, dichlorodiethenyl-;Silane, dichlorodivinyl-;Dichlorodiethenylsilane;Dichlorodivinylsilane;Divinyl dichlorosilane",
    "duplicated_cas_no": "",
    "SMILES": "[Si](C=C)(C=C)(Cl)Cl",
    "meta_data": {
        "InChI": "InChI=1S/C4H6Cl2Si/c1-3-7(5,6)4-2/h3-4H,1-2H2",
        "InChIKey": null,
        "Canonical SMILES": "Cl[Si](Cl)(C=C)C=C",
        "Molecular Formula": "C<sub>4</sub>H<sub>6</sub>Cl<sub>2</sub>Si",
        "Molecular Mass": "153.08",
        "Boiling Point": "118-119 °C",
        "Density": "1.081 g/cm³"
    }
}