{
    "cas_no": "1931-44-8",
    "key_name": "2-Amino-7-hydroxy-1,8-naphthyridine",
    "cn_name": "2-氨基-7-羟基-1,8-萘啶;",
    "alternate_name": "1,8-Naphthyridin-2(1<em>H</em>)-one, 7-amino-;1,8-Naphthyridin-2-ol, 7-amino-;7-Amino-1,8-naphthyridin-2(1<em>H</em>)-one;7-Amino-1,8-naphthyridin-2-one;2-Amino-7-hydroxy-1,8-naphthyridine;2-Amino-1,8-naphthyridin-7-ol;7-Amino-1,8-naphthyridin-2-ol",
    "duplicated_cas_no": "49655-98-3",
    "SMILES": "NC=1NC=2C(C=CC(=O)N2)=CC1",
    "meta_data": {
        "InChI": "InChI=1S/C8H7N3O/c9-6-3-1-5-2-4-7(12)11-8(5)10-6/h1-4H,(H3,9,10,11,12)",
        "InChIKey": null,
        "Canonical SMILES": "O=C1N=C2NC(N)=CC=C2C=C1",
        "Molecular Formula": "C<sub>8</sub>H<sub>7</sub>N<sub>3</sub>O",
        "Molecular Mass": "161.16",
        "Melting Point": "&gt;360 °C"
    }
}