{
    "cas_no": "15780-02-6",
    "key_name": "Tetrapropylammonium perchlorate",
    "cn_name": "四丙基高氯酸铵;",
    "alternate_name": "1-Propanaminium, <em>N</em>,<em>N</em>,<em>N</em>-tripropyl-, perchlorate (1:1);Ammonium, tetrapropyl-, perchlorate;1-Propanaminium, <em>N</em>,<em>N</em>,<em>N</em>-tripropyl-, perchlorate;Tetrapropylammonium perchlorate",
    "duplicated_cas_no": "",
    "SMILES": "Cl(=O)(=O)(=O)[O-].[N+](CCC)(CCC)(CCC)CCC",
    "meta_data": {
        "InChI": "InChI=1S/C12H28N.ClHO4/c1-5-9-13(10-6-2,11-7-3)12-8-4;2-1(3,4)5/h5-12H2,1-4H3;(H,2,3,4,5)/q+1;/p-1",
        "InChIKey": null,
        "Canonical SMILES": "O=Cl(=O)(=O)[O-].CCC[N+](CCC)(CCC)CCC",
        "Molecular Formula": "C<sub>12</sub>H<sub>28</sub>N.ClO<sub>4</sub>",
        "Molecular Mass": "",
        "Melting Point": "237-239 °C"
    }
}