{
    "cas_no": "619-10-3",
    "key_name": "2-Chloro-5-nitrophenol",
    "cn_name": "2-氯-5-硝基苯酚;",
    "alternate_name": "Phenol, 2-chloro-5-nitro-;2-Chloro-5-nitrophenol;6-Chloro-3-nitrophenol;NSC 212119",
    "duplicated_cas_no": "",
    "SMILES": "N(=O)(=O)C1=CC(O)=C(Cl)C=C1",
    "meta_data": {
        "InChI": "InChI=1S/C6H4ClNO3/c7-5-2-1-4(8(10)11)3-6(5)9/h1-3,9H",
        "InChIKey": null,
        "Canonical SMILES": "O=N(=O)C1=CC=C(Cl)C(O)=C1",
        "Molecular Formula": "C<sub>6</sub>H<sub>4</sub>ClNO<sub>3</sub>",
        "Molecular Mass": "173.55",
        "Melting Point": "119.5 °C"
    }
}