{
    "cas_no": "59338-93-1",
    "key_name": "Alizapride",
    "cn_name": "阿立必利;N-(1-烯丙基-2-吡咯烷基甲基)-6-甲氧基-1H-苯并三唑-5-甲酰胺;",
    "alternate_name": "1<em>H</em>-Benzotriazole-5-carboxamide, 6-methoxy-<em>N</em>-[[1-(2-propen-1-yl)-2-pyrrolidinyl]methyl]-;1<em>H</em>-Benzotriazole-5-carboxamide, 6-methoxy-<em>N</em>-[[1-(2-propenyl)-2-pyrrolidinyl]methyl]-;6-Methoxy-<em>N</em>-[[1-(2-propen-1-yl)-2-pyrrolidinyl]methyl]-1<em>H</em>-benzotriazole-5-carboxamide;Alizapride",
    "duplicated_cas_no": "",
    "SMILES": "O(C)C=1C=C2C(=CC1C(NCC3N(CC=C)CCC3)=O)N=NN2",
    "meta_data": {
        "InChI": "InChI=1S/C16H21N5O2/c1-3-6-21-7-4-5-11(21)10-17-16(22)12-8-13-14(19-20-18-13)9-15(12)23-2/h3,8-9,11H,1,4-7,10H2,2H3,(H,17,22)(H,18,19,20)",
        "InChIKey": null,
        "Canonical SMILES": "O=C(NCC1N(CC=C)CCC1)C2=CC=3N=NNC3C=C2OC",
        "Molecular Formula": "C<sub>16</sub>H<sub>21</sub>N<sub>5</sub>O<sub>2</sub>",
        "Molecular Mass": "315.37",
        "Melting Point": "139 °C"
    }
}