{
    "cas_no": "23084-35-7",
    "key_name": "6-Methoxy-1<em>H</em>-indole-3-acetonitrile",
    "cn_name": null,
    "alternate_name": "1<em>H</em>-Indole-3-acetonitrile, 6-methoxy-;Indole-3-acetonitrile, 6-methoxy-;6-Methoxy-1<em>H</em>-indole-3-acetonitrile;2-(6-Methoxy-1<em>H</em>-indol-3-yl)acetonitrile",
    "duplicated_cas_no": "",
    "SMILES": "C(C#N)C=1C=2C(=CC(OC)=CC2)NC1",
    "meta_data": {
        "InChI": "InChI=1S/C11H10N2O/c1-14-9-2-3-10-8(4-5-12)7-13-11(10)6-9/h2-3,6-7,13H,4H2,1H3",
        "InChIKey": null,
        "Canonical SMILES": "N#CCC1=CNC=2C=C(OC)C=CC21",
        "Molecular Formula": "C<sub>11</sub>H<sub>10</sub>N<sub>2</sub>O",
        "Molecular Mass": "186.21",
        "Melting Point": "111-112 °C"
    }
}