{
    "cas_no": "573-56-8",
    "key_name": "2,6-Dinitrophenol",
    "cn_name": "2,6-二硝基苯酚;&beta;-二硝基苯酚;2,6-二硝基酚;",
    "alternate_name": "Phenol, 2,6-dinitro-;2,6-Dinitrophenol;<em>o</em>-Dinitrophenol;Phenol, β-dinitro-;2,6-DNP;β-Dinitrophenol;NSC 6215",
    "duplicated_cas_no": "",
    "SMILES": "N(=O)(=O)C1=C(O)C(N(=O)=O)=CC=C1",
    "meta_data": {
        "InChI": "InChI=1S/C6H4N2O5/c9-6-4(7(10)11)2-1-3-5(6)8(12)13/h1-3,9H",
        "InChIKey": null,
        "Canonical SMILES": "O=N(=O)C1=CC=CC(=C1O)N(=O)=O",
        "Molecular Formula": "C<sub>6</sub>H<sub>4</sub>N<sub>2</sub>O<sub>5</sub>",
        "Molecular Mass": "184.11",
        "Melting Point": "63-64 °C"
    }
}