{
    "cas_no": "2450-71-7",
    "key_name": "Propargylamine",
    "cn_name": "炔丙胺;丙炔胺;",
    "alternate_name": "2-Propyn-1-amine;2-Propynylamine;Propargylamine;3-Aminopropyne;3-Aminoprop-1-yne;NSC 80642;<em>N</em>-(2-Propyn-1-yl)amine;(2-Propyn-1-yl)amine",
    "duplicated_cas_no": "",
    "SMILES": "C(CN)#C",
    "meta_data": {
        "InChI": "InChI=1S/C3H5N/c1-2-3-4/h1H,3-4H2",
        "InChIKey": null,
        "Canonical SMILES": "C#CCN",
        "Molecular Formula": "C<sub>3</sub>H<sub>5</sub>N",
        "Molecular Mass": "55.08",
        "Boiling Point": "83 °C",
        "Melting Point": "174-175 °C",
        "Density": "0.867 g/cm³ @ Temp: 16 °C"
    }
}