{
    "cas_no": "1239-31-2",
    "key_name": "3β-Acetoxy-5α-androstan-17-one",
    "cn_name": "醋酸去氢表雄酮;3-羟基-雄甾-5-烯-17-酮-3-醋酸酯;",
    "alternate_name": "Androstan-17-one, 3-(acetyloxy)-, (3β,5α)-;5α-Androstan-17-one, 3β-hydroxy-, acetate;(3β,5α)-3-(Acetyloxy)androstan-17-one;3β-Acetoxy-5α-androstan-17-one;Epiandrosterone acetate;5α-Androstan-3β-acetoxy-17-one;<em>epi</em>-Androsterone acetate;Isoandrosterone acetate;5α-Androstan-3β-ol-17-one acetate;17-Oxo-5α-androstan-3β-yl acetate;3β-Acetoxyepiandrosterone;NSC 120612",
    "duplicated_cas_no": "2411123-63-0",
    "SMILES": "C[C@@]12[C@@]3([C@]([C@]4([C@](C)(CC3)C(=O)CC4)[H])(CC[C@]1(C[C@@H](OC(C)=O)CC2)[H])[H])[H]",
    "meta_data": {
        "InChI": "InChI=1S/C21H32O3/c1-13(22)24-15-8-10-20(2)14(12-15)4-5-16-17-6-7-19(23)21(17,3)11-9-18(16)20/h14-18H,4-12H2,1-3H3/t14-,15-,16-,17-,18-,20-,21-/m0/s1",
        "InChIKey": null,
        "Canonical SMILES": "O=C(OC1CCC2(C)C(CCC3C4CCC(=O)C4(C)CCC32)C1)C",
        "Molecular Formula": "C<sub>21</sub>H<sub>32</sub>O<sub>3</sub>",
        "Molecular Mass": "332.48",
        "Melting Point": "103-104 °C"
    }
}