{
    "cas_no": "2243-56-3",
    "key_name": "1-Naphthylhydrazine hydrochloride",
    "cn_name": "1-萘肼盐酸盐;",
    "alternate_name": "Hydrazine, 1-naphthalenyl-, hydrochloride (1:1);Hydrazine, 1-naphthalenyl-, monohydrochloride;α-Naphthylhydrazine monohydrochloride;1-Naphthylhydrazine hydrochloride;1-Hydrazinonaphthalene monohydrochloride;<em>N</em>-(1-Naphthyl)hydrazine hydrochloride;Naphthalen-1-ylhydrazine hydrochloride;1-Naphthalenylhydrazine hydrochloride",
    "duplicated_cas_no": "",
    "SMILES": "N(N)C=1C2=C(C=CC1)C=CC=C2.Cl",
    "meta_data": {
        "InChI": "InChI=1S/C10H10N2.ClH/c11-12-10-7-3-5-8-4-1-2-6-9(8)10;/h1-7,12H,11H2;1H",
        "InChIKey": null,
        "Canonical SMILES": "Cl.NNC1=CC=CC=2C=CC=CC21",
        "Molecular Formula": "C<sub>10</sub>H<sub>10</sub>N<sub>2</sub>.ClH",
        "Molecular Mass": "",
        "Melting Point": "119 °C"
    }
}