{
    "cas_no": "138-92-1",
    "key_name": "1<em>H</em>-Pyrazole-3-ethanamine, hydrochloride (1:2)",
    "cn_name": "盐酸倍他唑;盐酸倍他唑;",
    "alternate_name": "1<em>H</em>-Pyrazole-3-ethanamine, hydrochloride (1:2);Pyrazole, 3-(2-aminoethyl)-, dihydrochloride;1<em>H</em>-Pyrazole-3-ethanamine, dihydrochloride;Pyrazole, 3(<em>or</em> 5)-(2-aminoethyl)-, dihydrochloride;Ametazole dihydrochloride;3-(2-Aminoethyl)pyrazole dihydrochloride;Betazole dihydrochloride;Betazole hydrochloride;Gastramine;Histalog;3-(β-Aminoethyl)pyrazole dihydrochloride;Ametazole hydrochloride;Betazol hydrochloride;Gastramine hydrochloride;[2-(1<em>H</em>-Pyrazol-3-yl)ethyl]amine dihydrochloride;2-(1<em>H</em>-Pyrazol-3-yl)ethan-1-amine dihydrochloride",
    "duplicated_cas_no": "",
    "SMILES": "C(CN)C=1C=CNN1.Cl",
    "meta_data": {
        "InChI": "InChI=1S/C5H9N3.2ClH/c6-3-1-5-2-4-7-8-5;;/h2,4H,1,3,6H2,(H,7,8);2*1H",
        "InChIKey": null,
        "Canonical SMILES": "Cl.N=1NC=CC1CCN",
        "Molecular Formula": "C<sub>5</sub>H<sub>9</sub>N<sub>3</sub>.2ClH",
        "Molecular Mass": "",
        "Melting Point": "223-224 °C"
    }
}