{
    "cas_no": "13162-46-4",
    "key_name": "2,4-Undecadienal",
    "cn_name": "反,反-2,4-十一碳烯醛;",
    "alternate_name": "2,4-Undecadienal",
    "duplicated_cas_no": "",
    "SMILES": "C(C=CC=CC=O)CCCCC",
    "meta_data": {
        "InChI": "InChI=1S/C11H18O/c1-2-3-4-5-6-7-8-9-10-11-12/h7-11H,2-6H2,1H3",
        "InChIKey": null,
        "Canonical SMILES": "O=CC=CC=CCCCCCC",
        "Molecular Formula": "C<sub>11</sub>H<sub>18</sub>O",
        "Molecular Mass": "166.26",
        "Boiling Point": "80-81 °C @ Press: 1 Torr"
    }
}