{
    "cas_no": "447-60-9",
    "key_name": "2-(Trifluoromethyl)benzonitrile",
    "cn_name": "2-三氟甲基苯腈;邻三氟甲基苯腈;",
    "alternate_name": "Benzonitrile, 2-(trifluoromethyl)-;<em>o</em>-Tolunitrile, α,α,α-trifluoro-;2-(Trifluoromethyl)benzonitrile;<em>o</em>-(Trifluoromethyl)benzonitrile;<em>o</em>-Cyanobenzotrifluoride;α,α,α-Trifluoro-<em>o</em>-tolunitrile;<em>o</em>-(Trifluoromethyl)cyanobenzene;NSC 88312;2-Cyanobenzotrifluoride",
    "duplicated_cas_no": "",
    "SMILES": "C(#N)C1=C(C(F)(F)F)C=CC=C1",
    "meta_data": {
        "InChI": "InChI=1S/C8H4F3N/c9-8(10,11)7-4-2-1-3-6(7)5-12/h1-4H",
        "InChIKey": null,
        "Canonical SMILES": "N#CC=1C=CC=CC1C(F)(F)F",
        "Molecular Formula": "C<sub>8</sub>H<sub>4</sub>F<sub>3</sub>N",
        "Molecular Mass": "171.12",
        "Boiling Point": "205 °C",
        "Melting Point": "18 °C",
        "Density": "1.2886 g/cm³ @ Temp: 20 °C"
    }
}