{
    "cas_no": "50-85-1",
    "key_name": "4-Methylsalicylic acid",
    "cn_name": "4-甲基水杨酸;",
    "alternate_name": "Benzoic acid, 2-hydroxy-4-methyl-;2,4-Cresotic acid;2-Hydroxy-4-methylbenzoic acid;γ-Cresotic acid;<em>m</em>-Cresotic acid;<em>m</em>-Homosalicylic acid;2-Hydroxy-<em>p</em>-toluic acid;<em>m</em>-Cresotinic acid;4-Methylsalicylic acid;4-Methyl-2-hydroxybenzoic acid;<em>p</em>-Methylsalicylic acid;NSC 16634;4-Methyl-2-hydroxybenzenecarboxylic acid",
    "duplicated_cas_no": "",
    "SMILES": "C(O)(=O)C1=C(O)C=C(C)C=C1",
    "meta_data": {
        "InChI": "InChI=1S/C8H8O3/c1-5-2-3-6(8(10)11)7(9)4-5/h2-4,9H,1H3,(H,10,11)",
        "InChIKey": null,
        "Canonical SMILES": "O=C(O)C1=CC=C(C=C1O)C",
        "Molecular Formula": "C<sub>8</sub>H<sub>8</sub>O<sub>3</sub>",
        "Molecular Mass": "152.15",
        "Melting Point": "177 °C",
        "Density": "1.304 g/cm³"
    }
}