{
    "cas_no": "740810-42-8",
    "key_name": "5-(1,1-Dimethyl-2-propen-1-yl)-2,3,6,8-tetrahydroxy-1-(3-methyl-2-buten-1-yl)-9<em>H</em>-xanthen-9-one",
    "cn_name": null,
    "alternate_name": "9<em>H</em>-Xanthen-9-one, 5-(1,1-dimethyl-2-propen-1-yl)-2,3,6,8-tetrahydroxy-1-(3-methyl-2-buten-1-yl)-;9<em>H</em>-Xanthen-9-one, 5-(1,1-dimethyl-2-propenyl)-2,3,6,8-tetrahydroxy-1-(3-methyl-2-butenyl)-;5-(1,1-Dimethyl-2-propen-1-yl)-2,3,6,8-tetrahydroxy-1-(3-methyl-2-buten-1-yl)-9<em>H</em>-xanthen-9-one;Cudratricusxanthone A",
    "duplicated_cas_no": "",
    "SMILES": "C(C=C(C)C)C1=C2C(OC=3C(C2=O)=C(O)C=C(O)C3C(C=C)(C)C)=CC(O)=C1O",
    "meta_data": {
        "InChI": "InChI=1S/C23H24O6/c1-6-23(4,5)19-14(25)9-13(24)18-21(28)17-12(8-7-11(2)3)20(27)15(26)10-16(17)29-22(18)19/h6-7,9-10,24-27H,1,8H2,2-5H3",
        "InChIKey": null,
        "Canonical SMILES": "O=C1C2=C(O)C=C(O)C(=C2OC3=CC(O)=C(O)C(=C13)CC=C(C)C)C(C=C)(C)C",
        "Molecular Formula": "C<sub>23</sub>H<sub>24</sub>O<sub>6</sub>",
        "Molecular Mass": "396.43",
        "Melting Point": "145 °C"
    }
}