{
    "cas_no": "2041-14-7",
    "key_name": "(2-Aminoethyl)phosphonic acid",
    "cn_name": "2-氨基乙基膦酸;2-氨乙基膦酸;",
    "alternate_name": "Phosphonic acid, <em>P</em>-(2-aminoethyl)-;Phosphonic acid, (2-aminoethyl)-;<em>P</em>-(2-Aminoethyl)phosphonic acid;Ciliatine;(2-Aminoethyl)phosphonic acid;Phosphonoethylamine;2-Aminoethanephosphonic acid;β-Aminoethylphosphonic acid;NSC 133837",
    "duplicated_cas_no": "",
    "SMILES": "C(P(=O)(O)O)CN",
    "meta_data": {
        "InChI": "InChI=1S/C2H8NO3P/c3-1-2-7(4,5)6/h1-3H2,(H2,4,5,6)",
        "InChIKey": null,
        "Canonical SMILES": "O=P(O)(O)CCN",
        "Molecular Formula": "C<sub>2</sub>H<sub>8</sub>NO<sub>3</sub>P",
        "Molecular Mass": "125.06",
        "Melting Point": "281-282 °C"
    }
}