{
    "cas_no": "599-70-2",
    "key_name": "(Ethylsulfonyl)benzene",
    "cn_name": "乙基苯基砜;",
    "alternate_name": "Benzene, (ethylsulfonyl)-;Sulfone, ethyl phenyl;(Ethylsulfonyl)benzene;Ethyl phenyl sulfone;Phenyl ethyl sulfone;Phenylsulfonylethane;(Ethanesulfonyl)benzene",
    "duplicated_cas_no": "",
    "SMILES": "S(CC)(=O)(=O)C1=CC=CC=C1",
    "meta_data": {
        "InChI": "InChI=1S/C8H10O2S/c1-2-11(9,10)8-6-4-3-5-7-8/h3-7H,2H2,1H3",
        "InChIKey": null,
        "Canonical SMILES": "O=S(=O)(C=1C=CC=CC1)CC",
        "Molecular Formula": "C<sub>8</sub>H<sub>10</sub>O<sub>2</sub>S",
        "Molecular Mass": "170.23",
        "Boiling Point": "101-103 °C @ Press: 1 Torr",
        "Melting Point": "42 °C"
    }
}