{
    "cas_no": "68077-26-9",
    "key_name": "7-Chloro-1-ethyl-6-fluoro-1,4-dihydro-4-oxoquinoline-3-carboxylic acid",
    "cn_name": "7-氯-1-乙基-6-氟-4-氧代-1,4-二氢-3-喹啉羧酸;",
    "alternate_name": "3-Quinolinecarboxylic acid, 7-chloro-1-ethyl-6-fluoro-1,4-dihydro-4-oxo-;7-Chloro-1-ethyl-6-fluoro-1,4-dihydro-4-oxo-3-quinolinecarboxylic acid;CGA 78039;7-Chloro-1-ethyl-6-fluoro-1,4-dihydro-4-oxoquinoline-3-carboxylic acid;7-Chloro-1,4-dihydro-1-ethyl-6-fluoro-4-oxo-3-quinolinecarboxylic acid;M 193324;1-Ethyl-7-chloro-6-fluoro-1,4-dihydro-4-oxo-3-quinolinecarboxylic acid;1-Ethyl-1,4-dihydro-4-oxo-6-fluoro-7-chloro-3-quinolinecarboxylic acid;7-Chloro-1-ethyl-6-fluoroquinolin-4-one-3-carboxylic acid;7-Chloro-1-ethyl-6-fluoro-4-oxo-1,4-dihydroquinoline-3-carboxylic acid;1-Ethyl-6-fluoro-7-chloro-4-oxo-1,4-dihydro-quinoline-3-carboxylic acid;1-Ethyl-6-fluoro-7-chloro-1,4-dihydro-4-oxoquinoline-3-carboxylic acid",
    "duplicated_cas_no": "",
    "SMILES": "C(C)N1C=2C(C(=O)C(C(O)=O)=C1)=CC(F)=C(Cl)C2",
    "meta_data": {
        "InChI": "InChI=1S/C12H9ClFNO3/c1-2-15-5-7(12(17)18)11(16)6-3-9(14)8(13)4-10(6)15/h3-5H,2H2,1H3,(H,17,18)",
        "InChIKey": null,
        "Canonical SMILES": "O=C(O)C1=CN(C2=CC(Cl)=C(F)C=C2C1=O)CC",
        "Molecular Formula": "C<sub>12</sub>H<sub>9</sub>ClFNO<sub>3</sub>",
        "Molecular Mass": "269.66",
        "Melting Point": "208-210 °C"
    }
}