{
    "cas_no": "243977-23-3",
    "key_name": "4-[(Trifluoromethyl)thio]benzeneacetic acid",
    "cn_name": null,
    "alternate_name": "Benzeneacetic acid, 4-[(trifluoromethyl)thio]-;4-[(Trifluoromethyl)thio]benzeneacetic acid;4-(Trifluoromethylthio)phenylacetic acid;4-(Trifluoromethylsulfanyl)phenylacetic acid;2-[4-(Trifluoromethylthio)phenyl]acetic acid;2-[4-[(Trifluoromethyl)sulfanyl]phenyl]acetic acid",
    "duplicated_cas_no": "",
    "SMILES": "S(C(F)(F)F)C1=CC=C(CC(O)=O)C=C1",
    "meta_data": {
        "InChI": "InChI=1S/C9H7F3O2S/c10-9(11,12)15-7-3-1-6(2-4-7)5-8(13)14/h1-4H,5H2,(H,13,14)",
        "InChIKey": null,
        "Canonical SMILES": "O=C(O)CC1=CC=C(SC(F)(F)F)C=C1",
        "Molecular Formula": "C<sub>9</sub>H<sub>7</sub>F<sub>3</sub>O<sub>2</sub>S",
        "Molecular Mass": "236.21",
        "Melting Point": "116-117.5 °C"
    }
}