{
    "cas_no": "2033-94-5",
    "key_name": "2-Methyl-1-phenyl-3-butyne-1,2-diol",
    "cn_name": null,
    "alternate_name": "3-Butyne-1,2-diol, 2-methyl-1-phenyl-;2-Methyl-1-phenyl-3-butyne-1,2-diol;Centalun;3-Methyl-3,4-dihydroxy-4-phenyl-1-butyne",
    "duplicated_cas_no": "",
    "SMILES": "C(C(C#C)(C)O)(O)C1=CC=CC=C1",
    "meta_data": {
        "InChI": "InChI=1S/C11H12O2/c1-3-11(2,13)10(12)9-7-5-4-6-8-9/h1,4-8,10,12-13H,2H3",
        "InChIKey": null,
        "Canonical SMILES": "C#CC(O)(C)C(O)C=1C=CC=CC1",
        "Molecular Formula": "C<sub>11</sub>H<sub>12</sub>O<sub>2</sub>",
        "Molecular Mass": "176.21",
        "Melting Point": "62-65 °C"
    }
}