{
    "cas_no": "57774-36-4",
    "key_name": "4′-Chloro[1,1′-biphenyl]-4-carbonitrile",
    "cn_name": "4\"-氯-4-氰基联苯;",
    "alternate_name": "[1,1′-Biphenyl]-4-carbonitrile, 4′-chloro-;4-Biphenylcarbonitrile, 4′-chloro-;4′-Chloro[1,1′-biphenyl]-4-carbonitrile;4′-Chloro-1,1′-biphenyl-4-ylcarbonitrile;4′-Chlorobiphenyl-4-carbonitrile",
    "duplicated_cas_no": "",
    "SMILES": "C(#N)C1=CC=C(C=C1)C2=CC=C(Cl)C=C2",
    "meta_data": {
        "InChI": "InChI=1S/C13H8ClN/c14-13-7-5-12(6-8-13)11-3-1-10(9-15)2-4-11/h1-8H",
        "InChIKey": null,
        "Canonical SMILES": "N#CC1=CC=C(C=C1)C=2C=CC(Cl)=CC2",
        "Molecular Formula": "C<sub>13</sub>H<sub>8</sub>ClN",
        "Molecular Mass": "213.66",
        "Melting Point": "129-130 °C"
    }
}