{
    "cas_no": "4798-44-1",
    "key_name": "1-Vinylbutanol",
    "cn_name": "1-己烯-3-醇;",
    "alternate_name": "1-Hexen-3-ol;Propylvinylcarbinol;3-Hydroxy-1-hexene;1-Vinylbutanol;(±)-1-Hexen-3-ol;1-Propylallyl alcohol;NSC 89701",
    "duplicated_cas_no": "67928-93-2",
    "SMILES": "C(CCC)(C=C)O",
    "meta_data": {
        "InChI": "InChI=1S/C6H12O/c1-3-5-6(7)4-2/h4,6-7H,2-3,5H2,1H3",
        "InChIKey": null,
        "Canonical SMILES": "OC(C=C)CCC",
        "Molecular Formula": "C<sub>6</sub>H<sub>12</sub>O",
        "Molecular Mass": "100.16",
        "Boiling Point": "134 °C",
        "Density": "0.834 g/cm³ @ Temp: 22 °C"
    }
}