{
    "cas_no": "39098-75-4",
    "key_name": "Cyclohexanepropanoyl chloride",
    "cn_name": "3-环己基丙酰氯;",
    "alternate_name": "Cyclohexanepropanoyl chloride;Cyclohexanepropionyl chloride;3-Cyclohexylpropionyl chloride;3-Cyclohexylpropionic acid chloride;3-Cyclohexylpropanoyl chloride;3-Cyclohexanepropionyl chloride",
    "duplicated_cas_no": "",
    "SMILES": "C(CC(Cl)=O)C1CCCCC1",
    "meta_data": {
        "InChI": "InChI=1S/C9H15ClO/c10-9(11)7-6-8-4-2-1-3-5-8/h8H,1-7H2",
        "InChIKey": null,
        "Canonical SMILES": "O=C(Cl)CCC1CCCCC1",
        "Molecular Formula": "C<sub>9</sub>H<sub>15</sub>ClO",
        "Molecular Mass": "174.67",
        "Boiling Point": "108 °C @ Press: 17 Torr"
    }
}