{
    "cas_no": "2294-76-0",
    "key_name": "2-Pentylpyridine",
    "cn_name": "2-戊基吡啶;",
    "alternate_name": "Pyridine, 2-pentyl-;2-Pentylpyridine;NSC 4693",
    "duplicated_cas_no": "",
    "SMILES": "C(CCCC)C1=CC=CC=N1",
    "meta_data": {
        "InChI": "InChI=1S/C10H15N/c1-2-3-4-7-10-8-5-6-9-11-10/h5-6,8-9H,2-4,7H2,1H3",
        "InChIKey": null,
        "Canonical SMILES": "N=1C=CC=CC1CCCCC",
        "Molecular Formula": "C<sub>10</sub>H<sub>15</sub>N",
        "Molecular Mass": "149.23",
        "Boiling Point": "206.5-207.0 °C",
        "Density": "0.9016 g/cm³ @ Temp: 20 °C"
    }
}