{
    "cas_no": "487-41-2",
    "key_name": "Phillyrin",
    "cn_name": "连翘苷;",
    "alternate_name": "β-<span class=\"text-smallcaps\">D</span>-Glucopyranoside, 4-[(1<em>S</em>,3a<em>R</em>,4<em>R</em>,6a<em>R</em>)-4-(3,4-dimethoxyphenyl)tetrahydro-1<em>H</em>,3<em>H</em>-furo[3,4-<em>c</em>]furan-1-yl]-2-methoxyphenyl;Phillyrin;Phyllyrin;β-<span class=\"text-smallcaps\">D</span>-Glucopyranoside, 4-[4-(3,4-dimethoxyphenyl)tetrahydro-1<em>H</em>,3<em>H</em>-furo[3,4-<em>c</em>]furan-1-yl]-2-methoxyphenyl, [1<em>S</em>-(1α,3aα,4β,6aα)]-;1<em>H</em>,3<em>H</em>-Furo[3,4-<em>c</em>]furan, β-<span class=\"text-smallcaps\">D</span>-glucopyranoside deriv.;4-[(1<em>S</em>,3a<em>R</em>,4<em>R</em>,6a<em>R</em>)-4-(3,4-Dimethoxyphenyl)tetrahydro-1<em>H</em>,3<em>H</em>-furo[3,4-<em>c</em>]furan-1-yl]-2-methoxyphenyl β-<span class=\"text-smallcaps\">D</span>-glucopyranoside;Phillyroside;Phillygenin β-<span class=\"text-smallcaps\">D</span>-glucopyranoside",
    "duplicated_cas_no": "81446-28-8",
    "SMILES": "O(C)C=1C=C([C@@H]2[C@@]3([C@@]([C@@H](OC3)C4=CC(OC)=C(OC)C=C4)(CO2)[H])[H])C=CC1O[C@@H]5O[C@H](CO)[C@@H](O)[C@H](O)[C@H]5O",
    "meta_data": {
        "InChI": "InChI=1S/C27H34O11/c1-32-17-6-4-13(8-19(17)33-2)25-15-11-36-26(16(15)12-35-25)14-5-7-18(20(9-14)34-3)37-27-24(31)23(30)22(29)21(10-28)38-27/h4-9,15-16,21-31H,10-12H2,1-3H3/t15-,16-,21+,22+,23-,24+,25-,26+,27+/m0/s1",
        "InChIKey": null,
        "Canonical SMILES": "OCC1OC(OC2=CC=C(C=C2OC)C3OCC4C(OCC34)C5=CC=C(OC)C(OC)=C5)C(O)C(O)C1O",
        "Molecular Formula": "C<sub>27</sub>H<sub>34</sub>O<sub>11</sub>",
        "Molecular Mass": "534.55",
        "Melting Point": "166-168 °C"
    }
}