{
    "cas_no": "2177-62-0",
    "key_name": "Aspartic acid β-methyl ester",
    "cn_name": "L-天冬氨酸-4-甲酯;(2S)-2-氨基-4-甲氧基-4-氧代丁酸;",
    "alternate_name": "<span class=\"text-smallcaps\">L</span>-Aspartic acid, 4-methyl ester;Aspartic acid, 4-methyl ester, <span class=\"text-smallcaps\">L</span>-;Aspartic acid β-methyl ester;<span class=\"text-smallcaps\">L</span>-Aspartic acid β-methyl ester;β-<span class=\"text-smallcaps\">L</span>-Aspartyl methyl ester;β-Methyl aspartate;(<em>S</em>)-2-Aminobutanedioic acid 4-methyl ester;4-Methyl <span class=\"text-smallcaps\">L</span>-aspartate;β-Methyl <span class=\"text-smallcaps\">L</span>-aspartate;(<em>S</em>)-2-Amino-4-methoxy-4-oxobutanoic acid",
    "duplicated_cas_no": "7481-56-3",
    "SMILES": "C([C@@H](C(O)=O)N)C(OC)=O",
    "meta_data": {
        "InChI": "InChI=1S/C5H9NO4/c1-10-4(7)2-3(6)5(8)9/h3H,2,6H2,1H3,(H,8,9)/t3-/m0/s1",
        "InChIKey": null,
        "Canonical SMILES": "O=C(O)C(N)CC(=O)OC",
        "Molecular Formula": "C<sub>5</sub>H<sub>9</sub>NO<sub>4</sub>",
        "Molecular Mass": "147.13",
        "Melting Point": "193-195 °C"
    }
}