{
    "cas_no": "67515-60-0",
    "key_name": "4-Fluoro-3-(trifluoromethyl)benzaldehyde",
    "cn_name": "4-氟-3-三氟甲基苯甲醛;",
    "alternate_name": "Benzaldehyde, 4-fluoro-3-(trifluoromethyl)-;4-Fluoro-3-(trifluoromethyl)benzaldehyde;α,α,α,4-Tetrafluoro-<em>m</em>-tolylaldehyde;4-Fluoro-3-trifluoromethylbenzaldehyde;4-Fluoro-5-(trifluoromethyl)benzaldehyde;3-Trifluoromethyl-4-fluorobenzaldehyde",
    "duplicated_cas_no": "",
    "SMILES": "C(F)(F)(F)C1=CC(C=O)=CC=C1F",
    "meta_data": {
        "InChI": "InChI=1S/C8H4F4O/c9-7-2-1-5(4-13)3-6(7)8(10,11)12/h1-4H",
        "InChIKey": null,
        "Canonical SMILES": "O=CC1=CC=C(F)C(=C1)C(F)(F)F",
        "Molecular Formula": "C<sub>8</sub>H<sub>4</sub>F<sub>4</sub>O",
        "Molecular Mass": "192.11",
        "Boiling Point": "70-72 °C @ Press: 9.0 Torr"
    }
}