{
    "cas_no": "29886-64-4",
    "key_name": "4-(3-Thienyl)benzoic acid",
    "cn_name": "4-(3-噻吩基)苯甲酸;",
    "alternate_name": "Benzoic acid, 4-(3-thienyl)-;Benzoic acid, <em>p</em>-3-thienyl-;4-(3-Thienyl)benzoic acid;4-(Thien-3-yl)benzoic acid;4-Thiophen-3-yl-benzoic acid",
    "duplicated_cas_no": "",
    "SMILES": "C(O)(=O)C1=CC=C(C=C1)C=2C=CSC2",
    "meta_data": {
        "InChI": "InChI=1S/C11H8O2S/c12-11(13)9-3-1-8(2-4-9)10-5-6-14-7-10/h1-7H,(H,12,13)",
        "InChIKey": null,
        "Canonical SMILES": "O=C(O)C1=CC=C(C=C1)C2=CSC=C2",
        "Molecular Formula": "C<sub>11</sub>H<sub>8</sub>O<sub>2</sub>S",
        "Molecular Mass": "204.24",
        "Melting Point": "280 °C"
    }
}