{
    "cas_no": "4045-30-1",
    "key_name": "4,4-Dimethylpiperidine",
    "cn_name": null,
    "alternate_name": "Piperidine, 4,4-dimethyl-;4,4-Dimethylpiperidine;NSC 107116",
    "duplicated_cas_no": "",
    "SMILES": "CC1(C)CCNCC1",
    "meta_data": {
        "InChI": "InChI=1S/C7H15N/c1-7(2)3-5-8-6-4-7/h8H,3-6H2,1-2H3",
        "InChIKey": null,
        "Canonical SMILES": "N1CCC(C)(C)CC1",
        "Molecular Formula": "C<sub>7</sub>H<sub>15</sub>N",
        "Molecular Mass": "113.20",
        "Boiling Point": "145-146 °C"
    }
}