{
    "cas_no": "1878-94-0",
    "key_name": "4-Iodophenoxyacetic acid",
    "cn_name": "对碘苯氧乙酸;",
    "alternate_name": "Acetic acid, 2-(4-iodophenoxy)-;Acetic acid, (<em>p</em>-iodophenoxy)-;Acetic acid, (4-iodophenoxy)-;2-(4-Iodophenoxy)acetic acid;4-Iodophenoxyacetic acid;<em>p</em>-Iodophenoxyacetic acid",
    "duplicated_cas_no": "",
    "SMILES": "O(CC(O)=O)C1=CC=C(I)C=C1",
    "meta_data": {
        "InChI": "InChI=1S/C8H7IO3/c9-6-1-3-7(4-2-6)12-5-8(10)11/h1-4H,5H2,(H,10,11)",
        "InChIKey": null,
        "Canonical SMILES": "O=C(O)COC1=CC=C(I)C=C1",
        "Molecular Formula": "C<sub>8</sub>H<sub>7</sub>IO<sub>3</sub>",
        "Molecular Mass": "278.04",
        "Melting Point": "155-156 °C"
    }
}