{
    "cas_no": "2212-67-1",
    "key_name": "Molinate",
    "cn_name": "禾草敌;N,N-六亚甲基硫代氨基甲酸-S-乙酯;",
    "alternate_name": "1<em>H</em>-Azepine-1-carbothioic acid, hexahydro-, <em>S</em>-ethyl ester;R 4572;<em>S</em>-Ethyl hexahydro-1<em>H</em>-azepine-1-carbothioate;Ethyl 1-hexamethyleneiminecarbothiolate;Hydram;Molinate;Stauffer R 4572;Yalan;Ordram;<em>S</em>-Ethyl hexahydroazepine-1-carbothioate;Jalan;<em>S</em>-Ethyl <em>N</em>,<em>N</em>-hexamethylenethiocarbamate;Yulan;Felan;SC 9908;(Azepan-1-yl)(ethylsulfanyl)methanone",
    "duplicated_cas_no": "71373-13-2",
    "SMILES": "C(SCC)(=O)N1CCCCCC1",
    "meta_data": {
        "InChI": "InChI=1S/C9H17NOS/c1-2-12-9(11)10-7-5-3-4-6-8-10/h2-8H2,1H3",
        "InChIKey": null,
        "Canonical SMILES": "O=C(SCC)N1CCCCCC1",
        "Molecular Formula": "C<sub>9</sub>H<sub>17</sub>NOS",
        "Molecular Mass": "187.30",
        "Boiling Point": "136.5 °C @ Press: 10 Torr",
        "Melting Point": "&lt;25 °C",
        "Density": "1.063 g/cm³ @ Temp: 20 °C"
    }
}