{
    "cas_no": "937-41-7",
    "key_name": "Phenyl acrylate",
    "cn_name": "丙烯酸苯酯;丙烯酸苯酯;",
    "alternate_name": "2-Propenoic acid, phenyl ester;Acrylic acid, phenyl ester;Phenyl acrylate;Phenyl propenoate;Phenyl 2-propenoate",
    "duplicated_cas_no": "",
    "SMILES": "O(C(C=C)=O)C1=CC=CC=C1",
    "meta_data": {
        "InChI": "InChI=1S/C9H8O2/c1-2-9(10)11-8-6-4-3-5-7-8/h2-7H,1H2",
        "InChIKey": null,
        "Canonical SMILES": "O=C(OC=1C=CC=CC1)C=C",
        "Molecular Formula": "C<sub>9</sub>H<sub>8</sub>O<sub>2</sub>",
        "Molecular Mass": "148.16",
        "Boiling Point": "202-203 °C",
        "Density": "1.0762 g/cm³ @ Temp: 20 °C"
    }
}