{
    "cas_no": "101-94-0",
    "key_name": "<em>p</em>-Cresyl phenylacetate",
    "cn_name": "苯乙酸对甲酚酯;4-甲苯基苯乙酸酯;",
    "alternate_name": "Benzeneacetic acid, 4-methylphenyl ester;Acetic acid, phenyl-, <em>p</em>-tolyl ester;<em>p</em>-Cresyl α-toluate;<em>p</em>-Tolyl phenylacetate;<em>p</em>-Tolyl α-toluate;<em>p</em>-Cresyl phenylacetate;NSC 5981;<em>p</em>-Cresyl 2-phenylacetate;(4-Methylphenyl) 2-phenylacetate",
    "duplicated_cas_no": "",
    "SMILES": "O(C(CC1=CC=CC=C1)=O)C2=CC=C(C)C=C2",
    "meta_data": {
        "InChI": "InChI=1S/C15H14O2/c1-12-7-9-14(10-8-12)17-15(16)11-13-5-3-2-4-6-13/h2-10H,11H2,1H3",
        "InChIKey": null,
        "Canonical SMILES": "O=C(OC1=CC=C(C=C1)C)CC=2C=CC=CC2",
        "Molecular Formula": "C<sub>15</sub>H<sub>14</sub>O<sub>2</sub>",
        "Molecular Mass": "226.27",
        "Melting Point": "74-75 °C"
    }
}