{
    "cas_no": "31161-71-4",
    "key_name": "Benzyl myristate",
    "cn_name": null,
    "alternate_name": "Tetradecanoic acid, phenylmethyl ester;Benzyl tetradecanoate;Benzyl myristate;Myristic acid benzyl ester",
    "duplicated_cas_no": "",
    "SMILES": "C(OC(CCCCCCCCCCCCC)=O)C1=CC=CC=C1",
    "meta_data": {
        "InChI": "InChI=1S/C21H34O2/c1-2-3-4-5-6-7-8-9-10-11-15-18-21(22)23-19-20-16-13-12-14-17-20/h12-14,16-17H,2-11,15,18-19H2,1H3",
        "InChIKey": null,
        "Canonical SMILES": "O=C(OCC=1C=CC=CC1)CCCCCCCCCCCCC",
        "Molecular Formula": "C<sub>21</sub>H<sub>34</sub>O<sub>2</sub>",
        "Molecular Mass": "318.49",
        "Boiling Point": "229-231 °C @ Press: 11 Torr",
        "Melting Point": "20.5 °C",
        "Density": "0.9321 g/cm³ @ Temp: 25 °C"
    }
}