{
    "cas_no": "3194-55-6",
    "key_name": "1,2,5,6,9,10-Hexabromocyclododecane",
    "cn_name": "六溴环十二烷;",
    "alternate_name": "Cyclododecane, 1,2,5,6,9,10-hexabromo-;1,2,5,6,9,10-Hexabromocyclododecane;Bromkal 73-6D;YM 88A;FR 1206HT;FR 1206;Pyroguard SR 104;SR 104",
    "duplicated_cas_no": "23774-70-1",
    "SMILES": "BrC1C(Br)CCC(Br)C(Br)CCC(Br)C(Br)CC1",
    "meta_data": {
        "InChI": "InChI=1S/C12H18Br6/c13-7-1-2-8(14)10(16)5-6-12(18)11(17)4-3-9(7)15/h7-12H,1-6H2",
        "InChIKey": null,
        "Canonical SMILES": "BrC1CCC(Br)C(Br)CCC(Br)C(Br)CCC1Br",
        "Molecular Formula": "C<sub>12</sub>H<sub>18</sub>Br<sub>6</sub>",
        "Molecular Mass": "641.70",
        "Melting Point": "185-195 °C"
    }
}