{
    "cas_no": "2391-03-9",
    "key_name": "(+)-Brompheniramine maleate",
    "cn_name": "右旋溴苯那敏马来酸盐;",
    "alternate_name": "2-Pyridinepropanamine, γ-(4-bromophenyl)-<em>N</em>,<em>N</em>-dimethyl-, (γ<em>S</em>)-, (2<em>Z</em>)-2-butenedioate (1:1);2-Pyridinepropanamine, γ-(4-bromophenyl)-<em>N</em>,<em>N</em>-dimethyl-, (<em>S</em>)-, (<em>Z</em>)-2-butenedioate (1:1);Pyridine, 2-[<em>p</em>-bromo-α-[2-(dimethylamino)ethyl]benzyl]-, maleate (1:1), (<em>S</em>)-;<em>d</em>-2-[<em>p</em>-Bromo-α-(2-dimethylaminoethyl)benzyl]pyridine maleate;1-(<em>p</em>-Bromophenyl)-1-(2-pyridyl)-3-dimethylamine propane maleate;Dexbrompheniramine maleate;Disomer maleate;Dimegan;Drixoral;Disomer;(+)-Brompheniramine maleate;(<em>S</em>)-3-(4-Bromophenyl)-<em>N</em>,<em>N</em>-dimethyl-3-(pyridin-2-yl)propan-1-amine maleate",
    "duplicated_cas_no": "19141-43-6",
    "SMILES": "[C@H](CCN(C)C)(C1=CC=C(Br)C=C1)C2=CC=CC=N2.C(=C\\C(O)=O)\\C(O)=O",
    "meta_data": {
        "InChI": "",
        "InChIKey": null,
        "Canonical SMILES": "O=C(O)C=CC(=O)O.BrC1=CC=C(C=C1)C(C2=NC=CC=C2)CCN(C)C",
        "Molecular Formula": "C<sub>16</sub>H<sub>19</sub>BrN<sub>2</sub>.C<sub>4</sub>H<sub>4</sub>O<sub>4</sub>",
        "Molecular Mass": "",
        "Melting Point": "132-134 °C"
    }
}