{
    "cas_no": "2160-93-2",
    "key_name": "<em>tert</em>-Butyldiethanolamine",
    "cn_name": "N-叔丁基二乙醇胺;N,N-双(2-羟乙基)叔丁基胺;N-叔丁基-2,2′-亚氨基二乙醇;",
    "alternate_name": "Ethanol, 2,2′-[(1,1-dimethylethyl)imino]bis-;Ethanol, 2,2′-(<em>tert</em>-butylimino)di-;2,2′-[(1,1-Dimethylethyl)imino]bis[ethanol];3-<em>tert</em>-Butyl-3-aza-1,5-pentanediol;<em>tert</em>-Butyldiethanolamine;2,2′-(<em>tert</em>-Butylimino)diethanol;<em>N</em>-<em>tert</em>-Butyldiethanolamine;<em>N</em>-<em>tert</em>-Butyliminodiethanol;<em>N</em>-<em>tert</em>-Butylbis(2-hydroxyethyl)amine;<em>N</em>-<em>tert</em>-Butyl-2,2′-iminodiethanol;<em>tert</em>-Butylbis(2-hydroxyethyl)amine;<em>N</em>-<em>tert</em>-Butyl-di(2-hydroxyethyl)amine;NSC 525736;Amino Alcohol BDEA;<em>N</em>,<em>N</em>-Bis(2-hydroxyethyl)-<em>tert</em>-butylamine;t-BuDEA;2,2′-(<em>tert</em>-Butylazanediyl)diethanol;2-[<em>tert</em>-Butyl(2-hydroxyethyl)amino]ethanol;2-[<em>tert</em>-Butyl(2-hydroxyethyl)amino]ethan-1-ol",
    "duplicated_cas_no": "",
    "SMILES": "N(C(C)(C)C)(CCO)CCO",
    "meta_data": {
        "InChI": "InChI=1S/C8H19NO2/c1-8(2,3)9(4-6-10)5-7-11/h10-11H,4-7H2,1-3H3",
        "InChIKey": null,
        "Canonical SMILES": "OCCN(CCO)C(C)(C)C",
        "Molecular Formula": "C<sub>8</sub>H<sub>19</sub>NO<sub>2</sub>",
        "Molecular Mass": "161.24",
        "Boiling Point": "136-139 °C @ Press: 12 Torr",
        "Melting Point": "189 °C"
    }
}