{
    "cas_no": "5007-67-0",
    "key_name": "3,3′,4,4′-Tetraaminobenzophenone",
    "cn_name": null,
    "alternate_name": "Methanone, bis(3,4-diaminophenyl)-;Benzophenone, 3,3′,4,4′-tetraamino-;Bis(3,4-diaminophenyl)methanone;3,3′,4,4′-Tetraaminobenzophenone",
    "duplicated_cas_no": "",
    "SMILES": "C(=O)(C1=CC(N)=C(N)C=C1)C2=CC(N)=C(N)C=C2",
    "meta_data": {
        "InChI": "InChI=1S/C13H14N4O/c14-9-3-1-7(5-11(9)16)13(18)8-2-4-10(15)12(17)6-8/h1-6H,14-17H2",
        "InChIKey": null,
        "Canonical SMILES": "O=C(C1=CC=C(N)C(N)=C1)C2=CC=C(N)C(N)=C2",
        "Molecular Formula": "C<sub>13</sub>H<sub>14</sub>N<sub>4</sub>O",
        "Molecular Mass": "242.28",
        "Melting Point": "217 °C"
    }
}