{
    "cas_no": "31186-12-6",
    "key_name": "Altenusin",
    "cn_name": null,
    "alternate_name": "[1,1′-Biphenyl]-2-carboxylic acid, 3,4′,5′-trihydroxy-5-methoxy-2′-methyl-;[1,1′-Biphenyl]-2-carboxylic acid, 2,4′,5′-trihydroxy-5-methoxy-2′-methyl-;3,4′,5′-Trihydroxy-5-methoxy-2′-methyl[1,1′-biphenyl]-2-carboxylic acid;Altenusin;Alutenusin",
    "duplicated_cas_no": "1402-75-1",
    "SMILES": "C(O)(=O)C1=C(C=C(OC)C=C1O)C2=C(C)C=C(O)C(O)=C2",
    "meta_data": {
        "InChI": "InChI=1S/C15H14O6/c1-7-3-11(16)12(17)6-9(7)10-4-8(21-2)5-13(18)14(10)15(19)20/h3-6,16-18H,1-2H3,(H,19,20)",
        "InChIKey": null,
        "Canonical SMILES": "O=C(O)C1=C(O)C=C(OC)C=C1C=2C=C(O)C(O)=CC2C",
        "Molecular Formula": "C<sub>15</sub>H<sub>14</sub>O<sub>6</sub>",
        "Molecular Mass": "290.27",
        "Melting Point": "202-203 °C"
    }
}