{
    "cas_no": "627-40-7",
    "key_name": "Allyl methyl ether",
    "cn_name": "3-甲氧基-1-丙烯;烯丙基甲基醚;甲基烯丙基醚;",
    "alternate_name": "1-Propene, 3-methoxy-;Ether, allyl methyl;3-Methoxy-1-propene;Allyl methyl ether;1-Methoxy-2-propene;Methyl allyl ether;3-Methoxypropene;4-Oxapent-1-ene;Methyl 2-propenyl ether",
    "duplicated_cas_no": "",
    "SMILES": "C(C=C)OC",
    "meta_data": {
        "InChI": "InChI=1S/C4H8O/c1-3-4-5-2/h3H,1,4H2,2H3",
        "InChIKey": null,
        "Canonical SMILES": "O(C)CC=C",
        "Molecular Formula": "C<sub>4</sub>H<sub>8</sub>O",
        "Molecular Mass": "72.11",
        "Boiling Point": "44 °C",
        "Density": "0.7569 g/cm³ @ Temp: 20 °C"
    }
}