{
    "cas_no": "13861-22-8",
    "key_name": "Propargyl methacrylate",
    "cn_name": null,
    "alternate_name": "2-Propenoic acid, 2-methyl-, 2-propyn-1-yl ester;Methacrylic acid, 2-propynyl ester;2-Propenoic acid, 2-methyl-, 2-propynyl ester;Propargyl methacrylate;2-Propynyl methacrylate",
    "duplicated_cas_no": "",
    "SMILES": "C(C(C)=C)(OCC#C)=O",
    "meta_data": {
        "InChI": "InChI=1S/C7H8O2/c1-4-5-9-7(8)6(2)3/h1H,2,5H2,3H3",
        "InChIKey": null,
        "Canonical SMILES": "O=C(OCC#C)C(=C)C",
        "Molecular Formula": "C<sub>7</sub>H<sub>8</sub>O<sub>2</sub>",
        "Molecular Mass": "124.14",
        "Boiling Point": "43 °C @ Press: 6.5 Torr",
        "Density": "0.9865 g/cm³ @ Temp: 20 °C"
    }
}