{
    "cas_no": "1015082-78-6",
    "key_name": "Borate(1-), trifluoro[4-(hydroxymethyl)phenyl]-, potassium (1:1), (<em>T</em>-4)-",
    "cn_name": null,
    "alternate_name": "Borate(1-), trifluoro[4-(hydroxymethyl)phenyl]-, potassium (1:1), (<em>T</em>-4)-;Potassium 4-(hydroxymethyl)phenyl(trifluoro)borate",
    "duplicated_cas_no": "",
    "SMILES": "[B+3]([F-])([F-])([F-])[C-]=1C=CC(CO)=CC1.[K+]",
    "meta_data": {
        "InChI": "InChI=1S/C7H7BF3O.K/c9-8(10,11)7-3-1-6(5-12)2-4-7;/h1-4,12H,5H2;/q-1;+1",
        "InChIKey": null,
        "Canonical SMILES": "[K+].[F-][B+3]([F-])([F-])[C-]1=CC=C(C=C1)CO",
        "Molecular Formula": "C<sub>7</sub>H<sub>7</sub>BF<sub>3</sub>O.K",
        "Molecular Mass": "",
        "Melting Point": "211 °C"
    }
}