{
    "cas_no": "62708-56-9",
    "key_name": "<em>O</em>,<em>O</em>′-Dibenzoyl-(2<em>R</em>,3<em>R</em>)-tartaric acid monohydrate",
    "cn_name": "L-(-)-二苯甲酰酒石酸一水物;",
    "alternate_name": "Butanedioic acid, 2,3-bis(benzoyloxy)-, hydrate (1:1), (2<em>R</em>,3<em>R</em>)-;Butanedioic acid, 2,3-bis(benzoyloxy)-, monohydrate, [<em>R</em>-(<em>R</em>*,<em>R</em>*)]-;<em>O</em>,<em>O</em>′-Dibenzoyl-(2<em>R</em>,3<em>R</em>)-tartaric acid monohydrate;<em>O</em>,<em>O</em>′-(2R,3R)-Dibenzoyltartaric acid monohydrate;(-)-Dibenzoyl-<span class=\"text-smallcaps\">L</span>-tartaric acid monohydrate",
    "duplicated_cas_no": "1154413-19-0",
    "SMILES": "[C@H]([C@@H](OC(=O)C1=CC=CC=C1)C(O)=O)(OC(=O)C2=CC=CC=C2)C(O)=O.O",
    "meta_data": {
        "InChI": "InChI=1S/C18H14O8.H2O/c19-15(20)13(25-17(23)11-7-3-1-4-8-11)14(16(21)22)26-18(24)12-9-5-2-6-10-12;/h1-10,13-14H,(H,19,20)(H,21,22);1H2/t13-,14-;/m1./s1",
        "InChIKey": null,
        "Canonical SMILES": "O=C(OC(C(=O)O)C(OC(=O)C=1C=CC=CC1)C(=O)O)C=2C=CC=CC2.O",
        "Molecular Formula": "C<sub>18</sub>H<sub>14</sub>O<sub>8</sub>.H<sub>2</sub>O",
        "Molecular Mass": "",
        "Melting Point": "88-89.8 °C"
    }
}