{
    "cas_no": "1300-94-3",
    "key_name": "Amylmetacresol",
    "cn_name": "戊甲酚;戊甲酚;",
    "alternate_name": "Phenol, 5-methyl-2-pentyl-;<em>m</em>-Cresol, 6-pentyl-;5-Methyl-2-pentylphenol;6-<em>n</em>-Amyl-<em>m</em>-cresol;Amylmetacresol",
    "duplicated_cas_no": "53043-14-4",
    "SMILES": "C(CCCC)C1=C(O)C=C(C)C=C1",
    "meta_data": {
        "InChI": "InChI=1S/C12H18O/c1-3-4-5-6-11-8-7-10(2)9-12(11)13/h7-9,13H,3-6H2,1-2H3",
        "InChIKey": null,
        "Canonical SMILES": "OC1=CC(=CC=C1CCCCC)C",
        "Molecular Formula": "C<sub>12</sub>H<sub>18</sub>O",
        "Molecular Mass": "178.27",
        "Boiling Point": "119-122 °C @ Press: 10 Torr",
        "Melting Point": "24 °C"
    }
}