{
    "cas_no": "2386-60-9",
    "key_name": "Butanesulfonyl chloride",
    "cn_name": "1-丁基磺酰氯;",
    "alternate_name": "1-Butanesulfonyl chloride;Butanesulfonyl chloride;Butylsulfonyl chloride;1-Butylsulfonyl chloride;<em>n</em>-Butanesulfonyl chloride;<em>n</em>-Butylsulfonyl chloride;NSC 8027",
    "duplicated_cas_no": "",
    "SMILES": "C(S(Cl)(=O)=O)CCC",
    "meta_data": {
        "InChI": "InChI=1S/C4H9ClO2S/c1-2-3-4-8(5,6)7/h2-4H2,1H3",
        "InChIKey": null,
        "Canonical SMILES": "O=S(=O)(Cl)CCCC",
        "Molecular Formula": "C<sub>4</sub>H<sub>9</sub>ClO<sub>2</sub>S",
        "Molecular Mass": "156.63",
        "Boiling Point": "90 °C",
        "Melting Point": "-29 °C",
        "Density": "1.2404 g/cm³ @ Temp: 0 °C"
    }
}