{
    "cas_no": "10161-34-9",
    "key_name": "Trenbolone acetate",
    "cn_name": "群勃龙醋酸酯;",
    "alternate_name": "Estra-4,9,11-trien-3-one, 17-(acetyloxy)-, (17β)-;Estra-4,9,11-trien-3-one, 17β-hydroxy-, acetate;(17β)-17-(Acetyloxy)estra-4,9,11-trien-3-one;17β-Acetoxy-Δ<sup>4,9,11</sup>-estratrien-3-one;3-Oxo-17β-acetoxyestra-4,9,11-triene;17β-Acetoxyestra-4,9,11-trien-3-one;Trienbolone acetate;Trenbolone acetate;Finaplix;RU 1697;Component T-S;Finaplix H;17β-Hydroxyestra-4,9,11-trien-3-one 17-acetate;Finaplix-S;Component T-H",
    "duplicated_cas_no": "",
    "SMILES": "C[C@@]12[C@]([C@]3(C(C=C1)=C4C(CC3)=CC(=O)CC4)[H])(CC[C@@H]2OC(C)=O)[H]",
    "meta_data": {
        "InChI": "InChI=1S/C20H24O3/c1-12(21)23-19-8-7-18-17-5-3-13-11-14(22)4-6-15(13)16(17)9-10-20(18,19)2/h9-11,17-19H,3-8H2,1-2H3/t17-,18+,19+,20+/m1/s1",
        "InChIKey": null,
        "Canonical SMILES": "O=C(OC1CCC2C3C(C=CC12C)=C4C(=CC(=O)CC4)CC3)C",
        "Molecular Formula": "C<sub>20</sub>H<sub>24</sub>O<sub>3</sub>",
        "Molecular Mass": "312.40",
        "Melting Point": "96-97 °C"
    }
}