{
    "cas_no": "5736-91-4",
    "key_name": "4-(Pentyloxy)benzaldehyde",
    "cn_name": "4-正戊氧基苯甲醛;",
    "alternate_name": "Benzaldehyde, 4-(pentyloxy)-;Benzaldehyde, <em>p</em>-(pentyloxy)-;4-(Pentyloxy)benzaldehyde;<em>p</em>-(Pentyloxy)benzaldehyde;4-Pentoxybenzaldehyde;<em>p</em>-Pentoxybenzaldehyde;4-<em>n</em>-Pentoxybenzaldehyde;NSC 69105",
    "duplicated_cas_no": "",
    "SMILES": "O(CCCCC)C1=CC=C(C=O)C=C1",
    "meta_data": {
        "InChI": "InChI=1S/C12H16O2/c1-2-3-4-9-14-12-7-5-11(10-13)6-8-12/h5-8,10H,2-4,9H2,1H3",
        "InChIKey": null,
        "Canonical SMILES": "O=CC1=CC=C(OCCCCC)C=C1",
        "Molecular Formula": "C<sub>12</sub>H<sub>16</sub>O<sub>2</sub>",
        "Molecular Mass": "192.25",
        "Boiling Point": "145-146 °C @ Press: 5 Torr"
    }
}