{
    "cas_no": "51926-51-3",
    "key_name": "<span class=\"text-smallcaps\">L</smallcap>-Prolyl-<smallcap>L</span>-isoleucine",
    "cn_name": null,
    "alternate_name": "<span class=\"text-smallcaps\">L</smallcap>-Isoleucine, <smallcap>L</span>-prolyl-;<span class=\"text-smallcaps\">L</smallcap>-Isoleucine, <em>N</em>-<smallcap>L</span>-prolyl-;<span class=\"text-smallcaps\">L</smallcap>-Prolyl-<smallcap>L</span>-isoleucine;452: PN: WO2005081628 SEQID: 454 claimed protein;2003: PN: EP2071334 SEQID: 2112 claimed protein;2003: PN: WO2009077864 SEQID: 2112 claimed protein;377: PN: EP2161028 PAGE: 14 claimed protein;19: PN: WO2010099019 SEQID: 6 unclaimed sequence;168: PN: WO2011146121 PAGE: 117 claimed sequence;53: PN: WO2021211467 SEQID: 206 claimed sequence;472: PN: WO2022125673 SEQID: 472 claimed protein;480: PN: WO2022215055 SEQID: 480 claimed protein;10: PN: WO2023200742 PAGE: 233 claimed sequence",
    "duplicated_cas_no": "",
    "SMILES": "[C@H](NC(=O)[C@@H]1CCCN1)([C@H](CC)C)C(O)=O",
    "meta_data": {
        "InChI": "InChI=1S/C11H20N2O3/c1-3-7(2)9(11(15)16)13-10(14)8-5-4-6-12-8/h7-9,12H,3-6H2,1-2H3,(H,13,14)(H,15,16)/t7-,8-,9-/m0/s1",
        "InChIKey": null,
        "Canonical SMILES": "O=C(O)C(NC(=O)C1NCCC1)C(C)CC",
        "Molecular Formula": "C<sub>11</sub>H<sub>20</sub>N<sub>2</sub>O<sub>3</sub>",
        "Molecular Mass": "228.29",
        "Melting Point": "231-232 °C"
    }
}