{
    "cas_no": "170364-57-5",
    "key_name": "Enzastaurin",
    "cn_name": "Enzastaurin;3-(1-甲基-1H-吲哚-3-基)-4-(1-(1-(2-吡啶甲基)-4-哌啶基)-1H-吲哚-3-基)-1H-吡咯-2,5-二酮;",
    "alternate_name": "1<em>H</em>-Pyrrole-2,5-dione, 3-(1-methyl-1<em>H</em>-indol-3-yl)-4-[1-[1-(2-pyridinylmethyl)-4-piperidinyl]-1<em>H</em>-indol-3-yl]-;3-(1-Methyl-1<em>H</em>-indol-3-yl)-4-[1-[1-(2-pyridinylmethyl)-4-piperidinyl]-1<em>H</em>-indol-3-yl]-1<em>H</em>-pyrrole-2,5-dione;Enzastaurin;3-(1-Methyl-1<em>H</em>-indol-3-yl)-4-[1-[1-[(pyridin-2-yl)methyl]piperidin-4-yl]-1<em>H</em>-indol-3-yl]pyrrole-2,5-dione;3-(1-Methylindol-3-yl)-4-[1-[1-(pyridin-2-ylmethyl)piperidin-4-yl]indol-3-yl]pyrrole-2,5-dione;DB 102",
    "duplicated_cas_no": "",
    "SMILES": "O=C1C(C=2C=3C(N(C2)C4CCN(CC5=CC=CC=N5)CC4)=CC=CC3)=C(C(=O)N1)C=6C=7C(N(C)C6)=CC=CC7",
    "meta_data": {
        "InChI": "InChI=1S/C32H29N5O2/c1-35-19-25(23-9-2-4-11-27(23)35)29-30(32(39)34-31(29)38)26-20-37(28-12-5-3-10-24(26)28)22-13-16-36(17-14-22)18-21-8-6-7-15-33-21/h2-12,15,19-20,22H,13-14,16-18H2,1H3,(H,34,38,39)",
        "InChIKey": null,
        "Canonical SMILES": "O=C1NC(=O)C(C2=CN(C=3C=CC=CC23)C4CCN(CC5=NC=CC=C5)CC4)=C1C6=CN(C=7C=CC=CC67)C",
        "Molecular Formula": "C<sub>32</sub>H<sub>29</sub>N<sub>5</sub>O<sub>2</sub>",
        "Molecular Mass": "515.60",
        "Melting Point": "154-156 °C"
    }
}