{
    "cas_no": "78-94-4",
    "key_name": "3-Buten-2-one",
    "cn_name": "丁烯酮;3-丁烯-2-酮;甲基乙烯基甲酮;",
    "alternate_name": "3-Buten-2-one;Methyl vinyl ketone;Vinyl methyl ketone;1-Buten-3-one;2-Butenone;3-Oxobutene;3-Oxo-1-butene;NSC 4853",
    "duplicated_cas_no": "",
    "SMILES": "C(C=C)(C)=O",
    "meta_data": {
        "InChI": "InChI=1S/C4H6O/c1-3-4(2)5/h3H,1H2,2H3",
        "InChIKey": null,
        "Canonical SMILES": "O=C(C=C)C",
        "Molecular Formula": "C<sub>4</sub>H<sub>6</sub>O",
        "Molecular Mass": "70.09",
        "Boiling Point": "81.4 °C",
        "Melting Point": "&lt;25 °C",
        "Density": "0.8407 g/cm³ @ Temp: 25 °C"
    }
}