{
    "cas_no": "191-48-0",
    "key_name": "Decacyclene",
    "cn_name": "环十轮烯;",
    "alternate_name": "Diacenaphtho[1,2-<em>j</em>:1′,2′-<em>l</em>]fluoranthene;Decacyclene;NSC 60676",
    "duplicated_cas_no": "27581-78-8",
    "SMILES": "C=12C3=C(C4=C(C1C=5C=6C2=CC=CC6C=CC5)C=7C=8C4=CC=CC8C=CC7)C=9C=%10C3=CC=CC%10C=CC9",
    "meta_data": {
        "InChI": "InChI=1S/C36H18/c1-7-19-8-2-14-23-28(19)22(13-1)31-32(23)34-26-17-5-11-21-12-6-18-27(30(21)26)36(34)35-25-16-4-10-20-9-3-15-24(29(20)25)33(31)35/h1-18H",
        "InChIKey": null,
        "Canonical SMILES": "C1=CC=2C=CC=C3C2C(=C1)C4=C3C=5C=6C=CC=C7C=CC=C(C76)C5C=8C=9C=CC=C%10C=CC=C(C%109)C48",
        "Molecular Formula": "C<sub>36</sub>H<sub>18</sub>",
        "Molecular Mass": "450.53",
        "Melting Point": "389 °C"
    }
}