{
    "cas_no": "598-25-4",
    "key_name": "3-Methyl-1,2-butadiene",
    "cn_name": "3-甲基-1,2-丁二烯;1,1-二甲基丙二烯;",
    "alternate_name": "1,2-Butadiene, 3-methyl-;1,1-Dimethylallene;3-Methyl-1,2-butadiene;2-Methyl-2,3-butadiene;1,1-Dimethylallylene;3,3-Dimethylallene;NSC 74117;1,1-Dimethylpropadiene;1,1-Dimethyl-1,2-propadiene",
    "duplicated_cas_no": "",
    "SMILES": "C(=C=C)(C)C",
    "meta_data": {
        "InChI": "InChI=1S/C5H8/c1-4-5(2)3/h1H2,2-3H3",
        "InChIKey": null,
        "Canonical SMILES": "C(=C)=C(C)C",
        "Molecular Formula": "C<sub>5</sub>H<sub>8</sub>",
        "Molecular Mass": "68.12",
        "Boiling Point": "40.83 °C",
        "Melting Point": "-113.6 °C",
        "Density": "0.6913 g/cm³ @ Temp: 3.6 °C"
    }
}