{
    "cas_no": "77337-73-6",
    "key_name": "Acamprosate calcium",
    "cn_name": "阿坎酸钙;乙酰高牛磺酸钙;3-(乙酰氨基)丙烷磺酸钙;",
    "alternate_name": "1-Propanesulfonic acid, 3-(acetylamino)-, calcium salt (2:1);Aotal;Acamprosate calcium;Calcium <em>N</em>-acetylhomotaurinate;Campral EC;Sobriol;Alcomed;Ca-AOTA;Calcium bisacetyl homotaurine;Calcium acamprosate;Regtect;Calcium 3-acetamidopropane-1-sulfonate",
    "duplicated_cas_no": "1312712-18-7",
    "SMILES": "C(CNC(C)=O)CS(=O)(=O)O.[Ca]",
    "meta_data": {
        "InChI": "InChI=1S/C5H11NO4S.Ca/c1-5(7)6-3-2-4-11(8,9)10;/h2-4H2,1H3,(H,6,7)(H,8,9,10);",
        "InChIKey": null,
        "Canonical SMILES": "[Ca].O=C(NCCCS(=O)(=O)O)C",
        "Molecular Formula": "C<sub>5</sub>H<sub>11</sub>NO<sub>4</sub>S.<sup>1</sup>/<sub>2</sub>Ca",
        "Molecular Mass": "",
        "Melting Point": "270 °C"
    }
}