{
    "cas_no": "78-97-7",
    "key_name": "Lactonitrile",
    "cn_name": "乳腈;2-羟基丙腈;",
    "alternate_name": "Propanenitrile, 2-hydroxy-;Lactonitrile;2-Hydroxypropanenitrile;α-Hydroxypropionitrile;2-Hydroxypropionitrile;Acetocyanohydrin;Acetaldehyde, cyanohydrin;(±)-2-Hydroxypropionitrile;(±)-2-Hydroxypropanenitrile;NSC 7764",
    "duplicated_cas_no": "42492-95-5",
    "SMILES": "C(C#N)(C)O",
    "meta_data": {
        "InChI": "InChI=1S/C3H5NO/c1-3(5)2-4/h3,5H,1H3",
        "InChIKey": null,
        "Canonical SMILES": "N#CC(O)C",
        "Molecular Formula": "C<sub>3</sub>H<sub>5</sub>NO",
        "Molecular Mass": "71.08",
        "Boiling Point": "221 °C",
        "Melting Point": "-40 °C",
        "Density": "0.9877 g/cm³ @ Temp: 20 °C"
    }
}