{
    "cas_no": "551-62-2",
    "key_name": "1,2,3,4-Tetrafluorobenzene",
    "cn_name": "1,2,3,4-四氟苯;",
    "alternate_name": "Benzene, 1,2,3,4-tetrafluoro-;1,2,3,4-Tetrafluorobenzene;2,3,4,5-Tetrafluorobenzene;<em>o</em>-Tetrafluorobenzene;NSC 21635",
    "duplicated_cas_no": "",
    "SMILES": "FC1=C(F)C(F)=CC=C1F",
    "meta_data": {
        "InChI": "InChI=1S/C6H2F4/c7-3-1-2-4(8)6(10)5(3)9/h1-2H",
        "InChIKey": null,
        "Canonical SMILES": "FC1=CC=C(F)C(F)=C1F",
        "Molecular Formula": "C<sub>6</sub>H<sub>2</sub>F<sub>4</sub>",
        "Molecular Mass": "150.07",
        "Boiling Point": "94.3 °C",
        "Melting Point": "-42 °C",
        "Density": "1.4010 g/cm³ @ Temp: 25.5 °C"
    }
}