{
    "cas_no": "2353-44-8",
    "key_name": "3-Amino-2,6-piperidinedione",
    "cn_name": null,
    "alternate_name": "2,6-Piperidinedione, 3-amino-;Glutarimide, 2-amino-;3-Amino-2,6-piperidinedione;Glutamimide;3-Amino-2,6-dioxopiperidine;α-Aminoglutarimide;3-Aminopiperidine-2,6-dione;3-Aminoglutarimide",
    "duplicated_cas_no": "",
    "SMILES": "O=C1C(N)CCC(=O)N1",
    "meta_data": {
        "InChI": "InChI=1S/C5H8N2O2/c6-3-1-2-4(8)7-5(3)9/h3H,1-2,6H2,(H,7,8,9)",
        "InChIKey": null,
        "Canonical SMILES": "O=C1NC(=O)C(N)CC1",
        "Molecular Formula": "C<sub>5</sub>H<sub>8</sub>N<sub>2</sub>O<sub>2</sub>",
        "Molecular Mass": "128.13",
        "Melting Point": "142-143 °C"
    }
}