{
    "cas_no": "1098-97-1",
    "key_name": "Pyritinol",
    "cn_name": "吡硫醇;脑复新(培司);双-[(3-羟基-4-羟甲基-2-甲基-5-吡啶基)-甲基]二硫化物;",
    "alternate_name": "4-Pyridinemethanol, 3,3′-[dithiobis(methylene)]bis[5-hydroxy-6-methyl-;4-Pyridinemethanol, 3,3′-(dithiodimethylene)bis[5-hydroxy-6-methyl-;3,3′-[Dithiobis(methylene)]bis[5-hydroxy-6-methyl-4-pyridinemethanol];Bis-(4-hydroxymethyl-5-hydroxy-6-methyl-3-pyridylmethyl) disulfide;3,3′-(Dithiodimethylene)bis[5-hydroxy-6-methyl-4-pyridinemethanol];Pyritinol;Bis(2-methyl-3-hydroxy-4-hydroxymethylpyridyl-5-methyl) disulfide;Vitamin B<sub>6</sub> disulfide;Bis[(3-hydroxy-4-hydroxymethyl-2-methyl-5-pyridyl)methyl] disulfide;Dipyridoxolyl disulfide;Pyridoxine-5-disulfide;Epocan;Bis[[5-hydroxy-4-(hydroxymethyl)-6-methyl-3-pyridyl]methyl] disulfide;Encefabol;Bonifen;Bonol;Pyrithioxin;Pyridoxine disulfide;Piritinol;Pyroxidine-5-disulfide",
    "duplicated_cas_no": "",
    "SMILES": "C(SSCC=1C(CO)=C(O)C(C)=NC1)C=2C(CO)=C(O)C(C)=NC2",
    "meta_data": {
        "InChI": "InChI=1S/C16H20N2O4S2/c1-9-15(21)13(5-19)11(3-17-9)7-23-24-8-12-4-18-10(2)16(22)14(12)6-20/h3-4,19-22H,5-8H2,1-2H3",
        "InChIKey": null,
        "Canonical SMILES": "OC=1C(=NC=C(C1CO)CSSCC2=CN=C(C(O)=C2CO)C)C",
        "Molecular Formula": "C<sub>16</sub>H<sub>20</sub>N<sub>2</sub>O<sub>4</sub>S<sub>2</sub>",
        "Molecular Mass": "368.47",
        "Melting Point": "219 °C"
    }
}