{
    "cas_no": "626-88-0",
    "key_name": "1-Bromo-4-methylpentane",
    "cn_name": "1-溴-4-甲基戊烷;",
    "alternate_name": "Pentane, 1-bromo-4-methyl-;1-Bromo-4-methylpentane;4-Methylpentyl bromide;Isohexyl bromide;Isopentylmethyl bromide;NSC 159166;4-Methyl-1-bromopentane",
    "duplicated_cas_no": "",
    "SMILES": "C(C(C)C)CCBr",
    "meta_data": {
        "InChI": "InChI=1S/C6H13Br/c1-6(2)4-3-5-7/h6H,3-5H2,1-2H3",
        "InChIKey": null,
        "Canonical SMILES": "BrCCCC(C)C",
        "Molecular Formula": "C<sub>6</sub>H<sub>13</sub>Br",
        "Molecular Mass": "165.07",
        "Boiling Point": "145 °C",
        "Density": "1.1683 g/cm³ @ Temp: 20 °C"
    }
}