{
    "cas_no": "7727-43-7",
    "key_name": "Barium sulfate",
    "cn_name": "硫酸钡;",
    "alternate_name": "Sulfuric acid, barium salt (1:1);C.I. 77120;Bakontal;Baridol;Barium sulfate;Barium sulphate;Baryta White;Blanc fixe;C.I. Pigment White 21;Enamel White;Eweiss;Finemeal;Lactobaryt;Permanent white;Supramike;Barium sulfate (BaSO<sub>4</sub>);Solbar;Barotrast;Barium sulfate (1:1);Actybaryte;Citobaryum;Neobar;Unibaryt;Barytes 22;E-Z-Paque;Barosperse;Liquibarine;Baritop;Micropaque;Baritogen Deluxe;Neobalgin;Mikabarium F;Baritop P;Umbrasol A;Mikabarium B;Barifine BF 1;SS 50 (sulfate);BF 1;BA (sulfate);BA;Barium 100;Barifine BF 10;BF 10;Barifine BF 20;Sparmite;Prontobario;Bariace B 30;SS 50;Pigment White 21;Mixobar;BF 20;Microbar 139;Blanc fixe N;Blanc fixe F;Blanc fixe HD 80;BC;ST;P 25 (sulfate);P 25;A 15 (inorganic compound);A 15;UD;Sachtoperse HP;B 54;B 54 (sulfate);Barite BC;BF 1H;BF 1L;BF 33;BF 20P;B 33;TH;Sachtoperse HU;Blanc fixe FX;Diamelia 16;B 32;Blanc fixe Micro;BMH-D;BMH;F 8660;B 30;Bariace B 54;Barite BA;B 20HD;HD;HD (sulfate);B 34;Bb-Micro SP;Spezialsorte AI;W 1;Barifine BF 21;A 200;A 200 (sulfate);C 300 (sulfate);C 300;Blanc fixe K 3;Sachtoperse HU-N Spezial;L 100;L 100 (inorganic compound);BM 110;Barifine BF 21F;Barytes 290;C 14;C 14 (inorganic compound);UD (filler);Blanc fixe XR-HX;Barite BD;BC (inorganic compound);BMH 100;BF 21;Blanc Fix;Barita W 2;BF 21F;Barifine BF 40;BF 40;B 55;Barifine BF 1L;ST (sulfate);Bianco Fisso;Airwhite AW 5;Cherokee Baryte 290;Precipitated Barium Sulfate;B 35;Blanfix;P 1;P 1 (sulfate);BSP 1;BSP 1 (salt);BMH 1 (sulfate);BMH 1;W 6 (sulfate);W 6;Baryte R 2;B 45;Sachtoperse HU-N;B 45 (sulfate);Huberbrite;Precipitated Barium Sulfate 300;Huberbrite 1;Huberbrite 7;B 30NC;BMH 80;BMH 60;SS 60;SS 60 (sulfate);Blanc fixe XR-HN;C.I. Pigment White 22;Pigment White 22;AD;BAX;Huberbrite 10;Barite BNW;Sparwite W 5HB;Sachtleben Micro;Bariace B 34;Barium white;B 2;AY 2;Sachtoperse HU-D;300R;Sakai 300R;Blanc fixe XR-HR;Sachtoperse N 20;744HB;Sparwite W 10;Barifine 100;Blanc fixe ABR;BF 10H;Hombright S;Bariace B 35;Cimbar PC;B 31;Bariace B 100;Baricon Meal;TH (sulfate);Bariace BMH;Bariace B 55;Bariace BF 20;Barium sulfate 100;ECP-B 2;BF 30;W 1 (filler);VoLumen;W 10;Cimbar XF;AB 1600;B 1;B 300;B 300 (sulfate);B 1 (sulfate);Bartex 65;Barytmehl C 901;HU-D;B 35T;Zhiyuan L 388;Blanc fixe NC 30;Blanc fixe NC 50;Cimbar EX;Baramite 10;Fixe M;Cimbar NF;AB 3000N1;Velvolux K 3;Barytes Grade B 50;Polywate 325;1012UF;Blanc Fix Super F;BS 286;AY 103W;Lakabar SF;Baryte EX;Blanc fixe SP;Bariace B 33;Bariace B 31;Bariace B 35T;Blanc Fixe Super F;K 100;BSM-M;K 100 (sulfate);W 5HB;Sachtoperse AB-TM 18383;TBY 30;Perlite Powder FBA;Bariace B 32;BF 25;Solvay JM 3B;JM 3B;801A;Barifine BF 25;Bamstar S-200;Exbar 4;NFJ 3-1999;20HB;BS 80;BM-E;BB 1;Barifine BF 1P;PM 228;Cimbar BF;GY 2500;5AA;BMH 40;KCB 03;A 1;CB 1250A;CF 38F;BM/F;Cimbar UF;Blank Fixe N;Portaryte D 150;Portaryte B 40/10;Barium sulfate BD;HY-A 06;CB 1250;LC 330;Bartex OWT;W 44HB;PS 07;BS 115;JLH B7;KCB 01;ON 310;ST 1;Blanc AXE Super F;B 55H;Blanc Fixe Micro SP;BB 02;L 668;W 44HD;Bariclear BF 20FW;TS 2 (pigment);TS 2 (barium sulfate);AY-F 100;Brilliant N;Bariko 300;Huberbrite HB 10;Huberbrite B 10;Barico 100;Bariko 100;KS-NANFUN;A 1985;HG-LFP;E 340;Nuocheng E 340;Bartex 10;Bangyi M 8001;M 8001;L 288;HY-A 03;Barico 300W;AB 03N;C 001;H-LFM;Barico 300;P 30;AB 02;P 30 (sulfate);ANA 2058;AY-F 300;BMP 270;AY-F 200;AY-L 100F;BS 110;BS 125;Huajia W 44;W 44;LB 160;GY 6000;D 50;W 20HB;ZJ 201;Variace B-35;BF 20FW;20BC;SF 10E;SF 10P;MS-K 200;AY-JB 53;Zhongtai BL 95;BL 95;BB 30EX;298BT;Yuejiang 400;SF 063;Micron B 30;ZJ 051;XLT 3;LM 3000;44HB;Jinbanma ES 80;ES 80;TS 3;Exbar W 4;NB 45;Blanc fixe JM 3B;Blanc fixe G;M 8006;Exbar W 1 (sulfate);Exbar W 1;8000Ba;ChinBari 100;AY-JB 54;Bariflor 8440;P 150;HD 2000H;Bariace D 21;Bariace D 20;AB 3000N;6300A;HC 600 (sulfate);HC 600;10AB;BA 8000;JX 120;Barite 300W;HY 103;ZC 3000A;F 808 (salt);F 808;HY-A 26;HN 20 (salt);HN 20;HY-A 20;BSN 0F;Barimite 10;NFB 70000;XY-J01;AH 3000 (sulfate);ER 185 (sulfate);AH 3000;ER 185;Unibrite NB 0020;AB 4200;NB 806;M 1000;820A;JS-PB 08;Blanfixe F;Shuangyi 2008;AM 988;YF 1250 (salt);YF 1250;MeSH ID: D001466;JLH-BF 3;ZJ 10C1;TS 2;Airwhite AW 15;AB 3000N2;Barytmehl 901;ASA (sulfate);ASA;ZJ 241;Portaryte PB 10;AY-L 1200;AR 2000 (sulfate);AR 2000;ZJ 101 (sulfate);ZJ 101;AY 6300;HA 08 (sulfate);HA 08;HD 80 (sulfate);HD 800;BA 228;XM-PB 06",
    "duplicated_cas_no": "8054-35-1;12751-32-5;1314087-22-3;1352053-72-5;1400694-37-2;2095567-47-6",
    "SMILES": "S(=O)(=O)(O)O.[Ba]",
    "meta_data": {
        "InChI": "InChI=1S/Ba.H2O4S/c;1-5(2,3)4/h;(H2,1,2,3,4)",
        "InChIKey": null,
        "Canonical SMILES": "[Ba].O=S(=O)(O)O",
        "Molecular Formula": "Ba.H<sub>2</sub>O<sub>4</sub>S",
        "Molecular Mass": "",
        "Melting Point": "1580 °C",
        "Density": "4.49 g/cm³"
    }
}