{
    "cas_no": "96-70-8",
    "key_name": "2-<em>tert</em>-Butyl-4-ethylphenol",
    "cn_name": "2-叔丁基-4-乙基苯酚;",
    "alternate_name": "Phenol, 2-(1,1-dimethylethyl)-4-ethyl-;Phenol, 2-<em>tert</em>-butyl-4-ethyl-;2-(1,1-Dimethylethyl)-4-ethylphenol;2-<em>tert</em>-Butyl-4-ethylphenol;4-Ethyl-2-<em>tert</em>-butylphenol",
    "duplicated_cas_no": "",
    "SMILES": "C(C)(C)(C)C1=CC(CC)=CC=C1O",
    "meta_data": {
        "InChI": "InChI=1S/C12H18O/c1-5-9-6-7-11(13)10(8-9)12(2,3)4/h6-8,13H,5H2,1-4H3",
        "InChIKey": null,
        "Canonical SMILES": "OC1=CC=C(C=C1C(C)(C)C)CC",
        "Molecular Formula": "C<sub>12</sub>H<sub>18</sub>O",
        "Molecular Mass": "178.27",
        "Boiling Point": "250 °C @ Press: 760 Torr",
        "Melting Point": "23 °C"
    }
}