{
    "cas_no": "338-95-4",
    "key_name": "Isoflupredone",
    "cn_name": "异氟泼尼松;",
    "alternate_name": "Pregna-1,4-diene-3,20-dione, 9-fluoro-11,17,21-trihydroxy-, (11β)-;Pregna-1,4-diene-3,20-dione, 9-fluoro-11β,17,21-trihydroxy-;(11β)-9-Fluoro-11,17,21-trihydroxypregna-1,4-diene-3,20-dione;9α-Fluoro-Δ<sup>1</sup>-cortisol;Δ-Fluorocortisone;9-Fluoroprednisolone;Isoflupredone;NSC 12174",
    "duplicated_cas_no": "",
    "SMILES": "F[C@@]12[C@]([C@]3([C@](C)(C[C@@H]1O)[C@](C(CO)=O)(O)CC3)[H])(CCC=4[C@]2(C)C=CC(=O)C4)[H]",
    "meta_data": {
        "InChI": "InChI=1S/C21H27FO5/c1-18-7-5-13(24)9-12(18)3-4-15-14-6-8-20(27,17(26)11-23)19(14,2)10-16(25)21(15,18)22/h5,7,9,14-16,23,25,27H,3-4,6,8,10-11H2,1-2H3/t14-,15-,16-,18-,19-,20-,21-/m0/s1",
        "InChIKey": null,
        "Canonical SMILES": "O=C1C=CC2(C(=C1)CCC3C4CCC(O)(C(=O)CO)C4(C)CC(O)C32F)C",
        "Molecular Formula": "C<sub>21</sub>H<sub>27</sub>FO<sub>5</sub>",
        "Molecular Mass": "378.43",
        "Melting Point": "264.5 °C"
    }
}