{
    "cas_no": "3209-22-1",
    "key_name": "2,3-Dichloronitrobenzene",
    "cn_name": "2,3-二氯硝基苯;",
    "alternate_name": "Benzene, 1,2-dichloro-3-nitro-;1,2-Dichloro-3-nitrobenzene;2,3-Dichloro-1-nitrobenzene;2,3-Dichloronitrobenzene;NSC 60641",
    "duplicated_cas_no": "",
    "SMILES": "N(=O)(=O)C1=C(Cl)C(Cl)=CC=C1",
    "meta_data": {
        "InChI": "InChI=1S/C6H3Cl2NO2/c7-4-2-1-3-5(6(4)8)9(10)11/h1-3H",
        "InChIKey": null,
        "Canonical SMILES": "O=N(=O)C=1C=CC=C(Cl)C1Cl",
        "Molecular Formula": "C<sub>6</sub>H<sub>3</sub>Cl<sub>2</sub>NO<sub>2</sub>",
        "Molecular Mass": "192.00",
        "Boiling Point": "257.5 °C",
        "Melting Point": "61.5 °C",
        "Density": "1.721 g/cm³ @ Temp: 14 °C"
    }
}