{
    "cas_no": "134-91-8",
    "key_name": "4-(Diethylamino)-α-[4-(diethylamino)phenyl]benzenemethanol",
    "cn_name": "二(4-二乙基氨基苯基)甲醇;",
    "alternate_name": "Benzenemethanol, 4-(diethylamino)-α-[4-(diethylamino)phenyl]-;Benzhydrol, 4,4′-bis(diethylamino)-;4-(Diethylamino)-α-[4-(diethylamino)phenyl]benzenemethanol;4,4′-Bis(diethylamino)benzhydrol;Bis(4-diethylaminophenyl)methanol",
    "duplicated_cas_no": "",
    "SMILES": "C(O)(C1=CC=C(N(CC)CC)C=C1)C2=CC=C(N(CC)CC)C=C2",
    "meta_data": {
        "InChI": "InChI=1S/C21H30N2O/c1-5-22(6-2)19-13-9-17(10-14-19)21(24)18-11-15-20(16-12-18)23(7-3)8-4/h9-16,21,24H,5-8H2,1-4H3",
        "InChIKey": null,
        "Canonical SMILES": "OC(C1=CC=C(C=C1)N(CC)CC)C2=CC=C(C=C2)N(CC)CC",
        "Molecular Formula": "C<sub>21</sub>H<sub>30</sub>N<sub>2</sub>O",
        "Molecular Mass": "326.48",
        "Melting Point": "78.5-79 °C"
    }
}