{
    "cas_no": "25564-22-1",
    "key_name": "2-Pentyl-2-cyclopenten-1-one",
    "cn_name": "戊基环戊环烯酮;戊基环戊环烯酮2-戊基-2烯-1-环戊酮；2-pentyl-2-cyclopenten-1-one;",
    "alternate_name": "2-Cyclopenten-1-one, 2-pentyl-;2-Cyclopenten-1-one, 2-amyl-;2-Pentyl-2-cyclopenten-1-one;2-Pentyl-2-cyclopentenone;2-Pentyl-1-cyclopenten-3-one;3-Oxo-2-pentyl-1-cyclopentene;2-(1-Pentyl)-2-cyclopenten-1-one",
    "duplicated_cas_no": "",
    "SMILES": "C(CCCC)C=1C(=O)CCC1",
    "meta_data": {
        "InChI": "InChI=1S/C10H16O/c1-2-3-4-6-9-7-5-8-10(9)11/h7H,2-6,8H2,1H3",
        "InChIKey": null,
        "Canonical SMILES": "O=C1C(=CCC1)CCCCC",
        "Molecular Formula": "C<sub>10</sub>H<sub>16</sub>O",
        "Molecular Mass": "152.23",
        "Boiling Point": "108 °C @ Press: 10 Torr",
        "Density": "0.921 g/cm³ @ Temp: 20 °C"
    }
}