{
    "cas_no": "3391-83-1",
    "key_name": "1,7-Dioxacycloheptadecan-8-one",
    "cn_name": "11-氧杂十六烷酸-16-内酯;麝香105;",
    "alternate_name": "1,7-Dioxacycloheptadecan-8-one;Decanoic acid, 10-[(5-hydroxypentyl)oxy]-, ο-lactone;Musk R 1;11-Oxa-16-hexadecanolide",
    "duplicated_cas_no": "",
    "SMILES": "O=C1CCCCCCCCCOCCCCCO1",
    "meta_data": {
        "InChI": "InChI=1S/C15H28O3/c16-15-11-7-4-2-1-3-5-8-12-17-13-9-6-10-14-18-15/h1-14H2",
        "InChIKey": null,
        "Canonical SMILES": "O=C1OCCCCCOCCCCCCCCC1",
        "Molecular Formula": "C<sub>15</sub>H<sub>28</sub>O<sub>3</sub>",
        "Molecular Mass": "256.38",
        "Boiling Point": "120 °C @ Press: 3 Torr",
        "Melting Point": "35 °C"
    }
}