{
    "cas_no": "7790-76-3",
    "key_name": "Calcium pyrophosphate (Ca<sub>2</sub>P<sub>2</sub>O<sub>7</sub>)",
    "cn_name": "焦磷酸钙;",
    "alternate_name": "Diphosphoric acid, calcium salt (1:2);Pyrophosphoric acid, calcium salt (1:2);Calcium pyrophosphate (Ca<sub>2</sub>P<sub>2</sub>O<sub>7</sub>);Calcium pyrophosphate;Dicalcium pyrophosphate;Calcium phosphate (Ca<sub>2</sub>P<sub>2</sub>O<sub>7</sub>);Dicalcium diphosphate;NP 970-10;C 54-80;Calcium metaphosphate oxide (Ca<sub>2</sub>(PO<sub>3</sub>)<sub>2</sub>O);Calcium (diphosphate) (Ca<sub>2</sub>(P<sub>2</sub>O<sub>7</sub>))",
    "duplicated_cas_no": "15099-12-4;77308-72-6;847870-11-5;1269629-40-4;1354651-09-4;1431382-02-3;1620054-55-8;1914981-03-5;2243418-01-9;2464713-84-4;2562357-72-4;2743425-22-9",
    "SMILES": "O(P(=O)(O)O)P(=O)(O)O.[Ca]",
    "meta_data": {
        "InChI": "InChI=1S/2Ca.H4O7P2/c;;1-8(2,3)7-9(4,5)6/h;;(H2,1,2,3)(H2,4,5,6)",
        "InChIKey": null,
        "Canonical SMILES": "[Ca].O=P(O)(O)OP(=O)(O)O",
        "Molecular Formula": "Ca.<sup>1</sup>/<sub>2</sub>H<sub>4</sub>O<sub>7</sub>P<sub>2</sub>",
        "Molecular Mass": "",
        "Melting Point": "1353 °C",
        "Density": "3.09 g/cm³"
    }
}