{
    "cas_no": "2361-27-5",
    "key_name": "Thiophene-2-carbohydrazide",
    "cn_name": "2-噻吩甲酰肼;噻吩-2-羧酸肼;2-噻吩碳酰肼;",
    "alternate_name": "2-Thiophenecarboxylic acid, hydrazide;2-Thiophenecarbohydrazonic acid;2-Thienylcarboxylic acid hydrazide;2-Thenoylhydrazine;2-Thienoylhydrazine;Thiophene-2-carbohydrazide;2-Thiophenecarbonyl hydrazide;NSC 653;2-Thiophenecarboxylic hydrazide;2-Thienyl hydrazide",
    "duplicated_cas_no": "",
    "SMILES": "C(NN)(=O)C1=CC=CS1",
    "meta_data": {
        "InChI": "InChI=1S/C5H6N2OS/c6-7-5(8)4-2-1-3-9-4/h1-3H,6H2,(H,7,8)",
        "InChIKey": null,
        "Canonical SMILES": "O=C(NN)C=1SC=CC1",
        "Molecular Formula": "C<sub>5</sub>H<sub>6</sub>N<sub>2</sub>OS",
        "Molecular Mass": "142.18",
        "Melting Point": "141-142 °C",
        "Density": "1.363 g/cm³ @ Press: 7 x 10⁷ Torr"
    }
}