{
    "cas_no": "662-01-1",
    "key_name": "1,3-Dichloro-1,1,2,2,3,3-hexafluoropropane",
    "cn_name": null,
    "alternate_name": "Propane, 1,3-dichloro-1,1,2,2,3,3-hexafluoro-;Propane, 1,3-dichlorohexafluoro-;1,3-Dichloro-1,1,2,2,3,3-hexafluoropropane;1,3-Dichlorohexafluoropropane;HCFC 216ca",
    "duplicated_cas_no": "",
    "SMILES": "C(C(Cl)(F)F)(C(Cl)(F)F)(F)F",
    "meta_data": {
        "InChI": "InChI=1S/C3Cl2F6/c4-2(8,9)1(6,7)3(5,10)11",
        "InChIKey": null,
        "Canonical SMILES": "FC(F)(Cl)C(F)(F)C(F)(F)Cl",
        "Molecular Formula": "C<sub>3</sub>Cl<sub>2</sub>F<sub>6</sub>",
        "Molecular Mass": "220.93",
        "Boiling Point": "34.6 °C",
        "Density": "1.5730 g/cm³ @ Temp: 20 °C"
    }
}