{
    "cas_no": "51593-69-2",
    "key_name": "2<em>H</em>-1-Benzopyran-3-carboxaldehyde",
    "cn_name": "2H-色烯-3-甲醛;",
    "alternate_name": "2<em>H</em>-1-Benzopyran-3-carboxaldehyde;2<em>H</em>-Chromene-3-carboxaldehyde;2<em>H</em>-Chromene-3-carbaldehyde",
    "duplicated_cas_no": "",
    "SMILES": "C(=O)C1=CC=2C(OC1)=CC=CC2",
    "meta_data": {
        "InChI": "InChI=1S/C10H8O2/c11-6-8-5-9-3-1-2-4-10(9)12-7-8/h1-6H,7H2",
        "InChIKey": null,
        "Canonical SMILES": "O=CC1=CC=2C=CC=CC2OC1",
        "Molecular Formula": "C<sub>10</sub>H<sub>8</sub>O<sub>2</sub>",
        "Molecular Mass": "160.17",
        "Melting Point": "70 °C"
    }
}