{
    "cas_no": "5394-63-8",
    "key_name": "2,2,6-Trimethyl-4<em>H</em>-1,3-dioxin-4-one",
    "cn_name": "2,2,6-三甲基-4H-1,3-二噁英-4-酮;",
    "alternate_name": "4<em>H</em>-1,3-Dioxin-4-one, 2,2,6-trimethyl-;<em>m</em>-Dioxin-4-one, 2,2,6-trimethyl-;Crotonic acid, 3-(1-hydroxy-1-methylethoxy)-, δ-lactone;2,2,6-Trimethyl-4<em>H</em>-1,3-dioxin-4-one;2,2,6-Trimethyl-1,3-dioxin-4-one;NSC 2391;2,2,6-Trimethyl-2,4-dihydro-1,3-dioxin-4-one",
    "duplicated_cas_no": "645406-14-0",
    "SMILES": "CC1(C)OC(C)=CC(=O)O1",
    "meta_data": {
        "InChI": "InChI=1S/C7H10O3/c1-5-4-6(8)10-7(2,3)9-5/h4H,1-3H3",
        "InChIKey": null,
        "Canonical SMILES": "O=C1OC(OC(=C1)C)(C)C",
        "Molecular Formula": "C<sub>7</sub>H<sub>10</sub>O<sub>3</sub>",
        "Molecular Mass": "142.15",
        "Boiling Point": "65-67 °C @ Press: 2 Torr",
        "Melting Point": "12-13 °C",
        "Density": "1.0879 g/cm³ @ Temp: 20 °C"
    }
}