{
    "cas_no": "125971-96-2",
    "key_name": "2-[2-(4-Fluorophenyl)-2-oxo-1-phenylethyl]-4-methyl-3-oxopentanoic acid phenylamide",
    "cn_name": null,
    "alternate_name": "Benzenebutanamide, 4-fluoro-α-(2-methyl-1-oxopropyl)-γ-oxo-<em>N</em>,β-diphenyl-;4-Fluoro-α-(2-methyl-1-oxopropyl)-γ-oxo-<em>N</em>,β-diphenylbenzenebutanamide;2-[2-(4-Fluorophenyl)-2-oxo-1-phenylethyl]-4-methyl-3-oxopentanoic acid phenylamide;2-[2-(4-Fluorophenyl)-2-oxo-1-phenylethyl]-4-methyl-3-oxo-<em>N</em>-phenylpentanamide",
    "duplicated_cas_no": "1650552-86-5;2756774-23-7",
    "SMILES": "C(C(C(NC1=CC=CC=C1)=O)C(C(C)C)=O)(C(=O)C2=CC=C(F)C=C2)C3=CC=CC=C3",
    "meta_data": {
        "InChI": "InChI=1S/C26H24FNO3/c1-17(2)24(29)23(26(31)28-21-11-7-4-8-12-21)22(18-9-5-3-6-10-18)25(30)19-13-15-20(27)16-14-19/h3-17,22-23H,1-2H3,(H,28,31)",
        "InChIKey": null,
        "Canonical SMILES": "O=C(NC=1C=CC=CC1)C(C(=O)C(C)C)C(C=2C=CC=CC2)C(=O)C3=CC=C(F)C=C3",
        "Molecular Formula": "C<sub>26</sub>H<sub>24</sub>FNO<sub>3</sub>",
        "Molecular Mass": "417.47",
        "Melting Point": "206-209 °C"
    }
}