{
    "cas_no": "39133-31-8",
    "key_name": "(±)-Trimebutine",
    "cn_name": "曲美布汀;3,4,5-三甲氧基苯甲酸(2-二甲胺基-2-苯基)丁酯;",
    "alternate_name": "Benzoic acid, 3,4,5-trimethoxy-, 2-(dimethylamino)-2-phenylbutyl ester;Trimebutine;(±)-Trimebutine;Triton;Triton (pharmaceutical);[2-(Dimethylamino)-2-phenylbutyl] 3,4,5-trimethoxybenzoate;2-(Dimethylamino)-2-phenylbutyl (-)-3,4,5-trimethoxybenzoate",
    "duplicated_cas_no": "58997-88-9",
    "SMILES": "C(COC(=O)C1=CC(OC)=C(OC)C(OC)=C1)(N(C)C)(CC)C2=CC=CC=C2",
    "meta_data": {
        "InChI": "InChI=1S/C22H29NO5/c1-7-22(23(2)3,17-11-9-8-10-12-17)15-28-21(24)16-13-18(25-4)20(27-6)19(14-16)26-5/h8-14H,7,15H2,1-6H3",
        "InChIKey": null,
        "Canonical SMILES": "O=C(OCC(C=1C=CC=CC1)(N(C)C)CC)C2=CC(OC)=C(OC)C(OC)=C2",
        "Molecular Formula": "C<sub>22</sub>H<sub>29</sub>NO<sub>5</sub>",
        "Molecular Mass": "387.47",
        "Melting Point": "79 °C"
    }
}