{
    "cas_no": "642-31-9",
    "key_name": "9-Anthracenecarboxaldehyde",
    "cn_name": "9-蒽甲醛;9-蒽醛;",
    "alternate_name": "9-Anthracenecarboxaldehyde;9-Anthraldehyde;9-Anthrylaldehyde;9-Formylanthracene;9-Anthrylcarboxaldehyde;9-Anthracenecarbaldehyde;NSC 15;9-Anthracenemethanal;9-Anthracenaldehyde;9-Anthracenealdehyde;Antharacene-1-carboxaldehyde",
    "duplicated_cas_no": "1781226-16-1",
    "SMILES": "C(=O)C=1C2=C(C=C3C1C=CC=C3)C=CC=C2",
    "meta_data": {
        "InChI": "InChI=1S/C15H10O/c16-10-15-13-7-3-1-5-11(13)9-12-6-2-4-8-14(12)15/h1-10H",
        "InChIKey": null,
        "Canonical SMILES": "O=CC=1C=2C=CC=CC2C=C3C=CC=CC31",
        "Molecular Formula": "C<sub>15</sub>H<sub>10</sub>O",
        "Molecular Mass": "206.24",
        "Melting Point": "104 °C"
    }
}