{
    "cas_no": "2620-44-2",
    "key_name": "6-Nitro-1,3-benzodioxole",
    "cn_name": "1,2-亚甲基双氧-4-硝基苯;",
    "alternate_name": "1,3-Benzodioxole, 5-nitro-;Benzene, 1,2-(methylenedioxy)-4-nitro-;5-Nitro-1,3-benzodioxole;3,4-(Methylenedioxy)-1-nitrobenzene;5-Nitrobenzodioxole;1,2-(Methylenedioxy)-4-nitrobenzene;3,4-Methylenedioxynitrobenzene;4-Nitro-1,2-methylenedioxybenzene;1-Nitro-3,4-methylenedioxybenzene;NSC 5562;6-Nitro-1,3-benzodioxole;5-Nitrobenzo[<em>d</em>][1,3]dioxole",
    "duplicated_cas_no": "",
    "SMILES": "N(=O)(=O)C=1C=C2C(=CC1)OCO2",
    "meta_data": {
        "InChI": "InChI=1S/C7H5NO4/c9-8(10)5-1-2-6-7(3-5)12-4-11-6/h1-3H,4H2",
        "InChIKey": null,
        "Canonical SMILES": "O=N(=O)C1=CC=C2OCOC2=C1",
        "Molecular Formula": "C<sub>7</sub>H<sub>5</sub>NO<sub>4</sub>",
        "Molecular Mass": "167.12",
        "Melting Point": "145 °C"
    }
}