{
    "cas_no": "10238-21-8",
    "key_name": "Glibenclamide",
    "cn_name": "格列本脲;N-[2-[4-[[[(环己氨基)羰基]氨基]磺酰基]苯基]乙基]-2-甲氧基-5-氯苯甲酰胺;",
    "alternate_name": "Benzamide, 5-chloro-<em>N</em>-[2-[4-[[[(cyclohexylamino)carbonyl]amino]sulfonyl]phenyl]ethyl]-2-methoxy-;Urea, 1-[[<em>p</em>-[2-(5-chloro-<em>o</em>-anisamido)ethyl]phenyl]sulfonyl]-3-cyclohexyl-;5-Chloro-<em>N</em>-[2-[4-[[[(cyclohexylamino)carbonyl]amino]sulfonyl]phenyl]ethyl]-2-methoxybenzamide;1-[4-[2-(5-Chloro-2-methoxybenzamido)ethyl]phenylsulfonyl]-3-cyclohexylurea;Glibenclamide;Glybenzcyclamide;Glyburide;HB 419;<em>N</em>-[4-(β-(2-Methoxy-5-chlorobenzamido)ethyl)benzosulfonyl]-<em>N</em>′-cyclohexylurea;1-[[-<em>p</em>-[2-(5-Chloro-<em>o</em>-anisamido)ethyl]phenyl]sulfonyl]-3-cyclohexylurea;U 26452;<em>N</em>-4-[2-(5-Chloro-2-methoxybenzamido)ethyl]phenylsulfonyl-<em>N</em>′-cyclohexylurea;HD 419;<em>N</em>-[4-[β-(2-Methoxy-5-chlorobenzamido)ethyl]benzenesulfonyl]-<em>N</em>′-cyclohexylurea;Maninil;Euglucon 5;UR 606;1-[<em>p</em>-2-(5-Chloro-o-anisamido)ethylphenylsulfonyl]-3-cyclohexylurea;Daonil;Euglucon;Gilemal;Diabeta;Euglucan;Euglykon;Semi-Euglucon N;Semi-Euglucon;Daonil N;Glycolande N;Betanase;Betanaz;Micronase;Med-Glionil;Humedia;Miglucan;Betanese 5;Glibens;Glucohexal;Debtan;Antibet;Dibelet;Glimel;Cytagon;Glibet;Azuglucon;Glycomin;Glibetic;Glucolon;Glisulin;Glicem;Glyben;GBN 5;Bastiverit;Glibesyn;Sugril;Suraben;Gliben;Glucoven;Libanil;Glucomid;Gliban;Glibenil;Hemi-Daonil;Calabren;Benclamin;Glamide;Glibil;Pira;Gliboral;Glucobene;Renabetic;Apo-Glibenclamide;Glimide;Glidiabet;Gluben;Yuglucon;Glucal;Glitisol;Tiabet;Orabetic;Prodiabet;Glukovital;Glynase;Melix;Diaben;Norboral;Semi-Daonil;Wuglucon;Gl;Dia-basan;Glucoremed;Glycolande;Duraglucon;Gliben-Puren N;Gluco-Tabinen;Abbenclamide;Adiab;Diabiphage;Glubate;Glimidstada;Glibomet;RP 1127;Glustat;Glyform;Gluvans;Glicuformine;Glymet;Glyburine;5-Chloro-<em>N</em>-(2-(4-(<em>N</em>-(cyclohexylcarbamoyl)sulfamoyl)phenyl)ethyl)-2-methoxybenzamide;Diazet;Amglidia",
    "duplicated_cas_no": "",
    "SMILES": "C(NCCC1=CC=C(S(NC(NC2CCCCC2)=O)(=O)=O)C=C1)(=O)C3=C(OC)C=CC(Cl)=C3",
    "meta_data": {
        "InChI": "InChI=1S/C23H28ClN3O5S/c1-32-21-12-9-17(24)15-20(21)22(28)25-14-13-16-7-10-19(11-8-16)33(30,31)27-23(29)26-18-5-3-2-4-6-18/h7-12,15,18H,2-6,13-14H2,1H3,(H,25,28)(H2,26,27,29)",
        "InChIKey": null,
        "Canonical SMILES": "O=C(NC1CCCCC1)NS(=O)(=O)C2=CC=C(C=C2)CCNC(=O)C3=CC(Cl)=CC=C3OC",
        "Molecular Formula": "C<sub>23</sub>H<sub>28</sub>ClN<sub>3</sub>O<sub>5</sub>S",
        "Molecular Mass": "494.00",
        "Melting Point": "169 °C",
        "Density": "1.36 g/cm³"
    }
}