{
    "cas_no": "461-05-2",
    "key_name": "Carnitine chloride",
    "cn_name": "混旋肉碱盐酸盐;肉毒碱盐酸盐;",
    "alternate_name": "1-Propanaminium, 3-carboxy-2-hydroxy-<em>N</em>,<em>N</em>,<em>N</em>-trimethyl-, chloride (1:1);1-Propanaminium, 3-carboxy-2-hydroxy-<em>N</em>,<em>N</em>,<em>N</em>-trimethyl-, chloride, (±)-;Ammonium, (3-carboxy-2-hydroxypropyl)trimethyl-, chloride, (±)-;1-Propanaminium, 3-carboxy-2-hydroxy-<em>N</em>,<em>N</em>,<em>N</em>-trimethyl-, chloride;Bicarnesine;<span class=\"text-smallcaps\">DL</span>-Carnitine hydrochloride;(±)-Carnitine chloride;(±)-Carnitine hydrochloride;<span class=\"text-smallcaps\">DL</span>-Carnitine chloride;<em>d</em>,<em>l</em>-Carnitine hydrochloride;Carnitine, hydrochloride;Carnitine chloride;Monocamin;(3-Carboxy-2-hydroxypropyl)trimethylammonium chloride;Aplegin;(3-Carboxy-2-hydroxypropyl)trimethylazanium chloride",
    "duplicated_cas_no": "56-99-5;3673-49-2;5852-94-8;6801-68-9;17360-44-0;51479-53-9;68960-71-4;856319-55-6;1195686-01-1",
    "SMILES": "C([N+](C)(C)C)C(CC(O)=O)O.[Cl-]",
    "meta_data": {
        "InChI": "InChI=1S/C7H15NO3.ClH/c1-8(2,3)5-6(9)4-7(10)11;/h6,9H,4-5H2,1-3H3;1H",
        "InChIKey": null,
        "Canonical SMILES": "[Cl-].O=C(O)CC(O)C[N+](C)(C)C",
        "Molecular Formula": "C<sub>7</sub>H<sub>16</sub>NO<sub>3</sub>.Cl",
        "Molecular Mass": "",
        "Melting Point": "137-139 °C"
    }
}