{
    "cas_no": "7403-42-1",
    "key_name": "4-Methyl-4-phenyl-2-pentanone",
    "cn_name": null,
    "alternate_name": "2-Pentanone, 4-methyl-4-phenyl-;4-Methyl-4-phenyl-2-pentanone;Methyl 2-methyl-2-phenylpropyl ketone;2-Methyl-2-phenylpentan-4-one;4-Phenyl-4-methyl-2-pentanone;NSC 200696;NSC 54368;Vetikon",
    "duplicated_cas_no": "",
    "SMILES": "C(CC(C)=O)(C)(C)C1=CC=CC=C1",
    "meta_data": {
        "InChI": "InChI=1S/C12H16O/c1-10(13)9-12(2,3)11-7-5-4-6-8-11/h4-8H,9H2,1-3H3",
        "InChIKey": null,
        "Canonical SMILES": "O=C(C)CC(C=1C=CC=CC1)(C)C",
        "Molecular Formula": "C<sub>12</sub>H<sub>16</sub>O",
        "Molecular Mass": "176.25",
        "Boiling Point": "134 °C @ Press: 22 Torr",
        "Density": "0.972 g/cm³ @ Temp: 25 °C"
    }
}