{
    "cas_no": "6972-71-0",
    "key_name": "4,5-Dimethyl-2-nitrobenzenamine",
    "cn_name": "4,5-二甲基-2-硝基苯胺;2-硝基-4,5-二甲基苯胺;",
    "alternate_name": "Benzenamine, 4,5-dimethyl-2-nitro-;3,4-Xylidine, 6-nitro-;4,5-Dimethyl-2-nitrobenzenamine;4,5-Dimethyl-2-nitroaniline;2-Nitro-4,5-dimethylaniline;6-Nitro-3,4-dimethylaniline;3,4-Dimethyl-6-nitroaniline;NSC 62010;1-Amino-3,4-dimethyl-6-nitrobenzene",
    "duplicated_cas_no": "",
    "SMILES": "N(=O)(=O)C1=C(N)C=C(C)C(C)=C1",
    "meta_data": {
        "InChI": "InChI=1S/C8H10N2O2/c1-5-3-7(9)8(10(11)12)4-6(5)2/h3-4H,9H2,1-2H3",
        "InChIKey": null,
        "Canonical SMILES": "O=N(=O)C=1C=C(C(=CC1N)C)C",
        "Molecular Formula": "C<sub>8</sub>H<sub>10</sub>N<sub>2</sub>O<sub>2</sub>",
        "Molecular Mass": "166.18",
        "Melting Point": "140 °C"
    }
}