{
    "cas_no": "120-40-1",
    "key_name": "Lauric acid diethanolamide",
    "cn_name": "N,N-二(2-羟乙基)十二烷基酰胺;月桂酰胺二乙醇;",
    "alternate_name": "Dodecanamide, <em>N</em>,<em>N</em>-bis(2-hydroxyethyl)-;<em>N</em>,<em>N</em>-Bis(2-hydroxyethyl)dodecanamide;<em>N</em>,<em>N</em>-Bis(2-hydroxyethyl)lauramide;Crillon LDE;Diethanollauramide;<em>N</em>,<em>N</em>-Diethanollauramide;<em>N</em>,<em>N</em>-Diethanollauric acid amide;Lauric acid diethanolamide;Lauric diethanolamide;Lauroyl diethanolamide;Lauryl diethanolamide;LDA;LDE;<em>N</em>,<em>N</em>-Bis(hydroxyethyl)lauramide;<em>N</em>,<em>N</em>-Bis(β-hydroxyethyl)lauramide;<em>N</em>,<em>N</em>-Diethylollauramide;Onyxol 345;Lauroyldiethanolamine;Ethylan MLD;Bis(2-hydroxyethyl)lauramide;Comperlan LD;<em>N</em>,<em>N</em>-Bis(2-hydroxyethyl)laurylamide;Lauramide DEA;Steinamid DL 203S;Unamide J 56;Clindrol Superamide 100L;Rewomid DLMS;Rewomid DL 203S;Standamid LD;Condensate PL;Synotol L 60;Emid 6511;Hetamide ML;Super Amide L 9A;Super Amide L 9C;Richamide 6310;Monamid 150LW;Varamide ML 1;Clindrol 200L;Stepan LDA;Richamide STD;<em>N</em>,<em>N</em>-Bis(2-hydroxyethyl)lauroylamide;<em>N</em>,<em>N</em>-Di(2-hydroxyethyl)lauramide;Schercomid SL-EX;Witcamide 5195;Clindrol 100L;Amisol LDE;<em>N</em>,<em>N</em>-Diethanoldodecanamide;Witcamide 5138;Mackamide LL;Mackamide LLM;Ninol AA 62 Extra;Lankrostat JP;Empilan LDE;Dehydat 10;Trisophone PK;Lalmin D;Stafoam DL;Nissan Stafoam DL;LDA (surfactant);Monamid 150LWA;Standamid LDS;Ninol 55LL;Ninol 52LL;Ninol AA 62;Diethanolamine lauroylamide;Tohol N 230X;Incromide LR;Ninol 50LL;Stremid K;<em>N</em>-Lauroyldiethanolamine;Mazamide LS 196;Ninol 30LL;Ninol 70SL;Detergent 6501;Denone 2863;Standamid LDS-RV;Pionin D 1110;Standarmi AC LDS-RV;Alkamide LE;Duspar LA 2000;Chemstat LD 100;Aminon L 02;<em>N</em>-Dodecanoyldiethanolamine;Lauramido DEA;LA 2000;Surfactant 6501;Chemistat 2500;AC 1000;AC 1000 (amide);Amisol SG;Micopol LDE;Profan AA 62EX;Ninaer;Detergent 6502;Neo Duspar LA 2000P;Amycol LDE;Antistatic B 2;Protamide L 80M;Amisol LDE-G;PUB 350;Javachem A 2000;A 2000",
    "duplicated_cas_no": "15517-64-3;39341-48-5;83452-99-7;83590-20-9;92680-75-6;267663-44-5",
    "SMILES": "N(C(CCCCCCCCCCC)=O)(CCO)CCO",
    "meta_data": {
        "InChI": "InChI=1S/C16H33NO3/c1-2-3-4-5-6-7-8-9-10-11-16(20)17(12-14-18)13-15-19/h18-19H,2-15H2,1H3",
        "InChIKey": null,
        "Canonical SMILES": "O=C(N(CCO)CCO)CCCCCCCCCCC",
        "Molecular Formula": "C<sub>16</sub>H<sub>33</sub>NO<sub>3</sub>",
        "Molecular Mass": "287.44",
        "Melting Point": "38.7 °C"
    }
}