{
    "cas_no": "5419-55-6",
    "key_name": "Triisopropyl borate",
    "cn_name": "硼酸三异丙酯;",
    "alternate_name": "Boric acid (H<sub>3</sub>BO<sub>3</sub>), tris(1-methylethyl) ester;Boric acid (H<sub>3</sub>BO<sub>3</sub>), triisopropyl ester;Isopropyl borate;Isopropyl borate ((C<sub>3</sub>H<sub>7</sub>O)<sub>3</sub>B);Triisopropyl borate;Boron isopropoxide;Triisopropoxyboron;Boron triisopropoxide;Triisopropyl orthoborate;Triisopropoxyborane;Trisisopropoxyborane;Boric acid triisopropyl ester;NSC 9779;Tris(1-methylethyl) borate;Tris(propan-2-yl)borate;T 819120",
    "duplicated_cas_no": "",
    "SMILES": "B(OC(C)C)(OC(C)C)OC(C)C",
    "meta_data": {
        "InChI": "InChI=1S/C9H21BO3/c1-7(2)11-10(12-8(3)4)13-9(5)6/h7-9H,1-6H3",
        "InChIKey": null,
        "Canonical SMILES": "O(B(OC(C)C)OC(C)C)C(C)C",
        "Molecular Formula": "C<sub>9</sub>H<sub>21</sub>BO<sub>3</sub>",
        "Molecular Mass": "188.07",
        "Boiling Point": "140 °C",
        "Density": "0.815 g/cm³"
    }
}