{
    "cas_no": "132-18-3",
    "key_name": "Diafen",
    "cn_name": "盐酸双苯比拉林; 4-二苯甲氧基-1-甲基哌啶盐酸盐;",
    "alternate_name": "Piperidine, 4-(diphenylmethoxy)-1-methyl-, hydrochloride (1:1);Piperidine, 4-(diphenylmethoxy)-1-methyl-, hydrochloride;Diafen hydrochloride;4-Diphenylmethoxy-1-methylpiperidine hydrochloride;Diphenylpyraline hydrochloride;Hispril hydrochloride;1-Methyl-4-piperidyl benzhydryl ether hydrochloride;Sumadil;Diphenpyraline hydrochloride;Diafen (antihistamine);Diafen;Diaphen;Lergoban;Dayfen;Belfene;Histryl;Kolton Jelly;Anginosan;Histryl Spansule Capsules;Lergobine;Hispril;Histyn;Diphenylpyraline teoclate",
    "duplicated_cas_no": "",
    "SMILES": "C(OC1CCN(C)CC1)(C2=CC=CC=C2)C3=CC=CC=C3.Cl",
    "meta_data": {
        "InChI": "InChI=1S/C19H23NO.ClH/c1-20-14-12-18(13-15-20)21-19(16-8-4-2-5-9-16)17-10-6-3-7-11-17;/h2-11,18-19H,12-15H2,1H3;1H",
        "InChIKey": null,
        "Canonical SMILES": "Cl.O(C(C=1C=CC=CC1)C=2C=CC=CC2)C3CCN(C)CC3",
        "Molecular Formula": "C<sub>19</sub>H<sub>23</sub>NO.ClH",
        "Molecular Mass": "",
        "Melting Point": "206 °C"
    }
}