{
    "cas_no": "29214-60-6",
    "key_name": "Ethyl 2-acetyloctanoate",
    "cn_name": "2-乙酰基辛酸乙酯;",
    "alternate_name": "Octanoic acid, 2-acetyl-, ethyl ester;Ethyl 2-acetyloctanoate;Ethyl α-hexylacetoacetate;Ethyl 2-acetylcaprylate;Ethyl 2-<em>n</em>-hexyl-2-acetoacetate;Gelsone;2-Acetyloctanoic acid ethyl ester",
    "duplicated_cas_no": "",
    "SMILES": "C(C(OCC)=O)(CCCCCC)C(C)=O",
    "meta_data": {
        "InChI": "InChI=1S/C12H22O3/c1-4-6-7-8-9-11(10(3)13)12(14)15-5-2/h11H,4-9H2,1-3H3",
        "InChIKey": null,
        "Canonical SMILES": "O=C(OCC)C(C(=O)C)CCCCCC",
        "Molecular Formula": "C<sub>12</sub>H<sub>22</sub>O<sub>3</sub>",
        "Molecular Mass": "214.30",
        "Boiling Point": "148-149 °C @ Press: 25 Torr"
    }
}