{
    "cas_no": "16803-97-7",
    "key_name": "4,4′-Diaminobenzenesulfonanilide",
    "cn_name": "4,4\"-二氨基苯磺酰苯胺;二氨基苯磺酰替苯胺;",
    "alternate_name": "Benzenesulfonamide, 4-amino-<em>N</em>-(4-aminophenyl)-;Sulfanilanilide, 4′-amino-;4-Amino-<em>N</em>-(4-aminophenyl)benzenesulfonamide;<em>p</em>-Aminobenzenesulfanilamide;4,4′-Diaminodiphenyl sulfonamide;4,4′-Diaminobenzenesulfonanilide;<em>N</em><sup>1</sup>-<em>p</em>-Aminophenylsulfanilamide;<em>N</em>-(4-Aminophenyl)-4-aminobenzenesulfonamide;4,4′-Diaminosulfanilide;DASA",
    "duplicated_cas_no": "35655-28-8",
    "SMILES": "S(NC1=CC=C(N)C=C1)(=O)(=O)C2=CC=C(N)C=C2",
    "meta_data": {
        "InChI": "InChI=1S/C12H13N3O2S/c13-9-1-5-11(6-2-9)15-18(16,17)12-7-3-10(14)4-8-12/h1-8,15H,13-14H2",
        "InChIKey": null,
        "Canonical SMILES": "O=S(=O)(NC1=CC=C(N)C=C1)C2=CC=C(N)C=C2",
        "Molecular Formula": "C<sub>12</sub>H<sub>13</sub>N<sub>3</sub>O<sub>2</sub>S",
        "Molecular Mass": "263.32",
        "Melting Point": "138 °C"
    }
}