{
    "cas_no": "80-27-3",
    "key_name": "α-Terpinyl propionate",
    "cn_name": "丙酸松油酯;α,α,4-三甲基-3-环己烯-1-甲醇丙酸盐;",
    "alternate_name": "3-Cyclohexene-1-methanol, α,α,4-trimethyl-, 1-propanoate;3-Cyclohexene-1-methanol, α,α,4-trimethyl-, propanoate;α-Terpinyl propionate;α-Terpineol propionate;2-(4-Methylcyclohex-3-en-1-yl)propan-2-yl propanoate",
    "duplicated_cas_no": "1334-92-5",
    "SMILES": "C(OC(CC)=O)(C)(C)C1CCC(C)=CC1",
    "meta_data": {
        "InChI": "InChI=1S/C13H22O2/c1-5-12(14)15-13(3,4)11-8-6-10(2)7-9-11/h6,11H,5,7-9H2,1-4H3",
        "InChIKey": null,
        "Canonical SMILES": "O=C(OC(C)(C)C1CC=C(C)CC1)CC",
        "Molecular Formula": "C<sub>13</sub>H<sub>22</sub>O<sub>2</sub>",
        "Molecular Mass": "210.31",
        "Boiling Point": "71-74 °C @ Press: 0.5 Torr"
    }
}