{
    "cas_no": "7517-19-3",
    "key_name": "Leucine methyl ester hydrochloride",
    "cn_name": "L-亮氨酸甲酯盐酸盐;",
    "alternate_name": "<span class=\"text-smallcaps\">L</span>-Leucine, methyl ester, hydrochloride (1:1);<span class=\"text-smallcaps\">L</span>-Leucine, methyl ester, hydrochloride;Leucine, methyl ester, hydrochloride, <span class=\"text-smallcaps\">L</span>-;Methyl leucinate hydrochloride;Leucine methyl ester hydrochloride;Methyl <span class=\"text-smallcaps\">L</span>-leucinate hydrochloride;(<em>S</em>)-Leucine methyl ester hydrochloride;Methyl (<em>S</em>)-leucinate hydrochloride;NSC 522233;Methyl (<em>S</em>)-2-amino-4-methylpentanoate hydrochloride;(<em>S</em>)-2-Amino-4-methylpentanoic acid methyl ester hydrochloride;<span class=\"text-smallcaps\">L</span>-Leu-OMe·HCl",
    "duplicated_cas_no": "13226-97-6;2909532-96-1",
    "SMILES": "[C@@H](C(OC)=O)(CC(C)C)N.Cl",
    "meta_data": {
        "InChI": "InChI=1S/C7H15NO2.ClH/c1-5(2)4-6(8)7(9)10-3;/h5-6H,4,8H2,1-3H3;1H/t6-;/m0./s1",
        "InChIKey": null,
        "Canonical SMILES": "Cl.O=C(OC)C(N)CC(C)C",
        "Molecular Formula": "C<sub>7</sub>H<sub>15</sub>NO<sub>2</sub>.ClH",
        "Molecular Mass": "",
        "Melting Point": "118 °C"
    }
}