{
    "cas_no": "98-92-0",
    "key_name": "Nicotinamide",
    "cn_name": "烟酰胺;3-吡啶甲酰胺;",
    "alternate_name": "3-Pyridinecarboxamide;Nicotinamide;Aminicotin;Benicot;Delonin Amide;Dipegyl;NAM;Niacinamide;Nicamindon;Nicofort;Nicotilamide;Nicotine acid amide;Nicotinic acid amide;Nicotinic amide;Nicotylamide;Niocinamide;Niozymin;Pelonin amide;3-Pyridinecarboxylic acid amide;Vi-Nicotyl;Vitamin B<sub>3</sub> (niacinamide);Vitamin B;Nicosan 2;3-Carbamoylpyridine;Pelmine;β-Pyridinecarboxamide;Nicobion;Nicosylamide;Nicovit;Niavit PP;Nicovitina;Nicamina;Nicasir;3-(Aminocarbonyl)pyridine;<em>m</em>-(Aminocarbonyl)pyridine;3-Amidopyridine;Papulex;Nictoamide;Pelmin;NSC 13128;NSC 27452;Vitamin B<sub>3</sub> (nicotinamide)",
    "duplicated_cas_no": "123574-63-0;37321-14-5;78731-47-2",
    "SMILES": "C(N)(=O)C=1C=CC=NC1",
    "meta_data": {
        "InChI": "InChI=1S/C6H6N2O/c7-6(9)5-2-1-3-8-4-5/h1-4H,(H2,7,9)",
        "InChIKey": null,
        "Canonical SMILES": "O=C(N)C=1C=NC=CC1",
        "Molecular Formula": "C<sub>6</sub>H<sub>6</sub>N<sub>2</sub>O",
        "Molecular Mass": "122.12",
        "Boiling Point": "157 °C @ Press: 5 x 10<sup>-4</sup> Torr",
        "Melting Point": "130 °C",
        "Density": "1.400 g/cm³ @ Temp: 25 °C"
    }
}