{
    "cas_no": "1226-46-6",
    "key_name": "4,4′-Bis(dimethylamino)thiobenzophenone",
    "cn_name": "硫代米氏酮;4,4\"-双二甲氨基硫代二苯甲酮;",
    "alternate_name": "Methanethione, bis[4-(dimethylamino)phenyl]-;Benzophenone, 4,4′-bis(dimethylamino)thio-;Bis[4-(dimethylamino)phenyl]methanethione;4,4′-Bis(dimethylamino)thiobenzophenone;Michler's thioketone;Michler's thione;<em>p</em>,<em>p</em>′-Bis(dimethylamino)thiobenzophenone;TMK;NSC 30656",
    "duplicated_cas_no": "",
    "SMILES": "C(=S)(C1=CC=C(N(C)C)C=C1)C2=CC=C(N(C)C)C=C2",
    "meta_data": {
        "InChI": "InChI=1S/C17H20N2S/c1-18(2)15-9-5-13(6-10-15)17(20)14-7-11-16(12-8-14)19(3)4/h5-12H,1-4H3",
        "InChIKey": null,
        "Canonical SMILES": "S=C(C1=CC=C(C=C1)N(C)C)C2=CC=C(C=C2)N(C)C",
        "Molecular Formula": "C<sub>17</sub>H<sub>20</sub>N<sub>2</sub>S",
        "Molecular Mass": "284.42",
        "Melting Point": "202-204 °C",
        "Density": "1.230 g/cm³"
    }
}