{
    "cas_no": "4521-22-6",
    "key_name": "4-Methylbenzenebutanoic acid",
    "cn_name": null,
    "alternate_name": "Benzenebutanoic acid, 4-methyl-;Butyric acid, 4-<em>p</em>-tolyl-;4-Methylbenzenebutanoic acid;4-<em>p</em>-Tolylbutyric acid;4-(4-Methylphenyl)butyric acid;NSC 57013;4-(4-Methylphenyl)butanoic acid;4-(<em>p</em>-Tolyl)butanoic acid",
    "duplicated_cas_no": "",
    "SMILES": "C(CCC(O)=O)C1=CC=C(C)C=C1",
    "meta_data": {
        "InChI": "InChI=1S/C11H14O2/c1-9-5-7-10(8-6-9)3-2-4-11(12)13/h5-8H,2-4H2,1H3,(H,12,13)",
        "InChIKey": null,
        "Canonical SMILES": "O=C(O)CCCC1=CC=C(C=C1)C",
        "Molecular Formula": "C<sub>11</sub>H<sub>14</sub>O<sub>2</sub>",
        "Molecular Mass": "178.23",
        "Boiling Point": "155 °C @ Press: 3 Torr",
        "Melting Point": "58 °C"
    }
}