{
    "cas_no": "22901-11-7",
    "key_name": "3,4-Dihydro-1<em>H</em>-2-benzopyran-1-acetic acid",
    "cn_name": null,
    "alternate_name": "1<em>H</em>-2-Benzopyran-1-acetic acid, 3,4-dihydro-;1-Isochromanacetic acid;3,4-Dihydro-1<em>H</em>-2-benzopyran-1-acetic acid;2-(3,4-Dihydro-1<em>H</em>-isochromen-1-yl)acetic acid;2-(3,4-Dihydro-1<em>H</em>-2-benzopyran-1-yl)acetic acid",
    "duplicated_cas_no": "",
    "SMILES": "C(C(O)=O)C1C=2C(CCO1)=CC=CC2",
    "meta_data": {
        "InChI": "InChI=1S/C11H12O3/c12-11(13)7-10-9-4-2-1-3-8(9)5-6-14-10/h1-4,10H,5-7H2,(H,12,13)",
        "InChIKey": null,
        "Canonical SMILES": "O=C(O)CC1OCCC=2C=CC=CC21",
        "Molecular Formula": "C<sub>11</sub>H<sub>12</sub>O<sub>3</sub>",
        "Molecular Mass": "192.21",
        "Boiling Point": "155-157 °C @ Press: 0.4 Torr",
        "Melting Point": "69-71 °C"
    }
}