{
    "cas_no": "1931-62-0",
    "key_name": "<em>tert</em>-Butyl peroxymaleate",
    "cn_name": "2-丙烯过氧酸-3-羰基-1-(1,1-二甲基乙基)酯;",
    "alternate_name": "2-Propeneperoxoic acid, 3-carboxy-, 1-(1,1-dimethylethyl) ester, (2<em>Z</em>)-;Maleic monoperoxyacid, 1-<em>tert</em>-butyl ester;Maleic monoperoxyacid, <em>OO</em>-<em>tert</em>-butyl ester;2-Propeneperoxoic acid, 3-carboxy-, 1-(1,1-dimethylethyl) ester, (<em>Z</em>)-;<em>tert</em>-Butyl monopermaleate;<em>tert</em>-Butyl peroxymaleic acid;<em>tert</em>-Butyl peroxymaleate;<em>tert</em>-Butyl monoperoxymaleate;Perbutyl MA 25;Luperco PMA 25;Perbutyl MA;Peroxan PM 25;Perkadox PF-MT 40;Perkadox PF-MT 40Z;Peroxan PM 25S",
    "duplicated_cas_no": "",
    "SMILES": "C(OOC(C)(C)C)(/C=C\\C(O)=O)=O",
    "meta_data": {
        "InChI": "InChI=1S/C8H12O5/c1-8(2,3)13-12-7(11)5-4-6(9)10/h4-5H,1-3H3,(H,9,10)/b5-4-",
        "InChIKey": null,
        "Canonical SMILES": "O=C(O)C=CC(=O)OOC(C)(C)C",
        "Molecular Formula": "C<sub>8</sub>H<sub>12</sub>O<sub>5</sub>",
        "Molecular Mass": "188.18",
        "Melting Point": "130-131 °C"
    }
}