{
    "cas_no": "56287-73-1",
    "key_name": "2-(Fluoromethyl)-3-(2-methylphenyl)-6-nitro-4(3<em>H</em>)-quinazolinone",
    "cn_name": null,
    "alternate_name": "4(3<em>H</em>)-Quinazolinone, 2-(fluoromethyl)-3-(2-methylphenyl)-6-nitro-;2-(Fluoromethyl)-3-(2-methylphenyl)-6-nitro-4(3<em>H</em>)-quinazolinone;2-(Fluoromethyl)-3-(2-methylphenyl)-6-nitro-3<em>H</em>-quinazolin-4-one",
    "duplicated_cas_no": "",
    "SMILES": "C(F)C=1N(C(=O)C=2C(N1)=CC=C(N(=O)=O)C2)C3=C(C)C=CC=C3",
    "meta_data": {
        "InChI": "InChI=1S/C16H12FN3O3/c1-10-4-2-3-5-14(10)19-15(9-17)18-13-7-6-11(20(22)23)8-12(13)16(19)21/h2-8H,9H2,1H3",
        "InChIKey": null,
        "Canonical SMILES": "O=C1C=2C=C(C=CC2N=C(N1C=3C=CC=CC3C)CF)N(=O)=O",
        "Molecular Formula": "C<sub>16</sub>H<sub>12</sub>FN<sub>3</sub>O<sub>3</sub>",
        "Molecular Mass": "313.28",
        "Melting Point": "156-158 °C"
    }
}