{
    "cas_no": "556-56-9",
    "key_name": "3-Iodo-1-propene",
    "cn_name": "碘丙烯;3-碘丙烯;烯丙基碘;碘代烯丙基;3-碘-1-丙烯;",
    "alternate_name": "1-Propene, 3-iodo-;Propene, 3-iodo-;3-Iodo-1-propene;Allyl iodide;3-Iodopropylene;3-Iodopropene;2-Propenyl iodide;NSC 18588;1-Iodo-2-propene",
    "duplicated_cas_no": "",
    "SMILES": "C(CI)=C",
    "meta_data": {
        "InChI": "InChI=1S/C3H5I/c1-2-3-4/h2H,1,3H2",
        "InChIKey": null,
        "Canonical SMILES": "ICC=C",
        "Molecular Formula": "C<sub>3</sub>H<sub>5</sub>I",
        "Molecular Mass": "167.98",
        "Boiling Point": "103 °C",
        "Melting Point": "-99.3 °C"
    }
}