{
    "cas_no": "69739-34-0",
    "key_name": "(1,1-Dimethylethyl)dimethylsilyl 1,1,1-trifluoromethanesulfonate",
    "cn_name": "叔丁基二甲硅基三氟甲磺酸酯;",
    "alternate_name": "Methanesulfonic acid, 1,1,1-trifluoro-, (1,1-dimethylethyl)dimethylsilyl ester;Methanesulfonic acid, trifluoro-, (1,1-dimethylethyl)dimethylsilyl ester;(1,1-Dimethylethyl)dimethylsilyl 1,1,1-trifluoromethanesulfonate;tert-Butyldimethylsilyl triflate;tert-Butyldimethylsilyl trifluoromethanesulfonate;Trifluoromethanesulfonic acid (1,1-dimethylethyl)dimethylsilyl ester;Trifluoromethanesulfonic acid tert-butyldimethylsilyl ester;(1,1-Dimethylethyl)dimethylsilyl trifluoromethanesulfonate;<em>tert</em>-Butyldimethylsilyl trifluoromethanesulfonate;<em>tert</em>-Butyldimethylsilyl triflate;Dimethyl(2-methyl-2-propanyl)silyl trifluoromethanesulfonate",
    "duplicated_cas_no": "748816-80-0;913069-74-6;1174930-27-8",
    "SMILES": "S(O[Si](C(C)(C)C)(C)C)(C(F)(F)F)(=O)=O",
    "meta_data": {
        "InChI": "InChI=1S/C7H15F3O3SSi/c1-6(2,3)15(4,5)13-14(11,12)7(8,9)10/h1-5H3",
        "InChIKey": null,
        "Canonical SMILES": "O=S(=O)(O[Si](C)(C)C(C)(C)C)C(F)(F)F",
        "Molecular Formula": "C<sub>7</sub>H<sub>15</sub>F<sub>3</sub>O<sub>3</sub>SSi",
        "Molecular Mass": "264.34",
        "Boiling Point": "65 °C @ Press: 10 Torr",
        "Density": "1.151 g/cm³"
    }
}