{
    "cas_no": "2644-70-4",
    "key_name": "Hydrazinium chloride",
    "cn_name": "盐酸肼;一盐酸肼;单盐酸肼;",
    "alternate_name": "Hydrazine, hydrochloride (1:1);Hydrazine, monohydrochloride;Hydrazine monochloride;Hydrazinium chloride;Hydrazinium monochloride",
    "duplicated_cas_no": "",
    "SMILES": "NN.Cl",
    "meta_data": {
        "InChI": "InChI=1S/ClH.H4N2/c;1-2/h1H;1-2H2",
        "InChIKey": null,
        "Canonical SMILES": "Cl.NN",
        "Molecular Formula": "ClH.H<sub>4</sub>N<sub>2</sub>",
        "Molecular Mass": "",
        "Melting Point": "87-89 °C"
    }
}