{
    "cas_no": "3858-78-4",
    "key_name": "1-Butanamine, hydrochloride (1:1)",
    "cn_name": null,
    "alternate_name": "1-Butanamine, hydrochloride (1:1);Butylamine, hydrochloride;1-Butanamine, hydrochloride;<em>n</em>-Butylammonium chloride;<em>n</em>-Butylamine hydrochloride;Butylammonium chloride;Butylamine monohydrochloride;Monobutylammonium chloride",
    "duplicated_cas_no": "100501-97-1",
    "SMILES": "C(CC)CN.Cl",
    "meta_data": {
        "InChI": "InChI=1S/C4H11N.ClH/c1-2-3-4-5;/h2-5H2,1H3;1H",
        "InChIKey": null,
        "Canonical SMILES": "Cl.NCCCC",
        "Molecular Formula": "C<sub>4</sub>H<sub>11</sub>N.ClH",
        "Molecular Mass": "",
        "Melting Point": "192 °C"
    }
}