{
    "cas_no": "71395-14-7",
    "key_name": "Tocainide hydrochloride",
    "cn_name": null,
    "alternate_name": "Propanamide, 2-amino-<em>N</em>-(2,6-dimethylphenyl)-, hydrochloride (1:1);Propanamide, 2-amino-<em>N</em>-(2,6-dimethylphenyl)-, monohydrochloride, (±)-;Propanamide, 2-amino-<em>N</em>-(2,6-dimethylphenyl)-, monohydrochloride;2-Amino-2′,6′-propionoxylidide hydrochloride;Tocainide hydrochloride;Tonocard;Taquidil;Xylotocan",
    "duplicated_cas_no": "35891-93-1",
    "SMILES": "N(C(C(C)N)=O)C1=C(C)C=CC=C1C.Cl",
    "meta_data": {
        "InChI": "InChI=1S/C11H16N2O.ClH/c1-7-5-4-6-8(2)10(7)13-11(14)9(3)12;/h4-6,9H,12H2,1-3H3,(H,13,14);1H",
        "InChIKey": null,
        "Canonical SMILES": "Cl.O=C(NC=1C(=CC=CC1C)C)C(N)C",
        "Molecular Formula": "C<sub>11</sub>H<sub>16</sub>N<sub>2</sub>O.ClH",
        "Molecular Mass": "",
        "Melting Point": "246-247 °C"
    }
}