{
    "cas_no": "538-24-9",
    "key_name": "Trilaurin",
    "cn_name": null,
    "alternate_name": "Dodecanoic acid, 1,1′,1′′-(1,2,3-propanetriyl) ester;Laurin, tri-;Dodecanoic acid, 1,2,3-propanetriyl ester;Glyceryl trilaurate;Trilaurin;Glycerol trilaurate;Lauric acid triglyceride;Lauric acid triglycerin ester;Glyceryl tridodecanoate;Glycerin trilaurate;Glyceryl laurate;Lauric triglyceride;Dynasan 112;Trilauroylglycerol;Tridodecanoin;Triglyceride LaLaLa;Glycerin tridodecanoate;Tridodecanoyl glycerol;NSC 4061;LaLaLa triacylglycerol;Glycerine trilaurate;2,3-Di(dodecanoyloxy)propyl dodecanoate",
    "duplicated_cas_no": "127377-16-6",
    "SMILES": "C(COC(CCCCCCCCCCC)=O)(COC(CCCCCCCCCCC)=O)OC(CCCCCCCCCCC)=O",
    "meta_data": {
        "InChI": "InChI=1S/C39H74O6/c1-4-7-10-13-16-19-22-25-28-31-37(40)43-34-36(45-39(42)33-30-27-24-21-18-15-12-9-6-3)35-44-38(41)32-29-26-23-20-17-14-11-8-5-2/h36H,4-35H2,1-3H3",
        "InChIKey": null,
        "Canonical SMILES": "O=C(OCC(OC(=O)CCCCCCCCCCC)COC(=O)CCCCCCCCCCC)CCCCCCCCCCC",
        "Molecular Formula": "C<sub>39</sub>H<sub>74</sub>O<sub>6</sub>",
        "Molecular Mass": "639.00",
        "Melting Point": "45 °C",
        "Density": "0.8873 g/cm³ @ Temp: 70 °C"
    }
}