{
    "cas_no": "82-28-0",
    "key_name": "Disperse Orange 11",
    "cn_name": "分散橙11;分散橙11;",
    "alternate_name": "9,10-Anthracenedione, 1-amino-2-methyl-;Anthraquinone, 1-amino-2-methyl-;C.I. Disperse Orange 11;1-Amino-2-methyl-9,10-anthracenedione;C.I. 60700;Acetate Fast Orange R;Acetoquinone Light Orange JL;1-Amino-2-methylanthraquinone;Artisil Orange 3RP;Celliton Orange R;Cilla Orange R;Duranol Orange G;2-Methyl-1-anthraquinonylamine;Microsetile Orange RA;Nyloquinone Orange JR;Perliton Orange 3R;Serisol Orange YL;Supracet Orange R;1-Amino-2-methyl-9,10-anthraquinone;Disperse Orange (anthraquinone dye);C.I. Solvent Orange 35;Smoke Orange LK 6044;Disperse Orange 11;Solvent Orange 35;NSC 39943;NSC 667744;DO 11",
    "duplicated_cas_no": "507484-51-7",
    "SMILES": "O=C1C=2C(C(=O)C=3C1=CC=CC3)=CC=C(C)C2N",
    "meta_data": {
        "InChI": "InChI=1S/C15H11NO2/c1-8-6-7-11-12(13(8)16)15(18)10-5-3-2-4-9(10)14(11)17/h2-7H,16H2,1H3",
        "InChIKey": null,
        "Canonical SMILES": "O=C1C=2C=CC=CC2C(=O)C3=C(N)C(=CC=C13)C",
        "Molecular Formula": "C<sub>15</sub>H<sub>11</sub>NO<sub>2</sub>",
        "Molecular Mass": "237.25",
        "Melting Point": "6-205 °C"
    }
}