{
    "cas_no": "41361-28-8",
    "key_name": "1-Ethyl-3-piperidinone hydrochloride",
    "cn_name": "1-乙基哌啶-3-酮盐酸盐;",
    "alternate_name": "3-Piperidinone, 1-ethyl-, hydrochloride (1:1);3-Piperidinone, 1-ethyl-, hydrochloride;1-Ethyl-3-piperidone hydrochloride;1-Ethyl-3-piperidinone hydrochloride;1-Ethyl-3-piperidone hydrochlorid",
    "duplicated_cas_no": "",
    "SMILES": "C(C)N1CC(=O)CCC1.Cl",
    "meta_data": {
        "InChI": "InChI=1S/C7H13NO.ClH/c1-2-8-5-3-4-7(9)6-8;/h2-6H2,1H3;1H",
        "InChIKey": null,
        "Canonical SMILES": "Cl.O=C1CN(CC)CCC1",
        "Molecular Formula": "C<sub>7</sub>H<sub>13</sub>NO.ClH",
        "Molecular Mass": "",
        "Melting Point": "172-173.5 °C"
    }
}