{
    "cas_no": "2367-82-0",
    "key_name": "1,2,3,5-Tetrafluorobenzene",
    "cn_name": "1,2,3,5-四氟苯;",
    "alternate_name": "Benzene, 1,2,3,5-tetrafluoro-;1,2,3,5-Tetrafluorobenzene;1,2,4,6-Tetrafluorobenzene;1,3,4,5-Tetrafluorobenzene;<em>m</em>-Tetrafluorobenzene",
    "duplicated_cas_no": "",
    "SMILES": "FC1=C(F)C=C(F)C=C1F",
    "meta_data": {
        "InChI": "InChI=1S/C6H2F4/c7-3-1-4(8)6(10)5(9)2-3/h1-2H",
        "InChIKey": null,
        "Canonical SMILES": "FC=1C=C(F)C(F)=C(F)C1",
        "Molecular Formula": "C<sub>6</sub>H<sub>2</sub>F<sub>4</sub>",
        "Molecular Mass": "150.07",
        "Boiling Point": "84.4 °C",
        "Melting Point": "-48 °C",
        "Density": "1.393 g/cm³ @ Temp: 20 °C"
    }
}