{
    "cas_no": "13200-85-6",
    "key_name": "<em>N</em>-Formyl-<span class=\"text-smallcaps\">L</span>-phenylalanine",
    "cn_name": "N-甲酰-L-苯丙氨酸;N-甲酰基-3-苯基-L-丙氨酸;",
    "alternate_name": "<span class=\"text-smallcaps\">L</span>-Phenylalanine, <em>N</em>-formyl-;Alanine, <em>N</em>-formyl-3-phenyl-, <span class=\"text-smallcaps\">L</span>-;<span class=\"text-smallcaps\">L</span>-Alanine, <em>N</em>-formyl-3-phenyl-;<em>N</em>-Formyl-<span class=\"text-smallcaps\">L</span>-phenylalanine;<span class=\"text-smallcaps\">L</span>-<em>N</em>-Formylphenylalanine;<em>N</em>-Formylphenylalanine;<em>N</em>-Formyl-3-phenylalanine;NSC 334342;(2S)-2-Formamido-3-phenylpropanoic acid",
    "duplicated_cas_no": "13201-02-0",
    "SMILES": "[C@@H](CC1=CC=CC=C1)(NC=O)C(O)=O",
    "meta_data": {
        "InChI": "InChI=1S/C10H11NO3/c12-7-11-9(10(13)14)6-8-4-2-1-3-5-8/h1-5,7,9H,6H2,(H,11,12)(H,13,14)/t9-/m0/s1",
        "InChIKey": null,
        "Canonical SMILES": "O=CNC(C(=O)O)CC=1C=CC=CC1",
        "Molecular Formula": "C<sub>10</sub>H<sub>11</sub>NO<sub>3</sub>",
        "Molecular Mass": "193.20",
        "Melting Point": "161-162 °C"
    }
}