{
    "cas_no": "7218-43-1",
    "key_name": "2-[2-(2-Propyn-1-yloxy)ethoxy]ethanol",
    "cn_name": null,
    "alternate_name": "Ethanol, 2-[2-(2-propyn-1-yloxy)ethoxy]-;Ethanol, 2-[2-(2-propynyloxy)ethoxy]-;2-[2-(2-Propyn-1-yloxy)ethoxy]ethanol;Diethylene glycol monopropargyl ether;3,6-Dioxa-8-nonyn-1-ol;SR3-062;2-(2-(Prop-2-ynyloxy)ethoxy)ethanol;2-(2-Prop-2-ynoxyethoxy)ethanol;Diethylene glycol propargyl ether",
    "duplicated_cas_no": "",
    "SMILES": "C(COCCO)OCC#C",
    "meta_data": {
        "InChI": "InChI=1S/C7H12O3/c1-2-4-9-6-7-10-5-3-8/h1,8H,3-7H2",
        "InChIKey": null,
        "Canonical SMILES": "C#CCOCCOCCO",
        "Molecular Formula": "C<sub>7</sub>H<sub>12</sub>O<sub>3</sub>",
        "Molecular Mass": "144.17",
        "Boiling Point": "76-77 °C @ Press: 12 Torr",
        "Density": "1.0583 g/cm³ @ Temp: 20 °C"
    }
}