{
    "cas_no": "6315-60-2",
    "key_name": "<em>N</em>-(3-Ethoxy-3-oxopropyl)-<em>N</em>-methyl-β-alanine ethyl ester",
    "cn_name": null,
    "alternate_name": "β-Alanine, <em>N</em>-(3-ethoxy-3-oxopropyl)-<em>N</em>-methyl-, ethyl ester;Propionic acid, 3,3′-(methylimino)di-, diethyl ester;<em>N</em>-(3-Ethoxy-3-oxopropyl)-<em>N</em>-methyl-β-alanine ethyl ester;NSC 21230;NSC 69093",
    "duplicated_cas_no": "",
    "SMILES": "N(CCC(OCC)=O)(CCC(OCC)=O)C",
    "meta_data": {
        "InChI": "InChI=1S/C11H21NO4/c1-4-15-10(13)6-8-12(3)9-7-11(14)16-5-2/h4-9H2,1-3H3",
        "InChIKey": null,
        "Canonical SMILES": "O=C(OCC)CCN(C)CCC(=O)OCC",
        "Molecular Formula": "C<sub>11</sub>H<sub>21</sub>NO<sub>4</sub>",
        "Molecular Mass": "231.29",
        "Boiling Point": "136-138 °C @ Press: 4 Torr",
        "Density": "1.019 g/cm³ @ Temp: 20 °C"
    }
}