{
    "cas_no": "1317-38-0",
    "key_name": "Copper oxide (CuO)",
    "cn_name": "氧化铜;",
    "alternate_name": "Copper oxide (CuO);C.I. 77403;Black copper oxide;C.I. Pigment Black 15;Copper Brown;Cupric oxide;Banacobru OL;Copper(II) oxide;Copper monoxide;Copper(2+) oxide;Copper monooxide;Copper(II) oxide (CuO);Copper monoxide (CuO);Copper oxide;Copporal;Copacaps;Coopers Permatrace Copper;NSC 83537;N 120;N 120 (oxide);ET;Nanotek CuO;NanoActive CuO;BYK-LP x 20704;N 520;NanoArc U 1102DBE;Copinox Lamb;Nanotek CuO-C;YC;JCPDS 44-0706;NB 2;NB 2 (oxide);FCO 500;ZG 3;DXN-KD 20;SC 428;Nanoox-CuO 0022;WSD-T 201;Metalon ICI 021;DXN-CU 05",
    "duplicated_cas_no": "185461-92-1",
    "SMILES": "[Cu]=O",
    "meta_data": {
        "InChI": "InChI=1S/Cu.O",
        "InChIKey": null,
        "Canonical SMILES": "O=[Cu]",
        "Molecular Formula": "CuO",
        "Molecular Mass": "",
        "Melting Point": "1326 °C",
        "Density": "6.315 g/cm³ @ Temp: 14 °C"
    }
}