{
    "cas_no": "9022-96-2",
    "key_name": "Titanium tetrabutoxide homopolymer",
    "cn_name": null,
    "alternate_name": "1-Butanol, titanium(4+) salt (4:1), homopolymer;Butyl alcohol, titanium(4+) salt, polymers;1-Butanol, titanium(4+) salt, homopolymer;Poly(butyl titanate);Tyzor PB;Poly(<em>n</em>-butyl titanate);Butyl polytitanate;Tetrabutyl titanate polymer;Butyl titanate homopolymer;Poly(tetrabutyl titanate);Titanium tetrabutoxide polymer;B 7;B 10 (titanate);B 10;TBT 700;Tetrabutyl orthotitanate homopolymer;Tilcom PBT;Titanium tetra(<em>n</em>-butoxide) homopolymer;Tyzor BTP;BTP;PTI 023;B 20;B 30;B 30 (titanate);Tetra-<em>n</em>-butoxytitanium homopolymer;Tetrabutoxytitanium homopolymer;Tytan PBT;Vertec PBT;Titanium tetrabutoxide homopolymer;TBT Polymer B 10;Tetrabutyl titanate homopolymer;Titanium(IV) butoxide polymer",
    "duplicated_cas_no": "9047-53-4;102727-12-8;129037-79-2;133109-09-8;597533-82-9;1874280-37-1",
    "SMILES": "C(CC)CO.[Ti]",
    "meta_data": {
        "InChI": "InChI=1S/C4H10O.Ti/c1-2-3-4-5;/h5H,2-4H2,1H3;",
        "InChIKey": null,
        "Canonical SMILES": "[Ti].OCCCC",
        "Molecular Formula": "(C<sub>4</sub>H<sub>10</sub>O.<sup>1</sup>/<sub>4</sub>Ti)<sub>x</sub>",
        "Molecular Mass": "",
        "Boiling Point": "174 °C @ Press: 6 Torr"
    }
}