{
    "cas_no": "8052-41-3",
    "key_name": "Stoddard solvent",
    "cn_name": null,
    "alternate_name": "Stoddard solvent;Named reagents and solutions, Stoddard;Naphtha, solvent;Solvent naphtha, Stoddard;Solvents, naphthas;Organic solvents, Stoddard solvent;New Solvent F",
    "duplicated_cas_no": "1030262-12-4",
    "SMILES": "",
    "meta_data": {
        "InChI": "",
        "InChIKey": null,
        "Canonical SMILES": "",
        "Molecular Formula": "Unspecified",
        "Molecular Mass": "",
        "Boiling Point": "130-230 °C",
        "Density": "0.765-0.795 g/cm³"
    }
}