{
    "uri": "substance/pt/8052413",
    "rn": "8052-41-3",
    "name": "Stoddard solvent",
    "images": [],
    "inchi": "",
    "inchiKey": "",
    "smile": "",
    "canonicalSmile": "",
    "molecularFormula": "Unspecified",
    "molecularMass": "",
    "experimentalProperties": [
        {
            "name": "Boiling Point",
            "property": "130-230 °C",
            "sourceNumber": 1
        },
        {
            "name": "Density",
            "property": "0.765-0.795 g/cm³",
            "sourceNumber": 1
        }
    ],
    "propertyCitations": [
        {
            "docUri": "",
            "sourceNumber": 1,
            "source": "International Chemical Safety Cards data were obtained from the National Institute for Occupational Safety and Health (US)"
        }
    ],
    "synonyms": [
        "Stoddard solvent",
        "Named reagents and solutions, Stoddard",
        "Naphtha, solvent",
        "Solvent naphtha, Stoddard",
        "Solvents, naphthas",
        "Organic solvents, Stoddard solvent",
        "New Solvent F"
    ],
    "replacedRns": [
        "1030262-12-4"
    ],
    "hasMolfile": false,
    "source": "https://commonchemistry.cas.org/detail?cas_rn=8052-41-3"
}