{
    "cas_no": "517-22-6",
    "key_name": "2,4-Dimethyl-3-ethylpyrrole",
    "cn_name": "2,4-二甲基-3-乙基吡咯;",
    "alternate_name": "1<em>H</em>-Pyrrole, 3-ethyl-2,4-dimethyl-;Pyrrole, 3-ethyl-2,4-dimethyl-;3-Ethyl-2,4-dimethyl-1<em>H</em>-pyrrole;Cryptopyrrole;2,4-Dimethyl-3-ethylpyrrole;Kryptopyrrole;3-Ethyl-2,4-dimethylpyrrole;Kryptopyrrol;NSC 62025;2,4-Dimethyl-3-ethyl-1<em>H</em>-pyrrole",
    "duplicated_cas_no": "",
    "SMILES": "C(C)C=1C(C)=CNC1C",
    "meta_data": {
        "InChI": "InChI=1S/C8H13N/c1-4-8-6(2)5-9-7(8)3/h5,9H,4H2,1-3H3",
        "InChIKey": null,
        "Canonical SMILES": "C=1NC(=C(C1C)CC)C",
        "Molecular Formula": "C<sub>8</sub>H<sub>13</sub>N",
        "Molecular Mass": "123.20",
        "Boiling Point": "199 °C",
        "Melting Point": "0 °C"
    }
}