{
    "cas_no": "89-91-8",
    "key_name": "Methyl dimethoxyacetate",
    "cn_name": "二甲氧基乙酸甲酯;2,2-二甲氧基乙酸甲酯;",
    "alternate_name": "Acetic acid, 2,2-dimethoxy-, methyl ester;Glyoxylic acid, methyl ester, 2-(dimethyl acetal);Acetic acid, dimethoxy-, methyl ester;Glyoxylic acid, methyl ester, dimethyl acetal;Methyl dimethoxyacetate;Dimethoxyacetic acid methyl ester;Methyl 2,2-dimethoxyacetate;Methyl glyoxylate dimethyl acetal;NSC 27791;2,2-Dimethoxyacetic acid methyl ester",
    "duplicated_cas_no": "",
    "SMILES": "C(C(OC)=O)(OC)OC",
    "meta_data": {
        "InChI": "InChI=1S/C5H10O4/c1-7-4(6)5(8-2)9-3/h5H,1-3H3",
        "InChIKey": null,
        "Canonical SMILES": "O=C(OC)C(OC)OC",
        "Molecular Formula": "C<sub>5</sub>H<sub>10</sub>O<sub>4</sub>",
        "Molecular Mass": "134.13",
        "Boiling Point": "61-64 °C @ Press: 12 Torr"
    }
}