{
    "cas_no": "28978-03-2",
    "key_name": "(2<em>S</em>)-5-(β-<span class=\"text-smallcaps\">D</span>-Glucopyranosyloxy)-2,3-dihydro-2-(3-hydroxy-4-methoxyphenyl)-7-methoxy-4<em>H</em>-1-benzopyran-4-one",
    "cn_name": null,
    "alternate_name": "4<em>H</em>-1-Benzopyran-4-one, 5-(β-<span class=\"text-smallcaps\">D</span>-glucopyranosyloxy)-2,3-dihydro-2-(3-hydroxy-4-methoxyphenyl)-7-methoxy-, (2<em>S</em>)-;Persicoside;4<em>H</em>-1-Benzopyran-4-one, 5-(β-<span class=\"text-smallcaps\">D</span>-glucopyranosyloxy)-2,3-dihydro-2-(3-hydroxy-4-methoxyphenyl)-7-methoxy-, (<em>S</em>)-;(2<em>S</em>)-5-(β-<span class=\"text-smallcaps\">D</span>-Glucopyranosyloxy)-2,3-dihydro-2-(3-hydroxy-4-methoxyphenyl)-7-methoxy-4<em>H</em>-1-benzopyran-4-one;Persicogenin 5-β-<span class=\"text-smallcaps\">D</span>-glucopyranoside;Persicogenin-5-β-<span class=\"text-smallcaps\">D</span>-glucoside;Persiconin;Persicogenin-5-β-glucoside",
    "duplicated_cas_no": "28553-05-1",
    "SMILES": "O(C1=C2C(O[C@@H](CC2=O)C3=CC(O)=C(OC)C=C3)=CC(OC)=C1)[C@@H]4O[C@H](CO)[C@@H](O)[C@H](O)[C@H]4O",
    "meta_data": {
        "InChI": "InChI=1S/C23H26O11/c1-30-11-6-16-19(13(26)8-15(32-16)10-3-4-14(31-2)12(25)5-10)17(7-11)33-23-22(29)21(28)20(27)18(9-24)34-23/h3-7,15,18,20-25,27-29H,8-9H2,1-2H3/t15-,18+,20+,21-,22+,23+/m0/s1",
        "InChIKey": null,
        "Canonical SMILES": "O=C1C=2C(OC3OC(CO)C(O)C(O)C3O)=CC(OC)=CC2OC(C4=CC=C(OC)C(O)=C4)C1",
        "Molecular Formula": "C<sub>23</sub>H<sub>26</sub>O<sub>11</sub>",
        "Molecular Mass": "478.45",
        "Melting Point": "258-260 °C"
    }
}