{
    "cas_no": "60274-60-4",
    "key_name": "1-Chloro-5-iodopentane",
    "cn_name": "1-氯-5-碘戊烷;",
    "alternate_name": "Pentane, 1-chloro-5-iodo-;1-Chloro-5-iodopentane;5-Chloro-1-iodopentane;1-Iodo-5-chloropentane",
    "duplicated_cas_no": "",
    "SMILES": "C(CCCl)CCI",
    "meta_data": {
        "InChI": "InChI=1S/C5H10ClI/c6-4-2-1-3-5-7/h1-5H2",
        "InChIKey": null,
        "Canonical SMILES": "ClCCCCCI",
        "Molecular Formula": "C<sub>5</sub>H<sub>10</sub>ClI",
        "Molecular Mass": "232.49",
        "Boiling Point": "75.8 °C @ Press: 4 Torr",
        "Density": "1.6731 g/cm³ @ Temp: 20 °C"
    }
}