{
    "cas_no": "76903-88-3",
    "key_name": "3,4-Difluorobenzoyl chloride",
    "cn_name": null,
    "alternate_name": "Benzoyl chloride, 3,4-difluoro-;3,4-Difluorobenzoyl chloride",
    "duplicated_cas_no": "",
    "SMILES": "C(Cl)(=O)C1=CC(F)=C(F)C=C1",
    "meta_data": {
        "InChI": "InChI=1S/C7H3ClF2O/c8-7(11)4-1-2-5(9)6(10)3-4/h1-3H",
        "InChIKey": null,
        "Canonical SMILES": "O=C(Cl)C1=CC=C(F)C(F)=C1",
        "Molecular Formula": "C<sub>7</sub>H<sub>3</sub>ClF<sub>2</sub>O",
        "Molecular Mass": "176.55",
        "Boiling Point": "61-63 °C @ Press: 15 Torr",
        "Melting Point": "53-54 °C"
    }
}