{
    "cas_no": "1022-46-4",
    "key_name": "2-Phenyl-4<em>H</em>-3,1-benzoxazin-4-one",
    "cn_name": "苯草灭;草噁嗪；噁草嗪酮；2-苯基-3,1-苯并蟋嗪酮;",
    "alternate_name": "4<em>H</em>-3,1-Benzoxazin-4-one, 2-phenyl-;2-Phenyl-4<em>H</em>-3,1-benzoxazin-4-one;Linarotox;Linurotox;Bentranil;3-Phenyl-1<em>H</em>-2,4-benzoxazin-1-one;2-Phenyl-4-oxo-3,1-benzoxazine;NSC 16082;3-Phenyl-2,4-benzoxazin-1-one;2-Phenylbenzo[<em>d</em>][1,3]oxazin-4-one;2-Phenyl-3,1-benzoxazin-4-one;2-Phenyl-4<em>H</em>-benzo[<em>d</em>][1,3]oxazin-4-one",
    "duplicated_cas_no": "",
    "SMILES": "O=C1C=2C(N=C(O1)C3=CC=CC=C3)=CC=CC2",
    "meta_data": {
        "InChI": "InChI=1S/C14H9NO2/c16-14-11-8-4-5-9-12(11)15-13(17-14)10-6-2-1-3-7-10/h1-9H",
        "InChIKey": null,
        "Canonical SMILES": "O=C1OC(=NC=2C=CC=CC12)C=3C=CC=CC3",
        "Molecular Formula": "C<sub>14</sub>H<sub>9</sub>NO<sub>2</sub>",
        "Molecular Mass": "223.23",
        "Melting Point": "123.5 °C"
    }
}