{
    "cas_no": "615-55-4",
    "key_name": "3,4-Dibromobenzenamine",
    "cn_name": null,
    "alternate_name": "Benzenamine, 3,4-dibromo-;Aniline, 3,4-dibromo-;3,4-Dibromobenzenamine;3,4-Dibromoaniline",
    "duplicated_cas_no": "",
    "SMILES": "BrC1=C(Br)C=CC(N)=C1",
    "meta_data": {
        "InChI": "InChI=1S/C6H5Br2N/c7-5-2-1-4(9)3-6(5)8/h1-3H,9H2",
        "InChIKey": null,
        "Canonical SMILES": "BrC1=CC=C(N)C=C1Br",
        "Molecular Formula": "C<sub>6</sub>H<sub>5</sub>Br<sub>2</sub>N",
        "Molecular Mass": "250.92",
        "Melting Point": "221 °C"
    }
}