{
    "cas_no": "1277-43-6",
    "key_name": "Cobaltocene",
    "cn_name": "双(环戊二烯基)钴;",
    "alternate_name": "Cobaltocene;Cobalt, di-π-cyclopentadienyl-;Cobalt, dicyclopentadienyl-;Cobalt, bis(η<sup>5</sup>-2,4-cyclopentadien-1-yl)-;Dicyclopentadienylcobalt;Bis(cyclopentadienyl)cobalt;Bis(η-cyclopentadienyl)cobalt;Bis(cyclopentadienyl)cobalt(II);Bis(η<sup>5</sup>-cyclopentadienyl)cobalt;NSC 62690",
    "duplicated_cas_no": "78206-33-4",
    "SMILES": "[Co+2]12345678([CH]=9[CH]1=[CH]2[CH-]3[CH]49)[CH-]%10[CH]5=[CH]6[CH]7=[CH]8%10",
    "meta_data": {
        "InChI": "InChI=1S/2C5H5.Co/c2*1-2-4-5-3-1;/h2*1-5H;/q2*-1;+2",
        "InChIKey": null,
        "Canonical SMILES": "[CH]=12[CH]3=[CH]4[CH-]5[CH]1[Co+2]23678945[CH]=%10[CH]9=[CH]8[CH-]7[CH]%106",
        "Molecular Formula": "C<sub>10</sub>H<sub>10</sub>Co",
        "Molecular Mass": "",
        "Melting Point": "172 °C"
    }
}