{
    "cas_no": "789-25-3",
    "key_name": "Triphenylsilane",
    "cn_name": "三苯基硅烷;",
    "alternate_name": "Benzene, 1,1′,1′′-silylidynetris-;Silane, triphenyl-;1,1′,1′′-Silylidynetris[benzene];Triphenylsilane;Triphenylhydrosilane;NSC 12565;SIT 8665;LS 6390",
    "duplicated_cas_no": "",
    "SMILES": "[SiH](C1=CC=CC=C1)(C2=CC=CC=C2)C3=CC=CC=C3",
    "meta_data": {
        "InChI": "InChI=1S/C18H16Si/c1-4-10-16(11-5-1)19(17-12-6-2-7-13-17)18-14-8-3-9-15-18/h1-15,19H",
        "InChIKey": null,
        "Canonical SMILES": "C=1C=CC(=CC1)[SiH](C=2C=CC=CC2)C=3C=CC=CC3",
        "Molecular Formula": "C<sub>18</sub>H<sub>16</sub>Si",
        "Molecular Mass": "260.41",
        "Boiling Point": "160-165 °C @ Press: 3 Torr",
        "Melting Point": "42-44 °C"
    }
}