{
    "cas_no": "3112-88-7",
    "key_name": "[(Phenylmethyl)sulfonyl]benzene",
    "cn_name": "苄基苯基砜;",
    "alternate_name": "Benzene, [(phenylmethyl)sulfonyl]-;Sulfone, benzyl phenyl;[(Phenylmethyl)sulfonyl]benzene;Benzyl phenyl sulfone;Phenyl benzyl sulfone;NSC 15407",
    "duplicated_cas_no": "",
    "SMILES": "C(S(=O)(=O)C1=CC=CC=C1)C2=CC=CC=C2",
    "meta_data": {
        "InChI": "InChI=1S/C13H12O2S/c14-16(15,13-9-5-2-6-10-13)11-12-7-3-1-4-8-12/h1-10H,11H2",
        "InChIKey": null,
        "Canonical SMILES": "O=S(=O)(C=1C=CC=CC1)CC=2C=CC=CC2",
        "Molecular Formula": "C<sub>13</sub>H<sub>12</sub>O<sub>2</sub>S",
        "Molecular Mass": "232.30",
        "Melting Point": "146 °C"
    }
}