{
    "cas_no": "36805-97-7",
    "key_name": "<em>N</em>,<em>N</em>-Dimethylformamide di-<em>tert</em>-butyl acetal",
    "cn_name": "N,N-二甲基甲酰胺二叔丁基缩醛;",
    "alternate_name": "Methanamine, 1,1-bis(1,1-dimethylethoxy)-<em>N</em>,<em>N</em>-dimethyl-;Trimethylamine, 1,1-di-<em>tert</em>-butoxy-;1,1-Bis(1,1-dimethylethoxy)-<em>N</em>,<em>N</em>-dimethylmethanamine;Dimethylformamide di-<em>tert</em>-butyl acetal;<em>N</em>,<em>N</em>-Dimethylformamide di-<em>tert</em>-butyl acetal;DMF di-<em>tert</em>-butyl acetal;Di-<em>tert</em>-butyl dimethylformamide acetal;Di-<em>tert</em>-butoxymethyldimethylamine;<em>N</em>,<em>N</em>-DMF di-<em>tert</em>-butyl acetal;1,1-Di-<em>tert</em>-butoxy-<em>N</em>,<em>N</em>-dimethylmethaneamine;1,1-Di-<em>tert</em>-butoxy-<em>N</em>,<em>N</em>-dimethylmethanamine;Di(<em>tert</em>-butoxy)(dimethylamino)methane;1,1-Di-<em>tert</em>-butoxytrimethylamine;[Bis(<em>tert</em>-butoxy)methyl]dimethylamine;1,1-Ditertbutoxy-<em>N</em>,<em>N</em>-dimethyl-methanamine",
    "duplicated_cas_no": "",
    "SMILES": "C(OC(C)(C)C)(OC(C)(C)C)N(C)C",
    "meta_data": {
        "InChI": "InChI=1S/C11H25NO2/c1-10(2,3)13-9(12(7)8)14-11(4,5)6/h9H,1-8H3",
        "InChIKey": null,
        "Canonical SMILES": "O(C(OC(C)(C)C)N(C)C)C(C)(C)C",
        "Molecular Formula": "C<sub>11</sub>H<sub>25</sub>NO<sub>2</sub>",
        "Molecular Mass": "203.32",
        "Boiling Point": "53-54 °C @ Press: 3 Torr"
    }
}