{
    "cas_no": "1119-40-0",
    "key_name": "Dimethyl glutarate",
    "cn_name": "戊二酸二甲酯;",
    "alternate_name": "Pentanedioic acid, 1,5-dimethyl ester;Glutaric acid, dimethyl ester;Pentanedioic acid, dimethyl ester;Dimethyl glutarate;Methyl glutarate;Dimethyl pentanedioate;DBE 5;Dimethyl 1,3-propanedicarboxylate;NSC 58578;1,5-Dimethyl pentanedioate",
    "duplicated_cas_no": "111366-62-2",
    "SMILES": "C(CCC(OC)=O)C(OC)=O",
    "meta_data": {
        "InChI": "InChI=1S/C7H12O4/c1-10-6(8)4-3-5-7(9)11-2/h3-5H2,1-2H3",
        "InChIKey": null,
        "Canonical SMILES": "O=C(OC)CCCC(=O)OC",
        "Molecular Formula": "C<sub>7</sub>H<sub>12</sub>O<sub>4</sub>",
        "Molecular Mass": "160.17",
        "Boiling Point": "93.5-94.5 °C @ Press: 13 Torr",
        "Melting Point": "-42.5 °C",
        "Density": "1.0876 g/cm³ @ Temp: 20 °C"
    }
}