{
    "cas_no": "905-62-4",
    "key_name": "2,5-Bis(1-naphthyl)-1,3,4-oxadiazole",
    "cn_name": "2,5-双(1-萘基)-1,3,4-二唑;2,5-二萘基-1,3,4-恶二唑;",
    "alternate_name": "1,3,4-Oxadiazole, 2,5-di-1-naphthalenyl-;1,3,4-Oxadiazole, 2,5-di-1-naphthyl-;2,5-Di-1-naphthalenyl-1,3,4-oxadiazole;2,5-Bis(α-naphthyl)oxadiazole;2,5-Di-1-naphthyl-1,3,4-oxadiazole;ANND;α-NND;2,5-Bis(1-naphthyl)-1,3,4-oxadiazole;NSC 90480;BND",
    "duplicated_cas_no": "39457-48-2",
    "SMILES": "C=1(C2=C(C=CC1)C=CC=C2)C=3OC(=NN3)C=4C5=C(C=CC4)C=CC=C5",
    "meta_data": {
        "InChI": "InChI=1S/C22H14N2O/c1-3-11-17-15(7-1)9-5-13-19(17)21-23-24-22(25-21)20-14-6-10-16-8-2-4-12-18(16)20/h1-14H",
        "InChIKey": null,
        "Canonical SMILES": "N=1N=C(OC1C=2C=CC=C3C=CC=CC32)C=4C=CC=C5C=CC=CC54",
        "Molecular Formula": "C<sub>22</sub>H<sub>14</sub>N<sub>2</sub>O",
        "Molecular Mass": "322.36",
        "Melting Point": "178.0-178.5 °C"
    }
}