{
    "cas_no": "1297537-45-1",
    "key_name": "3-Acetyl-1<em>H</em>-pyrazole-5-carboxylic acid",
    "cn_name": null,
    "alternate_name": "1<em>H</em>-Pyrazole-3-carboxylic acid, 5-acetyl-;5-Acetyl-1<em>H</em>-pyrazole-3-carboxylic acid;3-Acetyl-1<em>H</em>-pyrazole-5-carboxylic acid",
    "duplicated_cas_no": "949034-45-1",
    "SMILES": "C(C)(=O)C1=CC(C(O)=O)=NN1",
    "meta_data": {
        "InChI": "InChI=1S/C6H6N2O3/c1-3(9)4-2-5(6(10)11)8-7-4/h2H,1H3,(H,7,8)(H,10,11)",
        "InChIKey": null,
        "Canonical SMILES": "O=C(O)C1=NNC(=C1)C(=O)C",
        "Molecular Formula": "C<sub>6</sub>H<sub>6</sub>N<sub>2</sub>O<sub>3</sub>",
        "Molecular Mass": "154.12",
        "Melting Point": "257-269 °C (decomp)"
    }
}