{
    "cas_no": "78213-16-8",
    "key_name": "Diclofenac diethylamine",
    "cn_name": "双氯芬酸二乙胺;2-(2,6-二氯苯胺)苯乙酸二乙胺盐;",
    "alternate_name": "Benzeneacetic acid, 2-[(2,6-dichlorophenyl)amino]-, compd. with <em>N</em>-ethylethanamine (1:1);Ethanamine, <em>N</em>-ethyl-, 2-[(2,6-dichlorophenyl)amino]benzeneacetate;Diclofenac diethylammonium salt;Voltaren Emulgel;Diclofenac diethylamine salt;Diclofenac diethylamine;Atomo Desinflamante;Voltaren Schmerzgel;Dynapar QPS",
    "duplicated_cas_no": "",
    "SMILES": "N(C1=C(CC(O)=O)C=CC=C1)C2=C(Cl)C=CC=C2Cl.N(CC)CC",
    "meta_data": {
        "InChI": "InChI=1S/C14H11Cl2NO2.C4H11N/c15-10-5-3-6-11(16)14(10)17-12-7-2-1-4-9(12)8-13(18)19;1-3-5-4-2/h1-7,17H,8H2,(H,18,19);5H,3-4H2,1-2H3",
        "InChIKey": null,
        "Canonical SMILES": "O=C(O)CC=1C=CC=CC1NC=2C(Cl)=CC=CC2Cl.N(CC)CC",
        "Molecular Formula": "C<sub>14</sub>H<sub>11</sub>Cl<sub>2</sub>NO<sub>2</sub>.C<sub>4</sub>H<sub>11</sub>N",
        "Molecular Mass": "",
        "Melting Point": "145-148 °C"
    }
}