{
    "cas_no": "1117-31-3",
    "key_name": "1,3-Butylene glycol diacetate",
    "cn_name": null,
    "alternate_name": "1,3-Butanediol, 1,3-diacetate;1,3-Butanediol, diacetate;1,3-Butylene diacetate;1,3-Diacetoxybutane;1,3-Butylene glycol diacetate;(±)-1,3-Diacetoxybutane;NSC 67338;1,3-Butanediyl diacetate;1,3-BGDA;CELTOL 1,3-BGDA",
    "duplicated_cas_no": "106484-02-0",
    "SMILES": "C(CCOC(C)=O)(OC(C)=O)C",
    "meta_data": {
        "InChI": "InChI=1S/C8H14O4/c1-6(12-8(3)10)4-5-11-7(2)9/h6H,4-5H2,1-3H3",
        "InChIKey": null,
        "Canonical SMILES": "O=C(OCCC(OC(=O)C)C)C",
        "Molecular Formula": "C<sub>8</sub>H<sub>14</sub>O<sub>4</sub>",
        "Molecular Mass": "174.19",
        "Boiling Point": "89 °C @ Press: 10 Torr",
        "Density": "1.029 g/cm³ @ Temp: 20 °C"
    }
}