{
    "cas_no": "1942-31-0",
    "key_name": "1-[4-(2-Phenylethynyl)phenyl]ethanone",
    "cn_name": "4-(苯乙炔基)苯乙酮;4-苯乙炔基苯乙酮;",
    "alternate_name": "Ethanone, 1-[4-(2-phenylethynyl)phenyl]-;Acetophenone, 4′-(phenylethynyl)-;Ethanone, 1-[4-(phenylethynyl)phenyl]-;1-[4-(2-Phenylethynyl)phenyl]ethanone;4-(2-Phenylethynyl)acetophenone;1-[4-(Phenylethynyl)phenyl]ethanone;4-Acetyltolane;1-Acetyl-4-(phenylethynyl)benzene;4′-(Phenylethynyl)acetophenone;4-(Phenylethynyl)acetophenone;4-Acetylphenyl(phenyl)acetylene;1-(4-Acetylphenyl)-2-phenylethyne;<em>p</em>-Acetyldiphenylacetylene;1-(4-Acetylphenyl)-2-phenylacetylene;1-[4-(Phenylethynyl)phenyl]ethan-1-one;1-[4-(2-Phenyleth-1-ynyl)phenyl]ethan-1-one;4′-(2-Phenylethynyl)acetophenone",
    "duplicated_cas_no": "",
    "SMILES": "C(#CC1=CC=CC=C1)C2=CC=C(C(C)=O)C=C2",
    "meta_data": {
        "InChI": "InChI=1S/C16H12O/c1-13(17)16-11-9-15(10-12-16)8-7-14-5-3-2-4-6-14/h2-6,9-12H,1H3",
        "InChIKey": null,
        "Canonical SMILES": "O=C(C1=CC=C(C#CC=2C=CC=CC2)C=C1)C",
        "Molecular Formula": "C<sub>16</sub>H<sub>12</sub>O",
        "Molecular Mass": "220.27",
        "Melting Point": "98-99 °C"
    }
}