{
    "cas_no": "103854-64-4",
    "key_name": "8-Methoxyquinoline-2-carboxaldehyde",
    "cn_name": null,
    "alternate_name": "2-Quinolinecarboxaldehyde, 8-methoxy-;Quinaldaldehyde, 8-methoxy-;8-Methoxy-2-quinolinecarboxaldehyde;8-Methoxyquinoline-2-carboxaldehyde",
    "duplicated_cas_no": "",
    "SMILES": "O(C)C=1C2=C(C=CC(C=O)=N2)C=CC1",
    "meta_data": {
        "InChI": "InChI=1S/C11H9NO2/c1-14-10-4-2-3-8-5-6-9(7-13)12-11(8)10/h2-7H,1H3",
        "InChIKey": null,
        "Canonical SMILES": "O=CC=1N=C2C(OC)=CC=CC2=CC1",
        "Molecular Formula": "C<sub>11</sub>H<sub>9</sub>NO<sub>2</sub>",
        "Molecular Mass": "187.19",
        "Melting Point": "102 °C"
    }
}