{
    "cas_no": "57079-01-3",
    "key_name": "11-Maleimidoundecanoic acid",
    "cn_name": "11-马来酰胺基十一烷酸;",
    "alternate_name": "1<em>H</em>-Pyrrole-1-undecanoic acid, 2,5-dihydro-2,5-dioxo-;2,5-Dihydro-2,5-dioxo-1<em>H</em>-pyrrole-1-undecanoic acid;<em>N</em>-(10-Carboxydecyl)maleimide;AM 10;11-Maleimidoundecanoic acid;11-(2,5-Dioxo-2,5-dihydro-1<em>H</em>-pyrrol-1-yl)undecanoicacid",
    "duplicated_cas_no": "",
    "SMILES": "C(CCCCCCCCCC(O)=O)N1C(=O)C=CC1=O",
    "meta_data": {
        "InChI": "InChI=1S/C15H23NO4/c17-13-10-11-14(18)16(13)12-8-6-4-2-1-3-5-7-9-15(19)20/h10-11H,1-9,12H2,(H,19,20)",
        "InChIKey": null,
        "Canonical SMILES": "O=C1C=CC(=O)N1CCCCCCCCCCC(=O)O",
        "Molecular Formula": "C<sub>15</sub>H<sub>23</sub>NO<sub>4</sub>",
        "Molecular Mass": "281.35",
        "Melting Point": "88 °C"
    }
}