{
    "cas_no": "14473-90-6",
    "key_name": "(2<em>E</em>)-3-(3-Chlorophenyl)-2-propenoic acid",
    "cn_name": null,
    "alternate_name": "2-Propenoic acid, 3-(3-chlorophenyl)-, (2<em>E</em>)-;Cinnamic acid, <em>m</em>-chloro-, (<em>E</em>)-;2-Propenoic acid, 3-(3-chlorophenyl)-, (<em>E</em>)-;(2<em>E</em>)-3-(3-Chlorophenyl)-2-propenoic acid;<em>trans</em>-<em>m</em>-Chlorocinnamic acid;<em>trans</em>-3-Chlorocinnamic acid;(<em>E</em>)-3-Chlorocinnamic acid;(<em>E</em>)-3-(3-Chlorophenyl)acrylic acid;<em>trans</em>-3-(3-Chlorophenyl)acrylic acid;<em>trans</em>-3-(3-Chlorophenyl)-2-propenoic acid;3-Chloro-<em>trans</em>-cinnamic acid;(E)-3-Chlorocinnamic acid;(E)-3-(3-Chlorophenyl)acrylic acid",
    "duplicated_cas_no": "",
    "SMILES": "C(=C/C(O)=O)\\C1=CC(Cl)=CC=C1",
    "meta_data": {
        "InChI": "InChI=1S/C9H7ClO2/c10-8-3-1-2-7(6-8)4-5-9(11)12/h1-6H,(H,11,12)/b5-4+",
        "InChIKey": null,
        "Canonical SMILES": "O=C(O)C=CC=1C=CC=C(Cl)C1",
        "Molecular Formula": "C<sub>9</sub>H<sub>7</sub>ClO<sub>2</sub>",
        "Molecular Mass": "182.60",
        "Melting Point": "163 °C"
    }
}