{
    "cas_no": "76-02-8",
    "key_name": "2,2,2-Trichloroacetyl chloride",
    "cn_name": "三氯乙酰氯;",
    "alternate_name": "Acetyl chloride, 2,2,2-trichloro-;Acetyl chloride, trichloro-;2,2,2-Trichloroacetyl chloride;Trichloroacetyl chloride;Trichloroacetochloride;Trichloroacetic acid chloride;NSC 190466",
    "duplicated_cas_no": "",
    "SMILES": "C(C(Cl)=O)(Cl)(Cl)Cl",
    "meta_data": {
        "InChI": "InChI=1S/C2Cl4O/c3-1(7)2(4,5)6",
        "InChIKey": null,
        "Canonical SMILES": "O=C(Cl)C(Cl)(Cl)Cl",
        "Molecular Formula": "C<sub>2</sub>Cl<sub>4</sub>O",
        "Molecular Mass": "181.83",
        "Boiling Point": "117.9 °C",
        "Melting Point": "-31.8 °C",
        "Density": "1.6202 g/cm³ @ Temp: 20 °C"
    }
}