{
    "cas_no": "115-28-6",
    "key_name": "Chlorendic acid",
    "cn_name": "氯菌酸;氯桥酸;1,4,5,6,7,7-六氯-5-降冰片烯-2,3-二羧酸;",
    "alternate_name": "Bicyclo[2.2.1]hept-5-ene-2,3-dicarboxylic acid, 1,4,5,6,7,7-hexachloro-;5-Norbornene-2,3-dicarboxylic acid, 1,4,5,6,7,7-hexachloro-;1,4,5,6,7,7-Hexachlorobicyclo[2.2.1]hept-5-ene-2,3-dicarboxylic acid;Chlorendic acid;1,4,5,6,7,7-Hexachlorodicyclo-(2.2.1)-5-heptene-2,3-dicarboxylic acid;Hexachloroendomethylenetetrahydrophthalic acid;HET acid;1,4,5,6,7,7-Hexachlorobicyclo-(2,2,1)hept-5-en-2,3-dicarboxylic acid;2<em>H</em>,3<em>H</em>-Hexachlorobicyclo[2.2.1]hept-5-ene-2,3-dicarboxylic acid;1,4,5,6,7,7-Hexachloro-5-norbornene-2,3-dicarboxylic acid;NSC 22231;NSC 41876;1,2,3,4,7,7-Hexachlorobicyclo[2.2.1]hept-2-ene-5,6-dicarboxylic acid",
    "duplicated_cas_no": "5343-97-5;7374-78-9;888949-13-1",
    "SMILES": "ClC12C(C(O)=O)C(C(O)=O)C(Cl)(C1(Cl)Cl)C(Cl)=C2Cl",
    "meta_data": {
        "InChI": "InChI=1S/C9H4Cl6O4/c10-3-4(11)8(13)2(6(18)19)1(5(16)17)7(3,12)9(8,14)15/h1-2H,(H,16,17)(H,18,19)",
        "InChIKey": null,
        "Canonical SMILES": "O=C(O)C1C(C(=O)O)C2(Cl)C(Cl)=C(Cl)C1(Cl)C2(Cl)Cl",
        "Molecular Formula": "C<sub>9</sub>H<sub>4</sub>Cl<sub>6</sub>O<sub>4</sub>",
        "Molecular Mass": "388.84",
        "Melting Point": "209 °C"
    }
}