{
    "cas_no": "24407-32-7",
    "key_name": "3,4,5,6-Tetrabromophthalimide",
    "cn_name": "3,4,5,6-四溴邻苯二甲酰亚胺;",
    "alternate_name": "1<em>H</em>-Isoindole-1,3(2<em>H</em>)-dione, 4,5,6,7-tetrabromo-;Phthalimide, 3,4,5,6-tetrabromo-;4,5,6,7-Tetrabromo-1<em>H</em>-isoindole-1,3(2<em>H</em>)-dione;3,4,5,6-Tetrabromophthalimide;NSC 93908",
    "duplicated_cas_no": "",
    "SMILES": "BrC1=C2C(=C(Br)C(Br)=C1Br)C(=O)NC2=O",
    "meta_data": {
        "InChI": "InChI=1S/C8HBr4NO2/c9-3-1-2(8(15)13-7(1)14)4(10)6(12)5(3)11/h(H,13,14,15)",
        "InChIKey": null,
        "Canonical SMILES": "O=C1NC(=O)C=2C(Br)=C(Br)C(Br)=C(Br)C12",
        "Molecular Formula": "C<sub>8</sub>HBr<sub>4</sub>NO<sub>2</sub>",
        "Molecular Mass": "462.71",
        "Melting Point": "&gt;300 °C"
    }
}