{
    "cas_no": "79-07-2",
    "key_name": "Chloroacetamide",
    "cn_name": "氯乙酰胺;",
    "alternate_name": "Acetamide, 2-chloro-;Acetamide, α-chloro-;2-Chloroacetamide;Chloracetamide;Chloroacetamide;α-Chloroacetamide;Microcide;Mergal AF;KM 101;NSC 54286;NSC 8408;KM 101 (fungicide)",
    "duplicated_cas_no": "",
    "SMILES": "C(CCl)(N)=O",
    "meta_data": {
        "InChI": "InChI=1S/C2H4ClNO/c3-1-2(4)5/h1H2,(H2,4,5)",
        "InChIKey": null,
        "Canonical SMILES": "O=C(N)CCl",
        "Molecular Formula": "C<sub>2</sub>H<sub>4</sub>ClNO",
        "Molecular Mass": "93.51",
        "Boiling Point": "225 °C",
        "Melting Point": "120 °C",
        "Density": "1.60 g/cm³"
    }
}