{
    "cas_no": "110-58-7",
    "key_name": "Pentylamine",
    "cn_name": "1-氨基戊烷;正戊胺;",
    "alternate_name": "1-Pentanamine;Pentylamine;1-Aminopentane;Amylamine;Monoamylamine;Norleucamine;<em>n</em>-Pentylamine;<em>n</em>-Amylamine;1-Pentylamine;Monopentylamine;NSC 7906",
    "duplicated_cas_no": "",
    "SMILES": "C(CCN)CC",
    "meta_data": {
        "InChI": "InChI=1S/C5H13N/c1-2-3-4-5-6/h2-6H2,1H3",
        "InChIKey": null,
        "Canonical SMILES": "NCCCCC",
        "Molecular Formula": "C<sub>5</sub>H<sub>13</sub>N",
        "Molecular Mass": "87.16",
        "Boiling Point": "104.3 °C",
        "Melting Point": "-55 °C",
        "Density": "0.7589 g/cm³ @ Temp: 20 °C"
    }
}