{
    "cas_no": "77-47-4",
    "key_name": "Hexachlorocyclopentadiene",
    "cn_name": "六氯环戊二烯;全氯环戊二烯;1,2,3,4,5,5-六氯环戊-1,3-二烯;",
    "alternate_name": "1,3-Cyclopentadiene, 1,2,3,4,5,5-hexachloro-;Cyclopentadiene, hexachloro-;1,2,3,4,5,5-Hexachloro-1,3-cyclopentadiene;C 56;HRS 1655;Graphlox;Hexachlorocyclopentadiene;Perchlorocyclopentadiene;Hexachloro-1,3-cyclopentadiene;NSC 9235;1,2,3,4,5,5-Hexachlorocyclopentadiene",
    "duplicated_cas_no": "",
    "SMILES": "ClC1(Cl)C(Cl)=C(Cl)C(Cl)=C1Cl",
    "meta_data": {
        "InChI": "InChI=1S/C5Cl6/c6-1-2(7)4(9)5(10,11)3(1)8",
        "InChIKey": null,
        "Canonical SMILES": "ClC=1C(Cl)=C(Cl)C(Cl)(Cl)C1Cl",
        "Molecular Formula": "C<sub>5</sub>Cl<sub>6</sub>",
        "Molecular Mass": "272.77",
        "Boiling Point": "239 °C",
        "Melting Point": "-9 °C",
        "Density": "1.7019 g/cm³ @ Temp: 25 °C"
    }
}