{
    "cas_no": "4591-56-4",
    "key_name": "3,5-Pyridinedicarboxylic acid, 3,5-diethyl ester",
    "cn_name": "3,5-吡啶二甲酸二乙酯;",
    "alternate_name": "3,5-Pyridinedicarboxylic acid, 3,5-diethyl ester;3,5-Pyridinedicarboxylic acid, diethyl ester;3,5-Diethoxycarbonylpyridine;3,5-Dicarbethoxypyridine;Diethyl pyridine-3,5-dicarboxylate;Diethyl dinicotinate;NSC 165814;3,5-Diethyl pyridine-3,5-dicarboxylate",
    "duplicated_cas_no": "",
    "SMILES": "C(OCC)(=O)C=1C=C(C(OCC)=O)C=NC1",
    "meta_data": {
        "InChI": "InChI=1S/C11H13NO4/c1-3-15-10(13)8-5-9(7-12-6-8)11(14)16-4-2/h5-7H,3-4H2,1-2H3",
        "InChIKey": null,
        "Canonical SMILES": "O=C(OCC)C1=CN=CC(=C1)C(=O)OCC",
        "Molecular Formula": "C<sub>11</sub>H<sub>13</sub>NO<sub>4</sub>",
        "Molecular Mass": "223.23",
        "Boiling Point": "145 °C @ Press: 1 Torr",
        "Melting Point": "51 °C"
    }
}