{
    "cas_no": "2390-63-8",
    "key_name": "Rhodamine 3B",
    "cn_name": "碱性红11;",
    "alternate_name": "Xanthylium, 3,6-bis(diethylamino)-9-[2-(ethoxycarbonyl)phenyl]-, chloride (1:1);Rhodamine 3B;Ammonium, [9-(<em>o</em>-carboxyphenyl)-6-(diethylamino)-3<em>H</em>-xanthen-3-ylidene]diethyl-, chloride, ethyl ester;Ethanaminium, <em>N</em>-[6-(diethylamino)-9-[2-(ethoxycarbonyl)phenyl]-3<em>H</em>-xanthen-3-ylidene]-<em>N</em>-ethyl-, chloride;Xanthylium, 3,6-bis(diethylamino)-9-[2-(ethoxycarbonyl)phenyl]-, chloride;[9-(<em>o</em>-Carboxyphenyl)-6-(diethylamino)-3<em>H</em>-xanthen-3-ylidene]diethylammonium chloride, ethyl ester;C.I. 45175;C.I. Basic Violet 11;Rhodamine F 3B;C.I. Basic Red 19;Ethylrhodamine B;Basic Violet 11;Aizen Cathilon Brilliant Pink CD-BH;Basonyl Red NB 560;Rhodamine B ethyl ester",
    "duplicated_cas_no": "152071-34-6;217457-21-1;1257879-93-8",
    "SMILES": "C(OCC)(=O)C1=C(C=2C3=C([O+]=C4C2C=CC(N(CC)CC)=C4)C=C(N(CC)CC)C=C3)C=CC=C1.[Cl-]",
    "meta_data": {
        "InChI": "InChI=1S/C30H35N2O3.ClH/c1-6-31(7-2)21-15-17-25-27(19-21)35-28-20-22(32(8-3)9-4)16-18-26(28)29(25)23-13-11-12-14-24(23)30(33)34-10-5;/h11-20H,6-10H2,1-5H3;1H/q+1;/p-1",
        "InChIKey": null,
        "Canonical SMILES": "[Cl-].O=C(OCC)C=1C=CC=CC1C=2C=3C=CC(=CC3[O+]=C4C=C(C=CC42)N(CC)CC)N(CC)CC",
        "Molecular Formula": "C<sub>30</sub>H<sub>35</sub>N<sub>2</sub>O<sub>3</sub>.Cl",
        "Molecular Mass": "",
        "Melting Point": "124-127 °C"
    }
}