{
    "cas_no": "13001-38-2",
    "key_name": "2-[2-[4-[2-(4-Cyanophenyl)ethenyl]phenyl]ethenyl]benzonitrile",
    "cn_name": "1-邻氰苯乙烯基-4-对氰苯乙烯基苯;荧光增白剂ER-II;",
    "alternate_name": "Benzonitrile, 2-[2-[4-[2-(4-cyanophenyl)ethenyl]phenyl]ethenyl]-;Benzonitrile, 2,4′-(<em>p</em>-phenylenedivinylene)di-;2-[2-[4-[2-(4-Cyanophenyl)ethenyl]phenyl]ethenyl]benzonitrile;Fluorescent Brightener ER-II;1-(2-Cyanostyryl)-4-(4-cyanostyryl)benzene",
    "duplicated_cas_no": "",
    "SMILES": "C(=CC1=CC=C(C=CC2=CC=C(C#N)C=C2)C=C1)C3=C(C#N)C=CC=C3",
    "meta_data": {
        "InChI": "InChI=1S/C24H16N2/c25-17-22-13-11-20(12-14-22)6-5-19-7-9-21(10-8-19)15-16-23-3-1-2-4-24(23)18-26/h1-16H",
        "InChIKey": null,
        "Canonical SMILES": "N#CC1=CC=C(C=C1)C=CC2=CC=C(C=C2)C=CC=3C=CC=CC3C#N",
        "Molecular Formula": "C<sub>24</sub>H<sub>16</sub>N<sub>2</sub>",
        "Molecular Mass": "332.40",
        "Melting Point": "190-192 °C"
    }
}