{
    "cas_no": "952-47-6",
    "key_name": "4-Methyl-2-(2-phenyldiazenyl)phenol",
    "cn_name": "2-(苯杂氮)二苯胺;2-苯基偶氮-4-甲基苯酚;",
    "alternate_name": "Phenol, 4-methyl-2-(2-phenyldiazenyl)-;<em>p</em>-Cresol, 2-(phenylazo)-;Phenol, 4-methyl-2-(phenylazo)-;4-Methyl-2-(2-phenyldiazenyl)phenol;C.I. 11850;Oil Yellow APC;2-Hydroxy-5-methylazobenzene;2-Phenylazo-4-methylphenol;4-Methyl-2-(phenylazo)phenol;2-Phenylazo-4-methyl-1-phenol;C.I. Solvent Yellow 11;Solvent Yellow 11;NSC 85564",
    "duplicated_cas_no": "",
    "SMILES": "N(=NC1=CC=CC=C1)C2=C(O)C=CC(C)=C2",
    "meta_data": {
        "InChI": "InChI=1S/C13H12N2O/c1-10-7-8-13(16)12(9-10)15-14-11-5-3-2-4-6-11/h2-9,16H,1H3",
        "InChIKey": null,
        "Canonical SMILES": "OC1=CC=C(C=C1N=NC=2C=CC=CC2)C",
        "Molecular Formula": "C<sub>13</sub>H<sub>12</sub>N<sub>2</sub>O",
        "Molecular Mass": "212.25",
        "Melting Point": "108.5 °C"
    }
}