{
    "cas_no": "134-32-7",
    "key_name": "1-Naphthylamine",
    "cn_name": null,
    "alternate_name": "1-Naphthalenamine;1-Naphthylamine;1-Aminonaphthalene;Fast Garnet Base B;Naphthalidam;Naphthalidine;α-Naphthylamine;α-Aminonaphthalene;C.I. 37265;1-Naphthalamine;C.I. Azoic Diazo Component 114;Naphthalen-1-ylamine;MeSH ID: D015057",
    "duplicated_cas_no": "12262-09-8",
    "SMILES": "NC=1C2=C(C=CC1)C=CC=C2",
    "meta_data": {
        "InChI": "InChI=1S/C10H9N/c11-10-7-3-5-8-4-1-2-6-9(8)10/h1-7H,11H2",
        "InChIKey": null,
        "Canonical SMILES": "NC1=CC=CC=2C=CC=CC12",
        "Molecular Formula": "C<sub>10</sub>H<sub>9</sub>N",
        "Molecular Mass": "143.19",
        "Boiling Point": "300.7 °C",
        "Melting Point": "49.2 °C",
        "Density": "1.114 g/cm³"
    }
}