{
    "cas_no": "271-80-7",
    "key_name": "1<em>H</em>-Pyrazolo[3,4-<em>d</em>]pyrimidine",
    "cn_name": null,
    "alternate_name": "1<em>H</em>-Pyrazolo[3,4-<em>d</em>]pyrimidine;5<em>H</em>-Pyrazolo[3,4-<em>d</em>]pyrimidine;NSC 82206;5,7-Diaza-1<em>H</em>-indazole;7-Deaza-8-azapurine",
    "duplicated_cas_no": "35760-86-2",
    "SMILES": "C1=2C(NN=C1)=NC=NC2",
    "meta_data": {
        "InChI": "InChI=1S/C5H4N4/c1-4-2-8-9-5(4)7-3-6-1/h1-3H,(H,6,7,8,9)",
        "InChIKey": null,
        "Canonical SMILES": "N=1C=NC=2NN=CC2C1",
        "Molecular Formula": "C<sub>5</sub>H<sub>4</sub>N<sub>4</sub>",
        "Molecular Mass": "120.11",
        "Melting Point": "213-214 °C"
    }
}