{
    "cas_no": "25414-22-6",
    "key_name": "2-Methoxyfuran",
    "cn_name": "2-呋甲醚;2-甲氧基呋喃;",
    "alternate_name": "Furan, 2-methoxy-;2-Methoxyfuran;2-Furyl methyl ether",
    "duplicated_cas_no": "",
    "SMILES": "O(C)C1=CC=CO1",
    "meta_data": {
        "InChI": "InChI=1S/C5H6O2/c1-6-5-3-2-4-7-5/h2-4H,1H3",
        "InChIKey": null,
        "Canonical SMILES": "O1C=CC=C1OC",
        "Molecular Formula": "C<sub>5</sub>H<sub>6</sub>O<sub>2</sub>",
        "Molecular Mass": "98.10",
        "Boiling Point": "110.5 °C",
        "Melting Point": "136-138 °C",
        "Density": "1.0646 g/cm³ @ Temp: 25 °C"
    }
}