{
    "cas_no": "94-97-3",
    "key_name": "5-Chlorobenzotriazole",
    "cn_name": "5-氯代苯并三氮唑;",
    "alternate_name": "1<em>H</em>-Benzotriazole, 6-chloro-;1<em>H</em>-Benzotriazole, 5-chloro-;Benzotriazole, 5-chloro-;6-Chloro-1<em>H</em>-benzotriazole;5-Chlorobenzotriazole;6-Chlorobenzotriazole;5-Chloro-1<em>H</em>-benzotriazole;NSC 16507;NSC 58361;5-Chloro-1<em>H</em>-benzo[<em>d</em>][1,2,3]triazole;6-Chloro-1<em>H</em>-benzo[<em>d</em>][1,2,3]triazole",
    "duplicated_cas_no": "",
    "SMILES": "ClC=1C=C2C(=CC1)NN=N2",
    "meta_data": {
        "InChI": "InChI=1S/C6H4ClN3/c7-4-1-2-5-6(3-4)9-10-8-5/h1-3H,(H,8,9,10)",
        "InChIKey": null,
        "Canonical SMILES": "ClC=1C=CC=2NN=NC2C1",
        "Molecular Formula": "C<sub>6</sub>H<sub>4</sub>ClN<sub>3</sub>",
        "Molecular Mass": "153.57",
        "Melting Point": "155 °C"
    }
}