{
    "cas_no": "348086-71-5",
    "key_name": "<em>N</em>-[5-(Aminosulfonyl)-4-methyl-1,3-thiazol-2-yl]-<em>N</em>-methyl-2-[4-(2-pyridinyl)phenyl]acetamide",
    "cn_name": null,
    "alternate_name": "Benzeneacetamide, <em>N</em>-[5-(aminosulfonyl)-4-methyl-2-thiazolyl]-<em>N</em>-methyl-4-(2-pyridinyl)-;<em>N</em>-[5-(Aminosulfonyl)-4-methyl-2-thiazolyl]-<em>N</em>-methyl-4-(2-pyridinyl)benzeneacetamide;BAY 57-1293;<em>N</em>-[5-(Aminosulfonyl)-4-methyl-1,3-thiazol-2-yl]-<em>N</em>-methyl-2-[4-(2-pyridinyl)phenyl]acetamide;Pritelivir;AIC 090093;AIC090093;AIC316;AIC 316",
    "duplicated_cas_no": "",
    "SMILES": "N(C(CC1=CC=C(C=C1)C2=CC=CC=N2)=O)(C)C=3SC(S(N)(=O)=O)=C(C)N3",
    "meta_data": {
        "InChI": "InChI=1S/C18H18N4O3S2/c1-12-17(27(19,24)25)26-18(21-12)22(2)16(23)11-13-6-8-14(9-7-13)15-5-3-4-10-20-15/h3-10H,11H2,1-2H3,(H2,19,24,25)",
        "InChIKey": null,
        "Canonical SMILES": "O=C(N(C1=NC(=C(S1)S(=O)(=O)N)C)C)CC=2C=CC(=CC2)C3=NC=CC=C3",
        "Molecular Formula": "C<sub>18</sub>H<sub>18</sub>N<sub>4</sub>O<sub>3</sub>S<sub>2</sub>",
        "Molecular Mass": "402.49",
        "Melting Point": "190 °C"
    }
}