{
    "cas_no": "17278-28-3",
    "key_name": "Isocucurbitacin B",
    "cn_name": null,
    "alternate_name": "19-Norlanosta-5,23-diene-2,11,22-trione, 25-(acetyloxy)-3,16,20-trihydroxy-9-methyl-, (3α,9β,10α,16α,23<em>E</em>)-;(3α,9β,10α,16α,23<em>E</em>)-25-(Acetyloxy)-3,16,20-trihydroxy-9-methyl-19-norlanosta-5,23-diene-2,11,22-trione;Isocucurbitacin B;NSC 106400",
    "duplicated_cas_no": "13201-13-3",
    "SMILES": "C[C@]12[C@@](C)([C@@]([C@@](C(/C=C/C(OC(C)=O)(C)C)=O)(C)O)([C@H](O)C1)[H])CC(=O)[C@]3(C)[C@]2(CC=C4[C@]3(CC(=O)[C@@H](O)C4(C)C)[H])[H]",
    "meta_data": {
        "InChI": "InChI=1S/C32H46O8/c1-17(33)40-27(2,3)13-12-23(36)32(9,39)25-21(35)15-29(6)22-11-10-18-19(14-20(34)26(38)28(18,4)5)31(22,8)24(37)16-30(25,29)7/h10,12-13,19,21-22,25-26,35,38-39H,11,14-16H2,1-9H3/b13-12+/t19-,21-,22+,25+,26-,29+,30-,31+,32+/m1/s1",
        "InChIKey": null,
        "Canonical SMILES": "O=C(OC(C=CC(=O)C(O)(C)C1C(O)CC2(C)C3CC=C4C(CC(=O)C(O)C4(C)C)C3(C(=O)CC12C)C)(C)C)C",
        "Molecular Formula": "C<sub>32</sub>H<sub>46</sub>O<sub>8</sub>",
        "Molecular Mass": "558.70",
        "Melting Point": "219 °C"
    }
}