{
    "cas_no": "832747-59-8",
    "key_name": "3-Ethenyl-6,7,8,9-tetrahydro-2-methyl-4<em>H</em>-pyrido[1,2-<em>a</em>]pyrimidin-4-one",
    "cn_name": null,
    "alternate_name": "4<em>H</em>-Pyrido[1,2-<em>a</em>]pyrimidin-4-one, 3-ethenyl-6,7,8,9-tetrahydro-2-methyl-;3-Ethenyl-6,7,8,9-tetrahydro-2-methyl-4<em>H</em>-pyrido[1,2-<em>a</em>]pyrimidin-4-one;3-Ethenyl-2-methyl-6,7,8,9-tetrahydropyrido[1,2-<em>a</em>]pyrimidin-4-one;3-Ethenyl-2-methyl-4<em>H</em>,6<em>H</em>,7<em>H</em>,8<em>H</em>,9<em>H</em>-pyrido[1,2-<em>a</em>]pyrimidin-4-one",
    "duplicated_cas_no": "",
    "SMILES": "O=C1N2C(=NC(C)=C1C=C)CCCC2",
    "meta_data": {
        "InChI": "InChI=1S/C11H14N2O/c1-3-9-8(2)12-10-6-4-5-7-13(10)11(9)14/h3H,1,4-7H2,2H3",
        "InChIKey": null,
        "Canonical SMILES": "O=C1C(C=C)=C(N=C2N1CCCC2)C",
        "Molecular Formula": "C<sub>11</sub>H<sub>14</sub>N<sub>2</sub>O",
        "Molecular Mass": "190.24",
        "Melting Point": "180-183 °C"
    }
}