{
    "cas_no": "17329-31-6",
    "key_name": "6-Amino-4(3<em>H</em>)-quinazolinone",
    "cn_name": null,
    "alternate_name": "4(3<em>H</em>)-Quinazolinone, 6-amino-;4(1<em>H</em>)-Quinazolinone, 6-amino-;6-Amino-4(3<em>H</em>)-quinazolinone;6-Amino-4-quinazolinone;6-Amino-4-hydroxyquinazoline;6-Amino-3<em>H</em>-quinazolin-4-one;NSC 338202;6-Amino-4(1<em>H</em>)-quinazolinone;6-Aminoquinazolin-4-ol",
    "duplicated_cas_no": "",
    "SMILES": "O=C1C=2C(=CC=C(N)C2)NC=N1",
    "meta_data": {
        "InChI": "InChI=1S/C8H7N3O/c9-5-1-2-7-6(3-5)8(12)11-4-10-7/h1-4H,9H2,(H,10,11,12)",
        "InChIKey": null,
        "Canonical SMILES": "O=C1N=CNC2=CC=C(N)C=C12",
        "Molecular Formula": "C<sub>8</sub>H<sub>7</sub>N<sub>3</sub>O",
        "Molecular Mass": "161.16",
        "Melting Point": "303 °C"
    }
}