{
    "cas_no": "320-75-2",
    "key_name": "2-Bromo-4-fluoro-6-nitrophenol",
    "cn_name": null,
    "alternate_name": "Phenol, 2-bromo-4-fluoro-6-nitro-;2-Bromo-4-fluoro-6-nitrophenol;6-Bromo-4-fluoro-2-nitrophenol",
    "duplicated_cas_no": "",
    "SMILES": "N(=O)(=O)C1=C(O)C(Br)=CC(F)=C1",
    "meta_data": {
        "InChI": "InChI=1S/C6H3BrFNO3/c7-4-1-3(8)2-5(6(4)10)9(11)12/h1-2,10H",
        "InChIKey": null,
        "Canonical SMILES": "O=N(=O)C=1C=C(F)C=C(Br)C1O",
        "Molecular Formula": "C<sub>6</sub>H<sub>3</sub>BrFNO<sub>3</sub>",
        "Molecular Mass": "236.00",
        "Melting Point": "67 °C"
    }
}