{
    "cas_no": "522-66-7",
    "key_name": "(-)-Dihydroquinine",
    "cn_name": "氢化奎宁;氢化奎宁;",
    "alternate_name": "Cinchonan-9-ol, 10,11-dihydro-6′-methoxy-, (8α,9<em>R</em>)-;Hydroquinine;(8α,9<em>R</em>)-10,11-Dihydro-6′-methoxycinchonan-9-ol;Dihydroquinine;10,11-Dihydroquinine;(-)-Dihydroquinine;(-)-10,11-Dihydroquinine;NSC 41799;(-)-Hydroquinine",
    "duplicated_cas_no": "7761-99-1;23495-97-8;28639-01-2;1089761-33-0;1217598-14-5;2244812-98-2;2244813-00-9;3017975-82-2",
    "SMILES": "[C@@H](O)(C=1C2=C(C=CC(OC)=C2)N=CC1)[C@]3([N@@]4C[C@H](CC)[C@](C3)(CC4)[H])[H]",
    "meta_data": {
        "InChI": "InChI=1S/C20H26N2O2/c1-3-13-12-22-9-7-14(13)10-19(22)20(23)16-6-8-21-18-5-4-15(24-2)11-17(16)18/h4-6,8,11,13-14,19-20,23H,3,7,9-10,12H2,1-2H3/t13-,14-,19-,20+/m0/s1",
        "InChIKey": null,
        "Canonical SMILES": "OC(C=1C=CN=C2C=CC(OC)=CC21)C3N4CCC(C3)C(C4)CC",
        "Molecular Formula": "C<sub>20</sub>H<sub>26</sub>N<sub>2</sub>O<sub>2</sub>",
        "Molecular Mass": "326.43",
        "Melting Point": "172.5 °C"
    }
}