{
    "cas_no": "65873-73-6",
    "key_name": "3-Pyridinecarboxaldehyde, 5-bromo-6-methoxy-",
    "cn_name": null,
    "alternate_name": "3-Pyridinecarboxaldehyde, 5-bromo-6-methoxy-;5-Bromo-6-methoxynicotinaldehyde;5-Bromo-6-methoxypyridin-3-carboxaldehyde;2-Methoxy-3-bromopyridine-5-carboxaldehyde;5-Bromo-6-methoxypyridine-3-carboxaldehyde",
    "duplicated_cas_no": "",
    "SMILES": "C(=O)C=1C=C(Br)C(OC)=NC1",
    "meta_data": {
        "InChI": "InChI=1S/C7H6BrNO2/c1-11-7-6(8)2-5(4-10)3-9-7/h2-4H,1H3",
        "InChIKey": null,
        "Canonical SMILES": "O=CC1=CN=C(OC)C(Br)=C1",
        "Molecular Formula": "C<sub>7</sub>H<sub>6</sub>BrNO<sub>2</sub>",
        "Molecular Mass": "216.03",
        "Melting Point": "92-93 °C"
    }
}