{
    "cas_no": "2899-36-7",
    "key_name": "<span class=\"text-smallcaps\">L</span>-Methionine, ethyl ester, hydrochloride (1:1)",
    "cn_name": "L-蛋氨酸乙酯盐酸盐;",
    "alternate_name": "<span class=\"text-smallcaps\">L</span>-Methionine, ethyl ester, hydrochloride (1:1);<span class=\"text-smallcaps\">L</span>-Methionine, ethyl ester, hydrochloride;Methionine, ethyl ester, hydrochloride, <span class=\"text-smallcaps\">L</span>-;<span class=\"text-smallcaps\">L</span>-Methionine <em>O</em>-ethyl ester hydrochloride;Methionine ethyl ester hydrochloride;<em>S</em>-Methionine ethyl ester hydrochloride;Ethyl methioninate hydrochloride;Ethyl <span class=\"text-smallcaps\">L</span>-methioninate hydrochloride",
    "duplicated_cas_no": "",
    "SMILES": "[C@@H](C(OCC)=O)(CCSC)N.Cl",
    "meta_data": {
        "InChI": "InChI=1S/C7H15NO2S.ClH/c1-3-10-7(9)6(8)4-5-11-2;/h6H,3-5,8H2,1-2H3;1H/t6-;/m0./s1",
        "InChIKey": null,
        "Canonical SMILES": "Cl.O=C(OCC)C(N)CCSC",
        "Molecular Formula": "C<sub>7</sub>H<sub>15</sub>NO<sub>2</sub>S.ClH",
        "Molecular Mass": "",
        "Melting Point": "85-88 °C"
    }
}