{
    "cas_no": "6600-40-4",
    "key_name": "<span class=\"text-smallcaps\">L</span>-Norvaline",
    "cn_name": null,
    "alternate_name": "<span class=\"text-smallcaps\">L</span>-Norvaline;Norvaline, <span class=\"text-smallcaps\">L</span>-;Norvaline;Pentanoic acid, 2-amino-, (<em>S</em>)-;α-<span class=\"text-smallcaps\">L</span>-Aminopentanoic acid;(<em>S</em>)-2-Aminovaleric acid;(<em>S</em>)-Norvaline;<span class=\"text-smallcaps\">L</span>-α-Aminovaleric acid;(<em>S</em>)-2-Aminopentanoic acid;<span class=\"text-smallcaps\">L</span>-2-Aminopentanoic acid;2<em>S</em>-Aminovaleric acid;NSC 203786;(<em>S</em>)-(+)-2-Aminopentanoic acid;(2S)-2-Aminopentanoic acid",
    "duplicated_cas_no": "498-18-0;1115-58-8",
    "SMILES": "[C@H](CCC)(C(O)=O)N",
    "meta_data": {
        "InChI": "InChI=1S/C5H11NO2/c1-2-3-4(6)5(7)8/h4H,2-3,6H2,1H3,(H,7,8)/t4-/m0/s1",
        "InChIKey": null,
        "Canonical SMILES": "O=C(O)C(N)CCC",
        "Molecular Formula": "C<sub>5</sub>H<sub>11</sub>NO<sub>2</sub>",
        "Molecular Mass": "117.15",
        "Melting Point": "307 °C"
    }
}