{
    "cas_no": "42545-43-7",
    "key_name": "2-(4-Methoxyphenyl)thiophene",
    "cn_name": null,
    "alternate_name": "Thiophene, 2-(4-methoxyphenyl)-;Thiophene, 2-(<em>p</em>-methoxyphenyl)-;2-(4-Methoxyphenyl)thiophene;2-(<em>p</em>-Methoxyphenyl)thiophene;2-<em>p</em>-Anisylthiophene;2-(4′-Methoxyphenyl)thiophene",
    "duplicated_cas_no": "",
    "SMILES": "O(C)C1=CC=C(C=C1)C2=CC=CS2",
    "meta_data": {
        "InChI": "InChI=1S/C11H10OS/c1-12-10-6-4-9(5-7-10)11-3-2-8-13-11/h2-8H,1H3",
        "InChIKey": null,
        "Canonical SMILES": "O(C=1C=CC(=CC1)C=2SC=CC2)C",
        "Molecular Formula": "C<sub>11</sub>H<sub>10</sub>OS",
        "Molecular Mass": "190.26",
        "Boiling Point": "156-165 °C @ Press: 4 Torr",
        "Melting Point": "107-109 °C"
    }
}