{
    "cas_no": "29094-61-9",
    "key_name": "Glipizide",
    "cn_name": "格列吡嗪;1-环己基-3-{4-[2-(5-甲基吡嗪-2-酰胺)-乙基]苯磺酰}脲;",
    "alternate_name": "2-Pyrazinecarboxamide, <em>N</em>-[2-[4-[[[(cyclohexylamino)carbonyl]amino]sulfonyl]phenyl]ethyl]-5-methyl-;Urea, 1-cyclohexyl-3-[[<em>p</em>-[2-(5-methylpyrazinecarboxamido)ethyl]phenyl]sulfonyl]-;Pyrazinecarboxamide, <em>N</em>-[2-[4-[[[(cyclohexylamino)carbonyl]amino]sulfonyl]phenyl]ethyl]-5-methyl-;<em>N</em>-[2-[4-[[[(Cyclohexylamino)carbonyl]amino]sulfonyl]phenyl]ethyl]-5-methyl-2-pyrazinecarboxamide;<em>N</em>-(4-[β-(5-Methylpyrazine-2-carboxamido)ethyl]benzenesulfonyl)-<em>N</em>′-cyclohexylurea;Glydiazinamide;K 4024;Glipizide;TK 1320;Minidiab;Sucrazide;Glipid;Napizide;Mindiab;Glidiab;Glyde;Glupitel;Minodiab;Gluco-Rite;Glucotrol Xl;Ozidia;Dipazide;Melizide;Glynase;Glucotrol;Minidab;Glupizide;Aldiab;Digrin;Glucozide;Glibetin;Glucolip;Glibenese;Glican;CP 28720;Glipizid;Semiglynase;<em>N</em>-(2-(4-(<em>N</em>-(Cyclohexylcarbamoyl)sulfamoyl)phenyl)ethyl)-5-methylpyrazine-2-carboxamide;Samarium(III) ionophore I;MeSH ID: D005913",
    "duplicated_cas_no": "29094-66-4;38777-27-4;172964-66-8",
    "SMILES": "S(NC(NC1CCCCC1)=O)(=O)(=O)C2=CC=C(CCNC(=O)C=3C=NC(C)=CN3)C=C2",
    "meta_data": {
        "InChI": "InChI=1S/C21H27N5O4S/c1-15-13-24-19(14-23-15)20(27)22-12-11-16-7-9-18(10-8-16)31(29,30)26-21(28)25-17-5-3-2-4-6-17/h7-10,13-14,17H,2-6,11-12H2,1H3,(H,22,27)(H2,25,26,28)",
        "InChIKey": null,
        "Canonical SMILES": "O=C(NC1CCCCC1)NS(=O)(=O)C2=CC=C(C=C2)CCNC(=O)C3=NC=C(N=C3)C",
        "Molecular Formula": "C<sub>21</sub>H<sub>27</sub>N<sub>5</sub>O<sub>4</sub>S",
        "Molecular Mass": "445.54",
        "Melting Point": "208-209 °C",
        "Density": "0.167 g/cm³ (solid)"
    }
}