{
    "cas_no": "22545-15-9",
    "key_name": "4-Ethoxybenzeneethanol",
    "cn_name": "2-(4-乙氧基苯基）乙醇;",
    "alternate_name": "Benzeneethanol, 4-ethoxy-;Phenethyl alcohol, <em>p</em>-ethoxy-;4-Ethoxybenzeneethanol;2-(4-Ethoxyphenyl)ethanol;<em>p</em>-Ethoxyphenethyl alcohol;4-(2-Hydroxyethyl)phenetol;NSC 69078;2-(4-Ethoxyphenyl)ethan-1-ol",
    "duplicated_cas_no": "",
    "SMILES": "C(CO)C1=CC=C(OCC)C=C1",
    "meta_data": {
        "InChI": "InChI=1S/C10H14O2/c1-2-12-10-5-3-9(4-6-10)7-8-11/h3-6,11H,2,7-8H2,1H3",
        "InChIKey": null,
        "Canonical SMILES": "OCCC1=CC=C(OCC)C=C1",
        "Molecular Formula": "C<sub>10</sub>H<sub>14</sub>O<sub>2</sub>",
        "Molecular Mass": "166.22",
        "Boiling Point": "123 °C @ Press: 3 Torr"
    }
}