{
    "cas_no": "823-76-7",
    "key_name": "Cyclohexyl methyl ketone",
    "cn_name": "乙酰基环己烷;环己基甲基酮;",
    "alternate_name": "Ethanone, 1-cyclohexyl-;Ketone, cyclohexyl methyl;1-Cyclohexylethanone;Acetophenone, hexahydro-;Cyclohexane, acetyl-;Acetylcyclohexane;Cyclohexyl methyl ketone;Methyl cyclohexyl ketone;Cyclohexylethanone;1-Acetylcyclohexane;1-Cyclohexylacetaldehyde;NSC 16249;1-Cyclohexylethan-1-one;1-Cyclohexylethane-1-one",
    "duplicated_cas_no": "145930-05-8",
    "SMILES": "C(C)(=O)C1CCCCC1",
    "meta_data": {
        "InChI": "InChI=1S/C8H14O/c1-7(9)8-5-3-2-4-6-8/h8H,2-6H2,1H3",
        "InChIKey": null,
        "Canonical SMILES": "O=C(C)C1CCCCC1",
        "Molecular Formula": "C<sub>8</sub>H<sub>14</sub>O",
        "Molecular Mass": "126.20",
        "Boiling Point": "180.5 °C",
        "Melting Point": "49.5-51 °C",
        "Density": "0.9254 g/cm³ @ Temp: 16 °C"
    }
}