{
    "cas_no": "618-27-9",
    "key_name": "<em>cis</em>-4-Hydroxy-<span class=\"text-smallcaps\">L</span>-proline",
    "cn_name": "顺式-4-羟基-L-脯氨酸;",
    "alternate_name": "<span class=\"text-smallcaps\">L</span>-Proline, 4-hydroxy-, (4<em>S</em>)-;Proline, 4-<em>allo</em>-hydroxy-, <span class=\"text-smallcaps\">L</span>-;<span class=\"text-smallcaps\">L</span>-Proline, 4-hydroxy-, <em>cis</em>-;Proline, 4-<em>allo</em>-hydroxy-;(4<em>S</em>)-4-Hydroxy-<span class=\"text-smallcaps\">L</span>-proline;<em>cis</em>-Hydroxyproline;<em>allo</em>-Hydroxy-<span class=\"text-smallcaps\">L</span>-proline;<em>cis</em>-4-Hydroxyproline;<em>allo</em>-<span class=\"text-smallcaps\">L</span>-Hydroxyproline;<em>allo</em>-4-Hydroxyproline;4-<em>cis</em>-Hydroxy-<span class=\"text-smallcaps\">L</span>-proline;<span class=\"text-smallcaps\">L</span>-Proline, <em>allo</em>-hydroxy-;<span class=\"text-smallcaps\">L</span>-<em>allo</em>-4-Hydroxyproline;<span class=\"text-smallcaps\">L</span>-Allohydroxyproline;<span class=\"text-smallcaps\">L</span>-<em>allo</em>-Hydroxyproline;(<em>S</em>)-<em>allo</em>-Hydroxyproline;(2<em>S</em>,4<em>S</em>)-4-Hydroxyproline;<span class=\"text-smallcaps\">L</span>-<em>cis</em>-4-Hydroxyproline;4(<em>S</em>)-Hydroxy-2(<em>S</em>)-pyrrolidinecarboxylic acid;<em>cis</em>-4-Hydroxy-<span class=\"text-smallcaps\">L</span>-proline;NSC 206274;(2<em>S</em>,4<em>S</em>)-4-Hydroxypyrrolidine-2-carboxylic acid;H-Cis-Hyp-OH;(2S,4S)-4-Hydroxypyrrolidine-2-carboxylic acid",
    "duplicated_cas_no": "3398-20-7;30724-02-8",
    "SMILES": "C(O)(=O)[C@@H]1C[C@H](O)CN1",
    "meta_data": {
        "InChI": "InChI=1S/C5H9NO3/c7-3-1-4(5(8)9)6-2-3/h3-4,6-7H,1-2H2,(H,8,9)/t3-,4-/m0/s1",
        "InChIKey": null,
        "Canonical SMILES": "O=C(O)C1NCC(O)C1",
        "Molecular Formula": "C<sub>5</sub>H<sub>9</sub>NO<sub>3</sub>",
        "Molecular Mass": "131.13",
        "Melting Point": "250.0-252.0 °C (decomp)"
    }
}