{
    "cas_no": "10029-09-1",
    "key_name": "<em>cis</em>-1,4-Cyclohexanedimethanamine",
    "cn_name": null,
    "alternate_name": "1,4-Cyclohexanedimethanamine, <em>cis</em>-;1,4-Cyclohexanebis(methylamine), <em>cis</em>-;<em>cis</em>-1,4-Cyclohexanedimethanamine;<em>cis</em>-1,4-Bis(aminomethyl)cyclohexane;<em>cis</em>-1,4-Cyclohexanebis(methylamine);<em>cis</em>-1,4-Cyclohexylenebis(methylamine);<em>cis</em>-4-Aminomethylcyclohexylmethylamine",
    "duplicated_cas_no": "",
    "SMILES": "C(N)[C@H]1CC[C@@H](CN)CC1",
    "meta_data": {
        "InChI": "InChI=1/C8H18N2/c9-5-7-1-2-8(6-10)4-3-7/h7-8H,1-6,9-10H2/t7-,8+",
        "InChIKey": null,
        "Canonical SMILES": "NCC1CCC(CN)CC1",
        "Molecular Formula": "C<sub>8</sub>H<sub>18</sub>N<sub>2</sub>",
        "Molecular Mass": "142.24",
        "Boiling Point": "74-76 °C @ Press: 0.9 Torr"
    }
}