{
    "cas_no": "2098-66-0",
    "key_name": "Cyproterone",
    "cn_name": "环丙孕酮;",
    "alternate_name": "3′<em>H</em>-Cyclopropa[1,2]pregna-1,4,6-triene-3,20-dione, 6-chloro-1,2-dihydro-17-hydroxy-, (1β,2β)-;3′<em>H</em>-Cyclopropa[1,2]pregna-1,4,6-triene-3,20-dione, 6-chloro-1β,2β-dihydro-17-hydroxy-;Pregna-4,6-diene-3,20-dione, 6-chloro-17-hydroxy-1α,2α-methylene-;(1β,2β)-6-Chloro-1,2-dihydro-17-hydroxy-3′<em>H</em>-cyclopropa[1,2]pregna-1,4,6-triene-3,20-dione;6-Chloro-17-hydroxy-1α,2α-methylenepregna-4,6-diene-3,20-dione;Cyproterone;SH 80881;1,2α-Methylene-6-chloro-<sup>6</sup>-17α-hydroxyprogesterone;6-Chloro-6-dehydro-17α-hydroxy-1,2α-methyleneprogesterone;6-Chloro-1,2α-methylene-4,6-pregnadien-17α-ol-3,20-dione;SH 881",
    "duplicated_cas_no": "76430-80-3",
    "SMILES": "C[C@]12[C@@]3([C@@](C3)(C(=O)C=C1C(Cl)=C[C@@]4([C@@]2(CC[C@@]5(C)[C@]4(CC[C@@]5(C(C)=O)O)[H])[H])[H])[H])[H]",
    "meta_data": {
        "InChI": "InChI=1S/C22H27ClO3/c1-11(24)22(26)7-5-14-12-9-18(23)17-10-19(25)13-8-16(13)21(17,3)15(12)4-6-20(14,22)2/h9-10,12-16,26H,4-8H2,1-3H3/t12-,13+,14-,15-,16-,20-,21-,22-/m0/s1",
        "InChIKey": null,
        "Canonical SMILES": "O=C1C=C2C(Cl)=CC3C(CCC4(C)C3CCC4(O)C(=O)C)C2(C)C5CC15",
        "Molecular Formula": "C<sub>22</sub>H<sub>27</sub>ClO<sub>3</sub>",
        "Molecular Mass": "374.90",
        "Melting Point": "237.5-240 °C"
    }
}