{
    "cas_no": "5581-52-2",
    "key_name": "Thiamiprine",
    "cn_name": "硝咪硫鸟嘌呤;硝咪硫鸟嘌呤;",
    "alternate_name": "9<em>H</em>-Purin-2-amine, 6-[(1-methyl-4-nitro-1<em>H</em>-imidazol-5-yl)thio]-;Purine, 2-amino-6-[(1-methyl-4-nitroimidazol-5-yl)thio]-;1<em>H</em>-Purin-2-amine, 6-[(1-methyl-4-nitro-1<em>H</em>-imidazol-5-yl)thio]-;6-[(1-Methyl-4-nitro-1<em>H</em>-imidazol-5-yl)thio]-9<em>H</em>-purin-2-amine;BW 57-323;2-Amino-6-[(1-methyl-4-nitroimidazol-5-yl)thio]purine;Guaneran;ITG;Thiamiprine;Tiamiprine;Aminoazathioprin;NSC 38887;Tiamiprin",
    "duplicated_cas_no": "10024-06-3;33222-63-8",
    "SMILES": "S(C1=C2C(=NC(N)=N1)N=CN2)C3=C(N(=O)=O)N=CN3C",
    "meta_data": {
        "InChI": "InChI=1S/C9H8N8O2S/c1-16-3-13-6(17(18)19)8(16)20-7-4-5(12-2-11-4)14-9(10)15-7/h2-3H,1H3,(H3,10,11,12,14,15)",
        "InChIKey": null,
        "Canonical SMILES": "O=N(=O)C=1N=CN(C1SC2=NC(=NC=3N=CNC32)N)C",
        "Molecular Formula": "C<sub>9</sub>H<sub>8</sub>N<sub>8</sub>O<sub>2</sub>S",
        "Molecular Mass": "292.28",
        "Melting Point": "&gt;200 °C (decomp)"
    }
}