{
    "cas_no": "771-50-6",
    "key_name": "Indole-3-carboxylic acid",
    "cn_name": "3-吲哚甲酸;",
    "alternate_name": "1<em>H</em>-Indole-3-carboxylic acid;Indole-3-carboxylic acid;β-Indolylcarboxylic acid;3-Indolylcarboxylic acid;3-Carboxyindole;3-Indoleformic acid;Indole-β-carboxylic acid;Indol-3-carboxylic acid",
    "duplicated_cas_no": "",
    "SMILES": "C(O)(=O)C=1C=2C(NC1)=CC=CC2",
    "meta_data": {
        "InChI": "InChI=1S/C9H7NO2/c11-9(12)7-5-10-8-4-2-1-3-6(7)8/h1-5,10H,(H,11,12)",
        "InChIKey": null,
        "Canonical SMILES": "O=C(O)C1=CNC=2C=CC=CC21",
        "Molecular Formula": "C<sub>9</sub>H<sub>7</sub>NO<sub>2</sub>",
        "Molecular Mass": "161.16",
        "Melting Point": "206.5 °C"
    }
}