{
    "cas_no": "104-57-4",
    "key_name": "Benzyl formate",
    "cn_name": "甲酸苄酯;",
    "alternate_name": "Formic acid, phenylmethyl ester;Formic acid, benzyl ester;Benzyl formate;Benzyl methanoate;Benzyl alcohol, formate;NSC 8049",
    "duplicated_cas_no": "",
    "SMILES": "C(OC=O)C1=CC=CC=C1",
    "meta_data": {
        "InChI": "InChI=1S/C8H8O2/c9-7-10-6-8-4-2-1-3-5-8/h1-5,7H,6H2",
        "InChIKey": null,
        "Canonical SMILES": "O=COCC=1C=CC=CC1",
        "Molecular Formula": "C<sub>8</sub>H<sub>8</sub>O<sub>2</sub>",
        "Molecular Mass": "136.15",
        "Boiling Point": "203 °C",
        "Melting Point": "8.2-8.4 °C"
    }
}