{
    "cas_no": "4657-58-3",
    "key_name": "Cycloartanol",
    "cn_name": null,
    "alternate_name": "9,19-Cyclolanostan-3-ol, (3β)-;Cycloartanol;9,19-Cyclo-9β-lanostan-3β-ol;(3β)-9,19-Cyclolanostan-3-ol;9,19-Cyclolanostan-3β-ol;NSC 226173;3β-Cycloartanol",
    "duplicated_cas_no": "24160-44-9;907576-34-5;1253203-51-8",
    "SMILES": "C[C@]12[C@]3([C@]4([C@]5(C4)[C@](C(C)(C)[C@@H](O)CC5)(CC3)[H])CC[C@]1(C)[C@@]([C@@H](CCCC(C)C)C)(CC2)[H])[H]",
    "meta_data": {
        "InChI": "InChI=1S/C30H52O/c1-20(2)9-8-10-21(3)22-13-15-28(7)24-12-11-23-26(4,5)25(31)14-16-29(23)19-30(24,29)18-17-27(22,28)6/h20-25,31H,8-19H2,1-7H3/t21-,22-,23+,24+,25+,27-,28+,29-,30+/m1/s1",
        "InChIKey": null,
        "Canonical SMILES": "OC1CCC23CC43CCC5(C)C(CCC5(C)C4CCC2C1(C)C)C(C)CCCC(C)C",
        "Molecular Formula": "C<sub>30</sub>H<sub>52</sub>O",
        "Molecular Mass": "428.73",
        "Melting Point": "99-101 °C (decomp)"
    }
}