{
    "cas_no": "592-47-2",
    "key_name": "3-Hexene",
    "cn_name": "3-己烯;3-己烯(正反混合);",
    "alternate_name": "3-Hexene",
    "duplicated_cas_no": "",
    "SMILES": "C(=CCC)CC",
    "meta_data": {
        "InChI": "InChI=1S/C6H12/c1-3-5-6-4-2/h5-6H,3-4H2,1-2H3",
        "InChIKey": null,
        "Canonical SMILES": "C(=CCC)CC",
        "Molecular Formula": "C<sub>6</sub>H<sub>12</sub>",
        "Molecular Mass": "84.16",
        "Boiling Point": "67 °C",
        "Melting Point": "-90 °C",
        "Density": "0.6807 g/cm³ @ Temp: 19 °C"
    }
}