{
    "cas_no": "34209-81-9",
    "key_name": "(3β,16α)-3-(Acetyloxy)-16,17-epoxypregn-5-en-20-one",
    "cn_name": "16,17-环氧孕烯醇酮醋酸酯;",
    "alternate_name": "Pregn-5-en-20-one, 3-(acetyloxy)-16,17-epoxy-, (3β,16α)-;Pregn-5-en-20-one, 16α,17-epoxy-3β-hydroxy-, acetate;(3β,16α)-3-(Acetyloxy)-16,17-epoxypregn-5-en-20-one;3β-Hydroxy-16α,17α-oxidopregn-5-en-20-one acetate;3β-Acetoxy-16α,17-epoxypregnen-5-en-20-one;3β-Acetoxy-16α,17-epoxypregn-5-en-20-one;3β-Acetoxy-16α,17α-epoxypregn-5-en-20-one;16α,17α-Epoxypregnenolone acetate;16α,17α-Epoxy-20-oxopregn-5-en-3β-yl acetate;NSC 21455;3β-Acetoxy-16α,17α-epoxypregna-5-dien-20-one",
    "duplicated_cas_no": "1922-45-8",
    "SMILES": "C(C)(=O)[C@]12[C@](O1)(C[C@@]3([C@]2(C)CC[C@]4([C@]3(CC=C5[C@]4(C)CC[C@H](OC(C)=O)C5)[H])[H])[H])[H]",
    "meta_data": {
        "InChI": "InChI=1S/C23H32O4/c1-13(24)23-20(27-23)12-19-17-6-5-15-11-16(26-14(2)25)7-9-21(15,3)18(17)8-10-22(19,23)4/h5,16-20H,6-12H2,1-4H3/t16-,17+,18-,19-,20+,21-,22-,23+/m0/s1",
        "InChIKey": null,
        "Canonical SMILES": "O=C(OC1CC2=CCC3C(CCC4(C)C3CC5OC54C(=O)C)C2(C)CC1)C",
        "Molecular Formula": "C<sub>23</sub>H<sub>32</sub>O<sub>4</sub>",
        "Molecular Mass": "372.50",
        "Melting Point": "156-158 °C"
    }
}