{
    "cas_no": "133841-05-1",
    "key_name": "7-Methoxy-1<em>H</em>-indazole",
    "cn_name": null,
    "alternate_name": "1<em>H</em>-Indazole, 7-methoxy-;7-Methoxy-1<em>H</em>-indazole;7-Methoxyindazole",
    "duplicated_cas_no": "",
    "SMILES": "O(C)C1=C2C(C=NN2)=CC=C1",
    "meta_data": {
        "InChI": "InChI=1S/C8H8N2O/c1-11-7-4-2-3-6-5-9-10-8(6)7/h2-5H,1H3,(H,9,10)",
        "InChIKey": null,
        "Canonical SMILES": "N1=CC=2C=CC=C(OC)C2N1",
        "Molecular Formula": "C<sub>8</sub>H<sub>8</sub>N<sub>2</sub>O",
        "Molecular Mass": "148.16",
        "Melting Point": "91-92 °C"
    }
}