{
    "cas_no": "479-98-1",
    "key_name": "Aucubin",
    "cn_name": "杜仲甙;",
    "alternate_name": "β-<span class=\"text-smallcaps\">D</span>-Glucopyranoside, (1<em>S</em>,4a<em>R</em>,5<em>S</em>,7a<em>S</em>)-1,4a,5,7a-tetrahydro-5-hydroxy-7-(hydroxymethyl)cyclopenta[<em>c</em>]pyran-1-yl;Aucubin;β-<span class=\"text-smallcaps\">D</span>-Glucopyranoside, 1,4a,5,7a-tetrahydro-5-hydroxy-7-(hydroxymethyl)cyclopenta[<em>c</em>]pyran-1-yl, [1<em>S</em>-(1α,4aα,5α,7aα)]-;(1<em>S</em>,4a<em>R</em>,5<em>S</em>,7a<em>S</em>)-1,4a,5,7a-Tetrahydro-5-hydroxy-7-(hydroxymethyl)cyclopenta[<em>c</em>]pyran-1-yl β-<span class=\"text-smallcaps\">D</span>-glucopyranoside;Aucuboside;Rhimantin;Aucubine;Aucubosid;Acubin",
    "duplicated_cas_no": "99005-46-6;11019-67-3;11019-65-1;22593-66-4",
    "SMILES": "O([C@H]1[C@]2([C@]([C@H](O)C=C2CO)(C=CO1)[H])[H])[C@@H]3O[C@H](CO)[C@@H](O)[C@H](O)[C@H]3O",
    "meta_data": {
        "InChI": "InChI=1S/C15H22O9/c16-4-6-3-8(18)7-1-2-22-14(10(6)7)24-15-13(21)12(20)11(19)9(5-17)23-15/h1-3,7-21H,4-5H2/t7-,8+,9+,10+,11+,12-,13+,14-,15-/m0/s1",
        "InChIKey": null,
        "Canonical SMILES": "OCC1=CC(O)C2C=COC(OC3OC(CO)C(O)C(O)C3O)C12",
        "Molecular Formula": "C<sub>15</sub>H<sub>22</sub>O<sub>9</sub>",
        "Molecular Mass": "346.33",
        "Melting Point": "181 °C"
    }
}