{
    "cas_no": "93-15-2",
    "key_name": "Methyleugenol",
    "cn_name": "甲基丁香酚;丁香酚甲醚;1,2-二甲氧基-4-(2-丙烯-1-基)苯;4-烯丙基-1,2-二甲氧基苯;",
    "alternate_name": "Benzene, 1,2-dimethoxy-4-(2-propen-1-yl)-;Benzene, 4-allyl-1,2-dimethoxy-;Benzene, 1,2-dimethoxy-4-(2-propenyl)-;Veratrole, 4-allyl-;1,2-Dimethoxy-4-(2-propen-1-yl)benzene;Ent 21040;4-Allylveratrole;1,2-Dimethoxy-4-allylbenzene;Eugenol methyl ether;1,3,4-Eugenol methyl ether;Eugenyl methyl ether;Veratrole methyl ether;Methyleugenol;Methyl eugenol ether;<em>O</em>-Methyleugenol;3,4-Dimethoxyallylbenzene;1-(3,4-Dimethoxyphenyl)-2-propene;Chavibetol methyl ether;4-Allyl-1,2-dimethoxybenzene;3-(3,4-Dimethoxyphenyl)propene;1-Allyl-3,4-dimethoxybenzene;Methyl eugenyl ether;Methylchavibetol;NSC 209528;NSC 8900;1,2-Dimethoxy-4-(2-propenyl)benzene;3,4-Dimethoxy-1-(2-propenyl)benzene;3-(3,4-Dimethoxyphenyl)-1-propene",
    "duplicated_cas_no": "",
    "SMILES": "O(C)C1=C(OC)C=CC(CC=C)=C1",
    "meta_data": {
        "InChI": "InChI=1S/C11H14O2/c1-4-5-9-6-7-10(12-2)11(8-9)13-3/h4,6-8H,1,5H2,2-3H3",
        "InChIKey": null,
        "Canonical SMILES": "O(C1=CC=C(C=C1OC)CC=C)C",
        "Molecular Formula": "C<sub>11</sub>H<sub>14</sub>O<sub>2</sub>",
        "Molecular Mass": "178.23",
        "Boiling Point": "254.7 °C @ Press: 760 Torr",
        "Melting Point": "-4 °C",
        "Density": "1.0396 g/cm³ @ Temp: 20 °C"
    }
}