{
    "cas_no": "54585-47-6",
    "key_name": "2-Mercapto-4,6-dimethylnicotinonitrile",
    "cn_name": "3-氰基-4,6-二甲基-2-硫基吡啶;",
    "alternate_name": "3-Pyridinecarbonitrile, 1,2-dihydro-4,6-dimethyl-2-thioxo-;Nicotinonitrile, 1,2-dihydro-4,6-dimethyl-2-thioxo-;1,2-Dihydro-4,6-dimethyl-2-thioxo-3-pyridinecarbonitrile;3-Cyano-2-mercapto-4,6-dimethylpyridine;2-Mercapto-4,6-dimethyl-3-pyridinecarbonitrile;2-Mercapto-4,6-dimethylnicotinonitrile;3-Cyano-4,6-dimethylpyridine-2-thiol;4,6-Dimethyl-2-mercaptonicotinonitrile;4,6-Dimethyl-2-thioxo-1,2-dihydropyridine-3-carbonitrile;4,6-Dimethyl-3-cyanopyridine-2(1<em>H</em>)-thione;3-Cyano-4,6-dimethyl-2-mercaptopyridine;4,6-Methyl-3-cyano-2(1<em>H</em>)-pyridinethione;3-Cyano-4,6-dimethyl-1<em>H</em>-pyridine-2-thione",
    "duplicated_cas_no": "",
    "SMILES": "C(#N)C1=C(C)C=C(C)NC1=S",
    "meta_data": {
        "InChI": "InChI=1S/C8H8N2S/c1-5-3-6(2)10-8(11)7(5)4-9/h3H,1-2H3,(H,10,11)",
        "InChIKey": null,
        "Canonical SMILES": "N#CC=1C(=S)NC(=CC1C)C",
        "Molecular Formula": "C<sub>8</sub>H<sub>8</sub>N<sub>2</sub>S",
        "Molecular Mass": "164.23",
        "Melting Point": "264 °C (decomp)"
    }
}