{
    "cas_no": "2016-04-8",
    "key_name": "<em>N</em>,<em>N</em>-Dimethyl-1,1-bis(phenylmethoxy)methanamine",
    "cn_name": "N,N-二甲基甲酰胺二苄基缩醛;1,1-二苄氧基三甲胺;DMF-DBZA;N,N-二甲基甲酰胺二苄基乙缩醛;",
    "alternate_name": "Methanamine, <em>N</em>,<em>N</em>-dimethyl-1,1-bis(phenylmethoxy)-;Trimethylamine, 1,1-bis(benzyloxy)-;<em>N</em>,<em>N</em>-Dimethyl-1,1-bis(phenylmethoxy)methanamine;Formamide, <em>N</em>,<em>N</em>-dimethyl-, bis(phenylmethyl) acetal;Dimethylformamide dibenzyl acetal;<em>N</em>,<em>N</em>-Dimethylformamide dibenzyl acetal;DMF-dibenzyl acetal",
    "duplicated_cas_no": "",
    "SMILES": "C(OC(OCC1=CC=CC=C1)N(C)C)C2=CC=CC=C2",
    "meta_data": {
        "InChI": "InChI=1S/C17H21NO2/c1-18(2)17(19-13-15-9-5-3-6-10-15)20-14-16-11-7-4-8-12-16/h3-12,17H,13-14H2,1-2H3",
        "InChIKey": null,
        "Canonical SMILES": "O(CC=1C=CC=CC1)C(OCC=2C=CC=CC2)N(C)C",
        "Molecular Formula": "C<sub>17</sub>H<sub>21</sub>NO<sub>2</sub>",
        "Molecular Mass": "271.35",
        "Boiling Point": "118-120 °C @ Press: 0.2 Torr"
    }
}