{
    "cas_no": "1538-75-6",
    "key_name": "Pivalic anhydride",
    "cn_name": "特戊酸酐;2,2-二甲基-丙酸酐;三甲基乙酸酐;特戊酸酐;特戊酸酐(无色透明液体;三甲基乙酸酐,99%;",
    "alternate_name": "Propanoic acid, 2,2-dimethyl-, 1,1′-anhydride;Pivalic anhydride;Propanoic acid, 2,2-dimethyl-, anhydride;Trimethylacetic acid anhydride;2,2-Dimethylpropanoic anhydride;Trimethylacetic anhydride;Pivalic acid anhydride;Pivaloyl anhydride;2,2-Dimethylpropionic anhydride;2,2-Dimethylpropanoic acid anhydride;Neopentanoic anhydride;2,2,2-Trimethylacetic anhydride;2,2-Dimethylpropanoyl anhydride;2,2-Dimethylpropanoyl 2,2-dimethylpropanoate;HPBIO-SJ 12960",
    "duplicated_cas_no": "",
    "SMILES": "O(C(C(C)(C)C)=O)C(C(C)(C)C)=O",
    "meta_data": {
        "InChI": "InChI=1S/C10H18O3/c1-9(2,3)7(11)13-8(12)10(4,5)6/h1-6H3",
        "InChIKey": null,
        "Canonical SMILES": "O=C(OC(=O)C(C)(C)C)C(C)(C)C",
        "Molecular Formula": "C<sub>10</sub>H<sub>18</sub>O<sub>3</sub>",
        "Molecular Mass": "186.25",
        "Boiling Point": "193 °C"
    }
}