{
    "cas_no": "49715-04-0",
    "key_name": "Chloromethyl chlorosulfate",
    "cn_name": "氯甲基氯磺酸酯;",
    "alternate_name": "Chlorosulfuric acid, chloromethyl ester;Chloromethyl chlorosulfate;Chloromethoxysulfonyl chloride;Chloromethyl sulfurochloridate",
    "duplicated_cas_no": "",
    "SMILES": "O(S(Cl)(=O)=O)CCl",
    "meta_data": {
        "InChI": "InChI=1S/CH2Cl2O3S/c2-1-6-7(3,4)5/h1H2",
        "InChIKey": null,
        "Canonical SMILES": "O=S(=O)(Cl)OCCl",
        "Molecular Formula": "CH<sub>2</sub>Cl<sub>2</sub>O<sub>3</sub>S",
        "Molecular Mass": "165.00",
        "Boiling Point": "153-155 °C @ Press: 750 Torr",
        "Density": "1.63 g/cm³"
    }
}