{
    "cas_no": "78-18-2",
    "key_name": "1-[(1-Hydroperoxycyclohexyl)dioxy]cyclohexanol",
    "cn_name": "过氧化环己酮糊;过氧化环己酮;1-过氧化氢环己基;",
    "alternate_name": "Cyclohexanol, 1-[(1-hydroperoxycyclohexyl)dioxy]-;Peroxide, 1-hydroperoxycyclohexyl 1-hydroxycyclohexyl;1-[(1-Hydroperoxycyclohexyl)dioxy]cyclohexanol;1-Hydroxy-1′-hydroperoxydicyclohexyl peroxide;Perhexa P;1-Hydroperoxycyclohexyl 1-hydroxycyclohexyl peroxide",
    "duplicated_cas_no": "",
    "SMILES": "O(OC1(O)CCCCC1)C2(OO)CCCCC2",
    "meta_data": {
        "InChI": "InChI=1S/C12H22O5/c13-11(7-3-1-4-8-11)16-17-12(15-14)9-5-2-6-10-12/h13-14H,1-10H2",
        "InChIKey": null,
        "Canonical SMILES": "OOC1(OOC2(O)CCCCC2)CCCCC1",
        "Molecular Formula": "C<sub>12</sub>H<sub>22</sub>O<sub>5</sub>",
        "Molecular Mass": "246.30",
        "Melting Point": "76-77 °C"
    }
}