{
    "cas_no": "56425-91-3",
    "key_name": "Flurprimidol",
    "cn_name": "呋嘧醇;2-甲基-1-嘧啶-5-基-1-(4-三氟甲氧基苯基)丙-1-醇;",
    "alternate_name": "5-Pyrimidinemethanol, α-(1-methylethyl)-α-[4-(trifluoromethoxy)phenyl]-;α-(1-Methylethyl)-α-[4-(trifluoromethoxy)phenyl]-5-pyrimidinemethanol;α-Isopropyl-α-[<em>p</em>-(trifluoromethoxy)phenyl]-5-pyrimidinemethanol;EL 500;Flurprimidol;Cutless;Topflor",
    "duplicated_cas_no": "77125-41-8",
    "SMILES": "C(C(C)C)(O)(C1=CC=C(OC(F)(F)F)C=C1)C=2C=NC=NC2",
    "meta_data": {
        "InChI": "InChI=1S/C15H15F3N2O2/c1-10(2)14(21,12-7-19-9-20-8-12)11-3-5-13(6-4-11)22-15(16,17)18/h3-10,21H,1-2H3",
        "InChIKey": null,
        "Canonical SMILES": "FC(F)(F)OC1=CC=C(C=C1)C(O)(C=2C=NC=NC2)C(C)C",
        "Molecular Formula": "C<sub>15</sub>H<sub>15</sub>F<sub>3</sub>N<sub>2</sub>O<sub>2</sub>",
        "Molecular Mass": "312.29",
        "Boiling Point": "264 °C",
        "Melting Point": "95 °C"
    }
}