{
    "cas_no": "988-75-0",
    "key_name": "<em>N</em>-[(Phenylmethoxy)carbonyl]-<span class=\"text-smallcaps\">L</smallcap>-α-glutamyl-<smallcap>L</span>-tyrosine",
    "cn_name": "Z-甘氨酰酪氨酸;N-苄氧羰基-L-谷氨酰-L-酪氨酸;",
    "alternate_name": "<span class=\"text-smallcaps\">L</smallcap>-Tyrosine, <em>N</em>-[(phenylmethoxy)carbonyl]-<smallcap>L</span>-α-glutamyl-;Tyrosine, <em>N</em>-(<em>N</em>-carboxy-<span class=\"text-smallcaps\">L</smallcap>-α-glutamyl)-, <em>N</em>-benzyl ester, <smallcap>L</span>-;<span class=\"text-smallcaps\">L</smallcap>-Tyrosine, <em>N</em>-[<em>N</em>-[(phenylmethoxy)carbonyl]-<smallcap>L</span>-α-glutamyl]-;<em>N</em>-[(Phenylmethoxy)carbonyl]-<span class=\"text-smallcaps\">L</smallcap>-α-glutamyl-<smallcap>L</span>-tyrosine;n-Carbobenzoxy-<span class=\"text-smallcaps\">L</smallcap>-glutamyl-<smallcap>L</span>-tyrosine;Benzyloxycarbonyl-<span class=\"text-smallcaps\">L</smallcap>-glutamyl-<smallcap>L</span>-tyrosine;<em>N</em>-Benzyloxycarbonyl-<span class=\"text-smallcaps\">L</smallcap>-glutamyl-<smallcap>L</span>-tyrosine;<em>N</em>-Carbobenzoxy-<span class=\"text-smallcaps\">L</smallcap>-glutamyl-<smallcap>L</span>-tyrosine;NSC 89651",
    "duplicated_cas_no": "6813-97-4",
    "SMILES": "C([C@H](NC([C@@H](NC(OCC1=CC=CC=C1)=O)CCC(O)=O)=O)C(O)=O)C2=CC=C(O)C=C2",
    "meta_data": {
        "InChI": "InChI=1S/C22H24N2O8/c25-16-8-6-14(7-9-16)12-18(21(29)30)23-20(28)17(10-11-19(26)27)24-22(31)32-13-15-4-2-1-3-5-15/h1-9,17-18,25H,10-13H2,(H,23,28)(H,24,31)(H,26,27)(H,29,30)/t17-,18-/m0/s1",
        "InChIKey": null,
        "Canonical SMILES": "O=C(O)CCC(NC(=O)OCC=1C=CC=CC1)C(=O)NC(C(=O)O)CC2=CC=C(O)C=C2",
        "Molecular Formula": "C<sub>22</sub>H<sub>24</sub>N<sub>2</sub>O<sub>8</sub>",
        "Molecular Mass": "444.43",
        "Melting Point": "185 °C"
    }
}