{
    "cas_no": "99-82-1",
    "key_name": "1-Isopropyl-4-methylcyclohexane",
    "cn_name": "对孟烷;",
    "alternate_name": "Cyclohexane, 1-methyl-4-(1-methylethyl)-;<em>p</em>-Menthane;1-Methyl-4-(1-methylethyl)cyclohexane;1-Isopropyl-4-methylcyclohexane;1-Methyl-4-isopropylcyclohexane;4-Methyl-1-(1-methylethyl)cyclohexane;Woody River 10;1-Methyl-4-propan-2-ylcyclohexane;5-Methyl-2-(1-methylethyl)cyclohexane",
    "duplicated_cas_no": "374781-46-1",
    "SMILES": "C(C)(C)C1CCC(C)CC1",
    "meta_data": {
        "InChI": "InChI=1S/C10H20/c1-8(2)10-6-4-9(3)5-7-10/h8-10H,4-7H2,1-3H3",
        "InChIKey": null,
        "Canonical SMILES": "CC(C)C1CCC(C)CC1",
        "Molecular Formula": "C<sub>10</sub>H<sub>20</sub>",
        "Molecular Mass": "140.27",
        "Boiling Point": "170.9 °C @ Press: 725 Torr",
        "Melting Point": "-89.84 °C",
        "Density": "0.8039 g/cm³ @ Temp: 20 °C"
    }
}