{
    "cas_no": "4244-84-2",
    "key_name": "β-Alanine, ethyl ester, hydrochloride",
    "cn_name": "beta-丙氨酸乙酯盐酸盐;",
    "alternate_name": "β-Alanine, ethyl ester, hydrochloride (1:1);β-Alanine, ethyl ester, hydrochloride;3-Aminopropionic acid ethyl ester hydrochloride;Ethyl 3-aminopropionate hydrochloride;Ethyl β-alaninate hydrochloride;Ethyl 3-aminopropanoate hydrochloride;3-Aminopropanoic acid ethyl ester hydrochloride;CarnoSyn;Ethyl β-alaninoate hydrochloride;Ethyl 3-aminopropanoate hydrochloride salt;3-Ethoxy-3-oxopropan-1-aminium chloride",
    "duplicated_cas_no": "69808-64-6;1085928-45-5",
    "SMILES": "C(CCN)(OCC)=O.Cl",
    "meta_data": {
        "InChI": "InChI=1S/C5H11NO2.ClH/c1-2-8-5(7)3-4-6;/h2-4,6H2,1H3;1H",
        "InChIKey": null,
        "Canonical SMILES": "Cl.O=C(OCC)CCN",
        "Molecular Formula": "C<sub>5</sub>H<sub>11</sub>NO<sub>2</sub>.ClH",
        "Molecular Mass": "",
        "Melting Point": "65.5 °C"
    }
}