{
    "cas_no": "22808-29-3",
    "key_name": "4-<em>tert</em>-Butyl-3,6-dichloropyridazine",
    "cn_name": "4-叔丁基-3,6-二氯哒嗪;",
    "alternate_name": "Pyridazine, 3,6-dichloro-4-(1,1-dimethylethyl)-;Pyridazine, 4-<em>tert</em>-butyl-3,6-dichloro-;3,6-Dichloro-4-(1,1-dimethylethyl)pyridazine;3,6-Dichloro-4-<em>tert</em>-butylpyridazine;4-<em>tert</em>-Butyl-3,6-dichloropyridazine",
    "duplicated_cas_no": "",
    "SMILES": "C(C)(C)(C)C1=C(Cl)N=NC(Cl)=C1",
    "meta_data": {
        "InChI": "InChI=1S/C8H10Cl2N2/c1-8(2,3)5-4-6(9)11-12-7(5)10/h4H,1-3H3",
        "InChIKey": null,
        "Canonical SMILES": "ClC1=NN=C(Cl)C(=C1)C(C)(C)C",
        "Molecular Formula": "C<sub>8</sub>H<sub>10</sub>Cl<sub>2</sub>N<sub>2</sub>",
        "Molecular Mass": "205.08",
        "Melting Point": "37-40 °C"
    }
}