{
    "cas_no": "14307-35-8",
    "key_name": "Lithium chromate",
    "cn_name": "铬酸锂;",
    "alternate_name": "Chromic acid (H<sub>2</sub>CrO<sub>4</sub>), lithium salt (1:2);Chromic acid (H<sub>2</sub>CrO<sub>4</sub>), dilithium salt;Lithium chromate(VI);Lithium chromate;Chromium lithium oxide (CrLi<sub>2</sub>O<sub>4</sub>);Dilithium chromate (Li<sub>2</sub>CrO<sub>4</sub>);Lithium chromate (Li<sub>2</sub>CrO<sub>4</sub>);Lithium chromium oxide (Li<sub>2</sub>CrO<sub>4</sub>)",
    "duplicated_cas_no": "1792172-36-1",
    "SMILES": "[Cr](O)(O)(=O)=O.[Li]",
    "meta_data": {
        "InChI": "InChI=1S/Cr.2Li.2H2O.2O/h;;;2*1H2;;/q+2;;;;;;/p-2",
        "InChIKey": null,
        "Canonical SMILES": "[Li].O=[Cr](=O)(O)O",
        "Molecular Formula": "CrH<sub>2</sub>O<sub>4</sub>.2Li",
        "Molecular Mass": "",
        "Melting Point": "75 °C (decomp)",
        "Density": "2.15 g/cm³"
    }
}