{
    "cas_no": "980-71-2",
    "key_name": "(±)-Brompheniramine maleate",
    "cn_name": "马来酸溴苯那敏;N,N-二甲基-gamma-(4-溴苯基)-2-吡啶丙胺顺丁烯二酸盐;",
    "alternate_name": "2-Pyridinepropanamine, γ-(4-bromophenyl)-<em>N</em>,<em>N</em>-dimethyl-, (2<em>Z</em>)-2-butenedioate (1:1);Pyridine, 2-[<em>p</em>-bromo-α-[2-(dimethylamino)ethyl]benzyl]-, maleate (1:1);2-Pyridinepropanamine, γ-(4-bromophenyl)-<em>N</em>,<em>N</em>-dimethyl-, (<em>Z</em>)-2-butenedioate (1:1);2-[<em>p</em>-Bromo-α-[2-(dimethylamino)ethyl]benzyl]pyridine bimaleate;2-[<em>p</em>-Bromo-α-(2-dimethylaminoethyl)benzyl]pyridine maleate;Brompheniramine maleate;Dimetane maleate;Ilvin maleate;Parabromdylamine maleate;Parabromodylamine maleate;Bromopheniramine maleate;Dimotane;Dimetane;Brompheniramine hydrogen maleate;<em>dl</em>-Bromopheniramine maleate;(±)-Brompheniramine maleate;<em>dl</em>-Brompheniramine maleate;Lodrane;Veltane;Symptom 3;Nagemid;Allent;Ilvin",
    "duplicated_cas_no": "8055-73-0;32865-01-3",
    "SMILES": "C(=C\\C(O)=O)\\C(O)=O.C(CCN(C)C)(C1=CC=C(Br)C=C1)C2=CC=CC=N2",
    "meta_data": {
        "InChI": "InChI=1S/C16H19BrN2.C4H4O4/c1-19(2)12-10-15(16-5-3-4-11-18-16)13-6-8-14(17)9-7-13;5-3(6)1-2-4(7)8/h3-9,11,15H,10,12H2,1-2H3;1-2H,(H,5,6)(H,7,8)/b;2-1-",
        "InChIKey": null,
        "Canonical SMILES": "O=C(O)C=CC(=O)O.BrC1=CC=C(C=C1)C(C2=NC=CC=C2)CCN(C)C",
        "Molecular Formula": "C<sub>16</sub>H<sub>19</sub>BrN<sub>2</sub>.C<sub>4</sub>H<sub>4</sub>O<sub>4</sub>",
        "Molecular Mass": "",
        "Melting Point": "132-134 °C"
    }
}