{
    "cas_no": "67625-37-0",
    "key_name": "6-Bromoimidazo[1,2-<em>a</em>]pyridine-2-carboxylic acid ethyl ester",
    "cn_name": null,
    "alternate_name": "Imidazo[1,2-<em>a</em>]pyridine-2-carboxylic acid, 6-bromo-, ethyl ester;Ethyl 6-bromoimidazo[1,2-<em>a</em>]pyridine-2-carboxylate;6-Bromoimidazo[1,2-<em>a</em>]pyridine-2-carboxylic acid ethyl ester",
    "duplicated_cas_no": "",
    "SMILES": "C(OCC)(=O)C1=CN2C(=N1)C=CC(Br)=C2",
    "meta_data": {
        "InChI": "InChI=1S/C10H9BrN2O2/c1-2-15-10(14)8-6-13-5-7(11)3-4-9(13)12-8/h3-6H,2H2,1H3",
        "InChIKey": null,
        "Canonical SMILES": "O=C(OCC)C=1N=C2C=CC(Br)=CN2C1",
        "Molecular Formula": "C<sub>10</sub>H<sub>9</sub>BrN<sub>2</sub>O<sub>2</sub>",
        "Molecular Mass": "269.09",
        "Melting Point": "63-65 °C"
    }
}