{
    "cas_no": "1013-23-6",
    "key_name": "Dibenzothiophene sulfoxide",
    "cn_name": null,
    "alternate_name": "Dibenzothiophene, 5-oxide;Dibenzothiophene <em>S</em>-oxide;Dibenzothiophene sulfoxide;Dibenzosulfoxide;NSC 170577;NSC 633010;Dibenzo[<em>b</em>,<em>d</em>]thiophene 5-oxide",
    "duplicated_cas_no": "",
    "SMILES": "O=S1C=2C(C=3C1=CC=CC3)=CC=CC2",
    "meta_data": {
        "InChI": "InChI=1S/C12H8OS/c13-14-11-7-3-1-5-9(11)10-6-2-4-8-12(10)14/h1-8H",
        "InChIKey": null,
        "Canonical SMILES": "O=S1C=2C=CC=CC2C=3C=CC=CC31",
        "Molecular Formula": "C<sub>12</sub>H<sub>8</sub>OS",
        "Molecular Mass": "200.26",
        "Melting Point": "188-188.5 °C"
    }
}