{
    "cas_no": "6153-44-2",
    "key_name": "Methyl 1,2,3,6-tetrahydro-2,6-dioxo-4-pyrimidinecarboxylate",
    "cn_name": null,
    "alternate_name": "4-Pyrimidinecarboxylic acid, 1,2,3,6-tetrahydro-2,6-dioxo-, methyl ester;Orotic acid, methyl ester;Methyl 1,2,3,6-tetrahydro-2,6-dioxo-4-pyrimidinecarboxylate;6-Carbomethoxyuracil;Methyl orotate;NSC 42009;Methyl 2,6-dioxo-1,2,3,6-tetrahydropyrimidine-4-carboxylate;6-(Methoxycarbonyl)uracil",
    "duplicated_cas_no": "",
    "SMILES": "C(OC)(=O)C1=CC(=O)NC(=O)N1",
    "meta_data": {
        "InChI": "InChI=1S/C6H6N2O4/c1-12-5(10)3-2-4(9)8-6(11)7-3/h2H,1H3,(H2,7,8,9,11)",
        "InChIKey": null,
        "Canonical SMILES": "O=C1C=C(NC(=O)N1)C(=O)OC",
        "Molecular Formula": "C<sub>6</sub>H<sub>6</sub>N<sub>2</sub>O<sub>4</sub>",
        "Molecular Mass": "170.12",
        "Melting Point": "249 °C"
    }
}