{
    "cas_no": "112-72-1",
    "key_name": "1-Tetradecanol",
    "cn_name": "1-十四醇;豆蔻醇;",
    "alternate_name": "1-Tetradecanol;Tetradecanol;Lanette Wax KS;Loxanol V;Myristic alcohol;Myristyl alcohol;Tetradecyl alcohol;<em>n</em>-Tetradecyl alcohol;<em>n</em>-Tetradecanol;<em>n</em>-Tetradecan-1-ol;Lanette K;Alfol 14;1-Hydroxytetradecane;Kalcohl 40;1-Tetradecyl alcohol;Conol 1495;Adol 18;Kalcohl 4098;Nacol 14-95;Lanette 14;NSC 8549;Lorol C 14;Kalcol 4098;Hinol 14SS;Nacol 14-98;Speziol C 14 Pharma;Kolliwax MA;Hainol 14SS;Nafol 14",
    "duplicated_cas_no": "8032-14-2;150138-88-8",
    "SMILES": "C(CCCCCCC)CCCCCCO",
    "meta_data": {
        "InChI": "InChI=1S/C14H30O/c1-2-3-4-5-6-7-8-9-10-11-12-13-14-15/h15H,2-14H2,1H3",
        "InChIKey": null,
        "Canonical SMILES": "OCCCCCCCCCCCCCC",
        "Molecular Formula": "C<sub>14</sub>H<sub>30</sub>O",
        "Molecular Mass": "214.39",
        "Boiling Point": "289 °C",
        "Melting Point": "39.5 °C",
        "Density": "0.8165 g/cm³ @ Temp: 20 °C"
    }
}