{
    "cas_no": "880-36-4",
    "key_name": "2-Octylthiophene",
    "cn_name": "2-正辛基噻吩;2-正辛基噻吩;",
    "alternate_name": "Thiophene, 2-octyl-;2-Octylthiophene;2-<em>n</em>-Octylthiophene",
    "duplicated_cas_no": "",
    "SMILES": "C(CCCCCCC)C1=CC=CS1",
    "meta_data": {
        "InChI": "InChI=1S/C12H20S/c1-2-3-4-5-6-7-9-12-10-8-11-13-12/h8,10-11H,2-7,9H2,1H3",
        "InChIKey": null,
        "Canonical SMILES": "S1C=CC=C1CCCCCCCC",
        "Molecular Formula": "C<sub>12</sub>H<sub>20</sub>S",
        "Molecular Mass": "196.35",
        "Boiling Point": "180 °C @ Press: 12 Torr",
        "Melting Point": "-44.22 °C",
        "Density": "0.934 g/cm³"
    }
}