{
    "cas_no": "37680-65-2",
    "key_name": "2,2′,5′-Trichlorobiphenyl",
    "cn_name": null,
    "alternate_name": "1,1′-Biphenyl, 2,2′,5-trichloro-;2,2′,5-Trichloro-1,1′-biphenyl;2,2′,5-Trichlorobiphenyl;2,5,2′-Trichlorobiphenyl;2,2′,5′-Trichlorobiphenyl;PCB 18;CB 18;CB 18 (chlorocarbon)",
    "duplicated_cas_no": "",
    "SMILES": "ClC1=C(C=C(Cl)C=C1)C2=C(Cl)C=CC=C2",
    "meta_data": {
        "InChI": "InChI=1S/C12H7Cl3/c13-8-5-6-12(15)10(7-8)9-3-1-2-4-11(9)14/h1-7H",
        "InChIKey": null,
        "Canonical SMILES": "ClC=1C=CC(Cl)=C(C1)C=2C=CC=CC2Cl",
        "Molecular Formula": "C<sub>12</sub>H<sub>7</sub>Cl<sub>3</sub>",
        "Molecular Mass": "257.54",
        "Melting Point": "44 °C"
    }
}