{
    "cas_no": "1722-26-5",
    "key_name": "(<em>T</em>-4)-(<em>N</em>,<em>N</em>-Diethylethanamine)trihydroboron",
    "cn_name": null,
    "alternate_name": "Boron, (<em>N</em>,<em>N</em>-diethylethanamine)trihydro-, (<em>T</em>-4)-;Triethylamine, compd. with borane (1:1);Ethanamine, <em>N</em>,<em>N</em>-diethyl-, compd. with borane (1:1);Borazane, <em>N</em>,<em>N</em>,<em>N</em>-triethyl-;Borane, compd. with triethylamine (1:1);Borane, compd. with <em>N</em>,<em>N</em>-diethylethanamine (1:1);Ethanamine, <em>N</em>,<em>N</em>-diethyl-, boron complex;(<em>T</em>-4)-(<em>N</em>,<em>N</em>-Diethylethanamine)trihydroboron;Borane complex with triethylamine (1:1);Triethylamine complex with borane (1:1);Triethylamine-borane;Borane adduct with triethylamine (1:1);Triethylamine borane (1:1);Borane-triethylamine;Trihydro(triethylamine)boron;NSC 59740;Triethylamine compound with borane (1:1);(Triethylazaniumyl)boranuide",
    "duplicated_cas_no": "113784-20-6;122600-41-3;133441-42-6;22547-65-5;25783-22-6;674819-26-2;878795-52-9",
    "SMILES": "[N]([B+3]([H-])([H-])[H-])(CC)(CC)CC",
    "meta_data": {
        "InChI": "InChI=1S/C6H18BN/c1-4-8(7,5-2)6-3/h4-6H2,1-3,7H3",
        "InChIKey": null,
        "Canonical SMILES": "[H-][B+3]([H-])([H-])[N](CC)(CC)CC",
        "Molecular Formula": "C<sub>6</sub>H<sub>18</sub>BN",
        "Molecular Mass": "",
        "Boiling Point": "100-101 °C @ Press: 12 Torr",
        "Melting Point": "-4 °C",
        "Density": "0.78 g/cm³"
    }
}