{
    "cas_no": "2092-49-1",
    "key_name": "Divanillin",
    "cn_name": null,
    "alternate_name": "[1,1′-Biphenyl]-3,3′-dicarboxaldehyde, 6,6′-dihydroxy-5,5′-dimethoxy-;3,3′-Biphenyldicarboxaldehyde, 6,6′-dihydroxy-5,5′-dimethoxy-;6,6′-Dihydroxy-5,5′-dimethoxy[1,1′-biphenyl]-3,3′-dicarboxaldehyde;5,5′-Bivanillin;Dehydrodivanillin;2,2′-Dihydroxy-3,3′-dimethoxy-5,5′-diformylbiphenyl;Divanillin;NSC 16723;5,5′-Diformyl-3,3′-Dimethoxy-1,1′-biphenyl-2,2′-diol;Bivanillin;5,5′-Bisvanillin",
    "duplicated_cas_no": "",
    "SMILES": "OC1=C(C=C(C=O)C=C1OC)C2=C(O)C(OC)=CC(C=O)=C2",
    "meta_data": {
        "InChI": "InChI=1S/C16H14O6/c1-21-13-5-9(7-17)3-11(15(13)19)12-4-10(8-18)6-14(22-2)16(12)20/h3-8,19-20H,1-2H3",
        "InChIKey": null,
        "Canonical SMILES": "O=CC=1C=C(OC)C(O)=C(C1)C=2C=C(C=O)C=C(OC)C2O",
        "Molecular Formula": "C<sub>16</sub>H<sub>14</sub>O<sub>6</sub>",
        "Molecular Mass": "302.28",
        "Melting Point": "305 °C"
    }
}