{
    "cas_no": "142-63-2",
    "key_name": "Piperazine, hexahydrate",
    "cn_name": null,
    "alternate_name": "Piperazine, hydrate (1:6);Piperazine, hexahydrate;Arpezine;Arthriticine;Parid;Vermisol",
    "duplicated_cas_no": "",
    "SMILES": "C1CNCCN1.O",
    "meta_data": {
        "InChI": "InChI=1S/C4H10N2.6H2O/c1-2-6-4-3-5-1;;;;;;/h5-6H,1-4H2;6*1H2",
        "InChIKey": null,
        "Canonical SMILES": "O.N1CCNCC1",
        "Molecular Formula": "C<sub>4</sub>H<sub>10</sub>N<sub>2</sub>.6H<sub>2</sub>O",
        "Molecular Mass": "",
        "Melting Point": "44 °C"
    }
}