{
    "cas_no": "60532-63-0",
    "key_name": "4,4′,4′′,4′′′-Methanetetrayltetrakis[benzenamine]",
    "cn_name": null,
    "alternate_name": "Benzenamine, 4,4′,4′′,4′′′-methanetetrayltetrakis-;4,4′,4′′,4′′′-Methanetetrayltetrakis[benzenamine];Tetrakis(4-aminophenyl)methane;Tetra(4-aminophenyl)methane;Tetra(4-anilyl)methane;Tetra(<em>p</em>-aminophenyl)methane",
    "duplicated_cas_no": "",
    "SMILES": "C(C1=CC=C(N)C=C1)(C2=CC=C(N)C=C2)(C3=CC=C(N)C=C3)C4=CC=C(N)C=C4",
    "meta_data": {
        "InChI": "InChI=1S/C25H24N4/c26-21-9-1-17(2-10-21)25(18-3-11-22(27)12-4-18,19-5-13-23(28)14-6-19)20-7-15-24(29)16-8-20/h1-16H,26-29H2",
        "InChIKey": null,
        "Canonical SMILES": "NC1=CC=C(C=C1)C(C2=CC=C(N)C=C2)(C3=CC=C(N)C=C3)C4=CC=C(N)C=C4",
        "Molecular Formula": "C<sub>25</sub>H<sub>24</sub>N<sub>4</sub>",
        "Molecular Mass": "380.48",
        "Melting Point": "262 °C"
    }
}