{
    "cas_no": "10591-85-2",
    "key_name": "Tetrabenzylthiuram disulfide",
    "cn_name": "二硫化四苄基秋兰姆;橡胶促进剂TBzTD;",
    "alternate_name": "Thioperoxydicarbonic diamide ([(H<sub>2</sub>N)C(S)]<sub>2</sub>S<sub>2</sub>), <em>N</em>,<em>N</em>,<em>N</em>′,<em>N</em>′-tetrakis(phenylmethyl)-;Disulfide, bis(dibenzylthiocarbamoyl);Thioperoxydicarbonic diamide ([(H<sub>2</sub>N)C(S)]<sub>2</sub>S<sub>2</sub>), tetrakis(phenylmethyl)-;Tetrabenzylthiuram disulfide;<em>N</em>,<em>N</em>,<em>N</em>′,<em>N</em>′-Tetrabenzylthiuram disulfide;NSC 608475;Benzyl Tuex;Perkacit TBzTD;Cure-rite TBzD;Sanceler TBzTD;Nocceler TBzTD;Accel TBZT;Accel TBZTD;Rhenogran TBzTD 70;Tetrakis(phenylmethyl)thioperoxydi(carbothioamide);Accelerator TBzTD;TBzTD;Rhenogran TBzTD 80;TBZTD 80;TBZTD 70;TBzTD 70GE;Perkacit TBzTD PDR-D;TBzTD 75GE;Richon TBzTD-OP",
    "duplicated_cas_no": "172451-96-6;374112-95-5;2134168-51-5",
    "SMILES": "N(C(SSC(N(CC1=CC=CC=C1)CC2=CC=CC=C2)=S)=S)(CC3=CC=CC=C3)CC4=CC=CC=C4",
    "meta_data": {
        "InChI": "InChI=1S/C30H28N2S4/c33-29(31(21-25-13-5-1-6-14-25)22-26-15-7-2-8-16-26)35-36-30(34)32(23-27-17-9-3-10-18-27)24-28-19-11-4-12-20-28/h1-20H,21-24H2",
        "InChIKey": null,
        "Canonical SMILES": "S=C(SSC(=S)N(CC=1C=CC=CC1)CC=2C=CC=CC2)N(CC=3C=CC=CC3)CC=4C=CC=CC4",
        "Molecular Formula": "C<sub>30</sub>H<sub>28</sub>N<sub>2</sub>S<sub>4</sub>",
        "Molecular Mass": "544.82",
        "Melting Point": "137 °C"
    }
}