{
    "cas_no": "118-92-3",
    "key_name": "Anthranilic acid",
    "cn_name": "邻氨基苯甲酸;",
    "alternate_name": "Benzoic acid, 2-amino-;Anthranilic acid;2-Aminobenzoic acid;<em>o</em>-Aminobenzoic acid;<em>o</em>-Carboxyaniline;2-Carboxyaniline;Vitamin L<sub>1</sub>;<em>o</em>-Anthranilic acid;α-Aminobenzoic acid;NSC 144;NSC 40929;2-Carboxyphenylamine;1-Aminobenzene-2-carboxylic acid;2-Aminobenzenecarboxylic acid",
    "duplicated_cas_no": "80206-34-4",
    "SMILES": "C(O)(=O)C1=C(N)C=CC=C1",
    "meta_data": {
        "InChI": "InChI=1S/C7H7NO2/c8-6-4-2-1-3-5(6)7(9)10/h1-4H,8H2,(H,9,10)",
        "InChIKey": null,
        "Canonical SMILES": "O=C(O)C=1C=CC=CC1N",
        "Molecular Formula": "C<sub>7</sub>H<sub>7</sub>NO<sub>2</sub>",
        "Molecular Mass": "137.14",
        "Boiling Point": "183 °C @ Press: 10 Torr",
        "Melting Point": "144-146 °C",
        "Density": "1.412 g/cm³ @ Temp: 20 °C"
    }
}