{
    "cas_no": "20469-63-0",
    "key_name": "1-Iodo-2,4-dimethoxybenzene",
    "cn_name": "2,4-二甲氧基碘苯;2,4-二甲氧基-1-碘苯;",
    "alternate_name": "Benzene, 1-iodo-2,4-dimethoxy-;1-Iodo-2,4-dimethoxybenzene;2,4-Dimethoxyiodobenzene;2,4-Dimethoxyphenyl iodide;1,3-Dimethoxy-4-iodobenzene;NSC 89774;2-Iodo-1,5-dimethoxybenzene",
    "duplicated_cas_no": "",
    "SMILES": "O(C)C1=CC(OC)=CC=C1I",
    "meta_data": {
        "InChI": "InChI=1S/C8H9IO2/c1-10-6-3-4-7(9)8(5-6)11-2/h3-5H,1-2H3",
        "InChIKey": null,
        "Canonical SMILES": "IC1=CC=C(OC)C=C1OC",
        "Molecular Formula": "C<sub>8</sub>H<sub>9</sub>IO<sub>2</sub>",
        "Molecular Mass": "264.06",
        "Boiling Point": "163 °C @ Press: 14 Torr",
        "Melting Point": "40 °C"
    }
}