{
    "cas_no": "983-80-2",
    "key_name": "<em>cis</em>-1,2-Bis(diphenylphosphino)ethylene",
    "cn_name": "顺-1,2-双(二苯基膦)乙烯;顺-1,2-双(二苯基膦)乙烯;",
    "alternate_name": "Phosphine, 1,1′-(1<em>Z</em>)-1,2-ethenediylbis[1,1-diphenyl-;Phosphine, vinylenebis[diphenyl-, (<em>Z</em>)-;Phosphine, 1,2-ethenediylbis[diphenyl-, (<em>Z</em>)-;Phosphine, (1<em>Z</em>)-1,2-ethenediylbis[diphenyl-;1,1′-(1<em>Z</em>)-1,2-Ethenediylbis[1,1-diphenylphosphine];<em>cis</em>-Vinylenebis[diphenylphosphine];<em>cis</em>-1,2-Bis(diphenylphosphino)ethylene;<em>cis</em>-1,2-Bis(diphenylphosphino)ethene;(<em>Z</em>)-1,2-Bis(diphenylphosphino)ethene;(<em>Z</em>)-1,2-Bis(diphenylphosphino)ethylene;<em>cis</em>-1,2-Bis(diphenylphosphine)ethylene;<em>cis</em>-Bis(diphenylphosphino)ethylene;<em>cis</em>-1,2-Bis(diphenylphosphine)ethene;dppv",
    "duplicated_cas_no": "",
    "SMILES": "P(/C=C\\P(C1=CC=CC=C1)C2=CC=CC=C2)(C3=CC=CC=C3)C4=CC=CC=C4",
    "meta_data": {
        "InChI": "InChI=1S/C26H22P2/c1-5-13-23(14-6-1)27(24-15-7-2-8-16-24)21-22-28(25-17-9-3-10-18-25)26-19-11-4-12-20-26/h1-22H/b22-21-",
        "InChIKey": null,
        "Canonical SMILES": "C=1C=CC(=CC1)P(C=CP(C=2C=CC=CC2)C=3C=CC=CC3)C=4C=CC=CC4",
        "Molecular Formula": "C<sub>26</sub>H<sub>22</sub>P<sub>2</sub>",
        "Molecular Mass": "396.40",
        "Melting Point": "125 °C"
    }
}