{
    "cas_no": "154447-36-6",
    "key_name": "2-(4-Morpholinyl)-8-phenyl-4<em>H</em>-1-benzopyran-4-one",
    "cn_name": "LY-294002;",
    "alternate_name": "4<em>H</em>-1-Benzopyran-4-one, 2-(4-morpholinyl)-8-phenyl-;2-(4-Morpholinyl)-8-phenyl-4<em>H</em>-1-benzopyran-4-one;LY 294002;8-Phenyl-2-(morpholin-4-yl)-chromen-4-one;NSC 697286;SF 1101;2-Morpholin-4-yl-8-phenylchromen-4-one;2-Morpholino-8-phenyl-4<em>H</em>-chromen-4-one;LY2094002;LY 294012",
    "duplicated_cas_no": "",
    "SMILES": "O=C1C=2C(=C(C=CC2)C3=CC=CC=C3)OC(=C1)N4CCOCC4",
    "meta_data": {
        "InChI": "InChI=1S/C19H17NO3/c21-17-13-18(20-9-11-22-12-10-20)23-19-15(7-4-8-16(17)19)14-5-2-1-3-6-14/h1-8,13H,9-12H2",
        "InChIKey": null,
        "Canonical SMILES": "O=C1C=C(OC=2C1=CC=CC2C=3C=CC=CC3)N4CCOCC4",
        "Molecular Formula": "C<sub>19</sub>H<sub>17</sub>NO<sub>3</sub>",
        "Molecular Mass": "307.34",
        "Melting Point": "184 °C"
    }
}