{
    "cas_no": "610-67-3",
    "key_name": "1-Ethoxy-2-nitrobenzene",
    "cn_name": "邻硝基苯乙醚;邻乙氧基硝基苯;2-硝基苯乙醚;1-乙氧基-2-硝基苯;",
    "alternate_name": "Benzene, 1-ethoxy-2-nitro-;Phenetole, <em>o</em>-nitro-;1-Ethoxy-2-nitrobenzene;<em>o</em>-Nitrophenetole;Ethyl <em>o</em>-nitrophenyl ether;2-Nitrophenetole;2-Ethoxynitrobenzene;<em>o</em>-Nitrobenzene ethyl ether;NSC 5404",
    "duplicated_cas_no": "",
    "SMILES": "N(=O)(=O)C1=C(OCC)C=CC=C1",
    "meta_data": {
        "InChI": "InChI=1S/C8H9NO3/c1-2-12-8-6-4-3-5-7(8)9(10)11/h3-6H,2H2,1H3",
        "InChIKey": null,
        "Canonical SMILES": "O=N(=O)C=1C=CC=CC1OCC",
        "Molecular Formula": "C<sub>8</sub>H<sub>9</sub>NO<sub>3</sub>",
        "Molecular Mass": "167.16",
        "Boiling Point": "267 °C",
        "Melting Point": "2.2 °C",
        "Density": "1.1903 g/cm³ @ Temp: 15 °C"
    }
}