{
    "cas_no": "97-07-4",
    "key_name": "1-Chloro-4-(methylsulfonyl)-2-nitrobenzene",
    "cn_name": "邻硝基对甲砜基氯苯;2-硝基-4-甲砜基氯苯;",
    "alternate_name": "Benzene, 1-chloro-4-(methylsulfonyl)-2-nitro-;Sulfone, 4-chloro-3-nitrophenyl methyl;1-Chloro-4-(methylsulfonyl)-2-nitrobenzene;4-Chloro-3-nitrophenyl methyl sulfone;3-Nitro-4-chlorophenyl methyl sulfone;4-(Methylsulfonyl)-2-nitrochlorobenzene;2-Chloro-5-(methylsulfonyl)-1-nitrobenzene;NSC 25818;1-Chloro-4-methanesulfonyl-2-nitrobenzene",
    "duplicated_cas_no": "",
    "SMILES": "N(=O)(=O)C1=CC(S(C)(=O)=O)=CC=C1Cl",
    "meta_data": {
        "InChI": "InChI=1S/C7H6ClNO4S/c1-14(12,13)5-2-3-6(8)7(4-5)9(10)11/h2-4H,1H3",
        "InChIKey": null,
        "Canonical SMILES": "O=N(=O)C1=CC(=CC=C1Cl)S(=O)(=O)C",
        "Molecular Formula": "C<sub>7</sub>H<sub>6</sub>ClNO<sub>4</sub>S",
        "Molecular Mass": "235.64",
        "Melting Point": "119-120 °C"
    }
}