{
    "cas_no": "86347-15-1",
    "key_name": "1<em>H</em>-Imidazole, 5-[1-(2,3-dimethylphenyl)ethyl]-, hydrochloride (1:1)",
    "cn_name": null,
    "alternate_name": "1<em>H</em>-Imidazole, 5-[1-(2,3-dimethylphenyl)ethyl]-, hydrochloride (1:1);1<em>H</em>-Imidazole, 4-[1-(2,3-dimethylphenyl)ethyl]-, monohydrochloride;Medetomidine hydrochloride;Domitor;MPV 785;Zalopine",
    "duplicated_cas_no": "119264-93-6",
    "SMILES": "C(C)(C1=C(C)C(C)=CC=C1)C2=CN=CN2.Cl",
    "meta_data": {
        "InChI": "InChI=1S/C13H16N2.ClH/c1-9-5-4-6-12(10(9)2)11(3)13-7-14-8-15-13;/h4-8,11H,1-3H3,(H,14,15);1H",
        "InChIKey": null,
        "Canonical SMILES": "Cl.N1=CNC(=C1)C(C=2C=CC=C(C2C)C)C",
        "Molecular Formula": "C<sub>13</sub>H<sub>16</sub>N<sub>2</sub>.ClH",
        "Molecular Mass": "",
        "Melting Point": "172-173 °C"
    }
}