{
    "cas_no": "1024-57-3",
    "key_name": "Heptachlor epoxide",
    "cn_name": null,
    "alternate_name": "2,5-Methano-2<em>H</em>-indeno[1,2-<em>b</em>]oxirene, 2,3,4,5,6,7,7-heptachloro-1a,1b,5,5a,6,6a-hexahydro-, (1a<em>R</em>,1b<em>S</em>,2<em>R</em>,5<em>S</em>,5a<em>R</em>,6<em>S</em>,6a<em>R</em>)-<em>rel</em>-;4,7-Methanoindan, 1,4,5,6,7,8,8-heptachloro-2,3-epoxy-3a,4,7,7a-tetrahydro-;2,5-Methano-2<em>H</em>-indeno[1,2-<em>b</em>]oxirene, 2,3,4,5,6,7,7-heptachloro-1a,1b,5,5a,6,6a-hexahydro-, (1aα,1bβ,2α,5α,5aβ,6β,6aα)-;<em>rel</em>-(1a<em>R</em>,1b<em>S</em>,2<em>R</em>,5<em>S</em>,5a<em>R</em>,6<em>S</em>,6a<em>R</em>)-2,3,4,5,6,7,7-Heptachloro-1a,1b,5,5a,6,6a-hexahydro-2,5-methano-2<em>H</em>-indeno[1,2-<em>b</em>]oxirene;Velsicol 53CS17;HCE;Heptachlor epoxide;ENT 25584;Epoxyheptachlor;GPKh epoxide;Hepox;Heptepoxide;<em>cis</em>-Heptachlor epoxide;(±)-<em>cis</em>-Heptachlor epoxide;HE;Heptachlor epoxide B;Heptachlor exo-epoxide;Heptachlor cis-epoxide;MeSH ID: D006534",
    "duplicated_cas_no": "4067-30-5;24699-42-1;24717-72-4;28044-82-8;66240-71-9;66429-35-4;71567-78-7",
    "SMILES": "Cl[C@]12[C@@]3([C@]([C@](Cl)(C1(Cl)Cl)C(Cl)=C2Cl)([C@@H](Cl)[C@@]4([C@]3(O4)[H])[H])[H])[H]",
    "meta_data": {
        "InChI": "InChI=1/C10H5Cl7O/c11-3-1-2(4-5(3)18-4)9(15)7(13)6(12)8(1,14)10(9,16)17/h1-5H/t1-,2+,3+,4-,5+,8+,9-/s2",
        "InChIKey": null,
        "Canonical SMILES": "ClC1=C(Cl)C2(Cl)C3C4OC4C(Cl)C3C1(Cl)C2(Cl)Cl",
        "Molecular Formula": "C<sub>10</sub>H<sub>5</sub>Cl<sub>7</sub>O",
        "Molecular Mass": "389.32",
        "Melting Point": "160-161.5 °C",
        "Density": "1.91 x 10⁻³ g/cm³ @ Temp: 20 °C"
    }
}