{
    "cas_no": "1069-31-4",
    "key_name": "Ornithine, hydrochloride (1:1)",
    "cn_name": "DL-鸟氨酸盐酸盐;",
    "alternate_name": "Ornithine, hydrochloride (1:1);Ornithine, monohydrochloride, <span class=\"text-smallcaps\">DL</span>-;<span class=\"text-smallcaps\">DL</span>-Ornithine, monohydrochloride;Ornithine, monohydrochloride;NSC 25163;2,5-Diaminopentanoic acid hydrochloride",
    "duplicated_cas_no": "",
    "SMILES": "C(C(O)=O)(CCCN)N.Cl",
    "meta_data": {
        "InChI": "InChI=1S/C5H12N2O2.ClH/c6-3-1-2-4(7)5(8)9;/h4H,1-3,6-7H2,(H,8,9);1H",
        "InChIKey": null,
        "Canonical SMILES": "Cl.O=C(O)C(N)CCCN",
        "Molecular Formula": "C<sub>5</sub>H<sub>12</sub>N<sub>2</sub>O<sub>2</sub>.ClH",
        "Molecular Mass": "",
        "Melting Point": "215 °C"
    }
}