{
    "cas_no": "111493-74-4",
    "key_name": "1-Methyl-3-trifluoromethylpyrazole-4-carboxylic acid ethyl ester",
    "cn_name": null,
    "alternate_name": "1<em>H</em>-Pyrazole-4-carboxylic acid, 1-methyl-3-(trifluoromethyl)-, ethyl ester;Ethyl 1-methyl-3-trifluoromethyl-4-pyrazolecarboxylate;1-Methyl-3-trifluoromethylpyrazole-4-carboxylic acid ethyl ester;1-Methyl-3-(trifluoromethyl)-1<em>H</em>-pyrazole-4-carboxylic acid ethyl ester;Ethyl 1-methyl-3-trifluoromethyl-1<em>H</em>-pyrazole-4-carboxylate;Ethyl 3-(trifluoromethyl)-1-methyl-1<em>H</em>-pyrazole-4-carboxylate;Ethyl 3-(trifluoromethyl)-1-methyl-7<em>H</em>-pyrazole-4-carboxylate",
    "duplicated_cas_no": "",
    "SMILES": "C(F)(F)(F)C=1C(C(OCC)=O)=CN(C)N1",
    "meta_data": {
        "InChI": "InChI=1S/C8H9F3N2O2/c1-3-15-7(14)5-4-13(2)12-6(5)8(9,10)11/h4H,3H2,1-2H3",
        "InChIKey": null,
        "Canonical SMILES": "O=C(OCC)C1=CN(N=C1C(F)(F)F)C",
        "Molecular Formula": "C<sub>8</sub>H<sub>9</sub>F<sub>3</sub>N<sub>2</sub>O<sub>2</sub>",
        "Molecular Mass": "222.16",
        "Melting Point": "55-56 °C"
    }
}