{
    "cas_no": "886230-76-8",
    "key_name": "3-[(1<em>E</em>)-2-(2-Pyridinyl)ethenyl]-1-(tetrahydro-2<em>H</em>-pyran-2-yl)-1<em>H</em>-indazol-6-amine",
    "cn_name": null,
    "alternate_name": "1<em>H</em>-Indazol-6-amine, 3-[(1<em>E</em>)-2-(2-pyridinyl)ethenyl]-1-(tetrahydro-2<em>H</em>-pyran-2-yl)-;3-[(1<em>E</em>)-2-(2-Pyridinyl)ethenyl]-1-(tetrahydro-2<em>H</em>-pyran-2-yl)-1<em>H</em>-indazol-6-amine;(<em>E</em>)-3-[2-(Pyridin-2-yl)ethenyl]-1-(tetrahydro-2<em>H</em>-pyran-2-yl)-1<em>H</em>-indazol-6-amine",
    "duplicated_cas_no": "",
    "SMILES": "C(=C/C1=CC=CC=N1)\\C=2C=3C(N(N2)C4CCCCO4)=CC(N)=CC3",
    "meta_data": {
        "InChI": "InChI=1/C19H20N4O/c20-14-7-9-16-17(10-8-15-5-1-3-11-21-15)22-23(18(16)13-14)19-6-2-4-12-24-19/h1,3,5,7-11,13,19H,2,4,6,12,20H2/b10-8+",
        "InChIKey": null,
        "Canonical SMILES": "N=1C=CC=CC1C=CC2=NN(C=3C=C(N)C=CC23)C4OCCCC4",
        "Molecular Formula": "C<sub>19</sub>H<sub>20</sub>N<sub>4</sub>O",
        "Molecular Mass": "320.39",
        "Melting Point": "115-117 °C"
    }
}