{
    "cas_no": "75438-57-2",
    "key_name": "Moxonidine",
    "cn_name": "莫索尼啶;4-氯-N-(4,5-二氢-1H-咪唑-2-基)-6-甲氧基-2-甲基-5-嘧啶胺;",
    "alternate_name": "5-Pyrimidinamine, 4-chloro-<em>N</em>-(4,5-dihydro-1<em>H</em>-imidazol-2-yl)-6-methoxy-2-methyl-;4-Chloro-<em>N</em>-(4,5-dihydro-1<em>H</em>-imidazol-2-yl)-6-methoxy-2-methyl-5-pyrimidinamine;BE 5895;Moxonidine;BDF 5895;2-(6-Chloro-4-methoxy-2-methylpyrimidin-5-ylamino)-2-imidazoline;Cynt;Lomox;Moxon;Normoxocin;Physiotens;LY 326869;Nucynt;Norcynt;Moxogamma;(4-Chloro-6-methoxy-2-methyl-pyrimidin-5-yl)-imidazolidin-2-ylidene-amine",
    "duplicated_cas_no": "257301-50-1",
    "SMILES": "N(C=1C(OC)=NC(C)=NC1Cl)C=2NCCN2",
    "meta_data": {
        "InChI": "InChI=1S/C9H12ClN5O/c1-5-13-7(10)6(8(14-5)16-2)15-9-11-3-4-12-9/h3-4H2,1-2H3,(H2,11,12,15)",
        "InChIKey": null,
        "Canonical SMILES": "ClC=1N=C(N=C(OC)C1NC2=NCCN2)C",
        "Molecular Formula": "C<sub>9</sub>H<sub>12</sub>ClN<sub>5</sub>O",
        "Molecular Mass": "241.68",
        "Melting Point": "217-219 °C (decomp)"
    }
}