{
    "cas_no": "7386-21-2",
    "key_name": "2-(4-Chlorophenyl)-1<em>H</em>-isoindole-1,3(2<em>H</em>)-dione",
    "cn_name": "N-(4-氯苯基)邻苯二甲酰亚胺;",
    "alternate_name": "1<em>H</em>-Isoindole-1,3(2<em>H</em>)-dione, 2-(4-chlorophenyl)-;Phthalimide, <em>N</em>-(<em>p</em>-chlorophenyl)-;2-(4-Chlorophenyl)-1<em>H</em>-isoindole-1,3(2<em>H</em>)-dione;<em>N</em>-(<em>p</em>-Chlorophenyl)phthalimide;<em>N</em>-(4-Chlorophenyl)phthalimide;NSC 406154;2-(4-Chlorophenyl)isoindole-1,3-dione;2-(4-Chlorophenyl)isoindoline-1,3-dione;2-(4-Chlorophenyl)-2,3-dihydro-1<em>H</em>-isoindole-1,3-dione",
    "duplicated_cas_no": "",
    "SMILES": "O=C1N(C(=O)C=2C1=CC=CC2)C3=CC=C(Cl)C=C3",
    "meta_data": {
        "InChI": "InChI=1S/C14H8ClNO2/c15-9-5-7-10(8-6-9)16-13(17)11-3-1-2-4-12(11)14(16)18/h1-8H",
        "InChIKey": null,
        "Canonical SMILES": "O=C1C=2C=CC=CC2C(=O)N1C3=CC=C(Cl)C=C3",
        "Molecular Formula": "C<sub>14</sub>H<sub>8</sub>ClNO<sub>2</sub>",
        "Molecular Mass": "257.67",
        "Melting Point": "182-183 °C"
    }
}