{
    "cas_no": "928-91-6",
    "key_name": "<em>cis</em>-4-Hexen-1-ol",
    "cn_name": "(Z)-4-己烯-1-醇;顺式-4-己烯-1-醇;",
    "alternate_name": "4-Hexen-1-ol, (4<em>Z</em>)-;4-Hexen-1-ol, (<em>Z</em>)-;(4<em>Z</em>)-4-Hexen-1-ol;<em>cis</em>-4-Hexen-1-ol;<em>Z</em>-Hex-4-en-1-ol;<em>cis</em>-4-Hexenol;(4<em>Z</em>)-Hex-4-en-1-ol",
    "duplicated_cas_no": "",
    "SMILES": "C(/C=C\\C)CCO",
    "meta_data": {
        "InChI": "InChI=1S/C6H12O/c1-2-3-4-5-6-7/h2-3,7H,4-6H2,1H3/b3-2-",
        "InChIKey": null,
        "Canonical SMILES": "OCCCC=CC",
        "Molecular Formula": "C<sub>6</sub>H<sub>12</sub>O",
        "Molecular Mass": "100.16",
        "Boiling Point": "158-159 °C"
    }
}