{
    "cas_no": "367-23-7",
    "key_name": "1,2,4-Trifluorobenzene",
    "cn_name": "1,2,4-三氟苯;",
    "alternate_name": "Benzene, 1,2,4-trifluoro-;1,2,4-Trifluorobenzene;1,3,4-Trifluorobenzene;1,2,5-Trifluorobenzene;NSC 10263",
    "duplicated_cas_no": "",
    "SMILES": "FC1=C(F)C=CC(F)=C1",
    "meta_data": {
        "InChI": "InChI=1S/C6H3F3/c7-4-1-2-5(8)6(9)3-4/h1-3H",
        "InChIKey": null,
        "Canonical SMILES": "FC1=CC=C(F)C(F)=C1",
        "Molecular Formula": "C<sub>6</sub>H<sub>3</sub>F<sub>3</sub>",
        "Molecular Mass": "132.08",
        "Boiling Point": "90 °C",
        "Density": "1.28-1.32 g/cm³ @ Temp: 25 °C"
    }
}