{
    "cas_no": "874-17-9",
    "key_name": "2,6-Dibromo-4-chloroaniline",
    "cn_name": "2,6-二溴-4-氯苯胺;",
    "alternate_name": "Benzenamine, 2,6-dibromo-4-chloro-;Aniline, 2,6-dibromo-4-chloro-;2,6-Dibromo-4-chlorobenzenamine;2,6-Dibromo-4-chloroaniline;4-Chloro-2,6-dibromoaniline",
    "duplicated_cas_no": "",
    "SMILES": "NC1=C(Br)C=C(Cl)C=C1Br",
    "meta_data": {
        "InChI": "InChI=1S/C6H4Br2ClN/c7-4-1-3(9)2-5(8)6(4)10/h1-2H,10H2",
        "InChIKey": null,
        "Canonical SMILES": "ClC=1C=C(Br)C(N)=C(Br)C1",
        "Molecular Formula": "C<sub>6</sub>H<sub>4</sub>Br<sub>2</sub>ClN",
        "Molecular Mass": "285.36",
        "Melting Point": "95 °C"
    }
}