{
    "cas_no": "876-08-4",
    "key_name": "4-(Chloromethyl)benzoyl chloride",
    "cn_name": "4-氯甲基苯甲酰氯;对氯甲基苯甲酰氯;",
    "alternate_name": "Benzoyl chloride, 4-(chloromethyl)-;<em>p</em>-Toluoyl chloride, α-chloro-;4-(Chloromethyl)benzoyl chloride;α-Chloro-<em>p</em>-toluoyl chloride;<em>p</em>-(Chloromethyl)benzoyl chloride;NSC 508741",
    "duplicated_cas_no": "",
    "SMILES": "C(Cl)(=O)C1=CC=C(CCl)C=C1",
    "meta_data": {
        "InChI": "InChI=1S/C8H6Cl2O/c9-5-6-1-3-7(4-2-6)8(10)11/h1-4H,5H2",
        "InChIKey": null,
        "Canonical SMILES": "O=C(Cl)C1=CC=C(C=C1)CCl",
        "Molecular Formula": "C<sub>8</sub>H<sub>6</sub>Cl<sub>2</sub>O",
        "Molecular Mass": "189.04",
        "Boiling Point": "150-155 °C @ Press: 22 Torr",
        "Melting Point": "30-31 °C",
        "Density": "1.3034 g/cm³ @ Temp: 50 °C"
    }
}