{
    "cas_no": "1985-46-2",
    "key_name": "<em>N</em>,<em>N</em>-Dimethylmelamine",
    "cn_name": "2,4-二氨基-6-二甲胺-1,3,5-三嗪;",
    "alternate_name": "1,3,5-Triazine-2,4,6-triamine, <em>N</em><sup>2</sup>,<em>N</em><sup>2</sup>-dimethyl-;Melamine, <em>N</em><sup>2</sup>,<em>N</em><sup>2</sup>-dimethyl-;1,3,5-Triazine-2,4,6-triamine, <em>N</em>,<em>N</em>-dimethyl-;<em>N</em><sup>2</sup>,<em>N</em><sup>2</sup>-Dimethyl-1,3,5-triazine-2,4,6-triamine;ENT 22312;<em>s</em>-Triazine, 2,4-diamino-6-(dimethylamino)-;<em>N</em><sup>2</sup>,<em>N</em><sup>2</sup>-Dimethylmelamine;2-(Dimethylamino)-4,6-diamino-<em>s</em>-triazine;2,4-Diamino-6-(dimethylamino)-<em>s</em>-triazine;NSC 4417;<em>N</em>,<em>N</em>-Dimethylmelamine;<em>N</em>,<em>N</em>-Dimethyl-1,3,5-triazine-2,4,6-triamine;2,4-Diamino-6-dimethylamino-1,3,5-triazine;2-<em>N</em>,2-<em>N</em>-Dimethyl-1,3,5-triazine-2,4,6-triamine",
    "duplicated_cas_no": "",
    "SMILES": "N(C)(C)C=1N=C(N)N=C(N)N1",
    "meta_data": {
        "InChI": "InChI=1S/C5H10N6/c1-11(2)5-9-3(6)8-4(7)10-5/h1-2H3,(H4,6,7,8,9,10)",
        "InChIKey": null,
        "Canonical SMILES": "N=1C(=NC(=NC1N)N(C)C)N",
        "Molecular Formula": "C<sub>5</sub>H<sub>10</sub>N<sub>6</sub>",
        "Molecular Mass": "154.17",
        "Melting Point": "306-307 °C"
    }
}