{
    "cas_no": "1118-84-9",
    "key_name": "Allyl acetoacetate",
    "cn_name": "乙酰乙酸烯丙酯;",
    "alternate_name": "Butanoic acid, 3-oxo-, 2-propen-1-yl ester;Acetoacetic acid, allyl ester;Butanoic acid, 3-oxo-, 2-propenyl ester;Allyl acetoacetate;Allyl acetylacetate;Allyl 3-oxobutanoate;NSC 24280;3-Oxo-butyric acid allyl ester",
    "duplicated_cas_no": "",
    "SMILES": "C(C(OCC=C)=O)C(C)=O",
    "meta_data": {
        "InChI": "InChI=1S/C7H10O3/c1-3-4-10-7(9)5-6(2)8/h3H,1,4-5H2,2H3",
        "InChIKey": null,
        "Canonical SMILES": "O=C(OCC=C)CC(=O)C",
        "Molecular Formula": "C<sub>7</sub>H<sub>10</sub>O<sub>3</sub>",
        "Molecular Mass": "142.15",
        "Boiling Point": "196 °C",
        "Melting Point": "-85 °C",
        "Density": "1.0366 g/cm³ @ Temp: 25 °C"
    }
}