{
    "cas_no": "1527-17-9",
    "key_name": "2-(Phenylthio)benzeneacetic acid",
    "cn_name": "2-[2-(苯硫基)苯基]乙酸;",
    "alternate_name": "Benzeneacetic acid, 2-(phenylthio)-;Acetic acid, [<em>o</em>-(phenylthio)phenyl]-;2-(Phenylthio)benzeneacetic acid;2-(Phenylthio)phenylacetic acid;2-(2-(Phenylthio)phenyl)acetic acid;BTB 15078",
    "duplicated_cas_no": "",
    "SMILES": "S(C1=C(CC(O)=O)C=CC=C1)C2=CC=CC=C2",
    "meta_data": {
        "InChI": "InChI=1S/C14H12O2S/c15-14(16)10-11-6-4-5-9-13(11)17-12-7-2-1-3-8-12/h1-9H,10H2,(H,15,16)",
        "InChIKey": null,
        "Canonical SMILES": "O=C(O)CC=1C=CC=CC1SC=2C=CC=CC2",
        "Molecular Formula": "C<sub>14</sub>H<sub>12</sub>O<sub>2</sub>S",
        "Molecular Mass": "244.31",
        "Boiling Point": "205 °C @ Press: 1.2 Torr",
        "Melting Point": "123 °C"
    }
}