{
    "cas_no": "527-60-6",
    "key_name": "2,4,6-Trimethylphenol",
    "cn_name": "2,4,6-三甲基苯酚;2,4,6-三甲酚;",
    "alternate_name": "Phenol, 2,4,6-trimethyl-;Mesitol;2,4,6-Trimethylphenol;Mesityl alcohol;2-Hydroxymesitylene;1-Hydroxy-2,4,6-trimethylbenzene;Hydroxymesitylene;1,3,5-Trimethylphenol;NSC 231851;NSC 5353;NSC 68321",
    "duplicated_cas_no": "",
    "SMILES": "OC1=C(C)C=C(C)C=C1C",
    "meta_data": {
        "InChI": "InChI=1S/C9H12O/c1-6-4-7(2)9(10)8(3)5-6/h4-5,10H,1-3H3",
        "InChIKey": null,
        "Canonical SMILES": "OC=1C(=CC(=CC1C)C)C",
        "Molecular Formula": "C<sub>9</sub>H<sub>12</sub>O",
        "Molecular Mass": "136.19",
        "Boiling Point": "220 °C",
        "Melting Point": "73 °C"
    }
}