{
    "cas_no": "105-50-0",
    "key_name": "Diethyl 1,3-acetonedicarboxylate",
    "cn_name": "1,3-丙酮二羧酸二乙酯;3-氧代戊二酸二乙酯;",
    "alternate_name": "Pentanedioic acid, 3-oxo-, 1,5-diethyl ester;Glutaric acid, 3-oxo-, diethyl ester;Pentanedioic acid, 3-oxo-, diethyl ester;Glutaric acid, β-oxo-, diethyl ester;Diethyl acetonedicarboxylate;Diethyl 3-oxoglutarate;3-Oxopentanedioic acid diethyl ester;Diethyl 3-oxopentanedioate;Diethyl β-oxoglutarate;Acetonedicarboxylic acid diethyl ester;Diethyl 1,3-acetonedicarboxylate;Diethyl 2-oxopropane-1,3-dicarboxylate;Diethyl 3-ketoglutarate;β-Ketoglutaric acid diethyl ester;Diethyl β-ketoglutarate;NSC 9013;1,3-Acetonedicarboxylic acid diethyl ester;1,5-Diethyl 3-oxopentanedioate",
    "duplicated_cas_no": "31096-04-5",
    "SMILES": "C(CC(OCC)=O)(CC(OCC)=O)=O",
    "meta_data": {
        "InChI": "InChI=1S/C9H14O5/c1-3-13-8(11)5-7(10)6-9(12)14-4-2/h3-6H2,1-2H3",
        "InChIKey": null,
        "Canonical SMILES": "O=C(OCC)CC(=O)CC(=O)OCC",
        "Molecular Formula": "C<sub>9</sub>H<sub>14</sub>O<sub>5</sub>",
        "Molecular Mass": "202.20",
        "Boiling Point": "250 °C",
        "Melting Point": "125 °C",
        "Density": "1.032 g/cm³ @ Temp: 20 °C"
    }
}