{
    "cas_no": "19902-91-1",
    "key_name": "(+)-Dihydromethysticin",
    "cn_name": null,
    "alternate_name": "2<em>H</em>-Pyran-2-one, 6-[2-(1,3-benzodioxol-5-yl)ethyl]-5,6-dihydro-4-methoxy-, (6<em>S</em>)-;2<em>H</em>-Pyran-2-one, 5,6-dihydro-4-methoxy-6-[3,4-(methylenedioxy)phenethyl]-, (<em>S</em>)-;2<em>H</em>-Pyran-2-one, 6-[2-(1,3-benzodioxol-5-yl)ethyl]-5,6-dihydro-4-methoxy-, (<em>S</em>)-;Methysticin, dihydro-;(6<em>S</em>)-6-[2-(1,3-Benzodioxol-5-yl)ethyl]-5,6-dihydro-4-methoxy-2<em>H</em>-pyran-2-one;Methysticin, 7,8-dihydro-;Dihydromethysticin;7,8-Dihydromethysticin;DHM;(+)-Dihydromethysticin;NSC 112159;(<em>S</em>)-(+)-Dihydromethysticin;(2S)-2-[2-(1,3-Benzodioxol-5-yl)ethyl]-4-methoxy-2,3-dihydropyran-6-one",
    "duplicated_cas_no": "583-18-6",
    "SMILES": "C(C[C@H]1CC(OC)=CC(=O)O1)C=2C=C3C(=CC2)OCO3",
    "meta_data": {
        "InChI": "InChI=1S/C15H16O5/c1-17-12-7-11(20-15(16)8-12)4-2-10-3-5-13-14(6-10)19-9-18-13/h3,5-6,8,11H,2,4,7,9H2,1H3/t11-/m0/s1",
        "InChIKey": null,
        "Canonical SMILES": "O=C1OC(CC(OC)=C1)CCC2=CC=C3OCOC3=C2",
        "Molecular Formula": "C<sub>15</sub>H<sub>16</sub>O<sub>5</sub>",
        "Molecular Mass": "276.28",
        "Melting Point": "117-118 °C"
    }
}