{
    "cas_no": "26807-65-8",
    "key_name": "Indapamide",
    "cn_name": "吲达帕胺;N-(2-甲基-2,3-二氢-1H-吲哚基)-3-氨磺酰基-4-氯-苯甲酰胺;",
    "alternate_name": "Benzamide, 3-(aminosulfonyl)-4-chloro-<em>N</em>-(2,3-dihydro-2-methyl-1<em>H</em>-indol-1-yl)-;Benzamide, 4-chloro-<em>N</em>-(2-methyl-1-indolinyl)-3-sulfamoyl-;3-(Aminosulfonyl)-4-chloro-<em>N</em>-(2,3-dihydro-2-methyl-1<em>H</em>-indol-1-yl)benzamide;Indapamide;SE 1520;S 1520;Lozol;Tertensif;(±)-Indapamide;Racemic indapamide;Fludin;Fludex;Flupamid;Flubest;Indamide;Natrilix;Veroxil;Damide;Ipamix;Tandix;Indaflex;Bajaten;Indamol;Noranat;Arifon;Lorvas;KYD 041;Natrix;MeSH ID: D007190",
    "duplicated_cas_no": "133645-45-1;49564-58-1",
    "SMILES": "N(C(=O)C1=CC(S(N)(=O)=O)=C(Cl)C=C1)N2C=3C(CC2C)=CC=CC3",
    "meta_data": {
        "InChI": "InChI=1S/C16H16ClN3O3S/c1-10-8-11-4-2-3-5-14(11)20(10)19-16(21)12-6-7-13(17)15(9-12)24(18,22)23/h2-7,9-10H,8H2,1H3,(H,19,21)(H2,18,22,23)",
        "InChIKey": null,
        "Canonical SMILES": "O=C(NN1C=2C=CC=CC2CC1C)C3=CC=C(Cl)C(=C3)S(=O)(=O)N",
        "Molecular Formula": "C<sub>16</sub>H<sub>16</sub>ClN<sub>3</sub>O<sub>3</sub>S",
        "Molecular Mass": "365.83",
        "Melting Point": "161 °C"
    }
}