{
    "cas_no": "2302-25-2",
    "key_name": "4-Bromoimidazole",
    "cn_name": "4-溴-1H-咪唑;",
    "alternate_name": "1<em>H</em>-Imidazole, 5-bromo-;Imidazole, 4-bromo-;1<em>H</em>-Imidazole, 4-bromo-;Imidazole, 4(<em>or</em> 5)-bromo-;5-Bromo-1<em>H</em>-imidazole;4(<em>or</em> 5)-Bromoimidazole;4-Bromoimidazole;4-Bromo-1<em>H</em>-imidazole;NSC 227280;NSC 54254",
    "duplicated_cas_no": "",
    "SMILES": "BrC1=CN=CN1",
    "meta_data": {
        "InChI": "InChI=1S/C3H3BrN2/c4-3-1-5-2-6-3/h1-2H,(H,5,6)",
        "InChIKey": null,
        "Canonical SMILES": "BrC1=CN=CN1",
        "Molecular Formula": "C<sub>3</sub>H<sub>3</sub>BrN<sub>2</sub>",
        "Molecular Mass": "146.97",
        "Melting Point": "130-131 °C"
    }
}