{
    "cas_no": "586-96-9",
    "key_name": "Nitrosobenzene",
    "cn_name": "亚硝基苯;",
    "alternate_name": "Benzene, nitroso-;Nitrosobenzene;NSC 66479",
    "duplicated_cas_no": "",
    "SMILES": "N(=O)C1=CC=CC=C1",
    "meta_data": {
        "InChI": "InChI=1S/C6H5NO/c8-7-6-4-2-1-3-5-6/h1-5H",
        "InChIKey": null,
        "Canonical SMILES": "O=NC=1C=CC=CC1",
        "Molecular Formula": "C<sub>6</sub>H<sub>5</sub>NO",
        "Molecular Mass": "107.11",
        "Boiling Point": "58 °C",
        "Melting Point": "68.5 °C"
    }
}