{
    "cas_no": "7431-83-6",
    "key_name": "Quercetin 3-<em>O</em>-gentiobioside",
    "cn_name": null,
    "alternate_name": "4<em>H</em>-1-Benzopyran-4-one, 2-(3,4-dihydroxyphenyl)-3-[(6-<em>O</em>-β-<span class=\"text-smallcaps\">D</smallcap>-glucopyranosyl-β-<smallcap>D</span>-glucopyranosyl)oxy]-5,7-dihydroxy-;Flavone, 3,3′,4′,5,7-pentahydroxy-, 3-(6-<em>O</em>-β-<span class=\"text-smallcaps\">D</smallcap>-glucopyranosyl-β-<smallcap>D</span>-glucopyranoside);2-(3,4-Dihydroxyphenyl)-3-[(6-<em>O</em>-β-<span class=\"text-smallcaps\">D</smallcap>-glucopyranosyl-β-<smallcap>D</span>-glucopyranosyl)oxy]-5,7-dihydroxy-4<em>H</em>-1-benzopyran-4-one;3,3′,4′,5,7-Pentahydroxyflavone 3-gentiobioside;Quercetin 3β-gentiobioside;Quercetin 3-gentiobioside;Q3;Quercetin 3-<em>O</em>-β-gentiobioside;Quercetin 3-<em>O</em>-gentiobioside;Quercetin 3-<em>O</em>-[β-<span class=\"text-smallcaps\">D</smallcap>-glucosyl-(1→6)-β-<smallcap>D</span>-glucoside];Quercetin 3-<em>O</em>-(6′′-<em>O</em>-glucosyl)glucoside",
    "duplicated_cas_no": "24529-97-3;32032-22-7;86797-88-8",
    "SMILES": "O(C1=C(OC=2C(C1=O)=C(O)C=C(O)C2)C3=CC(O)=C(O)C=C3)[C@@H]4O[C@H](CO[C@@H]5O[C@H](CO)[C@@H](O)[C@H](O)[C@H]5O)[C@@H](O)[C@H](O)[C@H]4O",
    "meta_data": {
        "InChI": "InChI=1S/C27H30O17/c28-6-14-17(33)20(36)22(38)26(42-14)40-7-15-18(34)21(37)23(39)27(43-15)44-25-19(35)16-12(32)4-9(29)5-13(16)41-24(25)8-1-2-10(30)11(31)3-8/h1-5,14-15,17-18,20-23,26-34,36-39H,6-7H2/t14-,15-,17-,18-,20+,21+,22-,23-,26-,27+/m1/s1",
        "InChIKey": null,
        "Canonical SMILES": "O=C1C(OC2OC(COC3OC(CO)C(O)C(O)C3O)C(O)C(O)C2O)=C(OC=4C=C(O)C=C(O)C14)C=5C=CC(O)=C(O)C5",
        "Molecular Formula": "C<sub>27</sub>H<sub>30</sub>O<sub>17</sub>",
        "Molecular Mass": "626.52",
        "Melting Point": "205-207 °C"
    }
}