{
    "cas_no": "26118-67-2",
    "key_name": "<em>N</em>-(1-Methylethyl)sulfamoyl chloride",
    "cn_name": null,
    "alternate_name": "Sulfamoyl chloride, <em>N</em>-(1-methylethyl)-;Sulfamoyl chloride, isopropyl-;Sulfamoyl chloride, (1-methylethyl)-;<em>N</em>-(1-Methylethyl)sulfamoyl chloride;Isopropylsulfamoyl chloride;Isopropylaminosulfonyl chloride;Isopropylaminosulfonic acid;Isopropylamidosulfonyl chloride;<em>N</em>-Isopropylsulfamoyl chloride;<em>N</em>-Isopropylchlorosulfonamide",
    "duplicated_cas_no": "",
    "SMILES": "N(S(Cl)(=O)=O)C(C)C",
    "meta_data": {
        "InChI": "InChI=1S/C3H8ClNO2S/c1-3(2)5-8(4,6)7/h3,5H,1-2H3",
        "InChIKey": null,
        "Canonical SMILES": "O=S(=O)(Cl)NC(C)C",
        "Molecular Formula": "C<sub>3</sub>H<sub>8</sub>ClNO<sub>2</sub>S",
        "Molecular Mass": "157.62",
        "Boiling Point": "59-60 °C @ Press: 0.33 Torr"
    }
}