{
    "cas_no": "86-65-7",
    "key_name": "7-Amino-1,3-naphthalenedisulfonic acid",
    "cn_name": "7-氨基-1,3-萘二磺酸;",
    "alternate_name": "1,3-Naphthalenedisulfonic acid, 7-amino-;7-Amino-1,3-naphthalenedisulfonic acid;Amino-G acid;β-Naphthylamine-6,8-disulfonic acid;2-Naphthylamine-6,8-disulfonic acid;2-Aminonaphthalene-6,8-disulfonic acid;2-Amino-6,8-disulfonaphthalene;Amido-G-Acid;6,8-Disulfo-2-aminonaphthalene;NSC 4013;6,8-Disulfo-2-naphthylamine",
    "duplicated_cas_no": "1351925-13-7",
    "SMILES": "S(=O)(=O)(O)C=1C2=C(C=C(S(=O)(=O)O)C1)C=CC(N)=C2",
    "meta_data": {
        "InChI": "InChI=1S/C10H9NO6S2/c11-7-2-1-6-3-8(18(12,13)14)5-10(9(6)4-7)19(15,16)17/h1-5H,11H2,(H,12,13,14)(H,15,16,17)",
        "InChIKey": null,
        "Canonical SMILES": "O=S(=O)(O)C1=CC2=CC=C(N)C=C2C(=C1)S(=O)(=O)O",
        "Molecular Formula": "C<sub>10</sub>H<sub>9</sub>NO<sub>6</sub>S<sub>2</sub>",
        "Molecular Mass": "303.31",
        "Melting Point": "274 °C"
    }
}