{
    "cas_no": "13094-51-4",
    "key_name": "Bromoacetic anhydride",
    "cn_name": null,
    "alternate_name": "Acetic acid, 2-bromo-, 1,1′-anhydride;Acetic acid, bromo-, anhydride;Bromoacetic anhydride;2-Bromoacetyl 2-bromoacetate;2-Bromoacetic anhydride",
    "duplicated_cas_no": "",
    "SMILES": "O(C(CBr)=O)C(CBr)=O",
    "meta_data": {
        "InChI": "InChI=1S/C4H4Br2O3/c5-1-3(7)9-4(8)2-6/h1-2H2",
        "InChIKey": null,
        "Canonical SMILES": "O=C(OC(=O)CBr)CBr",
        "Molecular Formula": "C<sub>4</sub>H<sub>4</sub>Br<sub>2</sub>O<sub>3</sub>",
        "Molecular Mass": "259.88",
        "Boiling Point": "130-138 °C @ Press: 12.3 Torr",
        "Melting Point": "41-42 °C"
    }
}