{
    "cas_no": "98-62-4",
    "key_name": "4-Aminobenzenesulfonyl fluoride",
    "cn_name": "4-氨基苯磺酰氟;",
    "alternate_name": "Benzenesulfonyl fluoride, 4-amino-;Sulfanilyl fluoride;4-Aminobenzenesulfonyl fluoride;<em>p</em>-Aminobenzenesulfonyl fluoride;<em>p</em>-Sulfanilyl fluoride;(<em>p</em>-Fluorosulfonyl)aniline;4-(Fluorosulfonyl)aniline;NSC 95411",
    "duplicated_cas_no": "",
    "SMILES": "S(F)(=O)(=O)C1=CC=C(N)C=C1",
    "meta_data": {
        "InChI": "InChI=1S/C6H6FNO2S/c7-11(9,10)6-3-1-5(8)2-4-6/h1-4H,8H2",
        "InChIKey": null,
        "Canonical SMILES": "O=S(=O)(F)C1=CC=C(N)C=C1",
        "Molecular Formula": "C<sub>6</sub>H<sub>6</sub>FNO<sub>2</sub>S",
        "Molecular Mass": "175.18",
        "Melting Point": "68.5 °C"
    }
}