{
    "cas_no": "100-50-5",
    "key_name": "3-Cyclohexene-1-carboxaldehyde",
    "cn_name": "1,2,3,6-四氢苯甲醛;1,2,5,6-四氢苯甲醛;3-环己烯甲醛;",
    "alternate_name": "3-Cyclohexene-1-carboxaldehyde;1,2,3,6-Tetrahydrobenzaldehyde;3-Cyclohexen-1-aldehyde;4-Formylcyclohexene;1-Formyl-3-cyclohexene;Cyclohexene-4-carboxaldehyde;1,2,5,6-Tetrahydrobenzaldehyde;1-Cyclohexene-4-carboxaldehyde;(±)-3-Cyclohexene-1-carboxaldehyde;Δ<sup>3</sup>-Tetrahydrobenzaldehyde;NSC 16241;3-Cyclohexene-1-carbaldehyde;3-Cyclohexenylcarboxaldehyde",
    "duplicated_cas_no": "84049-08-1",
    "SMILES": "C(=O)C1CCC=CC1",
    "meta_data": {
        "InChI": "InChI=1S/C7H10O/c8-6-7-4-2-1-3-5-7/h1-2,6-7H,3-5H2",
        "InChIKey": null,
        "Canonical SMILES": "O=CC1CC=CCC1",
        "Molecular Formula": "C<sub>7</sub>H<sub>10</sub>O",
        "Molecular Mass": "110.15",
        "Boiling Point": "105 °C",
        "Melting Point": "2 °C",
        "Density": "0.9694 g/cm³ @ Temp: 20 °C"
    }
}