{
    "cas_no": "941678-49-5",
    "key_name": "Ruxolitinib",
    "cn_name": null,
    "alternate_name": "1<em>H</em>-Pyrazole-1-propanenitrile, β-cyclopentyl-4-(7<em>H</em>-pyrrolo[2,3-<em>d</em>]pyrimidin-4-yl)-, (β<em>R</em>)-;(β<em>R</em>)-β-Cyclopentyl-4-(7<em>H</em>-pyrrolo[2,3-<em>d</em>]pyrimidin-4-yl)-1<em>H</em>-pyrazole-1-propanenitrile;Ruxolitinib;INCB 018424;(3R)-3-Cyclopentyl-3-[4-(7<em>H</em>-pyrrolo[2,3-<em>d</em>]pyrimidin-4-yl)-1<em>H</em>-pyrazol-1-yl]propanenitrile;INC 424;(<em>R</em>)-3-[4-(7<em>H</em>-Pyrrolo[2,3-<em>d</em>]pyrimidin-4-yl)-1<em>H</em>-pyrazol-1-yl]-3-cyclopentylpropanenitrile;Opzelura",
    "duplicated_cas_no": "1138325-12-8",
    "SMILES": "[C@H](CC#N)(N1C=C(C2=C3C(=NC=N2)NC=C3)C=N1)C4CCCC4",
    "meta_data": {
        "InChI": "InChI=1S/C17H18N6/c18-7-5-15(12-3-1-2-4-12)23-10-13(9-22-23)16-14-6-8-19-17(14)21-11-20-16/h6,8-12,15H,1-5H2,(H,19,20,21)/t15-/m1/s1",
        "InChIKey": null,
        "Canonical SMILES": "N#CCC(N1N=CC(=C1)C=2N=CN=C3NC=CC32)C4CCCC4",
        "Molecular Formula": "C<sub>17</sub>H<sub>18</sub>N<sub>6</sub>",
        "Molecular Mass": "306.36",
        "Melting Point": "88 °C"
    }
}