{
    "cas_no": "2363-88-4",
    "key_name": "2,4-Decadienal",
    "cn_name": "2,4-癸二烯醛;",
    "alternate_name": "2,4-Decadienal;2,4-Decadien-1-al",
    "duplicated_cas_no": "",
    "SMILES": "C(CCCCC)=CC=CC=O",
    "meta_data": {
        "InChI": "InChI=1S/C10H16O/c1-2-3-4-5-6-7-8-9-10-11/h6-10H,2-5H2,1H3",
        "InChIKey": null,
        "Canonical SMILES": "O=CC=CC=CCCCCC",
        "Molecular Formula": "C<sub>10</sub>H<sub>16</sub>O",
        "Molecular Mass": "152.23",
        "Boiling Point": "64-65 °C"
    }
}