{
    "cas_no": "53-19-0",
    "key_name": "Mitotane",
    "cn_name": "米托坦;1-(2-氯苯基)-1-(4-氯苯基)-2,2-二氯乙烷;",
    "alternate_name": "Benzene, 1-chloro-2-[2,2-dichloro-1-(4-chlorophenyl)ethyl]-;Ethane, 1,1-dichloro-2-(<em>o</em>-chlorophenyl)-2-(<em>p</em>-chlorophenyl)-;1-Chloro-2-[2,2-dichloro-1-(4-chlorophenyl)ethyl]benzene;1-(2-Chlorophenyl)-1-(4-chlorophenyl)-2,2-dichloroethane;<em>o</em>,<em>p</em>′-DDD;Mitotane;<em>o</em>,<em>p</em>′-TDE;1,1-Dichloro-2-(<em>o</em>-chlorophenyl)-2-(<em>p</em>-chlorophenyl)ethane;Chlodithane;1-(<em>o</em>-Chlorophenyl)-1-(<em>p</em>-chlorophenyl)-2,2-dichloroethane;2-(<em>p</em>-Chlorophenyl)-2-(<em>o</em>-chlorophenyl)-1,1-dichloroethane;<em>o</em>,<em>p</em>′-Dichlorodiphenyldichloroethane;Chloditan;2,4′-Dichlorodiphenyldichloroethane;Lysodren;Mitotan;CB 313;NSC 38721;2-(2-Chlorophenyl)-2-(4-chlorophenyl)-1,1-dichloroethane;Opeprim;1-(2′-Chlorophenyl)-1-(4′-chlorophenyl)-2,2-dichloroethane;1-Chloro-4-[2,2-dichloro-1-(2-chlorophenyl)ethyl]benzene;MeSH ID: D008939",
    "duplicated_cas_no": "102976-59-0",
    "SMILES": "C(C(Cl)Cl)(C1=C(Cl)C=CC=C1)C2=CC=C(Cl)C=C2",
    "meta_data": {
        "InChI": "InChI=1S/C14H10Cl4/c15-10-7-5-9(6-8-10)13(14(17)18)11-3-1-2-4-12(11)16/h1-8,13-14H",
        "InChIKey": null,
        "Canonical SMILES": "ClC1=CC=C(C=C1)C(C=2C=CC=CC2Cl)C(Cl)Cl",
        "Molecular Formula": "C<sub>14</sub>H<sub>10</sub>Cl<sub>4</sub>",
        "Molecular Mass": "320.04",
        "Melting Point": "76-78 °C",
        "Density": "1.385 g/cm³"
    }
}