{
    "cas_no": "18618-64-9",
    "key_name": "8-Pentadecanamine",
    "cn_name": null,
    "alternate_name": "8-Pentadecanamine;Octylamine, 1-heptyl-;1-Heptyloctylamine;8-Pentadecylamine",
    "duplicated_cas_no": "",
    "SMILES": "C(CCCCCCC)(CCCCCCC)N",
    "meta_data": {
        "InChI": "InChI=1S/C15H33N/c1-3-5-7-9-11-13-15(16)14-12-10-8-6-4-2/h15H,3-14,16H2,1-2H3",
        "InChIKey": null,
        "Canonical SMILES": "NC(CCCCCCC)CCCCCCC",
        "Molecular Formula": "C<sub>15</sub>H<sub>33</sub>N",
        "Molecular Mass": "227.43",
        "Boiling Point": "157 °C @ Press: 12 Torr"
    }
}