{
    "cas_no": "51072-66-3",
    "key_name": "1-Bromo-4,5-dimethoxy-2-nitrobenzene",
    "cn_name": null,
    "alternate_name": "Benzene, 1-bromo-4,5-dimethoxy-2-nitro-;Veratrole, 4-bromo-5-nitro-;1-Bromo-4,5-dimethoxy-2-nitrobenzene;4-Bromo-5-nitroveratrole;2-Bromo-4,5-dimethoxynitrobenzene;1-Bromo-3,4-dimethoxy-6-nitrobenzene;4,5-Dimethoxy-1-bromo-2-nitrobenzene",
    "duplicated_cas_no": "",
    "SMILES": "N(=O)(=O)C1=C(Br)C=C(OC)C(OC)=C1",
    "meta_data": {
        "InChI": "InChI=1S/C8H8BrNO4/c1-13-7-3-5(9)6(10(11)12)4-8(7)14-2/h3-4H,1-2H3",
        "InChIKey": null,
        "Canonical SMILES": "O=N(=O)C=1C=C(OC)C(OC)=CC1Br",
        "Molecular Formula": "C<sub>8</sub>H<sub>8</sub>BrNO<sub>4</sub>",
        "Molecular Mass": "262.06",
        "Melting Point": "121 °C"
    }
}