{
    "cas_no": "10052-47-8",
    "key_name": "Triethylmethylammonium chloride",
    "cn_name": "三乙基甲基氯化铵;甲基三乙基氯化铵;",
    "alternate_name": "Ethanaminium, <em>N</em>,<em>N</em>-diethyl-<em>N</em>-methyl-, chloride (1:1);Ammonium, triethylmethyl-, chloride;Ethanaminium, <em>N</em>,<em>N</em>-diethyl-<em>N</em>-methyl-, chloride;Triethylmethylammonium chloride;Methyltriethylammonium chloride",
    "duplicated_cas_no": "",
    "SMILES": "[N+](CC)(CC)(CC)C.[Cl-]",
    "meta_data": {
        "InChI": "InChI=1S/C7H18N.ClH/c1-5-8(4,6-2)7-3;/h5-7H2,1-4H3;1H/q+1;/p-1",
        "InChIKey": null,
        "Canonical SMILES": "[Cl-].CC[N+](C)(CC)CC",
        "Molecular Formula": "C<sub>7</sub>H<sub>18</sub>N.Cl",
        "Molecular Mass": "",
        "Melting Point": "284 °C (decomp)"
    }
}