{
    "cas_no": "1335-40-6",
    "key_name": "Ethyl furoate",
    "cn_name": null,
    "alternate_name": "Furancarboxylic acid, ethyl ester;Furoic acid, ethyl ester;Ethyl furoate",
    "duplicated_cas_no": "",
    "SMILES": "",
    "meta_data": {
        "InChI": "",
        "InChIKey": null,
        "Canonical SMILES": "",
        "Molecular Formula": "C<sub>7</sub>H<sub>8</sub>O<sub>3</sub>",
        "Molecular Mass": "",
        "Boiling Point": "90 °C @ Press: 15 Torr",
        "Melting Point": "48-50 °C"
    }
}