{
    "cas_no": "3321-64-0",
    "key_name": "Butylphosphonic acid",
    "cn_name": "1-丁基磷酸;1-丁基磷酸;",
    "alternate_name": "Phosphonic acid, <em>P</em>-butyl-;Phosphonic acid, butyl-;<em>P</em>-Butylphosphonic acid;1-Butanephosphonic acid;Butylphosphonic acid;<em>n</em>-Butylphosphonic acid;NSC 38367;Butanephosphonic acid",
    "duplicated_cas_no": "",
    "SMILES": "C(P(=O)(O)O)CCC",
    "meta_data": {
        "InChI": "InChI=1S/C4H11O3P/c1-2-3-4-8(5,6)7/h2-4H2,1H3,(H2,5,6,7)",
        "InChIKey": null,
        "Canonical SMILES": "O=P(O)(O)CCCC",
        "Molecular Formula": "C<sub>4</sub>H<sub>11</sub>O<sub>3</sub>P",
        "Molecular Mass": "138.10",
        "Melting Point": "89-99 °C"
    }
}