{
    "cas_no": "479-66-3",
    "key_name": "4,10-Dihydro-3,7,8-trihydroxy-3-methyl-10-oxo-1<em>H</em>,3<em>H</em>-pyrano[4,3-<em>b</em>][1]benzopyran-9-carboxylic acid",
    "cn_name": "富里酸;黄腐植酸;",
    "alternate_name": "1<em>H</em>,3<em>H</em>-Pyrano[4,3-<em>b</em>][1]benzopyran-9-carboxylic acid, 4,10-dihydro-3,7,8-trihydroxy-3-methyl-10-oxo-;1<em>H</em>,10<em>H</em>-Pyrano[4,3-<em>b</em>][1]benzopyran-9-carboxylic acid, 3,4-dihydro-3,7,8-trihydroxy-3-methyl-10-oxo-;4,10-Dihydro-3,7,8-trihydroxy-3-methyl-10-oxo-1<em>H</em>,3<em>H</em>-pyrano[4,3-<em>b</em>][1]benzopyran-9-carboxylic acid;3,7,8-Trihydroxy-3-methyl-10-oxo-1,4-dihydropyrano[4,3-<em>b</em>]chromene-9-carboxylic acid",
    "duplicated_cas_no": "",
    "SMILES": "C(O)(=O)C1=C2C(OC3=C(C2=O)COC(C)(O)C3)=CC(O)=C1O",
    "meta_data": {
        "InChI": "InChI=1S/C14H12O8/c1-14(20)3-8-5(4-21-14)11(16)9-7(22-8)2-6(15)12(17)10(9)13(18)19/h2,15,17,20H,3-4H2,1H3,(H,18,19)",
        "InChIKey": null,
        "Canonical SMILES": "O=C(O)C=1C(O)=C(O)C=C2OC3=C(C(=O)C21)COC(O)(C)C3",
        "Molecular Formula": "C<sub>14</sub>H<sub>12</sub>O<sub>8</sub>",
        "Molecular Mass": "308.24",
        "Melting Point": "246 °C (decomp)"
    }
}