{
    "cas_no": "22419-74-5",
    "key_name": "Incensole",
    "cn_name": null,
    "alternate_name": "15-Oxabicyclo[10.2.1]pentadeca-5,9-dien-2-ol, 1,5,9-trimethyl-12-(1-methylethyl)-, (1<em>R</em>,2<em>S</em>,5<em>E</em>,9<em>E</em>,12<em>S</em>)-;15-Oxabicyclo[10.2.1]pentadeca-5,9-dien-2-ol, 12-isopropyl-1,5,9-trimethyl-;(1<em>R</em>,2<em>S</em>,5<em>E</em>,9<em>E</em>,12<em>S</em>)-1,5,9-Trimethyl-12-(1-methylethyl)-15-oxabicyclo[10.2.1]pentadeca-5,9-dien-2-ol;Incensol;Incensole",
    "duplicated_cas_no": "",
    "SMILES": "",
    "meta_data": {
        "InChI": "",
        "InChIKey": null,
        "Canonical SMILES": "",
        "Molecular Formula": "C<sub>20</sub>H<sub>34</sub>O<sub>2</sub>",
        "Molecular Mass": "306.48",
        "Melting Point": "77.6 °C"
    }
}