{
    "cas_no": "10544-63-5",
    "key_name": "Ethyl crotonate",
    "cn_name": null,
    "alternate_name": "2-Butenoic acid, ethyl ester;Crotonic acid, ethyl ester;Ethyl crotonate;Ethyl 2-butenoate;NSC 4778",
    "duplicated_cas_no": "",
    "SMILES": "C(C=CC)(OCC)=O",
    "meta_data": {
        "InChI": "InChI=1S/C6H10O2/c1-3-5-6(7)8-4-2/h3,5H,4H2,1-2H3",
        "InChIKey": null,
        "Canonical SMILES": "O=C(OCC)C=CC",
        "Molecular Formula": "C<sub>6</sub>H<sub>10</sub>O<sub>2</sub>",
        "Molecular Mass": "114.14",
        "Boiling Point": "136.5 °C",
        "Density": "0.91752 g/cm³ @ Temp: 20 °C"
    }
}