{
    "cas_no": "108-09-8",
    "key_name": "1,3-Dimethylbutylamine",
    "cn_name": "1,3-二甲基丁胺;",
    "alternate_name": "2-Pentanamine, 4-methyl-;Butylamine, 1,3-dimethyl-;4-Methyl-2-pentanamine;4-Methyl-2-aminopentane;2-Amino-4-methylpentane;1,3-Dimethylbutylamine;1,3-Dimethylbutanamine;<span class=\"text-smallcaps\">DL</span>-1,3-Dimethylbutylamine;(±)-1,3-Dimethylbutylamine;(±)-4-Methyl-2-Pentanamine;NSC 48080;4-Amino-2-methylpentane",
    "duplicated_cas_no": "54548-48-0",
    "SMILES": "C(C(C)C)C(C)N",
    "meta_data": {
        "InChI": "InChI=1S/C6H15N/c1-5(2)4-6(3)7/h5-6H,4,7H2,1-3H3",
        "InChIKey": null,
        "Canonical SMILES": "NC(C)CC(C)C",
        "Molecular Formula": "C<sub>6</sub>H<sub>15</sub>N",
        "Molecular Mass": "101.19",
        "Boiling Point": "108-109 °C",
        "Density": "0.8492 g/cm³ @ Temp: 20 °C"
    }
}