{
    "cas_no": "62037-46-1",
    "key_name": "2-Propanol, 1-amino-3-chloro-, hydrochloride (1:1)",
    "cn_name": null,
    "alternate_name": "2-Propanol, 1-amino-3-chloro-, hydrochloride (1:1);2-Propanol, 1-amino-3-chloro-, hydrochloride;3-Chloro-2-hydroxypropylamine hydrochloride;3-Chloro-2-hydroxypropylammonium chloride;3-Chloro-2-hydroxy-1-propanamine hydrochloride;1-Amino-3-chloro-2-propanol hydrochloride;(±)-1-Amino-3-chloro-2-propanol hydrochloride;<em>dl</em>-1-Amino-3-chloro-2-propanol-hydrochloride",
    "duplicated_cas_no": "34839-12-8",
    "SMILES": "C(CCl)(CN)O.Cl",
    "meta_data": {
        "InChI": "InChI=1S/C3H8ClNO.ClH/c4-1-3(6)2-5;/h3,6H,1-2,5H2;1H",
        "InChIKey": null,
        "Canonical SMILES": "Cl.ClCC(O)CN",
        "Molecular Formula": "C<sub>3</sub>H<sub>8</sub>ClNO.ClH",
        "Molecular Mass": "",
        "Melting Point": "181-183 °C (decomp)"
    }
}