{
    "cas_no": "100-60-7",
    "key_name": "Methylcyclohexylamine",
    "cn_name": "N-甲基环己胺;",
    "alternate_name": "Cyclohexanamine, <em>N</em>-methyl-;Cyclohexylamine, <em>N</em>-methyl-;<em>N</em>-Methylcyclohexanamine;<em>N</em>-Methylcyclohexylamine;Cyclohexylmethylamine;Methylcyclohexylamine;<em>N</em>-Methyl-<em>N</em>-cyclohexylamine;<em>N</em>-Cyclohexylmethylamine;<em>N</em>-Cyclohexyl-<em>N</em>-methylamine;(Methylamino)cyclohexane;NSC 434;SC 79B",
    "duplicated_cas_no": "",
    "SMILES": "N(C)C1CCCCC1",
    "meta_data": {
        "InChI": "InChI=1S/C7H15N/c1-8-7-5-3-2-4-6-7/h7-8H,2-6H2,1H3",
        "InChIKey": null,
        "Canonical SMILES": "N(C)C1CCCCC1",
        "Molecular Formula": "C<sub>7</sub>H<sub>15</sub>N",
        "Molecular Mass": "113.20",
        "Boiling Point": "147 °C",
        "Melting Point": "149-150 °C",
        "Density": "0.8518 g/cm³ @ Temp: 20 °C"
    }
}