{
    "cas_no": "128-09-6",
    "key_name": "Chlorosuccinimide",
    "cn_name": "N-氯代丁二酰亚胺;",
    "alternate_name": "2,5-Pyrrolidinedione, 1-chloro-;Succinimide, <em>N</em>-chloro-;1-Chloro-2,5-pyrrolidinedione;<em>N</em>-Chlorosuccinimide;Succinchlorimide;Succinic <em>N</em>-chloroimide;Chlorosuccinimide;NSC 8748;NCS",
    "duplicated_cas_no": "952714-33-9",
    "SMILES": "ClN1C(=O)CCC1=O",
    "meta_data": {
        "InChI": "InChI=1S/C4H4ClNO2/c5-6-3(7)1-2-4(6)8/h1-2H2",
        "InChIKey": null,
        "Canonical SMILES": "O=C1N(Cl)C(=O)CC1",
        "Molecular Formula": "C<sub>4</sub>H<sub>4</sub>ClNO<sub>2</sub>",
        "Molecular Mass": "133.53",
        "Boiling Point": "216.5 °C",
        "Melting Point": "150-151 °C",
        "Density": "1.65 g/cm³"
    }
}