{
    "cas_no": "885681-96-9",
    "key_name": "4-Bromo-1-(bromomethyl)-2-iodobenzene",
    "cn_name": null,
    "alternate_name": "Benzene, 4-bromo-1-(bromomethyl)-2-iodo-;4-Bromo-1-(bromomethyl)-2-iodobenzene;4-Bromo-2-iodobenzyl bromide;4-Bromo-1-bromomethyl-2-iodobenzene",
    "duplicated_cas_no": "",
    "SMILES": "C(Br)C1=C(I)C=C(Br)C=C1",
    "meta_data": {
        "InChI": "InChI=1S/C7H5Br2I/c8-4-5-1-2-6(9)3-7(5)10/h1-3H,4H2",
        "InChIKey": null,
        "Canonical SMILES": "BrC1=CC=C(C(I)=C1)CBr",
        "Molecular Formula": "C<sub>7</sub>H<sub>5</sub>Br<sub>2</sub>I",
        "Molecular Mass": "375.83",
        "Melting Point": "91-92 °C"
    }
}