{
    "cas_no": "1118-66-7",
    "key_name": "4-Amino-3-penten-2-one",
    "cn_name": "4-氨基-3-戊烯-2-酮;",
    "alternate_name": "3-Penten-2-one, 4-amino-;4-Amino-3-penten-2-one;2-Acetyl-1-amino-1-methylethylene;2-Amino-2-penten-4-one;Acetylacetonamine;Fluoral P;2-Amino-4-oxo-2-pentene;1-Acetyl-2-amino-1-propene;2-Amino-2-pentene-4-one;NSC 44500",
    "duplicated_cas_no": "",
    "SMILES": "C(=C(C)N)C(C)=O",
    "meta_data": {
        "InChI": "InChI=1S/C5H9NO/c1-4(6)3-5(2)7/h3H,6H2,1-2H3",
        "InChIKey": null,
        "Canonical SMILES": "O=C(C=C(N)C)C",
        "Molecular Formula": "C<sub>5</sub>H<sub>9</sub>NO",
        "Molecular Mass": "99.13",
        "Boiling Point": "110-115 °C @ Press: 10 Torr",
        "Melting Point": "43 °C"
    }
}