{
    "cas_no": "76-37-9",
    "key_name": "2,2,3,3-Tetrafluoro-1-propanol",
    "cn_name": "2,2,3,3-四氟丙醇;",
    "alternate_name": "1-Propanol, 2,2,3,3-tetrafluoro-;2,2,3,3-Tetrafluoro-1-propanol;2,2,3,3-Tetrafluoropropyl alcohol;1,1,3-Trihydroperfluoro-1-propanol;1,1,2,2-Tetrafluoro-3-hydroxypropane;2,2,3,3-Tetrafluoropropanol-1;1<em>H</em>,1<em>H</em>,3<em>H</em>-Tetrafluoro-1-propanol;α,α,ω-Trihydroperfluoropropanol;1-Hydroxy-2,2,3,3-tetrafluoropropane;NSC 113;1<em>H</em>,1<em>H</em>,3<em>H</em>-Perfluoropropanol",
    "duplicated_cas_no": "",
    "SMILES": "C(C(F)F)(CO)(F)F",
    "meta_data": {
        "InChI": "InChI=1S/C3H4F4O/c4-2(5)3(6,7)1-8/h2,8H,1H2",
        "InChIKey": null,
        "Canonical SMILES": "FC(F)C(F)(F)CO",
        "Molecular Formula": "C<sub>3</sub>H<sub>4</sub>F<sub>4</sub>O",
        "Molecular Mass": "132.06",
        "Boiling Point": "109.5 °C",
        "Melting Point": "-15 °C"
    }
}