{
    "cas_no": "138402-10-5",
    "key_name": "2-Butyl-3-[[2′-[1-(triphenylmethyl)-1<em>H</em>-tetrazol-5-yl][1,1′-biphenyl]-4-yl]methyl]-1,3-diazaspiro[4.4]non-1-en-4-one",
    "cn_name": "三苯甲基厄贝沙坦;三苯甲基依贝沙坦;",
    "alternate_name": "1,3-Diazaspiro[4.4]non-1-en-4-one, 2-butyl-3-[[2′-[1-(triphenylmethyl)-1<em>H</em>-tetrazol-5-yl][1,1′-biphenyl]-4-yl]methyl]-;2-Butyl-3-[[2′-[1-(triphenylmethyl)-1<em>H</em>-tetrazol-5-yl][1,1′-biphenyl]-4-yl]methyl]-1,3-diazaspiro[4.4]non-1-en-4-one;2-Butyl-3-[[4-[2-(1-trityltetrazol-5-yl)phenyl]phenyl]methyl]-1,3-diazaspiro[4.4]non-1-en-4-one",
    "duplicated_cas_no": "1146542-23-5",
    "SMILES": "C(N1C(=NN=N1)C2=C(C=CC=C2)C3=CC=C(CN4C(=O)C5(N=C4CCCC)CCCC5)C=C3)(C6=CC=CC=C6)(C7=CC=CC=C7)C8=CC=CC=C8",
    "meta_data": {
        "InChI": "InChI=1S/C44H42N6O/c1-2-3-25-40-45-43(30-15-16-31-43)42(51)49(40)32-33-26-28-34(29-27-33)38-23-13-14-24-39(38)41-46-47-48-50(41)44(35-17-7-4-8-18-35,36-19-9-5-10-20-36)37-21-11-6-12-22-37/h4-14,17-24,26-29H,2-3,15-16,25,30-32H2,1H3",
        "InChIKey": null,
        "Canonical SMILES": "O=C1N(C(=NC12CCCC2)CCCC)CC=3C=CC(=CC3)C=4C=CC=CC4C5=NN=NN5C(C=6C=CC=CC6)(C=7C=CC=CC7)C=8C=CC=CC8",
        "Molecular Formula": "C<sub>44</sub>H<sub>42</sub>N<sub>6</sub>O",
        "Molecular Mass": "670.84",
        "Melting Point": "109 °C"
    }
}