{
    "cas_no": "1194-02-1",
    "key_name": "4-Fluorobenzonitrile",
    "cn_name": "对氟苯甲腈;4-氟苯甲腈;对氟苯腈;",
    "alternate_name": "Benzonitrile, 4-fluoro-;Benzonitrile, <em>p</em>-fluoro-;4-Fluorobenzonitrile;<em>p</em>-Fluorobenzonitrile;<em>p</em>-Cyanofluorobenzene;1-Cyano-4-fluorobenzene;4-Fluorocyanobenzene;4-Cyanofluorobenzene;<em>p</em>-Fluorophenyl cyanide;NSC 88330;Para-fluorobenzonitrile",
    "duplicated_cas_no": "",
    "SMILES": "C(#N)C1=CC=C(F)C=C1",
    "meta_data": {
        "InChI": "InChI=1S/C7H4FN/c8-7-3-1-6(5-9)2-4-7/h1-4H",
        "InChIKey": null,
        "Canonical SMILES": "N#CC1=CC=C(F)C=C1",
        "Molecular Formula": "C<sub>7</sub>H<sub>4</sub>FN",
        "Molecular Mass": "121.11",
        "Boiling Point": "188.8 °C",
        "Melting Point": "34.8 °C",
        "Density": "1.32 g/cm³"
    }
}