{
    "cas_no": "110-65-6",
    "key_name": "2-Butyne-1,4-diol",
    "cn_name": "丁炔二醇;1,4-丁炔二醇;1,4-二羟基-2-丁炔;BOZ;",
    "alternate_name": "2-Butyne-1,4-diol;1,4-Butynediol;Butynediol;Bis(hydroxymethyl)acetylene;2-Butynediol;1,4-Dihydroxy-2-butyne;NSC 834",
    "duplicated_cas_no": "",
    "SMILES": "C(#CCO)CO",
    "meta_data": {
        "InChI": "InChI=1S/C4H6O2/c5-3-1-2-4-6/h5-6H,3-4H2",
        "InChIKey": null,
        "Canonical SMILES": "OCC#CCO",
        "Molecular Formula": "C<sub>4</sub>H<sub>6</sub>O<sub>2</sub>",
        "Molecular Mass": "86.09",
        "Boiling Point": "238 °C @ Press: 760 Torr",
        "Melting Point": "58 °C"
    }
}