{
    "cas_no": "112-77-6",
    "key_name": "Oleoyl chloride",
    "cn_name": null,
    "alternate_name": "9-Octadecenoyl chloride, (9<em>Z</em>)-;Oleoyl chloride;9-Octadecenoyl chloride, (<em>Z</em>)-;(9<em>Z</em>)-9-Octadecenoyl chloride;Oleyl chloride;Oleic acid chloride;<em>cis</em>-9-Octadecenoyl chloride;(<em>Z</em>)-9-Octadecenoyl chloride;Oleic chloride;9-(<em>Z</em>)-Octadecen-1-oyl chloride",
    "duplicated_cas_no": "",
    "SMILES": "C(C/C=C\\CCCCCCCC)CCCCCC(Cl)=O",
    "meta_data": {
        "InChI": "InChI=1S/C18H33ClO/c1-2-3-4-5-6-7-8-9-10-11-12-13-14-15-16-17-18(19)20/h9-10H,2-8,11-17H2,1H3/b10-9-",
        "InChIKey": null,
        "Canonical SMILES": "O=C(Cl)CCCCCCCC=CCCCCCCCC",
        "Molecular Formula": "C<sub>18</sub>H<sub>33</sub>ClO",
        "Molecular Mass": "300.91",
        "Boiling Point": "158-159 °C @ Press: 0.05 Torr"
    }
}