{
    "cas_no": "51746-85-1",
    "key_name": "3-(1<em>H</em>-Imidazol-5-yl)pyridine",
    "cn_name": "3-(1H-咪唑-4-基)吡啶;",
    "alternate_name": "Pyridine, 3-(1<em>H</em>-imidazol-5-yl)-;Pyridine, 3-(1<em>H</em>-imidazol-4-yl)-;3-(1<em>H</em>-Imidazol-5-yl)pyridine;4-(3-Pyridyl)imidazole;3-(4-Imidazolyl)pyridine;3-(1<em>H</em>-Imidazol-4-yl)pyridine;5-[Pyridin-3-yl]imidazole",
    "duplicated_cas_no": "792934-55-5",
    "SMILES": "C1(=CN=CN1)C=2C=CC=NC2",
    "meta_data": {
        "InChI": "InChI=1S/C8H7N3/c1-2-7(4-9-3-1)8-5-10-6-11-8/h1-6H,(H,10,11)",
        "InChIKey": null,
        "Canonical SMILES": "N=1C=CC=C(C1)C2=CN=CN2",
        "Molecular Formula": "C<sub>8</sub>H<sub>7</sub>N<sub>3</sub>",
        "Molecular Mass": "145.16",
        "Melting Point": "108 °C"
    }
}