{
    "cas_no": "1151-15-1",
    "key_name": "2-(4-Methoxybenzoyl)benzoic acid",
    "cn_name": null,
    "alternate_name": "Benzoic acid, 2-(4-methoxybenzoyl)-;Benzoic acid, <em>o</em>-(<em>p</em>-anisoyl)-;2-(4-Methoxybenzoyl)benzoic acid;<em>o</em>-(<em>p</em>-Anisoyl)benzoic acid;<em>o</em>-(4-Methoxybenzoyl)benzoic acid;S 23/46;4′-Methoxy-2-benzoylbenzoic acid;NSC 28925;2-(4-Methoxybenzoyl)benzenecarboxylic acid",
    "duplicated_cas_no": "",
    "SMILES": "C(=O)(C1=C(C(O)=O)C=CC=C1)C2=CC=C(OC)C=C2",
    "meta_data": {
        "InChI": "InChI=1S/C15H12O4/c1-19-11-8-6-10(7-9-11)14(16)12-4-2-3-5-13(12)15(17)18/h2-9H,1H3,(H,17,18)",
        "InChIKey": null,
        "Canonical SMILES": "O=C(O)C=1C=CC=CC1C(=O)C2=CC=C(OC)C=C2",
        "Molecular Formula": "C<sub>15</sub>H<sub>12</sub>O<sub>4</sub>",
        "Molecular Mass": "256.25",
        "Melting Point": "146 °C"
    }
}