{
    "cas_no": "32449-92-6",
    "key_name": "Glucuronolactone",
    "cn_name": "葡萄糖醛酸-gamma-内酯;葡醛内酯;",
    "alternate_name": "<span class=\"text-smallcaps\">D</span>-Glucuronic acid, γ-lactone;Glucuronic acid, γ-lactone, <span class=\"text-smallcaps\">D</span>-;Glucurone;Glucuronolactone;Glucurolactone;<span class=\"text-smallcaps\">D</span>-Glucuronolactone;<span class=\"text-smallcaps\">D</span>-Glucurono-γ-lactone;<span class=\"text-smallcaps\">D</span>-Glucurono-6,3-lactone;Glucuronic acid γ-lactone;Glucoxy;Guronsan;Dicurone;Glycurone;Reulatt S.S.;Glucuronosan;<span class=\"text-smallcaps\">D</span>-Glucurono-3,6-lactone;<span class=\"text-smallcaps\">D</span>-Glucuronic acid lactone;<span class=\"text-smallcaps\">D</span>-Glucofuranurono-6,3-lactone;Glucurono-6,3-lactone;NSC 656;<span class=\"text-smallcaps\">D</span>-Glucuronic acid γ-lactone",
    "duplicated_cas_no": "4214-08-8;6814-06-8;10030-64-5;3428-13-5",
    "SMILES": "[C@@H](C=O)(O)[C@@]1([C@H](O)[C@H](O)C(=O)O1)[H]",
    "meta_data": {
        "InChI": "InChI=1S/C6H8O6/c7-1-2(8)5-3(9)4(10)6(11)12-5/h1-5,8-10H/t2-,3+,4-,5+/m0/s1",
        "InChIKey": null,
        "Canonical SMILES": "O=CC(O)C1OC(=O)C(O)C1O",
        "Molecular Formula": "C<sub>6</sub>H<sub>8</sub>O<sub>6</sub>",
        "Molecular Mass": "176.12",
        "Melting Point": "177.5 °C",
        "Density": "1.75 g/cm³ @ Temp: 25 °C"
    }
}