{
    "cas_no": "137-58-6",
    "key_name": "Lidocaine",
    "cn_name": "利多卡因;N-二乙基乙酰基-2,6-二甲基苯胺;",
    "alternate_name": "Acetamide, 2-(diethylamino)-<em>N</em>-(2,6-dimethylphenyl)-;2′,6′-Acetoxylidide, 2-(diethylamino)-;2-(Diethylamino)-<em>N</em>-(2,6-dimethylphenyl)acetamide;α-Diethylamino-2,6-acetoxylidide;2-(Diethylamino)-2′,6′-acetoxylidide;Isicaine;Leostesin;Lidocaine;Lignocaine;Maricaine;Rucaina;Xycaine;Xylocaine;Xylocitin;Duncaine;Xylestesin;Anestacon;Solcain;Xylocain;Isicaina;Xilina;Xyline;Remicaine;Medicaine;Jetocaine;Lidoderm;Cuivasil;Dalcaine;Solarcaine;Lida-Mantle;NSC 40030;Lidocadren;Esracaine;Penles;LMX;ELA-Max;Aritmal;Trachisan;Linisol;Xylovet;Versatis;Xybrex;LidoPosterine;Lidocain;Anesta;PSD 597;MeSH ID: D008012",
    "duplicated_cas_no": "8059-42-5;8059-66-3;91484-71-8",
    "SMILES": "N(C(CN(CC)CC)=O)C1=C(C)C=CC=C1C",
    "meta_data": {
        "InChI": "InChI=1S/C14H22N2O/c1-5-16(6-2)10-13(17)15-14-11(3)8-7-9-12(14)4/h7-9H,5-6,10H2,1-4H3,(H,15,17)",
        "InChIKey": null,
        "Canonical SMILES": "O=C(NC=1C(=CC=CC1C)C)CN(CC)CC",
        "Molecular Formula": "C<sub>14</sub>H<sub>22</sub>N<sub>2</sub>O",
        "Molecular Mass": "234.34",
        "Boiling Point": "159-160 °C @ Press: 2 Torr",
        "Melting Point": "68.5 °C",
        "Density": "1.026 g/cm³"
    }
}