{
    "cas_no": "3844-94-8",
    "key_name": "1-Hexyn-1-yltrimethylsilane",
    "cn_name": "1-三甲基硅基-1-己炔;1-三甲基硅烷-1-己炔;",
    "alternate_name": "Silane, 1-hexyn-1-yltrimethyl-;Silane, 1-hexynyltrimethyl-;1-Hexyn-1-yltrimethylsilane;1-(Trimethylsilyl)-1-hexyne;Butyl(trimethylsilyl)acetylene;1-(Trimethylsilyl)-2-butylacetylene;1-Hexynyltrimethylsilane;1-Butyl-2-trimethylsilylacetylene",
    "duplicated_cas_no": "",
    "SMILES": "C(#C[Si](C)(C)C)CCCC",
    "meta_data": {
        "InChI": "InChI=1S/C9H18Si/c1-5-6-7-8-9-10(2,3)4/h5-7H2,1-4H3",
        "InChIKey": null,
        "Canonical SMILES": "C(#C[Si](C)(C)C)CCCC",
        "Molecular Formula": "C<sub>9</sub>H<sub>18</sub>Si",
        "Molecular Mass": "154.32",
        "Boiling Point": "155 °C",
        "Density": "0.770 g/cm³"
    }
}