{
    "cas_no": "1965-09-9",
    "key_name": "4,4′-Dihydroxydiphenyl ether",
    "cn_name": "4,4\"-二羟基二苯醚;对羟基联苯醚;",
    "alternate_name": "Phenol, 4,4′-oxybis-;Phenol, 4,4′-oxydi-;Phenol, <em>p</em>,<em>p</em>′-oxydi-;Phenol, <em>p</em>,<em>p</em>′-oxybis-;4,4′-Oxybis[phenol];4,4′-Dihydroxydiphenyl ether;Bis(<em>p</em>-hydroxyphenyl) ether;<em>p</em>-(<em>p</em>-Hydroxyphenoxy)phenol;4,4′-Dihydroxydiphenyl oxide;4,4′-Oxydiphenol;Bis(4-hydroxyphenyl) ether;<em>p</em>-Hydroxyphenyl ether;Quinol ether;Specianol DPE-H;4-(4-Hydroxyphenoxy)phenol;4,4′-Oxybiphenol;P-O-P;4,4′-Bisphenol ether;Di(4-hydroxyphenyl) ether",
    "duplicated_cas_no": "",
    "SMILES": "O(C1=CC=C(O)C=C1)C2=CC=C(O)C=C2",
    "meta_data": {
        "InChI": "InChI=1S/C12H10O3/c13-9-1-5-11(6-2-9)15-12-7-3-10(14)4-8-12/h1-8,13-14H",
        "InChIKey": null,
        "Canonical SMILES": "OC1=CC=C(OC2=CC=C(O)C=C2)C=C1",
        "Molecular Formula": "C<sub>12</sub>H<sub>10</sub>O<sub>3</sub>",
        "Molecular Mass": "202.21",
        "Melting Point": "160 °C"
    }
}