{
    "cas_no": "1716-42-3",
    "key_name": "1-(3-Chloropropoxy)-4-fluorobenzene",
    "cn_name": "1-(3-氯丙氧基)-4-氟苯;",
    "alternate_name": "Benzene, 1-(3-chloropropoxy)-4-fluoro-;Ether, 3-chloropropyl <em>p</em>-fluorophenyl;1-(3-Chloropropoxy)-4-fluorobenzene;1-Chloro-3-(<em>p</em>-fluorophenoxy)propane;1-Chloro-3-(4-fluorophenoxy)propane;3-(<em>p</em>-Fluorophenoxy)propyl chloride;3-Chloropropyl 4-fluorophenyl ether;4-(3-Chloropropoxy)-1-fluorobenzene;3-(4-Fluorophenoxy)propyl chloride",
    "duplicated_cas_no": "",
    "SMILES": "O(CCCCl)C1=CC=C(F)C=C1",
    "meta_data": {
        "InChI": "InChI=1S/C9H10ClFO/c10-6-1-7-12-9-4-2-8(11)3-5-9/h2-5H,1,6-7H2",
        "InChIKey": null,
        "Canonical SMILES": "FC1=CC=C(OCCCCl)C=C1",
        "Molecular Formula": "C<sub>9</sub>H<sub>10</sub>ClFO",
        "Molecular Mass": "188.63",
        "Boiling Point": "130-133 °C @ Press: 15 Torr",
        "Density": "1.2519 g/cm³ @ Temp: 20 °C"
    }
}