{
    "cas_no": "133-06-2",
    "key_name": "Captan",
    "cn_name": "克菌丹;盖普丹;N-(三氯甲硫基)-环己-4-烯-1,2-二甲酰亚胺;",
    "alternate_name": "1<em>H</em>-Isoindole-1,3(2<em>H</em>)-dione, 3a,4,7,7a-tetrahydro-2-[(trichloromethyl)thio]-;4-Cyclohexene-1,2-dicarboximide, <em>N</em>-[(trichloromethyl)thio]-;3a,4,7,7a-Tetrahydro-2-[(trichloromethyl)thio]-1<em>H</em>-isoindole-1,3(2<em>H</em>)-dione;SR 406;Amercide;Captan;Flit 406;Fungus Ban Type II;Orthocide 7.5;Orthocide 406;Orthocide;Stauffer captan;<em>N</em>-Trichloromethylmercapto-4-cyclohexene-1,2-dicarboximide;<em>N</em>-[(Trichloromethyl)thio]-4-cyclohexene-1,2-dicarboximide;<em>N</em>-[(Trichloromethyl)thio]tetrahydrophthalimide;<em>N</em>-Trichloromethylthio-3a,4,7,7a-tetrahydrophthalimide;Vancide 89;Vangard K;Esso fungicide 406;Malipur;Captan 50W;Neracid;Captaf 85W;Orthocide 50;Glyodex 37-22;Vancide 89RE;N-Trichloromethylthio-4-cyclohexene-1,2-dicarboximide;Orthocide 75;Orthocide 83;Aacaptan;Kaptan;Captaf;Captex;Merpan;Hexacap;<em>N</em>-[(Trichloromethyl)thio]-Δ<sup>4</sup>-tetrahydrophthalimide;Osocide;Bangton;Trimegol;Rallis captaf;Buvisild K;Captadin;Deltan;Radocaptan;Captab;Orthocide 75W;Orthocide S 50;Orthocide 83RP;Kaptazor;Zenecal;Bangtan;Ugecap 83;Ugecap;NSC 36726;Captan 4L;Venturin;Micro-Chek 12;Crystal 50;Crystal 50 WDG;Captan 50WP;Kaptan 50WP;Kejundan;Captan 80WDG;2-[(Trichloromethyl)sulfanyl]-2,3,3a,4,7,7a-hexahydro-1<em>H</em>-isoindole-1,3-dione;Merpan 80WDG;Merpan 480SC;MeSH ID: D002215",
    "duplicated_cas_no": "120528-25-8;1321-42-2;37335-15-2",
    "SMILES": "S(C(Cl)(Cl)Cl)N1C(=O)C2C(C1=O)CC=CC2",
    "meta_data": {
        "InChI": "InChI=1S/C9H8Cl3NO2S/c10-9(11,12)16-13-7(14)5-3-1-2-4-6(5)8(13)15/h1-2,5-6H,3-4H2",
        "InChIKey": null,
        "Canonical SMILES": "O=C1N(SC(Cl)(Cl)Cl)C(=O)C2CC=CCC12",
        "Molecular Formula": "C<sub>9</sub>H<sub>8</sub>Cl<sub>3</sub>NO<sub>2</sub>S",
        "Molecular Mass": "300.59",
        "Melting Point": "178 °C",
        "Density": "1.74 g/cm³"
    }
}