{
    "cas_no": "609-54-1",
    "key_name": "2,5-Dimethylbenzenesulfonic acid",
    "cn_name": "2,5-二甲苯磺酸(二水物);",
    "alternate_name": "Benzenesulfonic acid, 2,5-dimethyl-;2,5-Xylenesulfonic acid;2,5-Dimethylbenzenesulfonic acid;<em>p</em>-Xylene-2-sulfonic acid;<em>p</em>-Xylenesulfonic acid;2,5-Dimethylbenzene-1-sulfonic acid",
    "duplicated_cas_no": "81789-92-6",
    "SMILES": "S(=O)(=O)(O)C1=C(C)C=CC(C)=C1",
    "meta_data": {
        "InChI": "InChI=1S/C8H10O3S/c1-6-3-4-7(2)8(5-6)12(9,10)11/h3-5H,1-2H3,(H,9,10,11)",
        "InChIKey": null,
        "Canonical SMILES": "O=S(=O)(O)C1=CC(=CC=C1C)C",
        "Molecular Formula": "C<sub>8</sub>H<sub>10</sub>O<sub>3</sub>S",
        "Molecular Mass": "186.23",
        "Melting Point": "86 °C"
    }
}