{
    "cas_no": "538-74-9",
    "key_name": "Dibenzyl sulfide",
    "cn_name": null,
    "alternate_name": "Benzene, 1,1′-[thiobis(methylene)]bis-;Benzyl sulfide;1,1′-[Thiobis(methylene)]bis[benzene];Dibenzyl monosulfide;Dibenzyl sulfide;Benzyl thioether;Benzyl monosulfide;Dibenzyl thioether;((Benzylthio)methyl)benzene;NSC 212544;NSC 6648;Benzyl phenylmethyl sulfide",
    "duplicated_cas_no": "",
    "SMILES": "C(SCC1=CC=CC=C1)C2=CC=CC=C2",
    "meta_data": {
        "InChI": "InChI=1S/C14H14S/c1-3-7-13(8-4-1)11-15-12-14-9-5-2-6-10-14/h1-10H,11-12H2",
        "InChIKey": null,
        "Canonical SMILES": "S(CC=1C=CC=CC1)CC=2C=CC=CC2",
        "Molecular Formula": "C<sub>14</sub>H<sub>14</sub>S",
        "Molecular Mass": "214.33",
        "Boiling Point": "111-115 °C @ Press: 0.3 Torr",
        "Melting Point": "49.5 °C",
        "Density": "1.0583 g/cm³ @ Temp: 50 °C"
    }
}