{
    "cas_no": "375-84-8",
    "key_name": "2,2,3,3,4,4,5,5,6,6,7,7,7-Tridecafluoroheptanoyl fluoride",
    "cn_name": null,
    "alternate_name": "Heptanoyl fluoride, 2,2,3,3,4,4,5,5,6,6,7,7,7-tridecafluoro-;Heptanoyl fluoride, tridecafluoro-;2,2,3,3,4,4,5,5,6,6,7,7,7-Tridecafluoroheptanoyl fluoride;(Perfluorohexyl)carbonyl fluoride;Perfluoroheptanoyl fluoride",
    "duplicated_cas_no": "1894-91-3",
    "SMILES": "C(C(C(C(F)(F)F)(F)F)(F)F)(C(C(C(F)=O)(F)F)(F)F)(F)F",
    "meta_data": {
        "InChI": "InChI=1S/C7F14O/c8-1(22)2(9,10)3(11,12)4(13,14)5(15,16)6(17,18)7(19,20)21",
        "InChIKey": null,
        "Canonical SMILES": "O=C(F)C(F)(F)C(F)(F)C(F)(F)C(F)(F)C(F)(F)C(F)(F)F",
        "Molecular Formula": "C<sub>7</sub>F<sub>14</sub>O",
        "Molecular Mass": "366.05",
        "Boiling Point": "78-80 °C",
        "Density": "1.7280 g/cm³ @ Temp: 25 °C"
    }
}