{
    "cas_no": "5558-67-8",
    "key_name": "α-Methyl-α-phenylbenzeneacetonitrile",
    "cn_name": "2,2-二苯基丙腈;",
    "alternate_name": "Benzeneacetonitrile, α-methyl-α-phenyl-;Propionitrile, 2,2-diphenyl-;α-Methyl-α-phenylbenzeneacetonitrile;2,2-Diphenylpropionitrile;1,1-Diphenylethyl cyanide;NSC 62703;2,2-Diphenylpropanenitrile",
    "duplicated_cas_no": "",
    "SMILES": "C(C#N)(C)(C1=CC=CC=C1)C2=CC=CC=C2",
    "meta_data": {
        "InChI": "InChI=1S/C15H13N/c1-15(12-16,13-8-4-2-5-9-13)14-10-6-3-7-11-14/h2-11H,1H3",
        "InChIKey": null,
        "Canonical SMILES": "N#CC(C=1C=CC=CC1)(C=2C=CC=CC2)C",
        "Molecular Formula": "C<sub>15</sub>H<sub>13</sub>N",
        "Molecular Mass": "207.27",
        "Boiling Point": "310-313 °C",
        "Density": "1.0671 g/cm³ @ Temp: 20 °C"
    }
}