{
    "cas_no": "55512-33-9",
    "key_name": "Pyridate",
    "cn_name": "哒草特;O-(6-氯-3-苯基哒嗪-4-基)-S-辛基硫代碳酸酯;",
    "alternate_name": "Carbonothioic acid, <em>O</em>-(6-chloro-3-phenyl-4-pyridazinyl) <em>S</em>-octyl ester;CL 11344;Fenpyrate;Lentagran;Pyridate;Pl 3419;<em>O</em>-(3-Phenyl-6-chloropyridazin-4-yl) octylthiocarbonate;Tough;Lentagran WP;Pyridate 600EC;Dacaote",
    "duplicated_cas_no": "",
    "SMILES": "O(C(SCCCCCCCC)=O)C1=C(N=NC(Cl)=C1)C2=CC=CC=C2",
    "meta_data": {
        "InChI": "InChI=1S/C19H23ClN2O2S/c1-2-3-4-5-6-10-13-25-19(23)24-16-14-17(20)21-22-18(16)15-11-8-7-9-12-15/h7-9,11-12,14H,2-6,10,13H2,1H3",
        "InChIKey": null,
        "Canonical SMILES": "O=C(OC=1C=C(Cl)N=NC1C2=CC=CC=C2)SCCCCCCCC",
        "Molecular Formula": "C<sub>19</sub>H<sub>23</sub>ClN<sub>2</sub>O<sub>2</sub>S",
        "Molecular Mass": "378.92",
        "Boiling Point": "220 °C",
        "Melting Point": "27 °C"
    }
}