{
    "cas_no": "10102-43-9",
    "key_name": "Nitric oxide",
    "cn_name": null,
    "alternate_name": "Nitrogen oxide (NO);Nitric oxide;Nitrogen monoxide;Nitrogen monooxide;Nitric oxide (NO);Nitrosyl radical;Nitrogen oxide (N<sub>4</sub>O<sub>4</sub>);Nitric oxide trimer;Amidogen, oxo-;Nitrogen(II) oxide;OHM 11771;INOmax;INOvent;R-107;Genosyl;MeSH ID: D009569",
    "duplicated_cas_no": "51005-20-0;51005-21-1;53851-19-7;90452-29-2",
    "SMILES": "",
    "meta_data": {
        "InChI": "",
        "InChIKey": null,
        "Canonical SMILES": "",
        "Molecular Formula": "NO",
        "Molecular Mass": "",
        "Boiling Point": "-151.74 °C",
        "Melting Point": "-163.6 °C",
        "Density": "1.269 g/cm³"
    }
}