{
    "cas_no": "2550-40-5",
    "key_name": "Dicyclohexyl disulfide",
    "cn_name": "二环己基二硫化物;环己基二硫;",
    "alternate_name": "Disulfide, dicyclohexyl;Cyclohexyl disulfide;Dicyclohexyl disulfide;Bis(cyclohexyl) disulfide;(Cyclohexyldisulfanyl)cyclohexane;1,2-Dicyclohexyldisulfane",
    "duplicated_cas_no": "",
    "SMILES": "S(SC1CCCCC1)C2CCCCC2",
    "meta_data": {
        "InChI": "InChI=1S/C12H22S2/c1-3-7-11(8-4-1)13-14-12-9-5-2-6-10-12/h11-12H,1-10H2",
        "InChIKey": null,
        "Canonical SMILES": "S(SC1CCCCC1)C2CCCCC2",
        "Molecular Formula": "C<sub>12</sub>H<sub>22</sub>S<sub>2</sub>",
        "Molecular Mass": "230.43",
        "Boiling Point": "100 °C @ Press: 1 x 10<sup>-3</sup> Torr",
        "Melting Point": "127-130 °C",
        "Density": "1.0457 g/cm³ @ Temp: 20 °C"
    }
}