{
    "cas_no": "81721-87-1",
    "key_name": "6-Nitro-4<em>H</em>-benzo[1,4]oxazin-3-one",
    "cn_name": null,
    "alternate_name": "2<em>H</em>-1,4-Benzoxazin-3(4<em>H</em>)-one, 6-nitro-;6-Nitro-2<em>H</em>-1,4-benzoxazin-3(4<em>H</em>)-one;6-Nitro-4<em>H</em>-benzo[1,4]oxazin-3-one;6-Nitro-2<em>H</em>-benzo[<em>b</em>][1,4]oxazin-3(4<em>H</em>)-one",
    "duplicated_cas_no": "",
    "SMILES": "N(=O)(=O)C=1C=C2C(=CC1)OCC(=O)N2",
    "meta_data": {
        "InChI": "InChI=1S/C8H6N2O4/c11-8-4-14-7-2-1-5(10(12)13)3-6(7)9-8/h1-3H,4H2,(H,9,11)",
        "InChIKey": null,
        "Canonical SMILES": "O=C1NC2=CC(=CC=C2OC1)N(=O)=O",
        "Molecular Formula": "C<sub>8</sub>H<sub>6</sub>N<sub>2</sub>O<sub>4</sub>",
        "Molecular Mass": "194.14",
        "Melting Point": "96-98 °C"
    }
}