{
    "cas_no": "101-72-4",
    "key_name": "Antioxidant 4010NA",
    "cn_name": "橡胶防老剂4010NA;N-异丙基-N\"-苯基对苯二胺;",
    "alternate_name": "1,4-Benzenediamine, <em>N</em><sup>1</sup>-(1-methylethyl)-<em>N</em><sup>4</sup>-phenyl-;<em>p</em>-Phenylenediamine, <em>N</em>-isopropyl-<em>N</em>′-phenyl-;1,4-Benzenediamine, <em>N</em>-(1-methylethyl)-<em>N</em>′-phenyl-;<em>N</em><sup>1</sup>-(1-Methylethyl)-<em>N</em><sup>4</sup>-phenyl-1,4-benzenediamine;Cyzone IP;4-(Isopropylamino)diphenylamine;<em>N</em>-Isopropyl-<em>N</em>′-phenyl-<em>p</em>-phenylenediamine;Nonox ZA;<em>N</em>-2-Propyl-<em>N</em>′-phenyl-<em>p</em>-phenylenediamine;Santoflex 36;4010NA;Diafen FP;<em>N</em>-Phenyl-<em>N</em><sup>1</sup>-isopropyl-<em>p</em>-phenylenediamine;Santoflex IP;Antioxidant IP;Ipognox 44;Antioxidant 4010NA;<em>N</em>-Isopropyl-<em>N</em>′-phenyl-<em>p</em>-phenyldiamine;<em>N</em>-Phenyl-<em>N</em>′-isopropyl-<em>p</em>-phenylenediamine;Flexzone 3C;<em>p</em>-(Isopropylamino)diphenylamine;ASM 4010MA;Permanax 115;Orflex PP;Antioxidant 40NA;<em>N</em>-Isopropyl-<em>N</em>′-phenyl-1,4-phenylenediamine;Diaphen FP;4-Anilino-<em>N</em>-isopropylaniline;<em>N</em>-Phenyl-<em>N</em>′-isopropyl-1,4-phenylenediamine;Antigene 3C;Antigen 3C;Nocrac 810NA;Accinox ZA;Vulkanox 4010NA;NA 4010;IPPD;810NA;Naugard I 4;Vulkanox 4020NA;Permanax IPPD;Diafen PP;Dusantox IPPD;Antioxidant CD;AO-CD;Santoflex IPPD;Nocrac 3C;Antage 3C;NSC 41029;<em>N</em>-(1-Methylethyl)-<em>N</em>′-phenyl-1,4-benzenediamine;Vulkanox 4010NA-LG;Nocrac 810MA;Flexzone 3P;Diaphene FP;4-Isopropylamino-1-phenylaminobenzene;<em>N</em>-Isopropyl-<em>N</em>′-phenyl-1,4-benzenediamine;Ozonone 3C;N 1040;<em>N</em>-Isopropyl-<em>N</em>′-phenyl-4-phenylenediamine;Vulkanox 4010A;<em>N</em>-Isopropyl-<em>N</em>′-phenyl-<em>p</em>-phenylendiamine;Vulkanox 4010;4010A;Antiozonant PD 1;PD 1;Antioxidant 4010A;Antioxidant 3C;<em>N</em>-Phenyl-<em>N</em>′-isopropyl-<em>p</em>-phenylanediamine;Antioxidant IPPD;1-<em>N</em>-Phenyl-4-<em>N</em>-(propan-2-yl)benzene-1,4-diamine;1-<em>N</em>-Phenyl-4-<em>N</em>-propan-2-ylbenzene-1,4-diamine;Pilflex IP;Luvomaxx IPPD;Rhenogran IPPD 80;Nobang 3C",
    "duplicated_cas_no": "12771-90-3;59792-63-1;87133-56-0;121889-80-3;2812398-60-8",
    "SMILES": "N(C1=CC=C(NC(C)C)C=C1)C2=CC=CC=C2",
    "meta_data": {
        "InChI": "InChI=1S/C15H18N2/c1-12(2)16-14-8-10-15(11-9-14)17-13-6-4-3-5-7-13/h3-12,16-17H,1-2H3",
        "InChIKey": null,
        "Canonical SMILES": "C=1C=CC(=CC1)NC2=CC=C(C=C2)NC(C)C",
        "Molecular Formula": "C<sub>15</sub>H<sub>18</sub>N<sub>2</sub>",
        "Molecular Mass": "226.32",
        "Boiling Point": "161 °C",
        "Melting Point": "75 °C",
        "Density": "1.04 g/cm³ @ Temp: 25 °C"
    }
}