{
    "cas_no": "111-01-3",
    "key_name": "Squalane",
    "cn_name": "角鲨烷;异三十烷;2,6,10,15,19,23-六甲基二十四烷;",
    "alternate_name": "Tetracosane, 2,6,10,15,19,23-hexamethyl-;2,6,10,15,19,23-Hexamethyltetracosane;Cosbiol;Dodecahydrosqualene;Perhydrosqualene;Robane;Spinacane;Vitabiosol;Squalane;Squalan;Fitoderm;Pripure SQV 3759;Super Squalane;Nikko Squalane;Mild Finish 20P;Cetiol SQ;Squalane N;Phtyosqualan;NSC 6851;Phytosqualan;Sophim Squalane-S;SQ-CONO;Pripure 379;Pripure 3759;Phytiane LS;Phytosqualane;Biolip P 90;Phytolane LS;Nikkol Sugar Squalane;Nikkol Refined Olive Squalane;Sugar Squalane;Neossance squalene;Neossance Squalane;Plantasens Olive Squalane",
    "duplicated_cas_no": "2101721-37-1",
    "SMILES": "C(CC(CCCCC(CCCC(CCCC(C)C)C)C)C)CC(CCCC(C)C)C",
    "meta_data": {
        "InChI": "InChI=1S/C30H62/c1-25(2)15-11-19-29(7)23-13-21-27(5)17-9-10-18-28(6)22-14-24-30(8)20-12-16-26(3)4/h25-30H,9-24H2,1-8H3",
        "InChIKey": null,
        "Canonical SMILES": "CC(C)CCCC(C)CCCC(C)CCCCC(C)CCCC(C)CCCC(C)C",
        "Molecular Formula": "C<sub>30</sub>H<sub>62</sub>",
        "Molecular Mass": "422.81",
        "Boiling Point": "350 °C",
        "Melting Point": "-38 °C",
        "Density": "0.8144 g/cm³ @ Temp: 15 °C"
    }
}