{
    "cas_no": "39262-14-1",
    "key_name": "Ginsenoside K",
    "cn_name": "人参皂苷CK;",
    "alternate_name": "β-<span class=\"text-smallcaps\">D</span>-Glucopyranoside, (3β,12β)-3,12-dihydroxydammar-24-en-20-yl;(3β,12β)-3,12-Dihydroxydammar-24-en-20-yl β-<span class=\"text-smallcaps\">D</span>-glucopyranoside;20-<em>O</em>-β-<span class=\"text-smallcaps\">D</span>-Glucopyranosyl-20(<em>S</em>)-protopanaxadiol;Ginsenoside K;IH 901;Protopanaxadiol 20-<em>O</em>-glucoside;20(<em>S</em>)-Protopanaxadiol 20-<em>O</em>-<span class=\"text-smallcaps\">D</span>-glucopyranoside;Ginsenoside C-K;20-<em>O</em>-β-Glucopyranosyl-20(<em>S</em>)-protopanaxadiol;Ginsenoside compound K;20(<em>S</em>)-Protopanaxadiol 20-<em>O</em>-β-<span class=\"text-smallcaps\">D</span>-glucopyranoside;Ginsenoside IH901;Ginsenoside M<sub>1</sub>;Ginsenoside metabolite M<sub>1</sub>;Compound k;3-<em>O</em>-Deglucosylginsenoside F<sub>2</sub>;LCHK 168;20S-Protopanaxadiol 20-<em>O</em>-β-<span class=\"text-smallcaps\">D</span>-glucopyranoside;NT3 VAN SC6",
    "duplicated_cas_no": "79104-63-5;852637-00-4",
    "SMILES": "C[C@]12[C@@]([C@]3(C)[C@@](CC1)(C(C)(C)[C@@H](O)CC3)[H])(C[C@@H](O)[C@]4([C@@]2(C)CC[C@@]4([C@@](O[C@@H]5O[C@H](CO)[C@@H](O)[C@H](O)[C@H]5O)(CCC=C(C)C)C)[H])[H])[H]",
    "meta_data": {
        "InChI": "InChI=1S/C36H62O8/c1-20(2)10-9-14-36(8,44-31-30(42)29(41)28(40)23(19-37)43-31)21-11-16-35(7)27(21)22(38)18-25-33(5)15-13-26(39)32(3,4)24(33)12-17-34(25,35)6/h10,21-31,37-42H,9,11-19H2,1-8H3/t21-,22+,23+,24-,25+,26-,27-,28+,29-,30+,31-,33-,34+,35+,36-/m0/s1",
        "InChIKey": null,
        "Canonical SMILES": "OCC1OC(OC(C)(CCC=C(C)C)C2CCC3(C)C2C(O)CC4C5(C)CCC(O)C(C)(C)C5CCC43C)C(O)C(O)C1O",
        "Molecular Formula": "C<sub>36</sub>H<sub>62</sub>O<sub>8</sub>",
        "Molecular Mass": "622.87",
        "Melting Point": "181-183 °C"
    }
}