{
    "cas_no": "106-95-6",
    "key_name": "Allyl bromide",
    "cn_name": "3-溴丙烯;烯丙基溴;3-溴-1-丙烯;",
    "alternate_name": "1-Propene, 3-bromo-;Propene, 3-bromo-;3-Bromo-1-propene;Allyl bromide;3-Bromopropene;3-Bromopropylene;2-Propenyl bromide;1-Bromo-2-propene;NSC 7596;1-Propene, 3-bromo-, hydrate (1:1);13125C;B 0643",
    "duplicated_cas_no": "2581909-73-9",
    "SMILES": "C(C=C)Br",
    "meta_data": {
        "InChI": "InChI=1S/C3H5Br/c1-2-3-4/h2H,1,3H2",
        "InChIKey": null,
        "Canonical SMILES": "BrCC=C",
        "Molecular Formula": "C<sub>3</sub>H<sub>5</sub>Br",
        "Molecular Mass": "120.98",
        "Boiling Point": "71.3 °C @ Press: 760 Torr",
        "Melting Point": "-119 °C",
        "Density": "1.398 g/cm³ @ Temp: 20 °C"
    }
}