{
    "cas_no": "774-55-0",
    "key_name": "6-Acetyltetralin",
    "cn_name": "6-乙酰基四氢萘;1-(5,6,7,8-四氢-2-萘)乙酮;6-乙酰基-1,2,3,4-四氢萘;5,6,7,8-四氢-2-乙酰萘酮;6-乙酰基四;",
    "alternate_name": "Ethanone, 1-(5,6,7,8-tetrahydro-2-naphthalenyl)-;2′-Acetonaphthone, 5′,6′,7′,8′-tetrahydro-;1-(5,6,7,8-Tetrahydro-2-naphthalenyl)ethanone;6-Acetyl-1,2,3,4-tetrahydronaphthalene;5,6,7,8-Tetrahydronaphth-2-yl methyl ketone;6-Acetyltetralin;1-(5,6,7,8-Tetrahydronaphthalen-2-yl)ethanone;NSC 5179;2-Acetyl-5,6,7,8-tetrahydronaphthalene;Floranton;1-(5,6,7,8-Tetrahydronaphthalen-2-yl)ethan-1-one;(1,2,3,4-Tetrahydronaphthalen-6-yl)ethan-1-one",
    "duplicated_cas_no": "",
    "SMILES": "C(C)(=O)C=1C=C2C(=CC1)CCCC2",
    "meta_data": {
        "InChI": "InChI=1S/C12H14O/c1-9(13)11-7-6-10-4-2-3-5-12(10)8-11/h6-8H,2-5H2,1H3",
        "InChIKey": null,
        "Canonical SMILES": "O=C(C1=CC=C2C(=C1)CCCC2)C",
        "Molecular Formula": "C<sub>12</sub>H<sub>14</sub>O",
        "Molecular Mass": "174.24",
        "Boiling Point": "167-169 °C @ Press: 8 Torr"
    }
}