{
    "cas_no": "374-40-3",
    "key_name": "3,3,4,4,4-Pentafluoro-2-butanol",
    "cn_name": "五氟-2-丁酯;3,3,4,4,4-五氟-2-丁醇;3,3,4,4,4-五氟丁-2-醇;",
    "alternate_name": "2-Butanol, 3,3,4,4,4-pentafluoro-;3,3,4,4,4-Pentafluoro-2-butanol;1,1,1,2,2-Pentafluorobutan-3-ol",
    "duplicated_cas_no": "",
    "SMILES": "C(C(F)(F)F)(C(C)O)(F)F",
    "meta_data": {
        "InChI": "InChI=1S/C4H5F5O/c1-2(10)3(5,6)4(7,8)9/h2,10H,1H3",
        "InChIKey": null,
        "Canonical SMILES": "FC(F)(F)C(F)(F)C(O)C",
        "Molecular Formula": "C<sub>4</sub>H<sub>5</sub>F<sub>5</sub>O",
        "Molecular Mass": "164.07",
        "Boiling Point": "84 °C",
        "Density": "1.406 g/cm³ @ Temp: 20 °C"
    }
}