{
    "cas_no": "516-37-0",
    "key_name": "Cerevisterol",
    "cn_name": null,
    "alternate_name": "Ergosta-7,22-diene-3,5,6-triol, (3β,5α,6β,22<em>E</em>)-;5α-Ergosta-7,22-diene-3β,5,6β-triol;5α-Ergosta-7,22-diene-3β,5,6-triol;(3β,5α,6β,22<em>E</em>)-Ergosta-7,22-diene-3,5,6-triol;Cerevisterol;Cerevisterin;(22<em>E</em>,24<em>R</em>)-Ergosta-7,22-diene-3β,5α,6β-triol;(22<em>E</em>)-Ergosta-7,22-diene-3β,5α,6β-triol;(22<em>E</em>,24<em>R</em>)-Ergosta-7,22-dien-3β,5α,6β-triol;Ergosta-7,22-diene-3β,5α,6β-triol;(20<em>S</em>,22<em>E</em>,24<em>R</em>)-Ergosta-7,22-dien-3β,5α,6β-triol;(3β,5α,6β)-3,5,6-Trihydroxyergosta-7,22-diene;24-Methylcholesta-7,22E-diene-3β,5α,6β-triol",
    "duplicated_cas_no": "2244768-40-7",
    "SMILES": "C[C@@]12[C@@]3(C([C@]4([C@](C)(CC3)[C@@]([C@@H](/C=C/[C@@H](C(C)C)C)C)(CC4)[H])[H])=C[C@@H](O)[C@@]1(O)C[C@@H](O)CC2)[H]",
    "meta_data": {
        "InChI": "InChI=1S/C28H46O3/c1-17(2)18(3)7-8-19(4)22-9-10-23-21-15-25(30)28(31)16-20(29)11-14-27(28,6)24(21)12-13-26(22,23)5/h7-8,15,17-20,22-25,29-31H,9-14,16H2,1-6H3/b8-7+/t18-,19+,20-,22+,23-,24-,25+,26+,27+,28-/m0/s1",
        "InChIKey": null,
        "Canonical SMILES": "OC1C=C2C3CCC(C(C=CC(C)C(C)C)C)C3(C)CCC2C4(C)CCC(O)CC14O",
        "Molecular Formula": "C<sub>28</sub>H<sub>46</sub>O<sub>3</sub>",
        "Molecular Mass": "430.66",
        "Melting Point": "&gt;240 °C"
    }
}