{
    "cas_no": "26395-26-6",
    "key_name": "3-Methoxy-2-methylpyridine",
    "cn_name": null,
    "alternate_name": "Pyridine, 3-methoxy-2-methyl-;2-Picoline, 3-methoxy-;3-Methoxy-2-methylpyridine;3-Methoxy-2-picoline",
    "duplicated_cas_no": "",
    "SMILES": "O(C)C1=C(C)N=CC=C1",
    "meta_data": {
        "InChI": "InChI=1S/C7H9NO/c1-6-7(9-2)4-3-5-8-6/h3-5H,1-2H3",
        "InChIKey": null,
        "Canonical SMILES": "N=1C=CC=C(OC)C1C",
        "Molecular Formula": "C<sub>7</sub>H<sub>9</sub>NO",
        "Molecular Mass": "123.15",
        "Boiling Point": "84-86 °C @ Press: 15 Torr"
    }
}