{
    "cas_no": "3542-44-7",
    "key_name": "Sodium 3-hydroxypropanesulfonate",
    "cn_name": "3-羟基丙烷-1-磺酸钠;",
    "alternate_name": "1-Propanesulfonic acid, 3-hydroxy-, sodium salt (1:1);1-Propanesulfonic acid, 3-hydroxy-, monosodium salt;Sodium 3-hydroxypropanesulfonate;Sodium 3-hydroxy-1-propanesulfonate;Sodium 1-hydroxy-3-propanesulfonate;Monosodium 3-hydroxypropylsulfonate;3-Hydroxypropane-1-sulfonic acid sodium salt",
    "duplicated_cas_no": "",
    "SMILES": "C(S(=O)(=O)O)CCO.[Na]",
    "meta_data": {
        "InChI": "InChI=1S/C3H8O4S.Na/c4-2-1-3-8(5,6)7;/h4H,1-3H2,(H,5,6,7);",
        "InChIKey": null,
        "Canonical SMILES": "[Na].O=S(=O)(O)CCCO",
        "Molecular Formula": "C<sub>3</sub>H<sub>8</sub>O<sub>4</sub>S.Na",
        "Molecular Mass": "",
        "Melting Point": "261 °C"
    }
}