{
    "cas_no": "4455-13-4",
    "key_name": "Ethyl (methylthio)acetate",
    "cn_name": null,
    "alternate_name": "Acetic acid, 2-(methylthio)-, ethyl ester;Acetic acid, (methylthio)-, ethyl ester;Ethyl (methylthio)acetate;Ethyl 2-methylthioacetate;NSC 165655;(Methylsulfanyl)acetic acid ethyl ester;(Methylthio)acetic acid ethyl ester;Ethyl 2-(methylsulfanyl)acetate;Ethyl methylmercapto-acetate",
    "duplicated_cas_no": "",
    "SMILES": "C(CSC)(OCC)=O",
    "meta_data": {
        "InChI": "InChI=1S/C5H10O2S/c1-3-7-5(6)4-8-2/h3-4H2,1-2H3",
        "InChIKey": null,
        "Canonical SMILES": "O=C(OCC)CSC",
        "Molecular Formula": "C<sub>5</sub>H<sub>10</sub>O<sub>2</sub>S",
        "Molecular Mass": "134.20",
        "Boiling Point": "62 °C @ Press: 13 Torr"
    }
}