{
    "cas_no": "533-23-3",
    "key_name": "Ethyl 2,4-dichlorophenoxyacetate",
    "cn_name": "2,4-滴酸乙酯;2,4-滴乙酯;2,4-二氯苯氧乙酸乙酯;",
    "alternate_name": "Acetic acid, 2-(2,4-dichlorophenoxy)-, ethyl ester;Acetic acid, (2,4-dichlorophenoxy)-, ethyl ester;Ethyl 2,4-dichlorophenoxyacetate;Weedone 40;2,4-D ethyl ester;Dicotox;Weedone Concentrate 48;Ethyl 2-(2,4-dichlorophenoxy)acetate;2,4-DEE;Knochweed;Estone 80;Knock Weed;Knock Weed 4G;Bladex C;2,4-PA-ethyl;2,4-Dichlorophenoxyacetic acid ethyl ester",
    "duplicated_cas_no": "53637-38-0",
    "SMILES": "O(CC(OCC)=O)C1=C(Cl)C=C(Cl)C=C1",
    "meta_data": {
        "InChI": "InChI=1S/C10H10Cl2O3/c1-2-14-10(13)6-15-9-4-3-7(11)5-8(9)12/h3-5H,2,6H2,1H3",
        "InChIKey": null,
        "Canonical SMILES": "O=C(OCC)COC1=CC=C(Cl)C=C1Cl",
        "Molecular Formula": "C<sub>10</sub>H<sub>10</sub>Cl<sub>2</sub>O<sub>3</sub>",
        "Molecular Mass": "249.09",
        "Boiling Point": "136 °C",
        "Melting Point": "175-177 °C",
        "Density": "1.3262 g/cm³ @ Temp: 20 °C"
    }
}