{
    "cas_no": "1164-16-5",
    "key_name": "Carbobenzoxy-<span class=\"text-smallcaps\">L</span>-tyrosine",
    "cn_name": "N-苄氧羰基-L-酪氨酸;",
    "alternate_name": "<span class=\"text-smallcaps\">L</span>-Tyrosine, <em>N</em>-[(phenylmethoxy)carbonyl]-;Tyrosine, <em>N</em>-carboxy-, <em>N</em>-benzyl ester, <span class=\"text-smallcaps\">L</span>-;Tyrosine, <em>N</em>-carboxy-, <em>N</em>-benzyl ester;<em>N</em>-[(Phenylmethoxy)carbonyl]-<span class=\"text-smallcaps\">L</span>-tyrosine;<em>N</em>-Carbobenzoxy-<span class=\"text-smallcaps\">L</span>-tyrosine;Carbobenzoxy-<span class=\"text-smallcaps\">L</span>-tyrosine;<em>N</em>-(Benzyloxycarbonyl)-<span class=\"text-smallcaps\">L</span>-tyrosine;Carbobenzoxytyrosine;Benzyloxycarbonyl-<span class=\"text-smallcaps\">L</span>-tyrosine;<em>N</em>-(Benzyloxycarbonyl)tyrosine;(Benzyloxycarbonyl)tyrosine;<em>N</em>-Carbobenzoxytyrosine;<span class=\"text-smallcaps\">L</span>-(Carbobenzyloxy)tyrosine;<em>N</em>-Carbobenzyloxy-<span class=\"text-smallcaps\">L</span>-tyrosine;NSC 88488;<em>N</em>-CBZ-<span class=\"text-smallcaps\">L</span>-tyrosine;(2S)-2-(Benzyloxycarbonylamino)-3-(4-hydroxyphenyl)propanoic acid;(2S)-2-[[(Benzyloxy)carbonyl]amino]-3-(4-hydroxyphenyl)propanoic acid;(2S)-3-(4-Hydroxyphenyl)-2-(phenylmethoxycarbonylamino)propanoic acid",
    "duplicated_cas_no": "22259-04-7",
    "SMILES": "C([C@H](NC(OCC1=CC=CC=C1)=O)C(O)=O)C2=CC=C(O)C=C2",
    "meta_data": {
        "InChI": "InChI=1S/C17H17NO5/c19-14-8-6-12(7-9-14)10-15(16(20)21)18-17(22)23-11-13-4-2-1-3-5-13/h1-9,15,19H,10-11H2,(H,18,22)(H,20,21)/t15-/m0/s1",
        "InChIKey": null,
        "Canonical SMILES": "O=C(O)C(NC(=O)OCC=1C=CC=CC1)CC2=CC=C(O)C=C2",
        "Molecular Formula": "C<sub>17</sub>H<sub>17</sub>NO<sub>5</sub>",
        "Molecular Mass": "315.32",
        "Melting Point": "95-96 °C"
    }
}