{
    "cas_no": "133343-34-7",
    "key_name": "Lactacystin",
    "cn_name": "乳胞素;",
    "alternate_name": "<span class=\"text-smallcaps\">L</smallcap>-Cysteine, <em>N</em>-acetyl-<em>S</em>-[(3<em>S</em>,4<em>R</em>)-3-hydroxy-2-[(1<em>S</em>)-1-hydroxy-2-methylpropyl]-4-methyl-5-oxo-<smallcap>D</span>-prolyl]-;<span class=\"text-smallcaps\">L</span>-Cysteine, <em>N</em>-acetyl-, 3-hydroxy-2-(1-hydroxy-2-methylpropyl)-4-methyl-5-oxo-2-pyrrolidinecarboxylate (ester), [2<em>R</em>-[2α,2(<em>S</em>*),3α,4α]]-;<span class=\"text-smallcaps\">L</span>-Cysteine, <em>N</em>-acetyl-, (2<em>R</em>,3<em>S</em>,4<em>R</em>)-3-hydroxy-2-[(1<em>S</em>)-1-hydroxy-2-methylpropyl]-4-methyl-5-oxo-2-pyrrolidinecarboxylate (ester);<em>N</em>-Acetyl-<em>S</em>-[(3<em>S</em>,4<em>R</em>)-3-hydroxy-2-[(1<em>S</em>)-1-hydroxy-2-methylpropyl]-4-methyl-5-oxo-<span class=\"text-smallcaps\">D</smallcap>-prolyl]-<smallcap>L</span>-cysteine;Lactacystin;(+)-Lactacystin",
    "duplicated_cas_no": "",
    "SMILES": "C(SC[C@H](NC(C)=O)C(O)=O)(=O)[C@@]1([C@H](C(C)C)O)[C@@H](O)[C@@H](C)C(=O)N1",
    "meta_data": {
        "InChI": "InChI=1S/C15H24N2O7S/c1-6(2)10(19)15(11(20)7(3)12(21)17-15)14(24)25-5-9(13(22)23)16-8(4)18/h6-7,9-11,19-20H,5H2,1-4H3,(H,16,18)(H,17,21)(H,22,23)/t7-,9+,10+,11+,15-/m1/s1",
        "InChIKey": null,
        "Canonical SMILES": "O=C(O)C(NC(=O)C)CSC(=O)C1(NC(=O)C(C)C1O)C(O)C(C)C",
        "Molecular Formula": "C<sub>15</sub>H<sub>24</sub>N<sub>2</sub>O<sub>7</sub>S",
        "Molecular Mass": "376.43",
        "Melting Point": "233-235 °C (decomp)"
    }
}