{
    "cas_no": "2499-59-4",
    "key_name": "Octyl acrylate",
    "cn_name": "2-丙烯酸辛酯;丙烯酸辛酯;丙烯酸正辛酯;",
    "alternate_name": "2-Propenoic acid, octyl ester;Acrylic acid, octyl ester;Octyl acrylate;ENT 3827;<em>n</em>-Octyl acrylate;1-Octyl acrylate;Octyl 2-propenoate;NSC 5177;NOAA",
    "duplicated_cas_no": "",
    "SMILES": "O(CCCCCCCC)C(C=C)=O",
    "meta_data": {
        "InChI": "InChI=1S/C11H20O2/c1-3-5-6-7-8-9-10-13-11(12)4-2/h4H,2-3,5-10H2,1H3",
        "InChIKey": null,
        "Canonical SMILES": "O=C(OCCCCCCCC)C=C",
        "Molecular Formula": "C<sub>11</sub>H<sub>20</sub>O<sub>2</sub>",
        "Molecular Mass": "184.28",
        "Boiling Point": "57 °C @ Press: 0.05 Torr",
        "Melting Point": "81-83 °C",
        "Density": "0.8810 g/cm³ @ Temp: 20 °C"
    }
}