{
    "cas_no": "1189-09-9",
    "key_name": "Methyl geranate",
    "cn_name": null,
    "alternate_name": "2,6-Octadienoic acid, 3,7-dimethyl-, methyl ester, (2<em>E</em>)-;2,6-Octadienoic acid, 3,7-dimethyl-, methyl ester, (<em>E</em>)-;Geranic acid methyl ester;2,6-Octadienoic acid, 3,7-dimethyl-, methyl ester, <em>trans</em>-;Methyl <em>trans</em>-geranate;<em>trans</em>-Geranic acid methyl ester;Methyl geranate;Methyl (<em>E</em>)-geranate;Methyl (E)-3,7-dimethylocta-2,6-dienoate",
    "duplicated_cas_no": "",
    "SMILES": "C(=C/C(OC)=O)(\\CCC=C(C)C)/C",
    "meta_data": {
        "InChI": "InChI=1S/C11H18O2/c1-9(2)6-5-7-10(3)8-11(12)13-4/h6,8H,5,7H2,1-4H3/b10-8+",
        "InChIKey": null,
        "Canonical SMILES": "O=C(OC)C=C(C)CCC=C(C)C",
        "Molecular Formula": "C<sub>11</sub>H<sub>18</sub>O<sub>2</sub>",
        "Molecular Mass": "182.26",
        "Boiling Point": "70-73 °C @ Press: 3 Torr"
    }
}