{
    "cas_no": "125306-83-4",
    "key_name": "Cafenstrole",
    "cn_name": "苯酮唑;苯酮唑;N,N-二乙基-3-均三甲基苯磺酰基-1H-1,2,4-三唑-1-甲酰胺;唑草胺;",
    "alternate_name": "1<em>H</em>-1,2,4-Triazole-1-carboxamide, <em>N</em>,<em>N</em>-diethyl-3-[(2,4,6-trimethylphenyl)sulfonyl]-;<em>N</em>,<em>N</em>-Diethyl-3-[(2,4,6-trimethylphenyl)sulfonyl]-1<em>H</em>-1,2,4-triazole-1-carboxamide;CH 900;Cafenstrole;Himeadow;Grachitor;Zuocaoan",
    "duplicated_cas_no": "",
    "SMILES": "S(=O)(=O)(C1=NN(C(N(CC)CC)=O)C=N1)C2=C(C)C=C(C)C=C2C",
    "meta_data": {
        "InChI": "InChI=1S/C16H22N4O3S/c1-6-19(7-2)16(21)20-10-17-15(18-20)24(22,23)14-12(4)8-11(3)9-13(14)5/h8-10H,6-7H2,1-5H3",
        "InChIKey": null,
        "Canonical SMILES": "O=C(N1N=C(N=C1)S(=O)(=O)C=2C(=CC(=CC2C)C)C)N(CC)CC",
        "Molecular Formula": "C<sub>16</sub>H<sub>22</sub>N<sub>4</sub>O<sub>3</sub>S",
        "Molecular Mass": "350.44",
        "Melting Point": "115 °C"
    }
}