{
    "cas_no": "4282-31-9",
    "key_name": "2,5-Thiophenedicarboxylic acid",
    "cn_name": "2,5-噻吩二羧酸;噻吩-2,5二羧酸;OB酸;",
    "alternate_name": "2,5-Thiophenedicarboxylic acid;2,5-Dicarboxythiophene;NSC 81789;Thiophene-2,5-dicarboxylic acid",
    "duplicated_cas_no": "",
    "SMILES": "C(O)(=O)C=1SC(C(O)=O)=CC1",
    "meta_data": {
        "InChI": "InChI=1S/C6H4O4S/c7-5(8)3-1-2-4(11-3)6(9)10/h1-2H,(H,7,8)(H,9,10)",
        "InChIKey": null,
        "Canonical SMILES": "O=C(O)C=1SC(=CC1)C(=O)O",
        "Molecular Formula": "C<sub>6</sub>H<sub>4</sub>O<sub>4</sub>S",
        "Molecular Mass": "172.16",
        "Melting Point": "359 °C"
    }
}