{
    "cas_no": "18880-00-7",
    "key_name": "4-<em>tert</em>-Butylbenzyl bromide",
    "cn_name": "4-叔丁基苄溴;对叔丁基苄溴;",
    "alternate_name": "Benzene, 1-(bromomethyl)-4-(1,1-dimethylethyl)-;Toluene, α-bromo-<em>p</em>-<em>tert</em>-butyl-;1-(Bromomethyl)-4-(1,1-dimethylethyl)benzene;<em>p</em>-<em>tert</em>-Butylbenzyl bromide;4-<em>tert</em>-Butylbenzyl bromide;4-(1,1-Dimethylethyl)benzyl bromide;α-Bromo-<em>p</em>-<em>tert</em>-butyltoluene;4-<em>tert</em>-Butylphenylmethyl bromide;1-Bromomethyl-4-<em>tert</em>-butylbenzene;Bromo(4-<em>tert</em>-butylphenyl)methane;NSC 186287;1-<em>tert</em>-Butyl-4-(bromomethyl)benzene;4-<em>tert</em>-Butyl-1-bromomethylbenzene",
    "duplicated_cas_no": "1009031-43-9",
    "SMILES": "C(C)(C)(C)C1=CC=C(CBr)C=C1",
    "meta_data": {
        "InChI": "InChI=1S/C11H15Br/c1-11(2,3)10-6-4-9(8-12)5-7-10/h4-7H,8H2,1-3H3",
        "InChIKey": null,
        "Canonical SMILES": "BrCC1=CC=C(C=C1)C(C)(C)C",
        "Molecular Formula": "C<sub>11</sub>H<sub>15</sub>Br",
        "Molecular Mass": "227.14",
        "Boiling Point": "133 °C @ Press: 17 Torr",
        "Melting Point": "15.2 °C",
        "Density": "1.232 g/cm³ @ Temp: 20 °C"
    }
}