{
    "cas_no": "10275-21-5",
    "key_name": "Benzeneethanamine, <em>N</em>,<em>N</em>-dimethyl-, hydrochloride (1:1)",
    "cn_name": null,
    "alternate_name": "Benzeneethanamine, <em>N</em>,<em>N</em>-dimethyl-, hydrochloride (1:1);Phenethylamine, <em>N</em>,<em>N</em>-dimethyl-, hydrochloride;Benzeneethanamine, <em>N</em>,<em>N</em>-dimethyl-, hydrochloride;<em>N</em>,<em>N</em>-Dimethylphenethylamine hydrochloride;<em>N</em>,<em>N</em>-Dimethylphenylethylamine hydrochloride;AF 2975",
    "duplicated_cas_no": "",
    "SMILES": "C(CN(C)C)C1=CC=CC=C1.Cl",
    "meta_data": {
        "InChI": "InChI=1S/C10H15N.ClH/c1-11(2)9-8-10-6-4-3-5-7-10;/h3-7H,8-9H2,1-2H3;1H",
        "InChIKey": null,
        "Canonical SMILES": "Cl.C=1C=CC(=CC1)CCN(C)C",
        "Molecular Formula": "C<sub>10</sub>H<sub>15</sub>N.ClH",
        "Molecular Mass": "",
        "Melting Point": "200-201.5 °C"
    }
}