{
    "cas_no": "1499-21-4",
    "key_name": "Diphenylphosphinic chloride",
    "cn_name": "二苯基次膦酰氯;",
    "alternate_name": "Phosphinic chloride, <em>P</em>,<em>P</em>-diphenyl-;Phosphinic chloride, diphenyl-;<em>P</em>,<em>P</em>-Diphenylphosphinic chloride;Diphenylphosphinic chloride;Diphenylphosphinyl chloride;Chlorodiphenylphosphine oxide;Diphenylchlorophosphine oxide;Diphenylphosphinic acid chloride;Diphenylphosphorus oxychloride;Diphenylphosphinoyl chloride;NSC 175848;Diphenylphosphonic chloride;[Chloro(phenyl)phosphoryl]benzene",
    "duplicated_cas_no": "",
    "SMILES": "P(Cl)(=O)(C1=CC=CC=C1)C2=CC=CC=C2",
    "meta_data": {
        "InChI": "InChI=1S/C12H10ClOP/c13-15(14,11-7-3-1-4-8-11)12-9-5-2-6-10-12/h1-10H",
        "InChIKey": null,
        "Canonical SMILES": "O=P(Cl)(C=1C=CC=CC1)C=2C=CC=CC2",
        "Molecular Formula": "C<sub>12</sub>H<sub>10</sub>ClOP",
        "Molecular Mass": "236.63",
        "Boiling Point": "222 °C @ Press: 15 Torr",
        "Melting Point": "187 °C"
    }
}