{
    "cas_no": "3458-72-8",
    "key_name": "Triammonium citrate",
    "cn_name": "柠檬酸铵;柠檬酸三铵;",
    "alternate_name": "1,2,3-Propanetricarboxylic acid, 2-hydroxy-, ammonium salt (1:3);Citric acid, triammonium salt;1,2,3-Propanetricarboxylic acid, 2-hydroxy-, triammonium salt;Ammonium citrate ((NH<sub>4</sub>)<sub>3</sub>O<sub>7</sub>C<sub>6</sub>H<sub>5</sub>);Triammonium citrate;Ammonium citrate;2-Hydroxy-1,2,3-propanetricarboxylic acid triammonium salt;Trisamine citrate",
    "duplicated_cas_no": "113131-83-2;141102-47-8;2568981-92-8",
    "SMILES": "C(CC(O)=O)(CC(O)=O)(C(O)=O)O.N",
    "meta_data": {
        "InChI": "InChI=1S/C6H8O7.3H3N/c7-3(8)1-6(13,5(11)12)2-4(9)10;;;/h13H,1-2H2,(H,7,8)(H,9,10)(H,11,12);3*1H3",
        "InChIKey": null,
        "Canonical SMILES": "O=C(O)CC(O)(C(=O)O)CC(=O)O.N",
        "Molecular Formula": "C<sub>6</sub>H<sub>8</sub>O<sub>7</sub>.3H<sub>3</sub>N",
        "Molecular Mass": "",
        "Melting Point": "150 °C (decomp)",
        "Density": "1.09 g/cm³ @ Temp: 26 °C"
    }
}