{
    "cas_no": "4136-97-4",
    "key_name": "Methyl 4-amino-2-hydroxybenzoate",
    "cn_name": null,
    "alternate_name": "Benzoic acid, 4-amino-2-hydroxy-, methyl ester;Salicylic acid, 4-amino-, methyl ester;Methyl 4-amino-2-hydroxybenzoate;Methyl <em>p</em>-aminosalicylate;Methyl 4-aminosalicylate;<em>p</em>-Aminosalicylic acid methyl ester;Methyl 2-hydroxy-4-aminobenzoate;NSC 30263;NSC 48927;4-Amino-2-hydroxybenzoic acid methyl ester;4-Aminosalicylic acid methyl ester;2-Hydroxy-4-aminobenzoic acid methyl ester;3-Hydroxy-4-methoxycarbonylaniline",
    "duplicated_cas_no": "",
    "SMILES": "C(OC)(=O)C1=C(O)C=C(N)C=C1",
    "meta_data": {
        "InChI": "InChI=1S/C8H9NO3/c1-12-8(11)6-3-2-5(9)4-7(6)10/h2-4,10H,9H2,1H3",
        "InChIKey": null,
        "Canonical SMILES": "O=C(OC)C1=CC=C(N)C=C1O",
        "Molecular Formula": "C<sub>8</sub>H<sub>9</sub>NO<sub>3</sub>",
        "Molecular Mass": "167.16",
        "Boiling Point": "120 °C",
        "Melting Point": "108 °C (decomp)"
    }
}