{
    "cas_no": "697-90-5",
    "key_name": "2,4-Dichloro-6-iodobenzenamine",
    "cn_name": "2,4-二氯-6-碘苯胺;",
    "alternate_name": "Benzenamine, 2,4-dichloro-6-iodo-;Aniline, 2,4-dichloro-6-iodo-;2,4-Dichloro-6-iodobenzenamine;2,4-Dichloro-6-iodoaniline;2,4-Dichloro-6-iodophenylamine",
    "duplicated_cas_no": "",
    "SMILES": "NC1=C(Cl)C=C(Cl)C=C1I",
    "meta_data": {
        "InChI": "InChI=1S/C6H4Cl2IN/c7-3-1-4(8)6(10)5(9)2-3/h1-2H,10H2",
        "InChIKey": null,
        "Canonical SMILES": "ClC=1C=C(Cl)C(N)=C(I)C1",
        "Molecular Formula": "C<sub>6</sub>H<sub>4</sub>Cl<sub>2</sub>IN",
        "Molecular Mass": "287.91",
        "Melting Point": "84 °C"
    }
}