{
    "cas_no": "17341-93-4",
    "key_name": "2,2,2-Trichloroethyl chloroformate",
    "cn_name": "氯甲酸-2,2,2-三氯乙酯;2,2,2-三氯乙基氯甲酸酯;",
    "alternate_name": "Carbonochloridic acid, 2,2,2-trichloroethyl ester;Formic acid, chloro-, 2,2,2-trichloroethyl ester;Ethanol, 2,2,2-trichloro-, chloroformate;2,2,2-Trichloroethyl chloroformate;2,2,2-Trichloroethoxycarbonyl chloride;β,β,β-Trichloroethyl chloroformate;β,β,β-Trichloroethoxycarbonyl chloride;(Trichloroethoxy)chloroformate;NSC 152038;Chloroformic acid 2,2,2-trichloroethyl ester;Troc-Cl;2,2,2-Trichloroethyl carbonochloridate",
    "duplicated_cas_no": "",
    "SMILES": "C(C(Cl)(Cl)Cl)OC(Cl)=O",
    "meta_data": {
        "InChI": "InChI=1S/C3H2Cl4O2/c4-2(8)9-1-3(5,6)7/h1H2",
        "InChIKey": null,
        "Canonical SMILES": "O=C(Cl)OCC(Cl)(Cl)Cl",
        "Molecular Formula": "C<sub>3</sub>H<sub>2</sub>Cl<sub>4</sub>O<sub>2</sub>",
        "Molecular Mass": "211.86",
        "Boiling Point": "52-53 °C @ Press: 9-10 Torr"
    }
}