{
    "cas_no": "4178-93-2",
    "key_name": "Leucine <em>p</em>-nitroanilide",
    "cn_name": "L-亮氨酸-4-硝基苯胺;",
    "alternate_name": "Pentanamide, 2-amino-4-methyl-<em>N</em>-(4-nitrophenyl)-, (2<em>S</em>)-;Valeranilide, 2-amino-4-methyl-4′-nitro-, <span class=\"text-smallcaps\">L</span>-;Pentanamide, 2-amino-4-methyl-<em>N</em>-(4-nitrophenyl)-, (<em>S</em>)-;(2<em>S</em>)-2-Amino-4-methyl-<em>N</em>-(4-nitrophenyl)pentanamide;<span class=\"text-smallcaps\">L</span>-Leucine <em>p</em>-nitroanilide;<em>N</em>-<span class=\"text-smallcaps\">L</span>-Leucyl-<em>p</em>-nitroanilide;Leucine <em>p</em>-nitroanilide;<span class=\"text-smallcaps\">L</span>-Leucyl-<em>p</em>-nitroanilide;<em>N</em>-α-<span class=\"text-smallcaps\">L</span>-Leucine <em>p</em>-nitroanilide;<span class=\"text-smallcaps\">L</span>-Leucyl-4-nitroanilide;(2S)-2-Amino-4-methyl-<em>N</em>-(4-nitrophenyl)pentanamide",
    "duplicated_cas_no": "110893-28-2;86237-92-5",
    "SMILES": "N(C([C@H](CC(C)C)N)=O)C1=CC=C(N(=O)=O)C=C1",
    "meta_data": {
        "InChI": "InChI=1S/C12H17N3O3/c1-8(2)7-11(13)12(16)14-9-3-5-10(6-4-9)15(17)18/h3-6,8,11H,7,13H2,1-2H3,(H,14,16)/t11-/m0/s1",
        "InChIKey": null,
        "Canonical SMILES": "O=C(NC1=CC=C(C=C1)N(=O)=O)C(N)CC(C)C",
        "Molecular Formula": "C<sub>12</sub>H<sub>17</sub>N<sub>3</sub>O<sub>3</sub>",
        "Molecular Mass": "251.28",
        "Melting Point": "88 °C"
    }
}