{
    "cas_no": "76738-62-0",
    "key_name": "Paclobutrazol",
    "cn_name": null,
    "alternate_name": "1<em>H</em>-1,2,4-Triazole-1-ethanol, β-[(4-chlorophenyl)methyl]-α-(1,1-dimethylethyl)-, (α<em>R</em>,β<em>R</em>)-<em>rel</em>-;1<em>H</em>-1,2,4-Triazole-1-ethanol, β-[(4-chlorophenyl)methyl]-α-(1,1-dimethylethyl)-, (<em>R</em>*,<em>R</em>*)-(±)-;<em>rel</em>-(α<em>R</em>,β<em>R</em>)-β-[(4-Chlorophenyl)methyl]-α-(1,1-dimethylethyl)-1<em>H</em>-1,2,4-triazole-1-ethanol;PP 333;Paclobutrazol;ICI-PP 333;Cultar;Bonzi;Parlay;Trimmit;Clipper;MET (Triazole);(2-<em>RS</em>,3<em>RS</em>)-1-(4-Chlorophenyl)-4,4-dimethyl-2-(1<em>H</em>-1,2,4-triazol-1-yl)pentan-3-ol;Duo Xiao Zuo;Multi-effect triazole;1<em>H</em>-1,2,4-Triazole-1-ethanol, β-[(4-chlorophenyl)methyl]-α-(1,1-dimethylethyl)-, (<em>R</em>*,<em>R</em>*)-;Friazole;Smarect;PP 333 (plant growth regulator);Bounty Flowable;AuStar;Clipper (triazole);Trimtect;Cambistat;PPP 333",
    "duplicated_cas_no": "106357-76-0;113932-85-7;115509-55-2;128224-38-4;77108-06-6;1180558-13-7;1135441-35-8",
    "SMILES": "[C@H](CC1=CC=C(Cl)C=C1)([C@H](C(C)(C)C)O)N2C=NC=N2",
    "meta_data": {
        "InChI": "InChI=1/C15H20ClN3O/c1-15(2,3)14(20)13(19-10-17-9-18-19)8-11-4-6-12(16)7-5-11/h4-7,9-10,13-14,20H,8H2,1-3H3/t13-,14+/s2",
        "InChIKey": null,
        "Canonical SMILES": "ClC1=CC=C(C=C1)CC(N2N=CN=C2)C(O)C(C)(C)C",
        "Molecular Formula": "C<sub>15</sub>H<sub>20</sub>ClN<sub>3</sub>O",
        "Molecular Mass": "293.79",
        "Melting Point": "165.5 °C",
        "Density": "1.22 g/cm³"
    }
}