{
    "cas_no": "4504-88-5",
    "key_name": "11-[3-(Dimethylamino)propyl]-6,11-dihydrodibenz[<em>b</em>,<em>e</em>]oxepin-11-ol",
    "cn_name": null,
    "alternate_name": "Dibenz[<em>b</em>,<em>e</em>]oxepin-11-ol, 11-[3-(dimethylamino)propyl]-6,11-dihydro-;11-[3-(Dimethylamino)propyl]-6,11-dihydrodibenz[<em>b</em>,<em>e</em>]oxepin-11-ol;11-[3-(Dimethylamino)propyl]-6<em>H</em>-benzo[<em>c</em>][1]benzoxepin-11-ol",
    "duplicated_cas_no": "71832-25-2",
    "SMILES": "C(CCN(C)C)C1(O)C=2C(COC=3C1=CC=CC3)=CC=CC2",
    "meta_data": {
        "InChI": "InChI=1S/C19H23NO2/c1-20(2)13-7-12-19(21)16-9-4-3-8-15(16)14-22-18-11-6-5-10-17(18)19/h3-6,8-11,21H,7,12-14H2,1-2H3",
        "InChIKey": null,
        "Canonical SMILES": "OC1(C=2C=CC=CC2OCC=3C=CC=CC31)CCCN(C)C",
        "Molecular Formula": "C<sub>19</sub>H<sub>23</sub>NO<sub>2</sub>",
        "Molecular Mass": "297.39",
        "Melting Point": "119-120 °C"
    }
}