{
    "cas_no": "526-75-0",
    "key_name": "2,3-Dimethylphenol",
    "cn_name": "2,3-二甲基苯酚;2,3-二甲酚;",
    "alternate_name": "Phenol, 2,3-dimethyl-;2,3-Xylenol;2,3-Dimethylphenol;<em>o</em>-Xylenol;1-Hydroxy-2,3-dimethylbenzene;1,2-Dimethyl-3-hydroxybenzene;NSC 62011;2,3-DMP",
    "duplicated_cas_no": "",
    "SMILES": "CC1=C(C)C=CC=C1O",
    "meta_data": {
        "InChI": "InChI=1S/C8H10O/c1-6-4-3-5-8(9)7(6)2/h3-5,9H,1-2H3",
        "InChIKey": null,
        "Canonical SMILES": "OC1=CC=CC(=C1C)C",
        "Molecular Formula": "C<sub>8</sub>H<sub>10</sub>O",
        "Molecular Mass": "122.16",
        "Boiling Point": "218 °C",
        "Melting Point": "72.8 °C"
    }
}