{
    "cas_no": "103-45-7",
    "key_name": "2-Phenylethyl acetate",
    "cn_name": "乙酸苯乙酯;",
    "alternate_name": "Acetic acid, 2-phenylethyl ester;Acetic acid, phenethyl ester;Phenethyl alcohol, acetate;Benzylcarbinyl acetate;Phenethyl acetate;β-Phenylethyl acetate;β-Phenethyl acetate;2-Phenylethyl acetate;2-Phenethyl acetate;Phenylethyl ethanoate;β-Phenylethanol acetate;NSC 71927;2-Phenylethanol acetate;Benzeneethanol acetate",
    "duplicated_cas_no": "",
    "SMILES": "C(COC(C)=O)C1=CC=CC=C1",
    "meta_data": {
        "InChI": "InChI=1S/C10H12O2/c1-9(11)12-8-7-10-5-3-2-4-6-10/h2-6H,7-8H2,1H3",
        "InChIKey": null,
        "Canonical SMILES": "O=C(OCCC=1C=CC=CC1)C",
        "Molecular Formula": "C<sub>10</sub>H<sub>12</sub>O<sub>2</sub>",
        "Molecular Mass": "164.20",
        "Boiling Point": "232.6 °C",
        "Melting Point": "-31.1 °C",
        "Density": "1.0765 g/cm³ @ Temp: 20 °C"
    }
}