{
    "cas_no": "133-37-9",
    "key_name": "<em>dl</em>-Tartaric acid",
    "cn_name": null,
    "alternate_name": "Butanedioic acid, 2,3-dihydroxy-, (2<em>R</em>,3<em>R</em>)-<em>rel</em>-;Tartaric acid, (±)-;Butanedioic acid, 2,3-dihydroxy-, (<em>R</em>*,<em>R</em>*)-(±)-;<em>rel</em>-(2<em>R</em>,3<em>R</em>)-2,3-Dihydroxybutanedioic acid;Paratartaric acid;Racemic acid;Racemic tartaric acid;Uvic acid;<span class=\"text-smallcaps\">DL</span>-Tartaric acid;<em>dl</em>-Tartaric acid;(±)-Tartaric acid;(2<em>RS</em>,3<em>RS</em>)-Tartaric acid;Butanedioic acid, 2,3-dihydroxy-, (<em>R</em>*,<em>R</em>*)-;NSC 148314",
    "duplicated_cas_no": "138508-61-9",
    "SMILES": "[C@H]([C@@H](C(O)=O)O)(C(O)=O)O",
    "meta_data": {
        "InChI": "InChI=1/C4H6O6/c5-1(3(7)8)2(6)4(9)10/h1-2,5-6H,(H,7,8)(H,9,10)/t1-,2-/s2",
        "InChIKey": null,
        "Canonical SMILES": "O=C(O)C(O)C(O)C(=O)O",
        "Molecular Formula": "C<sub>4</sub>H<sub>6</sub>O<sub>6</sub>",
        "Molecular Mass": "150.09",
        "Melting Point": "206 °C",
        "Density": "1.79 g/cm³"
    }
}