{
    "cas_no": "1114-51-8",
    "key_name": "Diethylpropionamide",
    "cn_name": "N,N-二乙基丙酰胺;",
    "alternate_name": "Propanamide, <em>N</em>,<em>N</em>-diethyl-;Propionamide, <em>N</em>,<em>N</em>-diethyl-;<em>N</em>,<em>N</em>-Diethylpropanamide;<em>N</em>,<em>N</em>-Diethylpropionamide;Diethylpropionamide;NSC 105",
    "duplicated_cas_no": "",
    "SMILES": "N(C(CC)=O)(CC)CC",
    "meta_data": {
        "InChI": "InChI=1S/C7H15NO/c1-4-7(9)8(5-2)6-3/h4-6H2,1-3H3",
        "InChIKey": null,
        "Canonical SMILES": "O=C(N(CC)CC)CC",
        "Molecular Formula": "C<sub>7</sub>H<sub>15</sub>NO",
        "Molecular Mass": "129.20",
        "Boiling Point": "191 °C",
        "Density": "0.8972 g/cm³ @ Temp: 20 °C"
    }
}