{
    "cas_no": "2631-40-5",
    "key_name": "Isoprocarb",
    "cn_name": "异丙威;2-异丙基苯基N-甲基氨基甲酸酯;",
    "alternate_name": "Phenol, 2-(1-methylethyl)-, 1-(<em>N</em>-methylcarbamate);Carbamic acid, methyl-, <em>o</em>-cumenyl ester;Phenol, 2-(1-methylethyl)-, methylcarbamate;PPC 3;OMS 32;Bayer 39,731;<em>o</em>-Isopropylphenol methylcarbamate;<em>o</em>-Isopropylphenyl <em>N</em>-methylcarbamate;2-Isopropylphenyl <em>N</em>-methylcarbamate;BAY 39731;Ro 7-5050;<em>o</em>-Cumenyl <em>N</em>-methylcarbamate;Mipcin;2-Isopropylphenyl methylcarbamate;<em>o</em>-Cumenyl methylcarbamate;<em>o</em>-Isopropylphenyl methylcarbamate;Mipcine;MIPC;Isoprocarb;ENT 25670;Etrofolan;NSC 191479;Mobucin;2-(Propan-2-yl)phenyl <em>N</em>-methylcarbamate",
    "duplicated_cas_no": "",
    "SMILES": "C(C)(C)C1=C(OC(NC)=O)C=CC=C1",
    "meta_data": {
        "InChI": "InChI=1S/C11H15NO2/c1-8(2)9-6-4-5-7-10(9)14-11(13)12-3/h4-8H,1-3H3,(H,12,13)",
        "InChIKey": null,
        "Canonical SMILES": "O=C(OC=1C=CC=CC1C(C)C)NC",
        "Molecular Formula": "C<sub>11</sub>H<sub>15</sub>NO<sub>2</sub>",
        "Molecular Mass": "193.24",
        "Boiling Point": "273.6 °C",
        "Melting Point": "94 °C"
    }
}