{
    "cas_no": "101048-76-4",
    "key_name": "2-Fluoro-4-formylbenzonitrile",
    "cn_name": null,
    "alternate_name": "Benzonitrile, 2-fluoro-4-formyl-;2-Fluoro-4-formylbenzonitrile;3-Fluoro-4-cyanobenzaldehyde;4-Cyano-3-fluorobenzaldehyde",
    "duplicated_cas_no": "",
    "SMILES": "C(=O)C1=CC(F)=C(C#N)C=C1",
    "meta_data": {
        "InChI": "InChI=1S/C8H4FNO/c9-8-3-6(5-11)1-2-7(8)4-10/h1-3,5H",
        "InChIKey": null,
        "Canonical SMILES": "N#CC1=CC=C(C=O)C=C1F",
        "Molecular Formula": "C<sub>8</sub>H<sub>4</sub>FNO",
        "Molecular Mass": "149.12",
        "Melting Point": "87-88 °C"
    }
}