{
    "cas_no": "465-74-7",
    "key_name": "Quinovic acid",
    "cn_name": null,
    "alternate_name": "Urs-12-ene-27,28-dioic acid, 3-hydroxy-, (3β)-;Urs-12-ene-27,28-dioic acid, 3β-hydroxy-;(3β)-3-Hydroxyurs-12-ene-27,28-dioic acid;Chinovic acid;Quinovaic acid;Quinovic acid;3β-Hydroxyurs-12-ene-27,28-dioic acid",
    "duplicated_cas_no": "596-53-2;909264-00-2",
    "SMILES": "C(O)(=O)[C@]12C([C@]3([C@@](C(O)=O)(CC1)CC[C@@H](C)[C@@H]3C)[H])=CC[C@]4([C@@]2(C)CC[C@@]5([C@]4(C)CC[C@H](O)C5(C)C)[H])[H]",
    "meta_data": {
        "InChI": "InChI=1S/C30H46O5/c1-17-9-14-29(24(32)33)15-16-30(25(34)35)19(23(29)18(17)2)7-8-21-27(5)12-11-22(31)26(3,4)20(27)10-13-28(21,30)6/h7,17-18,20-23,31H,8-16H2,1-6H3,(H,32,33)(H,34,35)/t17-,18+,20+,21-,22+,23+,27+,28-,29+,30-/m1/s1",
        "InChIKey": null,
        "Canonical SMILES": "O=C(O)C12C(=CCC3C4(C)CCC(O)C(C)(C)C4CCC31C)C5C(C)C(C)CCC5(C(=O)O)CC2",
        "Molecular Formula": "C<sub>30</sub>H<sub>46</sub>O<sub>5</sub>",
        "Molecular Mass": "486.68",
        "Melting Point": "297 °C (decomp)"
    }
}