{
    "cas_no": "570-02-5",
    "key_name": "2,4,6-Trimethoxybenzoic acid",
    "cn_name": "2,4,6-三甲氧基苯甲酸;",
    "alternate_name": "Benzoic acid, 2,4,6-trimethoxy-;2,4,6-Trimethoxybenzoic acid",
    "duplicated_cas_no": "",
    "SMILES": "C(O)(=O)C1=C(OC)C=C(OC)C=C1OC",
    "meta_data": {
        "InChI": "InChI=1S/C10H12O5/c1-13-6-4-7(14-2)9(10(11)12)8(5-6)15-3/h4-5H,1-3H3,(H,11,12)",
        "InChIKey": null,
        "Canonical SMILES": "O=C(O)C=1C(OC)=CC(OC)=CC1OC",
        "Molecular Formula": "C<sub>10</sub>H<sub>12</sub>O<sub>5</sub>",
        "Molecular Mass": "212.20",
        "Melting Point": "144-145 °C"
    }
}