{
    "cas_no": "773-99-9",
    "key_name": "1-Naphthaleneethanol",
    "cn_name": "1-萘乙醇;",
    "alternate_name": "1-Naphthaleneethanol;2-(1-Naphthyl)ethanol;2-(α-Naphthyl)ethanol;1-(2-Hydroxyethyl)naphthalene;NSC 28342;2-Naphthalen-1-yl-ethanol;2-(Naphthalen-1-yl)ethan-1-ol",
    "duplicated_cas_no": "",
    "SMILES": "C(CO)C=1C2=C(C=CC1)C=CC=C2",
    "meta_data": {
        "InChI": "InChI=1S/C12H12O/c13-9-8-11-6-3-5-10-4-1-2-7-12(10)11/h1-7,13H,8-9H2",
        "InChIKey": null,
        "Canonical SMILES": "OCCC1=CC=CC=2C=CC=CC21",
        "Molecular Formula": "C<sub>12</sub>H<sub>12</sub>O",
        "Molecular Mass": "172.22",
        "Boiling Point": "125 °C @ Press: 0.2 Torr",
        "Melting Point": "62 °C"
    }
}