{
    "cas_no": "20329-98-0",
    "key_name": "(<em>E</em>)-3,4,5-Trimethoxycinnamic acid",
    "cn_name": null,
    "alternate_name": "2-Propenoic acid, 3-(3,4,5-trimethoxyphenyl)-, (2<em>E</em>)-;Cinnamic acid, 3,4,5-trimethoxy-, (<em>E</em>)-;2-Propenoic acid, 3-(3,4,5-trimethoxyphenyl)-, (<em>E</em>)-;(2<em>E</em>)-3-(3,4,5-Trimethoxyphenyl)-2-propenoic acid;3,4,5-Trimethoxy-<em>trans</em>-cinnamic acid;(<em>E</em>)-3,4,5-Trimethoxycinnamic acid;(<em>E</em>)-3,4,5-Trimethoxyphenylacrylic acid;<em>trans</em>-3,4,5-Trimethoxycinnamic acid;(E)-3-(3,4,5-Trimethoxyphenyl)acrylic acid;(<em>E</em>)-3-(3,4,5-Trimethoxyphenyl)acrylic acid;(E)-3,4,5-Trimethoxycinnamic acid",
    "duplicated_cas_no": "",
    "SMILES": "O(C)C1=C(OC)C(OC)=CC(/C=C/C(O)=O)=C1",
    "meta_data": {
        "InChI": "InChI=1S/C12H14O5/c1-15-9-6-8(4-5-11(13)14)7-10(16-2)12(9)17-3/h4-7H,1-3H3,(H,13,14)/b5-4+",
        "InChIKey": null,
        "Canonical SMILES": "O=C(O)C=CC1=CC(OC)=C(OC)C(OC)=C1",
        "Molecular Formula": "C<sub>12</sub>H<sub>14</sub>O<sub>5</sub>",
        "Molecular Mass": "238.24",
        "Melting Point": "124-125 °C"
    }
}