{
    "cas_no": "16485-10-2",
    "key_name": "<span class=\"text-smallcaps\">DL</span>-Panthenol",
    "cn_name": "DL-泛醇;DL-2,4-二羟基-N-(3-羟丙基)-3,3-二甲基丁酰胺;",
    "alternate_name": "Butanamide, 2,4-dihydroxy-<em>N</em>-(3-hydroxypropyl)-3,3-dimethyl-;Butyramide, 2,4-dihydroxy-<em>N</em>-(3-hydroxypropyl)-3,3-dimethyl-, (±)-;Butanamide, 2,4-dihydroxy-<em>N</em>-(3-hydroxypropyl)-3,3-dimethyl-, (±)-;Butyramide, α,γ-dihydroxy-<em>N</em>-(3-hydroxypropyl)-β,β-dimethyl-;2,4-Dihydroxy-<em>N</em>-(3-hydroxypropyl)-3,3-dimethylbutanamide;(±)-2,4-Dihydroxy-<em>N</em>-(3-hydroxypropyl)-3,3-dimethylbutyramide;<span class=\"text-smallcaps\">DL</span>-Pantothenol;<span class=\"text-smallcaps\">DL</span>-Panthenol;2,4-Dihydroxy-<em>N</em>-(3-hydroxypropyl)-3,3-dimethylbutyramide;<span class=\"text-smallcaps\">DL</span>-Pantothenyl alcohol;Ritapan DL",
    "duplicated_cas_no": "62507-76-0",
    "SMILES": "C(C(NCCCO)=O)(C(CO)(C)C)O",
    "meta_data": {
        "InChI": "InChI=1S/C9H19NO4/c1-9(2,6-12)7(13)8(14)10-4-3-5-11/h7,11-13H,3-6H2,1-2H3,(H,10,14)",
        "InChIKey": null,
        "Canonical SMILES": "O=C(NCCCO)C(O)C(C)(C)CO",
        "Molecular Formula": "C<sub>9</sub>H<sub>19</sub>NO<sub>4</sub>",
        "Molecular Mass": "205.25",
        "Boiling Point": "118-120 °C @ Press: 0.02 Torr",
        "Melting Point": "60-61 °C"
    }
}