{
    "cas_no": "75-31-0",
    "key_name": "Isopropylamine",
    "cn_name": "异丙胺;甲基乙胺;2-氨基丙烷;",
    "alternate_name": "2-Propanamine;Isopropylamine;2-Aminopropane;Monoisopropylamine;2-Propylamine;<em>sec</em>-Propylamine;1-Methylethylamine;NSC 62775;Propan-2-ylamine;2-Isopropylamine;Propan-2-amine",
    "duplicated_cas_no": "85404-24-6",
    "SMILES": "C(C)(C)N",
    "meta_data": {
        "InChI": "InChI=1S/C3H9N/c1-3(2)4/h3H,4H2,1-2H3",
        "InChIKey": null,
        "Canonical SMILES": "NC(C)C",
        "Molecular Formula": "C<sub>3</sub>H<sub>9</sub>N",
        "Molecular Mass": "59.11",
        "Boiling Point": "33-34 °C",
        "Melting Point": "-101 °C",
        "Density": "0.694 g/cm³ @ Temp: 15 °C"
    }
}