{
    "cas_no": "1344-43-0",
    "key_name": "Manganese oxide (MnO)",
    "cn_name": "氧化锰;一氧化锰;氧化亚锰;氧化锰(II);",
    "alternate_name": "Manganese oxide (MnO);C.I. 77726;Cassel Green;Manganese Green;Manganous oxide;Rosenstiehl Green;Nu-Manese;Manganese monoxide;Manganese monooxide;Manganese oxide;Manganese(II) oxide",
    "duplicated_cas_no": "",
    "SMILES": "[Mn]=O",
    "meta_data": {
        "InChI": "InChI=1S/Mn.O",
        "InChIKey": null,
        "Canonical SMILES": "O=[Mn]",
        "Molecular Formula": "MnO",
        "Molecular Mass": "",
        "Melting Point": "1840 °C",
        "Density": "5.37 g/cm³"
    }
}