{
    "cas_no": "71985-80-3",
    "key_name": "4-Piperidinecarboxylic acid, 1-methyl-, hydrochloride (1:1)",
    "cn_name": null,
    "alternate_name": "4-Piperidinecarboxylic acid, 1-methyl-, hydrochloride (1:1);4-Piperidinecarboxylic acid, 1-methyl-, hydrochloride;Isonipecotic acid, 1-methyl-, hydrochloride;1-Methylisonipecotic acid hydrochloride;1-Methylpiperidine-4-carboxylic acid hydrochloride;4-Carboxy-1-methylpiperidinium chloride;<em>N</em>-Methylpiperidine-4-carboxylic acid hydrochloride",
    "duplicated_cas_no": "71235-92-2",
    "SMILES": "C(O)(=O)C1CCN(C)CC1.Cl",
    "meta_data": {
        "InChI": "InChI=1S/C7H13NO2.ClH/c1-8-4-2-6(3-5-8)7(9)10;/h6H,2-5H2,1H3,(H,9,10);1H",
        "InChIKey": null,
        "Canonical SMILES": "Cl.O=C(O)C1CCN(C)CC1",
        "Molecular Formula": "C<sub>7</sub>H<sub>13</sub>NO<sub>2</sub>.ClH",
        "Molecular Mass": "",
        "Melting Point": "231-232 °C"
    }
}