{
    "cas_no": "103577-45-3",
    "key_name": "Lansoprazole",
    "cn_name": "兰索拉唑;2-[[[3-甲基-4-(2,2,2-三氟乙氧基)-2-吡啶基]甲基]亚磺酰基]-1H-苯并咪唑;",
    "alternate_name": "1<em>H</em>-Benzimidazole, 2-[[[3-methyl-4-(2,2,2-trifluoroethoxy)-2-pyridinyl]methyl]sulfinyl]-;2-[[[3-Methyl-4-(2,2,2-trifluoroethoxy)-2-pyridinyl]methyl]sulfinyl]-1<em>H</em>-benzimidazole;AG 1749;Lansoprazole;A 65006;(±)-Lansoprazole;Prevacid;PP/K-10;Lanfast;Lanzor;2-[[[3-Methyl-4-(2,2,2-trifluoroethoxy)-2-pyridyl]methyl]sulfinyl]-1<em>H</em>-benzimidazole;Ilsatec;Agopton;Lanproton;Lansopep;Lanston;Lanz;Lanzol 30;Lanzopral;Ogastro;Promp;Prosogan;Suprecid;Takepron;Ulpax;Zoton;Ketian;Lancid;Ogast;Lansophed;Lapraz;Lansox;Takepron OD;Tapepron;2-[[[3-Methyl-4-(2,2,2-trifluoroethoxy)-2-pyridyl]methyl]sulfinyl]benzimidazole;Lansor;Lanzol;Lansofast;Propilan;Lanzole;Lanzopen;2-[[[4-(2,2,2-Trifluoroethoxy)-3-methylpyridin-2-yl]methyl]sulfinyl]-1<em>H</em>-benzimidazole;Lanpro;2-(((3-Methyl-4-(2,2,2-trifluoroethoxy)pyridin-2-yl)methyl)sulfinyl)-1<em>H</em>-benzimidazole;Lanzo;Cinfa;Davur;Alter;Lanso;(±)-Lansoprazol;Levant;RS-lansoprazole;Lasoprazole;2-(((3-Methyl-4-(2,2,2-trifluoroethoxy)pyridin-2-yl)methyl)sulfinyl)-1<em>H</em>-benzo[<em>d</em>]imidazole;2-[3-Methyl-4-(2,2,2-trifluoro-ethoxy)-pyridin-2-ylmethanesulfinyl]-1<em>H</em>-benzoimidazole;MeSH ID: D064747",
    "duplicated_cas_no": "154727-72-7;909251-59-8",
    "SMILES": "S(CC1=C(C)C(OCC(F)(F)F)=CC=N1)(=O)C=2NC=3C(N2)=CC=CC3",
    "meta_data": {
        "InChI": "InChI=1S/C16H14F3N3O2S/c1-10-13(20-7-6-14(10)24-9-16(17,18)19)8-25(23)15-21-11-4-2-3-5-12(11)22-15/h2-7H,8-9H2,1H3,(H,21,22)",
        "InChIKey": null,
        "Canonical SMILES": "O=S(C1=NC=2C=CC=CC2N1)CC3=NC=CC(OCC(F)(F)F)=C3C",
        "Molecular Formula": "C<sub>16</sub>H<sub>14</sub>F<sub>3</sub>N<sub>3</sub>O<sub>2</sub>S",
        "Molecular Mass": "369.36",
        "Melting Point": "178-182 °C (decomp)"
    }
}