{
    "cas_no": "1702-17-6",
    "key_name": "Clopyralid",
    "cn_name": "3,6-二氯吡啶羧酸;3,6-二氯吡啶-2-羧酸;二氯皮考啉酸;",
    "alternate_name": "2-Pyridinecarboxylic acid, 3,6-dichloro-;Picolinic acid, 3,6-dichloro-;3,6-Dichloro-2-pyridinecarboxylic acid;3,6-Dichloropicolinic acid;Dowco 290;Matrigon;Lontrel;3,6-Dichloro-2-picolinic acid;XRM 3972;Lontrel 3;Clopyralid;IWD 3523;Lontrel 300;Versatill;Stinger;Cirtoxin;Lontrel L;Lontrel 100;Transline;Dichloro pyridine acid;Diclopyr;Faworyt;Faworyt 300SL;Lornet",
    "duplicated_cas_no": "",
    "SMILES": "C(O)(=O)C1=C(Cl)C=CC(Cl)=N1",
    "meta_data": {
        "InChI": "InChI=1S/C6H3Cl2NO2/c7-3-1-2-4(8)9-5(3)6(10)11/h1-2H,(H,10,11)",
        "InChIKey": null,
        "Canonical SMILES": "O=C(O)C1=NC(Cl)=CC=C1Cl",
        "Molecular Formula": "C<sub>6</sub>H<sub>3</sub>Cl<sub>2</sub>NO<sub>2</sub>",
        "Molecular Mass": "192.00",
        "Melting Point": "151-152 °C"
    }
}