{
    "cas_no": "3094-09-5",
    "key_name": "Doxifluridine",
    "cn_name": "去氧氟尿苷;去氧氟尿甙;5\"-脱氧-5-氟尿嘧啶核苷;",
    "alternate_name": "Uridine, 5′-deoxy-5-fluoro-;5′-Deoxy-5-fluorouridine;Ro 21-9738;Doxifluridine;5-Fluoro-5′-deoxyuridine;5-Fluorodesoxyuridine;5′-DFUR;Furtulon;5′-dFUrd;Flutron;Fulturon",
    "duplicated_cas_no": "1226642-64-3",
    "SMILES": "O[C@H]1[C@@H](O[C@H](C)[C@H]1O)N2C(=O)NC(=O)C(F)=C2",
    "meta_data": {
        "InChI": "InChI=1S/C9H11FN2O5/c1-3-5(13)6(14)8(17-3)12-2-4(10)7(15)11-9(12)16/h2-3,5-6,8,13-14H,1H3,(H,11,15,16)/t3-,5-,6-,8-/m1/s1",
        "InChIKey": null,
        "Canonical SMILES": "O=C1NC(=O)N(C=C1F)C2OC(C)C(O)C2O",
        "Molecular Formula": "C<sub>9</sub>H<sub>11</sub>FN<sub>2</sub>O<sub>5</sub>",
        "Molecular Mass": "246.19",
        "Melting Point": "190 °C"
    }
}