{
    "cas_no": "17587-22-3",
    "key_name": "6,6,7,7,8,8,8-Heptafluoro-2,2-dimethyl-3,5-octanedione",
    "cn_name": "1,1,1,2,2,3,3-七氟代-7,7-二甲基-4,6-辛二酮;",
    "alternate_name": "3,5-Octanedione, 6,6,7,7,8,8,8-heptafluoro-2,2-dimethyl-;6,6,7,7,8,8,8-Heptafluoro-2,2-dimethyl-3,5-octanedione;1,1,1,2,2,3,3-Heptafluoro-7,7-dimethyl-4,6-octanedione;Fod;2,2-Dimethyl-6,6,7,7,8,8,8-heptafluoro-3,5-octanedione;(Heptafluorobutanoyl)pivaloylmethane;2,2-Dimethyl-6,6,7,7,8,8,8-heptafluoro-3,5-heptanedione",
    "duplicated_cas_no": "",
    "SMILES": "C(C(C(F)(F)F)(F)F)(C(CC(C(C)(C)C)=O)=O)(F)F",
    "meta_data": {
        "InChI": "InChI=1S/C10H11F7O2/c1-7(2,3)5(18)4-6(19)8(11,12)9(13,14)10(15,16)17/h4H2,1-3H3",
        "InChIKey": null,
        "Canonical SMILES": "O=C(CC(=O)C(C)(C)C)C(F)(F)C(F)(F)C(F)(F)F",
        "Molecular Formula": "C<sub>10</sub>H<sub>11</sub>F<sub>7</sub>O<sub>2</sub>",
        "Molecular Mass": "296.18",
        "Boiling Point": "46-47 °C",
        "Melting Point": "38 °C"
    }
}