{
    "cas_no": "13292-46-1",
    "key_name": "Rifampicin",
    "cn_name": "利福平;3-[[(4-甲基-1-哌嗪基)亚氨基]甲基]-利福霉素;",
    "alternate_name": "Rifamycin, 3-[[(4-methyl-1-piperazinyl)imino]methyl]-;2,7-(Epoxypentadeca[1,11,13]trienimino)naphtho[2,1-<em>b</em>]furan-1,11(2<em>H</em>)-dione, 5,6,9,17,19,21-hexahydroxy-23-methoxy-2,4,12,16,18,20,22-heptamethyl-8-[<em>N</em>-(4-methyl-1-piperazinyl)formimidoyl]-, 21-acetate;2,7-(Epoxypentadeca[1,11,13]trienimino)naphtho[2,1-<em>b</em>]furan-1,11(2<em>H</em>)-dione, 5,6,9,17,19,21-hexahydroxy-23-methoxy-2,4,12,16,20,22-heptamethyl-8-[<em>N</em>-(4-methyl-1-piperazinyl)formimidoyl]-, 21-acetate;2,7-(Epoxypentadeca[1,11,13]trienimino)naphtho[2,1-<em>b</em>]furan, rifamycin deriv.;3-[[(4-Methyl-1-piperazinyl)imino]methyl]rifamycin;5,6,9,17,19,21-Hexahydroxy-23-methoxy-2,4,12,16,18,20,22-heptamethyl-8-[<em>N</em>-(4-methyl-1-piperazinyl)formimidoyl]-2,7-(epoxypentadeca[1,11,13]trienimino)-naphtho[2,1-<em>b</em>]furan-1,11(2<em>H</em>)-dione 21-acetate;Rifampicin;Rifampin;Rifaldazine;Rifamycin AMP;Rimactan;Rifampicin SV;Rifadin;3-[(4-Methyl-1-piperazinyl)iminomethyl]rifamycin SV;R/AMP;Rifa;Rifadine;Rifaldin;Rifoldine;Riforal;Tubocin;NSC 113926;Sinerdol;Famcin;R-Cin;Rimapen;NIH 10782;Rifaprodin;Eremfat;Refampicin;Ba 41166/E;Rimactane;Abrifam;Rifoldin;L 5103 Lepetit;Rifacap;Rifodex;Rifactine",
    "duplicated_cas_no": "16739-94-9;401936-55-8;412909-16-1;724692-91-5;807261-43-4;1349223-72-8",
    "SMILES": "",
    "meta_data": {
        "InChI": "",
        "InChIKey": null,
        "Canonical SMILES": "",
        "Molecular Formula": "C<sub>43</sub>H<sub>58</sub>N<sub>4</sub>O<sub>12</sub>",
        "Molecular Mass": "822.94",
        "Melting Point": "184-185 °C"
    }
}