{
    "cas_no": "93-97-0",
    "key_name": "Benzoic anhydride",
    "cn_name": "苯甲酸酐;安息香酸酐;",
    "alternate_name": "Benzoic acid, 1,1′-anhydride;Benzoic anhydride;Benzoic acid, anhydride;Benzoyl anhydride;Benzoyl benzoate;NSC 37116;Bis(phenylcarbonyl)ether",
    "duplicated_cas_no": "",
    "SMILES": "C(OC(=O)C1=CC=CC=C1)(=O)C2=CC=CC=C2",
    "meta_data": {
        "InChI": "InChI=1S/C14H10O3/c15-13(11-7-3-1-4-8-11)17-14(16)12-9-5-2-6-10-12/h1-10H",
        "InChIKey": null,
        "Canonical SMILES": "O=C(OC(=O)C=1C=CC=CC1)C=2C=CC=CC2",
        "Molecular Formula": "C<sub>14</sub>H<sub>10</sub>O<sub>3</sub>",
        "Molecular Mass": "226.23",
        "Boiling Point": "360 °C",
        "Melting Point": "42.5 °C"
    }
}