{
    "cas_no": "99-59-2",
    "key_name": "2-Methoxy-5-nitroaniline",
    "cn_name": "2-氨基-4-硝基苯甲醚;",
    "alternate_name": "Benzenamine, 2-methoxy-5-nitro-;<em>o</em>-Anisidine, 5-nitro-;2-Methoxy-5-nitrobenzenamine;1-Amino-2-methoxy-5-nitrobenzene;2-Methoxy-5-nitroaniline;5-Nitro-2-methoxyaniline;2-Amino-4-nitroanisole;5-Nitro-<em>o</em>-anisidine;3-Nitro-6-methoxyaniline;Azoamine Scarlet K;2-Amino-1-methoxy-4-nitrobenzene;1-Methoxy-2-amino-4-nitrobenzene;4-Nitro-2-aminoanisole;NSC 5510;(2-Methoxy-5-nitrophenyl)amine;2-(Methyloxy)-5-nitroaniline",
    "duplicated_cas_no": "52756-54-4",
    "SMILES": "N(=O)(=O)C1=CC(N)=C(OC)C=C1",
    "meta_data": {
        "InChI": "InChI=1S/C7H8N2O3/c1-12-7-3-2-5(9(10)11)4-6(7)8/h2-4H,8H2,1H3",
        "InChIKey": null,
        "Canonical SMILES": "O=N(=O)C1=CC=C(OC)C(N)=C1",
        "Molecular Formula": "C<sub>7</sub>H<sub>8</sub>N<sub>2</sub>O<sub>3</sub>",
        "Molecular Mass": "168.15",
        "Boiling Point": "153-156 °C @ Press: 1.45 Torr",
        "Melting Point": "118 °C",
        "Density": "1.2068 g/cm³ @ Temp: 156 °C"
    }
}