{
    "cas_no": "2745-49-5",
    "key_name": "2,5-Dichlorobenzyl chloride",
    "cn_name": null,
    "alternate_name": "Benzene, 1,4-dichloro-2-(chloromethyl)-;Toluene, α,2,5-trichloro-;1,4-Dichloro-2-(chloromethyl)benzene;2,5-Dichlorobenzyl chloride;(2,5-Dichlorophenyl)methyl chloride",
    "duplicated_cas_no": "",
    "SMILES": "C(Cl)C1=C(Cl)C=CC(Cl)=C1",
    "meta_data": {
        "InChI": "InChI=1S/C7H5Cl3/c8-4-5-3-6(9)1-2-7(5)10/h1-3H,4H2",
        "InChIKey": null,
        "Canonical SMILES": "ClC1=CC=C(Cl)C(=C1)CCl",
        "Molecular Formula": "C<sub>7</sub>H<sub>5</sub>Cl<sub>3</sub>",
        "Molecular Mass": "195.47",
        "Boiling Point": "102 °C @ Press: 10 Torr",
        "Density": "1.3048 g/cm³ @ Temp: 20 °C"
    }
}