{
    "cas_no": "141-43-5",
    "key_name": "Ethanolamine",
    "cn_name": "乙醇胺;2-氨基乙醇;2-羟基乙胺;一乙醇胺;单乙醇胺;",
    "alternate_name": "Ethanol, 2-amino-;2-Aminoethanol;β-Aminoethyl alcohol;Ethanolamine;Ethylolamine;Glycinol;2-Hydroxyethylamine;β-Hydroxyethylamine;β-Ethanolamine;Monoethanolamine;MEA;Olamine;Aminoethanol;2-Amino-1-ethanol;2-Ethanolamine;β-Aminoethanol;Colamine;2-Hydroxyethanamine;1-Amino-2-hydroxyethane;MEA (alcohol);2-Aminoethyl alcohol;ETA;Envision Conditioner PDD 9020;Seramine;Mealan;MEA-LCI;MEA 90;R 100 (amine);R 100;Kolamin;R 8747;HT 95;2-Aminoethan-1-ol;MeSH ID: D019856",
    "duplicated_cas_no": "9007-33-4;2122854-11-7;2169804-94-6",
    "SMILES": "C(CO)N",
    "meta_data": {
        "InChI": "InChI=1S/C2H7NO/c3-1-2-4/h4H,1-3H2",
        "InChIKey": null,
        "Canonical SMILES": "OCCN",
        "Molecular Formula": "C<sub>2</sub>H<sub>7</sub>NO",
        "Molecular Mass": "61.08",
        "Boiling Point": "170.8 °C @ Press: 760 Torr",
        "Melting Point": "10.3 °C",
        "Density": "1.0180 g/cm³ @ Temp: 20 °C"
    }
}