{
    "cas_no": "6095-42-7",
    "key_name": "Phosphorous acid, trihexyl ester",
    "cn_name": "三正己基亚磷酸酯;",
    "alternate_name": "Phosphorous acid, trihexyl ester;Hexyl phosphite ((C<sub>6</sub>H<sub>13</sub>O)<sub>3</sub>P);Hexyl phosphite;Trihexyl phosphite;Tri-<em>n</em>-hexyl phosphite;NSC 5638",
    "duplicated_cas_no": "",
    "SMILES": "P(OCCCCCC)(OCCCCCC)OCCCCCC",
    "meta_data": {
        "InChI": "InChI=1S/C18H39O3P/c1-4-7-10-13-16-19-22(20-17-14-11-8-5-2)21-18-15-12-9-6-3/h4-18H2,1-3H3",
        "InChIKey": null,
        "Canonical SMILES": "O(P(OCCCCCC)OCCCCCC)CCCCCC",
        "Molecular Formula": "C<sub>18</sub>H<sub>39</sub>O<sub>3</sub>P",
        "Molecular Mass": "334.47",
        "Boiling Point": "123-126 °C @ Press: 0.15 Torr",
        "Density": "0.9006 g/cm³ @ Temp: 20 °C"
    }
}