{
    "cas_no": "70260-17-2",
    "key_name": "3-Bromo-2-thiophenemethanol",
    "cn_name": null,
    "alternate_name": "2-Thiophenemethanol, 3-bromo-;3-Bromo-2-thiophenemethanol;3-Bromo-2-(hydroxymethyl)thiophene;(3-Bromothiophen-2-yl)methanol",
    "duplicated_cas_no": "",
    "SMILES": "C(O)C1=C(Br)C=CS1",
    "meta_data": {
        "InChI": "InChI=1S/C5H5BrOS/c6-4-1-2-8-5(4)3-7/h1-2,7H,3H2",
        "InChIKey": null,
        "Canonical SMILES": "BrC=1C=CSC1CO",
        "Molecular Formula": "C<sub>5</sub>H<sub>5</sub>BrOS",
        "Molecular Mass": "193.06",
        "Boiling Point": "147-148 °C @ Press: 20 Torr"
    }
}