{
    "cas_no": "454-81-9",
    "key_name": "2-Amino-4-(trifluoromethyl)phenol",
    "cn_name": null,
    "alternate_name": "Phenol, 2-amino-4-(trifluoromethyl)-;<em>p</em>-Cresol, 2-amino-α,α,α-trifluoro-;2-Amino-4-(trifluoromethyl)phenol;2-Amino-4-trifluoromethylphenol;4-(Trifluoromethyl)-2-aminophenol;2-Hydroxy-5-(trifluoromethyl)aniline",
    "duplicated_cas_no": "",
    "SMILES": "C(F)(F)(F)C1=CC(N)=C(O)C=C1",
    "meta_data": {
        "InChI": "InChI=1S/C7H6F3NO/c8-7(9,10)4-1-2-6(12)5(11)3-4/h1-3,12H,11H2",
        "InChIKey": null,
        "Canonical SMILES": "FC(F)(F)C1=CC=C(O)C(N)=C1",
        "Molecular Formula": "C<sub>7</sub>H<sub>6</sub>F<sub>3</sub>NO",
        "Molecular Mass": "177.12",
        "Melting Point": "121-122 °C"
    }
}