{
    "cas_no": "83657-17-4",
    "key_name": "Uniconazole P",
    "cn_name": "烯效唑标准品;",
    "alternate_name": "1<em>H</em>-1,2,4-Triazole-1-ethanol, β-[(4-chlorophenyl)methylene]-α-(1,1-dimethylethyl)-, (α<em>S</em>,β<em>E</em>)-;1<em>H</em>-1,2,4-Triazole-1-ethanol, β-[(4-chlorophenyl)methylene]-α-(1,1-dimethylethyl)-, [<em>S</em>-(<em>E</em>)]-;(α<em>S</em>,β<em>E</em>)-β-[(4-Chlorophenyl)methylene]-α-(1,1-dimethylethyl)-1<em>H</em>-1,2,4-triazole-1-ethanol;Uniconazole P;(<em>S</em>)-S 3307;(<em>S</em>)-Uniconazole;Lomica;Sunny;Sumiseven P",
    "duplicated_cas_no": "",
    "SMILES": "C(=C\\C1=CC=C(Cl)C=C1)(\\[C@H](C(C)(C)C)O)/N2C=NC=N2",
    "meta_data": {
        "InChI": "InChI=1S/C15H18ClN3O/c1-15(2,3)14(20)13(19-10-17-9-18-19)8-11-4-6-12(16)7-5-11/h4-10,14,20H,1-3H3/b13-8+/t14-/m1/s1",
        "InChIKey": null,
        "Canonical SMILES": "ClC1=CC=C(C=C1)C=C(N2N=CN=C2)C(O)C(C)(C)C",
        "Molecular Formula": "C<sub>15</sub>H<sub>18</sub>ClN<sub>3</sub>O",
        "Molecular Mass": "291.78",
        "Melting Point": "153 °C"
    }
}