{
    "cas_no": "6403-16-3",
    "key_name": "<em>N</em>-<span class=\"text-smallcaps\">L</smallcap>-Seryl-<smallcap>L</span>-glutamic acid",
    "cn_name": null,
    "alternate_name": "<span class=\"text-smallcaps\">L</smallcap>-Glutamic acid, <smallcap>L</span>-seryl-;Glutamic acid, <em>N</em>-<span class=\"text-smallcaps\">L</smallcap>-seryl-, <smallcap>L</span>-;<span class=\"text-smallcaps\">L</smallcap>-Glutamic acid, <em>N</em>-<smallcap>L</span>-seryl-;<span class=\"text-smallcaps\">L</smallcap>-Seryl-<smallcap>L</span>-glutamic acid;<em>N</em>-<span class=\"text-smallcaps\">L</smallcap>-Seryl-<smallcap>L</span>-glutamic acid;Serylglutamic acid;455: PN: WO2005081628 SEQID: 457 claimed protein;L-Selectin (human clone MMPLNHR_P6 fragment);76: PN: US20100075891 SEQID: 76 claimed protein;47: PN: WO2014063098 TABLE: 5 claimed sequence;161: PN: US20130123467 SEQID: 193 claimed protein",
    "duplicated_cas_no": "",
    "SMILES": "[C@H](NC([C@H](CO)N)=O)(CCC(O)=O)C(O)=O",
    "meta_data": {
        "InChI": "InChI=1S/C8H14N2O6/c9-4(3-11)7(14)10-5(8(15)16)1-2-6(12)13/h4-5,11H,1-3,9H2,(H,10,14)(H,12,13)(H,15,16)/t4-,5-/m0/s1",
        "InChIKey": null,
        "Canonical SMILES": "O=C(O)CCC(NC(=O)C(N)CO)C(=O)O",
        "Molecular Formula": "C<sub>8</sub>H<sub>14</sub>N<sub>2</sub>O<sub>6</sub>",
        "Molecular Mass": "234.21",
        "Melting Point": "192-195 °C"
    }
}