{
    "cas_no": "2439-56-7",
    "key_name": "Cyclopentylmethylamine",
    "cn_name": "环戊基甲基胺;环戊基甲基胺;",
    "alternate_name": "Cyclopentanamine, <em>N</em>-methyl-;Cyclopentylamine, <em>N</em>-methyl-;<em>N</em>-Methylcyclopentanamine;<em>N</em>-Methylcyclopentylamine;Cyclopentylmethylamine;<em>N</em>-Cyclopentyl-<em>N</em>-methylamine;(Methylamino)cyclopentane;Methyl(cyclopentyl)amine",
    "duplicated_cas_no": "",
    "SMILES": "N(C)C1CCCC1",
    "meta_data": {
        "InChI": "InChI=1S/C6H13N/c1-7-6-4-2-3-5-6/h6-7H,2-5H2,1H3",
        "InChIKey": null,
        "Canonical SMILES": "N(C)C1CCCC1",
        "Molecular Formula": "C<sub>6</sub>H<sub>13</sub>N",
        "Molecular Mass": "99.17",
        "Boiling Point": "124 °C",
        "Density": "0.840 g/cm³ @ Temp: 25 °C"
    }
}