{
    "cas_no": "103-63-9",
    "key_name": "Phenethyl bromide",
    "cn_name": "beta-溴代苯乙烷;溴苯乙烷;",
    "alternate_name": "Benzene, (2-bromoethyl)-;(2-Bromoethyl)benzene;Phenethyl bromide;1-Bromo-2-phenylethane;2-Phenethyl bromide;β-Bromoethylbenzene;β-Phenethyl bromide;2-Phenylethyl bromide;β-Phenylethyl bromide;Phenylethyl bromide;2-Phenyl-1-bromoethane;1-Phenyl-2-bromoethane;2-Bromo-1-phenylethane;2-Phenylbromoethane;NSC 33926;Benzene, (2-bromoethyl)-, hydrobromide (1:1)",
    "duplicated_cas_no": "2765453-80-1",
    "SMILES": "C(CBr)C1=CC=CC=C1",
    "meta_data": {
        "InChI": "InChI=1S/C8H9Br/c9-7-6-8-4-2-1-3-5-8/h1-5H,6-7H2",
        "InChIKey": null,
        "Canonical SMILES": "BrCCC=1C=CC=CC1",
        "Molecular Formula": "C<sub>8</sub>H<sub>9</sub>Br",
        "Molecular Mass": "185.06",
        "Boiling Point": "219 °C",
        "Melting Point": "-67.5 °C",
        "Density": "1.355 g/cm³"
    }
}