{
    "cas_no": "82-95-1",
    "key_name": "Buclizine",
    "cn_name": null,
    "alternate_name": "Piperazine, 1-[(4-chlorophenyl)phenylmethyl]-4-[[4-(1,1-dimethylethyl)phenyl]methyl]-;Piperazine, 1-(<em>p</em>-<em>tert</em>-butylbenzyl)-4-(<em>p</em>-chloro-α-phenylbenzyl)-;1-[(4-Chlorophenyl)phenylmethyl]-4-[[4-(1,1-dimethylethyl)phenyl]methyl]piperazine;AH 2526;Buclizine;1-(<em>p</em>-<em>tert</em>-Butylbenzyl)-4-(<em>p</em>-chloro-α-phenylbenzyl)piperazine;1-(<em>p</em>-Chlorobenzhydryl)-4-(<em>p</em>-<em>tert</em>-butylbenzyl)-diethylenediamine;1-(<em>p</em>-Chlorobenzhydryl)-4-(<em>p</em>-<em>tert</em>-butylbenzyl)-piperazine;1-(<em>p</em>-Chloro-α-phenylbenzyl)-4-(<em>p</em>-<em>tert</em>-butylbenzyl)piperazine;Histabuticine;Histabutyzine;Histabutizine;Buclifen;Aphilan R base;Posdel;Postafen;Hitabutyzyne;1-(4-(<em>tert</em>-Butyl)benzyl)-4-((4-chlorophenyl)(phenyl)methyl)piperazine",
    "duplicated_cas_no": "",
    "SMILES": "C(N1CCN(CC2=CC=C(C(C)(C)C)C=C2)CC1)(C3=CC=C(Cl)C=C3)C4=CC=CC=C4",
    "meta_data": {
        "InChI": "InChI=1S/C28H33ClN2/c1-28(2,3)25-13-9-22(10-14-25)21-30-17-19-31(20-18-30)27(23-7-5-4-6-8-23)24-11-15-26(29)16-12-24/h4-16,27H,17-21H2,1-3H3",
        "InChIKey": null,
        "Canonical SMILES": "ClC1=CC=C(C=C1)C(C=2C=CC=CC2)N3CCN(CC4=CC=C(C=C4)C(C)(C)C)CC3",
        "Molecular Formula": "C<sub>28</sub>H<sub>33</sub>ClN<sub>2</sub>",
        "Molecular Mass": "433.03",
        "Boiling Point": "218 °C",
        "Melting Point": "78-85 °C"
    }
}