{
    "cas_no": "112-99-2",
    "key_name": "Dioctadecylamine",
    "cn_name": "N-十八烷基-1-十八胺;",
    "alternate_name": "1-Octadecanamine, <em>N</em>-octadecyl-;Dioctadecylamine;<em>N</em>-Octadecyl-1-octadecanamine;Bis(octadecyl)amine;Distearylamine;Armeen 2-18;Genamin SH 200;Di-<em>n</em>-octadecylamine;<em>N</em>,<em>N</em>-Dioctadecylamine",
    "duplicated_cas_no": "",
    "SMILES": "N(CCCCCCCCCCCCCCCCCC)CCCCCCCCCCCCCCCCCC",
    "meta_data": {
        "InChI": "InChI=1S/C36H75N/c1-3-5-7-9-11-13-15-17-19-21-23-25-27-29-31-33-35-37-36-34-32-30-28-26-24-22-20-18-16-14-12-10-8-6-4-2/h37H,3-36H2,1-2H3",
        "InChIKey": null,
        "Canonical SMILES": "N(CCCCCCCCCCCCCCCCCC)CCCCCCCCCCCCCCCCCC",
        "Molecular Formula": "C<sub>36</sub>H<sub>75</sub>N",
        "Molecular Mass": "521.99",
        "Melting Point": "90-91 °C"
    }
}