{
    "cas_no": "1137-04-8",
    "key_name": "5-Methoxy-α-methyltryptamine",
    "cn_name": "5-甲氧基-2-甲基色胺;",
    "alternate_name": "1<em>H</em>-Indole-3-ethanamine, 5-methoxy-α-methyl-;Indole, 3-(2-aminopropyl)-5-methoxy-;5-Methoxy-α-methyl-1<em>H</em>-indole-3-ethanamine;5-Methoxy-α-methyltryptamine;α-Methyl-5-methoxytryptamine;α,<em>O</em>-Dimethylserotonin;1-(5-Methoxy-1<em>H</em>-indol-3-yl)propan-2-amine",
    "duplicated_cas_no": "85181-23-3",
    "SMILES": "C(C(C)N)C=1C=2C(NC1)=CC=C(OC)C2",
    "meta_data": {
        "InChI": "InChI=1S/C12H16N2O/c1-8(13)5-9-7-14-12-4-3-10(15-2)6-11(9)12/h3-4,6-8,14H,5,13H2,1-2H3",
        "InChIKey": null,
        "Canonical SMILES": "O(C=1C=CC=2NC=C(C2C1)CC(N)C)C",
        "Molecular Formula": "C<sub>12</sub>H<sub>16</sub>N<sub>2</sub>O",
        "Molecular Mass": "204.27",
        "Boiling Point": "187-190 °C @ Press: 0.3 Torr",
        "Melting Point": "102 °C"
    }
}