{
    "cas_no": "1116-22-9",
    "key_name": "<span class=\"text-smallcaps\">L</smallcap>-γ-Glutamyl-<smallcap>L</span>-glutamic acid",
    "cn_name": null,
    "alternate_name": "<span class=\"text-smallcaps\">L</smallcap>-Glutamic acid, <smallcap>L</span>-γ-glutamyl-;Glutamic acid, <em>N</em>-<span class=\"text-smallcaps\">L</smallcap>-γ-glutamyl-, <smallcap>L</span>-;<span class=\"text-smallcaps\">L</smallcap>-Glutamic acid, <em>N</em>-<smallcap>L</span>-γ-glutamyl-;Glutamic acid, <em>N</em>-<span class=\"text-smallcaps\">L</span>-γ-glutamyl-;<span class=\"text-smallcaps\">L</smallcap>-γ-Glutamyl-<smallcap>L</span>-glutamic acid;γ-Glutamylglutamic acid;γ-<span class=\"text-smallcaps\">L</smallcap>-Glutamyl-<smallcap>L</span>-glutamic acid;12: PN: WO2011158590 PAGE: 34 claimed sequence",
    "duplicated_cas_no": "",
    "SMILES": "[C@H](NC(CC[C@@H](C(O)=O)N)=O)(CCC(O)=O)C(O)=O",
    "meta_data": {
        "InChI": "InChI=1S/C10H16N2O7/c11-5(9(16)17)1-3-7(13)12-6(10(18)19)2-4-8(14)15/h5-6H,1-4,11H2,(H,12,13)(H,14,15)(H,16,17)(H,18,19)/t5-,6-/m0/s1",
        "InChIKey": null,
        "Canonical SMILES": "O=C(O)CCC(NC(=O)CCC(N)C(=O)O)C(=O)O",
        "Molecular Formula": "C<sub>10</sub>H<sub>16</sub>N<sub>2</sub>O<sub>7</sub>",
        "Molecular Mass": "276.24",
        "Melting Point": "188-191 °C"
    }
}