{
    "cas_no": "54965-21-8",
    "key_name": "Albendazole",
    "cn_name": "阿苯达唑;丙硫咪唑;[5-(丙硫基)-1H-苯并咪唑-2-基]氨基甲酸甲酯;",
    "alternate_name": "Carbamic acid, <em>N</em>-[6-(propylthio)-1<em>H</em>-benzimidazol-2-yl]-, methyl ester;Carbamic acid, [5-(propylthio)-1<em>H</em>-benzimidazol-2-yl]-, methyl ester;Methyl 5-propylthio-2-benzimidazolecarbamate;Albendazole;SKF 62979;Valbazen;Vermitan;Alzental;Albamelin;Zentel;NSC 220008;Albenza;Haojing;Eskazole;Exiptol;Albendol;Alminth;Tobend;Atasol;Andazol;Vermizole;Bruzol;Helminsols;Loveral;Albenzil;Lurdex;Vermisen;Ashialben;Vetalben;Baxen;Aldifal;Alben;Alvet;(6-Propylsulfanyl-1<em>H</em>-benzoimidazol-2-yl)-carbamic acid methyl ester;(5-Propylsulfanyl-1,3-dihydro-benzoimidazol-2-ylidene)-carbamic acid methyl ester;MeSH ID: D015766",
    "duplicated_cas_no": "77695-97-7",
    "SMILES": "N(C(OC)=O)C=1NC=2C(N1)=CC(SCCC)=CC2",
    "meta_data": {
        "InChI": "InChI=1S/C12H15N3O2S/c1-3-6-18-8-4-5-9-10(7-8)14-11(13-9)15-12(16)17-2/h4-5,7H,3,6H2,1-2H3,(H2,13,14,15,16)",
        "InChIKey": null,
        "Canonical SMILES": "O=C(OC)NC1=NC=2C=C(SCCC)C=CC2N1",
        "Molecular Formula": "C<sub>12</sub>H<sub>15</sub>N<sub>3</sub>O<sub>2</sub>S",
        "Molecular Mass": "265.33",
        "Melting Point": "209 °C"
    }
}