{
    "cas_no": "16536-30-4",
    "key_name": "Bis(2,4-dinitrophenyl) oxalate",
    "cn_name": null,
    "alternate_name": "Ethanedioic acid, 1,2-bis(2,4-dinitrophenyl) ester;Oxalic acid, bis(2,4-dinitrophenyl) ester;Ethanedioic acid, bis(2,4-dinitrophenyl) ester;Phenol, 2,4-dinitro-, oxalate (2:1) (ester);Bis(2,4-dinitrophenyl) oxalate",
    "duplicated_cas_no": "",
    "SMILES": "N(=O)(=O)C1=C(OC(C(OC2=C(N(=O)=O)C=C(N(=O)=O)C=C2)=O)=O)C=CC(N(=O)=O)=C1",
    "meta_data": {
        "InChI": "InChI=1S/C14H6N4O12/c19-13(29-11-3-1-7(15(21)22)5-9(11)17(25)26)14(20)30-12-4-2-8(16(23)24)6-10(12)18(27)28/h1-6H",
        "InChIKey": null,
        "Canonical SMILES": "O=C(OC1=CC=C(C=C1N(=O)=O)N(=O)=O)C(=O)OC2=CC=C(C=C2N(=O)=O)N(=O)=O",
        "Molecular Formula": "C<sub>14</sub>H<sub>6</sub>N<sub>4</sub>O<sub>12</sub>",
        "Molecular Mass": "422.22",
        "Melting Point": "189-192 °C"
    }
}