{
    "cas_no": "2550-02-9",
    "key_name": "Propyltriethoxysilane",
    "cn_name": "丙基三乙氧基硅烷;",
    "alternate_name": "Silane, triethoxypropyl-;Triethoxypropylsilane;<em>n</em>-Propyltriethoxysilane;Silar 1249;Propyltriethoxysilane;Si 203;Dynasylan PTEO;VP-Si 203;KBE 3033;DB 8331;ZQ 701;PTS;KH 303",
    "duplicated_cas_no": "",
    "SMILES": "[Si](CCC)(OCC)(OCC)OCC",
    "meta_data": {
        "InChI": "InChI=1S/C9H22O3Si/c1-5-9-13(10-6-2,11-7-3)12-8-4/h5-9H2,1-4H3",
        "InChIKey": null,
        "Canonical SMILES": "O(CC)[Si](OCC)(OCC)CCC",
        "Molecular Formula": "C<sub>9</sub>H<sub>22</sub>O<sub>3</sub>Si",
        "Molecular Mass": "206.35",
        "Boiling Point": "179-180 °C",
        "Density": "0.891 g/cm³"
    }
}