{
    "cas_no": "1983-81-9",
    "key_name": "4,7-Dihydroxycoumarin",
    "cn_name": null,
    "alternate_name": "2<em>H</em>-1-Benzopyran-2-one, 4,7-dihydroxy-;Coumarin, 4,7-dihydroxy-;4,7-Dihydroxy-2<em>H</em>-1-benzopyran-2-one;4,7-Dihydroxycoumarin;NSC 136214;4,7-Dihydroxy-2-oxo-2<em>H</em>-1-benzopyran",
    "duplicated_cas_no": "",
    "SMILES": "OC=1C=2C(OC(=O)C1)=CC(O)=CC2",
    "meta_data": {
        "InChI": "InChI=1S/C9H6O4/c10-5-1-2-6-7(11)4-9(12)13-8(6)3-5/h1-4,10-11H",
        "InChIKey": null,
        "Canonical SMILES": "O=C1OC=2C=C(O)C=CC2C(O)=C1",
        "Molecular Formula": "C<sub>9</sub>H<sub>6</sub>O<sub>4</sub>",
        "Molecular Mass": "178.14",
        "Melting Point": "264 °C (decomp)"
    }
}