{
    "cas_no": "1501-06-0",
    "key_name": "Pentanedioic acid, 2-acetyl-, 1,5-diethyl ester",
    "cn_name": "乙酰戊二酸二乙酯;",
    "alternate_name": "Pentanedioic acid, 2-acetyl-, 1,5-diethyl ester;Glutaric acid, 2-acetyl-, diethyl ester;Pentanedioic acid, 2-acetyl-, diethyl ester;Diethyl α-acetylglutarate;Diethyl 2-acetylglutarate;NSC 42535;Diethyl 2-acetylpentanedioate;1,5-Diethyl 2-acetylpentanedioate;2-Acetyl-pentanedioic acid diethyl ester",
    "duplicated_cas_no": "80474-82-4",
    "SMILES": "C(CCC(OCC)=O)(C(OCC)=O)C(C)=O",
    "meta_data": {
        "InChI": "InChI=1S/C11H18O5/c1-4-15-10(13)7-6-9(8(3)12)11(14)16-5-2/h9H,4-7H2,1-3H3",
        "InChIKey": null,
        "Canonical SMILES": "O=C(OCC)CCC(C(=O)OCC)C(=O)C",
        "Molecular Formula": "C<sub>11</sub>H<sub>18</sub>O<sub>5</sub>",
        "Molecular Mass": "230.26",
        "Boiling Point": "140-142 °C @ Press: 7 Torr",
        "Density": "1.0695 g/cm³ @ Temp: 19 °C"
    }
}