{
    "cas_no": "15401-69-1",
    "key_name": "Benzo[<em>g</em>]-1,3-benzodioxolo[5,6-<em>a</em>]quinolizinium, 5,6-dihydro-9-hydroxy-10-methoxy-, chloride (1:1)",
    "cn_name": null,
    "alternate_name": "Benzo[<em>g</em>]-1,3-benzodioxolo[5,6-<em>a</em>]quinolizinium, 5,6-dihydro-9-hydroxy-10-methoxy-, chloride (1:1);Berbinium, 7,8,13,13a-tetradehydro-9-hydroxy-10-methoxy-2,3-(methylenedioxy)-, chloride;Benzo[<em>g</em>]-1,3-benzodioxolo[5,6-<em>a</em>]quinolizinium, 5,6-dihydro-9-hydroxy-10-methoxy-, chloride;Berberrubine chloride;9-Berberoline chloride;9-Demethoxy-9-hydroxyberberinium chloride;Beroline chloride",
    "duplicated_cas_no": "",
    "SMILES": "OC1=C2C=[N+]3C(C=4C(=CC5=C(C4)OCO5)CC3)=CC2=CC=C1OC.[Cl-]",
    "meta_data": {
        "InChI": "InChI=1S/C19H15NO4.ClH/c1-22-16-3-2-11-6-15-13-8-18-17(23-10-24-18)7-12(13)4-5-20(15)9-14(11)19(16)21;/h2-3,6-9H,4-5,10H2,1H3;1H",
        "InChIKey": null,
        "Canonical SMILES": "[Cl-].OC1=C(OC)C=CC2=CC=3C4=CC=5OCOC5C=C4CC[N+]3C=C12",
        "Molecular Formula": "C<sub>19</sub>H<sub>16</sub>NO<sub>4</sub>.Cl",
        "Molecular Mass": "",
        "Melting Point": "245 °C (decomp)"
    }
}