{
    "cas_no": "10523-68-9",
    "key_name": "2-Adamantanamine, hydrochloride",
    "cn_name": "2-金刚烷胺盐酸盐;",
    "alternate_name": "Tricyclo[3.3.1.1<sup>3,7</sup>]decan-2-amine, hydrochloride (1:1);2-Adamantanamine, hydrochloride;Tricyclo[3.3.1.1<sup>3,7</sup>]decan-2-amine, hydrochloride;2-Aminoadamantane hydrochloride;2-Adamantylamine hydrochloride;2-Adamantaneammonium chloride;2-Adamantamine hydrochloride",
    "duplicated_cas_no": "24161-73-7",
    "SMILES": "NC1C2CC3CC1CC(C2)C3.Cl",
    "meta_data": {
        "InChI": "InChI=1S/C10H17N.ClH/c11-10-8-2-6-1-7(4-8)5-9(10)3-6;/h6-10H,1-5,11H2;1H",
        "InChIKey": null,
        "Canonical SMILES": "Cl.NC1C2CC3CC(C2)CC1C3",
        "Molecular Formula": "C<sub>10</sub>H<sub>17</sub>N.ClH",
        "Molecular Mass": "",
        "Melting Point": "300-325 °C"
    }
}