{
    "cas_no": "25309-64-2",
    "key_name": "1-Ethyl-4-iodobenzene",
    "cn_name": null,
    "alternate_name": "Benzene, 1-ethyl-4-iodo-;1-Ethyl-4-iodobenzene;<em>p</em>-Ethyliodobenzene;<em>p</em>-Iodoethylbenzene;4-Ethylphenyl iodide;4-Ethyliodobenzene;4-Iodo-1-ethylbenzene;4-Ethyl-1-iodobenzene;1-Iodo-4-ethylbenzene",
    "duplicated_cas_no": "",
    "SMILES": "C(C)C1=CC=C(I)C=C1",
    "meta_data": {
        "InChI": "InChI=1S/C8H9I/c1-2-7-3-5-8(9)6-4-7/h3-6H,2H2,1H3",
        "InChIKey": null,
        "Canonical SMILES": "IC1=CC=C(C=C1)CC",
        "Molecular Formula": "C<sub>8</sub>H<sub>9</sub>I",
        "Molecular Mass": "232.06",
        "Boiling Point": "230 °C",
        "Melting Point": "-11 °C",
        "Density": "1.6095 g/cm³ @ Temp: 16 °C"
    }
}