{
    "cas_no": "354-64-3",
    "key_name": "1,1,1,2,2-Pentafluoro-2-iodoethane",
    "cn_name": "五氟碘乙烷;",
    "alternate_name": "Ethane, 1,1,1,2,2-pentafluoro-2-iodo-;Ethane, pentafluoroiodo-;1,1,1,2,2-Pentafluoro-2-iodoethane;Pentafluoroiodoethane;Perfluoroethyl iodide;Pentafluoroethyl iodide;Pentafluoro-1-iodoethane;1-Iodoperfluoroethane;Iodopentafluoroethane;Perfluoroiodoethane;1-Iodo-1,1,2,2,2-pentafluoroethane;R 115I1;Iodoperfluoroethane;1,1,2,2,2-Pentafluoroethyl iodide",
    "duplicated_cas_no": "263005-67-0",
    "SMILES": "C(C(F)(F)I)(F)(F)F",
    "meta_data": {
        "InChI": "InChI=1S/C2F5I/c3-1(4,5)2(6,7)8",
        "InChIKey": null,
        "Canonical SMILES": "FC(F)(F)C(F)(F)I",
        "Molecular Formula": "C<sub>2</sub>F<sub>5</sub>I",
        "Molecular Mass": "245.92",
        "Boiling Point": "13 °C",
        "Density": "2.0850 g/cm³ @ Temp: 20 °C"
    }
}