{
    "cas_no": "2419-56-9",
    "key_name": "5-(1,1-Dimethylethyl) hydrogen <span class=\"text-smallcaps\">L</span>-glutamate",
    "cn_name": "L-谷氨酸-5-叔丁基酯;",
    "alternate_name": "<span class=\"text-smallcaps\">L</span>-Glutamic acid, 5-(1,1-dimethylethyl) ester;Glutamic acid, 5-<em>tert</em>-butyl ester, <span class=\"text-smallcaps\">L</span>-;Glutamic acid, 5-<em>tert</em>-butyl ester;5-(1,1-Dimethylethyl) hydrogen <span class=\"text-smallcaps\">L</span>-glutamate;<span class=\"text-smallcaps\">L</span>-Glutamic acid 5-<em>tert</em>-butyl ester;Glutamic acid γ-<em>tert</em>-butyl ester;γ-<em>tert</em>-Butyl glutamate;<span class=\"text-smallcaps\">L</span>-Glutamic acid γ-<em>tert</em>-butyl ester;H-Glu(OtBu)-OH;<span class=\"text-smallcaps\">L</span>-Glu(O-tBu)-OH;γ-<em>tert</em>-Butyl L-glutamic acid;(2S)-2-Amino-5-[(2-methylpropan-2-yl)oxy]-5-oxopentanoic acid;(2S)-2-Amino-5-(<em>tert</em>-butoxy)-5-oxopentanoic acid;(2S)-2-Amino-5-<em>tert</em>-butoxy-5-oxopentanoic acid",
    "duplicated_cas_no": "83844-36-4;910138-51-1;844635-25-2",
    "SMILES": "C(CC[C@@H](C(O)=O)N)(OC(C)(C)C)=O",
    "meta_data": {
        "InChI": "InChI=1S/C9H17NO4/c1-9(2,3)14-7(11)5-4-6(10)8(12)13/h6H,4-5,10H2,1-3H3,(H,12,13)/t6-/m0/s1",
        "InChIKey": null,
        "Canonical SMILES": "O=C(O)C(N)CCC(=O)OC(C)(C)C",
        "Molecular Formula": "C<sub>9</sub>H<sub>17</sub>NO<sub>4</sub>",
        "Molecular Mass": "203.24",
        "Boiling Point": "110 °C @ Press: 0.05 Torr",
        "Melting Point": "168-169 °C",
        "Density": "0.992 g/cm³ @ Temp: 20 °C"
    }
}