{
    "cas_no": "376348-77-5",
    "key_name": "4,4-Difluoro-<em>N</em>-[(1<em>S</em>)-3-hydroxy-1-phenylpropyl]cyclohexanecarboxamide",
    "cn_name": null,
    "alternate_name": "Cyclohexanecarboxamide, 4,4-difluoro-<em>N</em>-[(1<em>S</em>)-3-hydroxy-1-phenylpropyl]-;4,4-Difluoro-<em>N</em>-[(1<em>S</em>)-3-hydroxy-1-phenylpropyl]cyclohexanecarboxamide;4,4-Difluoro-<em>N</em>-((1<em>S</em>)-3-hydroxy-1-phenylpropyl)cyclohexanecarboxamide;UK 453465;(<em>S</em>)-4,4-Difluoro-<em>N</em>-(3-hydroxy-1-phenylpropyl)cyclohexanecarboxamide",
    "duplicated_cas_no": "",
    "SMILES": "[C@H](NC(=O)C1CCC(F)(F)CC1)(CCO)C2=CC=CC=C2",
    "meta_data": {
        "InChI": "InChI=1S/C16H21F2NO2/c17-16(18)9-6-13(7-10-16)15(21)19-14(8-11-20)12-4-2-1-3-5-12/h1-5,13-14,20H,6-11H2,(H,19,21)/t14-/m0/s1",
        "InChIKey": null,
        "Canonical SMILES": "O=C(NC(C=1C=CC=CC1)CCO)C2CCC(F)(F)CC2",
        "Molecular Formula": "C<sub>16</sub>H<sub>21</sub>F<sub>2</sub>NO<sub>2</sub>",
        "Molecular Mass": "297.34",
        "Melting Point": "119.2 °C"
    }
}