{
    "cas_no": "13680-35-8",
    "key_name": "4,4′-Methylenebis[2,6-diethylaniline]",
    "cn_name": "4,4\"-亚甲基双(2,6-二乙基苯胺);",
    "alternate_name": "Benzenamine, 4,4′-methylenebis[2,6-diethyl-;Aniline, 4,4′-methylenebis[2,6-diethyl-;4,4′-Methylenebis[2,6-diethylbenzenamine];3,3′,5,5′-Tetraethyl-4,4′-diaminodiphenylmethane;4,4′-Methylenebis[2,6-diethylaniline];4,4′-Diamino-3,3′,5,5′-tetraethyldiphenylmethane;Kayabond C 300;Ethacure 208;Kayabond C 300S;Lonzacure M-DEA;M-DEA;C 300S;Bis(3,5-diethyl-4-aminophenyl)methane;Mosacure 310",
    "duplicated_cas_no": "127774-72-5;181232-09-7;286441-81-4",
    "SMILES": "C(C1=CC(CC)=C(N)C(CC)=C1)C2=CC(CC)=C(N)C(CC)=C2",
    "meta_data": {
        "InChI": "InChI=1S/C21H30N2/c1-5-16-10-14(11-17(6-2)20(16)22)9-15-12-18(7-3)21(23)19(8-4)13-15/h10-13H,5-9,22-23H2,1-4H3",
        "InChIKey": null,
        "Canonical SMILES": "NC=1C(=CC(=CC1CC)CC=2C=C(C(N)=C(C2)CC)CC)CC",
        "Molecular Formula": "C<sub>21</sub>H<sub>30</sub>N<sub>2</sub>",
        "Molecular Mass": "310.48",
        "Melting Point": "88-90 °C",
        "Density": "1.35 g/cm³"
    }
}