{
    "cas_no": "354-51-8",
    "key_name": "1,2-Dibromo-1-chloro-1,2,2-trifluoroethane",
    "cn_name": "1-氯-1,2-二溴-1,2,2-三氟乙烷;",
    "alternate_name": "Ethane, 1,2-dibromo-1-chloro-1,2,2-trifluoro-;1,2-Dibromo-1-chloro-1,2,2-trifluoroethane;Freon 113B2;1,2-Dibromotrifluorochloroethane;1,2-Dibromochlorotrifluoroethane;1,2-Dibromo-2-chloro-1,1,2-trifluoroethane;1,2-Dibromo-1-chlorotrifluoroethane;2-Chloro-1,2-dibromo-1,1,2-trifluoroethane;NSC 379421",
    "duplicated_cas_no": "",
    "SMILES": "C(C(Br)(F)F)(Br)(Cl)F",
    "meta_data": {
        "InChI": "InChI=1S/C2Br2ClF3/c3-1(5,6)2(4,7)8",
        "InChIKey": null,
        "Canonical SMILES": "FC(F)(Br)C(F)(Cl)Br",
        "Molecular Formula": "C<sub>2</sub>Br<sub>2</sub>ClF<sub>3</sub>",
        "Molecular Mass": "276.28",
        "Boiling Point": "93 °C",
        "Melting Point": "50 °C",
        "Density": "2.2318 g/cm³ @ Temp: 20 °C"
    }
}