{
    "cas_no": "516-12-1",
    "key_name": "<em>N</em>-Iodosuccinimide",
    "cn_name": "N-碘代丁二酰亚胺;",
    "alternate_name": "2,5-Pyrrolidinedione, 1-iodo-;Succinimide, <em>N</em>-iodo-;1-Iodo-2,5-pyrrolidinedione;<em>N</em>-Iodosuccinimide;NIS;Succiniodimide",
    "duplicated_cas_no": "856164-49-3",
    "SMILES": "IN1C(=O)CCC1=O",
    "meta_data": {
        "InChI": "InChI=1S/C4H4INO2/c5-6-3(7)1-2-4(6)8/h1-2H2",
        "InChIKey": null,
        "Canonical SMILES": "O=C1N(I)C(=O)CC1",
        "Molecular Formula": "C<sub>4</sub>H<sub>4</sub>INO<sub>2</sub>",
        "Molecular Mass": "224.98",
        "Melting Point": "200-201 °C"
    }
}