{
    "cas_no": "1519-70-6",
    "key_name": "<em>N</em>,<em>N</em>′′-1,4-Phenylenebis[thiourea]",
    "cn_name": "1,4-亚苯基二(硫脲);1,4-亚苯基二(硫脲);1,4-亚苯基双(硫脲);1,4-亚苯基双(硫脲), 98+%;N,N\"-1,4-亚苯基双(;",
    "alternate_name": "Thiourea, <em>N</em>,<em>N</em>′′-1,4-phenylenebis-;Urea, 1,1′-<em>p</em>-phenylenebis[2-thio-;<em>N</em>,<em>N</em>′′-1,4-Phenylenebis[thiourea];1,4-Phenylenebis(thiourea);(4-Thioureido-phenyl)-thiourea;[4-(Carbamothioylamino)phenyl]thiourea",
    "duplicated_cas_no": "",
    "SMILES": "N(C(N)=S)C1=CC=C(NC(N)=S)C=C1",
    "meta_data": {
        "InChI": "InChI=1S/C8H10N4S2/c9-7(13)11-5-1-2-6(4-3-5)12-8(10)14/h1-4H,(H3,9,11,13)(H3,10,12,14)",
        "InChIKey": null,
        "Canonical SMILES": "S=C(N)NC1=CC=C(C=C1)NC(=S)N",
        "Molecular Formula": "C<sub>8</sub>H<sub>10</sub>N<sub>4</sub>S<sub>2</sub>",
        "Molecular Mass": "226.32",
        "Melting Point": "234-236 °C"
    }
}