{
    "cas_no": "5378-35-8",
    "key_name": "3-(1,3,4-Oxadiazol-2-yl)benzenamine",
    "cn_name": null,
    "alternate_name": "Benzenamine, 3-(1,3,4-oxadiazol-2-yl)-;1,3,4-Oxadiazole, 2-(<em>m</em>-aminophenyl)-;3-(1,3,4-Oxadiazol-2-yl)benzenamine;[3-(1,3,4-Oxadiazol-2-yl)phenyl]amine;3-(1,3,4-Oxadiazol-2-yl)aniline",
    "duplicated_cas_no": "",
    "SMILES": "NC=1C=C(C=CC1)C2=NN=CO2",
    "meta_data": {
        "InChI": "InChI=1S/C8H7N3O/c9-7-3-1-2-6(4-7)8-11-10-5-12-8/h1-5H,9H2",
        "InChIKey": null,
        "Canonical SMILES": "N=1N=C(OC1)C=2C=CC=C(N)C2",
        "Molecular Formula": "C<sub>8</sub>H<sub>7</sub>N<sub>3</sub>O",
        "Molecular Mass": "161.16",
        "Melting Point": "72-73 °C"
    }
}