{
    "cas_no": "30195-30-3",
    "key_name": "7-Chloro-1,3-dihydro-5-(1<em>H</em>-pyrrol-2-yl)-2<em>H</em>-1,4-benzodiazepin-2-one",
    "cn_name": null,
    "alternate_name": "2<em>H</em>-1,4-Benzodiazepin-2-one, 7-chloro-1,3-dihydro-5-(1<em>H</em>-pyrrol-2-yl)-;2<em>H</em>-1,4-Benzodiazepin-2-one, 7-chloro-1,3-dihydro-5-pyrrol-2-yl-;7-Chloro-1,3-dihydro-5-(1<em>H</em>-pyrrol-2-yl)-2<em>H</em>-1,4-benzodiazepin-2-one;Ro 5-3335;NSC 66020;ML 223",
    "duplicated_cas_no": "153374-31-3",
    "SMILES": "ClC=1C=C2C(=NCC(=O)NC2=CC1)C3=CC=CN3",
    "meta_data": {
        "InChI": "InChI=1S/C13H10ClN3O/c14-8-3-4-10-9(6-8)13(11-2-1-5-15-11)16-7-12(18)17-10/h1-6,15H,7H2,(H,17,18)",
        "InChIKey": null,
        "Canonical SMILES": "O=C1NC=2C=CC(Cl)=CC2C(=NC1)C3=CC=CN3",
        "Molecular Formula": "C<sub>13</sub>H<sub>10</sub>ClN<sub>3</sub>O",
        "Molecular Mass": "259.69",
        "Melting Point": "262-263 °C"
    }
}