{
    "cas_no": "38350-87-7",
    "key_name": "4-Heptylbenzoic acid",
    "cn_name": "4-庚基苯甲酸;",
    "alternate_name": "Benzoic acid, 4-heptyl-;4-Heptylbenzoic acid;<em>p</em>-Heptylbenzoic acid",
    "duplicated_cas_no": "",
    "SMILES": "C(CCCCCC)C1=CC=C(C(O)=O)C=C1",
    "meta_data": {
        "InChI": "InChI=1S/C14H20O2/c1-2-3-4-5-6-7-12-8-10-13(11-9-12)14(15)16/h8-11H,2-7H2,1H3,(H,15,16)",
        "InChIKey": null,
        "Canonical SMILES": "O=C(O)C1=CC=C(C=C1)CCCCCCC",
        "Molecular Formula": "C<sub>14</sub>H<sub>20</sub>O<sub>2</sub>",
        "Molecular Mass": "220.31",
        "Melting Point": "101.5 °C"
    }
}