{
    "cas_no": "4535-85-7",
    "key_name": "1-Propanamine, 3-chloro-<em>N</em>,<em>N</em>-diethyl-, hydrochloride (1:1)",
    "cn_name": null,
    "alternate_name": "1-Propanamine, 3-chloro-<em>N</em>,<em>N</em>-diethyl-, hydrochloride (1:1);Propylamine, 3-chloro-<em>N</em>,<em>N</em>-diethyl-, hydrochloride;1-Propanamine, 3-chloro-<em>N</em>,<em>N</em>-diethyl-, hydrochloride;3-(Diethylamino)propyl chloride hydrochloride;(Diethylamino)propyl chloride hydrochloride;1-Chloro-3-diethylaminopropane hydrochloride;3-Chloro-<em>N</em>,<em>N</em>-diethylpropylamine hydrochloride;3-Chloro-<em>N</em>,<em>N</em>-diethylpropanamine hydrochloride;<em>N</em>-(3-Chloropropyl)diethylamine hydrochloride;(3-Chloropropyl)diethylamine hydrochloride;3-Chloro-<em>N</em>,<em>N</em>-diethylpropan-1-amine hydrochloride",
    "duplicated_cas_no": "",
    "SMILES": "N(CCCCl)(CC)CC.Cl",
    "meta_data": {
        "InChI": "InChI=1S/C7H16ClN.ClH/c1-3-9(4-2)7-5-6-8;/h3-7H2,1-2H3;1H",
        "InChIKey": null,
        "Canonical SMILES": "Cl.ClCCCN(CC)CC",
        "Molecular Formula": "C<sub>7</sub>H<sub>16</sub>ClN.ClH",
        "Molecular Mass": "",
        "Melting Point": "62-64 °C"
    }
}