{
    "cas_no": "120-14-9",
    "key_name": "3,4-Dimethoxybenzaldehyde",
    "cn_name": "藜芦醛;3,4-二甲氧基苯甲醛;",
    "alternate_name": "Benzaldehyde, 3,4-dimethoxy-;Veratraldehyde;3,4-Dimethoxybenzaldehyde;3,4-Dimethoxybenzenecarbonal;Protocatechualdehyde dimethyl ether;Protocatechuic aldehyde dimethyl ether;Vanillin methyl ether;Veratric aldehyde;Veratral;Veratryl aldehyde;Methylvanillin;4-<em>O</em>-Methylvanillin;Veratrum aldehyde;NSC 24521;NSC 8500;3,4-Dimethoxyphenylaldehyde;YN 12098",
    "duplicated_cas_no": "",
    "SMILES": "O(C)C1=C(OC)C=CC(C=O)=C1",
    "meta_data": {
        "InChI": "InChI=1S/C9H10O3/c1-11-8-4-3-7(6-10)5-9(8)12-2/h3-6H,1-2H3",
        "InChIKey": null,
        "Canonical SMILES": "O=CC1=CC=C(OC)C(OC)=C1",
        "Molecular Formula": "C<sub>9</sub>H<sub>10</sub>O<sub>3</sub>",
        "Molecular Mass": "166.17",
        "Boiling Point": "281 °C",
        "Melting Point": "43 °C"
    }
}