{
    "cas_no": "358-39-4",
    "key_name": "1,2-Bis(1,1,2,2-tetrafluoroethoxy)ethane",
    "cn_name": "1,2-双(1,1,2,2-四氟乙氧基)乙烷;",
    "alternate_name": "Ethane, 1,2-bis(1,1,2,2-tetrafluoroethoxy)-;1,2-Bis(1,1,2,2-tetrafluoroethoxy)ethane;Ethylene glycol bis(1,1,2,2-tetrafluoroethyl) ether;1,1,2,2-Tetrafluoro-1-[2-(1,1,2,2-tetrafluoroethoxy)ethoxy]ethane",
    "duplicated_cas_no": "",
    "SMILES": "C(OCCOC(C(F)F)(F)F)(C(F)F)(F)F",
    "meta_data": {
        "InChI": "InChI=1S/C6H6F8O2/c7-3(8)5(11,12)15-1-2-16-6(13,14)4(9)10/h3-4H,1-2H2",
        "InChIKey": null,
        "Canonical SMILES": "FC(F)C(F)(F)OCCOC(F)(F)C(F)F",
        "Molecular Formula": "C<sub>6</sub>H<sub>6</sub>F<sub>8</sub>O<sub>2</sub>",
        "Molecular Mass": "262.10",
        "Boiling Point": "86 °C @ Press: 100 Torr",
        "Density": "1.4726 g/cm³ @ Temp: 25 °C"
    }
}