{
    "cas_no": "7791-23-3",
    "key_name": "Selenium oxychloride",
    "cn_name": "氯化亚硒酰;氧氯化硒;二氯氧化硒;",
    "alternate_name": "Seleninyl chloride;Selenium oxychloride;Seleninyl dichloride;Selenium oxydichloride;Selenium chloride oxide (SeCl<sub>2</sub>O);Selenium dichloride oxide;Selenium oxychloride (SeOCl<sub>2</sub>);Selenyl dichloride (SeOCl<sub>2</sub>);Dichlorooxoselenium",
    "duplicated_cas_no": "",
    "SMILES": "[Se](Cl)(Cl)=O",
    "meta_data": {
        "InChI": "InChI=1S/Cl2OSe/c1-4(2)3",
        "InChIKey": null,
        "Canonical SMILES": "O=[Se](Cl)Cl",
        "Molecular Formula": "Cl<sub>2</sub>OSe",
        "Molecular Mass": "165.87",
        "Boiling Point": "180 °C",
        "Melting Point": "8.5 °C",
        "Density": "2.44 g/cm³ @ Temp: 16 °C"
    }
}