{
    "cas_no": "3878-45-3",
    "key_name": "Triphenylphosphine sulfide",
    "cn_name": "三苯基硫化膦;三苯基瞵硫;",
    "alternate_name": "Phosphine sulfide, triphenyl-;Triphenylphosphine sulfide;Triphenylphosphine monosulfide;NSC 62216;Triphenyl(thioxo)phosphine",
    "duplicated_cas_no": "",
    "SMILES": "P(=S)(C1=CC=CC=C1)(C2=CC=CC=C2)C3=CC=CC=C3",
    "meta_data": {
        "InChI": "InChI=1S/C18H15PS/c20-19(16-10-4-1-5-11-16,17-12-6-2-7-13-17)18-14-8-3-9-15-18/h1-15H",
        "InChIKey": null,
        "Canonical SMILES": "S=P(C=1C=CC=CC1)(C=2C=CC=CC2)C=3C=CC=CC3",
        "Molecular Formula": "C<sub>18</sub>H<sub>15</sub>PS",
        "Molecular Mass": "294.35",
        "Boiling Point": "110 °C @ Press: 23 Torr",
        "Melting Point": "161 °C",
        "Density": "1.246 g/cm³ @ Temp: 20 °C"
    }
}