{
    "cas_no": "7208-05-1",
    "key_name": "2,4-Dimethyloxazole",
    "cn_name": null,
    "alternate_name": "Oxazole, 2,4-dimethyl-;2,4-Dimethyloxazole;2,4-Dimethyl-1,3-oxazole",
    "duplicated_cas_no": "",
    "SMILES": "CC=1N=C(C)OC1",
    "meta_data": {
        "InChI": "InChI=1S/C5H7NO/c1-4-3-7-5(2)6-4/h3H,1-2H3",
        "InChIKey": null,
        "Canonical SMILES": "N1=C(OC=C1C)C",
        "Molecular Formula": "C<sub>5</sub>H<sub>7</sub>NO",
        "Molecular Mass": "97.12",
        "Boiling Point": "108 °C",
        "Density": "0.9757 g/cm³ @ Temp: 20 °C"
    }
}