{
    "cas_no": "67485-29-4",
    "key_name": "Hydramethylnon",
    "cn_name": "氟蚁腙;伏蚁腙;5,5-二甲基全氢亚嘧啶-2-基双(4-三氟甲基苯乙烯基)次甲基连氮;",
    "alternate_name": "1,4-Pentadien-3-one, 1,5-bis[4-(trifluoromethyl)phenyl]-, 2-(1,4,5,6-tetrahydro-5,5-dimethyl-2-pyrimidinyl)hydrazone;2(1<em>H</em>)-Pyrimidinone, tetrahydro-5,5-dimethyl-, [3-[4-(trifluoromethyl)phenyl]-1-[2-[4-(trifluoromethyl)phenyl]ethenyl]-2-propenylidene]hydrazone;AC 217300;Amdro;Hydramethylnon;Maxforce;Combat;NSC 379665;Maxforce Roach Killer Bait Gel;Maxforce Gel K",
    "duplicated_cas_no": "70829-12-8",
    "SMILES": "C(=CC(C=CC1=CC=C(C(F)(F)F)C=C1)=NNC=2NCC(C)(C)CN2)C3=CC=C(C(F)(F)F)C=C3",
    "meta_data": {
        "InChI": "InChI=1S/C25H24F6N4/c1-23(2)15-32-22(33-16-23)35-34-21(13-7-17-3-9-19(10-4-17)24(26,27)28)14-8-18-5-11-20(12-6-18)25(29,30)31/h3-14H,15-16H2,1-2H3,(H2,32,33,35)",
        "InChIKey": null,
        "Canonical SMILES": "FC(F)(F)C1=CC=C(C=CC(=NNC2=NCC(C)(C)CN2)C=CC3=CC=C(C=C3)C(F)(F)F)C=C1",
        "Molecular Formula": "C<sub>25</sub>H<sub>24</sub>F<sub>6</sub>N<sub>4</sub>",
        "Molecular Mass": "494.48",
        "Melting Point": "190 °C"
    }
}