{
    "cas_no": "192-65-4",
    "key_name": "Dibenzo[<em>a</em>,<em>e</em>]pyrene",
    "cn_name": "二苯并[a，e]芘;",
    "alternate_name": "Naphtho[1,2,3,4-<em>def</em>]chrysene;Dibenzo[<em>a</em>,<em>e</em>]pyrene;1,2:4,5-Dibenzopyrene;Dibenzo[3,4:6,7]pyrene",
    "duplicated_cas_no": "",
    "SMILES": "C12=C3C=4C=5C(C1=CC=6C(C2=CC=C3C=CC4)=CC=CC6)=CC=CC5",
    "meta_data": {
        "InChI": "InChI=1S/C24H14/c1-2-8-17-16(6-1)14-22-19-10-4-3-9-18(19)20-11-5-7-15-12-13-21(17)24(22)23(15)20/h1-14H",
        "InChIKey": null,
        "Canonical SMILES": "C=1C=CC2=C(C1)C=C3C=4C=CC=CC4C=5C=CC=C6C=CC2=C3C65",
        "Molecular Formula": "C<sub>24</sub>H<sub>14</sub>",
        "Molecular Mass": "302.37",
        "Melting Point": "233.5 °C"
    }
}