{
    "cas_no": "5228-49-9",
    "key_name": "1-Methyl-5-nitroindazole",
    "cn_name": "1-甲基-5-硝基-1H-吲唑;1-甲基-5-硝基-1H-吲唑;",
    "alternate_name": "1<em>H</em>-Indazole, 1-methyl-5-nitro-;1-Methyl-5-nitro-1<em>H</em>-indazole;1-Methyl-5-nitroindazole;5-Nitro-1-methylindazole;NSC 131656;1-Methyl-5-nitro-1<em>H</em>-benzopyrazole",
    "duplicated_cas_no": "",
    "SMILES": "CN1C=2C(=CC(N(=O)=O)=CC2)C=N1",
    "meta_data": {
        "InChI": "InChI=1S/C8H7N3O2/c1-10-8-3-2-7(11(12)13)4-6(8)5-9-10/h2-5H,1H3",
        "InChIKey": null,
        "Canonical SMILES": "O=N(=O)C=1C=CC2=C(C=NN2C)C1",
        "Molecular Formula": "C<sub>8</sub>H<sub>7</sub>N<sub>3</sub>O<sub>2</sub>",
        "Molecular Mass": "177.16",
        "Melting Point": "109 °C"
    }
}