{
    "cas_no": "36394-75-9",
    "key_name": "(<em>S</em>)-(-)-2-Acetoxypropionyl chloride",
    "cn_name": "(S)-(2)-乙酰氧基丙酰氯;",
    "alternate_name": "Propanoyl chloride, 2-(acetyloxy)-, (2<em>S</em>)-;Propanoyl chloride, 2-(acetyloxy)-, (<em>S</em>)-;(2<em>S</em>)-2-(Acetyloxy)propanoyl chloride;<span class=\"text-smallcaps\">L</span>-α-Acetoxypropionyl chloride;(<em>S</em>)-2-Acetoxypropanoyl chloride;(<em>S</em>)-2-Acetoxypropionyl chloride;(<em>S</em>)-(-)-2-Acetoxypropionyl chloride;(<em>S</em>)-2-(Acetyloxy)propanoyl chloride;Acetic acid (1<em>S</em>)-2-chloro-1-methyl-2-oxoethyl ester;(1<em>S</em>)-2-Chloro-1-methyl-2-oxoethyl acetate;Acetic acid (1<em>S</em>)-1-(chlorocarbonyl)ethyl ester;(<em>S</em>)-1-Chloro-1-oxopropan-2-yl acetate;(<em>S</em>)-2-Acetoxypropionoyl chloride;(2<em>S</em>)-1-Chloro-1-oxopropan-2-yl acetate;(<em>S</em>)-2-Acetyloxypropionyl chloride;2-(<em>S</em>)-Acetoxypropanoyl chloride;(2S)-2-Acetoxypropionyl chloride;Acetic acid (2<em>S</em>)-1-chloro-1-oxopropan-2-yl ester;(1S)-2-Chloro-1-methyl-2-oxoethyl acetate",
    "duplicated_cas_no": "",
    "SMILES": "[C@@H](OC(C)=O)(C(Cl)=O)C",
    "meta_data": {
        "InChI": "InChI=1S/C5H7ClO3/c1-3(5(6)8)9-4(2)7/h3H,1-2H3/t3-/m0/s1",
        "InChIKey": null,
        "Canonical SMILES": "O=C(Cl)C(OC(=O)C)C",
        "Molecular Formula": "C<sub>5</sub>H<sub>7</sub>ClO<sub>3</sub>",
        "Molecular Mass": "150.56",
        "Boiling Point": "58 °C @ Press: 15 Torr"
    }
}