{
    "cas_no": "874-87-3",
    "key_name": "4-(Methylthio)benzyl chloride",
    "cn_name": "4-(甲基硫代)苄氯;",
    "alternate_name": "Benzene, 1-(chloromethyl)-4-(methylthio)-;Sulfide, α-chloro-<em>p</em>-tolyl methyl;1-(Chloromethyl)-4-(methylthio)benzene;<em>p</em>-(Methylthio)benzyl chloride;4-(Methylthio)benzyl chloride;4-(Chloromethyl)thioanisole;1-Chloromethyl-4-methylthiobenzene;1-Chloromethyl-4-methylsulfanylbenzene;4-(Methylsulfanyl)benzyl chloride;(4-(Chloromethyl)phenyl)(methyl)sulfane",
    "duplicated_cas_no": "442877-27-2",
    "SMILES": "C(Cl)C1=CC=C(SC)C=C1",
    "meta_data": {
        "InChI": "InChI=1S/C8H9ClS/c1-10-8-4-2-7(6-9)3-5-8/h2-5H,6H2,1H3",
        "InChIKey": null,
        "Canonical SMILES": "ClCC1=CC=C(SC)C=C1",
        "Molecular Formula": "C<sub>8</sub>H<sub>9</sub>ClS",
        "Molecular Mass": "172.68",
        "Boiling Point": "145 °C @ Press: 17 Torr"
    }
}