{
    "cas_no": "622-15-1",
    "key_name": "<em>N</em>,<em>N</em>′-Diphenylmethanimidamide",
    "cn_name": "N,N\"-二苯甲脒;",
    "alternate_name": "Methanimidamide, <em>N</em>,<em>N</em>′-diphenyl-;Formamidine, <em>N</em>,<em>N</em>′-diphenyl-;<em>N</em>,<em>N</em>′-Diphenylmethanimidamide;<em>N</em>,<em>N</em>′-Diphenylformamidine;Diphenylformamidine;NSC 6789;1,3-Diphenyl-1,3-diaza-1-propene",
    "duplicated_cas_no": "",
    "SMILES": "N(=CNC1=CC=CC=C1)C2=CC=CC=C2",
    "meta_data": {
        "InChI": "InChI=1S/C13H12N2/c1-3-7-12(8-4-1)14-11-15-13-9-5-2-6-10-13/h1-11H,(H,14,15)",
        "InChIKey": null,
        "Canonical SMILES": "N(=CNC=1C=CC=CC1)C=2C=CC=CC2",
        "Molecular Formula": "C<sub>13</sub>H<sub>12</sub>N<sub>2</sub>",
        "Molecular Mass": "196.25",
        "Melting Point": "142 °C"
    }
}