{
    "cas_no": "26853-31-6",
    "key_name": "1-Palmitoyl-2-oleoyl-sn-<em>glycero</em>-3-phosphocholine",
    "cn_name": null,
    "alternate_name": "3,5,8-Trioxa-4-phosphahexacos-17-en-1-aminium, 4-hydroxy-<em>N</em>,<em>N</em>,<em>N</em>-trimethyl-9-oxo-7-[[(1-oxohexadecyl)oxy]methyl]-, inner salt, 4-oxide, (7<em>R</em>,17<em>Z</em>)-;Choline, hydroxide, dihydrogen phosphate, inner salt, ester with 1-palmito-2-olein, <span class=\"text-smallcaps\">L</span>-;3,5,8-Trioxa-4-phosphahexacos-17-en-1-aminium, 4-hydroxy-<em>N</em>,<em>N</em>,<em>N</em>-trimethyl-9-oxo-7-[[(1-oxohexadecyl)oxy]methyl]-, hydroxide, inner salt, 4-oxide, [<em>R</em>-(<em>Z</em>)]-;1-Palmitoyl-2-oleoyl-<em>sn</em>-<em>glycero</em>-3-phosphorylcholine;1-Palmitoyl-2-oleoyl-<em>sn</em>-glyceryl-3-phosphorylcholine;<span class=\"text-smallcaps\">L</span>-α-1-Palmitoyl-2-oleoylphosphatidylcholine;1-Palmitoyl-2-oleoyl-<em>sn</em>-<em>glycero</em>-3-phosphocholine;1-Palmitoyl-2-oleyl-3-<em>sn</em>-phosphatidylcholine;1-Palmitoyl-2-oleoyl-<span class=\"text-smallcaps\">L</span>-α-lecithin;1-Palmitoyl-2-oleoyl-<span class=\"text-smallcaps\">L</span>-α-phosphatidylcholine;1-Palmitoyl-2-oleoyl-3-<em>sn</em>-phosphatidylcholine;β-Oleoyl-γ-palmitoyl-<span class=\"text-smallcaps\">L</span>-α-phosphatidylcholine;1-Palmitoyl-2-oleoylphosphatidylcholine;1-Palmitoyl-2-oleoyl-<em>sn</em>-3-phosphocholine;POPC;Palmitoyloleoylphosphatidylcholine;3,5,8-Trioxa-4-phosphahexacos-17-en-1-aminium, 4-hydroxy-<em>N</em>,<em>N</em>,<em>N</em>-trimethyl-9-oxo-7-[[(1-oxohexadecyl)oxy]methyl]-, inner salt, 4-oxide, [<em>R</em>-(<em>Z</em>)]-;1-Palmitoyl-2-oleoyl-<em>sn</em>-<em>glycero</em>-3-phosphatidylcholine;1-Palmitoyl-2-oleoyl-<em>sn</em>-glycerol-3-phosphatidylcholine;1-Palmitoyl-2-oleoyl-<em>sn</em>-<em>glycero</em>-phosphatidylcholine;1-Palmitoyl-2-oleoyl-sn-<em>glycero</em>-3-phosphocholine;1-Palmitoyl-2-oleoyl-sn-<em>glycero</em>-phosphocholine;2-Oleoyl-1-palmitoyl-sn-<em>glycero</em>-3-phosphocholine;1-Palmitoyl-2-oleoyl-sn-<em>glycero</em>-3-phosphatidylcholine;1-Palmitoyl-2-oleoyl-sn-glycerol-3-phosphocholine;1-Hexadecanoyl-2-(9Z-octadecenoyl)-sn-<em>glycero</em>-3-phosphocholine;1-Palmitoyl-2-oleoyl-3-sn-phosphatidylcholine;L-Palmitoyloleoylphosphatidylcholine;<span class=\"text-smallcaps\">L</span>-1-Palmitoyl-2-oleoylphosphatidylcholine;1-Palmitoyl-2-oleoyl-phosphocholine;1-Palmitoyl-2-oleoyl-sn-glycero-3-phosphocholine;1-Palmitoy-2-oleoyl-sn-<em>glycero</em>-3-phosphocholine;1-Paimitoyl-2-oleoyl-sn-glycero-3-phosphocholine",
    "duplicated_cas_no": "210579-12-7;267012-17-9;1345249-49-1",
    "SMILES": "[C@H](OC(CCCCCCC/C=C\\CCCCCCCC)=O)(COP(OCC[N+](C)(C)C)(=O)[O-])COC(CCCCCCCCCCCCCCC)=O",
    "meta_data": {
        "InChI": "InChI=1S/C42H82NO8P/c1-6-8-10-12-14-16-18-20-21-23-25-27-29-31-33-35-42(45)51-40(39-50-52(46,47)49-37-36-43(3,4)5)38-48-41(44)34-32-30-28-26-24-22-19-17-15-13-11-9-7-2/h20-21,40H,6-19,22-39H2,1-5H3/b21-20-/t40-/m1/s1",
        "InChIKey": null,
        "Canonical SMILES": "O=C(OCC(OC(=O)CCCCCCCC=CCCCCCCCC)COP(=O)([O-])OCC[N+](C)(C)C)CCCCCCCCCCCCCCC",
        "Molecular Formula": "C<sub>42</sub>H<sub>82</sub>NO<sub>8</sub>P",
        "Molecular Mass": "",
        "Melting Point": "-3 °C"
    }
}