{
    "cas_no": "627-45-2",
    "key_name": "Ethylformamide",
    "cn_name": "N-甲酰乙胺;N-乙基甲酰胺;",
    "alternate_name": "Formamide, <em>N</em>-ethyl-;<em>N</em>-Ethylformamide;<em>N</em>-Formylethylamine;Ethylformamide;NSC 404522",
    "duplicated_cas_no": "",
    "SMILES": "N(CC)C=O",
    "meta_data": {
        "InChI": "InChI=1S/C3H7NO/c1-2-4-3-5/h3H,2H2,1H3,(H,4,5)",
        "InChIKey": null,
        "Canonical SMILES": "O=CNCC",
        "Molecular Formula": "C<sub>3</sub>H<sub>7</sub>NO",
        "Molecular Mass": "73.09",
        "Boiling Point": "198 °C",
        "Density": "0.9552 g/cm³ @ Temp: 20 °C"
    }
}