{
    "cas_no": "291-64-5",
    "key_name": "Cycloheptane",
    "cn_name": null,
    "alternate_name": "Cycloheptane;NSC 5164",
    "duplicated_cas_no": "",
    "SMILES": "C1CCCCCC1",
    "meta_data": {
        "InChI": "InChI=1S/C7H14/c1-2-4-6-7-5-3-1/h1-7H2",
        "InChIKey": null,
        "Canonical SMILES": "C1CCCCCC1",
        "Molecular Formula": "C<sub>7</sub>H<sub>14</sub>",
        "Molecular Mass": "98.19",
        "Boiling Point": "118.48 °C @ Press: 760 Torr",
        "Melting Point": "-12 °C",
        "Density": "0.8098 g/cm³ @ Temp: 20 °C"
    }
}