{
    "cas_no": "2315-68-6",
    "key_name": "Propyl benzoate",
    "cn_name": "苯甲酸丙酯;苯甲酸正丙酯;",
    "alternate_name": "Benzoic acid, propyl ester;Propyl benzoate;<em>n</em>-Propyl benzoate;NSC 229333",
    "duplicated_cas_no": "",
    "SMILES": "C(OCCC)(=O)C1=CC=CC=C1",
    "meta_data": {
        "InChI": "InChI=1S/C10H12O2/c1-2-8-12-10(11)9-6-4-3-5-7-9/h3-7H,2,8H2,1H3",
        "InChIKey": null,
        "Canonical SMILES": "O=C(OCCC)C=1C=CC=CC1",
        "Molecular Formula": "C<sub>10</sub>H<sub>12</sub>O<sub>2</sub>",
        "Molecular Mass": "164.20",
        "Boiling Point": "211 °C",
        "Melting Point": "-51.6 °C",
        "Density": "1.03606 g/cm³ @ Temp: 5.00 °C"
    }
}