{
    "cas_no": "51863-60-6",
    "key_name": "3,5-Dihydroxyacetophenone",
    "cn_name": "3,5-二羟基苯乙酮;",
    "alternate_name": "Ethanone, 1-(3,5-dihydroxyphenyl)-;Acetophenone, 3′,5′-dihydroxy-;1-(3,5-Dihydroxyphenyl)ethanone;3,5-Dihydroxyacetophenone;3′,5′-Dihydroxyacetophenone;3′,5′-Dihydroxyphenyl methyl ketone;1-(3,5-Dihydroxyphenyl)ethan-1-one",
    "duplicated_cas_no": "",
    "SMILES": "C(C)(=O)C1=CC(O)=CC(O)=C1",
    "meta_data": {
        "InChI": "InChI=1S/C8H8O3/c1-5(9)6-2-7(10)4-8(11)3-6/h2-4,10-11H,1H3",
        "InChIKey": null,
        "Canonical SMILES": "O=C(C=1C=C(O)C=C(O)C1)C",
        "Molecular Formula": "C<sub>8</sub>H<sub>8</sub>O<sub>3</sub>",
        "Molecular Mass": "152.15",
        "Melting Point": "147-148 °C"
    }
}