{
    "cas_no": "1835-11-6",
    "key_name": "1-(4-Benzyloxy-3-methoxyphenyl)ethanone",
    "cn_name": "4-苄氧基-3-甲氧基苯乙酮;4-苄氧基-3-甲氧基苯乙酮;",
    "alternate_name": "Ethanone, 1-[3-methoxy-4-(phenylmethoxy)phenyl]-;Acetophenone, 4′-(benzyloxy)-3′-methoxy-;1-[3-Methoxy-4-(phenylmethoxy)phenyl]ethanone;3′-Methoxy-4′-(benzyloxy)acetophenone;4′-(Benzyloxy)-3′-methoxyacetophenone;1-(3-Methoxy-4-phenylmethoxyphenyl)ethanone;1-(4-Benzyloxy-3-methoxyphenyl)ethanone;NSC 201234;Acetovanillone benzyl ether;1-[4-(Benzyloxy)-3-methoxyphenyl]ethan-1-one",
    "duplicated_cas_no": "",
    "SMILES": "O(CC1=CC=CC=C1)C2=C(OC)C=C(C(C)=O)C=C2",
    "meta_data": {
        "InChI": "InChI=1S/C16H16O3/c1-12(17)14-8-9-15(16(10-14)18-2)19-11-13-6-4-3-5-7-13/h3-10H,11H2,1-2H3",
        "InChIKey": null,
        "Canonical SMILES": "O=C(C1=CC=C(OCC=2C=CC=CC2)C(OC)=C1)C",
        "Molecular Formula": "C<sub>16</sub>H<sub>16</sub>O<sub>3</sub>",
        "Molecular Mass": "256.30",
        "Melting Point": "85-87 °C"
    }
}