{
    "cas_no": "3607-17-8",
    "key_name": "(3-Bromopropyl)triphenylphosphonium bromide",
    "cn_name": "(3-溴丙基)三苯基溴化膦;(3-溴丙基)三苯基溴化磷;",
    "alternate_name": "Phosphonium, (3-bromopropyl)triphenyl-, bromide (1:1);Phosphonium, (3-bromopropyl)triphenyl-, bromide;(3-Bromopropyl)triphenylphosphonium bromide;NSC 84074;Triphenyl(3-bromopropyl)phosphonium bromide",
    "duplicated_cas_no": "",
    "SMILES": "[P+](CCCBr)(C1=CC=CC=C1)(C2=CC=CC=C2)C3=CC=CC=C3.[Br-]",
    "meta_data": {
        "InChI": "InChI=1S/C21H21BrP.BrH/c22-17-10-18-23(19-11-4-1-5-12-19,20-13-6-2-7-14-20)21-15-8-3-9-16-21;/h1-9,11-16H,10,17-18H2;1H/q+1;/p-1",
        "InChIKey": null,
        "Canonical SMILES": "[Br-].BrCCC[P+](C=1C=CC=CC1)(C=2C=CC=CC2)C=3C=CC=CC3",
        "Molecular Formula": "C<sub>21</sub>H<sub>21</sub>BrP.Br",
        "Molecular Mass": "",
        "Melting Point": "210-215 °C"
    }
}