{
    "cas_no": "5598-15-2",
    "key_name": "Chlorpyrifos oxon",
    "cn_name": "氯吡硫磷一氧;氯吡硫磷一氧;",
    "alternate_name": "Phosphoric acid, diethyl 3,5,6-trichloro-2-pyridinyl ester;Phosphoric acid, diethyl 3,5,6-trichloro-2-pyridyl ester;2-Pyridinol, 3,5,6-trichloro-, diethyl phosphate (ester);<em>O</em>,<em>O</em>-Diethyl <em>O</em>-3,5,6-trichloro-2-pyridyl phosphate;Dursbanoxon;Dursban oxygen analog;Diethyl 3,5,6-trichloro-2-pyridyl phosphate;<em>O</em>-(3,5,6-Trichloro-2-pyridinyl) <em>O</em>,<em>O</em>-diethyl phosphate;3,5,6-Trichloro-2-pyridyl diethyl phosphate;Chloropyrifos oxon;Chlorpyrifos oxon;Chlorpyrifoxon;Fospirate-ethyl;Chlorpyriphoxon;Chlorpyrifos-ethyl oxon",
    "duplicated_cas_no": "63034-37-7",
    "SMILES": "P(OC1=C(Cl)C=C(Cl)C(Cl)=N1)(OCC)(OCC)=O",
    "meta_data": {
        "InChI": "InChI=1S/C9H11Cl3NO4P/c1-3-15-18(14,16-4-2)17-9-7(11)5-6(10)8(12)13-9/h5H,3-4H2,1-2H3",
        "InChIKey": null,
        "Canonical SMILES": "O=P(OC1=NC(Cl)=C(Cl)C=C1Cl)(OCC)OCC",
        "Molecular Formula": "C<sub>9</sub>H<sub>11</sub>Cl<sub>3</sub>NO<sub>4</sub>P",
        "Molecular Mass": "334.52",
        "Melting Point": "43 °C"
    }
}