{
    "cas_no": "7583-53-1",
    "key_name": "1-Methyl-3-piperidinemethanol",
    "cn_name": "1-甲基哌啶-3-甲醇;",
    "alternate_name": "3-Piperidinemethanol, 1-methyl-;1-Methyl-3-piperidinemethanol;3-(Hydroxymethyl)-1-methylpiperidine;<em>N</em>-Methylpiperidine-3-methanol;(1-Methylpiperidin-3-yl)methanol;3-Hydroxymethyl-<em>N</em>-methylpiperidine;NSC 66541;<em>N</em>-Methyl-3-hydroxymethylpiperidine;1-Methyl-3-hydroxymethylpiperidine",
    "duplicated_cas_no": "126291-71-2",
    "SMILES": "C(O)C1CN(C)CCC1",
    "meta_data": {
        "InChI": "InChI=1S/C7H15NO/c1-8-4-2-3-7(5-8)6-9/h7,9H,2-6H2,1H3",
        "InChIKey": null,
        "Canonical SMILES": "OCC1CN(C)CCC1",
        "Molecular Formula": "C<sub>7</sub>H<sub>15</sub>NO",
        "Molecular Mass": "129.20",
        "Boiling Point": "142.5 °C",
        "Density": "0.9649 g/cm³"
    }
}