{
    "cas_no": "822-38-8",
    "key_name": "1,3-Dithiolane-2-thione",
    "cn_name": null,
    "alternate_name": "1,3-Dithiolane-2-thione;Carbonic acid, trithio-, cyclic ethylene ester;Ethylene glycol, cyclic trithiocarbonate;Ethylene trithiocarbonate;Trithiocarbonic acid, cyclic ethylene ester;Cyclic ethylene trithiocarbonate;4,5-Dihydro-1,3-Dithiole-2-thione;NSC 6746",
    "duplicated_cas_no": "",
    "SMILES": "S=C1SCCS1",
    "meta_data": {
        "InChI": "InChI=1S/C3H4S3/c4-3-5-1-2-6-3/h1-2H2",
        "InChIKey": null,
        "Canonical SMILES": "S=C1SCCS1",
        "Molecular Formula": "C<sub>3</sub>H<sub>4</sub>S<sub>3</sub>",
        "Molecular Mass": "136.26",
        "Boiling Point": "95-105 °C @ Press: 0.01 Torr",
        "Melting Point": "37 °C"
    }
}