{
    "cas_no": "595-05-1",
    "key_name": "(4b<em>S</em>,5<em>R</em>,10b<em>S</em>,11<em>R</em>)-5,6,11,12-Tetrahydro-13,18-dimethyl-5,10b:11,4b-Bis(iminoethano)dibenzo[<em>c</em>,<em>h</em>][2,6]naphthyridine",
    "cn_name": "腊梅碱;",
    "alternate_name": "5,10b:11,4b-Bis(iminoethano)dibenzo[<em>c</em>,<em>h</em>][2,6]naphthyridine, 5,6,11,12-tetrahydro-13,18-dimethyl-, (4b<em>S</em>,5<em>R</em>,10b<em>S</em>,11<em>R</em>)-;Calycanthine;(4b<em>S</em>,5<em>R</em>,10b<em>S</em>,11<em>R</em>)-5,6,11,12-Tetrahydro-13,18-dimethyl-5,10b:11,4b-Bis(iminoethano)dibenzo[<em>c</em>,<em>h</em>][2,6]naphthyridine;5,10b:11,4b-Bis(iminoethano)dibenzo[<em>c</em>,<em>h</em>][2,6]naphthyridine, 5,6,11,12-tetrahydro-13,18-dimethyl-, [4b<em>S</em>-(4bα,5α,10bα,11α)]-;[4b<em>S</em>-(4bα,5α,10bα,11α)]-5,6,11,12-Tetrahydro-13,18-dimethyl-5,10b:11,4b-bis(iminoethano)dibenzo[<em>c</em>,<em>h</em>][2,6]naphthyridine;(+)-Calycanthine;<em>d</em>-Calycanthine;NSC 99016",
    "duplicated_cas_no": "1414-77-3;16676-25-8;30628-49-0;868739-98-4",
    "SMILES": "CN1[C@@]2([C@]34[C@](C=5C(N2)=CC=CC5)([C@](NC=6C3=CC=CC6)(N(C)CC4)[H])CC1)[H]",
    "meta_data": {
        "InChI": "InChI=1S/C22H26N4/c1-25-13-11-22-16-8-4-5-9-17(16)23-19(25)21(22)12-14-26(2)20(22)24-18-10-6-3-7-15(18)21/h3-10,19-20,23-24H,11-14H2,1-2H3/t19-,20-,21-,22-/m1/s1",
        "InChIKey": null,
        "Canonical SMILES": "C=1C=CC2=C(C1)NC3N(C)CCC24C5NC=6C=CC=CC6C34CCN5C",
        "Molecular Formula": "C<sub>22</sub>H<sub>26</sub>N<sub>4</sub>",
        "Molecular Mass": "346.47",
        "Melting Point": "245 °C"
    }
}