{
    "cas_no": "106266-06-2",
    "key_name": "Risperidone",
    "cn_name": "利培酮;3-[2-[4-(6-氟-1,2-苯并异噁唑-3-基)-1-哌啶]乙基]-6,7,8,9-四氢-2-甲基-4H-吡啶并[1,2-a]嘧啶-4-酮;",
    "alternate_name": "4<em>H</em>-Pyrido[1,2-<em>a</em>]pyrimidin-4-one, 3-[2-[4-(6-fluoro-1,2-benzisoxazol-3-yl)-1-piperidinyl]ethyl]-6,7,8,9-tetrahydro-2-methyl-;1,2-Benzisoxazole, 4<em>H</em>-pyrido[1,2-<em>a</em>]pyrimidin-4-one deriv.;3-[2-[4-(6-Fluoro-1,2-benzisoxazol-3-yl)-1-piperidinyl]ethyl]-6,7,8,9-tetrahydro-2-methyl-4<em>H</em>-pyrido[1,2-<em>a</em>]pyrimidin-4-one;Risperidone;R 64766;Risperdal;Spiron;Rispadal;Risperidal;Apexidone;Psychodal;Risperdal Consta;Ripedon;3-[2-[4-(6-Fluor-1,2-benzisoxazol-3-yl)piperidino]ethyl]-2-methyl-6,7,8,9-tetrahydro-4<em>H</em>-pyrido[1,2-<em>a</em>]pyrimidin-4-on;Risperdine;Zophrenal;Risperid fort;Risperid;RBP 7000;Risperidone ACIS;Risbiodal;Rispa;MeSH ID: D018967",
    "duplicated_cas_no": "",
    "SMILES": "FC=1C=C2C(C(=NO2)C3CCN(CCC=4C(=O)N5C(=NC4C)CCCC5)CC3)=CC1",
    "meta_data": {
        "InChI": "InChI=1S/C23H27FN4O2/c1-15-18(23(29)28-10-3-2-4-21(28)25-15)9-13-27-11-7-16(8-12-27)22-19-6-5-17(24)14-20(19)30-26-22/h5-6,14,16H,2-4,7-13H2,1H3",
        "InChIKey": null,
        "Canonical SMILES": "O=C1C(=C(N=C2N1CCCC2)C)CCN3CCC(C4=NOC=5C=C(F)C=CC54)CC3",
        "Molecular Formula": "C<sub>23</sub>H<sub>27</sub>FN<sub>4</sub>O<sub>2</sub>",
        "Molecular Mass": "410.48",
        "Melting Point": "170 °C"
    }
}