{
    "cas_no": "88-30-2",
    "key_name": "3-(Trifluoromethyl)-4-nitrophenol",
    "cn_name": "4-硝基-3-三氟甲基苯酚;3-三氟甲基-4-硝基苯酚;",
    "alternate_name": "Phenol, 4-nitro-3-(trifluoromethyl)-;<em>m</em>-Cresol, α,α,α-trifluoro-4-nitro-;4-Nitro-3-(trifluoromethyl)phenol;Lamprecid;α,α,α-Trifluoro-4-nitro-<em>m</em>-cresol;3-(Trifluoromethyl)-4-nitrophenol;1-Nitro-4-hydroxy-2-(trifluoromethyl)benzene;NSC 59758;5-Hydroxy-2-nitrobenzotrifluoride",
    "duplicated_cas_no": "",
    "SMILES": "C(F)(F)(F)C1=C(N(=O)=O)C=CC(O)=C1",
    "meta_data": {
        "InChI": "InChI=1S/C7H4F3NO3/c8-7(9,10)5-3-4(12)1-2-6(5)11(13)14/h1-3,12H",
        "InChIKey": null,
        "Canonical SMILES": "O=N(=O)C1=CC=C(O)C=C1C(F)(F)F",
        "Molecular Formula": "C<sub>7</sub>H<sub>4</sub>F<sub>3</sub>NO<sub>3</sub>",
        "Molecular Mass": "207.11",
        "Melting Point": "76 °C"
    }
}