{
    "cas_no": "89-71-4",
    "key_name": "Methyl 2-methylbenzoate",
    "cn_name": "邻甲基苯甲酸甲酯;",
    "alternate_name": "Benzoic acid, 2-methyl-, methyl ester;<em>o</em>-Toluic acid, methyl ester;Methyl 2-methylbenzoate;Methyl <em>o</em>-toluate;Methyl <em>o</em>-methylbenzoate;Methyl orthotoluate;2-Methylbenzoic acid methyl ester;NSC 9402;Methyl 2-toluate;2-Toluic acid methyl ester",
    "duplicated_cas_no": "",
    "SMILES": "C(OC)(=O)C1=C(C)C=CC=C1",
    "meta_data": {
        "InChI": "InChI=1S/C9H10O2/c1-7-5-3-4-6-8(7)9(10)11-2/h3-6H,1-2H3",
        "InChIKey": null,
        "Canonical SMILES": "O=C(OC)C=1C=CC=CC1C",
        "Molecular Formula": "C<sub>9</sub>H<sub>10</sub>O<sub>2</sub>",
        "Molecular Mass": "150.17",
        "Boiling Point": "215 °C",
        "Melting Point": "&lt;-50 °C"
    }
}