{
    "cas_no": "345-70-0",
    "key_name": "3,3′-Difluorobenzophenone",
    "cn_name": "3,3\"-二氟苯甲酮;3,3\"-二氟二苯甲酮;3,3\"-二氟苯甲酮;",
    "alternate_name": "Methanone, bis(3-fluorophenyl)-;Benzophenone, 3,3′-difluoro-;Bis(3-fluorophenyl)methanone;3,3′-Difluorobenzophenone",
    "duplicated_cas_no": "",
    "SMILES": "C(=O)(C1=CC(F)=CC=C1)C2=CC(F)=CC=C2",
    "meta_data": {
        "InChI": "InChI=1S/C13H8F2O/c14-11-5-1-3-9(7-11)13(16)10-4-2-6-12(15)8-10/h1-8H",
        "InChIKey": null,
        "Canonical SMILES": "O=C(C=1C=CC=C(F)C1)C=2C=CC=C(F)C2",
        "Molecular Formula": "C<sub>13</sub>H<sub>8</sub>F<sub>2</sub>O",
        "Molecular Mass": "218.20",
        "Melting Point": "61.5 °C"
    }
}