{
    "cas_no": "17877-23-5",
    "key_name": "1,1,1-Tris(1-methylethyl)silanol",
    "cn_name": "三异丙基硅烷醇;",
    "alternate_name": "Silanol, 1,1,1-tris(1-methylethyl)-;Silanol, tris(1-methylethyl)-;1,1,1-Tris(1-methylethyl)silanol;Triisopropylsilanol",
    "duplicated_cas_no": "",
    "SMILES": "[Si](C(C)C)(C(C)C)(C(C)C)O",
    "meta_data": {
        "InChI": "InChI=1S/C9H22OSi/c1-7(2)11(10,8(3)4)9(5)6/h7-10H,1-6H3",
        "InChIKey": null,
        "Canonical SMILES": "O[Si](C(C)C)(C(C)C)C(C)C",
        "Molecular Formula": "C<sub>9</sub>H<sub>22</sub>OSi",
        "Molecular Mass": "174.36",
        "Boiling Point": "196 °C @ Press: 750 Torr"
    }
}