{
    "cas_no": "127-25-3",
    "key_name": "Methyl abietate",
    "cn_name": null,
    "alternate_name": "1-Phenanthrenecarboxylic acid, 1,2,3,4,4a,4b,5,6,10,10a-decahydro-1,4a-dimethyl-7-(1-methylethyl)-, methyl ester, (1<em>R</em>,4a<em>R</em>,4b<em>R</em>,10a<em>R</em>)-;Podocarpa-7,13-dien-15-oic acid, 13-isopropyl-, methyl ester;1-Phenanthrenecarboxylic acid, 1,2,3,4,4a,4b,5,6,10,10a-decahydro-1,4a-dimethyl-7-(1-methylethyl)-, methyl ester, [1<em>R</em>-(1α,4aβ,4bα,10aα)]-;Abietic acid methyl ester;Methyl abietate;NSC 2141",
    "duplicated_cas_no": "",
    "SMILES": "C[C@@]12[C@]([C@@](C(OC)=O)(C)CCC1)(CC=C3[C@@]2(CCC(C(C)C)=C3)[H])[H]",
    "meta_data": {
        "InChI": "InChI=1S/C21H32O2/c1-14(2)15-7-9-17-16(13-15)8-10-18-20(17,3)11-6-12-21(18,4)19(22)23-5/h8,13-14,17-18H,6-7,9-12H2,1-5H3/t17-,18+,20+,21+/m0/s1",
        "InChIKey": null,
        "Canonical SMILES": "O=C(OC)C1(C)CCCC2(C)C3C(C=C(CC3)C(C)C)=CCC12",
        "Molecular Formula": "C<sub>21</sub>H<sub>32</sub>O<sub>2</sub>",
        "Molecular Mass": "316.48",
        "Boiling Point": "362.5 °C",
        "Melting Point": "&lt;25 °C"
    }
}