{
    "cas_no": "10457-90-6",
    "key_name": "Bromperidol",
    "cn_name": "溴哌利多;",
    "alternate_name": "1-Butanone, 4-[4-(4-bromophenyl)-4-hydroxy-1-piperidinyl]-1-(4-fluorophenyl)-;Butyrophenone, 4-[4-(<em>p</em>-bromophenyl)-4-hydroxypiperidino]-4′-fluoro-;4-[4-(4-Bromophenyl)-4-hydroxy-1-piperidinyl]-1-(4-fluorophenyl)-1-butanone;Bromoperidol;R 11333;Bromperidol;Tesoprel;Azurene;Impromen;Bromodol",
    "duplicated_cas_no": "",
    "SMILES": "OC1(C2=CC=C(Br)C=C2)CCN(CCCC(=O)C3=CC=C(F)C=C3)CC1",
    "meta_data": {
        "InChI": "InChI=1S/C21H23BrFNO2/c22-18-7-5-17(6-8-18)21(26)11-14-24(15-12-21)13-1-2-20(25)16-3-9-19(23)10-4-16/h3-10,26H,1-2,11-15H2",
        "InChIKey": null,
        "Canonical SMILES": "O=C(C1=CC=C(F)C=C1)CCCN2CCC(O)(C3=CC=C(Br)C=C3)CC2",
        "Molecular Formula": "C<sub>21</sub>H<sub>23</sub>BrFNO<sub>2</sub>",
        "Molecular Mass": "420.32",
        "Melting Point": "155 °C"
    }
}