{
    "cas_no": "68418-51-9",
    "key_name": "1,1′-(1,4-Phenylene)bis[1-(4-fluorophenyl)methanone]",
    "cn_name": null,
    "alternate_name": "Methanone, 1,1′-(1,4-phenylene)bis[1-(4-fluorophenyl)-;Methanone, 1,4-phenylenebis[(4-fluorophenyl)-;1,1′-(1,4-Phenylene)bis[1-(4-fluorophenyl)methanone];1,4-Bis(4-fluorobenzoyl)benzene;1,4-Bis(<em>p</em>-fluorobenzoyl)benzene;1,4-Bis(4′-fluorobenzoyl)benzene;[4-(4-Fluorobenzoyl)phenyl]-(4-fluorophenyl)methanone",
    "duplicated_cas_no": "",
    "SMILES": "C(=O)(C1=CC=C(C(=O)C2=CC=C(F)C=C2)C=C1)C3=CC=C(F)C=C3",
    "meta_data": {
        "InChI": "InChI=1S/C20H12F2O2/c21-17-9-5-15(6-10-17)19(23)13-1-2-14(4-3-13)20(24)16-7-11-18(22)12-8-16/h1-12H",
        "InChIKey": null,
        "Canonical SMILES": "O=C(C1=CC=C(F)C=C1)C2=CC=C(C=C2)C(=O)C3=CC=C(F)C=C3",
        "Molecular Formula": "C<sub>20</sub>H<sub>12</sub>F<sub>2</sub>O<sub>2</sub>",
        "Molecular Mass": "322.30",
        "Melting Point": "208-210 °C"
    }
}