{
    "cas_no": "120-15-0",
    "key_name": "6-Methoxy-1,2,3,4-tetrahydroquinoline",
    "cn_name": "6-甲氧基-1,2,3,4-四氢喹啉;",
    "alternate_name": "Quinoline, 1,2,3,4-tetrahydro-6-methoxy-;Thalline;1,2,3,4-Tetrahydro-6-methoxyquinoline;6-Methoxy-1,2,3,4-tetrahydroquinoline;Thallin;6-Methoxytetrahydroquinoline;NSC 49188",
    "duplicated_cas_no": "",
    "SMILES": "O(C)C=1C=C2C(=CC1)NCCC2",
    "meta_data": {
        "InChI": "InChI=1S/C10H13NO/c1-12-9-4-5-10-8(7-9)3-2-6-11-10/h4-5,7,11H,2-3,6H2,1H3",
        "InChIKey": null,
        "Canonical SMILES": "O(C1=CC=C2NCCCC2=C1)C",
        "Molecular Formula": "C<sub>10</sub>H<sub>13</sub>NO",
        "Molecular Mass": "163.22",
        "Boiling Point": "284 °C",
        "Melting Point": "42.5 °C"
    }
}