{
    "cas_no": "42438-89-1",
    "key_name": "Pinostilbene",
    "cn_name": null,
    "alternate_name": "Phenol, 3-[(1<em>E</em>)-2-(4-hydroxyphenyl)ethenyl]-5-methoxy-;Phenol, 3-[2-(4-hydroxyphenyl)ethenyl]-5-methoxy-, (<em>E</em>)-;3-[(1<em>E</em>)-2-(4-Hydroxyphenyl)ethenyl]-5-methoxyphenol;<em>trans</em>-Pinostilbene;Pinostilbene;Pinostilbene, <em>trans</em>-;3,4′-Dihydroxy-5-methoxy-<em>trans</em>-stilbene",
    "duplicated_cas_no": "",
    "SMILES": "C(=C/C1=CC=C(O)C=C1)\\C2=CC(OC)=CC(O)=C2",
    "meta_data": {
        "InChI": "InChI=1S/C15H14O3/c1-18-15-9-12(8-14(17)10-15)3-2-11-4-6-13(16)7-5-11/h2-10,16-17H,1H3/b3-2+",
        "InChIKey": null,
        "Canonical SMILES": "OC1=CC=C(C=C1)C=CC=2C=C(O)C=C(OC)C2",
        "Molecular Formula": "C<sub>15</sub>H<sub>14</sub>O<sub>3</sub>",
        "Molecular Mass": "242.27",
        "Melting Point": "117-118 °C"
    }
}