{
    "cas_no": "1585-40-6",
    "key_name": "Benzenepentacarboxylic acid",
    "cn_name": "苯五甲酸;苯五甲酸;",
    "alternate_name": "1,2,3,4,5-Benzenepentacarboxylic acid;Benzenepentacarboxylic acid;Pentacarboxybenzene;NSC 12096",
    "duplicated_cas_no": "860112-02-3",
    "SMILES": "C(O)(=O)C1=C(C(O)=O)C(C(O)=O)=CC(C(O)=O)=C1C(O)=O",
    "meta_data": {
        "InChI": "InChI=1S/C11H6O10/c12-7(13)2-1-3(8(14)15)5(10(18)19)6(11(20)21)4(2)9(16)17/h1H,(H,12,13)(H,14,15)(H,16,17)(H,18,19)(H,20,21)",
        "InChIKey": null,
        "Canonical SMILES": "O=C(O)C=1C=C(C(=O)O)C(C(=O)O)=C(C(=O)O)C1C(=O)O",
        "Molecular Formula": "C<sub>11</sub>H<sub>6</sub>O<sub>10</sub>",
        "Molecular Mass": "298.16",
        "Melting Point": "222-227 °C (decomp)"
    }
}