{
    "cas_no": "82586-55-8",
    "key_name": "Quinapril hydrochloride",
    "cn_name": "盐酸喹那普利;(3S-(2(R*(R*)),3R*))-2-(2-((1-乙氧羰基-3-苯丙基)氨基)-1-氧代丙基)-1,2,3,4-四氢-3-异喹啉;",
    "alternate_name": "3-Isoquinolinecarboxylic acid, 2-[(2<em>S</em>)-2-[[(1<em>S</em>)-1-(ethoxycarbonyl)-3-phenylpropyl]amino]-1-oxopropyl]-1,2,3,4-tetrahydro-, hydrochloride (1:1), (3<em>S</em>)-;3-Isoquinolinecarboxylic acid, 2-[2-[[1-(ethoxycarbonyl)-3-phenylpropyl]amino]-1-oxopropyl]-1,2,3,4-tetrahydro-, monohydrochloride, [3<em>S</em>-[2[<em>R</em>*(<em>R</em>*)],3<em>R</em>*]]-;3-Isoquinolinecarboxylic acid, 2-[(2<em>S</em>)-2-[[(1<em>S</em>)-1-(ethoxycarbonyl)-3-phenylpropyl]amino]-1-oxopropyl]-1,2,3,4-tetrahydro-, monohydrochloride, (3<em>S</em>)-;CI 906;Quinapril hydrochloride;Accupril;Accuprin;Acupril;Korec;Asig;Accupro;Accupron;Acequin;Acuitel;Acuprel;Quinazil;Acequide;PD 109452-2;Korectic;Quinopril;Accupro 20",
    "duplicated_cas_no": "",
    "SMILES": "C([C@@H](N[C@@H](CCC1=CC=CC=C1)C(OCC)=O)C)(=O)N2[C@H](C(O)=O)CC=3C(C2)=CC=CC3.Cl",
    "meta_data": {
        "InChI": "InChI=1S/C25H30N2O5.ClH/c1-3-32-25(31)21(14-13-18-9-5-4-6-10-18)26-17(2)23(28)27-16-20-12-8-7-11-19(20)15-22(27)24(29)30;/h4-12,17,21-22,26H,3,13-16H2,1-2H3,(H,29,30);1H/t17-,21-,22-;/m0./s1",
        "InChIKey": null,
        "Canonical SMILES": "Cl.O=C(O)C1N(C(=O)C(NC(C(=O)OCC)CCC=2C=CC=CC2)C)CC=3C=CC=CC3C1",
        "Molecular Formula": "C<sub>25</sub>H<sub>30</sub>N<sub>2</sub>O<sub>5</sub>.ClH",
        "Molecular Mass": "",
        "Melting Point": "120-130 °C"
    }
}