{
    "cas_no": "5194-51-4",
    "key_name": "<em>trans</em>,<em>trans</em>-2,4-Hexadiene",
    "cn_name": null,
    "alternate_name": "2,4-Hexadiene, (2<em>E</em>,4<em>E</em>)-;2,4-Hexadiene, (<em>E</em>,<em>E</em>)-;(2<em>E</em>,4<em>E</em>)-2,4-Hexadiene;<em>trans</em>,<em>trans</em>-2,4-Hexadiene;(2<em>E</em>,4<em>E</em>)-Hexadiene;(<em>E</em>,<em>E</em>)-2,4-Hexadiene;<em>trans</em>,<em>trans</em>-1,4-Dimethyl-1,3-butadiene",
    "duplicated_cas_no": "",
    "SMILES": "C(\\C=C\\C)=C/C",
    "meta_data": {
        "InChI": "InChI=1S/C6H10/c1-3-5-6-4-2/h3-6H,1-2H3/b5-3+,6-4+",
        "InChIKey": null,
        "Canonical SMILES": "C(C=CC)=CC",
        "Molecular Formula": "C<sub>6</sub>H<sub>10</sub>",
        "Molecular Mass": "82.14",
        "Boiling Point": "82.2 °C",
        "Melting Point": "-44.9 °C"
    }
}