{
    "cas_no": "5246-57-1",
    "key_name": "3-(2-Hydroxyethylsulfonyl)aniline",
    "cn_name": "间-β-羟乙基砜苯胺;氨基油;",
    "alternate_name": "Ethanol, 2-[(3-aminophenyl)sulfonyl]-;Ethanol, 2-[(<em>m</em>-aminophenyl)sulfonyl]-;2-[(3-Aminophenyl)sulfonyl]ethanol;<em>m</em>-Aminophenyl β-hydroxyethyl sulfone;3-Aminophenyl β-hydroxyethyl sulfone;3-(2-Hydroxyethylsulfonyl)aniline;3-(β-Hydroxyethylsulfonyl)aniline;1-Amino-3-(β-hydroxyethylsulfonyl)benzene;3-Aminophenyl 2-hydroxyethyl sulfone;<em>m</em>-Aminophenyl 2-hydroxyethyl sulfone;2-(3-Aminobenzenesulfonyl)ethanol;3-(2-Hydroxyethanesulfonyl)aniline;2-[(3-Aminophenyl)sulfonyl]ethan-1-ol;2-(3-Aminobenzenesulfonyl)ethan-1-ol",
    "duplicated_cas_no": "1195457-21-6",
    "SMILES": "S(CCO)(=O)(=O)C1=CC(N)=CC=C1",
    "meta_data": {
        "InChI": "InChI=1S/C8H11NO3S/c9-7-2-1-3-8(6-7)13(11,12)5-4-10/h1-3,6,10H,4-5,9H2",
        "InChIKey": null,
        "Canonical SMILES": "O=S(=O)(C=1C=CC=C(N)C1)CCO",
        "Molecular Formula": "C<sub>8</sub>H<sub>11</sub>NO<sub>3</sub>S",
        "Molecular Mass": "201.24",
        "Melting Point": "74-75 °C"
    }
}