{
    "cas_no": "54-20-6",
    "key_name": "5-(Trifluoromethyl)uracil",
    "cn_name": "5-三氟甲基尿嘧啶;",
    "alternate_name": "2,4(1<em>H</em>,3<em>H</em>)-Pyrimidinedione, 5-(trifluoromethyl)-;Uracil, 5-(trifluoromethyl)-;5-(Trifluoromethyl)-2,4(1<em>H</em>,3<em>H</em>)-pyrimidinedione;Trifluorothymine;5-(Trifluoromethyl)uracil;NSC 73757;5-Trifluoromethyl-1<em>H</em>-pyrimidine-2,4-dione;5-(Trifluoromethyl)pyrimidine-2,4-diol",
    "duplicated_cas_no": "",
    "SMILES": "C(F)(F)(F)C=1C(=O)NC(=O)NC1",
    "meta_data": {
        "InChI": "InChI=1S/C5H3F3N2O2/c6-5(7,8)2-1-9-4(12)10-3(2)11/h1H,(H2,9,10,11,12)",
        "InChIKey": null,
        "Canonical SMILES": "O=C1NC=C(C(=O)N1)C(F)(F)F",
        "Molecular Formula": "C<sub>5</sub>H<sub>3</sub>F<sub>3</sub>N<sub>2</sub>O<sub>2</sub>",
        "Molecular Mass": "180.08",
        "Melting Point": "239-241 °C (decomp)"
    }
}