{
    "cas_no": "67-99-2",
    "key_name": "Gliotoxin",
    "cn_name": "胶霉毒素;",
    "alternate_name": "10<em>H</em>-3,10a-Epidithiopyrazino[1,2-<em>a</em>]indole-1,4-dione, 2,3,5a,6-tetrahydro-6-hydroxy-3-(hydroxymethyl)-2-methyl-, (3<em>R</em>,5a<em>S</em>,6<em>S</em>,10a<em>R</em>)-;Gliotoxin;10<em>H</em>-3,10a-Epidithiopyrazino[1,2-<em>a</em>]indole-1,4-dione, 2,3,5a,6-tetrahydro-6-hydroxy-3-(hydroxymethyl)-2-methyl-, [3<em>R</em>-(3α,5aβ,6β,10aα)]-;(3<em>R</em>,5a<em>S</em>,6<em>S</em>,10a<em>R</em>)-2,3,5a,6-Tetrahydro-6-hydroxy-3-(hydroxymethyl)-2-methyl-10<em>H</em>-3,10a-epidithiopyrazino[1,2-<em>a</em>]indole-1,4-dione;Aspergillin;S. N. 12870;MeSH ID: D005912",
    "duplicated_cas_no": "11000-18-3;11000-32-1",
    "SMILES": "O=C1[C@@]23N([C@]4(C(C2)=CC=C[C@@H]4O)[H])C(=O)[C@](CO)(N1C)SS3",
    "meta_data": {
        "InChI": "InChI=1S/C13H14N2O4S2/c1-14-10(18)12-5-7-3-2-4-8(17)9(7)15(12)11(19)13(14,6-16)21-20-12/h2-4,8-9,16-17H,5-6H2,1H3/t8-,9-,12+,13+/m0/s1",
        "InChIKey": null,
        "Canonical SMILES": "O=C1N(C)C2(SSC13N(C2=O)C4C(=CC=CC4O)C3)CO",
        "Molecular Formula": "C<sub>13</sub>H<sub>14</sub>N<sub>2</sub>O<sub>4</sub>S<sub>2</sub>",
        "Molecular Mass": "326.39",
        "Melting Point": "195 °C"
    }
}