{
    "cas_no": "20781-21-9",
    "key_name": "Benzenemethanamine, 2,4-dimethoxy-, hydrochloride (1:1)",
    "cn_name": "2,4-二甲氧基苄胺盐酸盐;",
    "alternate_name": "Benzenemethanamine, 2,4-dimethoxy-, hydrochloride (1:1);Benzylamine, 2,4-dimethoxy-, hydrochloride;Benzenemethanamine, 2,4-dimethoxy-, hydrochloride;2,4-Dimethoxybenzylamine hydrochloride;(2,4-Dimethoxyphenyl)methanamine hydrochloride",
    "duplicated_cas_no": "",
    "SMILES": "O(C)C1=C(CN)C=CC(OC)=C1.Cl",
    "meta_data": {
        "InChI": "InChI=1S/C9H13NO2.ClH/c1-11-8-4-3-7(6-10)9(5-8)12-2;/h3-5H,6,10H2,1-2H3;1H",
        "InChIKey": null,
        "Canonical SMILES": "Cl.O(C1=CC=C(C(OC)=C1)CN)C",
        "Molecular Formula": "C<sub>9</sub>H<sub>13</sub>NO<sub>2</sub>.ClH",
        "Molecular Mass": "",
        "Melting Point": "189-191 °C"
    }
}