{
    "cas_no": "119-32-4",
    "key_name": "4-Methyl-3-nitroaniline",
    "cn_name": "4-甲基-3-硝基苯胺;",
    "alternate_name": "Benzenamine, 4-methyl-3-nitro-;<em>p</em>-Toluidine, 3-nitro-;4-Methyl-3-nitrobenzenamine;3-Nitro-4-methylaniline;2-Nitro-4-aminotoluene;3-Nitro-<em>p</em>-toluidine;4-Amino-2-nitrotoluene;4-Methyl-3-nitroaniline;<em>m</em>-Nitro-<em>p</em>-toluidine;5-Nitro-4-toluidine;3-Nitro-4-toluidine;1-Amino-3-nitro-4-methylbenzene;NSC 7731;4-Methyl-3-nitrophenylamine",
    "duplicated_cas_no": "",
    "SMILES": "N(=O)(=O)C1=C(C)C=CC(N)=C1",
    "meta_data": {
        "InChI": "InChI=1S/C7H8N2O2/c1-5-2-3-6(8)4-7(5)9(10)11/h2-4H,8H2,1H3",
        "InChIKey": null,
        "Canonical SMILES": "O=N(=O)C1=CC(N)=CC=C1C",
        "Molecular Formula": "C<sub>7</sub>H<sub>8</sub>N<sub>2</sub>O<sub>2</sub>",
        "Molecular Mass": "152.15",
        "Melting Point": "77 °C"
    }
}