{
    "cas_no": "5926-38-5",
    "key_name": "(Dichloromethyl)trimethylsilane",
    "cn_name": "(二氯甲基)三甲基硅烷;(二氯甲基)三甲基硅烷;",
    "alternate_name": "Silane, (dichloromethyl)trimethyl-;(Dichloromethyl)trimethylsilane;Dichloro(trimethylsilyl)methane;(Trimethylsilyl)dichloromethane;NSC 92687",
    "duplicated_cas_no": "",
    "SMILES": "[Si](C(Cl)Cl)(C)(C)C",
    "meta_data": {
        "InChI": "InChI=1S/C4H10Cl2Si/c1-7(2,3)4(5)6/h4H,1-3H3",
        "InChIKey": null,
        "Canonical SMILES": "ClC(Cl)[Si](C)(C)C",
        "Molecular Formula": "C<sub>4</sub>H<sub>10</sub>Cl<sub>2</sub>Si",
        "Molecular Mass": "157.11",
        "Boiling Point": "134-135 °C",
        "Melting Point": "40 °C",
        "Density": "1.040 g/cm³"
    }
}