{
    "cas_no": "4228-66-4",
    "key_name": "3,4-Dihydroxyphenylpyruvic acid",
    "cn_name": null,
    "alternate_name": "Benzenepropanoic acid, 3,4-dihydroxy-α-oxo-;Pyruvic acid, (3,4-dihydroxyphenyl)-;3,4-Dihydroxy-α-oxobenzenepropanoic acid;3,4-Dihydroxyphenylpyruvic acid;3-(3,4-Dihydroxyphenyl)pyruvic acid",
    "duplicated_cas_no": "",
    "SMILES": "C(C(C(O)=O)=O)C1=CC(O)=C(O)C=C1",
    "meta_data": {
        "InChI": "InChI=1S/C9H8O5/c10-6-2-1-5(3-7(6)11)4-8(12)9(13)14/h1-3,10-11H,4H2,(H,13,14)",
        "InChIKey": null,
        "Canonical SMILES": "O=C(O)C(=O)CC1=CC=C(O)C(O)=C1",
        "Molecular Formula": "C<sub>9</sub>H<sub>8</sub>O<sub>5</sub>",
        "Molecular Mass": "196.16",
        "Melting Point": "188-189 °C"
    }
}