{
    "cas_no": "38444-85-8",
    "key_name": "2,3,4′-Trichlorobiphenyl",
    "cn_name": null,
    "alternate_name": "1,1′-Biphenyl, 2,3,4′-trichloro-;Biphenyl, 2,3,4′-trichloro-;2,3,4′-Trichloro-1,1′-biphenyl;2,3,4′-Trichlorobiphenyl;4,2′,3′-Trichlorobiphenyl;PCB 22",
    "duplicated_cas_no": "",
    "SMILES": "ClC1=C(C=CC=C1Cl)C2=CC=C(Cl)C=C2",
    "meta_data": {
        "InChI": "InChI=1S/C12H7Cl3/c13-9-6-4-8(5-7-9)10-2-1-3-11(14)12(10)15/h1-7H",
        "InChIKey": null,
        "Canonical SMILES": "ClC=1C=CC(=CC1)C2=CC=CC(Cl)=C2Cl",
        "Molecular Formula": "C<sub>12</sub>H<sub>7</sub>Cl<sub>3</sub>",
        "Molecular Mass": "257.54",
        "Melting Point": "97-99 °C"
    }
}