{
    "cas_no": "483-10-3",
    "key_name": "Corynanthine",
    "cn_name": "柯楠质;柯楠质;",
    "alternate_name": "Yohimban-16-carboxylic acid, 17-hydroxy-, methyl ester, (16β,17α)-;Yohimban-16β-carboxylic acid, 17α-hydroxy-, methyl ester;Corynanthine;Benz[<em>g</em>]indolo[2,3-<em>a</em>]quinolizine, yohimban-16-carboxylic acid deriv.;Rauhimbine;Rauhimbin;Corynanthin;NSC 407306",
    "duplicated_cas_no": "",
    "SMILES": "C(OC)(=O)[C@H]1[C@]2(C[C@]3(C4=C(C=5C(N4)=CC=CC5)CCN3C[C@@]2(CC[C@@H]1O)[H])[H])[H]",
    "meta_data": {
        "InChI": "InChI=1S/C21H26N2O3/c1-26-21(25)19-15-10-17-20-14(13-4-2-3-5-16(13)22-20)8-9-23(17)11-12(15)6-7-18(19)24/h2-5,12,15,17-19,22,24H,6-11H2,1H3/t12-,15-,17-,18-,19-/m0/s1",
        "InChIKey": null,
        "Canonical SMILES": "O=C(OC)C1C(O)CCC2CN3CCC=4C=5C=CC=CC5NC4C3CC12",
        "Molecular Formula": "C<sub>21</sub>H<sub>26</sub>N<sub>2</sub>O<sub>3</sub>",
        "Molecular Mass": "354.44",
        "Melting Point": "231 °C"
    }
}