{
    "cas_no": "14916-65-5",
    "key_name": "6-Nitro-3-pyridinamine",
    "cn_name": "5-氨基-2-硝基吡啶;",
    "alternate_name": "3-Pyridinamine, 6-nitro-;Pyridine, 5-amino-2-nitro-;6-Nitro-3-pyridinamine;5-Amino-2-nitropyridine;2-Nitro-5-aminopyridine;6-Nitropyridin-3-amine",
    "duplicated_cas_no": "",
    "SMILES": "N(=O)(=O)C1=CC=C(N)C=N1",
    "meta_data": {
        "InChI": "InChI=1S/C5H5N3O2/c6-4-1-2-5(7-3-4)8(9)10/h1-3H,6H2",
        "InChIKey": null,
        "Canonical SMILES": "O=N(=O)C1=NC=C(N)C=C1",
        "Molecular Formula": "C<sub>5</sub>H<sub>5</sub>N<sub>3</sub>O<sub>2</sub>",
        "Molecular Mass": "139.11",
        "Melting Point": "234-235 °C (decomp)"
    }
}