{
    "cas_no": "66335-38-4",
    "key_name": "5′-Deoxy-5-fluorocytidine",
    "cn_name": "5\"-脱氧-5-氟胞苷;5\"-去氧氟胞苷;5\"-脱氧-5-氟胞嘧啶核苷;",
    "alternate_name": "Cytidine, 5′-deoxy-5-fluoro-;5′-Deoxy-5-fluorocytidine;5′-DFCR",
    "duplicated_cas_no": "1226642-70-1",
    "SMILES": "O[C@H]1[C@@H](O[C@H](C)[C@H]1O)N2C(=O)N=C(N)C(F)=C2",
    "meta_data": {
        "InChI": "InChI=1S/C9H12FN3O4/c1-3-5(14)6(15)8(17-3)13-2-4(10)7(11)12-9(13)16/h2-3,5-6,8,14-15H,1H3,(H2,11,12,16)/t3-,5-,6-,8-/m1/s1",
        "InChIKey": null,
        "Canonical SMILES": "O=C1N=C(N)C(F)=CN1C2OC(C)C(O)C2O",
        "Molecular Formula": "C<sub>9</sub>H<sub>12</sub>FN<sub>3</sub>O<sub>4</sub>",
        "Molecular Mass": "245.21",
        "Melting Point": "134-136 °C"
    }
}