{
    "cas_no": "39884-48-5",
    "key_name": "4-Amino-2-butanol",
    "cn_name": "4-氨基-2-丁醇;",
    "alternate_name": "2-Butanol, 4-amino-;4-Amino-2-butanol;3-Hydroxybutylamine;1-Aminobutan-3-ol;3-Hydroxybutanamine;3-Hydroxybutan-1-amine",
    "duplicated_cas_no": "127912-49-6",
    "SMILES": "C(C(C)O)CN",
    "meta_data": {
        "InChI": "InChI=1S/C4H11NO/c1-4(6)2-3-5/h4,6H,2-3,5H2,1H3",
        "InChIKey": null,
        "Canonical SMILES": "OC(C)CCN",
        "Molecular Formula": "C<sub>4</sub>H<sub>11</sub>NO",
        "Molecular Mass": "89.14",
        "Boiling Point": "78-86 °C @ Press: 11 Torr"
    }
}