{
    "cas_no": "28170-07-2",
    "key_name": "Phenyl phenylmethyl carbonate",
    "cn_name": null,
    "alternate_name": "Carbonic acid, phenyl phenylmethyl ester;Carbonic acid, benzyl phenyl ester;Phenyl phenylmethyl carbonate;Phenyl benzyl carbonate;Benzyl phenyl carbonate",
    "duplicated_cas_no": "51219-24-0",
    "SMILES": "O(C(OCC1=CC=CC=C1)=O)C2=CC=CC=C2",
    "meta_data": {
        "InChI": "InChI=1S/C14H12O3/c15-14(17-13-9-5-2-6-10-13)16-11-12-7-3-1-4-8-12/h1-10H,11H2",
        "InChIKey": null,
        "Canonical SMILES": "O=C(OC=1C=CC=CC1)OCC=2C=CC=CC2",
        "Molecular Formula": "C<sub>14</sub>H<sub>12</sub>O<sub>3</sub>",
        "Molecular Mass": "228.24",
        "Boiling Point": "127-131 °C @ Press: 0.1 Torr"
    }
}