{
    "cas_no": "24815-24-5",
    "key_name": "Rescinnamine",
    "cn_name": "利血那明;",
    "alternate_name": "Yohimban-16-carboxylic acid, 11,17-dimethoxy-18-[[(2<em>E</em>)-1-oxo-3-(3,4,5-trimethoxyphenyl)-2-propen-1-yl]oxy]-, methyl ester, (3β,16β,17α,18β,20α)-;Rescinnamine;3β,20α-Yohimban-16β-carboxylic acid, 18β-hydroxy-11,17α-dimethoxy-, methyl ester, 3,4,5-trimethoxycinnamate (ester);Yohimban-16-carboxylic acid, 11,17-dimethoxy-18-[[(2<em>E</em>)-1-oxo-3-(3,4,5-trimethoxyphenyl)-2-propenyl]oxy]-, methyl ester, (3β,16β,17α,18β,20α)-;Benz[<em>g</em>]indolo[2,3-<em>a</em>]quinolizine, yohimban-16-carboxylic acid deriv.;Methyl trimethoxycinnamoylreserpate;Reserpinine (C<sub>35</sub> alkaloid);3,4,5-Trimethoxycinnamoyl methyl reserpate;Anaprel;Scinnamina;Apoterin;Cartric;Cinnaloid;Resealoid;Rescisan;Moderil;Rescinnamin;Reserpinine;Reserpic acid methyl ester 3,4,5-trimethoxycinnamate;<em>O</em>-(3,4,5-Trimethoxy-<em>trans</em>-cinnamoyl) methyl reserpate;Apoterin S;NSC 15628;Methyl (1S,2R,3R,4aS,13bR,14aS)-2,11-dimethoxy-3-[[(<em>E</em>)-3-(3,4,5-trimethoxyphenyl)acryloyl]oxy]-1,2,3,4,4a,5,7,8,13,13b,14,14a-dodecahydroindolo[2′,3′:3,4]pyrido[1,2-<em>b</em>]isoquinoline-1-carboxylate",
    "duplicated_cas_no": "84-34-4;522-78-1;15676-44-5;15676-43-4;25460-29-1;28821-79-6;412909-15-0",
    "SMILES": "C(OC)(=O)[C@H]1[C@]2(C[C@@]3(C4=C(C=5C(N4)=CC(OC)=CC5)CCN3C[C@]2(C[C@@H](OC(/C=C/C6=CC(OC)=C(OC)C(OC)=C6)=O)[C@@H]1OC)[H])[H])[H]",
    "meta_data": {
        "InChI": "InChI=1S/C35H42N2O9/c1-40-21-8-9-22-23-11-12-37-18-20-15-29(46-30(38)10-7-19-13-27(41-2)33(43-4)28(14-19)42-3)34(44-5)31(35(39)45-6)24(20)17-26(37)32(23)36-25(22)16-21/h7-10,13-14,16,20,24,26,29,31,34,36H,11-12,15,17-18H2,1-6H3/b10-7+/t20-,24+,26-,29-,31+,34+/m1/s1",
        "InChIKey": null,
        "Canonical SMILES": "O=C(OC1CC2CN3CCC=4C=5C=CC(OC)=CC5NC4C3CC2C(C(=O)OC)C1OC)C=CC6=CC(OC)=C(OC)C(OC)=C6",
        "Molecular Formula": "C<sub>35</sub>H<sub>42</sub>N<sub>2</sub>O<sub>9</sub>",
        "Molecular Mass": "634.72",
        "Melting Point": "238.5 °C"
    }
}