{
    "cas_no": "108-82-7",
    "key_name": "2,6-Dimethyl-4-heptanol",
    "cn_name": "二异丁基甲醇;2,6-二甲基-4-庚醇;",
    "alternate_name": "4-Heptanol, 2,6-dimethyl-;2,6-Dimethyl-4-heptanol;Diisobutylcarbinol;2,6-Dimethyl-4-heptyl alcohol;NSC 62683;Diisobutylmethanol",
    "duplicated_cas_no": "84295-44-3",
    "SMILES": "C(C(CC(C)C)O)C(C)C",
    "meta_data": {
        "InChI": "InChI=1S/C9H20O/c1-7(2)5-9(10)6-8(3)4/h7-10H,5-6H2,1-4H3",
        "InChIKey": null,
        "Canonical SMILES": "OC(CC(C)C)CC(C)C",
        "Molecular Formula": "C<sub>9</sub>H<sub>20</sub>O",
        "Molecular Mass": "144.25",
        "Boiling Point": "176-177 °C @ Press: 760 Torr",
        "Density": "0.809 g/cm³ @ Temp: 21 °C"
    }
}