{
    "cas_no": "1552-96-1",
    "key_name": "4-(Dimethylamino)cinnamic acid",
    "cn_name": "4-二甲基氨基肉桂酸;N,N-二甲胺基肉桂酸;对二甲氨基肉桂酸;",
    "alternate_name": "2-Propenoic acid, 3-[4-(dimethylamino)phenyl]-;Cinnamic acid, <em>p</em>-(dimethylamino)-;3-[4-(Dimethylamino)phenyl]-2-propenoic acid;<em>p</em>-(Dimethylamino)cinnamic acid;4-(Dimethylamino)cinnamic acid;NSC 13673;NSC 638140;3-(4-Dimethylaminophenyl)acrylic acid",
    "duplicated_cas_no": "",
    "SMILES": "N(C)(C)C1=CC=C(C=CC(O)=O)C=C1",
    "meta_data": {
        "InChI": "InChI=1S/C11H13NO2/c1-12(2)10-6-3-9(4-7-10)5-8-11(13)14/h3-8H,1-2H3,(H,13,14)",
        "InChIKey": null,
        "Canonical SMILES": "O=C(O)C=CC1=CC=C(C=C1)N(C)C",
        "Molecular Formula": "C<sub>11</sub>H<sub>13</sub>NO<sub>2</sub>",
        "Molecular Mass": "191.23",
        "Melting Point": "216 °C"
    }
}