{
    "cas_no": "737-31-5",
    "key_name": "Sodium diatrizoate",
    "cn_name": "泛影酸钠;3,5-二乙酰胺基-2,4,6-三碘苯甲酸钠;",
    "alternate_name": "Benzoic acid, 3,5-bis(acetylamino)-2,4,6-triiodo-, sodium salt (1:1);Benzoic acid, 3,5-diacetamido-2,4,6-triiodo-, monosodium salt;Benzoic acid, 3,5-bis(acetylamino)-2,4,6-triiodo-, monosodium salt;Benzoic acid, 3,5-diacetamido-2,4,6-triiodo-, sodium salt;Diatrizoate sodium;Hypaque;Hypaque sodium;Sodium amidotrizoate;Sodium 3,5-diacetamido-2,4,6-triiodobenzoate;Sodium diatrizoate;Triombrine;Triombrin;Hypaque 50;3,5-Diacetamido-2,4,6-triiodobenzoic acid sodium salt;Urografic acid sodium salt;Radioselectan;Urografin S;Urovist 300;Urographing 370;Urovist sodium;Urovist sodium 300",
    "duplicated_cas_no": "",
    "SMILES": "N(C(C)=O)C1=C(I)C(C(O)=O)=C(I)C(NC(C)=O)=C1I.[Na]",
    "meta_data": {
        "InChI": "InChI=1S/C11H9I3N2O4.Na/c1-3(17)15-9-6(12)5(11(19)20)7(13)10(8(9)14)16-4(2)18;/h1-2H3,(H,15,17)(H,16,18)(H,19,20);",
        "InChIKey": null,
        "Canonical SMILES": "[Na].O=C(O)C=1C(I)=C(NC(=O)C)C(I)=C(NC(=O)C)C1I",
        "Molecular Formula": "C<sub>11</sub>H<sub>9</sub>I<sub>3</sub>N<sub>2</sub>O<sub>4</sub>.Na",
        "Molecular Mass": "",
        "Melting Point": "261 °C"
    }
}