{
    "cas_no": "7782-65-2",
    "key_name": "Germane",
    "cn_name": "锗烷;",
    "alternate_name": "Germane;Germanium hydride (GeH<sub>4</sub>);Germanium tetrahydride;Monogermane;Tetrahydrogermane;Germanium(4+) hydride",
    "duplicated_cas_no": "",
    "SMILES": "[GeH4]",
    "meta_data": {
        "InChI": "InChI=1S/GeH4/h1H4",
        "InChIKey": null,
        "Canonical SMILES": "[GeH4]",
        "Molecular Formula": "GeH<sub>4</sub>",
        "Molecular Mass": "",
        "Boiling Point": "-88.5 °C",
        "Melting Point": "-165 °C",
        "Density": "1.53 g/cm³"
    }
}