{
    "cas_no": "2954-52-1",
    "key_name": "2,3-Dihydro-5-propyl-2-thioxo-4(1<em>H</em>)-pyrimidinone",
    "cn_name": null,
    "alternate_name": "4(1<em>H</em>)-Pyrimidinone, 2,3-dihydro-5-propyl-2-thioxo-;Uracil, 5-propyl-2-thio-;2,3-Dihydro-5-propyl-2-thioxo-4(1<em>H</em>)-pyrimidinone;2-Thio-5-propyluracil;5-Propyl-2-thiouracil",
    "duplicated_cas_no": "",
    "SMILES": "C(CC)C=1C(=O)NC(=S)NC1",
    "meta_data": {
        "InChI": "InChI=1S/C7H10N2OS/c1-2-3-5-4-8-7(11)9-6(5)10/h4H,2-3H2,1H3,(H2,8,9,10,11)",
        "InChIKey": null,
        "Canonical SMILES": "O=C1NC(=S)NC=C1CCC",
        "Molecular Formula": "C<sub>7</sub>H<sub>10</sub>N<sub>2</sub>OS",
        "Molecular Mass": "170.23",
        "Melting Point": "161-163 °C"
    }
}