{
    "cas_no": "693-55-0",
    "key_name": "1-Ethyl decanedioate",
    "cn_name": "癸二酸氢乙酯;",
    "alternate_name": "Decanedioic acid, 1-ethyl ester;Sebacic acid, monoethyl ester;Decanedioic acid, monoethyl ester;Sebacic acid, ethyl ester;1-Ethyl decanedioate;Monoethyl sebacate;Ethyl hydrogen sebacate;Ethyl sebacate;NSC 53961;10-Ethoxy-10-oxodecanoic acid",
    "duplicated_cas_no": "",
    "SMILES": "C(CCCCCC(O)=O)CCC(OCC)=O",
    "meta_data": {
        "InChI": "InChI=1S/C12H22O4/c1-2-16-12(15)10-8-6-4-3-5-7-9-11(13)14/h2-10H2,1H3,(H,13,14)",
        "InChIKey": null,
        "Canonical SMILES": "O=C(O)CCCCCCCCC(=O)OCC",
        "Molecular Formula": "C<sub>12</sub>H<sub>22</sub>O<sub>4</sub>",
        "Molecular Mass": "230.30",
        "Boiling Point": "210 °C @ Press: 18 Torr",
        "Melting Point": "36 °C"
    }
}