{
    "cas_no": "2157-56-4",
    "key_name": "2,4-Pentanedione, 2,4-dioxime",
    "cn_name": null,
    "alternate_name": "2,4-Pentanedione, 2,4-dioxime;2,4-Pentanedione, dioxime;2,4-Pentanedione oxime;Acetylacetone dioxime;2,4-Pentanedioxime;NSC 1843",
    "duplicated_cas_no": "",
    "SMILES": "C(C(=NO)C)C(=NO)C",
    "meta_data": {
        "InChI": "InChI=1S/C5H10N2O2/c1-4(6-8)3-5(2)7-9/h8-9H,3H2,1-2H3",
        "InChIKey": null,
        "Canonical SMILES": "ON=C(C)CC(=NO)C",
        "Molecular Formula": "C<sub>5</sub>H<sub>10</sub>N<sub>2</sub>O<sub>2</sub>",
        "Molecular Mass": "130.15",
        "Melting Point": "149-150 °C"
    }
}