{
    "cas_no": "5382-18-3",
    "key_name": "4-Chloropiperidine",
    "cn_name": "4-氯哌啶;",
    "alternate_name": "Piperidine, 4-chloro-;4-Chloropiperidine",
    "duplicated_cas_no": "",
    "SMILES": "ClC1CCNCC1",
    "meta_data": {
        "InChI": "InChI=1S/C5H10ClN/c6-5-1-3-7-4-2-5/h5,7H,1-4H2",
        "InChIKey": null,
        "Canonical SMILES": "ClC1CCNCC1",
        "Molecular Formula": "C<sub>5</sub>H<sub>10</sub>ClN",
        "Molecular Mass": "119.59",
        "Boiling Point": "60 °C @ Press: 11 Torr"
    }
}