{
    "cas_no": "29743-08-6",
    "key_name": "4′-Ethoxybenzylidene-4-butylaniline",
    "cn_name": "N-(4-乙氧苄烯)-4-丁胺;",
    "alternate_name": "Benzenamine, 4-butyl-<em>N</em>-[(4-ethoxyphenyl)methylene]-;Aniline, <em>p</em>-butyl-<em>N</em>-(<em>p</em>-ethoxybenzylidene)-;4-Butyl-<em>N</em>-[(4-ethoxyphenyl)methylene]benzenamine;<em>N</em>-(<em>p</em>-Ethoxybenzylidene)-<em>p</em>-butylaniline;<em>N</em>-(<em>p</em>-Ethoxybenzylidene)-<em>p</em>-<em>n</em>-butylaniline;N-(4-Ethoxybenzylidene)-4-butylaniline;<em>p</em>-[(<em>p</em>-Ethoxybenzylidene)amino]butylbenzene;4-Butyl-<em>N</em>-(4-ethoxybenzylidene)aniline;4-Ethoxybenzylidene-4′-butylaniline;Ethoxybenzylidene-<em>p</em>-butylaniline;4-Ethoxybenzylidene-4′-<em>n</em>-butylaniline;4′-Butyl-4-ethoxybenzylidene aniline;1-[(<em>p</em>-Ethoxybenzylidene)amino]-4-butylbenzene;<em>N</em>-(<em>p</em>-Ethoxybenzilidene)-<em>p</em>-butylaniline;<em>p</em>-Ethoxybenzal-<em>p</em>-butylaniline;Ethoxybenzylidenebutylaniline;<em>N</em>-(<em>p</em>-Ethoxybenzylidene)-<em>p</em>′-butylaniline;<em>p</em>-Ethoxybenzylidene-<em>p</em>-<em>n</em>-butylaniline;<em>p</em>-Butyl-<em>N</em>-(<em>p</em>-ethoxybenzylidene)aniline;<em>p</em>-Ethoxybenzylidene-<em>p</em>′-<em>N</em>-butylaniline;<em>p</em>-Ethoxybenzylidene-<em>p</em>-butylaniline;<em>p</em>-Butyl-<em>N</em>-(<em>p</em>-ethoxybenzilidene)aniline;<em>N</em>-(4-Ethoxybenzylidene)butylaniline;4′-Ethoxybenzylidene-4-butylaniline;<em>N</em>-(4-Ethoxybenzylidene)-4′-butylaniline",
    "duplicated_cas_no": "",
    "SMILES": "N(=CC1=CC=C(OCC)C=C1)C2=CC=C(CCCC)C=C2",
    "meta_data": {
        "InChI": "InChI=1S/C19H23NO/c1-3-5-6-16-7-11-18(12-8-16)20-15-17-9-13-19(14-10-17)21-4-2/h7-15H,3-6H2,1-2H3",
        "InChIKey": null,
        "Canonical SMILES": "N(=CC1=CC=C(OCC)C=C1)C2=CC=C(C=C2)CCCC",
        "Molecular Formula": "C<sub>19</sub>H<sub>23</sub>NO",
        "Molecular Mass": "281.39",
        "Melting Point": "34 °C"
    }
}