{
    "cas_no": "13616-82-5",
    "key_name": "2,4-Dimethylbenzenethiol",
    "cn_name": "2,4-二甲基苯硫酚;",
    "alternate_name": "Benzenethiol, 2,4-dimethyl-;2,4-Xylenethiol;2,4-Dimethylbenzenethiol;2,4-Thioxylenol;2,4-Dimethylthiophenol;NSC 202925;2,4-Dimethylbenzene-1-thiol",
    "duplicated_cas_no": "",
    "SMILES": "CC1=C(S)C=CC(C)=C1",
    "meta_data": {
        "InChI": "InChI=1S/C8H10S/c1-6-3-4-8(9)7(2)5-6/h3-5,9H,1-2H3",
        "InChIKey": null,
        "Canonical SMILES": "SC1=CC=C(C=C1C)C",
        "Molecular Formula": "C<sub>8</sub>H<sub>10</sub>S",
        "Molecular Mass": "138.23",
        "Boiling Point": "204-205 °C",
        "Melting Point": "91-93 °C"
    }
}