{
    "cas_no": "27013-91-8",
    "key_name": "α-Hederin",
    "cn_name": null,
    "alternate_name": "Olean-12-en-28-oic acid, 3-[[2-<em>O</em>-(6-deoxy-α-<span class=\"text-smallcaps\">L</smallcap>-mannopyranosyl)-α-<smallcap>L</span>-arabinopyranosyl]oxy]-23-hydroxy-, (3β,4α)-;α-Hederin;(3β,4α)-3-[[2-<em>O</em>-(6-Deoxy-α-<span class=\"text-smallcaps\">L</smallcap>-mannopyranosyl)-α-<smallcap>L</span>-arabinopyranosyl]oxy]-23-hydroxyolean-12-en-28-oic acid;Helixin;Sapindoside A;Hederagenin 3-<em>O</em>-α-<span class=\"text-smallcaps\">L</smallcap>-rhamnopyranosyl-(1 → 2)-α-<smallcap>L</span>-arabinopyranoside;Akebia saponin P<sub>D</sub>;Prosapogenin CP<sub>3b</sub>;Kizuta saponin K<sub>6</sub>;Nepalin 2;Tauroside E;Kalopanaxsaponin A;Pulsatilla saponin A;Hederoside C;Koronaroside A;Akeboside St<sub>c</sub>;Glycoside L-E<sub>1</sub>;Dipsacoside A;Dipsacobioside;(+)-Dipsacobioside;Cephalaroside C;NSC 106553;23-Hydroxy-3β-[(<em>O</em>-α-<span class=\"text-smallcaps\">L</smallcap>-rhamnopyranosyl-(1→2)-α-<smallcap>L</span>-arabinopyranosyl)oxy]olean-12-en-28-oic acid;3-<em>O</em>-α-<span class=\"text-smallcaps\">L</smallcap>-Rhamnopyranosyl-(1→2)-α-<smallcap>L</span>-arabinopyranosylhederagenin;Dipsacus saponin L;Pulchinenoside BD",
    "duplicated_cas_no": "1391-87-3;1399-69-5;29302-47-4;30883-34-2;52038-08-1;56779-31-8;60454-64-0;104748-88-1;123350-57-2;144190-43-2;2545778-73-0;2579173-38-7",
    "SMILES": "C[C@]12[C@@]3(C)C([C@]4([C@@](C(O)=O)(CC3)CCC(C)(C)C4)[H])=CC[C@@]1([C@]5(C)[C@@](CC2)([C@@](CO)(C)[C@@H](O[C@H]6[C@H](O[C@H]7[C@H](O)[C@H](O)[C@@H](O)[C@H](C)O7)[C@@H](O)[C@@H](O)CO6)CC5)[H])[H]",
    "meta_data": {
        "InChI": "InChI=1S/C41H66O12/c1-21-28(44)30(46)31(47)33(51-21)53-32-29(45)24(43)19-50-34(32)52-27-11-12-37(4)25(38(27,5)20-42)10-13-40(7)26(37)9-8-22-23-18-36(2,3)14-16-41(23,35(48)49)17-15-39(22,40)6/h8,21,23-34,42-47H,9-20H2,1-7H3,(H,48,49)/t21-,23-,24-,25+,26+,27-,28-,29-,30+,31+,32+,33-,34-,37-,38-,39+,40+,41-/m0/s1",
        "InChIKey": null,
        "Canonical SMILES": "O=C(O)C12CCC(C)(C)CC2C3=CCC4C5(C)CCC(OC6OCC(O)C(O)C6OC7OC(C)C(O)C(O)C7O)C(C)(CO)C5CCC4(C)C3(C)CC1",
        "Molecular Formula": "C<sub>41</sub>H<sub>66</sub>O<sub>12</sub>",
        "Molecular Mass": "750.96",
        "Melting Point": "253-256 °C"
    }
}