{
    "cas_no": "3913-67-5",
    "key_name": "<em>N</em>-Methyl-<span class=\"text-smallcaps\">L</span>-alanine",
    "cn_name": null,
    "alternate_name": "<span class=\"text-smallcaps\">L</span>-Alanine, <em>N</em>-methyl-;Alanine, <em>N</em>-methyl-, <span class=\"text-smallcaps\">L</span>-;<em>N</em>-Methyl-<span class=\"text-smallcaps\">L</span>-alanine;<em>N</em>-Methylalanine;α-(Methylamino)propionic acid;(<em>S</em>)-<em>N</em>-Methylalanine;2-(Methylamino)propanoic acid;(<em>S</em>)-2-(Methylamino)propanoic acid;(2S)-2-(Methylamino)propanoic acid;(2<em>S</em>)-2-(Methylamino)propanoic acid",
    "duplicated_cas_no": "186796-14-5",
    "SMILES": "[C@H](C(O)=O)(NC)C",
    "meta_data": {
        "InChI": "InChI=1S/C4H9NO2/c1-3(5-2)4(6)7/h3,5H,1-2H3,(H,6,7)/t3-/m0/s1",
        "InChIKey": null,
        "Canonical SMILES": "O=C(O)C(NC)C",
        "Molecular Formula": "C<sub>4</sub>H<sub>9</sub>NO<sub>2</sub>",
        "Molecular Mass": "103.12",
        "Melting Point": "315-317 °C (decomp)"
    }
}