{
    "cas_no": "76141-89-4",
    "key_name": "1-[(4-Fluorophenyl)methyl]hexahydro-1<em>H</em>-1,4-diazepine",
    "cn_name": null,
    "alternate_name": "1<em>H</em>-1,4-Diazepine, 1-[(4-fluorophenyl)methyl]hexahydro-;1-[(4-Fluorophenyl)methyl]hexahydro-1<em>H</em>-1,4-diazepine;1-(4-Fluorobenzyl)-1,4-diazepane;1-[(4-Fluorophenyl)methyl]-1,4-diazepane;1-(4-Fluorobenzyl)homopiperazine",
    "duplicated_cas_no": "",
    "SMILES": "C(C1=CC=C(F)C=C1)N2CCCNCC2",
    "meta_data": {
        "InChI": "InChI=1S/C12H17FN2/c13-12-4-2-11(3-5-12)10-15-8-1-6-14-7-9-15/h2-5,14H,1,6-10H2",
        "InChIKey": null,
        "Canonical SMILES": "FC1=CC=C(C=C1)CN2CCNCCC2",
        "Molecular Formula": "C<sub>12</sub>H<sub>17</sub>FN<sub>2</sub>",
        "Molecular Mass": "208.28",
        "Melting Point": "51-53 °C"
    }
}