{
    "cas_no": "13220-33-2",
    "key_name": "1-Methyl-3-pyrrolidinol",
    "cn_name": "3-羟基-1-甲基四氢吡咯;1-甲基-3-吡咯烷醇;N-甲基-3-吡咯烷醇;",
    "alternate_name": "3-Pyrrolidinol, 1-methyl-;1-Methyl-3-pyrrolidinol;<em>N</em>-Methyl-3-pyrrolidinol;3-Hydroxy-1-methylpyrrolidine;1-Methyl-3-hydroxypyrrolidine;3-Hydroxy-<em>N</em>-methylpyrrolidine;<em>N</em>-Methyl-3-hydroxypyrrolidine;NSC 89279",
    "duplicated_cas_no": "99445-21-3",
    "SMILES": "OC1CN(C)CC1",
    "meta_data": {
        "InChI": "InChI=1S/C5H11NO/c1-6-3-2-5(7)4-6/h5,7H,2-4H2,1H3",
        "InChIKey": null,
        "Canonical SMILES": "OC1CN(C)CC1",
        "Molecular Formula": "C<sub>5</sub>H<sub>11</sub>NO",
        "Molecular Mass": "101.15",
        "Boiling Point": "77 °C @ Press: 16 Torr"
    }
}