{
    "cas_no": "1271-19-8",
    "key_name": "Titanocene dichloride",
    "cn_name": null,
    "alternate_name": "Titanium, dichlorobis(η<sup>5</sup>-2,4-cyclopentadien-1-yl)-;Titanium, dichlorodi-π-cyclopentadienyl-;Dicyclopentadienyltitanium(IV) dichloride;Dichlorobis(η<sup>5</sup>-2,4-cyclopentadien-1-yl)titanium;Bis(cyclopentadienyl)titanium dichloride;Dicyclopentadienyltitanium dichloride;Dichlorodicyclopentadienyltitanium;Titanocene dichloride;Bis(π-cyclopentadienyl)titanium dichloride;Dichlorodi-π-cyclopentadienyltitanium;Dichlorotitanocene;Dicyclopentadienyldichlorotitanium;Dichlorobis(π-cyclopentadienyl)titanium;Bis(η<sup>5</sup>-cyclopentadienyl)titanium dichloride;Dichlorobis(η<sup>5</sup>-cyclopentadienyl)titanium;Dichlorobis(cyclopentadienyl)titanium;Dichlorobis(1,3-cyclopentadiene)titanium;Bis(cyclopentadienyl)dichlorotitanium;NSC 78453;Bis(cyclopentadienyl)titanium(IV) dichloride",
    "duplicated_cas_no": "30311-53-6",
    "SMILES": "[Cl-][Ti+4]12345678([Cl-])([CH]=9[CH-]1[CH]2=[CH]3[CH]49)[CH-]%10[CH]5=[CH]6[CH]7=[CH]8%10",
    "meta_data": {
        "InChI": "InChI=1S/2C5H5.2ClH.Ti/c2*1-2-4-5-3-1;;;/h2*1-5H;2*1H;/q2*-1;;;+4/p-2",
        "InChIKey": null,
        "Canonical SMILES": "[Cl-][Ti+4]12345678([Cl-])([CH]=9[CH]4=[CH]3[CH-]2[CH]91)[CH]=%10[CH]8=[CH]7[CH-]6[CH]%105",
        "Molecular Formula": "C<sub>10</sub>H<sub>10</sub>Cl<sub>2</sub>Ti",
        "Molecular Mass": "",
        "Boiling Point": "138-140 °C @ Press: 1 Torr",
        "Melting Point": "289 °C",
        "Density": "1.60 g/cm³"
    }
}