{
    "cas_no": "459-22-3",
    "key_name": "4-Fluorobenzeneacetonitrile",
    "cn_name": "对氟苯乙腈;对氟氰苄;4-氟苯乙腈;",
    "alternate_name": "Benzeneacetonitrile, 4-fluoro-;Acetonitrile, (<em>p</em>-fluorophenyl)-;4-Fluorobenzeneacetonitrile;(<em>p</em>-Fluorophenyl)acetonitrile;<em>p</em>-Fluorobenzyl cyanide;4-Fluorobenzyl cyanide;4-Fluorophenylacetonitrile;<em>p</em>-Fluorobenzeneacetonitrile;<em>p</em>-Fluorobenzyl nitrile;NSC 60739;2-(4-Fluorophenyl)acetonitrile",
    "duplicated_cas_no": "",
    "SMILES": "C(C#N)C1=CC=C(F)C=C1",
    "meta_data": {
        "InChI": "InChI=1S/C8H6FN/c9-8-3-1-7(2-4-8)5-6-10/h1-4H,5H2",
        "InChIKey": null,
        "Canonical SMILES": "N#CCC1=CC=C(F)C=C1",
        "Molecular Formula": "C<sub>8</sub>H<sub>6</sub>FN",
        "Molecular Mass": "135.14",
        "Boiling Point": "122-123 °C @ Press: 21 Torr",
        "Density": "1.139 g/cm³ @ Temp: 20 °C"
    }
}