{
    "cas_no": "590-86-3",
    "key_name": "3-Methylbutanal",
    "cn_name": "异戊醛;3-甲基丁醛;",
    "alternate_name": "Butanal, 3-methyl-;Isovaleraldehyde;Butyraldehyde, 3-methyl-;3-Methylbutanal;Isopentanal;Isovaleral;Isovaleric aldehyde;β-Methylbutanal;3-Methylbutyraldehyde;Isoamylaldehyde;<em>iso</em>-Valeraldehyde;3-Methyl-1-butanal;NSC 404119",
    "duplicated_cas_no": "",
    "SMILES": "C(C(C)C)C=O",
    "meta_data": {
        "InChI": "InChI=1S/C5H10O/c1-5(2)3-4-6/h4-5H,3H2,1-2H3",
        "InChIKey": null,
        "Canonical SMILES": "O=CCC(C)C",
        "Molecular Formula": "C<sub>5</sub>H<sub>10</sub>O",
        "Molecular Mass": "86.13",
        "Boiling Point": "92.5 °C @ Press: 760 Torr",
        "Melting Point": "-51 °C",
        "Density": "0.7977 g/cm³ @ Temp: 20 °C"
    }
}