{
    "cas_no": "6790-58-5",
    "key_name": "(-)-Ambrox",
    "cn_name": "降龙涎香醚;双环高二氢金合欢醚;十二氢-3a,6,6,9a-四甲基萘并[2,1-b]呋喃;",
    "alternate_name": "Naphtho[2,1-<em>b</em>]furan, dodecahydro-3a,6,6,9a-tetramethyl-, (3a<em>R</em>,5a<em>S</em>,9a<em>S</em>,9b<em>R</em>)-;Naphtho[2,1-<em>b</em>]furan, dodecahydro-3a,6,6,9a-tetramethyl-, [3a<em>R</em>-(3aα,5aβ,9aα,9bβ)]-;(3a<em>R</em>,5a<em>S</em>,9a<em>S</em>,9b<em>R</em>)-Dodecahydro-3a,6,6,9a-tetramethylnaphtho[2,1-<em>b</em>]furan;Ambroxide;Ambrox;(-)-Ambrox;(-)-Norlabdane oxide;(-)-Ambroxide;Amberlyn Super PM 577;Amberlyn Super;Ambroxane;(-)-Ambroxan;Ambrafuran;(3<em>a</em>R,5<em>a</em>S,9<em>a</em>S,9<em>b</em>R)-3a,6,6,9a-Tetramethyldodecahydronaphtho[2,1-<em>b</em>]furan;(3<em>a</em>R,5<em>a</em>S,9<em>a</em>S,9<em>b</em>R)-3<em>a</em>,6,6,9a-Tetramethyldodecahydronaphtho[2,1-<em>b</em>]furan;Ambrofix;Ambermor Ex",
    "duplicated_cas_no": "31207-71-3;254762-72-6;301677-29-2;435274-92-3;2893135-62-9",
    "SMILES": "C[C@@]12[C@@]3([C@@](C)(CC[C@]1(C(C)(C)CCC2)[H])OCC3)[H]",
    "meta_data": {
        "InChI": "InChI=1S/C16H28O/c1-14(2)8-5-9-15(3)12(14)6-10-16(4)13(15)7-11-17-16/h12-13H,5-11H2,1-4H3/t12-,13+,15-,16+/m0/s1",
        "InChIKey": null,
        "Canonical SMILES": "O1CCC2C1(C)CCC3C(C)(C)CCCC23C",
        "Molecular Formula": "C<sub>16</sub>H<sub>28</sub>O",
        "Molecular Mass": "236.39",
        "Melting Point": "74-76 °C"
    }
}