{
    "cas_no": "13162-05-5",
    "key_name": "<em>N</em>-Vinylformamide",
    "cn_name": "N-乙烯基甲酰胺;N-乙烯基甲酰胺;N-乙烯甲酰胺;",
    "alternate_name": "Formamide, <em>N</em>-ethenyl-;Formamide, <em>N</em>-vinyl-;<em>N</em>-Ethenylformamide;<em>N</em>-Vinylformamide;SR 497;Beam Set 770;NVF-P;NVF-TM",
    "duplicated_cas_no": "339190-63-5",
    "SMILES": "N(C=C)C=O",
    "meta_data": {
        "InChI": "InChI=1S/C3H5NO/c1-2-4-3-5/h2-3H,1H2,(H,4,5)",
        "InChIKey": null,
        "Canonical SMILES": "O=CNC=C",
        "Molecular Formula": "C<sub>3</sub>H<sub>5</sub>NO",
        "Molecular Mass": "71.08",
        "Boiling Point": "84 °C @ Press: 9.98 Torr",
        "Melting Point": "16 °C",
        "Density": "1.014 g/cm³ @ Temp: 25 °C"
    }
}