{
    "cas_no": "2057-49-0",
    "key_name": "4-(3-Phenylpropyl)pyridine",
    "cn_name": "4-(3-苯基丙基)吡啶;4-(3-苯丙基)吡啶;",
    "alternate_name": "Pyridine, 4-(3-phenylpropyl)-;4-(3-Phenylpropyl)pyridine;4-Phenylpropylpyridine;1-(4-Pyridyl)-3-phenylpropane;Pep Set 3401 Catalyst",
    "duplicated_cas_no": "",
    "SMILES": "C(CCC=1C=CN=CC1)C2=CC=CC=C2",
    "meta_data": {
        "InChI": "InChI=1S/C14H15N/c1-2-5-13(6-3-1)7-4-8-14-9-11-15-12-10-14/h1-3,5-6,9-12H,4,7-8H2",
        "InChIKey": null,
        "Canonical SMILES": "N=1C=CC(=CC1)CCCC=2C=CC=CC2",
        "Molecular Formula": "C<sub>14</sub>H<sub>15</sub>N",
        "Molecular Mass": "197.28",
        "Boiling Point": "322 °C",
        "Density": "1.0224 g/cm³ @ Temp: 20 °C"
    }
}