{
    "cas_no": "6918-49-6",
    "key_name": "<em>C</em><sub>20</sub>-Sphingosine",
    "cn_name": null,
    "alternate_name": "4-Eicosene-1,3-diol, 2-amino-, (2<em>S</em>,3<em>R</em>,4<em>E</em>)-;4-Eicosene-1,3-diol, 2-amino-, (<em>E</em>)-<span class=\"text-smallcaps\">D</span>-<em>erythro</em>-;4-Eicosene-1,3-diol, 2-amino-, [<em>R</em>-[<em>R</em>*,<em>S</em>*-(<em>E</em>)]]-;(2<em>S</em>,3<em>R</em>,4<em>E</em>)-2-Amino-4-eicosene-1,3-diol;<em>C</em><sub>20</sub>-Sphingosine;<span class=\"text-smallcaps\">D</span>-<em>erythro</em>-1,3-Dihydroxy-2-amino-<em>trans</em>-4-eicosene;Eicosaphingenine;Gangliosphingosine",
    "duplicated_cas_no": "24027-76-7",
    "SMILES": "C(\\CCCCCCCCCCCCCCC)=C/[C@H]([C@H](CO)N)O",
    "meta_data": {
        "InChI": "InChI=1S/C20H41NO2/c1-2-3-4-5-6-7-8-9-10-11-12-13-14-15-16-17-20(23)19(21)18-22/h16-17,19-20,22-23H,2-15,18,21H2,1H3/b17-16+/t19-,20+/m0/s1",
        "InChIKey": null,
        "Canonical SMILES": "OCC(N)C(O)C=CCCCCCCCCCCCCCCC",
        "Molecular Formula": "C<sub>20</sub>H<sub>41</sub>NO<sub>2</sub>",
        "Molecular Mass": "327.55",
        "Melting Point": "72-74 °C"
    }
}