{
    "cas_no": "174671-46-6",
    "key_name": "Tavaborole",
    "cn_name": null,
    "alternate_name": "2,1-Benzoxaborole, 5-fluoro-1,3-dihydro-1-hydroxy-;5-Fluoro-1,3-dihydro-1-hydroxy-2,1-benzoxaborole;AN 2690;5-Fluoro-1,3-dihydro-2,1-benzoxaborol-1-ol;Tavaborole;AN 2729;Kerydin",
    "duplicated_cas_no": "",
    "SMILES": "OB1C=2C(CO1)=CC(F)=CC2",
    "meta_data": {
        "InChI": "InChI=1S/C7H6BFO2/c9-6-1-2-7-5(3-6)4-11-8(7)10/h1-3,10H,4H2",
        "InChIKey": null,
        "Canonical SMILES": "FC1=CC=C2B(O)OCC2=C1",
        "Molecular Formula": "C<sub>7</sub>H<sub>6</sub>BFO<sub>2</sub>",
        "Molecular Mass": "151.93",
        "Melting Point": "118-120 °C"
    }
}