{
    "cas_no": "98106-17-3",
    "key_name": "Difloxacin",
    "cn_name": "双氟沙星;二氟沙星;6-氟-1-(4-氟苯基)-7-(4-甲基哌嗪-1-基)-4-氧代喹啉-3-甲酸;",
    "alternate_name": "3-Quinolinecarboxylic acid, 6-fluoro-1-(4-fluorophenyl)-1,4-dihydro-7-(4-methyl-1-piperazinyl)-4-oxo-;6-Fluoro-1-(4-fluorophenyl)-1,4-dihydro-7-(4-methyl-1-piperazinyl)-4-oxo-3-quinolinecarboxylic acid;A 56619;Difloxacin;Dicural;Difluoxacin;Pulsaflox",
    "duplicated_cas_no": "99331-53-0",
    "SMILES": "O=C1C=2C(N(C=C1C(O)=O)C3=CC=C(F)C=C3)=CC(=C(F)C2)N4CCN(C)CC4",
    "meta_data": {
        "InChI": "InChI=1S/C21H19F2N3O3/c1-24-6-8-25(9-7-24)19-11-18-15(10-17(19)23)20(27)16(21(28)29)12-26(18)14-4-2-13(22)3-5-14/h2-5,10-12H,6-9H2,1H3,(H,28,29)",
        "InChIKey": null,
        "Canonical SMILES": "O=C(O)C1=CN(C2=CC=C(F)C=C2)C3=CC(=C(F)C=C3C1=O)N4CCN(C)CC4",
        "Molecular Formula": "C<sub>21</sub>H<sub>19</sub>F<sub>2</sub>N<sub>3</sub>O<sub>3</sub>",
        "Molecular Mass": "399.39",
        "Melting Point": "279-282 °C"
    }
}