{
    "cas_no": "94-70-2",
    "key_name": "2-Ethoxyaniline",
    "cn_name": "邻氨基苯乙醚;2-氨基苯乙醚;邻乙氧基苯胺;",
    "alternate_name": "Benzenamine, 2-ethoxy-;<em>o</em>-Phenetidine;2-Ethoxybenzenamine;2-Aminophenetole;2-Ethoxyaniline;<em>o</em>-Ethoxyaniline;2-Ethoxyphenylamine;NSC 9818;<em>o</em>-Ethoxylaniline;2-Aminophenyl ethyl ether",
    "duplicated_cas_no": "",
    "SMILES": "O(CC)C1=C(N)C=CC=C1",
    "meta_data": {
        "InChI": "InChI=1S/C8H11NO/c1-2-10-8-6-4-3-5-7(8)9/h3-6H,2,9H2,1H3",
        "InChIKey": null,
        "Canonical SMILES": "O(C=1C=CC=CC1N)CC",
        "Molecular Formula": "C<sub>8</sub>H<sub>11</sub>NO",
        "Molecular Mass": "137.18",
        "Boiling Point": "232.5 °C",
        "Melting Point": "&lt;-21 °C",
        "Density": "1.0508 g/cm³ @ Temp: 20 °C"
    }
}