{
    "cas_no": "565-60-6",
    "key_name": "3-Methyl-2-pentanol",
    "cn_name": "3-甲基-2-戊醇;",
    "alternate_name": "2-Pentanol, 3-methyl-;3-Methyl-2-pentanol;3-Methyl-4-pentanol;3-Methyl-2-pentyl alcohol;NSC 92741;2-Hydroxy-3-methylpentane;1,2-Dimethylbutanol",
    "duplicated_cas_no": "18286-42-5;20281-89-4",
    "SMILES": "C(C(C)O)(CC)C",
    "meta_data": {
        "InChI": "InChI=1S/C6H14O/c1-4-5(2)6(3)7/h5-7H,4H2,1-3H3",
        "InChIKey": null,
        "Canonical SMILES": "OC(C)C(C)CC",
        "Molecular Formula": "C<sub>6</sub>H<sub>14</sub>O",
        "Molecular Mass": "102.17",
        "Boiling Point": "134.3 °C",
        "Melting Point": "158-159 °C"
    }
}