{
    "cas_no": "7098-80-8",
    "key_name": "(2,2-Dimethyl-1,3-dioxolan-4-yl)methyl 2-methyl-2-propenoate",
    "cn_name": null,
    "alternate_name": "2-Propenoic acid, 2-methyl-, (2,2-dimethyl-1,3-dioxolan-4-yl)methyl ester;Methacrylic acid, (2,2-dimethyl-1,3-dioxolan-4-yl)methyl ester;(2,2-Dimethyl-1,3-dioxolan-4-yl)methyl 2-methyl-2-propenoate;(2,2-Dimethyl-1,3-dioxolan-4-yl)methyl methacrylate;Solketal methacrylate;MMDOL 30;(2,2-Dimethyl-1,3-dioxolan-4-yl)methyl 2-methylprop-2-enoate;Isopropylideneglycerol methacrylate",
    "duplicated_cas_no": "96614-23-2;1106851-48-2;1174669-92-1",
    "SMILES": "C(OC(C(C)=C)=O)C1COC(C)(C)O1",
    "meta_data": {
        "InChI": "InChI=1S/C10H16O4/c1-7(2)9(11)12-5-8-6-13-10(3,4)14-8/h8H,1,5-6H2,2-4H3",
        "InChIKey": null,
        "Canonical SMILES": "O=C(OCC1OC(OC1)(C)C)C(=C)C",
        "Molecular Formula": "C<sub>10</sub>H<sub>16</sub>O<sub>4</sub>",
        "Molecular Mass": "200.23",
        "Boiling Point": "65 °C @ Press: 0.2 Torr",
        "Density": "1.0511 g/cm³ @ Temp: 20 °C"
    }
}