{
    "cas_no": "1930-72-9",
    "key_name": "4-Chloro-3,5-dinitrobenzonitrile",
    "cn_name": "4-氯-3,5-二硝基苄腈;",
    "alternate_name": "Benzonitrile, 4-chloro-3,5-dinitro-;4-Chloro-3,5-dinitrobenzonitrile;3,5-Dinitro-4-chlorobenzonitrile;NSC 74453;1-Chloro-4-cyano-2,6-dinitrobenzene",
    "duplicated_cas_no": "",
    "SMILES": "N(=O)(=O)C1=C(Cl)C(N(=O)=O)=CC(C#N)=C1",
    "meta_data": {
        "InChI": "InChI=1S/C7H2ClN3O4/c8-7-5(10(12)13)1-4(3-9)2-6(7)11(14)15/h1-2H",
        "InChIKey": null,
        "Canonical SMILES": "N#CC=1C=C(C(Cl)=C(C1)N(=O)=O)N(=O)=O",
        "Molecular Formula": "C<sub>7</sub>H<sub>2</sub>ClN<sub>3</sub>O<sub>4</sub>",
        "Molecular Mass": "227.56",
        "Melting Point": "143-144.5 °C"
    }
}