{
    "cas_no": "114297-20-0",
    "key_name": "Soyacerebroside I",
    "cn_name": null,
    "alternate_name": "Hexadecanamide, <em>N</em>-[(1<em>S</em>,2<em>R</em>,3<em>E</em>,7<em>E</em>)-1-[(β-<span class=\"text-smallcaps\">D</span>-glucopyranosyloxy)methyl]-2-hydroxy-3,7-heptadecadien-1-yl]-2-hydroxy-, (2<em>R</em>)-;Hexadecanamide, <em>N</em>-[1-[(β-<span class=\"text-smallcaps\">D</span>-glucopyranosyloxy)methyl]-2-hydroxy-3,7-heptadecadienyl]-2-hydroxy-, [1<em>S</em>-[1<em>R</em>*(<em>S</em>*),2<em>S</em>*,3<em>E</em>,7<em>E</em>]]-;Hexadecanamide, <em>N</em>-[(1<em>S</em>,2<em>R</em>,3<em>E</em>,7<em>E</em>)-1-[(β-<span class=\"text-smallcaps\">D</span>-glucopyranosyloxy)methyl]-2-hydroxy-3,7-heptadecadienyl]-2-hydroxy-, (2<em>R</em>)-;(2<em>R</em>)-<em>N</em>-[(1<em>S</em>,2<em>R</em>,3<em>E</em>,7<em>E</em>)-1-[(β-<span class=\"text-smallcaps\">D</span>-Glucopyranosyloxy)methyl]-2-hydroxy-3,7-heptadecadien-1-yl]-2-hydroxyhexadecanamide;Soyacerebroside I;(2<em>S</em>,3<em>R</em>,4<em>E</em>,8<em>E</em>)-1-<em>O</em>-β-<span class=\"text-smallcaps\">D</span>-Glucopyranosyl-3-hydroxy-2-(2′<em>R</em>-hydroxypalmitoylamino)-4,8-octadecadiene;(2<em>R</em>)-<em>N</em>-[(1<em>S</em>,2<em>R</em>,3<em>E</em>,7<em>E</em>)-1-[(β-<span class=\"text-smallcaps\">D</span>-Glucopyranosyloxy)methyl]-2-hydroxyheptadeca-3,7-dien-1-yl]-2-hydroxyhexadecanamide;1-<em>O</em>-β-<span class=\"text-smallcaps\">D</span>-Glucopyranosyl-(2<em>S</em>,3<em>R</em>,4<em>E</em>,8<em>E</em>)-2-[(2′<em>R</em>)-2-hydroxyhexadecanoylamino]-4,8-octadecadiene-1,3-diol",
    "duplicated_cas_no": "",
    "SMILES": "O(C[C@H](NC([C@@H](CCCCCCCCCCCCCC)O)=O)[C@@H](/C=C/CC/C=C/CCCCCCCCC)O)[C@@H]1O[C@H](CO)[C@@H](O)[C@H](O)[C@H]1O",
    "meta_data": {
        "InChI": "InChI=1S/C40H75NO9/c1-3-5-7-9-11-13-15-17-19-20-22-24-26-28-33(43)32(31-49-40-38(47)37(46)36(45)35(30-42)50-40)41-39(48)34(44)29-27-25-23-21-18-16-14-12-10-8-6-4-2/h19-20,26,28,32-38,40,42-47H,3-18,21-25,27,29-31H2,1-2H3,(H,41,48)/b20-19+,28-26+/t32-,33+,34+,35+,36+,37-,38+,40+/m0/s1",
        "InChIKey": null,
        "Canonical SMILES": "O=C(NC(COC1OC(CO)C(O)C(O)C1O)C(O)C=CCCC=CCCCCCCCCC)C(O)CCCCCCCCCCCCCC",
        "Molecular Formula": "C<sub>40</sub>H<sub>75</sub>NO<sub>9</sub>",
        "Molecular Mass": "714.02",
        "Melting Point": "192-197 °C"
    }
}