{
    "cas_no": "302-97-6",
    "key_name": "(17β)-3-Oxoandrost-4-ene-17-carboxylic acid",
    "cn_name": "3-氧代-雄甾-4-烯-17beta-羧酸;",
    "alternate_name": "Androst-4-ene-17-carboxylic acid, 3-oxo-, (17β)-;Androst-4-ene-17β-carboxylic acid, 3-oxo-;(17β)-3-Oxoandrost-4-ene-17-carboxylic acid;Etienic acid;3-Oxoandrost-4-ene-17β-carboxylic acid;17β-Carboxyandrost-4-en-3-one;Testosterone-17β-carboxylic acid;L 552.803;AL 3793;AD-Acid;NSC 226121;CC 14837;SKF 106224;3-Carbonyl-4-androstene-17β-carboxylic acid",
    "duplicated_cas_no": "",
    "SMILES": "C[C@@]12[C@@]3([C@]([C@]4([C@](C)(CC3)[C@@H](C(O)=O)CC4)[H])(CCC1=CC(=O)CC2)[H])[H]",
    "meta_data": {
        "InChI": "InChI=1S/C20H28O3/c1-19-9-7-13(21)11-12(19)3-4-14-15-5-6-17(18(22)23)20(15,2)10-8-16(14)19/h11,14-17H,3-10H2,1-2H3,(H,22,23)/t14-,15-,16-,17+,19-,20-/m0/s1",
        "InChIKey": null,
        "Canonical SMILES": "O=C1C=C2CCC3C(CCC4(C)C(C(=O)O)CCC34)C2(C)CC1",
        "Molecular Formula": "C<sub>20</sub>H<sub>28</sub>O<sub>3</sub>",
        "Molecular Mass": "316.43",
        "Melting Point": "260 °C"
    }
}