{
    "cas_no": "31017-40-0",
    "key_name": "Cyclohexen-1-ylbenzene",
    "cn_name": null,
    "alternate_name": "Benzene, cyclohexen-1-yl-;Benzene, cyclohexenyl-;Cyclohexen-1-ylbenzene;Phenylcyclohexene;Cyclohexenylbenzene",
    "duplicated_cas_no": "31050-34-7",
    "SMILES": "",
    "meta_data": {
        "InChI": "",
        "InChIKey": null,
        "Canonical SMILES": "",
        "Molecular Formula": "C<sub>12</sub>H<sub>14</sub>",
        "Molecular Mass": "",
        "Boiling Point": "133 °C @ Press: 20 Torr",
        "Density": "1.004 g/cm³ @ Temp: 0 °C"
    }
}