{
    "cas_no": "817-95-8",
    "key_name": "Ethyl ethoxyacetate",
    "cn_name": "2-乙氧基乙酸乙酯;",
    "alternate_name": "Acetic acid, 2-ethoxy-, ethyl ester;Acetic acid, ethoxy-, ethyl ester;Ethoxyacetic acid ethyl ester;Ethyl ethoxyacetate;α-Ethoxyacetic acid ethyl ester;NSC 83555;2-Ethoxyaceticacid ethylester",
    "duplicated_cas_no": "",
    "SMILES": "C(COCC)(OCC)=O",
    "meta_data": {
        "InChI": "InChI=1S/C6H12O3/c1-3-8-5-6(7)9-4-2/h3-5H2,1-2H3",
        "InChIKey": null,
        "Canonical SMILES": "O=C(OCC)COCC",
        "Molecular Formula": "C<sub>6</sub>H<sub>12</sub>O<sub>3</sub>",
        "Molecular Mass": "132.16",
        "Boiling Point": "158 °C",
        "Density": "0.9754 g/cm³"
    }
}