{
    "cas_no": "6099-21-4",
    "key_name": "1,1′-[1,2-Ethanediylbis(sulfinyl)]bis[benzene]",
    "cn_name": null,
    "alternate_name": "Benzene, 1,1′-[1,2-ethanediylbis(sulfinyl)]bis-;Ethane, 1,2-bis(phenylsulfinyl)-;1,1′-[1,2-Ethanediylbis(sulfinyl)]bis[benzene];1,2-Bis(phenylsulfinyl)ethane;2-(Benzenesulfinyl)ethylsulfinylbenzene",
    "duplicated_cas_no": "",
    "SMILES": "S(CCS(=O)C1=CC=CC=C1)(=O)C2=CC=CC=C2",
    "meta_data": {
        "InChI": "InChI=1S/C14H14O2S2/c15-17(13-7-3-1-4-8-13)11-12-18(16)14-9-5-2-6-10-14/h1-10H,11-12H2",
        "InChIKey": null,
        "Canonical SMILES": "O=S(C=1C=CC=CC1)CCS(=O)C=2C=CC=CC2",
        "Molecular Formula": "C<sub>14</sub>H<sub>14</sub>O<sub>2</sub>S<sub>2</sub>",
        "Molecular Mass": "278.39",
        "Boiling Point": "70 °C @ Press: 0.25 Torr",
        "Melting Point": "160 °C"
    }
}