{
    "cas_no": "111-29-5",
    "key_name": "1,5-Pentanediol",
    "cn_name": "1,5-戊二醇;",
    "alternate_name": "1,5-Pentanediol;1,5-Dihydroxypentane;Pentamethylene glycol;1,5-Pentamethylene glycol;Pentylene glycol;α,ω-Pentanediol;ω-Pentanediol;NSC 5927;Microcare Emollient PTG;TK 5;Dermosoft Pentiol Eco;Cosphaderm Pentiol natural;Hydrolite 5 Green;Purolan PD-LO",
    "duplicated_cas_no": "",
    "SMILES": "C(CCO)CCO",
    "meta_data": {
        "InChI": "InChI=1S/C5H12O2/c6-4-2-1-3-5-7/h6-7H,1-5H2",
        "InChIKey": null,
        "Canonical SMILES": "OCCCCCO",
        "Molecular Formula": "C<sub>5</sub>H<sub>12</sub>O<sub>2</sub>",
        "Molecular Mass": "104.15",
        "Boiling Point": "239 °C",
        "Melting Point": "-18 °C",
        "Density": "0.9939 g/cm³ @ Temp: 20 °C"
    }
}