{
    "cas_no": "63675-73-0",
    "key_name": "1-(4-Methoxyphenyl)-2-[(3-methoxyphenyl)thio]ethanone",
    "cn_name": null,
    "alternate_name": "Ethanone, 1-(4-methoxyphenyl)-2-[(3-methoxyphenyl)thio]-;1-(4-Methoxyphenyl)-2-[(3-methoxyphenyl)thio]ethanone;2-(3-Methoxyphenylthio)-4′-methoxyacetophenone;1-(4-Methoxyphenyl)-2-(3-methoxyphenyl)sulfanylethanone;1-(4-Methoxyphenyl)-2-[(3-methoxyphenyl)sulfanyl]ethan-1-one",
    "duplicated_cas_no": "",
    "SMILES": "S(CC(=O)C1=CC=C(OC)C=C1)C2=CC(OC)=CC=C2",
    "meta_data": {
        "InChI": "InChI=1S/C16H16O3S/c1-18-13-8-6-12(7-9-13)16(17)11-20-15-5-3-4-14(10-15)19-2/h3-10H,11H2,1-2H3",
        "InChIKey": null,
        "Canonical SMILES": "O=C(C1=CC=C(OC)C=C1)CSC=2C=CC=C(OC)C2",
        "Molecular Formula": "C<sub>16</sub>H<sub>16</sub>O<sub>3</sub>S",
        "Molecular Mass": "288.36",
        "Melting Point": "53-55.4 °C"
    }
}