{
    "cas_no": "574-98-1",
    "key_name": "<em>N</em>-(2-Bromoethyl)phthalimide",
    "cn_name": "N-(2-溴乙基)邻苯二甲酰亚胺;",
    "alternate_name": "1<em>H</em>-Isoindole-1,3(2<em>H</em>)-dione, 2-(2-bromoethyl)-;Phthalimide, <em>N</em>-(2-bromoethyl)-;2-(2-Bromoethyl)-1<em>H</em>-isoindole-1,3(2<em>H</em>)-dione;β-Phthalimidoethyl bromide;<em>N</em>-(2-Bromoethyl)phthalimide;<em>N</em>-(β-Bromoethyl)phthalimide;1-Bromo-2-phthalimidoethane;2-(2-Bromoethyl)phthalimide;2-Phthalimidoethyl bromide;2-(2-Bromoethyl)isoindole-1,3-dione;NSC 2688;2-(2-Bromoethyl)isoindoline-1,3-dione;2-(2-Bromoethyl)-2,3-dihydro-1<em>H</em>-isoindole-1,3-dione;2-(1,3-Dioxo-1,3-dihydro-isoindol-2-yl)-ethyl bromide",
    "duplicated_cas_no": "",
    "SMILES": "O=C1C=2C(C(=O)N1CCBr)=CC=CC2",
    "meta_data": {
        "InChI": "InChI=1S/C10H8BrNO2/c11-5-6-12-9(13)7-3-1-2-4-8(7)10(12)14/h1-4H,5-6H2",
        "InChIKey": null,
        "Canonical SMILES": "O=C1C=2C=CC=CC2C(=O)N1CCBr",
        "Molecular Formula": "C<sub>10</sub>H<sub>8</sub>BrNO<sub>2</sub>",
        "Molecular Mass": "254.08",
        "Boiling Point": "167 °C @ Press: 6 Torr",
        "Melting Point": "82.5 °C",
        "Density": "1.323 g/cm³"
    }
}