{
    "cas_no": "4382-54-1",
    "key_name": "5-Methoxy-1<em>H</em>-indole-2-carboxylic acid",
    "cn_name": null,
    "alternate_name": "1<em>H</em>-Indole-2-carboxylic acid, 5-methoxy-;Indole-2-carboxylic acid, 5-methoxy-;5-Methoxy-1<em>H</em>-indole-2-carboxylic acid;5-Methoxyindole-2-carboxylic acid;NSC 30927",
    "duplicated_cas_no": "",
    "SMILES": "C(O)(=O)C1=CC=2C(N1)=CC=C(OC)C2",
    "meta_data": {
        "InChI": "InChI=1S/C10H9NO3/c1-14-7-2-3-8-6(4-7)5-9(11-8)10(12)13/h2-5,11H,1H3,(H,12,13)",
        "InChIKey": null,
        "Canonical SMILES": "O=C(O)C1=CC=2C=C(OC)C=CC2N1",
        "Molecular Formula": "C<sub>10</sub>H<sub>9</sub>NO<sub>3</sub>",
        "Molecular Mass": "191.18",
        "Melting Point": "196-197 °C"
    }
}