{
    "cas_no": "21896-59-3",
    "key_name": "<em>N</em>-(2-Chloroethyl)methanesulfonamide",
    "cn_name": null,
    "alternate_name": "Methanesulfonamide, <em>N</em>-(2-chloroethyl)-;<em>N</em>-(2-Chloroethyl)methanesulfonamide;β-Methanesulfonamidoethyl chloride;2-(Methylsulfonamido)ethyl chloride;1-Chloro-2-(methylsulfonamido)ethane",
    "duplicated_cas_no": "",
    "SMILES": "N(S(C)(=O)=O)CCCl",
    "meta_data": {
        "InChI": "InChI=1S/C3H8ClNO2S/c1-8(6,7)5-3-2-4/h5H,2-3H2,1H3",
        "InChIKey": null,
        "Canonical SMILES": "O=S(=O)(NCCCl)C",
        "Molecular Formula": "C<sub>3</sub>H<sub>8</sub>ClNO<sub>2</sub>S",
        "Molecular Mass": "157.62",
        "Boiling Point": "145-150 °C @ Press: 3-4 Torr"
    }
}