{
    "cas_no": "1120-90-7",
    "key_name": "3-Iodopyridine",
    "cn_name": "3-碘吡啶;",
    "alternate_name": "Pyridine, 3-iodo-;3-Iodopyridine;3-Pyridyl iodide;NSC 5076;Methanesulfonic acid, 1,1,1-trifluoro-, compd. with 3-iodopyridine (1:1)",
    "duplicated_cas_no": "2573968-63-3",
    "SMILES": "IC=1C=CC=NC1",
    "meta_data": {
        "InChI": "InChI=1S/C5H4IN/c6-5-2-1-3-7-4-5/h1-4H",
        "InChIKey": null,
        "Canonical SMILES": "IC=1C=NC=CC1",
        "Molecular Formula": "C<sub>5</sub>H<sub>4</sub>IN",
        "Molecular Mass": "205.00",
        "Boiling Point": "40 °C @ Press: 2.03 Torr",
        "Melting Point": "53.5 °C"
    }
}