{
    "cas_no": "533-48-2",
    "key_name": "Desthiobiotin",
    "cn_name": null,
    "alternate_name": "4-Imidazolidinehexanoic acid, 5-methyl-2-oxo-, (4<em>R</em>,5<em>S</em>)-;4-Imidazolidinehexanoic acid, 5-methyl-2-oxo-, (4<em>R</em>-<em>cis</em>)-;(4<em>R</em>,5<em>S</em>)-5-Methyl-2-oxo-4-imidazolidinehexanoic acid;Biotin, dethio-;Desthiobiotin;Dethiobiotin;<em>d</em>-Dethiobiotin;5-Methyl-2-oxo-4-imidazolidinecaproic acid;ε-(4-Methyl-5-imidazolidone-2)caproic acid;4-Methyl-5-(ω-carboxyamyl)imidazolidone-2;(+)-Dethiobiotin",
    "duplicated_cas_no": "17866-65-8;29117-52-0",
    "SMILES": "C(CCCCC(O)=O)[C@@H]1[C@H](C)NC(=O)N1",
    "meta_data": {
        "InChI": "InChI=1S/C10H18N2O3/c1-7-8(12-10(15)11-7)5-3-2-4-6-9(13)14/h7-8H,2-6H2,1H3,(H,13,14)(H2,11,12,15)/t7-,8+/m0/s1",
        "InChIKey": null,
        "Canonical SMILES": "O=C1NC(C)C(N1)CCCCCC(=O)O",
        "Molecular Formula": "C<sub>10</sub>H<sub>18</sub>N<sub>2</sub>O<sub>3</sub>",
        "Molecular Mass": "214.26",
        "Melting Point": "157 °C"
    }
}