{
    "cas_no": "5467-57-2",
    "key_name": "2-Chloro-4-quinolinecarboxylic acid",
    "cn_name": "2-氯喹啉-4-羧酸;",
    "alternate_name": "4-Quinolinecarboxylic acid, 2-chloro-;Cinchoninic acid, 2-chloro-;2-Chloro-4-quinolinecarboxylic acid;2-Chloroquinoline-4-carboxylic acid;NSC 25654",
    "duplicated_cas_no": "",
    "SMILES": "C(O)(=O)C=1C2=C(N=C(Cl)C1)C=CC=C2",
    "meta_data": {
        "InChI": "InChI=1S/C10H6ClNO2/c11-9-5-7(10(13)14)6-3-1-2-4-8(6)12-9/h1-5H,(H,13,14)",
        "InChIKey": null,
        "Canonical SMILES": "O=C(O)C=1C=C(Cl)N=C2C=CC=CC21",
        "Molecular Formula": "C<sub>10</sub>H<sub>6</sub>ClNO<sub>2</sub>",
        "Molecular Mass": "207.61",
        "Melting Point": "244 °C"
    }
}