{
    "cas_no": "94-81-5",
    "key_name": "4-(4-Chloro-2-methylphenoxy)butanoic acid",
    "cn_name": "2甲4氯丁酸;",
    "alternate_name": "Butanoic acid, 4-(4-chloro-2-methylphenoxy)-;Butyric acid, 4-[(4-chloro-<em>o</em>-tolyl)oxy]-;4-(4-Chloro-2-methylphenoxy)butanoic acid;4MCPB;4-(4-Chloro-2-methylphenoxy)butyric acid;(4-Chloro-<em>o</em>-tolyloxy)butyric acid;MCPB;U46 MCPB;4-(2-Methyl-4-chlorophenoxy)butyric acid;Thitrol;Trifolex;2M4KhM;2-Methyl-4-chlorophenoxybutyric acid;2-Methyl-4-chlorophenoxy-γ-butyric acid;4-Chloro-2-methylphenoxybutyric acid;Bexone;γ-MCPB;2,4-MCPB;2-Methyl-4-chlorophenoxy-γ-butyrate;NSC 102796;CMPB;4-(4-Chlroro-2-methylphenoxy)butanoic acid",
    "duplicated_cas_no": "127289-41-2",
    "SMILES": "O(CCCC(O)=O)C1=C(C)C=C(Cl)C=C1",
    "meta_data": {
        "InChI": "InChI=1S/C11H13ClO3/c1-8-7-9(12)4-5-10(8)15-6-2-3-11(13)14/h4-5,7H,2-3,6H2,1H3,(H,13,14)",
        "InChIKey": null,
        "Canonical SMILES": "O=C(O)CCCOC1=CC=C(Cl)C=C1C",
        "Molecular Formula": "C<sub>11</sub>H<sub>13</sub>ClO<sub>3</sub>",
        "Molecular Mass": "228.67",
        "Boiling Point": "&gt;280 °C",
        "Melting Point": "100-101 °C"
    }
}