{
    "cas_no": "9001-42-7",
    "key_name": "alpha-Glucosidase",
    "cn_name": null,
    "alternate_name": "α-Glucosidase;Glucosidase, α-;E.C. 3.2.1.20;Maltase;α-Glucopyranosidase;Glucosidosucrase;Glucosidoinvertase;Glucoinvertase;α-<span class=\"text-smallcaps\">D</span>-Glucosidase;α-Glucoside hydrolase;α-1,4-Glucosidase;Aryl-α-<span class=\"text-smallcaps\">D</span>-glucosidase;α-<span class=\"text-smallcaps\">D</span>-Glucopyranosidase;Nitrophenyl α-<span class=\"text-smallcaps\">D</span>-glucosidase;Transglucosidase L;Maltase glucoamylase;Transglucosidase;Transglucosidase L Amano;Brush border hydrolase;alpha-Glucosidase;Transglucosidase L 200G;GH 57;Alpha-D-Glucosidase",
    "duplicated_cas_no": "9033-01-6;115775-10-5",
    "SMILES": "",
    "meta_data": {
        "InChI": "",
        "InChIKey": null,
        "Canonical SMILES": "",
        "Molecular Formula": "Unspecified",
        "Molecular Mass": "",
        "Melting Point": "154.3-155.3 °C"
    }
}