{
    "uri": "substance/pt/9001427",
    "rn": "9001-42-7",
    "name": "alpha-Glucosidase",
    "images": [],
    "inchi": "",
    "inchiKey": "",
    "smile": "",
    "canonicalSmile": "",
    "molecularFormula": "Unspecified",
    "molecularMass": "",
    "experimentalProperties": [
        {
            "name": "Melting Point",
            "property": "154.3-155.3 °C",
            "sourceNumber": 1
        }
    ],
    "propertyCitations": [
        {
            "docUri": "document/pt/document/3799803",
            "sourceNumber": 1,
            "source": "Do, Jae Ho; Sanop Misaengmul Hakhoechi, (1990), 18(1), 35-8, CAplus"
        }
    ],
    "synonyms": [
        "α-Glucosidase",
        "Glucosidase, α-",
        "E.C. 3.2.1.20",
        "Maltase",
        "α-Glucopyranosidase",
        "Glucosidosucrase",
        "Glucosidoinvertase",
        "Glucoinvertase",
        "α-<span class=\"text-smallcaps\">D</span>-Glucosidase",
        "α-Glucoside hydrolase",
        "α-1,4-Glucosidase",
        "Aryl-α-<span class=\"text-smallcaps\">D</span>-glucosidase",
        "α-<span class=\"text-smallcaps\">D</span>-Glucopyranosidase",
        "Nitrophenyl α-<span class=\"text-smallcaps\">D</span>-glucosidase",
        "Transglucosidase L",
        "Maltase glucoamylase",
        "Transglucosidase",
        "Transglucosidase L Amano",
        "Brush border hydrolase",
        "alpha-Glucosidase",
        "Transglucosidase L 200G",
        "GH 57",
        "Alpha-D-Glucosidase"
    ],
    "replacedRns": [
        "9033-01-6",
        "115775-10-5"
    ],
    "hasMolfile": false,
    "source": "https://commonchemistry.cas.org/detail?cas_rn=9001-42-7"
}