{
    "cas_no": "3283-05-4",
    "key_name": "<em>N</em><sup>1</sup>,<em>N</em><sup>1</sup>,<em>N</em><sup>4</sup>,<em>N</em><sup>4</sup>-Tetrakis(4-nitrophenyl)-1,4-benzenediamine",
    "cn_name": null,
    "alternate_name": "1,4-Benzenediamine, <em>N</em><sup>1</sup>,<em>N</em><sup>1</sup>,<em>N</em><sup>4</sup>,<em>N</em><sup>4</sup>-tetrakis(4-nitrophenyl)-;<em>p</em>-Phenylenediamine, <em>N</em>,<em>N</em>,<em>N</em>′,<em>N</em>′-tetrakis(<em>p</em>-nitrophenyl)-;1,4-Benzenediamine, <em>N</em>,<em>N</em>,<em>N</em>′,<em>N</em>′-tetrakis(4-nitrophenyl)-;<em>N</em><sup>1</sup>,<em>N</em><sup>1</sup>,<em>N</em><sup>4</sup>,<em>N</em><sup>4</sup>-Tetrakis(4-nitrophenyl)-1,4-benzenediamine;<em>N</em>,<em>N</em>,<em>N</em>′,<em>N</em>′-Tetrakis(<em>p</em>-nitrophenyl)-<em>p</em>-phenylenediamine;<em>N</em>,<em>N</em>,<em>N</em>′,<em>N</em>′-Tetrakis(4-nitrophenyl)-<em>p</em>-phenylenediamine;1-<em>N</em>,1-<em>N</em>,4-<em>N</em>,4-<em>N</em>-Tetrakis(4-nitrophenyl)benzene-1,4-diamine",
    "duplicated_cas_no": "",
    "SMILES": "N(C1=CC=C(N(C2=CC=C(N(=O)=O)C=C2)C3=CC=C(N(=O)=O)C=C3)C=C1)(C4=CC=C(N(=O)=O)C=C4)C5=CC=C(N(=O)=O)C=C5",
    "meta_data": {
        "InChI": "InChI=1S/C30H20N6O8/c37-33(38)27-13-5-23(6-14-27)31(24-7-15-28(16-8-24)34(39)40)21-1-2-22(4-3-21)32(25-9-17-29(18-10-25)35(41)42)26-11-19-30(20-12-26)36(43)44/h1-20H",
        "InChIKey": null,
        "Canonical SMILES": "O=N(=O)C1=CC=C(C=C1)N(C2=CC=C(C=C2)N(=O)=O)C3=CC=C(C=C3)N(C4=CC=C(C=C4)N(=O)=O)C5=CC=C(C=C5)N(=O)=O",
        "Molecular Formula": "C<sub>30</sub>H<sub>20</sub>N<sub>6</sub>O<sub>8</sub>",
        "Molecular Mass": "592.52",
        "Melting Point": "390-392 °C"
    }
}