{
    "cas_no": "1122-62-9",
    "key_name": "2-Acetylpyridine",
    "cn_name": "2-乙酰基吡啶;",
    "alternate_name": "Ethanone, 1-(2-pyridinyl)-;Ketone, methyl 2-pyridyl;1-(2-Pyridinyl)ethanone;2-Acetylpyridine;2-Pyridyl methyl ketone;Methyl 2-pyridyl ketone;Methyl 2-pyridinyl ketone;α-Acetylpyridine;NSC 15043;Pyridin-2-yl methyl ketone;1-(2-Pyridyl)-1-ethanone;1-(Pyridin-2-yl)ethan-1-one;1-(2-Pyridyl)ethanone;1-(Pyridin-2-yl)ethanone",
    "duplicated_cas_no": "",
    "SMILES": "C(C)(=O)C1=CC=CC=N1",
    "meta_data": {
        "InChI": "InChI=1S/C7H7NO/c1-6(9)7-4-2-3-5-8-7/h2-5H,1H3",
        "InChIKey": null,
        "Canonical SMILES": "O=C(C1=NC=CC=C1)C",
        "Molecular Formula": "C<sub>7</sub>H<sub>7</sub>NO",
        "Molecular Mass": "121.14",
        "Boiling Point": "192 °C",
        "Melting Point": "82-84 °C"
    }
}