{
    "cas_no": "588-93-2",
    "key_name": "1-Bromo-4-propylbenzene",
    "cn_name": "4-丙基溴苯;对丙基溴苯;4-溴丙苯;",
    "alternate_name": "Benzene, 1-bromo-4-propyl-;1-Bromo-4-propylbenzene;4-Bromopropylbenzene;4-Propyl-1-bromobenzene;4-Propylbromobenzene;NSC 97222;1-Propyl-4-bromobenzene;4-<em>n</em>-Propylbromobenzene;4-Propylphenylbromide",
    "duplicated_cas_no": "",
    "SMILES": "C(CC)C1=CC=C(Br)C=C1",
    "meta_data": {
        "InChI": "InChI=1S/C9H11Br/c1-2-3-8-4-6-9(10)7-5-8/h4-7H,2-3H2,1H3",
        "InChIKey": null,
        "Canonical SMILES": "BrC1=CC=C(C=C1)CCC",
        "Molecular Formula": "C<sub>9</sub>H<sub>11</sub>Br",
        "Molecular Mass": "199.09",
        "Boiling Point": "85-86 °C",
        "Melting Point": "-41.53 °C",
        "Density": "1.2830 g/cm³ @ Temp: 20 °C"
    }
}