{
    "cas_no": "33119-72-1",
    "key_name": "1-Amino-3,3-dimethyl-2-butanone hydrochloride",
    "cn_name": null,
    "alternate_name": "2-Butanone, 1-amino-3,3-dimethyl-, hydrochloride (1:1);2-Butanone, 1-amino-3,3-dimethyl-, hydrochloride;1-Amino-3,3-dimethyl-2-butanone hydrochloride;α-Aminopinacolone hydrochloride",
    "duplicated_cas_no": "",
    "SMILES": "C(C(C)(C)C)(CN)=O.Cl",
    "meta_data": {
        "InChI": "InChI=1S/C6H13NO.ClH/c1-6(2,3)5(8)4-7;/h4,7H2,1-3H3;1H",
        "InChIKey": null,
        "Canonical SMILES": "Cl.O=C(CN)C(C)(C)C",
        "Molecular Formula": "C<sub>6</sub>H<sub>13</sub>NO.ClH",
        "Molecular Mass": "",
        "Melting Point": "205 °C"
    }
}