{
    "cas_no": "544-85-4",
    "key_name": "Dotriacontane",
    "cn_name": "三十二烷;正三十二烷;",
    "alternate_name": "Dotriacontane;Bicetyl;<em>n</em>-Dotriacontane;NSC 6361",
    "duplicated_cas_no": "",
    "SMILES": "C(CCCCCCCCCCCCCCCC)CCCCCCCCCCCCCCC",
    "meta_data": {
        "InChI": "InChI=1S/C32H66/c1-3-5-7-9-11-13-15-17-19-21-23-25-27-29-31-32-30-28-26-24-22-20-18-16-14-12-10-8-6-4-2/h3-32H2,1-2H3",
        "InChIKey": null,
        "Canonical SMILES": "CCCCCCCCCCCCCCCCCCCCCCCCCCCCCCCC",
        "Molecular Formula": "C<sub>32</sub>H<sub>66</sub>",
        "Molecular Mass": "450.87",
        "Boiling Point": "467 °C",
        "Melting Point": "69.7 °C",
        "Density": "0.9162 g/cm³ @ Temp: 60 °C"
    }
}