{
    "cas_no": "364-53-4",
    "key_name": "4-Fluoro-1,2-dinitrobenzene",
    "cn_name": null,
    "alternate_name": "Benzene, 4-fluoro-1,2-dinitro-;4-Fluoro-1,2-dinitrobenzene;1,2-Dinitro-4-fluorobenzene;3,4-Dinitrofluorobenzene;1-Fluoro-3,4-dinitrobenzene;NSC 170938",
    "duplicated_cas_no": "",
    "SMILES": "N(=O)(=O)C1=C(N(=O)=O)C=C(F)C=C1",
    "meta_data": {
        "InChI": "InChI=1S/C6H3FN2O4/c7-4-1-2-5(8(10)11)6(3-4)9(12)13/h1-3H",
        "InChIKey": null,
        "Canonical SMILES": "O=N(=O)C1=CC=C(F)C=C1N(=O)=O",
        "Molecular Formula": "C<sub>6</sub>H<sub>3</sub>FN<sub>2</sub>O<sub>4</sub>",
        "Molecular Mass": "186.10",
        "Melting Point": "25.8 °C"
    }
}