{
    "cas_no": "3529-09-7",
    "key_name": "<em>N</em><sup>1</sup>,<em>N</em><sup>1</sup>-Dibutyl-1,2-ethanediamine",
    "cn_name": "N,N-二正丁基乙二胺;",
    "alternate_name": "1,2-Ethanediamine, <em>N</em><sup>1</sup>,<em>N</em><sup>1</sup>-dibutyl-;Ethylenediamine, <em>N</em>,<em>N</em>-dibutyl-;1,2-Ethanediamine, <em>N</em>,<em>N</em>-dibutyl-;<em>N</em><sup>1</sup>,<em>N</em><sup>1</sup>-Dibutyl-1,2-ethanediamine;<em>N</em>,<em>N</em>-Dibutylethylenediamine;2-(Dibutylamino)ethylamine;<em>N</em>,<em>N</em>-Dibutyl-1,2-ethanediamine;NSC 100948;<em>N</em>,<em>N</em>-Dibutyl-1,2-diaminoethane;(2-Aminoethyl)dibutylamine;1,2-Ethanediamine N1,N1-dibutyl-",
    "duplicated_cas_no": "",
    "SMILES": "N(CCCC)(CCCC)CCN",
    "meta_data": {
        "InChI": "InChI=1S/C10H24N2/c1-3-5-8-12(10-7-11)9-6-4-2/h3-11H2,1-2H3",
        "InChIKey": null,
        "Canonical SMILES": "NCCN(CCCC)CCCC",
        "Molecular Formula": "C<sub>10</sub>H<sub>24</sub>N<sub>2</sub>",
        "Molecular Mass": "172.31",
        "Boiling Point": "98-101 °C @ Press: 13 Torr",
        "Melting Point": "187-188 °C",
        "Density": "0.8255 g/cm³ @ Temp: 20 °C"
    }
}