{
    "cas_no": "7789-38-0",
    "key_name": "Sodium bromate",
    "cn_name": "溴酸钠;",
    "alternate_name": "Bromic acid, sodium salt (1:1);Bromic acid, sodium salt;Sodium bromate;Neutralizer K 126;Neutralizer K 140;Neutralizer K 938;Sodium bromate (NaBrO<sub>3</sub>)",
    "duplicated_cas_no": "38869-75-9;38869-76-0;2356137-58-9",
    "SMILES": "Br(=O)(=O)O.[Na]",
    "meta_data": {
        "InChI": "InChI=1S/BrHO3.Na/c2-1(3)4;/h(H,2,3,4);",
        "InChIKey": null,
        "Canonical SMILES": "[Na].O=Br(=O)O",
        "Molecular Formula": "BrHO<sub>3</sub>.Na",
        "Molecular Mass": "",
        "Melting Point": "381 °C",
        "Density": "3.339 g/cm³ @ Temp: 17.5 °C"
    }
}