{
    "cas_no": "5967-90-8",
    "key_name": "Thiomorpholine, hydrochloride (1:1)",
    "cn_name": null,
    "alternate_name": "Thiomorpholine, hydrochloride (1:1);Thiomorpholine, hydrochloride;Thiamorpholine hydrochloride",
    "duplicated_cas_no": "",
    "SMILES": "C1CSCCN1.Cl",
    "meta_data": {
        "InChI": "InChI=1S/C4H9NS.ClH/c1-3-6-4-2-5-1;/h5H,1-4H2;1H",
        "InChIKey": null,
        "Canonical SMILES": "Cl.S1CCNCC1",
        "Molecular Formula": "C<sub>4</sub>H<sub>9</sub>NS.ClH",
        "Molecular Mass": "",
        "Melting Point": "174-175 °C"
    }
}