{
    "cas_no": "10447-39-9",
    "key_name": "Quifenadine",
    "cn_name": null,
    "alternate_name": "1-Azabicyclo[2.2.2]octane-3-methanol, α,α-diphenyl-;3-Quinuclidinemethanol, α,α-diphenyl-;α,α-Diphenyl-1-azabicyclo[2.2.2]octane-3-methanol;Diphenyl-3-quinuclidylcarbinol;Quifenadine;(1-Aza-bicyclo[2.2.2]oct-3-yl)-diphenyl-methanol;1-Azabicyclo[2.2.2]octan-3-yl(diphenyl)methanol",
    "duplicated_cas_no": "",
    "SMILES": "C(O)(C1C2CCN(C1)CC2)(C3=CC=CC=C3)C4=CC=CC=C4",
    "meta_data": {
        "InChI": "InChI=1S/C20H23NO/c22-20(17-7-3-1-4-8-17,18-9-5-2-6-10-18)19-15-21-13-11-16(19)12-14-21/h1-10,16,19,22H,11-15H2",
        "InChIKey": null,
        "Canonical SMILES": "OC(C=1C=CC=CC1)(C=2C=CC=CC2)C3CN4CCC3CC4",
        "Molecular Formula": "C<sub>20</sub>H<sub>23</sub>NO",
        "Molecular Mass": "293.40",
        "Melting Point": "239 °C"
    }
}