{
    "cas_no": "501-89-3",
    "key_name": "4-Carboxybenzeneacetic acid",
    "cn_name": null,
    "alternate_name": "Benzeneacetic acid, 4-carboxy-;<em>p</em>-Toluic acid, α-carboxy-;4-Carboxybenzeneacetic acid;(<em>p</em>-Carboxyphenyl)acetic acid;Homoterephthalic acid;<em>p</em>-Carboxy-α-toluic acid;<em>p</em>-(Carboxymethyl)benzoic acid;4-(Carboxymethyl)benzoic acid;α-Carboxy-<em>p</em>-toluic acid;4-Carboxyphenylacetic acid;NSC 2109;<em>p</em>-Carboxyphenoxyacetic acid",
    "duplicated_cas_no": "",
    "SMILES": "C(C(O)=O)C1=CC=C(C(O)=O)C=C1",
    "meta_data": {
        "InChI": "InChI=1S/C9H8O4/c10-8(11)5-6-1-3-7(4-2-6)9(12)13/h1-4H,5H2,(H,10,11)(H,12,13)",
        "InChIKey": null,
        "Canonical SMILES": "O=C(O)C1=CC=C(C=C1)CC(=O)O",
        "Molecular Formula": "C<sub>9</sub>H<sub>8</sub>O<sub>4</sub>",
        "Molecular Mass": "180.16",
        "Melting Point": "234-236 °C"
    }
}