{
    "cas_no": "87-44-5",
    "key_name": "(-)-Caryophyllene",
    "cn_name": "1-石竹烯;",
    "alternate_name": "Bicyclo[7.2.0]undec-4-ene, 4,11,11-trimethyl-8-methylene-, (1<em>R</em>,4<em>E</em>,9<em>S</em>)-;Bicyclo[7.2.0]undec-4-ene, 4,11,11-trimethyl-8-methylene-, (<em>E</em>)-(1<em>R</em>,9<em>S</em>)-(-)-;Bicyclo[7.2.0]undec-4-ene, 4,11,11-trimethyl-8-methylene-, [1<em>R</em>-(1<em>R</em>*,4<em>E</em>,9<em>S</em>*)]-;(1<em>R</em>,4<em>E</em>,9<em>S</em>)-4,11,11-Trimethyl-8-methylenebicyclo[7.2.0]undec-4-ene;<em>trans</em>-Caryophyllene;Caryophyllene;<em>l</em>-Caryophyllene;β-Caryophyllene;β-Caryophyllen;(-)-β-Caryophyllene;β-Caryophyllene, (-);(-)-Caryophyllene;(-)-<em>trans</em>-Caryophyllene;(-)-E-Caryophyllene;(<em>E</em>)-Caryophyllene;(-)-(<em>E</em>)-Caryophyllene;NSC 11906;Caryophyllene B;<em>trans</em>-β-Caryophyllene;Caryophylline;9-<em>epi</em>-(E)-Caryophyllene;(E)-Caryophyllene;AKY 2348",
    "duplicated_cas_no": "1407-53-0;8007-38-3;1233519-47-5",
    "SMILES": "",
    "meta_data": {
        "InChI": "",
        "InChIKey": null,
        "Canonical SMILES": "",
        "Molecular Formula": "C<sub>15</sub>H<sub>24</sub>",
        "Molecular Mass": "204.35",
        "Boiling Point": "118-119 °C @ Press: 9.7 Torr",
        "Melting Point": "&lt;25 °C",
        "Density": "0.9052 g/cm³ @ Temp: 17 °C"
    }
}