{
    "cas_no": "23708-56-7",
    "key_name": "6-Undecanol",
    "cn_name": "6-十一烷醇;",
    "alternate_name": "6-Undecanol;NSC 158434;6-Hydroxyundecane;1-Pentylhexanol",
    "duplicated_cas_no": "",
    "SMILES": "C(C(CCCCC)O)CCCC",
    "meta_data": {
        "InChI": "InChI=1S/C11H24O/c1-3-5-7-9-11(12)10-8-6-4-2/h11-12H,3-10H2,1-2H3",
        "InChIKey": null,
        "Canonical SMILES": "OC(CCCCC)CCCCC",
        "Molecular Formula": "C<sub>11</sub>H<sub>24</sub>O",
        "Molecular Mass": "172.31",
        "Boiling Point": "228 °C",
        "Melting Point": "25 °C",
        "Density": "0.8272 g/cm³ @ Temp: 21.8 °C"
    }
}