{
    "cas_no": "623-91-6",
    "key_name": "Diethyl fumarate",
    "cn_name": "富马酸二乙酯;",
    "alternate_name": "2-Butenedioic acid (2<em>E</em>)-, 1,4-diethyl ester;Fumaric acid, diethyl ester;2-Butenedioic acid (<em>E</em>)-, diethyl ester;2-Butenedioic acid (2<em>E</em>)-, diethyl ester;Diethyl fumarate;Ethyl fumarate;NSC 20954;(2<em>E</em>)-2-Butenedioic acid diethyl ester;(<em>E</em>)-But-2-enedioic acid diethyl ester;Diethyl (E)-but-2-enedioate;Diethyl fumaric acid ester",
    "duplicated_cas_no": "",
    "SMILES": "C(/C=C/C(OCC)=O)(OCC)=O",
    "meta_data": {
        "InChI": "InChI=1S/C8H12O4/c1-3-11-7(9)5-6-8(10)12-4-2/h5-6H,3-4H2,1-2H3/b6-5+",
        "InChIKey": null,
        "Canonical SMILES": "O=C(OCC)C=CC(=O)OCC",
        "Molecular Formula": "C<sub>8</sub>H<sub>12</sub>O<sub>4</sub>",
        "Molecular Mass": "172.18",
        "Boiling Point": "218.5 °C",
        "Melting Point": "0.6 °C",
        "Density": "1.0529 g/cm³"
    }
}