{
    "cas_no": "1942-52-5",
    "key_name": "(Diethylamino)ethanethiol hydrochloride",
    "cn_name": "2-(二乙氨基)乙硫醇盐酸盐;2-二乙氨基乙硫醇盐酸盐;2-乙氨基乙硫醇盐酸盐;",
    "alternate_name": "Ethanethiol, 2-(diethylamino)-, hydrochloride (1:1);Ethanethiol, 2-(diethylamino)-, hydrochloride;(Diethylamino)ethanethiol hydrochloride;<em>N</em>,<em>N</em>-Diethyl-β-mercaptoethylamine hydrochloride;<em>N</em>-(2-Mercaptoethyl)diethylamine hydrochloride;2-(Diethylamino)ethanethiol hydrochloride;2-(Diethylamino)ethylmercaptan hydrochloride",
    "duplicated_cas_no": "2022216-70-0",
    "SMILES": "N(CCS)(CC)CC.Cl",
    "meta_data": {
        "InChI": "InChI=1S/C6H15NS.ClH/c1-3-7(4-2)5-6-8;/h8H,3-6H2,1-2H3;1H",
        "InChIKey": null,
        "Canonical SMILES": "Cl.SCCN(CC)CC",
        "Molecular Formula": "C<sub>6</sub>H<sub>15</sub>NS.ClH",
        "Molecular Mass": "",
        "Melting Point": "172-173 °C"
    }
}