{
    "cas_no": "10035-10-6",
    "key_name": "Hydrogen bromide",
    "cn_name": "氢溴酸;溴化氢;",
    "alternate_name": "Hydrobromic acid;Anhydrous hydrobromic acid;Hydrogen bromide;Hydrogen bromide (HBr);Hydrogen bromide (H<sub>2</sub>Br<sub>2</sub>);Hydrogen monobromide;NSC 606640;Bromohydric acid",
    "duplicated_cas_no": "62140-56-1",
    "SMILES": "Br",
    "meta_data": {
        "InChI": "InChI=1S/BrH/h1H",
        "InChIKey": null,
        "Canonical SMILES": "Br",
        "Molecular Formula": "BrH",
        "Molecular Mass": "",
        "Boiling Point": "-67 °C",
        "Melting Point": "-87 °C",
        "Density": "1.8 g/cm³"
    }
}