{
    "cas_no": "84057-95-4",
    "key_name": "Ropivacaine",
    "cn_name": "罗哌卡因;(-)-(S)-N-(2,6-二甲基苯基)-1-正丙基哌啶-2-甲酰胺;",
    "alternate_name": "2-Piperidinecarboxamide, <em>N</em>-(2,6-dimethylphenyl)-1-propyl-, (2<em>S</em>)-;2-Piperidinecarboxamide, <em>N</em>-(2,6-dimethylphenyl)-1-propyl-, (<em>S</em>)-;(2<em>S</em>)-<em>N</em>-(2,6-Dimethylphenyl)-1-propyl-2-piperidinecarboxamide;Ropivacaine;LEA 103;(-)-LEA 103;(-)-Ropivacaine;(<em>S</em>)-(-)-Ropivacaine;Naropeine;Naropine;Narop;<em>S</em>-Ropivacaine;Anapeine;(2S)-<em>N</em>-(2,6-Dimethylphenyl)-1-propylpiperidine-2-carboxamide;(2S)-<em>N</em>-(2,6-Dimethylphenyl)-1-propyl-2-piperidinecarboxamide",
    "duplicated_cas_no": "",
    "SMILES": "C(NC1=C(C)C=CC=C1C)(=O)[C@H]2N(CCC)CCCC2",
    "meta_data": {
        "InChI": "InChI=1S/C17H26N2O/c1-4-11-19-12-6-5-10-15(19)17(20)18-16-13(2)8-7-9-14(16)3/h7-9,15H,4-6,10-12H2,1-3H3,(H,18,20)/t15-/m0/s1",
        "InChIKey": null,
        "Canonical SMILES": "O=C(NC=1C(=CC=CC1C)C)C2N(CCC)CCCC2",
        "Molecular Formula": "C<sub>17</sub>H<sub>26</sub>N<sub>2</sub>O",
        "Molecular Mass": "274.40",
        "Melting Point": "144-146 °C"
    }
}