{
    "cas_no": "99-02-5",
    "key_name": "1-(3-Chlorophenyl)ethanone",
    "cn_name": "3-氯苯乙酮;间氯苯乙酮;",
    "alternate_name": "Ethanone, 1-(3-chlorophenyl)-;Acetophenone, 3′-chloro-;1-(3-Chlorophenyl)ethanone;<em>m</em>-Chloroacetophenone;3′-Chloroacetophenone;1-Acetyl-3-chlorobenzene;Methyl 3-chlorophenyl ketone;3-Chlorophenyl methyl ketone;1-(3-Chlorophenyl)ethan-1-one",
    "duplicated_cas_no": "",
    "SMILES": "C(C)(=O)C1=CC(Cl)=CC=C1",
    "meta_data": {
        "InChI": "InChI=1S/C8H7ClO/c1-6(10)7-3-2-4-8(9)5-7/h2-5H,1H3",
        "InChIKey": null,
        "Canonical SMILES": "O=C(C=1C=CC=C(Cl)C1)C",
        "Molecular Formula": "C<sub>8</sub>H<sub>7</sub>ClO",
        "Molecular Mass": "154.59",
        "Boiling Point": "244 °C",
        "Density": "1.2130 g/cm³ @ Temp: 10 °C"
    }
}