{
    "cas_no": "62802-38-4",
    "key_name": "5-Bromo-2-fluoropyrimidine",
    "cn_name": "5-溴-2-氟嘧啶;",
    "alternate_name": "Pyrimidine, 5-bromo-2-fluoro-;5-Bromo-2-fluoropyrimidine;2-Fluoro-5-bromopyrimidine",
    "duplicated_cas_no": "",
    "SMILES": "BrC=1C=NC(F)=NC1",
    "meta_data": {
        "InChI": "InChI=1S/C4H2BrFN2/c5-3-1-7-4(6)8-2-3/h1-2H",
        "InChIKey": null,
        "Canonical SMILES": "FC1=NC=C(Br)C=N1",
        "Molecular Formula": "C<sub>4</sub>H<sub>2</sub>BrFN<sub>2</sub>",
        "Molecular Mass": "176.97",
        "Melting Point": "92-93 °C"
    }
}