{
    "cas_no": "1319-88-6",
    "key_name": "Benzaldehyde glyceryl acetal",
    "cn_name": "苯甲醛丙三醇缩醛;",
    "alternate_name": "Benzaldehyde, cyclic acetal with 1,2,3-propanetriol;Benzaldehyde, cyclic acetal with glycerol;Benzaldehyde glyceryl acetal",
    "duplicated_cas_no": "",
    "SMILES": "",
    "meta_data": {
        "InChI": "",
        "InChIKey": null,
        "Canonical SMILES": "",
        "Molecular Formula": "C<sub>10</sub>H<sub>12</sub>O<sub>3</sub>",
        "Molecular Mass": "",
        "Boiling Point": "152-154 °C @ Press: 12 Torr",
        "Density": "1.2115 g/cm³ @ Temp: 25 °C"
    }
}