{
    "cas_no": "629-92-5",
    "key_name": "Nonadecane",
    "cn_name": "十九烷;正十九烷;",
    "alternate_name": "Nonadecane;<em>n</em>-Nonadecane;NSC 77136",
    "duplicated_cas_no": "",
    "SMILES": "C(CCCCCCCCC)CCCCCCCCC",
    "meta_data": {
        "InChI": "InChI=1S/C19H40/c1-3-5-7-9-11-13-15-17-19-18-16-14-12-10-8-6-4-2/h3-19H2,1-2H3",
        "InChIKey": null,
        "Canonical SMILES": "CCCCCCCCCCCCCCCCCCC",
        "Molecular Formula": "C<sub>19</sub>H<sub>40</sub>",
        "Molecular Mass": "268.52",
        "Boiling Point": "329.9 °C",
        "Melting Point": "32.1 °C",
        "Density": "0.7780 g/cm³"
    }
}