{
    "cas_no": "4937-62-6",
    "key_name": "2-Amino-4-methylbenzophenone",
    "cn_name": null,
    "alternate_name": "Methanone, (2-amino-4-methylphenyl)phenyl-;Benzophenone, 2-amino-4-methyl-;(2-Amino-4-methylphenyl)phenylmethanone;2-Amino-4-methylbenzophenone;4-Methyl-2-aminobenzophenone;2-Benzoyl-5-methylaniline",
    "duplicated_cas_no": "",
    "SMILES": "C(=O)(C1=C(N)C=C(C)C=C1)C2=CC=CC=C2",
    "meta_data": {
        "InChI": "InChI=1S/C14H13NO/c1-10-7-8-12(13(15)9-10)14(16)11-5-3-2-4-6-11/h2-9H,15H2,1H3",
        "InChIKey": null,
        "Canonical SMILES": "O=C(C=1C=CC=CC1)C2=CC=C(C=C2N)C",
        "Molecular Formula": "C<sub>14</sub>H<sub>13</sub>NO",
        "Molecular Mass": "211.26",
        "Melting Point": "68-70 °C"
    }
}