{
    "cas_no": "19259-90-6",
    "key_name": "Acetyl-<em>d</em><sub>3</sub> chloride",
    "cn_name": "氘代乙酰氯;",
    "alternate_name": "Acetyl-<em>d</em><sub>3</sub> chloride;Acetyl chloride-<em>d</em><sub>3</sub>;Trideuteroacetyl chloride",
    "duplicated_cas_no": "",
    "SMILES": "C(C([2H])([2H])[2H])(Cl)=O",
    "meta_data": {
        "InChI": "InChI=1S/C2H3ClO/c1-2(3)4/h1H3/i1D3",
        "InChIKey": null,
        "Canonical SMILES": "O=C(Cl)C",
        "Molecular Formula": "C<sub>2</sub>ClD<sub>3</sub>O",
        "Molecular Mass": "",
        "Boiling Point": "52-54 °C"
    }
}