{
    "cas_no": "274-40-8",
    "key_name": "Indolizine",
    "cn_name": null,
    "alternate_name": "Indolizine;Pyrrocoline;Pyrrolo[1,2-<em>a</em>]pyridine;4-Azaindene;Pyrrocolin;Indolizin",
    "duplicated_cas_no": "",
    "SMILES": "C=12N(C=CC1)C=CC=C2",
    "meta_data": {
        "InChI": "InChI=1S/C8H7N/c1-2-6-9-7-3-5-8(9)4-1/h1-7H",
        "InChIKey": null,
        "Canonical SMILES": "C=1C=CN2C=CC=C2C1",
        "Molecular Formula": "C<sub>8</sub>H<sub>7</sub>N",
        "Molecular Mass": "117.15",
        "Boiling Point": "205 °C",
        "Melting Point": "75 °C"
    }
}