{
    "cas_no": "114012-12-3",
    "key_name": "Phaclofen",
    "cn_name": null,
    "alternate_name": "Phosphonic acid, <em>P</em>-[3-amino-2-(4-chlorophenyl)propyl]-;Phosphonic acid, [3-amino-2-(4-chlorophenyl)propyl]-;<em>P</em>-[3-Amino-2-(4-chlorophenyl)propyl]phosphonic acid;Phaclofen;[3-Amino-2-(4-chlorophenyl)propyl]phosphonic acid",
    "duplicated_cas_no": "108351-35-5",
    "SMILES": "C(CP(=O)(O)O)(CN)C1=CC=C(Cl)C=C1",
    "meta_data": {
        "InChI": "InChI=1S/C9H13ClNO3P/c10-9-3-1-7(2-4-9)8(5-11)6-15(12,13)14/h1-4,8H,5-6,11H2,(H2,12,13,14)",
        "InChIKey": null,
        "Canonical SMILES": "O=P(O)(O)CC(C1=CC=C(Cl)C=C1)CN",
        "Molecular Formula": "C<sub>9</sub>H<sub>13</sub>ClNO<sub>3</sub>P",
        "Molecular Mass": "249.63",
        "Melting Point": "249-252 °C"
    }
}