{
    "cas_no": "31058-83-0",
    "key_name": "6-Chloro-<em>N</em>,<em>N</em>-dimethyl-4-pyrimidinamine",
    "cn_name": null,
    "alternate_name": "4-Pyrimidinamine, 6-chloro-<em>N</em>,<em>N</em>-dimethyl-;Pyrimidine, 4-chloro-6-(dimethylamino)-;6-Chloro-<em>N</em>,<em>N</em>-dimethyl-4-pyrimidinamine;4-Chloro-6-(dimethylamino)pyrimidine;(6-Chloropyrimidin-4-yl)dimethylamine;6-Chloro-<em>N</em>,<em>N</em>-dimethylpyrimidin-4-amine",
    "duplicated_cas_no": "",
    "SMILES": "N(C)(C)C=1C=C(Cl)N=CN1",
    "meta_data": {
        "InChI": "InChI=1S/C6H8ClN3/c1-10(2)6-3-5(7)8-4-9-6/h3-4H,1-2H3",
        "InChIKey": null,
        "Canonical SMILES": "ClC1=NC=NC(=C1)N(C)C",
        "Molecular Formula": "C<sub>6</sub>H<sub>8</sub>ClN<sub>3</sub>",
        "Molecular Mass": "157.60",
        "Melting Point": "102-103 °C"
    }
}