{
    "cas_no": "368-72-9",
    "key_name": "3-Amino-4-chlorobenzenesulfonyl fluoride",
    "cn_name": "3-氨基-4-氯苯基磺酰氟;",
    "alternate_name": "Benzenesulfonyl fluoride, 3-amino-4-chloro-;Metanilyl fluoride, 4-chloro-;3-Amino-4-chlorobenzenesulfonyl fluoride;NSC 119917;3-Amino-4-chlorobenzene-1-sulfonyl fluoride",
    "duplicated_cas_no": "",
    "SMILES": "S(F)(=O)(=O)C1=CC(N)=C(Cl)C=C1",
    "meta_data": {
        "InChI": "InChI=1S/C6H5ClFNO2S/c7-5-2-1-4(3-6(5)9)12(8,10)11/h1-3H,9H2",
        "InChIKey": null,
        "Canonical SMILES": "O=S(=O)(F)C1=CC=C(Cl)C(N)=C1",
        "Molecular Formula": "C<sub>6</sub>H<sub>5</sub>ClFNO<sub>2</sub>S",
        "Molecular Mass": "209.63",
        "Melting Point": "64-66 °C"
    }
}