{
    "cas_no": "5356-88-7",
    "key_name": "Tris(1,1-dimethylethoxy)ethenylsilane",
    "cn_name": "三叔丁氧基乙烯基硅烷;",
    "alternate_name": "Silane, tris(1,1-dimethylethoxy)ethenyl-;Silane, tri-<em>tert</em>-butoxyvinyl-;Tris(1,1-dimethylethoxy)ethenylsilane;Tris(<em>tert</em>-butoxy)vinylsilane;Y 5712;Tri-<em>tert</em>-butoxyvinylsilane;Vinyltri(<em>tert</em>-butoxy)silane;Vinyl tris(<em>tert</em>-butoxy)silane",
    "duplicated_cas_no": "",
    "SMILES": "[Si](OC(C)(C)C)(OC(C)(C)C)(OC(C)(C)C)C=C",
    "meta_data": {
        "InChI": "InChI=1S/C14H30O3Si/c1-11-18(15-12(2,3)4,16-13(5,6)7)17-14(8,9)10/h11H,1H2,2-10H3",
        "InChIKey": null,
        "Canonical SMILES": "O(C(C)(C)C)[Si](OC(C)(C)C)(OC(C)(C)C)C=C",
        "Molecular Formula": "C<sub>14</sub>H<sub>30</sub>O<sub>3</sub>Si",
        "Molecular Mass": "274.47",
        "Boiling Point": "54 °C @ Press: 2 Torr",
        "Density": "0.869 g/cm³"
    }
}