{
    "cas_no": "51282-49-6",
    "key_name": "Benzoic acid, 5-chloro-2-nitro-, methyl ester",
    "cn_name": null,
    "alternate_name": "Benzoic acid, 5-chloro-2-nitro-, methyl ester;Methyl 5-chloro-2-nitrobenzoate;4-Chloro-2-methoxycarbonylnitrobenzene;5-Chloro-2-nitrobenzoic acid methyl ester",
    "duplicated_cas_no": "",
    "SMILES": "C(OC)(=O)C1=C(N(=O)=O)C=CC(Cl)=C1",
    "meta_data": {
        "InChI": "InChI=1S/C8H6ClNO4/c1-14-8(11)6-4-5(9)2-3-7(6)10(12)13/h2-4H,1H3",
        "InChIKey": null,
        "Canonical SMILES": "O=C(OC)C1=CC(Cl)=CC=C1N(=O)=O",
        "Molecular Formula": "C<sub>8</sub>H<sub>6</sub>ClNO<sub>4</sub>",
        "Molecular Mass": "215.59",
        "Melting Point": "48.5 °C"
    }
}