{
    "cas_no": "1470-94-6",
    "key_name": "5-Indanol",
    "cn_name": "5-茚醇;5-吲哚;5-茚醇;5-茚满醇;顺式-1-氨基-2-茚醇;5-茚醇,99%;",
    "alternate_name": "1<em>H</em>-Inden-5-ol, 2,3-dihydro-;5-Indanol;2,3-Dihydro-1<em>H</em>-inden-5-ol;5-Hydroxyhydrindene;5-Hydroxyindan;5-Hydroxyindane;NSC 9775;Indan-6-ol;2,3-Dihydroinden-5-ol",
    "duplicated_cas_no": "",
    "SMILES": "OC=1C=C2C(=CC1)CCC2",
    "meta_data": {
        "InChI": "InChI=1S/C9H10O/c10-9-5-4-7-2-1-3-8(7)6-9/h4-6,10H,1-3H2",
        "InChIKey": null,
        "Canonical SMILES": "OC1=CC=C2C(=C1)CCC2",
        "Molecular Formula": "C<sub>9</sub>H<sub>10</sub>O",
        "Molecular Mass": "134.18",
        "Boiling Point": "253 °C",
        "Melting Point": "58 °C",
        "Density": "1.0062 g/cm³ @ Temp: 20.3 °C"
    }
}