{
    "cas_no": "79-57-2",
    "key_name": "Oxytetracycline",
    "cn_name": "土霉素;地霉素;氧四环素;4-二甲氨基-1,4,4a,5,5a,6,11,12a-八氢-3,5,6,10,12,12a-六羟基-6-甲基-1,11-二氧;",
    "alternate_name": "2-Naphthacenecarboxamide, 4-(dimethylamino)-1,4,4a,5,5a,6,11,12a-octahydro-3,5,6,10,12,12a-hexahydroxy-6-methyl-1,11-dioxo-, (4<em>S</em>,4a<em>R</em>,5<em>S</em>,5a<em>R</em>,6<em>S</em>,12a<em>S</em>)-;2-Naphthacenecarboxamide, 4-(dimethylamino)-1,4,4a,5,5a,6,11,12a-octahydro-3,5,6,10,12,12a-hexahydroxy-6-methyl-1,11-dioxo-;2-Naphthacenecarboxamide, 4-(dimethylamino)-1,4,4a,5,5a,6,11,12a-octahydro-3,5,6,10,12,12a-hexahydroxy-6-methyl-1,11-dioxo-, [4<em>S</em>-(4α,4aα,5α,5aα,6β,12aα)]-;(4<em>S</em>,4a<em>R</em>,5<em>S</em>,5a<em>R</em>,6<em>S</em>,12a<em>S</em>)-4-(Dimethylamino)-1,4,4a,5,5a,6,11,12a-octahydro-3,5,6,10,12,12a-hexahydroxy-6-methyl-1,11-dioxo-2-naphthacenecarboxamide;Biostat PA;5-Hydroxytetracycline;OTC;Oxymykoin;Oxyterracyne;Oxytetracycline;Riomitsin;Ryomycin;Terrafungine;Oxytetracycline amphoteric;Terramycin;Tetran;Oxyterracine;Oxitetracyclin;Oxyterracin;Vendarcin;Macocyn;Oxytetracyclin;Oxy-Kesso-Tetra;Adamycin;Proteroxyna;Berkmycen;NSC 9169;Solkaciclina;Oksisyklin;Stevacin;Fanterrin;Oxymycin;Geomycin (Streptomyces vimosus);Lenocycline;Oxypam;Liquamycin;Dabicycline;OTC (antibiotic);Teravit;Ursocycline;Liquamycin LA 200;Tarosin;Tarocyn;Ursocyclin;Geomycin;Antibiotic TM 25;Terramycin Q 50;Mycoshield TMQTHC 20;LA 200;Geotilin;TM 50;Oxyject LA;Stecsolin;Clinimycin;OXTC;Oxydon;Oxatets;Imperacin;Unimycin;Terralon LA;Stevasin;Abbocin;Oxytetral;Oxycline;Oxiter 200;Oxylim;Oxymed 50;Oxysentin 100;Erfamycin;4-Dimethylamino-3,5,6,10,12,12a-hexahydroxy-6-methyl-1,11-dioxo-4,4a,5,5a-tetrahydrotetracene-2-carboxamide;Tormicina;MeSH ID: D010118",
    "duplicated_cas_no": "1405-95-4;21645-09-0;52214-46-7;96310-42-8;102287-29-6;103351-03-7;105145-10-6;106216-57-3;856305-69-6;909261-39-8;1135442-00-0;1256964-22-3",
    "SMILES": "O[C@@]12[C@@]([C@@H](O)[C@]3(C(=C1O)C(=O)C=4C([C@@]3(C)O)=CC=CC4O)[H])([C@H](N(C)C)C(O)=C(C(N)=O)C2=O)[H]",
    "meta_data": {
        "InChI": "InChI=1S/C22H24N2O9/c1-21(32)7-5-4-6-8(25)9(7)15(26)10-12(21)17(28)13-14(24(2)3)16(27)11(20(23)31)19(30)22(13,33)18(10)29/h4-6,12-14,17,25,27-29,32-33H,1-3H3,(H2,23,31)/t12-,13-,14+,17+,21-,22+/m1/s1",
        "InChIKey": null,
        "Canonical SMILES": "O=C(N)C=1C(=O)C2(O)C(O)=C3C(=O)C=4C(O)=CC=CC4C(O)(C)C3C(O)C2C(C1O)N(C)C",
        "Molecular Formula": "C<sub>22</sub>H<sub>24</sub>N<sub>2</sub>O<sub>9</sub>",
        "Molecular Mass": "460.43",
        "Melting Point": "184-185 °C",
        "Density": "1.634 g/cm³ @ Temp: 20 °C"
    }
}