{
    "cas_no": "13735-13-2",
    "key_name": "6-Bromo-2,3-dihydro-4<em>H</em>-1-benzothiopyran-4-one",
    "cn_name": null,
    "alternate_name": "4<em>H</em>-1-Benzothiopyran-4-one, 6-bromo-2,3-dihydro-;Thiochroman-4-one, 6-bromo-;6-Bromo-2,3-dihydro-4<em>H</em>-1-benzothiopyran-4-one;6-Bromothiochroman-4-one;2,3-Dihydro-6-bromo-4<em>H</em>-1-benzothiopyran-4-one;6-Bromo-2,3-dihydro-4<em>H</em>-thiochromen-4-one",
    "duplicated_cas_no": "",
    "SMILES": "O=C1C=2C(=CC=C(Br)C2)SCC1",
    "meta_data": {
        "InChI": "InChI=1S/C9H7BrOS/c10-6-1-2-9-7(5-6)8(11)3-4-12-9/h1-2,5H,3-4H2",
        "InChIKey": null,
        "Canonical SMILES": "O=C1C2=CC(Br)=CC=C2SCC1",
        "Molecular Formula": "C<sub>9</sub>H<sub>7</sub>BrOS",
        "Molecular Mass": "243.12",
        "Melting Point": "70 °C"
    }
}