{
    "cas_no": "262429-49-2",
    "key_name": "(<em>R</em>)-3-Amino-3-(3-chlorophenyl)propanoic acid",
    "cn_name": null,
    "alternate_name": "Benzenepropanoic acid, β-amino-3-chloro-, (β<em>R</em>)-;(β<em>R</em>)-β-Amino-3-chlorobenzenepropanoic acid;(<em>R</em>)-3-Amino-3-(3-chlorophenyl)propanoic acid;(R)-3-Amino-3-(3-chlorophenyl)propionic acid;(r)-3-(3-Chlorophenyl)-β-alanine;(3R)-3-Amino-3-(3-chlorophenyl)propanoic acid",
    "duplicated_cas_no": "",
    "SMILES": "[C@H](CC(O)=O)(N)C1=CC(Cl)=CC=C1",
    "meta_data": {
        "InChI": "InChI=1S/C9H10ClNO2/c10-7-3-1-2-6(4-7)8(11)5-9(12)13/h1-4,8H,5,11H2,(H,12,13)/t8-/m1/s1",
        "InChIKey": null,
        "Canonical SMILES": "O=C(O)CC(N)C=1C=CC=C(Cl)C1",
        "Molecular Formula": "C<sub>9</sub>H<sub>10</sub>ClNO<sub>2</sub>",
        "Molecular Mass": "199.63",
        "Melting Point": "230-233 °C"
    }
}