{
    "cas_no": "1205-91-0",
    "key_name": "1,4-Diacetoxybenzene",
    "cn_name": "对二乙酰氧基苯;对苯二酚二乙酸酯;",
    "alternate_name": "1,4-Benzenediol, 1,4-diacetate;Hydroquinone, diacetate;1,4-Benzenediol, diacetate;1,4-Diacetoxybenzene;<em>p</em>-Acetoxyphenyl acetate;<em>p</em>-Phenylene diacetate;4-Acetoxyphenyl acetate;1,4-Hydroquinone diacetate;<em>p</em>-Dihydroxybenzene diacetate;NSC 9277;Benzene-1,4-diacetate;<em>p</em>-Diacetoxybenzene;(4-Acetyloxyphenyl) acetate;Phenol, 4-[(1-methylethenyl)oxy]-, 1-acetate",
    "duplicated_cas_no": "128805-33-4;2595087-05-9",
    "SMILES": "O(C(C)=O)C1=CC=C(OC(C)=O)C=C1",
    "meta_data": {
        "InChI": "InChI=1S/C10H10O4/c1-7(11)13-9-3-5-10(6-4-9)14-8(2)12/h3-6H,1-2H3",
        "InChIKey": null,
        "Canonical SMILES": "O=C(OC1=CC=C(OC(=O)C)C=C1)C",
        "Molecular Formula": "C<sub>10</sub>H<sub>10</sub>O<sub>4</sub>",
        "Molecular Mass": "194.18",
        "Melting Point": "123.5 °C"
    }
}