{
    "cas_no": "13228-39-2",
    "key_name": "1-Ethyl-2-phenyl-1<em>H</em>-indole",
    "cn_name": "1-乙基-2-苯基吲哚;",
    "alternate_name": "1<em>H</em>-Indole, 1-ethyl-2-phenyl-;Indole, 1-ethyl-2-phenyl-;1-Ethyl-2-phenyl-1<em>H</em>-indole;1-Ethyl-2-phenylindole;<em>N</em>-Ethyl-2-phenylindole",
    "duplicated_cas_no": "",
    "SMILES": "C(C)N1C(=CC=2C1=CC=CC2)C3=CC=CC=C3",
    "meta_data": {
        "InChI": "InChI=1S/C16H15N/c1-2-17-15-11-7-6-10-14(15)12-16(17)13-8-4-3-5-9-13/h3-12H,2H2,1H3",
        "InChIKey": null,
        "Canonical SMILES": "C=1C=CC(=CC1)C2=CC=3C=CC=CC3N2CC",
        "Molecular Formula": "C<sub>16</sub>H<sub>15</sub>N",
        "Molecular Mass": "221.30",
        "Boiling Point": "207-209 °C @ Press: 19 Torr",
        "Melting Point": "84-84.5 °C"
    }
}