{
    "cas_no": "5344-78-5",
    "key_name": "1-Bromo-4-methoxy-2-nitrobenzene",
    "cn_name": "4-溴-3-硝基苯甲醚;",
    "alternate_name": "Benzene, 1-bromo-4-methoxy-2-nitro-;Anisole, 4-bromo-3-nitro-;1-Bromo-4-methoxy-2-nitrobenzene;4-Methoxy-2-nitrobromobenzene;4-Bromo-3-nitroanisole;2-Bromo-5-methoxynitrobenzene;2-Bromo-5-methoxy-1-nitrobenzene;NSC 1161;1-Bromo-2-nitro-4-methoxybenzene",
    "duplicated_cas_no": "919522-59-1",
    "SMILES": "N(=O)(=O)C1=CC(OC)=CC=C1Br",
    "meta_data": {
        "InChI": "InChI=1S/C7H6BrNO3/c1-12-5-2-3-6(8)7(4-5)9(10)11/h2-4H,1H3",
        "InChIKey": null,
        "Canonical SMILES": "O=N(=O)C1=CC(OC)=CC=C1Br",
        "Molecular Formula": "C<sub>7</sub>H<sub>6</sub>BrNO<sub>3</sub>",
        "Molecular Mass": "232.03",
        "Boiling Point": "153-154 °C @ Press: 13 Torr",
        "Melting Point": "32 °C"
    }
}