{
    "cas_no": "7210-77-7",
    "key_name": "Ethyl 2,4-dimethyl-5-thiazolecarboxylate",
    "cn_name": "2,4-二甲基噻唑-5-甲酸乙酯;2,4-二甲基噻唑-5-羧酸乙酯;2,4-二甲基噻唑-5-甲酸乙酯;",
    "alternate_name": "5-Thiazolecarboxylic acid, 2,4-dimethyl-, ethyl ester;Ethyl 2,4-dimethyl-5-thiazolecarboxylate;2,4-Dimethyl-thiazole-5-carboxylic acid ethyl ester",
    "duplicated_cas_no": "",
    "SMILES": "C(OCC)(=O)C1=C(C)N=C(C)S1",
    "meta_data": {
        "InChI": "InChI=1S/C8H11NO2S/c1-4-11-8(10)7-5(2)9-6(3)12-7/h4H2,1-3H3",
        "InChIKey": null,
        "Canonical SMILES": "O=C(OCC)C=1SC(=NC1C)C",
        "Molecular Formula": "C<sub>8</sub>H<sub>11</sub>NO<sub>2</sub>S",
        "Molecular Mass": "185.24",
        "Melting Point": "50-51 °C"
    }
}