{
    "cas_no": "301-10-0",
    "key_name": "Stannous octoate",
    "cn_name": "辛酸亚锡;2-乙基己酸亚锡;",
    "alternate_name": "Hexanoic acid, 2-ethyl-, tin(2+) salt (2:1);Hexanoic acid, 2-ethyl-, tin(2+) salt;Stannous 2-ethylhexanoate;Stannous 2-ethylhexoate;Tin(II) 2-ethylhexanoate;Tin(2+) 2-ethylhexanoate;Nuocure 28;Stannous octoate;Tin octoate;Tin dioctoate;Tin bis(2-ethylcaproate);Stannous 2-ethylcaproate;T 10 (catalyst);T 10;Tin bis(2-ethylhexanoate);T 9;Cata-Chek 860;Fascat 2003;D 19;Stanoct T 90;Dabco T 16;Stannous(II) ethylhexanoate;Stannous dioctanoate;Neostann U 28;Stannous octanoate;Stannous caprylate;Stanoct;Kosmos 29;K 29;Dabco T 9;Tegokat 129;PC CAT T 9;U 28;XY 70;HMT 9;Dabco T 10;Bis(2-ethylhexanoate) tin;NSC 75857;2-Ethylhexanoic acid tin(2+) salt;Desmorapid SO;Kosmos K 5N;KCS 405T;S 93-5037;T-Cat 110;Niax D 19;BTN-Cat 110;Dabco DC 21;XY 70 (catalyst);Neostann E 80;Addocat SO;Kosmos 10P;Borchi Kat 28;K 5N;Reaxis C 129;Metacure T 9;Stannous iosoctanoate;B 23612;T 19;PUB 350;T 9 (catalyst);Menhover S 19;Menhover Tin S 19;S 19;A 67510;Kosmos 5P;Kosmos T 9;Dabco T 900;SN 8 (salt);SN 8;T 818482;Tin(II) ethylhexanoate;Tin(II) octylate",
    "duplicated_cas_no": "75831-41-3;2417629-16-2",
    "SMILES": "C(CCCC)(C(O)=O)CC.[Sn]",
    "meta_data": {
        "InChI": "InChI=1S/C8H16O2.Sn/c1-3-5-6-7(4-2)8(9)10;/h7H,3-6H2,1-2H3,(H,9,10);",
        "InChIKey": null,
        "Canonical SMILES": "[Sn].O=C(O)C(CC)CCCC",
        "Molecular Formula": "C<sub>8</sub>H<sub>16</sub>O<sub>2</sub>.<sup>1</sup>/<sub>2</sub>Sn",
        "Molecular Mass": "",
        "Melting Point": "34 °C",
        "Density": "1.28 g/cm³"
    }
}