{
    "cas_no": "14948-96-0",
    "key_name": "<em>p</em>-Nitrophenyl-<em>N</em>-acetyl-β-<span class=\"text-smallcaps\">D</span>-galactosaminide",
    "cn_name": "4-硝基苯基-N-乙酰-beta-D-半乳胺;4-硝基苯基-N-乙酰基-beta-D-氨基半乳糖苷;",
    "alternate_name": "β-<span class=\"text-smallcaps\">D</span>-Galactopyranoside, 4-nitrophenyl 2-(acetylamino)-2-deoxy-;Galactopyranoside, <em>p</em>-nitrophenyl 2-acetamido-2-deoxy-, β-<span class=\"text-smallcaps\">D</span>-;Galactopyranoside, <em>p</em>-nitrophenyl 2-acetamido-2-deoxy-;4-Nitrophenyl 2-(acetylamino)-2-deoxy-β-<span class=\"text-smallcaps\">D</span>-galactopyranoside;<em>p</em>-Nitrophenyl-<em>N</em>-acetyl-β-<span class=\"text-smallcaps\">D</span>-galactosaminide;<em>p</em>-Nitrophenyl-β-<em>N</em>-acetylgalactosaminide;<em>p</em>-Nitrophenyl-β-<em>N</em>-acetyl-<span class=\"text-smallcaps\">D</span>-galactoseaminide;<em>p</em>-Nitrophenyl 2-acetamido-2-deoxy-β-<span class=\"text-smallcaps\">D</span>-galactopyranoside;<em>p</em>-Nitrophenyl β-<em>N</em>-acetyl-<span class=\"text-smallcaps\">D</span>-galactosaminide;<em>p</em>-Nitrophenyl β-<span class=\"text-smallcaps\">D</span>-<em>N</em>-acetylgalactosaminide",
    "duplicated_cas_no": "41650-34-4;202406-53-9",
    "SMILES": "O([C@H]1[C@H](NC(C)=O)[C@@H](O)[C@@H](O)[C@@H](CO)O1)C2=CC=C(N(=O)=O)C=C2",
    "meta_data": {
        "InChI": "InChI=1S/C14H18N2O8/c1-7(18)15-11-13(20)12(19)10(6-17)24-14(11)23-9-4-2-8(3-5-9)16(21)22/h2-5,10-14,17,19-20H,6H2,1H3,(H,15,18)/t10-,11-,12+,13-,14-/m1/s1",
        "InChIKey": null,
        "Canonical SMILES": "O=C(NC1C(OC2=CC=C(C=C2)N(=O)=O)OC(CO)C(O)C1O)C",
        "Molecular Formula": "C<sub>14</sub>H<sub>18</sub>N<sub>2</sub>O<sub>8</sub>",
        "Molecular Mass": "342.30",
        "Melting Point": "197 °C"
    }
}