{
    "cas_no": "24696-26-2",
    "key_name": "C16-Ceramide",
    "cn_name": null,
    "alternate_name": "Hexadecanamide, <em>N</em>-[(1<em>S</em>,2<em>R</em>,3<em>E</em>)-2-hydroxy-1-(hydroxymethyl)-3-heptadecen-1-yl]-;Hexadecanamide, <em>N</em>-[2-hydroxy-1-(hydroxymethyl)-3-heptadecenyl]-, [<em>R</em>-[<em>R</em>*,<em>S</em>*-(<em>E</em>)]]-;Hexadecanamide, <em>N</em>-[(1<em>S</em>,2<em>R</em>,3<em>E</em>)-2-hydroxy-1-(hydroxymethyl)-3-heptadecenyl]-;<em>N</em>-[(1<em>S</em>,2<em>R</em>,3<em>E</em>)-2-Hydroxy-1-(hydroxymethyl)-3-heptadecen-1-yl]hexadecanamide;<em>N</em>-Palmitoylsphingosine;<em>N</em>-Palmitoyl 4-sphingenine;<span class=\"text-smallcaps\">D</span>-<em>erythro</em>-C<sub>16</sub>-Ceramide;<span class=\"text-smallcaps\">D</span>-<em>erythro</em>-Δ<sup>4</sup>-Ceramide;<em>N</em>-Palmitoyl-<span class=\"text-smallcaps\">D</span>-sphingosine;(2<em>S</em>,3<em>R</em>,4<em>E</em>)-2-<em>N</em>-Palmitoyloctadecasphinga-4-ene;<em>N</em>-Hexadecanoylsphingosine;<span class=\"text-smallcaps\">D</span>-<em>erythro</em>-<em>N</em>-Palmitoylsphingosine;<em>C</em><sub>16</sub>-Ceramide;<span class=\"text-smallcaps\">D</span>-<em>erythro</em>-<em>N</em>-Hexadecanoylsphingenine;<em>N</em>-Palmitoyl-<span class=\"text-smallcaps\">D</span>-<em>erythro</em>-sphingosine;C16-Ceramide;<em>N</em>-Hexadecanoyl-<span class=\"text-smallcaps\">D</span>-<em>erythro</em>-ceramide;C16:0-Ceramide;<em>N</em>-Palmitoyl ceramide;Ceramide 16;Ceramide (d18:1,C16:0);Ceramide d18:1/16:0;Cer(d18:1/16:0)",
    "duplicated_cas_no": "",
    "SMILES": "[C@@H](NC(CCCCCCCCCCCCCCC)=O)([C@@H](/C=C/CCCCCCCCCCCCC)O)CO",
    "meta_data": {
        "InChI": "InChI=1S/C34H67NO3/c1-3-5-7-9-11-13-15-17-19-21-23-25-27-29-33(37)32(31-36)35-34(38)30-28-26-24-22-20-18-16-14-12-10-8-6-4-2/h27,29,32-33,36-37H,3-26,28,30-31H2,1-2H3,(H,35,38)/b29-27+/t32-,33+/m0/s1",
        "InChIKey": null,
        "Canonical SMILES": "O=C(NC(CO)C(O)C=CCCCCCCCCCCCCC)CCCCCCCCCCCCCCC",
        "Molecular Formula": "C<sub>34</sub>H<sub>67</sub>NO<sub>3</sub>",
        "Molecular Mass": "537.90",
        "Melting Point": "96.5-97.4 °C"
    }
}