{
    "cas_no": "58142-99-7",
    "key_name": "5-Iodoisoquinoline",
    "cn_name": null,
    "alternate_name": "Isoquinoline, 5-iodo-;5-Iodoisoquinoline",
    "duplicated_cas_no": "",
    "SMILES": "IC=1C2=C(C=CC1)C=NC=C2",
    "meta_data": {
        "InChI": "InChI=1S/C9H6IN/c10-9-3-1-2-7-6-11-5-4-8(7)9/h1-6H",
        "InChIKey": null,
        "Canonical SMILES": "IC1=CC=CC=2C=NC=CC12",
        "Molecular Formula": "C<sub>9</sub>H<sub>6</sub>IN",
        "Molecular Mass": "255.06",
        "Melting Point": "99-100 °C"
    }
}