{
    "cas_no": "117-61-3",
    "key_name": "2,2′-Benzidinedisulfonic acid",
    "cn_name": "联苯胺双磺酸;BDSA;",
    "alternate_name": "[1,1′-Biphenyl]-2,2′-disulfonic acid, 4,4′-diamino-;2,2′-Biphenyldisulfonic acid, 4,4′-diamino-;4,4′-Diamino[1,1′-biphenyl]-2,2′-disulfonic acid;2,2′-Disulfobenzidine;2,2′-Benzidinedisulfonic acid;6,6′-Bimetanilic acid;4,4′-Diaminobiphenyl-2,2′-disulfonic acid;4,4′-Diaminodiphenyl-2,2′-disulfonic acid;2,2′-Disulfo-4,4′-diaminobiphenyl;NSC 3763;4,4′-Diaminobiphenyl-2,2′-bis(sulfonic acid);4,4′-Benzidine-2,2′-disulfonic acid;4,4′-Diamino-[1,1′-biphenyl]-2,2′-disulfonic acid",
    "duplicated_cas_no": "1351935-87-9",
    "SMILES": "S(=O)(=O)(O)C1=C(C=CC(N)=C1)C2=C(S(=O)(=O)O)C=C(N)C=C2",
    "meta_data": {
        "InChI": "InChI=1S/C12H12N2O6S2/c13-7-1-3-9(11(5-7)21(15,16)17)10-4-2-8(14)6-12(10)22(18,19)20/h1-6H,13-14H2,(H,15,16,17)(H,18,19,20)",
        "InChIKey": null,
        "Canonical SMILES": "O=S(=O)(O)C=1C=C(N)C=CC1C2=CC=C(N)C=C2S(=O)(=O)O",
        "Molecular Formula": "C<sub>12</sub>H<sub>12</sub>N<sub>2</sub>O<sub>6</sub>S<sub>2</sub>",
        "Molecular Mass": "344.36",
        "Melting Point": "168 °C"
    }
}