{
    "cas_no": "696-07-1",
    "key_name": "5-Iodouracil",
    "cn_name": null,
    "alternate_name": "2,4(1<em>H</em>,3<em>H</em>)-Pyrimidinedione, 5-iodo-;Uracil, 5-iodo-;5-Iodo-2,4(1<em>H</em>,3<em>H</em>)-pyrimidinedione;5-Iodouracil;5-Iodo-2,4-dihydroxypyrimidine;NSC 57848;5-Iodo-2,4-pyrimidinedione;5-Iodopyrimidine-2,4-diol;5-Iodopyrimidine-2,4(1<em>H</em>,3<em>H</em>)-dione",
    "duplicated_cas_no": "5909-21-7",
    "SMILES": "O=C1C(I)=CNC(=O)N1",
    "meta_data": {
        "InChI": "InChI=1S/C4H3IN2O2/c5-2-1-6-4(9)7-3(2)8/h1H,(H2,6,7,8,9)",
        "InChIKey": null,
        "Canonical SMILES": "O=C1NC=C(I)C(=O)N1",
        "Molecular Formula": "C<sub>4</sub>H<sub>3</sub>IN<sub>2</sub>O<sub>2</sub>",
        "Molecular Mass": "237.98",
        "Melting Point": "275 °C (decomp)"
    }
}