{
    "cas_no": "1122-97-0",
    "key_name": "4-(Methylthio)benzenethiol",
    "cn_name": "4-甲硫基苯硫酚;对甲硫基苯硫酚;",
    "alternate_name": "Benzenethiol, 4-(methylthio)-;Benzenethiol, <em>p</em>-(methylthio)-;4-(Methylthio)benzenethiol;4-(Methylthio)phenyl mercaptan;<em>p</em>-(Methylthio)benzenethiol;4-(Methylsulfanyl)thiophenol;4-(Methylsulfanyl)benzenethiol;4-Methylsulfanylbenzenthiol",
    "duplicated_cas_no": "",
    "SMILES": "S(C)C1=CC=C(S)C=C1",
    "meta_data": {
        "InChI": "InChI=1S/C7H8S2/c1-9-7-4-2-6(8)3-5-7/h2-5,8H,1H3",
        "InChIKey": null,
        "Canonical SMILES": "SC1=CC=C(SC)C=C1",
        "Molecular Formula": "C<sub>7</sub>H<sub>8</sub>S<sub>2</sub>",
        "Molecular Mass": "156.27",
        "Boiling Point": "93-95 °C @ Press: 1.5 Torr",
        "Melting Point": "40-43 °C"
    }
}