{
    "cas_no": "6141-57-7",
    "key_name": "Methyl 3-methyl-2-furancarboxylate",
    "cn_name": "3-甲基-2-糠酸甲酯;",
    "alternate_name": "2-Furancarboxylic acid, 3-methyl-, methyl ester;2-Furoic acid, 3-methyl-, methyl ester;Methyl 3-methyl-2-furancarboxylate;Methyl 3-methyl-2-furoate;Methyl 3-methylfuroate;NSC 508754;3-Methylfuran-2-carboxylic acid methyl ester",
    "duplicated_cas_no": "",
    "SMILES": "C(OC)(=O)C1=C(C)C=CO1",
    "meta_data": {
        "InChI": "InChI=1S/C7H8O3/c1-5-3-4-10-6(5)7(8)9-2/h3-4H,1-2H3",
        "InChIKey": null,
        "Canonical SMILES": "O=C(OC)C=1OC=CC1C",
        "Molecular Formula": "C<sub>7</sub>H<sub>8</sub>O<sub>3</sub>",
        "Molecular Mass": "140.14",
        "Boiling Point": "72-76 °C @ Press: 8 Torr",
        "Melting Point": "36.5-37 °C"
    }
}