{
    "cas_no": "15238-00-3",
    "key_name": "Cobalt iodide (CoI<sub>2</sub>)",
    "cn_name": null,
    "alternate_name": "Cobalt iodide (CoI<sub>2</sub>);Cobalt diiodide;Cobaltous iodide;Cobalt(II) iodide;Cobalt iodide",
    "duplicated_cas_no": "",
    "SMILES": "[Co](I)I",
    "meta_data": {
        "InChI": "InChI=1S/Co.2HI/h;2*1H/q+2;;/p-2",
        "InChIKey": null,
        "Canonical SMILES": "I[Co]I",
        "Molecular Formula": "CoI<sub>2</sub>",
        "Molecular Mass": "",
        "Melting Point": "495 °C"
    }
}