{
    "cas_no": "15029-32-0",
    "key_name": "4-(Cyanoacetyl)morpholine",
    "cn_name": "N-氰乙酰基吗啉;N-氰乙酰基吗啡啉;4-氰乙酰基吗啉;N-氰乙酰基吗啉;N-氰乙酰基吗啉,98%;N-氰基乙酰苯吗啉;",
    "alternate_name": "4-Morpholinepropanenitrile, β-oxo-;Morpholine, 4-(cyanoacetyl)-;4-Morpholinepropionitrile, β-oxo-;β-Oxo-4-morpholinepropanenitrile;4-(Cyanoacetyl)morpholine;<em>N</em>-(Cyanoacetyl)morpholine;(Morpholinocarbonyl)acetonitrile;Cyanoacetic acid morpholide;NSC 22791;3-(4-Morpholinyl)-3-oxopropanenitrile;(Morpholin-4-ylcarbonyl)acetonitrile;3-Morpholin-4-yl-3-oxopropionitrile;3-Morpholino-3-oxopropanenitrile;2-Isocyano-1-morpholinoethan-1-one",
    "duplicated_cas_no": "",
    "SMILES": "C(CC#N)(=O)N1CCOCC1",
    "meta_data": {
        "InChI": "InChI=1S/C7H10N2O2/c8-2-1-7(10)9-3-5-11-6-4-9/h1,3-6H2",
        "InChIKey": null,
        "Canonical SMILES": "N#CCC(=O)N1CCOCC1",
        "Molecular Formula": "C<sub>7</sub>H<sub>10</sub>N<sub>2</sub>O<sub>2</sub>",
        "Molecular Mass": "154.17",
        "Melting Point": "87 °C"
    }
}