{
    "cas_no": "13608-87-2",
    "key_name": "1-(2,3,4-Trichlorophenyl)ethanone",
    "cn_name": "2\",3\",4\"-三氯苯乙酮;2\",3\",4\"-三氯苯乙酮;",
    "alternate_name": "Ethanone, 1-(2,3,4-trichlorophenyl)-;Acetophenone, 2′,3′,4′-trichloro-;1-(2,3,4-Trichlorophenyl)ethanone;2′,3′,4′-Trichloroacetophenone;2,3,4-Trichloroacetophenone;1-(2,3,4-Trichlorophenyl)ethan-1-one",
    "duplicated_cas_no": "",
    "SMILES": "C(C)(=O)C1=C(Cl)C(Cl)=C(Cl)C=C1",
    "meta_data": {
        "InChI": "InChI=1S/C8H5Cl3O/c1-4(12)5-2-3-6(9)8(11)7(5)10/h2-3H,1H3",
        "InChIKey": null,
        "Canonical SMILES": "O=C(C1=CC=C(Cl)C(Cl)=C1Cl)C",
        "Molecular Formula": "C<sub>8</sub>H<sub>5</sub>Cl<sub>3</sub>O",
        "Molecular Mass": "223.48",
        "Melting Point": "65.5-66 °C"
    }
}