{
    "cas_no": "2516-47-4",
    "key_name": "Cyclopropanemethanamine",
    "cn_name": "环丙基甲基胺;环丙甲胺;环丙基甲胺;",
    "alternate_name": "Cyclopropanemethanamine;Cyclopropanemethylamine;(Cyclopropylmethyl)amine;Aminomethylcyclopropane;Cyclopropylmethanamine;C-Cyclopropylmethylamine;<em>N</em>-(Cyclopropylmethyl)amine;1-Cyclopropylmethanamine",
    "duplicated_cas_no": "",
    "SMILES": "C(N)C1CC1",
    "meta_data": {
        "InChI": "InChI=1S/C4H9N/c5-3-4-1-2-4/h4H,1-3,5H2",
        "InChIKey": null,
        "Canonical SMILES": "NCC1CC1",
        "Molecular Formula": "C<sub>4</sub>H<sub>9</sub>N",
        "Molecular Mass": "71.12",
        "Boiling Point": "83.5 °C"
    }
}