{
    "cas_no": "62218-08-0",
    "key_name": "ε-Viniferin",
    "cn_name": null,
    "alternate_name": "1,3-Benzenediol, 5-[(2<em>R</em>,3<em>R</em>)-2,3-dihydro-6-hydroxy-2-(4-hydroxyphenyl)-4-[(1<em>E</em>)-2-(4-hydroxyphenyl)ethenyl]-3-benzofuranyl]-;1,3-Benzenediol, 5-[2,3-dihydro-6-hydroxy-2-(4-hydroxyphenyl)-4-[2-(4-hydroxyphenyl)ethenyl]-3-benzofuranyl]-, [2<em>R</em>-[2α,3β,4(<em>E</em>)]]-;5-[(2<em>R</em>,3<em>R</em>)-2,3-Dihydro-6-hydroxy-2-(4-hydroxyphenyl)-4-[(1<em>E</em>)-2-(4-hydroxyphenyl)ethenyl]-3-benzofuranyl]-1,3-benzenediol;ε-Viniferin;(-)-ε-Viniferin;<em>trans</em>-ε-Viniferin;ξ-Viniferin;(<em>E</em>)-ε-Viniferin;ϵ-Viniferin",
    "duplicated_cas_no": "",
    "SMILES": "C(=C/C1=CC=C(O)C=C1)\\C2=C3[C@H]([C@@H](OC3=CC(O)=C2)C4=CC=C(O)C=C4)C5=CC(O)=CC(O)=C5",
    "meta_data": {
        "InChI": "InChI=1S/C28H22O6/c29-20-7-2-16(3-8-20)1-4-18-11-24(33)15-25-26(18)27(19-12-22(31)14-23(32)13-19)28(34-25)17-5-9-21(30)10-6-17/h1-15,27-33H/b4-1+/t27-,28+/m1/s1",
        "InChIKey": null,
        "Canonical SMILES": "OC1=CC=C(C=C1)C=CC=2C=C(O)C=C3OC(C4=CC=C(O)C=C4)C(C=5C=C(O)C=C(O)C5)C32",
        "Molecular Formula": "C<sub>28</sub>H<sub>22</sub>O<sub>6</sub>",
        "Molecular Mass": "454.47",
        "Melting Point": "149-151 °C"
    }
}