{
    "cas_no": "23243-68-7",
    "key_name": "2,2′-[1,2-Ethanediylbis(oxy)]bis[acetic acid]",
    "cn_name": null,
    "alternate_name": "Acetic acid, 2,2′-[1,2-ethanediylbis(oxy)]bis-;Acetic acid, (ethylenedioxy)di-;2,2′-[1,2-Ethanediylbis(oxy)]bis[acetic acid];1,2-Bis(carboxymethoxy)ethane;(Ethylenedioxy)diacetic acid;2,5-Dioxa-1,6-hexanedicarboxylic acid;3,6-Dioxaoctanedioic acid;Triglycolic acid;Ethylene bis(glycolic acid);3,6-Dioxaoctane-1,8-dioic acid;[2-(Carboxymethoxy)ethoxy]acetic acid;NSC 8854;3,6-Dioxasuberic acid;PEG2-(CH2CO2H)2;2-[2-(Carboxymethoxy)ethoxy]acetic acid",
    "duplicated_cas_no": "",
    "SMILES": "O(CC(O)=O)CCOCC(O)=O",
    "meta_data": {
        "InChI": "InChI=1S/C6H10O6/c7-5(8)3-11-1-2-12-4-6(9)10/h1-4H2,(H,7,8)(H,9,10)",
        "InChIKey": null,
        "Canonical SMILES": "O=C(O)COCCOCC(=O)O",
        "Molecular Formula": "C<sub>6</sub>H<sub>10</sub>O<sub>6</sub>",
        "Molecular Mass": "178.14",
        "Melting Point": "68-71 °C"
    }
}