{
    "cas_no": "6315-90-8",
    "key_name": "3,4-Methylenedioxy-6-nitrocinnamic acid",
    "cn_name": null,
    "alternate_name": "2-Propenoic acid, 3-(6-nitro-1,3-benzodioxol-5-yl)-;Cinnamic acid, 4,5-(methylenedioxy)-2-nitro-;3-(6-Nitro-1,3-benzodioxol-5-yl)-2-propenoic acid;3-(4,5-Methylenedioxy-2-nitrophenyl)acrylic acid;3,4-Methylenedioxy-6-nitrocinnamic acid;NSC 21034",
    "duplicated_cas_no": "",
    "SMILES": "C(=CC(O)=O)C1=C(N(=O)=O)C=C2C(=C1)OCO2",
    "meta_data": {
        "InChI": "InChI=1S/C10H7NO6/c12-10(13)2-1-6-3-8-9(17-5-16-8)4-7(6)11(14)15/h1-4H,5H2,(H,12,13)",
        "InChIKey": null,
        "Canonical SMILES": "O=C(O)C=CC1=CC=2OCOC2C=C1N(=O)=O",
        "Molecular Formula": "C<sub>10</sub>H<sub>7</sub>NO<sub>6</sub>",
        "Molecular Mass": "237.17",
        "Melting Point": "273-275 °C (decomp)"
    }
}