{
    "cas_no": "109-77-3",
    "key_name": "Malononitrile",
    "cn_name": "丙二腈;二氰甲烷;",
    "alternate_name": "Propanedinitrile;Malononitrile;Methane, dicyano-;Dicyanomethane;Malonic acid dinitrile;Malonodinitrile;Methylene cyanide;Cyanoacetonitrile;Methylenedinitrile;NSC 3769;Malondinitrile",
    "duplicated_cas_no": "144804-99-9",
    "SMILES": "C(C#N)C#N",
    "meta_data": {
        "InChI": "InChI=1S/C3H2N2/c4-2-1-3-5/h1H2",
        "InChIKey": null,
        "Canonical SMILES": "N#CCC#N",
        "Molecular Formula": "C<sub>3</sub>H<sub>2</sub>N<sub>2</sub>",
        "Molecular Mass": "66.06",
        "Boiling Point": "218-219 °C @ Press: 760 Torr",
        "Melting Point": "32 °C",
        "Density": "1.1910 g/cm³ @ Temp: 20 °C"
    }
}