{
    "cas_no": "873-66-5",
    "key_name": "<em>trans</em>-β-Methylstyrene",
    "cn_name": null,
    "alternate_name": "Benzene, (1<em>E</em>)-1-propen-1-yl-;Benzene, propenyl-, (<em>E</em>)-;Benzene, 1-propenyl-, (<em>E</em>)-;Benzene, (1<em>E</em>)-1-propenyl-;(1<em>E</em>)-1-Propen-1-ylbenzene;<em>trans</em>-1-Propenylbenzene;<em>trans</em>-β-Methylstyrene;<em>trans</em>-1-Phenylpropene;<em>trans</em>-Propenylbenzene;<em>trans</em>-1-Phenyl-1-propene;(<em>E</em>)-1-Propenylbenzene;(<em>E</em>)-1-Phenyl-1-propene;<em>trans</em>-1-Methyl-2-phenylethene;(<em>E</em>)-1-Phenylpropene;(<em>E</em>)-β-Methylstyrene;(<em>E</em>)-Propenylbenzene;NSC 73958;(1<em>E</em>)-1-Propenylbenzene;<em>trans</em>-3-Phenyl-2-propene;(E)-1-Phenylpropene;(E)-1-Phenyl-1-propene;(<em>E</em>)-(1-Propen-1-yl)benzene;(E)-Prop-1-en-1ylbenzene",
    "duplicated_cas_no": "",
    "SMILES": "C(=C/C)\\C1=CC=CC=C1",
    "meta_data": {
        "InChI": "InChI=1S/C9H10/c1-2-6-9-7-4-3-5-8-9/h2-8H,1H3/b6-2+",
        "InChIKey": null,
        "Canonical SMILES": "C=1C=CC(=CC1)C=CC",
        "Molecular Formula": "C<sub>9</sub>H<sub>10</sub>",
        "Molecular Mass": "118.18",
        "Boiling Point": "175 °C",
        "Melting Point": "-29.3 °C",
        "Density": "0.911 g/cm³"
    }
}