{
    "cas_no": "120202-66-6",
    "key_name": "Clopidogrel bisulfate",
    "cn_name": "硫酸氯吡格雷;氯匹格雷硫酸盐;(2-氯苯基)-6,7-二氢噻吩并[3,2-C]吡啶-5-(4H)-乙酸甲酯硫酸盐;",
    "alternate_name": "Thieno[3,2-<em>c</em>]pyridine-5(4<em>H</em>)-acetic acid, α-(2-chlorophenyl)-6,7-dihydro-, methyl ester, (α<em>S</em>)-, sulfate (1:1);Thieno[3,2-<em>c</em>]pyridine-5(4<em>H</em>)-acetic acid, α-(2-chlorophenyl)-6,7-dihydro-, methyl ester, (<em>S</em>)-, sulfate (1:1);SR 25990C;Clopidogrel hydrogen sulfate;Clopidogrel bisulfate;Plavix;Clopidogrel hemisulfate;Iscover;(<em>S</em>)-(+)-Methyl (2-chlorophenyl)(6,7-dihydro-4<em>H</em>-thieno[3,2-<em>c</em>]pyrid-5-yl)acetate bisulfate;(<em>S</em>)-(+)-Methyl 2-(2-chlorophenyl)-2-(6,7-dihydro-4<em>H</em>-thieno[3,2-<em>c</em>]pyridin-5-yl)acetate hydrogen sulfate;Methyl (<em>S</em>)-(4,5,6,7-tetrahydrothieno[3,2-<em>c</em>]pyridin-5-yl)(2-chlorophenyl)ethanoate hydrogen sulfate;(<em>S</em>)-(+)-Clopidogrel hydrogen sulfate;Myogrel;Stroka;Clopidogrel sulfate;Plavitor;(+)-(<em>S</em>)-5-[(2-Chlorophenyl)(methoxycarbonyl)methyl]-4,5,6,7-tetrahydrothieno[3,2-<em>c</em>]-pyridin-5-ium hydrogen sulfate];Clopidix;Areplex;Trombex;Zyllt",
    "duplicated_cas_no": "",
    "SMILES": "[C@H](C(OC)=O)(N1CC2=C(CC1)SC=C2)C3=C(Cl)C=CC=C3.S(=O)(=O)(O)O",
    "meta_data": {
        "InChI": "InChI=1S/C16H16ClNO2S.H2O4S/c1-20-16(19)15(12-4-2-3-5-13(12)17)18-8-6-14-11(10-18)7-9-21-14;1-5(2,3)4/h2-5,7,9,15H,6,8,10H2,1H3;(H2,1,2,3,4)/t15-;/m0./s1",
        "InChIKey": null,
        "Canonical SMILES": "O=C(OC)C(C=1C=CC=CC1Cl)N2CC=3C=CSC3CC2.O=S(=O)(O)O",
        "Molecular Formula": "C<sub>16</sub>H<sub>16</sub>ClNO<sub>2</sub>S.H<sub>2</sub>O<sub>4</sub>S",
        "Molecular Mass": "",
        "Melting Point": "184 °C"
    }
}