{
    "cas_no": "5081-51-6",
    "key_name": "(+)-Vasicinol",
    "cn_name": null,
    "alternate_name": "Pyrrolo[2,1-<em>b</em>]quinazoline-3,7-diol, 1,2,3,9-tetrahydro-, (3<em>S</em>)-;Vasicinol;Pyrrolo[2,1-<em>b</em>]quinazoline-3,7-diol, 1,2,3,9-tetrahydro-, (<em>S</em>)-;(3<em>S</em>)-1,2,3,9-Tetrahydropyrrolo[2,1-<em>b</em>]quinazoline-3,7-diol;(+)-6-Hydroxypeganine;(+)-Vasicinol;6-Hydroxyvasicine;6-Hydroxypeganine;(3S)-1<em>H</em>,2<em>H</em>,3<em>H</em>,9<em>H</em>-Pyrrolo[2,1-<em>b</em>]quinazoline-3,7-diol",
    "duplicated_cas_no": "3295-57-6;46414-14-6",
    "SMILES": "O[C@@H]1C=2N(CC=3C(N2)=CC=C(O)C3)CC1",
    "meta_data": {
        "InChI": "InChI=1S/C11H12N2O2/c14-8-1-2-9-7(5-8)6-13-4-3-10(15)11(13)12-9/h1-2,5,10,14-15H,3-4,6H2/t10-/m0/s1",
        "InChIKey": null,
        "Canonical SMILES": "OC=1C=CC=2N=C3N(CC2C1)CCC3O",
        "Molecular Formula": "C<sub>11</sub>H<sub>12</sub>N<sub>2</sub>O<sub>2</sub>",
        "Molecular Mass": "204.23",
        "Melting Point": "260 °C"
    }
}