{
    "cas_no": "10465-78-8",
    "key_name": "<em>N</em>,<em>N</em>,<em>N</em>′,<em>N</em>′-Tetramethylazodicarboxamide",
    "cn_name": "偶氮二甲酰胺;1,1\"-偶氮二(N,N-二甲基甲酰胺);",
    "alternate_name": "1,2-Diazenedicarboxamide, <em>N</em><sup>1</sup>,<em>N</em><sup>1</sup>,<em>N</em><sup>2</sup>,<em>N</em><sup>2</sup>-tetramethyl-;Formamide, 1,1′-azobis[<em>N</em>,<em>N</em>-dimethyl-;Diazenedicarboxamide, tetramethyl-;<em>N</em><sup>1</sup>,<em>N</em><sup>1</sup>,<em>N</em><sup>2</sup>,<em>N</em><sup>2</sup>-Tetramethyl-1,2-diazenedicarboxamide;1,1′-Azobis[<em>N</em>,<em>N</em>-dimethylformamide];Diamide;Diazenedicarboxylic acid bis(<em>N</em>,<em>N</em>-dimethylamide);<em>N</em>,<em>N</em>,<em>N</em>′,<em>N</em>′-Tetramethylazodicarboxamide;<em>N</em>,<em>N</em>,<em>N</em>′,<em>N</em>′-Tetramethylazoformamide;<em>N</em>,<em>N</em>,<em>N</em>′,<em>N</em>′-Tetramethylazobisformamide;TMAD;Azodicarboxylic acid bis-dimethylamide;Tetramethyldiazenedicarboxamide;A 19315;NSC 143013;3-(<em>N</em>,<em>N</em>-Dimethylcarbamoylimido)-1,1-dimethylurea;MeSH ID: D003958",
    "duplicated_cas_no": "",
    "SMILES": "C(N(C)C)(N=NC(N(C)C)=O)=O",
    "meta_data": {
        "InChI": "InChI=1S/C6H12N4O2/c1-9(2)5(11)7-8-6(12)10(3)4/h1-4H3",
        "InChIKey": null,
        "Canonical SMILES": "O=C(N=NC(=O)N(C)C)N(C)C",
        "Molecular Formula": "C<sub>6</sub>H<sub>12</sub>N<sub>4</sub>O<sub>2</sub>",
        "Molecular Mass": "172.19",
        "Melting Point": "111-112 °C"
    }
}