{
    "cas_no": "2089-36-3",
    "key_name": "1,3-Benzodioxole-5-carboxaldehyde oxime",
    "cn_name": "胡椒醛肟;",
    "alternate_name": "1,3-Benzodioxole-5-carboxaldehyde, oxime;Piperonal, oxime;1,3-Benzodioxole-5-carboxaldehyde oxime;Piperonaldoxime;3,4-Methylenedioxybenzaldehyde oxime;3,4-Methylenedioxybenzaldoxime;NSC 27012",
    "duplicated_cas_no": "174633-85-3",
    "SMILES": "C(=NO)C=1C=C2C(=CC1)OCO2",
    "meta_data": {
        "InChI": "InChI=1S/C8H7NO3/c10-9-4-6-1-2-7-8(3-6)12-5-11-7/h1-4,10H,5H2",
        "InChIKey": null,
        "Canonical SMILES": "ON=CC1=CC=C2OCOC2=C1",
        "Molecular Formula": "C<sub>8</sub>H<sub>7</sub>NO<sub>3</sub>",
        "Molecular Mass": "165.15",
        "Melting Point": "86 °C"
    }
}