{
    "cas_no": "6297-14-9",
    "key_name": "Phenol, 4-amino-2-[(diethylamino)methyl]-, hydrochloride (1:2)",
    "cn_name": "4-氨基-α-二乙氨基邻甲酚二氢氯;",
    "alternate_name": "Phenol, 4-amino-2-[(diethylamino)methyl]-, hydrochloride (1:2);<em>o</em>-Cresol, 4-amino-α-(diethylamino)-, dihydrochloride;Phenol, 4-amino-2-[(diethylamino)methyl]-, dihydrochloride;4-Amino-α-diethylamino-<em>o</em>-cresol dihydrochloride;4-Amino-2-[(diethylamino)methyl]phenol dihydrochloride",
    "duplicated_cas_no": "",
    "SMILES": "C(N(CC)CC)C1=C(O)C=CC(N)=C1.Cl",
    "meta_data": {
        "InChI": "InChI=1S/C11H18N2O.2ClH/c1-3-13(4-2)8-9-7-10(12)5-6-11(9)14;;/h5-7,14H,3-4,8,12H2,1-2H3;2*1H",
        "InChIKey": null,
        "Canonical SMILES": "Cl.OC1=CC=C(N)C=C1CN(CC)CC",
        "Molecular Formula": "C<sub>11</sub>H<sub>18</sub>N<sub>2</sub>O.2ClH",
        "Molecular Mass": "",
        "Melting Point": "218-220 °C (decomp)"
    }
}