{
    "cas_no": "18807-73-3",
    "key_name": "Carbamic acid, <em>N</em>-(4-aminobutyl)-, phenylmethyl ester, hydrochloride (1:1)",
    "cn_name": "N-苄氧羰基-1,4-二氨基丁烷盐酸盐;",
    "alternate_name": "Carbamic acid, <em>N</em>-(4-aminobutyl)-, phenylmethyl ester, hydrochloride (1:1);Carbamic acid, (4-aminobutyl)-, benzyl ester, monohydrochloride;Carbamic acid, (4-aminobutyl)-, phenylmethyl ester, monohydrochloride;<em>N</em>-Benzyloxycarbonyl-1,4-butanediamine hydrochloride",
    "duplicated_cas_no": "",
    "SMILES": "C(OC(NCCCCN)=O)C1=CC=CC=C1.Cl",
    "meta_data": {
        "InChI": "InChI=1S/C12H18N2O2.ClH/c13-8-4-5-9-14-12(15)16-10-11-6-2-1-3-7-11;/h1-3,6-7H,4-5,8-10,13H2,(H,14,15);1H",
        "InChIKey": null,
        "Canonical SMILES": "Cl.O=C(OCC=1C=CC=CC1)NCCCCN",
        "Molecular Formula": "C<sub>12</sub>H<sub>18</sub>N<sub>2</sub>O<sub>2</sub>.ClH",
        "Molecular Mass": "",
        "Melting Point": "191-193 °C"
    }
}