{
    "cas_no": "7783-08-6",
    "key_name": "Selenic acid",
    "cn_name": "硒酸;硒酸;",
    "alternate_name": "Selenic acid;Selenium hydroxide oxide (Se(OH)<sub>2</sub>O<sub>2</sub>);MeSH ID: D064586",
    "duplicated_cas_no": "63090-47-1;141676-86-0;1177580-12-9;2225846-52-4",
    "SMILES": "[Se](=O)(=O)(O)O",
    "meta_data": {
        "InChI": "InChI=1S/H2O4Se/c1-5(2,3)4/h(H2,1,2,3,4)",
        "InChIKey": null,
        "Canonical SMILES": "O=[Se](=O)(O)O",
        "Molecular Formula": "H<sub>2</sub>O<sub>4</sub>Se",
        "Molecular Mass": "144.97",
        "Boiling Point": "260 °C",
        "Melting Point": "58 °C"
    }
}