{
    "cas_no": "348-65-2",
    "key_name": "5-Chloro-2,4-difluorobenzenamine",
    "cn_name": null,
    "alternate_name": "Benzenamine, 5-chloro-2,4-difluoro-;Aniline, 5-chloro-2,4-difluoro-;5-Chloro-2,4-difluorobenzenamine;5-Chloro-2,4-difluoroaniline",
    "duplicated_cas_no": "",
    "SMILES": "ClC1=C(F)C=C(F)C(N)=C1",
    "meta_data": {
        "InChI": "InChI=1S/C6H4ClF2N/c7-3-1-6(10)5(9)2-4(3)8/h1-2H,10H2",
        "InChIKey": null,
        "Canonical SMILES": "FC=1C=C(F)C(N)=CC1Cl",
        "Molecular Formula": "C<sub>6</sub>H<sub>4</sub>ClF<sub>2</sub>N",
        "Molecular Mass": "163.55",
        "Melting Point": "50-51 °C"
    }
}