{
    "cas_no": "611-59-6",
    "key_name": "Paraxanthine",
    "cn_name": "1,7-二甲基黄嘌呤;",
    "alternate_name": "1<em>H</em>-Purine-2,6-dione, 3,7-dihydro-1,7-dimethyl-;Paraxanthine;3,7-Dihydro-1,7-dimethyl-1<em>H</em>-purine-2,6-dione;1,7-Dimethylxanthine;NSC 400018;1,7-Dimethyl-2,3,6,7-tetrahydro-1<em>H</em>-purine-2,6-dione",
    "duplicated_cas_no": "",
    "SMILES": "O=C1C2=C(NC(=O)N1C)N=CN2C",
    "meta_data": {
        "InChI": "InChI=1S/C7H8N4O2/c1-10-3-8-5-4(10)6(12)11(2)7(13)9-5/h3H,1-2H3,(H,9,13)",
        "InChIKey": null,
        "Canonical SMILES": "O=C1NC=2N=CN(C2C(=O)N1C)C",
        "Molecular Formula": "C<sub>7</sub>H<sub>8</sub>N<sub>4</sub>O<sub>2</sub>",
        "Molecular Mass": "180.16",
        "Melting Point": "297-299 °C"
    }
}