{
    "cas_no": "157652-32-9",
    "key_name": "1-(2,4-Dichloro-3-methylphenyl)ethanone",
    "cn_name": null,
    "alternate_name": "Ethanone, 1-(2,4-dichloro-3-methylphenyl)-;1-(2,4-Dichloro-3-methylphenyl)ethanone;2,4-Dichloro-3-methylacetophenone;1-(2,4-Dichloro-3-methylphenyl)ethan-1-one",
    "duplicated_cas_no": "",
    "SMILES": "C(C)(=O)C1=C(Cl)C(C)=C(Cl)C=C1",
    "meta_data": {
        "InChI": "InChI=1S/C9H8Cl2O/c1-5-8(10)4-3-7(6(2)12)9(5)11/h3-4H,1-2H3",
        "InChIKey": null,
        "Canonical SMILES": "O=C(C1=CC=C(Cl)C(=C1Cl)C)C",
        "Molecular Formula": "C<sub>9</sub>H<sub>8</sub>Cl<sub>2</sub>O",
        "Molecular Mass": "203.07",
        "Boiling Point": "147-148 °C @ Press: 10 Torr",
        "Melting Point": "38 °C"
    }
}