{
    "cas_no": "6882-68-4",
    "key_name": "(-)-Sophoridine",
    "cn_name": "槐定碱;",
    "alternate_name": "1<em>H</em>,5<em>H</em>,10<em>H</em>-Dipyrido[2,1-<em>f</em>:3′,2′,1′-<em>ij</em>][1,6]naphthyridin-10-one, dodecahydro-, (7a<em>R</em>,13a<em>R</em>,13b<em>R</em>,13c<em>S</em>)-;Sophoridine;Matridin-15-one, (5β)-;(7a<em>R</em>,13a<em>R</em>,13b<em>R</em>,13c<em>S</em>)-Dodecahydro-1<em>H</em>,5<em>H</em>,10<em>H</em>-dipyrido[2,1-<em>f</em>:3′,2′,1′-<em>ij</em>][1,6]naphthyridin-10-one;<em>l</em>-Sophoridine;Sophoridin;Dihydro-5-episophocarpine;5-Epidihydrosophocarpine;(-)-Sophoridine;1<em>H</em>,5<em>H</em>,10<em>H</em>-Dipyrido[2,1-<em>f</em>:3′,2′,1′-<em>ij</em>][1,6]naphthyridin-10-one, dodecahydro-, [7a<em>R</em>-(7aα,13aα,13bβ,13cβ)]-",
    "duplicated_cas_no": "26137-37-1;68398-60-7",
    "SMILES": "O=C1N2[C@@]([C@@]3([C@@]4([C@@](C2)(CCCN4CCC3)[H])[H])[H])(CCC1)[H]",
    "meta_data": {
        "InChI": "InChI=1S/C15H24N2O/c18-14-7-1-6-13-12-5-3-9-16-8-2-4-11(15(12)16)10-17(13)14/h11-13,15H,1-10H2/t11-,12-,13-,15+/m1/s1",
        "InChIKey": null,
        "Canonical SMILES": "O=C1N2CC3CCCN4CCCC(C2CCC1)C43",
        "Molecular Formula": "C<sub>15</sub>H<sub>24</sub>N<sub>2</sub>O",
        "Molecular Mass": "248.36",
        "Melting Point": "109-110 °C"
    }
}