{
    "cas_no": "1762-34-1",
    "key_name": "5,5′-Dimethyl-2,2′-bipyridine",
    "cn_name": "5,5\"-二甲基-2,2\"-联吡啶;",
    "alternate_name": "2,2′-Bipyridine, 5,5′-dimethyl-;6,6′-Bi-3-picoline;5,5′-Dimethyl-2,2′-bipyridine;5,5′-Dimethyl-2,2′-dipyridyl;5,5′-Dimethyl-2,2′-bipyridyl;Abametapir;Xeglyze;5,5-Dimethyl-2,2-dipyridyl",
    "duplicated_cas_no": "",
    "SMILES": "CC1=CC=C(N=C1)C2=CC=C(C)C=N2",
    "meta_data": {
        "InChI": "InChI=1S/C12H12N2/c1-9-3-5-11(13-7-9)12-6-4-10(2)8-14-12/h3-8H,1-2H3",
        "InChIKey": null,
        "Canonical SMILES": "N=1C=C(C=CC1C=2N=CC(=CC2)C)C",
        "Molecular Formula": "C<sub>12</sub>H<sub>12</sub>N<sub>2</sub>",
        "Molecular Mass": "184.24",
        "Melting Point": "114.5-115.0 °C"
    }
}