{
    "cas_no": "2252-63-3",
    "key_name": "1-(4-Fluorophenyl)piperazine",
    "cn_name": "1-(4-氟苯基)哌嗪;",
    "alternate_name": "Piperazine, 1-(4-fluorophenyl)-;Piperazine, 1-(<em>p</em>-fluorophenyl)-;1-(4-Fluorophenyl)piperazine;<em>N</em>-(<em>p</em>-Fluorophenyl)piperazine;1-(<em>p</em>-Fluorophenyl)piperazine;4-(4-Fluorophenyl)piperazine;<em>N</em>-(4-Fluorophenyl)piperazine;<em>p</em>-Fluorophenylpiperazine",
    "duplicated_cas_no": "",
    "SMILES": "FC1=CC=C(C=C1)N2CCNCC2",
    "meta_data": {
        "InChI": "InChI=1S/C10H13FN2/c11-9-1-3-10(4-2-9)13-7-5-12-6-8-13/h1-4,12H,5-8H2",
        "InChIKey": null,
        "Canonical SMILES": "FC1=CC=C(C=C1)N2CCNCC2",
        "Molecular Formula": "C<sub>10</sub>H<sub>13</sub>FN<sub>2</sub>",
        "Molecular Mass": "180.22",
        "Boiling Point": "118-123 °C",
        "Melting Point": "30-33 °C"
    }
}