{
    "cas_no": "61204-01-1",
    "key_name": "4-(<em>trans</em>-4-Pentylcyclohexyl)benzonitrile",
    "cn_name": "反式-4-(4-戊基环己基)苯腈;反式-4-(4-戊基环己基)苄腈;",
    "alternate_name": "Benzonitrile, 4-(<em>trans</em>-4-pentylcyclohexyl)-;Benzonitrile, 4-(4-pentylcyclohexyl)-, <em>trans</em>-;4-(<em>trans</em>-4-Pentylcyclohexyl)benzonitrile;Licristal S 1114;<em>trans</em>-4-Pentyl(4-cyanophenyl)cyclohexane;<em>trans</em>-4-Pentyl-1-(4-cyanophenyl)cyclohexane;S 1114;<em>trans</em>-4-Pentyl(4′-cyanophenyl)cyclohexane;4-(<em>trans</em>-4′-<em>n</em>-Pentylcyclohexyl)-1-cyanobenzene;<em>p</em>-<em>trans</em>-4-Pentylcyclohexylbenzonitrile;<em>trans</em>-4-Amyl-1-(4-cyanophenyl)cyclohexane;4-Cyano-1-[<em>trans</em>-4-pentylcyclohexyl]benzene;<em>trans</em>-4-Pentyl-1-(<em>p</em>-cyanophenyl)cyclohexane;PCH 5;5PCH;ZhKM 1098;1-<em>p</em>-Cyanophenyl-4-pentylcyclohexane;4-(4-Pentylcyclohexyl)benzonitrile;<em>p</em>-Pentyl-<em>p</em>′-cyanophenylcyclohexane;4-Pentyl-4′-cyanophenylcyclohexane;ZLI 1114;Merck ZLI 1114;<em>trans</em>-4-(4-Pentylcyclohexyl)benzonitrile;5-HB-C;CP-5-N;4-(<em>trans</em>-4-Amylcyclohexyl)benzonitrile",
    "duplicated_cas_no": "62788-05-0;82029-01-4",
    "SMILES": "C(CCCC)[C@H]1CC[C@@H](CC1)C2=CC=C(C#N)C=C2",
    "meta_data": {
        "InChI": "InChI=1/C18H25N/c1-2-3-4-5-15-6-10-17(11-7-15)18-12-8-16(14-19)9-13-18/h8-9,12-13,15,17H,2-7,10-11H2,1H3/t15-,17-",
        "InChIKey": null,
        "Canonical SMILES": "N#CC1=CC=C(C=C1)C2CCC(CCCCC)CC2",
        "Molecular Formula": "C<sub>18</sub>H<sub>25</sub>N",
        "Molecular Mass": "255.40",
        "Melting Point": "29.7 °C"
    }
}