{
    "cas_no": "107-86-8",
    "key_name": "3-Methyl-2-butenal",
    "cn_name": "3-甲基-2-丁烯醛;异戊烯醛;3,3-二甲基丙烯醛;3-甲基巴豆醛;",
    "alternate_name": "2-Butenal, 3-methyl-;Crotonaldehyde, 3-methyl-;Senecialdehyde;3-Methyl-2-butenal;β,β-Dimethylacrolein;2-Methyl-2-buten-4-al;Senecioaldehyde;3-Methyl-2-buten-1-al;3-Methylcrotonaldehyde;3,3-Dimethylacrolein;β-Methylcrotonaldehyde;Prenal;β,β-Dimethylacrylic aldehyde;NSC 149164;3-Methyl-2-butenaldehyde;3,3-Dimethylacrylaldehyde;Prenylaldehyde",
    "duplicated_cas_no": "1428758-13-7",
    "SMILES": "C(=C(C)C)C=O",
    "meta_data": {
        "InChI": "InChI=1S/C5H8O/c1-5(2)3-4-6/h3-4H,1-2H3",
        "InChIKey": null,
        "Canonical SMILES": "O=CC=C(C)C",
        "Molecular Formula": "C<sub>5</sub>H<sub>8</sub>O",
        "Molecular Mass": "84.12",
        "Boiling Point": "136 °C",
        "Melting Point": "-20 °C",
        "Density": "0.9 g/cm³"
    }
}