{
    "cas_no": "707-35-7",
    "key_name": "1,3,5-Trimethyladamantane",
    "cn_name": null,
    "alternate_name": "Tricyclo[3.3.1.1<sup>3,7</sup>]decane, 1,3,5-trimethyl-;Adamantane, 1,3,5-trimethyl-;1,3,5-Trimethyltricyclo[3.3.1.1<sup>3,7</sup>]decane;1,3,5-Trimethyladamantane",
    "duplicated_cas_no": "",
    "SMILES": "CC12CC3(C)CC(C)(C1)CC(C2)C3",
    "meta_data": {
        "InChI": "InChI=1S/C13H22/c1-11-4-10-5-12(2,7-11)9-13(3,6-10)8-11/h10H,4-9H2,1-3H3",
        "InChIKey": null,
        "Canonical SMILES": "CC12CC3CC(C)(C1)CC(C)(C3)C2",
        "Molecular Formula": "C<sub>13</sub>H<sub>22</sub>",
        "Molecular Mass": "178.31",
        "Boiling Point": "88.0-89.5 °C @ Press: 19 Torr"
    }
}