{
    "cas_no": "547-65-9",
    "key_name": "Tulipalin A",
    "cn_name": "2-甲烯基丁内酯;alpha-亚甲基-gamma-丁内酯;二氢-3-亚甲基-2(3H)-呋喃酮;",
    "alternate_name": "2(3<em>H</em>)-Furanone, dihydro-3-methylene-;Butyric acid, 4-hydroxy-2-methylene-, γ-lactone;Dihydro-3-methylene-2(3<em>H</em>)-furanone;4,5-Dihydro-3-methylene-2(3<em>H</em>)-furanone;α-Methylenebutyrolactone;Tulipalin A;α-Methylene-γ-butyrolactone;Tetrahydro-3-methylene-2-furanone;2-Methylene-4-butanolide;2-Methylene-γ-butyrolactone;3-Methylenedihydrofuran-2-one;NSC 205367;Securolide;LMSV 6;3-Methylenedihydrofuran-2(3<em>H</em>)-one;Tulipaline;2-Methylenebutyrolactone;3-Methylideneoxolan-2-one;3-Methylenetetrahydrofuran-2-one",
    "duplicated_cas_no": "",
    "SMILES": "C=C1C(=O)OCC1",
    "meta_data": {
        "InChI": "InChI=1S/C5H6O2/c1-4-2-3-7-5(4)6/h1-3H2",
        "InChIKey": null,
        "Canonical SMILES": "O=C1OCCC1=C",
        "Molecular Formula": "C<sub>5</sub>H<sub>6</sub>O<sub>2</sub>",
        "Molecular Mass": "98.10",
        "Boiling Point": "58.5 °C",
        "Melting Point": "&lt;25 °C",
        "Density": "1.1206 g/cm³ @ Temp: 20 °C"
    }
}