{
    "cas_no": "498-96-4",
    "key_name": "Guvacine",
    "cn_name": null,
    "alternate_name": "3-Pyridinecarboxylic acid, 1,2,5,6-tetrahydro-;Nicotinic acid, 1,2,5,6-tetrahydro-;1,2,5,6-Tetrahydro-3-pyridinecarboxylic acid;1,2,5,6-Tetrahydronicotinic acid;Guvacine;1,2,5,6-Tetrahydropyridine-3-carboxylic acid",
    "duplicated_cas_no": "",
    "SMILES": "C(O)(=O)C1=CCCNC1",
    "meta_data": {
        "InChI": "InChI=1S/C6H9NO2/c8-6(9)5-2-1-3-7-4-5/h2,7H,1,3-4H2,(H,8,9)",
        "InChIKey": null,
        "Canonical SMILES": "O=C(O)C1=CCCNC1",
        "Molecular Formula": "C<sub>6</sub>H<sub>9</sub>NO<sub>2</sub>",
        "Molecular Mass": "127.14",
        "Melting Point": "295 °C (decomp)"
    }
}