{
    "cas_no": "635-90-5",
    "key_name": "1-Phenylpyrrole",
    "cn_name": "1-苯基吡咯;",
    "alternate_name": "1<em>H</em>-Pyrrole, 1-phenyl-;Pyrrole, 1-phenyl-;1-Phenyl-1<em>H</em>-pyrrole;1-Phenylpyrrole;<em>N</em>-Phenylpyrrole;<em>N</em>-Pyrrolobenzene;NSC 16581;<em>N</em>-Phenyl-1<em>H</em>-pyrrole",
    "duplicated_cas_no": "",
    "SMILES": "N1(C=CC=C1)C2=CC=CC=C2",
    "meta_data": {
        "InChI": "InChI=1S/C10H9N/c1-2-6-10(7-3-1)11-8-4-5-9-11/h1-9H",
        "InChIKey": null,
        "Canonical SMILES": "C=1C=CC(=CC1)N2C=CC=C2",
        "Molecular Formula": "C<sub>10</sub>H<sub>9</sub>N",
        "Molecular Mass": "143.19",
        "Boiling Point": "234 °C",
        "Melting Point": "62 °C"
    }
}