{
    "cas_no": "4815-25-2",
    "key_name": "Methyl 2-amino-4-ethyl-5-methyl-3-thiophenecarboxylate",
    "cn_name": null,
    "alternate_name": "3-Thiophenecarboxylic acid, 2-amino-4-ethyl-5-methyl-, methyl ester;Methyl 2-amino-4-ethyl-5-methyl-3-thiophenecarboxylate",
    "duplicated_cas_no": "",
    "SMILES": "C(OC)(=O)C=1C(CC)=C(C)SC1N",
    "meta_data": {
        "InChI": "InChI=1S/C9H13NO2S/c1-4-6-5(2)13-8(10)7(6)9(11)12-3/h4,10H2,1-3H3",
        "InChIKey": null,
        "Canonical SMILES": "O=C(OC)C1=C(SC(=C1CC)C)N",
        "Molecular Formula": "C<sub>9</sub>H<sub>13</sub>NO<sub>2</sub>S",
        "Molecular Mass": "199.27",
        "Boiling Point": "153-155 °C @ Press: 11 Torr"
    }
}