{
    "cas_no": "1569-69-3",
    "key_name": "Cyclohexanethiol",
    "cn_name": "环己硫醇;环己基硫醇;",
    "alternate_name": "Cyclohexanethiol;Cyclohexyl mercaptan;Cyclohexylthiol;Mercaptocyclohexane;NSC 59723",
    "duplicated_cas_no": "",
    "SMILES": "SC1CCCCC1",
    "meta_data": {
        "InChI": "InChI=1S/C6H12S/c7-6-4-2-1-3-5-6/h6-7H,1-5H2",
        "InChIKey": null,
        "Canonical SMILES": "SC1CCCCC1",
        "Molecular Formula": "C<sub>6</sub>H<sub>12</sub>S",
        "Molecular Mass": "116.22",
        "Boiling Point": "158.9 °C @ Press: 760 Torr",
        "Melting Point": "-118 °C",
        "Density": "0.9782 g/cm³ @ Temp: 20 °C"
    }
}