{
    "cas_no": "111-13-7",
    "key_name": "2-Octanone",
    "cn_name": "仲辛酮;2-辛酮;甲基己基甲酮;",
    "alternate_name": "2-Octanone;Hexyl methyl ketone;Methyl hexyl ketone;Methyl <em>n</em>-hexyl ketone;<em>n</em>-Hexyl methyl ketone;2-Oxooctane;NSC 3712;NSC 5936",
    "duplicated_cas_no": "",
    "SMILES": "C(CC(C)=O)CCCC",
    "meta_data": {
        "InChI": "InChI=1S/C8H16O/c1-3-4-5-6-7-8(2)9/h3-7H2,1-2H3",
        "InChIKey": null,
        "Canonical SMILES": "O=C(C)CCCCCC",
        "Molecular Formula": "C<sub>8</sub>H<sub>16</sub>O",
        "Molecular Mass": "128.21",
        "Boiling Point": "172-173 °C",
        "Melting Point": "-16 °C",
        "Density": "0.820 g/cm³ @ Temp: 20 °C"
    }
}