{
    "cas_no": "32687-77-7",
    "key_name": "3,5-Bis(1,1-dimethylethyl)-4-hydroxybenzenepropanoic acid hydrazide",
    "cn_name": "3-(3,5-二叔丁基-4-羟基苯基)丙酰肼;",
    "alternate_name": "Benzenepropanoic acid, 3,5-bis(1,1-dimethylethyl)-4-hydroxy-, hydrazide;Hydrocinnamic acid, 3,5-di-<em>tert</em>-butyl-4-hydroxy-, hydrazide;3,5-Bis(1,1-dimethylethyl)-4-hydroxybenzenepropanoic acid hydrazide;<em>N</em>-[β-(3,5-di-<em>tert</em>-Butyl-4-hydroxyphenyl)propionyl]hydrazine;β-(3,5-Di-<em>tert</em>-butyl-4-hydroxyphenyl)propionyl hydrazide;3-(3,5-Di-<em>tert</em>-butyl-4-hydroxyphenyl)propionic acid hydrazide;β-(3,5-Di-<em>tert</em>-butyl-4-hydroxyphenyl)propionic acid hydrazide;3-(3,5-Di-<em>tert</em>-butyl-4-hydroxyphenyl)propionylhydrazine;3,5-Di-<em>tert</em>-butyl-4-hydroxyhydrocinnamic acid hydrazide;Luchem AOR 300",
    "duplicated_cas_no": "144616-75-1",
    "SMILES": "C(C)(C)(C)C1=C(O)C(C(C)(C)C)=CC(CCC(NN)=O)=C1",
    "meta_data": {
        "InChI": "InChI=1S/C17H28N2O2/c1-16(2,3)12-9-11(7-8-14(20)19-18)10-13(15(12)21)17(4,5)6/h9-10,21H,7-8,18H2,1-6H3,(H,19,20)",
        "InChIKey": null,
        "Canonical SMILES": "O=C(NN)CCC=1C=C(C(O)=C(C1)C(C)(C)C)C(C)(C)C",
        "Molecular Formula": "C<sub>17</sub>H<sub>28</sub>N<sub>2</sub>O<sub>2</sub>",
        "Molecular Mass": "292.42",
        "Melting Point": "157-158 °C"
    }
}