{
    "cas_no": "322-97-4",
    "key_name": "4-Hydroxy-7-(trifluoromethyl)quinoline",
    "cn_name": "7-(三氯甲基)-4-羟基喹啉;",
    "alternate_name": "4-Quinolinol, 7-(trifluoromethyl)-;7-(Trifluoromethyl)-4-quinolinol;7-Trifluoromethyl-4-quinolinol;4-Hydroxy-7-(trifluoromethyl)quinoline;7-Trifluoromethyl-4-hydroxyquinoline;NSC 77093",
    "duplicated_cas_no": "",
    "SMILES": "OC=1C2=C(C=C(C(F)(F)F)C=C2)N=CC1",
    "meta_data": {
        "InChI": "InChI=1S/C10H6F3NO/c11-10(12,13)6-1-2-7-8(5-6)14-4-3-9(7)15/h1-5H,(H,14,15)",
        "InChIKey": null,
        "Canonical SMILES": "FC(F)(F)C=1C=CC2=C(O)C=CN=C2C1",
        "Molecular Formula": "C<sub>10</sub>H<sub>6</sub>F<sub>3</sub>NO",
        "Molecular Mass": "213.16",
        "Melting Point": "267.5 °C"
    }
}