{
    "cas_no": "1129-46-0",
    "key_name": "(+)-2-Phenoxypropionic acid",
    "cn_name": "(R)-2-苯氧基丙酸;",
    "alternate_name": "Propanoic acid, 2-phenoxy-, (2<em>R</em>)-;Propionic acid, 2-phenoxy-, <span class=\"text-smallcaps\">D</span>-;Propanoic acid, 2-phenoxy-, (<em>R</em>)-;(2<em>R</em>)-2-Phenoxypropanoic acid;(<em>R</em>)-(+)-2-Phenoxypropionic acid;(+)-2-Phenoxypropionic acid;(<em>R</em>)-2-Phenoxypropionic acid;(+)-2-Phenoxypropanoic acid;(<em>R</em>)-2-Phenoxypropanoic acid;(+)-R-2-Phenoxypropionic acid",
    "duplicated_cas_no": "",
    "SMILES": "O([C@@H](C(O)=O)C)C1=CC=CC=C1",
    "meta_data": {
        "InChI": "InChI=1S/C9H10O3/c1-7(9(10)11)12-8-5-3-2-4-6-8/h2-7H,1H3,(H,10,11)/t7-/m1/s1",
        "InChIKey": null,
        "Canonical SMILES": "O=C(O)C(OC=1C=CC=CC1)C",
        "Molecular Formula": "C<sub>9</sub>H<sub>10</sub>O<sub>3</sub>",
        "Molecular Mass": "166.17",
        "Melting Point": "84-86 °C"
    }
}