{
    "cas_no": "1392-21-8",
    "key_name": "Leucomycin",
    "cn_name": null,
    "alternate_name": "Leucomycin;Kitasamycin;Stereomycine;C 637;Ayermicina;Syneptine;Sineptina",
    "duplicated_cas_no": "8059-95-8;11006-65-8;12646-12-7",
    "SMILES": "",
    "meta_data": {
        "InChI": "",
        "InChIKey": null,
        "Canonical SMILES": "",
        "Molecular Formula": "Unspecified",
        "Molecular Mass": "",
        "Melting Point": "128-145 °C"
    }
}