{
    "uri": "substance/pt/1392218",
    "rn": "1392-21-8",
    "name": "Leucomycin",
    "images": [],
    "inchi": "",
    "inchiKey": "",
    "smile": "",
    "canonicalSmile": "",
    "molecularFormula": "Unspecified",
    "molecularMass": "",
    "experimentalProperties": [
        {
            "name": "Melting Point",
            "property": "128-145 °C",
            "sourceNumber": 1
        }
    ],
    "propertyCitations": [
        {
            "docUri": "",
            "sourceNumber": 1,
            "source": "Drugs - Synonyms and Properties data were obtained from Ashgate Publishing Co. (US)"
        }
    ],
    "synonyms": [
        "Leucomycin",
        "Kitasamycin",
        "Stereomycine",
        "C 637",
        "Ayermicina",
        "Syneptine",
        "Sineptina"
    ],
    "replacedRns": [
        "8059-95-8",
        "11006-65-8",
        "12646-12-7"
    ],
    "hasMolfile": false,
    "source": "https://commonchemistry.cas.org/detail?cas_rn=1392-21-8"
}