{
    "cas_no": "157197-54-1",
    "key_name": "1<em>H</em>-Imidazolium, 1,3-bis(1,1-dimethylethyl)-, chloride (1:1)",
    "cn_name": "1,3-二-叔丁基咪唑氯化物;",
    "alternate_name": "1<em>H</em>-Imidazolium, 1,3-bis(1,1-dimethylethyl)-, chloride (1:1);1<em>H</em>-Imidazolium, 1,3-bis(1,1-dimethylethyl)-, chloride;1,3-Di-<em>tert</em>-butyl-1<em>H</em>-imidazolium chloride;1,3-Di-<em>tert</em>-butylimidazolium chloride;1,3-Di-<em>tert</em>-butyl-1,3-dihydro-2<em>H</em>-imidazol-2-ylidene monohydrochloride;1,3-Di-<em>tert</em>-butyl-1<em>H</em>-imidazol-3-ium chloride",
    "duplicated_cas_no": "852445-93-3",
    "SMILES": "C(C)(C)(C)[N+]1=CN(C(C)(C)C)C=C1.[Cl-]",
    "meta_data": {
        "InChI": "InChI=1S/C11H21N2.ClH/c1-10(2,3)12-7-8-13(9-12)11(4,5)6;/h7-9H,1-6H3;1H/q+1;/p-1",
        "InChIKey": null,
        "Canonical SMILES": "[Cl-].C1=C[N+](=CN1C(C)(C)C)C(C)(C)C",
        "Molecular Formula": "C<sub>11</sub>H<sub>21</sub>N<sub>2</sub>.Cl",
        "Molecular Mass": "",
        "Melting Point": "202-203 °C"
    }
}