{
    "cas_no": "3489-28-9",
    "key_name": "1,9-Nonanedithiol",
    "cn_name": "1,9-壬二硫醇;",
    "alternate_name": "1,9-Nonanedithiol;1,9-Dimercaptononane;NSC 65658",
    "duplicated_cas_no": "",
    "SMILES": "C(CCCCS)CCCCS",
    "meta_data": {
        "InChI": "InChI=1S/C9H20S2/c10-8-6-4-2-1-3-5-7-9-11/h10-11H,1-9H2",
        "InChIKey": null,
        "Canonical SMILES": "SCCCCCCCCCS",
        "Molecular Formula": "C<sub>9</sub>H<sub>20</sub>S<sub>2</sub>",
        "Molecular Mass": "192.39",
        "Boiling Point": "103 °C @ Press: 0.8 Torr"
    }
}