{
    "cas_no": "97-65-4",
    "key_name": "Itaconic acid",
    "cn_name": "衣康酸;甲叉琥珀酸;分解乌头酸;甲叉丁二酸;亚甲基丁二酸;",
    "alternate_name": "Butanedioic acid, 2-methylene-;Succinic acid, methylene-;Butanedioic acid, methylene-;2-Methylenebutanedioic acid;Itaconic acid;Methylenesuccinic acid;2-Propene-1,2-dicarboxylic acid;Propylenedicarboxylic acid;Methylenebutanedioic acid;2-Methylenesuccinic acid;NSC 3357;4-Hydroxy-2-methylene-4-oxobutanoic acid;2-Methylidenebutanedioic acid",
    "duplicated_cas_no": "1887074-72-7",
    "SMILES": "C(CC(O)=O)(C(O)=O)=C",
    "meta_data": {
        "InChI": "InChI=1S/C5H6O4/c1-3(5(8)9)2-4(6)7/h1-2H2,(H,6,7)(H,8,9)",
        "InChIKey": null,
        "Canonical SMILES": "O=C(O)C(=C)CC(=O)O",
        "Molecular Formula": "C<sub>5</sub>H<sub>6</sub>O<sub>4</sub>",
        "Molecular Mass": "130.10",
        "Boiling Point": "158-160 °C @ Press: 12 Torr",
        "Melting Point": "162-164 °C (decomp)",
        "Density": "1.632 g/cm³"
    }
}