{
    "cas_no": "2029-94-9",
    "key_name": "3,4-Diethoxybenzaldehyde",
    "cn_name": "3,4-二乙氧基苯甲醛;",
    "alternate_name": "Benzaldehyde, 3,4-diethoxy-;3,4-Diethoxybenzaldehyde;NSC 6331",
    "duplicated_cas_no": "847896-88-2",
    "SMILES": "O(CC)C1=C(OCC)C=CC(C=O)=C1",
    "meta_data": {
        "InChI": "InChI=1S/C11H14O3/c1-3-13-10-6-5-9(8-12)7-11(10)14-4-2/h5-8H,3-4H2,1-2H3",
        "InChIKey": null,
        "Canonical SMILES": "O=CC1=CC=C(OCC)C(OCC)=C1",
        "Molecular Formula": "C<sub>11</sub>H<sub>14</sub>O<sub>3</sub>",
        "Molecular Mass": "194.23",
        "Boiling Point": "279 °C",
        "Melting Point": "22 °C",
        "Density": "1.101 g/cm³ @ Temp: 21.5 °C"
    }
}