{
    "cas_no": "183322-45-4",
    "key_name": "4-Quinazolinamine, <em>N</em>-(3-bromophenyl)-6,7-dimethoxy-, hydrochloride (1:1)",
    "cn_name": null,
    "alternate_name": "4-Quinazolinamine, <em>N</em>-(3-bromophenyl)-6,7-dimethoxy-, hydrochloride (1:1);4-Quinazolinamine, <em>N</em>-(3-bromophenyl)-6,7-dimethoxy-, monohydrochloride;6,7-Dimethoxy-4-[<em>N</em>-(3-bromophenyl)amino]quinazoline hydrochloride;PD153035 HCl",
    "duplicated_cas_no": "",
    "SMILES": "N(C=1C2=C(C=C(OC)C(OC)=C2)N=CN1)C3=CC(Br)=CC=C3.Cl",
    "meta_data": {
        "InChI": "InChI=1S/C16H14BrN3O2.ClH/c1-21-14-7-12-13(8-15(14)22-2)18-9-19-16(12)20-11-5-3-4-10(17)6-11;/h3-9H,1-2H3,(H,18,19,20);1H",
        "InChIKey": null,
        "Canonical SMILES": "Cl.BrC1=CC=CC(=C1)NC=2N=CN=C3C=C(OC)C(OC)=CC32",
        "Molecular Formula": "C<sub>16</sub>H<sub>14</sub>BrN<sub>3</sub>O<sub>2</sub>.ClH",
        "Molecular Mass": "",
        "Melting Point": "256-257.5 °C"
    }
}