{
    "cas_no": "128-65-4",
    "key_name": "2,9-Diphenylanthra[2,1,9-<em>def</em>:6,5,10-<em>d</em>'<em>e</em>'<em>f</em>′]diisoquinoline-1,3,8,10(2<em>H</em>,9<em>H</em>)-tetrone",
    "cn_name": null,
    "alternate_name": "Anthra[2,1,9-<em>def</em>:6,5,10-<em>d</em>'<em>e</em>'<em>f</em>′]diisoquinoline-1,3,8,10(2<em>H</em>,9<em>H</em>)-tetrone, 2,9-diphenyl-;3,4,9,10-Perylenetetracarboxylic 3,4:9,10-diimide, <em>N</em>,<em>N</em>′-diphenyl-;2,9-Diphenylanthra[2,1,9-<em>def</em>:6,5,10-<em>d</em>'<em>e</em>'<em>f</em>′]diisoquinoline-1,3,8,10(2<em>H</em>,9<em>H</em>)-tetrone;Perylenetetracarboxylic <em>N</em>,<em>N</em>′-bis(phenylimide);3,4,9,10-Perylenetetracarboxylic acid bis(phenylimide);<em>N</em>,<em>N</em>′-Diphenyl-3,4:9,10-perylenebis(dicarboximide);<em>N</em>,<em>N</em>′-Diphenyl-3,4:9,10-perylenetetracarboxylic diimide;<em>N</em>,<em>N</em>′-Diphenylperylenetetracarboxylic diimide;2,9-Diphenylanthra[2,1,9-<em>def</em>:6,5,10-<em>d</em>'<em>e</em>'<em>f</em>′]diisoquinoline-1,3,8,10(2<em>H</em>,9<em>H</em>)-tetraone",
    "duplicated_cas_no": "197501-12-5;948552-08-7;1306600-31-6",
    "SMILES": "O=C1C=2C3=C4C(C=5C=6C(C4=CC2)=CC=C7C6C(=CC5)C(=O)N(C7=O)C8=CC=CC=C8)=CC=C3C(=O)N1C9=CC=CC=C9",
    "meta_data": {
        "InChI": "InChI=1S/C36H18N2O4/c39-33-25-15-11-21-23-13-17-27-32-28(36(42)38(35(27)41)20-9-5-2-6-10-20)18-14-24(30(23)32)22-12-16-26(31(25)29(21)22)34(40)37(33)19-7-3-1-4-8-19/h1-18H",
        "InChIKey": null,
        "Canonical SMILES": "O=C1C2=CC=C3C4=CC=C5C(=O)N(C=6C=CC=CC6)C(=O)C7=CC=C(C=8C=CC(C(=O)N1C=9C=CC=CC9)=C2C38)C4=C57",
        "Molecular Formula": "C<sub>36</sub>H<sub>18</sub>N<sub>2</sub>O<sub>4</sub>",
        "Molecular Mass": "542.54",
        "Melting Point": "201-203 °C"
    }
}