{
    "cas_no": "1671-87-0",
    "key_name": "3,6-Bis(2-pyridyl)-1,2,4,5-tetrazine",
    "cn_name": "3,6-二-2-吡啶基-1,2,4,5-四嗪;",
    "alternate_name": "1,2,4,5-Tetrazine, 3,6-di-2-pyridinyl-;<em>s</em>-Tetrazine, 3,6-di-2-pyridyl-;<em>s</em>-Tetrazine, di-2-pyridyl-;3,6-Di-2-pyridinyl-1,2,4,5-tetrazine;3,6-Di-2-pyridyl-<em>s</em>-tetrazine;3,6-Di-2-pyridyl-1,2,4,5-tetrazine;3,6-Bis(2-pyridyl)-1,2,4,5-tetrazine;3,6-Bis(2-pyridyl)-<em>s</em>-tetrazine;3,6-Bis(2-pyridinyl)-1,2,4,5-tetrazine;Bptz;NSC 238155;3,6-(2-Pyridinyl)-1,2,4,5-tetrazine;3,6-Bi-2-pyridyl-1,2,4,5-tetrazine;3,6-Bis(2-pyridyl)tetrazine",
    "duplicated_cas_no": "107731-66-8",
    "SMILES": "C=1(N=NC(=NN1)C2=CC=CC=N2)C3=CC=CC=N3",
    "meta_data": {
        "InChI": "InChI=1S/C12H8N6/c1-3-7-13-9(5-1)11-15-17-12(18-16-11)10-6-2-4-8-14-10/h1-8H",
        "InChIKey": null,
        "Canonical SMILES": "N1=NC(=NN=C1C=2N=CC=CC2)C3=NC=CC=C3",
        "Molecular Formula": "C<sub>12</sub>H<sub>8</sub>N<sub>6</sub>",
        "Molecular Mass": "236.23",
        "Melting Point": "222 °C"
    }
}