{
    "cas_no": "487-21-8",
    "key_name": "Lumazine",
    "cn_name": "2,4-二羟基蝶啶;无水茶碱;",
    "alternate_name": "2,4(1<em>H</em>,3<em>H</em>)-Pteridinedione;Lumazine;2,4(3<em>H</em>,8<em>H</em>)-Pteridinedione;2,4-Pteridinediol;2,4-Dihydroxypteridine;Pteridine-2,4-dione;Lumazin;NSC 225113;NSC 41801;1,2,3,4-Tetrahydropteridine-2,4-dione;2,3,4,8-Tetrahydropteridine-2,4-dione;1<em>H</em>-Pteridine-2,4-dione",
    "duplicated_cas_no": "525-77-9;27899-40-7;27899-42-9",
    "SMILES": "O=C1C=2C(=NC(=O)N1)NC=CN2",
    "meta_data": {
        "InChI": "InChI=1S/C6H4N4O2/c11-5-3-4(8-2-1-7-3)9-6(12)10-5/h1-2H,(H2,8,9,10,11,12)",
        "InChIKey": null,
        "Canonical SMILES": "O=C1N=C2NC=CN=C2C(=O)N1",
        "Molecular Formula": "C<sub>6</sub>H<sub>4</sub>N<sub>4</sub>O<sub>2</sub>",
        "Molecular Mass": "164.12",
        "Melting Point": "348.5 °C"
    }
}