{
    "cas_no": "61792-31-2",
    "key_name": "Laurylamidopropyldimethylamine oxide",
    "cn_name": null,
    "alternate_name": "Dodecanamide, <em>N</em>-[3-(dimethyloxidoamino)propyl]-;Dodecanamide, <em>N</em>-[3-(dimethylamino)propyl]-, <em>N</em>-oxide;<em>N</em>-[3-(Dimethyloxidoamino)propyl]dodecanamide;3-Lauramido-<em>N</em>,<em>N</em>-dimethylpropylamine oxide;Mackamine LAO;LAPAO;3-Lauramidopropyl-<em>N</em>,<em>N</em>-dimethylamine oxide;Dodecylamidopropyldimethylamine oxide;<em>N</em>-(Dodecylamidetrimethylene)dimethylamine oxide;Softazoline LAO;Laurylamidopropyldimethylamine oxide;Softazoline LAO-C;<em>N</em>-Lauroylaminopropyl-<em>N</em>,<em>N</em>-dimethylamine oxide;<em>N</em>,<em>N</em>-Dimethylaminopropyldodecylamide oxide;Genaminox AP;LAO 30;Aromox APA 12W;Lauroylamidopropyldimethylamine oxide;Lauramidopropyl amine oxide;Cadenax APA 12W;LAO",
    "duplicated_cas_no": "228113-46-0;1108235-10-4;1135978-87-8;1252036-95-5;1639818-75-9",
    "SMILES": "C(NCCCN(C)(C)=O)(CCCCCCCCCCC)=O",
    "meta_data": {
        "InChI": "InChI=1S/C17H36N2O2/c1-4-5-6-7-8-9-10-11-12-14-17(20)18-15-13-16-19(2,3)21/h4-16H2,1-3H3,(H,18,20)",
        "InChIKey": null,
        "Canonical SMILES": "O=C(NCCCN(=O)(C)C)CCCCCCCCCCC",
        "Molecular Formula": "C<sub>17</sub>H<sub>36</sub>N<sub>2</sub>O<sub>2</sub>",
        "Molecular Mass": "300.48",
        "Melting Point": "119-122 °C"
    }
}