{
    "cas_no": "51632-29-2",
    "key_name": "(3-Phenoxyphenyl)acetonitrile",
    "cn_name": null,
    "alternate_name": "Benzeneacetonitrile, 3-phenoxy-;3-Phenoxybenzeneacetonitrile;(3-Phenoxyphenyl)acetonitrile;<em>m</em>-Phenoxybenzyl cyanide;3-Phenoxybenzyl cyanide;<em>m</em>-Phenoxyphenyl-acetonitrile;2-(3-Phenoxyphenyl)acetonitrile",
    "duplicated_cas_no": "",
    "SMILES": "O(C1=CC(CC#N)=CC=C1)C2=CC=CC=C2",
    "meta_data": {
        "InChI": "InChI=1S/C14H11NO/c15-10-9-12-5-4-8-14(11-12)16-13-6-2-1-3-7-13/h1-8,11H,9H2",
        "InChIKey": null,
        "Canonical SMILES": "N#CCC=1C=CC=C(OC=2C=CC=CC2)C1",
        "Molecular Formula": "C<sub>14</sub>H<sub>11</sub>NO",
        "Molecular Mass": "209.24",
        "Boiling Point": "161-163 °C @ Press: 1 Torr"
    }
}