{
    "cas_no": "102-81-8",
    "key_name": "2-(Dibutylamino)ethanol",
    "cn_name": "2-(二丁基氨基)乙醇;N,N-二丁氨基乙醇;二丁基氨基乙醇;N,N-二丁基乙醇胺;",
    "alternate_name": "Ethanol, 2-(dibutylamino)-;2-(Dibutylamino)ethanol;Dibutylaminoethanol;<em>N</em>,<em>N</em>-Dibutylethanolamine;<em>N</em>,<em>N</em>-Dibutyl-<em>N</em>-(2-hydroxyethyl)amine;<em>N</em>,<em>N</em>-Dibutylaminoethanol;Dibutylethanolamine;<em>N</em>,<em>N</em>-Dibutyl-2-hydroxyethylamine;<em>N</em>-(2-Hydroxyethyl)dibutylamine;NSC 6330;2-Di-<em>N</em>-butylaminoethyl alcohol;Amino Alcohol 2B;2-(Dibutylamino)ethan-1-ol",
    "duplicated_cas_no": "",
    "SMILES": "N(CCCC)(CCCC)CCO",
    "meta_data": {
        "InChI": "InChI=1S/C10H23NO/c1-3-5-7-11(9-10-12)8-6-4-2/h12H,3-10H2,1-2H3",
        "InChIKey": null,
        "Canonical SMILES": "OCCN(CCCC)CCCC",
        "Molecular Formula": "C<sub>10</sub>H<sub>23</sub>NO",
        "Molecular Mass": "173.30",
        "Boiling Point": "222-232 °C",
        "Melting Point": "-70 °C",
        "Density": "0.9 g/cm³"
    }
}