{
    "cas_no": "12031-66-2",
    "key_name": "Lithium tantalum oxide (LiTaO<sub>3</sub>)",
    "cn_name": "钽酸锂;",
    "alternate_name": "Lithium tantalum oxide (LiTaO<sub>3</sub>);Lithium tantalate(V) (LiTaO<sub>3</sub>);Tantalate (TaO<sub>3</sub><sup>1-</sup>), lithium;Tantalum lithium oxide (LiTaO<sub>3</sub>);Lithium tantalate (LiTaO<sub>3</sub>);Lithium tantalate;Lithium tantalum oxide",
    "duplicated_cas_no": "",
    "SMILES": "[O].[Ta].[Li]",
    "meta_data": {
        "InChI": "InChI=1S/Li.O.Ta",
        "InChIKey": null,
        "Canonical SMILES": "[Li].[O].[Ta]",
        "Molecular Formula": "Li.O.Ta",
        "Molecular Mass": "",
        "Melting Point": "1562 °C",
        "Density": "7.47 g/cm³"
    }
}