{
    "uri": "substance/pt/12031662",
    "rn": "12031-66-2",
    "name": "Lithium tantalum oxide (LiTaO<sub>3</sub>)",
    "images": [],
    "inchi": "InChI=1S/Li.O.Ta",
    "inchiKey": "InChIKey=OWOLJHNXJHBSAJ-UHFFFAOYSA-N",
    "smile": "[O].[Ta].[Li]",
    "canonicalSmile": "[Li].[O].[Ta]",
    "molecularFormula": "Li.O.Ta",
    "molecularMass": "",
    "experimentalProperties": [
        {
            "name": "Melting Point",
            "property": "1562 °C",
            "sourceNumber": 1
        },
        {
            "name": "Density",
            "property": "7.47 g/cm³",
            "sourceNumber": 2
        }
    ],
    "propertyCitations": [
        {
            "docUri": "document/pt/document/14159312",
            "sourceNumber": 1,
            "source": "Kozhaev, F. I.; Optiko-Mekhanicheskaya Promyshlennost, (1978), 45(5), 35-6, CAplus"
        },
        {
            "docUri": "document/pt/document/48467481",
            "sourceNumber": 2,
            "source": "Cui, Shijie; Fusion Engineering and Design, (2017), 114, 141-156, CAplus"
        }
    ],
    "synonyms": [
        "Lithium tantalum oxide (LiTaO<sub>3</sub>)",
        "Lithium tantalate(V) (LiTaO<sub>3</sub>)",
        "Tantalate (TaO<sub>3</sub><sup>1-</sup>), lithium",
        "Tantalum lithium oxide (LiTaO<sub>3</sub>)",
        "Lithium tantalate (LiTaO<sub>3</sub>)",
        "Lithium tantalate",
        "Lithium tantalum oxide"
    ],
    "replacedRns": [],
    "hasMolfile": true,
    "source": "https://commonchemistry.cas.org/detail?cas_rn=12031-66-2"
}