{
    "cas_no": "7390-62-7",
    "key_name": "6-Amino-7,9-dihydro-8<em>H</em>-purine-8-thione",
    "cn_name": "8-巯基腺嘌呤;",
    "alternate_name": "8<em>H</em>-Purine-8-thione, 6-amino-7,9-dihydro-;Purine-8-thiol, 6-amino-;8<em>H</em>-Purine-8-thione, 6-amino-1,7-dihydro-;6-Amino-7,9-dihydro-8<em>H</em>-purine-8-thione;6-Amino-8-mercaptopurine;8-Mercaptoadenine;Meradine;Meradin;NSC 22721;6-Amino-8-purinethiol",
    "duplicated_cas_no": "35733-14-3",
    "SMILES": "NC1=C2C(NC(=S)N2)=NC=N1",
    "meta_data": {
        "InChI": "InChI=1S/C5H5N5S/c6-3-2-4(8-1-7-3)10-5(11)9-2/h1H,(H4,6,7,8,9,10,11)",
        "InChIKey": null,
        "Canonical SMILES": "S=C1NC=2N=CN=C(N)C2N1",
        "Molecular Formula": "C<sub>5</sub>H<sub>5</sub>N<sub>5</sub>S",
        "Molecular Mass": "167.19",
        "Melting Point": "320 °C"
    }
}