{
    "cas_no": "609-69-8",
    "key_name": "2-Hydroxycyclohexanecarboxylic acid",
    "cn_name": null,
    "alternate_name": "Cyclohexanecarboxylic acid, 2-hydroxy-;2-Hydroxycyclohexanecarboxylic acid;Cyclohexanol-2-carboxylic acid;Hexahydrosalicylic acid",
    "duplicated_cas_no": "",
    "SMILES": "C(O)(=O)C1C(O)CCCC1",
    "meta_data": {
        "InChI": "InChI=1S/C7H12O3/c8-6-4-2-1-3-5(6)7(9)10/h5-6,8H,1-4H2,(H,9,10)",
        "InChIKey": null,
        "Canonical SMILES": "O=C(O)C1CCCCC1O",
        "Molecular Formula": "C<sub>7</sub>H<sub>12</sub>O<sub>3</sub>",
        "Molecular Mass": "144.17",
        "Melting Point": "111 °C"
    }
}