{
    "cas_no": "141-06-0",
    "key_name": "Propyl pentanoate",
    "cn_name": "戊酸丙酯;",
    "alternate_name": "Pentanoic acid, propyl ester;Valeric acid, propyl ester;<em>n</em>-Propyl <em>n</em>-valerate;Propyl pentanoate;Propyl valerate;NSC 57638",
    "duplicated_cas_no": "116423-68-8",
    "SMILES": "C(CCCC)(OCCC)=O",
    "meta_data": {
        "InChI": "InChI=1S/C8H16O2/c1-3-5-6-8(9)10-7-4-2/h3-7H2,1-2H3",
        "InChIKey": null,
        "Canonical SMILES": "O=C(OCCC)CCCC",
        "Molecular Formula": "C<sub>8</sub>H<sub>16</sub>O<sub>2</sub>",
        "Molecular Mass": "144.21",
        "Boiling Point": "167.5 °C",
        "Melting Point": "-70.7 °C"
    }
}