{
    "cas_no": "608-36-6",
    "key_name": "<em>rel</em>-(2<em>R</em>,3<em>S</em>)-2,3-Dibromobutanedioic acid",
    "cn_name": "2,3-二溴丁二酸;",
    "alternate_name": "Butanedioic acid, 2,3-dibromo-, (2<em>R</em>,3<em>S</em>)-<em>rel</em>-;Succinic acid, 2,3-dibromo-, <em>meso</em>-;Butanedioic acid, 2,3-dibromo-, (<em>R</em>*,<em>S</em>*)-;<em>rel</em>-(2<em>R</em>,3<em>S</em>)-2,3-Dibromobutanedioic acid;<em>meso</em>-Dibromosuccinic acid;<em>meso</em>-2,3-Dibromosuccinic acid;NSC 100886",
    "duplicated_cas_no": "",
    "SMILES": "[C@H]([C@H](C(O)=O)Br)(C(O)=O)Br",
    "meta_data": {
        "InChI": "InChI=1/C4H4Br2O4/c5-1(3(7)8)2(6)4(9)10/h1-2H,(H,7,8)(H,9,10)/t1-,2+",
        "InChIKey": null,
        "Canonical SMILES": "O=C(O)C(Br)C(Br)C(=O)O",
        "Molecular Formula": "C<sub>4</sub>H<sub>4</sub>Br<sub>2</sub>O<sub>4</sub>",
        "Molecular Mass": "275.88",
        "Melting Point": "268 °C (decomp)"
    }
}