{
    "cas_no": "459-73-4",
    "key_name": "Glycine ethyl ester",
    "cn_name": null,
    "alternate_name": "Glycine, ethyl ester;Ethyl glycinate;Ethyl glycine;Ethyl aminoacetate;(Ethoxycarbonyl)methylamine;Ethyl 2-aminoacetate;Aminoacetic acid ethyl ester;Glycine ethyl ester",
    "duplicated_cas_no": "1564268-64-9",
    "SMILES": "C(OCC)(CN)=O",
    "meta_data": {
        "InChI": "InChI=1S/C4H9NO2/c1-2-7-4(6)3-5/h2-3,5H2,1H3",
        "InChIKey": null,
        "Canonical SMILES": "O=C(OCC)CN",
        "Molecular Formula": "C<sub>4</sub>H<sub>9</sub>NO<sub>2</sub>",
        "Molecular Mass": "103.12",
        "Boiling Point": "149 °C",
        "Melting Point": "95.5 °C"
    }
}