{
    "cas_no": "34810-67-8",
    "key_name": "2-(1<em>H</em>-Pyrazol-3-yl)phenol",
    "cn_name": "2-(1H-吡唑-3-基)苯酚;",
    "alternate_name": "Phenol, 2-(1<em>H</em>-pyrazol-3-yl)-;Phenol, <em>o</em>-pyrazol-3-yl-;2-(1<em>H</em>-Pyrazol-3-yl)phenol;3-(2-Hydroxyphenyl)pyrazole;2-(Pyrazol-5-yl)phenol;3-(2-Hydroxyphenyl)-1<em>H</em>-pyrazole;2-(1<em>H</em>-Pyrazol-5-yl)phenol",
    "duplicated_cas_no": "293740-22-4;391926-95-7;771481-21-1;1313195-68-4;1544666-67-2",
    "SMILES": "OC1=C(C=2C=CNN2)C=CC=C1",
    "meta_data": {
        "InChI": "InChI=1S/C9H8N2O/c12-9-4-2-1-3-7(9)8-5-6-10-11-8/h1-6,12H,(H,10,11)",
        "InChIKey": null,
        "Canonical SMILES": "OC=1C=CC=CC1C2=NNC=C2",
        "Molecular Formula": "C<sub>9</sub>H<sub>8</sub>N<sub>2</sub>O",
        "Molecular Mass": "160.17",
        "Melting Point": "98-99 °C"
    }
}