{
    "cas_no": "33499-42-2",
    "key_name": "Benzoic acid, 2,4-dimethyl-, ethyl ester",
    "cn_name": "2,4-二甲基苯甲酸乙酯;",
    "alternate_name": "Benzoic acid, 2,4-dimethyl-, ethyl ester;Ethyl 2,4-dimethylbenzoate;2,4-Dimethylbenzoic acid ethyl ester",
    "duplicated_cas_no": "",
    "SMILES": "C(OCC)(=O)C1=C(C)C=C(C)C=C1",
    "meta_data": {
        "InChI": "InChI=1S/C11H14O2/c1-4-13-11(12)10-6-5-8(2)7-9(10)3/h5-7H,4H2,1-3H3",
        "InChIKey": null,
        "Canonical SMILES": "O=C(OCC)C1=CC=C(C=C1C)C",
        "Molecular Formula": "C<sub>11</sub>H<sub>14</sub>O<sub>2</sub>",
        "Molecular Mass": "178.23",
        "Boiling Point": "156 °C @ Press: 40 Torr"
    }
}