{
    "cas_no": "2362-61-0",
    "key_name": "<em>rel</em>-(1<em>R</em>,2<em>S</em>)-2-Phenylcyclohexanol",
    "cn_name": "反式-2-苯基环己醇;(1R,2S)-2-苯基-1-环己醇;",
    "alternate_name": "Cyclohexanol, 2-phenyl-, (1<em>R</em>,2<em>S</em>)-<em>rel</em>-;Cyclohexanol, 2-phenyl-, <em>trans</em>-;<em>rel</em>-(1<em>R</em>,2<em>S</em>)-2-Phenylcyclohexanol;<em>trans</em>-2-Phenylcyclohexanol;<em>trans</em>-2-Phenyl-1-cyclohexanol;(±)-<em>trans</em>-2-Phenylcyclohexanol;(±)-<em>trans</em>-2-Phenyl-1-cyclohexanol;(1S*,2R*)-2-Phenylcyclohexanol",
    "duplicated_cas_no": "40960-69-8",
    "SMILES": "O[C@H]1[C@H](C2=CC=CC=C2)CCCC1",
    "meta_data": {
        "InChI": "InChI=1/C12H16O/c13-12-9-5-4-8-11(12)10-6-2-1-3-7-10/h1-3,6-7,11-13H,4-5,8-9H2/t11-,12+/s2",
        "InChIKey": null,
        "Canonical SMILES": "OC1CCCCC1C=2C=CC=CC2",
        "Molecular Formula": "C<sub>12</sub>H<sub>16</sub>O",
        "Molecular Mass": "176.25",
        "Boiling Point": "152-155 °C",
        "Melting Point": "56-57 °C"
    }
}