{
    "cas_no": "28715-21-1",
    "key_name": "(<em>R</em>)-3-Hydroxytetradecanoic acid",
    "cn_name": null,
    "alternate_name": "Tetradecanoic acid, 3-hydroxy-, (3<em>R</em>)-;Tetradecanoic acid, 3-hydroxy-, <span class=\"text-smallcaps\">D</span>-(-)-;Tetradecanoic acid, 3-hydroxy-, (<em>R</em>)-;(3<em>R</em>)-3-Hydroxytetradecanoic acid;<span class=\"text-smallcaps\">D</span>-(-)-β-Hydroxymyristic acid;(<em>R</em>)-(-)-3-Hydroxytetradecanoic acid;(<em>R</em>)-3-Hydroxytetradecanoic acid;(<em>R</em>)-3-Hydroxymyristic acid;<span class=\"text-smallcaps\">D</span>-3-Hydroxytetradecanoic acid;(R)-3-Hydroxymyristic acid",
    "duplicated_cas_no": "",
    "SMILES": "C(CCCCCCCCCC)[C@H](CC(O)=O)O",
    "meta_data": {
        "InChI": "InChI=1S/C14H28O3/c1-2-3-4-5-6-7-8-9-10-11-13(15)12-14(16)17/h13,15H,2-12H2,1H3,(H,16,17)/t13-/m1/s1",
        "InChIKey": null,
        "Canonical SMILES": "O=C(O)CC(O)CCCCCCCCCCC",
        "Molecular Formula": "C<sub>14</sub>H<sub>28</sub>O<sub>3</sub>",
        "Molecular Mass": "244.37",
        "Melting Point": "73-74 °C"
    }
}