{
    "cas_no": "117-80-6",
    "key_name": "2,3-Dichloro-1,4-naphthoquinone",
    "cn_name": "二氯萘醌;2,3-二氯-1,4-萘醌;",
    "alternate_name": "1,4-Naphthalenedione, 2,3-dichloro-;1,4-Naphthoquinone, 2,3-dichloro-;2,3-Dichloro-1,4-naphthalenedione;USR 604;Compound 604;Dichlone;2,3-Dichloro-1,4-naphthoquinone;Phygon;Phygon Seed Protectant;Sanquinon;Diclone;Algistat;Phygon XL;2,3-Dichloro-1,4-dihydro-1,4-dioxonaphthalene;Algistat (quinone);NSC 537;2,3-Dichloro-<em>p</em>-naphthoquinone;2,3-Dichloro-1,4-dihydronaphthalene-1,4-dione",
    "duplicated_cas_no": "",
    "SMILES": "O=C1C=2C(C(=O)C(Cl)=C1Cl)=CC=CC2",
    "meta_data": {
        "InChI": "InChI=1S/C10H4Cl2O2/c11-7-8(12)10(14)6-4-2-1-3-5(6)9(7)13/h1-4H",
        "InChIKey": null,
        "Canonical SMILES": "O=C1C(Cl)=C(Cl)C(=O)C=2C=CC=CC12",
        "Molecular Formula": "C<sub>10</sub>H<sub>4</sub>Cl<sub>2</sub>O<sub>2</sub>",
        "Molecular Mass": "227.04",
        "Boiling Point": "275 °C @ Press: 2 Torr",
        "Melting Point": "195 °C"
    }
}