{
    "cas_no": "5821-51-2",
    "key_name": "Dibenzo[<em>ghi</em>,<em>mno</em>]fluoranthene",
    "cn_name": null,
    "alternate_name": "Dibenzo[<em>ghi</em>,<em>mno</em>]fluoranthene;Corannulene",
    "duplicated_cas_no": "",
    "SMILES": "C12=C3C=4C=5C1=C6C=CC5C=CC4C=CC3=CC=C2C=C6",
    "meta_data": {
        "InChI": "InChI=1S/C20H10/c1-2-12-5-6-14-9-10-15-8-7-13-4-3-11(1)16-17(12)19(14)20(15)18(13)16/h1-10H",
        "InChIKey": null,
        "Canonical SMILES": "C1=CC=2C=CC3=CC=C4C=CC5=CC=C1C=6C2C3=C4C56",
        "Molecular Formula": "C<sub>20</sub>H<sub>10</sub>",
        "Molecular Mass": "250.29",
        "Melting Point": "268-269 °C"
    }
}