{
    "cas_no": "50-73-7",
    "key_name": "2,3,5-Trichlorobenzoic acid",
    "cn_name": "2,3,5-三氯苯甲酸;",
    "alternate_name": "Benzoic acid, 2,3,5-trichloro-;2,3,5-Trichlorobenzoic acid",
    "duplicated_cas_no": "",
    "SMILES": "C(O)(=O)C1=C(Cl)C(Cl)=CC(Cl)=C1",
    "meta_data": {
        "InChI": "InChI=1S/C7H3Cl3O2/c8-3-1-4(7(11)12)6(10)5(9)2-3/h1-2H,(H,11,12)",
        "InChIKey": null,
        "Canonical SMILES": "O=C(O)C=1C=C(Cl)C=C(Cl)C1Cl",
        "Molecular Formula": "C<sub>7</sub>H<sub>3</sub>Cl<sub>3</sub>O<sub>2</sub>",
        "Molecular Mass": "225.46",
        "Melting Point": "164 °C"
    }
}