{
    "cas_no": "10192-85-5",
    "key_name": "Potassium acrylate",
    "cn_name": null,
    "alternate_name": "2-Propenoic acid, potassium salt (1:1);Acrylic acid, potassium salt;2-Propenoic acid, potassium salt;Potassium acrylate;Potassium 2-propenoate",
    "duplicated_cas_no": "124740-96-1;124873-50-3;126123-82-8",
    "SMILES": "C(C=C)(O)=O.[K]",
    "meta_data": {
        "InChI": "InChI=1S/C3H4O2.K/c1-2-3(4)5;/h2H,1H2,(H,4,5);",
        "InChIKey": null,
        "Canonical SMILES": "[K].O=C(O)C=C",
        "Molecular Formula": "C<sub>3</sub>H<sub>4</sub>O<sub>2</sub>.K",
        "Molecular Mass": "",
        "Melting Point": "194 °C"
    }
}