{
    "cas_no": "777-52-6",
    "key_name": "4-Nitrophenyl phosphorodichloridate",
    "cn_name": "二氯代磷酸对硝基苯;4-硝基苯二氯化磷;",
    "alternate_name": "Phosphorodichloridic acid, 4-nitrophenyl ester;Phenol, <em>p</em>-nitro-, phosphorodichloridate;4-Nitrophenyl phosphorodichloridate;Phosphorodichloridic acid <em>p</em>-nitrophenyl ester;<em>p</em>-Nitrophenyl dichlorophosphate;<em>p</em>-Nitrophenyl phosphorodichloridate;<em>O</em>-(4-Nitrophenyl) phosphorodichloridate;4-Nitrophenyl dichlorophosphate;Dichloro(<em>p</em>-nitrophenoxy)phosphine oxide;4-Nitrophenyl phosphoryl dichloride;Phenyl phosphodichloridate;1-Dichlorophosphoryloxy-4-nitrobenzene;1-Dichlorophosphoryloxy-4-nitro-benzene;(4-Nitrophenoxy)phosphonoyl dichloride",
    "duplicated_cas_no": "1257440-96-2",
    "SMILES": "O(P(Cl)(Cl)=O)C1=CC=C(N(=O)=O)C=C1",
    "meta_data": {
        "InChI": "InChI=1S/C6H4Cl2NO4P/c7-14(8,12)13-6-3-1-5(2-4-6)9(10)11/h1-4H",
        "InChIKey": null,
        "Canonical SMILES": "O=N(=O)C1=CC=C(OP(=O)(Cl)Cl)C=C1",
        "Molecular Formula": "C<sub>6</sub>H<sub>4</sub>Cl<sub>2</sub>NO<sub>4</sub>P",
        "Molecular Mass": "255.98",
        "Boiling Point": "180 °C @ Press: 10 Torr",
        "Melting Point": "53 °C"
    }
}