{
    "cas_no": "18368-71-3",
    "key_name": "4-Methyl-2-nitropyridine",
    "cn_name": "4-甲基-2-硝基吡啶;",
    "alternate_name": "Pyridine, 4-methyl-2-nitro-;4-Picoline, 2-nitro-;4-Methyl-2-nitropyridine;2-Nitro-4-picoline;NSC 170562",
    "duplicated_cas_no": "",
    "SMILES": "N(=O)(=O)C1=CC(C)=CC=N1",
    "meta_data": {
        "InChI": "InChI=1S/C6H6N2O2/c1-5-2-3-7-6(4-5)8(9)10/h2-4H,1H3",
        "InChIKey": null,
        "Canonical SMILES": "O=N(=O)C1=NC=CC(=C1)C",
        "Molecular Formula": "C<sub>6</sub>H<sub>6</sub>N<sub>2</sub>O<sub>2</sub>",
        "Molecular Mass": "138.12",
        "Melting Point": "61-62 °C"
    }
}