{
    "cas_no": "31685-80-0",
    "key_name": "Methyl (1<em>S</em>,4a<em>R</em>,5<em>S</em>,8a<em>R</em>)-5-[2-(2,5-dihydro-2-oxo-3-furanyl)ethyl]decahydro-1,4a-dimethyl-6-methylene-1-naphthalenecarboxylate",
    "cn_name": null,
    "alternate_name": "1-Naphthalenecarboxylic acid, 5-[2-(2,5-dihydro-2-oxo-3-furanyl)ethyl]decahydro-1,4a-dimethyl-6-methylene-, methyl ester, (1<em>S</em>,4a<em>R</em>,5<em>S</em>,8a<em>R</em>)-;1-Naphthalenecarboxylic acid, 5-[2-(2,5-dihydro-2-oxo-3-furanyl)ethyl]decahydro-1,4a-dimethyl-6-methylene-, methyl ester, [1<em>S</em>-(1α,4aα,5α,8aβ)]-;Labda-8(20),13-diene-16,19-dioic acid, 15-hydroxy-, γ-lactone, methyl ester;Methyl (1<em>S</em>,4a<em>R</em>,5<em>S</em>,8a<em>R</em>)-5-[2-(2,5-dihydro-2-oxo-3-furanyl)ethyl]decahydro-1,4a-dimethyl-6-methylene-1-naphthalenecarboxylate;Pinusolide",
    "duplicated_cas_no": "",
    "SMILES": "C[C@@]12[C@]([C@](C(OC)=O)(C)CCC1)(CCC(=C)[C@@H]2CCC=3C(=O)OCC3)[H]",
    "meta_data": {
        "InChI": "InChI=1S/C21H30O4/c1-14-6-9-17-20(2,11-5-12-21(17,3)19(23)24-4)16(14)8-7-15-10-13-25-18(15)22/h10,16-17H,1,5-9,11-13H2,2-4H3/t16-,17+,20+,21-/m0/s1",
        "InChIKey": null,
        "Canonical SMILES": "O=C1OCC=C1CCC2C(=C)CCC3C(C(=O)OC)(C)CCCC23C",
        "Molecular Formula": "C<sub>21</sub>H<sub>30</sub>O<sub>4</sub>",
        "Molecular Mass": "346.46",
        "Melting Point": "82-84 °C"
    }
}