{
    "cas_no": "36438-97-8",
    "key_name": "1-Methyl-1,2,3,4-tetrahydroquinoxaline",
    "cn_name": null,
    "alternate_name": "Quinoxaline, 1,2,3,4-tetrahydro-1-methyl-;1,2,3,4-Tetrahydro-1-methylquinoxaline;1-Methyl-1,2,3,4-tetrahydroquinoxaline;<em>N</em>-Methylbenzopiperazine",
    "duplicated_cas_no": "",
    "SMILES": "CN1C=2C(NCC1)=CC=CC2",
    "meta_data": {
        "InChI": "InChI=1S/C9H12N2/c1-11-7-6-10-8-4-2-3-5-9(8)11/h2-5,10H,6-7H2,1H3",
        "InChIKey": null,
        "Canonical SMILES": "C=1C=CC2=C(C1)NCCN2C",
        "Molecular Formula": "C<sub>9</sub>H<sub>12</sub>N<sub>2</sub>",
        "Molecular Mass": "148.21",
        "Boiling Point": "163-169 °C @ Press: 21 Torr",
        "Melting Point": "40.5-42 °C"
    }
}