{
    "cas_no": "1124-64-7",
    "key_name": "Butylpyridinium chloride",
    "cn_name": "1-丁基氯化吡啶;N-正丁基氯化吡啶;",
    "alternate_name": "Pyridinium, 1-butyl-, chloride (1:1);Pyridinium, 1-butyl-, chloride;1-Butylpyridinium chloride;Butylpyridinium chloride;<em>N</em>-Butylpyridinium chloride;<em>N</em>-1-Butylpyridinium chloride;<em>N</em>-(<em>n</em>-Butyl)pyridinium chloride;BPCl",
    "duplicated_cas_no": "132086-92-1;53288-72-5",
    "SMILES": "C(CCC)[N+]=1C=CC=CC1.[Cl-]",
    "meta_data": {
        "InChI": "InChI=1S/C9H14N.ClH/c1-2-3-7-10-8-5-4-6-9-10;/h4-6,8-9H,2-3,7H2,1H3;1H/q+1;/p-1",
        "InChIKey": null,
        "Canonical SMILES": "[Cl-].C=1C=C[N+](=CC1)CCCC",
        "Molecular Formula": "C<sub>9</sub>H<sub>14</sub>N.Cl",
        "Molecular Mass": "",
        "Melting Point": "86.4 °C"
    }
}