{
    "cas_no": "7789-24-4",
    "key_name": "Lithium fluoride",
    "cn_name": "氟化锂;",
    "alternate_name": "Lithium fluoride (LiF);Lithium fluoride;TLD 100;Lithium monofluoride;NTL 50;PTL 710;Lithium monofluoride (LiF);NSC 12957;LFDNB",
    "duplicated_cas_no": "12285-65-3;40619-18-9;64975-45-7;2018280-05-0;2103998-61-2;2252328-00-8;2624249-90-5",
    "SMILES": "F[Li]",
    "meta_data": {
        "InChI": "InChI=1S/FH.Li/h1H;/q;+1/p-1",
        "InChIKey": null,
        "Canonical SMILES": "[Li]F",
        "Molecular Formula": "FLi",
        "Molecular Mass": "",
        "Boiling Point": "1681 °C",
        "Melting Point": "848 °C",
        "Density": "2.640 g/cm³ @ Temp: 20 °C"
    }
}