{
    "cas_no": "5089-72-5",
    "key_name": "<em>N</em>-(β-Aminoethyl)-γ-aminopropyltriethoxysilane",
    "cn_name": "N-氨乙基-3-氨丙基三乙氧基硅烷;",
    "alternate_name": "1,2-Ethanediamine, <em>N</em><sup>1</sup>-[3-(triethoxysilyl)propyl]-;Ethylenediamine, <em>N</em>-[3-(triethoxysilyl)propyl]-;1,2-Ethanediamine, <em>N</em>-[3-(triethoxysilyl)propyl]-;<em>N</em><sup>1</sup>-[3-(Triethoxysilyl)propyl]-1,2-ethanediamine;<em>N</em>-(β-Aminoethyl)-γ-aminopropyltriethoxysilane;(γ-Ethylenediaminepropyl)triethoxysilane;<em>N</em>-[3-(Triethoxysilyl)propyl]ethylenediamine;[3-[(2-Aminoethyl)amino]propyl]triethoxysilane;GF 90;<em>N</em>-(2-Aminoethyl)-3-aminopropyltriethoxysilane;γ-(2-Aminoethyl)aminopropyltriethoxysilane;3-(Triethoxysilylpropyl)ethylenediamine;3-(2-Aminoethylamine)propyltriethoxysilane;KBE 603;WD 52;GF 90 (amine);Silquest Y 11763;YDH 791;<em>N</em>-(β-Aminoethyl)-3-aminopropyltriethoxysilane;SH 6026;TM 552;Geniosil GF 94;[γ-(Aminoethylamino)propyl]triethoxysilane;KH 793;TPEDA;<em>N</em><sup>1</sup>-[3-(Triethoxysilyl)propyl]ethane-1,2-diamine;γ-(β-Aminoethyl)aminopropyltriethoxysilane;SIA 0590.5;DB 793;<em>N</em>-(2-Aminoethyl)-γ-aminopropyltriethoxysilane;<em>N</em>-(β-Aminoethyl)aminopropyltriethoxysilane;KH 791;2-Aminoethyl-3-aminopropyl triethoxysilane;<em>N</em>-Aminoethyl-γ-aminopropyl triethoxysilane;<em>N</em>-Aminoethyl-3-aminopropyl triethoxy silane;(Ethylenediaminepropyl)triethoxysilane;3-(Ethylenediamino)propyltriethoxysilane;<em>N</em>-(2-Amionethyl)-3-aminopropyltriethoxysilane;Y 1120",
    "duplicated_cas_no": "66170-43-2;101964-08-3;159778-18-4;2941270-80-8",
    "SMILES": "[Si](CCCNCCN)(OCC)(OCC)OCC",
    "meta_data": {
        "InChI": "InChI=1S/C11H28N2O3Si/c1-4-14-17(15-5-2,16-6-3)11-7-9-13-10-8-12/h13H,4-12H2,1-3H3",
        "InChIKey": null,
        "Canonical SMILES": "O(CC)[Si](OCC)(OCC)CCCNCCN",
        "Molecular Formula": "C<sub>11</sub>H<sub>28</sub>N<sub>2</sub>O<sub>3</sub>Si",
        "Molecular Mass": "264.44",
        "Boiling Point": "156 °C @ Press: 15 Torr",
        "Density": "0.994 g/cm³"
    }
}