{
    "cas_no": "108-75-8",
    "key_name": "2,4,6-Trimethylpyridine",
    "cn_name": "2,4,6-三甲基吡啶;",
    "alternate_name": "Pyridine, 2,4,6-trimethyl-;2,4,6-Trimethylpyridine;<em>s</em>-Collidine;<em>sym</em>-Collidine;α,γ,α′-Collidine;γ-Collidine;2,4,6-Collidine;NSC 460",
    "duplicated_cas_no": "",
    "SMILES": "CC=1C=C(C)N=C(C)C1",
    "meta_data": {
        "InChI": "InChI=1S/C8H11N/c1-6-4-7(2)9-8(3)5-6/h4-5H,1-3H3",
        "InChIKey": null,
        "Canonical SMILES": "N=1C(=CC(=CC1C)C)C",
        "Molecular Formula": "C<sub>8</sub>H<sub>11</sub>N",
        "Molecular Mass": "121.18",
        "Boiling Point": "170.4 °C",
        "Melting Point": "-44.5 °C",
        "Density": "0.913 g/cm³ @ Temp: 20 °C"
    }
}