{
    "cas_no": "204191-43-5",
    "key_name": "3-Amino-4,4-dimethylpentanoic acid",
    "cn_name": null,
    "alternate_name": "Pentanoic acid, 3-amino-4,4-dimethyl-;3-Amino-4,4-dimethylpentanoic acid;(±)-3-Amino-4,4-dimethylpentanoic acid",
    "duplicated_cas_no": "",
    "SMILES": "C(CC(O)=O)(C(C)(C)C)N",
    "meta_data": {
        "InChI": "InChI=1S/C7H15NO2/c1-7(2,3)5(8)4-6(9)10/h5H,4,8H2,1-3H3,(H,9,10)",
        "InChIKey": null,
        "Canonical SMILES": "O=C(O)CC(N)C(C)(C)C",
        "Molecular Formula": "C<sub>7</sub>H<sub>15</sub>NO<sub>2</sub>",
        "Molecular Mass": "145.20",
        "Melting Point": "197-200 °C"
    }
}