{
    "cas_no": "22059-21-8",
    "key_name": "1-Aminocyclopropane-1-carboxylic acid",
    "cn_name": "1-氨基环丙烷羧酸;",
    "alternate_name": "Cyclopropanecarboxylic acid, 1-amino-;1-Aminocyclopropanecarboxylic acid;1-Aminocyclopropane-1-carboxylate;α-Aminocyclopropanecarboxylic acid;1-Aminocyclopropane-1-carboxylic acid;ACC;1-Amino-1-carboxycyclopropane;ACPC;NSC 98430",
    "duplicated_cas_no": "",
    "SMILES": "C(O)(=O)C1(N)CC1",
    "meta_data": {
        "InChI": "InChI=1S/C4H7NO2/c5-4(1-2-4)3(6)7/h1-2,5H2,(H,6,7)",
        "InChIKey": null,
        "Canonical SMILES": "O=C(O)C1(N)CC1",
        "Molecular Formula": "C<sub>4</sub>H<sub>7</sub>NO<sub>2</sub>",
        "Molecular Mass": "101.10",
        "Melting Point": "198-201 °C"
    }
}