{
    "cas_no": "4453-90-1",
    "key_name": "1,4-Dihydro-1,4-methanonaphthalene",
    "cn_name": "1,4-二氢-1,4-甲桥萘;",
    "alternate_name": "1,4-Methanonaphthalene, 1,4-dihydro-;1,4-Dihydro-1,4-methanonaphthalene;Benzonorbornadiene;NSC 120540",
    "duplicated_cas_no": "",
    "SMILES": "C1=2C(C3CC1C=C3)=CC=CC2",
    "meta_data": {
        "InChI": "InChI=1S/C11H10/c1-2-4-11-9-6-5-8(7-9)10(11)3-1/h1-6,8-9H,7H2",
        "InChIKey": null,
        "Canonical SMILES": "C=1C=CC2=C(C1)C3C=CC2C3",
        "Molecular Formula": "C<sub>11</sub>H<sub>10</sub>",
        "Molecular Mass": "142.20",
        "Boiling Point": "82.5-83.0 °C @ Press: 12 Torr"
    }
}