{
    "cas_no": "18982-54-2",
    "key_name": "2-Bromobenzyl alcohol",
    "cn_name": "2-溴苄醇;2-溴苯甲醇;邻溴苄醇;",
    "alternate_name": "Benzenemethanol, 2-bromo-;Benzyl alcohol, <em>o</em>-bromo-;2-Bromobenzenemethanol;<em>o</em>-Bromobenzyl alcohol;2-Bromobenzyl alcohol;1-Bromo-2-(hydroxymethyl)benzene;2-Bromophenylmethanol;2-Hydroxymethyl-1-bromobenzene;2-(Hydroxymethyl)phenyl bromide",
    "duplicated_cas_no": "185532-98-3",
    "SMILES": "C(O)C1=C(Br)C=CC=C1",
    "meta_data": {
        "InChI": "InChI=1S/C7H7BrO/c8-7-4-2-1-3-6(7)5-9/h1-4,9H,5H2",
        "InChIKey": null,
        "Canonical SMILES": "BrC=1C=CC=CC1CO",
        "Molecular Formula": "C<sub>7</sub>H<sub>7</sub>BrO",
        "Molecular Mass": "187.03",
        "Melting Point": "79 °C"
    }
}