{
    "cas_no": "175357-18-3",
    "key_name": "Sepiwhite",
    "cn_name": null,
    "alternate_name": "<span class=\"text-smallcaps\">L</span>-Phenylalanine, <em>N</em>-(1-oxo-10-undecen-1-yl)-;<span class=\"text-smallcaps\">L</span>-Phenylalanine, <em>N</em>-(1-oxo-10-undecenyl)-;<em>N</em>-(1-Oxo-10-undecen-1-yl)-<span class=\"text-smallcaps\">L</span>-phenylalanine;Sepiwhite MSH;Sepiwhite;<em>N</em>-Undecenoyl-<span class=\"text-smallcaps\">L</span>-phenylalanine;Undecylenoylphenylalanine;<em>N</em>-Undecyl-10-enoyl-<span class=\"text-smallcaps\">L</span>-phenylalanine",
    "duplicated_cas_no": "",
    "SMILES": "C([C@H](NC(CCCCCCCCC=C)=O)C(O)=O)C1=CC=CC=C1",
    "meta_data": {
        "InChI": "InChI=1S/C20H29NO3/c1-2-3-4-5-6-7-8-12-15-19(22)21-18(20(23)24)16-17-13-10-9-11-14-17/h2,9-11,13-14,18H,1,3-8,12,15-16H2,(H,21,22)(H,23,24)/t18-/m0/s1",
        "InChIKey": null,
        "Canonical SMILES": "O=C(O)C(NC(=O)CCCCCCCCC=C)CC=1C=CC=CC1",
        "Molecular Formula": "C<sub>20</sub>H<sub>29</sub>NO<sub>3</sub>",
        "Molecular Mass": "331.45",
        "Melting Point": "109-112 °C"
    }
}