{
    "cas_no": "625-01-4",
    "key_name": "Chlorosulfuric acid, ethyl ester",
    "cn_name": "氯磺酸乙酯;",
    "alternate_name": "Chlorosulfuric acid, ethyl ester;Ethyl chlorosulfate;Ethyl chlorosulfonate;Ethoxysulfonyl chloride",
    "duplicated_cas_no": "",
    "SMILES": "O(S(Cl)(=O)=O)CC",
    "meta_data": {
        "InChI": "InChI=1S/C2H5ClO3S/c1-2-6-7(3,4)5/h2H2,1H3",
        "InChIKey": null,
        "Canonical SMILES": "O=S(=O)(Cl)OCC",
        "Molecular Formula": "C<sub>2</sub>H<sub>5</sub>ClO<sub>3</sub>S",
        "Molecular Mass": "144.58",
        "Boiling Point": "152.5 °C",
        "Density": "1.35 g/cm³ @ Temp: 25 °C"
    }
}