{
    "cas_no": "372-39-4",
    "key_name": "3,5-Difluoroaniline",
    "cn_name": "3,5-二氟苯胺;",
    "alternate_name": "Benzenamine, 3,5-difluoro-;Aniline, 3,5-difluoro-;3,5-Difluorobenzenamine;3,5-Difluoroaniline;3,5-Difluoronitroaniline;3,5-Difluorophenylamine;NSC 81289;3,5-Fluoroaniline",
    "duplicated_cas_no": "",
    "SMILES": "FC1=CC(F)=CC(N)=C1",
    "meta_data": {
        "InChI": "InChI=1S/C6H5F2N/c7-4-1-5(8)3-6(9)2-4/h1-3H,9H2",
        "InChIKey": null,
        "Canonical SMILES": "FC=1C=C(F)C=C(N)C1",
        "Molecular Formula": "C<sub>6</sub>H<sub>5</sub>F<sub>2</sub>N",
        "Molecular Mass": "129.11",
        "Melting Point": "39-40 °C"
    }
}