{
    "cas_no": "1825-58-7",
    "key_name": "(Ethoxydimethylsilyl)benzene",
    "cn_name": "苯基二甲基乙氧基硅;",
    "alternate_name": "Benzene, (ethoxydimethylsilyl)-;Silane, ethoxydimethylphenyl-;(Ethoxydimethylsilyl)benzene;Ethoxydimethylphenylsilane;Phenyldimethylethoxysilane;NSC 96880;Dimethylethoxyphenylsilane;LS 3300",
    "duplicated_cas_no": "",
    "SMILES": "[Si](OCC)(C)(C)C1=CC=CC=C1",
    "meta_data": {
        "InChI": "InChI=1S/C10H16OSi/c1-4-11-12(2,3)10-8-6-5-7-9-10/h5-9H,4H2,1-3H3",
        "InChIKey": null,
        "Canonical SMILES": "O(CC)[Si](C=1C=CC=CC1)(C)C",
        "Molecular Formula": "C<sub>10</sub>H<sub>16</sub>OSi",
        "Molecular Mass": "180.32",
        "Boiling Point": "93 °C @ Press: 25 Torr",
        "Density": "0.926 g/cm³"
    }
}