{
    "cas_no": "78-50-2",
    "key_name": "Trioctylphosphine oxide",
    "cn_name": "三正辛基氧膦;",
    "alternate_name": "Phosphine oxide, trioctyl-;Trioctylphosphine oxide;TOPO;Tri-<em>n</em>-octylphosphine oxide;Hostarex PX 324;Cyanex 921;1-Dioctylphosphoryloctane;1-(Dioctylphosphoryl)octane",
    "duplicated_cas_no": "129406-23-1",
    "SMILES": "P(CCCCCCCC)(CCCCCCCC)(CCCCCCCC)=O",
    "meta_data": {
        "InChI": "InChI=1S/C24H51OP/c1-4-7-10-13-16-19-22-26(25,23-20-17-14-11-8-5-2)24-21-18-15-12-9-6-3/h4-24H2,1-3H3",
        "InChIKey": null,
        "Canonical SMILES": "O=P(CCCCCCCC)(CCCCCCCC)CCCCCCCC",
        "Molecular Formula": "C<sub>24</sub>H<sub>51</sub>OP",
        "Molecular Mass": "386.63",
        "Boiling Point": "180-205 °C @ Press: 1 Torr",
        "Melting Point": "48-54 °C",
        "Density": "0.831 g/cm³ (liquid)"
    }
}