{
    "cas_no": "86639-52-3",
    "key_name": "7-Ethyl-10-hydroxycamptothecin",
    "cn_name": "7-乙基-10-羟基喜树碱;",
    "alternate_name": "1<em>H</em>-Pyrano[3′,4′:6,7]indolizino[1,2-<em>b</em>]quinoline-3,14(4<em>H</em>,12<em>H</em>)-dione, 4,11-diethyl-4,9-dihydroxy-, (4<em>S</em>)-;1<em>H</em>-Pyrano[3′,4′:6,7]indolizino[1,2-<em>b</em>]quinoline-3,14(4<em>H</em>,12<em>H</em>)-dione, 4,11-diethyl-4,9-dihydroxy-, (<em>S</em>)-;(4<em>S</em>)-4,11-Diethyl-4,9-dihydroxy-1<em>H</em>-pyrano[3′,4′:6,7]indolizino[1,2-<em>b</em>]quinoline-3,14(4<em>H</em>,12<em>H</em>)-dione;7-Ethyl-10-hydroxycamptothecin;SN 38 (pharmaceutical);SN 38;10-Hydroxy-7-ethylcamptothecin;7-Ethyl-10-hydroxy-20(<em>S</em>)-camptothecin;SN 38 lactone;(<em>S</em>)-SN 38;(19S)-10,19-Diethyl-7,19-dihydroxy-17-oxa-3,13-diazapentacyclo[11.8.0.0[2,11].0[4,9].0[15,20]]henicosa-1(21),2(11),3,5,7,9,15(20)-heptaene-14,18-dione",
    "duplicated_cas_no": "113015-38-6",
    "SMILES": "C(C)C1=C2C(C=3N(C2)C(=O)C4=C(C3)[C@](CC)(O)C(=O)OC4)=NC=5C1=CC(O)=CC5",
    "meta_data": {
        "InChI": "InChI=1S/C22H20N2O5/c1-3-12-13-7-11(25)5-6-17(13)23-19-14(12)9-24-18(19)8-16-15(20(24)26)10-29-21(27)22(16,28)4-2/h5-8,25,28H,3-4,9-10H2,1-2H3/t22-/m0/s1",
        "InChIKey": null,
        "Canonical SMILES": "O=C1OCC=2C(=O)N3C(=CC2C1(O)CC)C=4N=C5C=CC(O)=CC5=C(C4C3)CC",
        "Molecular Formula": "C<sub>22</sub>H<sub>20</sub>N<sub>2</sub>O<sub>5</sub>",
        "Molecular Mass": "392.40",
        "Melting Point": "226.7-228.1 °C"
    }
}