{
    "cas_no": "661-54-1",
    "key_name": "3,3,3-Trifluoropropyne",
    "cn_name": "3,3,3-三氟-1-丙炔;",
    "alternate_name": "1-Propyne, 3,3,3-trifluoro-;Propyne, 3,3,3-trifluoro-;3,3,3-Trifluoro-1-propyne;3,3,3-Trifluoropropyne;(Trifluoromethyl)acetylene;1,1,1-Trifluoropropyne;1,1,1-Trifluoro-2-propyne;Trifluoromethylethyne;TFP",
    "duplicated_cas_no": "",
    "SMILES": "C(C#C)(F)(F)F",
    "meta_data": {
        "InChI": "InChI=1S/C3HF3/c1-2-3(4,5)6/h1H",
        "InChIKey": null,
        "Canonical SMILES": "FC(F)(F)C#C",
        "Molecular Formula": "C<sub>3</sub>HF<sub>3</sub>",
        "Molecular Mass": "94.04",
        "Boiling Point": "-48 °C"
    }
}