{
    "cas_no": "130198-05-9",
    "key_name": "Cyclohexanol, 1-[2-amino-1-(4-methoxyphenyl)ethyl]-, hydrochloride (1:1)",
    "cn_name": "1-[2-氨基-1-(4-甲氧基苯基)乙基]环己醇盐酸盐;",
    "alternate_name": "Cyclohexanol, 1-[2-amino-1-(4-methoxyphenyl)ethyl]-, hydrochloride (1:1);Cyclohexanol, 1-[2-amino-1-(4-methoxyphenyl)ethyl]-, hydrochloride, (±)-;Cyclohexanol, 1-[2-amino-1-(4-methoxyphenyl)ethyl]-, hydrochloride;1-[2-Amino-1-(4-methoxyphenyl)ethyl]cyclohexanol hydrochloride;<em>N</em>,<em>N</em>-Didesmethylvenlafaxine hydrochloride;1-[2-Amino-1-(<em>p</em>-methoxyphenyl)ethyl]cyclohexanol hydrochloride",
    "duplicated_cas_no": "",
    "SMILES": "C(CN)(C1(O)CCCCC1)C2=CC=C(OC)C=C2.Cl",
    "meta_data": {
        "InChI": "InChI=1S/C15H23NO2.ClH/c1-18-13-7-5-12(6-8-13)14(11-16)15(17)9-3-2-4-10-15;/h5-8,14,17H,2-4,9-11,16H2,1H3;1H",
        "InChIKey": null,
        "Canonical SMILES": "Cl.OC1(CCCCC1)C(C2=CC=C(OC)C=C2)CN",
        "Molecular Formula": "C<sub>15</sub>H<sub>23</sub>NO<sub>2</sub>.ClH",
        "Molecular Mass": "",
        "Melting Point": "168-172 °C"
    }
}