{
    "cas_no": "55687-02-0",
    "key_name": "6-Bromo-2-chloroquinoxaline",
    "cn_name": "6-溴-2-氯喹恶啉;",
    "alternate_name": "Quinoxaline, 6-bromo-2-chloro-;6-Bromo-2-chloroquinoxaline;2-Chloro-6-bromoquinoxaline",
    "duplicated_cas_no": "",
    "SMILES": "BrC1=CC2=C(N=C(Cl)C=N2)C=C1",
    "meta_data": {
        "InChI": "InChI=1S/C8H4BrClN2/c9-5-1-2-6-7(3-5)11-4-8(10)12-6/h1-4H",
        "InChIKey": null,
        "Canonical SMILES": "ClC1=NC2=CC=C(Br)C=C2N=C1",
        "Molecular Formula": "C<sub>8</sub>H<sub>4</sub>BrClN<sub>2</sub>",
        "Molecular Mass": "243.49",
        "Melting Point": "150-152.5 °C"
    }
}