{
    "cas_no": "17193-28-1",
    "key_name": "1-Aminocyclopentanecarboxamide",
    "cn_name": null,
    "alternate_name": "Cyclopentanecarboxamide, 1-amino-;1-Aminocyclopentanecarboxamide;α-Aminocyclopentanamide;1-Amino-1-cyclopentanecarboxamide",
    "duplicated_cas_no": "",
    "SMILES": "C(N)(=O)C1(N)CCCC1",
    "meta_data": {
        "InChI": "InChI=1S/C6H12N2O/c7-5(9)6(8)3-1-2-4-6/h1-4,8H2,(H2,7,9)",
        "InChIKey": null,
        "Canonical SMILES": "O=C(N)C1(N)CCCC1",
        "Molecular Formula": "C<sub>6</sub>H<sub>12</sub>N<sub>2</sub>O",
        "Molecular Mass": "128.17",
        "Melting Point": "95-96 °C"
    }
}