{
    "cas_no": "13419-69-7",
    "key_name": "<em>trans</em>-2-Hexenoic acid",
    "cn_name": "反式-2-己烯酸;(E)-2-己烯酸;2-己烯酸反式;",
    "alternate_name": "2-Hexenoic acid, (2<em>E</em>)-;2-Hexenoic acid, (<em>E</em>)-;(2<em>E</em>)-2-Hexenoic acid;<em>trans</em>-2-Hexenoic acid;(<em>E</em>)-2-Hexenoic acid",
    "duplicated_cas_no": "",
    "SMILES": "C(=C/CCC)\\C(O)=O",
    "meta_data": {
        "InChI": "InChI=1S/C6H10O2/c1-2-3-4-5-6(7)8/h4-5H,2-3H2,1H3,(H,7,8)/b5-4+",
        "InChIKey": null,
        "Canonical SMILES": "O=C(O)C=CCCC",
        "Molecular Formula": "C<sub>6</sub>H<sub>10</sub>O<sub>2</sub>",
        "Molecular Mass": "114.14",
        "Boiling Point": "98-102 °C @ Press: 8 Torr",
        "Melting Point": "30-32 °C",
        "Density": "0.946945 g/cm³ @ Temp: 20 °C"
    }
}