{
    "cas_no": "469-59-0",
    "key_name": "Jervine",
    "cn_name": null,
    "alternate_name": "Spiro[9<em>H</em>-benzo[<em>a</em>]fluorene-9,2′(3′<em>H</em>)-furo[3,2-<em>b</em>]pyridin]-11(1<em>H</em>)-one, 2,3,3′a,4,4′,5′,6,6′,6a,6b,7,7′,7′a,8,11a,11b-hexadecahydro-3-hydroxy-3′,6′,10,11b-tetramethyl-, (2′<em>R</em>,3<em>S</em>,3′<em>R</em>,3′a<em>S</em>,6′<em>S</em>,6a<em>S</em>,6b<em>S</em>,7′a<em>R</em>,11a<em>S</em>,11b<em>R</em>)-;Jervine;Veratraman-11-one, 17,23-epoxy-3-hydroxy-, (3β,23β)-;(2′<em>R</em>,3<em>S</em>,3′<em>R</em>,3′a<em>S</em>,6′<em>S</em>,6a<em>S</em>,6b<em>S</em>,7′a<em>R</em>,11a<em>S</em>,11b<em>R</em>)-2,3,3′a,4,4′,5′,6,6′,6a,6b,7,7′,7′a,8,11a,11b-Hexadecahydro-3-hydroxy-3′,6′,10,11b-tetramethylspiro[9<em>H</em>-benzo[<em>a</em>]fluorene-9,2′(3′<em>H</em>)-furo[3,2-<em>b</em>]pyridin]-11(1<em>H</em>)-one;Jervin;Spiro[9<em>H</em>-benzo[<em>a</em>]fluorene-9,2′(3′<em>H</em>)-furo[3,2-<em>b</em>]pyridin]-11(1<em>H</em>)-one, 2,3,3′a,4,4′,5′,6,6′,6a,6b,7,7′,7′a,8,11a,11b-hexadecahydro-3-hydroxy-3′,6′,10,11b-tetramethyl-, [3<em>S</em>-(3α,6aα,6bβ,9α(3′<em>S</em>*,3′a<em>R</em>*,6′<em>R</em>*,7′a<em>S</em>*),11aβ,11bα)]-;NSC 23898;NSC 7520",
    "duplicated_cas_no": "30937-13-4",
    "SMILES": "CC=1[C@@]2(O[C@]3([C@]([C@H]2C)(NC[C@@H](C)C3)[H])[H])CC[C@@]4(C1C(=O)[C@]5([C@]4(CC=C6[C@]5(C)CC[C@H](O)C6)[H])[H])[H]",
    "meta_data": {
        "InChI": "InChI=1S/C27H39NO3/c1-14-11-21-24(28-13-14)16(3)27(31-21)10-8-19-20-6-5-17-12-18(29)7-9-26(17,4)23(20)25(30)22(19)15(27)2/h5,14,16,18-21,23-24,28-29H,6-13H2,1-4H3/t14-,16+,18-,19-,20-,21+,23+,24-,26-,27-/m0/s1",
        "InChIKey": null,
        "Canonical SMILES": "O=C1C2=C(C)C3(OC4CC(C)CNC4C3C)CCC2C5CC=C6CC(O)CCC6(C)C15",
        "Molecular Formula": "C<sub>27</sub>H<sub>39</sub>NO<sub>3</sub>",
        "Molecular Mass": "425.60",
        "Melting Point": "243.5-244.5 °C"
    }
}