{
    "cas_no": "61546-00-7",
    "key_name": "1-Dodecyl-3-methylimidazolium bromide",
    "cn_name": null,
    "alternate_name": "1<em>H</em>-Imidazolium, 3-dodecyl-1-methyl-, bromide (1:1);1<em>H</em>-Imidazolium, 1-dodecyl-3-methyl-, bromide;3-Dodecyl-1-methylimidazolium bromide;1-Dodecyl-3-methyl-1<em>H</em>-imidazolium bromide;1-Dodecyl-3-methylimidazolium bromide;1-Methyl-3-dodecylimidazolium bromide;1-Lauryl-3-methylimidazolium bromide;1-Dodecyl-3-methylimidazole bromide",
    "duplicated_cas_no": "1242086-18-5",
    "SMILES": "C(CCCCCCCCCCC)[N+]1=CN(C)C=C1.[Br-]",
    "meta_data": {
        "InChI": "InChI=1S/C16H31N2.BrH/c1-3-4-5-6-7-8-9-10-11-12-13-18-15-14-17(2)16-18;/h14-16H,3-13H2,1-2H3;1H/q+1;/p-1",
        "InChIKey": null,
        "Canonical SMILES": "[Br-].C1=C[N+](=CN1C)CCCCCCCCCCCC",
        "Molecular Formula": "C<sub>16</sub>H<sub>31</sub>N<sub>2</sub>.Br",
        "Molecular Mass": "",
        "Melting Point": "39.7 °C"
    }
}