{
    "cas_no": "7759-01-5",
    "key_name": "Lead tungsten oxide (PbWO<sub>4</sub>)",
    "cn_name": null,
    "alternate_name": "Lead tungsten oxide (PbWO<sub>4</sub>);Tungstic acid (H<sub>2</sub>WO<sub>4</sub>), lead(2+) salt (1:1);Lead tungstate(VI) (PbWO<sub>4</sub>);C.I. 77650;Lead tungstate (PbWO<sub>4</sub>);Tungstic acid (H<sub>2</sub>WO<sub>4</sub>), lead salt;Plumbous tungstate",
    "duplicated_cas_no": "14105-08-9;14307-44-9;26006-62-2;52014-33-2;168456-68-6;189829-60-5;1450900-87-4;2437245-44-6",
    "SMILES": "",
    "meta_data": {
        "InChI": "",
        "InChIKey": null,
        "Canonical SMILES": "",
        "Molecular Formula": "O<sub>4</sub>PbW",
        "Molecular Mass": "",
        "Melting Point": "1130 °C",
        "Density": "8.235 g/cm³"
    }
}