{
    "uri": "substance/pt/7759015",
    "rn": "7759-01-5",
    "name": "Lead tungsten oxide (PbWO<sub>4</sub>)",
    "images": [],
    "inchi": "",
    "inchiKey": "",
    "smile": "",
    "canonicalSmile": "",
    "molecularFormula": "O<sub>4</sub>PbW",
    "molecularMass": "",
    "experimentalProperties": [
        {
            "name": "Melting Point",
            "property": "1130 °C",
            "sourceNumber": 1
        },
        {
            "name": "Density",
            "property": "8.235 g/cm³",
            "sourceNumber": 1
        }
    ],
    "propertyCitations": [
        {
            "docUri": "",
            "sourceNumber": 1,
            "source": "Hazardous Substances Data Bank data were obtained from the National Library of Medicine (US)"
        }
    ],
    "synonyms": [
        "Lead tungsten oxide (PbWO<sub>4</sub>)",
        "Tungstic acid (H<sub>2</sub>WO<sub>4</sub>), lead(2+) salt (1:1)",
        "Lead tungstate(VI) (PbWO<sub>4</sub>)",
        "C.I. 77650",
        "Lead tungstate (PbWO<sub>4</sub>)",
        "Tungstic acid (H<sub>2</sub>WO<sub>4</sub>), lead salt",
        "Plumbous tungstate"
    ],
    "replacedRns": [
        "14105-08-9",
        "14307-44-9",
        "26006-62-2",
        "52014-33-2",
        "168456-68-6",
        "189829-60-5",
        "1450900-87-4",
        "2437245-44-6"
    ],
    "hasMolfile": false,
    "source": "https://commonchemistry.cas.org/detail?cas_rn=7759-01-5"
}