{
    "cas_no": "56961-76-3",
    "key_name": "3,4,5-Trichlorobenzaldehyde",
    "cn_name": null,
    "alternate_name": "Benzaldehyde, 3,4,5-trichloro-;3,4,5-Trichlorobenzaldehyde",
    "duplicated_cas_no": "",
    "SMILES": "C(=O)C1=CC(Cl)=C(Cl)C(Cl)=C1",
    "meta_data": {
        "InChI": "InChI=1S/C7H3Cl3O/c8-5-1-4(3-11)2-6(9)7(5)10/h1-3H",
        "InChIKey": null,
        "Canonical SMILES": "O=CC1=CC(Cl)=C(Cl)C(Cl)=C1",
        "Molecular Formula": "C<sub>7</sub>H<sub>3</sub>Cl<sub>3</sub>O",
        "Molecular Mass": "209.46",
        "Melting Point": "90-91 °C"
    }
}