{
    "cas_no": "16475-90-4",
    "key_name": "Benzoic acid, 5-acetyl-2-hydroxy-, methyl ester",
    "cn_name": "5-乙酰水杨酸甲酯;",
    "alternate_name": "Benzoic acid, 5-acetyl-2-hydroxy-, methyl ester;Salicylic acid, 5-acetyl-, methyl ester;Methyl 5-acetylsalicylate;Methyl 3-acetyl-6-hydroxybenzoate;Methyl 5-acetyl-2-hydroxybenzoate;5-Acetyl-2-hydroxybenzoic acid methyl ester;Methyl 2-hydroxy-5-acetylbenzoate;NSC 67867;5-Acetylsalicylic acid methyl ester",
    "duplicated_cas_no": "",
    "SMILES": "C(OC)(=O)C1=CC(C(C)=O)=CC=C1O",
    "meta_data": {
        "InChI": "InChI=1S/C10H10O4/c1-6(11)7-3-4-9(12)8(5-7)10(13)14-2/h3-5,12H,1-2H3",
        "InChIKey": null,
        "Canonical SMILES": "O=C(OC)C1=CC(=CC=C1O)C(=O)C",
        "Molecular Formula": "C<sub>10</sub>H<sub>10</sub>O<sub>4</sub>",
        "Molecular Mass": "194.18",
        "Melting Point": "55 °C"
    }
}