{
    "cas_no": "483-84-1",
    "key_name": "Flavianic acid",
    "cn_name": "黄胺酸;",
    "alternate_name": "2-Naphthalenesulfonic acid, 8-hydroxy-5,7-dinitro-;Flavianic acid;8-Hydroxy-5,7-dinitro-2-naphthalenesulfonic acid;2,4-Dinitro-1-naphthol-7-sulfonic acid;DNNS;NSC 243753;NSC 244041",
    "duplicated_cas_no": "861021-84-3",
    "SMILES": "N(=O)(=O)C=1C2=C(C(O)=C(N(=O)=O)C1)C=C(S(=O)(=O)O)C=C2",
    "meta_data": {
        "InChI": "InChI=1S/C10H6N2O8S/c13-10-7-3-5(21(18,19)20)1-2-6(7)8(11(14)15)4-9(10)12(16)17/h1-4,13H,(H,18,19,20)",
        "InChIKey": null,
        "Canonical SMILES": "O=N(=O)C=1C=C(C2=CC=C(C=C2C1O)S(=O)(=O)O)N(=O)=O",
        "Molecular Formula": "C<sub>10</sub>H<sub>6</sub>N<sub>2</sub>O<sub>8</sub>S",
        "Molecular Mass": "314.23",
        "Melting Point": "150 °C"
    }
}