{
    "cas_no": "16881-33-7",
    "key_name": "<em>N</em>-[(Phenylmethoxy)carbonyl]-<span class=\"text-smallcaps\">L</span>-tyrosine 1,1-dimethylethyl ester",
    "cn_name": null,
    "alternate_name": "<span class=\"text-smallcaps\">L</span>-Tyrosine, <em>N</em>-[(phenylmethoxy)carbonyl]-, 1,1-dimethylethyl ester;Tyrosine, <em>N</em>-carboxy-, <em>N</em>-benzyl <em>tert</em>-butyl ester, <span class=\"text-smallcaps\">L</span>-;<em>N</em>-[(Phenylmethoxy)carbonyl]-<span class=\"text-smallcaps\">L</span>-tyrosine 1,1-dimethylethyl ester;<em>N</em>-(Benzyloxycarbonyl)-<span class=\"text-smallcaps\">L</span>-tyrosine <em>tert</em>-butyl ester;<em>N</em>-(Benzyloxycarbonyl)tyrosine <em>tert</em>-butyl ester;(<em>S</em>)-<em>tert</em>-Butyl 2-(((benzyloxy)carbonyl)amino)-3-(4-hydroxyphenyl)propanoate;<em>tert</em>-Butyl (<em>S</em>)-2-[[(benzyloxy)carbonyl]amino]-3-(4-hydroxyphenyl)propanoate",
    "duplicated_cas_no": "",
    "SMILES": "[C@@H](CC1=CC=C(O)C=C1)(NC(OCC2=CC=CC=C2)=O)C(OC(C)(C)C)=O",
    "meta_data": {
        "InChI": "InChI=1S/C21H25NO5/c1-21(2,3)27-19(24)18(13-15-9-11-17(23)12-10-15)22-20(25)26-14-16-7-5-4-6-8-16/h4-12,18,23H,13-14H2,1-3H3,(H,22,25)/t18-/m0/s1",
        "InChIKey": null,
        "Canonical SMILES": "O=C(OCC=1C=CC=CC1)NC(C(=O)OC(C)(C)C)CC2=CC=C(O)C=C2",
        "Molecular Formula": "C<sub>21</sub>H<sub>25</sub>NO<sub>5</sub>",
        "Molecular Mass": "371.43",
        "Melting Point": "86-88 °C"
    }
}