{
    "cas_no": "1530-32-1",
    "key_name": "Ethyltriphenylphosphonium bromide",
    "cn_name": "乙基三苯基溴化膦;",
    "alternate_name": "Phosphonium, ethyltriphenyl-, bromide (1:1);Phosphonium, ethyltriphenyl-, bromide;Ethyltriphenylphosphonium bromide;Triphenylethylphosphonium bromide;TEP;TEP (onium compound);SA 242",
    "duplicated_cas_no": "154489-89-1;1091590-86-1;2069974-11-2",
    "SMILES": "[P+](CC)(C1=CC=CC=C1)(C2=CC=CC=C2)C3=CC=CC=C3.[Br-]",
    "meta_data": {
        "InChI": "InChI=1S/C20H20P.BrH/c1-2-21(18-12-6-3-7-13-18,19-14-8-4-9-15-19)20-16-10-5-11-17-20;/h3-17H,2H2,1H3;1H/q+1;/p-1",
        "InChIKey": null,
        "Canonical SMILES": "[Br-].C=1C=CC(=CC1)[P+](C=2C=CC=CC2)(C=3C=CC=CC3)CC",
        "Molecular Formula": "C<sub>20</sub>H<sub>20</sub>P.Br",
        "Molecular Mass": "",
        "Melting Point": "198-201 °C"
    }
}