{
    "cas_no": "307538-42-7",
    "key_name": "SMER 28",
    "cn_name": null,
    "alternate_name": "4-Quinazolinamine, 6-bromo-<em>N</em>-2-propen-1-yl-;4-Quinazolinamine, 6-bromo-<em>N</em>-2-propenyl-;6-Bromo-<em>N</em>-2-propen-1-yl-4-quinazolinamine;SMER 28",
    "duplicated_cas_no": "",
    "SMILES": "N(CC=C)C=1C2=C(C=CC(Br)=C2)N=CN1",
    "meta_data": {
        "InChI": "InChI=1S/C11H10BrN3/c1-2-5-13-11-9-6-8(12)3-4-10(9)14-7-15-11/h2-4,6-7H,1,5H2,(H,13,14,15)",
        "InChIKey": null,
        "Canonical SMILES": "BrC=1C=CC2=NC=NC(NCC=C)=C2C1",
        "Molecular Formula": "C<sub>11</sub>H<sub>10</sub>BrN<sub>3</sub>",
        "Molecular Mass": "264.12",
        "Melting Point": "171-173 °C"
    }
}