{
    "cas_no": "55881-96-4",
    "key_name": "Decahydro-2-hydroxy-2,5,5,8a-tetramethyl-1-naphthaleneethanol",
    "cn_name": null,
    "alternate_name": "1-Naphthaleneethanol, decahydro-2-hydroxy-2,5,5,8a-tetramethyl-;Decahydro-2-hydroxy-2,5,5,8a-tetramethyl-1-naphthaleneethanol;1-(2-Hydroxyethyl)-2,5,5,8a-tetramethyldecahydronaphthalen-2-ol;1-(2-Hydroxyethyl)-2,5,5,8a-tetramethyl-3,4,4a,6,7,8-hexahydro-1<em>H</em>-naphthalen-2-ol",
    "duplicated_cas_no": "104235-52-1",
    "SMILES": "CC12C(CCC(C)(O)C1CCO)C(C)(C)CCC2",
    "meta_data": {
        "InChI": "InChI=1S/C16H30O2/c1-14(2)8-5-9-15(3)12(14)6-10-16(4,18)13(15)7-11-17/h12-13,17-18H,5-11H2,1-4H3",
        "InChIKey": null,
        "Canonical SMILES": "OCCC1C(O)(C)CCC2C(C)(C)CCCC12C",
        "Molecular Formula": "C<sub>16</sub>H<sub>30</sub>O<sub>2</sub>",
        "Molecular Mass": "254.41",
        "Melting Point": "131-132 °C"
    }
}