{
    "cas_no": "55489-15-1",
    "key_name": "5-Ethoxy-2-mercaptobenzimidazole",
    "cn_name": "5-乙氧基-2-巯基苯并咪唑;5-乙氧基-2-苯并巯基咪唑;",
    "alternate_name": "2<em>H</em>-Benzimidazole-2-thione, 5-ethoxy-1,3-dihydro-;5-Ethoxy-1,3-dihydro-2<em>H</em>-benzimidazole-2-thione;5-Ethoxy-2-mercaptobenzimidazole;5-Ethoxy-1<em>H</em>-benzimidazole-2-thiol;5-Ethoxybenzimidazole-2-thiol;2-Mercapto-5-ethoxybenzimidazole",
    "duplicated_cas_no": "",
    "SMILES": "S=C1NC=2C(=CC(OCC)=CC2)N1",
    "meta_data": {
        "InChI": "InChI=1S/C9H10N2OS/c1-2-12-6-3-4-7-8(5-6)11-9(13)10-7/h3-5H,2H2,1H3,(H2,10,11,13)",
        "InChIKey": null,
        "Canonical SMILES": "S=C1NC2=CC=C(OCC)C=C2N1",
        "Molecular Formula": "C<sub>9</sub>H<sub>10</sub>N<sub>2</sub>OS",
        "Molecular Mass": "194.25",
        "Melting Point": "244 °C"
    }
}