{
    "cas_no": "81403-68-1",
    "key_name": "Alfuzosin hydrochloride",
    "cn_name": "盐酸阿夫唑嗪;N-[3-[(4-氨基-6,7-二甲氧基-2-喹唑啉基)甲基氨基]丙基]四氢-2-呋喃甲酰胺盐酸盐;",
    "alternate_name": "2-Furancarboxamide, <em>N</em>-[3-[(4-amino-6,7-dimethoxy-2-quinazolinyl)methylamino]propyl]tetrahydro-, hydrochloride (1:1);2-Furancarboxamide, <em>N</em>-[3-[(4-amino-6,7-dimethoxy-2-quinazolinyl)methylamino]propyl]tetrahydro-, monohydrochloride;Alfuzosin hydrochloride;Xatral;Urion;SL 77499-10;Alfoten;SL 77-499-10;Uroxatral",
    "duplicated_cas_no": "133880-44-1",
    "SMILES": "NC=1C2=C(N=C(N(CCCNC(=O)C3CCCO3)C)N1)C=C(OC)C(OC)=C2.Cl",
    "meta_data": {
        "InChI": "InChI=1S/C19H27N5O4.ClH/c1-24(8-5-7-21-18(25)14-6-4-9-28-14)19-22-13-11-16(27-3)15(26-2)10-12(13)17(20)23-19;/h10-11,14H,4-9H2,1-3H3,(H,21,25)(H2,20,22,23);1H",
        "InChIKey": null,
        "Canonical SMILES": "Cl.O=C(NCCCN(C=1N=C(N)C=2C=C(OC)C(OC)=CC2N1)C)C3OCCC3",
        "Molecular Formula": "C<sub>19</sub>H<sub>27</sub>N<sub>5</sub>O<sub>4</sub>.ClH",
        "Molecular Mass": "",
        "Melting Point": "225 °C"
    }
}