{
    "cas_no": "22884-95-3",
    "key_name": "3,4-Dimethylbenzonitrile",
    "cn_name": "3,4-二甲基苯腈;3,4-二甲基苯甲腈;",
    "alternate_name": "Benzonitrile, 3,4-dimethyl-;3,4-Dimethylbenzonitrile;1,2-Dimethyl-4-cyanobenzene",
    "duplicated_cas_no": "",
    "SMILES": "C(#N)C1=CC(C)=C(C)C=C1",
    "meta_data": {
        "InChI": "InChI=1S/C9H9N/c1-7-3-4-9(6-10)5-8(7)2/h3-5H,1-2H3",
        "InChIKey": null,
        "Canonical SMILES": "N#CC1=CC=C(C(=C1)C)C",
        "Molecular Formula": "C<sub>9</sub>H<sub>9</sub>N",
        "Molecular Mass": "131.17",
        "Boiling Point": "118-122 °C @ Press: 15 Torr",
        "Melting Point": "69-69.5 °C"
    }
}