{
    "cas_no": "304-20-1",
    "key_name": "Hydralazine hydrochloride",
    "cn_name": "盐酸肼屈嗪;1-肼基-2,3-二氮杂萘盐酸盐;",
    "alternate_name": "Phthalazine, 1-hydrazinyl-, hydrochloride (1:1);Phthalazine, 1-hydrazino-, monohydrochloride;1(2<em>H</em>)-Phthalazinone, hydrazone, monohydrochloride;Apresoline hydrochloride;Hydralazine hydrochloride;Hydralazine monohydrochloride;1-Hydrazinophthalazine hydrochloride;1-Hydrazinophthalazine monohydrochloride;Hydralazine chloride;Lopres;(Phthalazin-1-yl)hydrazine hydrochloride;Apulon;1-Hydrazinylphthalazine hydrochloride",
    "duplicated_cas_no": "40671-54-3;1202866-95-2",
    "SMILES": "N(N)=C1C=2C(C=NN1)=CC=CC2.Cl",
    "meta_data": {
        "InChI": "InChI=1S/C8H8N4.ClH/c9-11-8-7-4-2-1-3-6(7)5-10-12-8;/h1-5H,9H2,(H,11,12);1H",
        "InChIKey": null,
        "Canonical SMILES": "Cl.N1=CC=2C=CC=CC2C(=NN)N1",
        "Molecular Formula": "C<sub>8</sub>H<sub>8</sub>N<sub>4</sub>.ClH",
        "Molecular Mass": "",
        "Melting Point": "273 °C (decomp)"
    }
}