{
    "cas_no": "344-62-7",
    "key_name": "<em>N</em>-[2-(Trifluoromethyl)phenyl]acetamide",
    "cn_name": "2-(三氟甲基)乙酰苯胺;",
    "alternate_name": "Acetamide, <em>N</em>-[2-(trifluoromethyl)phenyl]-;<em>o</em>-Acetotoluidide, α,α,α-trifluoro-;<em>N</em>-[2-(Trifluoromethyl)phenyl]acetamide;2′-(Trifluoromethyl)acetanilide;α,α,α-Trifluoro-<em>o</em>-acetotoluidide;NSC 88329;2-Trifluoromethylacetanilide;<em>o</em>-Trifluoromethylpropionanilide;2-Acetamidotrifluoromethylbenzene",
    "duplicated_cas_no": "",
    "SMILES": "C(F)(F)(F)C1=C(NC(C)=O)C=CC=C1",
    "meta_data": {
        "InChI": "InChI=1S/C9H8F3NO/c1-6(14)13-8-5-3-2-4-7(8)9(10,11)12/h2-5H,1H3,(H,13,14)",
        "InChIKey": null,
        "Canonical SMILES": "O=C(NC=1C=CC=CC1C(F)(F)F)C",
        "Molecular Formula": "C<sub>9</sub>H<sub>8</sub>F<sub>3</sub>NO",
        "Molecular Mass": "203.16",
        "Melting Point": "96 °C"
    }
}