{
    "cas_no": "698-67-9",
    "key_name": "4-Bromobenzamide",
    "cn_name": "4-溴苯甲酰胺;",
    "alternate_name": "Benzamide, 4-bromo-;Benzamide, <em>p</em>-bromo-;4-Bromobenzamide;<em>p</em>-Bromobenzoic acid amide;<em>p</em>-Bromobenzamide;NSC 404792",
    "duplicated_cas_no": "",
    "SMILES": "C(N)(=O)C1=CC=C(Br)C=C1",
    "meta_data": {
        "InChI": "InChI=1S/C7H6BrNO/c8-6-3-1-5(2-4-6)7(9)10/h1-4H,(H2,9,10)",
        "InChIKey": null,
        "Canonical SMILES": "O=C(N)C1=CC=C(Br)C=C1",
        "Molecular Formula": "C<sub>7</sub>H<sub>6</sub>BrNO",
        "Molecular Mass": "200.03",
        "Melting Point": "190-193 °C"
    }
}