{
    "cas_no": "961-11-5",
    "key_name": "Phosphoric acid, 2-chloro-1-(2,4,5-trichlorophenyl)ethenyl dimethyl ester",
    "cn_name": "杀虫畏;2-氯-1-(2,4,5-三氯苯基)乙烯基二甲基磷酸酯;",
    "alternate_name": "Phosphoric acid, 2-chloro-1-(2,4,5-trichlorophenyl)ethenyl dimethyl ester;Phosphoric acid, 2-chloro-1-(2,4,5-trichlorophenyl)vinyl dimethyl ester;Benzyl alcohol, 2,4,5-trichloro-α-(chloromethylene)-, dimethyl phosphate;2-Chloro-1-(2,4,5-trichlorophenyl)vinyl dimethyl phosphate;Dimethyl-1-(2,4,5-trichlorophenyl)-2-chlorovinyl phosphate;Dimethyl 2,4,5-trichloro-α-(chloromethylene)benzyl phosphate;IPO 8",
    "duplicated_cas_no": "",
    "SMILES": "C(OP(OC)(OC)=O)(=CCl)C1=C(Cl)C=C(Cl)C(Cl)=C1",
    "meta_data": {
        "InChI": "InChI=1S/C10H9Cl4O4P/c1-16-19(15,17-2)18-10(5-11)6-3-8(13)9(14)4-7(6)12/h3-5H,1-2H3",
        "InChIKey": null,
        "Canonical SMILES": "O=P(OC(=CCl)C1=CC(Cl)=C(Cl)C=C1Cl)(OC)OC",
        "Molecular Formula": "C<sub>10</sub>H<sub>9</sub>Cl<sub>4</sub>O<sub>4</sub>P",
        "Molecular Mass": "365.96",
        "Melting Point": "97.5 °C"
    }
}