{
    "cas_no": "106649-95-0",
    "key_name": "Propanimidamide, <em>N</em>-(aminosulfonyl)-3-chloro-, hydrochloride (1:1)",
    "cn_name": "N-硫酰胺基-3-氯丙脒盐酸盐;",
    "alternate_name": "Propanimidamide, <em>N</em>-(aminosulfonyl)-3-chloro-, hydrochloride (1:1);Propanimidamide, <em>N</em>-(aminosulfonyl)-3-chloro-, monohydrochloride;<em>N</em>-Sulfamyl-3-chloropropionamidine hydrochloride",
    "duplicated_cas_no": "",
    "SMILES": "C(NS(N)(=O)=O)(CCCl)=N.Cl",
    "meta_data": {
        "InChI": "InChI=1S/C3H8ClN3O2S.ClH/c4-2-1-3(5)7-10(6,8)9;/h1-2H2,(H2,5,7)(H2,6,8,9);1H",
        "InChIKey": null,
        "Canonical SMILES": "Cl.O=S(=O)(N)NC(=N)CCCl",
        "Molecular Formula": "C<sub>3</sub>H<sub>8</sub>ClN<sub>3</sub>O<sub>2</sub>S.ClH",
        "Molecular Mass": "",
        "Melting Point": "144-146 °C (decomp)"
    }
}