{
    "cas_no": "2587-76-0",
    "key_name": "Trioctyltin chloride",
    "cn_name": "三辛基氯化锡;",
    "alternate_name": "Stannane, chlorotrioctyl-;Trioctyltin chloride;Tin, chlorotrioctyl-;Chlorotrioctylstannane;Chlorotrioctyltin;Tri-<em>n</em>-octyltin chloride;NSC 65479;Trioctylchlorostannane",
    "duplicated_cas_no": "",
    "SMILES": "[Sn](CCCCCCCC)(CCCCCCCC)(CCCCCCCC)Cl",
    "meta_data": {
        "InChI": "InChI=1S/3C8H17.ClH.Sn/c3*1-3-5-7-8-6-4-2;;/h3*1,3-8H2,2H3;1H;/q;;;;+1/p-1",
        "InChIKey": null,
        "Canonical SMILES": "Cl[Sn](CCCCCCCC)(CCCCCCCC)CCCCCCCC",
        "Molecular Formula": "C<sub>24</sub>H<sub>51</sub>ClSn",
        "Molecular Mass": "493.82",
        "Boiling Point": "193-198 °C @ Press: 0.1 Torr"
    }
}