{
    "cas_no": "1080-12-2",
    "key_name": "Dehydrozingerone",
    "cn_name": "香兰缩醛丙酮;",
    "alternate_name": "3-Buten-2-one, 4-(4-hydroxy-3-methoxyphenyl)-;4-(4-Hydroxy-3-methoxyphenyl)-3-buten-2-one;3-Methoxy-4-hydroxybenzalacetone;Dehydrozingerone;Feruloylmethane;[0]-Paradol, dehydro-;Dehydro[0]-paradol;4-Hydroxy-3-methoxystyryl methyl ketone;4-Hydroxy-3-methoxybenzylideneacetone;Vanillalacetone;NSC 26613;NSC 4019;NSC 44708;NSC 45411;NSC 5316;Dehydrogingerone",
    "duplicated_cas_no": "",
    "SMILES": "C(=CC(C)=O)C1=CC(OC)=C(O)C=C1",
    "meta_data": {
        "InChI": "InChI=1S/C11H12O3/c1-8(12)3-4-9-5-6-10(13)11(7-9)14-2/h3-7,13H,1-2H3",
        "InChIKey": null,
        "Canonical SMILES": "O=C(C=CC1=CC=C(O)C(OC)=C1)C",
        "Molecular Formula": "C<sub>11</sub>H<sub>12</sub>O<sub>3</sub>",
        "Molecular Mass": "192.21",
        "Melting Point": "129 °C"
    }
}