{
    "cas_no": "116-14-3",
    "key_name": "Tetrafluoroethylene",
    "cn_name": "四氟乙烯;",
    "alternate_name": "Ethene, 1,1,2,2-tetrafluoro-;Ethylene, tetrafluoro-;Ethene, tetrafluoro-;1,1,2,2-Tetrafluoroethene;Tetrafluoroethylene;Tetrafluoroethene;Perfluoroethene;Perfluoroethylene;TFE;1,1,2,2-Tetrafluoroethylene;Ethylene tetrafluoride;R 1114;Teflon 851K02730;PFC 1114;BYK 990;FO 1114;K-PT 200",
    "duplicated_cas_no": "9014-83-9;1449755-53-6;2872553-97-2",
    "SMILES": "C(=C(F)F)(F)F",
    "meta_data": {
        "InChI": "InChI=1S/C2F4/c3-1(4)2(5)6",
        "InChIKey": null,
        "Canonical SMILES": "FC(F)=C(F)F",
        "Molecular Formula": "C<sub>2</sub>F<sub>4</sub>",
        "Molecular Mass": "100.01",
        "Boiling Point": "-75.9 °C",
        "Melting Point": "-142.5 °C",
        "Density": "1.519 g/cm³ @ Temp: -76 °C"
    }
}