{
    "cas_no": "14344-46-8",
    "key_name": "<span class=\"text-smallcaps\">L</span>-Cysteine, <em>N</em>-methyl-, hydrochloride (1:1)",
    "cn_name": null,
    "alternate_name": "<span class=\"text-smallcaps\">L</span>-Cysteine, <em>N</em>-methyl-, hydrochloride (1:1);Cysteine, <em>N</em>-methyl-, hydrochloride, <span class=\"text-smallcaps\">L</span>-;<span class=\"text-smallcaps\">L</span>-Cysteine, <em>N</em>-methyl-, hydrochloride;<span class=\"text-smallcaps\">L</span>-<em>N</em>-Methylcysteine hydrochloride",
    "duplicated_cas_no": "",
    "SMILES": "[C@@H](C(O)=O)(CS)NC.Cl",
    "meta_data": {
        "InChI": "InChI=1S/C4H9NO2S.ClH/c1-5-3(2-8)4(6)7;/h3,5,8H,2H2,1H3,(H,6,7);1H/t3-;/m0./s1",
        "InChIKey": null,
        "Canonical SMILES": "Cl.O=C(O)C(NC)CS",
        "Molecular Formula": "C<sub>4</sub>H<sub>9</sub>NO<sub>2</sub>S.ClH",
        "Molecular Mass": "",
        "Melting Point": "128-130 °C"
    }
}