{
    "cas_no": "2991-42-6",
    "key_name": "4-(Trifluoromethyl)benzenesulfonyl chloride",
    "cn_name": "4-三氟甲基苯磺酰氯;对三氟甲基苯磺酰氯;",
    "alternate_name": "Benzenesulfonyl chloride, 4-(trifluoromethyl)-;<em>p</em>-Toluenesulfonyl chloride, α,α,α-trifluoro-;4-(Trifluoromethyl)benzenesulfonyl chloride;α,α,α-Trifluoro-<em>p</em>-toluenesulfonyl chloride;<em>p</em>-Trifluoromethylbenzenesulfonyl chloride;[4-(Trifluoromethyl)phenyl]sulfonyl chloride;[<em>p</em>-(Trifluoromethyl)phenyl]sulfonyl chloride;4-(Trifluoromethyl)benzene-1-sulfonyl chloride",
    "duplicated_cas_no": "",
    "SMILES": "C(F)(F)(F)C1=CC=C(S(Cl)(=O)=O)C=C1",
    "meta_data": {
        "InChI": "InChI=1S/C7H4ClF3O2S/c8-14(12,13)6-3-1-5(2-4-6)7(9,10)11/h1-4H",
        "InChIKey": null,
        "Canonical SMILES": "O=S(=O)(Cl)C1=CC=C(C=C1)C(F)(F)F",
        "Molecular Formula": "C<sub>7</sub>H<sub>4</sub>ClF<sub>3</sub>O<sub>2</sub>S",
        "Molecular Mass": "244.62",
        "Boiling Point": "56-60 °C @ Press: 0.03 Torr",
        "Melting Point": "31-33 °C"
    }
}