{
    "cas_no": "796090-24-9",
    "key_name": "6-Chloro-3-(trifluoromethyl)-2-pyridinecarboxylic acid",
    "cn_name": "6-氯-3-三氟甲基吡啶-2-甲酸;",
    "alternate_name": "2-Pyridinecarboxylic acid, 6-chloro-3-(trifluoromethyl)-;6-Chloro-3-(trifluoromethyl)-2-pyridinecarboxylic acid;6-Chloro-3-trifluoromethylpyridine-2-carboxylic acid",
    "duplicated_cas_no": "",
    "SMILES": "C(O)(=O)C1=C(C(F)(F)F)C=CC(Cl)=N1",
    "meta_data": {
        "InChI": "InChI=1S/C7H3ClF3NO2/c8-4-2-1-3(7(9,10)11)5(12-4)6(13)14/h1-2H,(H,13,14)",
        "InChIKey": null,
        "Canonical SMILES": "O=C(O)C1=NC(Cl)=CC=C1C(F)(F)F",
        "Molecular Formula": "C<sub>7</sub>H<sub>3</sub>ClF<sub>3</sub>NO<sub>2</sub>",
        "Molecular Mass": "225.55",
        "Melting Point": "109-110 °C"
    }
}