{
    "cas_no": "2909-38-8",
    "key_name": "3-Chlorophenyl isocyanate",
    "cn_name": "间氯苯异氰酸酯;",
    "alternate_name": "Benzene, 1-chloro-3-isocyanato-;Isocyanic acid, <em>m</em>-chlorophenyl ester;1-Chloro-3-isocyanatobenzene;<em>m</em>-Chlorophenyl isocyanate;3-Chlorophenyl isocyanate;3-Chloroisocyanatobenzene;NSC 76588;1-Isocyanato-3-chlorobenzene;3-Chloro-1-isocyanatobenzene",
    "duplicated_cas_no": "",
    "SMILES": "N(=C=O)C1=CC(Cl)=CC=C1",
    "meta_data": {
        "InChI": "InChI=1S/C7H4ClNO/c8-6-2-1-3-7(4-6)9-5-10/h1-4H",
        "InChIKey": null,
        "Canonical SMILES": "O=C=NC=1C=CC=C(Cl)C1",
        "Molecular Formula": "C<sub>7</sub>H<sub>4</sub>ClNO",
        "Molecular Mass": "153.57",
        "Boiling Point": "83-86 °C @ Press: 10.5 Torr",
        "Melting Point": "-4 °C"
    }
}