{
    "cas_no": "78967-07-4",
    "key_name": "Mofezolac",
    "cn_name": "莫苯唑酸;莫芬唑酸;莫非唑酸;",
    "alternate_name": "5-Isoxazoleacetic acid, 3,4-bis(4-methoxyphenyl)-;3,4-Bis(4-methoxyphenyl)-5-isoxazoleacetic acid;Mofezolac;N 22;[3,4-Bis-(4-methoxyphenyl)isoxazol-5-yl]-acetic acid;2-[3,4-Bis(4-methoxyphenyl)-1,2-oxazol-5-yl]acetic acid;2-(3,4-Bis(4-methoxyphenyl)isoxazol-5-yl)aceticacid;2-(3,4-Bis(4-methoxyphenyl)isoxazol-5-yl)acetic acid",
    "duplicated_cas_no": "",
    "SMILES": "C(C(O)=O)C1=C(C(=NO1)C2=CC=C(OC)C=C2)C3=CC=C(OC)C=C3",
    "meta_data": {
        "InChI": "InChI=1S/C19H17NO5/c1-23-14-7-3-12(4-8-14)18-16(11-17(21)22)25-20-19(18)13-5-9-15(24-2)10-6-13/h3-10H,11H2,1-2H3,(H,21,22)",
        "InChIKey": null,
        "Canonical SMILES": "O=C(O)CC=1ON=C(C=2C=CC(OC)=CC2)C1C3=CC=C(OC)C=C3",
        "Molecular Formula": "C<sub>19</sub>H<sub>17</sub>NO<sub>5</sub>",
        "Molecular Mass": "339.34",
        "Melting Point": "147.5 °C"
    }
}