{
    "cas_no": "6422-86-2",
    "key_name": "Dioctyl terephthalate",
    "cn_name": "对苯二甲酸二辛酯;对苯二甲酸二异辛酯;对苯二甲酸二(2-乙基己)酯;DOTP;",
    "alternate_name": "1,4-Benzenedicarboxylic acid, 1,4-bis(2-ethylhexyl) ester;Terephthalic acid, bis(2-ethylhexyl) ester;1,4-Benzenedicarboxylic acid, bis(2-ethylhexyl) ester;Bis(2-ethylhexyl) terephthalate;Kodaflex DOTP;Di(2-ethylhexyl) terephthalate;JP 110;Eastman 168;DOTP;Plasticizer 168;NEO-T;ADK Cizer D 810;Dioctyl terephthalate;Eastman TM 168;UN 488;Palatinol DOTP;168SG;Eastman 168SG;HCCFlex SP 390;Cizer D 810;Di(2-ethylhexan-1-yl) terephthalate;Oxoplast OT;SP 390;LF 30;LGflex GL 300;GL 300;DY 39;D 810;A 60 (plasticizer);A 60;Rymsaplas T 4200;R-DOTP",
    "duplicated_cas_no": "144981-82-8;1173194-29-0;1264916-12-2;1402971-35-0",
    "SMILES": "C(OCC(CCCC)CC)(=O)C1=CC=C(C(OCC(CCCC)CC)=O)C=C1",
    "meta_data": {
        "InChI": "InChI=1S/C24H38O4/c1-5-9-11-19(7-3)17-27-23(25)21-13-15-22(16-14-21)24(26)28-18-20(8-4)12-10-6-2/h13-16,19-20H,5-12,17-18H2,1-4H3",
        "InChIKey": null,
        "Canonical SMILES": "O=C(OCC(CC)CCCC)C1=CC=C(C=C1)C(=O)OCC(CC)CCCC",
        "Molecular Formula": "C<sub>24</sub>H<sub>38</sub>O<sub>4</sub>",
        "Molecular Mass": "390.56",
        "Boiling Point": "383 °C @ Press: 760 Torr",
        "Melting Point": "-48 °C",
        "Density": "0.986 g/cm³ @ Temp: 25 °C"
    }
}