{
    "cas_no": "7377-03-9",
    "key_name": "Octanohydroxamic acid",
    "cn_name": "辛烷氧基羟氨酸;",
    "alternate_name": "Octanamide, <em>N</em>-hydroxy-;Octanohydroxamic acid;<em>N</em>-Hydroxyoctanamide;Caprylohydroxamic acid;Octanoylhydroxamic acid;Taselin;Caprylhydroxamic acid",
    "duplicated_cas_no": "",
    "SMILES": "C(CC(NO)=O)CCCCC",
    "meta_data": {
        "InChI": "InChI=1S/C8H17NO2/c1-2-3-4-5-6-7-8(10)9-11/h11H,2-7H2,1H3,(H,9,10)",
        "InChIKey": null,
        "Canonical SMILES": "O=C(NO)CCCCCCC",
        "Molecular Formula": "C<sub>8</sub>H<sub>17</sub>NO<sub>2</sub>",
        "Molecular Mass": "159.23",
        "Melting Point": "78.75 °C"
    }
}