{
    "cas_no": "431-23-2",
    "key_name": "3,3,3-Trifluoro-2-methyl-1-propanol",
    "cn_name": null,
    "alternate_name": "1-Propanol, 3,3,3-trifluoro-2-methyl-;3,3,3-Trifluoro-2-methyl-1-propanol;2-Trifluoromethylpropanol",
    "duplicated_cas_no": "",
    "SMILES": "C(C(F)(F)F)(CO)C",
    "meta_data": {
        "InChI": "InChI=1S/C4H7F3O/c1-3(2-8)4(5,6)7/h3,8H,2H2,1H3",
        "InChIKey": null,
        "Canonical SMILES": "FC(F)(F)C(C)CO",
        "Molecular Formula": "C<sub>4</sub>H<sub>7</sub>F<sub>3</sub>O",
        "Molecular Mass": "128.09",
        "Boiling Point": "108.5-109.5 °C"
    }
}