{
    "cas_no": "6245-89-2",
    "key_name": "1<em>H</em>-Indole-3-propanamine",
    "cn_name": null,
    "alternate_name": "1<em>H</em>-Indole-3-propanamine;Indole, 3-(3-aminopropyl)-;Homotryptamine;3-Indolepropylamine;γ-3-Indolylpropylamine;3-Indolylpropylamine;3-(3-Indolyl)propylamine;3-(3-Aminopropyl)indole;Indole-3-propanamine;3-(1<em>H</em>-Indol-3-yl)propylamine;3-(1<em>H</em>-Indol-3-yl)-1-propanamine;3-(Indol-3-yl)propan-1-amine",
    "duplicated_cas_no": "",
    "SMILES": "C(CCN)C=1C=2C(NC1)=CC=CC2",
    "meta_data": {
        "InChI": "InChI=1S/C11H14N2/c12-7-3-4-9-8-13-11-6-2-1-5-10(9)11/h1-2,5-6,8,13H,3-4,7,12H2",
        "InChIKey": null,
        "Canonical SMILES": "NCCCC1=CNC=2C=CC=CC21",
        "Molecular Formula": "C<sub>11</sub>H<sub>14</sub>N<sub>2</sub>",
        "Molecular Mass": "174.24",
        "Melting Point": "64 °C"
    }
}