{
    "cas_no": "5325-20-2",
    "key_name": "2<em>H</em>-1,4-Benzothiazin-3(4<em>H</em>)-one",
    "cn_name": "(2H)1,4-苯并噻嗪-3(4H)-酮;",
    "alternate_name": "2<em>H</em>-1,4-Benzothiazin-3(4<em>H</em>)-one;3,4-Dihydro-3-oxo-2<em>H</em>-1,4-benzothiazine;1,4-Benzothiazin-3-one;2,3-Dihydro-3-oxo-4<em>H</em>-1,4-benzothiazine;4<em>H</em>-Benzo[1,4]thiazin-3-one;NSC 130;4<em>H</em>-Benzothiazin-3-one;3-Oxo-3,4-dihydro-2<em>H</em>-1,4-benzothiazine;2<em>H</em>-Benzo[<em>b</em>][1,4]thiazin-3(4<em>H</em>)-one;3-Oxo-1,4-benzothiazine;3,4-Dihydro-2<em>H</em>-1,4-benzothiazin-3-one",
    "duplicated_cas_no": "",
    "SMILES": "O=C1NC=2C(SC1)=CC=CC2",
    "meta_data": {
        "InChI": "InChI=1S/C8H7NOS/c10-8-5-11-7-4-2-1-3-6(7)9-8/h1-4H,5H2,(H,9,10)",
        "InChIKey": null,
        "Canonical SMILES": "O=C1NC=2C=CC=CC2SC1",
        "Molecular Formula": "C<sub>8</sub>H<sub>7</sub>NOS",
        "Molecular Mass": "165.21",
        "Melting Point": "179 °C"
    }
}