{
    "cas_no": "15721-05-8",
    "key_name": "2,2,4,4,6,6,8-Heptamethylcyclotetrasiloxane",
    "cn_name": null,
    "alternate_name": "Cyclotetrasiloxane, 2,2,4,4,6,6,8-heptamethyl-;Cyclotetrasiloxane, heptamethyl-;2,2,4,4,6,6,8-Heptamethylcyclotetrasiloxane;Heptamethylcyclotetrasiloxane;1,3,3,5,5,7,7-Heptamethylcyclotetrasiloxane;2,2,4,4,6,6,8-Heptamethyl-1,3,5,7,2,4,6,8-tetraoxatetrasilocane",
    "duplicated_cas_no": "",
    "SMILES": "C[Si]1(C)O[Si](C)(C)O[SiH](C)O[Si](C)(C)O1",
    "meta_data": {
        "InChI": "InChI=1S/C7H22O4Si4/c1-12-8-13(2,3)10-15(6,7)11-14(4,5)9-12/h12H,1-7H3",
        "InChIKey": null,
        "Canonical SMILES": "O1[SiH](O[Si](O[Si](O[Si]1(C)C)(C)C)(C)C)C",
        "Molecular Formula": "C<sub>7</sub>H<sub>22</sub>O<sub>4</sub>Si<sub>4</sub>",
        "Molecular Mass": "282.59",
        "Boiling Point": "84.5 °C @ Press: 50 Torr",
        "Melting Point": "-27 °C",
        "Density": "1.3965 g/cm³ @ Temp: 20 °C"
    }
}