{
    "cas_no": "355-25-9",
    "key_name": "Perfluorobutane",
    "cn_name": "十氟丁烷;全氟丁烷;",
    "alternate_name": "Butane, 1,1,1,2,2,3,3,4,4,4-decafluoro-;Butane, decafluoro-;1,1,1,2,2,3,3,4,4,4-Decafluorobutane;Perfluorobutane;Decafluorobutane;FC 3110;CEA 410;Sonazoid;NC 100100;PF 5040;Perflubutane;AI 700;PFC 31-10;R 3110",
    "duplicated_cas_no": "161107-53-5",
    "SMILES": "C(C(C(F)(F)F)(F)F)(C(F)(F)F)(F)F",
    "meta_data": {
        "InChI": "InChI=1S/C4F10/c5-1(6,3(9,10)11)2(7,8)4(12,13)14",
        "InChIKey": null,
        "Canonical SMILES": "FC(F)(F)C(F)(F)C(F)(F)C(F)(F)F",
        "Molecular Formula": "C<sub>4</sub>F<sub>10</sub>",
        "Molecular Mass": "238.03",
        "Boiling Point": "-1.9 °C",
        "Melting Point": "-128.2 °C",
        "Density": "0.63 g/cm³"
    }
}