{
    "cas_no": "6290-37-5",
    "key_name": "Phenylethyl hexanoate",
    "cn_name": "己酸-2-苯乙酯;",
    "alternate_name": "Hexanoic acid, 2-phenylethyl ester;Hexanoic acid, phenethyl ester;2-Phenethyl hexanoate;2-Phenylethyl caproate;2-Phenylethyl hexanoate;Phenylethyl hexanoate;Phenethyl hexanoate;NSC 6651",
    "duplicated_cas_no": "",
    "SMILES": "C(COC(CCCCC)=O)C1=CC=CC=C1",
    "meta_data": {
        "InChI": "InChI=1S/C14H20O2/c1-2-3-5-10-14(15)16-12-11-13-8-6-4-7-9-13/h4,6-9H,2-3,5,10-12H2,1H3",
        "InChIKey": null,
        "Canonical SMILES": "O=C(OCCC=1C=CC=CC1)CCCCC",
        "Molecular Formula": "C<sub>14</sub>H<sub>20</sub>O<sub>2</sub>",
        "Molecular Mass": "220.31",
        "Boiling Point": "144-146 °C @ Press: 2 Torr"
    }
}