{
    "cas_no": "12257-42-0",
    "key_name": "Bis[chloro(norbornadiene)rhodium]",
    "cn_name": "二氯化二铑;二氯化二铑(双降冰片二烯);",
    "alternate_name": "Rhodium, bis[(2,3,5,6-η)-bicyclo[2.2.1]hepta-2,5-diene]di-μ-chlorodi-;Rhodium, di-μ-chlorobis(2,5-norbornadiene)di-;Rhodium, dichlorobis(2,5-norbornadiene)di-;Bicyclo[2.2.1]hepta-2,5-diene, rhodium complex;Bis[(2,3,5,6-η)-bicyclo[2.2.1]hepta-2,5-diene]di-μ-chlorodirhodium;Dichloro(norbornadiene)dirhodium;Rhodium norbornadiene chloride dimer;Bis[chloro(norbornadiene)rhodium];Norbornadiene rhodium chloride dimer;Chloronorbornadiene rhodium dimer;Bis((μ-chloro)(norbornadiene)rhodium);Bis(chloro(η<sup>4</sup>-norbornadiene)rhodium);(Bicyclo[2.2.1]hepta-2,5-diene)rhodium (I) chloride dimer;(η<sup>4</sup>-Norbornadiene)rhodium chloride dimer;Bis(μ-chloro)bis(norbornadiene)dirhodium;Bis((μ-chloro)(2,5-norbornadiene)rhodium);Di-μ-chlorobis(norbornadiene)dirhodium;Di-μ-chlorobis(η<sup>4</sup>-norbornadiene)dirhodium(I);Dichlorobis(norbornadiene)dirhodium;Bis(μ-chloro)bis[(norbornadiene)rhodium]",
    "duplicated_cas_no": "12277-08-6;39357-17-0",
    "SMILES": "[Rh+]1234([CH]5=[CH]1C6[CH]2=[CH]3C5C6)[Cl-][Rh+]789([Cl-]4)[CH]%10=[CH]7C%11[CH]8=[CH]9C%10C%11",
    "meta_data": {
        "InChI": "InChI=1S/2C7H8.2ClH.2Rh/c2*1-2-7-4-3-6(1)5-7;;;;/h2*1-4,6-7H,5H2;2*1H;;/q;;;;2*+1/p-2",
        "InChIKey": null,
        "Canonical SMILES": "[Cl-]1[Rh+]234([Cl-][Rh+]1567[CH]=8C9CC([CH]85)[CH]7=[CH]96)[CH]=%10C%11CC([CH]%102)[CH]4=[CH]%113",
        "Molecular Formula": "C<sub>14</sub>H<sub>16</sub>Cl<sub>2</sub>Rh<sub>2</sub>",
        "Molecular Mass": "",
        "Melting Point": "240 °C (decomp)"
    }
}