{
    "cas_no": "13126-12-0",
    "key_name": "Nitric acid, rubidium salt (1:1)",
    "cn_name": "硝酸铷;",
    "alternate_name": "Nitric acid, rubidium salt (1:1);Nitric acid, rubidium salt;Rubidium nitrate",
    "duplicated_cas_no": "",
    "SMILES": "N(=O)(=O)O.[Rb]",
    "meta_data": {
        "InChI": "InChI=1S/HNO3.Rb/c2-1(3)4;/h(H,2,3,4);",
        "InChIKey": null,
        "Canonical SMILES": "[Rb].O=N(=O)O",
        "Molecular Formula": "HNO<sub>3</sub>.Rb",
        "Molecular Mass": "",
        "Melting Point": "313 °C"
    }
}