{
    "cas_no": "6645-46-1",
    "key_name": "<span class=\"text-smallcaps\">L</span>-(-)-Carnitine hydrochloride",
    "cn_name": "左旋肉碱盐酸盐;",
    "alternate_name": "1-Propanaminium, 3-carboxy-2-hydroxy-<em>N</em>,<em>N</em>,<em>N</em>-trimethyl-, chloride, (2<em>R</em>)-;Ammonium, (3-carboxy-2-hydroxypropyl)trimethyl-, chloride, (-)-;1-Propanaminium, 3-carboxy-2-hydroxy-<em>N</em>,<em>N</em>,<em>N</em>-trimethyl-, chloride, (<em>R</em>)-;<em>l</em>-Carnitine hydrochloride;<span class=\"text-smallcaps\">L</span>-(-)-Carnitine hydrochloride;(<em>R</em>)-Carnitine hydrochloride;<em>l</em>-Carnitine chloride;LC 80;Levocarnitine chloride;(<em>R</em>)-(-)-Carnitine hydrochloride;(R)-3-Carboxy-2-hydroxy-<em>N</em>,<em>N</em>,<em>N</em>-trimethylpropan-1-aminiumchloride;(R)-(3-Carboxy-2-hydroxypropyl)trimethylammonium chloride",
    "duplicated_cas_no": "4209-26-1;33620-74-5;98044-78-1;115503-53-2;171063-65-3;875536-67-7",
    "SMILES": "C([N+](C)(C)C)[C@@H](CC(O)=O)O.[Cl-]",
    "meta_data": {
        "InChI": "InChI=1S/C7H15NO3.ClH/c1-8(2,3)5-6(9)4-7(10)11;/h6,9H,4-5H2,1-3H3;1H/t6-;/m1./s1",
        "InChIKey": null,
        "Canonical SMILES": "[Cl-].O=C(O)CC(O)C[N+](C)(C)C",
        "Molecular Formula": "C<sub>7</sub>H<sub>16</sub>NO<sub>3</sub>.Cl",
        "Molecular Mass": "",
        "Melting Point": "142 °C"
    }
}