{
    "cas_no": "556-97-8",
    "key_name": "1-Chloro-3,5-dimethylbenzene",
    "cn_name": "3,5-二甲基氯苯;",
    "alternate_name": "Benzene, 1-chloro-3,5-dimethyl-;<em>m</em>-Xylene, 5-chloro-;1-Chloro-3,5-dimethylbenzene;5-Chloro-<em>m</em>-xylene;5-Chloro-1,3-dimethylbenzene;3-Methyl-5-chlorotoluene;3,5-Dimethylchlorobenzene;5-Chloro-m-xylene;3,5-Dimethylphenyl chloride",
    "duplicated_cas_no": "",
    "SMILES": "CC1=CC(C)=CC(Cl)=C1",
    "meta_data": {
        "InChI": "InChI=1S/C8H9Cl/c1-6-3-7(2)5-8(9)4-6/h3-5H,1-2H3",
        "InChIKey": null,
        "Canonical SMILES": "ClC=1C=C(C=C(C1)C)C",
        "Molecular Formula": "C<sub>8</sub>H<sub>9</sub>Cl",
        "Molecular Mass": "140.61",
        "Boiling Point": "90 °C @ Press: 3.5 Torr"
    }
}