{
    "cas_no": "629-09-4",
    "key_name": "1,6-Diiodohexane",
    "cn_name": "1,6-二碘己烷;六亚甲基二碘;",
    "alternate_name": "Hexane, 1,6-diiodo-;1,6-Diiodohexane;Hexamethylene diiodide;α,ω-Diiodohexane;1,6-Iodohexane",
    "duplicated_cas_no": "",
    "SMILES": "C(CCCI)CCI",
    "meta_data": {
        "InChI": "InChI=1S/C6H12I2/c7-5-3-1-2-4-6-8/h1-6H2",
        "InChIKey": null,
        "Canonical SMILES": "ICCCCCCI",
        "Molecular Formula": "C<sub>6</sub>H<sub>12</sub>I<sub>2</sub>",
        "Molecular Mass": "337.97",
        "Boiling Point": "141-142 °C @ Press: 10 Torr",
        "Melting Point": "9.5 °C",
        "Density": "2.03 g/cm³ @ Temp: 20 °C"
    }
}