{
    "cas_no": "7757-82-6",
    "key_name": "Sodium sulfate",
    "cn_name": "硫酸钠;无水硫酸钠;",
    "alternate_name": "Sulfuric acid sodium salt (1:2);Sulfuric acid disodium salt;Sodium sulfate (2:1);Sodium sulfate anhydrous;Disodium sulfate;Salt cake;Sodium sulfate;Sodium sulfate (Na<sub>2</sub>SO<sub>4</sub>);Disodium monosulfate;Disodium sulphate;Bisodium sulfate;Sodium sulphate;Kemsol;Sulfuric acid, disodium salt;Dibasic sodium sulfate;A 6;A 6 (salt);A 12;A 12 (sulfate);Na-G 1;Na-G 0;T 350;T 350 (sulfate);3ED;Detergent White Speckle;S 112289;B 12078",
    "duplicated_cas_no": "1337-28-6;856314-01-7;1079994-54-9",
    "SMILES": "S(=O)(=O)(O)O.[Na]",
    "meta_data": {
        "InChI": "InChI=1S/2Na.H2O4S/c;;1-5(2,3)4/h;;(H2,1,2,3,4)",
        "InChIKey": null,
        "Canonical SMILES": "[Na].O=S(=O)(O)O",
        "Molecular Formula": "H<sub>2</sub>O<sub>4</sub>S.2Na",
        "Molecular Mass": "",
        "Melting Point": "888 °C",
        "Density": "2.671 g/cm³"
    }
}