{
    "cas_no": "6851-81-6",
    "key_name": "1,5,5-Trimethyl-2,4-imidazolidinedione",
    "cn_name": "1,5,5-三甲基海因;",
    "alternate_name": "2,4-Imidazolidinedione, 1,5,5-trimethyl-;Hydantoin, 1,5,5-trimethyl-;1,5,5-Trimethyl-2,4-imidazolidinedione;1,5,5-Trimethylhydantoin;3,4,4-Trimethyl-2,5-dioxoimidazolidine;1,5,5-Trimethylimidazolidine-2,4-dione",
    "duplicated_cas_no": "",
    "SMILES": "CC1(C)N(C)C(=O)NC1=O",
    "meta_data": {
        "InChI": "InChI=1S/C6H10N2O2/c1-6(2)4(9)7-5(10)8(6)3/h1-3H3,(H,7,9,10)",
        "InChIKey": null,
        "Canonical SMILES": "O=C1NC(=O)C(N1C)(C)C",
        "Molecular Formula": "C<sub>6</sub>H<sub>10</sub>N<sub>2</sub>O<sub>2</sub>",
        "Molecular Mass": "142.16",
        "Melting Point": "161-163 °C"
    }
}