{
    "cas_no": "61-25-6",
    "key_name": "Papaverine hydrochloride",
    "cn_name": "盐酸罂粟碱;1-(3,4-二甲氧基苄基)-6,7-二甲氧基异喹啉盐酸盐;",
    "alternate_name": "Isoquinoline, 1-[(3,4-dimethoxyphenyl)methyl]-6,7-dimethoxy-, hydrochloride (1:1);Isoquinoline, 6,7-dimethoxy-1-veratryl-, hydrochloride;Isoquinoline, 1-[(3,4-dimethoxyphenyl)methyl]-6,7-dimethoxy-, hydrochloride;Cardoverina;Dispamil;Papavarine chlorhydrate;Papaverine hydrochloride;6,7,3′,4′-Tetramethoxy-1-benzylisoquinoline hydrochloride;Papaverinium chloride;1-(3,4-Dimethoxybenzyl)-6,7-dimethoxyisoquinoline hydrochloride;Drapavel;Cardiospan;Papaversan;Ro-Papav;Cerespan;Vasal;Myobid;Paveron;6,7-Dimethoxy-1-(3,4-dimethoxybenzyl)isoquinoline hydrochloride;6,7-Dimethoxy-1-veratrylisoquinoline hydrochloride;Pavased;Pameion;Pavacen;Pavagen;Optenyl;Dynovas;Pavadel;Vasospan;Therapav;Artegodan;Pavakey;Panergon;Paptial TR;Pavabid;Spasmo Nit;Pavacap;Cerebid;Cepaverin;Vasorin",
    "duplicated_cas_no": "",
    "SMILES": "C(C=1C2=C(C=C(OC)C(OC)=C2)C=CN1)C3=CC(OC)=C(OC)C=C3.Cl",
    "meta_data": {
        "InChI": "InChI=1S/C20H21NO4.ClH/c1-22-17-6-5-13(10-18(17)23-2)9-16-15-12-20(25-4)19(24-3)11-14(15)7-8-21-16;/h5-8,10-12H,9H2,1-4H3;1H",
        "InChIKey": null,
        "Canonical SMILES": "Cl.N=1C=CC=2C=C(OC)C(OC)=CC2C1CC3=CC=C(OC)C(OC)=C3",
        "Molecular Formula": "C<sub>20</sub>H<sub>21</sub>NO<sub>4</sub>.ClH",
        "Molecular Mass": "",
        "Melting Point": "220-225 °C"
    }
}