{
    "cas_no": "881681-01-2",
    "key_name": "5-(2-Fluorophenyl)-<em>N</em>-methyl-1-(3-pyridinylsulfonyl)-1<em>H</em>-pyrrole-3-methanamine (2<em>E</em>)-2-butenedioate (1:1)",
    "cn_name": null,
    "alternate_name": "1<em>H</em>-Pyrrole-3-methanamine, 5-(2-fluorophenyl)-<em>N</em>-methyl-1-(3-pyridinylsulfonyl)-, (2<em>E</em>)-2-butenedioate (1:1);5-(2-Fluorophenyl)-<em>N</em>-methyl-1-(3-pyridinylsulfonyl)-1<em>H</em>-pyrrole-3-methanamine (2<em>E</em>)-2-butenedioate (1:1);TAK 438 monofumarate;TAK 438;Vocinti;Takecab;Vonoprazan fumarate",
    "duplicated_cas_no": "1260141-27-2",
    "SMILES": "S(=O)(=O)(N1C(=CC(CNC)=C1)C2=C(F)C=CC=C2)C=3C=CC=NC3.C(=C/C(O)=O)\\C(O)=O",
    "meta_data": {
        "InChI": "InChI=1S/C17H16FN3O2S.C4H4O4/c1-19-10-13-9-17(15-6-2-3-7-16(15)18)21(12-13)24(22,23)14-5-4-8-20-11-14;5-3(6)1-2-4(7)8/h2-9,11-12,19H,10H2,1H3;1-2H,(H,5,6)(H,7,8)/b;2-1+",
        "InChIKey": null,
        "Canonical SMILES": "O=C(O)C=CC(=O)O.O=S(=O)(C=1C=NC=CC1)N2C=C(C=C2C=3C=CC=CC3F)CNC",
        "Molecular Formula": "C<sub>17</sub>H<sub>16</sub>FN<sub>3</sub>O<sub>2</sub>S.C<sub>4</sub>H<sub>4</sub>O<sub>4</sub>",
        "Molecular Mass": "",
        "Melting Point": "201-203 °C"
    }
}