{
    "cas_no": "7440-42-8",
    "key_name": "Boron",
    "cn_name": "硼;",
    "alternate_name": "Boron;Boron element;Boron atom;Trona;Trona (element);SB 95;SB 95 (boron);V 99;Borfast;Borotrac;Power 7B;Bortrac;B-99A;V 99 (element);Boron 112070;MeSH ID: D001895",
    "duplicated_cas_no": "1416162-12-3",
    "SMILES": "[B]",
    "meta_data": {
        "InChI": "InChI=1S/B",
        "InChIKey": null,
        "Canonical SMILES": "[B]",
        "Molecular Formula": "B",
        "Molecular Mass": "",
        "Boiling Point": "2550 °C",
        "Melting Point": "2300 °C",
        "Density": "2.35 g/cm³"
    }
}