{
    "cas_no": "26717-67-9",
    "key_name": "1,3-Dimethyl 2-ethylpropanedioate",
    "cn_name": "乙基丙二酸二甲酯;",
    "alternate_name": "Propanedioic acid, 2-ethyl-, 1,3-dimethyl ester;Malonic acid, ethyl-, dimethyl ester;Propanedioic acid, ethyl-, dimethyl ester;1,3-Dimethyl 2-ethylpropanedioate;Dimethyl ethylmalonate;Dimethyl 2-ethylmalonate",
    "duplicated_cas_no": "",
    "SMILES": "C(C(OC)=O)(C(OC)=O)CC",
    "meta_data": {
        "InChI": "InChI=1S/C7H12O4/c1-4-5(6(8)10-2)7(9)11-3/h5H,4H2,1-3H3",
        "InChIKey": null,
        "Canonical SMILES": "O=C(OC)C(C(=O)OC)CC",
        "Molecular Formula": "C<sub>7</sub>H<sub>12</sub>O<sub>4</sub>",
        "Molecular Mass": "160.17",
        "Boiling Point": "178-179 °C",
        "Density": "1.104 g/cm³"
    }
}