{
    "cas_no": "58670-89-6",
    "key_name": "2-Decyltetradecanol",
    "cn_name": "2-癸基-1-十四醇;",
    "alternate_name": "1-Tetradecanol, 2-decyl-;2-Decyl-1-tetradecanol;2-Decylmyristyl alcohol;2-Decyltetradecanol;2-Decyltetradecyl alcohol;Isofol 24;Guerbet C24;NJCOL 240A;Jarcol I 24;Risonol 24SP;Decyltetradecyl alcohol;Decyltetradecanol;2-Dodecyl-1-dodecanol",
    "duplicated_cas_no": "179607-00-2;192889-39-7",
    "SMILES": "C(CCCCCCCCCCCC)(CCCCCCCCCC)CO",
    "meta_data": {
        "InChI": "InChI=1S/C24H50O/c1-3-5-7-9-11-13-14-16-18-20-22-24(23-25)21-19-17-15-12-10-8-6-4-2/h24-25H,3-23H2,1-2H3",
        "InChIKey": null,
        "Canonical SMILES": "OCC(CCCCCCCCCC)CCCCCCCCCCCC",
        "Molecular Formula": "C<sub>24</sub>H<sub>50</sub>O",
        "Molecular Mass": "354.65",
        "Boiling Point": "250 °C",
        "Density": "0.8513 g/cm³ @ Temp: 17 °C"
    }
}