{
    "cas_no": "10420-89-0",
    "key_name": "(-)-1-(1-Naphthyl)ethylamine",
    "cn_name": "(S)-(-)-1-(1-萘基)乙胺;",
    "alternate_name": "1-Naphthalenemethanamine, α-methyl-, (α<em>S</em>)-;1-Naphthalenemethanamine, α-methyl-, (<em>S</em>)-;1-Naphthalenemethylamine, α-methyl-, (<em>S</em>)-(-)-;(α<em>S</em>)-α-Methyl-1-naphthalenemethanamine;(<em>S</em>)-1-(α-Naphthyl)ethylamine;(-)-α-(1-Naphthyl)ethylamine;(<em>S</em>)-1-(1-Naphthyl)ethylamine;<em>l</em>-α-(1-Naphthyl)ethylamine;(<em>S</em>)-(-)-α-(1-Naphthyl)ethylamine;(<em>S</em>)-(-)-1-(α-Naphthyl)ethylamine;(-)-1-(α-Naphthyl)ethylamine;(<em>S</em>)-α-Naphthylethylamine;(<em>S</em>)-α-Methyl-1-naphthalenemethanamine;(-)-1-(1-Naphthyl)ethylamine;(<em>S</em>)-(-)-1-(1-Naphthyl)ethylamine;(<em>S</em>)-α-(1-Naphthyl)ethylamine;(<em>S</em>)-1-Naphthylethylamine;[(<em>S</em>)-1-(Naphthalen-1-yl)ethyl]amine;(-)-[(<em>S</em>)-1-(1-Naphthyl)ethyl]amine;(<em>S</em>)-1-(Naphthalen-1-yl)ethanamine;(1<em>S</em>)-1-(1-Naphthyl)ethanamine;(<em>S</em>)-(-)-(1-Naphthyl)ethylamine;(1<em>S</em>)-1-(1-Naphthyl)ethylamine;(1S)-1-(Naphthalen-1-yl)ethan-1-amine;(1S)-1-Naphthalen-1-ylethanamine;1-Naphthalenemethanamine, α-chloro-, (α<em>S</em>)-",
    "duplicated_cas_no": "2906181-94-8",
    "SMILES": "[C@@H](C)(N)C=1C2=C(C=CC1)C=CC=C2",
    "meta_data": {
        "InChI": "InChI=1S/C12H13N/c1-9(13)11-8-4-6-10-5-2-3-7-12(10)11/h2-9H,13H2,1H3/t9-/m0/s1",
        "InChIKey": null,
        "Canonical SMILES": "NC(C1=CC=CC=2C=CC=CC21)C",
        "Molecular Formula": "C<sub>12</sub>H<sub>13</sub>N",
        "Molecular Mass": "171.24",
        "Boiling Point": "100 °C @ Press: 0.1 mmHg",
        "Melting Point": "97-98 °C"
    }
}