{
    "cas_no": "16582-59-5",
    "key_name": "4,6-Dichloro-2-benzothiazolamine",
    "cn_name": null,
    "alternate_name": "2-Benzothiazolamine, 4,6-dichloro-;Benzothiazole, 2-amino-4,6-dichloro-;4,6-Dichloro-2-benzothiazolamine;2-Amino-4,6-dichlorobenzothiazole;4,6-Dichloro-1,3-benzothiazol-2-ylamine;NSC 14671",
    "duplicated_cas_no": "",
    "SMILES": "ClC1=C2C(SC(N)=N2)=CC(Cl)=C1",
    "meta_data": {
        "InChI": "InChI=1S/C7H4Cl2N2S/c8-3-1-4(9)6-5(2-3)12-7(10)11-6/h1-2H,(H2,10,11)",
        "InChIKey": null,
        "Canonical SMILES": "ClC=1C=C(Cl)C=2N=C(SC2C1)N",
        "Molecular Formula": "C<sub>7</sub>H<sub>4</sub>Cl<sub>2</sub>N<sub>2</sub>S",
        "Molecular Mass": "219.09",
        "Melting Point": "253-255 °C"
    }
}