{
    "cas_no": "993-12-4",
    "key_name": "Dimethylphosphinothioyl chloride",
    "cn_name": "O,O-二甲基硫代磷酰氯;甲基氯化物;",
    "alternate_name": "Phosphinothioic chloride, dimethyl-;Dimethylthiophosphinic chloride;Dimethylphosphinothioic chloride;Dimethylthiophosphinic acid chloride;Chlorodimethylphosphine sulfide;Dimethylphosphinothioyl chloride;Dimethylthiophosphinyl chloride;Dimethylthiophosphinoyl chloride",
    "duplicated_cas_no": "",
    "SMILES": "P(C)(C)(Cl)=S",
    "meta_data": {
        "InChI": "InChI=1S/C2H6ClPS/c1-4(2,3)5/h1-2H3",
        "InChIKey": null,
        "Canonical SMILES": "S=P(Cl)(C)C",
        "Molecular Formula": "C<sub>2</sub>H<sub>6</sub>ClPS",
        "Molecular Mass": "128.56",
        "Boiling Point": "73.5 °C @ Press: 12 Torr",
        "Melting Point": "22.5 °C",
        "Density": "1.2282 g/cm³ @ Temp: 20 °C"
    }
}