{
    "cas_no": "3943-97-3",
    "key_name": "Methyl <em>p</em>-coumarate",
    "cn_name": "4-羟基肉桂酸甲酯;对羟基肉桂酸甲酯;",
    "alternate_name": "2-Propenoic acid, 3-(4-hydroxyphenyl)-, methyl ester;Cinnamic acid, <em>p</em>-hydroxy-, methyl ester;Methyl <em>p</em>-hydroxycinnamate;Methyl <em>p</em>-coumarate;Methyl 4-hydroxycinnamate;4-Hydroxycinnamic acid methyl ester;<em>p</em>-Hydroxycinnamic acid methyl ester;<em>p</em>-Coumaric acid methyl ester;Methyl 4-coumarate;3-(4-Hydroxyphenyl)-2-propenoic acid methyl ester;NSC 154578;Methyl 3-(4-hydroxyphenyl)acrylate;Methyl 4-hydroxyphenyl acrylate;M 40446",
    "duplicated_cas_no": "",
    "SMILES": "C(=CC(OC)=O)C1=CC=C(O)C=C1",
    "meta_data": {
        "InChI": "InChI=1S/C10H10O3/c1-13-10(12)7-4-8-2-5-9(11)6-3-8/h2-7,11H,1H3",
        "InChIKey": null,
        "Canonical SMILES": "O=C(OC)C=CC1=CC=C(O)C=C1",
        "Molecular Formula": "C<sub>10</sub>H<sub>10</sub>O<sub>3</sub>",
        "Molecular Mass": "178.18",
        "Melting Point": "139-140 °C"
    }
}