{
    "cas_no": "1735-91-7",
    "key_name": "2-Nitro-4-(trifluoromethyl)benzeneacetic acid",
    "cn_name": null,
    "alternate_name": "Benzeneacetic acid, 2-nitro-4-(trifluoromethyl)-;Acetic acid, (α,α,α-trifluoro-2-nitro-<em>p</em>-tolyl)-;2-Nitro-4-(trifluoromethyl)benzeneacetic acid;2-Nitro-4-(trifluoromethyl)phenylacetic acid;2-[2-Nitro-4-(trifluoromethyl)phenyl]acetic acid",
    "duplicated_cas_no": "",
    "SMILES": "C(C(O)=O)C1=C(N(=O)=O)C=C(C(F)(F)F)C=C1",
    "meta_data": {
        "InChI": "InChI=1S/C9H6F3NO4/c10-9(11,12)6-2-1-5(3-8(14)15)7(4-6)13(16)17/h1-2,4H,3H2,(H,14,15)",
        "InChIKey": null,
        "Canonical SMILES": "O=C(O)CC1=CC=C(C=C1N(=O)=O)C(F)(F)F",
        "Molecular Formula": "C<sub>9</sub>H<sub>6</sub>F<sub>3</sub>NO<sub>4</sub>",
        "Molecular Mass": "249.14",
        "Melting Point": "145-146.5 °C"
    }
}