{
    "cas_no": "2211-94-1",
    "key_name": "4-Methoxyphenyl glycidyl ether",
    "cn_name": "2,3-环氧丙基-4-甲氧基苯基醚;2,3-环氧丙基-4-甲氧基苯基醚;",
    "alternate_name": "Oxirane, 2-[(4-methoxyphenoxy)methyl]-;Benzene, 1-(2,3-epoxypropoxy)-4-methoxy-;Oxirane, [(4-methoxyphenoxy)methyl]-;2-[(4-Methoxyphenoxy)methyl]oxirane;3-(4-Methoxyphenoxy)-1,2-epoxypropane;1-(<em>p</em>-Methoxyphenoxy)-2,3-epoxypropane;<em>p</em>-Methoxyphenyl glycidyl ether;Glycidyl <em>p</em>-methoxyphenyl ether;1,2-Epoxy-3-(<em>p</em>-methoxyphenoxy)propane;Glycidyl 4-methoxyphenyl ether;2-(<em>p</em>-Methoxyphenoxymethyl)oxirane;1-(4-Methoxyphenoxy)-2,3-epoxypropane;2,3-Epoxypropyl <em>p</em>-methoxyphenyl ether;1,2-Epoxy-3-(4-methoxyphenoxy)propane;1-(2,3-Epoxypropoxy)-4-methoxybenzene;(4-Methoxyphenoxymethyl)oxirane;(±)-<em>O</em>-(4-Methoxyphenyl)glycidol;2,3-Epoxypropyl 4-methoxyphenyl ether;4-Methoxyphenyl glycidyl ether;NSC 126709;NSC 26796",
    "duplicated_cas_no": "51469-79-5;73735-75-8",
    "SMILES": "C(OC1=CC=C(OC)C=C1)C2CO2",
    "meta_data": {
        "InChI": "InChI=1S/C10H12O3/c1-11-8-2-4-9(5-3-8)12-6-10-7-13-10/h2-5,10H,6-7H2,1H3",
        "InChIKey": null,
        "Canonical SMILES": "O(C1=CC=C(OCC2OC2)C=C1)C",
        "Molecular Formula": "C<sub>10</sub>H<sub>12</sub>O<sub>3</sub>",
        "Molecular Mass": "180.20",
        "Boiling Point": "135-137 °C @ Press: 2.5 Torr",
        "Melting Point": "48 °C"
    }
}