{
    "cas_no": "77-67-8",
    "key_name": "Ethosuximide",
    "cn_name": "乙琥胺;柴郎丁;",
    "alternate_name": "2,5-Pyrrolidinedione, 3-ethyl-3-methyl-;Succinimide, 2-ethyl-2-methyl-;3-Ethyl-3-methyl-2,5-pyrrolidinedione;C.I. 366;PM 671;Emeside;Ethosuxide;Ethosuximide;3-Ethyl-3-methylpyrrolidine-2,5-dione;2-Ethyl-2-methylsuccinimide;Petinimid;Petnidan;Succimitin;Suxinutin;Zarodan;Zarondan-Saft;Zarontin;α-Ethyl-α-methylsuccinimide;Simatin;Ronton;3-Methyl-3-ethylpyrrolidine-2,5-dione;Pyknolepsinum;Succimal;Capitus;Atysmal;Ethymal;Pemal;Mesentol;Suxilep;Suximal;Etosuximid;Piknolepsin;H 940;Zarondan;3-Ethyl-3-methylsuccinimide;α-Methyl-α-ethylsuccinimide;3-Methyl-3-ethylsuccinimide;2-Methyl-2-ethylsuccinimide;Epileo Petitmal;CN 10395;Peptinimid;NSC 64013;(±)-Ethosuximide;MeSH ID: D005013",
    "duplicated_cas_no": "8060-73-9;39122-18-4",
    "SMILES": "C(C)C1(C)C(=O)NC(=O)C1",
    "meta_data": {
        "InChI": "InChI=1S/C7H11NO2/c1-3-7(2)4-5(9)8-6(7)10/h3-4H2,1-2H3,(H,8,9,10)",
        "InChIKey": null,
        "Canonical SMILES": "O=C1NC(=O)C(C)(C1)CC",
        "Molecular Formula": "C<sub>7</sub>H<sub>11</sub>NO<sub>2</sub>",
        "Molecular Mass": "141.17",
        "Boiling Point": "129 °C",
        "Melting Point": "64.5 °C"
    }
}