{
    "cas_no": "2050-68-2",
    "key_name": "4,4′-Dichlorobiphenyl",
    "cn_name": "4,4-二氯联苯;4,4-二氯联苯PCBNo15;",
    "alternate_name": "1,1′-Biphenyl, 4,4′-dichloro-;Biphenyl, 4,4′-dichloro-;4,4′-Dichloro-1,1′-biphenyl;4,4′-Dichlorobiphenyl;<em>p</em>,<em>p</em>′-Dichlorobiphenyl;<em>p</em>,<em>p</em>-DCBP;PCB 15;NSC 1141;1-Chloro-4-(4-chlorophenyl)benzene",
    "duplicated_cas_no": "",
    "SMILES": "ClC1=CC=C(C=C1)C2=CC=C(Cl)C=C2",
    "meta_data": {
        "InChI": "InChI=1S/C12H8Cl2/c13-11-5-1-9(2-6-11)10-3-7-12(14)8-4-10/h1-8H",
        "InChIKey": null,
        "Canonical SMILES": "ClC=1C=CC(=CC1)C2=CC=C(Cl)C=C2",
        "Molecular Formula": "C<sub>12</sub>H<sub>8</sub>Cl<sub>2</sub>",
        "Molecular Mass": "223.10",
        "Boiling Point": "317 °C",
        "Melting Point": "149.3 °C"
    }
}