{
    "cas_no": "39270-39-8",
    "key_name": "2,3-Dihydro-1,4-benzodioxin-6-methanol",
    "cn_name": null,
    "alternate_name": "1,4-Benzodioxin-6-methanol, 2,3-dihydro-;1,4-Benzodioxan-6-methanol;2,3-Dihydro-1,4-benzodioxin-6-methanol;(2,3-Dihydro-1,4-benzodioxin-6-yl)methanol;(2,3-Dihydrobenzo[<em>b</em>][1,4]dioxin-6-yl)methanol;3,4-Ethylenedioxybenzyl alcohol",
    "duplicated_cas_no": "",
    "SMILES": "C(O)C=1C=C2C(=CC1)OCCO2",
    "meta_data": {
        "InChI": "InChI=1S/C9H10O3/c10-6-7-1-2-8-9(5-7)12-4-3-11-8/h1-2,5,10H,3-4,6H2",
        "InChIKey": null,
        "Canonical SMILES": "OCC1=CC=C2OCCOC2=C1",
        "Molecular Formula": "C<sub>9</sub>H<sub>10</sub>O<sub>3</sub>",
        "Molecular Mass": "166.17",
        "Boiling Point": "165-167 °C @ Press: 8 Torr"
    }
}