{
    "cas_no": "20170-32-5",
    "key_name": "3-(3′,5′-Di-<em>tert</em>-butyl-4′-hydroxyphenyl)propionic acid",
    "cn_name": "3-(3,5-二叔丁基-4-羟基苯基)丙酸;",
    "alternate_name": "Benzenepropanoic acid, 3,5-bis(1,1-dimethylethyl)-4-hydroxy-;Hydrocinnamic acid, 3,5-di-<em>tert</em>-butyl-4-hydroxy-;3,5-Bis(1,1-dimethylethyl)-4-hydroxybenzenepropanoic acid;3-(3,5-Di-<em>tert</em>-butyl-4-hydroxyphenyl)propionic acid;3,5-Di-<em>tert</em>-butyl-4-hydroxyhydrocinnamic acid;β-(4-Hydroxy-3,5-di-<em>tert</em>-butylphenyl)propionic acid;β-(3,5-Di-<em>tert</em>-butyl-4-hydroxyphenyl)propionic acid;3,5-Di-<em>tert</em>-butyl-4-hydroxybenzenepropanoic acid;Fenozan acid;Fenozan;4-Hydroxy-3,5-di-<em>tert</em>-butylphenylpropionic acid;Phenosan;β-(4-Hydroxy-3,5-di-<em>tert</em>-butylphenyl)propanoic acid;Phenozan;3,5-Di-<em>tert</em>-butyl-4-hydroxyphenylpropionic acid;Phenoxan;Fenoxan;Fenoksan;Phenoxan (antioxidant);Irganox 1310;Irganox B 2;3-(3,5-Di-<em>tert</em>-butyl-4-hydroxyphenyl)propanoic acid;3-(3′,5′-Di-<em>tert</em>-butyl-4′-hydroxyphenyl)propionic acid;Antioxidant AO;3-(3′5′-Di-<em>t</em>ert-butyl-4′-hydroxyphenyl) propionic acid;RA14 (pharmaceutical);3-[3,5-Bis(1,1-dimethylethyl)-4-hydroxyphenyl]propionic acid",
    "duplicated_cas_no": "123173-45-5;90804-34-5;173584-97-9;212463-43-9",
    "SMILES": "C(C)(C)(C)C1=C(O)C(C(C)(C)C)=CC(CCC(O)=O)=C1",
    "meta_data": {
        "InChI": "InChI=1S/C17H26O3/c1-16(2,3)12-9-11(7-8-14(18)19)10-13(15(12)20)17(4,5)6/h9-10,20H,7-8H2,1-6H3,(H,18,19)",
        "InChIKey": null,
        "Canonical SMILES": "O=C(O)CCC=1C=C(C(O)=C(C1)C(C)(C)C)C(C)(C)C",
        "Molecular Formula": "C<sub>17</sub>H<sub>26</sub>O<sub>3</sub>",
        "Molecular Mass": "278.39",
        "Melting Point": "172-173 °C"
    }
}