{
    "cas_no": "78-93-3",
    "key_name": "Methyl ethyl ketone",
    "cn_name": "2-丁酮;甲基乙基酮;甲乙酮;甲基丙酮;",
    "alternate_name": "2-Butanone;Butanone;Ethyl methyl ketone;MEK;3-Butanone;Methyl ethyl ketone;Superbutanox M 50",
    "duplicated_cas_no": "135311-02-3",
    "SMILES": "C(CC)(C)=O",
    "meta_data": {
        "InChI": "InChI=1S/C4H8O/c1-3-4(2)5/h3H2,1-2H3",
        "InChIKey": null,
        "Canonical SMILES": "O=C(C)CC",
        "Molecular Formula": "C<sub>4</sub>H<sub>8</sub>O",
        "Molecular Mass": "72.11",
        "Boiling Point": "79.6 °C",
        "Melting Point": "-86 °C",
        "Density": "0.805 g/cm³ @ Temp: 20 °C"
    }
}