{
    "cas_no": "392-71-2",
    "key_name": "2,6-Dichloro-4-fluorophenol",
    "cn_name": "2,6-二氯-4-氟苯酚;2,6-二氯-4-氟苯酚;",
    "alternate_name": "Phenol, 2,6-dichloro-4-fluoro-;2,6-Dichloro-4-fluorophenol;NSC 10257",
    "duplicated_cas_no": "",
    "SMILES": "OC1=C(Cl)C=C(F)C=C1Cl",
    "meta_data": {
        "InChI": "InChI=1S/C6H3Cl2FO/c7-4-1-3(9)2-5(8)6(4)10/h1-2,10H",
        "InChIKey": null,
        "Canonical SMILES": "FC=1C=C(Cl)C(O)=C(Cl)C1",
        "Molecular Formula": "C<sub>6</sub>H<sub>3</sub>Cl<sub>2</sub>FO",
        "Molecular Mass": "180.99",
        "Melting Point": "42 °C"
    }
}