{
    "cas_no": "36735-22-5",
    "key_name": "Quazepam",
    "cn_name": null,
    "alternate_name": "2<em>H</em>-1,4-Benzodiazepine-2-thione, 7-chloro-5-(2-fluorophenyl)-1,3-dihydro-1-(2,2,2-trifluoroethyl)-;7-Chloro-5-(2-fluorophenyl)-1,3-dihydro-1-(2,2,2-trifluoroethyl)-2<em>H</em>-1,4-benzodiazepine-2-thione;7-Chloro-1-(2,2,2-trifluoroethyl)-1,3-dihydro-5-(<em>o</em>-fluorophenyl)-2<em>H</em>-1,4-benzodiazepine-2-thione;7-Chloro-1-(2,2,2-trifluoroethyl)-1,3-dihydro-5-(2-fluorophenyl)-2<em>H</em>-1,4-benzodiazepine-2-thione;Quazepam;Sch 16134;Oniria;Selepam;Prosedar;Dormalin;Quazium;Doral;NSC 309702",
    "duplicated_cas_no": "",
    "SMILES": "C(C(F)(F)F)N1C=2C(C(=NCC1=S)C3=C(F)C=CC=C3)=CC(Cl)=CC2",
    "meta_data": {
        "InChI": "InChI=1S/C17H11ClF4N2S/c18-10-5-6-14-12(7-10)16(11-3-1-2-4-13(11)19)23-8-15(25)24(14)9-17(20,21)22/h1-7H,8-9H2",
        "InChIKey": null,
        "Canonical SMILES": "FC=1C=CC=CC1C2=NCC(=S)N(C=3C=CC(Cl)=CC23)CC(F)(F)F",
        "Molecular Formula": "C<sub>17</sub>H<sub>11</sub>ClF<sub>4</sub>N<sub>2</sub>S",
        "Molecular Mass": "386.79",
        "Melting Point": "137.5-139 °C"
    }
}