{
    "cas_no": "56211-40-6",
    "key_name": "Torasemide",
    "cn_name": "托拉塞米;1-[4-(3-甲基苯基)氨基吡啶-3-基]磺酰-3-异丙基脲;N-[[(1-甲基乙基)氨基]羰基]-4-[(3-甲基苯基)氨;",
    "alternate_name": "3-Pyridinesulfonamide, <em>N</em>-[[(1-methylethyl)amino]carbonyl]-4-[(3-methylphenyl)amino]-;<em>N</em>-[[(1-Methylethyl)amino]carbonyl]-4-[(3-methylphenyl)amino]-3-pyridinesulfonamide;Torasemide;AC 4464;BM 02015;Torsemide;Luprac;Demadex;Torem;Toradiur;Unat;JDL 464;BM 02.015;Dilutol;Tide 10;Examide;1-([4-[(3-Methylphenyl)amino]pyridin-3-yl]sulfonyl)-3-(propan-2-yl)urea;1-[4-(3-Methylanilino)pyridin-3-yl]sulfonyl-3-propan-2-ylurea;UpCard;Isemid;Britomar",
    "duplicated_cas_no": "",
    "SMILES": "S(NC(NC(C)C)=O)(=O)(=O)C=1C(NC2=CC(C)=CC=C2)=CC=NC1",
    "meta_data": {
        "InChI": "InChI=1S/C16H20N4O3S/c1-11(2)18-16(21)20-24(22,23)15-10-17-8-7-14(15)19-13-6-4-5-12(3)9-13/h4-11H,1-3H3,(H,17,19)(H2,18,20,21)",
        "InChIKey": null,
        "Canonical SMILES": "O=C(NC(C)C)NS(=O)(=O)C=1C=NC=CC1NC2=CC=CC(=C2)C",
        "Molecular Formula": "C<sub>16</sub>H<sub>20</sub>N<sub>4</sub>O<sub>3</sub>S",
        "Molecular Mass": "348.42",
        "Melting Point": "163-164 °C"
    }
}