{
    "cas_no": "16554-45-3",
    "key_name": "2-Methoxy-6-nitrobenzenamine",
    "cn_name": "2-氨基-3-硝基苯甲醚;",
    "alternate_name": "Benzenamine, 2-methoxy-6-nitro-;<em>o</em>-Anisidine, 6-nitro-;2-Methoxy-6-nitrobenzenamine;2-Amino-3-nitroanisole;2-Methoxy-6-nitroaniline;6-Nitro-<em>o</em>-anisidine;2-Amino-3-methoxynitrobenzene;6-Methoxy-2-nitroaniline;(2-Methoxy-6-nitrophenyl)amine;2-Amino-3-nitro-1-methoxybenzene",
    "duplicated_cas_no": "",
    "SMILES": "N(=O)(=O)C1=C(N)C(OC)=CC=C1",
    "meta_data": {
        "InChI": "InChI=1S/C7H8N2O3/c1-12-6-4-2-3-5(7(6)8)9(10)11/h2-4H,8H2,1H3",
        "InChIKey": null,
        "Canonical SMILES": "O=N(=O)C=1C=CC=C(OC)C1N",
        "Molecular Formula": "C<sub>7</sub>H<sub>8</sub>N<sub>2</sub>O<sub>3</sub>",
        "Molecular Mass": "168.15",
        "Melting Point": "67 °C"
    }
}