{
    "cas_no": "14126-40-0",
    "key_name": "(<em>T</em>-4)-Dichlorobis(triphenylphosphine)cobalt",
    "cn_name": null,
    "alternate_name": "Cobalt, dichlorobis(triphenylphosphine)-, (<em>T</em>-4)-;Cobalt, dichlorobis(triphenylphosphine)-;(<em>T</em>-4)-Dichlorobis(triphenylphosphine)cobalt;Cobaltous chloride-triphenylphosphine complex (1:2);Dichlorobis(triphenylphosphine)cobalt;Bis(triphenylphosphine)cobalt dichloride;Dichlorobis(triphenylphosphine)cobalt(II);NSC 303234",
    "duplicated_cas_no": "",
    "SMILES": "[P]([Co+2]([P](C1=CC=CC=C1)(C2=CC=CC=C2)C3=CC=CC=C3)([Cl-])[Cl-])(C4=CC=CC=C4)(C5=CC=CC=C5)C6=CC=CC=C6",
    "meta_data": {
        "InChI": "InChI=1S/2C18H15P.2ClH.Co/c2*1-4-10-16(11-5-1)19(17-12-6-2-7-13-17)18-14-8-3-9-15-18;;;/h2*1-15H;2*1H;/q;;;;+2/p-2",
        "InChIKey": null,
        "Canonical SMILES": "[Cl-][Co+2]([Cl-])([P](C=1C=CC=CC1)(C=2C=CC=CC2)C=3C=CC=CC3)[P](C=4C=CC=CC4)(C=5C=CC=CC5)C=6C=CC=CC6",
        "Molecular Formula": "C<sub>36</sub>H<sub>30</sub>Cl<sub>2</sub>CoP<sub>2</sub>",
        "Molecular Mass": "",
        "Melting Point": "&gt;250 °C"
    }
}