{
    "cas_no": "106-97-8",
    "key_name": "Butane",
    "cn_name": "正丁烷;丁烷;甲基乙基甲烷;",
    "alternate_name": "Butane;<em>n</em>-Butane;Diethyl;Liquefied petroleum gas;LPG;R 600;R 600 (alkane);A 21;HC 600 (hydrocarbon);HC 600;A 21 (blowing agent);A 17",
    "duplicated_cas_no": "",
    "SMILES": "C(CC)C",
    "meta_data": {
        "InChI": "InChI=1S/C4H10/c1-3-4-2/h3-4H2,1-2H3",
        "InChIKey": null,
        "Canonical SMILES": "CCCC",
        "Molecular Formula": "C<sub>4</sub>H<sub>10</sub>",
        "Molecular Mass": "58.12",
        "Boiling Point": "-0.50 °C",
        "Melting Point": "-138.2 °C",
        "Density": "0.5788 g/cm³ @ Temp: 20 °C"
    }
}