{
    "cas_no": "642-72-8",
    "key_name": "Benzydamine",
    "cn_name": "苄达明;1-苄基-3-[3-(二甲基氨基)丙氧基]-1H-吲唑;",
    "alternate_name": "1-Propanamine, <em>N</em>,<em>N</em>-dimethyl-3-[[1-(phenylmethyl)-1<em>H</em>-indazol-3-yl]oxy]-;1<em>H</em>-Indazole, 1-benzyl-3-[3-(dimethylamino)propoxy]-;<em>N</em>,<em>N</em>-Dimethyl-3-[[1-(phenylmethyl)-1<em>H</em>-indazol-3-yl]oxy]-1-propanamine;Benzindamine;1-Benzyl-3-[3-(dimethylamino)propoxy]-1<em>H</em>-indazole;Benzidamine;Benzydamine;1-Benzyl-3-dimethylaminopropoxy-1<em>H</em>-indazole;1-Benzyl-3-(γ-dimethylaminopropoxy)-1<em>H</em>-indazole;1-Benzyl-3-[3-(dimethylamino)propoxy]indazole;3-(1-Benzylindazol-3-yl)oxy-<em>N</em>,<em>N</em>-dimethylpropan-1-amine;MeSH ID: D001591",
    "duplicated_cas_no": "",
    "SMILES": "C(N1C=2C(C(OCCCN(C)C)=N1)=CC=CC2)C3=CC=CC=C3",
    "meta_data": {
        "InChI": "InChI=1S/C19H23N3O/c1-21(2)13-8-14-23-19-17-11-6-7-12-18(17)22(20-19)15-16-9-4-3-5-10-16/h3-7,9-12H,8,13-15H2,1-2H3",
        "InChIKey": null,
        "Canonical SMILES": "N1=C(OCCCN(C)C)C=2C=CC=CC2N1CC=3C=CC=CC3",
        "Molecular Formula": "C<sub>19</sub>H<sub>23</sub>N<sub>3</sub>O",
        "Molecular Mass": "309.41",
        "Boiling Point": "160 °C",
        "Melting Point": "160 °C"
    }
}