{
    "cas_no": "15538-93-9",
    "key_name": "Trichloro[3-[1,2,2,2-tetrafluoro-1-(trifluoromethyl)ethoxy]propyl]silane",
    "cn_name": null,
    "alternate_name": "Silane, trichloro[3-[1,2,2,2-tetrafluoro-1-(trifluoromethyl)ethoxy]propyl]-;Silane, trichloro[3-[tetrafluoro-1-(trifluoromethyl)ethoxy]propyl]-;Trichloro[3-[1,2,2,2-tetrafluoro-1-(trifluoromethyl)ethoxy]propyl]silane;3-(Heptafluoroisopropoxy)propyltrichlorosilane;Trichloro[3-(heptafluoroisopropoxy)propyl]silane;NSC 139839",
    "duplicated_cas_no": "",
    "SMILES": "C(C(F)(F)F)(C(F)(F)F)(OCCC[Si](Cl)(Cl)Cl)F",
    "meta_data": {
        "InChI": "InChI=1S/C6H6Cl3F7OSi/c7-18(8,9)3-1-2-17-4(10,5(11,12)13)6(14,15)16/h1-3H2",
        "InChIKey": null,
        "Canonical SMILES": "FC(F)(F)C(F)(OCCC[Si](Cl)(Cl)Cl)C(F)(F)F",
        "Molecular Formula": "C<sub>6</sub>H<sub>6</sub>Cl<sub>3</sub>F<sub>7</sub>OSi",
        "Molecular Mass": "361.54",
        "Boiling Point": "85-87 °C @ Press: 35 Torr",
        "Density": "1.497 g/cm³"
    }
}