{
    "cas_no": "76-15-3",
    "key_name": "1-Chloro-1,1,2,2,2-pentafluoroethane",
    "cn_name": "五氟氯乙烷;氯五氟乙烷;",
    "alternate_name": "Ethane, 1-chloro-1,1,2,2,2-pentafluoro-;Ethane, chloropentafluoro-;1-Chloro-1,1,2,2,2-pentafluoroethane;F 115;Freon 115;Genetron 115;R 115;Chloroperfluoroethane;Pentafluorochloroethane;FC 115;Propellant 115;Fluorocarbon 115;Monochloropentafluoroethane;Perfluoroethyl chloride;1-Chloropentafluoroethane;Pentafluoroethyl chloride;CFC 115;FKW 115;Refrigerant R115",
    "duplicated_cas_no": "12770-91-1",
    "SMILES": "C(C(F)(F)F)(Cl)(F)F",
    "meta_data": {
        "InChI": "InChI=1S/C2ClF5/c3-1(4,5)2(6,7)8",
        "InChIKey": null,
        "Canonical SMILES": "FC(F)(F)C(F)(F)Cl",
        "Molecular Formula": "C<sub>2</sub>ClF<sub>5</sub>",
        "Molecular Mass": "154.47",
        "Boiling Point": "-37.7 °C @ Press: 760 Torr",
        "Melting Point": "-106 °C",
        "Density": "1.3 g/cm³"
    }
}