{
    "cas_no": "30165-96-9",
    "key_name": "3-Chloro-4-morpholino-1,2,5-thiadiazole",
    "cn_name": "3-氯-4-吗啉基-1,2,5-噻二唑;",
    "alternate_name": "Morpholine, 4-(4-chloro-1,2,5-thiadiazol-3-yl)-;1,2,5-Thiadiazole, morpholine deriv.;4-(4-Chloro-1,2,5-thiadiazol-3-yl)morpholine;3-Morpholino-4-chloro-1,2,5-thiadiazole;3-Chloro-4-morpholino-1,2,5-thiadiazole;3-Chloro-4-morpholin-4-yl-1,2,5-thiadiazole",
    "duplicated_cas_no": "",
    "SMILES": "ClC=1C(=NSN1)N2CCOCC2",
    "meta_data": {
        "InChI": "InChI=1S/C6H8ClN3OS/c7-5-6(9-12-8-5)10-1-3-11-4-2-10/h1-4H2",
        "InChIKey": null,
        "Canonical SMILES": "ClC1=NSN=C1N2CCOCC2",
        "Molecular Formula": "C<sub>6</sub>H<sub>8</sub>ClN<sub>3</sub>OS",
        "Molecular Mass": "205.67",
        "Melting Point": "43-45 °C"
    }
}