{
    "cas_no": "35212-99-8",
    "key_name": "Benzo[<em>b</em>]thiophene-2-carboxylic acid, 5,6-dimethoxy-, methyl ester",
    "cn_name": null,
    "alternate_name": "Benzo[<em>b</em>]thiophene-2-carboxylic acid, 5,6-dimethoxy-, methyl ester;5,6-Dimethoxybenzo[<em>b</em>]thiophene-2-carboxylic acid methyl ester;Methyl 5,6-dimethoxybenzo[<em>b</em>]thiophene-2-carboxylate",
    "duplicated_cas_no": "",
    "SMILES": "C(OC)(=O)C1=CC=2C(S1)=CC(OC)=C(OC)C2",
    "meta_data": {
        "InChI": "InChI=1S/C12H12O4S/c1-14-8-4-7-5-11(12(13)16-3)17-10(7)6-9(8)15-2/h4-6H,1-3H3",
        "InChIKey": null,
        "Canonical SMILES": "O=C(OC)C=1SC=2C=C(OC)C(OC)=CC2C1",
        "Molecular Formula": "C<sub>12</sub>H<sub>12</sub>O<sub>4</sub>S",
        "Molecular Mass": "252.29",
        "Melting Point": "157-158 °C"
    }
}