{
    "cas_no": "1083-27-8",
    "key_name": "Hexyl 4-hydroxybenzoate",
    "cn_name": null,
    "alternate_name": "Benzoic acid, 4-hydroxy-, hexyl ester;Benzoic acid, <em>p</em>-hydroxy-, hexyl ester;Hexyl 4-hydroxybenzoate;Hexyl <em>p</em>-hydroxybenzoate;<em>n</em>-Hexyl 4-hydroxybenzoate;Hexylparaben;UA 12690;4-Hydroxybenzoic acid hexyl ester",
    "duplicated_cas_no": "",
    "SMILES": "C(OCCCCCC)(=O)C1=CC=C(O)C=C1",
    "meta_data": {
        "InChI": "InChI=1S/C13H18O3/c1-2-3-4-5-10-16-13(15)11-6-8-12(14)9-7-11/h6-9,14H,2-5,10H2,1H3",
        "InChIKey": null,
        "Canonical SMILES": "O=C(OCCCCCC)C1=CC=C(O)C=C1",
        "Molecular Formula": "C<sub>13</sub>H<sub>18</sub>O<sub>3</sub>",
        "Molecular Mass": "222.28",
        "Melting Point": "48.6 °C"
    }
}