{
    "cas_no": "548-61-8",
    "key_name": "4,4′,4′′-Methylidynetris[benzenamine]",
    "cn_name": null,
    "alternate_name": "Benzenamine, 4,4′,4′′-methylidynetris-;Aniline, 4,4′,4′′-methylidynetri-;4,4′,4′′-Methylidynetris[benzenamine];Leucoparafuchsine;C.I. Basic Red 9, leuco-;Leucoparafuchsin;Tris(4-aminophenyl)methane;4,4′,4′′-Methylidynetrianiline;<em>p</em>,<em>p</em>′,<em>p</em>′′-Triaminotriphenylmethane;4,4′,4′′-Triaminotriphenylmethane;Leucopararosaniline;Pararosaniline, leuco base;Tris(<em>p</em>-aminophenyl)methane;Pararosaniline base;4,4′,4′′-Methylidenetris(benzenamine)",
    "duplicated_cas_no": "",
    "SMILES": "C(C1=CC=C(N)C=C1)(C2=CC=C(N)C=C2)C3=CC=C(N)C=C3",
    "meta_data": {
        "InChI": "InChI=1S/C19H19N3/c20-16-7-1-13(2-8-16)19(14-3-9-17(21)10-4-14)15-5-11-18(22)12-6-15/h1-12,19H,20-22H2",
        "InChIKey": null,
        "Canonical SMILES": "NC1=CC=C(C=C1)C(C2=CC=C(N)C=C2)C3=CC=C(N)C=C3",
        "Molecular Formula": "C<sub>19</sub>H<sub>19</sub>N<sub>3</sub>",
        "Molecular Mass": "289.37",
        "Melting Point": "207-208.5 °C"
    }
}