{
    "cas_no": "4687-25-6",
    "key_name": "3-Benzofurancarboxaldehyde",
    "cn_name": null,
    "alternate_name": "3-Benzofurancarboxaldehyde;3-Formylbenzo[<em>b</em>]furan;1-Benzofuran-3-carbaldehyde",
    "duplicated_cas_no": "",
    "SMILES": "C(=O)C=1C=2C(OC1)=CC=CC2",
    "meta_data": {
        "InChI": "InChI=1S/C9H6O2/c10-5-7-6-11-9-4-2-1-3-8(7)9/h1-6H",
        "InChIKey": null,
        "Canonical SMILES": "O=CC1=COC=2C=CC=CC21",
        "Molecular Formula": "C<sub>9</sub>H<sub>6</sub>O<sub>2</sub>",
        "Molecular Mass": "146.14",
        "Boiling Point": "145 °C @ Press: 35 Torr",
        "Melting Point": "39 °C"
    }
}