{
    "cas_no": "1559-87-1",
    "key_name": "1,3-Dibromo-2,4,5,6-tetrafluorobenzene",
    "cn_name": "1,3-二溴四氟苯;",
    "alternate_name": "Benzene, 1,3-dibromo-2,4,5,6-tetrafluoro-;Benzene, 1,3-dibromotetrafluoro-;1,3-Dibromo-2,4,5,6-tetrafluorobenzene;1,3-Dibromotetrafluorobenzene;<em>m</em>-Dibromoperfluorobenzene;<em>m</em>-Dibromotetrafluorobenzene;NSC 96999",
    "duplicated_cas_no": "",
    "SMILES": "BrC1=C(F)C(Br)=C(F)C(F)=C1F",
    "meta_data": {
        "InChI": "InChI=1S/C6Br2F4/c7-1-3(9)2(8)5(11)6(12)4(1)10",
        "InChIKey": null,
        "Canonical SMILES": "FC=1C(F)=C(Br)C(F)=C(Br)C1F",
        "Molecular Formula": "C<sub>6</sub>Br<sub>2</sub>F<sub>4</sub>",
        "Molecular Mass": "307.87",
        "Boiling Point": "86-88 °C @ Press: 18 Torr",
        "Melting Point": "5-7 °C"
    }
}