{
    "cas_no": "108-38-3",
    "key_name": "<em>m</em>-Xylene",
    "cn_name": "间二甲苯;1,3-二甲苯;1,3-二甲基苯;",
    "alternate_name": "Benzene, 1,3-dimethyl-;<em>m</em>-Xylene;1,3-Dimethylbenzene;<em>m</em>-Dimethylbenzene;1,3-Xylene;<em>m</em>-Methyltoluene;<em>m</em>-Xylol;NSC 61769;3-Methyltoluene",
    "duplicated_cas_no": "",
    "SMILES": "CC1=CC(C)=CC=C1",
    "meta_data": {
        "InChI": "InChI=1S/C8H10/c1-7-4-3-5-8(2)6-7/h3-6H,1-2H3",
        "InChIKey": null,
        "Canonical SMILES": "C=1C=C(C=C(C1)C)C",
        "Molecular Formula": "C<sub>8</sub>H<sub>10</sub>",
        "Molecular Mass": "106.17",
        "Boiling Point": "139.3 °C",
        "Melting Point": "-47.4 °C",
        "Density": "0.8684 g/cm³ @ Temp: 15 °C"
    }
}