{
    "cas_no": "7699-18-5",
    "key_name": "5-Methoxyoxindole",
    "cn_name": "5-甲氧基吲哚-2-酮;",
    "alternate_name": "2<em>H</em>-Indol-2-one, 1,3-dihydro-5-methoxy-;2-Indolinone, 5-methoxy-;1,3-Dihydro-5-methoxy-2<em>H</em>-indol-2-one;5-Methoxy-2-oxindole;5-Methoxyoxindole;5-Methoxy-2-oxoindoline;5-Methoxy-2-indolinone;1,3-Dihydro-5-methoxyindol-2-one;5-Methoxy-1,3-dihydroindol-2-one",
    "duplicated_cas_no": "",
    "SMILES": "O=C1NC=2C(=CC(OC)=CC2)C1",
    "meta_data": {
        "InChI": "InChI=1S/C9H9NO2/c1-12-7-2-3-8-6(4-7)5-9(11)10-8/h2-4H,5H2,1H3,(H,10,11)",
        "InChIKey": null,
        "Canonical SMILES": "O=C1NC2=CC=C(OC)C=C2C1",
        "Molecular Formula": "C<sub>9</sub>H<sub>9</sub>NO<sub>2</sub>",
        "Molecular Mass": "163.17",
        "Melting Point": "152-154 °C"
    }
}