{
    "cas_no": "120-45-6",
    "key_name": "1-Phenylethyl propionate",
    "cn_name": "alpha-甲基苯甲醇丙酸酯;丙酸苏合香酯;",
    "alternate_name": "Benzenemethanol, α-methyl-, 1-propanoate;Benzyl alcohol, α-methyl-, propionate;Benzenemethanol, α-methyl-, propanoate;α-Methylbenzyl propionate;Methylphenylcarbinyl propionate;1-Phenylethyl propionate;Styrallyl propionate;(±)-1-Phenylethyl propionate;NSC 406571;1-Phenylethanol propionic acid ester;1-Phenylethyl propanoate",
    "duplicated_cas_no": "117405-47-7",
    "SMILES": "C(OC(CC)=O)(C)C1=CC=CC=C1",
    "meta_data": {
        "InChI": "InChI=1S/C11H14O2/c1-3-11(12)13-9(2)10-7-5-4-6-8-10/h4-9H,3H2,1-2H3",
        "InChIKey": null,
        "Canonical SMILES": "O=C(OC(C=1C=CC=CC1)C)CC",
        "Molecular Formula": "C<sub>11</sub>H<sub>14</sub>O<sub>2</sub>",
        "Molecular Mass": "178.23",
        "Boiling Point": "91-92 °C @ Press: 5 Torr",
        "Density": "1.0074 g/cm³ @ Temp: 20 °C"
    }
}