{
    "cas_no": "959122-11-3",
    "key_name": "(1<em>R</em>,2<em>R</em>)-2-[[4′-[[(Phenylamino)carbonyl]amino][1,1′-biphenyl]-4-yl]carbonyl]cyclopentanecarboxylic acid",
    "cn_name": "DGAT-1 抑制剂;",
    "alternate_name": "Cyclopentanecarboxylic acid, 2-[[4′-[[(phenylamino)carbonyl]amino][1,1′-biphenyl]-4-yl]carbonyl]-, (1<em>R</em>,2<em>R</em>)-;(1<em>R</em>,2<em>R</em>)-2-[[4′-[[(Phenylamino)carbonyl]amino][1,1′-biphenyl]-4-yl]carbonyl]cyclopentanecarboxylic acid;A 922500",
    "duplicated_cas_no": "",
    "SMILES": "C(=O)([C@H]1[C@H](C(O)=O)CCC1)C2=CC=C(C=C2)C3=CC=C(NC(NC4=CC=CC=C4)=O)C=C3",
    "meta_data": {
        "InChI": "InChI=1S/C26H24N2O4/c29-24(22-7-4-8-23(22)25(30)31)19-11-9-17(10-12-19)18-13-15-21(16-14-18)28-26(32)27-20-5-2-1-3-6-20/h1-3,5-6,9-16,22-23H,4,7-8H2,(H,30,31)(H2,27,28,32)/t22-,23-/m1/s1",
        "InChIKey": null,
        "Canonical SMILES": "O=C(O)C1CCCC1C(=O)C2=CC=C(C=C2)C=3C=CC(=CC3)NC(=O)NC=4C=CC=CC4",
        "Molecular Formula": "C<sub>26</sub>H<sub>24</sub>N<sub>2</sub>O<sub>4</sub>",
        "Molecular Mass": "428.48",
        "Melting Point": "187-189 °C"
    }
}