{
    "cas_no": "66-84-2",
    "key_name": "Glucosamine hydrochloride",
    "cn_name": "D-氨基葡萄糖盐酸盐;",
    "alternate_name": "<span class=\"text-smallcaps\">D</span>-Glucose, 2-amino-2-deoxy-, hydrochloride (1:1);<span class=\"text-smallcaps\">D</span>-Glucose, 2-amino-2-deoxy-, hydrochloride;Glucosamine hydrochloride;<span class=\"text-smallcaps\">D</span>-Glucosamine hydrochloride;<span class=\"text-smallcaps\">D</span>-(+)-Glucosamine hydrochloride;2-Amino-2-deoxy-<span class=\"text-smallcaps\">D</span>-glucose hydrochloride;Chitosamine hydrochloride;Cosamin;2-Deoxy-2-amino-<span class=\"text-smallcaps\">D</span>-glucose hydrochloride;<span class=\"text-smallcaps\">D</span>-Glucosamine chloride;NSC 234443;NSC 758;Koyo Glucosamine MG;Glucosamine FM",
    "duplicated_cas_no": "2002-25-7;3615-52-9;34673-29-5;66573-21-5;151799-45-0;214046-22-7;581076-92-8;619328-18-6;885318-70-7;1029131-60-9;1334320-70-5;2378838-02-7;2411172-99-9",
    "SMILES": "[C@H]([C@@H]([C@@H](CO)O)O)([C@H](C=O)N)O.Cl",
    "meta_data": {
        "InChI": "InChI=1S/C6H13NO5.ClH/c7-3(1-8)5(11)6(12)4(10)2-9;/h1,3-6,9-12H,2,7H2;1H/t3-,4+,5+,6+;/m0./s1",
        "InChIKey": null,
        "Canonical SMILES": "Cl.O=CC(N)C(O)C(O)C(O)CO",
        "Molecular Formula": "C<sub>6</sub>H<sub>13</sub>NO<sub>5</sub>.ClH",
        "Molecular Mass": "",
        "Melting Point": "217.857 °C"
    }
}