{
    "cas_no": "139180-30-6",
    "key_name": "4-[2-[7-Amino-2-(2-furyl)[1,2,4]triazolo[2,3-<em>a</em>][1,3,5]triazin-5-ylamino]ethyl]phenol",
    "cn_name": null,
    "alternate_name": "Phenol, 4-[2-[[7-amino-2-(2-furanyl)[1,2,4]triazolo[1,5-<em>a</em>][1,3,5]triazin-5-yl]amino]ethyl]-;[1,2,4]Triazolo[1,5-<em>a</em>][1,3,5]triazine, phenol deriv.;4-[2-[[7-Amino-2-(2-furanyl)[1,2,4]triazolo[1,5-<em>a</em>][1,3,5]triazin-5-yl]amino]ethyl]phenol;ZM 241385;4-[2-[7-Amino-2-(2-furyl)[1,2,4]triazolo[2,3-<em>a</em>][1,3,5]triazin-5-ylamino]ethyl]phenol;ZM 241358",
    "duplicated_cas_no": "",
    "SMILES": "NC=1N2C(=NC(=N2)C3=CC=CO3)N=C(NCCC4=CC=C(O)C=C4)N1",
    "meta_data": {
        "InChI": "InChI=1S/C16H15N7O2/c17-14-20-15(18-8-7-10-3-5-11(24)6-4-10)21-16-19-13(22-23(14)16)12-2-1-9-25-12/h1-6,9,24H,7-8H2,(H3,17,18,19,20,21,22)",
        "InChIKey": null,
        "Canonical SMILES": "OC1=CC=C(C=C1)CCNC2=NC3=NC(=NN3C(=N2)N)C=4OC=CC4",
        "Molecular Formula": "C<sub>16</sub>H<sub>15</sub>N<sub>7</sub>O<sub>2</sub>",
        "Molecular Mass": "337.34",
        "Melting Point": "229-231 °C"
    }
}