{
    "cas_no": "2162-74-5",
    "key_name": "Bis(2,6-diisopropylphenyl)carbodiimide",
    "cn_name": null,
    "alternate_name": "Benzenamine, <em>N</em>,<em>N</em>′-methanetetraylbis[2,6-bis(1-methylethyl)-;Carbodiimide, bis(2,6-diisopropylphenyl)-;<em>N</em>,<em>N</em>′-Methanetetraylbis[2,6-bis(1-methylethyl)benzenamine];<em>N</em>,<em>N</em>′-Bis(2,6-diisopropylphenyl)carbodiimide;Bis(<em>o</em>,<em>o</em>′-diisopropylphenyl)carbodiimide;Bis(2,6-diisopropylphenyl)carbodiimide;Carbo D;Stabaxol 1;Stabaxol I;<em>N</em>,<em>N</em>′-(2,2′,6,6′-Tetraisopropyldiphenyl)carbodiimide;Raschig 7000;<em>N</em>,<em>N</em>′-Di-2,6-diisopropylphenylcarbodiimide;Stabilizer 7000;Stabilizer 7000F;Additin RC 8500;Stabaxol P 1;EN 160;Stabaxol I-LF;Stabaxol EN 160;DIPC;2,2′,6,6′-Tetraisopropyldiphenylcarbodiimide;Hycasyl 1001;R 7000;S 7000;SY 7000;Zika AH 362;Stabaxol I-CF;Staboxol I;Chinox SA 1;SA 1;AW 700;Austab SW 100;AHA 98;SDA 3600;Eustab HS 700;AH 362",
    "duplicated_cas_no": "85800-79-9;1009809-93-1;1702284-28-3;1801605-64-0;2364331-99-5",
    "SMILES": "N(=C=NC1=C(C(C)C)C=CC=C1C(C)C)C2=C(C(C)C)C=CC=C2C(C)C",
    "meta_data": {
        "InChI": "InChI=1S/C25H34N2/c1-16(2)20-11-9-12-21(17(3)4)24(20)26-15-27-25-22(18(5)6)13-10-14-23(25)19(7)8/h9-14,16-19H,1-8H3",
        "InChIKey": null,
        "Canonical SMILES": "C(=NC=1C(=CC=CC1C(C)C)C(C)C)=NC=2C(=CC=CC2C(C)C)C(C)C",
        "Molecular Formula": "C<sub>25</sub>H<sub>34</sub>N<sub>2</sub>",
        "Molecular Mass": "362.55",
        "Boiling Point": "152-162 °C @ Press: 0.05 Torr",
        "Melting Point": "47-49.5 °C"
    }
}