{
    "cas_no": "41263-94-9",
    "key_name": "2′-Fucosyllactose",
    "cn_name": null,
    "alternate_name": "<span class=\"text-smallcaps\">D</smallcap>-Glucose, <em>O</em>-6-deoxy-α-<smallcap>L</smallcap>-galactopyranosyl-(1→2)-<em>O</em>-β-<smallcap>D</span>-galactopyranosyl-(1→4)-;Lactose, 2′-<em>O</em>-fucosyl-;<em>O</em>-6-Deoxy-α-<span class=\"text-smallcaps\">L</smallcap>-galactopyranosyl-(1→2)-<em>O</em>-β-<smallcap>D</smallcap>-galactopyranosyl-(1→4)-<smallcap>D</span>-glucose;2′-Fucosyllactose;2′-<em>O</em>-Fucosyllactose;Glycare 2′FL 9000;Aequival",
    "duplicated_cas_no": "99518-19-1;106759-35-7;109232-64-6;41536-43-0;474013-41-7",
    "SMILES": "O([C@@H]([C@@H]([C@H](C=O)O)O)[C@@H](CO)O)[C@H]1[C@H](O[C@H]2[C@@H](O)[C@H](O)[C@H](O)[C@H](C)O2)[C@@H](O)[C@@H](O)[C@@H](CO)O1",
    "meta_data": {
        "InChI": "InChI=1S/C18H32O15/c1-5-9(24)12(27)14(29)17(30-5)33-16-13(28)11(26)8(4-21)31-18(16)32-15(7(23)3-20)10(25)6(22)2-19/h2,5-18,20-29H,3-4H2,1H3/t5-,6-,7+,8+,9+,10+,11-,12+,13-,14-,15+,16+,17-,18-/m0/s1",
        "InChIKey": null,
        "Canonical SMILES": "O=CC(O)C(O)C(OC1OC(CO)C(O)C(O)C1OC2OC(C)C(O)C(O)C2O)C(O)CO",
        "Molecular Formula": "C<sub>18</sub>H<sub>32</sub>O<sub>15</sub>",
        "Molecular Mass": "488.44",
        "Melting Point": "230-231 °C (decomp)",
        "Density": "1.548 g/cm³"
    }
}