{
    "cas_no": "37577-28-9",
    "key_name": "(+)-Phenylpropanolamine",
    "cn_name": "左旋去甲麻黄碱;",
    "alternate_name": "Benzenemethanol, α-[(1<em>R</em>)-1-aminoethyl]-, (α<em>S</em>)-;Benzenemethanol, α-(1-aminoethyl)-, [<em>S</em>-(<em>R</em>*,<em>S</em>*)]-;(α<em>S</em>)-α-[(1<em>R</em>)-1-Aminoethyl]benzenemethanol;(+)-Norephedrine;(2<em>R</em>,3<em>S</em>)-3-Phenyl-3-hydroxy-2-aminopropane;<em>d</em>-Phenylpropanolamine;(+)-Norephedrin;<em>d</em>-Norephedrine;(1<em>S</em>,2<em>R</em>)-Norephedrine;(1<em>S</em>,2<em>R</em>)-(+)-Norephedrine;(1<em>S</em>,2<em>R</em>)-2-Amino-1-phenylpropanol;(+)-Phenylpropanolamine;<span class=\"text-smallcaps\">D</span>-(+)-Norephedrine;(+)-(1<em>S</em>,2<em>R</em>)-Norephedrine;(1S,2R)-2-Methyl-1-phenyl-2-aminoethanol;(1<em>R</em>,2<em>S</em>)-2-Hydroxy-2-phenyl-1-methyl-1-aminoethane;(1<em>S</em>,2<em>R</em>)-2-Amino-1-phenyl-1-propanol;(1<em>S</em>,2<em>R</em>)-2-Amino-1-phenylpropan-1-ol",
    "duplicated_cas_no": "753492-51-2",
    "SMILES": "[C@H]([C@@H](C)N)(O)C1=CC=CC=C1",
    "meta_data": {
        "InChI": "InChI=1S/C9H13NO/c1-7(10)9(11)8-5-3-2-4-6-8/h2-7,9,11H,10H2,1H3/t7-,9-/m1/s1",
        "InChIKey": null,
        "Canonical SMILES": "OC(C=1C=CC=CC1)C(N)C",
        "Molecular Formula": "C<sub>9</sub>H<sub>13</sub>NO",
        "Molecular Mass": "151.21",
        "Melting Point": "51-54 °C"
    }
}