{
    "cas_no": "548-37-8",
    "key_name": "Verbenalin",
    "cn_name": null,
    "alternate_name": "Cyclopenta[<em>c</em>]pyran-4-carboxylic acid, 1-(β-<span class=\"text-smallcaps\">D</span>-glucopyranosyloxy)-1,4a,5,6,7,7a-hexahydro-7-methyl-5-oxo-, methyl ester, (1<em>S</em>,4a<em>S</em>,7<em>S</em>,7a<em>R</em>)-;Verbenalin;Cyclopenta[<em>c</em>]pyran-4-carboxylic acid, 1-(β-<span class=\"text-smallcaps\">D</span>-glucopyranosyloxy)-1,4a,5,6,7,7a-hexahydro-7-methyl-5-oxo-, methyl ester, [1<em>S</em>-(1α,4aα,7α,7aα)]-;Verbenaloside;Cornin (glycoside);Cornin;NSC 118055;5-Deoxyhastatoside",
    "duplicated_cas_no": "1391-15-7",
    "SMILES": "O([C@H]1[C@]2([C@@](C(C(OC)=O)=CO1)(C(=O)C[C@@H]2C)[H])[H])[C@@H]3O[C@H](CO)[C@@H](O)[C@H](O)[C@H]3O",
    "meta_data": {
        "InChI": "InChI=1S/C17H24O10/c1-6-3-8(19)11-7(15(23)24-2)5-25-16(10(6)11)27-17-14(22)13(21)12(20)9(4-18)26-17/h5-6,9-14,16-18,20-22H,3-4H2,1-2H3/t6-,9+,10+,11-,12+,13-,14+,16-,17-/m0/s1",
        "InChIKey": null,
        "Canonical SMILES": "O=C(OC)C1=COC(OC2OC(CO)C(O)C(O)C2O)C3C1C(=O)CC3C",
        "Molecular Formula": "C<sub>17</sub>H<sub>24</sub>O<sub>10</sub>",
        "Molecular Mass": "388.37",
        "Melting Point": "183 °C"
    }
}