{
    "cas_no": "10304-16-2",
    "key_name": "3-Thietanol",
    "cn_name": null,
    "alternate_name": "3-Thietanol;Thiacyclobutan-3-ol;NSC 101854",
    "duplicated_cas_no": "",
    "SMILES": "OC1CSC1",
    "meta_data": {
        "InChI": "InChI=1S/C3H6OS/c4-3-1-5-2-3/h3-4H,1-2H2",
        "InChIKey": null,
        "Canonical SMILES": "OC1CSC1",
        "Molecular Formula": "C<sub>3</sub>H<sub>6</sub>OS",
        "Molecular Mass": "90.14",
        "Boiling Point": "57 °C",
        "Density": "1.2130 g/cm³ @ Temp: 20 °C"
    }
}