{
    "cas_no": "2144-08-3",
    "key_name": "2,3,4-Trihydroxybenzaldehyde",
    "cn_name": "2,3,4-三羟基苯甲醛;",
    "alternate_name": "Benzaldehyde, 2,3,4-trihydroxy-;2,3,4-Trihydroxybenzaldehyde;3,4-Dihydroxysalicylaldehyde;NSC 22595;2,3,4-Trihydroxybenzaldeyde",
    "duplicated_cas_no": "",
    "SMILES": "C(=O)C1=C(O)C(O)=C(O)C=C1",
    "meta_data": {
        "InChI": "InChI=1S/C7H6O4/c8-3-4-1-2-5(9)7(11)6(4)10/h1-3,9-11H",
        "InChIKey": null,
        "Canonical SMILES": "O=CC1=CC=C(O)C(O)=C1O",
        "Molecular Formula": "C<sub>7</sub>H<sub>6</sub>O<sub>4</sub>",
        "Molecular Mass": "154.12",
        "Melting Point": "158 °C"
    }
}