{
    "cas_no": "719-80-2",
    "key_name": "Ethyl <em>P</em>,<em>P</em>-diphenylphosphinite",
    "cn_name": "二苯基乙氧基膦;",
    "alternate_name": "Phosphinous acid, <em>P</em>,<em>P</em>-diphenyl-, ethyl ester;Phosphinous acid, diphenyl-, ethyl ester;Ethyl <em>P</em>,<em>P</em>-diphenylphosphinite;Diphenylphosphinous acid ethyl ester;Ethoxydiphenylphosphine;Diphenylethoxyphosphine;Ethyl diphenylphosphinite",
    "duplicated_cas_no": "",
    "SMILES": "P(OCC)(C1=CC=CC=C1)C2=CC=CC=C2",
    "meta_data": {
        "InChI": "InChI=1S/C14H15OP/c1-2-15-16(13-9-5-3-6-10-13)14-11-7-4-8-12-14/h3-12H,2H2,1H3",
        "InChIKey": null,
        "Canonical SMILES": "O(P(C=1C=CC=CC1)C=2C=CC=CC2)CC",
        "Molecular Formula": "C<sub>14</sub>H<sub>15</sub>OP",
        "Molecular Mass": "230.24",
        "Boiling Point": "152 °C @ Press: 1.5 Torr",
        "Melting Point": "164-167 °C",
        "Density": "1.0716 g/cm³ @ Temp: 20 °C"
    }
}