{
    "cas_no": "609-15-4",
    "key_name": "Ethyl 2-chloroacetoacetate",
    "cn_name": "2-氯乙酰乙酸乙酯;",
    "alternate_name": "Butanoic acid, 2-chloro-3-oxo-, ethyl ester;Acetoacetic acid, 2-chloro-, ethyl ester;Ethyl 2-chloracetoacetate;Ethyl α-chloroacetoacetate;Ethyl 2-chloroacetoacetate;2-Chloroacetoacetic acid ethyl ester;2-Chloro-3-oxobutyric acid ethyl ester;Ethyl 2-chloro-3-oxobutanoate;2-Chloro-3-oxobutanoic acid ethyl ester;Ethyl 2-chloro-3-oxobutyrate;Ethyl α-chloroacetylacetate;A 21960;NSC 78426",
    "duplicated_cas_no": "121181-21-3;150010-45-0",
    "SMILES": "C(C(OCC)=O)(C(C)=O)Cl",
    "meta_data": {
        "InChI": "InChI=1S/C6H9ClO3/c1-3-10-6(9)5(7)4(2)8/h5H,3H2,1-2H3",
        "InChIKey": null,
        "Canonical SMILES": "O=C(OCC)C(Cl)C(=O)C",
        "Molecular Formula": "C<sub>6</sub>H<sub>9</sub>ClO<sub>3</sub>",
        "Molecular Mass": "164.59",
        "Boiling Point": "88-89 °C @ Press: 11 Torr",
        "Density": "1.172 g/cm³"
    }
}