{
    "cas_no": "540-97-6",
    "key_name": "Dodecamethylcyclohexasiloxane",
    "cn_name": "十二甲基环六硅氧烷;环己硅氧烷;",
    "alternate_name": "Cyclohexasiloxane, 2,2,4,4,6,6,8,8,10,10,12,12-dodecamethyl-;Cyclohexasiloxane, dodecamethyl-;2,2,4,4,6,6,8,8,10,10,12,12-Dodecamethylcyclohexasiloxane;Dodecamethylcyclohexasiloxane;Dodecamethylhexacyclosiloxane;DC 246;Dow Corning 246;Dow Corning 246 Fluid;DC 246 Fluid;SH 246;SH 246 Fluid;Xiameter PMX 0246;SF 1258;Cyclohexadimethylsiloxane;Hexadecamethylcyclohexasiloxane;2,2,4,4,6,6,8,8,10,10,12,12-Dodecamethyl-1,3,5,7,9,11-hexaoxa-2,4,6,8,10,12-hexasilacyclododecane;MYD 6",
    "duplicated_cas_no": "",
    "SMILES": "C[Si]1(C)O[Si](C)(C)O[Si](C)(C)O[Si](C)(C)O[Si](C)(C)O[Si](C)(C)O1",
    "meta_data": {
        "InChI": "InChI=1S/C12H36O6Si6/c1-19(2)13-20(3,4)15-22(7,8)17-24(11,12)18-23(9,10)16-21(5,6)14-19/h1-12H3",
        "InChIKey": null,
        "Canonical SMILES": "O1[Si](O[Si](O[Si](O[Si](O[Si](O[Si]1(C)C)(C)C)(C)C)(C)C)(C)C)(C)C",
        "Molecular Formula": "C<sub>12</sub>H<sub>36</sub>O<sub>6</sub>Si<sub>6</sub>",
        "Molecular Mass": "444.92",
        "Boiling Point": "245 °C",
        "Melting Point": "-3 °C",
        "Density": "0.9672 g/cm³ @ Temp: 20 °C"
    }
}