{
    "cas_no": "768-32-1",
    "key_name": "(Trimethylsilyl)benzene",
    "cn_name": "苯基三甲基硅烷;",
    "alternate_name": "Benzene, (trimethylsilyl)-;Silane, trimethylphenyl-;(Trimethylsilyl)benzene;Phenyltrimethylsilane;Trimethylphenylsilane;Phenyltrimethylsilicon;NSC 96828",
    "duplicated_cas_no": "",
    "SMILES": "[Si](C)(C)(C)C1=CC=CC=C1",
    "meta_data": {
        "InChI": "InChI=1S/C9H14Si/c1-10(2,3)9-7-5-4-6-8-9/h4-8H,1-3H3",
        "InChIKey": null,
        "Canonical SMILES": "C=1C=CC(=CC1)[Si](C)(C)C",
        "Molecular Formula": "C<sub>9</sub>H<sub>14</sub>Si",
        "Molecular Mass": "150.29",
        "Boiling Point": "169.5 °C",
        "Melting Point": "166-169 °C",
        "Density": "0.872 g/cm³"
    }
}