{
    "cas_no": "21652-58-4",
    "key_name": "Heptadecafluoro-1-decene",
    "cn_name": "1H,1H,2H-全氟-1-癸烯;",
    "alternate_name": "1-Decene, 3,3,4,4,5,5,6,6,7,7,8,8,9,9,10,10,10-heptadecafluoro-;3,3,4,4,5,5,6,6,7,7,8,8,9,9,10,10,10-Heptadecafluoro-1-decene;1,1,2-Trihydroperfluoro-1-decene;(Perfluorooctyl)ethylene;1<em>H</em>,1<em>H</em>,2<em>H</em>-Perfluorodecene;(Perfluorooctyl)ethene;1<em>H</em>,1<em>H</em>,2<em>H</em>-Heptadecafluoro-1-decene;1<em>H</em>,1<em>H</em>,2<em>H</em>-Perfluoro-1-decene;3,3,4,4,5,5,6,6,7,7,8,8,9,9,10,10,10-Heptadecafluorodecene;F 1820;Heptadecafluoro-1-decene;Cheminox PFOE;3,3,4,4,5,5,6,6,7,7,8,8,9,9,10,10,1 0-Heptadecafluoro-1-decene",
    "duplicated_cas_no": "",
    "SMILES": "C(C(C(C(C(F)(F)F)(F)F)(F)F)(F)F)(C(C(C(C=C)(F)F)(F)F)(F)F)(F)F",
    "meta_data": {
        "InChI": "InChI=1S/C10H3F17/c1-2-3(11,12)4(13,14)5(15,16)6(17,18)7(19,20)8(21,22)9(23,24)10(25,26)27/h2H,1H2",
        "InChIKey": null,
        "Canonical SMILES": "FC(F)(F)C(F)(F)C(F)(F)C(F)(F)C(F)(F)C(F)(F)C(F)(F)C(F)(F)C=C",
        "Molecular Formula": "C<sub>10</sub>H<sub>3</sub>F<sub>17</sub>",
        "Molecular Mass": "446.10",
        "Boiling Point": "150 °C"
    }
}