{
    "cas_no": "673-49-4",
    "key_name": "Acetylhistamine",
    "cn_name": "N-ω-乙酰基组胺;",
    "alternate_name": "Acetamide, <em>N</em>-[2-(1<em>H</em>-imidazol-5-yl)ethyl]-;Acetamide, <em>N</em>-(2-imidazol-4-ylethyl)-;Acetamide, <em>N</em>-[2-(1<em>H</em>-imidazol-4-yl)ethyl]-;Acetamide, <em>N</em>-[2-imidazol-4(<em>or</em> 5)-ylethyl]-;<em>N</em>-[2-(1<em>H</em>-Imidazol-5-yl)ethyl]acetamide;Acetylhistamine;<em>N</em>-Acetylhistamine;<em>N</em>′-Acetylhistamine;NSC 66356;<em>N</em>-Omega-acetylhistamine",
    "duplicated_cas_no": "6964-06-3",
    "SMILES": "C(CNC(C)=O)C1=CN=CN1",
    "meta_data": {
        "InChI": "InChI=1S/C7H11N3O/c1-6(11)9-3-2-7-4-8-5-10-7/h4-5H,2-3H2,1H3,(H,8,10)(H,9,11)",
        "InChIKey": null,
        "Canonical SMILES": "O=C(NCCC1=CN=CN1)C",
        "Molecular Formula": "C<sub>7</sub>H<sub>11</sub>N<sub>3</sub>O",
        "Molecular Mass": "153.18",
        "Melting Point": "143 °C"
    }
}