{
    "cas_no": "4920-77-8",
    "key_name": "3-Methyl-2-nitrophenol",
    "cn_name": "3-甲基-2-硝基苯酚;2-硝基间甲酚;2-硝基-3-甲基苯酚;",
    "alternate_name": "Phenol, 3-methyl-2-nitro-;<em>m</em>-Cresol, 2-nitro-;3-Methyl-2-nitrophenol;3-Hydroxy-2-nitrotoluene;2-Nitro-3-methylphenol;2-Nitro-<em>m</em>-cresol;2-Hydroxy-6-methylnitrobenzene;NSC 41206;2-Nitro-3-hydroxytoluene;2-Methyl-6-hydroxynitrobenzene",
    "duplicated_cas_no": "",
    "SMILES": "N(=O)(=O)C1=C(C)C=CC=C1O",
    "meta_data": {
        "InChI": "InChI=1S/C7H7NO3/c1-5-3-2-4-6(9)7(5)8(10)11/h2-4,9H,1H3",
        "InChIKey": null,
        "Canonical SMILES": "O=N(=O)C=1C(O)=CC=CC1C",
        "Molecular Formula": "C<sub>7</sub>H<sub>7</sub>NO<sub>3</sub>",
        "Molecular Mass": "153.14",
        "Boiling Point": "106-108 °C",
        "Melting Point": "35-39 °C"
    }
}