{
    "cas_no": "1683-86-9",
    "key_name": "2-Amino-5-fluoro-4(3<em>H</em>)-pyrimidinone",
    "cn_name": null,
    "alternate_name": "4(3<em>H</em>)-Pyrimidinone, 2-amino-5-fluoro-;4-Pyrimidinol, 2-amino-5-fluoro-;4(1<em>H</em>)-Pyrimidinone, 2-amino-5-fluoro-;2-Amino-5-fluoro-4(3<em>H</em>)-pyrimidinone;5-Fluoroisocytosine;2-Amino-5-fluoro-3,4-dihydropyrimidin-4-one;2-Amino-5-fluoro-1<em>H</em>-pyrimidin-6-one;2-Amino-5-fluoropyrimidin-4-ol;2-Amino-5-fluoro-1,4-dihydropyrimidin-4-one",
    "duplicated_cas_no": "2253-04-5",
    "SMILES": "O=C1C(F)=CN=C(N)N1",
    "meta_data": {
        "InChI": "InChI=1S/C4H4FN3O/c5-2-1-7-4(6)8-3(2)9/h1H,(H3,6,7,8,9)",
        "InChIKey": null,
        "Canonical SMILES": "O=C1NC(=NC=C1F)N",
        "Molecular Formula": "C<sub>4</sub>H<sub>4</sub>FN<sub>3</sub>O",
        "Molecular Mass": "129.09",
        "Melting Point": "271-274 °C"
    }
}