{
    "cas_no": "99291-25-5",
    "key_name": "Levodropropizine",
    "cn_name": "左羟丙哌嗪;(S)-3-(4-苯基-1-哌嗪基)-1,2-丙二醇;",
    "alternate_name": "1,2-Propanediol, 3-(4-phenyl-1-piperazinyl)-, (2<em>S</em>)-;1,2-Propanediol, 3-(4-phenyl-1-piperazinyl)-, (<em>S</em>)-;(2<em>S</em>)-3-(4-Phenyl-1-piperazinyl)-1,2-propanediol;(-)-Dropropizine;Levodropropizine;<em>l</em>-Dropropizine;(<em>S</em>)-(-)-Dropropizine;LVDP;Levotuss;(2S)-3-(4-Phenylpiperazin-1-yl)propane-1,2-diol;(<em>S</em>)-Dropropizine;Rapitus",
    "duplicated_cas_no": "",
    "SMILES": "C([C@@H](CO)O)N1CCN(CC1)C2=CC=CC=C2",
    "meta_data": {
        "InChI": "InChI=1S/C13H20N2O2/c16-11-13(17)10-14-6-8-15(9-7-14)12-4-2-1-3-5-12/h1-5,13,16-17H,6-11H2/t13-/m0/s1",
        "InChIKey": null,
        "Canonical SMILES": "OCC(O)CN1CCN(C=2C=CC=CC2)CC1",
        "Molecular Formula": "C<sub>13</sub>H<sub>20</sub>N<sub>2</sub>O<sub>2</sub>",
        "Molecular Mass": "236.31",
        "Melting Point": "102-104 °C"
    }
}