{
    "cas_no": "781-73-7",
    "key_name": "2-Acetyl-9<em>H</em>-fluorene",
    "cn_name": "2-乙酰芴;",
    "alternate_name": "Ethanone, 1-(9<em>H</em>-fluoren-2-yl)-;Ketone, fluoren-2-yl methyl;1-(9<em>H</em>-Fluoren-2-yl)ethanone;2-Acetylfluorene;2-Acetofluorene;2-Fluorenyl methyl ketone;2-Acetyl-9<em>H</em>-fluorene;NSC 12351;1-(9<em>H</em>-Fluoren-2-yl)ethan-1-one",
    "duplicated_cas_no": "2161402-06-6",
    "SMILES": "C(C)(=O)C=1C=C2C(C=3C(C2)=CC=CC3)=CC1",
    "meta_data": {
        "InChI": "InChI=1S/C15H12O/c1-10(16)11-6-7-15-13(8-11)9-12-4-2-3-5-14(12)15/h2-8H,9H2,1H3",
        "InChIKey": null,
        "Canonical SMILES": "O=C(C1=CC=C2C=3C=CC=CC3CC2=C1)C",
        "Molecular Formula": "C<sub>15</sub>H<sub>12</sub>O",
        "Molecular Mass": "208.26",
        "Boiling Point": "172-173 °C @ Press: 0.05 Torr",
        "Melting Point": "132 °C"
    }
}