{
    "cas_no": "91-44-1",
    "key_name": "Coumarin 1",
    "cn_name": "7-二乙氨基-4-甲基香豆素;7-二乙氨基-4-甲基-2H-1-苯并吡喃-2-酮;荧光增白剂WS;荧光增白剂52;",
    "alternate_name": "2<em>H</em>-1-Benzopyran-2-one, 7-(diethylamino)-4-methyl-;Coumarin, 7-(diethylamino)-4-methyl-;7-(Diethylamino)-4-methyl-2<em>H</em>-1-benzopyran-2-one;4-Methyl-7-(diethylamino)coumarin;7-(Diethylamino)-4-methylcoumarin;Coumarin 1;Coumarin 460;Calcofluor White RW;Blancophor AW;Blancophor FFG;Uvitex WGS;MDAC;Hiltamine Arctic White SOL;Aclarat 8678;Calcofluor White SD;7D4MC;Hakkol P;Coumarin 47;C 47;DEMC;C 47 (coumarin derivative);Blankophor SOL;Fluorescent Brightener 140;C.I. 551100;C.I. Fluorescent Brightener 140;Rylux VPA;Tinopal SWN;Uvitex SWN;C.I. Fluorescent Brightener 52;Blancol WNS;Kayaphor WN;Leucophor WS;Leukophor WS;Fluorescent Brightener 52;Whitex WS;Whitefluor B;Neo-Super HR 1;HR 1;NSC 61830;C.I. Fluorescent Brightening Agent 52;Rylux VPA-T;Diethylamino-4-methylcoumarin;NF-MC;Optiblanc SPL 10;7-(Diethylamino)-4-methyl-2<em>H</em>-chromen-2-one;Calcofluor RW;Brightener SWN;7-Diethylamino-4-methylbenzopyran-2-one",
    "duplicated_cas_no": "11118-21-1;12224-03-2;12651-35-3;52232-20-9;58694-55-6;61968-71-6;70726-42-0;71123-71-2;73201-22-6;74029-28-0;86090-68-8;96538-19-1;129038-92-2;1215069-65-0;2252489-56-6",
    "SMILES": "CC=1C=2C(=CC(N(CC)CC)=CC2)OC(=O)C1",
    "meta_data": {
        "InChI": "InChI=1S/C14H17NO2/c1-4-15(5-2)11-6-7-12-10(3)8-14(16)17-13(12)9-11/h6-9H,4-5H2,1-3H3",
        "InChIKey": null,
        "Canonical SMILES": "O=C1OC=2C=C(C=CC2C(=C1)C)N(CC)CC",
        "Molecular Formula": "C<sub>14</sub>H<sub>17</sub>NO<sub>2</sub>",
        "Molecular Mass": "231.29",
        "Melting Point": "89 °C"
    }
}