{
    "cas_no": "1569-17-1",
    "key_name": "4-Methyl-1,8-naphthyridine",
    "cn_name": null,
    "alternate_name": "1,8-Naphthyridine, 4-methyl-;4-Methyl-1,8-naphthyridine",
    "duplicated_cas_no": "",
    "SMILES": "CC=1C2=C(N=CC1)N=CC=C2",
    "meta_data": {
        "InChI": "InChI=1S/C9H8N2/c1-7-4-6-11-9-8(7)3-2-5-10-9/h2-6H,1H3",
        "InChIKey": null,
        "Canonical SMILES": "N=1C=CC=C2C1N=CC=C2C",
        "Molecular Formula": "C<sub>9</sub>H<sub>8</sub>N<sub>2</sub>",
        "Molecular Mass": "144.17",
        "Boiling Point": "147-148 °C @ Press: 0.05 Torr"
    }
}