{
    "cas_no": "80474-45-9",
    "key_name": "(6α,11β,16α,17α)-6,9-Difluoro-11-hydroxy-16-methyl-3-oxo-17-(1-oxopropoxy)androsta-1,4-diene-17-carbothioic acid",
    "cn_name": null,
    "alternate_name": "Androsta-1,4-diene-17-carbothioic acid, 6,9-difluoro-11-hydroxy-16-methyl-3-oxo-17-(1-oxopropoxy)-, (6α,11β,16α,17α)-;(6α,11β,16α,17α)-6,9-Difluoro-11-hydroxy-16-methyl-3-oxo-17-(1-oxopropoxy)androsta-1,4-diene-17-carbothioic acid;6a,9a-Difluoro-11β-hydroxy-16α-methyl-3-oxo-17α-propionyloxyandrosta-1,4-diene-17β-carbothioic acid",
    "duplicated_cas_no": "",
    "SMILES": "O(C(CC)=O)[C@@]1(C(=O)S)[C@]2(C)[C@@](C[C@H]1C)([C@]3([C@](F)([C@@H](O)C2)[C@]4(C)C([C@@H](F)C3)=CC(=O)C=C4)[H])[H]",
    "meta_data": {
        "InChI": "InChI=1S/C24H30F2O5S/c1-5-19(29)31-24(20(30)32)12(2)8-14-15-10-17(25)16-9-13(27)6-7-21(16,3)23(15,26)18(28)11-22(14,24)4/h6-7,9,12,14-15,17-18,28H,5,8,10-11H2,1-4H3,(H,30,32)/t12-,14+,15+,17+,18+,21+,22+,23+,24+/m1/s1",
        "InChIKey": null,
        "Canonical SMILES": "O=C1C=CC2(C(=C1)C(F)CC3C4CC(C)C(OC(=O)CC)(C(=O)S)C4(C)CC(O)C32F)C",
        "Molecular Formula": "C<sub>24</sub>H<sub>30</sub>F<sub>2</sub>O<sub>5</sub>S",
        "Molecular Mass": "468.55",
        "Melting Point": "161-163 °C"
    }
}