{
    "cas_no": "537705-08-1",
    "key_name": "2-Methoxy-<em>N</em>-[3-[4-[[3-methyl-4-[(6-methyl-3-pyridinyl)oxy]phenyl]amino]-6-quinazolinyl]-2-propen-1-yl]acetamide",
    "cn_name": null,
    "alternate_name": "Acetamide, 2-methoxy-<em>N</em>-[3-[4-[[3-methyl-4-[(6-methyl-3-pyridinyl)oxy]phenyl]amino]-6-quinazolinyl]-2-propen-1-yl]-;Acetamide, 2-methoxy-<em>N</em>-[3-[4-[[3-methyl-4-[(6-methyl-3-pyridinyl)oxy]phenyl]amino]-6-quinazolinyl]-2-propenyl]-;2-Methoxy-<em>N</em>-[3-[4-[[3-methyl-4-[(6-methyl-3-pyridinyl)oxy]phenyl]amino]-6-quinazolinyl]-2-propen-1-yl]acetamide;2-Methoxy-<em>N</em>-[3-[4-[[3-methyl-4-[(6-methylpyridin-3-yl)oxy]phenyl]amino]quinazolin-6-yl]allyl]acetamide",
    "duplicated_cas_no": "",
    "SMILES": "N(C=1C2=C(C=CC(C=CCNC(COC)=O)=C2)N=CN1)C3=CC(C)=C(OC=4C=CC(C)=NC4)C=C3",
    "meta_data": {
        "InChI": "InChI=1S/C27H27N5O3/c1-18-13-21(8-11-25(18)35-22-9-6-19(2)29-15-22)32-27-23-14-20(7-10-24(23)30-17-31-27)5-4-12-28-26(33)16-34-3/h4-11,13-15,17H,12,16H2,1-3H3,(H,28,33)(H,30,31,32)",
        "InChIKey": null,
        "Canonical SMILES": "O=C(NCC=CC=1C=CC2=NC=NC(NC3=CC=C(OC4=CN=C(C=C4)C)C(=C3)C)=C2C1)COC",
        "Molecular Formula": "C<sub>27</sub>H<sub>27</sub>N<sub>5</sub>O<sub>3</sub>",
        "Molecular Mass": "469.54",
        "Melting Point": "75-95 °C"
    }
}