{
    "cas_no": "7783-55-3",
    "key_name": "Phosphorus trifluoride",
    "cn_name": "三氟化磷;氟化磷(III);",
    "alternate_name": "Phosphorous trifluoride;Phosphorus fluoride (PF<sub>3</sub>);Phosphorus trifluoride;Trifluorophosphine",
    "duplicated_cas_no": "",
    "SMILES": "P(F)(F)F",
    "meta_data": {
        "InChI": "InChI=1S/F3P/c1-4(2)3",
        "InChIKey": null,
        "Canonical SMILES": "FP(F)F",
        "Molecular Formula": "F<sub>3</sub>P",
        "Molecular Mass": "87.97",
        "Boiling Point": "-95 °C",
        "Melting Point": "-160 °C"
    }
}