{
    "cas_no": "495-60-3",
    "key_name": "(-)-Zingiberene",
    "cn_name": null,
    "alternate_name": "1,3-Cyclohexadiene, 5-[(1<em>S</em>)-1,5-dimethyl-4-hexen-1-yl]-2-methyl-, (5<em>R</em>)-;1,3-Cyclohexadiene, 5-(1,5-dimethyl-4-hexenyl)-2-methyl-, [<em>S</em>-(<em>R</em>*,<em>S</em>*)]-;Zingiberene;1,3-Cyclohexadiene, 5-[(1<em>S</em>)-1,5-dimethyl-4-hexenyl]-2-methyl-, (5<em>R</em>)-;(5<em>R</em>)-5-[(1<em>S</em>)-1,5-Dimethyl-4-hexen-1-yl]-2-methyl-1,3-cyclohexadiene;<em>l</em>-Zingiberene;(-)-Zingiberene;α-Zingiberene;α-Sesquiphellandrene",
    "duplicated_cas_no": "7785-34-4;22627-92-5",
    "SMILES": "[C@@H](CCC=C(C)C)(C)[C@]1(CC=C(C)C=C1)[H]",
    "meta_data": {
        "InChI": "InChI=1S/C15H24/c1-12(2)6-5-7-14(4)15-10-8-13(3)9-11-15/h6,8-10,14-15H,5,7,11H2,1-4H3/t14-,15+/m0/s1",
        "InChIKey": null,
        "Canonical SMILES": "C1=CC(CC=C1C)C(C)CCC=C(C)C",
        "Molecular Formula": "C<sub>15</sub>H<sub>24</sub>",
        "Molecular Mass": "",
        "Boiling Point": "128-129 °C @ Press: 9 Torr",
        "Density": "0.8713 g/cm³ @ Temp: 20 °C"
    }
}