{
    "cas_no": "15385-57-6",
    "key_name": "Mercury iodide (Hg<sub>2</sub>I<sub>2</sub>)",
    "cn_name": null,
    "alternate_name": "Mercury iodide (Hg<sub>2</sub>I<sub>2</sub>);Mercurous iodide;Yellow mercury iodide;Mercury protoiodide;Dimercury diiodide",
    "duplicated_cas_no": "12378-94-8",
    "SMILES": "[Hg]([Hg]I)I",
    "meta_data": {
        "InChI": "InChI=1S/2Hg.2HI/h;;2*1H/q2*+1;;/p-2",
        "InChIKey": null,
        "Canonical SMILES": "I[Hg][Hg]I",
        "Molecular Formula": "Hg<sub>2</sub>I<sub>2</sub>",
        "Molecular Mass": "",
        "Melting Point": "290 °C",
        "Density": "7.70 g/cm³"
    }
}