{
    "cas_no": "123-75-1",
    "key_name": "Pyrrolidine",
    "cn_name": "四氢吡咯;",
    "alternate_name": "Pyrrolidine;Azacyclopentane;Prolamine;Pyrrole, tetrahydro-;Tetrahydropyrrole;Tetramethylenimine;Pyrrolidine ring;Butylenimine;Azolidine;Perhydropyrrole;NSC 62781;9: PN: WO2017048620 SEQID: 14 claimed sequence",
    "duplicated_cas_no": "",
    "SMILES": "C1CCNC1",
    "meta_data": {
        "InChI": "InChI=1S/C4H9N/c1-2-4-5-3-1/h5H,1-4H2",
        "InChIKey": null,
        "Canonical SMILES": "N1CCCC1",
        "Molecular Formula": "C<sub>4</sub>H<sub>9</sub>N",
        "Molecular Mass": "71.12",
        "Boiling Point": "86.71 °C",
        "Melting Point": "-63 °C",
        "Density": "0.8520 g/cm³ @ Temp: 22.5 °C"
    }
}