{
    "cas_no": "615-35-0",
    "key_name": "<em>N</em><sup>1</sup>,<em>N</em><sup>2</sup>-Dimethylethanediamide",
    "cn_name": "N,N\"-二甲基草酰胺;",
    "alternate_name": "Ethanediamide, <em>N</em><sup>1</sup>,<em>N</em><sup>2</sup>-dimethyl-;Oxamide, <em>N</em>,<em>N</em>′-dimethyl-;Ethanediamide, <em>N</em>,<em>N</em>′-dimethyl-;<em>N</em><sup>1</sup>,<em>N</em><sup>2</sup>-Dimethylethanediamide;<em>N</em>,<em>N</em>′-Dimethyloxalamide;<em>N</em>,<em>N</em>′-Dimethyloxamide;<em>N</em>,<em>N</em>′-Dimethylethanediamide;NSC 80645",
    "duplicated_cas_no": "",
    "SMILES": "C(C(NC)=O)(NC)=O",
    "meta_data": {
        "InChI": "InChI=1S/C4H8N2O2/c1-5-3(7)4(8)6-2/h1-2H3,(H,5,7)(H,6,8)",
        "InChIKey": null,
        "Canonical SMILES": "O=C(NC)C(=O)NC",
        "Molecular Formula": "C<sub>4</sub>H<sub>8</sub>N<sub>2</sub>O<sub>2</sub>",
        "Molecular Mass": "116.12",
        "Melting Point": "217 °C"
    }
}