{
    "cas_no": "2243-67-6",
    "key_name": "2,6-Naphthalenediamine",
    "cn_name": null,
    "alternate_name": "2,6-Naphthalenediamine;C.I. 76600;2,6-Naphthylenediamine;2,6-Diaminonaphthalene",
    "duplicated_cas_no": "56481-86-8",
    "SMILES": "NC1=CC2=C(C=C(N)C=C2)C=C1",
    "meta_data": {
        "InChI": "InChI=1S/C10H10N2/c11-9-3-1-7-5-10(12)4-2-8(7)6-9/h1-6H,11-12H2",
        "InChIKey": null,
        "Canonical SMILES": "NC=1C=CC2=CC(N)=CC=C2C1",
        "Molecular Formula": "C<sub>10</sub>H<sub>10</sub>N<sub>2</sub>",
        "Molecular Mass": "158.20",
        "Melting Point": "222 °C"
    }
}