{
    "cas_no": "13444-24-1",
    "key_name": "1-Ethyl-3-piperidinol",
    "cn_name": "N-乙基-3-羟基哌啶;1-乙基-3-哌啶醇;",
    "alternate_name": "3-Piperidinol, 1-ethyl-;1-Ethyl-3-piperidinol;<em>N</em>-Ethyl-3-piperidinol;3-Hydroxy-1-ethylpiperidine;1-Ethyl-3-hydroxypiperidine;<em>N</em>-Ethyl-3-hydroxypiperidine",
    "duplicated_cas_no": "",
    "SMILES": "C(C)N1CC(O)CCC1",
    "meta_data": {
        "InChI": "InChI=1S/C7H15NO/c1-2-8-5-3-4-7(9)6-8/h7,9H,2-6H2,1H3",
        "InChIKey": null,
        "Canonical SMILES": "OC1CN(CC)CCC1",
        "Molecular Formula": "C<sub>7</sub>H<sub>15</sub>NO",
        "Molecular Mass": "129.20",
        "Boiling Point": "94 °C",
        "Melting Point": "&lt;25 °C",
        "Density": "0.966 g/cm³ @ Temp: 23 °C"
    }
}