{
    "cas_no": "24211-30-1",
    "key_name": "(-)-Farrerol",
    "cn_name": "杜鹃素; 5,7-二羟基-2-(4-羟基苯基)-6,8-二甲基-2,3-二氢苯并吡喃-4-酮;",
    "alternate_name": "4<em>H</em>-1-Benzopyran-4-one, 2,3-dihydro-5,7-dihydroxy-2-(4-hydroxyphenyl)-6,8-dimethyl-, (2<em>S</em>)-;Flavanone, 4′,5,7-trihydroxy-6,8-dimethyl-, (-)-;Farrerol;4<em>H</em>-1-Benzopyran-4-one, 2,3-dihydro-5,7-dihydroxy-2-(4-hydroxyphenyl)-6,8-dimethyl-, (<em>S</em>)-;(2<em>S</em>)-2,3-Dihydro-5,7-dihydroxy-2-(4-hydroxyphenyl)-6,8-dimethyl-4<em>H</em>-1-benzopyran-4-one;(-)-Farrerol;(2S)-5,7-Dihydroxy-2-(4-hydroxyphenyl)-6,8-dimethyl-2,3-dihydrochromen-4-one",
    "duplicated_cas_no": "24604-95-3",
    "SMILES": "CC1=C2C(C(=O)C[C@H](O2)C3=CC=C(O)C=C3)=C(O)C(C)=C1O",
    "meta_data": {
        "InChI": "InChI=1S/C17H16O5/c1-8-15(20)9(2)17-14(16(8)21)12(19)7-13(22-17)10-3-5-11(18)6-4-10/h3-6,13,18,20-21H,7H2,1-2H3/t13-/m0/s1",
        "InChIKey": null,
        "Canonical SMILES": "O=C1C=2C(O)=C(C(O)=C(C2OC(C3=CC=C(O)C=C3)C1)C)C",
        "Molecular Formula": "C<sub>17</sub>H<sub>16</sub>O<sub>5</sub>",
        "Molecular Mass": "300.31",
        "Melting Point": "212-220 °C"
    }
}