{
    "cas_no": "5424-47-5",
    "key_name": "1-Propanone, 3-(dimethylamino)-1-(2-thienyl)-, hydrochloride (1:1)",
    "cn_name": "3-二甲基氨基-1-(噻吩基)-1-丙酮盐酸盐;3-二甲基氨基-1-(噻吩基)-1-丙酮盐酸盐;",
    "alternate_name": "1-Propanone, 3-(dimethylamino)-1-(2-thienyl)-, hydrochloride (1:1);1-Propanone, 3-(dimethylamino)-1-(2-thienyl)-, hydrochloride;3-Dimethylamino-1-(2-thienyl)-1-propanone hydrochloride;2-Thienyl 2-dimethylaminoethyl ketone hydrochloride",
    "duplicated_cas_no": "",
    "SMILES": "C(CCN(C)C)(=O)C1=CC=CS1.Cl",
    "meta_data": {
        "InChI": "InChI=1S/C9H13NOS.ClH/c1-10(2)6-5-8(11)9-4-3-7-12-9;/h3-4,7H,5-6H2,1-2H3;1H",
        "InChIKey": null,
        "Canonical SMILES": "Cl.O=C(C=1SC=CC1)CCN(C)C",
        "Molecular Formula": "C<sub>9</sub>H<sub>13</sub>NOS.ClH",
        "Molecular Mass": "",
        "Melting Point": "172 °C"
    }
}