{
    "cas_no": "50777-76-9",
    "key_name": "2-(Diphenylphosphino)benzaldehyde",
    "cn_name": "2-二苯基膦苯甲醛;",
    "alternate_name": "Benzaldehyde, 2-(diphenylphosphino)-;2-(Diphenylphosphino)benzaldehyde;<em>o</em>-(Diphenylphosphino)benzaldehyde;(2-Formylphenyl)diphenylphosphine;2-Diphenylphosphanylbenzaldehyde",
    "duplicated_cas_no": "",
    "SMILES": "P(C1=C(C=O)C=CC=C1)(C2=CC=CC=C2)C3=CC=CC=C3",
    "meta_data": {
        "InChI": "InChI=1S/C19H15OP/c20-15-16-9-7-8-14-19(16)21(17-10-3-1-4-11-17)18-12-5-2-6-13-18/h1-15H",
        "InChIKey": null,
        "Canonical SMILES": "O=CC=1C=CC=CC1P(C=2C=CC=CC2)C=3C=CC=CC3",
        "Molecular Formula": "C<sub>19</sub>H<sub>15</sub>OP",
        "Molecular Mass": "290.30",
        "Melting Point": "114-117 °C"
    }
}