{
    "cas_no": "56121-42-7",
    "key_name": "Aurantiamide acetate",
    "cn_name": null,
    "alternate_name": "Benzenepropanamide, <em>N</em>-[(1<em>S</em>)-1-[(acetyloxy)methyl]-2-phenylethyl]-α-(benzoylamino)-, (α<em>S</em>)-;Benzenepropanamide, <em>N</em>-[1-[(acetyloxy)methyl]-2-phenylethyl]-α-(benzoylamino)-, [<em>S</em>-(<em>R</em>*,<em>R</em>*)]-;(α<em>S</em>)-<em>N</em>-[(1<em>S</em>)-1-[(Acetyloxy)methyl]-2-phenylethyl]-α-(benzoylamino)benzenepropanamide;<em>O</em>-Acetyl-<em>N</em>-(<em>N</em>′-benzoyl-<span class=\"text-smallcaps\">L</smallcap>-phenylalanyl)-<smallcap>L</span>-phenylalaninol;Asperglaucide;Aurantiamide acetate;Lyciumamide;Saropeptate;Sarapeptate;Tifentai;Matijin-Su;(2<em>S</em>)-2-[[(2<em>S</em>)-2-Benzamido-3-phenylpropanoyl]amino]-3-phenylpropyl acetate;Repensine",
    "duplicated_cas_no": "",
    "SMILES": "[C@H](CC1=CC=CC=C1)(C(N[C@@H](CC2=CC=CC=C2)COC(C)=O)=O)NC(=O)C3=CC=CC=C3",
    "meta_data": {
        "InChI": "InChI=1S/C27H28N2O4/c1-20(30)33-19-24(17-21-11-5-2-6-12-21)28-27(32)25(18-22-13-7-3-8-14-22)29-26(31)23-15-9-4-10-16-23/h2-16,24-25H,17-19H2,1H3,(H,28,32)(H,29,31)/t24-,25-/m0/s1",
        "InChIKey": null,
        "Canonical SMILES": "O=C(OCC(NC(=O)C(NC(=O)C=1C=CC=CC1)CC=2C=CC=CC2)CC=3C=CC=CC3)C",
        "Molecular Formula": "C<sub>27</sub>H<sub>28</sub>N<sub>2</sub>O<sub>4</sub>",
        "Molecular Mass": "444.52",
        "Melting Point": "182-183.5 °C"
    }
}