{
    "cas_no": "4919-34-0",
    "key_name": "4-Ethoxybenzenepropanoic acid",
    "cn_name": "3-(4-乙氧基苯基)丙酸;",
    "alternate_name": "Benzenepropanoic acid, 4-ethoxy-;Hydrocinnamic acid, <em>p</em>-ethoxy-;4-Ethoxybenzenepropanoic acid;<em>p</em>-Ethoxyhydrocinnamic acid;3-(4-Ethoxyphenyl)propionic acid;NSC 157580;3-(4-Ethoxyphenyl)propanoic acid",
    "duplicated_cas_no": "",
    "SMILES": "C(CC(O)=O)C1=CC=C(OCC)C=C1",
    "meta_data": {
        "InChI": "InChI=1S/C11H14O3/c1-2-14-10-6-3-9(4-7-10)5-8-11(12)13/h3-4,6-7H,2,5,8H2,1H3,(H,12,13)",
        "InChIKey": null,
        "Canonical SMILES": "O=C(O)CCC1=CC=C(OCC)C=C1",
        "Molecular Formula": "C<sub>11</sub>H<sub>14</sub>O<sub>3</sub>",
        "Molecular Mass": "194.23",
        "Melting Point": "103-104 °C"
    }
}