{
    "cas_no": "4106-66-5",
    "key_name": "3-Dibenzofuranamine",
    "cn_name": null,
    "alternate_name": "3-Dibenzofuranamine;3-Aminodibenzofuran;<em>N</em>-(3-Dibenzofuranyl)amine;NSC 89128;Dibenzo[<em>b</em>,<em>d</em>]furan-3-amine",
    "duplicated_cas_no": "",
    "SMILES": "NC=1C=C2C(C=3C(O2)=CC=CC3)=CC1",
    "meta_data": {
        "InChI": "InChI=1S/C12H9NO/c13-8-5-6-10-9-3-1-2-4-11(9)14-12(10)7-8/h1-7H,13H2",
        "InChIKey": null,
        "Canonical SMILES": "O1C=2C=CC=CC2C=3C=CC(N)=CC13",
        "Molecular Formula": "C<sub>12</sub>H<sub>9</sub>NO",
        "Molecular Mass": "183.21",
        "Melting Point": "128 °C"
    }
}