{
    "cas_no": "1137-42-4",
    "key_name": "4-Hydroxybenzophenone",
    "cn_name": "4-羟基-二苯甲酮;",
    "alternate_name": "Methanone, (4-hydroxyphenyl)phenyl-;Benzophenone, 4-hydroxy-;Benzophenone, <em>p</em>-hydroxy-;(4-Hydroxyphenyl)phenylmethanone;<em>p</em>-Hydroxybenzophenone;<em>p</em>-Benzoylphenol;4-Benzoylphenol;4-Hydroxybenzophenone;4′-Hydroxybenzophenone;4-Hydroxyphenyl phenyl ketone;NSC 1887;<em>N</em>-(4-Hydroxylphenyl)-<em>N</em>′-phenylurea;1-(4-Hydroxyphenyl)-1-phenylmethanone",
    "duplicated_cas_no": "",
    "SMILES": "C(=O)(C1=CC=C(O)C=C1)C2=CC=CC=C2",
    "meta_data": {
        "InChI": "InChI=1S/C13H10O2/c14-12-8-6-11(7-9-12)13(15)10-4-2-1-3-5-10/h1-9,14H",
        "InChIKey": null,
        "Canonical SMILES": "O=C(C=1C=CC=CC1)C2=CC=C(O)C=C2",
        "Molecular Formula": "C<sub>13</sub>H<sub>10</sub>O<sub>2</sub>",
        "Molecular Mass": "198.22",
        "Boiling Point": "150-160 °C",
        "Melting Point": "132-135 °C"
    }
}