{
    "cas_no": "1984-59-4",
    "key_name": "2,3-Dichloroanisole",
    "cn_name": "2,3-二氯苯甲醚;",
    "alternate_name": "Benzene, 1,2-dichloro-3-methoxy-;Anisole, 2,3-dichloro-;1,2-Dichloro-3-methoxybenzene;2,3-Dichloroanisole;2,3-Dichlorophenyl methyl ether",
    "duplicated_cas_no": "",
    "SMILES": "O(C)C1=C(Cl)C(Cl)=CC=C1",
    "meta_data": {
        "InChI": "InChI=1S/C7H6Cl2O/c1-10-6-4-2-3-5(8)7(6)9/h2-4H,1H3",
        "InChIKey": null,
        "Canonical SMILES": "ClC1=CC=CC(OC)=C1Cl",
        "Molecular Formula": "C<sub>7</sub>H<sub>6</sub>Cl<sub>2</sub>O",
        "Molecular Mass": "177.03",
        "Melting Point": "32 °C",
        "Density": "1.47 g/cm³"
    }
}