{
    "cas_no": "20398-06-5",
    "key_name": "Ethanol, thallium(1+) salt (1:1)",
    "cn_name": null,
    "alternate_name": "Ethanol, thallium(1+) salt (1:1);Ethyl alcohol, thallium(1+) salt;Ethanol, thallium(1+) salt;Thallium(I) ethoxide;Thallous ethoxide;Thallium(1+) ethoxide;Thallium monoethoxide;Thallium ethoxide;Ethoxythallium",
    "duplicated_cas_no": "12556-14-8;18277-70-8",
    "SMILES": "C(C)O.[Tl]",
    "meta_data": {
        "InChI": "InChI=1S/C2H6O.Tl/c1-2-3;/h3H,2H2,1H3;",
        "InChIKey": null,
        "Canonical SMILES": "[Tl].OCC",
        "Molecular Formula": "C<sub>2</sub>H<sub>6</sub>O.Tl",
        "Molecular Mass": "",
        "Melting Point": "-3 °C",
        "Density": "3.493 g/cm³"
    }
}