{
    "cas_no": "13242-44-9",
    "key_name": "2-(Dimethylamino)ethanethiol hydrochloride",
    "cn_name": null,
    "alternate_name": "Ethanethiol, 2-(dimethylamino)-, hydrochloride (1:1);Ethanethiol, 2-(dimethylamino)-, hydrochloride;Captamine hydrochloride;2-(Dimethylamino)ethanethiol hydrochloride;<em>N</em>-(2-Mercaptoethyl)dimethylamine hydrochloride;<em>N</em>,<em>N</em>-Dimethylcysteamine hydrochloride;1-(Dimethylamino)-2-mercaptoethane hydrochloride;(2-Mercaptoethyl)dimethylammonium chloride;MEDA;<em>N</em>,<em>N</em>-Dimethyl-2-aminoethanethiol hydrochloride;2-(<em>N</em>,<em>N</em>-Dimethylamino)ethanethiol hydrochloride;2-(Dimethylamino)ethyl mercaptan hydrochloride;Thiofluor;NSC 45463;2-(Dimethylamino)ethane-1-thiol hydrochloride",
    "duplicated_cas_no": "139138-74-2;161909-82-6;2022216-69-7",
    "SMILES": "C(N(C)C)CS.Cl",
    "meta_data": {
        "InChI": "InChI=1S/C4H11NS.ClH/c1-5(2)3-4-6;/h6H,3-4H2,1-2H3;1H",
        "InChIKey": null,
        "Canonical SMILES": "Cl.SCCN(C)C",
        "Molecular Formula": "C<sub>4</sub>H<sub>11</sub>NS.ClH",
        "Molecular Mass": "",
        "Melting Point": "158-160 °C"
    }
}