{
    "cas_no": "1740-57-4",
    "key_name": "1,3-Benzenedicarboxamide",
    "cn_name": "异邻苯二甲酰亚胺;",
    "alternate_name": "1,3-Benzenedicarboxamide;Isophthalamide;Isophthalic acid diamide;<em>m</em>-Carbamoylbenzamide;<em>m</em>-Phthalamide",
    "duplicated_cas_no": "",
    "SMILES": "C(N)(=O)C1=CC(C(N)=O)=CC=C1",
    "meta_data": {
        "InChI": "InChI=1S/C8H8N2O2/c9-7(11)5-2-1-3-6(4-5)8(10)12/h1-4H,(H2,9,11)(H2,10,12)",
        "InChIKey": null,
        "Canonical SMILES": "O=C(N)C1=CC=CC(=C1)C(=O)N",
        "Molecular Formula": "C<sub>8</sub>H<sub>8</sub>N<sub>2</sub>O<sub>2</sub>",
        "Molecular Mass": "164.16",
        "Melting Point": "155 °C"
    }
}