{
    "cas_no": "445-02-3",
    "key_name": "4-Bromo-2-(trifluoromethyl)aniline",
    "cn_name": "2-氨基-5-溴三氟甲苯;",
    "alternate_name": "Benzenamine, 4-bromo-2-(trifluoromethyl)-;<em>o</em>-Toluidine, 4-bromo-α,α,α-trifluoro-;4-Bromo-2-(trifluoromethyl)benzenamine;4-Bromo-2-(trifluoromethyl)aniline;2-Amino-5-bromobenzotrifluoride;2-(Trifluoromethyl)-4-bromoaniline;4-Bromo-2-trifluoromethylphenylamine;NSC 88311",
    "duplicated_cas_no": "",
    "SMILES": "C(F)(F)(F)C1=C(N)C=CC(Br)=C1",
    "meta_data": {
        "InChI": "InChI=1S/C7H5BrF3N/c8-4-1-2-6(12)5(3-4)7(9,10)11/h1-3H,12H2",
        "InChIKey": null,
        "Canonical SMILES": "FC(F)(F)C1=CC(Br)=CC=C1N",
        "Molecular Formula": "C<sub>7</sub>H<sub>5</sub>BrF<sub>3</sub>N",
        "Molecular Mass": "240.02",
        "Boiling Point": "60.7-62.0 °C @ Press: 1 Torr"
    }
}