{
    "cas_no": "204255-11-8",
    "key_name": "Oseltamivir phosphate",
    "cn_name": "磷酸奥司他韦;(3R,4R,5S)-4-乙酰胺基-5-氨基-3-(1-乙基丙氧基)-1-环己烯-1-羧酸乙酯磷酸盐;",
    "alternate_name": "1-Cyclohexene-1-carboxylic acid, 4-(acetylamino)-5-amino-3-(1-ethylpropoxy)-, ethyl ester, (3<em>R</em>,4<em>R</em>,5<em>S</em>)-, phosphate (1:1);1-Cyclohexene-1-carboxylic acid, 4-(acetylamino)-5-amino-3-(1-ethylpropoxy)-, ethyl ester, [3<em>R</em>-(3α,4β,5α)]-, phosphate (1:1);Oseltamivir phosphate;Ro 64-0796/002;Ethyl (3<em>R</em>,4<em>R</em>,5<em>S</em>)-4-<em>N</em>-Acetylamino-5-amino-3-(1-ethylpropoxy)-1-cyclohexene-1-carboxylate phosphate (1:1);Tamiflu;Oseltamir phosphate;(-)-Oseltamivir phosphate;Fluvir;Saiflu;Ethyl (3R,4R,5S)-4-acetamido-5-amino-3-(pentan-3-yloxy)cyclohex-1-ene-1-carboxylate phosphate;Oseltamivir ethyl ester",
    "duplicated_cas_no": "332047-25-3",
    "SMILES": "O(C(CC)CC)[C@H]1[C@H](NC(C)=O)[C@@H](N)CC(C(OCC)=O)=C1.P(=O)(O)(O)O",
    "meta_data": {
        "InChI": "InChI=1S/C16H28N2O4.H3O4P/c1-5-12(6-2)22-14-9-11(16(20)21-7-3)8-13(17)15(14)18-10(4)19;1-5(2,3)4/h9,12-15H,5-8,17H2,1-4H3,(H,18,19);(H3,1,2,3,4)/t13-,14+,15+;/m0./s1",
        "InChIKey": null,
        "Canonical SMILES": "O=C(OCC)C1=CC(OC(CC)CC)C(NC(=O)C)C(N)C1.O=P(O)(O)O",
        "Molecular Formula": "C<sub>16</sub>H<sub>28</sub>N<sub>2</sub>O<sub>4</sub>.H<sub>3</sub>O<sub>4</sub>P",
        "Molecular Mass": "",
        "Melting Point": "184-186 °C"
    }
}