{
    "cas_no": "104-46-1",
    "key_name": "Anethole",
    "cn_name": "茴香脑;1-甲氧基-4-[(Z)-1-丙烯基]苯;",
    "alternate_name": "Benzene, 1-methoxy-4-(1-propen-1-yl)-;Anisole, <em>p</em>-propenyl-;Benzene, 1-methoxy-4-(1-propenyl)-;1-Methoxy-4-(1-propen-1-yl)benzene;Anise camphor;Isoestragole;<em>p</em>-Methoxy-β-methylstyrene;1-Methoxy-4-propenylbenzene;Oil of aniseed;<em>p</em>-Propenylphenyl methyl ether;Anethole;1-Propene, 1-(4-methoxyphenyl)-;Anethol;4-Methoxy-1-propenylbenzene;Nauli gum;<em>p</em>-1-Propenylanisole;1-Methoxy-4-(1-propenyl)benzene;4-Methoxypropenylbenzene;<em>p</em>-Propenylanisole;4-Propenylanisole;<em>p</em>-Anethole;4-(1-Propenyl)anisole;NSC 4018;1-(4-Methoxyphenyl)-1-propene",
    "duplicated_cas_no": "8022-08-0;12002-40-3",
    "SMILES": "C(=CC)C1=CC=C(OC)C=C1",
    "meta_data": {
        "InChI": "InChI=1S/C10H12O/c1-3-4-9-5-7-10(11-2)8-6-9/h3-8H,1-2H3",
        "InChIKey": null,
        "Canonical SMILES": "O(C1=CC=C(C=C1)C=CC)C",
        "Molecular Formula": "C<sub>10</sub>H<sub>12</sub>O",
        "Molecular Mass": "148.20",
        "Boiling Point": "234 °C",
        "Melting Point": "21.3 °C",
        "Density": "0.9878 g/cm³ @ Temp: 20 °C"
    }
}