{
    "cas_no": "1795-17-1",
    "key_name": "Dodecylcyclohexane",
    "cn_name": null,
    "alternate_name": "Cyclohexane, dodecyl-;Dodecane, 1-cyclohexyl-;Dodecylcyclohexane;<em>n</em>-Dodecylcyclohexane;1-Cyclohexyldodecane",
    "duplicated_cas_no": "",
    "SMILES": "C(CCCCCCCCCCC)C1CCCCC1",
    "meta_data": {
        "InChI": "InChI=1S/C18H36/c1-2-3-4-5-6-7-8-9-10-12-15-18-16-13-11-14-17-18/h18H,2-17H2,1H3",
        "InChIKey": null,
        "Canonical SMILES": "CCCCCCCCCCCCC1CCCCC1",
        "Molecular Formula": "C<sub>18</sub>H<sub>36</sub>",
        "Molecular Mass": "252.48",
        "Boiling Point": "331 °C",
        "Melting Point": "12.5 °C",
        "Density": "0.8250 g/cm³ @ Temp: 20 °C"
    }
}