{
    "cas_no": "498-15-7",
    "key_name": "(+)-3-Carene",
    "cn_name": "(1S)-(+)-3-蒈烯;(1S)-3,7,7-三甲基双环[4.1.0]庚-3-烯;",
    "alternate_name": "Bicyclo[4.1.0]hept-3-ene, 3,7,7-trimethyl-, (1<em>S</em>,6<em>R</em>)-;3-Carene, (1<em>S</em>,6<em>R</em>)-(+)-;Bicyclo[4.1.0]hept-3-ene, 3,7,7-trimethyl-, (1<em>S</em>)-;(1<em>S</em>,6<em>R</em>)-3,7,7-Trimethylbicyclo[4.1.0]hept-3-ene;Isodiprene;(+)-3-Carene;(+)-Carene-3;(1<em>S</em>,6<em>R</em>)-3-Carene;(<em>S</em>)-(+)-3-Carene;(+)-Δ<sup>3</sup>-Carene;(1<em>S</em>)-(+)-3-Carene;(1<em>S</em>)-3-Carene;(1S,6R)-3,7,7-Trimethylbicyclo[4.1.0]hept-3-ene",
    "duplicated_cas_no": "19079-29-9;1217529-05-9;2166449-76-7;2310325-77-8;2643307-06-4;2992914-51-7",
    "SMILES": "CC1(C)[C@]2([C@@]1(CC(C)=CC2)[H])[H]",
    "meta_data": {
        "InChI": "InChI=1S/C10H16/c1-7-4-5-8-9(6-7)10(8,2)3/h4,8-9H,5-6H2,1-3H3/t8-,9+/m1/s1",
        "InChIKey": null,
        "Canonical SMILES": "C1=C(C)CC2C(C1)C2(C)C",
        "Molecular Formula": "C<sub>10</sub>H<sub>16</sub>",
        "Molecular Mass": "136.23",
        "Boiling Point": "167-170 °C",
        "Melting Point": "71-72 °C",
        "Density": "0.8561 g/cm³ @ Temp: 20 °C"
    }
}