{
    "cas_no": "832-66-6",
    "key_name": "3,7-Dihydro-1,3,7,8-tetramethyl-1<em>H</em>-purine-2,6-dione",
    "cn_name": "1,3,7,8-四甲基黄嘌呤;",
    "alternate_name": "1<em>H</em>-Purine-2,6-dione, 3,7-dihydro-1,3,7,8-tetramethyl-;Xanthine, 1,3,7,8-tetramethyl-;3,7-Dihydro-1,3,7,8-tetramethyl-1<em>H</em>-purine-2,6-dione;Methylcaffeine;8-Methylcaffeine;1,3,7,8-Tetramethylxanthine;1,3,7,8-Tetramethylpurine-2,6-dione",
    "duplicated_cas_no": "",
    "SMILES": "CN1C2=C(C(=O)N(C)C1=O)N(C)C(C)=N2",
    "meta_data": {
        "InChI": "InChI=1S/C9H12N4O2/c1-5-10-7-6(11(5)2)8(14)13(4)9(15)12(7)3/h1-4H3",
        "InChIKey": null,
        "Canonical SMILES": "O=C1C2=C(N=C(N2C)C)N(C(=O)N1C)C",
        "Molecular Formula": "C<sub>9</sub>H<sub>12</sub>N<sub>4</sub>O<sub>2</sub>",
        "Molecular Mass": "208.22",
        "Melting Point": "206-208 °C"
    }
}