{
    "cas_no": "181695-72-7",
    "key_name": "Valdecoxib",
    "cn_name": "代他考昔;",
    "alternate_name": "Benzenesulfonamide, 4-(5-methyl-3-phenyl-4-isoxazolyl)-;4-(5-Methyl-3-phenyl-4-isoxazolyl)benzenesulfonamide;SC 65872;Valdecoxib;4-(5-Methyl-3-phenylisoxazol-4-yl)benzenesulfonamide;Bextra;Valecoxib;Valus;Valz;Vx 2;Valdyn",
    "duplicated_cas_no": "",
    "SMILES": "CC1=C(C(=NO1)C2=CC=CC=C2)C3=CC=C(S(N)(=O)=O)C=C3",
    "meta_data": {
        "InChI": "InChI=1S/C16H14N2O3S/c1-11-15(12-7-9-14(10-8-12)22(17,19)20)16(18-21-11)13-5-3-2-4-6-13/h2-10H,1H3,(H2,17,19,20)",
        "InChIKey": null,
        "Canonical SMILES": "O=S(=O)(N)C1=CC=C(C=C1)C=2C(=NOC2C)C=3C=CC=CC3",
        "Molecular Formula": "C<sub>16</sub>H<sub>14</sub>N<sub>2</sub>O<sub>3</sub>S",
        "Molecular Mass": "314.36",
        "Melting Point": "172-173 °C"
    }
}