{
    "cas_no": "822-86-6",
    "key_name": "<em>trans</em>-1,2-Dichlorocyclohexane",
    "cn_name": "反式-1,2-二氯环己烷;反-1,2-二氯环己胺;",
    "alternate_name": "Cyclohexane, 1,2-dichloro-, (1<em>R</em>,2<em>R</em>)-<em>rel</em>-;Cyclohexane, 1,2-dichloro-, <em>trans</em>-;<em>rel</em>-(1<em>R</em>,2<em>R</em>)-1,2-Dichlorocyclohexane;<em>trans</em>-1,2-Dichlorocyclohexane;1,2-<em>trans</em>-Dichlorocyclohexane",
    "duplicated_cas_no": "5183-79-9;23012-87-5",
    "SMILES": "Cl[C@H]1[C@H](Cl)CCCC1",
    "meta_data": {
        "InChI": "InChI=1/C6H10Cl2/c7-5-3-1-2-4-6(5)8/h5-6H,1-4H2/t5-,6-/s2",
        "InChIKey": null,
        "Canonical SMILES": "ClC1CCCCC1Cl",
        "Molecular Formula": "C<sub>6</sub>H<sub>10</sub>Cl<sub>2</sub>",
        "Molecular Mass": "153.05",
        "Boiling Point": "193.5 °C",
        "Melting Point": "-6.5 °C",
        "Density": "1.1710 g/cm³ @ Temp: 30 °C"
    }
}