{
    "cas_no": "18448-47-0",
    "key_name": "1-Cyclohexene-1-carboxylic acid, methyl ester",
    "cn_name": "1-环己烯基-1-甲酸甲酯;",
    "alternate_name": "1-Cyclohexene-1-carboxylic acid, methyl ester;Methyl 1-cyclohexene-1-carboxylate;1-(Methoxycarbonyl)-1-cyclohexene;1-(Carbomethoxy)cyclohexene;Methyl 1-cyclohexenecarboxylate",
    "duplicated_cas_no": "",
    "SMILES": "C(OC)(=O)C=1CCCCC1",
    "meta_data": {
        "InChI": "InChI=1S/C8H12O2/c1-10-8(9)7-5-3-2-4-6-7/h5H,2-4,6H2,1H3",
        "InChIKey": null,
        "Canonical SMILES": "O=C(OC)C1=CCCCC1",
        "Molecular Formula": "C<sub>8</sub>H<sub>12</sub>O<sub>2</sub>",
        "Molecular Mass": "140.18",
        "Boiling Point": "105 °C @ Press: 40 Torr"
    }
}