{
    "cas_no": "80-08-0",
    "key_name": "Dapsone",
    "cn_name": "4,4\"-二氨基二苯砜;",
    "alternate_name": "Benzenamine, 4,4′-sulfonylbis-;Aniline, 4,4′-sulfonyldi-;4,4′-Sulfonylbis[benzenamine];1358F;F 1358;Avlosulfon;Avlosulfone;Bis(4-aminophenyl) sulfone;Croysulfone;DADPS;Dapsone;DDS;<em>p</em>,<em>p</em>′-Diaminodiphenyl sulfone;4,4′-Diaminodiphenyl sulfone;Di(<em>p</em>-aminophenyl) sulfone;Diaphenylsulfone;Di(4-aminophenyl)sulfone;Diphenasone;Diphone;Disulone;DSS;Dumitone;Eporal;Metabolite C;Novophone;Sulfona-Mae;<em>p</em>,<em>p</em>′-Sulfonyldianiline;4,4′-Sulfonyldianiline;Sulphadione;4,4′-Sulphonyldianiline;Udolac;DDS (pharmaceutical);Bis(<em>p</em>-aminophenyl) sulfone;4-Aminophenyl sulfone;4,4′-Sulfonylbisbenzamine;1,1′-Sulfonylbis[4-aminobenzene];Sulfona;<em>p</em>-Aminophenyl sulfone;Diaphenylsulfon;Dapson;4,4′-Sulfonylbisaniline;HT 976;Araldite HT 976;Sumicure S;Hardener HT 976;4,4′-Dapsone;HT 9664;Seikacure S;NSC 6091;HY 976;Aradur 976-1;HT 976-1;Servidapson;4,4′-DDS;4,4′-Sulfonyldiphenylamine;DADFS;HB-MC-GE 40;HB-MC-GE 45;Lapox K 10;Aczone;Atrisone;Aradur 9664-1;4-(4-Aminophenylsulfonyl)benzenamine;4-(4-Aminophenyl)sulfonylaniline;Aradur 9761-1;4,4′-Diaminobiphenyl sulfone;HEW 62;Aradur 976;D 0089;Aradur 9664-1NL;K 10;44DDS;Aradur 9664;CD 107482;Aradur 976-1NL;MeSH ID: D003622;Hansort 1499;Lapox ASH 10",
    "duplicated_cas_no": "1246638-15-2;3017153-12-4",
    "SMILES": "S(=O)(=O)(C1=CC=C(N)C=C1)C2=CC=C(N)C=C2",
    "meta_data": {
        "InChI": "InChI=1S/C12H12N2O2S/c13-9-1-5-11(6-2-9)17(15,16)12-7-3-10(14)4-8-12/h1-8H,13-14H2",
        "InChIKey": null,
        "Canonical SMILES": "O=S(=O)(C1=CC=C(N)C=C1)C2=CC=C(N)C=C2",
        "Molecular Formula": "C<sub>12</sub>H<sub>12</sub>N<sub>2</sub>O<sub>2</sub>S",
        "Molecular Mass": "248.30",
        "Melting Point": "175-176 °C",
        "Density": "1.392 g/cm³"
    }
}