{
    "cas_no": "2816-43-5",
    "key_name": "Triphenylgermane",
    "cn_name": "三苯基氢化锗;",
    "alternate_name": "Germane, triphenyl-;Triphenylgermane;Triphenylgermanium hydride;Triphenylgermanyl hydride;NSC 170049",
    "duplicated_cas_no": "",
    "SMILES": "[GeH](C1=CC=CC=C1)(C2=CC=CC=C2)C3=CC=CC=C3",
    "meta_data": {
        "InChI": "InChI=1S/C18H16Ge/c1-4-10-16(11-5-1)19(17-12-6-2-7-13-17)18-14-8-3-9-15-18/h1-15,19H",
        "InChIKey": null,
        "Canonical SMILES": "C=1C=CC(=CC1)[GeH](C=2C=CC=CC2)C=3C=CC=CC3",
        "Molecular Formula": "C<sub>18</sub>H<sub>16</sub>Ge",
        "Molecular Mass": "304.96",
        "Boiling Point": "128-129 °C @ Press: 0.03 Torr",
        "Melting Point": "41-43 °C"
    }
}