{
    "cas_no": "365-24-2",
    "key_name": "Bis(4-fluorophenyl)methanol",
    "cn_name": "4,4\"-二氟二苯甲醇;",
    "alternate_name": "Benzenemethanol, 4-fluoro-α-(4-fluorophenyl)-;Benzhydrol, 4,4′-difluoro-;4-Fluoro-α-(4-fluorophenyl)benzenemethanol;<em>p</em>,<em>p</em>′-Difluorobenzhydrol;4,4′-Difluorobenzhydrol;4-Fluoro-α-(4-fluorophenyl)benzyl alcohol;Bis(<em>p</em>-fluorophenyl)methanol;Bis(4-fluorophenyl)methanol;Di-<em>p</em>-fluorophenylmethanol;4,4′-Difluorodiphenylcarbinol;4,4′-Difluorodiphenylmethanol;4,4′-Difluorobenzhydryl alcohol;Di-(4-fluorophenyl)methanol",
    "duplicated_cas_no": "",
    "SMILES": "C(O)(C1=CC=C(F)C=C1)C2=CC=C(F)C=C2",
    "meta_data": {
        "InChI": "InChI=1S/C13H10F2O/c14-11-5-1-9(2-6-11)13(16)10-3-7-12(15)8-4-10/h1-8,13,16H",
        "InChIKey": null,
        "Canonical SMILES": "FC1=CC=C(C=C1)C(O)C2=CC=C(F)C=C2",
        "Molecular Formula": "C<sub>13</sub>H<sub>10</sub>F<sub>2</sub>O",
        "Molecular Mass": "220.21",
        "Boiling Point": "150-154 °C @ Press: 5 Torr",
        "Melting Point": "47.3-47.5 °C"
    }
}