{
    "cas_no": "221018-02-6",
    "key_name": "4′-(Methylthio)[1,1′-biphenyl]-4-carboxaldehyde",
    "cn_name": null,
    "alternate_name": "[1,1′-Biphenyl]-4-carboxaldehyde, 4′-(methylthio)-;4′-(Methylthio)[1,1′-biphenyl]-4-carboxaldehyde;4-(4-Methyl-2-thienyl)benzaldehyde",
    "duplicated_cas_no": "1102374-81-1",
    "SMILES": "C(=O)C1=CC=C(C=C1)C2=CC=C(SC)C=C2",
    "meta_data": {
        "InChI": "InChI=1S/C14H12OS/c1-16-14-8-6-13(7-9-14)12-4-2-11(10-15)3-5-12/h2-10H,1H3",
        "InChIKey": null,
        "Canonical SMILES": "O=CC1=CC=C(C=C1)C=2C=CC(SC)=CC2",
        "Molecular Formula": "C<sub>14</sub>H<sub>12</sub>OS",
        "Molecular Mass": "228.31",
        "Melting Point": "100.1-102.2 °C"
    }
}