{
    "cas_no": "39608-31-6",
    "key_name": "<em>N</em>-Methyl-<em>N</em>-[(phenylmethoxy)carbonyl]glycine",
    "cn_name": null,
    "alternate_name": "Glycine, <em>N</em>-methyl-<em>N</em>-[(phenylmethoxy)carbonyl]-;Sarcosine, <em>N</em>-carboxy-, <em>N</em>-benzyl ester;<em>N</em>-Methyl-<em>N</em>-[(phenylmethoxy)carbonyl]glycine;<em>N</em>-(Benzyloxycarbonyl)sarcosine;<em>N</em>-Carbobenzoxysarcosine;<em>N</em>-(Phenylmethoxycarbonyl)sarcosine;<em>N</em>-Benzyloxycarbonyl-<em>N</em>-methylglycine;Cbz-Sar-OH;NSC 97943;[(Benzyloxycarbonyl)(methyl)amino]acetic acid;2-[(Benzyloxycarbonyl)(methyl)amino]acetic acid;2-[Methyl(phenylmethoxycarbonyl)amino]acetic acid",
    "duplicated_cas_no": "860641-69-6",
    "SMILES": "C(OC(N(CC(O)=O)C)=O)C1=CC=CC=C1",
    "meta_data": {
        "InChI": "InChI=1S/C11H13NO4/c1-12(7-10(13)14)11(15)16-8-9-5-3-2-4-6-9/h2-6H,7-8H2,1H3,(H,13,14)",
        "InChIKey": null,
        "Canonical SMILES": "O=C(O)CN(C(=O)OCC=1C=CC=CC1)C",
        "Molecular Formula": "C<sub>11</sub>H<sub>13</sub>NO<sub>4</sub>",
        "Molecular Mass": "223.23",
        "Melting Point": "54 °C"
    }
}