{
    "cas_no": "140-64-7",
    "key_name": "Pentamidine isethionate",
    "cn_name": "喷他脒羟乙磺酸盐;喷它咪啶二羟乙基磺酸盐;4,4\"-(五亚甲基二氧代)二苯甲脒二羟乙基磺酸盐;",
    "alternate_name": "Ethanesulfonic acid, 2-hydroxy-, compd. with 4,4′-[1,5-pentanediylbis(oxy)]bis[benzenecarboximidamide] (2:1);Ethanesulfonic acid, 2-hydroxy-, compd. with 4,4′-(pentamethylenedioxy)dibenzamidine (2:1);Benzamidine, 4,4′-(pentamethylenedioxy)di-, diisethionate;Benzenecarboximidamide, 4,4′-[1,5-pentanediylbis(oxy)]bis-, bis(2-hydroxyethanesulfonate);RP 2512;4,4′-Diamidinodiphenoxypentane di(β-hydroxyethanesulfonate);4,4′-Diamidino-α,ω-diphenoxypentane diisethionate;Lomidine;<em>p</em>,<em>p</em>′-(Pentamethylenedioxy)dibenzamidine bis(β-hydroxyethanesulfonate);Pentamidine diisethionate;Pentamidine isethionate;Lomidin;1,5-Bis(4-amidinophenoxy)pentane diisethionate;Diamidine;M &amp; B 800;2512RP;WR 4931;Pentam;NebuPent;Pentam 300;Banambax;Pentamidine isetionate;Pneumopent;Aeropent;Pentacarinat;VLX 103",
    "duplicated_cas_no": "",
    "SMILES": "C(S(=O)(=O)O)CO.C(=N)(N)C1=CC=C(OCCCCCOC2=CC=C(C(=N)N)C=C2)C=C1",
    "meta_data": {
        "InChI": "InChI=1S/C19H24N4O2.C2H6O4S/c20-18(21)14-4-8-16(9-5-14)24-12-2-1-3-13-25-17-10-6-15(7-11-17)19(22)23;3-1-2-7(4,5)6/h4-11H,1-3,12-13H2,(H3,20,21)(H3,22,23);3H,1-2H2,(H,4,5,6)",
        "InChIKey": null,
        "Canonical SMILES": "O=S(=O)(O)CCO.N=C(N)C1=CC=C(OCCCCCOC2=CC=C(C=C2)C(=N)N)C=C1",
        "Molecular Formula": "C<sub>19</sub>H<sub>24</sub>N<sub>4</sub>O<sub>2</sub>.2C<sub>2</sub>H<sub>6</sub>O<sub>4</sub>S",
        "Molecular Mass": "",
        "Melting Point": "180 °C"
    }
}