{
    "cas_no": "701-83-7",
    "key_name": "Phenol, 3-fluoro-, 1-acetate",
    "cn_name": "3-氟苯酚乙酸酯;乙酸3-氟苯基;",
    "alternate_name": "Phenol, 3-fluoro-, 1-acetate;Phenol, <em>m</em>-fluoro-, acetate;Phenol, 3-fluoro-, acetate;3-Fluorophenyl acetate;Acetic acid 3-fluorophenyl ester;m-Fluorophenyl acetate;<em>m</em>-Fluorophenyl acetate;1-Acetoxy-3-fluorobenzene",
    "duplicated_cas_no": "",
    "SMILES": "O(C(C)=O)C1=CC(F)=CC=C1",
    "meta_data": {
        "InChI": "InChI=1S/C8H7FO2/c1-6(10)11-8-4-2-3-7(9)5-8/h2-5H,1H3",
        "InChIKey": null,
        "Canonical SMILES": "O=C(OC=1C=CC=C(F)C1)C",
        "Molecular Formula": "C<sub>8</sub>H<sub>7</sub>FO<sub>2</sub>",
        "Molecular Mass": "154.14",
        "Boiling Point": "77-78 °C @ Press: 13 Torr"
    }
}