{
    "cas_no": "67242-60-8",
    "key_name": "2-Methyl-1<em>H</em>-indole-3-carboxamide",
    "cn_name": "2-甲基吲哚-3-甲酰胺;",
    "alternate_name": "1<em>H</em>-Indole-3-carboxamide, 2-methyl-;2-Methyl-1<em>H</em>-indole-3-carboxamide;2-Methyl-3-indolecarboxamide;3-Carbamoyl-2-methylindole",
    "duplicated_cas_no": "",
    "SMILES": "C(N)(=O)C=1C=2C(NC1C)=CC=CC2",
    "meta_data": {
        "InChI": "InChI=1S/C10H10N2O/c1-6-9(10(11)13)7-4-2-3-5-8(7)12-6/h2-5,12H,1H3,(H2,11,13)",
        "InChIKey": null,
        "Canonical SMILES": "O=C(N)C=1C=2C=CC=CC2NC1C",
        "Molecular Formula": "C<sub>10</sub>H<sub>10</sub>N<sub>2</sub>O",
        "Molecular Mass": "174.20",
        "Melting Point": "218 °C"
    }
}