{
    "cas_no": "3144-54-5",
    "key_name": "4-Caproylresorcinol",
    "cn_name": "2\",4\"-二羟基苯己酮;",
    "alternate_name": "1-Hexanone, 1-(2,4-dihydroxyphenyl)-;Hexanophenone, 2′,4′-dihydroxy-;1-(2,4-Dihydroxyphenyl)-1-hexanone;4-Caproylresorcinol;2′,4′-Dihydroxycaprophenone;2′,4′-Dihydroxyhexanophenone;NSC 163332;4-Hexanoylresorcinol",
    "duplicated_cas_no": "",
    "SMILES": "C(CCCCC)(=O)C1=C(O)C=C(O)C=C1",
    "meta_data": {
        "InChI": "InChI=1S/C12H16O3/c1-2-3-4-5-11(14)10-7-6-9(13)8-12(10)15/h6-8,13,15H,2-5H2,1H3",
        "InChIKey": null,
        "Canonical SMILES": "O=C(C1=CC=C(O)C=C1O)CCCCC",
        "Molecular Formula": "C<sub>12</sub>H<sub>16</sub>O<sub>3</sub>",
        "Molecular Mass": "208.25",
        "Boiling Point": "343 °C",
        "Melting Point": "57 °C"
    }
}