{
    "cas_no": "4098-40-2",
    "key_name": "(-)-Mitragynine",
    "cn_name": null,
    "alternate_name": "Indolo[2,3-<em>a</em>]quinolizine-2-acetic acid, 3-ethyl-1,2,3,4,6,7,12,12b-octahydro-8-methoxy-α-(methoxymethylene)-, methyl ester, (α<em>E</em>,2<em>S</em>,3<em>S</em>,12b<em>S</em>)-;Mitragynine;Corynan-16-carboxylic acid, 16,17-didehydro-9,17-dimethoxy-, methyl ester, (16<em>E</em>,20β)-;Corynantheidine, 9-methoxy-;9-Methoxycorynantheidine;Mitragynin;(-)-Mitragynine;Indolo[2,3-<em>a</em>]quinolizine-2-acetic acid, 3-ethyl-1,2,3,4,6,7,12,12b-octahydro-8-methoxy-α-(methoxymethylene)-, methyl ester, [2<em>S</em>-[2α(<em>E</em>),3α,12bβ]]-",
    "duplicated_cas_no": "1383-32-0;6202-22-8",
    "SMILES": "O(C)C1=C2C3=C([C@]4(N(CC3)C[C@@H](CC)[C@@H](\\C(\\C(OC)=O)=C/OC)C4)[H])NC2=CC=C1",
    "meta_data": {
        "InChI": "InChI=1S/C23H30N2O4/c1-5-14-12-25-10-9-15-21-18(7-6-8-20(21)28-3)24-22(15)19(25)11-16(14)17(13-27-2)23(26)29-4/h6-8,13-14,16,19,24H,5,9-12H2,1-4H3/b17-13+/t14-,16+,19+/m1/s1",
        "InChIKey": null,
        "Canonical SMILES": "O=C(OC)C(=COC)C1CC2C=3NC=4C=CC=C(OC)C4C3CCN2CC1CC",
        "Molecular Formula": "C<sub>23</sub>H<sub>30</sub>N<sub>2</sub>O<sub>4</sub>",
        "Molecular Mass": "398.50",
        "Boiling Point": "235 °C",
        "Melting Point": "104 °C"
    }
}