{
    "cas_no": "54288-70-9",
    "key_name": "Piperidine, 4-bromo-, hydrobromide (1:1)",
    "cn_name": "4-溴哌啶氢溴酸盐;",
    "alternate_name": "Piperidine, 4-bromo-, hydrobromide (1:1);Piperidine, 4-bromo-, hydrobromide;4-Bromopiperidine hydrobromide",
    "duplicated_cas_no": "",
    "SMILES": "BrC1CCNCC1.Br",
    "meta_data": {
        "InChI": "InChI=1S/C5H10BrN.BrH/c6-5-1-3-7-4-2-5;/h5,7H,1-4H2;1H",
        "InChIKey": null,
        "Canonical SMILES": "Br.BrC1CCNCC1",
        "Molecular Formula": "C<sub>5</sub>H<sub>10</sub>BrN.BrH",
        "Molecular Mass": "",
        "Melting Point": "192-193 °C"
    }
}