{
    "cas_no": "2549-53-3",
    "key_name": "Tetradecyl methacrylate",
    "cn_name": "甲基丙烯酸十四酯;甲基丙烯酸十四酯;2-丙烯酸-2-甲基十四烷酯;",
    "alternate_name": "2-Propenoic acid, 2-methyl-, tetradecyl ester;Methacrylic acid, tetradecyl ester;1-Tetradecanol, methacrylate;Myristyl methacrylate;Tetradecyl methacrylate;<em>n</em>-Tetradecyl methacrylate",
    "duplicated_cas_no": "",
    "SMILES": "C(COC(C(C)=C)=O)CCCCCCCCCCCC",
    "meta_data": {
        "InChI": "InChI=1S/C18H34O2/c1-4-5-6-7-8-9-10-11-12-13-14-15-16-20-18(19)17(2)3/h2,4-16H2,1,3H3",
        "InChIKey": null,
        "Canonical SMILES": "O=C(OCCCCCCCCCCCCCC)C(=C)C",
        "Molecular Formula": "C<sub>18</sub>H<sub>34</sub>O<sub>2</sub>",
        "Molecular Mass": "282.46",
        "Boiling Point": "147-154 °C @ Press: 0.70 Torr"
    }
}