{
    "cas_no": "1149-99-1",
    "key_name": "(2′<em>S</em>,3′<em>R</em>,6′<em>R</em>)-2′,3′-Dihydro-3′,6′-dihydroxy-2′-(hydroxymethyl)-2′,4′,6′-trimethylspiro[cyclopropane-1,5′-[5<em>H</em>]inden]-7′(6′<em>H</em>)-one",
    "cn_name": null,
    "alternate_name": "Spiro[cyclopropane-1,5′-[5<em>H</em>]inden]-7′(6′<em>H</em>)-one, 2′,3′-dihydro-3′,6′-dihydroxy-2′-(hydroxymethyl)-2′,4′,6′-trimethyl-, (2′<em>S</em>,3′<em>R</em>,6′<em>R</em>)-;Illudin S;Spiro[cyclopropane-1,5′-[5<em>H</em>]inden]-7′(6′<em>H</em>)-one, 2′,3′-dihydro-3′,6′-dihydroxy-2′-(hydroxymethyl)-2′,4′,6′-trimethyl-, [2′<em>S</em>-(2′α,3′β,6′α)]-;(2′<em>S</em>,3′<em>R</em>,6′<em>R</em>)-2′,3′-Dihydro-3′,6′-dihydroxy-2′-(hydroxymethyl)-2′,4′,6′-trimethylspiro[cyclopropane-1,5′-[5<em>H</em>]inden]-7′(6′<em>H</em>)-one;Illudine S;Lampterol;Lunamycin;NSC 400979;NSC 626369",
    "duplicated_cas_no": "1413-64-5",
    "SMILES": "CC=1C2(CC2)[C@@](C)(O)C(=O)C=3C1[C@@H](O)[C@@](CO)(C)C3",
    "meta_data": {
        "InChI": "InChI=1S/C15H20O4/c1-8-10-9(6-13(2,7-16)12(10)18)11(17)14(3,19)15(8)4-5-15/h6,12,16,18-19H,4-5,7H2,1-3H3/t12-,13+,14+/m1/s1",
        "InChIKey": null,
        "Canonical SMILES": "O=C1C2=CC(C)(CO)C(O)C2=C(C)C3(CC3)C1(O)C",
        "Molecular Formula": "C<sub>15</sub>H<sub>20</sub>O<sub>4</sub>",
        "Molecular Mass": "264.32",
        "Melting Point": "124-126 °C"
    }
}