{
    "cas_no": "1128-61-6",
    "key_name": "6-Fluoro-2-methylquinoline",
    "cn_name": "6-氟-2-甲基喹啉;",
    "alternate_name": "Quinoline, 6-fluoro-2-methyl-;Quinaldine, 6-fluoro-;6-Fluoro-2-methylquinoline;6-Fluoroquinaldine;2-Methyl-6-fluoroquinoline",
    "duplicated_cas_no": "",
    "SMILES": "FC1=CC2=C(N=C(C)C=C2)C=C1",
    "meta_data": {
        "InChI": "InChI=1S/C10H8FN/c1-7-2-3-8-6-9(11)4-5-10(8)12-7/h2-6H,1H3",
        "InChIKey": null,
        "Canonical SMILES": "FC=1C=CC=2N=C(C=CC2C1)C",
        "Molecular Formula": "C<sub>10</sub>H<sub>8</sub>FN",
        "Molecular Mass": "161.18",
        "Boiling Point": "123-126 °C @ Press: 17 Torr",
        "Melting Point": "57-59 °C"
    }
}