{
    "cas_no": "13721-20-5",
    "key_name": "3-Chloro-4-methoxybenzeneacetic acid",
    "cn_name": null,
    "alternate_name": "Benzeneacetic acid, 3-chloro-4-methoxy-;Acetic acid, (3-chloro-4-methoxyphenyl)-;3-Chloro-4-methoxybenzeneacetic acid;(3-Chloro-4-methoxyphenyl)acetic acid;2-(3-Chloro-4-methoxyphenyl)acetic acid",
    "duplicated_cas_no": "",
    "SMILES": "O(C)C1=C(Cl)C=C(CC(O)=O)C=C1",
    "meta_data": {
        "InChI": "InChI=1S/C9H9ClO3/c1-13-8-3-2-6(4-7(8)10)5-9(11)12/h2-4H,5H2,1H3,(H,11,12)",
        "InChIKey": null,
        "Canonical SMILES": "O=C(O)CC1=CC=C(OC)C(Cl)=C1",
        "Molecular Formula": "C<sub>9</sub>H<sub>9</sub>ClO<sub>3</sub>",
        "Molecular Mass": "200.62",
        "Melting Point": "95-96 °C"
    }
}