{
    "cas_no": "33229-89-9",
    "key_name": "<em>N</em>,<em>N</em>-Dimethylglycine ethyl ester",
    "cn_name": "N,N-二甲氨基乙酸乙酯;",
    "alternate_name": "Glycine, <em>N</em>,<em>N</em>-dimethyl-, ethyl ester;<em>N</em>,<em>N</em>-Dimethylglycine ethyl ester;Dimethylglycine ethyl ester;Ethyl (dimethylamino)acetate;Ethyl dimethylglycinate;Ethyl <em>N</em>,<em>N</em>-dimethylglycinate;Ethyl (<em>N</em>,<em>N</em>-dimethylamino)acetate;Ethyl 2-(dimethylamino)acetate",
    "duplicated_cas_no": "",
    "SMILES": "C(C(OCC)=O)N(C)C",
    "meta_data": {
        "InChI": "InChI=1S/C6H13NO2/c1-4-9-6(8)5-7(2)3/h4-5H2,1-3H3",
        "InChIKey": null,
        "Canonical SMILES": "O=C(OCC)CN(C)C",
        "Molecular Formula": "C<sub>6</sub>H<sub>13</sub>NO<sub>2</sub>",
        "Molecular Mass": "131.17",
        "Boiling Point": "48-49 °C @ Press: 12 Torr",
        "Melting Point": "135 °C"
    }
}