{
    "cas_no": "82-73-5",
    "key_name": "3-Bromophthalic anhydride",
    "cn_name": "4-溴苯酐;4-溴邻苯二甲酸酐;",
    "alternate_name": "1,3-Isobenzofurandione, 4-bromo-;Phthalic anhydride, 3-bromo-;4-Bromo-1,3-isobenzofurandione;3-Bromophthalic anhydride;NSC 508895;4-Bromo-1,3-dihydro-2-benzofuran-1,3-dione",
    "duplicated_cas_no": "",
    "SMILES": "BrC1=C2C(C(=O)OC2=O)=CC=C1",
    "meta_data": {
        "InChI": "InChI=1S/C8H3BrO3/c9-5-3-1-2-4-6(5)8(11)12-7(4)10/h1-3H",
        "InChIKey": null,
        "Canonical SMILES": "O=C1OC(=O)C=2C(Br)=CC=CC12",
        "Molecular Formula": "C<sub>8</sub>H<sub>3</sub>BrO<sub>3</sub>",
        "Molecular Mass": "227.01",
        "Melting Point": "132-134 °C"
    }
}