{
    "cas_no": "3853-91-6",
    "key_name": "1-Iodo-2,3,4,5,6-pentamethylbenzene",
    "cn_name": "碘代正戊基苯;",
    "alternate_name": "Benzene, 1-iodo-2,3,4,5,6-pentamethyl-;Benzene, iodopentamethyl-;1-Iodo-2,3,4,5,6-pentamethylbenzene;Iodopentamethylbenzene;Pentamethyliodobenzene;2,3,4,5,6-Pentamethyliodobenzene",
    "duplicated_cas_no": "",
    "SMILES": "CC1=C(C)C(C)=C(I)C(C)=C1C",
    "meta_data": {
        "InChI": "InChI=1S/C11H15I/c1-6-7(2)9(4)11(12)10(5)8(6)3/h1-5H3",
        "InChIKey": null,
        "Canonical SMILES": "IC=1C(=C(C(=C(C1C)C)C)C)C",
        "Molecular Formula": "C<sub>11</sub>H<sub>15</sub>I",
        "Molecular Mass": "274.14",
        "Melting Point": "134-136 °C"
    }
}