{
    "cas_no": "100-48-1",
    "key_name": "4-Cyanopyridine",
    "cn_name": "4-氰基吡啶;",
    "alternate_name": "4-Pyridinecarbonitrile;Isonicotinonitrile;4-Cyanopyridine;Isonicotinic acid nitrile;γ-Cyanopyridine;4-Pyridinenitrile;4-Azabenzonitrile;4-Pyridyl cyanide;4-Pyridylcarbonitrile;NSC 60681;4-Nitrilopyridine",
    "duplicated_cas_no": "",
    "SMILES": "C(#N)C=1C=CN=CC1",
    "meta_data": {
        "InChI": "InChI=1S/C6H4N2/c7-5-6-1-3-8-4-2-6/h1-4H",
        "InChIKey": null,
        "Canonical SMILES": "N#CC=1C=CN=CC1",
        "Molecular Formula": "C<sub>6</sub>H<sub>4</sub>N<sub>2</sub>",
        "Molecular Mass": "104.11",
        "Boiling Point": "213.5 °C",
        "Melting Point": "79 °C"
    }
}