{
    "cas_no": "1125-30-0",
    "key_name": "1,3,5-Trimethyl-4-nitro-1<em>H</em>-pyrazole",
    "cn_name": null,
    "alternate_name": "1<em>H</em>-Pyrazole, 1,3,5-trimethyl-4-nitro-;Pyrazole, 1,3,5-trimethyl-4-nitro-;1,3,5-Trimethyl-4-nitro-1<em>H</em>-pyrazole;1,3,5-Trimethyl-4-nitropyrazole",
    "duplicated_cas_no": "",
    "SMILES": "N(=O)(=O)C1=C(C)N(C)N=C1C",
    "meta_data": {
        "InChI": "InChI=1S/C6H9N3O2/c1-4-6(9(10)11)5(2)8(3)7-4/h1-3H3",
        "InChIKey": null,
        "Canonical SMILES": "O=N(=O)C=1C(=NN(C1C)C)C",
        "Molecular Formula": "C<sub>6</sub>H<sub>9</sub>N<sub>3</sub>O<sub>2</sub>",
        "Molecular Mass": "155.15",
        "Melting Point": "71.5 °C"
    }
}