{
    "cas_no": "624-41-9",
    "key_name": "2-Methylbutyl acetate",
    "cn_name": "2-甲基丁基乙酸酯;乙酸2-甲基丁酯;",
    "alternate_name": "1-Butanol, 2-methyl-, 1-acetate;1-Butanol, 2-methyl-, acetate;2-Methylbutyl acetate;2-Methyl-1-butyl acetate;2-Methylbutanol acetate",
    "duplicated_cas_no": "129829-14-7",
    "SMILES": "C(COC(C)=O)(CC)C",
    "meta_data": {
        "InChI": "InChI=1S/C7H14O2/c1-4-6(2)5-9-7(3)8/h6H,4-5H2,1-3H3",
        "InChIKey": null,
        "Canonical SMILES": "O=C(OCC(C)CC)C",
        "Molecular Formula": "C<sub>7</sub>H<sub>14</sub>O<sub>2</sub>",
        "Molecular Mass": "130.18",
        "Boiling Point": "140 °C",
        "Density": "0.872 g/cm³ @ Temp: 15 °C"
    }
}