{
    "cas_no": "6064-90-0",
    "key_name": "Methyl heneicosanoate",
    "cn_name": "二十一碳烷酸甲酯;二十一烷酸甲酯;二十一碳酸甲酯;Heneicosanoic acid methyl ester;",
    "alternate_name": "Heneicosanoic acid, methyl ester;Methyl heneicosanoate;Methyl <em>n</em>-heneicosanoate;<em>n</em>-Heneicosanoic acid methyl ester",
    "duplicated_cas_no": "",
    "SMILES": "C(CCCCCCCCCCCCCCC)CCCCC(OC)=O",
    "meta_data": {
        "InChI": "InChI=1S/C22H44O2/c1-3-4-5-6-7-8-9-10-11-12-13-14-15-16-17-18-19-20-21-22(23)24-2/h3-21H2,1-2H3",
        "InChIKey": null,
        "Canonical SMILES": "O=C(OC)CCCCCCCCCCCCCCCCCCCC",
        "Molecular Formula": "C<sub>22</sub>H<sub>44</sub>O<sub>2</sub>",
        "Molecular Mass": "340.58",
        "Melting Point": "47.2 °C"
    }
}