{
    "cas_no": "4316-58-9",
    "key_name": "Tris(4-bromophenyl)amine",
    "cn_name": "三(4-溴苯)胺;三(4-溴苯基)胺;三溴三苯胺;",
    "alternate_name": "Benzenamine, 4-bromo-<em>N</em>,<em>N</em>-bis(4-bromophenyl)-;Triphenylamine, 4,4′,4′′-tribromo-;4-Bromo-<em>N</em>,<em>N</em>-bis(4-bromophenyl)benzenamine;Tris(<em>p</em>-bromophenyl)amine;<em>p</em>,<em>p</em>′,<em>p</em>′′-Tribromotriphenylamine;Tris(4-bromophenyl)amine;<em>N</em>,<em>N</em>-Diphenyl-4,4′,4′′-tribromoaniline;4,4′,4′′-Tribromotriphenylamine;Tri(<em>p</em>-bromophenyl)amine;NSC 86666;Tri(4-bromophenyl)amine;<em>N</em>,<em>N</em>-Bis(4-bromophenyl)-4-bromoaniline",
    "duplicated_cas_no": "",
    "SMILES": "N(C1=CC=C(Br)C=C1)(C2=CC=C(Br)C=C2)C3=CC=C(Br)C=C3",
    "meta_data": {
        "InChI": "InChI=1S/C18H12Br3N/c19-13-1-7-16(8-2-13)22(17-9-3-14(20)4-10-17)18-11-5-15(21)6-12-18/h1-12H",
        "InChIKey": null,
        "Canonical SMILES": "BrC1=CC=C(C=C1)N(C2=CC=C(Br)C=C2)C3=CC=C(Br)C=C3",
        "Molecular Formula": "C<sub>18</sub>H<sub>12</sub>Br<sub>3</sub>N",
        "Molecular Mass": "482.01",
        "Melting Point": "143-144 °C"
    }
}