{
    "cas_no": "121-54-0",
    "key_name": "Benzethonium chloride",
    "cn_name": "苄索氯铵;苄基二甲基[2-[2-[4-(1,1,3,3-四甲基丁基)苯氧基]乙氧基]乙基]氯化铵;",
    "alternate_name": "Benzenemethanaminium, <em>N</em>,<em>N</em>-dimethyl-<em>N</em>-[2-[2-[4-(1,1,3,3-tetramethylbutyl)phenoxy]ethoxy]ethyl]-, chloride (1:1);Ammonium, benzyldimethyl[2-[2-[<em>p</em>-(1,1,3,3-tetramethylbutyl)phenoxy]ethoxy]ethyl]-, chloride;Benzenemethanaminium, <em>N</em>,<em>N</em>-dimethyl-<em>N</em>-[2-[2-[4-(1,1,3,3-tetramethylbutyl)phenoxy]ethoxy]ethyl]-, chloride;Benzethonium chloride;Benzetonium chloride;Benzyldimethyl[2-[2-[<em>p</em>-(1,1,3,3-tetramethylbutyl)phenoxy]ethoxy]ethyl]ammonium chloride;BZT;Diapp;Anti-Germ 77;Hyamine 1622;<em>p</em>-<em>tert</em>-Octylphenoxyethoxyethyldimethylbenzylammonium chloride;Phemeride;Phemerol chloride;Polymine D;Quatrachlor;Phemerol;Benzyldimethyl[2-[2-[4-(1,1,3,3-tetramethylbutyl)phenoxy]ethoxy]ethyl]ammonium chloride;(Diisobutylphenoxyethoxyethyl)dimethylbenzylammonium chloride;Phemithyn;Solamin;[2-[2-(4-Diisobutylphenoxy)ethoxy]ethyl]dimethylbenzylammonium chloride;Antiseptol;MED 81;<em>N</em>-Benzyl-<em>N</em>,<em>N</em>-dimethyl-<em>N</em>-(4-[1,1,3,3-tetramethylbutyl]phenoxyethoxyethyl)ammonium chloride;Antiseptol (quaternary compound);Bencetonium chloride;Benzethionium chloride;LonzaGuard;2-[2-[<em>p</em>-(Diisobutyl)phenoxy]ethoxy]ethyldimethylbenzylammonium chloride;Bian Suo Lv An;Hyamine 1622M;SupGuard BC 200",
    "duplicated_cas_no": "39362-38-4;324034-09-5",
    "SMILES": "C(CC(C)(C)C)(C)(C)C1=CC=C(OCCOCC[N+](CC2=CC=CC=C2)(C)C)C=C1.[Cl-]",
    "meta_data": {
        "InChI": "InChI=1S/C27H42NO2.ClH/c1-26(2,3)22-27(4,5)24-13-15-25(16-14-24)30-20-19-29-18-17-28(6,7)21-23-11-9-8-10-12-23;/h8-16H,17-22H2,1-7H3;1H/q+1;/p-1",
        "InChIKey": null,
        "Canonical SMILES": "[Cl-].O(C1=CC=C(C=C1)C(C)(C)CC(C)(C)C)CCOCC[N+](C)(C)CC=2C=CC=CC2",
        "Molecular Formula": "C<sub>27</sub>H<sub>42</sub>NO<sub>2</sub>.Cl",
        "Molecular Mass": "",
        "Melting Point": "164-166 °C"
    }
}