{
    "cas_no": "24963-28-8",
    "key_name": "3-Acetyl-2(3<em>H</em>)-benzoxazolone",
    "cn_name": "3-乙酰基-2-苯并恶唑酮;",
    "alternate_name": "2(3<em>H</em>)-Benzoxazolone, 3-acetyl-;2-Benzoxazolinone, 3-acetyl-;3-Acetyl-2(3<em>H</em>)-benzoxazolone;3-Acetyl-2-benzoxazolinone;3-Acetyl-3<em>H</em>-benzooxazol-2-one;3-Acetyl-1,3-benzoxazol-2-one;3-Acetylbenzo[<em>d</em>]oxazol-2(3<em>H</em>)-one;3-Acetyl-2,3-dihydro-1,3-benzoxazol-2-one",
    "duplicated_cas_no": "",
    "SMILES": "C(C)(=O)N1C=2C(OC1=O)=CC=CC2",
    "meta_data": {
        "InChI": "InChI=1S/C9H7NO3/c1-6(11)10-7-4-2-3-5-8(7)13-9(10)12/h2-5H,1H3",
        "InChIKey": null,
        "Canonical SMILES": "O=C1OC=2C=CC=CC2N1C(=O)C",
        "Molecular Formula": "C<sub>9</sub>H<sub>7</sub>NO<sub>3</sub>",
        "Molecular Mass": "177.16",
        "Melting Point": "95 °C"
    }
}