{
    "cas_no": "16427-44-4",
    "key_name": "Ethanol, 2-methoxy-, 1-methanesulfonate",
    "cn_name": "甲磺酸2-甲氧基乙酯;",
    "alternate_name": "Ethanol, 2-methoxy-, 1-methanesulfonate;Ethanol, 2-methoxy-, methanesulfonate;Methanesulfonic acid, 2-methoxyethyl ester;β-Methoxyethyl methanesulfonate;2-Methoxyethyl methanesulfonate;2-Methoxyethyl mesylate;Ethylene glycol monomethyl ether methanesulfonate;Ethylene glycol methanesulfonate methyl ether",
    "duplicated_cas_no": "",
    "SMILES": "O(S(C)(=O)=O)CCOC",
    "meta_data": {
        "InChI": "InChI=1S/C4H10O4S/c1-7-3-4-8-9(2,5)6/h3-4H2,1-2H3",
        "InChIKey": null,
        "Canonical SMILES": "O=S(=O)(OCCOC)C",
        "Molecular Formula": "C<sub>4</sub>H<sub>10</sub>O<sub>4</sub>S",
        "Molecular Mass": "154.18",
        "Boiling Point": "80 °C @ Press: 0.4 Torr"
    }
}