{
    "cas_no": "16874-33-2",
    "key_name": "(±)-Tetrahydro-2-furoic acid",
    "cn_name": "2-四氢呋喃甲酸;2-四氢糠酸;",
    "alternate_name": "2-Furancarboxylic acid, tetrahydro-;2-Furoic acid, tetrahydro-;Tetrahydro-2-furancarboxylic acid;Tetrahydro-2-furoic acid;(±)-Tetrahydro-2-furoic acid;(<em>R</em>,<em>S</em>)-Tetrahydrofuran-2-carboxylic acid;NSC 521564;(±)-Tetrahydrofuran-2-carboxylic acid;1,2,3,4-Tetrahydrofuran-2-carboxylic acid;Tetrahydrofuran-2-carboxylic acid",
    "duplicated_cas_no": "72050-52-3;859027-90-0",
    "SMILES": "C(O)(=O)C1CCCO1",
    "meta_data": {
        "InChI": "InChI=1S/C5H8O3/c6-5(7)4-2-1-3-8-4/h4H,1-3H2,(H,6,7)",
        "InChIKey": null,
        "Canonical SMILES": "O=C(O)C1OCCC1",
        "Molecular Formula": "C<sub>5</sub>H<sub>8</sub>O<sub>3</sub>",
        "Molecular Mass": "116.12",
        "Boiling Point": "128-129 °C @ Press: 13 Torr",
        "Melting Point": "21 °C",
        "Density": "1.218 g/cm³ @ Temp: 16 °C"
    }
}