{
    "cas_no": "1134-23-2",
    "key_name": "Ro-Neet 6E",
    "cn_name": "灭草特;",
    "alternate_name": "Carbamothioic acid, <em>N</em>-cyclohexyl-<em>N</em>-ethyl-, <em>S</em>-ethyl ester;Cyclohexanecarbamic acid, <em>N</em>-ethylthio-, <em>S</em>-ethyl ester;Carbamothioic acid, cyclohexylethyl-, <em>S</em>-ethyl ester;R 2063;Cycloate;Ro-Neet;<em>S</em>-Ethyl cyclohexylethylthiocarbamate;<em>S</em>-Ethyl <em>N</em>-cyclohexyl-<em>N</em>-ethylthiolcarbamate;<em>S</em>-Ethyl-<em>N</em>-ethyl-<em>N</em>-cyclohexylthiolcarbamate;Ronit;Ethyl <em>N</em>-cyclohexyl-<em>N</em>-ethylthiolcarbamate;Eurex;Hexylthiocarbam;Etsan;<em>S</em>-Ethyl <em>N</em>-cyclohexyl-<em>N</em>-ethylthiocarbamate;Sabet;Ro-Neet 6E;Buranit;Roneet 72LE",
    "duplicated_cas_no": "102827-02-1;71330-39-7",
    "SMILES": "N(C(SCC)=O)(CC)C1CCCCC1",
    "meta_data": {
        "InChI": "InChI=1S/C11H21NOS/c1-3-12(11(13)14-4-2)10-8-6-5-7-9-10/h10H,3-9H2,1-2H3",
        "InChIKey": null,
        "Canonical SMILES": "O=C(SCC)N(CC)C1CCCCC1",
        "Molecular Formula": "C<sub>11</sub>H<sub>21</sub>NOS",
        "Molecular Mass": "215.36",
        "Boiling Point": "145 °C @ Press: 10 Torr",
        "Melting Point": "11.5 °C",
        "Density": "1.016 g/cm³ @ Temp: 30 °C"
    }
}