{
    "cas_no": "51-79-6",
    "key_name": "Carbamic acid, ethyl ester",
    "cn_name": "氨基甲酸乙酯;",
    "alternate_name": "Carbamic acid, ethyl ester;NSC 746;Ethyl carbamate;Urethan;Urethane;Ethylurethane;<em>O</em>-Ethylurethane;Leucethane;Pracarbamine;Ethyl aminoformate;MeSH ID: D014520",
    "duplicated_cas_no": "121382-27-2",
    "SMILES": "O(C(N)=O)CC",
    "meta_data": {
        "InChI": "InChI=1S/C3H7NO2/c1-2-6-3(4)5/h2H2,1H3,(H2,4,5)",
        "InChIKey": null,
        "Canonical SMILES": "O=C(OCC)N",
        "Molecular Formula": "C<sub>3</sub>H<sub>7</sub>NO<sub>2</sub>",
        "Molecular Mass": "89.09",
        "Boiling Point": "182-184 °C",
        "Melting Point": "48-50 °C",
        "Density": "0.9862 g/cm³ @ Temp: 21 °C"
    }
}