{
    "cas_no": "38901-31-4",
    "key_name": "<em>N</em>-[3,5-Bis(trifluoromethyl)phenyl]hydrazinecarbothioamide",
    "cn_name": "1-[3,5-双(三氟甲基)苯]吡咯;",
    "alternate_name": "Hydrazinecarbothioamide, <em>N</em>-[3,5-bis(trifluoromethyl)phenyl]-;<em>N</em>-[3,5-Bis(trifluoromethyl)phenyl]hydrazinecarbothioamide;4-(3,5-Ditrifluoromethylphenyl)-3-thiosemicarbazide;1-Amino-3-[3,5-bis(trifluoromethyl)phenyl]thiourea",
    "duplicated_cas_no": "",
    "SMILES": "N(C(NN)=S)C1=CC(C(F)(F)F)=CC(C(F)(F)F)=C1",
    "meta_data": {
        "InChI": "InChI=1S/C9H7F6N3S/c10-8(11,12)4-1-5(9(13,14)15)3-6(2-4)17-7(19)18-16/h1-3H,16H2,(H2,17,18,19)",
        "InChIKey": null,
        "Canonical SMILES": "FC(F)(F)C1=CC(=CC(=C1)C(F)(F)F)NC(=S)NN",
        "Molecular Formula": "C<sub>9</sub>H<sub>7</sub>F<sub>6</sub>N<sub>3</sub>S",
        "Molecular Mass": "303.23",
        "Melting Point": "156-158 °C"
    }
}