{
    "cas_no": "3239-45-0",
    "key_name": "(+)-Fenfluramine hydrochloride",
    "cn_name": "右盐酸芬氟拉明;(S)-N-乙基-alpha-甲基-3-(三氟甲基)苯乙胺盐酸盐;",
    "alternate_name": "Benzeneethanamine, <em>N</em>-ethyl-α-methyl-3-(trifluoromethyl)-, hydrochloride (1:?);Phenethylamine, <em>N</em>-ethyl-α-methyl-<em>m</em>-(trifluoromethyl)-, hydrochloride, (+)-;Benzeneethanamine, <em>N</em>-ethyl-α-methyl-3-(trifluoromethyl)-, hydrochloride, (<em>S</em>)-;Benzeneethanamine, <em>N</em>-ethyl-α-methyl-3-(trifluoromethyl)-, hydrochloride, (α<em>S</em>)-;(+)-Fenfluramine hydrochloride;<em>d</em>-Fenfluramine hydrochloride;Isomeride;S 5614 hydrochloride;Dexfenfluramine hydrochloride;Adipomin;Glypolix;Adifax;S 5614 HCl;(<em>S</em>)-<em>N</em>-Ethyl-1-(3-(trifluoromethyl)phenyl)propan-2-amine hydrochloride",
    "duplicated_cas_no": "",
    "SMILES": "C([C@@H](NCC)C)C1=CC(C(F)(F)F)=CC=C1.Cl",
    "meta_data": {
        "InChI": "InChI=1S/C12H16F3N.ClH/c1-3-16-9(2)7-10-5-4-6-11(8-10)12(13,14)15;/h4-6,8-9,16H,3,7H2,1-2H3;1H/t9-;/m0./s1",
        "InChIKey": null,
        "Canonical SMILES": "Cl.FC(F)(F)C=1C=CC=C(C1)CC(NCC)C",
        "Molecular Formula": "C<sub>12</sub>H<sub>16</sub>F<sub>3</sub>N.ClH",
        "Molecular Mass": "",
        "Melting Point": "160-161 °C"
    }
}