{
    "cas_no": "19780-84-8",
    "key_name": "5-Hexyn-3-ol",
    "cn_name": "5-己炔-3-醇;",
    "alternate_name": "5-Hexyn-3-ol;1-Hexyn-4-ol;4-Hydroxy-1-hexyne;NSC 244897",
    "duplicated_cas_no": "96852-84-5",
    "SMILES": "C(CC#C)(CC)O",
    "meta_data": {
        "InChI": "InChI=1S/C6H10O/c1-3-5-6(7)4-2/h1,6-7H,4-5H2,2H3",
        "InChIKey": null,
        "Canonical SMILES": "C#CCC(O)CC",
        "Molecular Formula": "C<sub>6</sub>H<sub>10</sub>O",
        "Molecular Mass": "98.14",
        "Boiling Point": "58-59 °C @ Press: 25 Torr",
        "Density": "0.8918 g/cm³ @ Temp: 20 °C"
    }
}