{
    "cas_no": "2453-03-4",
    "key_name": "Trimethylene carbonate",
    "cn_name": "1,3-二氧杂环己烷-2-酮;三亚甲基碳酸酯单体;",
    "alternate_name": "1,3-Dioxan-2-one;Carbonic acid, cyclic trimethylene ester;Carbonic acid, trimethylene ester;1,3-Propanediol, cyclic carbonate;<em>m</em>-Dioxan-2-one;Trimethylene carbonate;1,3-Propylene carbonate;Cyclic trimethylene carbonate;1,3-Carbonyldioxypropane;2-Oxo-1,3-dioxane;Cyclo(trimethylene carbonate);m-Dioxanone",
    "duplicated_cas_no": "335169-11-4",
    "SMILES": "O=C1OCCCO1",
    "meta_data": {
        "InChI": "InChI=1S/C4H6O3/c5-4-6-2-1-3-7-4/h1-3H2",
        "InChIKey": null,
        "Canonical SMILES": "O=C1OCCCO1",
        "Molecular Formula": "C<sub>4</sub>H<sub>6</sub>O<sub>3</sub>",
        "Molecular Mass": "102.09",
        "Boiling Point": "160-165 °C",
        "Melting Point": "47-48 °C"
    }
}