{
    "cas_no": "3283-12-3",
    "key_name": "Dimethylphosphinic acid",
    "cn_name": "二甲基磷酸;二甲膦酸;",
    "alternate_name": "Phosphinic acid, <em>P</em>,<em>P</em>-dimethyl-;Phosphinic acid, dimethyl-;<em>P</em>,<em>P</em>-Dimethylphosphinic acid;Dimethylphosphinic acid;Hydroxydimethylphosphine oxide;DMPA",
    "duplicated_cas_no": "",
    "SMILES": "P(C)(C)(=O)O",
    "meta_data": {
        "InChI": "InChI=1S/C2H7O2P/c1-5(2,3)4/h1-2H3,(H,3,4)",
        "InChIKey": null,
        "Canonical SMILES": "O=P(O)(C)C",
        "Molecular Formula": "C<sub>2</sub>H<sub>7</sub>O<sub>2</sub>P",
        "Molecular Mass": "94.05",
        "Boiling Point": "377 °C",
        "Melting Point": "92 °C"
    }
}