{
    "cas_no": "19781-86-3",
    "key_name": "8-Hexadecyne",
    "cn_name": "8-十六炔;",
    "alternate_name": "8-Hexadecyne",
    "duplicated_cas_no": "",
    "SMILES": "C(#CCCCCCCC)CCCCCCC",
    "meta_data": {
        "InChI": "InChI=1S/C16H30/c1-3-5-7-9-11-13-15-16-14-12-10-8-6-4-2/h3-14H2,1-2H3",
        "InChIKey": null,
        "Canonical SMILES": "C(#CCCCCCCC)CCCCCCC",
        "Molecular Formula": "C<sub>16</sub>H<sub>30</sub>",
        "Molecular Mass": "222.41",
        "Boiling Point": "115-116 °C @ Press: 0.5 Torr"
    }
}