{
    "cas_no": "1678-98-4",
    "key_name": "Isobutylcyclohexane",
    "cn_name": null,
    "alternate_name": "Cyclohexane, (2-methylpropyl)-;Cyclohexane, isobutyl-;(2-Methylpropyl)cyclohexane;Isobutylcyclohexane;NSC 74187",
    "duplicated_cas_no": "",
    "SMILES": "C(C(C)C)C1CCCCC1",
    "meta_data": {
        "InChI": "InChI=1S/C10H20/c1-9(2)8-10-6-4-3-5-7-10/h9-10H,3-8H2,1-2H3",
        "InChIKey": null,
        "Canonical SMILES": "CC(C)CC1CCCCC1",
        "Molecular Formula": "C<sub>10</sub>H<sub>20</sub>",
        "Molecular Mass": "140.27",
        "Boiling Point": "171.3 °C",
        "Melting Point": "-95 °C",
        "Density": "0.7950 g/cm³ @ Temp: 20 °C"
    }
}