{
    "cas_no": "625-33-2",
    "key_name": "3-Penten-2-one",
    "cn_name": "3-戊烯-2-酮;甲基丙烯基酮；亞乙基丙酮；TECH；3-戊烯-2-酮,TECH.85%;",
    "alternate_name": "3-Penten-2-one;Methyl propenyl ketone;Ethylideneacetone;2-Oxo-3-pentene;Methyl 1-propenyl ketone;2-Penten-4-one;NSC 61468",
    "duplicated_cas_no": "",
    "SMILES": "C(C(C)=O)=CC",
    "meta_data": {
        "InChI": "InChI=1S/C5H8O/c1-3-4-5(2)6/h3-4H,1-2H3",
        "InChIKey": null,
        "Canonical SMILES": "O=C(C=CC)C",
        "Molecular Formula": "C<sub>5</sub>H<sub>8</sub>O",
        "Molecular Mass": "84.12",
        "Boiling Point": "122.5 °C",
        "Density": "0.8614 g/cm³ @ Temp: 20 °C"
    }
}