{
    "cas_no": "1115-90-8",
    "key_name": "2-Aminoheptanoic acid",
    "cn_name": null,
    "alternate_name": "Heptanoic acid, 2-amino-;Heptanoic acid, 2-amino-, <span class=\"text-smallcaps\">DL</span>-;Heptanoic acid, 2-amino-, (±)-;2-Aminoheptanoic acid;<span class=\"text-smallcaps\">DL</span>-Homonorleucine;α-<span class=\"text-smallcaps\">DL</span>-Aminoheptanoic acid;(±)-2-Aminoheptanoic acid;Homonorleucine;Heptyline;NSC 20146;α-Amino-<em>n</em>-heptanoic acid",
    "duplicated_cas_no": "1188-04-1",
    "SMILES": "C(CCCCC)(C(O)=O)N",
    "meta_data": {
        "InChI": "InChI=1S/C7H15NO2/c1-2-3-4-5-6(8)7(9)10/h6H,2-5,8H2,1H3,(H,9,10)",
        "InChIKey": null,
        "Canonical SMILES": "O=C(O)C(N)CCCCC",
        "Molecular Formula": "C<sub>7</sub>H<sub>15</sub>NO<sub>2</sub>",
        "Molecular Mass": "145.20",
        "Melting Point": "274 °C (decomp)"
    }
}