{
    "cas_no": "622-52-6",
    "key_name": "(4-Methylphenyl)thiourea",
    "cn_name": "对甲苯基硫脲;N-对甲苯基硫脲;",
    "alternate_name": "Thiourea, <em>N</em>-(4-methylphenyl)-;Urea, 2-thio-1-<em>p</em>-tolyl-;Thiourea, (4-methylphenyl)-;<em>N</em>-(4-Methylphenyl)thiourea;<em>p</em>-Tolylthiourea;<em>p</em>-Tolylthiocarbamide;<em>N</em>-<em>p</em>-Tolylthiourea;1-<em>p</em>-Tolylthiourea;(4-Methylphenyl)thiourea;1-(4-Methylphenyl)thiourea;4-Tolylthiourea;(<em>p</em>-Methylphenyl)thiourea;NSC 28041;<em>N</em>-(<em>p</em>-Methylphenyl)thiourea;1-(<em>p</em>-Methylphenyl)thiourea",
    "duplicated_cas_no": "",
    "SMILES": "N(C(N)=S)C1=CC=C(C)C=C1",
    "meta_data": {
        "InChI": "InChI=1S/C8H10N2S/c1-6-2-4-7(5-3-6)10-8(9)11/h2-5H,1H3,(H3,9,10,11)",
        "InChIKey": null,
        "Canonical SMILES": "S=C(N)NC1=CC=C(C=C1)C",
        "Molecular Formula": "C<sub>8</sub>H<sub>10</sub>N<sub>2</sub>S",
        "Molecular Mass": "166.24",
        "Melting Point": "182 °C"
    }
}