{
    "cas_no": "289039-85-6",
    "key_name": "Benzoic acid, 3-chloro-5-iodo-, methyl ester",
    "cn_name": "3-氯-5-碘苯甲酸甲酯;",
    "alternate_name": "Benzoic acid, 3-chloro-5-iodo-, methyl ester;Methyl 3-chloro-5-iodobenzoate",
    "duplicated_cas_no": "",
    "SMILES": "C(OC)(=O)C1=CC(Cl)=CC(I)=C1",
    "meta_data": {
        "InChI": "InChI=1S/C8H6ClIO2/c1-12-8(11)5-2-6(9)4-7(10)3-5/h2-4H,1H3",
        "InChIKey": null,
        "Canonical SMILES": "O=C(OC)C=1C=C(Cl)C=C(I)C1",
        "Molecular Formula": "C<sub>8</sub>H<sub>6</sub>ClIO<sub>2</sub>",
        "Molecular Mass": "296.49",
        "Melting Point": "43-44 °C"
    }
}