{
    "cas_no": "392-13-2",
    "key_name": "5-Fluoro-3-methyl-1<em>H</em>-indole",
    "cn_name": "5-氟-3-甲基吲哚;",
    "alternate_name": "1<em>H</em>-Indole, 5-fluoro-3-methyl-;Indole, 5-fluoro-3-methyl-;5-Fluoro-3-methyl-1<em>H</em>-indole;5-Fluoro-3-methylindole",
    "duplicated_cas_no": "",
    "SMILES": "CC=1C=2C(=CC=C(F)C2)NC1",
    "meta_data": {
        "InChI": "InChI=1S/C9H8FN/c1-6-5-11-9-3-2-7(10)4-8(6)9/h2-5,11H,1H3",
        "InChIKey": null,
        "Canonical SMILES": "FC=1C=CC=2NC=C(C2C1)C",
        "Molecular Formula": "C<sub>9</sub>H<sub>8</sub>FN",
        "Molecular Mass": "149.16",
        "Melting Point": "82-83 °C"
    }
}