{
    "cas_no": "335-66-0",
    "key_name": "2,2,3,3,4,4,5,5,6,6,7,7,8,8,8-Pentadecafluorooctanoyl fluoride",
    "cn_name": "全氟辛氟;全氟辛氟;",
    "alternate_name": "Octanoyl fluoride, 2,2,3,3,4,4,5,5,6,6,7,7,8,8,8-pentadecafluoro-;Octanoyl fluoride, pentadecafluoro-;2,2,3,3,4,4,5,5,6,6,7,7,8,8,8-Pentadecafluorooctanoyl fluoride;Perfluorooctanoyl fluoride;Pentadecafluorooctanoyl fluoride;Perfluorocaprylic acid fluoride;Perfluorooctanoic acid fluoride;F 06161",
    "duplicated_cas_no": "",
    "SMILES": "C(C(C(C(C(F)=O)(F)F)(F)F)(F)F)(C(C(C(F)(F)F)(F)F)(F)F)(F)F",
    "meta_data": {
        "InChI": "InChI=1S/C8F16O/c9-1(25)2(10,11)3(12,13)4(14,15)5(16,17)6(18,19)7(20,21)8(22,23)24",
        "InChIKey": null,
        "Canonical SMILES": "O=C(F)C(F)(F)C(F)(F)C(F)(F)C(F)(F)C(F)(F)C(F)(F)C(F)(F)F",
        "Molecular Formula": "C<sub>8</sub>F<sub>16</sub>O",
        "Molecular Mass": "416.06",
        "Boiling Point": "103 °C",
        "Density": "1.7663 g/cm³ @ Temp: 25 °C"
    }
}