{
    "cas_no": "56999-16-7",
    "key_name": "1,1′-Oxybis[2,2-diethoxyethane]",
    "cn_name": null,
    "alternate_name": "Ethane, 1,1′-oxybis[2,2-diethoxy-;Diglycolaldehyde, bis(diethyl acetal);1,1′-Oxybis[2,2-diethoxyethane];2-(2,2-Diethoxyethoxy)-1,1-diethoxyethane",
    "duplicated_cas_no": "",
    "SMILES": "C(COCC(OCC)OCC)(OCC)OCC",
    "meta_data": {
        "InChI": "InChI=1S/C12H26O5/c1-5-14-11(15-6-2)9-13-10-12(16-7-3)17-8-4/h11-12H,5-10H2,1-4H3",
        "InChIKey": null,
        "Canonical SMILES": "O(CC(OCC)OCC)CC(OCC)OCC",
        "Molecular Formula": "C<sub>12</sub>H<sub>26</sub>O<sub>5</sub>",
        "Molecular Mass": "250.33",
        "Boiling Point": "150-155 °C @ Press: 30 Torr"
    }
}