{
    "cas_no": "3387-26-6",
    "key_name": "3,4-Furandicarboxylic acid",
    "cn_name": null,
    "alternate_name": "3,4-Furandicarboxylic acid;NSC 191922;NSC 629037",
    "duplicated_cas_no": "",
    "SMILES": "C(O)(=O)C=1C(C(O)=O)=COC1",
    "meta_data": {
        "InChI": "InChI=1S/C6H4O5/c7-5(8)3-1-11-2-4(3)6(9)10/h1-2H,(H,7,8)(H,9,10)",
        "InChIKey": null,
        "Canonical SMILES": "O=C(O)C1=COC=C1C(=O)O",
        "Molecular Formula": "C<sub>6</sub>H<sub>4</sub>O<sub>5</sub>",
        "Molecular Mass": "156.09",
        "Melting Point": "217-218 °C"
    }
}