{
    "cas_no": "32602-81-6",
    "key_name": "Kaempferol 3-<em>O</em>-neohesperidoside",
    "cn_name": null,
    "alternate_name": "4<em>H</em>-1-Benzopyran-4-one, 3-[[2-<em>O</em>-(6-deoxy-α-<span class=\"text-smallcaps\">L</smallcap>-mannopyranosyl)-β-<smallcap>D</span>-glucopyranosyl]oxy]-5,7-dihydroxy-2-(4-hydroxyphenyl)-;Flavone, 3,4′,5,7-tetrahydroxy-, 3-[2-<em>O</em>-(6-deoxy-α-<span class=\"text-smallcaps\">L</smallcap>-mannopyranosyl)-β-<smallcap>D</span>-glucopyranoside];3-[[2-<em>O</em>-(6-Deoxy-α-<span class=\"text-smallcaps\">L</smallcap>-mannopyranosyl)-β-<smallcap>D</span>-glucopyranosyl]oxy]-5,7-dihydroxy-2-(4-hydroxyphenyl)-4<em>H</em>-1-benzopyran-4-one;K 7;Kaempferol 3-neohesperidoside;Kaempferol 3-<em>O</em>-neohesperidoside;Kaempferol 3-<em>O</em>-α-<span class=\"text-smallcaps\">L</smallcap>-rhamnopyranosyl-(1→2)-β-<smallcap>D</span>-glucopyranoside;Kaempferol 3-<em>O</em>-β-neohesperidoside",
    "duplicated_cas_no": "115889-62-8;55722-63-9;847996-85-4",
    "SMILES": "O(C1=C(OC=2C(C1=O)=C(O)C=C(O)C2)C3=CC=C(O)C=C3)[C@H]4[C@H](O[C@H]5[C@H](O)[C@H](O)[C@@H](O)[C@H](C)O5)[C@@H](O)[C@H](O)[C@@H](CO)O4",
    "meta_data": {
        "InChI": "InChI=1S/C27H30O15/c1-9-17(32)20(35)22(37)26(38-9)42-25-21(36)18(33)15(8-28)40-27(25)41-24-19(34)16-13(31)6-12(30)7-14(16)39-23(24)10-2-4-11(29)5-3-10/h2-7,9,15,17-18,20-22,25-33,35-37H,8H2,1H3/t9-,15+,17-,18+,20+,21-,22+,25+,26-,27-/m0/s1",
        "InChIKey": null,
        "Canonical SMILES": "O=C1C(OC2OC(CO)C(O)C(O)C2OC3OC(C)C(O)C(O)C3O)=C(OC=4C=C(O)C=C(O)C14)C=5C=CC(O)=CC5",
        "Molecular Formula": "C<sub>27</sub>H<sub>30</sub>O<sub>15</sub>",
        "Molecular Mass": "594.52",
        "Melting Point": "176-177 °C"
    }
}