{
    "cas_no": "5538-41-0",
    "key_name": "2-Chloro-3,5-dimethylphenol",
    "cn_name": null,
    "alternate_name": "Phenol, 2-chloro-3,5-dimethyl-;3,5-Xylenol, 2-chloro-;2-Chloro-3,5-dimethylphenol;2-Chloro-3,5-xylenol",
    "duplicated_cas_no": "",
    "SMILES": "ClC1=C(C)C=C(C)C=C1O",
    "meta_data": {
        "InChI": "InChI=1S/C8H9ClO/c1-5-3-6(2)8(9)7(10)4-5/h3-4,10H,1-2H3",
        "InChIKey": null,
        "Canonical SMILES": "ClC1=C(O)C=C(C=C1C)C",
        "Molecular Formula": "C<sub>8</sub>H<sub>9</sub>ClO",
        "Molecular Mass": "156.61",
        "Melting Point": "115-116 °C"
    }
}