{
    "cas_no": "35607-66-0",
    "key_name": "Cefoxitin",
    "cn_name": "头孢西丁;3-氨基甲酰基氧甲基-7-甲氧基-7-(2-噻吩乙酰胺基)-8-氧代-5-硫-1-杂氮双环[4.2.0]辛-2-烯-2-甲酸;",
    "alternate_name": "5-Thia-1-azabicyclo[4.2.0]oct-2-ene-2-carboxylic acid, 3-[[(aminocarbonyl)oxy]methyl]-7-methoxy-8-oxo-7-[[2-(2-thienyl)acetyl]amino]-, (6<em>R</em>,7<em>S</em>)-;5-Thia-1-azabicyclo[4.2.0]oct-2-ene-2-carboxylic acid, 3-[[(aminocarbonyl)oxy]methyl]-7-methoxy-8-oxo-7-[(2-thienylacetyl)amino]-, (6<em>R</em>-<em>cis</em>)-;5-Thia-1-azabicyclo[4.2.0]oct-2-ene-2-carboxylic acid, 3-[[(aminocarbonyl)oxy]methyl]-7-methoxy-8-oxo-7-[(2-thienylacetyl)amino]-, (6<em>R</em>,7<em>S</em>)-;(6<em>R</em>,7<em>S</em>)-3-[[(Aminocarbonyl)oxy]methyl]-7-methoxy-8-oxo-7-[[2-(2-thienyl)acetyl]amino]-5-thia-1-azabicyclo[4.2.0]oct-2-ene-2-carboxylic acid;Cefoxitin;Cephoxitin;MeSH ID: D002440",
    "duplicated_cas_no": "39951-67-2",
    "SMILES": "N(C(CC1=CC=CS1)=O)[C@@]2(OC)[C@@]3(N(C2=O)C(C(O)=O)=C(COC(N)=O)CS3)[H]",
    "meta_data": {
        "InChI": "InChI=1S/C16H17N3O7S2/c1-25-16(18-10(20)5-9-3-2-4-27-9)13(23)19-11(12(21)22)8(6-26-15(17)24)7-28-14(16)19/h2-4,14H,5-7H2,1H3,(H2,17,24)(H,18,20)(H,21,22)/t14-,16+/m1/s1",
        "InChIKey": null,
        "Canonical SMILES": "O=C(OCC1=C(C(=O)O)N2C(=O)C(OC)(NC(=O)CC=3SC=CC3)C2SC1)N",
        "Molecular Formula": "C<sub>16</sub>H<sub>17</sub>N<sub>3</sub>O<sub>7</sub>S<sub>2</sub>",
        "Molecular Mass": "427.45",
        "Melting Point": "149-150 °C"
    }
}