{
    "cas_no": "1954-45-6",
    "key_name": "4-Methyltryptophan",
    "cn_name": null,
    "alternate_name": "Tryptophan, 4-methyl-;Tryptophan, 4-methyl-, <span class=\"text-smallcaps\">DL</span>-;<span class=\"text-smallcaps\">DL</span>-Tryptophan, 4-methyl-;4-Methyltryptophan;<span class=\"text-smallcaps\">DL</span>-4-Methyltryptophan;(±)-4-Methyltryptophan;4-Methyl-<span class=\"text-smallcaps\">DL</span>-tryptophan;NSC 71048;2-Amino-3-(4-methyl-1<em>H</em>-indol-3-yl)propanoic acid",
    "duplicated_cas_no": "1139-73-7",
    "SMILES": "C(C(C(O)=O)N)C=1C=2C(NC1)=CC=CC2C",
    "meta_data": {
        "InChI": "InChI=1S/C12H14N2O2/c1-7-3-2-4-10-11(7)8(6-14-10)5-9(13)12(15)16/h2-4,6,9,14H,5,13H2,1H3,(H,15,16)",
        "InChIKey": null,
        "Canonical SMILES": "O=C(O)C(N)CC1=CNC2=CC=CC(=C21)C",
        "Molecular Formula": "C<sub>12</sub>H<sub>14</sub>N<sub>2</sub>O<sub>2</sub>",
        "Molecular Mass": "218.25",
        "Melting Point": "270-272 °C"
    }
}