{
    "cas_no": "40641-93-8",
    "key_name": "1-[4-(2,2-Dichlorocyclopropyl)phenyl]ethanone",
    "cn_name": null,
    "alternate_name": "Ethanone, 1-[4-(2,2-dichlorocyclopropyl)phenyl]-;1-[4-(2,2-Dichlorocyclopropyl)phenyl]ethanone;1-(4-Acetylphenyl)-2,2-dichlorocyclopropane;1-[4-(2,2-Dichlorocyclopropyl)phenyl]ethan-1-one",
    "duplicated_cas_no": "",
    "SMILES": "ClC1(Cl)C(C1)C2=CC=C(C(C)=O)C=C2",
    "meta_data": {
        "InChI": "InChI=1S/C11H10Cl2O/c1-7(14)8-2-4-9(5-3-8)10-6-11(10,12)13/h2-5,10H,6H2,1H3",
        "InChIKey": null,
        "Canonical SMILES": "O=C(C1=CC=C(C=C1)C2CC2(Cl)Cl)C",
        "Molecular Formula": "C<sub>11</sub>H<sub>10</sub>Cl<sub>2</sub>O",
        "Molecular Mass": "229.10",
        "Boiling Point": "150-153 °C @ Press: 2 Torr",
        "Melting Point": "35 °C"
    }
}