{
    "cas_no": "15295-77-9",
    "key_name": "2(3<em>H</em>)-Furanone, 3-aminodihydro-, hydrobromide (1:1), (3<em>S</em>)-",
    "cn_name": null,
    "alternate_name": "2(3<em>H</em>)-Furanone, 3-aminodihydro-, hydrobromide (1:1), (3<em>S</em>)-;2(3<em>H</em>)-Furanone, 3-aminodihydro-, hydrobromide, <span class=\"text-smallcaps\">L</span>-;2(3<em>H</em>)-Furanone, 3-aminodihydro-, hydrobromide, (<em>S</em>)-;2(3<em>H</em>)-Furanone, 3-aminodihydro-, hydrobromide, (3<em>S</em>)-;<span class=\"text-smallcaps\">L</span>-Homoserine lactone hydrobromide;(<em>S</em>)-2-Amino-4-butyrolactone hydrobromide;(<em>S</em>)-(-)-α-Aminobutyrolactone hydrobromide;(<em>S</em>)-3-Aminodihydrofuran-2(3<em>H</em>)-one hydrobromide;(<em>S</em>)-(-)-α-Amino-γ-butyrolactone hydrobromide",
    "duplicated_cas_no": "",
    "SMILES": "N[C@@H]1C(=O)OCC1.Br",
    "meta_data": {
        "InChI": "InChI=1S/C4H7NO2.BrH/c5-3-1-2-7-4(3)6;/h3H,1-2,5H2;1H/t3-;/m0./s1",
        "InChIKey": null,
        "Canonical SMILES": "Br.O=C1OCCC1N",
        "Molecular Formula": "C<sub>4</sub>H<sub>7</sub>NO<sub>2</sub>.BrH",
        "Molecular Mass": "",
        "Melting Point": "139-141 °C"
    }
}