{
    "cas_no": "5446-02-6",
    "key_name": "Methyl 4-methoxysalicylate",
    "cn_name": "4-甲氧基水杨酸甲酯;对甲氧基水杨酸甲酯;2-羟基-4-甲氧基苯甲酸甲酯;",
    "alternate_name": "Benzoic acid, 2-hydroxy-4-methoxy-, methyl ester;<em>p</em>-Anisic acid, 2-hydroxy-, methyl ester;Methyl 2-hydroxy-4-methoxybenzoate;Methyl 4-methoxysalicylate;2-Hydroxy-4-methoxybenzoic acid methyl ester;NSC 17154;Methyl 4-methoxy-2-hydroxybenzoate",
    "duplicated_cas_no": "",
    "SMILES": "C(OC)(=O)C1=C(O)C=C(OC)C=C1",
    "meta_data": {
        "InChI": "InChI=1S/C9H10O4/c1-12-6-3-4-7(8(10)5-6)9(11)13-2/h3-5,10H,1-2H3",
        "InChIKey": null,
        "Canonical SMILES": "O=C(OC)C1=CC=C(OC)C=C1O",
        "Molecular Formula": "C<sub>9</sub>H<sub>10</sub>O<sub>4</sub>",
        "Molecular Mass": "182.17",
        "Melting Point": "49 °C"
    }
}