{
    "cas_no": "867-44-7",
    "key_name": "<em>S</em>-Methylisothiourea hemisulfate",
    "cn_name": "S-甲基异硫脲硫酸盐;",
    "alternate_name": "Carbamimidothioic acid, methyl ester, sulfate (2:1);Pseudourea, 2-methyl-2-thio-, sulfate (2:1);<em>S</em>-Methylthiouronium sulfate (2:1);<em>S</em>-Methylisothiourea sulfate (2:1);2-Methyl-2-thiopseudourea sulfate (2:1);<em>S</em>-Methylisothiourea hemisulfate;Methylthioformamidine sulfate (2:1);Methylisothiourea sulfate (2:1);<em>S</em>-Methylthiopseudourea sulfate;<em>S</em>-Methylisothiouronium hemisulfate;<em>S</em>-Methylisothiourea semisulfate;<em>S</em>-Methylisothiourea hemisulfuric acid salt;Bis(<em>S</em>-methylisothiouronium) sulfate;<em>S</em>-Methylisothioura hemisulfate;2-Methylisothiourea hemisulfate;Bis((methylsulfanyl)methanimidamide) sulfuric acid;2-Methyl-2-thiopseudourea hemisulfate",
    "duplicated_cas_no": "72046-63-0",
    "SMILES": "S(=O)(=O)(O)O.C(SC)(=N)N",
    "meta_data": {
        "InChI": "InChI=1S/C2H6N2S.H2O4S/c1-5-2(3)4;1-5(2,3)4/h1H3,(H3,3,4);(H2,1,2,3,4)",
        "InChIKey": null,
        "Canonical SMILES": "O=S(=O)(O)O.N=C(SC)N",
        "Molecular Formula": "C<sub>2</sub>H<sub>6</sub>N<sub>2</sub>S.<sup>1</sup>/<sub>2</sub>H<sub>2</sub>O<sub>4</sub>S",
        "Molecular Mass": "",
        "Melting Point": "239 °C"
    }
}