{
    "cas_no": "23726-91-2",
    "key_name": "β-Damascone",
    "cn_name": "(E)-1-(2,6,6-三甲基-1-环己烯-1-基)-2-丁烯-1-酮;&beta;-大马酮;&beta;-二氢突厥酮;二氢大马酮;",
    "alternate_name": "2-Buten-1-one, 1-(2,6,6-trimethyl-1-cyclohexen-1-yl)-, (2<em>E</em>)-;2-Buten-1-one, 1-(2,6,6-trimethyl-1-cyclohexen-1-yl)-, (<em>E</em>)-;(2<em>E</em>)-1-(2,6,6-Trimethyl-1-cyclohexen-1-yl)-2-buten-1-one;β-Damascone, <em>trans</em>-;β-Damascone;<em>trans</em>-2,6,6-Trimethyl-1-crotonylcyclohex-1-ene;<em>trans</em>-β-Damascone;(<em>E</em>)-β-Damascone;Damascone beta;(<em>E</em>)-1-(2,6,6-Trimethyl-1-cyclohexen-1-yl)-2-buten-1-one",
    "duplicated_cas_no": "",
    "SMILES": "C(/C=C/C)(=O)C=1C(C)(C)CCCC1C",
    "meta_data": {
        "InChI": "InChI=1S/C13H20O/c1-5-7-11(14)12-10(2)8-6-9-13(12,3)4/h5,7H,6,8-9H2,1-4H3/b7-5+",
        "InChIKey": null,
        "Canonical SMILES": "O=C(C=CC)C1=C(C)CCCC1(C)C",
        "Molecular Formula": "C<sub>13</sub>H<sub>20</sub>O",
        "Molecular Mass": "192.30",
        "Boiling Point": "97 °C @ Press: 3 Torr"
    }
}