{
    "cas_no": "6917-35-7",
    "key_name": "Hexahydroxycyclohexane",
    "cn_name": null,
    "alternate_name": "Inositol;Inosite;NSC 25142;NSC 55551;NSC 8101;Hexahydroxycyclohexane;Cyclohexane-1,2,3,4,5,6-hexol",
    "duplicated_cas_no": "173524-45-3",
    "SMILES": "OC1C(O)C(O)C(O)C(O)C1O",
    "meta_data": {
        "InChI": "InChI=1S/C6H12O6/c7-1-2(8)4(10)6(12)5(11)3(1)9/h1-12H",
        "InChIKey": null,
        "Canonical SMILES": "OC1C(O)C(O)C(O)C(O)C1O",
        "Molecular Formula": "C<sub>6</sub>H<sub>12</sub>O<sub>6</sub>",
        "Molecular Mass": "180.16",
        "Melting Point": "252 °C"
    }
}