{
    "cas_no": "2142-63-4",
    "key_name": "3-Bromoacetophenone",
    "cn_name": "3\"-溴苯乙酮;间溴苯乙酮;",
    "alternate_name": "Ethanone, 1-(3-bromophenyl)-;Acetophenone, 3′-bromo-;1-(3-Bromophenyl)ethanone;<em>m</em>-Bromoacetophenone;3-Bromoacetophenone;3′-Bromoacetophenone;<em>m</em>-Bromophenyl methyl ketone;1-Acetyl-3-bromobenzene;NSC 46620;3-Acetyl-1-bromobenzene;3-Bromophenyl methyl ketone;Methyl 3-bromophenyl ketone;1-(3-Bromophenyl)ethan-1-one",
    "duplicated_cas_no": "",
    "SMILES": "C(C)(=O)C1=CC(Br)=CC=C1",
    "meta_data": {
        "InChI": "InChI=1S/C8H7BrO/c1-6(10)7-3-2-4-8(9)5-7/h2-5H,1H3",
        "InChIKey": null,
        "Canonical SMILES": "O=C(C=1C=CC=C(Br)C1)C",
        "Molecular Formula": "C<sub>8</sub>H<sub>7</sub>BrO",
        "Molecular Mass": "199.04",
        "Boiling Point": "133 °C",
        "Melting Point": "7.5 °C"
    }
}