{
    "cas_no": "10048-95-0",
    "key_name": "Sodium arsenate heptahydrate",
    "cn_name": null,
    "alternate_name": "Arsenic acid (H<sub>3</sub>AsO<sub>4</sub>), sodium salt (1:2), heptahydrate;Arsenic acid (H<sub>3</sub>AsO<sub>4</sub>), disodium salt, heptahydrate;Sodium acid arsenate, heptahydrate;Disodium arsenate heptahydrate;Dibasic sodium arsenate (Na<sub>2</sub>HAsO<sub>4</sub>.7H<sub>2</sub>O);Sodium arsenate hydrate (Na<sub>2</sub>HAsO<sub>4</sub>.7H<sub>2</sub>O);Sodium arsenate (Na<sub>2</sub>HAsO<sub>4</sub>) heptahydrate;Disodium hydrogen arsenate (Na<sub>2</sub>HAsO<sub>4</sub>) heptahydrate;Hydrogen disodium arsenate (HNa<sub>2</sub>AsO<sub>4</sub>) heptahydrate;Sodium arsenate heptahydrate;Disodium acid arsenate heptahydrate (Na<sub>2</sub>HAsO<sub>4</sub>.7H<sub>2</sub>O);Disodium monohydrogen arsenate heptahydrate;Sodium hydrogen arsenate (Na<sub>2</sub>HAsO<sub>4</sub>) heptahydrate",
    "duplicated_cas_no": "1363218-53-4;2122837-68-5;2135640-54-7",
    "SMILES": "[As](=O)(O)(O)O.[Na].O",
    "meta_data": {
        "InChI": "InChI=1S/AsH3O4.2Na.7H2O/c2-1(3,4)5;;;;;;;;;/h(H3,2,3,4,5);;;7*1H2",
        "InChIKey": null,
        "Canonical SMILES": "[Na].O=[As](O)(O)O.O",
        "Molecular Formula": "AsH<sub>3</sub>O<sub>4</sub>.7H<sub>2</sub>O.2Na",
        "Molecular Mass": "",
        "Melting Point": "130 °C",
        "Density": "1.9 g/cm³"
    }
}