{
    "cas_no": "33225-74-0",
    "key_name": "2-Nitro-4-pyridinecarboxylic acid",
    "cn_name": "2-硝基-4-吡啶甲酸;2-硝基异烟酸;",
    "alternate_name": "4-Pyridinecarboxylic acid, 2-nitro-;Isonicotinic acid, 2-nitro-;2-Nitro-4-pyridinecarboxylic acid;2-Nitroisonicotinic acid",
    "duplicated_cas_no": "",
    "SMILES": "C(O)(=O)C=1C=C(N(=O)=O)N=CC1",
    "meta_data": {
        "InChI": "InChI=1S/C6H4N2O4/c9-6(10)4-1-2-7-5(3-4)8(11)12/h1-3H,(H,9,10)",
        "InChIKey": null,
        "Canonical SMILES": "O=C(O)C=1C=CN=C(C1)N(=O)=O",
        "Molecular Formula": "C<sub>6</sub>H<sub>4</sub>N<sub>2</sub>O<sub>4</sub>",
        "Molecular Mass": "168.11",
        "Melting Point": "175 °C"
    }
}