{
    "cas_no": "539-21-9",
    "key_name": "Ambazon",
    "cn_name": "安巴腙;双硫脲咪腙;硫脲胍腙;1-脒腙基-4-缩氨基硫脲-2,5-环己二烯;",
    "alternate_name": "Hydrazinecarbothioamide, 2-[4-[2-(aminoiminomethyl)hydrazinylidene]-2,5-cyclohexadien-1-ylidene]-;Guanidine, [(4-oxo-2,5-cyclohexadien-1-ylidene)amino]-, thiosemicarbazone;Hydrazinecarbothioamide, 2-[4-[(aminoiminomethyl)hydrazono]-2,5-cyclohexadien-1-ylidene]-;2-[4-[2-(Aminoiminomethyl)hydrazinylidene]-2,5-cyclohexadien-1-ylidene]hydrazinecarbothioamide;<em>p</em>-Benzoquinone amidinohydrazone thiosemicarbazone;Benzoquinone guanylhydrazone thiosemicarbazone;Faringosept;(4-Oxo-2,5-cyclohexadien-1-ylideneamino)guanidine thiosemicarbazone;Ambazone;Iversal;Primal;Ambazon;1,4-Benzoquinone amidinohydrazone thiosemicarbazone;Anginon;DC 0572;Guanothiazon;Inversal;Ivertol;<em>N</em>-Guanidino-<em>N</em>′-thioureido-<em>p</em>-benzoquinonediimide;[(4-[[(Diaminomethylidene)amino]imino]cyclohexa-2,5-dien-1-ylidene)amino]thiourea;2-(4-(2-Carbamimidoylhydrazono)cyclohexa-2,5-dien-1-ylidene)hydrazinecarbothioamide",
    "duplicated_cas_no": "",
    "SMILES": "N(NC(=N)N)=C1C=CC(=NNC(N)=S)C=C1",
    "meta_data": {
        "InChI": "InChI=1S/C8H11N7S/c9-7(10)14-12-5-1-3-6(4-2-5)13-15-8(11)16/h1-4H,(H4,9,10,14)(H3,11,15,16)",
        "InChIKey": null,
        "Canonical SMILES": "S=C(N)NN=C1C=CC(=NNC(=N)N)C=C1",
        "Molecular Formula": "C<sub>8</sub>H<sub>11</sub>N<sub>7</sub>S",
        "Molecular Mass": "237.28",
        "Melting Point": "192-194 °C (decomp)"
    }
}