{
    "cas_no": "607-01-2",
    "key_name": "Ethyldiphenylphosphine",
    "cn_name": "乙基二苯基膦;乙基二苯膦;乙二苯膦;",
    "alternate_name": "Phosphine, ethyldiphenyl-;Ethyldiphenylphosphine;Diphenylethylphosphine;Diphenylphosphinoethane;NSC 151254",
    "duplicated_cas_no": "",
    "SMILES": "P(CC)(C1=CC=CC=C1)C2=CC=CC=C2",
    "meta_data": {
        "InChI": "InChI=1S/C14H15P/c1-2-15(13-9-5-3-6-10-13)14-11-7-4-8-12-14/h3-12H,2H2,1H3",
        "InChIKey": null,
        "Canonical SMILES": "C=1C=CC(=CC1)P(C=2C=CC=CC2)CC",
        "Molecular Formula": "C<sub>14</sub>H<sub>15</sub>P",
        "Molecular Mass": "214.24",
        "Boiling Point": "182 °C @ Press: 22 Torr"
    }
}