{
    "cas_no": "22536-65-8",
    "key_name": "2-Chloro-5-methoxypyrimidine",
    "cn_name": "2-氯-5-甲氧基嘧啶;",
    "alternate_name": "Pyrimidine, 2-chloro-5-methoxy-;2-Chloro-5-methoxypyrimidine;2-Chloro-5-(methyloxy)pyrimidine",
    "duplicated_cas_no": "",
    "SMILES": "O(C)C=1C=NC(Cl)=NC1",
    "meta_data": {
        "InChI": "InChI=1S/C5H5ClN2O/c1-9-4-2-7-5(6)8-3-4/h2-3H,1H3",
        "InChIKey": null,
        "Canonical SMILES": "ClC1=NC=C(OC)C=N1",
        "Molecular Formula": "C<sub>5</sub>H<sub>5</sub>ClN<sub>2</sub>O",
        "Molecular Mass": "144.56",
        "Melting Point": "51.5 °C"
    }
}