{
    "cas_no": "345-78-8",
    "key_name": "Pseudoephedrine hydrochloride",
    "cn_name": "盐酸右旋麻黄素;盐酸异麻黄素;盐酸伪麻黄素;盐酸异麻黄碱;盐酸伪麻黄碱;",
    "alternate_name": "Benzenemethanol, α-[(1<em>S</em>)-1-(methylamino)ethyl]-, hydrochloride (1:1), (α<em>S</em>)-;Pseudoephedrine, hydrochloride, (+)-;Pseudoephedrine hydrochloride;Benzenemethanol, α-[1-(methylamino)ethyl]-, hydrochloride, [<em>S</em>-(<em>R</em>*,<em>R</em>*)]-;Benzenemethanol, α-[(1<em>S</em>)-1-(methylamino)ethyl]-, hydrochloride, (α<em>S</em>)-;<em>d</em>-[α-(1-Methylamino)ethyl]benzyl alcohol hydrochloride;<em>d</em>-Pseudoephedrine hydrochloride;<span class=\"text-smallcaps\">L</span>-(+)-Pseudoephedrine hydrochloride;(+)-Pseudoephedrine hydrochloride;1<em>S</em>,2<em>S</em>-(+)-Pseudoephedrine hydrochloride;Sudafed;Novafed;(1S,2S)-(+)-2-(Methylamino)-1-phenylpropan-1-ol hydrochloride;CPDD 0050;<em>d</em>-(1<em>S</em>,2<em>S</em>)-Pseudoephedrine hydrochloride;Sinufed;Galpseud;Otrinol;Rhinalair;Symptom 2;NSC 106567;NSC 33634;Decongess SR",
    "duplicated_cas_no": "6272-89-5",
    "SMILES": "[C@H]([C@@H](NC)C)(O)C1=CC=CC=C1.Cl",
    "meta_data": {
        "InChI": "InChI=1S/C10H15NO.ClH/c1-8(11-2)10(12)9-6-4-3-5-7-9;/h3-8,10-12H,1-2H3;1H/t8-,10+;/m0./s1",
        "InChIKey": null,
        "Canonical SMILES": "Cl.OC(C=1C=CC=CC1)C(NC)C",
        "Molecular Formula": "C<sub>10</sub>H<sub>15</sub>NO.ClH",
        "Molecular Mass": "",
        "Melting Point": "190-191 °C"
    }
}