{
    "cas_no": "124-26-5",
    "key_name": "Stearamide",
    "cn_name": "硬脂酰胺;十八酰胺;",
    "alternate_name": "Octadecanamide;Stearamide;Adogen 42;Octadecamide;Octadecylamide;Stearic acid amide;Stearic amide;Stearylamide;Stearoylamide;Stearoylamine;Kemamide S;Armid 18;Advawax 290;EBF;Amide T;Crodamide S;Hidorin M 7;Alflow S 10;Amide S (binder);Selosol 2M;Neutron 2;Octadecaneamide;Hidorin F 792;Uniwax 1750;Hymicron G 270;Crodamide SR;Amide AP;Armoslip 18LF;Neutron 2S;Kawaslip VL;NSC 66462;G 270;L 271;Hymicron L 271;Kao Fatty Amide S;Fatty Amide T;Atmer SA 1750;Lutamide S;Alflow S 100;Finawax S;Impoe HE 88;N 327;Hidorin L 271;Loxamid S;Finawax S 70;Daiwax SA 200;Finawax S 90;Hidorin B 934;Lutamide SR;T 22;T 22 (amide);Chamide SSA;Chamide S;IncroMax PS;Eviwax 140;DY 2016;DY 1182;Ceretan MA 7250;Deurex A 28;Crodamide SRV;XA 28",
    "duplicated_cas_no": "37189-35-8;176201-41-5",
    "SMILES": "C(CCCCCCCCCCC)CCCCCC(N)=O",
    "meta_data": {
        "InChI": "InChI=1S/C18H37NO/c1-2-3-4-5-6-7-8-9-10-11-12-13-14-15-16-17-18(19)20/h2-17H2,1H3,(H2,19,20)",
        "InChIKey": null,
        "Canonical SMILES": "O=C(N)CCCCCCCCCCCCCCCCC",
        "Molecular Formula": "C<sub>18</sub>H<sub>37</sub>NO",
        "Molecular Mass": "283.49",
        "Boiling Point": "250-251 °C @ Press: 12 Torr",
        "Melting Point": "109 °C"
    }
}