{
    "cas_no": "144-19-4",
    "key_name": "2,2,4-Trimethyl-1,3-pentanediol",
    "cn_name": "2,2,4-三甲基-1,3-戊二醇;",
    "alternate_name": "1,3-Pentanediol, 2,2,4-trimethyl-;2,2,4-Trimethyl-1,3-pentanediol;TMPD (alcohol);NSC 6368;Nexcoat 795;2,2,4-Trimethylpentan-1,3-diol",
    "duplicated_cas_no": "127894-68-2",
    "SMILES": "C(C(C(C)C)O)(CO)(C)C",
    "meta_data": {
        "InChI": "InChI=1S/C8H18O2/c1-6(2)7(10)8(3,4)5-9/h6-7,9-10H,5H2,1-4H3",
        "InChIKey": null,
        "Canonical SMILES": "OCC(C)(C)C(O)C(C)C",
        "Molecular Formula": "C<sub>8</sub>H<sub>18</sub>O<sub>2</sub>",
        "Molecular Mass": "146.23",
        "Boiling Point": "234 °C @ Press: 737 Torr",
        "Melting Point": "51-52 °C",
        "Density": "0.937 g/cm³ @ Temp: 15 °C"
    }
}