{
    "cas_no": "16208-51-8",
    "key_name": "Disodium 2,2′-dithiobis(ethanesulfonate)",
    "cn_name": "地美司钠;双美司那;双巯乙磺酸钠;2,2\"-二硫二乙基磺酸二钠;",
    "alternate_name": "Ethanesulfonic acid, 2,2′-dithiobis-, sodium salt (1:2);Ethanesulfonic acid, 2,2′-dithiodi-, disodium salt;Ethanesulfonic acid, 2,2′-dithiobis-, disodium salt;2,2′-Dithiodi-1-ethanesulfonic acid disodium salt;Disodium 2,2′-dithiodiethanesulfonate;Dimesna;Disodium 2,2′-dithiobis(ethanesulfonate);Bis(2-sulfoethyl)disulfide disodium salt;BNP 7787;NSC 716976;Tavocept",
    "duplicated_cas_no": "",
    "SMILES": "C(S(=O)(=O)O)CSSCCS(=O)(=O)O.[Na]",
    "meta_data": {
        "InChI": "InChI=1S/C4H10O6S4.2Na/c5-13(6,7)3-1-11-12-2-4-14(8,9)10;;/h1-4H2,(H,5,6,7)(H,8,9,10);;",
        "InChIKey": null,
        "Canonical SMILES": "[Na].O=S(=O)(O)CCSSCCS(=O)(=O)O",
        "Molecular Formula": "C<sub>4</sub>H<sub>10</sub>O<sub>6</sub>S<sub>4</sub>.2Na",
        "Molecular Mass": "",
        "Melting Point": "273 °C (decomp)"
    }
}