{
    "cas_no": "2946-61-4",
    "key_name": "Dimethyl phenylphosphonite",
    "cn_name": "二甲基苯基膦酸盐;二甲基苯基膦酸盐;",
    "alternate_name": "Phosphonous acid, <em>P</em>-phenyl-, dimethyl ester;Phosphonous acid, phenyl-, dimethyl ester;Dimethyl phenylphosphonite;Dimethoxyphenylphosphine;Phenyldimethoxyphosphine",
    "duplicated_cas_no": "",
    "SMILES": "P(OC)(OC)C1=CC=CC=C1",
    "meta_data": {
        "InChI": "InChI=1S/C8H11O2P/c1-9-11(10-2)8-6-4-3-5-7-8/h3-7H,1-2H3",
        "InChIKey": null,
        "Canonical SMILES": "O(P(OC)C=1C=CC=CC1)C",
        "Molecular Formula": "C<sub>8</sub>H<sub>11</sub>O<sub>2</sub>P",
        "Molecular Mass": "170.15",
        "Boiling Point": "101-102 °C @ Press: 16 Torr",
        "Density": "1.1022 g/cm³ @ Temp: 0 °C"
    }
}