{
    "cas_no": "34000-39-0",
    "key_name": "Homobutein",
    "cn_name": null,
    "alternate_name": "2-Propen-1-one, 1-(2,4-dihydroxyphenyl)-3-(4-hydroxy-3-methoxyphenyl)-, (2<em>E</em>)-;Chalcone, 2′,4,4′-trihydroxy-3-methoxy-, (<em>E</em>)-;2-Propen-1-one, 1-(2,4-dihydroxyphenyl)-3-(4-hydroxy-3-methoxyphenyl)-, (<em>E</em>)-;(2<em>E</em>)-1-(2,4-Dihydroxyphenyl)-3-(4-hydroxy-3-methoxyphenyl)-2-propen-1-one;Homobutein",
    "duplicated_cas_no": "",
    "SMILES": "C(=C/C(=O)C1=C(O)C=C(O)C=C1)\\C2=CC(OC)=C(O)C=C2",
    "meta_data": {
        "InChI": "InChI=1S/C16H14O5/c1-21-16-8-10(3-7-14(16)19)2-6-13(18)12-5-4-11(17)9-15(12)20/h2-9,17,19-20H,1H3/b6-2+",
        "InChIKey": null,
        "Canonical SMILES": "O=C(C=CC1=CC=C(O)C(OC)=C1)C2=CC=C(O)C=C2O",
        "Molecular Formula": "C<sub>16</sub>H<sub>14</sub>O<sub>5</sub>",
        "Molecular Mass": "286.28",
        "Melting Point": "192-194 °C"
    }
}