{
    "cas_no": "707-37-9",
    "key_name": "1-Hydroxy-3,5-dimethyladamantane",
    "cn_name": "3,5-二甲基-1-金刚烷醇;",
    "alternate_name": "Tricyclo[3.3.1.1<sup>3,7</sup>]decan-1-ol, 3,5-dimethyl-;1-Adamantanol, 3,5-dimethyl-;3,5-Dimethyltricyclo[3.3.1.1<sup>3,7</sup>]decan-1-ol;3,5-Dimethyl-1-adamantanol;1-Hydroxy-3,5-dimethyladamantane;1,3-Dimethyl-5-hydroxyadamantane;3,5-Dimethyl-1-hydroxyadamantane;1,3-Dimethyl-5-adamantanol;NSC 102294;5,7-Dimethyl-3-adamantanol",
    "duplicated_cas_no": "",
    "SMILES": "CC12CC3(C)CC(O)(C1)CC(C2)C3",
    "meta_data": {
        "InChI": "InChI=1S/C12H20O/c1-10-3-9-4-11(2,6-10)8-12(13,5-9)7-10/h9,13H,3-8H2,1-2H3",
        "InChIKey": null,
        "Canonical SMILES": "OC12CC3CC(C)(C1)CC(C)(C3)C2",
        "Molecular Formula": "C<sub>12</sub>H<sub>20</sub>O",
        "Molecular Mass": "180.29",
        "Melting Point": "94 °C"
    }
}