{
    "cas_no": "59973-80-7",
    "key_name": "Sulindac sulfone",
    "cn_name": null,
    "alternate_name": "1<em>H</em>-Indene-3-acetic acid, 5-fluoro-2-methyl-1-[[4-(methylsulfonyl)phenyl]methylene]-, (1<em>Z</em>)-;1<em>H</em>-Indene-3-acetic acid, 5-fluoro-2-methyl-1-[[4-(methylsulfonyl)phenyl]methylene]-, (<em>Z</em>)-;(1<em>Z</em>)-5-Fluoro-2-methyl-1-[[4-(methylsulfonyl)phenyl]methylene]-1<em>H</em>-indene-3-acetic acid;Sulindac sulfone;<em>cis</em>-5-Fluoro-2-methyl-1-[<em>p</em>-methylsulfonylbenzylidenyl]indene-3-acetic acid;Exisulind;FGN 1;Prevatec;Aptosyn",
    "duplicated_cas_no": "",
    "SMILES": "C(C(O)=O)C=1C=2C(/C(=C\\C3=CC=C(S(C)(=O)=O)C=C3)/C1C)=CC=C(F)C2",
    "meta_data": {
        "InChI": "InChI=1S/C20H17FO4S/c1-12-17(9-13-3-6-15(7-4-13)26(2,24)25)16-8-5-14(21)10-19(16)18(12)11-20(22)23/h3-10H,11H2,1-2H3,(H,22,23)/b17-9-",
        "InChIKey": null,
        "Canonical SMILES": "O=C(O)CC=1C=2C=C(F)C=CC2C(=CC3=CC=C(C=C3)S(=O)(=O)C)C1C",
        "Molecular Formula": "C<sub>20</sub>H<sub>17</sub>FO<sub>4</sub>S",
        "Molecular Mass": "372.41",
        "Melting Point": "194-196 °C"
    }
}