{
    "cas_no": "2246-44-8",
    "key_name": "2-Methyl-1-naphthalenamine",
    "cn_name": "1-氨基-2-甲基萘;2-甲基-1-萘胺;",
    "alternate_name": "1-Naphthalenamine, 2-methyl-;1-Naphthylamine, 2-methyl-;2-Methyl-1-naphthalenamine;2-Methyl-1-naphthylamine;1-Amino-2-methylnaphthalene;2-Methyl-1-aminonaphthalene",
    "duplicated_cas_no": "",
    "SMILES": "NC=1C2=C(C=CC1C)C=CC=C2",
    "meta_data": {
        "InChI": "InChI=1S/C11H11N/c1-8-6-7-9-4-2-3-5-10(9)11(8)12/h2-7H,12H2,1H3",
        "InChIKey": null,
        "Canonical SMILES": "NC=1C=2C=CC=CC2C=CC1C",
        "Molecular Formula": "C<sub>11</sub>H<sub>11</sub>N",
        "Molecular Mass": "157.21",
        "Boiling Point": "165 °C",
        "Melting Point": "31 °C"
    }
}