{
    "cas_no": "1074-98-2",
    "key_name": "Pyridine, 3-methyl-4-nitro-, 1-oxide",
    "cn_name": "3-甲基-4-硝基吡啶-N-氧化物;",
    "alternate_name": "Pyridine, 3-methyl-4-nitro-, 1-oxide;3-Picoline, 4-nitro-, 1-oxide;4-Nitro-3-methylpyridine <em>N</em>-oxide;3-Methyl-4-nitropyridine 1-oxide;5-Methyl-4-nitropyridine <em>N</em>-oxide;4-Nitro-β-picoline <em>N</em>-oxide;4-Nitro-3-picoline 1-oxide;3-Methyl-4-nitropyridine oxide;3-Methyl-4-nitropyridine <em>N</em>-oxide;4-Nitropicoline <em>N</em>-oxide;NSC 168202;NSC 74203;3-Methyl-4-nitropyridin-1-ium-1-olate;3-Methyl-4-nitro-1-oxidopyridin-1-ium",
    "duplicated_cas_no": "",
    "SMILES": "N(=O)(=O)C=1C(C)=CN(=O)=CC1",
    "meta_data": {
        "InChI": "InChI=1S/C6H6N2O3/c1-5-4-7(9)3-2-6(5)8(10)11/h2-4H,1H3",
        "InChIKey": null,
        "Canonical SMILES": "O=N(=O)C1=CC=N(=O)C=C1C",
        "Molecular Formula": "C<sub>6</sub>H<sub>6</sub>N<sub>2</sub>O<sub>3</sub>",
        "Molecular Mass": "154.12",
        "Melting Point": "137.5 °C"
    }
}