{
    "cas_no": "21038-67-5",
    "key_name": "Pyrido[3,4-<em>d</em>]pyrimidine-2,4(1<em>H</em>,3<em>H</em>)-dione",
    "cn_name": null,
    "alternate_name": "Pyrido[3,4-<em>d</em>]pyrimidine-2,4(1<em>H</em>,3<em>H</em>)-dione;NSC 127963;1<em>H</em>-Pyrido[3,4-<em>d</em>]pyrimidine-2,4-dione;1<em>H</em>,2<em>H</em>,3<em>H</em>,4<em>H</em>-Pyrido[3,4-<em>d</em>]pyrimidine-2,4-dione;2-Hydroxy-3<em>H</em>-pyrido[3,4-<em>d</em>]pyrimidin-4-one",
    "duplicated_cas_no": "",
    "SMILES": "O=C1C=2C(NC(=O)N1)=CN=CC2",
    "meta_data": {
        "InChI": "InChI=1S/C7H5N3O2/c11-6-4-1-2-8-3-5(4)9-7(12)10-6/h1-3H,(H2,9,10,11,12)",
        "InChIKey": null,
        "Canonical SMILES": "O=C1NC(=O)C=2C=CN=CC2N1",
        "Molecular Formula": "C<sub>7</sub>H<sub>5</sub>N<sub>3</sub>O<sub>2</sub>",
        "Molecular Mass": "163.13",
        "Melting Point": "&gt;320 °C"
    }
}