{
    "cas_no": "5524-05-0",
    "key_name": "(+)-Dihydrocarvone",
    "cn_name": "2R-反-2-甲基-5-(1-甲乙基)-环己酮;",
    "alternate_name": "Cyclohexanone, 2-methyl-5-(1-methylethenyl)-, (2<em>R</em>,5<em>R</em>)-;<em>p</em>-Menth-8-en-2-one, (+)-;Cyclohexanone, 2-methyl-5-(1-methylethenyl)-, (2<em>R</em>-<em>trans</em>)-;(2<em>R</em>,5<em>R</em>)-2-Methyl-5-(1-methylethenyl)cyclohexanone;(+)-Dihydrocarvone;(1<em>R</em>,4<em>R</em>)-(+)-Dihydrocarvone;(1<em>R</em>,4<em>R</em>)-Dihydrocarvone;(2<em>R</em>,5<em>R</em>)-5-Isopropenyl-2-methylcyclohexanone;<em>d</em>-Dihydrocarvone;(+)-<em>trans</em>-Dihydrocarvone;(2<em>R</em>,5<em>R</em>)-(+)-Dihydrocarvone;(2<em>R</em>,5<em>R</em>)-2-Methyl-5-(prop-1-en-2-yl)cyclohexan-1-one;<em>trans</em>-(+)-Dihydrocarvone",
    "duplicated_cas_no": "",
    "SMILES": "C(C)(=C)[C@H]1CC(=O)[C@H](C)CC1",
    "meta_data": {
        "InChI": "InChI=1S/C10H16O/c1-7(2)9-5-4-8(3)10(11)6-9/h8-9H,1,4-6H2,2-3H3/t8-,9-/m1/s1",
        "InChIKey": null,
        "Canonical SMILES": "O=C1CC(C(=C)C)CCC1C",
        "Molecular Formula": "C<sub>10</sub>H<sub>16</sub>O",
        "Molecular Mass": "152.23",
        "Boiling Point": "98-99 °C @ Press: 16 Torr"
    }
}