{
    "cas_no": "24207-41-8",
    "key_name": "2,4-Dihydroxy-<em>N</em>-(2-hydroxyethyl)benzamide",
    "cn_name": "2,4-二羟基-N-(2-羟乙基)苯甲酰胺;",
    "alternate_name": "Benzamide, 2,4-dihydroxy-<em>N</em>-(2-hydroxyethyl)-;β-Resorcylamide, <em>N</em>-(2-hydroxyethyl)-;2,4-Dihydroxy-<em>N</em>-(2-hydroxyethyl)benzamide;<em>N</em>-(β-Hydroxyethyl)-β-resorcylamide;2,4-Resorcylic acid ethanolamide;β-Resorcylic ethanolamide;Coupler RX;NSC 379528",
    "duplicated_cas_no": "",
    "SMILES": "C(NCCO)(=O)C1=C(O)C=C(O)C=C1",
    "meta_data": {
        "InChI": "InChI=1S/C9H11NO4/c11-4-3-10-9(14)7-2-1-6(12)5-8(7)13/h1-2,5,11-13H,3-4H2,(H,10,14)",
        "InChIKey": null,
        "Canonical SMILES": "O=C(NCCO)C1=CC=C(O)C=C1O",
        "Molecular Formula": "C<sub>9</sub>H<sub>11</sub>NO<sub>4</sub>",
        "Molecular Mass": "197.19",
        "Melting Point": "167 °C"
    }
}