{
    "cas_no": "2510-36-3",
    "key_name": "3,5-Dimethyl-4-isoxazolecarboxylic acid",
    "cn_name": "3,5-二甲基异噁唑-4-羧酸;3,5-二甲基异?唑-4-羧酸;",
    "alternate_name": "4-Isoxazolecarboxylic acid, 3,5-dimethyl-;3,5-Dimethyl-4-isoxazolecarboxylic acid;4-Carboxy-3,5-dimethylisoxazole;3,5-Dimethyl-1,2-oxazole-4-carboxylic acid",
    "duplicated_cas_no": "",
    "SMILES": "C(O)(=O)C=1C(C)=NOC1C",
    "meta_data": {
        "InChI": "InChI=1S/C6H7NO3/c1-3-5(6(8)9)4(2)10-7-3/h1-2H3,(H,8,9)",
        "InChIKey": null,
        "Canonical SMILES": "O=C(O)C=1C(=NOC1C)C",
        "Molecular Formula": "C<sub>6</sub>H<sub>7</sub>NO<sub>3</sub>",
        "Molecular Mass": "141.12",
        "Melting Point": "42-43 °C",
        "Density": "1.76 g/cm³ @ Temp: 25.000 °C; Press: 750 Torr"
    }
}