{
    "cas_no": "1331-22-2",
    "key_name": "Methylcyclohexanone",
    "cn_name": null,
    "alternate_name": "Cyclohexanone, methyl-;Methylcyclohexanone;Methylcyclohexan-1-one",
    "duplicated_cas_no": "",
    "SMILES": "",
    "meta_data": {
        "InChI": "",
        "InChIKey": null,
        "Canonical SMILES": "",
        "Molecular Formula": "C<sub>7</sub>H<sub>12</sub>O",
        "Molecular Mass": "",
        "Boiling Point": "164 °C",
        "Density": "0.912 g/cm³ @ Temp: 20 °C"
    }
}