{
    "cas_no": "872-10-6",
    "key_name": "Pentyl sulfide",
    "cn_name": "正戊基硫醚;戊硫醚;",
    "alternate_name": "Pentane, 1-(pentylthio)-;Pentyl sulfide;Pentane, 1,1′-thiobis-;1-(Pentylthio)pentane;Amyl sulfide;Di-<em>n</em>-pentyl sulfide;6-Thiaundecane;Diamyl sulfide;Dipentyl sulfide;Dipentyl thioether;1-Pentylsulfanylpentane",
    "duplicated_cas_no": "",
    "SMILES": "S(CCCCC)CCCCC",
    "meta_data": {
        "InChI": "InChI=1S/C10H22S/c1-3-5-7-9-11-10-8-6-4-2/h3-10H2,1-2H3",
        "InChIKey": null,
        "Canonical SMILES": "S(CCCCC)CCCCC",
        "Molecular Formula": "C<sub>10</sub>H<sub>22</sub>S",
        "Molecular Mass": "174.35",
        "Boiling Point": "230.1 °C",
        "Melting Point": "-51.3 °C",
        "Density": "0.85538 g/cm³ @ Temp: 0 °C"
    }
}