{
    "cas_no": "3647-71-0",
    "key_name": "Benzylphenethylamine",
    "cn_name": "苯乙苄胺;",
    "alternate_name": "Benzeneethanamine, <em>N</em>-(phenylmethyl)-;Phenethylamine, <em>N</em>-benzyl-;<em>N</em>-(Phenylmethyl)benzeneethanamine;<em>N</em>-Benzylphenethylamine;<em>N</em>-Benzyl-2-phenylethylamine;<em>N</em>-Phenethylbenzylamine;<em>N</em>-Benzylbenzeneethanamine;<em>N</em>-Benzyl-2-phenethylamine;<em>N</em>-Benzyl-<em>N</em>-(2-phenylethyl)amine;NSC 62943;Benzylphenethylamine;Benethamine;<em>N</em>-Benzyl-2-phenylethan-1-amine",
    "duplicated_cas_no": "",
    "SMILES": "C(CNCC1=CC=CC=C1)C2=CC=CC=C2",
    "meta_data": {
        "InChI": "InChI=1S/C15H17N/c1-3-7-14(8-4-1)11-12-16-13-15-9-5-2-6-10-15/h1-10,16H,11-13H2",
        "InChIKey": null,
        "Canonical SMILES": "C=1C=CC(=CC1)CNCCC=2C=CC=CC2",
        "Molecular Formula": "C<sub>15</sub>H<sub>17</sub>N",
        "Molecular Mass": "211.30",
        "Boiling Point": "186-187 °C @ Press: 15 Torr",
        "Melting Point": "61-64 °C",
        "Density": "1.0456 g/cm³ @ Temp: 20 °C"
    }
}