{
    "cas_no": "1861-40-1",
    "key_name": "Benfluralin",
    "cn_name": "氟草胺;乙丁氟灵;N-丁基-N-乙基-2,6-二硝基-4-(三氟甲基)苯胺;",
    "alternate_name": "Benzenamine, <em>N</em>-butyl-<em>N</em>-ethyl-2,6-dinitro-4-(trifluoromethyl)-;<em>p</em>-Toluidine, <em>N</em>-butyl-<em>N</em>-ethyl-α,α,α-trifluoro-2,6-dinitro-;<em>N</em>-Butyl-<em>N</em>-ethyl-2,6-dinitro-4-(trifluoromethyl)benzenamine;EL 110;Benefin;Binnell;<em>N</em>-Butyl-2,6-dinitro-<em>N</em>-ethyl-4-trifluoromethylaniline;<em>N</em>-Butyl-<em>N</em>-ethyl-α,α,α-trifluoro-2,6-dinitro-<em>p</em>-toluidine;α,α,α,Trifluoro-2,6-dinitro-<em>N</em>,<em>N</em>-ethylbutyl-<em>p</em>-toluidine;Balan;<em>N</em>-Butyl-<em>N</em>-ethyl-4-trifluoromethyl-2,6-trinitroaniline;Benfluralin;<em>N</em>-Ethyl-<em>N</em>-butyl-2,6-dinitro-4-trifluoromethylaniline;Bonalan;Benephin;2,6-Dinitro-4-trifluoromethyl-<em>N</em>-<em>n</em>-butyl-<em>N</em>-ethylaniline;<em>N</em>-Butyl-<em>N</em>-ethyl-2,6-dinitro-4-trifluoromethylaniline;Flubalex;Bethrodine;Benefex;4-Trifluoromethyl-2,6-dinitro-<em>N</em>-ethyl-<em>N</em>-butylaniline;Quilan;Banafine;Balfin;Benfluraline;Bhulan;Carpidor;Emblem;Pel-Tech;Benalan;Benefine;Benafine",
    "duplicated_cas_no": "66152-77-0;87209-90-3",
    "SMILES": "N(CCCC)(CC)C1=C(N(=O)=O)C=C(C(F)(F)F)C=C1N(=O)=O",
    "meta_data": {
        "InChI": "InChI=1S/C13H16F3N3O4/c1-3-5-6-17(4-2)12-10(18(20)21)7-9(13(14,15)16)8-11(12)19(22)23/h7-8H,3-6H2,1-2H3",
        "InChIKey": null,
        "Canonical SMILES": "O=N(=O)C=1C=C(C=C(C1N(CC)CCCC)N(=O)=O)C(F)(F)F",
        "Molecular Formula": "C<sub>13</sub>H<sub>16</sub>F<sub>3</sub>N<sub>3</sub>O<sub>4</sub>",
        "Molecular Mass": "335.28",
        "Boiling Point": "148-149 °C @ Press: 7 Torr",
        "Melting Point": "65-66.5 °C"
    }
}