{
    "cas_no": "7782-41-4",
    "key_name": "Fluorine",
    "cn_name": "氟;氟;",
    "alternate_name": "Fluorine;Fluorine-19;Difluorine;Diatomic fluorine;Molecular fluorine;Mol. fluorine;MeSH ID: D005461",
    "duplicated_cas_no": "28077-97-6;719993-31-4",
    "SMILES": "FF",
    "meta_data": {
        "InChI": "InChI=1S/F2/c1-2",
        "InChIKey": null,
        "Canonical SMILES": "FF",
        "Molecular Formula": "F<sub>2</sub>",
        "Molecular Mass": "38.00",
        "Boiling Point": "-188.13 °C",
        "Melting Point": "-219.61 °C",
        "Density": "0.593 g/cm³"
    }
}