{
    "cas_no": "33468-69-8",
    "key_name": "5-(Trifluoromethyl)-1<em>H</em>-imidazole",
    "cn_name": "4-(三氟甲基)-1H-咪唑;",
    "alternate_name": "1<em>H</em>-Imidazole, 5-(trifluoromethyl)-;1<em>H</em>-Imidazole, 4-(trifluoromethyl)-;Imidazole, 4-(trifluoromethyl)-;5-(Trifluoromethyl)-1<em>H</em>-imidazole;4-(Trifluoromethyl)imidazole;4-Trifluoromethyl-1<em>H</em>-imidazole;5-Trifluoromethylimidazole;5-Trifluoromethyl-1<em>H</em>-imidazole",
    "duplicated_cas_no": "93977-32-3;196413-15-7;937590-48-2",
    "SMILES": "C(F)(F)(F)C1=CN=CN1",
    "meta_data": {
        "InChI": "InChI=1S/C4H3F3N2/c5-4(6,7)3-1-8-2-9-3/h1-2H,(H,8,9)",
        "InChIKey": null,
        "Canonical SMILES": "FC(F)(F)C1=CN=CN1",
        "Molecular Formula": "C<sub>4</sub>H<sub>3</sub>F<sub>3</sub>N<sub>2</sub>",
        "Molecular Mass": "136.08",
        "Melting Point": "128-132 °C"
    }
}