{
    "cas_no": "6217-22-7",
    "key_name": "4,5-Pyrenedione",
    "cn_name": null,
    "alternate_name": "4,5-Pyrenedione;1,2-Pyrenedione;1,2-Pyrenequinone;4,5-Pyrenequinone",
    "duplicated_cas_no": "2248181-96-4",
    "SMILES": "O=C1C=2C3=C4C(C1=O)=CC=CC4=CC=C3C=CC2",
    "meta_data": {
        "InChI": "InChI=1S/C16H8O2/c17-15-11-5-1-3-9-7-8-10-4-2-6-12(16(15)18)14(10)13(9)11/h1-8H",
        "InChIKey": null,
        "Canonical SMILES": "O=C1C(=O)C=2C=CC=C3C=CC4=CC=CC1=C4C32",
        "Molecular Formula": "C<sub>16</sub>H<sub>8</sub>O<sub>2</sub>",
        "Molecular Mass": "232.23",
        "Melting Point": "310 °C"
    }
}