{
    "cas_no": "7783-71-3",
    "key_name": "Tantalum pentafluoride",
    "cn_name": "氟化钽(V);五氟化钽;氟化钽;",
    "alternate_name": "Tantalum fluoride (TaF<sub>5</sub>);Tantalum pentafluoride;Tantalum fluoride;Tantalum(V) fluoride",
    "duplicated_cas_no": "53161-98-1",
    "SMILES": "[Ta](F)(F)(F)(F)F",
    "meta_data": {
        "InChI": "InChI=1S/5FH.Ta/h5*1H;/q;;;;;+5/p-5",
        "InChIKey": null,
        "Canonical SMILES": "F[Ta](F)(F)(F)F",
        "Molecular Formula": "F<sub>5</sub>Ta",
        "Molecular Mass": "",
        "Boiling Point": "229-230 °C",
        "Melting Point": "96-97 °C",
        "Density": "4.74 g/cm³"
    }
}