{
    "cas_no": "13446-18-9",
    "key_name": "Magnesium nitrate hexahydrate",
    "cn_name": "六水合硝酸镁;硝酸镁(六水);",
    "alternate_name": "Nitric acid, magnesium salt, hydrate (2:1:6);Nitric acid, magnesium salt, hexahydrate;Magnesium nitrate hexahydrate;Magnesium nitrate (Mg(NO<sub>3</sub>)<sub>2</sub>) hexahydrate;Magnesium dinitrate hexahydrate;Magnesium nitrate hydrate (Mg(NO<sub>3</sub>)<sub>2</sub>.6H<sub>2</sub>O);Magnesium nitrate hexahydrate (Mg(NO<sub>3</sub>)<sub>2</sub>.6H<sub>2</sub>O);Mg(NO<sub>3</sub>)<sub>2</sub>·6H<sub>2</sub>O",
    "duplicated_cas_no": "144667-04-9",
    "SMILES": "N(=O)(=O)O.[Mg].O",
    "meta_data": {
        "InChI": "InChI=1S/Mg.HNO3.3H2O/c;2-1(3)4;;;/h;(H,2,3,4);3*1H2",
        "InChIKey": null,
        "Canonical SMILES": "[Mg].O=N(=O)O.O",
        "Molecular Formula": "H<sub>2</sub>O.<sup>1</sup>/<sub>3</sub>HNO<sub>3</sub>.<sup>1</sup>/<sub>6</sub>Mg",
        "Molecular Mass": "",
        "Boiling Point": "147 °C",
        "Melting Point": "89 °C",
        "Density": "1.55 g/cm³ (Liquid) @ Temp: 95.000 °C"
    }
}