{
    "cas_no": "1149-23-1",
    "key_name": "Hantzsch ester",
    "cn_name": "2,6-二甲基-1,4-二氢-3,5-吡啶二羧酸二乙酯;",
    "alternate_name": "3,5-Pyridinedicarboxylic acid, 1,4-dihydro-2,6-dimethyl-, 3,5-diethyl ester;3,5-Pyridinedicarboxylic acid, 1,4-dihydro-2,6-dimethyl-, diethyl ester;2,6-Dimethyl-3,5-dicarbethoxy-1,4-dihydropyridine;3,5-Bis(ethoxycarbonyl)-1,4-dihydro-2,6-dimethylpyridine;1,4-Dihydro-2,6-dimethyl-3,5-pyridinedicarboxylic acid diethyl ester;3,5-Diethoxycarbonyl-1,4-dihydro-2,6-dimethylpyridine;Hantzsch ester;3,5-Dicarbethoxy-2,6-dimethyl-1,4-dihydropyridine;Diludine;Diethyl 1,4-dihydro-2,6-dimethyl-3,5-pyridinedicarboxylate;2,6-Dimethyl-3,5-di(carboethoxy)-1,4-dihydropyridine;1,4-Dihydro-3,5-dicarboxylic acid diethyl ester-2,6-dimethylpyridine;Ethidine;3,5-Dicarboethoxy-2,6-dimethyl-1,4-dihydropyridine;2,6-Dimethyl-3,5-diethoxycarbonyl-1,4-dihydropyridine;Hantzsch's dihydropyridine;3,5-Diethoxycarbonyl-2,6-dimethyl-1,4-dihydropyridine;RR 116;Diethone;Diethyl 2,6-dimethyl-1,4-dihydropyridine-3,5-dicarboxylate;Diludin;2,6-Dimethyl-1,4-dihydropyridine-3,5-dicarboxylic acid diethyl ester;NSC 120573;NSC 3344;3,5-Bis(ethoxycarbonyl)-2,6-dimethyl-1,4-dihydropyridine;3,5-Diethyl 2,6-dimethyl-1,4-dihydropyridine-3,5-dicarboxylate",
    "duplicated_cas_no": "12687-53-5",
    "SMILES": "C(OCC)(=O)C=1CC(C(OCC)=O)=C(C)NC1C",
    "meta_data": {
        "InChI": "InChI=1S/C13H19NO4/c1-5-17-12(15)10-7-11(13(16)18-6-2)9(4)14-8(10)3/h14H,5-7H2,1-4H3",
        "InChIKey": null,
        "Canonical SMILES": "O=C(OCC)C1=C(NC(=C(C(=O)OCC)C1)C)C",
        "Molecular Formula": "C<sub>13</sub>H<sub>19</sub>NO<sub>4</sub>",
        "Molecular Mass": "253.29",
        "Melting Point": "182-183 °C"
    }
}