{
    "cas_no": "7295-44-5",
    "key_name": "1-(4-Bromophenyl)-1-pentanone",
    "cn_name": null,
    "alternate_name": "1-Pentanone, 1-(4-bromophenyl)-;Valerophenone, 4′-bromo-;1-(4-Bromophenyl)-1-pentanone;<em>p</em>-Bromovalerophenone;<em>p</em>-Bromophenyl butyl ketone;4′-Bromovalerophenone;<em>p</em>-Pentanoylbromobenzene;1-Bromo-4-pentanoylbenzene;4′-Bromopentanophenone;NSC 76560",
    "duplicated_cas_no": "",
    "SMILES": "C(CCCC)(=O)C1=CC=C(Br)C=C1",
    "meta_data": {
        "InChI": "InChI=1S/C11H13BrO/c1-2-3-4-11(13)9-5-7-10(12)8-6-9/h5-8H,2-4H2,1H3",
        "InChIKey": null,
        "Canonical SMILES": "O=C(C1=CC=C(Br)C=C1)CCCC",
        "Molecular Formula": "C<sub>11</sub>H<sub>13</sub>BrO",
        "Molecular Mass": "241.12",
        "Boiling Point": "168-169 °C",
        "Melting Point": "37-38 °C"
    }
}