{
    "cas_no": "13423-15-9",
    "key_name": "3-Methyltetrahydrofuran",
    "cn_name": "3-甲基四氢呋喃;四氢-3-甲基呋喃;",
    "alternate_name": "Furan, tetrahydro-3-methyl-;Furan, tetrahydro-3-methyl-, (±)-;Tetrahydro-3-methylfuran;3-Methyltetrahydrofuran;(±)-3-Methyltetrahydrofuran;NSC 91487;3-Methyloxolane",
    "duplicated_cas_no": "96553-45-6",
    "SMILES": "CC1CCOC1",
    "meta_data": {
        "InChI": "InChI=1S/C5H10O/c1-5-2-3-6-4-5/h5H,2-4H2,1H3",
        "InChIKey": null,
        "Canonical SMILES": "O1CCC(C)C1",
        "Molecular Formula": "C<sub>5</sub>H<sub>10</sub>O",
        "Molecular Mass": "86.13",
        "Boiling Point": "86.5 °C",
        "Density": "0.8643 g/cm³ @ Temp: 20 °C"
    }
}