{
    "cas_no": "20501-56-8",
    "key_name": "Talatisamine",
    "cn_name": null,
    "alternate_name": "Aconitane-8,14-diol, 20-ethyl-1,16-dimethoxy-4-(methoxymethyl)-, (1α,14α,16β)-;Talatisamine;11a<em>H</em>-12,3,6a-Ethanylylidene-7,9-methanonaphth[2,3-<em>b</em>]azocine, aconitane-8,14-diol deriv.;(1α,14α,16β)-20-Ethyl-1,16-dimethoxy-4-(methoxymethyl)aconitane-8,14-diol;Talatizamine;(-)-Talatisamine",
    "duplicated_cas_no": "860350-95-4",
    "SMILES": "O(C)[C@@H]1[C@@]23[C@]4([C@](COC)(CN(CC)[C@@]2([C@](C4)([C@]5(O)[C@@]6([C@]3(C[C@@]([C@@H]6O)([C@@H](OC)C5)[H])[H])[H])[H])[H])CC1)[H]",
    "meta_data": {
        "InChI": "InChI=1S/C24H39NO5/c1-5-25-11-22(12-28-2)7-6-18(30-4)24-14-8-13-16(29-3)10-23(27,19(14)20(13)26)15(21(24)25)9-17(22)24/h13-21,26-27H,5-12H2,1-4H3/t13-,14-,15+,16+,17-,18+,19-,20+,21-,22+,23+,24-/m1/s1",
        "InChIKey": null,
        "Canonical SMILES": "OC1C2CC3C1C(O)(CC2OC)C4CC5C6(COC)CN(CC)C4C35C(OC)CC6",
        "Molecular Formula": "C<sub>24</sub>H<sub>39</sub>NO<sub>5</sub>",
        "Molecular Mass": "421.57",
        "Melting Point": "138-140 °C"
    }
}