{
    "cas_no": "24979-97-3",
    "key_name": "Poly(tetrahydrofuran)",
    "cn_name": null,
    "alternate_name": "Furan, tetrahydro-, homopolymer;Furan, tetrahydro-, polymers;Poly(tetrahydrofuran);Poly(tetramethylene oxide);Tetramethylene oxide oligomer;Tetrahydrofuran homopolymer;THF homopolymer;Poly(THF);Polytetramethylene glycol, MB",
    "duplicated_cas_no": "120938-88-7;207136-73-0;146322-74-9",
    "SMILES": "C1CCOC1",
    "meta_data": {
        "InChI": "InChI=1S/C4H8O/c1-2-4-5-3-1/h1-4H2",
        "InChIKey": null,
        "Canonical SMILES": "O1CCCC1",
        "Molecular Formula": "(C<sub>4</sub>H<sub>8</sub>O)<sub>x</sub>",
        "Molecular Mass": "",
        "Melting Point": "38.3 °C",
        "Density": "0.915 g/cm³ (amorphous)"
    }
}