{
    "cas_no": "135616-36-3",
    "key_name": "2,2′-[(1<em>S</em>,2<em>S</em>)-1,2-Cyclohexanediylbis[(<em>E</em>)-nitrilomethylidyne]]bis[4,6-bis(1,1-dimethylethyl)phenol",
    "cn_name": null,
    "alternate_name": "Phenol, 2,2′-[(1<em>S</em>,2<em>S</em>)-1,2-cyclohexanediylbis[(<em>E</em>)-nitrilomethylidyne]]bis[4,6-bis(1,1-dimethylethyl)-;Phenol, 2,2′-[1,2-cyclohexanediylbis(nitrilomethylidyne)]bis[4,6-bis(1,1-dimethylethyl)-, [1<em>S</em>-[1α(<em>E</em>),2β(<em>E</em>)]]-;2,2′-[(1<em>S</em>,2<em>S</em>)-1,2-Cyclohexanediylbis[(<em>E</em>)-nitrilomethylidyne]]bis[4,6-bis(1,1-dimethylethyl)phenol",
    "duplicated_cas_no": "2921557-32-4",
    "SMILES": "C(C)(C)(C)C1=C(O)C(/C=N/[C@@H]2[C@@H](/N=C/C3=C(O)C(C(C)(C)C)=CC(C(C)(C)C)=C3)CCCC2)=CC(C(C)(C)C)=C1",
    "meta_data": {
        "InChI": "InChI=1S/C36H54N2O2/c1-33(2,3)25-17-23(31(39)27(19-25)35(7,8)9)21-37-29-15-13-14-16-30(29)38-22-24-18-26(34(4,5)6)20-28(32(24)40)36(10,11)12/h17-22,29-30,39-40H,13-16H2,1-12H3/b37-21+,38-22+/t29-,30-/m0/s1",
        "InChIKey": null,
        "Canonical SMILES": "OC1=C(C=NC2CCCCC2N=CC=3C=C(C=C(C3O)C(C)(C)C)C(C)(C)C)C=C(C=C1C(C)(C)C)C(C)(C)C",
        "Molecular Formula": "C<sub>36</sub>H<sub>54</sub>N<sub>2</sub>O<sub>2</sub>",
        "Molecular Mass": "546.83",
        "Melting Point": "206-207 °C"
    }
}