{
    "cas_no": "9002-91-9",
    "key_name": "Acetaldehyde, homopolymer",
    "cn_name": null,
    "alternate_name": "Acetaldehyde, homopolymer;Acetaldehyde, polymers;Polyacetaldehyde;Metaldehyde;Acetaldehyde polymer;Limovet;Limax;Slugit;Meta;Polyethanal",
    "duplicated_cas_no": "",
    "SMILES": "C(C)=O",
    "meta_data": {
        "InChI": "InChI=1S/C2H4O/c1-2-3/h2H,1H3",
        "InChIKey": null,
        "Canonical SMILES": "O=CC",
        "Molecular Formula": "(C<sub>2</sub>H<sub>4</sub>O)<sub>x</sub>",
        "Molecular Mass": "",
        "Melting Point": "165 °C"
    }
}