{
    "cas_no": "51336-94-8",
    "key_name": "2-Chloro-1-(2,4-difluorophenyl)ethanone",
    "cn_name": "2\"-氯-2,4-二氟苯乙酮;",
    "alternate_name": "Ethanone, 2-chloro-1-(2,4-difluorophenyl)-;2-Chloro-1-(2,4-difluorophenyl)ethanone;2-Chloro-2′,4′-difluoroacetophenone;Chloromethyl 2,4-difluorophenyl ketone;α-Chloro-2,4-difluoroacetophenone;2-Chloro-1-(2,4-difluorophenyl)ethan-1-one;1-(2,4-Difluorophenyl)-2-chloroethan-1-one",
    "duplicated_cas_no": "",
    "SMILES": "C(CCl)(=O)C1=C(F)C=C(F)C=C1",
    "meta_data": {
        "InChI": "InChI=1S/C8H5ClF2O/c9-4-8(12)6-2-1-5(10)3-7(6)11/h1-3H,4H2",
        "InChIKey": null,
        "Canonical SMILES": "O=C(C1=CC=C(F)C=C1F)CCl",
        "Molecular Formula": "C<sub>8</sub>H<sub>5</sub>ClF<sub>2</sub>O",
        "Molecular Mass": "190.57",
        "Melting Point": "46-47 °C"
    }
}