{
    "cas_no": "3734-48-3",
    "key_name": "Chlordene",
    "cn_name": "六氯杀虫剂;",
    "alternate_name": "4,7-Methano-1<em>H</em>-indene, 4,5,6,7,8,8-hexachloro-3a,4,7,7a-tetrahydro-;4,7-Methanoindene, 4,5,6,7,8,8-hexachloro-3a,4,7,7a-tetrahydro-;4,5,6,7,8,8-Hexachloro-3a,4,7,7a-tetrahydro-4,7-methano-1<em>H</em>-indene;Chlordene;4,5,6,7,8,8-Hexachloro-3a,4,7,7a-tetrahydro-4,7-methanoindene;4,5,6,7,8,8-Hexachloro-3<em>a</em>,4,7,7<em>a</em>-tetrahydro-4,7-methanoindene",
    "duplicated_cas_no": "",
    "SMILES": "ClC12C(Cl)(Cl)C(Cl)(C3C1CC=C3)C(Cl)=C2Cl",
    "meta_data": {
        "InChI": "InChI=1S/C10H6Cl6/c11-6-7(12)9(14)5-3-1-2-4(5)8(6,13)10(9,15)16/h1-2,4-5H,3H2",
        "InChIKey": null,
        "Canonical SMILES": "ClC1=C(Cl)C2(Cl)C3CC=CC3C1(Cl)C2(Cl)Cl",
        "Molecular Formula": "C<sub>10</sub>H<sub>6</sub>Cl<sub>6</sub>",
        "Molecular Mass": "338.87",
        "Melting Point": "155 °C"
    }
}