{
    "cas_no": "7784-45-4",
    "key_name": "Arsenic iodide (AsI<sub>3</sub>)",
    "cn_name": "三碘化亚砷;三碘化砷;碘化亚砷;",
    "alternate_name": "Arsenous triiodide;Arsenic iodide (AsI<sub>3</sub>);Arsenous iodide;Arsenic triiodide;Triiodoarsine;Arsenic(III) iodide",
    "duplicated_cas_no": "",
    "SMILES": "[As](I)(I)I",
    "meta_data": {
        "InChI": "InChI=1S/AsI3/c2-1(3)4",
        "InChIKey": null,
        "Canonical SMILES": "I[As](I)I",
        "Molecular Formula": "AsI<sub>3</sub>",
        "Molecular Mass": "455.64",
        "Boiling Point": "424 °C",
        "Melting Point": "140.9 °C",
        "Density": "4.688 g/cm³ @ Temp: 25 °C"
    }
}