{
    "cas_no": "14316-16-6",
    "key_name": "<em>N</em>-(2-Aminoethyl)-4-methylbenzenesulfonamide",
    "cn_name": null,
    "alternate_name": "Benzenesulfonamide, <em>N</em>-(2-aminoethyl)-4-methyl-;<em>p</em>-Toluenesulfonamide, <em>N</em>-(2-aminoethyl)-;<em>N</em>-(2-Aminoethyl)-4-methylbenzenesulfonamide;<em>N</em>-Tosylethylenediamine;<em>N</em>-(2-Aminoethyl)-4-toluenesulfonamide;NSC 177937;<em>N</em>-(4-Toluenesulfonyl)ethylene-1,2-diamine;2-[[(4-Methylphenyl)sulfonyl]amino]ethylamine;<em>N</em>-<em>p</em>-Tolylsulfonylethylenediamine;<em>N</em>-(2-Aminoethyl)-<em>p</em>-toluenesulfonamide",
    "duplicated_cas_no": "324047-65-6",
    "SMILES": "S(NCCN)(=O)(=O)C1=CC=C(C)C=C1",
    "meta_data": {
        "InChI": "InChI=1S/C9H14N2O2S/c1-8-2-4-9(5-3-8)14(12,13)11-7-6-10/h2-5,11H,6-7,10H2,1H3",
        "InChIKey": null,
        "Canonical SMILES": "O=S(=O)(NCCN)C1=CC=C(C=C1)C",
        "Molecular Formula": "C<sub>9</sub>H<sub>14</sub>N<sub>2</sub>O<sub>2</sub>S",
        "Molecular Mass": "214.28",
        "Melting Point": "123-124 °C"
    }
}