{
    "cas_no": "7518-22-1",
    "key_name": "Chikusetsusaponin IV",
    "cn_name": null,
    "alternate_name": "β-<span class=\"text-smallcaps\">D</smallcap>-Glucopyranosiduronic acid, (3β)-28-(β-<smallcap>D</smallcap>-glucopyranosyloxy)-28-oxoolean-12-en-3-yl 4-<em>O</em>-α-<smallcap>L</span>-arabinofuranosyl-;Araloside A;Chikusetsusaponin IV;Oleanane, β-<span class=\"text-smallcaps\">D</span>-glucopyranosiduronic acid deriv.;(3β)-28-(β-<span class=\"text-smallcaps\">D</smallcap>-Glucopyranosyloxy)-28-oxoolean-12-en-3-yl 4-<em>O</em>-α-<smallcap>L</smallcap>-arabinofuranosyl-β-<smallcap>D</span>-glucopyranosiduronic acid;Chikusetsusaponin 4;Oleanoside E",
    "duplicated_cas_no": "51268-81-6;65722-08-9;2688851-99-0",
    "SMILES": "C(O[C@@H]1O[C@H](CO)[C@@H](O)[C@H](O)[C@H]1O)(=O)[C@]23[C@](C=4[C@@](C)(CC2)[C@@]5(C)[C@](CC4)([C@]6(C)[C@@](CC5)(C(C)(C)[C@@H](O[C@@H]7O[C@H](C(O)=O)[C@@H](O[C@@H]8O[C@@H](CO)[C@H](O)[C@H]8O)[C@H](O)[C@H]7O)CC6)[H])[H])(CC(C)(C)CC3)[H]",
    "meta_data": {
        "InChI": "InChI=1S/C47H74O18/c1-42(2)14-16-47(41(59)65-39-33(55)30(52)28(50)23(19-48)61-39)17-15-45(6)21(22(47)18-42)8-9-26-44(5)12-11-27(43(3,4)25(44)10-13-46(26,45)7)62-40-34(56)31(53)35(36(64-40)37(57)58)63-38-32(54)29(51)24(20-49)60-38/h8,22-36,38-40,48-56H,9-20H2,1-7H3,(H,57,58)/t22-,23+,24-,25-,26+,27-,28+,29-,30-,31+,32+,33+,34+,35-,36-,38-,39-,40+,44-,45+,46+,47-/m0/s1",
        "InChIKey": null,
        "Canonical SMILES": "O=C(O)C1OC(OC2CCC3(C)C(CCC4(C)C3CC=C5C6CC(C)(C)CCC6(C(=O)OC7OC(CO)C(O)C(O)C7O)CCC54C)C2(C)C)C(O)C(O)C1OC8OC(CO)C(O)C8O",
        "Molecular Formula": "C<sub>47</sub>H<sub>74</sub>O<sub>18</sub>",
        "Molecular Mass": "927.08",
        "Melting Point": "196-200 °C (decomp)"
    }
}