{
    "cas_no": "885521-34-6",
    "key_name": "3-Bromo-6-chloro-1<em>H</em>-indazole",
    "cn_name": "3-溴-6-氯-1H-吲唑;",
    "alternate_name": "1<em>H</em>-Indazole, 3-bromo-6-chloro-;3-Bromo-6-chloro-1<em>H</em>-indazole;3-Bromo-6-chloro-2<em>H</em>-indazole",
    "duplicated_cas_no": "",
    "SMILES": "BrC=1C=2C(NN1)=CC(Cl)=CC2",
    "meta_data": {
        "InChI": "InChI=1S/C7H4BrClN2/c8-7-5-2-1-4(9)3-6(5)10-11-7/h1-3H,(H,10,11)",
        "InChIKey": null,
        "Canonical SMILES": "ClC=1C=CC=2C(Br)=NNC2C1",
        "Molecular Formula": "C<sub>7</sub>H<sub>4</sub>BrClN<sub>2</sub>",
        "Molecular Mass": "231.48",
        "Melting Point": "193 °C"
    }
}