{
    "cas_no": "121-50-6",
    "key_name": "2-Chloro-5-(trifluoromethyl)aniline",
    "cn_name": "3-氨基-4-氯三氟甲苯;4-氯-3-氨基三氟甲苯;",
    "alternate_name": "Benzenamine, 2-chloro-5-(trifluoromethyl)-;<em>m</em>-Toluidine, 6-chloro-α,α,α-trifluoro-;2-Chloro-5-(trifluoromethyl)benzenamine;3-Amino-4-chlorobenzotrifluoride;3-Amino-4-chloro-α,α,α-trifluorotoluene;Azoene Fast Orange RD Salt;4-Chloro-3-aminobenzotrifluoride;2-Chloro-5-(trifluoromethyl)aniline;6-Chloro-α,α,α-trifluoro-<em>m</em>-toluidine;Daito Orange Salt RD;Fast Orange RD Salt;Fast Orange Salt RD;Fast Orange Salt RDA;Fast Orange Salt RDN;Hiltosal Fast Orange RD Salt;Orange Salt NRD;Sanyo Fast Orange Salt RD;α,α,α-Trifluoro-6-chloro-<em>m</em>-toluidine;6-Chloro-3-(trifluoromethyl)aniline;NSC 10318;(2-Chloro-5-trifluoromethylphenyl)amine;1-Amino-2-chloro-5-trifluoromethylbenzene",
    "duplicated_cas_no": "",
    "SMILES": "C(F)(F)(F)C1=CC(N)=C(Cl)C=C1",
    "meta_data": {
        "InChI": "InChI=1S/C7H5ClF3N/c8-5-2-1-4(3-6(5)12)7(9,10)11/h1-3H,12H2",
        "InChIKey": null,
        "Canonical SMILES": "FC(F)(F)C1=CC=C(Cl)C(N)=C1",
        "Molecular Formula": "C<sub>7</sub>H<sub>5</sub>ClF<sub>3</sub>N",
        "Molecular Mass": "195.57",
        "Boiling Point": "82-83 °C @ Press: 9-10 Torr"
    }
}