{
    "cas_no": "5814-41-5",
    "key_name": "5,10-Dihydro-11<em>H</em>-dibenzo[<em>b</em>,<em>e</em>][1,4]diazepin-11-one",
    "cn_name": null,
    "alternate_name": "11<em>H</em>-Dibenzo[<em>b</em>,<em>e</em>][1,4]diazepin-11-one, 5,10-dihydro-;5,10-Dihydro-11<em>H</em>-dibenzo[<em>b</em>,<em>e</em>][1,4]diazepin-11-one;10,11-Dihydro-5<em>H</em>-dibenzo[<em>b</em>,<em>e</em>][1,4]diazepin-11-one;5,11-Dihydro-10<em>H</em>-dibenz[<em>b</em>,<em>e</em>][1,4]diazepine-11-one;5<em>H</em>-Dibenzo[<em>b</em>,<em>e</em>][1,4]diazepin-11(10<em>H</em>)-one",
    "duplicated_cas_no": "",
    "SMILES": "O=C1C=2C(NC=3C(N1)=CC=CC3)=CC=CC2",
    "meta_data": {
        "InChI": "InChI=1S/C13H10N2O/c16-13-9-5-1-2-6-10(9)14-11-7-3-4-8-12(11)15-13/h1-8,14H,(H,15,16)",
        "InChIKey": null,
        "Canonical SMILES": "O=C1NC=2C=CC=CC2NC=3C=CC=CC13",
        "Molecular Formula": "C<sub>13</sub>H<sub>10</sub>N<sub>2</sub>O",
        "Molecular Mass": "210.23",
        "Melting Point": "122-124 °C"
    }
}