{
    "cas_no": "18480-23-4",
    "key_name": "Phosphonium, triphenyl-2-propen-1-yl-, chloride (1:1)",
    "cn_name": "烯丙基三苯基氯化膦;",
    "alternate_name": "Phosphonium, triphenyl-2-propen-1-yl-, chloride (1:1);Phosphonium, allyltriphenyl-, chloride;Phosphonium, triphenyl-2-propenyl-, chloride;Allyltriphenylphosphonium chloride;NSC 126440",
    "duplicated_cas_no": "105843-17-2",
    "SMILES": "[P+](CC=C)(C1=CC=CC=C1)(C2=CC=CC=C2)C3=CC=CC=C3.[Cl-]",
    "meta_data": {
        "InChI": "InChI=1S/C21H20P.ClH/c1-2-18-22(19-12-6-3-7-13-19,20-14-8-4-9-15-20)21-16-10-5-11-17-21;/h2-17H,1,18H2;1H/q+1;/p-1",
        "InChIKey": null,
        "Canonical SMILES": "[Cl-].C=CC[P+](C=1C=CC=CC1)(C=2C=CC=CC2)C=3C=CC=CC3",
        "Molecular Formula": "C<sub>21</sub>H<sub>20</sub>P.Cl",
        "Molecular Mass": "",
        "Melting Point": "221-227 °C"
    }
}