{
    "cas_no": "10032-05-0",
    "key_name": "1,1-Dimethoxyheptane",
    "cn_name": "1,1-二甲氧基庚烷;庚醛缩二甲醇;",
    "alternate_name": "Heptane, 1,1-dimethoxy-;Heptanal, dimethyl acetal;1,1-Dimethoxyheptane",
    "duplicated_cas_no": "",
    "SMILES": "C(CCCCCC)(OC)OC",
    "meta_data": {
        "InChI": "InChI=1S/C9H20O2/c1-4-5-6-7-8-9(10-2)11-3/h9H,4-8H2,1-3H3",
        "InChIKey": null,
        "Canonical SMILES": "O(C)C(OC)CCCCCC",
        "Molecular Formula": "C<sub>9</sub>H<sub>20</sub>O<sub>2</sub>",
        "Molecular Mass": "160.25",
        "Boiling Point": "182 °C",
        "Density": "0.849 g/cm³ @ Temp: 20 °C"
    }
}