{
    "cas_no": "53587-11-4",
    "key_name": "<span class=\"text-smallcaps\">L</span>-Tyrosine, phenylmethyl ester, 4-methylbenzenesulfonate (1:1)",
    "cn_name": "L-酪氨酸苄酯对甲苯磺酸盐;",
    "alternate_name": "<span class=\"text-smallcaps\">L</span>-Tyrosine, phenylmethyl ester, 4-methylbenzenesulfonate (1:1);<span class=\"text-smallcaps\">L</span>-Tyrosine, phenylmethyl ester, 4-methylbenzenesulfonate (salt);Tyrosine benzyl ester tosylate (salt);Tyrosine benzyl ester tosylate;(<em>S</em>)-Tyrosine benzyl ester tosylate;<span class=\"text-smallcaps\">L</span>-Tyrosine benzyl ester 4-methylbenzenesulfonate;<span class=\"text-smallcaps\">L</span>-Tyrosine benzyl ester <em>p</em>-toluenesulfonate;Benzyl <span class=\"text-smallcaps\">L</span>-tyrosinate tosylate",
    "duplicated_cas_no": "139755-67-2",
    "SMILES": "C([C@@H](C(OCC1=CC=CC=C1)=O)N)C2=CC=C(O)C=C2.S(=O)(=O)(O)C1=CC=C(C)C=C1",
    "meta_data": {
        "InChI": "InChI=1S/C16H17NO3.C7H8O3S/c17-15(10-12-6-8-14(18)9-7-12)16(19)20-11-13-4-2-1-3-5-13;1-6-2-4-7(5-3-6)11(8,9)10/h1-9,15,18H,10-11,17H2;2-5H,1H3,(H,8,9,10)/t15-;/m0./s1",
        "InChIKey": null,
        "Canonical SMILES": "O=C(OCC=1C=CC=CC1)C(N)CC2=CC=C(O)C=C2.O=S(=O)(O)C1=CC=C(C=C1)C",
        "Molecular Formula": "C<sub>16</sub>H<sub>17</sub>NO<sub>3</sub>.C<sub>7</sub>H<sub>8</sub>O<sub>3</sub>S",
        "Molecular Mass": "",
        "Melting Point": "179-180.5 °C"
    }
}