{
    "cas_no": "1910-42-5",
    "key_name": "Methyl viologen",
    "cn_name": "甲基紫精;百草枯;1,1-二甲基-4,4\"-联吡啶鎓盐二氯化物;",
    "alternate_name": "4,4′-Bipyridinium, 1,1′-dimethyl-, chloride (1:2);4,4′-Bipyridinium, 1,1′-dimethyl-, dichloride;1,1′-Dimethyl-4,4′-bipyridinium dichloride;<em>N</em>,<em>N</em>′-Dimethyl-4,4′-bipyridinium dichloride;<em>N</em>,<em>N</em>′-Dimethyl-4,4′-dipyridylium dichloride;1,1′-Dimethyl-4,4′-dipyridylium dichloride;Paraquat dichloride;Methyl viologen;Gramoxone W;Gramoxone dichloride;1,1′-Dimethyl-4,4′-dipyridinium dichloride;Methyl viologen dichloride;Gramixel;Gramoxone S;Gramoxone;OK 622;Dimethyl viologen chloride;Gramoxone D;AH 501;Methylviologen chloride;Paragreen A;Cekuquat;Galokson;Gramoxone Max;Cyclone Max;Gramoxone Inteon;AH 501 (herbicide);Paraquat;Nuquat;Tocha",
    "duplicated_cas_no": "3765-78-4;57593-74-5;65982-50-5;136338-65-3;205105-68-6;247050-57-3;1235970-93-0",
    "SMILES": "C[N+]=1C=CC(=CC1)C=2C=C[N+](C)=CC2.[Cl-]",
    "meta_data": {
        "InChI": "InChI=1S/C12H14N2.2ClH/c1-13-7-3-11(4-8-13)12-5-9-14(2)10-6-12;;/h3-10H,1-2H3;2*1H/q+2;;/p-2",
        "InChIKey": null,
        "Canonical SMILES": "[Cl-].C=1C=[N+](C=CC1C=2C=C[N+](=CC2)C)C",
        "Molecular Formula": "C<sub>12</sub>H<sub>14</sub>N<sub>2</sub>.2Cl",
        "Molecular Mass": "",
        "Melting Point": "175-180 °C",
        "Density": "1.25 g/cm³"
    }
}