{
    "cas_no": "2516-40-7",
    "key_name": "2-Bromobenzothiazole",
    "cn_name": "2-溴苯并噻唑;",
    "alternate_name": "Benzothiazole, 2-bromo-;2-Bromobenzothiazole;2-Bromo-1,3-benzothiazole;2-Bromobenzo[<em>d</em>]thiazole",
    "duplicated_cas_no": "",
    "SMILES": "BrC1=NC=2C(S1)=CC=CC2",
    "meta_data": {
        "InChI": "InChI=1S/C7H4BrNS/c8-7-9-5-3-1-2-4-6(5)10-7/h1-4H",
        "InChIKey": null,
        "Canonical SMILES": "BrC1=NC=2C=CC=CC2S1",
        "Molecular Formula": "C<sub>7</sub>H<sub>4</sub>BrNS",
        "Molecular Mass": "214.08",
        "Melting Point": "95 °C (decomp)"
    }
}