{
    "cas_no": "1539-04-4",
    "key_name": "1,4-Diphenyl 1,4-benzenedicarboxylate",
    "cn_name": "对苯二甲酸二苯酯;联苯对二苯酸盐;对苯二甲酸二苯酯;对苯二甲酸二苯酯,97%;",
    "alternate_name": "1,4-Benzenedicarboxylic acid, 1,4-diphenyl ester;Terephthalic acid, diphenyl ester;1,4-Benzenedicarboxylic acid, diphenyl ester;1,4-Diphenyl 1,4-benzenedicarboxylate;Diphenyl terephthalate;Diphenyl 1,4-benzenedicarboxylate;NSC 402474",
    "duplicated_cas_no": "",
    "SMILES": "C(OC1=CC=CC=C1)(=O)C2=CC=C(C(OC3=CC=CC=C3)=O)C=C2",
    "meta_data": {
        "InChI": "InChI=1S/C20H14O4/c21-19(23-17-7-3-1-4-8-17)15-11-13-16(14-12-15)20(22)24-18-9-5-2-6-10-18/h1-14H",
        "InChIKey": null,
        "Canonical SMILES": "O=C(OC=1C=CC=CC1)C2=CC=C(C=C2)C(=O)OC=3C=CC=CC3",
        "Molecular Formula": "C<sub>20</sub>H<sub>14</sub>O<sub>4</sub>",
        "Molecular Mass": "318.32",
        "Melting Point": "199-200 °C"
    }
}