{
    "cas_no": "77771-02-9",
    "key_name": "3-Bromo-4-fluorobenzaldehyde",
    "cn_name": "3-溴-4-氟苯甲醛;",
    "alternate_name": "Benzaldehyde, 3-bromo-4-fluoro-;3-Bromo-4-fluorobenzaldehyde;4-Fluoro-3-bromobenzaldehyde",
    "duplicated_cas_no": "",
    "SMILES": "C(=O)C1=CC(Br)=C(F)C=C1",
    "meta_data": {
        "InChI": "InChI=1S/C7H4BrFO/c8-6-3-5(4-10)1-2-7(6)9/h1-4H",
        "InChIKey": null,
        "Canonical SMILES": "O=CC1=CC=C(F)C(Br)=C1",
        "Molecular Formula": "C<sub>7</sub>H<sub>4</sub>BrFO",
        "Molecular Mass": "203.01",
        "Boiling Point": "85-108 °C @ Press: 8 Torr",
        "Melting Point": "30-32 °C"
    }
}