{
    "cas_no": "446-10-6",
    "key_name": "4-Fluoro-1-methyl-2-nitrobenzene",
    "cn_name": "4-氟-2-硝基甲苯;2-硝基-4-氟甲苯;",
    "alternate_name": "Benzene, 4-fluoro-1-methyl-2-nitro-;Toluene, 4-fluoro-2-nitro-;4-Fluoro-1-methyl-2-nitrobenzene;4-Fluoro-2-nitrotoluene;1-Fluoro-4-methyl-3-nitrobenzene;2-Nitro-4-fluorotoluene;2-Methyl-5-fluoronitrobenzene;NSC 60725",
    "duplicated_cas_no": "",
    "SMILES": "N(=O)(=O)C1=C(C)C=CC(F)=C1",
    "meta_data": {
        "InChI": "InChI=1S/C7H6FNO2/c1-5-2-3-6(8)4-7(5)9(10)11/h2-4H,1H3",
        "InChIKey": null,
        "Canonical SMILES": "O=N(=O)C1=CC(F)=CC=C1C",
        "Molecular Formula": "C<sub>7</sub>H<sub>6</sub>FNO<sub>2</sub>",
        "Molecular Mass": "155.13",
        "Boiling Point": "213 °C",
        "Melting Point": "27 °C",
        "Density": "1.359 g/cm³ @ Temp: 20 °C"
    }
}