{
    "cas_no": "1041-00-5",
    "key_name": "Fluorescent Brightener 135",
    "cn_name": "荧光增白剂135;1,2-双(5-甲基-2-苯并噁唑基)-乙烯;",
    "alternate_name": "Benzoxazole, 2,2′-(1,2-ethenediyl)bis[5-methyl-;Benzoxazole, 2,2′-vinylenebis[5-methyl-;2,2′-(1,2-Ethenediyl)bis[5-methylbenzoxazole];1,2-Bis(5-methyl-2-benzoxazolyl)ethylene;1,2-Bis(5′-methyl-2′-benzoxazolyl)ethylene;1,2-Bis(5-methyl-2-benzoxazolyl)ethene;C.I. 481520;Fluorescent Brightener 135;C.I. Fluorescent Brightening Agent 135;Uvitex ERN CONC P;Whitex ERN;Uvitex ERN;C.I. Fluorescent Brightener 135;Uvitex ERN-P;2,2′-Vinylenebis[5-methylbenzoxazole];α,β-Di(5-methylbenzoxazol-2-yl)ethene;Hakkol STR;Illuminarl BGF;DT;DT (brightener);ERN-P;Fluorescent Brightener PF",
    "duplicated_cas_no": "12224-12-3;105418-13-1;914657-16-2;2252277-56-6",
    "SMILES": "C(=CC=1OC=2C(N1)=CC(C)=CC2)C3=NC=4C(O3)=CC=C(C)C4",
    "meta_data": {
        "InChI": "InChI=1S/C18H14N2O2/c1-11-3-5-15-13(9-11)19-17(21-15)7-8-18-20-14-10-12(2)4-6-16(14)22-18/h3-10H,1-2H3",
        "InChIKey": null,
        "Canonical SMILES": "N1=C(OC=2C=CC(=CC12)C)C=CC3=NC=4C=C(C=CC4O3)C",
        "Molecular Formula": "C<sub>18</sub>H<sub>14</sub>N<sub>2</sub>O<sub>2</sub>",
        "Molecular Mass": "290.32",
        "Melting Point": "183-184 °C"
    }
}