{
    "cas_no": "540-51-2",
    "key_name": "2-Bromoethanol",
    "cn_name": "2-溴乙醇;",
    "alternate_name": "Ethanol, 2-bromo-;2-Bromoethanol;Glycol bromohydrin;Ethylene bromohydrin;2-Hydroxyethyl bromide;1-Bromo-2-ethanol;β-Bromoethanol;1-Bromo-2-hydroxyethane;2-Bromoethyl alcohol;NSC 2869",
    "duplicated_cas_no": "1867-11-4",
    "SMILES": "C(CO)Br",
    "meta_data": {
        "InChI": "InChI=1S/C2H5BrO/c3-1-2-4/h4H,1-2H2",
        "InChIKey": null,
        "Canonical SMILES": "BrCCO",
        "Molecular Formula": "C<sub>2</sub>H<sub>5</sub>BrO",
        "Molecular Mass": "124.96",
        "Boiling Point": "150 °C",
        "Density": "1.7902 g/cm³ @ Temp: 40 °C"
    }
}