{
    "cas_no": "581-89-5",
    "key_name": "2-Nitronaphthalene",
    "cn_name": "2-硝基萘;2-硝基萘;",
    "alternate_name": "Naphthalene, 2-nitro-;2-Nitronaphthalene;β-Nitronaphthalene",
    "duplicated_cas_no": "",
    "SMILES": "N(=O)(=O)C1=CC2=C(C=C1)C=CC=C2",
    "meta_data": {
        "InChI": "InChI=1S/C10H7NO2/c12-11(13)10-6-5-8-3-1-2-4-9(8)7-10/h1-7H",
        "InChIKey": null,
        "Canonical SMILES": "O=N(=O)C=1C=CC=2C=CC=CC2C1",
        "Molecular Formula": "C<sub>10</sub>H<sub>7</sub>NO<sub>2</sub>",
        "Molecular Mass": "173.17",
        "Boiling Point": "314 °C",
        "Melting Point": "79 °C"
    }
}