{
    "cas_no": "614-48-2",
    "key_name": "3-Nitrochalcone",
    "cn_name": null,
    "alternate_name": "2-Propen-1-one, 3-(3-nitrophenyl)-1-phenyl-;Chalcone, 3-nitro-;3-(3-Nitrophenyl)-1-phenyl-2-propen-1-one;3-Nitrochalcone;3-(<em>m</em>-Nitrophenyl)-1-phenyl-2-propen-1-one;3-Nitrobenzylideneacetophenone;3-Nitrostyryl phenyl ketone;<em>m</em>-Nitrostyryl phenyl ketone;NSC 5536;NSC 636933",
    "duplicated_cas_no": "904812-78-8",
    "SMILES": "C(C=CC1=CC(N(=O)=O)=CC=C1)(=O)C2=CC=CC=C2",
    "meta_data": {
        "InChI": "InChI=1S/C15H11NO3/c17-15(13-6-2-1-3-7-13)10-9-12-5-4-8-14(11-12)16(18)19/h1-11H",
        "InChIKey": null,
        "Canonical SMILES": "O=C(C=CC1=CC=CC(=C1)N(=O)=O)C=2C=CC=CC2",
        "Molecular Formula": "C<sub>15</sub>H<sub>11</sub>NO<sub>3</sub>",
        "Molecular Mass": "253.25",
        "Melting Point": "142-145 °C"
    }
}