{
    "cas_no": "6553-80-6",
    "key_name": "Cyclohexanecarboxylic acid, 1-methylethyl ester",
    "cn_name": "环己烷羧酸异丙酯;",
    "alternate_name": "Cyclohexanecarboxylic acid, 1-methylethyl ester;Cyclohexanecarboxylic acid, isopropyl ester;Isopropyl cyclohexanecarboxylate",
    "duplicated_cas_no": "",
    "SMILES": "C(OC(C)C)(=O)C1CCCCC1",
    "meta_data": {
        "InChI": "InChI=1S/C10H18O2/c1-8(2)12-10(11)9-6-4-3-5-7-9/h8-9H,3-7H2,1-2H3",
        "InChIKey": null,
        "Canonical SMILES": "O=C(OC(C)C)C1CCCCC1",
        "Molecular Formula": "C<sub>10</sub>H<sub>18</sub>O<sub>2</sub>",
        "Molecular Mass": "170.25",
        "Boiling Point": "72-73 °C"
    }
}