{
    "cas_no": "597-63-7",
    "key_name": "Tetraethylgermane",
    "cn_name": "四乙基锗;",
    "alternate_name": "Germane, tetraethyl-;Tetraethylgermane;Tetraethylgermanium;NSC 65800",
    "duplicated_cas_no": "",
    "SMILES": "[Ge](CC)(CC)(CC)CC",
    "meta_data": {
        "InChI": "InChI=1S/C8H20Ge/c1-5-9(6-2,7-3)8-4/h5-8H2,1-4H3",
        "InChIKey": null,
        "Canonical SMILES": "CC[Ge](CC)(CC)CC",
        "Molecular Formula": "C<sub>8</sub>H<sub>20</sub>Ge",
        "Molecular Mass": "188.88",
        "Boiling Point": "163-164 °C",
        "Melting Point": "-93 °C",
        "Density": "0.991 g/cm³"
    }
}