{
    "cas_no": "98674-87-4",
    "key_name": "1,3,2-Dioxaphosphorinane, 4-(2-chlorophenyl)-2-hydroxy-5,5-dimethyl-, 2-oxide, (4<em>R</em>)-",
    "cn_name": "(R)-(+)-4-(2-氯苯基)-2-5,5-二甲基-2-羟基-1,3,2-二氧磷杂环己烷-2-氧化物;",
    "alternate_name": "1,3,2-Dioxaphosphorinane, 4-(2-chlorophenyl)-2-hydroxy-5,5-dimethyl-, 2-oxide, (4<em>R</em>)-;1,3,2-Dioxaphosphorinane, 4-(2-chlorophenyl)-2-hydroxy-5,5-dimethyl-, 2-oxide, (<em>R</em>)-;(+)-Chlocyphos;(<em>R</em>)-Chlocyphos;(R)-(+)-4-(2-Chlorophenyl)-2-hydroxy-5,5-dimethyl-1,3,2-dioxaphosphorinane 2-oxide",
    "duplicated_cas_no": "",
    "SMILES": "CC1(C)[C@@H](OP(=O)(O)OC1)C2=C(Cl)C=CC=C2",
    "meta_data": {
        "InChI": "InChI=1S/C11H14ClO4P/c1-11(2)7-15-17(13,14)16-10(11)8-5-3-4-6-9(8)12/h3-6,10H,7H2,1-2H3,(H,13,14)/t10-/m0/s1",
        "InChIKey": null,
        "Canonical SMILES": "O=P1(O)OCC(C)(C)C(O1)C=2C=CC=CC2Cl",
        "Molecular Formula": "C<sub>11</sub>H<sub>14</sub>ClO<sub>4</sub>P",
        "Molecular Mass": "276.65",
        "Melting Point": "225-227 °C"
    }
}