{
    "cas_no": "613-03-6",
    "key_name": "1,2,4-Triacetoxybenzene",
    "cn_name": "1,2,4-苯三酚醋酸酯;1,2,4-三乙酰氧基苯;",
    "alternate_name": "1,2,4-Benzenetriol, 1,2,4-triacetate;1,2,4-Benzenetriol, triacetate;2-Hydroxyhydroquinone triacetate;Hydroxyhydroquinone triacetate;1,2,4-Triacetoxybenzene;Pyrogallol A;1,2,4-Tris(acetoxy)benzene;NSC 2149;2,5-Bis(acetyloxy)phenyl acetate;2,4-Bis(acetyloxy)phenyl acetate;(3,4-Diacetyloxyphenyl) acetate",
    "duplicated_cas_no": "51810-46-9",
    "SMILES": "O(C(C)=O)C1=C(OC(C)=O)C=CC(OC(C)=O)=C1",
    "meta_data": {
        "InChI": "InChI=1S/C12H12O6/c1-7(13)16-10-4-5-11(17-8(2)14)12(6-10)18-9(3)15/h4-6H,1-3H3",
        "InChIKey": null,
        "Canonical SMILES": "O=C(OC1=CC=C(OC(=O)C)C(OC(=O)C)=C1)C",
        "Molecular Formula": "C<sub>12</sub>H<sub>12</sub>O<sub>6</sub>",
        "Molecular Mass": "252.22",
        "Boiling Point": "300 °C",
        "Melting Point": "99 °C"
    }
}