{
    "cas_no": "59467-70-8",
    "key_name": "Midazolam",
    "cn_name": "咪达唑仑;咪唑安定;速眠安;8-氯-6-(2-氟苯基)-1-甲基-4H-咪唑并[1,5-alpha][1,4]苯并二氮杂卓;",
    "alternate_name": "4<em>H</em>-Imidazo[1,5-<em>a</em>][1,4]benzodiazepine, 8-chloro-6-(2-fluorophenyl)-1-methyl-;8-Chloro-6-(2-fluorophenyl)-1-methyl-4<em>H</em>-imidazo[1,5-<em>a</em>][1,4]benzodiazepine;Midazolam;Dormicum;Midosed;Midanium;Dazolam;Sumianxin;Midacom;Mezolam;Gobbizolam;ADV 6209;Ozaline;Buccolam;Seizalam;MeSH ID: D008874",
    "duplicated_cas_no": "",
    "SMILES": "CC=1N2C=3C(C(=NCC2=CN1)C4=C(F)C=CC=C4)=CC(Cl)=CC3",
    "meta_data": {
        "InChI": "InChI=1S/C18H13ClFN3/c1-11-21-9-13-10-22-18(14-4-2-3-5-16(14)20)15-8-12(19)6-7-17(15)23(11)13/h2-9H,10H2,1H3",
        "InChIKey": null,
        "Canonical SMILES": "FC=1C=CC=CC1C2=NCC3=CN=C(N3C=4C=CC(Cl)=CC24)C",
        "Molecular Formula": "C<sub>18</sub>H<sub>13</sub>ClFN<sub>3</sub>",
        "Molecular Mass": "325.77",
        "Melting Point": "159 °C"
    }
}