{
    "cas_no": "112-20-9",
    "key_name": "Nonylamine",
    "cn_name": "1-壬胺;",
    "alternate_name": "1-Nonanamine;Nonylamine;<em>n</em>-Nonylamine;1-Nonylamine;1-Aminononane;Monononylamine",
    "duplicated_cas_no": "",
    "SMILES": "C(CCCCN)CCCC",
    "meta_data": {
        "InChI": "InChI=1S/C9H21N/c1-2-3-4-5-6-7-8-9-10/h2-10H2,1H3",
        "InChIKey": null,
        "Canonical SMILES": "NCCCCCCCCC",
        "Molecular Formula": "C<sub>9</sub>H<sub>21</sub>N",
        "Molecular Mass": "143.27",
        "Boiling Point": "202.2 °C",
        "Melting Point": "-1 °C",
        "Density": "0.7878 g/cm³ @ Temp: 20 °C"
    }
}