{
    "cas_no": "38215-36-0",
    "key_name": "Coumarin 6",
    "cn_name": "香豆素6;3-(2\"-苯并噻唑基)-7-二乙基氨基香豆素;",
    "alternate_name": "2<em>H</em>-1-Benzopyran-2-one, 3-(2-benzothiazolyl)-7-(diethylamino)-;Coumarin, 3-(2-benzothiazolyl)-7-(diethylamino)-;3-(2-Benzothiazolyl)-7-(diethylamino)-2<em>H</em>-1-benzopyran-2-one;Coumarin 6;Coumarin 540;3-(2-Benzothiazolyl-7-(diethylamino)coumarin;3-(2′-Benzothiazolyl)-7-<em>N</em>,<em>N</em>-diethylaminocoumarin;NSC 290432;3-(Benzothiazol-2-yl)-7-diethylamino-2<em>H</em>-benzopyran-2-one;NK 1858;3-Benzothiazol-2-yl-7-diethylamino-chromen-2-one;3-(1,3-Benzothiazol-2-yl)-7-(diethylamino)chromen-2-one",
    "duplicated_cas_no": "54576-82-8",
    "SMILES": "O=C1C(=CC=2C(O1)=CC(N(CC)CC)=CC2)C3=NC=4C(S3)=CC=CC4",
    "meta_data": {
        "InChI": "InChI=1S/C20H18N2O2S/c1-3-22(4-2)14-10-9-13-11-15(20(23)24-17(13)12-14)19-21-16-7-5-6-8-18(16)25-19/h5-12H,3-4H2,1-2H3",
        "InChIKey": null,
        "Canonical SMILES": "O=C1OC2=CC(=CC=C2C=C1C3=NC=4C=CC=CC4S3)N(CC)CC",
        "Molecular Formula": "C<sub>20</sub>H<sub>18</sub>N<sub>2</sub>O<sub>2</sub>S",
        "Molecular Mass": "350.43",
        "Melting Point": "212 °C"
    }
}