{
    "cas_no": "209783-80-2",
    "key_name": "Entinostat",
    "cn_name": null,
    "alternate_name": "Carbamic acid, <em>N</em>-[[4-[[(2-aminophenyl)amino]carbonyl]phenyl]methyl]-, 3-pyridinylmethyl ester;Carbamic acid, [[4-[[(2-aminophenyl)amino]carbonyl]phenyl]methyl]-, 3-pyridinylmethyl ester;MS 275;MS 27-275;MS 275-27;SNDX 275;Entinostat;(Pyridin-3-yl)methyl 4-(2-aminophenylcarbamoyl)benzylcarbamate",
    "duplicated_cas_no": "442532-99-2",
    "SMILES": "C(NC1=C(N)C=CC=C1)(=O)C2=CC=C(CNC(OCC=3C=CC=NC3)=O)C=C2",
    "meta_data": {
        "InChI": "InChI=1S/C21H20N4O3/c22-18-5-1-2-6-19(18)25-20(26)17-9-7-15(8-10-17)13-24-21(27)28-14-16-4-3-11-23-12-16/h1-12H,13-14,22H2,(H,24,27)(H,25,26)",
        "InChIKey": null,
        "Canonical SMILES": "O=C(OCC=1C=NC=CC1)NCC2=CC=C(C=C2)C(=O)NC=3C=CC=CC3N",
        "Molecular Formula": "C<sub>21</sub>H<sub>20</sub>N<sub>4</sub>O<sub>3</sub>",
        "Molecular Mass": "376.41",
        "Melting Point": "159-160 °C"
    }
}