{
    "cas_no": "34104-67-1",
    "key_name": "4-(4-Chlorophenyl)-α-(4-fluorophenyl)-4-hydroxy-1-piperidinebutanol",
    "cn_name": null,
    "alternate_name": "1-Piperidinebutanol, 4-(4-chlorophenyl)-α-(4-fluorophenyl)-4-hydroxy-;1-Piperidinebutanol, 4-(<em>p</em>-chlorophenyl)-α-(<em>p</em>-fluorophenyl)-4-hydroxy-;4-(4-Chlorophenyl)-α-(4-fluorophenyl)-4-hydroxy-1-piperidinebutanol;R 2572",
    "duplicated_cas_no": "159573-82-7",
    "SMILES": "OC1(C2=CC=C(Cl)C=C2)CCN(CCCC(O)C3=CC=C(F)C=C3)CC1",
    "meta_data": {
        "InChI": "InChI=1S/C21H25ClFNO2/c22-18-7-5-17(6-8-18)21(26)11-14-24(15-12-21)13-1-2-20(25)16-3-9-19(23)10-4-16/h3-10,20,25-26H,1-2,11-15H2",
        "InChIKey": null,
        "Canonical SMILES": "FC1=CC=C(C=C1)C(O)CCCN2CCC(O)(C3=CC=C(Cl)C=C3)CC2",
        "Molecular Formula": "C<sub>21</sub>H<sub>25</sub>ClFNO<sub>2</sub>",
        "Molecular Mass": "377.88",
        "Melting Point": "144-146 °C"
    }
}