{
    "cas_no": "122143-19-5",
    "key_name": "1-(2-Chlorophenyl)cyclopropanecarboxylic acid",
    "cn_name": null,
    "alternate_name": "Cyclopropanecarboxylic acid, 1-(2-chlorophenyl)-;1-(2-Chlorophenyl)cyclopropanecarboxylic acid;1-(2-Chlorophenyl)cyclopropane-1-carboxylic acid",
    "duplicated_cas_no": "",
    "SMILES": "C(O)(=O)C1(CC1)C2=C(Cl)C=CC=C2",
    "meta_data": {
        "InChI": "InChI=1S/C10H9ClO2/c11-8-4-2-1-3-7(8)10(5-6-10)9(12)13/h1-4H,5-6H2,(H,12,13)",
        "InChIKey": null,
        "Canonical SMILES": "O=C(O)C1(C=2C=CC=CC2Cl)CC1",
        "Molecular Formula": "C<sub>10</sub>H<sub>9</sub>ClO<sub>2</sub>",
        "Molecular Mass": "196.63",
        "Melting Point": "159-162 °C"
    }
}