{
    "cas_no": "2641-89-6",
    "key_name": "2,3,5,6-Tetrabromo-1,4-benzenediol",
    "cn_name": "四溴代氢醌;",
    "alternate_name": "1,4-Benzenediol, 2,3,5,6-tetrabromo-;Hydroquinone, tetrabromo-;2,3,5,6-Tetrabromo-1,4-benzenediol;Tetrabromohydroquinone;2,3,5,6-Tetrabromohydroquinone;Tetrabromo-<em>p</em>-hydroquinone;Hydrobromanil;NSC 508878;Tetrabromo-1,4-hydroquinone;2,3,5,6-Tetrabromo-1,4-hydroquinone;1,4-Dihydroxy-2,3,5,6-tetrabromobenzene",
    "duplicated_cas_no": "",
    "SMILES": "BrC1=C(Br)C(O)=C(Br)C(Br)=C1O",
    "meta_data": {
        "InChI": "InChI=1S/C6H2Br4O2/c7-1-2(8)6(12)4(10)3(9)5(1)11/h11-12H",
        "InChIKey": null,
        "Canonical SMILES": "BrC=1C(Br)=C(O)C(Br)=C(Br)C1O",
        "Molecular Formula": "C<sub>6</sub>H<sub>2</sub>Br<sub>4</sub>O<sub>2</sub>",
        "Molecular Mass": "425.69",
        "Melting Point": "244 °C"
    }
}