{
    "cas_no": "2173-69-5",
    "key_name": "β,β-Dimethylbenzeneethanol",
    "cn_name": null,
    "alternate_name": "Benzeneethanol, β,β-dimethyl-;Phenethyl alcohol, β,β-dimethyl-;β,β-Dimethylbenzeneethanol;Neophyl alcohol;2-Methyl-2-phenylpropanol;2-Methyl-2-phenyl-1-propanol;2,2-Dimethyl-2-phenylethanol;NSC 956;2-Phenyl-2-methylpropan-1-ol",
    "duplicated_cas_no": "",
    "SMILES": "C(CO)(C)(C)C1=CC=CC=C1",
    "meta_data": {
        "InChI": "InChI=1S/C10H14O/c1-10(2,8-11)9-6-4-3-5-7-9/h3-7,11H,8H2,1-2H3",
        "InChIKey": null,
        "Canonical SMILES": "OCC(C=1C=CC=CC1)(C)C",
        "Molecular Formula": "C<sub>10</sub>H<sub>14</sub>O",
        "Molecular Mass": "150.22",
        "Boiling Point": "122-123 °C @ Press: 20 Torr",
        "Density": "0.9969 g/cm³ @ Temp: 20 °C"
    }
}