{
    "cas_no": "25168-73-4",
    "key_name": "Sucrose monooctadecanoate",
    "cn_name": "蔗糖硬脂酸酯;蔗糖酯S；蔗糖单硬脂酸酯;",
    "alternate_name": "α-<span class=\"text-smallcaps\">D</smallcap>-Glucopyranoside, β-<smallcap>D</span>-fructofuranosyl, monooctadecanoate;Sucrose, monostearate;Stearic acid, monoester with sucrose;Saccharose monostearate;Saccharose stearate;Stearic acid sucrose ester;Sucrose monostearic acid ester;Sucrapan S;Ryoto Sugar Ester S 1670;Ryoto Sugar Ester MO-C 18;S 1670;Sucrose monooctadecanoate;NSC 192745;Sugar Ester S 1670;Surfhope SE Pharma J-1809;Ryoto S 1670",
    "duplicated_cas_no": "135413-00-2",
    "SMILES": "",
    "meta_data": {
        "InChI": "",
        "InChIKey": null,
        "Canonical SMILES": "",
        "Molecular Formula": "C<sub>30</sub>H<sub>56</sub>O<sub>12</sub>",
        "Molecular Mass": "",
        "Melting Point": "67-71 °C"
    }
}