{
    "cas_no": "52667-88-6",
    "key_name": "1,4,7,10-Tetrakis[(4-methylphenyl)sulfonyl]-1,4,7,10-tetraazacyclododecane",
    "cn_name": null,
    "alternate_name": "1,4,7,10-Tetraazacyclododecane, 1,4,7,10-tetrakis[(4-methylphenyl)sulfonyl]-;1,4,7,10-Tetraazacyclododecane, 1,4,7,10-tetrakis(<em>p</em>-tolylsulfonyl)-;1,4,7,10-Tetrakis[(4-methylphenyl)sulfonyl]-1,4,7,10-tetraazacyclododecane;1,4,7,10-Tetrakis(<em>p</em>-tolylsulfonyl)-1,4,7,10-tetraazacyclododecane;1,4,7,10-Tetra(<em>p</em>-tosyl)-1,4,7,10-tetraazacyclododecane;1,4,7,10-Tetratosyl-1,4,7,10-tetraazacyclodecane;1,4,7,10-Tetra(toluene-4-sulfonyl)-1,4,7,10-tetraazacyclododecane;1,4,7,10-Tetrakis-(4-methylphenyl)sulfonyl-1,4,7,10-tetrazacyclododecane",
    "duplicated_cas_no": "",
    "SMILES": "S(=O)(=O)(N1CCN(S(=O)(=O)C2=CC=C(C)C=C2)CCN(S(=O)(=O)C3=CC=C(C)C=C3)CCN(S(=O)(=O)C4=CC=C(C)C=C4)CC1)C5=CC=C(C)C=C5",
    "meta_data": {
        "InChI": "InChI=1S/C36H44N4O8S4/c1-29-5-13-33(14-6-29)49(41,42)37-21-23-38(50(43,44)34-15-7-30(2)8-16-34)25-27-40(52(47,48)36-19-11-32(4)12-20-36)28-26-39(24-22-37)51(45,46)35-17-9-31(3)10-18-35/h5-20H,21-28H2,1-4H3",
        "InChIKey": null,
        "Canonical SMILES": "O=S(=O)(C1=CC=C(C=C1)C)N2CCN(CCN(CCN(CC2)S(=O)(=O)C3=CC=C(C=C3)C)S(=O)(=O)C4=CC=C(C=C4)C)S(=O)(=O)C5=CC=C(C=C5)C",
        "Molecular Formula": "C<sub>36</sub>H<sub>44</sub>N<sub>4</sub>O<sub>8</sub>S<sub>4</sub>",
        "Molecular Mass": "789.02",
        "Melting Point": "296 °C"
    }
}