{
    "cas_no": "3068-76-6",
    "key_name": "<em>N</em>-Phenyl-3-aminopropyltrimethoxysilane",
    "cn_name": "3-(苯基氨基)丙基三甲氧基硅烷;",
    "alternate_name": "Benzenamine, <em>N</em>-[3-(trimethoxysilyl)propyl]-;Aniline, <em>N</em>-[3-(trimethoxysilyl)propyl]-;Silane, (3-anilinopropyl)trimethoxy-;<em>N</em>-[3-(Trimethoxysilyl)propyl]benzenamine;Y 5669;Trimethoxy[3-(phenylamino)propyl]silane;P 0156;(γ-Anilinopropyl)trimethoxysilane;γ-[(Phenylamino)propyl]trimethoxysilane;3-(<em>N</em>-Phenylaminopropyl)trimethoxysilane;KBM 573;(<em>N</em>-Phenyl-γ-aminopropyl)trimethoxysilane;SZ 6083;3-(Phenylaminopropyl)trimethoxysilane;Y 9669;<em>N</em>-[3-(Trimethoxysilyl)propyl]aniline;(3-Anilinopropyl)trimethoxysilane;Silquest Y 9669;A 9669;Y 6996;<em>N</em>-Phenyl-3-aminopropyltrimethoxysilane;U 141;Z 6883;SIP 6724.0;Phenylaminopropyltrimethoxysilane;CF 4083;γ-Anilinopropyltrimethoxysilane;γ-<em>N</em>-Phenylaminopropyltrimethoxysilane;XS 1075;X 12-1191;UP 908;HM 71",
    "duplicated_cas_no": "",
    "SMILES": "[Si](CCCNC1=CC=CC=C1)(OC)(OC)OC",
    "meta_data": {
        "InChI": "InChI=1S/C12H21NO3Si/c1-14-17(15-2,16-3)11-7-10-13-12-8-5-4-6-9-12/h4-6,8-9,13H,7,10-11H2,1-3H3",
        "InChIKey": null,
        "Canonical SMILES": "O(C)[Si](OC)(OC)CCCNC=1C=CC=CC1",
        "Molecular Formula": "C<sub>12</sub>H<sub>21</sub>NO<sub>3</sub>Si",
        "Molecular Mass": "255.39",
        "Boiling Point": "132-135 °C @ Press: 0.3 Torr",
        "Density": "1.070 g/cm³"
    }
}