{
    "cas_no": "53330-94-2",
    "key_name": "1-(1<em>H</em>-Indol-5-yl)ethanone",
    "cn_name": "5-乙酰吲哚;",
    "alternate_name": "Ethanone, 1-(1<em>H</em>-indol-5-yl)-;Ketone, indol-5-yl methyl;1-(1<em>H</em>-Indol-5-yl)ethanone;5-Acetylindole;5-Acetyl-1<em>H</em>-indole;1-(1<em>H</em>-Indol-5-yl)ethan-1-one",
    "duplicated_cas_no": "",
    "SMILES": "C(C)(=O)C=1C=C2C(=CC1)NC=C2",
    "meta_data": {
        "InChI": "InChI=1S/C10H9NO/c1-7(12)8-2-3-10-9(6-8)4-5-11-10/h2-6,11H,1H3",
        "InChIKey": null,
        "Canonical SMILES": "O=C(C=1C=CC=2NC=CC2C1)C",
        "Molecular Formula": "C<sub>10</sub>H<sub>9</sub>NO",
        "Molecular Mass": "159.18",
        "Melting Point": "94-95 °C"
    }
}