{
    "cas_no": "43038-37-5",
    "key_name": "2-Phenoxybenzoic acid hydrazide",
    "cn_name": null,
    "alternate_name": "Benzoic acid, 2-phenoxy-, hydrazide;2-Phenoxybenzoic acid hydrazide;2-Phenoxybenzhydrazide;2-Phenoxybenzohydrazide",
    "duplicated_cas_no": "",
    "SMILES": "O(C1=C(C(NN)=O)C=CC=C1)C2=CC=CC=C2",
    "meta_data": {
        "InChI": "InChI=1S/C13H12N2O2/c14-15-13(16)11-8-4-5-9-12(11)17-10-6-2-1-3-7-10/h1-9H,14H2,(H,15,16)",
        "InChIKey": null,
        "Canonical SMILES": "O=C(NN)C=1C=CC=CC1OC=2C=CC=CC2",
        "Molecular Formula": "C<sub>13</sub>H<sub>12</sub>N<sub>2</sub>O<sub>2</sub>",
        "Molecular Mass": "228.25",
        "Melting Point": "107-108 °C"
    }
}