{
    "cas_no": "627-21-4",
    "key_name": "2-Pentyne",
    "cn_name": null,
    "alternate_name": "2-Pentyne;1-Ethyl-2-methylacetylene;Ethylmethylacetylene;Methyl ethyl acetylene",
    "duplicated_cas_no": "",
    "SMILES": "C(CC)#CC",
    "meta_data": {
        "InChI": "InChI=1S/C5H8/c1-3-5-4-2/h3H2,1-2H3",
        "InChIKey": null,
        "Canonical SMILES": "C(#CCC)C",
        "Molecular Formula": "C<sub>5</sub>H<sub>8</sub>",
        "Molecular Mass": "68.12",
        "Boiling Point": "56.1 °C",
        "Melting Point": "-109.3 °C",
        "Density": "0.7115 g/cm³ @ Temp: 20 °C"
    }
}