{
    "cas_no": "1658-08-8",
    "key_name": "1,2,3,4,5,6,7,8-Octahydroacridine",
    "cn_name": null,
    "alternate_name": "Acridine, 1,2,3,4,5,6,7,8-octahydro-;1,2,3,4,5,6,7,8-Octahydroacridine;Octahydroacridine",
    "duplicated_cas_no": "",
    "SMILES": "C=12C(=NC3=C(C1)CCCC3)CCCC2",
    "meta_data": {
        "InChI": "InChI=1S/C13H17N/c1-3-7-12-10(5-1)9-11-6-2-4-8-13(11)14-12/h9H,1-8H2",
        "InChIKey": null,
        "Canonical SMILES": "N=1C2=C(C=C3C1CCCC3)CCCC2",
        "Molecular Formula": "C<sub>13</sub>H<sub>17</sub>N",
        "Molecular Mass": "187.28",
        "Boiling Point": "191-192 °C @ Press: 22 Torr",
        "Melting Point": "69 °C"
    }
}