{
    "cas_no": "15875-13-5",
    "key_name": "Desmorapid",
    "cn_name": "1,3,5-三(二甲基胺丙基)-1,3,5-六氢化三嗪;",
    "alternate_name": "1,3,5-Triazine-1,3,5(2<em>H</em>,4<em>H</em>,6<em>H</em>)-tripropanamine, <em>N</em><sup>1</sup>,<em>N</em><sup>1</sup>,<em>N</em><sup>3</sup>,<em>N</em><sup>3</sup>,<em>N</em><sup>5</sup>,<em>N</em><sup>5</sup>-hexamethyl-;<em>s</em>-Triazine, 1,3,5-tris[3-(dimethylamino)propyl]hexahydro-;1,3,5-Triazine-1,3,5(2<em>H</em>,4<em>H</em>,6<em>H</em>)-tripropanamine, <em>N</em>,<em>N</em>,<em>N</em>′,<em>N</em>′,<em>N</em>′′,<em>N</em>′′-hexamethyl-;<em>N</em><sup>1</sup>,<em>N</em><sup>1</sup>,<em>N</em><sup>3</sup>,<em>N</em><sup>3</sup>,<em>N</em><sup>5</sup>,<em>N</em><sup>5</sup>-Hexamethyl-1,3,5-triazine-1,3,5(2<em>H</em>,4<em>H</em>,6<em>H</em>)-tripropanamine;<em>N</em>,<em>N</em>′,<em>N</em>′′-Tris(dimethylaminopropyl)-<em>sym</em>-hexahydrotriazine;1,3,5-Tris(<em>N</em>,<em>N</em>-dimethyl-3-aminopropyl)-<em>s</em>-hexahydrotriazine;<em>N</em>,<em>N</em>′,<em>N</em>′′-Tris(dimethylaminopropyl)-<em>s</em>-hexahydrotriazine;1,3,5-Tris[3-(dimethylamino)propyl]-<em>s</em>-hexahydrotriazine;Polycat 41;1,3,5-Tris[3-(dimethylamino)propyl]hexahydro-1,3,5-triazine;Desmorapid;Tris(dimethylaminopropyl)-<em>s</em>-hexahydrotriazine;<em>N</em>,<em>N</em>′,<em>N</em>′′-Tris(3-dimethylaminopropyl)hexahydro-<em>s</em>-triazine;R 141;Polycat P 41;Kaolizer 14;Toyocat TRC;Niax C 41;Minico R 141;1,3,5-Tri(3-dimethylaminopropyl)hexahydro-1,3,5-triazine;NSC 28833;Lupragen N 600;N 600;2,4,6-Tris[(3-dimethylamino)propyl]hexahydrotriazine;Jeffcat TR 90;TR 90;Niax Catalyst C 41;PC 41;PC CAT NP 40;Tris(3-dimethylaminopropyl)hexahydro-<em>s</em>-triazine;Tegoamin 41;<em>N</em>,<em>N</em>,<em>N</em>′,<em>N</em>′,<em>N</em>′′,<em>N</em>′′-Hexamethyl-1,3,5-triazine-1,3,5(2<em>H</em>,4<em>H</em>,6<em>H</em>)-tripropanamine;Lupragen 600",
    "duplicated_cas_no": "880874-55-5",
    "SMILES": "C(CCN(C)C)N1CN(CCCN(C)C)CN(CCCN(C)C)C1",
    "meta_data": {
        "InChI": "InChI=1S/C18H42N6/c1-19(2)10-7-13-22-16-23(14-8-11-20(3)4)18-24(17-22)15-9-12-21(5)6/h7-18H2,1-6H3",
        "InChIKey": null,
        "Canonical SMILES": "N(C)(C)CCCN1CN(CN(C1)CCCN(C)C)CCCN(C)C",
        "Molecular Formula": "C<sub>18</sub>H<sub>42</sub>N<sub>6</sub>",
        "Molecular Mass": "342.57",
        "Boiling Point": "135-140 °C @ Press: 0.01 Torr",
        "Melting Point": "268-271 °C"
    }
}