{
    "cas_no": "25167-20-8",
    "key_name": "Tetrabromoethane",
    "cn_name": null,
    "alternate_name": "Ethane, tetrabromo-;Tetrabromoethane",
    "duplicated_cas_no": "",
    "SMILES": "",
    "meta_data": {
        "InChI": "",
        "InChIKey": null,
        "Canonical SMILES": "",
        "Molecular Formula": "C<sub>2</sub>H<sub>2</sub>Br<sub>4</sub>",
        "Molecular Mass": "",
        "Boiling Point": "112.5 °C @ Press: 18 Torr",
        "Density": "2.9529 g/cm³ @ Temp: 25 °C"
    }
}