{
    "cas_no": "2603-10-3",
    "key_name": "Carbamic acid, <em>N</em>-phenyl-, methyl ester",
    "cn_name": "N-苯基香豆甲酯;",
    "alternate_name": "Carbamic acid, <em>N</em>-phenyl-, methyl ester;Carbanilic acid, methyl ester;Carbamic acid, phenyl-, methyl ester;Methyl carbanilate;Methyl <em>N</em>-phenylurethane;Methyl phenylurethane;Methyl <em>N</em>-phenylcarbamate;Methyl phenylcarbamate;<em>N</em>-Phenyl-<em>O</em>-methylurethane;Phenylcarbamic acid methyl ester;Methanol carbanilate;<em>N</em>-(Methoxycarbonyl)aniline;<em>N</em>-Phenylcarbamic acid methyl ester;<em>O</em>-Methyl <em>N</em>-phenylcarbamate;NSC 36208",
    "duplicated_cas_no": "",
    "SMILES": "N(C(OC)=O)C1=CC=CC=C1",
    "meta_data": {
        "InChI": "InChI=1S/C8H9NO2/c1-11-8(10)9-7-5-3-2-4-6-7/h2-6H,1H3,(H,9,10)",
        "InChIKey": null,
        "Canonical SMILES": "O=C(OC)NC=1C=CC=CC1",
        "Molecular Formula": "C<sub>8</sub>H<sub>9</sub>NO<sub>2</sub>",
        "Molecular Mass": "151.16",
        "Boiling Point": "102-107 °C @ Press: 3.5 Torr",
        "Melting Point": "47 °C"
    }
}