{
    "cas_no": "66073-54-9",
    "key_name": "2-Chloro-6-fluorobenzamide",
    "cn_name": "2-氯-6-氟苯甲酰胺;",
    "alternate_name": "Benzamide, 2-chloro-6-fluoro-;2-Chloro-6-fluorobenzamide;NSC 148353;2-Fluoro-6-chlorobenzamide",
    "duplicated_cas_no": "",
    "SMILES": "C(N)(=O)C1=C(Cl)C=CC=C1F",
    "meta_data": {
        "InChI": "InChI=1S/C7H5ClFNO/c8-4-2-1-3-5(9)6(4)7(10)11/h1-3H,(H2,10,11)",
        "InChIKey": null,
        "Canonical SMILES": "O=C(N)C=1C(F)=CC=CC1Cl",
        "Molecular Formula": "C<sub>7</sub>H<sub>5</sub>ClFNO",
        "Molecular Mass": "173.57",
        "Melting Point": "141-143 °C"
    }
}