{
    "cas_no": "6493-05-6",
    "key_name": "Pentoxifylline",
    "cn_name": "己酮可可碱;3,7-二氢-3,7-二甲基-1-(5-氧己基)-1H-嘌呤-2,6-二酮;",
    "alternate_name": "1<em>H</em>-Purine-2,6-dione, 3,7-dihydro-3,7-dimethyl-1-(5-oxohexyl)-;Theobromine, 1-(5-oxohexyl)-;3,7-Dihydro-3,7-dimethyl-1-(5-oxohexyl)-1<em>H</em>-purine-2,6-dione;1-(5-Oxohexyl)-3,7-dimethylxanthine;3,7-Dimethyl-1-(5-oxohexyl)xanthine;BL 191;Trental;Pentoxifylline;Dimethyloxohexylxanthine;1-(5-Oxohexyl)theobromine;3,7-Dimethyl-1-(5-oxohexyl)-1<em>H</em>,3<em>H</em>-purin-2,6-dione;Pentoxifyllin;Oxpentifylline;Torental;Agapurin Retard;Pentoxiphylline;PTX;Vazofirin;Azupentat;Rentylin;Durapental;NSC 637086;Agapurin;Vasotal;Pexal;EHT 0202;Polfilin;Pentoxyfarm;Pentoxifilline;3,7-Dimethyl-1-(5-oxohexyl)-1<em>H</em>-purine-2,6(3<em>H</em>,7<em>H</em>)-dione;3,7-Dimethyl-1-(5-oxo-hexyl)-3,7-dihydro-purine-2,6-dione;3,7-Dimethyl-1-(5-oxohexyl)purine-2,6-dione;MeSH ID: D010431",
    "duplicated_cas_no": "495419-61-9",
    "SMILES": "O=C1C2=C(N(C)C(=O)N1CCCCC(C)=O)N=CN2C",
    "meta_data": {
        "InChI": "InChI=1S/C13H18N4O3/c1-9(18)6-4-5-7-17-12(19)10-11(14-8-15(10)2)16(3)13(17)20/h8H,4-7H2,1-3H3",
        "InChIKey": null,
        "Canonical SMILES": "O=C1C2=C(N=CN2C)N(C(=O)N1CCCCC(=O)C)C",
        "Molecular Formula": "C<sub>13</sub>H<sub>18</sub>N<sub>4</sub>O<sub>3</sub>",
        "Molecular Mass": "278.31",
        "Melting Point": "105 °C",
        "Density": "1.3 g/cm³"
    }
}