{
    "cas_no": "455-32-3",
    "key_name": "Benzoyl fluoride",
    "cn_name": "苯甲酰氟;",
    "alternate_name": "Benzoyl fluoride",
    "duplicated_cas_no": "",
    "SMILES": "C(F)(=O)C1=CC=CC=C1",
    "meta_data": {
        "InChI": "InChI=1S/C7H5FO/c8-7(9)6-4-2-1-3-5-6/h1-5H",
        "InChIKey": null,
        "Canonical SMILES": "O=C(F)C=1C=CC=CC1",
        "Molecular Formula": "C<sub>7</sub>H<sub>5</sub>FO",
        "Molecular Mass": "124.11",
        "Boiling Point": "154.5 °C",
        "Melting Point": "-28 °C",
        "Density": "1.155 g/cm³ @ Temp: 18 °C"
    }
}