{
    "cas_no": "88-61-9",
    "key_name": "2,4-Dimethylbenzenesulfonic acid",
    "cn_name": "2,4-二甲基苯磺酸;",
    "alternate_name": "Benzenesulfonic acid, 2,4-dimethyl-;2,4-Xylenesulfonic acid;2,4-Dimethylbenzenesulfonic acid;<em>m</em>-Xylenesulfonic acid;<em>m</em>-Xylene-4-sulfonic acid;SXA 60;2,4-Dimethylbenzene-1-sulfonic acid",
    "duplicated_cas_no": "124373-85-9",
    "SMILES": "S(=O)(=O)(O)C1=C(C)C=C(C)C=C1",
    "meta_data": {
        "InChI": "InChI=1S/C8H10O3S/c1-6-3-4-8(7(2)5-6)12(9,10)11/h3-5H,1-2H3,(H,9,10,11)",
        "InChIKey": null,
        "Canonical SMILES": "O=S(=O)(O)C1=CC=C(C=C1C)C",
        "Molecular Formula": "C<sub>8</sub>H<sub>10</sub>O<sub>3</sub>S",
        "Molecular Mass": "186.23",
        "Melting Point": "61-62 °C"
    }
}