{
    "cas_no": "66728-98-1",
    "key_name": "4-Bromo-1-chloroisoquinoline",
    "cn_name": "4-溴-1-氯异喹啉;",
    "alternate_name": "Isoquinoline, 4-bromo-1-chloro-;4-Bromo-1-chloroisoquinoline;1-Chloro-4-bromoisoquinoline",
    "duplicated_cas_no": "",
    "SMILES": "BrC=1C2=C(C(Cl)=NC1)C=CC=C2",
    "meta_data": {
        "InChI": "InChI=1S/C9H5BrClN/c10-8-5-12-9(11)7-4-2-1-3-6(7)8/h1-5H",
        "InChIKey": null,
        "Canonical SMILES": "ClC1=NC=C(Br)C=2C=CC=CC12",
        "Molecular Formula": "C<sub>9</sub>H<sub>5</sub>BrClN",
        "Molecular Mass": "242.50",
        "Melting Point": "97 °C (decomp)"
    }
}