{
    "cas_no": "100-09-4",
    "key_name": "4-Methoxybenzoic acid",
    "cn_name": "对甲氧基苯甲酸;4-甲氧基苯甲酸;",
    "alternate_name": "Benzoic acid, 4-methoxy-;<em>p</em>-Anisic acid;4-Methoxybenzoic acid;Draconic acid;<em>p</em>-Methoxybenzoic acid;4-Anisic acid;Anisic acid;NSC 32742;NSC 7926;Dermosoft 688",
    "duplicated_cas_no": "",
    "SMILES": "C(O)(=O)C1=CC=C(OC)C=C1",
    "meta_data": {
        "InChI": "InChI=1S/C8H8O3/c1-11-7-4-2-6(3-5-7)8(9)10/h2-5H,1H3,(H,9,10)",
        "InChIKey": null,
        "Canonical SMILES": "O=C(O)C1=CC=C(OC)C=C1",
        "Molecular Formula": "C<sub>8</sub>H<sub>8</sub>O<sub>3</sub>",
        "Molecular Mass": "152.15",
        "Boiling Point": "276.5 °C",
        "Melting Point": "185 °C"
    }
}