{
    "cas_no": "20717-86-6",
    "key_name": "Chlorotriisopropoxytitanium",
    "cn_name": "三异丙氧化氯钛;",
    "alternate_name": "Titanium, chlorotris(2-propanolato)-, (<em>T</em>-4)-;Titanium, chlorotriisopropoxy-;2-Propanol, titanium complex;(<em>T</em>-4)-Chlorotris(2-propanolato)titanium;Titanium triisopropoxide chloride;Triisopropoxytitanium chloride;Titanium chloride triisopropoxide;Tris(isopropyloxy)titanium chloride;Chlorotriisopropyl titanate;Chlorotriisopropoxytitanium;Monochlorotitanium triisopropoxide;Chlorotitanium tris(isopropoxide);Chlorotris(isopropanolato)titanium;Chlorotris(isopropoxy)titanium;Triisopropoxycyclochlorotitanium;Triisopropoxychlorotitanium;Chlorotitanium triisopropoxide;Titanium chlorotris(isopropoxide)",
    "duplicated_cas_no": "53168-77-7",
    "SMILES": "[Ti](OC(C)C)(OC(C)C)(OC(C)C)Cl",
    "meta_data": {
        "InChI": "InChI=1S/3C3H7O.ClH.Ti/c3*1-3(2)4;;/h3*3H,1-2H3;1H;/q3*-1;;+4/p-1",
        "InChIKey": null,
        "Canonical SMILES": "Cl[Ti](OC(C)C)(OC(C)C)OC(C)C",
        "Molecular Formula": "C<sub>9</sub>H<sub>21</sub>ClO<sub>3</sub>Ti",
        "Molecular Mass": "",
        "Boiling Point": "63-66 °C @ Press: 0.1 Torr",
        "Melting Point": "34-36 °C",
        "Density": "1.091 g/cm³"
    }
}