{
    "cas_no": "1647-16-1",
    "key_name": "1,9-Decadiene",
    "cn_name": "1,9-癸二烯;1,9-壬二烯;1,9-癸二烯;1,9-癸二烯,97%;",
    "alternate_name": "1,9-Decadiene;α,ω-Decadiene;NSC 102789;Deca-1,9-diene",
    "duplicated_cas_no": "143000-98-0",
    "SMILES": "C(CCCC=C)CCC=C",
    "meta_data": {
        "InChI": "InChI=1S/C10H18/c1-3-5-7-9-10-8-6-4-2/h3-4H,1-2,5-10H2",
        "InChIKey": null,
        "Canonical SMILES": "C=CCCCCCCC=C",
        "Molecular Formula": "C<sub>10</sub>H<sub>18</sub>",
        "Molecular Mass": "138.25",
        "Boiling Point": "167 °C",
        "Density": "0.7484 g/cm³ @ Temp: 25 °C"
    }
}