{
    "cas_no": "70639-78-0",
    "key_name": "6-Carboxycarbostyril",
    "cn_name": null,
    "alternate_name": "6-Quinolinecarboxylic acid, 1,2-dihydro-2-oxo-;6-Quinolinecarboxylic acid, 2-hydroxy-;1,2-Dihydro-2-oxo-6-quinolinecarboxylic acid;6-Carboxycarbostyril;2-Hydroxyquinoline-6-carboxylic acid;2-Oxo-1,2-dihydroquinoline-6-carboxylic acid",
    "duplicated_cas_no": "",
    "SMILES": "C(O)(=O)C=1C=C2C(NC(=O)C=C2)=CC1",
    "meta_data": {
        "InChI": "InChI=1S/C10H7NO3/c12-9-4-2-6-5-7(10(13)14)1-3-8(6)11-9/h1-5H,(H,11,12)(H,13,14)",
        "InChIKey": null,
        "Canonical SMILES": "O=C(O)C=1C=CC=2NC(=O)C=CC2C1",
        "Molecular Formula": "C<sub>10</sub>H<sub>7</sub>NO<sub>3</sub>",
        "Molecular Mass": "189.17",
        "Melting Point": "&gt;300 °C (decomp)"
    }
}