{
    "cas_no": "38452-47-0",
    "key_name": "1,2-Dichloro-4-(methylsulfonyl)benzene",
    "cn_name": null,
    "alternate_name": "Benzene, 1,2-dichloro-4-(methylsulfonyl)-;Sulfone, 3,4-dichlorophenyl methyl;1,2-Dichloro-4-(methylsulfonyl)benzene",
    "duplicated_cas_no": "",
    "SMILES": "S(C)(=O)(=O)C1=CC(Cl)=C(Cl)C=C1",
    "meta_data": {
        "InChI": "InChI=1S/C7H6Cl2O2S/c1-12(10,11)5-2-3-6(8)7(9)4-5/h2-4H,1H3",
        "InChIKey": null,
        "Canonical SMILES": "O=S(=O)(C1=CC=C(Cl)C(Cl)=C1)C",
        "Molecular Formula": "C<sub>7</sub>H<sub>6</sub>Cl<sub>2</sub>O<sub>2</sub>S",
        "Molecular Mass": "225.09",
        "Melting Point": "109 °C"
    }
}