{
    "cas_no": "239-01-0",
    "key_name": "Benzo[<em>a</em>]carbazole",
    "cn_name": null,
    "alternate_name": "11<em>H</em>-Benzo[<em>a</em>]carbazole;11-Azachrysofluorene;1,2-Benzocarbazole;Benzo[<em>a</em>]carbazole;NSC 403640;NSC 60421",
    "duplicated_cas_no": "",
    "SMILES": "C1=2C(C=3C(N1)=CC=CC3)=CC=C4C2C=CC=C4",
    "meta_data": {
        "InChI": "InChI=1S/C16H11N/c1-2-6-12-11(5-1)9-10-14-13-7-3-4-8-15(13)17-16(12)14/h1-10,17H",
        "InChIKey": null,
        "Canonical SMILES": "C=1C=CC2=C(C1)C=CC=3C=4C=CC=CC4NC23",
        "Molecular Formula": "C<sub>16</sub>H<sub>11</sub>N",
        "Molecular Mass": "217.27",
        "Melting Point": "228 °C"
    }
}