{
    "cas_no": "1597-78-0",
    "key_name": "21-Acetoxy-9-fluoro-11β-hydroxy-16α-methylpregna-1,4-diene-3,20-dione",
    "cn_name": null,
    "alternate_name": "Pregna-1,4-diene-3,20-dione, 21-(acetyloxy)-9-fluoro-11-hydroxy-16-methyl-, (11β,16α)-;Pregna-1,4-diene-3,20-dione, 9-fluoro-11β,21-dihydroxy-16α-methyl-, 21-acetate;Pregna-1,4-diene-3,20-dione, 9α-fluoro-11β,21-dihydroxy-16α-methyl-, 21-acetate;(11β,16α)-21-(Acetyloxy)-9-fluoro-11-hydroxy-16-methylpregna-1,4-diene-3,20-dione;9α-Fluoro-16α-methylpregna-1,4-diene-11β,21-diol-3,20-dione-21-acetate;21-Acetoxy-9-fluoro-11β-hydroxy-16α-methylpregna-1,4-diene-3,20-dione",
    "duplicated_cas_no": "",
    "SMILES": "F[C@@]12[C@]([C@]3([C@](C)(C[C@@H]1O)[C@@H](C(COC(C)=O)=O)[C@H](C)C3)[H])(CCC=4[C@]2(C)C=CC(=O)C4)[H]",
    "meta_data": {
        "InChI": "InChI=1S/C24H31FO5/c1-13-9-18-17-6-5-15-10-16(27)7-8-23(15,4)24(17,25)20(29)11-22(18,3)21(13)19(28)12-30-14(2)26/h7-8,10,13,17-18,20-21,29H,5-6,9,11-12H2,1-4H3/t13-,17+,18+,20+,21-,22+,23+,24+/m1/s1",
        "InChIKey": null,
        "Canonical SMILES": "O=C1C=CC2(C(=C1)CCC3C4CC(C)C(C(=O)COC(=O)C)C4(C)CC(O)C32F)C",
        "Molecular Formula": "C<sub>24</sub>H<sub>31</sub>FO<sub>5</sub>",
        "Molecular Mass": "418.50",
        "Melting Point": "254 °C"
    }
}