{
    "cas_no": "66416-72-6",
    "key_name": "4-Bromo-2-iodoaniline",
    "cn_name": "4-溴-2-碘苯胺;",
    "alternate_name": "Benzenamine, 4-bromo-2-iodo-;4-Bromo-2-iodobenzenamine;4-Bromo-2-iodoaniline;2-Iodo-4-bromoaniline;4-Bromo-2-iodophenylamine",
    "duplicated_cas_no": "",
    "SMILES": "IC1=C(N)C=CC(Br)=C1",
    "meta_data": {
        "InChI": "InChI=1S/C6H5BrIN/c7-4-1-2-6(9)5(8)3-4/h1-3H,9H2",
        "InChIKey": null,
        "Canonical SMILES": "BrC1=CC=C(N)C(I)=C1",
        "Molecular Formula": "C<sub>6</sub>H<sub>5</sub>BrIN",
        "Molecular Mass": "297.92",
        "Melting Point": "71 °C"
    }
}