{
    "cas_no": "42835-89-2",
    "key_name": "6-Fluoro-2-methyl-1,2,3,4-tetrahydroquinoline",
    "cn_name": "6-氟-1,2,3,4-四氢-2-甲基喹啉;",
    "alternate_name": "Quinoline, 6-fluoro-1,2,3,4-tetrahydro-2-methyl-;6-Fluoro-1,2,3,4-tetrahydro-2-methylquinoline;1,2,3,4-Tetrahydro-6-fluoro-2-methylquinoline;6-Fluoro-2-methyl-1,2,3,4-tetrahydroquinoline",
    "duplicated_cas_no": "",
    "SMILES": "FC=1C=C2C(NC(C)CC2)=CC1",
    "meta_data": {
        "InChI": "InChI=1S/C10H12FN/c1-7-2-3-8-6-9(11)4-5-10(8)12-7/h4-7,12H,2-3H2,1H3",
        "InChIKey": null,
        "Canonical SMILES": "FC1=CC=C2NC(C)CCC2=C1",
        "Molecular Formula": "C<sub>10</sub>H<sub>12</sub>FN",
        "Molecular Mass": "165.21",
        "Melting Point": "34-36 °C"
    }
}