{
    "cas_no": "5036-48-6",
    "key_name": "1<em>H</em>-Imidazole-1-propanamine",
    "cn_name": "1-(3-氨基丙基)咪唑;3-(1H-咪唑)-1-丙胺;",
    "alternate_name": "1<em>H</em>-Imidazole-1-propanamine;Imidazole, 1-(3-aminopropyl)-;1-(3-Aminopropyl)imidazole;3-(1-Imidazolyl)propylamine;<em>N</em>-(3-Aminopropyl)imidazole;3-(1<em>H</em>-Imidazol-1-yl)propylamine;PC CAT API;3-(1<em>H</em>-1-Imidazolyl)-1-propanamine;1-(3-Aminopropyl)-1<em>H</em>-imidazole;3-(Imidazol-1-yl)propylamine;Lupragen API;1-(3′-Aminopropyl)imidazole;<em>N</em>-[3-(1<em>H</em>-Imidazol-1-yl)propyl]amine;3-(1<em>H</em>-Imidazol-1-yl)-1-propylamine;3-Aminopropylimidazole;3-(1H-Imidazol-1-yl)propan-1-amine;3-(1<em>H</em>-Imidazol-1-yl)propanamine;1-(3-Aminopropanyl)imidazole;3-Imidazol-1-ylpropan-1-amine",
    "duplicated_cas_no": "",
    "SMILES": "C(CCN)N1C=CN=C1",
    "meta_data": {
        "InChI": "InChI=1S/C6H11N3/c7-2-1-4-9-5-3-8-6-9/h3,5-6H,1-2,4,7H2",
        "InChIKey": null,
        "Canonical SMILES": "N=1C=CN(C1)CCCN",
        "Molecular Formula": "C<sub>6</sub>H<sub>11</sub>N<sub>3</sub>",
        "Molecular Mass": "125.17",
        "Boiling Point": "98-100 °C @ Press: 0.2 Torr"
    }
}