{
    "cas_no": "38396-39-3",
    "key_name": "Bupivacaine",
    "cn_name": null,
    "alternate_name": "2-Piperidinecarboxamide, 1-butyl-<em>N</em>-(2,6-dimethylphenyl)-;2-Piperidinecarboxamide, 1-butyl-<em>N</em>-(2,6-dimethylphenyl)-, (±)-;1-Butyl-<em>N</em>-(2,6-dimethylphenyl)-2-piperidinecarboxamide;<span class=\"text-smallcaps\">DL</span>-Bupivacaine;(±)-Bupivacaine;Win 11318;1-Butyl-2′,6′-pipecoloxylidide;Bupivacaine;Carbostesin;Marcaine;Bupivan;Anekain;Bucain;SKY 0402;Exparel;RS-Bupivacaine;Bloccoc;MeSH ID: D002045",
    "duplicated_cas_no": "2180-92-9",
    "SMILES": "C(NC1=C(C)C=CC=C1C)(=O)C2N(CCCC)CCCC2",
    "meta_data": {
        "InChI": "InChI=1S/C18H28N2O/c1-4-5-12-20-13-7-6-11-16(20)18(21)19-17-14(2)9-8-10-15(17)3/h8-10,16H,4-7,11-13H2,1-3H3,(H,19,21)",
        "InChIKey": null,
        "Canonical SMILES": "O=C(NC=1C(=CC=CC1C)C)C2N(CCCC)CCCC2",
        "Molecular Formula": "C<sub>18</sub>H<sub>28</sub>N<sub>2</sub>O",
        "Molecular Mass": "288.43",
        "Melting Point": "107-108 °C"
    }
}