{
    "cas_no": "6093-71-6",
    "key_name": "Ethyl 7-hydroxycoumarin-3-carboxylate",
    "cn_name": null,
    "alternate_name": "2<em>H</em>-1-Benzopyran-3-carboxylic acid, 7-hydroxy-2-oxo-, ethyl ester;3-Carbethoxy-7-hydroxycoumarin;3-Carboxy-7-hydroxycoumarin ethyl ester;7-Hydroxy-3-(carboethoxy)coumarin;3-Carboethoxy-7-hydroxycoumarin;7-Hydroxy-3-carbethoxycoumarin;Ethyl 7-hydroxycoumarin-3-carboxylate;7-Hydroxy-2-oxo-2<em>H</em>-1-benzopyran-3-carboxylic acid ethyl ester;Ethyl 7-hydroxy-2-oxo-2<em>H</em>-chromene-3-carboxylate",
    "duplicated_cas_no": "1259293-98-5;2967644-52-4",
    "SMILES": "O=C1OC=2C(C=C1C(OCC)=O)=CC=C(O)C2",
    "meta_data": {
        "InChI": "InChI=1S/C12H10O5/c1-2-16-11(14)9-5-7-3-4-8(13)6-10(7)17-12(9)15/h3-6,13H,2H2,1H3",
        "InChIKey": null,
        "Canonical SMILES": "O=C1OC=2C=C(O)C=CC2C=C1C(=O)OCC",
        "Molecular Formula": "C<sub>12</sub>H<sub>10</sub>O<sub>5</sub>",
        "Molecular Mass": "234.20",
        "Melting Point": "165-170 °C"
    }
}