{
    "cas_no": "77-74-7",
    "key_name": "3-Methyl-3-pentanol",
    "cn_name": "3-甲基-3-戊醇;",
    "alternate_name": "3-Pentanol, 3-methyl-;3-Methyl-3-pentanol;3-Hydroxy-3-methylpentane;1-Ethyl-1-methyl-1-propanol;3-Methyl-3-pentyl alcohol;2-Ethyl-2-butanol;NSC 75837",
    "duplicated_cas_no": "",
    "SMILES": "C(CC)(CC)(C)O",
    "meta_data": {
        "InChI": "InChI=1S/C6H14O/c1-4-6(3,7)5-2/h7H,4-5H2,1-3H3",
        "InChIKey": null,
        "Canonical SMILES": "OC(C)(CC)CC",
        "Molecular Formula": "C<sub>6</sub>H<sub>14</sub>O",
        "Molecular Mass": "102.17",
        "Boiling Point": "122.4 °C",
        "Melting Point": "-23.6 °C",
        "Density": "0.8452 g/cm³ @ Temp: 0 °C"
    }
}