{
    "cas_no": "17241-40-6",
    "key_name": "2-Hydroxy-3-methylanthraquinone",
    "cn_name": null,
    "alternate_name": "9,10-Anthracenedione, 2-hydroxy-3-methyl-;Anthraquinone, 2-hydroxy-3-methyl-;2-Hydroxy-3-methyl-9,10-anthracenedione;2-Hydroxy-3-methylanthraquinone;3-Hydroxy-2-methylanthraquinone;2-Methyl-3-hydroxyanthraquinone",
    "duplicated_cas_no": "",
    "SMILES": "O=C1C=2C(C(=O)C=3C1=CC=CC3)=CC(O)=C(C)C2",
    "meta_data": {
        "InChI": "InChI=1S/C15H10O3/c1-8-6-11-12(7-13(8)16)15(18)10-5-3-2-4-9(10)14(11)17/h2-7,16H,1H3",
        "InChIKey": null,
        "Canonical SMILES": "O=C1C=2C=CC=CC2C(=O)C3=CC(=C(O)C=C13)C",
        "Molecular Formula": "C<sub>15</sub>H<sub>10</sub>O<sub>3</sub>",
        "Molecular Mass": "238.24",
        "Melting Point": "299 °C"
    }
}