{
    "cas_no": "527-53-7",
    "key_name": "1,2,3,5-Tetramethylbenzene",
    "cn_name": "1,2,3,5-四甲基苯;",
    "alternate_name": "Benzene, 1,2,3,5-tetramethyl-;1,2,3,5-Tetramethylbenzene;Isodurene;1,3,4,5-Tetramethylbenzene;NSC 8091",
    "duplicated_cas_no": "",
    "SMILES": "CC1=C(C)C=C(C)C=C1C",
    "meta_data": {
        "InChI": "InChI=1S/C10H14/c1-7-5-8(2)10(4)9(3)6-7/h5-6H,1-4H3",
        "InChIKey": null,
        "Canonical SMILES": "C=1C(=CC(=C(C1C)C)C)C",
        "Molecular Formula": "C<sub>10</sub>H<sub>14</sub>",
        "Molecular Mass": "134.22",
        "Boiling Point": "198 °C",
        "Melting Point": "-23.7 °C",
        "Density": "0.8906 g/cm³ @ Temp: 20 °C"
    }
}