{
    "cas_no": "1027-62-9",
    "key_name": "<em>N</em>,<em>N</em>,<em>N</em>′,<em>N</em>′-Tetramethyl-1,1-diphenylsilanediamine",
    "cn_name": "二(二甲氨基)二苯基硅;",
    "alternate_name": "Silanediamine, <em>N</em>,<em>N</em>,<em>N</em>′,<em>N</em>′-tetramethyl-1,1-diphenyl-;<em>N</em>,<em>N</em>,<em>N</em>′,<em>N</em>′-Tetramethyl-1,1-diphenylsilanediamine;Bis(dimethylamino)diphenylsilane;NSC 252155",
    "duplicated_cas_no": "",
    "SMILES": "[Si](N(C)C)(N(C)C)(C1=CC=CC=C1)C2=CC=CC=C2",
    "meta_data": {
        "InChI": "InChI=1S/C16H22N2Si/c1-17(2)19(18(3)4,15-11-7-5-8-12-15)16-13-9-6-10-14-16/h5-14H,1-4H3",
        "InChIKey": null,
        "Canonical SMILES": "C=1C=CC(=CC1)[Si](C=2C=CC=CC2)(N(C)C)N(C)C",
        "Molecular Formula": "C<sub>16</sub>H<sub>22</sub>N<sub>2</sub>Si",
        "Molecular Mass": "270.44",
        "Boiling Point": "139-140 °C @ Press: 2 Torr"
    }
}