{
    "cas_no": "71368-80-4",
    "key_name": "8-Bromo-1-methyl-6-phenyl-4<em>H</em>-[1,2,4]triazolo[4,3-<em>a</em>][1,4]benzodiazepine",
    "cn_name": null,
    "alternate_name": "4<em>H</em>-[1,2,4]Triazolo[4,3-<em>a</em>][1,4]benzodiazepine, 8-bromo-1-methyl-6-phenyl-;8-Bromo-1-methyl-6-phenyl-4<em>H</em>-[1,2,4]triazolo[4,3-<em>a</em>][1,4]benzodiazepine;8-Bromo-1-methyl-6-phenyl-4<em>H</em>-<em>s</em>-triazolo[4,3-<em>a</em>][1,4]benzodiazepine",
    "duplicated_cas_no": "",
    "SMILES": "CC=1N2C=3C(C(=NCC2=NN1)C4=CC=CC=C4)=CC(Br)=CC3",
    "meta_data": {
        "InChI": "InChI=1S/C17H13BrN4/c1-11-20-21-16-10-19-17(12-5-3-2-4-6-12)14-9-13(18)7-8-15(14)22(11)16/h2-9H,10H2,1H3",
        "InChIKey": null,
        "Canonical SMILES": "BrC=1C=CC2=C(C1)C(=NCC3=NN=C(N32)C)C=4C=CC=CC4",
        "Molecular Formula": "C<sub>17</sub>H<sub>13</sub>BrN<sub>4</sub>",
        "Molecular Mass": "353.22",
        "Melting Point": "272.0-275 °C"
    }
}