{
    "cas_no": "6745-75-1",
    "key_name": "4-Methoxy-2,5-dimethylbenzaldehyde",
    "cn_name": "2,5-二甲基对茴香醛;",
    "alternate_name": "Benzaldehyde, 4-methoxy-2,5-dimethyl-;<em>p</em>-Anisaldehyde, 2,5-dimethyl-;4-Methoxy-2,5-dimethylbenzaldehyde;4-Methoxyisoxylaldehyde;2,5-Dimethylanisaldehyde;2,5-Dimethyl-4-methoxybenzaldehyde",
    "duplicated_cas_no": "",
    "SMILES": "C(=O)C1=C(C)C=C(OC)C(C)=C1",
    "meta_data": {
        "InChI": "InChI=1S/C10H12O2/c1-7-5-10(12-3)8(2)4-9(7)6-11/h4-6H,1-3H3",
        "InChIKey": null,
        "Canonical SMILES": "O=CC1=CC(=C(OC)C=C1C)C",
        "Molecular Formula": "C<sub>10</sub>H<sub>12</sub>O<sub>2</sub>",
        "Molecular Mass": "164.20",
        "Boiling Point": "147-149 °C @ Press: 12 Torr",
        "Melting Point": "34 °C"
    }
}