{
    "cas_no": "866-23-9",
    "key_name": "Diethyl <em>P</em>-(trichloromethyl)phosphonate",
    "cn_name": "三氯甲基膦酸二乙酯;",
    "alternate_name": "Phosphonic acid, <em>P</em>-(trichloromethyl)-, diethyl ester;Phosphonic acid, (trichloromethyl)-, diethyl ester;Diethyl <em>P</em>-(trichloromethyl)phosphonate;Ro 3-0658;Diethyl (trichloromethyl)phosphonate;Diethyl trichloromethanephosphonate;NSC 46567;1-[Ethoxy(trichloromethyl)phosphoryl]oxyethane",
    "duplicated_cas_no": "",
    "SMILES": "P(C(Cl)(Cl)Cl)(OCC)(OCC)=O",
    "meta_data": {
        "InChI": "InChI=1S/C5H10Cl3O3P/c1-3-10-12(9,11-4-2)5(6,7)8/h3-4H2,1-2H3",
        "InChIKey": null,
        "Canonical SMILES": "O=P(OCC)(OCC)C(Cl)(Cl)Cl",
        "Molecular Formula": "C<sub>5</sub>H<sub>10</sub>Cl<sub>3</sub>O<sub>3</sub>P",
        "Molecular Mass": "255.46",
        "Boiling Point": "122-123 °C @ Press: 12 Torr",
        "Density": "1.3664 g/cm³ @ Temp: 14 °C"
    }
}