{
    "cas_no": "30707-68-7",
    "key_name": "1-(2,4,6-Trichlorophenyl)-3-(2-chloro-5-nitroanilino)-5-pyrazolinone",
    "cn_name": "1-(2\",4\",6\"-三氯苯基)-3-(2\"-氯-5\"-硝基苯胺基)-5-吡唑酮;",
    "alternate_name": "3<em>H</em>-Pyrazol-3-one, 5-[(2-chloro-5-nitrophenyl)amino]-2,4-dihydro-2-(2,4,6-trichlorophenyl)-;2-Pyrazolin-5-one, 3-(2-chloro-5-nitroanilino)-1-(2,4,6-trichlorophenyl)-;5-[(2-Chloro-5-nitrophenyl)amino]-2,4-dihydro-2-(2,4,6-trichlorophenyl)-3<em>H</em>-pyrazol-3-one;3-(2-Chloro-5-nitroanilino)-1-(2,4,6-trichlorophenyl)pyrazolone;1-(2,4,6-Trichlorophenyl)-3-(2-chloro-5-nitroanilino)-5-pyrazolinone;1-(2′,4′,6′-Trichlorophenyl)-3-(2′-chloro-5′-nitroanilino)-5-pyrazolone",
    "duplicated_cas_no": "",
    "SMILES": "ClC1=C(C(Cl)=CC(Cl)=C1)N2N=C(NC3=CC(N(=O)=O)=CC=C3Cl)CC2=O",
    "meta_data": {
        "InChI": "InChI=1S/C15H8Cl4N4O3/c16-7-3-10(18)15(11(19)4-7)22-14(24)6-13(21-22)20-12-5-8(23(25)26)1-2-9(12)17/h1-5H,6H2,(H,20,21)",
        "InChIKey": null,
        "Canonical SMILES": "O=C1N(N=C(NC2=CC(=CC=C2Cl)N(=O)=O)C1)C=3C(Cl)=CC(Cl)=CC3Cl",
        "Molecular Formula": "C<sub>15</sub>H<sub>8</sub>Cl<sub>4</sub>N<sub>4</sub>O<sub>3</sub>",
        "Molecular Mass": "434.06",
        "Melting Point": "274-278 °C"
    }
}