{
    "cas_no": "35963-37-2",
    "key_name": "Inotodiol",
    "cn_name": null,
    "alternate_name": "Lanosta-8,24-diene-3,22-diol, (3β,22<em>R</em>)-;Inotodiol;Lanosta-8,24-diene-3β,22-diol;(3β,22<em>R</em>)-Lanosta-8,24-diene-3,22-diol",
    "duplicated_cas_no": "24041-50-7;2761146-37-4",
    "SMILES": "C[C@@]12C3=C([C@@]4(C)[C@](C)(CC3)[C@@]([C@@H]([C@@H](CC=C(C)C)O)C)(CC4)[H])CC[C@]1(C(C)(C)[C@@H](O)CC2)[H]",
    "meta_data": {
        "InChI": "InChI=1S/C30H50O2/c1-19(2)9-11-24(31)20(3)21-13-17-30(8)23-10-12-25-27(4,5)26(32)15-16-28(25,6)22(23)14-18-29(21,30)7/h9,20-21,24-26,31-32H,10-18H2,1-8H3/t20-,21+,24+,25-,26-,28+,29+,30-/m0/s1",
        "InChIKey": null,
        "Canonical SMILES": "OC(CC=C(C)C)C(C)C1CCC2(C3=C(CCC12C)C4(C)CCC(O)C(C)(C)C4CC3)C",
        "Molecular Formula": "C<sub>30</sub>H<sub>50</sub>O<sub>2</sub>",
        "Molecular Mass": "442.72",
        "Melting Point": "191-193 °C"
    }
}