{
    "cas_no": "6647-96-7",
    "key_name": "4-Iodo-1,5-dimethyl-1<em>H</em>-pyrazole",
    "cn_name": null,
    "alternate_name": "1<em>H</em>-Pyrazole, 4-iodo-1,5-dimethyl-;Pyrazole, 4-iodo-1,5-dimethyl-;4-Iodo-1,5-dimethyl-1<em>H</em>-pyrazole;4-Iodo-1,5-dimethylpyrazole",
    "duplicated_cas_no": "",
    "SMILES": "CC1=C(I)C=NN1C",
    "meta_data": {
        "InChI": "InChI=1S/C5H7IN2/c1-4-5(6)3-7-8(4)2/h3H,1-2H3",
        "InChIKey": null,
        "Canonical SMILES": "IC=1C=NN(C1C)C",
        "Molecular Formula": "C<sub>5</sub>H<sub>7</sub>IN<sub>2</sub>",
        "Molecular Mass": "222.03",
        "Melting Point": "113-113.5 °C"
    }
}