{
    "cas_no": "577-62-8",
    "key_name": "Benzoic acid, 2-(trifluoromethyl)-, ethyl ester",
    "cn_name": "2-(三氟甲基)苯甲酸乙酯;",
    "alternate_name": "Benzoic acid, 2-(trifluoromethyl)-, ethyl ester;<em>o</em>-Toluic acid, α,α,α-trifluoro-, ethyl ester;Ethyl <em>o</em>-(trifluoromethyl)benzoate;Ethyl 2-(trifluoromethyl)benzoate;2-Trifluoromethylbenzoic acid ethyl ester",
    "duplicated_cas_no": "",
    "SMILES": "C(OCC)(=O)C1=C(C(F)(F)F)C=CC=C1",
    "meta_data": {
        "InChI": "InChI=1S/C10H9F3O2/c1-2-15-9(14)7-5-3-4-6-8(7)10(11,12)13/h3-6H,2H2,1H3",
        "InChIKey": null,
        "Canonical SMILES": "O=C(OCC)C=1C=CC=CC1C(F)(F)F",
        "Molecular Formula": "C<sub>10</sub>H<sub>9</sub>F<sub>3</sub>O<sub>2</sub>",
        "Molecular Mass": "218.17",
        "Boiling Point": "90-91 °C @ Press: 10 Torr"
    }
}