{
    "cas_no": "55755-16-3",
    "key_name": "2-Methylphenethylamine",
    "cn_name": "2-甲基苯乙胺;邻甲基苯乙胺;",
    "alternate_name": "Benzeneethanamine, 2-methyl-;2-Methylbenzeneethanamine;2-Methylphenethylamine;2-(2-Methylphenyl)ethylamine;2-Methylphenylethylamine;(2-<em>o</em>-Tolylethyl)amine;2-(2-Methylphenyl)ethanamine;2-(<em>o</em>-Tolyl)ethanamine;2-(2-Methylphenyl)ethan-1-amine",
    "duplicated_cas_no": "",
    "SMILES": "C(CN)C1=C(C)C=CC=C1",
    "meta_data": {
        "InChI": "InChI=1S/C9H13N/c1-8-4-2-3-5-9(8)6-7-10/h2-5H,6-7,10H2,1H3",
        "InChIKey": null,
        "Canonical SMILES": "NCCC=1C=CC=CC1C",
        "Molecular Formula": "C<sub>9</sub>H<sub>13</sub>N",
        "Molecular Mass": "135.21",
        "Boiling Point": "227 °C @ Press: 758 Torr"
    }
}