{
    "cas_no": "51762-67-5",
    "key_name": "3-Nitrophthalonitrile",
    "cn_name": "3-硝基邻苯二甲腈;3-硝基邻苯二腈;",
    "alternate_name": "1,2-Benzenedicarbonitrile, 3-nitro-;3-Nitro-1,2-benzenedicarbonitrile;2,3-Dicyanonitrobenzene;3-Nitrophthalonitrile;1,2-Dicyano-3-nitrobenzene;3-Nitrophthalodinitrile;3-Nitro-1,2-dicyanobenzene;3-Nitro-<em>o</em>-benzene dinitrile",
    "duplicated_cas_no": "",
    "SMILES": "C(#N)C1=C(N(=O)=O)C=CC=C1C#N",
    "meta_data": {
        "InChI": "InChI=1S/C8H3N3O2/c9-4-6-2-1-3-8(11(12)13)7(6)5-10/h1-3H",
        "InChIKey": null,
        "Canonical SMILES": "N#CC1=CC=CC(=C1C#N)N(=O)=O",
        "Molecular Formula": "C<sub>8</sub>H<sub>3</sub>N<sub>3</sub>O<sub>2</sub>",
        "Molecular Mass": "173.13",
        "Melting Point": "142-143 °C",
        "Density": "1.41 g/cm³"
    }
}