{
    "cas_no": "25323-89-1",
    "key_name": "Trichloroethane",
    "cn_name": null,
    "alternate_name": "Ethane, trichloro-;Trichloroethane",
    "duplicated_cas_no": "1299-89-4",
    "SMILES": "",
    "meta_data": {
        "InChI": "",
        "InChIKey": null,
        "Canonical SMILES": "",
        "Molecular Formula": "C<sub>2</sub>H<sub>3</sub>Cl<sub>3</sub>",
        "Molecular Mass": "",
        "Boiling Point": "113.8 °C @ Press: 760 Torr",
        "Melting Point": "-36.6 °C",
        "Density": "1.4416 g/cm³ @ Temp: 20 °C"
    }
}