{
    "cas_no": "563-52-0",
    "key_name": "3-Chloro-1-butene",
    "cn_name": "3-氯-1-丁烯;",
    "alternate_name": "1-Butene, 3-chloro-;3-Chloro-1-butene;γ-Chloro-α-butylene;α-Methallyl chloride;α-Methylallyl chloride;1-Methylallyl chloride;2-Chloro-3-butene;<em>dl</em>-α-Methallyl chloride;(±)-3-Chloro-1-butene;1-Methyl-1-chloro-2-propene;NSC 60192",
    "duplicated_cas_no": "5967-58-8",
    "SMILES": "C(C=C)(C)Cl",
    "meta_data": {
        "InChI": "InChI=1S/C4H7Cl/c1-3-4(2)5/h3-4H,1H2,2H3",
        "InChIKey": null,
        "Canonical SMILES": "ClC(C=C)C",
        "Molecular Formula": "C<sub>4</sub>H<sub>7</sub>Cl",
        "Molecular Mass": "90.55",
        "Boiling Point": "64.5 °C",
        "Density": "0.8978 g/cm³ @ Temp: 20 °C"
    }
}