{
    "cas_no": "13450-95-8",
    "key_name": "Tetraiodogermane",
    "cn_name": "碘化锗;四碘化锗;",
    "alternate_name": "Germane, tetraiodo-;Germanium iodide (GeI<sub>4</sub>);Tetraiodogermane;Germanium tetraiodide",
    "duplicated_cas_no": "",
    "SMILES": "[Ge](I)(I)(I)I",
    "meta_data": {
        "InChI": "InChI=1S/GeI4/c2-1(3,4)5",
        "InChIKey": null,
        "Canonical SMILES": "I[Ge](I)(I)I",
        "Molecular Formula": "GeI<sub>4</sub>",
        "Molecular Mass": "580.26",
        "Melting Point": "146 °C",
        "Density": "4.416 g/cm³ @ Temp: 25 °C"
    }
}