{
    "cas_no": "298-04-4",
    "key_name": "Disulfoton",
    "cn_name": "乙拌磷;敌死通;二硫代磷酸-O,O-二乙基-S-[2-(乙基硫代)乙基]酯(6CI,7CI,8CI,9CI);",
    "alternate_name": "Phosphorodithioic acid, <em>O</em>,<em>O</em>-diethyl <em>S</em>-[2-(ethylthio)ethyl] ester;M 74;Bayer 19639;Disulfoton;Di-Syston;Dithiodemeton;Dithiosystox;Solvirex;Frumin AL;Frumin G;<em>O</em>,<em>O</em>-Diethyl <em>S</em>-[2-(ethylthio)ethyl] phosphorodithioate;Thiodemeton;Frumin;Glebofos;Ethylthiometon B;VUAgT 1964;Di-Syston G;ENT-23437;Ethyl thiometon;VUAgT 1-4;<em>O</em>,<em>O</em>-Diethyl <em>S</em>-[2-(ethylthio)ethyl] dithiophosphate;Bay 19639;M 74 (pesticide);Ekatin TD;Dution;Di-Syston 8;MeSH ID: D004222",
    "duplicated_cas_no": "",
    "SMILES": "P(SCCSCC)(OCC)(OCC)=S",
    "meta_data": {
        "InChI": "InChI=1S/C8H19O2PS3/c1-4-9-11(12,10-5-2)14-8-7-13-6-3/h4-8H2,1-3H3",
        "InChIKey": null,
        "Canonical SMILES": "S=P(OCC)(OCC)SCCSCC",
        "Molecular Formula": "C<sub>8</sub>H<sub>19</sub>O<sub>2</sub>PS<sub>3</sub>",
        "Molecular Mass": "274.40",
        "Boiling Point": "108 °C @ Press: 0.01 Torr",
        "Melting Point": "-25 °C",
        "Density": "1.14 g/cm³"
    }
}