{
    "cas_no": "2079-00-7",
    "key_name": "Blasticidin S",
    "cn_name": "灭瘟素、杀稻菌素;布拉叶斯;稻瘟散;",
    "alternate_name": "β-<span class=\"text-smallcaps\">D</span>-<em>erythro</em>-Hex-2-enopyranuronic acid, 4-[[(3<em>S</em>)-3-amino-5-[(aminoiminomethyl)methylamino]-1-oxopentyl]amino]-1-(4-amino-2-oxo-1(2<em>H</em>)-pyrimidinyl)-1,2,3,4-tetradeoxy-;Blasticidin S;<span class=\"text-smallcaps\">D</span>-<em>erythro</em>-Hex-2-enopyranuronic acid, 4-[3-amino-5-(1-methylguanidino)valeramido]-1-(4-amino-2-oxo-1(2<em>H</em>)-pyrimidinyl)-1,2,3,4-tetradeoxy-;4-[[(3<em>S</em>)-3-Amino-5-[(aminoiminomethyl)methylamino]-1-oxopentyl]amino]-1-(4-amino-2-oxo-1(2<em>H</em>)-pyrimidinyl)-1,2,3,4-tetradeoxy-β-<span class=\"text-smallcaps\">D</span>-<em>erythro</em>-hex-2-enopyranuronic acid;Bla-S;CID 258;Pubchem CID: 258",
    "duplicated_cas_no": "7562-21-2;11002-92-9;11028-10-7;12767-55-4;13184-51-5;885262-44-2;1135442-94-2",
    "SMILES": "O=C1N([C@@H]2O[C@H](C(O)=O)[C@@H](NC(C[C@H](CCN(C(=N)N)C)N)=O)C=C2)C=CC(N)=N1",
    "meta_data": {
        "InChI": "InChI=1S/C17H26N8O5/c1-24(16(20)21)6-4-9(18)8-12(26)22-10-2-3-13(30-14(10)15(27)28)25-7-5-11(19)23-17(25)29/h2-3,5,7,9-10,13-14H,4,6,8,18H2,1H3,(H3,20,21)(H,22,26)(H,27,28)(H2,19,23,29)/t9-,10-,13+,14-/m0/s1",
        "InChIKey": null,
        "Canonical SMILES": "O=C1N=C(N)C=CN1C2OC(C(=O)O)C(C=C2)NC(=O)CC(N)CCN(C(=N)N)C",
        "Molecular Formula": "C<sub>17</sub>H<sub>26</sub>N<sub>8</sub>O<sub>5</sub>",
        "Molecular Mass": "422.44",
        "Melting Point": "235-236 °C (decomp)"
    }
}