{
    "cas_no": "100306-34-1",
    "key_name": "(-)-3-Chloro-1-phenyl-1-propanol",
    "cn_name": "(S)-(-)-3-氯-1-苯基-1-丙醇;左旋-3-氯苯丙醇;",
    "alternate_name": "Benzenemethanol, α-(2-chloroethyl)-, (α<em>S</em>)-;Benzenemethanol, α-(2-chloroethyl)-, (<em>S</em>)-;(α<em>S</em>)-α-(2-Chloroethyl)benzenemethanol;(<em>S</em>)-3-Chloro-1-phenyl-1-propanol;(<em>S</em>)-(-)-3-Chloro-1-phenyl-1-propanol;(<em>S</em>)-3-Chloro-1-phenyl-propanol;(-)-3-Chloro-1-phenyl-1-propanol;(<em>S</em>)-1-Phenyl-3-chloro-1-propanol;(1S)-3-Chloro-1-phenylpropan-1-ol",
    "duplicated_cas_no": "",
    "SMILES": "[C@@H](CCCl)(O)C1=CC=CC=C1",
    "meta_data": {
        "InChI": "InChI=1S/C9H11ClO/c10-7-6-9(11)8-4-2-1-3-5-8/h1-5,9,11H,6-7H2/t9-/m0/s1",
        "InChIKey": null,
        "Canonical SMILES": "ClCCC(O)C=1C=CC=CC1",
        "Molecular Formula": "C<sub>9</sub>H<sub>11</sub>ClO",
        "Molecular Mass": "170.64",
        "Melting Point": "56-57 °C"
    }
}