{
    "cas_no": "216393-66-7",
    "key_name": "1,2,5-Trichloro-3-iodobenzene",
    "cn_name": "1-碘-2,3,5-三氯苯;",
    "alternate_name": "Benzene, 1,2,5-trichloro-3-iodo-;1,2,5-Trichloro-3-iodobenzene",
    "duplicated_cas_no": "",
    "SMILES": "ClC1=C(Cl)C=C(Cl)C=C1I",
    "meta_data": {
        "InChI": "InChI=1S/C6H2Cl3I/c7-3-1-4(8)6(9)5(10)2-3/h1-2H",
        "InChIKey": null,
        "Canonical SMILES": "ClC=1C=C(Cl)C(Cl)=C(I)C1",
        "Molecular Formula": "C<sub>6</sub>H<sub>2</sub>Cl<sub>3</sub>I",
        "Molecular Mass": "307.34",
        "Melting Point": "56 °C"
    }
}