{
    "cas_no": "885-70-1",
    "key_name": "5,11-Dihydro-6<em>H</em>-pyrido[2,3-<em>b</em>][1,4]benzodiazepin-6-one",
    "cn_name": null,
    "alternate_name": "6<em>H</em>-Pyrido[2,3-<em>b</em>][1,4]benzodiazepin-6-one, 5,11-dihydro-;6<em>H</em>-Pyrido[2,3-<em>b</em>][1,4]benzodiazepin-6-one, 1,5-dihydro-;5,11-Dihydro-6<em>H</em>-pyrido[2,3-<em>b</em>][1,4]benzodiazepin-6-one;LS 75",
    "duplicated_cas_no": "",
    "SMILES": "O=C1C=2C(NC=3C(N1)=CC=CN3)=CC=CC2",
    "meta_data": {
        "InChI": "InChI=1S/C12H9N3O/c16-12-8-4-1-2-5-9(8)14-11-10(15-12)6-3-7-13-11/h1-7H,(H,13,14)(H,15,16)",
        "InChIKey": null,
        "Canonical SMILES": "O=C1NC2=CC=CN=C2NC=3C=CC=CC13",
        "Molecular Formula": "C<sub>12</sub>H<sub>9</sub>N<sub>3</sub>O",
        "Molecular Mass": "211.22",
        "Melting Point": "283-285 °C"
    }
}