{
    "cas_no": "19883-41-1",
    "key_name": "<span class=\"text-smallcaps\">D</span>-Phenylglycine methyl ester hydrochloride",
    "cn_name": "D-苯甘氨酸甲酯盐酸盐;",
    "alternate_name": "Benzeneacetic acid, α-amino-, methyl ester, hydrochloride (1:1), (α<em>R</em>)-;Glycine, 2-phenyl-, methyl ester, hydrochloride, <span class=\"text-smallcaps\">D</span>-;Benzeneacetic acid, α-amino-, methyl ester, hydrochloride, (<em>R</em>)-;Benzeneacetic acid, α-amino-, methyl ester, hydrochloride, (α<em>R</em>)-;Methyl <span class=\"text-smallcaps\">D</span>-phenylglycinate hydrochloride;<span class=\"text-smallcaps\">D</span>-Phenylglycine methyl ester hydrochloride;<span class=\"text-smallcaps\">D</span>-α-Aminophenylacetic acid methyl ester hydrochloride;Methyl <span class=\"text-smallcaps\">D</span>-α-phenylglycine hydrochloride;Methyl (<em>R</em>)-phenylglycinate hydrochloride;(<em>R</em>)-Phenylglycine methyl ester hydrochloride;Methyl <span class=\"text-smallcaps\">D</span>-α-phenylglycinate hydrochloride;(<em>R</em>)-(-)-2-Phenylglycine methyl ester hydrochloride;((<em>R</em>)-2-Methoxy-2-oxo-1-phenylethyl)ammonium chloride;(<em>R</em>)-Methyl 2-amino-2-phenylacetate hydrochloride;Methyl (<em>R</em>)-amino(phenyl)acetate hydrochloride;(R)-Methyl 2-amino-2-phenylacetate hydrochloride;(<em>R</em>)-2-Phenylglycine methyl ester hydrochloride;Methyl (R)-2-amino-2-phenylacetate hydrochloride",
    "duplicated_cas_no": "40860-96-6",
    "SMILES": "[C@@H](C(OC)=O)(N)C1=CC=CC=C1.Cl",
    "meta_data": {
        "InChI": "InChI=1S/C9H11NO2.ClH/c1-12-9(11)8(10)7-5-3-2-4-6-7;/h2-6,8H,10H2,1H3;1H/t8-;/m1./s1",
        "InChIKey": null,
        "Canonical SMILES": "Cl.O=C(OC)C(N)C=1C=CC=CC1",
        "Molecular Formula": "C<sub>9</sub>H<sub>11</sub>NO<sub>2</sub>.ClH",
        "Molecular Mass": "",
        "Melting Point": "198-201 °C"
    }
}