{
    "cas_no": "1120-25-8",
    "key_name": "Methyl palmitoleate",
    "cn_name": null,
    "alternate_name": "9-Hexadecenoic acid, methyl ester, (9<em>Z</em>)-;9-Hexadecenoic acid, methyl ester, (<em>Z</em>)-;Palmitoleic acid methyl ester;Methyl palmitoleate;Methyl palmitoleinate;Methyl <em>cis</em>-hexadec-9-enoate;Methyl (<em>Z</em>)-9-hexadecenoate;Methyl (9<em>Z</em>)-hexadecenoate;Methyl Z-9-hexadecanoic acid;Methyl cis-9-hexadecenoate;(<em>Z</em>)-9-Hexadecenoic acid, methyl ester",
    "duplicated_cas_no": "",
    "SMILES": "C(CCC/C=C\\CCCCCC)CCCC(OC)=O",
    "meta_data": {
        "InChI": "InChI=1S/C17H32O2/c1-3-4-5-6-7-8-9-10-11-12-13-14-15-16-17(18)19-2/h8-9H,3-7,10-16H2,1-2H3/b9-8-",
        "InChIKey": null,
        "Canonical SMILES": "O=C(OC)CCCCCCCC=CCCCCCC",
        "Molecular Formula": "C<sub>17</sub>H<sub>32</sub>O<sub>2</sub>",
        "Molecular Mass": "268.43",
        "Melting Point": "33.9 °C",
        "Density": "0.88239 g/cm³ @ Temp: 15 °C"
    }
}