{
    "cas_no": "98475-07-1",
    "key_name": "Benzoic acid, 2-(bromomethyl)-3-nitro-, methyl ester",
    "cn_name": "2-溴甲基-3-硝基苯甲酸甲酯;",
    "alternate_name": "Benzoic acid, 2-(bromomethyl)-3-nitro-, methyl ester;2-(Bromomethyl)-3-nitrobenzoic acid methyl ester;Methyl 2-(bromomethyl)-3-nitrobenzoate",
    "duplicated_cas_no": "",
    "SMILES": "C(Br)C1=C(C(OC)=O)C=CC=C1N(=O)=O",
    "meta_data": {
        "InChI": "InChI=1S/C9H8BrNO4/c1-15-9(12)6-3-2-4-8(11(13)14)7(6)5-10/h2-4H,5H2,1H3",
        "InChIKey": null,
        "Canonical SMILES": "O=C(OC)C1=CC=CC(=C1CBr)N(=O)=O",
        "Molecular Formula": "C<sub>9</sub>H<sub>8</sub>BrNO<sub>4</sub>",
        "Molecular Mass": "274.07",
        "Melting Point": "67-70 °C"
    }
}