{
    "cas_no": "2479-47-2",
    "key_name": "4,4′-(1-Methylethylidene)bis[benzenamine]",
    "cn_name": "2,2-双(4-氨基苯基)丙烷;",
    "alternate_name": "Benzenamine, 4,4′-(1-methylethylidene)bis-;Aniline, 4,4′-isopropylidenedi-;4,4′-(1-Methylethylidene)bis[benzenamine];2,2-Bis(<em>p</em>-aminophenyl)propane;2,2-Bis(4-aminophenyl)propane;4,4′-Isopropylidenedianiline;<em>p</em>,<em>p</em>′-Isopropylidenedianiline;2,2-Di(4-aminophenyl)propane;NSC 33421;4,4′-(1-Methylethylidene)dianiline;2,2′-Bis(4-aminophenyl)propane;4,4′-(Propane-2,2-diyl)dianiline",
    "duplicated_cas_no": "125920-20-9;1215772-58-9",
    "SMILES": "C(C)(C)(C1=CC=C(N)C=C1)C2=CC=C(N)C=C2",
    "meta_data": {
        "InChI": "InChI=1S/C15H18N2/c1-15(2,11-3-7-13(16)8-4-11)12-5-9-14(17)10-6-12/h3-10H,16-17H2,1-2H3",
        "InChIKey": null,
        "Canonical SMILES": "NC1=CC=C(C=C1)C(C2=CC=C(N)C=C2)(C)C",
        "Molecular Formula": "C<sub>15</sub>H<sub>18</sub>N<sub>2</sub>",
        "Molecular Mass": "226.32",
        "Boiling Point": "200-231 °C @ Press: 5.5 Torr",
        "Melting Point": "128.2-129.6 °C"
    }
}