{
    "cas_no": "1115-84-0",
    "key_name": "Vitamin U",
    "cn_name": "甲磺酸甲酯;甲磺酸甲酯;",
    "alternate_name": "Sulfonium, [(3<em>S</em>)-3-amino-3-carboxypropyl]dimethyl-, chloride (1:1);Sulfonium, (3-amino-3-carboxypropyl)dimethyl-, chloride, <span class=\"text-smallcaps\">L</span>-;Sulfonium, (3-amino-3-carboxypropyl)dimethyl-, chloride, (<em>S</em>)-;Vitamin U;Sulfonium, [(3<em>S</em>)-3-amino-3-carboxypropyl]dimethyl-, chloride;Methylmethioninesulfonium chloride;<span class=\"text-smallcaps\">L</span>-Methylmethionine sulfonium chloride;Cabagin;<em>S</em>-Methylmethionine sulfonium chloride;<span class=\"text-smallcaps\">L</span>-Methionine methylsulfonium chloride;<em>S</em>-Methylmethionine chloride;Ardesyl;Yucron;Epadyn U;Merastom;U-Vit;Cabagin U;Methionine-<em>S</em>-methyl sulfonium chloride;MMSC;Vitas U",
    "duplicated_cas_no": "1407-88-1;16680-57-2",
    "SMILES": "[C@H](CC[S+](C)C)(C(O)=O)N.[Cl-]",
    "meta_data": {
        "InChI": "InChI=1S/C6H13NO2S.ClH/c1-10(2)4-3-5(7)6(8)9;/h5H,3-4,7H2,1-2H3;1H/t5-;/m0./s1",
        "InChIKey": null,
        "Canonical SMILES": "[Cl-].O=C(O)C(N)CC[S+](C)C",
        "Molecular Formula": "C<sub>6</sub>H<sub>14</sub>NO<sub>2</sub>S.Cl",
        "Molecular Mass": "",
        "Melting Point": "134 °C (decomp)"
    }
}