{
    "cas_no": "492-41-1",
    "key_name": "(-)-Phenylpropanolamine",
    "cn_name": "去甲麻黄碱;",
    "alternate_name": "Benzenemethanol, α-[(1<em>S</em>)-1-aminoethyl]-, (α<em>R</em>)-;Benzenemethanol, α-(1-aminoethyl)-, [<em>R</em>-(<em>R</em>*,<em>S</em>*)]-;(α<em>R</em>)-α-[(1<em>S</em>)-1-Aminoethyl]benzenemethanol;<em>erythro</em>-(1<em>R</em>,2<em>S</em>)-Norephedrine;<em>l</em>-Norephedrine;(-)-Norephedrine;(1<em>R</em>,2<em>S</em>)-(-)-Norephedrine;Norephedrine, (-)-;(-)-<em>erythro</em>-2-Amino-2-methyl-1-phenylethanol;<em>l</em>-Phenylpropanolamine;(-)-Norephedrin;(1<em>R</em>,2<em>S</em>)-Norephedrine;(<em>R</em>,<em>S</em>)-(-)-Norephedrine;(1R,2S)-2-Amino-1-phenyl-1-propanol;(-)-Phenylpropanolamine;(1<em>R</em>,2<em>S</em>)-2-Amino-1-phenyl-1-propanol;NSC 17704;<span class=\"text-smallcaps\">L</span>-Norephedrine;(1<em>S</em>,2<em>R</em>)-2-Hydroxy-2-phenyl-1-methyl-1-aminoethane",
    "duplicated_cas_no": "",
    "SMILES": "[C@@H]([C@H](C)N)(O)C1=CC=CC=C1",
    "meta_data": {
        "InChI": "InChI=1S/C9H13NO/c1-7(10)9(11)8-5-3-2-4-6-8/h2-7,9,11H,10H2,1H3/t7-,9-/m0/s1",
        "InChIKey": null,
        "Canonical SMILES": "OC(C=1C=CC=CC1)C(N)C",
        "Molecular Formula": "C<sub>9</sub>H<sub>13</sub>NO",
        "Molecular Mass": "151.21",
        "Melting Point": "49-50 °C"
    }
}