{
    "cas_no": "166196-11-8",
    "key_name": "1-[(2,6-Difluorophenyl)methyl]-1<em>H</em>-1,2,3-triazole-4-carboxylic acid",
    "cn_name": null,
    "alternate_name": "1<em>H</em>-1,2,3-Triazole-4-carboxylic acid, 1-[(2,6-difluorophenyl)methyl]-;1-[(2,6-Difluorophenyl)methyl]-1<em>H</em>-1,2,3-triazole-4-carboxylic acid;CGP 47292;1-(2,6-Difluorobenzyl)-1<em>H</em>-1,2,3-triazole-4-carboxylic acid",
    "duplicated_cas_no": "",
    "SMILES": "C(N1C=C(C(O)=O)N=N1)C2=C(F)C=CC=C2F",
    "meta_data": {
        "InChI": "InChI=1S/C10H7F2N3O2/c11-7-2-1-3-8(12)6(7)4-15-5-9(10(16)17)13-14-15/h1-3,5H,4H2,(H,16,17)",
        "InChIKey": null,
        "Canonical SMILES": "O=C(O)C=1N=NN(C1)CC=2C(F)=CC=CC2F",
        "Molecular Formula": "C<sub>10</sub>H<sub>7</sub>F<sub>2</sub>N<sub>3</sub>O<sub>2</sub>",
        "Molecular Mass": "239.18",
        "Melting Point": "200-203 °C"
    }
}