{
    "cas_no": "2051-07-2",
    "key_name": "1,5-Bis(4-methoxyphenyl)-1,4-pentadien-3-one",
    "cn_name": "双(4-甲氧亚苄基)丙酮;",
    "alternate_name": "1,4-Pentadien-3-one, 1,5-bis(4-methoxyphenyl)-;1,4-Pentadien-3-one, 1,5-bis(<em>p</em>-methoxyphenyl)-;3-Pentadienone, 1,5-bis(<em>p</em>-methoxyphenyl)-;1,5-Bis(4-methoxyphenyl)-1,4-pentadien-3-one;Bis(4-methoxybenzylidene)acetone;1,5-Bis(<em>p</em>-methoxyphenyl)-1,4-pentadien-3-one;NSC 401196;NSC 677239",
    "duplicated_cas_no": "",
    "SMILES": "C(=CC(C=CC1=CC=C(OC)C=C1)=O)C2=CC=C(OC)C=C2",
    "meta_data": {
        "InChI": "InChI=1S/C19H18O3/c1-21-18-11-5-15(6-12-18)3-9-17(20)10-4-16-7-13-19(22-2)14-8-16/h3-14H,1-2H3",
        "InChIKey": null,
        "Canonical SMILES": "O=C(C=CC1=CC=C(OC)C=C1)C=CC2=CC=C(OC)C=C2",
        "Molecular Formula": "C<sub>19</sub>H<sub>18</sub>O<sub>3</sub>",
        "Molecular Mass": "294.34",
        "Melting Point": "130-132 °C"
    }
}