{
    "cas_no": "997-55-7",
    "key_name": "<em>N</em>-Acetyl-<span class=\"text-smallcaps\">L</span>-aspartic acid",
    "cn_name": "N-乙酰-L-天门冬氨酸;",
    "alternate_name": "<span class=\"text-smallcaps\">L</span>-Aspartic acid, <em>N</em>-acetyl-;Aspartic acid, <em>N</em>-acetyl-, <span class=\"text-smallcaps\">L</span>-;<em>N</em>-Acetyl-<span class=\"text-smallcaps\">L</span>-aspartic acid;<em>N</em>-Acetylaspartic acid;Acetylaspartic acid;Acetyl-<span class=\"text-smallcaps\">L</span>-aspartic acid;<em>N</em>-Acetyl-<em>S</em>-aspartic acid;<span class=\"text-smallcaps\">L</span>-<em>N</em>-Acetylaspartic acid;(2S)-2-Acetamidobutanedioic acid;(<em>S</em>)-2-Acetamidosuccinic acid",
    "duplicated_cas_no": "7558-96-5",
    "SMILES": "[C@@H](CC(O)=O)(NC(C)=O)C(O)=O",
    "meta_data": {
        "InChI": "InChI=1S/C6H9NO5/c1-3(8)7-4(6(11)12)2-5(9)10/h4H,2H2,1H3,(H,7,8)(H,9,10)(H,11,12)/t4-/m0/s1",
        "InChIKey": null,
        "Canonical SMILES": "O=C(O)CC(NC(=O)C)C(=O)O",
        "Molecular Formula": "C<sub>6</sub>H<sub>9</sub>NO<sub>5</sub>",
        "Molecular Mass": "175.14",
        "Melting Point": "150 °C"
    }
}