{
    "cas_no": "68353-24-2",
    "key_name": "1-Methyl-2-nonyl-4(1<em>H</em>)-quinolone",
    "cn_name": null,
    "alternate_name": "4(1<em>H</em>)-Quinolinone, 1-methyl-2-nonyl-;1-Methyl-2-nonyl-4(1<em>H</em>)-quinolinone;1-Methyl-2-nonyl-4-quinolinone;1-Methyl-2-<em>n</em>-nonyl-4(1<em>H</em>) quinolone;1-Methyl-2-nonyl-4(1<em>H</em>)-quinolone",
    "duplicated_cas_no": "",
    "SMILES": "CN1C=2C(C(=O)C=C1CCCCCCCCC)=CC=CC2",
    "meta_data": {
        "InChI": "InChI=1S/C19H27NO/c1-3-4-5-6-7-8-9-12-16-15-19(21)17-13-10-11-14-18(17)20(16)2/h10-11,13-15H,3-9,12H2,1-2H3",
        "InChIKey": null,
        "Canonical SMILES": "O=C1C=C(N(C=2C=CC=CC12)C)CCCCCCCCC",
        "Molecular Formula": "C<sub>19</sub>H<sub>27</sub>NO",
        "Molecular Mass": "285.42",
        "Melting Point": "69-70 °C"
    }
}