{
    "cas_no": "81-16-3",
    "key_name": "2-Amino-1-naphthalenesulfonic acid",
    "cn_name": "2-萘胺-1-磺酸;2-氨基-1-萘磺酸;吐氏酸;",
    "alternate_name": "1-Naphthalenesulfonic acid, 2-amino-;2-Amino-1-naphthalenesulfonic acid;2-Naphthylamine-1-sulfonic acid;Tobias acid;1-Sulfo-2-naphthylamine;NSC 5523;2-Aminonaphthalenesulfonic acid",
    "duplicated_cas_no": "",
    "SMILES": "S(=O)(=O)(O)C=1C2=C(C=CC1N)C=CC=C2",
    "meta_data": {
        "InChI": "InChI=1S/C10H9NO3S/c11-9-6-5-7-3-1-2-4-8(7)10(9)15(12,13)14/h1-6H,11H2,(H,12,13,14)",
        "InChIKey": null,
        "Canonical SMILES": "O=S(=O)(O)C1=C(N)C=CC=2C=CC=CC21",
        "Molecular Formula": "C<sub>10</sub>H<sub>9</sub>NO<sub>3</sub>S",
        "Molecular Mass": "223.25",
        "Melting Point": "180 °C"
    }
}