{
    "cas_no": "2382-43-6",
    "key_name": "(2-Hydroxypropyl)trimethylammonium chloride",
    "cn_name": "2-羟丙基三甲基氯化铵;氯化甲基胆碱;",
    "alternate_name": "1-Propanaminium, 2-hydroxy-<em>N</em>,<em>N</em>,<em>N</em>-trimethyl-, chloride (1:1);Ammonium, (2-hydroxypropyl)trimethyl-, chloride;1-Propanaminium, 2-hydroxy-<em>N</em>,<em>N</em>,<em>N</em>-trimethyl-, chloride;(2-Hydroxypropyl)trimethylammonium chloride;β-Methylcholine chloride;β-Hydroxypropyltrimethylammonium chloride",
    "duplicated_cas_no": "",
    "SMILES": "C([N+](C)(C)C)C(C)O.[Cl-]",
    "meta_data": {
        "InChI": "InChI=1S/C6H16NO.ClH/c1-6(8)5-7(2,3)4;/h6,8H,5H2,1-4H3;1H/q+1;/p-1",
        "InChIKey": null,
        "Canonical SMILES": "[Cl-].OC(C)C[N+](C)(C)C",
        "Molecular Formula": "C<sub>6</sub>H<sub>16</sub>NO.Cl",
        "Molecular Mass": "",
        "Melting Point": "165 °C"
    }
}