{
    "cas_no": "491-74-7",
    "key_name": "Iridin",
    "cn_name": null,
    "alternate_name": "4<em>H</em>-1-Benzopyran-4-one, 7-(β-<span class=\"text-smallcaps\">D</span>-glucopyranosyloxy)-5-hydroxy-3-(3-hydroxy-4,5-dimethoxyphenyl)-6-methoxy-;Iridin;7-(β-<span class=\"text-smallcaps\">D</span>-Glucopyranosyloxy)-5-hydroxy-3-(3-hydroxy-4,5-dimethoxyphenyl)-6-methoxy-4<em>H</em>-1-benzopyran-4-one;Irigenin 7-β-<span class=\"text-smallcaps\">D</span>-glucopyranoside;Irigenin 7-glucoside;Irigenin 7-<em>O</em>-β-<span class=\"text-smallcaps\">D</span>-glucopyranoside",
    "duplicated_cas_no": "30522-99-7;81227-47-6",
    "SMILES": "O=C1C=2C(=CC(O[C@@H]3O[C@H](CO)[C@@H](O)[C@H](O)[C@H]3O)=C(OC)C2O)OC=C1C4=CC(OC)=C(OC)C(O)=C4",
    "meta_data": {
        "InChI": "InChI=1S/C24H26O13/c1-32-13-5-9(4-11(26)22(13)33-2)10-8-35-12-6-14(23(34-3)19(29)16(12)17(10)27)36-24-21(31)20(30)18(28)15(7-25)37-24/h4-6,8,15,18,20-21,24-26,28-31H,7H2,1-3H3/t15-,18-,20+,21-,24-/m1/s1",
        "InChIKey": null,
        "Canonical SMILES": "O=C1C(=COC=2C=C(OC3OC(CO)C(O)C(O)C3O)C(OC)=C(O)C12)C=4C=C(O)C(OC)=C(OC)C4",
        "Molecular Formula": "C<sub>24</sub>H<sub>26</sub>O<sub>13</sub>",
        "Molecular Mass": "522.46",
        "Melting Point": "208 °C"
    }
}