{
    "cas_no": "6120-95-2",
    "key_name": "1-Phenylcyclopropanecarboxylic acid",
    "cn_name": null,
    "alternate_name": "Cyclopropanecarboxylic acid, 1-phenyl-;1-Phenylcyclopropanecarboxylic acid;1-Phenyl-1-cyclopropanecarboxylic acid;NSC 154619;1-Phenylcyclopropylcarboxylic acid",
    "duplicated_cas_no": "",
    "SMILES": "C(O)(=O)C1(CC1)C2=CC=CC=C2",
    "meta_data": {
        "InChI": "InChI=1S/C10H10O2/c11-9(12)10(6-7-10)8-4-2-1-3-5-8/h1-5H,6-7H2,(H,11,12)",
        "InChIKey": null,
        "Canonical SMILES": "O=C(O)C1(C=2C=CC=CC2)CC1",
        "Molecular Formula": "C<sub>10</sub>H<sub>10</sub>O<sub>2</sub>",
        "Molecular Mass": "162.19",
        "Melting Point": "84.8-86.1 °C"
    }
}