{
    "cas_no": "2761-77-5",
    "key_name": "Communic acid",
    "cn_name": null,
    "alternate_name": "1-Naphthalenecarboxylic acid, decahydro-1,4a-dimethyl-6-methylene-5-(3-methyl-2,4-pentadienyl)-, (1<em>S</em>,4a<em>R</em>,5<em>S</em>,8a<em>R</em>)-;Labda-8(20),12,14-trien-19-oic acid;1-Naphthalenecarboxylic acid, decahydro-1,4a-dimethyl-6-methylene-5-(3-methyl-2,4-pentadienyl)-, [1<em>S</em>-(1α,4aα,5α,8aβ)]-;(1<em>S</em>,4a<em>R</em>,5<em>S</em>,8a<em>R</em>)-Decahydro-1,4a-dimethyl-6-methylene-5-(3-methyl-2,4-pentadienyl)-1-naphthalenecarboxylic acid;Communic acid;(+)-Communic acid",
    "duplicated_cas_no": "",
    "SMILES": "C[C@@]12[C@]([C@](C(O)=O)(C)CCC1)(CCC(=C)[C@@H]2CC=C(C=C)C)[H]",
    "meta_data": {
        "InChI": "InChI=1S/C20H30O2/c1-6-14(2)8-10-16-15(3)9-11-17-19(16,4)12-7-13-20(17,5)18(21)22/h6,8,16-17H,1,3,7,9-13H2,2,4-5H3,(H,21,22)/t16-,17+,19+,20-/m0/s1",
        "InChIKey": null,
        "Canonical SMILES": "O=C(O)C1(C)CCCC2(C)C(C(=C)CCC12)CC=C(C=C)C",
        "Molecular Formula": "C<sub>20</sub>H<sub>30</sub>O<sub>2</sub>",
        "Molecular Mass": "302.45",
        "Melting Point": "121 °C"
    }
}