{
    "cas_no": "65-82-7",
    "key_name": "<em>N</em>-Acetyl-<span class=\"text-smallcaps\">L</span>-methionine",
    "cn_name": "N-乙酰-L-蛋氨酸;",
    "alternate_name": "<span class=\"text-smallcaps\">L</span>-Methionine, <em>N</em>-acetyl-;Methionine, <em>N</em>-acetyl-, <span class=\"text-smallcaps\">L</span>-;<em>N</em>-Acetyl-<span class=\"text-smallcaps\">L</span>-methionine;Acetylmethionine;Methionamine;<em>N</em>-Acetylmethionine;<span class=\"text-smallcaps\">L</span>-(<em>N</em>-Acetyl)methionine;Acetyl-<span class=\"text-smallcaps\">L</span>-methionine;Methionin;Thiomedon;(2S)-2-Acetamido-4-methylsulfanylbutanoic acid;(2S)-2-Acetamido-4-(methylsulfanyl)butanoic acid;(<em>S</em>)-2-Acetamido-4-(methylthio)butanoic acid",
    "duplicated_cas_no": "98672-82-3;10402-93-4",
    "SMILES": "[C@@H](NC(C)=O)(C(O)=O)CCSC",
    "meta_data": {
        "InChI": "InChI=1S/C7H13NO3S/c1-5(9)8-6(7(10)11)3-4-12-2/h6H,3-4H2,1-2H3,(H,8,9)(H,10,11)/t6-/m0/s1",
        "InChIKey": null,
        "Canonical SMILES": "O=C(O)C(NC(=O)C)CCSC",
        "Molecular Formula": "C<sub>7</sub>H<sub>13</sub>NO<sub>3</sub>S",
        "Molecular Mass": "191.25",
        "Boiling Point": "235 °C @ Press: 12 Torr",
        "Melting Point": "105.5 °C"
    }
}