{
    "cas_no": "1536-23-8",
    "key_name": "2,3,4,5,6-Pentafluorobenzophenone",
    "cn_name": "2,3,4,5,6-五氟苯甲酮;2,3,4,5,6-五氟苯甲酮;2,3,4,5,6-五氟苯并苯酮;2,3,4,5,6-五氟二苯甲酮;2,3,4,5,6-五;",
    "alternate_name": "Methanone, (2,3,4,5,6-pentafluorophenyl)phenyl-;Benzophenone, 2,3,4,5,6-pentafluoro-;Methanone, (pentafluorophenyl)phenyl-;(2,3,4,5,6-Pentafluorophenyl)phenylmethanone;2,3,4,5,6-Pentafluorobenzophenone;Benzoylpentafluorobenzene;(Perfluorophenyl)(phenyl)methanone;(Pentafluorophenyl)(phenyl)methanone",
    "duplicated_cas_no": "",
    "SMILES": "C(=O)(C1=C(F)C(F)=C(F)C(F)=C1F)C2=CC=CC=C2",
    "meta_data": {
        "InChI": "InChI=1S/C13H5F5O/c14-8-7(9(15)11(17)12(18)10(8)16)13(19)6-4-2-1-3-5-6/h1-5H",
        "InChIKey": null,
        "Canonical SMILES": "O=C(C=1C=CC=CC1)C=2C(F)=C(F)C(F)=C(F)C2F",
        "Molecular Formula": "C<sub>13</sub>H<sub>5</sub>F<sub>5</sub>O",
        "Molecular Mass": "272.17",
        "Boiling Point": "93 °C",
        "Melting Point": "37 °C"
    }
}