{
    "cas_no": "2491-38-5",
    "key_name": "2-Bromo-1-(4-hydroxyphenyl)ethanone",
    "cn_name": null,
    "alternate_name": "Ethanone, 2-bromo-1-(4-hydroxyphenyl)-;Acetophenone, 2-bromo-4′-hydroxy-;2-Bromo-1-(4-hydroxyphenyl)ethanone;2-Bromo-4′-hydroxyacetophenone;Busan 90;<em>p</em>-Hydroxyphenacyl bromide;4′-Hydroxy-2-bromoacetophenone;4-Hydroxyphenacyl bromide;α-Bromo-4′-hydroxyacetophenone;α-Bromo-<em>p</em>-hydroxyacetophenone;ω-Bromo-<em>p</em>-hydroxyacetophenone;1-(4-Hydroxyphenyl)-2-bromoethanone;Busan 1130;2-Bromo-1-(4-hydroxyphenyl)ethan-1-one;Butrol 1130",
    "duplicated_cas_no": "",
    "SMILES": "C(CBr)(=O)C1=CC=C(O)C=C1",
    "meta_data": {
        "InChI": "InChI=1S/C8H7BrO2/c9-5-8(11)6-1-3-7(10)4-2-6/h1-4,10H,5H2",
        "InChIKey": null,
        "Canonical SMILES": "O=C(C1=CC=C(O)C=C1)CBr",
        "Molecular Formula": "C<sub>8</sub>H<sub>7</sub>BrO<sub>2</sub>",
        "Molecular Mass": "215.04",
        "Melting Point": "130 °C"
    }
}