{
    "cas_no": "161172-51-6",
    "key_name": "2-[2-Propyl-3-[3-[2-ethyl-4-(4-fluorophenyl)-5-hydroxyphenoxy]propoxy]phenoxy]benzoic acid",
    "cn_name": null,
    "alternate_name": "Benzoic acid, 2-[3-[3-[(5-ethyl-4′-fluoro-2-hydroxy[1,1′-biphenyl]-4-yl)oxy]propoxy]-2-propylphenoxy]-;2-[3-[3-[(5-Ethyl-4′-fluoro-2-hydroxy[1,1′-biphenyl]-4-yl)oxy]propoxy]-2-propylphenoxy]benzoic acid;LY 293111;VML 295;2-[2-Propyl-3-[3-[2-ethyl-4-(4-fluorophenyl)-5-hydroxyphenoxy]propoxy]phenoxy]benzoic acid;Etalocib",
    "duplicated_cas_no": "",
    "SMILES": "O(C1=C(CCC)C(OCCCOC2=C(CC)C=C(C(O)=C2)C3=CC=C(F)C=C3)=CC=C1)C4=C(C(O)=O)C=CC=C4",
    "meta_data": {
        "InChI": "InChI=1S/C33H33FO6/c1-3-9-25-29(12-7-13-30(25)40-31-11-6-5-10-26(31)33(36)37)38-18-8-19-39-32-21-28(35)27(20-22(32)4-2)23-14-16-24(34)17-15-23/h5-7,10-17,20-21,35H,3-4,8-9,18-19H2,1-2H3,(H,36,37)",
        "InChIKey": null,
        "Canonical SMILES": "O=C(O)C=1C=CC=CC1OC2=CC=CC(OCCCOC=3C=C(O)C(=CC3CC)C=4C=CC(F)=CC4)=C2CCC",
        "Molecular Formula": "C<sub>33</sub>H<sub>33</sub>FO<sub>6</sub>",
        "Molecular Mass": "544.61",
        "Melting Point": "68-70 °C"
    }
}