{
    "cas_no": "2503-44-8",
    "key_name": "1-(3,4-Dihydroxyphenyl)-2-propanone",
    "cn_name": null,
    "alternate_name": "2-Propanone, 1-(3,4-dihydroxyphenyl)-;2-Propanone, (3,4-dihydroxyphenyl)-;1-(3,4-Dihydroxyphenyl)-2-propanone;3,4-Dihydroxyphenylacetone;1-(3′,4′-Dihydroxyphenyl)-2-propanone",
    "duplicated_cas_no": "",
    "SMILES": "C(C(C)=O)C1=CC(O)=C(O)C=C1",
    "meta_data": {
        "InChI": "InChI=1S/C9H10O3/c1-6(10)4-7-2-3-8(11)9(12)5-7/h2-3,5,11-12H,4H2,1H3",
        "InChIKey": null,
        "Canonical SMILES": "O=C(C)CC1=CC=C(O)C(O)=C1",
        "Molecular Formula": "C<sub>9</sub>H<sub>10</sub>O<sub>3</sub>",
        "Molecular Mass": "166.17",
        "Boiling Point": "170-173 °C @ Press: 0.3 Torr",
        "Melting Point": "-30 °C (decomp)"
    }
}