{
    "cas_no": "16577-52-9",
    "key_name": "Lithium octanoate",
    "cn_name": "辛酸锂;",
    "alternate_name": "Octanoic acid, lithium salt (1:1);Octanoic acid, lithium salt;Caprylic acid, lithium salt;Lithium octanoate;Lithium caprylate;Lithium octaoate;Lithium octoate;Liocat 15",
    "duplicated_cas_no": "",
    "SMILES": "C(CCCCC)CC(O)=O.[Li]",
    "meta_data": {
        "InChI": "InChI=1S/C8H16O2.Li/c1-2-3-4-5-6-7-8(9)10;/h2-7H2,1H3,(H,9,10);",
        "InChIKey": null,
        "Canonical SMILES": "[Li].O=C(O)CCCCCCC",
        "Molecular Formula": "C<sub>8</sub>H<sub>16</sub>O<sub>2</sub>.Li",
        "Molecular Mass": "",
        "Melting Point": "250-260 °C"
    }
}