{
    "cas_no": "9000-69-5",
    "key_name": "Pectin",
    "cn_name": null,
    "alternate_name": "Pectin;Colyer pectin;Methyl pectin;Methyl pectinate;Methoxypectin;Pectinic acid;Pectinate;Pectins;Marpee OM;Marpee NL;Genu Pectin L 200;Mexpectin XSS 100;LMNA/P 3450NA95;Unipectin;Cesapectin;MexPec 1400;Genu Pectin X 0905;D-D Slowset;Unipectine RS 150° SAG;Unipectine 3450NA95;Genu Pectin LM 104AS-FS;LM 12CG-Z;USP 100;Genu JMJ 100;Slendid 200;Splendid;H&amp;F Pectin Classic AF 701;AF 701;Pectin 1694;Genu Pectin LM 101AS;Genu Pectin LM 104AS;Genu Pectin LM 18CG-Z;Genu Pectin YM 100;Pectin JM 150JN;SM 478;Red Ribbon 3G;LM 104AS-FS;OF 305;Unipectine AMP 285;YM 115H;Slendid L 200;Classic AF 501;Unipectine 150RS150C;TIC Pretested Pre-hydrated 1694 Powder;Genu Pectin LM 85AS;Genu Pectin LM 105AS;VIS TOP D 2122;Beta-Pectin;Genu Pectin YM 150J;Unipectine AYD 358;Classic AM 201;Genu Beta Pectin;Genu Pectin LM 105S;E 440a;Genu Pectin A;BIG-J;AP 40;LM 102AS;Pepidol PEG;Pomosin LM 12CG-Z;Herbacel Citrus Fiber;HMP RS400;YM 15LJ;Genu pectin HM-USP-H;MexPec 1200;MexPec 1500;TIC 1200;TIC Pretested Pectin 1460 Powder;H&amp;F Pectin Classic CU 701;Pectin Classic CU 701;MCP;Genu Pectin;Unipectine SS 150;Unipectin AYD 30;VIS TOP D 2250;D 225;Fluka 7682;Sango-stop;Unipectine 903;Genu pectin LM5 CS;Genu pectin LM 12CG;Genu Pectin LM 104AS-J;Pomosin LM 12;OB 700;Unipectin OB 70;Pecto;Unipectine LM OF 300C;Unipectine RS ND;GelSite;Unipectine OF 463;Unipectine MRS 150;Amid CS 005;AS 511;PG 717CS;Genu Pectin DSS;OXPEC;Unipectine SS-ND;Pomelite Lv;E 440;PE 2006MB1;Genue LM 12CG;LM 104AS-J;LM 101AS-J;Beta BI-J;JMJ-J;Genu pHresh DF;LNSN 325;Neosoft P;Classic Cu 701;Genu Pectin BIG-J;Genu Pectin LM 18;Pectin D 210;Slendid 120;Genu Pectin 121J Slow Set;Genu Pectin 121J;Unipectine AYD 30T;Newgelin LP 4;YM 115LJ;Genu 8003;X 939-04X;Genu Pectin DD Slow Set J;Classic AF 701;Cargill SS 150;Cargill 805C;Cargill AYS 407C;Cargill LMSN 325;Cargill LMQS 400C;Cargill OF 445C;Cargill OF 327C;Cargill AYD 30T;P 8471;Milazzo BV 1098;LM-SN 325C;LM 106AS;EFS 10;Pectin Betapec RU 301;Pectin AS Confectionery-J;USP-HM;GENU pectin type AS Confectionery J;GENU AS Confectionery J;VIS-J-TF;Pectin DD Slow-Set-J;Genu Pectin LN 5CD-J;CF 010;OF 645C;OF 445C;Rhamnogalacturonan II;P 9135;Unipectine XPP 240;BetaPec RU 301;Slendid 100J;Aglupectin LA-S 20;Aglupectin LAS 20P;Genu Pectin LM-HC 25AS;MeSH ID: D010368",
    "duplicated_cas_no": "9005-88-3;9046-41-7;9047-18-1;220424-61-3;503591-24-0",
    "SMILES": "",
    "meta_data": {
        "InChI": "",
        "InChIKey": null,
        "Canonical SMILES": "",
        "Molecular Formula": "Unspecified",
        "Molecular Mass": "",
        "Melting Point": "174-180 °C (decomp)",
        "Density": "1.5098 g/cm³ (solid)"
    }
}