{
    "cas_no": "563-47-3",
    "key_name": "3-Chloro-2-methyl-1-propene",
    "cn_name": "3-氯-2-甲基丙烯;",
    "alternate_name": "1-Propene, 3-chloro-2-methyl-;Propene, 3-chloro-2-methyl-;3-Chloro-2-methyl-1-propene;γ-Chloroisobutylene;Isobutenyl chloride;Methallyl chloride;β-Methallyl chloride;2-Methyl-3-chloro-1-propene;1-Chloro-2-methyl-2-propene;2-Methylallyl chloride;2-Methyl-2-propenyl chloride;3-Chloro-2-methylpropene;Methylallyl chloride;2-Methallyl chloride;2-Methyl-3-chloropropene;2-(Chloromethyl)-1-propene;NSC 7303",
    "duplicated_cas_no": "",
    "SMILES": "C(CCl)(C)=C",
    "meta_data": {
        "InChI": "InChI=1S/C4H7Cl/c1-4(2)3-5/h1,3H2,2H3",
        "InChIKey": null,
        "Canonical SMILES": "ClCC(=C)C",
        "Molecular Formula": "C<sub>4</sub>H<sub>7</sub>Cl",
        "Molecular Mass": "90.55",
        "Boiling Point": "71-72 °C",
        "Melting Point": "&lt;-80 °C",
        "Density": "0.9165 g/cm³ @ Temp: 20 °C"
    }
}