{
    "cas_no": "4102-53-8",
    "key_name": "4-Iodo-2,6-dimethylbenzenamine",
    "cn_name": "4-碘-2,6-二甲基苯胺;",
    "alternate_name": "Benzenamine, 4-iodo-2,6-dimethyl-;2,6-Xylidine, 4-iodo-;4-Iodo-2,6-dimethylbenzenamine;2,6-Dimethyl-4-iodoaniline;4-Iodo-2,6-dimethylaniline;NSC 128900",
    "duplicated_cas_no": "",
    "SMILES": "NC1=C(C)C=C(I)C=C1C",
    "meta_data": {
        "InChI": "InChI=1S/C8H10IN/c1-5-3-7(9)4-6(2)8(5)10/h3-4H,10H2,1-2H3",
        "InChIKey": null,
        "Canonical SMILES": "IC=1C=C(C(N)=C(C1)C)C",
        "Molecular Formula": "C<sub>8</sub>H<sub>10</sub>IN",
        "Molecular Mass": "247.08",
        "Boiling Point": "120 °C @ Press: 0.998 Torr",
        "Melting Point": "52 °C"
    }
}