{
    "cas_no": "104222-34-6",
    "key_name": "5-Chloro-4-fluoro-2-nitrobenzenamine",
    "cn_name": "5-氯-4-氟-2-硝基苯胺;",
    "alternate_name": "Benzenamine, 5-chloro-4-fluoro-2-nitro-;5-Chloro-4-fluoro-2-nitrobenzenamine;3-Chloro-4-fluoro-6-nitroaniline;5-Chloro-4-fluoro-2-nitroaniline;2-Nitro-4-fluoro-5-chloroaniline",
    "duplicated_cas_no": "",
    "SMILES": "N(=O)(=O)C1=C(N)C=C(Cl)C(F)=C1",
    "meta_data": {
        "InChI": "InChI=1S/C6H4ClFN2O2/c7-3-1-5(9)6(10(11)12)2-4(3)8/h1-2H,9H2",
        "InChIKey": null,
        "Canonical SMILES": "O=N(=O)C1=CC(F)=C(Cl)C=C1N",
        "Molecular Formula": "C<sub>6</sub>H<sub>4</sub>ClFN<sub>2</sub>O<sub>2</sub>",
        "Molecular Mass": "190.56",
        "Melting Point": "149.5-150 °C"
    }
}