{
    "cas_no": "15687-27-1",
    "key_name": "Ibuprofen",
    "cn_name": "布洛芬;2-甲基-4-(2-甲基丙基)苯乙酸;",
    "alternate_name": "Benzeneacetic acid, α-methyl-4-(2-methylpropyl)-;Hydratropic acid, <em>p</em>-isobutyl-;α-Methyl-4-(2-methylpropyl)benzeneacetic acid;Ibuprofen;<em>p</em>-Isobutylhydratropic acid;2-(<em>p</em>-Isobutylphenyl)propionic acid;Brufen;RD 13621;Motrin;IP 82;4-Isobutylhydratropic acid;α-(4-Isobutylphenyl)propionic acid;2-(4-Isobutylphenyl)propanoic acid;Ibufen;Paduden;Nuprin;<em>p</em>-Isobutyl-2-phenylpropionic acid;Nurofen;Unipron;Rufin;Advil;2-(4′-Isobutylphenyl)propionic acid;Proflex;(±)-α-Methyl-4-(2-methylpropyl)benzeneacetic acid;(±)-Ibuprofen;(<em>RS</em>)-Ibuprofen;(±)-Ibuprophen;(±)-2-(<em>p</em>-Isobutylphenyl)propionic acid;<em>dl</em>-Ibuprofen;(4-Isobutylphenyl)-α-methylacetic acid;4-Isobutyl-α-methylphenylacetic acid;Dolgit;Librofem;Ranofen;Noritis;Bloom;Carol;Panafen;Lidifen;Fenspan;Provon;Pantrop;Ibu-Tab;Andran;Brufanic;Roidenin;Rupan;Mynosedin;Ibuprohm;Perofen;Atril 300;Ibren;Ibufug;Mensoton;Cobo;Rafen;Irfen;Tabalon 400;Brufort;Optifen;Dolofen;Fenbid;Anco;Anafen;Isodol;Ibu-slow;Ibugen;Emflam;Nobfelon;Napacetin;Ibuflamar;Act 3;Zafen;Anflagen;Adex 200;Brufen Retard;Balkaprofen;Drin;Ostofen;Betaprofen;Inflam;Urem;Nagifen-D;Inza;Inabrin;Ibugesic;Lamidon;Antiflam;Algofen;Dolocyl;Ibupirac;Alaxan;Prontalgin;Dolmaral;Lopane;Ibosure;Artril;Buburone;Syntofene;Stelar (pharmaceutical);Proartinal;Emflam 200;Dibufen;Ifen;Brofen;Ipren;Brufen 400;Ostarin;Novogent;Codral Period Pain;Paxofen;Donjust B;Dorival;Tarein;Nobafon;Ibuprocin;Am-Fam 400;Tofen;Dolofen F;Upfen;Tatanal;Epobron;Easifon;Ebufac;Liptan;Nobgen;Bruflam;Zofen;Motrin IB;IB 100;Bluton;Quadrax;Antarene;Apsifen;Ibusal;Tabalon;Burana;Ibulgan;Opturem;Ibumetin;Relcofen;Uprofen;Gofen;Apo-Ibuprofen;Artofen;Butacortelone;Norton;Focus;Novoprofen;Dolomax;Profen;Dolgin;Artril 300;Femadon;Dolo-Dolgit;Recidol;Amibufen;Ibu-Attritin;Ibutad;Adran;Trendar;Butylenin;Dentigoa;Suspren;Seclodin;Gynofug;Dansida;Dolgirid;U 18753;Haltran;Pediaprofen;Ibuleve;NSC 256857;Buluofen;Actiprofen;Algiflex;Algi-Flanderil;Doretrim;Ibupril;Iprogel;Omafen;Deep relief;Nureflex;Pedea;Caldolor;Ibudex;Juilifen;Genafen;Medprofen;Buprol;Paucofen;Ibuflam;Espen;Multifen;Brustan-N;Ibuflamol;Boosten;IbuHexal;Pedifen;Ibuberofen;BC 1054;Spedifen Zambon;Actron Ibuprofen;Moment;MomentAct;Provil;Stelar;Cetafen Plus;Proris;2-[4-(2-Methylpropyl)phenyl]propanoic acid;Ibuprofen Belupo;Ibubel;Bonifen;Diverin;Flarin;MeSH ID: D007052",
    "duplicated_cas_no": "139466-08-3;58560-75-1",
    "SMILES": "C(C(O)=O)(C)C1=CC=C(CC(C)C)C=C1",
    "meta_data": {
        "InChI": "InChI=1S/C13H18O2/c1-9(2)8-11-4-6-12(7-5-11)10(3)13(14)15/h4-7,9-10H,8H2,1-3H3,(H,14,15)",
        "InChIKey": null,
        "Canonical SMILES": "O=C(O)C(C1=CC=C(C=C1)CC(C)C)C",
        "Molecular Formula": "C<sub>13</sub>H<sub>18</sub>O<sub>2</sub>",
        "Molecular Mass": "206.28",
        "Boiling Point": "141-142 °C @ Press: 100 Torr",
        "Melting Point": "75-77 °C",
        "Density": "0.9181 g/cm³ @ Temp: 30 °C"
    }
}