{
    "cas_no": "39028-27-8",
    "key_name": "Iodoacetic acid <em>N</em>-hydroxysuccinimide ester",
    "cn_name": null,
    "alternate_name": "Acetic acid, 2-iodo-, 2,5-dioxo-1-pyrrolidinyl ester;2,5-Pyrrolidinedione, 1-[(iodoacetyl)oxy]-;<em>N</em>-Iodoacetoxysuccinimide;<em>N</em>-Hydroxysuccinimide iodoacetate;<em>N</em>-Hydroxysuccinimide iodoacetic acid ester;SIA;<em>N</em>-Hydroxysuccinimidyl iodoacetate;SIA (crosslinking agent);Iodoacetic acid <em>N</em>-hydroxysuccinimide ester;(2,5-Dioxopyrrolidin-1-yl) 2-iodoacetate",
    "duplicated_cas_no": "86885-65-6",
    "SMILES": "O(C(CI)=O)N1C(=O)CCC1=O",
    "meta_data": {
        "InChI": "InChI=1S/C6H6INO4/c7-3-6(11)12-8-4(9)1-2-5(8)10/h1-3H2",
        "InChIKey": null,
        "Canonical SMILES": "O=C(ON1C(=O)CCC1=O)CI",
        "Molecular Formula": "C<sub>6</sub>H<sub>6</sub>INO<sub>4</sub>",
        "Molecular Mass": "283.02",
        "Melting Point": "144-148 °C"
    }
}