{
    "cas_no": "104-74-5",
    "key_name": "Dodecylpyridinium chloride",
    "cn_name": "十二烷基氯化吡啶;月桂基吡啶鎓氯化物;",
    "alternate_name": "Pyridinium, 1-dodecyl-, chloride (1:1);Pyridinium, 1-dodecyl-, chloride;1-Dodecylpyridinium chloride;C 2;Dodecylpyridinium chloride;DPC;Laurylpyridinium chloride;LPC;<em>N</em>-Dodecylpyridinium chloride;Dehyquart C;Eltren;<em>N</em>-Laurylpyridinium chloride;Quaternario LPC;1-Laurylpyridinium chloride;Dodecanepyridinium chloride;1-<em>n</em>-Dodecanepyridinium chloride;Newkalgen B 251;DDPCl;DPC (onium compound);Pionin B 251;Pionin B 117L",
    "duplicated_cas_no": "138870-69-6;951742-56-6",
    "SMILES": "C(CCCCCCCCCCC)[N+]=1C=CC=CC1.[Cl-]",
    "meta_data": {
        "InChI": "InChI=1S/C17H30N.ClH/c1-2-3-4-5-6-7-8-9-10-12-15-18-16-13-11-14-17-18;/h11,13-14,16-17H,2-10,12,15H2,1H3;1H/q+1;/p-1",
        "InChIKey": null,
        "Canonical SMILES": "[Cl-].C=1C=C[N+](=CC1)CCCCCCCCCCCC",
        "Molecular Formula": "C<sub>17</sub>H<sub>30</sub>N.Cl",
        "Molecular Mass": "",
        "Boiling Point": "160 °C",
        "Melting Point": "71 °C",
        "Density": "0.982 g/cm³ @ Temp: 25 °C"
    }
}