{
    "cas_no": "4330-21-6",
    "key_name": "Hoffer's chlorosugar",
    "cn_name": "3,5-二-O-(对甲苯酰)-2-脱氧-α-D-呋喃核糖氯;",
    "alternate_name": "α-<span class=\"text-smallcaps\">D</span>-<em>erythro</em>-Pentofuranosyl chloride, 2-deoxy-, 3,5-bis(4-methylbenzoate);<span class=\"text-smallcaps\">D</span>-<em>erythro</em>-Pentofuranosyl chloride, 2-deoxy-, di-<em>p</em>-toluate, α-;α-<span class=\"text-smallcaps\">D</span>-<em>erythro</em>-Pentofuranosyl chloride, 2-deoxy-, bis(4-methylbenzoate);<em>p</em>-Toluic acid, diester with 2-deoxy-α-<span class=\"text-smallcaps\">D</span>-<em>erythro</em>-pentofuranosyl chloride;3,5-Di-<em>O</em>-<em>p</em>-toluyl-2-deoxy-α-<span class=\"text-smallcaps\">D</span>-ribofuranosyl chloride;1-Chloro-2-deoxy-3,5-di-<em>O</em>-<em>p</em>-toluoyl-α-<span class=\"text-smallcaps\">D</span>-<em>erythro</em>-pentofuranose;2-Deoxy-3,5-di-<em>O</em>-<em>p</em>-toluoyl-α-<span class=\"text-smallcaps\">D</span>-<em>erythro</em>-pentofuranosyl chloride;NSC 148837;Hoffer's chlorosugar;Hoffer's α-chlorosugar;1-Chloro-2-deoxy-3,5-di-<em>O</em>-<em>p</em>-toluoyl-α-<span class=\"text-smallcaps\">D</span>-ribose;Hoffer's sugar;(2R,3S,5R)-5-Chloro-2-[[(4-methylbenzoyl)oxy]methyl]tetrahydrofuran-3-yl] 4-methylbenzoate;3,5-Di-<em>O</em>-toluoyl-α-1-chloro-2-deoxy-<span class=\"text-smallcaps\">D</span>-ribofuranose;1-Chloro-2-deoxy-3,5-di-<em>O</em>-toluoyl-a-<span class=\"text-smallcaps\">D</span>-ribofuranose;1-α-Chloro-3,5-ditoluoyl-2-deoxy-<span class=\"text-smallcaps\">D</span>-ribose",
    "duplicated_cas_no": "104748-60-9;793674-18-7;1044273-25-7;1088901-08-9",
    "SMILES": "C(OC(=O)C1=CC=C(C)C=C1)[C@@H]2[C@@H](OC(=O)C3=CC=C(C)C=C3)C[C@@H](Cl)O2",
    "meta_data": {
        "InChI": "InChI=1S/C21H21ClO5/c1-13-3-7-15(8-4-13)20(23)25-12-18-17(11-19(22)26-18)27-21(24)16-9-5-14(2)6-10-16/h3-10,17-19H,11-12H2,1-2H3/t17-,18+,19-/m0/s1",
        "InChIKey": null,
        "Canonical SMILES": "O=C(OCC1OC(Cl)CC1OC(=O)C2=CC=C(C=C2)C)C3=CC=C(C=C3)C",
        "Molecular Formula": "C<sub>21</sub>H<sub>21</sub>ClO<sub>5</sub>",
        "Molecular Mass": "388.84",
        "Melting Point": "117-119 °C"
    }
}