{
    "cas_no": "695-34-1",
    "key_name": "2-Amino-4-methylpyridine",
    "cn_name": null,
    "alternate_name": "2-Pyridinamine, 4-methyl-;4-Picoline, 2-amino-;4-Methyl-2-pyridinamine;W 45;RA 1226;2-Amino-4-methylpyridine;2-Amino-4-picoline;Ascensil;4-Methyl-2-pyridylamine;VMI 20-4;W 45 Raschig;4-Methyl-2-aminopyridine;2-Amino-γ-picoline;(4-Methylpyridin-2-yl)amine;Aminopicoline;NSC 1490;NSC 176165;NSC 6972;4-Methylpyridin-2-amine",
    "duplicated_cas_no": "135995-51-6",
    "SMILES": "CC=1C=C(N)N=CC1",
    "meta_data": {
        "InChI": "InChI=1S/C6H8N2/c1-5-2-3-8-6(7)4-5/h2-4H,1H3,(H2,7,8)",
        "InChIKey": null,
        "Canonical SMILES": "N=1C=CC(=CC1N)C",
        "Molecular Formula": "C<sub>6</sub>H<sub>8</sub>N<sub>2</sub>",
        "Molecular Mass": "108.14",
        "Boiling Point": "115-117 °C @ Press: 11 Torr",
        "Melting Point": "100 °C"
    }
}