{
    "cas_no": "14850-23-8",
    "key_name": "<em>trans</em>-4-Octene",
    "cn_name": null,
    "alternate_name": "4-Octene, (4<em>E</em>)-;4-Octene, (<em>E</em>)-;4-Octene, <em>trans</em>-;(4<em>E</em>)-4-Octene;<em>trans</em>-4-Octene;<em>trans</em>-<em>n</em>-4-Octene;(<em>E</em>)-4-Octene;δ-<em>trans</em>-Octene;<em>trans</em>-1,2-Dipropylethylene;(E)-4-Octene;<em>trans</em>-1,2-Dipropylethene;NSC 73940",
    "duplicated_cas_no": "",
    "SMILES": "C(=C/CCC)\\CCC",
    "meta_data": {
        "InChI": "InChI=1S/C8H16/c1-3-5-7-8-6-4-2/h7-8H,3-6H2,1-2H3/b8-7+",
        "InChIKey": null,
        "Canonical SMILES": "C(=CCCC)CCC",
        "Molecular Formula": "C<sub>8</sub>H<sub>16</sub>",
        "Molecular Mass": "112.21",
        "Boiling Point": "122.3 °C",
        "Melting Point": "-93.8 °C",
        "Density": "0.7165 g/cm³ @ Temp: 20 °C"
    }
}