{
    "cas_no": "18043-74-8",
    "key_name": "4,7-Diethoxy-4,7-dimethyl-3,8-dioxa-4,7-disiladecane",
    "cn_name": null,
    "alternate_name": "3,8-Dioxa-4,7-disiladecane, 4,7-diethoxy-4,7-dimethyl-;4,7-Diethoxy-4,7-dimethyl-3,8-dioxa-4,7-disiladecane;1,2-Bis(diethoxymethylsilyl)ethane;1,2-Bis(methyldiethoxysilyl)ethane;2-[Diethoxy(methyl)silyl]ethyl-diethoxy-methylsilane",
    "duplicated_cas_no": "2006284-55-3",
    "SMILES": "[Si](CC[Si](OCC)(OCC)C)(OCC)(OCC)C",
    "meta_data": {
        "InChI": "InChI=1S/C12H30O4Si2/c1-7-13-17(5,14-8-2)11-12-18(6,15-9-3)16-10-4/h7-12H2,1-6H3",
        "InChIKey": null,
        "Canonical SMILES": "O(CC)[Si](OCC)(C)CC[Si](OCC)(OCC)C",
        "Molecular Formula": "C<sub>12</sub>H<sub>30</sub>O<sub>4</sub>Si<sub>2</sub>",
        "Molecular Mass": "294.54",
        "Boiling Point": "79-80 °C @ Press: 1.5 Torr",
        "Density": "0.9300 g/cm³ @ Temp: 20 °C"
    }
}