{
    "cas_no": "42969-65-3",
    "key_name": "3-Butyn-2-ol, (2<em>R</em>)-",
    "cn_name": "(R)-(+)-3-丁炔-2-醇;",
    "alternate_name": "3-Butyn-2-ol, (2<em>R</em>)-;3-Butyn-2-ol, (<em>R</em>)-;(+)-1-Butyn-3-ol;(+)-3-Butyn-2-ol;(<em>R</em>)-(+)-3-Butyn-2-ol;(<em>R</em>)-3-Butyn-2-ol;(<em>R</em>)-1-Butyn-3-ol;(2<em>R</em>)-3-Butyn-2-ol;(2R)-But-3-yn-2-ol;(<em>R</em>)-(+)-1-Methylpropargyl alcohol;(R)-But-3-yn-2-ol",
    "duplicated_cas_no": "",
    "SMILES": "[C@H](C#C)(C)O",
    "meta_data": {
        "InChI": "InChI=1S/C4H6O/c1-3-4(2)5/h1,4-5H,2H3/t4-/m1/s1",
        "InChIKey": null,
        "Canonical SMILES": "C#CC(O)C",
        "Molecular Formula": "C<sub>4</sub>H<sub>6</sub>O",
        "Molecular Mass": "70.09",
        "Boiling Point": "100 °C @ Press: 130 mmHg"
    }
}