{
    "cas_no": "111439-76-0",
    "key_name": "Isobutylisopropyldimethoxysilane",
    "cn_name": "异丁基异丙基二甲氧基硅烷;",
    "alternate_name": "Silane, dimethoxy(1-methylethyl)(2-methylpropyl)-;Dimethoxy(1-methylethyl)(2-methylpropyl)silane;Isobutylisopropyldimethoxysilane;Dimethoxyisobutylisopropylsilane",
    "duplicated_cas_no": "",
    "SMILES": "[Si](CC(C)C)(C(C)C)(OC)OC",
    "meta_data": {
        "InChI": "InChI=1S/C9H22O2Si/c1-8(2)7-12(10-5,11-6)9(3)4/h8-9H,7H2,1-6H3",
        "InChIKey": null,
        "Canonical SMILES": "O(C)[Si](OC)(CC(C)C)C(C)C",
        "Molecular Formula": "C<sub>9</sub>H<sub>22</sub>O<sub>2</sub>Si",
        "Molecular Mass": "190.36",
        "Boiling Point": "93 °C @ Press: 37 Torr",
        "Density": "0.867 g/cm³"
    }
}