{
    "cas_no": "31698-14-3",
    "key_name": "Ancitabine",
    "cn_name": "环胞啶;环胞苷;",
    "alternate_name": "6<em>H</em>-Furo[2′,3′:4,5]oxazolo[3,2-<em>a</em>]pyrimidine-2-methanol, 2,3,3a,9a-tetrahydro-3-hydroxy-6-imino-, (2<em>R</em>,3<em>R</em>,3a<em>S</em>,9a<em>R</em>)-;6<em>H</em>-Furo[2′,3′:4,5]oxazolo[3,2-<em>a</em>]pyrimidine-2-methanol, 2,3,3a,9a-tetrahydro-3-hydroxy-6-imino-, [2<em>R</em>-(2α,3β,3aβ,9aβ)]-;6<em>H</em>-Furo[2′,3′:4,5]oxazolo[3,2-<em>a</em>]pyrimidine-2-methanol, 2,3,3a,9a-tetrahydro-3-hydroxy-6-imino-, stereoisomer;6<em>H</em>-Furo[2′,3′:4,5]oxazolo[3,2-<em>a</em>]pyrimidine-2-methanol, 2,3,3a,9a-tetrahydro-3-hydroxy-6-imino-;(2<em>R</em>,3<em>R</em>,3a<em>S</em>,9a<em>R</em>)-2,3,3a,9a-Tetrahydro-3-hydroxy-6-imino-6<em>H</em>-furo[2′,3′:4,5]oxazolo[3,2-<em>a</em>]pyrimidine-2-methanol;<em>O</em><sup>2</sup>,2′-Cyclocytidine;Cyclocytidine;2,2′-Anhydroarabinosylcytosine;2,2′-Anhydrocytidine;2,2′-<em>O</em>-Cyclocytidine;<em>O</em><sup>2</sup>:2′-Anhydro-1-β-<span class=\"text-smallcaps\">D</span>-arabinosylcytosine;2,2′-Anhydro(1-β-<span class=\"text-smallcaps\">D</span>-arabinofuranosyl)cytosine;Ancytabine;2,2′-Cyclocytidine;Ancitabine",
    "duplicated_cas_no": "34939-46-3;36258-39-6;46488-37-3;51743-54-5",
    "SMILES": "O[C@H]1[C@]2([C@](N3C(O2)=NC(=N)C=C3)(O[C@@H]1CO)[H])[H]",
    "meta_data": {
        "InChI": "InChI=1S/C9H11N3O4/c10-5-1-2-12-8-7(16-9(12)11-5)6(14)4(3-13)15-8/h1-2,4,6-8,10,13-14H,3H2/t4-,6-,7+,8-/m1/s1",
        "InChIKey": null,
        "Canonical SMILES": "N=C1N=C2OC3C(O)C(OC3N2C=C1)CO",
        "Molecular Formula": "C<sub>9</sub>H<sub>11</sub>N<sub>3</sub>O<sub>4</sub>",
        "Molecular Mass": "225.20",
        "Melting Point": "249 °C (decomp)"
    }
}