{
    "cas_no": "1424-22-2",
    "key_name": "1-Cyclohexen-1-ol, 1-acetate",
    "cn_name": "1-乙酸环己烯酯;1-乙酸环己烯酯;",
    "alternate_name": "1-Cyclohexen-1-ol, 1-acetate;1-Cyclohexen-1-ol, acetate;1-Cyclohexenyl acetate;Cyclohexen-1-ol acetate;1-Acetoxycyclohexene;1-Acetoxy-1-cyclohexene;1-Cyclohexen-1-yl acetate;1-(Acetyloxy)-1-cyclohexene;NSC 18899;Acetic acid 1-cyclohexenyl ester",
    "duplicated_cas_no": "",
    "SMILES": "O(C(C)=O)C=1CCCCC1",
    "meta_data": {
        "InChI": "InChI=1S/C8H12O2/c1-7(9)10-8-5-3-2-4-6-8/h5H,2-4,6H2,1H3",
        "InChIKey": null,
        "Canonical SMILES": "O=C(OC1=CCCCC1)C",
        "Molecular Formula": "C<sub>8</sub>H<sub>12</sub>O<sub>2</sub>",
        "Molecular Mass": "140.18",
        "Boiling Point": "180-181 °C",
        "Density": "1.01103 g/cm³ @ Temp: 20 °C"
    }
}