{
    "cas_no": "7289-52-3",
    "key_name": "1-Methoxydecane",
    "cn_name": "甲癸醚;甲癸醚;",
    "alternate_name": "Decane, 1-methoxy-;Ether, decyl methyl;1-Methoxydecane;Decyl methyl ether;Methyl decyl ether;Methyl <em>n</em>-decyl ether",
    "duplicated_cas_no": "",
    "SMILES": "C(CCCCOC)CCCCC",
    "meta_data": {
        "InChI": "InChI=1S/C11H24O/c1-3-4-5-6-7-8-9-10-11-12-2/h3-11H2,1-2H3",
        "InChIKey": null,
        "Canonical SMILES": "O(C)CCCCCCCCCC",
        "Molecular Formula": "C<sub>11</sub>H<sub>24</sub>O",
        "Molecular Mass": "172.31",
        "Boiling Point": "213.2-213.5 °C @ Press: 750 Torr",
        "Melting Point": "189 °C",
        "Density": "0.7973 g/cm³ @ Temp: 20 °C"
    }
}