{
    "cas_no": "2895-21-8",
    "key_name": "2-Chloro-<em>N</em>-(1-methylethyl)acetamide",
    "cn_name": "N-异丙基-2-氯乙酰胺;",
    "alternate_name": "Acetamide, 2-chloro-<em>N</em>-(1-methylethyl)-;Acetamide, 2-chloro-<em>N</em>-isopropyl-;2-Chloro-<em>N</em>-(1-methylethyl)acetamide;α-Chloro-<em>N</em>-isopropylacetamide;2-Chloro-<em>N</em>-isopropylacetamide;<em>N</em>-Isopropylchloroacetamide;<em>N</em>-Isopropyl-2-chloroacetamide;NSC 165658;<em>N</em>-(Chloroacetyl)isopropylamine;2-Chloro-<em>N</em>-(propan-2-yl)acetamide",
    "duplicated_cas_no": "",
    "SMILES": "C(NC(C)C)(CCl)=O",
    "meta_data": {
        "InChI": "InChI=1S/C5H10ClNO/c1-4(2)7-5(8)3-6/h4H,3H2,1-2H3,(H,7,8)",
        "InChIKey": null,
        "Canonical SMILES": "O=C(NC(C)C)CCl",
        "Molecular Formula": "C<sub>5</sub>H<sub>10</sub>ClNO",
        "Molecular Mass": "135.59",
        "Melting Point": "62 °C"
    }
}