{
    "cas_no": "57678-46-3",
    "key_name": "3-(Dimethylamino)benzenemethanamine",
    "cn_name": null,
    "alternate_name": "Benzenemethanamine, 3-(dimethylamino)-;3-(Dimethylamino)benzenemethanamine;3-(Dimethylamino)benzylamine;<em>N</em>-[3-(Aminomethyl)phenyl]-<em>N</em>,<em>N</em>-dimethylamine;(3-Aminomethylphenyl)dimethylamine;3-(Aminomethyl)-<em>N</em>,<em>N</em>-dimethylaniline",
    "duplicated_cas_no": "",
    "SMILES": "N(C)(C)C1=CC(CN)=CC=C1",
    "meta_data": {
        "InChI": "InChI=1S/C9H14N2/c1-11(2)9-5-3-4-8(6-9)7-10/h3-6H,7,10H2,1-2H3",
        "InChIKey": null,
        "Canonical SMILES": "NCC=1C=CC=C(C1)N(C)C",
        "Molecular Formula": "C<sub>9</sub>H<sub>14</sub>N<sub>2</sub>",
        "Molecular Mass": "150.22",
        "Boiling Point": "134-135 °C @ Press: 10 Torr"
    }
}