{
    "cas_no": "5392-10-9",
    "key_name": "6-Bromoveratraldehyde",
    "cn_name": "6-溴藜芦醛;2-溴-4,5-二甲氧基苯甲醛;",
    "alternate_name": "Benzaldehyde, 2-bromo-4,5-dimethoxy-;Veratraldehyde, 6-bromo-;2-Bromo-4,5-dimethoxybenzaldehyde;6-Bromoveratraldehyde;6-Bromo-3,4-dimethoxybenzaldehyde;6-Bromoveratral;3,4-Dimethoxy-6-bromobenzaldehyde;NSC 3254;4,5-Dimethoxy-2-bromobenzaldehyde",
    "duplicated_cas_no": "",
    "SMILES": "O(C)C1=C(OC)C=C(Br)C(C=O)=C1",
    "meta_data": {
        "InChI": "InChI=1S/C9H9BrO3/c1-12-8-3-6(5-11)7(10)4-9(8)13-2/h3-5H,1-2H3",
        "InChIKey": null,
        "Canonical SMILES": "O=CC=1C=C(OC)C(OC)=CC1Br",
        "Molecular Formula": "C<sub>9</sub>H<sub>9</sub>BrO<sub>3</sub>",
        "Molecular Mass": "245.07",
        "Melting Point": "147 °C"
    }
}