{
    "cas_no": "5406-57-5",
    "key_name": "Ethyl 4-(1,1-dimethylethyl)benzoate",
    "cn_name": null,
    "alternate_name": "Benzoic acid, 4-(1,1-dimethylethyl)-, ethyl ester;Benzoic acid, <em>p</em>-<em>tert</em>-butyl-, ethyl ester;Ethyl 4-(1,1-dimethylethyl)benzoate;Ethyl 4-<em>tert</em>-butylbenzoate;Ethyl <em>p</em>-<em>tert</em>-butylbenzoate;NSC 7038;4-<em>t</em>-Butylbenzoic acid ethyl ester",
    "duplicated_cas_no": "",
    "SMILES": "C(OCC)(=O)C1=CC=C(C(C)(C)C)C=C1",
    "meta_data": {
        "InChI": "InChI=1S/C13H18O2/c1-5-15-12(14)10-6-8-11(9-7-10)13(2,3)4/h6-9H,5H2,1-4H3",
        "InChIKey": null,
        "Canonical SMILES": "O=C(OCC)C1=CC=C(C=C1)C(C)(C)C",
        "Molecular Formula": "C<sub>13</sub>H<sub>18</sub>O<sub>2</sub>",
        "Molecular Mass": "206.28",
        "Boiling Point": "120.0-120.5 °C @ Press: 4 Torr"
    }
}