{
    "cas_no": "1072-67-9",
    "key_name": "3-Amino-5-methylisoxazole",
    "cn_name": "3-氨基-5-甲基异噁唑;",
    "alternate_name": "3-Isoxazolamine, 5-methyl-;Isoxazole, 3-amino-5-methyl-;5-Methyl-3-isoxazolamine;3-Amino-5-methylisoxazole;5-Methyl-3-aminoisoxazole;5-Methyl-3-isoxazolylamine;5-Methyl-1,2-oxazol-3-amine;NSC 159134",
    "duplicated_cas_no": "1195418-99-5",
    "SMILES": "NC=1C=C(C)ON1",
    "meta_data": {
        "InChI": "InChI=1S/C4H6N2O/c1-3-2-4(5)6-7-3/h2H,1H3,(H2,5,6)",
        "InChIKey": null,
        "Canonical SMILES": "N=1OC(=CC1N)C",
        "Molecular Formula": "C<sub>4</sub>H<sub>6</sub>N<sub>2</sub>O",
        "Molecular Mass": "98.10",
        "Melting Point": "61-62 °C",
        "Density": "1.25 g/cm³ @ Temp: 25.000 °C; Press: 750 Torr"
    }
}