{
    "cas_no": "25033-19-6",
    "key_name": "1-Cyclopropylnaphthalene",
    "cn_name": null,
    "alternate_name": "Naphthalene, 1-cyclopropyl-;1-Cyclopropylnaphthalene;1-Naphthylcyclopropane",
    "duplicated_cas_no": "",
    "SMILES": "C=1(C2=C(C=CC1)C=CC=C2)C3CC3",
    "meta_data": {
        "InChI": "InChI=1S/C13H12/c1-2-6-12-10(4-1)5-3-7-13(12)11-8-9-11/h1-7,11H,8-9H2",
        "InChIKey": null,
        "Canonical SMILES": "C=1C=CC2=C(C1)C=CC=C2C3CC3",
        "Molecular Formula": "C<sub>13</sub>H<sub>12</sub>",
        "Molecular Mass": "168.23",
        "Boiling Point": "152-154 °C @ Press: 18 Torr",
        "Density": "1.0515 g/cm³ @ Temp: 20 °C"
    }
}