{
    "cas_no": "50767-79-8",
    "key_name": "9<em>Z</em>,11<em>E</em>-Tetradecadienyl acetate",
    "cn_name": null,
    "alternate_name": "9,11-Tetradecadien-1-ol, 1-acetate, (9<em>Z</em>,11<em>E</em>)-;9,11-Tetradecadien-1-ol, acetate, (<em>E</em>,<em>Z</em>)-;9,11-Tetradecadien-1-ol, acetate, (9<em>Z</em>,11<em>E</em>)-;<em>cis</em>-9,<em>trans</em>-11-Tetradecadien-1-yl acetate;<em>cis</em>-9,<em>trans</em>-11-Tetradecadien-1-ol acetate;<em>cis</em>-9,<em>trans</em>-11-Tetradecadienyl acetate;(<em>Z</em>,<em>E</em>)-9,11-Tetradecadien-1-ol acetate;Litlure A;Ferodin SL;Prodlure;(9<em>Z</em>,11<em>E</em>)-9,11-Tetradecadien-1-yl acetate;9<em>Z</em>,11<em>E</em>-Tetradecadienyl acetate;(9<em>Z</em>,11<em>E</em>)-9,11-Tetradecadien-1-ol acetate",
    "duplicated_cas_no": "",
    "SMILES": "C(CCCC/C=C\\C=C\\CC)CCCOC(C)=O",
    "meta_data": {
        "InChI": "InChI=1S/C16H28O2/c1-3-4-5-6-7-8-9-10-11-12-13-14-15-18-16(2)17/h4-7H,3,8-15H2,1-2H3/b5-4+,7-6-",
        "InChIKey": null,
        "Canonical SMILES": "O=C(OCCCCCCCCC=CC=CCC)C",
        "Molecular Formula": "C<sub>16</sub>H<sub>28</sub>O<sub>2</sub>",
        "Molecular Mass": "252.39",
        "Boiling Point": "147.5 °C",
        "Melting Point": "&lt;25 °C"
    }
}