{
    "cas_no": "1989-52-2",
    "key_name": "Cholesteryl myristate",
    "cn_name": "胆甾烯基豆蔻酸酯;胆甾醇豆蔻酸酯;",
    "alternate_name": "Cholest-5-en-3-ol (3β)-, 3-tetradecanoate;Cholesterol, myristate;Cholest-5-en-3-ol (3β)-, tetradecanoate;Myristic acid, cholesteryl ester;Cholesteryl myristate;Cholesteryl tetradecanoate;Cholestryl myristate;NSC 226867;Cholest-5-en-3β-ol palmitate;5-Cholesten-3β-ol palmitate;Cholesterol tetradecanoate;CE(14:0)",
    "duplicated_cas_no": "",
    "SMILES": "C[C@@]12[C@@]3([C@]([C@]4([C@](C)(CC3)[C@@]([C@@H](CCCC(C)C)C)(CC4)[H])[H])(CC=C1C[C@@H](OC(CCCCCCCCCCCCC)=O)CC2)[H])[H]",
    "meta_data": {
        "InChI": "InChI=1S/C41H72O2/c1-7-8-9-10-11-12-13-14-15-16-17-21-39(42)43-34-26-28-40(5)33(30-34)22-23-35-37-25-24-36(32(4)20-18-19-31(2)3)41(37,6)29-27-38(35)40/h22,31-32,34-38H,7-21,23-30H2,1-6H3/t32-,34+,35+,36-,37+,38+,40+,41-/m1/s1",
        "InChIKey": null,
        "Canonical SMILES": "O=C(OC1CC2=CCC3C(CCC4(C)C(CCC34)C(C)CCCC(C)C)C2(C)CC1)CCCCCCCCCCCCC",
        "Molecular Formula": "C<sub>41</sub>H<sub>72</sub>O<sub>2</sub>",
        "Molecular Mass": "597.01",
        "Melting Point": "80-86 °C"
    }
}