{
    "cas_no": "401-94-5",
    "key_name": "3-Nitro-5-(trifluoromethyl)benzenamine",
    "cn_name": "5-硝基吲唑;",
    "alternate_name": "Benzenamine, 3-nitro-5-(trifluoromethyl)-;<em>m</em>-Toluidine, α,α,α-trifluoro-5-nitro-;3-Nitro-5-(trifluoromethyl)benzenamine;3-Trifluoromethyl-5-nitroaniline;5-Trifluoromethyl-3-nitroaniline;3-Nitro-5-trifluoromethylaniline;3-Amino-5-nitrobenzotrifluoride",
    "duplicated_cas_no": "",
    "SMILES": "C(F)(F)(F)C1=CC(N(=O)=O)=CC(N)=C1",
    "meta_data": {
        "InChI": "InChI=1S/C7H5F3N2O2/c8-7(9,10)4-1-5(11)3-6(2-4)12(13)14/h1-3H,11H2",
        "InChIKey": null,
        "Canonical SMILES": "O=N(=O)C1=CC(N)=CC(=C1)C(F)(F)F",
        "Molecular Formula": "C<sub>7</sub>H<sub>5</sub>F<sub>3</sub>N<sub>2</sub>O<sub>2</sub>",
        "Molecular Mass": "206.12",
        "Melting Point": "80-81.5 °C"
    }
}