{
    "cas_no": "111-68-2",
    "key_name": "Heptylamine",
    "cn_name": null,
    "alternate_name": "1-Heptanamine;Heptylamine;<em>n</em>-Heptylamine;1-Aminoheptane;1-Heptylamine;NSC 2074",
    "duplicated_cas_no": "",
    "SMILES": "C(CCCN)CCC",
    "meta_data": {
        "InChI": "InChI=1S/C7H17N/c1-2-3-4-5-6-7-8/h2-8H2,1H3",
        "InChIKey": null,
        "Canonical SMILES": "NCCCCCCC",
        "Molecular Formula": "C<sub>7</sub>H<sub>17</sub>N",
        "Molecular Mass": "115.22",
        "Boiling Point": "156 °C",
        "Melting Point": "-18 °C",
        "Density": "0.8073 g/cm³ @ Temp: 20 °C"
    }
}