{
    "cas_no": "372-18-9",
    "key_name": "1,3-Difluorobenzene",
    "cn_name": "1,3-二氟苯;间二氟苯;",
    "alternate_name": "Benzene, 1,3-difluoro-;Benzene, <em>m</em>-difluoro-;1,3-Difluorobenzene;<em>m</em>-Difluorobenzene;NSC 10285;2,4-Difluorobenzene;1,3-Bisfluorobenzene",
    "duplicated_cas_no": "",
    "SMILES": "FC1=CC(F)=CC=C1",
    "meta_data": {
        "InChI": "InChI=1S/C6H4F2/c7-5-2-1-3-6(8)4-5/h1-4H",
        "InChIKey": null,
        "Canonical SMILES": "FC1=CC=CC(F)=C1",
        "Molecular Formula": "C<sub>6</sub>H<sub>4</sub>F<sub>2</sub>",
        "Molecular Mass": "114.09",
        "Boiling Point": "82.6 °C",
        "Melting Point": "-69 °C",
        "Density": "1.1651 g/cm³ @ Temp: 15.5 °C"
    }
}