{
    "cas_no": "20244-61-5",
    "key_name": "2,4,4,6-Tetrabromo-2,5-cyclohexadien-1-one",
    "cn_name": "2,4,4,6-四溴-2,5-环己二烯酮;四溴环己二烯-1-酮;",
    "alternate_name": "2,5-Cyclohexadien-1-one, 2,4,4,6-tetrabromo-;2,4,4,6-Tetrabromo-2,5-cyclohexadien-1-one;2,4,4,6-Tetrabromo-2,5-cyclohexadienone;TBCD;NSC 176338;TABCO;TBHCD;TBCO",
    "duplicated_cas_no": "",
    "SMILES": "BrC1(Br)C=C(Br)C(=O)C(Br)=C1",
    "meta_data": {
        "InChI": "InChI=1S/C6H2Br4O/c7-3-1-6(9,10)2-4(8)5(3)11/h1-2H",
        "InChIKey": null,
        "Canonical SMILES": "O=C1C(Br)=CC(Br)(Br)C=C1Br",
        "Molecular Formula": "C<sub>6</sub>H<sub>2</sub>Br<sub>4</sub>O",
        "Molecular Mass": "409.70",
        "Melting Point": "123-125 °C"
    }
}