{
    "cas_no": "30508-27-1",
    "key_name": "(+)-Licoricidin",
    "cn_name": null,
    "alternate_name": "1,3-Benzenediol, 4-[(3<em>R</em>)-3,4-dihydro-7-hydroxy-5-methoxy-6-(3-methyl-2-buten-1-yl)-2<em>H</em>-1-benzopyran-3-yl]-2-(3-methyl-2-buten-1-yl)-;2′,4′,5-Isoflavantriol, 7-methoxy-3′,6-bis(3-methyl-2-butenyl)-;1,3-Benzenediol, 4-[3,4-dihydro-7-hydroxy-5-methoxy-6-(3-methyl-2-butenyl)-2<em>H</em>-1-benzopyran-3-yl]-2-(3-methyl-2-butenyl)-, (<em>R</em>)-;1,3-Benzenediol, 4-[(3<em>R</em>)-3,4-dihydro-7-hydroxy-5-methoxy-6-(3-methyl-2-butenyl)-2<em>H</em>-1-benzopyran-3-yl]-2-(3-methyl-2-butenyl)-;4-[(3<em>R</em>)-3,4-Dihydro-7-hydroxy-5-methoxy-6-(3-methyl-2-buten-1-yl)-2<em>H</em>-1-benzopyran-3-yl]-2-(3-methyl-2-buten-1-yl)-1,3-benzenediol;Licoricidin;(+)-Licoricidin;Licorisoflavan B;7-<em>O</em>-Demethyllicorisoflavan A",
    "duplicated_cas_no": "27288-43-3;123106-33-2",
    "SMILES": "O(C)C1=C2C(=CC(O)=C1CC=C(C)C)OC[C@H](C2)C3=C(O)C(CC=C(C)C)=C(O)C=C3",
    "meta_data": {
        "InChI": "InChI=1S/C26H32O5/c1-15(2)6-8-19-22(27)11-10-18(25(19)29)17-12-21-24(31-14-17)13-23(28)20(26(21)30-5)9-7-16(3)4/h6-7,10-11,13,17,27-29H,8-9,12,14H2,1-5H3/t17-/m0/s1",
        "InChIKey": null,
        "Canonical SMILES": "OC1=CC=C(C(O)=C1CC=C(C)C)C2COC3=CC(O)=C(C(OC)=C3C2)CC=C(C)C",
        "Molecular Formula": "C<sub>26</sub>H<sub>32</sub>O<sub>5</sub>",
        "Molecular Mass": "424.53",
        "Melting Point": "161.0-162.5 °C"
    }
}