{
    "cas_no": "464-49-3",
    "key_name": "(+)-Camphor",
    "cn_name": null,
    "alternate_name": "Bicyclo[2.2.1]heptan-2-one, 1,7,7-trimethyl-, (1<em>R</em>,4<em>R</em>)-;Camphor, (1<em>R</em>,4<em>R</em>)-(+)-;Bicyclo[2.2.1]heptan-2-one, 1,7,7-trimethyl-, (1<em>R</em>)-;(1<em>R</em>,4<em>R</em>)-1,7,7-Trimethylbicyclo[2.2.1]heptan-2-one;(+)-Camphor;Japanese camphor;<em>d</em>-Camphor;<span class=\"text-smallcaps\">D</span>-(+)-Camphor;Camphor, (+)-;(+)-2-Bornanone;Alcanfor;<span class=\"text-smallcaps\">D</span>-Camphor;(<em>R</em>)-(+)-Camphor;(1<em>R</em>)-Camphor;(<em>R</em>)-Camphor;(1<em>R</em>)-(+)-Camphor;(1<em>R</em>,4<em>R</em>)-(+)-Camphor;(+)-(1R,4R)-Camphor;(1<em>R</em>)-1,7,7-Trimethylbicyclo[2.2.1]heptan-2-one;Dextrocamphora;(1R,4R)-1,7,7-Trimethylbicyclo[2.2.1]heptan-2-one",
    "duplicated_cas_no": "68546-28-1",
    "SMILES": "C[C@@]12C(C)(C)[C@@](CC1=O)(CC2)[H]",
    "meta_data": {
        "InChI": "InChI=1S/C10H16O/c1-9(2)7-4-5-10(9,3)8(11)6-7/h7H,4-6H2,1-3H3/t7-,10+/m1/s1",
        "InChIKey": null,
        "Canonical SMILES": "O=C1CC2CCC1(C)C2(C)C",
        "Molecular Formula": "C<sub>10</sub>H<sub>16</sub>O",
        "Molecular Mass": "152.23",
        "Boiling Point": "207.4 °C",
        "Melting Point": "178.8 °C"
    }
}