{
    "cas_no": "56488-60-9",
    "key_name": "γ-Glutamyltaurine",
    "cn_name": null,
    "alternate_name": "<span class=\"text-smallcaps\">L</span>-Glutamine, <em>N</em>-(2-sulfoethyl)-;<em>N</em>-(2-Sulfoethyl)-<span class=\"text-smallcaps\">L</span>-glutamine;γ-<span class=\"text-smallcaps\">L</span>-Glutamyltaurine;Litoralon;Glutaurine;γ-Glutamyltaurine;11: PN: WO2011158590 PAGE: 34 claimed sequence;24: PN: CN107114752 PAGE: 2 claimed sequence;(2S)-2-Amino-4-[(2-sulfoethyl)carbamoyl]butanoic acid;(<em>S</em>)-2-Amino-5-oxo-5-((2-sulfoethyl)amino)pentanoic acid",
    "duplicated_cas_no": "39391-42-9",
    "SMILES": "C(CC[C@@H](C(O)=O)N)(NCCS(=O)(=O)O)=O",
    "meta_data": {
        "InChI": "InChI=1S/C7H14N2O6S/c8-5(7(11)12)1-2-6(10)9-3-4-16(13,14)15/h5H,1-4,8H2,(H,9,10)(H,11,12)(H,13,14,15)/t5-/m0/s1",
        "InChIKey": null,
        "Canonical SMILES": "O=C(O)C(N)CCC(=O)NCCS(=O)(=O)O",
        "Molecular Formula": "C<sub>7</sub>H<sub>14</sub>N<sub>2</sub>O<sub>6</sub>S",
        "Molecular Mass": "254.26",
        "Melting Point": "223-226 °C"
    }
}