{
    "cas_no": "15031-78-4",
    "key_name": "α,α-Dimethyl-4-pyridinemethanol",
    "cn_name": "2-(4-吡啶)-2-丙醇;",
    "alternate_name": "4-Pyridinemethanol, α,α-dimethyl-;α,α-Dimethyl-4-pyridinemethanol;4-Pyridyldimethylcarbinol;Dimethyl-4-pyridylcarbinol;2-(4-Pyridyl)-2-propanol;2-Pyridin-4-ylpropan-2-ol;2-(Pyridin-4-yl)propan-2-ol",
    "duplicated_cas_no": "",
    "SMILES": "C(C)(C)(O)C=1C=CN=CC1",
    "meta_data": {
        "InChI": "InChI=1S/C8H11NO/c1-8(2,10)7-3-5-9-6-4-7/h3-6,10H,1-2H3",
        "InChIKey": null,
        "Canonical SMILES": "OC(C=1C=CN=CC1)(C)C",
        "Molecular Formula": "C<sub>8</sub>H<sub>11</sub>NO",
        "Molecular Mass": "137.18",
        "Boiling Point": "136 °C @ Press: 25 Torr",
        "Melting Point": "136 °C"
    }
}