{
    "cas_no": "2553-19-7",
    "key_name": "Diphenyldiethoxysilane",
    "cn_name": "二苯基二乙氧基硅烷;",
    "alternate_name": "Benzene, 1,1′-(diethoxysilylene)bis-;Silane, diethoxydiphenyl-;1,1′-(Diethoxysilylene)bis[benzene];Diphenyldiethoxysilane;Diethoxydiphenylsilane;KBM 202LS5990;TSL 8177;NSC 77127;KEB 202;LS 5990;KBE 202",
    "duplicated_cas_no": "155684-10-9;155684-44-9",
    "SMILES": "[Si](OCC)(OCC)(C1=CC=CC=C1)C2=CC=CC=C2",
    "meta_data": {
        "InChI": "InChI=1S/C16H20O2Si/c1-3-17-19(18-4-2,15-11-7-5-8-12-15)16-13-9-6-10-14-16/h5-14H,3-4H2,1-2H3",
        "InChIKey": null,
        "Canonical SMILES": "O(CC)[Si](OCC)(C=1C=CC=CC1)C=2C=CC=CC2",
        "Molecular Formula": "C<sub>16</sub>H<sub>20</sub>O<sub>2</sub>Si",
        "Molecular Mass": "272.41",
        "Boiling Point": "302-304 °C @ Press: 767 Torr",
        "Density": "1.032 g/cm³"
    }
}