{
    "cas_no": "6622-92-0",
    "key_name": "2,6-Dimethyl-4(3<em>H</em>)-pyrimidinone",
    "cn_name": "2,4-二甲基-6-羟基嘧啶;",
    "alternate_name": "4(3<em>H</em>)-Pyrimidinone, 2,6-dimethyl-;4(1<em>H</em>)-Pyrimidinone, 2,6-dimethyl-;2,6-Dimethyl-4(3<em>H</em>)-pyrimidinone;2,4-Dimethyl-6-hydroxypyrimidine;6-Hydroxy-2,4-dimethylpyrimidine;4-Hydroxy-2,6-dimethylpyrimidine;2,6-Dimethyl-4-hydroxypyrimidine;2,6-Dimethylpyrimidin-4-one;2,6-Dimethyl-4-pyrimidinol;NSC 54507;2,6-Dimethyl-1<em>H</em>-pyrimidin-4-one",
    "duplicated_cas_no": "15846-28-3",
    "SMILES": "CC1=CC(=O)N=C(C)N1",
    "meta_data": {
        "InChI": "InChI=1S/C6H8N2O/c1-4-3-6(9)8-5(2)7-4/h3H,1-2H3,(H,7,8,9)",
        "InChIKey": null,
        "Canonical SMILES": "O=C1N=C(NC(=C1)C)C",
        "Molecular Formula": "C<sub>6</sub>H<sub>8</sub>N<sub>2</sub>O",
        "Molecular Mass": "124.14",
        "Boiling Point": "111 °C @ Press: 0.5 Torr",
        "Melting Point": "190-194 °C"
    }
}