{
    "cas_no": "15862-34-7",
    "key_name": "5-Bromo-3-nitro-2(1<em>H</em>)-pyridinone",
    "cn_name": "5-溴-2-羟基-3-硝基吡啶;",
    "alternate_name": "2(1<em>H</em>)-Pyridinone, 5-bromo-3-nitro-;2-Pyridinol, 5-bromo-3-nitro-;5-Bromo-3-nitro-2(1<em>H</em>)-pyridinone;2-Hydroxy-3-nitro-5-bromopyridine;5-Bromo-2-hydroxy-3-nitropyridine;NSC 170563;5-Bromo-3-nitro-2-hydroxypyridine;5-Bromo-3-nitropyridin-2-ol;5-Bromo-3-nitropyridin-2(1<em>H</em>)-one;5-Bromo-3-nitropyridin-2-one",
    "duplicated_cas_no": "",
    "SMILES": "N(=O)(=O)C=1C(=O)NC=C(Br)C1",
    "meta_data": {
        "InChI": "InChI=1S/C5H3BrN2O3/c6-3-1-4(8(10)11)5(9)7-2-3/h1-2H,(H,7,9)",
        "InChIKey": null,
        "Canonical SMILES": "O=C1NC=C(Br)C=C1N(=O)=O",
        "Molecular Formula": "C<sub>5</sub>H<sub>3</sub>BrN<sub>2</sub>O<sub>3</sub>",
        "Molecular Mass": "218.99",
        "Melting Point": "237-238 °C"
    }
}