{
    "cas_no": "91424-40-7",
    "key_name": "4-[[(1,1-Dimethylethyl)dimethylsilyl]oxy]dihydro-2<em>H</em>-pyran-2,6(3<em>H</em>)-dione",
    "cn_name": "3-叔丁基二甲硅氧基戊二酸酐;",
    "alternate_name": "2<em>H</em>-Pyran-2,6(3<em>H</em>)-dione, 4-[[(1,1-dimethylethyl)dimethylsilyl]oxy]dihydro-;4-[[(1,1-Dimethylethyl)dimethylsilyl]oxy]dihydro-2<em>H</em>-pyran-2,6(3<em>H</em>)-dione;3-[(<em>tert</em>-Butyldimethylsilyl)oxy]glutaric anhydride",
    "duplicated_cas_no": "138940-47-3",
    "SMILES": "O([Si](C(C)(C)C)(C)C)C1CC(=O)OC(=O)C1",
    "meta_data": {
        "InChI": "InChI=1S/C11H20O4Si/c1-11(2,3)16(4,5)15-8-6-9(12)14-10(13)7-8/h8H,6-7H2,1-5H3",
        "InChIKey": null,
        "Canonical SMILES": "O=C1OC(=O)CC(O[Si](C)(C)C(C)(C)C)C1",
        "Molecular Formula": "C<sub>11</sub>H<sub>20</sub>O<sub>4</sub>Si",
        "Molecular Mass": "244.36",
        "Melting Point": "80-81 °C"
    }
}