{
    "cas_no": "66127-01-3",
    "key_name": "3-Bromo-1,10-phenanthroline",
    "cn_name": "3-溴-1,10-菲罗啉;",
    "alternate_name": "1,10-Phenanthroline, 3-bromo-;3-Bromo-1,10-phenanthroline",
    "duplicated_cas_no": "",
    "SMILES": "BrC1=CC=2C(=C3C(=CC2)C=CC=N3)N=C1",
    "meta_data": {
        "InChI": "InChI=1S/C12H7BrN2/c13-10-6-9-4-3-8-2-1-5-14-11(8)12(9)15-7-10/h1-7H",
        "InChIKey": null,
        "Canonical SMILES": "BrC=1C=NC2=C(C=CC3=CC=CN=C32)C1",
        "Molecular Formula": "C<sub>12</sub>H<sub>7</sub>BrN<sub>2</sub>",
        "Molecular Mass": "259.10",
        "Melting Point": "169-170 °C"
    }
}