{
    "cas_no": "77-89-4",
    "key_name": "Acetyl triethyl citrate",
    "cn_name": "乙酰柠檬酸三乙酯;",
    "alternate_name": "1,2,3-Propanetricarboxylic acid, 2-(acetyloxy)-, 1,2,3-triethyl ester;Citric acid, triethyl ester, acetate;1,2,3-Propanetricarboxylic acid, 2-(acetyloxy)-, triethyl ester;Acetyl triethyl citrate;Triethyl acetylcitrate;Triethyl citrate acetate;Triethyl 2-acetoxy-1,2,3-propanetricarboxylate;Citroflex A 2;ATEC;NSC 3887;Citrofol AII;Morflex ATEC;Citrofol A 2",
    "duplicated_cas_no": "",
    "SMILES": "C(CC(OCC)=O)(CC(OCC)=O)(C(OCC)=O)OC(C)=O",
    "meta_data": {
        "InChI": "InChI=1S/C14H22O8/c1-5-19-11(16)8-14(22-10(4)15,13(18)21-7-3)9-12(17)20-6-2/h5-9H2,1-4H3",
        "InChIKey": null,
        "Canonical SMILES": "O=C(OC(C(=O)OCC)(CC(=O)OCC)CC(=O)OCC)C",
        "Molecular Formula": "C<sub>14</sub>H<sub>22</sub>O<sub>8</sub>",
        "Molecular Mass": "318.32",
        "Boiling Point": "92-93 °C @ Press: 0.045 Torr",
        "Density": "1.1421 g/cm³ @ Temp: 20.000 °C; Press: 759.8 Torr"
    }
}