{
    "cas_no": "7507-48-4",
    "key_name": "1,4-Benzenediol, 2-(1,1-dimethylethyl)-, 1,4-diacetate",
    "cn_name": null,
    "alternate_name": "1,4-Benzenediol, 2-(1,1-dimethylethyl)-, 1,4-diacetate;1,4-Benzenediol, 2-(1,1-dimethylethyl)-, diacetate;Hydroquinone, <em>tert</em>-butyl-, diacetate;NSC 407992",
    "duplicated_cas_no": "128805-32-3",
    "SMILES": "O(C(C)=O)C1=C(C(C)(C)C)C=C(OC(C)=O)C=C1",
    "meta_data": {
        "InChI": "InChI=1S/C14H18O4/c1-9(15)17-11-6-7-13(18-10(2)16)12(8-11)14(3,4)5/h6-8H,1-5H3",
        "InChIKey": null,
        "Canonical SMILES": "O=C(OC1=CC=C(OC(=O)C)C(=C1)C(C)(C)C)C",
        "Molecular Formula": "C<sub>14</sub>H<sub>18</sub>O<sub>4</sub>",
        "Molecular Mass": "250.29",
        "Melting Point": "63.5-64.5 °C"
    }
}