{
    "cas_no": "7355-58-0",
    "key_name": "<em>N</em>-(2-Chloroethyl)acetamide",
    "cn_name": null,
    "alternate_name": "Acetamide, <em>N</em>-(2-chloroethyl)-;<em>N</em>-(2-Chloroethyl)acetamide;<em>N</em>-Acetyl-2-chloroethylamine;NSC 30247",
    "duplicated_cas_no": "",
    "SMILES": "N(C(C)=O)CCCl",
    "meta_data": {
        "InChI": "InChI=1S/C4H8ClNO/c1-4(7)6-3-2-5/h2-3H2,1H3,(H,6,7)",
        "InChIKey": null,
        "Canonical SMILES": "O=C(NCCCl)C",
        "Molecular Formula": "C<sub>4</sub>H<sub>8</sub>ClNO",
        "Molecular Mass": "121.57",
        "Boiling Point": "135-136 °C @ Press: 10 Torr",
        "Density": "1.163 g/cm³ @ Temp: 20 °C"
    }
}