{
    "cas_no": "3366-72-1",
    "key_name": "<em>P</em>-(4-Methylphenyl)phosphonic acid",
    "cn_name": null,
    "alternate_name": "Phosphonic acid, <em>P</em>-(4-methylphenyl)-;Phosphonic acid, <em>p</em>-tolyl-;Phosphonic acid, (4-methylphenyl)-;<em>P</em>-(4-Methylphenyl)phosphonic acid;4-Methylphenylphosphonic acid;<em>p</em>-Methylphenylphosphonic acid;<em>p</em>-Tolylphosphonic acid;NSC 407830",
    "duplicated_cas_no": "272113-19-6",
    "SMILES": "P(=O)(O)(O)C1=CC=C(C)C=C1",
    "meta_data": {
        "InChI": "InChI=1S/C7H9O3P/c1-6-2-4-7(5-3-6)11(8,9)10/h2-5H,1H3,(H2,8,9,10)",
        "InChIKey": null,
        "Canonical SMILES": "O=P(O)(O)C1=CC=C(C=C1)C",
        "Molecular Formula": "C<sub>7</sub>H<sub>9</sub>O<sub>3</sub>P",
        "Molecular Mass": "172.12",
        "Melting Point": "185 °C"
    }
}