{
    "cas_no": "5402-73-3",
    "key_name": "2,5-Dichlorobenzenesulfonyl chloride",
    "cn_name": null,
    "alternate_name": "Benzenesulfonyl chloride, 2,5-dichloro-;2,5-Dichlorobenzenesulfonyl chloride;2,5-Dichlorophenylsulfonyl chloride;NSC 8545;2,5-Dichlorobenzene-1-sulfonyl chloride",
    "duplicated_cas_no": "",
    "SMILES": "S(Cl)(=O)(=O)C1=C(Cl)C=CC(Cl)=C1",
    "meta_data": {
        "InChI": "InChI=1S/C6H3Cl3O2S/c7-4-1-2-5(8)6(3-4)12(9,10)11/h1-3H",
        "InChIKey": null,
        "Canonical SMILES": "O=S(=O)(Cl)C1=CC(Cl)=CC=C1Cl",
        "Molecular Formula": "C<sub>6</sub>H<sub>3</sub>Cl<sub>3</sub>O<sub>2</sub>S",
        "Molecular Mass": "245.51",
        "Melting Point": "39 °C"
    }
}