{
    "cas_no": "637031-88-0",
    "key_name": "3,3-Difluorocyclobutanol",
    "cn_name": null,
    "alternate_name": "Cyclobutanol, 3,3-difluoro-;3,3-Difluorocyclobutanol;3,3-Difluorocyclobutan-1-ol",
    "duplicated_cas_no": "",
    "SMILES": "FC1(F)CC(O)C1",
    "meta_data": {
        "InChI": "InChI=1S/C4H6F2O/c5-4(6)1-3(7)2-4/h3,7H,1-2H2",
        "InChIKey": null,
        "Canonical SMILES": "FC1(F)CC(O)C1",
        "Molecular Formula": "C<sub>4</sub>H<sub>6</sub>F<sub>2</sub>O",
        "Molecular Mass": "108.09",
        "Boiling Point": "84-86 °C @ Press: 300 mmHg"
    }
}