{
    "cas_no": "7724-76-7",
    "key_name": "Isopentenyladenosine",
    "cn_name": null,
    "alternate_name": "Adenosine, <em>N</em>-(3-methyl-2-buten-1-yl)-;Adenosine, <em>N</em>-(3-methyl-2-butenyl)-;<em>N</em>-(3-Methyl-2-buten-1-yl)adenosine;<em>N</em>-(3-Methyl-2-butenyl)adenosine;Riboprine;<em>N</em><sup>6</sup>-(Δ<sup>2</sup>-Isopentenyl)adenosine;<em>N</em><sup>6</sup>-(2-Isopentenyl)adenosine;6-(3-Methyl-2-butenylamino)-9-β-<span class=\"text-smallcaps\">D</span>-ribofuranosylpurine;6-(3-Methyl-2-butenylamino)purine riboside;<em>N</em>-Isopentenyladenosine;Isopentenyladenosine;<em>N</em><sup>6</sup>-(3-Methyl-2-butenyl)adenosine;6-(γ,γ-Dimethylallylamino)purine riboside;6-(3-Methyl-2-butenylamino)-β,<span class=\"text-smallcaps\">D</span>-ribofuranosylpurine;Isopentenyladenine riboside;2iPA;SQ 22558;6-(3-Methyl-2-butenylamino)-9-β-ribofuranosylpurine;<em>N</em><sup>6</sup>-(Dimethylallyl)adenosine;<em>N</em><sup>6</sup>-(Δ<sup>2</sup>-Isopentenyl)adenine riboside;Isopentenyladenosine riboside;<em>N</em><sup>6</sup>-(γ,γ-Dimethylallyl)adenosine;2iPR;6-(2-Isopentenyl)adenosine;<em>N</em><sup>6</sup>-Isopentenyladenosine;NSC 105546;IPA;MeSH ID: D007541",
    "duplicated_cas_no": "",
    "SMILES": "O[C@H]1[C@H](N2C=3C(N=C2)=C(NCC=C(C)C)N=CN3)O[C@H](CO)[C@H]1O",
    "meta_data": {
        "InChI": "InChI=1S/C15H21N5O4/c1-8(2)3-4-16-13-10-14(18-6-17-13)20(7-19-10)15-12(23)11(22)9(5-21)24-15/h3,6-7,9,11-12,15,21-23H,4-5H2,1-2H3,(H,16,17,18)/t9-,11-,12-,15-/m1/s1",
        "InChIKey": null,
        "Canonical SMILES": "OCC1OC(N2C=NC=3C(=NC=NC32)NCC=C(C)C)C(O)C1O",
        "Molecular Formula": "C<sub>15</sub>H<sub>21</sub>N<sub>5</sub>O<sub>4</sub>",
        "Molecular Mass": "335.36",
        "Melting Point": "142-143 °C"
    }
}