{
    "cas_no": "41442-57-3",
    "key_name": "5-Heptadecylresorcinol",
    "cn_name": null,
    "alternate_name": "1,3-Benzenediol, 5-heptadecyl-;5-Heptadecyl-1,3-benzenediol;5-Heptadecylresorcinol;5-<em>n</em>-Heptadecylresorcinol;1,3-Dihydroxy-5-heptadecylbenzene;AR-C17",
    "duplicated_cas_no": "",
    "SMILES": "C(CCCCCCCCCCCCCCCC)C1=CC(O)=CC(O)=C1",
    "meta_data": {
        "InChI": "InChI=1S/C23H40O2/c1-2-3-4-5-6-7-8-9-10-11-12-13-14-15-16-17-21-18-22(24)20-23(25)19-21/h18-20,24-25H,2-17H2,1H3",
        "InChIKey": null,
        "Canonical SMILES": "OC=1C=C(O)C=C(C1)CCCCCCCCCCCCCCCCC",
        "Molecular Formula": "C<sub>23</sub>H<sub>40</sub>O<sub>2</sub>",
        "Molecular Mass": "348.56",
        "Melting Point": "91-93 °C"
    }
}