{
    "cas_no": "624-83-9",
    "key_name": "Methyl isocyanate",
    "cn_name": null,
    "alternate_name": "Methane, isocyanato-;Isocyanic acid, methyl ester;Isocyanatomethane;Methyl isocyanate;MIC;NSC 64323;(Methylimino)(oxo)methane",
    "duplicated_cas_no": "",
    "SMILES": "C(=NC)=O",
    "meta_data": {
        "InChI": "InChI=1S/C2H3NO/c1-3-2-4/h1H3",
        "InChIKey": null,
        "Canonical SMILES": "O=C=NC",
        "Molecular Formula": "C<sub>2</sub>H<sub>3</sub>NO",
        "Molecular Mass": "57.05",
        "Boiling Point": "39.1-40.1 °C",
        "Melting Point": "-45 °C",
        "Density": "0.9599 g/cm³ @ Temp: 20 °C"
    }
}