{
    "cas_no": "56-23-5",
    "key_name": "Carbon tetrachloride",
    "cn_name": "四氯化碳;",
    "alternate_name": "Methane, tetrachloro-;Carbon tetrachloride;Tetrachloromethane;Benzinoform;Necatorina;Perchloromethane;Carbon chloride (CCl<sub>4</sub>);Tetrafinol;Tetraform;Carbona;Tetrasol;Flukoids;Univerm;Vermoestricid;R 10 (refrigerant);R 10;Halon 1040;CC m0;NSC 97063;Phenixin;1,1,1,1-Tetrachloromethane;Phenoxin",
    "duplicated_cas_no": "",
    "SMILES": "C(Cl)(Cl)(Cl)Cl",
    "meta_data": {
        "InChI": "InChI=1S/CCl4/c2-1(3,4)5",
        "InChIKey": null,
        "Canonical SMILES": "ClC(Cl)(Cl)Cl",
        "Molecular Formula": "CCl<sub>4</sub>",
        "Molecular Mass": "153.82",
        "Boiling Point": "76.8 °C",
        "Melting Point": "-23 °C",
        "Density": "1.5940 g/cm³ @ Temp: 20 °C"
    }
}