{
    "cas_no": "55066-53-0",
    "key_name": "Ethyl (9<em>Z</em>,12<em>R</em>)-12-hydroxy-9-octadecenoate",
    "cn_name": "蓖麻醇酸乙酯;R-(Z)-12-羟基-9-十八烯酸乙酯;",
    "alternate_name": "9-Octadecenoic acid, 12-hydroxy-, ethyl ester, (9<em>Z</em>,12<em>R</em>)-;9-Octadecenoic acid, 12-hydroxy-, ethyl ester, [<em>R</em>-(<em>Z</em>)]-;Ricinoleic acid, ethyl ester;Ethyl (9<em>Z</em>,12<em>R</em>)-12-hydroxy-9-octadecenoate;Ethyl ricinoleate;Neoricin;(+)-Ethyl ricinoleate",
    "duplicated_cas_no": "7529-32-0",
    "SMILES": "[C@H](C/C=C\\CCCCCCCC(OCC)=O)(CCCCCC)O",
    "meta_data": {
        "InChI": "InChI=1S/C20H38O3/c1-3-5-6-13-16-19(21)17-14-11-9-7-8-10-12-15-18-20(22)23-4-2/h11,14,19,21H,3-10,12-13,15-18H2,1-2H3/b14-11-/t19-/m1/s1",
        "InChIKey": null,
        "Canonical SMILES": "O=C(OCC)CCCCCCCC=CCC(O)CCCCCC",
        "Molecular Formula": "C<sub>20</sub>H<sub>38</sub>O<sub>3</sub>",
        "Molecular Mass": "326.51",
        "Boiling Point": "227-230 °C @ Press: 10 Torr",
        "Density": "0.9182 g/cm³ @ Temp: 20 °C"
    }
}