{
    "cas_no": "4807-55-0",
    "key_name": "Methylrhodanine",
    "cn_name": null,
    "alternate_name": "4-Thiazolidinone, 3-methyl-2-thioxo-;Rhodanine, 3-methyl-;3-Methyl-2-thioxo-4-thiazolidinone;3-Methylrhodanine;Methylrhodanine;<em>N</em>-Methylrhodanine;NSC 14787;NSC 42903;NSC 65351;3-Methyl-2-thioxo-1,3-thiazolidin-4-one;3-Methyl-2-sulfanylidene-1,3-thiazolidin-4-one;3-Methyl-2-thioxo-thiazolidin-4-on",
    "duplicated_cas_no": "",
    "SMILES": "CN1C(=O)CSC1=S",
    "meta_data": {
        "InChI": "InChI=1S/C4H5NOS2/c1-5-3(6)2-8-4(5)7/h2H2,1H3",
        "InChIKey": null,
        "Canonical SMILES": "O=C1N(C(=S)SC1)C",
        "Molecular Formula": "C<sub>4</sub>H<sub>5</sub>NOS<sub>2</sub>",
        "Molecular Mass": "147.22",
        "Melting Point": "195 °C (decomp)"
    }
}