{
    "cas_no": "118072-93-8",
    "key_name": "Zoledronic acid",
    "cn_name": "唑来膦酸;1-羟基-2-(咪唑-1-基)-亚乙基-1,1-二磷酸;",
    "alternate_name": "Phosphonic acid, <em>P</em>,<em>P</em>′-[1-hydroxy-2-(1<em>H</em>-imidazol-1-yl)ethylidene]bis-;Phosphonic acid, [1-hydroxy-2-(1<em>H</em>-imidazol-1-yl)ethylidene]bis-;<em>P</em>,<em>P</em>′-[1-Hydroxy-2-(1<em>H</em>-imidazol-1-yl)ethylidene]bis[phosphonic acid];(1-Hydroxy-2-imidazol-1-ylethylidene)diphosphonic acid;Zoledronic acid;CGP 42446;Zoledronate;Zometa;1-Hydroxy-2-(1<em>H</em>-imidazol-1-yl)ethylidene-1,1-bisphosphonic acid;ZOL 446;2-(Imidazol-1-yl)-1-hydroxy-1,1′-ethylidenediphosphonic acid;BPH 91;Reclast;Orazol;Aclasta;[1-Hydroxy-2-(1<em>H</em>-imidazol-1-yl)-1-phosphonoethyl]phosphonic acid;(1-Hydroxy-2-imidazol-1-yl-1-phosphonoethyl)phosphonic acid;1-Hydroxy-2-(1-imidazolyl)ethane-1,1-diphosphonic acid",
    "duplicated_cas_no": "",
    "SMILES": "C(P(=O)(O)O)(P(=O)(O)O)(CN1C=CN=C1)O",
    "meta_data": {
        "InChI": "InChI=1S/C5H10N2O7P2/c8-5(15(9,10)11,16(12,13)14)3-7-2-1-6-4-7/h1-2,4,8H,3H2,(H2,9,10,11)(H2,12,13,14)",
        "InChIKey": null,
        "Canonical SMILES": "O=P(O)(O)C(O)(CN1C=NC=C1)P(=O)(O)O",
        "Molecular Formula": "C<sub>5</sub>H<sub>10</sub>N<sub>2</sub>O<sub>7</sub>P<sub>2</sub>",
        "Molecular Mass": "272.09",
        "Melting Point": "237-240 °C"
    }
}