{
    "cas_no": "18449-82-6",
    "key_name": "Tetradecyl-β-<span class=\"text-smallcaps\">D</span>-maltoside",
    "cn_name": null,
    "alternate_name": "β-<span class=\"text-smallcaps\">D</smallcap>-Glucopyranoside, tetradecyl 4-<em>O</em>-α-<smallcap>D</span>-glucopyranosyl-;Glucopyranoside, tetradecyl 4-<em>O</em>-α-<span class=\"text-smallcaps\">D</smallcap>-glucopyranosyl-, β-<smallcap>D</span>-;Tetradecyl 4-<em>O</em>-α-<span class=\"text-smallcaps\">D</smallcap>-glucopyranosyl-β-<smallcap>D</span>-glucopyranoside;1-Tetradecyl-β-<span class=\"text-smallcaps\">D</span>-maltoside;Tetradecylmalotoside;Tetradecyl-β-<span class=\"text-smallcaps\">D</span>-maltoside;Tetradecylmaltoside;<em>n</em>-Tetradecyl β-<span class=\"text-smallcaps\">D</span>-maltopyranoside",
    "duplicated_cas_no": "",
    "SMILES": "O([C@@H]1[C@@H](CO)O[C@@H](OCCCCCCCCCCCCCC)[C@H](O)[C@H]1O)[C@H]2O[C@H](CO)[C@@H](O)[C@H](O)[C@H]2O",
    "meta_data": {
        "InChI": "InChI=1S/C26H50O11/c1-2-3-4-5-6-7-8-9-10-11-12-13-14-34-25-23(33)21(31)24(18(16-28)36-25)37-26-22(32)20(30)19(29)17(15-27)35-26/h17-33H,2-16H2,1H3/t17-,18-,19-,20+,21-,22-,23-,24-,25-,26-/m1/s1",
        "InChIKey": null,
        "Canonical SMILES": "OCC1OC(OC2C(O)C(O)C(OCCCCCCCCCCCCCC)OC2CO)C(O)C(O)C1O",
        "Molecular Formula": "C<sub>26</sub>H<sub>50</sub>O<sub>11</sub>",
        "Molecular Mass": "538.67",
        "Melting Point": "97.4 °C"
    }
}