{
    "cas_no": "645-15-8",
    "key_name": "Bis(<em>p</em>-nitrophenyl) phosphate",
    "cn_name": "双(对硝基苯基)磷酸酯;",
    "alternate_name": "Phosphoric acid, bis(4-nitrophenyl) ester;Phosphoric acid, bis(<em>p</em>-nitrophenyl) ester;Phenol, <em>p</em>-nitro-, hydrogen phosphate;Bis(<em>p</em>-nitrophenyl) phosphate;Di-<em>p</em>-nitrophenyl phosphate;BNPP;<em>p</em>-Nitrophenyl monohydrogen phosphate;Bis(4-nitrophenyl) phosphate;Bis(4-nitrophenyl) hydrogen phosphate;Bis(<em>p</em>-nitrophenyl) hydrogen phosphate;NSC 59824;Bis-PNPP",
    "duplicated_cas_no": "100147-02-2",
    "SMILES": "O(P(OC1=CC=C(N(=O)=O)C=C1)(=O)O)C2=CC=C(N(=O)=O)C=C2",
    "meta_data": {
        "InChI": "InChI=1S/C12H9N2O8P/c15-13(16)9-1-5-11(6-2-9)21-23(19,20)22-12-7-3-10(4-8-12)14(17)18/h1-8H,(H,19,20)",
        "InChIKey": null,
        "Canonical SMILES": "O=N(=O)C1=CC=C(OP(=O)(O)OC2=CC=C(C=C2)N(=O)=O)C=C1",
        "Molecular Formula": "C<sub>12</sub>H<sub>9</sub>N<sub>2</sub>O<sub>8</sub>P",
        "Molecular Mass": "340.18",
        "Melting Point": "175 °C"
    }
}