{
    "cas_no": "505-54-4",
    "key_name": "Hexadecanedioic acid",
    "cn_name": "十六烷二酸;",
    "alternate_name": "Hexadecanedioic acid;1,14-Tetradecanedicarboxylic acid;Thapsic acid;<em>n</em>-Tetradecane-ω,ω′-dicarboxylic acid;1,16-Hexadecanedioic acid;α,ω-Tetradecanedicarboxylic acid;NSC 15164",
    "duplicated_cas_no": "",
    "SMILES": "C(CC(O)=O)CCCCCCCCCCCCC(O)=O",
    "meta_data": {
        "InChI": "InChI=1S/C16H30O4/c17-15(18)13-11-9-7-5-3-1-2-4-6-8-10-12-14-16(19)20/h1-14H2,(H,17,18)(H,19,20)",
        "InChIKey": null,
        "Canonical SMILES": "O=C(O)CCCCCCCCCCCCCCC(=O)O",
        "Molecular Formula": "C<sub>16</sub>H<sub>30</sub>O<sub>4</sub>",
        "Molecular Mass": "286.41",
        "Boiling Point": "184-188 °C @ Press: 0.07 Torr",
        "Melting Point": "113 °C"
    }
}