{
    "cas_no": "690-39-1",
    "key_name": "1,1,1,3,3,3-Hexafluoropropane",
    "cn_name": "1,1,1,3,3,3-六氟丙烷;",
    "alternate_name": "Propane, 1,1,1,3,3,3-hexafluoro-;1,1,1,3,3,3-Hexafluoropropane;Bistrifluoromethylmethane;2,2-Dihydroperfluoropropane;R 236fa;HFC 236fa;HCFC 236fa;SUVA 236fa;236fa",
    "duplicated_cas_no": "",
    "SMILES": "C(C(F)(F)F)C(F)(F)F",
    "meta_data": {
        "InChI": "InChI=1S/C3H2F6/c4-2(5,6)1-3(7,8)9/h1H2",
        "InChIKey": null,
        "Canonical SMILES": "FC(F)(F)CC(F)(F)F",
        "Molecular Formula": "C<sub>3</sub>H<sub>2</sub>F<sub>6</sub>",
        "Molecular Mass": "152.04",
        "Boiling Point": "-0.7 °C",
        "Density": "1.32540 g/cm³ (liquid) @ Temp: 35 °C"
    }
}