{
    "cas_no": "24017-47-8",
    "key_name": "Triazophos",
    "cn_name": "三唑磷;O,O-二乙基-O-(1-苯基-1,2,4-三唑-3-基)硫代磷酸酯;",
    "alternate_name": "Phosphorothioic acid, <em>O</em>,<em>O</em>-diethyl <em>O</em>-(1-phenyl-1<em>H</em>-1,2,4-triazol-3-yl) ester;1<em>H</em>-1,2,4-Triazol-3-ol, 1-phenyl-, <em>O</em>-ester with <em>O</em>,<em>O</em>-diethyl phosphorothioate;1-Phenyl-3-(<em>O</em>,<em>O</em>-diethylthionophosphoryl)-1,2,4-triazole;Triazophos;HOE 2960;Hostathion;Hostation;Triazofos;Hostathion 40EC",
    "duplicated_cas_no": "37209-36-2;51142-57-5",
    "SMILES": "O(P(OCC)(OCC)=S)C1=NN(C=N1)C2=CC=CC=C2",
    "meta_data": {
        "InChI": "InChI=1S/C12H16N3O3PS/c1-3-16-19(20,17-4-2)18-12-13-10-15(14-12)11-8-6-5-7-9-11/h5-10H,3-4H2,1-2H3",
        "InChIKey": null,
        "Canonical SMILES": "S=P(OC=1N=CN(N1)C=2C=CC=CC2)(OCC)OCC",
        "Molecular Formula": "C<sub>12</sub>H<sub>16</sub>N<sub>3</sub>O<sub>3</sub>PS",
        "Molecular Mass": "313.31",
        "Melting Point": "2-5 °C",
        "Density": "1.247 g/cm³ @ Temp: 20 °C"
    }
}