{
    "cas_no": "503070-58-4",
    "key_name": "Vilanterol trifenatate",
    "cn_name": null,
    "alternate_name": "Benzeneacetic acid, α,α-diphenyl-, compd. with (α<sup>1</sup><em>R</em>)-α<sup>1</sup>-[[[6-[2-[(2,6-dichlorophenyl)methoxy]ethoxy]hexyl]amino]methyl]-4-hydroxy-1,3-benzenedimethanol (1:1);4-[(<em>R</em>)-2-[[6-[2-(2,6-Dichlorobenzyloxy)ethoxy]hexyl]amino]-1-hydroxyethyl]-2-(hydroxymethyl)phenol triphenylacetate;Vilanterol trifenatate;GW 642444M;Vilanterol triphenylacetate",
    "duplicated_cas_no": "",
    "SMILES": "[C@@H](CNCCCCCCOCCOCC1=C(Cl)C=CC=C1Cl)(O)C2=CC(CO)=C(O)C=C2.C(C(O)=O)(C1=CC=CC=C1)(C2=CC=CC=C2)C3=CC=CC=C3",
    "meta_data": {
        "InChI": "InChI=1S/C24H33Cl2NO5.C20H16O2/c25-21-6-5-7-22(26)20(21)17-32-13-12-31-11-4-2-1-3-10-27-15-24(30)18-8-9-23(29)19(14-18)16-28;21-19(22)20(16-10-4-1-5-11-16,17-12-6-2-7-13-17)18-14-8-3-9-15-18/h5-9,14,24,27-30H,1-4,10-13,15-17H2;1-15H,(H,21,22)/t24-;/m0./s1",
        "InChIKey": null,
        "Canonical SMILES": "O=C(O)C(C=1C=CC=CC1)(C=2C=CC=CC2)C=3C=CC=CC3.ClC1=CC=CC(Cl)=C1COCCOCCCCCCNCC(O)C2=CC=C(O)C(=C2)CO",
        "Molecular Formula": "C<sub>24</sub>H<sub>33</sub>Cl<sub>2</sub>NO<sub>5</sub>.C<sub>20</sub>H<sub>16</sub>O<sub>2</sub>",
        "Molecular Mass": "",
        "Melting Point": "131.9-134.2 °C"
    }
}