{
    "cas_no": "54-21-7",
    "key_name": "Sodium salicylate",
    "cn_name": "水杨酸钠;邻羟基苯甲酸钠;",
    "alternate_name": "Benzoic acid, 2-hydroxy-, sodium salt (1:1);Sodium salicylate;Salicylic acid, monosodium salt;Benzoic acid, 2-hydroxy-, monosodium salt;Aroall;Clin;Enterosalil;Magsalyl;Salicylic acid sodium salt;Sodium salicylate (NaO<sub>3</sub>C<sub>7</sub>H<sub>5</sub>);Monosodium salicylate;Sodium <em>o</em>-hydroxybenzoate;Entrosalyl;Salisod;Glutosalyl;Salsonin;Kerasalicyl;Kerosal;Nadisal;Neo-Salicyl;Sodium 2-hydroxybenzoate;Camporisin;<em>o</em>-Hydroxybenzoic acid monosodium salt;Enterosalicyl;Alysine;Idocyl;Saliject;NaSal 31821-45;MeSH ID: D012980",
    "duplicated_cas_no": "18495-69-7;94413-51-1",
    "SMILES": "C(O)(=O)C1=C(O)C=CC=C1.[Na]",
    "meta_data": {
        "InChI": "InChI=1S/C7H6O3.Na/c8-6-4-2-1-3-5(6)7(9)10;/h1-4,8H,(H,9,10);",
        "InChIKey": null,
        "Canonical SMILES": "[Na].O=C(O)C=1C=CC=CC1O",
        "Molecular Formula": "C<sub>7</sub>H<sub>6</sub>O<sub>3</sub>.Na",
        "Molecular Mass": "",
        "Melting Point": "213 °C (decomp)",
        "Density": "0.999145 g/cm³ @ Temp: 40.000 °C"
    }
}