{
    "cas_no": "144690-92-6",
    "key_name": "Tritylolmesartan medoxomil",
    "cn_name": "三苯甲基奥美沙坦酯;",
    "alternate_name": "1<em>H</em>-Imidazole-5-carboxylic acid, 4-(1-hydroxy-1-methylethyl)-2-propyl-1-[[2′-[1-(triphenylmethyl)-1<em>H</em>-tetrazol-5-yl][1,1′-biphenyl]-4-yl]methyl]-, (5-methyl-2-oxo-1,3-dioxol-4-yl)methyl ester;1,3-Dioxole, 1<em>H</em>-imidazole-5-carboxylic acid deriv.;Tritylolmesartan medoxomil",
    "duplicated_cas_no": "",
    "SMILES": "C(N1C(=NN=N1)C2=C(C=CC=C2)C3=CC=C(CN4C(C(OCC5=C(C)OC(=O)O5)=O)=C(C(C)(C)O)N=C4CCC)C=C3)(C6=CC=CC=C6)(C7=CC=CC=C7)C8=CC=CC=C8",
    "meta_data": {
        "InChI": "InChI=1S/C48H44N6O6/c1-5-17-41-49-43(47(3,4)57)42(45(55)58-31-40-32(2)59-46(56)60-40)53(41)30-33-26-28-34(29-27-33)38-24-15-16-25-39(38)44-50-51-52-54(44)48(35-18-9-6-10-19-35,36-20-11-7-12-21-36)37-22-13-8-14-23-37/h6-16,18-29,57H,5,17,30-31H2,1-4H3",
        "InChIKey": null,
        "Canonical SMILES": "O=C1OC(=C(O1)COC(=O)C2=C(N=C(N2CC=3C=CC(=CC3)C=4C=CC=CC4C5=NN=NN5C(C=6C=CC=CC6)(C=7C=CC=CC7)C=8C=CC=CC8)CCC)C(O)(C)C)C",
        "Molecular Formula": "C<sub>48</sub>H<sub>44</sub>N<sub>6</sub>O<sub>6</sub>",
        "Molecular Mass": "800.90",
        "Melting Point": "103-104 °C"
    }
}