{
    "cas_no": "3918-87-4",
    "key_name": "<span class=\"text-smallcaps\">L</smallcap>-Phenylalanyl-<smallcap>L</span>-alanine",
    "cn_name": null,
    "alternate_name": "<span class=\"text-smallcaps\">L</smallcap>-Alanine, <smallcap>L</span>-phenylalanyl-;Alanine, <em>N</em>-(3-phenyl-<span class=\"text-smallcaps\">L</smallcap>-alanyl)-, <smallcap>L</span>-;<span class=\"text-smallcaps\">L</smallcap>-Alanine, <em>N</em>-<smallcap>L</span>-phenylalanyl-;Alanine, <em>N</em>-(3-phenyl-<span class=\"text-smallcaps\">L</span>-alanyl)-;<span class=\"text-smallcaps\">L</smallcap>-Phenylalanyl-<smallcap>L</span>-alanine;Phenylalanylalanine;20: PN: WO2011146121 PAGE: 114 claimed sequence;339: PN: WO2021146320 SEQID: 339 claimed protein;263: PN: WO2023161197 SEQID: 265 claimed sequence",
    "duplicated_cas_no": "",
    "SMILES": "C([C@@H](C(N[C@H](C(O)=O)C)=O)N)C1=CC=CC=C1",
    "meta_data": {
        "InChI": "InChI=1S/C12H16N2O3/c1-8(12(16)17)14-11(15)10(13)7-9-5-3-2-4-6-9/h2-6,8,10H,7,13H2,1H3,(H,14,15)(H,16,17)/t8-,10-/m0/s1",
        "InChIKey": null,
        "Canonical SMILES": "O=C(O)C(NC(=O)C(N)CC=1C=CC=CC1)C",
        "Molecular Formula": "C<sub>12</sub>H<sub>16</sub>N<sub>2</sub>O<sub>3</sub>",
        "Molecular Mass": "236.27",
        "Melting Point": "241 °C (decomp)",
        "Density": "1.2 g/cm³"
    }
}