{
    "cas_no": "2039-80-7",
    "key_name": "4-Ethenyl-<em>N</em>,<em>N</em>-dimethylbenzenamine",
    "cn_name": "N,N-Dimethyl-4-vinylaniline;",
    "alternate_name": "Benzenamine, 4-ethenyl-<em>N</em>,<em>N</em>-dimethyl-;Aniline, <em>N</em>,<em>N</em>-dimethyl-<em>p</em>-vinyl-;4-Ethenyl-<em>N</em>,<em>N</em>-dimethylbenzenamine;<em>p</em>-(Dimethylamino)styrene;<em>N</em>,<em>N</em>-Dimethyl-<em>p</em>-vinylaniline;4-(<em>N</em>,<em>N</em>-Dimethylamino)styrene;<em>p</em>-(<em>N</em>,<em>N</em>-Dimethylamino)styrene;4-(Dimethylamino)styrene;<em>N</em>,<em>N</em>-Dimethyl-4-vinylaniline;<em>N</em>,<em>N</em>-Dimethyl-<em>p</em>-aminostyrene;<em>p</em>-Vinyldimethylaniline;4-Vinyl-<em>N</em>,<em>N</em>-dimethylaniline;4-Ethenyl-<em>N</em>,<em>N</em>-dimethylaniline;NSC 3471;1-(Dimethylamino)-4-vinylbenzene",
    "duplicated_cas_no": "",
    "SMILES": "N(C)(C)C1=CC=C(C=C)C=C1",
    "meta_data": {
        "InChI": "InChI=1S/C10H13N/c1-4-9-5-7-10(8-6-9)11(2)3/h4-8H,1H2,2-3H3",
        "InChIKey": null,
        "Canonical SMILES": "C=CC1=CC=C(C=C1)N(C)C",
        "Molecular Formula": "C<sub>10</sub>H<sub>13</sub>N",
        "Molecular Mass": "147.22",
        "Boiling Point": "90-91 °C",
        "Melting Point": "16.8 °C",
        "Density": "0.9623-0.9663 g/cm³ @ Temp: 16 °C"
    }
}