{
    "cas_no": "29700-22-9",
    "key_name": "Oxyresveratrol",
    "cn_name": null,
    "alternate_name": "1,3-Benzenediol, 4-[(1<em>E</em>)-2-(3,5-dihydroxyphenyl)ethenyl]-;2,3′,4,5′-Stilbenetetrol, (<em>E</em>)-;1,3-Benzenediol, 4-[2-(3,5-dihydroxyphenyl)ethenyl]-, (<em>E</em>)-;4-[(1<em>E</em>)-2-(3,5-Dihydroxyphenyl)ethenyl]-1,3-benzenediol;Oxyresveratrol;<em>trans</em>-Stilbene-2,4,3′,5′-tetrol;<em>trans</em>-Oxyresveratrol",
    "duplicated_cas_no": "33626-05-0",
    "SMILES": "C(=C/C1=C(O)C=C(O)C=C1)\\C2=CC(O)=CC(O)=C2",
    "meta_data": {
        "InChI": "InChI=1S/C14H12O4/c15-11-4-3-10(14(18)8-11)2-1-9-5-12(16)7-13(17)6-9/h1-8,15-18H/b2-1+",
        "InChIKey": null,
        "Canonical SMILES": "OC1=CC=C(C=CC=2C=C(O)C=C(O)C2)C(O)=C1",
        "Molecular Formula": "C<sub>14</sub>H<sub>12</sub>O<sub>4</sub>",
        "Molecular Mass": "244.24",
        "Melting Point": "201-202.5 °C"
    }
}