{
    "cas_no": "61397-58-8",
    "key_name": "<em>rel</em>-(2<em>R</em>,4<em>S</em>)-2-(2,4-Dichlorophenyl)-2-(1<em>H</em>-imidazol-1-ylmethyl)-1,3-dioxolane-4-methanol",
    "cn_name": null,
    "alternate_name": "1,3-Dioxolane-4-methanol, 2-(2,4-dichlorophenyl)-2-(1<em>H</em>-imidazol-1-ylmethyl)-, (2<em>R</em>,4<em>S</em>)-<em>rel</em>-;1,3-Dioxolane-4-methanol, 2-(2,4-dichlorophenyl)-2-(1<em>H</em>-imidazol-1-ylmethyl)-, <em>cis</em>-;<em>rel</em>-(2<em>R</em>,4<em>S</em>)-2-(2,4-Dichlorophenyl)-2-(1<em>H</em>-imidazol-1-ylmethyl)-1,3-dioxolane-4-methanol",
    "duplicated_cas_no": "68684-88-8",
    "SMILES": "C([C@]1(O[C@@H](CO)CO1)C2=C(Cl)C=C(Cl)C=C2)N3C=CN=C3",
    "meta_data": {
        "InChI": "InChI=1/C14H14Cl2N2O3/c15-10-1-2-12(13(16)5-10)14(8-18-4-3-17-9-18)20-7-11(6-19)21-14/h1-5,9,11,19H,6-8H2/t11-,14-/s2",
        "InChIKey": null,
        "Canonical SMILES": "ClC1=CC=C(C(Cl)=C1)C2(OCC(O2)CO)CN3C=NC=C3",
        "Molecular Formula": "C<sub>14</sub>H<sub>14</sub>Cl<sub>2</sub>N<sub>2</sub>O<sub>3</sub>",
        "Molecular Mass": "329.18",
        "Melting Point": "99-101 °C"
    }
}