{
    "cas_no": "76537-18-3",
    "key_name": "3-Bromo-5-chloro-2-pyrazinamine",
    "cn_name": null,
    "alternate_name": "2-Pyrazinamine, 3-bromo-5-chloro-;Pyrazinamine, 3-bromo-5-chloro-;3-Bromo-5-chloro-2-pyrazinamine;2-Amino-3-bromo-5-chloropyrazine;3-Bromo-5-chloro-2-aminopyrazine;(3-Bromo-5-chloropyrazin-2-yl)amine;3-Bromo-5-chloropyrazin-2-amine",
    "duplicated_cas_no": "",
    "SMILES": "BrC=1C(N)=NC=C(Cl)N1",
    "meta_data": {
        "InChI": "InChI=1S/C4H3BrClN3/c5-3-4(7)8-1-2(6)9-3/h1H,(H2,7,8)",
        "InChIKey": null,
        "Canonical SMILES": "ClC=1N=C(Br)C(=NC1)N",
        "Molecular Formula": "C<sub>4</sub>H<sub>3</sub>BrClN<sub>3</sub>",
        "Molecular Mass": "208.44",
        "Melting Point": "108-110 °C"
    }
}