{
    "cas_no": "22955-73-3",
    "key_name": "1,3-Dimethyl 4-methoxy-1,3-benzenedicarboxylate",
    "cn_name": "4-甲氧基间苯二甲酸二甲酯;",
    "alternate_name": "1,3-Benzenedicarboxylic acid, 4-methoxy-, 1,3-dimethyl ester;Isophthalic acid, 4-methoxy-, dimethyl ester;1,3-Benzenedicarboxylic acid, 4-methoxy-, dimethyl ester;1,3-Dimethyl 4-methoxy-1,3-benzenedicarboxylate;Dimethyl 4-methoxyisophthalate;4-Methoxy-1,3-benzenedicarboxylic acid dimethyl ester;4-Methoxyisophthalic acid dimethyl ester;2-Methoxy-1,5-benzenedicarboxylic acid dimethyl ester",
    "duplicated_cas_no": "",
    "SMILES": "C(OC)(=O)C1=C(OC)C=CC(C(OC)=O)=C1",
    "meta_data": {
        "InChI": "InChI=1S/C11H12O5/c1-14-9-5-4-7(10(12)15-2)6-8(9)11(13)16-3/h4-6H,1-3H3",
        "InChIKey": null,
        "Canonical SMILES": "O=C(OC)C1=CC=C(OC)C(=C1)C(=O)OC",
        "Molecular Formula": "C<sub>11</sub>H<sub>12</sub>O<sub>5</sub>",
        "Molecular Mass": "224.21",
        "Melting Point": "96 °C"
    }
}