{
    "cas_no": "17174-98-0",
    "key_name": "2-Cyanobenzamide",
    "cn_name": "2-氰基苯甲酰胺;",
    "alternate_name": "Benzamide, 2-cyano-;Benzamide, <em>o</em>-cyano-;2-Cyanobenzamide;<em>o</em>-Cyanobenzamide;NSC 28289",
    "duplicated_cas_no": "",
    "SMILES": "C(#N)C1=C(C(N)=O)C=CC=C1",
    "meta_data": {
        "InChI": "InChI=1S/C8H6N2O/c9-5-6-3-1-2-4-7(6)8(10)11/h1-4H,(H2,10,11)",
        "InChIKey": null,
        "Canonical SMILES": "N#CC=1C=CC=CC1C(=O)N",
        "Molecular Formula": "C<sub>8</sub>H<sub>6</sub>N<sub>2</sub>O",
        "Molecular Mass": "146.15",
        "Melting Point": "143-145 °C"
    }
}