{
    "cas_no": "777-44-6",
    "key_name": "3-(Trifluoromethyl)benzenesulfonyl chloride",
    "cn_name": "3-三氟甲基苯磺酰氯;间三氟甲基苯磺酰氯;",
    "alternate_name": "Benzenesulfonyl chloride, 3-(trifluoromethyl)-;<em>m</em>-Toluenesulfonyl chloride, α,α,α-trifluoro-;3-(Trifluoromethyl)benzenesulfonyl chloride;<em>m</em>-(Trifluoromethyl)benzenesulfonyl chloride;α,α,α-Trifluoro-<em>m</em>-toluenesulfonyl chloride;3-Trifluorobenzenesulfonyl chloride;3-Trifluoromethylphenylsulfonyl chloride;Chloro 3-trifluoromethylphenyl sulfone;3-Trifluoromethylbenzensulfonyl chloride;3-(Trifluoromethyl)benzene-1-sulfonyl chloride",
    "duplicated_cas_no": "115596-36-6",
    "SMILES": "C(F)(F)(F)C1=CC(S(Cl)(=O)=O)=CC=C1",
    "meta_data": {
        "InChI": "InChI=1S/C7H4ClF3O2S/c8-14(12,13)6-3-1-2-5(4-6)7(9,10)11/h1-4H",
        "InChIKey": null,
        "Canonical SMILES": "O=S(=O)(Cl)C=1C=CC=C(C1)C(F)(F)F",
        "Molecular Formula": "C<sub>7</sub>H<sub>4</sub>ClF<sub>3</sub>O<sub>2</sub>S",
        "Molecular Mass": "244.62",
        "Boiling Point": "88-90 °C @ Press: 6 Torr",
        "Melting Point": "90-92 °C"
    }
}