{
    "cas_no": "2849-93-6",
    "key_name": "1<em>H</em>-Benzimidazole-2-carboxylic acid",
    "cn_name": "1H-苯并咪唑-2-甲酸;",
    "alternate_name": "1<em>H</em>-Benzimidazole-2-carboxylic acid;2-Benzimidazolecarboxylic acid;2-Carboxybenzimidazole;NSC 31597;NSC 68183;Benzo[<em>d</em>]imidazole-2-carboxylic acid;1<em>H</em>-Benzo[<em>d</em>]imidazole-2-carboxylic acid;1<em>H</em>-1,3-Benzodiazole-2-carboxylic acid",
    "duplicated_cas_no": "",
    "SMILES": "C(O)(=O)C=1NC=2C(N1)=CC=CC2",
    "meta_data": {
        "InChI": "InChI=1S/C8H6N2O2/c11-8(12)7-9-5-3-1-2-4-6(5)10-7/h1-4H,(H,9,10)(H,11,12)",
        "InChIKey": null,
        "Canonical SMILES": "O=C(O)C1=NC=2C=CC=CC2N1",
        "Molecular Formula": "C<sub>8</sub>H<sub>6</sub>N<sub>2</sub>O<sub>2</sub>",
        "Molecular Mass": "162.15",
        "Melting Point": "174 °C (decomp)"
    }
}