{
    "cas_no": "87-00-3",
    "key_name": "(±)-Homatropine",
    "cn_name": "后马托品; 苯基羟乙酰托品碱; 8-甲基-8-氮杂双环[3.2.1]辛烷-3-醇羟基(苯基)乙酸酯;",
    "alternate_name": "Benzeneacetic acid, α-hydroxy-, (3-<em>endo</em>)-8-methyl-8-azabicyclo[3.2.1]oct-3-yl ester;1α<span class=\"text-smallcaps\">H</smallcap>,5α<smallcap>H</span>-Tropan-3α-ol, (±)-mandelate (ester);Benzeneacetic acid, α-hydroxy-, 8-methyl-8-azabicyclo[3.2.1]oct-3-yl ester, <em>endo</em>-(±)-;Homatropin;Homatropine;(±)-Mandelyltropine;Tropine (±)-mandelate (ester);(±)-Mandelic acid 1α<span class=\"text-smallcaps\">H</smallcap>,5α<smallcap>H</span>-tropan-3α-yl ester;Homoatropine;(±)-Homatropine;Benzeneacetic acid, α-hydroxy-, 8-methyl-8-azabicyclo[3.2.1]oct-3-yl ester, <em>endo</em>-;Mandelyltropeine;Tropine mandelate",
    "duplicated_cas_no": "104441-60-3;16175-83-0",
    "SMILES": "O(C(C(O)C1=CC=CC=C1)=O)[C@H]2C[C@@]3(N(C)[C@](C2)(CC3)[H])[H]",
    "meta_data": {
        "InChI": "InChI=1/C16H21NO3/c1-17-12-7-8-13(17)10-14(9-12)20-16(19)15(18)11-5-3-2-4-6-11/h2-6,12-15,18H,7-10H2,1H3/t12-,13+,14+,15?",
        "InChIKey": null,
        "Canonical SMILES": "O=C(OC1CC2N(C)C(CC2)C1)C(O)C=3C=CC=CC3",
        "Molecular Formula": "C<sub>16</sub>H<sub>21</sub>NO<sub>3</sub>",
        "Molecular Mass": "275.34",
        "Melting Point": "99.5 °C"
    }
}