{
    "cas_no": "736-30-1",
    "key_name": "1,2-Bis(4-nitrophenyl)ethane",
    "cn_name": "4,4-二硝基联苄;",
    "alternate_name": "Benzene, 1,1′-(1,2-ethanediyl)bis[4-nitro-;Bibenzyl, 4,4′-dinitro-;1,1′-(1,2-Ethanediyl)bis[4-nitrobenzene];1,2-Bis(<em>p</em>-nitrophenyl)ethane;<em>p</em>,<em>p</em>′-Dinitrodibenzyl;<em>p</em>,<em>p</em>′-Dinitrobibenzyl;4,4′-Dinitrobibenzyl;4,4′-Dinitrodibenzyl;1,2-Ethanediylbis[4-nitrobenzene];1,2-Bis(4-nitrophenyl)ethane;4,4′-Dinitrodihydrostilbene;Bis(<em>p</em>-nitrobenzyl);NSC 60022;NSC 608;1,1′-ethane-1,2-diylbis(4-nitrobenzene);1-Nitro-4-[2-(4-nitrophenyl)ethyl]benzene",
    "duplicated_cas_no": "",
    "SMILES": "N(=O)(=O)C1=CC=C(CCC2=CC=C(N(=O)=O)C=C2)C=C1",
    "meta_data": {
        "InChI": "InChI=1S/C14H12N2O4/c17-15(18)13-7-3-11(4-8-13)1-2-12-5-9-14(10-6-12)16(19)20/h3-10H,1-2H2",
        "InChIKey": null,
        "Canonical SMILES": "O=N(=O)C1=CC=C(C=C1)CCC2=CC=C(C=C2)N(=O)=O",
        "Molecular Formula": "C<sub>14</sub>H<sub>12</sub>N<sub>2</sub>O<sub>4</sub>",
        "Molecular Mass": "272.26",
        "Melting Point": "180.5 °C"
    }
}