{
    "cas_no": "1124-33-0",
    "key_name": "4-Nitropyridine <em>N</em>-oxide",
    "cn_name": "4-硝基吡啶-N-氧化物;",
    "alternate_name": "Pyridine, 4-nitro-, 1-oxide;4-Nitropyridine 1-oxide;4-Nitropyridine <em>N</em>-oxide;4-Nitropyridine oxide;<em>p</em>-Nitropyridine <em>N</em>-oxide;NSC 130895;NSC 5079;4-Nitro-1-oxidopyridine",
    "duplicated_cas_no": "",
    "SMILES": "N(=O)(=O)C=1C=CN(=O)=CC1",
    "meta_data": {
        "InChI": "InChI=1S/C5H4N2O3/c8-6-3-1-5(2-4-6)7(9)10/h1-4H",
        "InChIKey": null,
        "Canonical SMILES": "O=N(=O)C1=CC=N(=O)C=C1",
        "Molecular Formula": "C<sub>5</sub>H<sub>4</sub>N<sub>2</sub>O<sub>3</sub>",
        "Molecular Mass": "140.10",
        "Melting Point": "160.5 °C"
    }
}