{
    "cas_no": "353-66-2",
    "key_name": "Difluorodimethylsilane",
    "cn_name": "二氟二甲基硅烷;二氟二甲基硅烷;",
    "alternate_name": "Silane, difluorodimethyl-;Difluorodimethylsilane;Dimethyldifluorosilane",
    "duplicated_cas_no": "",
    "SMILES": "[Si](C)(C)(F)F",
    "meta_data": {
        "InChI": "InChI=1S/C2H6F2Si/c1-5(2,3)4/h1-2H3",
        "InChIKey": null,
        "Canonical SMILES": "F[Si](F)(C)C",
        "Molecular Formula": "C<sub>2</sub>H<sub>6</sub>F<sub>2</sub>Si",
        "Molecular Mass": "96.15",
        "Boiling Point": "2-3 °C",
        "Melting Point": "-88 °C"
    }
}