{
    "cas_no": "56973-66-1",
    "key_name": "1,1′-[(2<em>R</em>,3<em>R</em>)-2,3-Bis[(4-hydroxy-3-methoxyphenyl)methyl]-1,4-butanediyl] bis[(2<em>E</em>)-3-(4-hydroxy-3-methoxyphenyl)-2-propenoate]",
    "cn_name": null,
    "alternate_name": "2-Propenoic acid, 3-(4-hydroxy-3-methoxyphenyl)-, 1,1′-[(2<em>R</em>,3<em>R</em>)-2,3-bis[(4-hydroxy-3-methoxyphenyl)methyl]-1,4-butanediyl] ester, (2<em>E</em>,2′<em>E</em>)-;2-Propenoic acid, 3-(4-hydroxy-3-methoxyphenyl)-, 2,3-bis[(4-hydroxy-3-methoxyphenyl)methyl]-1,4-butanediyl ester, [<em>R</em>-[<em>R</em>*,<em>R</em>*-(<em>E</em>,<em>E</em>)]]-;2-Propenoic acid, 3-(4-hydroxy-3-methoxyphenyl)-, (2<em>R</em>,3<em>R</em>)-2,3-bis[(4-hydroxy-3-methoxyphenyl)methyl]-1,4-butanediyl ester, (2<em>E</em>,2′<em>E</em>)-;1,1′-[(2<em>R</em>,3<em>R</em>)-2,3-Bis[(4-hydroxy-3-methoxyphenyl)methyl]-1,4-butanediyl] bis[(2<em>E</em>)-3-(4-hydroxy-3-methoxyphenyl)-2-propenoate];9,9′-<em>O</em>-Di-(<em>E</em>)-feruloyl-(-)-secoisolariciresinol;1,4-<em>O</em>-Diferuloylsecoisolariciresinol;9,9′-<em>O</em>-Di-feruloyl-(-)-secoisolariciresinol",
    "duplicated_cas_no": "",
    "SMILES": "[C@H]([C@@H](CC1=CC(OC)=C(O)C=C1)COC(/C=C/C2=CC(OC)=C(O)C=C2)=O)(CC3=CC(OC)=C(O)C=C3)COC(/C=C/C4=CC(OC)=C(O)C=C4)=O",
    "meta_data": {
        "InChI": "InChI=1S/C40H42O12/c1-47-35-19-25(5-11-31(35)41)9-15-39(45)51-23-29(17-27-7-13-33(43)37(21-27)49-3)30(18-28-8-14-34(44)38(22-28)50-4)24-52-40(46)16-10-26-6-12-32(42)36(20-26)48-2/h5-16,19-22,29-30,41-44H,17-18,23-24H2,1-4H3/b15-9+,16-10+/t29-,30-/m0/s1",
        "InChIKey": null,
        "Canonical SMILES": "O=C(OCC(CC1=CC=C(O)C(OC)=C1)C(COC(=O)C=CC2=CC=C(O)C(OC)=C2)CC3=CC=C(O)C(OC)=C3)C=CC4=CC=C(O)C(OC)=C4",
        "Molecular Formula": "C<sub>40</sub>H<sub>42</sub>O<sub>12</sub>",
        "Molecular Mass": "714.75",
        "Melting Point": "181 °C"
    }
}