{
    "cas_no": "104-58-5",
    "key_name": "1-Piperidinepropanol",
    "cn_name": "1-哌啶丙醇;",
    "alternate_name": "1-Piperidinepropanol;3-Piperidino-1-propanol;3-Piperidinopropanol;3-(1-Piperidinyl)propanol;1-(3-Hydroxypropyl)piperidine;3-(Piperidin-1-yl)propan-1-ol;NSC 66531;<em>N</em>-(3-Hydroxypropyl)piperidine;3-(1-Piperidyl)propan-1-ol",
    "duplicated_cas_no": "",
    "SMILES": "C(CCO)N1CCCCC1",
    "meta_data": {
        "InChI": "InChI=1S/C8H17NO/c10-8-4-7-9-5-2-1-3-6-9/h10H,1-8H2",
        "InChIKey": null,
        "Canonical SMILES": "OCCCN1CCCCC1",
        "Molecular Formula": "C<sub>8</sub>H<sub>17</sub>NO",
        "Molecular Mass": "143.23",
        "Boiling Point": "225-228 °C @ Press: 750 Torr",
        "Density": "0.9585 g/cm³ @ Temp: 29 °C"
    }
}