{
    "cas_no": "2516-95-2",
    "key_name": "5-Chloro-2-nitrobenzoic acid",
    "cn_name": "5-氯-2-硝基苯甲酸;",
    "alternate_name": "Benzoic acid, 5-chloro-2-nitro-;5-Chloro-2-nitrobenzoic acid;2-Nitro-5-chlorobenzoic acid;3-Chloro-6-nitrobenzoic acid;6-Nitro-3-chlorobenzoic acid;NSC 59735",
    "duplicated_cas_no": "",
    "SMILES": "N(=O)(=O)C1=C(C(O)=O)C=C(Cl)C=C1",
    "meta_data": {
        "InChI": "InChI=1S/C7H4ClNO4/c8-4-1-2-6(9(12)13)5(3-4)7(10)11/h1-3H,(H,10,11)",
        "InChIKey": null,
        "Canonical SMILES": "O=C(O)C1=CC(Cl)=CC=C1N(=O)=O",
        "Molecular Formula": "C<sub>7</sub>H<sub>4</sub>ClNO<sub>4</sub>",
        "Molecular Mass": "201.56",
        "Melting Point": "138-140 °C"
    }
}