{
    "cas_no": "13053-81-1",
    "key_name": "<em>N</em>-2-Thienylacetamide",
    "cn_name": "2-乙酰氨基噻吩;",
    "alternate_name": "Acetamide, <em>N</em>-2-thienyl-;Thiophene, 2-acetamido-;<em>N</em>-2-Thienylacetamide;2-(Acetylamino)thiophene;2-Acetamidothiophene",
    "duplicated_cas_no": "1638851-41-8",
    "SMILES": "N(C(C)=O)C1=CC=CS1",
    "meta_data": {
        "InChI": "InChI=1S/C6H7NOS/c1-5(8)7-6-3-2-4-9-6/h2-4H,1H3,(H,7,8)",
        "InChIKey": null,
        "Canonical SMILES": "O=C(NC=1SC=CC1)C",
        "Molecular Formula": "C<sub>6</sub>H<sub>7</sub>NOS",
        "Molecular Mass": "141.19",
        "Melting Point": "154-157 °C"
    }
}