{
    "cas_no": "33976-43-1",
    "key_name": "(<em>p</em>-Aminophenyl)trimethoxysilane",
    "cn_name": "对氨基苯基三甲氧基硅烷;",
    "alternate_name": "Benzenamine, 4-(trimethoxysilyl)-;Aniline, <em>p</em>-(trimethoxysilyl)-;4-(Trimethoxysilyl)benzenamine;(<em>p</em>-Aminophenyl)trimethoxysilane;<em>p</em>-(Trimethoxysilyl)aniline;γ-Anilinotrimethoxysilane;(4-Aminophenyl)trimethoxysilane;A 0724;4-(Trimethoxysilyl)aniline;SIA 0599.1D",
    "duplicated_cas_no": "",
    "SMILES": "[Si](OC)(OC)(OC)C1=CC=C(N)C=C1",
    "meta_data": {
        "InChI": "InChI=1S/C9H15NO3Si/c1-11-14(12-2,13-3)9-6-4-8(10)5-7-9/h4-7H,10H2,1-3H3",
        "InChIKey": null,
        "Canonical SMILES": "O(C)[Si](OC)(OC)C1=CC=C(N)C=C1",
        "Molecular Formula": "C<sub>9</sub>H<sub>15</sub>NO<sub>3</sub>Si",
        "Molecular Mass": "213.31",
        "Boiling Point": "110-114 °C @ Press: 0.6 Torr",
        "Melting Point": "60-62 °C"
    }
}