{
    "cas_no": "2406-34-0",
    "key_name": "1,1-Dichlorosilacyclohexane",
    "cn_name": null,
    "alternate_name": "Silacyclohexane, 1,1-dichloro-;1,1-Dichlorosilacyclohexane;Cyclopentamethylenedichlorosilane;1,1-Dichloro-1-silacyclohexane;NSC 139832;1,1-Dichlorosilinane",
    "duplicated_cas_no": "",
    "SMILES": "Cl[Si]1(Cl)CCCCC1",
    "meta_data": {
        "InChI": "InChI=1S/C5H10Cl2Si/c6-8(7)4-2-1-3-5-8/h1-5H2",
        "InChIKey": null,
        "Canonical SMILES": "Cl[Si]1(Cl)CCCCC1",
        "Molecular Formula": "C<sub>5</sub>H<sub>10</sub>Cl<sub>2</sub>Si",
        "Molecular Mass": "169.12",
        "Boiling Point": "169.5-170.5 °C @ Press: 751 Torr",
        "Density": "1.1668 g/cm³ @ Temp: 10.1 °C"
    }
}