{
    "cas_no": "1789-58-8",
    "key_name": "Dichloroethylsilane",
    "cn_name": "乙基二氯硅烷;",
    "alternate_name": "Silane, dichloroethyl-;Dichloroethylsilane;Ethyldichlorosilane;Monoethyldichlorosilane",
    "duplicated_cas_no": "",
    "SMILES": "[SiH](CC)(Cl)Cl",
    "meta_data": {
        "InChI": "InChI=1S/C2H6Cl2Si/c1-2-5(3)4/h5H,2H2,1H3",
        "InChIKey": null,
        "Canonical SMILES": "Cl[SiH](Cl)CC",
        "Molecular Formula": "C<sub>2</sub>H<sub>6</sub>Cl<sub>2</sub>Si",
        "Molecular Mass": "129.06",
        "Boiling Point": "75.5 °C",
        "Melting Point": "-107 °C",
        "Density": "1.093 g/cm³"
    }
}