{
    "cas_no": "611-95-0",
    "key_name": "4-Benzoylbenzoic acid",
    "cn_name": "4-苯甲酰苯甲酸;",
    "alternate_name": "Benzoic acid, 4-benzoyl-;Benzoic acid, <em>p</em>-benzoyl-;4-Benzoylbenzoic acid;<em>p</em>-Benzoylbenzoic acid;4-Carboxybenzophenone;Benzophenone-4-carboxylic acid;<em>p</em>-Carboxybenzophenone;NSC 37115",
    "duplicated_cas_no": "",
    "SMILES": "C(=O)(C1=CC=C(C(O)=O)C=C1)C2=CC=CC=C2",
    "meta_data": {
        "InChI": "InChI=1S/C14H10O3/c15-13(10-4-2-1-3-5-10)11-6-8-12(9-7-11)14(16)17/h1-9H,(H,16,17)",
        "InChIKey": null,
        "Canonical SMILES": "O=C(O)C1=CC=C(C=C1)C(=O)C=2C=CC=CC2",
        "Molecular Formula": "C<sub>14</sub>H<sub>10</sub>O<sub>3</sub>",
        "Molecular Mass": "226.23",
        "Boiling Point": "203-204 °C @ Press: 1 Torr",
        "Melting Point": "199 °C"
    }
}