{
    "cas_no": "447-14-3",
    "key_name": "(1,2,2-Trifluoroethenyl)benzene",
    "cn_name": "1,2,2-三氟苯乙烯;",
    "alternate_name": "Benzene, (1,2,2-trifluoroethenyl)-;Styrene, α,β,β-trifluoro-;Benzene, (trifluoroethenyl)-;(1,2,2-Trifluoroethenyl)benzene;α,β,β-Trifluorostyrene;NSC 121160;(Trifluoroethenyl)benzene",
    "duplicated_cas_no": "",
    "SMILES": "C(=C(F)F)(F)C1=CC=CC=C1",
    "meta_data": {
        "InChI": "InChI=1S/C8H5F3/c9-7(8(10)11)6-4-2-1-3-5-6/h1-5H",
        "InChIKey": null,
        "Canonical SMILES": "FC(F)=C(F)C=1C=CC=CC1",
        "Molecular Formula": "C<sub>8</sub>H<sub>5</sub>F<sub>3</sub>",
        "Molecular Mass": "158.12",
        "Boiling Point": "66.2-67.5 °C @ Press: 70 Torr",
        "Melting Point": "-24--23 °C",
        "Density": "1.220 g/cm³ @ Temp: 20 °C"
    }
}