{
    "cas_no": "18085-97-7",
    "key_name": "Jaceosidin",
    "cn_name": "棕矢车菊素; 4\",5,7-三羟基-3\",6-二甲氧基黄酮; 4\",5,7-三羟基-3\",6-二甲氧基苯并吡喃-4-酮;",
    "alternate_name": "4<em>H</em>-1-Benzopyran-4-one, 5,7-dihydroxy-2-(4-hydroxy-3-methoxyphenyl)-6-methoxy-;Flavone, 4′,5,7-trihydroxy-3′,6-dimethoxy-;5,7-Dihydroxy-2-(4-hydroxy-3-methoxyphenyl)-6-methoxy-4<em>H</em>-1-benzopyran-4-one;Jaceosidin;3′,6-Dimethoxy-4′,5,7-trihydroxyflavone;4′,5,7-Trihydroxy-3′,6-dimethoxyflavone;4′-Demethyleupatilin;5,7,4′-Trihydroxy-6,3′-dimethoxyflavone;6-Methoxyluteolin 3′-methyl ether;6-Hydroxyluteolin 6,3′-dimethyl ether;Jaseocidin",
    "duplicated_cas_no": "",
    "SMILES": "OC1=C2C(OC(=CC2=O)C3=CC(OC)=C(O)C=C3)=CC(O)=C1OC",
    "meta_data": {
        "InChI": "InChI=1S/C17H14O7/c1-22-13-5-8(3-4-9(13)18)12-6-10(19)15-14(24-12)7-11(20)17(23-2)16(15)21/h3-7,18,20-21H,1-2H3",
        "InChIKey": null,
        "Canonical SMILES": "O=C1C=C(OC2=CC(O)=C(OC)C(O)=C12)C=3C=CC(O)=C(OC)C3",
        "Molecular Formula": "C<sub>17</sub>H<sub>14</sub>O<sub>7</sub>",
        "Molecular Mass": "330.29",
        "Melting Point": "259-260 °C"
    }
}