{
    "cas_no": "4121-40-8",
    "key_name": "9-(1-Propen-1-yl)-9<em>H</em>-purin-6-amine",
    "cn_name": null,
    "alternate_name": "9<em>H</em>-Purin-6-amine, 9-(1-propen-1-yl)-;Adenine, 9-propenyl-;9<em>H</em>-Purin-6-amine, 9-(1-propenyl)-;9-(1-Propen-1-yl)-9<em>H</em>-purin-6-amine",
    "duplicated_cas_no": "",
    "SMILES": "C(=CC)N1C=2C(=C(N)N=CN2)N=C1",
    "meta_data": {
        "InChI": "InChI=1S/C8H9N5/c1-2-3-13-5-12-6-7(9)10-4-11-8(6)13/h2-5H,1H3,(H2,9,10,11)",
        "InChIKey": null,
        "Canonical SMILES": "N=1C=NC2=C(N=CN2C=CC)C1N",
        "Molecular Formula": "C<sub>8</sub>H<sub>9</sub>N<sub>5</sub>",
        "Molecular Mass": "175.19",
        "Melting Point": "197 °C"
    }
}