{
    "cas_no": "375395-33-8",
    "key_name": "Methyltrioctylammonium bis(trifluoromethylsulfonyl)imide",
    "cn_name": null,
    "alternate_name": "1-Octanaminium, <em>N</em>-methyl-<em>N</em>,<em>N</em>-dioctyl-, salt with 1,1,1-trifluoro-<em>N</em>-[(trifluoromethyl)sulfonyl]methanesulfonamide (1:1);Trioctylmethylammonium bis(trifluoromethane sulfone)imide;Methyltrioctylammonium bis(trifluoromethanesulfonyl)imide;Trioctylmethylammonium bis(trifluoromethylsulfonyl)imide;NSC 747259;Methyltrioctylammonium bis(trifluoromethylsulfonyl)imide;Methyltrioctylammonium bistriflamide;Methyltri-<em>n</em>-octylammonium bis(trifluoromethanesulfonyl)imide;Trioctylmethylammonium bis(trifluoromethanesulfonyl)imide;MTOA-TFSI",
    "duplicated_cas_no": "",
    "SMILES": "S([N-]S(C(F)(F)F)(=O)=O)(C(F)(F)F)(=O)=O.[N+](CCCCCCCC)(CCCCCCCC)(CCCCCCCC)C",
    "meta_data": {
        "InChI": "InChI=1S/C25H54N.C2F6NO4S2/c1-5-8-11-14-17-20-23-26(4,24-21-18-15-12-9-6-2)25-22-19-16-13-10-7-3;3-1(4,5)14(10,11)9-15(12,13)2(6,7)8/h5-25H2,1-4H3;/q+1;-1",
        "InChIKey": null,
        "Canonical SMILES": "O=S(=O)([N-]S(=O)(=O)C(F)(F)F)C(F)(F)F.CCCCCCCC[N+](C)(CCCCCCCC)CCCCCCCC",
        "Molecular Formula": "C<sub>25</sub>H<sub>54</sub>N.C<sub>2</sub>F<sub>6</sub>NO<sub>4</sub>S<sub>2</sub>",
        "Molecular Mass": "",
        "Melting Point": "-70.0 °C",
        "Density": "1.0823 g/cm³ @ Temp: 20 °C"
    }
}