{
    "cas_no": "13171-00-1",
    "key_name": "Celestolide",
    "cn_name": "萨利麝香;1-(6-叔丁基-1,1-二甲基-2,3-二氢-1H-茚-4-基)乙酮;",
    "alternate_name": "Ethanone, 1-[6-(1,1-dimethylethyl)-2,3-dihydro-1,1-dimethyl-1<em>H</em>-inden-4-yl]-;Ketone, 6-<em>tert</em>-butyl-1,1-dimethyl-4-indanyl methyl;1-[6-(1,1-Dimethylethyl)-2,3-dihydro-1,1-dimethyl-1<em>H</em>-inden-4-yl]ethanone;4-Acetyl-1,1-dimethyl-6-<em>tert</em>-butylindan;4-Acetyl-6-<em>tert</em>-butyl-1,1-dimethylindan;Celestolide;4-Acetyl-6-<em>tert</em>-butyl-1,1-dimethylindane;Esperone;Crysolide;ADBI;4-Acetyl-1,1-dimethyl-6-<em>tert</em>-butylindane;6-<em>tert</em>-Butyl-1,1-dimethyl-4-indanyl methyl ketone;1-[6-(<em>tert</em>-Butyl)-1,1-dimethyl-2,3-dihydro-1<em>H</em>-inden-4-yl]ethan-1-one;1-(6-(<em>tert</em>-Butyl)-1,1-dimethyl-2,3-dihydro-1<em>H</em>-inden-4-yl)ethanone;1-(6-<em>tert</em>-Butyl-1,1-dimethyl-indan-4-yl)-ethanone",
    "duplicated_cas_no": "88401-65-4",
    "SMILES": "C(C)(=O)C1=C2C(C(C)(C)CC2)=CC(C(C)(C)C)=C1",
    "meta_data": {
        "InChI": "InChI=1S/C17H24O/c1-11(18)14-9-12(16(2,3)4)10-15-13(14)7-8-17(15,5)6/h9-10H,7-8H2,1-6H3",
        "InChIKey": null,
        "Canonical SMILES": "O=C(C=1C=C(C=C2C1CCC2(C)C)C(C)(C)C)C",
        "Molecular Formula": "C<sub>17</sub>H<sub>24</sub>O",
        "Molecular Mass": "244.37",
        "Melting Point": "77.2-77.9 °C"
    }
}