{
    "cas_no": "107585-77-3",
    "key_name": "2,3-Dihydro-5,7-dihydroxy-3-[(4-hydroxyphenyl)methyl]-4<em>H</em>-1-benzopyran-4-one",
    "cn_name": null,
    "alternate_name": "4<em>H</em>-1-Benzopyran-4-one, 2,3-dihydro-5,7-dihydroxy-3-[(4-hydroxyphenyl)methyl]-;2,3-Dihydro-5,7-dihydroxy-3-[(4-hydroxyphenyl)methyl]-4<em>H</em>-1-benzopyran-4-one;5,7-Dihydroxy-3-(4-hydroxybenzyl)chroman-4-one",
    "duplicated_cas_no": "34818-75-2",
    "SMILES": "O=C1C=2C(=CC(O)=CC2O)OCC1CC3=CC=C(O)C=C3",
    "meta_data": {
        "InChI": "InChI=1S/C16H14O5/c17-11-3-1-9(2-4-11)5-10-8-21-14-7-12(18)6-13(19)15(14)16(10)20/h1-4,6-7,10,17-19H,5,8H2",
        "InChIKey": null,
        "Canonical SMILES": "O=C1C=2C(O)=CC(O)=CC2OCC1CC3=CC=C(O)C=C3",
        "Molecular Formula": "C<sub>16</sub>H<sub>14</sub>O<sub>5</sub>",
        "Molecular Mass": "286.28",
        "Melting Point": "162-164 °C"
    }
}