{
    "cas_no": "544-12-7",
    "key_name": "3-Hexen-1-ol",
    "cn_name": "3-己烯-1-醇;",
    "alternate_name": "3-Hexen-1-ol;1-Hydroxy-3-hexene;β-γ-Hexenol",
    "duplicated_cas_no": "",
    "SMILES": "C(=CCC)CCO",
    "meta_data": {
        "InChI": "InChI=1S/C6H12O/c1-2-3-4-5-6-7/h3-4,7H,2,5-6H2,1H3",
        "InChIKey": null,
        "Canonical SMILES": "OCCC=CCC",
        "Molecular Formula": "C<sub>6</sub>H<sub>12</sub>O",
        "Molecular Mass": "100.16",
        "Boiling Point": "156.5 °C",
        "Melting Point": "129-130 °C",
        "Density": "0.8442 g/cm³ @ Temp: 24 °C"
    }
}