{
    "cas_no": "426463-05-0",
    "key_name": "2-Chloro-5-iodo-3-nitropyridine",
    "cn_name": null,
    "alternate_name": "Pyridine, 2-chloro-5-iodo-3-nitro-;2-Chloro-5-iodo-3-nitropyridine",
    "duplicated_cas_no": "",
    "SMILES": "N(=O)(=O)C1=C(Cl)N=CC(I)=C1",
    "meta_data": {
        "InChI": "InChI=1S/C5H2ClIN2O2/c6-5-4(9(10)11)1-3(7)2-8-5/h1-2H",
        "InChIKey": null,
        "Canonical SMILES": "O=N(=O)C1=CC(I)=CN=C1Cl",
        "Molecular Formula": "C<sub>5</sub>H<sub>2</sub>ClIN<sub>2</sub>O<sub>2</sub>",
        "Molecular Mass": "284.44",
        "Melting Point": "77-79 °C"
    }
}