{
    "cas_no": "1859-09-2",
    "key_name": "Ethan-<em>1</em>,<em>1</em>-<em>d</em><sub>2</sub>-ol",
    "cn_name": null,
    "alternate_name": "Ethan-<em>1</em>,<em>1</em>-<em>d</em><sub>2</sub>-ol;Ethyl-<em>1</em>,<em>1</em>-<em>d</em><sub>2</sub> alcohol;Ethanol-<em>1</em>,<em>1</em>-<em>d</em><sub>2</sub>;1,1-Dideuterioethanol",
    "duplicated_cas_no": "",
    "SMILES": "C(C)(O)([2H])[2H]",
    "meta_data": {
        "InChI": "InChI=1S/C2H6O/c1-2-3/h3H,2H2,1H3/i2D2",
        "InChIKey": null,
        "Canonical SMILES": "OCC",
        "Molecular Formula": "C<sub>2</sub>H<sub>4</sub>D<sub>2</sub>O",
        "Molecular Mass": "",
        "Boiling Point": "75-78 °C",
        "Density": "0.824 g/cm³ @ Temp: 20 °C"
    }
}