{
    "cas_no": "17766-28-8",
    "key_name": "1-Cyclohexylpiperazine",
    "cn_name": "1-环己基哌嗪;",
    "alternate_name": "Piperazine, 1-cyclohexyl-;1-Cyclohexylpiperazine;<em>N</em>-Cyclohexylpiperazine;4-Cyclohexylpiperazine",
    "duplicated_cas_no": "",
    "SMILES": "C1(CCCCC1)N2CCNCC2",
    "meta_data": {
        "InChI": "InChI=1S/C10H20N2/c1-2-4-10(5-3-1)12-8-6-11-7-9-12/h10-11H,1-9H2",
        "InChIKey": null,
        "Canonical SMILES": "N1CCN(CC1)C2CCCCC2",
        "Molecular Formula": "C<sub>10</sub>H<sub>20</sub>N<sub>2</sub>",
        "Molecular Mass": "168.28",
        "Boiling Point": "129-131 °C @ Press: 12 Torr"
    }
}