{
    "cas_no": "2107-77-9",
    "key_name": "7,8-Dihydroxy-4-methylcoumarin",
    "cn_name": "7,8-二羟基-4-甲基香豆素;4-甲基瑞香素;",
    "alternate_name": "2<em>H</em>-1-Benzopyran-2-one, 7,8-dihydroxy-4-methyl-;Coumarin, 7,8-dihydroxy-4-methyl-;7,8-Dihydroxy-4-methyl-2<em>H</em>-1-benzopyran-2-one;7,8-Dihydroxy-4-methylcoumarin;4-Methyl-7,8-dihydroxycoumarin;4-Methyldaphnetin;NSC 45795;NSC 72276;7,8-Dihydroxy-4-methyl-chromen-2-one;7,8-Dihydroxy-4-methyl-2<em>H</em>-chromen-2-one",
    "duplicated_cas_no": "",
    "SMILES": "CC=1C=2C(=C(O)C(O)=CC2)OC(=O)C1",
    "meta_data": {
        "InChI": "InChI=1S/C10H8O4/c1-5-4-8(12)14-10-6(5)2-3-7(11)9(10)13/h2-4,11,13H,1H3",
        "InChIKey": null,
        "Canonical SMILES": "O=C1OC=2C(O)=C(O)C=CC2C(=C1)C",
        "Molecular Formula": "C<sub>10</sub>H<sub>8</sub>O<sub>4</sub>",
        "Molecular Mass": "192.17",
        "Melting Point": "238 °C"
    }
}