{
    "cas_no": "62637-93-8",
    "key_name": "Methanamine, <em>N</em>,<em>N</em>-dimethyl-, <em>N</em>-oxide, dihydrate",
    "cn_name": null,
    "alternate_name": "Methanamine, <em>N</em>,<em>N</em>-dimethyl-, <em>N</em>-oxide, dihydrate;Trimethylamine, <em>N</em>-oxide, dihydrate;Trimethylamine oxide dihydrate",
    "duplicated_cas_no": "",
    "SMILES": "N(C)(C)(C)=O.O",
    "meta_data": {
        "InChI": "InChI=1S/C3H9NO.2H2O/c1-4(2,3)5;;/h1-3H3;2*1H2",
        "InChIKey": null,
        "Canonical SMILES": "O=N(C)(C)C.O",
        "Molecular Formula": "C<sub>3</sub>H<sub>9</sub>NO.2H<sub>2</sub>O",
        "Molecular Mass": "",
        "Melting Point": "96 °C"
    }
}