{
    "cas_no": "628-36-4",
    "key_name": "1,2-Hydrazinedicarboxaldehyde",
    "cn_name": "二甲酰肼;",
    "alternate_name": "1,2-Hydrazinedicarboxaldehyde;Hydrazine, 1,2-diformyl-;Bicarbamaldehyde;1,2-Diformylhydrazine;Diformylhydrazine;<em>N</em>,<em>N</em>′-Diformylhydrazine;<em>s</em>-Diformylhydrazine;Diformohydrazide;<em>s</em>-Diformohydrazide;Diformylhydrazide;NSC 54729;<em>N</em>′-Formylformic hydrazine",
    "duplicated_cas_no": "1025436-11-6",
    "SMILES": "N(NC=O)C=O",
    "meta_data": {
        "InChI": "InChI=1S/C2H4N2O2/c5-1-3-4-2-6/h1-2H,(H,3,5)(H,4,6)",
        "InChIKey": null,
        "Canonical SMILES": "O=CNNC=O",
        "Molecular Formula": "C<sub>2</sub>H<sub>4</sub>N<sub>2</sub>O<sub>2</sub>",
        "Molecular Mass": "88.07",
        "Melting Point": "156 °C"
    }
}