{
    "cas_no": "88-05-1",
    "key_name": "2,4,6-Trimethylaniline",
    "cn_name": "均三甲苯胺;2,4,6-三甲基苯胺;",
    "alternate_name": "Benzenamine, 2,4,6-trimethyl-;Aniline, 2,4,6-trimethyl-;2,4,6-Trimethylbenzenamine;Aminomesitylene;Mesidine;Mesitylamine;Mesitylene, 2-amino-;2,4,6-Trimethylaniline;2-Aminomesitylene;Mesidin;2,4,6-Trimethylphenylamine;1-Amino-2,4,6-trimethylbenzene;NSC 31",
    "duplicated_cas_no": "",
    "SMILES": "NC1=C(C)C=C(C)C=C1C",
    "meta_data": {
        "InChI": "InChI=1S/C9H13N/c1-6-4-7(2)9(10)8(3)5-6/h4-5H,10H2,1-3H3",
        "InChIKey": null,
        "Canonical SMILES": "NC=1C(=CC(=CC1C)C)C",
        "Molecular Formula": "C<sub>9</sub>H<sub>13</sub>N",
        "Molecular Mass": "135.21",
        "Boiling Point": "232-234 °C",
        "Melting Point": "-5 °C"
    }
}