{
    "cas_no": "4595-60-2",
    "key_name": "2-Bromopyrimidine",
    "cn_name": "2-溴嘧啶;",
    "alternate_name": "Pyrimidine, 2-bromo-;2-Bromopyrimidine;NSC 88935",
    "duplicated_cas_no": "",
    "SMILES": "BrC=1N=CC=CN1",
    "meta_data": {
        "InChI": "InChI=1S/C4H3BrN2/c5-4-6-2-1-3-7-4/h1-3H",
        "InChIKey": null,
        "Canonical SMILES": "BrC1=NC=CC=N1",
        "Molecular Formula": "C<sub>4</sub>H<sub>3</sub>BrN<sub>2</sub>",
        "Molecular Mass": "158.98",
        "Melting Point": "55.5-57.0 °C"
    }
}