{
    "cas_no": "18643-08-8",
    "key_name": "Octadecyldimethylchlorosilane",
    "cn_name": "二甲基十八烷基氯化硅;",
    "alternate_name": "Silane, chlorodimethyloctadecyl-;Chlorodimethyloctadecylsilane;Octadecylchlorodimethylsilane;Chlorooctadecyldimethylsilane;Dimethyl(octadecyl)silyl chloride;Dimethyl(octyldecyl)silyl chloride;Octadecyldimethylchlorosilane;Dimethyl(octadecyl)chlorosilane;CDOS;<em>n</em>-Octadecyldimethylchlorosilane",
    "duplicated_cas_no": "1247019-88-0;1690317-69-1",
    "SMILES": "C(CCCCCCCCCCCCCCC)CC[Si](C)(C)Cl",
    "meta_data": {
        "InChI": "InChI=1S/C20H43ClSi/c1-4-5-6-7-8-9-10-11-12-13-14-15-16-17-18-19-20-22(2,3)21/h4-20H2,1-3H3",
        "InChIKey": null,
        "Canonical SMILES": "Cl[Si](C)(C)CCCCCCCCCCCCCCCCCC",
        "Molecular Formula": "C<sub>20</sub>H<sub>43</sub>ClSi",
        "Molecular Mass": "347.09",
        "Boiling Point": "159 °C @ Press: 0.1 Torr",
        "Melting Point": "28-30 °C"
    }
}