{
    "cas_no": "5918-93-4",
    "key_name": "1,3-Dihydro-2<em>H</em>-imidazol-2-one",
    "cn_name": "1,3-二氢咪唑-2-酮;1H-咪唑-2(3H)-酮;",
    "alternate_name": "2<em>H</em>-Imidazol-2-one, 1,3-dihydro-;4-Imidazolin-2-one;1,3-Dihydro-2<em>H</em>-imidazol-2-one;ENT 27439;Shell SD 8591;SD 8591;2-Hydroxyimidazole;Imidazol-2-ol;1,3-Dihydroimidazol-2-one;NSC 111046;2,3-Dihydro-1<em>H</em>-imidazol-2-one",
    "duplicated_cas_no": "",
    "SMILES": "O=C1NC=CN1",
    "meta_data": {
        "InChI": "InChI=1S/C3H4N2O/c6-3-4-1-2-5-3/h1-2H,(H2,4,5,6)",
        "InChIKey": null,
        "Canonical SMILES": "O=C1NC=CN1",
        "Molecular Formula": "C<sub>3</sub>H<sub>4</sub>N<sub>2</sub>O",
        "Molecular Mass": "84.08",
        "Melting Point": "240-243 °C"
    }
}