{
    "cas_no": "6000-00-6",
    "key_name": "Methyl (2<em>E</em>)-4-bromo-2-butenoate",
    "cn_name": null,
    "alternate_name": "2-Butenoic acid, 4-bromo-, methyl ester, (2<em>E</em>)-;Crotonic acid, 4-bromo-, methyl ester, (<em>E</em>)-;2-Butenoic acid, 4-bromo-, methyl ester, (<em>E</em>)-;Methyl (2<em>E</em>)-4-bromo-2-butenoate;Methyl (<em>E</em>)-4-bromocrotonate;Methyl (<em>E</em>)-4-bromo-2-butenoate;Methyl <em>trans</em>-4-bromo-2-butenoate;(2<em>E</em>)-4-Bromo-2-butenoic acid methyl ester;<em>trans</em>-4-Bromobut-2-enoic acid methyl ester;(<em>E</em>)-4-Bromobut-2-enoic acid methyl ester;(E)-Methyl 4-bromocrotonate;Methyl <em>trans</em>-4-bromocrotonate;(<em>E</em>)-Methyl 4-bromobut-2-enoate;(E)-Methyl 4-bromobut-2-enoate",
    "duplicated_cas_no": "",
    "SMILES": "C(/C=C/CBr)(OC)=O",
    "meta_data": {
        "InChI": "InChI=1S/C5H7BrO2/c1-8-5(7)3-2-4-6/h2-3H,4H2,1H3/b3-2+",
        "InChIKey": null,
        "Canonical SMILES": "O=C(OC)C=CCBr",
        "Molecular Formula": "C<sub>5</sub>H<sub>7</sub>BrO<sub>2</sub>",
        "Molecular Mass": "179.01",
        "Boiling Point": "83-85 °C @ Press: 13 Torr"
    }
}