{
    "cas_no": "1585-07-5",
    "key_name": "1-Bromo-4-ethylbenzene",
    "cn_name": "对溴乙基苯;对溴乙苯;",
    "alternate_name": "Benzene, 1-bromo-4-ethyl-;1-Bromo-4-ethylbenzene;<em>p</em>-Bromoethylbenzene;4-Ethylbromobenzene;<em>p</em>-Ethylbromobenzene;4-Ethyl-1-bromobenzene;4-Ethylphenyl bromide;4-Bromoethylbenzene;<em>p</em>-Ethylphenyl bromide;NSC 60144;1-Ethyl-4-bromobenzene",
    "duplicated_cas_no": "",
    "SMILES": "C(C)C1=CC=C(Br)C=C1",
    "meta_data": {
        "InChI": "InChI=1S/C8H9Br/c1-2-7-3-5-8(9)6-4-7/h3-6H,2H2,1H3",
        "InChIKey": null,
        "Canonical SMILES": "BrC1=CC=C(C=C1)CC",
        "Molecular Formula": "C<sub>8</sub>H<sub>9</sub>Br",
        "Molecular Mass": "185.06",
        "Boiling Point": "204 °C",
        "Melting Point": "-43.5 °C",
        "Density": "1.3478 g/cm³ @ Temp: 20 °C"
    }
}