{
    "cas_no": "619-90-9",
    "key_name": "Benzenemethanol, 4-nitro-, 1-acetate",
    "cn_name": "乙酸对硝基苯甲酯;",
    "alternate_name": "Benzenemethanol, 4-nitro-, 1-acetate;Benzyl alcohol, <em>p</em>-nitro-, acetate (ester);Benzyl alcohol, <em>p</em>-nitro-, acetate;Benzenemethanol, 4-nitro-, acetate (ester);Acetic acid, <em>p</em>-nitrobenzyl ester;<em>p</em>-Nitrobenzyl acetate;4-Nitrobenzyl acetate;NSC 403575",
    "duplicated_cas_no": "",
    "SMILES": "N(=O)(=O)C1=CC=C(COC(C)=O)C=C1",
    "meta_data": {
        "InChI": "InChI=1S/C9H9NO4/c1-7(11)14-6-8-2-4-9(5-3-8)10(12)13/h2-5H,6H2,1H3",
        "InChIKey": null,
        "Canonical SMILES": "O=C(OCC1=CC=C(C=C1)N(=O)=O)C",
        "Molecular Formula": "C<sub>9</sub>H<sub>9</sub>NO<sub>4</sub>",
        "Molecular Mass": "195.17",
        "Melting Point": "78-80 °C"
    }
}