{
    "cas_no": "4551-51-3",
    "key_name": "<em>rel</em>-(3a<em>R</em>,7a<em>S</em>)-Octahydro-1<em>H</em>-indene",
    "cn_name": "顺式-六氢茚满;顺式双环[4.3.0]壬烷;",
    "alternate_name": "1<em>H</em>-Indene, octahydro-, (3a<em>R</em>,7a<em>S</em>)-<em>rel</em>-;Indan, hexahydro-, <em>cis</em>-;1<em>H</em>-Indene, octahydro-, <em>cis</em>-;<em>rel</em>-(3a<em>R</em>,7a<em>S</em>)-Octahydro-1<em>H</em>-indene;<em>cis</em>-Bicyclo[4.3.0]nonane;<em>cis</em>-Hexahydroindan;<em>cis</em>-Hydrindan;<em>cis</em>-Perhydroindene",
    "duplicated_cas_no": "",
    "SMILES": "[C@@]12([C@](CCC1)(CCCC2)[H])[H]",
    "meta_data": {
        "InChI": "InChI=1/C9H16/c1-2-5-9-7-3-6-8(9)4-1/h8-9H,1-7H2/t8-,9+",
        "InChIKey": null,
        "Canonical SMILES": "C1CCC2CCCC2C1",
        "Molecular Formula": "C<sub>9</sub>H<sub>16</sub>",
        "Molecular Mass": "124.22",
        "Boiling Point": "166 °C @ Press: 765 Torr"
    }
}