{
    "cas_no": "51788-80-8",
    "key_name": "1-(4-Fluoro-2-methoxyphenyl)ethanone",
    "cn_name": "4-氟-2-甲氧基苯乙酮;",
    "alternate_name": "Ethanone, 1-(4-fluoro-2-methoxyphenyl)-;1-(4-Fluoro-2-methoxyphenyl)ethanone;4′-Fluoro-2′-methoxyacetophenone",
    "duplicated_cas_no": "",
    "SMILES": "O(C)C1=C(C(C)=O)C=CC(F)=C1",
    "meta_data": {
        "InChI": "InChI=1S/C9H9FO2/c1-6(11)8-4-3-7(10)5-9(8)12-2/h3-5H,1-2H3",
        "InChIKey": null,
        "Canonical SMILES": "O=C(C1=CC=C(F)C=C1OC)C",
        "Molecular Formula": "C<sub>9</sub>H<sub>9</sub>FO<sub>2</sub>",
        "Molecular Mass": "168.16",
        "Melting Point": "50-51.5 °C"
    }
}