{
    "cas_no": "111-63-7",
    "key_name": "Vinyl stearate",
    "cn_name": "硬脂酸乙烯酯;硬脂酸酯乙烯基;",
    "alternate_name": "Octadecanoic acid, ethenyl ester;Stearic acid, vinyl ester;Vinyl stearate;Vinyl octadecanoate;NSC 20891;NSC 5641",
    "duplicated_cas_no": "96316-89-1",
    "SMILES": "C(CCCCCCCCCCCCCCC)CC(OC=C)=O",
    "meta_data": {
        "InChI": "InChI=1S/C20H38O2/c1-3-5-6-7-8-9-10-11-12-13-14-15-16-17-18-19-20(21)22-4-2/h4H,2-3,5-19H2,1H3",
        "InChIKey": null,
        "Canonical SMILES": "O=C(OC=C)CCCCCCCCCCCCCCCCC",
        "Molecular Formula": "C<sub>20</sub>H<sub>38</sub>O<sub>2</sub>",
        "Molecular Mass": "310.51",
        "Boiling Point": "167 °C",
        "Melting Point": "36.5-37.0 °C",
        "Density": "0.8521 g/cm³ @ Temp: 30 °C"
    }
}