{
    "cas_no": "23672-07-3",
    "key_name": "Levosulpiride",
    "cn_name": "左旋舒必利;(S)-(-)-N-[甲基-(1-乙基-2-吡咯烷基)]-2-甲氧基-5-(氨基磺酰基)-苯甲酰胺;",
    "alternate_name": "Benzamide, 5-(aminosulfonyl)-<em>N</em>-[[(2<em>S</em>)-1-ethyl-2-pyrrolidinyl]methyl]-2-methoxy-;<em>o</em>-Anisamide, <em>N</em>-[(1-ethyl-2-pyrrolidinyl)methyl]-5-sulfamoyl-, (-)-;Benzamide, 5-(aminosulfonyl)-<em>N</em>-[(1-ethyl-2-pyrrolidinyl)methyl]-2-methoxy-, (<em>S</em>)-;5-(Aminosulfonyl)-<em>N</em>-[[(2<em>S</em>)-1-ethyl-2-pyrrolidinyl]methyl]-2-methoxybenzamide;<em>l</em>-Sulpiride;(-)-Sulpiride;<span class=\"text-smallcaps\">L</span>-Sulpiride;<em>S</em>-(-)-Sulpiride;<em>S</em>-Sulpiride;Levosulpiride;Levobren;Levopraid;sulpid;levopride;Lesuride",
    "duplicated_cas_no": "",
    "SMILES": "C(NC[C@H]1N(CC)CCC1)(=O)C2=C(OC)C=CC(S(N)(=O)=O)=C2",
    "meta_data": {
        "InChI": "InChI=1S/C15H23N3O4S/c1-3-18-8-4-5-11(18)10-17-15(19)13-9-12(23(16,20)21)6-7-14(13)22-2/h6-7,9,11H,3-5,8,10H2,1-2H3,(H,17,19)(H2,16,20,21)/t11-/m0/s1",
        "InChIKey": null,
        "Canonical SMILES": "O=C(NCC1N(CC)CCC1)C2=CC(=CC=C2OC)S(=O)(=O)N",
        "Molecular Formula": "C<sub>15</sub>H<sub>23</sub>N<sub>3</sub>O<sub>4</sub>S",
        "Molecular Mass": "341.43",
        "Melting Point": "185-187 °C"
    }
}