{
    "cas_no": "2445-83-2",
    "key_name": "7-Methylcoumarin",
    "cn_name": "7-甲基香豆素;7-甲基香豆素;",
    "alternate_name": "2<em>H</em>-1-Benzopyran-2-one, 7-methyl-;Coumarin, 7-methyl-;7-Methyl-2<em>H</em>-1-benzopyran-2-one;7-Methylcoumarin;NSC 19511;7-Methylchromen-2-one;7-Methyl-2<em>H</em>-chromen-2-one",
    "duplicated_cas_no": "",
    "SMILES": "CC=1C=C2C(C=CC(=O)O2)=CC1",
    "meta_data": {
        "InChI": "InChI=1S/C10H8O2/c1-7-2-3-8-4-5-10(11)12-9(8)6-7/h2-6H,1H3",
        "InChIKey": null,
        "Canonical SMILES": "O=C1OC=2C=C(C=CC2C=C1)C",
        "Molecular Formula": "C<sub>10</sub>H<sub>8</sub>O<sub>2</sub>",
        "Molecular Mass": "160.17",
        "Melting Point": "128 °C"
    }
}