{
    "cas_no": "523-59-1",
    "key_name": "Seselin",
    "cn_name": null,
    "alternate_name": "2<em>H</em>,8<em>H</em>-Benzo[1,2-<em>b</em>:3,4-<em>b</em>′]dipyran-2-one, 8,8-dimethyl-;Seselin;2<em>H</em>-1-Benzopyran-6-acrylic acid, 5-hydroxy-2,2-dimethyl-, δ-lactone;8,8-Dimethyl-2<em>H</em>,8<em>H</em>-benzo[1,2-<em>b</em>:3,4-<em>b</em>′]dipyran-2-one;Amyrolin;Seseline",
    "duplicated_cas_no": "",
    "SMILES": "O=C1OC=2C3=C(C=CC2C=C1)OC(C)(C)C=C3",
    "meta_data": {
        "InChI": "InChI=1S/C14H12O3/c1-14(2)8-7-10-11(17-14)5-3-9-4-6-12(15)16-13(9)10/h3-8H,1-2H3",
        "InChIKey": null,
        "Canonical SMILES": "O=C1OC2=C(C=C1)C=CC=3OC(C=CC32)(C)C",
        "Molecular Formula": "C<sub>14</sub>H<sub>12</sub>O<sub>3</sub>",
        "Molecular Mass": "228.24",
        "Melting Point": "119-124 °C",
        "Density": "1.351 g/cm³ @ Temp: 18 °C"
    }
}