{
    "cas_no": "99-06-9",
    "key_name": "3-Hydroxybenzoic acid",
    "cn_name": "间羟基苯甲酸;",
    "alternate_name": "Benzoic acid, 3-hydroxy-;Benzoic acid, <em>m</em>-hydroxy-;3-Hydroxybenzoic acid;<em>m</em>-Hydroxybenzoic acid;<em>m</em>-Salicylic acid;3-Carboxyphenol;<em>m</em>-Carboxyphenol;NSC 55746",
    "duplicated_cas_no": "",
    "SMILES": "C(O)(=O)C1=CC(O)=CC=C1",
    "meta_data": {
        "InChI": "InChI=1S/C7H6O3/c8-6-3-1-2-5(4-6)7(9)10/h1-4,8H,(H,9,10)",
        "InChIKey": null,
        "Canonical SMILES": "O=C(O)C=1C=CC=C(O)C1",
        "Molecular Formula": "C<sub>7</sub>H<sub>6</sub>O<sub>3</sub>",
        "Molecular Mass": "138.12",
        "Melting Point": "202 °C"
    }
}