{
    "cas_no": "1873-88-7",
    "key_name": "1,1,1,3,5,5,5-Heptamethyltrisiloxane",
    "cn_name": "双三甲基硅氧基甲基硅烷;1,1,1,3,5,5,5-七甲基三硅氧烷;",
    "alternate_name": "Trisiloxane, 1,1,1,3,5,5,5-heptamethyl-;1,1,1,3,5,5,5-Heptamethyltrisiloxane;Methylbis(trimethylsilyloxy)silane;2,2,4,6,6-Pentamethyl-3,5-dioxa-2,4,6-trisilaheptane;Bis(trimethylsilyloxy)methylsilane;Methylbis(trimethylsiloxy)silane;Bis(trimethylsiloxy)methylsilane;1,1,1,3,5,5,5-Heptamethylsiloxane;Heptamethylhydrotrisiloxane;SIB 1844.0;SIB 1844;2-Hydro-1,1,1,2,3,3,3-heptamethyltrisiloxane",
    "duplicated_cas_no": "",
    "SMILES": "O([Si](C)(C)C)[SiH](O[Si](C)(C)C)C",
    "meta_data": {
        "InChI": "InChI=1S/C7H22O2Si3/c1-10(8-11(2,3)4)9-12(5,6)7/h10H,1-7H3",
        "InChIKey": null,
        "Canonical SMILES": "O([SiH](O[Si](C)(C)C)C)[Si](C)(C)C",
        "Molecular Formula": "C<sub>7</sub>H<sub>22</sub>O<sub>2</sub>Si<sub>3</sub>",
        "Molecular Mass": "222.50",
        "Boiling Point": "141-142 °C",
        "Density": "0.813 g/cm³"
    }
}