{
    "cas_no": "598-21-0",
    "key_name": "Bromoacetyl bromide",
    "cn_name": "溴乙酰溴;",
    "alternate_name": "Acetyl bromide, 2-bromo-;Acetyl bromide, bromo-;2-Bromoacetyl bromide;Bromoacetyl bromide;Monobromoacetyl bromide;α-Bromoacetyl bromide",
    "duplicated_cas_no": "",
    "SMILES": "C(CBr)(Br)=O",
    "meta_data": {
        "InChI": "InChI=1S/C2H2Br2O/c3-1-2(4)5/h1H2",
        "InChIKey": null,
        "Canonical SMILES": "O=C(Br)CBr",
        "Molecular Formula": "C<sub>2</sub>H<sub>2</sub>Br<sub>2</sub>O",
        "Molecular Mass": "201.84",
        "Boiling Point": "148.5 °C"
    }
}