{
    "cas_no": "1095-90-5",
    "key_name": "Methadone hydrochloride",
    "cn_name": "盐酸美沙酮;4,4-二苯基-6-(二甲氨基)-3-庚酮盐酸盐;",
    "alternate_name": "3-Heptanone, 6-(dimethylamino)-4,4-diphenyl-, hydrochloride (1:1);3-Heptanone, 6-(dimethylamino)-4,4-diphenyl-, hydrochloride;6-Dimethylamino-4,4-diphenyl-3-heptanone hydrochloride;Methadone hydrochloride;4,4-Diphenyl-6-dimethylamino-3-heptanone hydrochloride;Mecodin;Adolan;Algidon;Algolysin;Butalgin;Depridol;<em>dl</em>-6-Dimethylamino-4,4-diphenyl-3-heptanone hydrochloride;4,4-Diphenyl-6-dimethylamino-3-heptanone hydrochloride (±)-;Dolophin hydrochloride;Fenadon;Fenadone;Hoechst 10820;Ketalgin hydrochloride;<em>dl</em>-Methadone hydrochloride;Miadone;Moheptan;Phenadone hydrochloride;Racemic methadone hydrochloride;(±)-Methadone hydrochloride;Adanon hydrochloride;Diaminon hydrochloride;Polamidon;Dolofin hydrochloride;AN 148;Mephenon;<span class=\"text-smallcaps\">DL</span>-Methadone hydrochloride;Dolophine;Heptadon;Adanon;Methadose;Ketalgin;Amidon;NSC 19600;<span class=\"text-smallcaps\">D</smallcap>,<smallcap>L</span>-Methadone hydrochloride;(±)-Methodone hydrochloride",
    "duplicated_cas_no": "125-56-4;70172-45-1;70181-39-4",
    "SMILES": "C(CC(N(C)C)C)(C(CC)=O)(C1=CC=CC=C1)C2=CC=CC=C2.Cl",
    "meta_data": {
        "InChI": "InChI=1S/C21H27NO.ClH/c1-5-20(23)21(16-17(2)22(3)4,18-12-8-6-9-13-18)19-14-10-7-11-15-19;/h6-15,17H,5,16H2,1-4H3;1H",
        "InChIKey": null,
        "Canonical SMILES": "Cl.O=C(CC)C(C=1C=CC=CC1)(C=2C=CC=CC2)CC(N(C)C)C",
        "Molecular Formula": "C<sub>21</sub>H<sub>27</sub>NO.ClH",
        "Molecular Mass": "",
        "Melting Point": "235 °C"
    }
}