{
    "cas_no": "932-35-4",
    "key_name": "3-Hydroxy-2-pyridinecarbonitrile",
    "cn_name": "2-氰基-3-羟基吡啶;",
    "alternate_name": "2-Pyridinecarbonitrile, 3-hydroxy-;Picolinonitrile, 3-hydroxy-;3-Hydroxy-2-pyridinecarbonitrile;2-Cyano-3-pyridinol;2-Cyano-3-hydroxypyridine;3-Hydroxy-2-cyanopyridine;3-Hydroxypicolinonitrile",
    "duplicated_cas_no": "",
    "SMILES": "C(#N)C1=C(O)C=CC=N1",
    "meta_data": {
        "InChI": "InChI=1S/C6H4N2O/c7-4-5-6(9)2-1-3-8-5/h1-3,9H",
        "InChIKey": null,
        "Canonical SMILES": "N#CC1=NC=CC=C1O",
        "Molecular Formula": "C<sub>6</sub>H<sub>4</sub>N<sub>2</sub>O",
        "Molecular Mass": "120.11",
        "Melting Point": "211-212 °C (decomp)"
    }
}