{
    "cas_no": "3437-95-4",
    "key_name": "2-Iodothiophene",
    "cn_name": "2-碘噻吩;",
    "alternate_name": "Thiophene, 2-iodo-;2-Iodothiophene;2-Thienyl iodide;α-Iodothiophene;NSC 1082",
    "duplicated_cas_no": "",
    "SMILES": "IC1=CC=CS1",
    "meta_data": {
        "InChI": "InChI=1S/C4H3IS/c5-4-2-1-3-6-4/h1-3H",
        "InChIKey": null,
        "Canonical SMILES": "IC=1SC=CC1",
        "Molecular Formula": "C<sub>4</sub>H<sub>3</sub>IS",
        "Molecular Mass": "210.04",
        "Boiling Point": "181 °C",
        "Melting Point": "-40 °C"
    }
}