{
    "cas_no": "6160-65-2",
    "key_name": "Thiocarbonyldiimidazole",
    "cn_name": null,
    "alternate_name": "Methanethione, di-1<em>H</em>-imidazol-1-yl-;Imidazole, 1,1′-(thiocarbonyl)di-;1<em>H</em>-Imidazole, 1,1′-carbonothioylbis-;Di-1<em>H</em>-imidazol-1-ylmethanethione;1,1′-(Thiocarbonyl)diimidazole;Thiocarbonyldiimidazole;<em>N</em>,<em>N</em>′-Thiocarbonyldiimidazole;Thiocarbonylbisimidazole;1,1′-(Thiocarbonyl)bis[imidazole];NSC 141692;1-(1<em>H</em>-Imidazol-1-ylcarbothioyl)-1<em>H</em>-imidazole;Diimidazol-1-ylmethanethione;TCDI;Im<sub>2</sub>CS;Di(1<em>H</em>-imidzazol-1-yl)methanethione;1-(1<em>H</em>-Imidazole-1-carbothioyl)-1<em>H</em>-imidazole;1-(Imidazole-1-carbothioyl)imidazole",
    "duplicated_cas_no": "128456-92-8",
    "SMILES": "C(=S)(N1C=CN=C1)N2C=CN=C2",
    "meta_data": {
        "InChI": "InChI=1S/C7H6N4S/c12-7(10-3-1-8-5-10)11-4-2-9-6-11/h1-6H",
        "InChIKey": null,
        "Canonical SMILES": "S=C(N1C=NC=C1)N2C=NC=C2",
        "Molecular Formula": "C<sub>7</sub>H<sub>6</sub>N<sub>4</sub>S",
        "Molecular Mass": "178.21",
        "Melting Point": "95 °C"
    }
}