{
    "cas_no": "402-63-1",
    "key_name": "3-Fluoro-α-methylbenzenemethanol",
    "cn_name": "1-(3-氟苯基)-1-乙醇;",
    "alternate_name": "Benzenemethanol, 3-fluoro-α-methyl-;Benzyl alcohol, <em>m</em>-fluoro-α-methyl-;3-Fluoro-α-methylbenzenemethanol;1-(3-Fluorophenyl)ethanol;NSC 2996;(±)-1-(<em>m</em>-Fluorophenyl)ethanol;1-(3-Fluorophenyl)ethan-1-ol",
    "duplicated_cas_no": "",
    "SMILES": "C(C)(O)C1=CC(F)=CC=C1",
    "meta_data": {
        "InChI": "InChI=1S/C8H9FO/c1-6(10)7-3-2-4-8(9)5-7/h2-6,10H,1H3",
        "InChIKey": null,
        "Canonical SMILES": "FC1=CC=CC(=C1)C(O)C",
        "Molecular Formula": "C<sub>8</sub>H<sub>9</sub>FO",
        "Molecular Mass": "140.15",
        "Boiling Point": "120-121 °C @ Press: 45 Torr",
        "Density": "1.1201 g/cm³ @ Temp: 20 °C"
    }
}