{
    "cas_no": "3194-70-5",
    "key_name": "6-Ethenyl-1,3,5-triazine-2,4-diamine",
    "cn_name": "2-乙烯基-4,6-二氨基-1,3,5-三嗪;2,4-二氨基-6-乙烯基-S-三嗪;4,6-三氨-1,3,5-三嗪;乙烯胍胺;",
    "alternate_name": "1,3,5-Triazine-2,4-diamine, 6-ethenyl-;<em>s</em>-Triazine, 2,4-diamino-6-vinyl-;6-Ethenyl-1,3,5-triazine-2,4-diamine;6-Vinylguanamine;2,4-Diamino-6-vinyl-1,3,5-triazine;2,4-Diamino-6-vinyl-<em>s</em>-triazine;2-Vinyl-4,6-diamino-<em>s</em>-triazine;4,6-Diamino-2-vinyl-<em>s</em>-triazine;VT (crosslinking agent);VT;2,4-Diamino-6-vinyltriazine;2-Vinyl-4,6-diamino-1,3,5-triazine;Curezol VT;4,6-Diamino-2-vinyl-1,3,5-triazine",
    "duplicated_cas_no": "",
    "SMILES": "C(=C)C=1N=C(N)N=C(N)N1",
    "meta_data": {
        "InChI": "InChI=1S/C5H7N5/c1-2-3-8-4(6)10-5(7)9-3/h2H,1H2,(H4,6,7,8,9,10)",
        "InChIKey": null,
        "Canonical SMILES": "N=1C(=NC(=NC1N)C=C)N",
        "Molecular Formula": "C<sub>5</sub>H<sub>7</sub>N<sub>5</sub>",
        "Molecular Mass": "137.14",
        "Melting Point": "239-241 °C"
    }
}