{
    "cas_no": "18829-55-5",
    "key_name": "<em>trans</em>-2-Heptenal",
    "cn_name": null,
    "alternate_name": "2-Heptenal, (2<em>E</em>)-;2-Heptenal, (<em>E</em>)-;(2<em>E</em>)-2-Heptenal;<em>trans</em>-2-Heptenal;2-<em>trans</em>-Heptenal;<em>n</em>-Hept-<em>trans</em>-2-enal;(<em>E</em>)-2-Heptenal;(<em>E</em>)-2-Hepten-1-al;(2<em>E</em>)-Heptenal;<em>trans</em>-2-Hepten-1-al",
    "duplicated_cas_no": "",
    "SMILES": "C(/C=C/C=O)CCC",
    "meta_data": {
        "InChI": "InChI=1S/C7H12O/c1-2-3-4-5-6-7-8/h5-7H,2-4H2,1H3/b6-5+",
        "InChIKey": null,
        "Canonical SMILES": "O=CC=CCCCC",
        "Molecular Formula": "C<sub>7</sub>H<sub>12</sub>O",
        "Molecular Mass": "112.17",
        "Boiling Point": "70-73 °C @ Press: 19 Torr"
    }
}