{
    "cas_no": "10453-89-1",
    "key_name": "Chrysanthemic acid",
    "cn_name": null,
    "alternate_name": "Cyclopropanecarboxylic acid, 2,2-dimethyl-3-(2-methyl-1-propen-1-yl)-;Cyclopropanecarboxylic acid, 2,2-dimethyl-3-(2-methylpropenyl)-;Cyclopropanecarboxylic acid, 2,2-dimethyl-3-(2-methyl-1-propenyl)-;Chrysanthemummonocarboxylic acid;2,2-Dimethyl-3-(2-methyl-1-propen-1-yl)cyclopropanecarboxylic acid;Chrysanthemic acid;Chrysanthemumic acid;3-Isobutenyl-2,2-dimethylcyclopropanecarboxylic acid;2,2-Dimethyl-3-(2-methyl-1-propenyl)cyclopropanecarboxylic acid;NSC 11779;3,3-Dimethyl-2-(2-methyl-1-propenyl)cyclopropanecarboxylic acid;2,2-Dimethyl-3-(2-methyl-propenyl)-cyclopropanecarboxylic acid;2,2-Dimethyl-3-(2-methylprop-1-en-1-yl)cyclopropane-1-carboxylic acid",
    "duplicated_cas_no": "497-68-7;30636-83-0",
    "SMILES": "C(O)(=O)C1C(C=C(C)C)C1(C)C",
    "meta_data": {
        "InChI": "InChI=1S/C10H16O2/c1-6(2)5-7-8(9(11)12)10(7,3)4/h5,7-8H,1-4H3,(H,11,12)",
        "InChIKey": null,
        "Canonical SMILES": "O=C(O)C1C(C=C(C)C)C1(C)C",
        "Molecular Formula": "C<sub>10</sub>H<sub>16</sub>O<sub>2</sub>",
        "Molecular Mass": "168.23",
        "Boiling Point": "95 °C @ Press: 0.12 Torr",
        "Melting Point": "50-51 °C"
    }
}