{
    "cas_no": "696-45-7",
    "key_name": "6-Methoxy-4-pyrimidinamine",
    "cn_name": null,
    "alternate_name": "4-Pyrimidinamine, 6-methoxy-;Pyrimidine, 4-amino-6-methoxy-;6-Methoxy-4-pyrimidinamine;4-Amino-6-methoxypyrimidine;6-Methoxy-4-aminopyrimidine;6-Methoxypyrimidin-4-amine",
    "duplicated_cas_no": "",
    "SMILES": "O(C)C=1C=C(N)N=CN1",
    "meta_data": {
        "InChI": "InChI=1S/C5H7N3O/c1-9-5-2-4(6)7-3-8-5/h2-3H,1H3,(H2,6,7,8)",
        "InChIKey": null,
        "Canonical SMILES": "N=1C=NC(N)=CC1OC",
        "Molecular Formula": "C<sub>5</sub>H<sub>7</sub>N<sub>3</sub>O",
        "Molecular Mass": "125.13",
        "Melting Point": "150-151 °C"
    }
}