{
    "cas_no": "66230-04-4",
    "key_name": "Esfenvalerate",
    "cn_name": "S-氰戊菊酯;(S)-alpha-氰基-3-苯氧基苄基-(S)-2-(4-氯苯基)-3-甲基丁酸酯;",
    "alternate_name": "Benzeneacetic acid, 4-chloro-α-(1-methylethyl)-, (<em>S</em>)-cyano(3-phenoxyphenyl)methyl ester, (α<em>S</em>)-;Benzeneacetic acid, 4-chloro-α-(1-methylethyl)-, cyano(3-phenoxyphenyl)methyl ester, [<em>S</em>-(<em>R</em>*,<em>R</em>*)]-;Fenvalerate α;(<em>S</em>)-α-Cyano-3-phenoxybenzyl (<em>S</em>)-2-(4-chlorophenyl)isovalerate;S 5602Aα;Esfenvalerate;Fenvalerate Aα;Aα;OMS 3023;Sumicidin Aα;Sumi-alpha;S 1844;Sumi-alfa;Asana;(<em>S</em>,<em>S</em>)-Fenvalerate;Asana XL;Sumidan;α-Sum;1<em>S</em>,1′<em>S</em>-Fenvalerate;Sumi-Gold;Soumi Gold",
    "duplicated_cas_no": "72650-28-3",
    "SMILES": "[C@H](C(O[C@H](C#N)C1=CC(OC2=CC=CC=C2)=CC=C1)=O)([C@H](C)C)C3=CC=C(Cl)C=C3",
    "meta_data": {
        "InChI": "InChI=1S/C25H22ClNO3/c1-17(2)24(18-11-13-20(26)14-12-18)25(28)30-23(16-27)19-7-6-10-22(15-19)29-21-8-4-3-5-9-21/h3-15,17,23-24H,1-2H3/t23-,24+/m1/s1",
        "InChIKey": null,
        "Canonical SMILES": "N#CC(OC(=O)C(C1=CC=C(Cl)C=C1)C(C)C)C=2C=CC=C(OC=3C=CC=CC3)C2",
        "Molecular Formula": "C<sub>25</sub>H<sub>22</sub>ClNO<sub>3</sub>",
        "Molecular Mass": "419.90",
        "Boiling Point": "151-167 °C",
        "Melting Point": "59-60.2 °C",
        "Density": "1.175 g/cm³ @ Temp: 25 °C"
    }
}