{
    "cas_no": "3316-24-3",
    "key_name": "2-Methoxy-β-nitrostyrene",
    "cn_name": "1-(2-甲氧苯基)-2-硝基乙烯;2-甲氧基-beta-硝基苯乙烯;",
    "alternate_name": "Benzene, 1-methoxy-2-(2-nitroethenyl)-;Anisole, <em>o</em>-(2-nitrovinyl)-;1-Methoxy-2-(2-nitroethenyl)benzene;<em>o</em>-Methoxy-β-nitrostyrene;2-(2-Nitrovinyl)anisole;2-Methoxy-β-nitrostyrene;NSC 170699;NSC 59450;1-Methoxy-2-(2-nitrovinyl)benzene;1-Nitro-2-(2-methoxyphenyl)ethylene;1-(2-Methoxyphenyl)-2-nitroethene",
    "duplicated_cas_no": "",
    "SMILES": "C(=CN(=O)=O)C1=C(OC)C=CC=C1",
    "meta_data": {
        "InChI": "InChI=1S/C9H9NO3/c1-13-9-5-3-2-4-8(9)6-7-10(11)12/h2-7H,1H3",
        "InChIKey": null,
        "Canonical SMILES": "O=N(=O)C=CC=1C=CC=CC1OC",
        "Molecular Formula": "C<sub>9</sub>H<sub>9</sub>NO<sub>3</sub>",
        "Molecular Mass": "179.17",
        "Melting Point": "47-47.5 °C"
    }
}