{
    "cas_no": "4595-59-9",
    "key_name": "5-Bromopyrimidine",
    "cn_name": "5-溴嘧啶;",
    "alternate_name": "Pyrimidine, 5-bromo-;5-Bromopyrimidine",
    "duplicated_cas_no": "",
    "SMILES": "BrC=1C=NC=NC1",
    "meta_data": {
        "InChI": "InChI=1S/C4H3BrN2/c5-4-1-6-3-7-2-4/h1-3H",
        "InChIKey": null,
        "Canonical SMILES": "BrC=1C=NC=NC1",
        "Molecular Formula": "C<sub>4</sub>H<sub>3</sub>BrN<sub>2</sub>",
        "Molecular Mass": "158.98",
        "Boiling Point": "60-80 °C @ Press: 10 Torr",
        "Melting Point": "71-73 °C"
    }
}