{
    "cas_no": "59469-29-3",
    "key_name": "1<em>H</em>-1,4-Benzodiazepine-2-methanamine, 7-chloro-5-(2-fluorophenyl)-2,3-dihydro-, (2<em>Z</em>)-2-butenedioate (1:2)",
    "cn_name": null,
    "alternate_name": "1<em>H</em>-1,4-Benzodiazepine-2-methanamine, 7-chloro-5-(2-fluorophenyl)-2,3-dihydro-, (2<em>Z</em>)-2-butenedioate (1:2);1<em>H</em>-1,4-Benzodiazepine-2-methanamine, 7-chloro-5-(2-fluorophenyl)-2,3-dihydro-, (<em>Z</em>)-2-butenedioate (1:2);2-Aminomethyl-7-chloro-2,3-dihydro-5-(2-fluorophenyl)-1<em>H</em>-1,4-benzodiazepine dimaleate",
    "duplicated_cas_no": "",
    "SMILES": "ClC=1C=C2C(=NCC(CN)NC2=CC1)C3=C(F)C=CC=C3.C(=C\\C(O)=O)\\C(O)=O",
    "meta_data": {
        "InChI": "InChI=1S/C16H15ClFN3.C4H4O4/c17-10-5-6-15-13(7-10)16(20-9-11(8-19)21-15)12-3-1-2-4-14(12)18;5-3(6)1-2-4(7)8/h1-7,11,21H,8-9,19H2;1-2H,(H,5,6)(H,7,8)/b;2-1-",
        "InChIKey": null,
        "Canonical SMILES": "O=C(O)C=CC(=O)O.FC=1C=CC=CC1C2=NCC(NC=3C=CC(Cl)=CC23)CN",
        "Molecular Formula": "C<sub>16</sub>H<sub>15</sub>ClFN<sub>3</sub>.2C<sub>4</sub>H<sub>4</sub>O<sub>4</sub>",
        "Molecular Mass": "",
        "Melting Point": "196-198 °C"
    }
}