{
    "cas_no": "80-51-3",
    "key_name": "OBSH",
    "cn_name": "4,4\"-氧代双苯磺酰肼;",
    "alternate_name": "Benzenesulfonic acid, 4,4′-oxybis-, 1,1′-dihydrazide;Benzenesulfonic acid, 4,4′-oxydi-, dihydrazide;Benzenesulfonic acid, 4,4′-oxybis-, dihydrazide;Celogen OT;<em>p</em>,<em>p</em>′-Oxybis(benzenesulfohydrazide);<em>p</em>,<em>p</em>′-Oxybis(benzenesulfonyl hydrazide);4,4′-Oxybis(benzenesulfonyl hydrazide);4,4′-Oxydibenzenesulfonic acid dihydrazide;<em>p</em>,<em>p</em>′-Oxybis(benzenesulfonylhydrazine);OBSH;Diphenyl ether 4,4′-disulfohydrazide;Genitron OB;Diphenyl oxide 4,4′-disulfohydrazide;4,4′-Oxydi(benzenesulfonic acid hydrazide);4,4′-Oxybis(benzenesulfonic acid hydrazide);4,4′-Oxybis(benzenesulfonic acid) dihydrazide;Cellmic S;Dihydrazide SDO;<em>p</em>,<em>p</em>′-Oxybis(benzenesulfone hydrazide);Neocellborn P 1000M;FE 9;Neocellborn FE 9;4,4′-Bis(hydrazinosulfonyl)diphenyl ether;Neocellborn P 1000;Neocellborn N 1000S;Neocellborn N 5000;Celogen TO;Neocellborn N 50;AZ-B 95;Unifoam AZ 90;Neocellborn 1000SW;S 250;S 250 (blowing agent);Neocellborn P 100;Unicell OH;N 1000SW;Neocellborn N 1000SW;NSC 5318;4,4′-Oxybis(benzenesulfohydrazide);Neothlene HM 806P;Lagocell BO 20;Celogen OT 1;Neocellborn 1000S;EH 80;EH 80 (blowing agent);Cellmic SX;Neocellborn N 7000;Neothlene HM 80NP;HM 80NP;Akrosperse BBSH75EPR-S;N 1000S;Rhenoslab OBSH 75;Neocellborn N 5000W;Tracel OBSH 160NER;Luvopor OB;Neocellborn 41000S;EE 188E;Neocellborn NT-N;Neocellborn N 1000M;N 1000M;Neocellborn 1000M;150D;4,4-Oxy-bis-(benzenesulphonylhydrazide);4,4′-Oxydibenzenesulfonyl hydrazide;Tracel OBSH;Cellcom OBSH;OT;Blowing Agent OB;JSJ 118-60S;Tracel OBSH 80PR;Neocellborn N 1000;Neocellborn SB 51;OBSH 75;Unifoam AZ 100;OBSH 70GE",
    "duplicated_cas_no": "52737-96-9;54578-37-9;72514-48-8;81775-94-2;88528-25-0;127546-21-8;130256-60-9;158516-79-1;162430-36-6;172672-50-3;470676-56-3;1309923-74-7;1327562-35-5;2050747-28-7;2250212-75-8",
    "SMILES": "S(NN)(=O)(=O)C1=CC=C(OC2=CC=C(S(NN)(=O)=O)C=C2)C=C1",
    "meta_data": {
        "InChI": "InChI=1S/C12H14N4O5S2/c13-15-22(17,18)11-5-1-9(2-6-11)21-10-3-7-12(8-4-10)23(19,20)16-14/h1-8,15-16H,13-14H2",
        "InChIKey": null,
        "Canonical SMILES": "O=S(=O)(NN)C1=CC=C(OC2=CC=C(C=C2)S(=O)(=O)NN)C=C1",
        "Molecular Formula": "C<sub>12</sub>H<sub>14</sub>N<sub>4</sub>O<sub>5</sub>S<sub>2</sub>",
        "Molecular Mass": "358.39",
        "Melting Point": "150-160 °C (decomp)",
        "Density": "1.52 g/cm³"
    }
}