{
    "cas_no": "79055-52-0",
    "key_name": "2,4-Dibromo-6-methylpyridine",
    "cn_name": null,
    "alternate_name": "Pyridine, 2,4-dibromo-6-methyl-;2,4-Dibromo-6-methylpyridine",
    "duplicated_cas_no": "",
    "SMILES": "BrC=1C=C(Br)N=C(C)C1",
    "meta_data": {
        "InChI": "InChI=1S/C6H5Br2N/c1-4-2-5(7)3-6(8)9-4/h2-3H,1H3",
        "InChIKey": null,
        "Canonical SMILES": "BrC=1N=C(C=C(Br)C1)C",
        "Molecular Formula": "C<sub>6</sub>H<sub>5</sub>Br<sub>2</sub>N",
        "Molecular Mass": "250.92",
        "Boiling Point": "230-231 °C",
        "Melting Point": "27 °C"
    }
}