{
    "cas_no": "1852-53-5",
    "key_name": "5α-Androstane-3α,17β-diol",
    "cn_name": "5a-雄甾烷-3a,17b-二醇;雄烷二羟基;",
    "alternate_name": "Androstane-3,17-diol, (3α,5α,17β)-;5α-Androstane-3α,17β-diol;(3α,5α,17β)-Androstane-3,17-diol;3α,17β-Dihydroxy-5α-androstane;Androstane-3α,17β-diol;Etiocholane-3α,17β-diol;Hombreol;Adiol;3α,5α-Tetrahydrotestosterone;NSC 9899;17β-Dihydroandrosterone",
    "duplicated_cas_no": "",
    "SMILES": "C[C@@]12[C@@]3([C@]([C@]4([C@](C)(CC3)[C@@H](O)CC4)[H])(CC[C@]1(C[C@H](O)CC2)[H])[H])[H]",
    "meta_data": {
        "InChI": "InChI=1S/C19H32O2/c1-18-9-7-13(20)11-12(18)3-4-14-15-5-6-17(21)19(15,2)10-8-16(14)18/h12-17,20-21H,3-11H2,1-2H3/t12-,13+,14-,15-,16-,17-,18-,19-/m0/s1",
        "InChIKey": null,
        "Canonical SMILES": "OC1CCC2(C)C(CCC3C4CCC(O)C4(C)CCC32)C1",
        "Molecular Formula": "C<sub>19</sub>H<sub>32</sub>O<sub>2</sub>",
        "Molecular Mass": "292.46",
        "Melting Point": "236-236.5 °C"
    }
}