{
    "cas_no": "59997-51-2",
    "key_name": "Pivaloylacetonitrile",
    "cn_name": "新戊酰基乙腈;氰代频那酮;氰基频那酮;",
    "alternate_name": "Pentanenitrile, 4,4-dimethyl-3-oxo-;Valeronitrile, 4,4-dimethyl-3-oxo-;4,4-Dimethyl-3-oxopentanenitrile;Pivaloylacetonitrile;Pyvaolylacetonitrile;1-Cyano-3,3-dimethyl-2-butanone;Cyanomethyl tert-butyl ketone;(Trimethylacetyl)acetonitrile",
    "duplicated_cas_no": "",
    "SMILES": "C(C(C)(C)C)(CC#N)=O",
    "meta_data": {
        "InChI": "InChI=1S/C7H11NO/c1-7(2,3)6(9)4-5-8/h4H2,1-3H3",
        "InChIKey": null,
        "Canonical SMILES": "N#CCC(=O)C(C)(C)C",
        "Molecular Formula": "C<sub>7</sub>H<sub>11</sub>NO",
        "Molecular Mass": "125.17",
        "Boiling Point": "125-126 °C @ Press: 22 Torr",
        "Melting Point": "68 °C"
    }
}