{
    "cas_no": "13811-50-2",
    "key_name": "<em>N</em>,<em>N</em>′-Divinylethyleneurea",
    "cn_name": "1,3-二乙烯基-2-咪唑啉酮;",
    "alternate_name": "2-Imidazolidinone, 1,3-diethenyl-;2-Imidazolidinone, 1,3-divinyl-;1,3-Diethenyl-2-imidazolidinone;<em>N</em>,<em>N</em>′-Divinyl-2-imidazolidinone;1,3-Divinylimidazolid-2-one;<em>N</em>,<em>N</em>′-Divinylethyleneurea;2-Imidazolidinone, 1,3-diethynyl-;1,3-Diethynylimidazolidin-2-one;<em>N</em>,<em>N</em>′-Divinylimidazolidone;1,3-Divinylimidazolidin-2-one",
    "duplicated_cas_no": "95418-04-5;134367-44-5;71627-15-1",
    "SMILES": "C(=C)N1C(=O)N(C=C)CC1",
    "meta_data": {
        "InChI": "InChI=1S/C7H10N2O/c1-3-8-5-6-9(4-2)7(8)10/h3-4H,1-2,5-6H2",
        "InChIKey": null,
        "Canonical SMILES": "O=C1N(C=C)CCN1C=C",
        "Molecular Formula": "C<sub>7</sub>H<sub>10</sub>N<sub>2</sub>O",
        "Molecular Mass": "138.17",
        "Boiling Point": "120-130 °C @ Press: 3 Torr",
        "Melting Point": "66-70 °C"
    }
}