{
    "cas_no": "196-42-9",
    "key_name": "Naphtho[2,3-<em>a</em>]pyrene",
    "cn_name": null,
    "alternate_name": "Naphtho[2,1,8-<em>qra</em>]naphthacene;Naphtho[2,3-<em>a</em>]pyrene;Naphtho[2,3-<em>b</em>]pyrene;Naphtho[8,1,2-<em>cde</em>]naphthacene",
    "duplicated_cas_no": "",
    "SMILES": "C12=C3C=4C(C=C1C=CC5=C2C(C=C3)=CC=C5)=CC=6C(C4)=CC=CC6",
    "meta_data": {
        "InChI": "InChI=1S/C24H14/c1-2-5-18-14-22-20(12-17(18)4-1)13-19-9-8-15-6-3-7-16-10-11-21(22)24(19)23(15)16/h1-14H",
        "InChIKey": null,
        "Canonical SMILES": "C=1C=CC=2C=C3C(=CC2C1)C=C4C=CC5=CC=CC=6C=CC3=C4C56",
        "Molecular Formula": "C<sub>24</sub>H<sub>14</sub>",
        "Molecular Mass": "302.37",
        "Melting Point": "273 °C"
    }
}