{
    "cas_no": "151613-25-1",
    "key_name": "<em>N</em>,<em>N</em>-Dimethyl-1,1-bis(1-methylethyl)-1-octylsilanamine",
    "cn_name": null,
    "alternate_name": "Silanamine, <em>N</em>,<em>N</em>-dimethyl-1,1-bis(1-methylethyl)-1-octyl-;<em>N</em>,<em>N</em>-Dimethyl-1,1-bis(1-methylethyl)-1-octylsilanamine;1,1-Diisopropyl-<em>N</em>,<em>N</em>-dimethyl-1-octylsilanamine",
    "duplicated_cas_no": "",
    "SMILES": "[Si](CCCCCCCC)(C(C)C)(C(C)C)N(C)C",
    "meta_data": {
        "InChI": "InChI=1S/C16H37NSi/c1-8-9-10-11-12-13-14-18(15(2)3,16(4)5)17(6)7/h15-16H,8-14H2,1-7H3",
        "InChIKey": null,
        "Canonical SMILES": "N(C)(C)[Si](CCCCCCCC)(C(C)C)C(C)C",
        "Molecular Formula": "C<sub>16</sub>H<sub>37</sub>NSi",
        "Molecular Mass": "271.56",
        "Boiling Point": "105 °C @ Press: 0.7 Torr",
        "Density": "0.833 g/cm³"
    }
}