{
    "cas_no": "6404-29-1",
    "key_name": "6-[(<em>tert</em>-Butoxycarbonyl)amino]hexanoic acid",
    "cn_name": "叔丁氧羰酰基6-氨基己酸;",
    "alternate_name": "Hexanoic acid, 6-[[(1,1-dimethylethoxy)carbonyl]amino]-;Hexanoic acid, 6-(carboxyamino)-, <em>N</em>-<em>tert</em>-butyl ester;Hexanoic acid, 6-(carboxyamino)-, 6-<em>tert</em>-butyl ester;6-[[(1,1-Dimethylethoxy)carbonyl]amino]hexanoic acid;<em>N</em>-(<em>tert</em>-Butyloxycarbonyl)-ε-aminocaproic acid;<em>N</em>-(<em>tert</em>-Butoxycarbonyl)-6-aminohexanoic acid;<em>N</em>-(<em>tert</em>-Butoxycarbonyl)-ε-aminohexanoic acid;<em>tert</em>-Butoxycarbonyl-ε-aminocaproic acid;<em>N</em>-(<em>tert</em>-Butoxycarbonyl)-ε-aminocaproic acid;<em>N</em>-(<em>tert</em>-Butoxycarbonyl)-6-aminocaproic acid;BOC-ε-aminocaproic acid;6-[<em>N</em>-(<em>tert</em>-Butoxycarbonyl)amino]caproic acid;<em>N</em>-Boc-aminohexanoic acid;6-(<em>tert</em>-Butoxycarbonylamino)caproic acid;Boc-6-aminohexanoic acid;6-[(<em>tert</em>-Butoxycarbonyl)amino]hexanoic acid;1-<em>tert</em>-Butoxycarbonylamino-6-hexanoic acid;N-BOC-6-aminocaproic acid",
    "duplicated_cas_no": "1260612-19-8",
    "SMILES": "O(C(NCCCCCC(O)=O)=O)C(C)(C)C",
    "meta_data": {
        "InChI": "InChI=1S/C11H21NO4/c1-11(2,3)16-10(15)12-8-6-4-5-7-9(13)14/h4-8H2,1-3H3,(H,12,15)(H,13,14)",
        "InChIKey": null,
        "Canonical SMILES": "O=C(OC(C)(C)C)NCCCCCC(=O)O",
        "Molecular Formula": "C<sub>11</sub>H<sub>21</sub>NO<sub>4</sub>",
        "Molecular Mass": "231.29",
        "Melting Point": "36 °C"
    }
}