{
    "cas_no": "17044-70-1",
    "key_name": "4-Acetyl-2,6-dichlorophenol",
    "cn_name": null,
    "alternate_name": "Ethanone, 1-(3,5-dichloro-4-hydroxyphenyl)-;Acetophenone, 3′,5′-dichloro-4′-hydroxy-;1-(3,5-Dichloro-4-hydroxyphenyl)ethanone;3′,5′-Dichloro-4′-hydroxyacetophenone;4-Acetyl-2,6-dichlorophenol;1-(3,5-Dichloro-4-hydroxyphenyl)ethan-1-one",
    "duplicated_cas_no": "",
    "SMILES": "C(C)(=O)C1=CC(Cl)=C(O)C(Cl)=C1",
    "meta_data": {
        "InChI": "InChI=1S/C8H6Cl2O2/c1-4(11)5-2-6(9)8(12)7(10)3-5/h2-3,12H,1H3",
        "InChIKey": null,
        "Canonical SMILES": "O=C(C1=CC(Cl)=C(O)C(Cl)=C1)C",
        "Molecular Formula": "C<sub>8</sub>H<sub>6</sub>Cl<sub>2</sub>O<sub>2</sub>",
        "Molecular Mass": "205.04",
        "Melting Point": "164-165.5 °C"
    }
}