{
    "cas_no": "877-37-2",
    "key_name": "2-Bromo-1-(4-chlorophenyl)-1-propanone",
    "cn_name": null,
    "alternate_name": "1-Propanone, 2-bromo-1-(4-chlorophenyl)-;Propiophenone, 2-bromo-4′-chloro-;2-Bromo-1-(4-chlorophenyl)-1-propanone;α-Bromo-4′-chloropropiophenone;α-Bromo-<em>p</em>-chloropropiophenone;2-Bromo-4′-chloropropiophenone",
    "duplicated_cas_no": "84958-49-6",
    "SMILES": "C(C(Br)C)(=O)C1=CC=C(Cl)C=C1",
    "meta_data": {
        "InChI": "InChI=1S/C9H8BrClO/c1-6(10)9(12)7-2-4-8(11)5-3-7/h2-6H,1H3",
        "InChIKey": null,
        "Canonical SMILES": "O=C(C1=CC=C(Cl)C=C1)C(Br)C",
        "Molecular Formula": "C<sub>9</sub>H<sub>8</sub>BrClO",
        "Molecular Mass": "247.52",
        "Melting Point": "77-79 °C"
    }
}