{
    "cas_no": "3810-80-8",
    "key_name": "Diphenoxylate hydrochloride",
    "cn_name": "地芬诺酯盐酸盐;",
    "alternate_name": "4-Piperidinecarboxylic acid, 1-(3-cyano-3,3-diphenylpropyl)-4-phenyl-, ethyl ester, hydrochloride (1:1);Isonipecotic acid, 1-(3-cyano-3,3-diphenylpropyl)-4-phenyl-, ethyl ester, monohydrochloride;4-Piperidinecarboxylic acid, 1-(3-cyano-3,3-diphenylpropyl)-4-phenyl-, ethyl ester, monohydrochloride;Isonipecotic acid, 1-(3-cyano-3,3-diphenylpropyl)-4-phenyl-, ethyl ester, hydrochloride;1-(3-Cyano-3,3-diphenylpropyl)-4-phenylpiperidine-4-carboxylic acid ethyl ester hydrochloride;Diphenoxylate hydrochloride;2,2-Diphenyl-4-(4-carbethoxy-4-phenyl-1-piperidino)butyronitrile hydrochloride;2,2-Diphenyl-4-(4-carboxy-4-phenyl-1-piperidino)butyronitrile ethyl ester hydrochloride;R 1132;R 1132 (antiperistaltic)",
    "duplicated_cas_no": "",
    "SMILES": "C(CCN1CCC(C(OCC)=O)(CC1)C2=CC=CC=C2)(C#N)(C3=CC=CC=C3)C4=CC=CC=C4.Cl",
    "meta_data": {
        "InChI": "InChI=1S/C30H32N2O2.ClH/c1-2-34-28(33)29(25-12-6-3-7-13-25)18-21-32(22-19-29)23-20-30(24-31,26-14-8-4-9-15-26)27-16-10-5-11-17-27;/h3-17H,2,18-23H2,1H3;1H",
        "InChIKey": null,
        "Canonical SMILES": "Cl.N#CC(C=1C=CC=CC1)(C=2C=CC=CC2)CCN3CCC(C(=O)OCC)(C=4C=CC=CC4)CC3",
        "Molecular Formula": "C<sub>30</sub>H<sub>32</sub>N<sub>2</sub>O<sub>2</sub>.ClH",
        "Molecular Mass": "",
        "Melting Point": "220.5-222 °C"
    }
}