{
    "cas_no": "555-43-1",
    "key_name": "Tristearin",
    "cn_name": "三硬脂酸甘油酯;",
    "alternate_name": "Octadecanoic acid, 1,1′,1′′-(1,2,3-propanetriyl) ester;Stearin, tri-;Octadecanoic acid, 1,2,3-propanetriyl ester;Glyceryl tristearate;Tristearin;Glycerol tristearate;Stearic acid triglyceride;Stearic acid triglycerin ester;Trioctadecanoin;Stearic triglyceride;Glycerol trioctadecanoate;Stearoyl triglyceride;Spezialfett 118;Dynasan 118;Glycowax S 932;Hardened Oil;Tristearoylglycerol;Edenor NHTl;Glycerine tristearate;Rikemal VT;Glycerin tristearate;SSS;Triglyceride StStSt;Prisorine 2041;Loxiol EP 218;Edenor NHTi;Glyceryl trioctadecanoate;Daiwax STG;Glycolube TS;Coatex 21;Rikemal VT 50;Triglyceride SSS;Tegin BL 150V;Pationic 919;Ligalub GT;Radia 7512;A 3D;Esteride G-S;PPM 17000;Dynasan D118;1,2,3-Propanetriyltris(octadecanoate);2,3-Di(octadecanoyloxy)propyl octadecanoate;Softenol 3168",
    "duplicated_cas_no": "41755-77-5;160170-82-1;606967-51-5",
    "SMILES": "C(OC(CCCCCCCCCCCCCCCCC)=O)(COC(CCCCCCCCCCCCCCCCC)=O)COC(CCCCCCCCCCCCCCCCC)=O",
    "meta_data": {
        "InChI": "InChI=1S/C57H110O6/c1-4-7-10-13-16-19-22-25-28-31-34-37-40-43-46-49-55(58)61-52-54(63-57(60)51-48-45-42-39-36-33-30-27-24-21-18-15-12-9-6-3)53-62-56(59)50-47-44-41-38-35-32-29-26-23-20-17-14-11-8-5-2/h54H,4-53H2,1-3H3",
        "InChIKey": null,
        "Canonical SMILES": "O=C(OCC(OC(=O)CCCCCCCCCCCCCCCCC)COC(=O)CCCCCCCCCCCCCCCCC)CCCCCCCCCCCCCCCCC",
        "Molecular Formula": "C<sub>57</sub>H<sub>110</sub>O<sub>6</sub>",
        "Molecular Mass": "891.48",
        "Melting Point": "55 °C",
        "Density": "0.8559 g/cm³ @ Temp: 90 °C"
    }
}