{
    "cas_no": "56-88-2",
    "key_name": "Cystathionine",
    "cn_name": "L-胱硫醚;(R)-S-(2-氨基-2-羧乙基)-L-半胱氨酸;",
    "alternate_name": "<span class=\"text-smallcaps\">L</span>-Homocysteine, <em>S</em>-[(2<em>R</em>)-2-amino-2-carboxyethyl]-;Cystathionine, <span class=\"text-smallcaps\">L</span>-;<span class=\"text-smallcaps\">L</span>-Homocysteine, <em>S</em>-(2-amino-2-carboxyethyl)-, (<em>R</em>)-;Cystathionine;<em>S</em>-[(2<em>R</em>)-2-Amino-2-carboxyethyl]-<span class=\"text-smallcaps\">L</span>-homocysteine;<span class=\"text-smallcaps\">L</span>-Cystathionine;<span class=\"text-smallcaps\">L</span>-(+)-Cystathionine;Butanoic acid, 2-amino-4-[(2-amino-2-carboxyethyl)thio]-, [<em>R</em>-(<em>R</em>*,<em>S</em>*)]-",
    "duplicated_cas_no": "535-35-3;733035-14-8",
    "SMILES": "[C@H](CCSC[C@@H](C(O)=O)N)(C(O)=O)N",
    "meta_data": {
        "InChI": "InChI=1S/C7H14N2O4S/c8-4(6(10)11)1-2-14-3-5(9)7(12)13/h4-5H,1-3,8-9H2,(H,10,11)(H,12,13)/t4-,5-/m0/s1",
        "InChIKey": null,
        "Canonical SMILES": "O=C(O)C(N)CSCCC(N)C(=O)O",
        "Molecular Formula": "C<sub>7</sub>H<sub>14</sub>N<sub>2</sub>O<sub>4</sub>S",
        "Molecular Mass": "222.26",
        "Melting Point": "312 °C (decomp)"
    }
}