{
    "cas_no": "198821-78-2",
    "key_name": "5-(2-Methoxy-4-nitrophenyl)oxazole",
    "cn_name": null,
    "alternate_name": "Oxazole, 5-(2-methoxy-4-nitrophenyl)-;5-(2-Methoxy-4-nitrophenyl)oxazole;5-(2-Methoxy-4-nitrophenyl)-4-oxazole;5-(4-Nitro-2-methoxyphenyl)oxazole",
    "duplicated_cas_no": "",
    "SMILES": "O(C)C1=C(C=CC(N(=O)=O)=C1)C2=CN=CO2",
    "meta_data": {
        "InChI": "InChI=1S/C10H8N2O4/c1-15-9-4-7(12(13)14)2-3-8(9)10-5-11-6-16-10/h2-6H,1H3",
        "InChIKey": null,
        "Canonical SMILES": "O=N(=O)C=1C=CC(C=2OC=NC2)=C(OC)C1",
        "Molecular Formula": "C<sub>10</sub>H<sub>8</sub>N<sub>2</sub>O<sub>4</sub>",
        "Molecular Mass": "220.18",
        "Melting Point": "150-152 °C"
    }
}