{
    "cas_no": "3195-78-6",
    "key_name": "<em>N</em>-Methyl-<em>N</em>-vinylacetamide",
    "cn_name": "N-甲基-N-乙烯基乙酰胺;",
    "alternate_name": "Acetamide, <em>N</em>-ethenyl-<em>N</em>-methyl-;Acetamide, <em>N</em>-methyl-<em>N</em>-vinyl-;<em>N</em>-Ethenyl-<em>N</em>-methylacetamide;<em>N</em>-Methyl-<em>N</em>-vinylacetamide;<em>N</em>-Vinyl-<em>N</em>-methylacetamide",
    "duplicated_cas_no": "",
    "SMILES": "N(C(C)=O)(C=C)C",
    "meta_data": {
        "InChI": "InChI=1S/C5H9NO/c1-4-6(3)5(2)7/h4H,1H2,2-3H3",
        "InChIKey": null,
        "Canonical SMILES": "O=C(N(C=C)C)C",
        "Molecular Formula": "C<sub>5</sub>H<sub>9</sub>NO",
        "Molecular Mass": "99.13",
        "Boiling Point": "64-66 °C @ Press: 17 Torr"
    }
}