{
    "cas_no": "38465-55-3",
    "key_name": "Bis[1-[4-(dimethylamino)phenyl]-2-phenyl-1,2-ethenedithiolato(2-)-κ<em>S</em><sup>1</sup>,κ<em>S</em><sup>2</sup>]nickel",
    "cn_name": "双(4-二甲氨基二硫代二苯乙二酮)合镍;",
    "alternate_name": "Nickel, bis[1-[4-(dimethylamino)phenyl]-2-phenyl-1,2-ethenedithiolato(2-)-κ<em>S</em><sup>1</sup>,κ<em>S</em><sup>2</sup>]-;Nickel, bis[1-[4-(dimethylamino)phenyl]-2-phenyl-1,2-ethenedithiolato(2-)-<em>S</em>,<em>S</em>′]-;Nickel, bis[1-[4-(dimethylamino)phenyl]-2-phenyl-1,2-ethenedithiolato(2-)-κ<em>S</em>,κ<em>S</em>′]-;1,2-Ethenedithiol, 1-[4-(dimethylamino)phenyl]-2-phenyl-, nickel complex, (<em>Z</em>)-;Bis[1-[4-(dimethylamino)phenyl]-2-phenyl-1,2-ethenedithiolato(2-)-κ<em>S</em><sup>1</sup>,κ<em>S</em><sup>2</sup>]nickel;Bis(4-dimethylaminodithiobenzil)nickel;Bis(4-dimethylaminodithiobenzil)nickel(II);Kodak 14015;BDN;BDN-I;Dye 14015;BDN (laser dye);B 4361",
    "duplicated_cas_no": "111244-32-7;111244-33-8;75433-34-0;190274-09-0",
    "SMILES": "N(C)(C)C1=CC=C(C=2S[Ni]3(SC(=C(S3)C4=CC=CC=C4)C5=CC=C(N(C)C)C=C5)SC2C6=CC=CC=C6)C=C1",
    "meta_data": {
        "InChI": "InChI=1S/2C16H17NS2.Ni/c2*1-17(2)14-10-8-13(9-11-14)16(19)15(18)12-6-4-3-5-7-12;/h2*3-11,18-19H,1-2H3;/q;;+4/p-4",
        "InChIKey": null,
        "Canonical SMILES": "S1C(C=2C=CC=CC2)=C(S[Ni]13SC(C=4C=CC=CC4)=C(S3)C=5C=CC(=CC5)N(C)C)C=6C=CC(=CC6)N(C)C",
        "Molecular Formula": "C<sub>32</sub>H<sub>30</sub>N<sub>2</sub>NiS<sub>4</sub>",
        "Molecular Mass": "",
        "Melting Point": "277 °C"
    }
}