{
    "cas_no": "206548-14-3",
    "key_name": "Methyl 2-amino-5-bromo-3-methylbenzoate",
    "cn_name": null,
    "alternate_name": "Benzoic acid, 2-amino-5-bromo-3-methyl-, methyl ester;Methyl 2-amino-5-bromo-3-methylbenzoate",
    "duplicated_cas_no": "",
    "SMILES": "C(OC)(=O)C1=C(N)C(C)=CC(Br)=C1",
    "meta_data": {
        "InChI": "InChI=1S/C9H10BrNO2/c1-5-3-6(10)4-7(8(5)11)9(12)13-2/h3-4H,11H2,1-2H3",
        "InChIKey": null,
        "Canonical SMILES": "O=C(OC)C1=CC(Br)=CC(=C1N)C",
        "Molecular Formula": "C<sub>9</sub>H<sub>10</sub>BrNO<sub>2</sub>",
        "Molecular Mass": "244.09",
        "Melting Point": "57-58 °C"
    }
}