{
    "cas_no": "147118-37-4",
    "key_name": "<em>N</em>-[4-(4-Fluorophenyl)-5-formyl-6-(1-methylethyl)-2-pyrimidinyl]-<em>N</em>-methylmethanesulfonamide",
    "cn_name": "4-(4-氟苯基)-6-异丙基-2-[(N-甲基-N-甲磺酰)氨基]嘧啶-5-甲醛;",
    "alternate_name": "Methanesulfonamide, <em>N</em>-[4-(4-fluorophenyl)-5-formyl-6-(1-methylethyl)-2-pyrimidinyl]-<em>N</em>-methyl-;<em>N</em>-[4-(4-Fluorophenyl)-5-formyl-6-(1-methylethyl)-2-pyrimidinyl]-<em>N</em>-methylmethanesulfonamide;4-(4-Fluorophenyl)-6-isopropyl-2-(<em>N</em>-methyl-<em>N</em>-methylsulfonylamino)-5-pyrimidinecarboxaldehyde;<em>N</em>-[4-(4-Fluorophenyl)-5-formyl-6-isopropylpyrimidin-2-yl]-<em>N</em>-methylmethanesulfonamide;4-(4-Fluorophenyl)-5-formyl-6-isopropyl-2-[methyl(methylsulfonyl)amino]pyrimidine",
    "duplicated_cas_no": "",
    "SMILES": "C(=O)C=1C(=NC(N(S(C)(=O)=O)C)=NC1C(C)C)C2=CC=C(F)C=C2",
    "meta_data": {
        "InChI": "InChI=1S/C16H18FN3O3S/c1-10(2)14-13(9-21)15(11-5-7-12(17)8-6-11)19-16(18-14)20(3)24(4,22)23/h5-10H,1-4H3",
        "InChIKey": null,
        "Canonical SMILES": "O=CC=1C(=NC(=NC1C(C)C)N(C)S(=O)(=O)C)C=2C=CC(F)=CC2",
        "Molecular Formula": "C<sub>16</sub>H<sub>18</sub>FN<sub>3</sub>O<sub>3</sub>S",
        "Molecular Mass": "351.40",
        "Melting Point": "147-148 °C"
    }
}