{
    "cas_no": "2169-87-1",
    "key_name": "2,3-Naphthalenedicarboxylic acid",
    "cn_name": null,
    "alternate_name": "2,3-Naphthalenedicarboxylic acid;2,3-Naphthalic acid;Naphthalene-2,3-carboxylic acid;2,3-NDA;NSC 16063",
    "duplicated_cas_no": "",
    "SMILES": "C(O)(=O)C=1C(C(O)=O)=CC2=C(C1)C=CC=C2",
    "meta_data": {
        "InChI": "InChI=1S/C12H8O4/c13-11(14)9-5-7-3-1-2-4-8(7)6-10(9)12(15)16/h1-6H,(H,13,14)(H,15,16)",
        "InChIKey": null,
        "Canonical SMILES": "O=C(O)C1=CC=2C=CC=CC2C=C1C(=O)O",
        "Molecular Formula": "C<sub>12</sub>H<sub>8</sub>O<sub>4</sub>",
        "Molecular Mass": "216.19",
        "Melting Point": "239-240 °C (decomp)"
    }
}