{
    "cas_no": "5398-36-7",
    "key_name": "Ethyl 2-amino-4-thiazolecarboxylate",
    "cn_name": "2-氨基噻唑-4-甲酸乙酯;",
    "alternate_name": "4-Thiazolecarboxylic acid, 2-amino-, ethyl ester;Ethyl 2-amino-4-thiazolecarboxylate;2-Amino-4-(ethoxycarbonyl)-1,3-thiazole;2-Amino-4-thiazolecarboxylic acid ethyl ester;2-Amino-4-ethoxycarbonylthiazole;2-Aminothiazol-4-carboxylic acid ethyl ester;NSC 43547;NSC 4464;Ethyl 2-amino-1,3-thiazole-4-carboxylate;2-Amino-1,3-thiazole-4-carboxylic acid ethyl ester;2-Imino-2,3-dihydro-thiazole-4-carboxylic acid ethyl ester",
    "duplicated_cas_no": "96807-68-0",
    "SMILES": "C(OCC)(=O)C1=CSC(N)=N1",
    "meta_data": {
        "InChI": "InChI=1S/C6H8N2O2S/c1-2-10-5(9)4-3-11-6(7)8-4/h3H,2H2,1H3,(H2,7,8)",
        "InChIKey": null,
        "Canonical SMILES": "O=C(OCC)C=1N=C(SC1)N",
        "Molecular Formula": "C<sub>6</sub>H<sub>8</sub>N<sub>2</sub>O<sub>2</sub>S",
        "Molecular Mass": "172.20",
        "Melting Point": "172 °C"
    }
}