{
    "cas_no": "2565-58-4",
    "key_name": "<em>P</em>-(Chloromethyl)phosphonic acid",
    "cn_name": null,
    "alternate_name": "Phosphonic acid, <em>P</em>-(chloromethyl)-;Phosphonic acid, (chloromethyl)-;<em>P</em>-(Chloromethyl)phosphonic acid;(Chloromethyl)phosphonate;(Chloromethyl)phosphonic acid;Chloromethanephosphonic acid;Phosphonomethyl chloride;NSC 30691",
    "duplicated_cas_no": "",
    "SMILES": "P(CCl)(=O)(O)O",
    "meta_data": {
        "InChI": "InChI=1S/CH4ClO3P/c2-1-6(3,4)5/h1H2,(H2,3,4,5)",
        "InChIKey": null,
        "Canonical SMILES": "O=P(O)(O)CCl",
        "Molecular Formula": "CH<sub>4</sub>ClO<sub>3</sub>P",
        "Molecular Mass": "130.47",
        "Melting Point": "92 °C",
        "Density": "1.467 g/cm³"
    }
}