{
    "cas_no": "356-15-0",
    "key_name": "2,2,3,3-Tetrafluorobutanedioyl dichloride",
    "cn_name": null,
    "alternate_name": "Butanedioyl dichloride, 2,2,3,3-tetrafluoro-;Succinyl chloride, tetrafluoro-;Butanedioyl dichloride, tetrafluoro-;2,2,3,3-Tetrafluorobutanedioyl dichloride;Tetrafluorosuccinoyl chloride",
    "duplicated_cas_no": "",
    "SMILES": "C(C(C(Cl)=O)(F)F)(C(Cl)=O)(F)F",
    "meta_data": {
        "InChI": "InChI=1S/C4Cl2F4O2/c5-1(11)3(7,8)4(9,10)2(6)12",
        "InChIKey": null,
        "Canonical SMILES": "O=C(Cl)C(F)(F)C(F)(F)C(=O)Cl",
        "Molecular Formula": "C<sub>4</sub>Cl<sub>2</sub>F<sub>4</sub>O<sub>2</sub>",
        "Molecular Mass": "226.94",
        "Boiling Point": "54 °C @ Press: 758 Torr",
        "Density": "1.6032 g/cm³ @ Temp: 20 °C"
    }
}