{
    "cas_no": "672-87-7",
    "key_name": "Metyrosine",
    "cn_name": "甲酪氨酸;",
    "alternate_name": "<span class=\"text-smallcaps\">L</span>-Tyrosine, α-methyl-;Tyrosine, α-methyl-, <span class=\"text-smallcaps\">L</span>-;α-Methyl-<span class=\"text-smallcaps\">L</span>-tyrosine;<span class=\"text-smallcaps\">L</span>-α-Methyltyrosine;<span class=\"text-smallcaps\">L</span>-α-Methyl-<em>p</em>-tyrosine;Metyrosine;(<em>S</em>)-α-Methyltyrosine;<span class=\"text-smallcaps\">L</span>(-)-Metyrosine;Metirosine;Demser;<span class=\"text-smallcaps\">L</span>-Metyrosine;MK 781;<span class=\"text-smallcaps\">L</span>-α-MT;(<em>S</em>)-2-(4-Hydroxybenzyl)-2-aminopropanoic acid;(2S)-2-Amino-3-(4-hydroxyphenyl)-2-methylpropanoic acid",
    "duplicated_cas_no": "5380-13-2;23239-48-7",
    "SMILES": "C([C@](C(O)=O)(C)N)C1=CC=C(O)C=C1",
    "meta_data": {
        "InChI": "InChI=1S/C10H13NO3/c1-10(11,9(13)14)6-7-2-4-8(12)5-3-7/h2-5,12H,6,11H2,1H3,(H,13,14)/t10-/m0/s1",
        "InChIKey": null,
        "Canonical SMILES": "O=C(O)C(N)(C)CC1=CC=C(O)C=C1",
        "Molecular Formula": "C<sub>10</sub>H<sub>13</sub>NO<sub>3</sub>",
        "Molecular Mass": "195.22",
        "Melting Point": "312.5 °C"
    }
}