{
    "cas_no": "18244-95-6",
    "key_name": "Triethenylmethylsilane",
    "cn_name": "三乙烯基甲基硅烷;三乙烯基甲基硅烷;三乙烯基甲基硅烷, TECH;",
    "alternate_name": "Silane, triethenylmethyl-;Silane, methyltrivinyl-;Triethenylmethylsilane;Methyltrivinylsilane;Trivinylmethylsilane;NSC 174168",
    "duplicated_cas_no": "",
    "SMILES": "[Si](C=C)(C=C)(C=C)C",
    "meta_data": {
        "InChI": "InChI=1S/C7H12Si/c1-5-8(4,6-2)7-3/h5-7H,1-3H2,4H3",
        "InChIKey": null,
        "Canonical SMILES": "C=C[Si](C=C)(C=C)C",
        "Molecular Formula": "C<sub>7</sub>H<sub>12</sub>Si",
        "Molecular Mass": "124.26",
        "Boiling Point": "102 °C",
        "Melting Point": "107.6 °C",
        "Density": "0.769 g/cm³"
    }
}