{
    "cas_no": "14432-16-7",
    "key_name": "2-Chloro-4-nitropyridine <em>N</em>-oxide",
    "cn_name": "2-氯-4-硝基吡啶N-氧化物;",
    "alternate_name": "Pyridine, 2-chloro-4-nitro-, 1-oxide;2-Chloro-4-nitropyridine <em>N</em>-oxide;NSC 527701;2-Chloro-4-nitropyridine 1-oxide;2-Chloro-4-nitropyridin-1-ium-1-olate;2-Chloro-4-nitro-1-oxidopyridin-1-ium",
    "duplicated_cas_no": "1081843-80-2",
    "SMILES": "N(=O)(=O)C=1C=C(Cl)N(=O)=CC1",
    "meta_data": {
        "InChI": "InChI=1S/C5H3ClN2O3/c6-5-3-4(8(10)11)1-2-7(5)9/h1-3H",
        "InChIKey": null,
        "Canonical SMILES": "O=N(=O)C1=CC=N(=O)C(Cl)=C1",
        "Molecular Formula": "C<sub>5</sub>H<sub>3</sub>ClN<sub>2</sub>O<sub>3</sub>",
        "Molecular Mass": "174.54",
        "Melting Point": "140-143 °C"
    }
}