{
    "cas_no": "7440-69-9",
    "key_name": "Bismuth",
    "cn_name": "铋;",
    "alternate_name": "Bismuth;Bismuth-209;Bismuth element;BIE11PB;MeSH ID: D001729",
    "duplicated_cas_no": "24267-48-9;25243-76-9",
    "SMILES": "[Bi]",
    "meta_data": {
        "InChI": "InChI=1S/Bi",
        "InChIKey": null,
        "Canonical SMILES": "[Bi]",
        "Molecular Formula": "Bi",
        "Molecular Mass": "",
        "Boiling Point": "1420 °C",
        "Melting Point": "271 °C",
        "Density": "9.78 g/cm³ @ Temp: 20 °C"
    }
}