{
    "cas_no": "66852-54-8",
    "key_name": "Halobetasol propionate",
    "cn_name": "卤贝他索丙酸酯;",
    "alternate_name": "Pregna-1,4-diene-3,20-dione, 21-chloro-6,9-difluoro-11-hydroxy-16-methyl-17-(1-oxopropoxy)-, (6α,11β,16β)-;(6α,11β,16β)-21-Chloro-6,9-difluoro-11-hydroxy-16-methyl-17-(1-oxopropoxy)pregna-1,4-diene-3,20-dione;BMY 30056;CGP 14458;Halobetasol propionate;Ultravate;Miracorten;Ulobetasol propionate",
    "duplicated_cas_no": "",
    "SMILES": "O(C(CC)=O)[C@@]1(C(CCl)=O)[C@]2(C)[C@@](C[C@@H]1C)([C@]3([C@](F)([C@@H](O)C2)[C@]4(C)C([C@@H](F)C3)=CC(=O)C=C4)[H])[H]",
    "meta_data": {
        "InChI": "InChI=1S/C25H31ClF2O5/c1-5-21(32)33-25(20(31)12-26)13(2)8-15-16-10-18(27)17-9-14(29)6-7-22(17,3)24(16,28)19(30)11-23(15,25)4/h6-7,9,13,15-16,18-19,30H,5,8,10-12H2,1-4H3/t13-,15-,16-,18-,19-,22-,23-,24-,25-/m0/s1",
        "InChIKey": null,
        "Canonical SMILES": "O=C1C=CC2(C(=C1)C(F)CC3C4CC(C)C(OC(=O)CC)(C(=O)CCl)C4(C)CC(O)C32F)C",
        "Molecular Formula": "C<sub>25</sub>H<sub>31</sub>ClF<sub>2</sub>O<sub>5</sub>",
        "Molecular Mass": "484.96",
        "Melting Point": "220-221 °C"
    }
}