{
    "cas_no": "56995-20-1",
    "key_name": "Flupirtine",
    "cn_name": "氟吡汀;氟必定;氟必汀;N-[2-氨基-6-[(4-氟苯基)甲基氨基]吡啶-3-基]氨基甲酸乙酯;",
    "alternate_name": "Carbamic acid, <em>N</em>-[2-amino-6-[[(4-fluorophenyl)methyl]amino]-3-pyridinyl]-, ethyl ester;Carbamic acid, [2-amino-6-[[(4-fluorophenyl)methyl]amino]-3-pyridinyl]-, ethyl ester;Flupirtine;Katadolon;D 9998;Trancopal Dolo;Ethyl [2-Amino-6-[(4-fluorobenzyl)amino]pyridin-3-yl]carbamate;[2-Amino-6-(4-fluoro-benzylamino)-pyridin-3-yl]-carbamic acid ethyl ester",
    "duplicated_cas_no": "",
    "SMILES": "N(C(OCC)=O)C1=C(N)N=C(NCC2=CC=C(F)C=C2)C=C1",
    "meta_data": {
        "InChI": "InChI=1S/C15H17FN4O2/c1-2-22-15(21)19-12-7-8-13(20-14(12)17)18-9-10-3-5-11(16)6-4-10/h3-8H,2,9H2,1H3,(H,19,21)(H3,17,18,20)",
        "InChIKey": null,
        "Canonical SMILES": "O=C(OCC)NC=1C=CC(=NC1N)NCC2=CC=C(F)C=C2",
        "Molecular Formula": "C<sub>15</sub>H<sub>17</sub>FN<sub>4</sub>O<sub>2</sub>",
        "Molecular Mass": "304.32",
        "Melting Point": "115.5 °C"
    }
}