{
    "cas_no": "2268-79-3",
    "key_name": "6-Methyl-2(3<em>H</em>)-benzothiazolethione",
    "cn_name": "6-甲基-2-巯基苯并噻唑;",
    "alternate_name": "2(3<em>H</em>)-Benzothiazolethione, 6-methyl-;2-Benzothiazolethiol, 6-methyl-;6-Methyl-2(3<em>H</em>)-benzothiazolethione;2-Mercapto-6-methylbenzothiazole;6-Methyl-2-benzothiazolethiol",
    "duplicated_cas_no": "",
    "SMILES": "S=C1NC=2C(S1)=CC(C)=CC2",
    "meta_data": {
        "InChI": "InChI=1S/C8H7NS2/c1-5-2-3-6-7(4-5)11-8(10)9-6/h2-4H,1H3,(H,9,10)",
        "InChIKey": null,
        "Canonical SMILES": "S=C1SC2=CC(=CC=C2N1)C",
        "Molecular Formula": "C<sub>8</sub>H<sub>7</sub>NS<sub>2</sub>",
        "Molecular Mass": "181.28",
        "Melting Point": "175.5-178.5 °C"
    }
}