{
    "cas_no": "60-41-3",
    "key_name": "Strychnidin-10-one, sulfate (2:1)",
    "cn_name": null,
    "alternate_name": "Strychnidin-10-one, sulfate (2:1);Strychnine, sulfate (2:1);4,6-Methano-6<em>H</em>,14<em>H</em>-indolo[3,2,1-<em>ij</em>]oxepino[2,3,4-<em>de</em>]pyrrolo[2,3-<em>h</em>]quinoline, strychnidin-10-one deriv.;Strychnine sulfate;Vampirol;Antivampire;Strychninium sulfate;Strychnine hemisulfate",
    "duplicated_cas_no": "125-17-7",
    "SMILES": "S(=O)(=O)(O)O.O=C1N2[C@@]3([C@@]4([C@]5([N@@](CC4)CC=6[C@@]([C@]3([C@](C1)(OCC6)[H])[H])(C5)[H])[H])C=7C2=CC=CC7)[H]",
    "meta_data": {
        "InChI": "InChI=1S/C21H22N2O2.H2O4S/c24-18-10-16-19-13-9-17-21(6-7-22(17)11-12(13)5-8-25-16)14-3-1-2-4-15(14)23(18)20(19)21;1-5(2,3)4/h1-5,13,16-17,19-20H,6-11H2;(H2,1,2,3,4)/t13-,16-,17-,19-,20-,21+;/m0./s1",
        "InChIKey": null,
        "Canonical SMILES": "O=C1N2C=3C=CC=CC3C45CCN6CC7=CCOC(C1)C(C7CC64)C25.O=S(=O)(O)O",
        "Molecular Formula": "C<sub>21</sub>H<sub>22</sub>N<sub>2</sub>O<sub>2</sub>.<sup>1</sup>/<sub>2</sub>H<sub>2</sub>O<sub>4</sub>S",
        "Molecular Mass": "",
        "Melting Point": "200 °C (decomp)"
    }
}