{
    "cas_no": "544-02-5",
    "key_name": "1,1′-Thiobis[3-methylbutane]",
    "cn_name": "二异戊基硫醚;",
    "alternate_name": "Butane, 1,1′-thiobis[3-methyl-;Isopentyl sulfide;1,1′-Thiobis[3-methylbutane];Diisoamyl sulfide;2,8-Dimethyl-5-thianonane;Isoamyl sulfide;Diisopentyl sulfide;Di(3-methylbutyl) sulfide;Diisoamyl thioether;3-Methyl-1-(3-methylbutylsulfanyl)butane",
    "duplicated_cas_no": "",
    "SMILES": "C(CC(C)C)SCCC(C)C",
    "meta_data": {
        "InChI": "InChI=1S/C10H22S/c1-9(2)5-7-11-8-6-10(3)4/h9-10H,5-8H2,1-4H3",
        "InChIKey": null,
        "Canonical SMILES": "S(CCC(C)C)CCC(C)C",
        "Molecular Formula": "C<sub>10</sub>H<sub>22</sub>S",
        "Molecular Mass": "174.35",
        "Boiling Point": "211 °C",
        "Melting Point": "-74.6 °C",
        "Density": "0.8476 g/cm³ @ Temp: 0 °C"
    }
}