{
    "cas_no": "69340-97-2",
    "key_name": "5-Amino-6-hydroxy-4(3<em>H</em>)-pyrimidinone",
    "cn_name": "5-氨基-4,6-二羟基嘧啶;4,6-二羟基-5-氨基嘧啶;",
    "alternate_name": "4(3<em>H</em>)-Pyrimidinone, 5-amino-6-hydroxy-;4(1<em>H</em>)-Pyrimidinone, 5-amino-6-hydroxy-;4,6-Pyrimidinediol, 5-amino-;5-Amino-6-hydroxy-4(3<em>H</em>)-pyrimidinone;NSC 160795;NSC 160797;5-Amino-4,6-pyrimidinediol;4,6-Dihydroxy-5-aminopyrimidine",
    "duplicated_cas_no": "",
    "SMILES": "NC=1C(=O)NC=NC1O",
    "meta_data": {
        "InChI": "InChI=1S/C4H5N3O2/c5-2-3(8)6-1-7-4(2)9/h1H,5H2,(H2,6,7,8,9)",
        "InChIKey": null,
        "Canonical SMILES": "O=C1NC=NC(O)=C1N",
        "Molecular Formula": "C<sub>4</sub>H<sub>5</sub>N<sub>3</sub>O<sub>2</sub>",
        "Molecular Mass": "127.10",
        "Melting Point": "&gt;300 °C"
    }
}