{
    "cas_no": "131-18-0",
    "key_name": "Dipentyl phthalate",
    "cn_name": null,
    "alternate_name": "1,2-Benzenedicarboxylic acid, 1,2-dipentyl ester;Phthalic acid, dipentyl ester;1,2-Benzenedicarboxylic acid, dipentyl ester;Amoil;Amyl phthalate;Diamyl phthalate;Dipentyl phthalate;Di-<em>n</em>-amyl phthalate;Di-<em>n</em>-pentyl phthalate;Di-<em>n</em>-pentyl <em>o</em>-phthalate;NSC 4720;1,2-Dipentyl benzene-1,2-dicarboxylate",
    "duplicated_cas_no": "",
    "SMILES": "C(OCCCCC)(=O)C1=C(C(OCCCCC)=O)C=CC=C1",
    "meta_data": {
        "InChI": "InChI=1S/C18H26O4/c1-3-5-9-13-21-17(19)15-11-7-8-12-16(15)18(20)22-14-10-6-4-2/h7-8,11-12H,3-6,9-10,13-14H2,1-2H3",
        "InChIKey": null,
        "Canonical SMILES": "O=C(OCCCCC)C=1C=CC=CC1C(=O)OCCCCC",
        "Molecular Formula": "C<sub>18</sub>H<sub>26</sub>O<sub>4</sub>",
        "Molecular Mass": "306.40",
        "Boiling Point": "342 °C",
        "Density": "1.022 g/cm³ @ Temp: 20 °C"
    }
}