{
    "cas_no": "6492-86-0",
    "key_name": "4-Amino-1,8-naphthalic anhydride",
    "cn_name": null,
    "alternate_name": "1<em>H</em>,3<em>H</em>-Naphtho[1,8-<em>cd</em>]pyran-1,3-dione, 6-amino-;Naphthalic anhydride, 4-amino-;6-Amino-1<em>H</em>,3<em>H</em>-naphtho[1,8-<em>cd</em>]pyran-1,3-dione;4-Amino-1,8-naphthalic anhydride;4-Amino-1,8-naphthalenedicarboxylic anhydride;NSC 7564;4-Amino-1,8-naphthalene anhydride",
    "duplicated_cas_no": "",
    "SMILES": "O=C1C=2C=3C(C(=O)O1)=CC=CC3C(N)=CC2",
    "meta_data": {
        "InChI": "InChI=1S/C12H7NO3/c13-9-5-4-8-10-6(9)2-1-3-7(10)11(14)16-12(8)15/h1-5H,13H2",
        "InChIKey": null,
        "Canonical SMILES": "O=C1OC(=O)C2=CC=C(N)C=3C=CC=C1C23",
        "Molecular Formula": "C<sub>12</sub>H<sub>7</sub>NO<sub>3</sub>",
        "Molecular Mass": "213.19",
        "Melting Point": "&gt;350 °C"
    }
}