{
    "cas_no": "102-07-8",
    "key_name": "<em>N</em>,<em>N</em>′-Diphenylurea",
    "cn_name": "1,3-二苯脲;N,N\"-二苯基脲;均二苯脲;双苯基脲;",
    "alternate_name": "Urea, <em>N</em>,<em>N</em>′-diphenyl-;Carbanilide;<em>N</em>,<em>N</em>′-Diphenylurea;<em>s</em>-Diphenylurea;<em>sym</em>-Diphenylurea;1,3-Diphenylurea;<em>N</em>-Phenyl-<em>N</em>′-phenylurea;1,3-Diphenylcarbamide;DPU;AD 30;NSC 227401;NSC 8485",
    "duplicated_cas_no": "",
    "SMILES": "N(C(NC1=CC=CC=C1)=O)C2=CC=CC=C2",
    "meta_data": {
        "InChI": "InChI=1S/C13H12N2O/c16-13(14-11-7-3-1-4-8-11)15-12-9-5-2-6-10-12/h1-10H,(H2,14,15,16)",
        "InChIKey": null,
        "Canonical SMILES": "O=C(NC=1C=CC=CC1)NC=2C=CC=CC2",
        "Molecular Formula": "C<sub>13</sub>H<sub>12</sub>N<sub>2</sub>O",
        "Molecular Mass": "212.25",
        "Boiling Point": "262 °C",
        "Melting Point": "238 °C",
        "Density": "1.239 g/cm³"
    }
}