{
    "cas_no": "657-27-2",
    "key_name": "<span class=\"text-smallcaps\">L</span>-Lysine monohydrochloride",
    "cn_name": "L-赖氨酸盐酸盐;(S)-2,6-二氨基己酸盐酸盐;",
    "alternate_name": "<span class=\"text-smallcaps\">L</span>-Lysine, hydrochloride (1:1);Lysine, monohydrochloride, <span class=\"text-smallcaps\">L</span>-;<span class=\"text-smallcaps\">L</span>-Lysine, monohydrochloride;Darvyl;Lyamine;Lysine monohydrochloride;Lysine hydrochloride;<span class=\"text-smallcaps\">L</span>-Lysine hydrochloride;<span class=\"text-smallcaps\">L</span>-Gen;Lysion;NSC 9253;<span class=\"text-smallcaps\">L</span>-(+)-Lysine monohydrochloride;Relys;Bovi-Lysine;<span class=\"text-smallcaps\">L</span>-Lysine monohydrochloride;L 5626;(2S)-2,6-Diaminohexanoic acid hydrochloride;(<em>S</em>)-2,6-Diaminohexanoic acid hydrochloride",
    "duplicated_cas_no": "305-76-0;93394-22-0",
    "SMILES": "[C@H](CCCCN)(C(O)=O)N.Cl",
    "meta_data": {
        "InChI": "InChI=1S/C6H14N2O2.ClH/c7-4-2-1-3-5(8)6(9)10;/h5H,1-4,7-8H2,(H,9,10);1H/t5-;/m0./s1",
        "InChIKey": null,
        "Canonical SMILES": "Cl.O=C(O)C(N)CCCCN",
        "Molecular Formula": "C<sub>6</sub>H<sub>14</sub>N<sub>2</sub>O<sub>2</sub>.ClH",
        "Molecular Mass": "",
        "Melting Point": "251-253 °C"
    }
}