{
    "cas_no": "3205-35-4",
    "key_name": "<em>rel</em>-1,2-Dimethyl (1<em>R</em>,2<em>R</em>)-1,2-cyclohexanedicarboxylate",
    "cn_name": null,
    "alternate_name": "1,2-Cyclohexanedicarboxylic acid, 1,2-dimethyl ester, (1<em>R</em>,2<em>R</em>)-<em>rel</em>-;1,2-Cyclohexanedicarboxylic acid, dimethyl ester, <em>trans</em>-;<em>rel</em>-1,2-Dimethyl (1<em>R</em>,2<em>R</em>)-1,2-cyclohexanedicarboxylate;<em>trans</em>-Dimethyl 1,2-cyclohexanedicarboxylate;NSC 250349;<em>trans</em>-1,2-Cyclohexanedicarboxylic acid dimethyl ester;Dimethyl trans-1,2-cyclohexanedicarboxylate",
    "duplicated_cas_no": "31982-96-4",
    "SMILES": "C(OC)(=O)[C@H]1[C@H](C(OC)=O)CCCC1",
    "meta_data": {
        "InChI": "InChI=1/C10H16O4/c1-13-9(11)7-5-3-4-6-8(7)10(12)14-2/h7-8H,3-6H2,1-2H3/t7-,8-/s2",
        "InChIKey": null,
        "Canonical SMILES": "O=C(OC)C1CCCCC1C(=O)OC",
        "Molecular Formula": "C<sub>10</sub>H<sub>16</sub>O<sub>4</sub>",
        "Molecular Mass": "200.23",
        "Boiling Point": "135-135.5 °C @ Press: 17 Torr"
    }
}