{
    "cas_no": "302-22-7",
    "key_name": "Chlormadinone acetate",
    "cn_name": "醋酸氯地孕酮;",
    "alternate_name": "Pregna-4,6-diene-3,20-dione, 17-(acetyloxy)-6-chloro-;Pregna-4,6-diene-3,20-dione, 6-chloro-17-hydroxy-, acetate;17-(Acetyloxy)-6-chloropregna-4,6-diene-3,20-dione;RS 1280;17-Acetoxy-6-chloro-6-dehydroprogesterone;CAP;Chlormadinone acetate;6-Chloro-17-acetoxy-4,6-pregnadiene-3,20-dione;6-Chloro-Δ<sup>6</sup>-17-acetoxyprogesterone;6-Chloro-Δ<sup>6</sup>-dehydro-17-acetoxyprogesterone;6-Chloro-6-dehydro-17-acetoxyprogesterone;6-Chloro-6-dehydro-17α-acetoxyprogesterone;6-Chloro-17α-hydroxypregna-4,6-diene-3,20-dione acetate;6-Chloro-17α-hydroxy-Δ<sup>6</sup>-progesterone acetate;6-Chloro-Δ<sup>4,6</sup>-pregnadien-17α-ol-3,20-dione 17-acetate;6-Chloro-pregna-4,6-dien-17α-ol-3,20-dione acetate;6-Dehydro-6-chloro-17α-acetoxyprogesterone;Lormin;Lutinyl;Skedule TM;Matrol;6-Chloro-17-hydroxypregna-4,6-diene-3,20-dione acetate;Ay 13390-6;6-Chloro-17α-hydroxy-4,6-pregnadiene-3,20-dione 17-acetate;Gestafortin;6-Chloro-17α-acetoxy-4,6-pregnadiene-3,20-dione;6-Chloro-6,7-dehydro-17-acetoxyprogesterone;6-Chloro-Δ<sup>6</sup>-[17α]acetoxyprogesterone;Chlormadinon acetate;17-Acetoxy-6-chloropregna-4,6-diene-3,20-dione;17α-Acetoxy-6-chloro-6,7-dehydroprogesterone;Luteran;Lutoral (Syntex);Normenon;Menstridyl;Cero;Verton;17α-Acetoxy-6-chloro-4,6-pregnadiene-3,20-dione;Synchrosyn P;Bovisynchron;Traslan;Clordion;Retex;Synchrosyn;Prostal;NSC 92338;Natrol;Lutoral;Fertiletten;Chronosyn;Cyclonorm;Bellissima;MeSH ID: D002715",
    "duplicated_cas_no": "",
    "SMILES": "O(C(C)=O)[C@@]1(C(C)=O)[C@]2(C)[C@@](CC1)([C@]3([C@](CC2)([C@]4(C)C(C(Cl)=C3)=CC(=O)CC4)[H])[H])[H]",
    "meta_data": {
        "InChI": "InChI=1S/C23H29ClO4/c1-13(25)23(28-14(2)26)10-7-18-16-12-20(24)19-11-15(27)5-8-21(19,3)17(16)6-9-22(18,23)4/h11-12,16-18H,5-10H2,1-4H3/t16-,17+,18+,21-,22+,23+/m1/s1",
        "InChIKey": null,
        "Canonical SMILES": "O=C(OC1(C(=O)C)CCC2C3C=C(Cl)C4=CC(=O)CCC4(C)C3CCC21C)C",
        "Molecular Formula": "C<sub>23</sub>H<sub>29</sub>ClO<sub>4</sub>",
        "Molecular Mass": "404.93",
        "Melting Point": "212-214 °C"
    }
}