{
    "cas_no": "2767-84-2",
    "key_name": "(+)-Camphorquinone",
    "cn_name": "L-樟脑醌;(1S)-(+)-樟脑醌;1,7,7-三甲基螺[2.2.1]庚二酮;",
    "alternate_name": "Bicyclo[2.2.1]heptane-2,3-dione, 1,7,7-trimethyl-, (1<em>S</em>,4<em>R</em>)-;2,3-Bornanedione, (1<em>S</em>,4<em>R</em>)-(+)-;Bicyclo[2.2.1]heptane-2,3-dione, 1,7,7-trimethyl-, (1<em>S</em>)-;(1<em>S</em>,4<em>R</em>)-1,7,7-Trimethylbicyclo[2.2.1]heptane-2,3-dione;<em>d</em>-Camphorquinone;(+)-Camphorquinone;<span class=\"text-smallcaps\">D</span>(+)-Camphorquinone;(1<em>S</em>)-(+)-Camphorquinone;(1<em>S</em>)-Camphorquinone;(+)-(1<em>S</em>)-Camphorquinone;(1S,4R)-1,7,7-Trimethylbicyclo[2.2.1]heptan-2,3-dione",
    "duplicated_cas_no": "",
    "SMILES": "C[C@]12C(C)(C)[C@](C(=O)C1=O)(CC2)[H]",
    "meta_data": {
        "InChI": "InChI=1S/C10H14O2/c1-9(2)6-4-5-10(9,3)8(12)7(6)11/h6H,4-5H2,1-3H3/t6-,10+/m0/s1",
        "InChIKey": null,
        "Canonical SMILES": "O=C1C(=O)C2(C)CCC1C2(C)C",
        "Molecular Formula": "C<sub>10</sub>H<sub>14</sub>O<sub>2</sub>",
        "Molecular Mass": "166.22",
        "Melting Point": "200-202 °C"
    }
}