{
    "cas_no": "90776-58-2",
    "key_name": "(<em>R</em>)-2-[(3<em>S</em>,4<em>S</em>)-3-[(<em>R</em>)-1-(<em>tert</em>-Butyldimethylsilyloxy)ethyl]-2-oxoazetidin-4-yl]propionic acid",
    "cn_name": null,
    "alternate_name": "2-Azetidineacetic acid, 3-[(1<em>R</em>)-1-[[(1,1-dimethylethyl)dimethylsilyl]oxy]ethyl]-α-methyl-4-oxo-, (α<em>R</em>,2<em>S</em>,3<em>S</em>)-;2-Azetidineacetic acid, 3-[1-[[(1,1-dimethylethyl)dimethylsilyl]oxy]ethyl]-α-methyl-4-oxo-, [2<em>S</em>-[2α(<em>S</em>*),3β(<em>S</em>*)]]-;(α<em>R</em>,2<em>S</em>,3<em>S</em>)-3-[(1<em>R</em>)-1-[[(1,1-Dimethylethyl)dimethylsilyl]oxy]ethyl]-α-methyl-4-oxo-2-azetidineacetic acid;(<em>R</em>)-2-[(3<em>S</em>,4<em>S</em>)-3-[(<em>R</em>)-1-(<em>tert</em>-Butyldimethylsilyloxy)ethyl]-2-oxoazetidin-4-yl]propionic acid;(3<em>S</em>,4<em>S</em>)-3-[(1<em>R</em>)-1-[(<em>tert</em>-Butyldimethylsilyl)oxy]ethyl]-4-((1<em>R</em>)-1-carboxyethyl)azetidin-2-one",
    "duplicated_cas_no": "139764-52-6",
    "SMILES": "[C@@H](C(O)=O)(C)[C@@]1([C@@]([C@H](O[Si](C(C)(C)C)(C)C)C)(C(=O)N1)[H])[H]",
    "meta_data": {
        "InChI": "InChI=1S/C14H27NO4Si/c1-8(13(17)18)11-10(12(16)15-11)9(2)19-20(6,7)14(3,4)5/h8-11H,1-7H3,(H,15,16)(H,17,18)/t8-,9-,10-,11-/m1/s1",
        "InChIKey": null,
        "Canonical SMILES": "O=C(O)C(C)C1NC(=O)C1C(O[Si](C)(C)C(C)(C)C)C",
        "Molecular Formula": "C<sub>14</sub>H<sub>27</sub>NO<sub>4</sub>Si",
        "Molecular Mass": "301.45",
        "Melting Point": "146-147 °C"
    }
}