{
    "cas_no": "4125-25-1",
    "key_name": "Triisobutylphosphine",
    "cn_name": null,
    "alternate_name": "Phosphine, tris(2-methylpropyl)-;Phosphine, triisobutyl-;Tris(2-methylpropyl)phosphine;Triisobutylphosphine",
    "duplicated_cas_no": "",
    "SMILES": "P(CC(C)C)(CC(C)C)CC(C)C",
    "meta_data": {
        "InChI": "InChI=1S/C12H27P/c1-10(2)7-13(8-11(3)4)9-12(5)6/h10-12H,7-9H2,1-6H3",
        "InChIKey": null,
        "Canonical SMILES": "P(CC(C)C)(CC(C)C)CC(C)C",
        "Molecular Formula": "C<sub>12</sub>H<sub>27</sub>P",
        "Molecular Mass": "202.32",
        "Boiling Point": "126 °C @ Press: 50 Torr"
    }
}