{
    "cas_no": "1142-20-7",
    "key_name": "Benzyloxycarbonyl-<span class=\"text-smallcaps\">L</span>-alanine",
    "cn_name": "苄氧羰基-L-丙氨酸;N-CBZ-L-丙氨酸;",
    "alternate_name": "<span class=\"text-smallcaps\">L</span>-Alanine, <em>N</em>-[(phenylmethoxy)carbonyl]-;Alanine, <em>N</em>-carboxy-, <em>N</em>-benzyl ester, <span class=\"text-smallcaps\">L</span>-;<span class=\"text-smallcaps\">L</span>-Alanine, <em>N</em>-carboxy-, <em>N</em>-benzyl ester;<em>N</em>-[(Phenylmethoxy)carbonyl]-<span class=\"text-smallcaps\">L</span>-alanine;Benzyloxycarbonyl-<span class=\"text-smallcaps\">L</span>-alanine;<em>N</em>-[(Benzyloxy)carbonyl]-<span class=\"text-smallcaps\">L</span>-alanine;<em>N</em>-Benzoxycarbonyl-<span class=\"text-smallcaps\">L</span>-alanine;<em>N</em>-(Carbobenzoxy)-<span class=\"text-smallcaps\">L</span>-alanine;<span class=\"text-smallcaps\">L</span>-Carbobenzoxyalanine;<em>N</em>-(Benzyloxycarbonyl)-(<em>S</em>)-alanine;<span class=\"text-smallcaps\">L</span>-<em>N</em>-(Benzyloxycarbonyl)alanine;<span class=\"text-smallcaps\">L</span>-Carbobenzyloxyalanine;<em>N</em>-Carbobenzyloxy-<span class=\"text-smallcaps\">L</span>-alanine;NSC 156978;NSC 88469;(<em>S</em>)-2-(Benzyloxycarbonylamino)propanoic acid;(<em>S</em>)-2-[(Benzyloxycarbonyl)amino]propionic acid;<span class=\"text-smallcaps\">L</span>-Cbz alanine;Cbz-<span class=\"text-smallcaps\">L</span>-Ala-OH;(2S)-2-[[(Benzyloxy)carbonyl]amino]propanoic acid;<em>N</em>-Cbz alanine",
    "duplicated_cas_no": "91280-19-2",
    "SMILES": "C(OC(N[C@H](C(O)=O)C)=O)C1=CC=CC=C1",
    "meta_data": {
        "InChI": "InChI=1S/C11H13NO4/c1-8(10(13)14)12-11(15)16-7-9-5-3-2-4-6-9/h2-6,8H,7H2,1H3,(H,12,15)(H,13,14)/t8-/m0/s1",
        "InChIKey": null,
        "Canonical SMILES": "O=C(OCC=1C=CC=CC1)NC(C(=O)O)C",
        "Molecular Formula": "C<sub>11</sub>H<sub>13</sub>NO<sub>4</sub>",
        "Molecular Mass": "223.23",
        "Melting Point": "84 °C"
    }
}