{
    "cas_no": "120686-17-1",
    "key_name": "1,1-Dimethylethyl (β<em>S</em>)-β-aminobenzenebutanoate",
    "cn_name": null,
    "alternate_name": "Benzenebutanoic acid, β-amino-, 1,1-dimethylethyl ester, (β<em>S</em>)-;Benzenebutanoic acid, β-amino-, 1,1-dimethylethyl ester, (<em>S</em>)-;1,1-Dimethylethyl (β<em>S</em>)-β-aminobenzenebutanoate;<em>tert</em>-Butyl (<em>S</em>)-3-amino-4-phenylbutanoate;<em>tert</em>-Butyl (3<em>S</em>)-3-amino-4-phenylbutanoate",
    "duplicated_cas_no": "",
    "SMILES": "C([C@@H](CC(OC(C)(C)C)=O)N)C1=CC=CC=C1",
    "meta_data": {
        "InChI": "InChI=1S/C14H21NO2/c1-14(2,3)17-13(16)10-12(15)9-11-7-5-4-6-8-11/h4-8,12H,9-10,15H2,1-3H3/t12-/m0/s1",
        "InChIKey": null,
        "Canonical SMILES": "O=C(OC(C)(C)C)CC(N)CC=1C=CC=CC1",
        "Molecular Formula": "C<sub>14</sub>H<sub>21</sub>NO<sub>2</sub>",
        "Molecular Mass": "235.32",
        "Melting Point": "30-31 °C"
    }
}