{
    "cas_no": "16751-59-0",
    "key_name": "4-Heptanamine",
    "cn_name": null,
    "alternate_name": "4-Heptanamine;Butylamine, 1-propyl-;1-Propylbutylamine;4-Heptylamine;4-Aminoheptane;1-Propylbutanamine;(Heptan-4-yl)amine",
    "duplicated_cas_no": "",
    "SMILES": "C(CCC)(CCC)N",
    "meta_data": {
        "InChI": "InChI=1S/C7H17N/c1-3-5-7(8)6-4-2/h7H,3-6,8H2,1-2H3",
        "InChIKey": null,
        "Canonical SMILES": "NC(CCC)CCC",
        "Molecular Formula": "C<sub>7</sub>H<sub>17</sub>N",
        "Molecular Mass": "115.22",
        "Boiling Point": "139.5 °C",
        "Density": "0.771 g/cm³ @ Temp: 13 °C"
    }
}