{
    "cas_no": "603-61-2",
    "key_name": "Tamarixetin",
    "cn_name": null,
    "alternate_name": "4<em>H</em>-1-Benzopyran-4-one, 3,5,7-trihydroxy-2-(3-hydroxy-4-methoxyphenyl)-;Flavone, 3,3′,5,7-tetrahydroxy-4′-methoxy-;Tamaraxetin;3,5,7-Trihydroxy-2-(3-hydroxy-4-methoxyphenyl)-4<em>H</em>-1-benzopyran-4-one;4′-Methylquercetin;Tamarixetin;Quercetin 4′-methyl ether;3,3′,5,7-Tetrahydroxy-4′-methoxyflavone;4′-<em>O</em>-Methylquercetin;4′-Methoxyquercetin;3,5,7-Trihydroxy-2-(3-hydroxy-4-methoxyphenyl)chromen-4-one",
    "duplicated_cas_no": "",
    "SMILES": "O=C1C=2C(OC(=C1O)C3=CC(O)=C(OC)C=C3)=CC(O)=CC2O",
    "meta_data": {
        "InChI": "InChI=1S/C16H12O7/c1-22-11-3-2-7(4-9(11)18)16-15(21)14(20)13-10(19)5-8(17)6-12(13)23-16/h2-6,17-19,21H,1H3",
        "InChIKey": null,
        "Canonical SMILES": "O=C1C(O)=C(OC=2C=C(O)C=C(O)C12)C=3C=CC(OC)=C(O)C3",
        "Molecular Formula": "C<sub>16</sub>H<sub>12</sub>O<sub>7</sub>",
        "Molecular Mass": "316.26",
        "Melting Point": "259-260 °C"
    }
}