{
    "cas_no": "54406-48-3",
    "key_name": "Empenthrin",
    "cn_name": "右旋反式炔戊菊酯;烯炔菊酯;右旋-反式-2,2-二甲基-3-(2-甲基-1-丙烯基)环丙烷羧酸(E)-1-乙炔基-2-甲基-戊-2;",
    "alternate_name": "Cyclopropanecarboxylic acid, 2,2-dimethyl-3-(2-methyl-1-propen-1-yl)-, 1-ethynyl-2-methyl-2-penten-1-yl ester;Cyclopropanecarboxylic acid, 2,2-dimethyl-3-(2-methyl-1-propenyl)-, 1-ethynyl-2-methyl-2-pentenyl ester;S 2852;MA 108;<em>d</em>-Empenthrin;Vaporthrin;S 2852F;S 2852 Forte;Empenthrin;Bunganon VA Plate",
    "duplicated_cas_no": "96895-17-9;98311-74-1;92836-82-3",
    "SMILES": "C(OC(C(=CCC)C)C#C)(=O)C1C(C=C(C)C)C1(C)C",
    "meta_data": {
        "InChI": "InChI=1S/C18H26O2/c1-8-10-13(5)15(9-2)20-17(19)16-14(11-12(3)4)18(16,6)7/h2,10-11,14-16H,8H2,1,3-7H3",
        "InChIKey": null,
        "Canonical SMILES": "O=C(OC(C#C)C(=CCC)C)C1C(C=C(C)C)C1(C)C",
        "Molecular Formula": "C<sub>18</sub>H<sub>26</sub>O<sub>2</sub>",
        "Molecular Mass": "274.40",
        "Boiling Point": "295.5 °C",
        "Melting Point": "&lt;25 °C"
    }
}