{
    "cas_no": "5427-26-9",
    "key_name": "5-Hydantoinacetic acid",
    "cn_name": "乙内酰脲-5-乙酸;5-海因乙酸;乙内酰脲-5-乙酸;5-Hydantoinacetic acid;",
    "alternate_name": "4-Imidazolidineacetic acid, 2,5-dioxo-;2,5-Dioxo-4-imidazolidineacetic acid;5-Hydantoinacetic acid;5-(Carboxymethyl)hydantoin;2,4-Dioxoimidazolidine-5-acetic acid;<span class=\"text-smallcaps\">DL</span>-5-(Carboxymethyl)hydantoin;NSC 14985;NSC 49347;(2,5-Dioxoimidazolidin-4-yl)acetic acid;2-(2,5-Dioxoimidazolidin-4-yl)acetic acid",
    "duplicated_cas_no": "67337-71-7",
    "SMILES": "C(C(O)=O)C1NC(=O)NC1=O",
    "meta_data": {
        "InChI": "InChI=1S/C5H6N2O4/c8-3(9)1-2-4(10)7-5(11)6-2/h2H,1H2,(H,8,9)(H2,6,7,10,11)",
        "InChIKey": null,
        "Canonical SMILES": "O=C1NC(=O)C(N1)CC(=O)O",
        "Molecular Formula": "C<sub>5</sub>H<sub>6</sub>N<sub>2</sub>O<sub>4</sub>",
        "Molecular Mass": "158.11",
        "Melting Point": "220-225 °C"
    }
}