{
    "cas_no": "153233-91-1",
    "key_name": "Etoxazole",
    "cn_name": null,
    "alternate_name": "Oxazole, 2-(2,6-difluorophenyl)-4-[4-(1,1-dimethylethyl)-2-ethoxyphenyl]-4,5-dihydro-;2-(2,6-Difluorophenyl)-4-[4-(1,1-dimethylethyl)-2-ethoxyphenyl]-4,5-dihydrooxazole;YI 5301;Etoxazole;Baroque;TetraSan;Borneo;Zeal;Yimanzuo",
    "duplicated_cas_no": "",
    "SMILES": "O(CC)C1=C(C2N=C(OC2)C3=C(F)C=CC=C3F)C=CC(C(C)(C)C)=C1",
    "meta_data": {
        "InChI": "InChI=1S/C21H23F2NO2/c1-5-25-18-11-13(21(2,3)4)9-10-14(18)17-12-26-20(24-17)19-15(22)7-6-8-16(19)23/h6-11,17H,5,12H2,1-4H3",
        "InChIKey": null,
        "Canonical SMILES": "FC1=CC=CC(F)=C1C2=NC(C3=CC=C(C=C3OCC)C(C)(C)C)CO2",
        "Molecular Formula": "C<sub>21</sub>H<sub>23</sub>F<sub>2</sub>NO<sub>2</sub>",
        "Molecular Mass": "359.41",
        "Melting Point": "101.5 °C"
    }
}