{
    "cas_no": "133081-25-1",
    "key_name": "6-[2-(<em>tert</em>-Butoxycarbonyl)hydrazinyl]nicotinic acid",
    "cn_name": null,
    "alternate_name": "3-Pyridinecarboxylic acid, 6-[1-[(1,1-dimethylethoxy)carbonyl]hydrazinyl]-;3-Pyridinecarboxylic acid, 6-[2-[(1,1-dimethylethoxy)carbonyl]hydrazino]-;6-[1-[(1,1-Dimethylethoxy)carbonyl]hydrazinyl]-3-pyridinecarboxylic acid;6-[2-(<em>tert</em>-Butoxycarbonyl)hydrazinyl]nicotinic acid;6-Boc-Hynic;6-[2-(<em>tert</em>-Butoxycarbonyl)hydrazono]-1,6-dihydropyridine-2-carboxylic acid;6-[[(<em>tert</em>-Butoxycarbonyl)amino]amino]nicotinic acid",
    "duplicated_cas_no": "2567571-34-8",
    "SMILES": "N(NC(OC(C)(C)C)=O)C1=CC=C(C(O)=O)C=N1",
    "meta_data": {
        "InChI": "InChI=1S/C11H15N3O4/c1-11(2,3)18-10(17)14-13-8-5-4-7(6-12-8)9(15)16/h4-6H,1-3H3,(H,12,13)(H,14,17)(H,15,16)",
        "InChIKey": null,
        "Canonical SMILES": "O=C(O)C1=CN=C(C=C1)NNC(=O)OC(C)(C)C",
        "Molecular Formula": "C<sub>11</sub>H<sub>15</sub>N<sub>3</sub>O<sub>4</sub>",
        "Molecular Mass": "253.25",
        "Melting Point": "126 °C"
    }
}