{
    "cas_no": "532-65-0",
    "key_name": "(+)-Turmerone",
    "cn_name": null,
    "alternate_name": "2-Hepten-4-one, 2-methyl-6-(4-methylphenyl)-, (6<em>S</em>)-;2-Hepten-4-one, 2-methyl-6-<em>p</em>-tolyl-;<em>ar</em>-Turmerone;2-Hepten-4-one, 2-methyl-6-(4-methylphenyl)-, (<em>S</em>)-;(6<em>S</em>)-2-Methyl-6-(4-methylphenyl)-2-hepten-4-one;(<em>S</em>)-<em>ar</em>-Turmerone;(+)-<em>ar</em>-Turmerone;<em>ar</em>-(+)-Turmerone;<em>ar</em>-Tumerone;(+)-(<em>S</em>)-<em>ar</em>-Turmerone;(+)-Turmerone;(<em>S</em>)-(+)-<em>ar</em>-Turmerone;(+)-(S)-ar-turmerone;ar-Turmerone;(6S)-2-Methyl-6-(4-methylphenyl)hept-2-en-4-one",
    "duplicated_cas_no": "",
    "SMILES": "[C@@H](CC(C=C(C)C)=O)(C)C1=CC=C(C)C=C1",
    "meta_data": {
        "InChI": "InChI=1S/C15H20O/c1-11(2)9-15(16)10-13(4)14-7-5-12(3)6-8-14/h5-9,13H,10H2,1-4H3/t13-/m0/s1",
        "InChIKey": null,
        "Canonical SMILES": "O=C(C=C(C)C)CC(C1=CC=C(C=C1)C)C",
        "Molecular Formula": "C<sub>15</sub>H<sub>20</sub>O",
        "Molecular Mass": "216.32",
        "Boiling Point": "159-160 °C @ Press: 10 Torr",
        "Density": "0.9634 g/cm³ @ Temp: 20 °C"
    }
}