{
    "cas_no": "17348-76-4",
    "key_name": "2′-Hydroxyflavanone",
    "cn_name": "2-羟基黄烷酮;",
    "alternate_name": "4<em>H</em>-1-Benzopyran-4-one, 2,3-dihydro-2-(2-hydroxyphenyl)-;Flavanone, 2′-hydroxy-;2,3-Dihydro-2-(2-hydroxyphenyl)-4<em>H</em>-1-benzopyran-4-one;(±)-2′-Hydroxyflavanone;2′-Hydroxyflavanone;2-(2-Hydroxyphenyl)chroman-4-one;2-(2-Hydroxyphenyl)-2,3-dihydrochromen-4-one;2-(2-Hydroxyphenyl)-3,4-dihydro-2<em>H</em>-1-benzopyran-4-one",
    "duplicated_cas_no": "140479-94-3",
    "SMILES": "OC1=C(C2OC=3C(C(=O)C2)=CC=CC3)C=CC=C1",
    "meta_data": {
        "InChI": "InChI=1S/C15H12O3/c16-12-7-3-1-5-10(12)15-9-13(17)11-6-2-4-8-14(11)18-15/h1-8,15-16H,9H2",
        "InChIKey": null,
        "Canonical SMILES": "O=C1C=2C=CC=CC2OC(C=3C=CC=CC3O)C1",
        "Molecular Formula": "C<sub>15</sub>H<sub>12</sub>O<sub>3</sub>",
        "Molecular Mass": "240.25",
        "Melting Point": "170 °C"
    }
}