{
    "cas_no": "4854-84-6",
    "key_name": "4′-Amino[1,1′-biphenyl]-4-carbonitrile",
    "cn_name": "4\"-氨基-4-氰基联苯;",
    "alternate_name": "[1,1′-Biphenyl]-4-carbonitrile, 4′-amino-;4-Biphenylcarbonitrile, 4′-amino-;4′-Amino[1,1′-biphenyl]-4-carbonitrile;4′-Amino-4-biphenylcarbonitrile;<em>p</em>-Amino-<em>p</em>′-cyanobiphenyl;4-Amino-4′-cyanobiphenyl;NSC 105455;(4′-Cyanobiphenyl-4-yl)amine;4′-Amino-1,1′-biphenyl-4-carbonitrile;4-(4-Aminophenyl)benzonitrile",
    "duplicated_cas_no": "",
    "SMILES": "C(#N)C1=CC=C(C=C1)C2=CC=C(N)C=C2",
    "meta_data": {
        "InChI": "InChI=1S/C13H10N2/c14-9-10-1-3-11(4-2-10)12-5-7-13(15)8-6-12/h1-8H,15H2",
        "InChIKey": null,
        "Canonical SMILES": "N#CC=1C=CC(=CC1)C2=CC=C(N)C=C2",
        "Molecular Formula": "C<sub>13</sub>H<sub>10</sub>N<sub>2</sub>",
        "Molecular Mass": "194.23",
        "Boiling Point": "237-240 °C @ Press: 7 Torr",
        "Melting Point": "181.0-183.0 °C"
    }
}