{
    "cas_no": "1765-26-0",
    "key_name": "2,2-Bis(trifluoromethyl)-1,3-dioxolane",
    "cn_name": "2,2-二(三氟甲基)-1,3-二噁戊环;",
    "alternate_name": "1,3-Dioxolane, 2,2-bis(trifluoromethyl)-;2,2-Bis(trifluoromethyl)-1,3-dioxolane",
    "duplicated_cas_no": "",
    "SMILES": "C(F)(F)(F)C1(C(F)(F)F)OCCO1",
    "meta_data": {
        "InChI": "InChI=1S/C5H4F6O2/c6-4(7,8)3(5(9,10)11)12-1-2-13-3/h1-2H2",
        "InChIKey": null,
        "Canonical SMILES": "FC(F)(F)C1(OCCO1)C(F)(F)F",
        "Molecular Formula": "C<sub>5</sub>H<sub>4</sub>F<sub>6</sub>O<sub>2</sub>",
        "Molecular Mass": "210.07",
        "Boiling Point": "99-100 °C"
    }
}