{
    "cas_no": "180465-84-3",
    "key_name": "1,1-Dimethylethyl 1,2-dihydrospiro[3<em>H</em>-indole-3,4′-piperidine]-1′-carboxylate",
    "cn_name": null,
    "alternate_name": "Spiro[3<em>H</em>-indole-3,4′-piperidine]-1′-carboxylic acid, 1,2-dihydro-, 1,1-dimethylethyl ester;1,1-Dimethylethyl 1,2-dihydrospiro[3<em>H</em>-indole-3,4′-piperidine]-1′-carboxylate;Spiro[indoline-3,4′-piperidine]-1′-carboxylic acid tert-butyl ester;1,2-Dihydrospiro[3<em>H</em>-indole-3,4′-piperidine]-1′-carboxylic acid 1,1-dimethylethyl ester",
    "duplicated_cas_no": "",
    "SMILES": "C(OC(C)(C)C)(=O)N1CCC2(C=3C(NC2)=CC=CC3)CC1",
    "meta_data": {
        "InChI": "InChI=1S/C17H24N2O2/c1-16(2,3)21-15(20)19-10-8-17(9-11-19)12-18-14-7-5-4-6-13(14)17/h4-7,18H,8-12H2,1-3H3",
        "InChIKey": null,
        "Canonical SMILES": "O=C(OC(C)(C)C)N1CCC2(C=3C=CC=CC3NC2)CC1",
        "Molecular Formula": "C<sub>17</sub>H<sub>24</sub>N<sub>2</sub>O<sub>2</sub>",
        "Molecular Mass": "288.38",
        "Melting Point": "173-174 °C"
    }
}