{
    "cas_no": "1195-45-5",
    "key_name": "4-Fluorophenyl isocyanate",
    "cn_name": "4-氟苯基异氰酸酯;对氟苯基异氰酸酯;异氰酸对氟苯基酯;",
    "alternate_name": "Benzene, 1-fluoro-4-isocyanato-;Isocyanic acid, <em>p</em>-fluorophenyl ester;1-Fluoro-4-isocyanatobenzene;<em>p</em>-Fluorophenyl isocyanate;4-Fluorophenyl isocyanate;<em>p</em>-Fluorobenzene isocyanate;4-Fluoroisocyanatobenzene;NSC 82348;4-Fluoro-1-isocyanatobenzene",
    "duplicated_cas_no": "",
    "SMILES": "N(=C=O)C1=CC=C(F)C=C1",
    "meta_data": {
        "InChI": "InChI=1S/C7H4FNO/c8-6-1-3-7(4-2-6)9-5-10/h1-4H",
        "InChIKey": null,
        "Canonical SMILES": "O=C=NC1=CC=C(F)C=C1",
        "Molecular Formula": "C<sub>7</sub>H<sub>4</sub>FNO",
        "Molecular Mass": "137.11",
        "Boiling Point": "68 °C @ Press: 15 Torr",
        "Melting Point": "103-104 °C"
    }
}