{
    "cas_no": "38050-71-4",
    "key_name": "9-Methoxy-9-borabicyclo[3.3.1]nonane",
    "cn_name": "B-甲氧基-9-BBN;",
    "alternate_name": "9-Borabicyclo[3.3.1]nonane, 9-methoxy-;9-Methoxy-9-borabicyclo[3.3.1]nonane;<em>B</em>-Methoxy-9-borabicyclo[3.3.1]nonane;B-Methoxy-9-borabicyclo[3.3.1]nonane;9-Methoxy-BBN;<em>B</em>-Methoxy-9-BBN;9-MeO-9-BBN;9-Methoxy-9-BBN",
    "duplicated_cas_no": "",
    "SMILES": "O(C)B1C2CCCC1CCC2",
    "meta_data": {
        "InChI": "InChI=1S/C9H17BO/c1-11-10-8-4-2-5-9(10)7-3-6-8/h8-9H,2-7H2,1H3",
        "InChIKey": null,
        "Canonical SMILES": "O(B1C2CCCC1CCC2)C",
        "Molecular Formula": "C<sub>9</sub>H<sub>17</sub>BO",
        "Molecular Mass": "152.04",
        "Boiling Point": "57-58 °C @ Press: 7 Torr"
    }
}