{
    "cas_no": "37951-15-8",
    "key_name": "4-Phenoxyphthalic acid",
    "cn_name": null,
    "alternate_name": "1,2-Benzenedicarboxylic acid, 4-phenoxy-;4-Phenoxy-1,2-benzenedicarboxylic acid;4-Phenoxyphthalic acid",
    "duplicated_cas_no": "",
    "SMILES": "C(O)(=O)C1=C(C(O)=O)C=CC(OC2=CC=CC=C2)=C1",
    "meta_data": {
        "InChI": "InChI=1S/C14H10O5/c15-13(16)11-7-6-10(8-12(11)14(17)18)19-9-4-2-1-3-5-9/h1-8H,(H,15,16)(H,17,18)",
        "InChIKey": null,
        "Canonical SMILES": "O=C(O)C1=CC=C(OC=2C=CC=CC2)C=C1C(=O)O",
        "Molecular Formula": "C<sub>14</sub>H<sub>10</sub>O<sub>5</sub>",
        "Molecular Mass": "258.23",
        "Melting Point": "170-173 °C"
    }
}