{
    "cas_no": "126833-17-8",
    "key_name": "Fenhexamid",
    "cn_name": "N-(2,3-二氯-4-羟基苯基)-1-甲基环己甲酰胺;",
    "alternate_name": "Cyclohexanecarboxamide, <em>N</em>-(2,3-dichloro-4-hydroxyphenyl)-1-methyl-;<em>N</em>-(2,3-Dichloro-4-hydroxyphenyl)-1-methylcyclohexanecarboxamide;KBR 2738;Fenhexamid;Elevate;Teldor;Decree",
    "duplicated_cas_no": "200960-81-2;1135441-59-6",
    "SMILES": "C(NC1=C(Cl)C(Cl)=C(O)C=C1)(=O)C2(C)CCCCC2",
    "meta_data": {
        "InChI": "InChI=1S/C14H17Cl2NO2/c1-14(7-3-2-4-8-14)13(19)17-9-5-6-10(18)12(16)11(9)15/h5-6,18H,2-4,7-8H2,1H3,(H,17,19)",
        "InChIKey": null,
        "Canonical SMILES": "O=C(NC1=CC=C(O)C(Cl)=C1Cl)C2(C)CCCCC2",
        "Molecular Formula": "C<sub>14</sub>H<sub>17</sub>Cl<sub>2</sub>NO<sub>2</sub>",
        "Molecular Mass": "302.20",
        "Melting Point": "141 °C"
    }
}