{
    "cas_no": "5933-32-4",
    "key_name": "4-Bromobenzoic acid hydrazide",
    "cn_name": "4-溴苯肼;",
    "alternate_name": "Benzoic acid, 4-bromo-, hydrazide;Benzoic acid, <em>p</em>-bromo-, hydrazide;<em>p</em>-Bromobenzoic acid hydrazide;4-Bromobenzhydrazide;<em>p</em>-Bromobenzohydrazide;4-Bromobenzohydrazide;4-Bromobenzoic acid hydrazide;(4-Bromobenzoyl)hydrazine;<em>p</em>-Bromobenzoic hydrazide;(<em>p</em>-Bromobenzoyl)hydrazine;4-Bromobenzenecarboxylic acid hydrazide;<em>p</em>-Bromobenzhydrazide;4-Bromobenzoyl hydrazide;NSC 60114;INHd 16;4-Bromobenzoic hydrazide",
    "duplicated_cas_no": "",
    "SMILES": "C(NN)(=O)C1=CC=C(Br)C=C1",
    "meta_data": {
        "InChI": "InChI=1S/C7H7BrN2O/c8-6-3-1-5(2-4-6)7(11)10-9/h1-4H,9H2,(H,10,11)",
        "InChIKey": null,
        "Canonical SMILES": "O=C(NN)C1=CC=C(Br)C=C1",
        "Molecular Formula": "C<sub>7</sub>H<sub>7</sub>BrN<sub>2</sub>O",
        "Molecular Mass": "215.05",
        "Melting Point": "165-167 °C"
    }
}