{
    "cas_no": "1229-29-4",
    "key_name": "Doxepin hydrochloride",
    "cn_name": "盐酸多塞平;盐酸多虑平;N,N-二甲基-3-二苯并[b,e]-噁庚英-11(6H)亚基-丙胺盐酸盐;",
    "alternate_name": "1-Propanamine, 3-(dibenz[<em>b</em>,<em>e</em>]oxepin-11(6<em>H</em>)-ylidene)-<em>N</em>,<em>N</em>-dimethyl-, hydrochloride (1:1);Dibenz[<em>b</em>,<em>e</em>]oxepin-Δ<sup>11(6</sup><em><sup>H</sup></em><sup>),γ</sup>-propylamine, <em>N</em>,<em>N</em>-dimethyl-, hydrochloride;1-Propanamine, 3-dibenz[<em>b</em>,<em>e</em>]oxepin-11(6<em>H</em>)-ylidene-<em>N</em>,<em>N</em>-dimethyl-, hydrochloride;Dibenz[<em>b</em>,<em>e</em>]oxepin, 1-propanamine deriv.;P 3693A;Curatin;<em>N</em>,<em>N</em>-Dimethyldibenz[<em>b</em>,<em>e</em>]oxepin-Δ<sup>11(6</sup><em><sup>H</sup></em><sup>),γ</sup>-propylamine hydrochloride;Doxepin hydrochloride;Doxepine hydrochloride;Sinequan;Aponal;Quitaxon;Adapin;Sinequin;Silenor",
    "duplicated_cas_no": "20917-44-6",
    "SMILES": "C(CCN(C)C)=C1C=2C(COC=3C1=CC=CC3)=CC=CC2.Cl",
    "meta_data": {
        "InChI": "InChI=1S/C19H21NO.ClH/c1-20(2)13-7-11-17-16-9-4-3-8-15(16)14-21-19-12-6-5-10-18(17)19;/h3-6,8-12H,7,13-14H2,1-2H3;1H",
        "InChIKey": null,
        "Canonical SMILES": "Cl.O1C=2C=CC=CC2C(=CCCN(C)C)C=3C=CC=CC3C1",
        "Molecular Formula": "C<sub>19</sub>H<sub>21</sub>NO.ClH",
        "Molecular Mass": "",
        "Melting Point": "184-186 °C"
    }
}