{
    "cas_no": "439-89-4",
    "key_name": "Gentianine",
    "cn_name": "秦艽甲素;秦艽甲素;",
    "alternate_name": "1<em>H</em>-Pyrano[3,4-<em>c</em>]pyridin-1-one, 5-ethenyl-3,4-dihydro-;1<em>H</em>-Pyrano[3,4-<em>c</em>]pyridin-1-one, 3,4-dihydro-5-vinyl-;Gentianine;Nicotinic acid, 4-(2-hydroxyethyl)-5-vinyl-, δ-lactone;5-Ethenyl-3,4-dihydro-1<em>H</em>-pyrano[3,4-<em>c</em>]pyridin-1-one;NSC 606848;5-Vinyl-3,4-dihydropyrano[3,4-<em>c</em>]pyridin-1-one",
    "duplicated_cas_no": "",
    "SMILES": "C(=C)C1=C2C(C(=O)OCC2)=CN=C1",
    "meta_data": {
        "InChI": "InChI=1S/C10H9NO2/c1-2-7-5-11-6-9-8(7)3-4-13-10(9)12/h2,5-6H,1,3-4H2",
        "InChIKey": null,
        "Canonical SMILES": "O=C1OCCC=2C(=CN=CC12)C=C",
        "Molecular Formula": "C<sub>10</sub>H<sub>9</sub>NO<sub>2</sub>",
        "Molecular Mass": "175.18",
        "Melting Point": "81-83 °C"
    }
}