{
    "cas_no": "10026-22-9",
    "key_name": "Cobalt nitrate hexahydrate",
    "cn_name": "硝酸钴六水合物;硝酸亚钴;六水合硝酸钴;",
    "alternate_name": "Nitric acid, cobalt(2+) salt, hydrate (2:1:6);Nitric acid, cobalt(2+) salt, hexahydrate;Cobalt nitrate hexahydrate;Cobalt(II) nitrate hexahydrate;Cobalt dinitrate hexahydrate;Cobalt nitrate (Co(NO<sub>3</sub>)<sub>2</sub>), hexahydrate;Cobalt nitrate (Co(NO<sub>3</sub>)<sub>2</sub>.6H<sub>2</sub>O);Cobaltous nitrate hexahydrate;Cobalt(2+) nitrate hexahydrate;Cobaltous dinitrate hexahydrate;Cobalt(2+) dinitrate hexahydrate",
    "duplicated_cas_no": "13478-32-5;2222924-38-9;2551294-77-8",
    "SMILES": "N(=O)(=O)O.[Co].O",
    "meta_data": {
        "InChI": "InChI=1S/Co.HNO3.3H2O/c;2-1(3)4;;;/h;(H,2,3,4);3*1H2",
        "InChIKey": null,
        "Canonical SMILES": "[Co].O=N(=O)O.O",
        "Molecular Formula": "Co.6H<sub>2</sub>O.2HNO<sub>3</sub>",
        "Molecular Mass": "",
        "Melting Point": "55 °C",
        "Density": "1.88 g/cm³"
    }
}