{
    "cas_no": "32890-94-1",
    "key_name": "2-Fluoro-6-(trifluoromethyl)benzoic acid",
    "cn_name": "2-氟-6-(三氟甲基)苯甲酸;",
    "alternate_name": "Benzoic acid, 2-fluoro-6-(trifluoromethyl)-;<em>o</em>-Toluic acid, α,α,α,6-tetrafluoro-;2-Fluoro-6-(trifluoromethyl)benzoic acid;6-Fluoro-2-(trifluoromethyl)benzoic acid;α,α,α,6-Tetrafluoro-<em>o</em>-toluic acid",
    "duplicated_cas_no": "",
    "SMILES": "C(O)(=O)C1=C(C(F)(F)F)C=CC=C1F",
    "meta_data": {
        "InChI": "InChI=1S/C8H4F4O2/c9-5-3-1-2-4(8(10,11)12)6(5)7(13)14/h1-3H,(H,13,14)",
        "InChIKey": null,
        "Canonical SMILES": "O=C(O)C=1C(F)=CC=CC1C(F)(F)F",
        "Molecular Formula": "C<sub>8</sub>H<sub>4</sub>F<sub>4</sub>O<sub>2</sub>",
        "Molecular Mass": "208.11",
        "Melting Point": "83 °C"
    }
}