{
    "cas_no": "446-52-6",
    "key_name": "2-Fluorobenzaldehyde",
    "cn_name": "2-氟苯甲醛;邻氟苯甲醛;",
    "alternate_name": "Benzaldehyde, 2-fluoro-;Benzaldehyde, <em>o</em>-fluoro-;2-Fluorobenzaldehyde;<em>o</em>-Fluorobenzaldehyde;NSC 66829",
    "duplicated_cas_no": "",
    "SMILES": "C(=O)C1=C(F)C=CC=C1",
    "meta_data": {
        "InChI": "InChI=1S/C7H5FO/c8-7-4-2-1-3-6(7)5-9/h1-5H",
        "InChIKey": null,
        "Canonical SMILES": "O=CC=1C=CC=CC1F",
        "Molecular Formula": "C<sub>7</sub>H<sub>5</sub>FO",
        "Molecular Mass": "124.11",
        "Boiling Point": "175 °C",
        "Melting Point": "-44.5 °C"
    }
}