{
    "cas_no": "10342-85-5",
    "key_name": "4′-Piperidinoacetophenone",
    "cn_name": "4-哌啶苯乙酮;对哌啶基苯乙酮;N-(4-乙酰基苯基)哌啶;",
    "alternate_name": "Ethanone, 1-[4-(1-piperidinyl)phenyl]-;Acetophenone, 4′-piperidino-;1-[4-(1-Piperidinyl)phenyl]ethanone;4′-Piperidinoacetophenone;4′-(1-Piperidinyl)acetophenone;1-(<em>p</em>-Acetylphenyl)piperidine;NSC 102839;1-[4-(Piperidin-1-yl)phenyl]ethan-1-one",
    "duplicated_cas_no": "",
    "SMILES": "C(C)(=O)C1=CC=C(C=C1)N2CCCCC2",
    "meta_data": {
        "InChI": "InChI=1S/C13H17NO/c1-11(15)12-5-7-13(8-6-12)14-9-3-2-4-10-14/h5-8H,2-4,9-10H2,1H3",
        "InChIKey": null,
        "Canonical SMILES": "O=C(C1=CC=C(C=C1)N2CCCCC2)C",
        "Molecular Formula": "C<sub>13</sub>H<sub>17</sub>NO",
        "Molecular Mass": "203.28",
        "Melting Point": "88.5-89.5 °C"
    }
}