{
    "cas_no": "443-26-5",
    "key_name": "Benzoic acid, 2-fluoro-, ethyl ester",
    "cn_name": "2-氟苯甲酸乙酯;",
    "alternate_name": "Benzoic acid, 2-fluoro-, ethyl ester;Benzoic acid, <em>o</em>-fluoro-, ethyl ester;Ethyl <em>o</em>-fluorobenzoate;Ethyl 2-fluorobenzoate;NSC 67340;2-Fluorobenzoic acid ethyl ester",
    "duplicated_cas_no": "",
    "SMILES": "C(OCC)(=O)C1=C(F)C=CC=C1",
    "meta_data": {
        "InChI": "InChI=1S/C9H9FO2/c1-2-12-9(11)7-5-3-4-6-8(7)10/h3-6H,2H2,1H3",
        "InChIKey": null,
        "Canonical SMILES": "O=C(OCC)C=1C=CC=CC1F",
        "Molecular Formula": "C<sub>9</sub>H<sub>9</sub>FO<sub>2</sub>",
        "Molecular Mass": "168.16",
        "Boiling Point": "85.5 °C @ Press: 8 Torr",
        "Density": "1.1261 g/cm³ @ Temp: 40 °C"
    }
}