{
    "cas_no": "64614-49-9",
    "key_name": "(6-Chloro-3-pyridinyl)-4-morpholinylmethanone",
    "cn_name": null,
    "alternate_name": "Methanone, (6-chloro-3-pyridinyl)-4-morpholinyl-;Morpholine, 4-[(6-chloro-3-pyridinyl)carbonyl]-;(6-Chloro-3-pyridinyl)-4-morpholinylmethanone;4-[(6-Chloro-3-pyridinyl)carbonyl]morpholine;1-(6-Chloropyridin-3-yl)-1-morpholin-4-ylmethanone;(6-Chloropyridin-3-yl)morpholin-4-ylmethanone",
    "duplicated_cas_no": "",
    "SMILES": "C(=O)(C=1C=CC(Cl)=NC1)N2CCOCC2",
    "meta_data": {
        "InChI": "InChI=1S/C10H11ClN2O2/c11-9-2-1-8(7-12-9)10(14)13-3-5-15-6-4-13/h1-2,7H,3-6H2",
        "InChIKey": null,
        "Canonical SMILES": "O=C(C1=CN=C(Cl)C=C1)N2CCOCC2",
        "Molecular Formula": "C<sub>10</sub>H<sub>11</sub>ClN<sub>2</sub>O<sub>2</sub>",
        "Molecular Mass": "226.66",
        "Melting Point": "61-62.5 °C"
    }
}