{
    "cas_no": "4160-61-6",
    "key_name": "Methyl 4-oxotetrahydro-2<em>H</em>-thiopyran-3-carboxylate",
    "cn_name": null,
    "alternate_name": "2<em>H</em>-Thiopyran-3-carboxylic acid, tetrahydro-4-oxo-, methyl ester;Thiopyran-3-carboxylic acid, tetrahydro-4-oxo-, methyl ester;Methyl tetrahydrothiopyran-4-one-3-carboxylate;3-Carbomethoxytetrahydro-1,4-thiapyrone;3-(Carbomethoxy)tetrahydrothiopyran-4-one;3-Methoxycarbonyl-4-thianone;Methyl 4-oxo-tetrahydrothiopyran-3-carboxylate;Methyl 4-oxotetrahydro-2<em>H</em>-thiopyran-3-carboxylate;Methyl 4-oxo-3,4,5,6-tetrahydro-2<em>H</em>-thiopyran-3-carboxylate;4-Oxotetrahydro-2<em>H</em>-thiopyran-3-carboxylate methyl ester",
    "duplicated_cas_no": "92119-93-2",
    "SMILES": "C(OC)(=O)C1C(=O)CCSC1",
    "meta_data": {
        "InChI": "InChI=1S/C7H10O3S/c1-10-7(9)5-4-11-3-2-6(5)8/h5H,2-4H2,1H3",
        "InChIKey": null,
        "Canonical SMILES": "O=C(OC)C1C(=O)CCSC1",
        "Molecular Formula": "C<sub>7</sub>H<sub>10</sub>O<sub>3</sub>S",
        "Molecular Mass": "174.22",
        "Boiling Point": "120 °C @ Press: 5 Torr",
        "Density": "1.2562 g/cm³ @ Temp: 20 °C"
    }
}