{
    "cas_no": "41526-21-0",
    "key_name": "<em>N</em>-[4-Bromo-2-(2-pyridinylcarbonyl)phenyl]-2-chloroacetamide",
    "cn_name": "N-[4-溴-2-(2-吡啶甲酰基)苯基]-2-氯乙酰胺;",
    "alternate_name": "Acetamide, <em>N</em>-[4-bromo-2-(2-pyridinylcarbonyl)phenyl]-2-chloro-;<em>N</em>-[4-Bromo-2-(2-pyridinylcarbonyl)phenyl]-2-chloroacetamide;2-(2-Chloroacetamido-5-bromobenzoyl)pyridine;2-[2-(2-Chloroacetamido)-5-bromobenzoyl]pyridine",
    "duplicated_cas_no": "",
    "SMILES": "C(=O)(C1=C(NC(CCl)=O)C=CC(Br)=C1)C2=CC=CC=N2",
    "meta_data": {
        "InChI": "InChI=1S/C14H10BrClN2O2/c15-9-4-5-11(18-13(19)8-16)10(7-9)14(20)12-3-1-2-6-17-12/h1-7H,8H2,(H,18,19)",
        "InChIKey": null,
        "Canonical SMILES": "O=C(C1=NC=CC=C1)C2=CC(Br)=CC=C2NC(=O)CCl",
        "Molecular Formula": "C<sub>14</sub>H<sub>10</sub>BrClN<sub>2</sub>O<sub>2</sub>",
        "Molecular Mass": "353.60",
        "Melting Point": "131-132 °C"
    }
}