{
    "cas_no": "696-23-1",
    "key_name": "2-Methyl-5-nitroimidazole",
    "cn_name": null,
    "alternate_name": "1<em>H</em>-Imidazole, 2-methyl-5-nitro-;Imidazole, 2-methyl-4-nitro-;1<em>H</em>-Imidazole, 2-methyl-4-nitro-;Imidazole, 2-methyl-4(<em>or</em> 5)-nitro-;2-Methyl-5-nitro-1<em>H</em>-imidazole;2-Methyl-4-nitroimidazole;2-Methyl-5-nitroimidazole;RP 8532;Menidazole;2-Methyl-4-nitro-1<em>H</em>-imidazole;L 581490;4-Nitro-2-methylimidazole",
    "duplicated_cas_no": "100215-29-0;88054-22-2",
    "SMILES": "N(=O)(=O)C=1NC(C)=NC1",
    "meta_data": {
        "InChI": "InChI=1S/C4H5N3O2/c1-3-5-2-4(6-3)7(8)9/h2H,1H3,(H,5,6)",
        "InChIKey": null,
        "Canonical SMILES": "O=N(=O)C1=CN=C(N1)C",
        "Molecular Formula": "C<sub>4</sub>H<sub>5</sub>N<sub>3</sub>O<sub>2</sub>",
        "Molecular Mass": "127.10",
        "Melting Point": "248 °C"
    }
}