{
    "cas_no": "7783-62-2",
    "key_name": "Tin tetrafluoride",
    "cn_name": "四氟化锡(IV);氟化锡;四氟化锡(IV);",
    "alternate_name": "Stannane, tetrafluoro-;Tin fluoride (SnF<sub>4</sub>);Stannic fluoride;Tin tetrafluoride;Tin(4+) fluoride;Tin(IV) fluoride",
    "duplicated_cas_no": "",
    "SMILES": "[Sn](F)(F)(F)F",
    "meta_data": {
        "InChI": "InChI=1S/4FH.Sn/h4*1H;/q;;;;+4/p-4",
        "InChIKey": null,
        "Canonical SMILES": "F[Sn](F)(F)F",
        "Molecular Formula": "F<sub>4</sub>Sn",
        "Molecular Mass": "194.70",
        "Boiling Point": "705 °C"
    }
}