{
    "cas_no": "39562-25-9",
    "key_name": "1-Methylethyl 2-[(3-nitrophenyl)methylene]-3-oxobutanoate",
    "cn_name": "2-(3-硝基亚苄基)乙酰乙酸异丙酯;",
    "alternate_name": "Butanoic acid, 2-[(3-nitrophenyl)methylene]-3-oxo-, 1-methylethyl ester;1-Methylethyl 2-[(3-nitrophenyl)methylene]-3-oxobutanoate;Isopropyl 2-(3-nitrobenzylidene)acetoacetate;Isopropyl 2-(<em>m</em>-nitrobenzylidene)acetoacetate",
    "duplicated_cas_no": "",
    "SMILES": "C(=C(C(OC(C)C)=O)C(C)=O)C1=CC(N(=O)=O)=CC=C1",
    "meta_data": {
        "InChI": "InChI=1S/C14H15NO5/c1-9(2)20-14(17)13(10(3)16)8-11-5-4-6-12(7-11)15(18)19/h4-9H,1-3H3",
        "InChIKey": null,
        "Canonical SMILES": "O=C(OC(C)C)C(=CC1=CC=CC(=C1)N(=O)=O)C(=O)C",
        "Molecular Formula": "C<sub>14</sub>H<sub>15</sub>NO<sub>5</sub>",
        "Molecular Mass": "277.27",
        "Melting Point": "94 °C"
    }
}