{
    "cas_no": "1699-03-2",
    "key_name": "2-[(Phenylthio)methyl]benzoic acid",
    "cn_name": "2-苯基硫代甲基苯甲酸;",
    "alternate_name": "Benzoic acid, 2-[(phenylthio)methyl]-;<em>o</em>-Toluic acid, α-(phenylthio)-;2-[(Phenylthio)methyl]benzoic acid;2-(Phenylthiomethyl)benzoic acid;α-(Phenylthio)-<em>o</em>-toluic acid;2-[(Phenylsulfanyl)methyl]benzoic acid",
    "duplicated_cas_no": "",
    "SMILES": "C(SC1=CC=CC=C1)C2=C(C(O)=O)C=CC=C2",
    "meta_data": {
        "InChI": "InChI=1S/C14H12O2S/c15-14(16)13-9-5-4-6-11(13)10-17-12-7-2-1-3-8-12/h1-9H,10H2,(H,15,16)",
        "InChIKey": null,
        "Canonical SMILES": "O=C(O)C=1C=CC=CC1CSC=2C=CC=CC2",
        "Molecular Formula": "C<sub>14</sub>H<sub>12</sub>O<sub>2</sub>S",
        "Molecular Mass": "244.31",
        "Melting Point": "111-113 °C"
    }
}