{
    "cas_no": "2387-23-7",
    "key_name": "<em>N</em>,<em>N</em>′-Dicyclohexylurea",
    "cn_name": null,
    "alternate_name": "Urea, <em>N</em>,<em>N</em>′-dicyclohexyl-;Urea, 1,3-dicyclohexyl-;<em>N</em>,<em>N</em>′-Dicyclohexylurea;1,3-Dicyclohexylurea;Dicyclohexylcarbodiamide;NSC 17013;NSC 30023;DCU",
    "duplicated_cas_no": "1071714-16-3",
    "SMILES": "N(C(NC1CCCCC1)=O)C2CCCCC2",
    "meta_data": {
        "InChI": "InChI=1S/C13H24N2O/c16-13(14-11-7-3-1-4-8-11)15-12-9-5-2-6-10-12/h11-12H,1-10H2,(H2,14,15,16)",
        "InChIKey": null,
        "Canonical SMILES": "O=C(NC1CCCCC1)NC2CCCCC2",
        "Molecular Formula": "C<sub>13</sub>H<sub>24</sub>N<sub>2</sub>O",
        "Molecular Mass": "224.34",
        "Melting Point": "229-230 °C"
    }
}