{
    "cas_no": "27383-92-2",
    "key_name": "2-Benzoxazolecarboxylic acid, 5-chloro-, methyl ester",
    "cn_name": null,
    "alternate_name": "2-Benzoxazolecarboxylic acid, 5-chloro-, methyl ester;Methyl 5-chloro-2-benzoxazolecarboxylate",
    "duplicated_cas_no": "",
    "SMILES": "C(OC)(=O)C=1OC=2C(N1)=CC(Cl)=CC2",
    "meta_data": {
        "InChI": "InChI=1S/C9H6ClNO3/c1-13-9(12)8-11-6-4-5(10)2-3-7(6)14-8/h2-4H,1H3",
        "InChIKey": null,
        "Canonical SMILES": "O=C(OC)C1=NC=2C=C(Cl)C=CC2O1",
        "Molecular Formula": "C<sub>9</sub>H<sub>6</sub>ClNO<sub>3</sub>",
        "Molecular Mass": "211.60",
        "Melting Point": "124 °C"
    }
}