{
    "cas_no": "59237-53-5",
    "key_name": "Methyl 6-chloro-5-nitro-3-pyridinecarboxylate",
    "cn_name": null,
    "alternate_name": "3-Pyridinecarboxylic acid, 6-chloro-5-nitro-, methyl ester;Methyl 6-chloro-5-nitro-3-pyridinecarboxylate;Methyl 6-chloro-5-nitronicotinate;Methyl 2-chloro-3-nitropyridine-5-carboxylate;Methyl 6-chloro-5-nitropyridine-3-carboxylate;6-Chloro-5-nitronicotinic acid methyl ester;NSC 405361;6-Chloro-5-nitropyridine-3-carboxylic acid methyl ester",
    "duplicated_cas_no": "1781480-94-1",
    "SMILES": "C(OC)(=O)C=1C=C(N(=O)=O)C(Cl)=NC1",
    "meta_data": {
        "InChI": "InChI=1S/C7H5ClN2O4/c1-14-7(11)4-2-5(10(12)13)6(8)9-3-4/h2-3H,1H3",
        "InChIKey": null,
        "Canonical SMILES": "O=C(OC)C1=CN=C(Cl)C(=C1)N(=O)=O",
        "Molecular Formula": "C<sub>7</sub>H<sub>5</sub>ClN<sub>2</sub>O<sub>4</sub>",
        "Molecular Mass": "216.58",
        "Melting Point": "76 °C"
    }
}