{
    "cas_no": "3896-11-5",
    "key_name": "2-(2-Hydroxy-3-<em>tert</em>-butyl-5-methylphenyl)-5-chlorobenzotriazole",
    "cn_name": "紫外线吸收剂UV－326;2\"-(2\"-羟基-3\"-叔丁基-5\"-甲基苯基)-5-氯苯并三唑;",
    "alternate_name": "Phenol, 2-(5-chloro-2<em>H</em>-benzotriazol-2-yl)-6-(1,1-dimethylethyl)-4-methyl-;<em>p</em>-Cresol, 2-<em>tert</em>-butyl-6-(5-chloro-2<em>H</em>-benzotriazol-2-yl)-;2-(5-Chloro-2<em>H</em>-benzotriazol-2-yl)-6-(1,1-dimethylethyl)-4-methylphenol;2-(2′-Hydroxy-3′-<em>tert</em>-butyl-5′-methylphenyl)-5-chlorobenztriazole;Tinuvin 326;2-(2-Hydroxy-3-<em>tert</em>-butyl-5-methylphenyl)-5-chlorobenzotriazole;2-(3-<em>tert</em>-Butyl-2-hydroxy-5-methylphenyl)-5-chloro-2<em>H</em>-benzo-<em>v</em>-triazole;Benazol PBKh;2-(3-<em>tert</em>-Butyl-2-hydroxy-5-methylphenyl)-5-chlorobenzotriazole;5-Chloro-2-(3-<em>tert</em>-butyl-2-hydroxy-5-methylphenyl)benzotriazole;2-<em>tert</em>-Butyl-6-(5-chloro-2-benzotriazolyl)-4-methylphenol;Bumetrizole;Cibatex LF;Seesorb 703;Sumisorb 300;Viosorb 550;2-(3-<em>tert</em>-Butyl-5-methyl-2-hydroxyphenyl)-5-chlorobenzotriazole;2-(2-Hydroxy-3-<em>tert</em>-butyl-5-methylphenyl)-5-chloro-2<em>H</em>-benzotriazole;Kemisorb 73;Mark LA 36;LA 36;ADK Stab LA 36;UV 326;2-<em>tert</em>-Butyl-6-(5-chloro-2<em>H</em>-benzotriazol-2-yl)-4-methylphenol;JF 79;JC 30S;VS 550;J 395 (light stabilizer);J 395;2-(2′-Hydroxy-3′-<em>tert</em>-butyl-5′-methylphenyl)-5-chlorobenzotriazole;2-[5-Chloro-2<em>H</em>-benzotriazol-2-yl]-4-methyl-6-(<em>tert</em>-butyl)phenol;A-Light;Tinogard AS;Lowilite 26;2-(3′-<em>tert</em>-Butyl-5′-methyl-2′-hydroxyphenyl)-5-chlorobenzotriazole;5-Chloro-2-(2-hydroxy-3-<em>tert</em>-butyl-5-methylphenyl)-2<em>H</em>-benzotriazole;TNV 326;2-(3′-<em>tert</em>-Butyl-2′-hydroxy-5′-methylphenyl)-5-chlorobenzotriazole;Eversorb 73;Tomisorb 600;Tin 326;ADK Stab LA 36RG;Uvinul 3026;T 326;CBT;2-(5-Chloro-2-benzotriazolyl)-6-<em>tert</em>-butyl-<em>p</em>-cresol;2-(3-<em>tert</em>-Butyl-2-hydroxy-5-methylphenyl)-5-chloro-2<em>H</em>-benzotriazole;Light Stabilizer 326;2-(5-Chloro-2<em>H</em>-benzotriazol-2-yl)-6-<em>tert</em>-butyl-4-methylphenol;Songsorb 3260;Hostavin 3326;Riasorb UV 326;2-(<em>tert</em>-Butyl)-6-(5-chloro-2<em>H</em>-benzo[<em>d</em>][1,2,3]triazol-2-yl)-4-methylphenol;Chisorb 326;UV 326H;2-(2′-Hydroxy-3′-<em>tert</em>-butyl-5′-methylphenyl)-5-chloro-2<em>H</em>-benzotriazole;Songsorb 3260P;6-<em>tert</em>-Butyl-2-(5-chloro-2<em>H</em>-benzotriazol-2-yl)-4-methylphenol;Tinuvin 326FL",
    "duplicated_cas_no": "61489-93-8;80479-99-8;85497-36-5;103843-16-9;106085-65-8;136567-90-3;138464-60-5;144598-90-3;144856-53-1;145379-55-1;155375-84-1;172344-93-3;268218-33-3;474264-62-5;796971-87-4;1399293-71-0;2098648-59-8;2117663-14-4;2135333-73-0;2757077-72-6",
    "SMILES": "OC1=C(N2N=C3C(=N2)C=C(Cl)C=C3)C=C(C)C=C1C(C)(C)C",
    "meta_data": {
        "InChI": "InChI=1S/C17H18ClN3O/c1-10-7-12(17(2,3)4)16(22)15(8-10)21-19-13-6-5-11(18)9-14(13)20-21/h5-9,22H,1-4H3",
        "InChIKey": null,
        "Canonical SMILES": "ClC=1C=CC2=NN(N=C2C1)C3=CC(=CC(=C3O)C(C)(C)C)C",
        "Molecular Formula": "C<sub>17</sub>H<sub>18</sub>ClN<sub>3</sub>O",
        "Molecular Mass": "315.80",
        "Melting Point": "137-141 °C"
    }
}