{
    "cas_no": "2976-32-1",
    "key_name": "1-(Methylsulfonyl)-3-nitrobenzene",
    "cn_name": null,
    "alternate_name": "Benzene, 1-(methylsulfonyl)-3-nitro-;Sulfone, methyl <em>m</em>-nitrophenyl;1-(Methylsulfonyl)-3-nitrobenzene;Methyl <em>m</em>-nitrophenyl sulfone;Methyl 3-nitrophenyl sulfone;1-Methanesulfonyl-3-nitrobenzene;3-Nitrophenyl methyl sulfone",
    "duplicated_cas_no": "",
    "SMILES": "S(C)(=O)(=O)C1=CC(N(=O)=O)=CC=C1",
    "meta_data": {
        "InChI": "InChI=1S/C7H7NO4S/c1-13(11,12)7-4-2-3-6(5-7)8(9)10/h2-5H,1H3",
        "InChIKey": null,
        "Canonical SMILES": "O=N(=O)C1=CC=CC(=C1)S(=O)(=O)C",
        "Molecular Formula": "C<sub>7</sub>H<sub>7</sub>NO<sub>4</sub>S",
        "Molecular Mass": "201.20",
        "Melting Point": "146 °C"
    }
}