{
    "cas_no": "2873-74-7",
    "key_name": "Glutaryl dichloride",
    "cn_name": "二氯戊二醛;戊二酰基二氯;戊二酰氯;戊二酰二氯;",
    "alternate_name": "Pentanedioyl dichloride;Glutaryl chloride;Glutaric acid dichloride;Glutaroyl chloride;Glutaryl dichloride;1,3-Bis(Chlorocarbonyl)propane;Glutaroyl dichloride;NSC 519867;5-Chloro-5-oxopentanoyl chloride;1,5-Pentanedioyl chloride",
    "duplicated_cas_no": "128347-54-6",
    "SMILES": "C(CC(Cl)=O)CC(Cl)=O",
    "meta_data": {
        "InChI": "InChI=1S/C5H6Cl2O2/c6-4(8)2-1-3-5(7)9/h1-3H2",
        "InChIKey": null,
        "Canonical SMILES": "O=C(Cl)CCCC(=O)Cl",
        "Molecular Formula": "C<sub>5</sub>H<sub>6</sub>Cl<sub>2</sub>O<sub>2</sub>",
        "Molecular Mass": "169.01",
        "Boiling Point": "217 °C",
        "Density": "1.4730 g/cm³ @ Temp: 20 °C"
    }
}