{
    "cas_no": "39212-23-2",
    "key_name": "Whiskey lactone",
    "cn_name": "威士忌内酯;4-羟基-3-甲基-辛内酯;4-甲基-5-丁基-二氢呋喃酮;",
    "alternate_name": "2(3<em>H</em>)-Furanone, 5-butyldihydro-4-methyl-;5-Butyldihydro-4-methyl-2(3<em>H</em>)-furanone;β-Methyl-γ-octalactone;Oaklactone;Whiskey lactone;3-Methyl-4-octanolide;3-Methyloctano-4-lactone;5-Butyl-4-methyldihydrofuran-2(3<em>H</em>)-one",
    "duplicated_cas_no": "",
    "SMILES": "C(CCC)C1OC(=O)CC1C",
    "meta_data": {
        "InChI": "InChI=1S/C9H16O2/c1-3-4-5-8-7(2)6-9(10)11-8/h7-8H,3-6H2,1-2H3",
        "InChIKey": null,
        "Canonical SMILES": "O=C1OC(CCCC)C(C)C1",
        "Molecular Formula": "C<sub>9</sub>H<sub>16</sub>O<sub>2</sub>",
        "Molecular Mass": "156.22",
        "Boiling Point": "93-94 °C @ Press: 5 Torr"
    }
}