{
    "cas_no": "1075-06-5",
    "key_name": "Phenylglyoxal hydrate",
    "cn_name": "苯甲酰甲醛水合物;",
    "alternate_name": "Ethanone, 2,2-dihydroxy-1-phenyl-;Acetophenone, 2,2-dihydroxy-;2,2-Dihydroxy-1-phenylethanone;Phenylglyoxal hydrate;Phenylglyoxal monohydrate;Benzeneacetaldehyde, α-oxo-, <em>aldehydo</em>-hydrate;α,α-Dihydroxyacetophenone;NSC 249825;2-Oxo-2-phenylacetaldehyde monohydrate;2,2-Dihydroxy-1-phenylethan-1-one;Glyoxal, phenyl-, hydrate",
    "duplicated_cas_no": "953424-29-8",
    "SMILES": "C(C(O)O)(=O)C1=CC=CC=C1",
    "meta_data": {
        "InChI": "InChI=1S/C8H8O3/c9-7(8(10)11)6-4-2-1-3-5-6/h1-5,8,10-11H",
        "InChIKey": null,
        "Canonical SMILES": "O=C(C=1C=CC=CC1)C(O)O",
        "Molecular Formula": "C<sub>8</sub>H<sub>8</sub>O<sub>3</sub>",
        "Molecular Mass": "152.15",
        "Melting Point": "83 °C"
    }
}