{
    "cas_no": "1192-07-0",
    "key_name": "3-Isoxazolidinone",
    "cn_name": null,
    "alternate_name": "3-Isoxazolidinone;3-Isoxazolidone;3-Hydroxyisoxazoline;1,2-Oxazolidin-3-one",
    "duplicated_cas_no": "",
    "SMILES": "O=C1CCON1",
    "meta_data": {
        "InChI": "InChI=1S/C3H5NO2/c5-3-1-2-6-4-3/h1-2H2,(H,4,5)",
        "InChIKey": null,
        "Canonical SMILES": "O=C1NOCC1",
        "Molecular Formula": "C<sub>3</sub>H<sub>5</sub>NO<sub>2</sub>",
        "Molecular Mass": "87.08",
        "Melting Point": "69-70 °C"
    }
}