{
    "cas_no": "11050-94-5",
    "key_name": "Oligomycin B",
    "cn_name": null,
    "alternate_name": "Spiro[2,26-dioxabicyclo[23.3.1]nonacosa-4,18,20-triene-27,2′-[2<em>H</em>]pyran]-3,3′,9,13(4′<em>H</em>)-tetrone, 22-ethyl-5′,6′-dihydro-7,11,14,15-tetrahydroxy-6′-[(2<em>R</em>)-2-hydroxypropyl]-5′,6,8,10,12,14,16,28,29-nonamethyl-, (1<em>R</em>,2′<em>S</em>,4<em>E</em>,5′<em>S</em>,6<em>S</em>,6′<em>S</em>,7<em>R</em>,8<em>S</em>,10<em>R</em>,11<em>R</em>,12<em>S</em>,14<em>R</em>,15<em>S</em>,16<em>R</em>,18<em>E</em>,20<em>E</em>,22<em>R</em>,25<em>S</em>,28<em>S</em>,29<em>R</em>)-;Oligomycin B;Oligomycin A, 28-oxo-;(1<em>R</em>,2′<em>S</em>,4<em>E</em>,5′<em>S</em>,6<em>S</em>,6′<em>S</em>,7<em>R</em>,8<em>S</em>,10<em>R</em>,11<em>R</em>,12<em>S</em>,14<em>R</em>,15<em>S</em>,16<em>R</em>,18<em>E</em>,20<em>E</em>,22<em>R</em>,25<em>S</em>,28<em>S</em>,29<em>R</em>)-22-Ethyl-5′,6′-dihydro-7,11,14,15-tetrahydroxy-6′-[(2<em>R</em>)-2-hydroxypropyl]-5′,6,8,10,12,14,16,28,29-nonamethylspiro[2,26-dioxabicyclo[23.3.1]nonacosa-4,18,20-triene-27,2′-[2<em>H</em>]pyran]-3,3′,9,13(4′<em>H</em>)-tetrone;Spiro[2,26-dioxabicyclo[23.3.1]nonacosa-4,18,20-triene-27,2′-[2<em>H</em>]pyran]-3,3′,9,13(4′<em>H</em>)-tetrone, 22-ethyl-5′,6′-dihydro-7,11,14,15-tetrahydroxy-6′-(2-hydroxypropyl)-5′,6,8,10,12,14,16,28,29-nonamethyl-, [1<em>R</em>-[1<em>R</em>*,4<em>E</em>,5′<em>S</em>*,6<em>S</em>*,6′<em>S</em>*(<em>R</em>*),7<em>R</em>*,8<em>S</em>*,10<em>R</em>*,11<em>R</em>*,12<em>S</em>*,14<em>R</em>*,15<em>S</em>*,16<em>R</em>*,18<em>E</em>,20<em>E</em>,22<em>R</em>*,25<em>S</em>*,27<em>S</em>*,28<em>S</em>*,29<em>R</em>*]]-",
    "duplicated_cas_no": "12727-45-6;58151-48-7",
    "SMILES": "",
    "meta_data": {
        "InChI": "",
        "InChIKey": null,
        "Canonical SMILES": "",
        "Molecular Formula": "C<sub>45</sub>H<sub>72</sub>O<sub>12</sub>",
        "Molecular Mass": "805.05",
        "Melting Point": "160-161 °C",
        "Density": "1.19 g/cm³"
    }
}