{
    "cas_no": "74199-16-9",
    "key_name": "<em>cis</em>-Decahydro-1<em>H</em>,6<em>H</em>-3a,5a,8a,10a-tetraazapyrene",
    "cn_name": "cis-十氢-1H,6H-3a,5a,8a,10a-四氮杂芘;顺-十氢-1H,6H-3a,5a,8a,10a-四氮芘;",
    "alternate_name": "1<em>H</em>,6<em>H</em>-3a,5a,8a,10a-Tetraazapyrene, decahydro-, <em>cis</em>-;<em>cis</em>-Decahydro-1<em>H</em>,6<em>H</em>-3a,5a,8a,10a-tetraazapyrene",
    "duplicated_cas_no": "",
    "SMILES": "[C@]12([C@]3(N4CCN1CCCN2CCN3CCC4)[H])[H]",
    "meta_data": {
        "InChI": "InChI=1/C12H22N4/c1-3-13-7-9-15-5-2-6-16-10-8-14(4-1)11(13)12(15)16/h11-12H,1-10H2/t11-,12+",
        "InChIKey": null,
        "Canonical SMILES": "N12CCN3CCCN4CCN(CCC1)C2C34",
        "Molecular Formula": "C<sub>12</sub>H<sub>22</sub>N<sub>4</sub>",
        "Molecular Mass": "222.33",
        "Melting Point": "82-84 °C"
    }
}