{
    "cas_no": "34213-86-0",
    "key_name": "<em>p</em>-Aminophenyl α-<span class=\"text-smallcaps\">D</span>-mannopyranoside",
    "cn_name": null,
    "alternate_name": "α-<span class=\"text-smallcaps\">D</span>-Mannopyranoside, 4-aminophenyl;Mannopyranoside, <em>p</em>-aminophenyl, α-<span class=\"text-smallcaps\">D</span>-;4-Aminophenyl α-<span class=\"text-smallcaps\">D</span>-mannopyranoside;<em>p</em>-Aminophenyl α-<span class=\"text-smallcaps\">D</span>-mannopyranoside;4-Aminophenyl α-<span class=\"text-smallcaps\">D</span>-mannoside",
    "duplicated_cas_no": "103303-08-8",
    "SMILES": "O([C@H]1O[C@H](CO)[C@@H](O)[C@H](O)[C@@H]1O)C2=CC=C(N)C=C2",
    "meta_data": {
        "InChI": "InChI=1S/C12H17NO6/c13-6-1-3-7(4-2-6)18-12-11(17)10(16)9(15)8(5-14)19-12/h1-4,8-12,14-17H,5,13H2/t8-,9-,10+,11+,12+/m1/s1",
        "InChIKey": null,
        "Canonical SMILES": "OCC1OC(OC2=CC=C(N)C=C2)C(O)C(O)C1O",
        "Molecular Formula": "C<sub>12</sub>H<sub>17</sub>NO<sub>6</sub>",
        "Molecular Mass": "271.27",
        "Melting Point": "164 °C"
    }
}