{
    "cas_no": "106-18-3",
    "key_name": "Butyl laurate",
    "cn_name": "十二酸丁酯;月桂酸丁酯;",
    "alternate_name": "Dodecanoic acid, butyl ester;Lauric acid, butyl ester;Butyl dodecanoate;Butyl laurate;NSC 3920",
    "duplicated_cas_no": "",
    "SMILES": "C(CCCCCCCCCCC)(OCCCC)=O",
    "meta_data": {
        "InChI": "InChI=1S/C16H32O2/c1-3-5-7-8-9-10-11-12-13-14-16(17)18-15-6-4-2/h3-15H2,1-2H3",
        "InChIKey": null,
        "Canonical SMILES": "O=C(OCCCC)CCCCCCCCCCC",
        "Molecular Formula": "C<sub>16</sub>H<sub>32</sub>O<sub>2</sub>",
        "Molecular Mass": "256.42",
        "Boiling Point": "145 °C @ Press: 3 Torr",
        "Density": "0.8593 g/cm³ @ Temp: 20 °C"
    }
}