{
    "cas_no": "71939-50-9",
    "key_name": "Dihydroartemisinin",
    "cn_name": "双氢青蒿素;",
    "alternate_name": "3,12-Epoxy-12<em>H</em>-pyrano[4,3-<em>j</em>]-1,2-benzodioxepin-10-ol, decahydro-3,6,9-trimethyl-, (3<em>R</em>,5a<em>S</em>,6<em>R</em>,8a<em>S</em>,9<em>R</em>,10<em>S</em>,12<em>R</em>,12a<em>R</em>)-;3,12-Epoxy-12<em>H</em>-pyrano[4,3-<em>j</em>]-1,2-benzodioxepin-10-ol, decahydro-3,6,9-trimethyl-, [3<em>R</em>-(3α,5aβ,6β,8aβ,9α,10α,12β,12a<em>R</em>*)]-;(3<em>R</em>,5a<em>S</em>,6<em>R</em>,8a<em>S</em>,9<em>R</em>,10<em>S</em>,12<em>R</em>,12a<em>R</em>)-Decahydro-3,6,9-trimethyl-3,12-epoxy-12<em>H</em>-pyrano[4,3-<em>j</em>]-1,2-benzodioxepin-10-ol;Dihydroartemisinine;Dihydroartemisinin;Dihydroqinghaosu;β-Dihydroartemisinin;Cotecxin;DHQHS 2;Cotexin;Salaxin;Alaxin;Santecxin;Dynamax;Artenimol;Artemisinin deriv. DHA;HC 101C;DHA;CID 3000518",
    "duplicated_cas_no": "81496-82-4;1236363-37-3;1367359-59-8",
    "SMILES": "C[C@@H]1[C@]2([C@]34[C@@](O[C@](C)(OO3)CC[C@]4([C@H](C)CC2)[H])(O[C@@H]1O)[H])[H]",
    "meta_data": {
        "InChI": "InChI=1S/C15H24O5/c1-8-4-5-11-9(2)12(16)17-13-15(11)10(8)6-7-14(3,18-13)19-20-15/h8-13,16H,4-7H2,1-3H3/t8-,9-,10+,11+,12+,13-,14-,15-/m1/s1",
        "InChIKey": null,
        "Canonical SMILES": "OC1OC2OC3(OOC24C(CC3)C(C)CCC4C1C)C",
        "Molecular Formula": "C<sub>15</sub>H<sub>24</sub>O<sub>5</sub>",
        "Molecular Mass": "284.35",
        "Melting Point": "159.00 °C"
    }
}