{
    "cas_no": "87333-19-5",
    "key_name": "Ramipril",
    "cn_name": "雷米普利;N-[1(S)-乙氧羰基-3-苯丙基]-(S)-丙氨酰基-顺桥-2-氮杂二环[3,3,0]辛烷-3(S)-羧酸;",
    "alternate_name": "Cyclopenta[<em>b</em>]pyrrole-2-carboxylic acid, 1-[(2<em>S</em>)-2-[[(1<em>S</em>)-1-(ethoxycarbonyl)-3-phenylpropyl]amino]-1-oxopropyl]octahydro-, (2<em>S</em>,3a<em>S</em>,6a<em>S</em>)-;Cyclopenta[<em>b</em>]pyrrole-2-carboxylic acid, 1-[2-[[1-(ethoxycarbonyl)-3-phenylpropyl]amino]-1-oxopropyl]octahydro-, [2<em>S</em>-[1[<em>R</em>*(<em>R</em>*)],2α,3aβ,6aβ]]-;(2<em>S</em>,3a<em>S</em>,6a<em>S</em>)-1-[(2<em>S</em>)-2-[[(1<em>S</em>)-1-(Ethoxycarbonyl)-3-phenylpropyl]amino]-1-oxopropyl]octahydrocyclopenta[<em>b</em>]pyrrole-2-carboxylic acid;HOE 498;Ramipril;Altace;Tritace;Unipril;Triatec;Vesdil;Pramace;Delix;Ramace;Cardace;Ramipres;Hopace;Corpril;Ecator;Rampicardin;MeSH ID: D017257",
    "duplicated_cas_no": "126613-39-6",
    "SMILES": "C([C@@H](N[C@@H](CCC1=CC=CC=C1)C(OCC)=O)C)(=O)N2[C@@]3([C@](C[C@H]2C(O)=O)(CCC3)[H])[H]",
    "meta_data": {
        "InChI": "InChI=1S/C23H32N2O5/c1-3-30-23(29)18(13-12-16-8-5-4-6-9-16)24-15(2)21(26)25-19-11-7-10-17(19)14-20(25)22(27)28/h4-6,8-9,15,17-20,24H,3,7,10-14H2,1-2H3,(H,27,28)/t15-,17-,18-,19-,20-/m0/s1",
        "InChIKey": null,
        "Canonical SMILES": "O=C(O)C1N(C(=O)C(NC(C(=O)OCC)CCC=2C=CC=CC2)C)C3CCCC3C1",
        "Molecular Formula": "C<sub>23</sub>H<sub>32</sub>N<sub>2</sub>O<sub>5</sub>",
        "Molecular Mass": "416.51",
        "Melting Point": "109 °C"
    }
}