{
    "cas_no": "92-50-2",
    "key_name": "2-(Ethylphenylamino)ethanol",
    "cn_name": "N-乙基-N-羟乙基苯胺;",
    "alternate_name": "Ethanol, 2-(ethylphenylamino)-;Ethanol, 2-(<em>N</em>-ethylanilino)-;2-(Ethylphenylamino)ethanol;β-Ethylanilinoethyl alcohol;<em>N</em>-Ethyl-<em>N</em>-(β-hydroxyethyl)aniline;Ethylphenylethanolamine;Hydroxyethylethylaniline;Phenylethylethanolamine;Ethyl(β-hydroxyethyl)aniline;<em>N</em>-Ethyl(β-hydroxyethyl)aniline;2-(<em>N</em>-Ethylanilino)ethanol;<em>N</em>-Ethyl-<em>N</em>-phenylethanolamine;<em>N</em>-Ethylanilinoethanol;<em>N</em>-Ethyl-<em>N</em>-phenylaminoethanol;<em>N</em>-Ethyl-<em>N</em>-(2-hydroxyethyl)aniline;<em>N</em>-(2-Hydroxyethyl)-<em>N</em>-ethylaniline;<em>N</em>-Ethyl-<em>N</em>-(hydroxyethyl)aniline;2-(<em>N</em>-Ethyl-<em>N</em>-phenylamino)ethanol;<em>N</em>-Phenyl-<em>N</em>-ethyl-2-aminoethanol;NSC 7485;Ethylanilinoethanol;<em>N</em>-Ethyl-<em>N</em>-ethanol-aniline;2-[Ethyl(phenyl)amino]ethan-1-ol",
    "duplicated_cas_no": "",
    "SMILES": "N(CCO)(CC)C1=CC=CC=C1",
    "meta_data": {
        "InChI": "InChI=1S/C10H15NO/c1-2-11(8-9-12)10-6-4-3-5-7-10/h3-7,12H,2,8-9H2,1H3",
        "InChIKey": null,
        "Canonical SMILES": "OCCN(C=1C=CC=CC1)CC",
        "Molecular Formula": "C<sub>10</sub>H<sub>15</sub>NO",
        "Molecular Mass": "165.23",
        "Boiling Point": "268 °C",
        "Melting Point": "37 °C",
        "Density": "1.0506 g/cm³ @ Temp: 20 °C"
    }
}