{
    "cas_no": "350-92-5",
    "key_name": "1,1,1-Trifluoro-3-phenyl-2-propanone",
    "cn_name": "3-苯基-1,1,1-三氟丙酮;1,1,1-三氟-3-苯基丙酮;1,1,1-三氟-3-苯基-2-丙酮;3-苯基-1,1,1-三氟丙酮;",
    "alternate_name": "2-Propanone, 1,1,1-trifluoro-3-phenyl-;1,1,1-Trifluoro-3-phenyl-2-propanone;Trifluoromethyl benzyl ketone;Benzyl trifluoromethyl ketone;1,1,1-Trifluoro-3-phenylpropan-2-one;3-Phenyl-1,1,1-trifluoro-2-propanone;NSC 10062;1-Phenyl-3,3,3-Trifluoro-2-propanone;1,1,1-Trifluoro-3-phenylacetone",
    "duplicated_cas_no": "",
    "SMILES": "C(C(C(F)(F)F)=O)C1=CC=CC=C1",
    "meta_data": {
        "InChI": "InChI=1S/C9H7F3O/c10-9(11,12)8(13)6-7-4-2-1-3-5-7/h1-5H,6H2",
        "InChIKey": null,
        "Canonical SMILES": "O=C(CC=1C=CC=CC1)C(F)(F)F",
        "Molecular Formula": "C<sub>9</sub>H<sub>7</sub>F<sub>3</sub>O",
        "Molecular Mass": "188.15",
        "Boiling Point": "163.0-163.5 °C @ Press: 741 Torr"
    }
}