{
    "cas_no": "491-07-6",
    "key_name": "(±)-Isomenthone",
    "cn_name": null,
    "alternate_name": "Cyclohexanone, 5-methyl-2-(1-methylethyl)-, (2<em>R</em>,5<em>R</em>)-<em>rel</em>-;Cyclohexanone, 5-methyl-2-(1-methylethyl)-, <em>cis</em>-;<em>p</em>-Menthan-3-one, <em>cis</em>-;<em>rel</em>-(2<em>R</em>,5<em>R</em>)-5-Methyl-2-(1-methylethyl)cyclohexanone;Isomenthone;<em>cis</em>-<em>p</em>-Menthan-3-one;<em>cis</em>-Menthone;(±)-Isomenthone;<em>dl</em>-Isomenthone;α-Isomenthone;<em>cis</em>-<em>p</em>-Menthone",
    "duplicated_cas_no": "36977-92-1",
    "SMILES": "[C@H](C)(C)[C@H]1C(=O)C[C@@H](C)CC1",
    "meta_data": {
        "InChI": "InChI=1/C10H18O/c1-7(2)9-5-4-8(3)6-10(9)11/h7-9H,4-6H2,1-3H3/t8-,9-/s2",
        "InChIKey": null,
        "Canonical SMILES": "O=C1CC(C)CCC1C(C)C",
        "Molecular Formula": "C<sub>10</sub>H<sub>18</sub>O",
        "Molecular Mass": "154.25",
        "Boiling Point": "82-85 °C @ Press: 8 Torr",
        "Melting Point": "-35 °C",
        "Density": "0.9916 g/cm³ @ Temp: 25 °C"
    }
}