{
    "cas_no": "3381-87-1",
    "key_name": "2-(Phenylmethoxy)benzenemethanol",
    "cn_name": null,
    "alternate_name": "Benzenemethanol, 2-(phenylmethoxy)-;Benzyl alcohol, <em>o</em>-(benzyloxy)-;2-(Phenylmethoxy)benzenemethanol;2-Benzyloxybenzyl alcohol;(2-Benzyloxyphenyl)methanol;(2-Phenylmethoxyphenyl)methanol",
    "duplicated_cas_no": "",
    "SMILES": "O(CC1=CC=CC=C1)C2=C(CO)C=CC=C2",
    "meta_data": {
        "InChI": "InChI=1S/C14H14O2/c15-10-13-8-4-5-9-14(13)16-11-12-6-2-1-3-7-12/h1-9,15H,10-11H2",
        "InChIKey": null,
        "Canonical SMILES": "OCC=1C=CC=CC1OCC=2C=CC=CC2",
        "Molecular Formula": "C<sub>14</sub>H<sub>14</sub>O<sub>2</sub>",
        "Molecular Mass": "214.26",
        "Boiling Point": "212-213 °C @ Press: 20 Torr",
        "Melting Point": "36.5-37.5 °C"
    }
}