{
    "cas_no": "275826-46-5",
    "key_name": "(β<em>S</em>)-β-Amino-1-naphthalenepropanoic acid",
    "cn_name": null,
    "alternate_name": "1-Naphthalenepropanoic acid, β-amino-, (β<em>S</em>)-;(β<em>S</em>)-β-Amino-1-naphthalenepropanoic acid;(<em>S</em>)-3-Amino-3-(1-naphthyl)propanoic acid;(<em>S</em>)-3-Amino-3-(1-naphthyl)propionic acid;(<em>S</em>)-3-Amino-3-(naphthalen-1-yl)propanoic acid;(3S)-3-Amino-3-(naphthalen-1-yl)propanoic acid;(<em>S</em>)-3-Amino-3-(naphthalen-1-yl)propanoicacid",
    "duplicated_cas_no": "131690-63-6",
    "SMILES": "[C@@H](CC(O)=O)(N)C=1C2=C(C=CC1)C=CC=C2",
    "meta_data": {
        "InChI": "InChI=1S/C13H13NO2/c14-12(8-13(15)16)11-7-3-5-9-4-1-2-6-10(9)11/h1-7,12H,8,14H2,(H,15,16)/t12-/m0/s1",
        "InChIKey": null,
        "Canonical SMILES": "O=C(O)CC(N)C1=CC=CC=2C=CC=CC21",
        "Molecular Formula": "C<sub>13</sub>H<sub>13</sub>NO<sub>2</sub>",
        "Molecular Mass": "215.25",
        "Melting Point": "227-229 °C"
    }
}