{
    "cas_no": "24041-60-9",
    "key_name": "(+)-Isopinocampheol",
    "cn_name": null,
    "alternate_name": "Bicyclo[3.1.1]heptan-3-ol, 2,6,6-trimethyl-, (1<em>S</em>,2<em>S</em>,3<em>S</em>,5<em>R</em>)-;3-Pinanol, (1<em>S</em>,2<em>S</em>,3<em>S</em>,5<em>R</em>)-(+)-;Bicyclo[3.1.1]heptan-3-ol, 2,6,6-trimethyl-, [1<em>S</em>-(1α,2β,3α,5α)]-;(1<em>S</em>,2<em>S</em>,3<em>S</em>,5<em>R</em>)-2,6,6-Trimethylbicyclo[3.1.1]heptan-3-ol;(+)-Isopinocampheol;(1<em>S</em>,2<em>S</em>,3<em>S</em>,5<em>R</em>)-Isopinocampheol;(1<em>S</em>,2<em>S</em>,3<em>S</em>,5<em>R</em>)-(+)-Isopinocampheol;(1S,2S,3S,5R)-2,6,6-Trimethylbicyclo[3.1.1]heptan-3-ol;(1S,2S,3S,5R)-(+)-Isopinocampheol",
    "duplicated_cas_no": "35998-02-8",
    "SMILES": "CC1(C)[C@]2(C[C@@]1(C[C@H](O)[C@H]2C)[H])[H]",
    "meta_data": {
        "InChI": "InChI=1S/C10H18O/c1-6-8-4-7(5-9(6)11)10(8,2)3/h6-9,11H,4-5H2,1-3H3/t6-,7+,8-,9-/m0/s1",
        "InChIKey": null,
        "Canonical SMILES": "OC1CC2CC(C1C)C2(C)C",
        "Molecular Formula": "C<sub>10</sub>H<sub>18</sub>O",
        "Molecular Mass": "154.25",
        "Melting Point": "57 °C",
        "Density": "0.862 g/cm³ @ Temp: 15 °C"
    }
}