{
    "cas_no": "25781-92-4",
    "key_name": "5-Chloro-2-nitro-<em>N</em>-phenylbenzenamine",
    "cn_name": "5-氯-2-硝基联苯胺;",
    "alternate_name": "Benzenamine, 5-chloro-2-nitro-<em>N</em>-phenyl-;Diphenylamine, 5-chloro-2-nitro-;5-Chloro-2-nitro-<em>N</em>-phenylbenzenamine;2-Nitro-5-chlorodiphenylamine;5-Chloro-2-nitrodiphenylamine;<em>N</em>-(5-Chloro-2-nitrophenyl)phenylamine",
    "duplicated_cas_no": "",
    "SMILES": "N(C1=C(N(=O)=O)C=CC(Cl)=C1)C2=CC=CC=C2",
    "meta_data": {
        "InChI": "InChI=1S/C12H9ClN2O2/c13-9-6-7-12(15(16)17)11(8-9)14-10-4-2-1-3-5-10/h1-8,14H",
        "InChIKey": null,
        "Canonical SMILES": "O=N(=O)C1=CC=C(Cl)C=C1NC=2C=CC=CC2",
        "Molecular Formula": "C<sub>12</sub>H<sub>9</sub>ClN<sub>2</sub>O<sub>2</sub>",
        "Molecular Mass": "248.67",
        "Melting Point": "186-187 °C"
    }
}