{
    "cas_no": "124-47-0",
    "key_name": "Urea nitrate",
    "cn_name": "硝酸脲;尿素单硝酸盐;",
    "alternate_name": "Urea, nitrate (1:1);Urea, mononitrate;Acidogen nitrate;Urea nitrate",
    "duplicated_cas_no": "",
    "SMILES": "N(=O)(=O)O.C(N)(N)=O",
    "meta_data": {
        "InChI": "InChI=1S/CH4N2O.HNO3/c2*2-1(3)4/h(H4,2,3,4);(H,2,3,4)",
        "InChIKey": null,
        "Canonical SMILES": "O=C(N)N.O=N(=O)O",
        "Molecular Formula": "CH<sub>4</sub>N<sub>2</sub>O.HNO<sub>3</sub>",
        "Molecular Mass": "",
        "Melting Point": "152 °C (decomp)",
        "Density": "1.690 g/cm³ @ Temp: 20 °C"
    }
}