{
    "cas_no": "66742-57-2",
    "key_name": "4-[(3-Fluorophenyl)methoxy]benzaldehyde",
    "cn_name": null,
    "alternate_name": "Benzaldehyde, 4-[(3-fluorophenyl)methoxy]-;4-[(3-Fluorophenyl)methoxy]benzaldehyde;4-(3-Fluorobenzyloxy)benzaldehyde",
    "duplicated_cas_no": "",
    "SMILES": "O(CC1=CC(F)=CC=C1)C2=CC=C(C=O)C=C2",
    "meta_data": {
        "InChI": "InChI=1S/C14H11FO2/c15-13-3-1-2-12(8-13)10-17-14-6-4-11(9-16)5-7-14/h1-9H,10H2",
        "InChIKey": null,
        "Canonical SMILES": "O=CC1=CC=C(OCC=2C=CC=C(F)C2)C=C1",
        "Molecular Formula": "C<sub>14</sub>H<sub>11</sub>FO<sub>2</sub>",
        "Molecular Mass": "230.23",
        "Melting Point": "40-41 °C"
    }
}