{
    "cas_no": "102089-75-8",
    "key_name": "1,1-Dimethylethyl <em>N</em>-[(1<em>R</em>)-2-[(methylsulfonyl)oxy]-1-phenylethyl]carbamate",
    "cn_name": null,
    "alternate_name": "Carbamic acid, <em>N</em>-[(1<em>R</em>)-2-[(methylsulfonyl)oxy]-1-phenylethyl]-, 1,1-dimethylethyl ester;Carbamic acid, [2-[(methylsulfonyl)oxy]-1-phenylethyl]-, 1,1-dimethylethyl ester, (<em>R</em>)-;Carbamic acid, [(1<em>R</em>)-2-[(methylsulfonyl)oxy]-1-phenylethyl]-, 1,1-dimethylethyl ester;1,1-Dimethylethyl <em>N</em>-[(1<em>R</em>)-2-[(methylsulfonyl)oxy]-1-phenylethyl]carbamate;(<em>R</em>)-2-[(<em>tert</em>-Butoxycarbonyl)amino]-2-phenylethyl methanesulfonate",
    "duplicated_cas_no": "",
    "SMILES": "[C@H](NC(OC(C)(C)C)=O)(COS(C)(=O)=O)C1=CC=CC=C1",
    "meta_data": {
        "InChI": "InChI=1S/C14H21NO5S/c1-14(2,3)20-13(16)15-12(10-19-21(4,17)18)11-8-6-5-7-9-11/h5-9,12H,10H2,1-4H3,(H,15,16)/t12-/m0/s1",
        "InChIKey": null,
        "Canonical SMILES": "O=C(OC(C)(C)C)NC(C=1C=CC=CC1)COS(=O)(=O)C",
        "Molecular Formula": "C<sub>14</sub>H<sub>21</sub>NO<sub>5</sub>S",
        "Molecular Mass": "315.39",
        "Melting Point": "112-114 °C"
    }
}