{
    "cas_no": "2163-42-0",
    "key_name": "2-Methyl-1,3-propanediol",
    "cn_name": null,
    "alternate_name": "1,3-Propanediol, 2-methyl-;2-Methyl-1,3-propanediol;β-Hydroxyisobutanol;MPDiol;1,3-Dihydroxyisobutane;Methylpropanediol;2-Methylpropane-1,3-diol;1,3-Dihydroxy-2-methylpropane;2-Methyl-1,3-propylene glycol;Polyol 4;1,3-Isobutanediol",
    "duplicated_cas_no": "141978-56-5;863644-93-3",
    "SMILES": "C(CO)(CO)C",
    "meta_data": {
        "InChI": "InChI=1S/C4H10O2/c1-4(2-5)3-6/h4-6H,2-3H2,1H3",
        "InChIKey": null,
        "Canonical SMILES": "OCC(C)CO",
        "Molecular Formula": "C<sub>4</sub>H<sub>10</sub>O<sub>2</sub>",
        "Molecular Mass": "90.12",
        "Boiling Point": "195 °C",
        "Melting Point": "-91 °C",
        "Density": "1.020 g/cm³ @ Temp: 20 °C"
    }
}