{
    "cas_no": "18151-85-4",
    "key_name": "(3-Methacryloxypropyl)pentamethyldisiloxane",
    "cn_name": null,
    "alternate_name": "2-Propenoic acid, 2-methyl-, 3-(1,1,3,3,3-pentamethyl-1-disiloxanyl)propyl ester;Methacrylic acid, 3-(pentamethyldisiloxanyl)propyl ester;2-Propenoic acid, 2-methyl-, 3-(pentamethyldisiloxanyl)propyl ester;TSL 9705;(3-Methacryloyloxypropyl)pentamethyldisiloxane;(3-Methacryloxypropyl)pentamethyldisiloxane;Pentamethyldisiloxanepropyl methacrylate",
    "duplicated_cas_no": "",
    "SMILES": "[Si](CCCOC(C(C)=C)=O)(O[Si](C)(C)C)(C)C",
    "meta_data": {
        "InChI": "InChI=1S/C12H26O3Si2/c1-11(2)12(13)14-9-8-10-17(6,7)15-16(3,4)5/h1,8-10H2,2-7H3",
        "InChIKey": null,
        "Canonical SMILES": "O=C(OCCC[Si](O[Si](C)(C)C)(C)C)C(=C)C",
        "Molecular Formula": "C<sub>12</sub>H<sub>26</sub>O<sub>3</sub>Si<sub>2</sub>",
        "Molecular Mass": "274.50",
        "Boiling Point": "120-125 °C @ Press: 1 Torr",
        "Density": "0.901 g/cm³ @ Temp: 25 °C"
    }
}