{
    "cas_no": "611-92-7",
    "key_name": "Centralite II",
    "cn_name": "N,N-二甲基-N,N-二苯脲;",
    "alternate_name": "Urea, <em>N</em>,<em>N</em>′-dimethyl-<em>N</em>,<em>N</em>′-diphenyl-;Carbanilide, <em>N</em>,<em>N</em>′-dimethyl-;Carbanilide, α,β-dimethyl-;<em>N</em>,<em>N</em>′-Dimethyl-<em>N</em>,<em>N</em>′-diphenylurea;Centralite II;<em>N</em>,<em>N</em>′-Dimethylcarbanilide;Methyl centralite;1,3-Dimethyl-1,3-diphenylurea;Dimethylcarbanilide;NSC 59781",
    "duplicated_cas_no": "",
    "SMILES": "N(C(N(C)C1=CC=CC=C1)=O)(C)C2=CC=CC=C2",
    "meta_data": {
        "InChI": "InChI=1S/C15H16N2O/c1-16(13-9-5-3-6-10-13)15(18)17(2)14-11-7-4-8-12-14/h3-12H,1-2H3",
        "InChIKey": null,
        "Canonical SMILES": "O=C(N(C=1C=CC=CC1)C)N(C=2C=CC=CC2)C",
        "Molecular Formula": "C<sub>15</sub>H<sub>16</sub>N<sub>2</sub>O",
        "Molecular Mass": "240.30",
        "Boiling Point": "350 °C",
        "Melting Point": "122 °C"
    }
}