{
    "cas_no": "58-54-8",
    "key_name": "Ethacrynic acid",
    "cn_name": "利尿酸;依他尼酸;2,3-二氯-4-(2-亚甲基丁酰)苯氧乙酸;",
    "alternate_name": "Acetic acid, 2-[2,3-dichloro-4-(2-methylene-1-oxobutyl)phenoxy]-;Acetic acid, [2,3-dichloro-4-(2-methylenebutyryl)phenoxy]-;Acetic acid, [2,3-dichloro-4-(2-methylene-1-oxobutyl)phenoxy]-;2-[2,3-Dichloro-4-(2-methylene-1-oxobutyl)phenoxy]acetic acid;MK 595;2,3-Dichloro-4-(2-ethyl-1-oxo-2-propenyl)-phenoxyacetic acid;[2,3-Dichloro-4-(2-methylenebutyryl)phenoxy]acetic acid;Edecrin;Ethacrynic acid;Hydromedin;[4-(2-Methylenebutyryl)-2,3-dichlorophenoxy]acetic acid;Uregit;Etakrinic acid;Hidromedin;Otacril;Reomax;Taladren;Edecrina;Endecril;Mingit;Etacrynic acid;Crinuril;Edecril;NSC 624008;NSC 85791;[2,3-Dichloro-4-(2-methylene-1-oxobutyl)phenoxy]acetic acid;[[2,3-Dichloro-4-[2-(methylene)butanoyl]phenyl]oxy]acetic acid;2-[2,3-Dichloro-4-(2-methylidenebutanoyl)phenoxy]acetic acid;MeSH ID: D004976",
    "duplicated_cas_no": "105656-03-9",
    "SMILES": "C(C(CC)=C)(=O)C1=C(Cl)C(Cl)=C(OCC(O)=O)C=C1",
    "meta_data": {
        "InChI": "InChI=1S/C13H12Cl2O4/c1-3-7(2)13(18)8-4-5-9(12(15)11(8)14)19-6-10(16)17/h4-5H,2-3,6H2,1H3,(H,16,17)",
        "InChIKey": null,
        "Canonical SMILES": "O=C(O)COC1=CC=C(C(=O)C(=C)CC)C(Cl)=C1Cl",
        "Molecular Formula": "C<sub>13</sub>H<sub>12</sub>Cl<sub>2</sub>O<sub>4</sub>",
        "Molecular Mass": "303.14",
        "Melting Point": "121-122 °C"
    }
}