{
    "cas_no": "5205-34-5",
    "key_name": "5-Decanol",
    "cn_name": "5-癸醇;5-烷基醇;丁戊甲醇;",
    "alternate_name": "5-Decanol;<em>dl</em>-Decan-5-ol;(±)-5-Decanol;NSC 244888",
    "duplicated_cas_no": "74683-69-5",
    "SMILES": "C(C(CCCC)O)CCCC",
    "meta_data": {
        "InChI": "InChI=1S/C10H22O/c1-3-5-7-9-10(11)8-6-4-2/h10-11H,3-9H2,1-2H3",
        "InChIKey": null,
        "Canonical SMILES": "OC(CCCC)CCCCC",
        "Molecular Formula": "C<sub>10</sub>H<sub>22</sub>O",
        "Molecular Mass": "158.28",
        "Boiling Point": "95-97 °C @ Press: 3 Torr",
        "Melting Point": "8.7 °C",
        "Density": "0.82766 g/cm³ @ Temp: 20 °C"
    }
}