{
    "cas_no": "494-38-2",
    "key_name": "Acridine Orange base",
    "cn_name": "吖啶橙;",
    "alternate_name": "3,6-Acridinediamine, <em>N</em><sup>3</sup>,<em>N</em><sup>3</sup>,<em>N</em><sup>6</sup>,<em>N</em><sup>6</sup>-tetramethyl-;Acridine, 3,6-bis(dimethylamino)-;3,6-Acridinediamine, <em>N</em>,<em>N</em>,<em>N</em>′,<em>N</em>′-tetramethyl-;<em>N</em><sup>3</sup>,<em>N</em><sup>3</sup>,<em>N</em><sup>6</sup>,<em>N</em><sup>6</sup>-Tetramethyl-3,6-acridinediamine;C.I. 46005B;Brilliant Acridine Orange E;C.I. Solvent Orange 15;3,6-Di(dimethylamino)acridine;Waxoline Orange A;3,6-Bis(dimethylamino)acridine;Acridine Orange base;Acridine orange free base;NSC 194350;Solvent Orange 15;3-<em>N</em>,3-<em>N</em>,6-<em>N</em>,6-<em>N</em>-Tetramethylacridine-3,6-diamine",
    "duplicated_cas_no": "",
    "SMILES": "N(C)(C)C1=CC2=C(C=C3C(=N2)C=C(N(C)C)C=C3)C=C1",
    "meta_data": {
        "InChI": "InChI=1S/C17H19N3/c1-19(2)14-7-5-12-9-13-6-8-15(20(3)4)11-17(13)18-16(12)10-14/h5-11H,1-4H3",
        "InChIKey": null,
        "Canonical SMILES": "N=1C=2C=C(C=CC2C=C3C=CC(=CC13)N(C)C)N(C)C",
        "Molecular Formula": "C<sub>17</sub>H<sub>19</sub>N<sub>3</sub>",
        "Molecular Mass": "265.35",
        "Melting Point": "181-182 °C"
    }
}