{
    "cas_no": "5682-83-7",
    "key_name": "2-Benzylidenecyclohexanone",
    "cn_name": "2-苯亚甲基环己酮;",
    "alternate_name": "Cyclohexanone, 2-(phenylmethylene)-;Cyclohexanone, 2-benzylidene-;2-(Phenylmethylene)cyclohexanone;2-Benzylidenecyclohexanone;2-Benzalcyclohexanone;NSC 145677",
    "duplicated_cas_no": "",
    "SMILES": "C(=C1C(=O)CCCC1)C2=CC=CC=C2",
    "meta_data": {
        "InChI": "InChI=1S/C13H14O/c14-13-9-5-4-8-12(13)10-11-6-2-1-3-7-11/h1-3,6-7,10H,4-5,8-9H2",
        "InChIKey": null,
        "Canonical SMILES": "O=C1C(=CC=2C=CC=CC2)CCCC1",
        "Molecular Formula": "C<sub>13</sub>H<sub>14</sub>O",
        "Molecular Mass": "186.25",
        "Boiling Point": "180 °C",
        "Melting Point": "53 °C"
    }
}