{
    "cas_no": "627-59-8",
    "key_name": "5-Methyl-2-hexanol",
    "cn_name": "5-甲基-2-环己醇;5-甲基-2-己醇;",
    "alternate_name": "2-Hexanol, 5-methyl-;5-Methyl-2-hexanol;(±)-5-Methyl-2-hexanol;1,4-Dimethyl-1-pentanol",
    "duplicated_cas_no": "111768-09-3",
    "SMILES": "C(CC(C)O)C(C)C",
    "meta_data": {
        "InChI": "InChI=1S/C7H16O/c1-6(2)4-5-7(3)8/h6-8H,4-5H2,1-3H3",
        "InChIKey": null,
        "Canonical SMILES": "OC(C)CCC(C)C",
        "Molecular Formula": "C<sub>7</sub>H<sub>16</sub>O",
        "Molecular Mass": "116.20",
        "Boiling Point": "151 °C",
        "Melting Point": "135-140 °C",
        "Density": "0.8145 g/cm³ @ Temp: 20 °C"
    }
}