{
    "cas_no": "38640-62-9",
    "key_name": "Diisopropylnaphthalene",
    "cn_name": null,
    "alternate_name": "Naphthalene, bis(1-methylethyl)-;Naphthalene, diisopropyl-;Bis(1-methylethyl)naphthalene;Diisopropylnaphthalene;Bis(isopropyl)naphthalene;KMC 113;KMC-R 113;K 113;Rutasolv DI;Reutasolv DI",
    "duplicated_cas_no": "",
    "SMILES": "",
    "meta_data": {
        "InChI": "",
        "InChIKey": null,
        "Canonical SMILES": "",
        "Molecular Formula": "C<sub>16</sub>H<sub>20</sub>",
        "Molecular Mass": "",
        "Boiling Point": "290-299 °C",
        "Melting Point": "38 °C",
        "Density": "0.96 g/cm³ @ Temp: 25 °C"
    }
}