{
    "cas_no": "3369-52-6",
    "key_name": "Endosulfan ether",
    "cn_name": "硫丹醚;硫丹醚;",
    "alternate_name": "4,7-Methanoisobenzofuran, 4,5,6,7,8,8-hexachloro-1,3,3a,4,7,7a-hexahydro-;4,5,6,7,8,8-Hexachloro-1,3,3a,4,7,7a-hexahydro-4,7-methanoisobenzofuran;Endosulfan ether;NSC 37660",
    "duplicated_cas_no": "",
    "SMILES": "ClC12C(Cl)(Cl)C(Cl)(C3C1COC3)C(Cl)=C2Cl",
    "meta_data": {
        "InChI": "InChI=1S/C9H6Cl6O/c10-5-6(11)8(13)4-2-16-1-3(4)7(5,12)9(8,14)15/h3-4H,1-2H2",
        "InChIKey": null,
        "Canonical SMILES": "ClC1=C(Cl)C2(Cl)C3COCC3C1(Cl)C2(Cl)Cl",
        "Molecular Formula": "C<sub>9</sub>H<sub>6</sub>Cl<sub>6</sub>O",
        "Molecular Mass": "342.86",
        "Melting Point": "233 °C"
    }
}