{
    "cas_no": "108-08-7",
    "key_name": "2,4-Dimethylpentane",
    "cn_name": "2,4-二甲基戊烷;二异丙基甲烷;",
    "alternate_name": "Pentane, 2,4-dimethyl-;2,4-Dimethylpentane;NSC 61989",
    "duplicated_cas_no": "",
    "SMILES": "C(C(C)C)C(C)C",
    "meta_data": {
        "InChI": "InChI=1S/C7H16/c1-6(2)5-7(3)4/h6-7H,5H2,1-4H3",
        "InChIKey": null,
        "Canonical SMILES": "CC(C)CC(C)C",
        "Molecular Formula": "C<sub>7</sub>H<sub>16</sub>",
        "Molecular Mass": "100.20",
        "Boiling Point": "80.4 °C",
        "Melting Point": "-119.9 °C",
        "Density": "0.6971 g/cm³ @ Temp: 0 °C"
    }
}