{
    "cas_no": "35120-10-6",
    "key_name": "2-(Methylthio)acetonitrile",
    "cn_name": "(甲硫基)乙腈;",
    "alternate_name": "Acetonitrile, 2-(methylthio)-;Acetonitrile, (methylthio)-;2-(Methylthio)acetonitrile;(Methylthio)acetonitrile;Cyanomethyl methyl sulfide;NSC 207831;2-(Methylsulfanyl)acetonitrile;2-Methylsulfanylacetonitrile",
    "duplicated_cas_no": "",
    "SMILES": "C(C#N)SC",
    "meta_data": {
        "InChI": "InChI=1S/C3H5NS/c1-5-3-2-4/h3H2,1H3",
        "InChIKey": null,
        "Canonical SMILES": "N#CCSC",
        "Molecular Formula": "C<sub>3</sub>H<sub>5</sub>NS",
        "Molecular Mass": "87.14",
        "Boiling Point": "74.5 °C @ Press: 20 Torr"
    }
}