{
    "cas_no": "41459-42-1",
    "key_name": "3-Bromo-2-(bromomethyl)propanoic acid",
    "cn_name": "3-溴-2-溴甲基丙酸;",
    "alternate_name": "Propanoic acid, 3-bromo-2-(bromomethyl)-;3-Bromo-2-(bromomethyl)propanoic acid;β,β′-Dibromoisobutyric acid;3-Bromo-2-(bromomethyl)propionic acid;2,2-Bis(bromomethyl)acetic acid;NSC 259720",
    "duplicated_cas_no": "",
    "SMILES": "C(C(O)=O)(CBr)CBr",
    "meta_data": {
        "InChI": "InChI=1S/C4H6Br2O2/c5-1-3(2-6)4(7)8/h3H,1-2H2,(H,7,8)",
        "InChIKey": null,
        "Canonical SMILES": "O=C(O)C(CBr)CBr",
        "Molecular Formula": "C<sub>4</sub>H<sub>6</sub>Br<sub>2</sub>O<sub>2</sub>",
        "Molecular Mass": "245.90",
        "Melting Point": "100-102 °C"
    }
}