{
    "cas_no": "2171-98-4",
    "key_name": "Zirconium isopropoxide",
    "cn_name": "异丙醇锆;",
    "alternate_name": "2-Propanol, zirconium(4+) salt (4:1);Isopropyl alcohol, zirconium(4+) salt;Zirconium isopropoxide;Tetraisopropoxyzirconium;Tetraisopropyl zirconate;Zirconium tetraisopropoxide;Isopropyl alcohol zirconium salt (4:1);Zirconium isopropoxide (Zr(OMe<sub>2</sub>CH)<sub>4</sub>);Zirconium isopropylate;2-Propanol zirconium salt;Zirconium(IV) isopropoxide;Tetrakis(isopropoxy)zirconium;Zirconium(4+) isopropoxide;Zirconium, tetrakis(2-propanolato)-, (<em>T</em>-4)-;AKZ 955",
    "duplicated_cas_no": "114601-27-3;170908-85-7;245654-32-4;298195-60-5;1637323-46-6;1641563-87-2;2412752-03-3",
    "SMILES": "C(C)(C)O.[Zr]",
    "meta_data": {
        "InChI": "InChI=1S/C3H8O.Zr/c1-3(2)4;/h3-4H,1-2H3;",
        "InChIKey": null,
        "Canonical SMILES": "[Zr].OC(C)C",
        "Molecular Formula": "C<sub>3</sub>H<sub>8</sub>O.<sup>1</sup>/<sub>4</sub>Zr",
        "Molecular Mass": "",
        "Boiling Point": "160 °C @ Press: 0.1 Torr",
        "Density": "1 g/cm³"
    }
}