{
    "cas_no": "626-00-6",
    "key_name": "1,3-Diiodobenzene",
    "cn_name": "间二碘苯、1,3-二碘苯;",
    "alternate_name": "Benzene, 1,3-diiodo-;Benzene, <em>m</em>-diiodo-;1,3-Diiodobenzene;<em>m</em>-Diiodobenzene",
    "duplicated_cas_no": "",
    "SMILES": "IC1=CC(I)=CC=C1",
    "meta_data": {
        "InChI": "InChI=1S/C6H4I2/c7-5-2-1-3-6(8)4-5/h1-4H",
        "InChIKey": null,
        "Canonical SMILES": "IC1=CC=CC(I)=C1",
        "Molecular Formula": "C<sub>6</sub>H<sub>4</sub>I<sub>2</sub>",
        "Molecular Mass": "329.90",
        "Boiling Point": "285 °C",
        "Melting Point": "40.4 °C"
    }
}