{
    "cas_no": "3031-94-5",
    "key_name": "AICA Ribotide",
    "cn_name": "5-氨基咪唑-4-甲酰胺-1-β-D-呋喃核糖苷5-一磷酸盐;",
    "alternate_name": "1<em>H</em>-Imidazole-4-carboxamide, 5-amino-1-(5-<em>O</em>-phosphono-β-<span class=\"text-smallcaps\">D</span>-ribofuranosyl)-;Imidazole-4-carboxamide, 5-amino-1-β-<span class=\"text-smallcaps\">D</span>-ribofuranosyl-, 5′-(dihydrogen phosphate);Imidazole-4-carboxamide, 5-amino-1-β-<span class=\"text-smallcaps\">D</span>-ribofuranosyl-, 5′-phosphate;5-Amino-1-(5-<em>O</em>-phosphono-β-<span class=\"text-smallcaps\">D</span>-ribofuranosyl)-1<em>H</em>-imidazole-4-carboxamide;AICAR;5-Amino-1-(5′-phosphofuranoribosyl)-4-imidazolecarboxamide;5-Amino-1β-<span class=\"text-smallcaps\">D</span>-ribofuranosylimidazole-4-carboxamide 5′-phosphate;5′-Phospho-β-<span class=\"text-smallcaps\">D</span>-ribosyl-5-amino-4-imidazolecarboxamide;5-Amino-4-imidazolecarboxamide ribotide;5-Amino-4-imidazolecarboxamide ribonucleoside 5′-monophosphate;5′-Phosphoribosyl-5-amino-4-imidazolecarboxamide;5-Amino-4-imidazolecarboxamide ribonucleotide;ZMP;Aminoimidazolecarboxamide ribonucleotide;AICA-Ribonucleotide;AICA Ribotide;5-Amino-4-imidazolecarboxamide riboside 5′-monophosphate;Acadesine 5′-monophosphate;NSC 283955;NSC 292227;(2R,3 <em>S</em>,4R,5R)-5-(4-Carbam0yl-5-aminoimidazol-1-yl)-3,4-dihydroxyoxolan-2-yljmethyl dihydrogen phosphate;5-Aminoimidazole-4-carboxamide ribonucleotide;5-Aminoimidazole-4-carboxamide-1-beta-D-ribofuranosyl 5′-monophosphate;AICAR (5-Aminoimidazole-4-carboxamide-1-β-D-ribofuranosyl 5′-monophosphate);ZMP (alarmone)",
    "duplicated_cas_no": "3458-86-4",
    "SMILES": "NC=1N(C=NC1C(N)=O)[C@@H]2O[C@H](COP(=O)(O)O)[C@@H](O)[C@H]2O",
    "meta_data": {
        "InChI": "InChI=1S/C9H15N4O8P/c10-7-4(8(11)16)12-2-13(7)9-6(15)5(14)3(21-9)1-20-22(17,18)19/h2-3,5-6,9,14-15H,1,10H2,(H2,11,16)(H2,17,18,19)/t3-,5-,6-,9-/m1/s1",
        "InChIKey": null,
        "Canonical SMILES": "O=C(N)C=1N=CN(C1N)C2OC(COP(=O)(O)O)C(O)C2O",
        "Molecular Formula": "C<sub>9</sub>H<sub>15</sub>N<sub>4</sub>O<sub>8</sub>P",
        "Molecular Mass": "338.21",
        "Melting Point": "198-202 °C (decomp)"
    }
}