{
    "cas_no": "6893-02-3",
    "key_name": "Triiodothyronine",
    "cn_name": "三碘甲状腺原氨酸;3,3\",5-三碘甲状腺原氨酸;碘噻罗宁;碘苯丙氨酸;O-(4-羟基-3-碘苯基)-3,5-二碘-L-酪氨酸;",
    "alternate_name": "<span class=\"text-smallcaps\">L</span>-Tyrosine, <em>O</em>-(4-hydroxy-3-iodophenyl)-3,5-diiodo-;Alanine, 3-[4-(4-hydroxy-3-iodophenoxy)-3,5-diiodophenyl]-, <span class=\"text-smallcaps\">L</span>-;Thyronine, 3,3′,5-triiodo-, <span class=\"text-smallcaps\">L</span>-;<em>O</em>-(4-Hydroxy-3-iodophenyl)-3,5-diiodo-<span class=\"text-smallcaps\">L</span>-tyrosine;T<sub>3</sub> (amino acid);Liothyronine;Tresitope;<span class=\"text-smallcaps\">L</span>-3,3′,5-Triiodothyronine;Triiodothyronine;3,5,3′-Triiodothyronine;Triiodo-<span class=\"text-smallcaps\">L</span>-thyronine;3,3′,5-Triiodothyronine;3,3′,5-Triiodo-<span class=\"text-smallcaps\">L</span>-thyronine;<span class=\"text-smallcaps\">L</span>-Liothyronine;Liothyronin;<span class=\"text-smallcaps\">L</span>-T<sub>3</sub>;<span class=\"text-smallcaps\">L</span>-Triiodothyronine;T<sub>3</sub>;T<sub>3</sub> (Hormone);4-(4-Hydroxy-3-iodophenoxy)-3,5-diiodophenylalanine;NSC 80203;Cyronine;(2S)-2-Azaniumyl-3-[4-(4-hydroxy-3-iodophenoxy)-3,5-diiodophenyl]propanoate;(<em>S</em>)-2-Amino-3-(4-(4-hydroxy-3-iodophenoxy)-3,5-diiodophenyl)propanoicacid",
    "duplicated_cas_no": "7013-53-8;57164-27-9",
    "SMILES": "O(C1=C(I)C=C(C[C@@H](C(O)=O)N)C=C1I)C2=CC(I)=C(O)C=C2",
    "meta_data": {
        "InChI": "InChI=1S/C15H12I3NO4/c16-9-6-8(1-2-13(9)20)23-14-10(17)3-7(4-11(14)18)5-12(19)15(21)22/h1-4,6,12,20H,5,19H2,(H,21,22)/t12-/m0/s1",
        "InChIKey": null,
        "Canonical SMILES": "O=C(O)C(N)CC1=CC(I)=C(OC2=CC=C(O)C(I)=C2)C(I)=C1",
        "Molecular Formula": "C<sub>15</sub>H<sub>12</sub>I<sub>3</sub>NO<sub>4</sub>",
        "Molecular Mass": "650.97",
        "Melting Point": "236.5 °C (decomp)"
    }
}