{
    "cas_no": "9016-00-6",
    "key_name": "Poly(dimethylsiloxane)",
    "cn_name": null,
    "alternate_name": "Poly[oxy(dimethylsilylene)];Octamethylcyclotetrasiloxane polymer, SRU;Poly(octamethylcyclotetrasiloxane), SRU;Hexamethylcyclotrisiloxane polymer, SRU;Hexamethylcyclotrisiloxane homopolymer, SRU;Octamethylcyclotetrasiloxane homopolymer, SRU;Dimethyl siloxane;Dimethylpolysiloxanes;Dimethylsilicone;Poly(dimethylsiloxane);Dimethylsilanediol homopolymer, SRU;Di-Me siloxane, SRU;KS 839;TSHR 100;Dimethylsiloxane homopolymer, SRU;KT 2000B;KF 96A50;Dimethylsilanediol polymer, sru;Dimethyl siloxane, sru;ER 84002;AF 72;AF 60;Rhodorsil RH 414;EP 84002;Versaflow 102;KF 96H60000;Rhodorsil 47V500000;TSF 451-10ER;AF 60 (siloxane);SH 200-20;SH 200-0.65;SH 200-50;SH 200-500;SR 436;SM 7060;SM 8701;SH 8710;TSM 640;TSM 641;TSM 630;L 45/50CS;KS 9001;Tegiloxan 3;X 7-5203;WS 101;SH 7063;SM 2140;SM 2068A;KM 787;KM 788;PMS 5;L 45;NUC-L 45;NUC Silicone L 45;SPB 1;RP 60;KM 893;KE 9705;Dow Corning 6-1104;DC 6-1104;SR 2408;TSF 451;DKQ 8-770;SXP 3;ASI 100 Methyl;PS 049.5;Delomet 2301WS;SM 2163;SH 7028;A 50;Silicone Fluid A 50;A 50 (silicone);X 92-122;Q 2-1484;Nusil PLY 7501;KissCote;RP 6;Dow Corning 1400;TSM 648;R 170 (silicone);SM 7027;Viscasil 10M;R 170;AF 9000;KF 92;BY 27-003;BY 27-007;Modarez SPA;Silicone Oil 350;KS 717;OV 1;Sandoperm MEJ;Viscasil 30000;Poly(dimethylsiloxane), SRU;Polydimethylsiloxane;Emulsion 75;Lurol PP 5228;TEX 103;Dow Corning 75;TSF 451-10000ST;SD 8000;VP 7660;TSF 451-100CS;Rhodorsil HP 1055U;SH 5510;Dow Corning 1650;Viscasil;Dimethylpolysiloxane;Di-Me polysiloxane;Di-Me silicone;Di-Me siloxane;FZ 4170;Dow Corning 225;DC 225;TSF 4600;SM 2138;Dow Corning 561;KM 740;TPR 6711;KF 60H;TRS 127B;SH 200-100000CS;TSF 451-1;EE 3110;SH 200C200CS;AK 750;SM 2164;TSF 451-3000;Polsil OM 10;Polsil OM 50;Polsil OM 100;Polsil OM 300;Polsil OM 1000;Polsil OM 3000;Polsil OM 5000;Polsil OM 10000;Polsil OM 500;Polsil OM;OV 101;KF 96A3000;Solstil S;401N;KF 96A2;SLJ 1193/4;CT 89E;KM 73;Q 7-4301;BIO-PSA Q 7-4301;DB 1 (silicone);Trefil E 500C;TSF 45;Silwax WS;DB 1;SM 8705;Pervap 1060;Shirikonsuta YO 50S;SF 100;KF 96A1000;L 45(5000);SF 100 (silicone);M 5;M 5 (silicone);Dow Corning 2-1691;DC 2-1691;L 45(500);SH 200C30CS;OHEB 1000;PC 601;SH 200-350;KF 7132K;Rhodorsil 47V2500000;Viscasil 100000;Viscasil 600000;VRS 01;A 80R;YMR 7212;XS 65B4252;Baysilone MA;SH 200-12500;Baysilone M 50EL;Chaline Buruba 520C;L 43;MH 573;FD 62;K 21;Rhodorsil Water Resistant 68;PMS 10;PMS 10000;PMS 1000A;PMS 154A;PMS 200;PMS 200A;PMS 25;PMS 300;PMS 400;PMS 50r;PMS 6;PS 042;Q 2-1803;PMS 1.5;SDC 200;SI 30;Silicone DC 93-120;UC Liquid G;Union Carbide Liquid G;MS 200;PMS;SP 2100;Foamkill 8D;PS 197;Siloprene C 18;L 546;Ucarsil DJ;NMS 03;SM 8708;Gascon;Sylgard 182-62B;Sylgard 184-36B;Sylgard 184-31B;Sylgard 1107-69;HV 490;SH 8708;AV 1000;K 331;NAE;SAH 288;SAH 283;Rhodorsil CAF 3B;FZ 132;KS 607A;Lukosan A;EX 417;KM 80;MEC 515;XF 42-220;Dow Corning 930;BY 16-801;RSL 150;SF 711;SF 712;SE 30GC;Accuglass 210;Accuglass 211;L 43 (silicone);Releasil 8;SAG 100;Dow Corning 93-120;KO 811;SM 2061;Lukooil M 100;Lukooil M 200;Lukosan M 02;Lukosan M 07;Lukosan A 311;Viscasil 5000;Viscasil 10000;Accuglass 305;Silpian E 2;Silol 350;Aquasil E;SF 97(50);KM 9k;PMF 600;Silak M 10;Y 9208;Tegiloxan 50;F 1-3563;Silpian 2;CF 1241;Antaphron NM 42;X 2-1163;Silar 10:100;Rhodorsil H 224;LE 46;SH 6188;Techno Care FRS;Silol 5;KS 773;KE 77;AF 75;Teginex FP 90;Siligaz;BW 400;Siloprene C 1;Siloprene C 2;K 21 (silicone);Polsil 350;NM 1350;G 832;SM 2013;PMS (siloxane);KF 96L2SC;X 52-874C;XF 13-563;SF 1017;F 111/5000;Karainburuba 520C;Antifoam FD 62;X 20-201;KS 705F;Dow Corning MDX 4-4139;DC-MDX 4-4139;Silicone DC-MDX 4-4139;PMS 100;Methylsilicone SI 30;PMS 50;Silicone Release L 45;Silikon Antifoam FD 62;SM 5512;CP-Sil 5;Lukosan S;SB-Methyl 100;Akvastop;PS 040;NM 1-300000;XA 5016-600Y;NE 25;KF 96ST;CY 52-111;SH 200-30000;Sil-bar;Trefil E 730;TSF 451-6000;SAG 1010;Tegopren 6224;No-Stik 812;Techno Care FRV;Siltech F 1000;Siltech F 100;Superlin X;KR 240;SE 9165;YSR 3286;GP 187;FZ 3112;Eccosil 5019;Dow Corning 120;KF 96A100;KM 80 (silicone);BY 22-064;SH 1200C120000CS;ASP 3;ASP 3 (silicone);Mirasil DM 50;Mirasil DM 300;X 52-2160;Dow Corning 4-7224;Dow Corning 3625;Trefil F 203;F 203;SH 200-1000;B 160-40;Dow Corning 36;Oxane 5700;DMS-X 11;KF 96L1;KF 96L10;KF 96L100;S 145 (silicone);X 24-9825;S 145;Viscasil 100M;SSP-M 100;SH 7028A;Lambent 89;Lambent 88;Lambent 84;M 30 (antifoam);Antifoam M 30;BY 22-077;KF 96-60000CS;M 30;Tinotex CMA;Rhodorsil R 411;KF 96-3000;KF 96-6000;KM 786;Soflex 2;Chiroflex C 11UB;Silens 6;SH 200C50CS;Siloprene HTV;Tinotex FSA;PDMS 1060;PDMS 1070;RP 41VO65;RP 47V5;SRM 2491;Dehesive 930;L 45(5);Poly(dimethylsilanediol), SRU;HV 600;HV 600 (siloxane);KF 96H10;KF 96H1000000;SH 200C6CS;Silatos;DC 1786;Dow Corning 1786;Zebron ZB 1;SH 200-200;L 45(100);L 45(1000);Dimethyldichlorosilane hydrolytic polymer, sru;Dow Corning 1274;RP 6 (siloxane);DC 200F;NuSil MED 361;PHAT 007-1;KF 96-500000CS;SH 200-10000;Struktol SB 2071;X 7-2900;Silwet L 45;Colcoat N 103;KF 96A5;KM 9738;Lithsolvent PK;HR 1 (coating);HR 1;Baysilone OEL;KF 96H200000;SH 5507;TSM 6344;JA 200;Viscasil 600M;TP 130;Belsil DM 500;SAK 9;Dow Corning 1668;DC 1668;BY 22-068;X 21-7633;S 4005;Elastosil NA;TSF 451-350;LE 463;V 3040A;Polon MF 7;Dimethicone 200SF;DMPS-V;KF 96A500cs;Dimethylethoxysilane homopolymer, sru;Visc 600M;Belsil 1000;Unidic RS 21-395L1;PMS 1000;Dow Corning 2000-60000CS;DC 200 Fluid 5;SH 200C100CS;SH 200C5CS;Silicone SE 30;SH 200-10;C 11UB;Light Silicone PM 50;PMS 20;PMS 6000;Dow Corning 1410AF;Phenomenex ZB 1;ZB 1;KF 96L10cs;X 21-5616;Siltech F 350;PMS 350;Pentelast 1102;BYK-UV 32510;HU 2 Slip;SM 7036EX;SM 8710EX;SM-Cube JN-DM;Rsil-emul 872;Rsil-H 47V1000;LPS-L 400A/B;CC 0370;Pyroil Silicone Lubricant;DMPS 2C100G;Tegosivin HE 899;GZh 1;Baysilone Emulsion H;E 620;TW 304;WS 60;WS 60 (silicone);KER 6100CAT-PH;OV 1 (silicone);TSM 632;X 51-1330;CV 2680-12;MN 11400;Struktol SB 2113;HS 06;Macroplastique;Baysilone Paint Additive MA;SSP-M 823;PMS 100 (polysiloxane);SH 200C Fluid 50CS;Starsil 47V50;Starsil PDMS 47V50;Fast Break;E 1817;Silicaid AF 100;Dowsil 3-1953",
    "duplicated_cas_no": "9049-10-9;9063-73-4;9087-48-3;9087-49-4;12619-98-6;12620-09-6;12680-27-2;12680-28-3;37200-44-5;37221-89-9;37267-73-5;37340-53-7;39457-57-3;39476-41-0;51569-26-7;51888-90-5;51910-51-1;52232-96-9;52622-98-7;53125-20-5;53239-64-8;54351-38-1;54351-90-5;56730-54-2;57486-07-4;57679-15-9;58391-68-7;60440-54-2;60842-63-9;90250-23-0;109946-28-3;110616-98-3;118731-39-8;123243-00-5;123515-75-3;141093-32-5;231934-55-7;247174-77-2;387334-72-7;387334-73-8;387334-74-9;444348-83-8;697286-36-5;2319702-71-9;2769818-29-1",
    "SMILES": "",
    "meta_data": {
        "InChI": "",
        "InChIKey": null,
        "Canonical SMILES": "",
        "Molecular Formula": "(C<sub>2</sub>H<sub>6</sub>OSi)<sub>n</sub>",
        "Molecular Mass": "",
        "Melting Point": "-50 °C",
        "Density": "0.76-0.971 g/cm³"
    }
}