{
    "cas_no": "2385-85-5",
    "key_name": "Mirex",
    "cn_name": "灭蚁灵;全氯五环癸烷;",
    "alternate_name": "1,3,4-Metheno-1<em>H</em>-cyclobuta[<em>cd</em>]pentalene, 1,1a,2,2,3,3a,4,5,5,5a,5b,6-dodecachlorooctahydro-;1,3,4-Metheno-1<em>H</em>-cyclobuta[<em>cd</em>]pentalene, dodecachlorooctahydro-;1,1a,2,2,3,3a,4,5,5,5a,5b,6-Dodecachlorooctahydro-1,3,4-metheno-1<em>H</em>-cyclobuta[<em>cd</em>]pentalene;GC 1283;ENT 25719;Mirex;Perchloropentacyclo[5.2.1.0<sup>2,6</sup>.0<sup>3,9</sup>.0<sup>5,8</sup>]decane;1,3-Cyclopentadiene, 1,2,3,4,5,5-hexachloro-, dimer;Dechlorane;Hexachlorocyclopentadiene dimer;Perchloropentacyclodecane;Perchlorodihomocubane;Dodecachlorooctahydro-1,3,4-metheno-2<em>H</em>-cyclobuta[<em>cd</em>]pentalene;Dechlorane 4070;Paramex;Dodecachlor;Dodecaclor;Perchloropentacyclo[5.3.0.0<sup>2,6</sup>.0<sup>3,9</sup>.0<sup>4,8</sup>]decane;NSC 124102;NSC 26107;NSC 37656;Perchlorodecone;MeSH ID: D008917",
    "duplicated_cas_no": "12557-88-9;12707-43-6;12766-04-0;20594-49-4;56449-78-6",
    "SMILES": "ClC12C3(Cl)C4(Cl)C(Cl)(Cl)C1(Cl)C5(Cl)C2(Cl)C(Cl)(Cl)C3(Cl)C45Cl",
    "meta_data": {
        "InChI": "InChI=1S/C10Cl12/c11-1-2(12)7(17)4(14)3(13,5(1,15)9(7,19)20)6(1,16)10(21,22)8(2,4)18",
        "InChIKey": null,
        "Canonical SMILES": "ClC1(Cl)C2(Cl)C3(Cl)C4(Cl)C(Cl)(Cl)C5(Cl)C3(Cl)C1(Cl)C5(Cl)C24Cl",
        "Molecular Formula": "C<sub>10</sub>Cl<sub>12</sub>",
        "Molecular Mass": "545.54",
        "Melting Point": "485 °C"
    }
}