{
    "cas_no": "817-09-4",
    "key_name": "Tris(2-chloroethyl)amine hydrochloride",
    "cn_name": "三(2-氯乙基)胺盐酸盐;",
    "alternate_name": "Ethanamine, 2-chloro-<em>N</em>,<em>N</em>-bis(2-chloroethyl)-, hydrochloride (1:1);Triethylamine, 2,2′,2′′-trichloro-, hydrochloride;Ethanamine, 2-chloro-<em>N</em>,<em>N</em>-bis(2-chloroethyl)-, hydrochloride;Sinalost;Tri(β-chloroethyl)amine hydrochloride;2,2′,2′′-Trichlorotriethylamine hydrochloride;Trimitan;Tris(2-chloroethyl)amine hydrochloride;Tris(β-chloroethyl)amine hydrochloride;2-Chloro-<em>N</em>,<em>N</em>-bis(2-chloroethyl)ethanammonium chloride;R 47;Trichlormethin;Trillekamin;Trimustine;NSC 30211;Tri(2-chloroethyl)amine hydrochloride",
    "duplicated_cas_no": "1787254-91-4;2585196-19-4",
    "SMILES": "N(CCCl)(CCCl)CCCl.Cl",
    "meta_data": {
        "InChI": "InChI=1S/C6H12Cl3N.ClH/c7-1-4-10(5-2-8)6-3-9;/h1-6H2;1H",
        "InChIKey": null,
        "Canonical SMILES": "Cl.ClCCN(CCCl)CCCl",
        "Molecular Formula": "C<sub>6</sub>H<sub>12</sub>Cl<sub>3</sub>N.ClH",
        "Molecular Mass": "",
        "Melting Point": "130-131 °C"
    }
}