{
    "cas_no": "156727-74-1",
    "key_name": "SNC 80",
    "cn_name": null,
    "alternate_name": "Benzamide, 4-[(<em>R</em>)-[(2<em>S</em>,5<em>R</em>)-2,5-dimethyl-4-(2-propen-1-yl)-1-piperazinyl](3-methoxyphenyl)methyl]-<em>N</em>,<em>N</em>-diethyl-;Benzamide, 4-[[2,5-dimethyl-4-(2-propenyl)-1-piperazinyl](3-methoxyphenyl)methyl]-<em>N</em>,<em>N</em>-diethyl-, [2<em>S</em>-[1(<em>S</em>*),2α,5β]]-;Benzamide, 4-[(<em>R</em>)-[(2<em>S</em>,5<em>R</em>)-2,5-dimethyl-4-(2-propenyl)-1-piperazinyl](3-methoxyphenyl)methyl]-<em>N</em>,<em>N</em>-diethyl-;4-[(<em>R</em>)-[(2<em>S</em>,5<em>R</em>)-2,5-Dimethyl-4-(2-propen-1-yl)-1-piperazinyl](3-methoxyphenyl)methyl]-<em>N</em>,<em>N</em>-diethylbenzamide;SNC 80;NIH 10815",
    "duplicated_cas_no": "",
    "SMILES": "[C@H](N1[C@@H](C)CN(CC=C)[C@H](C)C1)(C2=CC(OC)=CC=C2)C3=CC=C(C(N(CC)CC)=O)C=C3",
    "meta_data": {
        "InChI": "InChI=1S/C28H39N3O2/c1-7-17-30-19-22(5)31(20-21(30)4)27(25-11-10-12-26(18-25)33-6)23-13-15-24(16-14-23)28(32)29(8-2)9-3/h7,10-16,18,21-22,27H,1,8-9,17,19-20H2,2-6H3/t21-,22+,27-/m1/s1",
        "InChIKey": null,
        "Canonical SMILES": "O=C(C1=CC=C(C=C1)C(C=2C=CC=C(OC)C2)N3CC(N(CC=C)CC3C)C)N(CC)CC",
        "Molecular Formula": "C<sub>28</sub>H<sub>39</sub>N<sub>3</sub>O<sub>2</sub>",
        "Molecular Mass": "449.63",
        "Melting Point": "122.7-123.1 °C"
    }
}