{
    "cas_no": "90725-68-1",
    "key_name": "Benzoic acid, 2-(bromomethyl)-5-nitro-, methyl ester",
    "cn_name": "2-溴甲基-5-硝基苯甲酸甲酯;",
    "alternate_name": "Benzoic acid, 2-(bromomethyl)-5-nitro-, methyl ester;<em>o</em>-Toluic acid, α-bromo-5-nitro-, methyl ester;Methyl 2-(bromomethyl)-5-nitrobenzoate;EC2-053",
    "duplicated_cas_no": "",
    "SMILES": "C(OC)(=O)C1=C(CBr)C=CC(N(=O)=O)=C1",
    "meta_data": {
        "InChI": "InChI=1S/C9H8BrNO4/c1-15-9(12)8-4-7(11(13)14)3-2-6(8)5-10/h2-4H,5H2,1H3",
        "InChIKey": null,
        "Canonical SMILES": "O=C(OC)C1=CC(=CC=C1CBr)N(=O)=O",
        "Molecular Formula": "C<sub>9</sub>H<sub>8</sub>BrNO<sub>4</sub>",
        "Molecular Mass": "274.07",
        "Melting Point": "76-77 °C"
    }
}