{
    "cas_no": "84-60-6",
    "key_name": "2,6-Dihydroxyanthraquinone",
    "cn_name": "2,6-二羟基蒽醌;2,6-二羟基-9,10-蒽二酮;",
    "alternate_name": "9,10-Anthracenedione, 2,6-dihydroxy-;Anthraflavic acid;Anthraquinone, 2,6-dihydroxy-;2,6-Dihydroxy-9,10-anthracenedione;2,6-Dihydroxyanthraquinone;Anthraflavin;NSC-33531;2,6-Dihydroxy-9,10-anthraquinone;2,6-Dihydroxy-9,10-dihydroanthracene-9,10-dione",
    "duplicated_cas_no": "",
    "SMILES": "O=C1C=2C(C(=O)C=3C1=CC(O)=CC3)=CC(O)=CC2",
    "meta_data": {
        "InChI": "InChI=1S/C14H8O4/c15-7-1-3-9-11(5-7)14(18)10-4-2-8(16)6-12(10)13(9)17/h1-6,15-16H",
        "InChIKey": null,
        "Canonical SMILES": "O=C1C2=CC=C(O)C=C2C(=O)C3=CC=C(O)C=C13",
        "Molecular Formula": "C<sub>14</sub>H<sub>8</sub>O<sub>4</sub>",
        "Molecular Mass": "240.21",
        "Melting Point": "&gt;320 °C"
    }
}