{
    "cas_no": "27139-97-5",
    "key_name": "2-Bromo-4-chloro-1-methylbenzene",
    "cn_name": "2-溴-4-氯甲苯;",
    "alternate_name": "Benzene, 2-bromo-4-chloro-1-methyl-;Toluene, 2-bromo-4-chloro-;2-Bromo-4-chloro-1-methylbenzene;2-Bromo-4-chlorotoluene",
    "duplicated_cas_no": "",
    "SMILES": "BrC1=C(C)C=CC(Cl)=C1",
    "meta_data": {
        "InChI": "InChI=1S/C7H6BrCl/c1-5-2-3-6(9)4-7(5)8/h2-4H,1H3",
        "InChIKey": null,
        "Canonical SMILES": "ClC1=CC=C(C(Br)=C1)C",
        "Molecular Formula": "C<sub>7</sub>H<sub>6</sub>BrCl",
        "Molecular Mass": "205.48",
        "Boiling Point": "80-100 °C @ Press: 2 Torr"
    }
}