{
    "cas_no": "1071-73-4",
    "key_name": "5-Hydroxy-2-pentanone",
    "cn_name": "5-羟基-2-戊酮;3-乙酰基-1-丙醇;",
    "alternate_name": "2-Pentanone, 5-hydroxy-;5-Hydroxy-2-pentanone;γ-Acetopropanol;3-Acetyl-1-propanol;γ-Acetylpropyl alcohol;3-Acetopropanol;3-Acetylpropanol;γ-Acetopropyl alcohol;4-Oxo-1-pentanol;NSC 19158;NSC 33940;5-Hydroxy-<em>n</em>-pentan-2-one",
    "duplicated_cas_no": "",
    "SMILES": "C(C(C)=O)CCO",
    "meta_data": {
        "InChI": "InChI=1S/C5H10O2/c1-5(7)3-2-4-6/h6H,2-4H2,1H3",
        "InChIKey": null,
        "Canonical SMILES": "O=C(C)CCCO",
        "Molecular Formula": "C<sub>5</sub>H<sub>10</sub>O<sub>2</sub>",
        "Molecular Mass": "102.13",
        "Boiling Point": "209 °C",
        "Density": "1.007 g/cm³ @ Temp: 17 °C"
    }
}