{
    "cas_no": "605-32-3",
    "key_name": "2-Hydroxyanthraquinone",
    "cn_name": "2-羟基蒽醌;2-羟基-9,10-蒽二酮;",
    "alternate_name": "9,10-Anthracenedione, 2-hydroxy-;Anthraquinone, 2-hydroxy-;2-Hydroxy-9,10-anthracenedione;2-Hydroxyanthraquinone;2-Hydroxy-9,10-anthraquinone;β-Hydroxyanthraquinone;NSC 2595;2-Hydroxy-9,10-dihydroanthracene-9,10-dione",
    "duplicated_cas_no": "",
    "SMILES": "O=C1C=2C(C(=O)C=3C1=CC=CC3)=CC=C(O)C2",
    "meta_data": {
        "InChI": "InChI=1S/C14H8O3/c15-8-5-6-11-12(7-8)14(17)10-4-2-1-3-9(10)13(11)16/h1-7,15H",
        "InChIKey": null,
        "Canonical SMILES": "O=C1C=2C=CC=CC2C(=O)C3=CC(O)=CC=C13",
        "Molecular Formula": "C<sub>14</sub>H<sub>8</sub>O<sub>3</sub>",
        "Molecular Mass": "224.21",
        "Melting Point": "306 °C"
    }
}