{
    "cas_no": "5325-94-0",
    "key_name": "1-Piperidinecarboxylic acid, ethyl ester",
    "cn_name": "1-哌啶羧酸乙酯;",
    "alternate_name": "1-Piperidinecarboxylic acid, ethyl ester;<em>N</em>-Carbethoxypiperidine;Ethyl 1-piperidinecarboxylate;<em>N</em>-(Ethoxycarbonyl)piperidine;NSC 100911;NSC 236;1-Ethoxycarbonylpiperidine;<em>N</em>-Carboethoxypiperidine",
    "duplicated_cas_no": "",
    "SMILES": "C(OCC)(=O)N1CCCCC1",
    "meta_data": {
        "InChI": "InChI=1S/C8H15NO2/c1-2-11-8(10)9-6-4-3-5-7-9/h2-7H2,1H3",
        "InChIKey": null,
        "Canonical SMILES": "O=C(OCC)N1CCCCC1",
        "Molecular Formula": "C<sub>8</sub>H<sub>15</sub>NO<sub>2</sub>",
        "Molecular Mass": "157.21",
        "Boiling Point": "213-215 °C @ Press: 780 Torr"
    }
}