{
    "cas_no": "34523-34-7",
    "key_name": "4′-Hydroxyacetophenone oxime",
    "cn_name": "4-羟基苯乙酮肟;对羟基苯乙酮肟;",
    "alternate_name": "Ethanone, 1-(4-hydroxyphenyl)-, oxime;Acetophenone, 4′-hydroxy-, oxime;<em>p</em>-Hydroxyacetophenone oxime;4′-Hydroxyacetophenone oxime;1-(4-Hydroxyphenyl)ethanone oxime;1-(4-Hydroxyphenyl)-1-ethanone oxime;NSC 77904",
    "duplicated_cas_no": "",
    "SMILES": "C(=NO)(C)C1=CC=C(O)C=C1",
    "meta_data": {
        "InChI": "InChI=1S/C8H9NO2/c1-6(9-11)7-2-4-8(10)5-3-7/h2-5,10-11H,1H3",
        "InChIKey": null,
        "Canonical SMILES": "ON=C(C1=CC=C(O)C=C1)C",
        "Molecular Formula": "C<sub>8</sub>H<sub>9</sub>NO<sub>2</sub>",
        "Molecular Mass": "151.16",
        "Melting Point": "144 °C"
    }
}