{
    "cas_no": "109-01-3",
    "key_name": "1-Methylpiperazine",
    "cn_name": "N-甲基哌嗪;",
    "alternate_name": "Piperazine, 1-methyl-;1-Methylpiperazine;<em>N</em>-Methylpiperazine;NSC 30195;NSC 30675;1-Methyl-1,4-piperazine;N-Methylpiperazine;1-Methyltetrahydro-1,4-diazine",
    "duplicated_cas_no": "",
    "SMILES": "CN1CCNCC1",
    "meta_data": {
        "InChI": "InChI=1S/C5H12N2/c1-7-4-2-6-3-5-7/h6H,2-5H2,1H3",
        "InChIKey": null,
        "Canonical SMILES": "N1CCN(C)CC1",
        "Molecular Formula": "C<sub>5</sub>H<sub>12</sub>N<sub>2</sub>",
        "Molecular Mass": "100.16",
        "Boiling Point": "138 °C",
        "Melting Point": "-6 °C",
        "Density": "0.89928 g/cm³ @ Temp: 25.00 °C"
    }
}