{
    "cas_no": "120221-14-9",
    "key_name": "2-Chloro-4-nitrophenyl β-<span class=\"text-smallcaps\">D</span>-glucopyranoside",
    "cn_name": null,
    "alternate_name": "β-<span class=\"text-smallcaps\">D</span>-Glucopyranoside, 2-chloro-4-nitrophenyl;2-Chloro-4-nitrophenyl β-<span class=\"text-smallcaps\">D</span>-glucopyranoside;2′-Chloro-4′-nitrophenyl β-<span class=\"text-smallcaps\">D</span>-glucopyranoside",
    "duplicated_cas_no": "123534-60-1",
    "SMILES": "O([C@@H]1O[C@H](CO)[C@@H](O)[C@H](O)[C@H]1O)C2=C(Cl)C=C(N(=O)=O)C=C2",
    "meta_data": {
        "InChI": "InChI=1S/C12H14ClNO8/c13-6-3-5(14(19)20)1-2-7(6)21-12-11(18)10(17)9(16)8(4-15)22-12/h1-3,8-12,15-18H,4H2/t8-,9-,10+,11-,12-/m1/s1",
        "InChIKey": null,
        "Canonical SMILES": "O=N(=O)C1=CC=C(OC2OC(CO)C(O)C(O)C2O)C(Cl)=C1",
        "Molecular Formula": "C<sub>12</sub>H<sub>14</sub>ClNO<sub>8</sub>",
        "Molecular Mass": "335.69",
        "Melting Point": "181-183 °C"
    }
}