{
    "cas_no": "34883-43-7",
    "key_name": "PCB 8",
    "cn_name": "2,4ˊ-二氯联苯;2,4ˊ-二氯联苯;",
    "alternate_name": "1,1′-Biphenyl, 2,4′-dichloro-;Biphenyl, 2,4′-dichloro-;2,4′-Dichloro-1,1′-biphenyl;2,4′-Dichlorobiphenyl;PCB 8;CB 8;1-Chloro-4-(2-chlorophenyl)benzene",
    "duplicated_cas_no": "",
    "SMILES": "ClC1=C(C2=CC=C(Cl)C=C2)C=CC=C1",
    "meta_data": {
        "InChI": "InChI=1S/C12H8Cl2/c13-10-7-5-9(6-8-10)11-3-1-2-4-12(11)14/h1-8H",
        "InChIKey": null,
        "Canonical SMILES": "ClC=1C=CC(=CC1)C=2C=CC=CC2Cl",
        "Molecular Formula": "C<sub>12</sub>H<sub>8</sub>Cl<sub>2</sub>",
        "Molecular Mass": "223.10",
        "Boiling Point": "172 °C",
        "Melting Point": "44.5 °C"
    }
}