{
    "cas_no": "100-73-2",
    "key_name": "3,4-Dihydro-2<em>H</em>-pyran-2-carboxaldehyde",
    "cn_name": "3,4-二氢-2H-吡喃-2-甲醛;alpha-酰基-3,4-二氢-2H-吡喃;",
    "alternate_name": "2<em>H</em>-Pyran-2-carboxaldehyde, 3,4-dihydro-;3,4-Dihydro-2<em>H</em>-pyran-2-carboxaldehyde;Acrolein dimer;2-Formyl-3,4-dihydro-2<em>H</em>-pyran;5-Hexenal, 2,6-epoxy-;2-Propenal, dimer;3,4-Dihydro-2-formyl-2<em>H</em>-pyran;3,4-Dihydro-2<em>H</em>-pyran-2-aldehyde;NSC 95413;3,4-Dihydro-2<em>H</em>-pyran-2-carbaldehyde",
    "duplicated_cas_no": "102265-26-9;77890-80-3",
    "SMILES": "C(=O)C1CCC=CO1",
    "meta_data": {
        "InChI": "InChI=1S/C6H8O2/c7-5-6-3-1-2-4-8-6/h2,4-6H,1,3H2",
        "InChIKey": null,
        "Canonical SMILES": "O=CC1OC=CCC1",
        "Molecular Formula": "C<sub>6</sub>H<sub>8</sub>O<sub>2</sub>",
        "Molecular Mass": "112.13",
        "Boiling Point": "88 °C @ Press: 100 Torr",
        "Melting Point": "-130 °C",
        "Density": "1.1764 g/cm³ @ Temp: 20 °C"
    }
}