{
    "cas_no": "4368-51-8",
    "key_name": "Tetraheptylammonium bromide",
    "cn_name": "四庚基溴化铵;",
    "alternate_name": "1-Heptanaminium, <em>N</em>,<em>N</em>,<em>N</em>-triheptyl-, bromide (1:1);Ammonium, tetraheptyl-, bromide;1-Heptanaminium, <em>N</em>,<em>N</em>,<em>N</em>-triheptyl-, bromide;Tetraheptylammonium bromide;Tetra(<em>n</em>-heptyl)ammonium bromide",
    "duplicated_cas_no": "",
    "SMILES": "[N+](CCCCCCC)(CCCCCCC)(CCCCCCC)CCCCCCC.[Br-]",
    "meta_data": {
        "InChI": "InChI=1S/C28H60N.BrH/c1-5-9-13-17-21-25-29(26-22-18-14-10-6-2,27-23-19-15-11-7-3)28-24-20-16-12-8-4;/h5-28H2,1-4H3;1H/q+1;/p-1",
        "InChIKey": null,
        "Canonical SMILES": "[Br-].CCCCCCC[N+](CCCCCCC)(CCCCCCC)CCCCCCC",
        "Molecular Formula": "C<sub>28</sub>H<sub>60</sub>N.Br",
        "Molecular Mass": "",
        "Melting Point": "89-91 °C"
    }
}