{
    "cas_no": "1201913-82-7",
    "key_name": "Spiro[isobenzofuran-1(3<em>H</em>),2′-[2<em>H</em>]pyran]-3′,4′,5′-triol, 6-[(4-ethylphenyl)methyl]-3′,4′,5′,6′-tetrahydro-6′-(hydroxymethyl)-, hydrate (1:1), (1<em>S</em>,3′<em>R</em>,4′<em>S</em>,5′<em>S</em>,6′<em>R</em>)-",
    "cn_name": null,
    "alternate_name": "Spiro[isobenzofuran-1(3<em>H</em>),2′-[2<em>H</em>]pyran]-3′,4′,5′-triol, 6-[(4-ethylphenyl)methyl]-3′,4′,5′,6′-tetrahydro-6′-(hydroxymethyl)-, hydrate (1:1), (1<em>S</em>,3′<em>R</em>,4′<em>S</em>,5′<em>S</em>,6′<em>R</em>)-;Deberza;Tofogliflozin hydrate",
    "duplicated_cas_no": "",
    "SMILES": "O[C@H]1[C@]2(C=3C(CO2)=CC=C(CC4=CC=C(CC)C=C4)C3)O[C@H](CO)[C@@H](O)[C@@H]1O.O",
    "meta_data": {
        "InChI": "InChI=1S/C22H26O6.H2O/c1-2-13-3-5-14(6-4-13)9-15-7-8-16-12-27-22(17(16)10-15)21(26)20(25)19(24)18(11-23)28-22;/h3-8,10,18-21,23-26H,2,9,11-12H2,1H3;1H2/t18-,19-,20+,21-,22+;/m1./s1",
        "InChIKey": null,
        "Canonical SMILES": "O.OCC1OC2(OCC3=CC=C(C=C32)CC4=CC=C(C=C4)CC)C(O)C(O)C1O",
        "Molecular Formula": "C<sub>22</sub>H<sub>26</sub>O<sub>6</sub>.H<sub>2</sub>O",
        "Molecular Mass": "",
        "Melting Point": "71-80 °C"
    }
}