{
    "cas_no": "14769-73-4",
    "key_name": "Levamisole",
    "cn_name": "左咪唑;左旋咪唑;左旋-6-苯基-2,3,5,6-四氢咪唑并[2,1-b]噻唑;",
    "alternate_name": "Imidazo[2,1-<em>b</em>]thiazole, 2,3,5,6-tetrahydro-6-phenyl-, (6<em>S</em>)-;Imidazo[2,1-<em>b</em>]thiazole, 2,3,5,6-tetrahydro-6-phenyl-, (<em>S</em>)-;(6<em>S</em>)-2,3,5,6-Tetrahydro-6-phenylimidazo[2,1-<em>b</em>]thiazole;(-)-Tetramisole;Levamisole;<em>l</em>-2,3,5,6-Tetrahydro-6-phenylimidazo[2,1-<em>b</em>]thiazole;Levomysol;(-)-2,3,5,6-Tetrahydro-6-phenylimidazo[2.1-<em>b</em>]thiazole;Ketrax;Levamisol;<em>l</em>-Tetramisole;<span class=\"text-smallcaps\">L</span>-Tetramisole;Vermisol 150;Lepuron;(<em>S</em>)-(-)-Levamisole;Wormicid;Totalon;Levovermax;Levipor;Anthelsol;Levomol;5: PN: WO2015086738 SEQID: 8 claimed sequence;Nilverm LV;(<em>S</em>)-6-Phenyl-2,3,5,6-tetrahydroimidazo[2,1-<em>b</em>]thiazole;(6S)-6-Phenyl-2,3,5,6-tetrahydroimidazo[2,1-<em>b</em>][1,3]thiazole;(6S)-6-Phenyl-2<em>H</em>,3<em>H</em>,5<em>H</em>,6<em>H</em>-imidazo[2,1-<em>b</em>][1,3]thiazole;(-)-Levamisole;Trapsol;MeSH ID: D007978",
    "duplicated_cas_no": "53096-13-2;791526-27-7",
    "SMILES": "[C@@H]1(CN2C(=N1)SCC2)C3=CC=CC=C3",
    "meta_data": {
        "InChI": "InChI=1S/C11H12N2S/c1-2-4-9(5-3-1)10-8-13-6-7-14-11(13)12-10/h1-5,10H,6-8H2/t10-/m1/s1",
        "InChIKey": null,
        "Canonical SMILES": "N1=C2SCCN2CC1C=3C=CC=CC3",
        "Molecular Formula": "C<sub>11</sub>H<sub>12</sub>N<sub>2</sub>S",
        "Molecular Mass": "204.29",
        "Melting Point": "60-61.5 °C"
    }
}