{
    "cas_no": "5786-54-9",
    "key_name": "Hispidol",
    "cn_name": null,
    "alternate_name": "3(2<em>H</em>)-Benzofuranone, 6-hydroxy-2-[(4-hydroxyphenyl)methylene]-, (2<em>Z</em>)-;3(2<em>H</em>)-Benzofuranone, 6-hydroxy-2-(<em>p</em>-hydroxybenzylidene)-, (<em>Z</em>)-;3(2<em>H</em>)-Benzofuranone, 6-hydroxy-2-[(4-hydroxyphenyl)methylene]-, (<em>Z</em>)-;(2<em>Z</em>)-6-Hydroxy-2-[(4-hydroxyphenyl)methylene]-3(2<em>H</em>)-benzofuranone;Hispidol;4′,6-Dihydroxyaurone;(<em>Z</em>)-Hispidol;(Z)-6-Hydroxy-2-(4-hydroxybenzylidene)benzofuran-3(2<em>H</em>)-one",
    "duplicated_cas_no": "",
    "SMILES": "O=C\\1C=2C(O/C1=C\\C3=CC=C(O)C=C3)=CC(O)=CC2",
    "meta_data": {
        "InChI": "InChI=1S/C15H10O4/c16-10-3-1-9(2-4-10)7-14-15(18)12-6-5-11(17)8-13(12)19-14/h1-8,16-17H/b14-7-",
        "InChIKey": null,
        "Canonical SMILES": "O=C1C(OC2=CC(O)=CC=C12)=CC3=CC=C(O)C=C3",
        "Molecular Formula": "C<sub>15</sub>H<sub>10</sub>O<sub>4</sub>",
        "Molecular Mass": "254.24",
        "Melting Point": "286-288 °C"
    }
}