{
    "cas_no": "57381-51-8",
    "key_name": "4-Chloro-2-fluorobenzonitrile",
    "cn_name": "4-氯-2-氟苯腈;4-氯-2-氟苯甲腈;",
    "alternate_name": "Benzonitrile, 4-chloro-2-fluoro-;4-Chloro-2-fluorobenzonitrile;2-Fluoro-4-chlorobenzonitrile",
    "duplicated_cas_no": "",
    "SMILES": "C(#N)C1=C(F)C=C(Cl)C=C1",
    "meta_data": {
        "InChI": "InChI=1S/C7H3ClFN/c8-6-2-1-5(4-10)7(9)3-6/h1-3H",
        "InChIKey": null,
        "Canonical SMILES": "N#CC1=CC=C(Cl)C=C1F",
        "Molecular Formula": "C<sub>7</sub>H<sub>3</sub>ClFN",
        "Molecular Mass": "155.56",
        "Melting Point": "57-58 °C"
    }
}