{
    "cas_no": "143468-96-6",
    "key_name": "1-Ethyl 2-(2-thienylmethyl)propanedioate",
    "cn_name": "(2-噻吩基甲基)丙二酸单乙酯;",
    "alternate_name": "Propanedioic acid, 2-(2-thienylmethyl)-, 1-ethyl ester;Propanedioic acid, (2-thienylmethyl)-, monoethyl ester;1-Ethyl 2-(2-thienylmethyl)propanedioate;(2-Thienylmethyl)propanedioic acid monoethyl ester;Ethyl 2-carboxy-3-(2-thienyl)propionate;2-(Ethoxycarbonyl)-3-(thien-2-yl)propanoic acid;2-Carbethoxy-3-(2-thienyl)propanoic acid",
    "duplicated_cas_no": "",
    "SMILES": "C(C(C(OCC)=O)C(O)=O)C1=CC=CS1",
    "meta_data": {
        "InChI": "InChI=1S/C10H12O4S/c1-2-14-10(13)8(9(11)12)6-7-4-3-5-15-7/h3-5,8H,2,6H2,1H3,(H,11,12)",
        "InChIKey": null,
        "Canonical SMILES": "O=C(O)C(C(=O)OCC)CC=1SC=CC1",
        "Molecular Formula": "C<sub>10</sub>H<sub>12</sub>O<sub>4</sub>S",
        "Molecular Mass": "228.26",
        "Boiling Point": "170 °C @ Press: 12.2 Torr",
        "Density": "1.141 g/cm³ @ Temp: 20 °C"
    }
}