{
    "cas_no": "97931-41-4",
    "key_name": "Methyl carbazole-3-carboxylate",
    "cn_name": null,
    "alternate_name": "9<em>H</em>-Carbazole-3-carboxylic acid, methyl ester;Carbazole-3-carboxylic acid, methyl ester;Methyl carbazole-3-carboxylate;Methyl 9<em>H</em>-carbazole-3-carboxylate",
    "duplicated_cas_no": "",
    "SMILES": "C(OC)(=O)C=1C=C2C=3C(NC2=CC1)=CC=CC3",
    "meta_data": {
        "InChI": "InChI=1S/C14H11NO2/c1-17-14(16)9-6-7-13-11(8-9)10-4-2-3-5-12(10)15-13/h2-8,15H,1H3",
        "InChIKey": null,
        "Canonical SMILES": "O=C(OC)C=1C=CC=2NC=3C=CC=CC3C2C1",
        "Molecular Formula": "C<sub>14</sub>H<sub>11</sub>NO<sub>2</sub>",
        "Molecular Mass": "225.24",
        "Melting Point": "183-185 °C"
    }
}