{
    "cas_no": "857629-78-8",
    "key_name": "Entacapone 3-methyl ether",
    "cn_name": null,
    "alternate_name": "2-Propenamide, 2-cyano-<em>N</em>,<em>N</em>-diethyl-3-(4-hydroxy-3-methoxy-5-nitrophenyl)-, (2<em>E</em>)-;(2<em>E</em>)-2-Cyano-<em>N</em>,<em>N</em>-diethyl-3-(4-hydroxy-3-methoxy-5-nitrophenyl)-2-propenamide;Entacapone 3-methyl ether",
    "duplicated_cas_no": "",
    "SMILES": "C(=C(/C(N(CC)CC)=O)\\C#N)\\C1=CC(N(=O)=O)=C(O)C(OC)=C1",
    "meta_data": {
        "InChI": "InChI=1S/C15H17N3O5/c1-4-17(5-2)15(20)11(9-16)6-10-7-12(18(21)22)14(19)13(8-10)23-3/h6-8,19H,4-5H2,1-3H3/b11-6+",
        "InChIKey": null,
        "Canonical SMILES": "N#CC(=CC=1C=C(OC)C(O)=C(C1)N(=O)=O)C(=O)N(CC)CC",
        "Molecular Formula": "C<sub>15</sub>H<sub>17</sub>N<sub>3</sub>O<sub>5</sub>",
        "Molecular Mass": "319.31",
        "Melting Point": "129.6-131.3 °C"
    }
}