{
    "cas_no": "34756-16-6",
    "key_name": "5-Methyl-2-furanpropanal",
    "cn_name": "5-甲基呋喃-2-丙醛;",
    "alternate_name": "2-Furanpropanal, 5-methyl-;2-Furanpropionaldehyde, 5-methyl-;5-Methyl-2-furanpropanal;3-(5-Methyl-2-furyl)propanal;3-(5-Methyl-2-furyl)propionaldehyde;NSC 239322;3-(5-Methylfuryl)propanal;3-(5-Methylfuran-2-yl)propanal",
    "duplicated_cas_no": "",
    "SMILES": "C(CC=O)C=1OC(C)=CC1",
    "meta_data": {
        "InChI": "InChI=1S/C8H10O2/c1-7-4-5-8(10-7)3-2-6-9/h4-6H,2-3H2,1H3",
        "InChIKey": null,
        "Canonical SMILES": "O=CCCC=1OC(=CC1)C",
        "Molecular Formula": "C<sub>8</sub>H<sub>10</sub>O<sub>2</sub>",
        "Molecular Mass": "138.16",
        "Boiling Point": "56-56.5 °C @ Press: 3 Torr",
        "Density": "1.0350 g/cm³ @ Temp: 20 °C"
    }
}