{
    "cas_no": "111042-90-1",
    "key_name": "Methyl 3-aminothieno[3,2-<em>b</em>]pyridine-2-carboxylate",
    "cn_name": null,
    "alternate_name": "Thieno[3,2-<em>b</em>]pyridine-2-carboxylic acid, 3-amino-, methyl ester;Methyl 3-aminothieno[3,2-<em>b</em>]pyridine-2-carboxylate;3-Aminothieno[3,2-<em>b</em>]pyridine-2-carboxylic acid methyl ester",
    "duplicated_cas_no": "2169941-70-0",
    "SMILES": "NC=1C=2C(SC1C(OC)=O)=CC=CN2",
    "meta_data": {
        "InChI": "InChI=1S/C9H8N2O2S/c1-13-9(12)8-6(10)7-5(14-8)3-2-4-11-7/h2-4H,10H2,1H3",
        "InChIKey": null,
        "Canonical SMILES": "O=C(OC)C=1SC=2C=CC=NC2C1N",
        "Molecular Formula": "C<sub>9</sub>H<sub>8</sub>N<sub>2</sub>O<sub>2</sub>S",
        "Molecular Mass": "208.24",
        "Melting Point": "122 °C"
    }
}