{
    "cas_no": "2212-08-0",
    "key_name": "(Chloromethyl)methylbis(1-methylethoxy)silane",
    "cn_name": null,
    "alternate_name": "Silane, (chloromethyl)methylbis(1-methylethoxy)-;Silane, (chloromethyl)diisopropoxymethyl-;(Chloromethyl)methylbis(1-methylethoxy)silane;(Chloromethyl)diisopropoxy(methyl)silane;(Chloromethyl)methyldiisopropoxysilane",
    "duplicated_cas_no": "",
    "SMILES": "[Si](OC(C)C)(OC(C)C)(CCl)C",
    "meta_data": {
        "InChI": "InChI=1S/C8H19ClO2Si/c1-7(2)10-12(5,6-9)11-8(3)4/h7-8H,6H2,1-5H3",
        "InChIKey": null,
        "Canonical SMILES": "ClC[Si](OC(C)C)(OC(C)C)C",
        "Molecular Formula": "C<sub>8</sub>H<sub>19</sub>ClO<sub>2</sub>Si",
        "Molecular Mass": "210.77",
        "Boiling Point": "50-52 °C @ Press: 1.5 Torr",
        "Density": "0.970 g/cm³"
    }
}