{
    "cas_no": "22128-43-4",
    "key_name": "4-Methyl-1-octyn-4-ol",
    "cn_name": null,
    "alternate_name": "1-Octyn-4-ol, 4-methyl-;4-Methyl-1-octyn-4-ol;4-Methyl-4-hydroxy-1-octyne;(±)-4-Methyl-1-octyn-4-ol",
    "duplicated_cas_no": "58683-10-6",
    "SMILES": "C(CCCC)(CC#C)(C)O",
    "meta_data": {
        "InChI": "InChI=1S/C9H16O/c1-4-6-8-9(3,10)7-5-2/h2,10H,4,6-8H2,1,3H3",
        "InChIKey": null,
        "Canonical SMILES": "C#CCC(O)(C)CCCC",
        "Molecular Formula": "C<sub>9</sub>H<sub>16</sub>O",
        "Molecular Mass": "140.22",
        "Boiling Point": "58-64 °C @ Press: 4 Torr"
    }
}