{
    "cas_no": "19838-07-4",
    "key_name": "3-Methyl-2(1<em>H</em>)-pyrazinone",
    "cn_name": null,
    "alternate_name": "2(1<em>H</em>)-Pyrazinone, 3-methyl-;Pyrazinol, 3-methyl-;3-Methyl-2(1<em>H</em>)-pyrazinone;2-Hydroxy-3-methylpyrazine;3-Methylpyrazin-2-ol;3-Methyl-1,2-dihydropyrazin-2-one;3-Methyl-1<em>H</em>-pyrazin-2-one",
    "duplicated_cas_no": "",
    "SMILES": "CC=1C(=O)NC=CN1",
    "meta_data": {
        "InChI": "InChI=1S/C5H6N2O/c1-4-5(8)7-3-2-6-4/h2-3H,1H3,(H,7,8)",
        "InChIKey": null,
        "Canonical SMILES": "O=C1NC=CN=C1C",
        "Molecular Formula": "C<sub>5</sub>H<sub>6</sub>N<sub>2</sub>O",
        "Molecular Mass": "110.11",
        "Melting Point": "150-152 °C"
    }
}