{
    "cas_no": "332-25-2",
    "key_name": "4-(Trifluoromethoxy)benzonitrile",
    "cn_name": "4-三氟甲氧基苯腈;对三氟甲氧基苯腈;",
    "alternate_name": "Benzonitrile, 4-(trifluoromethoxy)-;<em>p</em>-Anisonitrile, α,α,α-trifluoro-;4-(Trifluoromethoxy)benzonitrile;4-Cyanophenyl trifluoromethyl ether;α,α,α-Trifluoro-<em>p</em>-anisonitrile;<em>p</em>-Trifluoromethyloxybenzonitrile",
    "duplicated_cas_no": "",
    "SMILES": "O(C(F)(F)F)C1=CC=C(C#N)C=C1",
    "meta_data": {
        "InChI": "InChI=1S/C8H4F3NO/c9-8(10,11)13-7-3-1-6(5-12)2-4-7/h1-4H",
        "InChIKey": null,
        "Canonical SMILES": "N#CC1=CC=C(OC(F)(F)F)C=C1",
        "Molecular Formula": "C<sub>8</sub>H<sub>4</sub>F<sub>3</sub>NO",
        "Molecular Mass": "187.12",
        "Boiling Point": "192.5 °C"
    }
}