{
    "cas_no": "14508-49-7",
    "key_name": "Chloropyrazine",
    "cn_name": "2-氯吡嗪;",
    "alternate_name": "Pyrazine, 2-chloro-;Pyrazine, chloro-;2-Chloropyrazine;Chloropyrazine;Pyrazin-2-yl chloride",
    "duplicated_cas_no": "",
    "SMILES": "ClC=1C=NC=CN1",
    "meta_data": {
        "InChI": "InChI=1S/C4H3ClN2/c5-4-3-6-1-2-7-4/h1-3H",
        "InChIKey": null,
        "Canonical SMILES": "ClC1=NC=CN=C1",
        "Molecular Formula": "C<sub>4</sub>H<sub>3</sub>ClN<sub>2</sub>",
        "Molecular Mass": "114.53",
        "Boiling Point": "153.5 °C",
        "Melting Point": "99-100 °C",
        "Density": "1.28 g/cm³"
    }
}