{
    "cas_no": "108-19-0",
    "key_name": "Biuret",
    "cn_name": "缩二脲;氨缩脲;氨基甲酰脲;亚氨基二碳酸二酰胺;",
    "alternate_name": "Imidodicarbonic diamide;Biuret;Allophanamide;Allophanic acid amide;Carbamylurea;Dicarbamylamine;Ureidoformamide;Urea, (aminocarbonyl)-;Allophanimidic acid;Isobiuret;HO 1 (imidodicarbonic diamide);HO 1 (biuret);NSC 8020;Desmodeyn 75;N 75;1-(Carbamoylamino)formamide;MeSH ID: D001737",
    "duplicated_cas_no": "1866-97-3",
    "SMILES": "N(C(N)=O)C(N)=O",
    "meta_data": {
        "InChI": "InChI=1S/C2H5N3O2/c3-1(6)5-2(4)7/h(H5,3,4,5,6,7)",
        "InChIKey": null,
        "Canonical SMILES": "O=C(N)NC(=O)N",
        "Molecular Formula": "C<sub>2</sub>H<sub>5</sub>N<sub>3</sub>O<sub>2</sub>",
        "Molecular Mass": "103.08",
        "Melting Point": "190 °C (decomp)",
        "Density": "1.467 g/cm³ @ Temp: -5 °C"
    }
}