{
    "cas_no": "12080-32-9",
    "key_name": "Dichloro[(1,2,5,6-η)-1,5-cyclooctadiene]platinum",
    "cn_name": "(1,5-环辛二烯)二氯化铂(II);",
    "alternate_name": "Platinum, dichloro[(1,2,5,6-η)-1,5-cyclooctadiene]-;Platinum, dichloro(1,5-cyclooctadiene)-;1,5-Cyclooctadiene, platinum complex;Dichloro[(1,2,5,6-η)-1,5-cyclooctadiene]platinum;Dichloro(1,5-cyclooctadiene)platinum;1,5-Cyclooctadienedichloroplatinum;(1,5-Cyclooctadiene)platinum dichloride;(1,5-Cyclooctadiene)platinum(II) dichloride;Dichloro(1,5-cyclooctadiene)-platinum(II);NSC 239486;Platinum, dichloro[(1,2,4,5-η)-1,4-cyclooctadiene]-",
    "duplicated_cas_no": "12275-66-0;15249-84-0;174611-50-8;2323587-67-1",
    "SMILES": "[Cl-][Pt+2]123([Cl-])[CH]4=[CH]1CC[CH]2=[CH]3CC4",
    "meta_data": {
        "InChI": "InChI=1S/C8H12.2ClH.Pt/c1-2-4-6-8-7-5-3-1;;;/h1-2,7-8H,3-6H2;2*1H;/q;;;+2/p-2",
        "InChIKey": null,
        "Canonical SMILES": "[Cl-][Pt+2]123([Cl-])[CH]=4CC[CH]3=[CH]2CC[CH]41",
        "Molecular Formula": "C<sub>8</sub>H<sub>12</sub>Cl<sub>2</sub>Pt",
        "Molecular Mass": "",
        "Melting Point": "250-280 °C (decomp)"
    }
}