{
    "cas_no": "16582-60-8",
    "key_name": "4,6-Dibromo-2-benzothiazolamine",
    "cn_name": null,
    "alternate_name": "2-Benzothiazolamine, 4,6-dibromo-;Benzothiazole, 2-amino-4,6-dibromo-;4,6-Dibromo-2-benzothiazolamine;2-Amino-4,6-dibromobenzothiazole",
    "duplicated_cas_no": "",
    "SMILES": "BrC1=C2C(SC(N)=N2)=CC(Br)=C1",
    "meta_data": {
        "InChI": "InChI=1S/C7H4Br2N2S/c8-3-1-4(9)6-5(2-3)12-7(10)11-6/h1-2H,(H2,10,11)",
        "InChIKey": null,
        "Canonical SMILES": "BrC=1C=C(Br)C=2N=C(SC2C1)N",
        "Molecular Formula": "C<sub>7</sub>H<sub>4</sub>Br<sub>2</sub>N<sub>2</sub>S",
        "Molecular Mass": "307.99",
        "Melting Point": "264 °C"
    }
}