{
    "cas_no": "140-88-5",
    "key_name": "Ethyl acrylate",
    "cn_name": "丙烯酸乙酯;",
    "alternate_name": "2-Propenoic acid, ethyl ester;Acrylic acid ethyl ester;Ethyl acrylate;Ethyl propenoate;2-Propenoic acid ethyl ester;Ethyl 2-propenoate;Ethyl acrylic ester;NSC 8263;A 0143",
    "duplicated_cas_no": "1441020-41-2",
    "SMILES": "C(OCC)(C=C)=O",
    "meta_data": {
        "InChI": "InChI=1S/C5H8O2/c1-3-5(6)7-4-2/h3H,1,4H2,2H3",
        "InChIKey": null,
        "Canonical SMILES": "O=C(OCC)C=C",
        "Molecular Formula": "C<sub>5</sub>H<sub>8</sub>O<sub>2</sub>",
        "Molecular Mass": "100.12",
        "Boiling Point": "99.4 °C",
        "Melting Point": "-71.2 °C",
        "Density": "0.9234 g/cm³ @ Temp: 20 °C"
    }
}