{
    "cas_no": "7439-88-5",
    "key_name": "Iridium",
    "cn_name": "铱;铱海棉;铱催化剂;",
    "alternate_name": "Iridium;Iridium black;MeSH ID: D007495",
    "duplicated_cas_no": "1809322-71-1;1809322-79-9",
    "SMILES": "[Ir]",
    "meta_data": {
        "InChI": "InChI=1S/Ir",
        "InChIKey": null,
        "Canonical SMILES": "[Ir]",
        "Molecular Formula": "Ir",
        "Molecular Mass": "",
        "Boiling Point": "4428 °C",
        "Melting Point": "2446 °C",
        "Density": "22.42 g/cm³ @ Temp: 17 °C"
    }
}