{
    "cas_no": "3475-21-6",
    "key_name": "4-Methyl-2-phenylpyridine",
    "cn_name": "4-甲基-2-苯基吡啶;",
    "alternate_name": "Pyridine, 4-methyl-2-phenyl-;4-Picoline, 2-phenyl-;4-Methyl-2-phenylpyridine;2-Phenyl-4-methylpyridine;2-Phenyl-4-picoline",
    "duplicated_cas_no": "",
    "SMILES": "CC=1C=C(N=CC1)C2=CC=CC=C2",
    "meta_data": {
        "InChI": "InChI=1S/C12H11N/c1-10-7-8-13-12(9-10)11-5-3-2-4-6-11/h2-9H,1H3",
        "InChIKey": null,
        "Canonical SMILES": "N=1C=CC(=CC1C=2C=CC=CC2)C",
        "Molecular Formula": "C<sub>12</sub>H<sub>11</sub>N",
        "Molecular Mass": "169.22",
        "Boiling Point": "110-115 °C @ Press: 3 Torr",
        "Melting Point": "48.4-49.7 °C"
    }
}