{
    "cas_no": "50998-18-0",
    "key_name": "6-Iodoquinoxaline",
    "cn_name": null,
    "alternate_name": "Quinoxaline, 6-iodo-;6-Iodoquinoxaline",
    "duplicated_cas_no": "",
    "SMILES": "IC1=CC2=C(C=C1)N=CC=N2",
    "meta_data": {
        "InChI": "InChI=1S/C8H5IN2/c9-6-1-2-7-8(5-6)11-4-3-10-7/h1-5H",
        "InChIKey": null,
        "Canonical SMILES": "IC1=CC=C2N=CC=NC2=C1",
        "Molecular Formula": "C<sub>8</sub>H<sub>5</sub>IN<sub>2</sub>",
        "Molecular Mass": "256.04",
        "Melting Point": "114-115 °C"
    }
}