{
    "cas_no": "518047-40-0",
    "key_name": "1,1-Dimethylethyl 3-cyano-4-morpholinecarboxylate",
    "cn_name": null,
    "alternate_name": "4-Morpholinecarboxylic acid, 3-cyano-, 1,1-dimethylethyl ester;1,1-Dimethylethyl 3-cyano-4-morpholinecarboxylate;3-Cyano-4-morpholinecarboxylic acid tert-butyl ester",
    "duplicated_cas_no": "",
    "SMILES": "C(OC(C)(C)C)(=O)N1C(C#N)COCC1",
    "meta_data": {
        "InChI": "InChI=1S/C10H16N2O3/c1-10(2,3)15-9(13)12-4-5-14-7-8(12)6-11/h8H,4-5,7H2,1-3H3",
        "InChIKey": null,
        "Canonical SMILES": "N#CC1N(C(=O)OC(C)(C)C)CCOC1",
        "Molecular Formula": "C<sub>10</sub>H<sub>16</sub>N<sub>2</sub>O<sub>3</sub>",
        "Molecular Mass": "212.25",
        "Melting Point": "99.7-101.3 °C"
    }
}