{
    "cas_no": "7429-90-5",
    "key_name": "Aluminum",
    "cn_name": "铝;铝箔;",
    "alternate_name": "Aluminum;C.I. 77000;Aluminium;Aluminium Flake;Metana;Noral Aluminium;Noral Extra Fine Lining Grade;Noral Ink Grade Aluminium;Aluminum 27;PAP 1;A 999;L 16;JISC 3108;JISC 3110;A 999V;A 99N;5N;Alpaste 1500MA;Alpaste 0230T;K 102 (metal);K 102;SS 3666;L 1018;1001M;Spota Mobil 801;S 40 (metal);VI 5;S 40;Alpaste 240T;PO 100;Alpaste 0241M;AC 1003;Alpaste 51-231;Alpaste HS 2;Alpaste 53-119;UT 901;AC 1000;SAP 640N;SAP 725N;SAP 120;Aluminum element;AA 15;Stapa 20HK;Chromal X;M 601 (pigment);Alpaste MG 1000;M 601;VSvA 97N;PAP-CI;Alpaste O 100N;SAP 405N;Aisin Metal Fiber;Altop X;Al 18000;Alpaste 100MS;Lansford 243;Kryal Z;Transmet K 102HE;SAP 720N;A 1-18000;Alpaste 60-760;Alpaste 52-568;Alpaste 60-768;Alpaste 7130N;Alpaste 1109MA;Supramex 2022;AC 5005;Alumipaste 55-519;White Silver 7130N;716ON;7620NS;Mirror Glow 1000;Aluminum atom;Elamet 100;Elamet 250;Elamet 500;Alpaste 7160N;Alpaste 7770N;Astroflake 40;Alpaste 1100NA;Alpaste 1700NL;SAP 123;Ecka AS 081;SAP 510N;Alpaste N 1700NL;Alpaste 55-519;Super Fine 18000;Fine 900;Alpaste 0700M;Alpaste 8080N;Reynolds 4-301;Alpaste 100MSR;Alpaste 1900M;40XD;Reynolds 4-591;5XD;0900X;AW 666C;725N;ASB (metal);Astroflake Silver N 040;Astroflake Black N 070;Astroflake Black N 020;ASB;Stapa Metallux 212;Stapa Mobilux 181;Alpaste 8004;AC 2500;SAP 574PS;Alpaste 55-574;Alpaste 0200M;Alpaste MR 9000;Sparkle Silver SS 3130;PA 8260;JISA 51010P;AIH 30H;Valimet H 3;Hisparkle HS 2;Alpaste K 9800;FX 1415;Alcan 105;Eterna Brite 651-1;Eterna Brite 601-1;Eterna Brite 301-1;Silvar A;Sparkle Silver 7500;Sparkle Silver 5500;Sparkle Silver 3500;Alpaste 1900XS;XI 1136;A 95 (metal);A 99 (metal);A 95;A 99;Alpaste 0500M;Alpaste 0100M;Alpaste 2;EBP 251PA;Alpaste SAP 110;Alpaste MR 7000;WZ 7160;AW 7000R;Stapa PV 10;Tufflake 5843;Sparkle Silver 5245AR;Alpaste 0300M;Alpaste 1200M;Astroflake LG 70;Astroflake LG 40;Alpaste 1830YL;Alpaste 7730N;Alpaste 76840NS;Alpaste 1810YL;Alpaste 1950M;Alpaste 1100M;Alpaste 7430NS;Alpaste 46-046;Alpaste 54-452;Alpaste MG 500;SAP 2173;Alpaste 2173;Alpaste O 300M;Albo F;Alpaste WB 0230;Superfine 22000WN;Superfine 18000WN;Reynolds 667;Stapa Hydrolac BGH Chromal X;Alpaste 52-509;Alpaste 417;Alcoa 2468;Alcoa 7468;E 347;E 347 (pigment);Alpaste 7620NS;Aquapaste 205-5;Alpaste 66NLB;DS 5002;H 26 (metal);H 26;Sparkle Silver 7005AR;Stapa Hydrolac WH 16;P 0100;SAP 4120;A 6063S;AC 0460;WX 0630;Alpaste WX 0630;SAP 561PS;Alpaste 891K;MC 606;T 2054;VTSO 112;Obron 5413;Obron 10890;Alcan 7100;Reynolds 400;US Aluminum 809;Alcan 2000;Alpaste 55-516;Alpaste 7640NS;Alpaste 7680NS;Alpaste MG 600;Alpaste MG 1300;Alpaste 0200T;MG 51;Sparkle Silver 3141ST;Sparkle Silver 5271AR;Alpaste WXM 0630;Alpaste 241M;SA 8000T;Alpaste MF 20;MF 20;SAP 771N;MH 8801;Stapa Hydrolac PM Chromal VIII;Stapa Hydrolac BG 8n.1;WX 1130;AW 808;Alpaste WXM 0650;Setanium 50MIS-H8;PCF 8160;Hi Print 60T;Stapa Aloxal PM 2010;Stapa Aloxal PM 3010;Stapa Aloxal PM 4010;CR 50FM;Alpaste MH 9901;SHORIC;Alpaste WX 7830;SAP 563PS;VI 5 (metal);SAP 630N;Alpaste 8260NAR;AW 808C;SAP 1110W;SS 6246AR;LEPC 2027;JIS 1N99;Sparkle Silver 516AR;Alpaste 60-600;Mirror Glow 600;FZ-T 60b;SS 7000AR;SBT 554RD;Alcan XI 1391;Alpaste 0620MS;Stapa VP 46432G;Stapa Metallux 2196;Alpaste 93-0647;Friend Color F 500WT;Alpaste 710N;Alpaste 7680N;Alpaste 96-2104;Alpaste 7679NS;MH 8803;97-4071RE;350F;Stapa Metallic R 607;Silverline SSP 353;Alpaste FX 910;350D;102B;Alpaste MC 666;VTS 0115;PAP 1 (metal);Alpaste WXM 7675;Alpaste WD 500;Alpaste 92-0592;Alpaste 1260MS;EPC 8E297;EPC 8E340;LE 2993AR;Aquasilver LPW;AC 5000 (metal);Metalure L 55350;AIH 30H-0;Friend Color F 500GR-W;CR 9800RM;HR 808;CR 51GM;AW 600;13T;PCF 7601;Metalure;Metalure (metal);Alpaste HR 8801;Alpaste 725N;Al-At 500F;SAP-FM 4010;Serumekku;Sparkle Silver 5745;Tufflake 3645;SSP 554;Chromal IV;AB 1003;Friend Color F 701RE-W;Alpaste 91-0562;Alpaste WXM-U 75C;SSP 3622;C.I. Pigment Metal 1;Hydro Paste 8726;Alpaste S;Alpaste G;Alpaste WXM-U 75;Decomet 1001/10;Metalure 55350;HR 51;Special PCR 507;PCR 507;Alpaste 50-63;VD 20;Metasheen KM 100;Stapa Metallux 1050;SP-FM 4000;SP-FM 8000;Metallux 161;Sparkle Silver SS 5242AR;Sparkle Silver L 1526AR;Alpaste WXM-T 60B;Alpaste 1100MA;Alpaste 97-0510;Metax;Sparkle Silver 3641;Alpaste 2172EA;Alumipaste MH 8801;SAP 620N;Alpaste 5640NS;8011A;TCR 3040;7640NS;Superfine P 7;Atomizalumi VA 200;Alpaste 7670NS;YP 580;Alpaste 0900M;Alpaste WXM 5422;Alpaste WXM 1440;102C;SAP-SL 440;SAP-VD 20;SBC 516-20Z;1100P-H18;MG 21;MG 21 (metal);Alpaste 7580NS;Alpaste 97-0534;Alpaste 1109MC;Alpaste WJP-U 75C;Alpaste MH 8801;Alpaste WXM 1415;Alpaste 1950N;ALC Fine;Toyo Aluminum 93-3040;Alpaste UF 500;Alpaste 740NS;Alpaste AW 9800;Alpaste 54-497;APV (metal);ZB 1-0 (metal);ZB 1-0;Alpaste 95-0570;Metasheen Slurry KM 100;GX 50A;VA 2000;725EA;Alpaste AW 520B;RP 40;Friend Color F 700RE-W;Alpaste FZU 40C;Alpaste 65-388;BL 2060;Stapa Offset 3000;Alpaste 0780M;Alpaste 4-621;Alpaste WXM 760b;Alpaste P 0100;Alpaste MG 01;Alpaste TCR 3130;ME 12;M 801;Stapa Hydrolux 2192;M 801 (metal);AL-AT 250;Alpaste TCR 3010;Aluchrome Ultrafin Super;Silver VT 522;AC 1000 (metal);Almi-Paste SSP 303AR;TCR 3010;Alpaste 4919;Alpaste 0539X;O 100T;Alpaste 96-0635;P 09000;Alpaste 5654NS;5422NS;WXMO 630;Alpaste TCR 2060;Alpaste 0100MA;RCF 7620;PCF 7640;PCF 1401;PCF 1440A;0670TS;Al 050P-H24;Alpaste WXM 0660;Pacal 21;804NL;Sparkle Silver SS 5588;550N;SL 800 (metal);SL 800;AXX 1005;LG 100;Astroshine NJ 1600;Alpaste J;Siberline ST 21030E1;Siberline ET 2025;WJP-U 75C;ST 21030E1;ET 2025;Metalure W 2001;Alumipaste HR 7000;Alumipaste CR 300;HR 7000;CR 300;Alumipaste HR 850;KM 100;HR 850;A 1H5;Aquamet NPW 2900;Alpaste 1200T;FM 4010WG;LG-H Silver 25;Metax S;MH 6601;MH 8805;ALE 11PB;ALE 06PB;Hydrolux Reflexal 100;1440YL;Alpaste 62-356;VA 350;Alpaste SCR 5070;Alpaste 0625TS;H 5 (metal);H 5;H 30;A 36;7680NS;P 1950;PU 100;A 36 (metal);PU 100 (metal);Sparkle Silver E 1745AR;PCF 200AG;PCR 214F;PCF 76200;Metasheen Slurry 1807;Metasheen Slurry 1811;MJ 450;Alumipaste GX 180A;E 30B;Al 050P;Leafing Alpaste;LE Sheet 800;Alpaste 54-542;5207N;Eterna Brite Primier 251PA;561SW;APV;Aluminum Flake PCF 7620;PCF 7620;VA 500;PD 7620;AA 15 (metal);AL 885-20;P 1100 (metal);P 1100;Stapa Hydrolac W 60NL;Alpaste 94-2315;Metax G;ACG 3/8;E 173;Alpaste MC 707;SAP 260N;White Silver 7080N;Alpaste 1100N;7160nl-NW;PP 770;PP 1380;Alpaste NS 7670;Stapa Metallux 211;Alpaste F 795;Alumipaste MG 11;Alpaste O 2130;Alumipaste GX 201A;Aluminum powder 02-0005;Toyo Aluminum 02-0005;Metallux 2154;Aloxal 3010;Sparkle Silver 7000AR;0100MSR;MS 650;FM 7680;Metalure L 59510;AL 46;Alpaste P 1950;MS 650 (metal);DF-L 520AR;5502SW;130W;1110W;91-2343T;Alpaste 5620NS;7000AR;SAP 510;Alpaste 210N;AL 101;Ferro FX 53-038;Alpaste 7670M;Alpaste 7160NS;NPW 3200;Stapa IL Hydrolan 2192-55900G;SKAl 1;AM 1501;Sparkle Silver SSP 132AR;Alpaste FZ 0534;Alpaste MH 6601;Alpaste SAP 414P;Mirrorsheen;PAV 1;SAP 616FP;PAV 1 (metal);900M;Alpaste 00-0506;Eckart 214;Eckart 218;Eckart 9155;Alpaste TCR 3040;Alpaste TCR 3030;Alpaste 56-501;Alpaste SAP 550N;Alpaste TD 200T;Alumi-paste 640NS;Alpaste 640NS;T 500D;Super Fine 22000;Alex;Silvex 793-20C;BK 610081;A 3303H;Alpaste 6340NS;Alpaste 50-635;723BS150;66NLB;Alpaste 5207N;Alpaste 0230M;Sparkle Silver 5000AR;Alpaste 5422NS;Hydroshine WS 1001;Starbrite 2100;Alpaste TCR 2020;SAP 260PW-HS;FLQT 3;Sparkle Silver 5242AR;PAK 3;A 1050-0;High Print 60T;HIS-SP M 0;5501N;Decomet High Gloss Al 1002/10;SSP 760-20C;Alcan 5754;Alpaste 6390NS;SAP 550N;Alpaste 51-148B;Metasheen 1800;ALE 02PB;Eterna Brite EBP 251PA;Alpaste 6370NS;Alpaste MS 630;TCR 2060;BAI 10;210EA;FM 6500;5654NS;Metasheen HR 0800;PCF 7130;ED 402H;GX 180A;Stapa Hydrolac WH 66NL;20M2S;20B2C-M;6050T5;930W;Metapor;Alumipaste 91-0562;SAP 2172;Alpaste WXM 7640;Sparkle Silver Premier 751;Decomet 2018/10;Scotchcal 7755SE;Alpaste 5680NS;Metasheen KM 1000;KM 1000;Hydrolan 3560;8F02A;Offset FM 4500;Stapa Metallux 274;Reflexal 145;GX 3100;0870MSO;Valimet H 2;Alumat 1600;HR 0800;Alpaste 93-0595;Alpaste TCR 2070;Alpaste 5205N;Alpaste 5301N;Alpaste 5302N;Alpaste 5653NS;Alpaste 5630NS;Alpaste 5650NS;Alpaste 7675NS;Alpaste 7830N;Lunar Al-V 95;Alpaste FM 7680K;Alpaste 5680N;Alpaste 100M;VA 185;Sparkle Silver 960-25E1;ACG 1/2;Puratronic;MR 9800;Astroshine T 8990;T 8990;Alpaste FX 440;ADS 1;Alpaste AW 612;Alpaste WXA 7640;Hydrolac WHH 2153;Alumet H 30;Metallux 2192;K 250 (metal);MEP 027;SAP-CS 430;K 250;Splendal 6001BG;AW 620;Alumipaste AW 620;Alpaste 0100M-C;Alpaste 0638-70C;MB 02 (metal);MB 02;TD 280T;Stapa Metallic 501;Stapa Metallux 214;Alpaste WXM 0620;Stapa Metallux 3560;Stapa Metallux 3540;Silver Paste EO;Metasheen 70-0010;Metasheen Slurry 70-0010;Sliontec 8060;Stapa 88;HTA Foil;HA Foil;Metasheen Slurry 71-0010;G-At;Metallux 212;Silverline SS 3334AR;CR 9901;Decomet Hochglanz Al 1002/10;Decomet 1002/10;Aloxal PM 2010;Mirato TF 4679;A 1H03P02;Sparkle Silver 6246AR;SSP 504AR;TSB 2180A;ALBO 615;Supahoiru;Alpaste FZ 5650;Alpaste FZ 5680;Decomet 1008/10;Aluminum Paste 5502N;5502N;Dibond White;Metasheen VMP Slurry;SGO;YP 2000N;Standart Chromal I;Standart Chromal XV;Astroflake;Chromal XV;Chromal I;EFK 501;Silvet 440-30E1;Pigment Metal 1;AA196;Sparkle Silvex 440-15D;PV 381;Aquasilver LPW 980;Aquasilver LPW 21500;Stapa 40;Altop 18TH;Alpaste 1100TA;Asahi 0-2100;Maihoiru;770SW;AlN 30H0;1N99;AP 8070;Stapa Hydrolan 2192;HD 14;2024PLT0;Astroshine N 8980;4690NS;Stapa Metallux 200;Silberline 4102;Stapa Hydrolux 400;Alpaste 96-0620;Silvershine S 2100;Metalure A 41010BG;Stapa Metallux R 272;Stapa Metallux R 274;Toyo Alpaste TCR 6130;Alpaste TCR 6130;Aquamet CP 3100/60;Aquamet CP 3200/60;Aquamet CP 3400/60;Stapa Metallux 3580;WJE 7640;Sparkle Silver Ultra 6555;Stapa Metallux 2156;Stapa Hydrolux 600;Stapa Hydrolan 701;7160N;Ferro 5540;Alpaste 98-1822T;Alpaste TD 180E;Alumipaste 4919;Almesh 0.1Al0.15M10;AL 013323;Alanod 9040GP;SAP 5502SW;SAP-CS 430SW;SAP-CS 460SW;SAP-FM 4010SW;Constant 1500;VA 235;205N;Hydrolan 9154;MH-Al 50;TD 180T;Stapa Metallux 612R672;Stapa Metallux 9157R9757;Stapa 2100;GX 5060;Alumipaste 0231E-N;APZh;Diamond Piece H 25 Silver;Diamond Piece H 540 silver;BP 6360;SAP-CS 420;Eckart 3540;Alpaste 7220NS;RGM 278;Stapa Metallux 770CC;Metasheen 41-0010;BF 20;ZC 909;ZC 906;ZC 904;BF 20 (metal);Algon 500;9Z1351;Alpaste 1440YL;Stapa Hydroxal WH 8;Alumipaste GX 180;Hydrolac BGH-CHROM;A 370;Alpaste 7100;Micro-TRI-gloss;Metalure A 41010AE;Hydrolan 9165;Metasheen 71-0010;Nippakuhoiru 30;Stapa Hydrolan 2100;E-Foil;Alpaste 7670;NJ 80;A 4045P;Starbrite 4102;Sparkle Silver Premium 695;Sparkle Silver 3622;Alu Chromal VIII;Alpaste FM 1415;Chromal XI;ZX 8130;Stapa 2 Leafing;Stapa Hydrolux 3590;AC 5000;Alpaste 5690N;A 8079;SAP-CS 460;Labo Foil;BP 6340;Stapa Hydrolan 2152;Stapa Hydrolan 2193;6320NS;4660NS;634A;Aluminum Paste 634A;Metasheen 91-0410;Stapa Metallux 8154;Metalure W 52012IL;GX 3160;AL 013466;PAP 2;Daiho 3003;PAP 2 (pigment);PCU 3500;3003H26;Stapa Hydrolan 9157;Hydrolan 9157;ALE 16PB;Lami-Zip AL-D;SSP 695;AT 206;AT 206 (metal);Stapa 30;TRP-SAP;Rotovario 500022;Rotovario 500-022;Aluminium Paste 13H;Aluminium Paste 18TH;Bespa 8021;Hydrolan 212;Atomized Aluminum Powder 150;Atomized Aluminum Powder 300A;SX 5301;SX 5302;ACA 425OE;Tufflake 3620;Rotovario 506-903 Silver;FLQT 4;Metasheen 41-0710;6016T4;AW 9800;S 430YC;RX 8204;20CB;CS 430YC;Standart Aluminum Powder PCR 901;C 208 (metal);SAP-CS 450;SAP-CS 561PS;Metalure A 41010PM;Ferro 33-612;C 208;AMX 0217;Alumipaste GX 50A;Alpaste 5690NS;GX 40A;GX 180C;Metax Neo NME 005N1;Stapa Metallic 801;SI-T 19BDL;AIN 30H-H30RT;Stamford A 1;Eterna Brite Premier 351;FAIN 350;FLQG 2;FAIN 80;FLQG 3;FAIN 250;FLQG 0;FAIN 450;FLQG 4;Ireflex 5000 White;Emeral EMR 5660;Emeral D 125;Rotovario Aqua 610-015;5660FZ;Aluminum Paste 5680NS;Alpaste 6360NS;Aluminum Paste 1700NL;Aluminum Paste 1100M;Aluminum Paste 6360NS;GX 3119;6390NS;Stapa Hydrolan IL 161;L 11669;3500X90PA;A 1 Powder;M 9-30MS;SAP 2173SW;SAP 576PS;SAP-LB 588;AL 1041;AR 1001;Stapa 770cc;AL 013253;Eckart PC 1006;Standart PC 200;Standart PC 100;Standart PC 150;PC 100 (pigment);PC 100;PC 200 (pigment);PC 200;PC 150;PC 1006;Ciba 1803;Ciba 0803;Ciba 0807;Standart PCR 214;Standart PCU 3500;PCR 212;Aquasil BP 205;PCN 140;Standart PCU 5000;Standart PCR 212;PCR 214;PCU 5000;DK 102;4AL8-4/0;Alumipaste HR 40A;HR 40A;Alumipaste GX 40A;Stapa 777nj;1000F;8011H;SBCAQE 2154F2X;SBCAQE 2169F3X;SBCAQE 354F3X;SBCAQ 3130F1X;EMR-D 6390;Hydrolan 501;PV 35A;Alumipaste A 2;Metax Neo N 1;Metax Neo N 9;Metax Neo T 51;Metax Neo T 1;Powdal 340;LT 04;HT 06;WXM 630;Cromax Pro WB 1032;Stapa Hydrolan 8154;S 750;SKT 20;SKT 35;SKT 57;SKT 75;GX 2807;GX 2550;FX 1504;FX 1604;37A;AL 013351;MEP 105;LX 6216;Alpaste 1109M;30CB;AL 110H14;1200N;0803M;Alpaste WXM 1160;Alpaste WL 7678;SPL 100;W 301;W 301 (metal);SSU 6605;E 2154;SSU 6704;Sparkle Silver ST 790-20P;Sparkle Silver 960-30E1;Stapa Hydrolan 214;Stapa Hydrolan 2145;WXM 7640;I 80007;SK-A;Asahi 13H;GX 3109;40CB;104HD6B;40CB (aluminum);Stapa Hydrolac W Chromal X;Alpaste EMRD 5660;400SI;Rotosafe Aqua 250-003;Rotosafe Aqua 250-042;Aluminum 15;800F;900F;Metax Neo NME 020T2;FW 610;NME 060T4;TR 5060;574EA;500F;600F;700F;Aluminum Paste GX 40A;A 3003PH16;Showa Aluminum 2173;Toyo Aluminum 08-0076;Silvet 960-25E;Hydrolan 3590;Alsolar;Du Pont 17A;0700M;1100M;CE 160;P 21N;Alumipaste FD 4070;Decomet 1002;Alpaste 1165;Alpaste 8130N-AR;Alpaste MG 1100;Stapa Alupor SK I-NE 70;Stapa Metallux 1071;20C054;AA 1060H24;Aluminum Celmet;FLT 2;Silberline 730-15C;XH 330;Silvex 883-20C;AL-XJP 180AT;AL-XJP 3S;AL-XJP 517;AL-XJP 01;ZX 01T;AL 7640NS;AL 7680NS;Powdal 170XB;500D;Alumipaste 7768N;Metasheen 91-0010;WS 1011;S 1100;Metasheen 41-0410;A-AL01;A-AL02;A-AL03;TC 2060;Silvershine S 1500;Metalure A 31510;Metallux 2156;Starbrite 5102EAC;Metalure A 31017AE;AL 000645;AL 000637;5052A;Aluminum Paste 6255;Alpaste 010651;Alucar 2650;WAG 69110;PCR 801;Granal S 180;Granal S 40;YM 2065;GX 4100;W 103;JNW 313;W 9314;X65;PM/PMH 8;N 110;XY 136;XY 1128;XY 9105;FD 5060;Alumipaste BS 120;MC 808;GA 40A;BS 800;BS 120;JCS 2P5;BK 600;Stapa Hydrolux VP 56450;ZA 9680;ZX 2128;ZGP 06;ZGP 011;ZGP 013;K 9600;K 9800;L 558;L 540 (aluminum);L 5033;L 5066;K 913;AP 4166;AP 4315;AP 1799;Stapa 212;Stapa 214;88NL;PM 1170;PM 2900;TX 7615;TX 7114;E 5500;E 504;K 9600 (aluminum);E 504 (aluminum);WS 4001;260EA;Stapa Alupor RO 500;Alupor RO 500;Alpaste 54-111;Alpaste 1900S;WXM-U 75C;M 200BP;M 350BP;M 050AP;Alex L;ZX 1066;ZXS 116;ZXS 115;AL 12;Eterna Brite 651PA;Sparkle Brite 011NL-PA;Star Brite 4102PA;Stapa Metallux 2192;Starbrite 4102PA;Stapa Hydrolux 200;Stapa Hydrolux 1071;PAD 6;Goldhorse FO 103;Goldhorse JM 607;Decomet 2008;Decomet 3508;Decomet 4077;NME 020T2;Mex 3580;Mex 3540;Mex 9160;Mex 2156;Mex 2153;Metallic 707;Metallux 9157;PAD 6 (metal);Stapa Metallux 9157;A 2291FG;SKF 10;ZNA 111;IN 30-0;SIP 600;CHAO 110N;Silbead M 350BP;Silbead M 050AP;Silbead M 100BP;M 100BP;Silbead M 200BP;UC 6700;TCR 2062;Decomet High Gloss 2004/10;Arumihaku CE 8079;Boca 915;Wanfeng 8508E;FD 512;Metasheen 41-0310;Decomet 3004/10;E 9906;AL 013517;VP 12359;VP 11329;A 1050;A 1035P;A 6001P;Aluminum Pigment 13G;TFH-A 30P;TFH-A 10P;TFH-A 02P;Jetfluid SB 11028;Sil-O-Wet Premier 014NL-PA;Aquavex AD 015;Metalure A 4150;Metalure A 41506;Metalure A 41510EN;Grandal W 170;Minalco 260S;Minalco 350F;A 1N300;Starbrite 4102EAC;SB 4120PM;MJ 9805;AMr 2H;TFH-A 20P;NDT 62540G;Alpaste 1700ML;Alpaste WXM 5660;25E;K 3303;AIN 30H0;MBY 92100;Ramizip AL 10;Powdal 3100;Metabrite A 9-15MO;Benda-Lutz 6282;Ultrastar GX 2807;Ultrastar FX 1604;Ultrastar GX 2561;Alpaste 2172;Alpaste F-Z 7610;Stapa IL Hydrolan VP 57510G;Benda-Lutz Leafing 1081;Benda-Lutz 2081;Benda-Lutz 7080;WS 220;Alpaste 0870MS;PCU 2000;JIS5N01;Metco 54NS1;A 1100P;Alsolar 14-7021;Silbead M 050AL;Silbead M 200BL;PE 2001;Tafa 01T;Eckart PCR 100;PCR 100;TD 120T;Stapa IL Hydrolan 2145;6360N5;Metalure A 61006;ZX 8081;HS 9007;ZX 1755;HW 611S;HS 9006;8079P;W 3570;Ceramic SR-RE 4 Silver;Al 350;Superfine 18000;RUX 28K30;L 206;LACS Base 025;LACS Base 002;MS 750;Lami-Zip AL-E;Metallux 2194;Toyal Tecfiller TFS-A 08F;GT Color SM Silver;GX 3110;GX 3050;890-30E1;Alpaste Emeral EMR-B 5690;WS 240;WF 912;WF 918;WS 230;PE 2101DSS;CY 2030;JCS 110;5322NS;1N30H;Ecka 25E;M 1020;A 5052P-K;UG 8495;5N-H;Stapa IL Hydrolan 801-5590G;Decomet 1050/10;MP 34-20C;Hydromic ZP 10818;Hydromic ZP 10816;LH-S 8057;DMR-D 5660;ABY 6Y150;Emeral EMR-D 5650;PV-H 2100;Sparkle Silver Ultra 6704;Silver Ultra 6704;TCR 3070A;Stapa IL Hydrolan 214;Stapa IL Hydrolan 2197;Stapa IL Hydrolan 9157;Stapa Hydrolux 2197;88835K14;Metasheen RD 215;XL 8905;L 9000;EQ-CC-Al;DZR 08;XY 110;SST 88030E1;EST 300;BP-Z 485;0870TS;TS 408PM;AL 8021-0;LX-PS 8216;ZL 2510;ZXG 914;LX-PS 9105S;1050A-H14;TFH-A 2P;SBC J 72010;A 3105P;Silbead M 150CL;Silvex 333-20C;Sparkle Silvex 883-20C;5083H26;8011H14;FD 5090;6315NS;A 8021-0;Stapa ZP 10262;Alumipaste 57-441;Alpaste 0100C70;M 70;M 70 (metal);Aquamet CP 2600/60;B 715;Ranafoil E;WZA 5620;TY 6210;T 6063;Starbrite 2100EAC;Standart PCS 900;Standart PCS 600;8NL-S;Luxal 1000AL;13UV;18UV;FZ-EV 120;FZ-EV 170;FZ-EV 190;ZP 7140;FZ-DT 060;Aluminum Shots RSA 400-2N;XH-A 1003;GX 3108;Alpaste 0100M-C70;Alpaste 1200N;Zuxing 2192;TW 8325;WA 9321;WA 9105;WA 9108A;Stapa Hydrolac WH 8154NL;FLX 1;AAL 10SF;Z 4012;SYAPA 15;Stapa HCP 6100;MIJ-F 406PM;RD 18-3553;Alpaste Emeral EMR-D 5660H;Stapa WM Chromal V/S 80;A 09;PA 1;ADC 6000;Alpaste 2172YC;LX 200SH;LX 998;SB 4102PM;Stapa 4nl;0215M;Silvet 220-20E;BGD 2324;Sumikari 8079-0;WXM 0630;Metasheen 11-0010;Alpaste GX 3100;M 34-20B;M 16-20B;Toyal TecFiller TFH-A 10P;Toyal TecFiller TFH-A 05P;TFH-A 05P;WXM 7675;L 008;Metaface 2150;FLX 4;Silvet 760-20E;Silvet 430-30E1;Silverdream Lunaris;Metalure A 4010AE;Boron 5-20, copper 10-30, gallium 0-15, iron 20-40, manganese 0-8, silicon 20-40, zinc 0-8, aluminum bal.;Grandal 170;CP 525;MG-Al 50;Stapa Hydrolan 801;Stapa UCP 150;ZW 1066;WH 8005;Silvet 880-30E1;Silvet 790-20E;J 011;Miral 80000/A;SFR 1000 (metal);SFR 1500;HZ 7716;54-20C;SFR 1000;APS 11;AQ 36;TFP 013-30E1;TFP 032-30E1;SVT 460-30E1;SS 960-30E1;MP 74-20C;FLG 1;Jetfluid WS 21001;ZGL 950;Alpaste Emeral EMR-D 4670;SP 1004 (aluminum);SP 1004;Eckart 407;Stapa HP-Z 2505;WP 030;WP 052;Z 440;Aluminum Paste 630N;Alpaste 07-0674;Metapor HD 210AL;TCP 9;TCP 2 (aluminum);TCP 2;HT 660;FD 512H;SB 10 (aluminum);PVH 5060;SB 10;TT 77;Stapa Metallux R 9760;Toyo Aluminum 8021;WXM 5660;Toyal 201;Z 465 (aluminum);Z 510 (aluminum);Z 465;Z 510;Stapa 9757;AQE 666F2X;TCR 2020;CP 310 (aluminum);CP 310 (from Asahi Kasei);SBCJ 72010;WJM 7640;SFR 800;SFR 500;SFR 1300;ZW 9090;FD 5090D50;TS 710PM;6270N;SC 10062;SR 7008;634A-V;JCS 8308;XYC 710;Stapa Metallux 2153;Alpaste 06-0672N;Aluminum Paste 06-0672N;Aluminium Paste 65-388NN;Aluminium Paste 93-0647;Aluminium Paste 3200;ZP 15-20C;ZP 19-20C;WM 2025;WL-Z 465;W 500 (aluminum);W 500;A 3004PH32;3005H19;MG 1000;Alumipaste SB 10;1235-H 18;BL 2051;BL 64068;Toyal EMRS-D 710;EN AW 6060T66;Eckart 09-20B;IKA-AK 2150;WT 311;WT 313;MP 100-20B;Emeral EMR-D 5660H;SH 99;Boka 969;MJS 1000;TY-X 2-8021;Sparkle Silver Ultra 7908;TH 5390;217AF;ZLG 880;Jetfluid WB 21001;Jetfluid WB 20001;Jetfluid SB 11031;MK 255;MK 235;XYC 718;Compal 4812K;Eckart 1405L;Eckart S 804;Eckart 1205L;Hydrolan 235;PC 200 (metal);WF 969;ZGL 880;CF 190N;MeSH ID: D000535;ToyalShine TS 408PM;ToyalShine TS 710PM;Benda-Lutz 2041;Aluminum paste CS 460;Siltallux 8640;VP 68680G-IL;Toyal 93-0532;ZL 8000;ZF 5003A;ZF 6103;Silvet 210-30E1;Silvex 210-20C;Silvet 960-30E1;Silvet 437-30E1;Sparkle Silvet 300-10E1;Sparkle Silvet 600-10E1;Eckart XV;Eckart PC 200;EMR-D-B 210;Mastersafe MP 16-20B;HA 0513;6060T66;ZW 1305;ZW 2214;LT 13209;Stapa HP-Z 1105IL;EMR-D 4670;JZGR 202F;6340NS;HexWeb CR-III 5052;Alpaste 93-0467;Sparkle Silver Premier 353;TZ 562J;TZ 930647J;LX 7900A;CE 100 (aluminum);SFB 9070;CE 100;Mastersafe MP 35-20B;Stapa PP Reflexal 1032-80;STAPA PP REFLEXAL 1032-80;Aluminum Paste WJP-T 95F;TR 4070;TR 508H;TR 2130;HR 50A;HR 21;HR 800 (aluminum);HR 800;Alpaste WL-Z 440;WL-Z 440;N 8021;SBC-AQJ 6911;Arumitantai 50 PAT18EA;Silbercote AQ J 6811B5B;Z 0684N;Stapa Hydrolan S 418;XC 005",
    "duplicated_cas_no": "12766-45-9;37202-64-5;39302-71-1;39332-62-2;80341-19-1;91728-14-2;113962-66-6;121630-48-6;182260-45-3;185464-37-3;257888-99-6;298688-47-8;349608-51-1;477951-22-7;934749-46-9;1107613-92-2;1107614-02-7;1374563-19-5;1374563-22-0;1621997-91-8;1799386-26-7;1826890-06-5;1946759-18-7;2014335-16-9;2247261-17-0;2247261-42-1;2247261-50-1;2250318-40-0;2412445-90-8;2701539-61-7;2758176-71-3;2826961-24-2;2826961-66-2;2832056-54-7;2923573-53-7;2923573-54-8;2923573-55-9;2924823-56-1;3037905-30-6;3037905-31-7",
    "SMILES": "[Al]",
    "meta_data": {
        "InChI": "InChI=1S/Al",
        "InChIKey": null,
        "Canonical SMILES": "[Al]",
        "Molecular Formula": "Al",
        "Molecular Mass": "",
        "Boiling Point": "2327 °C",
        "Melting Point": "660 °C",
        "Density": "2.70 g/cm³"
    }
}