{
    "cas_no": "13939-69-0",
    "key_name": "1-Piperidinecarbonyl chloride",
    "cn_name": "1-哌啶酰氯;",
    "alternate_name": "1-Piperidinecarbonyl chloride;Piperidinocarbonyl chloride;Piperidine, 1-(chlorocarbonyl)-;<em>N</em>-(Chlorocarbonyl)piperidine;1-(Chlorocarbonyl)piperidine;<em>N</em>-Chloroformylpiperidine;1-(Chloroformyl)piperidine;NSC 50227",
    "duplicated_cas_no": "",
    "SMILES": "C(Cl)(=O)N1CCCCC1",
    "meta_data": {
        "InChI": "InChI=1S/C6H10ClNO/c7-6(9)8-4-2-1-3-5-8/h1-5H2",
        "InChIKey": null,
        "Canonical SMILES": "O=C(Cl)N1CCCCC1",
        "Molecular Formula": "C<sub>6</sub>H<sub>10</sub>ClNO",
        "Molecular Mass": "147.60",
        "Boiling Point": "120-125 °C @ Press: 31 Torr"
    }
}