{
    "cas_no": "14024-63-6",
    "key_name": "Zinc acetylacetonate",
    "cn_name": "乙酰丙酮锌;",
    "alternate_name": "Zinc, bis(2,4-pentanedionato-κ<em>O</em><sup>2</sup>,κ<em>O</em><sup>4</sup>)-, (<em>T</em>-4)-;Zinc, bis(2,4-pentanedionato)-;Zinc, bis(2,4-pentanedionato-<em>O</em>,<em>O</em>′)-, (<em>T</em>-4)-;Zinc, bis(2,4-pentanedionato-κ<em>O</em>,κ<em>O</em>′)-, (<em>T</em>-4)-;(<em>T</em>-4)-Bis(2,4-pentanedionato-κ<em>O</em><sup>2</sup>,κ<em>O</em><sup>4</sup>)zinc;Zinc acetylacetonate;Zinc bis(acetylacetonate);Zinc bis(acetylacetone);Bis(2,4-pentanedionato)zinc;Zinc acetoacetonate;Bis(acetylacetonato)zinc;Zinc acetylacetone chelate;Zinc(II) acetylacetonate;Zinc bis(2,4-pentanedionate);Zinc diacetoacetate;Bis(pentanedionato)zinc;Nacem Zinc;NSC 18472;Aldrich 48,099-1;Tegokat 623;X 1301;Z 0002",
    "duplicated_cas_no": "12276-11-8;1647807-33-7;2762068-17-5",
    "SMILES": "CC1=O[Zn+2]2(O=C(C)[CH-]C(C)=O2)O=C(C)[CH-]1",
    "meta_data": {
        "InChI": "InChI=1S/2C5H7O2.Zn/c2*1-4(6)3-5(2)7;/h2*3H,1-2H3;/q2*-1;+2",
        "InChIKey": null,
        "Canonical SMILES": "O1=C([CH-]C(=O[Zn+2]12O=C([CH-]C(=O2)C)C)C)C",
        "Molecular Formula": "C<sub>10</sub>H<sub>14</sub>O<sub>4</sub>Zn",
        "Molecular Mass": "",
        "Melting Point": "127 °C"
    }
}