{
    "cas_no": "4823-47-6",
    "key_name": "2-Bromoethyl acrylate",
    "cn_name": "2-溴乙基丙烯酸酯;2-溴乙基丙烯酸酯;",
    "alternate_name": "2-Propenoic acid, 2-bromoethyl ester;Acrylic acid, 2-bromoethyl ester;Ethanol, 2-bromo-, acrylate;2-Bromoethyl acrylate;NSC 18591;2-Bromoethyl prop-2-enoate",
    "duplicated_cas_no": "147075-17-0",
    "SMILES": "C(OCCBr)(C=C)=O",
    "meta_data": {
        "InChI": "InChI=1S/C5H7BrO2/c1-2-5(7)8-4-3-6/h2H,1,3-4H2",
        "InChIKey": null,
        "Canonical SMILES": "O=C(OCCBr)C=C",
        "Molecular Formula": "C<sub>5</sub>H<sub>7</sub>BrO<sub>2</sub>",
        "Molecular Mass": "179.01",
        "Boiling Point": "53 °C @ Press: 5.0 Torr",
        "Melting Point": "41-43 °C",
        "Density": "1.4774 g/cm³ @ Temp: 20 °C"
    }
}