{
    "cas_no": "627-76-9",
    "key_name": "2-Aminopimelic acid",
    "cn_name": "DL-2-氨基庚二酸;(±)-2-氨基庚二酸;α-氨基庚二酸;",
    "alternate_name": "Heptanedioic acid, 2-amino-;Heptanedioic acid, 2-amino-, <span class=\"text-smallcaps\">DL</span>-;Heptanedioic acid, 2-amino-, (±)-;2-Aminoheptanedioic acid;<span class=\"text-smallcaps\">DL</span>-α-Aminopimelic acid;<span class=\"text-smallcaps\">DL</span>-2-Aminopimelic acid;(±)-2-Aminoheptanedioic acid;α-Aminopimelic acid;2-Aminopimelic acid;<span class=\"text-smallcaps\">DL</span>-2-Aminoheptanedioic acid;NSC 402480",
    "duplicated_cas_no": "3721-85-5",
    "SMILES": "C(CCCC(O)=O)C(C(O)=O)N",
    "meta_data": {
        "InChI": "InChI=1S/C7H13NO4/c8-5(7(11)12)3-1-2-4-6(9)10/h5H,1-4,8H2,(H,9,10)(H,11,12)",
        "InChIKey": null,
        "Canonical SMILES": "O=C(O)CCCCC(N)C(=O)O",
        "Molecular Formula": "C<sub>7</sub>H<sub>13</sub>NO<sub>4</sub>",
        "Molecular Mass": "175.18",
        "Melting Point": "215-216 °C"
    }
}