{
    "cas_no": "938-33-0",
    "key_name": "8-Methoxyquinoline",
    "cn_name": null,
    "alternate_name": "Quinoline, 8-methoxy-;8-Methoxyquinoline",
    "duplicated_cas_no": "",
    "SMILES": "O(C)C=1C2=C(C=CC1)C=CC=N2",
    "meta_data": {
        "InChI": "InChI=1S/C10H9NO/c1-12-9-6-2-4-8-5-3-7-11-10(8)9/h2-7H,1H3",
        "InChIKey": null,
        "Canonical SMILES": "N1=CC=CC2=CC=CC(OC)=C12",
        "Molecular Formula": "C<sub>10</sub>H<sub>9</sub>NO",
        "Molecular Mass": "159.18",
        "Boiling Point": "283 °C",
        "Melting Point": "49.5 °C",
        "Density": "1.012 g/cm³ @ Temp: 20 °C"
    }
}