{
    "cas_no": "41489-76-3",
    "key_name": "Benzoic acid, 5-formyl-2-hydroxy-, methyl ester",
    "cn_name": "5-甲酰基水杨酸甲酯;",
    "alternate_name": "Benzoic acid, 5-formyl-2-hydroxy-, methyl ester;Isophthalaldehydic acid, 6-hydroxy-, methyl ester;Methyl 5-formylsalicylate;Methyl 3-formyl-6-hydroxybenzoate;5-Formyl-2-hydroxybenzoic acid methyl ester;Methyl 5-formyl-2-hydroxybenzoate;Methyl 2-hydroxy-5-formylbenzoate;3-Methoxycarbonyl-4-hydroxybenzaldehyde",
    "duplicated_cas_no": "",
    "SMILES": "C(OC)(=O)C1=CC(C=O)=CC=C1O",
    "meta_data": {
        "InChI": "InChI=1S/C9H8O4/c1-13-9(12)7-4-6(5-10)2-3-8(7)11/h2-5,11H,1H3",
        "InChIKey": null,
        "Canonical SMILES": "O=CC1=CC=C(O)C(=C1)C(=O)OC",
        "Molecular Formula": "C<sub>9</sub>H<sub>8</sub>O<sub>4</sub>",
        "Molecular Mass": "180.16",
        "Melting Point": "66-68 °C"
    }
}