{
    "cas_no": "25327-89-3",
    "key_name": "Tetrabromobisphenol A diallyl ether",
    "cn_name": null,
    "alternate_name": "Benzene, 1,1′-(1-methylethylidene)bis[3,5-dibromo-4-(2-propen-1-yloxy)-;Propane, 2,2-bis[4-(allyloxy)-3,5-dibromophenyl]-;Benzene, 1,1′-(1-methylethylidene)bis[3,5-dibromo-4-(2-propenyloxy)-;1,1′-(1-Methylethylidene)bis[3,5-dibromo-4-(2-propen-1-yloxy)benzene];2,2-Bis(4-allyloxy-3,5-dibromophenyl)propane;2,2-Bis(3,5-dibromo-4-allyloxyphenyl)propane;Tetrabromobisphenol A diallyl ether;1,1′-Isopropylidenebis[4-(allyloxy)-3,5-dibromobenzene];SR 319;Tetrabromobisphenol A bis(allyl ether);Pyroguard SR 319;Tetrabromobisphenol A allyl ether;FG 3200;Flame Cut 122K;BE 51;Fire Guard 3200;TBBPA-DE;1,3-Dibromo-5-[2-(3,5-dibromo-4-prop-2-enoxyphenyl)propan-2-yl]-2-prop-2-enoxybenzene;P 510 (allyl ether);P 510",
    "duplicated_cas_no": "",
    "SMILES": "C(C)(C)(C1=CC(Br)=C(OCC=C)C(Br)=C1)C2=CC(Br)=C(OCC=C)C(Br)=C2",
    "meta_data": {
        "InChI": "InChI=1S/C21H20Br4O2/c1-5-7-26-19-15(22)9-13(10-16(19)23)21(3,4)14-11-17(24)20(18(25)12-14)27-8-6-2/h5-6,9-12H,1-2,7-8H2,3-4H3",
        "InChIKey": null,
        "Canonical SMILES": "BrC=1C=C(C=C(Br)C1OCC=C)C(C2=CC(Br)=C(OCC=C)C(Br)=C2)(C)C",
        "Molecular Formula": "C<sub>21</sub>H<sub>20</sub>Br<sub>4</sub>O<sub>2</sub>",
        "Molecular Mass": "624.00",
        "Melting Point": "118-120 °C"
    }
}