{
    "cas_no": "1099-45-2",
    "key_name": "Ethyl triphenylphosphoranylideneacetate",
    "cn_name": "乙氧甲酰基亚甲基三苯基膦;乙基(三苯基膦)乙酸酯;",
    "alternate_name": "Acetic acid, 2-(triphenylphosphoranylidene)-, ethyl ester;Acetic acid, (triphenylphosphoranylidene)-, ethyl ester;[(Ethoxycarbonyl)methylene]triphenylphosphorane;Ethyl triphenylphosphoranylideneacetate;(Triphenylcarbethoxymethylene)phosphorane;(Carbethoxymethylene)triphenylphosphorane;Carbethoxytriphenylphosphonium methylide;(Carbethoxymethylidene)triphenylphosphorane;(Triphenylphosphoranylidene)acetic acid ethyl ester;(Ethoxycarbonylmethylidene)triphenylphosphorane;(2-Ethoxy-2-oxoethylidene)triphenylphosphorane;NSC 72406;(Triphenylphosphanylidene)acetic acid ethyl ester;(Triphenyl-λ5-phosphanylidene)acetic acid ethyl ester;Ethyl 2-(triphenyl-λ<sup>5</sup>-phosphanylidene)acetate;Ethyl (triphenylphosphanylidene)acetate;Ethyl 2-(triphenylphosphanylidene)acetate;(Carbethoxymethylene)triphenylphosphoran;Triphenylphosphonium ethoxycarbonylmethylide;NSC 167159;Ethyl 2-(triphenylphosphaneylidene)acetate",
    "duplicated_cas_no": "21382-83-2;103603-89-0",
    "SMILES": "P(=CC(OCC)=O)(C1=CC=CC=C1)(C2=CC=CC=C2)C3=CC=CC=C3",
    "meta_data": {
        "InChI": "InChI=1S/C22H21O2P/c1-2-24-22(23)18-25(19-12-6-3-7-13-19,20-14-8-4-9-15-20)21-16-10-5-11-17-21/h3-18H,2H2,1H3",
        "InChIKey": null,
        "Canonical SMILES": "O=C(OCC)C=P(C=1C=CC=CC1)(C=2C=CC=CC2)C=3C=CC=CC3",
        "Molecular Formula": "C<sub>22</sub>H<sub>21</sub>O<sub>2</sub>P",
        "Molecular Mass": "348.37",
        "Melting Point": "123.5-125.5 °C",
        "Density": "1.086 g/cm³"
    }
}