{
    "cas_no": "637-92-3",
    "key_name": "Ethyl <em>tert</em>-butyl ether",
    "cn_name": "乙基叔丁基醚;",
    "alternate_name": "Propane, 2-ethoxy-2-methyl-;Ether, <em>tert</em>-butyl ethyl;2-Ethoxy-2-methylpropane;<em>tert</em>-Butyl ethyl ether;Ethyl <em>tert</em>-butyl oxide;Ethyl 1,1-dimethylethyl ether;1,1-Dimethylethyl ethyl ether;Ethyl <em>tert</em>-butyl ether;NSC 1069",
    "duplicated_cas_no": "",
    "SMILES": "O(C(C)(C)C)CC",
    "meta_data": {
        "InChI": "InChI=1S/C6H14O/c1-5-7-6(2,3)4/h5H2,1-4H3",
        "InChIKey": null,
        "Canonical SMILES": "O(CC)C(C)(C)C",
        "Molecular Formula": "C<sub>6</sub>H<sub>14</sub>O",
        "Molecular Mass": "102.17",
        "Boiling Point": "73.1 °C",
        "Melting Point": "-94 °C",
        "Density": "0.7404 g/cm³ @ Temp: 20 °C"
    }
}