{
    "cas_no": "4414-89-5",
    "key_name": "1<em>H</em>-Pyrrolo[2,3-<em>b</em>]pyridine-3-carbonitrile",
    "cn_name": null,
    "alternate_name": "1<em>H</em>-Pyrrolo[2,3-<em>b</em>]pyridine-3-carbonitrile;3-Cyano-7-azaindole;7-Azaindole-3-carbonitrile",
    "duplicated_cas_no": "",
    "SMILES": "C(#N)C=1C=2C(NC1)=NC=CC2",
    "meta_data": {
        "InChI": "InChI=1S/C8H5N3/c9-4-6-5-11-8-7(6)2-1-3-10-8/h1-3,5H,(H,10,11)",
        "InChIKey": null,
        "Canonical SMILES": "N#CC1=CNC=2N=CC=CC12",
        "Molecular Formula": "C<sub>8</sub>H<sub>5</sub>N<sub>3</sub>",
        "Molecular Mass": "143.15",
        "Melting Point": "262-265 °C"
    }
}