{
    "cas_no": "6673-35-4",
    "key_name": "Practolol",
    "cn_name": "普拉洛尔;",
    "alternate_name": "Acetamide, <em>N</em>-[4-[2-hydroxy-3-[(1-methylethyl)amino]propoxy]phenyl]-;Acetanilide, 4′-[2-hydroxy-3-(isopropylamino)propoxy]-;<em>N</em>-[4-[2-Hydroxy-3-[(1-methylethyl)amino]propoxy]phenyl]acetamide;ICI 50172;Eraldin;Practolol;AY 21011;4′-[2-Hydroxy-3-(isopropylamino)propoxy]acetanilide;1-(4-Acetamidophenoxy)-3-isopropylamino-2-propanol;Dalzic;Teranol;<span class=\"text-smallcaps\">DL</span>-4′-[2-Hydroxy-3-(isopropylamino)propoxy]acetanilide;(±)-Practolol;<em>dl</em>-Practolol;Racemic Practolol;MeSH ID: D011217",
    "duplicated_cas_no": "23313-50-0",
    "SMILES": "O(CC(CNC(C)C)O)C1=CC=C(NC(C)=O)C=C1",
    "meta_data": {
        "InChI": "InChI=1S/C14H22N2O3/c1-10(2)15-8-13(18)9-19-14-6-4-12(5-7-14)16-11(3)17/h4-7,10,13,15,18H,8-9H2,1-3H3,(H,16,17)",
        "InChIKey": null,
        "Canonical SMILES": "O=C(NC1=CC=C(OCC(O)CNC(C)C)C=C1)C",
        "Molecular Formula": "C<sub>14</sub>H<sub>22</sub>N<sub>2</sub>O<sub>3</sub>",
        "Molecular Mass": "266.34",
        "Melting Point": "134-136 °C"
    }
}