{
    "cas_no": "6131-90-4",
    "key_name": "Sodium acetate trihydrate",
    "cn_name": null,
    "alternate_name": "Acetic acid, sodium salt, hydrate (1:1:3);Acetic acid, sodium salt, trihydrate;Sodium acetate trihydrate",
    "duplicated_cas_no": "",
    "SMILES": "C(C)(O)=O.[Na].O",
    "meta_data": {
        "InChI": "InChI=1S/C2H4O2.Na.3H2O/c1-2(3)4;;;;/h1H3,(H,3,4);;3*1H2",
        "InChIKey": null,
        "Canonical SMILES": "[Na].O=C(O)C.O",
        "Molecular Formula": "C<sub>2</sub>H<sub>4</sub>O<sub>2</sub>.3H<sub>2</sub>O.Na",
        "Molecular Mass": "",
        "Melting Point": "57.9 °C",
        "Density": "1.45 g/cm³"
    }
}