{
    "cas_no": "39637-74-6",
    "key_name": "(-)-Camphanoyl chloride",
    "cn_name": "(-)-(1S,4R)-坎烷酰氯;(1S)-(-)-莰烷酰氯;;(1S)-3-氧代-4,7,7-三甲基-2-氧杂双环[2.2.1]庚烷-1-甲酰氯;",
    "alternate_name": "2-Oxabicyclo[2.2.1]heptane-1-carbonyl chloride, 4,7,7-trimethyl-3-oxo-, (1<em>S</em>,4<em>R</em>)-;2-Oxabicyclo[2.2.1]heptane-1-carbonyl chloride, 4,7,7-trimethyl-3-oxo-, (1<em>S</em>)-;(1<em>S</em>,4<em>R</em>)-4,7,7-Trimethyl-3-oxo-2-oxabicyclo[2.2.1]heptane-1-carbonyl chloride;Camphanoyl chloride;(-)-Camphanoyl chloride;Camphanic acid chloride;(1<em>S</em>,4<em>R</em>)-ω-Camphanoyl chloride;(-)-Camphanic acid chloride;(1<em>S</em>)-(-)-Camphanoyl chloride;(1<em>S</em>)-(-)-Camphanic chloride;(1<em>S</em>)-(-)-Camphanic acid chloride;(-)-Camphanic chloride;(1<em>S</em>,4<em>R</em>)-(-)-Camphanic acid chloride;(1S)-(-)-Camphanoyl chloride;(-)-(<em>S</em>)-Camphanyl chloride;(1<em>S</em>)-(-)-ω-Camphanic chloride;(-)-(1<em>S</em>,4<em>R</em>)-Camphanoyl chloride;(<em>S</em>)-Camphanoyl chloride;(-)-(1<em>S</em>)-Camphanoyl chloride;(<em>S</em>)-Camphanic acid chloride;(1<em>S</em>)-Camphanoyl chloride;(-)-Camphanyl chloride;(1<em>S</em>)-(-)-Camphanyl chloride",
    "duplicated_cas_no": "67375-29-5;93800-81-8;1217525-51-3;1272760-13-0;1290628-11-3;1404505-16-3;2117726-30-2;2166331-97-9;2925657-21-0",
    "SMILES": "C(Cl)(=O)[C@]12C(C)(C)[C@](C)(C(=O)O1)CC2",
    "meta_data": {
        "InChI": "InChI=1S/C10H13ClO3/c1-8(2)9(3)4-5-10(8,6(11)12)14-7(9)13/h4-5H2,1-3H3/t9-,10+/m0/s1",
        "InChIKey": null,
        "Canonical SMILES": "O=C(Cl)C12OC(=O)C(C)(CC1)C2(C)C",
        "Molecular Formula": "C<sub>10</sub>H<sub>13</sub>ClO<sub>3</sub>",
        "Molecular Mass": "216.66",
        "Melting Point": "70-71 °C"
    }
}