{
    "cas_no": "108149-63-9",
    "key_name": "1,1-Dimethylethyl (4<em>R</em>)-4-hydroxymethyl-2,2-dimethyloxazolidine-3-carboxylate",
    "cn_name": null,
    "alternate_name": "3-Oxazolidinecarboxylic acid, 4-(hydroxymethyl)-2,2-dimethyl-, 1,1-dimethylethyl ester, (4<em>R</em>)-;3-Oxazolidinecarboxylic acid, 4-(hydroxymethyl)-2,2-dimethyl-, 1,1-dimethylethyl ester, (<em>R</em>)-;(<em>R</em>)-4-Hydroxymethyl-2,2-dimethyloxazolidine-3-carboxylic acid tert-butyl ester;1,1-Dimethylethyl (4<em>R</em>)-4-hydroxymethyl-2,2-dimethyloxazolidine-3-carboxylate;(R)-4-Hydroxymethyl-2,2-dimethyloxazolidine-3-carboxylic acid tert-butyl ester;(R)-<em>tert</em>-Butyl4-(hydroxymethyl)-2,2-dimethyloxazolidine-3-carboxylate",
    "duplicated_cas_no": "",
    "SMILES": "C(OC(C)(C)C)(=O)N1[C@H](CO)COC1(C)C",
    "meta_data": {
        "InChI": "InChI=1S/C11H21NO4/c1-10(2,3)16-9(14)12-8(6-13)7-15-11(12,4)5/h8,13H,6-7H2,1-5H3/t8-/m1/s1",
        "InChIKey": null,
        "Canonical SMILES": "O=C(OC(C)(C)C)N1C(CO)COC1(C)C",
        "Molecular Formula": "C<sub>11</sub>H<sub>21</sub>NO<sub>4</sub>",
        "Molecular Mass": "231.29",
        "Melting Point": "35-38 °C"
    }
}