{
    "cas_no": "4466-24-4",
    "key_name": "2-Butylfuran",
    "cn_name": "2-正丁基呋喃;",
    "alternate_name": "Furan, 2-butyl-;2-Butylfuran;2-<em>n</em>-Butylfuran",
    "duplicated_cas_no": "",
    "SMILES": "C(CCC)C1=CC=CO1",
    "meta_data": {
        "InChI": "InChI=1S/C8H12O/c1-2-3-5-8-6-4-7-9-8/h4,6-7H,2-3,5H2,1H3",
        "InChIKey": null,
        "Canonical SMILES": "O1C=CC=C1CCCC",
        "Molecular Formula": "C<sub>8</sub>H<sub>12</sub>O",
        "Molecular Mass": "124.18",
        "Boiling Point": "137-138 °C",
        "Density": "0.8983 g/cm³ @ Temp: 25 °C"
    }
}