{
    "cas_no": "97-39-2",
    "key_name": "Di-<em>o</em>-tolylguanidine",
    "cn_name": "二邻甲苯胍;",
    "alternate_name": "Guanidine, <em>N</em>,<em>N</em>′-bis(2-methylphenyl)-;Guanidine, 1,3-di-<em>o</em>-tolyl-;<em>N</em>,<em>N</em>′-Bis(2-methylphenyl)guanidine;1,3-Bis(<em>o</em>-tolyl)guanidine;Di-<em>o</em>-tolylguanidine;<em>N</em>,<em>N</em>′-Di-<em>o</em>-tolylguanidine;DOTG;Eveite DOTG;Vulkacit DOTG;<em>N</em>,<em>N</em>′-Di-<em>o</em>-toluylguanidine;1,3-Di-<em>o</em>-tolylguanidine;Nocceler DT;1,3-Di-2-tolylguanidine;DTG;CNS 1001;Soxinol DT;Sanceler DT;Vulcafor DOTG;Akrochem DOTG;1,3-Di-<em>ortho</em>-tolylguanidine;NSC 132023;NSC 473;Rhenogran DOTG 70;1,2-Bis(2-methylphenyl)guanidine",
    "duplicated_cas_no": "132116-33-7;46913-50-2;60297-72-5",
    "SMILES": "N(C(NC1=C(C)C=CC=C1)=N)C2=C(C)C=CC=C2",
    "meta_data": {
        "InChI": "InChI=1S/C15H17N3/c1-11-7-3-5-9-13(11)17-15(16)18-14-10-6-4-8-12(14)2/h3-10H,1-2H3,(H3,16,17,18)",
        "InChIKey": null,
        "Canonical SMILES": "N=C(NC=1C=CC=CC1C)NC=2C=CC=CC2C",
        "Molecular Formula": "C<sub>15</sub>H<sub>17</sub>N<sub>3</sub>",
        "Molecular Mass": "239.32",
        "Melting Point": "179 °C",
        "Density": "1.10 g/cm³ @ Temp: 20 °C"
    }
}