{
    "cas_no": "619-65-8",
    "key_name": "4-Cyanobenzoic acid",
    "cn_name": "对氰基苯甲酸;4-氰基苯甲酸;",
    "alternate_name": "Benzoic acid, 4-cyano-;Benzoic acid, <em>p</em>-cyano-;4-Cyanobenzoic acid;<em>p</em>-Cyanobenzoic acid;<em>p</em>-Carboxybenzonitrile;4-Carboxybenzonitrile;NSC 6306",
    "duplicated_cas_no": "",
    "SMILES": "C(O)(=O)C1=CC=C(C#N)C=C1",
    "meta_data": {
        "InChI": "InChI=1S/C8H5NO2/c9-5-6-1-3-7(4-2-6)8(10)11/h1-4H,(H,10,11)",
        "InChIKey": null,
        "Canonical SMILES": "N#CC1=CC=C(C=C1)C(=O)O",
        "Molecular Formula": "C<sub>8</sub>H<sub>5</sub>NO<sub>2</sub>",
        "Molecular Mass": "147.13",
        "Melting Point": "221 °C (decomp)"
    }
}