{
    "cas_no": "1302-81-4",
    "key_name": "Aluminum sulfide (Al<sub>2</sub>S<sub>3</sub>)",
    "cn_name": "硫化铝;",
    "alternate_name": "Aluminum sulfide (Al<sub>2</sub>S<sub>3</sub>);Aluminum trisulfide;Aluminum sesquisulfide;Dialuminum trisulfide;Aluminum sulfide",
    "duplicated_cas_no": "12254-26-1",
    "SMILES": "[S].[Al]",
    "meta_data": {
        "InChI": "InChI=1S/Al.S",
        "InChIKey": null,
        "Canonical SMILES": "[Al].[S]",
        "Molecular Formula": "Al.S",
        "Molecular Mass": "",
        "Melting Point": "1100 °C",
        "Density": "2.78 g/cm³"
    }
}