{
    "uri": "substance/pt/1302814",
    "rn": "1302-81-4",
    "name": "Aluminum sulfide (Al<sub>2</sub>S<sub>3</sub>)",
    "images": [],
    "inchi": "InChI=1S/Al.S",
    "inchiKey": "InChIKey=SLWLWUJHXQUDJS-UHFFFAOYSA-N",
    "smile": "[S].[Al]",
    "canonicalSmile": "[Al].[S]",
    "molecularFormula": "Al.S",
    "molecularMass": "",
    "experimentalProperties": [
        {
            "name": "Melting Point",
            "property": "1100 °C",
            "sourceNumber": 1
        },
        {
            "name": "Density",
            "property": "2.78 g/cm³",
            "sourceNumber": 2
        }
    ],
    "propertyCitations": [
        {
            "docUri": "document/pt/document/23614191",
            "sourceNumber": 1,
            "source": "Biltz, W.; Zeitschrift fuer Anorganische Chemie, (1911), 71, 427-38, CAplus"
        },
        {
            "docUri": "document/pt/document/12069902",
            "sourceNumber": 2,
            "source": "Schaefer, Herbert; Zeitschrift fuer Anorganische und Allgemeine Chemie, (1963), 325(1-2), 77-88, CAplus"
        }
    ],
    "synonyms": [
        "Aluminum sulfide (Al<sub>2</sub>S<sub>3</sub>)",
        "Aluminum trisulfide",
        "Aluminum sesquisulfide",
        "Dialuminum trisulfide",
        "Aluminum sulfide"
    ],
    "replacedRns": [
        "12254-26-1"
    ],
    "hasMolfile": true,
    "source": "https://commonchemistry.cas.org/detail?cas_rn=1302-81-4"
}