{
    "cas_no": "123-63-7",
    "key_name": "Paraldehyde",
    "cn_name": "三聚乙醛;",
    "alternate_name": "1,3,5-Trioxane, 2,4,6-trimethyl-;<em>s</em>-Trioxane, 2,4,6-trimethyl-;2,4,6-Trimethyl-1,3,5-trioxane;Paraacetaldehyde;Paracetaldehyde;Paraldehyde;PCHO;<em>s</em>-Trimethyltrioxymethylene;2,4,6-Trimethyl-<em>s</em>-trioxane;1,3,5-Trimethyl-2,4,6-trioxane;Elaldehyde;Paral;2,4,6-Trimethyl-1,3,5-trioxacyclohexane;Acetaldehyde, trimer;NSC 9799;MeSH ID: D010242",
    "duplicated_cas_no": "51289-71-5",
    "SMILES": "CC1OC(C)OC(C)O1",
    "meta_data": {
        "InChI": "InChI=1S/C6H12O3/c1-4-7-5(2)9-6(3)8-4/h4-6H,1-3H3",
        "InChIKey": null,
        "Canonical SMILES": "O1C(OC(OC1C)C)C",
        "Molecular Formula": "C<sub>6</sub>H<sub>12</sub>O<sub>3</sub>",
        "Molecular Mass": "132.16",
        "Boiling Point": "124.5 °C",
        "Melting Point": "12.6 °C",
        "Density": "0.9923 g/cm³ @ Temp: 20 °C"
    }
}