{
    "cas_no": "360-64-5",
    "key_name": "2-(Trifluoromethyl)benzamide",
    "cn_name": "2-(三氟甲基)苯甲酰胺;2-(三氟甲基)苯甲酰胺;2-(三氟甲基)苯酰胺;2-(三氟甲基)苯甲酰胺, 98+%;",
    "alternate_name": "Benzamide, 2-(trifluoromethyl)-;<em>o</em>-Toluamide, α,α,α-trifluoro-;2-(Trifluoromethyl)benzamide",
    "duplicated_cas_no": "",
    "SMILES": "C(F)(F)(F)C1=C(C(N)=O)C=CC=C1",
    "meta_data": {
        "InChI": "InChI=1S/C8H6F3NO/c9-8(10,11)6-4-2-1-3-5(6)7(12)13/h1-4H,(H2,12,13)",
        "InChIKey": null,
        "Canonical SMILES": "O=C(N)C=1C=CC=CC1C(F)(F)F",
        "Molecular Formula": "C<sub>8</sub>H<sub>6</sub>F<sub>3</sub>NO",
        "Molecular Mass": "189.13",
        "Melting Point": "160-161 °C"
    }
}