{
    "cas_no": "603-56-5",
    "key_name": "Chrysosplenetin",
    "cn_name": null,
    "alternate_name": "4<em>H</em>-1-Benzopyran-4-one, 5-hydroxy-2-(4-hydroxy-3-methoxyphenyl)-3,6,7-trimethoxy-;Chrysosplenetin;Flavone, 4′,5-dihydroxy-3,3′,6,7-tetramethoxy-;5-Hydroxy-2-(4-hydroxy-3-methoxyphenyl)-3,6,7-trimethoxy-4<em>H</em>-1-benzopyran-4-one;Chrysosplenol B;5,4′-Dihydroxy-3,6,7,3′-tetramethoxyflavone;Quercetagetin 3,6,7,3′-tetramethyl ether;3,6,7,3′-Tetra-<em>O</em>-methylquercetagetin;EMD 20940;4′,5-Dihydroxy-3,3′,6,7-tetramethoxyflavone;Polycladin;Jaceidin 7-<em>O</em>-methyl ether;Chrysosptertin B",
    "duplicated_cas_no": "69234-29-3",
    "SMILES": "O=C1C=2C(OC(=C1OC)C3=CC(OC)=C(O)C=C3)=CC(OC)=C(OC)C2O",
    "meta_data": {
        "InChI": "InChI=1S/C19H18O8/c1-23-11-7-9(5-6-10(11)20)17-19(26-4)16(22)14-12(27-17)8-13(24-2)18(25-3)15(14)21/h5-8,20-21H,1-4H3",
        "InChIKey": null,
        "Canonical SMILES": "O=C1C(OC)=C(OC2=CC(OC)=C(OC)C(O)=C12)C=3C=CC(O)=C(OC)C3",
        "Molecular Formula": "C<sub>19</sub>H<sub>18</sub>O<sub>8</sub>",
        "Molecular Mass": "374.34",
        "Melting Point": "203-205 °C"
    }
}