{
    "cas_no": "4376-20-9",
    "key_name": "Mono(2-ethylhexyl) phthalate",
    "cn_name": "邻苯二甲酸单(2-乙基己基)酯;",
    "alternate_name": "1,2-Benzenedicarboxylic acid, 1-(2-ethylhexyl) ester;Phthalic acid, mono(2-ethylhexyl) ester;1,2-Benzenedicarboxylic acid, mono(2-ethylhexyl) ester;Phthalic acid, 2-ethylhexyl ester;Mono(2-ethylhexyl) phthalate;2-Ethylhexyl hydrogen phthalate;BAR 1;Mono(ethylhexyl) phthalate;2-((2-(Ethyl)hexyloxy)carbonyl)benzoic acid",
    "duplicated_cas_no": "143451-17-6;2562357-53-1",
    "SMILES": "C(OCC(CCCC)CC)(=O)C1=C(C(O)=O)C=CC=C1",
    "meta_data": {
        "InChI": "InChI=1S/C16H22O4/c1-3-5-8-12(4-2)11-20-16(19)14-10-7-6-9-13(14)15(17)18/h6-7,9-10,12H,3-5,8,11H2,1-2H3,(H,17,18)",
        "InChIKey": null,
        "Canonical SMILES": "O=C(O)C=1C=CC=CC1C(=O)OCC(CC)CCCC",
        "Molecular Formula": "C<sub>16</sub>H<sub>22</sub>O<sub>4</sub>",
        "Molecular Mass": "278.34",
        "Melting Point": "25-27 °C"
    }
}