{
    "cas_no": "15770-21-5",
    "key_name": "Di-1<em>H</em>-pyrrol-2-ylmethanone",
    "cn_name": null,
    "alternate_name": "Methanone, di-1<em>H</em>-pyrrol-2-yl-;Pyrrol-2-yl ketone;Di-1<em>H</em>-pyrrol-2-ylmethanone;Dipyrrol-2-yl ketone;NSC 81355;2-Pyrrolidene ketone;2-(1<em>H</em>-Pyrrole-2-carbonyl)-1<em>H</em>-pyrrole",
    "duplicated_cas_no": "",
    "SMILES": "C(=O)(C1=CC=CN1)C2=CC=CN2",
    "meta_data": {
        "InChI": "InChI=1S/C9H8N2O/c12-9(7-3-1-5-10-7)8-4-2-6-11-8/h1-6,10-11H",
        "InChIKey": null,
        "Canonical SMILES": "O=C(C1=CC=CN1)C2=CC=CN2",
        "Molecular Formula": "C<sub>9</sub>H<sub>8</sub>N<sub>2</sub>O",
        "Molecular Mass": "160.17",
        "Melting Point": "160-161 °C"
    }
}