{
    "cas_no": "635-03-0",
    "key_name": "1,1,2,3-Tetraethyl 1,1,2,3-propanetetracarboxylate",
    "cn_name": "1,1,2,3-丙烷四羧酸四乙酯;四乙基丙烷-1,1,2,3-四羧酸酯;",
    "alternate_name": "1,1,2,3-Propanetetracarboxylic acid, 1,1,2,3-tetraethyl ester;1,1,2,3-Propanetetracarboxylic acid, tetraethyl ester;1,1,2,3-Tetraethyl 1,1,2,3-propanetetracarboxylate;Tetraethyl 1,1,2,3-propanetetracarboxylate;NSC 2198",
    "duplicated_cas_no": "",
    "SMILES": "C(C(C(OCC)=O)C(OCC)=O)(CC(OCC)=O)C(OCC)=O",
    "meta_data": {
        "InChI": "InChI=1S/C15H24O8/c1-5-20-11(16)9-10(13(17)21-6-2)12(14(18)22-7-3)15(19)23-8-4/h10,12H,5-9H2,1-4H3",
        "InChIKey": null,
        "Canonical SMILES": "O=C(OCC)CC(C(=O)OCC)C(C(=O)OCC)C(=O)OCC",
        "Molecular Formula": "C<sub>15</sub>H<sub>24</sub>O<sub>8</sub>",
        "Molecular Mass": "332.35",
        "Boiling Point": "200-201 °C @ Press: 13 Torr"
    }
}