{
    "cas_no": "99-03-6",
    "key_name": "3′-Aminoacetophenone",
    "cn_name": "间氨基苯乙酮;",
    "alternate_name": "Ethanone, 1-(3-aminophenyl)-;Acetophenone, 3′-amino-;1-(3-Aminophenyl)ethanone;<em>m</em>-Aminoacetylbenzene;β-Aminoacetophenone;<em>m</em>-Aminoacetophenone;3′-Aminoacetophenone;<em>m</em>-Acetylaniline;3-Acetylaniline;1-Acetyl-3-aminobenzene;3-Acetylphenylamine;NSC 7637;3-Methylcarbonylaniline;1-(3-Aminophenyl)ethan-1-one",
    "duplicated_cas_no": "",
    "SMILES": "C(C)(=O)C1=CC(N)=CC=C1",
    "meta_data": {
        "InChI": "InChI=1S/C8H9NO/c1-6(10)7-3-2-4-8(9)5-7/h2-5H,9H2,1H3",
        "InChIKey": null,
        "Canonical SMILES": "O=C(C=1C=CC=C(N)C1)C",
        "Molecular Formula": "C<sub>8</sub>H<sub>9</sub>NO",
        "Molecular Mass": "135.16",
        "Boiling Point": "289.5 °C",
        "Melting Point": "98.5 °C"
    }
}