{
    "cas_no": "616-74-0",
    "key_name": "4,6-Dinitroresorcinol",
    "cn_name": "4,6-二硝基间苯二酚;",
    "alternate_name": "1,3-Benzenediol, 4,6-dinitro-;Resorcinol, 4,6-dinitro-;4,6-Dinitro-1,3-benzenediol;4,6-Dinitroresorcinol;3-Hydroxy-4,6-dinitrophenol",
    "duplicated_cas_no": "",
    "SMILES": "N(=O)(=O)C1=CC(N(=O)=O)=C(O)C=C1O",
    "meta_data": {
        "InChI": "InChI=1S/C6H4N2O6/c9-5-2-6(10)4(8(13)14)1-3(5)7(11)12/h1-2,9-10H",
        "InChIKey": null,
        "Canonical SMILES": "O=N(=O)C=1C=C(C(O)=CC1O)N(=O)=O",
        "Molecular Formula": "C<sub>6</sub>H<sub>4</sub>N<sub>2</sub>O<sub>6</sub>",
        "Molecular Mass": "200.11",
        "Melting Point": "213 °C"
    }
}