{
    "cas_no": "7283-70-7",
    "key_name": "Diisopropyl fumarate",
    "cn_name": "富马酸二异丙酯;",
    "alternate_name": "2-Butenedioic acid (2<em>E</em>)-, 1,4-bis(1-methylethyl) ester;Fumaric acid, diisopropyl ester;2-Butenedioic acid (<em>E</em>)-, bis(1-methylethyl) ester;2-Butenedioic acid (2<em>E</em>)-, bis(1-methylethyl) ester;Diisopropyl fumarate;NSC 70161;Diisopropyl <em>trans</em>-2-butenedioate",
    "duplicated_cas_no": "129834-18-0;51293-76-6",
    "SMILES": "C(/C=C/C(OC(C)C)=O)(OC(C)C)=O",
    "meta_data": {
        "InChI": "InChI=1S/C10H16O4/c1-7(2)13-9(11)5-6-10(12)14-8(3)4/h5-8H,1-4H3/b6-5+",
        "InChIKey": null,
        "Canonical SMILES": "O=C(OC(C)C)C=CC(=O)OC(C)C",
        "Molecular Formula": "C<sub>10</sub>H<sub>16</sub>O<sub>4</sub>",
        "Molecular Mass": "200.23",
        "Boiling Point": "280 °C",
        "Melting Point": "2.1 °C"
    }
}