{
    "cas_no": "725-12-2",
    "key_name": "2,5-Diphenyl-1,3,4-oxadiazole",
    "cn_name": "2,5-二苯基-1,3,4-二唑;2,5-二苯基-1,3,4-恶二唑;2,5-二苯基-1,3,4-二唑;",
    "alternate_name": "1,3,4-Oxadiazole, 2,5-diphenyl-;2,5-Diphenyl-1,3,4-oxadiazole;PPD;2,5-Diphenyloxadiazole;PPD (scintillator);NSC 53152",
    "duplicated_cas_no": "",
    "SMILES": "C=1(OC(=NN1)C2=CC=CC=C2)C3=CC=CC=C3",
    "meta_data": {
        "InChI": "InChI=1S/C14H10N2O/c1-3-7-11(8-4-1)13-15-16-14(17-13)12-9-5-2-6-10-12/h1-10H",
        "InChIKey": null,
        "Canonical SMILES": "N=1N=C(OC1C=2C=CC=CC2)C=3C=CC=CC3",
        "Molecular Formula": "C<sub>14</sub>H<sub>10</sub>N<sub>2</sub>O",
        "Molecular Mass": "222.24",
        "Boiling Point": "248 °C @ Press: 16 Torr",
        "Melting Point": "138 °C"
    }
}