{
    "cas_no": "20913-25-1",
    "key_name": "Ethyl 2-methylcyclopropanecarboxylate",
    "cn_name": null,
    "alternate_name": "Cyclopropanecarboxylic acid, 2-methyl-, ethyl ester;Ethyl 2-methylcyclopropanecarboxylate",
    "duplicated_cas_no": "",
    "SMILES": "C(OCC)(=O)C1C(C)C1",
    "meta_data": {
        "InChI": "InChI=1S/C7H12O2/c1-3-9-7(8)6-4-5(6)2/h5-6H,3-4H2,1-2H3",
        "InChIKey": null,
        "Canonical SMILES": "O=C(OCC)C1CC1C",
        "Molecular Formula": "C<sub>7</sub>H<sub>12</sub>O<sub>2</sub>",
        "Molecular Mass": "128.17",
        "Boiling Point": "58-59 °C @ Press: 27 Torr",
        "Melting Point": "147 °C"
    }
}