{
    "cas_no": "139-44-6",
    "key_name": "Trihydroxystearin",
    "cn_name": null,
    "alternate_name": "Octadecanoic acid, 12-hydroxy-, 1,1′,1′′-(1,2,3-propanetriyl) ester;Octadecanoic acid, 12-hydroxy-, 1,2,3-propanetriyl ester;Octadecanoic acid, 12-hydroxy-, triester with glycerol;Glycerol, tris(12-hydroxyoctadecanoate);Glyceryl tris(12-hydroxystearate);Tri-12-hydroxystearin;12-Hydroxystearic acid triglyceride;Glycerol tris(12-hydroxystearate);Glycerol 12-hydroxystearate;Kao Wax 85;K 3 (wax);K 3;Rikemal TG 12;K 3 Wax 200;Trihydroxystearin;Flowtone R;Glycerine tris(12-hydroxystearate);Kao Wax 85P;Cutina BW;Thixcin R;NSC 2389;Rheocin;Reosin;Kawastar CR",
    "duplicated_cas_no": "38264-86-7;117313-82-3;194498-31-2;400628-60-6;1280568-87-7",
    "SMILES": "C(OC(CCCCCCCCCCC(CCCCCC)O)=O)(COC(CCCCCCCCCCC(CCCCCC)O)=O)COC(CCCCCCCCCCC(CCCCCC)O)=O",
    "meta_data": {
        "InChI": "InChI=1S/C57H110O9/c1-4-7-10-31-40-51(58)43-34-25-19-13-16-22-28-37-46-55(61)64-49-54(66-57(63)48-39-30-24-18-15-21-27-36-45-53(60)42-33-12-9-6-3)50-65-56(62)47-38-29-23-17-14-20-26-35-44-52(59)41-32-11-8-5-2/h51-54,58-60H,4-50H2,1-3H3",
        "InChIKey": null,
        "Canonical SMILES": "O=C(OCC(OC(=O)CCCCCCCCCCC(O)CCCCCC)COC(=O)CCCCCCCCCCC(O)CCCCCC)CCCCCCCCCCC(O)CCCCCC",
        "Molecular Formula": "C<sub>57</sub>H<sub>110</sub>O<sub>9</sub>",
        "Molecular Mass": "939.48",
        "Melting Point": "89.4 °C"
    }
}