{
    "cas_no": "4068-78-4",
    "key_name": "Methyl 5-chloro-2-hydroxybenzoate",
    "cn_name": "5-氯-2-羟基苯甲酸甲酯;5-氯水杨酸甲酯;",
    "alternate_name": "Benzoic acid, 5-chloro-2-hydroxy-, methyl ester;Salicylic acid, 5-chloro-, methyl ester;Methyl 5-chloro-2-hydroxybenzoate;Methyl 5-chlorosalicylate;5-Chlorosalicylic acid methyl ester;5-Chloro-2-hydroxybenzoic acid methyl ester;2-Hydroxy-5-chlorobenzoic acid methyl ester;NSC 85495;Methyl 2-hydroxy-5-chlorobenzoate",
    "duplicated_cas_no": "",
    "SMILES": "C(OC)(=O)C1=C(O)C=CC(Cl)=C1",
    "meta_data": {
        "InChI": "InChI=1S/C8H7ClO3/c1-12-8(11)6-4-5(9)2-3-7(6)10/h2-4,10H,1H3",
        "InChIKey": null,
        "Canonical SMILES": "O=C(OC)C1=CC(Cl)=CC=C1O",
        "Molecular Formula": "C<sub>8</sub>H<sub>7</sub>ClO<sub>3</sub>",
        "Molecular Mass": "186.59",
        "Melting Point": "50 °C"
    }
}