{
    "cas_no": "3119-02-6",
    "key_name": "4-Cyanobenzenesulfonamide",
    "cn_name": null,
    "alternate_name": "Benzenesulfonamide, 4-cyano-;Benzenesulfonamide, <em>p</em>-cyano-;4-Cyanobenzenesulfonamide;<em>p</em>-Cyanobenzenesulfonamide;4-(Aminosulfonyl)benzonitrile;NSC 77086;4-Cyanophenylsulfonamide;4-Sulfamoylbenzonitrile",
    "duplicated_cas_no": "",
    "SMILES": "S(N)(=O)(=O)C1=CC=C(C#N)C=C1",
    "meta_data": {
        "InChI": "InChI=1S/C7H6N2O2S/c8-5-6-1-3-7(4-2-6)12(9,10)11/h1-4H,(H2,9,10,11)",
        "InChIKey": null,
        "Canonical SMILES": "N#CC1=CC=C(C=C1)S(=O)(=O)N",
        "Molecular Formula": "C<sub>7</sub>H<sub>6</sub>N<sub>2</sub>O<sub>2</sub>S",
        "Molecular Mass": "182.20",
        "Melting Point": "165-166 °C"
    }
}