{
    "cas_no": "82964-04-3",
    "key_name": "Tolrestat",
    "cn_name": "托瑞司他;N-{[6-甲氧基-5-(三氟甲基)-1-萘基]硫代甲基}-N-甲基甘氨酸;托瑞司他;",
    "alternate_name": "Glycine, <em>N</em>-[[6-methoxy-5-(trifluoromethyl)-1-naphthalenyl]thioxomethyl]-<em>N</em>-methyl-;<em>N</em>-[[6-Methoxy-5-(trifluoromethyl)-1-naphthalenyl]thioxomethyl]-<em>N</em>-methylglycine;Tolrestat;AY 27773;Tolrestatin;Alredase;Lorestat;2-(6-Methoxy-<em>N</em>-methyl-5-(trifluoromethyl)naphthalene-1-carbothioamido)aceticacid",
    "duplicated_cas_no": "",
    "SMILES": "C(N(CC(O)=O)C)(=S)C=1C2=C(C(C(F)(F)F)=C(OC)C=C2)C=CC1",
    "meta_data": {
        "InChI": "InChI=1S/C16H14F3NO3S/c1-20(8-13(21)22)15(24)11-5-3-4-10-9(11)6-7-12(23-2)14(10)16(17,18)19/h3-7H,8H2,1-2H3,(H,21,22)",
        "InChIKey": null,
        "Canonical SMILES": "O=C(O)CN(C(=S)C1=CC=CC=2C1=CC=C(OC)C2C(F)(F)F)C",
        "Molecular Formula": "C<sub>16</sub>H<sub>14</sub>F<sub>3</sub>NO<sub>3</sub>S",
        "Molecular Mass": "357.35",
        "Melting Point": "164-165 °C"
    }
}