{
    "cas_no": "90-93-7",
    "key_name": "4,4-Bis(diethylamino)benzophenone",
    "cn_name": "四乙基米氏酮;4,4\"-双(二乙基氨基)二苯甲酮;",
    "alternate_name": "Methanone, bis[4-(diethylamino)phenyl]-;Benzophenone, 4,4′-bis(diethylamino)-;Bis[4-(diethylamino)phenyl]methanone;4,4′-Bis(diethylamino)benzophenone;Michler's ethyl ketone;<em>p</em>,<em>p</em>′-Tetraethyldiaminobenzophenone;4,4′-(Tetraethyldiamino)benzophenone;<em>p</em>,<em>p</em>′-Bis(diethylamino)benzophenone;4,4′-Bis(<em>N</em>,<em>N</em>-diethylamino)benzophenone;<em>N</em>,<em>N</em>,<em>N</em>′,<em>N</em>′-Tetraethyl-4,4′-diaminobenzophenone;EAB;EAB (benzophenone);4,4′-Diethylaminobenzophenone;Ethyl Michler ketone;EABF;NSC 36365;4,4′-Bis(diethylamino)diphenyl ketone;EAB-SS;4,4′-Bis(diethylamine)benzophenone;Narucure CS;4′,4-Bis(diethylamino)benzophenone;Doublecure EMK;4,4-Bis(diethylamino)benzophenone;JRCure EMK;Kayacure EAB;SB-PI 701;Photoinitiator EAB;Chemark DEABP;Omnirad EMK;Ethyl Michler's Ketone;Photoinitiator EMK;Chivacure EMK;IHT-PI EMK",
    "duplicated_cas_no": "",
    "SMILES": "C(=O)(C1=CC=C(N(CC)CC)C=C1)C2=CC=C(N(CC)CC)C=C2",
    "meta_data": {
        "InChI": "InChI=1S/C21H28N2O/c1-5-22(6-2)19-13-9-17(10-14-19)21(24)18-11-15-20(16-12-18)23(7-3)8-4/h9-16H,5-8H2,1-4H3",
        "InChIKey": null,
        "Canonical SMILES": "O=C(C1=CC=C(C=C1)N(CC)CC)C2=CC=C(C=C2)N(CC)CC",
        "Molecular Formula": "C<sub>21</sub>H<sub>28</sub>N<sub>2</sub>O",
        "Molecular Mass": "324.46",
        "Melting Point": "158 °C"
    }
}