{
    "cas_no": "6487-86-1",
    "key_name": "Ethanamine, 2-(3-methoxyphenoxy)-",
    "cn_name": null,
    "alternate_name": "Ethanamine, 2-(3-methoxyphenoxy)-;Ethylamine, 2-(<em>m</em>-methoxyphenoxy)-;2-(3-Methoxyphenoxy)ethylamine;1-(2-Aminoethoxy)-3-methoxybenzene;2-(3-Methoxyphenoxy)ethan-1-amine;2-(3-Methoxyphenoxy)ethanamine",
    "duplicated_cas_no": "",
    "SMILES": "O(CCN)C1=CC(OC)=CC=C1",
    "meta_data": {
        "InChI": "InChI=1S/C9H13NO2/c1-11-8-3-2-4-9(7-8)12-6-5-10/h2-4,7H,5-6,10H2,1H3",
        "InChIKey": null,
        "Canonical SMILES": "O(C1=CC=CC(OCCN)=C1)C",
        "Molecular Formula": "C<sub>9</sub>H<sub>13</sub>NO<sub>2</sub>",
        "Molecular Mass": "167.21",
        "Boiling Point": "152-154 °C @ Press: 12 Torr"
    }
}