{
    "cas_no": "2104-19-0",
    "key_name": "Monomethyl azelate",
    "cn_name": "壬二酸氢甲酯;壬二酸单甲酯;",
    "alternate_name": "Nonanedioic acid, 1-methyl ester;Azelaic acid, monomethyl ester;Nonanedioic acid, monomethyl ester;Azelaic acid, methyl ester;Monomethyl azelate;8-Carbomethoxyoctanoic acid;Methyl hydrogen azelate;Monomethyl nonanedioate;Methyl 8-carboxyoctanoate;Monomethyl azelaate;9-Methoxy-9-oxononanoic acid;NSC 60226;8-(Methoxycarbonyl)octanoic acid",
    "duplicated_cas_no": "",
    "SMILES": "C(CCCCCCCC(O)=O)(OC)=O",
    "meta_data": {
        "InChI": "InChI=1S/C10H18O4/c1-14-10(13)8-6-4-2-3-5-7-9(11)12/h2-8H2,1H3,(H,11,12)",
        "InChIKey": null,
        "Canonical SMILES": "O=C(O)CCCCCCCC(=O)OC",
        "Molecular Formula": "C<sub>10</sub>H<sub>18</sub>O<sub>4</sub>",
        "Molecular Mass": "202.25",
        "Boiling Point": "190-195 °C",
        "Melting Point": "21-24 °C"
    }
}