{
    "cas_no": "35853-45-3",
    "key_name": "4-Bromo-2,8-bis(trifluoromethyl)quinoline",
    "cn_name": "4-溴-2,8-二(三氟甲基)喹啉;",
    "alternate_name": "Quinoline, 4-bromo-2,8-bis(trifluoromethyl)-;4-Bromo-2,8-bis(trifluoromethyl)quinoline;2,8-Bis(trifluoromethyl)-4-bromoquinoline",
    "duplicated_cas_no": "",
    "SMILES": "C(F)(F)(F)C=1C2=C(C(Br)=CC(C(F)(F)F)=N2)C=CC1",
    "meta_data": {
        "InChI": "InChI=1S/C11H4BrF6N/c12-7-4-8(11(16,17)18)19-9-5(7)2-1-3-6(9)10(13,14)15/h1-4H",
        "InChIKey": null,
        "Canonical SMILES": "FC(F)(F)C1=NC2=C(C=CC=C2C(F)(F)F)C(Br)=C1",
        "Molecular Formula": "C<sub>11</sub>H<sub>4</sub>BrF<sub>6</sub>N",
        "Molecular Mass": "344.05",
        "Melting Point": "60 °C"
    }
}