{
    "cas_no": "17082-47-2",
    "key_name": "Tetrakis(dimethylsiloxy)silane",
    "cn_name": null,
    "alternate_name": "Trisiloxane, 3,3-bis[(dimethylsilyl)oxy]-1,1,5,5-tetramethyl-;Trisiloxane, 3,3-bis(dimethylsiloxy)-1,1,5,5-tetramethyl-;3,3-Bis[(dimethylsilyl)oxy]-1,1,5,5-tetramethyltrisiloxane;Tetrakis(dimethylsiloxy)silane;3,3-Bis(dimethylsiloxy)-1,1,5,5-tetramethyltrisiloxane;Tetrakis(dimethylsilyl)orthosilicate;Tetrakis(dimethylsilyloxy)silane;T 1915;TSL 8248;SIT 7278.0;3,3-Bis(dimethylsilyloxy)-1,1,5,5-tetramethyltrisiloxane;SIT 7278",
    "duplicated_cas_no": "",
    "SMILES": "[Si](O[SiH](C)C)(O[SiH](C)C)(O[SiH](C)C)O[SiH](C)C",
    "meta_data": {
        "InChI": "InChI=1S/C8H28O4Si5/c1-13(2)9-17(10-14(3)4,11-15(5)6)12-16(7)8/h13-16H,1-8H3",
        "InChIKey": null,
        "Canonical SMILES": "O([SiH](C)C)[Si](O[SiH](C)C)(O[SiH](C)C)O[SiH](C)C",
        "Molecular Formula": "C<sub>8</sub>H<sub>28</sub>O<sub>4</sub>Si<sub>5</sub>",
        "Molecular Mass": "328.73",
        "Boiling Point": "188-190 °C",
        "Density": "0.886 g/cm³"
    }
}