{
    "cas_no": "30318-99-1",
    "key_name": "3-Bromo-4-methylthiophene",
    "cn_name": "3-溴-4-甲基噻吩;3-溴-4-甲基噻吩;4-溴-3-甲基噻吩;",
    "alternate_name": "Thiophene, 3-bromo-4-methyl-;3-Bromo-4-methylthiophene;3-Methyl-4-bromothiophene",
    "duplicated_cas_no": "",
    "SMILES": "BrC=1C(C)=CSC1",
    "meta_data": {
        "InChI": "InChI=1S/C5H5BrS/c1-4-2-7-3-5(4)6/h2-3H,1H3",
        "InChIKey": null,
        "Canonical SMILES": "BrC1=CSC=C1C",
        "Molecular Formula": "C<sub>5</sub>H<sub>5</sub>BrS",
        "Molecular Mass": "177.06",
        "Boiling Point": "180-182 °C"
    }
}