{
    "cas_no": "27876-24-0",
    "key_name": "4-Hexylpyridine",
    "cn_name": null,
    "alternate_name": "Pyridine, 4-hexyl-;4-Hexylpyridine;1-(4-Pyridyl)hexane",
    "duplicated_cas_no": "",
    "SMILES": "C(CCCCC)C=1C=CN=CC1",
    "meta_data": {
        "InChI": "InChI=1S/C11H17N/c1-2-3-4-5-6-11-7-9-12-10-8-11/h7-10H,2-6H2,1H3",
        "InChIKey": null,
        "Canonical SMILES": "N=1C=CC(=CC1)CCCCCC",
        "Molecular Formula": "C<sub>11</sub>H<sub>17</sub>N",
        "Molecular Mass": "163.26",
        "Boiling Point": "140 °C @ Press: 18 Torr"
    }
}