{
    "cas_no": "176969-34-9",
    "key_name": "3-(Difluoromethyl)-1-methyl-1<em>H</em>-pyrazole-4-carboxylic acid",
    "cn_name": null,
    "alternate_name": "1<em>H</em>-Pyrazole-4-carboxylic acid, 3-(difluoromethyl)-1-methyl-;3-(Difluoromethyl)-1-methyl-1<em>H</em>-pyrazole-4-carboxylic acid;3-Difluoromethyl-1-methyl-1<em>H</em>-pyrazole-4-carboxylic acid;3-Difluoromethyl-1-methylpyrazole-4-carboxylic acid;3-Difluoromethyl-1-methyl-1<em>H</em>-pyrazol-4-carboxylic acid;1-Methyl-3-(difluoromethyl)pyrazole-4-carboxylic acid;3-(Difluoromethyl)-1-methyl-7<em>H</em>-pyrazole-4-carboxylic acid;1-Methyl-3-(difluoromethyl)-1<em>H</em>-pyrazole-4-carboxylic acid",
    "duplicated_cas_no": "",
    "SMILES": "C(O)(=O)C=1C(C(F)F)=NN(C)C1",
    "meta_data": {
        "InChI": "InChI=1S/C6H6F2N2O2/c1-10-2-3(6(11)12)4(9-10)5(7)8/h2,5H,1H3,(H,11,12)",
        "InChIKey": null,
        "Canonical SMILES": "O=C(O)C1=CN(N=C1C(F)F)C",
        "Molecular Formula": "C<sub>6</sub>H<sub>6</sub>F<sub>2</sub>N<sub>2</sub>O<sub>2</sub>",
        "Molecular Mass": "176.12",
        "Melting Point": "200-201 °C"
    }
}