{
    "cas_no": "4424-17-3",
    "key_name": "2-Amino-<em>N</em>-phenylbenzamide",
    "cn_name": "2\"-氨基苯甲酰苯胺;",
    "alternate_name": "Benzamide, 2-amino-<em>N</em>-phenyl-;Benzanilide, 2-amino-;2-Amino-<em>N</em>-phenylbenzamide;Anthranilanilide;<em>N</em>-(2-Aminobenzoyl)aniline;2-Aminobenzanilide;<em>N</em>-Phenylanthranilamide;2-(<em>N</em>-Phenylcarbamoyl)aniline;NSC 50644;<em>N</em>-Phenyl-2-aminobenzamide;<em>N</em>-(2-Aminobenzoyl)phenylamine",
    "duplicated_cas_no": "",
    "SMILES": "C(NC1=CC=CC=C1)(=O)C2=C(N)C=CC=C2",
    "meta_data": {
        "InChI": "InChI=1S/C13H12N2O/c14-12-9-5-4-8-11(12)13(16)15-10-6-2-1-3-7-10/h1-9H,14H2,(H,15,16)",
        "InChIKey": null,
        "Canonical SMILES": "O=C(NC=1C=CC=CC1)C=2C=CC=CC2N",
        "Molecular Formula": "C<sub>13</sub>H<sub>12</sub>N<sub>2</sub>O",
        "Molecular Mass": "212.25",
        "Melting Point": "131-132 °C"
    }
}