{
    "cas_no": "5056-17-7",
    "key_name": "(2<em>E</em>,4<em>E</em>,6<em>E</em>)-2,7-Dimethyl-2,4,6-octatrienedial",
    "cn_name": null,
    "alternate_name": "2,4,6-Octatrienedial, 2,7-dimethyl-, (2<em>E</em>,4<em>E</em>,6<em>E</em>)-;2,4,6-Octatrienedial, 2,7-dimethyl-, (<em>E</em>,<em>E</em>,<em>E</em>)-;(2<em>E</em>,4<em>E</em>,6<em>E</em>)-2,7-Dimethyl-2,4,6-octatrienedial;(<em>all</em>-<em>E</em>)-2,7-Dimethyl-2,4,6-octatrienedial;<em>all</em>-<em>trans</em>-2,7-Dimethyl-2,4,6-octatrienedial;12,12′-Di-apo-carotenedial;<em>all</em>-E-2,7-Dimethylocta-2,4,6-triene-1,8-dial;(<em>E</em>,<em>E</em>,<em>E</em>)-2,7-Dimethyl-2,4,6-octatrien-1,8-dial;(<em>E</em>,<em>E</em>,<em>E</em>)-2,7-Dimethylocta-2,4,6-trienedial;<em>all</em>-<em>E</em>-2,7-Dimethyl-2,4,6-octatriene-1,8-dial;(E,E,E)-2,7-Dimethylocta-2,4,6-trien-1,8-dialdehyde;12,12′-Diapocarotene-12,12′-dial",
    "duplicated_cas_no": "64810-43-1;1376185-90-8",
    "SMILES": "C(\\C=C\\C=C(\\C=O)/C)=C(/C=O)\\C",
    "meta_data": {
        "InChI": "InChI=1S/C10H12O2/c1-9(7-11)5-3-4-6-10(2)8-12/h3-8H,1-2H3/b4-3+,9-5+,10-6+",
        "InChIKey": null,
        "Canonical SMILES": "O=CC(=CC=CC=C(C=O)C)C",
        "Molecular Formula": "C<sub>10</sub>H<sub>12</sub>O<sub>2</sub>",
        "Molecular Mass": "164.20",
        "Boiling Point": "90-94 °C @ Press: 10 Torr",
        "Melting Point": "162-163.5 °C"
    }
}