{
    "cas_no": "35193-63-6",
    "key_name": "(±)-1,1′-Binaphthyl-2,2′-diyl hydrogen phosphate",
    "cn_name": "联萘酚磷酸酯;",
    "alternate_name": "Dinaphtho[2,1-<em>d</em>:1′,2′-<em>f</em>][1,3,2]dioxaphosphepin, 4-hydroxy-, 4-oxide;BNDHP;1,1′-Binaphthyl-2,2′-diyl hydrogen phosphate;(±)-1,1′-Binaphthyl-2,2′-diyl hydrogen phosphate;(<em>RS</em>)-1,1′-Binaphthyl-2,2′-diyl hydrogen phosphate;(±)-1,1′-Dinaphthyl-2,2′-diyl hydrogen phosphate;(<em>RS</em>)-1,1′-Bi-2-naphthol-2,2′-diyl hydrogen phosphate;NSC 244999;<em>rac</em>-1,1′-Binaphthalene-2,2′-diyl phosphoric acid;1,1′-Binaphthalene-2,2′-diyl hydrogen phosphate;13-Hydroxy-12,14-dioxa-13λ5-phosphapentacyclo[13.8.0.0[2,11].0[3,8].0[18,23]]tricosa-1(15),2,4,6,8,10,16,18(23),19,21-decaen-13-one",
    "duplicated_cas_no": "50574-52-2;1290058-43-3",
    "SMILES": "O=P1(O)OC2=C(C=3C=4C(C=CC3O1)=CC=CC4)C=5C(C=C2)=CC=CC5",
    "meta_data": {
        "InChI": "InChI=1S/C20H13O4P/c21-25(22)23-17-11-9-13-5-1-3-7-15(13)19(17)20-16-8-4-2-6-14(16)10-12-18(20)24-25/h1-12H,(H,21,22)",
        "InChIKey": null,
        "Canonical SMILES": "O=P1(O)OC=2C=CC=3C=CC=CC3C2C4=C(O1)C=CC=5C=CC=CC54",
        "Molecular Formula": "C<sub>20</sub>H<sub>13</sub>O<sub>4</sub>P",
        "Molecular Mass": "348.29",
        "Melting Point": "&gt;180 °C"
    }
}