{
    "cas_no": "10575-25-4",
    "key_name": "4-(Diethylamino)-2-butyn-1-ol",
    "cn_name": "4-二乙氨基-2-丁炔-1-醇;",
    "alternate_name": "2-Butyn-1-ol, 4-(diethylamino)-;4-(Diethylamino)-2-butyn-1-ol;1-(Diethylamino)-2-butyn-4-ol;1-(<em>N</em>,<em>N</em>-Diethylamino)-4-hydroxy-2-butyne",
    "duplicated_cas_no": "",
    "SMILES": "N(CC#CCO)(CC)CC",
    "meta_data": {
        "InChI": "InChI=1S/C8H15NO/c1-3-9(4-2)7-5-6-8-10/h10H,3-4,7-8H2,1-2H3",
        "InChIKey": null,
        "Canonical SMILES": "OCC#CCN(CC)CC",
        "Molecular Formula": "C<sub>8</sub>H<sub>15</sub>NO",
        "Molecular Mass": "141.21",
        "Boiling Point": "117 °C @ Press: 10 Torr",
        "Melting Point": "90 °C",
        "Density": "0.940 g/cm³ @ Temp: 25 °C"
    }
}