{
    "cas_no": "90-16-4",
    "key_name": "1,2,3-Benzotriazin-4(3<em>H</em>)-one",
    "cn_name": "1,2,3-苯并三嗪-4-酮;1,2,3-苯并三嗪-4-酮;1,2,3-苯并三嗪-4(3H)-酮;苯并-1,2,3-三嗪-4(3H)-酮;",
    "alternate_name": "1,2,3-Benzotriazin-4(3<em>H</em>)-one;1,2,3-Benzotriazin-4(1<em>H</em>)-one;Benzazimide;Benzazimidone;4-Ketobenz-1,2,3-triazine;3,4-Dihydro-4-oxo-1,2,3-benzotriazine;NSC 13563;NSC 20121;Benzo[<em>d</em>][1,2,3]triazin-4(3<em>H</em>)-one;1,4-Dihydro-1,2,3-benzotriazin-4-one;1<em>H</em>-Benzo[<em>d</em>][1,2,3]triazin-4-one;1<em>H</em>-1,2,3-Benzotriazin-4-one;3,4-Dihydro-1,2,3-benzotriazin-4-one",
    "duplicated_cas_no": "4184-81-0",
    "SMILES": "O=C1C=2C(NN=N1)=CC=CC2",
    "meta_data": {
        "InChI": "InChI=1S/C7H5N3O/c11-7-5-3-1-2-4-6(5)8-10-9-7/h1-4H,(H,8,9,11)",
        "InChIKey": null,
        "Canonical SMILES": "O=C1N=NNC=2C=CC=CC12",
        "Molecular Formula": "C<sub>7</sub>H<sub>5</sub>N<sub>3</sub>O",
        "Molecular Mass": "147.13",
        "Melting Point": "210 °C (decomp)"
    }
}