{
    "cas_no": "106017-08-7",
    "key_name": "7<em>H</em>-Pyrido[1,2,3-<em>de</em>]-1,4-benzothiazine-6-carboxylic acid, 9-fluoro-2,3-dihydro-10-(4-methyl-1-piperazinyl)-7-oxo-, hydrochloride (1:1)",
    "cn_name": "盐酸芦氟沙星;2,3-二氢-9-氟-10-(4-甲基-1-哌嗪基)-7-氧代-7H-吡啶并[1,2,3-de][1,4]苯并噻嗪-6-羧酸盐酸盐;",
    "alternate_name": "7<em>H</em>-Pyrido[1,2,3-<em>de</em>]-1,4-benzothiazine-6-carboxylic acid, 9-fluoro-2,3-dihydro-10-(4-methyl-1-piperazinyl)-7-oxo-, hydrochloride (1:1);7<em>H</em>-Pyrido[1,2,3-<em>de</em>]-1,4-benzothiazine-6-carboxylic acid, 9-fluoro-2,3-dihydro-10-(4-methyl-1-piperazinyl)-7-oxo-, monohydrochloride;Rufloxacin hydrochloride;ISF 09334;Qari;Monos;Tebraxin",
    "duplicated_cas_no": "",
    "SMILES": "O=C1C=2C3=C(C(=C(F)C2)N4CCN(C)CC4)SCCN3C=C1C(O)=O.Cl",
    "meta_data": {
        "InChI": "InChI=1S/C17H18FN3O3S.ClH/c1-19-2-4-20(5-3-19)14-12(18)8-10-13-16(14)25-7-6-21(13)9-11(15(10)22)17(23)24;/h8-9H,2-7H2,1H3,(H,23,24);1H",
        "InChIKey": null,
        "Canonical SMILES": "Cl.O=C(O)C1=CN2C3=C(SCC2)C(=C(F)C=C3C1=O)N4CCN(C)CC4",
        "Molecular Formula": "C<sub>17</sub>H<sub>18</sub>FN<sub>3</sub>O<sub>3</sub>S.ClH",
        "Molecular Mass": "",
        "Melting Point": "322-324 °C"
    }
}