{
    "cas_no": "124750-51-2",
    "key_name": "5-[4′-(Bromomethyl)[1,1′-biphenyl]-2-yl]-1-(triphenylmethyl)-1<em>H</em>-tetrazole",
    "cn_name": "N-(三苯基甲基)-5-(4\"-溴甲基联苯-2-基)四氮唑;",
    "alternate_name": "1<em>H</em>-Tetrazole, 5-[4′-(bromomethyl)[1,1′-biphenyl]-2-yl]-1-(triphenylmethyl)-;5-[4′-(Bromomethyl)[1,1′-biphenyl]-2-yl]-1-(triphenylmethyl)-1<em>H</em>-tetrazole;4′-Bromomethyl-2-(1-trityl-1<em>H</em>-tetrazol-5-yl)biphenyl;<em>N</em>-Triphenylmethyl-5-[2-(4′-bromomethylbiphenyl)]tetrazole;4-Bromomethyl-2′-[<em>N</em>-triphenylmethyl-1<em>H</em>-tetrazol-5-yl]biphenyl;4′-Bromomethyl-2-(1-triphenylmethyltetrazol-5-yl)biphenyl;[2′-(<em>N</em>-Trityltetrazol-5-yl)biphenyl-4-yl]methyl bromide;[2′-(1-Trityl-1<em>H</em>-tetrazol-5-yl)biphenyl-4-yl]methyl bromide;[2′-(Triphenylmethyl-1<em>H</em>-tetrazol-5-yl)biphenyl-4-yl]methyl bromide;4′-Bromomethyl-2-(<em>N</em>-trityl-1<em>H</em>-tetrazol-5-yl)biphenyl;<em>N</em>-Triphenylmethyl-5-[4′-(bromomethyl)biphenyl-2-yl]tetrazole;5-[4′-(Bromomethyl)biphenyl-2-yl]-<em>N</em>-(triphenylmethyl)tetrazole;4-[2′-(<em>N</em>-Triphenylmethyltetrazol-5-yl)phenyl]benzyl bromide;5-(4′-Bromomethylbiphenyl-2-yl)-1-trityl-1<em>H</em>-tetrazole;1-Triphenylmethyl-5-[4′-(bromomethyl)biphenyl-2-yl]tetrazole",
    "duplicated_cas_no": "",
    "SMILES": "C(N1C(=NN=N1)C2=C(C=CC=C2)C3=CC=C(CBr)C=C3)(C4=CC=CC=C4)(C5=CC=CC=C5)C6=CC=CC=C6",
    "meta_data": {
        "InChI": "InChI=1S/C33H25BrN4/c34-24-25-20-22-26(23-21-25)30-18-10-11-19-31(30)32-35-36-37-38(32)33(27-12-4-1-5-13-27,28-14-6-2-7-15-28)29-16-8-3-9-17-29/h1-23H,24H2",
        "InChIKey": null,
        "Canonical SMILES": "BrCC=1C=CC(=CC1)C=2C=CC=CC2C3=NN=NN3C(C=4C=CC=CC4)(C=5C=CC=CC5)C=6C=CC=CC6",
        "Molecular Formula": "C<sub>33</sub>H<sub>25</sub>BrN<sub>4</sub>",
        "Molecular Mass": "557.48",
        "Boiling Point": "61 °C @ Press: 12 mmHg",
        "Melting Point": "135-137 °C"
    }
}