{
    "cas_no": "15182-92-0",
    "key_name": "4-[2-(Dimethylamino)ethoxy]benzaldehyde",
    "cn_name": null,
    "alternate_name": "Benzaldehyde, 4-[2-(dimethylamino)ethoxy]-;Benzaldehyde, <em>p</em>-[2-(dimethylamino)ethoxy]-;4-[2-(Dimethylamino)ethoxy]benzaldehyde",
    "duplicated_cas_no": "",
    "SMILES": "O(CCN(C)C)C1=CC=C(C=O)C=C1",
    "meta_data": {
        "InChI": "InChI=1S/C11H15NO2/c1-12(2)7-8-14-11-5-3-10(9-13)4-6-11/h3-6,9H,7-8H2,1-2H3",
        "InChIKey": null,
        "Canonical SMILES": "O=CC1=CC=C(OCCN(C)C)C=C1",
        "Molecular Formula": "C<sub>11</sub>H<sub>15</sub>NO<sub>2</sub>",
        "Molecular Mass": "193.24",
        "Boiling Point": "145 °C @ Press: 2.2 Torr"
    }
}