{
    "cas_no": "105826-92-4",
    "key_name": "Tropisetron hydrochloride",
    "cn_name": "盐酸托烷司琼;8-甲基-8-氮杂双环[3,2,1]-3alpha-辛烷-1H-吲哚-3-羧酸酯盐酸盐;",
    "alternate_name": "1<em>H</em>-Indole-3-carboxylic acid, (3-<em>endo</em>)-8-methyl-8-azabicyclo[3.2.1]oct-3-yl ester, hydrochloride (1:1);1<em>H</em>-Indole-3-carboxylic acid, 8-methyl-8-azabicyclo[3.2.1]oct-3-yl ester, monohydrochloride, <em>endo</em>-;1<em>H</em>-Indole-3-carboxylic acid, (3-<em>endo</em>)-8-methyl-8-azabicyclo[3.2.1]oct-3-yl ester, monohydrochloride;SDZ-ICS 930;Novaban;Tropisetron hydrochloride",
    "duplicated_cas_no": "",
    "SMILES": "C(O[C@H]1C[C@@]2(N(C)[C@](C1)(CC2)[H])[H])(=O)C=3C=4C(NC3)=CC=CC4.Cl",
    "meta_data": {
        "InChI": "InChI=1/C17H20N2O2.ClH/c1-19-11-6-7-12(19)9-13(8-11)21-17(20)15-10-18-16-5-3-2-4-14(15)16;/h2-5,10-13,18H,6-9H2,1H3;1H/t11-,12+,13+;",
        "InChIKey": null,
        "Canonical SMILES": "Cl.O=C(OC1CC2N(C)C(CC2)C1)C3=CNC=4C=CC=CC43",
        "Molecular Formula": "C<sub>17</sub>H<sub>20</sub>N<sub>2</sub>O<sub>2</sub>.ClH",
        "Molecular Mass": "",
        "Melting Point": "283-285 °C"
    }
}