{
    "cas_no": "597-49-9",
    "key_name": "3-Ethyl-3-pentanol",
    "cn_name": "3-乙基-3-戊醇;三乙基甲醇;",
    "alternate_name": "3-Pentanol, 3-ethyl-;3-Ethyl-3-pentanol;Triethylcarbinol;Triethylmethanol;3-Ethyl-3-hydroxypentane;1,1-Diethyl-1-propanol;NSC 25500",
    "duplicated_cas_no": "",
    "SMILES": "C(CC)(CC)(CC)O",
    "meta_data": {
        "InChI": "InChI=1S/C7H16O/c1-4-7(8,5-2)6-3/h8H,4-6H2,1-3H3",
        "InChIKey": null,
        "Canonical SMILES": "OC(CC)(CC)CC",
        "Molecular Formula": "C<sub>7</sub>H<sub>16</sub>O",
        "Molecular Mass": "116.20",
        "Boiling Point": "142 °C",
        "Melting Point": "-12.5 °C",
        "Density": "0.8407 g/cm³ @ Temp: 22.4 °C"
    }
}