{
    "cas_no": "5471-51-2",
    "key_name": "4-(4′-Hydroxyphenyl)-2-butanone",
    "cn_name": "覆盆子酮;对羟基苯丁酮;",
    "alternate_name": "2-Butanone, 4-(4-hydroxyphenyl)-;2-Butanone, 4-(<em>p</em>-hydroxyphenyl)-;4-(4-Hydroxyphenyl)-2-butanone;(<em>p</em>-Hydroxybenzyl)acetone;4-(<em>p</em>-Hydroxyphenyl)-2-butanone;1-(<em>p</em>-Hydroxyphenyl)-3-butanone;Rheosmin;Raspberry ketone;Frambinone;1-(4-Hydroxyphenyl)-3-butanone;4-(4′-Hydroxyphenyl)-2-butanone;4-(3-Oxobutyl)phenol;Oxyphenylon;(4-Hydroxybenzyl)acetone;NSC 26515;4-(4-Hydroxy-1-phenyl)-2-butanone",
    "duplicated_cas_no": "1039415-63-8",
    "SMILES": "C(CC(C)=O)C1=CC=C(O)C=C1",
    "meta_data": {
        "InChI": "InChI=1S/C10H12O2/c1-8(11)2-3-9-4-6-10(12)7-5-9/h4-7,12H,2-3H2,1H3",
        "InChIKey": null,
        "Canonical SMILES": "O=C(C)CCC1=CC=C(O)C=C1",
        "Molecular Formula": "C<sub>10</sub>H<sub>12</sub>O<sub>2</sub>",
        "Molecular Mass": "164.20",
        "Boiling Point": "190-210 °C @ Press: 18 Torr",
        "Melting Point": "83.5-84.5 °C"
    }
}