{
    "cas_no": "7784-34-1",
    "key_name": "Arsenic chloride (AsCl<sub>3</sub>)",
    "cn_name": "三氯化砷;氯化亚砷;",
    "alternate_name": "Arsenous trichloride;Arsenic chloride (AsCl<sub>3</sub>);Arsenous chloride;Fuming liquid arsenic;Arsenic(III) chloride;Arsenic trichloride;Trichloroarsine;Arsenic(3+) chloride",
    "duplicated_cas_no": "8011-67-4",
    "SMILES": "[As](Cl)(Cl)Cl",
    "meta_data": {
        "InChI": "InChI=1S/AsCl3/c2-1(3)4",
        "InChIKey": null,
        "Canonical SMILES": "Cl[As](Cl)Cl",
        "Molecular Formula": "AsCl<sub>3</sub>",
        "Molecular Mass": "181.28",
        "Boiling Point": "130 °C",
        "Melting Point": "-16 °C",
        "Density": "2.1450 g/cm³ @ Temp: 25 °C"
    }
}