{
    "cas_no": "82-86-0",
    "key_name": "Acenaphthenequinone",
    "cn_name": "苊醌;萘并乙二酮;萘嵌戊二酮;二氧化苊;",
    "alternate_name": "1,2-Acenaphthylenedione;Acenaphthenequinone;1,2-Acenaphthenedione;1,2-Acenaphthenequinone;Acenaphthoquinone;Acenaphthenedione;Acenaphthylenequinone;Acenaphthylene-1,2-quinone;NSC 7656;Acenapthylen-1,2-dione;Acenaphthalen-1,2-dione;1,2-Dihydroacenaphthylene-1,2-dione",
    "duplicated_cas_no": "131213-20-2",
    "SMILES": "O=C1C2=C3C(C1=O)=CC=CC3=CC=C2",
    "meta_data": {
        "InChI": "InChI=1S/C12H6O2/c13-11-8-5-1-3-7-4-2-6-9(10(7)8)12(11)14/h1-6H",
        "InChIKey": null,
        "Canonical SMILES": "O=C1C(=O)C2=CC=CC3=CC=CC1=C32",
        "Molecular Formula": "C<sub>12</sub>H<sub>6</sub>O<sub>2</sub>",
        "Molecular Mass": "182.17",
        "Melting Point": "261 °C",
        "Density": "1.48 g/cm³"
    }
}