{
    "cas_no": "700-17-4",
    "key_name": "2,3,5,6-Tetrafluorobenzenamine",
    "cn_name": "2,3,5,6-四氟苯胺;",
    "alternate_name": "Benzenamine, 2,3,5,6-tetrafluoro-;Aniline, 2,3,5,6-tetrafluoro-;2,3,5,6-Tetrafluorobenzenamine;2,3,5,6-Tetrafluoroaniline;NSC 88347;2,3,5,6-Tetrafluorophenylamine",
    "duplicated_cas_no": "",
    "SMILES": "FC1=C(N)C(F)=C(F)C=C1F",
    "meta_data": {
        "InChI": "InChI=1S/C6H3F4N/c7-2-1-3(8)5(10)6(11)4(2)9/h1H,11H2",
        "InChIKey": null,
        "Canonical SMILES": "FC=1C=C(F)C(F)=C(N)C1F",
        "Molecular Formula": "C<sub>6</sub>H<sub>3</sub>F<sub>4</sub>N",
        "Molecular Mass": "165.09",
        "Boiling Point": "158 °C",
        "Melting Point": "31.5 °C"
    }
}