{
    "cas_no": "1005-24-9",
    "key_name": "1-Methylnicotinamide chloride",
    "cn_name": "3-氨基甲酰-1-甲基氯化吡啶;氯化-1-甲基烟酰胺;3-氨基羰基-1-甲基氯化吡啶鎓;",
    "alternate_name": "Pyridinium, 3-(aminocarbonyl)-1-methyl-, chloride (1:1);3-Carbamoyl-1-methylpyridinium chloride;Pyridinium, 3-carbamoyl-1-methyl-, chloride;Pyridinium, 3-(aminocarbonyl)-1-methyl-, chloride;3-Carbamyl-1-methylpyridinium chloride;<em>N</em><sup>1</sup>-Methylnicotinamide chloride;1-Methylnicotinamide chloride;Trigonellamide chloride;Nicotinamide methochloride;1-Methyl-3-carbamoylpyridinium chloride;3-(Aminocarbonyl)-1-methylpyridinium chloride;<em>N</em>-Methyl-3-carboxamidepyridinium chloride;<em>N</em>-Methylnicotinamide chloride;3-Carbamoyl-1-methylpyridin-1-ium chloride",
    "duplicated_cas_no": "776318-66-2",
    "SMILES": "C(N)(=O)C1=C[N+](C)=CC=C1.[Cl-]",
    "meta_data": {
        "InChI": "InChI=1S/C7H8N2O.ClH/c1-9-4-2-3-6(5-9)7(8)10;/h2-5H,1H3,(H-,8,10);1H",
        "InChIKey": null,
        "Canonical SMILES": "[Cl-].O=C(N)C1=CC=C[N+](=C1)C",
        "Molecular Formula": "C<sub>7</sub>H<sub>9</sub>N<sub>2</sub>O.Cl",
        "Molecular Mass": "",
        "Melting Point": "207-209 °C"
    }
}