{
    "cas_no": "31542-63-9",
    "key_name": "1,3-Dipropyl-7-methylxanthine",
    "cn_name": "1,3-二丙基-7-甲基黄嘌呤;",
    "alternate_name": "1<em>H</em>-Purine-2,6-dione, 3,7-dihydro-7-methyl-1,3-dipropyl-;Heteroxanthine, 1,3-dipropyl-;3,7-Dihydro-7-methyl-1,3-dipropyl-1<em>H</em>-purine-2,6-dione;7-Methyl-1,3-dipropylxanthine;1,3-Dipropylheteroxanthine;SC 5192;1,3-Dipropyl-7-methylxanthine",
    "duplicated_cas_no": "",
    "SMILES": "C(CC)N1C2=C(C(=O)N(CCC)C1=O)N(C)C=N2",
    "meta_data": {
        "InChI": "InChI=1S/C12H18N4O2/c1-4-6-15-10-9(14(3)8-13-10)11(17)16(7-5-2)12(15)18/h8H,4-7H2,1-3H3",
        "InChIKey": null,
        "Canonical SMILES": "O=C1C2=C(N=CN2C)N(C(=O)N1CCC)CCC",
        "Molecular Formula": "C<sub>12</sub>H<sub>18</sub>N<sub>4</sub>O<sub>2</sub>",
        "Molecular Mass": "250.30",
        "Melting Point": "114-116 °C"
    }
}