{
    "cas_no": "88965-00-8",
    "key_name": "6-Methyl-2-(4-methylphenyl)imidazo[1,2-<em>a</em>]pyridine",
    "cn_name": "6-甲基-2-(4-甲基苯基)咪唑[1,2-a]吡啶;",
    "alternate_name": "Imidazo[1,2-<em>a</em>]pyridine, 6-methyl-2-(4-methylphenyl)-;6-Methyl-2-(4-methylphenyl)imidazo[1,2-<em>a</em>]pyridine;2-(4-Methylphenyl)-6-methylimidazo[1,2-<em>a</em>]pyridine",
    "duplicated_cas_no": "",
    "SMILES": "CC1=CC=C(C=2N=C3N(C2)C=C(C)C=C3)C=C1",
    "meta_data": {
        "InChI": "InChI=1S/C15H14N2/c1-11-3-6-13(7-4-11)14-10-17-9-12(2)5-8-15(17)16-14/h3-10H,1-2H3",
        "InChIKey": null,
        "Canonical SMILES": "N=1C(=CN2C=C(C=CC12)C)C=3C=CC(=CC3)C",
        "Molecular Formula": "C<sub>15</sub>H<sub>14</sub>N<sub>2</sub>",
        "Molecular Mass": "222.29",
        "Melting Point": "227-229 °C"
    }
}