{
    "cas_no": "5219-61-4",
    "key_name": "2-(Phenylthio)acetonitrile",
    "cn_name": null,
    "alternate_name": "Acetonitrile, 2-(phenylthio)-;Acetonitrile, (phenylthio)-;2-(Phenylthio)acetonitrile;(Phenylthio)acetonitrile;Cyanomethyl phenyl sulfide;2-(Phenylsulfanyl)acetonitrile",
    "duplicated_cas_no": "",
    "SMILES": "S(CC#N)C1=CC=CC=C1",
    "meta_data": {
        "InChI": "InChI=1S/C8H7NS/c9-6-7-10-8-4-2-1-3-5-8/h1-5H,7H2",
        "InChIKey": null,
        "Canonical SMILES": "N#CCSC=1C=CC=CC1",
        "Molecular Formula": "C<sub>8</sub>H<sub>7</sub>NS",
        "Molecular Mass": "149.21",
        "Boiling Point": "146-147 °C @ Press: 14 Torr",
        "Melting Point": "99.2-103.4 °C"
    }
}