{
    "cas_no": "23095-31-0",
    "key_name": "3,4-Dimethoxybenzenesulfonyl chloride",
    "cn_name": "3,4-二甲氧基苯磺酰氯;",
    "alternate_name": "Benzenesulfonyl chloride, 3,4-dimethoxy-;3,4-Dimethoxybenzenesulfonyl chloride;3,4-Dimethoxyphenylsulfonyl chloride;3,4-Dimethoxybenzene-1-sulfonyl chloride;3,4-Bis(methoxy)benzenesulfonyl chloride",
    "duplicated_cas_no": "",
    "SMILES": "O(C)C1=C(OC)C=CC(S(Cl)(=O)=O)=C1",
    "meta_data": {
        "InChI": "InChI=1S/C8H9ClO4S/c1-12-7-4-3-6(14(9,10)11)5-8(7)13-2/h3-5H,1-2H3",
        "InChIKey": null,
        "Canonical SMILES": "O=S(=O)(Cl)C1=CC=C(OC)C(OC)=C1",
        "Molecular Formula": "C<sub>8</sub>H<sub>9</sub>ClO<sub>4</sub>S",
        "Molecular Mass": "236.67",
        "Melting Point": "63-66 °C"
    }
}