{
    "cas_no": "112-53-8",
    "key_name": "1-Dodecanol",
    "cn_name": "十二醇;月桂醇;正十二烷醇;",
    "alternate_name": "1-Dodecanol;Dodecyl alcohol;<em>n</em>-Dodecyl alcohol;Lauric alcohol;Laurinic alcohol;Lauryl 24;Lauryl alcohol;Sipol L 12;Pisol;Siponol L 2;Siponol L 5;Siponol 25;<em>n</em>-Dodecan-1-ol;Alfol 12;S 1298;1-Dodecyl alcohol;1-Hydroxydodecane;Kalcohl 20;NAA 42;Conol 20P;Lorol C 12;Adol 10;Adol 11;Adol 12;Conol 20PP;Kalcohl 2098;Hainol 12SS;Nacol 12-96;Epal 12;Lorol C 12/98;NSC 3724;Conol 1275;K 20 (alcohol);K 20;Kalcol 2098;C 1214N;Lipocol L;Nacol 12-99;Magnol 1216MB",
    "duplicated_cas_no": "1322-35-6;8014-32-2;8032-08-4;8032-09-5;8032-10-8;68855-55-0;1173838-88-4",
    "SMILES": "C(CCCCCC)CCCCCO",
    "meta_data": {
        "InChI": "InChI=1S/C12H26O/c1-2-3-4-5-6-7-8-9-10-11-12-13/h13H,2-12H2,1H3",
        "InChIKey": null,
        "Canonical SMILES": "OCCCCCCCCCCCC",
        "Molecular Formula": "C<sub>12</sub>H<sub>26</sub>O",
        "Molecular Mass": "186.33",
        "Boiling Point": "259 °C @ Press: 760 Torr",
        "Melting Point": "24 °C",
        "Density": "0.8309 g/cm³ @ Temp: 24 °C"
    }
}