{
    "cas_no": "14091-11-3",
    "key_name": "2-Chlorophenylalanine",
    "cn_name": "2-氯苯丙氨酸;",
    "alternate_name": "Phenylalanine, 2-chloro-;Alanine, 3-(<em>o</em>-chlorophenyl)-, <span class=\"text-smallcaps\">DL</span>-;<span class=\"text-smallcaps\">DL</span>-Phenylalanine, 2-chloro-;2-Chlorophenylalanine;<em>o</em>-Chloro-<span class=\"text-smallcaps\">DL</span>-phenylalanine;<span class=\"text-smallcaps\">DL</span>-2-Chlorophenylalanine;NSC 154946;NSC 233876;NSC 28185;2-Amino-3-(2-chlorophenyl)propanoic acid;2-Chloro-<span class=\"text-smallcaps\">D</smallcap><smallcap>L</span>-PhenyLalanine;2-Amino-3-(2-chlorophenyl)propanoicacid",
    "duplicated_cas_no": "1991-77-1",
    "SMILES": "C(C(C(O)=O)N)C1=C(Cl)C=CC=C1",
    "meta_data": {
        "InChI": "InChI=1S/C9H10ClNO2/c10-7-4-2-1-3-6(7)5-8(11)9(12)13/h1-4,8H,5,11H2,(H,12,13)",
        "InChIKey": null,
        "Canonical SMILES": "O=C(O)C(N)CC=1C=CC=CC1Cl",
        "Molecular Formula": "C<sub>9</sub>H<sub>10</sub>ClNO<sub>2</sub>",
        "Molecular Mass": "199.63",
        "Melting Point": "216-219 °C"
    }
}