{
    "cas_no": "1829-22-7",
    "key_name": "2-Iodo-1,4-benzenedicarboxylic acid",
    "cn_name": null,
    "alternate_name": "1,4-Benzenedicarboxylic acid, 2-iodo-;Terephthalic acid, iodo-;2-Iodo-1,4-benzenedicarboxylic acid;Iodoterephthalic acid;2-Iodoterephthalic acid",
    "duplicated_cas_no": "",
    "SMILES": "C(O)(=O)C1=CC(I)=C(C(O)=O)C=C1",
    "meta_data": {
        "InChI": "InChI=1S/C8H5IO4/c9-6-3-4(7(10)11)1-2-5(6)8(12)13/h1-3H,(H,10,11)(H,12,13)",
        "InChIKey": null,
        "Canonical SMILES": "O=C(O)C1=CC=C(C(=O)O)C(I)=C1",
        "Molecular Formula": "C<sub>8</sub>H<sub>5</sub>IO<sub>4</sub>",
        "Molecular Mass": "292.03",
        "Melting Point": "299-300 °C"
    }
}