{
    "cas_no": "1120-16-7",
    "key_name": "Dodecanamide",
    "cn_name": "月桂酰胺;十二酰胺;",
    "alternate_name": "Dodecanamide;Lauramide;Amide KK;Lauric amide;Lauryl amide;Dodecylamide;Dodecamide;Diamid Y;Lauroyl amide;Armid 12;NSC 26630;NSC 889",
    "duplicated_cas_no": "8014-77-5",
    "SMILES": "C(CCCCCCCC)CCC(N)=O",
    "meta_data": {
        "InChI": "InChI=1S/C12H25NO/c1-2-3-4-5-6-7-8-9-10-11-12(13)14/h2-11H2,1H3,(H2,13,14)",
        "InChIKey": null,
        "Canonical SMILES": "O=C(N)CCCCCCCCCCC",
        "Molecular Formula": "C<sub>12</sub>H<sub>25</sub>NO",
        "Molecular Mass": "199.33",
        "Melting Point": "110 °C"
    }
}