{
    "cas_no": "75847-73-3",
    "key_name": "Enalapril",
    "cn_name": "依那普利;(S)-1-(N-(1-(乙氧羰基)-3-苯丙基)-L-丙氨酰基)-L-脯氨酸;",
    "alternate_name": "<span class=\"text-smallcaps\">L</smallcap>-Proline, <em>N</em>-[(1<em>S</em>)-1-(ethoxycarbonyl)-3-phenylpropyl]-<smallcap>L</span>-alanyl-;<span class=\"text-smallcaps\">L</smallcap>-Proline, 1-[<em>N</em>-[1-(ethoxycarbonyl)-3-phenylpropyl]-<smallcap>L</span>-alanyl]-, (<em>S</em>)-;<em>N</em>-[(1<em>S</em>)-1-(Ethoxycarbonyl)-3-phenylpropyl]-<span class=\"text-smallcaps\">L</smallcap>-alanyl-<smallcap>L</span>-proline;Enalapril;Enarenal;MeSH ID: D004656",
    "duplicated_cas_no": "77549-58-7;172964-46-4",
    "SMILES": "C([C@@H](N[C@@H](CCC1=CC=CC=C1)C(OCC)=O)C)(=O)N2[C@H](C(O)=O)CCC2",
    "meta_data": {
        "InChI": "InChI=1S/C20H28N2O5/c1-3-27-20(26)16(12-11-15-8-5-4-6-9-15)21-14(2)18(23)22-13-7-10-17(22)19(24)25/h4-6,8-9,14,16-17,21H,3,7,10-13H2,1-2H3,(H,24,25)/t14-,16-,17-/m0/s1",
        "InChIKey": null,
        "Canonical SMILES": "O=C(O)C1N(C(=O)C(NC(C(=O)OCC)CCC=2C=CC=CC2)C)CCC1",
        "Molecular Formula": "C<sub>20</sub>H<sub>28</sub>N<sub>2</sub>O<sub>5</sub>",
        "Molecular Mass": "376.45",
        "Melting Point": "143-144 °C"
    }
}