{
    "cas_no": "6627-78-7",
    "key_name": "1-Bromo-4-methylnaphthalene",
    "cn_name": "1-溴-4-甲基萘;",
    "alternate_name": "Naphthalene, 1-bromo-4-methyl-;1-Bromo-4-methylnaphthalene;4-Bromo-1-methylnaphthalene;4-Methyl-1-bromonaphthalene;NSC 60231;1-Methyl-4-bromonaphthalene",
    "duplicated_cas_no": "",
    "SMILES": "BrC=1C2=C(C(C)=CC1)C=CC=C2",
    "meta_data": {
        "InChI": "InChI=1S/C11H9Br/c1-8-6-7-11(12)10-5-3-2-4-9(8)10/h2-7H,1H3",
        "InChIKey": null,
        "Canonical SMILES": "BrC1=CC=C(C=2C=CC=CC12)C",
        "Molecular Formula": "C<sub>11</sub>H<sub>9</sub>Br",
        "Molecular Mass": "221.09",
        "Boiling Point": "162-164 °C @ Press: 12 Torr",
        "Melting Point": "5.5-6.0 °C"
    }
}