{
    "cas_no": "38520-57-9",
    "key_name": "<em>N</em>-Acetylcysteine amide",
    "cn_name": null,
    "alternate_name": "Propanamide, 2-(acetylamino)-3-mercapto-, (2<em>R</em>)-;Propanamide, 2-(acetylamino)-3-mercapto-, (<em>R</em>)-;(2<em>R</em>)-2-(Acetylamino)-3-mercaptopropanamide;<em>N</em>-Acetyl-<span class=\"text-smallcaps\">L</span>-cysteinamide;<em>N</em>-Acetylcysteine amide;(2R)-2-Acetamido-3-sulfanylpropanamide;(R)-2-Acetamido-3-mercaptopropanamide;<em>N</em>-Acetyl-<span class=\"text-smallcaps\">L</span>-cysteine amide",
    "duplicated_cas_no": "",
    "SMILES": "[C@@H](NC(C)=O)(C(N)=O)CS",
    "meta_data": {
        "InChI": "InChI=1S/C5H10N2O2S/c1-3(8)7-4(2-10)5(6)9/h4,10H,2H2,1H3,(H2,6,9)(H,7,8)/t4-/m0/s1",
        "InChIKey": null,
        "Canonical SMILES": "O=C(NC(C(=O)N)CS)C",
        "Molecular Formula": "C<sub>5</sub>H<sub>10</sub>N<sub>2</sub>O<sub>2</sub>S",
        "Molecular Mass": "162.21",
        "Melting Point": "147-149 °C"
    }
}