{
    "cas_no": "6485-67-2",
    "key_name": "<span class=\"text-smallcaps\">D</span>-Phenylglycine amide",
    "cn_name": "左旋苯甘氨酸酰胺;左旋苯甘氨酰胺;",
    "alternate_name": "Benzeneacetamide, α-amino-, (α<em>R</em>)-;Acetamide, 2-amino-2-phenyl-, <span class=\"text-smallcaps\">D</span>-;Benzeneacetamide, α-amino-, (<em>R</em>)-;(α<em>R</em>)-α-Aminobenzeneacetamide;<span class=\"text-smallcaps\">D</span>-Phenylglycinamide;<span class=\"text-smallcaps\">D</span>-2-Phenylglycinamide;<span class=\"text-smallcaps\">D</span>-Phenylglycine amide;(<em>R</em>)-Phenylglycinamide;(<em>R</em>)-2-Aminophenylacetamide;(2<em>R</em>)-2-Amino-2-phenylethanamide;(R)-2-Amino-2-phenylacetamide;(<em>R</em>)-2-Phenylglycine amide;(2R)-2-Amino-2-phenylacetamide",
    "duplicated_cas_no": "",
    "SMILES": "[C@@H](C(N)=O)(N)C1=CC=CC=C1",
    "meta_data": {
        "InChI": "InChI=1S/C8H10N2O/c9-7(8(10)11)6-4-2-1-3-5-6/h1-5,7H,9H2,(H2,10,11)/t7-/m1/s1",
        "InChIKey": null,
        "Canonical SMILES": "O=C(N)C(N)C=1C=CC=CC1",
        "Molecular Formula": "C<sub>8</sub>H<sub>10</sub>N<sub>2</sub>O",
        "Molecular Mass": "150.18",
        "Melting Point": "239 °C"
    }
}