{
    "cas_no": "71771-90-9",
    "key_name": "Denopamine",
    "cn_name": "地诺帕明;",
    "alternate_name": "Benzenemethanol, α-[[[2-(3,4-dimethoxyphenyl)ethyl]amino]methyl]-4-hydroxy-, (α<em>R</em>)-;Benzenemethanol, α-[[[2-(3,4-dimethoxyphenyl)ethyl]amino]methyl]-4-hydroxy-, (<em>R</em>)-;(α<em>R</em>)-α-[[[2-(3,4-Dimethoxyphenyl)ethyl]amino]methyl]-4-hydroxybenzenemethanol;TA 064;Denopamine;(-)-Denopamine;Carguto;Kalgut;(<em>R</em>)-(-)-Denopamine",
    "duplicated_cas_no": "",
    "SMILES": "C(CNC[C@H](O)C1=CC=C(O)C=C1)C2=CC(OC)=C(OC)C=C2",
    "meta_data": {
        "InChI": "InChI=1S/C18H23NO4/c1-22-17-8-3-13(11-18(17)23-2)9-10-19-12-16(21)14-4-6-15(20)7-5-14/h3-8,11,16,19-21H,9-10,12H2,1-2H3/t16-/m0/s1",
        "InChIKey": null,
        "Canonical SMILES": "OC1=CC=C(C=C1)C(O)CNCCC2=CC=C(OC)C(OC)=C2",
        "Molecular Formula": "C<sub>18</sub>H<sub>23</sub>NO<sub>4</sub>",
        "Molecular Mass": "317.38",
        "Melting Point": "160-161 °C"
    }
}