{
    "cas_no": "208245-76-5",
    "key_name": "5<em>H</em>-1,4-Diazepin-5-one, hexahydro-, hydrochloride (1:1)",
    "cn_name": null,
    "alternate_name": "5<em>H</em>-1,4-Diazepin-5-one, hexahydro-, hydrochloride (1:1);5<em>H</em>-1,4-Diazepin-5-one, hexahydro-, monohydrochloride;1,4-Diazepan-5-one hydrochloride",
    "duplicated_cas_no": "",
    "SMILES": "O=C1CCNCCN1.Cl",
    "meta_data": {
        "InChI": "InChI=1S/C5H10N2O.ClH/c8-5-1-2-6-3-4-7-5;/h6H,1-4H2,(H,7,8);1H",
        "InChIKey": null,
        "Canonical SMILES": "Cl.O=C1NCCNCC1",
        "Molecular Formula": "C<sub>5</sub>H<sub>10</sub>N<sub>2</sub>O.ClH",
        "Molecular Mass": "",
        "Melting Point": "223-225 °C"
    }
}