{
    "cas_no": "140-26-1",
    "key_name": "Phenylethyl isovalerate",
    "cn_name": "异戊酸苯乙酯;3-甲基丁酸-2-苯乙酯;",
    "alternate_name": "Butanoic acid, 3-methyl-, 2-phenylethyl ester;Isovaleric acid, phenethyl ester;Phenethyl isovalerate;Phenylethyl isovalerate;Phenylethyl 3-methylbutyrate;β-Phenylethyl isovalerate;2-Phenylethyl 3-methylbutanoate;2-Phenylethyl isovalerate;2-Phenylethyl 3-methylbutyrate;NSC 21899;Phenylethyl 3-methylbutanoate",
    "duplicated_cas_no": "",
    "SMILES": "C(COC(CC(C)C)=O)C1=CC=CC=C1",
    "meta_data": {
        "InChI": "InChI=1S/C13H18O2/c1-11(2)10-13(14)15-9-8-12-6-4-3-5-7-12/h3-7,11H,8-10H2,1-2H3",
        "InChIKey": null,
        "Canonical SMILES": "O=C(OCCC=1C=CC=CC1)CC(C)C",
        "Molecular Formula": "C<sub>13</sub>H<sub>18</sub>O<sub>2</sub>",
        "Molecular Mass": "206.28",
        "Boiling Point": "264 °C",
        "Density": "0.9791 g/cm³ @ Temp: 20 °C"
    }
}