{
    "cas_no": "611-69-8",
    "key_name": "2-Methyl-1-phenyl-1-propanol",
    "cn_name": "2-甲基-1-苯基-1-丙醇;",
    "alternate_name": "Benzenemethanol, α-(1-methylethyl)-;Benzyl alcohol, α-isopropyl-;α-(1-Methylethyl)benzenemethanol;1-Hydroxy-2-methyl-1-phenylpropane;2-Methyl-1-phenylpropanol;α-Isopropylbenzyl alcohol;Isopropylphenylcarbinol;2-Methyl-1-phenyl-1-propanol;1-Phenyl-2-methylpropyl alcohol;(<em>RS</em>)-1-Phenyl-2-methylpropan-1-ol;(±)-2-Methyl-1-phenyl-1-propanol;(±)-1-Phenyl-2-methyl-1-propanol;(±)-α-Isopropylbenzenemethanol;(±)-α-(1-Methylethyl)benzenemethanol;NSC 24661;(±)-1-Phenyl-2-methylpropanol;1-Phenyl-2-methyl-1-propanol",
    "duplicated_cas_no": "63180-93-8",
    "SMILES": "C(C(C)C)(O)C1=CC=CC=C1",
    "meta_data": {
        "InChI": "InChI=1S/C10H14O/c1-8(2)10(11)9-6-4-3-5-7-9/h3-8,10-11H,1-2H3",
        "InChIKey": null,
        "Canonical SMILES": "OC(C=1C=CC=CC1)C(C)C",
        "Molecular Formula": "C<sub>10</sub>H<sub>14</sub>O",
        "Molecular Mass": "150.22",
        "Boiling Point": "223 °C",
        "Density": "0.9933 g/cm³ @ Temp: 0 °C"
    }
}