{
    "cas_no": "10406-06-1",
    "key_name": "5-Bromo-1<em>H</em>-indole-3-carboxylic acid",
    "cn_name": "5-溴吲哚-3-甲酸;",
    "alternate_name": "1<em>H</em>-Indole-3-carboxylic acid, 5-bromo-;Indole-3-carboxylic acid, 5-bromo-;5-Bromo-1<em>H</em>-indole-3-carboxylic acid;5-Bromoindole-3-carboxylic acid",
    "duplicated_cas_no": "",
    "SMILES": "C(O)(=O)C=1C=2C(NC1)=CC=C(Br)C2",
    "meta_data": {
        "InChI": "InChI=1S/C9H6BrNO2/c10-5-1-2-8-6(3-5)7(4-11-8)9(12)13/h1-4,11H,(H,12,13)",
        "InChIKey": null,
        "Canonical SMILES": "O=C(O)C1=CNC=2C=CC(Br)=CC21",
        "Molecular Formula": "C<sub>9</sub>H<sub>6</sub>BrNO<sub>2</sub>",
        "Molecular Mass": "240.05",
        "Melting Point": "238-240 °C (decomp)"
    }
}