{
    "cas_no": "41171-91-9",
    "key_name": "3-Oxocyclopentanecarbonitrile",
    "cn_name": null,
    "alternate_name": "Cyclopentanecarbonitrile, 3-oxo-;3-Oxocyclopentanecarbonitrile;3-Cyanocyclopentanone;3-Oxocyclopentane-1-carbonitrile",
    "duplicated_cas_no": "",
    "SMILES": "C(#N)C1CC(=O)CC1",
    "meta_data": {
        "InChI": "InChI=1S/C6H7NO/c7-4-5-1-2-6(8)3-5/h5H,1-3H2",
        "InChIKey": null,
        "Canonical SMILES": "N#CC1CC(=O)CC1",
        "Molecular Formula": "C<sub>6</sub>H<sub>7</sub>NO",
        "Molecular Mass": "109.13",
        "Boiling Point": "250-270 °C @ Press: 1 Torr"
    }
}