{
    "cas_no": "565-61-7",
    "key_name": "(±)-3-Methyl-2-pentanone",
    "cn_name": "3-甲基-2-戊酮;甲基仲丁基酮;",
    "alternate_name": "2-Pentanone, 3-methyl-;3-Methyl-2-pentanone;Methyl <em>sec</em>-butyl ketone;<em>sec</em>-Butyl methyl ketone;Methyl 1-methylpropyl ketone;(±)-3-Methyl-2-pentanone;NSC 66492",
    "duplicated_cas_no": "55156-16-6",
    "SMILES": "C(C(C)=O)(CC)C",
    "meta_data": {
        "InChI": "InChI=1S/C6H12O/c1-4-5(2)6(3)7/h5H,4H2,1-3H3",
        "InChIKey": null,
        "Canonical SMILES": "O=C(C)C(C)CC",
        "Molecular Formula": "C<sub>6</sub>H<sub>12</sub>O",
        "Molecular Mass": "100.16",
        "Boiling Point": "118 °C",
        "Density": "0.8145 g/cm³ @ Temp: 15 °C"
    }
}