{
    "cas_no": "75903-62-7",
    "key_name": "4-Amino-3-pyridinesulfonamide",
    "cn_name": "4-氨基吡啶-3-磺酰胺;",
    "alternate_name": "3-Pyridinesulfonamide, 4-amino-;4-Amino-3-pyridinesulfonamide;4-Amino-3-pyridylsulfonamide;4-Aminopyridine-3-sulfonic acid amide",
    "duplicated_cas_no": "",
    "SMILES": "S(N)(=O)(=O)C=1C(N)=CC=NC1",
    "meta_data": {
        "InChI": "InChI=1S/C5H7N3O2S/c6-4-1-2-8-3-5(4)11(7,9)10/h1-3H,(H2,6,8)(H2,7,9,10)",
        "InChIKey": null,
        "Canonical SMILES": "O=S(=O)(N)C=1C=NC=CC1N",
        "Molecular Formula": "C<sub>5</sub>H<sub>7</sub>N<sub>3</sub>O<sub>2</sub>S",
        "Molecular Mass": "173.19",
        "Melting Point": "213-215 °C"
    }
}