{
    "cas_no": "3430-22-6",
    "key_name": "3-Bromo-4-methylpyridine",
    "cn_name": "4-甲基-3-溴吡啶;",
    "alternate_name": "Pyridine, 3-bromo-4-methyl-;4-Picoline, 3-bromo-;3-Bromo-4-methylpyridine;3-Bromo-4-picoline;4-Methyl-3-bromopyridine",
    "duplicated_cas_no": "",
    "SMILES": "BrC=1C(C)=CC=NC1",
    "meta_data": {
        "InChI": "InChI=1S/C6H6BrN/c1-5-2-3-8-4-6(5)7/h2-4H,1H3",
        "InChIKey": null,
        "Canonical SMILES": "BrC=1C=NC=CC1C",
        "Molecular Formula": "C<sub>6</sub>H<sub>6</sub>BrN",
        "Molecular Mass": "172.02",
        "Boiling Point": "47-48 °C @ Press: 0.6 Torr"
    }
}