{
    "cas_no": "408492-27-3",
    "key_name": "2,6-Dichloro-4-(4,4,5,5-tetramethyl-1,3,2-dioxaborolan-2-yl)pyridine",
    "cn_name": null,
    "alternate_name": "Pyridine, 2,6-dichloro-4-(4,4,5,5-tetramethyl-1,3,2-dioxaborolan-2-yl)-;2,6-Dichloro-4-(4,4,5,5-tetramethyl-1,3,2-dioxaborolan-2-yl)pyridine;2-(2,6-Dichloro-4-pyridinyl)-4,4,5,5-tetramethyl-1,3,2-dioxaborolane;2,6-Dichloro-4-(pinacolboryl)pyridine;2,6-Dichloro-4-(4,4,5,5′-tetramethyl-1,3,2-dioxaborolan-2-yl)pyridine;2,6-Dichloro-4-(tetramethyl-1,3,2-dioxaborolan-2-yl)pyridine;2,6-Dichloropyridine-4-boronic acid pinacol ester;(2,6-Dichloropyridin-4-yl)boronic acid pinacol ester",
    "duplicated_cas_no": "",
    "SMILES": "CC1(C)OB(OC1(C)C)C=2C=C(Cl)N=C(Cl)C2",
    "meta_data": {
        "InChI": "InChI=1S/C11H14BCl2NO2/c1-10(2)11(3,4)17-12(16-10)7-5-8(13)15-9(14)6-7/h5-6H,1-4H3",
        "InChIKey": null,
        "Canonical SMILES": "ClC=1N=C(Cl)C=C(C1)B2OC(C)(C)C(O2)(C)C",
        "Molecular Formula": "C<sub>11</sub>H<sub>14</sub>BCl<sub>2</sub>NO<sub>2</sub>",
        "Molecular Mass": "273.95",
        "Melting Point": "118-119 °C"
    }
}