{
    "cas_no": "597-05-7",
    "key_name": "3-Ethyl-2-methyl-3-pentanol",
    "cn_name": "3-乙基-2-甲基-3-戊醇;3-乙基-2-甲基-3-戊醇;",
    "alternate_name": "3-Pentanol, 3-ethyl-2-methyl-;3-Ethyl-2-methyl-3-pentanol;Diethylisopropylcarbinol;NSC 900",
    "duplicated_cas_no": "",
    "SMILES": "C(C(C)C)(CC)(CC)O",
    "meta_data": {
        "InChI": "InChI=1S/C8H18O/c1-5-8(9,6-2)7(3)4/h7,9H,5-6H2,1-4H3",
        "InChIKey": null,
        "Canonical SMILES": "OC(CC)(CC)C(C)C",
        "Molecular Formula": "C<sub>8</sub>H<sub>18</sub>O",
        "Molecular Mass": "130.23",
        "Boiling Point": "160 °C"
    }
}