{
    "cas_no": "3672-39-7",
    "key_name": "3-Formyl-2-phenylimidazo[1,2-<em>a</em>]pyridine",
    "cn_name": "2-苯基咪唑并[1,2-A]吡啶-3-甲醛;",
    "alternate_name": "Imidazo[1,2-<em>a</em>]pyridine-3-carboxaldehyde, 2-phenyl-;2-Phenylimidazo[1,2-<em>a</em>]pyridine-3-carboxaldehyde;3-Formyl-2-phenylimidazo[1,2-<em>a</em>]pyridine;2-Phenylimidazo[1,2-<em>a</em>]pyridine-3-carbaldehyde",
    "duplicated_cas_no": "",
    "SMILES": "C(=O)C1=C(N=C2N1C=CC=C2)C3=CC=CC=C3",
    "meta_data": {
        "InChI": "InChI=1S/C14H10N2O/c17-10-12-14(11-6-2-1-3-7-11)15-13-8-4-5-9-16(12)13/h1-10H",
        "InChIKey": null,
        "Canonical SMILES": "O=CC1=C(N=C2C=CC=CN21)C=3C=CC=CC3",
        "Molecular Formula": "C<sub>14</sub>H<sub>10</sub>N<sub>2</sub>O",
        "Molecular Mass": "222.24",
        "Melting Point": "145-146 °C"
    }
}