{
    "cas_no": "41252-97-5",
    "key_name": "4-Iodo-2-nitrotoluene",
    "cn_name": "4-碘-2-硝基甲苯;",
    "alternate_name": "Benzene, 4-iodo-1-methyl-2-nitro-;4-Iodo-1-methyl-2-nitrobenzene;4-Iodo-2-nitrotoluene;3-Iodo-6-methylnitrobenzene;1-Iodo-4-methyl-3-nitrobenzene;4-Methyl-3-nitrophenyl iodide",
    "duplicated_cas_no": "",
    "SMILES": "N(=O)(=O)C1=C(C)C=CC(I)=C1",
    "meta_data": {
        "InChI": "InChI=1S/C7H6INO2/c1-5-2-3-6(8)4-7(5)9(10)11/h2-4H,1H3",
        "InChIKey": null,
        "Canonical SMILES": "O=N(=O)C1=CC(I)=CC=C1C",
        "Molecular Formula": "C<sub>7</sub>H<sub>6</sub>INO<sub>2</sub>",
        "Molecular Mass": "263.03",
        "Melting Point": "52-53 °C"
    }
}