{
    "cas_no": "131-09-9",
    "key_name": "2-Chloroanthraquinone",
    "cn_name": "2-氯蒽醌;",
    "alternate_name": "9,10-Anthracenedione, 2-chloro-;Anthraquinone, 2-chloro-;2-Chloro-9,10-anthracenedione;β-Chloroanthraquinone;2-Chloroanthraquinone;2-Chloro-9,10-anthraquinone;NSC 1702;2-Chloro-9,10-dihydroanthracene-9,10-dione",
    "duplicated_cas_no": "",
    "SMILES": "O=C1C=2C(C(=O)C=3C1=CC=CC3)=CC=C(Cl)C2",
    "meta_data": {
        "InChI": "InChI=1S/C14H7ClO2/c15-8-5-6-11-12(7-8)14(17)10-4-2-1-3-9(10)13(11)16/h1-7H",
        "InChIKey": null,
        "Canonical SMILES": "O=C1C=2C=CC=CC2C(=O)C3=CC(Cl)=CC=C13",
        "Molecular Formula": "C<sub>14</sub>H<sub>7</sub>ClO<sub>2</sub>",
        "Molecular Mass": "242.66",
        "Melting Point": "211 °C"
    }
}