{
    "cas_no": "120-82-1",
    "key_name": "1,2,4-Trichlorobenzene",
    "cn_name": "三氯苯;1,2,4-三氯苯;",
    "alternate_name": "Benzene, 1,2,4-trichloro-;1,2,4-Trichlorobenzene;<em>unsym</em>-Trichlorobenzene;1,2,4-Trichlorobenzol;1,2,5-Trichlorobenzene;Hostetex L-PEC;1,3,4-Trichlorobenzene;NSC 406697",
    "duplicated_cas_no": "",
    "SMILES": "ClC1=C(Cl)C=CC(Cl)=C1",
    "meta_data": {
        "InChI": "InChI=1S/C6H3Cl3/c7-4-1-2-5(8)6(9)3-4/h1-3H",
        "InChIKey": null,
        "Canonical SMILES": "ClC1=CC=C(Cl)C(Cl)=C1",
        "Molecular Formula": "C<sub>6</sub>H<sub>3</sub>Cl<sub>3</sub>",
        "Molecular Mass": "181.45",
        "Boiling Point": "213.5 °C @ Press: 760 Torr",
        "Melting Point": "17 °C",
        "Density": "1.5 g/cm³"
    }
}