{
    "cas_no": "1585-16-6",
    "key_name": "2,4,6-Trimethylbenzyl chloride",
    "cn_name": "2,4,6-三甲基氯苄;",
    "alternate_name": "Benzene, 2-(chloromethyl)-1,3,5-trimethyl-;2-(Chloromethyl)-1,3,5-trimethylbenzene;1-Chloromethyl-2,4,6-trimethylbenzene;2,4,6-Trimethylbenzyl chloride;α<sup>2</sup>-Chloroisodurene;(Chloromethyl)mesitylene;Mesitylmethyl chloride;<em>o</em>,<em>o</em>,<em>p</em>-Trimethylbenzyl chloride;α-Chloroisodurene;NSC 405484;1,3,5-Trimethyl-2-(chloromethyl)benzene;2-Chloromethyl-1,3,5-trimethylbenzene",
    "duplicated_cas_no": "",
    "SMILES": "C(Cl)C1=C(C)C=C(C)C=C1C",
    "meta_data": {
        "InChI": "InChI=1S/C10H13Cl/c1-7-4-8(2)10(6-11)9(3)5-7/h4-5H,6H2,1-3H3",
        "InChIKey": null,
        "Canonical SMILES": "ClCC=1C(=CC(=CC1C)C)C",
        "Molecular Formula": "C<sub>10</sub>H<sub>13</sub>Cl",
        "Molecular Mass": "168.66",
        "Boiling Point": "119 °C @ Press: 15 Torr",
        "Melting Point": "37 °C"
    }
}