{
    "cas_no": "651-06-9",
    "key_name": "Sulfamethoxydiazine",
    "cn_name": "磺胺对甲氧嘧啶;2-(对氨基苯磺酰氨基)-5-甲氧基嘧啶;",
    "alternate_name": "Benzenesulfonamide, 4-amino-<em>N</em>-(5-methoxy-2-pyrimidinyl)-;Sulfanilamide, <em>N</em><sup>1</sup>-(5-methoxy-2-pyrimidinyl)-;4-Amino-<em>N</em>-(5-methoxy-2-pyrimidinyl)benzenesulfonamide;AHR 857;BAY 5400;2-(4-Aminobenzenesulfonamido)-5-methoxypyrimidine;Bayrena;Durenat;Kiron;Methoxypyrimal;<em>N</em><sup>1</sup>-(5-Methoxy-2-pyrimidinyl)sulfanilamide;5-Methoxy-2-sulfanilamidopyrimidine;Sulfameter;Sulfamethoxine;Sulfamethoxydiazine;Sulfamethoxydin;Sulfamethoxypyrimidine;Sulfametin;2-Sulfanilamido-5-methoxypyrimidine;Sulla;Sulphamethoxydiazine;Sulphameter;Longasulf;SH 613;Berlicid;Kirocid;Ultrax;2-Sulfa-5-methoxypyrimidine;Sulfametoxydiazine;I 2586;Kinecid;Sulfametorine;5-Methoxysulfadiazine;NSC 683528;<em>N</em>-(5-Methoxypyrimidin-2-yl)-4-aminobenzenesulfonamide",
    "duplicated_cas_no": "",
    "SMILES": "S(NC=1N=CC(OC)=CN1)(=O)(=O)C2=CC=C(N)C=C2",
    "meta_data": {
        "InChI": "InChI=1S/C11H12N4O3S/c1-18-9-6-13-11(14-7-9)15-19(16,17)10-4-2-8(12)3-5-10/h2-7H,12H2,1H3,(H,13,14,15)",
        "InChIKey": null,
        "Canonical SMILES": "O=S(=O)(NC1=NC=C(OC)C=N1)C2=CC=C(N)C=C2",
        "Molecular Formula": "C<sub>11</sub>H<sub>12</sub>N<sub>4</sub>O<sub>3</sub>S",
        "Molecular Mass": "280.30",
        "Melting Point": "214-216 °C"
    }
}