{
    "cas_no": "661-69-8",
    "key_name": "Hexamethylditin",
    "cn_name": "六甲基二锡;",
    "alternate_name": "Distannane, 1,1,1,2,2,2-hexamethyl-;Distannane, hexamethyl-;Tin, hexamethyldi-;1,1,1,2,2,2-Hexamethyldistannane;Hexamethylditin;TD 5032;Pennsalt TD 5032;Hexamethyldistannane;Trimethyltin dimer;NSC 227328;Trimethyl (trimethylstannyl)stannane",
    "duplicated_cas_no": "",
    "SMILES": "[Sn]([Sn](C)(C)C)(C)(C)C",
    "meta_data": {
        "InChI": "InChI=1S/6CH3.2Sn/h6*1H3;;",
        "InChIKey": null,
        "Canonical SMILES": "C[Sn](C)(C)[Sn](C)(C)C",
        "Molecular Formula": "C<sub>6</sub>H<sub>18</sub>Sn<sub>2</sub>",
        "Molecular Mass": "327.63",
        "Boiling Point": "85-88 °C @ Press: 45 Torr",
        "Melting Point": "23-24 °C",
        "Density": "1.57 g/cm³"
    }
}