{
    "cas_no": "23363-88-4",
    "key_name": "<em>N</em>-(4-Hydroxycyclohexyl)acetamide",
    "cn_name": "对乙酰氨基环己醇;",
    "alternate_name": "Acetamide, <em>N</em>-(4-hydroxycyclohexyl)-;<em>N</em>-(4-Hydroxycyclohexyl)acetamide;4-Acetamidocyclohexanol;NSC 130812",
    "duplicated_cas_no": "",
    "SMILES": "N(C(C)=O)C1CCC(O)CC1",
    "meta_data": {
        "InChI": "InChI=1S/C8H15NO2/c1-6(10)9-7-2-4-8(11)5-3-7/h7-8,11H,2-5H2,1H3,(H,9,10)",
        "InChIKey": null,
        "Canonical SMILES": "O=C(NC1CCC(O)CC1)C",
        "Molecular Formula": "C<sub>8</sub>H<sub>15</sub>NO<sub>2</sub>",
        "Molecular Mass": "157.21",
        "Melting Point": "135 °C"
    }
}