{
    "cas_no": "20445-31-2",
    "key_name": "(<em>R</em>)-α-Methoxy-α-(trifluoromethyl)phenylacetic acid",
    "cn_name": "(R)-(+)-alpha-甲氧基-alpha-三氟甲基苯乙酸;",
    "alternate_name": "Benzeneacetic acid, α-methoxy-α-(trifluoromethyl)-, (α<em>R</em>)-;Hydratropic acid, β,β,β-trifluoro-α-methoxy-, (+)-;Benzeneacetic acid, α-methoxy-α-(trifluoromethyl)-, (<em>R</em>)-;(α<em>R</em>)-α-Methoxy-α-(trifluoromethyl)benzeneacetic acid;(+)-Mosher's acid;(+)-α-Methoxy-α-(trifluoromethyl)phenylacetic acid;(<em>R</em>)-(+)-α-Methoxy-α-(trifluoromethyl)phenylacetic acid;(+)-MTPA;(<em>R</em>)-(+)-MTPA acid;(<em>R</em>)-α-Methoxy-α-(trifluoromethyl)phenylacetic acid;(+)-3,3,3-Trifluoro-2-methoxy-2-phenylpropionic acid;(<em>R</em>)-α-Methoxy-α-(trifluoromethyl)benzeneacetic acid;(<em>R</em>)-Mosher's acid;(<em>R</em>)-Mosher acid;(<em>R</em>)-MTPA;(<em>R</em>)-3,3,3-Trifluoro-2-methoxy-2-phenylpropanoic acid;(<em>R</em>)-(+)-3,3,3-Trifluoro-2-phenyl-2-methoxypropanoic acid;(<em>R</em>)-2-Methoxy-2-(trifluoromethylphenylacetic acid;(<em>R</em>)-(+)-Mosher's acid;(<em>R</em>)-(+)-Mosher acid;(<em>R</em>)-α-Methoxy-α-(trifluoromethyl)phenylethanoic acid;(<em>R</em>)-2-Methoxy-2-phenyl-2-(trifluoromethyl)ethanoic acid;(2<em>R</em>)-3,3,3-Trifluoro-2-methoxy-2-phenylpropanoic acid;(R)-α-Methoxy-α-trifluoromethylphenylacetic acid;(R)-Mosher acid;R-MTPA-OH;(2R)-3,3,3-Trifluoro-2-methoxy-2-phenylpropanoic acid;(<em>R</em>)-2-Methoxy-2-phenyl-3,3,3-trifluoropropanoic acid",
    "duplicated_cas_no": "261964-29-8",
    "SMILES": "[C@@](C(F)(F)F)(C(O)=O)(OC)C1=CC=CC=C1",
    "meta_data": {
        "InChI": "InChI=1S/C10H9F3O3/c1-16-9(8(14)15,10(11,12)13)7-5-3-2-4-6-7/h2-6H,1H3,(H,14,15)/t9-/m1/s1",
        "InChIKey": null,
        "Canonical SMILES": "O=C(O)C(OC)(C=1C=CC=CC1)C(F)(F)F",
        "Molecular Formula": "C<sub>10</sub>H<sub>9</sub>F<sub>3</sub>O<sub>3</sub>",
        "Molecular Mass": "234.17",
        "Boiling Point": "95-110 °C @ Press: 1.5-2.0 Torr"
    }
}