{
    "cas_no": "2360-20-5",
    "key_name": "3,4-Diaminobenzenesulfonamide",
    "cn_name": null,
    "alternate_name": "Benzenesulfonamide, 3,4-diamino-;3,4-Diaminobenzenesulfonamide;3,4-Diaminobenzene-1-sulfonamide;3,4-Diamino-benzenesulfonic acid amide",
    "duplicated_cas_no": "",
    "SMILES": "S(N)(=O)(=O)C1=CC(N)=C(N)C=C1",
    "meta_data": {
        "InChI": "InChI=1S/C6H9N3O2S/c7-5-2-1-4(3-6(5)8)12(9,10)11/h1-3H,7-8H2,(H2,9,10,11)",
        "InChIKey": null,
        "Canonical SMILES": "O=S(=O)(N)C1=CC=C(N)C(N)=C1",
        "Molecular Formula": "C<sub>6</sub>H<sub>9</sub>N<sub>3</sub>O<sub>2</sub>S",
        "Molecular Mass": "187.22",
        "Melting Point": "174-175 °C"
    }
}