{
    "cas_no": "6292-59-7",
    "key_name": "4-<em>tert</em>-Butylbenzenesulfonamide",
    "cn_name": "4-叔丁基苯磺酰胺;",
    "alternate_name": "Benzenesulfonamide, 4-(1,1-dimethylethyl)-;Benzenesulfonamide, <em>p</em>-<em>tert</em>-butyl-;4-(1,1-Dimethylethyl)benzenesulfonamide;<em>p</em>-<em>tert</em>-Butylbenzenesulfonamide;<em>p</em>-(<em>tert</em>-Butyl)phenylsulfonamide;4-<em>tert</em>-Butylbenzenesulfonamide;NSC 9911;4-(TertButyl)benzenesulfonamide",
    "duplicated_cas_no": "",
    "SMILES": "C(C)(C)(C)C1=CC=C(S(N)(=O)=O)C=C1",
    "meta_data": {
        "InChI": "InChI=1S/C10H15NO2S/c1-10(2,3)8-4-6-9(7-5-8)14(11,12)13/h4-7H,1-3H3,(H2,11,12,13)",
        "InChIKey": null,
        "Canonical SMILES": "O=S(=O)(N)C1=CC=C(C=C1)C(C)(C)C",
        "Molecular Formula": "C<sub>10</sub>H<sub>15</sub>NO<sub>2</sub>S",
        "Molecular Mass": "213.30",
        "Melting Point": "136-137 °C"
    }
}