{
    "cas_no": "298-95-3",
    "key_name": "Neotetrazolium chloride",
    "cn_name": "氯化新四唑;3,3\"-(4,4\"-联苯基)双(2,5-二苯基-2H-四唑鎓氯化物);",
    "alternate_name": "2<em>H</em>-Tetrazolium, 3,3′-[1,1′-biphenyl]-4,4′-diylbis[2,5-diphenyl-, chloride (1:2);3,3′-(4,4′-Biphenylylene)bis[2,5-diphenyl-2<em>H</em>-tetrazolium chloride];2<em>H</em>-Tetrazolium, 3,3′-(4,4′-biphenylylene)bis[2,5-diphenyl-, dichloride;2<em>H</em>-Tetrazolium, 3,3′-[1,1′-biphenyl]-4,4′-diylbis[2,5-diphenyl-, dichloride;Neo-T;Neotetrazolium chloride;Neotetrazolium;TP;2,2′-(<em>p</em>-Diphenylene)bis(3,5-diphenyl)ditetrazolium chloride;Neotetrazolium blue;3,3′-(4,4′-Biphenylene)bis[2,5-diphenyltetrazolium chloride];NTC;NSC 27621",
    "duplicated_cas_no": "56862-92-1;562102-24-3",
    "SMILES": "[N+]=1(N(N=C(N1)C2=CC=CC=C2)C3=CC=CC=C3)C4=CC=C(C=C4)C5=CC=C(C=C5)[N+]=6N(N=C(N6)C7=CC=CC=C7)C8=CC=CC=C8.[Cl-]",
    "meta_data": {
        "InChI": "InChI=1S/C38H28N8.2ClH/c1-5-13-31(14-6-1)37-39-43(33-17-9-3-10-18-33)45(41-37)35-25-21-29(22-26-35)30-23-27-36(28-24-30)46-42-38(32-15-7-2-8-16-32)40-44(46)34-19-11-4-12-20-34;;/h1-28H;2*1H/q+2;;/p-2",
        "InChIKey": null,
        "Canonical SMILES": "[Cl-].N1=C(N=[N+](C=2C=CC(=CC2)C=3C=CC(=CC3)[N+]4=NC(=NN4C=5C=CC=CC5)C6=CC=CC=C6)N1C=7C=CC=CC7)C=8C=CC=CC8",
        "Molecular Formula": "C<sub>38</sub>H<sub>28</sub>N<sub>8</sub>.2Cl",
        "Molecular Mass": "",
        "Melting Point": "297 °C (decomp)"
    }
}