{
    "cas_no": "498-24-8",
    "key_name": "Mesaconic acid",
    "cn_name": "中康酸;(E)-2-甲基-2-丁烯二酸;反式-2-甲基-2-丁烯二酸;",
    "alternate_name": "2-Butenedioic acid, 2-methyl-, (2<em>E</em>)-;Mesaconic acid;2-Butenedioic acid, 2-methyl-, (<em>E</em>)-;(2<em>E</em>)-2-Methyl-2-butenedioic acid;<em>trans</em>-2-Methyl-2-butenedioic acid;Methylfumaric acid;<em>trans</em>-1-Propene-1,2-dicarboxylic acid;2-Methylfumaric acid;Citronic acid;(<em>E</em>)-Citraconic acid;NSC 65438",
    "duplicated_cas_no": "",
    "SMILES": "C(=C/C(O)=O)(\\C(O)=O)/C",
    "meta_data": {
        "InChI": "InChI=1S/C5H6O4/c1-3(5(8)9)2-4(6)7/h2H,1H3,(H,6,7)(H,8,9)/b3-2+",
        "InChIKey": null,
        "Canonical SMILES": "O=C(O)C=C(C(=O)O)C",
        "Molecular Formula": "C<sub>5</sub>H<sub>6</sub>O<sub>4</sub>",
        "Molecular Mass": "130.10",
        "Melting Point": "204.5 °C"
    }
}