{
    "cas_no": "2530-83-8",
    "key_name": "Glycidoxypropyltrimethoxysilane",
    "cn_name": "3-(2,3-环氧丙氧)丙基三甲氧基硅烷;3-缩水甘油醚氧基丙基三甲氧基硅烷;",
    "alternate_name": "Oxirane, 2-[[3-(trimethoxysilyl)propoxy]methyl]-;Silane, [3-(2,3-epoxypropoxy)propyl]trimethoxy-;Silane, trimethoxy[3-(oxiranylmethoxy)propyl]-;2-[[3-(Trimethoxysilyl)propoxy]methyl]oxirane;1-(Glycidyloxy)-3-(trimethoxysilyl)propane;Glycidyloxypropyltrimethoxysilane;[γ-(Glycidyloxy)propyl]trimethoxysilane;[3-(2,3-Epoxypropoxy)propyl]trimethoxysilane;3-(Trimethoxysilyl)propyl glycidyl ether;Z 6040;Silane A 187;A 187;[[3-(Trimethoxysilyl)propoxy]methyl]oxirane;KBM 403;[3-(Glycidyloxy)propyl]trimethoxysilane;Silane Z 6040;Glycidyl 3-(trimethoxysilyl)propyl ether;DZ 6040;Y 4087;NUCA 187;SH 6040;KH 560;Petlark G 6720;Glycidyl γ-(trimethoxysilyl)propyl ether;Toray Silicon SH 6040;GPS-M;G 6720;Sila-Ace S 510;Dynasylan GLYMO;S 510;SF 6040;Prosil 5136;GLYMO;Ucarsil TC 100;X 6146;TSL 8350;TC 100;Hysol EA 9203;(γ-Glycidoxypropyl)trimethoxysilane;(3-Glycidoxypropyl)trimethoxysilane;Silquest A 187;MSEP 2;LS 2940;Saivinol M 806;SZ 6040;Dynasylan GLYMO G 6720;Glycidoxypropyltrimethoxysilane;SK 81149;3-(Glycidyloxy)propyltrimethoxylsilane;Trimethoxy-γ-glycidoxypropylsilane;Trimethoxy(3-glycidoxypropyl)silane;NSC 93590;Degussa-Silan GLYMO;Sigma G 1535;Z 60400;Gap 4 (oxirane);Gap 11 (oxirane);Gransil 51;HS 2926;KH 60;SIG 5840;GF 80;GF 80 (coupling agent);Geniosil GF 80;JH 0187;ZQ 560;KBM 430;KBM 403E;KBM 408;SG 6720;GPTMS;Z 6040N;Sila-Ace 510;HG 560;γ-(2,3-Epoxypropoxy)propyltrimethoxysilane;HK 560;SCA 403;TSL 8650;DB 560;Epoxirane;G 0210;Silquest SiG 5840.0;2-((3-(Trimethoxysilyl)propyloxy)methyl)oxirane;Dow Corning 6040;GC 560;Silquest 187;SIG 5840.1;Sila-Ace 501;LT 560;Xiameter OFS 6040;OFS 6040;WD 60;Dynasylan HS 2926;γ-Glycidyl ether propyltrimethoxysilane;γ-Triglycidoxypropyltrimethoxysilane;Deolink Epoxy TM 100;Epoxypropoxypropyltrimethoxysilane;BY 24-846B;SG-Si 187;SIG 5840.0;Silanil 258;Silane coupling agent KH-560;GPTS;WD 60 (coupling agent);Trimethoxy(3-(oxiran-2-ylmethoxy)propyl)silane;USI 2301;Andisil 187;MP 200;CoatOSil MP 200;Trimethoxy(3-glycidyloxypropyl)silane;DC 6040;EPTMS;SG 007;Glycidoxyproyltrimethoxysilane;Dowsil Z 6040;Haichuan 306;Trimethoxy-[3-(oxiranylmethoxy)propyl]silane;SCA-E 87M;AD 124;DCZ 6040;CG-O 187;KH 1771;3-Glycidoxypropyltrimethoxysilane;FT 560;Silquest A 187J;A 61115;AC 66;AC 66 (coupling agent);JH 560",
    "duplicated_cas_no": "26348-10-7;51938-40-0;52254-18-9;53029-18-8;65323-93-5;66796-19-8;88385-40-4;108727-79-3;120026-01-9;138590-36-0;163035-07-2;225795-63-1;346694-79-9;597543-71-0;625115-01-7;834889-14-4;852245-94-4;861807-90-1;1258965-22-8;1370605-09-6;1923856-63-6;2170716-79-5;2387553-07-1;2573821-66-4",
    "SMILES": "[Si](CCCOCC1CO1)(OC)(OC)OC",
    "meta_data": {
        "InChI": "InChI=1S/C9H20O5Si/c1-10-15(11-2,12-3)6-4-5-13-7-9-8-14-9/h9H,4-8H2,1-3H3",
        "InChIKey": null,
        "Canonical SMILES": "O(CCC[Si](OC)(OC)OC)CC1OC1",
        "Molecular Formula": "C<sub>9</sub>H<sub>20</sub>O<sub>5</sub>Si",
        "Molecular Mass": "236.34",
        "Boiling Point": "120 °C @ Press: 2 Torr",
        "Melting Point": "&lt;-70 °C",
        "Density": "1.070 g/cm³"
    }
}