{
    "cas_no": "26544-17-2",
    "key_name": "Diisooctyl azelate",
    "cn_name": null,
    "alternate_name": "Nonanedioic acid, 1,9-diisooctyl ester;Azelaic acid, diisooctyl ester;Nonanedioic acid, diisooctyl ester;Isooctyl alcohol, azelaate (2:1);Isooctyl alcohol, azelate (2:1);Diisooctyl azelate;Reomol DiOZ;Diisooctyl nonanedioate",
    "duplicated_cas_no": "122729-70-8",
    "SMILES": "",
    "meta_data": {
        "InChI": "",
        "InChIKey": null,
        "Canonical SMILES": "",
        "Molecular Formula": "C<sub>25</sub>H<sub>48</sub>O<sub>4</sub>",
        "Molecular Mass": "",
        "Melting Point": "55-65 °C"
    }
}