{
    "cas_no": "398-21-0",
    "key_name": "4-Bromo-4′-fluoro-1,1′-biphenyl",
    "cn_name": "4-溴-4\"-氟联苯;",
    "alternate_name": "1,1′-Biphenyl, 4-bromo-4′-fluoro-;Biphenyl, 4-bromo-4′-fluoro-;4-Bromo-4′-fluoro-1,1′-biphenyl;4-Bromo-4′-fluorobiphenyl;4-Fluoro-4′-bromobiphenyl;4′-Bromo-4-fluorobiphenyl;NSC 91565;1-Bromo-4-(4-fluorophenyl)benzene;4-(4-Fluorophenyl)bromobenzene",
    "duplicated_cas_no": "",
    "SMILES": "BrC1=CC=C(C=C1)C2=CC=C(F)C=C2",
    "meta_data": {
        "InChI": "InChI=1S/C12H8BrF/c13-11-5-1-9(2-6-11)10-3-7-12(14)8-4-10/h1-8H",
        "InChIKey": null,
        "Canonical SMILES": "FC=1C=CC(=CC1)C2=CC=C(Br)C=C2",
        "Molecular Formula": "C<sub>12</sub>H<sub>8</sub>BrF",
        "Molecular Mass": "251.09",
        "Melting Point": "98 °C"
    }
}