{
    "cas_no": "36476-29-6",
    "key_name": "4-Methylumbelliferyl <em>N</em>-acetyl-β-<span class=\"text-smallcaps\">D</span>-galactosaminide",
    "cn_name": "4-甲基伞形酮-2-乙酰氨基-2-脱氧-β-D-吡喃半乳糖苷;",
    "alternate_name": "2<em>H</em>-1-Benzopyran-2-one, 7-[[2-(acetylamino)-2-deoxy-β-<span class=\"text-smallcaps\">D</span>-galactopyranosyl]oxy]-4-methyl-;7-[[2-(Acetylamino)-2-deoxy-β-<span class=\"text-smallcaps\">D</span>-galactopyranosyl]oxy]-4-methyl-2<em>H</em>-1-benzopyran-2-one;4-Methylumbelliferyl <em>N</em>-acetyl-β-galactosaminide;4-Methylumbelliferyl <em>N</em>-acetyl-β-<span class=\"text-smallcaps\">D</span>-galactosaminide;4-Methylumbelliferyl β-<span class=\"text-smallcaps\">D</span>-<em>N</em>-acetylgalactosaminide;4-Methylumbelliferyl β-<span class=\"text-smallcaps\">D</span>-acetylgalactosaminide",
    "duplicated_cas_no": "41650-32-2;737007-14-6",
    "SMILES": "O([C@H]1[C@H](NC(C)=O)[C@@H](O)[C@@H](O)[C@@H](CO)O1)C=2C=C3C(=CC2)C(C)=CC(=O)O3",
    "meta_data": {
        "InChI": "InChI=1S/C18H21NO8/c1-8-5-14(22)26-12-6-10(3-4-11(8)12)25-18-15(19-9(2)21)17(24)16(23)13(7-20)27-18/h3-6,13,15-18,20,23-24H,7H2,1-2H3,(H,19,21)/t13-,15-,16+,17-,18-/m1/s1",
        "InChIKey": null,
        "Canonical SMILES": "O=C1OC=2C=C(OC3OC(CO)C(O)C(O)C3NC(=O)C)C=CC2C(=C1)C",
        "Molecular Formula": "C<sub>18</sub>H<sub>21</sub>NO<sub>8</sub>",
        "Molecular Mass": "379.36",
        "Melting Point": "226-226.5 °C"
    }
}