{
    "cas_no": "3299-38-5",
    "key_name": "4-(Diethylamino)-2-butanone",
    "cn_name": "1-二乙胺基-3-丁酮;",
    "alternate_name": "2-Butanone, 4-(diethylamino)-;4-(Diethylamino)-2-butanone;4-(<em>N</em>,<em>N</em>-Diethylamino)butan-2-one;1-(Diethylamino)-3-butanone;NSC 28042",
    "duplicated_cas_no": "",
    "SMILES": "N(CCC(C)=O)(CC)CC",
    "meta_data": {
        "InChI": "InChI=1S/C8H17NO/c1-4-9(5-2)7-6-8(3)10/h4-7H2,1-3H3",
        "InChIKey": null,
        "Canonical SMILES": "O=C(C)CCN(CC)CC",
        "Molecular Formula": "C<sub>8</sub>H<sub>17</sub>NO",
        "Molecular Mass": "143.23",
        "Boiling Point": "72-76 °C @ Press: 16 Torr",
        "Melting Point": "82-84 °C",
        "Density": "0.8630 g/cm³ @ Temp: 24 °C"
    }
}