{
    "cas_no": "7440-39-3",
    "key_name": "Barium",
    "cn_name": null,
    "alternate_name": "Barium;Barium element;MeSH ID: D001464",
    "duplicated_cas_no": "",
    "SMILES": "[Ba]",
    "meta_data": {
        "InChI": "InChI=1S/Ba",
        "InChIKey": null,
        "Canonical SMILES": "[Ba]",
        "Molecular Formula": "Ba",
        "Molecular Mass": "",
        "Boiling Point": "1897 °C",
        "Melting Point": "727 °C",
        "Density": "3.62 g/cm³"
    }
}