{
    "cas_no": "24268-41-5",
    "key_name": "Furanodienone",
    "cn_name": null,
    "alternate_name": "Cyclodeca[<em>b</em>]furan-4(7<em>H</em>)-one, 8,11-dihydro-3,6,10-trimethyl-, (5<em>E</em>,9<em>E</em>)-;Germacra-1(10),4,7,11-tetraen-6-one, 8,12-epoxy-, (<em>E</em>,<em>E</em>)-;Cyclodeca[<em>b</em>]furan-4(7<em>H</em>)-one, 8,11-dihydro-3,6,10-trimethyl-, (<em>E</em>,<em>E</em>)-;(5<em>E</em>,9<em>E</em>)-8,11-Dihydro-3,6,10-trimethylcyclodeca[<em>b</em>]furan-4(7<em>H</em>)-one;Furanodienone;Furanodienon;(1(10)E,4E)-8,12-Epoxygermacra-1(10),4,7,11-tetraen-6-one;(1<em>E</em>,4<em>E</em>)-8,12-Epoxygermacra-1(10),4,7,11-tetraen-6-one",
    "duplicated_cas_no": "",
    "SMILES": "",
    "meta_data": {
        "InChI": "",
        "InChIKey": null,
        "Canonical SMILES": "",
        "Molecular Formula": "C<sub>15</sub>H<sub>18</sub>O<sub>2</sub>",
        "Molecular Mass": "230.30",
        "Boiling Point": "89.5-90.5 °C",
        "Melting Point": "83-84 °C"
    }
}