{
    "cas_no": "566-65-4",
    "key_name": "5α-Dihydroprogesterone",
    "cn_name": "氢化黄体酮;二氢黄体酮;5-alpha-孕甾-3,20-二酮;",
    "alternate_name": "Pregnane-3,20-dione, (5α)-;5α-Pregnanedione;(5α)-Pregnane-3,20-dione;3,20-Allopregnanedione;5α-Dihydroprogesterone;3,20-Dioxo-5α-pregnane;NSC 18319;(+)-(5α)-Pregnane-3,20-dione;5α-Dihydro-P4",
    "duplicated_cas_no": "3026934-95-9",
    "SMILES": "C[C@@]12[C@@]3([C@]([C@]4([C@](C)(CC3)[C@@H](C(C)=O)CC4)[H])(CC[C@]1(CC(=O)CC2)[H])[H])[H]",
    "meta_data": {
        "InChI": "InChI=1S/C21H32O2/c1-13(22)17-6-7-18-16-5-4-14-12-15(23)8-10-20(14,2)19(16)9-11-21(17,18)3/h14,16-19H,4-12H2,1-3H3/t14-,16-,17+,18-,19-,20-,21+/m0/s1",
        "InChIKey": null,
        "Canonical SMILES": "O=C1CCC2(C)C(C1)CCC3C4CCC(C(=O)C)C4(C)CCC32",
        "Molecular Formula": "C<sub>21</sub>H<sub>32</sub>O<sub>2</sub>",
        "Molecular Mass": "316.48",
        "Melting Point": "200 °C"
    }
}