{
    "cas_no": "1774-36-3",
    "key_name": "1,1′-Sulfinylbis[4-methoxybenzene]",
    "cn_name": "4,4\"-二甲氧基二苯基氧化硫;",
    "alternate_name": "Benzene, 1,1′-sulfinylbis[4-methoxy-;Anisole, 4,4′-sulfinyldi-;1,1′-Sulfinylbis[4-methoxybenzene];Bis(<em>p</em>-methoxyphenyl) sulfoxide;Bis(4-methoxyphenyl) sulfoxide;<em>p</em>,<em>p</em>′-Dimethoxydiphenyl sulfoxide;Di-<em>p</em>-methoxyphenyl sulfoxide;Di-<em>p</em>-anisyl sulfoxide;<em>p</em>-Anisyl sulfoxide;NSC 43074;NSC 655046;1-Methoxy-4-(4-methoxyphenyl)sulfinylbenzene;4,4′-Sulfinyl bis(methoxybenzene)",
    "duplicated_cas_no": "",
    "SMILES": "S(=O)(C1=CC=C(OC)C=C1)C2=CC=C(OC)C=C2",
    "meta_data": {
        "InChI": "InChI=1S/C14H14O3S/c1-16-11-3-7-13(8-4-11)18(15)14-9-5-12(17-2)6-10-14/h3-10H,1-2H3",
        "InChIKey": null,
        "Canonical SMILES": "O=S(C1=CC=C(OC)C=C1)C2=CC=C(OC)C=C2",
        "Molecular Formula": "C<sub>14</sub>H<sub>14</sub>O<sub>3</sub>S",
        "Molecular Mass": "262.32",
        "Melting Point": "96 °C"
    }
}