{
    "cas_no": "149409-57-4",
    "key_name": "4-Methoxy-3-(2-phenylethoxy)-<em>N</em>,<em>N</em>-dipropylbenzeneethanamine hydrochloride (1:1)",
    "cn_name": null,
    "alternate_name": "Benzeneethanamine, 4-methoxy-3-(2-phenylethoxy)-<em>N</em>,<em>N</em>-dipropyl-, hydrochloride (1:1);Benzeneethanamine, 4-methoxy-3-(2-phenylethoxy)-<em>N</em>,<em>N</em>-dipropyl-, hydrochloride;4-Methoxy-3-(2-phenylethoxy)-<em>N</em>,<em>N</em>-dipropylbenzeneethanamine hydrochloride (1:1);NE 100",
    "duplicated_cas_no": "163158-05-2",
    "SMILES": "O(CCC1=CC=CC=C1)C2=C(OC)C=CC(CCN(CCC)CCC)=C2.Cl",
    "meta_data": {
        "InChI": "InChI=1S/C23H33NO2.ClH/c1-4-15-24(16-5-2)17-13-21-11-12-22(25-3)23(19-21)26-18-14-20-9-7-6-8-10-20;/h6-12,19H,4-5,13-18H2,1-3H3;1H",
        "InChIKey": null,
        "Canonical SMILES": "Cl.O(C1=CC=C(C=C1OCCC=2C=CC=CC2)CCN(CCC)CCC)C",
        "Molecular Formula": "C<sub>23</sub>H<sub>33</sub>NO<sub>2</sub>.ClH",
        "Molecular Mass": "",
        "Melting Point": "99-100 °C"
    }
}