{
    "cas_no": "25366-22-7",
    "key_name": "<em>N</em>-Methyl-5-(trifluoromethyl)-1,3,4-thiadiazol-2-amine",
    "cn_name": "2-甲氨基-5-(三氟甲苯)-1,3,4-硫代二吡咯;",
    "alternate_name": "1,3,4-Thiadiazol-2-amine, <em>N</em>-methyl-5-(trifluoromethyl)-;1,3,4-Thiadiazole, 2-(methylamino)-5-(trifluoromethyl)-;<em>N</em>-Methyl-5-(trifluoromethyl)-1,3,4-thiadiazol-2-amine;2-Methylimino-5-trifluoromethyl-Δ<sup>4</sup>-1,3,4-thiadiazoline;2-Methylamino-5-(trifluoromethyl)-1,3,4-thiadiazole;2-Methylammonia-(5-trifluoromethyl)-1,3,4-thiadiazole",
    "duplicated_cas_no": "",
    "SMILES": "C(F)(F)(F)C=1SC(NC)=NN1",
    "meta_data": {
        "InChI": "InChI=1S/C4H4F3N3S/c1-8-3-10-9-2(11-3)4(5,6)7/h1H3,(H,8,10)",
        "InChIKey": null,
        "Canonical SMILES": "FC(F)(F)C1=NN=C(S1)NC",
        "Molecular Formula": "C<sub>4</sub>H<sub>4</sub>F<sub>3</sub>N<sub>3</sub>S",
        "Molecular Mass": "183.15",
        "Melting Point": "115-116 °C"
    }
}