{
    "cas_no": "631-64-1",
    "key_name": "Dibromoacetic acid",
    "cn_name": "二溴乙酸;",
    "alternate_name": "Acetic acid, 2,2-dibromo-;Acetic acid, dibromo-;2,2-Dibromoacetic acid;Dibromoacetic acid;DBAA",
    "duplicated_cas_no": "",
    "SMILES": "C(C(O)=O)(Br)Br",
    "meta_data": {
        "InChI": "InChI=1S/C2H2Br2O2/c3-1(4)2(5)6/h1H,(H,5,6)",
        "InChIKey": null,
        "Canonical SMILES": "O=C(O)C(Br)Br",
        "Molecular Formula": "C<sub>2</sub>H<sub>2</sub>Br<sub>2</sub>O<sub>2</sub>",
        "Molecular Mass": "217.84",
        "Boiling Point": "125-135 °C @ Press: 10 Torr",
        "Melting Point": "49 °C"
    }
}