{
    "cas_no": "17278-74-9",
    "key_name": "14-Hydroxytetradecanoic acid",
    "cn_name": null,
    "alternate_name": "Tetradecanoic acid, 14-hydroxy-;14-Hydroxytetradecanoic acid;14-Hydroxymyristic acid;ω-Hydroxytetradecanoic acid;ω-Hydroxymyristic acid",
    "duplicated_cas_no": "",
    "SMILES": "C(CCCCCCCO)CCCCCC(O)=O",
    "meta_data": {
        "InChI": "InChI=1S/C14H28O3/c15-13-11-9-7-5-3-1-2-4-6-8-10-12-14(16)17/h15H,1-13H2,(H,16,17)",
        "InChIKey": null,
        "Canonical SMILES": "O=C(O)CCCCCCCCCCCCCO",
        "Molecular Formula": "C<sub>14</sub>H<sub>28</sub>O<sub>3</sub>",
        "Molecular Mass": "244.37",
        "Melting Point": "86-87 °C"
    }
}