{
    "cas_no": "115-31-1",
    "key_name": "Isobornyl thiocyanoacetate",
    "cn_name": "杀那特;",
    "alternate_name": "Acetic acid, 2-thiocyanato-, (1<em>R</em>,2<em>R</em>,4<em>R</em>)-1,7,7-trimethylbicyclo[2.2.1]hept-2-yl ester, <em>rel</em>-;Acetic acid, thiocyanato-, 1,7,7-trimethylbicyclo[2.2.1]hept-2-yl ester, <em>exo</em>-;Acetic acid, thiocyanato-, isobornyl ester;Acetic acid, thiocyanato-, (1<em>R</em>,2<em>R</em>,4<em>R</em>)-1,7,7-trimethylbicyclo[2.2.1]hept-2-yl ester, <em>rel</em>-;Terpinyl thiocyanoacetate;Thanisol;Thiocyanatoacetic acid isobornyl ester;Thanite;Isobornyl thiocyanoacetate;Isobornyl thiocyanatoacetate;Bornate;Cidalon;SX 850;NSC 3552;ENT 92",
    "duplicated_cas_no": "8012-19-9;55870-89-8",
    "SMILES": "C[C@@]12[C@@H](OC(CSC#N)=O)C[C@@](C1(C)C)(CC2)[H]",
    "meta_data": {
        "InChI": "InChI=1/C13H19NO2S/c1-12(2)9-4-5-13(12,3)10(6-9)16-11(15)7-17-8-14/h9-10H,4-7H2,1-3H3/t9-,10-,13+/s2",
        "InChIKey": null,
        "Canonical SMILES": "N#CSCC(=O)OC1CC2CCC1(C)C2(C)C",
        "Molecular Formula": "C<sub>13</sub>H<sub>19</sub>NO<sub>2</sub>S",
        "Molecular Mass": "253.36",
        "Boiling Point": "95 °C @ Press: 0.06 Torr",
        "Density": "1.1465 g/cm³ @ Temp: 25 °C"
    }
}