{
    "cas_no": "33599-32-5",
    "key_name": "1-Butyl-2,4-imidazolidinedione",
    "cn_name": "1-丁乙内酰脲;",
    "alternate_name": "2,4-Imidazolidinedione, 1-butyl-;Hydantoin, 1-butyl-;1-Butyl-2,4-imidazolidinedione;1-Butylhydantoin;1-Butylimidazolidine-2,4-dione",
    "duplicated_cas_no": "",
    "SMILES": "C(CCC)N1CC(=O)NC1=O",
    "meta_data": {
        "InChI": "InChI=1S/C7H12N2O2/c1-2-3-4-9-5-6(10)8-7(9)11/h2-5H2,1H3,(H,8,10,11)",
        "InChIKey": null,
        "Canonical SMILES": "O=C1NC(=O)CN1CCCC",
        "Molecular Formula": "C<sub>7</sub>H<sub>12</sub>N<sub>2</sub>O<sub>2</sub>",
        "Molecular Mass": "156.18",
        "Melting Point": "76-78 °C"
    }
}