{
    "cas_no": "7664-38-2",
    "key_name": "Phosphoric acid",
    "cn_name": "磷酸;正磷酸;",
    "alternate_name": "Phosphoric acid;Orthophosphoric acid;EVITs;WC-Reiniger;Sonac;Decon 4512;Kefo;3M Etching Liquid;C 134 (acid);C 434 (acid);C 134;C 434;Mikro Klene DF;K-etchant;SPA 2 (catalyst);SPA 2;TG 434;Ultra-Etch Gel;Uni-Etch;Ultraetch;Amberphos 54;HQ 54;Panavia Etching Agent;Conditioner 36;E 338;Total Etch;NSC 80804;Etchalite;Kerr Etchant;Y 11A06;Ultradent;K Etchant Gel;Acidum phosphoricum;Vococid;PC 400;SF 1;SF 1 (acid);Nacure XC 296B",
    "duplicated_cas_no": "28602-75-7;178560-73-1;959699-83-3;1021417-41-3;1053657-23-0;1196963-54-8;1643589-98-3;2055242-58-3",
    "SMILES": "P(=O)(O)(O)O",
    "meta_data": {
        "InChI": "InChI=1S/H3O4P/c1-5(2,3)4/h(H3,1,2,3,4)",
        "InChIKey": null,
        "Canonical SMILES": "O=P(O)(O)O",
        "Molecular Formula": "H<sub>3</sub>O<sub>4</sub>P",
        "Molecular Mass": "98.00",
        "Melting Point": "42.35 °C",
        "Density": "1.834 g/cm³ @ Temp: 18 °C"
    }
}