{
    "cas_no": "71432-55-8",
    "key_name": "1,1-Dimethylethyl <em>N</em>,<em>N</em>′-bis(1-methylethyl)carbamimidate",
    "cn_name": null,
    "alternate_name": "Carbamimidic acid, <em>N</em>,<em>N</em>′-bis(1-methylethyl)-, 1,1-dimethylethyl ester;1,1-Dimethylethyl <em>N</em>,<em>N</em>′-bis(1-methylethyl)carbamimidate;<em>O</em>-<em>tert</em>-Butyl-<em>N</em>,<em>N</em>′-diisopropylisourea;<em>N</em>,<em>N</em>′-Diisopropyl-<em>O</em>-<em>tert</em>-butylisourea;2-<em>tert</em>-Butyl-1,3-diisopropylpseudourea;2-<em>tert</em>-Butyl-1,3-diisopropylisourea;<em>tert</em>-Butyl <em>N</em>,<em>N</em>′-dipropan-2-ylcarbamimidate",
    "duplicated_cas_no": "",
    "SMILES": "O(C(=NC(C)C)NC(C)C)C(C)(C)C",
    "meta_data": {
        "InChI": "InChI=1S/C11H24N2O/c1-8(2)12-10(13-9(3)4)14-11(5,6)7/h8-9H,1-7H3,(H,12,13)",
        "InChIKey": null,
        "Canonical SMILES": "N(=C(OC(C)(C)C)NC(C)C)C(C)C",
        "Molecular Formula": "C<sub>11</sub>H<sub>24</sub>N<sub>2</sub>O",
        "Molecular Mass": "200.32",
        "Boiling Point": "86 °C @ Press: 0.24 Torr"
    }
}