{
    "cas_no": "41864-22-6",
    "key_name": "Bis(1<em>H</em>-1,2,4-triazol-1-yl)methanone",
    "cn_name": "N,N\"-羰基二(1,2,4-三氮唑);",
    "alternate_name": "Methanone, bis(1<em>H</em>-1,2,4-triazol-1-yl)-;1<em>H</em>-1,2,4-Triazole, 1,1′-carbonylbis-;Bis(1<em>H</em>-1,2,4-triazol-1-yl)methanone;1,1′-Carbonylbis(1,2,4-triazole);1,1′-Carbonyldi(1,2,4-triazole);Carbonyldi(1,2,4-triazole);1-(1<em>H</em>-1,2,4-Triazole-1-carbonyl)-1<em>H</em>-1,2,4-triazole;Bis(1,2,4-triazol-1-yl)methanone",
    "duplicated_cas_no": "72741-13-0",
    "SMILES": "C(=O)(N1C=NC=N1)N2C=NC=N2",
    "meta_data": {
        "InChI": "InChI=1S/C5H4N6O/c12-5(10-3-6-1-8-10)11-4-7-2-9-11/h1-4H",
        "InChIKey": null,
        "Canonical SMILES": "O=C(N1N=CN=C1)N2N=CN=C2",
        "Molecular Formula": "C<sub>5</sub>H<sub>4</sub>N<sub>6</sub>O",
        "Molecular Mass": "164.12",
        "Melting Point": "138-139 °C"
    }
}