{
    "cas_no": "2941-23-3",
    "key_name": "2-Amino-1-cyclopentene-1-carbonitrile",
    "cn_name": "1-氨基-2-氰基-1-环戊烯;",
    "alternate_name": "1-Cyclopentene-1-carbonitrile, 2-amino-;2-Amino-1-cyclopentene-1-carbonitrile;1-Amino-2-cyano-1,2-cyclopentene;1-Amino-2-cyanocyclopentene;2-Cyanocyclopenten-1-ylamine;1-Amino-2-cyano-1-cyclopentene;2-Amino-1-cyano-1-cyclopentene;NSC 146852;2-Aminocyclopent-1-enecarbonitrile",
    "duplicated_cas_no": "",
    "SMILES": "C(#N)C1=C(N)CCC1",
    "meta_data": {
        "InChI": "InChI=1S/C6H8N2/c7-4-5-2-1-3-6(5)8/h1-3,8H2",
        "InChIKey": null,
        "Canonical SMILES": "N#CC1=C(N)CCC1",
        "Molecular Formula": "C<sub>6</sub>H<sub>8</sub>N<sub>2</sub>",
        "Molecular Mass": "108.14",
        "Melting Point": "147-148 °C"
    }
}