{
    "cas_no": "6280-80-4",
    "key_name": "(2-Formylphenoxy)acetic acid",
    "cn_name": "2-甲酰苯氧乙酸;2-(2-甲酰基苯氧基)乙酸;",
    "alternate_name": "Acetic acid, 2-(2-formylphenoxy)-;Acetic acid, (2-formylphenoxy)-;Acetic acid, (<em>o</em>-formylphenoxy)-;2-(2-Formylphenoxy)acetic acid;<em>o</em>-Formylphenoxyacetic acid;2-Carboxymethoxybenzaldehyde;(2-Formylphenoxy)acetic acid;NSC 133590;NSC 6140",
    "duplicated_cas_no": "1636898-57-1",
    "SMILES": "O(CC(O)=O)C1=C(C=O)C=CC=C1",
    "meta_data": {
        "InChI": "InChI=1S/C9H8O4/c10-5-7-3-1-2-4-8(7)13-6-9(11)12/h1-5H,6H2,(H,11,12)",
        "InChIKey": null,
        "Canonical SMILES": "O=CC=1C=CC=CC1OCC(=O)O",
        "Molecular Formula": "C<sub>9</sub>H<sub>8</sub>O<sub>4</sub>",
        "Molecular Mass": "180.16",
        "Melting Point": "133-135 °C"
    }
}