{
    "cas_no": "97-05-2",
    "key_name": "Sulfosalicylic acid",
    "cn_name": "5-磺基水杨酸;2-羟基-5-磺基苯甲酸;",
    "alternate_name": "Benzoic acid, 2-hydroxy-5-sulfo-;Salicylic acid, 5-sulfo-;2-Hydroxy-5-sulfobenzoic acid;3-Carboxy-4-hydroxybenzenesulfonic acid;5-Sulfosalicylic acid;Sulfosalicylic acid;Salicylsulfonic acid;Sulphosalicylic acid;5-Sulphosalicylic acid;SSA;5-(Hydroxysulfonyl)salicylic acid;NSC 190565;NSC 4741;5-Sulfosalicyclic acid;FD",
    "duplicated_cas_no": "1331-19-7;30793-75-0;75981-55-4;87148-02-5;102621-17-0;103600-01-7;105759-34-0;1188330-99-5",
    "SMILES": "C(O)(=O)C1=CC(S(=O)(=O)O)=CC=C1O",
    "meta_data": {
        "InChI": "InChI=1S/C7H6O6S/c8-6-2-1-4(14(11,12)13)3-5(6)7(9)10/h1-3,8H,(H,9,10)(H,11,12,13)",
        "InChIKey": null,
        "Canonical SMILES": "O=C(O)C1=CC(=CC=C1O)S(=O)(=O)O",
        "Molecular Formula": "C<sub>7</sub>H<sub>6</sub>O<sub>6</sub>S",
        "Molecular Mass": "218.18",
        "Melting Point": "120 °C",
        "Density": "1.771 g/cm³"
    }
}