{
    "cas_no": "2328-12-3",
    "key_name": "6,7-Dimethoxy-1,2,3,4-tetrahydroisoquinoline hydrochloride",
    "cn_name": "6,7-二甲氧基-1,2,3,4-四氢异喹啉盐酸盐;",
    "alternate_name": "Isoquinoline, 1,2,3,4-tetrahydro-6,7-dimethoxy-, hydrochloride (1:1);Isoquinoline, 1,2,3,4-tetrahydro-6,7-dimethoxy-, hydrochloride;Heliamine hydrochloride;1,2,3,4-Tetrahydro-6,7-dimethoxyisoquinoline hydrochloride;6,7-Dimethoxy-1,2,3,4-tetrahydroisoquinoline hydrochloride;6,7-Dimethoxy-3,4-dihydro-2(1<em>H</em>)-isoquinoline hydrochloride;6,7-Dimethoxy-1,2,3,4-tetrahydroisoquinoline monohydrochloride;6,7-Bis(methyloxy)-1,2,3,4-tetrahydroisoquinoline hydrochloride",
    "duplicated_cas_no": "1627706-56-2",
    "SMILES": "O(C)C=1C=C2C(=CC1OC)CNCC2.Cl",
    "meta_data": {
        "InChI": "InChI=1S/C11H15NO2.ClH/c1-13-10-5-8-3-4-12-7-9(8)6-11(10)14-2;/h5-6,12H,3-4,7H2,1-2H3;1H",
        "InChIKey": null,
        "Canonical SMILES": "Cl.O(C=1C=C2C(=CC1OC)CCNC2)C",
        "Molecular Formula": "C<sub>11</sub>H<sub>15</sub>NO<sub>2</sub>.ClH",
        "Molecular Mass": "",
        "Melting Point": "263 °C"
    }
}