{
    "cas_no": "77094-11-2",
    "key_name": "2-Amino-3,4-dimethylimidazo[4,5-<em>f</em>]quinoline",
    "cn_name": null,
    "alternate_name": "3<em>H</em>-Imidazo[4,5-<em>f</em>]quinolin-2-amine, 3,4-dimethyl-;3,4-Dimethyl-3<em>H</em>-imidazo[4,5-<em>f</em>]quinolin-2-amine;2-Amino-3,4-dimethylimidazo[4,5-<em>f</em>]quinoline;Methyl-IQ;MeIQ;2-Amino-3,4-dimethyl-3<em>H</em>-imidazo[4,5-<em>f</em>]quinoline",
    "duplicated_cas_no": "",
    "SMILES": "CC=1C2=C(C=3C(C1)=NC=CC3)N=C(N)N2C",
    "meta_data": {
        "InChI": "InChI=1S/C12H12N4/c1-7-6-9-8(4-3-5-14-9)10-11(7)16(2)12(13)15-10/h3-6H,1-2H3,(H2,13,15)",
        "InChIKey": null,
        "Canonical SMILES": "N1=CC=CC2=C1C=C(C3=C2N=C(N)N3C)C",
        "Molecular Formula": "C<sub>12</sub>H<sub>12</sub>N<sub>4</sub>",
        "Molecular Mass": "212.25",
        "Melting Point": "295-297 °C"
    }
}