{
    "cas_no": "112245-13-3",
    "key_name": "(2<em>S</em>)-2-Amino-3,3-dimethyl-1-butanol",
    "cn_name": null,
    "alternate_name": "1-Butanol, 2-amino-3,3-dimethyl-, (2<em>S</em>)-;1-Butanol, 2-amino-3,3-dimethyl-, (<em>S</em>)-;(2<em>S</em>)-2-Amino-3,3-dimethyl-1-butanol;(<em>S</em>)-<em>tert</em>-Leucinol;<span class=\"text-smallcaps\">L</span>-<em>tert</em>-Leucinol;(<em>S</em>)-2-Amino-3,3-dimethyl-1-butanol;(<em>S</em>)-(+)-<em>tert</em>-Leucinol;(<em>S</em>)-(+)-2-Amino-3,3-dimethylbutanol;(<em>S</em>)-2-Amino-3,3-dimethylbutanol;(2S)-2-Amino-3,3-dimethylbutan-1-ol",
    "duplicated_cas_no": "",
    "SMILES": "[C@H](C(C)(C)C)(CO)N",
    "meta_data": {
        "InChI": "InChI=1S/C6H15NO/c1-6(2,3)5(7)4-8/h5,8H,4,7H2,1-3H3/t5-/m1/s1",
        "InChIKey": null,
        "Canonical SMILES": "OCC(N)C(C)(C)C",
        "Molecular Formula": "C<sub>6</sub>H<sub>15</sub>NO",
        "Molecular Mass": "117.19",
        "Boiling Point": "87-89 °C @ Press: 5 Torr",
        "Melting Point": "31-33 °C"
    }
}