{
    "cas_no": "668270-12-0",
    "key_name": "Linagliptin",
    "cn_name": "利拉利汀;8-[(3R)-3-氨基-1-哌啶基]-7-(2-丁炔基)-3,7-二氢-3-甲基-1-[(4-甲基-2-喹唑啉基)甲基]-1H-嘌呤-2;",
    "alternate_name": "1<em>H</em>-Purine-2,6-dione, 8-[(3<em>R</em>)-3-amino-1-piperidinyl]-7-(2-butyn-1-yl)-3,7-dihydro-3-methyl-1-[(4-methyl-2-quinazolinyl)methyl]-;1<em>H</em>-Purine-2,6-dione, 8-[(3<em>R</em>)-3-amino-1-piperidinyl]-7-(2-butynyl)-3,7-dihydro-3-methyl-1-[(4-methyl-2-quinazolinyl)methyl]-;8-[(3<em>R</em>)-3-Amino-1-piperidinyl]-7-(2-butyn-1-yl)-3,7-dihydro-3-methyl-1-[(4-methyl-2-quinazolinyl)methyl]-1<em>H</em>-purine-2,6-dione;BI 1356;ONDERO;Linagliptin;BI 1356BS;Tradjenta;Trazenta;(<em>R</em>)-8-[3-Aminopiperidin-1-yl]-7-(2-butynyl)-3-methyl-1-(4-methylquinazolin-2-ylmethyl)xanthine;Trajenta",
    "duplicated_cas_no": "",
    "SMILES": "C(C#CC)N1C2=C(N=C1N3C[C@H](N)CCC3)N(C)C(=O)N(CC4=NC5=C(C(C)=N4)C=CC=C5)C2=O",
    "meta_data": {
        "InChI": "InChI=1S/C25H28N8O2/c1-4-5-13-32-21-22(29-24(32)31-12-8-9-17(26)14-31)30(3)25(35)33(23(21)34)15-20-27-16(2)18-10-6-7-11-19(18)28-20/h6-7,10-11,17H,8-9,12-15,26H2,1-3H3/t17-/m1/s1",
        "InChIKey": null,
        "Canonical SMILES": "O=C1C2=C(N=C(N2CC#CC)N3CCCC(N)C3)N(C(=O)N1CC4=NC=5C=CC=CC5C(=N4)C)C",
        "Molecular Formula": "C<sub>25</sub>H<sub>28</sub>N<sub>8</sub>O<sub>2</sub>",
        "Molecular Mass": "472.54",
        "Melting Point": "202 °C"
    }
}