{
    "cas_no": "54429-56-0",
    "key_name": "2-Bromoethanesulfonyl chloride",
    "cn_name": null,
    "alternate_name": "Ethanesulfonyl chloride, 2-bromo-;2-Bromoethanesulfonyl chloride;2-Bromoethane-1-sulfonyl chloride",
    "duplicated_cas_no": "",
    "SMILES": "C(S(Cl)(=O)=O)CBr",
    "meta_data": {
        "InChI": "InChI=1S/C2H4BrClO2S/c3-1-2-7(4,5)6/h1-2H2",
        "InChIKey": null,
        "Canonical SMILES": "O=S(=O)(Cl)CCBr",
        "Molecular Formula": "C<sub>2</sub>H<sub>4</sub>BrClO<sub>2</sub>S",
        "Molecular Mass": "207.47",
        "Boiling Point": "119-121 °C @ Press: 21 Torr",
        "Density": "1.921 g/cm³ @ Temp: 20 °C"
    }
}