{
    "cas_no": "86953-79-9",
    "key_name": "1,1-Dimethylethyl 1-pyrrolidinecarboxylate",
    "cn_name": "1-Boc-四氢吡咯;1-Boc-吡咯烷;1-吡咯烷甲酸叔丁酯;",
    "alternate_name": "1-Pyrrolidinecarboxylic acid, 1,1-dimethylethyl ester;1,1-Dimethylethyl 1-pyrrolidinecarboxylate;<em>N</em>-<em>tert</em>-Butoxycarbonylpyrrolidine;<em>tert</em>-Butyl 1-pyrrolidinecarboxylate;1-(<em>tert</em>-Butoxycarbonyl)pyrrolidine;NT 0186;1-Pyrrolidinecarboxylic acid tert-butyl ester",
    "duplicated_cas_no": "",
    "SMILES": "C(OC(C)(C)C)(=O)N1CCCC1",
    "meta_data": {
        "InChI": "InChI=1S/C9H17NO2/c1-9(2,3)12-8(11)10-6-4-5-7-10/h4-7H2,1-3H3",
        "InChIKey": null,
        "Canonical SMILES": "O=C(OC(C)(C)C)N1CCCC1",
        "Molecular Formula": "C<sub>9</sub>H<sub>17</sub>NO<sub>2</sub>",
        "Molecular Mass": "171.24",
        "Boiling Point": "90-100 °C @ Press: 0.6 Torr"
    }
}