{
    "cas_no": "69056-67-3",
    "key_name": "4,4,4-Trifluoro-3-methyl-2-butenoic acid",
    "cn_name": "3-(三氟甲基)丁烯酸;",
    "alternate_name": "2-Butenoic acid, 4,4,4-trifluoro-3-methyl-;Crotonic acid, 4,4,4-trifluoro-3-methyl-;4,4,4-Trifluoro-3-methyl-2-butenoic acid;β-(Trifluoromethyl)crotonic acid",
    "duplicated_cas_no": "",
    "SMILES": "C(=CC(O)=O)(C(F)(F)F)C",
    "meta_data": {
        "InChI": "InChI=1S/C5H5F3O2/c1-3(2-4(9)10)5(6,7)8/h2H,1H3,(H,9,10)",
        "InChIKey": null,
        "Canonical SMILES": "O=C(O)C=C(C)C(F)(F)F",
        "Molecular Formula": "C<sub>5</sub>H<sub>5</sub>F<sub>3</sub>O<sub>2</sub>",
        "Molecular Mass": "154.09",
        "Boiling Point": "160-166 °C"
    }
}