{
    "cas_no": "506-43-4",
    "key_name": "Linoleyl alcohol",
    "cn_name": "亚麻醇;顺、顺-9,12-十八碳二烯醇;亚麻醇;",
    "alternate_name": "9,12-Octadecadien-1-ol, (9<em>Z</em>,12<em>Z</em>)-;9,12-Octadecadien-1-ol, (<em>Z</em>,<em>Z</em>)-;Linoleyl alcohol;(9<em>Z</em>,12<em>Z</em>)-9,12-Octadecadien-1-ol;Linolyl alcohol;<em>cis</em>, <em>cis</em>-9,12-Octadecadienyl alcohol;<em>cis</em>,<em>cis</em>-9,12-Octadecadienol;Octadeca-9-<em>cis</em>,12-<em>cis</em>-dien-1-ol;9-<em>cis</em>,12-<em>cis</em>-Octadecadienol;Linoleic alcohol;HD-Ocenol 110/30;(<em>Z</em>,<em>Z</em>)-9,12-Octadecadien-1-ol;Linolic alcohol;(9<em>Z</em>,12<em>Z</em>)-Octadeca-9,12-dien-1-ol;<em>cis</em>-1-Hydroxy-9,12-octadecadiene",
    "duplicated_cas_no": "",
    "SMILES": "C(=C\\C/C=C\\CCCCC)\\CCCCCCCCO",
    "meta_data": {
        "InChI": "InChI=1S/C18H34O/c1-2-3-4-5-6-7-8-9-10-11-12-13-14-15-16-17-18-19/h6-7,9-10,19H,2-5,8,11-18H2,1H3/b7-6-,10-9-",
        "InChIKey": null,
        "Canonical SMILES": "OCCCCCCCCC=CCC=CCCCCC",
        "Molecular Formula": "C<sub>18</sub>H<sub>34</sub>O",
        "Molecular Mass": "266.46",
        "Boiling Point": "148-150 °C",
        "Melting Point": "-5--2 °C",
        "Density": "0.8612 g/cm³ @ Temp: 20 °C"
    }
}