{
    "cas_no": "15484-46-5",
    "key_name": "Methyl 2-(hydroxymethyl)-2-propenoate",
    "cn_name": null,
    "alternate_name": "2-Propenoic acid, 2-(hydroxymethyl)-, methyl ester;Acrylic acid, 2-(hydroxymethyl)-, methyl ester;Hydracrylic acid, 2-methylene-, methyl ester;Methyl 2-(hydroxymethyl)-2-propenoate;Methyl 2-(hydroxymethyl)acrylate;Methyl α-(hydroxymethyl)acrylate;Methyl 2-hydroxymethyl-2-propenoate;Methyl 2-hydroxymethacrylate;α-(Hydroxymethyl)acrylic acid methyl ester",
    "duplicated_cas_no": "",
    "SMILES": "C(C(OC)=O)(CO)=C",
    "meta_data": {
        "InChI": "InChI=1S/C5H8O3/c1-4(3-6)5(7)8-2/h6H,1,3H2,2H3",
        "InChIKey": null,
        "Canonical SMILES": "O=C(OC)C(=C)CO",
        "Molecular Formula": "C<sub>5</sub>H<sub>8</sub>O<sub>3</sub>",
        "Molecular Mass": "116.12",
        "Boiling Point": "63-65 °C @ Press: 2.3 Torr"
    }
}