{
    "cas_no": "16382-18-6",
    "key_name": "Ethyl 5,6-dimethoxy-1<em>H</em>-indole-2-carboxylate",
    "cn_name": "5,6-二甲氧基吲哚-2-甲酸乙酯;5,6-二甲氧基吲哚-2-甲酸乙酯;5,6-二甲氧基吲哚-2-甲酸乙酯, 98+%;乙基 5,6-;",
    "alternate_name": "1<em>H</em>-Indole-2-carboxylic acid, 5,6-dimethoxy-, ethyl ester;Indole-2-carboxylic acid, 5,6-dimethoxy-, ethyl ester;Ethyl 5,6-dimethoxy-1<em>H</em>-indole-2-carboxylate;Ethyl 5,6-dimethoxy-2-indolecarboxylate;5,6-Dimethoxy-1<em>H</em>-indole-2-carboxylic acid ethyl ester",
    "duplicated_cas_no": "",
    "SMILES": "C(OCC)(=O)C1=CC=2C(N1)=CC(OC)=C(OC)C2",
    "meta_data": {
        "InChI": "InChI=1S/C13H15NO4/c1-4-18-13(15)10-5-8-6-11(16-2)12(17-3)7-9(8)14-10/h5-7,14H,4H2,1-3H3",
        "InChIKey": null,
        "Canonical SMILES": "O=C(OCC)C1=CC=2C=C(OC)C(OC)=CC2N1",
        "Molecular Formula": "C<sub>13</sub>H<sub>15</sub>NO<sub>4</sub>",
        "Molecular Mass": "249.26",
        "Melting Point": "172 °C"
    }
}