{
    "cas_no": "61445-55-4",
    "key_name": "4-(Methylnitrosoamino)butanoic acid",
    "cn_name": null,
    "alternate_name": "Butanoic acid, 4-(methylnitrosoamino)-;4-(Methylnitrosoamino)butanoic acid;<em>N</em>-Methyl-<em>N</em>-(3-carboxypropyl)nitrosamine;<em>N</em>-Nitrosomethylaminobutyric acid;NMBA",
    "duplicated_cas_no": "",
    "SMILES": "N(CCCC(O)=O)(N=O)C",
    "meta_data": {
        "InChI": "InChI=1S/C5H10N2O3/c1-7(6-10)4-2-3-5(8)9/h2-4H2,1H3,(H,8,9)",
        "InChIKey": null,
        "Canonical SMILES": "O=NN(C)CCCC(=O)O",
        "Molecular Formula": "C<sub>5</sub>H<sub>10</sub>N<sub>2</sub>O<sub>3</sub>",
        "Molecular Mass": "146.14",
        "Melting Point": "&gt;25 °C"
    }
}