{
    "cas_no": "296-35-5",
    "key_name": "1,4,7,10,13,16-Hexaazacyclooctadecane",
    "cn_name": null,
    "alternate_name": "1,4,7,10,13,16-Hexaazacyclooctadecane;Hexacyclen;Hexaaza-18-crown-6;1,4,7,10,13,16-Hexazacyclooctadecane",
    "duplicated_cas_no": "",
    "SMILES": "C1CNCCNCCNCCNCCNCCN1",
    "meta_data": {
        "InChI": "InChI=1S/C12H30N6/c1-2-14-5-6-16-9-10-18-12-11-17-8-7-15-4-3-13-1/h13-18H,1-12H2",
        "InChIKey": null,
        "Canonical SMILES": "N1CCNCCNCCNCCNCCNCC1",
        "Molecular Formula": "C<sub>12</sub>H<sub>30</sub>N<sub>6</sub>",
        "Molecular Mass": "258.41",
        "Melting Point": "201 °C (decomp)"
    }
}