{
    "cas_no": "120-75-2",
    "key_name": "2-Methylbenzothiazole",
    "cn_name": "2-甲基苯并噻唑;",
    "alternate_name": "Benzothiazole, 2-methyl-;2-Methylbenzothiazole;NSC 3825;2-Methyl-1,3-benzothiazole;2-Methylbenzo[<em>d</em>]thiazole",
    "duplicated_cas_no": "",
    "SMILES": "CC1=NC=2C(S1)=CC=CC2",
    "meta_data": {
        "InChI": "InChI=1S/C8H7NS/c1-6-9-7-4-2-3-5-8(7)10-6/h2-5H,1H3",
        "InChIKey": null,
        "Canonical SMILES": "N=1C=2C=CC=CC2SC1C",
        "Molecular Formula": "C<sub>8</sub>H<sub>7</sub>NS",
        "Molecular Mass": "149.21",
        "Boiling Point": "238 °C",
        "Melting Point": "14 °C",
        "Density": "1.1697 g/cm³"
    }
}