{
    "cas_no": "581-43-1",
    "key_name": "2,6-Dihydroxynaphthalene",
    "cn_name": "2,6-萘二酚;2,6-二羟基萘;",
    "alternate_name": "2,6-Naphthalenediol;C.I. 76640;2,6-Dihydroxynaphthalene;2-Hydroxy-6-naphthol;2,6-Naphthohydroquinone;6-Hydroxy-2-naphthol;NSC 62687;2,6-Dihydroxynaphthaline",
    "duplicated_cas_no": "",
    "SMILES": "OC1=CC2=C(C=C(O)C=C2)C=C1",
    "meta_data": {
        "InChI": "InChI=1S/C10H8O2/c11-9-3-1-7-5-10(12)4-2-8(7)6-9/h1-6,11-12H",
        "InChIKey": null,
        "Canonical SMILES": "OC=1C=CC2=CC(O)=CC=C2C1",
        "Molecular Formula": "C<sub>10</sub>H<sub>8</sub>O<sub>2</sub>",
        "Molecular Mass": "160.17",
        "Melting Point": "220 °C"
    }
}