{
    "cas_no": "68157-60-8",
    "key_name": "Forchlorfenuron",
    "cn_name": "氯吡脲;氯吡苯脲;1-(2-氯-4-吡啶)-3-苯基脲;",
    "alternate_name": "Urea, <em>N</em>-(2-chloro-4-pyridinyl)-<em>N</em>′-phenyl-;<em>N</em>-(2-Chloro-4-pyridinyl)-<em>N</em>′-phenylurea;1-(2-Chloro-4-pyridyl)-3-phenylurea;<em>N</em>-(2-Chloro-4-pyridyl)-<em>N</em>′-phenylurea;<em>N</em>-Phenyl-<em>N</em>′-(2-chloro-4-pyridyl)urea;4PU30;V 3183;CN 11-3138;Forchlorfenuron;KT 30;CPPU;KT 30 (plant growth regulator);SKW 20010;Fulmet;Sitofex;Chloropyridylphenyl urea;1-(2-Chloropyridin-4-yl)-3-phenylurea",
    "duplicated_cas_no": "",
    "SMILES": "N(C(NC1=CC=CC=C1)=O)C=2C=C(Cl)N=CC2",
    "meta_data": {
        "InChI": "InChI=1S/C12H10ClN3O/c13-11-8-10(6-7-14-11)16-12(17)15-9-4-2-1-3-5-9/h1-8H,(H2,14,15,16,17)",
        "InChIKey": null,
        "Canonical SMILES": "O=C(NC=1C=CC=CC1)NC=2C=CN=C(Cl)C2",
        "Molecular Formula": "C<sub>12</sub>H<sub>10</sub>ClN<sub>3</sub>O",
        "Molecular Mass": "247.68",
        "Melting Point": "167 °C"
    }
}