{
    "cas_no": "171364-82-2",
    "key_name": "4-(4,4,5,5-Tetramethyl-1,3,2-dioxaborolan-2-yl)benzonitrile",
    "cn_name": "4-(4,4,5,5-四甲基-1,3,2-二恶硼)苯甲腈;",
    "alternate_name": "Benzonitrile, 4-(4,4,5,5-tetramethyl-1,3,2-dioxaborolan-2-yl)-;4-(4,4,5,5-Tetramethyl-1,3,2-dioxaborolan-2-yl)benzonitrile;2-(4-Cyanophenyl)-4,4,5,5-tetramethyl-1,3,2-dioxaborolane;4,4,5,5-Tetramethyl-2-(4-cyanophenyl)-1,3,2-dioxaborolane;4-(Cyanophenyl)boronic acid pinacol ester;1,1,2,2-Tetramethyldimethylene (4-cyanophenyl)boronate",
    "duplicated_cas_no": "",
    "SMILES": "CC1(C)OB(OC1(C)C)C2=CC=C(C#N)C=C2",
    "meta_data": {
        "InChI": "InChI=1S/C13H16BNO2/c1-12(2)13(3,4)17-14(16-12)11-7-5-10(9-15)6-8-11/h5-8H,1-4H3",
        "InChIKey": null,
        "Canonical SMILES": "N#CC1=CC=C(C=C1)B2OC(C)(C)C(O2)(C)C",
        "Molecular Formula": "C<sub>13</sub>H<sub>16</sub>BNO<sub>2</sub>",
        "Molecular Mass": "229.08",
        "Melting Point": "94-95 °C"
    }
}