{
    "cas_no": "4289-98-9",
    "key_name": "<em>N</em>-Formylmethionine",
    "cn_name": "N-甲酰-L-甲硫氨酸;",
    "alternate_name": "<span class=\"text-smallcaps\">L</span>-Methionine, <em>N</em>-formyl-;Methionine, <em>N</em>-formyl-, <span class=\"text-smallcaps\">L</span>-;<em>N</em>-Formyl-<span class=\"text-smallcaps\">L</span>-methionine;<em>N</em>-Formylmethionine;Formylmethionine;<span class=\"text-smallcaps\">L</span>-<em>N</em>-Formylmethionine;Formyl-<span class=\"text-smallcaps\">L</span>-methionine;<span class=\"text-smallcaps\">L</span>-Formylmethionine;NSC 334322;(2S)-2-Formamido-4-(methylsulfanyl)butanoic acid",
    "duplicated_cas_no": "1313606-19-7",
    "SMILES": "[C@@H](CCSC)(NC=O)C(O)=O",
    "meta_data": {
        "InChI": "InChI=1S/C6H11NO3S/c1-11-3-2-5(6(9)10)7-4-8/h4-5H,2-3H2,1H3,(H,7,8)(H,9,10)/t5-/m0/s1",
        "InChIKey": null,
        "Canonical SMILES": "O=CNC(C(=O)O)CCSC",
        "Molecular Formula": "C<sub>6</sub>H<sub>11</sub>NO<sub>3</sub>S",
        "Molecular Mass": "177.22",
        "Melting Point": "100.0-101.5 °C"
    }
}