{
    "cas_no": "5103-42-4",
    "key_name": "Hydrindantin",
    "cn_name": null,
    "alternate_name": "[2,2′-Bi-1<em>H</em>-indene]-1,1′,3,3′(2<em>H</em>,2′<em>H</em>)-tetrone, 2,2′-dihydroxy-;[2,2′-Biindan]-1,1′,3,3′-tetrone, 2,2′-dihydroxy-;2,2′-Dihydroxy[2,2′-bi-1<em>H</em>-indene]-1,1′,3,3′(2<em>H</em>,2′<em>H</em>)-tetrone;Hydrindantin;NSC 83617;2,2′-Dihydroxy-1<em>H</em>,1′<em>H</em>-[2,2′-biindene]-1,1′,3,3′(2<em>H</em>,2′<em>H</em>)-tetraone;2-Hydroxy-2-(2-hydroxy-1,3-dioxo-2,3-dihydro-1<em>H</em>-inden-2-yl)-2,3-dihydro-1<em>H</em>-indene-1,3-dione;2-Hydroxy-2-(2-hydroxy-1,3-dioxoinden-2-yl)indene-1,3-dione",
    "duplicated_cas_no": "",
    "SMILES": "OC1(C(=O)C=2C(C1=O)=CC=CC2)C3(O)C(=O)C=4C(C3=O)=CC=CC4",
    "meta_data": {
        "InChI": "InChI=1S/C18H10O6/c19-13-9-5-1-2-6-10(9)14(20)17(13,23)18(24)15(21)11-7-3-4-8-12(11)16(18)22/h1-8,23-24H",
        "InChIKey": null,
        "Canonical SMILES": "O=C1C=2C=CC=CC2C(=O)C1(O)C3(O)C(=O)C=4C=CC=CC4C3=O",
        "Molecular Formula": "C<sub>18</sub>H<sub>10</sub>O<sub>6</sub>",
        "Molecular Mass": "322.27",
        "Melting Point": "250 °C (decomp)"
    }
}