{
    "cas_no": "4331-54-8",
    "key_name": "4-Methylcyclohexanecarboxylic acid",
    "cn_name": null,
    "alternate_name": "Cyclohexanecarboxylic acid, 4-methyl-;4-Methylcyclohexanecarboxylic acid;<em>p</em>-Methylcyclohexanecarboxylic acid",
    "duplicated_cas_no": "",
    "SMILES": "C(O)(=O)C1CCC(C)CC1",
    "meta_data": {
        "InChI": "InChI=1S/C8H14O2/c1-6-2-4-7(5-3-6)8(9)10/h6-7H,2-5H2,1H3,(H,9,10)",
        "InChIKey": null,
        "Canonical SMILES": "O=C(O)C1CCC(C)CC1",
        "Molecular Formula": "C<sub>8</sub>H<sub>14</sub>O<sub>2</sub>",
        "Molecular Mass": "142.20",
        "Boiling Point": "134-136 °C @ Press: 15 Torr",
        "Melting Point": "110 °C",
        "Density": "1.0140 g/cm³ @ Temp: 16 °C"
    }
}