{
    "cas_no": "365-22-0",
    "key_name": "4-Fluoro-α-phenylbenzenemethanol",
    "cn_name": null,
    "alternate_name": "Benzenemethanol, 4-fluoro-α-phenyl-;Benzhydrol, 4-fluoro-;4-Fluoro-α-phenylbenzenemethanol;4-Fluorobenzhydrol;(4-Fluorophenyl)phenylmethanol;(<em>p</em>-Fluorophenyl)phenylcarbinol;(±)-(4-Fluorophenyl)phenylmethanol;(±)-1-(<em>p</em>-Fluorophenyl)-1-phenylmethanol",
    "duplicated_cas_no": "",
    "SMILES": "C(O)(C1=CC=C(F)C=C1)C2=CC=CC=C2",
    "meta_data": {
        "InChI": "InChI=1S/C13H11FO/c14-12-8-6-11(7-9-12)13(15)10-4-2-1-3-5-10/h1-9,13,15H",
        "InChIKey": null,
        "Canonical SMILES": "FC1=CC=C(C=C1)C(O)C=2C=CC=CC2",
        "Molecular Formula": "C<sub>13</sub>H<sub>11</sub>FO",
        "Molecular Mass": "202.22",
        "Boiling Point": "167-168 °C @ Press: 10-11 Torr",
        "Melting Point": "48 °C"
    }
}