{
    "cas_no": "108963-96-8",
    "key_name": "1-(1,1-Dimethylethyl) 2-methyl (2<em>S</em>)-5-oxo-1,2-pyrrolidinedicarboxylate",
    "cn_name": "Boc-L-焦谷氨酸甲酯;叔丁氧羰基-L-焦谷氨酸甲酯;",
    "alternate_name": "1,2-Pyrrolidinedicarboxylic acid, 5-oxo-, 1-(1,1-dimethylethyl) 2-methyl ester, (2<em>S</em>)-;1,2-Pyrrolidinedicarboxylic acid, 5-oxo-, 1-(1,1-dimethylethyl) 2-methyl ester, (<em>S</em>)-;1-(1,1-Dimethylethyl) 2-methyl (2<em>S</em>)-5-oxo-1,2-pyrrolidinedicarboxylate;1-<em>tert</em>-Butyl 2-methyl (2<em>S</em>)-5-oxopyrrolidine-1,2-dicarboxylate;Methyl <em>N</em>-Boc-<span class=\"text-smallcaps\">L</span>-pyroglutamate;<em>N</em>-<em>tert</em>-Butoxycarbonylpyroglutamic acid methyl ester;<em>N</em>-Boc-<span class=\"text-smallcaps\">L</span>-Pyroglutamic acid methyl ester;1-<em>O</em>-<em>tert</em>-Butyl 2-<em>O</em>-methyl (2S)-5-oxopyrrolidine-1,2-dicarboxylate;(<em>S</em>)-1-<em>tert</em>-Butyl 2-methyl 5-oxopyrrolidine-1,2-dicarboxylate",
    "duplicated_cas_no": "",
    "SMILES": "C(OC(C)(C)C)(=O)N1[C@H](C(OC)=O)CCC1=O",
    "meta_data": {
        "InChI": "InChI=1S/C11H17NO5/c1-11(2,3)17-10(15)12-7(9(14)16-4)5-6-8(12)13/h7H,5-6H2,1-4H3/t7-/m0/s1",
        "InChIKey": null,
        "Canonical SMILES": "O=C(OC(C)(C)C)N1C(=O)CCC1C(=O)OC",
        "Molecular Formula": "C<sub>11</sub>H<sub>17</sub>NO<sub>5</sub>",
        "Molecular Mass": "243.26",
        "Melting Point": "67-69 °C"
    }
}