{
    "cas_no": "1195-92-2",
    "key_name": "Limonene oxide",
    "cn_name": "(R)-氧化柠檬烯;",
    "alternate_name": "7-Oxabicyclo[4.1.0]heptane, 1-methyl-4-(1-methylethenyl)-;<em>p</em>-Menth-8-ene, 1,2-epoxy-;1-Methyl-4-(1-methylethenyl)-7-oxabicyclo[4.1.0]heptane;Limonene epoxide;Limonene oxide;1,2-Epoxy-<em>p</em>-menth-8-ene;Limonene 1,2-oxide;Limonene 1,2-epoxide;Limonene monoxide;1,2-Epoxylimonene;LMO;NSC 12045;Cis/trans-(<em>S</em>)-(-)-limonene oxide;1-Methyl-4-(prop-1-en-2-yl)-7-oxabicyclo[4.1.0]heptane",
    "duplicated_cas_no": "98240-20-1;10008-60-3;31326-91-7",
    "SMILES": "CC12C(O1)CC(C(C)=C)CC2",
    "meta_data": {
        "InChI": "InChI=1S/C10H16O/c1-7(2)8-4-5-10(3)9(6-8)11-10/h8-9H,1,4-6H2,2-3H3",
        "InChIKey": null,
        "Canonical SMILES": "O1C2CC(C(=C)C)CCC12C",
        "Molecular Formula": "C<sub>10</sub>H<sub>16</sub>O",
        "Molecular Mass": "152.23",
        "Boiling Point": "113.5 °C",
        "Density": "0.9303 g/cm³ @ Temp: 16 °C"
    }
}