{
    "cas_no": "63878-73-9",
    "key_name": "2-Fluoro-5-nitrobenzenemethanol",
    "cn_name": null,
    "alternate_name": "Benzenemethanol, 2-fluoro-5-nitro-;2-Fluoro-5-nitrobenzenemethanol;2-Fluoro-5-nitrobenzyl alcohol;(2-Fluoro-5-nitrophenyl)methanol",
    "duplicated_cas_no": "",
    "SMILES": "C(O)C1=CC(N(=O)=O)=CC=C1F",
    "meta_data": {
        "InChI": "InChI=1S/C7H6FNO3/c8-7-2-1-6(9(11)12)3-5(7)4-10/h1-3,10H,4H2",
        "InChIKey": null,
        "Canonical SMILES": "O=N(=O)C1=CC=C(F)C(=C1)CO",
        "Molecular Formula": "C<sub>7</sub>H<sub>6</sub>FNO<sub>3</sub>",
        "Molecular Mass": "171.13",
        "Melting Point": "69-71 °C"
    }
}