{
    "cas_no": "75-47-8",
    "key_name": "Iodoform",
    "cn_name": "碘仿;三碘甲烷;",
    "alternate_name": "Methane, triiodo-;Triiodomethane;Iodoform;Carbon triiodide;Dezinfekt V;NSC 26251",
    "duplicated_cas_no": "",
    "SMILES": "C(I)(I)I",
    "meta_data": {
        "InChI": "InChI=1S/CHI3/c2-1(3)4/h1H",
        "InChIKey": null,
        "Canonical SMILES": "IC(I)I",
        "Molecular Formula": "CHI<sub>3</sub>",
        "Molecular Mass": "393.73",
        "Boiling Point": "218 °C",
        "Melting Point": "119 °C",
        "Density": "4.008 g/cm³ @ Temp: 25 °C"
    }
}