{
    "cas_no": "297-97-2",
    "key_name": "Thionazin",
    "cn_name": null,
    "alternate_name": "Phosphorothioic acid, <em>O</em>,<em>O</em>-diethyl <em>O</em>-2-pyrazinyl ester;Phosphorothioic acid, <em>O</em>,<em>O</em>-diethyl <em>O</em>-pyrazinyl ester;Ethyl pyrazinyl phosphorothioate;AC 18133;ACC 18133;CL 18133;EN 18133;ENT 25,580;American Cyanamid 18133;Cynem;Experimental nematocide 18,133;Nemafos;Nematocide GR;Thionazin;Zinophos;<em>O</em>,<em>O</em>-Diethyl <em>O</em>-2-pyrazinyl phosphorothioate;Thionazine;Zynophos;Nemafos 10 G;Nemaphos;Cynophos",
    "duplicated_cas_no": "30917-36-3",
    "SMILES": "P(OC=1C=NC=CN1)(OCC)(OCC)=S",
    "meta_data": {
        "InChI": "InChI=1S/C8H13N2O3PS/c1-3-11-14(15,12-4-2)13-8-7-9-5-6-10-8/h5-7H,3-4H2,1-2H3",
        "InChIKey": null,
        "Canonical SMILES": "S=P(OC1=NC=CN=C1)(OCC)OCC",
        "Molecular Formula": "C<sub>8</sub>H<sub>13</sub>N<sub>2</sub>O<sub>3</sub>PS",
        "Molecular Mass": "248.24",
        "Boiling Point": "80 °C",
        "Melting Point": "-1.7 °C",
        "Density": "1.204-1.210 g/cm³ @ Temp: 25 °C"
    }
}