{
    "cas_no": "15317-58-5",
    "key_name": "1<em>H</em>-Indole-3-carboxylic acid hydrazide",
    "cn_name": null,
    "alternate_name": "1<em>H</em>-Indole-3-carboxylic acid, hydrazide;Indole-3-carboxylic acid, hydrazide;1<em>H</em>-Indole-3-carboxylic acid hydrazide;Indolyl-3-carbonyl hydrazide",
    "duplicated_cas_no": "",
    "SMILES": "C(NN)(=O)C=1C=2C(NC1)=CC=CC2",
    "meta_data": {
        "InChI": "InChI=1S/C9H9N3O/c10-12-9(13)7-5-11-8-4-2-1-3-6(7)8/h1-5,11H,10H2,(H,12,13)",
        "InChIKey": null,
        "Canonical SMILES": "O=C(NN)C1=CNC=2C=CC=CC21",
        "Molecular Formula": "C<sub>9</sub>H<sub>9</sub>N<sub>3</sub>O",
        "Molecular Mass": "175.19",
        "Melting Point": "224-226 °C (decomp)"
    }
}