{
    "cas_no": "30334-69-1",
    "key_name": "Perfluorobutanesulfonamide",
    "cn_name": null,
    "alternate_name": "1-Butanesulfonamide, 1,1,2,2,3,3,4,4,4-nonafluoro-;1,1,2,2,3,3,4,4,4-Nonafluoro-1-butanesulfonamide;Perfluorobutanesulfonamide;Nonafluorobutanesulfonamide;<em>n</em>-Nonafluorobutanesulfonamide;1,1,2,2,3,3,4,4,4-Nonafluoro-<em>n</em>-butanesulfonamide",
    "duplicated_cas_no": "",
    "SMILES": "C(C(C(F)(F)F)(F)F)(C(S(N)(=O)=O)(F)F)(F)F",
    "meta_data": {
        "InChI": "InChI=1S/C4H2F9NO2S/c5-1(6,3(9,10)11)2(7,8)4(12,13)17(14,15)16/h(H2,14,15,16)",
        "InChIKey": null,
        "Canonical SMILES": "O=S(=O)(N)C(F)(F)C(F)(F)C(F)(F)C(F)(F)F",
        "Molecular Formula": "C<sub>4</sub>H<sub>2</sub>F<sub>9</sub>NO<sub>2</sub>S",
        "Molecular Mass": "299.11",
        "Melting Point": "67.5 °C"
    }
}