{
    "cas_no": "1429-59-0",
    "key_name": "1,1′-[(1<em>R</em>)-1-(Hydroxymethyl)-1,2-ethanediyl] dioctadecanoate",
    "cn_name": null,
    "alternate_name": "Octadecanoic acid, 1,1′-[(1<em>R</em>)-1-(hydroxymethyl)-1,2-ethanediyl] ester;Stearin, 1,2-di-, <span class=\"text-smallcaps\">D</span>-;Octadecanoic acid, 1-(hydroxymethyl)-1,2-ethanediyl ester, (<em>R</em>)-;Octadecanoic acid, (1<em>R</em>)-1-(hydroxymethyl)-1,2-ethanediyl ester;1,1′-[(1<em>R</em>)-1-(Hydroxymethyl)-1,2-ethanediyl] dioctadecanoate;(<em>R</em>)-1,2-Distearin;2,3-Distearoyl-<em>sn</em>-glycerol;<em>sn</em>-2,3-Distearoylglycerol",
    "duplicated_cas_no": "111736-26-6",
    "SMILES": "[C@H](OC(CCCCCCCCCCCCCCCCC)=O)(COC(CCCCCCCCCCCCCCCCC)=O)CO",
    "meta_data": {
        "InChI": "InChI=1S/C39H76O5/c1-3-5-7-9-11-13-15-17-19-21-23-25-27-29-31-33-38(41)43-36-37(35-40)44-39(42)34-32-30-28-26-24-22-20-18-16-14-12-10-8-6-4-2/h37,40H,3-36H2,1-2H3/t37-/m1/s1",
        "InChIKey": null,
        "Canonical SMILES": "O=C(OCC(OC(=O)CCCCCCCCCCCCCCCCC)CO)CCCCCCCCCCCCCCCCC",
        "Molecular Formula": "C<sub>39</sub>H<sub>76</sub>O<sub>5</sub>",
        "Molecular Mass": "625.02",
        "Melting Point": "76-77 °C"
    }
}