{
    "cas_no": "373-68-2",
    "key_name": "Tetramethylammonium fluoride",
    "cn_name": "四甲基氟化铵;",
    "alternate_name": "Methanaminium, <em>N</em>,<em>N</em>,<em>N</em>-trimethyl-, fluoride (1:1);Ammonium, tetramethyl-, fluoride;Methanaminium, <em>N</em>,<em>N</em>,<em>N</em>-trimethyl-, fluoride;Tetramethylammonium fluoride;TMAF",
    "duplicated_cas_no": "",
    "SMILES": "[N+](C)(C)(C)C.[F-]",
    "meta_data": {
        "InChI": "InChI=1S/C4H12N.FH/c1-5(2,3)4;/h1-4H3;1H/q+1;/p-1",
        "InChIKey": null,
        "Canonical SMILES": "[F-].C[N+](C)(C)C",
        "Molecular Formula": "C<sub>4</sub>H<sub>12</sub>N.F",
        "Molecular Mass": "",
        "Melting Point": "180 °C (decomp)"
    }
}