{
    "cas_no": "624-39-5",
    "key_name": "1,4-Benzenedithiol",
    "cn_name": "1,4-苯二硫醇;对二硫基苯;1,4-苯基二硫醇;对苯二硫酚;二硫代对苯二酚;",
    "alternate_name": "1,4-Benzenedithiol;<em>p</em>-Benzenedithiol;1,4-Dimercaptobenzene;Hydroquinone disulfide;4-Mercaptothiophenol",
    "duplicated_cas_no": "",
    "SMILES": "SC1=CC=C(S)C=C1",
    "meta_data": {
        "InChI": "InChI=1S/C6H6S2/c7-5-1-2-6(8)4-3-5/h1-4,7-8H",
        "InChIKey": null,
        "Canonical SMILES": "SC1=CC=C(S)C=C1",
        "Molecular Formula": "C<sub>6</sub>H<sub>6</sub>S<sub>2</sub>",
        "Molecular Mass": "142.24",
        "Melting Point": "98 °C"
    }
}