{
    "cas_no": "105675-85-2",
    "key_name": "4-Bromo-1-methyl-1<em>H</em>-pyrazol-5-amine",
    "cn_name": "3-氨基-4-溴-2-甲基吡唑;N-2-甲基-5-氨基-4-溴吡唑;3-氨基-4-溴-1-甲基吡唑,97+%;",
    "alternate_name": "1<em>H</em>-Pyrazol-5-amine, 4-bromo-1-methyl-;4-Bromo-1-methyl-1<em>H</em>-pyrazol-5-amine;3-Amino-4-bromo-2-methylpyrazole;5-Amino-4-bromo-1-methylpyrazole;4-Bromo-2-methyl-2<em>H</em>-pyrazol-3-ylamine",
    "duplicated_cas_no": "",
    "SMILES": "NC1=C(Br)C=NN1C",
    "meta_data": {
        "InChI": "InChI=1S/C4H6BrN3/c1-8-4(6)3(5)2-7-8/h2H,6H2,1H3",
        "InChIKey": null,
        "Canonical SMILES": "BrC=1C=NN(C1N)C",
        "Molecular Formula": "C<sub>4</sub>H<sub>6</sub>BrN<sub>3</sub>",
        "Molecular Mass": "176.01",
        "Melting Point": "97 °C"
    }
}