{
    "cas_no": "940948-30-1",
    "key_name": "4-Chloro-2-iodo-1-(phenylsulfonyl)-1<em>H</em>-pyrrolo[2,3-<em>b</em>]pyridine",
    "cn_name": null,
    "alternate_name": "1<em>H</em>-Pyrrolo[2,3-<em>b</em>]pyridine, 4-chloro-2-iodo-1-(phenylsulfonyl)-;4-Chloro-2-iodo-1-(phenylsulfonyl)-1<em>H</em>-pyrrolo[2,3-<em>b</em>]pyridine;1-(Benzenesulfonyl)-4-chloro-2-iodo-pyrrolo[2,3-<em>b</em>]pyridine;1-(Phenylsulfonyl)-4-chloro-2-iodopyrrolo[2,3-<em>b</em>]pyridine;1-Benzenesulfonyl-4-chloro-2-iodo-7-azaindole",
    "duplicated_cas_no": "",
    "SMILES": "S(=O)(=O)(N1C=2C(C=C1I)=C(Cl)C=CN2)C3=CC=CC=C3",
    "meta_data": {
        "InChI": "InChI=1S/C13H8ClIN2O2S/c14-11-6-7-16-13-10(11)8-12(15)17(13)20(18,19)9-4-2-1-3-5-9/h1-8H",
        "InChIKey": null,
        "Canonical SMILES": "O=S(=O)(C=1C=CC=CC1)N2C(I)=CC=3C(Cl)=CC=NC32",
        "Molecular Formula": "C<sub>13</sub>H<sub>8</sub>ClIN<sub>2</sub>O<sub>2</sub>S",
        "Molecular Mass": "418.64",
        "Melting Point": "135 °C"
    }
}