{
    "cas_no": "575-90-6",
    "key_name": "(2,6-Dichlorophenoxy)acetic acid",
    "cn_name": "四溴苯酚T23P;",
    "alternate_name": "Acetic acid, 2-(2,6-dichlorophenoxy)-;Acetic acid, (2,6-dichlorophenoxy)-;2-(2,6-Dichlorophenoxy)acetic acid;2,6-D;(2,6-Dichlorophenoxy)acetic acid;NSC 409411",
    "duplicated_cas_no": "",
    "SMILES": "O(CC(O)=O)C1=C(Cl)C=CC=C1Cl",
    "meta_data": {
        "InChI": "InChI=1S/C8H6Cl2O3/c9-5-2-1-3-6(10)8(5)13-4-7(11)12/h1-3H,4H2,(H,11,12)",
        "InChIKey": null,
        "Canonical SMILES": "O=C(O)COC=1C(Cl)=CC=CC1Cl",
        "Molecular Formula": "C<sub>8</sub>H<sub>6</sub>Cl<sub>2</sub>O<sub>3</sub>",
        "Molecular Mass": "221.04",
        "Melting Point": "134.5-135 °C"
    }
}