{
    "cas_no": "2318-18-5",
    "key_name": "Senkirkine",
    "cn_name": "氧化苦参碱又名苦参素;",
    "alternate_name": "2,9-Dioxa-14-azabicyclo[9.5.1]heptadec-11-ene-3,8,17-trione, 4-ethylidene-7-hydroxy-6,7,14-trimethyl-, (1<em>R</em>,4<em>Z</em>,6<em>R</em>,7<em>R</em>)-;4,8-Secosenecionan-8,11,16-trione, 12-hydroxy-4-methyl-;2,3,5,7a-Tetrahydro-1,7a-dihydroxy-7-(hydroxymethyl)-4-methyl-1<em>H</em>-pyrrolizinium hydroxide, inner salt, cyclic diester with senecic acid;(1<em>R</em>,4<em>Z</em>,6<em>R</em>,7<em>R</em>)-4-Ethylidene-7-hydroxy-6,7,14-trimethyl-2,9-dioxa-14-azabicyclo[9.5.1]heptadec-11-ene-3,8,17-trione;Renardine (neutral);2,9-Dioxa-14-azabicyclo[9.5.1]heptadec-11-ene-3,8,17-trione, 4-ethylidene-7-hydroxy-6,7,14-trimethyl-, [1<em>R</em>-(1<em>R</em>*,4<em>Z</em>,6<em>R</em>*,7<em>R</em>*)]-;Senkirkine (neutral);Senkirkine;Renardine;Renardin;Senkirkin;NSC 89945",
    "duplicated_cas_no": "",
    "SMILES": "O=C1[C@@]2(OC(=O)/C(=C\\C)/C[C@@H](C)[C@@](C)(O)C(=O)OCC1=CCN(C)CC2)[H]",
    "meta_data": {
        "InChI": "InChI=1S/C19H27NO6/c1-5-13-10-12(2)19(3,24)18(23)25-11-14-6-8-20(4)9-7-15(16(14)21)26-17(13)22/h5-6,12,15,24H,7-11H2,1-4H3/b13-5-,14-6?/t12-,15-,19-/m1/s1",
        "InChIKey": null,
        "Canonical SMILES": "O=C1OC2C(=O)C(=CCN(C)CC2)COC(=O)C(O)(C)C(C)CC1=CC",
        "Molecular Formula": "C<sub>19</sub>H<sub>27</sub>NO<sub>6</sub>",
        "Molecular Mass": "365.42",
        "Melting Point": "198 °C"
    }
}