{
    "cas_no": "26218-75-7",
    "key_name": "Methyl 6-bromo-2-pyridinecarboxylate",
    "cn_name": "6-溴-2-吡啶甲酸甲酯;",
    "alternate_name": "2-Pyridinecarboxylic acid, 6-bromo-, methyl ester;Picolinic acid, 6-bromo-, methyl ester;Methyl 6-bromo-2-pyridinecarboxylate;Methyl 2-bromopyridine-6-carboxylate;Methyl 6-bromopicolinate;6-Bromopyridine-2-carboxylic acid methyl ester;Methyl 6-bromopyridine-2-carboxylate;6-Bromopicolinic acid methyl ester",
    "duplicated_cas_no": "",
    "SMILES": "C(OC)(=O)C=1N=C(Br)C=CC1",
    "meta_data": {
        "InChI": "InChI=1S/C7H6BrNO2/c1-11-7(10)5-3-2-4-6(8)9-5/h2-4H,1H3",
        "InChIKey": null,
        "Canonical SMILES": "O=C(OC)C1=NC(Br)=CC=C1",
        "Molecular Formula": "C<sub>7</sub>H<sub>6</sub>BrNO<sub>2</sub>",
        "Molecular Mass": "216.03",
        "Melting Point": "93-94 °C"
    }
}