{
    "cas_no": "521-32-4",
    "key_name": "Bilobetin",
    "cn_name": "7-去甲基银杏双黄酮;",
    "alternate_name": "4<em>H</em>-1-Benzopyran-4-one, 8-[5-(5,7-dihydroxy-4-oxo-4<em>H</em>-1-benzopyran-2-yl)-2-methoxyphenyl]-5,7-dihydroxy-2-(4-hydroxyphenyl)-;3′′′,8-Biflavone, 4′,5,5′′,7,7′′-pentahydroxy-4′′′-methoxy-;8-[5-(5,7-Dihydroxy-4-oxo-4<em>H</em>-1-benzopyran-2-yl)-2-methoxyphenyl]-5,7-dihydroxy-2-(4-hydroxyphenyl)-4<em>H</em>-1-benzopyran-4-one;Bilobetin;4′-Monomethylamentoflavone;4′-<em>O</em>-Methylamentoflavone;Amentoflavone 4′-methyl ether;8-(5-(5,7-Dihydroxy-4-oxo-4<em>H</em>-chromen-2-yl)-2-methoxyphenyl)-5,7-di hydroxy-2-(4-hydroxyphenyl)-4<em>H</em>-chromen-4-one",
    "duplicated_cas_no": "",
    "SMILES": "OC=1C(=C2C(C(=O)C=C(O2)C3=CC=C(O)C=C3)=C(O)C1)C4=C(OC)C=CC(=C4)C=5OC=6C(C(=O)C5)=C(O)C=C(O)C6",
    "meta_data": {
        "InChI": "InChI=1S/C31H20O10/c1-39-24-7-4-15(26-12-22(37)29-19(34)9-17(33)10-27(29)40-26)8-18(24)28-20(35)11-21(36)30-23(38)13-25(41-31(28)30)14-2-5-16(32)6-3-14/h2-13,32-36H,1H3",
        "InChIKey": null,
        "Canonical SMILES": "O=C1C=C(OC=2C=C(O)C=C(O)C12)C=3C=CC(OC)=C(C3)C4=C(O)C=C(O)C=5C(=O)C=C(OC54)C=6C=CC(O)=CC6",
        "Molecular Formula": "C<sub>31</sub>H<sub>20</sub>O<sub>10</sub>",
        "Molecular Mass": "552.48",
        "Melting Point": "225 °C"
    }
}