{
    "cas_no": "4228-00-6",
    "key_name": "Phenyl dodecanoate",
    "cn_name": "十二酸苯酯;十二酸苯酯;月桂酸苯酯;",
    "alternate_name": "Dodecanoic acid, phenyl ester;Lauric acid, phenyl ester;Phenyl dodecanoate;Phenyl laurate",
    "duplicated_cas_no": "",
    "SMILES": "O(C(CCCCCCCCCCC)=O)C1=CC=CC=C1",
    "meta_data": {
        "InChI": "InChI=1S/C18H28O2/c1-2-3-4-5-6-7-8-9-13-16-18(19)20-17-14-11-10-12-15-17/h10-12,14-15H,2-9,13,16H2,1H3",
        "InChIKey": null,
        "Canonical SMILES": "O=C(OC=1C=CC=CC1)CCCCCCCCCCC",
        "Molecular Formula": "C<sub>18</sub>H<sub>28</sub>O<sub>2</sub>",
        "Molecular Mass": "276.41",
        "Boiling Point": "192-195 °C @ Press: 4 Torr",
        "Melting Point": "24.5 °C",
        "Density": "0.9443 g/cm³ @ Temp: 20 °C"
    }
}