{
    "cas_no": "345-16-4",
    "key_name": "5-Fluorosalicylic acid",
    "cn_name": "5-氟水杨酸;",
    "alternate_name": "Benzoic acid, 5-fluoro-2-hydroxy-;Salicylic acid, 5-fluoro-;5-Fluoro-2-hydroxybenzoic acid;5-Fluorosalicylic acid;2-Hydroxy-5-fluorobenzoic acid;NSC 46619",
    "duplicated_cas_no": "",
    "SMILES": "C(O)(=O)C1=C(O)C=CC(F)=C1",
    "meta_data": {
        "InChI": "InChI=1S/C7H5FO3/c8-4-1-2-6(9)5(3-4)7(10)11/h1-3,9H,(H,10,11)",
        "InChIKey": null,
        "Canonical SMILES": "O=C(O)C1=CC(F)=CC=C1O",
        "Molecular Formula": "C<sub>7</sub>H<sub>5</sub>FO<sub>3</sub>",
        "Molecular Mass": "156.11",
        "Melting Point": "178.5-179.5 °C"
    }
}