{
    "cas_no": "335-99-9",
    "key_name": "2,2,3,3,4,4,5,5,6,6,7,7-Dodecafluoro-1-heptanol",
    "cn_name": "1H,1H,7H-十二氟-1-庚醇;",
    "alternate_name": "1-Heptanol, 2,2,3,3,4,4,5,5,6,6,7,7-dodecafluoro-;2,2,3,3,4,4,5,5,6,6,7,7-Dodecafluoro-1-heptanol;1<em>H</em>,1<em>H</em>,7<em>H</em>-Dodecafluoro-1-heptanol;1,1,7-Trihydroperfluoroheptyl alcohol;1<em>H</em>,1<em>H</em>,7<em>H</em>-Dodecafluoro-1-hydroxyheptane;1,1,7-Trihydroperfluoroheptanol;1,1,7-Trihydrododecafluoroheptan-1-ol;1,1,7-Trihydrododecafluoroheptanol;1<em>H</em>,1<em>H</em>,7<em>H</em>-Dodecafluoroheptanol;α,α,ω-Trihydroperfluoroheptanol;Dodecylfluoroheptanol;1<em>H</em>,1<em>H</em>,7<em>H</em>-Dodecafluoro-<em>n</em>-heptanol;2,2,3,3,4,4,5,5,6,6,7,7-Dodecafluoroheptanol;1,1,7-Trihydroperfluoro-1-heptanol;NSC 115;1<em>H</em>,1<em>H</em>,7<em>H</em>-Perfluoroheptanol;Dodecafluoroheptanol;1<em>H</em>,1<em>H</em>,7<em>H</em>-Perfluoro-1-heptanol",
    "duplicated_cas_no": "",
    "SMILES": "C(C(C(C(F)F)(F)F)(F)F)(C(C(CO)(F)F)(F)F)(F)F",
    "meta_data": {
        "InChI": "InChI=1S/C7H4F12O/c8-2(9)4(12,13)6(16,17)7(18,19)5(14,15)3(10,11)1-20/h2,20H,1H2",
        "InChIKey": null,
        "Canonical SMILES": "FC(F)C(F)(F)C(F)(F)C(F)(F)C(F)(F)C(F)(F)CO",
        "Molecular Formula": "C<sub>7</sub>H<sub>4</sub>F<sub>12</sub>O",
        "Molecular Mass": "332.09",
        "Boiling Point": "169-170 °C",
        "Melting Point": "-14 °C",
        "Density": "1.5574 g/cm³ @ Temp: 20 °C"
    }
}