{
    "cas_no": "368-78-5",
    "key_name": "[3-(Trifluoromethyl)phenyl]hydrazine",
    "cn_name": "3-(三氟甲基)苯肼;3-三氟甲基苯肼;间三氟甲基苯肼;",
    "alternate_name": "Hydrazine, [3-(trifluoromethyl)phenyl]-;Hydrazine, (α,α,α-trifluoro-<em>m</em>-tolyl)-;[3-(Trifluoromethyl)phenyl]hydrazine;α,α,α-Trifluoro-<em>m</em>-tolylhydrazine;3-Trifluoromethylphenyl hydrazine;<em>m</em>-(Trifluoromethyl)phenylhydrazine;NSC 157345",
    "duplicated_cas_no": "",
    "SMILES": "C(F)(F)(F)C1=CC(NN)=CC=C1",
    "meta_data": {
        "InChI": "InChI=1S/C7H7F3N2/c8-7(9,10)5-2-1-3-6(4-5)12-11/h1-4,12H,11H2",
        "InChIKey": null,
        "Canonical SMILES": "FC(F)(F)C=1C=CC=C(C1)NN",
        "Molecular Formula": "C<sub>7</sub>H<sub>7</sub>F<sub>3</sub>N<sub>2</sub>",
        "Molecular Mass": "176.14",
        "Boiling Point": "80-83 °C @ Press: 9 Torr"
    }
}