{
    "cas_no": "125-04-2",
    "key_name": "Hydrocortisone sodium succinate",
    "cn_name": "氢化可的松琥珀酸钠;",
    "alternate_name": "Pregn-4-ene-3,20-dione, 21-(3-carboxy-1-oxopropoxy)-11,17-dihydroxy-, sodium salt (1:1), (11β)-;Cortisol, 21-(hydrogen succinate), monosodium salt;Pregn-4-ene-3,20-dione, 21-(3-carboxy-1-oxopropoxy)-11,17-dihydroxy-, monosodium salt, (11β)-;Cortisol, hydrogen succinate, sodium salt;Cortisol, succinate, sodium salt;Corlan;Cortisol sodium succinate;EF-Cortelan Soluble;Hydrocortisone 21-hemisuccinate sodium salt;Hydrocortisone hemisuccinate sodium salt;Hydrocortisone sodium hemisuccinate;Hydrocortisone sodium succinate;Sodium hydrocortisone 21-hemisuccinate;Sodium hydrocortisone succinate;Sodium 17-hydroxycorticosterone 21-succinate;Solu-Cortef;Cortisol 21-sodium succinate;U 4905;Sodium hydrocortisone 21-succinate;Hydrocortisone 21-sodium succinate;Hydrocortisone sodium 21-hemisuccinate;Cortisol hemisuccinate sodium salt;Hydrocortisone 21-sodium succinide;Buccalsone;Solu-Glyc;Intracort;Nordicort;Flebocortid;Emi-Corlin;Oralsone;Cortisol sodium hemisuccinate;Hydrocortisone 21-succinate sodium salt;A-HydroCort",
    "duplicated_cas_no": "30678-79-6",
    "SMILES": "C[C@@]12[C@]([C@]3([C@]([C@@H](O)C1)([C@]4(C)C(CC3)=CC(=O)CC4)[H])[H])(CC[C@@]2(C(COC(CCC(O)=O)=O)=O)O)[H].[Na]",
    "meta_data": {
        "InChI": "InChI=1S/C25H34O8.Na/c1-23-9-7-15(26)11-14(23)3-4-16-17-8-10-25(32,24(17,2)12-18(27)22(16)23)19(28)13-33-21(31)6-5-20(29)30;/h11,16-18,22,27,32H,3-10,12-13H2,1-2H3,(H,29,30);/t16-,17-,18-,22+,23-,24-,25-;/m0./s1",
        "InChIKey": null,
        "Canonical SMILES": "[Na].O=C(O)CCC(=O)OCC(=O)C1(O)CCC2C3CCC4=CC(=O)CCC4(C)C3C(O)CC21C",
        "Molecular Formula": "C<sub>25</sub>H<sub>34</sub>O<sub>8</sub>.Na",
        "Molecular Mass": "",
        "Melting Point": "169-172 °C"
    }
}