{
    "cas_no": "5980-23-4",
    "key_name": "3,5-Dichlorobenzamide",
    "cn_name": "3,5-二氯苯甲酰胺;",
    "alternate_name": "Benzamide, 3,5-dichloro-;3,5-Dichlorobenzamide",
    "duplicated_cas_no": "",
    "SMILES": "C(N)(=O)C1=CC(Cl)=CC(Cl)=C1",
    "meta_data": {
        "InChI": "InChI=1S/C7H5Cl2NO/c8-5-1-4(7(10)11)2-6(9)3-5/h1-3H,(H2,10,11)",
        "InChIKey": null,
        "Canonical SMILES": "O=C(N)C=1C=C(Cl)C=C(Cl)C1",
        "Molecular Formula": "C<sub>7</sub>H<sub>5</sub>Cl<sub>2</sub>NO",
        "Molecular Mass": "190.03",
        "Melting Point": "145 °C"
    }
}