{
    "cas_no": "2223-82-7",
    "key_name": "Neopentyl glycol diacrylate",
    "cn_name": "新戊二醇二丙烯酸酯;2,2-二甲基-1,3-丙烷二基二丙烯酸酯;2-丙烯酸-2,2-二甲基-1,3-丙二酯;",
    "alternate_name": "2-Propenoic acid, 1,1′-(2,2-dimethyl-1,3-propanediyl) ester;Acrylic acid, 2,2-dimethyltrimethylene ester;2-Propenoic acid, 2,2-dimethyl-1,3-propanediyl ester;1,3-Propanediol, 2,2-dimethyl-, diacrylate;2,2-Dimethyltrimethylene acrylate;Sartomer SR 247;Dimethylolpropane diacrylate;2,2-Dimethylpropane-1,3-diol diacrylate;Neopentyl glycol diacrylate;Neopentanediol diacrylate;NK Ester A-NPG;Kayarad NPGDA;Viscoat 247;NPGDA;Viscoat 215;2,2-Dimethylpropanediol diacrylate;Light Acrylate ND-A;Light Acrylate NP-A;Sartomer 247;NSC 97407;A-NPG;NP-A;Etermer EM 225;EM 225;SR 247;(2,2-Dimethyl-3-prop-2-enoyloxypropyl) prop-2-enoate;2,2-Dimethylpropane-1,3-diyl diacrylate;A 17770;EM 325;LM 255",
    "duplicated_cas_no": "95576-40-2;127194-97-2",
    "SMILES": "C(C(COC(C=C)=O)(C)C)OC(C=C)=O",
    "meta_data": {
        "InChI": "InChI=1S/C11H16O4/c1-5-9(12)14-7-11(3,4)8-15-10(13)6-2/h5-6H,1-2,7-8H2,3-4H3",
        "InChIKey": null,
        "Canonical SMILES": "O=C(OCC(C)(C)COC(=O)C=C)C=C",
        "Molecular Formula": "C<sub>11</sub>H<sub>16</sub>O<sub>4</sub>",
        "Molecular Mass": "212.24",
        "Boiling Point": "96 °C @ Press: 0.98 Torr",
        "Melting Point": "6 °C",
        "Density": "1.0 g/cm³"
    }
}