{
    "cas_no": "6117-80-2",
    "key_name": "<em>cis</em>-2-Butene-1,4-diol",
    "cn_name": "顺式-1,2-二羟甲基乙烯;1,4-丁烯二醇;1,4-二羟基-2-丁烯;",
    "alternate_name": "2-Butene-1,4-diol, (2<em>Z</em>)-;2-Butene-1,4-diol, (<em>Z</em>)-;2-Butene-1,4-diol, <em>cis</em>-;(2<em>Z</em>)-2-Butene-1,4-diol;<em>cis</em>-2-Butene-1,4-diol;<em>cis</em>-1,4-Dihydroxy-2-butene;(<em>Z</em>)-1,4-Dihydroxy-2-butene;<em>cis</em>-But-2-en-1,4-diol;(<em>Z</em>)-2-Butene-1,4-diol;(<em>Z</em>)-2-Buten-1,4-diol;(Z)-2-Buten-1,4-diol",
    "duplicated_cas_no": "88450-00-4",
    "SMILES": "C(=C\\CO)\\CO",
    "meta_data": {
        "InChI": "InChI=1S/C4H8O2/c5-3-1-2-4-6/h1-2,5-6H,3-4H2/b2-1-",
        "InChIKey": null,
        "Canonical SMILES": "OCC=CCO",
        "Molecular Formula": "C<sub>4</sub>H<sub>8</sub>O<sub>2</sub>",
        "Molecular Mass": "88.11",
        "Boiling Point": "235 °C",
        "Melting Point": "4 °C",
        "Density": "1.082 g/cm³ @ Temp: 15 °C"
    }
}