{
    "cas_no": "18856-68-3",
    "key_name": "1,3-Diethyl 2-[(dimethylamino)methylene]propanedioate",
    "cn_name": "二甲氨亚甲基丙二酸二乙酯;",
    "alternate_name": "Propanedioic acid, 2-[(dimethylamino)methylene]-, 1,3-diethyl ester;Malonic acid, [(dimethylamino)methylene]-, diethyl ester;Propanedioic acid, [(dimethylamino)methylene]-, diethyl ester;1,3-Diethyl 2-[(dimethylamino)methylene]propanedioate;Diethyl dimethylaminomethylenemalonate;[(Dimethylamino)methylene]propanedioic acid diethyl ester;NSC 522482;Ethyl 2-ethoxycarbonyl-3-dimethylamino-2-acrylate;Diethyl 2-[(dimethylamino)methylene]malonate;1,3-Diethyl 2-[(dimethylamino)methylidene]propanedioate",
    "duplicated_cas_no": "",
    "SMILES": "C(C(OCC)=O)(C(OCC)=O)=CN(C)C",
    "meta_data": {
        "InChI": "InChI=1S/C10H17NO4/c1-5-14-9(12)8(7-11(3)4)10(13)15-6-2/h7H,5-6H2,1-4H3",
        "InChIKey": null,
        "Canonical SMILES": "O=C(OCC)C(=CN(C)C)C(=O)OCC",
        "Molecular Formula": "C<sub>10</sub>H<sub>17</sub>NO<sub>4</sub>",
        "Molecular Mass": "215.25",
        "Boiling Point": "123 °C @ Press: 0.07 Torr",
        "Melting Point": "176-178 °C"
    }
}