{
    "cas_no": "6342-60-5",
    "key_name": "2-Chloro-5-methylbenzoic acid",
    "cn_name": "2-氯-5-甲基苯甲酸;",
    "alternate_name": "Benzoic acid, 2-chloro-5-methyl-;<em>m</em>-Toluic acid, 6-chloro-;2-Chloro-5-methylbenzoic acid;NSC 46623",
    "duplicated_cas_no": "",
    "SMILES": "C(O)(=O)C1=C(Cl)C=CC(C)=C1",
    "meta_data": {
        "InChI": "InChI=1S/C8H7ClO2/c1-5-2-3-7(9)6(4-5)8(10)11/h2-4H,1H3,(H,10,11)",
        "InChIKey": null,
        "Canonical SMILES": "O=C(O)C1=CC(=CC=C1Cl)C",
        "Molecular Formula": "C<sub>8</sub>H<sub>7</sub>ClO<sub>2</sub>",
        "Molecular Mass": "170.59",
        "Melting Point": "207-208 °C"
    }
}