{
    "cas_no": "4534-11-6",
    "key_name": "Benzenamine, 3-methyl-4-(1-methylethyl)-, hydrochloride (1:1)",
    "cn_name": "3-甲基-4-异丙基苯胺盐酸;",
    "alternate_name": "Benzenamine, 3-methyl-4-(1-methylethyl)-, hydrochloride (1:1);<em>o</em>-Cymen-5-amine, hydrochloride;Benzenamine, 3-methyl-4-(1-methylethyl)-, hydrochloride;3-Methyl-4-isopropylaniline hydrochloride;4-Isopropyl-3-methylaniline hydrochloride;3-Methyl-4-(propan-2-yl)aniline hydrochloride",
    "duplicated_cas_no": "",
    "SMILES": "C(C)(C)C1=C(C)C=C(N)C=C1.Cl",
    "meta_data": {
        "InChI": "InChI=1S/C10H15N.ClH/c1-7(2)10-5-4-9(11)6-8(10)3;/h4-7H,11H2,1-3H3;1H",
        "InChIKey": null,
        "Canonical SMILES": "Cl.NC1=CC=C(C(=C1)C)C(C)C",
        "Molecular Formula": "C<sub>10</sub>H<sub>15</sub>N.ClH",
        "Molecular Mass": "",
        "Melting Point": "213.0-213.5 °C"
    }
}