{
    "cas_no": "149777-84-4",
    "key_name": "4,4,5,5-Tetramethyl-2-[(1<em>E</em>)-2-(4-methylphenyl)ethenyl]-1,3,2-dioxaborolane",
    "cn_name": "4-甲基-β-苯乙烯基硼酸频哪醇酯;4-甲基-苯乙烯基硼酸频哪酯;4-甲基-Β-苯乙烯基硼酸频哪醇酯;4-甲基-Β-苯;",
    "alternate_name": "1,3,2-Dioxaborolane, 4,4,5,5-tetramethyl-2-[(1<em>E</em>)-2-(4-methylphenyl)ethenyl]-;1,3,2-Dioxaborolane, 4,4,5,5-tetramethyl-2-[2-(4-methylphenyl)ethenyl]-, (<em>E</em>)-;4,4,5,5-Tetramethyl-2-[(1<em>E</em>)-2-(4-methylphenyl)ethenyl]-1,3,2-dioxaborolane;(<em>E</em>)-4,4,5,5-Tetramethyl-2-(4-methylstyryl)-1,3,2-dioxaborolane",
    "duplicated_cas_no": "",
    "SMILES": "C(=C/C1=CC=C(C)C=C1)\\B2OC(C)(C)C(C)(C)O2",
    "meta_data": {
        "InChI": "InChI=1S/C15H21BO2/c1-12-6-8-13(9-7-12)10-11-16-17-14(2,3)15(4,5)18-16/h6-11H,1-5H3/b11-10+",
        "InChIKey": null,
        "Canonical SMILES": "O1B(OC(C)(C)C1(C)C)C=CC2=CC=C(C=C2)C",
        "Molecular Formula": "C<sub>15</sub>H<sub>21</sub>BO<sub>2</sub>",
        "Molecular Mass": "244.14",
        "Melting Point": "55-56 °C"
    }
}