{
    "cas_no": "60628-96-8",
    "key_name": "Bifonazole",
    "cn_name": "联苯苄唑;1-(alpha-联苯-4-基苄基)-1H-咪唑;",
    "alternate_name": "1<em>H</em>-Imidazole, 1-([1,1′-biphenyl]-4-ylphenylmethyl)-;1-([1,1′-Biphenyl]-4-ylphenylmethyl)-1<em>H</em>-imidazole;Trifonazole;Bifonazole;BAY-h 4502;Mycospor;Bifazol;(±)-Bifonazole;Mycosporan;Amycor;Bedriol;Azolmen;A-One-L;Bicutrin;bifosin;Agispor;1-[Phenyl(4-phenylphenyl)methyl]-1<em>H</em>-imidazole;1-[Phenyl-(4-phenylphenyl)methyl]imidazole;1-(Biphenyl-4-yl-phenyl-methyl)-1<em>H</em>-imidazole",
    "duplicated_cas_no": "162824-44-4",
    "SMILES": "C(C1=CC=C(C=C1)C2=CC=CC=C2)(N3C=CN=C3)C4=CC=CC=C4",
    "meta_data": {
        "InChI": "InChI=1S/C22H18N2/c1-3-7-18(8-4-1)19-11-13-21(14-12-19)22(24-16-15-23-17-24)20-9-5-2-6-10-20/h1-17,22H",
        "InChIKey": null,
        "Canonical SMILES": "N=1C=CN(C1)C(C=2C=CC=CC2)C=3C=CC(=CC3)C=4C=CC=CC4",
        "Molecular Formula": "C<sub>22</sub>H<sub>18</sub>N<sub>2</sub>",
        "Molecular Mass": "310.39",
        "Melting Point": "142 °C"
    }
}