{
    "cas_no": "59320-77-3",
    "key_name": "(6<em>E</em>)-8-Methyl-6-nonenoic acid",
    "cn_name": null,
    "alternate_name": "6-Nonenoic acid, 8-methyl-, (6<em>E</em>)-;6-Nonenoic acid, 8-methyl-, (<em>E</em>)-;(6<em>E</em>)-8-Methyl-6-nonenoic acid;8-Methylnon-<em>trans</em>-6-enoic acid;<em>trans</em>-8-Methylnon-6-enoic acid;(<em>E</em>)-8-Methyl-6-nonenoic acid",
    "duplicated_cas_no": "",
    "SMILES": "C(=C/C(C)C)\\CCCCC(O)=O",
    "meta_data": {
        "InChI": "InChI=1S/C10H18O2/c1-9(2)7-5-3-4-6-8-10(11)12/h5,7,9H,3-4,6,8H2,1-2H3,(H,11,12)/b7-5+",
        "InChIKey": null,
        "Canonical SMILES": "O=C(O)CCCCC=CC(C)C",
        "Molecular Formula": "C<sub>10</sub>H<sub>18</sub>O<sub>2</sub>",
        "Molecular Mass": "170.25",
        "Boiling Point": "130-132 °C @ Press: 12 Torr"
    }
}