{
    "cas_no": "55499-44-0",
    "key_name": "<em>B</em>-(2,4-Dimethylphenyl)boronic acid",
    "cn_name": null,
    "alternate_name": "Boronic acid, <em>B</em>-(2,4-dimethylphenyl)-;Boronic acid, (2,4-dimethylphenyl)-;<em>B</em>-(2,4-Dimethylphenyl)boronic acid;(2,4-Dimethylphenyl)boronic acid;2,4-Dimethylbenzeneboronic acid",
    "duplicated_cas_no": "",
    "SMILES": "B(O)(O)C1=C(C)C=C(C)C=C1",
    "meta_data": {
        "InChI": "InChI=1S/C8H11BO2/c1-6-3-4-8(9(10)11)7(2)5-6/h3-5,10-11H,1-2H3",
        "InChIKey": null,
        "Canonical SMILES": "OB(O)C1=CC=C(C=C1C)C",
        "Molecular Formula": "C<sub>8</sub>H<sub>11</sub>BO<sub>2</sub>",
        "Molecular Mass": "149.98",
        "Melting Point": "197-198 °C"
    }
}