{
    "cas_no": "60348-60-9",
    "key_name": "BDE 99",
    "cn_name": null,
    "alternate_name": "Benzene, 1,2,4-tribromo-5-(2,4-dibromophenoxy)-;1,2,4-Tribromo-5-(2,4-dibromophenoxy)benzene;2,2′,4,4′,5-Pentabromodiphenyl ether;2,2′,4,4′,5-Pentabromodiphenyl oxide;Tardex 50;Tardex 50L;BDE 99;PBDE 99;DTXSID9030048",
    "duplicated_cas_no": "",
    "SMILES": "O(C1=C(Br)C=C(Br)C(Br)=C1)C2=C(Br)C=C(Br)C=C2",
    "meta_data": {
        "InChI": "InChI=1S/C12H5Br5O/c13-6-1-2-11(9(16)3-6)18-12-5-8(15)7(14)4-10(12)17/h1-5H",
        "InChIKey": null,
        "Canonical SMILES": "BrC1=CC=C(OC2=CC(Br)=C(Br)C=C2Br)C(Br)=C1",
        "Molecular Formula": "C<sub>12</sub>H<sub>5</sub>Br<sub>5</sub>O",
        "Molecular Mass": "564.69",
        "Boiling Point": "416 °C",
        "Melting Point": "84-85 °C"
    }
}