{
    "cas_no": "13321-74-9",
    "key_name": "1-Bromo-2,5-dimethoxy-4-methylbenzene",
    "cn_name": null,
    "alternate_name": "Benzene, 1-bromo-2,5-dimethoxy-4-methyl-;Toluene, 4-bromo-2,5-dimethoxy-;1-Bromo-2,5-dimethoxy-4-methylbenzene;4-Bromo-2,5-dimethoxytoluene;4-Methyl-2,5-dimethoxybromobenzene;2-Bromo-5-methyl-1,4-dimethoxybenzene",
    "duplicated_cas_no": "",
    "SMILES": "O(C)C1=C(Br)C=C(OC)C(C)=C1",
    "meta_data": {
        "InChI": "InChI=1S/C9H11BrO2/c1-6-4-9(12-3)7(10)5-8(6)11-2/h4-5H,1-3H3",
        "InChIKey": null,
        "Canonical SMILES": "BrC=1C=C(OC)C(=CC1OC)C",
        "Molecular Formula": "C<sub>9</sub>H<sub>11</sub>BrO<sub>2</sub>",
        "Molecular Mass": "231.09",
        "Melting Point": "92-93 °C"
    }
}