{
    "cas_no": "110-43-0",
    "key_name": "2-Heptanone",
    "cn_name": "2-庚酮;甲基戊基甲酮;",
    "alternate_name": "2-Heptanone;Amyl methyl ketone;<em>n</em>-Amyl methyl ketone;Methyl amyl ketone;Methyl <em>n</em>-amyl ketone;Methyl pentyl ketone;Pentyl methyl ketone;Butylacetone;<em>n</em>-Pentyl methyl ketone;Methyl <em>n</em>-pentyl ketone;1-Methylhexanal;2-Oxoheptane;NSC 7313;MAK",
    "duplicated_cas_no": "",
    "SMILES": "C(CCCC)C(C)=O",
    "meta_data": {
        "InChI": "InChI=1S/C7H14O/c1-3-4-5-6-7(2)8/h3-6H2,1-2H3",
        "InChIKey": null,
        "Canonical SMILES": "O=C(C)CCCCC",
        "Molecular Formula": "C<sub>7</sub>H<sub>14</sub>O",
        "Molecular Mass": "114.19",
        "Boiling Point": "111 °C @ Press: 21 Torr",
        "Melting Point": "-35.5 °C",
        "Density": "0.8068 g/cm³ @ Temp: 30 °C"
    }
}