{
    "cas_no": "5763-44-0",
    "key_name": "Tetrahydrocyclopenta[<em>c</em>]pyrrole-1,3(2<em>H</em>,3a<em>H</em>)-dione",
    "cn_name": "乙酰乙酸乙酯钠盐;",
    "alternate_name": "Cyclopenta[<em>c</em>]pyrrole-1,3(2<em>H</em>,3a<em>H</em>)-dione, tetrahydro-;1,2-Cyclopentanedicarboximide;Tetrahydrocyclopenta[<em>c</em>]pyrrole-1,3(2<em>H</em>,3a<em>H</em>)-dione;2,4-Dioxo-3-azabicyclo[3.3.0]octane",
    "duplicated_cas_no": "897639-39-3",
    "SMILES": "O=C1C2C(C(=O)N1)CCC2",
    "meta_data": {
        "InChI": "InChI=1S/C7H9NO2/c9-6-4-2-1-3-5(4)7(10)8-6/h4-5H,1-3H2,(H,8,9,10)",
        "InChIKey": null,
        "Canonical SMILES": "O=C1NC(=O)C2CCCC12",
        "Molecular Formula": "C<sub>7</sub>H<sub>9</sub>NO<sub>2</sub>",
        "Molecular Mass": "139.15",
        "Melting Point": "90 °C"
    }
}