{
    "cas_no": "2578-33-8",
    "key_name": "5-(Phenylmethyl) hydrogen <span class=\"text-smallcaps\">D</span>-glutamate",
    "cn_name": null,
    "alternate_name": "<span class=\"text-smallcaps\">D</span>-Glutamic acid, 5-(phenylmethyl) ester;Glutamic acid, 5-benzyl ester, <span class=\"text-smallcaps\">D</span>-;5-(Phenylmethyl) hydrogen <span class=\"text-smallcaps\">D</span>-glutamate;γ-Benzyl <span class=\"text-smallcaps\">D</span>-glutamate;<span class=\"text-smallcaps\">D</span>-Glutamic acid γ-benzyl ester;<span class=\"text-smallcaps\">D</span>-Glutamic acid 5-benzyl ester;(2R)-2-Amino-5-oxo-5-phenylmethoxypentanoic acid;(<em>R</em>)-2-Amino-5-(benzyloxy)-5-oxopentanoic acid",
    "duplicated_cas_no": "2107320-92-1",
    "SMILES": "C(OC(CC[C@H](C(O)=O)N)=O)C1=CC=CC=C1",
    "meta_data": {
        "InChI": "InChI=1S/C12H15NO4/c13-10(12(15)16)6-7-11(14)17-8-9-4-2-1-3-5-9/h1-5,10H,6-8,13H2,(H,15,16)/t10-/m1/s1",
        "InChIKey": null,
        "Canonical SMILES": "O=C(O)C(N)CCC(=O)OCC=1C=CC=CC1",
        "Molecular Formula": "C<sub>12</sub>H<sub>15</sub>NO<sub>4</sub>",
        "Molecular Mass": "237.25",
        "Melting Point": "147-148 °C"
    }
}