{
    "cas_no": "2733-88-2",
    "key_name": "Nervonic acid methyl ester",
    "cn_name": "cis-15-十四酸甲酯;cis-15-十四酸甲酯;",
    "alternate_name": "15-Tetracosenoic acid, methyl ester, (15<em>Z</em>)-;15-Tetracosenoic acid, methyl ester, (<em>Z</em>)-;Methyl nervonate;Methyl <em>cis</em>-tetracos-15-enoate;Nervonic acid methyl ester;Methyl cis-15-tetracosenoate",
    "duplicated_cas_no": "",
    "SMILES": "C(CCCCCCC/C=C\\CCCCCCCC)CCCCCC(OC)=O",
    "meta_data": {
        "InChI": "InChI=1S/C25H48O2/c1-3-4-5-6-7-8-9-10-11-12-13-14-15-16-17-18-19-20-21-22-23-24-25(26)27-2/h10-11H,3-9,12-24H2,1-2H3/b11-10-",
        "InChIKey": null,
        "Canonical SMILES": "O=C(OC)CCCCCCCCCCCCCC=CCCCCCCCC",
        "Molecular Formula": "C<sub>25</sub>H<sub>48</sub>O<sub>2</sub>",
        "Molecular Mass": "380.65",
        "Boiling Point": "186-202 °C",
        "Melting Point": "14-15 °C"
    }
}