{
    "cas_no": "4053-08-1",
    "key_name": "4-Chloro-1,8-naphthalic anhydride",
    "cn_name": "4-氯-1,8-萘二甲酸酐;",
    "alternate_name": "1<em>H</em>,3<em>H</em>-Naphtho[1,8-<em>cd</em>]pyran-1,3-dione, 6-chloro-;Naphthalic anhydride, 4-chloro-;6-Chloro-1<em>H</em>,3<em>H</em>-naphtho[1,8-<em>cd</em>]pyran-1,3-dione;4-Chloro-1,8-naphthalenedicarboxylic anhydride;4-Chloronaphthalic anhydride;4-Chloro-1,8-naphthalic anhydride;4-Chloro-1,8-naphthalimide anhydride",
    "duplicated_cas_no": "",
    "SMILES": "O=C1C=2C=3C(C(=O)O1)=CC=CC3C(Cl)=CC2",
    "meta_data": {
        "InChI": "InChI=1S/C12H5ClO3/c13-9-5-4-8-10-6(9)2-1-3-7(10)11(14)16-12(8)15/h1-5H",
        "InChIKey": null,
        "Canonical SMILES": "O=C1OC(=O)C2=CC=C(Cl)C=3C=CC=C1C23",
        "Molecular Formula": "C<sub>12</sub>H<sub>5</sub>ClO<sub>3</sub>",
        "Molecular Mass": "232.62",
        "Melting Point": "216-217 °C"
    }
}