{
    "cas_no": "321-37-9",
    "key_name": "1-(4-Chlorophenyl)-2,2,2-trifluoroethanone",
    "cn_name": "4-氯-2,2,2-三氟甲基苯乙酮;4-氯-α,α,α-三氟甲基苯乙酮;",
    "alternate_name": "Ethanone, 1-(4-chlorophenyl)-2,2,2-trifluoro-;Acetophenone, 4′-chloro-2,2,2-trifluoro-;1-(4-Chlorophenyl)-2,2,2-trifluoroethanone;<em>p</em>-Chloro-α,α,α-trifluoroacetophenone;4′-Chloro-α,α,α-trifluoroacetophenone;α,α,α-Trifluoro-<em>p</em>-chloroacetophenone;<em>p</em>-Chlorophenyl trifluoromethyl ketone;Trifluoromethyl 4-chlorophenyl ketone;4′-Chloro-2,2,2-trifluoroacetophenone;4-Chlorophenyl trifluoromethyl ketone;NSC 405747;2,2,2-Trifluoro-4′-chloroacetophenone;1-Chloro-4-(trifluoroacetyl)benzene;4-Chloro-α,α,α-trifluoroacetophenone;2,2,2-Trifluoro-1-(4-chlorophenyl)ethanone;1-(4-Chlorophenyl)-2,2,2-trifluoro-1-ethanone;1-(4-Chlorophenyl)-2,2,2-trifluoroethan-1-one",
    "duplicated_cas_no": "",
    "SMILES": "C(C(F)(F)F)(=O)C1=CC=C(Cl)C=C1",
    "meta_data": {
        "InChI": "InChI=1S/C8H4ClF3O/c9-6-3-1-5(2-4-6)7(13)8(10,11)12/h1-4H",
        "InChIKey": null,
        "Canonical SMILES": "O=C(C1=CC=C(Cl)C=C1)C(F)(F)F",
        "Molecular Formula": "C<sub>8</sub>H<sub>4</sub>ClF<sub>3</sub>O",
        "Molecular Mass": "208.57",
        "Boiling Point": "180-183 °C @ Press: 760 Torr",
        "Melting Point": "26 °C"
    }
}