{
    "cas_no": "4233-33-4",
    "key_name": "4-Phenyl-1,2,4-triazoline-3,5-dione",
    "cn_name": null,
    "alternate_name": "3<em>H</em>-1,2,4-Triazole-3,5(4<em>H</em>)-dione, 4-phenyl-;Δ<sup>1</sup>-1,2,4-Triazoline-3,5-dione, 4-phenyl-;4-Phenyl-3<em>H</em>-1,2,4-triazole-3,5(4<em>H</em>)-dione;4-Phenyl-Δ<sup>1</sup>-1,2,4-triazoline-3,5-dione;<em>N</em>-Phenylazodicarboxylic imide;<em>N</em>-Phenyltriazolinedione;<em>N</em>-Phenyl-1,3,4-triazoline-2,5-dione;<em>N</em>-Phenylazodicarboximide;4-Phenyldehydrourazole;<em>N</em>-Phenyl-1,2,4-triazoline-3,5-dione;4-Phenyltriazoline-3,5-dione;4-Phenyl-4<em>H</em>-1,2,4-triazoline-3,5-dione;<em>N</em>-Phenyltriazoline-3,5-dione;4-Phenyl-1,2,4-triazolinedione;PTAD;4-Phenyl-3,5-dioxotriazole;4-Phenyl-1,2,4-triazoline-3,5-dione;<em>N</em>-Phenyl-1,3,5-triazoline-2,4-dione;Azodicarboxylic acid <em>N</em>-phenylimide;4-Phenyl-4<em>H</em>-[1,2,4]triazole-3,5-dione;4-Phenyl-4,5-dihydro-3<em>H</em>-1,2,4-triazole-3,5-dione;NSC 150362;4-Phenyl-3<em>H</em>-1,2,4-triazoline-3,5-dione;4-Phenyl-1,2,4-triazole-3,5-dione",
    "duplicated_cas_no": "",
    "SMILES": "O=C1N(C(=O)N=N1)C2=CC=CC=C2",
    "meta_data": {
        "InChI": "InChI=1S/C8H5N3O2/c12-7-9-10-8(13)11(7)6-4-2-1-3-5-6/h1-5H",
        "InChIKey": null,
        "Canonical SMILES": "O=C1N=NC(=O)N1C=2C=CC=CC2",
        "Molecular Formula": "C<sub>8</sub>H<sub>5</sub>N<sub>3</sub>O<sub>2</sub>",
        "Molecular Mass": "175.14",
        "Melting Point": "168-175 °C"
    }
}