{
    "cas_no": "136465-81-1",
    "key_name": "(3<em>S</em>,4a<em>S</em>,8a<em>S</em>)-<em>N</em>-(1,1-Dimethylethyl)decahydro-3-isoquinolinecarboxamide",
    "cn_name": null,
    "alternate_name": "3-Isoquinolinecarboxamide, <em>N</em>-(1,1-dimethylethyl)decahydro-, (3<em>S</em>,4a<em>S</em>,8a<em>S</em>)-;3-Isoquinolinecarboxamide, <em>N</em>-(1,1-dimethylethyl)decahydro-, [3<em>S</em>-(3α,4aβ,8aβ)]-;(3<em>S</em>,4a<em>S</em>,8a<em>S</em>)-<em>N</em>-(1,1-Dimethylethyl)decahydro-3-isoquinolinecarboxamide;(<em>S</em>,<em>S</em>,<em>S</em>)-<em>N</em>-<em>tert</em>-Butyldecahydroisoquinoline-3-carboxamide;[(3<em>S</em>)-(3α,4aβ,8aβ)]-<em>N</em>-(<em>tert</em>-Butyl)decahydro-3-isoquinolinecarboxamide;(3<em>S</em>,4a<em>S</em>,8a<em>S</em>)-Decahydroisoquinoline-3-carboxylic acid <em>tert</em>-butylamide",
    "duplicated_cas_no": "",
    "SMILES": "C(NC(C)(C)C)(=O)[C@@H]1C[C@]2([C@@](CN1)(CCCC2)[H])[H]",
    "meta_data": {
        "InChI": "InChI=1S/C14H26N2O/c1-14(2,3)16-13(17)12-8-10-6-4-5-7-11(10)9-15-12/h10-12,15H,4-9H2,1-3H3,(H,16,17)/t10-,11+,12-/m0/s1",
        "InChIKey": null,
        "Canonical SMILES": "O=C(NC(C)(C)C)C1NCC2CCCCC2C1",
        "Molecular Formula": "C<sub>14</sub>H<sub>26</sub>N<sub>2</sub>O",
        "Molecular Mass": "238.37",
        "Melting Point": "111-113 °C"
    }
}