{
    "cas_no": "2893-49-4",
    "key_name": "<em>N</em>-Isopropyl-<em>N</em>-methylethanolamine",
    "cn_name": null,
    "alternate_name": "Ethanol, 2-[methyl(1-methylethyl)amino]-;Ethanol, 2-(isopropylmethylamino)-;2-[Methyl(1-methylethyl)amino]ethanol;<em>N</em>-Isopropyl-<em>N</em>-methylethanolamine;NSC 45488;2-(Isopropyl(methyl)amino)ethanol;2-(<em>N</em>-Methyl-<em>N</em>-isopropylamino)ethanol;2-[Methyl(propan-2-yl)amino]ethan-1-ol;2-[Methyl(propan-2-yl)amino]ethanol",
    "duplicated_cas_no": "",
    "SMILES": "N(CCO)(C(C)C)C",
    "meta_data": {
        "InChI": "InChI=1S/C6H15NO/c1-6(2)7(3)4-5-8/h6,8H,4-5H2,1-3H3",
        "InChIKey": null,
        "Canonical SMILES": "OCCN(C)C(C)C",
        "Molecular Formula": "C<sub>6</sub>H<sub>15</sub>NO",
        "Molecular Mass": "117.19",
        "Boiling Point": "67-70 °C @ Press: 13-14 Torr"
    }
}