{
    "cas_no": "959-24-0",
    "key_name": "Sotalol hydrochloride",
    "cn_name": "盐酸索他洛尔;4\"-(1-羟基-2-异丙胺乙基)甲磺酸苯胺盐酸盐;",
    "alternate_name": "Methanesulfonamide, <em>N</em>-[4-[1-hydroxy-2-[(1-methylethyl)amino]ethyl]phenyl]-, hydrochloride (1:1);Methanesulfonanilide, 4′-[1-hydroxy-2-(isopropylamino)ethyl]-, monohydrochloride;Methanesulfonamide, <em>N</em>-[4-[1-hydroxy-2-[(1-methylethyl)amino]ethyl]phenyl]-, monohydrochloride;4′-[1-Hydroxy-2-(isopropylamino)ethyl]methanesulfonanilide hydrochloride;4′-[2-(Isopropylamino)-1-hydroxyethyl]methanesulfonanilide hydrochloride;<em>N</em>-Isopropyl-β-(4-methanesulfonamidophenyl)ethanolamine hydrochloride;Sotalol hydrochloride;MJ 1999;4′-[2-(Isopropylamino)-1-hydroxyethyl]methanesulfonanilide monohydrochloride;Sotalex;Sotacor;<span class=\"text-smallcaps\">D</smallcap><smallcap>L</span>-MJ 1999;(±)-Sotalol hydrochloride;<em>dl</em>-Sotalol hydrochloride;Betapace;Darob;Sotalol HCl;<em>N</em>-[4-[1-Hydroxy-2-[(1-methylethyl)amino]ethyl]phenyl]methanesulfonamide hydrochloride",
    "duplicated_cas_no": "4201-00-7",
    "SMILES": "C(CNC(C)C)(O)C1=CC=C(NS(C)(=O)=O)C=C1.Cl",
    "meta_data": {
        "InChI": "InChI=1S/C12H20N2O3S.ClH/c1-9(2)13-8-12(15)10-4-6-11(7-5-10)14-18(3,16)17;/h4-7,9,12-15H,8H2,1-3H3;1H",
        "InChIKey": null,
        "Canonical SMILES": "Cl.O=S(=O)(NC1=CC=C(C=C1)C(O)CNC(C)C)C",
        "Molecular Formula": "C<sub>12</sub>H<sub>20</sub>N<sub>2</sub>O<sub>3</sub>S.ClH",
        "Molecular Mass": "",
        "Melting Point": "206.5-207 °C"
    }
}