{
    "cas_no": "19716-26-8",
    "key_name": "Stigmasterol 3-<em>O</em>-β-<span class=\"text-smallcaps\">D</span>-glucopyranoside",
    "cn_name": null,
    "alternate_name": "β-<span class=\"text-smallcaps\">D</span>-Glucopyranoside, (3β,22<em>E</em>)-stigmasta-5,22-dien-3-yl;Stigmasta-5,22-diene, 3β-(β-<span class=\"text-smallcaps\">D</span>-glucopyranosyloxy)-;Stigmastane, β-<span class=\"text-smallcaps\">D</span>-glucopyranoside deriv.;(3β,22<em>E</em>)-Stigmasta-5,22-dien-3-yl β-<span class=\"text-smallcaps\">D</span>-glucopyranoside;Stigmasterol 3-<em>O</em>-β-<span class=\"text-smallcaps\">D</span>-glucopyranoside;Stigmasteryl β-glucoside;Stigmasterol glucoside;Stigmasterol β-<span class=\"text-smallcaps\">D</span>-glucoside;Stigmasteryl <span class=\"text-smallcaps\">D</span>-glucoside;Stigmasteryl β-<span class=\"text-smallcaps\">D</span>-glucopyranoside;Stigmasterol 3-β-<span class=\"text-smallcaps\">D</span>-glucopyranoside;Stigmasterol β-glucopyranoside;Stigmasterol β-<span class=\"text-smallcaps\">D</span>-glucopyranoside;Stigmasterol 3-<em>O</em>-glucoside;Stigmasterol 3-<em>O</em>-β-<span class=\"text-smallcaps\">D</span>-glucoside;Δ<sup>5</sup>-Stigmasterol 3-<em>O</em>-β-<span class=\"text-smallcaps\">D</span>-glucopyranoside;β-Stigmasteryl 3-<em>O</em>-β-<span class=\"text-smallcaps\">D</span>-glucopyranoside;3-<em>O</em>-β-<span class=\"text-smallcaps\">D</span>-Glucopyranosylstigmasterol;Stigma-5,22-dien-3-β-<span class=\"text-smallcaps\">D</span>-glucopyranoside;Stigmasterol <em>O</em>-glucoside;3-<em>O</em>-β-<span class=\"text-smallcaps\">D</span>-Glucopyranosyl-β-stigmasterol;Stigmasta-5,22-diene-3-<em>O</em>-β-<span class=\"text-smallcaps\">D</span>-glucopyranoside;β-Stigmasterol-3-<em>O</em>-β-<span class=\"text-smallcaps\">D</span>-glucopyranoside",
    "duplicated_cas_no": "118368-16-4",
    "SMILES": "C[C@@]12[C@]([C@]3([C@@]([C@]4(C)C(=CC3)C[C@@H](O[C@@H]5O[C@H](CO)[C@@H](O)[C@H](O)[C@H]5O)CC4)(CC1)[H])[H])(CC[C@@]2([C@@H](/C=C/[C@H](C(C)C)CC)C)[H])[H]",
    "meta_data": {
        "InChI": "InChI=1S/C35H58O6/c1-7-22(20(2)3)9-8-21(4)26-12-13-27-25-11-10-23-18-24(14-16-34(23,5)28(25)15-17-35(26,27)6)40-33-32(39)31(38)30(37)29(19-36)41-33/h8-10,20-22,24-33,36-39H,7,11-19H2,1-6H3/b9-8+/t21-,22-,24+,25+,26-,27+,28+,29-,30-,31+,32-,33-,34+,35-/m1/s1",
        "InChIKey": null,
        "Canonical SMILES": "OCC1OC(OC2CC3=CCC4C(CCC5(C)C(CCC45)C(C=CC(CC)C(C)C)C)C3(C)CC2)C(O)C(O)C1O",
        "Molecular Formula": "C<sub>35</sub>H<sub>58</sub>O<sub>6</sub>",
        "Molecular Mass": "574.83",
        "Melting Point": "299 °C"
    }
}