{
    "cas_no": "72482-64-5",
    "key_name": "2,4-Difluorobenzoyl chloride",
    "cn_name": null,
    "alternate_name": "Benzoyl chloride, 2,4-difluoro-;2,4-Difluorobenzoyl chloride;2,4-Difluorobenzoyl chloride acid chloride;2,4-Difluorobenzoic acid chloride",
    "duplicated_cas_no": "",
    "SMILES": "C(Cl)(=O)C1=C(F)C=C(F)C=C1",
    "meta_data": {
        "InChI": "InChI=1S/C7H3ClF2O/c8-7(11)5-2-1-4(9)3-6(5)10/h1-3H",
        "InChIKey": null,
        "Canonical SMILES": "O=C(Cl)C1=CC=C(F)C=C1F",
        "Molecular Formula": "C<sub>7</sub>H<sub>3</sub>ClF<sub>2</sub>O",
        "Molecular Mass": "176.55",
        "Boiling Point": "68-70 °C @ Press: 19 Torr",
        "Melting Point": "70-71 °C"
    }
}