{
    "cas_no": "700-13-0",
    "key_name": "Trimethylhydroquinone",
    "cn_name": "三甲基氢醌;2,3,5-三甲基氢醌;2,3,5-三甲基对苯二酚;",
    "alternate_name": "1,4-Benzenediol, 2,3,5-trimethyl-;Hydroquinone, trimethyl-;2,3,5-Trimethyl-1,4-benzenediol;ψ-Cumohydroquinone;Pseudocumohydroquinone;Trimethyl-<em>p</em>-hydroquinone;2,3,5-Trimethylhydroquinone;1,4-Dihydroxy-2,3,5-trimethylbenzene;Trimethylhydroquinone;2,3,5-Trimethyl-1,4-hydroquinone;2,3,5-Trimethyl-<em>p</em>-hydroquinone;NSC 401617",
    "duplicated_cas_no": "",
    "SMILES": "CC1=C(C)C(O)=C(C)C=C1O",
    "meta_data": {
        "InChI": "InChI=1S/C9H12O2/c1-5-4-8(10)6(2)7(3)9(5)11/h4,10-11H,1-3H3",
        "InChIKey": null,
        "Canonical SMILES": "OC=1C=C(C(O)=C(C1C)C)C",
        "Molecular Formula": "C<sub>9</sub>H<sub>12</sub>O<sub>2</sub>",
        "Molecular Mass": "152.19",
        "Melting Point": "170-171 °C"
    }
}