{
    "cas_no": "116-43-8",
    "key_name": "Succinylsulfathiazole",
    "cn_name": "丁二酰磺胺噻唑;琥珀酰磺胺噻唑;",
    "alternate_name": "Butanoic acid, 4-oxo-4-[[4-[(2-thiazolylamino)sulfonyl]phenyl]amino]-;Succinanilic acid, 4′-(2-thiazolylsulfamoyl)-;4-Oxo-4-[[4-[(2-thiazolylamino)sulfonyl]phenyl]amino]butanoic acid;Kaoxidin;Kaoxidine;2-(<em>N</em><sup>4</sup>-Succinylsulfanilamido)thiazole;Succinylsulfathiazole;Succinylsulphathiazole;Sulfasuccithiazole;Sulfasuxidine;Sulfenterone;Thiacyl;4′-(2-Thiazolylsulfamoyl)succinanilic acid;<em>p</em>-2-Thiazolylsulfamylsuccinanilic acid;Sulfasuccidine;Colistatin;Cremosuxidine;Rolsul;Sulfadigesin;Sulfasuccidin;Sulfasuccinil;NSC 14193;NSC 163939;3-([4-[(1,3-Thiazol-2-yl)sulfamoyl]phenyl]carbamoyl)propanoic acid",
    "duplicated_cas_no": "1391-00-0",
    "SMILES": "S(NC1=NC=CS1)(=O)(=O)C2=CC=C(NC(CCC(O)=O)=O)C=C2",
    "meta_data": {
        "InChI": "InChI=1S/C13H13N3O5S2/c17-11(5-6-12(18)19)15-9-1-3-10(4-2-9)23(20,21)16-13-14-7-8-22-13/h1-4,7-8H,5-6H2,(H,14,16)(H,15,17)(H,18,19)",
        "InChIKey": null,
        "Canonical SMILES": "O=C(O)CCC(=O)NC1=CC=C(C=C1)S(=O)(=O)NC2=NC=CS2",
        "Molecular Formula": "C<sub>13</sub>H<sub>13</sub>N<sub>3</sub>O<sub>5</sub>S<sub>2</sub>",
        "Molecular Mass": "355.39",
        "Melting Point": "193.5 °C"
    }
}