{
    "cas_no": "16034-49-4",
    "key_name": "3,5-Dimethyl-1<em>H</em>-pyrazole-1-acetic acid",
    "cn_name": null,
    "alternate_name": "1<em>H</em>-Pyrazole-1-acetic acid, 3,5-dimethyl-;Pyrazole-1-acetic acid, 3,5-dimethyl-;3,5-Dimethyl-1<em>H</em>-pyrazole-1-acetic acid;3,5-Dimethyl-1-pyrazolylacetic acid;(3,5-Dimethyl-1<em>H</em>-pyrazol-1-yl)acetic acid;2-(3,5-Dimethylpyrazol-1-yl)acetic acid;2-(3,5-Dimethyl-1<em>H</em>-pyrazol-1-yl)acetic acid",
    "duplicated_cas_no": "",
    "SMILES": "C(C(O)=O)N1N=C(C)C=C1C",
    "meta_data": {
        "InChI": "InChI=1S/C7H10N2O2/c1-5-3-6(2)9(8-5)4-7(10)11/h3H,4H2,1-2H3,(H,10,11)",
        "InChIKey": null,
        "Canonical SMILES": "O=C(O)CN1N=C(C=C1C)C",
        "Molecular Formula": "C<sub>7</sub>H<sub>10</sub>N<sub>2</sub>O<sub>2</sub>",
        "Molecular Mass": "154.17",
        "Boiling Point": "120-127 °C @ Press: 14 Torr",
        "Melting Point": "182 °C"
    }
}