{
    "cas_no": "112-70-9",
    "key_name": "1-Tridecanol",
    "cn_name": "十三醇;",
    "alternate_name": "1-Tridecanol;Tridecyl alcohol;<em>n</em>-Tridecyl alcohol;<em>n</em>-Tridecanol;<em>n</em>-Tridecan-1-ol;NSC 5252",
    "duplicated_cas_no": "",
    "SMILES": "C(CCCCCCO)CCCCCC",
    "meta_data": {
        "InChI": "InChI=1S/C13H28O/c1-2-3-4-5-6-7-8-9-10-11-12-13-14/h14H,2-13H2,1H3",
        "InChIKey": null,
        "Canonical SMILES": "OCCCCCCCCCCCCC",
        "Molecular Formula": "C<sub>13</sub>H<sub>28</sub>O",
        "Molecular Mass": "200.36",
        "Boiling Point": "152 °C @ Press: 14 Torr",
        "Melting Point": "32.5 °C",
        "Density": "0.8223 g/cm³ @ Temp: 31 °C"
    }
}