{
    "cas_no": "627-20-3",
    "key_name": "<em>cis</em>-2-Pentene",
    "cn_name": "顺-2-戊烯;&beta;-顺式-戊烯;",
    "alternate_name": "2-Pentene, (2<em>Z</em>)-;2-Pentene, (<em>Z</em>)-;2-Pentene, <em>cis</em>-;(2<em>Z</em>)-2-Pentene;<em>cis</em>-β-Amylene;(<em>Z</em>)-2-Pentene;<em>cis</em>-2-Pentene;<em>cis</em>-Pentene;(Z)-Pent-2-ene",
    "duplicated_cas_no": "33064-87-8",
    "SMILES": "C(\\CC)=C\\C",
    "meta_data": {
        "InChI": "InChI=1S/C5H10/c1-3-5-4-2/h3,5H,4H2,1-2H3/b5-3-",
        "InChIKey": null,
        "Canonical SMILES": "C(=CCC)C",
        "Molecular Formula": "C<sub>5</sub>H<sub>10</sub>",
        "Molecular Mass": "70.13",
        "Boiling Point": "36.9 °C",
        "Melting Point": "-151.4 °C",
        "Density": "0.6556 g/cm³ @ Temp: 20 °C"
    }
}