{
    "cas_no": "1663-45-2",
    "key_name": "1,2-Bis(diphenylphosphino)ethane",
    "cn_name": "1,2-双(二苯基膦)乙烷;",
    "alternate_name": "Phosphine, 1,1′-(1,2-ethanediyl)bis[1,1-diphenyl-;Phosphine, ethylenebis[diphenyl-;Phosphine, 1,2-ethanediylbis[diphenyl-;1,1′-(1,2-Ethanediyl)bis[1,1-diphenylphosphine];1,2-Bis(diphenylphosphino)ethane;Ethylenebis(diphenylphosphine);<em>P</em>,<em>P</em>′-Ethylenebis(diphenylphosphine);Bis(diphenylphosphino)ethane;Diphos;1,2-Ethanediylbis(diphenylphosphine);Ethanediylbis(diphenylphosphine);DPPE;1,2-Ethylenebis(diphenylphosphine);DPPE (ligand);NSC 76285;DPE;1,2-Bis(diphenylphosphanyl)ethane;[2-(Diphenylphosphanyl)ethyl]diphenylphosphane;B 1137;2-Diphenylphosphanylethyl(diphenyl)phosphane",
    "duplicated_cas_no": "70519-63-0;80799-36-6",
    "SMILES": "P(CCP(C1=CC=CC=C1)C2=CC=CC=C2)(C3=CC=CC=C3)C4=CC=CC=C4",
    "meta_data": {
        "InChI": "InChI=1S/C26H24P2/c1-5-13-23(14-6-1)27(24-15-7-2-8-16-24)21-22-28(25-17-9-3-10-18-25)26-19-11-4-12-20-26/h1-20H,21-22H2",
        "InChIKey": null,
        "Canonical SMILES": "C=1C=CC(=CC1)P(C=2C=CC=CC2)CCP(C=3C=CC=CC3)C=4C=CC=CC4",
        "Molecular Formula": "C<sub>26</sub>H<sub>24</sub>P<sub>2</sub>",
        "Molecular Mass": "398.42",
        "Melting Point": "142-143 °C"
    }
}