{
    "cas_no": "31721-94-5",
    "key_name": "5,7-Dihydroxychromone",
    "cn_name": null,
    "alternate_name": "4<em>H</em>-1-Benzopyran-4-one, 5,7-dihydroxy-;Chromone, 5,7-dihydroxy-;5,7-Dihydroxy-4<em>H</em>-1-benzopyran-4-one;5,7-Dihydroxychromone;5,7-Dihydroxy-4-chromone;5,7-Dihydroxy-4<em>H</em>-chromen-4-one",
    "duplicated_cas_no": "",
    "SMILES": "OC1=C2C(=CC(O)=C1)OC=CC2=O",
    "meta_data": {
        "InChI": "InChI=1S/C9H6O4/c10-5-3-7(12)9-6(11)1-2-13-8(9)4-5/h1-4,10,12H",
        "InChIKey": null,
        "Canonical SMILES": "O=C1C=COC=2C=C(O)C=C(O)C12",
        "Molecular Formula": "C<sub>9</sub>H<sub>6</sub>O<sub>4</sub>",
        "Molecular Mass": "178.14",
        "Melting Point": "272-273 °C"
    }
}