{
    "cas_no": "3731-59-7",
    "key_name": "Moroxydine",
    "cn_name": "吗啉胍;N-(2-胍基-亚胺甲基)-吗啉;",
    "alternate_name": "4-Morpholinecarboximidamide, <em>N</em>-(aminoiminomethyl)-;4-Morpholinecarboxamidine, <em>N</em>-amidino-;Guanidine, 4-morpholinecarboximidoyl-;<em>N</em>-(Aminoiminomethyl)-4-morpholinecarboximidamide;JD 1022;<em>N</em><sup>1</sup>,<em>N</em><sup>1</sup>-Anhydrobis(β-hydroxyethyl)biguanide;Moroxydine;4-Morpholinecarboximidoylguanidine;Vironil;Virugon;Virumin;Wirumin;ABOB;SKF 8898A;<em>N</em>-[Imino(4-morpholinyl)methyl]guanidine",
    "duplicated_cas_no": "22088-30-8;1195864-29-9",
    "SMILES": "C(NC(=N)N)(=N)N1CCOCC1",
    "meta_data": {
        "InChI": "InChI=1S/C6H13N5O/c7-5(8)10-6(9)11-1-3-12-4-2-11/h1-4H2,(H5,7,8,9,10)",
        "InChIKey": null,
        "Canonical SMILES": "N=C(N)NC(=N)N1CCOCC1",
        "Molecular Formula": "C<sub>6</sub>H<sub>13</sub>N<sub>5</sub>O",
        "Molecular Mass": "171.20",
        "Melting Point": "196-198 °C"
    }
}