{
    "cas_no": "23142-01-0",
    "key_name": "Carbetapentane citrate",
    "cn_name": "托可拉斯;",
    "alternate_name": "Cyclopentanecarboxylic acid, 1-phenyl-, 2-[2-(diethylamino)ethoxy]ethyl ester, 2-hydroxy-1,2,3-propanetricarboxylate (1:1);Cyclopentanecarboxylic acid, 1-phenyl-, 2-[2-(diethylamino)ethoxy]ethyl ester citrate (1:1);Toclase;Carbetapentane citrate;Sedotussin;Pentoxyverine citrate;Tosnore;Calnathal;Antees;Tuclase;Fustpentane;Pencal;Carbetane;Germapect;Cossym;UCB 2543;2-(2-(Diethylamino)ethoxy)ethyl 1-phenylcyclopentanecarboxylate 2-hydroxypropane-1,2,3-tricarboxylate",
    "duplicated_cas_no": "5585-88-6",
    "SMILES": "C(CC(O)=O)(CC(O)=O)(C(O)=O)O.C(OCCOCCN(CC)CC)(=O)C1(CCCC1)C2=CC=CC=C2",
    "meta_data": {
        "InChI": "InChI=1S/C20H31NO3.C6H8O7/c1-3-21(4-2)14-15-23-16-17-24-19(22)20(12-8-9-13-20)18-10-6-5-7-11-18;7-3(8)1-6(13,5(11)12)2-4(9)10/h5-7,10-11H,3-4,8-9,12-17H2,1-2H3;13H,1-2H2,(H,7,8)(H,9,10)(H,11,12)",
        "InChIKey": null,
        "Canonical SMILES": "O=C(O)CC(O)(C(=O)O)CC(=O)O.O=C(OCCOCCN(CC)CC)C1(C=2C=CC=CC2)CCCC1",
        "Molecular Formula": "C<sub>20</sub>H<sub>31</sub>NO<sub>3</sub>.C<sub>6</sub>H<sub>8</sub>O<sub>7</sub>",
        "Molecular Mass": "",
        "Melting Point": "93 °C"
    }
}