{
    "cas_no": "7559-04-8",
    "key_name": "Tocopherol quinone",
    "cn_name": "托可醌;",
    "alternate_name": "2,5-Cyclohexadiene-1,4-dione, 2-[(3<em>R</em>,7<em>R</em>,11<em>R</em>)-3-hydroxy-3,7,11,15-tetramethylhexadecyl]-3,5,6-trimethyl-;<em>p</em>-Benzoquinone, 2-(3-hydroxy-3,7,11,15-tetramethylhexadecyl)-3,5,6-trimethyl-;2,5-Cyclohexadiene-1,4-dione, 2-(3-hydroxy-3,7,11,15-tetramethylhexadecyl)-3,5,6-trimethyl-, [3<em>R</em>-(3<em>R</em>*,7<em>R</em>*,11<em>R</em>*)]-;2-[(3<em>R</em>,7<em>R</em>,11<em>R</em>)-3-Hydroxy-3,7,11,15-tetramethylhexadecyl]-3,5,6-trimethyl-2,5-cyclohexadiene-1,4-dione;α-Tocopherol quinone;α-Tocoquinone;α-Tocopherylquinone;Metarene;Tocopherol quinone;Tocopheryl quinone;Vitamin E quinone;<em>d</em>-α-Tocopherol quinone;2-((3<em>R</em>,7<em>R</em>,11<em>R</em>)-3-Hydroxy-3,7,11,15-tetramethylhexadecyl)-3,5,6-trimethylcyclohexa-2,5-diene-1,4-dione;Tocopherolquine",
    "duplicated_cas_no": "484-62-8;3361-14-6;7722-00-1;10318-22-6;11006-89-6;12712-93-5;24177-44-4",
    "SMILES": "C(C[C@](CCC[C@@H](CCC[C@@H](CCCC(C)C)C)C)(C)O)C1=C(C)C(=O)C(C)=C(C)C1=O",
    "meta_data": {
        "InChI": "InChI=1S/C29H50O3/c1-20(2)12-9-13-21(3)14-10-15-22(4)16-11-18-29(8,32)19-17-26-25(7)27(30)23(5)24(6)28(26)31/h20-22,32H,9-19H2,1-8H3/t21-,22-,29-/m1/s1",
        "InChIKey": null,
        "Canonical SMILES": "O=C1C(=C(C(=O)C(=C1C)CCC(O)(C)CCCC(C)CCCC(C)CCCC(C)C)C)C",
        "Molecular Formula": "C<sub>29</sub>H<sub>50</sub>O<sub>3</sub>",
        "Molecular Mass": "446.71",
        "Boiling Point": "120 °C @ Press: 2 x 10<sup>-3</sup> Torr"
    }
}