{
    "cas_no": "2779-81-9",
    "key_name": "3,6-Dichloro-4-pyridazinol",
    "cn_name": null,
    "alternate_name": "4-Pyridazinol, 3,6-dichloro-;3,6-Dichloro-4-pyridazinol;3,6-Dichloro-4-hydroxypyridazine",
    "duplicated_cas_no": "",
    "SMILES": "OC1=C(Cl)N=NC(Cl)=C1",
    "meta_data": {
        "InChI": "InChI=1S/C4H2Cl2N2O/c5-3-1-2(9)4(6)8-7-3/h1H,(H,7,9)",
        "InChIKey": null,
        "Canonical SMILES": "ClC1=NN=C(Cl)C(O)=C1",
        "Molecular Formula": "C<sub>4</sub>H<sub>2</sub>Cl<sub>2</sub>N<sub>2</sub>O",
        "Molecular Mass": "164.98",
        "Melting Point": "199-200 °C"
    }
}