{
    "cas_no": "1197-21-3",
    "key_name": "Phentermine hydrochloride",
    "cn_name": "盐酸苯丁胺;",
    "alternate_name": "Benzeneethanamine, α,α-dimethyl-, hydrochloride (1:1);Phenethylamine, α,α-dimethyl-, hydrochloride;Benzeneethanamine, α,α-dimethyl-, hydrochloride;MG 18370;α-Methylamphetamine hydrochloride;Phentermine hydrochloride;1-Phenyl-2-methyl-2-aminopropane hydrochloride;Wilpo;α,α-Dimethylphenethylamine hydrochloride;1,1-Dimethyl-2-phenylethylamine hydrochloride;Obermine Black &amp; Yellow;Adipex P;Fastin;2-Methyl-1-phenyl-2-propanamine hydrochloride;Adipex;Adipex-P",
    "duplicated_cas_no": "",
    "SMILES": "C(C(C)(C)N)C1=CC=CC=C1.Cl",
    "meta_data": {
        "InChI": "InChI=1S/C10H15N.ClH/c1-10(2,11)8-9-6-4-3-5-7-9;/h3-7H,8,11H2,1-2H3;1H",
        "InChIKey": null,
        "Canonical SMILES": "Cl.NC(C)(C)CC=1C=CC=CC1",
        "Molecular Formula": "C<sub>10</sub>H<sub>15</sub>N.ClH",
        "Molecular Mass": "",
        "Melting Point": "198 °C"
    }
}