{
    "cas_no": "670-95-1",
    "key_name": "4-Phenylimidazole",
    "cn_name": "4-苯基咪唑;",
    "alternate_name": "1<em>H</em>-Imidazole, 5-phenyl-;Imidazole, 4-phenyl-;1<em>H</em>-Imidazole, 4-phenyl-;5-Phenyl-1<em>H</em>-imidazole;4-Phenylimidazole;4(5)-Phenylimidazole;5-Phenylimidazole;4-Phenyl-1<em>H</em>-imidazole;NSC 195337",
    "duplicated_cas_no": "137456-02-1",
    "SMILES": "C1(=CN=CN1)C2=CC=CC=C2",
    "meta_data": {
        "InChI": "InChI=1S/C9H8N2/c1-2-4-8(5-3-1)9-6-10-7-11-9/h1-7H,(H,10,11)",
        "InChIKey": null,
        "Canonical SMILES": "N1=CNC(=C1)C=2C=CC=CC2",
        "Molecular Formula": "C<sub>9</sub>H<sub>8</sub>N<sub>2</sub>",
        "Molecular Mass": "144.17",
        "Melting Point": "132 °C"
    }
}