{
    "cas_no": "3391-10-4",
    "key_name": "1-(4-Chlorophenyl)ethanol",
    "cn_name": "1-(4-氯苯基)乙醇;",
    "alternate_name": "Benzenemethanol, 4-chloro-α-methyl-;Benzyl alcohol, <em>p</em>-chloro-α-methyl-;4-Chloro-α-methylbenzenemethanol;α-(<em>p</em>-Chlorophenyl)ethanol;<em>p</em>-Chloro-α-methylbenzyl alcohol;1-(4-Chlorophenyl)ethanol;1-(<em>p</em>-Chlorophenyl)ethanol;1-<em>p</em>-Chlorophenylethyl alcohol;4-Chlorophenylmethylcarbinol;<em>p</em>-Chloro-α-phenylethanol;1-(4-Chlorophenyl)ethan-1-ol;(±)-1-(4-Chlorophenyl)ethanol;NSC 87867;(±)-1-(<em>p</em>-Chlorophenyl)ethanol;CPE;α-Methyl-4-chlorobenzenemethanol;4-Chloro-α-methylbenzyl alcohol;CPE (chlorophenyl ethanol);α-Methyl-4-chlorobenzyl alcohol",
    "duplicated_cas_no": "75968-35-3;1375747-87-7",
    "SMILES": "C(C)(O)C1=CC=C(Cl)C=C1",
    "meta_data": {
        "InChI": "InChI=1S/C8H9ClO/c1-6(10)7-2-4-8(9)5-3-7/h2-6,10H,1H3",
        "InChIKey": null,
        "Canonical SMILES": "ClC1=CC=C(C=C1)C(O)C",
        "Molecular Formula": "C<sub>8</sub>H<sub>9</sub>ClO",
        "Molecular Mass": "156.61",
        "Boiling Point": "140-142 °C @ Press: 31 Torr",
        "Density": "1.171 g/cm³ @ Temp: 20 °C"
    }
}