{
    "cas_no": "583-17-5",
    "key_name": "<em>o</em>-Coumaric acid",
    "cn_name": null,
    "alternate_name": "2-Propenoic acid, 3-(2-hydroxyphenyl)-;Cinnamic acid, <em>o</em>-hydroxy-;3-(2-Hydroxyphenyl)-2-propenoic acid;<em>o</em>-Coumaric acid;2-Hydroxycinnamic acid;<em>o</em>-Hydroxycinnamic acid;2-Coumaric acid",
    "duplicated_cas_no": "",
    "SMILES": "C(=CC(O)=O)C1=C(O)C=CC=C1",
    "meta_data": {
        "InChI": "InChI=1S/C9H8O3/c10-8-4-2-1-3-7(8)5-6-9(11)12/h1-6,10H,(H,11,12)",
        "InChIKey": null,
        "Canonical SMILES": "O=C(O)C=CC=1C=CC=CC1O",
        "Molecular Formula": "C<sub>9</sub>H<sub>8</sub>O<sub>3</sub>",
        "Molecular Mass": "164.16",
        "Melting Point": "188 °C"
    }
}