{
    "cas_no": "4166-53-4",
    "key_name": "Dihydro-4-methyl-2<em>H</em>-pyran-2,6(3<em>H</em>)-dione",
    "cn_name": null,
    "alternate_name": "2<em>H</em>-Pyran-2,6(3<em>H</em>)-dione, dihydro-4-methyl-;Glutaric anhydride, 3-methyl-;Dihydro-4-methyl-2<em>H</em>-pyran-2,6(3<em>H</em>)-dione;β-Methylglutaric anhydride;3-Methylglutaric anhydride;β-Methylglutaryl anhydride;4-Methyltetrahydropyran-2,6-dione",
    "duplicated_cas_no": "114912-73-1",
    "SMILES": "CC1CC(=O)OC(=O)C1",
    "meta_data": {
        "InChI": "InChI=1S/C6H8O3/c1-4-2-5(7)9-6(8)3-4/h4H,2-3H2,1H3",
        "InChIKey": null,
        "Canonical SMILES": "O=C1OC(=O)CC(C)C1",
        "Molecular Formula": "C<sub>6</sub>H<sub>8</sub>O<sub>3</sub>",
        "Molecular Mass": "128.13",
        "Boiling Point": "276-278 °C",
        "Melting Point": "46-47 °C"
    }
}