{
    "cas_no": "698-71-5",
    "key_name": "3-Ethyl-5-methylphenol",
    "cn_name": null,
    "alternate_name": "Phenol, 3-ethyl-5-methyl-;<em>m</em>-Cresol, 5-ethyl-;3-Ethyl-5-methylphenol;3-Methyl-5-ethylphenol;NSC 62673;NSC 8885;SCP 110;SCP 110 (phenol)",
    "duplicated_cas_no": "",
    "SMILES": "C(C)C1=CC(C)=CC(O)=C1",
    "meta_data": {
        "InChI": "InChI=1S/C9H12O/c1-3-8-4-7(2)5-9(10)6-8/h4-6,10H,3H2,1-2H3",
        "InChIKey": null,
        "Canonical SMILES": "OC=1C=C(C=C(C1)CC)C",
        "Molecular Formula": "C<sub>9</sub>H<sub>12</sub>O",
        "Molecular Mass": "136.19",
        "Boiling Point": "235.7 °C",
        "Melting Point": "51.6 °C"
    }
}