{
    "cas_no": "2623-36-1",
    "key_name": "Benzenesulfonic acid, 4-[2-(4-hydroxyphenyl)diazenyl]-, sodium salt (1:1)",
    "cn_name": null,
    "alternate_name": "Benzenesulfonic acid, 4-[2-(4-hydroxyphenyl)diazenyl]-, sodium salt (1:1);Benzenesulfonic acid, <em>p</em>-[(<em>p</em>-hydroxyphenyl)azo]-, monosodium salt;Benzenesulfonic acid, 4-[(4-hydroxyphenyl)azo]-, monosodium salt;Benzenesulfonic acid, <em>p</em>-[(<em>p</em>-hydroxyphenyl)azo]-, sodium salt;Sodium <em>p</em>-(<em>p</em>-hydroxyphenylazo)benzenesulfonate;Sodium 4-(4-hydroxyphenylazo)benzenesulfonate;Tropaeolin Y",
    "duplicated_cas_no": "",
    "SMILES": "N(=NC1=CC=C(O)C=C1)C2=CC=C(S(=O)(=O)O)C=C2.[Na]",
    "meta_data": {
        "InChI": "InChI=1S/C12H10N2O4S.Na/c15-11-5-1-9(2-6-11)13-14-10-3-7-12(8-4-10)19(16,17)18;/h1-8,15H,(H,16,17,18);",
        "InChIKey": null,
        "Canonical SMILES": "[Na].O=S(=O)(O)C1=CC=C(N=NC2=CC=C(O)C=C2)C=C1",
        "Molecular Formula": "C<sub>12</sub>H<sub>10</sub>N<sub>2</sub>O<sub>4</sub>S.Na",
        "Molecular Mass": "",
        "Melting Point": "220 °C"
    }
}