{
    "cas_no": "314-40-9",
    "key_name": "Bromacil",
    "cn_name": null,
    "alternate_name": "2,4(1<em>H</em>,3<em>H</em>)-Pyrimidinedione, 5-bromo-6-methyl-3-(1-methylpropyl)-;Uracil, 5-bromo-3-<em>sec</em>-butyl-6-methyl-;5-Bromo-6-methyl-3-(1-methylpropyl)-2,4(1<em>H</em>,3<em>H</em>)-pyrimidinedione;Bromacil;5-Bromo-3-<em>sec</em>-butyl-6-methyluracil;5-Bromo-6-methyl-3-(1-methyl-<em>n</em>-propyl)uracil;3-<em>sec</em>-Butyl-5-bromo-6-methyluracil;Herbicide 976;Hyvar X;5-Bromo-6-methyl-3-<em>sec</em>-butyluracil;Hyvar X bromacil;5-Bromo-6-methyl-3-(1-methylpropyl)uracil;Hyvarex;(±)-Bromacil;DuPont 976;Uragan",
    "duplicated_cas_no": "154670-12-9",
    "SMILES": "C(CC)(C)N1C(=O)C(Br)=C(C)NC1=O",
    "meta_data": {
        "InChI": "InChI=1S/C9H13BrN2O2/c1-4-5(2)12-8(13)7(10)6(3)11-9(12)14/h5H,4H2,1-3H3,(H,11,14)",
        "InChIKey": null,
        "Canonical SMILES": "O=C1NC(=C(Br)C(=O)N1C(C)CC)C",
        "Molecular Formula": "C<sub>9</sub>H<sub>13</sub>BrN<sub>2</sub>O<sub>2</sub>",
        "Molecular Mass": "261.12",
        "Melting Point": "157.5-160 °C",
        "Density": "1.55 g/cm³ @ Temp: 25 °C"
    }
}