{
    "cas_no": "92-59-1",
    "key_name": "Ethylbenzylaniline",
    "cn_name": "N-乙基-N-苄基苯胺;",
    "alternate_name": "Benzenemethanamine, <em>N</em>-ethyl-<em>N</em>-phenyl-;Benzylamine, <em>N</em>-ethyl-<em>N</em>-phenyl-;<em>N</em>-Ethyl-<em>N</em>-phenylbenzenemethanamine;<em>N</em>-Ethyl-<em>N</em>-benzylaniline;Phenylethylbenzylamine;<em>N</em>-Benzyl-<em>N</em>-ethylaniline;Benzylethylphenylamine;Ethylbenzylaniline;<em>N</em>-Ethyl-<em>N</em>-phenylbenzylamine;<em>N</em>-Benzyl-<em>N</em>-phenyl-<em>N</em>-ethylamine;NSC 1805;NSC 406962",
    "duplicated_cas_no": "",
    "SMILES": "N(CC1=CC=CC=C1)(CC)C2=CC=CC=C2",
    "meta_data": {
        "InChI": "InChI=1S/C15H17N/c1-2-16(15-11-7-4-8-12-15)13-14-9-5-3-6-10-14/h3-12H,2,13H2,1H3",
        "InChIKey": null,
        "Canonical SMILES": "C=1C=CC(=CC1)N(CC=2C=CC=CC2)CC",
        "Molecular Formula": "C<sub>15</sub>H<sub>17</sub>N",
        "Molecular Mass": "211.30",
        "Boiling Point": "287 °C @ Press: 710 Torr",
        "Melting Point": "34 °C",
        "Density": "1.034 g/cm³ @ Temp: 19 °C"
    }
}