{
    "cas_no": "3964-57-6",
    "key_name": "Methyl 3-chloro-4-hydroxybenzoate",
    "cn_name": "3-氯-4-羟基苯甲酸甲酯;",
    "alternate_name": "Benzoic acid, 3-chloro-4-hydroxy-, methyl ester;Methyl 3-chloro-4-hydroxybenzoate;3-Chloro-4-hydroxybenzoic acid methyl ester;NSC 210795",
    "duplicated_cas_no": "",
    "SMILES": "C(OC)(=O)C1=CC(Cl)=C(O)C=C1",
    "meta_data": {
        "InChI": "InChI=1S/C8H7ClO3/c1-12-8(11)5-2-3-7(10)6(9)4-5/h2-4,10H,1H3",
        "InChIKey": null,
        "Canonical SMILES": "O=C(OC)C1=CC=C(O)C(Cl)=C1",
        "Molecular Formula": "C<sub>8</sub>H<sub>7</sub>ClO<sub>3</sub>",
        "Molecular Mass": "186.59",
        "Melting Point": "108-110 °C"
    }
}