{
    "cas_no": "500-99-2",
    "key_name": "3,5-Dimethoxyphenol",
    "cn_name": "3,5-二甲氧基苯酚;",
    "alternate_name": "Phenol, 3,5-dimethoxy-;3,5-Dimethoxyphenol;Phloroglucinol dimethyl ether;Taxicatigenin;1-Hydroxy-3,5-dimethoxybenzene;NSC 70955",
    "duplicated_cas_no": "",
    "SMILES": "O(C)C1=CC(OC)=CC(O)=C1",
    "meta_data": {
        "InChI": "InChI=1S/C8H10O3/c1-10-7-3-6(9)4-8(5-7)11-2/h3-5,9H,1-2H3",
        "InChIKey": null,
        "Canonical SMILES": "OC=1C=C(OC)C=C(OC)C1",
        "Molecular Formula": "C<sub>8</sub>H<sub>10</sub>O<sub>3</sub>",
        "Molecular Mass": "154.16",
        "Boiling Point": "199 °C",
        "Melting Point": "37 °C"
    }
}