{
    "cas_no": "37847-52-2",
    "key_name": "2,4-Difluoro-1,1′-biphenyl",
    "cn_name": "2,4-二氟联苯;",
    "alternate_name": "1,1′-Biphenyl, 2,4-difluoro-;2,4-Difluoro-1,1′-biphenyl;2,4-Difluorobiphenyl;2,4-Difluoro-1-phenylbenzene",
    "duplicated_cas_no": "",
    "SMILES": "FC1=C(C2=CC=CC=C2)C=CC(F)=C1",
    "meta_data": {
        "InChI": "InChI=1S/C12H8F2/c13-10-6-7-11(12(14)8-10)9-4-2-1-3-5-9/h1-8H",
        "InChIKey": null,
        "Canonical SMILES": "FC=1C=CC(=C(F)C1)C=2C=CC=CC2",
        "Molecular Formula": "C<sub>12</sub>H<sub>8</sub>F<sub>2</sub>",
        "Molecular Mass": "190.19",
        "Melting Point": "59-61 °C"
    }
}