{
    "cas_no": "4013-94-9",
    "key_name": "<em>N</em>,<em>N</em>′-Diisopropylethylenediamine",
    "cn_name": "N,N\"-二异丙基乙二胺;",
    "alternate_name": "1,2-Ethanediamine, <em>N</em><sup>1</sup>,<em>N</em><sup>2</sup>-bis(1-methylethyl)-;Ethylenediamine, <em>N</em>,<em>N</em>′-diisopropyl-;1,2-Ethanediamine, <em>N</em>,<em>N</em>′-bis(1-methylethyl)-;<em>N</em><sup>1</sup>,<em>N</em><sup>2</sup>-Bis(1-methylethyl)-1,2-ethanediamine;<em>N</em>,<em>N</em>′-Diisopropylethylenediamine;<em>N</em>,<em>N</em>′-Diisopropyl-1,2-diaminoethane;1,2-Bis(isopropylamino)ethane;<em>N</em>,<em>N</em>′-Diisopropyl-1,2-ethanediamine;(Propan-2-yl)([2-[(propan-2-yl)amino]ethyl])amine",
    "duplicated_cas_no": "",
    "SMILES": "C(CNC(C)C)NC(C)C",
    "meta_data": {
        "InChI": "InChI=1S/C8H20N2/c1-7(2)9-5-6-10-8(3)4/h7-10H,5-6H2,1-4H3",
        "InChIKey": null,
        "Canonical SMILES": "N(CCNC(C)C)C(C)C",
        "Molecular Formula": "C<sub>8</sub>H<sub>20</sub>N<sub>2</sub>",
        "Molecular Mass": "144.26",
        "Boiling Point": "169-171 °C"
    }
}