{
    "cas_no": "6954-27-4",
    "key_name": "[1,1′-Biphenyl]-4,4′-dithiol",
    "cn_name": "联苯-4,4\"-二硫醇;",
    "alternate_name": "[1,1′-Biphenyl]-4,4′-dithiol;4,4′-Biphenyldithiol;4,4′-Dimercaptobiphenyl;4,4′-Diphenyldithiol;4,4′-Dimercaptodiphenyl;NSC 38039",
    "duplicated_cas_no": "",
    "SMILES": "SC1=CC=C(C=C1)C2=CC=C(S)C=C2",
    "meta_data": {
        "InChI": "InChI=1S/C12H10S2/c13-11-5-1-9(2-6-11)10-3-7-12(14)8-4-10/h1-8,13-14H",
        "InChIKey": null,
        "Canonical SMILES": "SC=1C=CC(=CC1)C2=CC=C(S)C=C2",
        "Molecular Formula": "C<sub>12</sub>H<sub>10</sub>S<sub>2</sub>",
        "Molecular Mass": "218.34",
        "Melting Point": "179-181 °C"
    }
}