{
    "cas_no": "677-24-7",
    "key_name": "Methyl dichlorophosphate",
    "cn_name": "二氯磷酸甲酯;二氯磷酸甲酯;甲氧基二氯化膦氧化物;甲基二氯磷酰;甲基磷酰氯;",
    "alternate_name": "Phosphorodichloridic acid, methyl ester;Methyl phosphorodichloridate;Dichloromethoxyphosphine oxide;Methoxyphosphoryl dichloride;Methyl dichlorophosphate;Methyl dichlorophosphinate",
    "duplicated_cas_no": "",
    "SMILES": "P(OC)(Cl)(Cl)=O",
    "meta_data": {
        "InChI": "InChI=1S/CH3Cl2O2P/c1-5-6(2,3)4/h1H3",
        "InChIKey": null,
        "Canonical SMILES": "O=P(Cl)(Cl)OC",
        "Molecular Formula": "CH<sub>3</sub>Cl<sub>2</sub>O<sub>2</sub>P",
        "Molecular Mass": "148.91",
        "Boiling Point": "59.5 °C @ Press: 12 Torr",
        "Melting Point": "-59 °C",
        "Density": "1.4878 g/cm³ @ Temp: 26 °C"
    }
}