{
    "cas_no": "15177-67-0",
    "key_name": "<em>trans</em>-4-(Methoxycarbonyl)cyclohexanecarboxylic acid",
    "cn_name": null,
    "alternate_name": "1,4-Cyclohexanedicarboxylic acid, 1-methyl ester, <em>trans</em>-;1,4-Cyclohexanedicarboxylic acid, monomethyl ester, <em>trans</em>-;Monomethyl <em>trans</em>-1,4-cyclohexanedicarboxylate;<em>trans</em>-1,4-Cyclohexanedicarboxylic acid monomethyl ester;1,4-<em>trans</em>-Cyclohexanedicarboxylic acid monomethyl ester;Monomethyl <em>trans</em>-cyclohexane-1,4-dicarboxylate;<em>trans</em>-4-Carbomethoxycyclohexane-1-carboxylic acid;<em>trans</em>-4-(Methoxycarbonyl)cyclohexanecarboxylic acid;<em>trans</em>-4-(Methoxycarbonyl)cyclohexane-1-carboxylic acid",
    "duplicated_cas_no": "",
    "SMILES": "C(OC)(=O)[C@H]1CC[C@H](C(O)=O)CC1",
    "meta_data": {
        "InChI": "InChI=1/C9H14O4/c1-13-9(12)7-4-2-6(3-5-7)8(10)11/h6-7H,2-5H2,1H3,(H,10,11)/t6-,7-",
        "InChIKey": null,
        "Canonical SMILES": "O=C(O)C1CCC(C(=O)OC)CC1",
        "Molecular Formula": "C<sub>9</sub>H<sub>14</sub>O<sub>4</sub>",
        "Molecular Mass": "186.21",
        "Melting Point": "67.5-68.5 °C"
    }
}