{
    "cas_no": "110-30-5",
    "key_name": "Ethylenebis(stearamide)",
    "cn_name": "N,N\"-乙撑双硬脂酰胺;亚乙基双硬脂酰胺;二硬脂酰乙二胺;",
    "alternate_name": "Octadecanamide, <em>N</em>,<em>N</em>′-1,2-ethanediylbis-;Octadecanamide, <em>N</em>,<em>N</em>′-ethylenebis-;<em>N</em>,<em>N</em>′-1,2-Ethanediylbis[octadecanamide];Advawax;<em>N</em>,<em>N</em>′-Ethylenebis(stearamide);Lubrol EA;<em>N</em>,<em>N</em>′-Distearoylethylenediamine;Ethylenebis[stearamide];Abril wax 10DS;Ethylenediamine bis(stearamide);Carlisle Wax 280;Microtomic 280;<em>N</em>,<em>N</em>′-Ethylene distearylamide;Advawax 280;<em>N</em>,<em>N</em>′-Ethylenedistearamide;1,2-Bis(octadecanamido)ethane;Plastflow;Carlisle 280;Advawax 275;Acrawax CT;Kemamide W 40;Chemetron 100;Wax C;Armowax EBS-P;C Wax;Dorset Wax;1,2-Ethylenebis(stearamide);Ethylenebis[stearic acid amide];Lubron E;Armowax EBS;Kao Wax EB-F;Kao Wax EB-P;Acrawax C;<em>N</em>,<em>N</em>′-Bis(octadecanoyl)ethylenediamine;Slipacks E;<em>N</em>,<em>N</em>′-Ethylenebis(stearylamide);Armoslip EBS;Hoechst Wax C;Alflow H 50S;S 400N1;EB-P;Hostalub FA 1;<em>N</em>,<em>N</em>′-Ethylenebis(octadecanamide);Alflow H 50T;EBS;Kao Wax EB-FF;<em>N</em>,<em>N</em>′-Bis(stearoyl)ethylenediamine;Synthewax;<em>N</em>,<em>N</em>′-Ethylenebis(stearic amide);Alflow 50S;Light Amide WEF;Selosol B 495;Hidorin B 961;EBA 200;Alflow H 50TF;Kao Wax EB;Denon PB 1239;Alflow H 50F;Hymicron G 110;Loxamid EBS;Acrawax HMS;Bis(stearoyl)ethylenediamide;Karen A 40;Kemamide W 39;Licowax C;MX 731A;Abril 10DS;H 50T;Armowax EBS-B;Armowax EBS Powder;EBS-C;NSC 83613;WE 183;Michem 439;Licolub FA 1;Alflow H 50L;Acrawax C-DF 1;Atmer SA 1760;Advawax 240;Light Amide WE 183;Kemamide EBS;EB-FF;Alflow H 50P;H 50P;P 130;JHE 341;Croda 212;G 110;Crodamide EBS;EBS-SF;Banlub N 18;Accurel SL 624;Kao Wax EB-G;Fatty Amide EB-G;Ceridust 3910;Micromide 520;Kao Wax EB-EF;E 0243-25G;140B;140P;Alflow H 50ES;PE-SA 270;EBS 120D;Alflow H 50TF-S;EBS 120;Waxso N;Alflow H 50FP;Hi-Lube 300P;EBA 60;EBS-P;500P;Licolub FA 6;HC Wax 2000;Itohwax J 550S;<em>N</em>,<em>N</em>-Ethylenebis(stearamide);Acrawax CV;Finawax C;Hi-Lube 500P;B 50;Koshin U 100;Ethylenebis(stearamide);P 200;Hi-Lube;<em>N</em>,<em>N</em>′-Ethyene bistearamide;Loxiol EBS;TLZJ 6;Loxamid 3324;S 400SP5;Shamrock S 400SP5;Slipacks EK;H 50S;FA 1;Crodamide EBSV;Palmowax SF;Vinyl distearamide;Slipacks E-SA 20;P 400;Hi-Lube EBS;TE 200;EBA;L-C 140P;EBS 50;EB-G;EBS-FF;Sunlube EBS;Crodawax 140;Kenamide EBS;Crodamide ORV;Alflow H 50SJ;OADEBSSF;P 02314;Acrawachs C;B 40 (lubricant);B 40;YHP-P 180;EBS 220;HY 5454;Palmowax EBS;WK 1965;KB-FF;EBS 1;Alflow HP 50PF;DY 1909;Wax 2006;WAX 2006;Light Amide WH 100;Lebax 140B;L 203 (amide);L 203",
    "duplicated_cas_no": "8032-03-9;12687-19-3;12764-90-8;51796-18-0;55598-87-3;58051-94-8;81208-64-2;106908-24-1;130253-72-4;147171-94-6;147172-28-9;195329-73-8;204402-19-7;695188-40-0;1256242-49-5;1884212-92-3;1884454-39-0;2382921-11-9;2770848-35-4",
    "SMILES": "N(CCNC(CCCCCCCCCCCCCCCCC)=O)C(CCCCCCCCCCCCCCCCC)=O",
    "meta_data": {
        "InChI": "InChI=1S/C38H76N2O2/c1-3-5-7-9-11-13-15-17-19-21-23-25-27-29-31-33-37(41)39-35-36-40-38(42)34-32-30-28-26-24-22-20-18-16-14-12-10-8-6-4-2/h3-36H2,1-2H3,(H,39,41)(H,40,42)",
        "InChIKey": null,
        "Canonical SMILES": "O=C(NCCNC(=O)CCCCCCCCCCCCCCCCC)CCCCCCCCCCCCCCCCC",
        "Molecular Formula": "C<sub>38</sub>H<sub>76</sub>N<sub>2</sub>O<sub>2</sub>",
        "Molecular Mass": "593.02",
        "Melting Point": "135-146 °C",
        "Density": "0.97 g/cm³"
    }
}