{
    "cas_no": "517-89-5",
    "key_name": "Shikonin",
    "cn_name": "紫草素;5,8-二羟基-2-[(1R)-1-羟基-4-甲基戊-3-烯基]萘-1,4-二酮;",
    "alternate_name": "1,4-Naphthalenedione, 5,8-dihydroxy-2-[(1<em>R</em>)-1-hydroxy-4-methyl-3-penten-1-yl]-;Shikonin;1,4-Naphthoquinone, 5,8-dihydroxy-2-(1-hydroxy-4-methyl-3-pentenyl)-, (+)-;1,4-Naphthalenedione, 5,8-dihydroxy-2-(1-hydroxy-4-methyl-3-pentenyl)-, (<em>R</em>)-;1,4-Naphthalenedione, 5,8-dihydroxy-2-[(1<em>R</em>)-1-hydroxy-4-methyl-3-pentenyl]-;5,8-Dihydroxy-2-[(1<em>R</em>)-1-hydroxy-4-methyl-3-penten-1-yl]-1,4-naphthalenedione;C.I. 75535;Tokyo Violet;(+)-Shikonin;Isoarnebin 4;NSC 252844;Shikonin S;Shikonine;(<em>R</em>)-(+)-Shikonin;1,4-Naphthalenedione 5,8-dihydroxy-2-[(1R)-1-hydroxy-4-methyl-3-penten-1-yl]-",
    "duplicated_cas_no": "874325-10-7;876010-87-6",
    "SMILES": "O=C1C=2C(C(=O)C=C1[C@@H](CC=C(C)C)O)=C(O)C=CC2O",
    "meta_data": {
        "InChI": "InChI=1S/C16H16O5/c1-8(2)3-4-10(17)9-7-13(20)14-11(18)5-6-12(19)15(14)16(9)21/h3,5-7,10,17-19H,4H2,1-2H3/t10-/m1/s1",
        "InChIKey": null,
        "Canonical SMILES": "O=C1C=C(C(=O)C=2C(O)=CC=C(O)C12)C(O)CC=C(C)C",
        "Molecular Formula": "C<sub>16</sub>H<sub>16</sub>O<sub>5</sub>",
        "Molecular Mass": "288.30",
        "Melting Point": "147 °C"
    }
}