{
    "cas_no": "7047-84-9",
    "key_name": "Aluminum monostearate",
    "cn_name": "二羟基硬脂酸铝;",
    "alternate_name": "Aluminum, dihydroxy(octadecanoato-κ<em>O</em>)-;Aluminum, dihydroxy(stearato)-;Aluminum, dihydroxy(octadecanoato-<em>O</em>)-;Octadecanoic acid, aluminum complex;Dihydroxy(octadecanoato-κ<em>O</em>)aluminum;Aluminum monostearate;Dihydroxyaluminum stearate;Aluminum dihydroxide stearate;Dibasic aluminum stearate;Al-St 103;Aluminum Stearate 300;Aluminum Monostearate 300;Aluminum dihydroxy stearate",
    "duplicated_cas_no": "3343-54-2",
    "SMILES": "C(CCCCCCCCCCCCCC)CCC(O[Al](O)O)=O",
    "meta_data": {
        "InChI": "InChI=1S/C18H36O2.Al.2H2O/c1-2-3-4-5-6-7-8-9-10-11-12-13-14-15-16-17-18(19)20;;;/h2-17H2,1H3,(H,19,20);;2*1H2/q;+3;;/p-3",
        "InChIKey": null,
        "Canonical SMILES": "O=C(O[Al](O)O)CCCCCCCCCCCCCCCCC",
        "Molecular Formula": "C<sub>18</sub>H<sub>37</sub>AlO<sub>4</sub>",
        "Molecular Mass": "",
        "Melting Point": "155 °C"
    }
}