{
    "cas_no": "407-16-9",
    "key_name": "1-Chloro-4-[(trifluoromethyl)thio]benzene",
    "cn_name": "4-(三氟甲硫)氯苯;4-氯苯基(三氟甲基)硫醚;对氯三氟苯甲硫醚;",
    "alternate_name": "Benzene, 1-chloro-4-[(trifluoromethyl)thio]-;Sulfide, <em>p</em>-chlorophenyl trifluoromethyl;1-Chloro-4-[(trifluoromethyl)thio]benzene;1-Chloro-4-(trifluoromethylthio)benzene;4-Chlorophenyl trifluoromethyl sulfide;<em>p</em>-Chlorophenyl trifluoromethyl sulfide;4-Chlorophenyl trifluoromethyl thioether;(4-Chlorophenyl)(trifluoromethyl)sulfane;1-Chloro-4-(trifluoromethylsulfanyl)benzene",
    "duplicated_cas_no": "",
    "SMILES": "S(C(F)(F)F)C1=CC=C(Cl)C=C1",
    "meta_data": {
        "InChI": "InChI=1S/C7H4ClF3S/c8-5-1-3-6(4-2-5)12-7(9,10)11/h1-4H",
        "InChIKey": null,
        "Canonical SMILES": "FC(F)(F)SC1=CC=C(Cl)C=C1",
        "Molecular Formula": "C<sub>7</sub>H<sub>4</sub>ClF<sub>3</sub>S",
        "Molecular Mass": "212.62",
        "Boiling Point": "173-174 °C"
    }
}