{
    "cas_no": "86604-79-7",
    "key_name": "Pyridine, 2,3,5-trimethyl-4-nitro-, 1-oxide",
    "cn_name": "4-硝基-2,3,5-三甲基吡啶-N-氧化物;",
    "alternate_name": "Pyridine, 2,3,5-trimethyl-4-nitro-, 1-oxide;2,3,5-Trimethyl-4-nitropyridine 1-oxide;2,3,5-Trimethyl-4-nitropyridine <em>N</em>-oxide;4-Nitro-2,3,5-trimethylpyridine <em>N</em>-oxide;2,3,5-Trimethyl-4-nitro-1-oxidopyridin-1-ium",
    "duplicated_cas_no": "",
    "SMILES": "N(=O)(=O)C=1C(C)=C(C)N(=O)=CC1C",
    "meta_data": {
        "InChI": "InChI=1S/C8H10N2O3/c1-5-4-9(11)7(3)6(2)8(5)10(12)13/h4H,1-3H3",
        "InChIKey": null,
        "Canonical SMILES": "O=N(=O)C1=C(C=N(=O)C(=C1C)C)C",
        "Molecular Formula": "C<sub>8</sub>H<sub>10</sub>N<sub>2</sub>O<sub>3</sub>",
        "Molecular Mass": "182.18",
        "Melting Point": "73-74 °C"
    }
}