{
    "cas_no": "471-47-6",
    "key_name": "Oxamic acid",
    "cn_name": "草氨酸;",
    "alternate_name": "Acetic acid, 2-amino-2-oxo-;Oxamic acid;Acetic acid, aminooxo-;2-Amino-2-oxoacetic acid;OA;Oxalamic acid;Oxamidic acid;Formic acid, (aminocarbonyl)-;Glycine, 2-oxo-;Oxalic acid monoamide;Aminooxoacetic acid;NSC 47001;NSC 49416;NSC 53102;MeSH ID: D010072",
    "duplicated_cas_no": "",
    "SMILES": "C(C(O)=O)(N)=O",
    "meta_data": {
        "InChI": "InChI=1S/C2H3NO3/c3-1(4)2(5)6/h(H2,3,4)(H,5,6)",
        "InChIKey": null,
        "Canonical SMILES": "O=C(O)C(=O)N",
        "Molecular Formula": "C<sub>2</sub>H<sub>3</sub>NO<sub>3</sub>",
        "Molecular Mass": "89.05",
        "Melting Point": "210 °C (decomp)"
    }
}