{
    "cas_no": "4604-72-2",
    "key_name": "2-Pyrazinecarbothioamide",
    "cn_name": "吡嗪-2-硫代酰胺;吡嗪-2-硫代酰胺;",
    "alternate_name": "2-Pyrazinecarbothioamide;Pyrazinecarboxamide, thio-;Pyrazinecarbothioamide;Pyrazinecarboxylic acid thioamide;2-Pyrazinethiocarboxamide;Pyrazinethiocarboxamide;NSC 18377;Pyrazine-2-carbothioamide",
    "duplicated_cas_no": "",
    "SMILES": "C(N)(=S)C=1C=NC=CN1",
    "meta_data": {
        "InChI": "InChI=1S/C5H5N3S/c6-5(9)4-3-7-1-2-8-4/h1-3H,(H2,6,9)",
        "InChIKey": null,
        "Canonical SMILES": "S=C(N)C1=NC=CN=C1",
        "Molecular Formula": "C<sub>5</sub>H<sub>5</sub>N<sub>3</sub>S",
        "Molecular Mass": "139.18",
        "Melting Point": "195-196 °C"
    }
}