{
    "cas_no": "1515-95-3",
    "key_name": "1-Ethyl-4-methoxybenzene",
    "cn_name": "4-乙基苯甲醚;",
    "alternate_name": "Benzene, 1-ethyl-4-methoxy-;Anisole, <em>p</em>-ethyl-;1-Ethyl-4-methoxybenzene;<em>p</em>-Ethylanisole;4-Ethylanisole;4-Methoxyethylbenzene;<em>p</em>-Ethylmethoxybenzene;Methyl <em>p</em>-ethylphenyl ether;<em>p</em>-Methoxyethylbenzene;1-Methoxy-4-ethylbenzene;4-Ethylmethoxybenzene;NSC 5294;4-Ethyl-1-methoxybenzene;4-Methoxy-1-ethylbenzene;4-Methoxyphenylethane",
    "duplicated_cas_no": "",
    "SMILES": "C(C)C1=CC=C(OC)C=C1",
    "meta_data": {
        "InChI": "InChI=1S/C9H12O/c1-3-8-4-6-9(10-2)7-5-8/h4-7H,3H2,1-2H3",
        "InChIKey": null,
        "Canonical SMILES": "O(C1=CC=C(C=C1)CC)C",
        "Molecular Formula": "C<sub>9</sub>H<sub>12</sub>O",
        "Molecular Mass": "136.19",
        "Boiling Point": "198 °C"
    }
}