{
    "cas_no": "41430-70-0",
    "key_name": "Ethyl 2,2,3,3,4,4,5,5,6,6,7,7,7-tridecafluoroheptanoate",
    "cn_name": "十三氟庚酸乙酯;",
    "alternate_name": "Heptanoic acid, 2,2,3,3,4,4,5,5,6,6,7,7,7-tridecafluoro-, ethyl ester;Heptanoic acid, tridecafluoro-, ethyl ester;Ethyl 2,2,3,3,4,4,5,5,6,6,7,7,7-tridecafluoroheptanoate;Ethyl perfluoroheptanoate;Ethyl tridecafluoroheptanoate",
    "duplicated_cas_no": "",
    "SMILES": "C(C(C(C(OCC)=O)(F)F)(F)F)(C(C(C(F)(F)F)(F)F)(F)F)(F)F",
    "meta_data": {
        "InChI": "InChI=1S/C9H5F13O2/c1-2-24-3(23)4(10,11)5(12,13)6(14,15)7(16,17)8(18,19)9(20,21)22/h2H2,1H3",
        "InChIKey": null,
        "Canonical SMILES": "O=C(OCC)C(F)(F)C(F)(F)C(F)(F)C(F)(F)C(F)(F)C(F)(F)F",
        "Molecular Formula": "C<sub>9</sub>H<sub>5</sub>F<sub>13</sub>O<sub>2</sub>",
        "Molecular Mass": "392.11",
        "Boiling Point": "87 °C @ Press: 20 Torr"
    }
}