{
    "cas_no": "849217-68-1",
    "key_name": "Cabozantinib",
    "cn_name": null,
    "alternate_name": "1,1-Cyclopropanedicarboxamide, <em>N</em>′-[4-[(6,7-dimethoxy-4-quinolinyl)oxy]phenyl]-<em>N</em>-(4-fluorophenyl)-;1,1-Cyclopropanedicarboxamide, <em>N</em>-[4-[(6,7-dimethoxy-4-quinolinyl)oxy]phenyl]-<em>N</em>′-(4-fluorophenyl)-;<em>N</em>′-[4-[(6,7-Dimethoxy-4-quinolinyl)oxy]phenyl]-<em>N</em>-(4-fluorophenyl)-1,1-cyclopropanedicarboxamide;Cabozantinib;BMS 907351;Cabometyx;1-<em>N</em>-[4-(6,7-Dimethoxyquinolin-4-yl)oxyphenyl]-1-<em>N</em>′-(4-fluorophenyl)cyclopropane-1,1-dicarboxamide;XL 184",
    "duplicated_cas_no": "",
    "SMILES": "C(NC1=CC=C(OC=2C3=C(C=C(OC)C(OC)=C3)N=CC2)C=C1)(=O)C4(C(NC5=CC=C(F)C=C5)=O)CC4",
    "meta_data": {
        "InChI": "InChI=1S/C28H24FN3O5/c1-35-24-15-21-22(16-25(24)36-2)30-14-11-23(21)37-20-9-7-19(8-10-20)32-27(34)28(12-13-28)26(33)31-18-5-3-17(29)4-6-18/h3-11,14-16H,12-13H2,1-2H3,(H,31,33)(H,32,34)",
        "InChIKey": null,
        "Canonical SMILES": "O=C(NC1=CC=C(F)C=C1)C2(C(=O)NC3=CC=C(OC=4C=CN=C5C=C(OC)C(OC)=CC54)C=C3)CC2",
        "Molecular Formula": "C<sub>28</sub>H<sub>24</sub>FN<sub>3</sub>O<sub>5</sub>",
        "Molecular Mass": "501.51",
        "Melting Point": "98 °C"
    }
}