{
    "cas_no": "83846-48-4",
    "key_name": "2-Chloro-4-iodo-1-methylbenzene",
    "cn_name": "2-氯-4-碘甲苯;",
    "alternate_name": "Benzene, 2-chloro-4-iodo-1-methyl-;Toluene, 2-chloro-4-iodo-;2-Chloro-4-iodo-1-methylbenzene;2-Chloro-4-iodotoluene;1-Chloro-5-iodo-2-methylbenzene",
    "duplicated_cas_no": "",
    "SMILES": "ClC1=C(C)C=CC(I)=C1",
    "meta_data": {
        "InChI": "InChI=1S/C7H6ClI/c1-5-2-3-6(9)4-7(5)8/h2-4H,1H3",
        "InChIKey": null,
        "Canonical SMILES": "ClC1=CC(I)=CC=C1C",
        "Molecular Formula": "C<sub>7</sub>H<sub>6</sub>ClI",
        "Molecular Mass": "252.48",
        "Boiling Point": "123-124 °C @ Press: 20 Torr",
        "Melting Point": "22 °C"
    }
}