{
    "cas_no": "3179-47-3",
    "key_name": "Decyl methacrylate",
    "cn_name": "甲基丙烯酸癸酯;2-甲基-2-丙烯酸癸酯;",
    "alternate_name": "2-Propenoic acid, 2-methyl-, decyl ester;Methacrylic acid, decyl ester;Decyl methacrylate;<em>n</em>-Decyl methacrylate;NSC 20975;Blemmer DMA",
    "duplicated_cas_no": "",
    "SMILES": "C(CCCCCCCCC)OC(C(C)=C)=O",
    "meta_data": {
        "InChI": "InChI=1S/C14H26O2/c1-4-5-6-7-8-9-10-11-12-16-14(15)13(2)3/h2,4-12H2,1,3H3",
        "InChIKey": null,
        "Canonical SMILES": "O=C(OCCCCCCCCCC)C(=C)C",
        "Molecular Formula": "C<sub>14</sub>H<sub>26</sub>O<sub>2</sub>",
        "Molecular Mass": "226.35",
        "Boiling Point": "100 °C @ Press: 1 Torr",
        "Density": "0.8761 g/cm³ @ Temp: 20 °C"
    }
}