{
    "cas_no": "38053-91-7",
    "key_name": "2-(Trimethylsilyloxy)-1,3-butadiene",
    "cn_name": "2-三甲基硅氧基-1,3-丁二烯;",
    "alternate_name": "Silane, trimethyl[(1-methylene-2-propen-1-yl)oxy]-;Silane, trimethyl[(1-methylene-2-propenyl)oxy]-;Trimethyl[(1-methylene-2-propen-1-yl)oxy]silane;2-(Trimethylsiloxy)-1,3-butadiene;2-(Trimethylsilyloxy)-1,3-butadiene;2-Trimethylsilyloxybutadiene;3-Trimethylsiloxy-1,3-butadiene;Trimethyl[(1-methylene-2-propenyl)oxy]silane;Trimethyl[(1-methyleneprop-2-en-1-yl)oxy]silane;(Buta-1,3-dien-2-yloxy)trimethylsilane;Trimethyl(1-methyleneallyloxy)silane",
    "duplicated_cas_no": "",
    "SMILES": "O([Si](C)(C)C)C(C=C)=C",
    "meta_data": {
        "InChI": "InChI=1S/C7H14OSi/c1-6-7(2)8-9(3,4)5/h6H,1-2H2,3-5H3",
        "InChIKey": null,
        "Canonical SMILES": "O(C(=C)C=C)[Si](C)(C)C",
        "Molecular Formula": "C<sub>7</sub>H<sub>14</sub>OSi",
        "Molecular Mass": "142.27",
        "Boiling Point": "50-55 °C @ Press: 50 Torr",
        "Density": "0.807 g/cm³"
    }
}