{
    "cas_no": "83763-48-8",
    "key_name": "2-Amino-4-[(2-hydroxyethyl)amino]anisole sulfate",
    "cn_name": "2-氨基-4-N-(beta-羟乙基)氨基苯甲醚硫酸盐;",
    "alternate_name": "Ethanol, 2-[(3-amino-4-methoxyphenyl)amino]-, sulfate (1:1);Ethanol, 2-[(3-amino-4-methoxyphenyl)amino]-, sulfate (1:1) (salt);2-Amino-4-[(2-hydroxyethyl)amino]anisole sulfate;2-Amino-4-(β-hydroxyethylamino)anisole sulfate",
    "duplicated_cas_no": "",
    "SMILES": "N(CCO)C1=CC(N)=C(OC)C=C1.S(=O)(=O)(O)O",
    "meta_data": {
        "InChI": "InChI=1S/C9H14N2O2.H2O4S/c1-13-9-3-2-7(6-8(9)10)11-4-5-12;1-5(2,3)4/h2-3,6,11-12H,4-5,10H2,1H3;(H2,1,2,3,4)",
        "InChIKey": null,
        "Canonical SMILES": "O=S(=O)(O)O.OCCNC1=CC=C(OC)C(N)=C1",
        "Molecular Formula": "C<sub>9</sub>H<sub>14</sub>N<sub>2</sub>O<sub>2</sub>.H<sub>2</sub>O<sub>4</sub>S",
        "Molecular Mass": "",
        "Melting Point": "148-149 °C"
    }
}