{
    "cas_no": "7236-47-7",
    "key_name": "3-Methyl-4-phenyl-3-butenamide",
    "cn_name": "苯亚甲基丁酰胺;",
    "alternate_name": "3-Butenamide, 3-methyl-4-phenyl-;3-Methyl-4-phenyl-3-butenamide;β-Benzalbutyramide;3-Methyl-4-phenyl-3-butenoic acid amide;Kata-Lipid;Lipidemol;Lipobeta;3-Benzylidene-<em>N</em>-butyramide",
    "duplicated_cas_no": "",
    "SMILES": "C(=C(CC(N)=O)C)C1=CC=CC=C1",
    "meta_data": {
        "InChI": "InChI=1S/C11H13NO/c1-9(8-11(12)13)7-10-5-3-2-4-6-10/h2-7H,8H2,1H3,(H2,12,13)",
        "InChIKey": null,
        "Canonical SMILES": "O=C(N)CC(=CC=1C=CC=CC1)C",
        "Molecular Formula": "C<sub>11</sub>H<sub>13</sub>NO",
        "Molecular Mass": "175.23",
        "Melting Point": "133 °C"
    }
}