{
    "cas_no": "84803-46-3",
    "key_name": "4-(4-Chlorophenyl)-2,6-piperidinedione",
    "cn_name": null,
    "alternate_name": "2,6-Piperidinedione, 4-(4-chlorophenyl)-;4-(4-Chlorophenyl)-2,6-piperidinedione",
    "duplicated_cas_no": "",
    "SMILES": "O=C1CC(CC(=O)N1)C2=CC=C(Cl)C=C2",
    "meta_data": {
        "InChI": "InChI=1S/C11H10ClNO2/c12-9-3-1-7(2-4-9)8-5-10(14)13-11(15)6-8/h1-4,8H,5-6H2,(H,13,14,15)",
        "InChIKey": null,
        "Canonical SMILES": "O=C1NC(=O)CC(C2=CC=C(Cl)C=C2)C1",
        "Molecular Formula": "C<sub>11</sub>H<sub>10</sub>ClNO<sub>2</sub>",
        "Molecular Mass": "223.66",
        "Melting Point": "160 °C"
    }
}