{
    "cas_no": "693-04-9",
    "key_name": "Butylmagnesium chloride",
    "cn_name": "氯丁基镁;",
    "alternate_name": "Magnesium, butylchloro-;Butylmagnesium chloride;Butylchloromagnesium;<em>n</em>-Butylmagnesium chloride;Butylmagnesiumm chloride",
    "duplicated_cas_no": "",
    "SMILES": "C(C[Mg]Cl)CC",
    "meta_data": {
        "InChI": "InChI=1S/C4H9.ClH.Mg/c1-3-4-2;;/h1,3-4H2,2H3;1H;/q;;+1/p-1",
        "InChIKey": null,
        "Canonical SMILES": "Cl[Mg]CCCC",
        "Molecular Formula": "C<sub>4</sub>H<sub>9</sub>ClMg",
        "Molecular Mass": "",
        "Boiling Point": "132-134 °C @ Press: 1 Torr",
        "Melting Point": "210 °C (decomp)"
    }
}