{
    "cas_no": "525-37-1",
    "key_name": "1,6-Naphthalenedisulfonic acid",
    "cn_name": null,
    "alternate_name": "1,6-Naphthalenedisulfonic acid;Eiver-pick acid;2,5-Naphthalenedisulfonic acid;1,6-Disulfonaphthalene",
    "duplicated_cas_no": "",
    "SMILES": "S(=O)(=O)(O)C=1C2=C(C=C(S(=O)(=O)O)C=C2)C=CC1",
    "meta_data": {
        "InChI": "InChI=1S/C10H8O6S2/c11-17(12,13)8-4-5-9-7(6-8)2-1-3-10(9)18(14,15)16/h1-6H,(H,11,12,13)(H,14,15,16)",
        "InChIKey": null,
        "Canonical SMILES": "O=S(=O)(O)C1=CC=C2C(C=CC=C2S(=O)(=O)O)=C1",
        "Molecular Formula": "C<sub>10</sub>H<sub>8</sub>O<sub>6</sub>S<sub>2</sub>",
        "Molecular Mass": "288.30",
        "Melting Point": "125 °C (decomp)"
    }
}