{
    "cas_no": "25194-67-6",
    "key_name": "6-Phenoxy-3-pyridinamine",
    "cn_name": null,
    "alternate_name": "3-Pyridinamine, 6-phenoxy-;Pyridine, 5-amino-2-phenoxy-;6-Phenoxy-3-pyridinamine;2-Phenoxy-5-aminopyridine;5-Amino-2-phenoxypyridine;3-Amino-6-phenoxypyridine",
    "duplicated_cas_no": "",
    "SMILES": "O(C1=CC=C(N)C=N1)C2=CC=CC=C2",
    "meta_data": {
        "InChI": "InChI=1S/C11H10N2O/c12-9-6-7-11(13-8-9)14-10-4-2-1-3-5-10/h1-8H,12H2",
        "InChIKey": null,
        "Canonical SMILES": "N=1C=C(N)C=CC1OC=2C=CC=CC2",
        "Molecular Formula": "C<sub>11</sub>H<sub>10</sub>N<sub>2</sub>O",
        "Molecular Mass": "186.21",
        "Melting Point": "71 °C"
    }
}