{
    "cas_no": "3829-86-5",
    "key_name": "1,10-Phenanthroline, hydrochloride (1:1)",
    "cn_name": "1,10-菲啰啉盐酸盐;1,10-邻二氮杂菲盐酸盐一水合物;",
    "alternate_name": "1,10-Phenanthroline, hydrochloride (1:1);1,10-Phenanthroline, monohydrochloride;1,10-Phenanthroline hydrochloride;1,10-Diazaphenanthrene hydrochloride;NSC 4265",
    "duplicated_cas_no": "",
    "SMILES": "C12=C3C(=CC=C1C=CC=N2)C=CC=N3.Cl",
    "meta_data": {
        "InChI": "InChI=1S/C12H8N2.ClH/c1-3-9-5-6-10-4-2-8-14-12(10)11(9)13-7-1;/h1-8H;1H",
        "InChIKey": null,
        "Canonical SMILES": "Cl.N=1C=CC=C2C=CC=3C=CC=NC3C12",
        "Molecular Formula": "C<sub>12</sub>H<sub>8</sub>N<sub>2</sub>.ClH",
        "Molecular Mass": "",
        "Melting Point": "225 °C"
    }
}