{
    "cas_no": "618-21-3",
    "key_name": "4-Phosphonobenzoic acid",
    "cn_name": null,
    "alternate_name": "Benzoic acid, 4-phosphono-;Benzoic acid, <em>p</em>-phosphono-;4-Phosphonobenzoic acid;(4-Carboxyphenyl)phosphonic acid;(<em>p</em>-Carboxyphenyl)phosphonic acid;NSC 13565",
    "duplicated_cas_no": "",
    "SMILES": "P(=O)(O)(O)C1=CC=C(C(O)=O)C=C1",
    "meta_data": {
        "InChI": "InChI=1S/C7H7O5P/c8-7(9)5-1-3-6(4-2-5)13(10,11)12/h1-4H,(H,8,9)(H2,10,11,12)",
        "InChIKey": null,
        "Canonical SMILES": "O=C(O)C1=CC=C(C=C1)P(=O)(O)O",
        "Molecular Formula": "C<sub>7</sub>H<sub>7</sub>O<sub>5</sub>P",
        "Molecular Mass": "202.10",
        "Melting Point": "&lt;300 °C"
    }
}