{
    "cas_no": "99129-21-2",
    "key_name": "Clethodim",
    "cn_name": "烯草酮;(E)-2-[1-(3-氯烯丙氧基亚氨基)丙基]-5-[2-(乙硫基)丙基]-3-羟基环己-2-烯酮;",
    "alternate_name": "2-Cyclohexen-1-one, 2-[1-[[[(2<em>E</em>)-3-chloro-2-propen-1-yl]oxy]imino]propyl]-5-[2-(ethylthio)propyl]-3-hydroxy-;2-Cyclohexen-1-one, 2-[1-[[[(2<em>E</em>)-3-chloro-2-propenyl]oxy]imino]propyl]-5-[2-(ethylthio)propyl]-3-hydroxy-;2-[1-[[[(2<em>E</em>)-3-Chloro-2-propen-1-yl]oxy]imino]propyl]-5-[2-(ethylthio)propyl]-3-hydroxy-2-cyclohexen-1-one;Clethodim;RE 45601;Select;Centurion;Prism;Prism (pesticide);Select MAX;Volunteer;Trigger;<em>E</em>-Clethodim;Ogive;Select Super 120EC;Centurion Plus;Legion Kombi;Section Three;Clethodime;Chevron RE 45601;Arrow;Clethodim T.G.;Clethodim MUP",
    "duplicated_cas_no": "104233-53-6;110429-62-4",
    "SMILES": "",
    "meta_data": {
        "InChI": "",
        "InChIKey": null,
        "Canonical SMILES": "",
        "Molecular Formula": "C<sub>17</sub>H<sub>26</sub>ClNO<sub>3</sub>S",
        "Molecular Mass": "359.91",
        "Melting Point": "&lt;25 °C"
    }
}