{
    "cas_no": "13593-03-8",
    "key_name": "Quinalphos",
    "cn_name": "喹硫磷;O,O-二乙基-O-喹噁啉-2-基硫代磷酸酯;",
    "alternate_name": "Phosphorothioic acid, <em>O</em>,<em>O</em>-diethyl <em>O</em>-2-quinoxalinyl ester;Bayrusil;<em>O</em>,<em>O</em>-Diethyl <em>O</em>-(quinoxalin-2-yl) thiophosphate;<em>O</em>,<em>O</em>-Diethyl <em>O</em>-(2-quinoxalyl) phosphorothionate;<em>O</em>,<em>O</em>-Diethyl-<em>O</em>-quinoxal-2-yl thionophosphate;SAN 6538;Sandoz 6538;Diethyl 2-quinoxalyl phosphorothionate;Bayer 77049;Quinalphos;BAY 77049;Diethchinalphion;SAN 6626;Sandoz 6626;Ekalux;Quinaltaf;<em>O</em>,<em>O</em>-Diethyl <em>O</em>-2-quinoxalinyl phosphorothioate;Ekalux G<sub>5</sub>;Diethquinalphion;Quinalfos;Oleoekalux;<em>O</em>,<em>O</em>-Diethyl-<em>O</em>-(2-quinoxalyl)thiophosphate;Kinalux;Ekalux 25EC;Chinalphos",
    "duplicated_cas_no": "37331-41-2;54511-12-5",
    "SMILES": "O(P(OCC)(OCC)=S)C1=NC2=C(N=C1)C=CC=C2",
    "meta_data": {
        "InChI": "InChI=1S/C12H15N2O3PS/c1-3-15-18(19,16-4-2)17-12-9-13-10-7-5-6-8-11(10)14-12/h5-9H,3-4H2,1-2H3",
        "InChIKey": null,
        "Canonical SMILES": "S=P(OC1=NC2=CC=CC=C2N=C1)(OCC)OCC",
        "Molecular Formula": "C<sub>12</sub>H<sub>15</sub>N<sub>2</sub>O<sub>3</sub>PS",
        "Molecular Mass": "298.30",
        "Boiling Point": "142 °C",
        "Melting Point": "31.5 °C"
    }
}