{
    "cas_no": "117-83-9",
    "key_name": "Bis(2-butoxyethyl) phthalate",
    "cn_name": "邻苯二甲酸二丁氧基乙酯;邻苯二甲酸二丁氧基乙酯Bis(2-butoxyethyl)phthalate;",
    "alternate_name": "1,2-Benzenedicarboxylic acid, 1,2-bis(2-butoxyethyl) ester;Phthalic acid, bis(2-butoxyethyl) ester;1,2-Benzenedicarboxylic acid, bis(2-butoxyethyl) ester;Ethanol, 2-butoxy-, phthalate (2:1);Bis(2-butoxyethyl) phthalate;β-Butoxyethyl phthalate;Butyl glycol phthalate;Kesscoflex BCP;Kronisol;Palatinol K;Plasthall DBEP;Sansocizer C 1100;Di(ethylene glycol butyl ether) phthalate;Plasthall 200DBEP;Bis(2-<em>n</em>-butoxyethyl) phthalate;Sankonol 0882-0;NSC 4840;DBMP;Di(2-butoxyethyl) phthalate;C 1000 (phthalate);C 1000;LV 848",
    "duplicated_cas_no": "",
    "SMILES": "C(OCCOCCCC)(=O)C1=C(C(OCCOCCCC)=O)C=CC=C1",
    "meta_data": {
        "InChI": "InChI=1S/C20H30O6/c1-3-5-11-23-13-15-25-19(21)17-9-7-8-10-18(17)20(22)26-16-14-24-12-6-4-2/h7-10H,3-6,11-16H2,1-2H3",
        "InChIKey": null,
        "Canonical SMILES": "O=C(OCCOCCCC)C=1C=CC=CC1C(=O)OCCOCCCC",
        "Molecular Formula": "C<sub>20</sub>H<sub>30</sub>O<sub>6</sub>",
        "Molecular Mass": "366.45",
        "Boiling Point": "270 °C",
        "Density": "1.06 g/cm³ @ Temp: 20 °C"
    }
}