{
    "cas_no": "6754-13-8",
    "key_name": "Helenalin",
    "cn_name": "心菊内酯;",
    "alternate_name": "Azuleno[6,5-<em>b</em>]furan-2,5-dione, 3,3a,4,4a,7a,8,9,9a-octahydro-4-hydroxy-4a,8-dimethyl-3-methylene-, (3a<em>S</em>,4<em>S</em>,4a<em>R</em>,7a<em>R</em>,8<em>R</em>,9a<em>R</em>)-;Helenalin;Ambrosa-2,11(13)-dien-12-oic acid, 6α,8β-dihydroxy-4-oxo-, 12,8-lactone;Azuleno[6,5-<em>b</em>]furan-2,5-dione, 3,3a,4,4a,7a,8,9,9a-octahydro-4-hydroxy-4a,8-dimethyl-3-methylene-, [3a<em>S</em>-(3aα,4α,4aβ,7aα,8α,9aα)]-;(3a<em>S</em>,4<em>S</em>,4a<em>R</em>,7a<em>R</em>,8<em>R</em>,9a<em>R</em>)-3,3a,4,4a,7a,8,9,9a-Octahydro-4-hydroxy-4a,8-dimethyl-3-methyleneazuleno[6,5-<em>b</em>]furan-2,5-dione;(-)-Helenalin;NSC 85236;Helenalin A",
    "duplicated_cas_no": "1195187-64-4",
    "SMILES": "C[C@@]12[C@]([C@H](C)C[C@@]3([C@]([C@@H]1O)(C(=C)C(=O)O3)[H])[H])(C=CC2=O)[H]",
    "meta_data": {
        "InChI": "InChI=1S/C15H18O4/c1-7-6-10-12(8(2)14(18)19-10)13(17)15(3)9(7)4-5-11(15)16/h4-5,7,9-10,12-13,17H,2,6H2,1,3H3/t7-,9+,10-,12-,13+,15+/m1/s1",
        "InChIKey": null,
        "Canonical SMILES": "O=C1OC2CC(C)C3C=CC(=O)C3(C)C(O)C2C1=C",
        "Molecular Formula": "C<sub>15</sub>H<sub>18</sub>O<sub>4</sub>",
        "Molecular Mass": "262.30",
        "Melting Point": "167-168 °C"
    }
}