{
    "cas_no": "873697-71-3",
    "key_name": "Omecamtiv mecarbil",
    "cn_name": null,
    "alternate_name": "1-Piperazinecarboxylic acid, 4-[[2-fluoro-3-[[[(6-methyl-3-pyridinyl)amino]carbonyl]amino]phenyl]methyl]-, methyl ester;Omecamtiv mecarbil;CK 1827452;Methyl 4-[[2-fluoro-3-[<em>N</em>′-(6-methylpyridin-3-yl)ureido]phenyl]methyl]piperazine-1-carboxylate",
    "duplicated_cas_no": "921625-14-1",
    "SMILES": "C(C1=C(F)C(NC(NC=2C=CC(C)=NC2)=O)=CC=C1)N3CCN(C(OC)=O)CC3",
    "meta_data": {
        "InChI": "InChI=1S/C20H24FN5O3/c1-14-6-7-16(12-22-14)23-19(27)24-17-5-3-4-15(18(17)21)13-25-8-10-26(11-9-25)20(28)29-2/h3-7,12H,8-11,13H2,1-2H3,(H2,23,24,27)",
        "InChIKey": null,
        "Canonical SMILES": "O=C(OC)N1CCN(CC=2C=CC=C(NC(=O)NC3=CN=C(C=C3)C)C2F)CC1",
        "Molecular Formula": "C<sub>20</sub>H<sub>24</sub>FN<sub>5</sub>O<sub>3</sub>",
        "Molecular Mass": "401.43",
        "Melting Point": "180 °C"
    }
}