{
    "cas_no": "5450-26-0",
    "key_name": "α-<span class=\"text-smallcaps\">D</span>-Glucofuranose, 1,2:5,6-bis-<em>O</em>-(1-methylethylidene)-, 3-methanesulfonate",
    "cn_name": "1,2:5,6-二异亚丙基-3-O-(甲磺酰基)-alpha-D-呋喃葡萄糖;",
    "alternate_name": "α-<span class=\"text-smallcaps\">D</span>-Glucofuranose, 1,2:5,6-bis-<em>O</em>-(1-methylethylidene)-, 3-methanesulfonate;Glucofuranose, 1,2:5,6-di-<em>O</em>-isopropylidene-, methanesulfonate, α-<span class=\"text-smallcaps\">D</span>-;α-<span class=\"text-smallcaps\">D</span>-Glucofuranose, 1,2:5,6-bis-<em>O</em>-(1-methylethylidene)-, methanesulfonate;α-<span class=\"text-smallcaps\">D</span>-Glucofuranose, 1,2:5,6-di-<em>O</em>-isopropylidene-, 3-methanesulfonate;Furo[2,3-<em>d</em>]-1,3-dioxole, α-<span class=\"text-smallcaps\">D</span>-glucofuranose deriv.;3-<em>O</em>-(Methylsulfonyl)-1,2;5,6-di-<em>O</em>-isopropylidene-α-<span class=\"text-smallcaps\">D</span>-glucofuranose;1,2:5,6-Di-<em>O</em>-isopropylidene-3-<em>O</em>-mesyl-α-<span class=\"text-smallcaps\">D</span>-glucofuranose",
    "duplicated_cas_no": "",
    "SMILES": "O(S(C)(=O)=O)[C@H]1[C@](O[C@]2([C@@]1(OC(C)(C)O2)[H])[H])([C@]3(COC(C)(C)O3)[H])[H]",
    "meta_data": {
        "InChI": "InChI=1S/C13H22O8S/c1-12(2)16-6-7(18-12)8-9(21-22(5,14)15)10-11(17-8)20-13(3,4)19-10/h7-11H,6H2,1-5H3/t7-,8-,9+,10-,11-/m1/s1",
        "InChIKey": null,
        "Canonical SMILES": "O=S(=O)(OC1C(OC2OC(OC21)(C)C)C3OC(OC3)(C)C)C",
        "Molecular Formula": "C<sub>13</sub>H<sub>22</sub>O<sub>8</sub>S",
        "Molecular Mass": "338.37",
        "Melting Point": "83-84 °C"
    }
}