{
    "cas_no": "16595-80-5",
    "key_name": "Levamisole hydrochloride",
    "cn_name": "盐酸左旋咪唑;(S)-(-)-6-苯基-2,3,5,6-四氢咪唑并[2,1-b]噻唑盐酸盐;",
    "alternate_name": "Imidazo[2,1-<em>b</em>]thiazole, 2,3,5,6-tetrahydro-6-phenyl-, hydrochloride (1:1), (6<em>S</em>)-;Imidazo[2,1-<em>b</em>]thiazole, 2,3,5,6-tetrahydro-6-phenyl-, monohydrochloride, (<em>S</em>)-;Imidazo[2,1-<em>b</em>]thiazole, 2,3,5,6-tetrahydro-6-phenyl-, monohydrochloride, (-)-;Imidazo[2,1-<em>b</em>]thiazole, 2,3,5,6-tetrahydro-6-phenyl-, monohydrochloride, (6<em>S</em>)-;<em>l</em>-Tetramisole hydrochloride;Decaris;Levamisole hydrochloride;Tramisol;Tramisole;Levomysol hydrochloride;Ripercol L;Citarin L;KW 2LE-T;(-)-Levamisole hydrochloride;<span class=\"text-smallcaps\">L</span>-Narpenol;Dekaris;Nilverm forte;Meglum;Solaskil;Ergamisole;Levadin;R 12654;Levasole;Spartakon L;Levacide;Nemicide;Ascaridil;Ergamisol;NSC 177023;Century-Ace;(-)-Tetramisole hydrochloride;Niratil;(7S)-7-Phenyl-4-thia-1,6-diazabicyclo[3.3.0]oct-5-ene hydrochloride;(6S)-6-Phenyl-2<em>H</em>,3<em>H</em>,5<em>H</em>,6<em>H</em>-imidazo[2,1-<em>b</em>][1,3]thiazole hydrochloride",
    "duplicated_cas_no": "24593-45-1;39170-95-1;74191-78-9;42440-03-9",
    "SMILES": "[C@@H]1(CN2C(=N1)SCC2)C3=CC=CC=C3.Cl",
    "meta_data": {
        "InChI": "InChI=1S/C11H12N2S.ClH/c1-2-4-9(5-3-1)10-8-13-6-7-14-11(13)12-10;/h1-5,10H,6-8H2;1H/t10-;/m1./s1",
        "InChIKey": null,
        "Canonical SMILES": "Cl.N1=C2SCCN2CC1C=3C=CC=CC3",
        "Molecular Formula": "C<sub>11</sub>H<sub>12</sub>N<sub>2</sub>S.ClH",
        "Molecular Mass": "",
        "Melting Point": "227-229 °C"
    }
}