{
    "cas_no": "700-36-7",
    "key_name": "2-Bromo-4-fluoro-1-nitrobenzene",
    "cn_name": "2-溴-4-氟-1-硝基苯;",
    "alternate_name": "Benzene, 2-bromo-4-fluoro-1-nitro-;2-Bromo-4-fluoro-1-nitrobenzene;1-Bromo-5-fluoro-2-nitrobenzene;2-Bromo-4-fluoronitrobenzene",
    "duplicated_cas_no": "",
    "SMILES": "N(=O)(=O)C1=C(Br)C=C(F)C=C1",
    "meta_data": {
        "InChI": "InChI=1S/C6H3BrFNO2/c7-5-3-4(8)1-2-6(5)9(10)11/h1-3H",
        "InChIKey": null,
        "Canonical SMILES": "O=N(=O)C1=CC=C(F)C=C1Br",
        "Molecular Formula": "C<sub>6</sub>H<sub>3</sub>BrFNO<sub>2</sub>",
        "Molecular Mass": "220.00",
        "Boiling Point": "70-75 °C @ Press: 0.4 Torr",
        "Melting Point": "42 °C"
    }
}