{
    "cas_no": "4956-05-2",
    "key_name": "6-Bromo-1,2,4-triazine-3,5(2<em>H</em>,4<em>H</em>)-dione",
    "cn_name": "5-溴-6-氮尿嘧啶;6-溴-1,2,4-三嗪-3,5(2H,4H)-二酮;",
    "alternate_name": "1,2,4-Triazine-3,5(2<em>H</em>,4<em>H</em>)-dione, 6-bromo-;<em>as</em>-Triazine-3,5(2<em>H</em>,4<em>H</em>)-dione, 6-bromo-;<em>as</em>-Triazine-3,5-diol, 6-bromo-;6-Bromo-1,2,4-triazine-3,5(2<em>H</em>,4<em>H</em>)-dione;5-Bromo-6-azauracil;6-Bromo-3,5-dioxo-(2<em>H</em>,4<em>H</em>)-1,2,4-triazine;6-Bromo-2,4-dihydro-1,2,4-triazine-3,5-dione",
    "duplicated_cas_no": "",
    "SMILES": "O=C1C(Br)=NNC(=O)N1",
    "meta_data": {
        "InChI": "InChI=1S/C3H2BrN3O2/c4-1-2(8)5-3(9)7-6-1/h(H2,5,7,8,9)",
        "InChIKey": null,
        "Canonical SMILES": "O=C1NN=C(Br)C(=O)N1",
        "Molecular Formula": "C<sub>3</sub>H<sub>2</sub>BrN<sub>3</sub>O<sub>2</sub>",
        "Molecular Mass": "191.97",
        "Melting Point": "232-234 °C"
    }
}