{
    "cas_no": "100-23-2",
    "key_name": "<em>N</em>,<em>N</em>-Dimethyl-4-nitroaniline",
    "cn_name": null,
    "alternate_name": "Benzenamine, <em>N</em>,<em>N</em>-dimethyl-4-nitro-;Aniline, <em>N</em>,<em>N</em>-dimethyl-<em>p</em>-nitro-;<em>N</em>,<em>N</em>-Dimethyl-4-nitrobenzenamine;<em>N</em>,<em>N</em>-Dimethyl-<em>p</em>-nitroaniline;4-Nitrodimethylaniline;<em>N</em>,<em>N</em>-Dimethyl-4-nitroaniline;<em>p</em>-Nitrodimethylaniline;<em>p</em>-Nitro-<em>N</em>,<em>N</em>-dimethylaniline;<em>p</em>-(Dimethylamino)nitrobenzene;1-(Dimethylamino)-4-nitrobenzene;4-(Dimethylamino)nitrobenzene;4-Nitro-<em>N</em>,<em>N</em>-dimethylaniline;NSC 9815",
    "duplicated_cas_no": "508191-95-5",
    "SMILES": "N(C)(C)C1=CC=C(N(=O)=O)C=C1",
    "meta_data": {
        "InChI": "InChI=1S/C8H10N2O2/c1-9(2)7-3-5-8(6-4-7)10(11)12/h3-6H,1-2H3",
        "InChIKey": null,
        "Canonical SMILES": "O=N(=O)C1=CC=C(C=C1)N(C)C",
        "Molecular Formula": "C<sub>8</sub>H<sub>10</sub>N<sub>2</sub>O<sub>2</sub>",
        "Molecular Mass": "166.18",
        "Melting Point": "164 °C"
    }
}