{
    "cas_no": "69383-60-4",
    "key_name": "5-Bromo-2,4-dimethylbenzenamine",
    "cn_name": null,
    "alternate_name": "Benzenamine, 5-bromo-2,4-dimethyl-;5-Bromo-2,4-dimethylbenzenamine;NSC 159240;5-Bromo-2,4-dimethylaniline",
    "duplicated_cas_no": "",
    "SMILES": "BrC1=C(C)C=C(C)C(N)=C1",
    "meta_data": {
        "InChI": "InChI=1S/C8H10BrN/c1-5-3-6(2)8(10)4-7(5)9/h3-4H,10H2,1-2H3",
        "InChIKey": null,
        "Canonical SMILES": "BrC=1C=C(N)C(=CC1C)C",
        "Molecular Formula": "C<sub>8</sub>H<sub>10</sub>BrN",
        "Molecular Mass": "200.08",
        "Melting Point": "96 °C"
    }
}