{
    "cas_no": "30044-61-2",
    "key_name": "<em>N</em>-[(1,1-Dimethylethoxy)carbonyl]-3-[(1,1-dimethylethyl)dithio]-<span class=\"text-smallcaps\">L</span>-alanine",
    "cn_name": "Boc-S-叔-丁基巯基-L-半胱氨酸;",
    "alternate_name": "<span class=\"text-smallcaps\">L</span>-Alanine, <em>N</em>-[(1,1-dimethylethoxy)carbonyl]-3-[(1,1-dimethylethyl)dithio]-;Alanine, 3-(<em>tert</em>-butyldithio)-<em>N</em>-carboxy-, <em>N</em>-<em>tert</em>-butyl ester, <span class=\"text-smallcaps\">L</span>-;<em>N</em>-[(1,1-Dimethylethoxy)carbonyl]-3-[(1,1-dimethylethyl)dithio]-<span class=\"text-smallcaps\">L</span>-alanine",
    "duplicated_cas_no": "",
    "SMILES": "[C@H](NC(OC(C)(C)C)=O)(CSSC(C)(C)C)C(O)=O",
    "meta_data": {
        "InChI": "InChI=1S/C12H23NO4S2/c1-11(2,3)17-10(16)13-8(9(14)15)7-18-19-12(4,5)6/h8H,7H2,1-6H3,(H,13,16)(H,14,15)/t8-/m0/s1",
        "InChIKey": null,
        "Canonical SMILES": "O=C(OC(C)(C)C)NC(C(=O)O)CSSC(C)(C)C",
        "Molecular Formula": "C<sub>12</sub>H<sub>23</sub>NO<sub>4</sub>S<sub>2</sub>",
        "Molecular Mass": "309.45",
        "Melting Point": "110-112 °C"
    }
}