{
    "cas_no": "18123-20-1",
    "key_name": "4-Hydroxyacridine",
    "cn_name": "4-羟基吖啶;4-羟基吖啶;4-吖啶醇;",
    "alternate_name": "4-Acridinol;4-Hydroxyacridine",
    "duplicated_cas_no": "",
    "SMILES": "OC=1C2=C(C=C3C(=N2)C=CC=C3)C=CC1",
    "meta_data": {
        "InChI": "InChI=1S/C13H9NO/c15-12-7-3-5-10-8-9-4-1-2-6-11(9)14-13(10)12/h1-8,15H",
        "InChIKey": null,
        "Canonical SMILES": "OC1=CC=CC2=CC=3C=CC=CC3N=C12",
        "Molecular Formula": "C<sub>13</sub>H<sub>9</sub>NO",
        "Molecular Mass": "195.22",
        "Melting Point": "117 °C"
    }
}