{
    "cas_no": "1147-65-5",
    "key_name": "2-[Bis(carboxymethyl)amino]benzoic acid",
    "cn_name": "(2-羧苯基)亚氨基二乙酸;",
    "alternate_name": "Benzoic acid, 2-[bis(carboxymethyl)amino]-;Anthranilic acid, <em>N</em>,<em>N</em>-bis(carboxymethyl)-;Acetic acid, [(<em>o</em>-carboxyphenyl)imino]di-;2-[Bis(carboxymethyl)amino]benzoic acid;ANDA;<em>N</em>,<em>N</em>-Bis(carboxymethyl)anthranilic acid;Anthranil-<em>N</em>,<em>N</em>-diacetic acid;Anthranildiacetic acid;Anthranilic-<em>N</em>,<em>N</em>-diacetic acid;<em>N</em>-(<em>o</em>-Carboxyphenyl)iminodiacetic acid;<em>N</em>-Carboxymethyl-<em>N</em>-(2-carboxyphenyl)glycine;2-(Carboxyphenyl)iminodiacetic acid;<em>N</em>-(2-Carboxyphenyl)iminodiacetic acid;2,2′-((2-Carboxyphenyl)azanediyl)diacetic acid",
    "duplicated_cas_no": "",
    "SMILES": "N(CC(O)=O)(CC(O)=O)C1=C(C(O)=O)C=CC=C1",
    "meta_data": {
        "InChI": "InChI=1S/C11H11NO6/c13-9(14)5-12(6-10(15)16)8-4-2-1-3-7(8)11(17)18/h1-4H,5-6H2,(H,13,14)(H,15,16)(H,17,18)",
        "InChIKey": null,
        "Canonical SMILES": "O=C(O)C=1C=CC=CC1N(CC(=O)O)CC(=O)O",
        "Molecular Formula": "C<sub>11</sub>H<sub>11</sub>NO<sub>6</sub>",
        "Molecular Mass": "253.21",
        "Melting Point": "228 °C (decomp)"
    }
}