{
    "cas_no": "5928-25-6",
    "key_name": "(+)-Decursin",
    "cn_name": null,
    "alternate_name": "2-Butenoic acid, 3-methyl-, (7<em>S</em>)-7,8-dihydro-8,8-dimethyl-2-oxo-2<em>H</em>,6<em>H</em>-pyrano[3,2-<em>g</em>]-1-benzopyran-7-yl ester;Crotonic acid, 3-methyl-, ester with 7,8-dihydro-7-hydroxy-8,8-dimethyl-2<em>H</em>,6<em>H</em>-benzo[1,2-<em>b</em>:5,4-<em>b</em>′]dipyran-2-one, (+)-;Decursin;2-Butenoic acid, 3-methyl-, 7,8-dihydro-8,8-dimethyl-2-oxo-2<em>H</em>,6<em>H</em>-benzo[1,2-<em>b</em>:5,4-<em>b</em>′]dipyran-7-yl ester, (<em>S</em>)-;2-Butenoic acid, 3-methyl-, (7<em>S</em>)-7,8-dihydro-8,8-dimethyl-2-oxo-2<em>H</em>,6<em>H</em>-benzo[1,2-<em>b</em>:5,4-<em>b</em>′]dipyran-7-yl ester;2<em>H</em>,6<em>H</em>-Benzo[1,2-<em>b</em>:5,4-<em>b</em>′]dipyran, 2-butenoic acid deriv.;(+)-Decursin;[(3S)-2,2-Dimethyl-8-oxo-3,4-dihydropyrano[3,2-<em>g</em>]chromen-3-yl] 3-methylbut-2-enoate",
    "duplicated_cas_no": "",
    "SMILES": "O(C(C=C(C)C)=O)[C@H]1CC=2C(=CC3=C(C2)C=CC(=O)O3)OC1(C)C",
    "meta_data": {
        "InChI": "InChI=1S/C19H20O5/c1-11(2)7-18(21)23-16-9-13-8-12-5-6-17(20)22-14(12)10-15(13)24-19(16,3)4/h5-8,10,16H,9H2,1-4H3/t16-/m0/s1",
        "InChIKey": null,
        "Canonical SMILES": "O=C1OC=2C=C3OC(C)(C)C(OC(=O)C=C(C)C)CC3=CC2C=C1",
        "Molecular Formula": "C<sub>19</sub>H<sub>20</sub>O<sub>5</sub>",
        "Molecular Mass": "328.36",
        "Melting Point": "111 °C"
    }
}