{
    "cas_no": "119-18-6",
    "key_name": "1-Phenyl-3-carboxy-5-pyrazolone",
    "cn_name": "1-苯基-5-吡唑啉酮-3-羧酸;",
    "alternate_name": "1<em>H</em>-Pyrazole-3-carboxylic acid, 4,5-dihydro-5-oxo-1-phenyl-;2-Pyrazoline-3-carboxylic acid, 5-oxo-1-phenyl-;4,5-Dihydro-5-oxo-1-phenyl-1<em>H</em>-pyrazole-3-carboxylic acid;1-Phenyl-5-pyrazolone-3-carboxylic acid;1-Phenyl-3-carboxy-5-pyrazolone;3-Carboxy-1-phenyl-5-pyrazolone;3-Carboxy-1-phenyl-2-pyrazolin-5-one;5-Oxo-1-phenyl-4,5-dihydro-1<em>H</em>-pyrazole-3-carboxylic acid",
    "duplicated_cas_no": "",
    "SMILES": "O=C1N(N=C(C(O)=O)C1)C2=CC=CC=C2",
    "meta_data": {
        "InChI": "InChI=1S/C10H8N2O3/c13-9-6-8(10(14)15)11-12(9)7-4-2-1-3-5-7/h1-5H,6H2,(H,14,15)",
        "InChIKey": null,
        "Canonical SMILES": "O=C(O)C1=NN(C(=O)C1)C=2C=CC=CC2",
        "Molecular Formula": "C<sub>10</sub>H<sub>8</sub>N<sub>2</sub>O<sub>3</sub>",
        "Molecular Mass": "204.18",
        "Melting Point": "260 °C (decomp)"
    }
}