{
    "cas_no": "616-55-7",
    "key_name": "2,4-Di-<em>tert</em>-butyl-6-methylphenol",
    "cn_name": null,
    "alternate_name": "Phenol, 2,4-bis(1,1-dimethylethyl)-6-methyl-;<em>o</em>-Cresol, 4,6-di-<em>tert</em>-butyl-;2,4-Bis(1,1-dimethylethyl)-6-methylphenol;2,4-Di-<em>tert</em>-butyl-6-methylphenol;4,6-Di-<em>tert</em>-butyl-<em>o</em>-cresol;2-Methyl-4,6-di-<em>tert</em>-butylphenol;4,6-Di-<em>tert</em>-butyl-2-methylphenol;2,4-Ditert-butyl-6-methylphenol",
    "duplicated_cas_no": "",
    "SMILES": "C(C)(C)(C)C1=CC(C(C)(C)C)=CC(C)=C1O",
    "meta_data": {
        "InChI": "InChI=1S/C15H24O/c1-10-8-11(14(2,3)4)9-12(13(10)16)15(5,6)7/h8-9,16H,1-7H3",
        "InChIKey": null,
        "Canonical SMILES": "OC1=C(C=C(C=C1C(C)(C)C)C(C)(C)C)C",
        "Molecular Formula": "C<sub>15</sub>H<sub>24</sub>O",
        "Molecular Mass": "220.35",
        "Boiling Point": "269 °C",
        "Melting Point": "51 °C"
    }
}