{
    "cas_no": "52-24-4",
    "key_name": "Thiotepa",
    "cn_name": "三亚乙基硫代磷酰胺;N,N\",N\"\"-三乙撑硫代磷酰胺;三乙烯硫代磷酰胺;1,1\",1\"-硫次膦基三氮丙啶;噻替哌;塞替派;",
    "alternate_name": "Aziridine, 1,1′,1′′-phosphinothioylidynetris-;Phosphine sulfide, tris(1-aziridinyl)-;1,1′,1′′-Phosphinothioylidynetris[aziridine];NSC 6396;Tespamin;Tespamine;Thiotriethylenephosphoramide;Triaziridinylphosphine sulfide;<em>N</em>,<em>N</em>′,<em>N</em>′′-Triethylenethiophosphoramide;Triethylenethiophosphorotriamide;Tris(1-aziridinyl)phosphine sulfide;Triethylenethiophosphoramide;Tri(ethyleneimino)thiophosphoramide;Thiophosphoramide, <em>N</em>,<em>N</em>′,<em>N</em>′′-tri-1,2-ethanediyl-;Phosphorothioic triamide, <em>N</em>,<em>N</em>′,<em>N</em>′′-tri-1,2-ethanediyl-;Thiophosphamide;Thiotepa;Oncotiotepa;Phosphorothioic acid triethylenetriamide;Thiotef;Tiofosfamid;Thiofozil;Tiofozil;Tiofosyl;TSPA;Tio-TEF;Girostan;<em>N</em>,<em>N</em>′,<em>N</em>′′-Triethylenethiophosphortriamide;Tris(aziridinyl)phosphine sulfide;AI 3-24916;Tri-1-aziridinylphosphine sulfide;Thioplex;STEPA;CBC 806495;Oncothio-tepa;TESPA;Oncotepa;Thio-Tepa S;NCI C01649;SK 6882;Thio-Tep;Tris(aziridinyl)phosphine-thioxide;Tepadina;MeSH ID: D013852",
    "duplicated_cas_no": "639-23-6;85177-92-0;1631739-26-8",
    "SMILES": "P(=S)(N1CC1)(N2CC2)N3CC3",
    "meta_data": {
        "InChI": "InChI=1S/C6H12N3PS/c11-10(7-1-2-7,8-3-4-8)9-5-6-9/h1-6H2",
        "InChIKey": null,
        "Canonical SMILES": "S=P(N1CC1)(N2CC2)N3CC3",
        "Molecular Formula": "C<sub>6</sub>H<sub>12</sub>N<sub>3</sub>PS",
        "Molecular Mass": "189.22",
        "Melting Point": "51.5 °C"
    }
}