{
    "cas_no": "4277-63-8",
    "key_name": "1<em>H</em>-Pyrrole-1-carboxylic acid, methyl ester",
    "cn_name": "甲基吡咯-1-羧酸酯;甲基1-吡咯羧酸;",
    "alternate_name": "1<em>H</em>-Pyrrole-1-carboxylic acid, methyl ester;Pyrrole-1-carboxylic acid, methyl ester;Methyl 1-pyrrolecarboxylate;<em>N</em>-(Methoxycarbonyl)pyrrole;<em>N</em>-Carbomethoxypyrrole;Methyl 1<em>H</em>-pyrrole-1-carboxylate",
    "duplicated_cas_no": "",
    "SMILES": "C(OC)(=O)N1C=CC=C1",
    "meta_data": {
        "InChI": "InChI=1S/C6H7NO2/c1-9-6(8)7-4-2-3-5-7/h2-5H,1H3",
        "InChIKey": null,
        "Canonical SMILES": "O=C(OC)N1C=CC=C1",
        "Molecular Formula": "C<sub>6</sub>H<sub>7</sub>NO<sub>2</sub>",
        "Molecular Mass": "125.13",
        "Boiling Point": "168-170 °C"
    }
}