{
    "cas_no": "273-53-0",
    "key_name": "Benzoxazole",
    "cn_name": "苯并恶唑;苯并噁唑;",
    "alternate_name": "Benzoxazole;1-Oxa-3-azaindene;1-Oxa-3-aza-1<em>H</em>-indene;NSC 3982;Benzo[<em>d</em>]oxazole;1,3-Benzoxazole",
    "duplicated_cas_no": "",
    "SMILES": "C1=2C(OC=N1)=CC=CC2",
    "meta_data": {
        "InChI": "InChI=1S/C7H5NO/c1-2-4-7-6(3-1)8-5-9-7/h1-5H",
        "InChIKey": null,
        "Canonical SMILES": "N1=COC=2C=CC=CC12",
        "Molecular Formula": "C<sub>7</sub>H<sub>5</sub>NO",
        "Molecular Mass": "119.12",
        "Boiling Point": "182.5 °C",
        "Melting Point": "31 °C"
    }
}