{
    "cas_no": "933-78-8",
    "key_name": "2,3,5-Trichlorophenol",
    "cn_name": "2,3,5-三氯苯酚;2，3，5-三氯苯酚TCP;2,3,5-三氯酚;",
    "alternate_name": "Phenol, 2,3,5-trichloro-;2,3,5-Trichlorophenol",
    "duplicated_cas_no": "",
    "SMILES": "ClC1=C(Cl)C=C(Cl)C=C1O",
    "meta_data": {
        "InChI": "InChI=1S/C6H3Cl3O/c7-3-1-4(8)6(9)5(10)2-3/h1-2,10H",
        "InChIKey": null,
        "Canonical SMILES": "ClC=1C=C(Cl)C(Cl)=C(O)C1",
        "Molecular Formula": "C<sub>6</sub>H<sub>3</sub>Cl<sub>3</sub>O",
        "Molecular Mass": "197.45",
        "Boiling Point": "248 °C",
        "Melting Point": "62 °C"
    }
}