{
    "cas_no": "4457-72-1",
    "key_name": "1,5-Dibromo-3-methylpentane",
    "cn_name": "1,5-二溴-3-甲基戊烷;1,5-二溴-3-甲基戊烷;",
    "alternate_name": "Pentane, 1,5-dibromo-3-methyl-;1,5-Dibromo-3-methylpentane;3-Methyl-1,5-dibromopentane;NSC 27967",
    "duplicated_cas_no": "",
    "SMILES": "C(CCBr)(CCBr)C",
    "meta_data": {
        "InChI": "InChI=1S/C6H12Br2/c1-6(2-4-7)3-5-8/h6H,2-5H2,1H3",
        "InChIKey": null,
        "Canonical SMILES": "BrCCC(C)CCBr",
        "Molecular Formula": "C<sub>6</sub>H<sub>12</sub>Br<sub>2</sub>",
        "Molecular Mass": "243.97",
        "Boiling Point": "97.0-98.5 °C @ Press: 10 Torr",
        "Density": "1.607 g/cm³ @ Temp: 20 °C"
    }
}