{
    "cas_no": "741-58-2",
    "key_name": "Bensulide",
    "cn_name": "地散磷;地散磷[含量＞35%];风化岩石;地散磷;",
    "alternate_name": "Phosphorodithioic acid, <em>O</em>,<em>O</em>-bis(1-methylethyl) <em>S</em>-[2-[(phenylsulfonyl)amino]ethyl] ester;Phosphorodithioic acid, <em>O</em>,<em>O</em>-diisopropyl ester, <em>S</em>-ester with <em>N</em>-(2-mercaptoethyl)benzenesulfonamide;R 4461;Bensulide;Betasan;<em>N</em>-[2-(<em>O</em>,<em>O</em>-Diisopropyldithiophosphoryl)ethyl]benzenesulfonamide;Disan (pesticide);Prefar;<em>S</em>-β-(Benzenesulfonamido)ethyl <em>O</em>,<em>O</em>-diisopropyl dithiophosphate;Disan;<em>O</em>,<em>O</em>-Diisopropyl 2-(benzenesulfonamido)ethyl dithiophosphate;SAP (herbicide);SAP;<em>O</em>,<em>O</em>-Diisopropyl <em>S</em>-(2-benzenesulfonylaminoethyl) phosphorodithioate",
    "duplicated_cas_no": "39291-71-9",
    "SMILES": "S(NCCSP(OC(C)C)(OC(C)C)=S)(=O)(=O)C1=CC=CC=C1",
    "meta_data": {
        "InChI": "InChI=1S/C14H24NO4PS3/c1-12(2)18-20(21,19-13(3)4)22-11-10-15-23(16,17)14-8-6-5-7-9-14/h5-9,12-13,15H,10-11H2,1-4H3",
        "InChIKey": null,
        "Canonical SMILES": "O=S(=O)(NCCSP(=S)(OC(C)C)OC(C)C)C=1C=CC=CC1",
        "Molecular Formula": "C<sub>14</sub>H<sub>24</sub>NO<sub>4</sub>PS<sub>3</sub>",
        "Molecular Mass": "397.51",
        "Melting Point": "34.4 °C",
        "Density": "1.23 g/cm³ @ Temp: 20 °C"
    }
}