{
    "cas_no": "7705-08-0",
    "key_name": "Iron chloride (FeCl<sub>3</sub>)",
    "cn_name": "三氯化铁;",
    "alternate_name": "Iron chloride (FeCl<sub>3</sub>);Ferric chloride;Flores martis;Iron(III) chloride;Iron perchloride;Iron trichloride;Ferric trichloride;Iron chloride;Clayfec;Trifloc;NSC 135798;NSC 51150;ViscoStat Plus;Ferrisol Cl 130;Riedel 12322;FC-Pix;Bellair green plus;Danube clear classic;Donau klar classic;Clarfer;PIX 311;Kemira PIX-111",
    "duplicated_cas_no": "12178-83-5;130622-20-7;774583-10-7",
    "SMILES": "[Fe](Cl)(Cl)Cl",
    "meta_data": {
        "InChI": "InChI=1S/3ClH.Fe/h3*1H;/q;;;+3/p-3",
        "InChIKey": null,
        "Canonical SMILES": "Cl[Fe](Cl)Cl",
        "Molecular Formula": "Cl<sub>3</sub>Fe",
        "Molecular Mass": "",
        "Boiling Point": "~316 °C (approx)",
        "Melting Point": "~300 °C (approx)",
        "Density": "2.898 g/cm³ @ Temp: 25 °C"
    }
}