{
    "cas_no": "3700-67-2",
    "key_name": "Dimethyldioctadecylammonium bromide",
    "cn_name": "双十八烷基二甲基溴化铵;",
    "alternate_name": "1-Octadecanaminium, <em>N</em>,<em>N</em>-dimethyl-<em>N</em>-octadecyl-, bromide (1:1);Ammonium, dimethyldioctadecyl-, bromide;1-Octadecanaminium, <em>N</em>,<em>N</em>-dimethyl-<em>N</em>-octadecyl-, bromide;Dimethyldioctadecylammonium bromide;Dioctadecyldimethylammonium bromide;Dioctadecanyldimethylammonium bromide;DSDMAB;Dimethyldistearylammonium bromide;Di-<em>n</em>-octadecyldimethylammonium bromide;Distearyldimethylammonium bromide;GERBU Adjuvant 10;GERBU Adjuvant 100;DODAB;DODA(Br);DDAB;Bis(octadecyl)dimethylammonium bromide;Dimethyldioctadecylammomium bromide;VSA 3;<em>N</em>,<em>N</em>-Distearyl-<em>N</em>,<em>N</em>-dimethylammonium bromide",
    "duplicated_cas_no": "134821-46-8",
    "SMILES": "C([N+](CCCCCCCCCCCCCCCCCC)(C)C)CCCCCCCCCCCCCCCCC.[Br-]",
    "meta_data": {
        "InChI": "InChI=1S/C38H80N.BrH/c1-5-7-9-11-13-15-17-19-21-23-25-27-29-31-33-35-37-39(3,4)38-36-34-32-30-28-26-24-22-20-18-16-14-12-10-8-6-2;/h5-38H2,1-4H3;1H/q+1;/p-1",
        "InChIKey": null,
        "Canonical SMILES": "[Br-].CCCCCCCCCCCCCCCCCC[N+](C)(C)CCCCCCCCCCCCCCCCCC",
        "Molecular Formula": "C<sub>38</sub>H<sub>80</sub>N.Br",
        "Molecular Mass": "",
        "Melting Point": "158-159 °C"
    }
}