{
    "cas_no": "59-33-6",
    "key_name": "Pyrilamine maleate",
    "cn_name": "N-[(4-甲氧苯基)甲基]-N-(2-吡啶基)-N\",N\"-二甲基-乙二胺马来酸盐;",
    "alternate_name": "1,2-Ethanediamine, <em>N</em><sup>1</sup>-[(4-methoxyphenyl)methyl]-<em>N</em><sup>2</sup>,<em>N</em><sup>2</sup>-dimethyl-<em>N</em><sup>1</sup>-2-pyridinyl-, (2<em>Z</em>)-2-butenedioate (1:1);Pyridine, 2-[[2-(dimethylamino)ethyl](<em>p</em>-methoxybenzyl)amino]-, maleate (1:1);1,2-Ethanediamine, <em>N</em>-[(4-methoxyphenyl)methyl]-<em>N</em>′,<em>N</em>′-dimethyl-<em>N</em>-2-pyridinyl-, (<em>Z</em>)-2-butenedioate (1:1);1,2-Ethanediamine, <em>N</em>-[(4-methoxyphenyl)methyl]-<em>N</em>′,<em>N</em>′-dimethyl-<em>N</em>-2-pyridinyl-, (2<em>Z</em>)-2-butenedioate (1:1);AH;Anisopyradamine;<em>Neo</em>-Antergan maleate;Anthisan maleate;Antihist;Diaminide maleate;2-[[2-(Dimethylamino)ethyl](<em>p</em>-methoxybenzyl)amino]pyridine Bimaleate;2-[(2-Dimethylaminoethyl)(<em>p</em>-methoxybenzyl)amino]-pyridine maleate;Mepyramine maleate;<em>N</em>-<em>p</em>-Methoxybenzyl-<em>N</em>′,<em>N</em>′-dimethyl-<em>N</em>-α-pyridylethylenediamine maleate;Minihist;Neoantergan maleate;Paramal;Paraminyl maleate;Pymafed;Pyra Maleate;Pyranilamine maleate;Pyraninyl;Pyranisamine maleate;Pyrilamine maleate;Renstamin;Stangen maleate;Statomin maleate;Thylogen maleate;Mepyramine hydrogen maleinate;Prefrin A;Thylogen;Histapyran;Pyramal;Parmal;Paraminyl;Antamine;Histalon;Histalet Forte;Histan;Histatex;Histavet P;Enrumay;Antisan;Stangen;Stamine;NSC 3604",
    "duplicated_cas_no": "5572-06-5",
    "SMILES": "C(=C\\C(O)=O)\\C(O)=O.N(CC1=CC=C(OC)C=C1)(CCN(C)C)C2=CC=CC=N2",
    "meta_data": {
        "InChI": "InChI=1S/C17H23N3O.C4H4O4/c1-19(2)12-13-20(17-6-4-5-11-18-17)14-15-7-9-16(21-3)10-8-15;5-3(6)1-2-4(7)8/h4-11H,12-14H2,1-3H3;1-2H,(H,5,6)(H,7,8)/b;2-1-",
        "InChIKey": null,
        "Canonical SMILES": "O=C(O)C=CC(=O)O.N=1C=CC=CC1N(CC2=CC=C(OC)C=C2)CCN(C)C",
        "Molecular Formula": "C<sub>17</sub>H<sub>23</sub>N<sub>3</sub>O.C<sub>4</sub>H<sub>4</sub>O<sub>4</sub>",
        "Molecular Mass": "",
        "Melting Point": "100-101 °C"
    }
}