{
    "cas_no": "17027-51-9",
    "key_name": "[1,1′-Biphenyl]-4-ethanamine",
    "cn_name": null,
    "alternate_name": "[1,1′-Biphenyl]-4-ethanamine;4-Biphenylethylamine;4-(2-Aminoethyl)biphenyl;4-Phenylphenethylamine;2-(Biphenyl-4-yl)ethylamine;2-(Biphenyl-4-yl)ethanamine;2-([1,1′-Biphenyl]-4-yl)ethanamine;2-(4-Biphenyl)ethylamine;2-(4-Phenylphenyl)ethan-1-amine;2-(4-Phenylphenyl)ethanamine;2-(4-Phenylphenyl)ethylamine",
    "duplicated_cas_no": "",
    "SMILES": "C(CN)C1=CC=C(C=C1)C2=CC=CC=C2",
    "meta_data": {
        "InChI": "InChI=1S/C14H15N/c15-11-10-12-6-8-14(9-7-12)13-4-2-1-3-5-13/h1-9H,10-11,15H2",
        "InChIKey": null,
        "Canonical SMILES": "NCCC=1C=CC(=CC1)C=2C=CC=CC2",
        "Molecular Formula": "C<sub>14</sub>H<sub>15</sub>N",
        "Molecular Mass": "197.28",
        "Boiling Point": "160-161 °C @ Press: 4 Torr",
        "Melting Point": "&gt;300 °C"
    }
}