{
    "cas_no": "2916-14-5",
    "key_name": "2-Propen-1-yl 2-chloroacetate",
    "cn_name": "氯乙酸丙烯酯;",
    "alternate_name": "Acetic acid, 2-chloro-, 2-propen-1-yl ester;Acetic acid, chloro-, allyl ester;Acetic acid, chloro-, 2-propenyl ester;2-Propen-1-yl 2-chloroacetate;Allyl chloroacetate;NSC 44997;Chloroacetic acid allyl ester",
    "duplicated_cas_no": "",
    "SMILES": "C(OCC=C)(CCl)=O",
    "meta_data": {
        "InChI": "InChI=1S/C5H7ClO2/c1-2-3-8-5(7)4-6/h2H,1,3-4H2",
        "InChIKey": null,
        "Canonical SMILES": "O=C(OCC=C)CCl",
        "Molecular Formula": "C<sub>5</sub>H<sub>7</sub>ClO<sub>2</sub>",
        "Molecular Mass": "134.56",
        "Boiling Point": "68-69 °C @ Press: 20 Torr",
        "Density": "1.1469 g/cm³ @ Temp: 20 °C"
    }
}