{
    "cas_no": "61213-25-0",
    "key_name": "Flurochloridone",
    "cn_name": "氟咯草酮;3-氯-4-氯甲基-1-(3-三氟甲基苯基)-2-吡咯烷酮;",
    "alternate_name": "2-Pyrrolidinone, 3-chloro-4-(chloromethyl)-1-[3-(trifluoromethyl)phenyl]-;3-Chloro-4-(chloromethyl)-1-[3-(trifluoromethyl)phenyl]-2-pyrrolidinone;R 40244;Racer;Fluorochloridone;Racer 25;Flurochloridone;Rainbow;Twin Gold Pack;Racer 250 EC",
    "duplicated_cas_no": "89286-81-7",
    "SMILES": "O=C1N(CC(CCl)C1Cl)C2=CC(C(F)(F)F)=CC=C2",
    "meta_data": {
        "InChI": "InChI=1S/C12H10Cl2F3NO/c13-5-7-6-18(11(19)10(7)14)9-3-1-2-8(4-9)12(15,16)17/h1-4,7,10H,5-6H2",
        "InChIKey": null,
        "Canonical SMILES": "O=C1N(C2=CC=CC(=C2)C(F)(F)F)CC(CCl)C1Cl",
        "Molecular Formula": "C<sub>12</sub>H<sub>10</sub>Cl<sub>2</sub>F<sub>3</sub>NO",
        "Molecular Mass": "312.12",
        "Boiling Point": "212.5 °C",
        "Melting Point": "55.6-79.7 °C"
    }
}