{
    "cas_no": "63234-70-8",
    "key_name": "1-Piperidinamine, hydrochloride (1:1)",
    "cn_name": null,
    "alternate_name": "1-Piperidinamine, hydrochloride (1:1);1-Piperidinamine, monohydrochloride;Piperidine, 1-amino-, hydrochloride;1-Aminopiperidine hydrochloride;<em>N</em>-Aminopiperidine hydrochloride",
    "duplicated_cas_no": "",
    "SMILES": "NN1CCCCC1.Cl",
    "meta_data": {
        "InChI": "InChI=1S/C5H12N2.ClH/c6-7-4-2-1-3-5-7;/h1-6H2;1H",
        "InChIKey": null,
        "Canonical SMILES": "Cl.NN1CCCCC1",
        "Molecular Formula": "C<sub>5</sub>H<sub>12</sub>N<sub>2</sub>.ClH",
        "Molecular Mass": "",
        "Melting Point": "162 °C"
    }
}