{
    "cas_no": "2708-97-6",
    "key_name": "1,2,3,4-Tetrafluoro-5,6-diiodobenzene",
    "cn_name": null,
    "alternate_name": "Benzene, 1,2,3,4-tetrafluoro-5,6-diiodo-;Benzene, tetrafluoro-1,2-diiodo-;1,2,3,4-Tetrafluoro-5,6-diiodobenzene;1,2-Diiodotetrafluorobenzene;<em>o</em>-Diiodoperfluorobenzene;5,6-Diiodo-1,2,3,4-tetrafluorobenzene;NSC 21629",
    "duplicated_cas_no": "",
    "SMILES": "FC1=C(F)C(F)=C(I)C(I)=C1F",
    "meta_data": {
        "InChI": "InChI=1S/C6F4I2/c7-1-2(8)4(10)6(12)5(11)3(1)9",
        "InChIKey": null,
        "Canonical SMILES": "FC=1C(F)=C(F)C(I)=C(I)C1F",
        "Molecular Formula": "C<sub>6</sub>F<sub>4</sub>I<sub>2</sub>",
        "Molecular Mass": "401.87",
        "Melting Point": "50.5 °C"
    }
}