{
    "cas_no": "16433-96-8",
    "key_name": "1-Ethynyl-2-nitrobenzene",
    "cn_name": "1-乙炔基-2-硝基苯;",
    "alternate_name": "Benzene, 1-ethynyl-2-nitro-;1-Ethynyl-2-nitrobenzene;(<em>o</em>-Nitrophenyl)acetylene;(2-Nitrophenyl)acetylene;(2-Nitrophenyl)ethyne;2-Ethynyl-1-nitrobenzene",
    "duplicated_cas_no": "",
    "SMILES": "C(#C)C1=C(N(=O)=O)C=CC=C1",
    "meta_data": {
        "InChI": "InChI=1S/C8H5NO2/c1-2-7-5-3-4-6-8(7)9(10)11/h1,3-6H",
        "InChIKey": null,
        "Canonical SMILES": "O=N(=O)C=1C=CC=CC1C#C",
        "Molecular Formula": "C<sub>8</sub>H<sub>5</sub>NO<sub>2</sub>",
        "Molecular Mass": "147.13",
        "Melting Point": "79.5-81 °C"
    }
}