{
    "cas_no": "2371-42-8",
    "key_name": "2-Methylisoborneol",
    "cn_name": null,
    "alternate_name": "Bicyclo[2.2.1]heptan-2-ol, 1,2,7,7-tetramethyl-, (1<em>R</em>,2<em>R</em>,4<em>R</em>)-<em>rel</em>-;2-Norbornanol, 1,2,7,7-tetramethyl-, <em>exo</em>-;Bicyclo[2.2.1]heptan-2-ol, 1,2,7,7-tetramethyl-, <em>exo</em>-;2-Norbornanol, 1,2,7,7-tetramethyl-;<em>rel</em>-(1<em>R</em>,2<em>R</em>,4<em>R</em>)-1,2,7,7-Tetramethylbicyclo[2.2.1]heptan-2-ol;2-<em>endo</em>-Methyl-2-<em>exo</em>-bornanol;2-Methylisoborneol;<em>exo</em>-1,2,7,7-Tetramethylbicyclo[2.2.1]heptan-2-ol",
    "duplicated_cas_no": "95097-54-4;112548-27-3;135683-82-8;18680-50-7;27695-81-4",
    "SMILES": "C[C@@]12C(C)(C)[C@@](C[C@@]1(C)O)(CC2)[H]",
    "meta_data": {
        "InChI": "InChI=1/C11H20O/c1-9(2)8-5-6-10(9,3)11(4,12)7-8/h8,12H,5-7H2,1-4H3/t8-,10-,11-/s2",
        "InChIKey": null,
        "Canonical SMILES": "OC1(C)CC2CCC1(C)C2(C)C",
        "Molecular Formula": "C<sub>11</sub>H<sub>20</sub>O",
        "Molecular Mass": "168.28",
        "Melting Point": "168 °C"
    }
}