{
    "cas_no": "494844-07-4",
    "key_name": "8-Chloro-1-(2,4-dichlorophenyl)-1,4,5,6-tetrahydro-<em>N</em>-1-piperidinylbenzo[6,7]cyclohepta[1,2-<em>c</em>]pyrazole-3-carboxamide",
    "cn_name": null,
    "alternate_name": "Benzo[6,7]cyclohepta[1,2-<em>c</em>]pyrazole-3-carboxamide, 8-chloro-1-(2,4-dichlorophenyl)-1,4,5,6-tetrahydro-<em>N</em>-1-piperidinyl-;8-Chloro-1-(2,4-dichlorophenyl)-1,4,5,6-tetrahydro-<em>N</em>-1-piperidinylbenzo[6,7]cyclohepta[1,2-<em>c</em>]pyrazole-3-carboxamide;NESS 0327;<em>N</em>-(Piperidin-1-yl)-8-chloro-1-(2′,4′-dichlorophenyl)-1,4,5,6-tetrahydrobenzo[6,7]cyclohepta[1,2-<em>c</em>]pyrazole-3-carboxamide",
    "duplicated_cas_no": "",
    "SMILES": "C(NN1CCCCC1)(=O)C=2C3=C(N(N2)C4=C(Cl)C=C(Cl)C=C4)C=5C(CCC3)=CC(Cl)=CC5",
    "meta_data": {
        "InChI": "InChI=1S/C24H23Cl3N4O/c25-16-7-9-18-15(13-16)5-4-6-19-22(24(32)29-30-11-2-1-3-12-30)28-31(23(18)19)21-10-8-17(26)14-20(21)27/h7-10,13-14H,1-6,11-12H2,(H,29,32)",
        "InChIKey": null,
        "Canonical SMILES": "O=C(NN1CCCCC1)C2=NN(C3=CC=C(Cl)C=C3Cl)C=4C=5C=CC(Cl)=CC5CCCC24",
        "Molecular Formula": "C<sub>24</sub>H<sub>23</sub>Cl<sub>3</sub>N<sub>4</sub>O",
        "Molecular Mass": "489.82",
        "Melting Point": "205-206 °C"
    }
}