{
    "cas_no": "144-49-0",
    "key_name": "Fluoroacetic acid",
    "cn_name": "氟乙酸;",
    "alternate_name": "Acetic acid, 2-fluoro-;Acetic acid, fluoro-;2-Fluoroacetic acid;Cymonic acid;Fluoroacetic acid;Fluoroethanoic acid;Gifblaar poison;HFA;Monofluoroacetic acid;α-Fluoroacetic acid;MeSH ID: D005463",
    "duplicated_cas_no": "9074-77-5",
    "SMILES": "C(CF)(O)=O",
    "meta_data": {
        "InChI": "InChI=1S/C2H3FO2/c3-1-2(4)5/h1H2,(H,4,5)",
        "InChIKey": null,
        "Canonical SMILES": "O=C(O)CF",
        "Molecular Formula": "C<sub>2</sub>H<sub>3</sub>FO<sub>2</sub>",
        "Molecular Mass": "78.04",
        "Boiling Point": "165 °C @ Press: 760 Torr",
        "Melting Point": "35.2 °C",
        "Density": "1.3693 g/cm³ @ Temp: 36 °C"
    }
}