{
    "cas_no": "1066-35-9",
    "key_name": "Chlorodimethylsilane",
    "cn_name": "二甲基一氯硅烷;氯二甲基硅烷;",
    "alternate_name": "Silane, chlorodimethyl-;Chlorodimethylsilane;Dimethylmonochlorosilane;Dimethylchlorosilane;Dimethylchlorohydrosilane;Dimethylhydrosilyl chloride;Dimethylsilyl chloride;Chlorodimethylhydrosilane;SID 4070.0;Dimethylhydrochlorosilane",
    "duplicated_cas_no": "",
    "SMILES": "[SiH](C)(C)Cl",
    "meta_data": {
        "InChI": "InChI=1S/C2H7ClSi/c1-4(2)3/h4H,1-2H3",
        "InChIKey": null,
        "Canonical SMILES": "Cl[SiH](C)C",
        "Molecular Formula": "C<sub>2</sub>H<sub>7</sub>ClSi",
        "Molecular Mass": "94.62",
        "Boiling Point": "36 °C",
        "Melting Point": "-111 °C",
        "Density": "0.868 g/cm³"
    }
}