{
    "cas_no": "7250-19-3",
    "key_name": "1<em>H</em>-Indol-3-amine",
    "cn_name": null,
    "alternate_name": "1<em>H</em>-Indol-3-amine;Indole, 3-amino-;3-Aminoindole;NSC 24933;1<em>H</em>-Indol-3-yl amine;1<em>H</em>-Indol-3-ylamine;3-Amino-1<em>H</em>-indole",
    "duplicated_cas_no": "",
    "SMILES": "NC=1C=2C(=CC=CC2)NC1",
    "meta_data": {
        "InChI": "InChI=1S/C8H8N2/c9-7-5-10-8-4-2-1-3-6(7)8/h1-5,10H,9H2",
        "InChIKey": null,
        "Canonical SMILES": "NC1=CNC=2C=CC=CC12",
        "Molecular Formula": "C<sub>8</sub>H<sub>8</sub>N<sub>2</sub>",
        "Molecular Mass": "132.16",
        "Melting Point": "115-117 °C"
    }
}