{
    "cas_no": "23239-35-2",
    "key_name": "α-Methyl-<span class=\"text-smallcaps\">L</span>-phenylalanine",
    "cn_name": "2-甲基-L-苯丙氨酸一水物;(S)-2-氨基-2-甲基-3-苯基丙酸一水物;",
    "alternate_name": "<span class=\"text-smallcaps\">L</span>-Phenylalanine, α-methyl-;Alanine, 2-methyl-3-phenyl-, <span class=\"text-smallcaps\">L</span>-;α-Methyl-<span class=\"text-smallcaps\">L</span>-phenylalanine;(<em>S</em>)-2-Methyl-3-phenylalanine;(<em>S</em>)-α-Methylphenylalanine;<span class=\"text-smallcaps\">L</span>-α-Methylphenylalanine;(<em>S</em>)-2-Methylphenylalanine;(2<em>S</em>)-2-Amino-2-methyl-3-phenylpropanoic acid;(<em>S</em>)-2-Amino-2-methyl-3-phenylpropanoicacid;(2S)-2-Amino-2-methyl-3-phenylpropanoic acid",
    "duplicated_cas_no": "27557-30-8",
    "SMILES": "C([C@](C(O)=O)(C)N)C1=CC=CC=C1",
    "meta_data": {
        "InChI": "InChI=1S/C10H13NO2/c1-10(11,9(12)13)7-8-5-3-2-4-6-8/h2-6H,7,11H2,1H3,(H,12,13)/t10-/m0/s1",
        "InChIKey": null,
        "Canonical SMILES": "O=C(O)C(N)(C)CC=1C=CC=CC1",
        "Molecular Formula": "C<sub>10</sub>H<sub>13</sub>NO<sub>2</sub>",
        "Molecular Mass": "179.22",
        "Melting Point": "278-280 °C"
    }
}