{
    "cas_no": "67-30-1",
    "key_name": "Tetraiodothyroacetic acid",
    "cn_name": "3,3,5,5-四碘甲腺乙酸;",
    "alternate_name": "Benzeneacetic acid, 4-(4-hydroxy-3,5-diiodophenoxy)-3,5-diiodo-;Acetic acid, [4-(4-hydroxy-3,5-diiodophenoxy)-3,5-diiodophenyl]-;Thyroacetic acid, 3,3′,5,5′-tetraiodo-;4-(4-Hydroxy-3,5-diiodophenoxy)-3,5-diiodobenzeneacetic acid;Tetrac;3,5,3′,5′-Tetraiodothyroacetic acid;Tetraiodothyroacetic acid;3,3′,5,5′-Tetraiodothyroacetic acid",
    "duplicated_cas_no": "",
    "SMILES": "O(C1=CC(I)=C(O)C(I)=C1)C2=C(I)C=C(CC(O)=O)C=C2I",
    "meta_data": {
        "InChI": "InChI=1S/C14H8I4O4/c15-8-4-7(5-9(16)13(8)21)22-14-10(17)1-6(2-11(14)18)3-12(19)20/h1-2,4-5,21H,3H2,(H,19,20)",
        "InChIKey": null,
        "Canonical SMILES": "O=C(O)CC1=CC(I)=C(OC2=CC(I)=C(O)C(I)=C2)C(I)=C1",
        "Molecular Formula": "C<sub>14</sub>H<sub>8</sub>I<sub>4</sub>O<sub>4</sub>",
        "Molecular Mass": "747.83",
        "Melting Point": "219-220 °C (decomp)"
    }
}