{
    "cas_no": "112101-81-2",
    "key_name": "(R)-5-(2-Aminopropyl)-2-methoxybenzenesulfonamide",
    "cn_name": null,
    "alternate_name": "Benzenesulfonamide, 5-[(2<em>R</em>)-2-aminopropyl]-2-methoxy-;Benzenesulfonamide, 5-(2-aminopropyl)-2-methoxy-, (<em>R</em>)-;5-[(2<em>R</em>)-2-Aminopropyl]-2-methoxybenzenesulfonamide;(R)-5-(2-Aminopropyl)-2-methoxybenzenesulfonamide;(R)-(-)-5-(2-Aminopropyl)-2-methoxybenzenesulfonamide",
    "duplicated_cas_no": "",
    "SMILES": "S(N)(=O)(=O)C1=C(OC)C=CC(C[C@@H](C)N)=C1",
    "meta_data": {
        "InChI": "InChI=1S/C10H16N2O3S/c1-7(11)5-8-3-4-9(15-2)10(6-8)16(12,13)14/h3-4,6-7H,5,11H2,1-2H3,(H2,12,13,14)/t7-/m1/s1",
        "InChIKey": null,
        "Canonical SMILES": "O=S(=O)(N)C1=CC(=CC=C1OC)CC(N)C",
        "Molecular Formula": "C<sub>10</sub>H<sub>16</sub>N<sub>2</sub>O<sub>3</sub>S",
        "Molecular Mass": "244.31",
        "Melting Point": "166-167 °C"
    }
}