{
    "cas_no": "3696-22-8",
    "key_name": "<em>N</em>-(4-Nitrophenyl)thiourea",
    "cn_name": null,
    "alternate_name": "Thiourea, <em>N</em>-(4-nitrophenyl)-;Urea, 1-(<em>p</em>-nitrophenyl)-2-thio-;Thiourea, (4-nitrophenyl)-;<em>N</em>-(4-Nitrophenyl)thiourea;U 20757;1-(4-Nitrophenyl)-2-thiourea;(<em>p</em>-Nitrophenyl)thiourea;4-Nitrophenylthiourea;1-(4-Nitrophenyl)thiourea;NSC 61006;Ethanethioamide, 2-[(4-nitrophenyl)amino]-",
    "duplicated_cas_no": "2504968-30-1",
    "SMILES": "N(C(N)=S)C1=CC=C(N(=O)=O)C=C1",
    "meta_data": {
        "InChI": "InChI=1S/C7H7N3O2S/c8-7(13)9-5-1-3-6(4-2-5)10(11)12/h1-4H,(H3,8,9,13)",
        "InChIKey": null,
        "Canonical SMILES": "O=N(=O)C1=CC=C(C=C1)NC(=S)N",
        "Molecular Formula": "C<sub>7</sub>H<sub>7</sub>N<sub>3</sub>O<sub>2</sub>S",
        "Molecular Mass": "197.21",
        "Melting Point": "189-190 °C"
    }
}