{
    "cas_no": "80638-08-0",
    "key_name": "<em>N</em>-Cyclohexyl-<em>N</em>-methyl-2-nitrobenzenemethanamine",
    "cn_name": null,
    "alternate_name": "Benzenemethanamine, <em>N</em>-cyclohexyl-<em>N</em>-methyl-2-nitro-;Benzylamine, <em>N</em>-cyclohexyl-<em>N</em>-methyl-<em>o</em>-nitro-;<em>N</em>-Cyclohexyl-<em>N</em>-methyl-2-nitrobenzenemethanamine;<em>N</em>-(2-Nitrobenzyl)-<em>N</em>-methylcyclohexanamine",
    "duplicated_cas_no": "",
    "SMILES": "C(N(C)C1CCCCC1)C2=C(N(=O)=O)C=CC=C2",
    "meta_data": {
        "InChI": "InChI=1S/C14H20N2O2/c1-15(13-8-3-2-4-9-13)11-12-7-5-6-10-14(12)16(17)18/h5-7,10,13H,2-4,8-9,11H2,1H3",
        "InChIKey": null,
        "Canonical SMILES": "O=N(=O)C=1C=CC=CC1CN(C)C2CCCCC2",
        "Molecular Formula": "C<sub>14</sub>H<sub>20</sub>N<sub>2</sub>O<sub>2</sub>",
        "Molecular Mass": "248.32",
        "Boiling Point": "116-119 °C @ Press: 0.06 Torr"
    }
}