{
    "cas_no": "97-24-5",
    "key_name": "Fenticlor",
    "cn_name": null,
    "alternate_name": "Phenol, 2,2′-thiobis[4-chloro-;2,2′-Thiobis[4-chlorophenol];D 25;CR 305;Bis(2-hydroxy-5-chlorophenyl) sulfide;Novex;Fenticlor;S 7 (antimycotic);5,5′-Dichloro-2,2′-dihydroxydiphenyl sulfide;Fentichlor;Oksid;2,2′-Dihydroxy-5,5′-dichlorophenyl sulfide;D 25-Antimykotikum;S 7;Ovitrol;HL 1050;Meflorin;Ph 549;2,2′-Dihydroxy-5,5′-dichlorodiphenyl sulfide;NSC 4112;NSC 55636",
    "duplicated_cas_no": "74082-96-5",
    "SMILES": "S(C1=C(O)C=CC(Cl)=C1)C2=C(O)C=CC(Cl)=C2",
    "meta_data": {
        "InChI": "InChI=1S/C12H8Cl2O2S/c13-7-1-3-9(15)11(5-7)17-12-6-8(14)2-4-10(12)16/h1-6,15-16H",
        "InChIKey": null,
        "Canonical SMILES": "ClC1=CC=C(O)C(SC2=CC(Cl)=CC=C2O)=C1",
        "Molecular Formula": "C<sub>12</sub>H<sub>8</sub>Cl<sub>2</sub>O<sub>2</sub>S",
        "Molecular Mass": "287.16",
        "Melting Point": "174 °C"
    }
}