{
    "cas_no": "88-69-7",
    "key_name": "2-Isopropylphenol",
    "cn_name": "2-异丙基苯酚;邻异丙基酚;",
    "alternate_name": "Phenol, 2-(1-methylethyl)-;Phenol, <em>o</em>-isopropyl-;2-(1-Methylethyl)phenol;<em>o</em>-Isopropylphenol;2-Isopropylphenol;<em>o</em>-Hydroxycumene;<em>o</em>-Cumenol;NSC 5103;2-(Propan-2-yl)phenol",
    "duplicated_cas_no": "",
    "SMILES": "C(C)(C)C1=C(O)C=CC=C1",
    "meta_data": {
        "InChI": "InChI=1S/C9H12O/c1-7(2)8-5-3-4-6-9(8)10/h3-7,10H,1-2H3",
        "InChIKey": null,
        "Canonical SMILES": "OC=1C=CC=CC1C(C)C",
        "Molecular Formula": "C<sub>9</sub>H<sub>12</sub>O",
        "Molecular Mass": "136.19",
        "Boiling Point": "213.5 °C",
        "Melting Point": "15.5 °C",
        "Density": "0.9929 g/cm³ @ Temp: 25 °C"
    }
}