{
    "cas_no": "3497-00-5",
    "key_name": "<em>P</em>-Phenylphosphonothioic dichloride",
    "cn_name": "苯基硫代膦酰二氯;苯硫代磷酰二氯;",
    "alternate_name": "Phosphonothioic dichloride, <em>P</em>-phenyl-;Phosphonothioic dichloride, phenyl-;<em>P</em>-Phenylphosphonothioic dichloride;Phenylthiophosphonyl dichloride;Phenylphosphonothioic dichloride;Phenylphosphonothioyl dichloride;Phenylthionophosphonic dichloride;Dichlorophenylphosphine sulfide;Phenylphosphonothioic chloride;Phenylthiophosphonic dichloride;Phenylphosphorus thiodichloride;Phenylphosphonothionodichloridic acid;NSC 62217",
    "duplicated_cas_no": "",
    "SMILES": "P(Cl)(Cl)(=S)C1=CC=CC=C1",
    "meta_data": {
        "InChI": "InChI=1S/C6H5Cl2PS/c7-9(8,10)6-4-2-1-3-5-6/h1-5H",
        "InChIKey": null,
        "Canonical SMILES": "S=P(Cl)(Cl)C=1C=CC=CC1",
        "Molecular Formula": "C<sub>6</sub>H<sub>5</sub>Cl<sub>2</sub>PS",
        "Molecular Mass": "211.05",
        "Boiling Point": "95-110 °C @ Press: 2-3 Torr",
        "Melting Point": "76-77 °C",
        "Density": "1.4042 g/cm³ @ Temp: 20 °C"
    }
}