{
    "cas_no": "42182-65-0",
    "key_name": "2-Benzothiazolemethanamine",
    "cn_name": null,
    "alternate_name": "2-Benzothiazolemethanamine;Benzothiazole, 2-(aminomethyl)-;2-(Aminomethyl)benzothiazole;NSC 509752;(1,3-Benzothiazol-2-yl)methanamine;1,3-Benzothiazol-2-ylmethanamine",
    "duplicated_cas_no": "",
    "SMILES": "C(N)C1=NC=2C(S1)=CC=CC2",
    "meta_data": {
        "InChI": "InChI=1S/C8H8N2S/c9-5-8-10-6-3-1-2-4-7(6)11-8/h1-4H,5,9H2",
        "InChIKey": null,
        "Canonical SMILES": "N1=C(SC=2C=CC=CC12)CN",
        "Molecular Formula": "C<sub>8</sub>H<sub>8</sub>N<sub>2</sub>S",
        "Molecular Mass": "164.23",
        "Boiling Point": "156-157 °C @ Press: 10 Torr",
        "Melting Point": "51 °C"
    }
}