{
    "cas_no": "2401-73-2",
    "key_name": "1,3-Dichloro-1,1,3,3-tetramethyldisiloxane",
    "cn_name": null,
    "alternate_name": "Disiloxane, 1,3-dichloro-1,1,3,3-tetramethyl-;1,3-Dichloro-1,1,3,3-tetramethyldisiloxane;1,3-Dichlorotetramethyldisiloxane;1,1,3,3-Tetramethyl-1,3-dichlorodisiloxane;Bis(chlorodimethylsilyl) ether;Tetramethyl-1,3-dichlorodisiloxane;Bis(chlorodimethylsilyl) oxide;Dichlorotetramethyldisiloxane",
    "duplicated_cas_no": "1357297-22-3",
    "SMILES": "O([Si](C)(C)Cl)[Si](C)(C)Cl",
    "meta_data": {
        "InChI": "InChI=1S/C4H12Cl2OSi2/c1-8(2,5)7-9(3,4)6/h1-4H3",
        "InChIKey": null,
        "Canonical SMILES": "Cl[Si](O[Si](Cl)(C)C)(C)C",
        "Molecular Formula": "C<sub>4</sub>H<sub>12</sub>Cl<sub>2</sub>OSi<sub>2</sub>",
        "Molecular Mass": "203.21",
        "Boiling Point": "138 °C",
        "Melting Point": "-37.5 °C",
        "Density": "1.039 g/cm³"
    }
}