{
    "cas_no": "4430-77-7",
    "key_name": "6,7-Dihydropyrido[2,3-<em>d</em>]pyridazine-5,8-dione",
    "cn_name": "吡啶并[2,3-d]吡嗪-5,8-二醇;",
    "alternate_name": "Pyrido[2,3-<em>d</em>]pyridazine-5,8-dione, 6,7-dihydro-;6,7-Dihydropyrido[2,3-<em>d</em>]pyridazine-5,8-dione;6,7-Diaza-5,8-dioxo-5,6,7,8-tetrahydroquinoline;2,3-Pyridinedicarboxylic acid, cyclic hydrazide;Pyrido[2,3-<em>d</em>]pyridazine-5,8-diol;Quinolinic hydrazide;NSC 131213;NSC 131226;NSC 3846",
    "duplicated_cas_no": "",
    "SMILES": "O=C1C=2C(C(=O)NN1)=NC=CC2",
    "meta_data": {
        "InChI": "InChI=1S/C7H5N3O2/c11-6-4-2-1-3-8-5(4)7(12)10-9-6/h1-3H,(H,9,11)(H,10,12)",
        "InChIKey": null,
        "Canonical SMILES": "O=C1NNC(=O)C2=CC=CN=C12",
        "Molecular Formula": "C<sub>7</sub>H<sub>5</sub>N<sub>3</sub>O<sub>2</sub>",
        "Molecular Mass": "163.13",
        "Melting Point": "310 °C (decomp)"
    }
}