{
    "cas_no": "626-67-5",
    "key_name": "<em>N</em>-Methylpiperidine",
    "cn_name": "N-甲基哌啶;",
    "alternate_name": "Piperidine, 1-methyl-;1-Methylpiperidine;<em>N</em>-Methylpiperidine",
    "duplicated_cas_no": "139252-84-9",
    "SMILES": "CN1CCCCC1",
    "meta_data": {
        "InChI": "InChI=1S/C6H13N/c1-7-5-3-2-4-6-7/h2-6H2,1H3",
        "InChIKey": null,
        "Canonical SMILES": "N1(C)CCCCC1",
        "Molecular Formula": "C<sub>6</sub>H<sub>13</sub>N",
        "Molecular Mass": "99.17",
        "Boiling Point": "107 °C",
        "Density": "0.8142 g/cm³ @ Temp: 23 °C"
    }
}