{
    "cas_no": "1081-73-8",
    "key_name": "1-[2-(4-Bromophenoxy)ethyl]pyrrolidine",
    "cn_name": "1-(2-(4-溴苯氧基)乙基)吡咯烷;1-(4-溴苯氧基)-2-(1-吡咯烷基)乙烷;",
    "alternate_name": "Pyrrolidine, 1-[2-(4-bromophenoxy)ethyl]-;Pyrrolidine, 1-[2-(<em>p</em>-bromophenoxy)ethyl]-;1-[2-(4-Bromophenoxy)ethyl]pyrrolidine;4-[2-Pyrrolidinoethoxy]phenyl bromide",
    "duplicated_cas_no": "",
    "SMILES": "O(CCN1CCCC1)C2=CC=C(Br)C=C2",
    "meta_data": {
        "InChI": "InChI=1S/C12H16BrNO/c13-11-3-5-12(6-4-11)15-10-9-14-7-1-2-8-14/h3-6H,1-2,7-10H2",
        "InChIKey": null,
        "Canonical SMILES": "BrC1=CC=C(OCCN2CCCC2)C=C1",
        "Molecular Formula": "C<sub>12</sub>H<sub>16</sub>BrNO",
        "Molecular Mass": "270.17",
        "Boiling Point": "119-123 °C @ Press: 2.5 Torr"
    }
}