{
    "cas_no": "2731-73-9",
    "key_name": "3-Chloro-<span class=\"text-smallcaps\">L</span>-alanine",
    "cn_name": "3-氯-L-丙氨酸;L-3-氯丙氨酸;(S)-3-氯丙氨酸;",
    "alternate_name": "<span class=\"text-smallcaps\">L</span>-Alanine, 3-chloro-;Alanine, 3-chloro-, <span class=\"text-smallcaps\">L</span>-;3-Chloro-<span class=\"text-smallcaps\">L</span>-alanine;β-Chloro-<span class=\"text-smallcaps\">L</span>-alanine;<span class=\"text-smallcaps\">L</span>-β-Chloroalanine;(2<em>R</em>)-β-Chloroalanine;<span class=\"text-smallcaps\">L</span>-3-Chloroalanine;(R)-2-Amino-3-chloropropanoic acid",
    "duplicated_cas_no": "",
    "SMILES": "[C@@H](C(O)=O)(CCl)N",
    "meta_data": {
        "InChI": "InChI=1S/C3H6ClNO2/c4-1-2(5)3(6)7/h2H,1,5H2,(H,6,7)/t2-/m0/s1",
        "InChIKey": null,
        "Canonical SMILES": "O=C(O)C(N)CCl",
        "Molecular Formula": "C<sub>3</sub>H<sub>6</sub>ClNO<sub>2</sub>",
        "Molecular Mass": "123.54",
        "Melting Point": "166-167 °C (decomp)"
    }
}