{
    "cas_no": "5202-78-8",
    "key_name": "<em>N</em>-Vinylacetamide",
    "cn_name": "N-乙烯基乙酰胺;",
    "alternate_name": "Acetamide, <em>N</em>-ethenyl-;Acetamide, <em>N</em>-vinyl-;<em>N</em>-Ethenylacetamide;<em>N</em>-Vinylacetamide;Vinylacetamide;NVA",
    "duplicated_cas_no": "",
    "SMILES": "N(C(C)=O)C=C",
    "meta_data": {
        "InChI": "InChI=1S/C4H7NO/c1-3-5-4(2)6/h3H,1H2,2H3,(H,5,6)",
        "InChIKey": null,
        "Canonical SMILES": "O=C(NC=C)C",
        "Molecular Formula": "C<sub>4</sub>H<sub>7</sub>NO",
        "Molecular Mass": "85.10",
        "Boiling Point": "107-109 °C",
        "Melting Point": "53 °C"
    }
}