{
    "cas_no": "89640-55-1",
    "key_name": "3-Iodo-4-methoxypyridine",
    "cn_name": null,
    "alternate_name": "Pyridine, 3-iodo-4-methoxy-;3-Iodo-4-methoxypyridine",
    "duplicated_cas_no": "",
    "SMILES": "O(C)C=1C(I)=CN=CC1",
    "meta_data": {
        "InChI": "InChI=1S/C6H6INO/c1-9-6-2-3-8-4-5(6)7/h2-4H,1H3",
        "InChIKey": null,
        "Canonical SMILES": "IC=1C=NC=CC1OC",
        "Molecular Formula": "C<sub>6</sub>H<sub>6</sub>INO",
        "Molecular Mass": "235.02",
        "Melting Point": "78 °C"
    }
}