{
    "cas_no": "97-44-9",
    "key_name": "<em>N</em>-Acetyl-4-hydroxy-<em>m</em>-arsanilic acid",
    "cn_name": "乙酰胂胺;羟基乙酰氨基苯胂酸;阿西太松;",
    "alternate_name": "Arsonic acid, <em>As</em>-[3-(acetylamino)-4-hydroxyphenyl]-;<em>m</em>-Arsanilic acid, <em>N</em>-acetyl-4-hydroxy-;Arsonic acid, [3-(acetylamino)-4-hydroxyphenyl]-;<em>As</em>-[3-(Acetylamino)-4-hydroxyphenyl]arsonic acid;3-Acetamido-4-hydroxybenzenearsonic acid;Acetarsol;Acetarsone;Acetphenarsine;3-Acetylamino-4-hydroxyphenylarsonic acid;3-Acetylamino-4-hydroxyphenyl-1-arsonic acid;<em>N</em>-Acetyl-4-hydroxy-<em>m</em>-arsanilic acid;Amarsan;Amoebal;Arsaphen;Chrlich 594;Devegan;Disparicida;Dynarsan;Ehrlich 594;Fourneau 190;Ginarsol;Goyl;Kharophen;Kubarsol;Limarsol;Malagride;Monargan;Nilacid;Oralcid;Orarsan;Osarsal;Osarsol;Osvarsan;Pallicid;Paroxyl;Spirocid;Spirozid;Stovarsol;Stovarsolan;SVC;Vagisept;Osarsole;190F;F 190;Gynoplix;3-Acetamido-4-hydroxyphenylarsonic acid;Vagoflor;Mexyl;Arsonine;Sanogyl;NSC 13160;NSC 3247",
    "duplicated_cas_no": "",
    "SMILES": "N(C(C)=O)C1=CC([As](=O)(O)O)=CC=C1O",
    "meta_data": {
        "InChI": "InChI=1S/C8H10AsNO5/c1-5(11)10-7-4-6(9(13,14)15)2-3-8(7)12/h2-4,12H,1H3,(H,10,11)(H2,13,14,15)",
        "InChIKey": null,
        "Canonical SMILES": "O=C(NC1=CC(=CC=C1O)[As](=O)(O)O)C",
        "Molecular Formula": "C<sub>8</sub>H<sub>10</sub>AsNO<sub>5</sub>",
        "Molecular Mass": "275.09",
        "Melting Point": "220-221 °C",
        "Density": "1.0325 g/cm³ @ Temp: 15 °C"
    }
}