{
    "cas_no": "632-79-1",
    "key_name": "Tetrabromophthalic anhydride",
    "cn_name": "四溴苯酐;四溴邻苯二甲酸酐;",
    "alternate_name": "1,3-Isobenzofurandione, 4,5,6,7-tetrabromo-;Phthalic anhydride, tetrabromo-;4,5,6,7-Tetrabromo-1,3-isobenzofurandione;Bromphthal;Tetrabromophthalic anhydride;3,4,5,6-Tetrabromophthalic anhydride;FireMaster PHT 4;FG 4000;Saytex RB 49;Tetrabromophthalic acid anhydride;PHT 4;NSC 4874;4,5,6,7-Tetrabromoisobenzofuran-1,3-dione;Tertrabromophthalic anhydride;RB 49",
    "duplicated_cas_no": "72625-95-7",
    "SMILES": "BrC1=C2C(=C(Br)C(Br)=C1Br)C(=O)OC2=O",
    "meta_data": {
        "InChI": "InChI=1S/C8Br4O3/c9-3-1-2(8(14)15-7(1)13)4(10)6(12)5(3)11",
        "InChIKey": null,
        "Canonical SMILES": "O=C1OC(=O)C=2C(Br)=C(Br)C(Br)=C(Br)C12",
        "Molecular Formula": "C<sub>8</sub>Br<sub>4</sub>O<sub>3</sub>",
        "Molecular Mass": "463.70",
        "Melting Point": "279.5-280.5 °C"
    }
}