{
    "cas_no": "870-08-6",
    "key_name": "Dioctyltin oxide",
    "cn_name": "氧化二辛基锡;二正辛基氧化锡;",
    "alternate_name": "Stannane, dioctyloxo-;Dioctyltin oxide;Tin, dioctyloxo-;Dioctyloxostannane;Di-<em>n</em>-octyltin oxide;Stann OO;Irgastab T 161;U 800;U 800 (heat stabilizer);NSC 140743;Dioctyloxotin;Neostann U 800P;DOTO;DOTO (dioctyltin oxide);Stann DOTO;TIB KAT 417",
    "duplicated_cas_no": "",
    "SMILES": "[Sn](CCCCCCCC)(CCCCCCCC)=O",
    "meta_data": {
        "InChI": "InChI=1S/2C8H17.O.Sn/c2*1-3-5-7-8-6-4-2;;/h2*1,3-8H2,2H3;;",
        "InChIKey": null,
        "Canonical SMILES": "O=[Sn](CCCCCCCC)CCCCCCCC",
        "Molecular Formula": "C<sub>16</sub>H<sub>34</sub>OSn",
        "Molecular Mass": "361.15",
        "Melting Point": "245-248 °C (decomp)",
        "Density": "1.3 g/cm³"
    }
}