{
    "cas_no": "554-91-6",
    "key_name": "Gentiobiose",
    "cn_name": "龙胆二糖;6-O-Β-D-吡喃葡糖(苷)基-D-葡萄糖;Β-龙胆二糖;",
    "alternate_name": "<span class=\"text-smallcaps\">D</smallcap>-Glucose, 6-<em>O</em>-β-<smallcap>D</span>-glucopyranosyl-;Gentiobiose;6-<em>O</em>-β-<span class=\"text-smallcaps\">D</smallcap>-Glucopyranosyl-<smallcap>D</span>-glucose;Amygdalose;6-(β-<span class=\"text-smallcaps\">D</smallcap>-Glucosido)-<smallcap>D</span>-glucose;<span class=\"text-smallcaps\">D</span>-Gentiobiose",
    "duplicated_cas_no": "",
    "SMILES": "O(C[C@H]([C@H]([C@@H]([C@H](C=O)O)O)O)O)[C@@H]1O[C@H](CO)[C@@H](O)[C@H](O)[C@H]1O",
    "meta_data": {
        "InChI": "InChI=1S/C12H22O11/c13-1-4(15)7(17)8(18)5(16)3-22-12-11(21)10(20)9(19)6(2-14)23-12/h1,4-12,14-21H,2-3H2/t4-,5+,6+,7+,8+,9+,10-,11+,12+/m0/s1",
        "InChIKey": null,
        "Canonical SMILES": "O=CC(O)C(O)C(O)C(O)COC1OC(CO)C(O)C(O)C1O",
        "Molecular Formula": "C<sub>12</sub>H<sub>22</sub>O<sub>11</sub>",
        "Molecular Mass": "342.30",
        "Melting Point": "86 °C"
    }
}