{
    "cas_no": "39243-02-2",
    "key_name": "8-Bromo-1-methyl-6-(2-pyridinyl)-4<em>H</em>-[1,2,4]triazolo[4,3-<em>a</em>][1,4]benzodiazepine",
    "cn_name": null,
    "alternate_name": "4<em>H</em>-[1,2,4]Triazolo[4,3-<em>a</em>][1,4]benzodiazepine, 8-bromo-1-methyl-6-(2-pyridinyl)-;8-Bromo-1-methyl-6-(2-pyridinyl)-4<em>H</em>-[1,2,4]triazolo[4,3-<em>a</em>][1,4]benzodiazepine;Pyrazolam",
    "duplicated_cas_no": "",
    "SMILES": "CC=1N2C=3C(C(=NCC2=NN1)C4=CC=CC=N4)=CC(Br)=CC3",
    "meta_data": {
        "InChI": "InChI=1S/C16H12BrN5/c1-10-20-21-15-9-19-16(13-4-2-3-7-18-13)12-8-11(17)5-6-14(12)22(10)15/h2-8H,9H2,1H3",
        "InChIKey": null,
        "Canonical SMILES": "BrC=1C=CC2=C(C1)C(=NCC3=NN=C(N32)C)C=4N=CC=CC4",
        "Molecular Formula": "C<sub>16</sub>H<sub>12</sub>BrN<sub>5</sub>",
        "Molecular Mass": "354.20",
        "Melting Point": "253-255 °C"
    }
}