{
    "cas_no": "37052-78-1",
    "key_name": "2-Mercapto-5-methoxybenzimidazole",
    "cn_name": "2-巯基-5-甲氧基苯并咪唑;",
    "alternate_name": "2<em>H</em>-Benzimidazole-2-thione, 1,3-dihydro-5-methoxy-;1,3-Dihydro-5-methoxy-2<em>H</em>-benzimidazole-2-thione;2-Mercapto-5-methoxybenzimidazole;5-Methoxy-2-benzimidazolethiol;2-Mercapto-5-methoxy-1<em>H</em>-benzimidazole;5-Methoxy-1<em>H</em>-benzimidazole-2-thiol;5-Methoxy-2-mercaptobenzimidazole;5-Methoxy-1<em>H</em>-benzo[<em>d</em>]imidazole-2(3<em>H</em>)-thione;5-Methoxy-1<em>H</em>-benzoimidazole-2-thiol;2-Thio-5-methoxy-1<em>H</em>-benzimidazole;1,3-Dihydro-5-methoxybenzimidazole-2-thione;5-Methoxy-2-mercapto-1<em>H</em>-benzimidazole",
    "duplicated_cas_no": "",
    "SMILES": "S=C1NC=2C(=CC(OC)=CC2)N1",
    "meta_data": {
        "InChI": "InChI=1S/C8H8N2OS/c1-11-5-2-3-6-7(4-5)10-8(12)9-6/h2-4H,1H3,(H2,9,10,12)",
        "InChIKey": null,
        "Canonical SMILES": "S=C1NC2=CC=C(OC)C=C2N1",
        "Molecular Formula": "C<sub>8</sub>H<sub>8</sub>N<sub>2</sub>OS",
        "Molecular Mass": "180.23",
        "Melting Point": "255-256 °C"
    }
}