{
    "cas_no": "905-97-5",
    "key_name": "3,3′-Diethylthiacarbocyanine iodide",
    "cn_name": "碘化-3,3-二乙基噻碳菁;",
    "alternate_name": "Benzothiazolium, 3-ethyl-2-[3-(3-ethyl-2(3<em>H</em>)-benzothiazolylidene)-1-propen-1-yl]-, iodide (1:1);Benzothiazolium, 3-ethyl-2-[3-(3-ethyl-2-benzothiazolinylidene)propenyl]-, iodide;Benzothiazolium, 3-ethyl-2-[3-(3-ethyl-2(3<em>H</em>)-benzothiazolylidene)-1-propenyl]-, iodide;3-Ethyl-2-[(3-ethyl-2-benzothiazolinylidene)propenyl]benzothiazolium iodide;Benzothiazolium, 3-ethyl-2-[3-(3-ethyl-2(3<em>H</em>)-benzothiazolylidene)propenyl]-, iodide;Thiacarbocyanine iodide, 3,3′-diethyl-;Thiazole Purple;3,3′-Diethyl-2,2′-thiacarbocyanine iodide;3,3′-Diethylbenzothiazoliumcarbocyanine iodide;NK 76;Thiacarbocyanine iodide;3,3′-Diethylthiacarbocyanine iodide;NK 180 (dye);NK 180;DTCI;LC 8760;D 283;S 0290;3-Ethyl-2-[3-(3-ethyl-2,3-dihydro-1,3-benzothiazol-2-ylidene)prop-1-en-1-yl]-1,3-benzothiazol-3-ium iodide",
    "duplicated_cas_no": "51895-77-3;57441-51-7;57441-59-5;149560-40-7;203113-05-7;1655529-55-7;2481084-02-8",
    "SMILES": "C(C)N1C=2C(SC1=CC=CC3=[N+](CC)C=4C(S3)=CC=CC4)=CC=CC2.[I-]",
    "meta_data": {
        "InChI": "InChI=1S/C21H21N2S2.HI/c1-3-22-16-10-5-7-12-18(16)24-20(22)14-9-15-21-23(4-2)17-11-6-8-13-19(17)25-21;/h5-15H,3-4H2,1-2H3;1H/q+1;/p-1",
        "InChIKey": null,
        "Canonical SMILES": "[I-].S1C=2C=CC=CC2N(C1=CC=CC=3SC=4C=CC=CC4[N+]3CC)CC",
        "Molecular Formula": "C<sub>21</sub>H<sub>21</sub>N<sub>2</sub>S<sub>2</sub>.I",
        "Molecular Mass": "",
        "Melting Point": "268 °C (decomp)"
    }
}