{
    "cas_no": "125-20-2",
    "key_name": "Thymolphthalein",
    "cn_name": "百里酚酞;百里香酚酞;麝香草酚酞;",
    "alternate_name": "1(3<em>H</em>)-Isobenzofuranone, 3,3-bis[4-hydroxy-2-methyl-5-(1-methylethyl)phenyl]-;Phenolphthalein, 5′,5′′-diisopropyl-2′,2′′-dimethyl-;Thymolphthalein;3,3-Bis[4-hydroxy-2-methyl-5-(1-methylethyl)phenyl]-1(3<em>H</em>)-isobenzofuranone;3,3-Bis(4-hydroxy-3-isopropyl-6-methyl)phthalide;2′,2′′-Diisopropyl-5′,5′′-dimethylphenolphthalein;NSC 2186;2-[(4-Hydroxy-5-isopropyl-2-methylphenyl)(5-isopropyl-2-methyl-4-oxo-2,5-cyclohexadien-1-ylidene)methyl]benzoic acid;3,3-Bis(4-hydroxy-2-methyl-5-propan-2-ylphenyl)-2-benzofuran-1-one;3,3-Bis-(4-hydroxy-5-isopropyl-2-methyl-phenyl)-3<em>H</em>-isobenzofuran-1-one;DTXSID2051633;MeSH ID: D013944",
    "duplicated_cas_no": "412959-00-3;860114-15-4;1005310-58-6;1065125-48-5;1111022-10-6;1173514-83-4;1185235-35-1;1409972-57-1",
    "SMILES": "CC=1C(C2(C=3C(C(=O)O2)=CC=CC3)C4=CC(C(C)C)=C(O)C=C4C)=CC(C(C)C)=C(O)C1",
    "meta_data": {
        "InChI": "InChI=1S/C28H30O4/c1-15(2)20-13-23(17(5)11-25(20)29)28(22-10-8-7-9-19(22)27(31)32-28)24-14-21(16(3)4)26(30)12-18(24)6/h7-16,29-30H,1-6H3",
        "InChIKey": null,
        "Canonical SMILES": "O=C1OC(C=2C=CC=CC12)(C3=CC(=C(O)C=C3C)C(C)C)C4=CC(=C(O)C=C4C)C(C)C",
        "Molecular Formula": "C<sub>28</sub>H<sub>30</sub>O<sub>4</sub>",
        "Molecular Mass": "430.54",
        "Melting Point": "253 °C"
    }
}