{
    "cas_no": "20408-97-3",
    "key_name": "Thioglucose",
    "cn_name": "5-硫-D-葡萄糖;",
    "alternate_name": "<span class=\"text-smallcaps\">D</span>-Glucose, 5-thio-;5-Thio-<span class=\"text-smallcaps\">D</span>-glucose;Thioglucose;NSC 204984;5-Thioglucose",
    "duplicated_cas_no": "119663-50-2",
    "SMILES": "[C@H]([C@@H]([C@@H](CO)S)O)([C@H](C=O)O)O",
    "meta_data": {
        "InChI": "InChI=1S/C6H12O5S/c7-1-3(9)5(10)6(11)4(12)2-8/h1,3-6,8-12H,2H2/t3-,4+,5+,6+/m0/s1",
        "InChIKey": null,
        "Canonical SMILES": "O=CC(O)C(O)C(O)C(S)CO",
        "Molecular Formula": "C<sub>6</sub>H<sub>12</sub>O<sub>5</sub>S",
        "Molecular Mass": "196.22",
        "Melting Point": "135.5 °C"
    }
}