{
    "cas_no": "104-82-5",
    "key_name": "4-Methylbenzyl chloride",
    "cn_name": "4-甲基氯苄;对甲基氯苄;对甲基氯化苄;",
    "alternate_name": "Benzene, 1-(chloromethyl)-4-methyl-;<em>p</em>-Xylene, α-chloro-;1-(Chloromethyl)-4-methylbenzene;α-Chloro-<em>p</em>-xylene;<em>p</em>-Methylbenzyl chloride;<em>p</em>-Xylyl chloride;<em>p</em>-Xylyl-α-chloride;<em>p</em>-(Chloromethyl)toluene;4-Methylbenzyl chloride;(4-Methylphenyl)methyl chloride;<em>p</em>-Tolylmethyl chloride;4-(Chloromethyl)toluene;1-Methyl-4-chloromethylbenzene;NSC 46590;α-Chloro-<em>p</em>-methyltoluene",
    "duplicated_cas_no": "",
    "SMILES": "C(Cl)C1=CC=C(C)C=C1",
    "meta_data": {
        "InChI": "InChI=1S/C8H9Cl/c1-7-2-4-8(6-9)5-3-7/h2-5H,6H2,1H3",
        "InChIKey": null,
        "Canonical SMILES": "ClCC1=CC=C(C=C1)C",
        "Molecular Formula": "C<sub>8</sub>H<sub>9</sub>Cl",
        "Molecular Mass": "140.61",
        "Boiling Point": "200-202 °C",
        "Melting Point": "&lt;25 °C",
        "Density": "1.0512 g/cm³ @ Temp: 20 °C"
    }
}