{
    "cas_no": "5024-21-5",
    "key_name": "1,14-Dimethyl tetradecanedioate",
    "cn_name": "十四烷二酸二甲酯;十四烯二酸二甲酯;",
    "alternate_name": "Tetradecanedioic acid, 1,14-dimethyl ester;Tetradecanedioic acid, dimethyl ester;1,14-Dimethyl tetradecanedioate;1,12-Dodecanedicarboxylic acid dimethyl ester;Dimethyl tetradecanedioate;NSC 9505",
    "duplicated_cas_no": "",
    "SMILES": "C(CCCCCCCCCCCCC(OC)=O)(OC)=O",
    "meta_data": {
        "InChI": "InChI=1S/C16H30O4/c1-19-15(17)13-11-9-7-5-3-4-6-8-10-12-14-16(18)20-2/h3-14H2,1-2H3",
        "InChIKey": null,
        "Canonical SMILES": "O=C(OC)CCCCCCCCCCCCC(=O)OC",
        "Molecular Formula": "C<sub>16</sub>H<sub>30</sub>O<sub>4</sub>",
        "Molecular Mass": "286.41",
        "Boiling Point": "137-155 °C @ Press: 0.1 Torr",
        "Melting Point": "54-58 °C"
    }
}