{
    "cas_no": "42856-71-3",
    "key_name": "2-Methyl-<span class=\"text-smallcaps\">L</span>-proline",
    "cn_name": "(S)-2-甲基脯氨酸;(S)-2-甲基吡咯烷-2-甲酸;",
    "alternate_name": "<span class=\"text-smallcaps\">L</span>-Proline, 2-methyl-;Proline, 2-methyl-, <span class=\"text-smallcaps\">L</span>-;2-Methyl-<span class=\"text-smallcaps\">L</span>-proline;(-)-2-Methyl-<span class=\"text-smallcaps\">L</span>-proline;2-Methylproline;(-)-2-Methyl-(<em>S</em>)-proline;α-Methyl-<span class=\"text-smallcaps\">L</span>-proline;(<em>S</em>)-2-Methylproline;(<em>S</em>)-α-Methylproline;NSC 14964;(<em>S</em>)-2-Methylpyrrolidine-2-carboxylic acid;(2S)-2-Methylpyrrolidine-2-carboxylic acid",
    "duplicated_cas_no": "",
    "SMILES": "C(O)(=O)[C@]1(C)CCCN1",
    "meta_data": {
        "InChI": "InChI=1S/C6H11NO2/c1-6(5(8)9)3-2-4-7-6/h7H,2-4H2,1H3,(H,8,9)/t6-/m0/s1",
        "InChIKey": null,
        "Canonical SMILES": "O=C(O)C1(NCCC1)C",
        "Molecular Formula": "C<sub>6</sub>H<sub>11</sub>NO<sub>2</sub>",
        "Molecular Mass": "129.16",
        "Melting Point": "260 °C"
    }
}