{
    "cas_no": "55289-35-5",
    "key_name": "2-Bromo-6-nitrotoluene",
    "cn_name": "2-溴-6-硝基甲苯;",
    "alternate_name": "Benzene, 1-bromo-2-methyl-3-nitro-;Toluene, 2-bromo-6-nitro-;1-Bromo-2-methyl-3-nitrobenzene;2-Bromo-6-nitrotoluene;6-Bromo-2-nitrotoluene;2-Methyl-1-bromo-3-nitrobenzene;2-Nitro-6-bromotoluene",
    "duplicated_cas_no": "",
    "SMILES": "N(=O)(=O)C1=C(C)C(Br)=CC=C1",
    "meta_data": {
        "InChI": "InChI=1S/C7H6BrNO2/c1-5-6(8)3-2-4-7(5)9(10)11/h2-4H,1H3",
        "InChIKey": null,
        "Canonical SMILES": "O=N(=O)C=1C=CC=C(Br)C1C",
        "Molecular Formula": "C<sub>7</sub>H<sub>6</sub>BrNO<sub>2</sub>",
        "Molecular Mass": "216.03",
        "Boiling Point": "142-147 °C @ Press: 30 Torr",
        "Melting Point": "38 °C"
    }
}