{
    "cas_no": "107-66-4",
    "key_name": "Dibutyl phosphate",
    "cn_name": "磷酸二丁酯;磷酸二正丁酯;",
    "alternate_name": "Phosphoric acid, dibutyl ester;Butyl phosphate, (BuO)<sub>2</sub>(HO)PO;Dibutyl phosphate;Dibutyl hydrogen phosphate;Di-<em>n</em>-Butyl phosphate;Dibutyl acid phosphate;DP 4 (coupling agent);HDBP;DP 4;NSC 203039;NSC 22313;DBP",
    "duplicated_cas_no": "72283-56-8",
    "SMILES": "O(P(OCCCC)(=O)O)CCCC",
    "meta_data": {
        "InChI": "InChI=1S/C8H19O4P/c1-3-5-7-11-13(9,10)12-8-6-4-2/h3-8H2,1-2H3,(H,9,10)",
        "InChIKey": null,
        "Canonical SMILES": "O=P(O)(OCCCC)OCCCC",
        "Molecular Formula": "C<sub>8</sub>H<sub>19</sub>O<sub>4</sub>P",
        "Molecular Mass": "210.21",
        "Boiling Point": "135 °C",
        "Melting Point": "-13 °C",
        "Density": "1.06 g/cm³"
    }
}