{
    "cas_no": "102-71-6",
    "key_name": "Triethanolamine",
    "cn_name": "三乙醇胺;",
    "alternate_name": "Ethanol, 2,2′,2′′-nitrilotris-;Ethanol, 2,2′,2′′-nitrilotri-;2,2′,2′′-Nitrilotris[ethanol];2,2′,2′′-Nitrilotriethanol;Sterolamide;Triethanolamin;Daltogen;Tris(2-hydroxyethyl)amine;Trolamine;Nitrilotriethanol;Sting-Kill;Tris(β-hydroxyethyl)amine;TEA;Alkanolamine 244;TEA (amino alcohol);Triethanolamine;TEOA;<em>tris</em>-(2-Hydroxyethyl)amine;Biafine;NSC 36718;S 80 (amine);S 80;2-[Bis(2-hydroxyethyl)amino]ethanol;Tris-amino Ultra PC;Tri(2-hydroxyethyl)amine;TEA 99LFG;<em>N</em>,<em>N</em>,<em>N</em>-Tri(2-hydroxyethyl)amine;Rhenofit 3555;TEOA 99;TEA 99;Trolamine 99NF;2-[Bis(2-hydroxyethyl)amino]ethan-1-ol",
    "duplicated_cas_no": "36549-53-8;36549-54-9;36549-55-0;36659-79-7;105655-27-4;126068-67-5;464917-26-8;1199604-09-5;1429745-86-7",
    "SMILES": "N(CCO)(CCO)CCO",
    "meta_data": {
        "InChI": "InChI=1S/C6H15NO3/c8-4-1-7(2-5-9)3-6-10/h8-10H,1-6H2",
        "InChIKey": null,
        "Canonical SMILES": "OCCN(CCO)CCO",
        "Molecular Formula": "C<sub>6</sub>H<sub>15</sub>NO<sub>3</sub>",
        "Molecular Mass": "149.19",
        "Boiling Point": "335.4 °C",
        "Melting Point": "20.5 °C",
        "Density": "1.0985 g/cm³ @ Temp: 60 °C"
    }
}