{
    "cas_no": "72822-13-0",
    "key_name": "Dapiprazole hydrochloride",
    "cn_name": null,
    "alternate_name": "1,2,4-Triazolo[4,3-<em>a</em>]pyridine, 5,6,7,8-tetrahydro-3-[2-[4-(2-methylphenyl)-1-piperazinyl]ethyl]-, hydrochloride (1:1);1,2,4-Triazolo[4,3-<em>a</em>]pyridine, 5,6,7,8-tetrahydro-3-[2-[4-(2-methylphenyl)-1-piperazinyl]ethyl]-, monohydrochloride;AF 2139;Dapiprazole hydrochloride;Rev-Eyes;Reversil;Glamidolo",
    "duplicated_cas_no": "",
    "SMILES": "C(CN1CCN(CC1)C2=C(C)C=CC=C2)C=3N4C(=NN3)CCCC4.Cl",
    "meta_data": {
        "InChI": "InChI=1S/C19H27N5.ClH/c1-16-6-2-3-7-17(16)23-14-12-22(13-15-23)11-9-19-21-20-18-8-4-5-10-24(18)19;/h2-3,6-7H,4-5,8-15H2,1H3;1H",
        "InChIKey": null,
        "Canonical SMILES": "Cl.N=1N=C2N(C1CCN3CCN(C=4C=CC=CC4C)CC3)CCCC2",
        "Molecular Formula": "C<sub>19</sub>H<sub>27</sub>N<sub>5</sub>.ClH",
        "Molecular Mass": "",
        "Melting Point": "206-207 °C"
    }
}