{
    "cas_no": "133-90-4",
    "key_name": "Chloramben",
    "cn_name": "草灭畏;3-氨基-2,5-二氯苯甲酸;",
    "alternate_name": "Benzoic acid, 3-amino-2,5-dichloro-;3-Amino-2,5-dichlorobenzoic acid;Ambiben;Amibin;Amoben;Amiben;Chloramben;2,5-Dichloro-3-aminobenzoic acid;Vegiben",
    "duplicated_cas_no": "",
    "SMILES": "C(O)(=O)C1=C(Cl)C(N)=CC(Cl)=C1",
    "meta_data": {
        "InChI": "InChI=1S/C7H5Cl2NO2/c8-3-1-4(7(11)12)6(9)5(10)2-3/h1-2H,10H2,(H,11,12)",
        "InChIKey": null,
        "Canonical SMILES": "O=C(O)C=1C=C(Cl)C=C(N)C1Cl",
        "Molecular Formula": "C<sub>7</sub>H<sub>5</sub>Cl<sub>2</sub>NO<sub>2</sub>",
        "Molecular Mass": "206.03",
        "Boiling Point": "312 °C",
        "Melting Point": "200-201 °C"
    }
}