{
    "cas_no": "4347-33-5",
    "key_name": "5-Formyl-2-thiopheneboronic acid",
    "cn_name": "5-醛基-2-噻吩硼酸;5-醛基噻吩-2-硼酸;5-甲醛基噻吩-2-硼酸;",
    "alternate_name": "Boronic acid, <em>B</em>-(5-formyl-2-thienyl)-;2-Thiopheneboronic acid, 5-formyl-;Boronic acid, (5-formyl-2-thienyl)-;<em>B</em>-(5-Formyl-2-thienyl)boronic acid;5-Formyl-2-thiopheneboronic acid;(5-Formyl-2-thienyl)boronic acid;[5-(Formyl)thiophen-2-yl]boronic acid",
    "duplicated_cas_no": "",
    "SMILES": "B(O)(O)C=1SC(C=O)=CC1",
    "meta_data": {
        "InChI": "InChI=1S/C5H5BO3S/c7-3-4-1-2-5(10-4)6(8)9/h1-3,8-9H",
        "InChIKey": null,
        "Canonical SMILES": "O=CC=1SC(=CC1)B(O)O",
        "Molecular Formula": "C<sub>5</sub>H<sub>5</sub>BO<sub>3</sub>S",
        "Molecular Mass": "155.97",
        "Melting Point": "&gt;200 °C (decomp)"
    }
}