{
    "cas_no": "140-39-6",
    "key_name": "4-Methylphenyl acetate",
    "cn_name": "乙酸对甲酚酯;",
    "alternate_name": "Acetic acid, 4-methylphenyl ester;Acetic acid, <em>p</em>-tolyl ester;<em>p</em>-Cresol acetate;Narceol;<em>p</em>-Tolyl acetate;<em>p</em>-Tolyl ethanoate;<em>p</em>-Methylphenyl acetate;<em>p</em>-Acetoxytoluene;4-Methylphenyl acetate;4-Acetoxytoluene;4-Tolyl acetate;NSC 43244;NSC 65594",
    "duplicated_cas_no": "",
    "SMILES": "O(C(C)=O)C1=CC=C(C)C=C1",
    "meta_data": {
        "InChI": "InChI=1S/C9H10O2/c1-7-3-5-9(6-4-7)11-8(2)10/h3-6H,1-2H3",
        "InChIKey": null,
        "Canonical SMILES": "O=C(OC1=CC=C(C=C1)C)C",
        "Molecular Formula": "C<sub>9</sub>H<sub>10</sub>O<sub>2</sub>",
        "Molecular Mass": "150.17",
        "Boiling Point": "212.5 °C",
        "Melting Point": "48.5 °C"
    }
}