{
    "cas_no": "23786-13-2",
    "key_name": "Benzeneacetic acid, 4-methyl-, methyl ester",
    "cn_name": "对甲苯乙酸甲酯;",
    "alternate_name": "Benzeneacetic acid, 4-methyl-, methyl ester;Acetic acid, <em>p</em>-tolyl-, methyl ester;<em>p</em>-Tolylacetic acid methyl ester;Methyl 4-methylbenzeneacetate;Methyl (<em>p</em>-methylphenyl)acetate;Methyl <em>p</em>-tolylacetate;(4-Methylphenyl)acetic acid methyl ester;Methyl (4-methylphenyl)acetate;Methyl 2-(4-methylphenyl)acetate",
    "duplicated_cas_no": "",
    "SMILES": "C(C(OC)=O)C1=CC=C(C)C=C1",
    "meta_data": {
        "InChI": "InChI=1S/C10H12O2/c1-8-3-5-9(6-4-8)7-10(11)12-2/h3-6H,7H2,1-2H3",
        "InChIKey": null,
        "Canonical SMILES": "O=C(OC)CC1=CC=C(C=C1)C",
        "Molecular Formula": "C<sub>10</sub>H<sub>12</sub>O<sub>2</sub>",
        "Molecular Mass": "164.20",
        "Boiling Point": "76-78 °C @ Press: 0.3 Torr",
        "Melting Point": "60-60.5 °C"
    }
}