{
    "cas_no": "1011-74-1",
    "key_name": "(±)-Normetanephrine hydrochloride",
    "cn_name": "DL-去甲变肾上腺素盐酸盐;",
    "alternate_name": "Benzenemethanol, α-(aminomethyl)-4-hydroxy-3-methoxy-, hydrochloride (1:1);Vanillyl alcohol, α-(aminomethyl)-, hydrochloride, (±)-;Benzenemethanol, α-(aminomethyl)-4-hydroxy-3-methoxy-, hydrochloride, (±)-;Benzenemethanol, α-(aminomethyl)-4-hydroxy-3-methoxy-, hydrochloride;(±)-Normetanephrine hydrochloride;<em>dl</em>-Normetanephrine hydrochloride;<span class=\"text-smallcaps\">DL</span>-Normetanephrine hydrochloride;Normetadrenaline hydrochloride;Normetanephrine hydrochloride;(±)-α-(Aminomethyl)-4-hydroxy-3-methoxybenzyl alcohol hydrochloride",
    "duplicated_cas_no": "13015-71-9",
    "SMILES": "C(CN)(O)C1=CC(OC)=C(O)C=C1.Cl",
    "meta_data": {
        "InChI": "InChI=1S/C9H13NO3.ClH/c1-13-9-4-6(8(12)5-10)2-3-7(9)11;/h2-4,8,11-12H,5,10H2,1H3;1H",
        "InChIKey": null,
        "Canonical SMILES": "Cl.OC1=CC=C(C=C1OC)C(O)CN",
        "Molecular Formula": "C<sub>9</sub>H<sub>13</sub>NO<sub>3</sub>.ClH",
        "Molecular Mass": "",
        "Melting Point": "192-193 °C"
    }
}