{
    "cas_no": "873-50-7",
    "key_name": "1-Carbamoyl-3-methylpyrazole",
    "cn_name": "3-甲基吡唑-1-氨甲酰胺;3-甲基吡唑-1-氨甲酰胺;",
    "alternate_name": "1<em>H</em>-Pyrazole-1-carboxamide, 3-methyl-;Pyrazole-1-carboxamide, 3-methyl-;3-Methyl-1<em>H</em>-pyrazole-1-carboxamide;3-Methylpyrazole-1-carboxamide;1-Carbamoyl-3-methylpyrazole;NSC 51116;NSC 75630;3-Methyl-pyrazole-1-carboxylic acid amide",
    "duplicated_cas_no": "",
    "SMILES": "C(N)(=O)N1N=C(C)C=C1",
    "meta_data": {
        "InChI": "InChI=1S/C5H7N3O/c1-4-2-3-8(7-4)5(6)9/h2-3H,1H3,(H2,6,9)",
        "InChIKey": null,
        "Canonical SMILES": "O=C(N)N1N=C(C=C1)C",
        "Molecular Formula": "C<sub>5</sub>H<sub>7</sub>N<sub>3</sub>O",
        "Molecular Mass": "125.13",
        "Melting Point": "127-128 °C"
    }
}