{
    "cas_no": "421-07-8",
    "key_name": "1,1,1-Trifluoropropane",
    "cn_name": "1,1,1-三氟丙烷;1,1,1-三氟丙烷;",
    "alternate_name": "Propane, 1,1,1-trifluoro-;1,1,1-Trifluoropropane;R 263fb;HFC 263fb",
    "duplicated_cas_no": "",
    "SMILES": "C(CC)(F)(F)F",
    "meta_data": {
        "InChI": "InChI=1S/C3H5F3/c1-2-3(4,5)6/h2H2,1H3",
        "InChIKey": null,
        "Canonical SMILES": "FC(F)(F)CC",
        "Molecular Formula": "C<sub>3</sub>H<sub>5</sub>F<sub>3</sub>",
        "Molecular Mass": "98.07",
        "Boiling Point": "-13 °C",
        "Melting Point": "-148 °C"
    }
}