{
    "cas_no": "1798-83-0",
    "key_name": "1-Propanone, 1-(4-chlorophenyl)-3-(dimethylamino)-, hydrochloride (1:1)",
    "cn_name": null,
    "alternate_name": "1-Propanone, 1-(4-chlorophenyl)-3-(dimethylamino)-, hydrochloride (1:1);Propiophenone, 4′-chloro-3-(dimethylamino)-, hydrochloride;1-Propanone, 1-(4-chlorophenyl)-3-(dimethylamino)-, hydrochloride;4′-Chloro-3-(dimethylamino)propiophenone hydrochloride;NSC 692749;1-(4-Chlorophenyl)-3-dimethylaminopropan-1-one hydrochloride",
    "duplicated_cas_no": "",
    "SMILES": "C(CCN(C)C)(=O)C1=CC=C(Cl)C=C1.Cl",
    "meta_data": {
        "InChI": "InChI=1S/C11H14ClNO.ClH/c1-13(2)8-7-11(14)9-3-5-10(12)6-4-9;/h3-6H,7-8H2,1-2H3;1H",
        "InChIKey": null,
        "Canonical SMILES": "Cl.O=C(C1=CC=C(Cl)C=C1)CCN(C)C",
        "Molecular Formula": "C<sub>11</sub>H<sub>14</sub>ClNO.ClH",
        "Molecular Mass": "",
        "Melting Point": "174-175 °C"
    }
}