{
    "cas_no": "22118-12-3",
    "key_name": "2-Bromobutanoyl chloride",
    "cn_name": null,
    "alternate_name": "Butanoyl chloride, 2-bromo-;Butyryl chloride, 2-bromo-;2-Bromobutanoyl chloride;2-Bromobutyryl chloride;α-Bromobutyryl chloride",
    "duplicated_cas_no": "38188-35-1",
    "SMILES": "C(C(Cl)=O)(CC)Br",
    "meta_data": {
        "InChI": "InChI=1S/C4H6BrClO/c1-2-3(5)4(6)7/h3H,2H2,1H3",
        "InChIKey": null,
        "Canonical SMILES": "O=C(Cl)C(Br)CC",
        "Molecular Formula": "C<sub>4</sub>H<sub>6</sub>BrClO",
        "Molecular Mass": "185.45",
        "Boiling Point": "151 °C",
        "Density": "1.5320 g/cm³ @ Temp: 20 °C"
    }
}