{
    "cas_no": "1072-85-1",
    "key_name": "1-Bromo-2-fluorobenzene",
    "cn_name": "邻溴氟苯;2-氟溴苯;1-溴-2-氟苯;",
    "alternate_name": "Benzene, 1-bromo-2-fluoro-;1-Bromo-2-fluorobenzene;<em>o</em>-Fluorobromobenzene;1-Fluoro-2-bromobenzene;<em>o</em>-Bromofluorobenzene;2-Bromofluorobenzene;2-Fluorobromobenzene;2-Bromophenyl fluoride;NSC 59696;2-Bromo-1-fluorobenzene;2-Fluorophenyl bromide;2-Fluoro-1-bromobenzene",
    "duplicated_cas_no": "",
    "SMILES": "BrC1=C(F)C=CC=C1",
    "meta_data": {
        "InChI": "InChI=1S/C6H4BrF/c7-5-3-1-2-4-6(5)8/h1-4H",
        "InChIKey": null,
        "Canonical SMILES": "FC=1C=CC=CC1Br",
        "Molecular Formula": "C<sub>6</sub>H<sub>4</sub>BrF",
        "Molecular Mass": "175.00",
        "Boiling Point": "151 °C @ Press: 755 Torr",
        "Density": "1.6046 g/cm³ @ Temp: 25.00 °C"
    }
}