{
    "cas_no": "3430-16-8",
    "key_name": "3-Bromo-5-methylpyridine",
    "cn_name": "3-溴-5-甲基吡啶;",
    "alternate_name": "Pyridine, 3-bromo-5-methyl-;3-Picoline, 5-bromo-;3-Bromo-5-methylpyridine;5-Bromo-3-methylpyridine;5-Bromo-3-picoline",
    "duplicated_cas_no": "",
    "SMILES": "BrC=1C=C(C)C=NC1",
    "meta_data": {
        "InChI": "InChI=1S/C6H6BrN/c1-5-2-6(7)4-8-3-5/h2-4H,1H3",
        "InChIKey": null,
        "Canonical SMILES": "BrC1=CN=CC(=C1)C",
        "Molecular Formula": "C<sub>6</sub>H<sub>6</sub>BrN",
        "Molecular Mass": "172.02",
        "Melting Point": "16.5-16.7 °C"
    }
}