{
    "cas_no": "10606-42-5",
    "key_name": "Ethyl 3-methoxypropanoate",
    "cn_name": null,
    "alternate_name": "Propanoic acid, 3-methoxy-, ethyl ester;Propionic acid, 3-methoxy-, ethyl ester;Ethyl 3-methoxypropanoate;Ethyl 3-methoxypropionate;β-Methoxypropionic acid ethyl ester",
    "duplicated_cas_no": "",
    "SMILES": "C(CCOC)(OCC)=O",
    "meta_data": {
        "InChI": "InChI=1S/C6H12O3/c1-3-9-6(7)4-5-8-2/h3-5H2,1-2H3",
        "InChIKey": null,
        "Canonical SMILES": "O=C(OCC)CCOC",
        "Molecular Formula": "C<sub>6</sub>H<sub>12</sub>O<sub>3</sub>",
        "Molecular Mass": "132.16",
        "Boiling Point": "60 °C @ Press: 20 Torr",
        "Density": "0.9754 g/cm³ @ Temp: 20 °C"
    }
}