{
    "cas_no": "3088-42-4",
    "key_name": "<em>N</em>-(2-Cyanoethyl)glycine",
    "cn_name": "N-(&beta;-氰乙基)甘氨酸;N-(2-氰乙基)甘氨酸;",
    "alternate_name": "Glycine, <em>N</em>-(2-cyanoethyl)-;<em>N</em>-(2-Cyanoethyl)glycine;α-(β′-Cyanoethyl)aminoacetic acid;NSC 11804;NSC 133475;2-(2-Cyanoethylamino)acetic acid",
    "duplicated_cas_no": "517863-87-5",
    "SMILES": "N(CC(O)=O)CCC#N",
    "meta_data": {
        "InChI": "InChI=1S/C5H8N2O2/c6-2-1-3-7-4-5(8)9/h7H,1,3-4H2,(H,8,9)",
        "InChIKey": null,
        "Canonical SMILES": "N#CCCNCC(=O)O",
        "Molecular Formula": "C<sub>5</sub>H<sub>8</sub>N<sub>2</sub>O<sub>2</sub>",
        "Molecular Mass": "128.13",
        "Melting Point": "190-191 °C"
    }
}