{
    "cas_no": "4839-46-7",
    "key_name": "3,3-Dimethylglutaric acid",
    "cn_name": "3,3-二甲基戊二酸;",
    "alternate_name": "Pentanedioic acid, 3,3-dimethyl-;Glutaric acid, 3,3-dimethyl-;Glutaric acid, β,β-dimethyl-;3,3-Dimethylpentanedioic acid;3,3-Dimethylglutaric acid;β,β-Dimethylglutaric acid;NSC 14987;NSC 49114",
    "duplicated_cas_no": "",
    "SMILES": "C(C(CC(O)=O)(C)C)C(O)=O",
    "meta_data": {
        "InChI": "InChI=1S/C7H12O4/c1-7(2,3-5(8)9)4-6(10)11/h3-4H2,1-2H3,(H,8,9)(H,10,11)",
        "InChIKey": null,
        "Canonical SMILES": "O=C(O)CC(C)(C)CC(=O)O",
        "Molecular Formula": "C<sub>7</sub>H<sub>12</sub>O<sub>4</sub>",
        "Molecular Mass": "160.17",
        "Boiling Point": "114-115 °C @ Press: 1 Torr",
        "Melting Point": "103.5 °C"
    }
}