{
    "cas_no": "118-83-2",
    "key_name": "5-Chloro-2-nitrobenzotrifluoride",
    "cn_name": "5-氯-2-硝基三氟甲苯;",
    "alternate_name": "Benzene, 4-chloro-1-nitro-2-(trifluoromethyl)-;Toluene, 5-chloro-α,α,α-trifluoro-2-nitro-;4-Chloro-1-nitro-2-(trifluoromethyl)benzene;4-Chloro-2-(trifluoromethyl)nitrobenzene;5-Chloro-2-nitrobenzotrifluoride;5-Chloro-2-nitro(trifluoromethyl)benzene;5-Chloro-2-nitro-1-(trifluoromethyl)benzene;5-Chloro-α,α,α-trifluoro-2-nitrotoluene;2-Nitro-5-chlorobenzotrifluoride;4-Nitro-3-trifluoromethyl-1-chlorobenzene",
    "duplicated_cas_no": "",
    "SMILES": "C(F)(F)(F)C1=C(N(=O)=O)C=CC(Cl)=C1",
    "meta_data": {
        "InChI": "InChI=1S/C7H3ClF3NO2/c8-4-1-2-6(12(13)14)5(3-4)7(9,10)11/h1-3H",
        "InChIKey": null,
        "Canonical SMILES": "O=N(=O)C1=CC=C(Cl)C=C1C(F)(F)F",
        "Molecular Formula": "C<sub>7</sub>H<sub>3</sub>ClF<sub>3</sub>NO<sub>2</sub>",
        "Molecular Mass": "225.55",
        "Boiling Point": "224 °C @ Press: 760 Torr",
        "Melting Point": "21-22 °C"
    }
}