{
    "cas_no": "21964-49-8",
    "key_name": "1,13-Tetradecadiene",
    "cn_name": null,
    "alternate_name": "1,13-Tetradecadiene",
    "duplicated_cas_no": "",
    "SMILES": "C(CCCCCC=C)CCCCC=C",
    "meta_data": {
        "InChI": "InChI=1S/C14H26/c1-3-5-7-9-11-13-14-12-10-8-6-4-2/h3-4H,1-2,5-14H2",
        "InChIKey": null,
        "Canonical SMILES": "C=CCCCCCCCCCCC=C",
        "Molecular Formula": "C<sub>14</sub>H<sub>26</sub>",
        "Molecular Mass": "194.36",
        "Boiling Point": "129-133 °C @ Press: 12 Torr",
        "Density": "0.8486 g/cm³ @ Temp: 19 °C"
    }
}