{
    "cas_no": "6091-64-1",
    "key_name": "Ethyl 2-bromobenzoate",
    "cn_name": "2-溴苯甲酸乙酯;邻溴苯甲酸乙酯;",
    "alternate_name": "Benzoic acid, 2-bromo-, ethyl ester;Benzoic acid, <em>o</em>-bromo-, ethyl ester;Ethyl <em>o</em>-bromobenzoate;Ethyl 2-bromobenzoate;<em>o</em>-(Ethoxycarbonyl)phenyl bromide;<em>o</em>-Bromobenzoic acid ethyl ester;2-Bromobenzoic acid ethyl ester;NSC 10122",
    "duplicated_cas_no": "",
    "SMILES": "C(OCC)(=O)C1=C(Br)C=CC=C1",
    "meta_data": {
        "InChI": "InChI=1S/C9H9BrO2/c1-2-12-9(11)7-5-3-4-6-8(7)10/h3-6H,2H2,1H3",
        "InChIKey": null,
        "Canonical SMILES": "O=C(OCC)C=1C=CC=CC1Br",
        "Molecular Formula": "C<sub>9</sub>H<sub>9</sub>BrO<sub>2</sub>",
        "Molecular Mass": "229.07",
        "Boiling Point": "254.5 °C"
    }
}