{
    "cas_no": "3864-99-1",
    "key_name": "UV 327",
    "cn_name": "紫外线吸收剂UV-327;2-(2\"-羟基-3\",5\"-二叔丁基苯基)-5-氯代苯并三唑;",
    "alternate_name": "Phenol, 2-(5-chloro-2<em>H</em>-benzotriazol-2-yl)-4,6-bis(1,1-dimethylethyl)-;Phenol, 2,4-di-<em>tert</em>-butyl-6-(5-chloro-2<em>H</em>-benzotriazol-2-yl)-;2-(5-Chloro-2<em>H</em>-benzotriazol-2-yl)-4,6-bis(1,1-dimethylethyl)phenol;2-(3,5-Di-<em>tert</em>-butyl-2-hydroxyphenyl)-5-chlorobenzotriazole;2-(2′-Hydroxy-3′,5′-di-<em>tert</em>-butylphenyl)-5-chlorobenzotriazole;Tinuvin 327;2-(2-Hydroxy-3,5-di-<em>tert</em>-butylphenyl)-5-chlorobenzotriazole;2-(3,5-Di-<em>tert</em>-butyl-2-hydroxyphenyl)-5-chloro-2<em>H</em>-benzotriazole;2-(2-Hydroxy-3,5-di-<em>tert</em>-butylphenyl)-5-chloro-2<em>H</em>-benzotriazole;2,4-Di-<em>tert</em>-butyl-6-(5-chloro-2<em>H</em>-benzotriazol-2-yl)phenol;5-Chloro-2-(2-hydroxy-3,5-di-<em>tert</em>-butylphenyl)benzotriazole;5-Chloro-2-(3,5-di-<em>tert</em>-butyl-2-hydroxyphenyl)benzotriazole;5-Chloro-2-(3′,5′-di-<em>tert</em>-butyl-2′-hydroxyphenyl)benzotriazole;UV 2;5-Chloro-2-(3,5-di-<em>tert</em>-butyl-2-hydroxyphenyl)-2<em>H</em>-benzotriazole;UV 327;UV-Chek AM 607;Viosorb 580;Kemisorb 72;LA 34;ADK Stab LA 34;5-Chloro-2-(2-hydroxy-3,5-di-<em>tert</em>-butylphenyl)-2<em>H</em>-benzotriazole;Cyasorb UV 5357;2-(3′,5′-Di-<em>tert</em>-butyl-2′-hydroxyphenyl)-5-chlorobenzotriazole;Seesorb 702;UV 2 (UV stabilizer);Hisorp 327;2,4-Di-<em>tert</em>-butyl-6-(5-chlorobenzotriazol-2-yl)phenol;TNV 327;Mark LA 34;Lowilite 27;Eversorb 75;Hisorb 327;Antioxidant 327;Songsorb 3270;2,4-Di-(<em>tert</em>-butyl)-6-(5-chloro-2<em>H</em>-benzo[<em>d</em>][1,2,3]triazol-2-yl)phenol;Chiguard 327;UVP 327;Light stabilizer 327;Sunsorb 327;2,4-Ditert-butyl-6-(5-chlorobenzotriazol-2-yl)phenol;T 327;Chemsorb 327",
    "duplicated_cas_no": "60712-40-5;102257-29-4;106085-69-2;114625-87-5;153613-74-2;188025-33-4;189456-66-4;659718-57-7;796971-90-9;1350838-92-4;1399293-74-3",
    "SMILES": "OC1=C(N2N=C3C(=N2)C=C(Cl)C=C3)C=C(C(C)(C)C)C=C1C(C)(C)C",
    "meta_data": {
        "InChI": "InChI=1S/C20H24ClN3O/c1-19(2,3)12-9-14(20(4,5)6)18(25)17(10-12)24-22-15-8-7-13(21)11-16(15)23-24/h7-11,25H,1-6H3",
        "InChIKey": null,
        "Canonical SMILES": "ClC=1C=CC2=NN(N=C2C1)C3=CC(=CC(=C3O)C(C)(C)C)C(C)(C)C",
        "Molecular Formula": "C<sub>20</sub>H<sub>24</sub>ClN<sub>3</sub>O",
        "Molecular Mass": "357.88",
        "Melting Point": "147.6-148.8 °C"
    }
}