{
    "cas_no": "62014-87-3",
    "key_name": "Helichrysetin",
    "cn_name": null,
    "alternate_name": "2-Propen-1-one, 1-(2,4-dihydroxy-6-methoxyphenyl)-3-(4-hydroxyphenyl)-, (2<em>E</em>)-;2-Propen-1-one, 1-(2,4-dihydroxy-6-methoxyphenyl)-3-(4-hydroxyphenyl)-, (<em>E</em>)-;(2<em>E</em>)-1-(2,4-Dihydroxy-6-methoxyphenyl)-3-(4-hydroxyphenyl)-2-propen-1-one;Helichrysetin;4,2′,4′-Trihydroxy-6′-methoxychalcone",
    "duplicated_cas_no": "",
    "SMILES": "C(/C=C/C1=CC=C(O)C=C1)(=O)C2=C(OC)C=C(O)C=C2O",
    "meta_data": {
        "InChI": "InChI=1S/C16H14O5/c1-21-15-9-12(18)8-14(20)16(15)13(19)7-4-10-2-5-11(17)6-3-10/h2-9,17-18,20H,1H3/b7-4+",
        "InChIKey": null,
        "Canonical SMILES": "O=C(C=CC1=CC=C(O)C=C1)C=2C(O)=CC(O)=CC2OC",
        "Molecular Formula": "C<sub>16</sub>H<sub>14</sub>O<sub>5</sub>",
        "Molecular Mass": "286.28",
        "Melting Point": "220 °C (decomp)"
    }
}