{
    "cas_no": "14114-46-6",
    "key_name": "3,7-Dimethyl-1-propargylxanthine",
    "cn_name": null,
    "alternate_name": "1<em>H</em>-Purine-2,6-dione, 3,7-dihydro-3,7-dimethyl-1-(2-propyn-1-yl)-;Theobromine, 1-(2-propynyl)-;1<em>H</em>-Purine-2,6-dione, 3,7-dihydro-3,7-dimethyl-1-(2-propynyl)-;3,7-Dihydro-3,7-dimethyl-1-(2-propyn-1-yl)-1<em>H</em>-purine-2,6-dione;3,7-Dimethyl-1-propargylxanthine;DMPX;NSC 242985;1-Propargyl 3,7-Dimethylxanthine;3,7-Dimethyl-1-(prop-2-yn-1-yl)-2,3,6,7-tetrahydro-1<em>H</em>-purine-2,6-dione;3,7-Dimethyl-1-(prop-2-yn-1-yl)-1<em>H</em>-purine-2,6(3<em>H</em>,7<em>H</em>)-dione;3,7-Dihydro-3,7-dimethyl-1-(2-propynyl)-1<em>H</em>-purine-2,6-dione;3,7-Dimethyl-1-prop-2-ynylpurine-2,6-dione",
    "duplicated_cas_no": "",
    "SMILES": "O=C1C2=C(N(C)C(=O)N1CC#C)N=CN2C",
    "meta_data": {
        "InChI": "InChI=1S/C10H10N4O2/c1-4-5-14-9(15)7-8(11-6-12(7)2)13(3)10(14)16/h1,6H,5H2,2-3H3",
        "InChIKey": null,
        "Canonical SMILES": "O=C1C2=C(N=CN2C)N(C(=O)N1CC#C)C",
        "Molecular Formula": "C<sub>10</sub>H<sub>10</sub>N<sub>4</sub>O<sub>2</sub>",
        "Molecular Mass": "218.21",
        "Melting Point": "207 °C"
    }
}