{
    "cas_no": "105601-04-5",
    "key_name": "3-[1-(Dimethylamino)ethyl]phenol",
    "cn_name": "3-[1-(二甲基氨基)乙基]苯酚;二甲基氨基乙基苯酚;",
    "alternate_name": "Phenol, 3-[1-(dimethylamino)ethyl]-;3-[1-(Dimethylamino)ethyl]phenol;ZNS 114-666",
    "duplicated_cas_no": "",
    "SMILES": "C(N(C)C)(C)C1=CC(O)=CC=C1",
    "meta_data": {
        "InChI": "InChI=1S/C10H15NO/c1-8(11(2)3)9-5-4-6-10(12)7-9/h4-8,12H,1-3H3",
        "InChIKey": null,
        "Canonical SMILES": "OC1=CC=CC(=C1)C(N(C)C)C",
        "Molecular Formula": "C<sub>10</sub>H<sub>15</sub>NO",
        "Molecular Mass": "165.23",
        "Melting Point": "87-88 °C"
    }
}