{
    "cas_no": "124-48-1",
    "key_name": "Dibromochloromethane",
    "cn_name": "氯二溴甲烷;二溴氯甲烷;一氯二溴甲烷;氯代二溴甲烷;",
    "alternate_name": "Methane, dibromochloro-;Dibromochloromethane;Chlorodibromomethane;Monochlorodibromomethane;Dibromomonochloromethane;DBCM",
    "duplicated_cas_no": "",
    "SMILES": "C(Br)(Br)Cl",
    "meta_data": {
        "InChI": "InChI=1S/CHBr2Cl/c2-1(3)4/h1H",
        "InChIKey": null,
        "Canonical SMILES": "ClC(Br)Br",
        "Molecular Formula": "CHBr<sub>2</sub>Cl",
        "Molecular Mass": "208.28",
        "Boiling Point": "120 °C",
        "Melting Point": "-20 °C",
        "Density": "2.38 g/cm³"
    }
}