{
    "cas_no": "25700-11-2",
    "key_name": "2-(1<em>H</em>-Pyrazol-1-yl)pyridine",
    "cn_name": null,
    "alternate_name": "Pyridine, 2-(1<em>H</em>-pyrazol-1-yl)-;Pyridine, 2-pyrazol-1-yl-;2-(1<em>H</em>-Pyrazol-1-yl)pyridine;2-(Pyrazol-1-yl)pyridine;1-(2-Pyridyl)-1<em>H</em>-pyrazole;1-(Pyridin-2-yl)-1<em>H</em>-pyrazole;1-(2-Pyridyl)pyrazole",
    "duplicated_cas_no": "",
    "SMILES": "N1(C=CC=N1)C2=CC=CC=N2",
    "meta_data": {
        "InChI": "InChI=1S/C8H7N3/c1-2-5-9-8(4-1)11-7-3-6-10-11/h1-7H",
        "InChIKey": null,
        "Canonical SMILES": "N=1C=CC=CC1N2N=CC=C2",
        "Molecular Formula": "C<sub>8</sub>H<sub>7</sub>N<sub>3</sub>",
        "Molecular Mass": "145.16",
        "Melting Point": "&lt;50 °C"
    }
}