{
    "cas_no": "1573-17-7",
    "key_name": "2-Butyne-1,4-diol, 1,4-diacetate",
    "cn_name": "1,4-二乙酰氧基-2-丁炔;1,4-二乙酰氧基-2-丁炔;1,4-二乙酰氧基-2-丁炔,98%;",
    "alternate_name": "2-Butyne-1,4-diol, 1,4-diacetate;2-Butyne-1,4-diol, diacetate;1,4-Diacetoxy-2-butyne;NSC 76565;2-Butyne-1,4-diyl diacetate;2-Butyn-1,4-diol diacetate",
    "duplicated_cas_no": "",
    "SMILES": "C(OC(C)=O)C#CCOC(C)=O",
    "meta_data": {
        "InChI": "InChI=1S/C8H10O4/c1-7(9)11-5-3-4-6-12-8(2)10/h5-6H2,1-2H3",
        "InChIKey": null,
        "Canonical SMILES": "O=C(OCC#CCOC(=O)C)C",
        "Molecular Formula": "C<sub>8</sub>H<sub>10</sub>O<sub>4</sub>",
        "Molecular Mass": "170.16",
        "Boiling Point": "135 °C @ Press: 17 Torr",
        "Melting Point": "29.5-30 °C",
        "Density": "1.1223 g/cm³ @ Temp: 25 °C"
    }
}