{
    "cas_no": "29841-69-8",
    "key_name": "(-)-(<em>S</em>,<em>S</em>)-1,2-Diphenylethylenediamine",
    "cn_name": "(1S,2S)-1,2-二苯基乙二胺;",
    "alternate_name": "1,2-Ethanediamine, 1,2-diphenyl-, (1<em>S</em>,2<em>S</em>)-;Ethylenediamine, 1,2-diphenyl-, (1<em>S</em>,2<em>S</em>)-(-)-;1,2-Ethanediamine, 1,2-diphenyl-, [<em>S</em>-(<em>R</em>*,<em>R</em>*)]-;(1<em>S</em>,2<em>S</em>)-1,2-Diphenyl-1,2-ethanediamine;(-)-Stilbenediamine;(<em>S</em>,<em>S</em>)-1,2-Diphenylethylenediamine;(<em>S</em>,<em>S</em>)-Stilbenediamine;(<em>S</em>,<em>S</em>)-1,2-Diphenyl-1,2-ethanediamine;(1<em>S</em>,2<em>S</em>)-Diphenyl-1,2-diaminoethane;(-)-1,2-Diphenylethylenediamine;(<em>S</em>,<em>S</em>)-(-)-1,2-Diphenylethylenediamine;(1<em>S</em>,2<em>S</em>)-(-)-1,2-Diphenylethylenediamine;(1<em>S</em>,2<em>S</em>)-1,2-Diphenyl-1,2-diaminoethane;(1<em>S</em>,2<em>S</em>)-1,2-Diphenylethylenediamine;(<em>S</em>,<em>S</em>)-1,2-Diamino-1,2-diphenylethane;(1<em>S</em>,2<em>S</em>)-Diphenylethanediamine;(<em>S</em>,<em>S</em>)-1,2-Diphenyl-1,2-diaminoethane;1,2-(<em>S</em>,<em>S</em>)-Diamino-1,2-diphenylethane;(-)-(<em>S</em>,<em>S</em>)-1,2-Diphenylethylenediamine;(1S,2S)-(-)-1,2-Diphenylethylenediamine;((1<em>S</em>,2<em>S</em>)-2-Amino-1,2-diphenylethyl)amine;(<em>S</em>,<em>S</em>)-1,2-Diphenylethylene-1,2-diamine;(1<em>S</em>,2<em>S</em>)-1,2-Diamino-1,2-diphenylethane;(1S,2S)-1,2-Diphenylethan-1,2-diamine;(1S,2S)-1,2-Diphenylethylendiamine;(1S,2S)-(-)-1,2-Diphenyl-1,2-ethylenediamine",
    "duplicated_cas_no": "",
    "SMILES": "[C@H]([C@@H](N)C1=CC=CC=C1)(N)C2=CC=CC=C2",
    "meta_data": {
        "InChI": "InChI=1S/C14H16N2/c15-13(11-7-3-1-4-8-11)14(16)12-9-5-2-6-10-12/h1-10,13-14H,15-16H2/t13-,14-/m0/s1",
        "InChIKey": null,
        "Canonical SMILES": "NC(C=1C=CC=CC1)C(N)C=2C=CC=CC2",
        "Molecular Formula": "C<sub>14</sub>H<sub>16</sub>N<sub>2</sub>",
        "Molecular Mass": "212.29",
        "Melting Point": "82-84 °C"
    }
}