{
    "cas_no": "399-67-7",
    "key_name": "7-Fluoro-1<em>H</em>-indole-2-carboxylic acid",
    "cn_name": null,
    "alternate_name": "1<em>H</em>-Indole-2-carboxylic acid, 7-fluoro-;Indole-2-carboxylic acid, 7-fluoro-;7-Fluoro-1<em>H</em>-indole-2-carboxylic acid",
    "duplicated_cas_no": "",
    "SMILES": "FC1=C2C(C=C(C(O)=O)N2)=CC=C1",
    "meta_data": {
        "InChI": "InChI=1S/C9H6FNO2/c10-6-3-1-2-5-4-7(9(12)13)11-8(5)6/h1-4,11H,(H,12,13)",
        "InChIKey": null,
        "Canonical SMILES": "O=C(O)C1=CC=2C=CC=C(F)C2N1",
        "Molecular Formula": "C<sub>9</sub>H<sub>6</sub>FNO<sub>2</sub>",
        "Molecular Mass": "179.15",
        "Melting Point": "198 °C (decomp)"
    }
}