{
    "cas_no": "461-87-0",
    "key_name": "2-Fluoro-4-methylpyridine",
    "cn_name": "2-氟-4-甲基吡啶;",
    "alternate_name": "Pyridine, 2-fluoro-4-methyl-;4-Picoline, 2-fluoro-;2-Fluoro-4-methylpyridine;2-Fluoro-4-picoline",
    "duplicated_cas_no": "",
    "SMILES": "CC=1C=C(F)N=CC1",
    "meta_data": {
        "InChI": "InChI=1S/C6H6FN/c1-5-2-3-8-6(7)4-5/h2-4H,1H3",
        "InChIKey": null,
        "Canonical SMILES": "FC1=NC=CC(=C1)C",
        "Molecular Formula": "C<sub>6</sub>H<sub>6</sub>FN",
        "Molecular Mass": "111.12",
        "Boiling Point": "157 °C",
        "Density": "1.0805 g/cm³"
    }
}