{
    "cas_no": "3685-26-5",
    "key_name": "<em>trans</em>-4-Hydroxycyclohexanecarboxylic acid",
    "cn_name": "反式-4-羟基环己烷羧酸;反式-4-羟基环己烷羧酸;",
    "alternate_name": "Cyclohexanecarboxylic acid, 4-hydroxy-, <em>trans</em>-;<em>trans</em>-4-Hydroxycyclohexanecarboxylic acid;<em>trans</em>-4-Hydroxycyclohexylcarboxylic acid;(1r,2r)-4-Hydroxycyclohexan-1-carboxylic acid",
    "duplicated_cas_no": "",
    "SMILES": "C(O)(=O)[C@H]1CC[C@H](O)CC1",
    "meta_data": {
        "InChI": "InChI=1/C7H12O3/c8-6-3-1-5(2-4-6)7(9)10/h5-6,8H,1-4H2,(H,9,10)/t5-,6-",
        "InChIKey": null,
        "Canonical SMILES": "O=C(O)C1CCC(O)CC1",
        "Molecular Formula": "C<sub>7</sub>H<sub>12</sub>O<sub>3</sub>",
        "Molecular Mass": "144.17",
        "Melting Point": "120 °C"
    }
}