{
    "cas_no": "94-86-0",
    "key_name": "Propenylguaethol",
    "cn_name": "浓馥香兰素;6-乙氧基-3-丙烯基苯酚;2-乙氧基-5-(1-丙烯基)苯酚 ;1-乙氧基-2-羟基-4-异丙烯苯;",
    "alternate_name": "Phenol, 2-ethoxy-5-(1-propen-1-yl)-;Phenol, 2-ethoxy-5-propenyl-;Phenol, 2-ethoxy-5-(1-propenyl)-;<em>m</em>-Anol, 6-ethoxy-;2-Ethoxy-5-(1-propen-1-yl)phenol;6-Ethoxy-<em>m</em>-anol;1-Ethoxy-2-hydroxy-4-propenylbenzene;2-Ethoxy-5-propenylphenol;Hydroxy methyl anethol;Propenylguaethol;Isosafroeugenol;Vanitrope;NSC 5194;5-Propenylguaethol;Propenylguaetol;2-Ethoxy-5-prop-1-enylphenol",
    "duplicated_cas_no": "",
    "SMILES": "O(CC)C1=C(O)C=C(C=CC)C=C1",
    "meta_data": {
        "InChI": "InChI=1S/C11H14O2/c1-3-5-9-6-7-11(13-4-2)10(12)8-9/h3,5-8,12H,4H2,1-2H3",
        "InChIKey": null,
        "Canonical SMILES": "OC1=CC(=CC=C1OCC)C=CC",
        "Molecular Formula": "C<sub>11</sub>H<sub>14</sub>O<sub>2</sub>",
        "Molecular Mass": "178.23",
        "Melting Point": "86 °C"
    }
}