{
    "cas_no": "4992-63-6",
    "key_name": "1,2-Diethoxy-4-nitrobenzene",
    "cn_name": null,
    "alternate_name": "Benzene, 1,2-diethoxy-4-nitro-;1,2-Diethoxy-4-nitrobenzene;1,2-Ethoxy-4-nitrobenzene;3,4-Diethoxynitrobenzene",
    "duplicated_cas_no": "",
    "SMILES": "O(CC)C1=C(OCC)C=CC(N(=O)=O)=C1",
    "meta_data": {
        "InChI": "InChI=1S/C10H13NO4/c1-3-14-9-6-5-8(11(12)13)7-10(9)15-4-2/h5-7H,3-4H2,1-2H3",
        "InChIKey": null,
        "Canonical SMILES": "O=N(=O)C1=CC=C(OCC)C(OCC)=C1",
        "Molecular Formula": "C<sub>10</sub>H<sub>13</sub>NO<sub>4</sub>",
        "Molecular Mass": "211.21",
        "Melting Point": "75 °C"
    }
}