{
    "cas_no": "586-70-9",
    "key_name": "1-(4-Methylphenyl)ethylamine",
    "cn_name": "1-(4-甲苯基)乙胺;",
    "alternate_name": "Benzenemethanamine, α,4-dimethyl-;Benzylamine, <em>p</em>,α-dimethyl-;α,4-Dimethylbenzenemethanamine;<em>p</em>-Methyl-α-phenylethylamine;(<em>RS</em>)-α,4-Dimethylbenzylamine;(±)-<em>p</em>-Methyl-α-phenylethylamine;(±)-1-(<em>p</em>-Tolyl)ethylamine;α-<em>p</em>-Tolylethylamine;1-(<em>p</em>-Methylphenyl)ethylamine;1-(4-Methylphenyl)ethylamine;1-(<em>p</em>-Tolyl)ethylamine;(±)-1-(4-Methylphenyl)ethylamine;α,4-Dimethylbenzylamine;1-(4-Methylphenyl)ethanamine;1-(4-Methylphenyl)ethan-1-amine;1-<em>p</em>-Tolylethanamine",
    "duplicated_cas_no": "42070-98-4",
    "SMILES": "C(C)(N)C1=CC=C(C)C=C1",
    "meta_data": {
        "InChI": "InChI=1S/C9H13N/c1-7-3-5-9(6-4-7)8(2)10/h3-6,8H,10H2,1-2H3",
        "InChIKey": null,
        "Canonical SMILES": "NC(C1=CC=C(C=C1)C)C",
        "Molecular Formula": "C<sub>9</sub>H<sub>13</sub>N",
        "Molecular Mass": "135.21",
        "Boiling Point": "204 °C",
        "Density": "0.937 g/cm³ @ Temp: 20 °C"
    }
}