{
    "cas_no": "1772-25-4",
    "key_name": "1,3,6-Hexanetricarbonitrile",
    "cn_name": "1,3,6-己烷三腈;",
    "alternate_name": "1,3,6-Hexanetricarbonitrile;1,3,6-Tricyanohexane;1,3,6-Hexanetrinitrile",
    "duplicated_cas_no": "",
    "SMILES": "C(CCCC#N)(CCC#N)C#N",
    "meta_data": {
        "InChI": "InChI=1S/C9H11N3/c10-6-2-1-4-9(8-12)5-3-7-11/h9H,1-5H2",
        "InChIKey": null,
        "Canonical SMILES": "N#CCCCC(C#N)CCC#N",
        "Molecular Formula": "C<sub>9</sub>H<sub>11</sub>N<sub>3</sub>",
        "Molecular Mass": "161.20",
        "Boiling Point": "186-200 °C @ Press: 0.2 Torr"
    }
}