{
    "cas_no": "445-14-7",
    "key_name": "5-Chloro-2-(trifluoromethyl)benzenamine",
    "cn_name": "5-氯-2-三氟甲基苯胺;",
    "alternate_name": "Benzenamine, 5-chloro-2-(trifluoromethyl)-;<em>o</em>-Toluidine, 5-chloro-α,α,α-trifluoro-;5-Chloro-2-(trifluoromethyl)benzenamine;5-Chloro-α,α,α-trifluoro-<em>o</em>-toluidine;2-(Trifluoromethyl)-5-chloroaniline;5-Chloro-2-trifluoromethylaniline;2-Amino-4-chlorobenzotrifluoride",
    "duplicated_cas_no": "",
    "SMILES": "C(F)(F)(F)C1=C(N)C=C(Cl)C=C1",
    "meta_data": {
        "InChI": "InChI=1S/C7H5ClF3N/c8-4-1-2-5(6(12)3-4)7(9,10)11/h1-3H,12H2",
        "InChIKey": null,
        "Canonical SMILES": "FC(F)(F)C1=CC=C(Cl)C=C1N",
        "Molecular Formula": "C<sub>7</sub>H<sub>5</sub>ClF<sub>3</sub>N",
        "Molecular Mass": "195.57",
        "Boiling Point": "82-84 °C"
    }
}