{
    "cas_no": "21715-90-2",
    "key_name": "3a,4,7,7a-Tetrahydro-2-hydroxy-4,7-methano-1<em>H</em>-isoindole-1,3(2<em>H</em>)-dione",
    "cn_name": "N-羟基-5-降冰片烯-2,3-二甲酰亚胺;",
    "alternate_name": "4,7-Methano-1<em>H</em>-isoindole-1,3(2<em>H</em>)-dione, 3a,4,7,7a-tetrahydro-2-hydroxy-;5-Norbornene-2,3-dicarboximide, <em>N</em>-hydroxy-;3a,4,7,7a-Tetrahydro-2-hydroxy-4,7-methano-1<em>H</em>-isoindole-1,3(2<em>H</em>)-dione;<em>N</em>-Hydroxy-5-norbornene-2,3-dicarboximide;<em>N</em>-Hydroxy-5-bicyclo[2.2.1]heptene-2,3-dicarboximide;NSC 100740;NSC 12953;HONB;3,5-Dioxo-4-azatricyclo[5.2.1.0<sup>2</sup>′<sup>6</sup>]dec-8-en-4-ol",
    "duplicated_cas_no": "",
    "SMILES": "O=C1C2C(C3CC2C=C3)C(=O)N1O",
    "meta_data": {
        "InChI": "InChI=1S/C9H9NO3/c11-8-6-4-1-2-5(3-4)7(6)9(12)10(8)13/h1-2,4-7,13H,3H2",
        "InChIKey": null,
        "Canonical SMILES": "O=C1N(O)C(=O)C2C3C=CC(C3)C12",
        "Molecular Formula": "C<sub>9</sub>H<sub>9</sub>NO<sub>3</sub>",
        "Molecular Mass": "179.17",
        "Melting Point": "164 °C"
    }
}