{
    "cas_no": "83-88-5",
    "key_name": "Riboflavin",
    "cn_name": "维生素B2;核黄素;7,8-二甲基-10-(1\"-D-核糖基)-异咯嗪;",
    "alternate_name": "Riboflavin;Riboflavine;Benzo[<em>g</em>]pteridine, riboflavin deriv.;Beflavine;Flaxain;Hyre;Lactoflavin;Lactoflavine;Ribipca;Riboderm;Vitamin B<sub>2</sub>;Vitamin G;Flavaxin;6,7-Dimethyl-9-<span class=\"text-smallcaps\">D</span>-ribitylisoalloxazine;Benzo[<em>g</em>]pteridine-2,4(3<em>H</em>,10<em>H</em>)-dione, 7,8-dimethyl-10-(<span class=\"text-smallcaps\">D</span>-<em>ribo</em>-2,3,4,5-tetrahydroxypentyl)-;Ribosyn;Vitaflavine;Ribotone;Ribovel;Beflavin;Ribocrisina;Vitasan B<sub>2</sub>;Lactobene;Flavin BB;Russupteridine yellow III;1-Deoxy-1-(3,4-dihydro-7,8-dimethyl-2,4-dioxobenzo[<em>g</em>]pteridin-10(2<em>H</em>)-yl)-<span class=\"text-smallcaps\">D</span>-ribitol;6,7-Dimethyl-9-ribitylisoalloxazine;E 101;C.I. Food Yellow 15;Food Yellow 15;(-)-Riboflavin;C.I. 50900;E 101 (dye);San Yellow B;NSC 33298;NCI 0033298;<span class=\"text-smallcaps\">D</span>-Ribitol, 1-deoxy-1-(3,4-dihydro-7,8-dimethyl-2,4-dioxobenzo[<em>g</em>]pteridin-10(2<em>H</em>)-yl)-;7,8-Dimethyl-10-ribitylisoalloxazine;Ricrolin;Riboflavin E101;Riboflavin FP;Riboflavin F;7,8-Dimethyl-10-(1,2,3,4,5-pentahydroxypentyl)benzo[<em>g</em>]pteridine-2,4-dione;MeSH ID: D012256",
    "duplicated_cas_no": "130609-39-1;535950-32-4;890044-91-4;1093390-18-1",
    "SMILES": "C([C@@H]([C@@H]([C@@H](CO)O)O)O)N1C=2C(N=C3C1=NC(=O)NC3=O)=CC(C)=C(C)C2",
    "meta_data": {
        "InChI": "InChI=1S/C17H20N4O6/c1-7-3-9-10(4-8(7)2)21(5-11(23)14(25)12(24)6-22)15-13(18-9)16(26)20-17(27)19-15/h3-4,11-12,14,22-25H,5-6H2,1-2H3,(H,20,26,27)/t11-,12+,14-/m0/s1",
        "InChIKey": null,
        "Canonical SMILES": "O=C1N=C2C(=NC=3C=C(C(=CC3N2CC(O)C(O)C(O)CO)C)C)C(=O)N1",
        "Molecular Formula": "C<sub>17</sub>H<sub>20</sub>N<sub>4</sub>O<sub>6</sub>",
        "Molecular Mass": "376.36",
        "Melting Point": "278-279 °C (decomp)"
    }
}