{
    "cas_no": "153559-45-6",
    "key_name": "Methyl 4-[(5,6,7,8-tetrahydro-3,5,5,8,8-pentamethyl-2-naphthalenyl)carbonyl]benzoate",
    "cn_name": null,
    "alternate_name": "Benzoic acid, 4-[(5,6,7,8-tetrahydro-3,5,5,8,8-pentamethyl-2-naphthalenyl)carbonyl]-, methyl ester;Methyl 4-[(5,6,7,8-tetrahydro-3,5,5,8,8-pentamethyl-2-naphthalenyl)carbonyl]benzoate;Methyl 4-[(5,6,7,8-tetrahydro-3,5,5,8,8-pentamethyl-2-naphthyl)carbonyl]benzoate",
    "duplicated_cas_no": "",
    "SMILES": "CC1(C)C=2C(=CC(C)=C(C(=O)C3=CC=C(C(OC)=O)C=C3)C2)C(C)(C)CC1",
    "meta_data": {
        "InChI": "InChI=1S/C24H28O3/c1-15-13-19-20(24(4,5)12-11-23(19,2)3)14-18(15)21(25)16-7-9-17(10-8-16)22(26)27-6/h7-10,13-14H,11-12H2,1-6H3",
        "InChIKey": null,
        "Canonical SMILES": "O=C(OC)C1=CC=C(C=C1)C(=O)C=2C=C3C(=CC2C)C(C)(C)CCC3(C)C",
        "Molecular Formula": "C<sub>24</sub>H<sub>28</sub>O<sub>3</sub>",
        "Molecular Mass": "364.48",
        "Melting Point": "143-144 °C"
    }
}