{
    "cas_no": "5426-47-1",
    "key_name": "8-(Dimethylamino)-3,9-dihydro-1,3-dimethyl-1<em>H</em>-purine-2,6-dione",
    "cn_name": null,
    "alternate_name": "1<em>H</em>-Purine-2,6-dione, 8-(dimethylamino)-3,9-dihydro-1,3-dimethyl-;Theophylline, 8-(dimethylamino)-;1<em>H</em>-Purine-2,6-dione, 8-(dimethylamino)-3,7-dihydro-1,3-dimethyl-;8-(Dimethylamino)-3,9-dihydro-1,3-dimethyl-1<em>H</em>-purine-2,6-dione;8-(Dimethylamino)theophylline;8-(Dimethylamino)-1,3-dimethylxanthine;NSC 14107",
    "duplicated_cas_no": "",
    "SMILES": "O=C1C2=C(N=C(N(C)C)N2)N(C)C(=O)N1C",
    "meta_data": {
        "InChI": "InChI=1S/C9H13N5O2/c1-12(2)8-10-5-6(11-8)13(3)9(16)14(4)7(5)15/h1-4H3,(H,10,11)",
        "InChIKey": null,
        "Canonical SMILES": "O=C1C=2NC(=NC2N(C(=O)N1C)C)N(C)C",
        "Molecular Formula": "C<sub>9</sub>H<sub>13</sub>N<sub>5</sub>O<sub>2</sub>",
        "Molecular Mass": "223.23",
        "Melting Point": "337-338 °C"
    }
}