{
    "cas_no": "1071-28-9",
    "key_name": "1-Propanol, 3-amino-, 1-(dihydrogen phosphate)",
    "cn_name": "磷酸二氢氨基丙酯;磷酸二氢氨基丙酯;",
    "alternate_name": "1-Propanol, 3-amino-, 1-(dihydrogen phosphate);1-Propanol, 3-amino-, dihydrogen phosphate (ester);3-Aminopropyl monophosphate;3-Aminopropyl dihydrogen phosphate",
    "duplicated_cas_no": "2194593-75-2;2194593-76-3",
    "SMILES": "O(P(=O)(O)O)CCCN",
    "meta_data": {
        "InChI": "InChI=1S/C3H10NO4P/c4-2-1-3-8-9(5,6)7/h1-4H2,(H2,5,6,7)",
        "InChIKey": null,
        "Canonical SMILES": "O=P(O)(O)OCCCN",
        "Molecular Formula": "C<sub>3</sub>H<sub>10</sub>NO<sub>4</sub>P",
        "Molecular Mass": "155.09",
        "Melting Point": "176-180 °C"
    }
}