{
    "cas_no": "877264-44-3",
    "key_name": "5-Fluoro-2-iodobenzaldehyde",
    "cn_name": "5-氟-2-碘苯甲醛;",
    "alternate_name": "Benzaldehyde, 5-fluoro-2-iodo-;5-Fluoro-2-iodobenzaldehyde;2-Iodo-5-fluorobenzaldehyde",
    "duplicated_cas_no": "",
    "SMILES": "C(=O)C1=C(I)C=CC(F)=C1",
    "meta_data": {
        "InChI": "InChI=1S/C7H4FIO/c8-6-1-2-7(9)5(3-6)4-10/h1-4H",
        "InChIKey": null,
        "Canonical SMILES": "O=CC1=CC(F)=CC=C1I",
        "Molecular Formula": "C<sub>7</sub>H<sub>4</sub>FIO",
        "Molecular Mass": "250.01",
        "Melting Point": "93-95 °C"
    }
}