{
    "cas_no": "214360-74-4",
    "key_name": "2-[3-(Bromomethyl)phenyl]-4,4,5,5-tetramethyl-1,3,2-dioxaborolane",
    "cn_name": null,
    "alternate_name": "1,3,2-Dioxaborolane, 2-[3-(bromomethyl)phenyl]-4,4,5,5-tetramethyl-;2-[3-(Bromomethyl)phenyl]-4,4,5,5-tetramethyl-1,3,2-dioxaborolane;2-(3-(Bromomethyl)phenyl)-4,4,5,5-tetramethyl-1,3,2-dioxaborolane;(3-Bromomethylphenyl)boronic acid pinacol ester;3-Bromomethylphenylboronic acid pinacol ester",
    "duplicated_cas_no": "",
    "SMILES": "CC1(C)OB(OC1(C)C)C2=CC(CBr)=CC=C2",
    "meta_data": {
        "InChI": "InChI=1S/C13H18BBrO2/c1-12(2)13(3,4)17-14(16-12)11-7-5-6-10(8-11)9-15/h5-8H,9H2,1-4H3",
        "InChIKey": null,
        "Canonical SMILES": "BrCC=1C=CC=C(C1)B2OC(C)(C)C(O2)(C)C",
        "Molecular Formula": "C<sub>13</sub>H<sub>18</sub>BBrO<sub>2</sub>",
        "Molecular Mass": "297.00",
        "Melting Point": "74-75 °C"
    }
}