{
    "cas_no": "52411-34-4",
    "key_name": "2,2′-[1,2-Ethanediylbis(oxy)]bis[benzenamine]",
    "cn_name": "2,2\"-二氨基乙二醇二苯醚;2,2\"-二氨基二苯氧基乙烷;",
    "alternate_name": "Benzenamine, 2,2′-[1,2-ethanediylbis(oxy)]bis-;Aniline, 2,2′-(ethylenedioxy)di-;2,2′-[1,2-Ethanediylbis(oxy)]bis[benzenamine];1,2-Bis[2-aminophenoxy]ethane;2,2′-(Ethylenedioxy)dianiline;1,2-Bis(<em>o</em>-aminophenoxy)ethane;1,2,7,8-Dibenzo-1,8-diamino-3,6-dioxaoctane;1,2-Di(<em>o</em>-aminophenoxy)ethane;2-[2-(2-Aminophenoxy)ethoxy]aniline",
    "duplicated_cas_no": "123330-83-6",
    "SMILES": "O(CCOC1=C(N)C=CC=C1)C2=C(N)C=CC=C2",
    "meta_data": {
        "InChI": "InChI=1S/C14H16N2O2/c15-11-5-1-3-7-13(11)17-9-10-18-14-8-4-2-6-12(14)16/h1-8H,9-10,15-16H2",
        "InChIKey": null,
        "Canonical SMILES": "O(C=1C=CC=CC1N)CCOC=2C=CC=CC2N",
        "Molecular Formula": "C<sub>14</sub>H<sub>16</sub>N<sub>2</sub>O<sub>2</sub>",
        "Molecular Mass": "244.29",
        "Melting Point": "131-132 °C"
    }
}