{
    "cas_no": "33668-25-6",
    "key_name": "Ethyl 3-oxocyclohexanecarboxylate",
    "cn_name": null,
    "alternate_name": "Cyclohexanecarboxylic acid, 3-oxo-, ethyl ester;Ethyl 3-oxocyclohexanecarboxylate;Ethyl cyclohexanone-β-carboxylate;3-Oxocyclohexanecarboxylic acid ethyl ester;3-Cyclohexanonecarboxylic acid ethyl ester;Ethyl (<em>RS</em>)-3-oxocyclohexanecarboxylate;Ethyl 3-oxocyclohexane-1-carboxylate",
    "duplicated_cas_no": "",
    "SMILES": "C(OCC)(=O)C1CC(=O)CCC1",
    "meta_data": {
        "InChI": "InChI=1S/C9H14O3/c1-2-12-9(11)7-4-3-5-8(10)6-7/h7H,2-6H2,1H3",
        "InChIKey": null,
        "Canonical SMILES": "O=C(OCC)C1CC(=O)CCC1",
        "Molecular Formula": "C<sub>9</sub>H<sub>14</sub>O<sub>3</sub>",
        "Molecular Mass": "170.21",
        "Boiling Point": "130.5 °C @ Press: 10 Torr"
    }
}