{
    "cas_no": "947-42-2",
    "key_name": "Diphenylsilanediol",
    "cn_name": "二苯基二羟基硅烷;",
    "alternate_name": "Silanediol, 1,1-diphenyl-;Silanediol, diphenyl-;1,1-Diphenylsilanediol;Diphenylsilanediol;Dihydroxydiphenylsilane;Diphenyldihydroxysilane;TSL 8162;SX 11;D 6150;SX 11 (diol);NSC 12561;LS 4320;Diphenylsilandiol;SID 4560.0;SiSiB PC 8228;PLF 23650",
    "duplicated_cas_no": "",
    "SMILES": "[Si](O)(O)(C1=CC=CC=C1)C2=CC=CC=C2",
    "meta_data": {
        "InChI": "InChI=1S/C12H12O2Si/c13-15(14,11-7-3-1-4-8-11)12-9-5-2-6-10-12/h1-10,13-14H",
        "InChIKey": null,
        "Canonical SMILES": "O[Si](O)(C=1C=CC=CC1)C=2C=CC=CC2",
        "Molecular Formula": "C<sub>12</sub>H<sub>12</sub>O<sub>2</sub>Si",
        "Molecular Mass": "216.31",
        "Melting Point": "138-142 °C (decomp)",
        "Density": "1.16 g/cm³"
    }
}