{
    "cas_no": "127-06-0",
    "key_name": "Acetone, oxime",
    "cn_name": "丙酮肟;二甲基酮肟;",
    "alternate_name": "2-Propanone, oxime;Acetone, oxime;2-Propanone oxime;Acetoxime;β-Isonitrosopropane;Propanone oxime;Dimethyl ketoxime;<em>N</em>-Isopropylidenehydroxylamine;NSC 7601;Acetone oxime;Exkin 518",
    "duplicated_cas_no": "",
    "SMILES": "C(=NO)(C)C",
    "meta_data": {
        "InChI": "InChI=1S/C3H7NO/c1-3(2)4-5/h5H,1-2H3",
        "InChIKey": null,
        "Canonical SMILES": "ON=C(C)C",
        "Molecular Formula": "C<sub>3</sub>H<sub>7</sub>NO",
        "Molecular Mass": "73.09",
        "Boiling Point": "136 °C",
        "Melting Point": "61 °C",
        "Density": "0.9232 g/cm³ @ Temp: 804 °C"
    }
}