{
    "cas_no": "17966-67-5",
    "key_name": "<em>N</em>-Benzoyl-<span class=\"text-smallcaps\">DL</span>-leucine",
    "cn_name": null,
    "alternate_name": "Leucine, <em>N</em>-benzoyl-;Leucine, <em>N</em>-benzoyl-, <span class=\"text-smallcaps\">DL</span>-;<span class=\"text-smallcaps\">DL</span>-Leucine, <em>N</em>-benzoyl-;<em>N</em>-Benzoylleucine;<em>N</em>-Benzoyl-<span class=\"text-smallcaps\">DL</span>-leucine;Benzoyl-<span class=\"text-smallcaps\">DL</span>-leucine;<span class=\"text-smallcaps\">DL</span>-<em>N</em>-Benzoylleucine;<span class=\"text-smallcaps\">DL</span>-Bz-Leucine;NSC 164029;2-Benzamido-4-methylpentanoicacid;2-Benzoylamino-4-methyl-pentanoic acid",
    "duplicated_cas_no": "195060-96-9",
    "SMILES": "C(NC(CC(C)C)C(O)=O)(=O)C1=CC=CC=C1",
    "meta_data": {
        "InChI": "InChI=1S/C13H17NO3/c1-9(2)8-11(13(16)17)14-12(15)10-6-4-3-5-7-10/h3-7,9,11H,8H2,1-2H3,(H,14,15)(H,16,17)",
        "InChIKey": null,
        "Canonical SMILES": "O=C(O)C(NC(=O)C=1C=CC=CC1)CC(C)C",
        "Molecular Formula": "C<sub>13</sub>H<sub>17</sub>NO<sub>3</sub>",
        "Molecular Mass": "235.28",
        "Melting Point": "135-137 °C"
    }
}