{
    "cas_no": "5354-94-9",
    "key_name": "<em>N</em>-Benzoyl-<span class=\"text-smallcaps\">L</span>-histidine",
    "cn_name": null,
    "alternate_name": "<span class=\"text-smallcaps\">L</span>-Histidine, <em>N</em>-benzoyl-;Histidine, <em>N</em>-benzoyl-, <span class=\"text-smallcaps\">L</span>-;<em>N</em>-Benzoyl-<span class=\"text-smallcaps\">L</span>-histidine;<em>N</em>-Benzoylhistidine;α-<em>N</em>-Benzoyl-<span class=\"text-smallcaps\">L</span>-histidine;<em>N</em><sup>α</sup>-Benzoyl-<span class=\"text-smallcaps\">L</span>-histidine;<em>N</em><sup>α</sup>-Benzoylhistidine;NSC 306118;(<em>S</em>)-2-Benzoylamino-3-(1<em>H</em>-imidazol-4-yl)propanoic acid;(2S)-3-(1<em>H</em>-Imidazol-4-yl)-2-(phenylformamido)propanoic acid;(2S)-2-Benzamido-3-(1<em>H</em>-imidazol-3-ium-5-yl)propanoate",
    "duplicated_cas_no": "14997-55-8",
    "SMILES": "[C@H](NC(=O)C1=CC=CC=C1)(CC2=CN=CN2)C(O)=O",
    "meta_data": {
        "InChI": "InChI=1S/C13H13N3O3/c17-12(9-4-2-1-3-5-9)16-11(13(18)19)6-10-7-14-8-15-10/h1-5,7-8,11H,6H2,(H,14,15)(H,16,17)(H,18,19)/t11-/m0/s1",
        "InChIKey": null,
        "Canonical SMILES": "O=C(O)C(NC(=O)C=1C=CC=CC1)CC2=CN=CN2",
        "Molecular Formula": "C<sub>13</sub>H<sub>13</sub>N<sub>3</sub>O<sub>3</sub>",
        "Molecular Mass": "259.26",
        "Melting Point": "249 °C"
    }
}