{
    "cas_no": "28166-41-8",
    "key_name": "α-Cyano-4-hydroxycinnamic acid",
    "cn_name": "α-氰-4-羟基肉桂酸;α-氰基-4-羟基肉桂酸;α-氰基-4-羟基桂皮酸;",
    "alternate_name": "2-Propenoic acid, 2-cyano-3-(4-hydroxyphenyl)-;Cinnamic acid, α-cyano-<em>p</em>-hydroxy-;2-Cyano-3-(4-hydroxyphenyl)-2-propenoic acid;α-Cyano-4-hydroxycinnamic acid;4-Hydroxy-α-cyanocinnamic acid;NSC 173138",
    "duplicated_cas_no": "",
    "SMILES": "C(=C(C(O)=O)C#N)C1=CC=C(O)C=C1",
    "meta_data": {
        "InChI": "InChI=1S/C10H7NO3/c11-6-8(10(13)14)5-7-1-3-9(12)4-2-7/h1-5,12H,(H,13,14)",
        "InChIKey": null,
        "Canonical SMILES": "N#CC(=CC1=CC=C(O)C=C1)C(=O)O",
        "Molecular Formula": "C<sub>10</sub>H<sub>7</sub>NO<sub>3</sub>",
        "Molecular Mass": "189.17",
        "Melting Point": "244 °C"
    }
}