{
    "cas_no": "5763-55-3",
    "key_name": "Cyclopentaneethanamine",
    "cn_name": "2-环戊基-乙胺;2-环戊基-乙胺;",
    "alternate_name": "Cyclopentaneethanamine;Cyclopentaneethylamine;2-Cyclopentylethylamine;Cyclopentylethylamine;2-Aminoethylcyclopentane;2-Cyclopentylethanamine;2-Cyclopentylethan-1-amine",
    "duplicated_cas_no": "",
    "SMILES": "C(CN)C1CCCC1",
    "meta_data": {
        "InChI": "InChI=1S/C7H15N/c8-6-5-7-3-1-2-4-7/h7H,1-6,8H2",
        "InChIKey": null,
        "Canonical SMILES": "NCCC1CCCC1",
        "Molecular Formula": "C<sub>7</sub>H<sub>15</sub>N",
        "Molecular Mass": "113.20",
        "Boiling Point": "158-159 °C"
    }
}