{
    "cas_no": "14187-32-7",
    "key_name": "Dibenzo-18-crown-6",
    "cn_name": "二苯并-18-冠醚-6;",
    "alternate_name": "Dibenzo[<em>b</em>,<em>k</em>][1,4,7,10,13,16]hexaoxacyclooctadecin, 6,7,9,10,17,18,20,21-octahydro-;6,7,9,10,17,18,20,21-Octahydrodibenzo[<em>b</em>,<em>k</em>][1,4,7,10,13,16]hexaoxacyclooctadecin;Crown 18;Dibenzo-18-crown-6;Dibenzo[<em>b</em>,<em>k</em>][1,4,7,10,13,16]hexaoxacyclooctadecane;2,3:11,12-Dibenzo-1,4,7,10,13,16-hexaoxacyclooctadecane;NSC 147771;Tin(II) ionophore I",
    "duplicated_cas_no": "54765-16-1;63172-39-4;66105-26-8;73128-69-5",
    "SMILES": "C=12C(=CC=CC1)OCCOCCOC=3C(OCCOCCO2)=CC=CC3",
    "meta_data": {
        "InChI": "InChI=1S/C20H24O6/c1-2-6-18-17(5-1)23-13-9-21-11-15-25-19-7-3-4-8-20(19)26-16-12-22-10-14-24-18/h1-8H,9-16H2",
        "InChIKey": null,
        "Canonical SMILES": "O1C=2C=CC=CC2OCCOCCOC=3C=CC=CC3OCCOCC1",
        "Molecular Formula": "C<sub>20</sub>H<sub>24</sub>O<sub>6</sub>",
        "Molecular Mass": "360.40",
        "Melting Point": "162-164 °C",
        "Density": "1.400 g/cm³"
    }
}