{
    "cas_no": "4016-63-1",
    "key_name": "8-Bromoguanosine",
    "cn_name": "8-溴鸟苷;8-溴鸟嘌呤核苷;2-氨基-8-溴-6-羟基嘌呤核苷;",
    "alternate_name": "Guanosine, 8-bromo-;8-Bromoguanosine;NSC 174257;NSC 79211;Chembridge 5141604;2-Amino-8-bromo-9-[3,4-dihydroxy-5-(hydroxymethyl)oxolan-2-yl]-1<em>H</em>-purin-6-one;2-Amino-8-bromo-9-[3,4-dihydroxy-5-(hydroxymethyl)tetrahydrofuran-2-yl]-6,9-dihydro-1<em>H</em>-purin-6-one;2-Amino-8-bromo-9-[3,4-dihydroxy-5-(hydroxymethyl)tetrahydro-2-furanyl]-1,9-dihydro-6<em>H</em>-purin-6-one",
    "duplicated_cas_no": "25811-47-6;27095-14-3;1093852-18-6",
    "SMILES": "BrC=1N(C2=C(N1)C(=O)N=C(N)N2)[C@@H]3O[C@H](CO)[C@@H](O)[C@H]3O",
    "meta_data": {
        "InChI": "InChI=1S/C10H12BrN5O5/c11-9-13-3-6(14-10(12)15-7(3)20)16(9)8-5(19)4(18)2(1-17)21-8/h2,4-5,8,17-19H,1H2,(H3,12,14,15,20)/t2-,4-,5-,8-/m1/s1",
        "InChIKey": null,
        "Canonical SMILES": "O=C1N=C(N)NC2=C1N=C(Br)N2C3OC(CO)C(O)C3O",
        "Molecular Formula": "C<sub>10</sub>H<sub>12</sub>BrN<sub>5</sub>O<sub>5</sub>",
        "Molecular Mass": "362.14",
        "Melting Point": "&gt;180 °C (decomp)"
    }
}