{
    "cas_no": "2783-17-7",
    "key_name": "1,12-Dodecanediamine",
    "cn_name": "1,12-二氨基十二烷;十二烷二元胺;",
    "alternate_name": "1,12-Dodecanediamine;1,12-Dodecamethylenediamine;1,12-Diaminododecane;Dodecamethylenediamine;1,12-Dodecylenediamine;1,12-<em>n</em>-Dodecanediamine;1,12-Diamino-<em>n</em>-dodecane;NSC 55050;NSC 59861",
    "duplicated_cas_no": "95931-03-6;2590675-58-2",
    "SMILES": "C(CCCCCCN)CCCCCN",
    "meta_data": {
        "InChI": "InChI=1S/C12H28N2/c13-11-9-7-5-3-1-2-4-6-8-10-12-14/h1-14H2",
        "InChIKey": null,
        "Canonical SMILES": "NCCCCCCCCCCCCN",
        "Molecular Formula": "C<sub>12</sub>H<sub>28</sub>N<sub>2</sub>",
        "Molecular Mass": "200.36",
        "Boiling Point": "187 °C",
        "Melting Point": "66-67 °C"
    }
}