{
    "cas_no": "611-71-2",
    "key_name": "(-)-Mandelic acid",
    "cn_name": "扁桃酸;",
    "alternate_name": "Benzeneacetic acid, α-hydroxy-, (α<em>R</em>)-;Mandelic acid, <span class=\"text-smallcaps\">D</span>-;Benzeneacetic acid, α-hydroxy-, (<em>R</em>)-;(α<em>R</em>)-α-Hydroxybenzeneacetic acid;<span class=\"text-smallcaps\">D</span>-Mandelic acid;<span class=\"text-smallcaps\">D</span>(-)-Mandelic acid;(-)-Mandelic acid;(-)-(<em>R</em>)-Mandelic acid;<span class=\"text-smallcaps\">D</span>-2-Phenylglycolic acid;(<em>R</em>)-α-Hydroxyphenylacetic acid;(<em>R</em>)-(-)-Mandelic acid;(<em>R</em>)-α-Hydroxybenzeneacetic acid;(-)-α-Hydroxyphenylacetic acid;(<em>R</em>)-Mandelic acid;(<em>R</em>)-Hydroxy(phenyl)acetic acid;(R)-Mandelic acid;(<em>R</em>)-(-)-Hydroxyphenylacetic acid;(<em>R</em>)-2-Hydroxy-2-phenylacetic acid;(-)-<span class=\"text-smallcaps\">D</span>-Mandelic acid;(<em>R</em>)-Amygdalic acid;(2R)-2-Hydroxy-2-phenylacetic acid",
    "duplicated_cas_no": "14447-35-9",
    "SMILES": "[C@@H](C(O)=O)(O)C1=CC=CC=C1",
    "meta_data": {
        "InChI": "InChI=1S/C8H8O3/c9-7(8(10)11)6-4-2-1-3-5-6/h1-5,7,9H,(H,10,11)/t7-/m1/s1",
        "InChIKey": null,
        "Canonical SMILES": "O=C(O)C(O)C=1C=CC=CC1",
        "Molecular Formula": "C<sub>8</sub>H<sub>8</sub>O<sub>3</sub>",
        "Molecular Mass": "152.15",
        "Melting Point": "119 °C"
    }
}