{
    "cas_no": "127759-89-1",
    "key_name": "Lobucavir",
    "cn_name": null,
    "alternate_name": "6<em>H</em>-Purin-6-one, 2-amino-9-[(1<em>R</em>,2<em>R</em>,3<em>S</em>)-2,3-bis(hydroxymethyl)cyclobutyl]-1,9-dihydro-;6<em>H</em>-Purin-6-one, 2-amino-9-[2,3-bis(hydroxymethyl)cyclobutyl]-1,9-dihydro-, [1<em>R</em>-(1α,2β,3α)]-;2-Amino-9-[(1<em>R</em>,2<em>R</em>,3<em>S</em>)-2,3-bis(hydroxymethyl)cyclobutyl]-1,9-dihydro-6<em>H</em>-purin-6-one;(+)-Cyclobut G;SQ 34514;BMS 180194;Lobucavir",
    "duplicated_cas_no": "",
    "SMILES": "C(O)[C@H]1[C@H](N2C3=C(N=C2)C(=O)N=C(N)N3)C[C@@H]1CO",
    "meta_data": {
        "InChI": "InChI=1S/C11H15N5O3/c12-11-14-9-8(10(19)15-11)13-4-16(9)7-1-5(2-17)6(7)3-18/h4-7,17-18H,1-3H2,(H3,12,14,15,19)/t5-,6-,7-/m1/s1",
        "InChIKey": null,
        "Canonical SMILES": "O=C1N=C(N)NC2=C1N=CN2C3CC(CO)C3CO",
        "Molecular Formula": "C<sub>11</sub>H<sub>15</sub>N<sub>5</sub>O<sub>3</sub>",
        "Molecular Mass": "265.27",
        "Melting Point": "275-280 °C (decomp)"
    }
}