{
    "cas_no": "41059-79-4",
    "key_name": "Timosaponin A III",
    "cn_name": null,
    "alternate_name": "β-<span class=\"text-smallcaps\">D</smallcap>-Galactopyranoside, (3β,5β,25<em>S</em>)-spirostan-3-yl 2-<em>O</em>-β-<smallcap>D</span>-glucopyranosyl-;Timosaponin A III;(3β,5β,25<em>S</em>)-Spirostan-3-yl 2-<em>O</em>-β-<span class=\"text-smallcaps\">D</smallcap>-glucopyranosyl-β-<smallcap>D</span>-galactopyranoside;Timosaponine A III;Filiferin B;Sarsasapogenin, 2-<em>O</em>-β-<span class=\"text-smallcaps\">D</smallcap>-glucopyranosyl-β-<smallcap>D</span>-galactopyranoside;Zhi-mu saponin;Anemarsaponin A 3;Xilingsaponin A;Sarsasapogenin-3-O-(2′-O-β-glucopyranosyl-β-galactopyranoside)",
    "duplicated_cas_no": "11032-27-2;139077-63-7;2981466-21-9",
    "SMILES": "C[C@@]12[C@@]3([C@](C[C@]1([C@]4([C@](CC2)([C@]5(C)[C@](CC4)(C[C@@H](O[C@H]6[C@H](O[C@@H]7O[C@H](CO)[C@@H](O)[C@H](O)[C@H]7O)[C@@H](O)[C@@H](O)[C@@H](CO)O6)CC5)[H])[H])[H])[H])(O[C@@]8([C@H]3C)CC[C@H](C)CO8)[H])[H]",
    "meta_data": {
        "InChI": "InChI=1S/C39H64O13/c1-18-7-12-39(47-17-18)19(2)28-25(52-39)14-24-22-6-5-20-13-21(8-10-37(20,3)23(22)9-11-38(24,28)4)48-36-34(32(45)30(43)27(16-41)50-36)51-35-33(46)31(44)29(42)26(15-40)49-35/h18-36,40-46H,5-17H2,1-4H3/t18-,19-,20+,21-,22+,23-,24-,25-,26+,27+,28-,29+,30-,31-,32-,33+,34+,35-,36+,37-,38-,39+/m0/s1",
        "InChIKey": null,
        "Canonical SMILES": "OCC1OC(OC2C(O)C(O)C(OC2OC3CCC4(C)C(CCC5C4CCC6(C)C5CC7OC8(OCC(C)CC8)C(C)C76)C3)CO)C(O)C(O)C1O",
        "Molecular Formula": "C<sub>39</sub>H<sub>64</sub>O<sub>13</sub>",
        "Molecular Mass": "740.92",
        "Melting Point": "317-322 °C"
    }
}