{
    "cas_no": "1672-46-4",
    "key_name": "Digoxigenin",
    "cn_name": null,
    "alternate_name": "Card-20(22)-enolide, 3,12,14-trihydroxy-, (3β,5β,12β)-;Digoxigenin;5β-Card-20(22)-enolide, 3β,12β,14-trihydroxy-;(3β,5β,12β)-3,12,14-Trihydroxycard-20(22)-enolide;Lanadigenin;Δ<sup>20:22</sup>-3β,12β,14,21-Tetrahydroxynorcholenic acid lactone;3β,12β,14-Trihydroxycard-20(22)-enolide;12β-Hydroxydigitoxigenin;3β-Digoxigenin;94: PN: WO2015152703 SEQID: 101 claimed sequence;MeSH ID: D004076",
    "duplicated_cas_no": "47561-10-4;2701571-46-0",
    "SMILES": "O[C@@]12[C@@](C)([C@H](CC1)C=3COC(=O)C3)[C@H](O)C[C@]4([C@]2(CC[C@]5([C@]4(C)CC[C@H](O)C5)[H])[H])[H]",
    "meta_data": {
        "InChI": "InChI=1S/C23H34O5/c1-21-7-5-15(24)10-14(21)3-4-17-18(21)11-19(25)22(2)16(6-8-23(17,22)27)13-9-20(26)28-12-13/h9,14-19,24-25,27H,3-8,10-12H2,1-2H3/t14-,15+,16-,17-,18+,19-,21+,22+,23+/m1/s1",
        "InChIKey": null,
        "Canonical SMILES": "O=C1OCC(=C1)C2CCC3(O)C4CCC5CC(O)CCC5(C)C4CC(O)C23C",
        "Molecular Formula": "C<sub>23</sub>H<sub>34</sub>O<sub>5</sub>",
        "Molecular Mass": "390.51",
        "Melting Point": "222 °C"
    }
}