{
    "cas_no": "6170-06-5",
    "key_name": "Alizarin 1-methyl ether",
    "cn_name": null,
    "alternate_name": "9,10-Anthracenedione, 2-hydroxy-1-methoxy-;Anthraquinone, 2-hydroxy-1-methoxy-;2-Hydroxy-1-methoxy-9,10-anthracenedione;Alizarin 1-methyl ether;1-Methoxy-2-hydroxyanthraquinone;2-Hydroxy-1-methoxyanthraquinone",
    "duplicated_cas_no": "",
    "SMILES": "O(C)C1=C2C(C(=O)C=3C(C2=O)=CC=CC3)=CC=C1O",
    "meta_data": {
        "InChI": "InChI=1S/C15H10O4/c1-19-15-11(16)7-6-10-12(15)14(18)9-5-3-2-4-8(9)13(10)17/h2-7,16H,1H3",
        "InChIKey": null,
        "Canonical SMILES": "O=C1C=2C=CC=CC2C(=O)C3=C(OC)C(O)=CC=C13",
        "Molecular Formula": "C<sub>15</sub>H<sub>10</sub>O<sub>4</sub>",
        "Molecular Mass": "254.24",
        "Melting Point": "177-179 °C"
    }
}