{
    "cas_no": "6214-20-6",
    "key_name": "Methyl 4-nitrobenzenesulfonate",
    "cn_name": "4-硝基苯磺酸甲酯;",
    "alternate_name": "Benzenesulfonic acid, 4-nitro-, methyl ester;Benzenesulfonic acid, <em>p</em>-nitro-, methyl ester;Methyl <em>p</em>-nitrobenzenesulfonate;Methyl 4-nitrobenzenesulfonate;Methyl nosylate;Methyl <em>p</em>-nitrotosylate",
    "duplicated_cas_no": "",
    "SMILES": "S(OC)(=O)(=O)C1=CC=C(N(=O)=O)C=C1",
    "meta_data": {
        "InChI": "InChI=1S/C7H7NO5S/c1-13-14(11,12)7-4-2-6(3-5-7)8(9)10/h2-5H,1H3",
        "InChIKey": null,
        "Canonical SMILES": "O=N(=O)C1=CC=C(C=C1)S(=O)(=O)OC",
        "Molecular Formula": "C<sub>7</sub>H<sub>7</sub>NO<sub>5</sub>S",
        "Molecular Mass": "217.20",
        "Melting Point": "94 °C"
    }
}