{
    "cas_no": "140-66-9",
    "key_name": "4-<em>tert</em>-Octylphenol",
    "cn_name": "对特辛基苯酚;辛基酚;",
    "alternate_name": "Phenol, 4-(1,1,3,3-tetramethylbutyl)-;Phenol, <em>p</em>-(1,1,3,3-tetramethylbutyl)-;4-(1,1,3,3-Tetramethylbutyl)phenol;<em>p</em>-<em>tert</em>-Octylphenol;4-<em>tert</em>-Octylphenol;<em>p</em>-Octylphenol;<em>p</em>-(1,1,3,3-Tetramethylbutyl)phenol;4-Octylphenol;NSC 5427;NSC 7248;<em>p</em>-<em>t</em>-Octylphenol;4-(2,4,4-Trimethylpentan-2-yl)phenol;4-(2,2,4-Trimethylpentan-2-yl)phenol",
    "duplicated_cas_no": "124765-79-3;37769-53-2;85771-77-3",
    "SMILES": "C(CC(C)(C)C)(C)(C)C1=CC=C(O)C=C1",
    "meta_data": {
        "InChI": "InChI=1S/C14H22O/c1-13(2,3)10-14(4,5)11-6-8-12(15)9-7-11/h6-9,15H,10H2,1-5H3",
        "InChIKey": null,
        "Canonical SMILES": "OC1=CC=C(C=C1)C(C)(C)CC(C)(C)C",
        "Molecular Formula": "C<sub>14</sub>H<sub>22</sub>O",
        "Molecular Mass": "206.32",
        "Boiling Point": "158 °C @ Press: 20 Torr",
        "Melting Point": "84-85 °C",
        "Density": "0.89 g/cm³ @ Temp: 90 °C"
    }
}