{
    "cas_no": "57-88-5",
    "key_name": "Cholesterol",
    "cn_name": "胆固醇;胆甾醇;胆甾烷醇;",
    "alternate_name": "Cholest-5-en-3-ol (3β)-;Cholesterol;(3β)-Cholest-5-en-3-ol;Cholest-5-en-3β-ol;Cholesterin;5:6-Cholesten-3β-ol;Dythol;3β-Hydroxycholest-5-ene;Provitamin D;Cholesteryl alcohol;(-)-Cholesterol;Δ<sup>5</sup>-Cholesten-3β-ol;Lidinit;Lidinite;NSC 8798;SyntheChol;Marine Cholesterol;C 8667;137: PN: WO2023069707 SEQID: 165 claimed sequence;MeSH ID: D002784",
    "duplicated_cas_no": "80356-14-5;80356-33-8;209124-38-9;218965-24-3;262418-13-3;378185-03-6;676322-57-9;732297-95-9;793670-51-6;849593-11-9;856708-55-9;2016865-06-6;2363129-31-9;2760344-17-8;2761910-55-6",
    "SMILES": "C[C@@]12[C@]([C@]3([C@@]([C@]4(C)C(=CC3)C[C@@H](O)CC4)(CC1)[H])[H])(CC[C@@]2([C@@H](CCCC(C)C)C)[H])[H]",
    "meta_data": {
        "InChI": "InChI=1S/C27H46O/c1-18(2)7-6-8-19(3)23-11-12-24-22-10-9-20-17-21(28)13-15-26(20,4)25(22)14-16-27(23,24)5/h9,18-19,21-25,28H,6-8,10-17H2,1-5H3/t19-,21+,22+,23-,24+,25+,26+,27-/m1/s1",
        "InChIKey": null,
        "Canonical SMILES": "OC1CC2=CCC3C(CCC4(C)C(CCC34)C(C)CCCC(C)C)C2(C)CC1",
        "Molecular Formula": "C<sub>27</sub>H<sub>46</sub>O",
        "Molecular Mass": "386.65",
        "Boiling Point": "360 °C",
        "Melting Point": "148.5 °C",
        "Density": "1.067 g/cm³ @ Temp: 20 °C"
    }
}