{
    "cas_no": "20034-02-0",
    "key_name": "6-Methyl-1<em>H</em>-benzimidazole-2-methanol",
    "cn_name": "(6-甲基-1H-苯并咪唑-2-基)甲醇;",
    "alternate_name": "1<em>H</em>-Benzimidazole-2-methanol, 6-methyl-;2-Benzimidazolemethanol, 5-methyl-;1<em>H</em>-Benzimidazole-2-methanol, 5-methyl-;2-Benzimidazolemethanol, 5(or 6)-methyl-;6-Methyl-1<em>H</em>-benzimidazole-2-methanol;(5-Methyl-1<em>H</em>-benzimidazol-2-yl)methanol;(6-Methyl-1<em>H</em>-1,3-benzodiazol-2-yl)methanol;(5-Methyl-1<em>H</em>-1,3-benzodiazol-2-yl)methanol;(6-Methyl-1<em>H</em>-benzimidazol-2-yl)methanol",
    "duplicated_cas_no": "",
    "SMILES": "C(O)C=1NC=2C(N1)=CC(C)=CC2",
    "meta_data": {
        "InChI": "InChI=1S/C9H10N2O/c1-6-2-3-7-8(4-6)11-9(5-12)10-7/h2-4,12H,5H2,1H3,(H,10,11)",
        "InChIKey": null,
        "Canonical SMILES": "OCC1=NC=2C=C(C=CC2N1)C",
        "Molecular Formula": "C<sub>9</sub>H<sub>10</sub>N<sub>2</sub>O",
        "Molecular Mass": "162.19",
        "Melting Point": "203 °C"
    }
}