{
    "cas_no": "635-84-7",
    "key_name": "4-Phenylphenacyl chloride",
    "cn_name": "2\"-氯代联苯乙酮;2-氯-4\"-苯基苯乙酮;",
    "alternate_name": "Ethanone, 1-[1,1′-biphenyl]-4-yl-2-chloro-;Acetophenone, 2-chloro-4′-phenyl-;1-[1,1′-Biphenyl]-4-yl-2-chloroethanone;<em>p</em>-Phenylphenacyl chloride;2-Chloro-4′-phenylacetophenone;4-Phenylphenacyl chloride;4-(2-Chloroacetyl)biphenyl;NSC 41668;4-(Chloroacetyl)biphenyl;1-Biphenyl-4-yl-2-chloroethanone;2-Chloro-1-(4-phenylphenyl)ethan-1-one;2-Chloro-1-(4-phenylphenyl)ethanone;1-([1,1′-Biphenyl]-4-yl)-2-chloroethan-1-one",
    "duplicated_cas_no": "",
    "SMILES": "C(CCl)(=O)C1=CC=C(C=C1)C2=CC=CC=C2",
    "meta_data": {
        "InChI": "InChI=1S/C14H11ClO/c15-10-14(16)13-8-6-12(7-9-13)11-4-2-1-3-5-11/h1-9H,10H2",
        "InChIKey": null,
        "Canonical SMILES": "O=C(C=1C=CC(=CC1)C=2C=CC=CC2)CCl",
        "Molecular Formula": "C<sub>14</sub>H<sub>11</sub>ClO",
        "Molecular Mass": "230.69",
        "Melting Point": "124-126 °C"
    }
}