{
    "cas_no": "21165-77-5",
    "key_name": "Methyl <em>N</em>-[[4-[2-[(5-chloro-2-methoxybenzoyl)amino]ethyl]phenyl]sulfonyl]carbamate",
    "cn_name": null,
    "alternate_name": "Carbamic acid, <em>N</em>-[[4-[2-[(5-chloro-2-methoxybenzoyl)amino]ethyl]phenyl]sulfonyl]-, methyl ester;Carbamic acid, [[<em>p</em>-[2-(5-chloro-<em>o</em>-anisamido)ethyl]phenyl]sulfonyl]-, methyl ester;Carbamic acid, [[4-[2-[(5-chloro-2-methoxybenzoyl)amino]ethyl]phenyl]sulfonyl]-, methyl ester;Methyl <em>N</em>-[[4-[2-[(5-chloro-2-methoxybenzoyl)amino]ethyl]phenyl]sulfonyl]carbamate",
    "duplicated_cas_no": "",
    "SMILES": "C(NCCC1=CC=C(S(NC(OC)=O)(=O)=O)C=C1)(=O)C2=C(OC)C=CC(Cl)=C2",
    "meta_data": {
        "InChI": "InChI=1S/C18H19ClN2O6S/c1-26-16-8-5-13(19)11-15(16)17(22)20-10-9-12-3-6-14(7-4-12)28(24,25)21-18(23)27-2/h3-8,11H,9-10H2,1-2H3,(H,20,22)(H,21,23)",
        "InChIKey": null,
        "Canonical SMILES": "O=C(OC)NS(=O)(=O)C1=CC=C(C=C1)CCNC(=O)C2=CC(Cl)=CC=C2OC",
        "Molecular Formula": "C<sub>18</sub>H<sub>19</sub>ClN<sub>2</sub>O<sub>6</sub>S",
        "Molecular Mass": "426.87",
        "Melting Point": "189-191 °C"
    }
}