{
    "cas_no": "298-59-9",
    "key_name": "Ritalin",
    "cn_name": null,
    "alternate_name": "2-Piperidineacetic acid, α-phenyl-, methyl ester, hydrochloride (1:1);2-Piperidineacetic acid, α-phenyl-, methyl ester, hydrochloride;Centedrin;Methylphenidate hydrochloride;Methyl α-phenyl-2-piperidineacetate hydrochloride;Ritalin;Ritalin Hydrochloride;Centedrine;Meridil;Metadate CD;Concerta;NSC 169868;Ritalin SR;Medikinet;Ritalin LA;Quillivant XR;Methylin;Methylin ER;Quillichew ER;Aptensio XR;Jornay PM;Adhansia XR",
    "duplicated_cas_no": "83796-86-5",
    "SMILES": "C(C(OC)=O)(C1=CC=CC=C1)C2CCCCN2.Cl",
    "meta_data": {
        "InChI": "InChI=1S/C14H19NO2.ClH/c1-17-14(16)13(11-7-3-2-4-8-11)12-9-5-6-10-15-12;/h2-4,7-8,12-13,15H,5-6,9-10H2,1H3;1H",
        "InChIKey": null,
        "Canonical SMILES": "Cl.O=C(OC)C(C=1C=CC=CC1)C2NCCCC2",
        "Molecular Formula": "C<sub>14</sub>H<sub>19</sub>NO<sub>2</sub>.ClH",
        "Molecular Mass": "",
        "Melting Point": "224-226 °C"
    }
}