{
    "cas_no": "14781-45-4",
    "key_name": "(<em>SP</em>-4-1)-Bis(1,1,1,5,5,5-hexafluoro-2,4-pentanedionato-κ<em>O</em><sup>2</sup>,κ<em>O</em><sup>4</sup>)copper",
    "cn_name": "双(六氟乙酰丙酮)合铜;",
    "alternate_name": "Copper, bis(1,1,1,5,5,5-hexafluoro-2,4-pentanedionato-κ<em>O</em><sup>2</sup>,κ<em>O</em><sup>4</sup>)-, (<em>SP</em>-4-1)-;Copper, bis(1,1,1,5,5,5-hexafluoro-2,4-pentanedionato)-;Copper, bis(1,1,1,5,5,5-hexafluoro-2,4-pentanedionato-<em>O</em>,<em>O</em>′)-, (<em>SP</em>-4-1)-;2,4-Pentanedione, 1,1,1,5,5,5-hexafluoro-, copper deriv.;Copper, bis(1,1,1,5,5,5-hexafluoro-2,4-pentanedionato-κ<em>O</em>,κ<em>O</em>′)-, (<em>SP</em>-4-1)-;(<em>SP</em>-4-1)-Bis(1,1,1,5,5,5-hexafluoro-2,4-pentanedionato-κ<em>O</em><sup>2</sup>,κ<em>O</em><sup>4</sup>)copper;Bis(hexafluoroacetylacetonato)copper(II);Copper(II) hexafluoroacetylacetonate;Bis(hexafluoroacetylacetonato)copper;Bis(1,1,1,5,5,5-hexafluoro-2,4-pentanedionato)copper (II);Bis(hexafluoroacetoacetonato)copper(II);Bis(hexafluroroacetylacetonato)copper;Bis(1,1,1,5,5,5-hexafluoroacetylacetonato)copper(II);Copper(II) bis(hexafluoroacetylacetonate);Bis(hexafluoroacetylacetonate)copper(II)",
    "duplicated_cas_no": "",
    "SMILES": "C(F)(F)(F)C1=O[Cu+2]2(O=C(C(F)(F)F)[CH-]C(C(F)(F)F)=O2)O=C(C(F)(F)F)[CH-]1",
    "meta_data": {
        "InChI": "InChI=1S/2C5HF6O2.Cu/c2*6-4(7,8)2(12)1-3(13)5(9,10)11;/h2*1H;/q2*-1;+2",
        "InChIKey": null,
        "Canonical SMILES": "FC(F)(F)C1=O[Cu+2]2(O=C([CH-]1)C(F)(F)F)O=C([CH-]C(=O2)C(F)(F)F)C(F)(F)F",
        "Molecular Formula": "C<sub>10</sub>H<sub>2</sub>CuF<sub>12</sub>O<sub>4</sub>",
        "Molecular Mass": "",
        "Melting Point": "95-98 °C",
        "Density": "0.593 g/cm³"
    }
}