{
    "cas_no": "99-05-8",
    "key_name": "3-Aminobenzoic acid",
    "cn_name": "3-氨基苯甲酸;间氨基苯甲酸;",
    "alternate_name": "Benzoic acid, 3-amino-;Benzoic acid, <em>m</em>-amino-;3-Aminobenzoic acid;<em>m</em>-Aminobenzoic acid;<em>m</em>-Carboxyaniline;3-Carboxyaniline;Aniline-3-carboxylic acid;<em>m</em>-Carboxyphenylamine;NSC 15012;<em>m</em>-Anthranilic acid;3-Aminobenzenecarboxylic acid;MeSH ID: D062368",
    "duplicated_cas_no": "915120-54-6;1190921-66-4",
    "SMILES": "C(O)(=O)C1=CC(N)=CC=C1",
    "meta_data": {
        "InChI": "InChI=1S/C7H7NO2/c8-6-3-1-2-5(4-6)7(9)10/h1-4H,8H2,(H,9,10)",
        "InChIKey": null,
        "Canonical SMILES": "O=C(O)C=1C=CC=C(N)C1",
        "Molecular Formula": "C<sub>7</sub>H<sub>7</sub>NO<sub>2</sub>",
        "Molecular Mass": "137.14",
        "Melting Point": "173 °C"
    }
}