{
    "cas_no": "522-87-2",
    "key_name": "Yohimbic acid",
    "cn_name": null,
    "alternate_name": "Yohimban-16-carboxylic acid, 17-hydroxy-, (16α,17α)-;Yohimbic acid;Benz[<em>g</em>]indolo[2,3-<em>a</em>]quinolizine, yohimban-16-carboxylic acid deriv.;(16α,17α)-17-Hydroxyyohimban-16-carboxylic acid;Yohimbinic acid;Yohimbolcarboxylic acid;NSC 95096;Yohimbine acid",
    "duplicated_cas_no": "2468242-04-6",
    "SMILES": "C(O)(=O)[C@@H]1[C@]2(C[C@]3(C4=C(C=5C(N4)=CC=CC5)CCN3C[C@@]2(CC[C@@H]1O)[H])[H])[H]",
    "meta_data": {
        "InChI": "InChI=1S/C20H24N2O3/c23-17-6-5-11-10-22-8-7-13-12-3-1-2-4-15(12)21-19(13)16(22)9-14(11)18(17)20(24)25/h1-4,11,14,16-18,21,23H,5-10H2,(H,24,25)/t11-,14-,16-,17-,18+/m0/s1",
        "InChIKey": null,
        "Canonical SMILES": "O=C(O)C1C(O)CCC2CN3CCC=4C=5C=CC=CC5NC4C3CC12",
        "Molecular Formula": "C<sub>20</sub>H<sub>24</sub>N<sub>2</sub>O<sub>3</sub>",
        "Molecular Mass": "340.42",
        "Melting Point": "280-300 °C"
    }
}