{
    "cas_no": "3900-93-4",
    "key_name": "2-Cyclopentyl-2-phenylacetic acid",
    "cn_name": "α-苯基环戊基乙酸;",
    "alternate_name": "Benzeneacetic acid, α-cyclopentyl-;Cyclopentaneacetic acid, α-phenyl-;α-Cyclopentylbenzeneacetic acid;Acetic acid, cyclopentylphenyl-;Cyclopentylphenylacetic acid;α-Phenylcyclopentaneacetic acid;2-Cyclopentyl-2-phenylacetic acid;<span class=\"text-smallcaps\">A</span>-Cyclopentylbenzeneacetic acid;NSC 68311",
    "duplicated_cas_no": "73522-27-7",
    "SMILES": "C(C(O)=O)(C1=CC=CC=C1)C2CCCC2",
    "meta_data": {
        "InChI": "InChI=1S/C13H16O2/c14-13(15)12(11-8-4-5-9-11)10-6-2-1-3-7-10/h1-3,6-7,11-12H,4-5,8-9H2,(H,14,15)",
        "InChIKey": null,
        "Canonical SMILES": "O=C(O)C(C=1C=CC=CC1)C2CCCC2",
        "Molecular Formula": "C<sub>13</sub>H<sub>16</sub>O<sub>2</sub>",
        "Molecular Mass": "204.26",
        "Melting Point": "103 °C"
    }
}