{
    "cas_no": "1885-32-1",
    "key_name": "2-Amino-3-methylbenzamide",
    "cn_name": null,
    "alternate_name": "Benzamide, 2-amino-3-methyl-;<em>m</em>-Toluamide, 2-amino-;2-Amino-3-methylbenzamide",
    "duplicated_cas_no": "",
    "SMILES": "C(N)(=O)C1=C(N)C(C)=CC=C1",
    "meta_data": {
        "InChI": "InChI=1S/C8H10N2O/c1-5-3-2-4-6(7(5)9)8(10)11/h2-4H,9H2,1H3,(H2,10,11)",
        "InChIKey": null,
        "Canonical SMILES": "O=C(N)C1=CC=CC(=C1N)C",
        "Molecular Formula": "C<sub>8</sub>H<sub>10</sub>N<sub>2</sub>O",
        "Molecular Mass": "150.18",
        "Melting Point": "149 °C"
    }
}