{
    "cas_no": "82419-36-1",
    "key_name": "Ofloxacin",
    "cn_name": "菲宁达;氧氟沙星;(+/-)-9-氟-2,3-二氢-3-甲基-10-(4-甲基-1-哌嗪基)-7-氧代-7H-吡啶并[1,2,3-de]-[1,4]苯并;",
    "alternate_name": "7<em>H</em>-Pyrido[1,2,3-<em>de</em>]-1,4-benzoxazine-6-carboxylic acid, 9-fluoro-2,3-dihydro-3-methyl-10-(4-methyl-1-piperazinyl)-7-oxo-;7<em>H</em>-Pyrido[1,2,3-<em>de</em>]-1,4-benzoxazine-6-carboxylic acid, 9-fluoro-2,3-dihydro-3-methyl-10-(4-methyl-1-piperazinyl)-7-oxo-, (±)-;9-Fluoro-2,3-dihydro-3-methyl-10-(4-methyl-1-piperazinyl)-7-oxo-7<em>H</em>-pyrido[1,2,3-<em>de</em>]-1,4-benzoxazine-6-carboxylic acid;DL 8280;Ofloxacine;HOE 280;Ofloxacin;(±)-Ofloxacin;ORF 18489;PT 01;Tarivid;Floxin;Visiren;9-Fluoro-3-methyl-10-(4-methyl-1-piperazinyl)-7-oxo-2,3-dihydro-7<em>H</em>-pyrido[1,2,3-<em>de</em>]-1,4-benzoxazine-6-carboxylic acid;9-Fluoro-2,3-dihydro-3-methyl-10-(<em>N</em>-methylpiperazinyl)-7-oxo-7<em>H</em>-pyrido[1,2,3-<em>de</em>]-1,4-benzoxazine-6-carboxylic acid;Ocuflox;Oflox;Floxal;Floxil;Flobacin;Visren;Exocin;Oxaldin;Oflocet;Oflocin;Tariferid;Ofloxin;Zanocin;Oflin;WP 0405;Ofxin;Ofloren;Oflovir;Surnor;Kirol;Prifloxcin;Olfo 200;Prifloxin;Tarivan;Meneflox;Sanke;Gailuoxian;Oflicin;OFLO;Oquin;Zenflox;Traflox;Otoxin;9-Fluoro-2,3-dihydro-3-methyl-10-(4-methyl-piperazinyl)-7-oxo-7<em>H</em>-pyrido[1,2,3-<em>de</em>]-1,4-benzoxazine-6-carboxylic acid;Pyfloxat;MeSH ID: D015242",
    "duplicated_cas_no": "83380-47-6;85344-55-4;86784-41-0;303013-04-9;860813-30-5",
    "SMILES": "O=C1C=2C3=C(C(=C(F)C2)N4CCN(C)CC4)OCC(C)N3C=C1C(O)=O",
    "meta_data": {
        "InChI": "InChI=1S/C18H20FN3O4/c1-10-9-26-17-14-11(16(23)12(18(24)25)8-22(10)14)7-13(19)15(17)21-5-3-20(2)4-6-21/h7-8,10H,3-6,9H2,1-2H3,(H,24,25)",
        "InChIKey": null,
        "Canonical SMILES": "O=C(O)C1=CN2C3=C(OCC2C)C(=C(F)C=C3C1=O)N4CCN(C)CC4",
        "Molecular Formula": "C<sub>18</sub>H<sub>20</sub>FN<sub>3</sub>O<sub>4</sub>",
        "Molecular Mass": "361.37",
        "Melting Point": "254 °C (decomp)"
    }
}