{
    "cas_no": "87-33-2",
    "key_name": "Isosorbide dinitrate",
    "cn_name": "硝酸异山梨酯;1,4:3,6-二脱水-D-山梨醇二硝酸酯;",
    "alternate_name": "<span class=\"text-smallcaps\">D</span>-Glucitol, 1,4:3,6-dianhydro-, 2,5-dinitrate;Glucitol, 1,4:3,6-dianhydro-, dinitrate, <span class=\"text-smallcaps\">D</span>-;<span class=\"text-smallcaps\">D</span>-Glucitol, 1,4:3,6-dianhydro-, dinitrate;Glucitol, 1,4:3,6-dianhydro-, dinitrate;Sorbitol, 1,4:3,6-dianhydro-, dinitrate;Furo[3,2-<em>b</em>]furan, <span class=\"text-smallcaps\">D</span>-glucitol deriv.;1,4:3,6-Dianhydro-<span class=\"text-smallcaps\">D</span>-sorbitol 2,5-dinitrate;Dinitrosorbide;Harrical;Isordil;Isordil Tembids;Isosorbide dinitrate;Nitrosorbide;Sorbide dinitrate;Sorbidnitrate;Carvanil;Carvasin;Cedocard;Cardis;Maycor;Isoket;Isorbid;Rigedal;Sorbangil;Sorbidilat;Sorquad;Sorbitrate;Vascardin;Vasorbate;Sorbonit;Nitrosorbid;Korodil;1,4:3,6-Dianhydrosorbitol 2,5-dinitrate;Resoidan;Claodical;Sorbide nitrate;Corosorbide;Flindix;ISDN;Isodinit;Isosorbide 2,5-dinitrate;Isoket retard 40;Isosorbide nitrate;Frandol;Dinitroisosorbide;<span class=\"text-smallcaps\">D</span>-Isosorbide dinitrate;TYB 3215;1,4:3,6-Dianhydro-<span class=\"text-smallcaps\">D</span>-glucitol 2,5-dinitrate;Sorbopercuten;Dilatrate SR;Vasotrate;SDM 25;EureCor;Laserdil;Rifloc Retard;Isdin;Nitorol;Myorexon;Iso-Mack;Isostenase;Duranitrat;Dilatrate;Cardio 10;Diniket;Nitrosorbonl Nosim;Sorbichew;Risordan;Dignionitrat;Isocard;Corovliss;Iso-Bid;Astridine;Langoran;Iso-Puren;Sorbid SA;Imtack;IBD;Glentonin;Isotrate;Disorlon;SDM 40;Nitrol;Soni-Slo;Nitrofix;Cardiket;NSC 80038;EV 151;Isonate?;Isocore;MeSH ID: D007548",
    "duplicated_cas_no": "6659-58-1;54650-95-2",
    "SMILES": "O(N(=O)=O)[C@H]1[C@@]2([C@@]([C@@H](ON(=O)=O)CO2)(OC1)[H])[H]",
    "meta_data": {
        "InChI": "InChI=1S/C6H8N2O8/c9-7(10)15-3-1-13-6-4(16-8(11)12)2-14-5(3)6/h3-6H,1-2H2/t3-,4+,5-,6-/m1/s1",
        "InChIKey": null,
        "Canonical SMILES": "O=N(=O)OC1COC2C(ON(=O)=O)COC12",
        "Molecular Formula": "C<sub>6</sub>H<sub>8</sub>N<sub>2</sub>O<sub>8</sub>",
        "Molecular Mass": "236.14",
        "Melting Point": "70 °C"
    }
}