{
    "cas_no": "35453-19-1",
    "key_name": "5-Amino-2,4,6-triiodo-1,3-benzenedicarboxylic acid",
    "cn_name": "5-氨基-2,4,6-三碘间苯二甲酸;5-氨基-2,4,6-三碘异酞酸;",
    "alternate_name": "1,3-Benzenedicarboxylic acid, 5-amino-2,4,6-triiodo-;Isophthalic acid, 5-amino-2,4,6-triiodo-;5-Amino-2,4,6-triiodo-1,3-benzenedicarboxylic acid;5-Amino-2,4,6-triiodoisophthalic acid;2,4,6-Triiodo-5-aminoisophthalic acid",
    "duplicated_cas_no": "",
    "SMILES": "C(O)(=O)C1=C(I)C(C(O)=O)=C(I)C(N)=C1I",
    "meta_data": {
        "InChI": "InChI=1S/C8H4I3NO4/c9-3-1(7(13)14)4(10)6(12)5(11)2(3)8(15)16/h12H2,(H,13,14)(H,15,16)",
        "InChIKey": null,
        "Canonical SMILES": "O=C(O)C1=C(I)C(N)=C(I)C(C(=O)O)=C1I",
        "Molecular Formula": "C<sub>8</sub>H<sub>4</sub>I<sub>3</sub>NO<sub>4</sub>",
        "Molecular Mass": "558.84",
        "Melting Point": "278-280 °C (decomp)"
    }
}