{
    "cas_no": "3209-72-1",
    "key_name": "Ethyl 5-methylisoxazole-3-carboxylate",
    "cn_name": "5-甲基-3-异噁唑羧酸乙酯;5-甲基异唑-3-甲基酸酯;",
    "alternate_name": "3-Isoxazolecarboxylic acid, 5-methyl-, ethyl ester;Ethyl 5-methylisoxazole-3-carboxylate;5-Methylisoxazole-3-carboxylic acid ethyl ester;Ethyl 5-methylisoxazle-3-carboxylate",
    "duplicated_cas_no": "",
    "SMILES": "C(OCC)(=O)C1=NOC(C)=C1",
    "meta_data": {
        "InChI": "InChI=1S/C7H9NO3/c1-3-10-7(9)6-4-5(2)11-8-6/h4H,3H2,1-2H3",
        "InChIKey": null,
        "Canonical SMILES": "O=C(OCC)C1=NOC(=C1)C",
        "Molecular Formula": "C<sub>7</sub>H<sub>9</sub>NO<sub>3</sub>",
        "Molecular Mass": "155.15",
        "Boiling Point": "130 °C @ Press: 33 Torr"
    }
}