{
    "cas_no": "443-82-3",
    "key_name": "3-Fluoro-<em>o</em>-xylene",
    "cn_name": "2,3-二甲基氟苯;3-氟邻二甲苯;",
    "alternate_name": "Benzene, 1-fluoro-2,3-dimethyl-;<em>o</em>-Xylene, 3-fluoro-;1-Fluoro-2,3-dimethylbenzene;3-Fluoro-1,2-xylene;3-Fluoro-<em>o</em>-xylene;6-Methyl-2-fluorotoluene;3-Fluoro-1,2-dimethylbenzene;2,3-Dimethylfluorobenzene;NSC 76081",
    "duplicated_cas_no": "",
    "SMILES": "CC1=C(C)C=CC=C1F",
    "meta_data": {
        "InChI": "InChI=1S/C8H9F/c1-6-4-3-5-8(9)7(6)2/h3-5H,1-2H3",
        "InChIKey": null,
        "Canonical SMILES": "FC1=CC=CC(=C1C)C",
        "Molecular Formula": "C<sub>8</sub>H<sub>9</sub>F",
        "Molecular Mass": "124.16",
        "Boiling Point": "148-152 °C"
    }
}