{
    "cas_no": "529-44-2",
    "key_name": "Myricetin",
    "cn_name": "杨梅素;杨梅苷;杨梅甙;3,5,7-三羟基-2-(3,4,5-三羟基苯基)-4H-1-苯并呋喃-4-酮;",
    "alternate_name": "4<em>H</em>-1-Benzopyran-4-one, 3,5,7-trihydroxy-2-(3,4,5-trihydroxyphenyl)-;Flavone, 3,3′,4′,5,5′,7-hexahydroxy-;3,5,7-Trihydroxy-2-(3,4,5-trihydroxyphenyl)-4<em>H</em>-1-benzopyran-4-one;Cannabiscetin;3,5,7,3′,4′,5′-Hexahydroxyflavone;Myricetin;Myricetol;3,3′,4′,5,5′,7-Hexahydroxyflavone;NSC 407290;LDN 0014058;NCBI 5281672;3,5,7-Trihydroxy-2-(3,4,5-trihydroxyphenyl)chromen-4-one;3,5,7-Trihydroxy-2-(3,4,5-trihydroxyphenyl)-4<em>H</em>-chromen-4-one;Miricetol",
    "duplicated_cas_no": "",
    "SMILES": "O=C1C=2C(OC(=C1O)C3=CC(O)=C(O)C(O)=C3)=CC(O)=CC2O",
    "meta_data": {
        "InChI": "InChI=1S/C15H10O8/c16-6-3-7(17)11-10(4-6)23-15(14(22)13(11)21)5-1-8(18)12(20)9(19)2-5/h1-4,16-20,22H",
        "InChIKey": null,
        "Canonical SMILES": "O=C1C(O)=C(OC=2C=C(O)C=C(O)C12)C=3C=C(O)C(O)=C(O)C3",
        "Molecular Formula": "C<sub>15</sub>H<sub>10</sub>O<sub>8</sub>",
        "Molecular Mass": "318.24",
        "Melting Point": "357 °C"
    }
}