{
    "cas_no": "41964-07-2",
    "key_name": "5-(3-Methylphenoxy)-2(1<em>H</em>)-pyrimidinone",
    "cn_name": null,
    "alternate_name": "2(1<em>H</em>)-Pyrimidinone, 5-(3-methylphenoxy)-;5-(3-Methylphenoxy)-2(1<em>H</em>)-pyrimidinone;Tolimidone;CP 26154;NSC 314335;MLR 1023",
    "duplicated_cas_no": "",
    "SMILES": "O(C1=CC(C)=CC=C1)C2=CNC(=O)N=C2",
    "meta_data": {
        "InChI": "InChI=1S/C11H10N2O2/c1-8-3-2-4-9(5-8)15-10-6-12-11(14)13-7-10/h2-7H,1H3,(H,12,13,14)",
        "InChIKey": null,
        "Canonical SMILES": "O=C1N=CC(OC2=CC=CC(=C2)C)=CN1",
        "Molecular Formula": "C<sub>11</sub>H<sub>10</sub>N<sub>2</sub>O<sub>2</sub>",
        "Molecular Mass": "202.21",
        "Melting Point": "163-164 °C"
    }
}