{
    "cas_no": "25979-07-1",
    "key_name": "<em>tert</em>-Butyldichlorophosphine",
    "cn_name": "叔丁基二氯化膦;",
    "alternate_name": "Phosphonous dichloride, <em>P</em>-(1,1-dimethylethyl)-;Phosphonous dichloride, <em>tert</em>-butyl-;Phosphonous dichloride, (1,1-dimethylethyl)-;<em>P</em>-(1,1-Dimethylethyl)phosphonous dichloride;<em>tert</em>-Butyldichlorophosphine;<em>tert</em>-Butylphosphonous dichloride;Dichloro-<em>tert</em>-butylphosphine;<em>tert</em>-Butylphosphine dichloride;t-BuPCl<sub>2</sub>",
    "duplicated_cas_no": "",
    "SMILES": "C(P(Cl)Cl)(C)(C)C",
    "meta_data": {
        "InChI": "InChI=1S/C4H9Cl2P/c1-4(2,3)7(5)6/h1-3H3",
        "InChIKey": null,
        "Canonical SMILES": "ClP(Cl)C(C)(C)C",
        "Molecular Formula": "C<sub>4</sub>H<sub>9</sub>Cl<sub>2</sub>P",
        "Molecular Mass": "158.99",
        "Boiling Point": "146-148 °C",
        "Melting Point": "44-49 °C"
    }
}