{
    "cas_no": "125317-39-7",
    "key_name": "Navelbine",
    "cn_name": "酒石酸长春瑞滨;长春瑞宾双酒石酸盐;",
    "alternate_name": "Aspidospermidine-3-carboxylic acid, 4-(acetyloxy)-6,7-didehydro-15-[(2<em>R</em>,6<em>R</em>,8<em>S</em>)-4-ethyl-1,3,6,7,8,9-hexahydro-8-(methoxycarbonyl)-2,6-methano-2<em>H</em>-azecino[4,3-<em>b</em>]indol-8-yl]-3-hydroxy-16-methoxy-1-methyl-, methyl ester, (2β,3β,4β,5α,12<em>R</em>,19α)-, (2<em>R</em>,3<em>R</em>)-2,3-dihydroxybutanedioate (1:2) (salt);<em>C</em>′-Norvincaleukoblastine, 3′,4′-didehydro-4′-deoxy-, [<em>R</em>-(<em>R</em>*,<em>R</em>*)]-2,3-dihydroxybutanedioate (1:2) (salt);Vinorelbine ditartrate;KW 2307;Navelbine ditartrate;Vinorelbine tartrate;Navelbine;Nor-5′-anhydrovinblastine ditartrate;Aspidospermidine-3-carboxylic acid, 4-(acetyloxy)-6,7-didehydro-15-[(2<em>R</em>,6<em>R</em>,8<em>S</em>)-4-ethyl-1,3,6,7,8,9-hexahydro-8-(methoxycarbonyl)-2,6-methano-2<em>H</em>-azecino[4,3-<em>b</em>]indol-8-yl]-3-hydroxy-16-methoxy-1-methyl-, methyl ester, (2β,3β,4β,5α,12β,19α)-, (2<em>R</em>,3<em>R</em>)-2,3-dihydroxybutanedioate (1:2) (salt);3′,4′-Didehydro-4′-deoxy-C′-norvincaleukoblastine tartrate",
    "duplicated_cas_no": "892125-21-2",
    "SMILES": "C(C)[C@@]12[C@]3([C@@]4([C@]([C@](C(OC)=O)(O)[C@@H]1OC(C)=O)(N(C)C=5C4=CC(=C(OC)C5)[C@]6(C(OC)=O)C7=C(C=8C(N7)=CC=CC8)C[N@@]9C[C@](C6)(C=C(CC)C9)[H])[H])CCN3CC=C2)[H].[C@@H]([C@H](C(O)=O)O)(C(O)=O)O",
    "meta_data": {
        "InChI": "InChI=1S/C45H54N4O8.C4H6O6/c1-8-27-19-28-22-44(40(51)55-6,36-30(25-48(23-27)24-28)29-13-10-11-14-33(29)46-36)32-20-31-34(21-35(32)54-5)47(4)38-43(31)16-18-49-17-12-15-42(9-2,37(43)49)39(57-26(3)50)45(38,53)41(52)56-7;5-1(3(7)8)2(6)4(9)10/h10-15,19-21,28,37-39,46,53H,8-9,16-18,22-25H2,1-7H3;1-2,5-6H,(H,7,8)(H,9,10)/t28-,37-,38+,39+,42+,43+,44-,45-;1-,2-/m01/s1",
        "InChIKey": null,
        "Canonical SMILES": "O=C(O)C(O)C(O)C(=O)O.O=C(OC1C(O)(C(=O)OC)C2N(C3=CC(OC)=C(C=C3C42CCN5CC=CC1(CC)C54)C6(C(=O)OC)C=7NC=8C=CC=CC8C7CN9CC(=CC(C9)C6)CC)C)C",
        "Molecular Formula": "C<sub>45</sub>H<sub>54</sub>N<sub>4</sub>O<sub>8</sub>.2C<sub>4</sub>H<sub>6</sub>O<sub>6</sub>",
        "Molecular Mass": "",
        "Melting Point": "190 °C"
    }
}