{
    "cas_no": "102065-89-4",
    "key_name": "3-Azetidinamine, hydrochloride (1:2)",
    "cn_name": "3-氨基氮杂环丁烷二盐酸盐;",
    "alternate_name": "3-Azetidinamine, hydrochloride (1:2);3-Azetidinamine, dihydrochloride;3-Aminoazetidine dihydrochloride",
    "duplicated_cas_no": "",
    "SMILES": "NC1CNC1.Cl",
    "meta_data": {
        "InChI": "InChI=1S/C3H8N2.2ClH/c4-3-1-5-2-3;;/h3,5H,1-2,4H2;2*1H",
        "InChIKey": null,
        "Canonical SMILES": "Cl.NC1CNC1",
        "Molecular Formula": "C<sub>3</sub>H<sub>8</sub>N<sub>2</sub>.2ClH",
        "Molecular Mass": "",
        "Melting Point": "162-163 °C"
    }
}