{
    "cas_no": "861118-00-5",
    "key_name": "3,5-Diiodo-4-methylbenzaldehyde",
    "cn_name": null,
    "alternate_name": "Benzaldehyde, 3,5-diiodo-4-methyl-;3,5-Diiodo-4-methylbenzaldehyde",
    "duplicated_cas_no": "",
    "SMILES": "C(=O)C1=CC(I)=C(C)C(I)=C1",
    "meta_data": {
        "InChI": "InChI=1S/C8H6I2O/c1-5-7(9)2-6(4-11)3-8(5)10/h2-4H,1H3",
        "InChIKey": null,
        "Canonical SMILES": "O=CC1=CC(I)=C(C(I)=C1)C",
        "Molecular Formula": "C<sub>8</sub>H<sub>6</sub>I<sub>2</sub>O",
        "Molecular Mass": "371.94",
        "Melting Point": "305-307 °C"
    }
}