{
    "cas_no": "32677-01-3",
    "key_name": "<span class=\"text-smallcaps\">L</span>-Glutamic acid, 1,5-bis(1,1-dimethylethyl) ester, hydrochloride (1:1)",
    "cn_name": "L-谷氨酸二叔丁酯盐酸盐;",
    "alternate_name": "<span class=\"text-smallcaps\">L</span>-Glutamic acid, 1,5-bis(1,1-dimethylethyl) ester, hydrochloride (1:1);<span class=\"text-smallcaps\">L</span>-Glutamic acid, bis(1,1-dimethylethyl) ester, hydrochloride;Glutamic acid, di-<em>tert</em>-butyl ester, hydrochloride, <span class=\"text-smallcaps\">L</span>-;<span class=\"text-smallcaps\">L</span>-Glutamic acid di-<em>tert</em>-butyl ester hydrochloride;Di-<em>tert</em>-butyl glutamate hydrochloride;Di-<em>tert</em>-butyl <span class=\"text-smallcaps\">L</span>-glutamate hydrochloride;Glutamic acid di-<em>tert</em>-butyl ester hydrochloride;NSC 94681;Di-<em>tert</em>-butyl (<em>S</em>)-2-aminopentanedioate hydrochloride",
    "duplicated_cas_no": "161195-69-3",
    "SMILES": "C([C@H](CCC(OC(C)(C)C)=O)N)(OC(C)(C)C)=O.Cl",
    "meta_data": {
        "InChI": "InChI=1S/C13H25NO4.ClH/c1-12(2,3)17-10(15)8-7-9(14)11(16)18-13(4,5)6;/h9H,7-8,14H2,1-6H3;1H/t9-;/m0./s1",
        "InChIKey": null,
        "Canonical SMILES": "Cl.O=C(OC(C)(C)C)CCC(N)C(=O)OC(C)(C)C",
        "Molecular Formula": "C<sub>13</sub>H<sub>25</sub>NO<sub>4</sub>.ClH",
        "Molecular Mass": "",
        "Melting Point": "133-135 °C"
    }
}