{
    "cas_no": "14059-92-8",
    "key_name": "4-Ethylsyringol",
    "cn_name": null,
    "alternate_name": "Phenol, 4-ethyl-2,6-dimethoxy-;4-Ethyl-2,6-dimethoxyphenol;4-Hydroxy-3,5-dimethoxyethylbenzene;2,6-Dimethoxy-4-ethylphenol;4-Ethylpyrogallol dimethyl ether;4-Ethylsyringol;1-Ethyl-3,5-dimethoxy-4-hydroxybenzene;4-Hydroxy-3,5-dimethoxyphenylethane;4-Ethylsryingol",
    "duplicated_cas_no": "",
    "SMILES": "O(C)C1=C(O)C(OC)=CC(CC)=C1",
    "meta_data": {
        "InChI": "InChI=1S/C10H14O3/c1-4-7-5-8(12-2)10(11)9(6-7)13-3/h5-6,11H,4H2,1-3H3",
        "InChIKey": null,
        "Canonical SMILES": "OC1=C(OC)C=C(C=C1OC)CC",
        "Molecular Formula": "C<sub>10</sub>H<sub>14</sub>O<sub>3</sub>",
        "Molecular Mass": "182.22",
        "Boiling Point": "272-274 °C"
    }
}