{
    "cas_no": "62610-77-9",
    "key_name": "<em>trans</em>-Methacrifos",
    "cn_name": "虫螨畏;丁烯硫磷;",
    "alternate_name": "2-Propenoic acid, 3-[(dimethoxyphosphinothioyl)oxy]-2-methyl-, methyl ester, (2<em>E</em>)-;2-Propenoic acid, 3-[(dimethoxyphosphinothioyl)oxy]-2-methyl-, methyl ester, (<em>E</em>)-;CGA 20168;<em>trans</em>-Methacrifos",
    "duplicated_cas_no": "",
    "SMILES": "P(O/C=C(/C(OC)=O)\\C)(OC)(OC)=S",
    "meta_data": {
        "InChI": "InChI=1S/C7H13O5PS/c1-6(7(8)9-2)5-12-13(14,10-3)11-4/h5H,1-4H3/b6-5+",
        "InChIKey": null,
        "Canonical SMILES": "O=C(OC)C(=COP(=S)(OC)OC)C",
        "Molecular Formula": "C<sub>7</sub>H<sub>13</sub>O<sub>5</sub>PS",
        "Molecular Mass": "240.21",
        "Boiling Point": "90 °C",
        "Melting Point": "&lt;25 °C"
    }
}