{
    "cas_no": "15537-71-0",
    "key_name": "<em>N</em>-Acetylpenicillamine",
    "cn_name": null,
    "alternate_name": "<span class=\"text-smallcaps\">D</span>-Valine, <em>N</em>-acetyl-3-mercapto-;Valine, <em>N</em>-acetyl-3-mercapto-, <span class=\"text-smallcaps\">D</span>-;<em>N</em>-Acetyl-3-mercapto-<span class=\"text-smallcaps\">D</span>-valine;<em>N</em>-Acetyl-<span class=\"text-smallcaps\">D</span>-penicillamine;<em>N</em>-Acetylpenicillamine;<em>N</em>-Acetyl-3-mercaptovaline;(<em>S</em>)-2-Acetamido-3-mercapto-3-methylbutanoic acid;(2S)-2-Acetamido-3-methyl-3-sulfanylbutanoic acid",
    "duplicated_cas_no": "7672-80-2",
    "SMILES": "[C@@H](NC(C)=O)(C(C)(C)S)C(O)=O",
    "meta_data": {
        "InChI": "InChI=1S/C7H13NO3S/c1-4(9)8-5(6(10)11)7(2,3)12/h5,12H,1-3H3,(H,8,9)(H,10,11)/t5-/m0/s1",
        "InChIKey": null,
        "Canonical SMILES": "O=C(O)C(NC(=O)C)C(S)(C)C",
        "Molecular Formula": "C<sub>7</sub>H<sub>13</sub>NO<sub>3</sub>S",
        "Molecular Mass": "191.25",
        "Melting Point": "183 °C"
    }
}