{
    "cas_no": "945-24-4",
    "key_name": "2,4-Diamino-6-hydroxymethylpteridine",
    "cn_name": "2,4-二氨基-6-羟甲基蝶啶;",
    "alternate_name": "6-Pteridinemethanol, 2,4-diamino-;2,4-Diamino-6-pteridinemethanol;2,4-Diamino-6-hydroxymethylpteridine;(2,4-Diaminopteridin-6-yl)methanol",
    "duplicated_cas_no": "",
    "SMILES": "NC=1C2=C(N=C(N)N1)N=CC(CO)=N2",
    "meta_data": {
        "InChI": "InChI=1S/C7H8N6O/c8-5-4-6(13-7(9)12-5)10-1-3(2-14)11-4/h1,14H,2H2,(H4,8,9,10,12,13)",
        "InChIKey": null,
        "Canonical SMILES": "OCC=1N=C2C(=NC1)N=C(N=C2N)N",
        "Molecular Formula": "C<sub>7</sub>H<sub>8</sub>N<sub>6</sub>O",
        "Molecular Mass": "192.18",
        "Melting Point": "333-334 °C (decomp)"
    }
}