{
    "cas_no": "610-02-6",
    "key_name": "2,3,4-Trihydroxybenzoic acid",
    "cn_name": "2,3,4-三羟基苯甲酸;",
    "alternate_name": "Benzoic acid, 2,3,4-trihydroxy-;2,3,4-Trihydroxybenzoic acid;2,3,4-Trihydroxybenzenecarboxylic acid;4-Pyrogallolcarboxylic acid;NSC 27436",
    "duplicated_cas_no": "",
    "SMILES": "C(O)(=O)C1=C(O)C(O)=C(O)C=C1",
    "meta_data": {
        "InChI": "InChI=1S/C7H6O5/c8-4-2-1-3(7(11)12)5(9)6(4)10/h1-2,8-10H,(H,11,12)",
        "InChIKey": null,
        "Canonical SMILES": "O=C(O)C1=CC=C(O)C(O)=C1O",
        "Molecular Formula": "C<sub>7</sub>H<sub>6</sub>O<sub>5</sub>",
        "Molecular Mass": "170.12",
        "Melting Point": "221 °C"
    }
}