{
    "cas_no": "3033-77-0",
    "key_name": "Glycidyltrimethylammonium chloride",
    "cn_name": "2,3-环氧丙基三甲基氯化铵;氯化缩水甘油三甲基铵;",
    "alternate_name": "2-Oxiranemethanaminium, <em>N</em>,<em>N</em>,<em>N</em>-trimethyl-, chloride (1:1);Ammonium, (2,3-epoxypropyl)trimethyl-, chloride;Oxiranemethanaminium, <em>N</em>,<em>N</em>,<em>N</em>-trimethyl-, chloride;(2,3-Epoxypropyl)trimethylammonium chloride;Glycidyltrimethylammonium chloride;1-(Trimethylammonio)-2,3-epoxypropane chloride;(β,γ-Epoxypropyl)trimethylammonium chloride;Trimethylglycidylammonium chloride;<em>N</em>-Glycidyl-<em>N</em>,<em>N</em>,<em>N</em>-trimethylammonium chloride;Glytac A 100;1,2-Epoxy-3-(trimethylammonio)propyl chloride;Glytac;G-MAC;Glytac A;<em>N</em>-Glycidyltrimethylammonium chloride;Catiomaster G;QUAB 151;Wildye PTC;[(Trimethylammonio)methyl]oxirane chloride;Weisstex E 100;SY-GTA 80;ETA (onium compound);ETA;NSC 51213;Raisacat 151;Fluka 50053",
    "duplicated_cas_no": "129829-22-7",
    "SMILES": "C([N+](C)(C)C)C1CO1.[Cl-]",
    "meta_data": {
        "InChI": "InChI=1S/C6H14NO.ClH/c1-7(2,3)4-6-5-8-6;/h6H,4-5H2,1-3H3;1H/q+1;/p-1",
        "InChIKey": null,
        "Canonical SMILES": "[Cl-].O1CC1C[N+](C)(C)C",
        "Molecular Formula": "C<sub>6</sub>H<sub>14</sub>NO.Cl",
        "Molecular Mass": "",
        "Melting Point": "137-139 °C"
    }
}