{
    "cas_no": "27876-94-4",
    "key_name": "Crocetin",
    "cn_name": null,
    "alternate_name": "2,4,6,8,10,12,14-Hexadecaheptaenedioic acid, 2,6,11,15-tetramethyl-, (2<em>E</em>,4<em>E</em>,6<em>E</em>,8<em>E</em>,10<em>E</em>,12<em>E</em>,14<em>E</em>)-;2,4,6,8,10,12,14-Hexadecaheptaenedioic acid, 2,6,11,15-tetramethyl-, (<em>all</em>-<em>E</em>)-;8,8′-Diapo-ψ,ψ-carotenedioic acid;Crocetin;(2<em>E</em>,4<em>E</em>,6<em>E</em>,8<em>E</em>,10<em>E</em>,12<em>E</em>,14<em>E</em>)-2,6,11,15-Tetramethyl-2,4,6,8,10,12,14-hexadecaheptaenedioic acid;α-Crocetin;Crocetin (stable);<em>trans</em>-Crocetin;Stable crocetin;NSC 407300;Transcrocetin;Apocarotenic acid;Crobit P;LEAF-4L6715;LEAF 4L 6715",
    "duplicated_cas_no": "504-39-2;763872-89-5;189148-59-2",
    "SMILES": "C(=C(/C(O)=O)\\C)\\C=C\\C(=C\\C=C\\C=C(\\C=C\\C=C(\\C(O)=O)/C)/C)\\C",
    "meta_data": {
        "InChI": "InChI=1S/C20H24O4/c1-15(11-7-13-17(3)19(21)22)9-5-6-10-16(2)12-8-14-18(4)20(23)24/h5-14H,1-4H3,(H,21,22)(H,23,24)/b6-5+,11-7+,12-8+,15-9+,16-10+,17-13+,18-14+",
        "InChIKey": null,
        "Canonical SMILES": "O=C(O)C(=CC=CC(=CC=CC=C(C=CC=C(C(=O)O)C)C)C)C",
        "Molecular Formula": "C<sub>20</sub>H<sub>24</sub>O<sub>4</sub>",
        "Molecular Mass": "328.40",
        "Melting Point": "286 °C"
    }
}