{
    "cas_no": "10191-60-3",
    "key_name": "Dimethyl <em>N</em>-cyanodithioiminocarbonate",
    "cn_name": "N-氰亚胺基-S,S-二硫代碳酸二甲酯;",
    "alternate_name": "Carbonimidodithioic acid, <em>N</em>-cyano-, dimethyl ester;Imidocarbonic acid, cyanodithio-, dimethyl ester;Carbonimidodithioic acid, cyano-, dimethyl ester;Dimethyl cyanoiminodithiocarbonate;<em>S</em>,<em>S</em>-Dimethyl (<em>N</em>-cyanoimido)dithiocarbonate;<em>S</em>,<em>S</em>-Dimethyl cyanoiminodithiocarbamate;Dimethyl cyanimidodithiocarbonate;Dimethyl <em>N</em>-cyanoimidodithiocarbonate;(Cyanimino)bis(methylthio)methane;Dimethyl cyanocarbonimidodithioate;Dimethyl cyanodithioimidocarbonate;Dimethyl cyanoimidodithiocarbonate;(Cyanimino)dimethyldithiocarbonate;<em>S</em>,<em>S</em>′-Dimethyl cyanodithioimidocarbonate;Dimethyl <em>N</em>-cyanoiminodithiocarbonate;Dimethyl <em>N</em>-cyanodithioimidocarbonate;Dimethyl <em>N</em>-cyanodithiocarbonimidate;Dimethyl <em>N</em>-cyanodithioiminocarbonate;<em>N</em>-[Bis(methylthio)methylene]cyanamide;<em>N</em>-Cyanoiminodithiocarbonic acid dimethyl ester;<em>S</em>,<em>S</em>′-Dimethyl <em>N</em>-cyanodithioiminocarbonate;Dimethyl (<em>N</em>-cyano) carbonimidodithioate;NSC 145987;<em>S</em>,<em>S</em>-Dimethyl cyanoimidodithiocarbonate;Cyanocarbonodithioimidic acid dimethyl ester;[Bis(methylsulfanyl)methylidene](cyano)amine",
    "duplicated_cas_no": "",
    "SMILES": "C(=NC#N)(SC)SC",
    "meta_data": {
        "InChI": "InChI=1S/C4H6N2S2/c1-7-4(8-2)6-3-5/h1-2H3",
        "InChIKey": null,
        "Canonical SMILES": "N#CN=C(SC)SC",
        "Molecular Formula": "C<sub>4</sub>H<sub>6</sub>N<sub>2</sub>S<sub>2</sub>",
        "Molecular Mass": "146.23",
        "Melting Point": "48-52 °C"
    }
}