{
    "cas_no": "2973-10-6",
    "key_name": "Diisopropyl sulfate",
    "cn_name": "硫酸二异丙酯; 二异丙基硫酸酯;",
    "alternate_name": "Sulfuric acid, bis(1-methylethyl) ester;Isopropyl sulfate ((C<sub>3</sub>H<sub>7</sub>O)<sub>2</sub>SO<sub>2</sub>);Sulfuric acid, diisopropyl ester;Diisopropyl sulfate",
    "duplicated_cas_no": "",
    "SMILES": "O(S(OC(C)C)(=O)=O)C(C)C",
    "meta_data": {
        "InChI": "InChI=1S/C6H14O4S/c1-5(2)9-11(7,8)10-6(3)4/h5-6H,1-4H3",
        "InChIKey": null,
        "Canonical SMILES": "O=S(=O)(OC(C)C)OC(C)C",
        "Molecular Formula": "C<sub>6</sub>H<sub>14</sub>O<sub>4</sub>S",
        "Molecular Mass": "182.24",
        "Boiling Point": "78-80 °C @ Press: 2.7 Torr",
        "Density": "1.118 g/cm³ @ Temp: 0 °C"
    }
}