{
    "cas_no": "4021-07-2",
    "key_name": "3-Methylpicolinic acid",
    "cn_name": "3-甲基-2-吡啶甲酸;3-甲基-2-吡啶羧酸;",
    "alternate_name": "2-Pyridinecarboxylic acid, 3-methyl-;Picolinic acid, 3-methyl-;3-Methyl-2-pyridinecarboxylic acid;3-Methyl-2-picolinic acid;3-Methylpicolinic acid;NSC 109145;NSC 109148",
    "duplicated_cas_no": "",
    "SMILES": "C(O)(=O)C1=C(C)C=CC=N1",
    "meta_data": {
        "InChI": "InChI=1S/C7H7NO2/c1-5-3-2-4-8-6(5)7(9)10/h2-4H,1H3,(H,9,10)",
        "InChIKey": null,
        "Canonical SMILES": "O=C(O)C1=NC=CC=C1C",
        "Molecular Formula": "C<sub>7</sub>H<sub>7</sub>NO<sub>2</sub>",
        "Molecular Mass": "137.14",
        "Melting Point": "118 °C"
    }
}