{
    "cas_no": "27779-29-9",
    "key_name": "Isopinocampheol",
    "cn_name": null,
    "alternate_name": "Bicyclo[3.1.1]heptan-3-ol, 2,6,6-trimethyl-, (1<em>R</em>,2<em>R</em>,3<em>R</em>,5<em>S</em>)-<em>rel</em>-;3-Pinanol, stereoisomer;Bicyclo[3.1.1]heptan-3-ol, 2,6,6-trimethyl-, (1α,2β,3α,5α)-;<em>rel</em>-(1<em>R</em>,2<em>R</em>,3<em>R</em>,5<em>S</em>)-2,6,6-Trimethylbicyclo[3.1.1]heptan-3-ol;Isopinocampheol;(±)-Isopinocampheol;<em>rac</em>-Isopinocampheol;NSC 167499",
    "duplicated_cas_no": "15358-89-1;51152-11-5",
    "SMILES": "CC1(C)[C@]2(C[C@@]1(C[C@H](O)[C@H]2C)[H])[H]",
    "meta_data": {
        "InChI": "InChI=1/C10H18O/c1-6-8-4-7(5-9(6)11)10(8,2)3/h6-9,11H,4-5H2,1-3H3/t6-,7+,8-,9-/s2",
        "InChIKey": null,
        "Canonical SMILES": "OC1CC2CC(C1C)C2(C)C",
        "Molecular Formula": "C<sub>10</sub>H<sub>18</sub>O",
        "Molecular Mass": "154.25",
        "Melting Point": "54-56 °C (sublm)"
    }
}