{
    "cas_no": "1445-07-4",
    "key_name": "Pseudouridine",
    "cn_name": "假尿苷;假尿苷;",
    "alternate_name": "2,4(1<em>H</em>,3<em>H</em>)-Pyrimidinedione, 5-β-<span class=\"text-smallcaps\">D</span>-ribofuranosyl-;Uracil, 5-β-<span class=\"text-smallcaps\">D</span>-ribofuranosyl-;5-β-<span class=\"text-smallcaps\">D</span>-Ribofuranosyl-2,4(1<em>H</em>,3<em>H</em>)-pyrimidinedione;Pseudouridine C;5-Ribosyluracil;β-Pseudouridine;Pseudouridine;β-<span class=\"text-smallcaps\">D</span>-Pseudouridine;ψ-Uridine;5-(β-<span class=\"text-smallcaps\">D</span>-Ribofuranosyl)uracil;NSC 162405;1: PN: WO2017201317 SEQID: 1 claimed DNA;MeSH ID: D011560;Pseudouracil;<em>pseudo</em>-Uridine",
    "duplicated_cas_no": "",
    "SMILES": "O[C@H]1[C@@H](O[C@H](CO)[C@H]1O)C=2C(=O)NC(=O)NC2",
    "meta_data": {
        "InChI": "InChI=1S/C9H12N2O6/c12-2-4-5(13)6(14)7(17-4)3-1-10-9(16)11-8(3)15/h1,4-7,12-14H,2H2,(H2,10,11,15,16)/t4-,5-,6-,7+/m1/s1",
        "InChIKey": null,
        "Canonical SMILES": "O=C1NC=C(C(=O)N1)C2OC(CO)C(O)C2O",
        "Molecular Formula": "C<sub>9</sub>H<sub>12</sub>N<sub>2</sub>O<sub>6</sub>",
        "Molecular Mass": "244.20",
        "Melting Point": "222 °C"
    }
}