{
    "cas_no": "548-19-6",
    "key_name": "Isoginkgetin",
    "cn_name": "异银杏双黄酮;",
    "alternate_name": "4<em>H</em>-1-Benzopyran-4-one, 8-[5-(5,7-dihydroxy-4-oxo-4<em>H</em>-1-benzopyran-2-yl)-2-methoxyphenyl]-5,7-dihydroxy-2-(4-methoxyphenyl)-;3′′′,8-Biflavone, 5,5′′,7,7′′-tetrahydroxy-4′,4′′′-dimethoxy-;Isoginkgetin;8-[5-(5,7-Dihydroxy-4-oxo-4<em>H</em>-1-benzopyran-2-yl)-2-methoxyphenyl]-5,7-dihydroxy-2-(4-methoxyphenyl)-4<em>H</em>-1-benzopyran-4-one;4′,4′′′-Dimethylamentoflavone",
    "duplicated_cas_no": "",
    "SMILES": "OC=1C(=C2C(C(=O)C=C(O2)C3=CC=C(OC)C=C3)=C(O)C1)C4=CC(=CC=C4OC)C=5OC=6C(C(=O)C5)=C(O)C=C(O)C6",
    "meta_data": {
        "InChI": "InChI=1S/C32H22O10/c1-39-18-6-3-15(4-7-18)26-14-24(38)31-22(36)12-21(35)29(32(31)42-26)19-9-16(5-8-25(19)40-2)27-13-23(37)30-20(34)10-17(33)11-28(30)41-27/h3-14,33-36H,1-2H3",
        "InChIKey": null,
        "Canonical SMILES": "O=C1C=C(OC=2C=C(O)C=C(O)C12)C=3C=CC(OC)=C(C3)C4=C(O)C=C(O)C=5C(=O)C=C(OC54)C=6C=CC(OC)=CC6",
        "Molecular Formula": "C<sub>32</sub>H<sub>22</sub>O<sub>10</sub>",
        "Molecular Mass": "566.51",
        "Melting Point": "355 °C"
    }
}