{
    "cas_no": "16731-68-3",
    "key_name": "2-Undecylimidazole",
    "cn_name": "2-十一烷基咪唑;",
    "alternate_name": "1<em>H</em>-Imidazole, 2-undecyl-;Imidazole, 2-undecyl-;2-Undecyl-1<em>H</em>-imidazole;2-Undecylimidazole;Curezol C<sub>11</sub>Z;C 11Z;Thiolite T 869;T 869;Curezol C<sub>11</sub>Z-PW",
    "duplicated_cas_no": "",
    "SMILES": "C(CCCCCCCCCC)C=1NC=CN1",
    "meta_data": {
        "InChI": "InChI=1S/C14H26N2/c1-2-3-4-5-6-7-8-9-10-11-14-15-12-13-16-14/h12-13H,2-11H2,1H3,(H,15,16)",
        "InChIKey": null,
        "Canonical SMILES": "N=1C=CNC1CCCCCCCCCCC",
        "Molecular Formula": "C<sub>14</sub>H<sub>26</sub>N<sub>2</sub>",
        "Molecular Mass": "222.37",
        "Melting Point": "73-74 °C"
    }
}