{
    "cas_no": "1074-55-1",
    "key_name": "1-Methyl-4-propylbenzene",
    "cn_name": "4-丙基甲苯;",
    "alternate_name": "Benzene, 1-methyl-4-propyl-;Toluene, <em>p</em>-propyl-;1-Methyl-4-propylbenzene;<em>p</em>-Propyltoluene;<em>p</em>-Methylpropylbenzene;1-Propyl-4-methylbenzene;4-<em>n</em>-Propyltoluene;1-Methyl-4-<em>n</em>-propylbenzene;4-Propyltoluene;4-Methyl-1-propylbenzene;NSC 73973",
    "duplicated_cas_no": "",
    "SMILES": "C(CC)C1=CC=C(C)C=C1",
    "meta_data": {
        "InChI": "InChI=1S/C10H14/c1-3-4-10-7-5-9(2)6-8-10/h5-8H,3-4H2,1-2H3",
        "InChIKey": null,
        "Canonical SMILES": "C=1C=C(C=CC1C)CCC",
        "Molecular Formula": "C<sub>10</sub>H<sub>14</sub>",
        "Molecular Mass": "134.22",
        "Boiling Point": "183.4 °C",
        "Melting Point": "-63.6 °C",
        "Density": "0.8642 g/cm³ @ Temp: 16.400009765625 °C"
    }
}