{
    "cas_no": "3878-41-9",
    "key_name": "2-[(Phenylmethyl)thio]ethanol",
    "cn_name": "2-苄硫基乙醇;",
    "alternate_name": "Ethanol, 2-[(phenylmethyl)thio]-;Ethanol, 2-(benzylthio)-;2-[(Phenylmethyl)thio]ethanol;2-(Benzylthio)ethanol;2-Hydroxyethyl benzyl sulfide;NSC 404004;Benzyl 2-hydroxyethylsulfide;2-Benzylsulfanylethanol;2-(Benzylsulfanyl)ethan-1-ol",
    "duplicated_cas_no": "",
    "SMILES": "C(SCCO)C1=CC=CC=C1",
    "meta_data": {
        "InChI": "InChI=1S/C9H12OS/c10-6-7-11-8-9-4-2-1-3-5-9/h1-5,10H,6-8H2",
        "InChIKey": null,
        "Canonical SMILES": "OCCSCC=1C=CC=CC1",
        "Molecular Formula": "C<sub>9</sub>H<sub>12</sub>OS",
        "Molecular Mass": "168.26",
        "Boiling Point": "169 °C @ Press: 18 Torr"
    }
}