{
    "cas_no": "2215-21-6",
    "key_name": "3,5-Diisopropylsalicylic acid",
    "cn_name": "3,5-二异丙基邻羟基苯甲酸;",
    "alternate_name": "Benzoic acid, 2-hydroxy-3,5-bis(1-methylethyl)-;Salicylic acid, 3,5-diisopropyl-;2-Hydroxy-3,5-bis(1-methylethyl)benzoic acid;3,5-Diisopropylsalicylic acid;3,5-Diisopropyl-2-hydroxybenzoic acid;2-Hydroxy-3,5-diisopropylbenzoic acid;2-Hydroxy-3,5-bis(propan-2-yl)benzoic acid",
    "duplicated_cas_no": "",
    "SMILES": "C(C)(C)C1=C(O)C(C(O)=O)=CC(C(C)C)=C1",
    "meta_data": {
        "InChI": "InChI=1S/C13H18O3/c1-7(2)9-5-10(8(3)4)12(14)11(6-9)13(15)16/h5-8,14H,1-4H3,(H,15,16)",
        "InChIKey": null,
        "Canonical SMILES": "O=C(O)C=1C=C(C=C(C1O)C(C)C)C(C)C",
        "Molecular Formula": "C<sub>13</sub>H<sub>18</sub>O<sub>3</sub>",
        "Molecular Mass": "222.28",
        "Melting Point": "118.5 °C"
    }
}