{
    "cas_no": "1067-47-6",
    "key_name": "3-Cyanopropyltriethoxysilane",
    "cn_name": "3-氰丙基三乙氧基硅;",
    "alternate_name": "Butanenitrile, 4-(triethoxysilyl)-;Butyronitrile, 4-(triethoxysilyl)-;4-(Triethoxysilyl)butanenitrile;3-Cyanopropyltriethoxysilane;4-(Triethoxysilyl)butyronitrile;γ-Cyanopropyltriethoxysilane;GH 520;1-Cyano-3-triethoxysilylpropane",
    "duplicated_cas_no": "",
    "SMILES": "[Si](CCCC#N)(OCC)(OCC)OCC",
    "meta_data": {
        "InChI": "InChI=1S/C10H21NO3Si/c1-4-12-15(13-5-2,14-6-3)10-8-7-9-11/h4-8,10H2,1-3H3",
        "InChIKey": null,
        "Canonical SMILES": "N#CCCC[Si](OCC)(OCC)OCC",
        "Molecular Formula": "C<sub>10</sub>H<sub>21</sub>NO<sub>3</sub>Si",
        "Molecular Mass": "231.36",
        "Boiling Point": "79-80 °C @ Press: 0.6 Torr",
        "Density": "0.961 g/cm³"
    }
}