{
    "cas_no": "13871-68-6",
    "key_name": "Phenol, 4-amino-, 1-acetate",
    "cn_name": null,
    "alternate_name": "Phenol, 4-amino-, 1-acetate;Phenol, <em>p</em>-amino-, acetate (ester);Phenol, 4-amino-, acetate (ester);Phenol, <em>p</em>-amino-, acetate;<em>p</em>-Aminophenyl acetate;<em>p</em>-Acetoxyaniline;4-Aminophenyl acetate;4-Acetoxyaniline;Acetic acid 4-aminophenyl ester",
    "duplicated_cas_no": "",
    "SMILES": "O(C(C)=O)C1=CC=C(N)C=C1",
    "meta_data": {
        "InChI": "InChI=1S/C8H9NO2/c1-6(10)11-8-4-2-7(9)3-5-8/h2-5H,9H2,1H3",
        "InChIKey": null,
        "Canonical SMILES": "O=C(OC1=CC=C(N)C=C1)C",
        "Molecular Formula": "C<sub>8</sub>H<sub>9</sub>NO<sub>2</sub>",
        "Molecular Mass": "151.16",
        "Boiling Point": "173-174 °C @ Press: 14 Torr",
        "Melting Point": "75 °C"
    }
}