{
    "cas_no": "528-63-2",
    "key_name": "Galgravin",
    "cn_name": null,
    "alternate_name": "Furan, 2,5-bis(3,4-dimethoxyphenyl)tetrahydro-3,4-dimethyl-, (2<em>R</em>,3<em>R</em>,4<em>S</em>,5<em>S</em>)-<em>rel</em>-;Galgravin;Furan, 2,5-bis(3,4-dimethoxyphenyl)tetrahydro-3,4-dimethyl-, (2<em>R</em>,3<em>R</em>,4<em>S</em>,5<em>S</em>)-;Furan, 2,5-bis(3,4-dimethoxyphenyl)tetrahydro-3,4-dimethyl-, (2α,3β,4β,5α)-;<em>rel</em>-(2<em>R</em>,3<em>R</em>,4<em>S</em>,5<em>S</em>)-2,5-Bis(3,4-dimethoxyphenyl)tetrahydro-3,4-dimethylfuran;(±)-Galgravin",
    "duplicated_cas_no": "894765-12-9",
    "SMILES": "C[C@@H]1[C@H](O[C@H]([C@@H]1C)C2=CC(OC)=C(OC)C=C2)C3=CC(OC)=C(OC)C=C3",
    "meta_data": {
        "InChI": "InChI=1/C22H28O5/c1-13-14(2)22(16-8-10-18(24-4)20(12-16)26-6)27-21(13)15-7-9-17(23-3)19(11-15)25-5/h7-14,21-22H,1-6H3/t13-,14+,21-,22+",
        "InChIKey": null,
        "Canonical SMILES": "O(C1=CC=C(C=C1OC)C2OC(C3=CC=C(OC)C(OC)=C3)C(C)C2C)C",
        "Molecular Formula": "C<sub>22</sub>H<sub>28</sub>O<sub>5</sub>",
        "Molecular Mass": "372.45",
        "Melting Point": "139-140 °C"
    }
}