{
    "cas_no": "2909-79-7",
    "key_name": "4-(1,1-Dimethylethyl)-<em>N</em>,<em>N</em>-dimethylbenzenamine",
    "cn_name": "4-叔丁基-N,N-二甲基苯胺;",
    "alternate_name": "Benzenamine, 4-(1,1-dimethylethyl)-<em>N</em>,<em>N</em>-dimethyl-;Aniline, <em>p</em>-<em>tert</em>-butyl-<em>N</em>,<em>N</em>-dimethyl-;4-(1,1-Dimethylethyl)-<em>N</em>,<em>N</em>-dimethylbenzenamine;<em>N</em>,<em>N</em>-Dimethyl-<em>p</em>-<em>tert</em>-butylaniline;<em>p</em>-<em>tert</em>-Butyl-<em>N</em>,<em>N</em>-dimethylaniline;4-<em>tert</em>-Butyl-<em>N</em>,<em>N</em>-dimethylaniline;4-(1,1-Dimethylethyl)-<em>N</em>,<em>N</em>-Dimethylaniline;<em>N</em>,<em>N</em>-Dimethyl-4-<em>tert</em>-butylaniline",
    "duplicated_cas_no": "",
    "SMILES": "C(C)(C)(C)C1=CC=C(N(C)C)C=C1",
    "meta_data": {
        "InChI": "InChI=1S/C12H19N/c1-12(2,3)10-6-8-11(9-7-10)13(4)5/h6-9H,1-5H3",
        "InChIKey": null,
        "Canonical SMILES": "C=1C=C(C=CC1N(C)C)C(C)(C)C",
        "Molecular Formula": "C<sub>12</sub>H<sub>19</sub>N",
        "Molecular Mass": "177.29",
        "Boiling Point": "124-126 °C @ Press: 16 Torr"
    }
}