{
    "cas_no": "56651-58-2",
    "key_name": "1-(Isocyanatomethyl)-2-methylbenzene",
    "cn_name": "2-甲基苄基异氰酸酯;",
    "alternate_name": "Benzene, 1-(isocyanatomethyl)-2-methyl-;1-(Isocyanatomethyl)-2-methylbenzene;<em>o</em>-Methylbenzyl isocyanate;2-Methylbenzyl isocyanate",
    "duplicated_cas_no": "",
    "SMILES": "C(N=C=O)C1=C(C)C=CC=C1",
    "meta_data": {
        "InChI": "InChI=1S/C9H9NO/c1-8-4-2-3-5-9(8)6-10-7-11/h2-5H,6H2,1H3",
        "InChIKey": null,
        "Canonical SMILES": "O=C=NCC=1C=CC=CC1C",
        "Molecular Formula": "C<sub>9</sub>H<sub>9</sub>NO",
        "Molecular Mass": "147.17",
        "Boiling Point": "98-99 °C @ Press: 8 Torr",
        "Density": "1.0756 g/cm³ @ Temp: 20 °C"
    }
}