{
    "cas_no": "511-89-7",
    "key_name": "Plumieride",
    "cn_name": null,
    "alternate_name": "Spiro[cyclopenta[<em>c</em>]pyran-7(1<em>H</em>),2′(5′<em>H</em>)-furan]-4-carboxylic acid, 1-(β-<span class=\"text-smallcaps\">D</span>-glucopyranosyloxy)-4a,7a-dihydro-4′-[(1<em>S</em>)-1-hydroxyethyl]-5′-oxo-, methyl ester, (1<em>S</em>,2′<em>R</em>,4a<em>S</em>,7a<em>S</em>)-;Plumieride;Spiro[cyclopenta[<em>c</em>]pyran-7(1<em>H</em>),2′(5′<em>H</em>)-furan]-4-carboxylic acid, 1-(β-<span class=\"text-smallcaps\">D</span>-glucopyranosyloxy)-4a,7a-dihydro-4′-(1-hydroxyethyl)-5′-oxo-, methyl ester, [1<em>S</em>-[1α,4aα,7α(<em>R</em>*),7aα]]-;Agoniadin;NSC 609065",
    "duplicated_cas_no": "101231-14-5;11024-61-6",
    "SMILES": "O([C@H]1[C@@]2([C@]3(C=C([C@H](C)O)C(=O)O3)C=C[C@@]2(C(C(OC)=O)=CO1)[H])[H])[C@@H]4O[C@H](CO)[C@@H](O)[C@H](O)[C@H]4O",
    "meta_data": {
        "InChI": "InChI=1S/C21H26O12/c1-8(23)10-5-21(33-18(10)28)4-3-9-11(17(27)29-2)7-30-19(13(9)21)32-20-16(26)15(25)14(24)12(6-22)31-20/h3-5,7-9,12-16,19-20,22-26H,6H2,1-2H3/t8-,9+,12+,13+,14+,15-,16+,19-,20-,21+/m0/s1",
        "InChIKey": null,
        "Canonical SMILES": "O=C(OC)C1=COC(OC2OC(CO)C(O)C(O)C2O)C3C1C=CC43OC(=O)C(=C4)C(O)C",
        "Molecular Formula": "C<sub>21</sub>H<sub>26</sub>O<sub>12</sub>",
        "Molecular Mass": "470.42",
        "Melting Point": "224-225 °C"
    }
}