{
    "cas_no": "6641-64-1",
    "key_name": "4,5-Dichloro-2-nitrobenzenamine",
    "cn_name": "4,5-二氯-2-硝基苯胺;",
    "alternate_name": "Benzenamine, 4,5-dichloro-2-nitro-;Aniline, 4,5-dichloro-2-nitro-;4,5-Dichloro-2-nitrobenzenamine;4,5-Dichloro-2-nitroaniline;2-Nitro-4,5-dichloroaniline;3,4-Dichloro-6-nitroaniline;1-Amino-4,5-dichloro-2-nitrobenzene;NSC 17012",
    "duplicated_cas_no": "",
    "SMILES": "N(=O)(=O)C1=C(N)C=C(Cl)C(Cl)=C1",
    "meta_data": {
        "InChI": "InChI=1S/C6H4Cl2N2O2/c7-3-1-5(9)6(10(11)12)2-4(3)8/h1-2H,9H2",
        "InChIKey": null,
        "Canonical SMILES": "O=N(=O)C1=CC(Cl)=C(Cl)C=C1N",
        "Molecular Formula": "C<sub>6</sub>H<sub>4</sub>Cl<sub>2</sub>N<sub>2</sub>O<sub>2</sub>",
        "Molecular Mass": "207.01",
        "Melting Point": "164-166 °C"
    }
}