{
    "cas_no": "2894-68-0",
    "key_name": "Chlorodiazepam",
    "cn_name": null,
    "alternate_name": "2<em>H</em>-1,4-Benzodiazepin-2-one, 7-chloro-5-(2-chlorophenyl)-1,3-dihydro-1-methyl-;2<em>H</em>-1,4-Benzodiazepin-2-one, 7-chloro-5-(<em>o</em>-chlorophenyl)-1,3-dihydro-1-methyl-;7-Chloro-5-(2-chlorophenyl)-1,3-dihydro-1-methyl-2<em>H</em>-1,4-benzodiazepin-2-one;Ro 5-3448;2′-Chlorodiazepam;Chlorodiazepam;Diclazepam",
    "duplicated_cas_no": "",
    "SMILES": "ClC1=C(C=2C=3C(N(C)C(=O)CN2)=CC=C(Cl)C3)C=CC=C1",
    "meta_data": {
        "InChI": "InChI=1S/C16H12Cl2N2O/c1-20-14-7-6-10(17)8-12(14)16(19-9-15(20)21)11-4-2-3-5-13(11)18/h2-8H,9H2,1H3",
        "InChIKey": null,
        "Canonical SMILES": "O=C1N(C=2C=CC(Cl)=CC2C(=NC1)C=3C=CC=CC3Cl)C",
        "Molecular Formula": "C<sub>16</sub>H<sub>12</sub>Cl<sub>2</sub>N<sub>2</sub>O",
        "Molecular Mass": "319.19",
        "Melting Point": "168-171 °C"
    }
}