{
    "cas_no": "1513-66-2",
    "key_name": "2,3-Difluoropyridine",
    "cn_name": "2,3-二氟吡啶;",
    "alternate_name": "Pyridine, 2,3-difluoro-;2,3-Difluoropyridine",
    "duplicated_cas_no": "",
    "SMILES": "FC1=C(F)N=CC=C1",
    "meta_data": {
        "InChI": "InChI=1S/C5H3F2N/c6-4-2-1-3-8-5(4)7/h1-3H",
        "InChIKey": null,
        "Canonical SMILES": "FC1=NC=CC=C1F",
        "Molecular Formula": "C<sub>5</sub>H<sub>3</sub>F<sub>2</sub>N",
        "Molecular Mass": "115.08",
        "Boiling Point": "118 °C"
    }
}