{
    "cas_no": "16712-64-4",
    "key_name": "6-Hydroxy-2-naphthoic acid",
    "cn_name": "2-羟基-6-萘甲酸;",
    "alternate_name": "2-Naphthalenecarboxylic acid, 6-hydroxy-;2-Naphthoic acid, 6-hydroxy-;6-Hydroxy-2-naphthalenecarboxylic acid;6-Hydroxy-2-naphthoic acid;2-Hydroxynaphthalene-6-carboxylic acid;2-Hydroxy-6-naphthoic acid;6-Hydroxy-β-naphthoic acid;6-Carboxy-2-naphthol;6-Hydroxynaphthylene-2-carboxylic acid;NSC 148862;NSC 689433",
    "duplicated_cas_no": "",
    "SMILES": "C(O)(=O)C1=CC2=C(C=C(O)C=C2)C=C1",
    "meta_data": {
        "InChI": "InChI=1S/C11H8O3/c12-10-4-3-7-5-9(11(13)14)2-1-8(7)6-10/h1-6,12H,(H,13,14)",
        "InChIKey": null,
        "Canonical SMILES": "O=C(O)C1=CC=C2C=C(O)C=CC2=C1",
        "Molecular Formula": "C<sub>11</sub>H<sub>8</sub>O<sub>3</sub>",
        "Molecular Mass": "188.18",
        "Melting Point": "243-244 °C"
    }
}