{
    "cas_no": "470-99-5",
    "key_name": "Isophorol",
    "cn_name": "3,5,5-三甲基-2-环己烯-1-醇;",
    "alternate_name": "2-Cyclohexen-1-ol, 3,5,5-trimethyl-;3,5,5-Trimethyl-2-cyclohexen-1-ol;Isophorol;3,5,5-Trimethylcyclohex-2-enol;NSC 263506;1,5,5-Trimethylcyclohex-1-en-3-ol;(±)-Isophorol",
    "duplicated_cas_no": "114818-71-2",
    "SMILES": "CC1(C)CC(C)=CC(O)C1",
    "meta_data": {
        "InChI": "InChI=1S/C9H16O/c1-7-4-8(10)6-9(2,3)5-7/h4,8,10H,5-6H2,1-3H3",
        "InChIKey": null,
        "Canonical SMILES": "OC1C=C(C)CC(C)(C)C1",
        "Molecular Formula": "C<sub>9</sub>H<sub>16</sub>O",
        "Molecular Mass": "140.22",
        "Boiling Point": "69 °C @ Press: 5 Torr",
        "Density": "0.9144 g/cm³ @ Temp: 20 °C"
    }
}