{
    "cas_no": "2464-37-1",
    "key_name": "Chlorflurenol",
    "cn_name": "氯芴素;2-氯-9-羟基-9H-芴-9-甲酸;",
    "alternate_name": "9<em>H</em>-Fluorene-9-carboxylic acid, 2-chloro-9-hydroxy-;Fluorene-9-carboxylic acid, 2-chloro-9-hydroxy-;2-Chloro-9-hydroxy-9<em>H</em>-fluorene-9-carboxylic acid;2-Chloro-9-hydroxyfluorene-9-carboxylic acid;IT 3299;Chlorflurenol;Chlorflurecol;CME 73170P;NSC 102385",
    "duplicated_cas_no": "",
    "SMILES": "C(O)(=O)C1(O)C=2C(C=3C1=CC=CC3)=CC=C(Cl)C2",
    "meta_data": {
        "InChI": "InChI=1S/C14H9ClO3/c15-8-5-6-10-9-3-1-2-4-11(9)14(18,13(16)17)12(10)7-8/h1-7,18H,(H,16,17)",
        "InChIKey": null,
        "Canonical SMILES": "O=C(O)C1(O)C=2C=CC=CC2C3=CC=C(Cl)C=C31",
        "Molecular Formula": "C<sub>14</sub>H<sub>9</sub>ClO<sub>3</sub>",
        "Molecular Mass": "260.67",
        "Melting Point": "152 °C"
    }
}