{
    "cas_no": "10420-33-4",
    "key_name": "1,4-Dimethyl 2-acetylbutanedioate",
    "cn_name": "乙酰丁二酸二甲酯;",
    "alternate_name": "Butanedioic acid, 2-acetyl-, 1,4-dimethyl ester;Succinic acid, acetyl-, dimethyl ester;Butanedioic acid, acetyl-, dimethyl ester;1,4-Dimethyl 2-acetylbutanedioate;Acetylsuccinic acid, dimethyl ester;Acetosuccinic acid, dimethyl ester;Dimethyl acetylsuccinate;Dimethyl 2-acetylsuccinate;2-Acetyl-succinic acid dimethyl ester",
    "duplicated_cas_no": "121952-83-8",
    "SMILES": "C(CC(OC)=O)(C(OC)=O)C(C)=O",
    "meta_data": {
        "InChI": "InChI=1S/C8H12O5/c1-5(9)6(8(11)13-3)4-7(10)12-2/h6H,4H2,1-3H3",
        "InChIKey": null,
        "Canonical SMILES": "O=C(OC)CC(C(=O)OC)C(=O)C",
        "Molecular Formula": "C<sub>8</sub>H<sub>12</sub>O<sub>5</sub>",
        "Molecular Mass": "188.18",
        "Boiling Point": "84 °C",
        "Melting Point": "32-32.5 °C"
    }
}