{
    "cas_no": "60-81-1",
    "key_name": "Phloridzin",
    "cn_name": "根皮苷;根皮甙;1-(2-(beta-D-吡喃葡萄糖氧基)-4,6-二羟基苯基)-3-(4-羟基苯基)-丙酮;",
    "alternate_name": "1-Propanone, 1-[2-(β-<span class=\"text-smallcaps\">D</span>-glucopyranosyloxy)-4,6-dihydroxyphenyl]-3-(4-hydroxyphenyl)-;Phlorizin;1-[2-(β-<span class=\"text-smallcaps\">D</span>-Glucopyranosyloxy)-4,6-dihydroxyphenyl]-3-(4-hydroxyphenyl)-1-propanone;Phlorhizin;Phloridzin;Phlorizoside;Phlorrhizin;Phlorizine;Floridzin;Phloretin 2′-glucoside;Phloridzosid;NSC 2833;Phloretin 2′-<em>O</em>-glucoside;Phloretin 2′-<em>O</em>-β-<span class=\"text-smallcaps\">D</span>-glucopyranoside;Phloretin 2′-β-<span class=\"text-smallcaps\">D</span>-Glucoside;Dihydrochalcone 2′-β-<span class=\"text-smallcaps\">D</span>-glucopyranoside;Phloretin glucoside",
    "duplicated_cas_no": "112318-65-7;16055-86-0;52276-56-9",
    "SMILES": "C(CCC1=CC=C(O)C=C1)(=O)C2=C(O[C@@H]3O[C@H](CO)[C@@H](O)[C@H](O)[C@H]3O)C=C(O)C=C2O",
    "meta_data": {
        "InChI": "InChI=1S/C21H24O10/c22-9-16-18(27)19(28)20(29)21(31-16)30-15-8-12(24)7-14(26)17(15)13(25)6-3-10-1-4-11(23)5-2-10/h1-2,4-5,7-8,16,18-24,26-29H,3,6,9H2/t16-,18-,19+,20-,21-/m1/s1",
        "InChIKey": null,
        "Canonical SMILES": "O=C(C=1C(O)=CC(O)=CC1OC2OC(CO)C(O)C(O)C2O)CCC3=CC=C(O)C=C3",
        "Molecular Formula": "C<sub>21</sub>H<sub>24</sub>O<sub>10</sub>",
        "Molecular Mass": "436.41",
        "Melting Point": "110 °C",
        "Density": "1.452 g/cm³"
    }
}