{
    "cas_no": "628-63-7",
    "key_name": "Amyl acetate",
    "cn_name": "乙酸戊酯;醋酸正戊酯;",
    "alternate_name": "Acetic acid, pentyl ester;Acetic acid, amyl ester;Amyl acetate;1-Pentyl acetate;Pentyl acetate;<em>n</em>-Pentyl acetate;<em>n</em>-Amyl acetate;Birnenoel;<em>n</em>-Pentyl ethanoate;1-Acetoxypentane;ZED-N 50;Pentyl ethanoate;NSC 7923;<em>n</em>-Amyl ethanoate;X-AR 600-54/6;Acetic acid 1-pentyl ester",
    "duplicated_cas_no": "",
    "SMILES": "C(OC(C)=O)CCCC",
    "meta_data": {
        "InChI": "InChI=1S/C7H14O2/c1-3-4-5-6-9-7(2)8/h3-6H2,1-2H3",
        "InChIKey": null,
        "Canonical SMILES": "O=C(OCCCCC)C",
        "Molecular Formula": "C<sub>7</sub>H<sub>14</sub>O<sub>2</sub>",
        "Molecular Mass": "130.18",
        "Boiling Point": "149.2 °C @ Press: 760 Torr",
        "Melting Point": "-70.8 °C",
        "Density": "0.8756 g/cm³ @ Temp: 20 °C"
    }
}