{
    "cas_no": "594-31-0",
    "key_name": "Dichlorotriphenylantimony",
    "cn_name": "三苯基二氯化锑;",
    "alternate_name": "Antimony, dichlorotriphenyl-;Stibine, triphenyl-, dichloride;Dichlorotriphenylantimony;Dichlorotriphenylstibine;Triphenylantimony dichloride;Triphenylstibine dichloride;Dichlorotriphenylstiborane;NSC 179782;NSC 432;Triphenylantimony(V) dichloride",
    "duplicated_cas_no": "23099-82-3;84184-48-5",
    "SMILES": "[Sb](Cl)(Cl)(C1=CC=CC=C1)(C2=CC=CC=C2)C3=CC=CC=C3",
    "meta_data": {
        "InChI": "InChI=1S/3C6H5.2ClH.Sb/c3*1-2-4-6-5-3-1;;;/h3*1-5H;2*1H;/q;;;;;+2/p-2",
        "InChIKey": null,
        "Canonical SMILES": "Cl[Sb](Cl)(C=1C=CC=CC1)(C=2C=CC=CC2)C=3C=CC=CC3",
        "Molecular Formula": "C<sub>18</sub>H<sub>15</sub>Cl<sub>2</sub>Sb",
        "Molecular Mass": "",
        "Melting Point": "143-145 °C"
    }
}