{
    "cas_no": "7797-83-3",
    "key_name": "Benzodioxole-4-carboxaldehyde",
    "cn_name": "1,3-苯并二氧-4-甲醛;1,3-苯并二氧-4-甲醛;",
    "alternate_name": "1,3-Benzodioxole-4-carboxaldehyde;Benzaldehyde, 2,3-(methylenedioxy)-;2,3-(Methylenedioxy)benzaldehyde;1,3-Benzodioxole-4-aldehyde;Benzodioxole-4-carboxaldehyde;Benzo[<em>d</em>][1,3]dioxole-4-carboxaldehyde;1,3-Benzodioxole-4-carbaldehyde;1,3-Dioxaindane-4-carbaldehyde;2<em>H</em>-1,3-Benzodioxole-4-carbaldehyde",
    "duplicated_cas_no": "",
    "SMILES": "C(=O)C1=C2C(OCO2)=CC=C1",
    "meta_data": {
        "InChI": "InChI=1S/C8H6O3/c9-4-6-2-1-3-7-8(6)11-5-10-7/h1-4H,5H2",
        "InChIKey": null,
        "Canonical SMILES": "O=CC=1C=CC=C2OCOC21",
        "Molecular Formula": "C<sub>8</sub>H<sub>6</sub>O<sub>3</sub>",
        "Molecular Mass": "150.13",
        "Boiling Point": "84-90.5 °C @ Press: 0.25 Torr",
        "Melting Point": "34 °C"
    }
}