{
    "cas_no": "14177-55-0",
    "key_name": "Molybdenum nickel oxide (MoNiO<sub>4</sub>)",
    "cn_name": "镍钼氧化物;",
    "alternate_name": "Molybdenum nickel oxide (MoNiO<sub>4</sub>);Molybdic acid (H<sub>2</sub>MoO<sub>4</sub>), nickel(2+) salt (1:1);Nickel molybdate(VI) (NiMoO<sub>4</sub>);Nickel molybdate (NiMoO<sub>4</sub>);Nickelous molybdate;Nickel molybdenum oxide (NiMoO<sub>4</sub>)",
    "duplicated_cas_no": "",
    "SMILES": "[O].[Ni].[Mo]",
    "meta_data": {
        "InChI": "InChI=1S/Mo.Ni.O",
        "InChIKey": null,
        "Canonical SMILES": "[O].[Ni].[Mo]",
        "Molecular Formula": "Mo.Ni.O",
        "Molecular Mass": "",
        "Melting Point": "1310 °C"
    }
}