{
    "uri": "substance/pt/14177550",
    "rn": "14177-55-0",
    "name": "Molybdenum nickel oxide (MoNiO<sub>4</sub>)",
    "images": [],
    "inchi": "InChI=1S/Mo.Ni.O",
    "inchiKey": "InChIKey=CIHYROJTBKFOPR-UHFFFAOYSA-N",
    "smile": "[O].[Ni].[Mo]",
    "canonicalSmile": "[O].[Ni].[Mo]",
    "molecularFormula": "Mo.Ni.O",
    "molecularMass": "",
    "experimentalProperties": [
        {
            "name": "Melting Point",
            "property": "1310 °C",
            "sourceNumber": 1
        }
    ],
    "propertyCitations": [
        {
            "docUri": "document/pt/document/19437213",
            "sourceNumber": 1,
            "source": "Yanushkevich, M.; Zhurnal Neorganicheskoi Khimii, (1974), 19(7), 1932-6, CAplus"
        }
    ],
    "synonyms": [
        "Molybdenum nickel oxide (MoNiO<sub>4</sub>)",
        "Molybdic acid (H<sub>2</sub>MoO<sub>4</sub>), nickel(2+) salt (1:1)",
        "Nickel molybdate(VI) (NiMoO<sub>4</sub>)",
        "Nickel molybdate (NiMoO<sub>4</sub>)",
        "Nickelous molybdate",
        "Nickel molybdenum oxide (NiMoO<sub>4</sub>)"
    ],
    "replacedRns": [],
    "hasMolfile": true,
    "source": "https://commonchemistry.cas.org/detail?cas_rn=14177-55-0"
}