{
    "cas_no": "75-54-7",
    "key_name": "Methyldichlorosilane",
    "cn_name": "甲基二氯硅烷;",
    "alternate_name": "Silane, dichloromethyl-;Methylsilicon dichloride;Dichloromethylsilane;Methyldichlorosilane;Dichlorohydridomethylsilicon;Monomethyldichlorosilane;LS 50;Methylhydrodichlorosilane",
    "duplicated_cas_no": "",
    "SMILES": "[SiH](C)(Cl)Cl",
    "meta_data": {
        "InChI": "InChI=1S/CH4Cl2Si/c1-4(2)3/h4H,1H3",
        "InChIKey": null,
        "Canonical SMILES": "Cl[SiH](Cl)C",
        "Molecular Formula": "CH<sub>4</sub>Cl<sub>2</sub>Si",
        "Molecular Mass": "115.03",
        "Boiling Point": "41 °C",
        "Melting Point": "-93 °C",
        "Density": "1.10 g/cm³ @ Temp: 27 °C"
    }
}