{
    "cas_no": "6640-09-1",
    "key_name": "5-(Phenylmethoxy)-1<em>H</em>-indole-2-carboxylic acid",
    "cn_name": "5-苄氧基吲哚-2-羧酸;5-苯甲氧基吲哚-2-羧酸;5-苄氧基吲哚-2-羧酸;",
    "alternate_name": "1<em>H</em>-Indole-2-carboxylic acid, 5-(phenylmethoxy)-;Indole-2-carboxylic acid, 5-(benzyloxy)-;5-(Phenylmethoxy)-1<em>H</em>-indole-2-carboxylic acid;5-Benzyloxyindole-2-carboxylic acid;5-Benzyloxy-1<em>H</em>-indole-2-carboxylic acid;NSC 30930;NSC 49096",
    "duplicated_cas_no": "",
    "SMILES": "C(O)(=O)C1=CC=2C(N1)=CC=C(OCC3=CC=CC=C3)C2",
    "meta_data": {
        "InChI": "InChI=1S/C16H13NO3/c18-16(19)15-9-12-8-13(6-7-14(12)17-15)20-10-11-4-2-1-3-5-11/h1-9,17H,10H2,(H,18,19)",
        "InChIKey": null,
        "Canonical SMILES": "O=C(O)C1=CC=2C=C(OCC=3C=CC=CC3)C=CC2N1",
        "Molecular Formula": "C<sub>16</sub>H<sub>13</sub>NO<sub>3</sub>",
        "Molecular Mass": "267.28",
        "Melting Point": "190 °C"
    }
}