{
    "cas_no": "591-27-5",
    "key_name": "3-Aminophenol",
    "cn_name": "3-氨基苯酚;间氨基苯酚;",
    "alternate_name": "Phenol, 3-amino-;Phenol, <em>m</em>-amino-;3-Aminophenol;C.I. 76545;<em>m</em>-Aminophenol;C.I. Oxidation Base 7;Fouramine EG;Fourrine 65;Fourrine EG;Furro EG;Futramine EG;Nako TEG;Pelagol EG;Renal EG;Tertral EG;Ursol EG;Zoba EG;<em>m</em>-Hydroxyaniline;1-Amino-3-hydroxybenzene;<em>m</em>-Hydroxyphenylamine;3-Hydroxyaniline;<em>m</em>-Hydroxyaminobenzene;3-Hydroxybenzenamine;m-Hydroxyaniline;Rodol EG;(3-Hydroxyphenyl)amine;NSC 1546;Covastyle MAP",
    "duplicated_cas_no": "",
    "SMILES": "NC1=CC(O)=CC=C1",
    "meta_data": {
        "InChI": "InChI=1S/C6H7NO/c7-5-2-1-3-6(8)4-5/h1-4,8H,7H2",
        "InChIKey": null,
        "Canonical SMILES": "OC1=CC=CC(N)=C1",
        "Molecular Formula": "C<sub>6</sub>H<sub>7</sub>NO",
        "Molecular Mass": "109.13",
        "Boiling Point": "164 °C @ Press: 11 Torr",
        "Melting Point": "122-123 °C",
        "Density": "1.195 g/cm³"
    }
}