{
    "cas_no": "5459-58-5",
    "key_name": "Butyl cyanoacetate",
    "cn_name": "氰乙酸正丁酯;",
    "alternate_name": "Acetic acid, 2-cyano-, butyl ester;Acetic acid, cyano-, butyl ester;Butyl cyanoacetate;<em>n</em>-Butyl α-cyanoacetate;<em>n</em>-Butyl cyanoacetate;Cyanoacetic acid butyl ester;NSC 24260",
    "duplicated_cas_no": "",
    "SMILES": "O(C(CC#N)=O)CCCC",
    "meta_data": {
        "InChI": "InChI=1S/C7H11NO2/c1-2-3-6-10-7(9)4-5-8/h2-4,6H2,1H3",
        "InChIKey": null,
        "Canonical SMILES": "N#CCC(=O)OCCCC",
        "Molecular Formula": "C<sub>7</sub>H<sub>11</sub>NO<sub>2</sub>",
        "Molecular Mass": "141.17",
        "Boiling Point": "231 °C",
        "Density": "1.0010 g/cm³ @ Temp: 20 °C"
    }
}