{
    "cas_no": "35878-28-5",
    "key_name": "<em>rel</em>-(3a<em>R</em>,6a<em>S</em>)-Tetrahydro-1<em>H</em>-cyclopenta[<em>c</em>]furan-1,3(3a<em>H</em>)-dione",
    "cn_name": null,
    "alternate_name": "1<em>H</em>-Cyclopenta[<em>c</em>]furan-1,3(3a<em>H</em>)-dione, tetrahydro-, (3a<em>R</em>,6a<em>S</em>)-<em>rel</em>-;1<em>H</em>-Cyclopenta[<em>c</em>]furan-1,3(3a<em>H</em>)-dione, tetrahydro-, <em>cis</em>-;<em>rel</em>-(3a<em>R</em>,6a<em>S</em>)-Tetrahydro-1<em>H</em>-cyclopenta[<em>c</em>]furan-1,3(3a<em>H</em>)-dione;<em>cis</em>-1,2-Cyclopentanedicarboxylic anhydride;<em>cis</em>-Cyclopentane-1,2-dicarboxylic acid anhydride;1,2-<em>cis</em>-Cyclopentanedicarboxylic anhydride",
    "duplicated_cas_no": "201815-16-9;743438-34-8;3032505-82-8",
    "SMILES": "O=C1[C@@]2([C@](C(=O)O1)(CCC2)[H])[H]",
    "meta_data": {
        "InChI": "InChI=1/C7H8O3/c8-6-4-2-1-3-5(4)7(9)10-6/h4-5H,1-3H2/t4-,5+",
        "InChIKey": null,
        "Canonical SMILES": "O=C1OC(=O)C2CCCC12",
        "Molecular Formula": "C<sub>7</sub>H<sub>8</sub>O<sub>3</sub>",
        "Molecular Mass": "140.14",
        "Boiling Point": "100-102 °C @ Press: 1.5 Torr",
        "Melting Point": "73-74 °C"
    }
}