{
    "cas_no": "19509-11-6",
    "key_name": "1-Methyl-3-phenylpiperidine",
    "cn_name": null,
    "alternate_name": "Piperidine, 1-methyl-3-phenyl-;1-Methyl-3-phenylpiperidine",
    "duplicated_cas_no": "",
    "SMILES": "CN1CC(CCC1)C2=CC=CC=C2",
    "meta_data": {
        "InChI": "InChI=1S/C12H17N/c1-13-9-5-8-12(10-13)11-6-3-2-4-7-11/h2-4,6-7,12H,5,8-10H2,1H3",
        "InChIKey": null,
        "Canonical SMILES": "C=1C=CC(=CC1)C2CN(C)CCC2",
        "Molecular Formula": "C<sub>12</sub>H<sub>17</sub>N",
        "Molecular Mass": "175.27",
        "Boiling Point": "126 °C @ Press: 14 Torr"
    }
}