{
    "cas_no": "5799-76-8",
    "key_name": "<em>N</em>-Propargylmorpholine",
    "cn_name": null,
    "alternate_name": "Morpholine, 4-(2-propyn-1-yl)-;Morpholine, 4-(2-propynyl)-;4-(2-Propyn-1-yl)morpholine;<em>N</em>-(2-Propynyl)morpholine;3-(<em>N</em>-Morpholinyl)propyne;4-Propargylmorpholine;4-(2-Propynyl)morpholine;<em>N</em>-Propargylmorpholine;3-Morpholino-1-propyne;3-(4-Morpholinyl)-1-propyne;1-Morpholino-2-propyne",
    "duplicated_cas_no": "",
    "SMILES": "C(C#C)N1CCOCC1",
    "meta_data": {
        "InChI": "InChI=1S/C7H11NO/c1-2-3-8-4-6-9-7-5-8/h1H,3-7H2",
        "InChIKey": null,
        "Canonical SMILES": "C#CCN1CCOCC1",
        "Molecular Formula": "C<sub>7</sub>H<sub>11</sub>NO",
        "Molecular Mass": "125.17",
        "Boiling Point": "64 °C @ Press: 10 Torr",
        "Density": "1.0009 g/cm³ @ Temp: 20 °C"
    }
}