{
    "cas_no": "110-64-5",
    "key_name": "2-Butene-1,4-diol",
    "cn_name": "1,4-丁烯二醇;1,4-二羟基-2-丁烯;",
    "alternate_name": "2-Butene-1,4-diol;1,4-Dihydroxy-2-butene;NSC 1260;NSC 976;1,4-Dihydroxybutene;1,4-But-2-enediol",
    "duplicated_cas_no": "",
    "SMILES": "C(=CCO)CO",
    "meta_data": {
        "InChI": "InChI=1S/C4H8O2/c5-3-1-2-4-6/h1-2,5-6H,3-4H2",
        "InChIKey": null,
        "Canonical SMILES": "OCC=CCO",
        "Molecular Formula": "C<sub>4</sub>H<sub>8</sub>O<sub>2</sub>",
        "Molecular Mass": "88.11",
        "Boiling Point": "141-149 °C @ Press: 20 Torr",
        "Melting Point": "7 °C",
        "Density": "1.067-1.074 g/cm³"
    }
}