{
    "cas_no": "101463-69-8",
    "key_name": "Flufenoxuron",
    "cn_name": "氟虫脲;氟芬隆;1-[2-氟-4-(2-氯-4-三氟甲基苯氧基)苯基]-3-(2,6-二氟苯甲酰基)脲;",
    "alternate_name": "Benzamide, <em>N</em>-[[[4-[2-chloro-4-(trifluoromethyl)phenoxy]-2-fluorophenyl]amino]carbonyl]-2,6-difluoro-;<em>N</em>-[[[4-[2-Chloro-4-(trifluoromethyl)phenoxy]-2-fluorophenyl]amino]carbonyl]-2,6-difluorobenzamide;Flufenoxuron;WL 115110;Cascade;Cascade (pesticide)",
    "duplicated_cas_no": "",
    "SMILES": "C(NC(NC1=C(F)C=C(OC2=C(Cl)C=C(C(F)(F)F)C=C2)C=C1)=O)(=O)C3=C(F)C=CC=C3F",
    "meta_data": {
        "InChI": "InChI=1S/C21H11ClF6N2O3/c22-12-8-10(21(26,27)28)4-7-17(12)33-11-5-6-16(15(25)9-11)29-20(32)30-19(31)18-13(23)2-1-3-14(18)24/h1-9H,(H2,29,30,31,32)",
        "InChIKey": null,
        "Canonical SMILES": "O=C(NC(=O)C=1C(F)=CC=CC1F)NC2=CC=C(OC3=CC=C(C=C3Cl)C(F)(F)F)C=C2F",
        "Molecular Formula": "C<sub>21</sub>H<sub>11</sub>ClF<sub>6</sub>N<sub>2</sub>O<sub>3</sub>",
        "Molecular Mass": "488.77",
        "Melting Point": "171 °C (decomp)"
    }
}