{
    "cas_no": "4385-04-0",
    "key_name": "<em>N</em>,<em>N</em>-Dimethylhexylamine",
    "cn_name": "N,N-二甲基己胺;N,N-二甲基己胺;",
    "alternate_name": "1-Hexanamine, <em>N</em>,<em>N</em>-dimethyl-;Hexylamine, <em>N</em>,<em>N</em>-dimethyl-;<em>N</em>,<em>N</em>-Dimethyl-1-hexanamine;<em>N</em>,<em>N</em>-Dimethylhexylamine;Hexyldimethylamine;<em>N</em>-Hexyldimethylamine;1-(Dimethylamino)hexane;<em>N</em>,<em>N</em>-Dimethyl-<em>n</em>-hexylamine",
    "duplicated_cas_no": "",
    "SMILES": "C(CN(C)C)CCCC",
    "meta_data": {
        "InChI": "InChI=1S/C8H19N/c1-4-5-6-7-8-9(2)3/h4-8H2,1-3H3",
        "InChIKey": null,
        "Canonical SMILES": "N(C)(C)CCCCCC",
        "Molecular Formula": "C<sub>8</sub>H<sub>19</sub>N",
        "Molecular Mass": "129.24",
        "Boiling Point": "147 °C"
    }
}