{
    "cas_no": "17635-21-1",
    "key_name": "2,3,6-Trimethylquinoxaline",
    "cn_name": "2,3,6-三甲基喹喔啉;",
    "alternate_name": "Quinoxaline, 2,3,6-trimethyl-;2,3,6-Trimethylquinoxaline;6-Methyl-2,3-dimethylquinoxaline",
    "duplicated_cas_no": "",
    "SMILES": "CC1=NC2=C(N=C1C)C=CC(C)=C2",
    "meta_data": {
        "InChI": "InChI=1S/C11H12N2/c1-7-4-5-10-11(6-7)13-9(3)8(2)12-10/h4-6H,1-3H3",
        "InChIKey": null,
        "Canonical SMILES": "N=1C=2C=CC(=CC2N=C(C1C)C)C",
        "Molecular Formula": "C<sub>11</sub>H<sub>12</sub>N<sub>2</sub>",
        "Molecular Mass": "172.23",
        "Melting Point": "92-94 °C"
    }
}