{
    "cas_no": "4630-95-9",
    "key_name": "Prifinium bromide",
    "cn_name": "吡芬溴铵;吡芬溴铵;",
    "alternate_name": "Pyrrolidinium, 3-(diphenylmethylene)-1,1-diethyl-2-methyl-, bromide (1:1);Pyrrolidinium, 3-(diphenylmethylene)-1,1-diethyl-2-methyl-, bromide;3-(Diphenylmethylene)-1,1-diethyl-2-methylpyrrolidinium bromide;Pyrodifenium bromide;Prifinium bromide;Padrin;3-(Diphenylmethylene)-1-ethyl-2-methylpyrrolidine ethyl bromide;Riabal",
    "duplicated_cas_no": "18887-33-7",
    "SMILES": "C(=C1C(C)[N+](CC)(CC)CC1)(C2=CC=CC=C2)C3=CC=CC=C3.[Br-]",
    "meta_data": {
        "InChI": "InChI=1S/C22H28N.BrH/c1-4-23(5-2)17-16-21(18(23)3)22(19-12-8-6-9-13-19)20-14-10-7-11-15-20;/h6-15,18H,4-5,16-17H2,1-3H3;1H/q+1;/p-1",
        "InChIKey": null,
        "Canonical SMILES": "[Br-].C=1C=CC(=CC1)C(C=2C=CC=CC2)=C3CC[N+](CC)(CC)C3C",
        "Molecular Formula": "C<sub>22</sub>H<sub>28</sub>N.Br",
        "Molecular Mass": "",
        "Melting Point": "216-218 °C"
    }
}