{
    "cas_no": "247092-10-0",
    "key_name": "Benzoic acid, 2-chloro-5-hydroxy-, methyl ester",
    "cn_name": null,
    "alternate_name": "Benzoic acid, 2-chloro-5-hydroxy-, methyl ester;2-Chloro-5-hydroxybenzoic acid methyl ester;Methyl 2-chloro-5-hydroxybenzoate",
    "duplicated_cas_no": "",
    "SMILES": "C(OC)(=O)C1=C(Cl)C=CC(O)=C1",
    "meta_data": {
        "InChI": "InChI=1S/C8H7ClO3/c1-12-8(11)6-4-5(10)2-3-7(6)9/h2-4,10H,1H3",
        "InChIKey": null,
        "Canonical SMILES": "O=C(OC)C1=CC(O)=CC=C1Cl",
        "Molecular Formula": "C<sub>8</sub>H<sub>7</sub>ClO<sub>3</sub>",
        "Molecular Mass": "186.59",
        "Melting Point": "96-97 °C"
    }
}