{
    "cas_no": "13147-25-6",
    "key_name": "2-(Ethylnitrosoamino)ethanol",
    "cn_name": null,
    "alternate_name": "Ethanol, 2-(ethylnitrosoamino)-;Ethanol, 2-(ethylnitrosamino)-;2-(Ethylnitrosoamino)ethanol;<em>N</em>-Nitroso-2-(ethylamino)ethanol;<em>N</em>-Nitrosoethyl-2-hydroxyethylamine;<em>N</em>-Nitroso-<em>N</em>-ethyl-2-hydroxyethylamine;<em>N</em>-Ethyl-<em>N</em>-(2-hydroxyethyl)nitrosamine;<em>N</em>-(2-Hydroxyethyl)-<em>N</em>-ethylnitrosamine;2-[Ethyl(nitroso)amino]ethan-1-ol",
    "duplicated_cas_no": "",
    "SMILES": "N(CCO)(CC)N=O",
    "meta_data": {
        "InChI": "InChI=1S/C4H10N2O2/c1-2-6(5-8)3-4-7/h7H,2-4H2,1H3",
        "InChIKey": null,
        "Canonical SMILES": "O=NN(CC)CCO",
        "Molecular Formula": "C<sub>4</sub>H<sub>10</sub>N<sub>2</sub>O<sub>2</sub>",
        "Molecular Mass": "118.13",
        "Boiling Point": "103-105 °C @ Press: 3 Torr"
    }
}