{
    "cas_no": "2396-63-6",
    "key_name": "1,6-Heptadiyne",
    "cn_name": "1,6-庚二炔;",
    "alternate_name": "1,6-Heptadiyne;NSC 353895",
    "duplicated_cas_no": "",
    "SMILES": "C(CC#C)CC#C",
    "meta_data": {
        "InChI": "InChI=1S/C7H8/c1-3-5-7-6-4-2/h1-2H,5-7H2",
        "InChIKey": null,
        "Canonical SMILES": "C#CCCCC#C",
        "Molecular Formula": "C<sub>7</sub>H<sub>8</sub>",
        "Molecular Mass": "92.14",
        "Boiling Point": "112 °C",
        "Melting Point": "-85 °C",
        "Density": "0.8164 g/cm³ @ Temp: 17 °C"
    }
}