{
    "cas_no": "589-82-2",
    "key_name": "3-Heptanol",
    "cn_name": "3-庚醇;丁基乙基甲醇;",
    "alternate_name": "3-Heptanol;3-Hydroxyheptane;1-Ethyl-1-pentanol;(±)-3-Heptanol;<span class=\"text-smallcaps\">DL</span>-3-Heptanol;NSC 2586",
    "duplicated_cas_no": "40617-58-1",
    "SMILES": "C(CCCC)(CC)O",
    "meta_data": {
        "InChI": "InChI=1S/C7H16O/c1-3-5-6-7(8)4-2/h7-8H,3-6H2,1-2H3",
        "InChIKey": null,
        "Canonical SMILES": "OC(CC)CCCC",
        "Molecular Formula": "C<sub>7</sub>H<sub>16</sub>O",
        "Molecular Mass": "116.20",
        "Boiling Point": "156.5-157 °C @ Press: 750 Torr",
        "Melting Point": "187 °C",
        "Density": "0.8251 g/cm³ @ Temp: 15 °C"
    }
}