{
    "cas_no": "7072-00-6",
    "key_name": "10-Methyl-9-anthracenecarboxaldehyde",
    "cn_name": "10-甲基蒽-9-甲醛;10-甲基蒽-9-甲醛;",
    "alternate_name": "9-Anthracenecarboxaldehyde, 10-methyl-;9-Anthraldehyde, 10-methyl-;10-Methyl-9-anthracenecarboxaldehyde;10-Methyl-9-anthraldehyde;10-Methyl-9-anthracenecarbaldehyde;9-Formyl-10-methylanthracene;NSC 97075",
    "duplicated_cas_no": "52830-47-4;1001099-84-8",
    "SMILES": "C(=O)C=1C2=C(C(C)=C3C1C=CC=C3)C=CC=C2",
    "meta_data": {
        "InChI": "InChI=1S/C16H12O/c1-11-12-6-2-4-8-14(12)16(10-17)15-9-5-3-7-13(11)15/h2-10H,1H3",
        "InChIKey": null,
        "Canonical SMILES": "O=CC=1C=2C=CC=CC2C(=C3C=CC=CC13)C",
        "Molecular Formula": "C<sub>16</sub>H<sub>12</sub>O",
        "Molecular Mass": "220.27",
        "Melting Point": "171.9-172.6 °C"
    }
}