{
    "cas_no": "1137-68-4",
    "key_name": "2-(2′-Pyridyl)benzimidazole",
    "cn_name": "2-(2-吡啶基)苯并咪唑;2-(2-吡啶)-苯并咪唑;",
    "alternate_name": "1<em>H</em>-Benzimidazole, 2-(2-pyridinyl)-;Benzimidazole, 2-(2-pyridyl)-;2-(2-Pyridinyl)-1<em>H</em>-benzimidazole;2-(2-Pyridyl)benzimidazole;G 581;2-(2′-Pyrido)benzimidazole;2-(Pyridin-2-yl)benzimidazole;2-(2′-Pyridyl)benzimidazole;2-(2-Pyridyl)-1<em>H</em>-benzimidazole;NSC 110942;NSC 32814;2-(Pyridin-2-yl)-1<em>H</em>-benzo[<em>d</em>]imidazole;2,6-Bis(2-benzimidazol-2-yl)pyridine;2-(Pyridin-2-yl)-1<em>H</em>-1,3-benzodiazole",
    "duplicated_cas_no": "",
    "SMILES": "C=1(NC=2C(N1)=CC=CC2)C3=CC=CC=N3",
    "meta_data": {
        "InChI": "InChI=1S/C12H9N3/c1-2-6-10-9(5-1)14-12(15-10)11-7-3-4-8-13-11/h1-8H,(H,14,15)",
        "InChIKey": null,
        "Canonical SMILES": "N=1C=CC=CC1C2=NC=3C=CC=CC3N2",
        "Molecular Formula": "C<sub>12</sub>H<sub>9</sub>N<sub>3</sub>",
        "Molecular Mass": "195.22",
        "Melting Point": "220-221 °C"
    }
}