{
    "cas_no": "60481-51-8",
    "key_name": "Hydrazine, (3,4-dimethylphenyl)-, hydrochloride (1:1)",
    "cn_name": null,
    "alternate_name": "Hydrazine, (3,4-dimethylphenyl)-, hydrochloride (1:1);Hydrazine, (3,4-dimethylphenyl)-, monohydrochloride;3,4-Dimethylphenylhydrazine hydrochloride;<em>N</em>-(3,4-Dimethylphenyl)hydrazine hydrochloride;1-(3,4-Dimethylphenyl)hydrazine hydrochloride;2-(3,4-Dimethylphenyl)hydrazinium chloride",
    "duplicated_cas_no": "",
    "SMILES": "N(N)C1=CC(C)=C(C)C=C1.Cl",
    "meta_data": {
        "InChI": "InChI=1S/C8H12N2.ClH/c1-6-3-4-8(10-9)5-7(6)2;/h3-5,10H,9H2,1-2H3;1H",
        "InChIKey": null,
        "Canonical SMILES": "Cl.NNC1=CC=C(C(=C1)C)C",
        "Molecular Formula": "C<sub>8</sub>H<sub>12</sub>N<sub>2</sub>.ClH",
        "Molecular Mass": "",
        "Melting Point": "205-206 °C"
    }
}