{
    "cas_no": "50-35-1",
    "key_name": "Thalidomide",
    "cn_name": null,
    "alternate_name": "1<em>H</em>-Isoindole-1,3(2<em>H</em>)-dione, 2-(2,6-dioxo-3-piperidinyl)-;Phthalimide, <em>N</em>-(2,6-dioxo-3-piperidyl)-;2-(2,6-Dioxo-3-piperidinyl)-1<em>H</em>-isoindole-1,3(2<em>H</em>)-dione;K 17;Contergan;<em>N</em>-(2,6-Dioxo-3-piperidyl)phthalimide;Distaval;Kevadon;α-Phthalimidoglutarimide;α-(<em>N</em>-Phthalimido)glutarimide;3-Phthalimidoglutarimide;<em>N</em>-Phthaloylglutamimide;α-<em>N</em>-Phthalylglutaramide;Softenon;Thalidomide;Sedoval;Softenil;Quetimid;Talimol;(±)-Thalidomide;1,3-Dioxo-2-(2,6-dioxopiperidin-3-yl)isoindoline;Thalomid;Celgene;Suaramide;Talinol;Neurosedyn;NSC 66847;Sedalis;Pantosediv;NSC 527179;Myrin;Sauramide;Pharmion;Thaled;Synovir;<em>N</em>-(2,6-Dioxo-3-piperidinyl)phthalimide;Immunoprin;2-(2,6-Dioxopiperidin-3-yl)isoindoline-1,3-dione;2-(2,6-Dioxopiperidin-3-yl)isoindole-1,3-dione;2-(2,6-Dioxo-piperidin-3-yl)-isoindole-1,3-dione;2-(2,6-Dioxopiperidin-3-yl)-2,3-dihydro-1<em>H</em>-isoindole-1,3-dione;MeSH ID: D013792",
    "duplicated_cas_no": "731-40-8;14088-68-7",
    "SMILES": "O=C1N(C(=O)C=2C1=CC=CC2)C3C(=O)NC(=O)CC3",
    "meta_data": {
        "InChI": "InChI=1S/C13H10N2O4/c16-10-6-5-9(11(17)14-10)15-12(18)7-3-1-2-4-8(7)13(15)19/h1-4,9H,5-6H2,(H,14,16,17)",
        "InChIKey": null,
        "Canonical SMILES": "O=C1NC(=O)C(N2C(=O)C=3C=CC=CC3C2=O)CC1",
        "Molecular Formula": "C<sub>13</sub>H<sub>10</sub>N<sub>2</sub>O<sub>4</sub>",
        "Molecular Mass": "258.23",
        "Melting Point": "270 °C"
    }
}