{
    "cas_no": "141-32-2",
    "key_name": "Butyl acrylate",
    "cn_name": "丙烯酸正丁酯;丙烯酸丁酯;",
    "alternate_name": "2-Propenoic acid, butyl ester;Acrylic acid butyl ester;Acrylic acid <em>n</em>-butyl ester;<em>n</em>-Butyl acrylate;Butyl 2-propenoate;Butyl acrylate;NSC 5163;BA 100PPM;DL 325;Butyl propenoate;EM 24;YDCN 330-607P;Z 1104;G 23168A;B 100036;A 0142",
    "duplicated_cas_no": "126492-54-4;220713-31-5;1361383-41-6;1453490-09-9",
    "SMILES": "C(OCCCC)(C=C)=O",
    "meta_data": {
        "InChI": "InChI=1S/C7H12O2/c1-3-5-6-9-7(8)4-2/h4H,2-3,5-6H2,1H3",
        "InChIKey": null,
        "Canonical SMILES": "O=C(OCCCC)C=C",
        "Molecular Formula": "C<sub>7</sub>H<sub>12</sub>O<sub>2</sub>",
        "Molecular Mass": "128.17",
        "Boiling Point": "145-149 °C",
        "Melting Point": "-64.6 °C",
        "Density": "0.8898 g/cm³ @ Temp: 20 °C"
    }
}