{
    "cas_no": "6626-15-9",
    "key_name": "4-Bromoresorcinol",
    "cn_name": "4-溴间苯二酚;4-溴-1,3-苯二酚;",
    "alternate_name": "1,3-Benzenediol, 4-bromo-;Resorcinol, 4-bromo-;4-Bromo-1,3-benzenediol;4-Bromoresorcinol;4-Bromo-1,3-dihydroxybenzene;1-Bromo-2,4-dihydroxybenzene;2,4-Dihydroxybromobenzene;4-Bromo-3-hydroxyphenol;4-Bromobenzene-1,3-diol;NSC 59699",
    "duplicated_cas_no": "",
    "SMILES": "OC1=C(Br)C=CC(O)=C1",
    "meta_data": {
        "InChI": "InChI=1S/C6H5BrO2/c7-5-2-1-4(8)3-6(5)9/h1-3,8-9H",
        "InChIKey": null,
        "Canonical SMILES": "BrC1=CC=C(O)C=C1O",
        "Molecular Formula": "C<sub>6</sub>H<sub>5</sub>BrO<sub>2</sub>",
        "Molecular Mass": "189.01",
        "Boiling Point": "155 °C @ Press: 6 Torr",
        "Melting Point": "103 °C"
    }
}