{
    "cas_no": "1126-78-9",
    "key_name": "<em>N</em>-Butylaniline",
    "cn_name": "N-丁基苯胺;",
    "alternate_name": "Benzenamine, <em>N</em>-butyl-;Aniline, <em>N</em>-butyl-;<em>N</em>-Butylbenzenamine;<em>N</em>-Butylaniline;<em>N</em>-(<em>n</em>-Butyl)aniline;Butylaniline;4-(Phenylamino)butane;Butylphenylamine;<em>N</em>-Phenylbutylamine;NSC 7114",
    "duplicated_cas_no": "",
    "SMILES": "N(CCCC)C1=CC=CC=C1",
    "meta_data": {
        "InChI": "InChI=1S/C10H15N/c1-2-3-9-11-10-7-5-4-6-8-10/h4-8,11H,2-3,9H2,1H3",
        "InChIKey": null,
        "Canonical SMILES": "C=1C=CC(=CC1)NCCCC",
        "Molecular Formula": "C<sub>10</sub>H<sub>15</sub>N",
        "Molecular Mass": "149.23",
        "Boiling Point": "243.5 °C",
        "Melting Point": "-14.4 °C",
        "Density": "0.9358 g/cm³ @ Temp: 20 °C"
    }
}