{
    "cas_no": "67-97-0",
    "key_name": "Vitamin D<sub>3</sub>",
    "cn_name": "维生素D3;9,10-开环胆甾-5,7,10(19)-三烯-3beta-醇;",
    "alternate_name": "Cyclohexanol, 3-[(2<em>E</em>)-2-[(1<em>R</em>,3a<em>S</em>,7a<em>R</em>)-1-[(1<em>R</em>)-1,5-dimethylhexyl]octahydro-7a-methyl-4<em>H</em>-inden-4-ylidene]ethylidene]-4-methylene-, (1<em>S</em>,3<em>Z</em>)-;Cholecalciferol;9,10-Secocholesta-5,7,10(19)-trien-3-ol, (3β,5<em>Z</em>,7<em>E</em>)-;(1<em>S</em>,3<em>Z</em>)-3-[(2<em>E</em>)-2-[(1<em>R</em>,3a<em>S</em>,7a<em>R</em>)-1-[(1<em>R</em>)-1,5-Dimethylhexyl]octahydro-7a-methyl-4<em>H</em>-inden-4-ylidene]ethylidene]-4-methylenecyclohexanol;Delsterol;Deparal;Oleovitamin D<sub>3</sub>;Ricketon;Trivitan;D<sub>3</sub>-Vigantol;Vitamin D<sub>3</sub>;9,10-Secocholesta-5,7,10(19)-trien-3β-ol;Vitinc Dan-Dee-3;Vigorsan;Colecalciferol;Calciol;Quintox;Vi-De<sub>3</sub>;Arachitol;Granuvit D<sub>3</sub>;Videkhol;FeraCol;Devaron;NSC 375571;Dry Vitamin D3 100CWS/AM;Lutavit D;Riken D<sub>3</sub> Oil 20;Duphafral D<sub>3</sub> 1000;Ekostop D3;Calcirol;Oleovit D<sub>3</sub>;UVEDOSE;Riken D3 Oil 100;Decristol;Minisun;Vigantoletten;High-D 2X;Plivit D<sub>3</sub>;Aquadetrim;Vitamin D3 S 50t;Devikap;OsteVit D;Vigantol;Rovimix D<sub>3</sub> 500;CapsuDar D3 100E;Davitamon D",
    "duplicated_cas_no": "8024-19-9;8050-67-7",
    "SMILES": "C[C@@]12[C@](\\C(=C\\C=C\\3/C(=C)CC[C@H](O)C3)\\CCC1)(CC[C@@]2([C@@H](CCCC(C)C)C)[H])[H]",
    "meta_data": {
        "InChI": "InChI=1S/C27H44O/c1-19(2)8-6-9-21(4)25-15-16-26-22(10-7-17-27(25,26)5)12-13-23-18-24(28)14-11-20(23)3/h12-13,19,21,24-26,28H,3,6-11,14-18H2,1-2,4-5H3/b22-12+,23-13-/t21-,24+,25-,26+,27-/m1/s1",
        "InChIKey": null,
        "Canonical SMILES": "OC1CC(=CC=C2CCCC3(C)C2CCC3C(C)CCCC(C)C)C(=C)CC1",
        "Molecular Formula": "C<sub>27</sub>H<sub>44</sub>O",
        "Molecular Mass": "384.64",
        "Melting Point": "84-85 °C",
        "Density": "0.939 g/cm³"
    }
}