{
    "cas_no": "513-53-1",
    "key_name": "2-Butanethiol",
    "cn_name": "2-丁硫醇;仲丁硫醇;",
    "alternate_name": "2-Butanethiol;<em>sec</em>-Butyl mercaptan;<em>sec</em>-Butyl thioalcohol;<em>sec</em>-Butanethiol;<em>sec</em>-Butylthiol;2-Butyl mercaptan;2-Mercaptobutane;1-Methyl-1-propanethiol;3-Methyl-2-propanethiol;<em>s</em>-Butyl mercaptan;(±)-2-Butanethiol;NSC 78417;2-Butylthiol",
    "duplicated_cas_no": "91840-99-2",
    "SMILES": "C(CC)(C)S",
    "meta_data": {
        "InChI": "InChI=1S/C4H10S/c1-3-4(2)5/h4-5H,3H2,1-2H3",
        "InChIKey": null,
        "Canonical SMILES": "SC(C)CC",
        "Molecular Formula": "C<sub>4</sub>H<sub>10</sub>S",
        "Molecular Mass": "90.19",
        "Boiling Point": "84-85 °C",
        "Melting Point": "-165 °C",
        "Density": "0.8299 g/cm³ @ Temp: 17 °C"
    }
}