{
    "cas_no": "5538-94-3",
    "key_name": "Dioctyldimethylammonium chloride",
    "cn_name": "双辛烷基二甲基氯化铵;",
    "alternate_name": "1-Octanaminium, <em>N</em>,<em>N</em>-dimethyl-<em>N</em>-octyl-, chloride (1:1);Ammonium, dimethyldioctyl-, chloride;1-Octanaminium, <em>N</em>,<em>N</em>-dimethyl-<em>N</em>-octyl-, chloride;Dimethyldioctylammonium chloride;RC 5626;Dioctyldimethylammonium chloride;Bardac LF;HOE-S 2617;Dodigen 2617;Swanol CA 3080;Querton 28CL;Pentonium DO 50;Querton 28CL50;Bardac LF 80;LF 80;AQ 208;Bardac LF 18;KP 20 (quaternary compound);KP 20",
    "duplicated_cas_no": "",
    "SMILES": "[N+](CCCCCCCC)(CCCCCCCC)(C)C.[Cl-]",
    "meta_data": {
        "InChI": "InChI=1S/C18H40N.ClH/c1-5-7-9-11-13-15-17-19(3,4)18-16-14-12-10-8-6-2;/h5-18H2,1-4H3;1H/q+1;/p-1",
        "InChIKey": null,
        "Canonical SMILES": "[Cl-].CCCCCCCC[N+](C)(C)CCCCCCCC",
        "Molecular Formula": "C<sub>18</sub>H<sub>40</sub>N.Cl",
        "Molecular Mass": "",
        "Melting Point": "75 °C"
    }
}