{
    "cas_no": "1795-15-9",
    "key_name": "Octylcyclohexane",
    "cn_name": null,
    "alternate_name": "Cyclohexane, octyl-;Octane, 1-cyclohexyl-;Octylcyclohexane;<em>n</em>-Octylcyclohexane;1-Cyclohexyloctane;NSC 174942",
    "duplicated_cas_no": "",
    "SMILES": "C(CCCCCCC)C1CCCCC1",
    "meta_data": {
        "InChI": "InChI=1S/C14H28/c1-2-3-4-5-6-8-11-14-12-9-7-10-13-14/h14H,2-13H2,1H3",
        "InChIKey": null,
        "Canonical SMILES": "CCCCCCCCC1CCCCC1",
        "Molecular Formula": "C<sub>14</sub>H<sub>28</sub>",
        "Molecular Mass": "196.37",
        "Boiling Point": "264 °C",
        "Melting Point": "-20 °C",
        "Density": "0.815 g/cm³ @ Temp: 20 °C"
    }
}