{
    "cas_no": "57-91-0",
    "key_name": "α-Estradiol",
    "cn_name": "雌二醇;",
    "alternate_name": "Estra-1,3,5(10)-triene-3,17-diol, (17α)-;17α-Estradiol;(17α)-Estra-1,3,5(10)-triene-3,17-diol;3,17-Dihydroxyestratriene;3,17α-Dihydroxyoestra-1,3,5(10)-triene;Estradiol-17α;α-Estradiol;Estra-1,3,5(10)-triene-3,17α-diol;1,3,5-Estratriene-3,17α-diol;Epiestradiol;Oestra-1,3,5(10)-triene-3,17α-diol;3,17α-Dihydroxyestra-1,3,5(10)-triene;17α-Oestradiol;17-Epiestradiol;Epiestrol;13β-Methyl-1,3,5(10)-gonatriene-3,17α-diol;Alfatradiol;NSC 20293;MITO 4509;MIGENIX",
    "duplicated_cas_no": "",
    "SMILES": "C[C@@]12[C@]([C@]3([C@@](C=4C(CC3)=CC(O)=CC4)(CC1)[H])[H])(CC[C@H]2O)[H]",
    "meta_data": {
        "InChI": "InChI=1S/C18H24O2/c1-18-9-8-14-13-5-3-12(19)10-11(13)2-4-15(14)16(18)6-7-17(18)20/h3,5,10,14-17,19-20H,2,4,6-9H2,1H3/t14-,15-,16+,17-,18+/m1/s1",
        "InChIKey": null,
        "Canonical SMILES": "OC1=CC=C2C(=C1)CCC3C2CCC4(C)C(O)CCC34",
        "Molecular Formula": "C<sub>18</sub>H<sub>24</sub>O<sub>2</sub>",
        "Molecular Mass": "272.38",
        "Melting Point": "221.5 °C"
    }
}