{
    "cas_no": "70755-47-4",
    "key_name": "Dihexadecyldimethylammonium bromide",
    "cn_name": "双十六烷基二甲基溴化铵;",
    "alternate_name": "1-Hexadecanaminium, <em>N</em>-hexadecyl-<em>N</em>,<em>N</em>-dimethyl-, bromide (1:1);1-Hexadecanaminium, <em>N</em>-hexadecyl-<em>N</em>,<em>N</em>-dimethyl-, bromide;Dihexadecyldimethylammonium bromide;Dimethyldihexadecylammonium bromide;Di-<em>n</em>-hexadecyldimethylammonium bromide;Dicetyldimethylammonium bromide;Dipalmityldimethylammonium bromide;Dicetyldimonium bromide;Dimethyldipalmitylammonium bromide;Konstanta A;Bis(hexadecyl) dimethyl ammonium bromide",
    "duplicated_cas_no": "",
    "SMILES": "[N+](CCCCCCCCCCCCCCCC)(CCCCCCCCCCCCCCCC)(C)C.[Br-]",
    "meta_data": {
        "InChI": "InChI=1S/C34H72N.BrH/c1-5-7-9-11-13-15-17-19-21-23-25-27-29-31-33-35(3,4)34-32-30-28-26-24-22-20-18-16-14-12-10-8-6-2;/h5-34H2,1-4H3;1H/q+1;/p-1",
        "InChIKey": null,
        "Canonical SMILES": "[Br-].CCCCCCCCCCCCCCCC[N+](C)(C)CCCCCCCCCCCCCCCC",
        "Molecular Formula": "C<sub>34</sub>H<sub>72</sub>N.Br",
        "Molecular Mass": "",
        "Melting Point": "159-162 °C"
    }
}