{
    "cas_no": "157859-20-6",
    "key_name": "Tris(1-methylethyl)silyl 2-propenoate",
    "cn_name": null,
    "alternate_name": "2-Propenoic acid, tris(1-methylethyl)silyl ester;Tris(1-methylethyl)silyl 2-propenoate;Tri(isopropyl)silyl acrylate",
    "duplicated_cas_no": "",
    "SMILES": "[Si](OC(C=C)=O)(C(C)C)(C(C)C)C(C)C",
    "meta_data": {
        "InChI": "InChI=1S/C12H24O2Si/c1-8-12(13)14-15(9(2)3,10(4)5)11(6)7/h8-11H,1H2,2-7H3",
        "InChIKey": null,
        "Canonical SMILES": "O=C(O[Si](C(C)C)(C(C)C)C(C)C)C=C",
        "Molecular Formula": "C<sub>12</sub>H<sub>24</sub>O<sub>2</sub>Si",
        "Molecular Mass": "228.40",
        "Boiling Point": "87 °C @ Press: 6.0 mmHg"
    }
}