{
    "cas_no": "331767-56-7",
    "key_name": "1,1-Dimethylethyl 4-(6-bromo-2-pyridinyl)-1-piperazinecarboxylate",
    "cn_name": null,
    "alternate_name": "1-Piperazinecarboxylic acid, 4-(6-bromo-2-pyridinyl)-, 1,1-dimethylethyl ester;1,1-Dimethylethyl 4-(6-bromo-2-pyridinyl)-1-piperazinecarboxylate;<em>tert</em>-Butyl 4-(6-bromopyridin-2-yl)piperazine-1-carboxylate;4-(6-Bromopyridin-2-yl)piperazine-1-carboxylic acid tert-butyl ester",
    "duplicated_cas_no": "",
    "SMILES": "BrC1=NC(N2CCN(C(OC(C)(C)C)=O)CC2)=CC=C1",
    "meta_data": {
        "InChI": "InChI=1S/C14H20BrN3O2/c1-14(2,3)20-13(19)18-9-7-17(8-10-18)12-6-4-5-11(15)16-12/h4-6H,7-10H2,1-3H3",
        "InChIKey": null,
        "Canonical SMILES": "O=C(OC(C)(C)C)N1CCN(C2=NC(Br)=CC=C2)CC1",
        "Molecular Formula": "C<sub>14</sub>H<sub>20</sub>BrN<sub>3</sub>O<sub>2</sub>",
        "Molecular Mass": "342.23",
        "Melting Point": "51-53 °C"
    }
}