{
    "cas_no": "171049-41-5",
    "key_name": "<em>tert</em>-Butyl 7-amino-3,4-dihydroisoquinoline-2(1<em>H</em>)-carboxylate",
    "cn_name": "7-氨基-1,2,3,4-四氢异喹啉甲酸叔丁酯;",
    "alternate_name": "2(1<em>H</em>)-Isoquinolinecarboxylic acid, 7-amino-3,4-dihydro-, 1,1-dimethylethyl ester;7-Amino-2-(<em>tert</em>-butoxycarbonyl)-1,2,3,4-tetrahydroisoquinoline;7-Amino-2-Boc-1,2,3,4-tetrahydroisoquinoline;7-Amino-3,4-dihydro-1<em>H</em>-isoquinoline-2-carboxylic acid tert-butyl ester;<em>tert</em>-Butyl 7-amino-3,4-dihydroisoquinoline-2(1<em>H</em>)-carboxylate;7-Amino-2-(<em>tert</em>-butyloxycarbonyl)-1,2,3,4-tetrahydroisoquinoline",
    "duplicated_cas_no": "",
    "SMILES": "C(OC(C)(C)C)(=O)N1CC=2C(CC1)=CC=C(N)C2",
    "meta_data": {
        "InChI": "InChI=1S/C14H20N2O2/c1-14(2,3)18-13(17)16-7-6-10-4-5-12(15)8-11(10)9-16/h4-5,8H,6-7,9,15H2,1-3H3",
        "InChIKey": null,
        "Canonical SMILES": "O=C(OC(C)(C)C)N1CC2=CC(N)=CC=C2CC1",
        "Molecular Formula": "C<sub>14</sub>H<sub>20</sub>N<sub>2</sub>O<sub>2</sub>",
        "Molecular Mass": "248.32",
        "Melting Point": "59-61 °C"
    }
}