{
    "cas_no": "37593-03-6",
    "key_name": "1-(4-Heptylphenyl)ethanone",
    "cn_name": "4-庚基苯乙酮;4-正庚基苯乙酮;",
    "alternate_name": "Ethanone, 1-(4-heptylphenyl)-;1-(4-Heptylphenyl)ethanone;<em>p</em>-<em>n</em>-Heptylacetophenone;4′-Heptylacetophenone;<em>p</em>-Heptylacetophenone;NSC 172893;1-(4-Heptylphenyl)ethan-1-one",
    "duplicated_cas_no": "",
    "SMILES": "C(CCCCCC)C1=CC=C(C(C)=O)C=C1",
    "meta_data": {
        "InChI": "InChI=1S/C15H22O/c1-3-4-5-6-7-8-14-9-11-15(12-10-14)13(2)16/h9-12H,3-8H2,1-2H3",
        "InChIKey": null,
        "Canonical SMILES": "O=C(C1=CC=C(C=C1)CCCCCCC)C",
        "Molecular Formula": "C<sub>15</sub>H<sub>22</sub>O",
        "Molecular Mass": "218.33",
        "Boiling Point": "176-179 °C @ Press: 13 Torr"
    }
}