{
    "cas_no": "6765-39-5",
    "key_name": "1-Heptadecene",
    "cn_name": "十七烯;十七烯;1-十七烯;十五烷基乙烯;",
    "alternate_name": "1-Heptadecene;Hexahydroaplotaxene;NSC 77132",
    "duplicated_cas_no": "",
    "SMILES": "C(CCCCCCCC)CCCCCCC=C",
    "meta_data": {
        "InChI": "InChI=1S/C17H34/c1-3-5-7-9-11-13-15-17-16-14-12-10-8-6-4-2/h3H,1,4-17H2,2H3",
        "InChIKey": null,
        "Canonical SMILES": "C=CCCCCCCCCCCCCCCC",
        "Molecular Formula": "C<sub>17</sub>H<sub>34</sub>",
        "Molecular Mass": "238.45",
        "Boiling Point": "300 °C",
        "Melting Point": "11.5 °C",
        "Density": "0.7854 g/cm³ @ Temp: 20 °C"
    }
}