{
    "cas_no": "79-81-2",
    "key_name": "Retinol palmitate",
    "cn_name": "维生素A棕榈酸酯;",
    "alternate_name": "Retinol, hexadecanoate;Retinol, palmitate, <em>all</em>-<em>trans</em>-;Retinol palmitate;Arovit;Dispatabs Tabs;Myvak;Myvax;Testavol S;Retinyl palmitate;<em>all</em>-<em>trans</em>-Vitamin A palmitate;Vitamin A palmitate;Axerophthol palmitate;Aquasol A;Aquapalm;<em>all</em>-<em>trans</em>-Retinol palmitate;<em>all</em>-<em>trans</em>-Retinyl palmitate;<em>trans</em>-Retinyl palmitate;<em>trans</em>-Retinol palmitate;Palmitic acid, ester with retinol;Vitazyme A;Arovit (Roche);Lutavit A 500 Plus;Optovit A;VAP 250CK-CWD;VAP 250MS-CWD;250S/N;250S/N-B;Riken A Palmitate 1000E;Retiblan",
    "duplicated_cas_no": "108066-99-5;7488-89-3;37340-08-2;674786-07-3",
    "SMILES": "C(=C/C(=C/C=C/C(=C/COC(CCCCCCCCCCCCCCC)=O)/C)/C)\\C=1C(C)(C)CCCC1C",
    "meta_data": {
        "InChI": "InChI=1S/C36H60O2/c1-7-8-9-10-11-12-13-14-15-16-17-18-19-25-35(37)38-30-28-32(3)23-20-22-31(2)26-27-34-33(4)24-21-29-36(34,5)6/h20,22-23,26-28H,7-19,21,24-25,29-30H2,1-6H3/b23-20+,27-26+,31-22+,32-28+",
        "InChIKey": null,
        "Canonical SMILES": "O=C(OCC=C(C=CC=C(C=CC1=C(C)CCCC1(C)C)C)C)CCCCCCCCCCCCCCC",
        "Molecular Formula": "C<sub>36</sub>H<sub>60</sub>O<sub>2</sub>",
        "Molecular Mass": "524.86",
        "Melting Point": "28-29 °C"
    }
}