{
    "cas_no": "64628-44-0",
    "key_name": "Triflumuron",
    "cn_name": "杀虫脲;氟幼灵;1-(2-氯苯甲酰基)-3-(4-三氟甲氧基苯基)脲;",
    "alternate_name": "Benzamide, 2-chloro-<em>N</em>-[[[4-(trifluoromethoxy)phenyl]amino]carbonyl]-;2-Chloro-<em>N</em>-[[[4-(trifluoromethoxy)phenyl]amino]carbonyl]benzamide;BAY-SIR 8514;SIR 8514;<em>N</em>-(2-Chlorobenzoyl)-<em>N</em>′-[4-(trifluoromethoxy)phenyl]urea;Trifluron;BAY-Vi 7533;Alsystin;Triflumuron;Alsystine;OMS 2015;Starycide;Baycidal;1-(2-Chlorobenzoyl)-3-[4-(trifluoromethoxy)phenyl]urea;Baytsidal",
    "duplicated_cas_no": "107852-02-8",
    "SMILES": "N(C(NC(=O)C1=C(Cl)C=CC=C1)=O)C2=CC=C(OC(F)(F)F)C=C2",
    "meta_data": {
        "InChI": "InChI=1S/C15H10ClF3N2O3/c16-12-4-2-1-3-11(12)13(22)21-14(23)20-9-5-7-10(8-6-9)24-15(17,18)19/h1-8H,(H2,20,21,22,23)",
        "InChIKey": null,
        "Canonical SMILES": "O=C(NC(=O)C=1C=CC=CC1Cl)NC2=CC=C(OC(F)(F)F)C=C2",
        "Molecular Formula": "C<sub>15</sub>H<sub>10</sub>ClF<sub>3</sub>N<sub>2</sub>O<sub>3</sub>",
        "Molecular Mass": "358.70",
        "Melting Point": "195 °C"
    }
}