{
    "cas_no": "87674-21-3",
    "key_name": "1-(3-Fluoro-4-pyridinyl)ethanone",
    "cn_name": null,
    "alternate_name": "Ethanone, 1-(3-fluoro-4-pyridinyl)-;1-(3-Fluoro-4-pyridinyl)ethanone;3-Fluoro-4-acetylpyridine;1-(3-Fluoropyridin-4-yl)ethan-1-one",
    "duplicated_cas_no": "",
    "SMILES": "C(C)(=O)C=1C(F)=CN=CC1",
    "meta_data": {
        "InChI": "InChI=1S/C7H6FNO/c1-5(10)6-2-3-9-4-7(6)8/h2-4H,1H3",
        "InChIKey": null,
        "Canonical SMILES": "O=C(C=1C=CN=CC1F)C",
        "Molecular Formula": "C<sub>7</sub>H<sub>6</sub>FNO",
        "Molecular Mass": "139.13",
        "Boiling Point": "78 °C @ Press: 45 Torr"
    }
}