{
    "cas_no": "34427-61-7",
    "key_name": "7α-Hydroxysitosterol",
    "cn_name": null,
    "alternate_name": "Stigmast-5-ene-3,7-diol, (3β,7α)-;Stigmast-5-ene-3β,7α-diol;(3β,7α)-Stigmast-5-ene-3,7-diol;Ikshusterol;7α-Hydroxy-β-sitosterol;7α-Hydroxysitosterol;3β,7α-Dihydroxystigmast-5-ene",
    "duplicated_cas_no": "191410-77-2",
    "SMILES": "C[C@@]12[C@]([C@]3([C@@]([C@]4(C)C(=C[C@H]3O)C[C@@H](O)CC4)(CC1)[H])[H])(CC[C@@]2([C@@H](CC[C@H](C(C)C)CC)C)[H])[H]",
    "meta_data": {
        "InChI": "InChI=1S/C29H50O2/c1-7-20(18(2)3)9-8-19(4)23-10-11-24-27-25(13-15-29(23,24)6)28(5)14-12-22(30)16-21(28)17-26(27)31/h17-20,22-27,30-31H,7-16H2,1-6H3/t19-,20-,22+,23-,24+,25+,26-,27+,28+,29-/m1/s1",
        "InChIKey": null,
        "Canonical SMILES": "OC1C=C2CC(O)CCC2(C)C3CCC4(C)C(CCC4C13)C(C)CCC(CC)C(C)C",
        "Molecular Formula": "C<sub>29</sub>H<sub>50</sub>O<sub>2</sub>",
        "Molecular Mass": "430.71",
        "Melting Point": "202-204 °C"
    }
}