{
    "cas_no": "2883-45-6",
    "key_name": "1,6-Heptadien-4-ol",
    "cn_name": "1,6-庚二烯-4-醇;",
    "alternate_name": "1,6-Heptadien-4-ol;4-Hydroxy-1,6-heptadiene;NSC 97509;Diallylmethanol",
    "duplicated_cas_no": "",
    "SMILES": "C(CC=C)(CC=C)O",
    "meta_data": {
        "InChI": "InChI=1S/C7H12O/c1-3-5-7(8)6-4-2/h3-4,7-8H,1-2,5-6H2",
        "InChIKey": null,
        "Canonical SMILES": "OC(CC=C)CC=C",
        "Molecular Formula": "C<sub>7</sub>H<sub>12</sub>O",
        "Molecular Mass": "112.17",
        "Boiling Point": "151 °C",
        "Density": "0.8644 g/cm³ @ Temp: 20 °C"
    }
}