{
    "cas_no": "7497-60-1",
    "key_name": "4-Chloro-4′-nitrobenzophenone",
    "cn_name": null,
    "alternate_name": "Methanone, (4-chlorophenyl)(4-nitrophenyl)-;Benzophenone, 4-chloro-4′-nitro-;(4-Chlorophenyl)(4-nitrophenyl)methanone;4-Chloro-4′-nitrobenzophenone;4-Nitro-4′-chlorobenzophenone;4′-Chloro-4-nitrobenzophenone;NSC 406624",
    "duplicated_cas_no": "",
    "SMILES": "C(=O)(C1=CC=C(N(=O)=O)C=C1)C2=CC=C(Cl)C=C2",
    "meta_data": {
        "InChI": "InChI=1S/C13H8ClNO3/c14-11-5-1-9(2-6-11)13(16)10-3-7-12(8-4-10)15(17)18/h1-8H",
        "InChIKey": null,
        "Canonical SMILES": "O=C(C1=CC=C(Cl)C=C1)C2=CC=C(C=C2)N(=O)=O",
        "Molecular Formula": "C<sub>13</sub>H<sub>8</sub>ClNO<sub>3</sub>",
        "Molecular Mass": "261.66",
        "Melting Point": "90-94 °C"
    }
}