{
    "cas_no": "66648-43-9",
    "key_name": "<em>N</em>-<em>trans</em>-Feruloyltyramine",
    "cn_name": null,
    "alternate_name": "2-Propenamide, 3-(4-hydroxy-3-methoxyphenyl)-<em>N</em>-[2-(4-hydroxyphenyl)ethyl]-, (2<em>E</em>)-;2-Propenamide, 3-(4-hydroxy-3-methoxyphenyl)-<em>N</em>-[2-(4-hydroxyphenyl)ethyl]-, (<em>E</em>)-;(2<em>E</em>)-3-(4-Hydroxy-3-methoxyphenyl)-<em>N</em>-[2-(4-hydroxyphenyl)ethyl]-2-propenamide;<em>N</em>-<em>trans</em>-Feruloyltyramine;Moupinamide;<em>trans</em>-<em>N</em>-Feruloyltyramine;(<em>E</em>)-<em>N</em>-Feruloyltyramine;(<em>E</em>)-Feruloyltyramine;<em>trans</em>-Feruloyltyramine;Alfrutamide;<em>N</em>-<em>p</em>-<em>trans</em>-Hydroxyphenethyl ferulamine;<em>N</em>-<em>E</em>-Feruloyl tyramine;<em>N</em>-<em>p</em>-<em>trans</em>-Feruloyltyramine",
    "duplicated_cas_no": "",
    "SMILES": "C(=C/C(NCCC1=CC=C(O)C=C1)=O)\\C2=CC(OC)=C(O)C=C2",
    "meta_data": {
        "InChI": "InChI=1S/C18H19NO4/c1-23-17-12-14(4-8-16(17)21)5-9-18(22)19-11-10-13-2-6-15(20)7-3-13/h2-9,12,20-21H,10-11H2,1H3,(H,19,22)/b9-5+",
        "InChIKey": null,
        "Canonical SMILES": "O=C(C=CC1=CC=C(O)C(OC)=C1)NCCC2=CC=C(O)C=C2",
        "Molecular Formula": "C<sub>18</sub>H<sub>19</sub>NO<sub>4</sub>",
        "Molecular Mass": "313.35",
        "Melting Point": "92-94 °C"
    }
}