{
    "cas_no": "86-00-0",
    "key_name": "2-Nitrobiphenyl",
    "cn_name": "2-硝基联苯;",
    "alternate_name": "1,1′-Biphenyl, 2-nitro-;Biphenyl, 2-nitro-;2-Nitro-1,1′-biphenyl;<em>o</em>-Nitrobiphenyl;2-Nitrobiphenyl;<em>o</em>-Nitrodiphenyl;ONB;2-Phenylnitrobenzene;NSC 5532;2′-Nitrobiphenyl;<em>o</em>-Nitrophenyl benzene",
    "duplicated_cas_no": "",
    "SMILES": "N(=O)(=O)C1=C(C=CC=C1)C2=CC=CC=C2",
    "meta_data": {
        "InChI": "InChI=1S/C12H9NO2/c14-13(15)12-9-5-4-8-11(12)10-6-2-1-3-7-10/h1-9H",
        "InChIKey": null,
        "Canonical SMILES": "O=N(=O)C=1C=CC=CC1C=2C=CC=CC2",
        "Molecular Formula": "C<sub>12</sub>H<sub>9</sub>NO<sub>2</sub>",
        "Molecular Mass": "199.21",
        "Boiling Point": "320 °C",
        "Melting Point": "37.2 °C"
    }
}