{
    "cas_no": "24159-07-7",
    "key_name": "3-[3-[(2<em>R</em>,3<em>S</em>)-3-Hydroxy-2-piperidinyl]-2-oxopropyl]-4(3<em>H</em>)-quinazolinone",
    "cn_name": null,
    "alternate_name": "4(3<em>H</em>)-Quinazolinone, 3-[3-[(2<em>R</em>,3<em>S</em>)-3-hydroxy-2-piperidinyl]-2-oxopropyl]-;Febrifugine;3-[3-[(2<em>R</em>,3<em>S</em>)-3-Hydroxy-2-piperidinyl]-2-oxopropyl]-4(3<em>H</em>)-quinazolinone;β-Dichroine;Dichroin B;β-Dichroin;(+)-Febrifugine;NSC 315535;<em>trans</em>-(+)-Febrifugine",
    "duplicated_cas_no": "486-68-0;732982-92-2;880384-80-5",
    "SMILES": "O=C1C=2C(N=CN1CC(C[C@@H]3[C@@H](O)CCCN3)=O)=CC=CC2",
    "meta_data": {
        "InChI": "InChI=1S/C16H19N3O3/c20-11(8-14-15(21)6-3-7-17-14)9-19-10-18-13-5-2-1-4-12(13)16(19)22/h1-2,4-5,10,14-15,17,21H,3,6-9H2/t14-,15+/m1/s1",
        "InChIKey": null,
        "Canonical SMILES": "O=C1C=2C=CC=CC2N=CN1CC(=O)CC3NCCCC3O",
        "Molecular Formula": "C<sub>16</sub>H<sub>19</sub>N<sub>3</sub>O<sub>3</sub>",
        "Molecular Mass": "301.34",
        "Melting Point": "145 °C"
    }
}