{
    "cas_no": "3813-05-6",
    "key_name": "Benazolin",
    "cn_name": "草除灵;4-氯-2-氧代-3(2H)-苯并噻唑啉乙酸;",
    "alternate_name": "3(2<em>H</em>)-Benzothiazoleacetic acid, 4-chloro-2-oxo-;3-Benzothiazolineacetic acid, 4-chloro-2-oxo-;4-Chloro-2-oxo-3(2<em>H</em>)-benzothiazoleacetic acid;RD 7693;Benazolin;Cornox CWK;4-Chloro-2-oxobenzothiazolin-3-ylacetic acid;Eunasin;Ley-Cornox;Benazoline;Cresopur;Benazolin (pesticide);Benzar;NSC 521058;2-(4-Chloro-2-oxo-2,3-dihydro-1,3-benzothiazol-3-yl)acetic acid",
    "duplicated_cas_no": "",
    "SMILES": "C(C(O)=O)N1C=2C(SC1=O)=CC=CC2Cl",
    "meta_data": {
        "InChI": "InChI=1S/C9H6ClNO3S/c10-5-2-1-3-6-8(5)11(4-7(12)13)9(14)15-6/h1-3H,4H2,(H,12,13)",
        "InChIKey": null,
        "Canonical SMILES": "O=C(O)CN1C(=O)SC=2C=CC=C(Cl)C21",
        "Molecular Formula": "C<sub>9</sub>H<sub>6</sub>ClNO<sub>3</sub>S",
        "Molecular Mass": "243.67",
        "Melting Point": "193 °C"
    }
}