{
    "cas_no": "111-75-1",
    "key_name": "Butylethanolamine",
    "cn_name": "2-丁氨基乙醇;",
    "alternate_name": "Ethanol, 2-(butylamino)-;2-(Butylamino)ethanol;Butylethanolamine;2-(<em>N</em>-Monobutylamino)ethanol;<em>N</em>-Butylethanolamine;Butyl(2-hydroxyethyl)amine;2-(<em>n</em>-Butylamino)ethanol;<em>N</em>-Butyl-<em>N</em>-(2-hydroxyethyl)amine;2-Hydroxyethyl(butyl)amine;NSC 1098;MBM;Synergex;2-(Butylamino)ethan-1-ol",
    "duplicated_cas_no": "",
    "SMILES": "C(NCCO)CCC",
    "meta_data": {
        "InChI": "InChI=1S/C6H15NO/c1-2-3-4-7-5-6-8/h7-8H,2-6H2,1H3",
        "InChIKey": null,
        "Canonical SMILES": "OCCNCCCC",
        "Molecular Formula": "C<sub>6</sub>H<sub>15</sub>NO",
        "Molecular Mass": "117.19",
        "Boiling Point": "199 °C",
        "Melting Point": "-2 °C",
        "Density": "0.8907 g/cm³"
    }
}