{
    "cas_no": "84254-97-7",
    "key_name": "1′-(Phenylmethyl)[1,4′-bipiperidine]-4′-carbonitrile",
    "cn_name": null,
    "alternate_name": "[1,4′-Bipiperidine]-4′-carbonitrile, 1′-(phenylmethyl)-;[1,4′-Bipiperidine]-4′-carbonitrile, 1′-benzyl-;1′-(Phenylmethyl)[1,4′-bipiperidine]-4′-carbonitrile;1′-Benzyl-[1,4′-bipiperidine]-4′-carbonitrile;1-Benzyl-4-(piperidin-1-yl)piperidine-4-carbonitrile;1-Benzyl-4-piperidin-1-ylpiperidine-4-carbonitrile",
    "duplicated_cas_no": "",
    "SMILES": "C(#N)C1(CCN(CC2=CC=CC=C2)CC1)N3CCCCC3",
    "meta_data": {
        "InChI": "InChI=1S/C18H25N3/c19-16-18(21-11-5-2-6-12-21)9-13-20(14-10-18)15-17-7-3-1-4-8-17/h1,3-4,7-8H,2,5-6,9-15H2",
        "InChIKey": null,
        "Canonical SMILES": "N#CC1(N2CCCCC2)CCN(CC=3C=CC=CC3)CC1",
        "Molecular Formula": "C<sub>18</sub>H<sub>25</sub>N<sub>3</sub>",
        "Molecular Mass": "283.41",
        "Melting Point": "104-106 °C"
    }
}