{
    "cas_no": "862135-61-3",
    "key_name": "5-Bromo-2,3-dihydro-1<em>H</em>-inden-2-ol",
    "cn_name": null,
    "alternate_name": "1<em>H</em>-Inden-2-ol, 5-bromo-2,3-dihydro-;5-Bromo-2,3-dihydro-1<em>H</em>-inden-2-ol;5-Bromoindan-2-ol",
    "duplicated_cas_no": "",
    "SMILES": "OC1CC=2C(C1)=CC(Br)=CC2",
    "meta_data": {
        "InChI": "InChI=1S/C9H9BrO/c10-8-2-1-6-4-9(11)5-7(6)3-8/h1-3,9,11H,4-5H2",
        "InChIKey": null,
        "Canonical SMILES": "BrC1=CC=C2C(=C1)CC(O)C2",
        "Molecular Formula": "C<sub>9</sub>H<sub>9</sub>BrO",
        "Molecular Mass": "213.07",
        "Melting Point": "115-117 °C"
    }
}