{
    "cas_no": "28231-03-0",
    "key_name": "Cedrenol",
    "cn_name": "柏木烯醇;雪松烯醇;",
    "alternate_name": "1<em>H</em>-3a,7-Methanoazulen-5-ol, octahydro-3,8,8-trimethyl-6-methylene-;Cedr-8(15)-en-9-ol;Cedrenol;Octahydro-3,8,8-trimethyl-6-methylene-1<em>H</em>-3a,7-methanoazulen-5-ol",
    "duplicated_cas_no": "1405-91-0",
    "SMILES": "CC1C23C(C(C)(C)C(C2)C(=C)C(O)C3)CC1",
    "meta_data": {
        "InChI": "InChI=1S/C15H24O/c1-9-5-6-13-14(3,4)11-7-15(9,13)8-12(16)10(11)2/h9,11-13,16H,2,5-8H2,1,3-4H3",
        "InChIKey": null,
        "Canonical SMILES": "OC1C(=C)C2CC3(C1)C(C)CCC3C2(C)C",
        "Molecular Formula": "C<sub>15</sub>H<sub>24</sub>O",
        "Molecular Mass": "220.35",
        "Boiling Point": "166-169 °C @ Press: 9.5 Torr",
        "Melting Point": "103-104 °C",
        "Density": "1.0083 g/cm³ @ Temp: 20 °C"
    }
}