{
    "cas_no": "595-90-4",
    "key_name": "Tetraphenyltin",
    "cn_name": "四苯基锡;",
    "alternate_name": "Stannane, tetraphenyl-;Tetraphenylstannane;Tetraphenyltin;NSC 2094",
    "duplicated_cas_no": "",
    "SMILES": "[Sn](C1=CC=CC=C1)(C2=CC=CC=C2)(C3=CC=CC=C3)C4=CC=CC=C4",
    "meta_data": {
        "InChI": "InChI=1S/4C6H5.Sn/c4*1-2-4-6-5-3-1;/h4*1-5H;",
        "InChIKey": null,
        "Canonical SMILES": "C=1C=CC(=CC1)[Sn](C=2C=CC=CC2)(C=3C=CC=CC3)C=4C=CC=CC4",
        "Molecular Formula": "C<sub>24</sub>H<sub>20</sub>Sn",
        "Molecular Mass": "427.13",
        "Boiling Point": "420 °C",
        "Melting Point": "228 °C",
        "Density": "1.49 g/cm³"
    }
}