{
    "cas_no": "1134-50-5",
    "key_name": "1-Phenyl-1<em>H</em>-pyrazole-4-carboxylic acid",
    "cn_name": "1-苯基-1H-吡唑-4-甲酸;",
    "alternate_name": "1<em>H</em>-Pyrazole-4-carboxylic acid, 1-phenyl-;Pyrazole-4-carboxylic acid, 1-phenyl-;1-Phenyl-1<em>H</em>-pyrazole-4-carboxylic acid;1-Phenylpyrazole-4-carboxylic acid;4-Carboxy-1-phenylpyrazole",
    "duplicated_cas_no": "",
    "SMILES": "C(O)(=O)C1=CN(N=C1)C2=CC=CC=C2",
    "meta_data": {
        "InChI": "InChI=1S/C10H8N2O2/c13-10(14)8-6-11-12(7-8)9-4-2-1-3-5-9/h1-7H,(H,13,14)",
        "InChIKey": null,
        "Canonical SMILES": "O=C(O)C=1C=NN(C1)C=2C=CC=CC2",
        "Molecular Formula": "C<sub>10</sub>H<sub>8</sub>N<sub>2</sub>O<sub>2</sub>",
        "Molecular Mass": "188.18",
        "Melting Point": "220-221 °C"
    }
}