{
    "cas_no": "64808-48-6",
    "key_name": "Lobenzarit disodium",
    "cn_name": null,
    "alternate_name": "Benzoic acid, 2-[(2-carboxyphenyl)amino]-4-chloro-, sodium salt (1:2);Benzoic acid, 2-[(2-carboxyphenyl)amino]-4-chloro-, disodium salt;Disodium <em>N</em>-(2-carboxyphenyl)-4-chloroanthranilic acid;CCA;Lobenzarit sodium;Lobenzarit disodium;Lobenzarit disodium salt;Carfenil",
    "duplicated_cas_no": "82050-62-2",
    "SMILES": "N(C1=C(C(O)=O)C=CC(Cl)=C1)C2=C(C(O)=O)C=CC=C2.[Na]",
    "meta_data": {
        "InChI": "InChI=1S/C14H10ClNO4.2Na/c15-8-5-6-10(14(19)20)12(7-8)16-11-4-2-1-3-9(11)13(17)18;;/h1-7,16H,(H,17,18)(H,19,20);;",
        "InChIKey": null,
        "Canonical SMILES": "[Na].O=C(O)C=1C=CC=CC1NC2=CC(Cl)=CC=C2C(=O)O",
        "Molecular Formula": "C<sub>14</sub>H<sub>10</sub>ClNO<sub>4</sub>.2Na",
        "Molecular Mass": "",
        "Melting Point": "388 °C (decomp)"
    }
}