{
    "cas_no": "69377-81-7",
    "key_name": "Fluroxypyr",
    "cn_name": "氯氟吡氧乙酸;4-氨基-3,5-二氯-6-氟-2-吡啶氧乙酸;",
    "alternate_name": "Acetic acid, 2-[(4-amino-3,5-dichloro-6-fluoro-2-pyridinyl)oxy]-;Acetic acid, [(4-amino-3,5-dichloro-6-fluoro-2-pyridinyl)oxy]-;2-[(4-Amino-3,5-dichloro-6-fluoro-2-pyridinyl)oxy]acetic acid;[(4-Amino-3,5-dichloro-6-fluoro-2-pyridyl)oxy]acetic acid;Fluroxypyr;EF 689;Shuangzhiling;Starane Advanced;StareDown;Vista XRT;Vista;Tandus 200EC",
    "duplicated_cas_no": "",
    "SMILES": "O(CC(O)=O)C1=C(Cl)C(N)=C(Cl)C(F)=N1",
    "meta_data": {
        "InChI": "InChI=1S/C7H5Cl2FN2O3/c8-3-5(11)4(9)7(12-6(3)10)15-1-2(13)14/h1H2,(H2,11,12)(H,13,14)",
        "InChIKey": null,
        "Canonical SMILES": "O=C(O)COC1=NC(F)=C(Cl)C(N)=C1Cl",
        "Molecular Formula": "C<sub>7</sub>H<sub>5</sub>Cl<sub>2</sub>FN<sub>2</sub>O<sub>3</sub>",
        "Molecular Mass": "255.03",
        "Melting Point": "232 °C",
        "Density": "1.09 g/cm³ @ Temp: 24 °C"
    }
}