{
    "cas_no": "10026-24-1",
    "key_name": "Cobalt sulfate (CoSO<sub>4</sub>) heptahydrate",
    "cn_name": "硫酸钴(七水);",
    "alternate_name": "Sulfuric acid, cobalt(2+) salt, hydrate (1:1:7);Sulfuric acid, cobalt(2+) salt (1:1), heptahydrate;Cobaltous sulfate heptahydrate;Cobalt sulfate hydrate (CoSO<sub>4</sub>.7H<sub>2</sub>O);Cobalt sulfate (CoSO<sub>4</sub>) heptahydrate;Cobalt monosulfate heptahydrate;Cobalt(2+) sulfate heptahydrate;Cobalt(II) sulfate heptahydrate",
    "duplicated_cas_no": "2360969-75-9;2374869-82-4",
    "SMILES": "S(=O)(=O)(O)O.[Co].O",
    "meta_data": {
        "InChI": "InChI=1S/Co.H2O4S.7H2O/c;1-5(2,3)4;;;;;;;/h;(H2,1,2,3,4);7*1H2",
        "InChIKey": null,
        "Canonical SMILES": "[Co].O=S(=O)(O)O.O",
        "Molecular Formula": "Co.H<sub>2</sub>O<sub>4</sub>S.7H<sub>2</sub>O",
        "Molecular Mass": "",
        "Boiling Point": "420 °C",
        "Melting Point": "96.8 °C",
        "Density": "1.95 g/cm³"
    }
}