{
    "cas_no": "1006-23-1",
    "key_name": "5-Nitroso-2,4,6-pyrimidinetriamine",
    "cn_name": "5-亚硝基-2,4,6-三氨基嘧啶;",
    "alternate_name": "2,4,6-Pyrimidinetriamine, 5-nitroso-;Pyrimidine, 2,4,6-triamino-5-nitroso-;5-Nitroso-2,4,6-pyrimidinetriamine;2,4,6-Triamino-5-nitrosopyrimidine;5-Nitroso-2,4,6-triaminopyrimidine;TX 1041;NSC 67309;NSC 677554",
    "duplicated_cas_no": "",
    "SMILES": "N(=O)C=1C(N)=NC(N)=NC1N",
    "meta_data": {
        "InChI": "InChI=1S/C4H6N6O/c5-2-1(10-11)3(6)9-4(7)8-2/h(H6,5,6,7,8,9)",
        "InChIKey": null,
        "Canonical SMILES": "O=NC=1C(=NC(=NC1N)N)N",
        "Molecular Formula": "C<sub>4</sub>H<sub>6</sub>N<sub>6</sub>O",
        "Molecular Mass": "154.13",
        "Melting Point": "345 °C (decomp)"
    }
}