{
    "cas_no": "115-26-4",
    "key_name": "Dimefox",
    "cn_name": "甲氯磷;甲氟磷;四甲氟;TERRE-SYTAM;氟化四甲基磷二酰胺;氟甲胺磷;双(二甲胺基)磷酰氟;",
    "alternate_name": "Phosphorodiamidic fluoride, <em>N</em>,<em>N</em>,<em>N</em>′,<em>N</em>′-tetramethyl-;Phosphorodiamidic fluoride, tetramethyl-;<em>N</em>,<em>N</em>,<em>N</em>′,<em>N</em>′-Tetramethylphosphorodiamidic fluoride;CR 409;BFPO;Bis(dimethylamido)fluorophosphate;Bis(dimethylamido)fluorophosphine oxide;Bis(dimethylamido)phosphoryl fluoride;Bis(dimethylamino)fluorophosphine oxide;DIFO;Dimefox;Fluorophosphoric acid di(dimethylamide);Hanane;Pestox 14;Phosphine oxide, bis(dimethylamino)fluoro-;Tetramethyldiamidophosphoric fluoride;Tetramethylphosphorodiamidic fluoride;Terra-Sytam;Bis(dimethylamino)phosphorofluoridate",
    "duplicated_cas_no": "",
    "SMILES": "P(N(C)C)(N(C)C)(F)=O",
    "meta_data": {
        "InChI": "InChI=1S/C4H12FN2OP/c1-6(2)9(5,8)7(3)4/h1-4H3",
        "InChIKey": null,
        "Canonical SMILES": "O=P(F)(N(C)C)N(C)C",
        "Molecular Formula": "C<sub>4</sub>H<sub>12</sub>FN<sub>2</sub>OP",
        "Molecular Mass": "154.12",
        "Boiling Point": "67 °C @ Press: 4.0 Torr",
        "Density": "1.1151 g/cm³ @ Temp: 20 °C"
    }
}