{
    "cas_no": "3029-79-6",
    "key_name": "3-(3-Methylphenyl)-2-propenoic acid",
    "cn_name": null,
    "alternate_name": "2-Propenoic acid, 3-(3-methylphenyl)-;Cinnamic acid, <em>m</em>-methyl-;3-(3-Methylphenyl)-2-propenoic acid;<em>m</em>-Methylcinnamic acid;3-Methylcinnamic acid;3-(3-Methylphenyl)acrylic acid;3-<em>m</em>-Tolylacrylic acid",
    "duplicated_cas_no": "",
    "SMILES": "C(=CC(O)=O)C1=CC(C)=CC=C1",
    "meta_data": {
        "InChI": "InChI=1S/C10H10O2/c1-8-3-2-4-9(7-8)5-6-10(11)12/h2-7H,1H3,(H,11,12)",
        "InChIKey": null,
        "Canonical SMILES": "O=C(O)C=CC1=CC=CC(=C1)C",
        "Molecular Formula": "C<sub>10</sub>H<sub>10</sub>O<sub>2</sub>",
        "Molecular Mass": "162.19",
        "Melting Point": "114-115 °C"
    }
}