{
    "cas_no": "66003-76-7",
    "key_name": "Diphenyliodonium triflate",
    "cn_name": null,
    "alternate_name": "Iodonium, diphenyl-, 1,1,1-trifluoromethanesulfonate (1:1);Iodonium, diphenyl-, salt with trifluoromethanesulfonic acid (1:1);Methanesulfonic acid, trifluoro-, ion(1-), diphenyliodonium;Diphenyliodonium triflate;Diphenyliodonium trifluoromethanesulfonate;Diphenyliodonium trifluoromethanesulfonic acid salt;DPI 105;Methanesulfonic acid, 1,1,1-trifluoro-, diphenyliodyl ester",
    "duplicated_cas_no": "181429-32-3;1629183-78-3;1879942-68-3;2102713-47-1;2567762-07-4",
    "SMILES": "C(S(=O)(=O)[O-])(F)(F)F.[I+](C1=CC=CC=C1)C2=CC=CC=C2",
    "meta_data": {
        "InChI": "InChI=1S/C12H10I.CHF3O3S/c1-3-7-11(8-4-1)13-12-9-5-2-6-10-12;2-1(3,4)8(5,6)7/h1-10H;(H,5,6,7)/q+1;/p-1",
        "InChIKey": null,
        "Canonical SMILES": "O=S(=O)([O-])C(F)(F)F.[I+](C=1C=CC=CC1)C=2C=CC=CC2",
        "Molecular Formula": "C<sub>12</sub>H<sub>10</sub>I.CF<sub>3</sub>O<sub>3</sub>S",
        "Molecular Mass": "",
        "Melting Point": "176-177 °C"
    }
}