{
    "cas_no": "5333-42-6",
    "key_name": "2-Octyldodecanol",
    "cn_name": "2-辛基-1-十二烷醇;",
    "alternate_name": "1-Dodecanol, 2-octyl-;2-Octyl-1-dodecanol;2-Octyldodecanol;Eutanol G;2-Octyldodecyl alcohol;Exxal 20;Rilanit G 20;Isofol 20;Kalcohl 200GD;Kalcohl 200G;NSC 2405;Guerbet C20;Risonol 20SP;Fine Oxocol 2000;OHV 180;Jarcol I 20;NJCOL 200A;Eutanol G-PH;Kollicream OD;Tegosoft G 20;Octyldodecanol;Octyldodecyl alcohol;Eutanol G-JP;Polymol G;2-Decyl-1-decanol;Eutanol GJ-P",
    "duplicated_cas_no": "123897-20-1;125200-13-7;8039-11-0;179606-99-6;84286-57-7;114265-32-6",
    "SMILES": "C(CCCCCCCCCC)(CCCCCCCC)CO",
    "meta_data": {
        "InChI": "InChI=1S/C20H42O/c1-3-5-7-9-11-12-14-16-18-20(19-21)17-15-13-10-8-6-4-2/h20-21H,3-19H2,1-2H3",
        "InChIKey": null,
        "Canonical SMILES": "OCC(CCCCCCCC)CCCCCCCCCC",
        "Molecular Formula": "C<sub>20</sub>H<sub>42</sub>O",
        "Molecular Mass": "298.55",
        "Boiling Point": "230 °C @ Press: 17 Torr",
        "Density": "0.8463 g/cm³ @ Temp: 19 °C"
    }
}