{
    "cas_no": "100-22-1",
    "key_name": "<em>N</em>,<em>N</em>,<em>N</em>′,<em>N</em>′-Tetramethyl-<em>p</em>-phenylenediamine",
    "cn_name": "N,N,N\",N\"-四甲基对苯二胺;N,N,N\",N\"-四甲基-1,4-苯二胺;",
    "alternate_name": "1,4-Benzenediamine, <em>N</em><sup>1</sup>,<em>N</em><sup>1</sup>,<em>N</em><sup>4</sup>,<em>N</em><sup>4</sup>-tetramethyl-;<em>p</em>-Phenylenediamine, <em>N</em>,<em>N</em>,<em>N</em>′,<em>N</em>′-tetramethyl-;1,4-Benzenediamine, <em>N</em>,<em>N</em>,<em>N</em>′,<em>N</em>′-tetramethyl-;<em>N</em><sup>1</sup>,<em>N</em><sup>1</sup>,<em>N</em><sup>4</sup>,<em>N</em><sup>4</sup>-Tetramethyl-1,4-benzenediamine;1,4-Bis(dimethylamino)benzene;TMPD;<em>p</em>-Bis(dimethylamino)benzene;Tetramethyl-<em>p</em>-phenylenediamine;<em>N</em>,<em>N</em>,<em>N</em>′,<em>N</em>′-Tetramethyl-1,4-phenylenediamine;TMPD (amine);<em>N</em>,<em>N</em>-Dimethyl-<em>p</em>-(dimethylamino)aniline;<em>N</em>,<em>N</em>,<em>N</em>′,<em>N</em>′-Tetramethyl-<em>p</em>-benzenediamine;TMPDA;<em>N</em>,<em>N</em>,<em>N</em>′,<em>N</em>′-Tetramethyl-1,4-diaminobenzene;Wurster's reagent;4-(Dimethylamino)-<em>N</em>,<em>N</em>-dimethylaniline;<em>N</em>,<em>N</em>,<em>N</em>′,<em>N</em>′-Tetramethyl-<em>p</em>-phenylenediamine;<em>p</em>-(Dimethylamino)-<em>N</em>,<em>N</em>-dimethylaniline;TMPPD;<em>N</em>,<em>N</em>,<em>N</em>′,<em>N</em>′-Tetramethyl-1,4-benzenediamine;Reagents, Wurster's;1-<em>N</em>,1-<em>N</em>,4-<em>N</em>,4-<em>N</em>-Tetramethylbenzene-1,4-diamine",
    "duplicated_cas_no": "",
    "SMILES": "N(C)(C)C1=CC=C(N(C)C)C=C1",
    "meta_data": {
        "InChI": "InChI=1S/C10H16N2/c1-11(2)9-5-7-10(8-6-9)12(3)4/h5-8H,1-4H3",
        "InChIKey": null,
        "Canonical SMILES": "C=1C=C(C=CC1N(C)C)N(C)C",
        "Molecular Formula": "C<sub>10</sub>H<sub>16</sub>N<sub>2</sub>",
        "Molecular Mass": "164.25",
        "Boiling Point": "260 °C",
        "Melting Point": "51 °C"
    }
}