{
    "cas_no": "341-41-3",
    "key_name": "1-Bromo-4-fluoronaphthalene",
    "cn_name": "1-溴-4-氟萘;1-溴-4-氟萘,98%;1-溴-4-氟萘;",
    "alternate_name": "Naphthalene, 1-bromo-4-fluoro-;1-Bromo-4-fluoronaphthalene;4-Fluoro-1-naphthyl bromide;1-Fluoro-4-bromonaphthalene",
    "duplicated_cas_no": "",
    "SMILES": "BrC=1C2=C(C(F)=CC1)C=CC=C2",
    "meta_data": {
        "InChI": "InChI=1S/C10H6BrF/c11-9-5-6-10(12)8-4-2-1-3-7(8)9/h1-6H",
        "InChIKey": null,
        "Canonical SMILES": "FC1=CC=C(Br)C=2C=CC=CC12",
        "Molecular Formula": "C<sub>10</sub>H<sub>6</sub>BrF",
        "Molecular Mass": "225.06",
        "Boiling Point": "110-115 °C @ Press: 2 Torr",
        "Melting Point": "37 °C"
    }
}