{
    "cas_no": "15760-35-7",
    "key_name": "3-Methylenecyclobutanecarbonitrile",
    "cn_name": "3-亚甲基环丁基甲腈;",
    "alternate_name": "Cyclobutanecarbonitrile, 3-methylene-;3-Methylenecyclobutanecarbonitrile;3-Methylene-1-cyanocyclobutane;3-Methylenecyanocyclobutane;3-Methylenecyclobutane-1-carbonitrile;3-Methylidenecyclobutane-1-carbonitrile;3-Methylidenecyclobutanecarbonitrile",
    "duplicated_cas_no": "",
    "SMILES": "C(#N)C1CC(=C)C1",
    "meta_data": {
        "InChI": "InChI=1S/C6H7N/c1-5-2-6(3-5)4-7/h6H,1-3H2",
        "InChIKey": null,
        "Canonical SMILES": "N#CC1CC(=C)C1",
        "Molecular Formula": "C<sub>6</sub>H<sub>7</sub>N",
        "Molecular Mass": "93.13",
        "Boiling Point": "64-65 °C @ Press: 21 Torr"
    }
}