{
    "cas_no": "214822-96-5",
    "key_name": "Benzoic acid, 4-fluoro-3-hydroxy-, methyl ester",
    "cn_name": "4-氟-3-羟基苯甲酸甲酯;",
    "alternate_name": "Benzoic acid, 4-fluoro-3-hydroxy-, methyl ester;Methyl 4-fluoro-3-hydroxybenzoate;4-Fluoro-3-hydroxybenzoic acid methyl ester;4-Fluoro-5-hydroxybenzoic acid methyl ester;Methyl 4-fluoro-5-hydroxybenzoate",
    "duplicated_cas_no": "",
    "SMILES": "C(OC)(=O)C1=CC(O)=C(F)C=C1",
    "meta_data": {
        "InChI": "InChI=1S/C8H7FO3/c1-12-8(11)5-2-3-6(9)7(10)4-5/h2-4,10H,1H3",
        "InChIKey": null,
        "Canonical SMILES": "O=C(OC)C1=CC=C(F)C(O)=C1",
        "Molecular Formula": "C<sub>8</sub>H<sub>7</sub>FO<sub>3</sub>",
        "Molecular Mass": "170.14",
        "Melting Point": "78-86 °C"
    }
}