{
    "cas_no": "2632-13-5",
    "key_name": "4-Methoxyphenacyl bromide",
    "cn_name": "alpha-溴-4-甲氧基苯乙酮;2-溴-4\"-甲氧基苯乙酮;",
    "alternate_name": "Ethanone, 2-bromo-1-(4-methoxyphenyl)-;Acetophenone, 2-bromo-4′-methoxy-;2-Bromo-1-(4-methoxyphenyl)ethanone;4-Methoxyphenacyl bromide;2-Bromo-4′-methoxyacetophenone;<em>p</em>-Methoxyphenacyl bromide;2-Bromo-<em>p</em>-methoxyacetophenone;4′-Methoxy-2-bromoacetophenone;ω-Bromo-4′-methoxyacetophenone;α-Bromo-<em>p</em>-methoxyacetophenone;4′-Methoxyphenacyl bromide;α-Bromo-4′-methoxyacetophenone;Bromomethyl <em>p</em>-anisyl ketone;2-Bromo-1-(4-methoxyphenyl)-1-ethanone;2-(4-Methoxyphenyl)-2-oxoethyl bromide;ω-Bromo-<em>p</em>-methoxyacetophenone;Bromomethyl <em>p</em>-methoxyphenyl ketone;α-Bromo-4-methoxyacetophenone;Bromomethyl 4-methoxyphenyl ketone;4-Methoxy-2′-bromoacetophenone;NSC 129010;2-Bromo-1-[4-(methyloxy)phenyl]ethanone;1-(Bromoacetyl)-4-methoxybenzene;<em>p</em>-Methoxy-2-bromoacetophenone;2-Bromo-(4-methoxyphenyl)ethan-1-one",
    "duplicated_cas_no": "",
    "SMILES": "C(CBr)(=O)C1=CC=C(OC)C=C1",
    "meta_data": {
        "InChI": "InChI=1S/C9H9BrO2/c1-12-8-4-2-7(3-5-8)9(11)6-10/h2-5H,6H2,1H3",
        "InChIKey": null,
        "Canonical SMILES": "O=C(C1=CC=C(OC)C=C1)CBr",
        "Molecular Formula": "C<sub>9</sub>H<sub>9</sub>BrO<sub>2</sub>",
        "Molecular Mass": "229.07",
        "Melting Point": "72-73 °C"
    }
}