{
    "cas_no": "56287-74-2",
    "key_name": "Afloqualone",
    "cn_name": "氟喹酮;6-氨基-2-(氟甲基)-3-(2-甲基苯基)-4-(3H)-1,3-二氮杂萘酮;",
    "alternate_name": "4(3<em>H</em>)-Quinazolinone, 6-amino-2-(fluoromethyl)-3-(2-methylphenyl)-;6-Amino-2-(fluoromethyl)-3-(2-methylphenyl)-4(3<em>H</em>)-quinazolinone;H 495;Afloqualone;HQ 495;Arofuto;Aroft;6-Amino-2-(fluoromethyl)-3-(2-methylphenyl)quinazolin-4(3<em>H</em>)-one",
    "duplicated_cas_no": "154088-26-3",
    "SMILES": "C(F)C=1N(C(=O)C=2C(N1)=CC=C(N)C2)C3=C(C)C=CC=C3",
    "meta_data": {
        "InChI": "InChI=1S/C16H14FN3O/c1-10-4-2-3-5-14(10)20-15(9-17)19-13-7-6-11(18)8-12(13)16(20)21/h2-8H,9,18H2,1H3",
        "InChIKey": null,
        "Canonical SMILES": "O=C1C=2C=C(N)C=CC2N=C(N1C=3C=CC=CC3C)CF",
        "Molecular Formula": "C<sub>16</sub>H<sub>14</sub>FN<sub>3</sub>O",
        "Molecular Mass": "283.30",
        "Melting Point": "195-196 °C"
    }
}