{
    "cas_no": "1139-83-9",
    "key_name": "Urolithin B",
    "cn_name": null,
    "alternate_name": "6<em>H</em>-Dibenzo[<em>b</em>,<em>d</em>]pyran-6-one, 3-hydroxy-;2-Biphenylcarboxylic acid, 2′,4′-dihydroxy-, δ-lactone;3-Hydroxy-6<em>H</em>-dibenzo[<em>b</em>,<em>d</em>]pyran-6-one;7-Hydroxy-3,4-benzocoumarin;Urolithin B;NSC 94726;3-Hydroxydibenzo-α-pyrone;3-Hydroxyurolithin;3-Hydroxy-6<em>H</em>-benzo[<em>c</em>]chromen-6-one;3-Hydroxybenzo[<em>c</em>]chromen-6-one;3-Hydroxy-6<em>H</em>-benzo[<em>c</em>]chromene-6-one",
    "duplicated_cas_no": "",
    "SMILES": "O=C1C=2C(C=3C(O1)=CC(O)=CC3)=CC=CC2",
    "meta_data": {
        "InChI": "InChI=1S/C13H8O3/c14-8-5-6-10-9-3-1-2-4-11(9)13(15)16-12(10)7-8/h1-7,14H",
        "InChIKey": null,
        "Canonical SMILES": "O=C1OC=2C=C(O)C=CC2C=3C=CC=CC13",
        "Molecular Formula": "C<sub>13</sub>H<sub>8</sub>O<sub>3</sub>",
        "Molecular Mass": "212.20",
        "Melting Point": "247 °C"
    }
}