{
    "cas_no": "751-97-3",
    "key_name": "Rolitetracycline",
    "cn_name": null,
    "alternate_name": "2-Naphthacenecarboxamide, 4-(dimethylamino)-1,4,4a,5,5a,6,11,12a-octahydro-3,6,10,12,12a-pentahydroxy-6-methyl-1,11-dioxo-<em>N</em>-(1-pyrrolidinylmethyl)-, (4<em>S</em>,4a<em>S</em>,5a<em>S</em>,6<em>S</em>,12a<em>S</em>)-;2-Naphthacenecarboxamide, 4-(dimethylamino)-1,4,4a,5,5a,6,11,12a-octahydro-3,6,10,12,12a-pentahydroxy-6-methyl-1,11-dioxo-<em>N</em>-(1-pyrrolidinylmethyl)-;2-Naphthacenecarboxamide, 4-(dimethylamino)-1,4,4a,5,5a,6,11,12a-octahydro-3,6,10,12,12a-pentahydroxy-6-methyl-1,11-dioxo-<em>N</em>-(1-pyrrolidinylmethyl)-, [4<em>S</em>-(4α,4aα,5aα,6β,12aα)]-;(4<em>S</em>,4a<em>S</em>,5a<em>S</em>,6<em>S</em>,12a<em>S</em>)-4-(Dimethylamino)-1,4,4a,5,5a,6,11,12a-octahydro-3,6,10,12,12a-pentahydroxy-6-methyl-1,11-dioxo-<em>N</em>-(1-pyrrolidinylmethyl)-2-naphthacenecarboxamide;SQ 15659;4-(Dimethylamino)-1,4,4a,5,5a,6,11,12a-octahydro-3,6,10,12,12a-pentahydroxy-6-methyl-1,11-dioxo-<em>N</em>-(1-pyrrolidinylmethyl)-2-naphthacenecarboxamide;<em>N</em>-(Pyrrolidinomethyl)tetracycline;<em>N</em>-(1-Pyrrolidinylmethyl)tetracycline;Reverin;Rolitetracycline;Syntetrin;Velacycline;Abricycline;Tetraverin;Bristacin;Superciclin;Synotodecin;Transcycline;Pyrrolidinylmethyltetracycline",
    "duplicated_cas_no": "106408-39-3;107422-65-1;7433-04-7;801978-99-4;856650-20-9;878791-14-1",
    "SMILES": "O[C@]12[C@]([C@H](N(C)C)C(O)=C(C(NCN3CCCC3)=O)C1=O)(C[C@]4(C(=C2O)C(=O)C=5C([C@@]4(C)O)=CC=CC5O)[H])[H]",
    "meta_data": {
        "InChI": "InChI=1S/C27H33N3O8/c1-26(37)13-7-6-8-16(31)17(13)21(32)18-14(26)11-15-20(29(2)3)22(33)19(24(35)27(15,38)23(18)34)25(36)28-12-30-9-4-5-10-30/h6-8,14-15,20,31,33-34,37-38H,4-5,9-12H2,1-3H3,(H,28,36)/t14-,15-,20-,26+,27-/m0/s1",
        "InChIKey": null,
        "Canonical SMILES": "O=C(NCN1CCCC1)C=2C(=O)C3(O)C(O)=C4C(=O)C=5C(O)=CC=CC5C(O)(C)C4CC3C(C2O)N(C)C",
        "Molecular Formula": "C<sub>27</sub>H<sub>33</sub>N<sub>3</sub>O<sub>8</sub>",
        "Molecular Mass": "527.57",
        "Melting Point": "160-165 °C (decomp)"
    }
}