{
    "cas_no": "2033-45-6",
    "key_name": "4-Iodo-3,5-dimethyl-1<em>H</em>-pyrazole",
    "cn_name": "3,5-二甲基-4-碘吡唑;4-碘-3,5-二甲基吡唑;",
    "alternate_name": "1<em>H</em>-Pyrazole, 4-iodo-3,5-dimethyl-;Pyrazole, 4-iodo-3,5-dimethyl-;4-Iodo-3,5-dimethyl-1<em>H</em>-pyrazole;4-Iodo-3,5-dimethylpyrazole;NSC 100887;3,5-Dimethyl-4-iodopyrazole;3,5-Dimethyl-4-iodo-1<em>H</em>-pyrazole",
    "duplicated_cas_no": "",
    "SMILES": "IC=1C(C)=NNC1C",
    "meta_data": {
        "InChI": "InChI=1S/C5H7IN2/c1-3-5(6)4(2)8-7-3/h1-2H3,(H,7,8)",
        "InChIKey": null,
        "Canonical SMILES": "IC=1C(=NNC1C)C",
        "Molecular Formula": "C<sub>5</sub>H<sub>7</sub>IN<sub>2</sub>",
        "Molecular Mass": "222.03",
        "Melting Point": "137 °C"
    }
}