{
    "cas_no": "16744-98-2",
    "key_name": "2-Fluorophenyl isocyanate",
    "cn_name": "2-氟异氰酸苯酯;",
    "alternate_name": "Benzene, 1-fluoro-2-isocyanato-;Isocyanic acid, <em>o</em>-fluorophenyl ester;1-Fluoro-2-isocyanatobenzene;<em>o</em>-Fluorophenyl isocyanate;2-Fluorophenyl isocyanate;2-Fluoroisocyanatobenzene;2-Fluoro-1-isocyanatobenzene;1-Isocyanato-2-fluorobenzene",
    "duplicated_cas_no": "",
    "SMILES": "N(=C=O)C1=C(F)C=CC=C1",
    "meta_data": {
        "InChI": "InChI=1S/C7H4FNO/c8-6-3-1-2-4-7(6)9-5-10/h1-4H",
        "InChIKey": null,
        "Canonical SMILES": "O=C=NC=1C=CC=CC1F",
        "Molecular Formula": "C<sub>7</sub>H<sub>4</sub>FNO",
        "Molecular Mass": "137.11",
        "Boiling Point": "65 °C @ Press: 18 Torr",
        "Melting Point": "112-113 °C"
    }
}