{
    "cas_no": "602-55-1",
    "key_name": "9-Phenylanthracene",
    "cn_name": "9-苯基蒽;9-苯蒽;",
    "alternate_name": "Anthracene, 9-phenyl-;9-Phenylanthracene;NSC 90796;P 0138",
    "duplicated_cas_no": "",
    "SMILES": "C=1(C2=C(C=C3C1C=CC=C3)C=CC=C2)C4=CC=CC=C4",
    "meta_data": {
        "InChI": "InChI=1S/C20H14/c1-2-8-15(9-3-1)20-18-12-6-4-10-16(18)14-17-11-5-7-13-19(17)20/h1-14H",
        "InChIKey": null,
        "Canonical SMILES": "C=1C=CC(=CC1)C=2C=3C=CC=CC3C=C4C=CC=CC42",
        "Molecular Formula": "C<sub>20</sub>H<sub>14</sub>",
        "Molecular Mass": "254.33",
        "Boiling Point": "417 °C",
        "Melting Point": "156 °C"
    }
}