{
    "cas_no": "1212-08-4",
    "key_name": "<em>S</em>-Phenyl benzenesulfonothioate",
    "cn_name": "S-苯基硫代苯基砜;",
    "alternate_name": "Benzenesulfonothioic acid, <em>S</em>-phenyl ester;Benzenesulfonic acid, thio-, <em>S</em>-phenyl ester;Benzenethiol, benzenesulfonate;<em>S</em>-Phenyl benzenesulfonothioate;Phenyl benzenethiosulfonate;<em>S</em>-Phenyl benzenethiosulfonate;Phenyl phenylthio sulfone;NSC 74657;<em>S</em>-Phenyl benzenemonothiosulfonate;Phenylsulfonyl phenyl sulfide;(Benzenesulfonyl)sulfanylbenzene;[(Benzenesulfonyl)sulfanyl]benzene",
    "duplicated_cas_no": "",
    "SMILES": "S(S(=O)(=O)C1=CC=CC=C1)C2=CC=CC=C2",
    "meta_data": {
        "InChI": "InChI=1S/C12H10O2S2/c13-16(14,12-9-5-2-6-10-12)15-11-7-3-1-4-8-11/h1-10H",
        "InChIKey": null,
        "Canonical SMILES": "O=S(=O)(SC=1C=CC=CC1)C=2C=CC=CC2",
        "Molecular Formula": "C<sub>12</sub>H<sub>10</sub>O<sub>2</sub>S<sub>2</sub>",
        "Molecular Mass": "250.34",
        "Boiling Point": "125 °C @ Press: 0.01 Torr",
        "Melting Point": "45 °C"
    }
}