{
    "cas_no": "1031-93-2",
    "key_name": "Diphenyl-<em>p</em>-tolylphosphine",
    "cn_name": "二苯基对甲苯基膦;二苯基甲苯基磷;对苯甲基二苯基磷;",
    "alternate_name": "Phosphine, (4-methylphenyl)diphenyl-;Phosphine, diphenyl-<em>p</em>-tolyl-;(4-Methylphenyl)diphenylphosphine;Diphenyl-<em>p</em>-tolylphosphine;<em>p</em>-Tolyldiphenylphosphine;Diphenyl-4-tolylphosphine;(4-Methylphenyl)diphenyl phosphine;Diphenyl(4-methylphenyl)phosphine;(4-Methylphenyl)-diphenylphosphane",
    "duplicated_cas_no": "",
    "SMILES": "P(C1=CC=C(C)C=C1)(C2=CC=CC=C2)C3=CC=CC=C3",
    "meta_data": {
        "InChI": "InChI=1S/C19H17P/c1-16-12-14-19(15-13-16)20(17-8-4-2-5-9-17)18-10-6-3-7-11-18/h2-15H,1H3",
        "InChIKey": null,
        "Canonical SMILES": "C=1C=CC(=CC1)P(C=2C=CC=CC2)C3=CC=C(C=C3)C",
        "Molecular Formula": "C<sub>19</sub>H<sub>17</sub>P",
        "Molecular Mass": "276.31",
        "Boiling Point": "250 °C @ Press: 14 Torr",
        "Melting Point": "68-69 °C"
    }
}