{
    "cas_no": "134-25-8",
    "key_name": "2,4-Dichloro-1-(dichloromethyl)benzene",
    "cn_name": "2,4-二氯-1-(二氯甲基)苯;",
    "alternate_name": "Benzene, 2,4-dichloro-1-(dichloromethyl)-;Toluene, α,α,2,4-tetrachloro-;2,4-Dichloro-1-(dichloromethyl)benzene;α,α,2,4-Tetrachlorotoluene;2,4-Dichlorobenzal chloride",
    "duplicated_cas_no": "",
    "SMILES": "C(Cl)(Cl)C1=C(Cl)C=C(Cl)C=C1",
    "meta_data": {
        "InChI": "InChI=1S/C7H4Cl4/c8-4-1-2-5(7(10)11)6(9)3-4/h1-3,7H",
        "InChIKey": null,
        "Canonical SMILES": "ClC1=CC=C(C(Cl)=C1)C(Cl)Cl",
        "Molecular Formula": "C<sub>7</sub>H<sub>4</sub>Cl<sub>4</sub>",
        "Molecular Mass": "229.92",
        "Boiling Point": "110-115 °C @ Press: 1 Torr"
    }
}