{
    "cas_no": "78-77-3",
    "key_name": "1-Bromo-2-methylpropane",
    "cn_name": "溴代异丁烷;",
    "alternate_name": "Propane, 1-bromo-2-methyl-;1-Bromo-2-methylpropane;Isobutyl bromide;<em>iso</em>-Butyl bromide;Bromoisobutane;2-Methylpropyl bromide;NSC 8416;1-Methyl-2-propyl bromide;3-Bromo-2-methylpropane;2-Methyl-1-bromopropane",
    "duplicated_cas_no": "",
    "SMILES": "C(CBr)(C)C",
    "meta_data": {
        "InChI": "InChI=1S/C4H9Br/c1-4(2)3-5/h4H,3H2,1-2H3",
        "InChIKey": null,
        "Canonical SMILES": "BrCC(C)C",
        "Molecular Formula": "C<sub>4</sub>H<sub>9</sub>Br",
        "Molecular Mass": "137.02",
        "Boiling Point": "91.1 °C",
        "Melting Point": "-119 °C",
        "Density": "1.2616 g/cm³ @ Temp: 25 °C"
    }
}