{
    "cas_no": "546-88-3",
    "key_name": "Acetohydroxamic acid",
    "cn_name": "乙酰氧肟酸;醋羟胺酸;N-羟基乙酰胺;",
    "alternate_name": "Acetamide, <em>N</em>-hydroxy-;Acetohydroxamic acid;AHA;Acetohydroximic acid;Hydroxylamine, <em>N</em>-acetyl-;Acetylhydroxamic acid;Methylhydroxamic acid;<em>N</em>-Hydroxyacetamide;<em>N</em>-Acetylhydroxylamine;Acetylhydroxylamine;NSC 176136;NSC 408425;NSC 5073;AHA (urease inhibitor);Ethyl hydroxamic acid",
    "duplicated_cas_no": "1113-25-3",
    "SMILES": "C(NO)(C)=O",
    "meta_data": {
        "InChI": "InChI=1S/C2H5NO2/c1-2(4)3-5/h5H,1H3,(H,3,4)",
        "InChIKey": null,
        "Canonical SMILES": "O=C(NO)C",
        "Molecular Formula": "C<sub>2</sub>H<sub>5</sub>NO<sub>2</sub>",
        "Molecular Mass": "75.07",
        "Melting Point": "89-92 °C"
    }
}