{
    "cas_no": "75-98-9",
    "key_name": "Pivalic acid",
    "cn_name": "三甲基乙酸;特戊酸;2,2-二甲基丙酸;",
    "alternate_name": "Propanoic acid, 2,2-dimethyl-;Pivalic acid;2,2-Dimethylpropanoic acid;α,α-Dimethylpropionic acid;Neopentanoic acid;Trimethylacetic acid;2,2-Dimethylpropionic acid;<em>tert</em>-Pentanoic acid;2,2,2-Trimethylacetic acid;Versatic 5 acid;Trimethylmethanecarboxylic acid;NSC 65449;Neovaleric acid;Versatic Acid 5",
    "duplicated_cas_no": "",
    "SMILES": "C(C(O)=O)(C)(C)C",
    "meta_data": {
        "InChI": "InChI=1S/C5H10O2/c1-5(2,3)4(6)7/h1-3H3,(H,6,7)",
        "InChIKey": null,
        "Canonical SMILES": "O=C(O)C(C)(C)C",
        "Molecular Formula": "C<sub>5</sub>H<sub>10</sub>O<sub>2</sub>",
        "Molecular Mass": "102.13",
        "Boiling Point": "163.8 °C",
        "Melting Point": "35.5 °C",
        "Density": "0.905 g/cm³ @ Temp: 50 °C"
    }
}