{
    "cas_no": "868-28-0",
    "key_name": "<span class=\"text-smallcaps\">L</span>-Isoleucylglycine",
    "cn_name": null,
    "alternate_name": "Glycine, <span class=\"text-smallcaps\">L</span>-isoleucyl-;Glycine, <em>N</em>-<span class=\"text-smallcaps\">L</span>-isoleucyl-;<span class=\"text-smallcaps\">L</span>-Isoleucylglycine;453: PN: WO2005081628 SEQID: 455 claimed protein;45: PN: EP2161028 PAGE: 10 claimed protein;9: PN: EP2878667 TABLE: 5 claimed sequence",
    "duplicated_cas_no": "21735-73-9;1497430-94-0",
    "SMILES": "[C@@H](C(NCC(O)=O)=O)([C@H](CC)C)N",
    "meta_data": {
        "InChI": "InChI=1S/C8H16N2O3/c1-3-5(2)7(9)8(13)10-4-6(11)12/h5,7H,3-4,9H2,1-2H3,(H,10,13)(H,11,12)/t5-,7-/m0/s1",
        "InChIKey": null,
        "Canonical SMILES": "O=C(O)CNC(=O)C(N)C(C)CC",
        "Molecular Formula": "C<sub>8</sub>H<sub>16</sub>N<sub>2</sub>O<sub>3</sub>",
        "Molecular Mass": "188.22",
        "Melting Point": "220 °C"
    }
}