{
    "cas_no": "10047-28-6",
    "key_name": "Butyl thioglycolate",
    "cn_name": "正丁酯硫代乙醇酸;",
    "alternate_name": "Acetic acid, 2-mercapto-, butyl ester;Acetic acid, mercapto-, butyl ester;Butyl thioglycolate;Butyl 2-mercaptoacetate;Thioglycolic acid butyl ester;Butyl mercaptoacetate;Thioglycolic acid <em>n</em>-butyl ester;<em>n</em>-Butyl thioglycolate;NSC 65453",
    "duplicated_cas_no": "",
    "SMILES": "C(OCCCC)(CS)=O",
    "meta_data": {
        "InChI": "InChI=1S/C6H12O2S/c1-2-3-4-8-6(7)5-9/h9H,2-5H2,1H3",
        "InChIKey": null,
        "Canonical SMILES": "O=C(OCCCC)CS",
        "Molecular Formula": "C<sub>6</sub>H<sub>12</sub>O<sub>2</sub>S",
        "Molecular Mass": "148.22",
        "Boiling Point": "63-66 °C @ Press: 2 Torr"
    }
}