{
    "cas_no": "1197-05-3",
    "key_name": "1-(3-Aminophenyl)-1-propanone",
    "cn_name": null,
    "alternate_name": "1-Propanone, 1-(3-aminophenyl)-;Propiophenone, 3′-amino-;1-(3-Aminophenyl)-1-propanone;3-Aminophenyl ethyl ketone;3′-Aminopropiophenone;3-Propionylaniline;<em>m</em>-Aminopropiophenone",
    "duplicated_cas_no": "",
    "SMILES": "C(CC)(=O)C1=CC(N)=CC=C1",
    "meta_data": {
        "InChI": "InChI=1S/C9H11NO/c1-2-9(11)7-4-3-5-8(10)6-7/h3-6H,2,10H2,1H3",
        "InChIKey": null,
        "Canonical SMILES": "O=C(C=1C=CC=C(N)C1)CC",
        "Molecular Formula": "C<sub>9</sub>H<sub>11</sub>NO",
        "Molecular Mass": "149.19",
        "Boiling Point": "168-169 °C",
        "Melting Point": "42 °C"
    }
}