{
    "cas_no": "927-58-2",
    "key_name": "4-Bromobutanoyl chloride",
    "cn_name": "4-溴丁酰氯;",
    "alternate_name": "Butanoyl chloride, 4-bromo-;Butyryl chloride, 4-bromo-;4-Bromobutanoyl chloride;γ-Bromobutyryl chloride;4-Bromobutyryl chloride;4-Bromobutanoic acid chloride;ω-Bromobutanoyl chloride;4-Bromobutyroylic chloride",
    "duplicated_cas_no": "",
    "SMILES": "C(C(Cl)=O)CCBr",
    "meta_data": {
        "InChI": "InChI=1S/C4H6BrClO/c5-3-1-2-4(6)7/h1-3H2",
        "InChIKey": null,
        "Canonical SMILES": "O=C(Cl)CCCBr",
        "Molecular Formula": "C<sub>4</sub>H<sub>6</sub>BrClO",
        "Molecular Mass": "185.45",
        "Boiling Point": "101 °C @ Press: 37 Torr"
    }
}