{
    "cas_no": "7803-65-8",
    "key_name": "Ammonium phosphinate",
    "cn_name": null,
    "alternate_name": "Phosphinic acid, ammonium salt (1:1);Phosphinic acid, ammonium salt;Ammonium hypophosphite ((NH<sub>4</sub>)H<sub>2</sub>PO<sub>2</sub>);Ammonium phosphinate",
    "duplicated_cas_no": "1202864-65-0",
    "SMILES": "[PH2](=O)O.N",
    "meta_data": {
        "InChI": "InChI=1S/H3N.H3O2P/c;1-3-2/h1H3;3H2,(H,1,2)",
        "InChIKey": null,
        "Canonical SMILES": "O=[PH2]O.N",
        "Molecular Formula": "H<sub>3</sub>N.H<sub>3</sub>O<sub>2</sub>P",
        "Molecular Mass": "",
        "Melting Point": "200 °C",
        "Density": "1.634 g/cm³"
    }
}