{
    "cas_no": "15128-52-6",
    "key_name": "1,2,3,9-Tetrahydro-4<em>H</em>-carbazol-4-one",
    "cn_name": null,
    "alternate_name": "4<em>H</em>-Carbazol-4-one, 1,2,3,9-tetrahydro-;Carbazol-4(1<em>H</em>)-one, 2,3-dihydro-;1,2,3,9-Tetrahydro-4<em>H</em>-carbazol-4-one;2,3-Dihydrocarbazol-4(1<em>H</em>)-one;4-Oxo-1,2,3,4-tetrahydrocarbazole;1,2,3,4-Tetrahydro-4-oxocarbazole;1,2,3,4-Tetrahydrocarbazol-4-one;1,2-Dihydro-4(3<em>H</em>)-carbazolone;1,2,3,9-Tetrahydro-carbazole-4-one;1,2,3,9-Tetrahydro-carbazol-4-one;2,3,4,9-Tetrahydro-1<em>H</em>-carbazol-4-one",
    "duplicated_cas_no": "104876-53-1;1632970-28-5",
    "SMILES": "O=C1C=2C=3C(NC2CCC1)=CC=CC3",
    "meta_data": {
        "InChI": "InChI=1S/C12H11NO/c14-11-7-3-6-10-12(11)8-4-1-2-5-9(8)13-10/h1-2,4-5,13H,3,6-7H2",
        "InChIKey": null,
        "Canonical SMILES": "O=C1C=2C=3C=CC=CC3NC2CCC1",
        "Molecular Formula": "C<sub>12</sub>H<sub>11</sub>NO",
        "Molecular Mass": "185.22",
        "Melting Point": "223 °C"
    }
}