{
    "cas_no": "3768-58-9",
    "key_name": "<em>N</em>,<em>N</em>,<em>N</em>′,<em>N</em>′,1,1-Hexamethylsilanediamine",
    "cn_name": "双(二甲基氨基)二甲基硅烷;六甲基硅二胺;",
    "alternate_name": "Silanediamine, <em>N</em>,<em>N</em>,<em>N</em>′,<em>N</em>′,1,1-hexamethyl-;Silanediamine, hexamethyl-;<em>N</em>,<em>N</em>,<em>N</em>′,<em>N</em>′,1,1-Hexamethylsilanediamine;Bis(dimethylamino)dimethylsilane;Dimethylbis(dimethylamino)silane;Bis(<em>N</em>,<em>N</em>-dimethylamino)dimethylsilane;Hexamethylsilanediamine;BDMADS;Dimethylsilylbis(dimethylamine);LS 1440;Dimethyldi(<em>N</em>,<em>N</em>-dimethylamino)silane;[(Dimethylamino)dimethylsilyl]dimethylamine",
    "duplicated_cas_no": "",
    "SMILES": "[Si](N(C)C)(N(C)C)(C)C",
    "meta_data": {
        "InChI": "InChI=1S/C6H18N2Si/c1-7(2)9(5,6)8(3)4/h1-6H3",
        "InChIKey": null,
        "Canonical SMILES": "N(C)(C)[Si](N(C)C)(C)C",
        "Molecular Formula": "C<sub>6</sub>H<sub>18</sub>N<sub>2</sub>Si",
        "Molecular Mass": "146.31",
        "Boiling Point": "128-129 °C",
        "Melting Point": "-98 °C",
        "Density": "0.810 g/cm³"
    }
}