{
    "cas_no": "621-03-4",
    "key_name": "2-Cyano-<em>N</em>-phenylacetamide",
    "cn_name": "2-氰基乙酰苯胺;",
    "alternate_name": "Acetamide, 2-cyano-<em>N</em>-phenyl-;Acetanilide, 2-cyano-;2-Cyano-<em>N</em>-phenylacetamide;Cyanoacetic acid anilide;<em>N</em>-Phenylcyanoacetamide;α-Cyanoacetanilide;2-Cyanoacetanilide;(Phenylcarbamoyl)acetonitrile;UP 590-1;NSC 6313;<em>N</em>-Phenyl-2-cyanoacetamide",
    "duplicated_cas_no": "",
    "SMILES": "N(C(CC#N)=O)C1=CC=CC=C1",
    "meta_data": {
        "InChI": "InChI=1S/C9H8N2O/c10-7-6-9(12)11-8-4-2-1-3-5-8/h1-5H,6H2,(H,11,12)",
        "InChIKey": null,
        "Canonical SMILES": "N#CCC(=O)NC=1C=CC=CC1",
        "Molecular Formula": "C<sub>9</sub>H<sub>8</sub>N<sub>2</sub>O",
        "Molecular Mass": "160.17",
        "Melting Point": "198.5-200 °C"
    }
}