{
    "cas_no": "271-29-4",
    "key_name": "1<em>H</em>-Pyrrolo[2,3-<em>c</em>]pyridine",
    "cn_name": "6-氮杂吲哚;",
    "alternate_name": "1<em>H</em>-Pyrrolo[2,3-<em>c</em>]pyridine;6-Azaindole;1,6-Diazaindene;Harmyrine",
    "duplicated_cas_no": "",
    "SMILES": "C1=2C(NC=C1)=CN=CC2",
    "meta_data": {
        "InChI": "InChI=1S/C7H6N2/c1-3-8-5-7-6(1)2-4-9-7/h1-5,9H",
        "InChIKey": null,
        "Canonical SMILES": "N=1C=CC=2C=CNC2C1",
        "Molecular Formula": "C<sub>7</sub>H<sub>6</sub>N<sub>2</sub>",
        "Molecular Mass": "118.14",
        "Melting Point": "137 °C"
    }
}