{
    "cas_no": "13881-91-9",
    "key_name": "Aminomethanesulfonic acid",
    "cn_name": null,
    "alternate_name": "Methanesulfonic acid, 1-amino-;Methanesulfonic acid, amino-;1-Aminomethanesulfonic acid;(Aminomethyl)sulfonic acid;Aminomethanesulfonic acid;NSC 209983",
    "duplicated_cas_no": "",
    "SMILES": "S(CN)(=O)(=O)O",
    "meta_data": {
        "InChI": "InChI=1S/CH5NO3S/c2-1-6(3,4)5/h1-2H2,(H,3,4,5)",
        "InChIKey": null,
        "Canonical SMILES": "O=S(=O)(O)CN",
        "Molecular Formula": "CH<sub>5</sub>NO<sub>3</sub>S",
        "Molecular Mass": "111.12",
        "Melting Point": "182-183 °C"
    }
}