{
    "cas_no": "38439-33-7",
    "key_name": "4-Methyl-2,6-pyridinediamine",
    "cn_name": null,
    "alternate_name": "2,6-Pyridinediamine, 4-methyl-;4-Picoline, 2,6-diamino-;4-Methyl-2,6-pyridinediamine;2,6-Diamino-4-methylpyridine;4-Methylpyridine-2,6-diamine",
    "duplicated_cas_no": "",
    "SMILES": "CC=1C=C(N)N=C(N)C1",
    "meta_data": {
        "InChI": "InChI=1S/C6H9N3/c1-4-2-5(7)9-6(8)3-4/h2-3H,1H3,(H4,7,8,9)",
        "InChIKey": null,
        "Canonical SMILES": "N=1C(N)=CC(=CC1N)C",
        "Molecular Formula": "C<sub>6</sub>H<sub>9</sub>N<sub>3</sub>",
        "Molecular Mass": "123.16",
        "Melting Point": "85-86 °C"
    }
}