{
    "cas_no": "14335-33-2",
    "key_name": "Phosphoric acid-<em>d</em><sub>3</sub>",
    "cn_name": "磷酸-d3;全氘代磷酸;",
    "alternate_name": "Phosphoric acid-<em>d</em><sub>3</sub>;Deuterium phosphate (D<sub>3</sub>PO<sub>4</sub>);Phosphoric acid (D<sub>3</sub>PO<sub>4</sub>)",
    "duplicated_cas_no": "",
    "SMILES": "P(=O)(O[2H])(O[2H])O[2H]",
    "meta_data": {
        "InChI": "InChI=1S/H3O4P/c1-5(2,3)4/h(H3,1,2,3,4)/i/hD3",
        "InChIKey": null,
        "Canonical SMILES": "O=P(O)(O)O",
        "Molecular Formula": "D<sub>3</sub>O<sub>4</sub>P",
        "Molecular Mass": "",
        "Melting Point": "46.0 °C",
        "Density": "1.9119 g/cm³ @ Temp: 22 °C"
    }
}