{
    "cas_no": "150-25-4",
    "key_name": "Bicine",
    "cn_name": "N,N-二羟乙基甘氨酸;",
    "alternate_name": "Glycine, <em>N</em>,<em>N</em>-bis(2-hydroxyethyl)-;<em>N</em>,<em>N</em>-Bis(2-hydroxyethyl)glycine;DHEG;Diethanol glycine;Diethylolglycine;<em>N</em>,<em>N</em>-Di(2-hydroxyethyl)glycine;Fe-3-Specific;Bicine;Dihydroxyethylglycine;<em>N</em>,<em>N</em>-Bis(β-hydroxyethyl)glycine;<em>N</em>,<em>N</em>-Dihydroxyethylglycine;<em>N</em>,<em>N</em>-Bis(hydroxyethyl)glycine;Bis(2-Hydroxyethyl)glycine;<em>N</em>,<em>N</em>-Bis(2-hydroxyethyl)aminoacetic acid;(Bis(2-hydroxyethyl)amino)acetic acid;NSC 7342;NSC 7512;Chelest GA;Bicin;2-[Bis(2-hydroxyethyl)azaniumyl]acetate;2-[Bis(2-hydroxyethyl)amino]acetic acid",
    "duplicated_cas_no": "",
    "SMILES": "N(CC(O)=O)(CCO)CCO",
    "meta_data": {
        "InChI": "InChI=1S/C6H13NO4/c8-3-1-7(2-4-9)5-6(10)11/h8-9H,1-5H2,(H,10,11)",
        "InChIKey": null,
        "Canonical SMILES": "O=C(O)CN(CCO)CCO",
        "Molecular Formula": "C<sub>6</sub>H<sub>13</sub>NO<sub>4</sub>",
        "Molecular Mass": "163.17",
        "Melting Point": "194 °C (decomp)"
    }
}