{
    "cas_no": "70-25-7",
    "key_name": "<em>N</em>-Methyl-<em>N</em>′-nitro-<em>N</em>-nitrosoguanidine",
    "cn_name": "1-甲基-3-硝基-1-亚硝基胍;",
    "alternate_name": "Guanidine, <em>N</em>-methyl-<em>N</em>′-nitro-<em>N</em>-nitroso-;Guanidine, 1-methyl-3-nitro-1-nitroso-;<em>N</em>-Methyl-<em>N</em>′-nitro-<em>N</em>-nitrosoguanidine;1-Methyl-3-nitro-1-nitrosoguanidine;<em>N</em>-Nitroso-<em>N</em>-methyl-<em>N</em>′-nitroguanidine;1-Nitroso-3-nitro-1-methylguanidine;<em>N</em>-Methyl-<em>N</em>-nitroso-<em>N</em>′-nitroguanidine;MNNG;<em>N</em>-Nitroso-<em>N</em>-methylnitroguanidine;<em>N</em>-Nitroso-<em>N</em>′-nitro-<em>N</em>-methylguanidine;<em>N</em>-Methyl-<em>N</em><sup>1</sup>-nitro-<em>N</em>-nitrosoguanidine;Methylnitronitrosoguanidine;NSC 9369;<em>N</em>-Methyl-<em>N</em>′-nitro-<em>N</em>-nitrosoguanadine;1-Methyl-1-nitroso-3-nitroguanidine;Nitrosoguanidine;1-Methyl-1-nitroso-2-nitroguanidine;NTG;<em>N</em>-Methyl-nitroso-<em>N</em>′-nitroguanidine;<em>N</em>-Nitrosoguanidine;1-Methyl-2-nitro-1-nitrosoguanidine",
    "duplicated_cas_no": "100234-53-5",
    "SMILES": "C(N(N=O)C)(NN(=O)=O)=N",
    "meta_data": {
        "InChI": "InChI=1S/C2H5N5O3/c1-6(5-8)2(3)4-7(9)10/h1H3,(H2,3,4)",
        "InChIKey": null,
        "Canonical SMILES": "O=NN(C(=N)NN(=O)=O)C",
        "Molecular Formula": "C<sub>2</sub>H<sub>5</sub>N<sub>5</sub>O<sub>3</sub>",
        "Molecular Mass": "147.09",
        "Melting Point": "118-123.5 °C (decomp)"
    }
}