{
    "cas_no": "533-68-6",
    "key_name": "Butanoic acid, 2-bromo-, ethyl ester",
    "cn_name": "2-溴丁酸乙酯;alpha-溴代丁酸乙酯;",
    "alternate_name": "Butanoic acid, 2-bromo-, ethyl ester;Butyric acid, 2-bromo-, ethyl ester;Butyric acid, α-bromo-, ethyl ester;Ethyl α-bromobutyrate;Ethyl 2-bromobutyrate;Ethyl 2-bromobutanoate;2-Bromobutanoic acid ethyl ester;2-Bromobutyric acid ethyl ester;NSC 8855;Ethyl bromobutanoate",
    "duplicated_cas_no": "66025-42-1;2374896-06-5",
    "SMILES": "C(C(CC)Br)(OCC)=O",
    "meta_data": {
        "InChI": "InChI=1S/C6H11BrO2/c1-3-5(7)6(8)9-4-2/h5H,3-4H2,1-2H3",
        "InChIKey": null,
        "Canonical SMILES": "O=C(OCC)C(Br)CC",
        "Molecular Formula": "C<sub>6</sub>H<sub>11</sub>BrO<sub>2</sub>",
        "Molecular Mass": "195.05",
        "Boiling Point": "177 °C",
        "Melting Point": "142-144 °C",
        "Density": "1.3263 g/cm³ @ Temp: 11.5 °C"
    }
}