{
    "cas_no": "2623-91-8",
    "key_name": "<span class=\"text-smallcaps\">D</span>-α-Aminobutyric acid",
    "cn_name": "D-2-氨基丁酸;",
    "alternate_name": "Butanoic acid, 2-amino-, (2<em>R</em>)-;Butyric acid, 2-amino-, <span class=\"text-smallcaps\">D</span>-;Butanoic acid, 2-amino-, (<em>R</em>)-;(2<em>R</em>)-2-Aminobutanoic acid;<span class=\"text-smallcaps\">D</span>-α-Aminobutyric acid;<span class=\"text-smallcaps\">D</span>-α-Amino-<em>n</em>-butyric acid;<span class=\"text-smallcaps\">D</span>-Butyrine;<span class=\"text-smallcaps\">D</span>-2-Aminobutyric acid;(<em>R</em>)-(-)-α-Aminobutyric acid;<span class=\"text-smallcaps\">D</span>-2-Amino-<em>n</em>-butyric acid;(<em>R</em>)-2-Aminobutyric acid;<span class=\"text-smallcaps\">D</span>-Ethylglycine;<span class=\"text-smallcaps\">D</span>-2-Aminobutanoic acid;(-)-2-Aminobutyric acid;(R)-α-Aminobutyric acid;(-)-α-Aminobutyric acid;(<em>R</em>)-2-Aminobutanoic acid;(-)-2-Aminobutanoic acid;(2R)-2-Aminobutyric acid;(R)-2-Aminobutyric acid",
    "duplicated_cas_no": "",
    "SMILES": "[C@H](C(O)=O)(CC)N",
    "meta_data": {
        "InChI": "InChI=1S/C4H9NO2/c1-2-3(5)4(6)7/h3H,2,5H2,1H3,(H,6,7)/t3-/m1/s1",
        "InChIKey": null,
        "Canonical SMILES": "O=C(O)C(N)CC",
        "Molecular Formula": "C<sub>4</sub>H<sub>9</sub>NO<sub>2</sub>",
        "Molecular Mass": "103.12",
        "Melting Point": "288-290 °C (decomp)"
    }
}