{
    "cas_no": "1826-28-4",
    "key_name": "Phenyl 2-pyridyl ketoxime",
    "cn_name": "苯基-2-吡啶基酮肟;",
    "alternate_name": "Methanone, phenyl-2-pyridinyl-, oxime;Ketone, phenyl 2-pyridyl, oxime;Phenyl 2-pyridyl ketoxime;2-Benzoylpyridine ketoxime;Phenyl(2-pyridinyl)methanone oxime;2-Benzoylpyridine oxime;NSC 53389;Phenyl 2-pyridyl ketone oxime",
    "duplicated_cas_no": "",
    "SMILES": "C(=NO)(C1=CC=CC=C1)C2=CC=CC=N2",
    "meta_data": {
        "InChI": "InChI=1S/C12H10N2O/c15-14-12(10-6-2-1-3-7-10)11-8-4-5-9-13-11/h1-9,15H",
        "InChIKey": null,
        "Canonical SMILES": "ON=C(C1=NC=CC=C1)C=2C=CC=CC2",
        "Molecular Formula": "C<sub>12</sub>H<sub>10</sub>N<sub>2</sub>O",
        "Molecular Mass": "198.22",
        "Melting Point": "150-152 °C"
    }
}