{
    "cas_no": "15964-79-1",
    "key_name": "Methyl 2-(3,4-dimethoxyphenyl)acetate",
    "cn_name": null,
    "alternate_name": "Benzeneacetic acid, 3,4-dimethoxy-, methyl ester;Acetic acid, (3,4-dimethoxyphenyl)-, methyl ester;Methyl (3,4-dimethoxyphenyl)acetate;Methyl 2-(3,4-dimethoxyphenyl)acetate;Methyl homoveratrate;Homoveratric acid methyl ester;3,4-Dimethoxyphenylacetic acid methyl ester;2-(3,4-Dimethoxyphenyl)ethanoic acid methyl ester",
    "duplicated_cas_no": "",
    "SMILES": "O(C)C1=C(OC)C=C(CC(OC)=O)C=C1",
    "meta_data": {
        "InChI": "InChI=1S/C11H14O4/c1-13-9-5-4-8(6-10(9)14-2)7-11(12)15-3/h4-6H,7H2,1-3H3",
        "InChIKey": null,
        "Canonical SMILES": "O=C(OC)CC1=CC=C(OC)C(OC)=C1",
        "Molecular Formula": "C<sub>11</sub>H<sub>14</sub>O<sub>4</sub>",
        "Molecular Mass": "210.23",
        "Boiling Point": "175 °C @ Press: 15 Torr"
    }
}