{
    "cas_no": "2949-26-0",
    "key_name": "2-Ethynylnaphthalene",
    "cn_name": null,
    "alternate_name": "Naphthalene, 2-ethynyl-;2-Ethynylnaphthalene;β-Ethynylnaphthalene;β-Naphthylacetylene;(2-Naphthyl)acetylene;2-Naphthylethyne;(Naphthalen-2-yl)ethyne;Naphthalen-2-ylacetylene",
    "duplicated_cas_no": "",
    "SMILES": "C(#C)C1=CC2=C(C=C1)C=CC=C2",
    "meta_data": {
        "InChI": "InChI=1S/C12H8/c1-2-10-7-8-11-5-3-4-6-12(11)9-10/h1,3-9H",
        "InChIKey": null,
        "Canonical SMILES": "C#CC=1C=CC=2C=CC=CC2C1",
        "Molecular Formula": "C<sub>12</sub>H<sub>8</sub>",
        "Molecular Mass": "152.19",
        "Melting Point": "36 °C"
    }
}