{
    "cas_no": "41200-96-8",
    "key_name": "2,4-Dichloro-5-(1-methylethoxy)benzenamine",
    "cn_name": "2,4-二氯-5-异丙氧基苯胺;",
    "alternate_name": "Benzenamine, 2,4-dichloro-5-(1-methylethoxy)-;2,4-Dichloro-5-(1-methylethoxy)benzenamine;2,4-Dichloro-5-isopropoxyaniline;2,4-Dichloro-5-isopropoxyphenylamine;2,4-Dichloro-5-(propan-2-yloxy)aniline;2,4-Dichloro-5-propan-2-yloxyaniline",
    "duplicated_cas_no": "",
    "SMILES": "O(C(C)C)C1=C(Cl)C=C(Cl)C(N)=C1",
    "meta_data": {
        "InChI": "InChI=1S/C9H11Cl2NO/c1-5(2)13-9-4-8(12)6(10)3-7(9)11/h3-5H,12H2,1-2H3",
        "InChIKey": null,
        "Canonical SMILES": "ClC=1C=C(Cl)C(N)=CC1OC(C)C",
        "Molecular Formula": "C<sub>9</sub>H<sub>11</sub>Cl<sub>2</sub>NO",
        "Molecular Mass": "220.10",
        "Boiling Point": "102 °C @ Press: 0.1 Torr"
    }
}