{
    "cas_no": "4522-93-4",
    "key_name": "Ethyl 2,3,4,5,6-pentafluorobenzoate",
    "cn_name": "五氟苯甲酸乙酯;",
    "alternate_name": "Benzoic acid, 2,3,4,5,6-pentafluoro-, ethyl ester;Benzoic acid, pentafluoro-, ethyl ester;Ethyl 2,3,4,5,6-pentafluorobenzoate;Ethyl pentafluorobenzoate;(Ethoxycarbonyl)pentafluorobenzene;Pentafluorobenzoic acid ethyl ester",
    "duplicated_cas_no": "",
    "SMILES": "C(OCC)(=O)C1=C(F)C(F)=C(F)C(F)=C1F",
    "meta_data": {
        "InChI": "InChI=1S/C9H5F5O2/c1-2-16-9(15)3-4(10)6(12)8(14)7(13)5(3)11/h2H2,1H3",
        "InChIKey": null,
        "Canonical SMILES": "O=C(OCC)C=1C(F)=C(F)C(F)=C(F)C1F",
        "Molecular Formula": "C<sub>9</sub>H<sub>5</sub>F<sub>5</sub>O<sub>2</sub>",
        "Molecular Mass": "240.13",
        "Boiling Point": "63 °C @ Press: 5 Torr"
    }
}