{
    "cas_no": "70069-04-4",
    "key_name": "Hydroxymethyl-18-crown-6",
    "cn_name": "2-羟基甲基-18-冠醚-6;1,4,7,10,13,16-六氧环十八烷-2-甲醇;18-冠-6-甲醇;",
    "alternate_name": "1,4,7,10,13,16-Hexaoxacyclooctadecane-2-methanol;2-Hydroxymethyl-18-crown-6;18-Crown-6-methanol;Hydroxymethyl-18-crown-6;1,4,7,10,13,16-Hexaoxacyclooctadec-2-ylmethanol;2-(Hydroxymethyl)-18-crown-6-ether",
    "duplicated_cas_no": "",
    "SMILES": "C(O)C1COCCOCCOCCOCCOCCO1",
    "meta_data": {
        "InChI": "InChI=1S/C13H26O7/c14-11-13-12-19-8-7-17-4-3-15-1-2-16-5-6-18-9-10-20-13/h13-14H,1-12H2",
        "InChIKey": null,
        "Canonical SMILES": "OCC1OCCOCCOCCOCCOCCOC1",
        "Molecular Formula": "C<sub>13</sub>H<sub>26</sub>O<sub>7</sub>",
        "Molecular Mass": "294.34",
        "Boiling Point": "208 °C @ Press: 760 Torr"
    }
}