{
    "cas_no": "1074-91-5",
    "key_name": "1-Bromo-2,3,4,5-tetrafluorobenzene",
    "cn_name": null,
    "alternate_name": "Benzene, 1-bromo-2,3,4,5-tetrafluoro-;1-Bromo-2,3,4,5-tetrafluorobenzene;2,3,4,5-Tetrafluorophenyl bromide",
    "duplicated_cas_no": "",
    "SMILES": "FC1=C(F)C(F)=C(F)C=C1Br",
    "meta_data": {
        "InChI": "InChI=1S/C6HBrF4/c7-2-1-3(8)5(10)6(11)4(2)9/h1H",
        "InChIKey": null,
        "Canonical SMILES": "FC=1C=C(Br)C(F)=C(F)C1F",
        "Molecular Formula": "C<sub>6</sub>HBrF<sub>4</sub>",
        "Molecular Mass": "228.97",
        "Melting Point": "149-150 °C"
    }
}