{
    "cas_no": "375-14-4",
    "key_name": "3,3,4,4,5,5,5-Heptafluoro-2-pentanol",
    "cn_name": "3,3,4,4,5,5,5-六氟戊醇;3,3,4,4,5,5,5-七氟戊-2-醇;",
    "alternate_name": "2-Pentanol, 3,3,4,4,5,5,5-heptafluoro-;3,3,4,4,5,5,5-Heptafluoro-2-pentanol;NSC 3630",
    "duplicated_cas_no": "",
    "SMILES": "C(C(C(C)O)(F)F)(C(F)(F)F)(F)F",
    "meta_data": {
        "InChI": "InChI=1S/C5H5F7O/c1-2(13)3(6,7)4(8,9)5(10,11)12/h2,13H,1H3",
        "InChIKey": null,
        "Canonical SMILES": "FC(F)(F)C(F)(F)C(F)(F)C(O)C",
        "Molecular Formula": "C<sub>5</sub>H<sub>5</sub>F<sub>7</sub>O",
        "Molecular Mass": "214.08",
        "Boiling Point": "100-102 °C",
        "Density": "1.483 g/cm³ @ Temp: 29 °C"
    }
}