{
    "cas_no": "64809-67-2",
    "key_name": "Neomangiferin",
    "cn_name": "新芒果苷;新杧果苷;",
    "alternate_name": "9<em>H</em>-Xanthen-9-one, 2-β-<span class=\"text-smallcaps\">D</smallcap>-glucopyranosyl-7-(β-<smallcap>D</span>-glucopyranosyloxy)-1,3,6-trihydroxy-;2-β-<span class=\"text-smallcaps\">D</smallcap>-Glucopyranosyl-7-(β-<smallcap>D</span>-glucopyranosyloxy)-1,3,6-trihydroxy-9<em>H</em>-xanthen-9-one;Neomangiferin;7-<em>O</em>-Glucopyranosylmangiferin",
    "duplicated_cas_no": "220580-55-2",
    "SMILES": "OC1=C2C(OC=3C(C2=O)=CC(O[C@@H]4O[C@H](CO)[C@@H](O)[C@H](O)[C@H]4O)=C(O)C3)=CC(O)=C1[C@@H]5O[C@H](CO)[C@@H](O)[C@H](O)[C@H]5O",
    "meta_data": {
        "InChI": "InChI=1S/C25H28O16/c26-4-12-17(31)20(34)22(36)24(39-12)14-8(29)3-11-15(19(14)33)16(30)6-1-10(7(28)2-9(6)38-11)40-25-23(37)21(35)18(32)13(5-27)41-25/h1-3,12-13,17-18,20-29,31-37H,4-5H2/t12-,13-,17-,18-,20+,21+,22-,23-,24+,25-/m1/s1",
        "InChIKey": null,
        "Canonical SMILES": "O=C1C2=CC(OC3OC(CO)C(O)C(O)C3O)=C(O)C=C2OC4=CC(O)=C(C(O)=C14)C5OC(CO)C(O)C(O)C5O",
        "Molecular Formula": "C<sub>25</sub>H<sub>28</sub>O<sub>16</sub>",
        "Molecular Mass": "584.48",
        "Melting Point": "226-227 °C"
    }
}