{
    "cas_no": "11115-82-5",
    "key_name": "Enduracidin",
    "cn_name": null,
    "alternate_name": "Enduracidin;Enramycin;Enradin",
    "duplicated_cas_no": "12772-37-1",
    "SMILES": "",
    "meta_data": {
        "InChI": "",
        "InChIKey": null,
        "Canonical SMILES": "",
        "Molecular Formula": "Unspecified",
        "Molecular Mass": "",
        "Melting Point": "238-245 °C (decomp)"
    }
}