{
    "uri": "substance/pt/11115825",
    "rn": "11115-82-5",
    "name": "Enduracidin",
    "images": [],
    "inchi": "",
    "inchiKey": "",
    "smile": "",
    "canonicalSmile": "",
    "molecularFormula": "Unspecified",
    "molecularMass": "",
    "experimentalProperties": [
        {
            "name": "Melting Point",
            "property": "238-245 °C (decomp)",
            "sourceNumber": 1
        }
    ],
    "propertyCitations": [
        {
            "docUri": "document/pt/document/20668432",
            "sourceNumber": 1,
            "source": "Miyake, Akira; JP45038242, B, 1970, CAplus"
        }
    ],
    "synonyms": [
        "Enduracidin",
        "Enramycin",
        "Enradin"
    ],
    "replacedRns": [
        "12772-37-1"
    ],
    "hasMolfile": false,
    "source": "https://commonchemistry.cas.org/detail?cas_rn=11115-82-5"
}