{
    "cas_no": "3731-16-6",
    "key_name": "3-Carbethoxy-2-piperidone",
    "cn_name": "2-氧-3-哌啶羧酸乙酯;3-乙氧羰基-2-哌,乙酯2-哌-3-羧酸;",
    "alternate_name": "3-Piperidinecarboxylic acid, 2-oxo-, ethyl ester;Nipecotic acid, 2-oxo-, ethyl ester;Ethyl 2-oxonipecotate;3-(Ethoxycarbonyl)-2-piperidone;Ethyl 2-oxo-3-piperidinecarboxylate;3-Carbethoxy-2-piperidone;NSC 38545;2-Oxopiperidine-3-carboxylic acid ethyl ester;Ethyl 2-oxo-piperidine-3-carboxylate",
    "duplicated_cas_no": "133859-79-7",
    "SMILES": "C(OCC)(=O)C1C(=O)NCCC1",
    "meta_data": {
        "InChI": "InChI=1S/C8H13NO3/c1-2-12-8(11)6-4-3-5-9-7(6)10/h6H,2-5H2,1H3,(H,9,10)",
        "InChIKey": null,
        "Canonical SMILES": "O=C(OCC)C1C(=O)NCCC1",
        "Molecular Formula": "C<sub>8</sub>H<sub>13</sub>NO<sub>3</sub>",
        "Molecular Mass": "171.19",
        "Boiling Point": "205-215 °C @ Press: 12 Torr",
        "Melting Point": "75 °C"
    }
}