{
    "cas_no": "1145-80-8",
    "key_name": "<em>N</em>-(Benzyloxycarbonyl)-<span class=\"text-smallcaps\">L</span>-serine",
    "cn_name": "N-苄氧羰基-L-丝氨酸;",
    "alternate_name": "<span class=\"text-smallcaps\">L</span>-Serine, <em>N</em>-[(phenylmethoxy)carbonyl]-;Serine, <em>N</em>-carboxy-, <em>N</em>-benzyl ester, <span class=\"text-smallcaps\">L</span>-;<span class=\"text-smallcaps\">L</span>-Serine, <em>N</em>-carboxy-, <em>N</em>-benzyl ester;<em>N</em>-[(Phenylmethoxy)carbonyl]-<span class=\"text-smallcaps\">L</span>-serine;<em>N</em>-(Benzyloxycarbonyl)-<span class=\"text-smallcaps\">L</span>-serine;<em>N</em>-Carbobenzoxy-<span class=\"text-smallcaps\">L</span>-serine;<em>N</em>-Carbobenzyloxy-<span class=\"text-smallcaps\">L</span>-serine;Benzyloxycarbonyl-<span class=\"text-smallcaps\">L</span>-serine;<em>N</em>-[(Phenylmethoxy)carbonyl]serine;NSC 286604;(2<em>S</em>)-2-[(Benzyloxycarbonyl)amino]-3-hydroxypropanoic acid;(<em>S</em>)-2-(Benzyloxycarbonylamino)-3-hydroxypropanoic acid;<span class=\"text-smallcaps\">L</span>-Carbobenzyloxy serine;(2S)-2-[[(Benzyloxy)carbonyl]amino]-3-hydroxypropanoic acid;(2S)-3-Hydroxy-2-(phenylmethoxycarbonylamino)propanoic acid",
    "duplicated_cas_no": "91199-29-0",
    "SMILES": "C(OC(N[C@H](C(O)=O)CO)=O)C1=CC=CC=C1",
    "meta_data": {
        "InChI": "InChI=1S/C11H13NO5/c13-6-9(10(14)15)12-11(16)17-7-8-4-2-1-3-5-8/h1-5,9,13H,6-7H2,(H,12,16)(H,14,15)/t9-/m0/s1",
        "InChIKey": null,
        "Canonical SMILES": "O=C(O)C(NC(=O)OCC=1C=CC=CC1)CO",
        "Molecular Formula": "C<sub>11</sub>H<sub>13</sub>NO<sub>5</sub>",
        "Molecular Mass": "239.22",
        "Melting Point": "121 °C"
    }
}