{
    "cas_no": "7440-53-1",
    "key_name": "Europium",
    "cn_name": "铕EU;",
    "alternate_name": "Europium;MeSH ID: D005063",
    "duplicated_cas_no": "110123-53-0;801316-14-3",
    "SMILES": "[Eu]",
    "meta_data": {
        "InChI": "InChI=1S/Eu",
        "InChIKey": null,
        "Canonical SMILES": "[Eu]",
        "Molecular Formula": "Eu",
        "Molecular Mass": "",
        "Boiling Point": "1489 °C",
        "Melting Point": "1100-1200 °C",
        "Density": "5.245 g/cm³"
    }
}