{
    "cas_no": "1737-93-5",
    "key_name": "3,5-Dichloro-2,4,6-trifluoropyridine",
    "cn_name": "3,5-二氯-2,4,6-三氟吡啶;",
    "alternate_name": "Pyridine, 3,5-dichloro-2,4,6-trifluoro-;3,5-Dichloro-2,4,6-trifluoropyridine;2,4,6-Trifluoro-3,5-dichloropyridine;3,5-Dichlorotrifluoropyridine",
    "duplicated_cas_no": "",
    "SMILES": "ClC=1C(F)=C(Cl)C(F)=NC1F",
    "meta_data": {
        "InChI": "InChI=1S/C5Cl2F3N/c6-1-3(8)2(7)5(10)11-4(1)9",
        "InChIKey": null,
        "Canonical SMILES": "FC=1N=C(F)C(Cl)=C(F)C1Cl",
        "Molecular Formula": "C<sub>5</sub>Cl<sub>2</sub>F<sub>3</sub>N",
        "Molecular Mass": "201.96",
        "Boiling Point": "159-160 °C"
    }
}