{
    "cas_no": "14857-34-2",
    "key_name": "Ethoxydimethylsilane",
    "cn_name": "二甲基乙氧基硅烷;",
    "alternate_name": "Silane, ethoxydimethyl-;Ethoxydimethylsilane;Dimethylethoxysilane;SIV 9072.0;Dimethylmonoethoxysilane;LS 490",
    "duplicated_cas_no": "",
    "SMILES": "O([SiH](C)C)CC",
    "meta_data": {
        "InChI": "InChI=1S/C4H12OSi/c1-4-5-6(2)3/h6H,4H2,1-3H3",
        "InChIKey": null,
        "Canonical SMILES": "O(CC)[SiH](C)C",
        "Molecular Formula": "C<sub>4</sub>H<sub>12</sub>OSi",
        "Molecular Mass": "104.22",
        "Boiling Point": "54-55 °C",
        "Density": "0.757 g/cm³"
    }
}