{
    "cas_no": "98446-49-2",
    "key_name": "2,4-Dichloro-5-methoxybenzenamine",
    "cn_name": "2,4-二氯-5-甲氧基苯胺;",
    "alternate_name": "Benzenamine, 2,4-dichloro-5-methoxy-;2,4-Dichloro-5-methoxybenzenamine;2,4-Dichloro-5-methoxyaniline;5-Amino-2,4-dichloroanisole",
    "duplicated_cas_no": "",
    "SMILES": "O(C)C1=C(Cl)C=C(Cl)C(N)=C1",
    "meta_data": {
        "InChI": "InChI=1S/C7H7Cl2NO/c1-11-7-3-6(10)4(8)2-5(7)9/h2-3H,10H2,1H3",
        "InChIKey": null,
        "Canonical SMILES": "ClC=1C=C(Cl)C(N)=CC1OC",
        "Molecular Formula": "C<sub>7</sub>H<sub>7</sub>Cl<sub>2</sub>NO",
        "Molecular Mass": "192.04",
        "Melting Point": "50.5-51.5 °C"
    }
}