{
    "cas_no": "2836-04-6",
    "key_name": "<em>N</em>,<em>N</em>-Dimethyl-<em>m</em>-phenylenediamine",
    "cn_name": "N,N-二甲基间苯二胺;N,N-二甲基间苯二胺;",
    "alternate_name": "1,3-Benzenediamine, <em>N</em><sup>1</sup>,<em>N</em><sup>1</sup>-dimethyl-;<em>m</em>-Phenylenediamine, <em>N</em>,<em>N</em>-dimethyl-;1,3-Benzenediamine, <em>N</em>,<em>N</em>-dimethyl-;<em>N</em><sup>1</sup>,<em>N</em><sup>1</sup>-Dimethyl-1,3-benzenediamine;<em>m</em>-Amino-<em>N</em>,<em>N</em>-dimethylaniline;<em>N</em>,<em>N</em>-Dimethyl-<em>m</em>-phenylenediamine;3-Amino-<em>N</em>,<em>N</em>-dimethylaniline;3-(Dimethylamino)aniline;<em>N</em>,<em>N</em>-Dimethyl-1,3-benzenediamine;<em>m</em>-Dimethylaminoaniline;3-(Dimethylamino)phenylamine;<em>N</em>,<em>N</em>-Dimethyl-1,3-phenylenediamine;3-Dimethylaminobenzenamine;1-(Dimethylamino)benzen-3-amine;(3-Aminophenyl)dimethylamine;1-<em>N</em>,1-<em>N</em>-Dimethylbenzene-1,3-diamine;3-<em>N</em>,3-<em>N</em>-Dimethylbenzene-1,3-diamine",
    "duplicated_cas_no": "",
    "SMILES": "N(C)(C)C1=CC(N)=CC=C1",
    "meta_data": {
        "InChI": "InChI=1S/C8H12N2/c1-10(2)8-5-3-4-7(9)6-8/h3-6H,9H2,1-2H3",
        "InChIKey": null,
        "Canonical SMILES": "NC1=CC=CC(=C1)N(C)C",
        "Molecular Formula": "C<sub>8</sub>H<sub>12</sub>N<sub>2</sub>",
        "Molecular Mass": "136.19",
        "Boiling Point": "270 °C",
        "Melting Point": "&lt;-20 °C"
    }
}