{
    "cas_no": "2497-06-5",
    "key_name": "Disulfoton sulfone",
    "cn_name": "乙拌磷砜;乙拌磷砜;",
    "alternate_name": "Phosphorodithioic acid, <em>O</em>,<em>O</em>-diethyl <em>S</em>-[2-(ethylsulfonyl)ethyl] ester;<em>O</em>,<em>O</em>-Diethyl S-(2-ethylsulfonylethyl) phosphorodithioate;Disyston sulfone;Disulfoton sulfone;Disulfoton dioxide;Sulfondisulfoton",
    "duplicated_cas_no": "",
    "SMILES": "P(SCCS(CC)(=O)=O)(OCC)(OCC)=S",
    "meta_data": {
        "InChI": "InChI=1S/C8H19O4PS3/c1-4-11-13(14,12-5-2)15-7-8-16(9,10)6-3/h4-8H2,1-3H3",
        "InChIKey": null,
        "Canonical SMILES": "O=S(=O)(CC)CCSP(=S)(OCC)OCC",
        "Molecular Formula": "C<sub>8</sub>H<sub>19</sub>O<sub>4</sub>PS<sub>3</sub>",
        "Molecular Mass": "306.40",
        "Boiling Point": "108 °C @ Press: 0.01 Torr"
    }
}