{
    "cas_no": "1579-40-4",
    "key_name": "1,1′-Oxybis[4-methylbenzene]",
    "cn_name": "对二甲苯基醚;4,4\"-二甲基二苯基醚;",
    "alternate_name": "Benzene, 1,1′-oxybis[4-methyl-;<em>p</em>-Tolyl ether;1,1′-Oxybis[4-methylbenzene];4,4′-Dimethyldiphenyl ether;Di-<em>p</em>-Tolyl ether;Bis(4-methylphenyl) ether;<em>p</em>-(<em>p</em>-Tolyloxy)toluene;1-Methyl-4-(4-methylphenoxy)benzene",
    "duplicated_cas_no": "663199-26-6",
    "SMILES": "O(C1=CC=C(C)C=C1)C2=CC=C(C)C=C2",
    "meta_data": {
        "InChI": "InChI=1S/C14H14O/c1-11-3-7-13(8-4-11)15-14-9-5-12(2)6-10-14/h3-10H,1-2H3",
        "InChIKey": null,
        "Canonical SMILES": "O(C1=CC=C(C=C1)C)C2=CC=C(C=C2)C",
        "Molecular Formula": "C<sub>14</sub>H<sub>14</sub>O",
        "Molecular Mass": "198.26",
        "Boiling Point": "285 °C",
        "Melting Point": "51 °C"
    }
}