{
    "cas_no": "3105-95-1",
    "key_name": "<span class=\"text-smallcaps\">L</span>-Pipecolic acid",
    "cn_name": "L-2-哌啶酸;L-2-哌啶羧酸;(S)-(-)-2-哌啶酸;",
    "alternate_name": "2-Piperidinecarboxylic acid, (2<em>S</em>)-;Pipecolic acid, (<em>S</em>)-(-)-;2-Piperidinecarboxylic acid, (<em>S</em>)-;(2<em>S</em>)-2-Piperidinecarboxylic acid;(<em>S</em>)-(-)-2-Piperidinecarboxylic acid;<span class=\"text-smallcaps\">L</span>-Pipecolic acid;<span class=\"text-smallcaps\">L</span>-(-)-Pipecolic acid;<span class=\"text-smallcaps\">L</span>-Piperidine-2-carboxylic acid;(<em>S</em>)-Piperidine-2-carboxylic acid;(<em>S</em>)-(-)-Pipecolic acid;(<em>S</em>)-Pipecolinic acid;(<em>S</em>)-Pipecolic acid;<span class=\"text-smallcaps\">L</span>-Homoproline;<span class=\"text-smallcaps\">L</span>-Pipecolinic acid;(-)-Pipecolic acid;NSC 93089;(-)-Pipecolinic acid;(2S)-Piperidine-2-carboxylic acid;(2S)-Piperidin-1-ium-2-carboxylate;2-Piperidinecarboxylic acid (2S)-;<span class=\"text-smallcaps\">L</span>-Pipeocolic acid",
    "duplicated_cas_no": "",
    "SMILES": "C(O)(=O)[C@@H]1CCCCN1",
    "meta_data": {
        "InChI": "InChI=1S/C6H11NO2/c8-6(9)5-3-1-2-4-7-5/h5,7H,1-4H2,(H,8,9)/t5-/m0/s1",
        "InChIKey": null,
        "Canonical SMILES": "O=C(O)C1NCCCC1",
        "Molecular Formula": "C<sub>6</sub>H<sub>11</sub>NO<sub>2</sub>",
        "Molecular Mass": "129.16",
        "Melting Point": "268 °C (decomp)"
    }
}