{
    "cas_no": "107-13-1",
    "key_name": "Acrylonitrile",
    "cn_name": "丙烯腈;",
    "alternate_name": "2-Propenenitrile;Acrylonitrile;Acrylon;Carbacryl;Cyanoethylene;Fumigrain;Propenenitrile;VCN;Vinyl cyanide;Ventox;Cyanoethene;NSC 6362;MeSH ID: D000181",
    "duplicated_cas_no": "29754-21-0;63908-52-1;769126-92-3;769134-66-9;1006710-56-0;1197872-06-2;1221168-60-0;1309882-90-3;1538611-90-3;2015239-29-7",
    "SMILES": "C(C#N)=C",
    "meta_data": {
        "InChI": "InChI=1S/C3H3N/c1-2-3-4/h2H,1H2",
        "InChIKey": null,
        "Canonical SMILES": "N#CC=C",
        "Molecular Formula": "C<sub>3</sub>H<sub>3</sub>N",
        "Molecular Mass": "53.06",
        "Boiling Point": "77.3 °C @ Press: 760 Torr",
        "Melting Point": "-82 °C",
        "Density": "0.8004 g/cm³ @ Temp: 25 °C"
    }
}