{
    "cas_no": "143-23-7",
    "key_name": "Bis(hexamethylene)triamine",
    "cn_name": "N-(6-氨基己基)-1,6-己二胺;",
    "alternate_name": "1,6-Hexanediamine, <em>N</em><sup>1</sup>-(6-aminohexyl)-;Dihexylamine, 6,6′-diamino-;1,6-Hexanediamine, <em>N</em>-(6-aminohexyl)-;<em>N</em><sup>1</sup>-(6-Aminohexyl)-1,6-hexanediamine;Bis(hexamethylene)triamine;Dihexylenetriamine;Bis(6-aminohexyl)amine;1,13-Diamino-7-azatridecane;7-Aza-1,13-tridecanediamine;Bis(6-aminohexamethyl)amine;NSC 92231;<em>N</em>-(6-Aminohexyl)-1,6-hexanediamine;BHMT-HP;Dytek BHMT-HP;Bis(aminohexyl)amine;Dihexyltriamine;Dytek BHMT;BHMT",
    "duplicated_cas_no": "1127437-70-0;1569877-17-3",
    "SMILES": "N(CCCCCCN)CCCCCCN",
    "meta_data": {
        "InChI": "InChI=1S/C12H29N3/c13-9-5-1-3-7-11-15-12-8-4-2-6-10-14/h15H,1-14H2",
        "InChIKey": null,
        "Canonical SMILES": "NCCCCCCNCCCCCCN",
        "Molecular Formula": "C<sub>12</sub>H<sub>29</sub>N<sub>3</sub>",
        "Molecular Mass": "215.38",
        "Boiling Point": "220 °C",
        "Melting Point": "33 °C"
    }
}