{
    "cas_no": "335-56-8",
    "key_name": "1-Bromoperfluorohexane",
    "cn_name": "1-溴全氟己烷;1-溴全氟乙烷;1-溴全氟己烷;",
    "alternate_name": "Hexane, 1-bromo-1,1,2,2,3,3,4,4,5,5,6,6,6-tridecafluoro-;Hexane, 1-bromotridecafluoro-;1-Bromo-1,1,2,2,3,3,4,4,5,5,6,6,6-tridecafluorohexane;Perfluorohexylbromide;1-Bromoperfluorohexane;<em>n</em>-Perfluorohexyl bromide;1-Bromotridecafluorohexane;Tridecafluorohexyl bromide",
    "duplicated_cas_no": "",
    "SMILES": "C(C(C(C(F)(F)F)(F)F)(F)F)(C(C(Br)(F)F)(F)F)(F)F",
    "meta_data": {
        "InChI": "InChI=1S/C6BrF13/c7-5(16,17)3(12,13)1(8,9)2(10,11)4(14,15)6(18,19)20",
        "InChIKey": null,
        "Canonical SMILES": "FC(F)(F)C(F)(F)C(F)(F)C(F)(F)C(F)(F)C(F)(F)Br",
        "Molecular Formula": "C<sub>6</sub>BrF<sub>13</sub>",
        "Molecular Mass": "398.95",
        "Boiling Point": "98 °C"
    }
}