{
    "cas_no": "22325-27-5",
    "key_name": "4,6-Dimethyl-2-mercaptopyrimidine",
    "cn_name": "4,6-二甲基-2-巯基嘧啶;",
    "alternate_name": "2(1<em>H</em>)-Pyrimidinethione, 4,6-dimethyl-;2-Pyrimidinethiol, 4,6-dimethyl-;4,6-Dimethyl-2(1<em>H</em>)-pyrimidinethione;1,2-Dihydro-4,6-dimethylpyrimidine-2-thione;4,6-Dimethyl-2-pyrimidinethiol;4,6-Dimethyl-2-mercaptopyrimidine;2-Mercapto-4,6-dimethylpyrimidine;4,6-Dimethyl-2-pyrimidinethione;4,6-Dimethyl-2-pyrimidinylmercaptan;NSC 15491;NSC 314273;NSC 314274;2-Thio-4,6-dimethylpyrimidine",
    "duplicated_cas_no": "13139-97-4",
    "SMILES": "CC1=CC(C)=NC(=S)N1",
    "meta_data": {
        "InChI": "InChI=1S/C6H8N2S/c1-4-3-5(2)8-6(9)7-4/h3H,1-2H3,(H,7,8,9)",
        "InChIKey": null,
        "Canonical SMILES": "S=C1N=C(C=C(N1)C)C",
        "Molecular Formula": "C<sub>6</sub>H<sub>8</sub>N<sub>2</sub>S",
        "Molecular Mass": "140.21",
        "Melting Point": "208-210 °C"
    }
}