{
    "cas_no": "480-18-2",
    "key_name": "Taxifolin",
    "cn_name": "紫杉叶素;黄杉素;花旗松素;(2R,3R)-二氢槲皮素;",
    "alternate_name": "4<em>H</em>-1-Benzopyran-4-one, 2-(3,4-dihydroxyphenyl)-2,3-dihydro-3,5,7-trihydroxy-, (2<em>R</em>,3<em>R</em>)-;4<em>H</em>-1-Benzopyran-4-one, 2-(3,4-dihydroxyphenyl)-2,3-dihydro-3,5,7-trihydroxy-, (2<em>R</em>-<em>trans</em>)-;Flavanone, 3,3′,4′,5,7-pentahydroxy-;(2<em>R</em>,3<em>R</em>)-2-(3,4-Dihydroxyphenyl)-2,3-dihydro-3,5,7-trihydroxy-4<em>H</em>-1-benzopyran-4-one;Distylin;Taxifolin;Taxifoliol;Dihydroquercetin;(+)-Taxifolin;(+)-Dihydroquercetin;(2<em>R</em>,3<em>R</em>)-Dihydroquercetin;2,3-Dihydroquercetin;3,5,7,3′,4′-Pentahydroxyflavanone;Diquertin;(2<em>R</em>,3<em>R</em>)-(+)-Taxifolin;Lariksin;Lavitol;(+)-<em>trans</em>-Taxifolin;(2<em>R</em>,3<em>R</em>)-3,3′,4′,5,7-Pentahydroxyflavanone;Flamena D;(+)-(2<em>R</em>,3<em>R</em>)-Dihydroquercetin;Flamena;Jikuberuchin;Flavomix;HSA 8432",
    "duplicated_cas_no": "98006-93-0;5117-01-1;5323-70-6;17654-26-1;20254-28-8;24198-96-7;28929-10-4",
    "SMILES": "O=C1C=2C(O[C@@H]([C@H]1O)C3=CC(O)=C(O)C=C3)=CC(O)=CC2O",
    "meta_data": {
        "InChI": "InChI=1S/C15H12O7/c16-7-4-10(19)12-11(5-7)22-15(14(21)13(12)20)6-1-2-8(17)9(18)3-6/h1-5,14-19,21H/t14-,15+/m0/s1",
        "InChIKey": null,
        "Canonical SMILES": "O=C1C=2C(O)=CC(O)=CC2OC(C3=CC=C(O)C(O)=C3)C1O",
        "Molecular Formula": "C<sub>15</sub>H<sub>12</sub>O<sub>7</sub>",
        "Molecular Mass": "304.25",
        "Melting Point": "~237 °C (approx)"
    }
}