{
    "cas_no": "618-71-3",
    "key_name": "Benzoic acid, 3,5-dinitro-, ethyl ester",
    "cn_name": "3,5-二硝基苯甲酸乙酯;",
    "alternate_name": "Benzoic acid, 3,5-dinitro-, ethyl ester;Ethyl 3,5-dinitrobenzoate;3,5-Dinitrobenzoic acid ethyl ester;NSC 32741",
    "duplicated_cas_no": "",
    "SMILES": "C(OCC)(=O)C1=CC(N(=O)=O)=CC(N(=O)=O)=C1",
    "meta_data": {
        "InChI": "InChI=1S/C9H8N2O6/c1-2-17-9(12)6-3-7(10(13)14)5-8(4-6)11(15)16/h3-5H,2H2,1H3",
        "InChIKey": null,
        "Canonical SMILES": "O=C(OCC)C=1C=C(C=C(C1)N(=O)=O)N(=O)=O",
        "Molecular Formula": "C<sub>9</sub>H<sub>8</sub>N<sub>2</sub>O<sub>6</sub>",
        "Molecular Mass": "240.17",
        "Melting Point": "94 °C",
        "Density": "1.511 g/cm³"
    }
}