{
    "cas_no": "2082-84-0",
    "key_name": "Decyltrimethylammonium bromide",
    "cn_name": "十烷基三甲基溴化铵;",
    "alternate_name": "1-Decanaminium, <em>N</em>,<em>N</em>,<em>N</em>-trimethyl-, bromide (1:1);Ammonium, decyltrimethyl-, bromide;1-Decanaminium, <em>N</em>,<em>N</em>,<em>N</em>-trimethyl-, bromide;Decyltrimethylammonium bromide;<em>n</em>-Decyltrimethylammonium bromide;<em>N</em>,<em>N</em>,<em>N</em>-Trimethyl-1-decanaminium bromide;<em>N</em>,<em>N</em>,<em>N</em>-Trimethyldecylammonium bromide;DTAB;FSM 20;Trimethyldecylammonium bromide;DeTAB;<em>N</em>-Decyl-<em>N</em>,<em>N</em>,<em>N</em>-trimethylammonium bromide",
    "duplicated_cas_no": "",
    "SMILES": "C(CCCCCCCC)C[N+](C)(C)C.[Br-]",
    "meta_data": {
        "InChI": "InChI=1S/C13H30N.BrH/c1-5-6-7-8-9-10-11-12-13-14(2,3)4;/h5-13H2,1-4H3;1H/q+1;/p-1",
        "InChIKey": null,
        "Canonical SMILES": "[Br-].CCCCCCCCCC[N+](C)(C)C",
        "Molecular Formula": "C<sub>13</sub>H<sub>30</sub>N.Br",
        "Molecular Mass": "",
        "Melting Point": "233-235 °C"
    }
}