{
    "cas_no": "74-95-3",
    "key_name": "Dibromomethane",
    "cn_name": "二溴甲烷;",
    "alternate_name": "Methane, dibromo-;Dibromomethane;Methylene bromide;Methylene dibromide;NSC 7293",
    "duplicated_cas_no": "",
    "SMILES": "C(Br)Br",
    "meta_data": {
        "InChI": "InChI=1S/CH2Br2/c2-1-3/h1H2",
        "InChIKey": null,
        "Canonical SMILES": "BrCBr",
        "Molecular Formula": "CH<sub>2</sub>Br<sub>2</sub>",
        "Molecular Mass": "173.83",
        "Boiling Point": "97 °C",
        "Melting Point": "-52.5 °C",
        "Density": "2.4969 g/cm³ @ Temp: 20 °C"
    }
}