{
    "cas_no": "613-48-9",
    "key_name": "<em>N</em>,<em>N</em>-Diethyl-<em>p</em>-toluidine",
    "cn_name": "N,N-二乙基-对甲苯胺;N,N-二乙基对甲苯胺;N,N-二乙基对甲基苯胺;N,N-二乙基-4-甲基苯胺;4-(二乙胺基)甲苯;",
    "alternate_name": "Benzenamine, <em>N</em>,<em>N</em>-diethyl-4-methyl-;<em>p</em>-Toluidine, <em>N</em>,<em>N</em>-diethyl-;<em>N</em>,<em>N</em>-Diethyl-4-methylbenzenamine;<em>N</em>,<em>N</em>-Diethyl-4-methylaniline;<em>N</em>,<em>N</em>-Diethyl-<em>p</em>-toluidine;<em>p</em>-Methyl-<em>N</em>,<em>N</em>-diethylaniline;4-(Diethylamino)toluene;4-Methyl-<em>N</em>,<em>N</em>-diethylaniline;<em>N</em>,<em>N</em>-Diethyl-<em>p</em>-methylaniline;NSC 8709",
    "duplicated_cas_no": "213334-39-5",
    "SMILES": "N(CC)(CC)C1=CC=C(C)C=C1",
    "meta_data": {
        "InChI": "InChI=1S/C11H17N/c1-4-12(5-2)11-8-6-10(3)7-9-11/h6-9H,4-5H2,1-3H3",
        "InChIKey": null,
        "Canonical SMILES": "C=1C=C(C=CC1N(CC)CC)C",
        "Molecular Formula": "C<sub>11</sub>H<sub>17</sub>N",
        "Molecular Mass": "163.26",
        "Boiling Point": "229 °C"
    }
}