{
    "cas_no": "611-70-1",
    "key_name": "Isobutyrophenone",
    "cn_name": "异丁酰苯;异丙基苯基甲酮;",
    "alternate_name": "1-Propanone, 2-methyl-1-phenyl-;Isobutyrophenone;2-Methyl-1-phenyl-1-propanone;Isopropyl phenyl ketone;2-Methylpropiophenone;α-Methylpropiophenone;Phenyl isopropyl ketone;1-Phenyl-2-methyl-1-propanone;2-Methyl-1-phenylpropanone;NSC 6552",
    "duplicated_cas_no": "",
    "SMILES": "C(C(C)C)(=O)C1=CC=CC=C1",
    "meta_data": {
        "InChI": "InChI=1S/C10H12O/c1-8(2)10(11)9-6-4-3-5-7-9/h3-8H,1-2H3",
        "InChIKey": null,
        "Canonical SMILES": "O=C(C=1C=CC=CC1)C(C)C",
        "Molecular Formula": "C<sub>10</sub>H<sub>12</sub>O",
        "Molecular Mass": "148.20",
        "Boiling Point": "220 °C",
        "Melting Point": "-1.3 °C",
        "Density": "0.999 g/cm³ @ Temp: 40 °C"
    }
}