{
    "cas_no": "17388-39-5",
    "key_name": "Swertiamarin",
    "cn_name": "獐牙菜苦甙;獐牙菜苦苷;5-乙烯基-6-(beta-D-吡喃葡糖氧基)-4,4a,5,6-四氢-4a-羟基-1H,3H-吡喃并[3,4-C]吡喃;",
    "alternate_name": "1<em>H</em>,3<em>H</em>-Pyrano[3,4-<em>c</em>]pyran-1-one, 5-ethenyl-6-(β-<span class=\"text-smallcaps\">D</span>-glucopyranosyloxy)-4,4a,5,6-tetrahydro-4a-hydroxy-, (4a<em>R</em>,5<em>R</em>,6<em>S</em>)-;Swertiamarin;1<em>H</em>,3<em>H</em>-Pyrano[3,4-<em>c</em>]pyran-1-one, 5-ethenyl-6-(β-<span class=\"text-smallcaps\">D</span>-glucopyranosyloxy)-4,4a,5,6-tetrahydro-4a-hydroxy-, [4a<em>R</em>-(4aα,5β,6α)]-;(4a<em>R</em>,5<em>R</em>,6<em>S</em>)-5-Ethenyl-6-(β-<span class=\"text-smallcaps\">D</span>-glucopyranosyloxy)-4,4a,5,6-tetrahydro-4a-hydroxy-1<em>H</em>,3<em>H</em>-pyrano[3,4-<em>c</em>]pyran-1-one;Swertiamarine;Swertiamaroside;Swertamarin;Swertimarin",
    "duplicated_cas_no": "28633-33-2",
    "SMILES": "C(=C)[C@@H]1[C@@]2(O)C(=CO[C@H]1O[C@@H]3O[C@H](CO)[C@@H](O)[C@H](O)[C@H]3O)C(=O)OCC2",
    "meta_data": {
        "InChI": "InChI=1S/C16H22O10/c1-2-7-14(24-6-8-13(21)23-4-3-16(7,8)22)26-15-12(20)11(19)10(18)9(5-17)25-15/h2,6-7,9-12,14-15,17-20,22H,1,3-5H2/t7-,9+,10+,11-,12+,14-,15-,16+/m0/s1",
        "InChIKey": null,
        "Canonical SMILES": "O=C1OCCC2(O)C1=COC(OC3OC(CO)C(O)C(O)C3O)C2C=C",
        "Molecular Formula": "C<sub>16</sub>H<sub>22</sub>O<sub>10</sub>",
        "Molecular Mass": "374.34",
        "Melting Point": "112-114 °C"
    }
}