{
    "cas_no": "147-24-0",
    "key_name": "Diphenhydramine hydrochloride",
    "cn_name": "盐酸苯海拉明;二甲氨基乙醇二苯甲醚盐酸盐;",
    "alternate_name": "Ethanamine, 2-(diphenylmethoxy)-<em>N</em>,<em>N</em>-dimethyl-, hydrochloride (1:1);Ethylamine, 2-(diphenylmethoxy)-<em>N</em>,<em>N</em>-dimethyl-, hydrochloride;Ethanamine, 2-(diphenylmethoxy)-<em>N</em>,<em>N</em>-dimethyl-, hydrochloride;Bena;Benadryl;Benzhydramine hydrochloride;2-(Benzhydryloxy)-<em>N</em>,<em>N</em>-dimethylethylamine hydrochloride;β-Dimethylaminoethyl benzhydryl ether hydrochloride;Diphenhydramine hydrochloride;2-Diphenylmethoxy-<em>N</em>,<em>N</em>-dimethylethylamine hydrochloride;Difenhydramine hydrochloride;Denydryl;Dimedrol;Dimedrol hydrochloride;Allergan;Allergival;Benadril hydrochloride;Restamin;Vena;Resmin;Benzhydrol β-dimethylaminoethyl ether hydrochloride;Halbmond;Benocten;Sekundal D;Allergina;Noctomin;Bagodryl;Bena-Fedrin;Amidryl;Alledryl;Fenylhist;Bax;Dibondrin;S 8;Wehydryl;Benylin;Syntedril;Sedopretten;Diphantine;Benodine;Histacyl;Benzantin;Asdrin;Benison;Theraflu;Dimedrolum;Psilo-Balsam;[2-(Diphenylmethoxy)ethyl]dimethylamine hydrochloride",
    "duplicated_cas_no": "8052-21-9",
    "SMILES": "C(OCCN(C)C)(C1=CC=CC=C1)C2=CC=CC=C2.Cl",
    "meta_data": {
        "InChI": "InChI=1S/C17H21NO.ClH/c1-18(2)13-14-19-17(15-9-5-3-6-10-15)16-11-7-4-8-12-16;/h3-12,17H,13-14H2,1-2H3;1H",
        "InChIKey": null,
        "Canonical SMILES": "Cl.O(CCN(C)C)C(C=1C=CC=CC1)C=2C=CC=CC2",
        "Molecular Formula": "C<sub>17</sub>H<sub>21</sub>NO.ClH",
        "Molecular Mass": "",
        "Boiling Point": "163-167 °C @ Press: 3 Torr",
        "Melting Point": "166-170 °C",
        "Density": "1.18 g/cm³"
    }
}