{
    "cas_no": "12108-13-3",
    "key_name": "Methylcyclopentadienylmanganese tricarbonyl",
    "cn_name": null,
    "alternate_name": "Manganese, tricarbonyl[(1,2,3,4,5-η)-1-methyl-2,4-cyclopentadien-1-yl]-;Manganese, tricarbonyl(methyl-π-cyclopentadienyl)-;Manganese, tricarbonyl(methylcyclopentadienyl)-;Methylcyclopentadienylmanganese tricarbonyl;Tricarbonyl[(1,2,3,4,5-η)-1-methyl-2,4-cyclopentadien-1-yl]manganese;π-Methylcyclopentadienylmanganese tricarbonyl;Tricarbonyl(methylcyclopentadienyl)manganese;Tricarbonyl(2-methylcyclopentadienyl)manganese;(Methylcyclopentadienyl)tricarbonylmanganese;2-Methylcyclopentadienylmanganese tricarbonyl;Methylcymantrene;Tricarbonyl(methyl-π-cyclopentadienyl)manganese;MMT;Tricarbonyl(η<sup>5</sup>-methylcyclopentadienyl)manganese;Tricarbonyl(η<sup>5</sup>-methylcyclopentadienyl)manganese(I);Ethyl MMT;Hitec 3000;NSC 22316;Hitec 3062",
    "duplicated_cas_no": "41536-42-9",
    "SMILES": "C(#O)[Mn+]1234(C#O)(C#O)[C-]5(C)[CH]1=[CH]2[CH]3=[CH]45",
    "meta_data": {
        "InChI": "InChI=1S/C6H7.3CO.Mn/c1-6-4-2-3-5-6;3*1-2;/h2-5H,1H3;;;;/q-1;;;;+1",
        "InChIKey": null,
        "Canonical SMILES": "O#C[Mn+]1234(C#O)(C#O)[CH]=5[CH]4=[CH]3[C-]2(C)[CH]51",
        "Molecular Formula": "C<sub>9</sub>H<sub>7</sub>MnO<sub>3</sub>",
        "Molecular Mass": "",
        "Boiling Point": "233 °C",
        "Melting Point": "2.2 °C",
        "Density": "1.39 g/cm³ @ Temp: 20 °C"
    }
}