{
    "cas_no": "21240-34-6",
    "key_name": "4,5-Diphenyl-1,3-dioxol-2-one",
    "cn_name": null,
    "alternate_name": "1,3-Dioxol-2-one, 4,5-diphenyl-;Carbonic acid, cyclic diphenylvinylene ester;4,5-Diphenyl-1,3-dioxol-2-one;1,2-Diphenylvinylene carbonate;Cyclic diphenylvinylene carbonate;Diphenyl-1,3-dioxol-2-one;NSC 177493",
    "duplicated_cas_no": "",
    "SMILES": "O=C1OC(=C(O1)C2=CC=CC=C2)C3=CC=CC=C3",
    "meta_data": {
        "InChI": "InChI=1S/C15H10O3/c16-15-17-13(11-7-3-1-4-8-11)14(18-15)12-9-5-2-6-10-12/h1-10H",
        "InChIKey": null,
        "Canonical SMILES": "O=C1OC(C=2C=CC=CC2)=C(O1)C=3C=CC=CC3",
        "Molecular Formula": "C<sub>15</sub>H<sub>10</sub>O<sub>3</sub>",
        "Molecular Mass": "238.24",
        "Melting Point": "74-76 °C"
    }
}