{
    "cas_no": "2469-55-8",
    "key_name": "3,3′-(1,1,3,3-Tetramethyl-1,3-disiloxanediyl)bis[1-propanamine]",
    "cn_name": "1,3-二(3-氨基丙基)-1,1,3,3-四甲基二硅氧烷;",
    "alternate_name": "1-Propanamine, 3,3′-(1,1,3,3-tetramethyl-1,3-disiloxanediyl)bis-;5-Oxa-4,6-disilanonane-1,9-diamine, 4,4,6,6-tetramethyl-;3,3′-(1,1,3,3-Tetramethyl-1,3-disiloxanediyl)bis[1-propanamine];1,3-Bis(3-aminopropyl)-1,1,3,3-tetramethyl-1,3-disiloxane;1,3-Bis(3-aminopropyl)-1,1,3,3-tetramethyldisiloxane;1,3-Bis(3-aminopropyl)tetramethyldisiloxane;B 1710;1,3-Bis(aminopropyl)-1,1,3,3-tetramethyldisiloxane;H-PAM;1,3-Bis(γ-aminopropyl)tetramethyldisiloxane;TSL 9306;BY 16-871EG;PAM-E (siloxane);PAM-E;1,3-Di(3-aminopropyl)-1,1,3,3-tetramethyldisiloxane;Bisaminopropyltetramethyldisiloxane;GP 967;1,9-Diamino-4,4,6,6-tetramethyl-5-oxa-4,6-disilanonane;3,3′-(1,1,3,3-Tetramethyl disiloxan-1,3-diyl) bis (propan-1-amine);1,3-Bis(3′-aminopropyl)-1,1,3,3-tetramethyldisiloxane;3,3′-(1,1,3,3-Tetramethyldisiloxane-1,3-diyl)bis(propan-1-amine);3-[[3-Aminopropyl(dimethyl)silyl]oxy-dimethylsilyl]propan-1-amine;Bis(3-aminopropyl)-1,1′,3,3′-tetramethyldisiloxane;UC 603;PC 9410;SiDA;Wacker Fluid NH 02D",
    "duplicated_cas_no": "112059-95-7;130094-75-6;178698-86-7;200420-30-0;210154-26-0;1431508-29-0;1893374-81-6",
    "SMILES": "[Si](O[Si](CCCN)(C)C)(CCCN)(C)C",
    "meta_data": {
        "InChI": "InChI=1S/C10H28N2OSi2/c1-14(2,9-5-7-11)13-15(3,4)10-6-8-12/h5-12H2,1-4H3",
        "InChIKey": null,
        "Canonical SMILES": "O([Si](C)(C)CCCN)[Si](C)(C)CCCN",
        "Molecular Formula": "C<sub>10</sub>H<sub>28</sub>N<sub>2</sub>OSi<sub>2</sub>",
        "Molecular Mass": "248.51",
        "Boiling Point": "132-139 °C @ Press: 11 Torr",
        "Density": "0.897 g/cm³ @ Temp: 25 °C"
    }
}