{
    "cas_no": "2894-67-9",
    "key_name": "Delorazepam",
    "cn_name": "地洛西泮;7-氯-5-(2-氯苯基)-1,3-二氢-2H-1,4-苯并二氮杂卓-2-酮;",
    "alternate_name": "2<em>H</em>-1,4-Benzodiazepin-2-one, 7-chloro-5-(2-chlorophenyl)-1,3-dihydro-;2<em>H</em>-1,4-Benzodiazepin-2-one, 7-chloro-5-(<em>o</em>-chlorophenyl)-1,3-dihydro-;7-Chloro-5-(2-chlorophenyl)-1,3-dihydro-2<em>H</em>-1,4-benzodiazepin-2-one;Ro 5-3027;7-Chloro-5-(2-chlorophenyl)-3<em>H</em>-1,4-benzodiazepin-2(1<em>H</em>)-one;7-Chloro-1,3-dihydro-5-(2′-chlorophenyl)-2<em>H</em>-1,4-benzodiazepin-2-one;7-Chloro-5-(<em>o</em>-chlorophenyl)-1,3-dihydro-2<em>H</em>-1,4-benzodiazepin-2-one;Chlordemethyldiazepam;7-Chloro-1,3-dihydro-5-(2-chlorophenyl)-2<em>H</em>-1,4-benzodiazepin-2-one;2′-Chloronordiazepam;Chlordesmethyldiazepam;Delorazepam;RV 12165;Chlorodesmethyldiazepam;NSC 169895;7-Chloro-5-(2-chlorophenyl)-1<em>H</em>-1,4-benzodiazepin-2(3<em>H</em>)-one",
    "duplicated_cas_no": "",
    "SMILES": "ClC=1C=C2C(=NCC(=O)NC2=CC1)C3=C(Cl)C=CC=C3",
    "meta_data": {
        "InChI": "InChI=1S/C15H10Cl2N2O/c16-9-5-6-13-11(7-9)15(18-8-14(20)19-13)10-3-1-2-4-12(10)17/h1-7H,8H2,(H,19,20)",
        "InChIKey": null,
        "Canonical SMILES": "O=C1NC=2C=CC(Cl)=CC2C(=NC1)C=3C=CC=CC3Cl",
        "Molecular Formula": "C<sub>15</sub>H<sub>10</sub>Cl<sub>2</sub>N<sub>2</sub>O",
        "Molecular Mass": "305.16",
        "Melting Point": "199-201 °C"
    }
}