{
    "cas_no": "7487-94-7",
    "key_name": "Mercuric chloride",
    "cn_name": "氯化汞;二氯化汞;升汞;",
    "alternate_name": "Mercury chloride (HgCl<sub>2</sub>);Mercury chloromercurate(II) (HgCl<sub>2</sub>);Bichloride of mercury;Calochlor;Mercuric chloride;Mercury bichloride;Mercury perchloride;Mercury dichloride;Mercuric bichloride;Sulem;Sublimate;Dichloromercury;Mercury(II) chloride;Mercury chloride;Corrosive sublimate;CRC;Mercury dichloride (HgCl<sub>2</sub>);Mercury(2+) chloride;NSC 353255;MeSH ID: D008627",
    "duplicated_cas_no": "",
    "SMILES": "[Hg](Cl)Cl",
    "meta_data": {
        "InChI": "InChI=1S/2ClH.Hg/h2*1H;/q;;+2/p-2",
        "InChIKey": null,
        "Canonical SMILES": "Cl[Hg]Cl",
        "Molecular Formula": "Cl<sub>2</sub>Hg",
        "Molecular Mass": "",
        "Boiling Point": "302 °C",
        "Melting Point": "277 °C",
        "Density": "5.6 g/cm³ @ Temp: 20 °C"
    }
}