{
    "cas_no": "1070-64-0",
    "key_name": "Octanoic acid, 6,8-dichloro-, ethyl ester",
    "cn_name": "6,8-二氯辛酸乙酯;",
    "alternate_name": "Octanoic acid, 6,8-dichloro-, ethyl ester;Ethyl 6,8-dichlorooctanoate;6,8-Dichlorooctanoic acid ethyl ester",
    "duplicated_cas_no": "",
    "SMILES": "C(CCCCC(OCC)=O)(CCCl)Cl",
    "meta_data": {
        "InChI": "InChI=1S/C10H18Cl2O2/c1-2-14-10(13)6-4-3-5-9(12)7-8-11/h9H,2-8H2,1H3",
        "InChIKey": null,
        "Canonical SMILES": "O=C(OCC)CCCCC(Cl)CCCl",
        "Molecular Formula": "C<sub>10</sub>H<sub>18</sub>Cl<sub>2</sub>O<sub>2</sub>",
        "Molecular Mass": "241.15",
        "Boiling Point": "109 °C @ Press: 0.7 Torr",
        "Density": "1.1026 g/cm³ @ Temp: 20 °C"
    }
}