{
    "cas_no": "21397-07-9",
    "key_name": "2-Chloro-1-fluoro-3-nitrobenzene",
    "cn_name": "2-氯-3-氟硝基苯;",
    "alternate_name": "Benzene, 2-chloro-1-fluoro-3-nitro-;2-Chloro-1-fluoro-3-nitrobenzene;2-Chloro-3-fluoronitrobenzene",
    "duplicated_cas_no": "",
    "SMILES": "N(=O)(=O)C1=C(Cl)C(F)=CC=C1",
    "meta_data": {
        "InChI": "InChI=1S/C6H3ClFNO2/c7-6-4(8)2-1-3-5(6)9(10)11/h1-3H",
        "InChIKey": null,
        "Canonical SMILES": "O=N(=O)C=1C=CC=C(F)C1Cl",
        "Molecular Formula": "C<sub>6</sub>H<sub>3</sub>ClFNO<sub>2</sub>",
        "Molecular Mass": "175.54",
        "Boiling Point": "237-239 °C"
    }
}