{
    "cas_no": "2301-25-9",
    "key_name": "1-(4-Nitrophenyl)-1<em>H</em>-imidazole",
    "cn_name": "1-(4-硝基苯)-1H-咪唑;",
    "alternate_name": "1<em>H</em>-Imidazole, 1-(4-nitrophenyl)-;Imidazole, 1-(<em>p</em>-nitrophenyl)-;1-(4-Nitrophenyl)-1<em>H</em>-imidazole;1-(<em>p</em>-Nitrophenyl)imidazole;1-(4-Nitrophenyl)imidazole;4-(Imidazol-1-yl)nitrobenzene;4-(1<em>H</em>-Imidazol-1-yl)-1-nitrobenzene",
    "duplicated_cas_no": "126993-06-4",
    "SMILES": "N(=O)(=O)C1=CC=C(C=C1)N2C=CN=C2",
    "meta_data": {
        "InChI": "InChI=1S/C9H7N3O2/c13-12(14)9-3-1-8(2-4-9)11-6-5-10-7-11/h1-7H",
        "InChIKey": null,
        "Canonical SMILES": "O=N(=O)C1=CC=C(C=C1)N2C=NC=C2",
        "Molecular Formula": "C<sub>9</sub>H<sub>7</sub>N<sub>3</sub>O<sub>2</sub>",
        "Molecular Mass": "189.17",
        "Melting Point": "195-198 °C"
    }
}