{
    "cas_no": "32337-97-6",
    "key_name": "1-Chloro-2-iodo-3-nitrobenzene",
    "cn_name": null,
    "alternate_name": "Benzene, 1-chloro-2-iodo-3-nitro-;1-Chloro-2-iodo-3-nitrobenzene",
    "duplicated_cas_no": "",
    "SMILES": "N(=O)(=O)C1=C(I)C(Cl)=CC=C1",
    "meta_data": {
        "InChI": "InChI=1S/C6H3ClINO2/c7-4-2-1-3-5(6(4)8)9(10)11/h1-3H",
        "InChIKey": null,
        "Canonical SMILES": "O=N(=O)C=1C=CC=C(Cl)C1I",
        "Molecular Formula": "C<sub>6</sub>H<sub>3</sub>ClINO<sub>2</sub>",
        "Molecular Mass": "283.45",
        "Melting Point": "100-101 °C"
    }
}