{
    "cas_no": "7783-09-7",
    "key_name": "Hydrogen telluride",
    "cn_name": null,
    "alternate_name": "Hydrogen telluride (H<sub>2</sub>Te);Tellurium hydride;Telane;Dihydrogen telluride;Hydrogen telluride;Tellurium hydride (TeH<sub>2</sub>)",
    "duplicated_cas_no": "",
    "SMILES": "[TeH2]",
    "meta_data": {
        "InChI": "InChI=1S/H2Te/h1H2",
        "InChIKey": null,
        "Canonical SMILES": "[TeH2]",
        "Molecular Formula": "H<sub>2</sub>Te",
        "Molecular Mass": "",
        "Boiling Point": "0 °C",
        "Melting Point": "-57 °C"
    }
}