{
    "cas_no": "3091-25-6",
    "key_name": "Octyltin trichloride",
    "cn_name": null,
    "alternate_name": "Stannane, trichlorooctyl-;Octyltin trichloride;Tin, trichlorooctyl-;Trichlorooctylstannane;Octyltrichlorostannane;<em>n</em>-Octyltin trichloride;<em>n</em>-Octyltrichlorostannane;Mono-<em>n</em>-octyltin trichloride;Trichloro-<em>n</em>-octylstannane;Monooctyltin trichloride;NSC 297508",
    "duplicated_cas_no": "",
    "SMILES": "C(CCCCCCC)[Sn](Cl)(Cl)Cl",
    "meta_data": {
        "InChI": "InChI=1S/C8H17.3ClH.Sn/c1-3-5-7-8-6-4-2;;;;/h1,3-8H2,2H3;3*1H;/q;;;;+3/p-3",
        "InChIKey": null,
        "Canonical SMILES": "Cl[Sn](Cl)(Cl)CCCCCCCC",
        "Molecular Formula": "C<sub>8</sub>H<sub>17</sub>Cl<sub>3</sub>Sn",
        "Molecular Mass": "338.29",
        "Boiling Point": "150-159 °C @ Press: 10 Torr",
        "Density": "1.35 g/cm³"
    }
}