{
    "cas_no": "85-73-4",
    "key_name": "Phthalylsulfathiazole",
    "cn_name": "酞磺胺噻唑;羧苯甲酰磺胺噻唑;2-[[[4-[(2-噻唑氨基)磺酰基]苯基]氨基]羰基]苯甲酸;",
    "alternate_name": "Benzoic acid, 2-[[[4-[(2-thiazolylamino)sulfonyl]phenyl]amino]carbonyl]-;Phthalanilic acid, 4′-(2-thiazolylsulfamoyl)-;2-[[[4-[(2-Thiazolylamino)sulfonyl]phenyl]amino]carbonyl]benzoic acid;AFI-Ftalyl;(<em>o</em>-Carboxybenzoyl)-<em>p</em>-aminophenylsulfonamidothiazole;Cremothalidine;Enteramida;Entero-sulfina;Entexidina;Intestiazol;Phthalazol;2-(<em>N</em><sup>4</sup>-Phthalylaminobenzenesulfonamide)thiazole;Phthalylnorsulfazole;2-(<em>N</em><sup>4</sup>-Phthalylsulfanilamido)thiazole;Phthalylsulfathiazole;Phthalylsulfonazole;Sulfacetil;Sulfaphthalazole;Sulfathalidine;Sulftalyl;Taleudron;Talidine;Taloudron;Thalazole;Thalistanin;Thalistatyl;4′-(2-Thiazolylsulfamoyl)phthalanilic acid;4′-(2-Thiazolylsulfamyl)phthalanilic acid;Ultratiazol;Phthalylsulphathiazole;Ftalazol;Phthalidin;Thalinil;Ftalysept;Ftalil-Esteve;Phtalazol;Ftalil-Septol;Sulphaphthalyl;NSC 66454;NSC 683525;2-[[4-(1,3-Thiazol-2-ylsulfamoyl)phenyl]carbamoyl]benzoic acid;2-([4-[(1,3-Thiazol-2-yl)sulfamoyl]phenyl]carbamoyl)benzoic acid",
    "duplicated_cas_no": "",
    "SMILES": "C(NC1=CC=C(S(NC2=NC=CS2)(=O)=O)C=C1)(=O)C3=C(C(O)=O)C=CC=C3",
    "meta_data": {
        "InChI": "InChI=1S/C17H13N3O5S2/c21-15(13-3-1-2-4-14(13)16(22)23)19-11-5-7-12(8-6-11)27(24,25)20-17-18-9-10-26-17/h1-10H,(H,18,20)(H,19,21)(H,22,23)",
        "InChIKey": null,
        "Canonical SMILES": "O=C(O)C=1C=CC=CC1C(=O)NC2=CC=C(C=C2)S(=O)(=O)NC3=NC=CS3",
        "Molecular Formula": "C<sub>17</sub>H<sub>13</sub>N<sub>3</sub>O<sub>5</sub>S<sub>2</sub>",
        "Molecular Mass": "403.43",
        "Melting Point": "273 °C"
    }
}