{
    "cas_no": "2566-23-6",
    "key_name": "<em>N</em>-Benzoyl-<span class=\"text-smallcaps\">L</span>-tyrosine",
    "cn_name": "N-苯甲酰-L-酪氨酸;",
    "alternate_name": "<span class=\"text-smallcaps\">L</span>-Tyrosine, <em>N</em>-benzoyl-;Tyrosine, <em>N</em>-benzoyl-, <span class=\"text-smallcaps\">L</span>-;Tyrosine, <em>N</em>-benzoyl-;<em>N</em>-Benzoyl-<span class=\"text-smallcaps\">L</span>-tyrosine;Benzoyltyrosine;<em>N</em>-Benzoyltyrosine;(2S)-3-(4-Hydroxyphenyl)-2-(phenylformamido)propanoic acid",
    "duplicated_cas_no": "",
    "SMILES": "C([C@H](NC(=O)C1=CC=CC=C1)C(O)=O)C2=CC=C(O)C=C2",
    "meta_data": {
        "InChI": "InChI=1S/C16H15NO4/c18-13-8-6-11(7-9-13)10-14(16(20)21)17-15(19)12-4-2-1-3-5-12/h1-9,14,18H,10H2,(H,17,19)(H,20,21)/t14-/m0/s1",
        "InChIKey": null,
        "Canonical SMILES": "O=C(O)C(NC(=O)C=1C=CC=CC1)CC2=CC=C(O)C=C2",
        "Molecular Formula": "C<sub>16</sub>H<sub>15</sub>NO<sub>4</sub>",
        "Molecular Mass": "285.29",
        "Melting Point": "164 °C"
    }
}