{
    "cas_no": "27003-73-2",
    "key_name": "(+)-Lariciresinol",
    "cn_name": null,
    "alternate_name": "3-Furanmethanol, tetrahydro-2-(4-hydroxy-3-methoxyphenyl)-4-[(4-hydroxy-3-methoxyphenyl)methyl]-, (2<em>S</em>,3<em>R</em>,4<em>R</em>)-;Lariciresinol;3-Furanmethanol, tetrahydro-2-(4-hydroxy-3-methoxyphenyl)-4-vanillyl-;3-Furanmethanol, tetrahydro-2-(4-hydroxy-3-methoxyphenyl)-4-[(4-hydroxy-3-methoxyphenyl)methyl]-, [2<em>S</em>-(2α,3β,4β)]-;(2<em>S</em>,3<em>R</em>,4<em>R</em>)-Tetrahydro-2-(4-hydroxy-3-methoxyphenyl)-4-[(4-hydroxy-3-methoxyphenyl)methyl]-3-furanmethanol;Lariciresinol, (+)-;(+)-Lariciresinol;NSC 329247",
    "duplicated_cas_no": "52193-87-0",
    "SMILES": "C(O)[C@@H]1[C@H](OC[C@@H]1CC2=CC(OC)=C(O)C=C2)C3=CC(OC)=C(O)C=C3",
    "meta_data": {
        "InChI": "InChI=1S/C20H24O6/c1-24-18-8-12(3-5-16(18)22)7-14-11-26-20(15(14)10-21)13-4-6-17(23)19(9-13)25-2/h3-6,8-9,14-15,20-23H,7,10-11H2,1-2H3/t14-,15-,20+/m0/s1",
        "InChIKey": null,
        "Canonical SMILES": "OC1=CC=C(C=C1OC)CC2COC(C3=CC=C(O)C(OC)=C3)C2CO",
        "Molecular Formula": "C<sub>20</sub>H<sub>24</sub>O<sub>6</sub>",
        "Molecular Mass": "360.40",
        "Melting Point": "167-168 °C"
    }
}