{
    "cas_no": "8030-30-6",
    "key_name": "Naphtha",
    "cn_name": null,
    "alternate_name": "Naphtha;Hi-flash naphtha;Benzin;Petroleum benzin;Petroleum naphtha;Benzin B 70;Amsco H-SB;Super VMP;Amsco H-J;Solvents, naphthas;Kwick Dry;Naphtesol M;Exxon Naphtha 5;Naphtha 5;HI-SOPL;Exxsol D 3135;Naphtha 200;Paragon 100E+;Paragon 100E Plus;Naphtha HT;Shellsol D 25;Terlitol D 60;Texsolve V;Shellsol D 40;Sanstar-sol 600D;Aromina 150",
    "duplicated_cas_no": "8030-31-7;50813-73-5;54847-97-1;116010-52-7;121448-83-7;345960-90-9;1217187-52-4",
    "SMILES": "",
    "meta_data": {
        "InChI": "",
        "InChIKey": null,
        "Canonical SMILES": "",
        "Molecular Formula": "Unspecified",
        "Molecular Mass": "",
        "Boiling Point": "35-60 °C"
    }
}