{
    "cas_no": "4098-06-0",
    "key_name": "Tri-<em>O</em>-acetyl-<span class=\"text-smallcaps\">D</span>-galactal",
    "cn_name": "D-三乙酰半乳糖烯;3,4,6-O-三乙酰基-D-半乳糖烯;",
    "alternate_name": "<span class=\"text-smallcaps\">D</span>-<em>arabino</em>-Hex-5-enitol, 2,6-anhydro-5-deoxy-, 1,3,4-triacetate;<span class=\"text-smallcaps\">D</span>-<em>lyxo</em>-Hex-1-enopyranose, 1,2-dideoxy-, triacetate;<span class=\"text-smallcaps\">D</span>-<em>arabino</em>-Hex-5-enitol, 2,6-anhydro-5-deoxy-, triacetate;Galactal, triacetate;3,4,6-Tri-<em>O</em>-acetyl-<span class=\"text-smallcaps\">D</span>-galactal;Triacetylgalactal;Tri-<em>O</em>-acetyl-<span class=\"text-smallcaps\">D</span>-galactal;<span class=\"text-smallcaps\">D</span>-Galactal triacetate;Triacetyl-<span class=\"text-smallcaps\">D</span>-galactal",
    "duplicated_cas_no": "",
    "SMILES": "O(C(C)=O)[C@@H]1[C@H](OC(C)=O)C=CO[C@@H]1COC(C)=O",
    "meta_data": {
        "InChI": "InChI=1S/C12H16O7/c1-7(13)17-6-11-12(19-9(3)15)10(4-5-16-11)18-8(2)14/h4-5,10-12H,6H2,1-3H3/t10-,11-,12-/m1/s1",
        "InChIKey": null,
        "Canonical SMILES": "O=C(OCC1OC=CC(OC(=O)C)C1OC(=O)C)C",
        "Molecular Formula": "C<sub>12</sub>H<sub>16</sub>O<sub>7</sub>",
        "Molecular Mass": "272.25",
        "Boiling Point": "138-140 °C",
        "Melting Point": "30 °C"
    }
}