{
    "cas_no": "27489-60-7",
    "key_name": "<em>N</em>-(<em>trans</em>-4-Hydroxycyclohexyl)acetamide",
    "cn_name": null,
    "alternate_name": "Acetamide, <em>N</em>-(<em>trans</em>-4-hydroxycyclohexyl)-;Acetamide, <em>N</em>-(4-hydroxycyclohexyl)-, <em>trans</em>-;<em>N</em>-(<em>trans</em>-4-Hydroxycyclohexyl)acetamide;<em>trans</em>-4-Acetamidocyclohexanol;<em>trans</em>-<em>N</em>-Acetyl-4-hydroxycyclohexylamine",
    "duplicated_cas_no": "",
    "SMILES": "N(C(C)=O)[C@H]1CC[C@H](O)CC1",
    "meta_data": {
        "InChI": "InChI=1/C8H15NO2/c1-6(10)9-7-2-4-8(11)5-3-7/h7-8,11H,2-5H2,1H3,(H,9,10)/t7-,8-",
        "InChIKey": null,
        "Canonical SMILES": "O=C(NC1CCC(O)CC1)C",
        "Molecular Formula": "C<sub>8</sub>H<sub>15</sub>NO<sub>2</sub>",
        "Molecular Mass": "157.21",
        "Melting Point": "165-167 °C"
    }
}