{
    "cas_no": "13265-84-4",
    "key_name": "<span class=\"text-smallcaps\">D</span>-(+)-Glucal",
    "cn_name": "D-葡萄烯糖;D-葡萄糖烯;",
    "alternate_name": "<span class=\"text-smallcaps\">D</span>-<em>arabino</em>-Hex-1-enitol, 1,5-anhydro-2-deoxy-;<span class=\"text-smallcaps\">D</span>-<em>arabino</em>-Hex-1-enopyranose, 1,2-dideoxy-;Glucal;1,5-Anhydro-2-deoxy-<span class=\"text-smallcaps\">D</span>-<em>arabino</em>-hex-1-enitol;<span class=\"text-smallcaps\">D</span>-Glucal;<span class=\"text-smallcaps\">D</span>-(+)-Glucal",
    "duplicated_cas_no": "882183-82-6",
    "SMILES": "C(O)[C@@H]1[C@@H](O)[C@H](O)C=CO1",
    "meta_data": {
        "InChI": "InChI=1S/C6H10O4/c7-3-5-6(9)4(8)1-2-10-5/h1-2,4-9H,3H2/t4-,5-,6+/m1/s1",
        "InChIKey": null,
        "Canonical SMILES": "OCC1OC=CC(O)C1O",
        "Molecular Formula": "C<sub>6</sub>H<sub>10</sub>O<sub>4</sub>",
        "Molecular Mass": "146.14",
        "Melting Point": "58 °C"
    }
}