{
    "cas_no": "2465-11-4",
    "key_name": "Stellasterol",
    "cn_name": null,
    "alternate_name": "Ergosta-7,22-dien-3-ol, (3β,5α,22<em>E</em>)-;5α-Ergosta-7,22-dien-3β-ol;Stellasterol;(3β,5α,22<em>E</em>)-Ergosta-7,22-dien-3-ol;(24<em>S</em>)-24-Methyl-5α-cholesta-7,22-dien-3β-ol;Stellasterin;Ergosta-7,22-dienol;Ergosterol, α-dihydro-;α-Dihydroergosterol;5-Dihydroergosterin;24-Methyl-5α-cholesta-7,22-dien-3β-ol;(22<em>E</em>,24<em>R</em>)-Ergosta-7,22-dien-3β-ol;(22<em>E</em>)-Ergosta-7,22-dien-3β-ol",
    "duplicated_cas_no": "",
    "SMILES": "C[C@@]12[C@](C=3[C@@]([C@]4(C)[C@@](CC3)(C[C@@H](O)CC4)[H])(CC1)[H])(CC[C@@]2([C@@H](/C=C/[C@@H](C(C)C)C)C)[H])[H]",
    "meta_data": {
        "InChI": "InChI=1S/C28H46O/c1-18(2)19(3)7-8-20(4)24-11-12-25-23-10-9-21-17-22(29)13-15-27(21,5)26(23)14-16-28(24,25)6/h7-8,10,18-22,24-26,29H,9,11-17H2,1-6H3/b8-7+/t19-,20+,21-,22-,24+,25-,26-,27-,28+/m0/s1",
        "InChIKey": null,
        "Canonical SMILES": "OC1CCC2(C)C3C(=CCC2C1)C4CCC(C(C=CC(C)C(C)C)C)C4(C)CC3",
        "Molecular Formula": "C<sub>28</sub>H<sub>46</sub>O",
        "Molecular Mass": "398.66",
        "Melting Point": "149-150 °C"
    }
}