{
    "cas_no": "30604-81-0",
    "key_name": "Polypyrrole",
    "cn_name": null,
    "alternate_name": "1<em>H</em>-Pyrrole, homopolymer;Pyrrole, polymers;Polypyrrole;Pyrrole polymer;Pyrrole homopolymer;Lutamer P 160;PPY 12;Lutamer ES 9567;Poly(1<em>H</em>-pyrrole);ST-Poly;Basotronic PYR;Polyazole;Coreron YE;HMDI-pyrrole graft copolymer;FA 946329",
    "duplicated_cas_no": "406219-39-4;1018967-40-2;1018967-41-3;1373125-58-6;1373259-50-7;1781221-73-5",
    "SMILES": "C=1C=CNC1",
    "meta_data": {
        "InChI": "InChI=1S/C4H5N/c1-2-4-5-3-1/h1-5H",
        "InChIKey": null,
        "Canonical SMILES": "C=1C=CNC1",
        "Molecular Formula": "(C<sub>4</sub>H<sub>5</sub>N)<sub>x</sub>",
        "Molecular Mass": "",
        "Melting Point": "&gt;300 °C",
        "Density": "0.87 g/cm³"
    }
}