{
    "cas_no": "1909-91-7",
    "key_name": "(+)-Isocupressic acid",
    "cn_name": null,
    "alternate_name": "1-Naphthalenecarboxylic acid, decahydro-5-[(3<em>E</em>)-5-hydroxy-3-methyl-3-penten-1-yl]-1,4a-dimethyl-6-methylene-, (1<em>S</em>,4a<em>R</em>,5<em>S</em>,8a<em>R</em>)-;Isocupressic acid;Labda-8(20),13-dien-19-oic acid, 15-hydroxy-, (<em>E</em>)-;1-Naphthalenecarboxylic acid, decahydro-5-(5-hydroxy-3-methyl-3-pentenyl)-1,4a-dimethyl-6-methylene-, [1<em>S</em>-[1α,4aα,5α(<em>E</em>),8aβ]]-;1-Naphthalenecarboxylic acid, decahydro-5-[(3<em>E</em>)-5-hydroxy-3-methyl-3-pentenyl]-1,4a-dimethyl-6-methylene-, (1<em>S</em>,4a<em>R</em>,5<em>S</em>,8a<em>R</em>)-;(1<em>S</em>,4a<em>R</em>,5<em>S</em>,8a<em>R</em>)-Decahydro-5-[(3<em>E</em>)-5-hydroxy-3-methyl-3-penten-1-yl]-1,4a-dimethyl-6-methylene-1-naphthalenecarboxylic acid;(+)-Isocupressic acid",
    "duplicated_cas_no": "79004-01-6",
    "SMILES": "C[C@@]12[C@]([C@](C(O)=O)(C)CCC1)(CCC(=C)[C@@H]2CC/C(=C/CO)/C)[H]",
    "meta_data": {
        "InChI": "InChI=1S/C20H32O3/c1-14(10-13-21)6-8-16-15(2)7-9-17-19(16,3)11-5-12-20(17,4)18(22)23/h10,16-17,21H,2,5-9,11-13H2,1,3-4H3,(H,22,23)/b14-10+/t16-,17+,19+,20-/m0/s1",
        "InChIKey": null,
        "Canonical SMILES": "O=C(O)C1(C)CCCC2(C)C(C(=C)CCC12)CCC(=CCO)C",
        "Molecular Formula": "C<sub>20</sub>H<sub>32</sub>O<sub>3</sub>",
        "Molecular Mass": "320.47",
        "Melting Point": "109-110 °C"
    }
}