{
    "cas_no": "697-73-4",
    "key_name": "2,6-Difluorobenzyl chloride",
    "cn_name": null,
    "alternate_name": "Benzene, 2-(chloromethyl)-1,3-difluoro-;Toluene, α-chloro-2,6-difluoro-;2-(Chloromethyl)-1,3-difluorobenzene;2,6-Difluorobenzyl chloride",
    "duplicated_cas_no": "",
    "SMILES": "C(Cl)C1=C(F)C=CC=C1F",
    "meta_data": {
        "InChI": "InChI=1S/C7H5ClF2/c8-4-5-6(9)2-1-3-7(5)10/h1-3H,4H2",
        "InChIKey": null,
        "Canonical SMILES": "FC1=CC=CC(F)=C1CCl",
        "Molecular Formula": "C<sub>7</sub>H<sub>5</sub>ClF<sub>2</sub>",
        "Molecular Mass": "162.56",
        "Boiling Point": "54-55 °C @ Press: 10 mmHg"
    }
}