{
    "cas_no": "1192-37-6",
    "key_name": "Methylenecyclohexane",
    "cn_name": "亚甲基环己烷;",
    "alternate_name": "Cyclohexane, methylene-;Methylenecyclohexane;1-Methylenecyclohexane;NSC 73918",
    "duplicated_cas_no": "",
    "SMILES": "C=C1CCCCC1",
    "meta_data": {
        "InChI": "InChI=1S/C7H12/c1-7-5-3-2-4-6-7/h1-6H2",
        "InChIKey": null,
        "Canonical SMILES": "C=C1CCCCC1",
        "Molecular Formula": "C<sub>7</sub>H<sub>12</sub>",
        "Molecular Mass": "96.17",
        "Boiling Point": "102.5 °C",
        "Melting Point": "-106.7 °C",
        "Density": "0.828 g/cm³ @ Temp: 0 °C"
    }
}