{
    "cas_no": "7330-46-3",
    "key_name": "3,3′-Dicarboxy-4,4′-diaminodiphenylmethane",
    "cn_name": null,
    "alternate_name": "Benzoic acid, 3,3′-methylenebis[6-amino-;Anthranilic acid, 5,5′-methylenedi-;3,3′-Methylenebis[6-aminobenzoic acid];4,4′-Diaminodiphenylmethane-3,3′-dicarboxylic acid;3,3′-Dicarboxy-4,4′-diaminodiphenylmethane;5,5′-Methylenedianthranilic acid;5,5′-Methylenebis[2-aminobenzoic acid];4,4′-Diamino-3,3′-dicarboxydiphenylmethane;Bis(4-amino-3-carboxyphenyl)methane;Benzoic acid, 5,5′-methylenebis[2-amino-;NCI 37136;CB 37136;MBAA;NSC 37136",
    "duplicated_cas_no": "53624-25-2",
    "SMILES": "C(C1=CC(C(O)=O)=C(N)C=C1)C2=CC(C(O)=O)=C(N)C=C2",
    "meta_data": {
        "InChI": "InChI=1S/C15H14N2O4/c16-12-3-1-8(6-10(12)14(18)19)5-9-2-4-13(17)11(7-9)15(20)21/h1-4,6-7H,5,16-17H2,(H,18,19)(H,20,21)",
        "InChIKey": null,
        "Canonical SMILES": "O=C(O)C1=CC(=CC=C1N)CC2=CC=C(N)C(=C2)C(=O)O",
        "Molecular Formula": "C<sub>15</sub>H<sub>14</sub>N<sub>2</sub>O<sub>4</sub>",
        "Molecular Mass": "286.28",
        "Melting Point": "245-248 °C"
    }
}