{
    "cas_no": "97267-61-3",
    "key_name": "3-Bromo-8-chloro-1,5-naphthyridine",
    "cn_name": null,
    "alternate_name": "1,5-Naphthyridine, 3-bromo-8-chloro-;3-Bromo-8-chloro-1,5-naphthyridine;7-Bromo-4-chloro-1,5-naphthyridine",
    "duplicated_cas_no": "",
    "SMILES": "ClC=1C2=C(C=C(Br)C=N2)N=CC1",
    "meta_data": {
        "InChI": "InChI=1S/C8H4BrClN2/c9-5-3-7-8(12-4-5)6(10)1-2-11-7/h1-4H",
        "InChIKey": null,
        "Canonical SMILES": "ClC=1C=CN=C2C=C(Br)C=NC12",
        "Molecular Formula": "C<sub>8</sub>H<sub>4</sub>BrClN<sub>2</sub>",
        "Molecular Mass": "243.49",
        "Melting Point": "163-165 °C"
    }
}