{
    "cas_no": "22083-74-5",
    "key_name": "<span class=\"text-smallcaps\">DL</span>-Nicotine",
    "cn_name": null,
    "alternate_name": "Pyridine, 3-(1-methyl-2-pyrrolidinyl)-;Nicotine, (±)-;Pyridine, 3-(1-methyl-2-pyrrolidinyl)-, (±)-;3-(1-Methyl-2-pyrrolidinyl)pyridine;(±)-Nicotine;<span class=\"text-smallcaps\">DL</span>-Nicotine;(<em>R</em>,<em>S</em>)-Nicotine;1-Methyl-2-(3-pyridyl)pyrrolidine",
    "duplicated_cas_no": "75202-10-7",
    "SMILES": "CN1C(CCC1)C=2C=CC=NC2",
    "meta_data": {
        "InChI": "InChI=1S/C10H14N2/c1-12-7-3-5-10(12)9-4-2-6-11-8-9/h2,4,6,8,10H,3,5,7H2,1H3",
        "InChIKey": null,
        "Canonical SMILES": "N=1C=CC=C(C1)C2N(C)CCC2",
        "Molecular Formula": "C<sub>10</sub>H<sub>14</sub>N<sub>2</sub>",
        "Molecular Mass": "162.23",
        "Boiling Point": "247 °C",
        "Melting Point": "-79 °C"
    }
}