{
    "cas_no": "16212-05-8",
    "key_name": "(2-Propen-1-ylsulfonyl)benzene",
    "cn_name": "烯丙基苯砜;",
    "alternate_name": "Benzene, (2-propen-1-ylsulfonyl)-;Sulfone, allyl phenyl;Benzene, (2-propenylsulfonyl)-;(2-Propen-1-ylsulfonyl)benzene;Phenyl allyl sulfone;Allyl phenyl sulfone;(2-Propenylsulfonyl)benzene;NSC 221230;Phenyl 2-propenyl sulfone;(Allylsulfonyl)benzene;(Prop-2-ene-1-sulfonyl)benzene",
    "duplicated_cas_no": "",
    "SMILES": "S(CC=C)(=O)(=O)C1=CC=CC=C1",
    "meta_data": {
        "InChI": "InChI=1S/C9H10O2S/c1-2-8-12(10,11)9-6-4-3-5-7-9/h2-7H,1,8H2",
        "InChIKey": null,
        "Canonical SMILES": "O=S(=O)(C=1C=CC=CC1)CC=C",
        "Molecular Formula": "C<sub>9</sub>H<sub>10</sub>O<sub>2</sub>S",
        "Molecular Mass": "182.24",
        "Boiling Point": "110-113 °C @ Press: 0.5 Torr",
        "Density": "1.1844 g/cm³ @ Temp: 25 °C"
    }
}