{
    "cas_no": "1053228-29-7",
    "key_name": "2,4-Dichloro-5-fluoro-7<em>H</em>-pyrrolo[2,3-<em>d</em>]pyrimidine",
    "cn_name": null,
    "alternate_name": "7<em>H</em>-Pyrrolo[2,3-<em>d</em>]pyrimidine, 2,4-dichloro-5-fluoro-;2,4-Dichloro-5-fluoro-7<em>H</em>-pyrrolo[2,3-<em>d</em>]pyrimidine",
    "duplicated_cas_no": "",
    "SMILES": "ClC1=C2C(=NC(Cl)=N1)NC=C2F",
    "meta_data": {
        "InChI": "InChI=1S/C6H2Cl2FN3/c7-4-3-2(9)1-10-5(3)12-6(8)11-4/h1H,(H,10,11,12)",
        "InChIKey": null,
        "Canonical SMILES": "FC1=CNC=2N=C(Cl)N=C(Cl)C12",
        "Molecular Formula": "C<sub>6</sub>H<sub>2</sub>Cl<sub>2</sub>FN<sub>3</sub>",
        "Molecular Mass": "206.00",
        "Melting Point": "234 °C"
    }
}