{
    "cas_no": "19339-59-4",
    "key_name": "Thiocyanic acid, 2-(4-chlorophenyl)-2-oxoethyl ester",
    "cn_name": "4-氯苯甲酰甲基硫氰酸酯;",
    "alternate_name": "Thiocyanic acid, 2-(4-chlorophenyl)-2-oxoethyl ester;Thiocyanic acid, <em>p</em>-chlorophenacyl ester;<em>p</em>-Chlorobenzoylmethyl thiocyanate;1-(4-Chlorophenyl)-2-thiocyanatoethanone;<em>p</em>-Chlorophenacyl thiocyanate;4-Chlorophenacyl thiocyanate;NSC 100737;NSC 45262;1-(4-Chlorophenyl)-2-(cyanosulfanyl)ethan-1-one;2-(4-Chlorophenyl)-2-oxoethyl thiocyanate",
    "duplicated_cas_no": "",
    "SMILES": "C(CSC#N)(=O)C1=CC=C(Cl)C=C1",
    "meta_data": {
        "InChI": "InChI=1S/C9H6ClNOS/c10-8-3-1-7(2-4-8)9(12)5-13-6-11/h1-4H,5H2",
        "InChIKey": null,
        "Canonical SMILES": "N#CSCC(=O)C1=CC=C(Cl)C=C1",
        "Molecular Formula": "C<sub>9</sub>H<sub>6</sub>ClNOS",
        "Molecular Mass": "211.67",
        "Melting Point": "138.6-139.2 °C"
    }
}