{
    "cas_no": "302-17-0",
    "key_name": "Chloral hydrate",
    "cn_name": "水合氯醛;水合三氯乙醛;三氯乙醛水合物;2,2,2-三氯-1,1-乙二醇;TCA;",
    "alternate_name": "1,1-Ethanediol, 2,2,2-trichloro-;Chloral hydrate;2,2,2-Trichloro-1,1-ethanediol;Chloral, monohydrate;Trichloroacetaldehyde hydrate;Trawotox;Bi 3411;Trichloroacetaldehyde monohydrate;Noctec;Nycton;Somnos;Lorinal;Chloraldurat;1,1,1-Trichloro-2,2-dihydroxyethane;Dormal;Phaldrone;Rectules;Hydral;Nycoton;SK Chloral hydrate;Escre;NSC 3210;Fagron;MeSH ID: D002697",
    "duplicated_cas_no": "109128-19-0",
    "SMILES": "C(C(O)O)(Cl)(Cl)Cl",
    "meta_data": {
        "InChI": "InChI=1S/C2H3Cl3O2/c3-2(4,5)1(6)7/h1,6-7H",
        "InChIKey": null,
        "Canonical SMILES": "ClC(Cl)(Cl)C(O)O",
        "Molecular Formula": "C<sub>2</sub>H<sub>3</sub>Cl<sub>3</sub>O<sub>2</sub>",
        "Molecular Mass": "165.40",
        "Boiling Point": "98 °C",
        "Melting Point": "57 °C",
        "Density": "2 x 10<sup>-6</sup> g/cm³ @ Temp: 20 °C"
    }
}