{
    "cas_no": "7784-30-7",
    "key_name": "Aluminum phosphate",
    "cn_name": null,
    "alternate_name": "Phosphoric acid, aluminum salt (1:1);Aluminum phosphate (Al(PO<sub>4</sub>));Aluminum orthophosphate;Aluminum phosphate (1:1);Aluminum monophosphate;Aluphos;Monoaluminum phosphate;FFB 32;Phosphalugel;Aluminum phosphate;FB 67;Phosphaljel;AlPO 5;ALPO;VPI;Fosfalumina;Aluminophosphate (AlPO<sub>4</sub>);Phosphaluvet;Fabutit 748;Fabutit 320;AlPO 11;Phosphalutab;Fosfalugel;Phosphalujel;Ulcocid;Rehydraphos;Fabutit 705;B 111;Alfogel;Taipoly L 2;AdjuPhos;Takialfa WR 100B;Lithopix P 1;Aluminium phosphate;YR 1;K-White G 110;K-White ZF 150W;Phoslite B 64",
    "duplicated_cas_no": "8022-59-1;13765-93-0;36201-72-6;37324-42-8;51668-55-4;52350-11-5;89686-54-4;93237-81-1;135151-77-8;189303-35-3;879634-80-7;2182680-41-5",
    "SMILES": "P(=O)(O)(O)O.[Al]",
    "meta_data": {
        "InChI": "InChI=1S/Al.H3O4P/c;1-5(2,3)4/h;(H3,1,2,3,4)",
        "InChIKey": null,
        "Canonical SMILES": "[Al].O=P(O)(O)O",
        "Molecular Formula": "Al.H<sub>3</sub>O<sub>4</sub>P",
        "Molecular Mass": "",
        "Melting Point": "&gt;1460 °C",
        "Density": "2.56 g/cm³ @ Temp: 23 °C"
    }
}