{
    "cas_no": "507-63-1",
    "key_name": "Perfluorooctyl iodide",
    "cn_name": "全氟辛基碘烷;",
    "alternate_name": "Octane, 1,1,1,2,2,3,3,4,4,5,5,6,6,7,7,8,8-heptadecafluoro-8-iodo-;Octane, heptadecafluoro-1-iodo-;1,1,1,2,2,3,3,4,4,5,5,6,6,7,7,8,8-Heptadecafluoro-8-iodooctane;Heptadecafluoro-1-iodooctane;1-Iodoperfluorooctane;Perfluorooctyl iodide;Perfluoro-1-iodooctane;1-Iodoheptadecafluorooctane;Perfluoro-<em>n</em>-octyl iodide;1-Iodo-1,1,2,2,3,3,4,4,5,5,6,6,7,7,8,8,8-heptadecafluorooctane;1,1,2,2,3,3,4,4,5,5,6,6,7,7,8,8,8-Heptadecafluoro-1-iodooctane;Telomer AN;Heptadecafluoro-<em>n</em>-octyl iodide;1,1,2,2,3,3,4,4,5,5,6,6,7,7,8,8,8-Heptadecafluorooctyl iodide",
    "duplicated_cas_no": "",
    "SMILES": "C(C(C(C(C(F)(F)I)(F)F)(F)F)(F)F)(C(C(C(F)(F)F)(F)F)(F)F)(F)F",
    "meta_data": {
        "InChI": "InChI=1S/C8F17I/c9-1(10,3(13,14)5(17,18)7(21,22)23)2(11,12)4(15,16)6(19,20)8(24,25)26",
        "InChIKey": null,
        "Canonical SMILES": "FC(F)(F)C(F)(F)C(F)(F)C(F)(F)C(F)(F)C(F)(F)C(F)(F)C(F)(F)I",
        "Molecular Formula": "C<sub>8</sub>F<sub>17</sub>I",
        "Molecular Mass": "545.96",
        "Boiling Point": "163 °C",
        "Melting Point": "20.8 °C"
    }
}