{
    "cas_no": "2243-81-4",
    "key_name": "1-Naphthalenecarboxamide",
    "cn_name": "萘-1-甲酰胺;萘-1-甲酰胺;",
    "alternate_name": "1-Naphthalenecarboxamide;1-Naphthamide;Naphthylacetamide;1-Naphthalenecarboxylic acid amide;1-Naphthylamide;NSC 38871",
    "duplicated_cas_no": "",
    "SMILES": "C(N)(=O)C=1C2=C(C=CC1)C=CC=C2",
    "meta_data": {
        "InChI": "InChI=1S/C11H9NO/c12-11(13)10-7-3-5-8-4-1-2-6-9(8)10/h1-7H,(H2,12,13)",
        "InChIKey": null,
        "Canonical SMILES": "O=C(N)C1=CC=CC=2C=CC=CC21",
        "Molecular Formula": "C<sub>11</sub>H<sub>9</sub>NO",
        "Molecular Mass": "171.20",
        "Melting Point": "205.8 °C"
    }
}