{
    "cas_no": "97398-80-6",
    "key_name": "(<em>trans</em>,<em>trans</em>)-4-Methoxy-4′-propyl-1,1′-bicyclohexyl",
    "cn_name": "反,反-4-甲氧基-4-正丙基-1,1-联二环己烷;反,反-4-甲氧基-4-正丙基-1,1-联二环己烷;",
    "alternate_name": "1,1′-Bicyclohexyl, 4-methoxy-4′-propyl-, (<em>trans</em>,<em>trans</em>)-;(<em>trans</em>,<em>trans</em>)-4-Methoxy-4′-propyl-1,1′-bicyclohexyl;<em>trans</em>,<em>trans</em>-4-Methoxy-4′-propylcyclohexylcyclohexane;3O1CCH;CCH 3O1;3-HH-O1;CCH-301;CC-3-O1",
    "duplicated_cas_no": "1236358-86-3;1623478-89-6;1969310-32-4;2103899-09-6;2448318-15-6",
    "SMILES": "C(CC)[C@H]1CC[C@@](CC1)([C@]2(CC[C@H](OC)CC2)[H])[H]",
    "meta_data": {
        "InChI": "InChI=1/C16H30O/c1-3-4-13-5-7-14(8-6-13)15-9-11-16(17-2)12-10-15/h13-16H,3-12H2,1-2H3/t13-,14-,15-,16-",
        "InChIKey": null,
        "Canonical SMILES": "O(C)C1CCC(CC1)C2CCC(CCC)CC2",
        "Molecular Formula": "C<sub>16</sub>H<sub>30</sub>O",
        "Molecular Mass": "238.41",
        "Melting Point": "10 °C"
    }
}