{
    "cas_no": "9002-85-1",
    "key_name": "Poly(vinylidene chloride)",
    "cn_name": null,
    "alternate_name": "Ethene, 1,1-dichloro-, homopolymer;Ethylene, 1,1-dichloro-, polymers;Ethylene, 1,1-dichloro-, homopolymer;Daran 210;Poly(vinylidene chloride);Poly(1,1-dichloroethylene);Vinylidene chloride polymer;1,1-Dichloroethylene polymer;Saran A;Daran X 255;Diofan;Polidene 930H;PVDC;Daran X 225;Saran XD 342;Polidene 33.061;XD 7150.00;XD 7151;B 9-1077;Saran XD 23-642;Aron LT;Poly(vinylidene dichloride);Krehalon SO;Saran 103S;Ixan E;Ixan PA 522;Polidene 37-0010;Vinylidene chloride homopolymer;Saran latex 103S;EP 13 (vinyl polymer);Diofan 232D;Krehalon DOAX 1;Diofan 3033;Ixan 91C;Diofan 2076D;Amsco-Res P 542;VR 558;Serfene 2010;Saran XD 5253-16;Polydene;Saran L 402;Claryl 15S1;Krehalon RRE 303;Krehalon AC 750;L 503 (vinyl polymer);L 503;XO 1621-10;Saran R-L 321;F 104 (chloropolymer);F 104;Viclan VL 828;L 511;Saran 864;Daran 143;Diofan 207DC;XU 32009.00;EP 13;Viclan VR 562;L 513;Serfene 2015;76RES-P546;76RES5517;Saran EX 2380;Saran 18L;Saran 468;Ixan PV 880;Polidene 33-0312;Aronmelt UL 530;Diofan 960;Krehalon LA;Daran 8500;Daran 8540;Saran 560;Saran FC 310;Serfene 2022;F 313;Serfene 701;Krehalon LA 412;Saran L 521B;Ixan PV 892;Krehalon DO 875S;F 04E;Krehalon VAT;SF 2011;Krehalon FO;Diofan 207DCH;Serfene 24X106;Saran UB 158;L 100;L 100 (vinyl polymer);Serfene 211;L 551B;Krehalon FB 7;FB 7;Solvway WA 50;Krehalon K-Flex;Toughnyl SG 482-2;Saran XPR 102;Saran Latex L 411;Saran L 411;Ixan PNE 613;Ixan PA 297;Airflex A 115;L 5001;Lucidene 546;Saran 168;HVHP 01300;Diofan A 050;Saran L 551B;Saran Latex L 131A;Saran Latex L 551B;Saran L 131A;Saran 540;PV 324;L 801;L 801A;Cellophane XS 500;Ixan XNE 288;Viclan VL 801;ACC 800;Saran L 536R;L 536R;Krehalon FM 10;FM 10;L 561B;BS;BS (vinyl polymer);Saran XUS 32019.10L;Daran 112;Saran 100HB;Saran R 241B;Diofan A 063;Diofan A 297;SL 18 (vinyl polymer);SL 18;Serfene 190;Diofan B 204;Serfene 2026-45;UV 30;Diofan 193D;WPA 5060;Krehalon FB 12;Diofan A 114;X 220;Solvay B 205;HZ 1265;Ixan PVS 109;Saran Latex L 140A;Saran L 140A;L 820A;XUS 32019;Saran L 820A;F 216;F 216 (fluoropolymer);L 817B;Diofan A 50;SDB 381;Saran 700;Saran Film 700;Saran Latex L 557;XU 32034.03;Solvay P 530;QL 705M;QL 701G;Star Twist 315XT;XH 4090YFHNMU;SLV 20",
    "duplicated_cas_no": "9050-12-8;25038-48-6;37243-65-5;39373-50-7;50355-59-4;50861-72-8;50926-92-6;56590-95-5;120025-75-4;445489-91-8;735294-54-9;2376730-29-7;2411411-85-1;2843550-96-7",
    "SMILES": "C(=C)(Cl)Cl",
    "meta_data": {
        "InChI": "InChI=1S/C2H2Cl2/c1-2(3)4/h1H2",
        "InChIKey": null,
        "Canonical SMILES": "ClC(Cl)=C",
        "Molecular Formula": "(C<sub>2</sub>H<sub>2</sub>Cl<sub>2</sub>)<sub>x</sub>",
        "Molecular Mass": "",
        "Melting Point": "210 °C (decomp)",
        "Density": "0.02 g/cm³"
    }
}