{
    "cas_no": "23141-25-5",
    "key_name": "Strictosamide",
    "cn_name": null,
    "alternate_name": "5<em>H</em>-Indolo[2,3-<em>a</em>]pyrano[3,4-<em>g</em>]quinolizin-5-one, 1-ethenyl-2-(β-<span class=\"text-smallcaps\">D</span>-glucopyranosyloxy)-1,2,7,8,13,13b,14,14a-octahydro-, (1<em>R</em>,2<em>S</em>,13b<em>S</em>,14a<em>S</em>)-;Strictosamide;Oxayohimban-21-one, 19,20-didehydro-16-ethenyl-17-(β-<span class=\"text-smallcaps\">D</span>-glucopyranosyloxy)-, (15β,16α,17β)-;5<em>H</em>-Indolo[2,3-<em>a</em>]pyrano[3,4-<em>g</em>]quinolizine, oxayohimban-21-one deriv.;(1<em>R</em>,2<em>S</em>,13b<em>S</em>,14a<em>S</em>)-1-Ethenyl-2-(β-<span class=\"text-smallcaps\">D</span>-glucopyranosyloxy)-1,2,7,8,13,13b,14,14a-octahydro-5<em>H</em>-indolo[2,3-<em>a</em>]pyrano[3,4-<em>g</em>]quinolizin-5-one;Isovincoside lactam;Strictosidine lactam;3-<em>epi</em>-Vincosamide;(-)-Strictosamide",
    "duplicated_cas_no": "",
    "SMILES": "O=C1N2[C@](C3=C(C=4C(N3)=CC=CC4)CC2)(C[C@@]5(C1=CO[C@@H](O[C@@H]6O[C@H](CO)[C@@H](O)[C@H](O)[C@H]6O)[C@@H]5C=C)[H])[H]",
    "meta_data": {
        "InChI": "InChI=1S/C26H30N2O8/c1-2-12-15-9-18-20-14(13-5-3-4-6-17(13)27-20)7-8-28(18)24(33)16(15)11-34-25(12)36-26-23(32)22(31)21(30)19(10-29)35-26/h2-6,11-12,15,18-19,21-23,25-27,29-32H,1,7-10H2/t12-,15+,18+,19-,21-,22+,23-,25+,26+/m1/s1",
        "InChIKey": null,
        "Canonical SMILES": "O=C1C2=COC(OC3OC(CO)C(O)C(O)C3O)C(C=C)C2CC4C=5NC=6C=CC=CC6C5CCN14",
        "Molecular Formula": "C<sub>26</sub>H<sub>30</sub>N<sub>2</sub>O<sub>8</sub>",
        "Molecular Mass": "498.52",
        "Melting Point": "176-177 °C"
    }
}