{
    "cas_no": "4232-27-3",
    "key_name": "Phenol, 2,4-dinitro-, 1-acetate",
    "cn_name": null,
    "alternate_name": "Phenol, 2,4-dinitro-, 1-acetate;Phenol, 2,4-dinitro-, acetate (ester);Phenol, 2,4-dinitro-, acetate;2,4-Dinitrophenyl acetate;NSC 99812",
    "duplicated_cas_no": "",
    "SMILES": "N(=O)(=O)C1=C(OC(C)=O)C=CC(N(=O)=O)=C1",
    "meta_data": {
        "InChI": "InChI=1S/C8H6N2O6/c1-5(11)16-8-3-2-6(9(12)13)4-7(8)10(14)15/h2-4H,1H3",
        "InChIKey": null,
        "Canonical SMILES": "O=C(OC1=CC=C(C=C1N(=O)=O)N(=O)=O)C",
        "Molecular Formula": "C<sub>8</sub>H<sub>6</sub>N<sub>2</sub>O<sub>6</sub>",
        "Molecular Mass": "226.14",
        "Melting Point": "72 °C"
    }
}