{
    "cas_no": "2905-23-9",
    "key_name": "2-Chlorobenzenesulfonyl chloride",
    "cn_name": "2-氯苯磺酰氯;邻氯苯磺酰氯;",
    "alternate_name": "Benzenesulfonyl chloride, 2-chloro-;Benzenesulfonyl chloride, <em>o</em>-chloro-;2-Chlorobenzenesulfonyl chloride;<em>o</em>-Chlorobenzenesulfonyl chloride;2-Chlorophenylsulfonyl chloride;NSC 151229;2-Chlorobenzene-1-sulfonyl chloride",
    "duplicated_cas_no": "",
    "SMILES": "S(Cl)(=O)(=O)C1=C(Cl)C=CC=C1",
    "meta_data": {
        "InChI": "InChI=1S/C6H4Cl2O2S/c7-5-3-1-2-4-6(5)11(8,9)10/h1-4H",
        "InChIKey": null,
        "Canonical SMILES": "O=S(=O)(Cl)C=1C=CC=CC1Cl",
        "Molecular Formula": "C<sub>6</sub>H<sub>4</sub>Cl<sub>2</sub>O<sub>2</sub>S",
        "Molecular Mass": "211.07",
        "Boiling Point": "144-146 °C @ Press: 12 Torr",
        "Melting Point": "27.4 °C"
    }
}