{
    "cas_no": "29471-17-8",
    "key_name": "Di-(<em>tert</em>-butylbenzo)-18-crown-6",
    "cn_name": null,
    "alternate_name": "Dibenzo[<em>b</em>,<em>k</em>][1,4,7,10,13,16]hexaoxacyclooctadecin, 2,13(<em>or</em> 2,14)-bis(1,1-dimethylethyl)-6,7,9,10,17,18,20,21-octahydro-;Dibenzo[<em>b</em>,<em>k</em>][1,4,7,10,13,16]hexaoxacyclooctadecin, di-<em>tert</em>-butyl-6,7,9,10,17,18,20,21-octahydro-;2,13(<em>or</em> 2,14)-Bis(1,1-dimethylethyl)-6,7,9,10,17,18,20,21-octahydrodibenzo[<em>b</em>,<em>k</em>][1,4,7,10,13,16]hexaoxacyclooctadecin;Bis(<em>tert</em>-butylbenzo)-18-crown-6;Bis(4,4′(5′)-<em>tert</em>-butylbenzo)-18-crown-6;Di-(<em>tert</em>-butylbenzo)-18-crown-6;4,4′(5′)-[Di-<em>tert</em>-butyldibenzo]-18-crown-6;Di(tert-butylbenzo)-18-crown-6",
    "duplicated_cas_no": "28801-55-0;50855-11-3;88155-39-9",
    "SMILES": "",
    "meta_data": {
        "InChI": "",
        "InChIKey": null,
        "Canonical SMILES": "",
        "Molecular Formula": "C<sub>28</sub>H<sub>40</sub>O<sub>6</sub>",
        "Molecular Mass": "",
        "Melting Point": "105-110 °C"
    }
}