{
    "cas_no": "3128-07-2",
    "key_name": "6-Oxoheptanoic acid",
    "cn_name": "5-乙酰戊酸;5-乙酰基戊酸;",
    "alternate_name": "Heptanoic acid, 6-oxo-;6-Oxoheptanoic acid;6-Ketoheptanoic acid;ε-Oxoenanthic acid;Acetovaleric acid;6-Oxoenanthic acid;5-Acetylvaleric acid;ε-Ketoheptanoic acid;NSC 167591",
    "duplicated_cas_no": "",
    "SMILES": "C(CCC(O)=O)CC(C)=O",
    "meta_data": {
        "InChI": "InChI=1S/C7H12O3/c1-6(8)4-2-3-5-7(9)10/h2-5H2,1H3,(H,9,10)",
        "InChIKey": null,
        "Canonical SMILES": "O=C(O)CCCCC(=O)C",
        "Molecular Formula": "C<sub>7</sub>H<sub>12</sub>O<sub>3</sub>",
        "Molecular Mass": "144.17",
        "Boiling Point": "166-167 °C @ Press: 9 Torr",
        "Melting Point": "33 °C"
    }
}