{
    "cas_no": "607-90-9",
    "key_name": "Propyl salicylate",
    "cn_name": "水杨酸丙酯;",
    "alternate_name": "Benzoic acid, 2-hydroxy-, propyl ester;Salicylic acid, propyl ester;Propyl salicylate;Propyl <em>o</em>-hydroxybenzoate;<em>n</em>-Propyl salicylate;NSC 8221",
    "duplicated_cas_no": "",
    "SMILES": "C(OCCC)(=O)C1=C(O)C=CC=C1",
    "meta_data": {
        "InChI": "InChI=1S/C10H12O3/c1-2-7-13-10(12)8-5-3-4-6-9(8)11/h3-6,11H,2,7H2,1H3",
        "InChIKey": null,
        "Canonical SMILES": "O=C(OCCC)C=1C=CC=CC1O",
        "Molecular Formula": "C<sub>10</sub>H<sub>12</sub>O<sub>3</sub>",
        "Molecular Mass": "180.20",
        "Boiling Point": "239 °C",
        "Melting Point": "97 °C"
    }
}