{
    "cas_no": "796967-16-3",
    "key_name": "Linifanib",
    "cn_name": null,
    "alternate_name": "Urea, <em>N</em>-[4-(3-amino-1<em>H</em>-indazol-4-yl)phenyl]-<em>N</em>′-(2-fluoro-5-methylphenyl)-;<em>N</em>-[4-(3-Amino-1<em>H</em>-indazol-4-yl)phenyl]-<em>N</em>′-(2-fluoro-5-methylphenyl)urea;ABT 869;Linifanib;Linigfanib;RG 3635;AL 39324;1-[4-(3-Amino-1<em>H</em>-indazol-4-yl)phenyl]-3-(2-fluoro-5-methylphenyl)urea",
    "duplicated_cas_no": "1148026-94-1",
    "SMILES": "NC=1C2=C(C=CC=C2NN1)C3=CC=C(NC(NC4=C(F)C=CC(C)=C4)=O)C=C3",
    "meta_data": {
        "InChI": "InChI=1S/C21H18FN5O/c1-12-5-10-16(22)18(11-12)25-21(28)24-14-8-6-13(7-9-14)15-3-2-4-17-19(15)20(23)27-26-17/h2-11H,1H3,(H3,23,26,27)(H2,24,25,28)",
        "InChIKey": null,
        "Canonical SMILES": "O=C(NC=1C=CC(=CC1)C=2C=CC=C3NN=C(N)C32)NC4=CC(=CC=C4F)C",
        "Molecular Formula": "C<sub>21</sub>H<sub>18</sub>FN<sub>5</sub>O",
        "Molecular Mass": "375.40",
        "Melting Point": "209-211 °C"
    }
}