{
    "cas_no": "7261-97-4",
    "key_name": "Dantrolene",
    "cn_name": null,
    "alternate_name": "2,4-Imidazolidinedione, 1-[[[5-(4-nitrophenyl)-2-furanyl]methylene]amino]-;Hydantoin, 1-[[5-(<em>p</em>-nitrophenyl)furfurylidene]amino]-;1-[[[5-(4-Nitrophenyl)-2-furanyl]methylene]amino]-2,4-imidazolidinedione;Dantrolene;1-[[5-(<em>p</em>-Nitrophenyl)furfurylidene]amino]hydantoin;F 368;1-([[5-(4-Nitrophenyl)furan-2-yl]methylidene]amino)imidazolidine-2,4-dione;MeSH ID: D003620",
    "duplicated_cas_no": "",
    "SMILES": "C(=NN1CC(=O)NC1=O)C=2OC(=CC2)C3=CC=C(N(=O)=O)C=C3",
    "meta_data": {
        "InChI": "InChI=1S/C14H10N4O5/c19-13-8-17(14(20)16-13)15-7-11-5-6-12(23-11)9-1-3-10(4-2-9)18(21)22/h1-7H,8H2,(H,16,19,20)",
        "InChIKey": null,
        "Canonical SMILES": "O=C1NC(=O)CN1N=CC=2OC(=CC2)C=3C=CC(=CC3)N(=O)=O",
        "Molecular Formula": "C<sub>14</sub>H<sub>10</sub>N<sub>4</sub>O<sub>5</sub>",
        "Molecular Mass": "314.25",
        "Melting Point": "279 °C"
    }
}