{
    "cas_no": "2015-56-7",
    "key_name": "Phosphoramidic acid, diphenyl ester",
    "cn_name": "氨基磷酸二苯酯;联苯基氨基磷酸酯;",
    "alternate_name": "Phosphoramidic acid, diphenyl ester;Phenyl phosphoramidate;Diphenyl amidophosphate;Diphenyl phosphoramidate;NSC 2043;Diphenylphosphoramide;[[Amino(phenoxy)phosphoryl]oxy]benzene",
    "duplicated_cas_no": "",
    "SMILES": "O(P(OC1=CC=CC=C1)(N)=O)C2=CC=CC=C2",
    "meta_data": {
        "InChI": "InChI=1S/C12H12NO3P/c13-17(14,15-11-7-3-1-4-8-11)16-12-9-5-2-6-10-12/h1-10H,(H2,13,14)",
        "InChIKey": null,
        "Canonical SMILES": "O=P(OC=1C=CC=CC1)(OC=2C=CC=CC2)N",
        "Molecular Formula": "C<sub>12</sub>H<sub>12</sub>NO<sub>3</sub>P",
        "Molecular Mass": "249.20",
        "Melting Point": "149.5-150.0 °C"
    }
}