{
    "cas_no": "13852-51-2",
    "key_name": "5-Chloro-2-methyl-4-nitrobenzenamine",
    "cn_name": "2-甲基-4-硝基-5-氯苯胺;",
    "alternate_name": "Benzenamine, 5-chloro-2-methyl-4-nitro-;<em>o</em>-Toluidine, 5-chloro-4-nitro-;5-Chloro-2-methyl-4-nitrobenzenamine;2-Methyl-4-nitro-5-chloroaniline;5-Chloro-2-methyl-4-nitroaniline;5-Chloro-4-nitro-<em>o</em>-toluidine;2-Amino-4-chloro-1-methyl-5-nitrobenzene;NSC 60116;(5-Chloro-2-methyl-4-nitrophenyl)amine",
    "duplicated_cas_no": "",
    "SMILES": "N(=O)(=O)C1=C(Cl)C=C(N)C(C)=C1",
    "meta_data": {
        "InChI": "InChI=1S/C7H7ClN2O2/c1-4-2-7(10(11)12)5(8)3-6(4)9/h2-3H,9H2,1H3",
        "InChIKey": null,
        "Canonical SMILES": "O=N(=O)C=1C=C(C(N)=CC1Cl)C",
        "Molecular Formula": "C<sub>7</sub>H<sub>7</sub>ClN<sub>2</sub>O<sub>2</sub>",
        "Molecular Mass": "186.60",
        "Melting Point": "164 °C"
    }
}