{
    "cas_no": "21962-45-8",
    "key_name": "4-Formyl-3-methoxybenzonitrile",
    "cn_name": "4-氰基-2-甲氧基苯甲醛;",
    "alternate_name": "Benzonitrile, 4-formyl-3-methoxy-;Terephthalaldehydonitrile, 3-methoxy-;4-Formyl-3-methoxybenzonitrile;2-Methoxy-4-cyanobenzaldehyde;4-Cyano-2-methoxybenzaldehyde",
    "duplicated_cas_no": "",
    "SMILES": "O(C)C1=C(C=O)C=CC(C#N)=C1",
    "meta_data": {
        "InChI": "InChI=1S/C9H7NO2/c1-12-9-4-7(5-10)2-3-8(9)6-11/h2-4,6H,1H3",
        "InChIKey": null,
        "Canonical SMILES": "N#CC1=CC=C(C=O)C(OC)=C1",
        "Molecular Formula": "C<sub>9</sub>H<sub>7</sub>NO<sub>2</sub>",
        "Molecular Mass": "161.16",
        "Melting Point": "109-111 °C"
    }
}