{
    "cas_no": "23357-46-2",
    "key_name": "(-)-1,2,3,4-Tetrahydro-1-naphthylamine",
    "cn_name": "(R)-(-)-1,2,3,4-四氢-1-萘胺;",
    "alternate_name": "1-Naphthalenamine, 1,2,3,4-tetrahydro-, (1<em>R</em>)-;1-Naphthylamine, 1,2,3,4-tetrahydro-, (<em>R</em>)-(-)-;1-Naphthalenamine, 1,2,3,4-tetrahydro-, (<em>R</em>)-;(1<em>R</em>)-1,2,3,4-Tetrahydro-1-naphthalenamine;(<em>R</em>)-(-)-1-Aminotetralin;(-)-1,2,3,4-Tetrahydro-1-naphthylamine;(<em>R</em>)-(-)-1,2,3,4-Tetrahydro-1-naphthylamine;(<em>R</em>)-(-)-1,2,3,4-Tetrahydro-1-aminonaphthalene;(-)-1,2,3,4-Tetrahydro-1-naphthalenamine;(<em>R</em>)-1,2,3,4-Tetrahydro-1-naphthylamine;(<em>R</em>)-1-Aminotetralin;(-)-1-Aminotetralin;(<em>R</em>)-(-)-1-Amino-1,2,3,4-tetrahydronaphthalene;(1R)-1,2,3,4-Tetrahydro-1-naphthalenamine;(R)-1,2,3,4-Tetrahydro-1-naphthalenamine;(1<em>R</em>)-1-Aminotetralin;(<em>R</em>)-1,2,3,4-Tetrahydronaphthalen-1-amine;(R)-1-Amino-1,2,3,4-tetrahydronaphthalene;(R)-1,2,3,4-Tetrahydro-1-naphthylamine;(R)-(-)-1,2,3,4-Tetrahydro-1-naphthylamine;(1R)-Tetralin-1-amine",
    "duplicated_cas_no": "",
    "SMILES": "N[C@H]1C=2C(CCC1)=CC=CC2",
    "meta_data": {
        "InChI": "InChI=1S/C10H13N/c11-10-7-3-5-8-4-1-2-6-9(8)10/h1-2,4,6,10H,3,5,7,11H2/t10-/m1/s1",
        "InChIKey": null,
        "Canonical SMILES": "NC1C=2C=CC=CC2CCC1",
        "Molecular Formula": "C<sub>10</sub>H<sub>13</sub>N",
        "Molecular Mass": "147.22",
        "Melting Point": "116-119 °C"
    }
}