{
    "cas_no": "708-06-5",
    "key_name": "2-Hydroxy-1-naphthaldehyde",
    "cn_name": "2-羟基-1-萘甲醛;",
    "alternate_name": "1-Naphthalenecarboxaldehyde, 2-hydroxy-;1-Naphthaldehyde, 2-hydroxy-;2-Hydroxy-1-naphthalenecarboxaldehyde;2-Hydroxy-α-naphthaldehyde;2-Hydroxynaphthaldehyde;1-Formyl-2-naphthol;β-Hydroxynaphthaldehyde;β-Hydroxy-α-naphthaldehyde;NC 014;2-Hydroxy-1-naphthaldehyde;1-Formyl-2-hydroxynaphthalene;2-Hydroxynaphthalenecarboxaldehyde;NSC 2104;NSC 402586;2-Hydroxy-1-naphthalenealdehyde;1-Formylnaphthalen-2-ol;2-Hydroxy-1-formylnaphthalene;2-Hydroxynaphthyl-1-carboxaldehyde",
    "duplicated_cas_no": "",
    "SMILES": "C(=O)C=1C2=C(C=CC1O)C=CC=C2",
    "meta_data": {
        "InChI": "InChI=1S/C11H8O2/c12-7-10-9-4-2-1-3-8(9)5-6-11(10)13/h1-7,13H",
        "InChIKey": null,
        "Canonical SMILES": "O=CC1=C(O)C=CC=2C=CC=CC21",
        "Molecular Formula": "C<sub>11</sub>H<sub>8</sub>O<sub>2</sub>",
        "Molecular Mass": "172.18",
        "Boiling Point": "185-187 °C @ Press: 25-27 Torr",
        "Melting Point": "83 °C",
        "Density": "1.41 g/cm³"
    }
}