{
    "cas_no": "1122-72-1",
    "key_name": "6-Methyl-2-pyridinecarboxaldehyde",
    "cn_name": "6-甲基-2-吡啶甲醛;",
    "alternate_name": "2-Pyridinecarboxaldehyde, 6-methyl-;Picolinaldehyde, 6-methyl-;6-Methyl-2-pyridinecarboxaldehyde;6-Methyl-2-picolinaldehyde;6-Methylpicolinaldehyde;2-Methyl-6-pyridinecarboxaldehyde;6-Methylpyridine-2-aldehyde;2-Formyl-6-methylpyridine;6-Methyl-2-pyridinecarbaldehyde;NSC 8954;6-Methylpyridine-2-carboxaldehyde;6-Methyl-2-formylpyridine",
    "duplicated_cas_no": "",
    "SMILES": "C(=O)C=1N=C(C)C=CC1",
    "meta_data": {
        "InChI": "InChI=1S/C7H7NO/c1-6-3-2-4-7(5-9)8-6/h2-5H,1H3",
        "InChIKey": null,
        "Canonical SMILES": "O=CC=1N=C(C=CC1)C",
        "Molecular Formula": "C<sub>7</sub>H<sub>7</sub>NO",
        "Molecular Mass": "121.14",
        "Boiling Point": "77-78 °C @ Press: 12 Torr",
        "Melting Point": "30 °C"
    }
}