{
    "cas_no": "2752-99-0",
    "key_name": "1,1′,1′′-(1,2,3-Propanetriyl) tri-(13<em>Z</em>)-13-docosenoate",
    "cn_name": "三芥精;",
    "alternate_name": "13-Docosenoic acid, 1,1′,1′′-(1,2,3-propanetriyl) ester, (13<em>Z</em>,13′<em>Z</em>,13′′<em>Z</em>)-;13-Docosenoin, tri-, (<em>Z</em>,<em>Z</em>,<em>Z</em>)-;13-Docosenoic acid, 1,2,3-propanetriyl ester, (<em>Z</em>,<em>Z</em>,<em>Z</em>)-;Erucin, tri-;13-Docosenoic acid, 1,2,3-propanetriyl ester, (13<em>Z</em>,13′<em>Z</em>,13′′<em>Z</em>)-;1,1′,1′′-(1,2,3-Propanetriyl) tri-(13<em>Z</em>)-13-docosenoate;Trierucin;Glyceryl trierucate;Erucic acid triglyceride;Lorenzo oil;Lorenzo's oil;Glycerol trierucate;(<em>Z</em>)-13-Docosenoic acid triglyceride;Tri(<em>Z</em>-13-docosenoyl)glycerol",
    "duplicated_cas_no": "",
    "SMILES": "C(OC(CCCCCCCCCCC/C=C\\CCCCCCCC)=O)(COC(CCCCCCCCCCC/C=C\\CCCCCCCC)=O)COC(CCCCCCCCCCC/C=C\\CCCCCCCC)=O",
    "meta_data": {
        "InChI": "InChI=1S/C69H128O6/c1-4-7-10-13-16-19-22-25-28-31-34-37-40-43-46-49-52-55-58-61-67(70)73-64-66(75-69(72)63-60-57-54-51-48-45-42-39-36-33-30-27-24-21-18-15-12-9-6-3)65-74-68(71)62-59-56-53-50-47-44-41-38-35-32-29-26-23-20-17-14-11-8-5-2/h25-30,66H,4-24,31-65H2,1-3H3/b28-25-,29-26-,30-27-",
        "InChIKey": null,
        "Canonical SMILES": "O=C(OCC(OC(=O)CCCCCCCCCCCC=CCCCCCCCC)COC(=O)CCCCCCCCCCCC=CCCCCCCCC)CCCCCCCCCCCC=CCCCCCCCC",
        "Molecular Formula": "C<sub>69</sub>H<sub>128</sub>O<sub>6</sub>",
        "Molecular Mass": "1053.75",
        "Melting Point": "31.5-32 °C"
    }
}