{
    "cas_no": "55967-52-7",
    "key_name": "1-Ethenyl-1,1,3,3-tetramethyldisiloxane",
    "cn_name": null,
    "alternate_name": "Disiloxane, 1-ethenyl-1,1,3,3-tetramethyl-;1-Ethenyl-1,1,3,3-tetramethyldisiloxane;1,1,3,3-Tetramethyl-1-vinyldisiloxane;1-Vinyl-1,1,3,3-tetramethyldisiloxane;[(Dimethylsilyl)oxy](ethenyl)dimethylsilane",
    "duplicated_cas_no": "",
    "SMILES": "O([Si](C=C)(C)C)[SiH](C)C",
    "meta_data": {
        "InChI": "InChI=1S/C6H16OSi2/c1-6-9(4,5)7-8(2)3/h6,8H,1H2,2-5H3",
        "InChIKey": null,
        "Canonical SMILES": "O([SiH](C)C)[Si](C=C)(C)C",
        "Molecular Formula": "C<sub>6</sub>H<sub>16</sub>OSi<sub>2</sub>",
        "Molecular Mass": "160.36",
        "Boiling Point": "57 °C @ Press: 130 Torr",
        "Density": "0.784 g/cm³"
    }
}