{
    "cas_no": "21161-11-5",
    "key_name": "2-Nitro-1,3-benzenedicarboxylic acid",
    "cn_name": null,
    "alternate_name": "1,3-Benzenedicarboxylic acid, 2-nitro-;2-Nitro-1,3-benzenedicarboxylic acid;2-Nitroisophthalic acid;3-Carboxy-2-nitrobenzoic acid;2,6-Dicarboxy-1-nitrobenzene",
    "duplicated_cas_no": "",
    "SMILES": "N(=O)(=O)C1=C(C(O)=O)C=CC=C1C(O)=O",
    "meta_data": {
        "InChI": "InChI=1S/C8H5NO6/c10-7(11)4-2-1-3-5(8(12)13)6(4)9(14)15/h1-3H,(H,10,11)(H,12,13)",
        "InChIKey": null,
        "Canonical SMILES": "O=C(O)C1=CC=CC(C(=O)O)=C1N(=O)=O",
        "Molecular Formula": "C<sub>8</sub>H<sub>5</sub>NO<sub>6</sub>",
        "Molecular Mass": "211.13",
        "Melting Point": "300 °C"
    }
}