{
    "cas_no": "22042-79-1",
    "key_name": "3,5-Dimethyl-1-phenyl-1<em>H</em>-pyrazole-4-carboxaldehyde",
    "cn_name": "3,5-二甲基-1苯基吡唑-4-噻吩甲醛;3,5-二甲基-1-苯基吡唑-4-噻吩甲醛;",
    "alternate_name": "1<em>H</em>-Pyrazole-4-carboxaldehyde, 3,5-dimethyl-1-phenyl-;Pyrazole-4-carboxaldehyde, 3,5-dimethyl-1-phenyl-;3,5-Dimethyl-1-phenyl-1<em>H</em>-pyrazole-4-carboxaldehyde;3,5-Dimethyl-1-phenylpyrazole-4-carboxaldehyde;3,5-Dimethyl-1-phenyl-4-formylpyrazole;3,5-Dimethyl-1-phenyl-1<em>H</em>-pyrazole-4-carbaldehyde;3,5-Dimethyl-1-phenylpyrazole-4-carbaldehyde",
    "duplicated_cas_no": "",
    "SMILES": "CC=1N(N=C(C)C1C=O)C2=CC=CC=C2",
    "meta_data": {
        "InChI": "InChI=1S/C12H12N2O/c1-9-12(8-15)10(2)14(13-9)11-6-4-3-5-7-11/h3-8H,1-2H3",
        "InChIKey": null,
        "Canonical SMILES": "O=CC=1C(=NN(C=2C=CC=CC2)C1C)C",
        "Molecular Formula": "C<sub>12</sub>H<sub>12</sub>N<sub>2</sub>O",
        "Molecular Mass": "200.24",
        "Boiling Point": "170 °C @ Press: 1 mmHg",
        "Melting Point": "128 °C"
    }
}