{
    "cas_no": "731-27-1",
    "key_name": "Tolylfluanid",
    "cn_name": "N-(二氯氟甲)硫基-N-对甲苯基-N\",N\"-二甲基硫酰二胺;",
    "alternate_name": "Methanesulfenamide, 1,1-dichloro-<em>N</em>-[(dimethylamino)sulfonyl]-1-fluoro-<em>N</em>-(4-methylphenyl)-;Sulfamide, <em>N</em>-[(dichlorofluoromethyl)thio]-<em>N</em>′,<em>N</em>′-dimethyl-<em>N</em>-<em>p</em>-tolyl-;1,1-Dichloro-<em>N</em>-[(dimethylamino)sulfonyl]-1-fluoro-<em>N</em>-(4-methylphenyl)methanesulfenamide;Euparen M;Bayer 5712a;BAY 5712a;Tolylfluanid;Dichlofluanid-methyl;Tolilfluanide;Melody Multi;Euparen Multi;<em>N</em>-Dichlorofluoromethylthio-<em>N</em>′,<em>N</em>′-dimethyl-<em>N</em>-<em>p</em>-tolylsulfamide;Tolylfluanide;GORI 28;<em>N</em>′-Dichlorofluoromethylthio-<em>N</em>,<em>N</em>-dimethyl-<em>N</em>′(<em>p</em>-tolyl)sulfamide;Preventol A 5S;<em>N</em>,<em>N</em>-Dimethyl-<em>N</em>′-tolyl-<em>N</em>′-(fluorodichloromethylthio)sulfamide",
    "duplicated_cas_no": "1135443-50-3",
    "SMILES": "N(S(N(C)C)(=O)=O)(SC(Cl)(Cl)F)C1=CC=C(C)C=C1",
    "meta_data": {
        "InChI": "InChI=1S/C10H13Cl2FN2O2S2/c1-8-4-6-9(7-5-8)15(18-10(11,12)13)19(16,17)14(2)3/h4-7H,1-3H3",
        "InChIKey": null,
        "Canonical SMILES": "O=S(=O)(N(SC(F)(Cl)Cl)C1=CC=C(C=C1)C)N(C)C",
        "Molecular Formula": "C<sub>10</sub>H<sub>13</sub>Cl<sub>2</sub>FN<sub>2</sub>O<sub>2</sub>S<sub>2</sub>",
        "Molecular Mass": "347.26",
        "Melting Point": "96 °C"
    }
}