{
    "cas_no": "3002-23-1",
    "key_name": "6-Methyl-2,4-heptanedione",
    "cn_name": "6-甲基庚烷-2,4-二酮;6-甲基-2,4-庚二酮;6-甲基庚烷-2,4雙酮;6-甲基庚烷-2,4-二酮, 98+%;6-甲基庚烷-2,4酮;",
    "alternate_name": "2,4-Heptanedione, 6-methyl-;6-Methyl-2,4-heptanedione;Isovalerylacetone;2-Methyl-4,6-heptanedione;NSC 42238;NSC 42240;NSC 46469;NSC 94",
    "duplicated_cas_no": "",
    "SMILES": "C(C(CC(C)=O)=O)C(C)C",
    "meta_data": {
        "InChI": "InChI=1S/C8H14O2/c1-6(2)4-8(10)5-7(3)9/h6H,4-5H2,1-3H3",
        "InChIKey": null,
        "Canonical SMILES": "O=C(C)CC(=O)CC(C)C",
        "Molecular Formula": "C<sub>8</sub>H<sub>14</sub>O<sub>2</sub>",
        "Molecular Mass": "142.20",
        "Boiling Point": "97-100 °C @ Press: 50 Torr",
        "Density": "0.9203 g/cm³ @ Temp: 20 °C"
    }
}