{
    "cas_no": "590-28-3",
    "key_name": "Potassium cyanate",
    "cn_name": "氰酸钾;",
    "alternate_name": "Cyanic acid, potassium salt (1:1);Cyanic acid, potassium salt;Aero Cyanate;Potassium cyanate;Alicyanate;Bulpur;Isocyanic acid potassium salt;Potassium isocyanate;Potassium cyanate (KCNO)",
    "duplicated_cas_no": "15586-00-2;40750-90-1;1314977-56-4",
    "SMILES": "C(#N)O.[K]",
    "meta_data": {
        "InChI": "InChI=1S/CHNO.K/c2-1-3;/h3H;",
        "InChIKey": null,
        "Canonical SMILES": "[K].N#CO",
        "Molecular Formula": "CHNO.K",
        "Molecular Mass": "",
        "Melting Point": "315 °C",
        "Density": "2.056 g/cm³"
    }
}