{
    "cas_no": "4606-07-9",
    "key_name": "Ethyl cyclopropanecarboxylate",
    "cn_name": "环丙基甲酸乙酯;",
    "alternate_name": "Cyclopropanecarboxylic acid, ethyl ester;Ethyl cyclopropanecarboxylate;Ethyl cyclopropylcarboxylate;NSC 60696",
    "duplicated_cas_no": "",
    "SMILES": "C(OCC)(=O)C1CC1",
    "meta_data": {
        "InChI": "InChI=1S/C6H10O2/c1-2-8-6(7)5-3-4-5/h5H,2-4H2,1H3",
        "InChIKey": null,
        "Canonical SMILES": "O=C(OCC)C1CC1",
        "Molecular Formula": "C<sub>6</sub>H<sub>10</sub>O<sub>2</sub>",
        "Molecular Mass": "114.14",
        "Boiling Point": "134 °C",
        "Density": "0.970 g/cm³"
    }
}