{
    "cas_no": "557-21-1",
    "key_name": "Zinc cyanide",
    "cn_name": "氰化锌;",
    "alternate_name": "Zinc cyanide (Zn(CN)<sub>2</sub>);Zinc cyanide;Zinc dicyanide;Dicyanozinc",
    "duplicated_cas_no": "",
    "SMILES": "[Zn](C#N)C#N",
    "meta_data": {
        "InChI": "InChI=1S/2CN.Zn/c2*1-2;",
        "InChIKey": null,
        "Canonical SMILES": "N#C[Zn]C#N",
        "Molecular Formula": "C<sub>2</sub>N<sub>2</sub>Zn",
        "Molecular Mass": "",
        "Melting Point": "800 °C (decomp)",
        "Density": "1.852 g/cm³ @ Temp: 20 °C"
    }
}