{
    "cas_no": "62-74-8",
    "key_name": "Sodium fluoroacetate",
    "cn_name": "氟乙酸钠;",
    "alternate_name": "Acetic acid, 2-fluoro-, sodium salt (1:1);Acetic acid, fluoro-, sodium salt;1080;Fluoroacetic acid sodium salt;Sodium fluoroacetate;Sodium monofluoroacetate;Furatol;Compound 1080;Ratbane 1080;SMFA;Fratol;Tenate",
    "duplicated_cas_no": "1081840-06-3",
    "SMILES": "C(CF)(O)=O.[Na]",
    "meta_data": {
        "InChI": "InChI=1S/C2H3FO2.Na/c3-1-2(4)5;/h1H2,(H,4,5);",
        "InChIKey": null,
        "Canonical SMILES": "[Na].O=C(O)CF",
        "Molecular Formula": "C<sub>2</sub>H<sub>3</sub>FO<sub>2</sub>.Na",
        "Molecular Mass": "",
        "Melting Point": "201 °C"
    }
}