{
    "cas_no": "34643-46-4",
    "key_name": "Prothiofos",
    "cn_name": "丙硫磷;二硫代磷酸-O-(2,4-二氯苯基)-O-乙基-S-丙酯;",
    "alternate_name": "Phosphorodithioic acid, <em>O</em>-(2,4-dichlorophenyl) <em>O</em>-ethyl <em>S</em>-propyl ester;Tokuthion;BAY-NTN 8629;Prothiophos;Prothiofos;Toyodan;Dichlorpropaphos",
    "duplicated_cas_no": "64772-54-9",
    "SMILES": "O(P(SCCC)(OCC)=S)C1=C(Cl)C=C(Cl)C=C1",
    "meta_data": {
        "InChI": "InChI=1S/C11H15Cl2O2PS2/c1-3-7-18-16(17,14-4-2)15-11-6-5-9(12)8-10(11)13/h5-6,8H,3-4,7H2,1-2H3",
        "InChIKey": null,
        "Canonical SMILES": "S=P(OC1=CC=C(Cl)C=C1Cl)(OCC)SCCC",
        "Molecular Formula": "C<sub>11</sub>H<sub>15</sub>Cl<sub>2</sub>O<sub>2</sub>PS<sub>2</sub>",
        "Molecular Mass": "345.25",
        "Boiling Point": "126.5 °C",
        "Melting Point": "&lt;25 °C"
    }
}