{
    "cas_no": "76-61-9",
    "key_name": "Thymol blue",
    "cn_name": "百里酚蓝;麝香草酚兰;",
    "alternate_name": "Phenol, 4,4′-(1,1-dioxido-3<em>H</em>-2,1-benzoxathiol-3-ylidene)bis[5-methyl-2-(1-methylethyl)-;Thymolsulfonephthalein;Thymol, 6,6′-(3<em>H</em>-2,1-benzoxathiol-3-ylidene)di-, <em>S</em>,<em>S</em>-dioxide;Phenol, 4,4′-(3<em>H</em>-2,1-benzoxathiol-3-ylidene)bis[5-methyl-2-(1-methylethyl)-, <em>S</em>,<em>S</em>-dioxide;3<em>H</em>-2,1-Benzoxathiole, phenol deriv.;4,4′-(1,1-Dioxido-3<em>H</em>-2,1-benzoxathiol-3-ylidene)bis[5-methyl-2-(1-methylethyl)phenol];Thymol blue;Thymolsulfophthalein;NSC 11238",
    "duplicated_cas_no": "2877-93-2;18611-66-0;313494-17-6;354556-94-8;384814-32-8;400864-47-3;405271-03-6;551921-90-5;672309-78-3;720671-81-8;264233-99-0",
    "SMILES": "CC=1C(C2(C=3C(S(=O)(=O)O2)=CC=CC3)C4=CC(C(C)C)=C(O)C=C4C)=CC(C(C)C)=C(O)C1",
    "meta_data": {
        "InChI": "InChI=1S/C27H30O5S/c1-15(2)19-13-22(17(5)11-24(19)28)27(21-9-7-8-10-26(21)33(30,31)32-27)23-14-20(16(3)4)25(29)12-18(23)6/h7-16,28-29H,1-6H3",
        "InChIKey": null,
        "Canonical SMILES": "O=S1(=O)OC(C2=CC(=C(O)C=C2C)C(C)C)(C3=CC(=C(O)C=C3C)C(C)C)C=4C=CC=CC41",
        "Molecular Formula": "C<sub>27</sub>H<sub>30</sub>O<sub>5</sub>S",
        "Molecular Mass": "466.59",
        "Melting Point": "223 °C (decomp)"
    }
}