{
    "cas_no": "615-58-7",
    "key_name": "2,4-Dibromophenol",
    "cn_name": "2,4-二溴苯酚;",
    "alternate_name": "Phenol, 2,4-dibromo-;2,4-Dibromophenol;NSC 5723;NSC 6213",
    "duplicated_cas_no": "",
    "SMILES": "BrC1=C(O)C=CC(Br)=C1",
    "meta_data": {
        "InChI": "InChI=1S/C6H4Br2O/c7-4-1-2-6(9)5(8)3-4/h1-3,9H",
        "InChIKey": null,
        "Canonical SMILES": "BrC1=CC=C(O)C(Br)=C1",
        "Molecular Formula": "C<sub>6</sub>H<sub>4</sub>Br<sub>2</sub>O",
        "Molecular Mass": "251.90",
        "Boiling Point": "238.5 °C",
        "Melting Point": "38 °C"
    }
}