{
    "cas_no": "2588-04-7",
    "key_name": "Phorate sulfone",
    "cn_name": "四拌磷砜;四拌磷砜Phorat-sulfone;",
    "alternate_name": "Phosphorodithioic acid, <em>O</em>,<em>O</em>-diethyl <em>S</em>-[(ethylsulfonyl)methyl] ester;Phosphorodithioic acid, <em>O</em>,<em>O</em>-diethyl (ethylsulfonyl)methyl ester;Methanethiol, (ethylsulfonyl)-, <em>S</em>-ester with <em>O</em>,<em>O</em>-diethyl phosphorodithioate;<em>O</em>,<em>O</em>-Diethyl <em>S</em>-ethylsulfonylmethyl phosphorodithioate;<em>O</em>,<em>O</em>-Diethyl <em>S</em>-ethylsulfonylmethyl thionophosphate;Phorate sulfone",
    "duplicated_cas_no": "",
    "SMILES": "P(SCS(CC)(=O)=O)(OCC)(OCC)=S",
    "meta_data": {
        "InChI": "InChI=1S/C7H17O4PS3/c1-4-10-12(13,11-5-2)14-7-15(8,9)6-3/h4-7H2,1-3H3",
        "InChIKey": null,
        "Canonical SMILES": "O=S(=O)(CSP(=S)(OCC)OCC)CC",
        "Molecular Formula": "C<sub>7</sub>H<sub>17</sub>O<sub>4</sub>PS<sub>3</sub>",
        "Molecular Mass": "292.38",
        "Boiling Point": "150 °C @ Press: 0.1 Torr"
    }
}