{
    "cas_no": "91-20-3",
    "key_name": "Naphthalene",
    "cn_name": "萘;精萘;骈苯;并苯;粗萘;环烷;萘丸;煤焦油脑;",
    "alternate_name": "Naphthalene;Moth flakes;Tar camphor;White tar;Albocarbon;Dezodorator;Naphthene;NSC 37565",
    "duplicated_cas_no": "72931-45-4",
    "SMILES": "C12=C(C=CC=C1)C=CC=C2",
    "meta_data": {
        "InChI": "InChI=1S/C10H8/c1-2-6-10-8-4-3-7-9(10)5-1/h1-8H",
        "InChIKey": null,
        "Canonical SMILES": "C=1C=CC=2C=CC=CC2C1",
        "Molecular Formula": "C<sub>10</sub>H<sub>8</sub>",
        "Molecular Mass": "128.17",
        "Boiling Point": "217.9 °C @ Press: 760 Torr",
        "Melting Point": "80.2 °C",
        "Density": "1.162 g/cm³ @ Temp: 20 °C"
    }
}