{
    "cas_no": "68085-85-8",
    "key_name": "Cyhalothrin",
    "cn_name": null,
    "alternate_name": "Cyclopropanecarboxylic acid, 3-(2-chloro-3,3,3-trifluoro-1-propen-1-yl)-2,2-dimethyl-, cyano(3-phenoxyphenyl)methyl ester;Cyclopropanecarboxylic acid, 3-(2-chloro-3,3,3-trifluoro-1-propenyl)-2,2-dimethyl-, cyano(3-phenoxyphenyl)methyl ester;Cyhalothrin;ICI-PP 563;PP 563;Grenade;Saber;α-Cyano-3-phenoxybenzyl 3-(2-chloro-3,3,3-trifluoroprop-1-en-1-yl)-2,2-dimethylcyclopropanecarboxylate;Clocythrin;Gongfu;Coopertix;α-Cyhalothrin;Cyhalothrin-tea saponin mixt.",
    "duplicated_cas_no": "149436-99-7;255725-86-1",
    "SMILES": "C(=C(C(F)(F)F)Cl)C1C(C(OC(C#N)C2=CC(OC3=CC=CC=C3)=CC=C2)=O)C1(C)C",
    "meta_data": {
        "InChI": "InChI=1S/C23H19ClF3NO3/c1-22(2)17(12-19(24)23(25,26)27)20(22)21(29)31-18(13-28)14-7-6-10-16(11-14)30-15-8-4-3-5-9-15/h3-12,17-18,20H,1-2H3",
        "InChIKey": null,
        "Canonical SMILES": "N#CC(OC(=O)C1C(C=C(Cl)C(F)(F)F)C1(C)C)C=2C=CC=C(OC=3C=CC=CC3)C2",
        "Molecular Formula": "C<sub>23</sub>H<sub>19</sub>ClF<sub>3</sub>NO<sub>3</sub>",
        "Molecular Mass": "449.85",
        "Boiling Point": "187-190 °C @ Press: 0.2 Torr",
        "Melting Point": "&lt;10 °C",
        "Density": "1.25 g/cm³ @ Temp: 25 °C"
    }
}