{
    "cas_no": "880468-89-3",
    "key_name": "1,1-Dimethylethyl <em>N</em>-[(1<em>R</em>)-1-(methoxymethyl)-2-oxo-2-[(phenylmethyl)amino]ethyl]carbamate",
    "cn_name": null,
    "alternate_name": "Carbamic acid, <em>N</em>-[(1<em>R</em>)-1-(methoxymethyl)-2-oxo-2-[(phenylmethyl)amino]ethyl]-, 1,1-dimethylethyl ester;Carbamic acid, [(1<em>R</em>)-1-(methoxymethyl)-2-oxo-2-[(phenylmethyl)amino]ethyl]-, 1,1-dimethylethyl ester;1,1-Dimethylethyl <em>N</em>-[(1<em>R</em>)-1-(methoxymethyl)-2-oxo-2-[(phenylmethyl)amino]ethyl]carbamate;(<em>R</em>)-<em>N</em>-Benzyl-2-(<em>tert</em>-butoxycarbonylamino)-3-methoxypropionamide;<em>tert</em>-Butyl [(2<em>R</em>)-1-(benzylamino)-3-methoxy-1-oxopropan-2-yl]carbamate;(R)-<em>tert</em>-Butyl 1-(benzylamino)-3-methoxy-1-oxopropan-2-ylcarbamate;(R)-<em>tert</em>-Butyl1-(benzylamino)-3-methoxy-1-oxopropan-2-ylcarbamate",
    "duplicated_cas_no": "",
    "SMILES": "[C@@H](C(NCC1=CC=CC=C1)=O)(NC(OC(C)(C)C)=O)COC",
    "meta_data": {
        "InChI": "InChI=1S/C16H24N2O4/c1-16(2,3)22-15(20)18-13(11-21-4)14(19)17-10-12-8-6-5-7-9-12/h5-9,13H,10-11H2,1-4H3,(H,17,19)(H,18,20)/t13-/m1/s1",
        "InChIKey": null,
        "Canonical SMILES": "O=C(OC(C)(C)C)NC(C(=O)NCC=1C=CC=CC1)COC",
        "Molecular Formula": "C<sub>16</sub>H<sub>24</sub>N<sub>2</sub>O<sub>4</sub>",
        "Molecular Mass": "308.37",
        "Melting Point": "63-64 °C"
    }
}