{
    "cas_no": "85815-37-8",
    "key_name": "1<em>H</em>-1,2,4-Triazole-3-carboxamide, 5-[[(2-aminoacetyl)amino]methyl]-1-[4-chloro-2-(2-chlorobenzoyl)phenyl]-<em>N</em>,<em>N</em>-dimethyl-, hydrochloride (1:1)",
    "cn_name": null,
    "alternate_name": "1<em>H</em>-1,2,4-Triazole-3-carboxamide, 5-[[(2-aminoacetyl)amino]methyl]-1-[4-chloro-2-(2-chlorobenzoyl)phenyl]-<em>N</em>,<em>N</em>-dimethyl-, hydrochloride (1:1);1<em>H</em>-1,2,4-Triazole-3-carboxamide, 5-[[(aminoacetyl)amino]methyl]-1-[4-chloro-2-(2-chlorobenzoyl)phenyl]-<em>N</em>,<em>N</em>-dimethyl-, monohydrochloride;450191S",
    "duplicated_cas_no": "89233-59-0",
    "SMILES": "C(NC(CN)=O)C=1N(N=C(C(N(C)C)=O)N1)C2=C(C(=O)C3=C(Cl)C=CC=C3)C=C(Cl)C=C2.Cl",
    "meta_data": {
        "InChI": "InChI=1S/C21H20Cl2N6O3.ClH/c1-28(2)21(32)20-26-17(11-25-18(30)10-24)29(27-20)16-8-7-12(22)9-14(16)19(31)13-5-3-4-6-15(13)23;/h3-9H,10-11,24H2,1-2H3,(H,25,30);1H",
        "InChIKey": null,
        "Canonical SMILES": "Cl.O=C(C=1C=CC=CC1Cl)C2=CC(Cl)=CC=C2N3N=C(N=C3CNC(=O)CN)C(=O)N(C)C",
        "Molecular Formula": "C<sub>21</sub>H<sub>20</sub>Cl<sub>2</sub>N<sub>6</sub>O<sub>3</sub>.ClH",
        "Molecular Mass": "",
        "Melting Point": "107 °C"
    }
}