{
    "cas_no": "5330-38-1",
    "key_name": "5-Chloro-2-hydroxybenzenemethanol",
    "cn_name": "5-氯-2-羟基苯甲醇;",
    "alternate_name": "Benzenemethanol, 5-chloro-2-hydroxy-;Benzyl alcohol, 5-chloro-2-hydroxy-;Saligenin, 5-chloro-;5-Chloro-2-hydroxybenzenemethanol;5-Chloro-2-hydroxybenzyl alcohol;5-Chlorosalicyl alcohol;4-Chloro-2-(hydroxymethyl)phenol;5-Chlorosaligenin;NSC 2468",
    "duplicated_cas_no": "",
    "SMILES": "C(O)C1=C(O)C=CC(Cl)=C1",
    "meta_data": {
        "InChI": "InChI=1S/C7H7ClO2/c8-6-1-2-7(10)5(3-6)4-9/h1-3,9-10H,4H2",
        "InChIKey": null,
        "Canonical SMILES": "ClC1=CC=C(O)C(=C1)CO",
        "Molecular Formula": "C<sub>7</sub>H<sub>7</sub>ClO<sub>2</sub>",
        "Molecular Mass": "158.58",
        "Melting Point": "93 °C"
    }
}