{
    "cas_no": "13596-35-5",
    "key_name": "Rhenium pentachloride",
    "cn_name": null,
    "alternate_name": "Rhenium chloride (ReCl<sub>5</sub>);Rhenium pentachloride;Rhenium(V) chloride",
    "duplicated_cas_no": "",
    "SMILES": "[Re](Cl)(Cl)(Cl)(Cl)Cl",
    "meta_data": {
        "InChI": "InChI=1S/5ClH.Re/h5*1H;/q;;;;;+5/p-5",
        "InChIKey": null,
        "Canonical SMILES": "Cl[Re](Cl)(Cl)(Cl)Cl",
        "Molecular Formula": "Cl<sub>5</sub>Re",
        "Molecular Mass": "",
        "Melting Point": "220 °C"
    }
}