{
    "cas_no": "54344-92-2",
    "key_name": "4-Methoxy-2,3,6-trimethylbenzaldehyde",
    "cn_name": "4-甲氧基-2,3,6-三甲基苯甲醛;",
    "alternate_name": "Benzaldehyde, 4-methoxy-2,3,6-trimethyl-;<em>p</em>-Anisaldehyde, 2,3,6-trimethyl-;4-Methoxy-2,3,6-trimethylbenzaldehyde;2,3,6-Trimethyl-4-methoxy-benzaldehyde",
    "duplicated_cas_no": "",
    "SMILES": "O(C)C1=C(C)C(C)=C(C=O)C(C)=C1",
    "meta_data": {
        "InChI": "InChI=1S/C11H14O2/c1-7-5-11(13-4)9(3)8(2)10(7)6-12/h5-6H,1-4H3",
        "InChIKey": null,
        "Canonical SMILES": "O=CC=1C(=CC(OC)=C(C1C)C)C",
        "Molecular Formula": "C<sub>11</sub>H<sub>14</sub>O<sub>2</sub>",
        "Molecular Mass": "178.23",
        "Melting Point": "50 °C"
    }
}