{
    "cas_no": "1190320-08-1",
    "key_name": "6-Fluoro-4-quinazolinamine",
    "cn_name": null,
    "alternate_name": "4-Quinazolinamine, 6-fluoro-;6-Fluoro-4-quinazolinamine",
    "duplicated_cas_no": "",
    "SMILES": "NC=1C2=C(C=CC(F)=C2)N=CN1",
    "meta_data": {
        "InChI": "InChI=1S/C8H6FN3/c9-5-1-2-7-6(3-5)8(10)12-4-11-7/h1-4H,(H2,10,11,12)",
        "InChIKey": null,
        "Canonical SMILES": "FC=1C=CC=2N=CN=C(N)C2C1",
        "Molecular Formula": "C<sub>8</sub>H<sub>6</sub>FN<sub>3</sub>",
        "Molecular Mass": "163.15",
        "Melting Point": "329 °C"
    }
}