{
    "cas_no": "116496-76-5",
    "key_name": "<em>N</em>-(2-Ethoxy-4-nitrophenyl)acetamide",
    "cn_name": null,
    "alternate_name": "Acetamide, <em>N</em>-(2-ethoxy-4-nitrophenyl)-;<em>N</em>-(2-Ethoxy-4-nitrophenyl)acetamide;4-Acetamido-3-ethoxynitrobenzene;4-Acetamido-3-ethoxy-1-nitrobenzene",
    "duplicated_cas_no": "",
    "SMILES": "O(CC)C1=C(NC(C)=O)C=CC(N(=O)=O)=C1",
    "meta_data": {
        "InChI": "InChI=1S/C10H12N2O4/c1-3-16-10-6-8(12(14)15)4-5-9(10)11-7(2)13/h4-6H,3H2,1-2H3,(H,11,13)",
        "InChIKey": null,
        "Canonical SMILES": "O=C(NC1=CC=C(C=C1OCC)N(=O)=O)C",
        "Molecular Formula": "C<sub>10</sub>H<sub>12</sub>N<sub>2</sub>O<sub>4</sub>",
        "Molecular Mass": "224.21",
        "Melting Point": "164-165 °C"
    }
}