{
    "cas_no": "371-41-5",
    "key_name": "4-Fluorophenol",
    "cn_name": "4-氟苯酚;对氟苯酚;",
    "alternate_name": "Phenol, 4-fluoro-;Phenol, <em>p</em>-fluoro-;4-Fluorophenol;<em>p</em>-Fluorophenol;4-Hydroxyphenyl fluoride;NSC 10295",
    "duplicated_cas_no": "",
    "SMILES": "FC1=CC=C(O)C=C1",
    "meta_data": {
        "InChI": "InChI=1S/C6H5FO/c7-5-1-3-6(8)4-2-5/h1-4,8H",
        "InChIKey": null,
        "Canonical SMILES": "FC1=CC=C(O)C=C1",
        "Molecular Formula": "C<sub>6</sub>H<sub>5</sub>FO",
        "Molecular Mass": "112.10",
        "Boiling Point": "185.5 °C",
        "Melting Point": "48 °C"
    }
}