{
    "cas_no": "1327-36-2",
    "key_name": "Aluminatesilicate",
    "cn_name": null,
    "alternate_name": "Aluminatesilicate;Aluminosilicate;ASP 500;Maarlite EA 20;Maarlite BA 20;Taisetsu Balloon C;Taisetsu Balloon A;Taisetsu Balloon B;Kyowaad 700PH;Siralox 70/170HPV;MGH 005;MG 005",
    "duplicated_cas_no": "37316-70-4;39457-31-3;2933906-66-0",
    "SMILES": "",
    "meta_data": {
        "InChI": "",
        "InChIKey": null,
        "Canonical SMILES": "",
        "Molecular Formula": "Unspecified",
        "Molecular Mass": "",
        "Melting Point": "1480 °C"
    }
}