{
    "uri": "substance/pt/1327362",
    "rn": "1327-36-2",
    "name": "Aluminatesilicate",
    "images": [],
    "inchi": "",
    "inchiKey": "",
    "smile": "",
    "canonicalSmile": "",
    "molecularFormula": "Unspecified",
    "molecularMass": "",
    "experimentalProperties": [
        {
            "name": "Melting Point",
            "property": "1480 °C",
            "sourceNumber": 1
        }
    ],
    "propertyCitations": [
        {
            "docUri": "document/pt/document/19658300",
            "sourceNumber": 1,
            "source": "Panfilov, A. M.; Elektrokhimiya, (1974), 10(2), 258-63, CAplus"
        }
    ],
    "synonyms": [
        "Aluminatesilicate",
        "Aluminosilicate",
        "ASP 500",
        "Maarlite EA 20",
        "Maarlite BA 20",
        "Taisetsu Balloon C",
        "Taisetsu Balloon A",
        "Taisetsu Balloon B",
        "Kyowaad 700PH",
        "Siralox 70/170HPV",
        "MGH 005",
        "MG 005"
    ],
    "replacedRns": [
        "37316-70-4",
        "39457-31-3",
        "2933906-66-0"
    ],
    "hasMolfile": false,
    "source": "https://commonchemistry.cas.org/detail?cas_rn=1327-36-2"
}