{
    "cas_no": "2758-06-7",
    "key_name": "(2-Bromoethyl)trimethylammonium bromide",
    "cn_name": "(2-溴乙基)三甲基溴化铵;2-溴乙基三甲基溴化铵;",
    "alternate_name": "Ethanaminium, 2-bromo-<em>N</em>,<em>N</em>,<em>N</em>-trimethyl-, bromide (1:1);Ammonium, (2-bromoethyl)trimethyl-, bromide;Ethanaminium, 2-bromo-<em>N</em>,<em>N</em>,<em>N</em>-trimethyl-, bromide;(2-Bromoethyl)trimethylammonium bromide;Bromocholine bromide;BCB;BTAB;Trimethyl β-bromoethylammonium bromide;Bromcholin;Hypercyl;Kathesin;BCB (onium compound);2-Bromo-<em>N</em>,<em>N</em>,<em>N</em>-trimethylethanaminium bromide",
    "duplicated_cas_no": "",
    "SMILES": "C([N+](C)(C)C)CBr.[Br-]",
    "meta_data": {
        "InChI": "InChI=1S/C5H13BrN.BrH/c1-7(2,3)5-4-6;/h4-5H2,1-3H3;1H/q+1;/p-1",
        "InChIKey": null,
        "Canonical SMILES": "[Br-].BrCC[N+](C)(C)C",
        "Molecular Formula": "C<sub>5</sub>H<sub>13</sub>BrN.Br",
        "Molecular Mass": "",
        "Melting Point": "245-246 °C (decomp)"
    }
}