{
    "cas_no": "70693-47-9",
    "key_name": "1-Disiloxanol, 1,1,3,3,3-pentamethyl-, 1-acetate",
    "cn_name": null,
    "alternate_name": "1-Disiloxanol, 1,1,3,3,3-pentamethyl-, 1-acetate;Disiloxanol, pentamethyl-, acetate;Acetoxypentamethyldisiloxane;1-Acetoxy-1,1,3,3,3-pentamethyldisiloxane;<em>O</em>-Acetylpentamethyldisiloxanol;Pentamethyl-1-acetoxydisiloxane;1,1,1,3,3-Pentamethyl-3-acetoxydisiloxane;Dimethyl(trimethylsiloxy)silyl acetate;Acetic acid 1,1,3,3,3-pentamethyldisiloxan-1-yl ester;[Dimethyl(trimethylsilyloxy)silyl] acetate",
    "duplicated_cas_no": "",
    "SMILES": "O([Si](OC(C)=O)(C)C)[Si](C)(C)C",
    "meta_data": {
        "InChI": "InChI=1S/C7H18O3Si2/c1-7(8)9-12(5,6)10-11(2,3)4/h1-6H3",
        "InChIKey": null,
        "Canonical SMILES": "O=C(O[Si](O[Si](C)(C)C)(C)C)C",
        "Molecular Formula": "C<sub>7</sub>H<sub>18</sub>O<sub>3</sub>Si<sub>2</sub>",
        "Molecular Mass": "206.39",
        "Boiling Point": "149-150 °C",
        "Density": "0.900 g/cm³"
    }
}