{
    "cas_no": "4900-63-4",
    "key_name": "1-Methoxy-4-nitronaphthalene",
    "cn_name": null,
    "alternate_name": "Naphthalene, 1-methoxy-4-nitro-;1-Methoxy-4-nitronaphthalene;1-Nitro-4-methoxynaphthalene;Methyl 4-nitro-1-naphthyl ether;4-Methoxy-1-nitronaphthalene;NSC 65626",
    "duplicated_cas_no": "",
    "SMILES": "N(=O)(=O)C=1C2=C(C(OC)=CC1)C=CC=C2",
    "meta_data": {
        "InChI": "InChI=1S/C11H9NO3/c1-15-11-7-6-10(12(13)14)8-4-2-3-5-9(8)11/h2-7H,1H3",
        "InChIKey": null,
        "Canonical SMILES": "O=N(=O)C1=CC=C(OC)C=2C=CC=CC21",
        "Molecular Formula": "C<sub>11</sub>H<sub>9</sub>NO<sub>3</sub>",
        "Molecular Mass": "203.19",
        "Melting Point": "81 °C"
    }
}