{
    "cas_no": "6626-40-0",
    "key_name": "7,10-Dichloro-2-methoxybenzo[<em>b</em>]-1,5-naphthyridine",
    "cn_name": null,
    "alternate_name": "Benzo[<em>b</em>]-1,5-naphthyridine, 7,10-dichloro-2-methoxy-;Pyrido[3,2-<em>b</em>]quinoline, 7,10-dichloro-2-methoxy-;7,10-Dichloro-2-methoxybenzo[<em>b</em>]-1,5-naphthyridine;7,10-Dichloro-2-methoxypyrido[3,2-<em>b</em>]quinoline;NSC 59862",
    "duplicated_cas_no": "",
    "SMILES": "ClC1=C2C(=NC3=C1C=CC(Cl)=C3)C=CC(OC)=N2",
    "meta_data": {
        "InChI": "InChI=1S/C13H8Cl2N2O/c1-18-11-5-4-9-13(17-11)12(15)8-3-2-7(14)6-10(8)16-9/h2-6H,1H3",
        "InChIKey": null,
        "Canonical SMILES": "ClC=1C=CC2=C(Cl)C=3N=C(OC)C=CC3N=C2C1",
        "Molecular Formula": "C<sub>13</sub>H<sub>8</sub>Cl<sub>2</sub>N<sub>2</sub>O",
        "Molecular Mass": "279.12",
        "Melting Point": "186-187 °C"
    }
}