{
    "cas_no": "619-81-8",
    "key_name": "<em>cis</em>-1,4-Cyclohexanedicarboxylic acid",
    "cn_name": "顺式-1,4-环己二羧酸;",
    "alternate_name": "1,4-Cyclohexanedicarboxylic acid, <em>cis</em>-;<em>cis</em>-1,4-Cyclohexanedicarboxylic acid;<em>cis</em>-Hexahydroterephthalic acid;1,4-<em>cis</em>-Cyclohexanedicarboxylic acid",
    "duplicated_cas_no": "",
    "SMILES": "C(O)(=O)[C@H]1CC[C@@H](C(O)=O)CC1",
    "meta_data": {
        "InChI": "InChI=1/C8H12O4/c9-7(10)5-1-2-6(4-3-5)8(11)12/h5-6H,1-4H2,(H,9,10)(H,11,12)/t5-,6+",
        "InChIKey": null,
        "Canonical SMILES": "O=C(O)C1CCC(C(=O)O)CC1",
        "Molecular Formula": "C<sub>8</sub>H<sub>12</sub>O<sub>4</sub>",
        "Molecular Mass": "172.18",
        "Melting Point": "168-170 °C"
    }
}