{
    "cas_no": "20440-93-1",
    "key_name": "4-Nitro-<em>N</em>,<em>N</em>-bis(4-nitrophenyl)benzenamine",
    "cn_name": "三(4-硝基苯基)胺;",
    "alternate_name": "Benzenamine, 4-nitro-<em>N</em>,<em>N</em>-bis(4-nitrophenyl)-;Triphenylamine, 4,4′,4′′-trinitro-;4-Nitro-<em>N</em>,<em>N</em>-bis(4-nitrophenyl)benzenamine;Tris(<em>p</em>-nitrophenyl)amine;Tri(<em>p</em>-nitrophenyl)amine;Tris(4-nitrophenyl)amine;Tri(4-nitrophenyl)amine;4,4′,4′′-Trinitrotriphenylamine",
    "duplicated_cas_no": "",
    "SMILES": "N(C1=CC=C(N(=O)=O)C=C1)(C2=CC=C(N(=O)=O)C=C2)C3=CC=C(N(=O)=O)C=C3",
    "meta_data": {
        "InChI": "InChI=1S/C18H12N4O6/c23-20(24)16-7-1-13(2-8-16)19(14-3-9-17(10-4-14)21(25)26)15-5-11-18(12-6-15)22(27)28/h1-12H",
        "InChIKey": null,
        "Canonical SMILES": "O=N(=O)C1=CC=C(C=C1)N(C2=CC=C(C=C2)N(=O)=O)C3=CC=C(C=C3)N(=O)=O",
        "Molecular Formula": "C<sub>18</sub>H<sub>12</sub>N<sub>4</sub>O<sub>6</sub>",
        "Molecular Mass": "380.31",
        "Melting Point": "349-350 °C"
    }
}