{
    "cas_no": "26657-95-4",
    "key_name": "Dipalmitin",
    "cn_name": null,
    "alternate_name": "Hexadecanoic acid, diester with 1,2,3-propanetriol;Palmitin, di-;Dipalmitin;Glyceryl dipalmitate;Glycerol dipalmitate;Dipalmitoylglycerol;Glycerin dipalmitate;Diacylglycerol(C16:0/C16:0)",
    "duplicated_cas_no": "1202865-04-0",
    "SMILES": "",
    "meta_data": {
        "InChI": "",
        "InChIKey": null,
        "Canonical SMILES": "",
        "Molecular Formula": "C<sub>35</sub>H<sub>68</sub>O<sub>5</sub>",
        "Molecular Mass": "",
        "Melting Point": "71.8 °C"
    }
}