{
    "cas_no": "505-34-0",
    "key_name": "Cheirolin",
    "cn_name": null,
    "alternate_name": "Propane, 1-isothiocyanato-3-(methylsulfonyl)-;Isothiocyanic acid, 3-(methylsulfonyl)propyl ester;Cheirolin;1-Isothiocyanato-3-(methylsulfonyl)propane;Methylpropylsulfone mustard oil;Cheiroline;1-Isothiocyanato-3-methanesulfonylpropane",
    "duplicated_cas_no": "",
    "SMILES": "C(CS(C)(=O)=O)CN=C=S",
    "meta_data": {
        "InChI": "InChI=1S/C5H9NO2S2/c1-10(7,8)4-2-3-6-5-9/h2-4H2,1H3",
        "InChIKey": null,
        "Canonical SMILES": "O=S(=O)(C)CCCN=C=S",
        "Molecular Formula": "C<sub>5</sub>H<sub>9</sub>NO<sub>2</sub>S<sub>2</sub>",
        "Molecular Mass": "179.26",
        "Melting Point": "47.5 °C"
    }
}