{
    "cas_no": "25641-99-0",
    "key_name": "1,2-Bis(dichloromethyl)benzene",
    "cn_name": "四氯邻二甲苯;",
    "alternate_name": "Benzene, 1,2-bis(dichloromethyl)-;<em>o</em>-Xylene, α,α,α′,α′-tetrachloro-;1,2-Bis(dichloromethyl)benzene;α,α,α′,α′-Tetrachloro-<em>o</em>-xylene",
    "duplicated_cas_no": "",
    "SMILES": "C(Cl)(Cl)C1=C(C(Cl)Cl)C=CC=C1",
    "meta_data": {
        "InChI": "InChI=1S/C8H6Cl4/c9-7(10)5-3-1-2-4-6(5)8(11)12/h1-4,7-8H",
        "InChIKey": null,
        "Canonical SMILES": "ClC(Cl)C=1C=CC=CC1C(Cl)Cl",
        "Molecular Formula": "C<sub>8</sub>H<sub>6</sub>Cl<sub>4</sub>",
        "Molecular Mass": "243.95",
        "Melting Point": "90 °C"
    }
}