{
    "cas_no": "56683-54-6",
    "key_name": "(<em>Z</em>)-11-Hexadecenol",
    "cn_name": "顺式-11-十六烯-1-醇;顺式-11-十六烯-1-醇;",
    "alternate_name": "11-Hexadecen-1-ol, (11<em>Z</em>)-;11-Hexadecen-1-ol, (<em>Z</em>)-;(11<em>Z</em>)-11-Hexadecen-1-ol;<em>cis</em>-11-Hexadecen-1-ol;(<em>Z</em>)-11-Hexadecenol;(<em>Z</em>)-11-Hexadecen-1-ol",
    "duplicated_cas_no": "",
    "SMILES": "C(CC/C=C\\CCCC)CCCCCCCO",
    "meta_data": {
        "InChI": "InChI=1S/C16H32O/c1-2-3-4-5-6-7-8-9-10-11-12-13-14-15-16-17/h5-6,17H,2-4,7-16H2,1H3/b6-5-",
        "InChIKey": null,
        "Canonical SMILES": "OCCCCCCCCCCC=CCCCC",
        "Molecular Formula": "C<sub>16</sub>H<sub>32</sub>O",
        "Molecular Mass": "240.42",
        "Boiling Point": "309 °C"
    }
}