{
    "cas_no": "104-62-1",
    "key_name": "2-Phenylethyl formate",
    "cn_name": "甲酸苯乙酯;甲酸-2-苯乙酯;",
    "alternate_name": "Formic acid, 2-phenylethyl ester;Phenethyl alcohol, formate;Formic acid, phenethyl ester;Benzylcarbinyl formate;Phenethyl formate;β-Phenylethyl formate;2-Phenylethyl formate;2-Phenethyl formate;β-Phenethyl formate;NSC 404456",
    "duplicated_cas_no": "",
    "SMILES": "C(COC=O)C1=CC=CC=C1",
    "meta_data": {
        "InChI": "InChI=1S/C9H10O2/c10-8-11-7-6-9-4-2-1-3-5-9/h1-5,8H,6-7H2",
        "InChIKey": null,
        "Canonical SMILES": "O=COCCC=1C=CC=CC1",
        "Molecular Formula": "C<sub>9</sub>H<sub>10</sub>O<sub>2</sub>",
        "Molecular Mass": "150.17",
        "Boiling Point": "86-90 °C @ Press: 14 Torr"
    }
}