{
    "cas_no": "7148-07-4",
    "key_name": "1-(1-Cyclopenten-1-yl)pyrrolidine",
    "cn_name": "1-(1-吡咯烷)环戊烯;1-环戊烯基吡烙烷;",
    "alternate_name": "Pyrrolidine, 1-(1-cyclopenten-1-yl)-;1-(1-Cyclopenten-1-yl)pyrrolidine;1-Pyrrolidinocyclopentene;1-(Cyclopent-1′-enyl)pyrrolidine;1-Cyclopentenylpyrrolidine;1-(1-Pyrrolidinyl)-1-cyclopentene;1-(1-Pyrrolidinyl)cyclopentene;<em>N</em>-(1-Cyclopenten-1-yl)pyrrolidine;1-(1-Cyclopentenyl)pyrrolidine;Cyclopentanone pyrrolidine enamine;1-Pyrrolidinylcyclopentene;<em>N</em>-(1-Cyclopentenyl)pyrrolidine;NSC 29653",
    "duplicated_cas_no": "",
    "SMILES": "C=1(CCCC1)N2CCCC2",
    "meta_data": {
        "InChI": "InChI=1S/C9H15N/c1-2-6-9(5-1)10-7-3-4-8-10/h5H,1-4,6-8H2",
        "InChIKey": null,
        "Canonical SMILES": "C1=C(N2CCCC2)CCC1",
        "Molecular Formula": "C<sub>9</sub>H<sub>15</sub>N",
        "Molecular Mass": "137.22",
        "Boiling Point": "101-102 °C @ Press: 22 Torr"
    }
}