{
    "cas_no": "61-75-6",
    "key_name": "Bretylium tosylate",
    "cn_name": null,
    "alternate_name": "Benzenemethanaminium, 2-bromo-<em>N</em>-ethyl-<em>N</em>,<em>N</em>-dimethyl-, 4-methylbenzenesulfonate (1:1);(<em>o</em>-Bromobenzyl)ethyldimethylammonium <em>p</em>-toluenesulfonate;Ammonium, (<em>o</em>-bromobenzyl)ethyldimethyl-, <em>p</em>-toluenesulfonate;Benzenemethanaminium, 2-bromo-<em>N</em>-ethyl-<em>N</em>,<em>N</em>-dimethyl-, salt with 4-methylbenzenesulfonic acid (1:1);Bretylium tosylate;Darenthin;Bretylium <em>p</em>-toluenesulfonate;<em>N</em>-Ethyl-<em>N</em>-(<em>o</em>-bromobenzyl)-<em>N</em>,<em>N</em>-dimethylammonium tosylate;Bretylan;Bretylate;Ornid;Bretylol;Bretylium tosilate;ASL 603;NSC 62164;MeSH ID: D001950",
    "duplicated_cas_no": "",
    "SMILES": "S(=O)(=O)([O-])C1=CC=C(C)C=C1.C([N+](CC)(C)C)C1=C(Br)C=CC=C1",
    "meta_data": {
        "InChI": "InChI=1S/C11H17BrN.C7H8O3S/c1-4-13(2,3)9-10-7-5-6-8-11(10)12;1-6-2-4-7(5-3-6)11(8,9)10/h5-8H,4,9H2,1-3H3;2-5H,1H3,(H,8,9,10)/q+1;/p-1",
        "InChIKey": null,
        "Canonical SMILES": "O=S(=O)([O-])C1=CC=C(C=C1)C.BrC=1C=CC=CC1C[N+](C)(C)CC",
        "Molecular Formula": "C<sub>11</sub>H<sub>17</sub>BrN.C<sub>7</sub>H<sub>7</sub>O<sub>3</sub>S",
        "Molecular Mass": "",
        "Melting Point": "97-99 °C"
    }
}