{
    "cas_no": "2402-97-3",
    "key_name": "Pyridine, 3-bromo-, 1-oxide",
    "cn_name": "3-溴吡啶-N-氧化物;3-溴吡啶-N-氧化物;",
    "alternate_name": "Pyridine, 3-bromo-, 1-oxide;3-Bromopyridine <em>N</em>-oxide;3-Bromopyridine 1-oxide;3-Bromopyridine oxide;3-Bromo-1-oxidopyridin-1-ium;3-Bromopyridin-1-ium-1-olate",
    "duplicated_cas_no": "",
    "SMILES": "BrC1=CN(=O)=CC=C1",
    "meta_data": {
        "InChI": "InChI=1S/C5H4BrNO/c6-5-2-1-3-7(8)4-5/h1-4H",
        "InChIKey": null,
        "Canonical SMILES": "O=N=1C=CC=C(Br)C1",
        "Molecular Formula": "C<sub>5</sub>H<sub>4</sub>BrNO",
        "Molecular Mass": "174.00",
        "Boiling Point": "122-125 °C @ Press: 5 Torr",
        "Melting Point": "110-112 °C"
    }
}