{
    "cas_no": "22583-75-1",
    "key_name": "Benzophenone-<em>d</em><sub>10</sub>",
    "cn_name": null,
    "alternate_name": "Methanone, di(phenyl-<em>2</em>,<em>3</em>,<em>4</em>,<em>5</em>,<em>6</em>-<em>d</em><sub>5</sub>)-;Benzophenone-<em>d</em><sub>10</sub>;Methanone, di(phenyl-<em>d</em><sub>5</sub>)-;Di(phenyl-<em>2</em>,<em>3</em>,<em>4</em>,<em>5</em>,<em>6</em>-<em>d</em><sub>5</sub>)methanone;Perdeuteriobenzophenone;Perdeuterobenzophenone;Decadeuteriobenzophenone;Bis(pentadeuterophenyl)methanone",
    "duplicated_cas_no": "",
    "SMILES": "C(=O)(C1=C(C(=C(C(=C1[2H])[2H])[2H])[2H])[2H])C2=C(C(=C(C(=C2[2H])[2H])[2H])[2H])[2H]",
    "meta_data": {
        "InChI": "InChI=1S/C13H10O/c14-13(11-7-3-1-4-8-11)12-9-5-2-6-10-12/h1-10H/i1D,2D,3D,4D,5D,6D,7D,8D,9D,10D",
        "InChIKey": null,
        "Canonical SMILES": "O=C(C=1C=CC=CC1)C=2C=CC=CC2",
        "Molecular Formula": "C<sub>13</sub>D<sub>10</sub>O",
        "Molecular Mass": "",
        "Melting Point": "169-170 °C"
    }
}