{
    "cas_no": "95-47-6",
    "key_name": "<em>o</em>-Xylene",
    "cn_name": "1,2-二甲苯;邻二甲苯;",
    "alternate_name": "Benzene, 1,2-dimethyl-;<em>o</em>-Xylene;1,2-Dimethylbenzene;Orthoxylene;<em>o</em>-Dimethylbenzene;<em>o</em>-Xylol;1,2-Xylene;<em>o</em>-Methyltoluene;<em>ortho</em>-Xylene;2-Methyltoluene;NSC 60920;3,4-Dimethylbenzene",
    "duplicated_cas_no": "",
    "SMILES": "CC1=C(C)C=CC=C1",
    "meta_data": {
        "InChI": "InChI=1S/C8H10/c1-7-5-3-4-6-8(7)2/h3-6H,1-2H3",
        "InChIKey": null,
        "Canonical SMILES": "C=1C=CC(=C(C1)C)C",
        "Molecular Formula": "C<sub>8</sub>H<sub>10</sub>",
        "Molecular Mass": "106.17",
        "Boiling Point": "144.4 °C @ Press: 760 Torr",
        "Melting Point": "-25 °C",
        "Density": "0.8801 g/cm³ @ Temp: 20 °C"
    }
}