{
    "cas_no": "3230-94-2",
    "key_name": "Ornithine aspartate",
    "cn_name": "L-鸟氨酸L-天门冬氨酸盐;",
    "alternate_name": "<span class=\"text-smallcaps\">L</smallcap>-Aspartic acid, compd. with <smallcap>L</span>-ornithine (1:1);Aspartic acid, <span class=\"text-smallcaps\">L</smallcap>-, compd. with <smallcap>L</span>-ornithine (1:1);Ornithine, <span class=\"text-smallcaps\">L</smallcap>-, <smallcap>L</span>-aspartate (1:1);<span class=\"text-smallcaps\">L</smallcap>-Ornithine, <smallcap>L</span>-aspartate (1:1);Ornithine aspartate;Hepamerz;<span class=\"text-smallcaps\">L</smallcap>-Ornithine <smallcap>L</span>-aspartate;Ormeta;Orparan;Aspartic acid compd. with ornithine;Ruigan",
    "duplicated_cas_no": "3054-39-5;91055-05-9;886996-48-1",
    "SMILES": "[C@@H](C(O)=O)(CCCN)N.[C@H](CC(O)=O)(C(O)=O)N",
    "meta_data": {
        "InChI": "InChI=1S/C5H12N2O2.C4H7NO4/c6-3-1-2-4(7)5(8)9;5-2(4(8)9)1-3(6)7/h4H,1-3,6-7H2,(H,8,9);2H,1,5H2,(H,6,7)(H,8,9)/t4-;2-/m00/s1",
        "InChIKey": null,
        "Canonical SMILES": "O=C(O)CC(N)C(=O)O.O=C(O)C(N)CCCN",
        "Molecular Formula": "C<sub>5</sub>H<sub>12</sub>N<sub>2</sub>O<sub>2</sub>.C<sub>4</sub>H<sub>7</sub>NO<sub>4</sub>",
        "Molecular Mass": "",
        "Melting Point": "215 °C (decomp)"
    }
}