{
    "cas_no": "100665-43-8",
    "key_name": "Ganoderenic acid d",
    "cn_name": null,
    "alternate_name": "Lanosta-8,20(22)-dien-26-oic acid, 7-hydroxy-3,11,15,23-tetraoxo-, (7β,20<em>E</em>)-;(7β,20<em>E</em>)-7-Hydroxy-3,11,15,23-tetraoxolanosta-8,20(22)-dien-26-oic acid;Ganoderenic acid d",
    "duplicated_cas_no": "",
    "SMILES": "CC12C3=C(C4(C)C(CC3O)C(C)(C)C(=O)CC4)C(=O)CC1(C)C(C(=CC(CC(C(O)=O)C)=O)C)CC2=O",
    "meta_data": {
        "InChI": "InChI=1S/C30H40O7/c1-15(10-17(31)11-16(2)26(36)37)18-12-23(35)30(7)25-19(32)13-21-27(3,4)22(34)8-9-28(21,5)24(25)20(33)14-29(18,30)6/h10,16,18-19,21,32H,8-9,11-14H2,1-7H3,(H,36,37)",
        "InChIKey": null,
        "Canonical SMILES": "O=C(O)C(C)CC(=O)C=C(C)C1CC(=O)C2(C3=C(C(=O)CC12C)C4(C)CCC(=O)C(C)(C)C4CC3O)C",
        "Molecular Formula": "C<sub>30</sub>H<sub>40</sub>O<sub>7</sub>",
        "Molecular Mass": "512.63",
        "Melting Point": "218-220 °C"
    }
}