{
    "cas_no": "39512-51-1",
    "key_name": "1-(2-Methylphenyl)piperazine",
    "cn_name": "1-(2-甲基苯基)哌嗪;1-(邻甲苯)哌嗪;",
    "alternate_name": "Piperazine, 1-(2-methylphenyl)-;1-(2-Methylphenyl)piperazine;<em>N</em>-(<em>o</em>-Tolyl)piperazine;<em>N</em>-(2-Methylphenyl)piperazine;1-<em>o</em>-Tolylpiperazine;4-(2-Methylphenyl)piperazine;1-(<em>o</em>-Methylphenyl)piperazine;1-(2-Tolyl)piperazine;4-<em>o</em>-Tolylpiperazine;<em>N</em>-2-Tolylpiperazine;NSC 28784;PAL 169",
    "duplicated_cas_no": "",
    "SMILES": "CC1=C(N2CCNCC2)C=CC=C1",
    "meta_data": {
        "InChI": "InChI=1S/C11H16N2/c1-10-4-2-3-5-11(10)13-8-6-12-7-9-13/h2-5,12H,6-9H2,1H3",
        "InChIKey": null,
        "Canonical SMILES": "C=1C=CC(=C(C1)N2CCNCC2)C",
        "Molecular Formula": "C<sub>11</sub>H<sub>16</sub>N<sub>2</sub>",
        "Molecular Mass": "176.26",
        "Boiling Point": "160-161 °C @ Press: 10 Torr",
        "Melting Point": "156-158 °C"
    }
}