{
    "cas_no": "24057-28-1",
    "key_name": "Pyridinium <em>p</em>-toluenesulfonate",
    "cn_name": "4-甲基苯磺酸吡啶鎓;吡啶对甲苯磺酸盐;",
    "alternate_name": "Benzenesulfonic acid, 4-methyl-, compd. with pyridine (1:1);Pyridine, <em>p</em>-toluenesulfonate;Pyridine, 4-methylbenzenesulfonate;Pyridinium <em>p</em>-toluenesulfonate;Pyridinium tosylate;Pyridinium 4-toluenesulfonate;PPTS;Pyridinium <em>p</em>-tosylate;4-Methylbenzenesulfonic acid pyridinium salt;Pyridinum <em>p</em>-toluenesulfonate;Pyridinium <em>p</em>-toluensulfonate",
    "duplicated_cas_no": "",
    "SMILES": "C=1C=CN=CC1.S(=O)(=O)(O)C1=CC=C(C)C=C1",
    "meta_data": {
        "InChI": "InChI=1S/C7H8O3S.C5H5N/c1-6-2-4-7(5-3-6)11(8,9)10;1-2-4-6-5-3-1/h2-5H,1H3,(H,8,9,10);1-5H",
        "InChIKey": null,
        "Canonical SMILES": "O=S(=O)(O)C1=CC=C(C=C1)C.N=1C=CC=CC1",
        "Molecular Formula": "C<sub>7</sub>H<sub>8</sub>O<sub>3</sub>S.C<sub>5</sub>H<sub>5</sub>N",
        "Molecular Mass": "",
        "Melting Point": "113-115 °C"
    }
}