{
    "cas_no": "400-74-8",
    "key_name": "2-Fluoro-5-nitrobenzotrifluoride",
    "cn_name": "2-氟-5-硝基三氟甲苯;",
    "alternate_name": "Benzene, 1-fluoro-4-nitro-2-(trifluoromethyl)-;Toluene, α,α,α,2-tetrafluoro-5-nitro-;1-Fluoro-4-nitro-2-(trifluoromethyl)benzene;3-(Trifluoromethyl)-4-fluoronitrobenzene;2-Fluoro-5-nitrobenzotrifluoride;2-Fluoro-5-nitro-1-(trifluoromethyl)benzene;5-Nitro-2-fluorobenzotrifluoride;1-Fluoro-4-nitro-2-trifluoromethylbenzene;4-Fluoro-3-trifluoromethylnitrobenzene;NSC 10302;4-Fluoro-3-trifluoromethyl-1-nitrobenzene;4-Nitro-2-(trifluoromethyl)fluorobenzene;1-Fluoro-2-(trifluoromethyl)-4-nitrobenzene",
    "duplicated_cas_no": "",
    "SMILES": "C(F)(F)(F)C1=CC(N(=O)=O)=CC=C1F",
    "meta_data": {
        "InChI": "InChI=1S/C7H3F4NO2/c8-6-2-1-4(12(13)14)3-5(6)7(9,10)11/h1-3H",
        "InChIKey": null,
        "Canonical SMILES": "O=N(=O)C1=CC=C(F)C(=C1)C(F)(F)F",
        "Molecular Formula": "C<sub>7</sub>H<sub>3</sub>F<sub>4</sub>NO<sub>2</sub>",
        "Molecular Mass": "209.10",
        "Boiling Point": "105-110 °C @ Press: 25 Torr"
    }
}