{
    "cas_no": "3858-89-7",
    "key_name": "Chloroprocaine hydrochloride",
    "cn_name": "盐酸氯普鲁卡因;4-氨基-2-氯苯甲酸2-(二乙氨基)乙酯盐酸盐;",
    "alternate_name": "Benzoic acid, 4-amino-2-chloro-, 2-(diethylamino)ethyl ester, hydrochloride (1:1);Benzoic acid, 4-amino-2-chloro-, 2-(diethylamino)ethyl ester, monohydrochloride;2-Chloro-4-aminobenzoic acid diethylaminoethyl ester hydrochloride;Chloroprocaine hydrochloride;2-Chloroprocaine hydrochloride;2-(Diethylamino)ethyl 4-amino-2-chlorobenzoate hydrochloride;Nesacaine hydrochloride;Chlorprocaine hydrochloride;Nesacaine",
    "duplicated_cas_no": "",
    "SMILES": "C(OCCN(CC)CC)(=O)C1=C(Cl)C=C(N)C=C1.Cl",
    "meta_data": {
        "InChI": "InChI=1S/C13H19ClN2O2.ClH/c1-3-16(4-2)7-8-18-13(17)11-6-5-10(15)9-12(11)14;/h5-6,9H,3-4,7-8,15H2,1-2H3;1H",
        "InChIKey": null,
        "Canonical SMILES": "Cl.O=C(OCCN(CC)CC)C1=CC=C(N)C=C1Cl",
        "Molecular Formula": "C<sub>13</sub>H<sub>19</sub>ClN<sub>2</sub>O<sub>2</sub>.ClH",
        "Molecular Mass": "",
        "Melting Point": "177 °C"
    }
}