{
    "cas_no": "98-29-3",
    "key_name": "4-<em>tert</em>-Butylcatechol",
    "cn_name": "对叔丁基邻苯二酚;",
    "alternate_name": "1,2-Benzenediol, 4-(1,1-dimethylethyl)-;Pyrocatechol, 4-<em>tert</em>-butyl-;4-(1,1-Dimethylethyl)-1,2-benzenediol;4-<em>tert</em>-Butylcatechol;4-<em>tert</em>-Butylpyrocatechol;<em>p</em>-<em>tert</em>-Butylcatechol;4-<em>tert</em>-Butyl-1,2-dihydroxybenzene;4-<em>tert</em>-Butylcatechin;4-<em>tert</em>-Butyl-1,2-benzenediol;1,2-Dihydroxy-4-<em>tert</em>-butylbenzene;4-(1,1-Dimethylethyl)benzene-1,2-diol;4-(1,1-Dimethylethyl)catechol;4-TBC;<em>p</em>-<em>tert</em>-Butylpyrocatechol;4-<em>tert</em>-Butyl-<em>o</em>-catechol;5-<em>tert</em>-Butylcatechol;NSC 5310;<em>p</em>-<em>t</em>-Butylcatechol;NLC 10;Inhibitor NLC 10;Norpol 9853;Norpol Inhibitor 9853;TBC;DIC-TBC 5P;Q-TBC-5P;Q-TBC 5P",
    "duplicated_cas_no": "71210-63-4",
    "SMILES": "C(C)(C)(C)C1=CC(O)=C(O)C=C1",
    "meta_data": {
        "InChI": "InChI=1S/C10H14O2/c1-10(2,3)7-4-5-8(11)9(12)6-7/h4-6,11-12H,1-3H3",
        "InChIKey": null,
        "Canonical SMILES": "OC1=CC=C(C=C1O)C(C)(C)C",
        "Molecular Formula": "C<sub>10</sub>H<sub>14</sub>O<sub>2</sub>",
        "Molecular Mass": "166.22",
        "Boiling Point": "285 °C",
        "Melting Point": "54.3 °C"
    }
}