{
    "cas_no": "18967-42-5",
    "key_name": "Benzene, 1,2-dichloro-4-(isothiocyanatomethyl)-",
    "cn_name": "3,4-二氯苯甲基硫代异氰酸酯;",
    "alternate_name": "Benzene, 1,2-dichloro-4-(isothiocyanatomethyl)-;Isothiocyanic acid, 3,4-dichlorobenzyl ester;Toluene, 3,4-dichloro-α-isothiocyanato-;3,4-Dichlorobenzyl isothiocyanate;NSC 221245;1,2-Dichloro-4-(isothiocyanatomethyl)benzene",
    "duplicated_cas_no": "",
    "SMILES": "C(N=C=S)C1=CC(Cl)=C(Cl)C=C1",
    "meta_data": {
        "InChI": "InChI=1S/C8H5Cl2NS/c9-7-2-1-6(3-8(7)10)4-11-5-12/h1-3H,4H2",
        "InChIKey": null,
        "Canonical SMILES": "S=C=NCC1=CC=C(Cl)C(Cl)=C1",
        "Molecular Formula": "C<sub>8</sub>H<sub>5</sub>Cl<sub>2</sub>NS",
        "Molecular Mass": "218.10",
        "Boiling Point": "124-128 °C @ Press: 0.37 Torr",
        "Density": "1.409 g/cm³ @ Temp: 20 °C"
    }
}