{
    "cas_no": "2784-27-2",
    "key_name": "5-(4-Hydroxyphenyl)-5-phenylhydantoin",
    "cn_name": null,
    "alternate_name": "2,4-Imidazolidinedione, 5-(4-hydroxyphenyl)-5-phenyl-;Hydantoin, 5-(<em>p</em>-hydroxyphenyl)-5-phenyl-;5-(4-Hydroxyphenyl)-5-phenyl-2,4-imidazolidinedione;5-(<em>p</em>-Hydroxyphenyl)-5-phenylhydantoin;Hydroxydiphenylhydantoin;<em>p</em>-Hydroxydiphenylhydantoin;(<em>p</em>-Hydroxyphenyl)phenylhydantoin;4-Hydroxydiphenylhydantoin;5-(4-Hydroxyphenyl)-5-phenylhydantoin;4-Hydroxyphenytoin;<em>p</em>-Hydroxyphenytoin;5-Phenyl-5-<em>p</em>-hydroxyphenylhydantoin;5-(4′-Hydroxyphenyl)-5-phenylhydantoin;<em>dl</em>-5-(<em>p</em>-Hydroxyphenyl-5-phenylhydantoin;(±)-5-(4-Hydroxyphenyl-5-phenylhydantoin;NSC 156081",
    "duplicated_cas_no": "57464-82-1",
    "SMILES": "O=C1C(NC(=O)N1)(C2=CC=C(O)C=C2)C3=CC=CC=C3",
    "meta_data": {
        "InChI": "InChI=1S/C15H12N2O3/c18-12-8-6-11(7-9-12)15(10-4-2-1-3-5-10)13(19)16-14(20)17-15/h1-9,18H,(H2,16,17,19,20)",
        "InChIKey": null,
        "Canonical SMILES": "O=C1NC(=O)C(N1)(C=2C=CC=CC2)C3=CC=C(O)C=C3",
        "Molecular Formula": "C<sub>15</sub>H<sub>12</sub>N<sub>2</sub>O<sub>3</sub>",
        "Molecular Mass": "268.27",
        "Melting Point": "311 °C (decomp)"
    }
}