{
    "cas_no": "289656-45-7",
    "key_name": "Senicapoc",
    "cn_name": null,
    "alternate_name": "Benzeneacetamide, 4-fluoro-α-(4-fluorophenyl)-α-phenyl-;4-Fluoro-α-(4-fluorophenyl)-α-phenylbenzeneacetamide;ICA 17043;Senicapoc;2,2-Bis(4-fluorophenyl)-2-phenylacetamide",
    "duplicated_cas_no": "",
    "SMILES": "C(C(N)=O)(C1=CC=C(F)C=C1)(C2=CC=C(F)C=C2)C3=CC=CC=C3",
    "meta_data": {
        "InChI": "InChI=1S/C20H15F2NO/c21-17-10-6-15(7-11-17)20(19(23)24,14-4-2-1-3-5-14)16-8-12-18(22)13-9-16/h1-13H,(H2,23,24)",
        "InChIKey": null,
        "Canonical SMILES": "O=C(N)C(C=1C=CC=CC1)(C2=CC=C(F)C=C2)C3=CC=C(F)C=C3",
        "Molecular Formula": "C<sub>20</sub>H<sub>15</sub>F<sub>2</sub>NO",
        "Molecular Mass": "323.34",
        "Melting Point": "180-181 °C"
    }
}