{
    "cas_no": "6379-73-3",
    "key_name": "Carvacrol methyl ether",
    "cn_name": "香芹酚甲醚; 5-异丙基-2-甲基苯甲醚;",
    "alternate_name": "Benzene, 2-methoxy-1-methyl-4-(1-methylethyl)-;Anisole, 5-isopropyl-2-methyl-;2-Methoxy-1-methyl-4-(1-methylethyl)benzene;Carvacrol methyl ether;Methyl carvacryl ether;<em>O</em>-Methylcarvacrol;Carvacryl methyl ether;2-Methoxy-<em>p</em>-cymol;5-Isopropyl-2-methylanisole;Methylcarvacrol;NSC 406512;2-Methoxy-1-methyl-4-(propan-2-yl)benzene",
    "duplicated_cas_no": "",
    "SMILES": "O(C)C1=CC(C(C)C)=CC=C1C",
    "meta_data": {
        "InChI": "InChI=1S/C11H16O/c1-8(2)10-6-5-9(3)11(7-10)12-4/h5-8H,1-4H3",
        "InChIKey": null,
        "Canonical SMILES": "O(C1=CC(=CC=C1C)C(C)C)C",
        "Molecular Formula": "C<sub>11</sub>H<sub>16</sub>O",
        "Molecular Mass": "164.24",
        "Boiling Point": "107-108 °C @ Press: 15 Torr",
        "Density": "0.938 g/cm³ @ Temp: 15 °C"
    }
}