{
    "cas_no": "59414-23-2",
    "key_name": "[(3-Methoxy-1-methylene-2-propen-1-yl)oxy]trimethylsilane",
    "cn_name": "1-甲氧基-3-三甲基硅氧基-1,3-丁二烯;",
    "alternate_name": "Silane, [(3-methoxy-1-methylene-2-propen-1-yl)oxy]trimethyl-;Silane, [(3-methoxy-1-methylene-2-propenyl)oxy]trimethyl-;[(3-Methoxy-1-methylene-2-propen-1-yl)oxy]trimethylsilane;1-Methoxy-3-(trimethylsiloxy)-1,3-butadiene;1-Methoxy-3-(trimethylsiloxy)butadiene;1-Methoxy-3-trimethylsilyloxy-1,3-butadiene;4-Methoxy-2-trimethylsiloxy-1,3-butadiene;[(3-Methoxy-1-methylene-2-propenyl)oxy]trimethylsilane",
    "duplicated_cas_no": "",
    "SMILES": "O(C(C=COC)=C)[Si](C)(C)C",
    "meta_data": {
        "InChI": "InChI=1S/C8H16O2Si/c1-8(6-7-9-2)10-11(3,4)5/h6-7H,1H2,2-5H3",
        "InChIKey": null,
        "Canonical SMILES": "O(C=CC(O[Si](C)(C)C)=C)C",
        "Molecular Formula": "C<sub>8</sub>H<sub>16</sub>O<sub>2</sub>Si",
        "Molecular Mass": "172.30",
        "Boiling Point": "65-70 °C @ Press: 7 Torr"
    }
}