{
    "cas_no": "39515-41-8",
    "key_name": "Fenpropathrin",
    "cn_name": "甲氰菊酯;alpha-氰基-3-苯氧基苄基-2,2,3,3-四甲基环丙烷羧酸酯;",
    "alternate_name": "Cyclopropanecarboxylic acid, 2,2,3,3-tetramethyl-, cyano(3-phenoxyphenyl)methyl ester;SD 41706;WL 41706;S 3206;Fenpropanate;α-Cyano-3-phenoxybenzyl 2,2,3,3-tetramethylcyclopropanecarboxylate;Fenpropathrin;Meothrin;Meiothrin;Danitol;Miothrin;Danitol Fiori;Kilumal;Smash;Rody;XE 938;Tame;Danitol 10EC;(±)-Fenpropathrin;Danimen;2,2,3,3-Tetramethylcyclopropanecarboxylic acid cyano(3-phenoxyphenyl)methyl ester;Danitol 2.4EC;Lodi Emulsion",
    "duplicated_cas_no": "64257-84-7",
    "SMILES": "C(OC(C#N)C1=CC(OC2=CC=CC=C2)=CC=C1)(=O)C3C(C)(C)C3(C)C",
    "meta_data": {
        "InChI": "InChI=1S/C22H23NO3/c1-21(2)19(22(21,3)4)20(24)26-18(14-23)15-9-8-12-17(13-15)25-16-10-6-5-7-11-16/h5-13,18-19H,1-4H3",
        "InChIKey": null,
        "Canonical SMILES": "N#CC(OC(=O)C1C(C)(C)C1(C)C)C=2C=CC=C(OC=3C=CC=CC3)C2",
        "Molecular Formula": "C<sub>22</sub>H<sub>23</sub>NO<sub>3</sub>",
        "Molecular Mass": "349.42",
        "Melting Point": "47 °C"
    }
}