{
    "cas_no": "150-69-6",
    "key_name": "(4-Ethoxyphenyl)urea",
    "cn_name": "(4-乙氧基苯基)脲;(4-乙氧基苯基)脲;",
    "alternate_name": "Urea, <em>N</em>-(4-ethoxyphenyl)-;Urea, (<em>p</em>-ethoxyphenyl)-;Urea, (4-ethoxyphenyl)-;<em>N</em>-(4-Ethoxyphenyl)urea;(<em>p</em>-Ethoxyphenyl)urea;<em>p</em>-Phenetolcarbamide;<em>p</em>-Phenetylurea;Sucrol;Valzin;(4-Ethoxyphenyl)urea;Dulcine;Phenetolcarbamide;1-(4-Ethoxyphenyl)urea;4-Ureidophenetole;Dulcin;Dulcin (sweetener);NSC 1839",
    "duplicated_cas_no": "",
    "SMILES": "N(C(N)=O)C1=CC=C(OCC)C=C1",
    "meta_data": {
        "InChI": "InChI=1S/C9H12N2O2/c1-2-13-8-5-3-7(4-6-8)11-9(10)12/h3-6H,2H2,1H3,(H3,10,11,12)",
        "InChIKey": null,
        "Canonical SMILES": "O=C(N)NC1=CC=C(OCC)C=C1",
        "Molecular Formula": "C<sub>9</sub>H<sub>12</sub>N<sub>2</sub>O<sub>2</sub>",
        "Molecular Mass": "180.20",
        "Melting Point": "173.5 °C"
    }
}