{
    "cas_no": "21645-51-2",
    "key_name": "Aluminum hydroxide",
    "cn_name": "氢氧化铝;",
    "alternate_name": "Aluminum hydroxide (Al(OH)<sub>3</sub>);Aluminum hydroxide;Alusal;Aluminum trihydroxide;Amberol ST 140F;C 4D;H 46;Higilite H 31S;Higilite H 42;Higilite;Hydral 705;Alcoa C 30BF;Alcoa 331;Hychol 705;Hydral 710;GHA 332;C 31F;C 31C;P 30BF;C 33;Baco AF 260;AF 260;Alcoa C 333;Higilite H 32;Alumigel;GHA 331;Martinal F-a;GHA 431;Alcoa C 330;Calmogastrin;F 1000;Martinal A;Martinal A/S;Hydrafil;Alugel;Martinal BM 2;Martinal C;Martinal E;Martinal X;GHA 131;GHA 731;H 31;Hydroxal;Higilite H 32S;Baco FRF 80S5;Baco FRF-LV 1S5;RH 31F;Alcoa AS 301;Higilite H 42M;Aluminum oxide (Al<sub>2</sub>O<sub>3</sub>), trihydrate;Apyral 2;Aluminic acid (H<sub>3</sub>AlO<sub>3</sub>);Apyral 8;Apyral 15;Apyral 60;Higilite H 31;Higilite H 32IX;Higilite H 10;BMZ;Alcoa 710;SB 632;Higilite HWC;Hydral PGA;Paperad;Alhydrogel;Higilite H 42S;Higilite H 41;H 42;Hydrated alumina;CW 308;DT 079;Higilite H 40;Reheis F 1000;Mucogel;F 2000;C 303;Higilite H 43M;Higilite 42S;Higilite H 310;Amphogel;B 703;Higilite H 320;C 308;Higilite H 30;CHP 340S;Higilite H 32I;B 1403;H 21;Martinal OL 111;Higilite 42M;CE 30E;Higilite H 311;Apyral B;Apyral B 2;Baco FRF 40;B 1403S;Alternagel;Baco FRF 20;RH 730;Micral 932;Apyral 4;Apyral 40;Baco AF 230;Apyral B 90;Alcoa C 331;Higilite H 34;Higilite H 34HL;B 103 (hydroxide);B 103;SB 136;HWC;Hydral 710B;Apyral 90;Amphojel;Martinal ON 313;Alolt 8;Trihydroxyaluminum;Baco FRF 80;Apyral 120VAW;Martifin;AC 450;Alcoa C 33;C 12;Ultrafine 35E;Ultrafine 25E;Ultrafine 15E;Pepsamar;Alugelibys;Martinal OL 104;Martinal VPF 8907;Martinal OL 107;Apyral B 60;Hydral 700;Baco FRF 85;Trihyde OL 104;SF 11;UF 35E;Hydral 710W;Higilite H 100;H 32;Alumina trihydrate;C 31;Alcoa C 31;Higilite H 10C;Baco SF 7S3A;C 301 (hydroxide);C 301;HAL 42;Tomix AD 220;Higilite H;SpaceRite S 11ATH;H 30C;BW 103;Liquigel;Apyral 120;Higilite H 32TX;CL 303;Higilite H 320ST;Martinal F;SB 432;Alolt 90;Alolt 80;LA (filler);LA 5;S 100 (filler);FM (filler);S 100;FM;LA;BW 53;Martinal ON 320;Higilite H 210;Higilite H 43;CW 325;C 303H;C 315H;H 310ST;AC 714KC;Alcoa H 65;CL 310 (hydroxide);CL 310;Higilite H 42H;B 700;Micral 855;Micral 916;B 303;B 153;Aluminum oxide trihydrate;C 325 (hydroxide);C 325;C 315;SpaceRite S 3ATH;Spheralite 509A;HAL 43;Martinal ON 310;Higilite H 43S;Higilite HBT 320;Apyral 24;CW 380S;C 333;C 303 (hydroxide);Higilite H 141;C 308 (hydroxide);Trikup 710B;Higilite H 21;Higilite HS 320ST;H 42ST;H 34L;Alcoa C 385;AKP-DA;SF 7;CW 375HT;CW 350;CW 315;SpaceRite S 23ATH;CW 325LV;F 2000 (hydroxide);H 42M;A 3011;B 703S;Kyowaad S 200S;Solem OE 431;Reheis F 2000;ATH-CM 432;Martinal OL 921;F 1000 (pharmaceutical);Higilite H 42I;CWL 326S;CW 308S;Higilite H 320I;Martinal 104C;Alcoa A 325;H 320;ATH 30;Antipollon HT;Takallophane;H 31I;C 385;Solem SB 36;Solem SB 632;Higilite H 52M;B 513;C 301R;CE 300A;Higilite NB 1;B 53;Apyral 25;B 53 (hydroxide);ATH-SH 5;Apyral;C 12 (hydroxide);BX 103V15;BW 153;Higilite HS 310;C 303E;Martinal ON 921;OC 2000;H 210;ON 313;HBT 320;ATH-X;AE 107;Higilite H 31I;BS 33;Baco S 5;Camag 5015A;Higilite 42;BW 153ST;C 710B;Martifil P 2;Martinal OL 104LE;SSF 11;ATH-FR;Micral 9400;Micral 1500;Micral 632;H 43M;Micral 1440;CWL 310;RF 2071;Rehydragel HPA;Rehydragel;Martinal OL 103C;CW 310SH;CWL 325J;H 320ST;CWL 325B;HS 310;H-WP;Micral 932CM;UF-ATH 250;CW 325J;H 43S;H 42S;Solem SB 336;OL 111;Martinal ON 4608;ON 4608;Superfine 7E;Baco Superfine 7;Baco SF 7;Martifin OL 107;OL 107;SpaceRite S 11;BW 103ST;HS 320;SF 11 (hydroxide);SF 7E;FlameGard M 15B;SB 336;RC 325;ATH 60;ATH 130;ATH 632SH1;B 303C;H 310;Martinal TS 601;Onyx Elite;H 710;Higilite H 42STE;Higilite 42STE;42STE;Superfine 11E;BW 33ST;BW 33;XL 10MR;XL 20MR;Omya ON 921;C 302A;B 308;Alolt 50AF;Alolt 59;Alolt 60FLS;Higilite H 24M;Martinal 906;Higilite HS 32;HS 32;C 308E;C 3005;CW 325A;CL 302;H 32I;H 42I;CL 302 (hydroxide);Dispersal 14/2;Higilite 43M;B 315;Martinal ON 904LV;Martinal ON 901;B 325;B 30S;B 325 (hydroxide);B 30S (hydroxide);H 308B;Higilite H 308B;H 308B (hydroxide);HP 600;Alcan SF 4;Hydral H 710;Hydral H 716;SF 4;BF 013;Hymod 632;Apyral 40E;RF 22;CM 45;GL 303;CM 45 (filler);Dialume;H 308;Apyral 40CD;Apyral 40D;B 01319;H 421;Superfine SF 4;HS 330;Apyral 60D;Rehydragel LV;NSC 664400;Hydralcoat;Martinal 104;H 10;CL 320;Higilite H 43STE;Martinal OL 107C;Genbrite 700;Martinal ON 904;Martinal ON 908;ON 921;ON 904;RH 30;Alcoa OC 1000;Techtonite HT;H 34HL;JHK-M 10;CW 316;ZX 131;B 103E;CS 600;CS 600 (hydroxide);AC 400;AC 400 (hydroxide);BHP 26;SB 805;Terracess BMP;Apyral 16;BF 083;PGASD;Securoc A 32;Higilite H 432ST;CW 325B;Martinal OL 104G;NOC 30;RH 40;TS 601;BK 153;UFH 20;ALH;CL 310SP;Dispal 40;Higilite H 421STE;OL 107C;Alumina hydrate;Cataloid AAS 3;Dispal 23N4;Excemite 60;SH 150/01;Aluminum oxide hydrate;Alfrimal 437;Higilite H 100ME;H 100ME;UFH 40;H 34;DP 6033;Apyral MD 40;Baco SF 11E;AC 470;Higilite HS 330;Terracess BMI;Higilite H 341;C 305;Securoc A 5FS41.0;B 103ST;LA 5 (hydroxide);Martinal ON 021;H 43STE;Higilite HM 42;Alfrimal 103;C 231;A 02;HP 360;Onyx Elite 100;Hymod SB 432CM;H 73;B 1403T;Martinal OL 104WE6;OL 104WE;Martinal OL 104WE;SB 332;BE 033;Alumill F 505;FR 4;Higilite H-W;CL 303Y;FR 4 (hydroxide);Martifin OL;Portaflame SG 40;Alolt 38AF;Martinal OL 107LE;Martinal OL 111LE;ATH-S 3;Aluminum hydroxide gel;Hydrated aluminum oxide;Martingloss;WHA 401;B 313;BF 013S;HP 350;HP 32;HP 42M;HP 43M;Trefil 774;C 310;R-Flam 9(3);B 103S;CL 303M;B 73 (hydroxide);B 73;BT 200;Martinal 107;EM 5075;Alum;Martinal OL 104LEO;Martinal OL 107LEO;H 43;Higilite H 43H;D 50;D 50 (hydroxide);B 153E;Hymod M 932SG;CAM 9080;Hydral Coat 5;H 10CF;SB 222;Higilite H 100M;H 100M;Martinal Char 42;Hydral Coat 7;H 43H;Higilite H 425;Martinal OL 104A;OL 104A;HD 360;WA 1 (hydroxide);WA 1;Alolt 60DLS;HS 341;BT 703ST;Alcoa C 320;Apyral 30CD;Barcroft 0200;Barcroft 0250;Scar-Let 104;Hubercarb SB 122;40CD;BF 013TV;Apyral 120E;Apyral 200SM;Apyral 60CD;B 153T;Apyral AOH 20;ATH 100;CW 350B;Martinal OL 104CL;TS 610;OL 104LE;Safic Alcan SF 4;Apyral 1E;Apyral 2E;Apyral 20X;Higilite H 32M;GD 00;AS 5;PPP 33;AS 5 (hydroxide);Titan 4E;Higilite 421;Scarlet 315;Alolt 60F;HWF 1;ATH 2;Higilite HP 350;SB 122;WA 21;OL 104G;ATH 9400;Apyral SM 200;Apyral NH 20;SB 30SLM035;LE 0104;Higilite 360;Portaflame SG 200;Onyx Premier OP 25;Onyx Premier WP 31;Almorix B 316;H 32M;Martinal 107LEO;C 300GT;CM 450;C 3250;SH-M 25SP;ALH-F;ALH 3L;OL 104;Fiberline 489;Alumill MF 132;YH 24;H-WF 8SP;BF 103 (hydroxide);BF 103;CW 313SH;Portafill A 40;HT 980;Reflamal S 30;Higilite HS 320;AD 200P;H 310ST-TO;Higilite M 43;BE 023;Higilite H 43W;Higilite 43W;BF 013STV;Almorix B 350;KH 101;KH 101 (hydroxide);Alcan WH 311;H 100;MOLDX-A 100;H-WF 08A;HJM 8;Apyral 22;Hymod SB 805SP;Higilite H 42STM;SH 17W;HF 1;H 10M;AH 2;C 301N;WC 1;104LEO;PAX 140;Disperal BT;KH 101LP;107LEO;ATH-B;Framial 05;BP 083;B 30;Almorix B 30;H 24I;SH 15;SH 20;SH 100;SH 30N;OL 104LEO;ATH-C;Higilite S 48TV;Aluxid;ATH 4;YP 00050;HN 434;ATH;Apyral 33;Higlite H 42S;H-WF 50SP;101LC;AluMill F 280;BA 103;FR 3815;B 309;Onyx Elite 805;Alfrimal 447S;ATH-HN 434;ATH-MODX-P 18;FR 556;AD 200;Tomix AD 200;HJ 1000;Apyral 100SM;Onyx Elite 95;Onyx Elite 300;TL 8;H-WF 01SP;SB 303;H-WF 15A;H-WF 90;Micral AM 500;MoldX P 18;Hymod M 6400;Micral 9400D;SpaceRite S 3;V 101;Hydral PGA-SD;Weide V 101;Alfrimal 106;C 303N;SB 73;SB 153;Apyral 210;Highlite H 32;C 301CN;SB 143;HT 205;Aparyl B;ATHG 10;ON 310;AL-B 143;Hymod SB 432;ATH-SH 20;MoldX A 110;HCW 101;FA 50K;VK-LA 50;SB 93;HYDIRITE H-43M;FA 80;Almorix B 325;Higilite HC 32;Hydrafill 744-800;VKD 101V;WF 1;FA 70A;Apyral AG;ATH 104E;SG 200;OSDH 3;ATH-G 200;Alfrimal 446;Aluprem TGR 2;Portaflame SG 25;Trigal A 05P;Trigal A 05N;SB 93C;Apyral 200;AH 01DG;AH 1;AH 1 (hydroxide);FR 3803;AH 01;FA 50;AH 01 (hydroxide);KH 101HRT;FA 50 (hydroxide);CG-ATH;JATH 0030E;BX 043T;SB 103T;ACW 1500;XH 056;AH 0107;TS 305;Alolt 59AF;HWF 2N;Onyx Pro 25;I 92612115;AH 3;LD 72Al;LD 74Al;LD 76Al;AH 3 (hydroxide);QL 100;FRAT 44;FA 100;FR 3810;FR 3801;FR 3807;Huaya LA 4;FA 100 (hydroxide);XS-ACW 5;XS-ACW 8;XS-ACW 10;ACW 5;ACW 8;ACW 10;VKD 06T;BW 53ST;BX 103;BX 103 (hydroxide);BX 053;Maxfil 104;Micral 532;Apyral 20HC;Apyral 499XLV;208ATH;OL 100 (hydroxide);OL 100;EtiMine 706;H-WF 10;SB 103 (alumina);SB 103;MoldX A11O;Addforce FR-S 20L20;Martinal ON 313S;Aitemina 140;Polyfill 301;MX 200;MX 200 (hydroxide);Onyx Elite 431;H 08LA;AH 701 (hydroxide);AH 701;KH 17R;DH 50;JZ 816;KH 101LC;JATH 0010E;SBX 73;MX 100;01DGM;AH 01DGM;AFN 01X;H-WF 2N;SH 25B;FA 06TA;HN 361;Portoflame SG 30;Martinal TM 2550;Martinal TM 2590;D 005;BF 013Y24;Boratherm SG 200LVS;AH 33-4;H-WF 3;H-WF 10LS;H-WF 1;Alfrimal 104D;Apyral 44;VK-L 30G;FordaGard M 6B;Framial 01;Nabaltec 60CD;YT 1301;CW 320LV;Apyral 30X;ALI 06PB;Omya ON 935;ON 935;MeSH ID: D000536;08BZ;ALH 03;ATH 08A;ATH 15A;ATH 25A;H-WF 75SP;H-WF 100;H-WF 03CLV;Hymod SB 36SG;BX 043;Martinal ON 903;Martinal ON 310S;HWF 1LS;R-E 220604;SG 10LSA;BE 043STM;XS-AWC 505D;JAZ 119;01DH;ATH 20;FA 051;Reflamal 520;Hymod M 855;YC-QL 20D;H 50HW;H 01XP;GD-U 154;Chalco 15;SB 36;Maxfil MX 200;AH 0020;HN-LA 20;H-WF 10LV;ON 310S;Polyjet 405;KH 108 (hydroxide);KH 108;A 104E;FA 082;Hydral Coat 8;GY 905",
    "duplicated_cas_no": "1302-29-0;8012-63-3;8064-00-4;12040-59-4;12252-70-9;13783-16-9;16657-47-9;51330-22-4;106152-09-4;128083-27-2;151393-94-1;156259-59-5;159704-77-5;227961-51-5;507478-50-4;546141-62-2;546141-68-8;1071843-34-9;1847408-13-2;2243017-67-4;2506099-58-5",
    "SMILES": "[Al](O)(O)O",
    "meta_data": {
        "InChI": "InChI=1S/Al.3H2O/h;3*1H2/q+3;;;/p-3",
        "InChIKey": null,
        "Canonical SMILES": "O[Al](O)O",
        "Molecular Formula": "AlH<sub>3</sub>O<sub>3</sub>",
        "Molecular Mass": "",
        "Melting Point": "300 °C",
        "Density": "2.42 g/cm³"
    }
}