{
    "cas_no": "68401-05-8",
    "key_name": "(2<em>S</em>)-2-[5-[(2<em>E</em>)-3,7-Dimethyl-2,6-octadien-1-yl]-2,4-dihydroxyphenyl]-2,3-dihydro-5,7-dihydroxy-4<em>H</em>-1-benzopyran-4-one",
    "cn_name": null,
    "alternate_name": "4<em>H</em>-1-Benzopyran-4-one, 2-[5-[(2<em>E</em>)-3,7-dimethyl-2,6-octadien-1-yl]-2,4-dihydroxyphenyl]-2,3-dihydro-5,7-dihydroxy-, (2<em>S</em>)-;4<em>H</em>-1-Benzopyran-4-one, 2-[5-(3,7-dimethyl-2,6-octadienyl)-2,4-dihydroxyphenyl]-2,3-dihydro-5,7-dihydroxy-, [<em>S</em>-(<em>E</em>)]-;4<em>H</em>-1-Benzopyran-4-one, 2-[5-[(2<em>E</em>)-3,7-dimethyl-2,6-octadienyl]-2,4-dihydroxyphenyl]-2,3-dihydro-5,7-dihydroxy-, (2<em>S</em>)-;(2<em>S</em>)-2-[5-[(2<em>E</em>)-3,7-Dimethyl-2,6-octadien-1-yl]-2,4-dihydroxyphenyl]-2,3-dihydro-5,7-dihydroxy-4<em>H</em>-1-benzopyran-4-one;Kuwanon E",
    "duplicated_cas_no": "",
    "SMILES": "O=C1C=2C(O[C@@H](C1)C3=CC(C/C=C(/CCC=C(C)C)\\C)=C(O)C=C3O)=CC(O)=CC2O",
    "meta_data": {
        "InChI": "InChI=1S/C25H28O6/c1-14(2)5-4-6-15(3)7-8-16-9-18(20(28)12-19(16)27)23-13-22(30)25-21(29)10-17(26)11-24(25)31-23/h5,7,9-12,23,26-29H,4,6,8,13H2,1-3H3/b15-7+/t23-/m0/s1",
        "InChIKey": null,
        "Canonical SMILES": "O=C1C=2C(O)=CC(O)=CC2OC(C3=CC(=C(O)C=C3O)CC=C(C)CCC=C(C)C)C1",
        "Molecular Formula": "C<sub>25</sub>H<sub>28</sub>O<sub>6</sub>",
        "Molecular Mass": "424.49",
        "Melting Point": "121 °C"
    }
}