{
    "cas_no": "480-34-2",
    "key_name": "5-Hydroxy-7-methoxy-2-methylchromone",
    "cn_name": null,
    "alternate_name": "4<em>H</em>-1-Benzopyran-4-one, 5-hydroxy-7-methoxy-2-methyl-;Chromone, 5-hydroxy-7-methoxy-2-methyl-;5-Hydroxy-7-methoxy-2-methyl-4<em>H</em>-1-benzopyran-4-one;Eugenin;2-Methyl-7-methoxy-5-hydroxychromone;5-Hydroxy-7-methoxy-2-methylchromone",
    "duplicated_cas_no": "",
    "SMILES": "OC1=C2C(=CC(OC)=C1)OC(C)=CC2=O",
    "meta_data": {
        "InChI": "InChI=1S/C11H10O4/c1-6-3-8(12)11-9(13)4-7(14-2)5-10(11)15-6/h3-5,13H,1-2H3",
        "InChIKey": null,
        "Canonical SMILES": "O=C1C=C(OC=2C=C(OC)C=C(O)C12)C",
        "Molecular Formula": "C<sub>11</sub>H<sub>10</sub>O<sub>4</sub>",
        "Molecular Mass": "206.19",
        "Melting Point": "118-119 °C"
    }
}