{
    "cas_no": "29953-71-7",
    "key_name": "<em>trans</em>-3-Indoleacrylic acid",
    "cn_name": null,
    "alternate_name": "2-Propenoic acid, 3-(1<em>H</em>-indol-3-yl)-, (2<em>E</em>)-;Indole-3-acrylic acid, (<em>E</em>)-;2-Propenoic acid, 3-(1<em>H</em>-indol-3-yl)-, (<em>E</em>)-;(2<em>E</em>)-3-(1<em>H</em>-Indol-3-yl)-2-propenoic acid;<em>trans</em>-β-Indoleacrylic acid;<em>trans</em>-3-Indoleacrylic acid;(<em>E</em>)-3-(1<em>H</em>-Indol-3-yl)-2-propenoic acid;(E)-3-(1<em>H</em>-Indol-3-yl)prop-2-enoic acid;<em>trans</em>-3-(1<em>H</em>-Indol-3-yl)prop-2-enoic acid",
    "duplicated_cas_no": "",
    "SMILES": "C(=C/C(O)=O)\\C=1C=2C(NC1)=CC=CC2",
    "meta_data": {
        "InChI": "InChI=1S/C11H9NO2/c13-11(14)6-5-8-7-12-10-4-2-1-3-9(8)10/h1-7,12H,(H,13,14)/b6-5+",
        "InChIKey": null,
        "Canonical SMILES": "O=C(O)C=CC1=CNC=2C=CC=CC12",
        "Molecular Formula": "C<sub>11</sub>H<sub>9</sub>NO<sub>2</sub>",
        "Molecular Mass": "187.19",
        "Melting Point": "195-196 °C"
    }
}