{
    "cas_no": "76-38-0",
    "key_name": "Methoxyflurane",
    "cn_name": "甲氧氟烷;二氟二氯乙基甲醚;2,2-二氯-1,1-二氟乙基甲基醚;",
    "alternate_name": "Ethane, 2,2-dichloro-1,1-difluoro-1-methoxy-;Ether, 2,2-dichloro-1,1-difluoroethyl methyl;2,2-Dichloro-1,1-difluoro-1-methoxyethane;2,2-Dichloro-1,1-difluoroethyl methyl ether;1,1-Dichloro-2,2-difluoro-2-methoxyethane;Methoxane;Methoxyfluran;Methoxyflurane;Methyl 1,1-difluoro-2,2-dichloroethyl ether;Penthrane;Pentrane;Inhalan;Metoxfluran;Metoxifluran;Pentran;Analgizer;Anecotan;Methoflurane;Metofane;NSC 110432;DA 759;Penthrox;MeSH ID: D008733",
    "duplicated_cas_no": "8056-95-9",
    "SMILES": "C(C(Cl)Cl)(OC)(F)F",
    "meta_data": {
        "InChI": "InChI=1S/C3H4Cl2F2O/c1-8-3(6,7)2(4)5/h2H,1H3",
        "InChIKey": null,
        "Canonical SMILES": "FC(F)(OC)C(Cl)Cl",
        "Molecular Formula": "C<sub>3</sub>H<sub>4</sub>Cl<sub>2</sub>F<sub>2</sub>O",
        "Molecular Mass": "164.97",
        "Boiling Point": "105 °C",
        "Melting Point": "-35 °C",
        "Density": "1.4226 g/cm³ @ Temp: 20 °C"
    }
}