{
    "cas_no": "874-05-5",
    "key_name": "1<em>H</em>-Indazol-3-amine",
    "cn_name": null,
    "alternate_name": "1<em>H</em>-Indazol-3-amine;1<em>H</em>-Indazole, 3-amino-;3-Aminoindazole;3-Indazolamine;3-Amino-1<em>H</em>-indazole;1<em>H</em>-Indazol-3-ylamine;NSC 348887;NSC 44677",
    "duplicated_cas_no": "",
    "SMILES": "NC=1C=2C(=CC=CC2)NN1",
    "meta_data": {
        "InChI": "InChI=1S/C7H7N3/c8-7-5-3-1-2-4-6(5)9-10-7/h1-4H,(H3,8,9,10)",
        "InChIKey": null,
        "Canonical SMILES": "N=1NC=2C=CC=CC2C1N",
        "Molecular Formula": "C<sub>7</sub>H<sub>7</sub>N<sub>3</sub>",
        "Molecular Mass": "133.15",
        "Melting Point": "153-154 °C"
    }
}