{
    "cas_no": "7803-55-6",
    "key_name": "Ammonium vanadium oxide ((NH<sub>4</sub>)VO<sub>3</sub>)",
    "cn_name": "偏钒酸铵;",
    "alternate_name": "Vanadate (VO<sub>3</sub><sup>1-</sup>), ammonium (1:1);Vanadic acid (HVO<sub>3</sub>), ammonium salt;Ammonium vanadate(V) ((NH<sub>4</sub>)VO<sub>3</sub>);Vanadate (VO<sub>3</sub><sup>1-</sup>), ammonium;Ammonium metavanadate;Ammonium metavanadate (NH<sub>4</sub>VO<sub>3</sub>);Ammonium vanadium trioxide;Ammonium vanadate;Ammonium monovanadate;Ammonium vanadate ((NH<sub>4</sub>)VO<sub>3</sub>);Ammonium trioxovanadate(1-);Ammonium vanadate (VO<sub>3</sub><sup>1-</sup>);Ammonium trioxovanadate;Ammonium vanadium oxide ((NH<sub>4</sub>)VO<sub>3</sub>)",
    "duplicated_cas_no": "72901-37-2;72901-38-3;72901-40-7;72901-41-8;72901-42-9;105659-35-6;1032826-40-6;1270047-64-7;1314012-57-1;1353941-38-4",
    "SMILES": "[V-](=O)(=O)=O.[NH4+]",
    "meta_data": {
        "InChI": "InChI=1S/H3N.3O.V/h1H3;;;;/q;;;;-1/p+1",
        "InChIKey": null,
        "Canonical SMILES": "O=[V-](=O)=O.[NH4+]",
        "Molecular Formula": "H<sub>4</sub>N.O<sub>3</sub>V",
        "Molecular Mass": "",
        "Melting Point": "200 °C (decomp)",
        "Density": "2.326 g/cm³"
    }
}