{
    "cas_no": "1204-23-5",
    "key_name": "1-Methyl-7-methoxy-2-tetralone",
    "cn_name": null,
    "alternate_name": "2(1<em>H</em>)-Naphthalenone, 3,4-dihydro-7-methoxy-1-methyl-;3,4-Dihydro-7-methoxy-1-methyl-2(1<em>H</em>)-naphthalenone;1-Methyl-7-methoxy-2-tetralone;1-Methyl-7-methoxy-3,4-dihydro-2(1<em>H</em>)-naphthalenone;7-Methoxy-1-methyl-2-tetralone;1-Methyl-7-methoxy-β-tetralone",
    "duplicated_cas_no": "58209-23-7",
    "SMILES": "CC1C=2C(=CC=C(OC)C2)CCC1=O",
    "meta_data": {
        "InChI": "InChI=1S/C12H14O2/c1-8-11-7-10(14-2)5-3-9(11)4-6-12(8)13/h3,5,7-8H,4,6H2,1-2H3",
        "InChIKey": null,
        "Canonical SMILES": "O=C1CCC2=CC=C(OC)C=C2C1C",
        "Molecular Formula": "C<sub>12</sub>H<sub>14</sub>O<sub>2</sub>",
        "Molecular Mass": "190.24",
        "Boiling Point": "125-126 °C @ Press: 0.8 Torr"
    }
}