{
    "cas_no": "5779-93-1",
    "key_name": "2,3-Dimethylbenzaldehyde",
    "cn_name": null,
    "alternate_name": "Benzaldehyde, 2,3-dimethyl-;2,3-Dimethylbenzaldehyde;Hemellitaldehyde",
    "duplicated_cas_no": "",
    "SMILES": "C(=O)C1=C(C)C(C)=CC=C1",
    "meta_data": {
        "InChI": "InChI=1S/C9H10O/c1-7-4-3-5-9(6-10)8(7)2/h3-6H,1-2H3",
        "InChIKey": null,
        "Canonical SMILES": "O=CC1=CC=CC(=C1C)C",
        "Molecular Formula": "C<sub>9</sub>H<sub>10</sub>O",
        "Molecular Mass": "134.18",
        "Boiling Point": "86-88 °C @ Press: 10 Torr"
    }
}