{
    "cas_no": "616-86-4",
    "key_name": "4-Ethoxy-2-nitroaniline",
    "cn_name": "间硝基对氨基苯乙醚;4-乙氧基-2-硝基苯胺;",
    "alternate_name": "Benzenamine, 4-ethoxy-2-nitro-;<em>p</em>-Phenetidine, 2-nitro-;4-Ethoxy-2-nitrobenzenamine;4-Amino-3-nitrophenetole;4-Ethoxy-2-nitroaniline;2-Nitro-<em>p</em>-phenetidine;NSC 1320;NSC 58160;(4-Ethoxy-2-nitrophenyl)amine;2-Nitro-4-ethoxyaniline",
    "duplicated_cas_no": "",
    "SMILES": "N(=O)(=O)C1=CC(OCC)=CC=C1N",
    "meta_data": {
        "InChI": "InChI=1S/C8H10N2O3/c1-2-13-6-3-4-7(9)8(5-6)10(11)12/h3-5H,2,9H2,1H3",
        "InChIKey": null,
        "Canonical SMILES": "O=N(=O)C1=CC(OCC)=CC=C1N",
        "Molecular Formula": "C<sub>8</sub>H<sub>10</sub>N<sub>2</sub>O<sub>3</sub>",
        "Molecular Mass": "182.18",
        "Melting Point": "109-110 °C"
    }
}