{
    "cas_no": "870718-06-2",
    "key_name": "(2,4-Difluoro-3-formylphenyl)boronic acid",
    "cn_name": null,
    "alternate_name": "Boronic acid, <em>B</em>-(2,4-difluoro-3-formylphenyl)-;Boronic acid, (2,4-difluoro-3-formylphenyl)-;<em>B</em>-(2,4-Difluoro-3-formylphenyl)boronic acid;(2,4-Difluoro-3-formylphenyl)boronic acid;2,4-Difluoro-3-formylbenzeneboronic acid",
    "duplicated_cas_no": "",
    "SMILES": "C(=O)C1=C(F)C(B(O)O)=CC=C1F",
    "meta_data": {
        "InChI": "InChI=1S/C7H5BF2O3/c9-6-2-1-5(8(12)13)7(10)4(6)3-11/h1-3,12-13H",
        "InChIKey": null,
        "Canonical SMILES": "O=CC=1C(F)=CC=C(B(O)O)C1F",
        "Molecular Formula": "C<sub>7</sub>H<sub>5</sub>BF<sub>2</sub>O<sub>3</sub>",
        "Molecular Mass": "185.92",
        "Melting Point": "225-230 °C"
    }
}