{
    "cas_no": "58446-52-9",
    "key_name": "1-Phenyl-1,3-eicosanedione",
    "cn_name": "硬脂酰苯甲酰甲烷;",
    "alternate_name": "1,3-Eicosanedione, 1-phenyl-;1-Phenyl-1,3-eicosanedione;1-Phenyleicosane-1,3-dione;β-Stearoylacetophenone;Benzoylstearoylmethane;Karenz DK 1;Rhodiastab 50;Stearoylbenzoylmethane;SBM;AD 157;Rhodiastab 55P;1-Heptadecyl-3-phenylpropanedione;1-Phenylicosane-1,3-dione",
    "duplicated_cas_no": "",
    "SMILES": "C(CC(CCCCCCCCCCCCCCCCC)=O)(=O)C1=CC=CC=C1",
    "meta_data": {
        "InChI": "InChI=1S/C26H42O2/c1-2-3-4-5-6-7-8-9-10-11-12-13-14-15-19-22-25(27)23-26(28)24-20-17-16-18-21-24/h16-18,20-21H,2-15,19,22-23H2,1H3",
        "InChIKey": null,
        "Canonical SMILES": "O=C(C=1C=CC=CC1)CC(=O)CCCCCCCCCCCCCCCCC",
        "Molecular Formula": "C<sub>26</sub>H<sub>42</sub>O<sub>2</sub>",
        "Molecular Mass": "386.61",
        "Melting Point": "68-69 °C"
    }
}