{
    "cas_no": "121-97-1",
    "key_name": "4′-Methoxypropiophenone",
    "cn_name": "4\"-甲氧基苯丙酮;对甲氧基苯丙酮;",
    "alternate_name": "1-Propanone, 1-(4-methoxyphenyl)-;Propiophenone, 4′-methoxy-;Propiophenone, <em>p</em>-methoxy-;1-(4-Methoxyphenyl)-1-propanone;4′-Methoxypropiophenone;<em>p</em>-Methoxypropiophenone;Ethyl 4-methoxyphenyl ketone;4-Propanoylanisole;NSC 11834;Ethyl <em>p</em>-methoxyphenyl ketone;1-Methoxy-4-propanoylbenzene;1-Propanoyl-4-methoxybenzene",
    "duplicated_cas_no": "",
    "SMILES": "C(CC)(=O)C1=CC=C(OC)C=C1",
    "meta_data": {
        "InChI": "InChI=1S/C10H12O2/c1-3-10(11)8-4-6-9(12-2)7-5-8/h4-7H,3H2,1-2H3",
        "InChIKey": null,
        "Canonical SMILES": "O=C(C1=CC=C(OC)C=C1)CC",
        "Molecular Formula": "C<sub>10</sub>H<sub>12</sub>O<sub>2</sub>",
        "Molecular Mass": "164.20",
        "Boiling Point": "125 °C @ Press: 4 Torr",
        "Melting Point": "24-26 °C"
    }
}