{
    "cas_no": "14698-29-4",
    "key_name": "Oxolinic acid",
    "cn_name": "噁喹酸;奥索利酸;1-乙基-6,7-亚甲氧基-4-喹啉酮-3-羧酸;",
    "alternate_name": "1,3-Dioxolo[4,5-<em>g</em>]quinoline-7-carboxylic acid, 5-ethyl-5,8-dihydro-8-oxo-;5-Ethyl-5,8-dihydro-8-oxo-1,3-dioxolo[4,5-<em>g</em>]quinoline-7-carboxylic acid;W 4565;1-Ethyl-1,4-dihydro-6,7-methylenedioxy-4-oxo-3-quinolinecarboxylic acid;Oxolinic acid;1-Ethyl-6,7-methylenedioxy-4-quinolone-3-carboxylic acid;Prodoxal;Ultibid;Gramurin;Dioxacin;Starner;Starner 20WP;Inoxyl;Uroxin;Utibid;Uroxol;NSC 110364;Pietil;Uro-Alvar;Emyrenil;Urotrate;Uritrate;Prodoxol;Nidantin;Urinox;Ossian;Oxoboi;S 0208;MeSH ID: D010093",
    "duplicated_cas_no": "81032-31-7;1135442-99-7",
    "SMILES": "C(C)N1C2=C(C=C3C(=C2)OCO3)C(=O)C(C(O)=O)=C1",
    "meta_data": {
        "InChI": "InChI=1S/C13H11NO5/c1-2-14-5-8(13(16)17)12(15)7-3-10-11(4-9(7)14)19-6-18-10/h3-5H,2,6H2,1H3,(H,16,17)",
        "InChIKey": null,
        "Canonical SMILES": "O=C(O)C1=CN(C2=CC=3OCOC3C=C2C1=O)CC",
        "Molecular Formula": "C<sub>13</sub>H<sub>11</sub>NO<sub>5</sub>",
        "Molecular Mass": "261.23",
        "Melting Point": "314-316 °C"
    }
}