{
    "cas_no": "647-42-7",
    "key_name": "2-(Perfluorohexyl)ethanol",
    "cn_name": "3,3,4,4,5,5,6,6,7,7,8,8,8-十三氟-1-辛醇;",
    "alternate_name": "1-Octanol, 3,3,4,4,5,5,6,6,7,7,8,8,8-tridecafluoro-;3,3,4,4,5,5,6,6,7,7,8,8,8-Tridecafluoro-1-octanol;2-(Perfluorohexyl)ethyl alcohol;2-(Perfluorohexyl)ethanol;2-(Tridecafluorohexyl)ethanol;1,1,2,2-Tetrahydroperfluorooctanol;1<em>H</em>,1<em>H</em>,2<em>H</em>,2<em>H</em>-Perfluorooctan-1-ol;Perfluorohexylethanol;1<em>H</em>,1<em>H</em>,2<em>H</em>,2<em>H</em>-Perfluorooctanol;Fluowet EA 600;A 1620;3,3,4,4,5,5,6,6,7,7,8,8,8-Tridecafluorooctanol;1<em>H</em>,1<em>H</em>,2<em>H</em>,2<em>H</em>-Tridecafluorooctanol;1,1,2,2-Tetrahydrotridecafluorooctanol;1<em>H</em>,1<em>H</em>,2<em>H</em>,2<em>H</em>-Tridecafluoro-<em>n</em>-octanol;1<em>H</em>,1<em>H</em>,2<em>H</em>,2<em>H</em>-Perfluoro-1-octanol;1,1,2,2-Tetrahydroperfluorooctan-1-ol;Foralkyl EOH 6;6:2 FTOH;Cheminox FA 6;6:2 Fluorotelomer alcohol;1<em>H</em>,1<em>H</em>,2<em>H</em>,2<em>H</em>-Tetrahydroperfluoro-1-octanol;1<em>H</em>,1<em>H</em>,2<em>H</em>,2<em>H</em>-Tridecafluoro-1-octanol;TEOH 6;Capstone 62AL;S 104;S 104 (fluorocompound);Capstone AL 62;H 829808",
    "duplicated_cas_no": "119937-79-0",
    "SMILES": "C(C(C(C(F)(F)F)(F)F)(F)F)(C(C(CCO)(F)F)(F)F)(F)F",
    "meta_data": {
        "InChI": "InChI=1S/C8H5F13O/c9-3(10,1-2-22)4(11,12)5(13,14)6(15,16)7(17,18)8(19,20)21/h22H,1-2H2",
        "InChIKey": null,
        "Canonical SMILES": "FC(F)(F)C(F)(F)C(F)(F)C(F)(F)C(F)(F)C(F)(F)CCO",
        "Molecular Formula": "C<sub>8</sub>H<sub>5</sub>F<sub>13</sub>O",
        "Molecular Mass": "364.10",
        "Boiling Point": "88-95 °C @ Press: 230-280 Torr",
        "Density": "1.6782 g/cm³ @ Temp: 25 °C"
    }
}