{
    "cas_no": "5445-51-2",
    "key_name": "1,1-Cyclobutanedicarboxylic acid",
    "cn_name": "1,1-环丁基二甲酸;1,1-环丁烷二羧酸;",
    "alternate_name": "1,1-Cyclobutanedicarboxylic acid;1,1-Dicarboxycyclobutane;1-Carboxycyclobutanecarboxylic acid;NSC 22073",
    "duplicated_cas_no": "861436-70-6;2244882-04-8",
    "SMILES": "C(O)(=O)C1(C(O)=O)CCC1",
    "meta_data": {
        "InChI": "InChI=1S/C6H8O4/c7-4(8)6(5(9)10)2-1-3-6/h1-3H2,(H,7,8)(H,9,10)",
        "InChIKey": null,
        "Canonical SMILES": "O=C(O)C1(C(=O)O)CCC1",
        "Molecular Formula": "C<sub>6</sub>H<sub>8</sub>O<sub>4</sub>",
        "Molecular Mass": "144.13",
        "Melting Point": "1457.0-1458.5 °C (decomp)"
    }
}