{
    "cas_no": "42598-96-9",
    "key_name": "Heptyl 3-oxobutanoate",
    "cn_name": "乙酰乙酸正庚酯;",
    "alternate_name": "Butanoic acid, 3-oxo-, heptyl ester;Heptyl 3-oxobutanoate;Heptyl acetoacetate;<em>n</em>-Heptyl acetylacetate;NSC 33607",
    "duplicated_cas_no": "",
    "SMILES": "C(OCCCCCCC)(CC(C)=O)=O",
    "meta_data": {
        "InChI": "InChI=1S/C11H20O3/c1-3-4-5-6-7-8-14-11(13)9-10(2)12/h3-9H2,1-2H3",
        "InChIKey": null,
        "Canonical SMILES": "O=C(OCCCCCCC)CC(=O)C",
        "Molecular Formula": "C<sub>11</sub>H<sub>20</sub>O<sub>3</sub>",
        "Molecular Mass": "200.27",
        "Boiling Point": "78-80 °C @ Press: 0.4 Torr"
    }
}