{
    "cas_no": "610-22-0",
    "key_name": "Dimethyl 4-nitrophthalate",
    "cn_name": "4-硝基邻苯二甲酸二甲酯;",
    "alternate_name": "1,2-Benzenedicarboxylic acid, 4-nitro-, 1,2-dimethyl ester;Phthalic acid, 4-nitro-, dimethyl ester;1,2-Benzenedicarboxylic acid, 4-nitro-, dimethyl ester;Dimethyl 4-nitrophthalate;4-Nitrophthalic acid dimethyl ester;1,2-Bis(methoxycarbonyl)-4-nitrobenzene;Dimethyl 4-nitrobenzene-1,2-dicarboxylate;4-Nitro-1,2-benzenedicarboxylic acid dimethyl ester;NSC 9410;1,2-Dimethyl 4-nitrobenzene-1,2-dicarboxylate",
    "duplicated_cas_no": "",
    "SMILES": "C(OC)(=O)C1=C(C(OC)=O)C=CC(N(=O)=O)=C1",
    "meta_data": {
        "InChI": "InChI=1S/C10H9NO6/c1-16-9(12)7-4-3-6(11(14)15)5-8(7)10(13)17-2/h3-5H,1-2H3",
        "InChIKey": null,
        "Canonical SMILES": "O=C(OC)C1=CC=C(C=C1C(=O)OC)N(=O)=O",
        "Molecular Formula": "C<sub>10</sub>H<sub>9</sub>NO<sub>6</sub>",
        "Molecular Mass": "239.18",
        "Boiling Point": "192-195 °C @ Press: 25 Torr",
        "Melting Point": "65 °C"
    }
}