{
    "cas_no": "88150-42-9",
    "key_name": "Amlodipine",
    "cn_name": "氨氯地平;6-甲基-2-(2-氨基乙氧基)甲基-4-(2-氯苯基)-1,4-二氢-3,5-吡啶二甲酸甲乙酯;",
    "alternate_name": "3,5-Pyridinedicarboxylic acid, 2-[(2-aminoethoxy)methyl]-4-(2-chlorophenyl)-1,4-dihydro-6-methyl-, 3-ethyl 5-methyl ester;Amlodipine;Racemic Amlodipine;Pelmec;2-[(2-Aminoethoxy)methyl]-4-(2-chlorophenyl)-3-(ethoxycarbonyl)-5-(methoxycarbonyl)-6-methyl-1,4-dihydropyridine;(<em>R</em>,<em>S</em>)-Amlodipine;Amlopres;Intervask;(±)-Amlodipine;Adipin;Sofvasc;Egiramlon;2-(2-Amino-ethoxymethyl)-4-(2-chloro-phenyl)-6-methyl-1,4-dihydro-pyridine-3,5-dicarboxylic acid 3-ethyl ester 5-methyl ester;3-<em>O</em>-Ethyl 5-<em>O</em>-methyl 2-(2-aminoethoxymethyl)-4-(2-chlorophenyl)-6-methyl-1,4-dihydropyridine-3,5-dicarboxylate;MeSH ID: D017311",
    "duplicated_cas_no": "103069-18-7",
    "SMILES": "C(OCC)(=O)C=1C(C(C(OC)=O)=C(C)NC1COCCN)C2=C(Cl)C=CC=C2",
    "meta_data": {
        "InChI": "InChI=1S/C20H25ClN2O5/c1-4-28-20(25)18-15(11-27-10-9-22)23-12(2)16(19(24)26-3)17(18)13-7-5-6-8-14(13)21/h5-8,17,23H,4,9-11,22H2,1-3H3",
        "InChIKey": null,
        "Canonical SMILES": "O=C(OC)C1=C(NC(=C(C(=O)OCC)C1C=2C=CC=CC2Cl)COCCN)C",
        "Molecular Formula": "C<sub>20</sub>H<sub>25</sub>ClN<sub>2</sub>O<sub>5</sub>",
        "Molecular Mass": "408.88",
        "Melting Point": "178-180 °C"
    }
}