{
    "cas_no": "93-69-6",
    "key_name": "<em>o</em>-Tolylbiguanide",
    "cn_name": "1-邻甲苯双胍;1-邻甲苯基缩二胍;",
    "alternate_name": "Imidodicarbonimidic diamide, <em>N</em>-(2-methylphenyl)-;Biguanide, 1-<em>o</em>-tolyl-;<em>N</em>-(2-Methylphenyl)imidodicarbonimidic diamide;Sopanox;<em>o</em>-Tolyldiguanide;<em>o</em>-Tolylbiguanide;Aliant;1-<em>o</em>-Tolylbiguanide;Vulkacit 1000;Eponoc B;Nocceler BG;Accelerator 1000;Proventine 17;1-<em>o</em>-Tolyldiguanide;NSC 164906;NSC 51980;Dimotol;Aradur 2844;Casamine OTB;Accelerator BG;1-(Diaminomethylidene)-2-(2-methylphenyl)guanidine;1-Carbamimidamido-<em>N</em>-(2-methylphenyl)methanimidamide;1-(2-Methylphenyl)biguanide;Dyhard OTB",
    "duplicated_cas_no": "92679-92-0",
    "SMILES": "N(C(NC(=N)N)=N)C1=C(C)C=CC=C1",
    "meta_data": {
        "InChI": "InChI=1S/C9H13N5/c1-6-4-2-3-5-7(6)13-9(12)14-8(10)11/h2-5H,1H3,(H6,10,11,12,13,14)",
        "InChIKey": null,
        "Canonical SMILES": "N=C(N)NC(=N)NC=1C=CC=CC1C",
        "Molecular Formula": "C<sub>9</sub>H<sub>13</sub>N<sub>5</sub>",
        "Molecular Mass": "191.23",
        "Melting Point": "142-144 °C"
    }
}