{
    "cas_no": "3109-63-5",
    "key_name": "Tetrabutylammonium hexafluorophosphate",
    "cn_name": "四丁基六氟磷酸铵;六氟磷酸四丁胺;",
    "alternate_name": "1-Butanaminium, <em>N</em>,<em>N</em>,<em>N</em>-tributyl-, hexafluorophosphate(1-) (1:1);Ammonium, tetrabutyl-, hexafluorophosphate(1-);1-Butanaminium, <em>N</em>,<em>N</em>,<em>N</em>-tributyl-, hexafluorophosphate(1-);Tetrabutylammonium hexafluorophosphate;Phosphate(1-), hexafluoro-, tetrabutylammonium;Phosphate(1-), hexafluoro-, <em>N</em>,<em>N</em>,<em>N</em>-tributyl-1-butanaminium;Tetra-<em>n</em>-butylammonium hexafluorophosphate;Tetrabutylammonium hexafluorophosphate(1-);Tetra-<em>n</em>-butylammonium hexaflurophosphate;TBAPF<sub>6</sub>",
    "duplicated_cas_no": "856583-91-0",
    "SMILES": "[P+5]([F-])([F-])([F-])([F-])([F-])[F-].[N+](CCCC)(CCCC)(CCCC)CCCC",
    "meta_data": {
        "InChI": "InChI=1S/C16H36N.F6P/c1-5-9-13-17(14-10-6-2,15-11-7-3)16-12-8-4;1-7(2,3,4,5)6/h5-16H2,1-4H3;/q+1;-1",
        "InChIKey": null,
        "Canonical SMILES": "[F-][P+5]([F-])([F-])([F-])([F-])[F-].CCCC[N+](CCCC)(CCCC)CCCC",
        "Molecular Formula": "C<sub>16</sub>H<sub>36</sub>N.F<sub>6</sub>P",
        "Molecular Mass": "",
        "Melting Point": "243-246 °C"
    }
}