{
    "cas_no": "18880-05-2",
    "key_name": "Phosphonium, [(3-methoxyphenyl)methyl]triphenyl-, chloride (1:1)",
    "cn_name": "3-甲氧基苄基三苯基氯化鏻;",
    "alternate_name": "Phosphonium, [(3-methoxyphenyl)methyl]triphenyl-, chloride (1:1);Phosphonium, (<em>m</em>-methoxybenzyl)triphenyl-, chloride;Phosphonium, [(3-methoxyphenyl)methyl]triphenyl-, chloride;3-Methoxybenzyltriphenylphosphonium chloride",
    "duplicated_cas_no": "104745-10-0;33223-21-1",
    "SMILES": "[P+](CC1=CC(OC)=CC=C1)(C2=CC=CC=C2)(C3=CC=CC=C3)C4=CC=CC=C4.[Cl-]",
    "meta_data": {
        "InChI": "InChI=1S/C26H24OP.ClH/c1-27-23-13-11-12-22(20-23)21-28(24-14-5-2-6-15-24,25-16-7-3-8-17-25)26-18-9-4-10-19-26;/h2-20H,21H2,1H3;1H/q+1;/p-1",
        "InChIKey": null,
        "Canonical SMILES": "[Cl-].O(C1=CC=CC(=C1)C[P+](C=2C=CC=CC2)(C=3C=CC=CC3)C=4C=CC=CC4)C",
        "Molecular Formula": "C<sub>26</sub>H<sub>24</sub>OP.Cl",
        "Molecular Mass": "",
        "Melting Point": "271-272 °C"
    }
}