{
    "cas_no": "79-05-0",
    "key_name": "Propionamide",
    "cn_name": "丙酰胺;",
    "alternate_name": "Propanamide;Propionamide;Propionic acid amide;Propionic amide;Propionimidic acid;Propanimidic acid;Propylamide;NSC 38708",
    "duplicated_cas_no": "",
    "SMILES": "C(CC)(N)=O",
    "meta_data": {
        "InChI": "InChI=1S/C3H7NO/c1-2-3(4)5/h2H2,1H3,(H2,4,5)",
        "InChIKey": null,
        "Canonical SMILES": "O=C(N)CC",
        "Molecular Formula": "C<sub>3</sub>H<sub>7</sub>NO",
        "Molecular Mass": "73.09",
        "Boiling Point": "213 °C",
        "Melting Point": "81.3 °C",
        "Density": "1.010 g/cm³ @ Temp: 20 °C"
    }
}