{
    "cas_no": "778-82-5",
    "key_name": "Ethyl 1<em>H</em>-indole-3-acetate",
    "cn_name": "吲哚-3-醋酸乙酯;",
    "alternate_name": "1<em>H</em>-Indole-3-acetic acid, ethyl ester;Indole-3-acetic acid, ethyl ester;Ethyl 1<em>H</em>-indole-3-acetate;Ethyl indole-3-acetate;Ethyl β-indolylacetate;Ethyl indol-3-ylacetate;IAA ethyl ester;3-[(Ethoxycarbonyl)methyl]indole;NSC 38002;Ethyl 2-(1<em>H</em>-indol-3-yl)acetate;Ethyl 2-(indol-3-yl)acetate;(1<em>H</em>-Indol-3-yl)acetic acid ethyl ester;Ethyl (1<em>H</em>-indol-3-yl)acetate",
    "duplicated_cas_no": "",
    "SMILES": "C(C(OCC)=O)C=1C=2C(NC1)=CC=CC2",
    "meta_data": {
        "InChI": "InChI=1S/C12H13NO2/c1-2-15-12(14)7-9-8-13-11-6-4-3-5-10(9)11/h3-6,8,13H,2,7H2,1H3",
        "InChIKey": null,
        "Canonical SMILES": "O=C(OCC)CC1=CNC=2C=CC=CC21",
        "Molecular Formula": "C<sub>12</sub>H<sub>13</sub>NO<sub>2</sub>",
        "Molecular Mass": "203.24",
        "Boiling Point": "164-166 °C @ Press: 1 Torr",
        "Melting Point": "119.5 °C"
    }
}