{
    "cas_no": "492-38-6",
    "key_name": "α-Phenylacrylic acid",
    "cn_name": "2-苯基丙烯酸;阿托酸;",
    "alternate_name": "Benzeneacetic acid, α-methylene-;Atropic acid;α-Methylenebenzeneacetic acid;α-Phenylacrylic acid;2-Propenoic acid, 2-phenyl-;2-Phenylacrylic acid;2-Phenylprop-2-enoic acid;NSC 20987",
    "duplicated_cas_no": "2222271-02-3",
    "SMILES": "C(C(O)=O)(=C)C1=CC=CC=C1",
    "meta_data": {
        "InChI": "InChI=1S/C9H8O2/c1-7(9(10)11)8-5-3-2-4-6-8/h2-6H,1H2,(H,10,11)",
        "InChIKey": null,
        "Canonical SMILES": "O=C(O)C(=C)C=1C=CC=CC1",
        "Molecular Formula": "C<sub>9</sub>H<sub>8</sub>O<sub>2</sub>",
        "Molecular Mass": "148.16",
        "Melting Point": "106.5 °C"
    }
}