{
    "cas_no": "354-61-0",
    "key_name": "1,2-Dichloro-1,1,2-trifluoro-2-iodoethane",
    "cn_name": "1,2-二氯-2-碘-1,1,2-三氟乙烷;1,2-二氯-2-碘-1,1,2-三氟乙烷;1,2-二氯-2-碘-1,1,2-三氟乙烷, TECH;",
    "alternate_name": "Ethane, 1,2-dichloro-1,1,2-trifluoro-2-iodo-;1,2-Dichloro-1,1,2-trifluoro-2-iodoethane;1,2-Dichloro-1,2,2-trifluoro-1-iodoethane;1,2-Dichloro-1-iodo-1,2,2-trifluoroethane;1,2-Dichloro-2-iodo-1,1,2-trifluoroethane;1,2-Dichloro-1-iodotrifluoroethane;1-Iodo-1,2-dichloro-1,2,2-trifluoroethane",
    "duplicated_cas_no": "",
    "SMILES": "C(C(Cl)(F)I)(Cl)(F)F",
    "meta_data": {
        "InChI": "InChI=1S/C2Cl2F3I/c3-1(5,6)2(4,7)8",
        "InChIKey": null,
        "Canonical SMILES": "FC(F)(Cl)C(F)(Cl)I",
        "Molecular Formula": "C<sub>2</sub>Cl<sub>2</sub>F<sub>3</sub>I",
        "Molecular Mass": "278.83",
        "Boiling Point": "99 °C",
        "Density": "2.1959 g/cm³ @ Temp: 25 °C"
    }
}