{
    "cas_no": "7781-49-9",
    "key_name": "Iodonitrotetrazolium formazan",
    "cn_name": "甲臜;甲臜;",
    "alternate_name": "Methanone, [2-(4-iodophenyl)diazenyl]phenyl-, 2-(4-nitrophenyl)hydrazone;Formazan, 1-(<em>p</em>-iodophenyl)-5-(<em>p</em>-nitrophenyl)-3-phenyl-;Formazan, 1-(4-iodophenyl)-5-(4-nitrophenyl)-3-phenyl-;Toluene, α-[(<em>p</em>-iodophenyl)azo]-α-[(<em>p</em>-nitrophenyl)hydrazono]-;Diazene, (4-iodophenyl)[[(4-nitrophenyl)hydrazono]phenylmethyl]-;Iodonitrotetrazolium formazan;INT-F",
    "duplicated_cas_no": "",
    "SMILES": "C(=NNC1=CC=C(N(=O)=O)C=C1)(N=NC2=CC=C(I)C=C2)C3=CC=CC=C3",
    "meta_data": {
        "InChI": "InChI=1S/C19H14IN5O2/c20-15-6-8-16(9-7-15)21-23-19(14-4-2-1-3-5-14)24-22-17-10-12-18(13-11-17)25(26)27/h1-13,22H",
        "InChIKey": null,
        "Canonical SMILES": "O=N(=O)C1=CC=C(C=C1)NN=C(N=NC2=CC=C(I)C=C2)C=3C=CC=CC3",
        "Molecular Formula": "C<sub>19</sub>H<sub>14</sub>IN<sub>5</sub>O<sub>2</sub>",
        "Molecular Mass": "471.25",
        "Melting Point": "184-187 °C"
    }
}