{
    "cas_no": "703-12-8",
    "key_name": "4-Bromo-<em>N</em>-methylbenzenesulfonamide",
    "cn_name": "N-甲基-4-溴苯磺酰胺;",
    "alternate_name": "Benzenesulfonamide, 4-bromo-<em>N</em>-methyl-;Benzenesulfonamide, <em>p</em>-bromo-<em>N</em>-methyl-;4-Bromo-<em>N</em>-methylbenzenesulfonamide;<em>N</em>-Methyl-<em>p</em>-bromobenzenesulfonamide;<em>p</em>-Bromo-<em>N</em>-methylbenzenesulfonamide;NSC 400647;<em>N</em>-Methyl-4-bromobenzenesulfonamide;1-Bromo-4-(methylsulfamoyl)benzene",
    "duplicated_cas_no": "",
    "SMILES": "S(NC)(=O)(=O)C1=CC=C(Br)C=C1",
    "meta_data": {
        "InChI": "InChI=1S/C7H8BrNO2S/c1-9-12(10,11)7-4-2-6(8)3-5-7/h2-5,9H,1H3",
        "InChIKey": null,
        "Canonical SMILES": "O=S(=O)(NC)C1=CC=C(Br)C=C1",
        "Molecular Formula": "C<sub>7</sub>H<sub>8</sub>BrNO<sub>2</sub>S",
        "Molecular Mass": "250.11",
        "Melting Point": "76-77 °C"
    }
}