{
    "cas_no": "7463-51-6",
    "key_name": "4-Bromo-3,5-dimethylphenol",
    "cn_name": "4-溴-3,5-二甲酚;",
    "alternate_name": "Phenol, 4-bromo-3,5-dimethyl-;3,5-Xylenol, 4-bromo-;4-Bromo-3,5-dimethylphenol;4-Bromo-3,5-xylenol;NSC 404385;3,5-Dimethyl-4-bromophenol;2-Bromo-3-methyl-5-hydroxytoluene",
    "duplicated_cas_no": "",
    "SMILES": "BrC1=C(C)C=C(O)C=C1C",
    "meta_data": {
        "InChI": "InChI=1S/C8H9BrO/c1-5-3-7(10)4-6(2)8(5)9/h3-4,10H,1-2H3",
        "InChIKey": null,
        "Canonical SMILES": "BrC=1C(=CC(O)=CC1C)C",
        "Molecular Formula": "C<sub>8</sub>H<sub>9</sub>BrO",
        "Molecular Mass": "201.06",
        "Melting Point": "116 °C"
    }
}