{
    "cas_no": "1555-94-8",
    "key_name": "8-Ethoxyquinoline",
    "cn_name": "8-乙氧基喹啉;",
    "alternate_name": "Quinoline, 8-ethoxy-;8-Ethoxyquinoline;NSC 646914",
    "duplicated_cas_no": "",
    "SMILES": "O(CC)C=1C2=C(C=CC1)C=CC=N2",
    "meta_data": {
        "InChI": "InChI=1S/C11H11NO/c1-2-13-10-7-3-5-9-6-4-8-12-11(9)10/h3-8H,2H2,1H3",
        "InChIKey": null,
        "Canonical SMILES": "N1=CC=CC2=CC=CC(OCC)=C12",
        "Molecular Formula": "C<sub>11</sub>H<sub>11</sub>NO",
        "Molecular Mass": "173.21",
        "Boiling Point": "220 °C",
        "Melting Point": "285 °C"
    }
}