{
    "cas_no": "90-02-8",
    "key_name": "Salicylaldehyde",
    "cn_name": "2-羟基苯甲醛;邻羟基苯甲醛;水杨醛;",
    "alternate_name": "Benzaldehyde, 2-hydroxy-;Salicylaldehyde;2-Hydroxybenzaldehyde;Salicylal;Salicylic aldehyde;<em>o</em>-Formylphenol;2-Formylphenol;<em>o</em>-Hydroxybenzaldehyde;NSC 112278;NSC 49178;NSC 83559;NSC 83560;NSC 83561;NSC 83562;NSC 97202;2-Hydroxy-1-benzaldehyde",
    "duplicated_cas_no": "1563136-87-7",
    "SMILES": "C(=O)C1=C(O)C=CC=C1",
    "meta_data": {
        "InChI": "InChI=1S/C7H6O2/c8-5-6-3-1-2-4-7(6)9/h1-5,9H",
        "InChIKey": null,
        "Canonical SMILES": "O=CC=1C=CC=CC1O",
        "Molecular Formula": "C<sub>7</sub>H<sub>6</sub>O<sub>2</sub>",
        "Molecular Mass": "122.12",
        "Boiling Point": "197 °C @ Press: 760 Torr",
        "Melting Point": "-7 °C",
        "Density": "1.1674 g/cm³ @ Temp: 20 °C"
    }
}