{
    "cas_no": "263400-68-6",
    "key_name": "4-Chloro-7-hydroxy-6-methoxyquinazoline",
    "cn_name": null,
    "alternate_name": "7-Quinazolinol, 4-chloro-6-methoxy-;4-Chloro-6-methoxy-7-quinazolinol;4-Chloro-6-methoxyquinazolin-7-ol;4-Chloro-7-hydroxy-6-methoxyquinazoline",
    "duplicated_cas_no": "",
    "SMILES": "ClC=1C2=C(C=C(O)C(OC)=C2)N=CN1",
    "meta_data": {
        "InChI": "InChI=1S/C9H7ClN2O2/c1-14-8-2-5-6(3-7(8)13)11-4-12-9(5)10/h2-4,13H,1H3",
        "InChIKey": null,
        "Canonical SMILES": "ClC1=NC=NC=2C=C(O)C(OC)=CC12",
        "Molecular Formula": "C<sub>9</sub>H<sub>7</sub>ClN<sub>2</sub>O<sub>2</sub>",
        "Molecular Mass": "210.62",
        "Melting Point": "207-209 °C"
    }
}