{
    "cas_no": "19861-63-3",
    "key_name": "5-Amino-2,4-dichlorobenzoic acid",
    "cn_name": null,
    "alternate_name": "Benzoic acid, 5-amino-2,4-dichloro-;5-Amino-2,4-dichlorobenzoic acid",
    "duplicated_cas_no": "",
    "SMILES": "C(O)(=O)C1=C(Cl)C=C(Cl)C(N)=C1",
    "meta_data": {
        "InChI": "InChI=1S/C7H5Cl2NO2/c8-4-2-5(9)6(10)1-3(4)7(11)12/h1-2H,10H2,(H,11,12)",
        "InChIKey": null,
        "Canonical SMILES": "O=C(O)C1=CC(N)=C(Cl)C=C1Cl",
        "Molecular Formula": "C<sub>7</sub>H<sub>5</sub>Cl<sub>2</sub>NO<sub>2</sub>",
        "Molecular Mass": "206.03",
        "Melting Point": "196-197 °C"
    }
}