{
    "cas_no": "632-80-4",
    "key_name": "Tetraiodophthalic anhydride",
    "cn_name": "四碘邻苯二甲酸酐;四碘邻苯二甲酸酐;",
    "alternate_name": "1,3-Isobenzofurandione, 4,5,6,7-tetraiodo-;Phthalic anhydride, tetraiodo-;4,5,6,7-Tetraiodo-1,3-isobenzofurandione;Tetraiodophthalic anhydride;3,4,5,6-Tetraiodophthalic anhydride;NSC 26423",
    "duplicated_cas_no": "",
    "SMILES": "IC1=C2C(=C(I)C(I)=C1I)C(=O)OC2=O",
    "meta_data": {
        "InChI": "InChI=1S/C8I4O3/c9-3-1-2(8(14)15-7(1)13)4(10)6(12)5(3)11",
        "InChIKey": null,
        "Canonical SMILES": "O=C1OC(=O)C=2C(I)=C(I)C(I)=C(I)C12",
        "Molecular Formula": "C<sub>8</sub>I<sub>4</sub>O<sub>3</sub>",
        "Molecular Mass": "651.70",
        "Melting Point": "327.5 °C"
    }
}