{
    "cas_no": "66496-82-0",
    "key_name": "Piperidine, 3-(chloromethyl)-1-methyl-, hydrochloride (1:1)",
    "cn_name": null,
    "alternate_name": "Piperidine, 3-(chloromethyl)-1-methyl-, hydrochloride (1:1);Piperidine, 3-(chloromethyl)-1-methyl-, hydrochloride;3-(Chloromethyl)-1-methylpiperidine hydrochloride",
    "duplicated_cas_no": "136452-78-3",
    "SMILES": "C(Cl)C1CN(C)CCC1.Cl",
    "meta_data": {
        "InChI": "InChI=1S/C7H14ClN.ClH/c1-9-4-2-3-7(5-8)6-9;/h7H,2-6H2,1H3;1H",
        "InChIKey": null,
        "Canonical SMILES": "Cl.ClCC1CN(C)CCC1",
        "Molecular Formula": "C<sub>7</sub>H<sub>14</sub>ClN.ClH",
        "Molecular Mass": "",
        "Melting Point": "169.1-170.2 °C"
    }
}