{
    "cas_no": "4096-21-3",
    "key_name": "1-Phenylpyrrolidine",
    "cn_name": "1-苯基吡咯烷;N-苯基四氢吡咯;",
    "alternate_name": "Pyrrolidine, 1-phenyl-;1-Phenylpyrrolidine;<em>N</em>-Phenylpyrrolidine;Pyrrolidinobenzene;NSC 53425;<em>N</em>-Phenylpyrolidine",
    "duplicated_cas_no": "",
    "SMILES": "N1(CCCC1)C2=CC=CC=C2",
    "meta_data": {
        "InChI": "InChI=1S/C10H13N/c1-2-6-10(7-3-1)11-8-4-5-9-11/h1-3,6-7H,4-5,8-9H2",
        "InChIKey": null,
        "Canonical SMILES": "C=1C=CC(=CC1)N2CCCC2",
        "Molecular Formula": "C<sub>10</sub>H<sub>13</sub>N",
        "Molecular Mass": "147.22",
        "Boiling Point": "119-120 °C",
        "Melting Point": "101-102 °C",
        "Density": "1.0260 g/cm³ @ Temp: 25 °C"
    }
}