{
    "cas_no": "54-42-2",
    "key_name": "5-Iodo-2′-deoxyuridine",
    "cn_name": "5-碘-2\"-脱氧尿苷;5-碘代-2\"-脱氧尿嘧啶核苷;碘苷;",
    "alternate_name": "Uridine, 2′-deoxy-5-iodo-;2′-Deoxy-5-iodouridine;NSC 39661;Dendrid;Emanil;Herplex;Idoxuridine;IDU;5-Iodouracil deoxyriboside;Stoxil;5-Iododeoxyuridine;Synmiol;IUDR;Iododeoxyuridine;1-(2-Deoxy-β-<span class=\"text-smallcaps\">D</span>-ribofuranosyl)-5-iodouracil;IDUR;Idexur;Idulea;Idu Oculos;Ophthalmadine;Iduridin;Kerecid;Idoxuridin;Iducher;Herpesil;Herpidu;Joddeoxiuridin;5-Iodo-2′-desoxyuridine;5-Iodo-2′-deoxyuridine;Virudox;SKF 14287;Herpe-Gel;Allergan 211;Idoxene;5IUDR;Stoxip;(+)-5-Iodo-2′-deoxyuridine;Iododeozyuridine;MeSH ID: D007065",
    "duplicated_cas_no": "888-04-0;1336-77-2;1222844-74-7;1556847-71-2",
    "SMILES": "O=C1N([C@@H]2O[C@H](CO)[C@@H](O)C2)C=C(I)C(=O)N1",
    "meta_data": {
        "InChI": "InChI=1S/C9H11IN2O5/c10-4-2-12(9(16)11-8(4)15)7-1-5(14)6(3-13)17-7/h2,5-7,13-14H,1,3H2,(H,11,15,16)/t5-,6+,7+/m0/s1",
        "InChIKey": null,
        "Canonical SMILES": "O=C1NC(=O)N(C=C1I)C2OC(CO)C(O)C2",
        "Molecular Formula": "C<sub>9</sub>H<sub>11</sub>IN<sub>2</sub>O<sub>5</sub>",
        "Molecular Mass": "354.10",
        "Melting Point": "263 °C"
    }
}