{
    "cas_no": "27896-84-0",
    "key_name": "1<em>H</em>-Benzimidazole, 6-nitro-, nitrate (1:1)",
    "cn_name": "5-硝基苯并咪唑硝酸盐;",
    "alternate_name": "1<em>H</em>-Benzimidazole, 6-nitro-, nitrate (1:1);Benzimidazole, 5-nitro-, mononitrate;1<em>H</em>-Benzimidazole, 5-nitro-, mononitrate;6-Nitrobenzimidazole nitrate;5-Nitrobenzimidazole mononitrate",
    "duplicated_cas_no": "",
    "SMILES": "N(=O)(=O)O.N(=O)(=O)C=1C=C2C(=CC1)N=CN2",
    "meta_data": {
        "InChI": "InChI=1S/C7H5N3O2.HNO3/c11-10(12)5-1-2-6-7(3-5)9-4-8-6;2-1(3)4/h1-4H,(H,8,9);(H,2,3,4)",
        "InChIKey": null,
        "Canonical SMILES": "O=N(=O)O.O=N(=O)C=1C=CC=2N=CNC2C1",
        "Molecular Formula": "C<sub>7</sub>H<sub>5</sub>N<sub>3</sub>O<sub>2</sub>.HNO<sub>3</sub>",
        "Molecular Mass": "",
        "Melting Point": "204 °C (decomp)"
    }
}