{
    "cas_no": "619-58-9",
    "key_name": "4-Iodobenzoic acid",
    "cn_name": "4-碘苯甲酸;对碘苯甲酸;",
    "alternate_name": "Benzoic acid, 4-iodo-;Benzoic acid, <em>p</em>-iodo-;4-Iodobenzoic acid;<em>p</em>-Iodobenzoic acid;<em>p</em>-Iodobenzenecarboxylic acid;NSC 176127;NSC 3773;Iodobenzene-4-carboxylic acid",
    "duplicated_cas_no": "2764684-46-8",
    "SMILES": "C(O)(=O)C1=CC=C(I)C=C1",
    "meta_data": {
        "InChI": "InChI=1S/C7H5IO2/c8-6-3-1-5(2-4-6)7(9)10/h1-4H,(H,9,10)",
        "InChIKey": null,
        "Canonical SMILES": "O=C(O)C1=CC=C(I)C=C1",
        "Molecular Formula": "C<sub>7</sub>H<sub>5</sub>IO<sub>2</sub>",
        "Molecular Mass": "248.02",
        "Melting Point": "270 °C"
    }
}