{
    "cas_no": "2974-92-7",
    "key_name": "PCB 12",
    "cn_name": "3,4-二氯联苯;",
    "alternate_name": "1,1′-Biphenyl, 3,4-dichloro-;Biphenyl, 3,4-dichloro-;3,4-Dichloro-1,1′-biphenyl;3,4-Dichlorobiphenyl;PCB 12;NSC 249832;CB 12 (chlorocarbon);CB 12;1,2-Dichloro-4-phenylbenzene",
    "duplicated_cas_no": "",
    "SMILES": "ClC=1C=C(C=CC1Cl)C2=CC=CC=C2",
    "meta_data": {
        "InChI": "InChI=1S/C12H8Cl2/c13-11-7-6-10(8-12(11)14)9-4-2-1-3-5-9/h1-8H",
        "InChIKey": null,
        "Canonical SMILES": "ClC=1C=CC(=CC1Cl)C=2C=CC=CC2",
        "Molecular Formula": "C<sub>12</sub>H<sub>8</sub>Cl<sub>2</sub>",
        "Molecular Mass": "223.10",
        "Boiling Point": "171-172 °C @ Press: 8 Torr",
        "Melting Point": "46 °C"
    }
}