{
    "cas_no": "2261-99-6",
    "key_name": "1,1,7-Trihydrododecafluoroheptyl methacrylate",
    "cn_name": "甲基丙烯酸十二氟庚酯;",
    "alternate_name": "2-Propenoic acid, 2-methyl-, 2,2,3,3,4,4,5,5,6,6,7,7-dodecafluoroheptyl ester;Methacrylic acid, 2,2,3,3,4,4,5,5,6,6,7,7-dodecafluoroheptyl ester;1-Heptanol, 2,2,3,3,4,4,5,5,6,6,7,7-dodecafluoro-, methacrylate;1,1,7-Trihydrododecafluoroheptyl methacrylate;α,α,ω-Trihydroperfluoroheptyl methacrylate;1<em>H</em>,1<em>H</em>,7<em>H</em>-Dodecafluoroheptyl methacrylate;M 5610;1<em>H</em>,1<em>H</em>,7<em>H</em>-Perfluoroheptyl methacrylate;2,2,3,3,4,4,5,5,6,6,7,7-Dodecafluoroheptyl 2-methylprop-2-enoate",
    "duplicated_cas_no": "",
    "SMILES": "C(C(C(COC(C(C)=C)=O)(F)F)(F)F)(C(C(C(F)F)(F)F)(F)F)(F)F",
    "meta_data": {
        "InChI": "InChI=1S/C11H8F12O2/c1-4(2)5(24)25-3-7(14,15)9(18,19)11(22,23)10(20,21)8(16,17)6(12)13/h6H,1,3H2,2H3",
        "InChIKey": null,
        "Canonical SMILES": "O=C(OCC(F)(F)C(F)(F)C(F)(F)C(F)(F)C(F)(F)C(F)F)C(=C)C",
        "Molecular Formula": "C<sub>11</sub>H<sub>8</sub>F<sub>12</sub>O<sub>2</sub>",
        "Molecular Mass": "400.16",
        "Boiling Point": "112 °C @ Press: 40 Torr"
    }
}