{
    "cas_no": "482-83-7",
    "key_name": "Dalbergin",
    "cn_name": "黄檀素;黄檀素;",
    "alternate_name": "2<em>H</em>-1-Benzopyran-2-one, 6-hydroxy-7-methoxy-4-phenyl-;Coumarin, 6-hydroxy-7-methoxy-4-phenyl-;6-Hydroxy-7-methoxy-4-phenyl-2<em>H</em>-1-benzopyran-2-one;Dalbergin;6-Hydroxy-7-methoxy-4-phenylcoumarin;4-Phenyl-6-hydroxy-7-methoxycoumarin",
    "duplicated_cas_no": "",
    "SMILES": "OC=1C=C2C(=CC(=O)OC2=CC1OC)C3=CC=CC=C3",
    "meta_data": {
        "InChI": "InChI=1S/C16H12O4/c1-19-15-9-14-12(7-13(15)17)11(8-16(18)20-14)10-5-3-2-4-6-10/h2-9,17H,1H3",
        "InChIKey": null,
        "Canonical SMILES": "O=C1OC=2C=C(OC)C(O)=CC2C(=C1)C=3C=CC=CC3",
        "Molecular Formula": "C<sub>16</sub>H<sub>12</sub>O<sub>4</sub>",
        "Molecular Mass": "268.26",
        "Melting Point": "209-210 °C"
    }
}