{
    "cas_no": "18306-29-1",
    "key_name": "Silanol, trimethyl-, 1,1′-sulfate",
    "cn_name": "双(三甲基硅基)硫酸酯;",
    "alternate_name": "Silanol, trimethyl-, 1,1′-sulfate;Silanol, trimethyl-, sulfate (2:1);Bis(trimethylsilyl) sulfate",
    "duplicated_cas_no": "",
    "SMILES": "O(S(O[Si](C)(C)C)(=O)=O)[Si](C)(C)C",
    "meta_data": {
        "InChI": "InChI=1S/C6H18O4SSi2/c1-12(2,3)9-11(7,8)10-13(4,5)6/h1-6H3",
        "InChIKey": null,
        "Canonical SMILES": "O=S(=O)(O[Si](C)(C)C)O[Si](C)(C)C",
        "Molecular Formula": "C<sub>6</sub>H<sub>18</sub>O<sub>4</sub>SSi<sub>2</sub>",
        "Molecular Mass": "242.44",
        "Boiling Point": "70 °C @ Press: 0.5 Torr",
        "Melting Point": "56-58 °C"
    }
}