{
    "cas_no": "673-06-3",
    "key_name": "<span class=\"text-smallcaps\">D</span>-Phenylalanine",
    "cn_name": "D-苯丙氨酸;",
    "alternate_name": "<span class=\"text-smallcaps\">D</span>-Phenylalanine;Alanine, phenyl-, <span class=\"text-smallcaps\">D</span>-;<span class=\"text-smallcaps\">D</span>-α-Amino-β-phenylpropionic acid;(<em>R</em>)-Phenylalanine;(<em>R</em>)-(+)-Phenylalanine;<span class=\"text-smallcaps\">D</span>-(+)-Phenylalanine;NSC 25005;Endorphenyl;(<em>R</em>)-2-Amino-3-phenylpropionic acid;(<em>R</em>)-3-Phenyl-2-aminopropanoic acid;(α<em>S</em>)-α-Aminobenzeneethanol;(2R)-2-Amino-3-phenyl-propanoic acid;(2R)-2-Azaniumyl-3-phenylpropanoate",
    "duplicated_cas_no": "10549-11-8;1315049-39-8",
    "SMILES": "C([C@H](C(O)=O)N)C1=CC=CC=C1",
    "meta_data": {
        "InChI": "InChI=1S/C9H11NO2/c10-8(9(11)12)6-7-4-2-1-3-5-7/h1-5,8H,6,10H2,(H,11,12)/t8-/m1/s1",
        "InChIKey": null,
        "Canonical SMILES": "O=C(O)C(N)CC=1C=CC=CC1",
        "Molecular Formula": "C<sub>9</sub>H<sub>11</sub>NO<sub>2</sub>",
        "Molecular Mass": "165.19",
        "Melting Point": "122 °C"
    }
}