{
    "cas_no": "2039-06-7",
    "key_name": "3,5-Diphenyl-1<em>H</em>-1,2,4-triazole",
    "cn_name": null,
    "alternate_name": "1<em>H</em>-1,2,4-Triazole, 3,5-diphenyl-;<em>s</em>-Triazole, 3,5-diphenyl-;3,5-Diphenyl-1<em>H</em>-1,2,4-triazole;3,5-Diphenyl-1,2,4-triazole;3,5-Diphenyl-4<em>H</em>-[1,2,4]triazole;3,5-Diphenyl-4<em>H</em>-1,2,4-triazole",
    "duplicated_cas_no": "",
    "SMILES": "C=1(NC(=NN1)C2=CC=CC=C2)C3=CC=CC=C3",
    "meta_data": {
        "InChI": "InChI=1S/C14H11N3/c1-3-7-11(8-4-1)13-15-14(17-16-13)12-9-5-2-6-10-12/h1-10H,(H,15,16,17)",
        "InChIKey": null,
        "Canonical SMILES": "N=1N=C(NC1C=2C=CC=CC2)C=3C=CC=CC3",
        "Molecular Formula": "C<sub>14</sub>H<sub>11</sub>N<sub>3</sub>",
        "Molecular Mass": "221.26",
        "Melting Point": "190-191 °C"
    }
}