{
    "cas_no": "98130-56-4",
    "key_name": "2-Bromo-4,6-difluorophenol",
    "cn_name": "2-溴-4,6-二氟苯酚;",
    "alternate_name": "Phenol, 2-bromo-4,6-difluoro-;2-Bromo-4,6-difluorophenol",
    "duplicated_cas_no": "",
    "SMILES": "OC1=C(Br)C=C(F)C=C1F",
    "meta_data": {
        "InChI": "InChI=1S/C6H3BrF2O/c7-4-1-3(8)2-5(9)6(4)10/h1-2,10H",
        "InChIKey": null,
        "Canonical SMILES": "FC=1C=C(F)C(O)=C(Br)C1",
        "Molecular Formula": "C<sub>6</sub>H<sub>3</sub>BrF<sub>2</sub>O",
        "Molecular Mass": "208.99",
        "Boiling Point": "53 °C @ Press: 1 Torr"
    }
}