{
    "cas_no": "7463-53-8",
    "key_name": "α-Ethyl-4-nitrobenzeneacetic acid",
    "cn_name": "2-(4-硝基苯基)丁酸;&alpha;-(对硝基苯基)丁酸;",
    "alternate_name": "Benzeneacetic acid, α-ethyl-4-nitro-;Butyric acid, 2-(<em>p</em>-nitrophenyl)-;α-Ethyl-4-nitrobenzeneacetic acid;2-(<em>p</em>-Nitrophenyl)butyric acid;2-(4-Nitrophenyl)butyric acid;2-(4-Nitrophenyl)butanoic acid;<span class=\"text-smallcaps\">DL</span>-α-(<em>p</em>-Nitrophenyl)butyric acid;NSC 404387;NSC 68215",
    "duplicated_cas_no": "25227-34-3",
    "SMILES": "C(C(O)=O)(CC)C1=CC=C(N(=O)=O)C=C1",
    "meta_data": {
        "InChI": "InChI=1S/C10H11NO4/c1-2-9(10(12)13)7-3-5-8(6-4-7)11(14)15/h3-6,9H,2H2,1H3,(H,12,13)",
        "InChIKey": null,
        "Canonical SMILES": "O=C(O)C(C1=CC=C(C=C1)N(=O)=O)CC",
        "Molecular Formula": "C<sub>10</sub>H<sub>11</sub>NO<sub>4</sub>",
        "Molecular Mass": "209.20",
        "Melting Point": "122-123 °C"
    }
}