{
    "cas_no": "456-49-5",
    "key_name": "1-Fluoro-3-methoxybenzene",
    "cn_name": "3-氟苯甲醚;间氟苯甲醚;",
    "alternate_name": "Benzene, 1-fluoro-3-methoxy-;Anisole, <em>m</em>-fluoro-;1-Fluoro-3-methoxybenzene;3-Fluoroanisole;<em>m</em>-Fluoroanisole;<em>m</em>-Fluorophenyl methyl ether;m-Fluoroanisole;NSC 88277;3-Methoxyphenyl fluoride",
    "duplicated_cas_no": "",
    "SMILES": "O(C)C1=CC(F)=CC=C1",
    "meta_data": {
        "InChI": "InChI=1S/C7H7FO/c1-9-7-4-2-3-6(8)5-7/h2-5H,1H3",
        "InChIKey": null,
        "Canonical SMILES": "FC1=CC=CC(OC)=C1",
        "Molecular Formula": "C<sub>7</sub>H<sub>7</sub>FO",
        "Molecular Mass": "126.13",
        "Boiling Point": "159 °C",
        "Melting Point": "-35 °C",
        "Density": "1.107 g/cm³ @ Temp: 20 °C"
    }
}