{
    "cas_no": "563-04-2",
    "key_name": "Tri-<em>m</em>-cresyl phosphate",
    "cn_name": "三甲苯磷酸酯;磷酸三(间甲苯酯);",
    "alternate_name": "Phosphoric acid, tris(3-methylphenyl) ester;Phosphoric acid, tri-<em>m</em>-tolyl ester;<em>m</em>-Tolyl phosphate, (C<sub>7</sub>H<sub>7</sub>O)<sub>3</sub>PO;Tris-<em>m</em>-cresyl phosphate;Tri-<em>m</em>-tolyl phosphate;Tris(<em>m</em>-tolyl) phosphate;TMCP;Tri-<em>m</em>-cresyl phosphate;Tris(3-methylphenyl) phosphate;NSC 4055",
    "duplicated_cas_no": "",
    "SMILES": "P(OC1=CC(C)=CC=C1)(OC2=CC(C)=CC=C2)(OC3=CC(C)=CC=C3)=O",
    "meta_data": {
        "InChI": "InChI=1S/C21H21O4P/c1-16-7-4-10-19(13-16)23-26(22,24-20-11-5-8-17(2)14-20)25-21-12-6-9-18(3)15-21/h4-15H,1-3H3",
        "InChIKey": null,
        "Canonical SMILES": "O=P(OC1=CC=CC(=C1)C)(OC2=CC=CC(=C2)C)OC3=CC=CC(=C3)C",
        "Molecular Formula": "C<sub>21</sub>H<sub>21</sub>O<sub>4</sub>P",
        "Molecular Mass": "368.36",
        "Boiling Point": "260 °C @ Press: 15 Torr",
        "Melting Point": "25.5 °C",
        "Density": "1.150 g/cm³ @ Temp: 25 °C"
    }
}