{
    "cas_no": "194413-58-6",
    "key_name": "Semaxanib",
    "cn_name": null,
    "alternate_name": "2<em>H</em>-Indol-2-one, 3-[(3,5-dimethyl-1<em>H</em>-pyrrol-2-yl)methylene]-1,3-dihydro-, (3<em>Z</em>)-;2<em>H</em>-Indol-2-one, 3-[(3,5-dimethyl-1<em>H</em>-pyrrol-2-yl)methylene]-1,3-dihydro-, (<em>Z</em>)-;(3<em>Z</em>)-3-[(3,5-Dimethyl-1<em>H</em>-pyrrol-2-yl)methylene]-1,3-dihydro-2<em>H</em>-indol-2-one;Semaxanib;3-[1-(3,5-Dimethyl-1<em>H</em>-pyrrol-2-yl)meth-(<em>Z</em>)-ylidene]-2-oxo-2,3-dihydroindole;(<em>Z</em>)-SU 5416;TSU 16;Sugen",
    "duplicated_cas_no": "",
    "SMILES": "C(=C\\1/C=2C(NC1=O)=CC=CC2)\\C=3NC(C)=CC3C",
    "meta_data": {
        "InChI": "InChI=1S/C15H14N2O/c1-9-7-10(2)16-14(9)8-12-11-5-3-4-6-13(11)17-15(12)18/h3-8,16H,1-2H3,(H,17,18)/b12-8-",
        "InChIKey": null,
        "Canonical SMILES": "O=C1NC=2C=CC=CC2C1=CC=3NC(=CC3C)C",
        "Molecular Formula": "C<sub>15</sub>H<sub>14</sub>N<sub>2</sub>O",
        "Molecular Mass": "238.28",
        "Melting Point": "220-222 °C"
    }
}