{
    "cas_no": "70374-39-9",
    "key_name": "Lornoxicam",
    "cn_name": "氯诺昔康;6-氯-4-羟基-2-甲基-3-(2-吡啶氨基甲酰基)-2H-噻吩并[2,3-e]-1,2-噻嗪-1,1-二氧化物;",
    "alternate_name": "2<em>H</em>-Thieno[2,3-<em>e</em>]-1,2-thiazine-3-carboxamide, 6-chloro-4-hydroxy-2-methyl-<em>N</em>-2-pyridinyl-, 1,1-dioxide;Lornoxicam;Chlortenoxicam;Ro 13-9297;TS 110;Telos;Xefo;Xefocam;Lorcam;Lofecam;Fulactive",
    "duplicated_cas_no": "",
    "SMILES": "OC=1C2=C(S(=O)(=O)N(C)C1C(NC3=CC=CC=N3)=O)C=C(Cl)S2",
    "meta_data": {
        "InChI": "InChI=1S/C13H10ClN3O4S2/c1-17-10(13(19)16-9-4-2-3-5-15-9)11(18)12-7(23(17,20)21)6-8(14)22-12/h2-6,18H,1H3,(H,15,16,19)",
        "InChIKey": null,
        "Canonical SMILES": "O=C(NC1=NC=CC=C1)C2=C(O)C=3SC(Cl)=CC3S(=O)(=O)N2C",
        "Molecular Formula": "C<sub>13</sub>H<sub>10</sub>ClN<sub>3</sub>O<sub>4</sub>S<sub>2</sub>",
        "Molecular Mass": "371.82",
        "Melting Point": "225-230 °C (decomp)"
    }
}