{
    "cas_no": "23582-03-8",
    "key_name": "Tris[2-(diphenylphosphino)ethyl]phosphine",
    "cn_name": "三[2-(二苯基膦)乙基]磷化氢;",
    "alternate_name": "Phosphine, tris[2-(diphenylphosphino)ethyl]-;Tris[2-(diphenylphosphino)ethyl]phosphine;Tris(2-diphenylphosphinoethyl)phosphine;Tris(diphenylphosphinoethyl)phosphine;Tetraphos;NSC 164875",
    "duplicated_cas_no": "",
    "SMILES": "P(CCP(CCP(C1=CC=CC=C1)C2=CC=CC=C2)CCP(C3=CC=CC=C3)C4=CC=CC=C4)(C5=CC=CC=C5)C6=CC=CC=C6",
    "meta_data": {
        "InChI": "InChI=1S/C42H42P4/c1-7-19-37(20-8-1)44(38-21-9-2-10-22-38)34-31-43(32-35-45(39-23-11-3-12-24-39)40-25-13-4-14-26-40)33-36-46(41-27-15-5-16-28-41)42-29-17-6-18-30-42/h1-30H,31-36H2",
        "InChIKey": null,
        "Canonical SMILES": "C=1C=CC(=CC1)P(C=2C=CC=CC2)CCP(CCP(C=3C=CC=CC3)C=4C=CC=CC4)CCP(C=5C=CC=CC5)C=6C=CC=CC6",
        "Molecular Formula": "C<sub>42</sub>H<sub>42</sub>P<sub>4</sub>",
        "Molecular Mass": "670.68",
        "Melting Point": "102 °C"
    }
}