{
    "cas_no": "3012-37-1",
    "key_name": "Tropeolin",
    "cn_name": "硫氰酸苄酯;硫氰酸苯基甲基酯;苄基硫氰酸酯;",
    "alternate_name": "Thiocyanic acid, phenylmethyl ester;Thiocyanic acid, benzyl ester;Tropeolin;Benzyl thiocyanate;Solvat 14;α-Thiocyanatotoluene;NSC 130266;NSC 1729;(Thiocyanatomethyl)benzene",
    "duplicated_cas_no": "",
    "SMILES": "C(SC#N)C1=CC=CC=C1",
    "meta_data": {
        "InChI": "InChI=1S/C8H7NS/c9-7-10-6-8-4-2-1-3-5-8/h1-5H,6H2",
        "InChIKey": null,
        "Canonical SMILES": "N#CSCC=1C=CC=CC1",
        "Molecular Formula": "C<sub>8</sub>H<sub>7</sub>NS",
        "Molecular Mass": "149.21",
        "Boiling Point": "232 °C",
        "Melting Point": "43 °C"
    }
}