{
    "cas_no": "480-19-3",
    "key_name": "Isorhamnetin",
    "cn_name": "异鼠李素;3,5,7-三羟基-2-(4-羟基-3-甲氧基苯基)苯并吡喃-4-酮;",
    "alternate_name": "4<em>H</em>-1-Benzopyran-4-one, 3,5,7-trihydroxy-2-(4-hydroxy-3-methoxyphenyl)-;Flavone, 3,4′,5,7-tetrahydroxy-3′-methoxy-;Isorhamnetin;3,5,7-Trihydroxy-2-(4-hydroxy-3-methoxyphenyl)-4<em>H</em>-1-benzopyran-4-one;C.I. 75680;Isorhamnetol;3′-Methoxyquercetin;3′-<em>O</em>-Methylquercetin;Quercetin 3′-methyl ether;3,4′,5,7-Tetrahydroxy-3′-methoxyflavone;3′-Methylquercetin;3,5,7-Trihydroxy-2-(4-hydroxy-3-methoxyphenyl)chromen-4-one",
    "duplicated_cas_no": "98006-95-2",
    "SMILES": "O=C1C=2C(OC(=C1O)C3=CC(OC)=C(O)C=C3)=CC(O)=CC2O",
    "meta_data": {
        "InChI": "InChI=1S/C16H12O7/c1-22-11-4-7(2-3-9(11)18)16-15(21)14(20)13-10(19)5-8(17)6-12(13)23-16/h2-6,17-19,21H,1H3",
        "InChIKey": null,
        "Canonical SMILES": "O=C1C(O)=C(OC=2C=C(O)C=C(O)C12)C=3C=CC(O)=C(OC)C3",
        "Molecular Formula": "C<sub>16</sub>H<sub>12</sub>O<sub>7</sub>",
        "Molecular Mass": "316.26",
        "Melting Point": "305 °C (decomp)"
    }
}