{
    "cas_no": "152-43-2",
    "key_name": "Quinestrol",
    "cn_name": "炔雌醇环戊醚;乙炔雌二醇环戊醚;",
    "alternate_name": "19-Norpregna-1,3,5(10)-trien-20-yn-17-ol, 3-(cyclopentyloxy)-, (17α)-;19-Nor-17α-pregna-1,3,5(10)-trien-20-yn-17-ol, 3-(cyclopentyloxy)-;(17α)-3-(Cyclopentyloxy)-19-norpregna-1,3,5(10)-trien-20-yn-17-ol;W 3566;3-Cyclopentyloxy-17α-ethynylestra-1,3,5(10)-trien-17β-ol;3-(Cyclopentyloxy)-19-nor-17α-pregna-1,3,5(10)-trien-20-yn-17-ol;EECPE;Quinestrol;17-Ethynylestradiol cyclopentyl ether;3-Cyclopentyloxy-17α-ethynyl-1,3,5(10)-estratrien-17-ol;17α-Ethynylestradiol 3-cyclopentyl ether;Ethynylestradiol-3-cyclopentyl ether;Eston;Estrovis;Estrovister;Plestrovis;Qui-Lea;Estrovis 4000;MeSH ID: D011800",
    "duplicated_cas_no": "",
    "SMILES": "C[C@@]12[C@]([C@]3([C@](CC1)(C=4C(CC3)=CC(OC5CCCC5)=CC4)[H])[H])(CC[C@]2(C#C)O)[H]",
    "meta_data": {
        "InChI": "InChI=1S/C25H32O2/c1-3-25(26)15-13-23-22-10-8-17-16-19(27-18-6-4-5-7-18)9-11-20(17)21(22)12-14-24(23,25)2/h1,9,11,16,18,21-23,26H,4-8,10,12-15H2,2H3/t21-,22-,23+,24+,25+/m1/s1",
        "InChIKey": null,
        "Canonical SMILES": "C#CC1(O)CCC2C3CCC4=CC(OC5CCCC5)=CC=C4C3CCC21C",
        "Molecular Formula": "C<sub>25</sub>H<sub>32</sub>O<sub>2</sub>",
        "Molecular Mass": "364.52",
        "Melting Point": "107.5 °C"
    }
}