{
    "cas_no": "1095-03-0",
    "key_name": "Phenyl borate",
    "cn_name": "三苯基硼酸酯;",
    "alternate_name": "Boric acid (H<sub>3</sub>BO<sub>3</sub>), triphenyl ester;Phenyl borate ((C<sub>6</sub>H<sub>5</sub>O)<sub>3</sub>B);Phenyl borate;Triphenyl borate;Triphenoxyboron;Triphenoxyborane;Boron triphenoxide;NSC 806",
    "duplicated_cas_no": "",
    "SMILES": "B(OC1=CC=CC=C1)(OC2=CC=CC=C2)OC3=CC=CC=C3",
    "meta_data": {
        "InChI": "InChI=1S/C18H15BO3/c1-4-10-16(11-5-1)20-19(21-17-12-6-2-7-13-17)22-18-14-8-3-9-15-18/h1-15H",
        "InChIKey": null,
        "Canonical SMILES": "O(B(OC=1C=CC=CC1)OC=2C=CC=CC2)C=3C=CC=CC3",
        "Molecular Formula": "C<sub>18</sub>H<sub>15</sub>BO<sub>3</sub>",
        "Molecular Mass": "290.12",
        "Boiling Point": "141.6-148.0 °C @ Press: 1.5 Torr",
        "Melting Point": "92-93 °C"
    }
}