{
    "cas_no": "17327-22-9",
    "key_name": "3,6-Dihydro-4-methoxy-2<em>H</em>-pyran",
    "cn_name": "5,6-二氢-4-甲氧基-2H-吡喃;",
    "alternate_name": "2<em>H</em>-Pyran, 3,6-dihydro-4-methoxy-;3,6-Dihydro-4-methoxy-2<em>H</em>-pyran;4-Methoxy-5,6-dihydro-2<em>H</em>-pyran;5,6-Dihydro-4-methoxy-2<em>H</em>-pyran;4-Methoxy-3,6-dihydro-2<em>H</em>-pyran",
    "duplicated_cas_no": "",
    "SMILES": "O(C)C=1CCOCC1",
    "meta_data": {
        "InChI": "InChI=1S/C6H10O2/c1-7-6-2-4-8-5-3-6/h2H,3-5H2,1H3",
        "InChIKey": null,
        "Canonical SMILES": "O(C1=CCOCC1)C",
        "Molecular Formula": "C<sub>6</sub>H<sub>10</sub>O<sub>2</sub>",
        "Molecular Mass": "114.14",
        "Boiling Point": "156-157 °C"
    }
}