{
    "cas_no": "3786-91-2",
    "key_name": "<em>rel</em>-(1<em>R</em>,2<em>R</em>,3<em>S</em>,4<em>S</em>)-1,2,3,4-Cyclopentanetetracarboxylic acid",
    "cn_name": "顺,顺,顺-1,2,3,4-环戊烷四羧酸;顺式-1,2,3,4-环戊烷四羧酸;",
    "alternate_name": "1,2,3,4-Cyclopentanetetracarboxylic acid, (1<em>R</em>,2<em>R</em>,3<em>S</em>,4<em>S</em>)-<em>rel</em>-;1,2,3,4-Cyclopentanetetracarboxylic acid, <em>all</em>-<em>cis</em>-;1,2,3,4-Cyclopentanetetracarboxylic acid, (1α,2α,3α,4α)-;<em>rel</em>-(1<em>R</em>,2<em>R</em>,3<em>S</em>,4<em>S</em>)-1,2,3,4-Cyclopentanetetracarboxylic acid;1-<em>cis</em>,2-<em>cis</em>,3-<em>cis</em>,4-<em>cis</em>-Cyclopentanetetracarboxylic acid;1α,2α,3α,4α-Cyclopentanetetracarboxylic acid;<em>all</em>-<em>cis</em>-1,2,3,4-Cyclopentanetetracarboxylic acid;NSC 73712;(1<em>R</em>,2<em>R</em>,3<em>S</em>,4<em>S</em>)-1,2,3,4-Cyclopentanetetracarboxylic acid",
    "duplicated_cas_no": "37140-29-7;869226-64-2",
    "SMILES": "C(O)(=O)[C@H]1[C@@H](C(O)=O)[C@@H](C(O)=O)C[C@H]1C(O)=O",
    "meta_data": {
        "InChI": "InChI=1/C9H10O8/c10-6(11)2-1-3(7(12)13)5(9(16)17)4(2)8(14)15/h2-5H,1H2,(H,10,11)(H,12,13)(H,14,15)(H,16,17)/t2-,3+,4-,5+",
        "InChIKey": null,
        "Canonical SMILES": "O=C(O)C1CC(C(=O)O)C(C(=O)O)C1C(=O)O",
        "Molecular Formula": "C<sub>9</sub>H<sub>10</sub>O<sub>8</sub>",
        "Molecular Mass": "246.17",
        "Melting Point": "195 °C (decomp)"
    }
}