{
    "cas_no": "21222-05-9",
    "key_name": "3,3′-Dinitrobenzophenone",
    "cn_name": "3,3\"-二硝基苯甲酮;",
    "alternate_name": "Methanone, bis(3-nitrophenyl)-;Benzophenone, 3,3′-dinitro-;Bis(3-nitrophenyl)methanone;3,3′-Dinitrobenzophenone;<em>m</em>,<em>m</em>′-Dinitrobenzophenone;Bis(<em>m</em>-nitrophenyl) ketone;NSC 86515",
    "duplicated_cas_no": "",
    "SMILES": "C(=O)(C1=CC(N(=O)=O)=CC=C1)C2=CC(N(=O)=O)=CC=C2",
    "meta_data": {
        "InChI": "InChI=1S/C13H8N2O5/c16-13(9-3-1-5-11(7-9)14(17)18)10-4-2-6-12(8-10)15(19)20/h1-8H",
        "InChIKey": null,
        "Canonical SMILES": "O=C(C1=CC=CC(=C1)N(=O)=O)C2=CC=CC(=C2)N(=O)=O",
        "Molecular Formula": "C<sub>13</sub>H<sub>8</sub>N<sub>2</sub>O<sub>5</sub>",
        "Molecular Mass": "272.21",
        "Melting Point": "155 °C"
    }
}