{
    "cas_no": "54346-87-1",
    "key_name": "5-Methoxy-2-benzothiazolamine",
    "cn_name": "5-Methoxy-1,3-benzothiazol-2-amine;",
    "alternate_name": "2-Benzothiazolamine, 5-methoxy-;Benzothiazole, 2-amino-5-methoxy-;5-Methoxy-2-benzothiazolamine;2-Amino-5-methoxybenzothiazole;(5-Methoxybenzothiazol-2-yl)amine;5-Methoxybenzo[<em>d</em>]thiazol-2-amine",
    "duplicated_cas_no": "",
    "SMILES": "NC=1SC=2C(=CC(OC)=CC2)N1",
    "meta_data": {
        "InChI": "InChI=1S/C8H8N2OS/c1-11-5-2-3-7-6(4-5)10-8(9)12-7/h2-4H,1H3,(H2,9,10)",
        "InChIKey": null,
        "Canonical SMILES": "N1=C(SC=2C=CC(OC)=CC12)N",
        "Molecular Formula": "C<sub>8</sub>H<sub>8</sub>N<sub>2</sub>OS",
        "Molecular Mass": "180.23",
        "Melting Point": "154 °C"
    }
}