{
    "cas_no": "106-32-1",
    "key_name": "Ethyl octanoate",
    "cn_name": "辛酸乙酯;",
    "alternate_name": "Octanoic acid, ethyl ester;Ethyl caprylate;Ethyl octanoate;Ethyl <em>n</em>-octanoate;Caprylic acid ethyl ester;Et caprylate;NSC 8898",
    "duplicated_cas_no": "",
    "SMILES": "C(CCCCCCC)(OCC)=O",
    "meta_data": {
        "InChI": "InChI=1S/C10H20O2/c1-3-5-6-7-8-9-10(11)12-4-2/h3-9H2,1-2H3",
        "InChIKey": null,
        "Canonical SMILES": "O=C(OCC)CCCCCCC",
        "Molecular Formula": "C<sub>10</sub>H<sub>20</sub>O<sub>2</sub>",
        "Molecular Mass": "172.26",
        "Boiling Point": "208.5 °C",
        "Melting Point": "-43.1 °C",
        "Density": "8.6228 x 10⁻⁷ g/cm³ @ Temp: 25.000 °C; Press: 750 Torr"
    }
}