{
    "cas_no": "603-72-5",
    "key_name": "2<em>H</em>-Naphth[1,8-<em>cd</em>]isothiazole, 1,1-dioxide",
    "cn_name": "1,8-萘磺内酰胺;",
    "alternate_name": "2<em>H</em>-Naphth[1,8-<em>cd</em>]isothiazole, 1,1-dioxide;1,8-Naphthosultam;2<em>H</em>-Naphtho[1,8-<em>cd</em>]isothiazole 1,1-dioxide",
    "duplicated_cas_no": "",
    "SMILES": "O=S1(=O)C=2C3=C(N1)C=CC=C3C=CC2",
    "meta_data": {
        "InChI": "InChI=1S/C10H7NO2S/c12-14(13)9-6-2-4-7-3-1-5-8(11-14)10(7)9/h1-6,11H",
        "InChIKey": null,
        "Canonical SMILES": "O=S1(=O)NC=2C=CC=C3C=CC=C1C32",
        "Molecular Formula": "C<sub>10</sub>H<sub>7</sub>NO<sub>2</sub>S",
        "Molecular Mass": "205.23",
        "Melting Point": "177-178 °C"
    }
}