{
    "cas_no": "2550-11-0",
    "key_name": "4,7-Dimethyl-6-octen-3-one",
    "cn_name": null,
    "alternate_name": "6-Octen-3-one, 4,7-dimethyl-;4,7-Dimethyl-6-octen-3-one",
    "duplicated_cas_no": "",
    "SMILES": "C(CC=C(C)C)(C(CC)=O)C",
    "meta_data": {
        "InChI": "InChI=1S/C10H18O/c1-5-10(11)9(4)7-6-8(2)3/h6,9H,5,7H2,1-4H3",
        "InChIKey": null,
        "Canonical SMILES": "O=C(CC)C(C)CC=C(C)C",
        "Molecular Formula": "C<sub>10</sub>H<sub>18</sub>O",
        "Molecular Mass": "154.25",
        "Boiling Point": "47-50 °C @ Press: 2.3-2.7 Torr"
    }
}