{
    "cas_no": "571188-59-5",
    "key_name": "<em>tert</em>-Butyl 4-(6-aminopyridin-3-yl)piperazine-1-carboxylate",
    "cn_name": null,
    "alternate_name": "1-Piperazinecarboxylic acid, 4-(6-amino-3-pyridinyl)-, 1,1-dimethylethyl ester;4-(6-Aminopyridin-3-yl)piperazine-1-carboxylic acid <em>tert</em>-butyl ester;4-(6-Aminopyridin-3-yl)piperazine-1-carboxylic acid tert-butyl ester;<em>tert</em>-Butyl 4-(6-aminopyridin-3-yl)piperazine-1-carboxylate;<em>tert</em>-Butyl 4-(6-amino-3-pyridyl)piperazine-1-carboxylate;1-Boc-4-(6-aminopyridin-3-yl)piperazine",
    "duplicated_cas_no": "",
    "SMILES": "C(OC(C)(C)C)(=O)N1CCN(CC1)C=2C=CC(N)=NC2",
    "meta_data": {
        "InChI": "InChI=1S/C14H22N4O2/c1-14(2,3)20-13(19)18-8-6-17(7-9-18)11-4-5-12(15)16-10-11/h4-5,10H,6-9H2,1-3H3,(H2,15,16)",
        "InChIKey": null,
        "Canonical SMILES": "O=C(OC(C)(C)C)N1CCN(C2=CN=C(N)C=C2)CC1",
        "Molecular Formula": "C<sub>14</sub>H<sub>22</sub>N<sub>4</sub>O<sub>2</sub>",
        "Molecular Mass": "278.35",
        "Melting Point": "130-132 °C"
    }
}