{
    "cas_no": "72-14-0",
    "key_name": "Sulfathiazole",
    "cn_name": "磺胺噻唑;2-对氨基苯磺酰胺噻唑;",
    "alternate_name": "Benzenesulfonamide, 4-amino-<em>N</em>-2-thiazolyl-;Sulfanilamide, <em>N</em><sup>1</sup>-2-thiazolyl-;Sulfanilamide, <em>N</em><sup>1</sup>-4-thiazolin-2-ylidene-;4-Amino-<em>N</em>-2-thiazolylbenzenesulfonamide;M&amp;B 760;2090 R.P.;Ciba 3714;2-(<em>p</em>-Aminobenzenesulphonamido)thiazole;Azoseptale;Chemosept;Cibazol;Duatok;Eleudron;Neostrepsan;Norsulfasol;Norsulfazole;Planomide;Poliseptil;Streptosilthiazole;2-Sulfanilamidothiazole;2-(Sulfanilylamino)thiazole;Sulfathiazol;Sulfathiazole;Sulphathiazole;Sulzol;Thiacoccine;Thiazamide;Thiozamide;Sulfanilamidothiazole;Norsulfazol;<em>N</em><sup>1</sup>-(2-Thiazolyl)sulfanilamide;Estafilol;Azoquimiol;Thiasulfol;Dulana;Wintrazole;Sanotiazol;Sulfocerol;2-(<em>p</em>-Aminobenzenesulfonamido)thiazole;2-Sulfathiazole;Sulfavitina;M and B 760;Sulfamul;Enterobiocine;NSC 31812;NSC 683531;4-[(1,3-Thiazol-2-yl)aminosulfonyl]aniline;<em>N</em>-(Thiazol-2-yl)-4-aminobenzenesulfonamide;4-Amino-<em>N</em>-(1,3-thiazol-2-yl)benzenesulfonamide;<em>p</em>-Amino-<em>N</em>-(2-thiazolyl)benzenesulfonamide",
    "duplicated_cas_no": "6052-33-1;859037-27-7;158269-46-6",
    "SMILES": "S(NC1=NC=CS1)(=O)(=O)C2=CC=C(N)C=C2",
    "meta_data": {
        "InChI": "InChI=1S/C9H9N3O2S2/c10-7-1-3-8(4-2-7)16(13,14)12-9-11-5-6-15-9/h1-6H,10H2,(H,11,12)",
        "InChIKey": null,
        "Canonical SMILES": "O=S(=O)(NC1=NC=CS1)C2=CC=C(N)C=C2",
        "Molecular Formula": "C<sub>9</sub>H<sub>9</sub>N<sub>3</sub>O<sub>2</sub>S<sub>2</sub>",
        "Molecular Mass": "255.32",
        "Melting Point": "202-202.5 °C",
        "Density": "1.53 g/cm³"
    }
}