{
    "cas_no": "5504-92-7",
    "key_name": "2-Bromo-<em>N</em>-[4-chloro-2-(2-chlorobenzoyl)phenyl]acetamide",
    "cn_name": "2-溴-N-[4-氯-2-(2-氯苯甲酰)苯基]乙酰胺;2-溴乙酰胺基-2\",5-二氯二苯甲酮;",
    "alternate_name": "Acetamide, 2-bromo-<em>N</em>-[4-chloro-2-(2-chlorobenzoyl)phenyl]-;Acetanilide, 2-bromo-4′-chloro-2′-(<em>o</em>-chlorobenzoyl)-;2-Bromo-<em>N</em>-[4-chloro-2-(2-chlorobenzoyl)phenyl]acetamide",
    "duplicated_cas_no": "",
    "SMILES": "C(=O)(C1=C(NC(CBr)=O)C=CC(Cl)=C1)C2=C(Cl)C=CC=C2",
    "meta_data": {
        "InChI": "InChI=1S/C15H10BrCl2NO2/c16-8-14(20)19-13-6-5-9(17)7-11(13)15(21)10-3-1-2-4-12(10)18/h1-7H,8H2,(H,19,20)",
        "InChIKey": null,
        "Canonical SMILES": "O=C(C=1C=CC=CC1Cl)C2=CC(Cl)=CC=C2NC(=O)CBr",
        "Molecular Formula": "C<sub>15</sub>H<sub>10</sub>BrCl<sub>2</sub>NO<sub>2</sub>",
        "Molecular Mass": "387.06",
        "Melting Point": "136 °C"
    }
}