{
    "cas_no": "115-76-4",
    "key_name": "2,2-Diethyl-1,3-propanediol",
    "cn_name": "丙二醇乙醚;",
    "alternate_name": "1,3-Propanediol, 2,2-diethyl-;2,2-Diethyl-1,3-propanediol;DEP;Prenderol;DMP;NSC 12211;NSC 169507",
    "duplicated_cas_no": "",
    "SMILES": "C(CC)(CC)(CO)CO",
    "meta_data": {
        "InChI": "InChI=1S/C7H16O2/c1-3-7(4-2,5-8)6-9/h8-9H,3-6H2,1-2H3",
        "InChIKey": null,
        "Canonical SMILES": "OCC(CO)(CC)CC",
        "Molecular Formula": "C<sub>7</sub>H<sub>16</sub>O<sub>2</sub>",
        "Molecular Mass": "132.20",
        "Boiling Point": "240.5 °C",
        "Melting Point": "61.5 °C"
    }
}