{
    "cas_no": "643-28-7",
    "key_name": "2-Isopropylaniline",
    "cn_name": "邻异丙基苯胺;",
    "alternate_name": "Benzenamine, 2-(1-methylethyl)-;Aniline, <em>o</em>-isopropyl-;2-(1-Methylethyl)benzenamine;2-Isopropylaniline;<em>o</em>-Isopropylaniline;<em>o</em>-Cumidine;2-Aminoisopropylbenzene;<em>o</em>-Aminoisopropylbenzene;1-Amino-2-isopropylbenzene;<em>o</em>-Aminocumene;2-(1-Methylethyl)aniline;(2-Isopropylphenyl)amine;2-Isopropylbenzenamine;[2-(1-Methylethyl)phenyl]amine;2-Propan-2-ylaniline;2-(Propan-2-yl)aniline",
    "duplicated_cas_no": "",
    "SMILES": "C(C)(C)C1=C(N)C=CC=C1",
    "meta_data": {
        "InChI": "InChI=1S/C9H13N/c1-7(2)8-5-3-4-6-9(8)10/h3-7H,10H2,1-2H3",
        "InChIKey": null,
        "Canonical SMILES": "NC=1C=CC=CC1C(C)C",
        "Molecular Formula": "C<sub>9</sub>H<sub>13</sub>N",
        "Molecular Mass": "135.21",
        "Boiling Point": "221 °C",
        "Density": "0.976 g/cm³ @ Temp: 12 °C"
    }
}