{
    "cas_no": "838-41-5",
    "key_name": "2,4-Diphenyloxazole",
    "cn_name": null,
    "alternate_name": "Oxazole, 2,4-diphenyl-;2,4-Diphenyloxazole;NSC 126384;2,4-Diphenyl-1,3-oxazole",
    "duplicated_cas_no": "",
    "SMILES": "C=1(N=C(OC1)C2=CC=CC=C2)C3=CC=CC=C3",
    "meta_data": {
        "InChI": "InChI=1S/C15H11NO/c1-3-7-12(8-4-1)14-11-17-15(16-14)13-9-5-2-6-10-13/h1-11H",
        "InChIKey": null,
        "Canonical SMILES": "N1=C(OC=C1C=2C=CC=CC2)C=3C=CC=CC3",
        "Molecular Formula": "C<sub>15</sub>H<sub>11</sub>NO",
        "Molecular Mass": "221.25",
        "Boiling Point": "339 °C",
        "Melting Point": "103 °C"
    }
}