{
    "cas_no": "2052-07-5",
    "key_name": "2-Bromobiphenyl",
    "cn_name": "2-溴联苯;",
    "alternate_name": "1,1′-Biphenyl, 2-bromo-;Biphenyl, 2-bromo-;2-Bromo-1,1′-biphenyl;2-Bromobiphenyl;<em>o</em>-Bromobiphenyl;PBB 1;2-Phenylbromobenzene;1-Bromo-2-phenylbenzene;2-Biphenylyl bromide;NSC 67353;<em>m</em>-Biphenyl bromide;2-Biphenyl bromide;<em>o</em>-Biphenyl bromide",
    "duplicated_cas_no": "",
    "SMILES": "BrC1=C(C2=CC=CC=C2)C=CC=C1",
    "meta_data": {
        "InChI": "InChI=1S/C12H9Br/c13-12-9-5-4-8-11(12)10-6-2-1-3-7-10/h1-9H",
        "InChIKey": null,
        "Canonical SMILES": "BrC=1C=CC=CC1C=2C=CC=CC2",
        "Molecular Formula": "C<sub>12</sub>H<sub>9</sub>Br",
        "Molecular Mass": "233.10",
        "Boiling Point": "297 °C",
        "Melting Point": "1.5 °C",
        "Density": "1.2175 g/cm³ @ Temp: 26 °C"
    }
}