{
    "cas_no": "5349-51-9",
    "key_name": "4-(1,1-Dimethylpropyl)cyclohexanol",
    "cn_name": "4-叔戊基环己醇;",
    "alternate_name": "Cyclohexanol, 4-(1,1-dimethylpropyl)-;Cyclohexanol, 4-<em>tert</em>-pentyl-;4-(1,1-Dimethylpropyl)cyclohexanol;NSC 1246;NSC 21165;4-<em>tert</em>-Amylcyclohexanol;4-(<em>tert</em>-Pentyl)cyclohexan-1-ol",
    "duplicated_cas_no": "",
    "SMILES": "C(CC)(C)(C)C1CCC(O)CC1",
    "meta_data": {
        "InChI": "InChI=1S/C11H22O/c1-4-11(2,3)9-5-7-10(12)8-6-9/h9-10,12H,4-8H2,1-3H3",
        "InChIKey": null,
        "Canonical SMILES": "OC1CCC(CC1)C(C)(C)CC",
        "Molecular Formula": "C<sub>11</sub>H<sub>22</sub>O",
        "Molecular Mass": "170.29",
        "Boiling Point": "154-155 °C @ Press: 10 Torr",
        "Melting Point": "24-25 °C",
        "Density": "0.9034 g/cm³ @ Temp: 20 °C"
    }
}