{
    "cas_no": "55981-09-4",
    "key_name": "Nitazoxanide",
    "cn_name": "硝唑尼特;邻[N-(5-硝基噻唑-2-基)氨基甲酰]苯酚乙酸酯;",
    "alternate_name": "Benzamide, 2-(acetyloxy)-<em>N</em>-(5-nitro-2-thiazolyl)-;2-(Acetyloxy)-<em>N</em>-(5-nitro-2-thiazolyl)benzamide;PH 5776;Nitazoxanide;NTZ;Alinia;NSC 697855;BRN 1225475;DRG 0242;<em>N</em>-(5-Nitro-2-thiazolyl)salicylamide acetate (ester);NTX;Cryptaz;Nitazoxanida;Nizonide;Nixide;Nitarid;Nixoran;Nitazox 500;Nitacure 500;Nitacure;Nitazode;Daxon;Dexidex;Kidonax;Mitafar;ParaMix;Pacovanton;Xerovirin-C;[2-[(5-Nitro-1,3-thiazol-2-yl)carbamoyl]phenyl] acetate;2-[(5-Nitro-1,3-thiazol-2-yl)carbamoyl]phenyl acetate",
    "duplicated_cas_no": "",
    "SMILES": "C(NC=1SC(N(=O)=O)=CN1)(=O)C2=C(OC(C)=O)C=CC=C2",
    "meta_data": {
        "InChI": "InChI=1S/C12H9N3O5S/c1-7(16)20-9-5-3-2-4-8(9)11(17)14-12-13-6-10(21-12)15(18)19/h2-6H,1H3,(H,13,14,17)",
        "InChIKey": null,
        "Canonical SMILES": "O=C(OC=1C=CC=CC1C(=O)NC2=NC=C(S2)N(=O)=O)C",
        "Molecular Formula": "C<sub>12</sub>H<sub>9</sub>N<sub>3</sub>O<sub>5</sub>S",
        "Molecular Mass": "307.28",
        "Melting Point": "200-202 °C",
        "Density": "1.629 g/cm³"
    }
}