{
    "cas_no": "129604-27-9",
    "key_name": "1-[3-Chloro-4-(trifluoromethoxy)phenyl]ethanone",
    "cn_name": null,
    "alternate_name": "Ethanone, 1-[3-chloro-4-(trifluoromethoxy)phenyl]-;1-[3-Chloro-4-(trifluoromethoxy)phenyl]ethanone;3-Chloro-4-trifluoromethoxyacetophenone",
    "duplicated_cas_no": "",
    "SMILES": "O(C(F)(F)F)C1=C(Cl)C=C(C(C)=O)C=C1",
    "meta_data": {
        "InChI": "InChI=1S/C9H6ClF3O2/c1-5(14)6-2-3-8(7(10)4-6)15-9(11,12)13/h2-4H,1H3",
        "InChIKey": null,
        "Canonical SMILES": "O=C(C1=CC=C(OC(F)(F)F)C(Cl)=C1)C",
        "Molecular Formula": "C<sub>9</sub>H<sub>6</sub>ClF<sub>3</sub>O<sub>2</sub>",
        "Molecular Mass": "238.59",
        "Boiling Point": "98-99 °C @ Press: 0.1 Torr"
    }
}