{
    "cas_no": "39741-41-8",
    "key_name": "1-(1-Ethyl-1<em>H</em>-pyrrol-2-yl)ethanone",
    "cn_name": "N-乙基-2-乙酰基吡咯;",
    "alternate_name": "Ethanone, 1-(1-ethyl-1<em>H</em>-pyrrol-2-yl)-;1-(1-Ethyl-1<em>H</em>-pyrrol-2-yl)ethanone;1-Ethyl-2-acetylpyrrole;<em>N</em>-Ethyl-2-acetylpyrrole;1-(1-Ethylpyrrol-2-yl)ethanone;1-(1-Ethyl-1<em>H</em>-pyrrol-2-yl)ethan-1-one",
    "duplicated_cas_no": "",
    "SMILES": "C(C)N1C(C(C)=O)=CC=C1",
    "meta_data": {
        "InChI": "InChI=1S/C8H11NO/c1-3-9-6-4-5-8(9)7(2)10/h4-6H,3H2,1-2H3",
        "InChIKey": null,
        "Canonical SMILES": "O=C(C1=CC=CN1CC)C",
        "Molecular Formula": "C<sub>8</sub>H<sub>11</sub>NO",
        "Molecular Mass": "137.18",
        "Boiling Point": "82 °C @ Press: 12 Torr"
    }
}