{
    "cas_no": "31680-07-6",
    "key_name": "4-Methyl-3-nitrobenzaldehyde",
    "cn_name": "4-甲基-3-硝基苯甲醛;",
    "alternate_name": "Benzaldehyde, 4-methyl-3-nitro-;<em>p</em>-Tolualdehyde, 3-nitro-;4-Methyl-3-nitrobenzaldehyde;3-Nitro-<em>p</em>-tolualdehyde;3-Nitro-4-methylbenzaldehyde",
    "duplicated_cas_no": "",
    "SMILES": "N(=O)(=O)C1=CC(C=O)=CC=C1C",
    "meta_data": {
        "InChI": "InChI=1S/C8H7NO3/c1-6-2-3-7(5-10)4-8(6)9(11)12/h2-5H,1H3",
        "InChIKey": null,
        "Canonical SMILES": "O=CC1=CC=C(C(=C1)N(=O)=O)C",
        "Molecular Formula": "C<sub>8</sub>H<sub>7</sub>NO<sub>3</sub>",
        "Molecular Mass": "165.15",
        "Boiling Point": "140-145 °C",
        "Melting Point": "42-43 °C"
    }
}