{
    "cas_no": "91-35-0",
    "key_name": "2-[[(3-Amino-4-hydroxyphenyl)sulfonyl]amino]benzoic acid",
    "cn_name": "2-氨基苯酚-4-(2\"-羧基)磺酰苯胺;",
    "alternate_name": "Benzoic acid, 2-[[(3-amino-4-hydroxyphenyl)sulfonyl]amino]-;Anthranilic acid, <em>N</em>-(4-hydroxymetanilyl)-;2-[[(3-Amino-4-hydroxyphenyl)sulfonyl]amino]benzoic acid;<em>N</em>-(4-Hydroxymetanilyl)anthranilic acid;2-(3-Amino-4-hydroxyphenylsulfonamido)benzoicacid;2-(3-Amino-4-hydroxyphenylsulfonamido)benzoic acid",
    "duplicated_cas_no": "112195-29-6",
    "SMILES": "N(S(=O)(=O)C1=CC(N)=C(O)C=C1)C2=C(C(O)=O)C=CC=C2",
    "meta_data": {
        "InChI": "InChI=1S/C13H12N2O5S/c14-10-7-8(5-6-12(10)16)21(19,20)15-11-4-2-1-3-9(11)13(17)18/h1-7,15-16H,14H2,(H,17,18)",
        "InChIKey": null,
        "Canonical SMILES": "O=C(O)C=1C=CC=CC1NS(=O)(=O)C2=CC=C(O)C(N)=C2",
        "Molecular Formula": "C<sub>13</sub>H<sub>12</sub>N<sub>2</sub>O<sub>5</sub>S",
        "Molecular Mass": "308.31",
        "Melting Point": "213-215 °C"
    }
}