{
    "cas_no": "168618-47-1",
    "key_name": "2′-Methoxy[1,1′-biphenyl]-3-carboxylic acid",
    "cn_name": null,
    "alternate_name": "[1,1′-Biphenyl]-3-carboxylic acid, 2′-methoxy-;2′-Methoxy[1,1′-biphenyl]-3-carboxylic acid;2′-Methoxy-biphenyl-3-carboxylic acid",
    "duplicated_cas_no": "",
    "SMILES": "O(C)C1=C(C2=CC(C(O)=O)=CC=C2)C=CC=C1",
    "meta_data": {
        "InChI": "InChI=1S/C14H12O3/c1-17-13-8-3-2-7-12(13)10-5-4-6-11(9-10)14(15)16/h2-9H,1H3,(H,15,16)",
        "InChIKey": null,
        "Canonical SMILES": "O=C(O)C1=CC=CC(=C1)C=2C=CC=CC2OC",
        "Molecular Formula": "C<sub>14</sub>H<sub>12</sub>O<sub>3</sub>",
        "Molecular Mass": "228.24",
        "Melting Point": "178-180 °C"
    }
}