{
    "cas_no": "3686-55-3",
    "key_name": "Methyl 2-ethoxybenzoate",
    "cn_name": "2-乙氧基苯甲酸甲酯;邻乙氧基苯甲酸甲酯;",
    "alternate_name": "Benzoic acid, 2-ethoxy-, methyl ester;Benzoic acid, <em>o</em>-ethoxy-, methyl ester;Methyl 2-ethoxybenzoate;Methyl <em>o</em>-ethoxybenzoate;R 172;NSC 406652;2-Ethoxy-benzoic acid methyl ester",
    "duplicated_cas_no": "",
    "SMILES": "O(CC)C1=C(C(OC)=O)C=CC=C1",
    "meta_data": {
        "InChI": "InChI=1S/C10H12O3/c1-3-13-9-7-5-4-6-8(9)10(11)12-2/h4-7H,3H2,1-2H3",
        "InChIKey": null,
        "Canonical SMILES": "O=C(OC)C=1C=CC=CC1OCC",
        "Molecular Formula": "C<sub>10</sub>H<sub>12</sub>O<sub>3</sub>",
        "Molecular Mass": "180.20",
        "Boiling Point": "120-121 °C @ Press: 5 Torr",
        "Density": "1.1535 g/cm³ @ Temp: 20 °C"
    }
}