{
    "cas_no": "22884-10-2",
    "key_name": "1<em>H</em>-Imidazole-1-acetic acid",
    "cn_name": "咪唑-1-乙酸;N-乙酰基咪唑;2-(1-咪唑基)乙酸;",
    "alternate_name": "1<em>H</em>-Imidazole-1-acetic acid;Imidazole-1-acetic acid;Imidazol-1-ylacetic acid;2-(1<em>H</em>-Imidazol-1-yl)acetic acid;(1<em>H</em>-Imidazol-1-yl)acetic acid;2-(1<em>H</em>-Imidazol-3-ium-3-yl)acetate",
    "duplicated_cas_no": "",
    "SMILES": "C(C(O)=O)N1C=CN=C1",
    "meta_data": {
        "InChI": "InChI=1S/C5H6N2O2/c8-5(9)3-7-2-1-6-4-7/h1-2,4H,3H2,(H,8,9)",
        "InChIKey": null,
        "Canonical SMILES": "O=C(O)CN1C=NC=C1",
        "Molecular Formula": "C<sub>5</sub>H<sub>6</sub>N<sub>2</sub>O<sub>2</sub>",
        "Molecular Mass": "126.11",
        "Melting Point": "268-269 °C (decomp)"
    }
}