{
    "cas_no": "68776-62-5",
    "key_name": "4-Pyridazinecarbonitrile",
    "cn_name": "4-氰基哒嗪;4-哒嗪腈;",
    "alternate_name": "4-Pyridazinecarbonitrile;4-Cyanopyridazine",
    "duplicated_cas_no": "",
    "SMILES": "C(#N)C=1C=CN=NC1",
    "meta_data": {
        "InChI": "InChI=1S/C5H3N3/c6-3-5-1-2-7-8-4-5/h1-2,4H",
        "InChIKey": null,
        "Canonical SMILES": "N#CC=1C=NN=CC1",
        "Molecular Formula": "C<sub>5</sub>H<sub>3</sub>N<sub>3</sub>",
        "Molecular Mass": "105.10",
        "Melting Point": "79-80 °C"
    }
}