{
    "cas_no": "62482-29-5",
    "key_name": "6-Chloro-4-quinolinecarboxylic acid",
    "cn_name": null,
    "alternate_name": "4-Quinolinecarboxylic acid, 6-chloro-;6-Chloro-4-quinolinecarboxylic acid",
    "duplicated_cas_no": "",
    "SMILES": "C(O)(=O)C=1C2=C(C=CC(Cl)=C2)N=CC1",
    "meta_data": {
        "InChI": "InChI=1S/C10H6ClNO2/c11-6-1-2-9-8(5-6)7(10(13)14)3-4-12-9/h1-5H,(H,13,14)",
        "InChIKey": null,
        "Canonical SMILES": "O=C(O)C=1C=CN=C2C=CC(Cl)=CC21",
        "Molecular Formula": "C<sub>10</sub>H<sub>6</sub>ClNO<sub>2</sub>",
        "Molecular Mass": "207.61",
        "Melting Point": "302 °C"
    }
}