{
    "cas_no": "17995-04-9",
    "key_name": "<em>N</em>,9-Bis(trimethylsilyl)-9<em>H</em>-purin-6-amine",
    "cn_name": null,
    "alternate_name": "9<em>H</em>-Purin-6-amine, <em>N</em>,9-bis(trimethylsilyl)-;Adenine, <em>N</em>,9-bis(trimethylsilyl)-;<em>N</em>,9-Bis(trimethylsilyl)-9<em>H</em>-purin-6-amine;NSC 154617",
    "duplicated_cas_no": "",
    "SMILES": "[Si](C)(C)(C)N1C=2C(=C(N[Si](C)(C)C)N=CN2)N=C1",
    "meta_data": {
        "InChI": "InChI=1S/C11H21N5Si2/c1-17(2,3)15-10-9-11(13-7-12-10)16(8-14-9)18(4,5)6/h7-8H,1-6H3,(H,12,13,15)",
        "InChIKey": null,
        "Canonical SMILES": "N=1C=NC2=C(N=CN2[Si](C)(C)C)C1N[Si](C)(C)C",
        "Molecular Formula": "C<sub>11</sub>H<sub>21</sub>N<sub>5</sub>Si<sub>2</sub>",
        "Molecular Mass": "279.49",
        "Boiling Point": "124 °C @ Press: 0.25 Torr",
        "Melting Point": "87 °C"
    }
}