{
    "cas_no": "5915-41-3",
    "key_name": "Terbuthylazine",
    "cn_name": "特丁津;草净津;2-氯-4-特丁氨基-6-乙氨基-1,3,5-三嗪;",
    "alternate_name": "1,3,5-Triazine-2,4-diamine, 6-chloro-<em>N</em><sup>2</sup>-(1,1-dimethylethyl)-<em>N</em><sup>4</sup>-ethyl-;<em>s</em>-Triazine, 2-(<em>tert</em>-butylamino)-4-chloro-6-(ethylamino)-;1,3,5-Triazine-2,4-diamine, 6-chloro-<em>N</em>-(1,1-dimethylethyl)-<em>N</em>′-ethyl-;6-Chloro-<em>N</em><sup>2</sup>-(1,1-dimethylethyl)-<em>N</em><sup>4</sup>-ethyl-1,3,5-triazine-2,4-diamine;GS 13529;2-<em>tert</em>-Butylamino-4-chloro-6-ethylamino-<em>s</em>-triazine;2-Chloro-4-<em>tert</em>-butylamino-6-ethylamino-<em>s</em>-triazine;2-Chloro-4-(ethylamino)-6-(<em>tert</em>-butylamino)-<em>s</em>-triazine;Terbuthylazine;2-Chloro-4-ethylamino-6-<em>tert</em>-butylamino-1,3,5-triazine;Terbutylethylazine;Gardoprim;Gardeprim A 1862;G 13529;Primatol M;Terbutylazine;4-Ethylamino-6-<em>tert</em>-butylamino-2-chloro-<em>S</em>-triazine;ChlorCaragard;Terbutazine;<em>tert</em>-Butylazine;Tyllanex;<em>N</em>-<em>tert</em>-Butyl-6-chloro-<em>N</em>′-ethyl-1,3,5-triazine-2,4-diamine;6-Chloro-2-<em>tert</em>-butylamino-4-(ethylamino)-[1,3,5]-triazine;Click 500SC;Click;2-<em>N</em>-<em>tert</em>-Butyl-6-chloro-4-<em>N</em>-ethyl-1,3,5-triazine-2,4-diamine",
    "duplicated_cas_no": "63026-57-3",
    "SMILES": "N(C(C)(C)C)C=1N=C(NCC)N=C(Cl)N1",
    "meta_data": {
        "InChI": "InChI=1S/C9H16ClN5/c1-5-11-7-12-6(10)13-8(14-7)15-9(2,3)4/h5H2,1-4H3,(H2,11,12,13,14,15)",
        "InChIKey": null,
        "Canonical SMILES": "ClC=1N=C(N=C(N1)NC(C)(C)C)NCC",
        "Molecular Formula": "C<sub>9</sub>H<sub>16</sub>ClN<sub>5</sub>",
        "Molecular Mass": "229.71",
        "Melting Point": "177-179 °C",
        "Density": "1.188 g/cm³ @ Temp: 20 °C"
    }
}