{
    "cas_no": "115-90-2",
    "key_name": "Fensulfothion",
    "cn_name": "丰索磷;线虫磷;葑硫松;",
    "alternate_name": "Phosphorothioic acid, <em>O</em>,<em>O</em>-diethyl <em>O</em>-[4-(methylsulfinyl)phenyl] ester;Phosphorothioic acid, <em>O</em>,<em>O</em>-diethyl <em>O</em>-[<em>p</em>-(methylsulfinyl)phenyl] ester;Phenol, <em>p</em>-(methylsulfinyl)-, <em>O</em>-ester with <em>O</em>,<em>O</em>-di-Et phosphorothioate;S 767;ENT 24,945;Chemagro 25141;Dasanit;<em>O</em>,<em>O</em>-Diethyl <em>O</em>-[<em>p</em>-(methylsulfinyl)phenyl] phosphorothioate;DMSP;BAY 25141;Fensulfothion;Terracur P;B 25141;Daconit;VUAgt 96;VUAgt 108;<em>O</em>,<em>O</em>-Diethyl <em>O</em>-(4-methylsulfinylphenyl) monothiophosphate;<em>O</em>,<em>O</em>-Diethyl <em>O</em>-[4-(methylsulfinyl)phenyl] phosphorothioate;Agricur",
    "duplicated_cas_no": "",
    "SMILES": "P(OC1=CC=C(S(C)=O)C=C1)(OCC)(OCC)=S",
    "meta_data": {
        "InChI": "InChI=1S/C11H17O4PS2/c1-4-13-16(17,14-5-2)15-10-6-8-11(9-7-10)18(3)12/h6-9H,4-5H2,1-3H3",
        "InChIKey": null,
        "Canonical SMILES": "O=S(C1=CC=C(OP(=S)(OCC)OCC)C=C1)C",
        "Molecular Formula": "C<sub>11</sub>H<sub>17</sub>O<sub>4</sub>PS<sub>2</sub>",
        "Molecular Mass": "308.35",
        "Boiling Point": "138-141 °C @ Press: 0.01 Torr",
        "Melting Point": "&lt;25 °C",
        "Density": "1.202 g/cm³ @ Temp: 20 °C"
    }
}