{
    "cas_no": "56600-90-9",
    "key_name": "4-(6-Methoxy-2-naphthalenyl)-3-buten-2-one",
    "cn_name": null,
    "alternate_name": "3-Buten-2-one, 4-(6-methoxy-2-naphthalenyl)-;4-(6-Methoxy-2-naphthalenyl)-3-buten-2-one;4-(6-Methoxy-2-naphthyl)-3-buten-2-one;1-(2′-Methoxynaphth-6′-yl)but-1-en-3-one",
    "duplicated_cas_no": "",
    "SMILES": "C(=CC(C)=O)C1=CC2=C(C=C(OC)C=C2)C=C1",
    "meta_data": {
        "InChI": "InChI=1S/C15H14O2/c1-11(16)3-4-12-5-6-14-10-15(17-2)8-7-13(14)9-12/h3-10H,1-2H3",
        "InChIKey": null,
        "Canonical SMILES": "O=C(C=CC1=CC=C2C=C(OC)C=CC2=C1)C",
        "Molecular Formula": "C<sub>15</sub>H<sub>14</sub>O<sub>2</sub>",
        "Molecular Mass": "226.27",
        "Melting Point": "118-120 °C"
    }
}