{
    "cas_no": "433-98-7",
    "key_name": "2-Nitrobenzenesulfonyl fluoride",
    "cn_name": null,
    "alternate_name": "Benzenesulfonyl fluoride, 2-nitro-;Benzenesulfonyl fluoride, <em>o</em>-nitro-;2-Nitrobenzenesulfonyl fluoride;<em>o</em>-Nitrobenzenesulfonyl fluoride;NSC 119099;2-Nitrobenzene-1-sulfonyl fluoride",
    "duplicated_cas_no": "",
    "SMILES": "S(F)(=O)(=O)C1=C(N(=O)=O)C=CC=C1",
    "meta_data": {
        "InChI": "InChI=1S/C6H4FNO4S/c7-13(11,12)6-4-2-1-3-5(6)8(9)10/h1-4H",
        "InChIKey": null,
        "Canonical SMILES": "O=N(=O)C=1C=CC=CC1S(=O)(=O)F",
        "Molecular Formula": "C<sub>6</sub>H<sub>4</sub>FNO<sub>4</sub>S",
        "Molecular Mass": "205.16",
        "Melting Point": "60 °C"
    }
}