{
    "cas_no": "592542-59-1",
    "key_name": "Rigosertib",
    "cn_name": null,
    "alternate_name": "Glycine, <em>N</em>-[2-methoxy-5-[[[(1<em>E</em>)-2-(2,4,6-trimethoxyphenyl)ethenyl]sulfonyl]methyl]phenyl]-;<em>N</em>-[2-Methoxy-5-[[[(1<em>E</em>)-2-(2,4,6-trimethoxyphenyl)ethenyl]sulfonyl]methyl]phenyl]glycine;(<em>E</em>)-2,4,6-Trimethoxystyryl 3-[(carboxymethyl)amino]-4-methoxybenzyl sulfone;ON 01910;3: PN: WO2006074149 PAGE: 45 claimed sequence;Rigosertib;(E)-2-(5-((2,4,6-Trimethoxystyryl sulfonyl)methyl)-2-methoxyphenylamino)acetic acid",
    "duplicated_cas_no": "",
    "SMILES": "C(=C/S(CC1=CC(NCC(O)=O)=C(OC)C=C1)(=O)=O)\\C2=C(OC)C=C(OC)C=C2OC",
    "meta_data": {
        "InChI": "InChI=1S/C21H25NO8S/c1-27-15-10-19(29-3)16(20(11-15)30-4)7-8-31(25,26)13-14-5-6-18(28-2)17(9-14)22-12-21(23)24/h5-11,22H,12-13H2,1-4H3,(H,23,24)/b8-7+",
        "InChIKey": null,
        "Canonical SMILES": "O=C(O)CNC1=CC(=CC=C1OC)CS(=O)(=O)C=CC=2C(OC)=CC(OC)=CC2OC",
        "Molecular Formula": "C<sub>21</sub>H<sub>25</sub>NO<sub>8</sub>S",
        "Molecular Mass": "451.49",
        "Melting Point": "172-174 °C"
    }
}