{
    "cas_no": "31643-49-9",
    "key_name": "4-Nitrophthalonitrile",
    "cn_name": "4-硝基邻苯二甲腈;",
    "alternate_name": "1,2-Benzenedicarbonitrile, 4-nitro-;Phthalonitrile, 4-nitro-;4-Nitro-1,2-benzenedicarbonitrile;4-Nitrophthalonitrile;3,4-Dicyanonitrobenzene;1,2-Dicyano-4-nitrobenzene;4-Nitro-1,2-dicyanobenzene;4-Nitro-<em>o</em>-benzenedinitrile;NSC 123374;4-Nitro-1,2-phthalonitrile;3,4-Dicyano-1-nitrobenzene",
    "duplicated_cas_no": "",
    "SMILES": "C(#N)C1=C(C#N)C=CC(N(=O)=O)=C1",
    "meta_data": {
        "InChI": "InChI=1S/C8H3N3O2/c9-4-6-1-2-8(11(12)13)3-7(6)5-10/h1-3H",
        "InChIKey": null,
        "Canonical SMILES": "N#CC1=CC=C(C=C1C#N)N(=O)=O",
        "Molecular Formula": "C<sub>8</sub>H<sub>3</sub>N<sub>3</sub>O<sub>2</sub>",
        "Molecular Mass": "173.13",
        "Melting Point": "142 °C"
    }
}