{
    "cas_no": "24304-00-5",
    "key_name": "Aluminum nitride",
    "cn_name": "氮化铝;",
    "alternate_name": "Aluminum nitride (AlN);Aluminum nitride;Aluminum mononitride;21RAlN;AS 10 (nitride);AS 10;A 100S;AGN 1 (nitride);AGN 2 (nitride);AGN 1;AGN 2;Toyalnite FS;MAN 10;HR 10;Toyalnite UC;Pyrofine A 4;A 200;A 200 (nitride);MAN 2;A 100WR;XUS 35548;A 500FXWR;SCAN 70;Alnel A 100;FX 50WRS;UM;AlN 2;R 15;R 15 (nitride);XUS 35560;SH 30;AP 50;AP 50 (nitride);UM 53E9;Shinno GP 1000;A 500 (nitride);A 500;WRSX 2A100;MAN 20;R 15S;MAN 2A;UMS;XUS 35569;XUR-YM 2002-97923;WR 100;Shapal F;AP 10 (nitride);AP 10;R 15KS;Shapal SH 15;SH 15;Shapal SH 04;SH 02SW10 Type I;Toyalnite FLA;Toyalnite FLG;Denka AN Plate;AN 215;Toyalnite US;FAN-F 30;FAN-F 05;FLA;Shapal E;Toyalnite FLX;Shapal SH 30;Toyalnite FLD;FAN-f 05J-A-TY;FAN-f 30A-TY;JC;FAN-f 80;FAN-f 50J-A;Toyalnite Super FL;Aluminum nitride (Al<sub>0.5</sub>N<sub>0.5</sub>);AlN 7;Toyalnite Super JA;Shapal G;Shapal I;Toyalnite Super JC;FAN-f 30TY;Aluminum nitride (AlN<em><sub>x</sub></em>);FLZ 1;FAN 200;FAN 30;FAN 50;FAN 05;YN;YN (nitride);Toyalnite UM;FAN-f 50J;Shapal H;AlN-H;DK 331;CW-AIN-P;AIN 120;ZF-KQ 50;HR 10 (nitride);FAN-F 80D;ST 100AIN;FAN 80;FAN-f 50;ToH;M 80;J 50J;PHW 1307;AlN 200AF;AlN 100AF;Toyo Aluminum JC;M 30;ALN 300SF;TFZ-A 10P;TFZ-A 02P;H 05;HF 05;HF 05 (nitride);HF 01;HF 01A;ALN 100BF;H 01;TFG-N 40P;AlN 200SF;HFS 30;AB 253753;AlN 050AF;TFZ-N 01P;TFZ-N 30P;TFZ-N 60P;Toyalnite JC;TFZ-A 15P;S 50;S 50 (nitride);TFZ-N 10P;TFZ-N 15P;ST-N 001-1;ANF-S;ANF-S 30;AIN-E;YT-BY 01-1;CW AlN 002;TFZ-N 05P;ALN 300AF;ANF-A 01F;CW-AlN 001;TFZ-S 30P;Toyal Tec TFZ-A 02P;Toyal Tec TFZ-A 10P;Toyal Tec TFZ-A 15P;AN 30;AN 30 (nitride);ALN 500RF;ALN 300RF;A 05P;A 10P;XHMT 011;AlN 30O;AN-HF 70LG-HT;TA 1;AlN 32;AN-HF 70LG-HTZ;AlN 3001;TFZ-S 20P;ANF-S 80ST204;ANF S 30ST204;FS-P 10S;AN-HF 50LG-HT;AN-HF 60LG-HT;XT-ALN 05;AlN 0201;MG-A 1N40;HF 01D;HF 10;S 30;KL 800789;AlN 010S;XH-AlN 30;AlN 020AF;HF 100 (nitride);AlN 050SF;HF 20 (nitride);HF 20;FAN-F 80A1;FAN-F 30A1;TA-F 120;XT-ALN 07;AlN 300RW;AN-HF 50LG;AIN-H;Thermalnite;LF-AlN-N 50;LF-AlN-N 80;LF-AlN-Y 500;LF-AlN-Y 800;Toyal TecFiller TFZ-S 60X;TFZ-S 60X;DCA 10AN;AN 80 (nitride);AND-A 01;AN 80;AlN-f 05A01;TA-S 30;HF 10C",
    "duplicated_cas_no": "1302-38-1;11132-80-2;12252-59-4;37342-40-8;121833-95-2;165390-88-5;633293-26-2;1192824-18-2;2056109-59-0;2089022-99-9;2995418-69-2",
    "SMILES": "[Al]#N",
    "meta_data": {
        "InChI": "InChI=1S/Al.N",
        "InChIKey": null,
        "Canonical SMILES": "N#[Al]",
        "Molecular Formula": "AlN",
        "Molecular Mass": "",
        "Melting Point": "&gt;2727 °C",
        "Density": "3.203 g/cm³ @ Temp: 15 °C"
    }
}