{
    "cas_no": "21900-23-2",
    "key_name": "3,4-Dimethylbenzoyl chloride",
    "cn_name": "3,4-二甲基苯-1-羰酰氯;",
    "alternate_name": "Benzoyl chloride, 3,4-dimethyl-;3,4-Dimethylbenzoyl chloride",
    "duplicated_cas_no": "",
    "SMILES": "C(Cl)(=O)C1=CC(C)=C(C)C=C1",
    "meta_data": {
        "InChI": "InChI=1S/C9H9ClO/c1-6-3-4-8(9(10)11)5-7(6)2/h3-5H,1-2H3",
        "InChIKey": null,
        "Canonical SMILES": "O=C(Cl)C1=CC=C(C(=C1)C)C",
        "Molecular Formula": "C<sub>9</sub>H<sub>9</sub>ClO",
        "Molecular Mass": "168.62",
        "Boiling Point": "185 °C"
    }
}