{
    "cas_no": "4971-56-6",
    "key_name": "Tetronic acid",
    "cn_name": "4-羟乙酰乙酸内酯;",
    "alternate_name": "2,4(3<em>H</em>,5<em>H</em>)-Furandione;Tetronic acid;Acetoacetic acid, 4-hydroxy-, γ-lactone;Butanoic acid, 4-hydroxy-3-oxo-, γ-lactone;Tetrahydrofuran-3,5-dione;Tetrahydrofuran-2,4-dione;Oxolane-2,4-dione;Dihydro-2,4-furandione",
    "duplicated_cas_no": "",
    "SMILES": "O=C1CC(=O)OC1",
    "meta_data": {
        "InChI": "InChI=1S/C4H4O3/c5-3-1-4(6)7-2-3/h1-2H2",
        "InChIKey": null,
        "Canonical SMILES": "O=C1OCC(=O)C1",
        "Molecular Formula": "C<sub>4</sub>H<sub>4</sub>O<sub>3</sub>",
        "Molecular Mass": "100.07",
        "Melting Point": "139-140 °C"
    }
}