{
    "cas_no": "27828-71-3",
    "key_name": "5-Hydroxynicotinic acid",
    "cn_name": "5-羟基烟酸;",
    "alternate_name": "3-Pyridinecarboxylic acid, 5-hydroxy-;Nicotinic acid, 5-hydroxy-;5-Hydroxy-3-pyridinecarboxylic acid;5-Hydroxynicotinic acid;5-Hydroxypyridine-3-carboxylic acid;NSC 606891;3-Hydroxypyridin-5-ylcarboxylic acid",
    "duplicated_cas_no": "",
    "SMILES": "C(O)(=O)C=1C=C(O)C=NC1",
    "meta_data": {
        "InChI": "InChI=1S/C6H5NO3/c8-5-1-4(6(9)10)2-7-3-5/h1-3,8H,(H,9,10)",
        "InChIKey": null,
        "Canonical SMILES": "O=C(O)C=1C=NC=C(O)C1",
        "Molecular Formula": "C<sub>6</sub>H<sub>5</sub>NO<sub>3</sub>",
        "Molecular Mass": "139.11",
        "Melting Point": "299 °C (decomp)"
    }
}