{
    "cas_no": "3839-48-3",
    "key_name": "2-Chloro-2,4,6-cycloheptatrien-1-one",
    "cn_name": null,
    "alternate_name": "2,4,6-Cycloheptatrien-1-one, 2-chloro-;2-Chloro-2,4,6-cycloheptatrien-1-one;2-Chlorotropone;2-Chlorocycloheptatrienone;2-Chlorocyclohepta-2,4,6-trienone;NSC 328816",
    "duplicated_cas_no": "",
    "SMILES": "ClC=1C(=O)C=CC=CC1",
    "meta_data": {
        "InChI": "InChI=1S/C7H5ClO/c8-6-4-2-1-3-5-7(6)9/h1-5H",
        "InChIKey": null,
        "Canonical SMILES": "O=C1C=CC=CC=C1Cl",
        "Molecular Formula": "C<sub>7</sub>H<sub>5</sub>ClO",
        "Molecular Mass": "140.57",
        "Boiling Point": "79-82 °C @ Press: 0.01 Torr",
        "Melting Point": "63-64 °C"
    }
}