{
    "cas_no": "21129-09-9",
    "key_name": "1,2-Tetradecanediol",
    "cn_name": "1,2-十四烷二醇;",
    "alternate_name": "1,2-Tetradecanediol;1,2-Tetradecylene glycol;<em>n</em>-Tetradecane-1,2-diol;NSC 71507;1,2-Dihydroxytetradecane",
    "duplicated_cas_no": "95847-00-0",
    "SMILES": "C(CCC(CO)O)CCCCCCCCC",
    "meta_data": {
        "InChI": "InChI=1S/C14H30O2/c1-2-3-4-5-6-7-8-9-10-11-12-14(16)13-15/h14-16H,2-13H2,1H3",
        "InChIKey": null,
        "Canonical SMILES": "OCC(O)CCCCCCCCCCCC",
        "Molecular Formula": "C<sub>14</sub>H<sub>30</sub>O<sub>2</sub>",
        "Molecular Mass": "230.39",
        "Boiling Point": "152-154 °C @ Press: 0.2 Torr",
        "Melting Point": "68-68.5 °C"
    }
}