{
    "cas_no": "7507-89-3",
    "key_name": "1-(2,6-Dihydroxy-4-methoxyphenyl)ethanone",
    "cn_name": null,
    "alternate_name": "Ethanone, 1-(2,6-dihydroxy-4-methoxyphenyl)-;Acetophenone, 2′,6′-dihydroxy-4′-methoxy-;1-(2,6-Dihydroxy-4-methoxyphenyl)ethanone;4-<em>O</em>-Methylphloroacetophenone;2′,6′-Dihydroxy-4′-methoxyacetophenone;NSC 401443;1-(2,6-Dihydroxy-4-methoxyphenyl)ethan-1-one",
    "duplicated_cas_no": "",
    "SMILES": "C(C)(=O)C1=C(O)C=C(OC)C=C1O",
    "meta_data": {
        "InChI": "InChI=1S/C9H10O4/c1-5(10)9-7(11)3-6(13-2)4-8(9)12/h3-4,11-12H,1-2H3",
        "InChIKey": null,
        "Canonical SMILES": "O=C(C1=C(O)C=C(OC)C=C1O)C",
        "Molecular Formula": "C<sub>9</sub>H<sub>10</sub>O<sub>4</sub>",
        "Molecular Mass": "182.17",
        "Melting Point": "130-137 °C"
    }
}