{
    "cas_no": "80563-86-6",
    "key_name": "3-Chloro-2-methylbenzenesulfonyl chloride",
    "cn_name": "3-氯-2-甲基苯磺酰氯;",
    "alternate_name": "Benzenesulfonyl chloride, 3-chloro-2-methyl-;<em>o</em>-Toluenesulfonyl chloride, 3-chloro-;3-Chloro-2-methylbenzenesulfonyl chloride;3-Chloro-2-methylbenzene-1-sulfonyl chloride;3-Chloro-2-methylphenylsulfonyl chloride;2-Methyl-3-chlorobenzenesulfonyl chloride",
    "duplicated_cas_no": "",
    "SMILES": "S(Cl)(=O)(=O)C1=C(C)C(Cl)=CC=C1",
    "meta_data": {
        "InChI": "InChI=1S/C7H6Cl2O2S/c1-5-6(8)3-2-4-7(5)12(9,10)11/h2-4H,1H3",
        "InChIKey": null,
        "Canonical SMILES": "O=S(=O)(Cl)C=1C=CC=C(Cl)C1C",
        "Molecular Formula": "C<sub>7</sub>H<sub>6</sub>Cl<sub>2</sub>O<sub>2</sub>S",
        "Molecular Mass": "225.09",
        "Melting Point": "72 °C"
    }
}