{
    "cas_no": "21852-50-6",
    "key_name": "3,4,5-Trimethoxybenzyl bromide",
    "cn_name": null,
    "alternate_name": "Benzene, 5-(bromomethyl)-1,2,3-trimethoxy-;Toluene, α-bromo-3,4,5-trimethoxy-;5-(Bromomethyl)-1,2,3-trimethoxybenzene;3,4,5-Trimethoxybenzyl bromide;1-(Bromomethyl)-3,4,5-trimethoxybenzene;(3,4,5-Trimethoxyphenyl)methyl bromide",
    "duplicated_cas_no": "",
    "SMILES": "O(C)C1=C(OC)C=C(CBr)C=C1OC",
    "meta_data": {
        "InChI": "InChI=1S/C10H13BrO3/c1-12-8-4-7(6-11)5-9(13-2)10(8)14-3/h4-5H,6H2,1-3H3",
        "InChIKey": null,
        "Canonical SMILES": "BrCC1=CC(OC)=C(OC)C(OC)=C1",
        "Molecular Formula": "C<sub>10</sub>H<sub>13</sub>BrO<sub>3</sub>",
        "Molecular Mass": "261.11",
        "Melting Point": "74-75 °C"
    }
}