{
    "cas_no": "14273-90-6",
    "key_name": "Methyl 6-bromohexanoate",
    "cn_name": "6-溴己酸甲酯;",
    "alternate_name": "Hexanoic acid, 6-bromo-, methyl ester;Methyl 6-bromohexanoate;Methyl 6-bromocaproate;6-Bromohexanoic acid methyl ester",
    "duplicated_cas_no": "671195-32-7",
    "SMILES": "C(CCCCCBr)(OC)=O",
    "meta_data": {
        "InChI": "InChI=1S/C7H13BrO2/c1-10-7(9)5-3-2-4-6-8/h2-6H2,1H3",
        "InChIKey": null,
        "Canonical SMILES": "O=C(OC)CCCCCBr",
        "Molecular Formula": "C<sub>7</sub>H<sub>13</sub>BrO<sub>2</sub>",
        "Molecular Mass": "209.08",
        "Boiling Point": "100 °C @ Press: 5 Torr",
        "Density": "1.271 g/cm³ @ Temp: 25 °C"
    }
}