{
    "cas_no": "13071-79-9",
    "key_name": "Terbufos",
    "cn_name": "特丁磷;特丁硫磷;S-叔丁基硫甲基-O,O-二乙基二硫代磷酸酯;",
    "alternate_name": "Phosphorodithioic acid, <em>S</em>-[[(1,1-dimethylethyl)thio]methyl] <em>O</em>,<em>O</em>-diethyl ester;Phosphorodithioic acid, <em>S</em>-[(<em>tert</em>-butylthio)methyl] <em>O</em>,<em>O</em>-diethyl ester;Methanethiol, (<em>tert</em>-butylthio)-, <em>S</em>-ester with <em>O</em>,<em>O</em>-diethyl phosphorodithioate;<em>O</em>,<em>O</em>-Diethyl <em>S</em>-(<em>tert</em>-butylthio)methyl phosphorodithioate;Counter;AC 92100;<em>S</em>-[(<em>tert</em>-Butylthio)methyl] <em>O</em>,<em>O</em>-diethyl phosphorodithioate;Terbufos;Counter 15G;<em>O</em>,<em>O</em>-Diethyl <em>S</em>-[[(1,1-dimethylethyl)thio]methyl] phosphorodithioate;Cyanater;Terbuphos;Terbutifos;Counter 20G",
    "duplicated_cas_no": "",
    "SMILES": "P(SCSC(C)(C)C)(OCC)(OCC)=S",
    "meta_data": {
        "InChI": "InChI=1S/C9H21O2PS3/c1-6-10-12(13,11-7-2)15-8-14-9(3,4)5/h6-8H2,1-5H3",
        "InChIKey": null,
        "Canonical SMILES": "S=P(OCC)(OCC)SCSC(C)(C)C",
        "Molecular Formula": "C<sub>9</sub>H<sub>21</sub>O<sub>2</sub>PS<sub>3</sub>",
        "Molecular Mass": "288.43",
        "Boiling Point": "69 °C @ Press: 0.01 Torr",
        "Melting Point": "-29 °C",
        "Density": "1.105 g/cm³ @ Temp: 24 °C"
    }
}