{
    "cas_no": "693-93-6",
    "key_name": "4-Methyloxazole",
    "cn_name": null,
    "alternate_name": "Oxazole, 4-methyl-;4-Methyloxazole",
    "duplicated_cas_no": "",
    "SMILES": "CC1=COC=N1",
    "meta_data": {
        "InChI": "InChI=1S/C4H5NO/c1-4-2-6-3-5-4/h2-3H,1H3",
        "InChIKey": null,
        "Canonical SMILES": "N1=COC=C1C",
        "Molecular Formula": "C<sub>4</sub>H<sub>5</sub>NO",
        "Molecular Mass": "83.09",
        "Boiling Point": "88 °C"
    }
}