{
    "cas_no": "41198-08-7",
    "key_name": "Profenofos",
    "cn_name": "丙溴磷;",
    "alternate_name": "Phosphorothioic acid, <em>O</em>-(4-bromo-2-chlorophenyl) <em>O</em>-ethyl <em>S</em>-propyl ester;<em>O</em>-(4-Bromo-2-chlorophenyl) <em>O</em>-ethyl <em>S</em>-propyl phosphorothioate;CGA 15324;Profenofos;Curacron;<em>O</em>-Ethyl-<em>S</em>-<em>n</em>-propyl-<em>O</em>-(2-chloro-4-bromophenyl)thiophosphate;Polycron;Selecron;<em>O</em>-Ethyl <em>S</em>-propyl <em>O</em>-(2-chloro-4-bromophenyl)thiophosphate;Tambo;Profenophos;Carina;Calofos;Prowess;Ictacron;Sylian;Teleton;Cord (insecticide);Cord",
    "duplicated_cas_no": "61230-42-0;61287-51-2;92760-41-3",
    "SMILES": "O(P(SCCC)(OCC)=O)C1=C(Cl)C=C(Br)C=C1",
    "meta_data": {
        "InChI": "InChI=1S/C11H15BrClO3PS/c1-3-7-18-17(14,15-4-2)16-11-6-5-9(12)8-10(11)13/h5-6,8H,3-4,7H2,1-2H3",
        "InChIKey": null,
        "Canonical SMILES": "O=P(OC1=CC=C(Br)C=C1Cl)(OCC)SCCC",
        "Molecular Formula": "C<sub>11</sub>H<sub>15</sub>BrClO<sub>3</sub>PS",
        "Molecular Mass": "373.63",
        "Boiling Point": "100 °C @ Press: 0.0135 Torr",
        "Melting Point": "&lt;25 °C",
        "Density": "1.455 g/cm³ @ Temp: 20 °C"
    }
}