{
    "cas_no": "150-96-9",
    "key_name": "3-Hydroxy-3-methylpentanoic acid",
    "cn_name": "3-羟基-3-甲基戊酸;",
    "alternate_name": "Pentanoic acid, 3-hydroxy-3-methyl-;Valeric acid, 3-hydroxy-3-methyl-;3-Hydroxy-3-methylpentanoic acid;β-Hydroxy-β-methylvaleric acid;Deoxymevalonic acid;<span class=\"text-smallcaps\">DL</span>-3-Hydroxy-3-methylpentanoic acid",
    "duplicated_cas_no": "84888-61-9",
    "SMILES": "C(C(CC)(C)O)C(O)=O",
    "meta_data": {
        "InChI": "InChI=1S/C6H12O3/c1-3-6(2,9)4-5(7)8/h9H,3-4H2,1-2H3,(H,7,8)",
        "InChIKey": null,
        "Canonical SMILES": "O=C(O)CC(O)(C)CC",
        "Molecular Formula": "C<sub>6</sub>H<sub>12</sub>O<sub>3</sub>",
        "Molecular Mass": "132.16",
        "Boiling Point": "138-139 °C @ Press: 18 Torr"
    }
}