{
    "cas_no": "14783-09-6",
    "key_name": "(<em>T</em>-4)-Dichloro(1,10-phenanthroline-κ<em>N</em><sup>1</sup>,κ<em>N</em><sup>10</sup>)copper",
    "cn_name": "二氯(1,10-亚铁试剂)铜(II);二氯(邻二氮杂菲)铜(II);",
    "alternate_name": "Copper, dichloro(1,10-phenanthroline-κ<em>N</em><sup>1</sup>,κ<em>N</em><sup>10</sup>)-, (<em>T</em>-4)-;Copper, dichloro(1,10-phenanthroline)-;Copper, dichloro(1,10-phenanthroline-<em>N</em><sup>1</sup>,<em>N</em><sup>10</sup>)-, (<em>T</em>-4)-;(<em>T</em>-4)-Dichloro(1,10-phenanthroline-κ<em>N</em><sup>1</sup>,κ<em>N</em><sup>10</sup>)copper;Dichloro(1,10-phenanthroline)copper",
    "duplicated_cas_no": "",
    "SMILES": "[Cl-][Cu+2]1([Cl-])[N]=2C3=C4[N]1=CC=CC4=CC=C3C=CC2",
    "meta_data": {
        "InChI": "InChI=1S/C12H8N2.2ClH.Cu/c1-3-9-5-6-10-4-2-8-14-12(10)11(9)13-7-1;;;/h1-8H;2*1H;/q;;;+2/p-2",
        "InChIKey": null,
        "Canonical SMILES": "[Cl-][Cu+2]1([Cl-])[N]=2C=CC=C3C=CC4=CC=C[N]1=C4C32",
        "Molecular Formula": "C<sub>12</sub>H<sub>8</sub>Cl<sub>2</sub>CuN<sub>2</sub>",
        "Molecular Mass": "",
        "Melting Point": "295 °C"
    }
}