{
    "cas_no": "4184-79-6",
    "key_name": "5,6-Dimethyl-1<em>H</em>-benzotriazole",
    "cn_name": "5,6-二甲基-1H-苯并三唑水合物;5,6-二甲基-1H-苯并三唑;",
    "alternate_name": "1<em>H</em>-Benzotriazole, 5,6-dimethyl-;Benzotriazole, 5,6-dimethyl-;5,6-Dimethyl-1<em>H</em>-benzotriazole;5,6-Dimethylbenzotriazole;5,6-Dimethyl-1,2,3-benzotriazole;NSC 62005;5,6-Dimethyl-1<em>H</em>-benzo[<em>d</em>][1,2,3]triazole",
    "duplicated_cas_no": "49686-87-5",
    "SMILES": "CC=1C=C2C(=CC1C)N=NN2",
    "meta_data": {
        "InChI": "InChI=1S/C8H9N3/c1-5-3-7-8(4-6(5)2)10-11-9-7/h3-4H,1-2H3,(H,9,10,11)",
        "InChIKey": null,
        "Canonical SMILES": "N1=NC=2C=C(C(=CC2N1)C)C",
        "Molecular Formula": "C<sub>8</sub>H<sub>9</sub>N<sub>3</sub>",
        "Molecular Mass": "147.18",
        "Melting Point": "156-157 °C"
    }
}