{
    "cas_no": "5399-87-1",
    "key_name": "6-Chloropurine riboside",
    "cn_name": null,
    "alternate_name": "9<em>H</em>-Purine, 6-chloro-9-β-<span class=\"text-smallcaps\">D</span>-ribofuranosyl-;6-Chloro-9-β-<span class=\"text-smallcaps\">D</span>-ribofuranosyl-9<em>H</em>-purine;NSC 4910;6-Chloro-9-β-<span class=\"text-smallcaps\">D</span>-ribofuranosylpurine;6-Chloropurine riboside;6-Chloronebularine;6-Chloropurinosine;6-Chloropurine 9-β-<span class=\"text-smallcaps\">D</span>-ribofuranoside;6-Chloro-6-deaminoadenosine;9-(β-<span class=\"text-smallcaps\">D</span>-Ribofuranosyl)-6-chloropurine;6-Chloropurine-<span class=\"text-smallcaps\">D</span>-riboside",
    "duplicated_cas_no": "1194745-01-1",
    "SMILES": "O[C@H]1[C@H](N2C=3C(N=C2)=C(Cl)N=CN3)O[C@H](CO)[C@H]1O",
    "meta_data": {
        "InChI": "InChI=1S/C10H11ClN4O4/c11-8-5-9(13-2-12-8)15(3-14-5)10-7(18)6(17)4(1-16)19-10/h2-4,6-7,10,16-18H,1H2/t4-,6-,7-,10-/m1/s1",
        "InChIKey": null,
        "Canonical SMILES": "ClC1=NC=NC2=C1N=CN2C3OC(CO)C(O)C3O",
        "Molecular Formula": "C<sub>10</sub>H<sub>11</sub>ClN<sub>4</sub>O<sub>4</sub>",
        "Molecular Mass": "286.67",
        "Melting Point": "180-182 °C"
    }
}