{
    "cas_no": "626-48-2",
    "key_name": "6-Methyluracil",
    "cn_name": "2,4-二羟基-6-甲基嘧啶;6-甲基脲嘧啶;",
    "alternate_name": "2,4(1<em>H</em>,3<em>H</em>)-Pyrimidinedione, 6-methyl-;Uracil, 6-methyl-;6-Methyl-2,4(1<em>H</em>,3<em>H</em>)-pyrimidinedione;6-Methyluracil;Pseudothymine;2,4-Dihydroxy-6-methylpyrimidine;AWD 23-15;K 4;NSC 9456;6-Methylpyrimidine-2,4-diol;2-Hydroxy-6-methyl-1,4-dihydropyrimidin-4-one;2-Hydroxy-6-methyl-3,4-dihydropyrimidin-4-one",
    "duplicated_cas_no": "15985-99-6;78334-35-7",
    "SMILES": "CC1=CC(=O)NC(=O)N1",
    "meta_data": {
        "InChI": "InChI=1S/C5H6N2O2/c1-3-2-4(8)7-5(9)6-3/h2H,1H3,(H2,6,7,8,9)",
        "InChIKey": null,
        "Canonical SMILES": "O=C1C=C(NC(=O)N1)C",
        "Molecular Formula": "C<sub>5</sub>H<sub>6</sub>N<sub>2</sub>O<sub>2</sub>",
        "Molecular Mass": "126.11",
        "Melting Point": "290 °C"
    }
}