{
    "cas_no": "5577-13-9",
    "key_name": "Ethyl <em>N</em>-[(4-methylphenyl)sulfonyl]carbamate",
    "cn_name": "N-(4-甲基苯基)磺酰氨基甲酸乙酯;",
    "alternate_name": "Carbamic acid, <em>N</em>-[(4-methylphenyl)sulfonyl]-, ethyl ester;Carbamic acid, (<em>p</em>-tolylsulfonyl)-, ethyl ester;Carbamic acid, [(4-methylphenyl)sulfonyl]-, ethyl ester;Ethyl <em>N</em>-[(4-methylphenyl)sulfonyl]carbamate;Ethyl <em>p</em>-tosylcarbamate;Ethyl (<em>p</em>-toluenesulfonyl)carbamate;Ethyl (<em>p</em>-tolylsulfonyl)carbamate;Tosylurethane;Ethyl <em>N</em>-(4-methylbenzenesulfonyl)carbamate;<em>N</em>-Tosylurethane;Ethyl <em>N</em>-tosylcarbamate;Ethyl tosylcarbamate",
    "duplicated_cas_no": "",
    "SMILES": "S(NC(OCC)=O)(=O)(=O)C1=CC=C(C)C=C1",
    "meta_data": {
        "InChI": "InChI=1S/C10H13NO4S/c1-3-15-10(12)11-16(13,14)9-6-4-8(2)5-7-9/h4-7H,3H2,1-2H3,(H,11,12)",
        "InChIKey": null,
        "Canonical SMILES": "O=C(OCC)NS(=O)(=O)C1=CC=C(C=C1)C",
        "Molecular Formula": "C<sub>10</sub>H<sub>13</sub>NO<sub>4</sub>S",
        "Molecular Mass": "243.28",
        "Melting Point": "87-88 °C"
    }
}