{
    "cas_no": "3952-98-5",
    "key_name": "Sinigrin",
    "cn_name": "黑芥子苷;",
    "alternate_name": "β-<span class=\"text-smallcaps\">D</span>-Glucopyranose, 1-thio-, 1-[<em>N</em>-(sulfooxy)-3-butenimidate], potassium salt (1:1);Sinigrin;Glucopyranose, 1-thio-, 1-(3-butenohydroximate) <em>NO</em>-(hydrogen sulfate), monopotassium salt, β-<span class=\"text-smallcaps\">D</span>-;β-<span class=\"text-smallcaps\">D</span>-Glucopyranose, 1-thio-, 1-[<em>N</em>-(sulfooxy)-3-butenimidate], monopotassium salt;Glucopyranose, 1-thio-, 1-(3-butenoate), oxime, <em>O</em>-sulfate, potassium salt, β-<span class=\"text-smallcaps\">D</span>-;Allyl glucosinolate potassium;Sinigrine;NSC 407279;NSC 90774",
    "duplicated_cas_no": "416-40-0;1416-58-6;31014-86-5;31014-89-8",
    "SMILES": "S(C(=NOS(=O)(=O)O)CC=C)[C@@H]1O[C@H](CO)[C@@H](O)[C@H](O)[C@H]1O.[K]",
    "meta_data": {
        "InChI": "InChI=1S/C10H17NO9S2.K/c1-2-3-6(11-20-22(16,17)18)21-10-9(15)8(14)7(13)5(4-12)19-10;/h2,5,7-10,12-15H,1,3-4H2,(H,16,17,18);/t5-,7-,8+,9-,10+;/m1./s1",
        "InChIKey": null,
        "Canonical SMILES": "[K].O=S(=O)(O)ON=C(SC1OC(CO)C(O)C(O)C1O)CC=C",
        "Molecular Formula": "C<sub>10</sub>H<sub>17</sub>NO<sub>9</sub>S<sub>2</sub>.K",
        "Molecular Mass": "",
        "Melting Point": "127 °C"
    }
}