{
    "cas_no": "553-94-6",
    "key_name": "Bromo-<em>p</em>-xylene",
    "cn_name": "2,5-二甲基溴苯;2-溴-1,4-二甲基苯;",
    "alternate_name": "Benzene, 2-bromo-1,4-dimethyl-;<em>p</em>-Xylene, 2-bromo-;2-Bromo-1,4-dimethylbenzene;2-Bromo-<em>p</em>-xylene;2-Bromo-1,4-xylene;1-Bromo-2,5-dimethylbenzene;2,5-Dimethylbromobenzene;2,5-Dimethylphenyl bromide;2,5-Xylyl bromide;Bromo-<em>p</em>-xylene;NSC 8051",
    "duplicated_cas_no": "",
    "SMILES": "BrC1=C(C)C=CC(C)=C1",
    "meta_data": {
        "InChI": "InChI=1S/C8H9Br/c1-6-3-4-7(2)8(9)5-6/h3-5H,1-2H3",
        "InChIKey": null,
        "Canonical SMILES": "BrC1=CC(=CC=C1C)C",
        "Molecular Formula": "C<sub>8</sub>H<sub>9</sub>Br",
        "Molecular Mass": "185.06",
        "Boiling Point": "199 °C",
        "Melting Point": "9 °C",
        "Density": "1.339 g/cm³ @ Temp: 32 °C"
    }
}