{
    "cas_no": "7729-23-9",
    "key_name": "Hirsutine",
    "cn_name": "毛钩藤碱;毛帽柱木碱;二氢柯楠因碱;陆地棉苷;",
    "alternate_name": "Indolo[2,3-<em>a</em>]quinolizine-2-acetic acid, 3-ethyl-1,2,3,4,6,7,12,12b-octahydro-α-(methoxymethylene)-, methyl ester, (α<em>E</em>,2<em>S</em>,3<em>R</em>,12b<em>R</em>)-;Hirsutine;17,18-Seco-3β-yohimban-16-carboxylic acid, 16,17-didehydro-17-methoxy-, methyl ester, (<em>E</em>)-;Corynan-16-carboxylic acid, 16,17-didehydro-17-methoxy-, methyl ester, (3β,16<em>E</em>)-;Hirsutine (Mitragyna);Indolo[2,3-<em>a</em>]quinolizine-2-acetic acid, 3-ethyl-1,2,3,4,6,7,12,12b-octahydro-α-(methoxymethylene)-, methyl ester, [2<em>S</em>-[2α(<em>E</em>),3β,12bα]]-",
    "duplicated_cas_no": "",
    "SMILES": "C(\\C(OC)=O)(=C/OC)/[C@H]1C[C@@]2(C3=C(C=4C(N3)=CC=CC4)CCN2C[C@@H]1CC)[H]",
    "meta_data": {
        "InChI": "InChI=1S/C22H28N2O3/c1-4-14-12-24-10-9-16-15-7-5-6-8-19(15)23-21(16)20(24)11-17(14)18(13-26-2)22(25)27-3/h5-8,13-14,17,20,23H,4,9-12H2,1-3H3/b18-13+/t14-,17-,20+/m0/s1",
        "InChIKey": null,
        "Canonical SMILES": "O=C(OC)C(=COC)C1CC2C=3NC=4C=CC=CC4C3CCN2CC1CC",
        "Molecular Formula": "C<sub>22</sub>H<sub>28</sub>N<sub>2</sub>O<sub>3</sub>",
        "Molecular Mass": "368.47",
        "Melting Point": "101 °C"
    }
}