{
    "cas_no": "2146-38-5",
    "key_name": "Ethylcyclopentene",
    "cn_name": "1-乙基-1-环戊烯;",
    "alternate_name": "Cyclopentene, 1-ethyl-;1-Ethylcyclopentene;1-Ethyl-1-cyclopentene;Ethylcyclopentene;NSC 73920",
    "duplicated_cas_no": "",
    "SMILES": "C(C)C=1CCCC1",
    "meta_data": {
        "InChI": "InChI=1S/C7H12/c1-2-7-5-3-4-6-7/h5H,2-4,6H2,1H3",
        "InChIKey": null,
        "Canonical SMILES": "C1=C(CC)CCC1",
        "Molecular Formula": "C<sub>7</sub>H<sub>12</sub>",
        "Molecular Mass": "96.17",
        "Boiling Point": "106.3 °C",
        "Melting Point": "-118.5 °C",
        "Density": "0.7975 g/cm³"
    }
}