{
    "cas_no": "1631-84-1",
    "key_name": "(Dichlorosilyl)benzene",
    "cn_name": "二氯苯基硅烷;苯基二氯硅烷;二氯苯基硅烷;二氯苯基硅烷,96%;",
    "alternate_name": "Benzene, (dichlorosilyl)-;Silane, dichlorophenyl-;(Dichlorosilyl)benzene;Dichlorophenylsilane;Phenyldichlorosilane;NSC 139846",
    "duplicated_cas_no": "",
    "SMILES": "[SiH](Cl)(Cl)C1=CC=CC=C1",
    "meta_data": {
        "InChI": "InChI=1S/C6H6Cl2Si/c7-9(8)6-4-2-1-3-5-6/h1-5,9H",
        "InChIKey": null,
        "Canonical SMILES": "Cl[SiH](Cl)C=1C=CC=CC1",
        "Molecular Formula": "C<sub>6</sub>H<sub>6</sub>Cl<sub>2</sub>Si",
        "Molecular Mass": "177.10",
        "Boiling Point": "181 °C",
        "Density": "1.211 g/cm³"
    }
}