{
    "cas_no": "39565-07-6",
    "key_name": "2-Amino-5,7-dimethyl-1,8-naphthyridine",
    "cn_name": null,
    "alternate_name": "1,8-Naphthyridin-2-amine, 5,7-dimethyl-;1,8-Naphthyridine, 7-amino-2,4-dimethyl-;5,7-Dimethyl-1,8-naphthyridin-2-amine;2-Amino-5,7-dimethyl-1,8-naphthyridine;7-Amino-2,4-dimethyl-1,8-naphthyridine;NSC 118392;2,4-Dimethyl-7-amino-1,8-naphthyridine",
    "duplicated_cas_no": "",
    "SMILES": "CC=1C2=C(N=C(C)C1)N=C(N)C=C2",
    "meta_data": {
        "InChI": "InChI=1S/C10H11N3/c1-6-5-7(2)12-10-8(6)3-4-9(11)13-10/h3-5H,1-2H3,(H2,11,12,13)",
        "InChIKey": null,
        "Canonical SMILES": "N=1C2=NC(=CC(=C2C=CC1N)C)C",
        "Molecular Formula": "C<sub>10</sub>H<sub>11</sub>N<sub>3</sub>",
        "Molecular Mass": "173.21",
        "Melting Point": "215 °C"
    }
}