{
    "cas_no": "824-55-5",
    "key_name": "2,4-Dimethylbenzyl chloride",
    "cn_name": null,
    "alternate_name": "Benzene, 1-(chloromethyl)-2,4-dimethyl-;1-(Chloromethyl)-2,4-dimethylbenzene;2,4-Dimethylbenzyl chloride;4-(Chloromethyl)-<em>m</em>-xylene;1,3-Dimethyl-4-chloromethylbenzene;NSC 405479;NSC 574",
    "duplicated_cas_no": "",
    "SMILES": "C(Cl)C1=C(C)C=C(C)C=C1",
    "meta_data": {
        "InChI": "InChI=1S/C9H11Cl/c1-7-3-4-9(6-10)8(2)5-7/h3-5H,6H2,1-2H3",
        "InChIKey": null,
        "Canonical SMILES": "ClCC1=CC=C(C=C1C)C",
        "Molecular Formula": "C<sub>9</sub>H<sub>11</sub>Cl",
        "Molecular Mass": "154.64",
        "Boiling Point": "215.5 °C",
        "Melting Point": "68-69 °C",
        "Density": "1.0597 g/cm³ @ Temp: 20 °C"
    }
}