{
    "cas_no": "1689-83-4",
    "key_name": "Ioxynil",
    "cn_name": null,
    "alternate_name": "Benzonitrile, 4-hydroxy-3,5-diiodo-;4-Hydroxy-3,5-diiodobenzonitrile;3,5-Diiodo-4-hydroxybenzonitrile;Ioxynil;Actril;Certrol;4-Cyano-2,6-diiodophenol;CA 69-15;Joxynil;Trevespan;2,6-Diiodo-4-cyanophenol;Bentrol;Cipotril;Exp 30004A;Ioksynil;MB 8873;Toxynil",
    "duplicated_cas_no": "",
    "SMILES": "C(#N)C1=CC(I)=C(O)C(I)=C1",
    "meta_data": {
        "InChI": "InChI=1S/C7H3I2NO/c8-5-1-4(3-10)2-6(9)7(5)11/h1-2,11H",
        "InChIKey": null,
        "Canonical SMILES": "N#CC1=CC(I)=C(O)C(I)=C1",
        "Molecular Formula": "C<sub>7</sub>H<sub>3</sub>I<sub>2</sub>NO",
        "Molecular Mass": "370.91",
        "Melting Point": "212-213 °C"
    }
}