{
    "cas_no": "42330-59-6",
    "key_name": "2-Chloro-3-pyridinemethanol",
    "cn_name": "2-氯-3-吡啶甲醇;2-氯烟醇;",
    "alternate_name": "3-Pyridinemethanol, 2-chloro-;2-Chloro-3-pyridinemethanol;2-Chloro-3-pyridylmethanol;2-Chloro-3-hydroxymethylpyridine;(2-Chloro-3-pyridinyl)methanol",
    "duplicated_cas_no": "",
    "SMILES": "C(O)C1=C(Cl)N=CC=C1",
    "meta_data": {
        "InChI": "InChI=1S/C6H6ClNO/c7-6-5(4-9)2-1-3-8-6/h1-3,9H,4H2",
        "InChIKey": null,
        "Canonical SMILES": "ClC1=NC=CC=C1CO",
        "Molecular Formula": "C<sub>6</sub>H<sub>6</sub>ClNO",
        "Molecular Mass": "143.57",
        "Melting Point": "62-63 °C"
    }
}