{
    "cas_no": "16618-67-0",
    "key_name": "1-Bromo-3-methoxy-5-nitrobenzene",
    "cn_name": null,
    "alternate_name": "Benzene, 1-bromo-3-methoxy-5-nitro-;Anisole, 3-bromo-5-nitro-;1-Bromo-3-methoxy-5-nitrobenzene;3-Bromo-5-nitroanisole;3-Methoxy-5-nitrophenyl bromide;3-Bromo-5-methoxynitrobenzene",
    "duplicated_cas_no": "",
    "SMILES": "N(=O)(=O)C1=CC(OC)=CC(Br)=C1",
    "meta_data": {
        "InChI": "InChI=1S/C7H6BrNO3/c1-12-7-3-5(8)2-6(4-7)9(10)11/h2-4H,1H3",
        "InChIKey": null,
        "Canonical SMILES": "O=N(=O)C=1C=C(Br)C=C(OC)C1",
        "Molecular Formula": "C<sub>7</sub>H<sub>6</sub>BrNO<sub>3</sub>",
        "Molecular Mass": "232.03",
        "Melting Point": "188 °C"
    }
}