{
    "cas_no": "7025-19-6",
    "key_name": "3-(4-Oxo-2-thioxothiazolidin-3-yl)propanoic acid",
    "cn_name": "罗丹宁-3-丙酸;罗丹宁-3-丙酸;",
    "alternate_name": "3-Thiazolidinepropanoic acid, 4-oxo-2-thioxo-;3-Thiazolidinepropionic acid, 4-oxo-2-thioxo-;4-Oxo-2-thioxo-3-thiazolidinepropanoic acid;3-(β-Carboxyethyl)rhodanine;<em>N</em>-(2-Carboxyethyl)rhodanine;NSC 97091;3-(4-Oxo-2-thioxothiazolidin-3-yl)propanoic acid",
    "duplicated_cas_no": "",
    "SMILES": "C(CC(O)=O)N1C(=O)CSC1=S",
    "meta_data": {
        "InChI": "InChI=1S/C6H7NO3S2/c8-4-3-12-6(11)7(4)2-1-5(9)10/h1-3H2,(H,9,10)",
        "InChIKey": null,
        "Canonical SMILES": "O=C(O)CCN1C(=S)SCC1=O",
        "Molecular Formula": "C<sub>6</sub>H<sub>7</sub>NO<sub>3</sub>S<sub>2</sub>",
        "Molecular Mass": "205.25",
        "Melting Point": "159 °C"
    }
}