{
    "cas_no": "1768-64-5",
    "key_name": "4-Chlorotetrahydro-2<em>H</em>-pyran",
    "cn_name": "4-氯四氢吡喃;",
    "alternate_name": "2<em>H</em>-Pyran, 4-chlorotetrahydro-;Pyran, 4-chlorotetrahydro-;4-Chlorotetrahydro-2<em>H</em>-pyran;4-Chlorotetrahydropyran;4-Chlorooxacyclohexane",
    "duplicated_cas_no": "",
    "SMILES": "ClC1CCOCC1",
    "meta_data": {
        "InChI": "InChI=1S/C5H9ClO/c6-5-1-3-7-4-2-5/h5H,1-4H2",
        "InChIKey": null,
        "Canonical SMILES": "ClC1CCOCC1",
        "Molecular Formula": "C<sub>5</sub>H<sub>9</sub>ClO",
        "Molecular Mass": "120.58",
        "Boiling Point": "46 °C @ Press: 12 Torr",
        "Density": "1.120 g/cm³ @ Temp: 22 °C"
    }
}