{
    "cas_no": "4728-12-5",
    "key_name": "[2,2-Dimethyl-1,3-dioxan-5-yl)methanol",
    "cn_name": null,
    "alternate_name": "1,3-Dioxane-5-methanol, 2,2-dimethyl-;<em>m</em>-Dioxane-5-methanol, 2,2-dimethyl-;2,2-Dimethyl-1,3-dioxane-5-methanol;2,2-Dimethyl-5-hydroxymethyl-1,3-dioxane;[2,2-Dimethyl-1,3-dioxan-5-yl)methanol;2,2-Dimethyl-5-(hydroxymethyl)-1,3-dixoane;8: PN: WO2023109945 SEQID: 16 claimed sequence",
    "duplicated_cas_no": "",
    "SMILES": "C(O)C1COC(C)(C)OC1",
    "meta_data": {
        "InChI": "InChI=1S/C7H14O3/c1-7(2)9-4-6(3-8)5-10-7/h6,8H,3-5H2,1-2H3",
        "InChIKey": null,
        "Canonical SMILES": "OCC1COC(OC1)(C)C",
        "Molecular Formula": "C<sub>7</sub>H<sub>14</sub>O<sub>3</sub>",
        "Molecular Mass": "146.18",
        "Melting Point": "197-198 °C"
    }
}