{
    "cas_no": "1450-63-1",
    "key_name": "1,1′,1′′,1′′′-(1,3-Butadiene-1,4-diylidene)tetrakis[benzene]",
    "cn_name": "1,1,4,4-四苯基-1,3-丁二烯;1,1\",1\"\",1\"\"\"-(1,3-丁二烯-1,4-二基亚基)四苯;",
    "alternate_name": "Benzene, 1,1′,1′′,1′′′-(1,3-butadiene-1,4-diylidene)tetrakis-;1,3-Butadiene, 1,1,4,4-tetraphenyl-;1,1′,1′′,1′′′-(1,3-Butadiene-1,4-diylidene)tetrakis[benzene];1,1,4,4-Tetraphenylbutadiene;1,1,4,4-Tetraphenyl-1,3-butadiene;Tetraphenylbutadiene;TPB (dopant);TPB;NSC 12572;1,1′,4,4′-Tetraphenyl-1,3-butadiene;1,1′,1′′,1′′′-Buta-1,3-diene-1,1,4,4-tetrayltetrabenzene",
    "duplicated_cas_no": "",
    "SMILES": "C(=CC=C(C1=CC=CC=C1)C2=CC=CC=C2)(C3=CC=CC=C3)C4=CC=CC=C4",
    "meta_data": {
        "InChI": "InChI=1S/C28H22/c1-5-13-23(14-6-1)27(24-15-7-2-8-16-24)21-22-28(25-17-9-3-10-18-25)26-19-11-4-12-20-26/h1-22H",
        "InChIKey": null,
        "Canonical SMILES": "C=1C=CC(=CC1)C(=CC=C(C=2C=CC=CC2)C=3C=CC=CC3)C=4C=CC=CC4",
        "Molecular Formula": "C<sub>28</sub>H<sub>22</sub>",
        "Molecular Mass": "358.47",
        "Melting Point": "200 °C"
    }
}