{
    "cas_no": "34246-57-6",
    "key_name": "3-Isopropylbenzaldehyde",
    "cn_name": null,
    "alternate_name": "Benzaldehyde, 3-(1-methylethyl)-;Benzaldehyde, <em>m</em>-isopropyl-;3-(1-Methylethyl)benzaldehyde;<em>m</em>-Isopropylbenzaldehyde;3-Isopropylbenzaldehyde;3-Propan-2-ylbenzaldehyde",
    "duplicated_cas_no": "",
    "SMILES": "C(C)(C)C1=CC(C=O)=CC=C1",
    "meta_data": {
        "InChI": "InChI=1S/C10H12O/c1-8(2)10-5-3-4-9(6-10)7-11/h3-8H,1-2H3",
        "InChIKey": null,
        "Canonical SMILES": "O=CC1=CC=CC(=C1)C(C)C",
        "Molecular Formula": "C<sub>10</sub>H<sub>12</sub>O",
        "Molecular Mass": "148.20",
        "Boiling Point": "95-97 °C"
    }
}