{
    "cas_no": "7776-34-3",
    "key_name": "<span class=\"text-smallcaps\">L</span>-Proline, hydrochloride (1:1)",
    "cn_name": "L-脯氨酸盐酸盐;",
    "alternate_name": "<span class=\"text-smallcaps\">L</span>-Proline, hydrochloride (1:1);Proline, hydrochloride, <span class=\"text-smallcaps\">L</span>-;<span class=\"text-smallcaps\">L</span>-Proline, hydrochloride;Proline hydrochloride;<span class=\"text-smallcaps\">L</span>-Proline monohydrochloride;(<em>S</em>)-Pyrrolidine-2-carboxylic acid hydrochloride",
    "duplicated_cas_no": "",
    "SMILES": "C(O)(=O)[C@@H]1CCCN1.Cl",
    "meta_data": {
        "InChI": "InChI=1S/C5H9NO2.ClH/c7-5(8)4-2-1-3-6-4;/h4,6H,1-3H2,(H,7,8);1H/t4-;/m0./s1",
        "InChIKey": null,
        "Canonical SMILES": "Cl.O=C(O)C1NCCC1",
        "Molecular Formula": "C<sub>5</sub>H<sub>9</sub>NO<sub>2</sub>.ClH",
        "Molecular Mass": "",
        "Melting Point": "155 °C"
    }
}