{
    "cas_no": "37853-59-1",
    "key_name": "1,2-Bis(2,4,6-tribromophenoxy)ethane",
    "cn_name": "1,2-双(2,4,6-三溴苯氧基)乙烷;",
    "alternate_name": "Benzene, 1,1′-[1,2-ethanediylbis(oxy)]bis[2,4,6-tribromo-;1,1′-[1,2-Ethanediylbis(oxy)]bis[2,4,6-tribromobenzene];1,2-Bis(2,4,6-tribromophenoxy)ethane;FireMaster 680;FF 680;FireMaster FF 680;FI 680;FM 680;BTBPE;1,3,5-Tribromo-2-[2-(2,4,6-tribromophenoxy)ethoxy]benzene;DTXSID1024627;FR 3B",
    "duplicated_cas_no": "59764-36-2;70226-42-5;340258-97-1;1071720-50-7",
    "SMILES": "O(CCOC1=C(Br)C=C(Br)C=C1Br)C2=C(Br)C=C(Br)C=C2Br",
    "meta_data": {
        "InChI": "InChI=1S/C14H8Br6O2/c15-7-3-9(17)13(10(18)4-7)21-1-2-22-14-11(19)5-8(16)6-12(14)20/h3-6H,1-2H2",
        "InChIKey": null,
        "Canonical SMILES": "BrC=1C=C(Br)C(OCCOC=2C(Br)=CC(Br)=CC2Br)=C(Br)C1",
        "Molecular Formula": "C<sub>14</sub>H<sub>8</sub>Br<sub>6</sub>O<sub>2</sub>",
        "Molecular Mass": "687.64",
        "Melting Point": "222-223 °C",
        "Density": "2.58 g/cm³"
    }
}