{
    "cas_no": "22633-33-6",
    "key_name": "Methyl 2-hydroxy-3,5-dinitrobenzoate",
    "cn_name": "3,5-二硝基水杨酸甲酯;",
    "alternate_name": "Benzoic acid, 2-hydroxy-3,5-dinitro-, methyl ester;Salicylic acid, 3,5-dinitro-, methyl ester;Methyl 2-hydroxy-3,5-dinitrobenzoate;Methyl 3,5-dinitrosalicylate;NSC 203306;2-Hydroxy-3,5-dinitro-benzoic acid methyl ester",
    "duplicated_cas_no": "",
    "SMILES": "C(OC)(=O)C1=C(O)C(N(=O)=O)=CC(N(=O)=O)=C1",
    "meta_data": {
        "InChI": "InChI=1S/C8H6N2O7/c1-17-8(12)5-2-4(9(13)14)3-6(7(5)11)10(15)16/h2-3,11H,1H3",
        "InChIKey": null,
        "Canonical SMILES": "O=C(OC)C=1C=C(C=C(C1O)N(=O)=O)N(=O)=O",
        "Molecular Formula": "C<sub>8</sub>H<sub>6</sub>N<sub>2</sub>O<sub>7</sub>",
        "Molecular Mass": "242.14",
        "Melting Point": "127-128 °C"
    }
}