{
    "cas_no": "2234-82-4",
    "key_name": "Propylmagnesium chloride",
    "cn_name": "氯化丙基镁;",
    "alternate_name": "Magnesium, chloropropyl-;Propylmagnesium chloride;Chloropropylmagnesium;<em>n</em>-Propylmagnesium chloride",
    "duplicated_cas_no": "",
    "SMILES": "C(CC)[Mg]Cl",
    "meta_data": {
        "InChI": "InChI=1S/C3H7.ClH.Mg/c1-3-2;;/h1,3H2,2H3;1H;/q;;+1/p-1",
        "InChIKey": null,
        "Canonical SMILES": "Cl[Mg]CCC",
        "Molecular Formula": "C<sub>3</sub>H<sub>7</sub>ClMg",
        "Molecular Mass": "",
        "Boiling Point": "148-150 °C @ Press: 15 Torr"
    }
}