{
    "cas_no": "139001-49-3",
    "key_name": "Profoxydim",
    "cn_name": null,
    "alternate_name": "2-Cyclohexen-1-one, 2-[1-[[2-(4-chlorophenoxy)propoxy]imino]butyl]-3-hydroxy-5-(tetrahydro-2<em>H</em>-thiopyran-3-yl)-;2<em>H</em>-Thiopyran, 2-cyclohexen-1-one deriv.;2-[1-[[2-(4-Chlorophenoxy)propoxy]imino]butyl]-3-hydroxy-5-(tetrahydro-2<em>H</em>-thiopyran-3-yl)-2-cyclohexen-1-one;BAS 625H;Aura;Tetris;Profoxydim;BAS 625;Clefoxydim;Aura Plus;2-[1-[2-(4-Chlorophenoxy)propoxyimino]butyl]-3-hydroxy-5-thian-3-ylcyclohex-2-enone",
    "duplicated_cas_no": "211496-02-5",
    "SMILES": "O=C1CC(CC(O)=C1C(=NOCC(OC2=CC=C(Cl)C=C2)C)CCC)C3CCCSC3",
    "meta_data": {
        "InChI": "InChI=1S/C24H32ClNO4S/c1-3-5-21(26-29-14-16(2)30-20-9-7-19(25)8-10-20)24-22(27)12-18(13-23(24)28)17-6-4-11-31-15-17/h7-10,16-18,27H,3-6,11-15H2,1-2H3",
        "InChIKey": null,
        "Canonical SMILES": "O=C1C(=C(O)CC(C1)C2CSCCC2)C(=NOCC(OC3=CC=C(Cl)C=C3)C)CCC",
        "Molecular Formula": "C<sub>24</sub>H<sub>32</sub>ClNO<sub>4</sub>S",
        "Molecular Mass": "466.03",
        "Melting Point": "&lt;25 °C"
    }
}