{
    "cas_no": "1588-83-6",
    "key_name": "4-Amino-3-nitrobenzoic acid",
    "cn_name": "4-氨基-3-硝基苯甲酸;",
    "alternate_name": "Benzoic acid, 4-amino-3-nitro-;4-Amino-3-nitrobenzoic acid;3-Nitro-4-aminobenzoic acid;4-Carboxy-2-nitroaniline;NSC 20673",
    "duplicated_cas_no": "",
    "SMILES": "N(=O)(=O)C1=CC(C(O)=O)=CC=C1N",
    "meta_data": {
        "InChI": "InChI=1S/C7H6N2O4/c8-5-2-1-4(7(10)11)3-6(5)9(12)13/h1-3H,8H2,(H,10,11)",
        "InChIKey": null,
        "Canonical SMILES": "O=C(O)C1=CC=C(N)C(=C1)N(=O)=O",
        "Molecular Formula": "C<sub>7</sub>H<sub>6</sub>N<sub>2</sub>O<sub>4</sub>",
        "Molecular Mass": "182.13",
        "Melting Point": "284 °C"
    }
}