{
    "cas_no": "109-15-9",
    "key_name": "Octyl isobutyrate",
    "cn_name": "异丁酸辛酯;",
    "alternate_name": "Propanoic acid, 2-methyl-, octyl ester;Isobutyric acid, octyl ester;Caprylyl isobutyrate;Octyl isobutyrate;<em>n</em>-Octyl isobutyrate;ENT 24265;Octyl 2-methylpropanoate;<em>n</em>-Octyl 2-methylpropanoate;NSC 72024;Octyl isobutanoate",
    "duplicated_cas_no": "",
    "SMILES": "O(C(C(C)C)=O)CCCCCCCC",
    "meta_data": {
        "InChI": "InChI=1S/C12H24O2/c1-4-5-6-7-8-9-10-14-12(13)11(2)3/h11H,4-10H2,1-3H3",
        "InChIKey": null,
        "Canonical SMILES": "O=C(OCCCCCCCC)C(C)C",
        "Molecular Formula": "C<sub>12</sub>H<sub>24</sub>O<sub>2</sub>",
        "Molecular Mass": "200.32",
        "Boiling Point": "120 °C @ Press: 10 Torr",
        "Density": "0.8711 g/cm³ @ Temp: 20 °C"
    }
}