{
    "cas_no": "61301-56-2",
    "key_name": "(<em>E</em>)-11-Hexadecen-1-ol",
    "cn_name": null,
    "alternate_name": "11-Hexadecen-1-ol, (11<em>E</em>)-;11-Hexadecen-1-ol, (<em>E</em>)-;(11<em>E</em>)-11-Hexadecen-1-ol;(<em>E</em>)-11-Hexadecenol;<em>trans</em>-11-Hexadecen-1-ol;(<em>E</em>)-11-Hexadecen-1-ol",
    "duplicated_cas_no": "",
    "SMILES": "C(CC/C=C/CCCC)CCCCCCCO",
    "meta_data": {
        "InChI": "InChI=1S/C16H32O/c1-2-3-4-5-6-7-8-9-10-11-12-13-14-15-16-17/h5-6,17H,2-4,7-16H2,1H3/b6-5+",
        "InChIKey": null,
        "Canonical SMILES": "OCCCCCCCCCCC=CCCCC",
        "Molecular Formula": "C<sub>16</sub>H<sub>32</sub>O",
        "Molecular Mass": "240.42",
        "Boiling Point": "134-138 °C @ Press: 0.2 Torr"
    }
}