{
    "cas_no": "88277-83-2",
    "key_name": "1,4-Dioxane-2-methanamine",
    "cn_name": null,
    "alternate_name": "1,4-Dioxane-2-methanamine;2-Aminomethyl-1,4-dioxane;(1,4-Dioxan-2-yl)methanamine;1-(1,4-Dioxan-2-yl)methanamine;1,4-Dioxan-2-ylmethylamine",
    "duplicated_cas_no": "",
    "SMILES": "C(N)C1COCCO1",
    "meta_data": {
        "InChI": "InChI=1S/C5H11NO2/c6-3-5-4-7-1-2-8-5/h5H,1-4,6H2",
        "InChIKey": null,
        "Canonical SMILES": "O1CCOC(C1)CN",
        "Molecular Formula": "C<sub>5</sub>H<sub>11</sub>NO<sub>2</sub>",
        "Molecular Mass": "117.15",
        "Boiling Point": "84 °C @ Press: 18 Torr",
        "Melting Point": "78-80 °C",
        "Density": "1.0798 g/cm³ @ Temp: 20 °C"
    }
}