{
    "cas_no": "924-41-4",
    "key_name": "1,5-Hexadien-3-ol",
    "cn_name": "1,5-己二烯醇;1,5-己二烯-3-醇;",
    "alternate_name": "1,5-Hexadien-3-ol;3-Hydroxy-1,5-hexadiene;1,5-Hexadiene-3-ol;NSC 102761",
    "duplicated_cas_no": "124440-55-7",
    "SMILES": "C(CC=C)(C=C)O",
    "meta_data": {
        "InChI": "InChI=1S/C6H10O/c1-3-5-6(7)4-2/h3-4,6-7H,1-2,5H2",
        "InChIKey": null,
        "Canonical SMILES": "OC(C=C)CC=C",
        "Molecular Formula": "C<sub>6</sub>H<sub>10</sub>O",
        "Molecular Mass": "98.14",
        "Boiling Point": "133.5 °C",
        "Density": "0.8596 g/cm³ @ Temp: 25 °C"
    }
}