{
    "cas_no": "506410-53-3",
    "key_name": "Luteolin 7-<em>O</em>-[2-(β-<span class=\"text-smallcaps\">D</smallcap>-apiofuranosyl)-β-<smallcap>D</span>-glucopyranoside]",
    "cn_name": null,
    "alternate_name": "4<em>H</em>-1-Benzopyran-4-one, 7-[(2-<em>O</em>-<span class=\"text-smallcaps\">D</smallcap>-apio-β-<smallcap>D</smallcap>-furanosyl-β-<smallcap>D</span>-glucopyranosyl)oxy]-2-(3,4-dihydroxyphenyl)-5-hydroxy-;7-[(2-<em>O</em>-<span class=\"text-smallcaps\">D</smallcap>-Apio-β-<smallcap>D</smallcap>-furanosyl-β-<smallcap>D</span>-glucopyranosyl)oxy]-2-(3,4-dihydroxyphenyl)-5-hydroxy-4<em>H</em>-1-benzopyran-4-one;Luteolin 7-<em>O</em>-[2-(β-<span class=\"text-smallcaps\">D</smallcap>-apiofuranosyl)-β-<smallcap>D</span>-glucopyranoside];Graveobioside A;Luteolin 7-<em>O</em>-(2-apiosyl)glucoside",
    "duplicated_cas_no": "63808-23-1",
    "SMILES": "O=C1C=2C(OC(=C1)C3=CC(O)=C(O)C=C3)=CC(O[C@H]4[C@H](O[C@H]5[C@H](O)[C@](CO)(O)CO5)[C@@H](O)[C@H](O)[C@@H](CO)O4)=CC2O",
    "meta_data": {
        "InChI": "InChI=1S/C26H28O15/c27-7-18-20(33)21(34)22(41-25-23(35)26(36,8-28)9-37-25)24(40-18)38-11-4-14(31)19-15(32)6-16(39-17(19)5-11)10-1-2-12(29)13(30)3-10/h1-6,18,20-25,27-31,33-36H,7-9H2/t18-,20-,21+,22-,23+,24-,25+,26-/m1/s1",
        "InChIKey": null,
        "Canonical SMILES": "O=C1C=C(OC2=CC(OC3OC(CO)C(O)C(O)C3OC4OCC(O)(CO)C4O)=CC(O)=C12)C=5C=CC(O)=C(O)C5",
        "Molecular Formula": "C<sub>26</sub>H<sub>28</sub>O<sub>15</sub>",
        "Molecular Mass": "580.49",
        "Melting Point": "251-252 °C"
    }
}