{
    "cas_no": "1118-92-9",
    "key_name": "<em>N</em>,<em>N</em>-Dimethyloctanamide",
    "cn_name": "N,N-二甲基辛酰胺;",
    "alternate_name": "Octanamide, <em>N</em>,<em>N</em>-dimethyl-;Caprylamide, <em>N</em>,<em>N</em>-dimethyl-;<em>N</em>,<em>N</em>-Dimethyloctanamide;<em>N</em>,<em>N</em>-Dimethylcaprylamide",
    "duplicated_cas_no": "",
    "SMILES": "C(C(N(C)C)=O)CCCCCC",
    "meta_data": {
        "InChI": "InChI=1S/C10H21NO/c1-4-5-6-7-8-9-10(12)11(2)3/h4-9H2,1-3H3",
        "InChIKey": null,
        "Canonical SMILES": "O=C(N(C)C)CCCCCCC",
        "Molecular Formula": "C<sub>10</sub>H<sub>21</sub>NO",
        "Molecular Mass": "171.28",
        "Boiling Point": "175-177 °C @ Press: 0.15 Torr"
    }
}