{
    "cas_no": "932-30-9",
    "key_name": "2-(Aminomethyl)phenol",
    "cn_name": "2-羟基苄胺;邻羟基苄胺;邻氨甲基苯酚;",
    "alternate_name": "Phenol, 2-(aminomethyl)-;<em>o</em>-Cresol, α-amino-;2-(Aminomethyl)phenol;Salicylamine;2-Hydroxybenzylamine;2-Hydroxybenzenemethanamine;<em>o</em>-Hydroxybenzylamine;NSC 127870",
    "duplicated_cas_no": "",
    "SMILES": "C(N)C1=C(O)C=CC=C1",
    "meta_data": {
        "InChI": "InChI=1S/C7H9NO/c8-5-6-3-1-2-4-7(6)9/h1-4,9H,5,8H2",
        "InChIKey": null,
        "Canonical SMILES": "OC=1C=CC=CC1CN",
        "Molecular Formula": "C<sub>7</sub>H<sub>9</sub>NO",
        "Molecular Mass": "123.15",
        "Melting Point": "129 °C"
    }
}