{
    "cas_no": "3424-93-9",
    "key_name": "4-Methoxybenzamide",
    "cn_name": "对甲氧基苯甲酰胺;4-甲氧基苯甲酰胺;",
    "alternate_name": "Benzamide, 4-methoxy-;<em>p</em>-Anisamide;4-Methoxybenzamide;<em>p</em>-Methoxybenzamide;Anisamide;NSC 11139",
    "duplicated_cas_no": "",
    "SMILES": "C(N)(=O)C1=CC=C(OC)C=C1",
    "meta_data": {
        "InChI": "InChI=1S/C8H9NO2/c1-11-7-4-2-6(3-5-7)8(9)10/h2-5H,1H3,(H2,9,10)",
        "InChIKey": null,
        "Canonical SMILES": "O=C(N)C1=CC=C(OC)C=C1",
        "Molecular Formula": "C<sub>8</sub>H<sub>9</sub>NO<sub>2</sub>",
        "Molecular Mass": "151.16",
        "Boiling Point": "295 °C",
        "Melting Point": "166.5 °C"
    }
}