{
    "cas_no": "4936-47-4",
    "key_name": "Nifuratel",
    "cn_name": "硝呋太尔;",
    "alternate_name": "2-Oxazolidinone, 5-[(methylthio)methyl]-3-[[(5-nitro-2-furanyl)methylene]amino]-;2-Oxazolidinone, 5-[(methylthio)methyl]-3-[(5-nitrofurfurylidene)amino]-;5-[(Methylthio)methyl]-3-[[(5-nitro-2-furanyl)methylene]amino]-2-oxazolidinone;Macmiror;Magmilor;Methylmercadone;5-[(Methylthio)methyl]-3-[(5-nitrofurfurylidene)amino]-2-oxazolidinone;Nifuratel;3-[(5-Nitro-2-furfurylidene)amino]-5-[(methylthio)methyl]-2-oxazolidinone;Polmiror;5-(Methylmercaptomethyl)-3-(5-nitro-2-furfurylidenamino)-2-oxazolidinone;Omnes;Tydantil;5-(Methylthiomethyl)-3-(5-nitro-2-furfurylidenamino)oxazolidin-2-one;NF 113;SAP 113;Inimur",
    "duplicated_cas_no": "",
    "SMILES": "N(=CC=1OC(N(=O)=O)=CC1)N2CC(CSC)OC2=O",
    "meta_data": {
        "InChI": "InChI=1S/C10H11N3O5S/c1-19-6-8-5-12(10(14)18-8)11-4-7-2-3-9(17-7)13(15)16/h2-4,8H,5-6H2,1H3",
        "InChIKey": null,
        "Canonical SMILES": "O=C1OC(CSC)CN1N=CC=2OC(=CC2)N(=O)=O",
        "Molecular Formula": "C<sub>10</sub>H<sub>11</sub>N<sub>3</sub>O<sub>5</sub>S",
        "Molecular Mass": "285.28",
        "Melting Point": "182 °C"
    }
}