{
    "cas_no": "603-84-9",
    "key_name": "2-Chloro-3-nitrophenol",
    "cn_name": null,
    "alternate_name": "Phenol, 2-chloro-3-nitro-;2-Chloro-3-nitrophenol",
    "duplicated_cas_no": "",
    "SMILES": "N(=O)(=O)C1=C(Cl)C(O)=CC=C1",
    "meta_data": {
        "InChI": "InChI=1S/C6H4ClNO3/c7-6-4(8(10)11)2-1-3-5(6)9/h1-3,9H",
        "InChIKey": null,
        "Canonical SMILES": "O=N(=O)C=1C=CC=C(O)C1Cl",
        "Molecular Formula": "C<sub>6</sub>H<sub>4</sub>ClNO<sub>3</sub>",
        "Molecular Mass": "173.55",
        "Melting Point": "120.5 °C"
    }
}