{
    "cas_no": "10557-71-8",
    "key_name": "1-Chloro-4-(trimethylsilyl)benzene",
    "cn_name": null,
    "alternate_name": "Benzene, 1-chloro-4-(trimethylsilyl)-;Silane, (<em>p</em>-chlorophenyl)trimethyl-;Silane, (4-chlorophenyl)trimethyl-;1-Chloro-4-(trimethylsilyl)benzene;(<em>p</em>-Chlorophenyl)trimethylsilane;<em>p</em>-(Trimethylsilyl)chlorobenzene;Trimethyl-<em>p</em>-chlorophenylsilane;(4-Chlorophenyl)trimethylsilane",
    "duplicated_cas_no": "",
    "SMILES": "[Si](C)(C)(C)C1=CC=C(Cl)C=C1",
    "meta_data": {
        "InChI": "InChI=1S/C9H13ClSi/c1-11(2,3)9-6-4-8(10)5-7-9/h4-7H,1-3H3",
        "InChIKey": null,
        "Canonical SMILES": "ClC1=CC=C(C=C1)[Si](C)(C)C",
        "Molecular Formula": "C<sub>9</sub>H<sub>13</sub>ClSi",
        "Molecular Mass": "184.74",
        "Boiling Point": "206-207 °C",
        "Density": "1 g/cm³"
    }
}