{
    "cas_no": "83480-29-9",
    "key_name": "Voglibose",
    "cn_name": "伏格列波糖;5-(1,3-二羟基丙烷-2-基氨基)-1-(羟甲基)-1,2,3,4-环己四醇;",
    "alternate_name": "<span class=\"text-smallcaps\">D</span>-<em>epi</em>-Inositol, 3,4-dideoxy-4-[[2-hydroxy-1-(hydroxymethyl)ethyl]amino]-2-<em>C</em>-(hydroxymethyl)-;3,4-Dideoxy-4-[[2-hydroxy-1-(hydroxymethyl)ethyl]amino]-2-<em>C</em>-(hydroxymethyl)-<span class=\"text-smallcaps\">D</span>-<em>epi</em>-inositol;<em>N</em>-(1,3-Dihydroxy-2-propyl)valiolamine;Voglibose;AO 128;Glustat;A 71100;Basen;Voglistat;(1<em>S</em>,2<em>S</em>,3<em>R</em>,4<em>S</em>,5<em>S</em>)-5-[(1,3-Dihydroxypropan-2-yl)amino]-1-(hydroxymethyl)cyclohexane-1,2,3,4-tetraol;(1S,2S,3R,4S,5S)-5-((1,3-Dihydroxypropan-2-yl)amino)-1-(hydroxymethyl)cyclohexane-1,2,3,4-tetraol",
    "duplicated_cas_no": "112653-29-9",
    "SMILES": "N(C(CO)CO)[C@H]1C[C@@](CO)(O)[C@@H](O)[C@H](O)[C@H]1O",
    "meta_data": {
        "InChI": "InChI=1S/C10H21NO7/c12-2-5(3-13)11-6-1-10(18,4-14)9(17)8(16)7(6)15/h5-9,11-18H,1-4H2/t6-,7-,8+,9-,10-/m0/s1",
        "InChIKey": null,
        "Canonical SMILES": "OCC(NC1CC(O)(CO)C(O)C(O)C1O)CO",
        "Molecular Formula": "C<sub>10</sub>H<sub>21</sub>NO<sub>7</sub>",
        "Molecular Mass": "267.28",
        "Melting Point": "161.5-162.1 °C"
    }
}