{
    "cas_no": "2213-81-2",
    "key_name": "2-Chloro-5-(1,1-dimethylethyl)-1,3-dinitrobenzene",
    "cn_name": "2-氯-5-叔丁基-1,3-二硝基苯；4-叔丁基-2,6-二硝基氯苯;",
    "alternate_name": "Benzene, 2-chloro-5-(1,1-dimethylethyl)-1,3-dinitro-;Benzene, 5-<em>tert</em>-butyl-2-chloro-1,3-dinitro-;2-Chloro-5-(1,1-dimethylethyl)-1,3-dinitrobenzene;2,6-Dinitro-4-<em>tert</em>-butylchlorobenzene;4-<em>tert</em>-Butyl-2,6-dinitrochlorobenzene;5-<em>tert</em>-Butyl-2-chloro-1,3-dinitrobenzene",
    "duplicated_cas_no": "",
    "SMILES": "N(=O)(=O)C1=C(Cl)C(N(=O)=O)=CC(C(C)(C)C)=C1",
    "meta_data": {
        "InChI": "InChI=1S/C10H11ClN2O4/c1-10(2,3)6-4-7(12(14)15)9(11)8(5-6)13(16)17/h4-5H,1-3H3",
        "InChIKey": null,
        "Canonical SMILES": "O=N(=O)C=1C=C(C=C(C1Cl)N(=O)=O)C(C)(C)C",
        "Molecular Formula": "C<sub>10</sub>H<sub>11</sub>ClN<sub>2</sub>O<sub>4</sub>",
        "Molecular Mass": "258.66",
        "Melting Point": "116-117 °C"
    }
}