{
    "cas_no": "622-85-5",
    "key_name": "Propoxybenzene",
    "cn_name": "丙氧基苯;苯丙醚;",
    "alternate_name": "Benzene, propoxy-;Ether, phenyl propyl;Propoxybenzene;Phenyl propyl ether;Propyl phenyl ether;Propyloxybenzene;1-Phenoxypropane;3-Phenoxy propane",
    "duplicated_cas_no": "",
    "SMILES": "O(CCC)C1=CC=CC=C1",
    "meta_data": {
        "InChI": "InChI=1S/C9H12O/c1-2-8-10-9-6-4-3-5-7-9/h3-7H,2,8H2,1H3",
        "InChIKey": null,
        "Canonical SMILES": "O(C=1C=CC=CC1)CCC",
        "Molecular Formula": "C<sub>9</sub>H<sub>12</sub>O",
        "Molecular Mass": "136.19",
        "Boiling Point": "189.9 °C",
        "Melting Point": "-27 °C",
        "Density": "0.955 g/cm³ @ Temp: 14 °C"
    }
}