{
    "cas_no": "623-56-3",
    "key_name": "5-Methyl-3-hexanone",
    "cn_name": "乙基异丁酮;5-甲基-3-己酮;乙基异丁基酮;",
    "alternate_name": "3-Hexanone, 5-methyl-;5-Methyl-3-hexanone;Ethyl isobutyl ketone;Isobutyl ethyl ketone;2-Methyl-4-hexanone",
    "duplicated_cas_no": "",
    "SMILES": "C(CC(C)C)(CC)=O",
    "meta_data": {
        "InChI": "InChI=1S/C7H14O/c1-4-7(8)5-6(2)3/h6H,4-5H2,1-3H3",
        "InChIKey": null,
        "Canonical SMILES": "O=C(CC)CC(C)C",
        "Molecular Formula": "C<sub>7</sub>H<sub>14</sub>O",
        "Molecular Mass": "114.19",
        "Boiling Point": "135 °C",
        "Density": "0.8090 g/cm³ @ Temp: 20 °C"
    }
}