{
    "cas_no": "69-78-3",
    "key_name": "5,5′-Dithiobis[2-nitrobenzoic acid]",
    "cn_name": "5,5\"-二硫双(2-硝基苯甲酸);",
    "alternate_name": "Benzoic acid, 3,3′-dithiobis[6-nitro-;3,3′-Dithiobis[6-nitrobenzoic acid];5,5′-Dithiobis[2-nitrobenzoic acid];DTNB;Ba 2767;Named reagents and solutions, Ellman's;2,2′-Dinitro-5,5′-dithiodibenzoic acid;Ellmans reagent;Reagents, Ellman's;3-Carboxy-4-nitrophenyl disulfide",
    "duplicated_cas_no": "",
    "SMILES": "C(O)(=O)C1=C(N(=O)=O)C=CC(SSC2=CC(C(O)=O)=C(N(=O)=O)C=C2)=C1",
    "meta_data": {
        "InChI": "InChI=1S/C14H8N2O8S2/c17-13(18)9-5-7(1-3-11(9)15(21)22)25-26-8-2-4-12(16(23)24)10(6-8)14(19)20/h1-6H,(H,17,18)(H,19,20)",
        "InChIKey": null,
        "Canonical SMILES": "O=C(O)C1=CC(SSC2=CC=C(C(=C2)C(=O)O)N(=O)=O)=CC=C1N(=O)=O",
        "Molecular Formula": "C<sub>14</sub>H<sub>8</sub>N<sub>2</sub>O<sub>8</sub>S<sub>2</sub>",
        "Molecular Mass": "396.35",
        "Melting Point": "237-238 °C (decomp)"
    }
}