{
    "cas_no": "1119-44-4",
    "key_name": "3-Hepten-2-one",
    "cn_name": "3-庚烯-2-酮;",
    "alternate_name": "3-Hepten-2-one",
    "duplicated_cas_no": "",
    "SMILES": "C(=CCCC)C(C)=O",
    "meta_data": {
        "InChI": "InChI=1S/C7H12O/c1-3-4-5-6-7(2)8/h5-6H,3-4H2,1-2H3",
        "InChIKey": null,
        "Canonical SMILES": "O=C(C=CCCC)C",
        "Molecular Formula": "C<sub>7</sub>H<sub>12</sub>O",
        "Molecular Mass": "112.17",
        "Boiling Point": "157 °C",
        "Density": "0.853 g/cm³ @ Temp: 25 °C"
    }
}