{
    "cas_no": "64051-79-2",
    "key_name": "3-Hydroxypiperidine hydrochloride",
    "cn_name": null,
    "alternate_name": "3-Piperidinol, hydrochloride (1:1);3-Piperidinol, hydrochloride;3-Hydroxypiperidine hydrochloride",
    "duplicated_cas_no": "121138-57-6",
    "SMILES": "OC1CCCNC1.Cl",
    "meta_data": {
        "InChI": "InChI=1S/C5H11NO.ClH/c7-5-2-1-3-6-4-5;/h5-7H,1-4H2;1H",
        "InChIKey": null,
        "Canonical SMILES": "Cl.OC1CNCCC1",
        "Molecular Formula": "C<sub>5</sub>H<sub>11</sub>NO.ClH",
        "Molecular Mass": "",
        "Melting Point": "249-250 °C"
    }
}