{
    "cas_no": "5360-82-7",
    "key_name": "1,2,3,5-Tetrafluoro-4-(trifluoromethyl)benzene",
    "cn_name": "2,3,4,6-四氟三氟甲苯;",
    "alternate_name": "Benzene, 1,2,3,5-tetrafluoro-4-(trifluoromethyl)-;Toluene, α,α,α,2,3,4,6-heptafluoro-;1,2,3,5-Tetrafluoro-4-(trifluoromethyl)benzene;1,2,3,5-Tetrafluoro-4-trifluoromethylbenzene;2,3,4,6-Tetrafluorobenzotrifluoride",
    "duplicated_cas_no": "",
    "SMILES": "C(F)(F)(F)C1=C(F)C(F)=C(F)C=C1F",
    "meta_data": {
        "InChI": "InChI=1S/C7HF7/c8-2-1-3(9)5(10)6(11)4(2)7(12,13)14/h1H",
        "InChIKey": null,
        "Canonical SMILES": "FC=1C=C(F)C(=C(F)C1F)C(F)(F)F",
        "Molecular Formula": "C<sub>7</sub>HF<sub>7</sub>",
        "Molecular Mass": "218.07",
        "Boiling Point": "109.5 °C"
    }
}