{
    "cas_no": "38183-03-8",
    "key_name": "7,8-Dihydroxyflavone",
    "cn_name": "7,8-二羟基黄酮水合物;",
    "alternate_name": "4<em>H</em>-1-Benzopyran-4-one, 7,8-dihydroxy-2-phenyl-;Flavone, 7,8-dihydroxy-;7,8-Dihydroxy-2-phenyl-4<em>H</em>-1-benzopyran-4-one;7,8-Dihydroxyflavone;7,8-Dihydroxy-2-phenyl-4<em>H</em>-chromen-4-one;Tropoflavin",
    "duplicated_cas_no": "",
    "SMILES": "OC1=C2C(C(=O)C=C(O2)C3=CC=CC=C3)=CC=C1O",
    "meta_data": {
        "InChI": "InChI=1S/C15H10O4/c16-11-7-6-10-12(17)8-13(19-15(10)14(11)18)9-4-2-1-3-5-9/h1-8,16,18H",
        "InChIKey": null,
        "Canonical SMILES": "O=C1C=C(OC2=C(O)C(O)=CC=C12)C=3C=CC=CC3",
        "Molecular Formula": "C<sub>15</sub>H<sub>10</sub>O<sub>4</sub>",
        "Molecular Mass": "254.24",
        "Melting Point": "240-242 °C"
    }
}