{
    "cas_no": "4199-88-6",
    "key_name": "5-Nitro-1,10-phenanthroline",
    "cn_name": "5-硝基-1,10-菲咯啉;5-硝基-1,10-菲罗啉;5-硝基-1,10-邻二氮杂菲;",
    "alternate_name": "1,10-Phenanthroline, 5-nitro-;5-Nitro-1,10-phenanthroline;5-Nitro-1,10-diazaphenanthrene;5-Nitro-<em>o</em>-phenanthroline;NSC 4263",
    "duplicated_cas_no": "71958-75-3",
    "SMILES": "N(=O)(=O)C1=C2C(=C3C(=C1)C=CC=N3)N=CC=C2",
    "meta_data": {
        "InChI": "InChI=1S/C12H7N3O2/c16-15(17)10-7-8-3-1-5-13-11(8)12-9(10)4-2-6-14-12/h1-7H",
        "InChIKey": null,
        "Canonical SMILES": "O=N(=O)C1=CC2=CC=CN=C2C=3N=CC=CC31",
        "Molecular Formula": "C<sub>12</sub>H<sub>7</sub>N<sub>3</sub>O<sub>2</sub>",
        "Molecular Mass": "225.20",
        "Melting Point": "202 °C"
    }
}