{
    "cas_no": "483-15-8",
    "key_name": "Dihydroberberine",
    "cn_name": null,
    "alternate_name": "6<em>H</em>-Benzo[<em>g</em>]-1,3-benzodioxolo[5,6-<em>a</em>]quinolizine, 5,8-dihydro-9,10-dimethoxy-;Berbine, 13,13a-didehydro-9,10-dimethoxy-2,3-(methylenedioxy)-;Berberine, dihydro-;5,8-Dihydro-9,10-dimethoxy-6<em>H</em>-benzo[<em>g</em>]-1,3-benzodioxolo[5,6-<em>a</em>]quinolizine;Dihydroberberine;7,8-Dihydroberberine;Dihydroumbellatine;NSC 331264;Iambertine",
    "duplicated_cas_no": "858716-33-3",
    "SMILES": "O(C)C1=C2CN3C(C=4C(=CC5=C(C4)OCO5)CC3)=CC2=CC=C1OC",
    "meta_data": {
        "InChI": "InChI=1S/C20H19NO4/c1-22-17-4-3-12-7-16-14-9-19-18(24-11-25-19)8-13(14)5-6-21(16)10-15(12)20(17)23-2/h3-4,7-9H,5-6,10-11H2,1-2H3",
        "InChIKey": null,
        "Canonical SMILES": "O(C=1C=CC=2C=C3C4=CC=5OCOC5C=C4CCN3CC2C1OC)C",
        "Molecular Formula": "C<sub>20</sub>H<sub>19</sub>NO<sub>4</sub>",
        "Molecular Mass": "337.37",
        "Melting Point": "223-224 °C (decomp)"
    }
}