{
    "cas_no": "62067-45-2",
    "key_name": "4-(1-Methylethyl)cyclohexanecarboxylic acid",
    "cn_name": null,
    "alternate_name": "Cyclohexanecarboxylic acid, 4-(1-methylethyl)-;Cyclohexanecarboxylic acid, 4-isopropyl-;4-(1-Methylethyl)cyclohexanecarboxylic acid;4-Isopropylcyclohexanecarboxylic acid;NSC 28951",
    "duplicated_cas_no": "",
    "SMILES": "C(C)(C)C1CCC(C(O)=O)CC1",
    "meta_data": {
        "InChI": "InChI=1S/C10H18O2/c1-7(2)8-3-5-9(6-4-8)10(11)12/h7-9H,3-6H2,1-2H3,(H,11,12)",
        "InChIKey": null,
        "Canonical SMILES": "O=C(O)C1CCC(CC1)C(C)C",
        "Molecular Formula": "C<sub>10</sub>H<sub>18</sub>O<sub>2</sub>",
        "Molecular Mass": "170.25",
        "Boiling Point": "133 °C @ Press: 2.5 Torr",
        "Melting Point": "94 °C"
    }
}