{
    "cas_no": "41464-39-5",
    "key_name": "2,2′,3,5′-Tetrachlorobiphenyl",
    "cn_name": "2,2′,3,5′-Tetrachlorobiphenyl;",
    "alternate_name": "1,1′-Biphenyl, 2,2′,3,5′-tetrachloro-;2,2′,3,5′-Tetrachloro-1,1′-biphenyl;2,2′,3,5′-Tetrachlorobiphenyl;2,3,2′,5′-Tetrachlorobiphenyl;2,5,2′,3′-Tetrachlorobiphenyl;PCB 44;CB 44",
    "duplicated_cas_no": "110866-19-8",
    "SMILES": "ClC1=C(C=CC=C1Cl)C2=C(Cl)C=CC(Cl)=C2",
    "meta_data": {
        "InChI": "InChI=1S/C12H6Cl4/c13-7-4-5-10(14)9(6-7)8-2-1-3-11(15)12(8)16/h1-6H",
        "InChIKey": null,
        "Canonical SMILES": "ClC=1C=CC(Cl)=C(C1)C2=CC=CC(Cl)=C2Cl",
        "Molecular Formula": "C<sub>12</sub>H<sub>6</sub>Cl<sub>4</sub>",
        "Molecular Mass": "291.99",
        "Melting Point": "45 °C"
    }
}