{
    "cas_no": "40015-15-4",
    "key_name": "1,1-Dimethoxy-2-(methylthio)ethane",
    "cn_name": "1,1-二甲氧基-2-(甲硫基)乙烷;二甲醇缩甲硫基乙醛;",
    "alternate_name": "Ethane, 1,1-dimethoxy-2-(methylthio)-;1,1-Dimethoxy-2-(methylthio)ethane;Methylthioacetaldehyde dimethyl acetal;2-(Methylthio)acetaldehyde dimethyl acetal;2,2-Dimethoxyethyl methyl sulfide;1,1-Dimethoxy-2-methylsulfanylethane",
    "duplicated_cas_no": "",
    "SMILES": "C(CSC)(OC)OC",
    "meta_data": {
        "InChI": "InChI=1S/C5H12O2S/c1-6-5(7-2)4-8-3/h5H,4H2,1-3H3",
        "InChIKey": null,
        "Canonical SMILES": "O(C)C(OC)CSC",
        "Molecular Formula": "C<sub>5</sub>H<sub>12</sub>O<sub>2</sub>S",
        "Molecular Mass": "136.21",
        "Boiling Point": "60 °C @ Press: 40 mbar"
    }
}