{
    "cas_no": "2343-89-7",
    "key_name": "Methyl 2-fluoro-2-propenoate",
    "cn_name": "2-氟丙烯酸甲酯;2-氟丙烯酸甲酯;",
    "alternate_name": "2-Propenoic acid, 2-fluoro-, methyl ester;Acrylic acid, 2-fluoro-, methyl ester;Methyl 2-fluoro-2-propenoate;α-Fluoroacrylic acid methyl ester;Methyl 2-fluoroacrylate;Methyl α-fluoroacrylate;2-Fluoroacrylic acid methyl ester;Methyl 2-fluoroprop-2-enoate;H 61343",
    "duplicated_cas_no": "",
    "SMILES": "C(C(=C)F)(OC)=O",
    "meta_data": {
        "InChI": "InChI=1S/C4H5FO2/c1-3(5)4(6)7-2/h1H2,2H3",
        "InChIKey": null,
        "Canonical SMILES": "O=C(OC)C(F)=C",
        "Molecular Formula": "C<sub>4</sub>H<sub>5</sub>FO<sub>2</sub>",
        "Molecular Mass": "104.08",
        "Boiling Point": "91 °C @ Press: 750 Torr",
        "Density": "1.1140 g/cm³ @ Temp: 20 °C"
    }
}