{
    "cas_no": "6297-22-9",
    "key_name": "Methyl 4-oxocyclohexanecarboxylate",
    "cn_name": "4-环己酮羧酸甲酯;",
    "alternate_name": "Cyclohexanecarboxylic acid, 4-oxo-, methyl ester;Methyl 4-oxocyclohexanecarboxylate;4-(Methoxycarbonyl)cyclohexanone;Methyl cyclohexanone-4-carboxylate;Methyl 4-ketocyclohexanecarboxylate;NSC 17321;Methyl 4-oxocyclohexane-1-carboxylate",
    "duplicated_cas_no": "2101561-37-7",
    "SMILES": "C(OC)(=O)C1CCC(=O)CC1",
    "meta_data": {
        "InChI": "InChI=1S/C8H12O3/c1-11-8(10)6-2-4-7(9)5-3-6/h6H,2-5H2,1H3",
        "InChIKey": null,
        "Canonical SMILES": "O=C(OC)C1CCC(=O)CC1",
        "Molecular Formula": "C<sub>8</sub>H<sub>12</sub>O<sub>3</sub>",
        "Molecular Mass": "156.18",
        "Boiling Point": "96-97 °C @ Press: 8.0 Torr"
    }
}