{
    "cas_no": "20120-21-2",
    "key_name": "β-Alanine, <em>N</em>,<em>N</em>-dimethyl-, ethyl ester",
    "cn_name": "3-二甲氨基丙酸乙酯;",
    "alternate_name": "β-Alanine, <em>N</em>,<em>N</em>-dimethyl-, ethyl ester;<em>N</em>,<em>N</em>-Dimethyl-β-alanine ethyl ester;Ethyl 3-(<em>N</em>,<em>N</em>-dimethylamino)propionate;Ethyl β-(dimethylamino)propionate;Ethyl 3-(dimethylamino)propionate;Ethyl 3-(dimethylamino)propanoate;NSC 73176;β-Dimethylaminopropionic acid ethyl ester",
    "duplicated_cas_no": "",
    "SMILES": "C(CCN(C)C)(OCC)=O",
    "meta_data": {
        "InChI": "InChI=1S/C7H15NO2/c1-4-10-7(9)5-6-8(2)3/h4-6H2,1-3H3",
        "InChIKey": null,
        "Canonical SMILES": "O=C(OCC)CCN(C)C",
        "Molecular Formula": "C<sub>7</sub>H<sub>15</sub>NO<sub>2</sub>",
        "Molecular Mass": "145.20",
        "Boiling Point": "256-257 °C @ Press: 1 Torr"
    }
}