{
    "cas_no": "5465-67-8",
    "key_name": "<em>N</em>-[(4-Methylphenyl)sulfonyl]glycine ethyl ester",
    "cn_name": null,
    "alternate_name": "Glycine, <em>N</em>-[(4-methylphenyl)sulfonyl]-, ethyl ester;Glycine, <em>N</em>-<em>p</em>-tolylsulfonyl-, ethyl ester;<em>N</em>-[(4-Methylphenyl)sulfonyl]glycine ethyl ester;Ethyl <em>N</em>-tosylglycinate;NSC 25824;Ethyl <em>N</em>-[(4-methylphenyl)sulfonyl]glycinate;Ts-Gly-OEt;(Toluene-4-sulfonylamino)-acetic acid ethyl ester;Ethyl 2-[(<em>p</em>-tolylsulfonyl)amino]acetate",
    "duplicated_cas_no": "",
    "SMILES": "S(NCC(OCC)=O)(=O)(=O)C1=CC=C(C)C=C1",
    "meta_data": {
        "InChI": "InChI=1S/C11H15NO4S/c1-3-16-11(13)8-12-17(14,15)10-6-4-9(2)5-7-10/h4-7,12H,3,8H2,1-2H3",
        "InChIKey": null,
        "Canonical SMILES": "O=C(OCC)CNS(=O)(=O)C1=CC=C(C=C1)C",
        "Molecular Formula": "C<sub>11</sub>H<sub>15</sub>NO<sub>4</sub>S",
        "Molecular Mass": "257.31",
        "Melting Point": "64-66 °C"
    }
}