{
    "cas_no": "605-62-9",
    "key_name": "4-Nitro-1-naphthol",
    "cn_name": "4-硝基-1-萘酚;",
    "alternate_name": "1-Naphthalenol, 4-nitro-;1-Naphthol, 4-nitro-;4-Nitro-1-naphthalenol;1-Hydroxy-4-nitronaphthalene;4-Nitro-α-naphthol;4-Nitro-1-naphthol;4-Nitro-1-hydroxynaphthalene;NSC 400336",
    "duplicated_cas_no": "",
    "SMILES": "N(=O)(=O)C=1C2=C(C(O)=CC1)C=CC=C2",
    "meta_data": {
        "InChI": "InChI=1S/C10H7NO3/c12-10-6-5-9(11(13)14)7-3-1-2-4-8(7)10/h1-6,12H",
        "InChIKey": null,
        "Canonical SMILES": "O=N(=O)C1=CC=C(O)C=2C=CC=CC21",
        "Molecular Formula": "C<sub>10</sub>H<sub>7</sub>NO<sub>3</sub>",
        "Molecular Mass": "189.17",
        "Melting Point": "150-151 °C"
    }
}