{
    "cas_no": "585-86-4",
    "key_name": "Lactitol",
    "cn_name": "乳糖醇;拉克替醇；乳梨醇;",
    "alternate_name": "<span class=\"text-smallcaps\">D</smallcap>-Glucitol, 4-<em>O</em>-β-<smallcap>D</span>-galactopyranosyl-;Lactitol;Glucitol, 4-<em>O</em>-β-<span class=\"text-smallcaps\">D</smallcap>-galactopyranosyl-, <smallcap>D</span>-;4-<em>O</em>-β-<span class=\"text-smallcaps\">D</smallcap>-Galactopyranosyl-<smallcap>D</span>-glucitol;Lactositol;Lactite;Lactit;Lactit M;Miruhen;Finlac DC;Lacty;Lacty (saccharide);Lacty M;Lactitol LC 0;Lactiobiosit;Lactosit;NSC 231323;Importal;Lactitol ACM 50;Milchen;Lacty-Tab;<span class=\"text-smallcaps\">D</span>-Lactitol;Lactitol MC;LC 1;Pizensy",
    "duplicated_cas_no": "",
    "SMILES": "O([C@@H]([C@@H]([C@H](CO)O)O)[C@@H](CO)O)[C@@H]1O[C@H](CO)[C@H](O)[C@H](O)[C@H]1O",
    "meta_data": {
        "InChI": "InChI=1S/C12H24O11/c13-1-4(16)7(18)11(5(17)2-14)23-12-10(21)9(20)8(19)6(3-15)22-12/h4-21H,1-3H2/t4-,5+,6+,7+,8-,9-,10+,11+,12-/m0/s1",
        "InChIKey": null,
        "Canonical SMILES": "OCC(O)C(O)C(OC1OC(CO)C(O)C(O)C1O)C(O)CO",
        "Molecular Formula": "C<sub>12</sub>H<sub>24</sub>O<sub>11</sub>",
        "Molecular Mass": "344.31",
        "Melting Point": "146 °C"
    }
}