{
    "cas_no": "6949-23-1",
    "key_name": "4-Methyl-3-nitrobenzenesulfonamide",
    "cn_name": "4-甲基-3-硝基苯磺酰氨;",
    "alternate_name": "Benzenesulfonamide, 4-methyl-3-nitro-;<em>p</em>-Toluenesulfonamide, 3-nitro-;4-Methyl-3-nitrobenzenesulfonamide;<em>m</em>-Nitro-<em>p</em>-toluenesulfonamide;NSC 25155;NSC 64475",
    "duplicated_cas_no": "",
    "SMILES": "N(=O)(=O)C1=CC(S(N)(=O)=O)=CC=C1C",
    "meta_data": {
        "InChI": "InChI=1S/C7H8N2O4S/c1-5-2-3-6(14(8,12)13)4-7(5)9(10)11/h2-4H,1H3,(H2,8,12,13)",
        "InChIKey": null,
        "Canonical SMILES": "O=N(=O)C1=CC(=CC=C1C)S(=O)(=O)N",
        "Molecular Formula": "C<sub>7</sub>H<sub>8</sub>N<sub>2</sub>O<sub>4</sub>S",
        "Molecular Mass": "216.21",
        "Melting Point": "142 °C"
    }
}