{
    "cas_no": "1191-15-7",
    "key_name": "Diisobutylaluminum hydride",
    "cn_name": "二异丁基氢化铝;",
    "alternate_name": "Aluminum, hydrobis(2-methylpropyl)-;Aluminum, hydrodiisobutyl-;Diisobutylaluminum hydride;Hydrobis(2-methylpropyl)aluminum;Diisobutylhydroaluminum;Hydrodiisobutylaluminum;Diisobutylaluminium hydride;Bis(isobutyl)hydroaluminum;Dibal;Bis(<em>iso</em>-butyl)aluminum hydride;DIBAH;DIBAL-H;Di-<em>iso</em>-butylaluminum hydride;Diisobutylalane;Bis(isobutyl)aluminum hydride;Diisobutylhydrogenaluminum",
    "duplicated_cas_no": "",
    "SMILES": "[AlH](CC(C)C)CC(C)C",
    "meta_data": {
        "InChI": "InChI=1S/2C4H9.Al.H/c2*1-4(2)3;;/h2*4H,1H2,2-3H3;;",
        "InChIKey": null,
        "Canonical SMILES": "[AlH](CC(C)C)CC(C)C",
        "Molecular Formula": "C<sub>8</sub>H<sub>19</sub>Al",
        "Molecular Mass": "",
        "Boiling Point": "105 °C @ Press: 0.2 Torr",
        "Melting Point": "-80 °C",
        "Density": "0.798 g/cm³"
    }
}