{
    "cas_no": "13214-70-5",
    "key_name": "2,3-Dibromonaphthalene",
    "cn_name": null,
    "alternate_name": "Naphthalene, 2,3-dibromo-;2,3-Dibromonaphthalene",
    "duplicated_cas_no": "",
    "SMILES": "BrC1=CC2=C(C=C1Br)C=CC=C2",
    "meta_data": {
        "InChI": "InChI=1S/C10H6Br2/c11-9-5-7-3-1-2-4-8(7)6-10(9)12/h1-6H",
        "InChIKey": null,
        "Canonical SMILES": "BrC1=CC=2C=CC=CC2C=C1Br",
        "Molecular Formula": "C<sub>10</sub>H<sub>6</sub>Br<sub>2</sub>",
        "Molecular Mass": "285.96",
        "Melting Point": "140 °C"
    }
}