{
    "cas_no": "103-70-8",
    "key_name": "Formanilide",
    "cn_name": "N-甲酰苯胺;N-苯基甲酰胺;甲酰苯胺;",
    "alternate_name": "Formamide, <em>N</em>-phenyl-;Formanilide;<em>N</em>-Phenylformamide;Carbanilaldehyde;Formamidobenzene;Formylaniline;<em>N</em>-Formylaniline;NSC 203239;NSC 8862",
    "duplicated_cas_no": "",
    "SMILES": "N(C=O)C1=CC=CC=C1",
    "meta_data": {
        "InChI": "InChI=1S/C7H7NO/c9-6-8-7-4-2-1-3-5-7/h1-6H,(H,8,9)",
        "InChIKey": null,
        "Canonical SMILES": "O=CNC=1C=CC=CC1",
        "Molecular Formula": "C<sub>7</sub>H<sub>7</sub>NO",
        "Molecular Mass": "121.14",
        "Boiling Point": "271 °C",
        "Melting Point": "46.6-47.5 °C",
        "Density": "1.186 g/cm³ @ Temp: 50 °C"
    }
}