{
    "cas_no": "407-24-9",
    "key_name": "Bis(trifluoroacetyl)imide",
    "cn_name": "双三氟乙酰胺;",
    "alternate_name": "Acetamide, 2,2,2-trifluoro-<em>N</em>-(2,2,2-trifluoroacetyl)-;Diacetamide, 2,2,2,2′,2′,2′-hexafluoro-;Acetamide, 2,2,2-trifluoro-<em>N</em>-(trifluoroacetyl)-;2,2,2-Trifluoro-<em>N</em>-(2,2,2-trifluoroacetyl)acetamide;2,2,2,2′,2′,2′-Hexafluorodiacetamide;Bis(trifluoroacetyl)imide;<em>N</em>-(Trifluoroacetyl)trifluoroacetamide",
    "duplicated_cas_no": "",
    "SMILES": "N(C(C(F)(F)F)=O)C(C(F)(F)F)=O",
    "meta_data": {
        "InChI": "InChI=1S/C4HF6NO2/c5-3(6,7)1(12)11-2(13)4(8,9)10/h(H,11,12,13)",
        "InChIKey": null,
        "Canonical SMILES": "O=C(NC(=O)C(F)(F)F)C(F)(F)F",
        "Molecular Formula": "C<sub>4</sub>HF<sub>6</sub>NO<sub>2</sub>",
        "Molecular Mass": "209.05",
        "Boiling Point": "135-136 °C @ Press: 744 Torr",
        "Melting Point": "85 °C"
    }
}