{
    "cas_no": "18450-26-5",
    "key_name": "Methyl 3-formyl-1<em>H</em>-indole-2-carboxylate",
    "cn_name": null,
    "alternate_name": "1<em>H</em>-Indole-2-carboxylic acid, 3-formyl-, methyl ester;Indole-2-carboxylic acid, 3-formyl-, methyl ester;Methyl 3-formyl-1<em>H</em>-indole-2-carboxylate;3-Formyl-2-(methoxycarbonyl)indole",
    "duplicated_cas_no": "",
    "SMILES": "C(=O)C=1C=2C(NC1C(OC)=O)=CC=CC2",
    "meta_data": {
        "InChI": "InChI=1S/C11H9NO3/c1-15-11(14)10-8(6-13)7-4-2-3-5-9(7)12-10/h2-6,12H,1H3",
        "InChIKey": null,
        "Canonical SMILES": "O=CC=1C=2C=CC=CC2NC1C(=O)OC",
        "Molecular Formula": "C<sub>11</sub>H<sub>9</sub>NO<sub>3</sub>",
        "Molecular Mass": "203.19",
        "Melting Point": "209-210 °C"
    }
}