{
    "cas_no": "88-14-2",
    "key_name": "2-Furancarboxylic acid",
    "cn_name": "糠酸;2-糠酸;2-呋喃甲酸;",
    "alternate_name": "2-Furancarboxylic acid;2-Furoic acid;α-Furancarboxylic acid;α-Furoic acid;Pyromucic acid;2-Carboxyfuran;2-Furanoic acid;NSC 58965;NSC 8842;Furan-2-carboxylic acid",
    "duplicated_cas_no": "",
    "SMILES": "C(O)(=O)C1=CC=CO1",
    "meta_data": {
        "InChI": "InChI=1S/C5H4O3/c6-5(7)4-2-1-3-8-4/h1-3H,(H,6,7)",
        "InChIKey": null,
        "Canonical SMILES": "O=C(O)C=1OC=CC1",
        "Molecular Formula": "C<sub>5</sub>H<sub>4</sub>O<sub>3</sub>",
        "Molecular Mass": "112.08",
        "Boiling Point": "231 °C",
        "Melting Point": "133.5 °C",
        "Density": "1.483 g/cm³"
    }
}