{
    "cas_no": "32768-54-0",
    "key_name": "2,3-Dichlorotoluene",
    "cn_name": "2,3-二氯甲苯;",
    "alternate_name": "Benzene, 1,2-dichloro-3-methyl-;Toluene, 2,3-dichloro-;1,2-Dichloro-3-methylbenzene;2,3-Dichlorotoluene",
    "duplicated_cas_no": "",
    "SMILES": "ClC1=C(C)C=CC=C1Cl",
    "meta_data": {
        "InChI": "InChI=1S/C7H6Cl2/c1-5-3-2-4-6(8)7(5)9/h2-4H,1H3",
        "InChIKey": null,
        "Canonical SMILES": "ClC1=CC=CC(=C1Cl)C",
        "Molecular Formula": "C<sub>7</sub>H<sub>6</sub>Cl<sub>2</sub>",
        "Molecular Mass": "161.03",
        "Boiling Point": "207.5 °C",
        "Melting Point": "6 °C"
    }
}