{
    "cas_no": "85-56-3",
    "key_name": "2-(4-Chlorobenzoyl)benzoic acid",
    "cn_name": "2-(4-氯苯甲酰)苯甲酸;",
    "alternate_name": "Benzoic acid, 2-(4-chlorobenzoyl)-;Benzoic acid, <em>o</em>-(<em>p</em>-chlorobenzoyl)-;2-(4-Chlorobenzoyl)benzoic acid;<em>o</em>-(<em>p</em>-Chlorobenzoyl)benzoic acid;2-(<em>p</em>-Chlorobenzoyl)benzoic acid;<em>o</em>-(4-Chlorobenzoyl)benzoic acid;4-Chlorobenzophenone-2′-carboxylic acid;NSC 7825;2-(4′-Chlorobenzoyl)benzoic acid",
    "duplicated_cas_no": "",
    "SMILES": "C(=O)(C1=C(C(O)=O)C=CC=C1)C2=CC=C(Cl)C=C2",
    "meta_data": {
        "InChI": "InChI=1S/C14H9ClO3/c15-10-7-5-9(6-8-10)13(16)11-3-1-2-4-12(11)14(17)18/h1-8H,(H,17,18)",
        "InChIKey": null,
        "Canonical SMILES": "O=C(O)C=1C=CC=CC1C(=O)C2=CC=C(Cl)C=C2",
        "Molecular Formula": "C<sub>14</sub>H<sub>9</sub>ClO<sub>3</sub>",
        "Molecular Mass": "260.67",
        "Melting Point": "164-165 °C"
    }
}