{
    "cas_no": "18066-68-7",
    "key_name": "Ethyl 3,4-dimethoxybenzeneacetate",
    "cn_name": "3,4-二甲氧基苯基乙酸乙酯;",
    "alternate_name": "Benzeneacetic acid, 3,4-dimethoxy-, ethyl ester;Acetic acid, (3,4-dimethoxyphenyl)-, ethyl ester;Ethyl 3,4-dimethoxybenzeneacetate;Ethyl 3,4-dimethoxyphenylacetate;3,4-Dimethoxyphenylacetic acid ethyl ester;NSC 10152",
    "duplicated_cas_no": "",
    "SMILES": "O(C)C1=C(OC)C=C(CC(OCC)=O)C=C1",
    "meta_data": {
        "InChI": "InChI=1S/C12H16O4/c1-4-16-12(13)8-9-5-6-10(14-2)11(7-9)15-3/h5-7H,4,8H2,1-3H3",
        "InChIKey": null,
        "Canonical SMILES": "O=C(OCC)CC1=CC=C(OC)C(OC)=C1",
        "Molecular Formula": "C<sub>12</sub>H<sub>16</sub>O<sub>4</sub>",
        "Molecular Mass": "224.25",
        "Boiling Point": "191 °C @ Press: 25 Torr"
    }
}