{
    "cas_no": "488-73-3",
    "key_name": "(+)-Quercitol",
    "cn_name": null,
    "alternate_name": "<span class=\"text-smallcaps\">D</span>-<em>chiro</em>-Inositol, 2-deoxy-;Inositol, 2-deoxy-, <span class=\"text-smallcaps\">D</span>-<em>chiro</em>-;2-Deoxy-<span class=\"text-smallcaps\">D</span>-<em>chiro</em>-inositol;(+)-Quercitol;Acorn Sugar;Quercitol, (+)-<em>proto</em>-;(+)-<em>proto</em>-Quercitol;<span class=\"text-smallcaps\">D</span>-Quercitol;1<span class=\"text-smallcaps\">L</span>-1,3,4/2,5-Cyclohexanepentol;(+)-Protoquercitol;<em>d</em>-Quercitol;Quercitol;Proto-quercitol",
    "duplicated_cas_no": "50866-81-4;81369-60-0",
    "SMILES": "O[C@@H]1[C@H](O)[C@@H](O)[C@H](O)C[C@H]1O",
    "meta_data": {
        "InChI": "InChI=1S/C6H12O5/c7-2-1-3(8)5(10)6(11)4(2)9/h2-11H,1H2/t2-,3-,4+,5+/m1/s1",
        "InChIKey": null,
        "Canonical SMILES": "OC1CC(O)C(O)C(O)C1O",
        "Molecular Formula": "C<sub>6</sub>H<sub>12</sub>O<sub>5</sub>",
        "Molecular Mass": "164.16",
        "Melting Point": "236 °C"
    }
}