{
    "cas_no": "945-51-7",
    "key_name": "Diphenyl sulfoxide",
    "cn_name": "二苯基亚砜;",
    "alternate_name": "Benzene, 1,1′-sulfinylbis-;Phenyl sulfoxide;1,1′-Sulfinylbis[benzene];Diphenyl sulfoxide;NSC 630195;NSC 6779;Sulfinyldibenzene;(Benzenesulfinyl)benzene",
    "duplicated_cas_no": "",
    "SMILES": "S(=O)(C1=CC=CC=C1)C2=CC=CC=C2",
    "meta_data": {
        "InChI": "InChI=1S/C12H10OS/c13-14(11-7-3-1-4-8-11)12-9-5-2-6-10-12/h1-10H",
        "InChIKey": null,
        "Canonical SMILES": "O=S(C=1C=CC=CC1)C=2C=CC=CC2",
        "Molecular Formula": "C<sub>12</sub>H<sub>10</sub>OS",
        "Molecular Mass": "202.27",
        "Boiling Point": "340 °C",
        "Melting Point": "71.2 °C"
    }
}