{
    "cas_no": "112006-75-4",
    "key_name": "2-Aminosulfonyl-<em>N</em>,<em>N</em>-dimethylnicotinamide",
    "cn_name": "2-氨基磺酰基-N,N-二甲基烟酰胺;N,N-二甲基-2-氨基磺酰基-3-吡啶甲酰胺;",
    "alternate_name": "3-Pyridinecarboxamide, 2-(aminosulfonyl)-<em>N</em>,<em>N</em>-dimethyl-;2-(Aminosulfonyl)-<em>N</em>,<em>N</em>-dimethyl-3-pyridinecarboxamide;2-Aminosulfonyl-<em>N</em>,<em>N</em>-dimethylnicotinamide;2-Aminosulfonyl-<em>N</em>,<em>N</em>-dimethylnicotamide;<em>N</em>,<em>N</em>-Dimethyl-2-sulfamoylnicotinamide",
    "duplicated_cas_no": "",
    "SMILES": "S(N)(=O)(=O)C1=C(C(N(C)C)=O)C=CC=N1",
    "meta_data": {
        "InChI": "InChI=1S/C8H11N3O3S/c1-11(2)8(12)6-4-3-5-10-7(6)15(9,13)14/h3-5H,1-2H3,(H2,9,13,14)",
        "InChIKey": null,
        "Canonical SMILES": "O=C(C1=CC=CN=C1S(=O)(=O)N)N(C)C",
        "Molecular Formula": "C<sub>8</sub>H<sub>11</sub>N<sub>3</sub>O<sub>3</sub>S",
        "Molecular Mass": "229.26",
        "Melting Point": "198-209 °C (decomp)"
    }
}