{
    "cas_no": "539-82-2",
    "key_name": "Ethyl valerate",
    "cn_name": "戊酸乙酯;",
    "alternate_name": "Pentanoic acid, ethyl ester;Valeric acid, ethyl ester;Ethyl valerate;Ethyl <em>n</em>-valerate;Ethyl pentanoate;Ethyl <em>n</em>-pentanoate;NSC 8868",
    "duplicated_cas_no": "",
    "SMILES": "C(CCCC)(OCC)=O",
    "meta_data": {
        "InChI": "InChI=1S/C7H14O2/c1-3-5-6-7(8)9-4-2/h3-6H2,1-2H3",
        "InChIKey": null,
        "Canonical SMILES": "O=C(OCC)CCCC",
        "Molecular Formula": "C<sub>7</sub>H<sub>14</sub>O<sub>2</sub>",
        "Molecular Mass": "130.18",
        "Boiling Point": "146.1 °C",
        "Melting Point": "-91.2 °C",
        "Density": "0.87433 g/cm³ @ Temp: 20 °C"
    }
}