{
    "cas_no": "26171-23-3",
    "key_name": "Tolmetin",
    "cn_name": "托麦汀;2-[1-甲基-5-(4-甲基苯甲酰)吡咯-2-基]乙酸;",
    "alternate_name": "1<em>H</em>-Pyrrole-2-acetic acid, 1-methyl-5-(4-methylbenzoyl)-;Pyrrole-2-acetic acid, 1-methyl-5-<em>p</em>-toluoyl-;1-Methyl-5-(4-methylbenzoyl)-1<em>H</em>-pyrrole-2-acetic acid;Tolmetin;1-Methyl-5-<em>p</em>-toluoylpyrrole-2-acetic acid;McN 2559;5-[(<em>p</em>-Tolyl)carbonyl]-1-methylpyrrole-2-acetic acid;Tolmetine;2-[1-Methyl-5-(4-methylbenzoyl)-1<em>H</em>-pyrrol-2-yl]acetic acid;MeSH ID: D014046",
    "duplicated_cas_no": "87344-04-5",
    "SMILES": "C(=O)(C=1N(C)C(CC(O)=O)=CC1)C2=CC=C(C)C=C2",
    "meta_data": {
        "InChI": "InChI=1S/C15H15NO3/c1-10-3-5-11(6-4-10)15(19)13-8-7-12(16(13)2)9-14(17)18/h3-8H,9H2,1-2H3,(H,17,18)",
        "InChIKey": null,
        "Canonical SMILES": "O=C(O)CC1=CC=C(C(=O)C2=CC=C(C=C2)C)N1C",
        "Molecular Formula": "C<sub>15</sub>H<sub>15</sub>NO<sub>3</sub>",
        "Molecular Mass": "257.28",
        "Melting Point": "155-157 °C (decomp)"
    }
}