{
    "cas_no": "112-67-4",
    "key_name": "Palmitoyl chloride",
    "cn_name": "棕榈酰氯;十六酰氯;",
    "alternate_name": "Hexadecanoyl chloride;Palmitoyl chloride;Palmitic acid chloride;Hexadecanoic acid chloride;Palmitic chloride;Palmityl acid chloride;NSC 9854",
    "duplicated_cas_no": "902459-02-3",
    "SMILES": "C(CCCCCCCCCC)CCCCC(Cl)=O",
    "meta_data": {
        "InChI": "InChI=1S/C16H31ClO/c1-2-3-4-5-6-7-8-9-10-11-12-13-14-15-16(17)18/h2-15H2,1H3",
        "InChIKey": null,
        "Canonical SMILES": "O=C(Cl)CCCCCCCCCCCCCCC",
        "Molecular Formula": "C<sub>16</sub>H<sub>31</sub>ClO",
        "Molecular Mass": "274.87",
        "Boiling Point": "199 °C @ Press: 20 Torr",
        "Melting Point": "11-12 °C"
    }
}