{
    "cas_no": "91-08-7",
    "key_name": "Toluene 2,6-diisocyanate",
    "cn_name": "2,6-二异氰酸根合甲苯;1,3-二异氰酸根合-2-甲基苯;甲苯-2,6-二异氰酸酯;",
    "alternate_name": "Benzene, 1,3-diisocyanato-2-methyl-;Isocyanic acid, 2-methyl-<em>m</em>-phenylene ester;1,3-Diisocyanato-2-methylbenzene;2,6-Diisocyanatotoluene;<em>m</em>-Tolylene diisocyanate;Toluene 2,6-diisocyanate;Tolylene 2,6-diisocyanate;2-Methyl-<em>m</em>-phenylene isocyanate;2,6-Toluylene diisocyanate;2,6-TDI;2-Methyl-1,3-phenylene diisocyanate",
    "duplicated_cas_no": "137091-34-0",
    "SMILES": "N(=C=O)C1=C(C)C(N=C=O)=CC=C1",
    "meta_data": {
        "InChI": "InChI=1S/C9H6N2O2/c1-7-8(10-5-12)3-2-4-9(7)11-6-13/h2-4H,1H3",
        "InChIKey": null,
        "Canonical SMILES": "O=C=NC1=CC=CC(N=C=O)=C1C",
        "Molecular Formula": "C<sub>9</sub>H<sub>6</sub>N<sub>2</sub>O<sub>2</sub>",
        "Molecular Mass": "174.16",
        "Boiling Point": "129-133 °C @ Press: 18 Torr",
        "Melting Point": "18.3 °C",
        "Density": "1.22 g/cm³"
    }
}