{
    "cas_no": "1450-93-7",
    "key_name": "1<em>H</em>-Imidazol-2-amine, sulfate (2:1)",
    "cn_name": "2-氨基咪唑硫酸盐;",
    "alternate_name": "1<em>H</em>-Imidazol-2-amine, sulfate (2:1);Imidazole, 2-amino-, sulfate (2:1);2-Aminoimidazolium sulfate;2-Aminoimidazole hemisulfate;2-Aminoimidazole sulfate (2:1);1<em>H</em>-Imidazol-2-amine hemisulfate",
    "duplicated_cas_no": "",
    "SMILES": "NC=1NC=CN1.S(=O)(=O)(O)O",
    "meta_data": {
        "InChI": "InChI=1S/C3H5N3.H2O4S/c4-3-5-1-2-6-3;1-5(2,3)4/h1-2H,(H3,4,5,6);(H2,1,2,3,4)",
        "InChIKey": null,
        "Canonical SMILES": "O=S(=O)(O)O.N=1C=CNC1N",
        "Molecular Formula": "C<sub>3</sub>H<sub>5</sub>N<sub>3</sub>.<sup>1</sup>/<sub>2</sub>H<sub>2</sub>O<sub>4</sub>S",
        "Molecular Mass": "",
        "Melting Point": "275-278 °C"
    }
}