{
    "cas_no": "122-73-6",
    "key_name": "Benzyl isopentyl ether",
    "cn_name": "苄基异戊基醚;",
    "alternate_name": "Benzene, [(3-methylbutoxy)methyl]-;Ether, benzyl isopentyl;[(3-Methylbutoxy)methyl]benzene;Benzyl isopentyl ether;Benzyl isoamyl ether;Isoamyl benzyl ether;NSC 9294",
    "duplicated_cas_no": "",
    "SMILES": "C(OCCC(C)C)C1=CC=CC=C1",
    "meta_data": {
        "InChI": "InChI=1S/C12H18O/c1-11(2)8-9-13-10-12-6-4-3-5-7-12/h3-7,11H,8-10H2,1-2H3",
        "InChIKey": null,
        "Canonical SMILES": "O(CC=1C=CC=CC1)CCC(C)C",
        "Molecular Formula": "C<sub>12</sub>H<sub>18</sub>O",
        "Molecular Mass": "178.27",
        "Boiling Point": "237 °C",
        "Density": "0.9082 g/cm³ @ Temp: 20 °C"
    }
}