{
    "cas_no": "4873-09-0",
    "key_name": "2-Propen-1-yl 4-methylbenzenesulfonate",
    "cn_name": null,
    "alternate_name": "Benzenesulfonic acid, 4-methyl-, 2-propen-1-yl ester;<em>p</em>-Toluenesulfonic acid, allyl ester;Benzenesulfonic acid, 4-methyl-, 2-propenyl ester;Allyl alcohol, <em>p</em>-toluenesulfonate;2-Propen-1-yl 4-methylbenzenesulfonate;Allyl <em>p</em>-toluenesulfonate;Allyl tosylate;Allyl 4-methylbenzenesulfonate;4-Methylbenzenesulfonic acid 2-propenyl ester",
    "duplicated_cas_no": "",
    "SMILES": "S(OCC=C)(=O)(=O)C1=CC=C(C)C=C1",
    "meta_data": {
        "InChI": "InChI=1S/C10H12O3S/c1-3-8-13-14(11,12)10-6-4-9(2)5-7-10/h3-7H,1,8H2,2H3",
        "InChIKey": null,
        "Canonical SMILES": "O=S(=O)(OCC=C)C1=CC=C(C=C1)C",
        "Molecular Formula": "C<sub>10</sub>H<sub>12</sub>O<sub>3</sub>S",
        "Molecular Mass": "212.27",
        "Boiling Point": "135-140 °C @ Press: 0.5-1.0 Torr",
        "Density": "1.1788 g/cm³ @ Temp: 20 °C"
    }
}