{
    "cas_no": "81335-37-7",
    "key_name": "Imazaquin",
    "cn_name": "灭草喹;(RS)-2-(4-异丙基-4-甲基-5-氧代-2-咪唑啉-2-基)喹啉-3-羧酸;",
    "alternate_name": "3-Quinolinecarboxylic acid, 2-[4,5-dihydro-4-methyl-4-(1-methylethyl)-5-oxo-1<em>H</em>-imidazol-2-yl]-;2-[4,5-Dihydro-4-methyl-4-(1-methylethyl)-5-oxo-1<em>H</em>-imidazol-2-yl]-3-quinolinecarboxylic acid;AC 252214;Imazaquin;Scepter;Image;Image (pesticide);(±)-Imazaquin;2-(4-Isopropyl-4-methyl-5-oxo-2-imidazolin-2-yl)-3-quinolinecarboxylic acid;Toneup;2-(4-Isopropyl-4-methyl-5-oxo-4,5-dihydro-1<em>H</em>-imidazol-2-yl)-quinoline-3-carboxylic acid",
    "duplicated_cas_no": "94795-75-2",
    "SMILES": "C(O)(=O)C=1C(=NC2=C(C1)C=CC=C2)C=3NC(C(C)C)(C)C(=O)N3",
    "meta_data": {
        "InChI": "InChI=1S/C17H17N3O3/c1-9(2)17(3)16(23)19-14(20-17)13-11(15(21)22)8-10-6-4-5-7-12(10)18-13/h4-9H,1-3H3,(H,21,22)(H,19,20,23)",
        "InChIKey": null,
        "Canonical SMILES": "O=C(O)C=1C=C2C=CC=CC2=NC1C3=NC(=O)C(N3)(C)C(C)C",
        "Molecular Formula": "C<sub>17</sub>H<sub>17</sub>N<sub>3</sub>O<sub>3</sub>",
        "Molecular Mass": "311.34",
        "Melting Point": "219-222 °C (decomp)"
    }
}