{
    "cas_no": "104-71-2",
    "key_name": "<em>N</em><sup>1</sup>,<em>N</em><sup>2</sup>-Bis(phenylmethylene)-1,2-ethanediamine",
    "cn_name": "N,N-双(苯基亚甲基)-1,2-乙二胺;",
    "alternate_name": "1,2-Ethanediamine, <em>N</em><sup>1</sup>,<em>N</em><sup>2</sup>-bis(phenylmethylene)-;Ethylenediamine, <em>N</em>,<em>N</em>′-dibenzylidene-;1,2-Ethanediamine, <em>N</em>,<em>N</em>′-bis(phenylmethylene)-;<em>N</em><sup>1</sup>,<em>N</em><sup>2</sup>-Bis(phenylmethylene)-1,2-ethanediamine;<em>N</em>,<em>N</em>′-Bis(benzylidene)ethylenediamine;<em>N</em>,<em>N</em>′-Dibenzylideneethylenediamine;<em>N</em>,<em>N</em>′-Dibenzylidene-1,2-ethanediamine;BBEDA;1,2-Bis((benzylideneamino)ethane;NSC 519420;<em>N</em>,<em>N</em>′-Bis(benzylidene)-1,2-ethylenediamine;<em>N</em>,<em>N</em>′-Bis(phenylmethylidene)-1,2-ethanediamine;Bis(benzylidene)ethylenediamine;Ethanamine, 2-[bis(phenylmethylene)amino]-;<em>N</em>,<em>N</em>-Dibenzylidene ethylenediamine;2-[Bis(phenylmethylene)amino]ethanamine",
    "duplicated_cas_no": "2102117-14-4",
    "SMILES": "C(=NCCN=CC1=CC=CC=C1)C2=CC=CC=C2",
    "meta_data": {
        "InChI": "InChI=1S/C16H16N2/c1-3-7-15(8-4-1)13-17-11-12-18-14-16-9-5-2-6-10-16/h1-10,13-14H,11-12H2",
        "InChIKey": null,
        "Canonical SMILES": "N(=CC=1C=CC=CC1)CCN=CC=2C=CC=CC2",
        "Molecular Formula": "C<sub>16</sub>H<sub>16</sub>N<sub>2</sub>",
        "Molecular Mass": "236.31",
        "Boiling Point": "175-177 °C @ Press: 2 Torr",
        "Melting Point": "235 °C"
    }
}