{
    "cas_no": "101-49-5",
    "key_name": "2-Benzyl-1,3-dioxolane",
    "cn_name": "苯乙醛-乙二醇缩醛;",
    "alternate_name": "1,3-Dioxolane, 2-(phenylmethyl)-;1,3-Dioxolane, 2-benzyl-;2-(Phenylmethyl)-1,3-dioxolane;2-Benzyl-1,3-dioxolane;Phenylacetaldehyde ethylene acetal;2-Benzyldioxolane;Phenylacetaldehyde ethylene glycol acetal;NSC 25480;Phenylacetaldehyde glycol acetal",
    "duplicated_cas_no": "",
    "SMILES": "C(C1=CC=CC=C1)C2OCCO2",
    "meta_data": {
        "InChI": "InChI=1S/C10H12O2/c1-2-4-9(5-3-1)8-10-11-6-7-12-10/h1-5,10H,6-8H2",
        "InChIKey": null,
        "Canonical SMILES": "O1CCOC1CC=2C=CC=CC2",
        "Molecular Formula": "C<sub>10</sub>H<sub>12</sub>O<sub>2</sub>",
        "Molecular Mass": "164.20",
        "Boiling Point": "98-99 °C @ Press: 1 Torr",
        "Density": "1.087 g/cm³ @ Temp: 20 °C"
    }
}