{
    "cas_no": "32980-71-5",
    "key_name": "2,4,6,8-Tetrachloropyrimido[5,4-<em>d</em>]pyrimidine",
    "cn_name": "四氯嘧啶并[5,4-D]嘧啶;",
    "alternate_name": "Pyrimido[5,4-<em>d</em>]pyrimidine, 2,4,6,8-tetrachloro-;Pyrimido[5,4-<em>d</em>]pyrimidine, tetrachloro-;2,4,6,8-Tetrachloropyrimido[5,4-<em>d</em>]pyrimidine;Tetrachloropyrimido[5,4-<em>d</em>]pyrimidine;NSC 96654",
    "duplicated_cas_no": "",
    "SMILES": "ClC=1C2=C(N=C(Cl)N1)C(Cl)=NC(Cl)=N2",
    "meta_data": {
        "InChI": "InChI=1S/C6Cl4N4/c7-3-1-2(12-6(10)13-3)4(8)14-5(9)11-1",
        "InChIKey": null,
        "Canonical SMILES": "ClC=1N=C(Cl)C=2N=C(Cl)N=C(Cl)C2N1",
        "Molecular Formula": "C<sub>6</sub>Cl<sub>4</sub>N<sub>4</sub>",
        "Molecular Mass": "269.90",
        "Melting Point": "254-258 °C"
    }
}