{
    "cas_no": "18048-64-1",
    "key_name": "2-(3,4-Dimethylphenyl)-2,4-dihydro-5-methyl-3<em>H</em>-pyrazol-3-one",
    "cn_name": null,
    "alternate_name": "3<em>H</em>-Pyrazol-3-one, 2-(3,4-dimethylphenyl)-2,4-dihydro-5-methyl-;2-Pyrazolin-5-one, 3-methyl-1-(3,4-xylyl)-;2-(3,4-Dimethylphenyl)-2,4-dihydro-5-methyl-3<em>H</em>-pyrazol-3-one;3-Methyl-1-(3,4-dimethylphenyl)-2-pyrazolin-5-one;2-(3,4-Dimethylphenyl)-5-methyl-4<em>H</em>-pyrazol-3-one",
    "duplicated_cas_no": "2575730-11-7",
    "SMILES": "O=C1N(C2=CC(C)=C(C)C=C2)N=C(C)C1",
    "meta_data": {
        "InChI": "InChI=1S/C12H14N2O/c1-8-4-5-11(6-9(8)2)14-12(15)7-10(3)13-14/h4-6H,7H2,1-3H3",
        "InChIKey": null,
        "Canonical SMILES": "O=C1N(N=C(C)C1)C2=CC=C(C(=C2)C)C",
        "Molecular Formula": "C<sub>12</sub>H<sub>14</sub>N<sub>2</sub>O",
        "Molecular Mass": "202.25",
        "Melting Point": "116-118 °C"
    }
}