{
    "cas_no": "78-66-0",
    "key_name": "3,6-Dimethyl-4-octyne-3,6-diol",
    "cn_name": "3,6-二甲基-4-辛炔-3,6-二醇;3,6-二甲基-4-辛炔-3,6-二醇;3,6-二甲-4-辛炔-3,6-二醇;",
    "alternate_name": "4-Octyne-3,6-diol, 3,6-dimethyl-;3,6-Dimethyl-4-octyne-3,6-diol;Surfynol 82;2,5-Diethyl-3-hexyne-2,5-diol;Surfynol 85;3,6-Dihydroxy-3,6-dimethyl-4-octyne;NSC 1025;NSC 406738;Tuyile FS 82",
    "duplicated_cas_no": "",
    "SMILES": "C(C#CC(CC)(C)O)(CC)(C)O",
    "meta_data": {
        "InChI": "InChI=1S/C10H18O2/c1-5-9(3,11)7-8-10(4,12)6-2/h11-12H,5-6H2,1-4H3",
        "InChIKey": null,
        "Canonical SMILES": "OC(C#CC(O)(C)CC)(C)CC",
        "Molecular Formula": "C<sub>10</sub>H<sub>18</sub>O<sub>2</sub>",
        "Molecular Mass": "170.25",
        "Boiling Point": "215-220 °C",
        "Melting Point": "54 °C"
    }
}