{
    "cas_no": "7469-77-4",
    "key_name": "2-Methyl-1-naphthol",
    "cn_name": "2-甲基-1-萘酚;",
    "alternate_name": "1-Naphthalenol, 2-methyl-;1-Naphthol, 2-methyl-;2-Methyl-1-naphthalenol;2-Methyl-1-naphthol;2-Methyl-α-naphthol;1-Hydroxy-2-methylnaphthalene;1-Hydroxy-2-methylnaphththalene;NSC 402211",
    "duplicated_cas_no": "",
    "SMILES": "OC=1C2=C(C=CC1C)C=CC=C2",
    "meta_data": {
        "InChI": "InChI=1S/C11H10O/c1-8-6-7-9-4-2-3-5-10(9)11(8)12/h2-7,12H,1H3",
        "InChIKey": null,
        "Canonical SMILES": "OC=1C=2C=CC=CC2C=CC1C",
        "Molecular Formula": "C<sub>11</sub>H<sub>10</sub>O",
        "Molecular Mass": "158.20",
        "Melting Point": "62.4 °C"
    }
}