{
    "cas_no": "10028-15-6",
    "key_name": "Ozone",
    "cn_name": null,
    "alternate_name": "Ozone;Triatomic oxygen;Oxygen, mol. (O<sub>3</sub>);Ozone(<sup>16</sup><em>O</em><sup>16</sup><em>O</em><sup>16</sup><em>O</em>);Ozone (O<sub>3</sub>);Healozone;MeSH ID: D010126",
    "duplicated_cas_no": "74087-86-8;412908-40-8;728855-47-8;855426-80-1",
    "SMILES": "",
    "meta_data": {
        "InChI": "",
        "InChIKey": null,
        "Canonical SMILES": "",
        "Molecular Formula": "O<sub>3</sub>",
        "Molecular Mass": "",
        "Boiling Point": "-111.9 °C",
        "Melting Point": "-192.7 °C",
        "Density": "0.537 g/cm³"
    }
}