{
    "cas_no": "2035-75-8",
    "key_name": "Adipic anhydride",
    "cn_name": "己二酸酐;",
    "alternate_name": "2,7-Oxepanedione;Adipic anhydride;Hexanedioic anhydride;Butanedicarboxylic anhydride;Hexanedioic acid, anhydride;Cyclic adipic anhydride",
    "duplicated_cas_no": "",
    "SMILES": "O=C1OC(=O)CCCC1",
    "meta_data": {
        "InChI": "InChI=1S/C6H8O3/c7-5-3-1-2-4-6(8)9-5/h1-4H2",
        "InChIKey": null,
        "Canonical SMILES": "O=C1OC(=O)CCCC1",
        "Molecular Formula": "C<sub>6</sub>H<sub>8</sub>O<sub>3</sub>",
        "Molecular Mass": "128.13",
        "Boiling Point": "135-190 °C @ Press: 8 Torr",
        "Melting Point": "60-64 °C"
    }
}