{
    "cas_no": "121-39-1",
    "key_name": "Ethyl 3-phenylglycidate",
    "cn_name": "苯代环氧丙酸乙酯;3-苯基环氧乙烷甲酸乙酯;苯基缩水甘油酸乙酯;",
    "alternate_name": "2-Oxiranecarboxylic acid, 3-phenyl-, ethyl ester;Glycidic acid, 3-phenyl-, ethyl ester;Oxiranecarboxylic acid, 3-phenyl-, ethyl ester;Ethyl 3-phenylglycidate;Ethyl α,β-epoxyhydrocinnamate;Ethyl phenylglycidate;Ethyl 2,3-epoxy-3-phenylpropionate;Ethyl 3-phenyl-2-oxiranecarboxylate;NSC 8899",
    "duplicated_cas_no": "",
    "SMILES": "C(OCC)(=O)C1C(O1)C2=CC=CC=C2",
    "meta_data": {
        "InChI": "InChI=1S/C11H12O3/c1-2-13-11(12)10-9(14-10)8-6-4-3-5-7-8/h3-7,9-10H,2H2,1H3",
        "InChIKey": null,
        "Canonical SMILES": "O=C(OCC)C1OC1C=2C=CC=CC2",
        "Molecular Formula": "C<sub>11</sub>H<sub>12</sub>O<sub>3</sub>",
        "Molecular Mass": "192.21",
        "Boiling Point": "128-130 °C @ Press: 4-5 Torr",
        "Melting Point": "17-18 °C",
        "Density": "1.1023 g/cm³ @ Temp: 20 °C"
    }
}