{
    "cas_no": "350-28-7",
    "key_name": "3-Fluoro-4-methylbenzoic acid",
    "cn_name": "3-氟-4-甲基苯甲酸;",
    "alternate_name": "Benzoic acid, 3-fluoro-4-methyl-;<em>p</em>-Toluic acid, 3-fluoro-;3-Fluoro-4-methylbenzoic acid;3-Fluoro-4-toluic acid;NSC 56683;5-Fluoro-4-methylbenzoic acid",
    "duplicated_cas_no": "",
    "SMILES": "C(O)(=O)C1=CC(F)=C(C)C=C1",
    "meta_data": {
        "InChI": "InChI=1S/C8H7FO2/c1-5-2-3-6(8(10)11)4-7(5)9/h2-4H,1H3,(H,10,11)",
        "InChIKey": null,
        "Canonical SMILES": "O=C(O)C1=CC=C(C(F)=C1)C",
        "Molecular Formula": "C<sub>8</sub>H<sub>7</sub>FO<sub>2</sub>",
        "Molecular Mass": "154.14",
        "Melting Point": "159-160.1 °C"
    }
}