{
    "cas_no": "52939-06-7",
    "key_name": "Methyl 5-(4-aminophenyl)-2-furancarboxylate",
    "cn_name": null,
    "alternate_name": "2-Furancarboxylic acid, 5-(4-aminophenyl)-, methyl ester;Methyl 5-(4-aminophenyl)-2-furancarboxylate;Methyl 5-(4-aminophenyl)furan-2-carboxylate",
    "duplicated_cas_no": "",
    "SMILES": "C(OC)(=O)C=1OC(=CC1)C2=CC=C(N)C=C2",
    "meta_data": {
        "InChI": "InChI=1S/C12H11NO3/c1-15-12(14)11-7-6-10(16-11)8-2-4-9(13)5-3-8/h2-7H,13H2,1H3",
        "InChIKey": null,
        "Canonical SMILES": "O=C(OC)C=1OC(=CC1)C=2C=CC(N)=CC2",
        "Molecular Formula": "C<sub>12</sub>H<sub>11</sub>NO<sub>3</sub>",
        "Molecular Mass": "217.22",
        "Melting Point": "125-126 °C"
    }
}