{
    "cas_no": "581-97-5",
    "key_name": "<em>N</em>-2-Naphthalenylacetamide",
    "cn_name": null,
    "alternate_name": "Acetamide, <em>N</em>-2-naphthalenyl-;Acetamide, <em>N</em>-2-naphthyl-;<em>N</em>-2-Naphthalenylacetamide;2-Acetamidonaphthalene;<em>N</em>-(2-Naphthyl)acetamide;<em>N</em>-Acetyl-β-naphthylamine;<em>N</em>-Acetyl-2-naphthylamine;β-Acetonaphthalide;NSC 3104",
    "duplicated_cas_no": "",
    "SMILES": "N(C(C)=O)C1=CC2=C(C=C1)C=CC=C2",
    "meta_data": {
        "InChI": "InChI=1S/C12H11NO/c1-9(14)13-12-7-6-10-4-2-3-5-11(10)8-12/h2-8H,1H3,(H,13,14)",
        "InChIKey": null,
        "Canonical SMILES": "O=C(NC=1C=CC=2C=CC=CC2C1)C",
        "Molecular Formula": "C<sub>12</sub>H<sub>11</sub>NO",
        "Molecular Mass": "185.22",
        "Melting Point": "131-132 °C"
    }
}