{
    "cas_no": "616-39-7",
    "key_name": "Diethylmethylamine",
    "cn_name": "N,N-二乙基甲胺;N-甲基二乙胺;",
    "alternate_name": "Ethanamine, <em>N</em>-ethyl-<em>N</em>-methyl-;Diethylamine, <em>N</em>-methyl-;<em>N</em>-Ethyl-<em>N</em>-methylethanamine;Diethylmethylamine;<em>N</em>-Methyldiethylamine;<em>N</em>,<em>N</em>-Diethylmethylamine;<em>N</em>,<em>N</em>-Diethyl-<em>N</em>-methylamine;Methyldiethylamine;Diethylmonomethylamine;<em>N</em>-Methyl-<em>N</em>-ethylethanamine",
    "duplicated_cas_no": "",
    "SMILES": "N(CC)(CC)C",
    "meta_data": {
        "InChI": "InChI=1S/C5H13N/c1-4-6(3)5-2/h4-5H2,1-3H3",
        "InChIKey": null,
        "Canonical SMILES": "N(C)(CC)CC",
        "Molecular Formula": "C<sub>5</sub>H<sub>13</sub>N",
        "Molecular Mass": "87.16",
        "Boiling Point": "66 °C",
        "Melting Point": "-196 °C"
    }
}