{
    "cas_no": "95-38-5",
    "key_name": "2-(8-Heptadecen-1-yl)-4,5-dihydro-1<em>H</em>-imidazole-1-ethanol",
    "cn_name": "4,5-二氢化-2-(8-十七碳烯基)-1H-咪唑-1-乙醇;",
    "alternate_name": "1<em>H</em>-Imidazole-1-ethanol, 2-(8-heptadecen-1-yl)-4,5-dihydro-;2-Imidazoline-1-ethanol, 2-(8-heptadecenyl)-;1<em>H</em>-Imidazole-1-ethanol, 2-(8-heptadecenyl)-4,5-dihydro-;2-(8-Heptadecen-1-yl)-4,5-dihydro-1<em>H</em>-imidazole-1-ethanol;Amine 220;2-(8-Heptadecenyl)-2-imidazoline-1-ethanol;1-(2-Hydroxyethyl)-2-heptadecenyl-2-imidazoline;Nalcamine G 13;UCL 5410;NSC 231649;Amino O",
    "duplicated_cas_no": "114504-02-8;125943-48-8",
    "SMILES": "C(CCCCCCC=CCCCCCCCC)C=1N(CCO)CCN1",
    "meta_data": {
        "InChI": "InChI=1S/C22H42N2O/c1-2-3-4-5-6-7-8-9-10-11-12-13-14-15-16-17-22-23-18-19-24(22)20-21-25/h9-10,25H,2-8,11-21H2,1H3",
        "InChIKey": null,
        "Canonical SMILES": "OCCN1C(=NCC1)CCCCCCCC=CCCCCCCCC",
        "Molecular Formula": "C<sub>22</sub>H<sub>42</sub>N<sub>2</sub>O",
        "Molecular Mass": "350.58",
        "Boiling Point": "230-240 °C @ Press: 1 Torr"
    }
}