{
    "cas_no": "6805-41-0",
    "key_name": "Escin",
    "cn_name": "七叶皂素;七叶皂苷;七叶皂甙;",
    "alternate_name": "Escin;Escigenin, 3-(4-<em>O</em>-β-<span class=\"text-smallcaps\">D</smallcap>-glucopyranosyl-2-<em>O</em>-β-<smallcap>D</smallcap>-xylopyranosyl-β-<smallcap>D</span>-glucopyranuronoside), 3-hydroxy-2-methylbutyrate, acetate;Oleanane, escin deriv.;3,5-Epoxypicene, escin deriv.;Aescin;Ba 2672;β-Escinic acid;Aescusan;Aescine;Escusan;Eskuzan;Venocin;Flebostasin Retard;MeSH ID: D004928",
    "duplicated_cas_no": "37-02-5;1394-90-7;25255-37-2;47918-34-3;55125-87-6",
    "SMILES": "",
    "meta_data": {
        "InChI": "",
        "InChIKey": null,
        "Canonical SMILES": "",
        "Molecular Formula": "Unspecified",
        "Molecular Mass": "",
        "Melting Point": "200-210 °C (decomp)"
    }
}