{
    "uri": "substance/pt/6805410",
    "rn": "6805-41-0",
    "name": "Escin",
    "images": [],
    "inchi": "",
    "inchiKey": "",
    "smile": "",
    "canonicalSmile": "",
    "molecularFormula": "Unspecified",
    "molecularMass": "",
    "experimentalProperties": [
        {
            "name": "Melting Point",
            "property": "200-210 °C (decomp)",
            "sourceNumber": 1
        }
    ],
    "propertyCitations": [
        {
            "docUri": "document/pt/document/21876405",
            "sourceNumber": 1,
            "source": "Ruzicka, L.; Helvetica Chimica Acta, (1942), 25, 1665-73, CAplus"
        }
    ],
    "synonyms": [
        "Escin",
        "Escigenin, 3-(4-<em>O</em>-β-<span class=\"text-smallcaps\">D</smallcap>-glucopyranosyl-2-<em>O</em>-β-<smallcap>D</smallcap>-xylopyranosyl-β-<smallcap>D</span>-glucopyranuronoside), 3-hydroxy-2-methylbutyrate, acetate",
        "Oleanane, escin deriv.",
        "3,5-Epoxypicene, escin deriv.",
        "Aescin",
        "Ba 2672",
        "β-Escinic acid",
        "Aescusan",
        "Aescine",
        "Escusan",
        "Eskuzan",
        "Venocin",
        "Flebostasin Retard",
        "MeSH ID: D004928"
    ],
    "replacedRns": [
        "37-02-5",
        "1394-90-7",
        "25255-37-2",
        "47918-34-3",
        "55125-87-6"
    ],
    "hasMolfile": false,
    "source": "https://commonchemistry.cas.org/detail?cas_rn=6805-41-0"
}