{
    "cas_no": "4965-34-8",
    "key_name": "7-Bromo-2-methylquinoline",
    "cn_name": null,
    "alternate_name": "Quinoline, 7-bromo-2-methyl-;Quinaldine, 7-bromo-;7-Bromo-2-methylquinoline;7-Bromoquinaldine;2-Methyl-7-bromoquinoline",
    "duplicated_cas_no": "",
    "SMILES": "BrC1=CC2=C(C=CC(C)=N2)C=C1",
    "meta_data": {
        "InChI": "InChI=1S/C10H8BrN/c1-7-2-3-8-4-5-9(11)6-10(8)12-7/h2-6H,1H3",
        "InChIKey": null,
        "Canonical SMILES": "BrC=1C=CC=2C=CC(=NC2C1)C",
        "Molecular Formula": "C<sub>10</sub>H<sub>8</sub>BrN",
        "Molecular Mass": "222.08",
        "Melting Point": "77-79 °C"
    }
}