{
    "cas_no": "55621-49-3",
    "key_name": "5,6-Diaminobenzimidazolone",
    "cn_name": "5,6-二氨基苯并咪唑-2-酮;",
    "alternate_name": "2<em>H</em>-Benzimidazol-2-one, 5,6-diamino-1,3-dihydro-;2-Benzimidazolinone, 5,6-diamino-;5,6-Diamino-1,3-dihydro-2<em>H</em>-benzimidazol-2-one;5,6-Diamino-2(3<em>H</em>)-benzimidazolone;5,6-Diamino-2-benzimidazolone;5,6-Diaminobenzimidazolone",
    "duplicated_cas_no": "",
    "SMILES": "NC=1C=C2C(=CC1N)NC(=O)N2",
    "meta_data": {
        "InChI": "InChI=1S/C7H8N4O/c8-3-1-5-6(2-4(3)9)11-7(12)10-5/h1-2H,8-9H2,(H2,10,11,12)",
        "InChIKey": null,
        "Canonical SMILES": "O=C1NC2=CC(N)=C(N)C=C2N1",
        "Molecular Formula": "C<sub>7</sub>H<sub>8</sub>N<sub>4</sub>O",
        "Molecular Mass": "164.16",
        "Melting Point": "&gt;300 °C"
    }
}