{
    "cas_no": "534-73-6",
    "key_name": "Isomaltitol",
    "cn_name": "异麦芽糖醇;异麦芽糖醇;",
    "alternate_name": "<span class=\"text-smallcaps\">D</smallcap>-Glucitol, 6-<em>O</em>-α-<smallcap>D</span>-glucopyranosyl-;Glucitol, 6-<em>O</em>-α-<span class=\"text-smallcaps\">D</smallcap>-glucopyranosyl-, <smallcap>D</span>-;Isomaltitol;6-<em>O</em>-α-<span class=\"text-smallcaps\">D</smallcap>-Glucopyranosyl-<smallcap>D</span>-glucitol;6-<em>O</em>-α-<span class=\"text-smallcaps\">D</smallcap>-Glucopyranosyl-<smallcap>D</span>-sorbitol;1,6-GPS",
    "duplicated_cas_no": "124569-58-0;297757-21-2",
    "SMILES": "O(C[C@H]([C@H]([C@@H]([C@H](CO)O)O)O)O)[C@H]1O[C@H](CO)[C@@H](O)[C@H](O)[C@H]1O",
    "meta_data": {
        "InChI": "InChI=1S/C12H24O11/c13-1-4(15)7(17)8(18)5(16)3-22-12-11(21)10(20)9(19)6(2-14)23-12/h4-21H,1-3H2/t4-,5+,6+,7+,8+,9+,10-,11+,12-/m0/s1",
        "InChIKey": null,
        "Canonical SMILES": "OCC(O)C(O)C(O)C(O)COC1OC(CO)C(O)C(O)C1O",
        "Molecular Formula": "C<sub>12</sub>H<sub>24</sub>O<sub>11</sub>",
        "Molecular Mass": "344.31",
        "Melting Point": "165.5-167 °C"
    }
}