{
    "cas_no": "917393-39-6",
    "key_name": "Lorediplon",
    "cn_name": null,
    "alternate_name": "Acetamide, <em>N</em>-[2-fluoro-5-[3-(2-thienylcarbonyl)pyrazolo[1,5-<em>a</em>]pyrimidin-7-yl]phenyl]-<em>N</em>-methyl-;<em>N</em>-[2-Fluoro-5-[3-(2-thienylcarbonyl)pyrazolo[1,5-<em>a</em>]pyrimidin-7-yl]phenyl]-<em>N</em>-methylacetamide;Lorediplon",
    "duplicated_cas_no": "",
    "SMILES": "C(=O)(C1=C2N(C(=CC=N2)C3=CC(N(C(C)=O)C)=C(F)C=C3)N=C1)C4=CC=CS4",
    "meta_data": {
        "InChI": "InChI=1S/C20H15FN4O2S/c1-12(26)24(2)17-10-13(5-6-15(17)21)16-7-8-22-20-14(11-23-25(16)20)19(27)18-4-3-9-28-18/h3-11H,1-2H3",
        "InChIKey": null,
        "Canonical SMILES": "O=C(C=1SC=CC1)C=2C=NN3C2N=CC=C3C=4C=CC(F)=C(C4)N(C(=O)C)C",
        "Molecular Formula": "C<sub>20</sub>H<sub>15</sub>FN<sub>4</sub>O<sub>2</sub>S",
        "Molecular Mass": "394.42",
        "Melting Point": "158-159 °C"
    }
}