{
    "cas_no": "13492-01-8",
    "key_name": "Tranylcypromine sulfate",
    "cn_name": null,
    "alternate_name": "Cyclopropanamine, 2-phenyl-, (1<em>R</em>,2<em>S</em>)-<em>rel</em>-, sulfate (2:1);Cyclopropylamine, 2-phenyl-, sulfate (2:1), <em>trans</em>-(±)-;Cyclopropanamine, 2-phenyl-, <em>trans</em>-(±)-, sulfate (2:1);Parnate;Tranylcypromine sulfate;<em>dl</em>-Tranylcypromine sulfate;Tylciprine;<em>trans</em>-2-Phenylcyclopropanamine sulfate (2:1);Cyclopropanamine, 2-phenyl-, <em>trans</em>-, sulfate (2:1);Parnetil;<em>trans</em>-2-Phenylcyclopropylamine hemisulfate",
    "duplicated_cas_no": "1949-18-4;7081-36-9",
    "SMILES": "S(=O)(=O)(O)O.N[C@H]1[C@@H](C1)C2=CC=CC=C2",
    "meta_data": {
        "InChI": "InChI=1/C9H11N.H2O4S/c10-9-6-8(9)7-4-2-1-3-5-7;1-5(2,3)4/h1-5,8-9H,6,10H2;(H2,1,2,3,4)/t8-,9+;/s2",
        "InChIKey": null,
        "Canonical SMILES": "O=S(=O)(O)O.NC1CC1C=2C=CC=CC2",
        "Molecular Formula": "C<sub>9</sub>H<sub>11</sub>N.<sup>1</sup>/<sub>2</sub>H<sub>2</sub>O<sub>4</sub>S",
        "Molecular Mass": "",
        "Melting Point": "242-243 °C"
    }
}