{
    "cas_no": "14678-95-6",
    "key_name": "5-Amino-1-(4-methoxyphenyl)-1<em>H</em>-pyrazole-4-carboxylic acid",
    "cn_name": "5-氨基-1-(4-甲基苯基)-1H-吡唑-4-羧酸;",
    "alternate_name": "1<em>H</em>-Pyrazole-4-carboxylic acid, 5-amino-1-(4-methoxyphenyl)-;Pyrazole-4-carboxylic acid, 5-amino-1-(<em>p</em>-methoxyphenyl)-;5-Amino-1-(4-methoxyphenyl)-1<em>H</em>-pyrazole-4-carboxylic acid",
    "duplicated_cas_no": "",
    "SMILES": "NC=1N(N=CC1C(O)=O)C2=CC=C(OC)C=C2",
    "meta_data": {
        "InChI": "InChI=1S/C11H11N3O3/c1-17-8-4-2-7(3-5-8)14-10(12)9(6-13-14)11(15)16/h2-6H,12H2,1H3,(H,15,16)",
        "InChIKey": null,
        "Canonical SMILES": "O=C(O)C=1C=NN(C2=CC=C(OC)C=C2)C1N",
        "Molecular Formula": "C<sub>11</sub>H<sub>11</sub>N<sub>3</sub>O<sub>3</sub>",
        "Molecular Mass": "233.22",
        "Melting Point": "160 °C"
    }
}