{
    "cas_no": "406482-73-3",
    "key_name": "<em>B</em>-(4′-Cyano[1,1′-biphenyl]-4-yl)boronic acid",
    "cn_name": "4-氰基-4-联苯硼酸;",
    "alternate_name": "Boronic acid, <em>B</em>-(4′-cyano[1,1′-biphenyl]-4-yl)-;Boronic acid, (4′-cyano[1,1′-biphenyl]-4-yl)-;<em>B</em>-(4′-Cyano[1,1′-biphenyl]-4-yl)boronic acid;4′-Cyanobiphenyl-4-ylboronic acid;4-Cyano-[1,1′-biphenyl]-4′-boronic acid;4′-Cyano-1,1′-biphenyl-4-boronic acid;(4′-Cyano-[1,1′-biphenyl]-4-yl)boronic acid;(4′-Cyano-[1,1′-biphenyl]-4-yl)boronicacid;[4-(4-Cyanophenyl)phenyl]boronic acid",
    "duplicated_cas_no": "",
    "SMILES": "B(O)(O)C1=CC=C(C=C1)C2=CC=C(C#N)C=C2",
    "meta_data": {
        "InChI": "InChI=1S/C13H10BNO2/c15-9-10-1-3-11(4-2-10)12-5-7-13(8-6-12)14(16)17/h1-8,16-17H",
        "InChIKey": null,
        "Canonical SMILES": "N#CC=1C=CC(=CC1)C2=CC=C(C=C2)B(O)O",
        "Molecular Formula": "C<sub>13</sub>H<sub>10</sub>BNO<sub>2</sub>",
        "Molecular Mass": "223.04",
        "Melting Point": "190.5-191.5 °C"
    }
}