{
    "cas_no": "92-77-3",
    "key_name": "2-Hydroxy-3-naphthoic acid anilide",
    "cn_name": "萘酚AS;冰染偶合组分2;N-(3-羟基-2-萘甲酰基)苯胺;",
    "alternate_name": "2-Naphthalenecarboxamide, 3-hydroxy-<em>N</em>-phenyl-;2-Naphthanilide, 3-hydroxy-;3-Hydroxy-<em>N</em>-phenyl-2-naphthalenecarboxamide;C.I. 37505;Acco Naphthol AS;Acna Naphthol C;Amanil Naphthol AS;Anthonaphthol AS;Azoground AS;Azonaphthol A;Azotol A;Brenthol AS;Celcot RF;Cibanaphthol RF;C.I. Azoic Coupling Component 2;Diathol AS;Diathol ASF;Dragonthol A;Hiltonaphthol AS;Kambothol AS;Lake Developer A;Mitsui Naphthozol AS;Naftolo MM;Naphthanilide OL Supra;Naphtanilide RC;Naphthanilide RC Supra;Naphthazol A;Naphthoide AS;Naphthoide AS No. 100;Naphthol ACNA C;Naphtholate AS;Naphthol AS Supra;Naphtoelan A;Naphtol AS;Solunaptol A;Tulathol AS;Ultrazol I-AS;Naphthanil AS;3-Hydroxy-2-naphthanilide;3-(<em>N</em>-Phenylcarbamoyl)-2-naphthol;Naphthol AS;2-Hydroxy-3-naphthanilide;2-Hydroxy-3-naphthoic anilide;2-Hydroxy-3-naphthalenecarboxanilide;2-Hydroxy-3-naphthoic acid anilide;Naphtol AS-A;3-Hydroxy-2-naphthalenecarboxanilide;2-Naphthol-3-carboxylic acid <em>N</em>-phenylamide;Amarthol AS;3-Hydroxy-<em>N</em>-phenyl-2-naphthamide;2-Hydroxy-<em>N</em>-phenyl-3-naphthalenecarboxamide;3-Hydroxy-2-naphthoic acid anilide;Aquafine Red E 9;2-Hydroxy-3-(phenylcarbamoyl)naphthalene;α-Naphthol AS;<em>N</em>-Phenyl-2-hydroxy-3-naphthalenecarboxamide;Azoic Coupling Component 2;Kako Grounder AS;NSC 45173;3-Hydroxyl-2-naphthanilide;Anathol AS;Dycosthol AS;Hebeithol AS;Napthol AS;Naftol AS;Conazoic Coupling B;Kiwa Grounder AS;Orange Base GC;C.I. Azo Coupling Comp. 2;<em>N</em>-Phenyl-3-hydroxy-2-naphthamide;3-Hydroxy-2-naphthoanilide;Sefen AS;3-Hydroxy-naphthalene-2-carboxylic acid phenylamide;H 0313",
    "duplicated_cas_no": "",
    "SMILES": "C(NC1=CC=CC=C1)(=O)C2=CC3=C(C=C2O)C=CC=C3",
    "meta_data": {
        "InChI": "InChI=1S/C17H13NO2/c19-16-11-13-7-5-4-6-12(13)10-15(16)17(20)18-14-8-2-1-3-9-14/h1-11,19H,(H,18,20)",
        "InChIKey": null,
        "Canonical SMILES": "O=C(NC=1C=CC=CC1)C2=CC=3C=CC=CC3C=C2O",
        "Molecular Formula": "C<sub>17</sub>H<sub>13</sub>NO<sub>2</sub>",
        "Molecular Mass": "263.29",
        "Melting Point": "296 °C (decomp)"
    }
}