{
    "cas_no": "25154-52-3",
    "key_name": "Nonylphenol",
    "cn_name": null,
    "alternate_name": "Phenol, nonyl-;Nonylphenol;<em>n</em>-Nonylphenol;Monononylphenol",
    "duplicated_cas_no": "1300-16-9;256459-00-4",
    "SMILES": "",
    "meta_data": {
        "InChI": "",
        "InChIKey": null,
        "Canonical SMILES": "",
        "Molecular Formula": "C<sub>15</sub>H<sub>24</sub>O",
        "Molecular Mass": "",
        "Boiling Point": "293-297 °C",
        "Melting Point": "2 °C",
        "Density": "0.950 g/cm³ @ Temp: 20 °C"
    }
}