{
    "cas_no": "29218-27-7",
    "key_name": "Toloxatone",
    "cn_name": "托洛沙酮;涛洛西酮;多劳喜动;5-羟甲基-3-(3-甲基苯基)噁唑烷-2-酮;",
    "alternate_name": "2-Oxazolidinone, 5-(hydroxymethyl)-3-(3-methylphenyl)-;2-Oxazolidinone, 5-(hydroxymethyl)-3-<em>m</em>-tolyl-;5-(Hydroxymethyl)-3-(3-methylphenyl)-2-oxazolidinone;3-(3-Methylphenyl)-5-hydroxymethyl-2-oxazolidinone;69276MD;Toloxatone;Delalande 69276;MD 69276;Humoryl;Perenum;Taloxotone",
    "duplicated_cas_no": "",
    "SMILES": "O=C1N(CC(CO)O1)C2=CC(C)=CC=C2",
    "meta_data": {
        "InChI": "InChI=1S/C11H13NO3/c1-8-3-2-4-9(5-8)12-6-10(7-13)15-11(12)14/h2-5,10,13H,6-7H2,1H3",
        "InChIKey": null,
        "Canonical SMILES": "O=C1OC(CO)CN1C2=CC=CC(=C2)C",
        "Molecular Formula": "C<sub>11</sub>H<sub>13</sub>NO<sub>3</sub>",
        "Molecular Mass": "207.23",
        "Melting Point": "76 °C"
    }
}