{
    "cas_no": "61203-82-5",
    "key_name": "4-Butylcyclohexanone",
    "cn_name": "4-正丁基环己酮;",
    "alternate_name": "Cyclohexanone, 4-butyl-;4-Butylcyclohexanone;4-<em>n</em>-Butylcyclohexanone;4-Butyl-1-cyclohexanone;4-Butylcyclohexan-1-one",
    "duplicated_cas_no": "",
    "SMILES": "C(CCC)C1CCC(=O)CC1",
    "meta_data": {
        "InChI": "InChI=1S/C10H18O/c1-2-3-4-9-5-7-10(11)8-6-9/h9H,2-8H2,1H3",
        "InChIKey": null,
        "Canonical SMILES": "O=C1CCC(CC1)CCCC",
        "Molecular Formula": "C<sub>10</sub>H<sub>18</sub>O",
        "Molecular Mass": "154.25",
        "Boiling Point": "65-66 °C @ Press: 3 Torr",
        "Melting Point": "101-102 °C"
    }
}