{
    "cas_no": "3404-61-3",
    "key_name": "3-Methyl-1-hexene",
    "cn_name": "3-甲基-1-己烯;3-甲基-1-己烯;3-丙基-1-丁烯；2-乙烯戊烷;",
    "alternate_name": "1-Hexene, 3-methyl-;3-Methyl-1-hexene;NSC 73925",
    "duplicated_cas_no": "29841-10-9",
    "SMILES": "C(CCC)(C=C)C",
    "meta_data": {
        "InChI": "InChI=1S/C7H14/c1-4-6-7(3)5-2/h5,7H,2,4,6H2,1,3H3",
        "InChIKey": null,
        "Canonical SMILES": "C=CC(C)CCC",
        "Molecular Formula": "C<sub>7</sub>H<sub>14</sub>",
        "Molecular Mass": "98.19",
        "Boiling Point": "83.9 °C",
        "Density": "0.6945 g/cm³ @ Temp: 20 °C"
    }
}