{
    "cas_no": "27490-70-6",
    "key_name": "Chlorodimethyl(2-methylpropyl)silane",
    "cn_name": "氯二甲基异丁基硅烷;",
    "alternate_name": "Silane, chlorodimethyl(2-methylpropyl)-;Silane, chloroisobutyldimethyl-;Chlorodimethyl(2-methylpropyl)silane;Isobutyldimethylsilyl chloride;Dimethylisobutylchlorosilane;Isobutyldimethylchlorosilane",
    "duplicated_cas_no": "",
    "SMILES": "C([Si](C)(C)Cl)C(C)C",
    "meta_data": {
        "InChI": "InChI=1S/C6H15ClSi/c1-6(2)5-8(3,4)7/h6H,5H2,1-4H3",
        "InChIKey": null,
        "Canonical SMILES": "Cl[Si](C)(C)CC(C)C",
        "Molecular Formula": "C<sub>6</sub>H<sub>15</sub>ClSi",
        "Molecular Mass": "150.72",
        "Boiling Point": "131-133 °C"
    }
}