{
    "cas_no": "2397-76-4",
    "key_name": "Neopentyl methacrylate",
    "cn_name": null,
    "alternate_name": "2-Propenoic acid, 2-methyl-, 2,2-dimethylpropyl ester;Methacrylic acid, neopentyl ester;Neopentyl methacrylate;2,2-Dimethylpropyl methacrylate;2,2-Dimethylpropyl 2-methylprop-2-enoate",
    "duplicated_cas_no": "",
    "SMILES": "O(C(C(C)=C)=O)CC(C)(C)C",
    "meta_data": {
        "InChI": "InChI=1S/C9H16O2/c1-7(2)8(10)11-6-9(3,4)5/h1,6H2,2-5H3",
        "InChIKey": null,
        "Canonical SMILES": "O=C(OCC(C)(C)C)C(=C)C",
        "Molecular Formula": "C<sub>9</sub>H<sub>16</sub>O<sub>2</sub>",
        "Molecular Mass": "156.22",
        "Boiling Point": "65 °C @ Press: 19.5 Torr",
        "Density": "0.8697 g/cm³ @ Temp: 26 °C"
    }
}