{
    "cas_no": "32202-61-2",
    "key_name": "4-Aminoindane",
    "cn_name": "4-氨基茚满;",
    "alternate_name": "1<em>H</em>-Inden-4-amine, 2,3-dihydro-;4-Indanamine;2,3-Dihydro-1<em>H</em>-inden-4-amine;4-Aminoindan;4-Aminoindane;Indan-4-ylamine",
    "duplicated_cas_no": "",
    "SMILES": "NC1=C2C(=CC=C1)CCC2",
    "meta_data": {
        "InChI": "InChI=1S/C9H11N/c10-9-6-2-4-7-3-1-5-8(7)9/h2,4,6H,1,3,5,10H2",
        "InChIKey": null,
        "Canonical SMILES": "NC1=CC=CC2=C1CCC2",
        "Molecular Formula": "C<sub>9</sub>H<sub>11</sub>N",
        "Molecular Mass": "133.19",
        "Boiling Point": "235 °C @ Press: 754 Torr",
        "Melting Point": "9 °C"
    }
}