{
    "cas_no": "82419-35-0",
    "key_name": "9,10-Difluoro-2,3-dihydro-3-methyl-7-oxo-7<em>H</em>-pyrido[1,2,3-<em>de</em>]-1,4-benzoxazine-6-carboxylic acid",
    "cn_name": "氧氟酸;",
    "alternate_name": "7<em>H</em>-Pyrido[1,2,3-<em>de</em>]-1,4-benzoxazine-6-carboxylic acid, 9,10-difluoro-2,3-dihydro-3-methyl-7-oxo-;9,10-Difluoro-2,3-dihydro-3-methyl-7-oxo-7<em>H</em>-pyrido[1,2,3-<em>de</em>]-1,4-benzoxazine-6-carboxylic acid;9,10-Difluoro-3-methyl-7-oxo-2,3-dihydro-7<em>H</em>-pyrido[1,2,3-<em>de</em>]-1,4-benzoxazine-6-carboxylic acid;9,10-Difluoro-3-methyl-7-oxo-2,3-dihydro-7<em>H</em>-[1,4]oxazino[2,3,4-<em>ij</em>]quinoline-6-carboxylic acid",
    "duplicated_cas_no": "100986-90-1",
    "SMILES": "O=C1C=2C=3N(C=C1C(O)=O)C(C)COC3C(F)=C(F)C2",
    "meta_data": {
        "InChI": "InChI=1S/C13H9F2NO4/c1-5-4-20-12-9(15)8(14)2-6-10(12)16(5)3-7(11(6)17)13(18)19/h2-3,5H,4H2,1H3,(H,18,19)",
        "InChIKey": null,
        "Canonical SMILES": "O=C(O)C1=CN2C3=C(OCC2C)C(F)=C(F)C=C3C1=O",
        "Molecular Formula": "C<sub>13</sub>H<sub>9</sub>F<sub>2</sub>NO<sub>4</sub>",
        "Molecular Mass": "281.21",
        "Melting Point": "309-311 °C"
    }
}