{
    "cas_no": "132182-92-4",
    "key_name": "1,1,1,2,2,3,4,5,5,5-Decafluoro-3-methoxy-4-(trifluoromethyl)pentane",
    "cn_name": "十氟-3-甲氧基-2-三氟甲基戊烷;",
    "alternate_name": "Pentane, 1,1,1,2,2,3,4,5,5,5-decafluoro-3-methoxy-4-(trifluoromethyl)-;1,1,1,2,2,3,4,5,5,5-Decafluoro-3-methoxy-4-(trifluoromethyl)pentane;Novec HFE 7300;Novec 7300;HFE 7300;CT-solv 100E;Decafluoro-3-methoxy-2-(trifluoromethyl)pentane;3-Methoxyperfluoro(2-methylpentane);D 4484;2-Trifluoromethyl-3-methoxyperfluoropentane",
    "duplicated_cas_no": "",
    "SMILES": "C(C(C(F)(F)F)(C(F)(F)F)F)(C(C(F)(F)F)(F)F)(OC)F",
    "meta_data": {
        "InChI": "InChI=1S/C7H3F13O/c1-21-4(11,3(9,10)7(18,19)20)2(8,5(12,13)14)6(15,16)17/h1H3",
        "InChIKey": null,
        "Canonical SMILES": "FC(F)(F)C(F)(F)C(F)(OC)C(F)(C(F)(F)F)C(F)(F)F",
        "Molecular Formula": "C<sub>7</sub>H<sub>3</sub>F<sub>13</sub>O",
        "Molecular Mass": "350.08",
        "Boiling Point": "98-100 °C @ Press: 760 Torr",
        "Density": "1.66 g/cm³"
    }
}