{
    "cas_no": "61717-82-6",
    "key_name": "1-Hydroxy-1,2-benziodoxol-3(1<em>H</em>)-one 1-oxide",
    "cn_name": null,
    "alternate_name": "1,2-Benziodoxol-3(1<em>H</em>)-one, 1-hydroxy-, 1-oxide;1-Hydroxy-1,2-benziodoxol-3(1<em>H</em>)-one 1-oxide;IBX;NSC 366248;1-Hydroxy-1,3-dioxo-3<em>H</em>-benz[<em>d</em>][1,2]iodoxol;1-Hydroxy-3<em>H</em>-benz[<em>d</em>][1,2]iodoxol-1,3-dione;SIBX;1-Hydroxyl-2-benziodoxol-3(1<em>H</em>)-one 1-oxide;1-Hydroxy-1,2-benziodoxole-3(1<em>H</em>)-one 1-oxide",
    "duplicated_cas_no": "461393-20-4",
    "SMILES": "O=I1(O)C=2C(C(=O)O1)=CC=CC2",
    "meta_data": {
        "InChI": "InChI=1S/C7H5IO4/c9-7-5-3-1-2-4-6(5)8(10,11)12-7/h1-4H,(H,10,11)",
        "InChIKey": null,
        "Canonical SMILES": "O=C1OI(=O)(O)C=2C=CC=CC12",
        "Molecular Formula": "C<sub>7</sub>H<sub>5</sub>IO<sub>4</sub>",
        "Molecular Mass": "",
        "Melting Point": "232 °C (decomp)"
    }
}