{
    "cas_no": "547-25-1",
    "key_name": "Turanose",
    "cn_name": "松二糖;D(+)-松二糖;土耳其干罗糖;土冉糖;",
    "alternate_name": "<span class=\"text-smallcaps\">D</smallcap>-Fructose, 3-<em>O</em>-α-<smallcap>D</span>-glucopyranosyl-;Turanose;3-<em>O</em>-α-<span class=\"text-smallcaps\">D</smallcap>-Glucopyranosyl-<smallcap>D</span>-fructose;3-(α-<span class=\"text-smallcaps\">D</smallcap>-Glucosido)-<smallcap>D</span>-fructose;<span class=\"text-smallcaps\">D</span>-Turanose;<span class=\"text-smallcaps\">D</span>-(+)-Turanose;NSC 1222",
    "duplicated_cas_no": "",
    "SMILES": "O([C@@H]([C@@H]([C@@H](CO)O)O)C(CO)=O)[C@H]1O[C@H](CO)[C@@H](O)[C@H](O)[C@H]1O",
    "meta_data": {
        "InChI": "InChI=1S/C12H22O11/c13-1-4(16)7(18)11(5(17)2-14)23-12-10(21)9(20)8(19)6(3-15)22-12/h4,6-16,18-21H,1-3H2/t4-,6-,7-,8-,9+,10-,11-,12-/m1/s1",
        "InChIKey": null,
        "Canonical SMILES": "O=C(CO)C(OC1OC(CO)C(O)C(O)C1O)C(O)C(O)CO",
        "Molecular Formula": "C<sub>12</sub>H<sub>22</sub>O<sub>11</sub>",
        "Molecular Mass": "342.30",
        "Melting Point": "168 °C"
    }
}