{
    "cas_no": "2906-12-9",
    "key_name": "3-Isopropoxypropylamine",
    "cn_name": "3-异丙氧基丙胺;IPOPA;",
    "alternate_name": "1-Propanamine, 3-(1-methylethoxy)-;Propylamine, 3-isopropoxy-;3-(1-Methylethoxy)-1-propanamine;3-Isopropoxypropylamine;3-Isopropoxy-1-propylamine;3-Aminopropyl isopropyl ether;3-Isopropoxy-1-propanamine;NSC 815;[3-[(1-Methylethyl)oxy]propyl]amine;3-(1-Methylethoxy)propan-1-amine;3-(Propan-2-yloxy)propan-1-amine;3-Propan-2-yloxypropan-1-amine",
    "duplicated_cas_no": "",
    "SMILES": "O(CCCN)C(C)C",
    "meta_data": {
        "InChI": "InChI=1S/C6H15NO/c1-6(2)8-5-3-4-7/h6H,3-5,7H2,1-2H3",
        "InChIKey": null,
        "Canonical SMILES": "O(CCCN)C(C)C",
        "Molecular Formula": "C<sub>6</sub>H<sub>15</sub>NO",
        "Molecular Mass": "117.19",
        "Boiling Point": "85-86 °C @ Press: 102 Torr",
        "Density": "0.8450 g/cm³ @ Temp: 20 °C"
    }
}