{
    "cas_no": "17228-70-5",
    "key_name": "3,5-Dichloro-4(1<em>H</em>)-pyridinone",
    "cn_name": "3,5-二氯-4-羟基吡啶;3,5-二氯吡啶-4-酮;",
    "alternate_name": "4(1<em>H</em>)-Pyridinone, 3,5-dichloro-;4(1<em>H</em>)-Pyridone, 3,5-dichloro-;3,5-Dichloro-4(1<em>H</em>)-pyridinone;3,5-Dichloro-4-pyridinone;3,5-Dichloro-1<em>H</em>-pyridin-4-one;3,5-Dichloro-1,4-dihydropyridin-4-one;3,5-Dichloro-4-hydroxypyridine",
    "duplicated_cas_no": "",
    "SMILES": "O=C1C(Cl)=CNC=C1Cl",
    "meta_data": {
        "InChI": "InChI=1S/C5H3Cl2NO/c6-3-1-8-2-4(7)5(3)9/h1-2H,(H,8,9)",
        "InChIKey": null,
        "Canonical SMILES": "O=C1C(Cl)=CNC=C1Cl",
        "Molecular Formula": "C<sub>5</sub>H<sub>3</sub>Cl<sub>2</sub>NO",
        "Molecular Mass": "163.99",
        "Melting Point": "&gt;340 °C"
    }
}