{
    "cas_no": "652-37-9",
    "key_name": "Acefylline",
    "cn_name": "茶碱乙酸;茶碱-7-乙酸;2-(1,3-二甲基-2,6-二氧代-2,3,6,7-四氢-1H-嘌呤-7-基)乙酸;",
    "alternate_name": "7<em>H</em>-Purine-7-acetic acid, 1,2,3,6-tetrahydro-1,3-dimethyl-2,6-dioxo-;Purine-7-acetic acid, 1,2,3,6-tetrahydro-1,3-dimethyl-2,6-dioxo-;1,2,3,6-Tetrahydro-1,3-dimethyl-2,6-dioxo-7<em>H</em>-purine-7-acetic acid;7-Theophyllineacetic acid;7-(Carboxymethyl)theophylline;1,2,3,6-Tetrahydro-1,3-dimethyl-2,6-dioxopurine-7-acetic acid;7-Theophyllinylacetic acid;Theophyllineacetic acid;Acefylline;Acephylline;<em>N</em>-7-Theophyllineacetic acid;Carboxymethyltheophylline;NSC 52996;2-(1,3-Dimethyl-2,6-dioxo-2,3-dihydro-1<em>H</em>-purin-7(6<em>H</em>)-yl)acetic acid;2-(1,3-Dimethyl-2,6-dioxo-2,3,6,7-tetrahydro-1<em>H</em>-purin-7-yl)acetic acid;2-(1,3-Dimethyl-2,6-dioxopurin-7-yl)acetic acid;2-(1,3-Dimethyl-2,6-dioxo-1,2,3,6-tetrahydro-7<em>H</em>-purin-7-yl)acetic acid",
    "duplicated_cas_no": "",
    "SMILES": "C(C(O)=O)N1C2=C(N(C)C(=O)N(C)C2=O)N=C1",
    "meta_data": {
        "InChI": "InChI=1S/C9H10N4O4/c1-11-7-6(8(16)12(2)9(11)17)13(4-10-7)3-5(14)15/h4H,3H2,1-2H3,(H,14,15)",
        "InChIKey": null,
        "Canonical SMILES": "O=C(O)CN1C=NC2=C1C(=O)N(C(=O)N2C)C",
        "Molecular Formula": "C<sub>9</sub>H<sub>10</sub>N<sub>4</sub>O<sub>4</sub>",
        "Molecular Mass": "238.20",
        "Melting Point": "271 °C"
    }
}