{
    "cas_no": "2234-97-1",
    "key_name": "Tripropylphosphine",
    "cn_name": "三正丙基磷化氢;",
    "alternate_name": "Phosphine, tripropyl-;Tripropylphosphine;Tri-<em>n</em>-propylphosphine;Cytop 330",
    "duplicated_cas_no": "",
    "SMILES": "P(CCC)(CCC)CCC",
    "meta_data": {
        "InChI": "InChI=1S/C9H21P/c1-4-7-10(8-5-2)9-6-3/h4-9H2,1-3H3",
        "InChIKey": null,
        "Canonical SMILES": "P(CCC)(CCC)CCC",
        "Molecular Formula": "C<sub>9</sub>H<sub>21</sub>P",
        "Molecular Mass": "160.24",
        "Boiling Point": "103.5 °C @ Press: 50 Torr",
        "Density": "0.807 g/cm³ @ Temp: 20 °C"
    }
}