{
    "cas_no": "89-97-4",
    "key_name": "2-Chlorobenzylamine",
    "cn_name": "邻氯苯甲胺;",
    "alternate_name": "Benzenemethanamine, 2-chloro-;Benzylamine, <em>o</em>-chloro-;2-Chlorobenzenemethanamine;2-Chlorobenzylamine;<em>o</em>-Chlorobenzylamine;1-(2-Chlorophenyl)methanamine;NSC 60118;(2-Chlorophenyl)methanamine;α-Amino-2-chlorotoluene",
    "duplicated_cas_no": "",
    "SMILES": "C(N)C1=C(Cl)C=CC=C1",
    "meta_data": {
        "InChI": "InChI=1S/C7H8ClN/c8-7-4-2-1-3-6(7)5-9/h1-4H,5,9H2",
        "InChIKey": null,
        "Canonical SMILES": "ClC=1C=CC=CC1CN",
        "Molecular Formula": "C<sub>7</sub>H<sub>8</sub>ClN",
        "Molecular Mass": "141.60",
        "Boiling Point": "211-213 °C @ Press: 14 Torr",
        "Melting Point": "227-228 °C"
    }
}