{
    "cas_no": "4130-08-9",
    "key_name": "Vinyltriacetoxysilane",
    "cn_name": "三乙酰氧基乙烯基硅烷;乙烯基三乙酰氧硅烷;",
    "alternate_name": "Silanetriol, 1-ethenyl-, 1,1,1-triacetate;Silanetriol, vinyl-, triacetate;Silanetriol, ethenyl-, triacetate;Vinyltriacetoxysilane;Triacetoxyvinylsilane;Z 6075;SH 6075;(Triacetyloxy)vinylsilane;LS 2040;Vinylsilane triacetate;SZ 6075;AP 3000;NSC 93913;Geniosil GF 62;SHC 001B;OFS 6075;Xiameter OFS 6075;[Diacetyloxy(ethenyl)silyl] acetate",
    "duplicated_cas_no": "63242-62-6;253778-95-9",
    "SMILES": "[Si](OC(C)=O)(OC(C)=O)(OC(C)=O)C=C",
    "meta_data": {
        "InChI": "InChI=1S/C8H12O6Si/c1-5-15(12-6(2)9,13-7(3)10)14-8(4)11/h5H,1H2,2-4H3",
        "InChIKey": null,
        "Canonical SMILES": "O=C(O[Si](OC(=O)C)(OC(=O)C)C=C)C",
        "Molecular Formula": "C<sub>8</sub>H<sub>12</sub>O<sub>6</sub>Si",
        "Molecular Mass": "232.26",
        "Boiling Point": "112-113 °C @ Press: 1 Torr",
        "Density": "1.167 g/cm³"
    }
}