{
    "cas_no": "3616-57-7",
    "key_name": "2,2-Diethoxy-<em>N</em>,<em>N</em>-diethylethanamine",
    "cn_name": "二乙氨基乙醛缩二乙醇;",
    "alternate_name": "Ethanamine, 2,2-diethoxy-<em>N</em>,<em>N</em>-diethyl-;Acetaldehyde, (diethylamino)-, diethyl acetal;Triethylamine, 2,2-diethoxy-;2,2-Diethoxy-<em>N</em>,<em>N</em>-diethylethanamine;(Diethylamino)acetaldehyde diethyl acetal;2,2-Diethoxytriethylamine;NSC 62128;2,2-Diethoxy-<em>N</em>,<em>N</em>-diethylethylamine;(2,2-Diethoxyethyl)diethylamine",
    "duplicated_cas_no": "",
    "SMILES": "C(CN(CC)CC)(OCC)OCC",
    "meta_data": {
        "InChI": "InChI=1S/C10H23NO2/c1-5-11(6-2)9-10(12-7-3)13-8-4/h10H,5-9H2,1-4H3",
        "InChIKey": null,
        "Canonical SMILES": "O(CC)C(OCC)CN(CC)CC",
        "Molecular Formula": "C<sub>10</sub>H<sub>23</sub>NO<sub>2</sub>",
        "Molecular Mass": "189.30",
        "Boiling Point": "194.5 °C"
    }
}