{
    "cas_no": "353-54-8",
    "key_name": "Tribromofluoromethane",
    "cn_name": "一氟三溴甲烷;氟三溴甲烷;一氟三溴甲烷;",
    "alternate_name": "Methane, tribromofluoro-;Tribromofluoromethane;Fluorotribromomethane",
    "duplicated_cas_no": "",
    "SMILES": "C(Br)(Br)(Br)F",
    "meta_data": {
        "InChI": "InChI=1S/CBr3F/c2-1(3,4)5",
        "InChIKey": null,
        "Canonical SMILES": "FC(Br)(Br)Br",
        "Molecular Formula": "CBr<sub>3</sub>F",
        "Molecular Mass": "270.72",
        "Boiling Point": "108 °C",
        "Melting Point": "-73.6 °C",
        "Density": "2.7648 g/cm³ @ Temp: 20 °C"
    }
}