{
    "cas_no": "95-48-7",
    "key_name": "<em>o</em>-Cresol",
    "cn_name": "邻甲酚;2-甲酚;",
    "alternate_name": "Phenol, 2-methyl-;<em>o</em>-Cresol;2-Methylphenol;<em>o</em>-Hydroxytoluene;<em>o</em>-Methylphenol;<em>o</em>-Oxytoluene;2-Cresol;<em>o</em>-Methylphenylol;2-Hydroxytoluene;<em>o</em>-Toluol;1-Hydroxy-2-methylbenzene;<em>o</em>-Cresylic acid;1-Methyl-2-hydroxybenzene;NSC 23076;NSC 36809",
    "duplicated_cas_no": "",
    "SMILES": "CC1=C(O)C=CC=C1",
    "meta_data": {
        "InChI": "InChI=1S/C7H8O/c1-6-4-2-3-5-7(6)8/h2-5,8H,1H3",
        "InChIKey": null,
        "Canonical SMILES": "OC=1C=CC=CC1C",
        "Molecular Formula": "C<sub>7</sub>H<sub>8</sub>O",
        "Molecular Mass": "108.14",
        "Boiling Point": "191-192 °C",
        "Melting Point": "30 °C",
        "Density": "1.047 g/cm³ @ Temp: 20 °C"
    }
}