{
    "cas_no": "926-63-6",
    "key_name": "Dimethylpropylamine",
    "cn_name": "N,N-二甲基丙胺;",
    "alternate_name": "1-Propanamine, <em>N</em>,<em>N</em>-dimethyl-;Propylamine, <em>N</em>,<em>N</em>-dimethyl-;<em>N</em>,<em>N</em>-Dimethyl-1-propanamine;Dimethylpropylamine;<em>N</em>,<em>N</em>-Dimethyl-<em>n</em>-propylamine;<em>N</em>,<em>N</em>-Dimethylpropylamine;Propyldimethylamine;Dimethylammonium propane;<em>N</em>,<em>N</em>-Dimethylpropanamine;1-Dimethylaminopropane;Catalyst 706;Katalysator 706",
    "duplicated_cas_no": "",
    "SMILES": "C(N(C)C)CC",
    "meta_data": {
        "InChI": "InChI=1S/C5H13N/c1-4-5-6(2)3/h4-5H2,1-3H3",
        "InChIKey": null,
        "Canonical SMILES": "N(C)(C)CCC",
        "Molecular Formula": "C<sub>5</sub>H<sub>13</sub>N",
        "Molecular Mass": "87.16",
        "Boiling Point": "66 °C",
        "Density": "0.7833 g/cm³ @ Temp: 0 °C"
    }
}