{
    "cas_no": "3439-38-1",
    "key_name": "Ethyltrimethylsilane",
    "cn_name": "乙基三甲基硅烷;",
    "alternate_name": "Silane, ethyltrimethyl-;Ethyltrimethylsilane;Trimethylethylsilane;Trimethylsilylethane;NSC 111643",
    "duplicated_cas_no": "",
    "SMILES": "[Si](CC)(C)(C)C",
    "meta_data": {
        "InChI": "InChI=1S/C5H14Si/c1-5-6(2,3)4/h5H2,1-4H3",
        "InChIKey": null,
        "Canonical SMILES": "CC[Si](C)(C)C",
        "Molecular Formula": "C<sub>5</sub>H<sub>14</sub>Si",
        "Molecular Mass": "102.25",
        "Boiling Point": "62.6-63.4 °C @ Press: 756.4 Torr",
        "Density": "0.6901 g/cm³ @ Temp: 15 °C"
    }
}