{
    "cas_no": "2622-08-4",
    "key_name": "Phosphorous acid, tris(2-methylphenyl) ester",
    "cn_name": "三(2-甲苯)膦;",
    "alternate_name": "Phosphorous acid, tris(2-methylphenyl) ester;Phosphorous acid, tri-<em>o</em>-tolyl ester;<em>o</em>-Tolyl phosphite ((C<sub>7</sub>H<sub>7</sub>O)<sub>3</sub>P);<em>o</em>-Tolyl phosphite;Tri-<em>o</em>-cresyl phosphite;Tris(<em>o</em>-tolyloxy)phosphine;Tris(2-methylphenyl) phosphite;Tri-<em>o</em>-tolyl phosphite;Tris(<em>o</em>-methylphenyl) phosphite;Tris(2-methylphenoxy)phosphine",
    "duplicated_cas_no": "",
    "SMILES": "P(OC1=C(C)C=CC=C1)(OC2=C(C)C=CC=C2)OC3=C(C)C=CC=C3",
    "meta_data": {
        "InChI": "InChI=1S/C21H21O3P/c1-16-10-4-7-13-19(16)22-25(23-20-14-8-5-11-17(20)2)24-21-15-9-6-12-18(21)3/h4-15H,1-3H3",
        "InChIKey": null,
        "Canonical SMILES": "O(C=1C=CC=CC1C)P(OC=2C=CC=CC2C)OC=3C=CC=CC3C",
        "Molecular Formula": "C<sub>21</sub>H<sub>21</sub>O<sub>3</sub>P",
        "Molecular Mass": "352.36",
        "Boiling Point": "248 °C @ Press: 11 Torr",
        "Density": "1.1423 g/cm³ @ Temp: 20 °C"
    }
}