{
    "cas_no": "13993-31-2",
    "key_name": "5-Bromo-1<em>H</em>-indole-3-butanoic acid",
    "cn_name": null,
    "alternate_name": "1<em>H</em>-Indole-3-butanoic acid, 5-bromo-;Indole-3-butyric acid, 5-bromo-;5-Bromo-1<em>H</em>-indole-3-butanoic acid",
    "duplicated_cas_no": "",
    "SMILES": "C(CCC(O)=O)C=1C=2C(NC1)=CC=C(Br)C2",
    "meta_data": {
        "InChI": "InChI=1S/C12H12BrNO2/c13-9-4-5-11-10(6-9)8(7-14-11)2-1-3-12(15)16/h4-7,14H,1-3H2,(H,15,16)",
        "InChIKey": null,
        "Canonical SMILES": "O=C(O)CCCC1=CNC=2C=CC(Br)=CC21",
        "Molecular Formula": "C<sub>12</sub>H<sub>12</sub>BrNO<sub>2</sub>",
        "Molecular Mass": "282.13",
        "Melting Point": "143 °C"
    }
}