{
    "cas_no": "298-57-7",
    "key_name": "Cinnarizine",
    "cn_name": "桂利嗪;脑益嗪;肉桂苯哌嗪;1-二苯甲基-4-(3-苯基-2-丙烯基)哌嗪;",
    "alternate_name": "Piperazine, 1-(diphenylmethyl)-4-(3-phenyl-2-propen-1-yl)-;Piperazine, 1-cinnamyl-4-(diphenylmethyl)-;Piperazine, 1-(diphenylmethyl)-4-(3-phenyl-2-propenyl)-;1-(Diphenylmethyl)-4-(3-phenyl-2-propen-1-yl)piperazine;R 516;R 1575;<em>N</em>-Benzhydryl-<em>N</em>′-cinnamylpiperazine;1-Cinnamyl-4-(diphenylmethyl)piperazine;Cinnarizine;Dimitronal;1-Diphenylmethyl-4-cinnamoylpiperazine;Marisan;Midronal;Mitronal;Stugeron;Glanil;Labyrin;Dimitron;Stutgeron;Stutgin;Toliman;Folcodal;Sepan;1-Benzhydryl-4-cinnamylpiperazine;Lazeta;1-Cinnamyl-4-benzhydrylpiperazine;1-(3-Phenylallyl)-4-(diphenylmethyl)piperazine;Artate;Cinazyn;Apotomin;Corathiem;Cinaperazine;Katoseran;Giganten;Cerepar;Spaderizine;Cinnageron;Cerebolan;Hilactan;Cinnipirine;Denapol;Eglen;Carecin;Cinnacet;Sedatromin;Ixterol;Siptazin;Aplactan;Olamin;516MD;Processine;Aplexal;Cinarizine;Vergo;Stunarone;MeSH ID: D002936",
    "duplicated_cas_no": "",
    "SMILES": "C(N1CCN(CC=CC2=CC=CC=C2)CC1)(C3=CC=CC=C3)C4=CC=CC=C4",
    "meta_data": {
        "InChI": "InChI=1S/C26H28N2/c1-4-11-23(12-5-1)13-10-18-27-19-21-28(22-20-27)26(24-14-6-2-7-15-24)25-16-8-3-9-17-25/h1-17,26H,18-22H2",
        "InChIKey": null,
        "Canonical SMILES": "C=1C=CC(=CC1)C=CCN2CCN(CC2)C(C=3C=CC=CC3)C=4C=CC=CC4",
        "Molecular Formula": "C<sub>26</sub>H<sub>28</sub>N<sub>2</sub>",
        "Molecular Mass": "368.51",
        "Melting Point": "120.2 °C",
        "Density": "1.13 g/cm³"
    }
}