{
    "cas_no": "7791-11-9",
    "key_name": "Rubidium chloride (RbCl)",
    "cn_name": "氯化铷;",
    "alternate_name": "Rubidium chloride (RbCl);Rubidium chloride;Rubidium monochloride;NSC 84273",
    "duplicated_cas_no": "12265-61-1;59217-70-8;2018280-09-4",
    "SMILES": "Cl[Rb]",
    "meta_data": {
        "InChI": "InChI=1S/ClH.Rb/h1H;/q;+1/p-1",
        "InChIKey": null,
        "Canonical SMILES": "Cl[Rb]",
        "Molecular Formula": "ClRb",
        "Molecular Mass": "",
        "Melting Point": "726 °C",
        "Density": "2.803 g/cm³ @ Temp: 25 °C"
    }
}