{
    "cas_no": "62356-27-8",
    "key_name": "2-Bromo-6-chlorotoluene",
    "cn_name": "2-溴-6-氯甲苯;",
    "alternate_name": "Benzene, 1-bromo-3-chloro-2-methyl-;Toluene, 2-bromo-6-chloro-;1-Bromo-3-chloro-2-methylbenzene;2-Bromo-6-chlorotoluene;2-Chloro-6-bromotoluene",
    "duplicated_cas_no": "",
    "SMILES": "CC1=C(Br)C=CC=C1Cl",
    "meta_data": {
        "InChI": "InChI=1S/C7H6BrCl/c1-5-6(8)3-2-4-7(5)9/h2-4H,1H3",
        "InChIKey": null,
        "Canonical SMILES": "ClC1=CC=CC(Br)=C1C",
        "Molecular Formula": "C<sub>7</sub>H<sub>6</sub>BrCl",
        "Molecular Mass": "205.48",
        "Boiling Point": "60 °C @ Press: 3 Torr",
        "Density": "1.5720 g/cm³ @ Temp: 25 °C"
    }
}