{
    "cas_no": "305-85-1",
    "key_name": "2,6-Diiodo-4-nitrophenol",
    "cn_name": "2,6-二碘-4-硝基苯酚;",
    "alternate_name": "Phenol, 2,6-diiodo-4-nitro-;2,6-Diiodo-4-nitrophenol;Disophenol;DNP;Syngamix;Ancylol;Disofen;Iodofen;4-Nitro-2,6-diiodophenol;Iodophen",
    "duplicated_cas_no": "8026-93-5",
    "SMILES": "N(=O)(=O)C1=CC(I)=C(O)C(I)=C1",
    "meta_data": {
        "InChI": "InChI=1S/C6H3I2NO3/c7-4-1-3(9(11)12)2-5(8)6(4)10/h1-2,10H",
        "InChIKey": null,
        "Canonical SMILES": "O=N(=O)C1=CC(I)=C(O)C(I)=C1",
        "Molecular Formula": "C<sub>6</sub>H<sub>3</sub>I<sub>2</sub>NO<sub>3</sub>",
        "Molecular Mass": "390.90",
        "Melting Point": "157 °C"
    }
}