{
    "cas_no": "14109-72-9",
    "key_name": "1-(Methylthio)-2-propanone",
    "cn_name": "1-甲基硫代-2-丙酮;(甲硫基)丙酮;1-甲硫基丙酮;1-甲基硫代-2-丙酮;",
    "alternate_name": "2-Propanone, 1-(methylthio)-;2-Propanone, (methylthio)-;1-(Methylthio)-2-propanone;(Methylthio)acetone;α-(Methylthio)propanone;2-Thia-4-pentanone;α-(Methylthio)acetone;Acetonyl methyl sulfide;1-Methylsulfanylpropan-2-one;1-(Methylsulfanyl)acetone",
    "duplicated_cas_no": "",
    "SMILES": "C(C(C)=O)SC",
    "meta_data": {
        "InChI": "InChI=1S/C4H8OS/c1-4(5)3-6-2/h3H2,1-2H3",
        "InChIKey": null,
        "Canonical SMILES": "O=C(C)CSC",
        "Molecular Formula": "C<sub>4</sub>H<sub>8</sub>OS",
        "Molecular Mass": "104.17",
        "Boiling Point": "152.5-153 °C @ Press: 760 Torr"
    }
}