{
    "cas_no": "133-14-2",
    "key_name": "2,4-Dichlorobenzoyl peroxide",
    "cn_name": "过氧化二(2,4-二氯苯甲酰);双(2,4-二氯苯甲酰)过氧化物;2,4-二氯过氧化苯甲酰;",
    "alternate_name": "Peroxide, bis(2,4-dichlorobenzoyl);Bis(2,4-dichlorobenzoyl) peroxide;Cadox TS 50;2,4-Dichlorobenzoyl peroxide;<em>o</em>,<em>o</em>′,<em>p</em>,<em>p</em>′-Tetrachlorodibenzoyl peroxide;Siloprene CL 40;Cadox TS;Luperco CST;Cadox TDP;DCBP;TC 2 (peroxide);TC 2;C 2;C 2 (crosslinking agent);Chaloxyd DCLBP 50PSI;Perkadox PD 50S;DCLBP 50PSI;Elastosil AUX Crosslinker E;2,4-Dichlorobibenzoyl peroxide;Elastosil AUX-E;Varox DCBP 50;Perkadox PD 50S-PS;Di(2,4-dichlorobenzoyl)peroxide;2,4-Dichlorobenzoyl 2,4-dichlorobenzene-1-carboperoxoate;CMJ 898;Xiameter RBM 9020;Noviper DB 50",
    "duplicated_cas_no": "88161-11-9;1426820-13-4;1802153-06-5",
    "SMILES": "C(OOC(=O)C1=C(Cl)C=C(Cl)C=C1)(=O)C2=C(Cl)C=C(Cl)C=C2",
    "meta_data": {
        "InChI": "InChI=1S/C14H6Cl4O4/c15-7-1-3-9(11(17)5-7)13(19)21-22-14(20)10-4-2-8(16)6-12(10)18/h1-6H",
        "InChIKey": null,
        "Canonical SMILES": "O=C(OOC(=O)C1=CC=C(Cl)C=C1Cl)C2=CC=C(Cl)C=C2Cl",
        "Molecular Formula": "C<sub>14</sub>H<sub>6</sub>Cl<sub>4</sub>O<sub>4</sub>",
        "Molecular Mass": "380.01",
        "Melting Point": "106 °C",
        "Density": "1.260 g/cm³"
    }
}