{
    "cas_no": "2226-96-2",
    "key_name": "Tempol",
    "cn_name": "4-羟基-2,2,6,6-四甲基哌啶-1-氧自由基;氮氧自由基哌啶醇;阻聚剂701;",
    "alternate_name": "1-Piperidinyloxy, 4-hydroxy-2,2,6,6-tetramethyl-;Piperidinooxy, 4-hydroxy-2,2,6,6-tetramethyl-;4-Hydroxy-2,2,6,6-tetramethyl-1-piperidinyloxy;4-Hydroxy-2,2,6,6-tetramethylpiperidinooxy;Tetramethyl-2,2,6,6-aza-1-cyclohexanol-4-oxide-1;2,2,6,6-Tetramethyl-4-piperidinol 1-oxide;2,2,6,6-Tetramethyl-4-hydroxypiperidinooxy radical;2,2,6,6-Tetramethyl-4-hydroxypiperidinooxy;2,2,6,6-Tetramethyl-4-hydroxypiperidine-1-oxyl;Tanol;2,2,6,6-Tetramethyl-4-piperidinol <em>N</em>-oxyl;2,2,6,6-Tetramethyl-4-hydroxypiperidine 1-oxide radical;2,2,6,6-Tetramethyl-4-hydroxypiperidine-1-hydroxyl;2,2,6,6-Tetramethyl-4-hydroxypiperidin-1-oxyl;2,2,6,6-Tetramethyl-4-piperidinol 1-oxyl;4-Hydroxy-2,2,6,6-tetramethylpiperidinooxy radical;2,2,6,6-Tetramethyl-4-piperidinol nitroxide;2,2,6,6-Tetramethyl-4-hydroxypiperidyl 1-oxyl;2,2,6,6-Tetramethyl-4-piperidinol-1-oxy;4-Hydroxy-2,2,6,6-tetramethylpiperidine <em>N</em>-oxide;4-Hydroxy-2,2,6,6-tetramethylpiperidine-1-oxyl;2,2,6,6-Tetramethyl-4-oxypiperidine-1-oxyl;4-Hydroxy-2,2,6,6-tetramethyl-1-piperidinoxyl;Tempol;2,2,6,6-Tetramethylpiperidine-<em>N</em>-oxyl-4-ol;4-Oxypiperidol;2,2,6,6-Tetramethyl-4-piperidinol-1-oxyl radical;2,2,6,6-Tetramethyl-1-oxy-4-hydroxypiperidine;TMPN;4-Hydroxy-2,2,6,6-tetramethylpiperidyl-1-oxyl;4-Hydroxy-2,2,6,6-tetramethylpiperidinoxy;4-Hydroxy-2,2,6,6-tetramethylpiperidinoxyl;1-Oxyl-2,2,6,6-tetramethyl-4-piperidinol;2,2,6,6-Tetramethylpiperidinol-4-oxyl-1;4-Hydroxy-2,2,6,6-tetramethylpiperidine-<em>N</em>-oxy;4-Hydroxy-2,2,6,6-tetramethylpiperidinyl-<em>N</em>-oxy;4-Hydroxy-2,2,6,6-tetramethylpiperidine-<em>N</em>-oxyl;2,2,6,6-Tetramethyl-4-hydroxypiperidinyl-1-oxyl;2,2,6,6-Tetramethyl-4-hydroxylpiperidine-1-oxyl;2,2,6,6-Tetramethyl-4-hydroxypiperidine-1-oxyl radical;NR I (4-Hydroxy-TEMPO);4-Hydroxy-2,2,6,6-tetramethylpiperidino-1-oxyl;4-Hydroxy-2,2,6,6-tetramethylpiperidinyl-1-oxyl;2,2,6,6-Tetramethyl-4-hydroxypiperidinyloxyl radical;Nitroxyl 2;4-Hydroxy-2,2,6,6-tetramethylpiperidinyl-<em>N</em>-oxyl;2,2,6,6-Tetramethyl-4-hydroxypiperidinyloxy radical;2,2,6,6-Tetramethyl-4-hydroxypiperidinyl-1-oxy;2,2,6,6-Tetramethyl-4-hydroxy-1-piperidinyloxy radical;4-Hydroxy-2,2,6,6-tetramethyl-1-piperidinoxy;HyTEMPO;Tempo OH;HTEMPO;4-hydroxy-TEMPO;1-Oxyl-2,2,6,6-tetramethyl-4-hydroxypiperidine;4-Hydroxy-2,2,6,6-tetramethylpiperidine 1-oxide radical;4H-Tempo;2,2,6,6-Tetramethylpiperidine-4-hydroxy-1-oxyl;2,2,6,6-Tetramethyl-4-hydroxypiperidine oxide;4-Hydroxy-1-oxyl-2,2,6,6-tetramethylpiperidine;HOTEMPO;2,2,6,6-Tetramethyl-4-hydroxypiperidine <em>N</em>-oxide;4-Hydroxy-2,2,6,6-tetramethylpiperidine oxide;LA 7RD;4-Hydroxy-2,2,6,6-tetramethylpiperidinyloxyl;4-Hydroxy-2,2,6,6-tetramethylpiperidinyloxy;Petroflo 20Y104;ADK Stab LA 7RD;Prostab 5198;Polystop 7300P;Tempole;ZJ 701;ADK Stab NA 7RD;SPJ 701;ZJ 01;4-HO-TEMPO;4-Hydroxy-2,2,6,6-tetramethyl-1-piperidinyloxy radical;4-OH-Tempo;Polystop 7010;701;Polystast 7200P;H 0865;4-Hydroxy-2,2,6,6-tetramethylpiperidinyl-1-oxy;Lignostab 1198L;Adeka Stab 7RD;Polymerization inhibitor 701",
    "duplicated_cas_no": "3174-32-1;13075-58-6;38854-37-4;68541-96-8;70939-25-2;105269-77-0;119227-61-1;900145-52-0;908588-62-5;1292766-63-2",
    "SMILES": "",
    "meta_data": {
        "InChI": "",
        "InChIKey": null,
        "Canonical SMILES": "",
        "Molecular Formula": "C<sub>9</sub>H<sub>18</sub>NO<sub>2</sub>",
        "Molecular Mass": "",
        "Melting Point": "70.5 °C"
    }
}