{
    "cas_no": "21087-64-9",
    "key_name": "Metribuzin",
    "cn_name": "嗪草酮;4-氨基-6-叔丁基-4,5-二氢-3-甲硫基-1,2,4-三嗪-5(4H)-酮;",
    "alternate_name": "1,2,4-Triazin-5(4<em>H</em>)-one, 4-amino-6-(1,1-dimethylethyl)-3-(methylthio)-;<em>as</em>-Triazin-5(4<em>H</em>)-one, 4-amino-6-<em>tert</em>-butyl-3-(methylthio)-;4-Amino-6-(1,1-dimethylethyl)-3-(methylthio)-1,2,4-triazin-5(4<em>H</em>)-one;4-Amino-6-<em>tert</em>-butyl-3-(methylthio)-<em>as</em>-triazin-5(4<em>H</em>)-one;BAY 94337;4-Amino-6-<em>tert</em>-butyl-3-(methylthio)-1,2,4-triazin-5-one;Sencor;Metribuzin;BAY 61597;4-Amino-6-<em>tert</em>-butyl-3-(methylthio)-1,2,4-triazin-5(4<em>H</em>)-one;4-Amino-6-<em>tert</em>-butyl-3-(methylthio)-4,5-dihydro-1,2,4-triazin-5-one;Bayer 6159;Sencorex;BAY 6159H;BAY 6159;Lexone;4-Amino-6-<em>tert</em>-butyl-3-(methylthio)-1,2,4-triazine-5(4<em>H</em>)-one;3-Methylthio-4-amino-6-<em>tert</em>-butyl-1,2,4-triazin-5-one;3-Methylthio-4-amino-6-<em>tert</em>-butyl-1,2,4-triazin-5(4<em>H</em>)-one;Sencorex L.F.;Sencor 4F;Sencor 75DF;Lexone DF;Metribuzine;Senkor;DPX 2504;Zontran;DIC 1468;4-Amino-6-<em>tert</em>-butyl-4,5-dihydro-3-methylthio-1,2,4-triazin-5-one;Sencor 480;Soccer;Soccer (herbicide);Tribute;Tribute (metribuzin herbicide);Sencor Extra;Sencor 70 WG;Sencor SC;Qincaotong;Metribuzin 70 WP;Dimetric Liquid;Lazurit Super",
    "duplicated_cas_no": "",
    "SMILES": "C(C)(C)(C)C=1C(=O)N(N)C(SC)=NN1",
    "meta_data": {
        "InChI": "InChI=1S/C8H14N4OS/c1-8(2,3)5-6(13)12(9)7(14-4)11-10-5/h9H2,1-4H3",
        "InChIKey": null,
        "Canonical SMILES": "O=C1C(=NN=C(SC)N1N)C(C)(C)C",
        "Molecular Formula": "C<sub>8</sub>H<sub>14</sub>N<sub>4</sub>OS",
        "Molecular Mass": "214.29",
        "Boiling Point": "132 °C @ Press: 0.02 Torr",
        "Melting Point": "126.2 °C",
        "Density": "1.28 g/cm³ @ Temp: 20 °C"
    }
}