{
    "cas_no": "355-74-8",
    "key_name": "2,2,3,3,4,4,5,5-Octafluoro-1,6-hexanediol",
    "cn_name": "2,2,3,3,4,4,5,5-八氟-1,6-己烷二醇;八氟-1，6-己二醇;2,2,3,3,4,4,5,5-八氟-1,6-己烷二醇;",
    "alternate_name": "1,6-Hexanediol, 2,2,3,3,4,4,5,5-octafluoro-;2,2,3,3,4,4,5,5-Octafluoro-1,6-hexanediol;1,6-Dihydroxy-2,2,3,3,4,4,5,5-octafluorohexane;2,2,3,3,4,4,5,5-Octafluorohexanediol;A 7412;C 6DI0L;1<em>H</em>,1<em>H</em>,6<em>H</em>,6<em>H</em>-Perfluorohexane-1,6-diol",
    "duplicated_cas_no": "",
    "SMILES": "C(C(C(CO)(F)F)(F)F)(C(CO)(F)F)(F)F",
    "meta_data": {
        "InChI": "InChI=1S/C6H6F8O2/c7-3(8,1-15)5(11,12)6(13,14)4(9,10)2-16/h15-16H,1-2H2",
        "InChIKey": null,
        "Canonical SMILES": "FC(F)(CO)C(F)(F)C(F)(F)C(F)(F)CO",
        "Molecular Formula": "C<sub>6</sub>H<sub>6</sub>F<sub>8</sub>O<sub>2</sub>",
        "Molecular Mass": "262.10",
        "Boiling Point": "118-120 °C @ Press: 11 Torr",
        "Melting Point": "68 °C"
    }
}