{
    "cas_no": "76135-31-4",
    "key_name": "1-Naphthalenol, 7-(dipropylamino)-5,6,7,8-tetrahydro-, hydrobromide (1:1)",
    "cn_name": null,
    "alternate_name": "1-Naphthalenol, 7-(dipropylamino)-5,6,7,8-tetrahydro-, hydrobromide (1:1);1-Naphthalenol, 7-(dipropylamino)-5,6,7,8-tetrahydro-, hydrobromide;8-Hydroxy(<em>N</em>,<em>N</em>-dipropyl-2-amino)tetralin hydrobromide;(±)-8-OH-DPAT-HBr;8-Hydroxy-2-dipropylaminotetralin hydrobromide;2-Dipropylamino-8-hydroxy-1,2,3,4-tetrahydronaphthalene hydrobromide;8-Hydroxy-DPAT hydrobromide;ETI 385",
    "duplicated_cas_no": "139540-53-7;87394-87-4",
    "SMILES": "OC1=C2C(CCC(N(CCC)CCC)C2)=CC=C1.Br",
    "meta_data": {
        "InChI": "InChI=1S/C16H25NO.BrH/c1-3-10-17(11-4-2)14-9-8-13-6-5-7-16(18)15(13)12-14;/h5-7,14,18H,3-4,8-12H2,1-2H3;1H",
        "InChIKey": null,
        "Canonical SMILES": "Br.OC1=CC=CC2=C1CC(N(CCC)CCC)CC2",
        "Molecular Formula": "C<sub>16</sub>H<sub>25</sub>NO.BrH",
        "Molecular Mass": "",
        "Melting Point": "221.5-222.0 °C"
    }
}