{
    "cas_no": "1569-02-4",
    "key_name": "1-Ethoxy-2-propanol",
    "cn_name": "1-乙氧基-2-丙醇;2-羟丙基乙醚;丙二醇单乙醚;",
    "alternate_name": "2-Propanol, 1-ethoxy-;1-Ethoxy-2-propanol;NSC 2404;Ethyl Proxitol",
    "duplicated_cas_no": "1331-13-1",
    "SMILES": "C(C(C)O)OCC",
    "meta_data": {
        "InChI": "InChI=1S/C5H12O2/c1-3-7-4-5(2)6/h5-6H,3-4H2,1-2H3",
        "InChIKey": null,
        "Canonical SMILES": "OC(C)COCC",
        "Molecular Formula": "C<sub>5</sub>H<sub>12</sub>O<sub>2</sub>",
        "Molecular Mass": "104.15",
        "Boiling Point": "131 °C",
        "Density": "0.9028 g/cm³ @ Temp: 20 °C"
    }
}