{
    "cas_no": "94576-68-8",
    "key_name": "1-[1,1′-Biphenyl]-4-yl-2-methyl-2-(4-morpholinyl)-1-propanone",
    "cn_name": null,
    "alternate_name": "1-Propanone, 1-[1,1′-biphenyl]-4-yl-2-methyl-2-(4-morpholinyl)-;Propiophenone, 2-methyl-2-morpholino-4′-phenyl-;1-[1,1′-Biphenyl]-4-yl-2-methyl-2-(4-morpholinyl)-1-propanone;API 307;1-Biphenyl-4-yl-2-methyl-2-morpholin-4-yl-propan-1-one;1-([1,1′-Biphenyl]-4-yl)-2-methyl-2-morpholinopropan-1-one",
    "duplicated_cas_no": "",
    "SMILES": "C(C(=O)C1=CC=C(C=C1)C2=CC=CC=C2)(C)(C)N3CCOCC3",
    "meta_data": {
        "InChI": "InChI=1S/C20H23NO2/c1-20(2,21-12-14-23-15-13-21)19(22)18-10-8-17(9-11-18)16-6-4-3-5-7-16/h3-11H,12-15H2,1-2H3",
        "InChIKey": null,
        "Canonical SMILES": "O=C(C=1C=CC(=CC1)C=2C=CC=CC2)C(N3CCOCC3)(C)C",
        "Molecular Formula": "C<sub>20</sub>H<sub>23</sub>NO<sub>2</sub>",
        "Molecular Mass": "309.40",
        "Melting Point": "120-123 °C"
    }
}