{
    "cas_no": "61-90-5",
    "key_name": "<span class=\"text-smallcaps\">L</span>-Leucine",
    "cn_name": "L-亮氨酸;L-2-氨基-4-甲基戊酸;",
    "alternate_name": "<span class=\"text-smallcaps\">L</span>-Leucine;Leucine, <span class=\"text-smallcaps\">L</span>-;Leucine;Pentanoic acid, 2-amino-4-methyl-, (<em>S</em>)-;Leu;(<em>S</em>)-2-Amino-4-methylvaleric acid;(<em>S</em>)-(+)-Leucine;(<em>S</em>)-2-Amino-4-methylpentanoic acid;(<em>S</em>)-Leucine;<span class=\"text-smallcaps\">L</span>-α-Aminoisocaproic acid;<span class=\"text-smallcaps\">L</span>-(+)-Leucine;<span class=\"text-smallcaps\">L</span>-Norvaline, 4-methyl-;NSC 46709;(2<em>S</em>)-2-Amino-4-methylpentanoic acid;<span class=\"text-smallcaps\">L</span>-2-Amino-4-methylpentanoic acid;(2S)-2-Amino-4-methylpentanoic acid;1: PN: WO2020097235 SEQID: 238 claimed sequence;17: PN: WO2021055880 SEQID: 18 claimed protein;13: PN: US20210324027 SEQID: 13 claimed sequence;85: PN: WO2021211467 SEQID: 238 claimed sequence;522: PN: WO2022056313 SEQID: 538 claimed protein;367: PN: US20220128567 SEQID: 538 claimed protein;367: PN: US20220178935 SEQID: 538 claimed protein;MeSH ID: D007930;536: PN: WO2023172654 SEQID: 538 claimed sequence",
    "duplicated_cas_no": "7005-03-0",
    "SMILES": "[C@H](CC(C)C)(C(O)=O)N",
    "meta_data": {
        "InChI": "InChI=1S/C6H13NO2/c1-4(2)3-5(7)6(8)9/h4-5H,3,7H2,1-2H3,(H,8,9)/t5-/m0/s1",
        "InChIKey": null,
        "Canonical SMILES": "O=C(O)C(N)CC(C)C",
        "Molecular Formula": "C<sub>6</sub>H<sub>13</sub>NO<sub>2</sub>",
        "Molecular Mass": "131.17",
        "Boiling Point": "122-134 °C @ Press: 2-3 Torr",
        "Melting Point": "293 °C",
        "Density": "1.14 g/cm³"
    }
}