{
    "cas_no": "110956-75-7",
    "key_name": "Pentoxazone",
    "cn_name": "环戊恶草酮;",
    "alternate_name": "2,4-Oxazolidinedione, 3-[4-chloro-5-(cyclopentyloxy)-2-fluorophenyl]-5-(1-methylethylidene)-;3-[4-Chloro-5-(cyclopentyloxy)-2-fluorophenyl]-5-(1-methylethylidene)-2,4-oxazolidinedione;BW 4;Pentoxazone;KPP 314;Wechser",
    "duplicated_cas_no": "152832-31-0;176634-11-0",
    "SMILES": "FC=1C(=CC(OC2CCCC2)=C(Cl)C1)N3C(=O)C(=C(C)C)OC3=O",
    "meta_data": {
        "InChI": "InChI=1S/C17H17ClFNO4/c1-9(2)15-16(21)20(17(22)24-15)13-8-14(11(18)7-12(13)19)23-10-5-3-4-6-10/h7-8,10H,3-6H2,1-2H3",
        "InChIKey": null,
        "Canonical SMILES": "O=C1OC(C(=O)N1C=2C=C(OC3CCCC3)C(Cl)=CC2F)=C(C)C",
        "Molecular Formula": "C<sub>17</sub>H<sub>17</sub>ClFNO<sub>4</sub>",
        "Molecular Mass": "353.77",
        "Melting Point": "104 °C"
    }
}