{
    "cas_no": "3030-47-5",
    "key_name": "Pentamethyldiethylenetriamine",
    "cn_name": "五甲基二乙烯三胺;N,N,N,N,N-五甲基二亚乙基三胺;",
    "alternate_name": "1,2-Ethanediamine, <em>N</em><sup>1</sup>-[2-(dimethylamino)ethyl]-<em>N</em><sup>1</sup>,<em>N</em><sup>2</sup>,<em>N</em><sup>2</sup>-trimethyl-;Diethylenetriamine, 1,1,4,7,7-pentamethyl-;1,2-Ethanediamine, <em>N</em>-[2-(dimethylamino)ethyl]-<em>N</em>,<em>N</em>′,<em>N</em>′-trimethyl-;<em>N</em><sup>1</sup>-[2-(Dimethylamino)ethyl]-<em>N</em><sup>1</sup>,<em>N</em><sup>2</sup>,<em>N</em><sup>2</sup>-trimethyl-1,2-ethanediamine;Pentamethyldiethylenetriamine;<em>N</em>,<em>N</em>,<em>N</em>′,<em>N</em>′′,<em>N</em>′′-Pentamethyldiethylenetriamine;PMDT;1,1,4,7,7-Pentamethyldiethylenetriamine;<em>N</em>,<em>N</em>,<em>N</em>′,<em>N</em>′,<em>N</em>′′-Pentamethylbis(2-aminoethyl)amine;PMDTA;PMDETA;Bis[2-(dimethylamino)ethyl]methylamine;<em>N</em>,<em>N</em>-Bis[2-(dimethylamino)ethyl]methylamine;2,5,8-Trimethyl-2,5,8-triazanonane;Toyocat DT;Polycat 5;<em>N</em>,<em>N</em>,<em>N</em>′,<em>N</em>′′,<em>N</em>′′-Pentamethyl-3-azapentane-1,5-diamine;Kaolizer 3;1,1,4,7,7-Pentamethyl-1,4,7-triazaheptane;PC CAT PMDETA;Desmorapid PV;<em>N</em>,<em>N</em>,<em>N</em>′,N′′,N′′-Pentamethyldiethylenetriamine;<em>N</em>,<em>N</em>,<em>N</em>′,<em>N</em>′′,<em>N</em>′′-Pentamethylbis(2-aminoethyl)amine;<em>N</em>-[2-(Dimethylamino)ethyl]-<em>N</em>,<em>N</em>′,<em>N</em>′-trimethyl-1,2-ethanediamine;Dabco PMDETA;NSC 65659;<em>N</em>-Methyl-<em>N</em>,<em>N</em>-bis(2-dimethylaminoethyl)amine;PC 5;Lupragen N 301;N 301;Jeffcat PMDETA;Niax C 5;Kao 3;<em>N</em>,<em>N</em>-Bis(2-dimethylaminoethyl)methanamine;Niax Catalyst C 5;Tegoamin PMDETA;KL 3;DY 5;AM 1;(2-[[2-(Dimethylamino)ethyl](methyl)amino]ethyl)dimethylamine;N1,N1,N3,N5,N5-Pentamethyl-3-azapentane-1,5-diamine;Wanamine PMDETA",
    "duplicated_cas_no": "106494-67-1;75831-40-2;157732-35-9;223785-87-3",
    "SMILES": "N(CCN(C)C)(CCN(C)C)C",
    "meta_data": {
        "InChI": "InChI=1S/C9H23N3/c1-10(2)6-8-12(5)9-7-11(3)4/h6-9H2,1-5H3",
        "InChIKey": null,
        "Canonical SMILES": "N(C)(C)CCN(C)CCN(C)C",
        "Molecular Formula": "C<sub>9</sub>H<sub>23</sub>N<sub>3</sub>",
        "Molecular Mass": "173.30",
        "Boiling Point": "85-86 °C @ Press: 12 Torr",
        "Melting Point": "162-163 °C"
    }
}