{
    "cas_no": "195062-61-4",
    "key_name": "4-Chlorophenylboronic acid pinacol ester",
    "cn_name": "4-(4,4,5,5-四甲基-1,3,2-二氧杂硼烷-2-基)氯苯;",
    "alternate_name": "1,3,2-Dioxaborolane, 2-(4-chlorophenyl)-4,4,5,5-tetramethyl-;2-(4-Chlorophenyl)-4,4,5,5-tetramethyl-1,3,2-dioxaborolane;4-Chlorophenylboronic acid pinacol ester;Pinacol (4-chlorophenyl)boronate;4-Chlorophenyl(pinacolato)borane",
    "duplicated_cas_no": "",
    "SMILES": "CC1(C)OB(OC1(C)C)C2=CC=C(Cl)C=C2",
    "meta_data": {
        "InChI": "InChI=1S/C12H16BClO2/c1-11(2)12(3,4)16-13(15-11)9-5-7-10(14)8-6-9/h5-8H,1-4H3",
        "InChIKey": null,
        "Canonical SMILES": "ClC1=CC=C(C=C1)B2OC(C)(C)C(O2)(C)C",
        "Molecular Formula": "C<sub>12</sub>H<sub>16</sub>BClO<sub>2</sub>",
        "Molecular Mass": "238.52",
        "Melting Point": "36-38 °C"
    }
}