{
    "cas_no": "18264-71-6",
    "key_name": "2,2′-Dinitrodiphenylamine",
    "cn_name": "2,2\"-二硝基二苯胺;",
    "alternate_name": "Benzenamine, 2-nitro-<em>N</em>-(2-nitrophenyl)-;Diphenylamine, 2,2′-dinitro-;2-Nitro-<em>N</em>-(2-nitrophenyl)benzenamine;2,2′-Dinitrodiphenylamine;Bis(2-nitrophenyl)amine;2,2′-Dinitrophenylamine;NSC 68781;2-Nitro-<em>N</em>-(2-nitrophenyl)aniline",
    "duplicated_cas_no": "",
    "SMILES": "N(C1=C(N(=O)=O)C=CC=C1)C2=C(N(=O)=O)C=CC=C2",
    "meta_data": {
        "InChI": "InChI=1S/C12H9N3O4/c16-14(17)11-7-3-1-5-9(11)13-10-6-2-4-8-12(10)15(18)19/h1-8,13H",
        "InChIKey": null,
        "Canonical SMILES": "O=N(=O)C=1C=CC=CC1NC=2C=CC=CC2N(=O)=O",
        "Molecular Formula": "C<sub>12</sub>H<sub>9</sub>N<sub>3</sub>O<sub>4</sub>",
        "Molecular Mass": "259.22",
        "Melting Point": "162-165 °C"
    }
}