{
    "cas_no": "12079-65-1",
    "key_name": "Tricarbonyl(η<sup>5</sup>-cyclopentadienyl)manganese",
    "cn_name": "三羰基(η-环戊二烯基)合锰;三羰基环戊二烯锰;三羰基环戊二烯基锰;",
    "alternate_name": "Manganese, tricarbonyl(η<sup>5</sup>-2,4-cyclopentadien-1-yl)-;Manganese, tricarbonyl-π-cyclopentadienyl-;Cyclopentadienylmanganese tricarbonyl;Tricarbonyl(η<sup>5</sup>-2,4-cyclopentadien-1-yl)manganese;Cyclopentadienyltricarbonylmanganese;Cymantrene;Tricarbonyl-π-cyclopentadienylmanganese;π-Cyclopentadienylmanganese tricarbonyl;Manganese cyclopentadienyltricarbonyl;Tricarbonylcyclopentadienylmanganese;Tricarbonyl(η<sup>5</sup>-cyclopentadienyl)manganese;Cyclopentadienyl-π-tricarbonylmanganese;η<sup>5</sup>-Cyclopentadienylmanganese tricarbonyl;Cyclopentadiene tricarbonyl manganese;CpMn(CO)<sub>3</sub>",
    "duplicated_cas_no": "",
    "SMILES": "C(#O)[Mn+]1234(C#O)(C#O)[CH-]5[CH]1=[CH]2[CH]3=[CH]45",
    "meta_data": {
        "InChI": "InChI=1S/C5H5.3CO.Mn/c1-2-4-5-3-1;3*1-2;/h1-5H;;;;/q-1;;;;+1",
        "InChIKey": null,
        "Canonical SMILES": "O#C[Mn+]1234(C#O)(C#O)[CH]=5[CH]4=[CH]3[CH-]2[CH]51",
        "Molecular Formula": "C<sub>8</sub>H<sub>5</sub>MnO<sub>3</sub>",
        "Molecular Mass": "",
        "Melting Point": "75 °C"
    }
}