{
    "cas_no": "7328-17-8",
    "key_name": "2-(2-Ethoxyethoxy)ethyl acrylate",
    "cn_name": null,
    "alternate_name": "2-Propenoic acid, 2-(2-ethoxyethoxy)ethyl ester;Acrylic acid, 2-(2-ethoxyethoxy)ethyl ester;Ethanol, 2-(2-ethoxyethoxy)-, acrylate;2-(2-Ethoxyethoxy)ethyl acrylate;Carbitol acrylate;Diethylene glycol ethyl ether acrylate;RC 20;Reactomer RC 20;Ethylcarbitol acrylate;SR 256;R 672;Viscoat 190;Light Acrylate EC-A;Sartomer 256;Sartomer SR 256;SR 2564;IRR 184;Miramer M 170;V 190;Miramer 170;EC-A;Ethoxy(diethylene glycol) acrylate;SR 2562;Diethylene glycol acrylate ethyl ether;Ethyl diglycol acrylate;M 170;AgiSyn 2880;2-(2-Ethoxyethoxy)ethyl prop-2-enoate;JCM 102E;EOEOEA",
    "duplicated_cas_no": "82116-25-4;93615-52-2;102484-00-4;1254182-72-3;1413135-07-5;1440536-18-4",
    "SMILES": "O(CCOCCOCC)C(C=C)=O",
    "meta_data": {
        "InChI": "InChI=1S/C9H16O4/c1-3-9(10)13-8-7-12-6-5-11-4-2/h3H,1,4-8H2,2H3",
        "InChIKey": null,
        "Canonical SMILES": "O=C(OCCOCCOCC)C=C",
        "Molecular Formula": "C<sub>9</sub>H<sub>16</sub>O<sub>4</sub>",
        "Molecular Mass": "188.22",
        "Boiling Point": "95 °C @ Press: 4.8 Torr",
        "Density": "1.0184 g/cm³ @ Temp: 20 °C"
    }
}