{
    "cas_no": "20358-05-8",
    "key_name": "7-Bromo-2-benzothiazolamine",
    "cn_name": null,
    "alternate_name": "2-Benzothiazolamine, 7-bromo-;Benzothiazole, 2-amino-7-bromo-;7-Bromo-2-benzothiazolamine;2-Amino-7-bromobenzothiazole;7-Bromobenzo[<em>d</em>]thiazol-2-amine",
    "duplicated_cas_no": "",
    "SMILES": "BrC1=C2C(N=C(N)S2)=CC=C1",
    "meta_data": {
        "InChI": "InChI=1S/C7H5BrN2S/c8-4-2-1-3-5-6(4)11-7(9)10-5/h1-3H,(H2,9,10)",
        "InChIKey": null,
        "Canonical SMILES": "BrC1=CC=CC=2N=C(SC12)N",
        "Molecular Formula": "C<sub>7</sub>H<sub>5</sub>BrN<sub>2</sub>S",
        "Molecular Mass": "229.10",
        "Melting Point": "189-191 °C"
    }
}