{
    "cas_no": "382137-78-2",
    "key_name": "5′-(4-Cyanophenyl)[1,1′:3′,1′′-terphenyl]-4,4′′-dicarbonitrile",
    "cn_name": null,
    "alternate_name": "[1,1′:3′,1′′-Terphenyl]-4,4′′-dicarbonitrile, 5′-(4-cyanophenyl)-;5′-(4-Cyanophenyl)[1,1′:3′,1′′-terphenyl]-4,4′′-dicarbonitrile;1,3,5-Tris(4-cyanophenyl)benzene",
    "duplicated_cas_no": "",
    "SMILES": "C(#N)C1=CC=C(C2=CC(=CC(=C2)C3=CC=C(C#N)C=C3)C4=CC=C(C#N)C=C4)C=C1",
    "meta_data": {
        "InChI": "InChI=1S/C27H15N3/c28-16-19-1-7-22(8-2-19)25-13-26(23-9-3-20(17-29)4-10-23)15-27(14-25)24-11-5-21(18-30)6-12-24/h1-15H",
        "InChIKey": null,
        "Canonical SMILES": "N#CC=1C=CC(=CC1)C2=CC(=CC(=C2)C=3C=CC(C#N)=CC3)C=4C=CC(C#N)=CC4",
        "Molecular Formula": "C<sub>27</sub>H<sub>15</sub>N<sub>3</sub>",
        "Molecular Mass": "381.43",
        "Melting Point": "&gt;320 °C"
    }
}