{
    "cas_no": "61-16-5",
    "key_name": "Methoxamine hydrochloride",
    "cn_name": null,
    "alternate_name": "Benzenemethanol, α-(1-aminoethyl)-2,5-dimethoxy-, hydrochloride (1:1);Benzyl alcohol, α-(1-aminoethyl)-2,5-dimethoxy-, hydrochloride;Methoxamine hydrochloride;Benzenemethanol, α-(1-aminoethyl)-2,5-dimethoxy-, hydrochloride;2-Amino-1-(2,5-dimethoxyphenyl)-1-propanol hydrochloride;α-(α-Aminoethyl)-2,5-dimethoxybenzyl alcohol hydrochloride;Beta-hydroxy-beta-(2,5-dimethoxyphenol)-isopropylamine hydrochloride;β-Hydroxy-β-(2,5-dimethoxyphenyl)isopropylamine hydrochloride;Pressomin hydrochloride;Vasoxine hydrochloride;Vasoxyl hydrochloride;2-Amino-1-hydroxy-1-(2,5-dimethoxyphenyl)propane hydrochloride;Vasoxyl;Vasoxine;Vasylox",
    "duplicated_cas_no": "153-51-5",
    "SMILES": "C(C(C)N)(O)C1=C(OC)C=CC(OC)=C1.Cl",
    "meta_data": {
        "InChI": "InChI=1S/C11H17NO3.ClH/c1-7(12)11(13)9-6-8(14-2)4-5-10(9)15-3;/h4-7,11,13H,12H2,1-3H3;1H",
        "InChIKey": null,
        "Canonical SMILES": "Cl.OC(C1=CC(OC)=CC=C1OC)C(N)C",
        "Molecular Formula": "C<sub>11</sub>H<sub>17</sub>NO<sub>3</sub>.ClH",
        "Molecular Mass": "",
        "Melting Point": "212-216 °C"
    }
}