{
    "cas_no": "474-58-8",
    "key_name": "Daucosterol",
    "cn_name": "西托糖苷;",
    "alternate_name": "β-<span class=\"text-smallcaps\">D</span>-Glucopyranoside, (3β)-stigmast-5-en-3-yl;Stigmast-5-ene, 3β-(β-<span class=\"text-smallcaps\">D</span>-glucopyranosyloxy)-;Daucosterin;Stigmastane, β-<span class=\"text-smallcaps\">D</span>-glucopyranoside deriv.;(3β)-Stigmast-5-en-3-yl β-<span class=\"text-smallcaps\">D</span>-glucopyranoside;Daucosterol;(-)-β-Sitosterol glucoside;Stigmast-5-ene, 3-(β-<span class=\"text-smallcaps\">D</span>-glucopyranosyloxy)-, (3β)-;Eleutheroside A;β-Sitosterol <span class=\"text-smallcaps\">D</span>-glucopyranoside;β-Sitosterol <span class=\"text-smallcaps\">D</span>-glucoside;β-Sitosterol β-<span class=\"text-smallcaps\">D</span>-glucopyranoside;β-Sitosterol <em>O</em>-glucoside;β-Sitosteryl β-<span class=\"text-smallcaps\">D</span>-glucoside;Alexandrin;Sitosterol glucoside;Sterolin;β-Sitosterol glucoside;3-<em>O</em>-β-<span class=\"text-smallcaps\">D</span>-Glucopyranosylsitosterol;Coriandrinol;β-Sitosterol β-glucoside;β-Sitosterol 3-<em>O</em>-glucoside;β-Sitosterol monoglucoside;Sitogluside;β-Sitosteryl 3-β-<span class=\"text-smallcaps\">D</span>-glucoside;Sitosterol <span class=\"text-smallcaps\">D</span>-glucoside;Sitosteryl glucoside;β-Sitosteryl 3-<em>O</em>-β-<span class=\"text-smallcaps\">D</span>-glucoside;β-Sitosteryl glucoside;β-Sitosterol 3-<em>O</em>-β-glucopyranoside;β-Sitosterol <em>O</em>-β-<span class=\"text-smallcaps\">D</span>-glucoside;β-Sitosteryl 3-glucoside;Doursterol;Stigmast-5-en-3β-yl β-<span class=\"text-smallcaps\">D</span>-glucopyranoside;Sitosterol 3-<em>O</em>-β-<span class=\"text-smallcaps\">D</span>-glucopyranoside;β-Sitosterol β-glucopyranoside;β-Sitosteryl 3-<em>O</em>-glucoside;Sitosteryl 3β-glucoside;β-Sitosterol 3-<em>O</em>-β-<span class=\"text-smallcaps\">D</span>-glucopyranoside;β-Sitosterol β-<span class=\"text-smallcaps\">D</span>-glycopyranoside;β-Sitosterol β-<span class=\"text-smallcaps\">D</span>-glucoside;β-Sitosterol glucopyranoside;3-(β-<span class=\"text-smallcaps\">D</span>-Glucopyranosyloxy)stigmast-5-ene;3-<em>O</em>-β-<span class=\"text-smallcaps\">D</span>-Glucopyranosyl-β-sitosterol;β-Daucosterol;1513DMIa;(-)-β-Sitosterol β-<span class=\"text-smallcaps\">D</span>-glucopyranoside;β-Sitosterol 3-<em>O</em>-β-<span class=\"text-smallcaps\">D</span>-glucoside;3-<em>O</em>-β-<span class=\"text-smallcaps\">D</span>-Glucosyl-β-sitosterol;3β-<span class=\"text-smallcaps\">D</span>-Glucosyl-β-sitosterol;Sitosteryl β-<span class=\"text-smallcaps\">D</span>-glucopyranoside;β-Sitosterol 3-β-<span class=\"text-smallcaps\">D</span>-glucopyranoside;β-Sitosteryl 3-<em>O</em>-β-<span class=\"text-smallcaps\">D</span>-glucopyranoside;β-Sitosteryl β-<span class=\"text-smallcaps\">D</span>-glucopyranoside;Sitosteryl 3β-<span class=\"text-smallcaps\">D</span>-glucopyranoside;WA 184;AW 10;EU 4906;BSSG;NSC 165962;Stigmast-5-en-3-β-glucopyranoside;Sitosterol 3-<em>O</em>-β-glucoside;β-Sitosterol-3-glucoside;β-Daucosterin;β-Sitosterol 3-<em>O</em>-<span class=\"text-smallcaps\">D</span>-glucoside;Sitosterol 3-<em>O</em>-β-glucopyranoside;3-<em>O</em>-<span class=\"text-smallcaps\">D</span>-Glucopyranosyl-β-sitosterol;Daucosterine;Sitosterol glucopyranoside;3β-Sitoster-3-yl β-<span class=\"text-smallcaps\">D</span>-glucopyranoside;Strumaroside;β-Sitosterol 3-<em>O</em>-β-glucoside;3-(β-<span class=\"text-smallcaps\">D</span>-Glucopyranosyloxy)sitosterol;Sitosteryl-<em>O</em>-<span class=\"text-smallcaps\">D</span>-glucopyranoside;β-Sitosterol-<span class=\"text-smallcaps\">D</span>-glycoside;β-Sitosterol-β-<span class=\"text-smallcaps\">D</span>-glycoside",
    "duplicated_cas_no": "6220-07-1;26888-14-2;28983-34-8;31567-60-9;65756-88-9;67911-40-4;69100-14-7;74626-98-5;78328-69-5;131606-46-7;886030-97-3;2295739-46-5",
    "SMILES": "C[C@@]12[C@]([C@]3([C@@]([C@]4(C)C(=CC3)C[C@@H](O[C@@H]5O[C@H](CO)[C@@H](O)[C@H](O)[C@H]5O)CC4)(CC1)[H])[H])(CC[C@@]2([C@@H](CC[C@H](C(C)C)CC)C)[H])[H]",
    "meta_data": {
        "InChI": "InChI=1S/C35H60O6/c1-7-22(20(2)3)9-8-21(4)26-12-13-27-25-11-10-23-18-24(14-16-34(23,5)28(25)15-17-35(26,27)6)40-33-32(39)31(38)30(37)29(19-36)41-33/h10,20-22,24-33,36-39H,7-9,11-19H2,1-6H3/t21-,22-,24+,25+,26-,27+,28+,29-,30-,31+,32-,33-,34+,35-/m1/s1",
        "InChIKey": null,
        "Canonical SMILES": "OCC1OC(OC2CC3=CCC4C(CCC5(C)C(CCC45)C(C)CCC(CC)C(C)C)C3(C)CC2)C(O)C(O)C1O",
        "Molecular Formula": "C<sub>35</sub>H<sub>60</sub>O<sub>6</sub>",
        "Molecular Mass": "576.85",
        "Melting Point": "290-295 °C"
    }
}