{
    "cas_no": "4684-94-0",
    "key_name": "6-Chloropicolinic acid",
    "cn_name": "6-氯吡啶-2-羧酸;2-氯吡啶-6-羧酸;",
    "alternate_name": "2-Pyridinecarboxylic acid, 6-chloro-;Picolinic acid, 6-chloro-;6-Chloro-2-pyridinecarboxylic acid;6-Chloropicolinic acid;NSC 51587;2-Chloropyridine-6-carboxylic acid;6-Chloro-3-picolinic acid",
    "duplicated_cas_no": "",
    "SMILES": "C(O)(=O)C=1N=C(Cl)C=CC1",
    "meta_data": {
        "InChI": "InChI=1S/C6H4ClNO2/c7-5-3-1-2-4(8-5)6(9)10/h1-3H,(H,9,10)",
        "InChIKey": null,
        "Canonical SMILES": "O=C(O)C1=NC(Cl)=CC=C1",
        "Molecular Formula": "C<sub>6</sub>H<sub>4</sub>ClNO<sub>2</sub>",
        "Molecular Mass": "157.55",
        "Melting Point": "190 °C"
    }
}