{
    "cas_no": "6542-37-6",
    "key_name": "5-Hydroxymethyl-1-aza-3,7-dioxabicyclo[3.3.0]octane",
    "cn_name": "1H,3H,5H-恶唑并[3,4-C]恶唑-7A(7H)甲醇;1H,3H,5H-恶唑并[3,4-C]恶唑-7A(7H)甲醇;",
    "alternate_name": "1<em>H</em>,3<em>H</em>,5<em>H</em>-Oxazolo[3,4-<em>c</em>]oxazole-7a(7<em>H</em>)-methanol;1-Aza-5-methylol-3,7-dioxabicyclo[3.3.0]octane;5-Methylol-1-aza-3,7-dioxabicyclo[3.3.0]octane;GDUE;M 3 (curing agent);1-Aza-3,7-dioxa-5-hydroxymethylbicyclo[3.3.0]octane;5-Hydroxymethyl-1-aza-3,7-dioxabicyclo[3.3.0]octane;M 3;1-Aza-5-hydroxymethyl-3,7-dioxabicyclo[3.3.0]octane;1-Aza-3,7-dioxabicyclo[3.3.0]oct-5-ylmethanol;Bonding agent M 3;Oxazolidine T;Zoldine ZT 65;Zoldine ZT 55;Zoldine ZT 40;Zoldine ZT 100;NSC 270787;ZT 65;OXD-II;1-Aza-3,7-dioxabicyclo[3.3.0]octane-5-methanol;[Tetrahydro-1<em>H</em>-[1,3]oxazolo[3,4-<em>c</em>][1,3]oxazol-7a-yl]methanol;(Tetrahydro-1<em>H</em>-oxazolo[3,4-<em>c</em>]oxazol-7a-yl)methanol",
    "duplicated_cas_no": "59787-24-5",
    "SMILES": "C(O)C12N(COC1)COC2",
    "meta_data": {
        "InChI": "InChI=1S/C6H11NO3/c8-1-6-2-9-4-7(6)5-10-3-6/h8H,1-5H2",
        "InChIKey": null,
        "Canonical SMILES": "OCC12N(COC1)COC2",
        "Molecular Formula": "C<sub>6</sub>H<sub>11</sub>NO<sub>3</sub>",
        "Molecular Mass": "145.16",
        "Melting Point": "58 °C"
    }
}