{
    "cas_no": "2345-27-9",
    "key_name": "2-Tetradecanone",
    "cn_name": "2-十四酮;",
    "alternate_name": "2-Tetradecanone;Dodecyl methyl ketone;Methyl dodecyl ketone;Lauryl methyl ketone",
    "duplicated_cas_no": "",
    "SMILES": "C(CCCCCCCCC)CCC(C)=O",
    "meta_data": {
        "InChI": "InChI=1S/C14H28O/c1-3-4-5-6-7-8-9-10-11-12-13-14(2)15/h3-13H2,1-2H3",
        "InChIKey": null,
        "Canonical SMILES": "O=C(C)CCCCCCCCCCCC",
        "Molecular Formula": "C<sub>14</sub>H<sub>28</sub>O",
        "Molecular Mass": "212.37",
        "Boiling Point": "134 °C @ Press: 14 Torr",
        "Melting Point": "33.5 °C"
    }
}