{
    "cas_no": "137-32-6",
    "key_name": "2-Methyl-1-butanol",
    "cn_name": "2-甲基-1-丁醇;2-甲基丁醇;活性戊醇;旋性戊醇;",
    "alternate_name": "1-Butanol, 2-methyl-;2-Methyl-1-butanol;<em>sec</em>-Butylcarbinol;Primary active amyl alcohol;Active amyl alcohol;Active primary amyl alcohol;2-Methyl-<em>n</em>-butanol;2-Methylbutyl alcohol;(±)-2-Methyl-1-butanol;NSC 8431",
    "duplicated_cas_no": "34713-94-5",
    "SMILES": "C(CC)(CO)C",
    "meta_data": {
        "InChI": "InChI=1S/C5H12O/c1-3-5(2)4-6/h5-6H,3-4H2,1-2H3",
        "InChIKey": null,
        "Canonical SMILES": "OCC(C)CC",
        "Molecular Formula": "C<sub>5</sub>H<sub>12</sub>O",
        "Molecular Mass": "88.15",
        "Boiling Point": "128 °C @ Press: 760 Torr",
        "Melting Point": "-70 °C",
        "Density": "0.816 g/cm³ @ Temp: 20 °C"
    }
}