{
    "cas_no": "27665-39-0",
    "key_name": "1,4-Butanedisulfonic acid",
    "cn_name": null,
    "alternate_name": "1,4-Butanedisulfonic acid;1,4-Disulfobutane",
    "duplicated_cas_no": "",
    "SMILES": "C(S(=O)(=O)O)CCCS(=O)(=O)O",
    "meta_data": {
        "InChI": "InChI=1S/C4H10O6S2/c5-11(6,7)3-1-2-4-12(8,9)10/h1-4H2,(H,5,6,7)(H,8,9,10)",
        "InChIKey": null,
        "Canonical SMILES": "O=S(=O)(O)CCCCS(=O)(=O)O",
        "Molecular Formula": "C<sub>4</sub>H<sub>10</sub>O<sub>6</sub>S<sub>2</sub>",
        "Molecular Mass": "218.25",
        "Melting Point": "84 °C"
    }
}