{
    "cas_no": "24974-72-9",
    "key_name": "3-Fluorobenzenemethanesulfonyl chloride",
    "cn_name": null,
    "alternate_name": "Benzenemethanesulfonyl chloride, 3-fluoro-;α-Toluenesulfonyl chloride, <em>m</em>-fluoro-;3-Fluorobenzenemethanesulfonyl chloride;(3-Fluorophenyl)methanesulfonyl chloride",
    "duplicated_cas_no": "",
    "SMILES": "C(S(Cl)(=O)=O)C1=CC(F)=CC=C1",
    "meta_data": {
        "InChI": "InChI=1S/C7H6ClFO2S/c8-12(10,11)5-6-2-1-3-7(9)4-6/h1-4H,5H2",
        "InChIKey": null,
        "Canonical SMILES": "O=S(=O)(Cl)CC=1C=CC=C(F)C1",
        "Molecular Formula": "C<sub>7</sub>H<sub>6</sub>ClFO<sub>2</sub>S",
        "Molecular Mass": "208.64",
        "Melting Point": "36-38 °C"
    }
}