{
    "cas_no": "1693-74-9",
    "key_name": "THF-<em>d</em><sub>8</sub>",
    "cn_name": "四氢呋喃-d8;氘代四氢呋喃-d{8};",
    "alternate_name": "Furan-<em>2</em>,<em>3</em>,<em>4</em>,<em>5</em>-<em>d</em><sub>4</sub>, tetrahydro-<em>d</em><sub>4</sub>-;Furan-<em>d</em><sub>4</sub>, tetrahydro-<em>d</em><sub>4</sub>-;Tetrahydro-<em>d</em><sub>4</sub>furan-<em>2</em>,<em>3</em>,<em>4</em>,<em>5</em>-<em>d</em><sub>4</sub>;Tetrahydrofuran-<em>d</em><sub>8</sub>;THF-<em>d</em><sub>8</sub>;Perdeuterotetrahydrofuran;d8-THF;2,2,3,3,4,4,5,5-Octadeuteriooxolane",
    "duplicated_cas_no": "",
    "SMILES": "C1(C(C(OC1([2H])[2H])([2H])[2H])([2H])[2H])([2H])[2H]",
    "meta_data": {
        "InChI": "InChI=1S/C4H8O/c1-2-4-5-3-1/h1-4H2/i1D2,2D2,3D2,4D2",
        "InChIKey": null,
        "Canonical SMILES": "O1CCCC1",
        "Molecular Formula": "C<sub>4</sub>D<sub>8</sub>O",
        "Molecular Mass": "",
        "Boiling Point": "65.4 °C",
        "Melting Point": "-105.6 °C",
        "Density": "0.985 g/cm³"
    }
}