{
    "cas_no": "958-09-8",
    "key_name": "Deoxyadenosine",
    "cn_name": "2\"-脱氧腺苷;2\"-脱氧腺甙;",
    "alternate_name": "Adenosine, 2′-deoxy-;2′-Deoxyadenosine;Adenine deoxyribonucleoside;Adenine deoxyribose;Deoxyadenosine;β-<span class=\"text-smallcaps\">D</span>-<em>erythro</em>-Pentofuranoside, adenine-9 2-deoxy-;9<em>H</em>-Purin-6-amine, 9-(2-deoxy-β-<span class=\"text-smallcaps\">D</span>-<em>erythro</em>-pentofuranosyl)-;9<em>H</em>-Purin-6-amine, 9-(2-deoxy-β-<span class=\"text-smallcaps\">D</span>-ribofuranosyl)-;β-<span class=\"text-smallcaps\">D</span>-Ribofuranose, 1-(6-amino-9<em>H</em>-purin-9-yl)-1,2-dideoxy-;Adenyldeoxyriboside;Desoxyadenosine;9-(2-Deoxy-β-<span class=\"text-smallcaps\">D</span>-<em>erythro</em>-pentofuranosyl)adenine;dA;NSC 141848;NSC 143510;NSC 83258;167: PN: US20040053876 SEQID: 167 unclaimed DNA;NQZ-035;9: PN: WO2022247943 SEQID: 61 claimed sequence;78: PN: WO2022263569 PAGE: 208 claimed sequence",
    "duplicated_cas_no": "7005-15-4;663188-78-1;1348455-97-9",
    "SMILES": "NC1=C2C(N(C=N2)[C@@H]3O[C@H](CO)[C@@H](O)C3)=NC=N1",
    "meta_data": {
        "InChI": "InChI=1S/C10H13N5O3/c11-9-8-10(13-3-12-9)15(4-14-8)7-1-5(17)6(2-16)18-7/h3-7,16-17H,1-2H2,(H2,11,12,13)/t5-,6+,7+/m0/s1",
        "InChIKey": null,
        "Canonical SMILES": "OCC1OC(N2C=NC=3C(=NC=NC32)N)CC1O",
        "Molecular Formula": "C<sub>10</sub>H<sub>13</sub>N<sub>5</sub>O<sub>3</sub>",
        "Molecular Mass": "251.24",
        "Melting Point": "187.5-189.0 °C"
    }
}