{
    "cas_no": "18411-75-1",
    "key_name": "(4a<em>R</em>,5<em>S</em>,6<em>R</em>,8a<em>S</em>)-5-[2-(3-Furanyl)ethyl]-3,4,4a,5,6,7,8,8a-octahydro-8a-(hydroxymethyl)-5,6-dimethyl-1-naphthalenecarboxylic acid",
    "cn_name": null,
    "alternate_name": "1-Naphthalenecarboxylic acid, 5-[2-(3-furanyl)ethyl]-3,4,4a,5,6,7,8,8a-octahydro-8a-(hydroxymethyl)-5,6-dimethyl-, (4a<em>R</em>,5<em>S</em>,6<em>R</em>,8a<em>S</em>)-;17,19-Dinor-8β<span class=\"text-smallcaps\">H</span>-labda-3,13(16),14-trien-18-oic acid, 15,16-epoxy-5-(hydroxymethyl)-9-methyl-, (-)-;1-Naphthalenecarboxylic acid, 5-[2-(3-furanyl)ethyl]-3,4,4a,5,6,7,8,8a-octahydro-8a-(hydroxymethyl)-5,6-dimethyl-, [4a<em>R</em>-(4aα,5α,6β,8aβ)]-;(4a<em>R</em>,5<em>S</em>,6<em>R</em>,8a<em>S</em>)-5-[2-(3-Furanyl)ethyl]-3,4,4a,5,6,7,8,8a-octahydro-8a-(hydroxymethyl)-5,6-dimethyl-1-naphthalenecarboxylic acid;Hautriwaic acid;(-)-Hautriwaic acid;5,9-Di-<em>epi</em>-vishautriwaic acid",
    "duplicated_cas_no": "",
    "SMILES": "C(O)[C@]12[C@@]([C@](CCC=3C=COC3)(C)[C@H](C)CC1)(CCC=C2C(O)=O)[H]",
    "meta_data": {
        "InChI": "InChI=1S/C20H28O4/c1-14-6-10-20(13-21)16(18(22)23)4-3-5-17(20)19(14,2)9-7-15-8-11-24-12-15/h4,8,11-12,14,17,21H,3,5-7,9-10,13H2,1-2H3,(H,22,23)/t14-,17-,19+,20-/m1/s1",
        "InChIKey": null,
        "Canonical SMILES": "O=C(O)C1=CCCC2C1(CO)CCC(C)C2(C)CCC3=COC=C3",
        "Molecular Formula": "C<sub>20</sub>H<sub>28</sub>O<sub>4</sub>",
        "Molecular Mass": "332.43",
        "Melting Point": "183-184 °C"
    }
}