{
    "cas_no": "3967-32-6",
    "key_name": "5-(1-Methyl-4-piperidinyl)-5<em>H</em>-dibenzo[<em>a</em>,<em>d</em>]cyclohepten-5-ol",
    "cn_name": null,
    "alternate_name": "5<em>H</em>-Dibenzo[<em>a</em>,<em>d</em>]cyclohepten-5-ol, 5-(1-methyl-4-piperidinyl)-;5<em>H</em>-Dibenzo[<em>a</em>,<em>d</em>]cyclohepten-5-ol, 5-(1-methyl-4-piperidyl)-;5-(1-Methyl-4-piperidinyl)-5<em>H</em>-dibenzo[<em>a</em>,<em>d</em>]cyclohepten-5-ol;5-(1-Methyl-4-piperidyl)-5<em>H</em>-dibenzo[<em>a</em>,<em>d</em>]cyclohepten-5-ol;5-(1-Methylpiperidin-4-yl)-5<em>H</em>-dibenzo[<em>a</em>,<em>d</em>]cyclohepten-5-ol",
    "duplicated_cas_no": "",
    "SMILES": "OC1(C=2C(C=CC=3C1=CC=CC3)=CC=CC2)C4CCN(C)CC4",
    "meta_data": {
        "InChI": "InChI=1S/C21H23NO/c1-22-14-12-18(13-15-22)21(23)19-8-4-2-6-16(19)10-11-17-7-3-5-9-20(17)21/h2-11,18,23H,12-15H2,1H3",
        "InChIKey": null,
        "Canonical SMILES": "OC1(C=2C=CC=CC2C=CC=3C=CC=CC31)C4CCN(C)CC4",
        "Molecular Formula": "C<sub>21</sub>H<sub>23</sub>NO",
        "Molecular Mass": "305.41",
        "Melting Point": "166.7-167.7 °C"
    }
}