{
    "cas_no": "12107-56-1",
    "key_name": "Dichloro[(1,2,5,6-η)-1,5-cyclooctadiene]palladium",
    "cn_name": "(1,5-环辛二烯)二氯化钯(II);",
    "alternate_name": "Palladium, dichloro[(1,2,5,6-η)-1,5-cyclooctadiene]-;Palladium, dichloro(1,5-cyclooctadiene)-;1,5-Cyclooctadiene, palladium complex;Dichloro[(1,2,5,6-η)-1,5-cyclooctadiene]palladium;Dichloro(1,5-cyclooctadiene)palladium;(1,5-Cyclooctadiene)palladium dichloride;Dichloro(cyclooctadiene)palladium;Dichloro(1,5-cyclooctadiene)palladium(II);Dichloro(η<sup>4</sup>-1,5-cyclooctadiene)palladium;NSC 169973",
    "duplicated_cas_no": "12193-11-2",
    "SMILES": "[Cl-][Pd+2]123([Cl-])[CH]4=[CH]1CC[CH]2=[CH]3CC4",
    "meta_data": {
        "InChI": "InChI=1S/C8H12.2ClH.Pd/c1-2-4-6-8-7-5-3-1;;;/h1-2,7-8H,3-6H2;2*1H;/q;;;+2/p-2",
        "InChIKey": null,
        "Canonical SMILES": "[Cl-][Pd+2]123([Cl-])[CH]=4CC[CH]3=[CH]2CC[CH]41",
        "Molecular Formula": "C<sub>8</sub>H<sub>12</sub>Cl<sub>2</sub>Pd",
        "Molecular Mass": "",
        "Melting Point": "210-215 °C"
    }
}