{
    "cas_no": "5022-65-1",
    "key_name": "1<em>H</em>-Indole-3-propanamide, α-amino-, hydrochloride (1:1), (α<em>S</em>)-",
    "cn_name": "L-色氨酰胺盐酸盐;",
    "alternate_name": "1<em>H</em>-Indole-3-propanamide, α-amino-, hydrochloride (1:1), (α<em>S</em>)-;Tryptophanamide, monohydrochloride, <span class=\"text-smallcaps\">L</span>-;1<em>H</em>-Indole-3-propanamide, α-amino-, monohydrochloride, (α<em>S</em>)-;<span class=\"text-smallcaps\">L</span>-Tryptophanamide hydrochloride",
    "duplicated_cas_no": "",
    "SMILES": "C([C@@H](C(N)=O)N)C=1C=2C(NC1)=CC=CC2.Cl",
    "meta_data": {
        "InChI": "InChI=1S/C11H13N3O.ClH/c12-9(11(13)15)5-7-6-14-10-4-2-1-3-8(7)10;/h1-4,6,9,14H,5,12H2,(H2,13,15);1H/t9-;/m0./s1",
        "InChIKey": null,
        "Canonical SMILES": "Cl.O=C(N)C(N)CC1=CNC=2C=CC=CC21",
        "Molecular Formula": "C<sub>11</sub>H<sub>13</sub>N<sub>3</sub>O.ClH",
        "Molecular Mass": "",
        "Melting Point": "257-260 °C (decomp)"
    }
}