{
    "cas_no": "354-24-5",
    "key_name": "2-Chloro-2,2-difluoroacetyl chloride",
    "cn_name": null,
    "alternate_name": "Acetyl chloride, 2-chloro-2,2-difluoro-;Acetyl chloride, chlorodifluoro-;2-Chloro-2,2-difluoroacetyl chloride;Chlorodifluoroacetyl chloride;Difluorochloroacetyl chloride",
    "duplicated_cas_no": "",
    "SMILES": "C(C(Cl)=O)(Cl)(F)F",
    "meta_data": {
        "InChI": "InChI=1S/C2Cl2F2O/c3-1(7)2(4,5)6",
        "InChIKey": null,
        "Canonical SMILES": "O=C(Cl)C(F)(F)Cl",
        "Molecular Formula": "C<sub>2</sub>Cl<sub>2</sub>F<sub>2</sub>O",
        "Molecular Mass": "148.92",
        "Boiling Point": "34 °C"
    }
}