{
    "cas_no": "123-98-8",
    "key_name": "Nonanedioyl dichloride",
    "cn_name": "壬二酰二氯;",
    "alternate_name": "Nonanedioyl dichloride;Azelaoyl chloride;Azelaic acid chloride;Azelaoyl dichloride;Nonanedioyl chloride;Azelaic acid dichloride;Nonanedioic dichloride;NSC 519866;Azelaoyl acid dichloride;Azelaic dichloride",
    "duplicated_cas_no": "",
    "SMILES": "C(CC(Cl)=O)CCCCCC(Cl)=O",
    "meta_data": {
        "InChI": "InChI=1S/C9H14Cl2O2/c10-8(12)6-4-2-1-3-5-7-9(11)13/h1-7H2",
        "InChIKey": null,
        "Canonical SMILES": "O=C(Cl)CCCCCCCC(=O)Cl",
        "Molecular Formula": "C<sub>9</sub>H<sub>14</sub>Cl<sub>2</sub>O<sub>2</sub>",
        "Molecular Mass": "225.11",
        "Boiling Point": "153-157 °C @ Press: 6.5 Torr"
    }
}