{
    "cas_no": "13520-78-0",
    "key_name": "Tungsten chloride oxide (WCl<sub>4</sub>O)",
    "cn_name": "氧代氯化钨;钨氯化氧化,；钨氧化氯化;",
    "alternate_name": "Tungsten chloride oxide (WCl<sub>4</sub>O);Tungsten chloride oxide (WOCl<sub>4</sub>);Tungsten oxytetrachloride;Tungsten oxide chloride (WOCl<sub>4</sub>);Tetrachlorooxotungsten;Tungsten oxide tetrachloride;Tungsten tetrachloride oxide;Tetrachlorooxytungsten;Tungsten tetrachloride monoxide;Tungsten tetrachloride monooxide;Tungsten oxychloride (WOCl<sub>4</sub>);Tetrachlorotungsten oxide;Tungsten(VI) oxychloride;Tungsten(VI) oxochloride;Tungsten(VI) oxytetrachloride;Tungsten carbide oxide (WC<sub>14</sub>O)",
    "duplicated_cas_no": "3017159-12-2",
    "SMILES": "[W](Cl)(Cl)(Cl)(Cl)=O",
    "meta_data": {
        "InChI": "InChI=1S/4ClH.O.W/h4*1H;;/q;;;;;+4/p-4",
        "InChIKey": null,
        "Canonical SMILES": "O=[W](Cl)(Cl)(Cl)Cl",
        "Molecular Formula": "Cl<sub>4</sub>OW",
        "Molecular Mass": "",
        "Boiling Point": "232 °C",
        "Melting Point": "209 °C"
    }
}