{
    "cas_no": "1304-76-3",
    "key_name": "Bismuth oxide (Bi<sub>2</sub>O<sub>3</sub>)",
    "cn_name": null,
    "alternate_name": "Bismuth oxide (Bi<sub>2</sub>O<sub>3</sub>);C.I. 77160;Bismuthous oxide;Bismuth trioxide;Bismuth yellow;Dibismuth trioxide;Bismuth sesquioxide;Bismuth oxide;Bismuth(3+) oxide;Bismuth(III) oxide;Bismuth sesquioxide (Bi<sub>2</sub>O<sub>3</sub>);Bismuth oxide (BiO<sub>1.5</sub>);NanoArc Bismuth Oxide;Nanotek;B 18401;Tomatec 42-970A;Bismuth oxide (Bi<sub>12.8</sub>O<sub>19.2</sub>)",
    "duplicated_cas_no": "11090-09-8;163831-49-0;477850-83-2;1352839-71-4",
    "SMILES": "",
    "meta_data": {
        "InChI": "",
        "InChIKey": null,
        "Canonical SMILES": "",
        "Molecular Formula": "Bi<sub>2</sub>O<sub>3</sub>",
        "Molecular Mass": "",
        "Melting Point": "836 °C",
        "Density": "8.437 g/cm³"
    }
}