{
    "uri": "substance/pt/1304763",
    "rn": "1304-76-3",
    "name": "Bismuth oxide (Bi<sub>2</sub>O<sub>3</sub>)",
    "images": [],
    "inchi": "",
    "inchiKey": "",
    "smile": "",
    "canonicalSmile": "",
    "molecularFormula": "Bi<sub>2</sub>O<sub>3</sub>",
    "molecularMass": "",
    "experimentalProperties": [
        {
            "name": "Melting Point",
            "property": "836 °C",
            "sourceNumber": 1
        },
        {
            "name": "Density",
            "property": "8.437 g/cm³",
            "sourceNumber": 2
        }
    ],
    "propertyCitations": [
        {
            "docUri": "document/pt/document/12035201",
            "sourceNumber": 1,
            "source": "Speranskaya, E. I.; Zhurnal Neorganicheskoi Khimii, (1964), 9(2), 414-21, CAplus"
        },
        {
            "docUri": "document/pt/document/26649607",
            "sourceNumber": 2,
            "source": "Zyryanov, V. V.; Inorganic Materials (Translation of Neorganicheskie Materialy), (2004), 40(7), 729-734, CAplus"
        }
    ],
    "synonyms": [
        "Bismuth oxide (Bi<sub>2</sub>O<sub>3</sub>)",
        "C.I. 77160",
        "Bismuthous oxide",
        "Bismuth trioxide",
        "Bismuth yellow",
        "Dibismuth trioxide",
        "Bismuth sesquioxide",
        "Bismuth oxide",
        "Bismuth(3+) oxide",
        "Bismuth(III) oxide",
        "Bismuth sesquioxide (Bi<sub>2</sub>O<sub>3</sub>)",
        "Bismuth oxide (BiO<sub>1.5</sub>)",
        "NanoArc Bismuth Oxide",
        "Nanotek",
        "B 18401",
        "Tomatec 42-970A",
        "Bismuth oxide (Bi<sub>12.8</sub>O<sub>19.2</sub>)"
    ],
    "replacedRns": [
        "11090-09-8",
        "163831-49-0",
        "477850-83-2",
        "1352839-71-4"
    ],
    "hasMolfile": false,
    "source": "https://commonchemistry.cas.org/detail?cas_rn=1304-76-3"
}