{
    "cas_no": "23239-88-5",
    "key_name": "Benzocaine hydrochloride",
    "cn_name": "苯佐卡因盐酸盐;4-氨基苯甲酸乙酯盐酸盐;对氨基苯甲酸乙酯盐酸盐;",
    "alternate_name": "Benzoic acid, 4-amino-, ethyl ester, hydrochloride (1:1);Benzoic acid, <em>p</em>-amino-, ethyl ester, hydrochloride;Benzoic acid, 4-amino-, ethyl ester, hydrochloride;Benzocaine hydrochloride;Amben ethyl ester hydrochloride;Ethyl <em>p</em>-aminobenzoate hydrochloride;4-(Ethoxycarbonyl)anilinium chloride",
    "duplicated_cas_no": "",
    "SMILES": "C(OCC)(=O)C1=CC=C(N)C=C1.Cl",
    "meta_data": {
        "InChI": "InChI=1S/C9H11NO2.ClH/c1-2-12-9(11)7-3-5-8(10)6-4-7;/h3-6H,2,10H2,1H3;1H",
        "InChIKey": null,
        "Canonical SMILES": "Cl.O=C(OCC)C1=CC=C(N)C=C1",
        "Molecular Formula": "C<sub>9</sub>H<sub>11</sub>NO<sub>2</sub>.ClH",
        "Molecular Mass": "",
        "Boiling Point": "118-119 °C @ Press: 0.8 Torr",
        "Melting Point": "291-292 °C"
    }
}