{
    "cas_no": "328-68-7",
    "key_name": "3-Amino-5-(trifluoromethyl)benzoic acid",
    "cn_name": "3-氨基-5-(三氟甲基)苯甲酸;",
    "alternate_name": "Benzoic acid, 3-amino-5-(trifluoromethyl)-;<em>m</em>-Toluic acid, 5-amino-α,α,α-trifluoro-;3-Amino-5-(trifluoromethyl)benzoic acid;5-Amino-3-trifluoromethylbenzoic acid",
    "duplicated_cas_no": "",
    "SMILES": "C(F)(F)(F)C1=CC(C(O)=O)=CC(N)=C1",
    "meta_data": {
        "InChI": "InChI=1S/C8H6F3NO2/c9-8(10,11)5-1-4(7(13)14)2-6(12)3-5/h1-3H,12H2,(H,13,14)",
        "InChIKey": null,
        "Canonical SMILES": "O=C(O)C1=CC(N)=CC(=C1)C(F)(F)F",
        "Molecular Formula": "C<sub>8</sub>H<sub>6</sub>F<sub>3</sub>NO<sub>2</sub>",
        "Molecular Mass": "205.13",
        "Melting Point": "141-142.5 °C"
    }
}