{
    "cas_no": "15345-89-8",
    "key_name": "Desmethoxyyangonin",
    "cn_name": null,
    "alternate_name": "2<em>H</em>-Pyran-2-one, 4-methoxy-6-[(1<em>E</em>)-2-phenylethenyl]-;2<em>H</em>-Pyran-2-one, 4-methoxy-6-styryl-, (<em>E</em>)-;2<em>H</em>-Pyran-2-one, 4-methoxy-6-(2-phenylethenyl)-, (<em>E</em>)-;Yangonin, demethoxy-;4-Methoxy-6-[(1<em>E</em>)-2-phenylethenyl]-2<em>H</em>-pyran-2-one;<em>trans</em>-5,6-Dehydrokawain;5,6-Dehydrokawain;Demethoxyyangonin;5,6-Dehydrokavain;Desmethoxyyangonin;NSC 112161;NSC 68686;5,6-Dihydrokawain",
    "duplicated_cas_no": "26531-51-1",
    "SMILES": "C(=C/C1=CC=CC=C1)\\C2=CC(OC)=CC(=O)O2",
    "meta_data": {
        "InChI": "InChI=1S/C14H12O3/c1-16-13-9-12(17-14(15)10-13)8-7-11-5-3-2-4-6-11/h2-10H,1H3/b8-7+",
        "InChIKey": null,
        "Canonical SMILES": "O=C1OC(C=CC=2C=CC=CC2)=CC(OC)=C1",
        "Molecular Formula": "C<sub>14</sub>H<sub>12</sub>O<sub>3</sub>",
        "Molecular Mass": "228.24",
        "Melting Point": "133-134 °C"
    }
}