{
    "cas_no": "93-72-1",
    "key_name": "Fenoprop",
    "cn_name": "2-(2,4,5-三氯苯氧)-丙酸;2-(2,4,5-三氯苯氧基)丙酸;",
    "alternate_name": "Propanoic acid, 2-(2,4,5-trichlorophenoxy)-;Propionic acid, 2-(2,4,5-trichlorophenoxy)-;2-(2,4,5-Trichlorophenoxy)propanoic acid;Color-Set;Fenoprop;Fruitone T;Kurosal G;Silvex;Silvi-Rhap;Sta-fast;2-(2,4,5-Trichlorophenoxy)propionic acid;2,4,5-TP;2,4,5-Trichlorophenoxypropionic acid;α-(2,4,5-Trichlorophenoxy)propionic acid;Fenormone;2,4,5-TCPP;(±)-2-(2,4,5-Trichlorophenoxy)propionic acid;(±)-Fenoprop;(±)-Silvex;2,4,5-Trichlorophenoxypropanoic acid;2,4,5-TCPPA;Phenoprop;2-(2′,4′,5′-Trichloro-phenoxy)-propionic acid",
    "duplicated_cas_no": "7361-37-7;32795-97-4",
    "SMILES": "O(C(C(O)=O)C)C1=C(Cl)C=C(Cl)C(Cl)=C1",
    "meta_data": {
        "InChI": "InChI=1S/C9H7Cl3O3/c1-4(9(13)14)15-8-3-6(11)5(10)2-7(8)12/h2-4H,1H3,(H,13,14)",
        "InChIKey": null,
        "Canonical SMILES": "O=C(O)C(OC1=CC(Cl)=C(Cl)C=C1Cl)C",
        "Molecular Formula": "C<sub>9</sub>H<sub>7</sub>Cl<sub>3</sub>O<sub>3</sub>",
        "Molecular Mass": "269.51",
        "Melting Point": "181.6 °C",
        "Density": "1.2085 g/cm³ @ Temp: 20 °C"
    }
}