{
    "cas_no": "6538-82-5",
    "key_name": "2-Propen-1-aminium, 3-carboxy-<em>N</em>,<em>N</em>,<em>N</em>-trimethyl-, chloride (1:1)",
    "cn_name": null,
    "alternate_name": "2-Propen-1-aminium, 3-carboxy-<em>N</em>,<em>N</em>,<em>N</em>-trimethyl-, chloride (1:1);Ammonium, (3-carboxyallyl)trimethyl-, chloride;2-Propen-1-aminium, 3-carboxy-<em>N</em>,<em>N</em>,<em>N</em>-trimethyl-, chloride;(3-Carboxyallyl)trimethylammonium chloride;Crotonobetaine hydrochloride",
    "duplicated_cas_no": "",
    "SMILES": "C(C=CC(O)=O)[N+](C)(C)C.[Cl-]",
    "meta_data": {
        "InChI": "InChI=1S/C7H13NO2.ClH/c1-8(2,3)6-4-5-7(9)10;/h4-5H,6H2,1-3H3;1H",
        "InChIKey": null,
        "Canonical SMILES": "[Cl-].O=C(O)C=CC[N+](C)(C)C",
        "Molecular Formula": "C<sub>7</sub>H<sub>14</sub>NO<sub>2</sub>.Cl",
        "Molecular Mass": "",
        "Melting Point": "203-205 °C (decomp)"
    }
}