{
    "cas_no": "51772-30-6",
    "key_name": "1-(3-Methylphenyl)-1-propanone",
    "cn_name": null,
    "alternate_name": "1-Propanone, 1-(3-methylphenyl)-;Propiophenone, 3′-methyl-;1-(3-Methylphenyl)-1-propanone;<em>m</em>-Methylpropiophenone;3′-Methylpropiophenone;1-(3-Methylphenyl)propan-1-one;3-Methylpropiophenone",
    "duplicated_cas_no": "",
    "SMILES": "C(CC)(=O)C1=CC(C)=CC=C1",
    "meta_data": {
        "InChI": "InChI=1S/C10H12O/c1-3-10(11)9-6-4-5-8(2)7-9/h4-7H,3H2,1-2H3",
        "InChIKey": null,
        "Canonical SMILES": "O=C(C1=CC=CC(=C1)C)CC",
        "Molecular Formula": "C<sub>10</sub>H<sub>12</sub>O",
        "Molecular Mass": "148.20",
        "Boiling Point": "235 °C",
        "Melting Point": "-4.4 °C"
    }
}