{
    "cas_no": "108-22-5",
    "key_name": "Isopropenyl acetate",
    "cn_name": "乙酸异丙烯酯;",
    "alternate_name": "1-Propen-2-ol, 2-acetate;1-Propen-2-ol, acetate;Isopropenyl acetate;Acetic acid isopropenyl ester;2-Acetoxypropene;2-Acetoxypropylene;1-Acetoxy-1-methylethylene;1-Methylvinyl acetate;2-Acetoxy-1-propene;NSC 2197;NSC 8262;Prop-1-en-2-yl acetate;2-Propenyl acetate",
    "duplicated_cas_no": "",
    "SMILES": "O(C(C)=C)C(C)=O",
    "meta_data": {
        "InChI": "InChI=1S/C5H8O2/c1-4(2)7-5(3)6/h1H2,2-3H3",
        "InChIKey": null,
        "Canonical SMILES": "O=C(OC(=C)C)C",
        "Molecular Formula": "C<sub>5</sub>H<sub>8</sub>O<sub>2</sub>",
        "Molecular Mass": "100.12",
        "Boiling Point": "97 °C",
        "Melting Point": "-92.9 °C",
        "Density": "0.9090 g/cm³ @ Temp: 20 °C"
    }
}