{
    "cas_no": "64-19-7",
    "key_name": "Acetic acid",
    "cn_name": "乙酸;冰醋酸;冰乙酸;醋酸;",
    "alternate_name": "Acetic acid;Ethanoic acid;Ethylic acid;Glacial acetic acid;Methanecarboxylic acid;Vinegar acid;Ethanoic acid monomer;Aci-Jel;E 260;NSC 111201;NSC 112209;NSC 115870;NSC 127175;NSC 132953;NSC 406306;Munger Horticultural Vinegar Plus;Weed Pharm;Engage Agro;HACP 85;Acetic acids;Cedrosa;Acetic acid HAC;HZ 006;MeSH ID: D019342;HL 385",
    "duplicated_cas_no": "77671-22-8;1053656-97-5;1173022-32-6",
    "SMILES": "C(C)(O)=O",
    "meta_data": {
        "InChI": "InChI=1S/C2H4O2/c1-2(3)4/h1H3,(H,3,4)",
        "InChIKey": null,
        "Canonical SMILES": "O=C(O)C",
        "Molecular Formula": "C<sub>2</sub>H<sub>4</sub>O<sub>2</sub>",
        "Molecular Mass": "60.05",
        "Boiling Point": "117.9 °C",
        "Melting Point": "16.6 °C",
        "Density": "1.0446 g/cm³ @ Temp: 25 °C"
    }
}