{
    "cas_no": "928-94-9",
    "key_name": "<em>cis</em>-2-Hexen-1-ol",
    "cn_name": null,
    "alternate_name": "2-Hexen-1-ol, (2<em>Z</em>)-;2-Hexen-1-ol, (<em>Z</em>)-;(2<em>Z</em>)-2-Hexen-1-ol;<em>cis</em>-2-Hexen-1-ol;<em>cis</em>-β,γ-Hexenol;(<em>Z</em>)-2-Hexen-1-ol;(<em>Z</em>)-2-Hexenol;(<em>Z</em>)-1-Hydroxy-2-hexene;<em>cis</em>-2-Hexenol",
    "duplicated_cas_no": "",
    "SMILES": "C(\\CCC)=C\\CO",
    "meta_data": {
        "InChI": "InChI=1S/C6H12O/c1-2-3-4-5-6-7/h4-5,7H,2-3,6H2,1H3/b5-4-",
        "InChIKey": null,
        "Canonical SMILES": "OCC=CCCC",
        "Molecular Formula": "C<sub>6</sub>H<sub>12</sub>O",
        "Molecular Mass": "100.16",
        "Boiling Point": "157 °C",
        "Density": "0.8478 g/cm³ @ Temp: 21.6 °C"
    }
}