{
    "cas_no": "2103-64-2",
    "key_name": "Gallein",
    "cn_name": "茜素紫;焦性没食子酚酞;棓因;连苯三酚酞;4,5-二羟基荧光黄;",
    "alternate_name": "Spiro[isobenzofuran-1(3<em>H</em>),9′-[9<em>H</em>]xanthen]-3-one, 3′,4′,5′,6′-tetrahydroxy-;Gallein;3′,4′,5′,6′-Tetrahydroxyspiro[isobenzofuran-1(3<em>H</em>),9′-[9<em>H</em>]xanthen]-3-one;C.I. 45445;C.I. Mordant Violet 25;Pyrogallolphthalein;Alizarine violet;Mordant Violet 25;NSC 622478;NSC 56445;NSC 8668;3′,4′,5′,6′-Tetrahydroxyspiro[2-benzofuran-3,9′-xanthene]-1-one hydrate;3′,4′,5′,6′-Tetrahydroxyspiro[2-benzofuran-3,9′-xanthene]-1-one;3′,4′,5′,6′-Tetrahydroxy-3<em>H</em>-spiro[isobenzofuran-1,9′-xanthen]-3-one",
    "duplicated_cas_no": "52413-17-9;1071611-27-2",
    "SMILES": "O=C1OC2(C=3C(OC=4C2=CC=C(O)C4O)=C(O)C(O)=CC3)C=5C1=CC=CC5",
    "meta_data": {
        "InChI": "InChI=1S/C20H12O7/c21-13-7-5-11-17(15(13)23)26-18-12(6-8-14(22)16(18)24)20(11)10-4-2-1-3-9(10)19(25)27-20/h1-8,21-24H",
        "InChIKey": null,
        "Canonical SMILES": "O=C1OC2(C3=CC=C(O)C(O)=C3OC4=C(O)C(O)=CC=C42)C=5C=CC=CC15",
        "Molecular Formula": "C<sub>20</sub>H<sub>12</sub>O<sub>7</sub>",
        "Molecular Mass": "364.31",
        "Melting Point": "&gt;300 °C"
    }
}