{
    "cas_no": "576-26-1",
    "key_name": "2,6-Dimethylphenol",
    "cn_name": "2,6-二甲基苯酚;2,6-二甲酚;",
    "alternate_name": "Phenol, 2,6-dimethyl-;2,6-Xylenol;2,6-Dimethylphenol;1-Hydroxy-2,6-dimethylbenzene;NSC 2123;D 104339",
    "duplicated_cas_no": "28449-96-9;50356-22-4;1363408-62-1",
    "SMILES": "OC1=C(C)C=CC=C1C",
    "meta_data": {
        "InChI": "InChI=1S/C8H10O/c1-6-4-3-5-7(2)8(6)9/h3-5,9H,1-2H3",
        "InChIKey": null,
        "Canonical SMILES": "OC=1C(=CC=CC1C)C",
        "Molecular Formula": "C<sub>8</sub>H<sub>10</sub>O",
        "Molecular Mass": "122.16",
        "Boiling Point": "201 °C",
        "Melting Point": "45.7 °C",
        "Density": "1.13 g/cm³"
    }
}