{
    "cas_no": "68922-18-9",
    "key_name": "2-Pyridineethanesulfonic acid",
    "cn_name": "2-(2-吡啶基)乙基磺酸;吡啶-2-乙基磺酸;",
    "alternate_name": "2-Pyridineethanesulfonic acid;2-Pyridylethanesulfonic acid;NSC 87861;2-Pyridin-2-ylethanesulfonic acid;2-(2-Pyridyl)ethanesulfonic acid",
    "duplicated_cas_no": "",
    "SMILES": "C(CS(=O)(=O)O)C1=CC=CC=N1",
    "meta_data": {
        "InChI": "InChI=1S/C7H9NO3S/c9-12(10,11)6-4-7-3-1-2-5-8-7/h1-3,5H,4,6H2,(H,9,10,11)",
        "InChIKey": null,
        "Canonical SMILES": "O=S(=O)(O)CCC1=NC=CC=C1",
        "Molecular Formula": "C<sub>7</sub>H<sub>9</sub>NO<sub>3</sub>S",
        "Molecular Mass": "187.22",
        "Melting Point": "265-266.5 °C"
    }
}