{
    "cas_no": "470-55-3",
    "key_name": "Stachyose",
    "cn_name": "D-水苏糖;",
    "alternate_name": "α-<span class=\"text-smallcaps\">D</smallcap>-Glucopyranoside, β-<smallcap>D</smallcap>-fructofuranosyl <em>O</em>-α-<smallcap>D</smallcap>-galactopyranosyl-(1→6)-<em>O</em>-α-<smallcap>D</span>-galactopyranosyl-(1→6)-;Glucopyranoside, β-<span class=\"text-smallcaps\">D</smallcap>-fructofuranosyl <em>O</em>-α-<smallcap>D</smallcap>-galactopyranosyl-(1→6)-<em>O</em>-α-<smallcap>D</smallcap>-galactopyranosyl-(1→6)-, α-<smallcap>D</span>-;Stachyose;β-<span class=\"text-smallcaps\">D</smallcap>-Fructofuranosyl <em>O</em>-α-<smallcap>D</smallcap>-galactopyranosyl-(1→6)-<em>O</em>-α-<smallcap>D</smallcap>-galactopyranosyl-(1→6)-α-<smallcap>D</span>-glucopyranoside;<span class=\"text-smallcaps\">D</span>-Stachyose",
    "duplicated_cas_no": "11036-79-6;60112-16-5;127230-14-2;128301-28-0;1251764-69-8",
    "SMILES": "O([C@]1(CO)O[C@H](CO)[C@@H](O)[C@@H]1O)[C@H]2O[C@H](CO[C@H]3O[C@H](CO[C@H]4O[C@H](CO)[C@H](O)[C@H](O)[C@H]4O)[C@H](O)[C@H](O)[C@H]3O)[C@@H](O)[C@H](O)[C@H]2O",
    "meta_data": {
        "InChI": "InChI=1S/C24H42O21/c25-1-6-10(28)14(32)17(35)21(41-6)39-3-8-11(29)15(33)18(36)22(42-8)40-4-9-12(30)16(34)19(37)23(43-9)45-24(5-27)20(38)13(31)7(2-26)44-24/h6-23,25-38H,1-5H2/t6-,7-,8-,9-,10+,11+,12-,13-,14+,15+,16+,17-,18-,19-,20+,21+,22+,23-,24+/m1/s1",
        "InChIKey": null,
        "Canonical SMILES": "OCC1OC(OCC2OC(OCC3OC(OC4(OC(CO)C(O)C4O)CO)C(O)C(O)C3O)C(O)C(O)C2O)C(O)C(O)C1O",
        "Molecular Formula": "C<sub>24</sub>H<sub>42</sub>O<sub>21</sub>",
        "Molecular Mass": "666.58",
        "Melting Point": "101-105 °C"
    }
}