{
    "cas_no": "1245649-46-0",
    "key_name": "1-Butyl-3,5-difluorobenzene",
    "cn_name": null,
    "alternate_name": "Benzene, 1-butyl-3,5-difluoro-;1-Butyl-3,5-difluorobenzene",
    "duplicated_cas_no": "",
    "SMILES": "C(CCC)C1=CC(F)=CC(F)=C1",
    "meta_data": {
        "InChI": "InChI=1S/C10H12F2/c1-2-3-4-8-5-9(11)7-10(12)6-8/h5-7H,2-4H2,1H3",
        "InChIKey": null,
        "Canonical SMILES": "FC=1C=C(F)C=C(C1)CCCC",
        "Molecular Formula": "C<sub>10</sub>H<sub>12</sub>F<sub>2</sub>",
        "Molecular Mass": "170.20",
        "Boiling Point": "90 °C @ Press: 35 mmHg"
    }
}