{
    "cas_no": "34737-89-8",
    "key_name": "1-Benzyl-3-methylpiperidin-4-one",
    "cn_name": "1-苄基-3-甲基-4-哌啶酮;",
    "alternate_name": "4-Piperidinone, 3-methyl-1-(phenylmethyl)-;4-Piperidone, 1-benzyl-3-methyl-;3-Methyl-1-(phenylmethyl)-4-piperidinone;1-Benzyl-3-methyl-4-piperidone;<em>N</em>-Benzyl-3-methyl-4-piperidone;1-Benzyl-3-methyl-4-oxopiperidine;1-Benzyl-3-methylpiperidin-4-one;<em>N</em>-Benzyl-3-methyl-4-piperidinone",
    "duplicated_cas_no": "130149-74-5",
    "SMILES": "C(N1CC(C)C(=O)CC1)C2=CC=CC=C2",
    "meta_data": {
        "InChI": "InChI=1S/C13H17NO/c1-11-9-14(8-7-13(11)15)10-12-5-3-2-4-6-12/h2-6,11H,7-10H2,1H3",
        "InChIKey": null,
        "Canonical SMILES": "O=C1CCN(CC=2C=CC=CC2)CC1C",
        "Molecular Formula": "C<sub>13</sub>H<sub>17</sub>NO",
        "Molecular Mass": "203.28",
        "Boiling Point": "112-117 °C @ Press: 1 Torr"
    }
}