{
    "cas_no": "678-77-3",
    "key_name": "2,2,3,3,4,4-Hexafluoropentanedioyl dichloride",
    "cn_name": "六氟戊二酰氯;",
    "alternate_name": "Pentanedioyl dichloride, 2,2,3,3,4,4-hexafluoro-;Glutaryl chloride, hexafluoro-;Pentanedioyl dichloride, hexafluoro-;2,2,3,3,4,4-Hexafluoropentanedioyl dichloride;Perfluoroglutaryl chloride;Hexafluoroglutaryl chloride;Hexafluoroglutaryl dichloride;NSC 41888",
    "duplicated_cas_no": "",
    "SMILES": "C(C(C(Cl)=O)(F)F)(C(C(Cl)=O)(F)F)(F)F",
    "meta_data": {
        "InChI": "InChI=1S/C5Cl2F6O2/c6-1(14)3(8,9)5(12,13)4(10,11)2(7)15",
        "InChIKey": null,
        "Canonical SMILES": "O=C(Cl)C(F)(F)C(F)(F)C(F)(F)C(=O)Cl",
        "Molecular Formula": "C<sub>5</sub>Cl<sub>2</sub>F<sub>6</sub>O<sub>2</sub>",
        "Molecular Mass": "276.95",
        "Boiling Point": "110 °C"
    }
}