{
    "cas_no": "91-19-0",
    "key_name": "Quinoxaline",
    "cn_name": "喹喔啉;苯并吡嗪;1,4-二氮萘;",
    "alternate_name": "Quinoxaline;1,4-Benzodiazine;Benzoparadiazine;Benzopyrazine;Benzo[<em>a</em>]pyrazine;1,4-Diazanaphthalene;Phenopiazine;Phenpiazine;Quinazine;1,4-Naphthyridine",
    "duplicated_cas_no": "",
    "SMILES": "C12=C(N=CC=N1)C=CC=C2",
    "meta_data": {
        "InChI": "InChI=1S/C8H6N2/c1-2-4-8-7(3-1)9-5-6-10-8/h1-6H",
        "InChIKey": null,
        "Canonical SMILES": "N1=CC=NC2=CC=CC=C12",
        "Molecular Formula": "C<sub>8</sub>H<sub>6</sub>N<sub>2</sub>",
        "Molecular Mass": "130.15",
        "Boiling Point": "229.5 °C",
        "Melting Point": "28 °C"
    }
}