{
    "cas_no": "14099-81-1",
    "key_name": "1,2,3,4-Tetrahydroisoquinoline hydrochloride",
    "cn_name": "1,2,3,4-四氢异喹啉盐酸盐;",
    "alternate_name": "Isoquinoline, 1,2,3,4-tetrahydro-, hydrochloride (1:1);Isoquinoline, 1,2,3,4-tetrahydro-, hydrochloride;1,2,3,4-Tetrahydroisoquinoline hydrochloride",
    "duplicated_cas_no": "",
    "SMILES": "C=12C(=CC=CC1)CNCC2.Cl",
    "meta_data": {
        "InChI": "InChI=1S/C9H11N.ClH/c1-2-4-9-7-10-6-5-8(9)3-1;/h1-4,10H,5-7H2;1H",
        "InChIKey": null,
        "Canonical SMILES": "Cl.C=1C=CC2=C(C1)CNCC2",
        "Molecular Formula": "C<sub>9</sub>H<sub>11</sub>N.ClH",
        "Molecular Mass": "",
        "Melting Point": "195-196 °C"
    }
}