{
    "cas_no": "80-30-8",
    "key_name": "<em>N</em>-Cyclohexyl-4-toluenesulfonamide",
    "cn_name": "N-环己基对甲苯磺酰胺;",
    "alternate_name": "Benzenesulfonamide, <em>N</em>-cyclohexyl-4-methyl-;<em>p</em>-Toluenesulfonamide, <em>N</em>-cyclohexyl-;<em>N</em>-Cyclohexyl-4-methylbenzenesulfonamide;<em>N</em>-Cyclohexyl-<em>p</em>-toluenesulfonamide;Santicizer 1H;<em>N</em>-Cyclohexyl-4-toluenesulfonamide;(Tosylamino)cyclohexane;<em>N</em>-Cyclohexyl-4-methylphenylsulfonamide;NSC 14856;NSC 48143;Topcizer 8;<em>N</em>-Tosylcyclohexanamine",
    "duplicated_cas_no": "",
    "SMILES": "S(NC1CCCCC1)(=O)(=O)C2=CC=C(C)C=C2",
    "meta_data": {
        "InChI": "InChI=1S/C13H19NO2S/c1-11-7-9-13(10-8-11)17(15,16)14-12-5-3-2-4-6-12/h7-10,12,14H,2-6H2,1H3",
        "InChIKey": null,
        "Canonical SMILES": "O=S(=O)(NC1CCCCC1)C2=CC=C(C=C2)C",
        "Molecular Formula": "C<sub>13</sub>H<sub>19</sub>NO<sub>2</sub>S",
        "Molecular Mass": "253.36",
        "Melting Point": "86.5-88.0 °C"
    }
}