{
    "cas_no": "40951-69-7",
    "key_name": "Taxiresinol",
    "cn_name": null,
    "alternate_name": "1,2-Benzenediol, 4-[(2<em>S</em>,3<em>R</em>,4<em>R</em>)-tetrahydro-4-[(4-hydroxy-3-methoxyphenyl)methyl]-3-(hydroxymethyl)-2-furanyl]-;4-[(2<em>S</em>,3<em>R</em>,4<em>R</em>)-Tetrahydro-4-[(4-hydroxy-3-methoxyphenyl)methyl]-3-(hydroxymethyl)-2-furanyl]-1,2-benzenediol;Taxiresinol;(+)-Taxiresinol",
    "duplicated_cas_no": "",
    "SMILES": "C(O)[C@@H]1[C@H](OC[C@@H]1CC2=CC(OC)=C(O)C=C2)C3=CC(O)=C(O)C=C3",
    "meta_data": {
        "InChI": "InChI=1S/C19H22O6/c1-24-18-7-11(2-4-16(18)22)6-13-10-25-19(14(13)9-20)12-3-5-15(21)17(23)8-12/h2-5,7-8,13-14,19-23H,6,9-10H2,1H3/t13-,14-,19+/m0/s1",
        "InChIKey": null,
        "Canonical SMILES": "OC1=CC=C(C=C1O)C2OCC(CC3=CC=C(O)C(OC)=C3)C2CO",
        "Molecular Formula": "C<sub>19</sub>H<sub>22</sub>O<sub>6</sub>",
        "Molecular Mass": "346.37",
        "Melting Point": "157-158 °C"
    }
}