{
    "cas_no": "479-50-5",
    "key_name": "Lucanthone",
    "cn_name": "硫坎酮;硫蒽酮;1-((2-(二乙基氨基)乙基)氨基)-4-甲基硫杂蒽-9-酮;",
    "alternate_name": "9<em>H</em>-Thioxanthen-9-one, 1-[[2-(diethylamino)ethyl]amino]-4-methyl-;Thioxanthen-9-one, 1-[[2-(diethylamino)ethyl]amino]-4-methyl-;1-[[2-(Diethylamino)ethyl]amino]-4-methyl-9<em>H</em>-thioxanthen-9-one;1-(2-Diethylaminoethylamino)-4-methylthiaxanthen-9-one;Lucanthone;NSC 20530;MeSH ID: D008154",
    "duplicated_cas_no": "",
    "SMILES": "N(CCN(CC)CC)C1=C2C(SC=3C(C2=O)=CC=CC3)=C(C)C=C1",
    "meta_data": {
        "InChI": "InChI=1S/C20H24N2OS/c1-4-22(5-2)13-12-21-16-11-10-14(3)20-18(16)19(23)15-8-6-7-9-17(15)24-20/h6-11,21H,4-5,12-13H2,1-3H3",
        "InChIKey": null,
        "Canonical SMILES": "O=C1C=2C=CC=CC2SC=3C(=CC=C(NCCN(CC)CC)C13)C",
        "Molecular Formula": "C<sub>20</sub>H<sub>24</sub>N<sub>2</sub>OS",
        "Molecular Mass": "340.48",
        "Melting Point": "64-65 °C"
    }
}