{
    "cas_no": "574-25-4",
    "key_name": "6-Thioinosine",
    "cn_name": "6-巯基嘌呤核苷;6-巯基嘌呤-9-D-核苷;",
    "alternate_name": "Inosine, 6-thio-;9<em>H</em>-Purine-6(1<em>H</em>)-thione, 9-β-<span class=\"text-smallcaps\">D</span>-ribofuranosyl-;9<em>H</em>-Purine-6-thiol, 9-β-<span class=\"text-smallcaps\">D</span>-ribofuranosyl-;6-Thioinosine;6-Mercaptopurine ribonucleoside;6-Mercaptopurine riboside;9-β-<span class=\"text-smallcaps\">D</span>-Ribofuranosyl-6-mercaptopurine;Thioinosine;6-Thiopurine riboside;9-β-<span class=\"text-smallcaps\">D</span>-Ribofuranosyl-9<em>H</em>-purine-6-thiol;6-Mercapto-9-β-<span class=\"text-smallcaps\">D</span>-ribofuranosyl-9<em>H</em>-purine;6<em>H</em>-Purine-6-thione, 1,9-dihydro-9-β-<span class=\"text-smallcaps\">D</span>-ribofuranosyl-;Ribosyl-6-thiopurine;9-β-<span class=\"text-smallcaps\">D</span>-Ribofuranosylpurine-6-thione;6-Thiopurine ribonucleoside;NSC 4911;6-MPR;6-Mercaptoinosine;9-β-<span class=\"text-smallcaps\">D</span>-Ribofuranosylpurine-6-thiol;6-Mercaptopurine 9-β-<span class=\"text-smallcaps\">D</span>-ribofuranoside;9-β-<span class=\"text-smallcaps\">D</span>-Ribofuranosyl-9<em>H</em>-purine-6-thione;Chembridge 5676375",
    "duplicated_cas_no": "653-58-7;94919-88-7",
    "SMILES": "O[C@H]1[C@H](N2C3=C(N=C2)C(=S)N=CN3)O[C@H](CO)[C@H]1O",
    "meta_data": {
        "InChI": "InChI=1S/C10H12N4O4S/c15-1-4-6(16)7(17)10(18-4)14-3-13-5-8(14)11-2-12-9(5)19/h2-4,6-7,10,15-17H,1H2,(H,11,12,19)/t4-,6-,7-,10-/m1/s1",
        "InChIKey": null,
        "Canonical SMILES": "S=C1N=CNC2=C1N=CN2C3OC(CO)C(O)C3O",
        "Molecular Formula": "C<sub>10</sub>H<sub>12</sub>N<sub>4</sub>O<sub>4</sub>S",
        "Molecular Mass": "284.29",
        "Melting Point": "198-200 °C (decomp)"
    }
}