{
    "cas_no": "532-43-4",
    "key_name": "Thiamine nitrate",
    "cn_name": "硝酸硫胺;维生素B1硝酸盐;3-[(4-氨基-2-甲基-5-嘧啶基)甲基]-5-(2-羟乙基)-4-甲基噻唑鎓硝酸盐;",
    "alternate_name": "Thiazolium, 3-[(4-amino-2-methyl-5-pyrimidinyl)methyl]-5-(2-hydroxyethyl)-4-methyl-, nitrate (1:1);Thiamine nitrate (salt);Thiamine nitrate;Thiazolium, 3-[(4-amino-2-methyl-5-pyrimidinyl)methyl]-5-(2-hydroxyethyl)-4-methyl-, nitrate (salt);3-(4-Amino-2-methylpyrimidyl-5-methyl)-4-methyl-5,β-hydroxyethylthiazolium nitrate;Aneurine mononitrate;Betabion mononitrate;Thiamine mononitrate;Vitamin B<sub>1</sub> mononitrate;Vitamin B<sub>1</sub> nitrate;Aneurine-nitrate",
    "duplicated_cas_no": "92739-10-1;1210110-58-9",
    "SMILES": "N(=O)(=O)[O-].C([N+]=1C(C)=C(CCO)SC1)C=2C(N)=NC(C)=NC2",
    "meta_data": {
        "InChI": "InChI=1S/C12H17N4OS.NO3/c1-8-11(3-4-17)18-7-16(8)6-10-5-14-9(2)15-12(10)13;2-1(3)4/h5,7,17H,3-4,6H2,1-2H3,(H2,13,14,15);/q+1;-1",
        "InChIKey": null,
        "Canonical SMILES": "O=N(=O)[O-].OCCC=1SC=[N+](C1C)CC2=CN=C(N=C2N)C",
        "Molecular Formula": "C<sub>12</sub>H<sub>17</sub>N<sub>4</sub>OS.NO<sub>3</sub>",
        "Molecular Mass": "",
        "Melting Point": "196-200 °C (decomp)"
    }
}