{
    "cas_no": "1631-28-3",
    "key_name": "<em>N</em>-(4-Methylphenyl)maleimide",
    "cn_name": null,
    "alternate_name": "1<em>H</em>-Pyrrole-2,5-dione, 1-(4-methylphenyl)-;Maleimide, <em>N</em>-<em>p</em>-tolyl-;1-(4-Methylphenyl)-1<em>H</em>-pyrrole-2,5-dione;<em>N</em>-<em>p</em>-Tolylmaleimide;<em>p</em>-Tolylmaleimide;<em>N</em>-(4-Methylphenyl)maleimide;<em>N</em>-(<em>p</em>-Methylphenyl)maleimide;<em>N</em>-4-Tolylmaleimide;IT 510;NSC 13691;1-<em>p</em>-Tolyl-pyrrole-2,5-dione;1-(4-Methylphenyl)-2,5-dihydro-1<em>H</em>-pyrrole-2,5-dione",
    "duplicated_cas_no": "",
    "SMILES": "O=C1N(C(=O)C=C1)C2=CC=C(C)C=C2",
    "meta_data": {
        "InChI": "InChI=1S/C11H9NO2/c1-8-2-4-9(5-3-8)12-10(13)6-7-11(12)14/h2-7H,1H3",
        "InChIKey": null,
        "Canonical SMILES": "O=C1C=CC(=O)N1C2=CC=C(C=C2)C",
        "Molecular Formula": "C<sub>11</sub>H<sub>9</sub>NO<sub>2</sub>",
        "Molecular Mass": "187.19",
        "Melting Point": "149-150 °C"
    }
}