{
    "cas_no": "59337-92-7",
    "key_name": "Methyl 3-(chlorosulfonyl)-2-thiophenecarboxylate",
    "cn_name": "3-氯磺酰基-2-噻吩甲酸甲酯;",
    "alternate_name": "2-Thiophenecarboxylic acid, 3-(chlorosulfonyl)-, methyl ester;Methyl 3-(chlorosulfonyl)-2-thiophenecarboxylate;3-(Chlorosulfonyl)-2-(methoxycarbonyl)thiophene;2-(Carbomethoxy)thiophene-3-sulfonyl chloride;2-Methoxycarbonyl-3-thiophenesulfonyl chloride;3-Chlorosulfonylthiophene-2-carboxylic acid methyl ester",
    "duplicated_cas_no": "",
    "SMILES": "S(Cl)(=O)(=O)C1=C(C(OC)=O)SC=C1",
    "meta_data": {
        "InChI": "InChI=1S/C6H5ClO4S2/c1-11-6(8)5-4(2-3-12-5)13(7,9)10/h2-3H,1H3",
        "InChIKey": null,
        "Canonical SMILES": "O=C(OC)C=1SC=CC1S(=O)(=O)Cl",
        "Molecular Formula": "C<sub>6</sub>H<sub>5</sub>ClO<sub>4</sub>S<sub>2</sub>",
        "Molecular Mass": "240.68",
        "Melting Point": "63-64 °C"
    }
}