{
    "cas_no": "1678-92-8",
    "key_name": "Propylcyclohexane",
    "cn_name": null,
    "alternate_name": "Cyclohexane, propyl-;Propylcyclohexane;<em>n</em>-Propylcyclohexane;NSC 44885;Prop-3-yl-cyclohexane",
    "duplicated_cas_no": "",
    "SMILES": "C(CC)C1CCCCC1",
    "meta_data": {
        "InChI": "InChI=1S/C9H18/c1-2-6-9-7-4-3-5-8-9/h9H,2-8H2,1H3",
        "InChIKey": null,
        "Canonical SMILES": "CCCC1CCCCC1",
        "Molecular Formula": "C<sub>9</sub>H<sub>18</sub>",
        "Molecular Mass": "126.24",
        "Boiling Point": "156.7 °C",
        "Melting Point": "-94.9 °C",
        "Density": "0.7898 g/cm³ @ Temp: 20 °C"
    }
}