{
    "cas_no": "798-61-8",
    "key_name": "7-<em>O</em>-Methylafromosin",
    "cn_name": "4\",6,7-三甲氧基异黄酮;",
    "alternate_name": "4<em>H</em>-1-Benzopyran-4-one, 6,7-dimethoxy-3-(4-methoxyphenyl)-;Isoflavone, 4′,6,7-trimethoxy-;6,7-Dimethoxy-3-(4-methoxyphenyl)-4<em>H</em>-1-benzopyran-4-one;Texasin dimethyl ether;7-<em>O</em>-Methylafromosin;Afromosin 7-<em>O</em>-methyl ether",
    "duplicated_cas_no": "",
    "SMILES": "O=C1C=2C(=CC(OC)=C(OC)C2)OC=C1C3=CC=C(OC)C=C3",
    "meta_data": {
        "InChI": "InChI=1S/C18H16O5/c1-20-12-6-4-11(5-7-12)14-10-23-15-9-17(22-3)16(21-2)8-13(15)18(14)19/h4-10H,1-3H3",
        "InChIKey": null,
        "Canonical SMILES": "O=C1C(=COC2=CC(OC)=C(OC)C=C21)C=3C=CC(OC)=CC3",
        "Molecular Formula": "C<sub>18</sub>H<sub>16</sub>O<sub>5</sub>",
        "Molecular Mass": "312.32",
        "Melting Point": "174-175 °C"
    }
}