{
    "cas_no": "868-57-5",
    "key_name": "(±)-Methyl 2-methylbutanoate",
    "cn_name": "2-甲基丁酸甲酯;",
    "alternate_name": "Butanoic acid, 2-methyl-, methyl ester;Butyric acid, 2-methyl-, methyl ester;Butyric acid, α-methyl-, methyl ester;Methyl 2-methylbutyrate;Methyl α-methylbutyrate;2-Methylbutanoic acid methyl ester;Methyl 2-methylbutanoate;Methyl α-methylbutanoate;α-Methylbutyric acid methyl ester;Methyl anteisovalerate;Methyl <em>dl</em>-α-methylbutyrate;(±)-Methyl α-methylbutyrate;(±)-Methyl 2-methylbutanoate;Methyl (±)-2-methylbutanoate;2-Methylbutyric acid methyl ester",
    "duplicated_cas_no": "53955-81-0",
    "SMILES": "C(C(OC)=O)(CC)C",
    "meta_data": {
        "InChI": "InChI=1S/C6H12O2/c1-4-5(2)6(7)8-3/h5H,4H2,1-3H3",
        "InChIKey": null,
        "Canonical SMILES": "O=C(OC)C(C)CC",
        "Molecular Formula": "C<sub>6</sub>H<sub>12</sub>O<sub>2</sub>",
        "Molecular Mass": "116.16",
        "Boiling Point": "112-115 °C",
        "Density": "0.8757 g/cm³ @ Temp: 25 °C"
    }
}