{
    "cas_no": "863578-36-3",
    "key_name": "5-Methyl-2-(4,4,5,5-tetramethyl-1,3,2-dioxaborolan-2-yl)benzenamine",
    "cn_name": null,
    "alternate_name": "Benzenamine, 5-methyl-2-(4,4,5,5-tetramethyl-1,3,2-dioxaborolan-2-yl)-;5-Methyl-2-(4,4,5,5-tetramethyl-1,3,2-dioxaborolan-2-yl)benzenamine;5-Methyl-2-(4,4,5,5-tetramethyl-1,3,2-dioxaborolan-2-yl)aniline;2-(2-Amino-4-methylphenyl)-4,4,5,5-tetramethyl-1,3,2-dioxaborolane",
    "duplicated_cas_no": "",
    "SMILES": "NC1=C(C=CC(C)=C1)B2OC(C)(C)C(C)(C)O2",
    "meta_data": {
        "InChI": "InChI=1S/C13H20BNO2/c1-9-6-7-10(11(15)8-9)14-16-12(2,3)13(4,5)17-14/h6-8H,15H2,1-5H3",
        "InChIKey": null,
        "Canonical SMILES": "O1B(OC(C)(C)C1(C)C)C2=CC=C(C=C2N)C",
        "Molecular Formula": "C<sub>13</sub>H<sub>20</sub>BNO<sub>2</sub>",
        "Molecular Mass": "233.11",
        "Melting Point": "68 °C"
    }
}