{
    "cas_no": "7338-27-4",
    "key_name": "Methyl itaconate",
    "cn_name": null,
    "alternate_name": "Butanedioic acid, 2-methylene-, 4-methyl ester;Succinic acid, methylene-, 4-methyl ester;Butanedioic acid, methylene-, 4-methyl ester;Methyl itaconate;Itaconic acid β-methyl ester;Methyl 3-carboxy-3-butenoate;β-Methyl itaconate;NSC 144957;Methyl 1-carboxy-1-(methylene)-3-propanoate;Itaconic acid 4-methyl ester;β-Methyl hydrogen itaconate;4-Methoxy-2-methylene-4-oxobutanoic acid;4-Methoxy-2-methylidene-4-oxobutanoic acid;4-Methyl itaconate;3-Methoxycarbonyl-2-methylene propanoic acid",
    "duplicated_cas_no": "",
    "SMILES": "C(C(C(O)=O)=C)C(OC)=O",
    "meta_data": {
        "InChI": "InChI=1S/C6H8O4/c1-4(6(8)9)3-5(7)10-2/h1,3H2,2H3,(H,8,9)",
        "InChIKey": null,
        "Canonical SMILES": "O=C(O)C(=C)CC(=O)OC",
        "Molecular Formula": "C<sub>6</sub>H<sub>8</sub>O<sub>4</sub>",
        "Molecular Mass": "144.13",
        "Boiling Point": "149-151 °C @ Press: 10 Torr",
        "Melting Point": "67-70 °C"
    }
}