{
    "cas_no": "5217-47-0",
    "key_name": "1,3-Diethyl-2-thiobarbituric acid",
    "cn_name": "1,3-二乙基-2-硫代巴比妥酸;",
    "alternate_name": "4,6(1<em>H</em>,5<em>H</em>)-Pyrimidinedione, 1,3-diethyldihydro-2-thioxo-;Barbituric acid, 1,3-diethyl-2-thio-;1,3-Diethyldihydro-2-thioxo-4,6(1<em>H</em>,5<em>H</em>)-pyrimidinedione;<em>N</em>,<em>N</em>′-Diethyl-2-thiobarbituric acid;1,3-Diethyl-2-thiobarbituric acid;<em>N</em>,<em>N</em>′-Diethylthiobarbituric acid;1,3-Diethylthiobarbituric acid;NSC 158284;1,3-Diethyl-2-sulfanylidene-1,3-diazinane-4,6-dione",
    "duplicated_cas_no": "61732-60-3;1190104-61-0;2606824-87-5",
    "SMILES": "C(C)N1C(=S)N(CC)C(=O)CC1=O",
    "meta_data": {
        "InChI": "InChI=1S/C8H12N2O2S/c1-3-9-6(11)5-7(12)10(4-2)8(9)13/h3-5H2,1-2H3",
        "InChIKey": null,
        "Canonical SMILES": "O=C1N(C(=S)N(C(=O)C1)CC)CC",
        "Molecular Formula": "C<sub>8</sub>H<sub>12</sub>N<sub>2</sub>O<sub>2</sub>S",
        "Molecular Mass": "200.26",
        "Melting Point": "101-103 °C"
    }
}