{
    "cas_no": "39562-58-8",
    "key_name": "4,4-Dimethoxy-2-butanol",
    "cn_name": null,
    "alternate_name": "2-Butanol, 4,4-dimethoxy-;Butyraldehyde, 3-hydroxy-, dimethyl acetal;4,4-Dimethoxy-2-butanol;3-Hydroxybutyraldehyde dimethyl acetal;Aldol dimethyl acetal",
    "duplicated_cas_no": "91796-45-1",
    "SMILES": "C(CC(C)O)(OC)OC",
    "meta_data": {
        "InChI": "InChI=1S/C6H14O3/c1-5(7)4-6(8-2)9-3/h5-7H,4H2,1-3H3",
        "InChIKey": null,
        "Canonical SMILES": "OC(C)CC(OC)OC",
        "Molecular Formula": "C<sub>6</sub>H<sub>14</sub>O<sub>3</sub>",
        "Molecular Mass": "134.17",
        "Boiling Point": "71-76 °C @ Press: 9 Torr",
        "Density": "0.9894 g/cm³ @ Temp: 18 °C"
    }
}