{
    "cas_no": "7532-85-6",
    "key_name": "Dichlorodiethenylstannane",
    "cn_name": "二乙烯基二氯化锡;",
    "alternate_name": "Stannane, dichlorodiethenyl-;Stannane, dichlorodivinyl-;Tin, dichlorodivinyl-;Divinyltin dichloride;Dichlorodiethenylstannane;Dichlorodivinylstannane;Dichlorodivinyltin",
    "duplicated_cas_no": "",
    "SMILES": "[Sn](C=C)(C=C)(Cl)Cl",
    "meta_data": {
        "InChI": "InChI=1S/2C2H3.2ClH.Sn/c2*1-2;;;/h2*1H,2H2;2*1H;/q;;;;+2/p-2",
        "InChIKey": null,
        "Canonical SMILES": "Cl[Sn](Cl)(C=C)C=C",
        "Molecular Formula": "C<sub>4</sub>H<sub>6</sub>Cl<sub>2</sub>Sn",
        "Molecular Mass": "243.71",
        "Boiling Point": "54-56 °C @ Press: 3 Torr",
        "Melting Point": "74.5-75.5 °C",
        "Density": "1.7645 g/cm³ @ Temp: 20 °C"
    }
}