{
    "cas_no": "57009-12-8",
    "key_name": "Methyl 3-acetyl-4-hydroxybenzoate",
    "cn_name": null,
    "alternate_name": "Benzoic acid, 3-acetyl-4-hydroxy-, methyl ester;Methyl 3-acetyl-4-hydroxybenzoate;4-Hydroxy-3-acetylbenzoic acid methyl ester;3-Acetyl-4-hydroxy-benzoic acid methyl ester",
    "duplicated_cas_no": "",
    "SMILES": "C(OC)(=O)C1=CC(C(C)=O)=C(O)C=C1",
    "meta_data": {
        "InChI": "InChI=1S/C10H10O4/c1-6(11)8-5-7(10(13)14-2)3-4-9(8)12/h3-5,12H,1-2H3",
        "InChIKey": null,
        "Canonical SMILES": "O=C(OC)C1=CC=C(O)C(=C1)C(=O)C",
        "Molecular Formula": "C<sub>10</sub>H<sub>10</sub>O<sub>4</sub>",
        "Molecular Mass": "194.18",
        "Melting Point": "98 °C"
    }
}