{
    "cas_no": "823-85-8",
    "key_name": "(4-Fluorophenyl)hydrazine hydrochloride",
    "cn_name": "4-氟苯肼盐酸盐;",
    "alternate_name": "Hydrazine, (4-fluorophenyl)-, hydrochloride (1:1);Hydrazine, (<em>p</em>-fluorophenyl)-, monohydrochloride;Hydrazine, (4-fluorophenyl)-, monohydrochloride;Hydrazine, (<em>p</em>-fluorophenyl)-, hydrochloride;(<em>p</em>-Fluorophenyl)hydrazine hydrochloride;(4-Fluorophenyl)hydrazine hydrochloride;1-(4-Fluorophenyl)hydrazine hydrochloride;(4-Fluorophenyl)hydrazine monohydrochloride",
    "duplicated_cas_no": "",
    "SMILES": "N(N)C1=CC=C(F)C=C1.Cl",
    "meta_data": {
        "InChI": "InChI=1S/C6H7FN2.ClH/c7-5-1-3-6(9-8)4-2-5;/h1-4,9H,8H2;1H",
        "InChIKey": null,
        "Canonical SMILES": "Cl.FC1=CC=C(C=C1)NN",
        "Molecular Formula": "C<sub>6</sub>H<sub>7</sub>FN<sub>2</sub>.ClH",
        "Molecular Mass": "",
        "Melting Point": "200 °C (decomp)"
    }
}