{
    "cas_no": "112197-15-6",
    "key_name": "3-Iodo-2-methoxypyridine",
    "cn_name": "3-碘-2-甲氧基吡啶;",
    "alternate_name": "Pyridine, 3-iodo-2-methoxy-;3-Iodo-2-methoxypyridine",
    "duplicated_cas_no": "",
    "SMILES": "O(C)C1=C(I)C=CC=N1",
    "meta_data": {
        "InChI": "InChI=1S/C6H6INO/c1-9-6-5(7)3-2-4-8-6/h2-4H,1H3",
        "InChIKey": null,
        "Canonical SMILES": "IC1=CC=CN=C1OC",
        "Molecular Formula": "C<sub>6</sub>H<sub>6</sub>INO",
        "Molecular Mass": "235.02",
        "Boiling Point": "85 °C @ Press: 3 Torr",
        "Melting Point": "66 °C"
    }
}