{
    "cas_no": "24152-96-3",
    "key_name": "Ethanone, 2-amino-1-(4-morpholinyl)-, hydrochloride (1:1)",
    "cn_name": null,
    "alternate_name": "Ethanone, 2-amino-1-(4-morpholinyl)-, hydrochloride (1:1);Morpholine, 4-glycyl-, monohydrochloride;Morpholine, 4-(aminoacetyl)-, monohydrochloride;Morpholine, 4-glycyl-, hydrochloride;2-Amino-1-(morpholin-4-yl)ethanone hydrochloride;2-Amino-1-morpholinoethanone hydrochloride;2-Amino-1-(morpholin-4-yl)ethan-1-one hydrochloride",
    "duplicated_cas_no": "",
    "SMILES": "C(CN)(=O)N1CCOCC1.Cl",
    "meta_data": {
        "InChI": "InChI=1S/C6H12N2O2.ClH/c7-5-6(9)8-1-3-10-4-2-8;/h1-5,7H2;1H",
        "InChIKey": null,
        "Canonical SMILES": "Cl.O=C(N1CCOCC1)CN",
        "Molecular Formula": "C<sub>6</sub>H<sub>12</sub>N<sub>2</sub>O<sub>2</sub>.ClH",
        "Molecular Mass": "",
        "Melting Point": "238 °C"
    }
}