{
    "cas_no": "557-08-4",
    "key_name": "Zinc undecylenate",
    "cn_name": null,
    "alternate_name": "10-Undecenoic acid, zinc salt (2:1);10-Undecenoic acid, zinc salt;Zinc 10-undecenoate;Zinc undecylenate;Tineafax;Mycoseptin",
    "duplicated_cas_no": "30773-48-9",
    "SMILES": "C(CCCCC=C)CCCC(O)=O.[Zn]",
    "meta_data": {
        "InChI": "InChI=1S/C11H20O2.Zn/c1-2-3-4-5-6-7-8-9-10-11(12)13;/h2H,1,3-10H2,(H,12,13);",
        "InChIKey": null,
        "Canonical SMILES": "[Zn].O=C(O)CCCCCCCCC=C",
        "Molecular Formula": "C<sub>11</sub>H<sub>20</sub>O<sub>2</sub>.<sup>1</sup>/<sub>2</sub>Zn",
        "Molecular Mass": "",
        "Melting Point": "115-116 °C"
    }
}