{
    "cas_no": "150726-89-9",
    "key_name": "Propanedioic acid, 2-(2-methoxyphenoxy)-, 1,3-dimethyl ester",
    "cn_name": "2-(2-甲氧基苯氧基)丙二酸二甲酯;",
    "alternate_name": "Propanedioic acid, 2-(2-methoxyphenoxy)-, 1,3-dimethyl ester;Propanedioic acid, (2-methoxyphenoxy)-, dimethyl ester;Dimethyl 2-(2-methoxyphenoxy)malonate;Dimethyl 2-methoxyphenoxymalonate;Dimethyl (<em>o</em>-methoxyphenoxy)malonate;1,3-Dimethyl 2-(2-methoxyphenoxy)propanedioate",
    "duplicated_cas_no": "",
    "SMILES": "O(C(C(OC)=O)C(OC)=O)C1=C(OC)C=CC=C1",
    "meta_data": {
        "InChI": "InChI=1S/C12H14O6/c1-15-8-6-4-5-7-9(8)18-10(11(13)16-2)12(14)17-3/h4-7,10H,1-3H3",
        "InChIKey": null,
        "Canonical SMILES": "O=C(OC)C(OC=1C=CC=CC1OC)C(=O)OC",
        "Molecular Formula": "C<sub>12</sub>H<sub>14</sub>O<sub>6</sub>",
        "Molecular Mass": "254.24",
        "Melting Point": "38-40 °C"
    }
}