{
    "cas_no": "26093-31-2",
    "key_name": "7-Amino-4-methylcoumarin",
    "cn_name": "7-氨基-4-甲基香豆素;香豆素120;",
    "alternate_name": "2<em>H</em>-1-Benzopyran-2-one, 7-amino-4-methyl-;Coumarin, 7-amino-4-methyl-;7-Amino-4-methyl-2<em>H</em>-1-benzopyran-2-one;7-Amino-4-methylcoumarin;4-Methyl-7-aminocoumarin;Coumarin 120;C 120;Coumarin 440;7-Amino-4-methyl-2<em>H</em>-chromen-2-one;NSC 45796;7-AMC;(4-Methyl-2-oxo-2<em>H</em>-chromen-7-yl)amine;1: PN: JP2013135660 PAGE: 3 claimed sequence;7-Amino-4-methyl-chromen-2-one;4-Methyl-2-oxo-2<em>H</em>-chromen-7-amine;7-Amino-2-methylcoumarin",
    "duplicated_cas_no": "53095-32-2;54576-76-0;79818-52-3",
    "SMILES": "CC=1C=2C(OC(=O)C1)=CC(N)=CC2",
    "meta_data": {
        "InChI": "InChI=1S/C10H9NO2/c1-6-4-10(12)13-9-5-7(11)2-3-8(6)9/h2-5H,11H2,1H3",
        "InChIKey": null,
        "Canonical SMILES": "O=C1OC=2C=C(N)C=CC2C(=C1)C",
        "Molecular Formula": "C<sub>10</sub>H<sub>9</sub>NO<sub>2</sub>",
        "Molecular Mass": "175.18",
        "Melting Point": "226 °C"
    }
}