{
    "cas_no": "1440-60-4",
    "key_name": "2-Chloro-1-(1-piperidinyl)ethanone",
    "cn_name": "2-氯-1-哌啶-1-基乙酮;2-氯-1-哌啶-1-基乙酮;",
    "alternate_name": "Ethanone, 2-chloro-1-(1-piperidinyl)-;Piperidine, 1-(chloroacetyl)-;2-Chloro-1-(1-piperidinyl)ethanone;1-(Chloroacetyl)piperidine;α-Chloroacetopiperidide;<em>N</em>-(Chloroacetyl)piperidine;Chloroacetic acid piperidine amide;NSC 8198;1-(2-Chloroacetyl)piperidine;2-Chloro-1-(piperidin-1-yl)ethanone;2-Chloro-1-(piperidin-1-yl)ethan-1-one;2-Chloro-1-(piperidinyl)ethanone",
    "duplicated_cas_no": "",
    "SMILES": "C(CCl)(=O)N1CCCCC1",
    "meta_data": {
        "InChI": "InChI=1S/C7H12ClNO/c8-6-7(10)9-4-2-1-3-5-9/h1-6H2",
        "InChIKey": null,
        "Canonical SMILES": "O=C(N1CCCCC1)CCl",
        "Molecular Formula": "C<sub>7</sub>H<sub>12</sub>ClNO",
        "Molecular Mass": "161.63",
        "Boiling Point": "143.5-145.5 °C @ Press: 12.5 Torr",
        "Melting Point": "213-215 °C",
        "Density": "1.1703 g/cm³ @ Temp: 20 °C"
    }
}