{
    "cas_no": "15501-33-4",
    "key_name": "1-Iodo-2,2-dimethylpropane",
    "cn_name": "新戊基碘;碘代新戊烷;1-碘-2,2-二甲基丙烷;",
    "alternate_name": "Propane, 1-iodo-2,2-dimethyl-;1-Iodo-2,2-dimethylpropane;Neopentyl iodide;2,2-Dimethylpropyl iodide;2,2-Dimethyl-1-iodopropane;NSC 617421",
    "duplicated_cas_no": "",
    "SMILES": "C(CI)(C)(C)C",
    "meta_data": {
        "InChI": "InChI=1S/C5H11I/c1-5(2,3)4-6/h4H2,1-3H3",
        "InChIKey": null,
        "Canonical SMILES": "ICC(C)(C)C",
        "Molecular Formula": "C<sub>5</sub>H<sub>11</sub>I",
        "Molecular Mass": "198.05",
        "Boiling Point": "58-59 °C @ Press: 50 Torr",
        "Density": "1.4887 g/cm³ @ Temp: 25 °C"
    }
}