{
    "cas_no": "705-86-2",
    "key_name": "δ-Decalactone",
    "cn_name": "丁位癸内酯;5-羟基癸酸-delta-内酯;",
    "alternate_name": "2<em>H</em>-Pyran-2-one, tetrahydro-6-pentyl-;Decanoic acid, 5-hydroxy-, δ-lactone;Capric acid, δ-hydroxy-, lactone;Tetrahydro-6-pentyl-2<em>H</em>-pyran-2-one;δ-Decalactone;5-Decanolide;5-Hydroxydecanoic acid δ-lactone;δ-Amylvalerolactone;5-Pentyl-5-pentanolide;δ-Pentyl-δ-valerolactone;6-Pentyltetrahydro-2<em>H</em>-pyran-2-one;Dihydrojasmin lactone;δ-Decanolactone;(±)-5-Hydroxydecanoic acid lactone;(±)-δ-Decalactone;(<em>RS</em>)-δ-Decalactone;(±)-δ-Decanolactone;δ-Amyl-δ-valerolactone;δ-Decane lactone;6-Pentyloxan-2-one",
    "duplicated_cas_no": "35221-79-5",
    "SMILES": "C(CCCC)C1OC(=O)CCC1",
    "meta_data": {
        "InChI": "InChI=1S/C10H18O2/c1-2-3-4-6-9-7-5-8-10(11)12-9/h9H,2-8H2,1H3",
        "InChIKey": null,
        "Canonical SMILES": "O=C1OC(CCC1)CCCCC",
        "Molecular Formula": "C<sub>10</sub>H<sub>18</sub>O<sub>2</sub>",
        "Molecular Mass": "170.25",
        "Boiling Point": "113 °C @ Press: 0.5 Torr"
    }
}