{
    "cas_no": "28434-01-7",
    "key_name": "Bioresmethrin",
    "cn_name": null,
    "alternate_name": "Cyclopropanecarboxylic acid, 2,2-dimethyl-3-(2-methyl-1-propen-1-yl)-, [5-(phenylmethyl)-3-furanyl]methyl ester, (1<em>R</em>,3<em>R</em>)-;Cyclopropanecarboxylic acid, 2,2-dimethyl-3-(2-methylpropenyl)-, (5-benzyl-3-furyl)methyl ester, <em>trans</em>-(+)-;Cyclopropanecarboxylic acid, 2,2-dimethyl-3-(2-methyl-1-propenyl)-, [5-(phenylmethyl)-3-furanyl]methyl ester, (1<em>R</em>-<em>trans</em>)-;Cyclopropanecarboxylic acid, 2,2-dimethyl-3-(2-methyl-1-propenyl)-, [5-(phenylmethyl)-3-furanyl]methyl ester, (1<em>R</em>,3<em>R</em>)-;3-Furanmethanol, 5-benzyl-, 2,2-dimethyl-3-(2-methylpropenyl)cyclopropanecarboxylate, <em>trans</em>-(+)-;5-Benzyl-3-furylmethyl (+)-<em>trans</em>-chrysanthemate;Pyrethroid NRDC 107;NRDC 107;Penick 1390;Bioresmethrin;<em>d</em>-<em>trans</em>-[(5-Benzyl-3-furyl)methyl] chrysanthemumate;SBP 1390;<em>d</em>-<em>trans</em>-Chrysron;<em>d</em>-<em>trans</em>-Resmethrin;<em>d</em>-<em>trans</em>-(5-Benzyl-3-furyl)methyl chrysanthemate;NIA 18739;RU 11484;(+)-<em>trans</em>-Resmethrin;AI 3-27662;1<em>R</em>-<em>trans</em>-Resemethrin;(+)-<em>trans</em>-Bioresmethrin;Isathrine;FMC 18739;Isatrin;Resbuthrin",
    "duplicated_cas_no": "10453-54-0;24380-84-5",
    "SMILES": "C(=C(C)C)[C@@H]1[C@@H](C(OCC=2C=C(CC3=CC=CC=C3)OC2)=O)C1(C)C",
    "meta_data": {
        "InChI": "InChI=1S/C22H26O3/c1-15(2)10-19-20(22(19,3)4)21(23)25-14-17-12-18(24-13-17)11-16-8-6-5-7-9-16/h5-10,12-13,19-20H,11,14H2,1-4H3/t19-,20+/m1/s1",
        "InChIKey": null,
        "Canonical SMILES": "O=C(OCC1=COC(=C1)CC=2C=CC=CC2)C3C(C=C(C)C)C3(C)C",
        "Molecular Formula": "C<sub>22</sub>H<sub>26</sub>O<sub>3</sub>",
        "Molecular Mass": "338.44",
        "Melting Point": "30-35 °C",
        "Density": "1.05 g/cm³"
    }
}