{
    "cas_no": "1012-72-2",
    "key_name": "1,4-Di-<em>tert</em>-butylbenzene",
    "cn_name": "对二叔丁基苯;",
    "alternate_name": "Benzene, 1,4-bis(1,1-dimethylethyl)-;Benzene, <em>p</em>-di-<em>tert</em>-butyl-;1,4-Bis(1,1-dimethylethyl)benzene;<em>p</em>-Di-<em>tert</em>-butylbenzene;1,4-Di-<em>tert</em>-butylbenzene;<em>p</em>-Bis(<em>tert</em>-butyl)benzene;NSC 6342;1,4-Bis(<em>tert</em>-butyl)benzene;1,4-Di-<em>t</em>-butylbenzene;1,4-Ditert-butylbenzene",
    "duplicated_cas_no": "",
    "SMILES": "C(C)(C)(C)C1=CC=C(C(C)(C)C)C=C1",
    "meta_data": {
        "InChI": "InChI=1S/C14H22/c1-13(2,3)11-7-9-12(10-8-11)14(4,5)6/h7-10H,1-6H3",
        "InChIKey": null,
        "Canonical SMILES": "C=1C=C(C=CC1C(C)(C)C)C(C)(C)C",
        "Molecular Formula": "C<sub>14</sub>H<sub>22</sub>",
        "Molecular Mass": "190.32",
        "Boiling Point": "238 °C",
        "Melting Point": "79.5 °C",
        "Density": "0.985 g/cm³ @ Temp: 20 °C; Press: 750 Torr"
    }
}