{
    "cas_no": "57470-78-7",
    "key_name": "Celiprolol hydrochloride",
    "cn_name": "盐酸塞利洛尔;3-[3-乙酰-4-(3-叔丁胺基)-2-羟基丙氧基]苯基-1,1-二乙基脲盐酸盐;",
    "alternate_name": "Urea, <em>N</em>′-[3-acetyl-4-[3-[(1,1-dimethylethyl)amino]-2-hydroxypropoxy]phenyl]-<em>N</em>,<em>N</em>-diethyl-, hydrochloride (1:1);Urea, <em>N</em>′-[3-acetyl-4-[3-[(1,1-dimethylethyl)amino]-2-hydroxypropoxy]phenyl]-<em>N</em>,<em>N</em>-diethyl-, monohydrochloride;ST 1396;Celiprolol hydrochloride;REV 5320A;Celectol;Selecor;Corliprol;NSC 324509;Tenoloc",
    "duplicated_cas_no": "",
    "SMILES": "O(CC(CNC(C)(C)C)O)C1=C(C(C)=O)C=C(NC(N(CC)CC)=O)C=C1.Cl",
    "meta_data": {
        "InChI": "InChI=1S/C20H33N3O4.ClH/c1-7-23(8-2)19(26)22-15-9-10-18(17(11-15)14(3)24)27-13-16(25)12-21-20(4,5)6;/h9-11,16,21,25H,7-8,12-13H2,1-6H3,(H,22,26);1H",
        "InChIKey": null,
        "Canonical SMILES": "Cl.O=C(NC1=CC=C(OCC(O)CNC(C)(C)C)C(=C1)C(=O)C)N(CC)CC",
        "Molecular Formula": "C<sub>20</sub>H<sub>33</sub>N<sub>3</sub>O<sub>4</sub>.ClH",
        "Molecular Mass": "",
        "Melting Point": "197-200 °C (decomp)"
    }
}