{
    "cas_no": "595-89-1",
    "key_name": "Tetraphenyllead",
    "cn_name": "四苯基铅;",
    "alternate_name": "Plumbane, tetraphenyl-;Lead, tetraphenyl-;Tetraphenylplumbane;Tetraphenyllead;NSC 12568",
    "duplicated_cas_no": "",
    "SMILES": "[Pb](C1=CC=CC=C1)(C2=CC=CC=C2)(C3=CC=CC=C3)C4=CC=CC=C4",
    "meta_data": {
        "InChI": "InChI=1S/4C6H5.Pb/c4*1-2-4-6-5-3-1;/h4*1-5H;",
        "InChIKey": null,
        "Canonical SMILES": "C=1C=CC(=CC1)[Pb](C=2C=CC=CC2)(C=3C=CC=CC3)C=4C=CC=CC4",
        "Molecular Formula": "C<sub>24</sub>H<sub>20</sub>Pb",
        "Molecular Mass": "515.62",
        "Melting Point": "228.3 °C",
        "Density": "1.53 g/cm³"
    }
}