{
    "cas_no": "1048-05-1",
    "key_name": "Tetraphenylgermane",
    "cn_name": "四苯基锗;",
    "alternate_name": "Germane, tetraphenyl-;Tetraphenylgermane;Tetraphenylgermanium;NSC 12140",
    "duplicated_cas_no": "",
    "SMILES": "[Ge](C1=CC=CC=C1)(C2=CC=CC=C2)(C3=CC=CC=C3)C4=CC=CC=C4",
    "meta_data": {
        "InChI": "InChI=1S/C24H20Ge/c1-5-13-21(14-6-1)25(22-15-7-2-8-16-22,23-17-9-3-10-18-23)24-19-11-4-12-20-24/h1-20H",
        "InChIKey": null,
        "Canonical SMILES": "C=1C=CC(=CC1)[Ge](C=2C=CC=CC2)(C=3C=CC=CC3)C=4C=CC=CC4",
        "Molecular Formula": "C<sub>24</sub>H<sub>20</sub>Ge",
        "Molecular Mass": "381.06",
        "Boiling Point": "210 °C @ Press: 1 Torr",
        "Melting Point": "231-234 °C"
    }
}