{
    "cas_no": "1576-84-7",
    "key_name": "3-Buten-1-ol, 1-acetate",
    "cn_name": "3-丁烯基醋酸;",
    "alternate_name": "3-Buten-1-ol, 1-acetate;3-Buten-1-ol, acetate;3-Butenyl acetate;2-Vinylethyl acetate;4-Acetoxy-1-butene;1-Acetoxy-3-butene;NSC 157648",
    "duplicated_cas_no": "",
    "SMILES": "O(CCC=C)C(C)=O",
    "meta_data": {
        "InChI": "InChI=1S/C6H10O2/c1-3-4-5-8-6(2)7/h3H,1,4-5H2,2H3",
        "InChIKey": null,
        "Canonical SMILES": "O=C(OCCC=C)C",
        "Molecular Formula": "C<sub>6</sub>H<sub>10</sub>O<sub>2</sub>",
        "Molecular Mass": "114.14",
        "Boiling Point": "125 °C",
        "Density": "0.918 g/cm³ @ Temp: 15 °C"
    }
}