{
    "cas_no": "7803-88-5",
    "key_name": "<em>O</em>-Methylguanosine",
    "cn_name": null,
    "alternate_name": "Guanosine, 6-<em>O</em>-methyl-;9<em>H</em>-Purine, 2-amino-6-methoxy-9-β-<span class=\"text-smallcaps\">D</span>-ribofuranosyl-;6-<em>O</em>-Methylguanosine;2-Amino-6-methoxypurine ribonucleoside;6-Methoxy-9-β-<span class=\"text-smallcaps\">D</span>-ribofuranosyl-9<em>H</em>-purin-2-amine;<em>O</em>-Methylguanosine;<em>O</em><sup>6</sup>-Methylguanosine;NSC 66381;6-Methylguanosine",
    "duplicated_cas_no": "",
    "SMILES": "O[C@H]1[C@H](N2C=3C(N=C2)=C(OC)N=C(N)N3)O[C@H](CO)[C@H]1O",
    "meta_data": {
        "InChI": "InChI=1S/C11H15N5O5/c1-20-9-5-8(14-11(12)15-9)16(3-13-5)10-7(19)6(18)4(2-17)21-10/h3-4,6-7,10,17-19H,2H2,1H3,(H2,12,14,15)/t4-,6-,7-,10-/m1/s1",
        "InChIKey": null,
        "Canonical SMILES": "OCC1OC(N2C=NC=3C(=NC(=NC32)N)OC)C(O)C1O",
        "Molecular Formula": "C<sub>11</sub>H<sub>15</sub>N<sub>5</sub>O<sub>5</sub>",
        "Molecular Mass": "297.27",
        "Melting Point": "120 °C"
    }
}