{
    "cas_no": "3304-59-4",
    "key_name": "2-(4-Nitrophenyl) 1-(phenylmethyl) (2<em>S</em>)-1,2-pyrrolidinedicarboxylate",
    "cn_name": null,
    "alternate_name": "1,2-Pyrrolidinedicarboxylic acid, 2-(4-nitrophenyl) 1-(phenylmethyl) ester, (2<em>S</em>)-;1,2-Pyrrolidinedicarboxylic acid, 1-benzyl <em>p</em>-nitrophenyl ester, <span class=\"text-smallcaps\">L</span>-;1,2-Pyrrolidinedicarboxylic acid, 2-(4-nitrophenyl) 1-(phenylmethyl) ester, (<em>S</em>)-;2-(4-Nitrophenyl) 1-(phenylmethyl) (2<em>S</em>)-1,2-pyrrolidinedicarboxylate;<em>N</em>-Carbobenzoxy-<span class=\"text-smallcaps\">L</span>-proline <em>p</em>-nitrophenyl ester;<em>N</em>-(Benzyloxycarbonyl)-<span class=\"text-smallcaps\">L</span>-proline <em>p</em>-nitrophenyl ester;<em>N</em>-(Benzyloxycarbonyl)-<span class=\"text-smallcaps\">L</span>-proline 4-nitrophenyl ester;<em>N</em>-Carbobenzoxy-<em>S</em>-proline-<em>p</em>-nitrophenylester;1-<em>O</em>-Benzyl 2-<em>O</em>-(4-nitrophenyl) (2S)-pyrrolidine-1,2-dicarboxylate",
    "duplicated_cas_no": "",
    "SMILES": "C(OC1=CC=C(N(=O)=O)C=C1)(=O)[C@H]2N(C(OCC3=CC=CC=C3)=O)CCC2",
    "meta_data": {
        "InChI": "InChI=1S/C19H18N2O6/c22-18(27-16-10-8-15(9-11-16)21(24)25)17-7-4-12-20(17)19(23)26-13-14-5-2-1-3-6-14/h1-3,5-6,8-11,17H,4,7,12-13H2/t17-/m0/s1",
        "InChIKey": null,
        "Canonical SMILES": "O=C(OCC=1C=CC=CC1)N2CCCC2C(=O)OC3=CC=C(C=C3)N(=O)=O",
        "Molecular Formula": "C<sub>19</sub>H<sub>18</sub>N<sub>2</sub>O<sub>6</sub>",
        "Molecular Mass": "370.36",
        "Melting Point": "94-95.5 °C"
    }
}