{
    "cas_no": "3610-36-4",
    "key_name": "6-Methoxytryptamine",
    "cn_name": "6-甲氧基色胺;3-(2-氨基乙基)-6-甲氧基吲哚;",
    "alternate_name": "1<em>H</em>-Indole-3-ethanamine, 6-methoxy-;Indole, 3-(2-aminoethyl)-6-methoxy-;6-Methoxy-1<em>H</em>-indole-3-ethanamine;6-Methoxytryptamine;Ba 2808;6MOT;2-(6-Methoxy-1<em>H</em>-indol-3-yl)ethylamine;2-(6-Methoxyindol-3-yl)ethylamine;6-Methoxyindole-3-ethanamine;2-(6-Methoxy-1<em>H</em>-indol-3-yl)ethan-1-amine;2-(6-Methoxy-1<em>H</em>-indol-3-yl)ethanamine",
    "duplicated_cas_no": "",
    "SMILES": "C(CN)C=1C=2C(=CC(OC)=CC2)NC1",
    "meta_data": {
        "InChI": "InChI=1S/C11H14N2O/c1-14-9-2-3-10-8(4-5-12)7-13-11(10)6-9/h2-3,6-7,13H,4-5,12H2,1H3",
        "InChIKey": null,
        "Canonical SMILES": "O(C=1C=CC2=C(C1)NC=C2CCN)C",
        "Molecular Formula": "C<sub>11</sub>H<sub>14</sub>N<sub>2</sub>O",
        "Molecular Mass": "190.24",
        "Melting Point": "142.5-143.5 °C"
    }
}