{
    "cas_no": "87-92-3",
    "key_name": "(+)-Dibutyl tartrate",
    "cn_name": "L-酒石酸二丁酯;",
    "alternate_name": "Butanedioic acid, 2,3-dihydroxy- (2<em>R</em>,3<em>R</em>)-, 1,4-dibutyl ester;Tartaric acid, dibutyl ester;Butanedioic acid, 2,3-dihydroxy- [<em>R</em>-(<em>R</em>*,<em>R</em>*)]-, dibutyl ester;Butanedioic acid, 2,3-dihydroxy- (2<em>R</em>,3<em>R</em>)-, dibutyl ester;Dibutyl tartrate;ENT 396;Dibutyl <span class=\"text-smallcaps\">L</span>-(+)-tartrate;<span class=\"text-smallcaps\">L</span>-(+)-Tartaric acid dibutyl ester;(+)-Tartaric acid dibutyl ester;(+)-Dibutyl tartrate;(2<em>R</em>,3<em>R</em>)-Di-<em>n</em>-butyl tartrate;Dibutyl (<em>R</em>,<em>R</em>)-tartrate;Dibutyl <span class=\"text-smallcaps\">L</span>-tartrate;(2<em>R</em>,3<em>R</em>)-Dibutyl tartrate;Dibutyl (+)-<span class=\"text-smallcaps\">L</span>-tartrate;Di-<em>n</em>-butyl <span class=\"text-smallcaps\">L</span>-tartrate",
    "duplicated_cas_no": "15763-01-6;60484-38-0;305322-71-8;201280-88-8",
    "SMILES": "[C@@H]([C@H](C(OCCCC)=O)O)(C(OCCCC)=O)O",
    "meta_data": {
        "InChI": "InChI=1S/C12H22O6/c1-3-5-7-17-11(15)9(13)10(14)12(16)18-8-6-4-2/h9-10,13-14H,3-8H2,1-2H3/t9-,10-/m1/s1",
        "InChIKey": null,
        "Canonical SMILES": "O=C(OCCCC)C(O)C(O)C(=O)OCCCC",
        "Molecular Formula": "C<sub>12</sub>H<sub>22</sub>O<sub>6</sub>",
        "Molecular Mass": "262.30",
        "Boiling Point": "320 °C",
        "Melting Point": "22 °C"
    }
}