{
    "cas_no": "7779-75-1",
    "key_name": "Isobutyl acetoacetate",
    "cn_name": "乙酰乙酸异丁酯;3-丁酮酸异丁酯;",
    "alternate_name": "Butanoic acid, 3-oxo-, 2-methylpropyl ester;Acetoacetic acid, isobutyl ester;Isobutyl acetoacetate;2-Methylpropyl 3-oxobutanoate;Isobutyl 3-oxobutanoate",
    "duplicated_cas_no": "",
    "SMILES": "C(OCC(C)C)(CC(C)=O)=O",
    "meta_data": {
        "InChI": "InChI=1S/C8H14O3/c1-6(2)5-11-8(10)4-7(3)9/h6H,4-5H2,1-3H3",
        "InChIKey": null,
        "Canonical SMILES": "O=C(OCC(C)C)CC(=O)C",
        "Molecular Formula": "C<sub>8</sub>H<sub>14</sub>O<sub>3</sub>",
        "Molecular Mass": "158.20",
        "Boiling Point": "84.5 °C @ Press: 11 Torr",
        "Melting Point": "177-179 °C",
        "Density": "0.9697 g/cm³ @ Temp: 25 °C"
    }
}