{
    "cas_no": "303-53-7",
    "key_name": "Cyclobenzaprine",
    "cn_name": "环苯扎林; 5-(3-二甲氨基亚丙基)二苯并[a,d]环庚三烯;",
    "alternate_name": "1-Propanamine, 3-(5<em>H</em>-dibenzo[<em>a</em>,<em>d</em>]cyclohepten-5-ylidene)-<em>N</em>,<em>N</em>-dimethyl-;5<em>H</em>-Dibenzo[<em>a</em>,<em>d</em>]cycloheptene-Δ<sup>5,γ</sup>-propylamine, <em>N</em>,<em>N</em>-dimethyl-;3-(5<em>H</em>-Dibenzo[<em>a</em>,<em>d</em>]cyclohepten-5-ylidene)-<em>N</em>,<em>N</em>-dimethyl-1-propanamine;MK 130;9715 R.P;Cyclobenzaprine;[3-(5-<em>H</em>-Dibenzo[<em>a</em>,<em>d</em>]cyclohepten-5-ylidene)propyl]dimethylamine;5-(3-Dimethylaminopropylidene)dibenzo[<em>a</em>,<em>d</em>]cycloheptatriene;Proheptatriene;Proheptatrien;Ro 4-1577;<em>N</em>,<em>N</em>-Dimethyl-5<em>H</em>-dibenzo[<em>a</em>,<em>d</em>]cycloheptene-Δ<sup>5,γ</sup>-propylamine;10,11-Dehydroamitriptyline;RP 9715;Amrix",
    "duplicated_cas_no": "",
    "SMILES": "C(CCN(C)C)=C1C=2C(C=CC=3C1=CC=CC3)=CC=CC2",
    "meta_data": {
        "InChI": "InChI=1S/C20H21N/c1-21(2)15-7-12-20-18-10-5-3-8-16(18)13-14-17-9-4-6-11-19(17)20/h3-6,8-14H,7,15H2,1-2H3",
        "InChIKey": null,
        "Canonical SMILES": "C=1C=CC2=C(C1)C=CC=3C=CC=CC3C2=CCCN(C)C",
        "Molecular Formula": "C<sub>20</sub>H<sub>21</sub>N",
        "Molecular Mass": "275.39",
        "Boiling Point": "177.5 °C"
    }
}