{
    "cas_no": "13781-53-8",
    "key_name": "3-Thiopheneacetonitrile",
    "cn_name": "3-噻吩乙腈;",
    "alternate_name": "3-Thiopheneacetonitrile;3-Thienylacetonitrile;3-Cyanomethylthiophene;2-(3-Thienyl)acetonitrile;2-(Thiophen-3-yl)acetonitrile;2-Thiophen-3-ylacetonitrile",
    "duplicated_cas_no": "",
    "SMILES": "C(C#N)C=1C=CSC1",
    "meta_data": {
        "InChI": "InChI=1S/C6H5NS/c7-3-1-6-2-4-8-5-6/h2,4-5H,1H2",
        "InChIKey": null,
        "Canonical SMILES": "N#CCC1=CSC=C1",
        "Molecular Formula": "C<sub>6</sub>H<sub>5</sub>NS",
        "Molecular Mass": "123.18",
        "Boiling Point": "203-205 °C",
        "Density": "1.172 g/cm³ @ Temp: 20 °C"
    }
}