{
    "cas_no": "76820-34-3",
    "key_name": "<em>N</em><sup>1</sup>,<em>N</em><sup>3</sup>-Bis(2,3-dihydroxypropyl)-5-nitro-1,3-benzenedicarboxamide",
    "cn_name": null,
    "alternate_name": "1,3-Benzenedicarboxamide, <em>N</em><sup>1</sup>,<em>N</em><sup>3</sup>-bis(2,3-dihydroxypropyl)-5-nitro-;1,3-Benzenedicarboxamide, <em>N</em>,<em>N</em>′-bis(2,3-dihydroxypropyl)-5-nitro-;<em>N</em><sup>1</sup>,<em>N</em><sup>3</sup>-Bis(2,3-dihydroxypropyl)-5-nitro-1,3-benzenedicarboxamide;1-<em>N</em>,3-<em>N</em>-Bis(2,3-dihydroxypropyl)-5-nitrobenzene-1,3-dicarboxamide",
    "duplicated_cas_no": "",
    "SMILES": "C(NCC(CO)O)(=O)C1=CC(C(NCC(CO)O)=O)=CC(N(=O)=O)=C1",
    "meta_data": {
        "InChI": "InChI=1S/C14H19N3O8/c18-6-11(20)4-15-13(22)8-1-9(3-10(2-8)17(24)25)14(23)16-5-12(21)7-19/h1-3,11-12,18-21H,4-7H2,(H,15,22)(H,16,23)",
        "InChIKey": null,
        "Canonical SMILES": "O=C(NCC(O)CO)C=1C=C(C=C(C1)N(=O)=O)C(=O)NCC(O)CO",
        "Molecular Formula": "C<sub>14</sub>H<sub>19</sub>N<sub>3</sub>O<sub>8</sub>",
        "Molecular Mass": "357.32",
        "Melting Point": "128-132 °C"
    }
}