{
    "cas_no": "7747-35-5",
    "key_name": "Oxazolidine E",
    "cn_name": "7A-乙基二氢-1H,3H,5H-恶唑并[3,4-C]恶唑;",
    "alternate_name": "1<em>H</em>,3<em>H</em>,5<em>H</em>-Oxazolo[3,4-<em>c</em>]oxazole, 7a-ethyldihydro-;7a-Ethyldihydro-1<em>H</em>,3<em>H</em>,5<em>H</em>-oxazolo[3,4-<em>c</em>]oxazole;5-Ethyl-1-aza-3,7-dioxabicyclo[3.3.0]octane;Oxazolidine E;Chemtan A 60;Zoldine ZE;Neosyn TX;Oxaban E;Bioban CS 1246;Paramel TX 50;Amine CS 1246;CS 1246;Canguard 96;Truptan OX-E;RGT 23416;7-Ethylbicyclooxazolidine",
    "duplicated_cas_no": "101707-05-5",
    "SMILES": "C(C)C12N(COC1)COC2",
    "meta_data": {
        "InChI": "InChI=1S/C7H13NO2/c1-2-7-3-9-5-8(7)6-10-4-7/h2-6H2,1H3",
        "InChIKey": null,
        "Canonical SMILES": "O1CN2COCC2(C1)CC",
        "Molecular Formula": "C<sub>7</sub>H<sub>13</sub>NO<sub>2</sub>",
        "Molecular Mass": "143.18",
        "Boiling Point": "73 °C @ Press: 29 Torr"
    }
}