{
    "cas_no": "10377-66-9",
    "key_name": "Manganese nitrate",
    "cn_name": "硝酸锰;硝酸亚锰;",
    "alternate_name": "Nitric acid, manganese(2+) salt (2:1);Manganese nitrate;Nitric acid, manganese(2+) salt;Manganous nitrate;Manganese dinitrate;Manganese(2+) nitrate;Manganese nitrate (Mn(NO<sub>3</sub>)<sub>2</sub>);Manganese(II) nitrate;Manganous dinitrate;Manganese nitrate (Mn(NO<sub>3</sub>)<sub>2</sub>);Manganese nitrate (Mn(NO<sub>3</sub>)<sub>6</sub>)",
    "duplicated_cas_no": "30488-22-3;2952711-53-2;3030961-91-9;3037380-78-9",
    "SMILES": "N(=O)(=O)O.[Mn]",
    "meta_data": {
        "InChI": "InChI=1S/Mn.HNO3/c;2-1(3)4/h;(H,2,3,4)",
        "InChIKey": null,
        "Canonical SMILES": "[Mn].O=N(=O)O",
        "Molecular Formula": "HNO<sub>3</sub>.<sup>1</sup>/<sub>2</sub>Mn",
        "Molecular Mass": "",
        "Melting Point": "160 °C (decomp)",
        "Density": "1.70 g/cm³"
    }
}