{
    "cas_no": "827-24-7",
    "key_name": "2-Bromo-4-methyl-6-nitrobenzenamine",
    "cn_name": "2-溴-4-甲基-6-硝基苯胺;",
    "alternate_name": "Benzenamine, 2-bromo-4-methyl-6-nitro-;<em>p</em>-Toluidine, 2-bromo-6-nitro-;2-Bromo-4-methyl-6-nitrobenzenamine;2-Bromo-4-methyl-6-nitroaniline;(2-Bromo-4-methyl-6-nitrophenyl)amine",
    "duplicated_cas_no": "",
    "SMILES": "N(=O)(=O)C1=C(N)C(Br)=CC(C)=C1",
    "meta_data": {
        "InChI": "InChI=1S/C7H7BrN2O2/c1-4-2-5(8)7(9)6(3-4)10(11)12/h2-3H,9H2,1H3",
        "InChIKey": null,
        "Canonical SMILES": "O=N(=O)C1=CC(=CC(Br)=C1N)C",
        "Molecular Formula": "C<sub>7</sub>H<sub>7</sub>BrN<sub>2</sub>O<sub>2</sub>",
        "Molecular Mass": "231.05",
        "Melting Point": "63-64 °C"
    }
}