{
    "cas_no": "33524-31-1",
    "key_name": "2,5-Dimethoxybenzyl alcohol",
    "cn_name": "对二甲氧基苯甲醇;",
    "alternate_name": "Benzenemethanol, 2,5-dimethoxy-;Benzyl alcohol, 2,5-dimethoxy-;2,5-Dimethoxybenzenemethanol;2,5-Dimethoxybenzyl alcohol;1-(Hydroxymethyl)-2,5-dimethoxybenzene;(2,5-Dimethoxyphenyl)methanol",
    "duplicated_cas_no": "",
    "SMILES": "C(O)C1=C(OC)C=CC(OC)=C1",
    "meta_data": {
        "InChI": "InChI=1S/C9H12O3/c1-11-8-3-4-9(12-2)7(5-8)6-10/h3-5,10H,6H2,1-2H3",
        "InChIKey": null,
        "Canonical SMILES": "OCC1=CC(OC)=CC=C1OC",
        "Molecular Formula": "C<sub>9</sub>H<sub>12</sub>O<sub>3</sub>",
        "Molecular Mass": "168.19",
        "Boiling Point": "85-90 °C @ Press: 0.025 Torr",
        "Melting Point": "45-48 °C"
    }
}