{
    "cas_no": "3644-12-0",
    "key_name": "<em>N</em>-(Methoxymethyl)-2-methyl-2-propenamide",
    "cn_name": "N-甲氧基甲基-2-甲基-2-丙烯酰胺;",
    "alternate_name": "2-Propenamide, <em>N</em>-(methoxymethyl)-2-methyl-;Acrylamide, <em>N</em>-(methoxymethyl)-2-methyl-;<em>N</em>-(Methoxymethyl)-2-methyl-2-propenamide;<em>N</em>-Methylolmethacrylamide methyl ether;Methoxymethylmethacrylamide;<em>N</em>-(Methoxymethyl)methacrylamide;N-Methoxymethylmethacrylamide;<em>N</em>-Methoxymethymethacrylamide",
    "duplicated_cas_no": "",
    "SMILES": "C(C(C)=C)(NCOC)=O",
    "meta_data": {
        "InChI": "InChI=1S/C6H11NO2/c1-5(2)6(8)7-4-9-3/h1,4H2,2-3H3,(H,7,8)",
        "InChIKey": null,
        "Canonical SMILES": "O=C(NCOC)C(=C)C",
        "Molecular Formula": "C<sub>6</sub>H<sub>11</sub>NO<sub>2</sub>",
        "Molecular Mass": "129.16",
        "Boiling Point": "86 °C @ Press: 0.8 Torr"
    }
}