{
    "cas_no": "75-01-4",
    "key_name": "Vinyl chloride",
    "cn_name": "氯乙烯;乙烯基氯;",
    "alternate_name": "Ethene, chloro-;Ethylene, chloro-;Chloroethene;Chloroethylene;Vinyl C monomer;Monochloroethylene;Vinyl chloride;Vinyl chloride monomer;VCM;1-Chloroethene;1-Chloroethylene;F 1140;HCO 1140;MeSH ID: D014752",
    "duplicated_cas_no": "1187028-37-0",
    "SMILES": "C(=C)Cl",
    "meta_data": {
        "InChI": "InChI=1S/C2H3Cl/c1-2-3/h2H,1H2",
        "InChIKey": null,
        "Canonical SMILES": "ClC=C",
        "Molecular Formula": "C<sub>2</sub>H<sub>3</sub>Cl",
        "Molecular Mass": "62.50",
        "Boiling Point": "-13.3 °C",
        "Melting Point": "-153.7 °C",
        "Density": "0.9106 g/cm³ @ Temp: 20 °C"
    }
}