{
    "cas_no": "90213-66-4",
    "key_name": "2,4-Dichloro-7<em>H</em>-pyrrolo[2,3-<em>d</em>]pyrimidine",
    "cn_name": "2,4-二氯-7H吡咯[2,3-D]嘧啶;",
    "alternate_name": "7<em>H</em>-Pyrrolo[2,3-<em>d</em>]pyrimidine, 2,4-dichloro-;1<em>H</em>-Pyrrolo[2,3-<em>d</em>]pyrimidine, 2,4-dichloro-;2,4-Dichloro-7<em>H</em>-pyrrolo[2,3-<em>d</em>]pyrimidine;2,4-Dichloro-1<em>H</em>-pyrrolo[2,3-<em>d</em>]pyrimidine",
    "duplicated_cas_no": "",
    "SMILES": "ClC1=C2C(=NC(Cl)=N1)NC=C2",
    "meta_data": {
        "InChI": "InChI=1S/C6H3Cl2N3/c7-4-3-1-2-9-5(3)11-6(8)10-4/h1-2H,(H,9,10,11)",
        "InChIKey": null,
        "Canonical SMILES": "ClC=1N=C(Cl)C=2C=CNC2N1",
        "Molecular Formula": "C<sub>6</sub>H<sub>3</sub>Cl<sub>2</sub>N<sub>3</sub>",
        "Molecular Mass": "188.01",
        "Melting Point": "247-250 °C"
    }
}