{
    "cas_no": "76-98-2",
    "key_name": "Ibogamine-18-carboxylic acid, 12,13-dimethoxy-, methyl ester",
    "cn_name": null,
    "alternate_name": "Ibogamine-18-carboxylic acid, 12,13-dimethoxy-, methyl ester;Conopharyngine;6,9-Methano-5<em>H</em>-pyrido[1′,2′:1,2]azepino[4,5-<em>b</em>]indole, ibogamine-18-carboxylic acid deriv.;Conopharyngine (Iboga);Coronaridine, 12,13-dimethoxy-",
    "duplicated_cas_no": "1355-93-7;29389-48-8",
    "SMILES": "C(OC)(=O)[C@]12C3=C(C=4C(N3)=CC(OC)=C(OC)C4)CC[N@@]5[C@]1([C@@H](CC)C[C@](C2)(C5)[H])[H]",
    "meta_data": {
        "InChI": "InChI=1S/C23H30N2O4/c1-5-14-8-13-11-23(22(26)29-4)20-15(6-7-25(12-13)21(14)23)16-9-18(27-2)19(28-3)10-17(16)24-20/h9-10,13-14,21,24H,5-8,11-12H2,1-4H3/t13-,14+,21+,23-/m1/s1",
        "InChIKey": null,
        "Canonical SMILES": "O=C(OC)C12C=3NC=4C=C(OC)C(OC)=CC4C3CCN5CC(CC(CC)C51)C2",
        "Molecular Formula": "C<sub>23</sub>H<sub>30</sub>N<sub>2</sub>O<sub>4</sub>",
        "Molecular Mass": "398.50",
        "Melting Point": "141-143 °C"
    }
}