{
    "cas_no": "2247-91-8",
    "key_name": "1-Propen-2-ol, 3,3,3-trifluoro-, 2-acetate",
    "cn_name": "乙酸1-(三氟甲基)乙烯酯;乙酸1-(三氟甲基)乙烯酯;",
    "alternate_name": "1-Propen-2-ol, 3,3,3-trifluoro-, 2-acetate;1-Propen-2-ol, 3,3,3-trifluoro-, acetate;α-Trifluoromethylvinyl acetate;1,1,1-Trifluoro-2-propen-2-yl acetate;1-(Trifluoromethyl)vinyl acetate;1,1,1-Trifluoro-2-(acetyloxy)-2-propene",
    "duplicated_cas_no": "",
    "SMILES": "C(OC(C)=O)(C(F)(F)F)=C",
    "meta_data": {
        "InChI": "InChI=1S/C5H5F3O2/c1-3(5(6,7)8)10-4(2)9/h1H2,2H3",
        "InChIKey": null,
        "Canonical SMILES": "O=C(OC(=C)C(F)(F)F)C",
        "Molecular Formula": "C<sub>5</sub>H<sub>5</sub>F<sub>3</sub>O<sub>2</sub>",
        "Molecular Mass": "154.09",
        "Boiling Point": "86.5 °C",
        "Density": "1.2119 g/cm³ @ Temp: 25 °C"
    }
}