{
    "cas_no": "744-46-7",
    "key_name": "<em>N</em>-Benzoylglycyl-<span class=\"text-smallcaps\">L</span>-arginine",
    "cn_name": "马尿酰精氨酸;",
    "alternate_name": "<span class=\"text-smallcaps\">L</span>-Arginine, <em>N</em>-benzoylglycyl-;Arginine, <em>N</em><sup>2</sup>-hippuroyl-, <span class=\"text-smallcaps\">L</span>-;<span class=\"text-smallcaps\">L</span>-Arginine, <em>N</em><sup>2</sup>-(<em>N</em>-benzoylglycyl)-;Arginine, <em>N</em><sup>2</sup>-hippuroyl-;<em>N</em>-Benzoylglycyl-<span class=\"text-smallcaps\">L</span>-arginine;<em>N</em>-α-Benzoylglycyl-<span class=\"text-smallcaps\">L</span>-arginine;<em>N</em><sup>2</sup>-Hippuroyl-<span class=\"text-smallcaps\">L</span>-arginine;NSC 89637;(2S)-2-[(2-Benzamidoacetyl)amino]-5-(diaminomethylideneazaniumyl)pentanoate",
    "duplicated_cas_no": "13015-62-8",
    "SMILES": "C(NCC(N[C@@H](CCCNC(=N)N)C(O)=O)=O)(=O)C1=CC=CC=C1",
    "meta_data": {
        "InChI": "InChI=1S/C15H21N5O4/c16-15(17)18-8-4-7-11(14(23)24)20-12(21)9-19-13(22)10-5-2-1-3-6-10/h1-3,5-6,11H,4,7-9H2,(H,19,22)(H,20,21)(H,23,24)(H4,16,17,18)/t11-/m0/s1",
        "InChIKey": null,
        "Canonical SMILES": "O=C(O)C(NC(=O)CNC(=O)C=1C=CC=CC1)CCCNC(=N)N",
        "Molecular Formula": "C<sub>15</sub>H<sub>21</sub>N<sub>5</sub>O<sub>4</sub>",
        "Molecular Mass": "335.36",
        "Melting Point": "182-196 °C"
    }
}