{
    "cas_no": "53100-44-0",
    "key_name": "1-(1,1-Dimethylethyl) (2<em>S</em>)-5-oxo-1,2-pyrrolidinedicarboxylate",
    "cn_name": null,
    "alternate_name": "1,2-Pyrrolidinedicarboxylic acid, 5-oxo-, 1-(1,1-dimethylethyl) ester, (2<em>S</em>)-;1,2-Pyrrolidinedicarboxylic acid, 5-oxo-, 1-(1,1-dimethylethyl) ester, (<em>S</em>)-;1-(1,1-Dimethylethyl) (2<em>S</em>)-5-oxo-1,2-pyrrolidinedicarboxylate;<em>N</em>-<em>tert</em>-Butoxycarbonyl-<span class=\"text-smallcaps\">L</span>-pyroglutamic acid;<em>N</em>-Boc-<span class=\"text-smallcaps\">L</span>-pyroglutamic acid;(<em>S</em>)-1-(<em>tert</em>-Butoxycarbonyl)-5-oxopyrrolidine-2-carboxylic acid;(2S)-1-[(<em>tert</em>-Butoxy)carbonyl]-5-oxopyrrolidine-2-carboxylic acid;(2S)-1-[(2-Methylpropan-2-yl)oxycarbonyl]-5-oxopyrrolidine-2-carboxylic acid;Boc-Pyr-OH",
    "duplicated_cas_no": "",
    "SMILES": "C(OC(C)(C)C)(=O)N1[C@H](C(O)=O)CCC1=O",
    "meta_data": {
        "InChI": "InChI=1S/C10H15NO5/c1-10(2,3)16-9(15)11-6(8(13)14)4-5-7(11)12/h6H,4-5H2,1-3H3,(H,13,14)/t6-/m0/s1",
        "InChIKey": null,
        "Canonical SMILES": "O=C(OC(C)(C)C)N1C(=O)CCC1C(=O)O",
        "Molecular Formula": "C<sub>10</sub>H<sub>15</sub>NO<sub>5</sub>",
        "Molecular Mass": "229.23",
        "Melting Point": "65-67 °C"
    }
}