{
    "cas_no": "496-12-8",
    "key_name": "Isoindoline",
    "cn_name": null,
    "alternate_name": "1<em>H</em>-Isoindole, 2,3-dihydro-;Isoindoline;2,3-Dihydro-1<em>H</em>-isoindole;2-Azaindan;1,3-Dihydroisoindole;2,3-Dihydro-1H-isoindole;1,3-Dihydro-2<em>H</em>-isoindole",
    "duplicated_cas_no": "",
    "SMILES": "C1=2C(CNC1)=CC=CC2",
    "meta_data": {
        "InChI": "InChI=1S/C8H9N/c1-2-4-8-6-9-5-7(8)3-1/h1-4,9H,5-6H2",
        "InChIKey": null,
        "Canonical SMILES": "C=1C=CC2=C(C1)CNC2",
        "Molecular Formula": "C<sub>8</sub>H<sub>9</sub>N",
        "Molecular Mass": "119.16",
        "Boiling Point": "126-127 °C @ Press: 18 Torr",
        "Melting Point": "17 °C",
        "Density": "1.05 g/cm³"
    }
}