{
    "cas_no": "6968-72-5",
    "key_name": "3-Pyridinemethanol, 1-oxide",
    "cn_name": "3-吡啶甲醇氮氧化物;",
    "alternate_name": "3-Pyridinemethanol, 1-oxide;3-(Hydroxymethyl)pyridine <em>N</em>-oxide;Mepiroxol;3-(Hydroxymethyl)pyridine 1-oxide;Lysateril;Mepyroxol;3-Pyridylcarbinol <em>N</em>-oxide;3-Pyridinemethanol <em>N</em>-oxide;NSC 66283;(1-Oxidopyridin-1-ium-3-yl)methanol",
    "duplicated_cas_no": "",
    "SMILES": "C(O)C1=CN(=O)=CC=C1",
    "meta_data": {
        "InChI": "InChI=1S/C6H7NO2/c8-5-6-2-1-3-7(9)4-6/h1-4,8H,5H2",
        "InChIKey": null,
        "Canonical SMILES": "O=N=1C=CC=C(C1)CO",
        "Molecular Formula": "C<sub>6</sub>H<sub>7</sub>NO<sub>2</sub>",
        "Molecular Mass": "125.13",
        "Melting Point": "93-94 °C"
    }
}