{
    "cas_no": "10191-18-1",
    "key_name": "<em>N</em>,<em>N</em>-Bis(2-hydroxyethyl)-2-aminoethanesulfonic acid",
    "cn_name": "N,N-双(2-羟乙基)-2-氨基乙磺酸;",
    "alternate_name": "Ethanesulfonic acid, 2-[bis(2-hydroxyethyl)amino]-;Taurine, <em>N</em>,<em>N</em>-bis(2-hydroxyethyl)-;2-[Bis(2-hydroxyethyl)amino]ethanesulfonic acid;BES;<em>N</em>,<em>N</em>-Bis(2-hydroxyethyl)-2-aminoethanesulfonic acid;BES (buffering agent);<em>N</em>,<em>N</em>-Bis(2-hydroxyethyl)taurine;NSC 166667",
    "duplicated_cas_no": "198836-11-2",
    "SMILES": "N(CCS(=O)(=O)O)(CCO)CCO",
    "meta_data": {
        "InChI": "InChI=1S/C6H15NO5S/c8-4-1-7(2-5-9)3-6-13(10,11)12/h8-9H,1-6H2,(H,10,11,12)",
        "InChIKey": null,
        "Canonical SMILES": "O=S(=O)(O)CCN(CCO)CCO",
        "Molecular Formula": "C<sub>6</sub>H<sub>15</sub>NO<sub>5</sub>S",
        "Molecular Mass": "213.25",
        "Melting Point": "150-151 °C"
    }
}