{
    "cas_no": "6921-64-8",
    "key_name": "2′-Hydroxy-4′-methylacetophenone",
    "cn_name": "2\"-羟基-4\"-甲基苯乙酮;",
    "alternate_name": "Ethanone, 1-(2-hydroxy-4-methylphenyl)-;Acetophenone, 2′-hydroxy-4′-methyl-;1-(2-Hydroxy-4-methylphenyl)ethanone;2′-Hydroxy-4′-methylacetophenone;2-Acetyl-5-methylphenol;4′-Methyl-2′-hydroxyacetophenone;2-Hydroxy-4-methylphenyl methyl ketone;BP 3 (light stabilizer);BP 3;1-(2-Hydroxy-4-methylphenyl)ethan-1-one",
    "duplicated_cas_no": "",
    "SMILES": "C(C)(=O)C1=C(O)C=C(C)C=C1",
    "meta_data": {
        "InChI": "InChI=1S/C9H10O2/c1-6-3-4-8(7(2)10)9(11)5-6/h3-5,11H,1-2H3",
        "InChIKey": null,
        "Canonical SMILES": "O=C(C1=CC=C(C=C1O)C)C",
        "Molecular Formula": "C<sub>9</sub>H<sub>10</sub>O<sub>2</sub>",
        "Molecular Mass": "150.17",
        "Boiling Point": "245 °C",
        "Melting Point": "21 °C"
    }
}