{
    "cas_no": "18479-58-8",
    "key_name": "2,6-Dimethyl-7-octen-2-ol",
    "cn_name": "2,6-二甲基-7-辛烯-2-醇;二氢月桂烯醇;",
    "alternate_name": "7-Octen-2-ol, 2,6-dimethyl-;2,6-Dimethyl-7-octen-2-ol;3,7-Dimethyl-1-octen-7-ol;1,1,5-Trimethyl-6-heptenol;Dihydromyrcenol",
    "duplicated_cas_no": "25279-08-7",
    "SMILES": "C(CCC(C)(C)O)C(C=C)C",
    "meta_data": {
        "InChI": "InChI=1S/C10H20O/c1-5-9(2)7-6-8-10(3,4)11/h5,9,11H,1,6-8H2,2-4H3",
        "InChIKey": null,
        "Canonical SMILES": "OC(C)(C)CCCC(C=C)C",
        "Molecular Formula": "C<sub>10</sub>H<sub>20</sub>O",
        "Molecular Mass": "156.27",
        "Boiling Point": "92 °C @ Press: 20 Torr",
        "Density": "0.8305 g/cm³ @ Temp: 15.5 °C"
    }
}