{
    "cas_no": "15140-27-9",
    "key_name": "Estra-1,3,5(10)-triene-3,17-diol (17β)-, 17-cyclohexanecarboxylate",
    "cn_name": null,
    "alternate_name": "Estra-1,3,5(10)-triene-3,17-diol (17β)-, 17-cyclohexanecarboxylate;Estradiol, 17-cyclohexanecarboxylate;Cyclohexanecarboxylic acid, 17-ester with estradiol",
    "duplicated_cas_no": "",
    "SMILES": "C[C@@]12[C@]([C@]3([C@@](C=4C(CC3)=CC(O)=CC4)(CC1)[H])[H])(CC[C@@H]2OC(=O)C5CCCCC5)[H]",
    "meta_data": {
        "InChI": "InChI=1S/C25H34O3/c1-25-14-13-20-19-10-8-18(26)15-17(19)7-9-21(20)22(25)11-12-23(25)28-24(27)16-5-3-2-4-6-16/h8,10,15-16,20-23,26H,2-7,9,11-14H2,1H3/t20-,21-,22+,23+,25+/m1/s1",
        "InChIKey": null,
        "Canonical SMILES": "O=C(OC1CCC2C3CCC4=CC(O)=CC=C4C3CCC12C)C5CCCCC5",
        "Molecular Formula": "C<sub>25</sub>H<sub>34</sub>O<sub>3</sub>",
        "Molecular Mass": "382.54",
        "Melting Point": "154-155 °C"
    }
}