{
    "cas_no": "386715-35-1",
    "key_name": "6-(Trifluoromethyl)-3-pyridinecarboxamide",
    "cn_name": "6-三氟甲基烟酰胺;",
    "alternate_name": "3-Pyridinecarboxamide, 6-(trifluoromethyl)-;6-(Trifluoromethyl)-3-pyridinecarboxamide",
    "duplicated_cas_no": "",
    "SMILES": "C(F)(F)(F)C1=CC=C(C(N)=O)C=N1",
    "meta_data": {
        "InChI": "InChI=1S/C7H5F3N2O/c8-7(9,10)5-2-1-4(3-12-5)6(11)13/h1-3H,(H2,11,13)",
        "InChIKey": null,
        "Canonical SMILES": "O=C(N)C1=CN=C(C=C1)C(F)(F)F",
        "Molecular Formula": "C<sub>7</sub>H<sub>5</sub>F<sub>3</sub>N<sub>2</sub>O",
        "Molecular Mass": "190.12",
        "Melting Point": "184-187 °C"
    }
}