{
    "cas_no": "79286-87-6",
    "key_name": "<em>N</em>-Methyl-<em>N</em>-3-pyrrolidinylacetamide",
    "cn_name": null,
    "alternate_name": "Acetamide, <em>N</em>-methyl-<em>N</em>-3-pyrrolidinyl-;<em>N</em>-Methyl-<em>N</em>-3-pyrrolidinylacetamide;3-(<em>N</em>-Acetyl-<em>N</em>-methylamino)pyrrolidine;3-(Acetylmethylamino)pyrrolidine;3-(<em>N</em>-Methylacetamido)pyrrolidine",
    "duplicated_cas_no": "",
    "SMILES": "N(C(C)=O)(C)C1CCNC1",
    "meta_data": {
        "InChI": "InChI=1S/C7H14N2O/c1-6(10)9(2)7-3-4-8-5-7/h7-8H,3-5H2,1-2H3",
        "InChIKey": null,
        "Canonical SMILES": "O=C(N(C)C1CNCC1)C",
        "Molecular Formula": "C<sub>7</sub>H<sub>14</sub>N<sub>2</sub>O",
        "Molecular Mass": "142.20",
        "Boiling Point": "109-110 °C @ Press: 1 Torr"
    }
}