{
    "cas_no": "524-81-2",
    "key_name": "Mebhydrolin",
    "cn_name": "甲苯咔啉;甲苯咔啉;",
    "alternate_name": "1<em>H</em>-Pyrido[4,3-<em>b</em>]indole, 2,3,4,5-tetrahydro-2-methyl-5-(phenylmethyl)-;1<em>H</em>-Pyrido[4,3-<em>b</em>]indole, 5-benzyl-2,3,4,5-tetrahydro-2-methyl-;2<em>H</em>-Pyrido[4,3-<em>b</em>]indole, 5-benzyl-1,3,4,5-tetrahydro-2-methyl-;2,3,4,5-Tetrahydro-2-methyl-5-(phenylmethyl)-1<em>H</em>-pyrido[4,3-<em>b</em>]indole;5-Benzyl-1,2,3,4-tetrahydro-2-methyl-γ-carboline;5-Benzyl-1,3,4,5-tetrahydro-2-methyl-2<em>H</em>-pyrido[4,3-<em>b</em>]indole;Mebhydrolin;3-Methyl-9-benzyl-1,2,3,4-tetrahydro-γ-carboline;<em>N</em>-Methyl-9-benzyltetrahydro-γ-carboline;5-Benzyl-2-methyl-2,3,4,5-tetrahydro-1<em>H</em>-pyrido[4,3-<em>b</em>]indole",
    "duplicated_cas_no": "",
    "SMILES": "C(N1C2=C(C=3C1=CC=CC3)CN(C)CC2)C4=CC=CC=C4",
    "meta_data": {
        "InChI": "InChI=1S/C19H20N2/c1-20-12-11-19-17(14-20)16-9-5-6-10-18(16)21(19)13-15-7-3-2-4-8-15/h2-10H,11-14H2,1H3",
        "InChIKey": null,
        "Canonical SMILES": "C=1C=CC(=CC1)CN2C=3C=CC=CC3C4=C2CCN(C)C4",
        "Molecular Formula": "C<sub>19</sub>H<sub>20</sub>N<sub>2</sub>",
        "Molecular Mass": "276.38",
        "Boiling Point": "211 °C",
        "Melting Point": "95 °C"
    }
}