{
    "cas_no": "1421-49-4",
    "key_name": "3,5-Di-<em>tert</em>-butyl-4-hydroxybenzoic acid",
    "cn_name": "3,5-二叔丁基-4-羟基苯甲酸;",
    "alternate_name": "Benzoic acid, 3,5-bis(1,1-dimethylethyl)-4-hydroxy-;Benzoic acid, 3,5-di-<em>tert</em>-butyl-4-hydroxy-;3,5-Bis(1,1-dimethylethyl)-4-hydroxybenzoic acid;3,5-Di-<em>tert</em>-butyl-4-hydroxybenzoic acid;2,6-Di-<em>tert</em>-butyl-4-carboxyphenol;F 2 (antioxidant);F 2;4-Hydroxy-3,5-di-<em>tert</em>-butylbenzoic acid;4-Carboxy-2,6-di-<em>tert</em>-butylphenol;3,5-Ditert-butyl-4-hydroxybenzoic acid;3,5-<em>tert</em>-Butyl-4-hydroxybenzoic acid;UV 612",
    "duplicated_cas_no": "",
    "SMILES": "C(C)(C)(C)C1=C(O)C(C(C)(C)C)=CC(C(O)=O)=C1",
    "meta_data": {
        "InChI": "InChI=1S/C15H22O3/c1-14(2,3)10-7-9(13(17)18)8-11(12(10)16)15(4,5)6/h7-8,16H,1-6H3,(H,17,18)",
        "InChIKey": null,
        "Canonical SMILES": "O=C(O)C=1C=C(C(O)=C(C1)C(C)(C)C)C(C)(C)C",
        "Molecular Formula": "C<sub>15</sub>H<sub>22</sub>O<sub>3</sub>",
        "Molecular Mass": "250.33",
        "Melting Point": "218-219 °C"
    }
}