{
    "cas_no": "2458-26-6",
    "key_name": "3-Phenylpyrazole",
    "cn_name": "3-苯基吡唑;3(5)-苯基-1H-吡唑;",
    "alternate_name": "1<em>H</em>-Pyrazole, 3-phenyl-;Pyrazole, 3-phenyl-;Pyrazole, 3(<em>or</em> 5)-phenyl-;3-Phenyl-1<em>H</em>-pyrazole;3-Phenylpyrazole;5-Phenyl-1<em>H</em>-pyrazole;5-Phenylpyrazole",
    "duplicated_cas_no": "27032-44-6;141665-21-6;165545-65-3;727414-83-7;1344677-00-4;1361300-48-2;1369490-50-5;1448695-00-8",
    "SMILES": "C=1(C=CNN1)C2=CC=CC=C2",
    "meta_data": {
        "InChI": "InChI=1S/C9H8N2/c1-2-4-8(5-3-1)9-6-7-10-11-9/h1-7H,(H,10,11)",
        "InChIKey": null,
        "Canonical SMILES": "N=1NC=CC1C=2C=CC=CC2",
        "Molecular Formula": "C<sub>9</sub>H<sub>8</sub>N<sub>2</sub>",
        "Molecular Mass": "144.17",
        "Boiling Point": "189-196 °C @ Press: 20 Torr",
        "Melting Point": "78 °C",
        "Density": "1.1037 g/cm³ @ Temp: 18.9 °C"
    }
}