{
    "cas_no": "873-40-5",
    "key_name": "2,3,5-Trichloropyrazine",
    "cn_name": null,
    "alternate_name": "Pyrazine, 2,3,5-trichloro-;Pyrazine, trichloro-;2,3,5-Trichloropyrazine;Trichloropyrazine",
    "duplicated_cas_no": "",
    "SMILES": "ClC=1C(Cl)=NC=C(Cl)N1",
    "meta_data": {
        "InChI": "InChI=1S/C4HCl3N2/c5-2-1-8-3(6)4(7)9-2/h1H",
        "InChIKey": null,
        "Canonical SMILES": "ClC=1N=C(Cl)C(Cl)=NC1",
        "Molecular Formula": "C<sub>4</sub>HCl<sub>3</sub>N<sub>2</sub>",
        "Molecular Mass": "183.42",
        "Melting Point": "32 °C"
    }
}