{
    "cas_no": "34253-03-7",
    "key_name": "2-Pyrimidinecarboxylic acid, methyl ester",
    "cn_name": null,
    "alternate_name": "2-Pyrimidinecarboxylic acid, methyl ester;Methyl 2-pyrimidinecarboxylate",
    "duplicated_cas_no": "",
    "SMILES": "C(OC)(=O)C=1N=CC=CN1",
    "meta_data": {
        "InChI": "InChI=1S/C6H6N2O2/c1-10-6(9)5-7-3-2-4-8-5/h2-4H,1H3",
        "InChIKey": null,
        "Canonical SMILES": "O=C(OC)C1=NC=CC=N1",
        "Molecular Formula": "C<sub>6</sub>H<sub>6</sub>N<sub>2</sub>O<sub>2</sub>",
        "Molecular Mass": "138.12",
        "Melting Point": "104-105 °C"
    }
}