{
    "cas_no": "27737-55-9",
    "key_name": "Ethyl 4-(phenylmethoxy)-1<em>H</em>-indole-2-carboxylate",
    "cn_name": null,
    "alternate_name": "1<em>H</em>-Indole-2-carboxylic acid, 4-(phenylmethoxy)-, ethyl ester;Indole-2-carboxylic acid, 4-(benzyloxy)-, ethyl ester;Ethyl 4-(phenylmethoxy)-1<em>H</em>-indole-2-carboxylate;Ethyl 4-benzyloxyindole-2-carboxylate;4-Benzyloxy-1<em>H</em>-indole-2-carboxylic acid ethyl ester;2-Carbethoxy-4-benzyloxyindole",
    "duplicated_cas_no": "",
    "SMILES": "O(CC1=CC=CC=C1)C2=C3C(NC(C(OCC)=O)=C3)=CC=C2",
    "meta_data": {
        "InChI": "InChI=1S/C18H17NO3/c1-2-21-18(20)16-11-14-15(19-16)9-6-10-17(14)22-12-13-7-4-3-5-8-13/h3-11,19H,2,12H2,1H3",
        "InChIKey": null,
        "Canonical SMILES": "O=C(OCC)C1=CC=2C(OCC=3C=CC=CC3)=CC=CC2N1",
        "Molecular Formula": "C<sub>18</sub>H<sub>17</sub>NO<sub>3</sub>",
        "Molecular Mass": "295.33",
        "Melting Point": "170-172 °C"
    }
}