{
    "cas_no": "138402-11-6",
    "key_name": "Irbesartan",
    "cn_name": "厄贝沙坦;2-丁基-3-[4-[2-(1H-四唑-5-基)苯基]苄基]-1,3-二氮杂螺-[4.4]壬-1-烯-4-酮;",
    "alternate_name": "1,3-Diazaspiro[4.4]non-1-en-4-one, 2-butyl-3-[[2′-(2<em>H</em>-tetrazol-5-yl)[1,1′-biphenyl]-4-yl]methyl]-;1,3-Diazaspiro[4.4]non-1-en-4-one, 2-butyl-3-[[2′-(1<em>H</em>-tetrazol-5-yl)[1,1′-biphenyl]-4-yl]methyl]-;2-Butyl-3-[[2′-(2<em>H</em>-tetrazol-5-yl)[1,1′-biphenyl]-4-yl]methyl]-1,3-diazaspiro[4.4]non-1-en-4-one;SR 47436;2-Butyl-3-[<em>p</em>-(<em>o</em>-1<em>H</em>-tetrazol-5-ylphenyl)benzyl]-1,3-diazaspiro[4.4]non-1-en-4-one;Irbesartan;BMS 186295;Avapro;Aprovel;Karvea;2-Butyl-3-[[2′-(tetrazol-5-yl)biphenyl-4-yl]-methyl]-1,3-diazaspiro[4.4]non-1-en-4-one;Irbetan;Irbest;Kansartan;X-Tension;3-Butyl-2-[[4-[2-(2<em>H</em>-tetrazol-5-yl)phenyl]phenyl]methyl]-2,4-diazaspiro[4.4]non-3-en-1-one;2-Butyl-3-[[4-[2-(2<em>H</em>-tetrazol-5-yl)phenyl]phenyl]methyl]-1,3-diazaspiro[4.4]non-1-en-4-one;2-Butyl-3-[2′-(2<em>H</em>-tetrazol-5-yl)-biphenyl-4-ylmethyl]-1,3-diaza-spiro[4.4]non-1-en-4-one;Sabervel",
    "duplicated_cas_no": "200762-06-7",
    "SMILES": "O=C1C2(N=C(CCCC)N1CC3=CC=C(C=C3)C4=C(C=CC=C4)C=5NN=NN5)CCCC2",
    "meta_data": {
        "InChI": "InChI=1S/C25H28N6O/c1-2-3-10-22-26-25(15-6-7-16-25)24(32)31(22)17-18-11-13-19(14-12-18)20-8-4-5-9-21(20)23-27-29-30-28-23/h4-5,8-9,11-14H,2-3,6-7,10,15-17H2,1H3,(H,27,28,29,30)",
        "InChIKey": null,
        "Canonical SMILES": "O=C1N(C(=NC12CCCC2)CCCC)CC=3C=CC(=CC3)C=4C=CC=CC4C5=NN=NN5",
        "Molecular Formula": "C<sub>25</sub>H<sub>28</sub>N<sub>6</sub>O",
        "Molecular Mass": "428.53",
        "Melting Point": "180-181 °C"
    }
}