{
    "cas_no": "30413-84-4",
    "key_name": "(-)-Corydalmine",
    "cn_name": null,
    "alternate_name": "6<em>H</em>-Dibenzo[<em>a</em>,<em>g</em>]quinolizin-10-ol, 5,8,13,13a-tetrahydro-2,3,9-trimethoxy-, (13a<em>S</em>)-;6<em>H</em>-Dibenzo[<em>a</em>,<em>g</em>]quinolizin-10-ol, 5,8,13,13a-tetrahydro-2,3,9-trimethoxy-, (<em>S</em>)-;Corydalmine;(13a<em>S</em>)-5,8,13,13a-Tetrahydro-2,3,9-trimethoxy-6<em>H</em>-dibenzo[<em>a</em>,<em>g</em>]quinolizin-10-ol;Kikemanine;Kikemanin;Schefferine;(-)-Corydalmine;(-)-Kikemanine;<span class=\"text-smallcaps\">L</span>-Corydalmine",
    "duplicated_cas_no": "",
    "SMILES": "O(C)C=1C=C2[C@]3(N(CC=4C(C3)=CC=C(O)C4OC)CCC2=CC1OC)[H]",
    "meta_data": {
        "InChI": "InChI=1S/C20H23NO4/c1-23-18-9-13-6-7-21-11-15-12(4-5-17(22)20(15)25-3)8-16(21)14(13)10-19(18)24-2/h4-5,9-10,16,22H,6-8,11H2,1-3H3/t16-/m0/s1",
        "InChIKey": null,
        "Canonical SMILES": "OC1=CC=C2C(=C1OC)CN3CCC4=CC(OC)=C(OC)C=C4C3C2",
        "Molecular Formula": "C<sub>20</sub>H<sub>23</sub>NO<sub>4</sub>",
        "Molecular Mass": "341.40",
        "Melting Point": "238-239 °C"
    }
}