{
    "cas_no": "1559-35-9",
    "key_name": "Ethylene glycol mono-2-ethylhexyl ether",
    "cn_name": null,
    "alternate_name": "Ethanol, 2-[(2-ethylhexyl)oxy]-;2-[(2-Ethylhexyl)oxy]ethanol;2-(2-Ethylhexyloxy)ethanol;Ethylene glycol mono-2-ethylhexyl ether;EHG;Ethylene glycol-2-ethylhexyl ether;2-(2-Ethylhexoxy)ethanol;2-[(2-Ethylhexyl)oxy]ethan-1-ol",
    "duplicated_cas_no": "",
    "SMILES": "C(COCCO)(CCCC)CC",
    "meta_data": {
        "InChI": "InChI=1S/C10H22O2/c1-3-5-6-10(4-2)9-12-8-7-11/h10-11H,3-9H2,1-2H3",
        "InChIKey": null,
        "Canonical SMILES": "OCCOCC(CC)CCCC",
        "Molecular Formula": "C<sub>10</sub>H<sub>22</sub>O<sub>2</sub>",
        "Molecular Mass": "174.28",
        "Boiling Point": "229 °C"
    }
}