{
    "cas_no": "3010-96-6",
    "key_name": "Tetramethyl-1,3-cyclobutanediol",
    "cn_name": null,
    "alternate_name": "1,3-Cyclobutanediol, 2,2,4,4-tetramethyl-;2,2,4,4-Tetramethyl-1,3-cyclobutanediol;Tetramethyl-1,3-cyclobutanediol;NSC 46473;2,4-Dihydroxy-1,1,3,3-tetramethylcyclobutane;1,3-Dihydroxy-2,2,4,4-tetramethylcyclobutane;2,2,4,4-Tetramethyl-1,3-cyclobutandiol",
    "duplicated_cas_no": "",
    "SMILES": "OC1C(C)(C)C(O)C1(C)C",
    "meta_data": {
        "InChI": "InChI=1S/C8H16O2/c1-7(2)5(9)8(3,4)6(7)10/h5-6,9-10H,1-4H3",
        "InChIKey": null,
        "Canonical SMILES": "OC1C(C)(C)C(O)C1(C)C",
        "Molecular Formula": "C<sub>8</sub>H<sub>16</sub>O<sub>2</sub>",
        "Molecular Mass": "144.21",
        "Melting Point": "129-137 °C"
    }
}