{
    "cas_no": "99070-18-5",
    "key_name": "4-Bromo-α-ethylbenzeneacetic acid",
    "cn_name": null,
    "alternate_name": "Benzeneacetic acid, 4-bromo-α-ethyl-;Butyric acid, 2-(<em>p</em>-bromophenyl)-;4-Bromo-α-ethylbenzeneacetic acid;2-(4-Bromophenyl)butyric acid",
    "duplicated_cas_no": "",
    "SMILES": "C(C(O)=O)(CC)C1=CC=C(Br)C=C1",
    "meta_data": {
        "InChI": "InChI=1S/C10H11BrO2/c1-2-9(10(12)13)7-3-5-8(11)6-4-7/h3-6,9H,2H2,1H3,(H,12,13)",
        "InChIKey": null,
        "Canonical SMILES": "O=C(O)C(C1=CC=C(Br)C=C1)CC",
        "Molecular Formula": "C<sub>10</sub>H<sub>11</sub>BrO<sub>2</sub>",
        "Molecular Mass": "243.10",
        "Boiling Point": "88-90 °C @ Press: 1 Torr",
        "Melting Point": "85 °C"
    }
}