{
    "cas_no": "20549-47-7",
    "key_name": "(1<em>R</em>,2<em>R</em>,5<em>R</em>)-2-Methyl-5-(1-methylethenyl)cyclohexanol",
    "cn_name": null,
    "alternate_name": "Cyclohexanol, 2-methyl-5-(1-methylethenyl)-, (1<em>R</em>,2<em>R</em>,5<em>R</em>)-;<em>p</em>-Menth-8-en-2-ol, (<em>R</em>,<em>R</em>,<em>R</em>)-(-)-;Cyclohexanol, 2-methyl-5-(1-methylethenyl)-, [1<em>R</em>-(1α,2β,5α)]-;(1<em>R</em>,2<em>R</em>,5<em>R</em>)-2-Methyl-5-(1-methylethenyl)cyclohexanol;(-)-Dihydrocarveol;Carveol, dihydro-, (-)-;(1R,2R,5R)-5-Isopropenyl-2-methylcyclohexanol;(1<em>R</em>,2<em>R</em>,5<em>R</em>)-5-Isopropenyl-2-methylcyclohexanol",
    "duplicated_cas_no": "",
    "SMILES": "C(C)(=C)[C@H]1C[C@@H](O)[C@H](C)CC1",
    "meta_data": {
        "InChI": "InChI=1S/C10H18O/c1-7(2)9-5-4-8(3)10(11)6-9/h8-11H,1,4-6H2,2-3H3/t8-,9-,10-/m1/s1",
        "InChIKey": null,
        "Canonical SMILES": "OC1CC(C(=C)C)CCC1C",
        "Molecular Formula": "C<sub>10</sub>H<sub>18</sub>O",
        "Molecular Mass": "154.25",
        "Boiling Point": "224 °C @ Press: 761 Torr",
        "Density": "0.9210 g/cm³ @ Temp: 30 °C"
    }
}