{
    "cas_no": "2044-64-6",
    "key_name": "Dimethylacetoacetamide",
    "cn_name": "N,N-二甲基乙酰基乙酰胺;N,N-二甲基-3-氧代丁酰胺;",
    "alternate_name": "Butanamide, <em>N</em>,<em>N</em>-dimethyl-3-oxo-;Acetoacetamide, <em>N</em>,<em>N</em>-dimethyl-;<em>N</em>,<em>N</em>-Dimethyl-3-oxobutanamide;<em>N</em>,<em>N</em>-Dimethylacetoacetamide;<em>N</em>,<em>N</em>-Dimethyl-3-oxobutyramide;Dimethylacetoacetamide;NSC 524755;<em>N</em>,<em>N</em>-Dimethyl-2-acetoacetamide;<em>N</em>,<em>N</em>-Dimethylacetoacetic amide",
    "duplicated_cas_no": "",
    "SMILES": "C(CC(C)=O)(N(C)C)=O",
    "meta_data": {
        "InChI": "InChI=1S/C6H11NO2/c1-5(8)4-6(9)7(2)3/h4H2,1-3H3",
        "InChIKey": null,
        "Canonical SMILES": "O=C(N(C)C)CC(=O)C",
        "Molecular Formula": "C<sub>6</sub>H<sub>11</sub>NO<sub>2</sub>",
        "Molecular Mass": "129.16",
        "Boiling Point": "80-83 °C @ Press: 0.5 Torr",
        "Melting Point": "120 °C"
    }
}