{
    "cas_no": "829-20-9",
    "key_name": "2′,4′-Dimethoxyacetophenone",
    "cn_name": "2,4-二甲氧基苯乙酮;",
    "alternate_name": "Ethanone, 1-(2,4-dimethoxyphenyl)-;Acetophenone, 2′,4′-dimethoxy-;Acetophenone, 2,4-dimethoxy-;1-(2,4-Dimethoxyphenyl)ethanone;2′,4′-Dimethoxyacetophenone;NSC 46645;4-Acetyl-1,3-dimethoxybenzene;1-(2,4-Dimethoxyphenyl)ethan-1-one",
    "duplicated_cas_no": "",
    "SMILES": "O(C)C1=C(C(C)=O)C=CC(OC)=C1",
    "meta_data": {
        "InChI": "InChI=1S/C10H12O3/c1-7(11)9-5-4-8(12-2)6-10(9)13-3/h4-6H,1-3H3",
        "InChIKey": null,
        "Canonical SMILES": "O=C(C1=CC=C(OC)C=C1OC)C",
        "Molecular Formula": "C<sub>10</sub>H<sub>12</sub>O<sub>3</sub>",
        "Molecular Mass": "180.20",
        "Boiling Point": "288 °C",
        "Melting Point": "40 °C"
    }
}