{
    "cas_no": "93609-84-8",
    "key_name": "5-Acetyl-8-(phenylmethoxy)-2(1<em>H</em>)-quinolinone",
    "cn_name": null,
    "alternate_name": "2(1<em>H</em>)-Quinolinone, 5-acetyl-8-(phenylmethoxy)-;5-Acetyl-8-(phenylmethoxy)-2(1<em>H</em>)-quinolinone;5-Acetyl-8-(benzyloxy)carbostyril;5-Acetyl-8-benzyloxy-2(1<em>H</em>)-quinolinone;5-Acetyl-8-benzyloxy-1<em>H</em>-quinolin-2-one;8-(Benzyloxy)-5-(1-oxoethyl)-1<em>H</em>-quinolin-2-one",
    "duplicated_cas_no": "",
    "SMILES": "O(CC1=CC=CC=C1)C2=C3C(=C(C(C)=O)C=C2)C=CC(=O)N3",
    "meta_data": {
        "InChI": "InChI=1S/C18H15NO3/c1-12(20)14-7-9-16(18-15(14)8-10-17(21)19-18)22-11-13-5-3-2-4-6-13/h2-10H,11H2,1H3,(H,19,21)",
        "InChIKey": null,
        "Canonical SMILES": "O=C1C=CC=2C(=CC=C(OCC=3C=CC=CC3)C2N1)C(=O)C",
        "Molecular Formula": "C<sub>18</sub>H<sub>15</sub>NO<sub>3</sub>",
        "Molecular Mass": "293.32",
        "Melting Point": "170 °C"
    }
}