{
    "cas_no": "3582-72-7",
    "key_name": "1,3-Dichloro-1,3-dimethyl-1,3-diphenyldisiloxane",
    "cn_name": "1,3-二氯-1,3-二甲基-1,3-二苯基二硅氧烷;",
    "alternate_name": "Disiloxane, 1,3-dichloro-1,3-dimethyl-1,3-diphenyl-;1,3-Dichloro-1,3-dimethyl-1,3-diphenyldisiloxane",
    "duplicated_cas_no": "",
    "SMILES": "[Si](O[Si](C)(Cl)C1=CC=CC=C1)(C)(Cl)C2=CC=CC=C2",
    "meta_data": {
        "InChI": "InChI=1S/C14H16Cl2OSi2/c1-18(15,13-9-5-3-6-10-13)17-19(2,16)14-11-7-4-8-12-14/h3-12H,1-2H3",
        "InChIKey": null,
        "Canonical SMILES": "Cl[Si](O[Si](Cl)(C=1C=CC=CC1)C)(C=2C=CC=CC2)C",
        "Molecular Formula": "C<sub>14</sub>H<sub>16</sub>Cl<sub>2</sub>OSi<sub>2</sub>",
        "Molecular Mass": "327.35",
        "Boiling Point": "158-159 °C @ Press: 3 Torr",
        "Density": "1.153 g/cm³ @ Temp: 25 °C"
    }
}