{
    "cas_no": "27081-10-3",
    "key_name": "Cycloheptatrienylium, tetrafluoroborate(1-) (1:1)",
    "cn_name": "四氟硼酸卓鎓;四氟硼酸卓;四氟硼酸卓鎓;四氟硼酸卓,97%;",
    "alternate_name": "Cycloheptatrienylium, tetrafluoroborate(1-) (1:1);Cycloheptatrienylium, tetrafluoroborate(1-);Cycloheptatrienylium tetrafluoroborate;Cycloheptatrienocarbonium fluoborate;Borate(1-), tetrafluoro-, cycloheptatrienylium;Tropylium fluoroborate;Tropylium tetrafluoroborate;Tropylium tetrafluoroborate(1-);Cycloheptatrienyl tetrafluoroborate;2,4,6-Cycloheptatrienium, tetrafluoroborate(1-) (1:1)",
    "duplicated_cas_no": "1283-58-5;38347-42-1;40894-88-0;41322-34-3;53663-13-1;61063-76-1;88314-57-2;109532-46-9;176046-02-9;2379890-77-2",
    "SMILES": "",
    "meta_data": {
        "InChI": "",
        "InChIKey": null,
        "Canonical SMILES": "",
        "Molecular Formula": "C<sub>7</sub>H<sub>7</sub>.BF<sub>4</sub>",
        "Molecular Mass": "",
        "Melting Point": "242 °C (decomp)"
    }
}