{
    "cas_no": "825-55-8",
    "key_name": "2-Phenylthiophene",
    "cn_name": "2-苯基噻吩;邻苯噻吩;",
    "alternate_name": "Thiophene, 2-phenyl-;2-Phenylthiophene",
    "duplicated_cas_no": "",
    "SMILES": "C1(=CC=CS1)C2=CC=CC=C2",
    "meta_data": {
        "InChI": "InChI=1S/C10H8S/c1-2-5-9(6-3-1)10-7-4-8-11-10/h1-8H",
        "InChIKey": null,
        "Canonical SMILES": "S1C=CC=C1C=2C=CC=CC2",
        "Molecular Formula": "C<sub>10</sub>H<sub>8</sub>S",
        "Molecular Mass": "160.24",
        "Boiling Point": "256.1 °C @ Press: 760 Torr",
        "Melting Point": "34.0-34.5 °C",
        "Density": "1.1215 g/cm³ @ Temp: 54 °C"
    }
}