{
    "cas_no": "542-28-9",
    "key_name": "δ-Valerolactone",
    "cn_name": "delta-戊内酯;四氢-2H-2-吡喃酮;",
    "alternate_name": "2<em>H</em>-Pyran-2-one, tetrahydro-;Valeric acid, 5-hydroxy-, δ-lactone;Tetrahydro-2<em>H</em>-pyran-2-one;δ-Valerolactone;Pentanoic acid, 5-hydroxy-, δ-lactone;Tetrahydro-2-pyranone;5-Valerolactone;5-Hydroxypentanoic acid δ-lactone;δ-Valeryllactone;1-Oxacyclohexan-2-one;2-Oxotetrahydropyran;5-Hydroxypentanoic acid lactone;NSC 6247;Pentan-5-olide;Oxan-2-one",
    "duplicated_cas_no": "2425576-33-4",
    "SMILES": "O=C1CCCCO1",
    "meta_data": {
        "InChI": "InChI=1S/C5H8O2/c6-5-3-1-2-4-7-5/h1-4H2",
        "InChIKey": null,
        "Canonical SMILES": "O=C1OCCCC1",
        "Molecular Formula": "C<sub>5</sub>H<sub>8</sub>O<sub>2</sub>",
        "Molecular Mass": "100.12",
        "Boiling Point": "219 °C",
        "Melting Point": "-12.5 °C",
        "Density": "1.1130 g/cm³ @ Temp: 20 °C"
    }
}