{
    "cas_no": "105-48-6",
    "key_name": "Isopropyl chloroacetate",
    "cn_name": "氯乙酸异丙酯;",
    "alternate_name": "Acetic acid, 2-chloro-, 1-methylethyl ester;Acetic acid, chloro-, isopropyl ester;Acetic acid, chloro-, 1-methylethyl ester;Isopropyl chloroacetate;1-Methylethyl monochloroacetate;Isopropyl 2-chloroacetate;NSC 27789;Chloroacetic acid isopropyl ester",
    "duplicated_cas_no": "",
    "SMILES": "C(OC(C)C)(CCl)=O",
    "meta_data": {
        "InChI": "InChI=1S/C5H9ClO2/c1-4(2)8-5(7)3-6/h4H,3H2,1-2H3",
        "InChIKey": null,
        "Canonical SMILES": "O=C(OC(C)C)CCl",
        "Molecular Formula": "C<sub>5</sub>H<sub>9</sub>ClO<sub>2</sub>",
        "Molecular Mass": "136.58",
        "Boiling Point": "150.5 °C"
    }
}