{
    "cas_no": "328-70-1",
    "key_name": "1-Bromo-3,5-bis(trifluoromethyl)benzene",
    "cn_name": "3,5-双三氟甲基溴苯;",
    "alternate_name": "Benzene, 1-bromo-3,5-bis(trifluoromethyl)-;<em>m</em>-Xylene, 5-bromo-α,α,α,α′,α′,α′-hexafluoro-;1-Bromo-3,5-bis(trifluoromethyl)benzene;5-Bromo-1,3-bis(trifluoromethyl)benzene;3,5-Bis(trifluoromethyl)bromobenzene;3,5-Bis(trifluoromethyl)phenyl bromide;3,5-Bis(trifluoromethyl)-1-bromobenzene;3,5-Bis(trifluoromethyl)monobromobenzene;NSC 88284;3,5-Di(trifluoromethyl)bromobenzene;1,3-Bis(trifluoromethyl)-5-bromobenzene;1,3-Bis(trifluromethyl)-5-bromobenzene;3,5-Trifluoromethyl-1-bromobenzene;3,5-Di-trifluoromethyl-1-bromobenzene",
    "duplicated_cas_no": "",
    "SMILES": "C(F)(F)(F)C1=CC(C(F)(F)F)=CC(Br)=C1",
    "meta_data": {
        "InChI": "InChI=1S/C8H3BrF6/c9-6-2-4(7(10,11)12)1-5(3-6)8(13,14)15/h1-3H",
        "InChIKey": null,
        "Canonical SMILES": "FC(F)(F)C1=CC(Br)=CC(=C1)C(F)(F)F",
        "Molecular Formula": "C<sub>8</sub>H<sub>3</sub>BrF<sub>6</sub>",
        "Molecular Mass": "293.00",
        "Boiling Point": "152 °C @ Press: 740 Torr",
        "Melting Point": "-16.0--15.5 °C",
        "Density": "1.726 g/cm³ @ Temp: 25 °C"
    }
}