{
    "cas_no": "70-78-0",
    "key_name": "3-Iodo-<span class=\"text-smallcaps\">L</span>-tyrosine",
    "cn_name": "3-碘-L-酪氨酸;3-碘-L-苯酚氨基丙酸;",
    "alternate_name": "<span class=\"text-smallcaps\">L</span>-Tyrosine, 3-iodo-;Tyrosine, 3-iodo-, <span class=\"text-smallcaps\">L</span>-;3-Iodo-<span class=\"text-smallcaps\">L</span>-tyrosine;MIT;3-Iodotyrosine;3-Iodo-4-hydroxyphenylalanine;MIT (amino acid);4-Hydroxy-3-iodophenylalanine;NSC 210787;(2S)-2-Amino-3-(4-hydroxy-3-iodophenyl)propanoic acid;MeSH ID: D007470",
    "duplicated_cas_no": "300-33-4;2751-18-0",
    "SMILES": "C([C@@H](C(O)=O)N)C1=CC(I)=C(O)C=C1",
    "meta_data": {
        "InChI": "InChI=1S/C9H10INO3/c10-6-3-5(1-2-8(6)12)4-7(11)9(13)14/h1-3,7,12H,4,11H2,(H,13,14)/t7-/m0/s1",
        "InChIKey": null,
        "Canonical SMILES": "O=C(O)C(N)CC1=CC=C(O)C(I)=C1",
        "Molecular Formula": "C<sub>9</sub>H<sub>10</sub>INO<sub>3</sub>",
        "Molecular Mass": "307.09",
        "Melting Point": "205 °C (decomp)"
    }
}