{
    "cas_no": "71320-77-9",
    "key_name": "Moclobemide",
    "cn_name": "吗氯贝胺;4-氯-N-2-(4-吗啉基)乙基苯甲酰胺;",
    "alternate_name": "Benzamide, 4-chloro-<em>N</em>-[2-(4-morpholinyl)ethyl]-;4-Chloro-<em>N</em>-[2-(4-morpholinyl)ethyl]benzamide;Ro 11-1163;Moclobemide;4-Chloro-<em>N</em>-(2-morpholin-4-ylethyl)benzamide;Aurorix;4-Chloro-<em>N</em>-(2-morpholinoethyl)benzamide;Moclaime;Ro 11-1163/000;Manerix;<em>p</em>-Chloro-<em>N</em>-(2-morpholinoethyl)-benzamide;Auromid;MeSH ID: D020912",
    "duplicated_cas_no": "",
    "SMILES": "C(NCCN1CCOCC1)(=O)C2=CC=C(Cl)C=C2",
    "meta_data": {
        "InChI": "InChI=1S/C13H17ClN2O2/c14-12-3-1-11(2-4-12)13(17)15-5-6-16-7-9-18-10-8-16/h1-4H,5-10H2,(H,15,17)",
        "InChIKey": null,
        "Canonical SMILES": "O=C(NCCN1CCOCC1)C2=CC=C(Cl)C=C2",
        "Molecular Formula": "C<sub>13</sub>H<sub>17</sub>ClN<sub>2</sub>O<sub>2</sub>",
        "Molecular Mass": "268.74",
        "Melting Point": "137 °C"
    }
}