{
    "cas_no": "13133-07-8",
    "key_name": "Nystose",
    "cn_name": null,
    "alternate_name": "α-<span class=\"text-smallcaps\">D</smallcap>-Glucopyranoside, <em>O</em>-β-<smallcap>D</smallcap>-fructofuranosyl-(2→1)-<em>O</em>-β-<smallcap>D</smallcap>-fructofuranosyl-(2→1)-β-<smallcap>D</span>-fructofuranosyl;Nystose;Glucopyranoside, <em>O</em>-β-<span class=\"text-smallcaps\">D</smallcap>-fructofuranosyl-(2→1)-<em>O</em>-β-<smallcap>D</smallcap>-fructofuranosyl-(2→1)-β-<smallcap>D</smallcap>-fructofuranosyl, α-<smallcap>D</span>-;<em>O</em>-β-<span class=\"text-smallcaps\">D</smallcap>-Fructofuranosyl-(2→1)-<em>O</em>-β-<smallcap>D</smallcap>-fructofuranosyl-(2→1)-β-<smallcap>D</smallcap>-fructofuranosyl α-<smallcap>D</span>-glucopyranoside;Fructosyl-(2→1)-fructosyl-(2→1)-fructosyl-(2→1)-glucose;Fungitetraose;1,1-Kestotetraose",
    "duplicated_cas_no": "95191-77-8;369371-58-4",
    "SMILES": "O([C@]1(CO[C@]2(CO[C@]3(CO)O[C@H](CO)[C@@H](O)[C@@H]3O)O[C@H](CO)[C@@H](O)[C@@H]2O)O[C@H](CO)[C@@H](O)[C@@H]1O)[C@H]4O[C@H](CO)[C@@H](O)[C@H](O)[C@H]4O",
    "meta_data": {
        "InChI": "InChI=1S/C24H42O21/c25-1-8-12(30)16(34)17(35)21(41-8)45-24(20(38)15(33)11(4-28)44-24)7-40-23(19(37)14(32)10(3-27)43-23)6-39-22(5-29)18(36)13(31)9(2-26)42-22/h8-21,25-38H,1-7H2/t8-,9-,10-,11-,12-,13-,14-,15-,16+,17-,18+,19+,20+,21-,22-,23-,24+/m1/s1",
        "InChIKey": null,
        "Canonical SMILES": "OCC1OC(OC2(OC(CO)C(O)C2O)COC3(OC(CO)C(O)C3O)COC4(OC(CO)C(O)C4O)CO)C(O)C(O)C1O",
        "Molecular Formula": "C<sub>24</sub>H<sub>42</sub>O<sub>21</sub>",
        "Molecular Mass": "666.58",
        "Melting Point": "130-133 °C"
    }
}