{
    "cas_no": "6938-66-5",
    "key_name": "1-Bromodocosane",
    "cn_name": "1-溴二十二烷;1-溴二十二烷;1-溴十二烷,97+%;",
    "alternate_name": "Docosane, 1-bromo-;1-Bromodocosane;Docosyl bromide;Behenyl bromide;NSC 53991;S 71281",
    "duplicated_cas_no": "1465759-09-4",
    "SMILES": "C(CCCCCCCCCCBr)CCCCCCCCCCC",
    "meta_data": {
        "InChI": "InChI=1S/C22H45Br/c1-2-3-4-5-6-7-8-9-10-11-12-13-14-15-16-17-18-19-20-21-22-23/h2-22H2,1H3",
        "InChIKey": null,
        "Canonical SMILES": "BrCCCCCCCCCCCCCCCCCCCCCC",
        "Molecular Formula": "C<sub>22</sub>H<sub>45</sub>Br",
        "Molecular Mass": "389.50",
        "Boiling Point": "225 °C @ Press: 0.8 Torr",
        "Melting Point": "44 °C"
    }
}