{
    "cas_no": "2977-71-1",
    "key_name": "Phenol, 2-amino-4-methyl-, hydrochloride (1:1)",
    "cn_name": "2-氨基对甲酚盐酸盐;",
    "alternate_name": "Phenol, 2-amino-4-methyl-, hydrochloride (1:1);<em>p</em>-Cresol, 2-amino-, hydrochloride;Phenol, 2-amino-4-methyl-, hydrochloride;4-Methyl-2-aminophenol hydrochloride;2-Amino-<em>p</em>-cresol hydrochloride;2-Amino-4-methylphenol hydrochloride",
    "duplicated_cas_no": "",
    "SMILES": "NC1=C(O)C=CC(C)=C1.Cl",
    "meta_data": {
        "InChI": "InChI=1S/C7H9NO.ClH/c1-5-2-3-7(9)6(8)4-5;/h2-4,9H,8H2,1H3;1H",
        "InChIKey": null,
        "Canonical SMILES": "Cl.OC1=CC=C(C=C1N)C",
        "Molecular Formula": "C<sub>7</sub>H<sub>9</sub>NO.ClH",
        "Molecular Mass": "",
        "Melting Point": "222-224 °C"
    }
}