{
    "cas_no": "119193-19-0",
    "key_name": "3-[(3<em>R</em>,4<em>R</em>)-3,4-Dimethyl-4-piperidinyl]phenol",
    "cn_name": null,
    "alternate_name": "Phenol, 3-[(3<em>R</em>,4<em>R</em>)-3,4-dimethyl-4-piperidinyl]-;Phenol, 3-(3,4-dimethyl-4-piperidinyl)-, (3<em>R</em>-<em>cis</em>)-;3-[(3<em>R</em>,4<em>R</em>)-3,4-Dimethyl-4-piperidinyl]phenol;(+)-(3<em>R</em>,4<em>R</em>)-Dimethyl-4-(3-hydroxyphenyl)piperidine;(+)-(3<em>R</em>,4<em>R</em>)-3,4-Dimethyl-4-(3-hydroxyphenyl)piperidine;(3R,4R)-3,4-Dimethyl-4-(3-hydroxyphenyl)piperidine;(3R,4R)-3-(3,4-Dimethyl-4-piperidinyl)phenol",
    "duplicated_cas_no": "",
    "SMILES": "C[C@@]1([C@@H](C)CNCC1)C2=CC(O)=CC=C2",
    "meta_data": {
        "InChI": "InChI=1S/C13H19NO/c1-10-9-14-7-6-13(10,2)11-4-3-5-12(15)8-11/h3-5,8,10,14-15H,6-7,9H2,1-2H3/t10-,13+/m0/s1",
        "InChIKey": null,
        "Canonical SMILES": "OC1=CC=CC(=C1)C2(C)CCNCC2C",
        "Molecular Formula": "C<sub>13</sub>H<sub>19</sub>NO",
        "Molecular Mass": "205.30",
        "Melting Point": "174-175 °C"
    }
}