{
    "cas_no": "948-65-2",
    "key_name": "2-Phenylindole",
    "cn_name": "2-苯基吲哚;",
    "alternate_name": "1<em>H</em>-Indole, 2-phenyl-;Indole, 2-phenyl-;2-Phenyl-1<em>H</em>-indole;α-Phenylindole;2-Phenylindole;Stabilizer I;NSC 15776",
    "duplicated_cas_no": "2222571-82-4",
    "SMILES": "C1(=CC=2C(N1)=CC=CC2)C3=CC=CC=C3",
    "meta_data": {
        "InChI": "InChI=1S/C14H11N/c1-2-6-11(7-3-1)14-10-12-8-4-5-9-13(12)15-14/h1-10,15H",
        "InChIKey": null,
        "Canonical SMILES": "C=1C=CC(=CC1)C2=CC=3C=CC=CC3N2",
        "Molecular Formula": "C<sub>14</sub>H<sub>11</sub>N",
        "Molecular Mass": "193.24",
        "Boiling Point": "195-200 °C @ Press: 6 Torr",
        "Melting Point": "190.5 °C"
    }
}