{
    "cas_no": "2785-54-8",
    "key_name": "Tetradecylpyridinium chloride",
    "cn_name": "十四烷基氯化吡啶;",
    "alternate_name": "Pyridinium, 1-tetradecyl-, chloride (1:1);Pyridinium, 1-tetradecyl-, chloride;1-Tetradecylpyridinium chloride;Tetradecylpyridinium chloride;Myristylpyridinium chloride;<em>N</em>-Tetradecylpyridinium chloride;1-<em>n</em>-Tetradecanepyridinium chloride;TPC;TPC (onium compound)",
    "duplicated_cas_no": "951742-57-7",
    "SMILES": "C(CCCCCCCCCCCCC)[N+]=1C=CC=CC1.[Cl-]",
    "meta_data": {
        "InChI": "InChI=1S/C19H34N.ClH/c1-2-3-4-5-6-7-8-9-10-11-12-14-17-20-18-15-13-16-19-20;/h13,15-16,18-19H,2-12,14,17H2,1H3;1H/q+1;/p-1",
        "InChIKey": null,
        "Canonical SMILES": "[Cl-].C=1C=C[N+](=CC1)CCCCCCCCCCCCCC",
        "Molecular Formula": "C<sub>19</sub>H<sub>34</sub>N.Cl",
        "Molecular Mass": "",
        "Melting Point": "77 °C"
    }
}