{
    "cas_no": "3077-46-1",
    "key_name": "<em>N</em>-Acetyl-<span class=\"text-smallcaps\">L</span>-isoleucine",
    "cn_name": "N-乙酰-L-异亮氨酸;",
    "alternate_name": "<span class=\"text-smallcaps\">L</span>-Isoleucine, <em>N</em>-acetyl-;Isoleucine, <em>N</em>-acetyl-, <span class=\"text-smallcaps\">L</span>-;<em>N</em>-Acetyl-<span class=\"text-smallcaps\">L</span>-isoleucine;<em>N</em>-Acetylisoleucine;NSC 203807",
    "duplicated_cas_no": "255714-48-8;1221292-63-2;1497406-53-7",
    "SMILES": "[C@@H]([C@H](CC)C)(NC(C)=O)C(O)=O",
    "meta_data": {
        "InChI": "InChI=1S/C8H15NO3/c1-4-5(2)7(8(11)12)9-6(3)10/h5,7H,4H2,1-3H3,(H,9,10)(H,11,12)/t5-,7-/m0/s1",
        "InChIKey": null,
        "Canonical SMILES": "O=C(NC(C(=O)O)C(C)CC)C",
        "Molecular Formula": "C<sub>8</sub>H<sub>15</sub>NO<sub>3</sub>",
        "Molecular Mass": "173.21",
        "Melting Point": "150-151 °C"
    }
}