{
    "cas_no": "58546-54-6",
    "key_name": "Gomisin A",
    "cn_name": "五味子醇甲;",
    "alternate_name": "Benzo[3,4]cycloocta[1,2-<em>f</em>][1,3]benzodioxol-6-ol, 5,6,7,8-tetrahydro-1,2,3,13-tetramethoxy-6,7-dimethyl-, (6<em>S</em>,7<em>S</em>,13a<em>R</em>)-;Benzo[3,4]cycloocta[1,2-<em>f</em>][1,3]benzodioxol-6-ol, 5,6,7,8-tetrahydro-1,2,3,13-tetramethoxy-6,7-dimethyl-, stereoisomer;(6<em>S</em>,7<em>S</em>,13a<em>R</em>)-5,6,7,8-Tetrahydro-1,2,3,13-tetramethoxy-6,7-dimethylbenzo[3,4]cycloocta[1,2-<em>f</em>][1,3]benzodioxol-6-ol;Gomisin A;Schisandrol B;Schizandrol B;Wuweizichun B;Wuweizi alcohol B;TJN 101;(+)-Gomisin A;Besigomsin;Schisantherinol B",
    "duplicated_cas_no": "61281-39-8",
    "SMILES": "O(C)C1=C2C=3C(=CC(OC)=C(OC)C3OC)CC(C)(O)C(C)CC2=CC4=C1OCO4",
    "meta_data": {
        "InChI": "InChI=1S/C23H28O7/c1-12-7-13-8-16-20(30-11-29-16)22(28-6)17(13)18-14(10-23(12,2)24)9-15(25-3)19(26-4)21(18)27-5/h8-9,12,24H,7,10-11H2,1-6H3",
        "InChIKey": null,
        "Canonical SMILES": "OC1(C)CC=2C=C(OC)C(OC)=C(OC)C2C3=C(OC)C=4OCOC4C=C3CC1C",
        "Molecular Formula": "C<sub>23</sub>H<sub>28</sub>O<sub>7</sub>",
        "Molecular Mass": "416.46",
        "Melting Point": "80-85 °C"
    }
}