{
    "cas_no": "20033-99-2",
    "key_name": "6-Methoxy-1<em>H</em>-benzimidazole-2-methanol",
    "cn_name": null,
    "alternate_name": "1<em>H</em>-Benzimidazole-2-methanol, 6-methoxy-;2-Benzimidazolemethanol, 5-methoxy-;1<em>H</em>-Benzimidazole-2-methanol, 5-methoxy-;2-Benzimidazolemethanol, 5(<em>or</em> 6)-methoxy-;6-Methoxy-1<em>H</em>-benzimidazole-2-methanol;(6-Methoxy-1<em>H</em>-benzimidazol-2-yl)methanol;(5-Methoxy-1<em>H</em>-benzoimidazol-2-yl)-methanol;(5-Methoxy-1<em>H</em>-1,3-benzodiazol-2-yl)methanol",
    "duplicated_cas_no": "",
    "SMILES": "C(O)C=1NC=2C(N1)=CC=C(OC)C2",
    "meta_data": {
        "InChI": "InChI=1S/C9H10N2O2/c1-13-6-2-3-7-8(4-6)11-9(5-12)10-7/h2-4,12H,5H2,1H3,(H,10,11)",
        "InChIKey": null,
        "Canonical SMILES": "OCC1=NC=2C=CC(OC)=CC2N1",
        "Molecular Formula": "C<sub>9</sub>H<sub>10</sub>N<sub>2</sub>O<sub>2</sub>",
        "Molecular Mass": "178.19",
        "Melting Point": "190-191 °C"
    }
}