{
    "cas_no": "12236-29-2",
    "key_name": "Disperse Yellow 39",
    "cn_name": "分散黄39;分散黄39DisperseYellow39;",
    "alternate_name": "3<em>H</em>-Indol-3-one, 2-[[4-(dimethylamino)phenyl]methylene]-1,2-dihydro-;C.I. Disperse Yellow 39;[4-[(3-Hydroxyindol-2-yl)methylene]-2,5-cyclohexadien-1-ylidene]dimethylammonium hydroxide, inner salt;Dispersol Fast Yellow GR;Dispersol Yellow B-GR;Disperse Yellow 39;C.I. 480095",
    "duplicated_cas_no": "104188-42-3",
    "SMILES": "O=C1C=2C(NC1=CC3=CC=C(N(C)C)C=C3)=CC=CC2",
    "meta_data": {
        "InChI": "InChI=1S/C17H16N2O/c1-19(2)13-9-7-12(8-10-13)11-16-17(20)14-5-3-4-6-15(14)18-16/h3-11,18H,1-2H3",
        "InChIKey": null,
        "Canonical SMILES": "O=C1C(=CC2=CC=C(C=C2)N(C)C)NC=3C=CC=CC13",
        "Molecular Formula": "C<sub>17</sub>H<sub>16</sub>N<sub>2</sub>O",
        "Molecular Mass": "264.32",
        "Melting Point": "232-234 °C"
    }
}