{
    "cas_no": "609-40-5",
    "key_name": "2-Nitrothiophene",
    "cn_name": "2-硝基噻吩;",
    "alternate_name": "Thiophene, 2-nitro-;2-Nitrothiophene;α-Nitrothiophene;NSC 5371",
    "duplicated_cas_no": "",
    "SMILES": "N(=O)(=O)C1=CC=CS1",
    "meta_data": {
        "InChI": "InChI=1S/C4H3NO2S/c6-5(7)4-2-1-3-8-4/h1-3H",
        "InChIKey": null,
        "Canonical SMILES": "O=N(=O)C=1SC=CC1",
        "Molecular Formula": "C<sub>4</sub>H<sub>3</sub>NO<sub>2</sub>S",
        "Molecular Mass": "129.14",
        "Boiling Point": "224.5 °C",
        "Melting Point": "46.5 °C"
    }
}