{
    "cas_no": "1795-09-1",
    "key_name": "2-Methyltetrahydrothiophene",
    "cn_name": "2-甲基四氢噻吩;",
    "alternate_name": "Thiophene, tetrahydro-2-methyl-;Tetrahydro-2-methylthiophene;2-Methylthiacyclopentane;2-Methyltetrahydrothiophene;2-Methylthiolane;2-Methylthiophane;(±)-2-Methylthiolane",
    "duplicated_cas_no": "160869-31-8",
    "SMILES": "CC1CCCS1",
    "meta_data": {
        "InChI": "InChI=1S/C5H10S/c1-5-3-2-4-6-5/h5H,2-4H2,1H3",
        "InChIKey": null,
        "Canonical SMILES": "S1CCCC1C",
        "Molecular Formula": "C<sub>5</sub>H<sub>10</sub>S",
        "Molecular Mass": "102.20",
        "Boiling Point": "134 °C",
        "Melting Point": "-100.7 °C",
        "Density": "0.9583 g/cm³ @ Temp: 20 °C"
    }
}