{
    "cas_no": "71-90-9",
    "key_name": "2-Methylglutamic acid",
    "cn_name": "地诺帕明;待罗把胺;甲氧丁巴胺;",
    "alternate_name": "Glutamic acid, 2-methyl-;Glutamic acid, 2-methyl-, <span class=\"text-smallcaps\">DL</span>-;<span class=\"text-smallcaps\">DL</span>-Glutamic acid, 2-methyl-;2-Methylglutamic acid;α-Methyl-<span class=\"text-smallcaps\">DL</span>-glutamic acid;2-Methyl-<span class=\"text-smallcaps\">DL</span>-glutamic acid;α-Methylglutamic acid;2-Amino-2-methylpentanedioic acid;NSC 11704;NSC 226144;NSC 9968",
    "duplicated_cas_no": "470-51-9",
    "SMILES": "C(CCC(O)=O)(C(O)=O)(C)N",
    "meta_data": {
        "InChI": "InChI=1S/C6H11NO4/c1-6(7,5(10)11)3-2-4(8)9/h2-3,7H2,1H3,(H,8,9)(H,10,11)",
        "InChIKey": null,
        "Canonical SMILES": "O=C(O)CCC(N)(C(=O)O)C",
        "Molecular Formula": "C<sub>6</sub>H<sub>11</sub>NO<sub>4</sub>",
        "Molecular Mass": "161.16",
        "Melting Point": "165 °C"
    }
}