{
    "cas_no": "667-84-5",
    "key_name": "<em>N</em>-(3-Ethoxypropyl)-2,4-dihydroxy-3,3-dimethylbutanamide",
    "cn_name": "DL-泛醇乙醚;(R)-(+)-2,4-二羟基-N-(3-乙氧基丙基)-3,3-二甲基丁酰胺;",
    "alternate_name": "Butanamide, <em>N</em>-(3-ethoxypropyl)-2,4-dihydroxy-3,3-dimethyl-;Butyramide, <em>N</em>-(3-ethoxypropyl)-2,4-dihydroxy-3,3-dimethyl-, (±)-;Butanamide, <em>N</em>-(3-ethoxypropyl)-2,4-dihydroxy-3,3-dimethyl-, (±)-;<em>N</em>-(3-Ethoxypropyl)-2,4-dihydroxy-3,3-dimethylbutanamide",
    "duplicated_cas_no": "91249-97-7",
    "SMILES": "C(C(NCCCOCC)=O)(C(CO)(C)C)O",
    "meta_data": {
        "InChI": "InChI=1S/C11H23NO4/c1-4-16-7-5-6-12-10(15)9(14)11(2,3)8-13/h9,13-14H,4-8H2,1-3H3,(H,12,15)",
        "InChIKey": null,
        "Canonical SMILES": "O=C(NCCCOCC)C(O)C(C)(C)CO",
        "Molecular Formula": "C<sub>11</sub>H<sub>23</sub>NO<sub>4</sub>",
        "Molecular Mass": "233.30",
        "Boiling Point": "130-132 °C @ Press: 760 Torr"
    }
}