{
    "cas_no": "163222-33-1",
    "key_name": "Ezetimibe",
    "cn_name": "依泽替米贝;依替米贝;1-(4-氟苯基)-(3R)-[3-(4-氟苯基)-(3S)-羟基丙基]-(4S)-(4-羟基苯基)-2-丙内酰胺;",
    "alternate_name": "2-Azetidinone, 1-(4-fluorophenyl)-3-[(3<em>S</em>)-3-(4-fluorophenyl)-3-hydroxypropyl]-4-(4-hydroxyphenyl)-, (3<em>R</em>,4<em>S</em>)-;2-Azetidinone, 1-(4-fluorophenyl)-3-[3-(4-fluorophenyl)-3-hydroxypropyl]-4-(4-hydroxyphenyl)-, [3<em>R</em>-[3α(<em>S</em>*),4β]]-;(3<em>R</em>,4<em>S</em>)-1-(4-Fluorophenyl)-3-[(3<em>S</em>)-3-(4-fluorophenyl)-3-hydroxypropyl]-4-(4-hydroxyphenyl)-2-azetidinone;Sch 58235;Ezetimibe;(-)-Sch 58235;Zetia;Ezetrol;Ezta;Ezedoc;1-(4-Fluorophenyl)-3(<em>R</em>)-[3-(4-fluorophenyl)-3(<em>S</em>)-hydroxypropyl]-4(<em>S</em>)-(4-hydroxyphenyl)azetidin-2-one;Ezentia",
    "duplicated_cas_no": "",
    "SMILES": "C(C[C@H](O)C1=CC=C(F)C=C1)[C@@H]2[C@H](N(C2=O)C3=CC=C(F)C=C3)C4=CC=C(O)C=C4",
    "meta_data": {
        "InChI": "InChI=1S/C24H21F2NO3/c25-17-5-1-15(2-6-17)22(29)14-13-21-23(16-3-11-20(28)12-4-16)27(24(21)30)19-9-7-18(26)8-10-19/h1-12,21-23,28-29H,13-14H2/t21-,22+,23-/m1/s1",
        "InChIKey": null,
        "Canonical SMILES": "O=C1N(C2=CC=C(F)C=C2)C(C3=CC=C(O)C=C3)C1CCC(O)C4=CC=C(F)C=C4",
        "Molecular Formula": "C<sub>24</sub>H<sub>21</sub>F<sub>2</sub>NO<sub>3</sub>",
        "Molecular Mass": "409.43",
        "Melting Point": "164-166 °C"
    }
}