{
    "cas_no": "5459-40-5",
    "key_name": "1-Ethenyl-4-ethoxybenzene",
    "cn_name": "4-乙氧基苯乙烯;",
    "alternate_name": "Benzene, 1-ethenyl-4-ethoxy-;Phenetole, <em>p</em>-vinyl-;1-Ethenyl-4-ethoxybenzene;4-Ethoxystyrene;<em>p</em>-Vinylphenetol;<em>p</em>-Ethoxystyrene;NSC 24179;1-Ethoxy-4-vinylbenzene",
    "duplicated_cas_no": "",
    "SMILES": "O(CC)C1=CC=C(C=C)C=C1",
    "meta_data": {
        "InChI": "InChI=1S/C10H12O/c1-3-9-5-7-10(8-6-9)11-4-2/h3,5-8H,1,4H2,2H3",
        "InChIKey": null,
        "Canonical SMILES": "O(C1=CC=C(C=C)C=C1)CC",
        "Molecular Formula": "C<sub>10</sub>H<sub>12</sub>O",
        "Molecular Mass": "148.20",
        "Boiling Point": "99-100 °C @ Press: 11 Torr",
        "Density": "0.994 g/cm³ @ Temp: 20 °C"
    }
}