{
    "cas_no": "16649-49-3",
    "key_name": "Acetic-<em>2</em>,<em>2</em>,<em>2</em>-<em>d</em><sub>3</sub> acid, 1,1′-anhydride",
    "cn_name": "乙酸酐-d6;",
    "alternate_name": "Acetic-<em>2</em>,<em>2</em>,<em>2</em>-<em>d</em><sub>3</sub> acid, 1,1′-anhydride;(Acetic anhydride)-<em>d</em><sub>6</sub>;Acetic-<em>d</em><sub>3</sub> acid, anhydride;Hexadeuterioacetic anhydride;Perdeuterioacetic anhydride;<em>d</em><sub>6</sub>-Acetic anhydride;Acetic anhydride-d<sub>6</sub>",
    "duplicated_cas_no": "",
    "SMILES": "O(C(C([2H])([2H])[2H])=O)C(C([2H])([2H])[2H])=O",
    "meta_data": {
        "InChI": "InChI=1S/C4H6O3/c1-3(5)7-4(2)6/h1-2H3/i1D3,2D3",
        "InChIKey": null,
        "Canonical SMILES": "O=C(OC(=O)C)C",
        "Molecular Formula": "C<sub>4</sub>D<sub>6</sub>O<sub>3</sub>",
        "Molecular Mass": "",
        "Boiling Point": "138-140 °C @ Press: 760 Torr"
    }
}