{
    "cas_no": "131-53-3",
    "key_name": "2,2′-Dihydroxy-4-methoxybenzophenone",
    "cn_name": "2,2\"-羟基-4-甲氧基二苯甲酮;",
    "alternate_name": "Methanone, (2-hydroxy-4-methoxyphenyl)(2-hydroxyphenyl)-;Benzophenone, 2,2′-dihydroxy-4-methoxy-;(2-Hydroxy-4-methoxyphenyl)(2-hydroxyphenyl)methanone;Cyasorb UV 24;Cyasorb UV 24 Light Absorber;2,2′-Dihydroxy-4-methoxybenzophenone;Dioxybenzone;Spectra-Sorb UV 24;Advastab 47;UF 2;UV 24;Dioxybenzon;Benzophenone 8;NSC 56769;Kemisorb 111;4-Methoxy-2,2′-dihydroxybenzophenone;DMB;Eversorb 52;BP 8",
    "duplicated_cas_no": "186100-79-8",
    "SMILES": "C(=O)(C1=C(O)C=C(OC)C=C1)C2=C(O)C=CC=C2",
    "meta_data": {
        "InChI": "InChI=1S/C14H12O4/c1-18-9-6-7-11(13(16)8-9)14(17)10-4-2-3-5-12(10)15/h2-8,15-16H,1H3",
        "InChIKey": null,
        "Canonical SMILES": "O=C(C=1C=CC=CC1O)C2=CC=C(OC)C=C2O",
        "Molecular Formula": "C<sub>14</sub>H<sub>12</sub>O<sub>4</sub>",
        "Molecular Mass": "244.24",
        "Boiling Point": "170-175 °C @ Press: 1 Torr",
        "Melting Point": "68 °C"
    }
}