{
    "cas_no": "20249-17-6",
    "key_name": "3-Hydroxycyclobutane-1-carbonitrile",
    "cn_name": null,
    "alternate_name": "Cyclobutanecarbonitrile, 3-hydroxy-;3-Hydroxycyclobutanecarbonitrile;3-Cyanocyclobutanol;3-Hydroxy-cyclobutanecarbonitrile;3-Hydroxycyclobutane-1-carbonitrile",
    "duplicated_cas_no": "",
    "SMILES": "C(#N)C1CC(O)C1",
    "meta_data": {
        "InChI": "InChI=1S/C5H7NO/c6-3-4-1-5(7)2-4/h4-5,7H,1-2H2",
        "InChIKey": null,
        "Canonical SMILES": "N#CC1CC(O)C1",
        "Molecular Formula": "C<sub>5</sub>H<sub>7</sub>NO",
        "Molecular Mass": "97.12",
        "Boiling Point": "70-71 °C @ Press: 0.33 Torr"
    }
}