{
    "cas_no": "10199-89-0",
    "key_name": "NBD-Cl",
    "cn_name": "4-氯-7-硝基苯并-2-氧杂-1,3-二唑;",
    "alternate_name": "2,1,3-Benzoxadiazole, 4-chloro-7-nitro-;Benzofurazan, 4-chloro-7-nitro-;4-Chloro-7-nitro-2,1,3-benzoxadiazole;7-Chloro-4-nitro-2,1,3-benzoxadiazole;4-Chloro-7-nitrobenzofurazan;7-Chloro-4-nitrobenzo-2-oxa-1,3-diazole;4-Chloro-7-nitro-2,1,3-benzooxadiazole;7-Chloro-4-nitrobenzofurazan;NBD-Cl;4-Chloro-7-nitrobenz-2-oxa-1,3-diazole;7-Nitro-4-chlorobenzofurazan;7-Nitrobenzo-2-oxa-1,3-diazol-4-yl chloride;NSC 228140;4-Chloro-7-nitrobenzo[<em>c</em>][1,2,5]oxadiazole;4-Chloro-7-nitrobezofurazan;MeSH ID: D009327",
    "duplicated_cas_no": "1431536-46-7",
    "SMILES": "N(=O)(=O)C=1C=2C(C(Cl)=CC1)=NON2",
    "meta_data": {
        "InChI": "InChI=1S/C6H2ClN3O3/c7-3-1-2-4(10(11)12)6-5(3)8-13-9-6/h1-2H",
        "InChIKey": null,
        "Canonical SMILES": "O=N(=O)C1=CC=C(Cl)C2=NON=C21",
        "Molecular Formula": "C<sub>6</sub>H<sub>2</sub>ClN<sub>3</sub>O<sub>3</sub>",
        "Molecular Mass": "199.55",
        "Melting Point": "96.5-97.0 °C"
    }
}