{
    "cas_no": "71-27-2",
    "key_name": "Succinylcholine chloride",
    "cn_name": "氯化琥珀酰胆碱;司可林;",
    "alternate_name": "Ethanaminium, 2,2′-[(1,4-dioxo-1,4-butanediyl)bis(oxy)]bis[<em>N</em>,<em>N</em>,<em>N</em>-trimethyl-, chloride (1:2);Choline, chloride succinate;Choline, chloride, succinate (2:1);Ethanaminium, 2,2′-[(1,4-dioxo-1,4-butanediyl)bis(oxy)]bis[<em>N</em>,<em>N</em>,<em>N</em>-trimethyl-, dichloride;Succinic acid, diester with choline chloride;Anectine chloride;Bis(2-dimethylaminoethyl) succinate bis(methochloride);Choline succinate dichloride;2-Dimethylaminoethyl succinate dimethochloride;(2-Hydroxyethyl)trimethylammonium chloride succinate;Lysthenon;Lysthenone;Midarine;Quelicin chloride;Scoline chloride;Succicuran;Succinic acid bis[β-dimethylaminoethyl] ester dimethochloride;Succinoylcholine chloride;Succinyl-asta;Succinyl bischoline chloride;Succinylcholine chloride;Succinylcholine dichloride;Succinyldicholine chloride;Succinylforte;Sucostrin chloride;Suxamethonium chloride;Anectine;Succinylbischoline dichloride;Scoline;Suxamethonium dichloride;Quelicin;Skolin;Pantolax;Myoplegine;Succin;Sukolin;Sucostrin;Diacetylcholine dichloride;Querlicin;Succinolin",
    "duplicated_cas_no": "10168-63-5",
    "SMILES": "C([N+](C)(C)C)COC(CCC(OCC[N+](C)(C)C)=O)=O.[Cl-]",
    "meta_data": {
        "InChI": "InChI=1S/C14H30N2O4.2ClH/c1-15(2,3)9-11-19-13(17)7-8-14(18)20-12-10-16(4,5)6;;/h7-12H2,1-6H3;2*1H/q+2;;/p-2",
        "InChIKey": null,
        "Canonical SMILES": "[Cl-].O=C(OCC[N+](C)(C)C)CCC(=O)OCC[N+](C)(C)C",
        "Molecular Formula": "C<sub>14</sub>H<sub>30</sub>N<sub>2</sub>O<sub>4</sub>.2Cl",
        "Molecular Mass": "",
        "Melting Point": "190 °C"
    }
}