{
    "cas_no": "112-10-7",
    "key_name": "Isopropyl stearate",
    "cn_name": "硬脂酸异丙酯;十八烷酸-1-甲基乙基酯;",
    "alternate_name": "Octadecanoic acid, 1-methylethyl ester;Stearic acid, isopropyl ester;Isopropyl stearate;Wickenol 127;Emerest 2310;Isopropyl octadecanoate;Kessco IPS;Radia 7195",
    "duplicated_cas_no": "",
    "SMILES": "C(CCCCCCCCCCCCCC)CCC(OC(C)C)=O",
    "meta_data": {
        "InChI": "InChI=1S/C21H42O2/c1-4-5-6-7-8-9-10-11-12-13-14-15-16-17-18-19-21(22)23-20(2)3/h20H,4-19H2,1-3H3",
        "InChIKey": null,
        "Canonical SMILES": "O=C(OC(C)C)CCCCCCCCCCCCCCCCC",
        "Molecular Formula": "C<sub>21</sub>H<sub>42</sub>O<sub>2</sub>",
        "Molecular Mass": "326.56",
        "Boiling Point": "207 °C",
        "Melting Point": "28 °C"
    }
}