{
    "cas_no": "15308-01-7",
    "key_name": "2-Chloro-<em>N</em>-(2,6-dichlorophenyl)-<em>N</em>-phenylacetamide",
    "cn_name": "N-(2,6-二氯苯基)-N-苯基-氯乙酰胺;2,2\",6\"-三氯-N-苯基乙酰苯胺;",
    "alternate_name": "Acetamide, 2-chloro-<em>N</em>-(2,6-dichlorophenyl)-<em>N</em>-phenyl-;Acetanilide, 2,2′,6′-trichloro-<em>N</em>-phenyl-;2-Chloro-<em>N</em>-(2,6-dichlorophenyl)-<em>N</em>-phenylacetamide;<em>N</em>-(Chloroacetyl)-2,6-dichlorodiphenylamine;2,2′,6′-Trichloro-<em>N</em>-phenylacetanilide",
    "duplicated_cas_no": "",
    "SMILES": "N(C(CCl)=O)(C1=C(Cl)C=CC=C1Cl)C2=CC=CC=C2",
    "meta_data": {
        "InChI": "InChI=1S/C14H10Cl3NO/c15-9-13(19)18(10-5-2-1-3-6-10)14-11(16)7-4-8-12(14)17/h1-8H,9H2",
        "InChIKey": null,
        "Canonical SMILES": "O=C(N(C=1C=CC=CC1)C=2C(Cl)=CC=CC2Cl)CCl",
        "Molecular Formula": "C<sub>14</sub>H<sub>10</sub>Cl<sub>3</sub>NO",
        "Molecular Mass": "314.59",
        "Melting Point": "143-144 °C"
    }
}