{
    "cas_no": "85-44-9",
    "key_name": "Phthalic anhydride",
    "cn_name": "苯酐;邻苯二甲酸酐;酞酐;",
    "alternate_name": "1,3-Isobenzofurandione;Phthalic anhydride;ESEN;Phthalandione;1,3-Phthalandione;Phthalic acid anhydride;Retarder AK;Retarder ESEN;Retarder PD;1,2-Benzenedicarboxylic anhydride;Vulkalent B/C;TGL 6525;Araldite HT 901;HT 901;Phthalanhydride;Sconoc 7;Retarder B-C;NSC 10431;Sconoc 5;2-Benzofuran-1,3-dione;Rikacid PA;OP 392;ADP 1200;1,3-Dihydro-2-benzofuran-1,3-dione;F-A 14955;SD 251",
    "duplicated_cas_no": "39363-63-8",
    "SMILES": "O=C1C=2C(C(=O)O1)=CC=CC2",
    "meta_data": {
        "InChI": "InChI=1S/C8H4O3/c9-7-5-3-1-2-4-6(5)8(10)11-7/h1-4H",
        "InChIKey": null,
        "Canonical SMILES": "O=C1OC(=O)C=2C=CC=CC12",
        "Molecular Formula": "C<sub>8</sub>H<sub>4</sub>O<sub>3</sub>",
        "Molecular Mass": "148.12",
        "Boiling Point": "295 °C",
        "Melting Point": "130.8 °C",
        "Density": "1.53 g/cm³"
    }
}