{
    "cas_no": "5743-04-4",
    "key_name": "Cadmium acetate dihydrate",
    "cn_name": "乙酸镉二水合物;",
    "alternate_name": "Acetic acid, cadmium salt, dihydrate;Cadmium acetate dihydrate;Cadmium diacetate dihydrate",
    "duplicated_cas_no": "",
    "SMILES": "C(C)(O)=O.[Cd].O",
    "meta_data": {
        "InChI": "InChI=1S/C2H4O2.Cd.H2O/c1-2(3)4;;/h1H3,(H,3,4);;1H2",
        "InChIKey": null,
        "Canonical SMILES": "[Cd].O=C(O)C.O",
        "Molecular Formula": "C<sub>2</sub>H<sub>4</sub>O<sub>2</sub>.<sup>1</sup>/<sub>2</sub>Cd.H<sub>2</sub>O",
        "Molecular Mass": "",
        "Melting Point": "254-256 °C",
        "Density": "2.010 g/cm³"
    }
}