{
    "cas_no": "4318-56-3",
    "key_name": "6-Chloro-3-methyl-2,4(1<em>H</em>,3<em>H</em>)-pyrimidinedione",
    "cn_name": "6-氯-3-甲基尿嘧啶;3-甲基-6-氯尿嘧啶;",
    "alternate_name": "2,4(1<em>H</em>,3<em>H</em>)-Pyrimidinedione, 6-chloro-3-methyl-;Uracil, 6-chloro-3-methyl-;6-Chloro-3-methyl-2,4(1<em>H</em>,3<em>H</em>)-pyrimidinedione;6-Chloro-3-methyluracil;3-Methyl-6-chlorouracil;6-Chloro-3-methylpyrimidine-2,4(1<em>H</em>,3<em>H</em>)-dione;NSC 55976;6-Chloro-3-methylpyrimidine-2,4-dione;6-Chloro-2-hydroxy-3-methylpyrimidin-4(3<em>H</em>)-one",
    "duplicated_cas_no": "",
    "SMILES": "CN1C(=O)C=C(Cl)NC1=O",
    "meta_data": {
        "InChI": "InChI=1S/C5H5ClN2O2/c1-8-4(9)2-3(6)7-5(8)10/h2H,1H3,(H,7,10)",
        "InChIKey": null,
        "Canonical SMILES": "O=C1C=C(Cl)NC(=O)N1C",
        "Molecular Formula": "C<sub>5</sub>H<sub>5</sub>ClN<sub>2</sub>O<sub>2</sub>",
        "Molecular Mass": "160.56",
        "Melting Point": "277-279 °C"
    }
}