{
    "cas_no": "41340-25-4",
    "key_name": "Etodolac",
    "cn_name": "依托度酸;1,8-二乙基-1,3,4,9-四氢吡喃[3,4-b]吲哚-1-乙酸;",
    "alternate_name": "Pyrano[3,4-<em>b</em>]indole-1-acetic acid, 1,8-diethyl-1,3,4,9-tetrahydro-;1,8-Diethyl-1,3,4,9-tetrahydropyrano[3,4-<em>b</em>]indole-1-acetic acid;Etodolic acid;AY 24236;Etodolac;NIH 9918;(±)-Etodolac;(<em>RS</em>)-Etodolic acid;Lodine;Zedolac;Ultradol;Tedolan;Ramodar;Edolan;NSC 282126;Etogesic;Lodin XL;Napilac;Etodine;Eccoxolac;1,8-Diethyl-1,3,4,9-tetrahydropyrano[3,4-<em>b</em>]indol-1-acetic acid;Flancox;Etopan;2-(1,8-Diethyl-4,9-dihydro-3<em>H</em>-pyrano[3,4-<em>b</em>]indol-1-yl)acetic acid;MeSH ID: D017308",
    "duplicated_cas_no": "87226-38-8",
    "SMILES": "C(C(O)=O)C1(CC)C2=C(C=3C(N2)=C(CC)C=CC3)CCO1",
    "meta_data": {
        "InChI": "InChI=1S/C17H21NO3/c1-3-11-6-5-7-12-13-8-9-21-17(4-2,10-14(19)20)16(13)18-15(11)12/h5-7,18H,3-4,8-10H2,1-2H3,(H,19,20)",
        "InChIKey": null,
        "Canonical SMILES": "O=C(O)CC1(OCCC=2C=3C=CC=C(C3NC21)CC)CC",
        "Molecular Formula": "C<sub>17</sub>H<sub>21</sub>NO<sub>3</sub>",
        "Molecular Mass": "287.35",
        "Melting Point": "146.5 °C"
    }
}