{
    "cas_no": "821-38-5",
    "key_name": "Tetradecanedioic acid",
    "cn_name": "十四烷二酸;",
    "alternate_name": "Tetradecanedioic acid;1,12-Dodecanedicarboxylic acid;1,14-Tetradecanedioic acid;DCA 14;NSC 9504;1,12-Dicarboxydodecane;Emerox 114",
    "duplicated_cas_no": "1809555-25-6",
    "SMILES": "C(CC(O)=O)CCCCCCCCCCC(O)=O",
    "meta_data": {
        "InChI": "InChI=1S/C14H26O4/c15-13(16)11-9-7-5-3-1-2-4-6-8-10-12-14(17)18/h1-12H2,(H,15,16)(H,17,18)",
        "InChIKey": null,
        "Canonical SMILES": "O=C(O)CCCCCCCCCCCCC(=O)O",
        "Molecular Formula": "C<sub>14</sub>H<sub>26</sub>O<sub>4</sub>",
        "Molecular Mass": "258.35",
        "Melting Point": "127 °C"
    }
}