{
    "cas_no": "2765-11-9",
    "key_name": "Pentadecanal",
    "cn_name": "正十五碳醛;正十五碳醛;",
    "alternate_name": "Pentadecanal;Pentadecaldehyde;<em>n</em>-Pentadecanal;1-Pentadecanal",
    "duplicated_cas_no": "",
    "SMILES": "C(CCCCCCC=O)CCCCCCC",
    "meta_data": {
        "InChI": "InChI=1S/C15H30O/c1-2-3-4-5-6-7-8-9-10-11-12-13-14-15-16/h15H,2-14H2,1H3",
        "InChIKey": null,
        "Canonical SMILES": "O=CCCCCCCCCCCCCCC",
        "Molecular Formula": "C<sub>15</sub>H<sub>30</sub>O",
        "Molecular Mass": "226.40",
        "Boiling Point": "172-176 °C @ Press: 15 Torr",
        "Melting Point": "24.5 °C"
    }
}