{
    "cas_no": "33696-00-3",
    "key_name": "4-Bromo-1-methoxy-2-nitrobenzene",
    "cn_name": null,
    "alternate_name": "Benzene, 4-bromo-1-methoxy-2-nitro-;Anisole, 4-bromo-2-nitro-;4-Bromo-1-methoxy-2-nitrobenzene;1-Bromo-3-nitro-4-methoxybenzene;4-Bromo-2-nitroanisole;3-Bromo-6-methoxynitrobenzene;4-Bromo-1-(methyloxy)-2-nitrobenzene;1-Bromo-4-methoxy-3-nitrobenzene",
    "duplicated_cas_no": "",
    "SMILES": "N(=O)(=O)C1=C(OC)C=CC(Br)=C1",
    "meta_data": {
        "InChI": "InChI=1S/C7H6BrNO3/c1-12-7-3-2-5(8)4-6(7)9(10)11/h2-4H,1H3",
        "InChIKey": null,
        "Canonical SMILES": "O=N(=O)C1=CC(Br)=CC=C1OC",
        "Molecular Formula": "C<sub>7</sub>H<sub>6</sub>BrNO<sub>3</sub>",
        "Molecular Mass": "232.03",
        "Melting Point": "85-87 °C"
    }
}