{
    "cas_no": "26166-37-0",
    "key_name": "Denudatine",
    "cn_name": null,
    "alternate_name": "8,10a-Ethano-11,3,6a-ethanylylidene-8<em>H</em>-indeno[2,1-<em>b</em>]azocine-7,10-diol, 1-ethyldodecahydro-3-methyl-9-methylene-, (3<em>R</em>,6a<em>S</em>,6b<em>S</em>,7<em>S</em>,8<em>R</em>,10<em>R</em>,10a<em>S</em>,11<em>R</em>,11a<em>R</em>,13<em>R</em>)-;Denudatine;7,20-Cycloatidane-11,15-diol, 16,17-didehydro-21-ethyl-4-methyl-, (11β,15β)-;(3<em>R</em>,6a<em>S</em>,6b<em>S</em>,7<em>S</em>,8<em>R</em>,10<em>R</em>,10a<em>S</em>,11<em>R</em>,11a<em>R</em>,13<em>R</em>)-1-Ethyldodecahydro-3-methyl-9-methylene-8,10a-ethano-11,3,6a-ethanylylidene-8<em>H</em>-indeno[2,1-<em>b</em>]azocine-7,10-diol;8,10a-Ethano-11,3,6a-ethanylylidene-8<em>H</em>-indeno[2,1-<em>b</em>]azocine-7,10-diol, 1-ethyldodecahydro-3-methyl-9-methylene-, [3<em>R</em>-(3α,6aα,6bα,7α,8β,10α,10aβ,11α,11aβ,13<em>R</em>*)]-",
    "duplicated_cas_no": "",
    "SMILES": "O[C@@H]1[C@]2([C@@]34[C@]5([C@@]([C@]26[C@H](O)C(=C)[C@]1(CC6)[H])(C[C@@]3([C@](C)(CN5CC)CCC4)[H])[H])[H])[H]",
    "meta_data": {
        "InChI": "InChI=1S/C22H33NO2/c1-4-23-11-20(3)7-5-8-22-15(20)10-14(18(22)23)21-9-6-13(12(2)19(21)25)16(24)17(21)22/h13-19,24-25H,2,4-11H2,1,3H3/t13-,14+,15-,16+,17-,18-,19-,20+,21+,22+/m1/s1",
        "InChIKey": null,
        "Canonical SMILES": "OC1C(=C)C2CCC13C4CC5C6(C)CN(CC)C4C5(CCC6)C3C2O",
        "Molecular Formula": "C<sub>22</sub>H<sub>33</sub>NO<sub>2</sub>",
        "Molecular Mass": "343.50",
        "Melting Point": "248-249 °C"
    }
}