{
    "cas_no": "29477-54-1",
    "key_name": "2-Hydroxy-3′,4′-dihydroxyacetophenone",
    "cn_name": null,
    "alternate_name": "Ethanone, 1-(3,4-dihydroxyphenyl)-2-hydroxy-;Acetophenone, 2,3′,4′-trihydroxy-;1-(3,4-Dihydroxyphenyl)-2-hydroxyethanone;2-Hydroxy-3′,4′-dihydroxyacetophenone",
    "duplicated_cas_no": "",
    "SMILES": "C(CO)(=O)C1=CC(O)=C(O)C=C1",
    "meta_data": {
        "InChI": "InChI=1S/C8H8O4/c9-4-8(12)5-1-2-6(10)7(11)3-5/h1-3,9-11H,4H2",
        "InChIKey": null,
        "Canonical SMILES": "O=C(C1=CC=C(O)C(O)=C1)CO",
        "Molecular Formula": "C<sub>8</sub>H<sub>8</sub>O<sub>4</sub>",
        "Molecular Mass": "168.15",
        "Melting Point": "195 °C"
    }
}