{
    "cas_no": "4205-90-7",
    "key_name": "Clonidine",
    "cn_name": "可乐定;可乐宁;氯压定;催压降;血压得平;110降压片;",
    "alternate_name": "1<em>H</em>-Imidazol-2-amine, <em>N</em>-(2,6-dichlorophenyl)-4,5-dihydro-;2-Imidazoline, 2-(2,6-dichloroanilino)-;<em>N</em>-(2,6-Dichlorophenyl)-4,5-dihydro-1<em>H</em>-imidazol-2-amine;734571A;Clonidine;Clonidin;2-(2,6-Dichloroanilino)-2-imidazoline;2-(2,6-Dichlorophenylimino)imidazolidine;M 5041T;SKF 34427;Catapres-TTS;ST 155BS;2-(2,6-Dichlorophenylamino)-1,3-diazacyclopentene;Duraclon;Arkamin;(2,6-Dichloro-phenyl)-(4,5-dihydro-1<em>H</em>-imidazol-2-yl)-amine;(2,6-Dichloro-phenyl)-imidazolidin-2-ylidene-amine;2-[(2,6-Dichlorophenyl)amino]-2-imidazoline;MeSH ID: D003000",
    "duplicated_cas_no": "138474-59-6;57066-25-8",
    "SMILES": "N(C1=C(Cl)C=CC=C1Cl)C=2NCCN2",
    "meta_data": {
        "InChI": "InChI=1S/C9H9Cl2N3/c10-6-2-1-3-7(11)8(6)14-9-12-4-5-13-9/h1-3H,4-5H2,(H2,12,13,14)",
        "InChIKey": null,
        "Canonical SMILES": "ClC1=CC=CC(Cl)=C1NC2=NCCN2",
        "Molecular Formula": "C<sub>9</sub>H<sub>9</sub>Cl<sub>2</sub>N<sub>3</sub>",
        "Molecular Mass": "230.09",
        "Melting Point": "130 °C"
    }
}