{
    "cas_no": "6180-61-6",
    "key_name": "3-Phenoxy-1-propanol",
    "cn_name": "3-苯氧基-1-丙醇;丙二醇苯醚;",
    "alternate_name": "1-Propanol, 3-phenoxy-;3-Phenoxy-1-propanol;3-Phenoxypropanol;3-Phenoxypropyl alcohol;1-Phenoxy-3-propanol;NSC 75459",
    "duplicated_cas_no": "1356955-49-1",
    "SMILES": "O(CCCO)C1=CC=CC=C1",
    "meta_data": {
        "InChI": "InChI=1S/C9H12O2/c10-7-4-8-11-9-5-2-1-3-6-9/h1-3,5-6,10H,4,7-8H2",
        "InChIKey": null,
        "Canonical SMILES": "OCCCOC=1C=CC=CC1",
        "Molecular Formula": "C<sub>9</sub>H<sub>12</sub>O<sub>2</sub>",
        "Molecular Mass": "152.19",
        "Boiling Point": "160 °C @ Press: 25 Torr"
    }
}