{
    "cas_no": "2444-36-2",
    "key_name": "(2-Chlorophenyl)acetic acid",
    "cn_name": "邻氯苯乙酸;2-氯苯乙酸;",
    "alternate_name": "Benzeneacetic acid, 2-chloro-;Acetic acid, (<em>o</em>-chlorophenyl)-;2-Chlorobenzeneacetic acid;(2-Chlorophenyl)acetic acid;(<em>o</em>-Chlorophenyl)acetic acid;2-(<em>o</em>-Chlorophenyl)ethanoic acid;NSC 4613;<em>o</em>-Chlorobenzeneacetic acid",
    "duplicated_cas_no": "",
    "SMILES": "C(C(O)=O)C1=C(Cl)C=CC=C1",
    "meta_data": {
        "InChI": "InChI=1S/C8H7ClO2/c9-7-4-2-1-3-6(7)5-8(10)11/h1-4H,5H2,(H,10,11)",
        "InChIKey": null,
        "Canonical SMILES": "O=C(O)CC=1C=CC=CC1Cl",
        "Molecular Formula": "C<sub>8</sub>H<sub>7</sub>ClO<sub>2</sub>",
        "Molecular Mass": "170.59",
        "Melting Point": "93-94 °C",
        "Density": "1.09 g/cm³"
    }
}