{
    "cas_no": "5452-35-7",
    "key_name": "Cycloheptylamine",
    "cn_name": null,
    "alternate_name": "Cycloheptanamine;Cycloheptylamine;Aminocycloheptane;NSC 18962;(2-Cycloheptyl)amine",
    "duplicated_cas_no": "",
    "SMILES": "NC1CCCCCC1",
    "meta_data": {
        "InChI": "InChI=1S/C7H15N/c8-7-5-3-1-2-4-6-7/h7H,1-6,8H2",
        "InChIKey": null,
        "Canonical SMILES": "NC1CCCCCC1",
        "Molecular Formula": "C<sub>7</sub>H<sub>15</sub>N",
        "Molecular Mass": "113.20",
        "Boiling Point": "165-169 °C"
    }
}