{
    "cas_no": "430-58-0",
    "key_name": "Ethene, 1,2-dichloro-1-fluoro-",
    "cn_name": null,
    "alternate_name": "Ethene, 1,2-dichloro-1-fluoro-;Ethylene, 1,2-dichloro-1-fluoro-;1-Fluoro-1,2-dichloroethylene;1,2-Dichloro-1-fluoroethylene;1,2-Dichlorofluoroethylene;1,2-Dichlorofluoroethene;HCFC 1121;HCFO 1121",
    "duplicated_cas_no": "",
    "SMILES": "C(=CCl)(Cl)F",
    "meta_data": {
        "InChI": "InChI=1S/C2HCl2F/c3-1-2(4)5/h1H",
        "InChIKey": null,
        "Canonical SMILES": "FC(Cl)=CCl",
        "Molecular Formula": "C<sub>2</sub>HCl<sub>2</sub>F",
        "Molecular Mass": "114.93",
        "Boiling Point": "35 °C"
    }
}