{
    "cas_no": "3074-43-9",
    "key_name": "1-Methyl-4-phenylpiperazine",
    "cn_name": "1-甲基-4-苯基哌嗪;",
    "alternate_name": "Piperazine, 1-methyl-4-phenyl-;1-Methyl-4-phenylpiperazine;<em>N</em>-Methyl-<em>N</em>′-phenylpiperazine;<em>N</em>-Phenyl-<em>N</em>′-methylpiperazine;NSC 26625",
    "duplicated_cas_no": "",
    "SMILES": "CN1CCN(CC1)C2=CC=CC=C2",
    "meta_data": {
        "InChI": "InChI=1S/C11H16N2/c1-12-7-9-13(10-8-12)11-5-3-2-4-6-11/h2-6H,7-10H2,1H3",
        "InChIKey": null,
        "Canonical SMILES": "C=1C=CC(=CC1)N2CCN(C)CC2",
        "Molecular Formula": "C<sub>11</sub>H<sub>16</sub>N<sub>2</sub>",
        "Molecular Mass": "176.26",
        "Boiling Point": "140-142 °C @ Press: 3 Torr"
    }
}