{
    "cas_no": "636-28-2",
    "key_name": "1,2,4,5-Tetrabromobenzene",
    "cn_name": "1,2,4,5-四溴苯;",
    "alternate_name": "Benzene, 1,2,4,5-tetrabromo-;1,2,4,5-Tetrabromobenzene;2,3,5,6-Tetrabromobenzene;NSC 27002",
    "duplicated_cas_no": "",
    "SMILES": "BrC1=C(Br)C=C(Br)C(Br)=C1",
    "meta_data": {
        "InChI": "InChI=1S/C6H2Br4/c7-3-1-4(8)6(10)2-5(3)9/h1-2H",
        "InChIKey": null,
        "Canonical SMILES": "BrC=1C=C(Br)C(Br)=CC1Br",
        "Molecular Formula": "C<sub>6</sub>H<sub>2</sub>Br<sub>4</sub>",
        "Molecular Mass": "393.70",
        "Boiling Point": "3.1 °C",
        "Melting Point": "182 °C"
    }
}