{
    "cas_no": "605-03-8",
    "key_name": "4-Phenylquinoline",
    "cn_name": null,
    "alternate_name": "Quinoline, 4-phenyl-;4-Phenylquinoline",
    "duplicated_cas_no": "",
    "SMILES": "C=1(C2=C(N=CC1)C=CC=C2)C3=CC=CC=C3",
    "meta_data": {
        "InChI": "InChI=1S/C15H11N/c1-2-6-12(7-3-1)13-10-11-16-15-9-5-4-8-14(13)15/h1-11H",
        "InChIKey": null,
        "Canonical SMILES": "N=1C=CC(C=2C=CC=CC2)=C3C=CC=CC13",
        "Molecular Formula": "C<sub>15</sub>H<sub>11</sub>N",
        "Molecular Mass": "205.25",
        "Boiling Point": "140-142 °C @ Press: 2 Torr",
        "Melting Point": "61-62 °C"
    }
}