{
    "cas_no": "72-55-9",
    "key_name": "<em>p</em>,<em>p</em>′-DDE",
    "cn_name": "2-乙基噻吩;",
    "alternate_name": "Benzene, 1,1′-(2,2-dichloroethenylidene)bis[4-chloro-;Ethylene, 1,1-dichloro-2,2-bis(<em>p</em>-chlorophenyl)-;Benzene, 1,1′-(dichloroethenylidene)bis[4-chloro-;1,1′-(2,2-Dichloroethenylidene)bis[4-chlorobenzene];1,1-Dichloro-2,2-bis(<em>p</em>-chlorophenyl)ethylene;DDE;<em>p</em>,<em>p</em>′-DDE;<em>p</em>,<em>p</em>′-Dichlorodiphenyldichloroethylene;1,1-Dichloro-2,2-di(<em>p</em>-chlorophenyl)ethylene;4,4′-DDE;2,2-Bis(4-chlorophenyl)-1,1-dichloroethylene;1,1-Bis(<em>p</em>-chlorophenyl)-2,2-dichloroethylene;2,2-Dichloro-1,1-bis(4-chlorophenyl)ethylene;4,4′-Dichlorodiphenyldichloroethylene;1,1-Bis(4-chlorophenyl)-2,2-dichloroethene;NSC 1153;2,2-Di(<em>p</em>-chlorophenyl)-1,1-dichloroethylene;1,1′-Dichloro-2,2-bis(4-chlorophenyl)ethane;2,2-Bis(4-chlorophenyl)-1,1-dichloroethene;1-Chloro-4-[2,2-dichloro-1-(4-chlorophenyl)ethenyl]benzene",
    "duplicated_cas_no": "",
    "SMILES": "C(=C(Cl)Cl)(C1=CC=C(Cl)C=C1)C2=CC=C(Cl)C=C2",
    "meta_data": {
        "InChI": "InChI=1S/C14H8Cl4/c15-11-5-1-9(2-6-11)13(14(17)18)10-3-7-12(16)8-4-10/h1-8H",
        "InChIKey": null,
        "Canonical SMILES": "ClC(Cl)=C(C1=CC=C(Cl)C=C1)C2=CC=C(Cl)C=C2",
        "Molecular Formula": "C<sub>14</sub>H<sub>8</sub>Cl<sub>4</sub>",
        "Molecular Mass": "318.03",
        "Boiling Point": "336 °C",
        "Melting Point": "89 °C"
    }
}