{
    "cas_no": "10138-32-6",
    "key_name": "Ethyl bicyclo[2.2.1]hept-5-ene-2-carboxylate",
    "cn_name": "5-降冰片烯-2-羧酸乙酯;",
    "alternate_name": "Bicyclo[2.2.1]hept-5-ene-2-carboxylic acid, ethyl ester;5-Norbornene-2-carboxylic acid, ethyl ester;Ethyl bicyclo[2.2.1]hept-5-ene-2-carboxylate;5-Norbornenecarboxylic acid ethyl ester;NSC 26489;NSC 62714;Ethyl 5-norbornene-2-carboxylate;5-Ethoxycarbonylnorbornene",
    "duplicated_cas_no": "",
    "SMILES": "C(OCC)(=O)C1C2CC(C1)C=C2",
    "meta_data": {
        "InChI": "InChI=1S/C10H14O2/c1-2-12-10(11)9-6-7-3-4-8(9)5-7/h3-4,7-9H,2,5-6H2,1H3",
        "InChIKey": null,
        "Canonical SMILES": "O=C(OCC)C1CC2C=CC1C2",
        "Molecular Formula": "C<sub>10</sub>H<sub>14</sub>O<sub>2</sub>",
        "Molecular Mass": "166.22",
        "Boiling Point": "71-73 °C @ Press: 8 Torr",
        "Density": "1.0543 g/cm³ @ Temp: 25 °C"
    }
}