{
    "cas_no": "2231-57-4",
    "key_name": "Thiocarbohydrazide",
    "cn_name": "硫代卡巴肼;",
    "alternate_name": "Carbonothioic dihydrazide;Carbohydrazide, thio-;TCH;Thiocarbohydrazide;Hydrazinecarbohydrazonothioic acid;1,3-Diamino-2-thiourea;Thiocarbonohydrazide;Thiocarbonic dihydrazide;Thiocarbazide;NSC 689;1,3-Diaminothiourea",
    "duplicated_cas_no": "",
    "SMILES": "C(NN)(NN)=S",
    "meta_data": {
        "InChI": "InChI=1S/CH6N4S/c2-4-1(6)5-3/h2-3H2,(H2,4,5,6)",
        "InChIKey": null,
        "Canonical SMILES": "S=C(NN)NN",
        "Molecular Formula": "CH<sub>6</sub>N<sub>4</sub>S",
        "Molecular Mass": "106.15",
        "Melting Point": "170 °C (decomp)"
    }
}