{
    "cas_no": "4368-83-6",
    "key_name": "5-Acetamido-2-nitrobenzoic acid",
    "cn_name": "5-乙酰氨基-2-硝基苯甲酸;",
    "alternate_name": "Benzoic acid, 5-(acetylamino)-2-nitro-;Benzoic acid, 5-acetamido-2-nitro-;5-(Acetylamino)-2-nitrobenzoic acid;5-Acetamido-2-nitrobenzoic acid;2-Nitro-5-acetylaminobenzoic acid",
    "duplicated_cas_no": "",
    "SMILES": "C(O)(=O)C1=C(N(=O)=O)C=CC(NC(C)=O)=C1",
    "meta_data": {
        "InChI": "InChI=1S/C9H8N2O5/c1-5(12)10-6-2-3-8(11(15)16)7(4-6)9(13)14/h2-4H,1H3,(H,10,12)(H,13,14)",
        "InChIKey": null,
        "Canonical SMILES": "O=C(O)C1=CC(=CC=C1N(=O)=O)NC(=O)C",
        "Molecular Formula": "C<sub>9</sub>H<sub>8</sub>N<sub>2</sub>O<sub>5</sub>",
        "Molecular Mass": "224.17",
        "Melting Point": "210-220 °C"
    }
}