{
    "cas_no": "37908-96-6",
    "key_name": "3-Chloro-4-methoxybenzoic acid",
    "cn_name": "3-氯-4-甲氧基苯甲酸;",
    "alternate_name": "Benzoic acid, 3-chloro-4-methoxy-;3-Chloro-4-methoxybenzoic acid;<em>N</em>-(3-Chloro-4-methoxyphenyl)carbamic acid",
    "duplicated_cas_no": "1450802-52-4",
    "SMILES": "C(O)(=O)C1=CC(Cl)=C(OC)C=C1",
    "meta_data": {
        "InChI": "InChI=1S/C8H7ClO3/c1-12-7-3-2-5(8(10)11)4-6(7)9/h2-4H,1H3,(H,10,11)",
        "InChIKey": null,
        "Canonical SMILES": "O=C(O)C1=CC=C(OC)C(Cl)=C1",
        "Molecular Formula": "C<sub>8</sub>H<sub>7</sub>ClO<sub>3</sub>",
        "Molecular Mass": "186.59",
        "Melting Point": "213 °C"
    }
}