{
    "cas_no": "6390-69-8",
    "key_name": "3,3′,5,5′-Tetrakis(1,1-dimethylethyl)[1,1′-biphenyl]-2,2′-diol",
    "cn_name": null,
    "alternate_name": "[1,1′-Biphenyl]-2,2′-diol, 3,3′,5,5′-tetrakis(1,1-dimethylethyl)-;2,2′-Biphenyldiol, 3,3′,5,5′-tetra-<em>tert</em>-butyl-;<em>o</em>,<em>o</em>′-Biphenol, 4,4′,6,6′-tetra-<em>tert</em>-butyl-;3,3′,5,5′-Tetrakis(1,1-dimethylethyl)[1,1′-biphenyl]-2,2′-diol;3,3′,5,5′-Tetra-<em>tert</em>-butyl-2,2′-biphenyldiol;2,2′-Dihydroxy-3,3′,5,5′-tetra-<em>tert</em>-butylbiphenyl;3,3′,5,5′-Tetra-<em>tert</em>-butyl-2,2′-dihydroxybiphenyl;4,4′,6,6′-Tetra-<em>tert</em>-butyl-2,2′-biphenol;3,3′,5,5′-Tetra-<em>tert</em>-butyl-[1,1′-biphenyl]-2,2′-diol;3,3′,5,5′-Tetrakis(1,1-dimethylethyl)-[1,1′-biphenyl]-2,2′-diol;NSC 122714;2,2′-Dihydroxy-3,3′,5,5′-tetra-<em>tert</em>-butyl-1,1′-biphenyl;3,3′,5,5′-Tetra-<em>tert</em>-butyl-2,2′-dihydroxy-1,1′-biphenyl;3,3′,5,5′-Tetrakis(<em>tert</em>-butyl)biphenyl-2,2′-diol;3,3′,5,5′-Tetra-<em>tert</em>-butyl-2,2′-bis(phenol);2,2′-Dihydroxy-3,3′,5,5′-tetra-<em>tert</em>-butyl-1,1′-diphenyl;2,2′-Dihydroxy-3,3′,5,5′-tetra(<em>t</em>-butyl)biphenyl;2,4-Ditert-butyl-6-(3,5-ditert-butyl-2-hydroxyphenyl)phenol;Phenol 3,3′,5,5′-tetra-<em>tert</em>-butyl[1,1′-biphenyl]-2,2′-diol;3,5,3′,5′-Tetra-<em>tert</em>-butyl-biphenyl-2,2′-diol",
    "duplicated_cas_no": "149419-42-1",
    "SMILES": "OC1=C(C=C(C(C)(C)C)C=C1C(C)(C)C)C2=C(O)C(C(C)(C)C)=CC(C(C)(C)C)=C2",
    "meta_data": {
        "InChI": "InChI=1S/C28H42O2/c1-25(2,3)17-13-19(23(29)21(15-17)27(7,8)9)20-14-18(26(4,5)6)16-22(24(20)30)28(10,11)12/h13-16,29-30H,1-12H3",
        "InChIKey": null,
        "Canonical SMILES": "OC1=C(C=C(C=C1C(C)(C)C)C(C)(C)C)C=2C=C(C=C(C2O)C(C)(C)C)C(C)(C)C",
        "Molecular Formula": "C<sub>28</sub>H<sub>42</sub>O<sub>2</sub>",
        "Molecular Mass": "410.63",
        "Melting Point": "186-188 °C"
    }
}