{
    "cas_no": "2452-99-5",
    "key_name": "1,2-Dimethylcyclopentane",
    "cn_name": null,
    "alternate_name": "Cyclopentane, 1,2-dimethyl-;1,2-Dimethylcyclopentane",
    "duplicated_cas_no": "",
    "SMILES": "CC1C(C)CCC1",
    "meta_data": {
        "InChI": "InChI=1S/C7H14/c1-6-4-3-5-7(6)2/h6-7H,3-5H2,1-2H3",
        "InChIKey": null,
        "Canonical SMILES": "CC1CCCC1C",
        "Molecular Formula": "C<sub>7</sub>H<sub>14</sub>",
        "Molecular Mass": "98.19",
        "Boiling Point": "92-96 °C @ Press: 758 Torr",
        "Melting Point": "-119.1 °C",
        "Density": "0.7629 g/cm³ @ Temp: 20 °C"
    }
}