{
    "cas_no": "16543-55-8",
    "key_name": "<em>N</em>-Nitrosonornicotine",
    "cn_name": "N-亚硝基降烟碱;",
    "alternate_name": "Pyridine, 3-[(2<em>S</em>)-1-nitroso-2-pyrrolidinyl]-;Nicotine, 1′-demethyl-1′-nitroso-;Pyridine, 3-(1-nitroso-2-pyrrolidinyl)-, (<em>S</em>)-;Nornicotine, <em>N</em>-nitroso-;3-[(2<em>S</em>)-1-Nitroso-2-pyrrolidinyl]pyridine;<em>N</em>′-Nitrosonornicotine;<em>N</em>-Nitrosonornicotine;Nitrosonornicotine;1′-Nitrosonornicotine;<em>anti</em>-<em>N</em>′-Nitrosonornicotine;<em>syn</em>-<em>N</em>′-Nitrosonornicotine;NNN;(<em>S</em>)-<em>N</em>′-Nitrosonornicotine;3-[(2S)-1-Nitrosopyrrolidin-2-yl]pyridine",
    "duplicated_cas_no": "53759-22-1;64162-58-9;64162-57-8",
    "SMILES": "N(=O)N1[C@@H](CCC1)C=2C=CC=NC2",
    "meta_data": {
        "InChI": "InChI=1S/C9H11N3O/c13-11-12-6-2-4-9(12)8-3-1-5-10-7-8/h1,3,5,7,9H,2,4,6H2/t9-/m0/s1",
        "InChIKey": null,
        "Canonical SMILES": "O=NN1CCCC1C=2C=NC=CC2",
        "Molecular Formula": "C<sub>9</sub>H<sub>11</sub>N<sub>3</sub>O",
        "Molecular Mass": "177.20",
        "Boiling Point": "154 °C @ Press: 0.2 Torr",
        "Melting Point": "47 °C"
    }
}