{
    "cas_no": "173315-54-3",
    "key_name": "2-Chloro-4-fluoro-3-methylbenzoic acid",
    "cn_name": null,
    "alternate_name": "Benzoic acid, 2-chloro-4-fluoro-3-methyl-;2-Chloro-4-fluoro-3-methylbenzoic acid",
    "duplicated_cas_no": "",
    "SMILES": "C(O)(=O)C1=C(Cl)C(C)=C(F)C=C1",
    "meta_data": {
        "InChI": "InChI=1S/C8H6ClFO2/c1-4-6(10)3-2-5(7(4)9)8(11)12/h2-3H,1H3,(H,11,12)",
        "InChIKey": null,
        "Canonical SMILES": "O=C(O)C1=CC=C(F)C(=C1Cl)C",
        "Molecular Formula": "C<sub>8</sub>H<sub>6</sub>ClFO<sub>2</sub>",
        "Molecular Mass": "188.58",
        "Melting Point": "194-196 °C"
    }
}