{
    "cas_no": "17694-68-7",
    "key_name": "Ethanone, 2-bromo-1-(3-pyridinyl)-, hydrobromide (1:1)",
    "cn_name": null,
    "alternate_name": "Ethanone, 2-bromo-1-(3-pyridinyl)-, hydrobromide (1:1);Ketone, bromomethyl 3-pyridyl, hydrobromide;Ethanone, 2-bromo-1-(3-pyridinyl)-, hydrobromide;3-(2-Bromoacetyl)pyridine hydrobromide;3-(Bromoacetyl)pyridine hydrobromide;2-Bromo-1-(3-pyridinyl)-1-ethanone hydrobromide;2-Bromo-1-pyridin-3-ylethanone hydrobromide;2-Bromo-1-(3-pyridyl)ethanone hydrobromide",
    "duplicated_cas_no": "",
    "SMILES": "C(CBr)(=O)C=1C=CC=NC1.Br",
    "meta_data": {
        "InChI": "InChI=1S/C7H6BrNO.BrH/c8-4-7(10)6-2-1-3-9-5-6;/h1-3,5H,4H2;1H",
        "InChIKey": null,
        "Canonical SMILES": "Br.O=C(C=1C=NC=CC1)CBr",
        "Molecular Formula": "C<sub>7</sub>H<sub>6</sub>BrNO.BrH",
        "Molecular Mass": "",
        "Melting Point": "198 °C"
    }
}