{
    "cas_no": "5786-21-0",
    "key_name": "Clozapine",
    "cn_name": "氯氮平;8-氯-11-(4-甲基-1-哌嗪基)-5H-二苯并[b,e][1,4]二氮杂卓;",
    "alternate_name": "5<em>H</em>-Dibenzo[<em>b</em>,<em>e</em>][1,4]diazepine, 8-chloro-11-(4-methyl-1-piperazinyl)-;8-Chloro-11-(4-methyl-1-piperazinyl)-5<em>H</em>-dibenzo[<em>b</em>,<em>e</em>][1,4]diazepine;HF 1854;Clozapine;Leponex;Clozapin;Iprox;Clozaril;Asaleptin;Azaleptine;Cloril;Fazaclo;Klozapol;Azaleptin;Sizopin;Clozapex;Apo-Clozapine;MeSH ID: D003024",
    "duplicated_cas_no": "",
    "SMILES": "CN1CCN(C=2C=3C(NC=4C(N2)=CC(Cl)=CC4)=CC=CC3)CC1",
    "meta_data": {
        "InChI": "InChI=1S/C18H19ClN4/c1-22-8-10-23(11-9-22)18-14-4-2-3-5-15(14)20-16-7-6-13(19)12-17(16)21-18/h2-7,12,20H,8-11H2,1H3",
        "InChIKey": null,
        "Canonical SMILES": "ClC1=CC=C2NC=3C=CC=CC3C(=NC2=C1)N4CCN(C)CC4",
        "Molecular Formula": "C<sub>18</sub>H<sub>19</sub>ClN<sub>4</sub>",
        "Molecular Mass": "326.82",
        "Melting Point": "183-184 °C"
    }
}