{
    "cas_no": "10172-89-1",
    "key_name": "(-)-<em>N</em>-Acetylphenylalanine",
    "cn_name": "N-乙酰-D-苯丙氨酸;",
    "alternate_name": "<span class=\"text-smallcaps\">D</span>-Phenylalanine, <em>N</em>-acetyl-;Alanine, <em>N</em>-acetyl-3-phenyl-, <span class=\"text-smallcaps\">D</span>-;<em>N</em>-Acetyl-<span class=\"text-smallcaps\">D</span>-phenylalanine;(<em>R</em>)-<em>N</em>-Acetylphenylalanine;(<em>R</em>)-(-)-<em>N</em>-Acetylphenylalanine;(-)-<em>N</em>-Acetylphenylalanine;<span class=\"text-smallcaps\">D</span>-<em>N</em>-Acetylphenylalanine;<span class=\"text-smallcaps\">D</span>-(-)-<em>N</em>-Acetylphenylalanine;(<em>R</em>)-2-Acetylamino-3-phenylpropionic acid;<em>R</em>-2-(Acetylamino)-3-phenylpropanoic acid;<em>N</em>-Acetyl-(<em>R</em>)-phenylalanine;(-)-2-Acetylamino-3-phenylpropanoic acid;(-)-<em>N</em>-Acetyl-<span class=\"text-smallcaps\">D</span>-phenylalanine;NSC 523830;<em>N</em>-Acetyl-3-phenyl-<span class=\"text-smallcaps\">D</span>-alanine;(R)-2-Acetamido-3-phenylpropanoic acid;(2R)-2-Acetamido-3-phenylpropanoic acid",
    "duplicated_cas_no": "",
    "SMILES": "[C@H](CC1=CC=CC=C1)(NC(C)=O)C(O)=O",
    "meta_data": {
        "InChI": "InChI=1S/C11H13NO3/c1-8(13)12-10(11(14)15)7-9-5-3-2-4-6-9/h2-6,10H,7H2,1H3,(H,12,13)(H,14,15)/t10-/m1/s1",
        "InChIKey": null,
        "Canonical SMILES": "O=C(O)C(NC(=O)C)CC=1C=CC=CC1",
        "Molecular Formula": "C<sub>11</sub>H<sub>13</sub>NO<sub>3</sub>",
        "Molecular Mass": "207.23",
        "Melting Point": "170-171 °C"
    }
}