{
    "cas_no": "7440-50-8",
    "key_name": "Copper",
    "cn_name": "铜;电解铜;铜粉;",
    "alternate_name": "Copper;C.I. 77400;C.I. Pigment Metal 2;1721 Gold;Raney copper;Arwood copper;Kafar copper;Copper Powder;CuEP;CuEPP;CE 1110;E 115 (metal);E 115;GE 1110;CE 115;Rame;TTAI;Copper element;TAI (metal);MF-DZ;TAI;CE 7 (metal);M 36.012;Nogac 18;CE 7;NDGAC 35;MD 1 (metal);MF-D<sub>2</sub>;MD 1;C 100 (metal);C 100;JTC 1OZ;HTE;3EC;DN 02;CE 25;CE 15;TSTO 35;200RL;CE 1100;3L Fire;FCC 115A;BSH (metal);BSH;22BB400;CS-F 150E;1100T;MF-D<sub>3</sub>;OFHC copper;OFHC;3EC-HTE;R 300 (metal);3EC-III;R 300;CF 78;SPC 4-8;BHY 13T;TUP;MA-CDS;3EC3;CE 8A;SQ-HTE;CuLox 6010;CuLox 6030;BHY 02B-T;SLP;Cu-At-W 250;BHN 02T;SRM394;SRM395;M 330;3EC-VLP;FCC 115;JTC;JTC-LP;JTC-AM;JTCS;SFR-Cu;GTS 35;GTS 35 (metal);CF-T 8;CU-FN 10;115A;Allbri Natural Copper;Silcoat FCC-SP 99;NDGC;YGP 35;TSC 35;SLP 18;DT GLMP;M 330 (metal);R 300A;SQ-VLP;CT 315E;CDX;CDX (metal);FCC-SP 99;Unicoat 2845;DP 3;DP 3 (metal);MFP-CU 125;BHY 22B-T;FX-BSH;100RXH;F 2WS;CU 112;2L3GT;BPF 18;NT-TAX-M;NT-TAX-O;GT;GT (metal);GT-MP;SFR-Cu 5;SFR-Cu 10;Cu-HWQ;MFP 1110;GTS 18;BHY 13HT;F 1WS;HCCD 101;XMCu;GTS 12;Micro Thin;GTS;GTS (element);GT-MP 35;CCL-HL 830;F 3B-WS;BHN;USLP 12;F 0WS;Double Thin F-NP;BAC 13B-NK120;3EC-VEP;FQ-VLP;B152-ETP;UCP 030;EFC 6000;SLP 105WB;CE 6;YB 10;Y 10 (metal);F 3WS18;Y 10;CE 6 (copper);F 2WS18;MC 2;MC 2 (metal);USLP-R 2;N 254Di;FGP;CF-T 9;MA-CD;TSTO;1300YM;XTF;F-CP;SLP 100;3EC-VLP35;BAC 13T;AM-FN;B-WS;3EC-VLP18;FCC 116;TQ-VLP;CF-T 9-18;CF-T 9B-THE;GTSMP;YGP 18;FCC-CP-X 3;NA-VLP;1000Y;DC 200 (metal);DC 200;1300YP;FO-WS 18;DT-GLD;3EC-M3S-HTE;CF-T 9A-HP-STD;FCC-CP 10;1100Y;SK 1 (metal);SK 1;BHY 22T;BHY 13B-T;WS 3;WS 3 (metal);GTS-MP 18;BYH 22B-T;F 0WS12;1050Y;3EC-M3VLP18;F 2WS12;BHY-HA;FSM;F 3WS;JTC-A;NDP-III;USLP-SE;CR 1766;F-WS;1300Y;F 0WS18;BHY;DD Paste TH 9910;NS-VLP;Cubrotec 5000;3L3;TU1;GCU 340;ATS Adocopper IW;BHY 13H-HA;BHY 22B-HA;VSBK;HPF-ST 10E;HLB;YSNAP 3B;HLA 2;YSNAP 1B;XTF 1;XTF 3;FO-WS 12;SRC-Cu 15;HXR-Cu;CF-T 8GD-SV;Metco 55;USLP;PBR 10A;CF-T 9LP;CF-T 9FZ-SV;XM 001;CF-T 9C;BHN 70;NDGR 70;FI-WS;BH-WS;JTC 12 μm;GTS-STD 35;BHY 22B;F 2S18;Rogal Copper GK 0/50;Cu 300;NA-DFF;Cuprum;TSC 20F;C 1-500;C 1-6000F;HLS 9;YGP 12LP;CUE 08PB;USLP-S;CFW 100-156;FWL;Cu-S 100;UCLP-SE;GTS-STD;Gold 3L;SV 18;SV 12;HTE 18;HTE 35;T 5B;T 5B (metal);Sliontec 8781;Cu 1400Y;F 2 Foil;RCF-T 5B;TQ-LP;3EC-M3VLP;USLP-SE 18;MA-CO 4J;GTS-MP 70;FT 0WS;USLP-SE 12;U-WZ;RCF-T 5B18;Ipaligo copper;F 3WS12;JTC 1/2OZ;CUE 03PB;CU 113253;HWQ 1.5;HWF 6.0;EXP-DT-NC;LP;UCP 080;NA-DEF;BHYA 13F-HA;HLA 18;MTSD-H;1020Y;MF-SH 5;GPS;FV-WS;FV-WZ;FLD-WS;HLP-LC-12;FGM;MA-CC;C 70251100;YSNAP 3PF;C 1011;CU 113328;NCU 04;B 60P05;BHYA 13H HA;CT 1000;MA-C 04J;MA-CH-S;Amiplus Cu;AFS-Cu;CF-T 9FB-HTE;HL (copper);HL;CUE 12PB;NC-WS;HLS 12;HCU 020;HCX-Cu;FWG-WS;HLPLCN;1400YP;HLPFN;CDT 60;1020P;FCC-SP99X;3ECVLP12;MA-C 08J;EDI 12;GTS-MP 35;HLPB;QF-VLP;CT-T 8;HWQ 3.0;NA-VLP 12;PF-E 3;CUP-P 010;C 1-4000E;Micro Thin EX 3;HTE 06-18;C 1020-1;ROFL;BHSN;CF-T 9D-SV;MT 18SD-H3;CuE 13PB;MT 18SD-H;CF-T 4Z;3EL-VLP;HLN 18;Aquatrine;A&amp;V 70;Stocktrine II;HS 001 (metal);HS 001;CE 20;G 600HH;JTCLPZ;YGP 11;JIS-H 0500;TCU 101G;YGP 12;Micro Thin MT 18Ex2;MS 800;CF-T 8G-UN35;3EC11;GTS 080;TPIII(M);DFF;CF-LB 9;T 220;MA-COJ;FWL-WS;HPF-SP 18E;HPF-ST 35E;FD-P 9/18;LS 372436SJP;CF-T 9HTE;HCL 2ZR(2ZR0FC);1050YP;1030Y;1400Y;PCT 9;1500Y;ROTO Safeaque 200-821 Rich Gold;PF 1F;CJ 0104;IL 2 (foil);MA-CJF;HPF-ST 35X;3ECVLP9;TU0;Mitsui 3EC-M35HTE-ED;3EC-M35HTE-ED;HPF-ST 18X;SCX 14;SCX 17;M0k;YSNAP 2B;GLD 12;FCC-SP 77;Praxair Cu 159-2;CF-T 9LK-UN12;FWJ-WS 12;FCC-CP-X 5;FCC-TB;1300N;TCU-H 8;MT 18S5DH;MA-C 08JM;MT;Cu 001;CF-T 9D-SVR;RCA 16;HD 12;E-Cu-F 25;HPF-ST-X;CI 1000F;CI 4000F;CI 6000F;CU-HWQ 1.5;MLS-G;HLS Type 2;HLS 2;CUE 01GB;Copper-Celmet;AG 520;BHYX-T 12;NSAP 2B;JDLCN;CH 002;MA-C 025K;CF-T 4X-SVR12;CF-T 4X-SV;CF-T 9DA-SV;GHSN;CU 113243;1400YM;MA-C 08JF;SRC-Cu 20;MA-C 05K;PSM 1;Unicoat 3260;Ag Coat FCC-TB;ACP 100;CF-T 9DA-SV18;CS 20;Dexmet 3CU7-100A;CP 700;MCLE 705(LH)N3DX;OF R2401;NovaWireCu 01;3EC-M3S-THE;Celcure AC 800;DSC 3N1/2H;Copper E900;GHY 5-93F-HA;IL 2 (copper);JXUT-III;TEC 64T;TU 25;CP 4121;ECY 4;MT 18SD-H-T3B;MT 18FL;HS-GHY 5;HS-VSP;CU 118016;CH 0200;MA-C025KFD;Cu 211;IOXCu 750;GHF 5-93F-HA-V2;T 9FZ-SV;GHY 5-93F-HA-V2;T 4X-SV;T 9DA;Cu-At 250;Cu-At 350;ECY 4B;BHY-X;SA 1507;QSI-Nano Copper Powder;CF-T 4X-SV18;Micro Thin EX;MA-C-S;YGP 35R;N-Cu-A;3EC-M1S-VLP;CF-T 9FZ-HTE;PK 4;Culox 6100;Cu1030Y;MA-HWQ;EFC 09ML;EFC 20LML;GP 35;FVO-WS;FZO-WS;BHYX-HA-V 2;HS 1M2VSP;FMC-10;NC-WC;C 1100;CF-T 9FZ-HS12;T9DA-SV;JTCP;CF-T 9LK;NP-CU 4-100;JDLC;CF-T 9FZ-HTE18;JXUT-II;MW-P-VSP;C 35A1;CST 8G;ELC 4785TH-G;CF-T 4X-SV12;1.65EDCU12-100FA;FCC 1110SL;CuCHUF 10;TQFZ;BHFX 92F-HA-V2;CF-H 9A-DS-HD2;CF-T 49A-DS-HD2;R 150;MT-Ex;HS 1VSP;CF-T 4X-SVR;CF-T 9L-UR18;CF-T 8G-UN18;GTS 105;BHFX-HS 92F;FCC-CP-XO;BHY 13F-T;AO-YCD 1;CF-H 9A-DS-HD2-12;TQ-M 7VSP;BHFX-P 92C-HA-V2;Aeromesh;HS-M 2VSP;HA-V 2;1050YF;TQ-M 4VSP;JXEFL-BHM;FL 451;Taixin GS 01;GS 01;FMC-SB;GHY 5HA;CF-T 4X-SU18;MT 18G;BF-ANP 18;CVP 300;BHY 82F-HA-V2;CF-T 9FZ;3EC-LPIII;DK-Cu 001;Standart Lac E 900;JX-EFL-V 2;CF-H 9A-HD2;CF-T 49A-HD2;3EC-M2S-HTE-SP2;CF-T 9DA-SV12;CF-T 9DA-SV9;BHM 102FHAV2;NovaWireCu-B 1IND;FTD 3;MT 18FL3;ECU 25;FUTF 5DAF2;CF-T 9DA-SV35;CF-T 49A-DS-HD2-12;C 1100P-1/4H;H 3100 C1100P;H 3100C1100P;CF-T 9FZSV;YM-AG;Rame AK 45;BF-TZA;RTF 3;RTF 2;Lac-L 900;TNCu;GP-CU-A4;Micro Thin FL;Copper 99.96, phosphorus 0.01-3, silver 0-3, Fe 0-3;FZ-WS;MA-C 03K;FCU 080;3EC-M2S-SP3;CuF-GB 2150N;MT-FL;Cu-HWF 4;GTH-MP;1400YF;CT 0500;EAX;EBY;GHY 5HA-V2;MT 18FL1.5;CF-V 9S-SV18;3EC-M1S-HTE;TQ-M 5VS;ACU 140;CF-TGFB-HTE/UN;CUS-WM 1000;BR 83UP;NP-Cu 2.5;CP-Cu 250;CP-Cu 1500;HACU 025;BHFX-P 92C-HG;C 110 (copper);CF-T 4MDS-HD35;T 2Y;C 1020R-H;SI-VSP;CU 113421;TWL-HP;MA-C 05K2;HS 2VSP;SI-VSP-AM 3R;3EC-M3VLP12;MeSH ID: D003300;Cult 16;CF-V 9S-SV12;CF-T 49A-SV;HC 0326;3M-VLP12;MT 18SD-H-T5;CF-T 9FZ-THE35;MT 18E;SI-VSP 18;CF-T 4MDS-HD12;UCP 030N;FZ-WS 18;BFR-F;CF-V 9S-SV;BHFX 92F-HA;T 4X;LF 350;HS 2M2VSP;XFJ 44;3EC-M3V18;CF-T 49A-DS18",
    "duplicated_cas_no": "65555-90-0;72514-83-1;133353-46-5;133353-47-6;195161-80-9;1441640-38-5;1993435-25-8;2056901-56-3;2432029-48-4;2702957-29-5;3026671-52-0;3033432-45-7",
    "SMILES": "[Cu]",
    "meta_data": {
        "InChI": "InChI=1S/Cu",
        "InChIKey": null,
        "Canonical SMILES": "[Cu]",
        "Molecular Formula": "Cu",
        "Molecular Mass": "",
        "Boiling Point": "2595 °C",
        "Melting Point": "1083 °C",
        "Density": "8.94 g/cm³"
    }
}