{
    "cas_no": "6279-86-3",
    "key_name": "1,1,1-Triethyl methanetricarboxylate",
    "cn_name": "甲烷三羧酸三乙酯;",
    "alternate_name": "Methanetricarboxylic acid, 1,1,1-triethyl ester;Methanetricarboxylic acid, triethyl ester;1,1,1-Triethyl methanetricarboxylate;Tricarbethoxymethane;Triethyl methanetricarboxylate;Tris(ethoxycarbonyl)methane;Tri(ethoxycarbonyl)methane;Tricarboethoxymethane;Diethyl (carboethoxy)malonate;NSC 11006;Diethyl (ethoxycarbonyl)malonate;Diethyl 2-ethoxycarbonylmalonate;2-Ethoxycarbonyl-malonic acid diethyl ester",
    "duplicated_cas_no": "",
    "SMILES": "C(C(OCC)=O)(C(OCC)=O)C(OCC)=O",
    "meta_data": {
        "InChI": "InChI=1S/C10H16O6/c1-4-14-8(11)7(9(12)15-5-2)10(13)16-6-3/h7H,4-6H2,1-3H3",
        "InChIKey": null,
        "Canonical SMILES": "O=C(OCC)C(C(=O)OCC)C(=O)OCC",
        "Molecular Formula": "C<sub>10</sub>H<sub>16</sub>O<sub>6</sub>",
        "Molecular Mass": "232.23",
        "Boiling Point": "253 °C",
        "Melting Point": "29 °C",
        "Density": "1.104 g/cm³ @ Temp: 20 °C"
    }
}