{
    "cas_no": "4724-47-4",
    "key_name": "Octadecylphosphonic acid",
    "cn_name": "磷酸正十八酯;磷酸正十八酯;",
    "alternate_name": "Phosphonic acid, <em>P</em>-octadecyl-;Phosphonic acid, octadecyl-;<em>P</em>-Octadecylphosphonic acid;1-Octadecanephosphonic acid;Stearylphosphonic acid;Octadecylphosphonic acid;<em>n</em>-Octadecylphosphonic acid;Octadecanephosphonic acid;ODPA;1-Octadecylphosphonic acid",
    "duplicated_cas_no": "",
    "SMILES": "C(CCCCCCCCCCCCCCC)CCP(=O)(O)O",
    "meta_data": {
        "InChI": "InChI=1S/C18H39O3P/c1-2-3-4-5-6-7-8-9-10-11-12-13-14-15-16-17-18-22(19,20)21/h2-18H2,1H3,(H2,19,20,21)",
        "InChIKey": null,
        "Canonical SMILES": "O=P(O)(O)CCCCCCCCCCCCCCCCCC",
        "Molecular Formula": "C<sub>18</sub>H<sub>39</sub>O<sub>3</sub>P",
        "Molecular Mass": "334.47",
        "Melting Point": "98.5-99 °C"
    }
}