{
    "cas_no": "58327-75-6",
    "key_name": "3-Aminothieno[2,3-<em>b</em>]pyridine-2-carboxylic acid",
    "cn_name": null,
    "alternate_name": "Thieno[2,3-<em>b</em>]pyridine-2-carboxylic acid, 3-amino-;3-Aminothieno[2,3-<em>b</em>]pyridine-2-carboxylic acid;NSC 284503",
    "duplicated_cas_no": "",
    "SMILES": "NC=1C=2C(SC1C(O)=O)=NC=CC2",
    "meta_data": {
        "InChI": "InChI=1S/C8H6N2O2S/c9-5-4-2-1-3-10-7(4)13-6(5)8(11)12/h1-3H,9H2,(H,11,12)",
        "InChIKey": null,
        "Canonical SMILES": "O=C(O)C=1SC=2N=CC=CC2C1N",
        "Molecular Formula": "C<sub>8</sub>H<sub>6</sub>N<sub>2</sub>O<sub>2</sub>S",
        "Molecular Mass": "194.21",
        "Melting Point": "164 °C (decomp)"
    }
}