{
    "cas_no": "15311-09-8",
    "key_name": "4,4′-(1,3,4-Thiadiazole-2,5-diyl)bis[pyridine]",
    "cn_name": "2,5-双(4-吡啶)-1,3,4-噻二唑;",
    "alternate_name": "Pyridine, 4,4′-(1,3,4-thiadiazole-2,5-diyl)bis-;Pyridine, 4,4′-(1,3,4-thiadiazole-2,5-diyl)di-;1,3,4-Thiadiazole, 2,5-di-4-pyridyl-;4,4′-(1,3,4-Thiadiazole-2,5-diyl)bis[pyridine];NSC 34795;2,5-Bis(4-pyridyl)-1,3,4-thiadiazole;2,5-Di(4-pyridyl)-1,3,4-thiadiazole;4-(5-(Pyridin-4-yl)-1,3,4-thiadiazol-2-yl)pyridine;2,5-Di(pyridin-4-yl)-1,3,4-thiadiazole",
    "duplicated_cas_no": "",
    "SMILES": "C=1(SC(=NN1)C=2C=CN=CC2)C=3C=CN=CC3",
    "meta_data": {
        "InChI": "InChI=1S/C12H8N4S/c1-5-13-6-2-9(1)11-15-16-12(17-11)10-3-7-14-8-4-10/h1-8H",
        "InChIKey": null,
        "Canonical SMILES": "N=1N=C(SC1C=2C=CN=CC2)C=3C=CN=CC3",
        "Molecular Formula": "C<sub>12</sub>H<sub>8</sub>N<sub>4</sub>S",
        "Molecular Mass": "240.28",
        "Melting Point": "242 °C"
    }
}