{
    "cas_no": "20193-20-8",
    "key_name": "Ethylpropylamine",
    "cn_name": "N-乙基正丙胺;",
    "alternate_name": "1-Propanamine, <em>N</em>-ethyl-;Propylamine, <em>N</em>-ethyl-;<em>N</em>-Ethyl-1-propanamine;<em>N</em>-Ethyl-<em>n</em>-propylamine;Ethylpropylamine;<em>N</em>-Ethylpropylamine;<em>N</em>-Ethylpropanamine;<em>N</em>-Propyl-<em>N</em>-ethylamine;Propylethylamine",
    "duplicated_cas_no": "",
    "SMILES": "C(NCC)CC",
    "meta_data": {
        "InChI": "InChI=1S/C5H13N/c1-3-5-6-4-2/h6H,3-5H2,1-2H3",
        "InChIKey": null,
        "Canonical SMILES": "N(CC)CCC",
        "Molecular Formula": "C<sub>5</sub>H<sub>13</sub>N",
        "Molecular Mass": "87.16",
        "Boiling Point": "81 °C",
        "Melting Point": "78 °C",
        "Density": "0.7318 g/cm³ @ Temp: 20 °C"
    }
}