{
    "cas_no": "492-93-3",
    "key_name": "1,5-Anhydro-<span class=\"text-smallcaps\">D</span>-mannitol",
    "cn_name": null,
    "alternate_name": "<span class=\"text-smallcaps\">D</span>-Mannitol, 1,5-anhydro-;Mannitol, 1,5-anhydro-, <span class=\"text-smallcaps\">D</span>-;1,5-Anhydro-<span class=\"text-smallcaps\">D</span>-mannitol;Styracitol;1,5-Anhydromannitol;2,6-Anhydro-<span class=\"text-smallcaps\">D</span>-mannitol;Styracit;1,5-Anhydro-<em>d</em>-mannitol",
    "duplicated_cas_no": "",
    "SMILES": "C(O)[C@@H]1[C@@H](O)[C@H](O)[C@H](O)CO1",
    "meta_data": {
        "InChI": "InChI=1S/C6H12O5/c7-1-4-6(10)5(9)3(8)2-11-4/h3-10H,1-2H2/t3-,4-,5-,6-/m1/s1",
        "InChIKey": null,
        "Canonical SMILES": "OCC1OCC(O)C(O)C1O",
        "Molecular Formula": "C<sub>6</sub>H<sub>12</sub>O<sub>5</sub>",
        "Molecular Mass": "164.16",
        "Melting Point": "155 °C"
    }
}