{
    "cas_no": "122647-32-9",
    "key_name": "Ibutilide fumarate",
    "cn_name": "富马酸伊布利特;N-[4-[4-(乙基庚基胺)-1-羟基丁基]苯基]甲磺酰胺富马酸盐;",
    "alternate_name": "Methanesulfonamide, <em>N</em>-[4-[4-(ethylheptylamino)-1-hydroxybutyl]phenyl]-, (2<em>E</em>)-2-butenedioate (2:1);Methanesulfonamide, <em>N</em>-[4-[4-(ethylheptylamino)-1-hydroxybutyl]phenyl]-, (±)-, (<em>E</em>)-2-butenedioate (2:1) (salt);Methanesulfonamide, <em>N</em>-[4-[4-(ethylheptylamino)-1-hydroxybutyl]phenyl]-, (2<em>E</em>)-2-butenedioate (2:1) (salt);U 70226E;Ibutilide fumarate;Corvert;Methanesulfonamide, <em>N</em>-[4-[4-(ethylheptylamino)-1-hydroxybutyl]phenyl]-, (<em>E</em>)-2-butenedioate (2:1) (salt)",
    "duplicated_cas_no": "130350-52-6",
    "SMILES": "C(CCCN(CCCCCCC)CC)(O)C1=CC=C(NS(C)(=O)=O)C=C1.C(=C/C(O)=O)\\C(O)=O",
    "meta_data": {
        "InChI": "InChI=1S/C20H36N2O3S.C4H4O4/c1-4-6-7-8-9-16-22(5-2)17-10-11-20(23)18-12-14-19(15-13-18)21-26(3,24)25;5-3(6)1-2-4(7)8/h12-15,20-21,23H,4-11,16-17H2,1-3H3;1-2H,(H,5,6)(H,7,8)/b;2-1+",
        "InChIKey": null,
        "Canonical SMILES": "O=C(O)C=CC(=O)O.O=S(=O)(NC1=CC=C(C=C1)C(O)CCCN(CC)CCCCCCC)C",
        "Molecular Formula": "C<sub>20</sub>H<sub>36</sub>N<sub>2</sub>O<sub>3</sub>S.<sup>1</sup>/<sub>2</sub>C<sub>4</sub>H<sub>4</sub>O<sub>4</sub>",
        "Molecular Mass": "",
        "Melting Point": "117-119 °C"
    }
}