{
    "cas_no": "4835-90-9",
    "key_name": "Hydroxypivalic acid",
    "cn_name": "2,2-二甲基-3-羟基丙酸;羟基特戊酸;",
    "alternate_name": "Propanoic acid, 3-hydroxy-2,2-dimethyl-;Hydracrylic acid, 2,2-dimethyl-;3-Hydroxy-2,2-dimethylpropanoic acid;α,α-Dimethyl-β-hydroxypropionic acid;Hydroxypivalic acid;Oxypivalic acid;2,2-Dimethylhydracrylic acid;3-Hydroxy-2,2-dimethylpropionic acid;2,2-Dimethyl-3-hydroxypropanoic acid;2,2-Dimethyl-3-hydroxypropionic acid;NSC 115936",
    "duplicated_cas_no": "",
    "SMILES": "C(C(O)=O)(CO)(C)C",
    "meta_data": {
        "InChI": "InChI=1S/C5H10O3/c1-5(2,3-6)4(7)8/h6H,3H2,1-2H3,(H,7,8)",
        "InChIKey": null,
        "Canonical SMILES": "O=C(O)C(C)(C)CO",
        "Molecular Formula": "C<sub>5</sub>H<sub>10</sub>O<sub>3</sub>",
        "Molecular Mass": "118.13",
        "Boiling Point": "113-119 °C @ Press: 5 Torr",
        "Melting Point": "124-125 °C"
    }
}