{
    "cas_no": "62778-19-2",
    "key_name": "1,3-Dichloro-2-iodo-5-nitrobenzene",
    "cn_name": "二氯碘硝基苯;",
    "alternate_name": "Benzene, 1,3-dichloro-2-iodo-5-nitro-;1,3-Dichloro-2-iodo-5-nitrobenzene;4-Iodo-3,5-dichloronitrobenzene;3,5-Dichloro-4-iodonitrobenzene",
    "duplicated_cas_no": "",
    "SMILES": "N(=O)(=O)C1=CC(Cl)=C(I)C(Cl)=C1",
    "meta_data": {
        "InChI": "InChI=1S/C6H2Cl2INO2/c7-4-1-3(10(11)12)2-5(8)6(4)9/h1-2H",
        "InChIKey": null,
        "Canonical SMILES": "O=N(=O)C1=CC(Cl)=C(I)C(Cl)=C1",
        "Molecular Formula": "C<sub>6</sub>H<sub>2</sub>Cl<sub>2</sub>INO<sub>2</sub>",
        "Molecular Mass": "317.90",
        "Melting Point": "154.8 °C"
    }
}