{
    "cas_no": "2696-92-6",
    "key_name": "Nitrosyl chloride",
    "cn_name": "亚硝酰氯;亚硝酰氯；氧氯化氮;",
    "alternate_name": "Nitrosyl chloride ((NO)Cl);Nitrosyl chloride;Nitrogen oxychloride;Nitrogen oxide chloride (NOCl);Nitrogen oxychloride (NOCl);Nitrosonium chloride;Nitrosochloride;Chlorine nitride oxide (ClNO);Nitrogen chloride oxide (NClO)",
    "duplicated_cas_no": "74734-38-6",
    "SMILES": "N(Cl)=O",
    "meta_data": {
        "InChI": "InChI=1S/ClNO/c1-2-3",
        "InChIKey": null,
        "Canonical SMILES": "O=NCl",
        "Molecular Formula": "ClNO",
        "Molecular Mass": "65.46",
        "Boiling Point": "-5.5 °C",
        "Melting Point": "-64.5 °C"
    }
}