{
    "cas_no": "156-60-5",
    "key_name": "<em>trans</em>-1,2-Dichloroethylene",
    "cn_name": null,
    "alternate_name": "Ethene, 1,2-dichloro-, (1<em>E</em>)-;Ethylene, 1,2-dichloro-, (<em>E</em>)-;Ethene, 1,2-dichloro-, (<em>E</em>)-;Ethylene, 1,2-dichloro-, <em>trans</em>-;(1<em>E</em>)-1,2-Dichloroethene;<em>trans</em>-1,2-Dichloroethylene;<em>trans</em>-1,2-Dichloroethene;(<em>E</em>)-1,2-Dichloroethylene;1,2-<em>trans</em>-Dichloroethene;(<em>E</em>)-1,2-Dichloroethene;1,2-<em>trans</em>-Dichloroethylene;HCC 1130t;R 1130t;NSC 60512;R 1130(E);HCO 1130(E)",
    "duplicated_cas_no": "43695-79-0",
    "SMILES": "C(=C/Cl)\\Cl",
    "meta_data": {
        "InChI": "InChI=1S/C2H2Cl2/c3-1-2-4/h1-2H/b2-1+",
        "InChIKey": null,
        "Canonical SMILES": "ClC=CCl",
        "Molecular Formula": "C<sub>2</sub>H<sub>2</sub>Cl<sub>2</sub>",
        "Molecular Mass": "96.94",
        "Boiling Point": "48.7 °C @ Press: 760 Torr",
        "Melting Point": "-49.8 °C",
        "Density": "1.2565 g/cm³ @ Temp: 20 °C"
    }
}