{
    "cas_no": "65141-46-0",
    "key_name": "Nicorandil",
    "cn_name": "尼可地尔;硝烟酯;硝酸烟酰胺乙酯;烟浪丁;",
    "alternate_name": "3-Pyridinecarboxamide, <em>N</em>-[2-(nitrooxy)ethyl]-;<em>N</em>-[2-(Nitrooxy)ethyl]-3-pyridinecarboxamide;<em>N</em>-(2-Hydroxyethyl)nicotinamide nitrate;SG 75;2-Nicotinamidoethyl nitrate;Nicorandil;<em>N</em>-(2-Nitrooxyethyl)nicotinamide;<em>N</em>-(2-Hydroxyethyl)nicotinamide nitrate ester;Sigmart;U 64417;Perisalol;Ikorel;Dancor;Coronel;2-[(Pyridin-3-yl)formamido]ethyl nitrate;2-(Pyridine-3-carbonylamino)ethyl nitrate;MeSH ID: D020108",
    "duplicated_cas_no": "2733432-28-3;3002349-93-8",
    "SMILES": "C(NCCON(=O)=O)(=O)C=1C=CC=NC1",
    "meta_data": {
        "InChI": "InChI=1S/C8H9N3O4/c12-8(7-2-1-3-9-6-7)10-4-5-15-11(13)14/h1-3,6H,4-5H2,(H,10,12)",
        "InChIKey": null,
        "Canonical SMILES": "O=C(NCCON(=O)=O)C=1C=NC=CC1",
        "Molecular Formula": "C<sub>8</sub>H<sub>9</sub>N<sub>3</sub>O<sub>4</sub>",
        "Molecular Mass": "211.17",
        "Melting Point": "92.5 °C"
    }
}