{
    "cas_no": "312325-72-7",
    "key_name": "5-Bromo-2-pyridineacetonitrile",
    "cn_name": null,
    "alternate_name": "2-Pyridineacetonitrile, 5-bromo-;5-Bromo-2-pyridineacetonitrile;(5-Bromopyridin-2-yl)acetonitrile;5-Bromopyridine-2-acetonitrile;2-(5-Bromopyridin-2-yl)acetonitrile;2-(5-Bromo-2-pyridyl)acetonitrile",
    "duplicated_cas_no": "",
    "SMILES": "C(C#N)C1=CC=C(Br)C=N1",
    "meta_data": {
        "InChI": "InChI=1S/C7H5BrN2/c8-6-1-2-7(3-4-9)10-5-6/h1-2,5H,3H2",
        "InChIKey": null,
        "Canonical SMILES": "N#CCC1=NC=C(Br)C=C1",
        "Molecular Formula": "C<sub>7</sub>H<sub>5</sub>BrN<sub>2</sub>",
        "Molecular Mass": "197.03",
        "Melting Point": "29 °C"
    }
}