{
    "cas_no": "107-93-7",
    "key_name": "<em>trans</em>-Crotonic acid",
    "cn_name": "巴豆酸;反式丁烯酸;",
    "alternate_name": "2-Butenoic acid, (2<em>E</em>)-;Crotonic acid, (<em>E</em>)-;2-Butenoic acid, (<em>E</em>)-;(2<em>E</em>)-2-Butenoic acid;<em>trans</em>-Crotonic acid;(<em>E</em>)-Crotonic acid;<em>trans</em>-2-Butenoic acid;(<em>E</em>)-2-Butenoic acid;NSC 8751;(E)-Crotonic acid",
    "duplicated_cas_no": "",
    "SMILES": "C(\\C(O)=O)=C/C",
    "meta_data": {
        "InChI": "InChI=1S/C4H6O2/c1-2-3-4(5)6/h2-3H,1H3,(H,5,6)/b3-2+",
        "InChIKey": null,
        "Canonical SMILES": "O=C(O)C=CC",
        "Molecular Formula": "C<sub>4</sub>H<sub>6</sub>O<sub>2</sub>",
        "Molecular Mass": "86.09",
        "Boiling Point": "184.7 °C",
        "Melting Point": "72 °C"
    }
}