{
    "cas_no": "1072-62-4",
    "key_name": "2-Ethylimidazole",
    "cn_name": "2-乙基咪唑;",
    "alternate_name": "1<em>H</em>-Imidazole, 2-ethyl-;Imidazole, 2-ethyl-;2-Ethyl-1<em>H</em>-imidazole;2-Ethylimidazole;Curezol 2EZ;1<em>H</em>-2-Ethylimidazole",
    "duplicated_cas_no": "81833-72-9",
    "SMILES": "C(C)C=1NC=CN1",
    "meta_data": {
        "InChI": "InChI=1S/C5H8N2/c1-2-5-6-3-4-7-5/h3-4H,2H2,1H3,(H,6,7)",
        "InChIKey": null,
        "Canonical SMILES": "N=1C=CNC1CC",
        "Molecular Formula": "C<sub>5</sub>H<sub>8</sub>N<sub>2</sub>",
        "Molecular Mass": "96.13",
        "Boiling Point": "270-275 °C",
        "Melting Point": "61-64 °C"
    }
}