{
    "cas_no": "53554-29-3",
    "key_name": "Ethyl 1,6-dihydro-2-(methylthio)-6-oxo-5-pyrimidinecarboxylate",
    "cn_name": null,
    "alternate_name": "5-Pyrimidinecarboxylic acid, 1,6-dihydro-2-(methylthio)-6-oxo-, ethyl ester;5-Pyrimidinecarboxylic acid, 1,4-dihydro-2-(methylthio)-4-oxo-, ethyl ester;5-Pyrimidinecarboxylic acid, 4-hydroxy-2-(methylthio)-, ethyl ester;Ethyl 1,6-dihydro-2-(methylthio)-6-oxo-5-pyrimidinecarboxylate;Ethyl 2<em>S</em>-methyl-4-hydroxypyrimidine-5-carboxylate;2-Methylmercapto-4-hydroxy-5-carbethoxypyrimidine;NSC 104155;NSC 43816;4-Hydroxy-2-(methylsulfanyl)pyrimidine-5-carboxylic acid ethyl ester;4-Hydroxy-2-methylthiopyrimidine-5-carboxylic acid ethyl ester;1,4-Dihydro-2-(methylthio)-4-oxo-5-pyrimidinecarboxylic acid ethyl ester",
    "duplicated_cas_no": "",
    "SMILES": "C(OCC)(=O)C=1C(=O)NC(SC)=NC1",
    "meta_data": {
        "InChI": "InChI=1S/C8H10N2O3S/c1-3-13-7(12)5-4-9-8(14-2)10-6(5)11/h4H,3H2,1-2H3,(H,9,10,11)",
        "InChIKey": null,
        "Canonical SMILES": "O=C(OCC)C1=CN=C(SC)NC1=O",
        "Molecular Formula": "C<sub>8</sub>H<sub>10</sub>N<sub>2</sub>O<sub>3</sub>S",
        "Molecular Mass": "214.24",
        "Melting Point": "132-133 °C"
    }
}