{
    "cas_no": "13314-85-7",
    "key_name": "2-Methyl-1<em>H</em>-indol-5-ol",
    "cn_name": "5-羟基-2-甲基吲哚;",
    "alternate_name": "1<em>H</em>-Indol-5-ol, 2-methyl-;Indol-5-ol, 2-methyl-;2-Methyl-1<em>H</em>-indol-5-ol;5-Hydroxy-2-methylindole;2-Methyl-5-hydroxyindole;5-Hydroxy-2-methyl-1<em>H</em>-indole",
    "duplicated_cas_no": "",
    "SMILES": "CC=1NC=2C(C1)=CC(O)=CC2",
    "meta_data": {
        "InChI": "InChI=1S/C9H9NO/c1-6-4-7-5-8(11)2-3-9(7)10-6/h2-5,10-11H,1H3",
        "InChIKey": null,
        "Canonical SMILES": "OC=1C=CC=2NC(=CC2C1)C",
        "Molecular Formula": "C<sub>9</sub>H<sub>9</sub>NO",
        "Molecular Mass": "147.17",
        "Melting Point": "188 °C"
    }
}