{
    "cas_no": "23632-66-8",
    "key_name": "(4<em>S</em>)-5-Oxo-3-[(phenylmethoxy)carbonyl]-4-oxazolidineacetic acid",
    "cn_name": "(S)-(+)-3-(苄氧羰基)-5-氧代-4-恶唑啉乙酸;",
    "alternate_name": "4-Oxazolidineacetic acid, 5-oxo-3-[(phenylmethoxy)carbonyl]-, (4<em>S</em>)-;4-Oxazolidineacetic acid, 3-carboxy-5-oxo-, 3-benzyl ester, (<em>S</em>)-;4-Oxazolidineacetic acid, 5-oxo-3-[(phenylmethoxy)carbonyl]-, (<em>S</em>)-;(4<em>S</em>)-5-Oxo-3-[(phenylmethoxy)carbonyl]-4-oxazolidineacetic acid;(4<em>S</em>)-<em>N</em>-Carbobenzyloxy-5-oxo-4-oxazolidineacetic acid;(<em>S</em>)-2-[3-[(Benzyloxy)carbonyl]-5-oxooxazolidin-4-yl]acetic acid;(<em>S</em>)-(+)-3-(Benzyloxycarbonyl)-5-oxo-4-oxazolidineacetic acid;2-[(4S)-3-[(Benzyloxy)carbonyl]-5-oxo-1,3-oxazolidin-4-yl]acetic acid",
    "duplicated_cas_no": "",
    "SMILES": "C(OCC1=CC=CC=C1)(=O)N2[C@@H](CC(O)=O)C(=O)OC2",
    "meta_data": {
        "InChI": "InChI=1S/C13H13NO6/c15-11(16)6-10-12(17)20-8-14(10)13(18)19-7-9-4-2-1-3-5-9/h1-5,10H,6-8H2,(H,15,16)/t10-/m0/s1",
        "InChIKey": null,
        "Canonical SMILES": "O=C(O)CC1C(=O)OCN1C(=O)OCC=2C=CC=CC2",
        "Molecular Formula": "C<sub>13</sub>H<sub>13</sub>NO<sub>6</sub>",
        "Molecular Mass": "279.25",
        "Melting Point": "82-84 °C"
    }
}