{
    "cas_no": "2140-46-7",
    "key_name": "25-Hydroxycholesterol",
    "cn_name": "25-羟基胆甾醇;",
    "alternate_name": "Cholest-5-ene-3,25-diol, (3β)-;Cholest-5-ene-3β,25-diol;(3β)-Cholest-5-ene-3,25-diol;25-Hydroxycholesterol;5-Cholesten-3β,25-diol;25-Hydroxy-5-cholestene-3β-ol",
    "duplicated_cas_no": "16505-96-7",
    "SMILES": "C[C@@]12[C@]([C@]3([C@@]([C@]4(C)C(=CC3)C[C@@H](O)CC4)(CC1)[H])[H])(CC[C@@]2([C@@H](CCCC(C)(C)O)C)[H])[H]",
    "meta_data": {
        "InChI": "InChI=1S/C27H46O2/c1-18(7-6-14-25(2,3)29)22-10-11-23-21-9-8-19-17-20(28)12-15-26(19,4)24(21)13-16-27(22,23)5/h8,18,20-24,28-29H,6-7,9-17H2,1-5H3/t18-,20+,21+,22-,23+,24+,26+,27-/m1/s1",
        "InChIKey": null,
        "Canonical SMILES": "OC1CC2=CCC3C(CCC4(C)C(CCC34)C(C)CCCC(O)(C)C)C2(C)CC1",
        "Molecular Formula": "C<sub>27</sub>H<sub>46</sub>O<sub>2</sub>",
        "Molecular Mass": "402.65",
        "Melting Point": "177-179 °C"
    }
}