{
    "cas_no": "74654-06-1",
    "key_name": "1-(2-Azidoethoxy)-2-(2-methoxyethoxy)ethane",
    "cn_name": null,
    "alternate_name": "Ethane, 1-(2-azidoethoxy)-2-(2-methoxyethoxy)-;1-(2-Azidoethoxy)-2-(2-methoxyethoxy)ethane;1-Azido-2-[2-(2-methoxyethoxy)ethoxy]ethane;2-(2-(2-Methoxyethoxy)ethoxy)ethyl azide;Triethylene glycol methyl ether azide",
    "duplicated_cas_no": "2460672-96-0",
    "SMILES": "C(COCCOC)OCCN=[N+]=[N-]",
    "meta_data": {
        "InChI": "InChI=1S/C7H15N3O3/c1-11-4-5-13-7-6-12-3-2-9-10-8/h2-7H2,1H3",
        "InChIKey": null,
        "Canonical SMILES": "[N-]=[N+]=NCCOCCOCCOC",
        "Molecular Formula": "C<sub>7</sub>H<sub>15</sub>N<sub>3</sub>O<sub>3</sub>",
        "Molecular Mass": "",
        "Boiling Point": "58 °C @ Press: 0.01 Torr"
    }
}