{
    "cas_no": "101469-92-5",
    "key_name": "1-Pyrrolidinecarboxylic acid, 3-hydroxy-, 1,1-dimethylethyl ester, (3<em>S</em>)-",
    "cn_name": "(S)-1-N-叔丁氧羰基-3-羟基吡咯烷;",
    "alternate_name": "1-Pyrrolidinecarboxylic acid, 3-hydroxy-, 1,1-dimethylethyl ester, (3<em>S</em>)-;1-Pyrrolidinecarboxylic acid, 3-hydroxy-, 1,1-dimethylethyl ester, (<em>S</em>)-;(<em>S</em>)-3-Hydroxypyrrolidine-1-carboxylic acid <em>tert</em>-butyl ester;(<em>S</em>)-(+)-<em>N</em>-(<em>tert</em>-Butoxycarbonyl)-3-hydroxypyrrolidine;<em>tert</em>-Butyl (3<em>S</em>)-3-hydroxypyrrolidine-1-carboxylate;(3<em>S</em>)-<em>N</em>-<em>tert</em>-Butoxycarbonylpyrrolidin-3-ol;(3<em>S</em>)-Hydroxypyrrolidine-1-carboxylic acid tert-butyl ester;(3<em>S</em>)-3-Hydroxypyrrolidine-1-carboxylic acid tert-butyl ester;<em>tert</em>-Butyl (<em>S</em>)-3-hydroxypyrrolidine-1-carboxylate;(<em>S</em>)-1-<em>tert</em>-Butoxycarbonyl-3-hydroxypyrrolidine;(3<em>S</em>)-1-Boc-3-hydroxypyrrolidine;(3S)-1-<em>tert</em>-Butoxycarbonyl-3-pyrrolidinol;1,1-Dimethylethyl (3S)-3-hydroxy-1-pyrrolidinecarboxylate;(<em>S</em>)-<em>N</em>-(t-Butyloxycarbonyl)-3-hydroxypyrrolidine;(<em>S</em>)-(+)-<em>N</em>-(<em>tert</em>-Butoxycarbonyl)-3-pyrrolidinol;<em>N</em>-Boc-(<em>S</em>)-3-hydroxypyrrolidine;(<em>S</em>)-<em>tert</em>-Butyl 3-hydroxypyrrolidine-1-carboxylate;<em>N</em>-<em>tert</em>-Butoxycarbonyl-(<em>S</em>)-3-pyrrolidinol;<em>N</em>-[(<em>tert</em>-Butoxy)carbonyl]-(<em>S</em>)-3-hydroxypyrrolidine;1,1-Dimethylethyl (3<em>S</em>)-3-hydroxy-1-pyrrolidinecarboxylate;(<em>S</em>)-(+)-<em>N</em>-Boc-3-hydroxypyrrolidine;(<em>S</em>)-<em>N</em>-Boc-3-hydroxypyrrolidine;(+)-<em>N</em>-Boc-3-hydroxypyrrolidine;(<em>S</em>)-<em>N</em>-(<em>tert</em>-Butoxycarbonyl)-3-hydroxypyrrolidine;<em>tert</em>-Butyl (3S)-3-hydroxypyrrolidine-1-carboxylate;1,1-Dimethylethyl (3<em>S</em>)-3-hydroxypyrrolidine-1-carboxylate;(<em>S</em>)-1-<em>N</em>-Boc-3-pyrrolidinol;(<em>S</em>)-1-(<em>tert</em>-Butoxycarbonyl)-3-pyrrolidinol;(<em>S</em>)-3-Hydroxy-1-(<em>tert</em>-butoxycarbonyl)pyrrolidine;(<em>S</em>)-<em>N</em>-Boc-3-pyrrolidinol;(<em>S</em>)-3-Hydroxy-1-Boc-pyrrolidine;(<em>S</em>)-(+)-1-Boc-3-hydroxypyrrolidine;<em>tert</em>-Butyl (1S)-3-hydroxypyrrolidine-1-carboxylate",
    "duplicated_cas_no": "1220220-64-3",
    "SMILES": "C(OC(C)(C)C)(=O)N1CC[C@H](O)C1",
    "meta_data": {
        "InChI": "InChI=1S/C9H17NO3/c1-9(2,3)13-8(12)10-5-4-7(11)6-10/h7,11H,4-6H2,1-3H3/t7-/m0/s1",
        "InChIKey": null,
        "Canonical SMILES": "O=C(OC(C)(C)C)N1CCC(O)C1",
        "Molecular Formula": "C<sub>9</sub>H<sub>17</sub>NO<sub>3</sub>",
        "Molecular Mass": "187.24",
        "Melting Point": "60-61 °C"
    }
}