{
    "cas_no": "19243-95-9",
    "key_name": "(4-Hydroxyphenyl)methacrylamide",
    "cn_name": "4\"-羟基-2-甲基丙烯酰苯胺;4-羟基-2-甲基丙烯酰苯胺;",
    "alternate_name": "2-Propenamide, <em>N</em>-(4-hydroxyphenyl)-2-methyl-;Acrylanilide, 4′-hydroxy-2-methyl-;<em>N</em>-(4-Hydroxyphenyl)-2-methyl-2-propenamide;<em>p</em>-Methacrylamidophenol;<em>N</em>-(4-Hydroxyphenyl)methacrylamide;<em>N</em>-(<em>p</em>-Hydroxyphenyl)methacrylamide;<em>p</em>-Hydroxymethacrylanilide;(4-Hydroxyphenyl)methacrylamide",
    "duplicated_cas_no": "142570-51-2;172599-77-8",
    "SMILES": "N(C(C(C)=C)=O)C1=CC=C(O)C=C1",
    "meta_data": {
        "InChI": "InChI=1S/C10H11NO2/c1-7(2)10(13)11-8-3-5-9(12)6-4-8/h3-6,12H,1H2,2H3,(H,11,13)",
        "InChIKey": null,
        "Canonical SMILES": "O=C(NC1=CC=C(O)C=C1)C(=C)C",
        "Molecular Formula": "C<sub>10</sub>H<sub>11</sub>NO<sub>2</sub>",
        "Molecular Mass": "177.20",
        "Melting Point": "153-155 °C"
    }
}