{
    "cas_no": "4261-67-0",
    "key_name": "1-Propanamine, 3-chloro-<em>N</em>,<em>N</em>,2-trimethyl-, hydrochloride (1:1)",
    "cn_name": "N,N-二甲氨基-3-氯-2-甲基丙烷盐酸盐;",
    "alternate_name": "1-Propanamine, 3-chloro-<em>N</em>,<em>N</em>,2-trimethyl-, hydrochloride (1:1);1-Propanamine, 3-chloro-<em>N</em>,<em>N</em>,2-trimethyl-, hydrochloride;Propylamine, 3-chloro-<em>N</em>,<em>N</em>,2-trimethyl-, hydrochloride;(γ-Chloro-β-methylpropyl)dimethylamine-hydrochloride;2-Methyl-3-(dimethylamino)propyl chloride hydrochloride;3-(Dimethylamino)-2-methylpropyl chloride hydrochloride;2,<em>N</em>,<em>N</em>-Trimethylaminopropyl chloride hydrochloride;1-Chloro-2-methyl-3-(<em>N</em>,<em>N</em>-dimethylamino)propane hydrochloride;1-Chloro-3-(dimethylamino)-2-methylpropane hydrochloride",
    "duplicated_cas_no": "",
    "SMILES": "C(CN(C)C)(CCl)C.Cl",
    "meta_data": {
        "InChI": "InChI=1S/C6H14ClN.ClH/c1-6(4-7)5-8(2)3;/h6H,4-5H2,1-3H3;1H",
        "InChIKey": null,
        "Canonical SMILES": "Cl.ClCC(C)CN(C)C",
        "Molecular Formula": "C<sub>6</sub>H<sub>14</sub>ClN.ClH",
        "Molecular Mass": "",
        "Melting Point": "172 °C"
    }
}