{
    "cas_no": "2425-06-1",
    "key_name": "Captafol",
    "cn_name": "敌菌丹;N-四氯乙硫基四氢酞酰亚胺;福尔西一登;四氯丹;",
    "alternate_name": "1<em>H</em>-Isoindole-1,3(2<em>H</em>)-dione, 3a,4,7,7a-tetrahydro-2-[(1,1,2,2-tetrachloroethyl)thio]-;4-Cyclohexene-1,2-dicarboximide, <em>N</em>-[(1,1,2,2-tetrachloroethyl)thio]-;3a,4,7,7a-Tetrahydro-2-[(1,1,2,2-tetrachloroethyl)thio]-1<em>H</em>-isoindole-1,3(2<em>H</em>)-dione;Ortho 5865;<em>N</em>-1,1,2,2-Tetrachloroethylmercapto-4-cyclohexene-1,2-dicarboximide;<em>N</em>-(1,1,2,2-Tetrachloroethylthio)-4-cyclohexene-1,2-dicarboximide;Captafol;CS 5623;Tetrachloroethylthiotetrahydrophthalimide;<em>N</em>-(1,1,2,2-Tetrachloroethylthio)-4-cyclohexene-1,2-dicarboxyimide;<em>N</em>-(Tetrachloroethylthio)tetrahydrophthalimide;Folcid;Difolatan;Difolatan 4F1;Haipen 50;Alfloc 7020;Nalco 7046;Proxel EF;Alfloc 7046;<em>N</em>-(1,1,2,2-Tetrachloroethylthio)-Δ<sup>4</sup>-tetrahydrophthalimide;Terrazol;Difolatan 4F;Arborseal;Difolatan BOW;Foltaf;Santar SM;Merpafol;Difolatan 80W;Sanspor",
    "duplicated_cas_no": "30017-05-1;61913-12-0;1135442-79-3",
    "SMILES": "O=C1C2C(C(=O)N1SC(C(Cl)Cl)(Cl)Cl)CC=CC2",
    "meta_data": {
        "InChI": "InChI=1S/C10H9Cl4NO2S/c11-9(12)10(13,14)18-15-7(16)5-3-1-2-4-6(5)8(15)17/h1-2,5-6,9H,3-4H2",
        "InChIKey": null,
        "Canonical SMILES": "O=C1N(SC(Cl)(Cl)C(Cl)Cl)C(=O)C2CC=CCC12",
        "Molecular Formula": "C<sub>10</sub>H<sub>9</sub>Cl<sub>4</sub>NO<sub>2</sub>S",
        "Molecular Mass": "349.06",
        "Melting Point": "160-161 °C"
    }
}