{
    "cas_no": "5414-19-7",
    "key_name": "2-Bromoethyl ether",
    "cn_name": "2,2\"-二溴二乙醚;",
    "alternate_name": "Ethane, 1,1′-oxybis[2-bromo-;Ether, bis(2-bromoethyl);1,1′-Oxybis[2-bromoethane];β,β′-Dibromodiethyl ether;Bis(2-bromoethyl) ether;2,2′-Dibromodiethyl ether;1,5-Dibromo-3-oxapentane;Bromex;3-Oxa-1,5-dibromopentane;Bis(β-bromoethyl) ether;2-(2-Bromoethoxy)ethyl bromide;Di(2-bromoethyl) ether;2-Bromoethyl ether;NSC 8025;1-(2-Bromoethoxy)-2-bromoethane;1-Bromo-2-(2-bromoethoxy)ethane;L 11510",
    "duplicated_cas_no": "",
    "SMILES": "O(CCBr)CCBr",
    "meta_data": {
        "InChI": "InChI=1S/C4H8Br2O/c5-1-3-7-4-2-6/h1-4H2",
        "InChIKey": null,
        "Canonical SMILES": "BrCCOCCBr",
        "Molecular Formula": "C<sub>4</sub>H<sub>8</sub>Br<sub>2</sub>O",
        "Molecular Mass": "231.91",
        "Boiling Point": "115 °C",
        "Density": "1.8222 g/cm³ @ Temp: 27 °C"
    }
}