{
    "cas_no": "17585-69-2",
    "key_name": "<span class=\"text-smallcaps\">L</span>-Phenylalanine, hydrochloride (1:1)",
    "cn_name": null,
    "alternate_name": "<span class=\"text-smallcaps\">L</span>-Phenylalanine, hydrochloride (1:1);Alanine, phenyl-, hydrochloride, <span class=\"text-smallcaps\">L</span>-;<span class=\"text-smallcaps\">L</span>-Phenylalanine, hydrochloride;β-Phenyl-<span class=\"text-smallcaps\">L</span>-alanine hydrochloride;Phenylalanine hydrochloride;<span class=\"text-smallcaps\">L</span>-Phenylalanine monohydrochloride;(<em>S</em>)-2-Amino-3-phenylpropanoic acid hydrochloride",
    "duplicated_cas_no": "133566-29-7",
    "SMILES": "C([C@@H](C(O)=O)N)C1=CC=CC=C1.Cl",
    "meta_data": {
        "InChI": "InChI=1S/C9H11NO2.ClH/c10-8(9(11)12)6-7-4-2-1-3-5-7;/h1-5,8H,6,10H2,(H,11,12);1H/t8-;/m0./s1",
        "InChIKey": null,
        "Canonical SMILES": "Cl.O=C(O)C(N)CC=1C=CC=CC1",
        "Molecular Formula": "C<sub>9</sub>H<sub>11</sub>NO<sub>2</sub>.ClH",
        "Molecular Mass": "",
        "Melting Point": "244-245 °C",
        "Density": "1.268 g/cm³"
    }
}