{
    "cas_no": "278779-30-9",
    "key_name": "3-[2-[2-Chloro-4-[[3-(2,6-dichlorophenyl)-5-(1-methylethyl)-4-isoxazolyl]methoxy]phenyl]ethenyl]benzoic acid",
    "cn_name": "3-(2,6-二氯苯基)-4-(3\"-羧基-2-氯二苯乙烯-4-基)氧甲基-5-异丙基异恶唑;",
    "alternate_name": "Benzoic acid, 3-[2-[2-chloro-4-[[3-(2,6-dichlorophenyl)-5-(1-methylethyl)-4-isoxazolyl]methoxy]phenyl]ethenyl]-;3-[2-[2-Chloro-4-[[3-(2,6-dichlorophenyl)-5-(1-methylethyl)-4-isoxazolyl]methoxy]phenyl]ethenyl]benzoic acid;GW 4064",
    "duplicated_cas_no": "292047-56-4",
    "SMILES": "C(OC1=CC(Cl)=C(C=CC2=CC(C(O)=O)=CC=C2)C=C1)C=3C(=NOC3C(C)C)C4=C(Cl)C=CC=C4Cl",
    "meta_data": {
        "InChI": "InChI=1S/C28H22Cl3NO4/c1-16(2)27-21(26(32-36-27)25-22(29)7-4-8-23(25)30)15-35-20-12-11-18(24(31)14-20)10-9-17-5-3-6-19(13-17)28(33)34/h3-14,16H,15H2,1-2H3,(H,33,34)",
        "InChIKey": null,
        "Canonical SMILES": "O=C(O)C=1C=CC=C(C=CC2=CC=C(OCC=3C(=NOC3C(C)C)C=4C(Cl)=CC=CC4Cl)C=C2Cl)C1",
        "Molecular Formula": "C<sub>28</sub>H<sub>22</sub>Cl<sub>3</sub>NO<sub>4</sub>",
        "Molecular Mass": "542.84",
        "Melting Point": "164-167 °C"
    }
}