{
    "cas_no": "90719-32-7",
    "key_name": "(-)-4-Benzyl-2-oxazolidinone",
    "cn_name": "(S)-4-苄基-2-噁唑烷酮;",
    "alternate_name": "2-Oxazolidinone, 4-(phenylmethyl)-, (4<em>S</em>)-;2-Oxazolidinone, 4-(phenylmethyl)-, (<em>S</em>)-;(4<em>S</em>)-4-(Phenylmethyl)-2-oxazolidinone;(<em>S</em>)-4-Benzyloxazolidin-2-one;(<em>S</em>)-4-Phenylmethyl-2-oxazolidinone;(<em>S</em>)-(-)-4-Benzyl-2-oxazolidinone;4S-(Phenylmethyl)oxazolidin-2-one;(4<em>S</em>)-Benzyloxazolidin-2-one;4S-Benzyloxazolidin-2-one;4-(<em>S</em>)-Benzyl-2-oxazolidinone;(<em>S</em>)-4-Benzyloxy-2-azolidinone;(-)-4-Benzyl-2-oxazolidinone;(4<em>S</em>)-4-Benzyl-1,3-oxazolidin-2-one;(4<em>S</em>)-4-(Phenylmethyl)-1,3-oxazolidin-2-one;(4<em>S</em>)-4-Benzyloxazolidin-2-one;(<em>S</em>)-(-)-4-Benzyl-1,3-oxazolidin-2-one;(4<em>S</em>)-(-)-4-(Phenylmethyl)-1,3-oxazolidin-2-one;(<em>S</em>)-4-Benzyl-2-oxazolidone",
    "duplicated_cas_no": "180917-48-0",
    "SMILES": "C([C@H]1COC(=O)N1)C2=CC=CC=C2",
    "meta_data": {
        "InChI": "InChI=1S/C10H11NO2/c12-10-11-9(7-13-10)6-8-4-2-1-3-5-8/h1-5,9H,6-7H2,(H,11,12)/t9-/m0/s1",
        "InChIKey": null,
        "Canonical SMILES": "O=C1OCC(N1)CC=2C=CC=CC2",
        "Molecular Formula": "C<sub>10</sub>H<sub>11</sub>NO<sub>2</sub>",
        "Molecular Mass": "177.20",
        "Melting Point": "89-90 °C"
    }
}