{
    "cas_no": "112704-79-7",
    "key_name": "4-Bromo-2-fluorobenzoic acid",
    "cn_name": "4-溴-2-氟苯甲酸;",
    "alternate_name": "Benzoic acid, 4-bromo-2-fluoro-;4-Bromo-2-fluorobenzoic acid;2-Fluoro-4-bromobenzoic acid;NSC 190364",
    "duplicated_cas_no": "",
    "SMILES": "C(O)(=O)C1=C(F)C=C(Br)C=C1",
    "meta_data": {
        "InChI": "InChI=1S/C7H4BrFO2/c8-4-1-2-5(7(10)11)6(9)3-4/h1-3H,(H,10,11)",
        "InChIKey": null,
        "Canonical SMILES": "O=C(O)C1=CC=C(Br)C=C1F",
        "Molecular Formula": "C<sub>7</sub>H<sub>4</sub>BrFO<sub>2</sub>",
        "Molecular Mass": "219.01",
        "Melting Point": "204-208 °C (polymorph)"
    }
}