{
    "cas_no": "3026-69-5",
    "key_name": "Dioctyldimethylammonium bromide",
    "cn_name": "二甲基二辛基溴化铵;",
    "alternate_name": "1-Octanaminium, <em>N</em>,<em>N</em>-dimethyl-<em>N</em>-octyl-, bromide (1:1);Ammonium, dimethyldioctyl-, bromide;1-Octanaminium, <em>N</em>,<em>N</em>-dimethyl-<em>N</em>-octyl-, bromide;Dimethyldioctylammonium bromide;Dioctyldimethylammonium bromide",
    "duplicated_cas_no": "",
    "SMILES": "[N+](CCCCCCCC)(CCCCCCCC)(C)C.[Br-]",
    "meta_data": {
        "InChI": "InChI=1S/C18H40N.BrH/c1-5-7-9-11-13-15-17-19(3,4)18-16-14-12-10-8-6-2;/h5-18H2,1-4H3;1H/q+1;/p-1",
        "InChIKey": null,
        "Canonical SMILES": "[Br-].CCCCCCCC[N+](C)(C)CCCCCCCC",
        "Molecular Formula": "C<sub>18</sub>H<sub>40</sub>N.Br",
        "Molecular Mass": "",
        "Melting Point": "60-68 °C"
    }
}