{
    "cas_no": "151-18-8",
    "key_name": "3-Aminopropionitrile",
    "cn_name": "3-氨基丙腈;&beta;-氨基丙腈;",
    "alternate_name": "Propanenitrile, 3-amino-;Propionitrile, 3-amino-;Propionitrile, β-amino-;3-Aminopropanenitrile;β-Alaninenitrile;β-Aminopropionitrile;3-Aminopropionitrile;BAPN;β-Cyanoethylamine;2-Cyanoethylamine;Aminopropionitrile;1-Cyano-2-aminoethane;NSC 40641;<em>N</em>-(2-Cyanoethyl)amine;MeSH ID: D000629",
    "duplicated_cas_no": "60585-38-8",
    "SMILES": "C(CN)C#N",
    "meta_data": {
        "InChI": "InChI=1S/C3H6N2/c4-2-1-3-5/h1-2,4H2",
        "InChIKey": null,
        "Canonical SMILES": "N#CCCN",
        "Molecular Formula": "C<sub>3</sub>H<sub>6</sub>N<sub>2</sub>",
        "Molecular Mass": "70.09",
        "Boiling Point": "185 °C @ Press: 760 Torr",
        "Melting Point": "&lt;25 °C",
        "Density": "0.9584 g/cm³ @ Temp: 20 °C"
    }
}