{
    "cas_no": "10294-54-9",
    "key_name": "Cesium sulfate",
    "cn_name": "硫酸铯;",
    "alternate_name": "Sulfuric acid, cesium salt (1:2);Cesium sulfate (Cs<sub>2</sub>(SO<sub>4</sub>));Sulfuric acid, dicesium salt;Dicesium sulfate;Cesium sulfate",
    "duplicated_cas_no": "",
    "SMILES": "S(=O)(=O)(O)O.[Cs]",
    "meta_data": {
        "InChI": "InChI=1S/2Cs.H2O4S/c;;1-5(2,3)4/h;;(H2,1,2,3,4)",
        "InChIKey": null,
        "Canonical SMILES": "[Cs].O=S(=O)(O)O",
        "Molecular Formula": "Cs.<sup>1</sup>/<sub>2</sub>H<sub>2</sub>O<sub>4</sub>S",
        "Molecular Mass": "",
        "Melting Point": "1010 °C"
    }
}