{
    "cas_no": "40591-65-9",
    "key_name": "β-<span class=\"text-smallcaps\">D</span>-Glucopyranose, 1-thio-, 2,3,4,6-tetraacetate 1-carbamimidate, hydrobromide (1:1)",
    "cn_name": null,
    "alternate_name": "β-<span class=\"text-smallcaps\">D</span>-Glucopyranose, 1-thio-, 2,3,4,6-tetraacetate 1-carbamimidate, hydrobromide (1:1);β-<span class=\"text-smallcaps\">D</span>-Glucopyranose, 1-thio-, 2,3,4,6-tetraacetate 1-carbamimidate, monohydrobromide;Pseudourea 2-β-<span class=\"text-smallcaps\">D</span>-glucopyranosyl-2-thio-, tetraacetate, hydrobromide;<em>S</em>-(2,3,4,6-Tetra-<em>O</em>-acetyl-β-<span class=\"text-smallcaps\">D</span>-glucopyranosyl)isothiourea hydrobromide;NSC 409734;2,3,4,6-Tetra-<em>O</em>-acetyl-1-carbamimidoyl-1-thio-β-<span class=\"text-smallcaps\">D</span>-glucopyranose monohydrobromide;2,3,4,6-Tetra-<em>O</em>-acetyl-β-<span class=\"text-smallcaps\">D</span>-glucopyranosyl 1-isothiouronium) bromide",
    "duplicated_cas_no": "",
    "SMILES": "O(C(C)=O)[C@H]1[C@H](OC(C)=O)[C@@H](COC(C)=O)O[C@@H](SC(=N)N)[C@@H]1OC(C)=O.Br",
    "meta_data": {
        "InChI": "InChI=1S/C15H22N2O9S.BrH/c1-6(18)22-5-10-11(23-7(2)19)12(24-8(3)20)13(25-9(4)21)14(26-10)27-15(16)17;/h10-14H,5H2,1-4H3,(H3,16,17);1H/t10-,11-,12+,13-,14+;/m1./s1",
        "InChIKey": null,
        "Canonical SMILES": "Br.O=C(OCC1OC(SC(=N)N)C(OC(=O)C)C(OC(=O)C)C1OC(=O)C)C",
        "Molecular Formula": "C<sub>15</sub>H<sub>22</sub>N<sub>2</sub>O<sub>9</sub>S.BrH",
        "Molecular Mass": "",
        "Melting Point": "192 °C"
    }
}