{
    "cas_no": "3404-77-1",
    "key_name": "3,3-Dimethyl-1-hexene",
    "cn_name": "3,3-二甲基-1-己烯;",
    "alternate_name": "1-Hexene, 3,3-dimethyl-;3,3-Dimethyl-1-hexene",
    "duplicated_cas_no": "",
    "SMILES": "C(CCC)(C=C)(C)C",
    "meta_data": {
        "InChI": "InChI=1S/C8H16/c1-5-7-8(3,4)6-2/h6H,2,5,7H2,1,3-4H3",
        "InChIKey": null,
        "Canonical SMILES": "C=CC(C)(C)CCC",
        "Molecular Formula": "C<sub>8</sub>H<sub>16</sub>",
        "Molecular Mass": "112.21",
        "Boiling Point": "104 °C",
        "Density": "0.7127 g/cm³ @ Temp: 20 °C"
    }
}