{
    "cas_no": "5565-36-6",
    "key_name": "2,2′-(1,4-Phenylene)bis[5,5-dimethyl-1,3,2-dioxaborinane]",
    "cn_name": "1,4-苯二硼酸双(新戊二醇)酯;1,4-苯二硼酸双(新戊二醇)酯;",
    "alternate_name": "1,3,2-Dioxaborinane, 2,2′-(1,4-phenylene)bis[5,5-dimethyl-;<em>p</em>-Benzenediboronic acid, cyclic bis(2,2-dimethyltrimethylene) ester;2,2′-(1,4-Phenylene)bis[5,5-dimethyl-1,3,2-dioxaborinane];1,4-Bis(5,5-dimethyl-1,3,2-dioxaborinan-2-yl)benzene",
    "duplicated_cas_no": "233753-21-4;1492051-49-6",
    "SMILES": "CC1(C)COB(OC1)C2=CC=C(C=C2)B3OCC(C)(C)CO3",
    "meta_data": {
        "InChI": "InChI=1S/C16H24B2O4/c1-15(2)9-19-17(20-10-15)13-5-7-14(8-6-13)18-21-11-16(3,4)12-22-18/h5-8H,9-12H2,1-4H3",
        "InChIKey": null,
        "Canonical SMILES": "O1B(OCC(C)(C)C1)C2=CC=C(C=C2)B3OCC(C)(C)CO3",
        "Molecular Formula": "C<sub>16</sub>H<sub>24</sub>B<sub>2</sub>O<sub>4</sub>",
        "Molecular Mass": "301.98",
        "Melting Point": "221-222 °C"
    }
}