{
    "cas_no": "2456-81-7",
    "key_name": "4-Pyrrolidinopyridine",
    "cn_name": "4-吡咯烷基吡啶;",
    "alternate_name": "Pyridine, 4-(1-pyrrolidinyl)-;4-(1-Pyrrolidinyl)pyridine;4-Pyrrolidinopyridine;4-(1-Pyrrolidino)pyridine;4-(<em>N</em>-Pyrrolidinyl)pyridine",
    "duplicated_cas_no": "",
    "SMILES": "N1(CCCC1)C=2C=CN=CC2",
    "meta_data": {
        "InChI": "InChI=1S/C9H12N2/c1-2-8-11(7-1)9-3-5-10-6-4-9/h3-6H,1-2,7-8H2",
        "InChIKey": null,
        "Canonical SMILES": "N=1C=CC(=CC1)N2CCCC2",
        "Molecular Formula": "C<sub>9</sub>H<sub>12</sub>N<sub>2</sub>",
        "Molecular Mass": "148.21",
        "Boiling Point": "170-171 °C @ Press: 12 Torr",
        "Melting Point": "55-56 °C"
    }
}