{
    "cas_no": "35858-81-2",
    "key_name": "<span class=\"text-smallcaps\">L</span>-Tryptophan, phenylmethyl ester, hydrochloride (1:1)",
    "cn_name": "L-色氨酸苄酯盐酸盐;",
    "alternate_name": "<span class=\"text-smallcaps\">L</span>-Tryptophan, phenylmethyl ester, hydrochloride (1:1);<span class=\"text-smallcaps\">L</span>-Tryptophan, phenylmethyl ester, monohydrochloride;<span class=\"text-smallcaps\">L</span>-Tryptophan benzyl ester hydrochloride;Tryptophan benzyl ester monohydrochloride;Benzyl <span class=\"text-smallcaps\">L</span>-tryptophanate hydrochloride;NSC 202376;NSC 219866;H-(<span class=\"text-smallcaps\">L</span>)-Trp-<em>O</em>-Bn hydrochloride",
    "duplicated_cas_no": "",
    "SMILES": "C([C@@H](C(OCC1=CC=CC=C1)=O)N)C=2C=3C(NC2)=CC=CC3.Cl",
    "meta_data": {
        "InChI": "InChI=1S/C18H18N2O2.ClH/c19-16(18(21)22-12-13-6-2-1-3-7-13)10-14-11-20-17-9-5-4-8-15(14)17;/h1-9,11,16,20H,10,12,19H2;1H/t16-;/m0./s1",
        "InChIKey": null,
        "Canonical SMILES": "Cl.O=C(OCC=1C=CC=CC1)C(N)CC2=CNC=3C=CC=CC32",
        "Molecular Formula": "C<sub>18</sub>H<sub>18</sub>N<sub>2</sub>O<sub>2</sub>.ClH",
        "Molecular Mass": "",
        "Melting Point": "222 °C"
    }
}