{
    "cas_no": "2543-94-4",
    "key_name": "Phellopterin",
    "cn_name": null,
    "alternate_name": "7<em>H</em>-Furo[3,2-<em>g</em>][1]benzopyran-7-one, 4-methoxy-9-[(3-methyl-2-buten-1-yl)oxy]-;7<em>H</em>-Furo[3,2-<em>g</em>][1]benzopyran-7-one, 4-methoxy-9-[(3-methyl-2-butenyl)oxy]-;5-Benzofuranacrylic acid, 6-hydroxy-4-methoxy-7-[(3-methyl-2-butenyl)oxy]-, δ-lactone;4-Methoxy-9-[(3-methyl-2-buten-1-yl)oxy]-7<em>H</em>-furo[3,2-<em>g</em>][1]benzopyran-7-one;(5-Methoxy-8)-γ,γ-dimethylallyloxy(2′,3′,6,7-furanocoumarin);Phellopterin;NSC 152469",
    "duplicated_cas_no": "",
    "SMILES": "O(CC=C(C)C)C=1C2=C(C(OC)=C3C1OC=C3)C=CC(=O)O2",
    "meta_data": {
        "InChI": "InChI=1S/C17H16O5/c1-10(2)6-8-21-17-15-12(7-9-20-15)14(19-3)11-4-5-13(18)22-16(11)17/h4-7,9H,8H2,1-3H3",
        "InChIKey": null,
        "Canonical SMILES": "O=C1OC=2C(OCC=C(C)C)=C3OC=CC3=C(OC)C2C=C1",
        "Molecular Formula": "C<sub>17</sub>H<sub>16</sub>O<sub>5</sub>",
        "Molecular Mass": "300.31",
        "Melting Point": "102 °C"
    }
}