{
    "cas_no": "931-88-4",
    "key_name": "Cyclooctene",
    "cn_name": null,
    "alternate_name": "Cyclooctene;NSC 72425",
    "duplicated_cas_no": "",
    "SMILES": "C1CCCC=CCC1",
    "meta_data": {
        "InChI": "InChI=1S/C8H14/c1-2-4-6-8-7-5-3-1/h1-2H,3-8H2",
        "InChIKey": null,
        "Canonical SMILES": "C1=CCCCCCC1",
        "Molecular Formula": "C<sub>8</sub>H<sub>14</sub>",
        "Molecular Mass": "110.20",
        "Boiling Point": "143-144 °C",
        "Melting Point": "219 °C",
        "Density": "0.8519 g/cm³ @ Temp: 15 °C"
    }
}