{
    "uri": "substance/pt/1309644",
    "rn": "1309-64-4",
    "name": "Antimony trioxide",
    "images": [],
    "inchi": "",
    "inchiKey": "",
    "smile": "",
    "canonicalSmile": "",
    "molecularFormula": "O<sub>3</sub>Sb<sub>2</sub>",
    "molecularMass": "",
    "experimentalProperties": [
        {
            "name": "Boiling Point",
            "property": "1425 °C",
            "sourceNumber": 1
        },
        {
            "name": "Melting Point",
            "property": "655 °C",
            "sourceNumber": 1
        },
        {
            "name": "Density",
            "property": "5.2 g/cm³ (solid)",
            "sourceNumber": 2
        }
    ],
    "propertyCitations": [
        {
            "docUri": "",
            "sourceNumber": 1,
            "source": "Hazardous Substances Data Bank data were obtained from the National Library of Medicine (US)"
        },
        {
            "docUri": "document/pt/document/49939205",
            "sourceNumber": 2,
            "source": "Yang, Wenlong; Journal of Adhesion Science and Technology, (2018), 32(7), 739-752, CAplus"
        }
    ],
    "synonyms": [
        "Antimony oxide (Sb<sub>2</sub>O<sub>3</sub>)",
        "C.I. 77052",
        "Antimonious oxide",
        "Antimony trioxide",
        "Antox",
        "C.I. Pigment White 11",
        "Diantimony trioxide",
        "Exitelite",
        "Timonox",
        "Thermoguard S",
        "Antimony sesquioxide",
        "Antimony oxide",
        "Flowers of antimony",
        "Antimony oxide (O<sub>3</sub>Sb<sub>2</sub>)",
        "Antimony trioxide (Sb<sub>2</sub>O<sub>3</sub>)",
        "Antimony white",
        "Dechlorane A-O",
        "Thermoguard B",
        "Antimony(3+) oxide",
        "Chemetron Fire Shield",
        "AP 50",
        "Nyacol A 1530",
        "Nyacol A 1510LP",
        "Patox S",
        "Stibiox MS",
        "Atox S",
        "Thermoguard L",
        "Patox L",
        "Patox M",
        "Timonox White Star",
        "Patox H",
        "AT 3",
        "Atox F",
        "Antimony oxide (SbO<sub>1.5</sub>)",
        "Patox C",
        "White Star",
        "Timonox Red Star",
        "AP 50 (metal oxide)",
        "AT 3B",
        "Fireshield FSPO 405",
        "Atox B",
        "Flame Cut 610R",
        "UF (oxide)",
        "100A",
        "UF",
        "Pyroguard AN 700",
        "Pyroguard AN 900",
        "FCP 100",
        "White Star N",
        "Fire Cut AT 3",
        "Ultrafine II",
        "Antimony Bloom 100A",
        "Antimony Bloom 500A",
        "Flame Cut 610",
        "Stibital",
        "Trutin 40",
        "P 3",
        "Polysafe 100T",
        "Patox U",
        "LSB 80",
        "Pyroguard AN 800",
        "AN 800",
        "RAC 1",
        "FireShield LS-FR",
        "Sanka Anchimonzol C",
        "F 45",
        "F 45 (oxide)",
        "FireShield H",
        "Octoguard FR 10",
        "HM 203P",
        "MIC 3",
        "Polysafe 60",
        "Flameguard VF 59",
        "Pyroguard AN 800T",
        "Atox R",
        "Patox HS",
        "LS-FR",
        "TT 88",
        "FSPO 405",
        "MSA",
        "MSA (flame retardant)",
        "Bluestar RG",
        "Bluestar Z",
        "Timonox RT",
        "TMS",
        "TMS (flame retardant)",
        "Poliflam HT 3",
        "Microfine AO 5",
        "Microfine AO 3",
        "AO 3",
        "AO 5",
        "Stox W 60",
        "SHLB 80",
        "A 120 (corrosion inhibitor)",
        "A 120",
        "Patox A",
        "ACC-BS",
        "Patox P",
        "Performax 401",
        "Patox MK",
        "MSF",
        "AT 3CN",
        "Patox CF",
        "Triox Blanc",
        "KN",
        "KN (oxide)",
        "Patox K",
        "SB 203",
        "Antis W",
        "Patox MZ",
        "Antis N",
        "AO 112",
        "HT 105",
        "Garoflam SB 96DINP",
        "SBO-G",
        "FCP-AT 3CN",
        "S 05N",
        "LO 112",
        "NT 3H",
        "FCP-AT 3",
        "PATOX-MF",
        "Selectipur 7835",
        "Patox SUF",
        "Fire Cut AT 3CN",
        "Sb-S",
        "Timonox Red Star TMS",
        "GMA",
        "FT 2001M",
        "AT 3CNLP",
        "PE-FR 80",
        "Sb 203-99.90",
        "H 1910",
        "Valentioxy",
        "MSW",
        "Antiox PBT 262415",
        "Microfine AO 9",
        "Amspec SP",
        "Amspec Select",
        "Red Star",
        "PetCat R 9",
        "Twinkling Star",
        "H 1010",
        "Patox",
        "YP 00040",
        "Hiromaster C 605",
        "Brightsun HB",
        "Triox",
        "S 12N",
        "Patox KF",
        "TH 1",
        "FR 5099",
        "GX 2005",
        "Addiflam SL-A 3",
        "TH 1 (oxide)",
        "AT 3CT",
        "Patx-M",
        "Brightsun HB 500",
        "NAN 0200",
        "Campine Z",
        "Patox KN",
        "Fire Cut TOP 5",
        "Akrosperse E 29072",
        "AN 602",
        "Campine PA 261717",
        "Saficire Triox",
        "Nonnen KN-W",
        "Nonnen SM 4",
        "Fire Cut AT 3TL(HB)",
        "KAT 999",
        "FCP 300",
        "Nano 200",
        "KS 08",
        "Sicabatch 402001",
        "AT 3TL",
        "S 04N",
        "Campine MT",
        "Fire Cut WP 2",
        "Hiromaster L 200",
        "Patox CZ",
        "WSC-S",
        "FR-LS 30",
        "NMT AAA",
        "RA 8547",
        "TF 1V",
        "SB 0015"
    ],
    "replacedRns": [
        "10042-99-6",
        "12423-58-4",
        "97048-22-1",
        "97048-23-2",
        "154396-41-5",
        "178989-93-0",
        "212793-41-4",
        "2144402-92-4",
        "2379521-11-4"
    ],
    "hasMolfile": false,
    "source": "https://commonchemistry.cas.org/detail?cas_rn=1309-64-4"
}