{
    "cas_no": "19398-47-1",
    "key_name": "1,4-Dibromo-2-butanol",
    "cn_name": "1,4-二溴-2-丁醇;",
    "alternate_name": "2-Butanol, 1,4-dibromo-;1,4-Dibromo-2-butanol;2-Hydroxy-1,4-dibromobutane;ω,ω′-Dibromobutan-2-ol;NSC 84192",
    "duplicated_cas_no": "68295-81-8",
    "SMILES": "C(CCBr)(CBr)O",
    "meta_data": {
        "InChI": "InChI=1S/C4H8Br2O/c5-2-1-4(7)3-6/h4,7H,1-3H2",
        "InChIKey": null,
        "Canonical SMILES": "BrCCC(O)CBr",
        "Molecular Formula": "C<sub>4</sub>H<sub>8</sub>Br<sub>2</sub>O",
        "Molecular Mass": "231.91",
        "Boiling Point": "114-115 °C @ Press: 13 Torr",
        "Density": "1.96 g/cm³ @ Temp: 20 °C"
    }
}