{
    "cas_no": "54149-17-6",
    "key_name": "1-Bromo-2-(2-methoxyethoxy)ethane",
    "cn_name": "1-溴-2-(2-甲氧基乙氧基)乙烷;",
    "alternate_name": "Ethane, 1-(2-bromoethoxy)-2-methoxy-;1-(2-Bromoethoxy)-2-methoxyethane;2-(2-Methoxyethoxy)ethyl bromide;2-Bromoethyl 2-methoxyethyl ether;1-Bromo-3,6-dioxaheptane;1-Bromo-2-(2-methoxyethoxy)ethane;7-Bromo-2,5-dioxaheptane;1-Bromo-2-[1-[2-(methyloxy)ethyl]oxy]ethane;1-Bromo-2-[[2-(methyloxy)ethyl]oxy]ethane;2-(2′-Methoxyethoxy)ethyl bromide",
    "duplicated_cas_no": "",
    "SMILES": "C(OCCBr)COC",
    "meta_data": {
        "InChI": "InChI=1S/C5H11BrO2/c1-7-4-5-8-3-2-6/h2-5H2,1H3",
        "InChIKey": null,
        "Canonical SMILES": "BrCCOCCOC",
        "Molecular Formula": "C<sub>5</sub>H<sub>11</sub>BrO<sub>2</sub>",
        "Molecular Mass": "183.04",
        "Boiling Point": "90-95 °C @ Press: 27 Torr"
    }
}