{
    "cas_no": "10519-87-6",
    "key_name": "Diethenyldimethylsilane",
    "cn_name": "二甲基二乙烯基硅烷;二乙烯基二甲基硅烷;",
    "alternate_name": "Silane, diethenyldimethyl-;Silane, dimethyldivinyl-;Diethenyldimethylsilane;Dimethyldivinylsilane;Divinyldimethylsilane",
    "duplicated_cas_no": "",
    "SMILES": "[Si](C=C)(C=C)(C)C",
    "meta_data": {
        "InChI": "InChI=1S/C6H12Si/c1-5-7(3,4)6-2/h5-6H,1-2H2,3-4H3",
        "InChIKey": null,
        "Canonical SMILES": "C=C[Si](C=C)(C)C",
        "Molecular Formula": "C<sub>6</sub>H<sub>12</sub>Si",
        "Molecular Mass": "112.25",
        "Boiling Point": "82 °C",
        "Melting Point": "79-82 °C",
        "Density": "0.733 g/cm³"
    }
}