{
    "cas_no": "484-33-3",
    "key_name": "Pongamol",
    "cn_name": "水黄皮籽素;水黄皮籽素;",
    "alternate_name": "1,3-Propanedione, 1-(4-methoxy-5-benzofuranyl)-3-phenyl-;1-(4-Methoxy-5-benzofuranyl)-3-phenyl-1,3-propanedione;Pongamol;Lanceolatin C",
    "duplicated_cas_no": "",
    "SMILES": "O(C)C1=C2C(=CC=C1C(CC(=O)C3=CC=CC=C3)=O)OC=C2",
    "meta_data": {
        "InChI": "InChI=1S/C18H14O4/c1-21-18-13(7-8-17-14(18)9-10-22-17)16(20)11-15(19)12-5-3-2-4-6-12/h2-10H,11H2,1H3",
        "InChIKey": null,
        "Canonical SMILES": "O=C(C=1C=CC=CC1)CC(=O)C2=CC=C3OC=CC3=C2OC",
        "Molecular Formula": "C<sub>18</sub>H<sub>14</sub>O<sub>4</sub>",
        "Molecular Mass": "294.30",
        "Melting Point": "130-132 °C"
    }
}