{
    "cas_no": "3512-17-2",
    "key_name": "2,4,6-Trifluoropyridine",
    "cn_name": "2,4,6-三氟吡啶;",
    "alternate_name": "Pyridine, 2,4,6-trifluoro-;2,4,6-Trifluoropyridine",
    "duplicated_cas_no": "",
    "SMILES": "FC=1C=C(F)N=C(F)C1",
    "meta_data": {
        "InChI": "InChI=1S/C5H2F3N/c6-3-1-4(7)9-5(8)2-3/h1-2H",
        "InChIKey": null,
        "Canonical SMILES": "FC=1N=C(F)C=C(F)C1",
        "Molecular Formula": "C<sub>5</sub>H<sub>2</sub>F<sub>3</sub>N",
        "Molecular Mass": "133.07",
        "Boiling Point": "94.5 °C",
        "Density": "1.383 g/cm³"
    }
}