{
    "cas_no": "3082-64-2",
    "key_name": "(+)-1-Phenylpropylamine",
    "cn_name": "(R)-(+)-1-苯丙胺;R(+)-alpha-乙基苄胺;",
    "alternate_name": "Benzenemethanamine, α-ethyl-, (α<em>R</em>)-;Benzylamine, α-ethyl-, (<em>R</em>)-(+)-;Benzenemethanamine, α-ethyl-, (<em>R</em>)-;Benzylamine, α-ethyl-, <em>d</em>-;(α<em>R</em>)-α-Ethylbenzenemethanamine;(+)-α-Phenylpropylamine;(<em>R</em>)-(+)-α-Phenyl-1-propylamine;(+)-1-Ethylbenzylamine;(<em>R</em>)-(+)-1-Phenyl-1-propylamine;(+)-1-Phenylpropylamine;(<em>R</em>)-α-Phenylpropylamine;(<em>R</em>)-1-Phenylpropylamine;(<em>R</em>)-α-Ethylbenzylamine;(<em>R</em>)-(+)-1-Phenylpropylamine;(1<em>R</em>)-1-Phenylpropylamine;(<em>R</em>)-1-Phenyl-1-propanamine;(+)-((<em>R</em>)-1-Phenylpropyl)amine;(1<em>R</em>)-1-Phenylpropan-1-amine;(R)-(+)-α-Ethylbenzylamine;(R)-1-Phenylpropanamine;(R)-1-Phenylpropan-1-amine;(R)-α-Ethylbenzylamine;(1R)-1-Phenylpropan-1-amine",
    "duplicated_cas_no": "",
    "SMILES": "[C@H](CC)(N)C1=CC=CC=C1",
    "meta_data": {
        "InChI": "InChI=1S/C9H13N/c1-2-9(10)8-6-4-3-5-7-8/h3-7,9H,2,10H2,1H3/t9-/m1/s1",
        "InChIKey": null,
        "Canonical SMILES": "NC(C=1C=CC=CC1)CC",
        "Molecular Formula": "C<sub>9</sub>H<sub>13</sub>N",
        "Molecular Mass": "135.21",
        "Boiling Point": "100 °C @ Press: 10 Torr"
    }
}