{
    "uri": "substance/pt/61790532",
    "rn": "61790-53-2",
    "name": "Diatomite",
    "images": [],
    "inchi": "",
    "inchiKey": "",
    "smile": "",
    "canonicalSmile": "",
    "molecularFormula": "Unspecified",
    "molecularMass": "",
    "experimentalProperties": [
        {
            "name": "Boiling Point",
            "property": "2200 °C",
            "sourceNumber": 1
        },
        {
            "name": "Melting Point",
            "property": "1710 °C",
            "sourceNumber": 1
        },
        {
            "name": "Density",
            "property": "2.3 g/cm³",
            "sourceNumber": 1
        }
    ],
    "propertyCitations": [
        {
            "docUri": "",
            "sourceNumber": 1,
            "source": "International Chemical Safety Cards data were obtained from the National Institute for Occupational Safety and Health (US)"
        }
    ],
    "synonyms": [
        "Diatomite",
        "Kieselguhr",
        "Sedimentary rocks, diatomaceous",
        "Celite",
        "Celite 545",
        "Snow-floss Celite",
        "Chromosorb G",
        "Sterchamol",
        "Chromosorb WAW",
        "Chromosorb P 60/80",
        "Chromosorb P",
        "Chromosorb P-NAW",
        "Chromaton N",
        "Chromaton N-AW",
        "Diatomaceous earth",
        "Celite (diatomaceous earth)",
        "Infusorial earth",
        "Tripolite",
        "Celatom",
        "Celite White Mist",
        "Chromosorb W",
        "Dicalite",
        "Dicalite PS",
        "Aquafil N 81",
        "Gloxil White",
        "Hyflo DC",
        "Polsorb C",
        "Radiolite 200",
        "Radiolite L 2",
        "Spherochrom 1",
        "Dicalite White",
        "Sil-O-Cel",
        "Chromaton",
        "Chromatron N Super",
        "Hyflo Celite",
        "Clarcel Celite",
        "Radiolite 600",
        "Radiolite F",
        "Snow Floss",
        "Clin-elut",
        "Spherochrome 1",
        "Diafol",
        "Kenite 200",
        "Kenite 700",
        "Celite Hyflo Super Cel",
        "Celite R 626",
        "DAN 1400",
        "Kenite 2000",
        "Hyflo Super-Cel",
        "Celite FC",
        "Celite HST",
        "Celite 292",
        "Uniport B",
        "Macrosorb K",
        "Kunilit B 106",
        "Celite 266",
        "Celite 273",
        "Porokhrom 1",
        "Tsvetokhrom 1K",
        "Armsorb GKhI",
        "Dicalite 104",
        "VX 31007 Super Floss",
        "Silica 6B",
        "Celite Superfloss",
        "Dicalite 478",
        "Celite 577",
        "Celite R 680",
        "Diatom 135C",
        "Clarcel S 1",
        "Radiolite 500S",
        "Radiolite 800S",
        "Celite 534",
        "Kunilit KSS 5000",
        "Insecto",
        "Zeoharb",
        "Standard SuperCel",
        "Superfine Superfloss",
        "Toalite",
        "Radiolite SPF",
        "Celite 499",
        "Calofrig FJ",
        "Radiolite PC 1",
        "Celite R 649",
        "Celite R 654",
        "Chromosorb W-NAW",
        "Celite 209",
        "Celite R 685",
        "Radiolite 900",
        "Radiolite 100",
        "Radiolite GC",
        "Chromosorb P-AW",
        "Celite R 635",
        "Decalite 4500",
        "Celite 315",
        "Radiolite Microfine",
        "MicroKen 801",
        "Manville 545",
        "Celite 521",
        "Eagle Picher FW 60",
        "FW 60",
        "Dicalite WB 5",
        "Radiolite 500",
        "Isolite CP-F",
        "Diatomaceous sedimentary rocks",
        "SD 1164",
        "Extube Chem-Elut CE 1020",
        "Chromosorb G/NAW",
        "Celite 240",
        "Chromosorb P 100/120",
        "Diamol GM",
        "Dicalite 215",
        "Prelite 4",
        "Celite 500",
        "Celite R 634",
        "Celite Standard Super Cell",
        "Radiolite 800",
        "Silverfrost",
        "Superfloss",
        "MG Poda Q",
        "Diafil 10",
        "Sigma DE",
        "Celite SF",
        "Celite 535",
        "Celite 22",
        "Celite 505",
        "Celite 560",
        "Kunilit 401",
        "DiaFil 525",
        "DiaFil 230",
        "Dicalite 4258S",
        "Celite 503",
        "Extrelut 13076",
        "Super-Cel",
        "Clarcel DIF-B",
        "PR 110",
        "PR 110A",
        "PR 110B",
        "PR 110C",
        "Gas Chrom R",
        "Fossil Shield",
        "Silico-Sec",
        "Radiolite 700",
        "Celite 522",
        "Silica 100F",
        "Super Celite L 748",
        "SFE Wetsupport",
        "K 10",
        "Celite Filter Cel",
        "K 10 (diatomaceous earth)",
        "Celite 507",
        "Celite 512",
        "Radiolite",
        "Celite 400P",
        "Isolite CG",
        "Fossil Shield FS 90",
        "Fossil Shield FS 95",
        "Celatom FW 60",
        "Celite 350",
        "Hyflo",
        "Protect-It",
        "Primisil 30A",
        "IGM-AA",
        "Celite Super Fine Super Floss",
        "DIF-N",
        "DIF-R",
        "Celite HSC",
        "Celpure 3000",
        "Protect-It (diatomaceous earth)",
        "Radiolite 3000",
        "Celatom MW 27",
        "Hydromatrix",
        "Oplite W 3005S",
        "Perma-Guard",
        "Clarcel CBL",
        "Clarcel CBL 3",
        "Clarcel CBR",
        "Clarcel CBR 3",
        "K 301",
        "Diatom DIF-BO",
        "Clarcel DIF-N",
        "Lunamos SP-PA",
        "Celabrite",
        "Celabloc",
        "Dicalite WF",
        "Celite Snow Floss",
        "Celatom MN 23",
        "Celpure P 1000",
        "Celpure P 65",
        "Celite Hyflo SuperCel DE",
        "Celite Standard SuperCel DE",
        "Radiolite Fineflow A",
        "Celpure P 300",
        "Celpure P 100",
        "Celatom FW 12",
        "Celatom FW 6",
        "Celatom FP 4",
        "Celatom FW 14",
        "Celatom FW 20",
        "Celatom FW 50",
        "Celatom FP 22",
        "Celatom FP-ISL",
        "Celite 455",
        "Silica 100S",
        "Celite 263",
        "Celite 110",
        "Pyrisec",
        "Diamol DI",
        "AG-JXE",
        "AG-WXI",
        "Dicalite 6000",
        "Radiolite 300",
        "Dicalite White Filler",
        "Silica 100F-A",
        "DiaFil 530",
        "Celite R 646",
        "Uniport HP",
        "FP 3",
        "FN 1",
        "Celatom FW 80",
        "FW 14",
        "LCS 3",
        "Celite 270",
        "Diafil 460",
        "Celite 400TC",
        "Marinex",
        "Isolute HM-N",
        "Celite 263LD",
        "OcraTox",
        "CelTix",
        "Extrelut",
        "Extrelut 3",
        "Extrelut NT",
        "EXtrelut NT 3",
        "Celatom LCS 3",
        "WB 6",
        "ST-C 219",
        "Celite 281SSN",
        "Celite C 350",
        "Dicalite WB 6",
        "Becogur 100",
        "Celite 400D",
        "RC 417",
        "Celite 281SS",
        "CD 02",
        "CD 05",
        "Celite 650",
        "Randannite",
        "EP 804",
        "Dicalite Speedex",
        "DiaFil 110",
        "Celite 545AW",
        "Radiolite 2000",
        "Celite 500 fine",
        "Gemlite M",
        "Gemlite Super 56",
        "Celite 495",
        "Silica 645",
        "Celite Cynergy",
        "Celatom MN 51",
        "CelTiX T",
        "545RV",
        "ST-C 499",
        "CG 2",
        "Oplite P 1200",
        "CY 300",
        "CG 2 (diatomite)",
        "Paint Master",
        "C 499",
        "Radiolite 1000",
        "TP 750",
        "Aktisil PF 77",
        "C 400",
        "Celatom MN 84",
        "Celite R 633",
        "Celite R 632",
        "Celite R 647",
        "Celpure 300",
        "SD 0309",
        "Celite MW 25",
        "MGZ 7000",
        "Celpure S 65",
        "Celpure S 25",
        "Celpure C 1000",
        "Celite 530",
        "Aqua Nature Plus",
        "AdiDetox",
        "Celabrite EP 910",
        "Celtix DE",
        "CY 499",
        "Radiolite 1500",
        "CD 10",
        "CD 09",
        "CD 08",
        "Celite 610",
        "Sillitin N 86",
        "GW 9",
        "X 159",
        "CD 04",
        "N 85",
        "MW 27",
        "Kieselgurs",
        "Kieselguhrs",
        "Celite 503RV",
        "Infilm 300",
        "GW 80",
        "RS 1280",
        "Paya",
        "Primisil A 6",
        "Gemlite Super M",
        "GW 85",
        "TZ 030",
        "TZ 200",
        "TZ 325",
        "TZ 525",
        "TZ 825",
        "Celite 499SP",
        "JH 80",
        "Radiolite 1500H",
        "DE-CD 05",
        "HC 101",
        "DZ 800",
        "Celite 400LC",
        "KHM 800",
        "Yuantong TL 302",
        "TL 302",
        "P 88",
        "P 88 (diatomaceous earth)",
        "SD 303",
        "XX 203",
        "DiaFil 540",
        "RS 400",
        "JPBS 2",
        "ImerCare 400D",
        "Clarcel 78",
        "Celatom MN 4X",
        "LH 880",
        "JSY 660",
        "LZ 11",
        "Randanite",
        "Tripoli (diatomite)",
        "Tripoli",
        "CG 2U",
        "SD 301 (diatomaceous earth)",
        "SD 301",
        "SD 3004",
        "AG 700 (diatomaceous earth)",
        "AG 700",
        "AG 3000",
        "KFD 8",
        "CD 03",
        "DY 5T",
        "SD 307",
        "K 131661",
        "Y-G 500",
        "CD 050",
        "W 3005K",
        "Oplite W 3005K",
        "Hyflo SC",
        "Celite 490",
        "RS 1300",
        "Damolex C",
        "Celpure S 300",
        "SD 803",
        "K 287",
        "600EST",
        "XC-GZHB 2",
        "G 40PCD050",
        "Diafil 615",
        "NDP-D 400",
        "X 255"
    ],
    "replacedRns": [
        "11139-66-5",
        "12623-98-2",
        "12750-99-1",
        "29847-98-1",
        "37264-95-2",
        "37328-66-8",
        "37337-67-0",
        "39421-62-0",
        "39455-02-2",
        "50814-24-9",
        "51109-72-9",
        "53571-43-0",
        "54511-18-1",
        "54990-61-3",
        "54990-62-4",
        "55839-10-6",
        "56748-40-4",
        "57126-63-3",
        "57692-84-9",
        "61970-41-0",
        "64060-29-3",
        "67016-73-3",
        "67417-47-4",
        "68368-75-2",
        "68445-07-8",
        "70225-81-9",
        "73158-38-0",
        "77108-41-9",
        "81988-94-5",
        "179530-11-1",
        "192230-56-1",
        "476646-87-4",
        "693252-59-4",
        "695179-75-0"
    ],
    "hasMolfile": false,
    "source": "https://commonchemistry.cas.org/detail?cas_rn=61790-53-2"
}