{
    "cas_no": "68550-75-4",
    "key_name": "Cilostamide",
    "cn_name": "西洛他胺;",
    "alternate_name": "Butanamide, <em>N</em>-cyclohexyl-4-[(1,2-dihydro-2-oxo-6-quinolinyl)oxy]-<em>N</em>-methyl-;<em>N</em>-Cyclohexyl-4-[(1,2-dihydro-2-oxo-6-quinolinyl)oxy]-<em>N</em>-methylbutanamide;Cilostamide;OPC 3689",
    "duplicated_cas_no": "",
    "SMILES": "O(CCCC(N(C)C1CCCCC1)=O)C=2C=C3C(=CC2)NC(=O)C=C3",
    "meta_data": {
        "InChI": "InChI=1S/C20H26N2O3/c1-22(16-6-3-2-4-7-16)20(24)8-5-13-25-17-10-11-18-15(14-17)9-12-19(23)21-18/h9-12,14,16H,2-8,13H2,1H3,(H,21,23)",
        "InChIKey": null,
        "Canonical SMILES": "O=C1C=CC=2C=C(OCCCC(=O)N(C)C3CCCCC3)C=CC2N1",
        "Molecular Formula": "C<sub>20</sub>H<sub>26</sub>N<sub>2</sub>O<sub>3</sub>",
        "Molecular Mass": "342.43",
        "Melting Point": "186-188 °C"
    }
}