{
    "cas_no": "16308-92-2",
    "key_name": "2,4-Dimethylbenzyl alcohol",
    "cn_name": "2,4-二甲基苯甲醇;",
    "alternate_name": "Benzenemethanol, 2,4-dimethyl-;Benzyl alcohol, 2,4-dimethyl-;2,4-Dimethylbenzenemethanol;2,4-Dimethylbenzyl alcohol;(2,4-Dimethylphenyl)methanol",
    "duplicated_cas_no": "",
    "SMILES": "C(O)C1=C(C)C=C(C)C=C1",
    "meta_data": {
        "InChI": "InChI=1S/C9H12O/c1-7-3-4-9(6-10)8(2)5-7/h3-5,10H,6H2,1-2H3",
        "InChIKey": null,
        "Canonical SMILES": "OCC1=CC=C(C=C1C)C",
        "Molecular Formula": "C<sub>9</sub>H<sub>12</sub>O",
        "Molecular Mass": "136.19",
        "Boiling Point": "232 °C",
        "Melting Point": "22 °C"
    }
}