{
    "cas_no": "1074-82-4",
    "key_name": "Potassium phthalimide",
    "cn_name": "酞酰亚胺钾;",
    "alternate_name": "1<em>H</em>-Isoindole-1,3(2<em>H</em>)-dione, potassium salt (1:1);Phthalimide, potassium salt;1<em>H</em>-Isoindole-1,3(2<em>H</em>)-dione, potassium salt;Potassium, phthalimido-;Phthalimide, potassium deriv.;Potassium phthalimide;<em>N</em>-Potassiophthalimide;Potassium phthalimidate;Phthalimidopotassium;Phthalimide potassium;Potassium isoindoline-1,3-dione;Isoindole-1,3-dione potassium salt;Potassium 2,3-dihydro-1<em>H</em>-isoindole-1,3-dione;Potassium 1,3-dioxoisoindolin-2-ide;1<em>H</em>-Isoindole-1,3(2<em>H</em>)-dione, potassium salt, ion(1-) (1:1)",
    "duplicated_cas_no": "92014-68-1;1239707-97-1;1445950-63-9;1687743-72-1;1962933-27-2;2454020-25-6;2763334-10-5",
    "SMILES": "O=C1C=2C(C(=O)N1)=CC=CC2.[K]",
    "meta_data": {
        "InChI": "InChI=1S/C8H5NO2.K/c10-7-5-3-1-2-4-6(5)8(11)9-7;/h1-4H,(H,9,10,11);",
        "InChIKey": null,
        "Canonical SMILES": "[K].O=C1NC(=O)C=2C=CC=CC12",
        "Molecular Formula": "C<sub>8</sub>H<sub>5</sub>NO<sub>2</sub>.K",
        "Molecular Mass": "",
        "Melting Point": "&gt;250 °C"
    }
}