{
    "cas_no": "13794-15-5",
    "key_name": "2-(4-Methoxyphenoxy)propionic acid",
    "cn_name": null,
    "alternate_name": "Propanoic acid, 2-(4-methoxyphenoxy)-;Propionic acid, 2-(<em>p</em>-methoxyphenoxy)-;2-(4-Methoxyphenoxy)propanoic acid;Lactisol;2-(4-Methoxyphenoxy)propionic acid;NSC 352144;2-(<em>p</em>-Methoxyphenoxy)propionic acid",
    "duplicated_cas_no": "4276-73-7",
    "SMILES": "O(C(C(O)=O)C)C1=CC=C(OC)C=C1",
    "meta_data": {
        "InChI": "InChI=1S/C10H12O4/c1-7(10(11)12)14-9-5-3-8(13-2)4-6-9/h3-7H,1-2H3,(H,11,12)",
        "InChIKey": null,
        "Canonical SMILES": "O=C(O)C(OC1=CC=C(OC)C=C1)C",
        "Molecular Formula": "C<sub>10</sub>H<sub>12</sub>O<sub>4</sub>",
        "Molecular Mass": "196.20",
        "Boiling Point": "173-175 °C @ Press: 1 Torr",
        "Melting Point": "90 °C"
    }
}