{
    "cas_no": "6283-24-5",
    "key_name": "<em>p</em>-Aminophenylmercuric acetate",
    "cn_name": "乙酸-4-氨基苯汞;对氨基苯汞乙酸盐；乙酸对氨基苯汞；4-乙酸汞基苯胺;",
    "alternate_name": "Mercury, (acetato-κ<em>O</em>)(4-aminophenyl)-;Mercury, (acetato)(<em>p</em>-aminophenyl)-;Mercury, (acetato-<em>O</em>)(4-aminophenyl)-;Aniline, <em>p</em>-(acetoxymercuri)-;(Acetato-κ<em>O</em>)(4-aminophenyl)mercury;<em>p</em>-(Acetoxymercuri)aniline;<em>p</em>-Aminophenylmercury acetate;<em>p</em>-Aminophenylmercuric acetate;<em>p</em>-Aminophenylmercuriacetate;(4-Aminophenyl)mercuric acetate;NSC 7927",
    "duplicated_cas_no": "",
    "SMILES": "[Hg](OC(C)=O)C1=CC=C(N)C=C1",
    "meta_data": {
        "InChI": "InChI=1S/C6H6N.C2H4O2.Hg/c7-6-4-2-1-3-5-6;1-2(3)4;/h2-5H,7H2;1H3,(H,3,4);/q;;+1/p-1",
        "InChIKey": null,
        "Canonical SMILES": "O=C(O[Hg]C1=CC=C(N)C=C1)C",
        "Molecular Formula": "C<sub>8</sub>H<sub>9</sub>HgNO<sub>2</sub>",
        "Molecular Mass": "",
        "Melting Point": "168-169 °C"
    }
}