{
    "cas_no": "3056-33-5",
    "key_name": "2,9-Diacetylguanine",
    "cn_name": "N,9-二乙酰鸟嘌呤;N2,9-二乙酰鸟嘌呤;",
    "alternate_name": "Acetamide, <em>N</em>-(9-acetyl-6,9-dihydro-6-oxo-1<em>H</em>-purin-2-yl)-;Guanine, <em>N</em>,9-diacetyl-;<em>N</em>-(9-Acetyl-6,9-dihydro-6-oxo-1<em>H</em>-purin-2-yl)acetamide;2,9-Diacetylguanine;<em>N</em><sup>2</sup>,9-Diacetylguanine;<em>N</em>2,<em>N</em>9-Diacetylguanine",
    "duplicated_cas_no": "",
    "SMILES": "C(C)(=O)N1C2=C(C(=O)N=C(NC(C)=O)N2)N=C1",
    "meta_data": {
        "InChI": "InChI=1S/C9H9N5O3/c1-4(15)11-9-12-7-6(8(17)13-9)10-3-14(7)5(2)16/h3H,1-2H3,(H2,11,12,13,15,17)",
        "InChIKey": null,
        "Canonical SMILES": "O=C1N=C(NC(=O)C)NC2=C1N=CN2C(=O)C",
        "Molecular Formula": "C<sub>9</sub>H<sub>9</sub>N<sub>5</sub>O<sub>3</sub>",
        "Molecular Mass": "235.20",
        "Melting Point": "&gt;300 °C"
    }
}