{
    "cas_no": "1067-43-2",
    "key_name": "Silicic acid (H<sub>4</sub>SiO<sub>4</sub>) tetra-2-propen-1-yl ester",
    "cn_name": "硅酸四烯丙酯;",
    "alternate_name": "Silicic acid (H<sub>4</sub>SiO<sub>4</sub>), tetra-2-propen-1-yl ester;Silicic acid (H<sub>4</sub>SiO<sub>4</sub>), tetraallyl ester;Silicic acid (H<sub>4</sub>SiO<sub>4</sub>), tetra-2-propenyl ester;Allyl silicate ((C<sub>3</sub>H<sub>5</sub>O)<sub>4</sub>Si);Silicic acid (H<sub>4</sub>SiO<sub>4</sub>) tetra-2-propen-1-yl ester;Tetrakis(allyloxy)silane;Tetraallyloxysilane;NSC 89755",
    "duplicated_cas_no": "",
    "SMILES": "[Si](OCC=C)(OCC=C)(OCC=C)OCC=C",
    "meta_data": {
        "InChI": "InChI=1S/C12H20O4Si/c1-5-9-13-17(14-10-6-2,15-11-7-3)16-12-8-4/h5-8H,1-4,9-12H2",
        "InChIKey": null,
        "Canonical SMILES": "O(CC=C)[Si](OCC=C)(OCC=C)OCC=C",
        "Molecular Formula": "C<sub>12</sub>H<sub>20</sub>O<sub>4</sub>Si",
        "Molecular Mass": "256.37",
        "Boiling Point": "114-116 °C @ Press: 12 Torr",
        "Density": "0.982 g/cm³"
    }
}