{
    "cas_no": "35660-94-7",
    "key_name": "(2<em>E</em>)-2-Methyl-2-butenoyl chloride",
    "cn_name": "(E)-2,3-Dimethylacryloylchloride;",
    "alternate_name": "2-Butenoyl chloride, 2-methyl-, (2<em>E</em>)-;2-Butenoyl chloride, 2-methyl-, (<em>E</em>)-;Tigloyl chloride;(2<em>E</em>)-2-Methyl-2-butenoyl chloride;Tiglic acid chloride;(<em>E</em>)-2-Methyl-2-butenoyl chloride;<em>trans</em>-2-Methyl-2-butenoyl chloride;(<em>E</em>)-2-Methylbut-2-enoyl chloride",
    "duplicated_cas_no": "",
    "SMILES": "C(\\C(Cl)=O)(=C/C)/C",
    "meta_data": {
        "InChI": "InChI=1S/C5H7ClO/c1-3-4(2)5(6)7/h3H,1-2H3/b4-3+",
        "InChIKey": null,
        "Canonical SMILES": "O=C(Cl)C(=CC)C",
        "Molecular Formula": "C<sub>5</sub>H<sub>7</sub>ClO",
        "Molecular Mass": "118.56",
        "Boiling Point": "142-145 °C"
    }
}