{
    "cas_no": "16343-08-1",
    "key_name": "<em>B</em>-Hexylboronic acid",
    "cn_name": "正己基硼酸;",
    "alternate_name": "Boronic acid, <em>B</em>-hexyl-;1-Hexaneboronic acid;Boronic acid, hexyl-;<em>B</em>-Hexylboronic acid;Hexylboronic acid;NSC 518338",
    "duplicated_cas_no": "",
    "SMILES": "C(CB(O)O)CCCC",
    "meta_data": {
        "InChI": "InChI=1S/C6H15BO2/c1-2-3-4-5-6-7(8)9/h8-9H,2-6H2,1H3",
        "InChIKey": null,
        "Canonical SMILES": "OB(O)CCCCCC",
        "Molecular Formula": "C<sub>6</sub>H<sub>15</sub>BO<sub>2</sub>",
        "Molecular Mass": "129.99",
        "Melting Point": "88-90 °C"
    }
}