{
    "cas_no": "26538-44-3",
    "key_name": "Zeranol",
    "cn_name": "赤霉醇;2,4-二羟基-6-(6a,10-二羟基十一烷基)苯甲酸10-内酯;",
    "alternate_name": "1<em>H</em>-2-Benzoxacyclotetradecin-1-one, 3,4,5,6,7,8,9,10,11,12-decahydro-7,14,16-trihydroxy-3-methyl-, (3<em>S</em>,7<em>R</em>)-;Zearalanol;1<em>H</em>-2-Benzoxacyclotetradecin-1-one, 3,4,5,6,7,8,9,10,11,12-decahydro-7,14,16-trihydroxy-3-methyl-, [3<em>S</em>-(3<em>R</em>*,7<em>S</em>*)]-;1<em>H</em>-2-Benzoxacyclotetradecin-1-one, 3,4,5,6,7,8,9,10,11,12-decahydro-7,14,16-trihydroxy-3-methyl-, (3<em>S</em>,7<em>R</em>)-(+)-;(3<em>S</em>,7<em>R</em>)-3,4,5,6,7,8,9,10,11,12-Decahydro-7,14,16-trihydroxy-3-methyl-1<em>H</em>-2-benzoxacyclotetradecin-1-one;Zeranol;Ralgro;6-(6,10-Dihydroxyundecyl)-β-resorcylic acid-μ-lactone;P 1496;MK 188;Frideron;Ralone;α-Zearalanol;Zearanol;Ralabol;α-Zeranol;(-)-α-Zearalanol;MeSH ID: D015029",
    "duplicated_cas_no": "5975-81-5;21307-30-2;24507-00-4;39487-91-7;40036-43-9",
    "SMILES": "OC1=C2C(=CC(O)=C1)CCCCC[C@@H](O)CCC[C@H](C)OC2=O",
    "meta_data": {
        "InChI": "InChI=1S/C18H26O5/c1-12-6-5-9-14(19)8-4-2-3-7-13-10-15(20)11-16(21)17(13)18(22)23-12/h10-12,14,19-21H,2-9H2,1H3/t12-,14+/m0/s1",
        "InChIKey": null,
        "Canonical SMILES": "O=C1OC(C)CCCC(O)CCCCCC=2C=C(O)C=C(O)C12",
        "Molecular Formula": "C<sub>18</sub>H<sub>26</sub>O<sub>5</sub>",
        "Molecular Mass": "322.40",
        "Melting Point": "146-148 °C"
    }
}