{
    "cas_no": "211914-51-1",
    "key_name": "Dabigatran",
    "cn_name": null,
    "alternate_name": "β-Alanine, <em>N</em>-[[2-[[[4-(aminoiminomethyl)phenyl]amino]methyl]-1-methyl-1<em>H</em>-benzimidazol-5-yl]carbonyl]-<em>N</em>-2-pyridinyl-;<em>N</em>-[[2-[[[4-(Aminoiminomethyl)phenyl]amino]methyl]-1-methyl-1<em>H</em>-benzimidazol-5-yl]carbonyl]-<em>N</em>-2-pyridinyl-β-alanine;Dabigatran;BIBR 953;BIBR 953ZW",
    "duplicated_cas_no": "",
    "SMILES": "CN1C=2C(=CC(C(N(CCC(O)=O)C3=CC=CC=N3)=O)=CC2)N=C1CNC4=CC=C(C(=N)N)C=C4",
    "meta_data": {
        "InChI": "InChI=1S/C25H25N7O3/c1-31-20-10-7-17(25(35)32(13-11-23(33)34)21-4-2-3-12-28-21)14-19(20)30-22(31)15-29-18-8-5-16(6-9-18)24(26)27/h2-10,12,14,29H,11,13,15H2,1H3,(H3,26,27)(H,33,34)",
        "InChIKey": null,
        "Canonical SMILES": "O=C(O)CCN(C(=O)C=1C=CC2=C(N=C(N2C)CNC3=CC=C(C=C3)C(=N)N)C1)C4=NC=CC=C4",
        "Molecular Formula": "C<sub>25</sub>H<sub>25</sub>N<sub>7</sub>O<sub>3</sub>",
        "Molecular Mass": "471.51",
        "Melting Point": "276-277 °C"
    }
}