{
    "cas_no": "4169-04-4",
    "key_name": "2-Phenoxy-1-propanol",
    "cn_name": "2-苯氧基-1-丙醇;",
    "alternate_name": "1-Propanol, 2-phenoxy-;2-Phenoxy-1-propanol;2-Phenoxypropanol;2-Phenoxypropyl alcohol",
    "duplicated_cas_no": "38600-05-4;157967-88-9",
    "SMILES": "O(C(CO)C)C1=CC=CC=C1",
    "meta_data": {
        "InChI": "InChI=1S/C9H12O2/c1-8(7-10)11-9-5-3-2-4-6-9/h2-6,8,10H,7H2,1H3",
        "InChIKey": null,
        "Canonical SMILES": "OCC(OC=1C=CC=CC1)C",
        "Molecular Formula": "C<sub>9</sub>H<sub>12</sub>O<sub>2</sub>",
        "Molecular Mass": "152.19",
        "Boiling Point": "244 °C"
    }
}