{
    "cas_no": "2463-77-6",
    "key_name": "2-Undecenal",
    "cn_name": null,
    "alternate_name": "2-Undecenal;3-Octylacrolein",
    "duplicated_cas_no": "",
    "SMILES": "C(CCC=CC=O)CCCCC",
    "meta_data": {
        "InChI": "InChI=1S/C11H20O/c1-2-3-4-5-6-7-8-9-10-11-12/h9-11H,2-8H2,1H3",
        "InChIKey": null,
        "Canonical SMILES": "O=CC=CCCCCCCCC",
        "Molecular Formula": "C<sub>11</sub>H<sub>20</sub>O",
        "Molecular Mass": "168.28",
        "Boiling Point": "115-117 °C @ Press: 10 Torr"
    }
}