{
    "cas_no": "76-05-1",
    "key_name": "Trifluoroacetic acid",
    "cn_name": "三氟乙酸;三氟醋酸;",
    "alternate_name": "Acetic acid, 2,2,2-trifluoro-;Acetic acid, trifluoro-;2,2,2-Trifluoroacetic acid;Trifluoroacetic acid;Perfluoroacetic acid;Trifluoroethanoic acid;TFA;NSC 77366;MeSH ID: D014269",
    "duplicated_cas_no": "",
    "SMILES": "C(C(O)=O)(F)(F)F",
    "meta_data": {
        "InChI": "InChI=1S/C2HF3O2/c3-2(4,5)1(6)7/h(H,6,7)",
        "InChIKey": null,
        "Canonical SMILES": "O=C(O)C(F)(F)F",
        "Molecular Formula": "C<sub>2</sub>HF<sub>3</sub>O<sub>2</sub>",
        "Molecular Mass": "114.02",
        "Boiling Point": "73 °C",
        "Melting Point": "-15.2 °C",
        "Density": "1.489 g/cm³ @ Temp: 20 °C"
    }
}