{
    "cas_no": "58-72-0",
    "key_name": "Triphenylethylene",
    "cn_name": "三苯乙烯;",
    "alternate_name": "Benzene, 1,1′,1′′-(1-ethenyl-2-ylidene)tris-;Ethylene, triphenyl-;1,1′,1′′-(1-Ethenyl-2-ylidene)tris[benzene];Triphenylethylene;Triphenylethene;1,1,2-Triphenylethylene;Benzilidenediphenylmethane;1,1,2-Triphenylethene;NSC 17535;Ethene-1,1,2-triyltribenzene;1,2-Diphenylethenylbenzene",
    "duplicated_cas_no": "",
    "SMILES": "C(=CC1=CC=CC=C1)(C2=CC=CC=C2)C3=CC=CC=C3",
    "meta_data": {
        "InChI": "InChI=1S/C20H16/c1-4-10-17(11-5-1)16-20(18-12-6-2-7-13-18)19-14-8-3-9-15-19/h1-16H",
        "InChIKey": null,
        "Canonical SMILES": "C=1C=CC(=CC1)C=C(C=2C=CC=CC2)C=3C=CC=CC3",
        "Molecular Formula": "C<sub>20</sub>H<sub>16</sub>",
        "Molecular Mass": "256.34",
        "Boiling Point": "200-218 °C @ Press: 13 Torr",
        "Melting Point": "72.5 °C",
        "Density": "1.0719 g/cm³ @ Temp: 25 °C"
    }
}