{
    "cas_no": "827-54-3",
    "key_name": "2-Vinylnaphthalene",
    "cn_name": "2-乙烯基萘;",
    "alternate_name": "Naphthalene, 2-ethenyl-;Naphthalene, 2-vinyl-;2-Ethenylnaphthalene;2-Vinylnaphthalene;β-Vinylnaphthalene;(2-Naphthyl)ethylene;(2-Naphthyl)ethene;(Naphthalen-2-yl)ethene",
    "duplicated_cas_no": "204906-46-7",
    "SMILES": "C(=C)C1=CC2=C(C=C1)C=CC=C2",
    "meta_data": {
        "InChI": "InChI=1S/C12H10/c1-2-10-7-8-11-5-3-4-6-12(11)9-10/h2-9H,1H2",
        "InChIKey": null,
        "Canonical SMILES": "C=CC=1C=CC=2C=CC=CC2C1",
        "Molecular Formula": "C<sub>12</sub>H<sub>10</sub>",
        "Molecular Mass": "154.21",
        "Boiling Point": "135-137 °C @ Press: 18 Torr",
        "Melting Point": "66 °C",
        "Density": "1.0485 g/cm³ @ Temp: 20 °C"
    }
}