{
    "cas_no": "2797-51-5",
    "key_name": "Quinoclamine",
    "cn_name": "灭藻醌;氨氯苯醌；萘醌杀；2-氨基-3-氯-1,4-萘醌;",
    "alternate_name": "1,4-Naphthalenedione, 2-amino-3-chloro-;1,4-Naphthoquinone, 2-amino-3-chloro-;2-Amino-3-chloro-1,4-naphthalenedione;06K;06K50W;2-Amino-3-chloro-1,4-naphthoquinone;2-Chloro-3-amino-1,4-naphthoquinone;06K-Quinone;ACNQ;2-Amino-3-chloronaphthoquinone;ACN;3-Chloro-2-amino-1,4-naphthoquinone;Mogeton;Quinoclamine;NSC 3910;NSC 642009;2-Amino-3-chloro-1,4-dihydronaphthalene-1,4-dione",
    "duplicated_cas_no": "",
    "SMILES": "O=C1C=2C(C(=O)C(N)=C1Cl)=CC=CC2",
    "meta_data": {
        "InChI": "InChI=1S/C10H6ClNO2/c11-7-8(12)10(14)6-4-2-1-3-5(6)9(7)13/h1-4H,12H2",
        "InChIKey": null,
        "Canonical SMILES": "O=C1C(Cl)=C(N)C(=O)C=2C=CC=CC12",
        "Molecular Formula": "C<sub>10</sub>H<sub>6</sub>ClNO<sub>2</sub>",
        "Molecular Mass": "207.61",
        "Melting Point": "199 °C"
    }
}