{
    "cas_no": "38521-51-6",
    "key_name": "Pentabromobenzyl bromide",
    "cn_name": "溴化2,3,4,5,6,-五溴苄酯;",
    "alternate_name": "Benzene, 1,2,3,4,5-pentabromo-6-(bromomethyl)-;Benzene, pentabromo(bromomethyl)-;1,2,3,4,5-Pentabromo-6-(bromomethyl)benzene;Pentabromobenzyl bromide;2,3,4,5,6-Pentabromobenzyl bromide;FR 706",
    "duplicated_cas_no": "",
    "SMILES": "C(Br)C1=C(Br)C(Br)=C(Br)C(Br)=C1Br",
    "meta_data": {
        "InChI": "InChI=1S/C7H2Br6/c8-1-2-3(9)5(11)7(13)6(12)4(2)10/h1H2",
        "InChIKey": null,
        "Canonical SMILES": "BrC=1C(Br)=C(Br)C(=C(Br)C1Br)CBr",
        "Molecular Formula": "C<sub>7</sub>H<sub>2</sub>Br<sub>6</sub>",
        "Molecular Mass": "565.51",
        "Melting Point": "170-171 °C"
    }
}