{
    "cas_no": "4819-77-6",
    "key_name": "1,1,2-Triethoxyethane",
    "cn_name": null,
    "alternate_name": "Ethane, 1,1,2-triethoxy-;Acetaldehyde, ethoxy-, diethyl acetal;1,1,2-Triethoxyethane;Ethoxyacetaldehyde diethyl acetal;1,2,2-Triethoxyethane;NSC 62041;2-Ethoxyacetaldehyde diethylacetal",
    "duplicated_cas_no": "",
    "SMILES": "C(COCC)(OCC)OCC",
    "meta_data": {
        "InChI": "InChI=1S/C8H18O3/c1-4-9-7-8(10-5-2)11-6-3/h8H,4-7H2,1-3H3",
        "InChIKey": null,
        "Canonical SMILES": "O(CC)CC(OCC)OCC",
        "Molecular Formula": "C<sub>8</sub>H<sub>18</sub>O<sub>3</sub>",
        "Molecular Mass": "162.23",
        "Boiling Point": "74 °C @ Press: 28 Torr",
        "Density": "0.885 g/cm³ @ Temp: 28 °C"
    }
}