{
    "cas_no": "5726-19-2",
    "key_name": "2-Methylcyclohexyl acetate",
    "cn_name": "2-甲基环己基醋酸酯;",
    "alternate_name": "Cyclohexanol, 2-methyl-, 1-acetate;Cyclohexanol, 2-methyl-, acetate;<em>o</em>-Methylcyclohexyl acetate;2-Methylcyclohexyl acetate;NSC 109144",
    "duplicated_cas_no": "",
    "SMILES": "O(C(C)=O)C1C(C)CCCC1",
    "meta_data": {
        "InChI": "InChI=1S/C9H16O2/c1-7-5-3-4-6-9(7)11-8(2)10/h7,9H,3-6H2,1-2H3",
        "InChIKey": null,
        "Canonical SMILES": "O=C(OC1CCCCC1C)C",
        "Molecular Formula": "C<sub>9</sub>H<sub>16</sub>O<sub>2</sub>",
        "Molecular Mass": "156.22",
        "Boiling Point": "176-178 °C @ Press: 760 Torr",
        "Density": "0.9370 g/cm³ @ Temp: 20 °C"
    }
}