{
    "cas_no": "1530-36-5",
    "key_name": "Phosphonium, [(2-methylphenyl)methyl]triphenyl-, bromide (1:1)",
    "cn_name": "(邻甲氧基)三苯基鏻溴化物;",
    "alternate_name": "Phosphonium, [(2-methylphenyl)methyl]triphenyl-, bromide (1:1);Phosphonium, (<em>o</em>-methylbenzyl)triphenyl-, bromide;Phosphonium, [(2-methylphenyl)methyl]triphenyl-, bromide;(<em>o</em>-Methylbenzyl)triphenylphosphonium bromide;[(2-Methylphenyl)methyl]triphenylphosphonium bromide;NSC 77140;(2-Methylbenzyl)triphenylphosphonium bromide",
    "duplicated_cas_no": "25914-27-6",
    "SMILES": "[P+](CC1=C(C)C=CC=C1)(C2=CC=CC=C2)(C3=CC=CC=C3)C4=CC=CC=C4.[Br-]",
    "meta_data": {
        "InChI": "InChI=1S/C26H24P.BrH/c1-22-13-11-12-14-23(22)21-27(24-15-5-2-6-16-24,25-17-7-3-8-18-25)26-19-9-4-10-20-26;/h2-20H,21H2,1H3;1H/q+1;/p-1",
        "InChIKey": null,
        "Canonical SMILES": "[Br-].C=1C=CC(=CC1)[P+](C=2C=CC=CC2)(C=3C=CC=CC3)CC=4C=CC=CC4C",
        "Molecular Formula": "C<sub>26</sub>H<sub>24</sub>P.Br",
        "Molecular Mass": "",
        "Melting Point": "253-255 °C"
    }
}