{
    "cas_no": "15474-63-2",
    "key_name": "Dysprosium iodide (DyI<sub>3</sub>)",
    "cn_name": "碘化镝(III),无水;无水碘化镝(III);碘化镝(III)无水;",
    "alternate_name": "Dysprosium iodide (DyI<sub>3</sub>);Dysprosium triiodide;Dysprosium iodide",
    "duplicated_cas_no": "",
    "SMILES": "[Dy](I)(I)I",
    "meta_data": {
        "InChI": "InChI=1S/Dy.3HI/h;3*1H/q+3;;;/p-3",
        "InChIKey": null,
        "Canonical SMILES": "I[Dy](I)I",
        "Molecular Formula": "DyI<sub>3</sub>",
        "Molecular Mass": "",
        "Melting Point": "955 °C"
    }
}