{
    "cas_no": "582-83-2",
    "key_name": "1-(4-Fluorophenyl)-1-butanone",
    "cn_name": null,
    "alternate_name": "1-Butanone, 1-(4-fluorophenyl)-;Butyrophenone, 4′-fluoro-;1-(4-Fluorophenyl)-1-butanone;<em>p</em>-Fluorobutyrophenone;4′-Fluorobutyrophenone;1-(4-Fluorophenyl)butan-1-one;(4-Fluorophenyl)-1-propylketone",
    "duplicated_cas_no": "",
    "SMILES": "C(CCC)(=O)C1=CC=C(F)C=C1",
    "meta_data": {
        "InChI": "InChI=1S/C10H11FO/c1-2-3-10(12)8-4-6-9(11)7-5-8/h4-7H,2-3H2,1H3",
        "InChIKey": null,
        "Canonical SMILES": "O=C(C1=CC=C(F)C=C1)CCC",
        "Molecular Formula": "C<sub>10</sub>H<sub>11</sub>FO",
        "Molecular Mass": "166.19",
        "Boiling Point": "230-232 °C",
        "Melting Point": "39 °C"
    }
}