{
    "cas_no": "7464-56-4",
    "key_name": "Allyl α-<span class=\"text-smallcaps\">D</span>-glucopyranoside",
    "cn_name": null,
    "alternate_name": "α-<span class=\"text-smallcaps\">D</span>-Glucopyranoside, 2-propen-1-yl;Glucopyranoside, allyl, α-<span class=\"text-smallcaps\">D</span>-;α-<span class=\"text-smallcaps\">D</span>-Glucopyranoside, 2-propenyl;2-Propen-1-yl α-<span class=\"text-smallcaps\">D</span>-glucopyranoside;Allyl α-<span class=\"text-smallcaps\">D</span>-glucopyranoside;NSC 404076;α-<span class=\"text-smallcaps\">D</span>-Glucose monoallyl ether",
    "duplicated_cas_no": "441775-39-9",
    "SMILES": "O(CC=C)[C@H]1O[C@H](CO)[C@@H](O)[C@H](O)[C@H]1O",
    "meta_data": {
        "InChI": "InChI=1S/C9H16O6/c1-2-3-14-9-8(13)7(12)6(11)5(4-10)15-9/h2,5-13H,1,3-4H2/t5-,6-,7+,8-,9+/m1/s1",
        "InChIKey": null,
        "Canonical SMILES": "OCC1OC(OCC=C)C(O)C(O)C1O",
        "Molecular Formula": "C<sub>9</sub>H<sub>16</sub>O<sub>6</sub>",
        "Molecular Mass": "220.22",
        "Melting Point": "100.5-101.5 °C"
    }
}