{
    "cas_no": "104040-78-0",
    "key_name": "Flazasulfuron",
    "cn_name": "啶嘧磺隆;1-(4,6-二甲氧基嘧啶-2-基)-3-(3-三氟甲基-2-吡啶磺酰)脲;",
    "alternate_name": "2-Pyridinesulfonamide, <em>N</em>-[[(4,6-dimethoxy-2-pyrimidinyl)amino]carbonyl]-3-(trifluoromethyl)-;<em>N</em>-[[(4,6-Dimethoxy-2-pyrimidinyl)amino]carbonyl]-3-(trifluoromethyl)-2-pyridinesulfonamide;SL 160;OK 1166;Shibagen;Flazasulfuron;Katana;Chikara;1-(4,6-Dimethoxypyrimidin-2-yl)-3-(3-trifluoromethyl-2-pyridylsulfonyl)urea;Shibagen DF",
    "duplicated_cas_no": "",
    "SMILES": "S(NC(NC=1N=C(OC)C=C(OC)N1)=O)(=O)(=O)C2=C(C(F)(F)F)C=CC=N2",
    "meta_data": {
        "InChI": "InChI=1S/C13H12F3N5O5S/c1-25-8-6-9(26-2)19-11(18-8)20-12(22)21-27(23,24)10-7(13(14,15)16)4-3-5-17-10/h3-6H,1-2H3,(H2,18,19,20,21,22)",
        "InChIKey": null,
        "Canonical SMILES": "O=C(NC=1N=C(OC)C=C(N1)OC)NS(=O)(=O)C2=NC=CC=C2C(F)(F)F",
        "Molecular Formula": "C<sub>13</sub>H<sub>12</sub>F<sub>3</sub>N<sub>5</sub>O<sub>5</sub>S",
        "Molecular Mass": "407.33",
        "Melting Point": "168 °C"
    }
}