{
    "cas_no": "109-21-7",
    "key_name": "Butyl butyrate",
    "cn_name": "丁酸丁酯;",
    "alternate_name": "Butanoic acid, butyl ester;Butyric acid, butyl ester;Butyl butanoate;Butyl butyrate;<em>n</em>-Butyl butyrate;<em>n</em>-Butyl <em>n</em>-butyrate;1-Butyl butyrate;Butyl butylate;<em>n</em>-Butyl butanoate;NSC 8458;Butyric acid <em>n</em>-butyl ester",
    "duplicated_cas_no": "",
    "SMILES": "O(C(CCC)=O)CCCC",
    "meta_data": {
        "InChI": "InChI=1S/C8H16O2/c1-3-5-7-10-8(9)6-4-2/h3-7H2,1-2H3",
        "InChIKey": null,
        "Canonical SMILES": "O=C(OCCCC)CCC",
        "Molecular Formula": "C<sub>8</sub>H<sub>16</sub>O<sub>2</sub>",
        "Molecular Mass": "144.21",
        "Boiling Point": "166 °C",
        "Melting Point": "-91.5 °C",
        "Density": "0.8711 g/cm³ @ Temp: 20 °C"
    }
}