{
    "cas_no": "306-98-9",
    "key_name": "Perfluoro-1,2-dimethylcyclohexane",
    "cn_name": "全氟-1,2-二甲基环己烷;全氟(1,2-二甲基环己胺);1,1,2,2,3,3,4,4,5,6-十氟代-5,6-双(三氟代甲基)环己烷;",
    "alternate_name": "Cyclohexane, 1,1,2,2,3,3,4,4,5,6-decafluoro-5,6-bis(trifluoromethyl)-;Cyclohexane, decafluoro-1,2-bis(trifluoromethyl)-;1,1,2,2,3,3,4,4,5,6-Decafluoro-5,6-bis(trifluoromethyl)cyclohexane;Perfluoro-1,2-dimethylcyclohexane",
    "duplicated_cas_no": "",
    "SMILES": "C(F)(F)(F)C1(F)C(C(F)(F)F)(F)C(F)(F)C(F)(F)C(F)(F)C1(F)F",
    "meta_data": {
        "InChI": "InChI=1S/C8F16/c9-1(7(19,20)21)2(10,8(22,23)24)4(13,14)6(17,18)5(15,16)3(1,11)12",
        "InChIKey": null,
        "Canonical SMILES": "FC(F)(F)C1(F)C(F)(F)C(F)(F)C(F)(F)C(F)(F)C1(F)C(F)(F)F",
        "Molecular Formula": "C<sub>8</sub>F<sub>16</sub>",
        "Molecular Mass": "400.06",
        "Boiling Point": "101.5 °C",
        "Melting Point": "-56 °C",
        "Density": "1.8672 g/cm³ @ Temp: 20 °C"
    }
}