{
    "cas_no": "33890-03-8",
    "key_name": "4-Amino-1,3-benzenedicarboxylic acid",
    "cn_name": null,
    "alternate_name": "1,3-Benzenedicarboxylic acid, 4-amino-;Isophthalic acid, 4-amino-;4-Amino-1,3-benzenedicarboxylic acid;4-Aminoisophthalic acid;4-Aminobenzene-1,3-dicarboxylic acid;5-Carboxyanthranilic acid;1-Amino-2,4-dicarboxy-benzene",
    "duplicated_cas_no": "",
    "SMILES": "C(O)(=O)C1=CC(C(O)=O)=CC=C1N",
    "meta_data": {
        "InChI": "InChI=1S/C8H7NO4/c9-6-2-1-4(7(10)11)3-5(6)8(12)13/h1-3H,9H2,(H,10,11)(H,12,13)",
        "InChIKey": null,
        "Canonical SMILES": "O=C(O)C1=CC=C(N)C(=C1)C(=O)O",
        "Molecular Formula": "C<sub>8</sub>H<sub>7</sub>NO<sub>4</sub>",
        "Molecular Mass": "181.15",
        "Melting Point": "336-337 °C (decomp)"
    }
}