{
    "cas_no": "71759-88-1",
    "key_name": "5-Iodo-1-methyl-1<em>H</em>-imidazole",
    "cn_name": null,
    "alternate_name": "1<em>H</em>-Imidazole, 5-iodo-1-methyl-;5-Iodo-1-methyl-1<em>H</em>-imidazole;5-Iodo-1-methylimidazole;1-Methyl-5-iodoimidazole",
    "duplicated_cas_no": "",
    "SMILES": "IC=1N(C)C=NC1",
    "meta_data": {
        "InChI": "InChI=1S/C4H5IN2/c1-7-3-6-2-4(7)5/h2-3H,1H3",
        "InChIKey": null,
        "Canonical SMILES": "IC1=CN=CN1C",
        "Molecular Formula": "C<sub>4</sub>H<sub>5</sub>IN<sub>2</sub>",
        "Molecular Mass": "208.00",
        "Melting Point": "106-107 °C"
    }
}