{
    "cas_no": "6382-93-0",
    "key_name": "<em>N</em>-Benzyloxycarbonyl-<span class=\"text-smallcaps\">D</span>-arginine",
    "cn_name": "N-α-羰基苯氧基-D-精氨酸;",
    "alternate_name": "<span class=\"text-smallcaps\">D</span>-Arginine, <em>N</em><sup>2</sup>-[(phenylmethoxy)carbonyl]-;Arginine, <em>N</em><sup>2</sup>-carboxy-, <em>N</em><sup>2</sup>-benzyl ester, <span class=\"text-smallcaps\">D</span>-;<em>N</em><sup>2</sup>-[(Phenylmethoxy)carbonyl]-<span class=\"text-smallcaps\">D</span>-arginine;<em>N</em>-Benzyloxycarbonyl-<span class=\"text-smallcaps\">D</span>-arginine;(2R)-5-(Diaminomethylideneamino)-2-(phenylmethoxycarbonylamino)pentanoic acid",
    "duplicated_cas_no": "",
    "SMILES": "C(OC(N[C@H](CCCNC(=N)N)C(O)=O)=O)C1=CC=CC=C1",
    "meta_data": {
        "InChI": "InChI=1S/C14H20N4O4/c15-13(16)17-8-4-7-11(12(19)20)18-14(21)22-9-10-5-2-1-3-6-10/h1-3,5-6,11H,4,7-9H2,(H,18,21)(H,19,20)(H4,15,16,17)/t11-/m1/s1",
        "InChIKey": null,
        "Canonical SMILES": "O=C(OCC=1C=CC=CC1)NC(C(=O)O)CCCNC(=N)N",
        "Molecular Formula": "C<sub>14</sub>H<sub>20</sub>N<sub>4</sub>O<sub>4</sub>",
        "Molecular Mass": "308.33",
        "Melting Point": "175 °C"
    }
}