{
    "cas_no": "92-94-4",
    "key_name": "<em>p</em>-Terphenyl",
    "cn_name": "对三联苯;二苯基苯;",
    "alternate_name": "1,1′:4′,1′′-Terphenyl;<em>p</em>-Terphenyl;<em>p</em>-Diphenylbenzene;Santowax P;<em>p</em>-Triphenyl;1,4-Diphenylbenzene;1,1′-Biphenyl, 4-phenyl-;PTP;4-Phenylbiphenyl;TP;TP (scintillator);PT;NSC 6810;4-Phenyl-1,1′-biphenyl;<em>p</em>-Phenylene trimer;T 3203;PPP",
    "duplicated_cas_no": "39453-47-9;75831-65-1;94363-13-0",
    "SMILES": "C1(=CC=C(C=C1)C2=CC=CC=C2)C3=CC=CC=C3",
    "meta_data": {
        "InChI": "InChI=1S/C18H14/c1-3-7-15(8-4-1)17-11-13-18(14-12-17)16-9-5-2-6-10-16/h1-14H",
        "InChIKey": null,
        "Canonical SMILES": "C=1C=CC(=CC1)C=2C=CC(=CC2)C=3C=CC=CC3",
        "Molecular Formula": "C<sub>18</sub>H<sub>14</sub>",
        "Molecular Mass": "230.30",
        "Boiling Point": "376 °C",
        "Melting Point": "210.1 °C",
        "Density": "1.234 g/cm³ @ Temp: 0 °C"
    }
}