{
    "cas_no": "617-68-5",
    "key_name": "Lysine, hydrochloride (1:2)",
    "cn_name": "DL-赖氨酸二盐酸盐;",
    "alternate_name": "Lysine, hydrochloride (1:2);Lysine, dihydrochloride, <span class=\"text-smallcaps\">DL</span>-;<span class=\"text-smallcaps\">DL</span>-Lysine, dihydrochloride;Lysine, dihydrochloride;2,6-Diaminohexanoic acid dihydrochloride",
    "duplicated_cas_no": "",
    "SMILES": "C(CCCCN)(C(O)=O)N.Cl",
    "meta_data": {
        "InChI": "InChI=1S/C6H14N2O2.2ClH/c7-4-2-1-3-5(8)6(9)10;;/h5H,1-4,7-8H2,(H,9,10);2*1H",
        "InChIKey": null,
        "Canonical SMILES": "Cl.O=C(O)C(N)CCCCN",
        "Molecular Formula": "C<sub>6</sub>H<sub>14</sub>N<sub>2</sub>O<sub>2</sub>.2ClH",
        "Molecular Mass": "",
        "Melting Point": "180-185 °C"
    }
}