{
    "cas_no": "17945-05-0",
    "key_name": "Ethyl 3-(triethoxysilyl)propylcarbamate",
    "cn_name": "[3-(三乙氧基硅基)丙基]氨基甲酸乙酯;[3-(三乙氧基硅基)丙基]氨基甲酸乙酯;",
    "alternate_name": "Carbamic acid, <em>N</em>-[3-(triethoxysilyl)propyl]-, ethyl ester;Carbamic acid, [3-(triethoxysilyl)propyl]-, ethyl ester;Ethyl 3-(triethoxysilyl)propylcarbamate;Ethyl γ-triethoxysilylpropylcarbamate;Y 15272;Ethanol-3-isocyanatopropyltriethoxysilane urethane adduct (1:1);SIT 8188.0",
    "duplicated_cas_no": "",
    "SMILES": "[Si](CCCNC(OCC)=O)(OCC)(OCC)OCC",
    "meta_data": {
        "InChI": "InChI=1S/C12H27NO5Si/c1-5-15-12(14)13-10-9-11-19(16-6-2,17-7-3)18-8-4/h5-11H2,1-4H3,(H,13,14)",
        "InChIKey": null,
        "Canonical SMILES": "O=C(OCC)NCCC[Si](OCC)(OCC)OCC",
        "Molecular Formula": "C<sub>12</sub>H<sub>27</sub>NO<sub>5</sub>Si",
        "Molecular Mass": "293.43",
        "Boiling Point": "124-126 °C @ Press: 0.5 Torr",
        "Density": "1.015 g/cm³"
    }
}