{
    "cas_no": "99979-77-8",
    "key_name": "2-Chloro-5-methoxy-4-pyrimidinamine",
    "cn_name": null,
    "alternate_name": "4-Pyrimidinamine, 2-chloro-5-methoxy-;Pyrimidine, 4-amino-2-chloro-5-methoxy-;2-Chloro-5-methoxy-4-pyrimidinamine;2-Chloro-5-methoxypyrimidin-4-amine",
    "duplicated_cas_no": "",
    "SMILES": "O(C)C=1C(N)=NC(Cl)=NC1",
    "meta_data": {
        "InChI": "InChI=1S/C5H6ClN3O/c1-10-3-2-8-5(6)9-4(3)7/h2H,1H3,(H2,7,8,9)",
        "InChIKey": null,
        "Canonical SMILES": "ClC1=NC=C(OC)C(=N1)N",
        "Molecular Formula": "C<sub>5</sub>H<sub>6</sub>ClN<sub>3</sub>O",
        "Molecular Mass": "159.57",
        "Melting Point": "181-182 °C (decomp)"
    }
}