{
    "cas_no": "7098-07-9",
    "key_name": "1-Ethylimidazole",
    "cn_name": "1-乙基咪唑;N-乙基咪唑;",
    "alternate_name": "1<em>H</em>-Imidazole, 1-ethyl-;Imidazole, 1-ethyl-;1-Ethyl-1<em>H</em>-imidazole;<em>N</em>-Ethylimidazole;1-Ethylimidazole",
    "duplicated_cas_no": "126993-03-1;674282-74-7;955156-64-6;2250438-97-0;2559076-70-7;2579535-89-8",
    "SMILES": "C(C)N1C=CN=C1",
    "meta_data": {
        "InChI": "InChI=1S/C5H8N2/c1-2-7-4-3-6-5-7/h3-5H,2H2,1H3",
        "InChIKey": null,
        "Canonical SMILES": "N=1C=CN(C1)CC",
        "Molecular Formula": "C<sub>5</sub>H<sub>8</sub>N<sub>2</sub>",
        "Molecular Mass": "96.13",
        "Boiling Point": "208 °C",
        "Density": "0.9986 g/cm³ @ Temp: 20.00 °C"
    }
}