{
    "cas_no": "2216-68-4",
    "key_name": "<em>N</em>-Methyl-1-naphthalenamine",
    "cn_name": null,
    "alternate_name": "1-Naphthalenamine, <em>N</em>-methyl-;1-Naphthylamine, <em>N</em>-methyl-;<em>N</em>-Methyl-1-naphthalenamine;<em>N</em>-Methyl-1-naphthylamine;<em>N</em>-Methyl-α-naphthylamine;1-(Methylamino)naphthalene;<em>N</em>-Methyl-<em>N</em>-(1-naphthyl)amine;<em>N</em>-Methylnaphthalene-1-amine;NSC 9412;<em>N</em>-(1-Naphthyl)methylamine",
    "duplicated_cas_no": "",
    "SMILES": "N(C)C=1C2=C(C=CC1)C=CC=C2",
    "meta_data": {
        "InChI": "InChI=1S/C11H11N/c1-12-11-8-4-6-9-5-2-3-7-10(9)11/h2-8,12H,1H3",
        "InChIKey": null,
        "Canonical SMILES": "C=1C=CC2=C(C1)C=CC=C2NC",
        "Molecular Formula": "C<sub>11</sub>H<sub>11</sub>N",
        "Molecular Mass": "157.21",
        "Boiling Point": "294.5 °C",
        "Melting Point": "174 °C"
    }
}