{
    "cas_no": "81971-39-3",
    "key_name": "5-Bromo-1-methyl-1<em>H</em>-pyridin-2-one",
    "cn_name": null,
    "alternate_name": "2(1<em>H</em>)-Pyridinone, 5-bromo-1-methyl-;5-Bromo-1-methyl-2(1<em>H</em>)-pyridinone;3-Bromo-1-methyl-6-oxo-1,6-dihydropyridine;5-Bromo-1-methyl-1<em>H</em>-pyridin-2-one;5-Bromo-1-methyl-2(1<em>H</em>)-pyridone;5-Bromo-1-methylpyridin-2-one;5-Bromo-<em>N</em>-methylpyridin-2(1<em>H</em>)-one",
    "duplicated_cas_no": "",
    "SMILES": "CN1C(=O)C=CC(Br)=C1",
    "meta_data": {
        "InChI": "InChI=1S/C6H6BrNO/c1-8-4-5(7)2-3-6(8)9/h2-4H,1H3",
        "InChIKey": null,
        "Canonical SMILES": "O=C1C=CC(Br)=CN1C",
        "Molecular Formula": "C<sub>6</sub>H<sub>6</sub>BrNO",
        "Molecular Mass": "188.02",
        "Boiling Point": "126-131 °C @ Press: 1.6 Torr",
        "Melting Point": "62.1-63 °C"
    }
}