{
    "cas_no": "14347-78-5",
    "key_name": "(<em>R</em>)-Solketal",
    "cn_name": "(R)-(-)-甘油醇缩丙酮;",
    "alternate_name": "1,3-Dioxolane-4-methanol, 2,2-dimethyl-, (4<em>R</em>)-;1,3-Dioxolane-4-methanol, 2,2-dimethyl-, (<em>R</em>)-;1,3-Dioxolane-4-methanol, 2,2-dimethyl-, <span class=\"text-smallcaps\">D</span>-;(4<em>R</em>)-2,2-Dimethyl-1,3-dioxolane-4-methanol;<span class=\"text-smallcaps\">D</span>-2,2-Dimethyl-1,3-dioxolane-4-methanol;(2<em>R</em>)-Glycerol 1,2-acetonide;2,3-<em>O</em>-Isopropylidene-<em>sn</em>-glycerol;(<em>R</em>)-Glycerol acetonide;2,3-Isopropylidene-<em>sn</em>-glycerol;(<em>R</em>)-2,2-Dimethyl-1,3-dioxolane-4-methanol;(-)-Solketal;2,3-Isopropylidene-<span class=\"text-smallcaps\">L</span>-glycerol;(<em>R</em>)-1,2-Isopropylideneglycerol;(<em>R</em>)-2,3-Isopropylideneglycerol;(-)-α,β-Isopropylideneglycerol;(<em>R</em>)-Solketal;(<em>R</em>)-2,3-<em>O</em>-Isopropylideneglycerol;(<em>R</em>)-(-)-2,2-Dimethyl-1,3-dioxolane-4-methanol;(<em>R</em>)-(-)-(2,2-Dimethyl-1,3-dioxolan-4-yl)methanol;((4<em>R</em>)-2,2-Dimethyl-1,3-dioxolan-4-yl)methanol;((4R)-2,2-Dimethyl-1,3-dioxolan-4-yl)methanol;2,2-Dimethyl-(4<em>R</em>)-1,3-dioxolane-4-methanol;(-)-2,2-Dimethyl-1,3-dioxolane-4-methanol;(<em>R</em>)-2,2-Dimethyl-1,3-dioxolan-4-methanol;(R)-(-)-2,2-Dimethyl-1,3-dioxolan-4-methanol;(R)-(2,2-Dimethyl[1,3]dioxolan-4-yl)methanol;((<em>R</em>)-2,2-Dimethyl-[1,3]dioxolan-4-yl)methanol;(<em>R</em>)-Isopropylideneglycerol;(R)-(-)-2,2-Dimethyl-1,3-dioxolane-4-methanol;1,3-Dioxolane-4-methanol 2,2-dimethyl-, (4R)-;(<em>R</em>)-1,2-<em>O</em>-Isopropylideneglycerol",
    "duplicated_cas_no": "",
    "SMILES": "C(O)[C@H]1OC(C)(C)OC1",
    "meta_data": {
        "InChI": "InChI=1S/C6H12O3/c1-6(2)8-4-5(3-7)9-6/h5,7H,3-4H2,1-2H3/t5-/m1/s1",
        "InChIKey": null,
        "Canonical SMILES": "OCC1OC(OC1)(C)C",
        "Molecular Formula": "C<sub>6</sub>H<sub>12</sub>O<sub>3</sub>",
        "Molecular Mass": "132.16",
        "Boiling Point": "80.5-80.8 °C @ Press: 11 Torr"
    }
}