{
    "cas_no": "111479-05-1",
    "key_name": "Propaquizafop",
    "cn_name": null,
    "alternate_name": "Propanoic acid, 2-[4-[(6-chloro-2-quinoxalinyl)oxy]phenoxy]-, 2-[[(1-methylethylidene)amino]oxy]ethyl ester, (2<em>R</em>)-;Propanoic acid, 2-[4-[(6-chloro-2-quinoxalinyl)oxy]phenoxy]-, 2-[[(1-methylethylidene)amino]oxy]ethyl ester, (<em>R</em>)-;Propaquizafop;Ro 17-3664;Agil;Shogun;Correct;(R)-2-(Propan-2-ylideneaminooxy)ethyl 2-(4-(6-chloroquinoxalin-2-yloxy)phenoxy)propanoate",
    "duplicated_cas_no": "",
    "SMILES": "O(C1=NC2=C(N=C1)C=C(Cl)C=C2)C3=CC=C(O[C@@H](C(OCCON=C(C)C)=O)C)C=C3",
    "meta_data": {
        "InChI": "InChI=1S/C22H22ClN3O5/c1-14(2)26-29-11-10-28-22(27)15(3)30-17-5-7-18(8-6-17)31-21-13-24-20-12-16(23)4-9-19(20)25-21/h4-9,12-13,15H,10-11H2,1-3H3/t15-/m1/s1",
        "InChIKey": null,
        "Canonical SMILES": "O=C(OCCON=C(C)C)C(OC1=CC=C(OC2=NC3=CC=C(Cl)C=C3N=C2)C=C1)C",
        "Molecular Formula": "C<sub>22</sub>H<sub>22</sub>ClN<sub>3</sub>O<sub>5</sub>",
        "Molecular Mass": "443.88",
        "Melting Point": "62 °C",
        "Density": "1.3 g/cm³"
    }
}