{
    "cas_no": "103321-53-5",
    "key_name": "9<em>H</em>-Fluoren-9-ylmethyl <em>N</em>-[(1<em>S</em>)-1-(chlorocarbonyl)-2-methylpropyl]carbamate",
    "cn_name": null,
    "alternate_name": "Carbamic acid, <em>N</em>-[(1<em>S</em>)-1-(chlorocarbonyl)-2-methylpropyl]-, 9<em>H</em>-fluoren-9-ylmethyl ester;Carbamic acid, [1-(chlorocarbonyl)-2-methylpropyl]-, 9<em>H</em>-fluoren-9-ylmethyl ester, (<em>S</em>)-;Carbamic acid, [(1<em>S</em>)-1-(chlorocarbonyl)-2-methylpropyl]-, 9<em>H</em>-fluoren-9-ylmethyl ester;9<em>H</em>-Fluoren-9-ylmethyl <em>N</em>-[(1<em>S</em>)-1-(chlorocarbonyl)-2-methylpropyl]carbamate;<em>N</em>-(9-Fluorenylmethoxycarbonyl)valyl chloride;Fmoc-Val-Cl;(<em>S</em>)-(9<em>H</em>-Fluoren-9-yl)methyl 1-chloro-3-methyl-1-oxobutan-2-ylcarbamate",
    "duplicated_cas_no": "",
    "SMILES": "C(OC(N[C@@H](C(C)C)C(Cl)=O)=O)C1C=2C(C=3C1=CC=CC3)=CC=CC2",
    "meta_data": {
        "InChI": "InChI=1S/C20H20ClNO3/c1-12(2)18(19(21)23)22-20(24)25-11-17-15-9-5-3-7-13(15)14-8-4-6-10-16(14)17/h3-10,12,17-18H,11H2,1-2H3,(H,22,24)/t18-/m0/s1",
        "InChIKey": null,
        "Canonical SMILES": "O=C(OCC1C=2C=CC=CC2C=3C=CC=CC31)NC(C(=O)Cl)C(C)C",
        "Molecular Formula": "C<sub>20</sub>H<sub>20</sub>ClNO<sub>3</sub>",
        "Molecular Mass": "357.83",
        "Melting Point": "110-111 °C"
    }
}