{
    "cas_no": "76470-66-1",
    "key_name": "Loracarbef",
    "cn_name": null,
    "alternate_name": "1-Azabicyclo[4.2.0]oct-2-ene-2-carboxylic acid, 7-[[(2<em>R</em>)-2-amino-2-phenylacetyl]amino]-3-chloro-8-oxo-, (6<em>R</em>,7<em>S</em>)-;1-Azabicyclo[4.2.0]oct-2-ene-2-carboxylic acid, 7-[(aminophenylacetyl)amino]-3-chloro-8-oxo-, [6<em>R</em>-[6α,7β(<em>R</em>*)]]-;1-Azabicyclo[4.2.0]oct-2-ene-2-carboxylic acid, 7-[[(2<em>R</em>)-aminophenylacetyl]amino]-3-chloro-8-oxo-, (6<em>R</em>,7<em>S</em>)-;(6<em>R</em>,7<em>S</em>)-7-[[(2<em>R</em>)-2-Amino-2-phenylacetyl]amino]-3-chloro-8-oxo-1-azabicyclo[4.2.0]oct-2-ene-2-carboxylic acid;LY 163892;Loracarbef;KT 3777;Loribid;Lorabid;Loracarbacef",
    "duplicated_cas_no": "",
    "SMILES": "O=C1N2[C@@]([C@@H]1NC([C@H](N)C3=CC=CC=C3)=O)(CCC(Cl)=C2C(O)=O)[H]",
    "meta_data": {
        "InChI": "InChI=1S/C16H16ClN3O4/c17-9-6-7-10-12(15(22)20(10)13(9)16(23)24)19-14(21)11(18)8-4-2-1-3-5-8/h1-5,10-12H,6-7,18H2,(H,19,21)(H,23,24)/t10-,11-,12+/m1/s1",
        "InChIKey": null,
        "Canonical SMILES": "O=C(O)C1=C(Cl)CCC2N1C(=O)C2NC(=O)C(N)C=3C=CC=CC3",
        "Molecular Formula": "C<sub>16</sub>H<sub>16</sub>ClN<sub>3</sub>O<sub>4</sub>",
        "Molecular Mass": "349.77",
        "Melting Point": "205-215 °C"
    }
}