{
    "cas_no": "946-33-8",
    "key_name": "2-Benzylcyclohexanone",
    "cn_name": "2-苯甲基环己酮;",
    "alternate_name": "Cyclohexanone, 2-(phenylmethyl)-;Cyclohexanone, 2-benzyl-;2-(Phenylmethyl)cyclohexanone;2-Benzylcyclohexanone;α-Benzylcyclohexanone;(±)-2-Benzylcyclohexanone;(±)-2-Benzyl-1-cyclohexanone;NSC 149930;2-Benzylcyclohexan-1-one",
    "duplicated_cas_no": "2702-74-1;91603-45-1",
    "SMILES": "C(C1C(=O)CCCC1)C2=CC=CC=C2",
    "meta_data": {
        "InChI": "InChI=1S/C13H16O/c14-13-9-5-4-8-12(13)10-11-6-2-1-3-7-11/h1-3,6-7,12H,4-5,8-10H2",
        "InChIKey": null,
        "Canonical SMILES": "O=C1CCCCC1CC=2C=CC=CC2",
        "Molecular Formula": "C<sub>13</sub>H<sub>16</sub>O",
        "Molecular Mass": "188.27",
        "Boiling Point": "165-166 °C @ Press: 18 Torr",
        "Melting Point": "76 °C",
        "Density": "1.0733 g/cm³ @ Temp: 0 °C"
    }
}