{
    "cas_no": "24468-13-1",
    "key_name": "2-Ethylhexyl chloroformate",
    "cn_name": "氯甲酸-2-乙基己酯;",
    "alternate_name": "Carbonochloridic acid, 2-ethylhexyl ester;Formic acid, chloro-, 2-ethylhexyl ester;Chloroformic acid 2-ethylhexyl ester;2-Ethylhexyl chloroformate;2-Ethylhexyl chlorocarbonate;2-Ethylhexyl carbonochloridate",
    "duplicated_cas_no": "",
    "SMILES": "C(COC(Cl)=O)(CCCC)CC",
    "meta_data": {
        "InChI": "InChI=1S/C9H17ClO2/c1-3-5-6-8(4-2)7-12-9(10)11/h8H,3-7H2,1-2H3",
        "InChIKey": null,
        "Canonical SMILES": "O=C(Cl)OCC(CC)CCCC",
        "Molecular Formula": "C<sub>9</sub>H<sub>17</sub>ClO<sub>2</sub>",
        "Molecular Mass": "192.68",
        "Boiling Point": "207 °C"
    }
}