{
    "cas_no": "18640-58-9",
    "key_name": "1-(4-Bromo-3-nitrophenyl)ethanone",
    "cn_name": "4-溴-3-硝基苯乙酮;",
    "alternate_name": "Ethanone, 1-(4-bromo-3-nitrophenyl)-;Acetophenone, 4′-bromo-3′-nitro-;1-(4-Bromo-3-nitrophenyl)ethanone;3′-Nitro-4′-bromoacetophenone;4′-Bromo-3′-nitroacetophenone;NSC 111656;1-(4-Bromo-3-nitrophenyl)ethan-1-one",
    "duplicated_cas_no": "",
    "SMILES": "N(=O)(=O)C1=CC(C(C)=O)=CC=C1Br",
    "meta_data": {
        "InChI": "InChI=1S/C8H6BrNO3/c1-5(11)6-2-3-7(9)8(4-6)10(12)13/h2-4H,1H3",
        "InChIKey": null,
        "Canonical SMILES": "O=C(C1=CC=C(Br)C(=C1)N(=O)=O)C",
        "Molecular Formula": "C<sub>8</sub>H<sub>6</sub>BrNO<sub>3</sub>",
        "Molecular Mass": "244.04",
        "Melting Point": "116.5 °C"
    }
}