{
    "cas_no": "14088-96-1",
    "key_name": "1-(3-Bromophenyl)-2-imidazolidinone",
    "cn_name": null,
    "alternate_name": "2-Imidazolidinone, 1-(3-bromophenyl)-;2-Imidazolidinone, 1-(<em>m</em>-bromophenyl)-;1-(3-Bromophenyl)-2-imidazolidinone",
    "duplicated_cas_no": "",
    "SMILES": "O=C1N(C2=CC(Br)=CC=C2)CCN1",
    "meta_data": {
        "InChI": "InChI=1S/C9H9BrN2O/c10-7-2-1-3-8(6-7)12-5-4-11-9(12)13/h1-3,6H,4-5H2,(H,11,13)",
        "InChIKey": null,
        "Canonical SMILES": "O=C1NCCN1C=2C=CC=C(Br)C2",
        "Molecular Formula": "C<sub>9</sub>H<sub>9</sub>BrN<sub>2</sub>O",
        "Molecular Mass": "241.08",
        "Melting Point": "127-130 °C"
    }
}