{
    "cas_no": "1066-97-3",
    "key_name": "Phosphorodithioic acid, <em>O</em>,<em>O</em>-dimethyl ester, ammonium salt (1:1)",
    "cn_name": "O,O-二甲基二硫代磷酸铵;",
    "alternate_name": "Phosphorodithioic acid, <em>O</em>,<em>O</em>-dimethyl ester, ammonium salt (1:1);Phosphorodithioic acid, <em>O</em>,<em>O</em>-dimethyl ester, ammonium salt;Ammonium methyl phosphorodithioate;Ammonium <em>O</em>,<em>O</em>′-dimethyl phosphorodithioate;Ammonium <em>O</em>,<em>O</em>-dimethyl dithiophosphate;<em>O</em>,<em>O</em>-Dimethyldithiophosphoric acid ammonium salt;Ammonium <em>O</em>,<em>O</em>-dimethyl phosphorodithioate;<em>O</em>,<em>O</em>-Dimethyl ammonium dithiophosphate;Ammonium dimethyldithiophosphate;Ammonium <em>O</em>,<em>O</em>-dimethyl phosphorodithioate(1-)",
    "duplicated_cas_no": "879648-38-1",
    "SMILES": "P(OC)(OC)(=S)S.N",
    "meta_data": {
        "InChI": "InChI=1S/C2H7O2PS2.H3N/c1-3-5(6,7)4-2;/h1-2H3,(H,6,7);1H3",
        "InChIKey": null,
        "Canonical SMILES": "S=P(S)(OC)OC.N",
        "Molecular Formula": "C<sub>2</sub>H<sub>7</sub>O<sub>2</sub>PS<sub>2</sub>.H<sub>3</sub>N",
        "Molecular Mass": "",
        "Melting Point": "147 °C"
    }
}