{
    "cas_no": "5333-83-5",
    "key_name": "1-(2-Thienyl)-1-butanone",
    "cn_name": "2-正丁酰噻吩;2-正丁酰噻吩,97%;",
    "alternate_name": "1-Butanone, 1-(2-thienyl)-;Ketone, propyl 2-thienyl;1-(2-Thienyl)-1-butanone;2-Butyrylthiophene;2-Butanoylthiophene;1-(2-Thienyl)butan-1-one;NSC 2350;1-(Thien-2-yl)butanone;1-(Thiophen-2-yl)butan-1-one",
    "duplicated_cas_no": "",
    "SMILES": "C(CCC)(=O)C1=CC=CS1",
    "meta_data": {
        "InChI": "InChI=1S/C8H10OS/c1-2-4-7(9)8-5-3-6-10-8/h3,5-6H,2,4H2,1H3",
        "InChIKey": null,
        "Canonical SMILES": "O=C(C=1SC=CC1)CCC",
        "Molecular Formula": "C<sub>8</sub>H<sub>10</sub>OS",
        "Molecular Mass": "154.23",
        "Boiling Point": "123-124 °C @ Press: 25 Torr",
        "Density": "1.0730 g/cm³ @ Temp: 20 °C"
    }
}