{
    "cas_no": "602-09-5",
    "key_name": "BINOL",
    "cn_name": "1,1\"-联-2-萘酚;联萘酚;",
    "alternate_name": "[1,1′-Binaphthalene]-2,2′-diol;1,1′-Bi-2-naphthol;2,2′-Dihydroxy-1,1′-binaphthyl;2,2′-Dihydroxy-1,1′-dinaphthyl;Bis-β-naphthol;α-Binaphthyl-2,2′-diol;1,1′-Bis-2-naphthol;2,2′-Dihydroxydinaphthyl;2,2′-Dihydroxy-1,1′-binaphthalene;2,2′-Dinaphthol;β-Binaphthol;2,2′-Dihydroxybinaphthalene;1,1′-Binaphthyl-2,2′-diol;1,1′-Bi(β-naphthol);BINOL;(±)-[1,1′-Binaphthalene]-2,2′-diol;(±)-2,2′-Dihydroxy-1,1′-binaphthyl;(±)-Bi-β-naphthol;(±)-1,1′-Bi-2-naphthol;(±)-2,2′-Dihydroxy-1,1′-dinaphthyl;(±)-2,2′-Dihydroxy-1,1′-binaphthalene;Racemic 2,2′-dihydroxy-1,1′-binaphthyl;(±)-1,1′-Binaphthalene-2,2′-diol;(<em>RS</em>)-1,1′-Bi-2-naphthol;(±)-Binol;(±)-1,1′-Binaphthyl-2,2′-diol;NSC 27049;(<em>RS</em>)-1,1′-Bi-2,2′-naphthol;Rac-2,2′-dihydroxy-1,1′-binaphthyl;(±)-1,1′-Bis(2-naphthol);1-(2-Hydroxynaphthalen-1-yl)naphthalen-2-ol",
    "duplicated_cas_no": "41024-90-2",
    "SMILES": "OC1=C(C2=C(C=C1)C=CC=C2)C=3C4=C(C=CC3O)C=CC=C4",
    "meta_data": {
        "InChI": "InChI=1S/C20H14O2/c21-17-11-9-13-5-1-3-7-15(13)19(17)20-16-8-4-2-6-14(16)10-12-18(20)22/h1-12,21-22H",
        "InChIKey": null,
        "Canonical SMILES": "OC=1C=CC=2C=CC=CC2C1C3=C(O)C=CC=4C=CC=CC43",
        "Molecular Formula": "C<sub>20</sub>H<sub>14</sub>O<sub>2</sub>",
        "Molecular Mass": "286.32",
        "Melting Point": "219 °C"
    }
}