{
    "cas_no": "120928-09-8",
    "key_name": "Fenazaquin",
    "cn_name": "喹螨醚;4-[[4-叔丁基苯基]乙氧基]喹唑啉;",
    "alternate_name": "Quinazoline, 4-[2-[4-(1,1-dimethylethyl)phenyl]ethoxy]-;4-[2-[4-(1,1-Dimethylethyl)phenyl]ethoxy]quinazoline;EL 436;Fenazachin;Fenazaquin;Magister;XDE 436;Phenazaquin;Magus;Fenaza;GWN 1708;Pride Ultra",
    "duplicated_cas_no": "1165994-85-3;1165994-86-4;1165994-87-5;1165994-90-0",
    "SMILES": "O(CCC1=CC=C(C(C)(C)C)C=C1)C=2C3=C(N=CN2)C=CC=C3",
    "meta_data": {
        "InChI": "InChI=1S/C20H22N2O/c1-20(2,3)16-10-8-15(9-11-16)12-13-23-19-17-6-4-5-7-18(17)21-14-22-19/h4-11,14H,12-13H2,1-3H3",
        "InChIKey": null,
        "Canonical SMILES": "N=1C=NC=2C=CC=CC2C1OCCC3=CC=C(C=C3)C(C)(C)C",
        "Molecular Formula": "C<sub>20</sub>H<sub>22</sub>N<sub>2</sub>O",
        "Molecular Mass": "306.40",
        "Melting Point": "78.5 °C"
    }
}