{
    "cas_no": "140-10-3",
    "key_name": "<em>trans</em>-Cinnamic acid",
    "cn_name": "肉桂酸;苯基丙烯酸;",
    "alternate_name": "2-Propenoic acid, 3-phenyl-, (2<em>E</em>)-;Cinnamic acid, (<em>E</em>)-;2-Propenoic acid, 3-phenyl-, (<em>E</em>)-;(2<em>E</em>)-3-Phenyl-2-propenoic acid;<em>trans</em>-Cinnamic acid;<em>trans</em>-β-Carboxystyrene;<em>trans</em>-3-Phenylacrylic acid;<em>trans</em>-3-Phenyl-2-propenoic acid;(<em>E</em>)-3-Phenylprop-2-enoic acid;trans-Cinnamic acid;(<em>E</em>)-Cinnamic acid;(<em>E</em>)-3-Phenylacrylic acid;NSC 44010;(2<em>E</em>)-2-Phenyl-2-propenoic acid;(2<em>E</em>)-Cinnamic acid;3-Phenyl-(E)-2-propenoic acid;(E)-3-Phenyl-2-propenoic acid;(2E)-3-Phenylprop-2-enoic acid;(E)-3-Phenylacrylic acid",
    "duplicated_cas_no": "",
    "SMILES": "C(=C/C(O)=O)\\C1=CC=CC=C1",
    "meta_data": {
        "InChI": "InChI=1S/C9H8O2/c10-9(11)7-6-8-4-2-1-3-5-8/h1-7H,(H,10,11)/b7-6+",
        "InChIKey": null,
        "Canonical SMILES": "O=C(O)C=CC=1C=CC=CC1",
        "Molecular Formula": "C<sub>9</sub>H<sub>8</sub>O<sub>2</sub>",
        "Molecular Mass": "148.16",
        "Boiling Point": "300 °C",
        "Melting Point": "133 °C"
    }
}