{
    "cas_no": "1135-14-4",
    "key_name": "4-(Phenylthio)benzenamine",
    "cn_name": null,
    "alternate_name": "Benzenamine, 4-(phenylthio)-;Aniline, <em>p</em>-(phenylthio)-;4-(Phenylthio)benzenamine;<em>p</em>-Aminophenyl phenyl sulfide;4-(Phenylthio)aniline;<em>p</em>-(Phenylthio)aniline;4-(Phenylthio)phenylamine;4-Aminodiphenyl sulfide;NSC 51015;4-(Phenylsulfanyl)phenylamine;4-Aminophenyl phenyl sulfide",
    "duplicated_cas_no": "",
    "SMILES": "S(C1=CC=C(N)C=C1)C2=CC=CC=C2",
    "meta_data": {
        "InChI": "InChI=1S/C12H11NS/c13-10-6-8-12(9-7-10)14-11-4-2-1-3-5-11/h1-9H,13H2",
        "InChIKey": null,
        "Canonical SMILES": "S(C=1C=CC=CC1)C2=CC=C(N)C=C2",
        "Molecular Formula": "C<sub>12</sub>H<sub>11</sub>NS",
        "Molecular Mass": "201.29",
        "Melting Point": "94 °C"
    }
}