{
    "cas_no": "58320-73-3",
    "key_name": "Polyethylene glycol monomethyl ether tosylate",
    "cn_name": null,
    "alternate_name": "Poly(oxy-1,2-ethanediyl), α-[(4-methylphenyl)sulfonyl]-ω-methoxy-;Poly(ethylene glycol) methyl ether tosylate;Polyethylene glycol monomethyl ether tosylate;Poly(ethylene glycol) tosylate monomethyl ether;Poly(ethylene glycol) monotosyl monomethyl ether;Polyethylene glycol monomethyl ether mono(<em>p</em>-tosylate);Polyethylene glycol methyl ether <em>p</em>-toluenesulfonate;<em>p</em>-Toluenesulfonyl poly(ethylene glycol) methyl ether;Polyethylene glycol <em>p</em>-toluenesulfonate methyl ether;Methoxypolyethylene glycol tosylate;PEG monomethyl ether tosylate",
    "duplicated_cas_no": "128939-04-8;225518-36-5;245108-88-7;434933-75-2;886469-25-6;898804-21-2;1024700-05-7;1034004-70-0;1184852-92-3;1210326-79-6;1373433-88-5;1449505-83-2;1568988-69-1;1838662-01-3;1942004-58-1;2030243-95-7;2066499-04-3;2245099-54-9;2417255-78-6;2897662-28-9;2923087-05-0",
    "SMILES": "",
    "meta_data": {
        "InChI": "",
        "InChIKey": null,
        "Canonical SMILES": "",
        "Molecular Formula": "(C<sub>2</sub>H<sub>4</sub>O)<sub>n</sub>C<sub>8</sub>H<sub>10</sub>O<sub>3</sub>S",
        "Molecular Mass": "",
        "Melting Point": "54 °C"
    }
}