{
    "cas_no": "20315-25-7",
    "key_name": "Procyanidin B<sub>1</sub>",
    "cn_name": "原花青素B1;",
    "alternate_name": "[4,8′-Bi-2<em>H</em>-1-benzopyran]-3,3′,5,5′,7,7′-hexol, 2,2′-bis(3,4-dihydroxyphenyl)-3,3′,4,4′-tetrahydro-, (2<em>R</em>,2′<em>R</em>,3<em>R</em>,3′<em>S</em>,4<em>R</em>)-;[4,8′′-Biflavan]-3,3′,3′′,3′′′,4′,4′′′,5,5′′,7,7′′-decol, stereoisomer;[4,8′-Bi-2<em>H</em>-1-benzopyran]-3,3′,5,5′,7,7′-hexol, 2,2′-bis(3,4-dihydroxyphenyl)-3,3′,4,4′-tetrahydro-, [2<em>R</em>-[2α,3α,4β(2′<em>R</em>*,3′<em>S</em>*)]]-;(2<em>R</em>,2′<em>R</em>,3<em>R</em>,3′<em>S</em>,4<em>R</em>)-2,2′-Bis(3,4-dihydroxyphenyl)-3,3′,4,4′-tetrahydro[4,8′-bi-2<em>H</em>-1-benzopyran]-3,3′,5,5′,7,7′-hexol;Procyanidin B<sub>1</sub>;Procyanidol B<sub>1</sub>;Proanthocyanidin B<sub>1</sub>;(-)-Epicatechin-(4β-8)-(+)-catechin;(+)-Procyanidin B<sub>1</sub>;Epicatechin 4β-8 catechin",
    "duplicated_cas_no": "75923-51-2",
    "SMILES": "O[C@@H]1[C@H](C=2C(O[C@@H]1C3=CC(O)=C(O)C=C3)=CC(O)=CC2O)C4=C5C(C[C@H](O)[C@H](O5)C6=CC(O)=C(O)C=C6)=C(O)C=C4O",
    "meta_data": {
        "InChI": "InChI=1S/C30H26O12/c31-13-7-20(37)24-23(8-13)41-29(12-2-4-16(33)19(36)6-12)27(40)26(24)25-21(38)10-17(34)14-9-22(39)28(42-30(14)25)11-1-3-15(32)18(35)5-11/h1-8,10,22,26-29,31-40H,9H2/t22-,26+,27+,28+,29+/m0/s1",
        "InChIKey": null,
        "Canonical SMILES": "OC=1C=C(O)C2=C(OC(C3=CC=C(O)C(O)=C3)C(O)C2C=4C(O)=CC(O)=C5C4OC(C6=CC=C(O)C(O)=C6)C(O)C5)C1",
        "Molecular Formula": "C<sub>30</sub>H<sub>26</sub>O<sub>12</sub>",
        "Molecular Mass": "578.52",
        "Melting Point": "204-205 °C (decomp)"
    }
}