{
    "cas_no": "30614-77-8",
    "key_name": "3,4-Diethyl 3,4-furandicarboxylate",
    "cn_name": "二乙基3,4-呋喃二羧酸酯;",
    "alternate_name": "3,4-Furandicarboxylic acid, 3,4-diethyl ester;3,4-Furandicarboxylic acid, diethyl ester;3,4-Diethyl 3,4-furandicarboxylate;Diethyl 3,4-furandicarboxylate;2,3-Bis(ethoxycarbonyl)furan;3,4-Bis(ethoxycarbonyl)furan;3,4-Diethyl furan-3,4-dicarboxylate",
    "duplicated_cas_no": "",
    "SMILES": "C(OCC)(=O)C=1C(C(OCC)=O)=COC1",
    "meta_data": {
        "InChI": "InChI=1S/C10H12O5/c1-3-14-9(11)7-5-13-6-8(7)10(12)15-4-2/h5-6H,3-4H2,1-2H3",
        "InChIKey": null,
        "Canonical SMILES": "O=C(OCC)C1=COC=C1C(=O)OCC",
        "Molecular Formula": "C<sub>10</sub>H<sub>12</sub>O<sub>5</sub>",
        "Molecular Mass": "212.20",
        "Boiling Point": "125-127 °C @ Press: 6 Torr",
        "Density": "1.165 g/cm³ @ Temp: 2 °C"
    }
}