{
    "cas_no": "95-16-9",
    "key_name": "Benzothiazole",
    "cn_name": "苯并噻唑;1,3-硫氮杂茚;",
    "alternate_name": "Benzothiazole;Benzosulfonazole;1-Thia-3-azaindene;Vangard BT;NSC 8040;Benzo[<em>d</em>]thiazole;1,3-Benzothiazole",
    "duplicated_cas_no": "128366-28-9",
    "SMILES": "C1=2C(SC=N1)=CC=CC2",
    "meta_data": {
        "InChI": "InChI=1S/C7H5NS/c1-2-4-7-6(3-1)8-5-9-7/h1-5H",
        "InChIKey": null,
        "Canonical SMILES": "N1=CSC=2C=CC=CC12",
        "Molecular Formula": "C<sub>7</sub>H<sub>5</sub>NS",
        "Molecular Mass": "135.19",
        "Boiling Point": "227-228 °C @ Press: 765 Torr",
        "Melting Point": "2 °C",
        "Density": "1.246 g/cm³ @ Temp: 20 °C"
    }
}