{
    "cas_no": "10472-24-9",
    "key_name": "Methyl 2-oxocyclopentanecarboxylate",
    "cn_name": "2-氧代环戊烷羧酸甲酯;2-氧环戊基甲酸甲酯;2-甲氧羰基环戊酮;",
    "alternate_name": "Cyclopentanecarboxylic acid, 2-oxo-, methyl ester;Methyl 2-oxocyclopentanecarboxylate;2-Carbomethoxycyclopentanone;2-(Methoxycarbonyl)cyclopentanone;Methyl 2-cyclopentanone-1-carboxylate;Methyl 2-oxo-1-cyclopentanecarboxylate;Cyclopentenone-2-carboxylic acid methyl ester;Methyl 2-oxocyclopentacarboxylate;2-Oxocyclopentanecarboxylic acid methyl ester;2-Cyclopentanonecarboxylic acid methyl ester;Methyl cyclopentanone-2-carboxylate;Methyl 2-oxocyclopentan-1-carboxylate",
    "duplicated_cas_no": "53229-93-9",
    "SMILES": "C(OC)(=O)C1C(=O)CCC1",
    "meta_data": {
        "InChI": "InChI=1S/C7H10O3/c1-10-7(9)5-3-2-4-6(5)8/h5H,2-4H2,1H3",
        "InChIKey": null,
        "Canonical SMILES": "O=C(OC)C1C(=O)CCC1",
        "Molecular Formula": "C<sub>7</sub>H<sub>10</sub>O<sub>3</sub>",
        "Molecular Mass": "142.15",
        "Boiling Point": "105 °C @ Press: 19 Torr",
        "Melting Point": "123-125 °C",
        "Density": "1.145 g/cm³ @ Temp: 0 °C"
    }
}