{
    "cas_no": "98730-04-2",
    "key_name": "Benoxacor",
    "cn_name": "解草酮;解草嗪;4-(2,2-二氯乙酰基)-3-甲基-3,4-二氢-2H-1,4-苯并恶嗪;",
    "alternate_name": "Ethanone, 2,2-dichloro-1-(2,3-dihydro-3-methyl-4<em>H</em>-1,4-benzoxazin-4-yl)-;2<em>H</em>-1,4-Benzoxazine, 4-(dichloroacetyl)-3,4-dihydro-3-methyl-;2,2-Dichloro-1-(2,3-dihydro-3-methyl-4<em>H</em>-1,4-benzoxazin-4-yl)ethanone;Benoxacor;CGA 154281;4-Dichloroacetyl-3,4-dihydro-3-methyl-2<em>H</em>-1,4-benzoxazine;2,2-Dichloro-1-(3-methyl-2,3-dihydro-1,4-benzoxazin-4-yl)ethanone",
    "duplicated_cas_no": "",
    "SMILES": "C(C(Cl)Cl)(=O)N1C=2C(=CC=CC2)OCC1C",
    "meta_data": {
        "InChI": "InChI=1S/C11H11Cl2NO2/c1-7-6-16-9-5-3-2-4-8(9)14(7)11(15)10(12)13/h2-5,7,10H,6H2,1H3",
        "InChIKey": null,
        "Canonical SMILES": "O=C(N1C=2C=CC=CC2OCC1C)C(Cl)Cl",
        "Molecular Formula": "C<sub>11</sub>H<sub>11</sub>Cl<sub>2</sub>NO<sub>2</sub>",
        "Molecular Mass": "260.12",
        "Melting Point": "107.6 °C"
    }
}