{
    "cas_no": "1816-85-9",
    "key_name": "11β-Hydroxytestosterone",
    "cn_name": null,
    "alternate_name": "Androst-4-en-3-one, 11,17-dihydroxy-, (11β,17β)-;Androst-4-en-3-one, 11β,17β-dihydroxy-;(11β,17β)-11,17-Dihydroxyandrost-4-en-3-one;11β-Hydroxytestosterone;4-Androstene-11β,17β-diol-3-one;11β-Hydroxy-3-oxo-4-androsten-17β-ol;11β,17β-Dihydroxy-4-androsten-3-one;11β,17β-Dihydroxy-4-androstene-3-one;NSC 12168",
    "duplicated_cas_no": "",
    "SMILES": "C[C@@]12[C@@]3([C@]([C@]4([C@](C)(C[C@@H]3O)[C@@H](O)CC4)[H])(CCC1=CC(=O)CC2)[H])[H]",
    "meta_data": {
        "InChI": "InChI=1S/C19H28O3/c1-18-8-7-12(20)9-11(18)3-4-13-14-5-6-16(22)19(14,2)10-15(21)17(13)18/h9,13-17,21-22H,3-8,10H2,1-2H3/t13-,14-,15-,16-,17+,18-,19-/m0/s1",
        "InChIKey": null,
        "Canonical SMILES": "O=C1C=C2CCC3C4CCC(O)C4(C)CC(O)C3C2(C)CC1",
        "Molecular Formula": "C<sub>19</sub>H<sub>28</sub>O<sub>3</sub>",
        "Molecular Mass": "304.42",
        "Melting Point": "234.5-235.5 °C"
    }
}