{
    "cas_no": "127406-56-8",
    "key_name": "4-(2-Pyridinyl)benzaldehyde",
    "cn_name": "4-(2-吡啶基)-苯甲醛;",
    "alternate_name": "Benzaldehyde, 4-(2-pyridinyl)-;4-(2-Pyridinyl)benzaldehyde;4-(2-Pyridyl)benzaldehyde;2-(<em>p</em>-Formylphenyl)pyridine;4-Pyridin-2-ylbenzaldehyde;2-(4′-Formylphenyl)pyridine;2-(4-Formylphenyl)pyridine",
    "duplicated_cas_no": "",
    "SMILES": "C(=O)C1=CC=C(C=C1)C2=CC=CC=N2",
    "meta_data": {
        "InChI": "InChI=1S/C12H9NO/c14-9-10-4-6-11(7-5-10)12-3-1-2-8-13-12/h1-9H",
        "InChIKey": null,
        "Canonical SMILES": "O=CC=1C=CC(=CC1)C2=NC=CC=C2",
        "Molecular Formula": "C<sub>12</sub>H<sub>9</sub>NO",
        "Molecular Mass": "183.21",
        "Melting Point": "196-198 °C"
    }
}