{
    "cas_no": "6270-63-9",
    "key_name": "2(1<em>H</em>)-Pyrazinone",
    "cn_name": "2-羟基吡嗪;",
    "alternate_name": "2(1<em>H</em>)-Pyrazinone;Pyrazinol;2-Hydroxypyrazine;2-Oxo-1<em>H</em>-pyrazine;NSC 36081;1<em>H</em>-Pyrazin-2-one;Pyrazin-2-ol;Pyrazin-2(1<em>H</em>)-one",
    "duplicated_cas_no": "141998-28-9;141998-27-8;20502-53-8",
    "SMILES": "O=C1C=NC=CN1",
    "meta_data": {
        "InChI": "InChI=1S/C4H4N2O/c7-4-3-5-1-2-6-4/h1-3H,(H,6,7)",
        "InChIKey": null,
        "Canonical SMILES": "O=C1C=NC=CN1",
        "Molecular Formula": "C<sub>4</sub>H<sub>4</sub>N<sub>2</sub>O",
        "Molecular Mass": "96.09",
        "Melting Point": "187-188 °C"
    }
}