{
    "cas_no": "5977-14-0",
    "key_name": "Acetoacetamide",
    "cn_name": "1,3-丁二酮胺;乙酰乙酰胺;",
    "alternate_name": "Butanamide, 3-oxo-;Acetoacetamide;3-Oxobutanamide;α-Acetylacetamide;Acetylacetamide;Acetoacetic acid amide;NSC 632231;3-Oxobutyramide",
    "duplicated_cas_no": "",
    "SMILES": "C(C(C)=O)C(N)=O",
    "meta_data": {
        "InChI": "InChI=1S/C4H7NO2/c1-3(6)2-4(5)7/h2H2,1H3,(H2,5,7)",
        "InChIKey": null,
        "Canonical SMILES": "O=C(N)CC(=O)C",
        "Molecular Formula": "C<sub>4</sub>H<sub>7</sub>NO<sub>2</sub>",
        "Molecular Mass": "101.10",
        "Melting Point": "48 °C"
    }
}