{
    "cas_no": "2106-50-5",
    "key_name": "2-Chloro-4-fluoro-1-nitrobenzene",
    "cn_name": "2-氯-4-氟硝基苯;",
    "alternate_name": "Benzene, 2-chloro-4-fluoro-1-nitro-;2-Chloro-4-fluoro-1-nitrobenzene;2-Chloro-4-fluoronitrobenzene;3-Chloro-4-nitrofluorobenzene;1-Fluoro-3-chloro-4-nitrobenzene",
    "duplicated_cas_no": "",
    "SMILES": "N(=O)(=O)C1=C(Cl)C=C(F)C=C1",
    "meta_data": {
        "InChI": "InChI=1S/C6H3ClFNO2/c7-5-3-4(8)1-2-6(5)9(10)11/h1-3H",
        "InChIKey": null,
        "Canonical SMILES": "O=N(=O)C1=CC=C(F)C=C1Cl",
        "Molecular Formula": "C<sub>6</sub>H<sub>3</sub>ClFNO<sub>2</sub>",
        "Molecular Mass": "175.54",
        "Boiling Point": "238.5 °C",
        "Melting Point": "37.25 °C"
    }
}