{
    "cas_no": "52328-05-9",
    "key_name": "<em>O</em>-Methylisourea hydrogen sulfate",
    "cn_name": "O-甲基异脲硫酸盐;",
    "alternate_name": "Carbamimidic acid, methyl ester, sulfate (2:1);<em>O</em>-Methylpseudourea sulfate (2:1);Methoxyformamidine sulfate (2:1);<em>O</em>-Methylisouronium sulfate;<em>O</em>-Methylisourea hydrogen sulfate;<em>O</em>-Methylisourea hemisulfate;2-Methylisouronium sulfate",
    "duplicated_cas_no": "",
    "SMILES": "S(=O)(=O)(O)O.C(OC)(=N)N",
    "meta_data": {
        "InChI": "InChI=1S/C2H6N2O.H2O4S/c1-5-2(3)4;1-5(2,3)4/h1H3,(H3,3,4);(H2,1,2,3,4)",
        "InChIKey": null,
        "Canonical SMILES": "O=S(=O)(O)O.N=C(OC)N",
        "Molecular Formula": "C<sub>2</sub>H<sub>6</sub>N<sub>2</sub>O.<sup>1</sup>/<sub>2</sub>H<sub>2</sub>O<sub>4</sub>S",
        "Molecular Mass": "",
        "Melting Point": "118-119 °C"
    }
}