{
    "cas_no": "247940-06-3",
    "key_name": "2-(Dicyclohexylphosphino)biphenyl",
    "cn_name": "2-(二环己基膦基)联苯;",
    "alternate_name": "Phosphine, [1,1′-biphenyl]-2-yldicyclohexyl-;[1,1′-Biphenyl]-2-yldicyclohexylphosphine;<em>o</em>-(Dicyclohexylphosphino)biphenyl;2-(Dicyclohexylphosphino)biphenyl;Dicyclohexyl(<em>o</em>-biphenyl)phosphine;(1,1′-Biphenyl-2-yl)dicyclohexylphosphine;2-(Dicyclohexylphosphino)-1,1′-biphenyl;Biphenyl-2-yldicyclohexylphosphine;(2-Biphenyl)dicyclohexylphosphine;Cy-JohnPhos",
    "duplicated_cas_no": "",
    "SMILES": "P(C1=C(C=CC=C1)C2=CC=CC=C2)(C3CCCCC3)C4CCCCC4",
    "meta_data": {
        "InChI": "InChI=1S/C24H31P/c1-4-12-20(13-5-1)23-18-10-11-19-24(23)25(21-14-6-2-7-15-21)22-16-8-3-9-17-22/h1,4-5,10-13,18-19,21-22H,2-3,6-9,14-17H2",
        "InChIKey": null,
        "Canonical SMILES": "C=1C=CC(=CC1)C=2C=CC=CC2P(C3CCCCC3)C4CCCCC4",
        "Molecular Formula": "C<sub>24</sub>H<sub>31</sub>P",
        "Molecular Mass": "350.48",
        "Melting Point": "68.9-80.9 °C"
    }
}