{
    "cas_no": "643-43-6",
    "key_name": "2,4-Dinitrophenylacetic acid",
    "cn_name": "2,4-二硝基苯乙酸;",
    "alternate_name": "Benzeneacetic acid, 2,4-dinitro-;Acetic acid, (2,4-dinitrophenyl)-;2,4-Dinitrobenzeneacetic acid;2,4-Dinitrophenylacetic acid;NSC 6225;2-(2,4-Dinitrophenyl)acetic acid",
    "duplicated_cas_no": "",
    "SMILES": "N(=O)(=O)C1=C(CC(O)=O)C=CC(N(=O)=O)=C1",
    "meta_data": {
        "InChI": "InChI=1S/C8H6N2O6/c11-8(12)3-5-1-2-6(9(13)14)4-7(5)10(15)16/h1-2,4H,3H2,(H,11,12)",
        "InChIKey": null,
        "Canonical SMILES": "O=C(O)CC1=CC=C(C=C1N(=O)=O)N(=O)=O",
        "Molecular Formula": "C<sub>8</sub>H<sub>6</sub>N<sub>2</sub>O<sub>6</sub>",
        "Molecular Mass": "226.14",
        "Melting Point": "172 °C"
    }
}