{
    "cas_no": "3138-86-1",
    "key_name": "2,3-Bis(bromomethyl)quinoxaline",
    "cn_name": "2,3-双(溴甲基)喹啉;2,3-双-溴甲基喹喔啉;",
    "alternate_name": "Quinoxaline, 2,3-bis(bromomethyl)-;2,3-Bis(bromomethyl)quinoxaline;2,3-Bis(bromomethyl)-1,4-benzodiazine;NSC 38602",
    "duplicated_cas_no": "",
    "SMILES": "C(Br)C1=NC2=C(N=C1CBr)C=CC=C2",
    "meta_data": {
        "InChI": "InChI=1S/C10H8Br2N2/c11-5-9-10(6-12)14-8-4-2-1-3-7(8)13-9/h1-4H,5-6H2",
        "InChIKey": null,
        "Canonical SMILES": "BrCC1=NC=2C=CC=CC2N=C1CBr",
        "Molecular Formula": "C<sub>10</sub>H<sub>8</sub>Br<sub>2</sub>N<sub>2</sub>",
        "Molecular Mass": "315.99",
        "Melting Point": "150 °C"
    }
}