{
    "cas_no": "4702-13-0",
    "key_name": "<em>N</em>-Phthaloylglycine",
    "cn_name": null,
    "alternate_name": "2<em>H</em>-Isoindole-2-acetic acid, 1,3-dihydro-1,3-dioxo-;2-Isoindolineacetic acid, 1,3-dioxo-;1,3-Dihydro-1,3-dioxo-2<em>H</em>-isoindole-2-acetic acid;Phthalimidoacetic acid;<em>N</em>-Phthaloylglycine;1,3-Dioxo-2-isoindolineacetic acid;<em>N</em>-(Carboxymethyl)phthalimide;Phthaloylglycine;2-Phthalimidoacetic acid;(1,3-Dioxo-1,3-dihydroisoindol-2-yl)acetic acid;<em>N</em>-(2-Hydroxy-2-oxoethyl)phthalimide;NSC 10771;NSC 29044;(1,3-Dioxo-1,3-dihydro-2<em>H</em>-isoindol-2-yl)acetic acid;(1,3-Dihydro-1,3-dioxo-2<em>H</em>-isoindol-2-yl)acetic acid;Phthaloglycine;2-(1,3-Dioxoisoindolin-2-yl)acetic acid;2-Phthalimidoylacetic acid;2-(1,3-Dioxoisoindol-2-yl)acetic acid;2-(1,3-Dioxo-2,3-dihydro-1<em>H</em>-isoindol-2-yl)acetic acid",
    "duplicated_cas_no": "",
    "SMILES": "O=C1C=2C(C(=O)N1CC(O)=O)=CC=CC2",
    "meta_data": {
        "InChI": "InChI=1S/C10H7NO4/c12-8(13)5-11-9(14)6-3-1-2-4-7(6)10(11)15/h1-4H,5H2,(H,12,13)",
        "InChIKey": null,
        "Canonical SMILES": "O=C(O)CN1C(=O)C=2C=CC=CC2C1=O",
        "Molecular Formula": "C<sub>10</sub>H<sub>7</sub>NO<sub>4</sub>",
        "Molecular Mass": "205.17",
        "Melting Point": "192 °C"
    }
}