{
    "cas_no": "13739-02-1",
    "key_name": "Diacerein",
    "cn_name": "二乙酰大黄酸;二乙酰二氢蒽羧酸;1,8-二乙酰基-3-羧基蒽醌;双醋瑞因;达赛瑞英;安必丁;",
    "alternate_name": "2-Anthracenecarboxylic acid, 4,5-bis(acetyloxy)-9,10-dihydro-9,10-dioxo-;2-Anthroic acid, 9,10-dihydro-4,5-dihydroxy-9,10-dioxo-, diacetate;Rhein, diacetate;4,5-Bis(acetyloxy)-9,10-dihydro-9,10-dioxo-2-anthracenecarboxylic acid;1,8-Diacetoxy-3-carboxyanthraquinone;Diacetylrhein;4,5-Diacetylrhein;Diacerhein;Diacerein;4,5-Diacetoxyanthraquinone-2-carboxylic acid;DAR;SF 277;Fisiodar;Artrodar;4,5-Diacetoxy-9,10-dioxoanthracene-2-carboxylic acid;Osteocerein;AC 201;Inflabion",
    "duplicated_cas_no": "",
    "SMILES": "O(C(C)=O)C1=C2C(C(=O)C=3C(C2=O)=C(OC(C)=O)C=CC3)=CC(C(O)=O)=C1",
    "meta_data": {
        "InChI": "InChI=1S/C19H12O8/c1-8(20)26-13-5-3-4-11-15(13)18(23)16-12(17(11)22)6-10(19(24)25)7-14(16)27-9(2)21/h3-7H,1-2H3,(H,24,25)",
        "InChIKey": null,
        "Canonical SMILES": "O=C(O)C1=CC(OC(=O)C)=C2C(=O)C=3C(OC(=O)C)=CC=CC3C(=O)C2=C1",
        "Molecular Formula": "C<sub>19</sub>H<sub>12</sub>O<sub>8</sub>",
        "Molecular Mass": "368.29",
        "Melting Point": "217.5 °C"
    }
}