{
    "cas_no": "399-68-8",
    "key_name": "4-Fluoro-1<em>H</em>-indole-2-carboxylic acid",
    "cn_name": "4-氟吲哚-2-甲酸;",
    "alternate_name": "1<em>H</em>-Indole-2-carboxylic acid, 4-fluoro-;Indole-2-carboxylic acid, 4-fluoro-;4-Fluoro-1<em>H</em>-indole-2-carboxylic acid",
    "duplicated_cas_no": "",
    "SMILES": "FC1=C2C(NC(C(O)=O)=C2)=CC=C1",
    "meta_data": {
        "InChI": "InChI=1S/C9H6FNO2/c10-6-2-1-3-7-5(6)4-8(11-7)9(12)13/h1-4,11H,(H,12,13)",
        "InChIKey": null,
        "Canonical SMILES": "O=C(O)C1=CC=2C(F)=CC=CC2N1",
        "Molecular Formula": "C<sub>9</sub>H<sub>6</sub>FNO<sub>2</sub>",
        "Molecular Mass": "179.15",
        "Melting Point": "219-220 °C (decomp)"
    }
}