{
    "cas_no": "2234-16-4",
    "key_name": "2′,4′-Dichloroacetophenone",
    "cn_name": "2,4-二氯苯乙酮;",
    "alternate_name": "Ethanone, 1-(2,4-dichlorophenyl)-;Acetophenone, 2′,4′-dichloro-;1-(2,4-Dichlorophenyl)ethanone;2′,4′-Dichloroacetophenone;<em>p</em>-Chloro-2-chloroacetophenone;<em>o</em>,<em>p</em>-Dichloroacetophenone;NSC 33945;2-Acetyl-5-chlorophenyl chloride;2,4-Dichlorophenyl methyl ketone;1-(2,4-Dichlorophenyl)ethan-1-one",
    "duplicated_cas_no": "",
    "SMILES": "C(C)(=O)C1=C(Cl)C=C(Cl)C=C1",
    "meta_data": {
        "InChI": "InChI=1S/C8H6Cl2O/c1-5(11)7-3-2-6(9)4-8(7)10/h2-4H,1H3",
        "InChIKey": null,
        "Canonical SMILES": "O=C(C1=CC=C(Cl)C=C1Cl)C",
        "Molecular Formula": "C<sub>8</sub>H<sub>6</sub>Cl<sub>2</sub>O",
        "Molecular Mass": "189.04",
        "Boiling Point": "140-150 °C @ Press: 115 Torr",
        "Melting Point": "33.5 °C",
        "Density": "1.322 g/cm³ @ Temp: 22 °C"
    }
}