{
    "cas_no": "141-93-5",
    "key_name": "1,3-Diethylbenzene",
    "cn_name": "1,3-二乙基苯;间二乙基苯;",
    "alternate_name": "Benzene, 1,3-diethyl-;Benzene, <em>m</em>-diethyl-;1,3-Diethylbenzene;<em>m</em>-Diethylbenzene;<em>m</em>-Ethylethylbenzene;m-Diethylbenzene;NSC 62102;1-Ethyl-3-ethylbenzene",
    "duplicated_cas_no": "",
    "SMILES": "C(C)C1=CC(CC)=CC=C1",
    "meta_data": {
        "InChI": "InChI=1S/C10H14/c1-3-9-6-5-7-10(4-2)8-9/h5-8H,3-4H2,1-2H3",
        "InChIKey": null,
        "Canonical SMILES": "C=1C=C(C=C(C1)CC)CC",
        "Molecular Formula": "C<sub>10</sub>H<sub>14</sub>",
        "Molecular Mass": "134.22",
        "Boiling Point": "181.1 °C",
        "Melting Point": "-83.9 °C",
        "Density": "0.8602 g/cm³ @ Temp: 20 °C"
    }
}