{
    "cas_no": "64697-40-1",
    "key_name": "1-Octyl-3-methylimidazolium chloride",
    "cn_name": "1-辛基-3-甲基咪唑氯化物;1-甲基-3-辛基氯化咪唑翁;",
    "alternate_name": "1<em>H</em>-Imidazolium, 1-methyl-3-octyl-, chloride (1:1);1<em>H</em>-Imidazolium, 1-methyl-3-octyl-, chloride;1-Methyl-3-octylimidazolium chloride;1-Octyl-3-methylimidazolium chloride;1-Methyl-3-octyl-1<em>H</em>-imidazolium chloride;3-Methyl-1-octylimidazolium chloride;1-Methyl-3-<em>n</em>-octylimidazolium Chloride",
    "duplicated_cas_no": "",
    "SMILES": "C(CCCCCCC)[N+]1=CN(C)C=C1.[Cl-]",
    "meta_data": {
        "InChI": "InChI=1S/C12H23N2.ClH/c1-3-4-5-6-7-8-9-14-11-10-13(2)12-14;/h10-12H,3-9H2,1-2H3;1H/q+1;/p-1",
        "InChIKey": null,
        "Canonical SMILES": "[Cl-].C1=C[N+](=CN1C)CCCCCCCC",
        "Molecular Formula": "C<sub>12</sub>H<sub>23</sub>N<sub>2</sub>.Cl",
        "Molecular Mass": "",
        "Melting Point": "12.26 °C",
        "Density": "1.00594 g/cm³ @ Temp: 30.00 °C"
    }
}