{
    "cas_no": "22260-51-1",
    "key_name": "Bromocriptine mesylate",
    "cn_name": "甲磺酸溴隐亭;2-溴-alpha-麦角环肽甲磺酸盐;",
    "alternate_name": "Ergotaman-3′,6′,18-trione, 2-bromo-12′-hydroxy-2′-(1-methylethyl)-5′-(2-methylpropyl)-, (5α)-, methanesulfonate (1:1);Ergocryptine, 2-bromo-, monomethanesulfonate (salt);Ergotaman-3′,6′,18-trione, 2-bromo-12′-hydroxy-2′-(1-methylethyl)-5′-(2-methylpropyl)-, (5′α)-, monomethanesulfonate (salt);Indolo[4,3-<em>fg</em>]quinoline, ergotaman-3′,6′,18-trione deriv.;8<em>H</em>-Oxazolo[3,2-<em>a</em>]pyrrolo[2,1-<em>c</em>]pyrazine, ergotaman-3′,6′,18-trione deriv.;Bromocriptine mesylate;Bromocriptine methanesulfonate;Parlodel;Bromocryptine mesylate;CB 154;Bromocryptine methanesulfonate;Pravidel;Bagren;(+)-Bromocriptine methanesulfonate;Cycloset",
    "duplicated_cas_no": "127931-10-6;25614-04-4;35925-33-8;58181-56-9;71185-16-5",
    "SMILES": "O[C@]12N(C(=O)[C@@](NC(=O)[C@@H]3C=C4C=5C=6C(C[C@]4(N(C)C3)[H])=C(Br)NC6C=CC5)(C(C)C)O1)[C@@H](CC(C)C)C(=O)N7[C@]2(CCC7)[H].S(C)(=O)(=O)O",
    "meta_data": {
        "InChI": "InChI=1S/C32H40BrN5O5.CH4O3S/c1-16(2)12-24-29(40)37-11-7-10-25(37)32(42)38(24)30(41)31(43-32,17(3)4)35-28(39)18-13-20-19-8-6-9-22-26(19)21(27(33)34-22)14-23(20)36(5)15-18;1-5(2,3)4/h6,8-9,13,16-18,23-25,34,42H,7,10-12,14-15H2,1-5H3,(H,35,39);1H3,(H,2,3,4)/t18-,23-,24+,25+,31-,32+;/m1./s1",
        "InChIKey": null,
        "Canonical SMILES": "O=C(NC1(OC2(O)N(C1=O)C(C(=O)N3CCCC32)CC(C)C)C(C)C)C4C=C5C=6C=CC=C7NC(Br)=C(C76)CC5N(C)C4.O=S(=O)(O)C",
        "Molecular Formula": "C<sub>32</sub>H<sub>40</sub>BrN<sub>5</sub>O<sub>5</sub>.CH<sub>4</sub>O<sub>3</sub>S",
        "Molecular Mass": "",
        "Melting Point": "192-196 °C (decomp)"
    }
}