{
    "cas_no": "404-86-4",
    "key_name": "Capsaicin",
    "cn_name": null,
    "alternate_name": "6-Nonenamide, <em>N</em>-[(4-hydroxy-3-methoxyphenyl)methyl]-8-methyl-, (6<em>E</em>)-;Capsaicin;6-Nonenamide, 8-methyl-<em>N</em>-vanillyl-, (<em>E</em>)-;6-Nonenamide, <em>N</em>-[(4-hydroxy-3-methoxyphenyl)methyl]-8-methyl-, (<em>E</em>)-;(6<em>E</em>)-<em>N</em>-[(4-Hydroxy-3-methoxyphenyl)methyl]-8-methyl-6-nonenamide;Capsaicine;(<em>E</em>)-<em>N</em>-(4-Hydroxy-3-methoxybenzyl)-8-methylnon-6-enamide;Ratden PE 40;Zostrix;Capsin P 50;Mioton;<em>trans</em>-8-Methyl-N-vanillyl-6-nonenamide;Axsain;NSC 56353;Dolenon;<em>N</em>-(4-Oxy-3-methoxybenzyl)-8-methyl-6-nonenamide;Togarashi Orenji;<em>E</em>-Capsaicin;ALGRX 4975;Capzasin-HP;NGX 4010;Adlea;Ovocap;Qutenza;Ausanil;trans-Capsaicin;Chilli Orange;(E)-8-Methyl-N-vanillyl-6-nonenamide;Capsicin;MeSH ID: D002211",
    "duplicated_cas_no": "912457-62-6",
    "SMILES": "C(NC(CCCC/C=C/C(C)C)=O)C1=CC(OC)=C(O)C=C1",
    "meta_data": {
        "InChI": "InChI=1S/C18H27NO3/c1-14(2)8-6-4-5-7-9-18(21)19-13-15-10-11-16(20)17(12-15)22-3/h6,8,10-12,14,20H,4-5,7,9,13H2,1-3H3,(H,19,21)/b8-6+",
        "InChIKey": null,
        "Canonical SMILES": "O=C(NCC1=CC=C(O)C(OC)=C1)CCCCC=CC(C)C",
        "Molecular Formula": "C<sub>18</sub>H<sub>27</sub>NO<sub>3</sub>",
        "Molecular Mass": "305.41",
        "Boiling Point": "210-220 °C @ Press: 0.01 Torr",
        "Melting Point": "65 °C"
    }
}