{
    "cas_no": "503612-76-8",
    "key_name": "4,5,6,7-Tetrahydro-1-(4-hydroxyphenyl)-7-oxo-6-[4-(2-oxo-1-piperidinyl)phenyl]-1<em>H</em>-pyrazolo[3,4-<em>c</em>]pyridine-3-carboxamide",
    "cn_name": null,
    "alternate_name": "1<em>H</em>-Pyrazolo[3,4-<em>c</em>]pyridine-3-carboxamide, 4,5,6,7-tetrahydro-1-(4-hydroxyphenyl)-7-oxo-6-[4-(2-oxo-1-piperidinyl)phenyl]-;4,5,6,7-Tetrahydro-1-(4-hydroxyphenyl)-7-oxo-6-[4-(2-oxo-1-piperidinyl)phenyl]-1<em>H</em>-pyrazolo[3,4-<em>c</em>]pyridine-3-carboxamide;1-(4-Hydroxyphenyl)-7-oxo-6-[4-(2-oxopiperidin-1-yl)phenyl]-4,5,6,7-tetrahydro-1<em>H</em>-pyrazolo[3,4-<em>c</em>]pyridine-3-carboxamide;1-(4-Hydroxyphenyl)-7-oxo-6-[4-(2-oxopiperidin-1-yl)phenyl]-4,5-dihydropyrazolo[3,4-<em>c</em>]pyridine-3-carboxamide",
    "duplicated_cas_no": "",
    "SMILES": "O=C1C=2N(N=C(C(N)=O)C2CCN1C3=CC=C(C=C3)N4C(=O)CCCC4)C5=CC=C(O)C=C5",
    "meta_data": {
        "InChI": "InChI=1S/C24H23N5O4/c25-23(32)21-19-12-14-28(16-6-4-15(5-7-16)27-13-2-1-3-20(27)31)24(33)22(19)29(26-21)17-8-10-18(30)11-9-17/h4-11,30H,1-3,12-14H2,(H2,25,32)",
        "InChIKey": null,
        "Canonical SMILES": "O=C(N)C1=NN(C2=CC=C(O)C=C2)C=3C(=O)N(C4=CC=C(C=C4)N5C(=O)CCCC5)CCC13",
        "Molecular Formula": "C<sub>24</sub>H<sub>23</sub>N<sub>5</sub>O<sub>4</sub>",
        "Molecular Mass": "445.47",
        "Melting Point": "160-165 °C"
    }
}