{
    "cas_no": "35132-20-8",
    "key_name": "1R,2R-1,2-Diphenylethylenediamine",
    "cn_name": "(1R,2R)-1,2-二苯基乙二胺;",
    "alternate_name": "1,2-Ethanediamine, 1,2-diphenyl-, (1<em>R</em>,2<em>R</em>)-;1,2-Ethanediamine, 1,2-diphenyl-, [<em>R</em>-(<em>R</em>*,<em>R</em>*)]-;(1<em>R</em>,2<em>R</em>)-1,2-Diphenyl-1,2-ethanediamine;(<em>R</em>,<em>R</em>)-(+)-Stilbenediamine;(+)-Stilbenediamine;(<em>R</em>,<em>R</em>)-1,2-Diphenylethylenediamine;(+)-1,2-Diphenylethylenediamine;(1<em>R</em>,2<em>R</em>)-(+)-Diphenylethylenediamine;(<em>R</em>,<em>R</em>)-1,2-Diamino-1,2-diphenylethane;(1<em>R</em>,2<em>R</em>)-(+)-1,2-Diphenylethylenediamine;(<em>R</em>,<em>R</em>)-1,2-Diphenyl-1,2-ethanediamine;1<em>R</em>,2<em>R</em>-(+)-1,2-Diphenylethanediamine;(1<em>R</em>,2<em>R</em>)-1,2-Diamino-1,2-diphenylethane;(1<em>R</em>,2<em>R</em>)-Diphenylethylenediamine;(1<em>R</em>,2<em>R</em>)-1,2-Diphenylethylenediamine;(1<em>R</em>,2<em>R</em>)-Diphenylethanediamine;1R,2R-1,2-Diphenylethylenediamine;(<em>R</em>,<em>R</em>)-DPEN;((1<em>R</em>,2<em>R</em>)-2-Amino-1,2-diphenylethyl)amine;(R,R)-1,2-Diphenyl-1,2-diaminoethane;(<em>R</em>,<em>R</em>)-(+)-1,2-Diphenyl-1,2-diaminoethane;(1R,2R)-1,2-Diphenylethane-1,2-diamine;(1R,2R)-(+)-1,2-Diphenyl-1,2-diaminoethane;(R,R)-1,2-Diamino-1,2-diphenylethane;(1R,2R)-1,2-Diphenylethan-1,2-diamine;(R,R)-1,2-Diphenyl-1,2-ethanediamine;(1R,2R)-1,2-Diphenylethylendiamine;(1R,2R)-(+)-1,2-Diphenyl-1,2-ethylenediamine",
    "duplicated_cas_no": "",
    "SMILES": "[C@@H]([C@H](N)C1=CC=CC=C1)(N)C2=CC=CC=C2",
    "meta_data": {
        "InChI": "InChI=1S/C14H16N2/c15-13(11-7-3-1-4-8-11)14(16)12-9-5-2-6-10-12/h1-10,13-14H,15-16H2/t13-,14-/m1/s1",
        "InChIKey": null,
        "Canonical SMILES": "NC(C=1C=CC=CC1)C(N)C=2C=CC=CC2",
        "Molecular Formula": "C<sub>14</sub>H<sub>16</sub>N<sub>2</sub>",
        "Molecular Mass": "212.29",
        "Melting Point": "78-82 °C"
    }
}