{
    "cas_no": "870-24-6",
    "key_name": "2-Chloroethylamine hydrochloride",
    "cn_name": "2-氯乙胺盐酸盐;",
    "alternate_name": "Ethanamine, 2-chloro-, hydrochloride (1:1);Ethylamine, 2-chloro-, hydrochloride;Ethanamine, 2-chloro-, hydrochloride;2-Chloroethylamine hydrochloride;β-Chloroethylamine hydrochloride;1-Amino-2-chloroethane hydrochloride;2-Aminoethyl chloride hydrochloride;2-Chloroethanamine hydrochloride;2-Chloroethylamine monohydrochloride;2-Chloroethan-1-amine hydrochloride",
    "duplicated_cas_no": "2322361-63-5;2489256-49-5;2589092-85-1",
    "SMILES": "C(CN)Cl.Cl",
    "meta_data": {
        "InChI": "InChI=1S/C2H6ClN.ClH/c3-1-2-4;/h1-2,4H2;1H",
        "InChIKey": null,
        "Canonical SMILES": "Cl.ClCCN",
        "Molecular Formula": "C<sub>2</sub>H<sub>6</sub>ClN.ClH",
        "Molecular Mass": "",
        "Melting Point": "144 °C"
    }
}