{
    "cas_no": "2060-64-2",
    "key_name": "Benzo[<em>b</em>]thiophene-5-carboxylic acid",
    "cn_name": "1-苯并噻吩-5-羧酸;",
    "alternate_name": "Benzo[<em>b</em>]thiophene-5-carboxylic acid;1-Benzothiophene-5-carboxylic acid;Benzothiophene-5-carboxylic acid",
    "duplicated_cas_no": "",
    "SMILES": "C(O)(=O)C=1C=C2C(=CC1)SC=C2",
    "meta_data": {
        "InChI": "InChI=1S/C9H6O2S/c10-9(11)7-1-2-8-6(5-7)3-4-12-8/h1-5H,(H,10,11)",
        "InChIKey": null,
        "Canonical SMILES": "O=C(O)C=1C=CC=2SC=CC2C1",
        "Molecular Formula": "C<sub>9</sub>H<sub>6</sub>O<sub>2</sub>S",
        "Molecular Mass": "178.21",
        "Melting Point": "207-208 °C"
    }
}