{
    "cas_no": "55682-92-3",
    "key_name": "Methyl octacosanoate",
    "cn_name": "二十八烷酸甲酯;二十八烷酸甲酯;甲基二十八烷酸酯;",
    "alternate_name": "Octacosanoic acid, methyl ester;Methyl octacosanoate;Methyl montanate;Montanic acid methyl ester",
    "duplicated_cas_no": "",
    "SMILES": "C(CCCCCCCCCCCCCCCCCCCCC)CCCCCC(OC)=O",
    "meta_data": {
        "InChI": "InChI=1S/C29H58O2/c1-3-4-5-6-7-8-9-10-11-12-13-14-15-16-17-18-19-20-21-22-23-24-25-26-27-28-29(30)31-2/h3-28H2,1-2H3",
        "InChIKey": null,
        "Canonical SMILES": "O=C(OC)CCCCCCCCCCCCCCCCCCCCCCCCCCC",
        "Molecular Formula": "C<sub>29</sub>H<sub>58</sub>O<sub>2</sub>",
        "Molecular Mass": "438.77",
        "Melting Point": "66 °C"
    }
}