{
    "cas_no": "87694-50-6",
    "key_name": "1,1-Dimethylethyl <em>N</em>-[(1<em>S</em>)-1-[(methoxymethylamino)carbonyl]-3-methylbutyl]carbamate",
    "cn_name": "N-(叔丁氧基羰基)-L-亮氨酸N-甲氧基-N-甲基酰胺;",
    "alternate_name": "Carbamic acid, <em>N</em>-[(1<em>S</em>)-1-[(methoxymethylamino)carbonyl]-3-methylbutyl]-, 1,1-dimethylethyl ester;Carbamic acid, [1-[(methoxymethylamino)carbonyl]-3-methylbutyl]-, 1,1-dimethylethyl ester, (<em>S</em>)-;Carbamic acid, [(1<em>S</em>)-1-[(methoxymethylamino)carbonyl]-3-methylbutyl]-, 1,1-dimethylethyl ester;1,1-Dimethylethyl <em>N</em>-[(1<em>S</em>)-1-[(methoxymethylamino)carbonyl]-3-methylbutyl]carbamate;(<em>S</em>)-<em>N</em>-Methyl-<em>N</em>-methoxy-2-(<em>tert</em>-butoxycarbonylamino)-4-methylpentanamide;<em>tert</em>-Butyl [(<em>S</em>)-1-[methoxy(methyl)amino]-4-methyl-1-oxopentan-2-yl]carbamate;<em>tert</em>-Butyl [(2S)-1-[methoxy(methyl)amino]-4-methyl-1-oxopentan-2-yl]carbamate",
    "duplicated_cas_no": "",
    "SMILES": "[C@@H](NC(OC(C)(C)C)=O)(C(N(OC)C)=O)CC(C)C",
    "meta_data": {
        "InChI": "InChI=1S/C13H26N2O4/c1-9(2)8-10(11(16)15(6)18-7)14-12(17)19-13(3,4)5/h9-10H,8H2,1-7H3,(H,14,17)/t10-/m0/s1",
        "InChIKey": null,
        "Canonical SMILES": "O=C(OC(C)(C)C)NC(C(=O)N(OC)C)CC(C)C",
        "Molecular Formula": "C<sub>13</sub>H<sub>26</sub>N<sub>2</sub>O<sub>4</sub>",
        "Molecular Mass": "274.36",
        "Melting Point": "105-107 °C"
    }
}