{
    "cas_no": "7035-09-8",
    "key_name": "5-Chloro-2-methoxybenzaldehyde",
    "cn_name": "5-氯-2-甲氧基苯甲醛;",
    "alternate_name": "Benzaldehyde, 5-chloro-2-methoxy-;<em>o</em>-Anisaldehyde, 5-chloro-;5-Chloro-2-methoxybenzaldehyde;3-Chloro-6-methoxybenzaldehyde;2-Methoxy-5-chlorobenzaldehyde",
    "duplicated_cas_no": "",
    "SMILES": "O(C)C1=C(C=O)C=C(Cl)C=C1",
    "meta_data": {
        "InChI": "InChI=1S/C8H7ClO2/c1-11-8-3-2-7(9)4-6(8)5-10/h2-5H,1H3",
        "InChIKey": null,
        "Canonical SMILES": "O=CC1=CC(Cl)=CC=C1OC",
        "Molecular Formula": "C<sub>8</sub>H<sub>7</sub>ClO<sub>2</sub>",
        "Molecular Mass": "170.59",
        "Boiling Point": "152 °C @ Press: 15 Torr",
        "Melting Point": "81 °C"
    }
}