{
    "cas_no": "103-30-0",
    "key_name": "<em>trans</em>-Stilbene",
    "cn_name": null,
    "alternate_name": "Benzene, 1,1′-(1<em>E</em>)-1,2-ethenediylbis-;Stilbene, (<em>E</em>)-;Benzene, 1,1′-(1,2-ethenediyl)bis-, (<em>E</em>)-;Stilbene, <em>trans</em>-;1,1′-(1<em>E</em>)-1,2-Ethenediylbis[benzene];<em>trans</em>-α,β-Diphenylethylene;<em>trans</em>-1,2-Diphenylethylene;<em>trans</em>-Stilbene;<em>trans</em>-1,2-Diphenylethene;(<em>E</em>)-1,2-Diphenylethylene;<em>trans</em>-Diphenylethene;(<em>E</em>)-1,2-Diphenylethene;(<em>E</em>)-Stilbene;NSC 2069",
    "duplicated_cas_no": "",
    "SMILES": "C(=C/C1=CC=CC=C1)\\C2=CC=CC=C2",
    "meta_data": {
        "InChI": "InChI=1S/C14H12/c1-3-7-13(8-4-1)11-12-14-9-5-2-6-10-14/h1-12H/b12-11+",
        "InChIKey": null,
        "Canonical SMILES": "C=1C=CC(=CC1)C=CC=2C=CC=CC2",
        "Molecular Formula": "C<sub>14</sub>H<sub>12</sub>",
        "Molecular Mass": "180.25",
        "Boiling Point": "306-307 °C @ Press: 760 Torr",
        "Melting Point": "124 °C",
        "Density": "0.9707 g/cm³"
    }
}