{
    "cas_no": "31024-56-3",
    "key_name": "<em>N</em>-[3-(Trimethoxysilyl)propyl]-1-butanamine",
    "cn_name": "N-[3-(三甲氧基硅基)丙基]正丁胺;",
    "alternate_name": "1-Butanamine, <em>N</em>-[3-(trimethoxysilyl)propyl]-;Butylamine, <em>N</em>-[3-(trimethoxysilyl)propyl]-;<em>N</em>-[3-(Trimethoxysilyl)propyl]-1-butanamine;<em>N</em>-Butyl-3-(trimethoxysilyl)propylamine;(Butylaminopropyl)trimethoxysilane;Dynasylan 1189;[3-(Butylamino)propyl]trimethoxysilane;X 12-806;SIB 1932.2;<em>N</em>-(<em>n</em>-Butyl)-3-aminopropyltrimethoxysilane;HD 125;<em>N</em>-(<em>n</em>-Butyl)-γ-aminopropyltrimethoxysilane;<em>N</em>-(3-Butylaminopropyl)trimethoxysilane;<em>N</em>-Butyl-<em>N</em>-(3-trimethoxysilylpropyl)amine;γ-<em>N</em>-Butylaminopropyltrimethoxysilane;<em>N</em>-(3-(Trimethoxysilyl)propyl)butylamine;<em>n</em>-Butylaminopropyltrimethoxysilane;A 301B;SCA-A 64M;<em>N</em>-[3-(Trimethoxysilyl)propyl]-1-butaneamine;UP 905;SCA 3303;Dynasylan A 1189",
    "duplicated_cas_no": "372488-11-4;2797259-25-5",
    "SMILES": "[Si](CCCNCCCC)(OC)(OC)OC",
    "meta_data": {
        "InChI": "InChI=1S/C10H25NO3Si/c1-5-6-8-11-9-7-10-15(12-2,13-3)14-4/h11H,5-10H2,1-4H3",
        "InChIKey": null,
        "Canonical SMILES": "O(C)[Si](OC)(OC)CCCNCCCC",
        "Molecular Formula": "C<sub>10</sub>H<sub>25</sub>NO<sub>3</sub>Si",
        "Molecular Mass": "235.40",
        "Boiling Point": "238 °C",
        "Density": "0.947 g/cm³"
    }
}