{
    "cas_no": "438-60-8",
    "key_name": "Protriptyline",
    "cn_name": "普罗替林;丙胺环庚烯;",
    "alternate_name": "5<em>H</em>-Dibenzo[<em>a</em>,<em>d</em>]cycloheptene-5-propanamine, <em>N</em>-methyl-;5<em>H</em>-Dibenzo[<em>a</em>,<em>d</em>]cycloheptene-5-propylamine, <em>N</em>-methyl-;<em>N</em>-Methyl-5<em>H</em>-dibenzo[<em>a</em>,<em>d</em>]cycloheptene-5-propanamine;MK 240;<em>N</em>-3-(5<em>H</em>-Dibenzo[<em>a</em>,<em>d</em>]cyclohepten-5-yl)propyl-<em>N</em>-methylamine;5-(3-Methylaminopropyl)-5<em>H</em>-dibenzo[<em>a</em>,<em>d</em>]cycloheptene;Protriptyline;Protryptyline;Triptil;<em>N</em>-Methyl-5<em>H</em>-dibenzo[<em>a</em>,<em>d</em>]cycloheptene-5-propylamine;7-(3-Methylaminopropyl)-1,2:5,6-dibenzocycloheptatriene;Amimetilina;MeSH ID: D011530",
    "duplicated_cas_no": "",
    "SMILES": "C(CCNC)C1C=2C(C=CC=3C1=CC=CC3)=CC=CC2",
    "meta_data": {
        "InChI": "InChI=1S/C19H21N/c1-20-14-6-11-19-17-9-4-2-7-15(17)12-13-16-8-3-5-10-18(16)19/h2-5,7-10,12-13,19-20H,6,11,14H2,1H3",
        "InChIKey": null,
        "Canonical SMILES": "C=1C=CC2=C(C1)C=CC=3C=CC=CC3C2CCCNC",
        "Molecular Formula": "C<sub>19</sub>H<sub>21</sub>N",
        "Molecular Mass": "263.38",
        "Boiling Point": "163-164 °C @ Press: 0.35 Torr"
    }
}