{
    "cas_no": "102518-79-6",
    "key_name": "Huperzine A",
    "cn_name": "石杉碱甲;",
    "alternate_name": "5,9-Methanocycloocta[<em>b</em>]pyridin-2(1<em>H</em>)-one, 5-amino-11-ethylidene-5,6,9,10-tetrahydro-7-methyl-, (5<em>R</em>,9<em>R</em>,11<em>E</em>)-;5,9-Methanocycloocta[<em>b</em>]pyridin-2(1<em>H</em>)-one, 5-amino-11-ethylidene-5,6,9,10-tetrahydro-7-methyl-, [5<em>R</em>-(5α,9β,11<em>E</em>)]-;Selagine;(5<em>R</em>,9<em>R</em>,11<em>E</em>)-5-Amino-11-ethylidene-5,6,9,10-tetrahydro-7-methyl-5,9-methanocycloocta[<em>b</em>]pyridin-2(1<em>H</em>)-one;Huperzine A;(-)-Huperzine A;(-)-Selagine;Kimpukan A;Hupzine A;Hup A;Huperzine",
    "duplicated_cas_no": "116-28-9;1369-64-8;475473-11-1",
    "SMILES": "N[C@@]\\12C3=C(C[C@@](/C1=C\\C)(C=C(C)C2)[H])NC(=O)C=C3",
    "meta_data": {
        "InChI": "InChI=1S/C15H18N2O/c1-3-11-10-6-9(2)8-15(11,16)12-4-5-14(18)17-13(12)7-10/h3-6,10H,7-8,16H2,1-2H3,(H,17,18)/b11-3+/t10-,15+/m0/s1",
        "InChIKey": null,
        "Canonical SMILES": "O=C1C=CC2=C(N1)CC3C=C(C)CC2(N)C3=CC",
        "Molecular Formula": "C<sub>15</sub>H<sub>18</sub>N<sub>2</sub>O",
        "Molecular Mass": "242.32",
        "Melting Point": "224-226 °C"
    }
}