{
    "cas_no": "75-63-8",
    "key_name": "Bromotrifluoromethane",
    "cn_name": "三氟溴甲烷;三氟-溴甲烷;",
    "alternate_name": "Methane, bromotrifluoro-;Bromotrifluoromethane;Halon 1301;Bromofluoroform;Freon 13B1;Trifluoromonobromomethane;Trifluorobromomethane;Trifluoromethyl bromide;F 13B1;Monobromotrifluoromethane;R 13B1;FC 13B1;Fluorocarbon 1301;Flugex 13B1;Carbon monobromide trifluoride;Khladon 13B1;Refrigerant 13B1;FKWR 13B1;CFC 13B1;Daiflon 13B1;Carbon bromide fluoride (CBrF<sub>3</sub>);Perfluoromethyl bromide;Halon 13B1",
    "duplicated_cas_no": "62395-25-9;1452383-17-3;1519044-51-9;1802169-93-2",
    "SMILES": "C(Br)(F)(F)F",
    "meta_data": {
        "InChI": "InChI=1S/CBrF3/c2-1(3,4)5",
        "InChIKey": null,
        "Canonical SMILES": "FC(F)(F)Br",
        "Molecular Formula": "CBrF<sub>3</sub>",
        "Molecular Mass": "148.91",
        "Boiling Point": "-57.8 °C @ Press: 760 Torr",
        "Melting Point": "-172 °C",
        "Density": "1.5 g/cm³"
    }
}