{
    "cas_no": "141-92-4",
    "key_name": "Hydroxycitronellal dimethyl acetal",
    "cn_name": "8,8-二甲氧基-2,6-二甲基-2-辛醇;羟基香茅醛缩二甲醇;",
    "alternate_name": "2-Octanol, 8,8-dimethoxy-2,6-dimethyl-;Octanal, 7-hydroxy-3,7-dimethyl-, dimethyl acetal;8,8-Dimethoxy-2,6-dimethyl-2-octanol;1,1-Dimethoxy-3,7-dimethyloctan-7-ol;Hydroxycitronellal dimethyl acetal;7-Hydroxy-3,7-dimethyloctanal, dimethyl acetal;Laurine dimethyl acetal;NSC 76412",
    "duplicated_cas_no": "",
    "SMILES": "C(C(OC)OC)C(CCCC(C)(C)O)C",
    "meta_data": {
        "InChI": "InChI=1S/C12H26O3/c1-10(9-11(14-4)15-5)7-6-8-12(2,3)13/h10-11,13H,6-9H2,1-5H3",
        "InChIKey": null,
        "Canonical SMILES": "OC(C)(C)CCCC(C)CC(OC)OC",
        "Molecular Formula": "C<sub>12</sub>H<sub>26</sub>O<sub>3</sub>",
        "Molecular Mass": "218.33",
        "Boiling Point": "71 °C @ Press: 0.01 Torr",
        "Density": "0.938 g/cm³ @ Temp: 20 °C"
    }
}