{
    "cas_no": "3354-58-3",
    "key_name": "2-Methyl-6-(2-propen-1-yl)phenol",
    "cn_name": "2-烯丙基-6-甲基苯酚;",
    "alternate_name": "Phenol, 2-methyl-6-(2-propen-1-yl)-;<em>o</em>-Cresol, 6-allyl-;Phenol, 2-methyl-6-(2-propenyl)-;2-Methyl-6-(2-propen-1-yl)phenol;2-Allyl-6-methylphenol;6-Allyl-<em>o</em>-cresol;6-Allyl-2-cresol;6-Allyl-2-methylphenol;2-Methyl-6-(2-propenyl)phenol;NSC 60286;2-Methyl-6-allylphenol",
    "duplicated_cas_no": "",
    "SMILES": "C(C=C)C1=C(O)C(C)=CC=C1",
    "meta_data": {
        "InChI": "InChI=1S/C10H12O/c1-3-5-9-7-4-6-8(2)10(9)11/h3-4,6-7,11H,1,5H2,2H3",
        "InChIKey": null,
        "Canonical SMILES": "OC=1C(=CC=CC1CC=C)C",
        "Molecular Formula": "C<sub>10</sub>H<sub>12</sub>O",
        "Molecular Mass": "148.20",
        "Boiling Point": "232 °C",
        "Melting Point": "77 °C",
        "Density": "1.014 g/cm³ @ Temp: 20 °C"
    }
}