{
    "cas_no": "4443-26-9",
    "key_name": "1,3-Dihydro-1,3-dioxo-2<em>H</em>-isoindole-2-hexanoic acid",
    "cn_name": null,
    "alternate_name": "2<em>H</em>-Isoindole-2-hexanoic acid, 1,3-dihydro-1,3-dioxo-;2-Isoindolinehexanoic acid, 1,3-dioxo-;1,3-Dihydro-1,3-dioxo-2<em>H</em>-isoindole-2-hexanoic acid;Phthalimidocapronic acid;ω-Phthalimidocaproic acid;6-Phthalimidohexanoic acid;ε-Phthalimidocaproic acid;6-(1,3-Dioxo-1,3-dihydroisoindol-2-yl)hexanoic acid;6-(1,3-Dioxoisoindolin-2-yl)hexanoic acid",
    "duplicated_cas_no": "",
    "SMILES": "O=C1C=2C(C(=O)N1CCCCCC(O)=O)=CC=CC2",
    "meta_data": {
        "InChI": "InChI=1S/C14H15NO4/c16-12(17)8-2-1-5-9-15-13(18)10-6-3-4-7-11(10)14(15)19/h3-4,6-7H,1-2,5,8-9H2,(H,16,17)",
        "InChIKey": null,
        "Canonical SMILES": "O=C(O)CCCCCN1C(=O)C=2C=CC=CC2C1=O",
        "Molecular Formula": "C<sub>14</sub>H<sub>15</sub>NO<sub>4</sub>",
        "Molecular Mass": "261.27",
        "Boiling Point": "239-240 °C @ Press: 3 Torr",
        "Melting Point": "107 °C"
    }
}