{
    "cas_no": "2432-99-7",
    "key_name": "Aminoundecanoic acid",
    "cn_name": "11-氨基十一酸;11-氨基十一烷酸;",
    "alternate_name": "Undecanoic acid, 11-amino-;11-Aminoundecanoic acid;NSC 240503;NSC 662428;Aminoundecanoic acid",
    "duplicated_cas_no": "84029-94-7",
    "SMILES": "C(CCCCCCCN)CCC(O)=O",
    "meta_data": {
        "InChI": "InChI=1S/C11H23NO2/c12-10-8-6-4-2-1-3-5-7-9-11(13)14/h1-10,12H2,(H,13,14)",
        "InChIKey": null,
        "Canonical SMILES": "O=C(O)CCCCCCCCCCN",
        "Molecular Formula": "C<sub>11</sub>H<sub>23</sub>NO<sub>2</sub>",
        "Molecular Mass": "201.31",
        "Melting Point": "191 °C"
    }
}