{
    "cas_no": "25137-00-2",
    "key_name": "(-)-Nipecotic acid",
    "cn_name": "(R)-(-)-哌啶-3-甲酸;",
    "alternate_name": "3-Piperidinecarboxylic acid, (3<em>R</em>)-;Nipecotic acid, (<em>R</em>)-(-)-;3-Piperidinecarboxylic acid, (<em>R</em>)-;(3<em>R</em>)-3-Piperidinecarboxylic acid;(-)-Nipecotic acid;<em>R</em>-(-)-Nipecotic acid;(<em>R</em>)-Nipecotic acid;<span class=\"text-smallcaps\">L</span>-Nipecotic acid;<span class=\"text-smallcaps\">L</span>-(-)-Nipecotic acid;(<em>R</em>)-3-Piperidinecarboxylic acid;(3R)-Piperidine-3-carboxylic acid;(R)-(-)-Nipecotic acid",
    "duplicated_cas_no": "262853-93-0",
    "SMILES": "C(O)(=O)[C@@H]1CCCNC1",
    "meta_data": {
        "InChI": "InChI=1S/C6H11NO2/c8-6(9)5-2-1-3-7-4-5/h5,7H,1-4H2,(H,8,9)/t5-/m1/s1",
        "InChIKey": null,
        "Canonical SMILES": "O=C(O)C1CNCCC1",
        "Molecular Formula": "C<sub>6</sub>H<sub>11</sub>NO<sub>2</sub>",
        "Molecular Mass": "129.16",
        "Melting Point": "259-260 °C"
    }
}