{
    "cas_no": "1321-94-4",
    "key_name": "Methylnaphthalene",
    "cn_name": null,
    "alternate_name": "Naphthalene, methyl-;Methylnaphthalene;Tetrosin MNLF;Dycar MN;Monomethylnaphthalene;Sure-Sol 187",
    "duplicated_cas_no": "",
    "SMILES": "",
    "meta_data": {
        "InChI": "",
        "InChIKey": null,
        "Canonical SMILES": "",
        "Molecular Formula": "C<sub>11</sub>H<sub>10</sub>",
        "Molecular Mass": "",
        "Boiling Point": "240 °C",
        "Melting Point": "34 °C",
        "Density": "1.02015 g/cm³ @ Temp: 20 °C"
    }
}