{
    "cas_no": "7774-34-7",
    "key_name": "Calcium chloride, hexahydrate",
    "cn_name": "氯化钙(六水);六水氯化钙;",
    "alternate_name": "Calcium chloride (CaCl<sub>2</sub>), hexahydrate;Calcium chloride, hexahydrate;Calcium dichloride hexahydrate",
    "duplicated_cas_no": "",
    "SMILES": "[Ca](Cl)Cl.O",
    "meta_data": {
        "InChI": "InChI=1S/Ca.2ClH.6H2O/h;2*1H;6*1H2/q+2;;;;;;;;/p-2",
        "InChIKey": null,
        "Canonical SMILES": "Cl[Ca]Cl.O",
        "Molecular Formula": "CaCl<sub>2</sub>.6H<sub>2</sub>O",
        "Molecular Mass": "",
        "Melting Point": "299 °C",
        "Density": "1.56 g/cm³ (liquid)"
    }
}