{
    "cas_no": "150-19-6",
    "key_name": "3-Methoxyphenol",
    "cn_name": "3-甲氧基苯酚;",
    "alternate_name": "Phenol, 3-methoxy-;Phenol, <em>m</em>-methoxy-;3-Methoxyphenol;<em>m</em>-Methoxyphenol;Resorcinol methyl ether;Resorcinol monomethyl ether;3-Hydroxyanisole;1-Hydroxy-3-methoxybenzene;<em>m</em>-Hydroxyanisole;<em>m</em>-Guaiacol;m-Hydroxyanisole;<em>m</em>-Hydroxyanisol;NSC 21735",
    "duplicated_cas_no": "",
    "SMILES": "O(C)C1=CC(O)=CC=C1",
    "meta_data": {
        "InChI": "InChI=1S/C7H8O2/c1-9-7-4-2-3-6(8)5-7/h2-5,8H,1H3",
        "InChIKey": null,
        "Canonical SMILES": "OC1=CC=CC(OC)=C1",
        "Molecular Formula": "C<sub>7</sub>H<sub>8</sub>O<sub>2</sub>",
        "Molecular Mass": "124.14",
        "Boiling Point": "244 °C",
        "Melting Point": "&lt;-17 °C",
        "Density": "1.052 g/cm³ @ Temp: 13 °C"
    }
}