{
    "cas_no": "90-14-2",
    "key_name": "1-Iodonaphthalene",
    "cn_name": "1-碘萘;alpha-碘萘;",
    "alternate_name": "Naphthalene, 1-iodo-;1-Iodonaphthalene;α-Iodonaphthalene;1-Naphthyl iodide;α-Naphthyl iodide;NSC 9275;Naphthalen-1-yl iodide",
    "duplicated_cas_no": "2222572-00-9",
    "SMILES": "IC=1C2=C(C=CC1)C=CC=C2",
    "meta_data": {
        "InChI": "InChI=1S/C10H7I/c11-10-7-3-5-8-4-1-2-6-9(8)10/h1-7H",
        "InChIKey": null,
        "Canonical SMILES": "IC1=CC=CC=2C=CC=CC12",
        "Molecular Formula": "C<sub>10</sub>H<sub>7</sub>I",
        "Molecular Mass": "254.07",
        "Boiling Point": "302 °C",
        "Melting Point": "4.2 °C",
        "Density": "1.7396 g/cm³ @ Temp: 20.000 °C; Press: 750 Torr"
    }
}