{
    "cas_no": "17302-82-8",
    "key_name": "Ethyl 3,5-dichloro-4-hydroxybenzoate",
    "cn_name": "3,5-二氯-4-羟基苯甲酸乙酯;",
    "alternate_name": "Benzoic acid, 3,5-dichloro-4-hydroxy-, ethyl ester;Ethyl 4-hydroxy-3,5-dichlorobenzoate;Ethyl 3,5-dichloro-4-hydroxybenzoate;3,5-Dichloro-4-hydroxybenzoic acid ethyl ester;NSC 74473",
    "duplicated_cas_no": "",
    "SMILES": "C(OCC)(=O)C1=CC(Cl)=C(O)C(Cl)=C1",
    "meta_data": {
        "InChI": "InChI=1S/C9H8Cl2O3/c1-2-14-9(13)5-3-6(10)8(12)7(11)4-5/h3-4,12H,2H2,1H3",
        "InChIKey": null,
        "Canonical SMILES": "O=C(OCC)C1=CC(Cl)=C(O)C(Cl)=C1",
        "Molecular Formula": "C<sub>9</sub>H<sub>8</sub>Cl<sub>2</sub>O<sub>3</sub>",
        "Molecular Mass": "235.06",
        "Melting Point": "111-112 °C"
    }
}