{
    "cas_no": "931-49-7",
    "key_name": "1-Ethynylcyclohexene",
    "cn_name": "1-乙炔基环己烷;1-乙炔基-环己烷;",
    "alternate_name": "Cyclohexene, 1-ethynyl-;1-Ethynylcyclohexene;1-Ethynyl-1-cyclohexene;(1-Cyclohexenyl)acetylene;1-Cyclohexen-1-ylacetylene;(1-Cyclohexenyl)ethyne;1-Cyclohexen-1-ylethyne;Cyclohex-1-enylacetylene",
    "duplicated_cas_no": "1233883-25-4",
    "SMILES": "C(#C)C=1CCCCC1",
    "meta_data": {
        "InChI": "InChI=1S/C8H10/c1-2-8-6-4-3-5-7-8/h1,6H,3-5,7H2",
        "InChIKey": null,
        "Canonical SMILES": "C#CC1=CCCCC1",
        "Molecular Formula": "C<sub>8</sub>H<sub>10</sub>",
        "Molecular Mass": "106.17",
        "Boiling Point": "145-146 °C",
        "Density": "0.860 g/cm³ @ Temp: 25 °C"
    }
}