{
    "cas_no": "133052-90-1",
    "key_name": "3-[1-[3-(Dimethylamino)propyl]-1<em>H</em>-indol-3-yl]-4-(1<em>H</em>-indol-3-yl)-1<em>H</em>-pyrrole-2,5-dione",
    "cn_name": "3-[1-[3-(二甲氨基)丙基]1H-吲哚-3-基]-4-(吲哚-3-基)1H-吡咯-2,5二酮;",
    "alternate_name": "1<em>H</em>-Pyrrole-2,5-dione, 3-[1-[3-(dimethylamino)propyl]-1<em>H</em>-indol-3-yl]-4-(1<em>H</em>-indol-3-yl)-;3-[1-[3-(Dimethylamino)propyl]-1<em>H</em>-indol-3-yl]-4-(1<em>H</em>-indol-3-yl)-1<em>H</em>-pyrrole-2,5-dione;GF 109203X;Go 6850;Bisindolylmaleimide I;BIM 1;Bis(indolyl)maleimide 1;GF 109203;3-[1-[3-(Dimethylamino)propyl]-1<em>H</em>-indol-3-yl]-4-(1<em>H</em>-indol-3-yl)-1<em>H</em>-pyrrol-2,5-dione",
    "duplicated_cas_no": "634199-82-9;682340-45-0",
    "SMILES": "O=C1C(=C(C(=O)N1)C=2C=3C(NC2)=CC=CC3)C=4C=5C(N(CCCN(C)C)C4)=CC=CC5",
    "meta_data": {
        "InChI": "InChI=1S/C25H24N4O2/c1-28(2)12-7-13-29-15-19(17-9-4-6-11-21(17)29)23-22(24(30)27-25(23)31)18-14-26-20-10-5-3-8-16(18)20/h3-6,8-11,14-15,26H,7,12-13H2,1-2H3,(H,27,30,31)",
        "InChIKey": null,
        "Canonical SMILES": "O=C1NC(=O)C(C2=CN(C=3C=CC=CC23)CCCN(C)C)=C1C4=CNC=5C=CC=CC54",
        "Molecular Formula": "C<sub>25</sub>H<sub>24</sub>N<sub>4</sub>O<sub>2</sub>",
        "Molecular Mass": "412.48",
        "Melting Point": "280 °C (decomp)"
    }
}