{
    "cas_no": "60-54-8",
    "key_name": "(-)-Tetracycline",
    "cn_name": "四环素;四环素碱;",
    "alternate_name": "2-Naphthacenecarboxamide, 4-(dimethylamino)-1,4,4a,5,5a,6,11,12a-octahydro-3,6,10,12,12a-pentahydroxy-6-methyl-1,11-dioxo-, (4<em>S</em>,4a<em>S</em>,5a<em>S</em>,6<em>S</em>,12a<em>S</em>)-;2-Naphthacenecarboxamide, 4-(dimethylamino)-1,4,4a,5,5a,6,11,12a-octahydro-3,6,10,12,12a-pentahydroxy-6-methyl-1,11-dioxo-, [4<em>S</em>-(4α,4aα,5aα,6β,12aα)]-;2-Naphthacenecarboxamide, 4-(dimethylamino)-1,4,4a,5,5a,6,11,12a-octahydro-3,6,10,12,12a-pentahydroxy-6-methyl-1,11-dioxo-;(4<em>S</em>,4a<em>S</em>,5a<em>S</em>,6<em>S</em>,12a<em>S</em>)-4-(Dimethylamino)-1,4,4a,5,5a,6,11,12a-octahydro-3,6,10,12,12a-pentahydroxy-6-methyl-1,11-dioxo-2-naphthacenecarboxamide;Abramycin;Achromycin;Agromicina;Ambramicina;Ambramycin;Cyclomycin;Deschlorobiomycin;Neocycline;Omegamycin;Panmycin;Polycycline;Tetracycline;Tetradecin;Orlycycline;Polycycline (antibiotic);Biocycline;Mericycline;Tetra-Co;Ciclibion;Veracin;Vetacyclinum;Roviciclina;Tetrafil;Achromycin (naphthacene derivative);Cytome;Resteclin;Enterocycline;Limecycline;Micycline;Sumycin syrup;Medocycline;(-)-Tetracycline;Bio-Tetra;NSC 108579;Actisite;Latycin;Steclin V;Tetramykoin;Apo-Tetra;Novo-Tetra;Nu-Tetra;Florocycline;Tetramig;Akne-Pyodron Kur;Akne-Pyodron;Dispatetrin;Quimocyclin N;Sagittacin N;Tetracitro S;Acromicina;Calociclina;Ibicyn;Spaciclina;Tetra-Proter;Tetrabioptal;Tetrafosammina;Arcanacycline;Gammatet;Retet;Britaciclina;Kinciclina;Quimpe Antibiotico;Tetra Hubber;Tetralen;Servitet;Tetraseptine;Triphacycline;Economycin;NorTet;Robitet Robicaps;Tetracap;Tetralan;MeSH ID: D013752",
    "duplicated_cas_no": "6591-49-7;929020-51-9;1172112-85-4",
    "SMILES": "O[C@@]12[C@@](C[C@]3(C(=C1O)C(=O)C=4C([C@@]3(C)O)=CC=CC4O)[H])([C@H](N(C)C)C(O)=C(C(N)=O)C2=O)[H]",
    "meta_data": {
        "InChI": "InChI=1S/C22H24N2O8/c1-21(31)8-5-4-6-11(25)12(8)16(26)13-9(21)7-10-15(24(2)3)17(27)14(20(23)30)19(29)22(10,32)18(13)28/h4-6,9-10,15,25,27-28,31-32H,7H2,1-3H3,(H2,23,30)/t9-,10-,15-,21+,22-/m0/s1",
        "InChIKey": null,
        "Canonical SMILES": "O=C(N)C=1C(=O)C2(O)C(O)=C3C(=O)C=4C(O)=CC=CC4C(O)(C)C3CC2C(C1O)N(C)C",
        "Molecular Formula": "C<sub>22</sub>H<sub>24</sub>N<sub>2</sub>O<sub>8</sub>",
        "Molecular Mass": "444.43",
        "Melting Point": "5-170 °C"
    }
}