{
    "cas_no": "40465-45-0",
    "key_name": "4-Cyanophenyl isocyanate",
    "cn_name": "4-氰基苯异氰酸酯;对氰基苯基异氰酸酯;",
    "alternate_name": "Benzonitrile, 4-isocyanato-;4-Isocyanatobenzonitrile;4-Cyanophenyl isocyanate;<em>p</em>-Cyanophenyl isocyanate;4-Cyano-isocyanatobenzene",
    "duplicated_cas_no": "55021-74-4",
    "SMILES": "N(=C=O)C1=CC=C(C#N)C=C1",
    "meta_data": {
        "InChI": "InChI=1S/C8H4N2O/c9-5-7-1-3-8(4-2-7)10-6-11/h1-4H",
        "InChIKey": null,
        "Canonical SMILES": "N#CC1=CC=C(N=C=O)C=C1",
        "Molecular Formula": "C<sub>8</sub>H<sub>4</sub>N<sub>2</sub>O",
        "Molecular Mass": "144.13",
        "Boiling Point": "129-132 °C @ Press: 12 Torr",
        "Melting Point": "102-102.5 °C"
    }
}