{
    "cas_no": "28782-78-7",
    "key_name": "<em>N</em>-[(1,1-Dimethylethoxy)carbonyl]-<span class=\"text-smallcaps\">L</span>-alanylglycine",
    "cn_name": null,
    "alternate_name": "Glycine, <em>N</em>-[(1,1-dimethylethoxy)carbonyl]-<span class=\"text-smallcaps\">L</span>-alanyl-;Glycine, <em>N</em>-(<em>N</em>-carboxy-<span class=\"text-smallcaps\">L</span>-alanyl)-, <em>N</em>-<em>tert</em>-butyl ester;Glycine, <em>N</em>-[<em>N</em>-[(1,1-dimethylethoxy)carbonyl]-<span class=\"text-smallcaps\">L</span>-alanyl]-;<em>N</em>-[(1,1-Dimethylethoxy)carbonyl]-<span class=\"text-smallcaps\">L</span>-alanylglycine;<em>t</em>-Butoxycarbonyl-<span class=\"text-smallcaps\">L</span>-alanylglycine;<em>N</em>-<em>tert</em>-Butoxycarbonylalanylglycine;<em>N</em>-(<em>tert</em>-Butoxycarbonyl)-<span class=\"text-smallcaps\">L</span>-alanylglycine;2-[(2S)-2-[[(<em>tert</em>-Butoxy)carbonyl]amino]propanamido]acetic acid",
    "duplicated_cas_no": "",
    "SMILES": "N([C@H](C(NCC(O)=O)=O)C)C(OC(C)(C)C)=O",
    "meta_data": {
        "InChI": "InChI=1S/C10H18N2O5/c1-6(8(15)11-5-7(13)14)12-9(16)17-10(2,3)4/h6H,5H2,1-4H3,(H,11,15)(H,12,16)(H,13,14)/t6-/m0/s1",
        "InChIKey": null,
        "Canonical SMILES": "O=C(OC(C)(C)C)NC(C(=O)NCC(=O)O)C",
        "Molecular Formula": "C<sub>10</sub>H<sub>18</sub>N<sub>2</sub>O<sub>5</sub>",
        "Molecular Mass": "246.26",
        "Melting Point": "104-105 °C"
    }
}