{
    "cas_no": "81-07-2",
    "key_name": "Saccharin",
    "cn_name": "糖精;邻磺酰苯甲酰亚胺;",
    "alternate_name": "1,2-Benzisothiazol-3(2<em>H</em>)-one, 1,1-dioxide;1,2-Benzisothiazolin-3-one, 1,1-dioxide;Anhydro-<em>o</em>-sulfaminebenzoic acid;Benzoic sulfimide;Benzoic sulphinide;Benzosulfimide;<em>o</em>-Benzosulfimide;<em>o</em>-Benzoyl sulfimide;1,2-Dihydro-2-ketobenzisosulfonazole;2,3-Dihydro-3-oxobenzisosulfonazole;Garantose;Glucid;Gluside;Saccharin;Saccharin acid;550 Saccharine;Saccharin insoluble;Saccharinol;Saccharinose;Saccharol;<em>o</em>-Sulfobenzimide;<em>o</em>-Sulfobenzoic acid imide;Benzosulfinide;<em>o</em>-Benzoic sulfimide;Saccharine;3-Hydroxybenzisothiazole-<em>S</em>,<em>S</em>-dioxide;3-Benzisothiazolinone 1,1-dioxide;Saccharimide;<em>o</em>-Benzoic acid sulfimide;1,1-Dioxo-1,2-benzisothiazol-3(2<em>H</em>)-one;2,3-Dihydro-1,2-benzisothiazol-3-one-1,1-dioxide;NSC 5349;1,1-Dioxido-3-oxo-2,3-dihydrobenzo[<em>d</em>]isothiazole;1,1-Dioxo-1,2-benzothiazol-3-one;Necta Sweet;Sucram;1,1-Dioxo-1,2-dihydro-1λ*6*-benzo[<em>d</em>]isothiazol-3-one;2,3-Dihydro-1λ6,2-benzothiazole-1,1,3-trione;Benzo[<em>d</em>]isothiazol-3(2<em>H</em>)-one-1,1-dioxide;MeSH ID: D012439",
    "duplicated_cas_no": "126987-83-5;474-91-9;61255-27-4;890126-34-8",
    "SMILES": "O=S1(=O)C=2C(C(=O)N1)=CC=CC2",
    "meta_data": {
        "InChI": "InChI=1S/C7H5NO3S/c9-7-5-3-1-2-4-6(5)12(10,11)8-7/h1-4H,(H,8,9)",
        "InChIKey": null,
        "Canonical SMILES": "O=C1NS(=O)(=O)C=2C=CC=CC12",
        "Molecular Formula": "C<sub>7</sub>H<sub>5</sub>NO<sub>3</sub>S",
        "Molecular Mass": "183.18",
        "Melting Point": "228.8-229.7 °C",
        "Density": "0.828 g/cm³"
    }
}