{
    "cas_no": "540-88-5",
    "key_name": "<em>tert</em>-Butyl acetate",
    "cn_name": "醋酸叔丁酯;",
    "alternate_name": "Acetic acid, 1,1-dimethylethyl ester;Acetic acid, <em>tert</em>-butyl ester;<em>tert</em>-Butyl alcohol, acetate;<em>tert</em>-Butyl acetate;Texaco lead appreciator;1,1-Dimethylethyl acetate;TBAc;NSC 59719;Acetic acid tert-butyl ester;2-Acetoxy-2-methylpropane;<em>tert</em>-Butyl ethanoate",
    "duplicated_cas_no": "",
    "SMILES": "O(C(C)(C)C)C(C)=O",
    "meta_data": {
        "InChI": "InChI=1S/C6H12O2/c1-5(7)8-6(2,3)4/h1-4H3",
        "InChIKey": null,
        "Canonical SMILES": "O=C(OC(C)(C)C)C",
        "Molecular Formula": "C<sub>6</sub>H<sub>12</sub>O<sub>2</sub>",
        "Molecular Mass": "116.16",
        "Boiling Point": "97.8 °C",
        "Melting Point": "&lt;25 °C",
        "Density": "0.8593 g/cm³ @ Temp: 25 °C"
    }
}