{
    "cas_no": "230295-07-5",
    "key_name": "4-Bromo-3-phenyl-5-(trifluoromethyl)-1<em>H</em>-pyrazole",
    "cn_name": null,
    "alternate_name": "1<em>H</em>-Pyrazole, 4-bromo-3-phenyl-5-(trifluoromethyl)-;4-Bromo-3-phenyl-5-(trifluoromethyl)-1<em>H</em>-pyrazole;4-Bromo-3-phenyl-5-trifluoromethylpyrazole",
    "duplicated_cas_no": "",
    "SMILES": "BrC=1C(=NNC1C(F)(F)F)C2=CC=CC=C2",
    "meta_data": {
        "InChI": "InChI=1S/C10H6BrF3N2/c11-7-8(6-4-2-1-3-5-6)15-16-9(7)10(12,13)14/h1-5H,(H,15,16)",
        "InChIKey": null,
        "Canonical SMILES": "FC(F)(F)C=1NN=C(C=2C=CC=CC2)C1Br",
        "Molecular Formula": "C<sub>10</sub>H<sub>6</sub>BrF<sub>3</sub>N<sub>2</sub>",
        "Molecular Mass": "291.07",
        "Melting Point": "173-175 °C"
    }
}