{
    "cas_no": "7440-05-3",
    "key_name": "Palladium",
    "cn_name": "钯;海绵钯;",
    "alternate_name": "Palladium;Palladium black;Palladex 600;Palladium element;P 50 (metal);P 50;MPP 030;MPP 080;MPP 050;SFP 1001P;IG 0218A;Palladium (powder);TCP 211;Palladium (nanoparticles);HPS 3000;E 1010W;O 345;Pd 0343251;MeSH ID: D010165",
    "duplicated_cas_no": "",
    "SMILES": "[Pd]",
    "meta_data": {
        "InChI": "InChI=1S/Pd",
        "InChIKey": null,
        "Canonical SMILES": "[Pd]",
        "Molecular Formula": "Pd",
        "Molecular Mass": "",
        "Boiling Point": "3167 °C",
        "Melting Point": "1555 °C",
        "Density": "12.02 g/cm³"
    }
}