{
    "cas_no": "609-22-3",
    "key_name": "2,4-Dibromo-6-methylphenol",
    "cn_name": null,
    "alternate_name": "Phenol, 2,4-dibromo-6-methyl-;<em>o</em>-Cresol, 4,6-dibromo-;2,4-Dibromo-6-methylphenol;4,6-Dibromo-<em>o</em>-cresol;4,6-Dibromo-2-methylphenol;NSC 6223",
    "duplicated_cas_no": "",
    "SMILES": "OC1=C(Br)C=C(Br)C=C1C",
    "meta_data": {
        "InChI": "InChI=1S/C7H6Br2O/c1-4-2-5(8)3-6(9)7(4)10/h2-3,10H,1H3",
        "InChIKey": null,
        "Canonical SMILES": "BrC=1C=C(Br)C(O)=C(C1)C",
        "Molecular Formula": "C<sub>7</sub>H<sub>6</sub>Br<sub>2</sub>O",
        "Molecular Mass": "265.93",
        "Melting Point": "58 °C"
    }
}