{
    "cas_no": "122852-75-9",
    "key_name": "2,3,4,5-Tetrahydro-5-methyl-1<em>H</em>-pyrido[4,3-<em>b</em>]indol-1-one",
    "cn_name": "2,3,4,5-四氢-5-甲基-1H-吡啶并[4,3-b]吲哚-1-酮;",
    "alternate_name": "1<em>H</em>-Pyrido[4,3-<em>b</em>]indol-1-one, 2,3,4,5-tetrahydro-5-methyl-;2,3,4,5-Tetrahydro-5-methyl-1<em>H</em>-pyrido[4,3-<em>b</em>]indol-1-one",
    "duplicated_cas_no": "",
    "SMILES": "O=C1C=2C=3C(N(C)C2CCN1)=CC=CC3",
    "meta_data": {
        "InChI": "InChI=1S/C12H12N2O/c1-14-9-5-3-2-4-8(9)11-10(14)6-7-13-12(11)15/h2-5H,6-7H2,1H3,(H,13,15)",
        "InChIKey": null,
        "Canonical SMILES": "O=C1NCCC2=C1C=3C=CC=CC3N2C",
        "Molecular Formula": "C<sub>12</sub>H<sub>12</sub>N<sub>2</sub>O",
        "Molecular Mass": "200.24",
        "Melting Point": "234-238 °C"
    }
}