{
    "cas_no": "17534-15-5",
    "key_name": "1,2-Benzenedithiol",
    "cn_name": null,
    "alternate_name": "1,2-Benzenedithiol;<em>o</em>-Benzenedithiol;Dithiopyrocatechol;<em>o</em>-Dimercaptobenzene;1,2-Dimercaptobenzene;Phenylene-1,2-dithiol;NSC 623558",
    "duplicated_cas_no": "",
    "SMILES": "SC1=C(S)C=CC=C1",
    "meta_data": {
        "InChI": "InChI=1S/C6H6S2/c7-5-3-1-2-4-6(5)8/h1-4,7-8H",
        "InChIKey": null,
        "Canonical SMILES": "SC=1C=CC=CC1S",
        "Molecular Formula": "C<sub>6</sub>H<sub>6</sub>S<sub>2</sub>",
        "Molecular Mass": "142.24",
        "Boiling Point": "238.5 °C",
        "Melting Point": "28.5 °C"
    }
}