{
    "cas_no": "38689-31-5",
    "key_name": "<span class=\"text-smallcaps\">D</smallcap>-Leucyl-<smallcap>L</span>-leucine",
    "cn_name": null,
    "alternate_name": "<span class=\"text-smallcaps\">L</smallcap>-Leucine, <smallcap>D</span>-leucyl-;<span class=\"text-smallcaps\">L</smallcap>-Leucine, <em>N</em>-<smallcap>D</span>-leucyl-;Leucine, <em>N</em>-<span class=\"text-smallcaps\">D</span>-leucyl-;<span class=\"text-smallcaps\">D</smallcap>-Leucyl-<smallcap>L</span>-leucine;NSC 524455",
    "duplicated_cas_no": "",
    "SMILES": "[C@H](NC([C@@H](CC(C)C)N)=O)(CC(C)C)C(O)=O",
    "meta_data": {
        "InChI": "InChI=1S/C12H24N2O3/c1-7(2)5-9(13)11(15)14-10(12(16)17)6-8(3)4/h7-10H,5-6,13H2,1-4H3,(H,14,15)(H,16,17)/t9-,10+/m1/s1",
        "InChIKey": null,
        "Canonical SMILES": "O=C(O)C(NC(=O)C(N)CC(C)C)CC(C)C",
        "Molecular Formula": "C<sub>12</sub>H<sub>24</sub>N<sub>2</sub>O<sub>3</sub>",
        "Molecular Mass": "244.33",
        "Melting Point": "285 °C"
    }
}