{
    "cas_no": "6313-17-3",
    "key_name": "3-Iodo-5-nitrobenzoic acid",
    "cn_name": "3-碘-5-硝基苯甲酸;",
    "alternate_name": "Benzoic acid, 3-iodo-5-nitro-;3-Iodo-5-nitrobenzoic acid;NSC 40643",
    "duplicated_cas_no": "",
    "SMILES": "C(O)(=O)C1=CC(N(=O)=O)=CC(I)=C1",
    "meta_data": {
        "InChI": "InChI=1S/C7H4INO4/c8-5-1-4(7(10)11)2-6(3-5)9(12)13/h1-3H,(H,10,11)",
        "InChIKey": null,
        "Canonical SMILES": "O=C(O)C1=CC(I)=CC(=C1)N(=O)=O",
        "Molecular Formula": "C<sub>7</sub>H<sub>4</sub>INO<sub>4</sub>",
        "Molecular Mass": "293.02",
        "Melting Point": "167 °C"
    }
}