{
    "cas_no": "2909-77-5",
    "key_name": "<em>N</em>,<em>N</em>-Dimethyl-2,6-bis(1-methylethyl)benzenamine",
    "cn_name": "二异丙基-二甲基苯胺;",
    "alternate_name": "Benzenamine, <em>N</em>,<em>N</em>-dimethyl-2,6-bis(1-methylethyl)-;Aniline, 2,6-diisopropyl-<em>N</em>,<em>N</em>-dimethyl-;<em>N</em>,<em>N</em>-Dimethyl-2,6-bis(1-methylethyl)benzenamine;2,6-Diisopropyl-<em>N</em>,<em>N</em>-dimethylaniline;<em>N</em>,<em>N</em>-Dimethyl-2,6-diisopropylaniline;DIDMA",
    "duplicated_cas_no": "",
    "SMILES": "N(C)(C)C1=C(C(C)C)C=CC=C1C(C)C",
    "meta_data": {
        "InChI": "InChI=1S/C14H23N/c1-10(2)12-8-7-9-13(11(3)4)14(12)15(5)6/h7-11H,1-6H3",
        "InChIKey": null,
        "Canonical SMILES": "C=1C=C(C(=C(C1)C(C)C)N(C)C)C(C)C",
        "Molecular Formula": "C<sub>14</sub>H<sub>23</sub>N",
        "Molecular Mass": "205.34",
        "Boiling Point": "86 °C @ Press: 2.5 Torr"
    }
}