{
    "cas_no": "2741-57-3",
    "key_name": "1-(Dichloromethyl)-2-(trichloromethyl)benzene",
    "cn_name": "稻叶青;",
    "alternate_name": "Benzene, 1-(dichloromethyl)-2-(trichloromethyl)-;<em>o</em>-Xylene, α,α,α,α′,α′-pentachloro-;1-(Dichloromethyl)-2-(trichloromethyl)benzene;α,α,α,α′,α′-Pentachloro-<em>o</em>-xylene;NSC 155825",
    "duplicated_cas_no": "",
    "SMILES": "C(Cl)(Cl)(Cl)C1=C(C(Cl)Cl)C=CC=C1",
    "meta_data": {
        "InChI": "InChI=1S/C8H5Cl5/c9-7(10)5-3-1-2-4-6(5)8(11,12)13/h1-4,7H",
        "InChIKey": null,
        "Canonical SMILES": "ClC(Cl)C=1C=CC=CC1C(Cl)(Cl)Cl",
        "Molecular Formula": "C<sub>8</sub>H<sub>5</sub>Cl<sub>5</sub>",
        "Molecular Mass": "278.39",
        "Melting Point": "48 °C"
    }
}