{
    "cas_no": "19542-67-7",
    "key_name": "(2<em>E</em>)-3-[(4-Methylphenyl)sulfonyl]-2-propenenitrile",
    "cn_name": null,
    "alternate_name": "2-Propenenitrile, 3-[(4-methylphenyl)sulfonyl]-, (2<em>E</em>)-;Acrylonitrile, 3-(<em>p</em>-tolylsulfonyl)-, (<em>E</em>)-;2-Propenenitrile, 3-[(4-methylphenyl)sulfonyl]-, (<em>E</em>)-;(2<em>E</em>)-3-[(4-Methylphenyl)sulfonyl]-2-propenenitrile;BAY 117821;BAY 11-7082;BAY 11-7821",
    "duplicated_cas_no": "",
    "SMILES": "S(/C=C/C#N)(=O)(=O)C1=CC=C(C)C=C1",
    "meta_data": {
        "InChI": "InChI=1S/C10H9NO2S/c1-9-3-5-10(6-4-9)14(12,13)8-2-7-11/h2-6,8H,1H3/b8-2+",
        "InChIKey": null,
        "Canonical SMILES": "N#CC=CS(=O)(=O)C1=CC=C(C=C1)C",
        "Molecular Formula": "C<sub>10</sub>H<sub>9</sub>NO<sub>2</sub>S",
        "Molecular Mass": "207.25",
        "Melting Point": "132-133 °C"
    }
}