{
    "cas_no": "824-72-6",
    "key_name": "Phenylphosphonic dichloride",
    "cn_name": "苯膦酰二氯;苯基磷酰二氯;苯基二氯化膦;",
    "alternate_name": "Phosphonic dichloride, <em>P</em>-phenyl-;Phosphonic dichloride, phenyl-;<em>P</em>-Phenylphosphonic dichloride;Benzenephosphonyl chloride;Phenylphosphonic acid dichloride;Phenylphosphonyl dichloride;Phenyldichlorophosphine oxide;Phenylphosphonic dichloride;Benzenephosphonic dichloride;Dichlorophenylphosphine oxide;Phenylphosphoryl dichloride;NSC 66477",
    "duplicated_cas_no": "",
    "SMILES": "P(Cl)(Cl)(=O)C1=CC=CC=C1",
    "meta_data": {
        "InChI": "InChI=1S/C6H5Cl2OP/c7-10(8,9)6-4-2-1-3-5-6/h1-5H",
        "InChIKey": null,
        "Canonical SMILES": "O=P(Cl)(Cl)C=1C=CC=CC1",
        "Molecular Formula": "C<sub>6</sub>H<sub>5</sub>Cl<sub>2</sub>OP",
        "Molecular Mass": "194.98",
        "Boiling Point": "258 °C",
        "Melting Point": "1 °C",
        "Density": "1.197 g/cm³ @ Temp: 25 °C"
    }
}