{
    "cas_no": "1422-54-4",
    "key_name": "1-Bromo-3-fluoro-2-methylbenzene",
    "cn_name": "2-溴-6-氟甲苯;2-氟-6-溴甲苯;",
    "alternate_name": "Benzene, 1-bromo-3-fluoro-2-methyl-;Toluene, 2-bromo-6-fluoro-;1-Bromo-3-fluoro-2-methylbenzene;2-Bromo-6-fluorotoluene",
    "duplicated_cas_no": "",
    "SMILES": "CC1=C(Br)C=CC=C1F",
    "meta_data": {
        "InChI": "InChI=1S/C7H6BrF/c1-5-6(8)3-2-4-7(5)9/h2-4H,1H3",
        "InChIKey": null,
        "Canonical SMILES": "FC1=CC=CC(Br)=C1C",
        "Molecular Formula": "C<sub>7</sub>H<sub>6</sub>BrF",
        "Molecular Mass": "189.02",
        "Boiling Point": "177-180 °C"
    }
}