{
    "cas_no": "85-70-1",
    "key_name": "Butyl phthalyl butyl glycolate",
    "cn_name": "丁基酞酰甘油醇酸丁酯;丁基酞酰甘油醇酸丁酯丁基邻苯二甲酰基乙醇酸丁酯；BPBG;",
    "alternate_name": "1,2-Benzenedicarboxylic acid, 1-(2-butoxy-2-oxoethyl) 2-butyl ester;Phthalic acid, butyl ester, ester with butyl glycolate;1,2-Benzenedicarboxylic acid, 2-butoxy-2-oxoethyl butyl ester;Glycolic acid, butyl ester, butyl phthalate;Butyl phthalate butyl glycolate;Butyl phthalyl butyl glycolate;Dibutyl o-carboxybenzoyloxyacetate;Santicizer B 16;Butyl carbobutoxymethyl phthalate;Butyl glycolyl butyl phthalate;Butoxycarbonylmethyl butyl phthalate;Reomol 4PG;Morflex 190;2-Butoxy-2-oxoethyl butyl phthalate;Butyl 2-butoxy-2-exoethyl phthalate;2-<em>O</em>-(2-Butoxy-2-oxoethyl) 1-<em>O</em>-butyl benzene-1,2-dicarboxylate",
    "duplicated_cas_no": "",
    "SMILES": "C(OCC(OCCCC)=O)(=O)C1=C(C(OCCCC)=O)C=CC=C1",
    "meta_data": {
        "InChI": "InChI=1S/C18H24O6/c1-3-5-11-22-16(19)13-24-18(21)15-10-8-7-9-14(15)17(20)23-12-6-4-2/h7-10H,3-6,11-13H2,1-2H3",
        "InChIKey": null,
        "Canonical SMILES": "O=C(OCC(=O)OCCCC)C=1C=CC=CC1C(=O)OCCCC",
        "Molecular Formula": "C<sub>18</sub>H<sub>24</sub>O<sub>6</sub>",
        "Molecular Mass": "336.38",
        "Boiling Point": "345 °C",
        "Melting Point": "&lt;-35 °C",
        "Density": "1.097 g/cm³"
    }
}