{
    "cas_no": "49705-98-8",
    "key_name": "Phenylmethyl <em>N</em>-[(1<em>S</em>,2<em>R</em>)-1-(aminocarbonyl)-2-hydroxypropyl]carbamate",
    "cn_name": "(2R,3S)-(1-氨基甲酰基-2-羟基丙基)氨基甲酸苄酯;",
    "alternate_name": "Carbamic acid, <em>N</em>-[(1<em>S</em>,2<em>R</em>)-1-(aminocarbonyl)-2-hydroxypropyl]-, phenylmethyl ester;Carbamic acid, [1-(aminocarbonyl)-2-hydroxypropyl]-, phenylmethyl ester, [<em>R</em>-(<em>R</em>*,<em>S</em>*)]-;Carbamic acid, [(1<em>S</em>,2<em>R</em>)-1-(aminocarbonyl)-2-hydroxypropyl]-, phenylmethyl ester;Phenylmethyl <em>N</em>-[(1<em>S</em>,2<em>R</em>)-1-(aminocarbonyl)-2-hydroxypropyl]carbamate;<em>N</em>-(Benzyloxycarbonyl)-<span class=\"text-smallcaps\">L</span>-threonine amide;<em>N</em>-Benzyloxycarbonylthreonine amide;Cbz-<span class=\"text-smallcaps\">L</span>-threoninamide",
    "duplicated_cas_no": "",
    "SMILES": "[C@H](NC(OCC1=CC=CC=C1)=O)([C@@H](C)O)C(N)=O",
    "meta_data": {
        "InChI": "InChI=1S/C12H16N2O4/c1-8(15)10(11(13)16)14-12(17)18-7-9-5-3-2-4-6-9/h2-6,8,10,15H,7H2,1H3,(H2,13,16)(H,14,17)/t8-,10+/m1/s1",
        "InChIKey": null,
        "Canonical SMILES": "O=C(OCC=1C=CC=CC1)NC(C(=O)N)C(O)C",
        "Molecular Formula": "C<sub>12</sub>H<sub>16</sub>N<sub>2</sub>O<sub>4</sub>",
        "Molecular Mass": "252.27",
        "Melting Point": "82-83 °C"
    }
}