{
    "cas_no": "17334-09-7",
    "key_name": "Methyl 1<em>H</em>-imidazole-2-carboxylate",
    "cn_name": null,
    "alternate_name": "1<em>H</em>-Imidazole-2-carboxylic acid, methyl ester;Imidazole-2-carboxylic acid, methyl ester;Methyl 1<em>H</em>-imidazole-2-carboxylate;2-Methoxycarbonylimidazole",
    "duplicated_cas_no": "",
    "SMILES": "C(OC)(=O)C=1NC=CN1",
    "meta_data": {
        "InChI": "InChI=1S/C5H6N2O2/c1-9-5(8)4-6-2-3-7-4/h2-3H,1H3,(H,6,7)",
        "InChIKey": null,
        "Canonical SMILES": "O=C(OC)C1=NC=CN1",
        "Molecular Formula": "C<sub>5</sub>H<sub>6</sub>N<sub>2</sub>O<sub>2</sub>",
        "Molecular Mass": "126.11",
        "Melting Point": "195.5-196.0 °C"
    }
}