{
    "cas_no": "92440-76-1",
    "key_name": "2-Amino-5-[(3,4,5-trimethoxyphenyl)methyl]-4(3<em>H</em>)-pyrimidinone",
    "cn_name": null,
    "alternate_name": "4(3<em>H</em>)-Pyrimidinone, 2-amino-5-[(3,4,5-trimethoxyphenyl)methyl]-;4-Pyrimidinol, 2-amino-5-(3,4,5-trimethoxybenzyl)-;4(1<em>H</em>)-Pyrimidinone, 2-amino-5-[(3,4,5-trimethoxyphenyl)methyl]-;2-Amino-5-[(3,4,5-trimethoxyphenyl)methyl]-4(3<em>H</em>)-pyrimidinone;2-Amino-5-[(3,4,5-trimethoxyphenyl)methyl]-1<em>H</em>-pyrimidin-6-one",
    "duplicated_cas_no": "",
    "SMILES": "C(C1=CC(OC)=C(OC)C(OC)=C1)C=2C(=O)NC(N)=NC2",
    "meta_data": {
        "InChI": "InChI=1S/C14H17N3O4/c1-19-10-5-8(6-11(20-2)12(10)21-3)4-9-7-16-14(15)17-13(9)18/h5-7H,4H2,1-3H3,(H3,15,16,17,18)",
        "InChIKey": null,
        "Canonical SMILES": "O=C1NC(=NC=C1CC2=CC(OC)=C(OC)C(OC)=C2)N",
        "Molecular Formula": "C<sub>14</sub>H<sub>17</sub>N<sub>3</sub>O<sub>4</sub>",
        "Molecular Mass": "291.30",
        "Melting Point": "257-258 °C"
    }
}