{
    "cas_no": "14618-59-8",
    "key_name": "Carbamic acid, <em>N</em>-(4-methylphenyl)-, 1,1-dimethylethyl ester",
    "cn_name": null,
    "alternate_name": "Carbamic acid, <em>N</em>-(4-methylphenyl)-, 1,1-dimethylethyl ester;Carbanilic acid, <em>p</em>-methyl-, <em>tert</em>-butyl ester;Carbamic acid, (4-methylphenyl)-, 1,1-dimethylethyl ester;<em>tert</em>-Butyl <em>p</em>-tolylcarbamate;<em>tert</em>-Butyl <em>p</em>-methylphenylcarbamate;<em>N</em>-(<em>tert</em>-Butoxycarbonyl)-4-methylaniline;<em>tert</em>-Butyl <em>N</em>-(4-methylphenyl)carbamate;1,1-Dimethylethyl <em>N</em>-(4-methylphenyl)carbamate;(4-Methylphenyl)carbamic acid tert-butyl ester;<em>N</em>-(4-Methylphenyl)carbamic acid tert-butyl ester",
    "duplicated_cas_no": "",
    "SMILES": "N(C(OC(C)(C)C)=O)C1=CC=C(C)C=C1",
    "meta_data": {
        "InChI": "InChI=1S/C12H17NO2/c1-9-5-7-10(8-6-9)13-11(14)15-12(2,3)4/h5-8H,1-4H3,(H,13,14)",
        "InChIKey": null,
        "Canonical SMILES": "O=C(OC(C)(C)C)NC1=CC=C(C=C1)C",
        "Molecular Formula": "C<sub>12</sub>H<sub>17</sub>NO<sub>2</sub>",
        "Molecular Mass": "207.27",
        "Melting Point": "92-92.8 °C"
    }
}