{
    "cas_no": "661-11-0",
    "key_name": "1-Fluoroheptane",
    "cn_name": "1-氟代庚烷;",
    "alternate_name": "Heptane, 1-fluoro-;1-Fluoroheptane;<em>n</em>-Heptyl fluoride;Heptyl fluoride",
    "duplicated_cas_no": "",
    "SMILES": "C(CCCF)CCC",
    "meta_data": {
        "InChI": "InChI=1S/C7H15F/c1-2-3-4-5-6-7-8/h2-7H2,1H3",
        "InChIKey": null,
        "Canonical SMILES": "FCCCCCCC",
        "Molecular Formula": "C<sub>7</sub>H<sub>15</sub>F",
        "Molecular Mass": "118.19",
        "Boiling Point": "117.9 °C",
        "Melting Point": "-73 °C",
        "Density": "0.8029 g/cm³ @ Temp: 21 °C"
    }
}