{
    "cas_no": "15016-43-0",
    "key_name": "(3-Vinylphenyl)boronic acid",
    "cn_name": "3-乙烯基苯硼酸;",
    "alternate_name": "Boronic acid, <em>B</em>-(3-ethenylphenyl)-;Benzeneboronic acid, <em>m</em>-vinyl-;Boronic acid, (3-ethenylphenyl)-;<em>B</em>-(3-Ethenylphenyl)boronic acid;(3-Vinylphenyl)boronic acid;3-Ethenylphenylboronic acid",
    "duplicated_cas_no": "",
    "SMILES": "B(O)(O)C1=CC(C=C)=CC=C1",
    "meta_data": {
        "InChI": "InChI=1S/C8H9BO2/c1-2-7-4-3-5-8(6-7)9(10)11/h2-6,10-11H,1H2",
        "InChIKey": null,
        "Canonical SMILES": "OB(O)C=1C=CC=C(C=C)C1",
        "Molecular Formula": "C<sub>8</sub>H<sub>9</sub>BO<sub>2</sub>",
        "Molecular Mass": "147.97",
        "Melting Point": "145-160 °C"
    }
}