{
    "cas_no": "84-21-9",
    "key_name": "3′-AMP",
    "cn_name": null,
    "alternate_name": "3′-Adenylic acid;3′-AMP;Adenosine 3′-monophosphate;Adenosine 3′-phosphate;Synadenylic acid;Adenosine 3′-(dihydrogen phosphate);NSC 210570",
    "duplicated_cas_no": "",
    "SMILES": "O[C@H]1[C@H](N2C=3C(N=C2)=C(N)N=CN3)O[C@H](CO)[C@H]1OP(=O)(O)O",
    "meta_data": {
        "InChI": "InChI=1S/C10H14N5O7P/c11-8-5-9(13-2-12-8)15(3-14-5)10-6(17)7(4(1-16)21-10)22-23(18,19)20/h2-4,6-7,10,16-17H,1H2,(H2,11,12,13)(H2,18,19,20)/t4-,6-,7-,10-/m1/s1",
        "InChIKey": null,
        "Canonical SMILES": "O=P(O)(O)OC1C(O)C(OC1CO)N2C=NC=3C(=NC=NC32)N",
        "Molecular Formula": "C<sub>10</sub>H<sub>14</sub>N<sub>5</sub>O<sub>7</sub>P",
        "Molecular Mass": "347.22",
        "Melting Point": "197 °C"
    }
}