{
    "cas_no": "84573-16-0",
    "key_name": "(1<em>R</em>,2<em>R</em>,3<em>S</em>,3a<em>R</em>,8b<em>S</em>)-2,3,3a,8b-Tetrahydro-1,8b-dihydroxy-6,8-dimethoxy-3a-(4-methoxyphenyl)-<em>N</em>,<em>N</em>-dimethyl-3-phenyl-1<em>H</em>-cyclopenta[<em>b</em>]benzofuran-2-carboxamide",
    "cn_name": null,
    "alternate_name": "1<em>H</em>-Cyclopenta[<em>b</em>]benzofuran-2-carboxamide, 2,3,3a,8b-tetrahydro-1,8b-dihydroxy-6,8-dimethoxy-3a-(4-methoxyphenyl)-<em>N</em>,<em>N</em>-dimethyl-3-phenyl-, (1<em>R</em>,2<em>R</em>,3<em>S</em>,3a<em>R</em>,8b<em>S</em>)-;1<em>H</em>-Cyclopenta[<em>b</em>]benzofuran-2-carboxamide, 2,3,3a,8b-tetrahydro-1,8b-dihydroxy-6,8-dimethoxy-3a-(4-methoxyphenyl)-<em>N</em>,<em>N</em>-dimethyl-3-phenyl-, [1<em>R</em>-(1α,2α,3β,3aβ,8bβ)]-;(1<em>R</em>,2<em>R</em>,3<em>S</em>,3a<em>R</em>,8b<em>S</em>)-2,3,3a,8b-Tetrahydro-1,8b-dihydroxy-6,8-dimethoxy-3a-(4-methoxyphenyl)-<em>N</em>,<em>N</em>-dimethyl-3-phenyl-1<em>H</em>-cyclopenta[<em>b</em>]benzofuran-2-carboxamide;Rocaglamide;NSC 326408;Roc-A;Rocaglamide A;(-)-Rocaglamide",
    "duplicated_cas_no": "",
    "SMILES": "O[C@]12[C@]([C@@H]([C@@H](C(N(C)C)=O)[C@H]1O)C3=CC=CC=C3)(OC=4C2=C(OC)C=C(OC)C4)C5=CC=C(OC)C=C5",
    "meta_data": {
        "InChI": "InChI=1S/C29H31NO7/c1-30(2)27(32)23-24(17-9-7-6-8-10-17)29(18-11-13-19(34-3)14-12-18)28(33,26(23)31)25-21(36-5)15-20(35-4)16-22(25)37-29/h6-16,23-24,26,31,33H,1-5H3/t23-,24-,26-,28+,29+/m1/s1",
        "InChIKey": null,
        "Canonical SMILES": "O=C(N(C)C)C1C(O)C2(O)C=3C(OC)=CC(OC)=CC3OC2(C4=CC=C(OC)C=C4)C1C=5C=CC=CC5",
        "Molecular Formula": "C<sub>29</sub>H<sub>31</sub>NO<sub>7</sub>",
        "Molecular Mass": "505.56",
        "Melting Point": "117-118 °C"
    }
}