{
    "cas_no": "4237-40-5",
    "key_name": "1-(1-Methylpropyl)-4-nitrobenzene",
    "cn_name": null,
    "alternate_name": "Benzene, 1-(1-methylpropyl)-4-nitro-;Benzene, 1-<em>sec</em>-butyl-4-nitro-;1-(1-Methylpropyl)-4-nitrobenzene;2-(<em>p</em>-Nitrophenyl)butane;4-<em>sec</em>-Butyl-1-nitrobenzene;1-Butan-2-yl-4-nitrobenzene;1-(Butan-2-yl)-4-nitrobenzene",
    "duplicated_cas_no": "",
    "SMILES": "C(CC)(C)C1=CC=C(N(=O)=O)C=C1",
    "meta_data": {
        "InChI": "InChI=1S/C10H13NO2/c1-3-8(2)9-4-6-10(7-5-9)11(12)13/h4-8H,3H2,1-2H3",
        "InChIKey": null,
        "Canonical SMILES": "O=N(=O)C1=CC=C(C=C1)C(C)CC",
        "Molecular Formula": "C<sub>10</sub>H<sub>13</sub>NO<sub>2</sub>",
        "Molecular Mass": "179.22",
        "Boiling Point": "130 °C @ Press: 9 Torr",
        "Density": "1.0875 g/cm³ @ Temp: 4 °C"
    }
}