{
    "cas_no": "4774-35-0",
    "key_name": "Methyl 1,6-dihydro-6-oxo-5-pyrimidinecarboxylate",
    "cn_name": "4-羟基-5-嘧啶甲酸甲酯;4-羟基-5-嘧啶甲酸甲酯;",
    "alternate_name": "5-Pyrimidinecarboxylic acid, 1,6-dihydro-6-oxo-, methyl ester;5-Pyrimidinecarboxylic acid, 4-hydroxy-, methyl ester;5-Pyrimidinecarboxylic acid, 1,4-dihydro-4-oxo-, methyl ester;Methyl 1,6-dihydro-6-oxo-5-pyrimidinecarboxylate;Methyl 6-oxo-1,6-dihydropyrimidine-5-carboxylate;Methyl 4-hydroxypyrimidine-5-carboxylate",
    "duplicated_cas_no": "",
    "SMILES": "C(OC)(=O)C=1C(=O)NC=NC1",
    "meta_data": {
        "InChI": "InChI=1S/C6H6N2O3/c1-11-6(10)4-2-7-3-8-5(4)9/h2-3H,1H3,(H,7,8,9)",
        "InChIKey": null,
        "Canonical SMILES": "O=C(OC)C1=CN=CNC1=O",
        "Molecular Formula": "C<sub>6</sub>H<sub>6</sub>N<sub>2</sub>O<sub>3</sub>",
        "Molecular Mass": "154.12",
        "Melting Point": "209-210 °C"
    }
}