{
    "cas_no": "830-50-2",
    "key_name": "1-(Pentafluorophenyl)ethanol",
    "cn_name": "1-(五氟苯基)乙醇;",
    "alternate_name": "Benzenemethanol, 2,3,4,5,6-pentafluoro-α-methyl-;Benzyl alcohol, 2,3,4,5,6-pentafluoro-α-methyl-;2,3,4,5,6-Pentafluoro-α-methylbenzenemethanol;2,3,4,5,6-Pentafluoro-α-methylbenzyl alcohol;1-(Pentafluorophenyl)ethanol;(±)-1-(Pentafluorophenyl)ethanol;(<em>RS</em>)-α-Methyl-2,3,4,5,6-pentafluorobenzyl alcohol;NSC 97014;1-(2,3,4,5,6-Pentafluorophenyl)ethanol;1-(Pentafluorophenyl)ethan-1-ol",
    "duplicated_cas_no": "75853-08-6",
    "SMILES": "C(C)(O)C1=C(F)C(F)=C(F)C(F)=C1F",
    "meta_data": {
        "InChI": "InChI=1S/C8H5F5O/c1-2(14)3-4(9)6(11)8(13)7(12)5(3)10/h2,14H,1H3",
        "InChIKey": null,
        "Canonical SMILES": "FC=1C(F)=C(F)C(=C(F)C1F)C(O)C",
        "Molecular Formula": "C<sub>8</sub>H<sub>5</sub>F<sub>5</sub>O",
        "Molecular Mass": "212.12",
        "Boiling Point": "80-82 °C @ Press: 37 Torr"
    }
}