{
    "cas_no": "13760-78-6",
    "key_name": "Holmium fluoride",
    "cn_name": "氯化钬(III);氟化钬无水;",
    "alternate_name": "Holmium fluoride (HoF<sub>3</sub>);Holmium trifluoride;Holmium fluoride",
    "duplicated_cas_no": "",
    "SMILES": "[Ho](F)(F)F",
    "meta_data": {
        "InChI": "InChI=1S/3FH.Ho/h3*1H;/q;;;+3/p-3",
        "InChIKey": null,
        "Canonical SMILES": "F[Ho](F)F",
        "Molecular Formula": "F<sub>3</sub>Ho",
        "Molecular Mass": "",
        "Melting Point": "1145 °C"
    }
}