{
    "cas_no": "3535-37-3",
    "key_name": "3,4-Dimethoxybenzoyl chloride",
    "cn_name": "3,4-二甲氧基苯甲酰氯;3,4-二甲氧基苯并基氯;",
    "alternate_name": "Benzoyl chloride, 3,4-dimethoxy-;Veratroyl chloride;3,4-Dimethoxybenzoyl chloride;Veratric acid chloride;3,4-Dimethoxybenzoic acid chloride;3,4-Dimethoxy-1-benzenecarbonyl chloride;3,4-Dimethoxyphenylcarbonyl chloride",
    "duplicated_cas_no": "",
    "SMILES": "O(C)C1=C(OC)C=CC(C(Cl)=O)=C1",
    "meta_data": {
        "InChI": "InChI=1S/C9H9ClO3/c1-12-7-4-3-6(9(10)11)5-8(7)13-2/h3-5H,1-2H3",
        "InChIKey": null,
        "Canonical SMILES": "O=C(Cl)C1=CC=C(OC)C(OC)=C1",
        "Molecular Formula": "C<sub>9</sub>H<sub>9</sub>ClO<sub>3</sub>",
        "Molecular Mass": "200.62",
        "Boiling Point": "290 °C",
        "Melting Point": "68-69 °C"
    }
}