{
    "cas_no": "90-43-7",
    "key_name": "[1,1′-Biphenyl]-2-ol",
    "cn_name": "邻苯基苯酚;2-苯基苯酚;2-羟基联苯;",
    "alternate_name": "[1,1′-Biphenyl]-2-ol;2-Biphenylol;<em>o</em>-Phenylphenol;2-Hydroxybiphenyl;<em>o</em>-Hydroxydiphenyl;2-Hydroxydiphenyl;<em>o</em>-Xenol;<em>o</em>-Hydroxybiphenyl;<em>o</em>-Biphenylol;<em>o</em>-Diphenylol;Remol TRF;Dowicide 1;Preventol O extra;Tumescal OPE;Tetrosin OE;Nectryl;Anthrapole 73;2-Hydroxy-1,1′-biphenyl;Invalon OP;Tetrosin OE-N;Preventol 3041;Britewood S;NSC 1548;2-Phenylphenol;O-PP;Decco OPP 20",
    "duplicated_cas_no": "39387-78-5;192076-92-9",
    "SMILES": "OC1=C(C2=CC=CC=C2)C=CC=C1",
    "meta_data": {
        "InChI": "InChI=1S/C12H10O/c13-12-9-5-4-8-11(12)10-6-2-1-3-7-10/h1-9,13H",
        "InChIKey": null,
        "Canonical SMILES": "OC=1C=CC=CC1C=2C=CC=CC2",
        "Molecular Formula": "C<sub>12</sub>H<sub>10</sub>O",
        "Molecular Mass": "170.21",
        "Boiling Point": "286 °C",
        "Melting Point": "59 °C",
        "Density": "1.213 g/cm³ @ Temp: 25 °C"
    }
}