{
    "cas_no": "25395-31-7",
    "key_name": "Glycerol diacetate",
    "cn_name": null,
    "alternate_name": "1,2,3-Propanetriol, diacetate;Acetin, di-;Diacetin;Glycerol diacetate;Glyceryl diacetate;Diacetylglycerol;Glycerine diacetate;Glycerin diacetate;Estol 1583;Estol 1582;Diacetain glycerol",
    "duplicated_cas_no": "1300-63-6;29860-16-0;1202865-19-7",
    "SMILES": "",
    "meta_data": {
        "InChI": "",
        "InChIKey": null,
        "Canonical SMILES": "",
        "Molecular Formula": "C<sub>7</sub>H<sub>12</sub>O<sub>5</sub>",
        "Molecular Mass": "",
        "Boiling Point": "259 °C"
    }
}