{
    "cas_no": "571190-30-2",
    "key_name": "Palbociclib",
    "cn_name": null,
    "alternate_name": "Pyrido[2,3-<em>d</em>]pyrimidin-7(8<em>H</em>)-one, 6-acetyl-8-cyclopentyl-5-methyl-2-[[5-(1-piperazinyl)-2-pyridinyl]amino]-;6-Acetyl-8-cyclopentyl-5-methyl-2-[[5-(1-piperazinyl)-2-pyridinyl]amino]pyrido[2,3-<em>d</em>]pyrimidin-7(8<em>H</em>)-one;6-Acetyl-8-cyclopentyl-5-methyl-2-[[5-(piperazin-1-yl)pyridin-2-yl]amino]-8<em>H</em>-pyrido[2,3-<em>d</em>]pyrimidin-7-one;PD 0332991;PD 332991;Palbociclib;6-Acetyl-8-cyclopentyl-5-methyl-2-((5-(1-piperazinyl)-2-pyridinyl)amino)pyrido[2,3-<em>d</em>]pyridin-7(8<em>H</em>)-one;Ibrance;PD 991;Palbocyclib;6-Acetyl-8-cyclopentyl-5-methyl-2-[[5-(piperazin-1-yl)pyridin-2-yl]amino]pyrido[2,3-<em>d</em>]pyrimidin-7-one",
    "duplicated_cas_no": "",
    "SMILES": "O=C1N(C=2C(C(C)=C1C(C)=O)=CN=C(NC3=CC=C(C=N3)N4CCNCC4)N2)C5CCCC5",
    "meta_data": {
        "InChI": "InChI=1S/C24H29N7O2/c1-15-19-14-27-24(28-20-8-7-18(13-26-20)30-11-9-25-10-12-30)29-22(19)31(17-5-3-4-6-17)23(33)21(15)16(2)32/h7-8,13-14,17,25H,3-6,9-12H2,1-2H3,(H,26,27,28,29)",
        "InChIKey": null,
        "Canonical SMILES": "O=C1C(C(=O)C)=C(C=2C=NC(=NC2N1C3CCCC3)NC4=NC=C(C=C4)N5CCNCC5)C",
        "Molecular Formula": "C<sub>24</sub>H<sub>29</sub>N<sub>7</sub>O<sub>2</sub>",
        "Molecular Mass": "447.53",
        "Melting Point": "200 °C"
    }
}