{
    "cas_no": "1762-95-4",
    "key_name": "Ammonium thiocyanate",
    "cn_name": "硫氰酸铵;",
    "alternate_name": "Thiocyanic acid, ammonium salt (1:1);Thiocyanic acid, ammonium salt;Ammonium isothiocyanate;Ammonium sulfocyanate;Ammonium thiocyanate;Ammonium rhodanate;Rhodanid;Ammonium cyanide sulfide (NH<sub>4</sub>CNS)",
    "duplicated_cas_no": "1189-67-9;1674-80-2;14314-30-8;15268-45-8;92568-90-6;101218-28-4;113506-91-5;1147550-11-5;2579695-19-3;2778879-51-7",
    "SMILES": "C(#N)S.N",
    "meta_data": {
        "InChI": "InChI=1S/CHNS.H3N/c2-1-3;/h3H;1H3",
        "InChIKey": null,
        "Canonical SMILES": "N#CS.N",
        "Molecular Formula": "CHNS.H<sub>3</sub>N",
        "Molecular Mass": "",
        "Melting Point": "149.6 °C",
        "Density": "1.3057 g/cm³"
    }
}