{
    "cas_no": "16205-46-2",
    "key_name": "Pyrazolo[1,5-<em>a</em>]pyridine-3-carboxylic acid",
    "cn_name": "吡唑并[1,5-a]吡啶-3-羧酸;",
    "alternate_name": "Pyrazolo[1,5-<em>a</em>]pyridine-3-carboxylic acid",
    "duplicated_cas_no": "",
    "SMILES": "C(O)(=O)C1=C2N(N=C1)C=CC=C2",
    "meta_data": {
        "InChI": "InChI=1S/C8H6N2O2/c11-8(12)6-5-9-10-4-2-1-3-7(6)10/h1-5H,(H,11,12)",
        "InChIKey": null,
        "Canonical SMILES": "O=C(O)C=1C=NN2C=CC=CC12",
        "Molecular Formula": "C<sub>8</sub>H<sub>6</sub>N<sub>2</sub>O<sub>2</sub>",
        "Molecular Mass": "162.15",
        "Melting Point": "217-219 °C"
    }
}