{
    "cas_no": "17355-23-6",
    "key_name": "<em>N</em>,<em>O</em>-Diacetyl-<span class=\"text-smallcaps\">L</span>-tyrosine",
    "cn_name": null,
    "alternate_name": "<span class=\"text-smallcaps\">L</span>-Tyrosine, <em>N</em>,<em>O</em>-diacetyl-;Tyrosine, <em>N</em>-acetyl-, acetate (ester), <span class=\"text-smallcaps\">L</span>-;<span class=\"text-smallcaps\">L</span>-Tyrosine, <em>N</em>-acetyl-, acetate (ester);<em>N</em>,<em>O</em>-Diacetyl-<span class=\"text-smallcaps\">L</span>-tyrosine;<em>O</em>,<em>N</em>-Diacetyl-<span class=\"text-smallcaps\">L</span>-tyrosine;(<em>S</em>)-2-Acetamido-3-(4-acetoxyphenyl)propanoic acid",
    "duplicated_cas_no": "",
    "SMILES": "C([C@H](NC(C)=O)C(O)=O)C1=CC=C(OC(C)=O)C=C1",
    "meta_data": {
        "InChI": "InChI=1S/C13H15NO5/c1-8(15)14-12(13(17)18)7-10-3-5-11(6-4-10)19-9(2)16/h3-6,12H,7H2,1-2H3,(H,14,15)(H,17,18)/t12-/m0/s1",
        "InChIKey": null,
        "Canonical SMILES": "O=C(OC1=CC=C(C=C1)CC(NC(=O)C)C(=O)O)C",
        "Molecular Formula": "C<sub>13</sub>H<sub>15</sub>NO<sub>5</sub>",
        "Molecular Mass": "265.26",
        "Melting Point": "170-172 °C"
    }
}