{
    "cas_no": "55077-30-0",
    "key_name": "Ethanaminium, 2-[2-(acetyloxy)-1-oxopropoxy]-<em>N</em>,<em>N</em>,<em>N</em>-trimethyl-, 1,5-naphthalenedisulfonate (2:1)",
    "cn_name": "萘二磺酸乙乳胆铵;双醋萘磺胆碱;双(乙酰氧基-甲基醋酸三甲胺乙酯)-萘-1,5-二磺酸盐;2-[2-(乙酰氧基)-1-氧丙;",
    "alternate_name": "Ethanaminium, 2-[2-(acetyloxy)-1-oxopropoxy]-<em>N</em>,<em>N</em>,<em>N</em>-trimethyl-, 1,5-naphthalenedisulfonate (2:1);1,5-Naphthalenedisulfonic acid, ion(2-), bis[2-[2-(acetyloxy)-1-oxopropoxy]-<em>N</em>,<em>N</em>,<em>N</em>-trimethylethanaminium];TM 723;Aclatonium napadisilate;Abovis;Aclatonium napadisylate",
    "duplicated_cas_no": "65846-13-1",
    "SMILES": "C(C(OCC[N+](C)(C)C)=O)(OC(C)=O)C.S(=O)(=O)([O-])C=1C2=C(C(S(=O)(=O)[O-])=CC=C2)C=CC1",
    "meta_data": {
        "InChI": "InChI=1S/C10H20NO4.C10H8O6S2/c1-8(15-9(2)12)10(13)14-7-6-11(3,4)5;11-17(12,13)9-5-1-3-7-8(9)4-2-6-10(7)18(14,15)16/h8H,6-7H2,1-5H3;1-6H,(H,11,12,13)(H,14,15,16)/q+1;/p-2",
        "InChIKey": null,
        "Canonical SMILES": "O=C(OC(C(=O)OCC[N+](C)(C)C)C)C.O=S(=O)([O-])C=1C=CC=C2C1C=CC=C2S(=O)(=O)[O-]",
        "Molecular Formula": "C<sub>10</sub>H<sub>20</sub>NO<sub>4</sub>.<sup>1</sup>/<sub>2</sub>C<sub>10</sub>H<sub>6</sub>O<sub>6</sub>S<sub>2</sub>",
        "Molecular Mass": "",
        "Melting Point": "189-191 °C"
    }
}