{
    "cas_no": "2722-36-3",
    "key_name": "γ-Methylbenzenepropanol",
    "cn_name": "3-苯基丁醇;",
    "alternate_name": "Benzenepropanol, γ-methyl-;1-Butanol, 3-phenyl-;γ-Methylbenzenepropanol;ENT 11558;3-Phenylbutanol;3-Methyl-3-phenyl-1-propanol;3-Phenyl-1-butanol;3-Phenylbutyl alcohol;(±)-3-Phenyl-1-butanol",
    "duplicated_cas_no": "86495-15-0",
    "SMILES": "C(CCO)(C)C1=CC=CC=C1",
    "meta_data": {
        "InChI": "InChI=1S/C10H14O/c1-9(7-8-11)10-5-3-2-4-6-10/h2-6,9,11H,7-8H2,1H3",
        "InChIKey": null,
        "Canonical SMILES": "OCCC(C=1C=CC=CC1)C",
        "Molecular Formula": "C<sub>10</sub>H<sub>14</sub>O",
        "Molecular Mass": "150.22",
        "Boiling Point": "128-129 °C @ Press: 16 Torr",
        "Density": "0.9826 g/cm³ @ Temp: 20 °C"
    }
}