{
    "cas_no": "15301-40-3",
    "key_name": "Actinoquinol",
    "cn_name": "阿克汀喹;8-乙氧基喹啉-5-磺酸;阿克汀喹;8-乙氧基喹啉-5-磺酸水合物;8-乙氧基喹啉-5-磺酸,99%;",
    "alternate_name": "5-Quinolinesulfonic acid, 8-ethoxy-;8-Ethoxy-5-quinolinesulfonic acid;Actinoquinol;NSC 165584",
    "duplicated_cas_no": "",
    "SMILES": "O(CC)C=1C2=C(C(S(=O)(=O)O)=CC1)C=CC=N2",
    "meta_data": {
        "InChI": "InChI=1S/C11H11NO4S/c1-2-16-9-5-6-10(17(13,14)15)8-4-3-7-12-11(8)9/h3-7H,2H2,1H3,(H,13,14,15)",
        "InChIKey": null,
        "Canonical SMILES": "O=S(=O)(O)C=1C=CC(OCC)=C2N=CC=CC21",
        "Molecular Formula": "C<sub>11</sub>H<sub>11</sub>NO<sub>4</sub>S",
        "Molecular Mass": "253.27",
        "Melting Point": "286 °C (decomp)"
    }
}