{
    "cas_no": "171611-11-3",
    "key_name": "Lithium bis(fluorosulfonyl)imide",
    "cn_name": null,
    "alternate_name": "Imidodisulfuryl fluoride, lithium salt (1:1);Imidodisulfuryl fluoride, lithium salt;Lithium bis(fluorosulfonyl)imide;LiFSI;Ionel LF 101;Li(FSO<sub>2</sub>)<sub>2</sub>N;Lithium bis(fluorosulfonyl)amide;Lithium fluorosulfite nitride (Li(SO<sub>2</sub>F)<sub>2</sub>N)",
    "duplicated_cas_no": "185385-50-6;876273-89-1;1469862-65-4;1624575-50-3;2095698-08-9;2242726-03-8;2249697-04-7;2279081-21-7;2360942-38-5;2387296-40-2;2757214-22-3;2830558-23-9;2882096-35-5;2983817-26-9",
    "SMILES": "N(S(F)(=O)=O)S(F)(=O)=O.[Li]",
    "meta_data": {
        "InChI": "InChI=1S/F2HNO4S2.Li/c1-8(4,5)3-9(2,6)7;/h3H;",
        "InChIKey": null,
        "Canonical SMILES": "[Li].O=S(=O)(F)NS(=O)(=O)F",
        "Molecular Formula": "F<sub>2</sub>HNO<sub>4</sub>S<sub>2</sub>.Li",
        "Molecular Mass": "",
        "Melting Point": "124-128 °C"
    }
}