{
    "cas_no": "41340-36-7",
    "key_name": "7-Ethyl-1<em>H</em>-indole-3-ethanol",
    "cn_name": "7-乙基-3-羟乙基吲哚;7-乙基色氨醇;7-乙基色醇;",
    "alternate_name": "1<em>H</em>-Indole-3-ethanol, 7-ethyl-;7-Ethyl-1<em>H</em>-indole-3-ethanol;7-Ethyltryptophol;7-Ethyl-3-indoleethanol;3-(2-Hydroxyethyl)-7-ethylindole;RAK 801;2-(7-Ethyl-1<em>H</em>-indol-3-yl)-ethanol;2-(7-Ethyl-1<em>H</em>-indol-3-yl)ethan-1-ol",
    "duplicated_cas_no": "184688-76-4",
    "SMILES": "C(CO)C=1C=2C(=C(CC)C=CC2)NC1",
    "meta_data": {
        "InChI": "InChI=1S/C12H15NO/c1-2-9-4-3-5-11-10(6-7-14)8-13-12(9)11/h3-5,8,13-14H,2,6-7H2,1H3",
        "InChIKey": null,
        "Canonical SMILES": "OCCC1=CNC2=C1C=CC=C2CC",
        "Molecular Formula": "C<sub>12</sub>H<sub>15</sub>NO",
        "Molecular Mass": "189.25",
        "Melting Point": "47-48 °C"
    }
}