{
    "cas_no": "3377-20-6",
    "key_name": "1,3-Diethyl 2-methylenepropanedioate",
    "cn_name": "甲撑丙二酸二乙酯;甲撑丙二酸二乙酯;",
    "alternate_name": "Propanedioic acid, 2-methylene-, 1,3-diethyl ester;Malonic acid, methylene-, diethyl ester;Propanedioic acid, methylene-, diethyl ester;1,3-Diethyl 2-methylenepropanedioate;Diethyl methylenemalonate;Ethyl methylenemalonate;1,1-Dicarbethoxyethene;NSC 18901;(Methylene)propanedioic acid diethyl ester;1,3-Diethyl 2-methylidenepropanedioate;Methylenemalonic acid diethyl ester",
    "duplicated_cas_no": "",
    "SMILES": "C(C(OCC)=O)(C(OCC)=O)=C",
    "meta_data": {
        "InChI": "InChI=1S/C8H12O4/c1-4-11-7(9)6(3)8(10)12-5-2/h3-5H2,1-2H3",
        "InChIKey": null,
        "Canonical SMILES": "O=C(OCC)C(=C)C(=O)OCC",
        "Molecular Formula": "C<sub>8</sub>H<sub>12</sub>O<sub>4</sub>",
        "Molecular Mass": "172.18",
        "Boiling Point": "210 °C",
        "Melting Point": "135.5-136.5 °C",
        "Density": "1.052 g/cm³ @ Temp: 25 °C"
    }
}