{
    "cas_no": "507-52-8",
    "key_name": "1,1,1-Trifluoro-2-methyl-2-propanol",
    "cn_name": "2-三氟甲基-2-丙醇;",
    "alternate_name": "2-Propanol, 1,1,1-trifluoro-2-methyl-;1,1,1-Trifluoro-2-methyl-2-propanol;1-Trifluoromethylisopropanol;2-(Trifluoromethyl)-2-propanol;2,2,2-Trifluoro-1,1-dimethylethanol;2-Hydroxy-2-trifluoromethylpropane;Trifluoro-<em>tert</em>-butyl alcohol;NSC 3633;2-Methyl-1,1,1-trifluoropropan-2-ol",
    "duplicated_cas_no": "",
    "SMILES": "C(C(F)(F)F)(C)(C)O",
    "meta_data": {
        "InChI": "InChI=1S/C4H7F3O/c1-3(2,8)4(5,6)7/h8H,1-2H3",
        "InChIKey": null,
        "Canonical SMILES": "FC(F)(F)C(O)(C)C",
        "Molecular Formula": "C<sub>4</sub>H<sub>7</sub>F<sub>3</sub>O",
        "Molecular Mass": "128.09",
        "Boiling Point": "81 °C",
        "Melting Point": "20.75 °C",
        "Density": "1.1903 g/cm³ @ Temp: 22.5 °C"
    }
}