{
    "cas_no": "999-61-1",
    "key_name": "2-Hydroxypropyl acrylate",
    "cn_name": "2-丙烯酸-2-羟基丙基酯;丙烯酸-&beta;-羟丙酯;丙烯酸-2-羟基丙酯;",
    "alternate_name": "2-Propenoic acid, 2-hydroxypropyl ester;Acrylic acid, 2-hydroxypropyl ester;1,2-Propanediol, 1-acrylate;2-Hydroxypropyl acrylate;β-Hydroxypropyl acrylate;Light Ester HOP-A;Kayarad HPA;HPA;Bisomer HPA;2HPA;HOP-A;2-Hydroxy-2-methylethyl acrylate;Light Ester HOP-A(N);Light Acrylate HO-P;2-Hydroxypropyl pro-2-enoate",
    "duplicated_cas_no": "91029-98-0;2324115-73-1",
    "SMILES": "C(OCC(C)O)(C=C)=O",
    "meta_data": {
        "InChI": "InChI=1S/C6H10O3/c1-3-6(8)9-4-5(2)7/h3,5,7H,1,4H2,2H3",
        "InChIKey": null,
        "Canonical SMILES": "O=C(OCC(O)C)C=C",
        "Molecular Formula": "C<sub>6</sub>H<sub>10</sub>O<sub>3</sub>",
        "Molecular Mass": "130.14",
        "Boiling Point": "225 °C",
        "Density": "1.06 g/cm³"
    }
}