{
    "cas_no": "632-99-5",
    "key_name": "Fuchsin",
    "cn_name": "碱性紫14;碱性品红;盐基品红;(4-(4-氨基苯基)(4-亚氨基环己-2,5-二烯亚基)甲基)-2-甲基苯胺盐酸盐;",
    "alternate_name": "Benzenamine, 4-[(4-aminophenyl)(4-imino-2,5-cyclohexadien-1-ylidene)methyl]-2-methyl-, hydrochloride (1:1);C.I. Basic Violet 14, monohydrochloride;Rosaniline;Benzenamine, 4-[(4-aminophenyl)(4-imino-2,5-cyclohexadien-1-ylidene)methyl]-2-methyl-, monohydrochloride;12418 Red;Aizen Magenta;Astra Fuchsine B;Basic Magenta E 200;Calcozine Fuchsine HO;Calcozine Magenta RTN;Calcozine Magenta XX;Cerise B;Diabasic Magenta;Diamond Fuchsine;Fuchsine;Fuchsine A;Fuchsine G;Fuchsine N;Fuchsine Y;Fuchsine CS;Fuchsine HO;Fuchsine RTN;Magenta E;Magenta G;Magenta S;Magenta DP;Magenta PN;Magenta Powder N;Magenta superfine;Orient Basic Magenta;Rosaniline chloride;Rosaniline hydrochloride;Magenta I;Basic Magenta;C.I. Basic Violet 14;Rosanilinium chloride;Basic Fuchsine;Fuchsin basic;Basic fuchsin;Fuchsin;Fuchsine SBP;C.I. 42510;Basic Violet 14;C-WR Violet 8;Lowacryl Violet 14;RGN 10;RGB 20;RGN 10 (dye)",
    "duplicated_cas_no": "8053-09-6;18634-80-5;147299-78-3;884244-75-1",
    "SMILES": "C(C1=CC(C)=C(N)C=C1)(C2=CC=C(N)C=C2)=C3C=CC(=N)C=C3.Cl",
    "meta_data": {
        "InChI": "InChI=1S/C20H19N3.ClH/c1-13-12-16(6-11-19(13)23)20(14-2-7-17(21)8-3-14)15-4-9-18(22)10-5-15;/h2-12,21H,22-23H2,1H3;1H",
        "InChIKey": null,
        "Canonical SMILES": "Cl.N=C1C=CC(C=C1)=C(C2=CC=C(N)C=C2)C3=CC=C(N)C(=C3)C",
        "Molecular Formula": "C<sub>20</sub>H<sub>19</sub>N<sub>3</sub>.ClH",
        "Molecular Mass": "",
        "Melting Point": "200 °C (decomp)"
    }
}