{
    "cas_no": "583-06-2",
    "key_name": "4-Oxo-4-phenyl-2-butenoic acid",
    "cn_name": null,
    "alternate_name": "2-Butenoic acid, 4-oxo-4-phenyl-;Acrylic acid, 3-benzoyl-;Acrylic acid, β-benzoyl-;4-Oxo-4-phenyl-2-butenoic acid;4-Oxo-4-phenylcrotonic acid;β-Benzoylacrylic acid;3-Benzoylacrylic acid;Benzoylacrylic acid;NSC 143",
    "duplicated_cas_no": "",
    "SMILES": "C(C=CC(O)=O)(=O)C1=CC=CC=C1",
    "meta_data": {
        "InChI": "InChI=1S/C10H8O3/c11-9(6-7-10(12)13)8-4-2-1-3-5-8/h1-7H,(H,12,13)",
        "InChIKey": null,
        "Canonical SMILES": "O=C(O)C=CC(=O)C=1C=CC=CC1",
        "Molecular Formula": "C<sub>10</sub>H<sub>8</sub>O<sub>3</sub>",
        "Molecular Mass": "176.17",
        "Boiling Point": "108-112 °C @ Press: 0.5 Torr",
        "Melting Point": "98-99 °C"
    }
}