{
    "cas_no": "22984-54-9",
    "key_name": "Methyltris(methyl ethyl ketoxime)silane",
    "cn_name": "甲基三丁酮肟基硅烷;",
    "alternate_name": "2-Butanone, 2,2′,2′′-[<em>O</em>,<em>O</em>′,<em>O</em>′′-(methylsilylidyne)trioxime];2-Butanone, <em>O</em>,<em>O</em>′,<em>O</em>′′-(methylsilylidyne)trioxime;<em>O</em>,<em>O</em>′,<em>O</em>′′-(Methylsilylidyne)tris(ethyl methyl ketoxime);Methyltris(2-butylideneaminooxy)silane;Tris(2-butylideneiminooxy)methylsilane;Methyltri(methylethylketoxime)silane;Methyltris(methyl ethyl ketoxime)silane;Methyltris(ethylmethylketoxime)silane;Methyltris(hydroxyiminobutyl)silane;Methyltri(2-butanoneoximyl)silane;Methyltris(2-butanoneoximato)silane;Methyltri(methylethylketoximo)silane;Methyltris(methyl ethyl ketoximato)silane;Methyltri(ethylmethylketoximo)silane;OX 10;Methyltris(butanoxime)silane;WD 922;D 30;OS 1000;BO-Z 9075;Silane BO-Z 9075;LMD 923;DB 8033;D 31 (crosslinking agent);Methyltris(methyl ethyl ketoximino)silane;CG 310;WD 923;MTO(MOS);KBR 336;D 31;Andisil MOS;SIM 7590.0",
    "duplicated_cas_no": "123525-79-1;254737-77-4",
    "SMILES": "[Si](ON=C(CC)C)(ON=C(CC)C)(ON=C(CC)C)C",
    "meta_data": {
        "InChI": "InChI=1S/C13H27N3O3Si/c1-8-11(4)14-17-20(7,18-15-12(5)9-2)19-16-13(6)10-3/h8-10H2,1-7H3",
        "InChIKey": null,
        "Canonical SMILES": "N(O[Si](ON=C(C)CC)(ON=C(C)CC)C)=C(C)CC",
        "Molecular Formula": "C<sub>13</sub>H<sub>27</sub>N<sub>3</sub>O<sub>3</sub>Si",
        "Molecular Mass": "301.46",
        "Boiling Point": "110-111 °C @ Press: 2 Torr",
        "Melting Point": "-22 °C",
        "Density": "0.982 g/cm³"
    }
}