{
    "cas_no": "367-81-7",
    "key_name": "2,4-Dinitro-5-fluoroaniline",
    "cn_name": "2,4-二硝基-5-氟苯胺;",
    "alternate_name": "Benzenamine, 5-fluoro-2,4-dinitro-;Aniline, 5-fluoro-2,4-dinitro-;5-Fluoro-2,4-dinitrobenzenamine;2,4-Dinitro-5-fluoroaniline;3-Fluoro-4,6-dinitroaniline;5-Fluoro-2,4-dinitroaniline;5-Amino-2,4-dinitro-1-fluorobenzene;NSC 88336",
    "duplicated_cas_no": "",
    "SMILES": "N(=O)(=O)C1=CC(N(=O)=O)=C(N)C=C1F",
    "meta_data": {
        "InChI": "InChI=1S/C6H4FN3O4/c7-3-1-4(8)6(10(13)14)2-5(3)9(11)12/h1-2H,8H2",
        "InChIKey": null,
        "Canonical SMILES": "O=N(=O)C=1C=C(C(N)=CC1F)N(=O)=O",
        "Molecular Formula": "C<sub>6</sub>H<sub>4</sub>FN<sub>3</sub>O<sub>4</sub>",
        "Molecular Mass": "201.11",
        "Melting Point": "186-187 °C"
    }
}