{
    "cas_no": "99-77-4",
    "key_name": "Ethyl 4-nitrobenzoate",
    "cn_name": "对硝基苯甲酸乙酯;",
    "alternate_name": "Benzoic acid, 4-nitro-, ethyl ester;Benzoic acid, <em>p</em>-nitro-, ethyl ester;Ethyl <em>p</em>-nitrobenzoate;Ethyl 4-nitrobenzoate;4-Nitrobenzoic acid ethyl ester;4-(Ethoxycarbonyl)nitrobenzene;4-Ethoxycarbonyl-1-nitrobenzene;NSC 6763",
    "duplicated_cas_no": "",
    "SMILES": "C(OCC)(=O)C1=CC=C(N(=O)=O)C=C1",
    "meta_data": {
        "InChI": "InChI=1S/C9H9NO4/c1-2-14-9(11)7-3-5-8(6-4-7)10(12)13/h3-6H,2H2,1H3",
        "InChIKey": null,
        "Canonical SMILES": "O=C(OCC)C1=CC=C(C=C1)N(=O)=O",
        "Molecular Formula": "C<sub>9</sub>H<sub>9</sub>NO<sub>4</sub>",
        "Molecular Mass": "195.17",
        "Boiling Point": "186.3 °C",
        "Melting Point": "57 °C"
    }
}