{
    "cas_no": "6554-69-4",
    "key_name": "2,4,5-Trichloro-6-methylpyrimidine",
    "cn_name": null,
    "alternate_name": "Pyrimidine, 2,4,5-trichloro-6-methyl-;2,4,5-Trichloro-6-methylpyrimidine;NSC 26541",
    "duplicated_cas_no": "",
    "SMILES": "ClC=1C(C)=NC(Cl)=NC1Cl",
    "meta_data": {
        "InChI": "InChI=1S/C5H3Cl3N2/c1-2-3(6)4(7)10-5(8)9-2/h1H3",
        "InChIKey": null,
        "Canonical SMILES": "ClC=1N=C(Cl)C(Cl)=C(N1)C",
        "Molecular Formula": "C<sub>5</sub>H<sub>3</sub>Cl<sub>3</sub>N<sub>2</sub>",
        "Molecular Mass": "197.45",
        "Boiling Point": "55-56 °C @ Press: 0.02 Torr"
    }
}