{
    "cas_no": "471-05-6",
    "key_name": "Zerumbone",
    "cn_name": "花?酮;花?酮;",
    "alternate_name": "2,6,10-Cycloundecatrien-1-one, 2,6,9,9-tetramethyl-, (2<em>E</em>,6<em>E</em>,10<em>E</em>)-;Zerumbone;2,6,10-Cycloundecatrien-1-one, 2,6,9,9-tetramethyl-, (<em>E</em>,<em>E</em>,<em>E</em>)-;(2<em>E</em>,6<em>E</em>,10<em>E</em>)-2,6,9,9-Tetramethyl-2,6,10-cycloundecatrien-1-one;Z 3902",
    "duplicated_cas_no": "",
    "SMILES": "",
    "meta_data": {
        "InChI": "",
        "InChIKey": null,
        "Canonical SMILES": "",
        "Molecular Formula": "C<sub>15</sub>H<sub>22</sub>O",
        "Molecular Mass": "218.33",
        "Melting Point": "67-69 °C"
    }
}