{
    "cas_no": "73151-29-8",
    "key_name": "Fenticonazole nitrate",
    "cn_name": "硝酸芬替康唑;硝酸芬康唑;1-[2-(2,4-二氯苯基)-2-[(4-苯基硫苯基)甲氧基]乙基]咪唑硝酸盐;",
    "alternate_name": "1<em>H</em>-Imidazole, 1-[2-(2,4-dichlorophenyl)-2-[[4-(phenylthio)phenyl]methoxy]ethyl]-, nitrate (1:1);1<em>H</em>-Imidazole, 1-[2-(2,4-dichlorophenyl)-2-[[4-(phenylthio)phenyl]methoxy]ethyl]-, mononitrate;Feniconazole nitrate;REC 15-1476;Fentiderm;Fenticonazole nitrate;Falvin",
    "duplicated_cas_no": "",
    "SMILES": "C(CN1C=CN=C1)(OCC2=CC=C(SC3=CC=CC=C3)C=C2)C4=C(Cl)C=C(Cl)C=C4.N(=O)(=O)O",
    "meta_data": {
        "InChI": "InChI=1S/C24H20Cl2N2OS.HNO3/c25-19-8-11-22(23(26)14-19)24(15-28-13-12-27-17-28)29-16-18-6-9-21(10-7-18)30-20-4-2-1-3-5-20;2-1(3)4/h1-14,17,24H,15-16H2;(H,2,3,4)",
        "InChIKey": null,
        "Canonical SMILES": "O=N(=O)O.ClC1=CC=C(C(Cl)=C1)C(OCC2=CC=C(SC=3C=CC=CC3)C=C2)CN4C=NC=C4",
        "Molecular Formula": "C<sub>24</sub>H<sub>20</sub>Cl<sub>2</sub>N<sub>2</sub>OS.HNO<sub>3</sub>",
        "Molecular Mass": "",
        "Melting Point": "136 °C"
    }
}