{
    "cas_no": "106-38-7",
    "key_name": "4-Bromotoluene",
    "cn_name": "对溴甲苯;4-溴甲苯;",
    "alternate_name": "Benzene, 1-bromo-4-methyl-;Toluene, <em>p</em>-bromo-;1-Bromo-4-methylbenzene;4-Bromo-1-methylbenzene;<em>p</em>-Bromotoluene;4-Bromotoluene;<em>p</em>-Tolyl bromide;<em>p</em>-Methylbromobenzene;<em>p</em>-Methylphenyl bromide;4-Methylbromobenzene;4-Methyl-1-bromobenzene;4-Methylphenyl bromide;4-Tolyl bromide;1-Methyl-4-bromobenzene;<em>p</em>-Bromo(methyl)benzene;NSC 6531",
    "duplicated_cas_no": "",
    "SMILES": "BrC1=CC=C(C)C=C1",
    "meta_data": {
        "InChI": "InChI=1S/C7H7Br/c1-6-2-4-7(8)5-3-6/h2-5H,1H3",
        "InChIKey": null,
        "Canonical SMILES": "BrC1=CC=C(C=C1)C",
        "Molecular Formula": "C<sub>7</sub>H<sub>7</sub>Br",
        "Molecular Mass": "171.03",
        "Boiling Point": "184.5 °C @ Press: 760 Torr",
        "Melting Point": "28.5 °C",
        "Density": "1.3995 g/cm³ @ Temp: 35 °C"
    }
}