{
    "cas_no": "174603-56-6",
    "key_name": "4-Bromo-6-fluoro-2,3-dihydro-1<em>H</em>-inden-1-one",
    "cn_name": null,
    "alternate_name": "1<em>H</em>-Inden-1-one, 4-bromo-6-fluoro-2,3-dihydro-;4-Bromo-6-fluoro-2,3-dihydro-1<em>H</em>-inden-1-one",
    "duplicated_cas_no": "",
    "SMILES": "BrC1=C2C(=CC(F)=C1)C(=O)CC2",
    "meta_data": {
        "InChI": "InChI=1S/C9H6BrFO/c10-8-4-5(11)3-7-6(8)1-2-9(7)12/h3-4H,1-2H2",
        "InChIKey": null,
        "Canonical SMILES": "O=C1C=2C=C(F)C=C(Br)C2CC1",
        "Molecular Formula": "C<sub>9</sub>H<sub>6</sub>BrFO",
        "Molecular Mass": "229.05",
        "Melting Point": "129-131 °C"
    }
}