{
    "cas_no": "4897-25-0",
    "key_name": "5-Chloro-1-methyl-4-nitroimidazole",
    "cn_name": "5-氯-1-甲基-4-硝基咪唑;",
    "alternate_name": "1<em>H</em>-Imidazole, 5-chloro-1-methyl-4-nitro-;Imidazole, 5-chloro-1-methyl-4-nitro-;5-Chloro-1-methyl-4-nitro-1<em>H</em>-imidazole;1-Methyl-4-nitro-5-chloroimidazole;5-Chloro-1-methyl-4-nitroimidazole;1-Methyl-5-chloro-4-nitroimidazole;S 50154-9;CMNI;P<sub>14</sub>;PCMNI;NSC 7852",
    "duplicated_cas_no": "",
    "SMILES": "N(=O)(=O)C1=C(Cl)N(C)C=N1",
    "meta_data": {
        "InChI": "InChI=1S/C4H4ClN3O2/c1-7-2-6-4(3(7)5)8(9)10/h2H,1H3",
        "InChIKey": null,
        "Canonical SMILES": "O=N(=O)C=1N=CN(C1Cl)C",
        "Molecular Formula": "C<sub>4</sub>H<sub>4</sub>ClN<sub>3</sub>O<sub>2</sub>",
        "Molecular Mass": "161.55",
        "Melting Point": "147-148 °C",
        "Density": "1.682 g/cm³"
    }
}