{
    "cas_no": "585-07-9",
    "key_name": "<em>tert</em>-Butyl methacrylate",
    "cn_name": "甲基丙烯酸叔丁酯;",
    "alternate_name": "2-Propenoic acid, 2-methyl-, 1,1-dimethylethyl ester;Methacrylic acid, <em>tert</em>-butyl ester;<em>tert</em>-Butyl methacrylate;1,1-Dimethylethyl methacrylate;<em>tert</em>-Butyl α-methacrylate;Acryester TB;<em>tert</em>-Butyl 2-methylpropenoate;NSC 20957;Light Ester TB;<em>tert</em>-Butyl alcohol methacrylate;<em>tert</em>-Butyl 2-methylacrylate;Acryester TBMA",
    "duplicated_cas_no": "",
    "SMILES": "C(OC(C)(C)C)(C(C)=C)=O",
    "meta_data": {
        "InChI": "InChI=1S/C8H14O2/c1-6(2)7(9)10-8(3,4)5/h1H2,2-5H3",
        "InChIKey": null,
        "Canonical SMILES": "O=C(OC(C)(C)C)C(=C)C",
        "Molecular Formula": "C<sub>8</sub>H<sub>14</sub>O<sub>2</sub>",
        "Molecular Mass": "142.20",
        "Boiling Point": "67 °C",
        "Melting Point": "122.2-122.8 °C",
        "Density": "0.8746 g/cm³ @ Temp: 20 °C"
    }
}