{
    "cas_no": "75853-49-5",
    "key_name": "12-Methyltridecanal",
    "cn_name": "12-甲基十三醛;",
    "alternate_name": "Tridecanal, 12-methyl-;12-Methyltridecanal",
    "duplicated_cas_no": "",
    "SMILES": "C(CCCCCCCC=O)CCC(C)C",
    "meta_data": {
        "InChI": "InChI=1S/C14H28O/c1-14(2)12-10-8-6-4-3-5-7-9-11-13-15/h13-14H,3-12H2,1-2H3",
        "InChIKey": null,
        "Canonical SMILES": "O=CCCCCCCCCCCC(C)C",
        "Molecular Formula": "C<sub>14</sub>H<sub>28</sub>O",
        "Molecular Mass": "212.37",
        "Boiling Point": "86-88 °C @ Press: 0.3 Torr"
    }
}