{
    "cas_no": "7440-70-2",
    "key_name": "Calcium",
    "cn_name": null,
    "alternate_name": "Calcium;Praval;Calcium atom;Calcium element;Atomic calcium;Blood-coagulation factor IV;Vivinal MCA 26;Aquacal;Vistacal;ASP 1250;Alcaplant;Calcium KM;T 1-101A;Omyacarb T 1;MeSH ID: D002118",
    "duplicated_cas_no": "8047-59-4",
    "SMILES": "[Ca]",
    "meta_data": {
        "InChI": "InChI=1S/Ca",
        "InChIKey": null,
        "Canonical SMILES": "[Ca]",
        "Molecular Formula": "Ca",
        "Molecular Mass": "",
        "Boiling Point": "1484 °C",
        "Melting Point": "842 °C",
        "Density": "1.54 g/cm³ @ Temp: 20 °C"
    }
}