{
    "cas_no": "364-74-9",
    "key_name": "2,5-Difluoronitrobenzene",
    "cn_name": "2,5-二氟硝基苯;1,4-二氟-2-硝基苯;",
    "alternate_name": "Benzene, 1,4-difluoro-2-nitro-;1,4-Difluoro-2-nitrobenzene;2,5-Difluoronitrobenzene;2,5-Difluoro-1-nitrobenzene;2-Nitro-1,4-difluorobenzene;NSC 528657",
    "duplicated_cas_no": "",
    "SMILES": "N(=O)(=O)C1=C(F)C=CC(F)=C1",
    "meta_data": {
        "InChI": "InChI=1S/C6H3F2NO2/c7-4-1-2-5(8)6(3-4)9(10)11/h1-3H",
        "InChIKey": null,
        "Canonical SMILES": "O=N(=O)C1=CC(F)=CC=C1F",
        "Molecular Formula": "C<sub>6</sub>H<sub>3</sub>F<sub>2</sub>NO<sub>2</sub>",
        "Molecular Mass": "159.09",
        "Boiling Point": "206.5 °C",
        "Melting Point": "-11.7 °C"
    }
}