{
    "cas_no": "91-13-4",
    "key_name": "1,2-Bis(bromomethyl)benzene",
    "cn_name": "1,2-二(溴甲基)苯;",
    "alternate_name": "Benzene, 1,2-bis(bromomethyl)-;<em>o</em>-Xylene, α,α′-dibromo-;1,2-Bis(bromomethyl)benzene;α,α′-Dibromo-<em>o</em>-xylene;<em>o</em>-Xylylene dibromide;α,α′-Dibromo-<em>o</em>-xylol;<em>o</em>-Bis(bromomethyl)benzene;1,2-Di(bromomethyl)benzene;<em>o</em>-(Bromomethyl)benzyl bromide;<em>o</em>-Di(bromomethyl)benzene;2-(Bromomethyl)benzyl bromide;α,α′-Dibromo-1,2-xylene;NSC 3986;<em>o</em>-α,α′-Dibromoxylene",
    "duplicated_cas_no": "",
    "SMILES": "C(Br)C1=C(CBr)C=CC=C1",
    "meta_data": {
        "InChI": "InChI=1S/C8H8Br2/c9-5-7-3-1-2-4-8(7)6-10/h1-4H,5-6H2",
        "InChIKey": null,
        "Canonical SMILES": "BrCC=1C=CC=CC1CBr",
        "Molecular Formula": "C<sub>8</sub>H<sub>8</sub>Br<sub>2</sub>",
        "Molecular Mass": "263.96",
        "Boiling Point": "140 °C @ Press: 20 Torr",
        "Melting Point": "95 °C"
    }
}