{
    "cas_no": "2140-79-6",
    "key_name": "2′-<em>O</em>-Methyladenosine",
    "cn_name": "2\"-O-甲基腺苷;2\"-O-甲基腺嘌呤核苷;",
    "alternate_name": "Adenosine, 2′-<em>O</em>-methyl-;2′-<em>O</em>-Methyladenosine;Cordysinin B",
    "duplicated_cas_no": "76780-18-2",
    "SMILES": "O(C)[C@H]1[C@H](N2C=3C(N=C2)=C(N)N=CN3)O[C@H](CO)[C@H]1O",
    "meta_data": {
        "InChI": "InChI=1S/C11H15N5O4/c1-19-8-7(18)5(2-17)20-11(8)16-4-15-6-9(12)13-3-14-10(6)16/h3-5,7-8,11,17-18H,2H2,1H3,(H2,12,13,14)/t5-,7-,8-,11-/m1/s1",
        "InChIKey": null,
        "Canonical SMILES": "OCC1OC(N2C=NC=3C(=NC=NC32)N)C(OC)C1O",
        "Molecular Formula": "C<sub>11</sub>H<sub>15</sub>N<sub>5</sub>O<sub>4</sub>",
        "Molecular Mass": "281.27",
        "Melting Point": "204-206 °C"
    }
}