{
    "cas_no": "107623-21-2",
    "key_name": "1-Iodo-3-(phenylmethoxy)benzene",
    "cn_name": "1-苄氧基-3-碘苯;",
    "alternate_name": "Benzene, 1-iodo-3-(phenylmethoxy)-;Ether, benzyl <em>m</em>-iodophenyl;1-Iodo-3-(phenylmethoxy)benzene;3-(Benzyloxy)iodobenzene;3-Benzyloxy-1-iodobenzene;Benzyl 3-iodophenyl ether;3-Iodo-1-(benzyloxy)benzene;1-Benzyloxy-3-iodobenzene",
    "duplicated_cas_no": "",
    "SMILES": "O(CC1=CC=CC=C1)C2=CC(I)=CC=C2",
    "meta_data": {
        "InChI": "InChI=1S/C13H11IO/c14-12-7-4-8-13(9-12)15-10-11-5-2-1-3-6-11/h1-9H,10H2",
        "InChIKey": null,
        "Canonical SMILES": "IC1=CC=CC(OCC=2C=CC=CC2)=C1",
        "Molecular Formula": "C<sub>13</sub>H<sub>11</sub>IO",
        "Molecular Mass": "310.13",
        "Melting Point": "51.5-52.5 °C"
    }
}