{
    "cas_no": "971-15-3",
    "key_name": "Bis(1-piperidinylthioxomethyl) hexasulfide",
    "cn_name": "六硫化双五亚甲基秋兰姆;六硫化双五甲撑秋兰姆;",
    "alternate_name": "Hexasulfide, bis(1-piperidinylthioxomethyl);Hexasulfide, bis(piperidinothiocarbonyl);Piperidine, 1,1′-(hexathiodicarbonothioyl)bis-;Bis(1-piperidinylthioxomethyl) hexasulfide;Dipentamethylenethiuram hexasulfide;Robac P 25;Bis(pentamethylene thiuram) hexasulfide;Bostex 224;Altermix DPTT 70GE;DPTT 70GE",
    "duplicated_cas_no": "1638500-00-1",
    "SMILES": "C(SSSSSSC(=S)N1CCCCC1)(=S)N2CCCCC2",
    "meta_data": {
        "InChI": "InChI=1S/C12H20N2S8/c15-11(13-7-3-1-4-8-13)17-19-21-22-20-18-12(16)14-9-5-2-6-10-14/h1-10H2",
        "InChIKey": null,
        "Canonical SMILES": "S=C(SSSSSSC(=S)N1CCCCC1)N2CCCCC2",
        "Molecular Formula": "C<sub>12</sub>H<sub>20</sub>N<sub>2</sub>S<sub>8</sub>",
        "Molecular Mass": "448.82",
        "Melting Point": "135-136 °C"
    }
}