{
    "cas_no": "28446-68-6",
    "key_name": "4-Methoxycinnamonitrile",
    "cn_name": "4-甲氧基肉桂腈;",
    "alternate_name": "2-Propenenitrile, 3-(4-methoxyphenyl)-;Cinnamonitrile, <em>p</em>-methoxy-;3-(4-Methoxyphenyl)-2-propenenitrile;4-Methoxycinnamonitrile;3-(<em>p</em>-Anisyl)acrylonitrile;<em>p</em>-Methoxycinnamonitrile;β-(4-Methoxyphenyl)acrylonitrile;NSC 379284;3-(4-Methoxyphenyl)acrylonitrile",
    "duplicated_cas_no": "",
    "SMILES": "C(=CC#N)C1=CC=C(OC)C=C1",
    "meta_data": {
        "InChI": "InChI=1S/C10H9NO/c1-12-10-6-4-9(5-7-10)3-2-8-11/h2-7H,1H3",
        "InChIKey": null,
        "Canonical SMILES": "N#CC=CC1=CC=C(OC)C=C1",
        "Molecular Formula": "C<sub>10</sub>H<sub>9</sub>NO",
        "Molecular Mass": "159.18",
        "Melting Point": "61-62 °C"
    }
}