{
    "cas_no": "480-30-8",
    "key_name": "Dichloralphenazone",
    "cn_name": null,
    "alternate_name": "3<em>H</em>-Pyrazol-3-one, 1,2-dihydro-1,5-dimethyl-2-phenyl-, compd. with 2,2,2-trichloro-1,1-ethanediol (1:2);Antipyrine, compd. with chloral hydrate (1:2);Chloral hydrate, compd. with antipyrine (2:1);1,1-Ethanediol, 2,2,2-trichloro-, compd. with 1,2-dihydro-1,5-dimethyl-2-phenyl-3<em>H</em>-pyrazol-3-one (2:1);Dichloralphenazone;Dichloralantipyrine;Sedor;Sominat;Welldorm;Ibiodorm;Kloralfenazon;Dichloralantipyrin;Dormuphar;Bonadorm;Bihypnal;Dormwell",
    "duplicated_cas_no": "",
    "SMILES": "C(C(O)O)(Cl)(Cl)Cl.CN1N(C(=O)C=C1C)C2=CC=CC=C2",
    "meta_data": {
        "InChI": "InChI=1S/C11H12N2O.C2H3Cl3O2/c1-9-8-11(14)13(12(9)2)10-6-4-3-5-7-10;3-2(4,5)1(6)7/h3-8H,1-2H3;1,6-7H",
        "InChIKey": null,
        "Canonical SMILES": "O=C1C=C(N(N1C=2C=CC=CC2)C)C.ClC(Cl)(Cl)C(O)O",
        "Molecular Formula": "C<sub>11</sub>H<sub>12</sub>N<sub>2</sub>O.2C<sub>2</sub>H<sub>3</sub>Cl<sub>3</sub>O<sub>2</sub>",
        "Molecular Mass": "",
        "Melting Point": "68 °C"
    }
}