{
    "cas_no": "39161-84-7",
    "key_name": "4-Mercaptophenylacetic acid",
    "cn_name": "4-巯基苯基乙酸;",
    "alternate_name": "Benzeneacetic acid, 4-mercapto-;4-Mercaptobenzeneacetic acid;<em>p</em>-Mercaptophenylacetic acid;4-Mercaptophenylacetic acid;2-(4-Mercaptophenyl)acetic acid;(4-Carboxymethyl)thiophenol;(4-Sulfanylphenyl)acetic acid;2-(4-Sulfanylphenyl)acetic acid",
    "duplicated_cas_no": "",
    "SMILES": "C(C(O)=O)C1=CC=C(S)C=C1",
    "meta_data": {
        "InChI": "InChI=1S/C8H8O2S/c9-8(10)5-6-1-3-7(11)4-2-6/h1-4,11H,5H2,(H,9,10)",
        "InChIKey": null,
        "Canonical SMILES": "O=C(O)CC1=CC=C(S)C=C1",
        "Molecular Formula": "C<sub>8</sub>H<sub>8</sub>O<sub>2</sub>S",
        "Molecular Mass": "168.21",
        "Melting Point": "97.5-100.0 °C"
    }
}