{
    "cas_no": "31098-20-1",
    "key_name": "Sulfopropyl acrylate potassium salt",
    "cn_name": "3-丙-2-烯酰氧基丙烷-1-磺酸钾;",
    "alternate_name": "2-Propenoic acid, 3-sulfopropyl ester, potassium salt (1:1);Acrylic acid, ester with 3-hydroxy-1-propanesulfonic acid potassium salt;2-Propenoic acid, 3-sulfopropyl ester, potassium salt;1-Propanesulfonic acid, 3-hydroxy-, acrylate, potassium salt;Potassium 3-(acryloyloxy)-1-propanesulfonate;3-Sulfopropyl acrylate potassium salt;Potassium 3-sulfopropyl acrylate;Ralu MER-SPA;Potassium 3-acryloyloxypropanesulfonate;Sulfopropyl acrylate potassium salt;SPA-K",
    "duplicated_cas_no": "258496-96-7",
    "SMILES": "C(S(=O)(=O)O)CCOC(C=C)=O.[K]",
    "meta_data": {
        "InChI": "InChI=1S/C6H10O5S.K/c1-2-6(7)11-4-3-5-12(8,9)10;/h2H,1,3-5H2,(H,8,9,10);",
        "InChIKey": null,
        "Canonical SMILES": "[K].O=C(OCCCS(=O)(=O)O)C=C",
        "Molecular Formula": "C<sub>6</sub>H<sub>10</sub>O<sub>5</sub>S.K",
        "Molecular Mass": "",
        "Melting Point": "290 °C (decomp)"
    }
}