{
    "cas_no": "2215-77-2",
    "key_name": "4-Phenoxybenzoic acid",
    "cn_name": "4-苯氧基苯甲酸;",
    "alternate_name": "Benzoic acid, 4-phenoxy-;Benzoic acid, <em>p</em>-phenoxy-;4-Phenoxybenzoic acid;<em>p</em>-Phenoxybenzoic acid;NSC 246039",
    "duplicated_cas_no": "2764684-52-6",
    "SMILES": "O(C1=CC=C(C(O)=O)C=C1)C2=CC=CC=C2",
    "meta_data": {
        "InChI": "InChI=1S/C13H10O3/c14-13(15)10-6-8-12(9-7-10)16-11-4-2-1-3-5-11/h1-9H,(H,14,15)",
        "InChIKey": null,
        "Canonical SMILES": "O=C(O)C1=CC=C(OC=2C=CC=CC2)C=C1",
        "Molecular Formula": "C<sub>13</sub>H<sub>10</sub>O<sub>3</sub>",
        "Molecular Mass": "214.22",
        "Boiling Point": "198-205 °C @ Press: 18 Torr",
        "Melting Point": "159 °C",
        "Density": "1.06 g/cm³ (liquid) @ Temp: 25 °C"
    }
}