{
    "cas_no": "1522-22-1",
    "key_name": "Hexafluoroacetylacetone",
    "cn_name": "六氟乙酰乙酮;",
    "alternate_name": "2,4-Pentanedione, 1,1,1,5,5,5-hexafluoro-;1,1,1,5,5,5-Hexafluoro-2,4-pentanedione;Hexafluoroacetylacetone;1,1,1,5,5,5-Hexafluoroacetylacetone;1,3-Bis(trifluoromethyl)propane-1,3-dione;Hexafluoro-2,4-pentanedione;1,1,1,5,5,5-Hexafluoro-2,4-pentandione;1,1,1,5,5,5-Hexafluoropenta-2,4-dione;Hexafluoroacetylacetonate",
    "duplicated_cas_no": "28987-01-1;149182-28-5",
    "SMILES": "C(C(C(F)(F)F)=O)C(C(F)(F)F)=O",
    "meta_data": {
        "InChI": "InChI=1S/C5H2F6O2/c6-4(7,8)2(12)1-3(13)5(9,10)11/h1H2",
        "InChIKey": null,
        "Canonical SMILES": "O=C(CC(=O)C(F)(F)F)C(F)(F)F",
        "Molecular Formula": "C<sub>5</sub>H<sub>2</sub>F<sub>6</sub>O<sub>2</sub>",
        "Molecular Mass": "208.06",
        "Boiling Point": "70 °C",
        "Density": "1.47 g/cm³"
    }
}