{
    "cas_no": "14439-71-5",
    "key_name": "<em>N</em>-(2-Benzoylphenyl)-2-bromoacetamide",
    "cn_name": "N-(2-苯甲酰苯基)-2-溴乙酰胺;2-[(2-溴乙酰基)氨基]二苯甲酮;",
    "alternate_name": "Acetamide, <em>N</em>-(2-benzoylphenyl)-2-bromo-;Acetanilide, 2′-benzoyl-2-bromo-;<em>N</em>-(2-Benzoylphenyl)-2-bromoacetamide",
    "duplicated_cas_no": "",
    "SMILES": "C(=O)(C1=C(NC(CBr)=O)C=CC=C1)C2=CC=CC=C2",
    "meta_data": {
        "InChI": "InChI=1S/C15H12BrNO2/c16-10-14(18)17-13-9-5-4-8-12(13)15(19)11-6-2-1-3-7-11/h1-9H,10H2,(H,17,18)",
        "InChIKey": null,
        "Canonical SMILES": "O=C(C=1C=CC=CC1)C=2C=CC=CC2NC(=O)CBr",
        "Molecular Formula": "C<sub>15</sub>H<sub>12</sub>BrNO<sub>2</sub>",
        "Molecular Mass": "318.17",
        "Melting Point": "94-95 °C"
    }
}