{
    "cas_no": "2530-85-0",
    "key_name": "3-(Trimethoxysilyl)propyl methacrylate",
    "cn_name": "3-(甲基丙烯酰氧)丙基三甲氧基硅烷;硅烷偶联剂KH-570;",
    "alternate_name": "2-Propenoic acid, 2-methyl-, 3-(trimethoxysilyl)propyl ester;Methacrylic acid, 3-(trimethoxysilyl)propyl ester;1-Propanol, 3-(trimethoxysilyl)-, methacrylate;3-(Trimethoxysilyl)propyl methacrylate;[γ-(Methacryloyloxy)propyl]trimethoxysilane;(γ-Methacryloxypropyl)trimethoxysilane;A 174;3-Methacryloyloxypropyltrimethoxysilane;Z 6030;(3-Methacryloxypropyl)trimethoxysilane;KBM 503;Q 174;NUCA 174;Dynasylan MEMO;MOPS-M;Silane A 174;SH 6030;Prosil 248;KH 570;M 8550;TSL 8370;TMSPM;SZ 6030;GF 31;Sila-Ace S 710;LS 3380;Silquest A 174;Dynasylan MEMO-E;Unisilan 511;SS 1560;AZ 6167;KBM 503P;S 710;M 8550KG;MEMO;Silquest A 174NT;U 151;Trimethoxy(3-methacryloxypropyl)silane;MPS;NSC 93591;2-Methyl-2-propenoic acid 3-(trimethoxysilyl)propyl ester;A 174 (coupling agent);JH 70;Trimethoxy(3-methacryloyloxypropyl)silane;U 511;KH 70;TSL 8730;SB 570;SB 570 (coupling agent);Geniosil GF 31;Z 6530;MPTMS;SCA 989;Silwet A 174;KBM 508;DB 570;YDH 570;3MPA-SCA 989;SIM 6487.4;OFS 6030;3-(Methylacryloxy)propyltrimethoxysilane;SZ 6043;HD 70;KBM 5130;Xiameter OFS 6030;Dow Corning 6030;3-Methacryloxypropyltrimethoxisilane;PC 4100;Methacryloyloxypropyltrimethoxysilane;Dynasylan 6030;A 174NT;3-(Trimethyoxysilyl)propyl methacrylate;LD 570;γ-Methacryloxy propyl trimethoxyl silane;Silane coupling agent KH-570;S 15;S 15 (coupling agent);JH-O 174;KBM 305;KH 750;Xiameter OFS 6030 Silane;BY 24-846C;Dynasylan SIVO 250;SCA-L;Coupling Agent 6030;3-Trimethoxysilylpropyl 2-methylprop-2-enoate;SIM 6487;KH 570BR;G 570;CG 571;3-(Trimethoxylsilyl)propyl methacrylate;AC 63;O 174E;CG-O 174E;CG 570;CG 0174;LA-A 03;Andisil 174;Silanil 250;LT 570 (silane);LT 570;KG 570",
    "duplicated_cas_no": "65323-94-6;65323-95-7;65324-72-3;66796-20-1;72779-68-1;79642-98-1;82658-67-1;85256-86-6;96353-41-2;100662-14-4;114266-32-9;166799-02-6;201732-58-3;834889-15-5;1173882-02-4;1246811-88-0;1632407-07-8;1995778-47-6;2088315-70-0;2323631-53-2;2375881-80-2;2415635-33-3;2640163-80-8",
    "SMILES": "[Si](CCCOC(C(C)=C)=O)(OC)(OC)OC",
    "meta_data": {
        "InChI": "InChI=1S/C10H20O5Si/c1-9(2)10(11)15-7-6-8-16(12-3,13-4)14-5/h1,6-8H2,2-5H3",
        "InChIKey": null,
        "Canonical SMILES": "O=C(OCCC[Si](OC)(OC)OC)C(=C)C",
        "Molecular Formula": "C<sub>10</sub>H<sub>20</sub>O<sub>5</sub>Si",
        "Molecular Mass": "248.35",
        "Boiling Point": "190 °C",
        "Density": "1.045 g/cm³ @ Temp: 25 °C"
    }
}