{
    "cas_no": "10356-76-0",
    "key_name": "5-Fluoro-2′-deoxycytidine",
    "cn_name": null,
    "alternate_name": "Cytidine, 2′-deoxy-5-fluoro-;2′-Deoxy-5-fluorocytidine;5-Fluoro-2′-deoxycytidine;Ro 5-1090;5-Fluorodeoxycytidine;NSC 48006",
    "duplicated_cas_no": "",
    "SMILES": "O=C1N([C@@H]2O[C@H](CO)[C@@H](O)C2)C=C(F)C(N)=N1",
    "meta_data": {
        "InChI": "InChI=1S/C9H12FN3O4/c10-4-2-13(9(16)12-8(4)11)7-1-5(15)6(3-14)17-7/h2,5-7,14-15H,1,3H2,(H2,11,12,16)/t5-,6+,7+/m0/s1",
        "InChIKey": null,
        "Canonical SMILES": "O=C1N=C(N)C(F)=CN1C2OC(CO)C(O)C2",
        "Molecular Formula": "C<sub>9</sub>H<sub>12</sub>FN<sub>3</sub>O<sub>4</sub>",
        "Molecular Mass": "245.21",
        "Melting Point": "163 °C"
    }
}