{
    "cas_no": "75128-73-3",
    "key_name": "N<sup>2</sup>-Acetyl-9-(2-acetoxyethoxymethyl)guanine",
    "cn_name": "二乙酰鸟嘌呤;",
    "alternate_name": "Acetamide, <em>N</em>-[9-[[2-(acetyloxy)ethoxy]methyl]-6,9-dihydro-6-oxo-1<em>H</em>-purin-2-yl]-;<em>N</em>-[9-[[2-(Acetyloxy)ethoxy]methyl]-6,9-dihydro-6-oxo-1<em>H</em>-purin-2-yl]acetamide;9-[(2-Acetoxyethoxy)methyl]-<em>N</em><sup>2</sup>-acetylguanine;N<sup>2</sup>-Acetyl-9-(2-acetoxyethoxymethyl)guanine;<em>N</em>,<em>O</em>-Diacetylacyclovir",
    "duplicated_cas_no": "",
    "SMILES": "C(OCCOC(C)=O)N1C2=C(C(=O)N=C(NC(C)=O)N2)N=C1",
    "meta_data": {
        "InChI": "InChI=1S/C12H15N5O5/c1-7(18)14-12-15-10-9(11(20)16-12)13-5-17(10)6-21-3-4-22-8(2)19/h5H,3-4,6H2,1-2H3,(H2,14,15,16,18,20)",
        "InChIKey": null,
        "Canonical SMILES": "O=C1N=C(NC(=O)C)NC2=C1N=CN2COCCOC(=O)C",
        "Molecular Formula": "C<sub>12</sub>H<sub>15</sub>N<sub>5</sub>O<sub>5</sub>",
        "Molecular Mass": "309.28",
        "Melting Point": "204 °C"
    }
}