{
    "cas_no": "621-50-1",
    "key_name": "(3-Nitrophenyl)acetonitrile",
    "cn_name": "间硝基苯乙腈;",
    "alternate_name": "Benzeneacetonitrile, 3-nitro-;Acetonitrile, (<em>m</em>-nitrophenyl)-;3-Nitrobenzeneacetonitrile;(<em>m</em>-Nitrophenyl)acetonitrile;(3-Nitrophenyl)acetonitrile;3-Nitrobenzyl cyanide;<em>m</em>-Nitrobenzyl cyanide;NSC 91037;2-(3-Nitrophenyl)acetonitrile",
    "duplicated_cas_no": "",
    "SMILES": "C(C#N)C1=CC(N(=O)=O)=CC=C1",
    "meta_data": {
        "InChI": "InChI=1S/C8H6N2O2/c9-5-4-7-2-1-3-8(6-7)10(11)12/h1-3,6H,4H2",
        "InChIKey": null,
        "Canonical SMILES": "N#CCC=1C=CC=C(C1)N(=O)=O",
        "Molecular Formula": "C<sub>8</sub>H<sub>6</sub>N<sub>2</sub>O<sub>2</sub>",
        "Molecular Mass": "162.15",
        "Boiling Point": "160-165 °C @ Press: 3 Torr",
        "Melting Point": "63 °C"
    }
}