{
    "cas_no": "105-68-0",
    "key_name": "Isoamyl propionate",
    "cn_name": "丙酸异戊酯;丙酸3-甲基丁酯;",
    "alternate_name": "1-Butanol, 3-methyl-, 1-propanoate;Isopentyl alcohol, propionate;1-Butanol, 3-methyl-, propanoate;Propionic acid, isopentyl ester;Isoamyl propionate;3-Methylbutyl propionate;<em>iso</em>-Pentyl propionate;Isopentyl propionate;Isoamyl propanoate;Isopentyl propanoate;3-Methylbutyl propanoate;NSC 7932;3-Methyl-1-butanol propanoate;3-Methyl-1-butyl propanoate",
    "duplicated_cas_no": "",
    "SMILES": "C(OCCC(C)C)(CC)=O",
    "meta_data": {
        "InChI": "InChI=1S/C8H16O2/c1-4-8(9)10-6-5-7(2)3/h7H,4-6H2,1-3H3",
        "InChIKey": null,
        "Canonical SMILES": "O=C(OCCC(C)C)CC",
        "Molecular Formula": "C<sub>8</sub>H<sub>16</sub>O<sub>2</sub>",
        "Molecular Mass": "144.21",
        "Boiling Point": "160.2 °C"
    }
}