{
    "cas_no": "3606-45-9",
    "key_name": "Dihydrosanguinarine",
    "cn_name": null,
    "alternate_name": "[1,3]Benzodioxolo[5,6-<em>c</em>]-1,3-dioxolo[4,5-<em>i</em>]phenanthridine, 13,14-dihydro-13-methyl-;Sanguinarine, 13,14-dihydro-;Sanguinarine, dihydro-;13,14-Dihydro-13-methyl[1,3]benzodioxolo[5,6-<em>c</em>]-1,3-dioxolo[4,5-<em>i</em>]phenanthridine;13,14-Dihydrosanguinarine;Dihydrosanguinarine;Hydrosanguinarine;Dihydrosanquinarine",
    "duplicated_cas_no": "",
    "SMILES": "CN1C=2C(C=3C(C1)=C4C(=CC3)OCO4)=CC=C5C2C=C6C(=C5)OCO6",
    "meta_data": {
        "InChI": "InChI=1S/C20H15NO4/c1-21-8-15-12(4-5-16-20(15)25-10-22-16)13-3-2-11-6-17-18(24-9-23-17)7-14(11)19(13)21/h2-7H,8-10H2,1H3",
        "InChIKey": null,
        "Canonical SMILES": "O1C=2C=CC=3C4=CC=C5C=C6OCOC6=CC5=C4N(C)CC3C2OC1",
        "Molecular Formula": "C<sub>20</sub>H<sub>15</sub>NO<sub>4</sub>",
        "Molecular Mass": "333.34",
        "Melting Point": "190-191 °C"
    }
}