{
    "cas_no": "641-74-7",
    "key_name": "Isomannide",
    "cn_name": "1,4:3,6-双脱水甘露醇;",
    "alternate_name": "<span class=\"text-smallcaps\">D</span>-Mannitol, 1,4:3,6-dianhydro-;Mannitol, 1,4:3,6-dianhydro-, <span class=\"text-smallcaps\">D</span>-;1,4:3,6-Dianhydro-<span class=\"text-smallcaps\">D</span>-mannitol;Furo[3,2-<em>b</em>]furan, <span class=\"text-smallcaps\">D</span>-mannitol deriv.;Isomannide;(+)-Isomannide;1,4:3,6-Dianhydromannitol;Dianhydromannitol;NSC 270938;(3R,3<em>a</em>R,6R,6<em>a</em>R)-Hexahydrofuro[3,2-<em>b</em>]furan-3,6-diol;<span class=\"text-smallcaps\">D</span>-Isomannide",
    "duplicated_cas_no": "876590-73-7",
    "SMILES": "O[C@H]1[C@@]2([C@@]([C@H](O)CO2)(OC1)[H])[H]",
    "meta_data": {
        "InChI": "InChI=1S/C6H10O4/c7-3-1-9-6-4(8)2-10-5(3)6/h3-8H,1-2H2/t3-,4-,5-,6-/m1/s1",
        "InChIKey": null,
        "Canonical SMILES": "OC1COC2C(O)COC12",
        "Molecular Formula": "C<sub>6</sub>H<sub>10</sub>O<sub>4</sub>",
        "Molecular Mass": "146.14",
        "Boiling Point": "95-99 °C @ Press: 0.8 Torr",
        "Melting Point": "88 °C"
    }
}