{
    "cas_no": "275-02-5",
    "key_name": "[1,2,4]Triazolo[1,5-<em>a</em>]pyrimidine",
    "cn_name": null,
    "alternate_name": "[1,2,4]Triazolo[1,5-<em>a</em>]pyrimidine;<em>s</em>-Triazolo[1,5-<em>a</em>]pyrimidine;1,3,3a,7-Tetraazaindene;1,3,3a,7-Tetrazaindene;1,3,4-Triazaindolizine;<em>s</em>-Triazolo[2,3-<em>a</em>]pyrimidine;[1,2,4]Triazolo[2,3-<em>a</em>]pyrimidine;2,3-Triazolo-α-pyrimidine;1-Deaza-5-azapurine;1,2,4-Triazolo[1,5-a]pyrimidine",
    "duplicated_cas_no": "184304-64-1",
    "SMILES": "C=12N(N=CN1)C=CC=N2",
    "meta_data": {
        "InChI": "InChI=1S/C5H4N4/c1-2-6-5-7-4-8-9(5)3-1/h1-4H",
        "InChIKey": null,
        "Canonical SMILES": "N=1C=NN2C=CC=NC12",
        "Molecular Formula": "C<sub>5</sub>H<sub>4</sub>N<sub>4</sub>",
        "Molecular Mass": "120.11",
        "Melting Point": "141-143 °C"
    }
}