{
    "cas_no": "4511-42-6",
    "key_name": "<span class=\"text-smallcaps\">L</span>-Lactide",
    "cn_name": "L-丙交酯;(3S,6S)-3,6-二甲基-1,4-二氧杂环己烷-2,5-二酮;",
    "alternate_name": "1,4-Dioxane-2,5-dione, 3,6-dimethyl-, (3<em>S</em>,6<em>S</em>)-;<em>p</em>-Dioxane-2,5-dione, 3,6-dimethyl-, <span class=\"text-smallcaps\">L</span>-;1,4-Dioxane-2,5-dione, 3,6-dimethyl-, (3<em>S</em>-<em>cis</em>)-;(3<em>S</em>,6<em>S</em>)-3,6-Dimethyl-1,4-dioxane-2,5-dione;<span class=\"text-smallcaps\">L</span>-Lactide;(<em>S</em>,<em>S</em>)-3,6-Dimethyl-1,4-dioxane-2,5-dione;<span class=\"text-smallcaps\">L</smallcap>,<smallcap>L</span>-Dilactide;<span class=\"text-smallcaps\">L</span>-(-)-Lactide;<span class=\"text-smallcaps\">L</span>-Dilactide;(-)-<span class=\"text-smallcaps\">L</span>-Dilactide;<span class=\"text-smallcaps\">L</smallcap><smallcap>L</span>-Lactide;1,4-Dioxane-2,5-dione, 3,6-dimethyl-, (3<em>S</em>,5<em>S</em>)-;Purasorb L;Scolat AL;Puralact B 3;PuraLact L;Purac TL;Lumilact L;Esun LA 99",
    "duplicated_cas_no": "13167-47-0;17699-81-9;22061-81-0;25151-34-2",
    "SMILES": "C[C@H]1C(=O)O[C@@H](C)C(=O)O1",
    "meta_data": {
        "InChI": "InChI=1S/C6H8O4/c1-3-5(7)10-4(2)6(8)9-3/h3-4H,1-2H3/t3-,4-/m0/s1",
        "InChIKey": null,
        "Canonical SMILES": "O=C1OC(C(=O)OC1C)C",
        "Molecular Formula": "C<sub>6</sub>H<sub>8</sub>O<sub>4</sub>",
        "Molecular Mass": "144.13",
        "Melting Point": "95-96 °C"
    }
}