{
    "cas_no": "1613-66-7",
    "key_name": "Dichlorodiphenylgermane",
    "cn_name": null,
    "alternate_name": "Germane, dichlorodiphenyl-;Dichlorodiphenylgermane;Diphenylgermanium dichloride;Diphenyldichlorogermane;Diphenyldichlorogermanium;Dichlorodiphenylgermanium;NSC 166301",
    "duplicated_cas_no": "",
    "SMILES": "[Ge](Cl)(Cl)(C1=CC=CC=C1)C2=CC=CC=C2",
    "meta_data": {
        "InChI": "InChI=1S/C12H10Cl2Ge/c13-15(14,11-7-3-1-4-8-11)12-9-5-2-6-10-12/h1-10H",
        "InChIKey": null,
        "Canonical SMILES": "Cl[Ge](Cl)(C=1C=CC=CC1)C=2C=CC=CC2",
        "Molecular Formula": "C<sub>12</sub>H<sub>10</sub>Cl<sub>2</sub>Ge",
        "Molecular Mass": "297.75",
        "Boiling Point": "223 °C @ Press: 12 Torr",
        "Melting Point": "9 °C",
        "Density": "1.41 g/cm³ @ Temp: 25 °C"
    }
}