{
    "cas_no": "58861-53-3",
    "key_name": "2-(4-Fluorophenyl)pyridine",
    "cn_name": "2-(4-氟苯基)吡啶;",
    "alternate_name": "Pyridine, 2-(4-fluorophenyl)-;2-(4-Fluorophenyl)pyridine;2-(<em>p</em>-Fluorophenyl)pyridine",
    "duplicated_cas_no": "",
    "SMILES": "FC1=CC=C(C=C1)C2=CC=CC=N2",
    "meta_data": {
        "InChI": "InChI=1S/C11H8FN/c12-10-6-4-9(5-7-10)11-3-1-2-8-13-11/h1-8H",
        "InChIKey": null,
        "Canonical SMILES": "FC=1C=CC(=CC1)C2=NC=CC=C2",
        "Molecular Formula": "C<sub>11</sub>H<sub>8</sub>FN",
        "Molecular Mass": "173.19",
        "Melting Point": "39-41 °C"
    }
}