{
    "cas_no": "64987-05-9",
    "key_name": "Ethyl 2-(formylamino)-4-thiazoleacetate",
    "cn_name": "2-(2-甲酰氨基噻唑-4-基)乙酸乙酯;",
    "alternate_name": "4-Thiazoleacetic acid, 2-(formylamino)-, ethyl ester;Ethyl 2-(formylamino)-4-thiazoleacetate;4-(Carbethoxymethyl)-2-formamidothiazole;Ethyl 2-(formylamino)-4-thiazolacetate",
    "duplicated_cas_no": "",
    "SMILES": "C(C(OCC)=O)C=1N=C(NC=O)SC1",
    "meta_data": {
        "InChI": "InChI=1S/C8H10N2O3S/c1-2-13-7(12)3-6-4-14-8(10-6)9-5-11/h4-5H,2-3H2,1H3,(H,9,10,11)",
        "InChIKey": null,
        "Canonical SMILES": "O=CNC1=NC(=CS1)CC(=O)OCC",
        "Molecular Formula": "C<sub>8</sub>H<sub>10</sub>N<sub>2</sub>O<sub>3</sub>S",
        "Molecular Mass": "214.24",
        "Melting Point": "119-120 °C"
    }
}