{
    "cas_no": "13284-42-9",
    "key_name": "2-Pentenenitrile",
    "cn_name": "2-戊烯腈;",
    "alternate_name": "2-Pentenenitrile;1-Cyano-1-butene",
    "duplicated_cas_no": "",
    "SMILES": "C(=CC#N)CC",
    "meta_data": {
        "InChI": "InChI=1S/C5H7N/c1-2-3-4-5-6/h3-4H,2H2,1H3",
        "InChIKey": null,
        "Canonical SMILES": "N#CC=CCC",
        "Molecular Formula": "C<sub>5</sub>H<sub>7</sub>N",
        "Molecular Mass": "81.12",
        "Boiling Point": "67-74 °C @ Press: 100 Torr"
    }
}