{
    "cas_no": "9004-73-3",
    "key_name": "Poly(methylhydrosiloxane)",
    "cn_name": null,
    "alternate_name": "Poly[oxy(methylsilylene)];Poly(methylhydrosiloxane);Methyl hydrogen siloxane;Methylsilanediol homopolymer, sru;TSH 14;PMHS 1107;PMHS;C 153A;Polon MR;Polon MF 16;Polon MF 33A;Polon MF 49;Polon MK 206;Polon MWS;1,3,5,7-Tetramethylcyclotetrasiloxane homopolymer, sru;SM 8707;Methylsilanediol polymer sru;2,4,6,8-Tetramethylcyclotetrasiloxane homopolymer, SRU;Me hydrogen siloxane, SRU;Monomethylsiloxane, SRU;Poly(methyl hydrogen siloxane);TSF 484-20;SLE 5300B;V 72;Poly(1,3,5,7-tetramethylcyclotetrasiloxane, SRU;136-157M;Poly(methylsiloxane);Geranex S 3;PHMS 67;Lukofix T 40D;SL 6020D1;Zh 136-157M;Polysilicone 4;X 28792;Crosslinker V 72;Penta 804;Dow Corning 75SF;GKZh 136-157M;DC 7367;CY 502;SH 503;ASA-X 01;GP 236;Silikophen AC 1000",
    "duplicated_cas_no": "109048-41-1;109048-42-2;229970-58-5;1137675-41-2;1266550-99-5;2369021-36-1",
    "SMILES": "",
    "meta_data": {
        "InChI": "",
        "InChIKey": null,
        "Canonical SMILES": "",
        "Molecular Formula": "(CH<sub>4</sub>OSi)<sub>n</sub>",
        "Molecular Mass": "",
        "Boiling Point": "150 °C",
        "Density": "1.006 g/cm³"
    }
}