{
    "cas_no": "26759-46-6",
    "key_name": "Benzoic acid, 2-amino-4,5-dimethoxy-, methyl ester",
    "cn_name": "2-氨基-4,5-二甲氧基苯甲酸甲酯;",
    "alternate_name": "Benzoic acid, 2-amino-4,5-dimethoxy-, methyl ester;Veratric acid, 6-amino-, methyl ester;Methyl 6-amino-3,4-dimethoxybenzoate;Methyl 4,5-dimethoxyanthranilate;Methyl 2-amino-4,5-dimethoxybenzoate;2-Amino-4,5-dimethoxybenzoic acid methyl ester;Methyl 6-aminoveratrate;4,5-Dimethoxyanthranilic acid methyl ester;2-Methoxycarbonyl-4,5-methoxyaniline",
    "duplicated_cas_no": "",
    "SMILES": "C(OC)(=O)C1=CC(OC)=C(OC)C=C1N",
    "meta_data": {
        "InChI": "InChI=1S/C10H13NO4/c1-13-8-4-6(10(12)15-3)7(11)5-9(8)14-2/h4-5H,11H2,1-3H3",
        "InChIKey": null,
        "Canonical SMILES": "O=C(OC)C1=CC(OC)=C(OC)C=C1N",
        "Molecular Formula": "C<sub>10</sub>H<sub>13</sub>NO<sub>4</sub>",
        "Molecular Mass": "211.21",
        "Melting Point": "130 °C"
    }
}