{
    "cas_no": "5521-56-2",
    "key_name": "6-Methyl-2-pyrazinamine",
    "cn_name": "2-氨基-6-甲基吡嗪;",
    "alternate_name": "2-Pyrazinamine, 6-methyl-;Pyrazine, 2-amino-6-methyl-;Pyrazinamine, 6-methyl-;6-Methyl-2-pyrazinamine;2-Amino-6-methylpyrazine;6-Methylpyrazin-2-ylamine",
    "duplicated_cas_no": "",
    "SMILES": "CC1=NC(N)=CN=C1",
    "meta_data": {
        "InChI": "InChI=1S/C5H7N3/c1-4-2-7-3-5(6)8-4/h2-3H,1H3,(H2,6,8)",
        "InChIKey": null,
        "Canonical SMILES": "N=1C=C(N=C(C1)C)N",
        "Molecular Formula": "C<sub>5</sub>H<sub>7</sub>N<sub>3</sub>",
        "Molecular Mass": "109.13",
        "Melting Point": "124-125 °C"
    }
}