{
    "cas_no": "375-45-1",
    "key_name": "1,2,3,4-Tetrachlorohexafluorobutane",
    "cn_name": null,
    "alternate_name": "Butane, 1,2,3,4-tetrachloro-1,1,2,3,4,4-hexafluoro-;Butane, 1,2,3,4-tetrachlorohexafluoro-;1,2,3,4-Tetrachloro-1,1,2,3,4,4-hexafluorobutane;1,2,3,4-Tetrachlorohexafluorobutane;1,1,2,3,4,4-Hexafluoro-1,2,3,4-tetrachlorobutane;1,2,3,4-Tetrachloroperfluorobutane",
    "duplicated_cas_no": "",
    "SMILES": "C(C(C(Cl)(F)F)(Cl)F)(C(Cl)(F)F)(Cl)F",
    "meta_data": {
        "InChI": "InChI=1S/C4Cl4F6/c5-1(9,3(7,11)12)2(6,10)4(8,13)14",
        "InChIKey": null,
        "Canonical SMILES": "FC(F)(Cl)C(F)(Cl)C(F)(Cl)C(F)(F)Cl",
        "Molecular Formula": "C<sub>4</sub>Cl<sub>4</sub>F<sub>6</sub>",
        "Molecular Mass": "303.85",
        "Boiling Point": "133-134 °C",
        "Melting Point": "134-135 °C",
        "Density": "1.7812 g/cm³ @ Temp: 20 °C"
    }
}