{
    "cas_no": "19216-56-9",
    "key_name": "Prazosin",
    "cn_name": "哌唑嗪;1-(4-氨基-6,7-二甲氧基-2-喹唑啉基-4-(2-呋喃基羰基))哌嗪;",
    "alternate_name": "Methanone, [4-(4-amino-6,7-dimethoxy-2-quinazolinyl)-1-piperazinyl]-2-furanyl-;Piperazine, 1-(4-amino-6,7-dimethoxy-2-quinazolinyl)-4-(2-furoyl)-;Piperazine, 1-(4-amino-6,7-dimethoxy-2-quinazolinyl)-4-(2-furanylcarbonyl)-;[4-(4-Amino-6,7-dimethoxy-2-quinazolinyl)-1-piperazinyl]-2-furanylmethanone;Prazosin;Lentopres;4-(4-Amino-6,7-dimethoxyquinazolin-2-yl)piperazinyl 2-furyl ketone;Furazosin;2-[4-(2-Furoyl)piperazin-1-yl]-6,7-dimethoxyquinazolin-4-amine;2-[4-(Furan-2-carbonyl)piperazin-1-yl]-6,7-dimethoxyquinazolin-4-amine;MeSH ID: D011224",
    "duplicated_cas_no": "",
    "SMILES": "NC=1C2=C(N=C(N1)N3CCN(C(=O)C4=CC=CO4)CC3)C=C(OC)C(OC)=C2",
    "meta_data": {
        "InChI": "InChI=1S/C19H21N5O4/c1-26-15-10-12-13(11-16(15)27-2)21-19(22-17(12)20)24-7-5-23(6-8-24)18(25)14-4-3-9-28-14/h3-4,9-11H,5-8H2,1-2H3,(H2,20,21,22)",
        "InChIKey": null,
        "Canonical SMILES": "O=C(C=1OC=CC1)N2CCN(C=3N=C(N)C=4C=C(OC)C(OC)=CC4N3)CC2",
        "Molecular Formula": "C<sub>19</sub>H<sub>21</sub>N<sub>5</sub>O<sub>4</sub>",
        "Molecular Mass": "383.40",
        "Melting Point": "279 °C"
    }
}