{
    "cas_no": "7803-62-5",
    "key_name": "Silane",
    "cn_name": "硅烷;甲硅烷;",
    "alternate_name": "Silane;Silicane;Silicon tetrahydride;Monosilane (SiH<sub>4</sub>);Silicon hydride (SiH<sub>4</sub>);Silicon hydride",
    "duplicated_cas_no": "",
    "SMILES": "[SiH4]",
    "meta_data": {
        "InChI": "InChI=1S/H4Si/h1H4",
        "InChIKey": null,
        "Canonical SMILES": "[SiH4]",
        "Molecular Formula": "H<sub>4</sub>Si",
        "Molecular Mass": "",
        "Boiling Point": "-112 °C",
        "Melting Point": "-185 °C",
        "Density": "0.680 g/cm³ @ Temp: -185 °C"
    }
}