{
    "cas_no": "114607-46-4",
    "key_name": "Acitazanolast",
    "cn_name": null,
    "alternate_name": "Acetic acid, 2-oxo-2-[[3-(2<em>H</em>-tetrazol-5-yl)phenyl]amino]-;Acetic acid, oxo[[3-(1<em>H</em>-tetrazol-5-yl)phenyl]amino]-;2-Oxo-2-[[3-(2<em>H</em>-tetrazol-5-yl)phenyl]amino]acetic acid;WP 871;3′-(1<em>H</em>-Tetrazol-5-yl)oxanilic acid;Acitazanolast;Zepelin;Zepelin (bronchodilator);[[3-(1<em>H</em>-1,2,3,4-Tetrazol-5-yl)phenyl]carbamoyl]formic acid;2-Oxo-2-[3-(2<em>H</em>-tetrazol-5-yl)anilino]acetic acid;2-(3-(1<em>H</em>-Tetrazol-5-yl)phenylamino)-2-oxoacetic acid",
    "duplicated_cas_no": "",
    "SMILES": "N(C(C(O)=O)=O)C=1C=C(C=CC1)C=2NN=NN2",
    "meta_data": {
        "InChI": "InChI=1S/C9H7N5O3/c15-8(9(16)17)10-6-3-1-2-5(4-6)7-11-13-14-12-7/h1-4H,(H,10,15)(H,16,17)(H,11,12,13,14)",
        "InChIKey": null,
        "Canonical SMILES": "O=C(O)C(=O)NC1=CC=CC(=C1)C2=NN=NN2",
        "Molecular Formula": "C<sub>9</sub>H<sub>7</sub>N<sub>5</sub>O<sub>3</sub>",
        "Molecular Mass": "233.18",
        "Melting Point": "241-243 °C (decomp)"
    }
}