{
    "cas_no": "2386-33-6",
    "key_name": "3-Acetyl-4,5-dimethyl-1<em>H</em>-pyrrole-2-carboxylic acid",
    "cn_name": "4-乙酰基-3,5-二甲基-2-吡咯羧酸;",
    "alternate_name": "1<em>H</em>-Pyrrole-2-carboxylic acid, 3-acetyl-4,5-dimethyl-;Pyrrole-2-carboxylic acid, 3-acetyl-4,5-dimethyl-;3-Acetyl-4,5-dimethyl-1<em>H</em>-pyrrole-2-carboxylic acid",
    "duplicated_cas_no": "",
    "SMILES": "C(C)(=O)C1=C(C(O)=O)NC(C)=C1C",
    "meta_data": {
        "InChI": "InChI=1S/C9H11NO3/c1-4-5(2)10-8(9(12)13)7(4)6(3)11/h10H,1-3H3,(H,12,13)",
        "InChIKey": null,
        "Canonical SMILES": "O=C(O)C=1NC(=C(C1C(=O)C)C)C",
        "Molecular Formula": "C<sub>9</sub>H<sub>11</sub>NO<sub>3</sub>",
        "Molecular Mass": "181.19",
        "Melting Point": "204 °C"
    }
}