{
    "cas_no": "307-30-2",
    "key_name": "1<em>H</em>,1<em>H</em>-Perfluorooctanol",
    "cn_name": "全氟-1-辛醇;",
    "alternate_name": "1-Octanol, 2,2,3,3,4,4,5,5,6,6,7,7,8,8,8-pentadecafluoro-;2,2,3,3,4,4,5,5,6,6,7,7,8,8,8-Pentadecafluoro-1-octanol;1,1-Dihydropentadecafluorooctan-1-ol;1,1-Dihydroperfluorooctanol;1<em>H</em>,1<em>H</em>-Pentadecafluoro-1-octanol;(Perfluoroheptyl)methanol;1<em>H</em>,1<em>H</em>-Perfluorooctanol;Pentadecafluoro-1,1-dihydrooctanol;α,α-Dihydroperfluorooctanol;1,1-Dihydroperfluorooctyl alcohol;1,1-Dihydropentadecafluorooctanol;1<em>H</em>,1<em>H</em>-Pentadecafluorooctanol;(Pentadecafluoroheptyl)methanol;1<em>H</em>,1<em>H</em>-Pentadecafluoro-<em>n</em>-octanol;1<em>H</em>,1<em>H</em>-Perfluoro-1-octanol;Unitex DJ 10;2,2,3,3,4,4,5,5,6,6,7,7,8,8,8-Pentadecafluorooctanol;Eftop PDFOH",
    "duplicated_cas_no": "",
    "SMILES": "C(C(C(C(CO)(F)F)(F)F)(F)F)(C(C(C(F)(F)F)(F)F)(F)F)(F)F",
    "meta_data": {
        "InChI": "InChI=1S/C8H3F15O/c9-2(10,1-24)3(11,12)4(13,14)5(15,16)6(17,18)7(19,20)8(21,22)23/h24H,1H2",
        "InChIKey": null,
        "Canonical SMILES": "FC(F)(F)C(F)(F)C(F)(F)C(F)(F)C(F)(F)C(F)(F)C(F)(F)CO",
        "Molecular Formula": "C<sub>8</sub>H<sub>3</sub>F<sub>15</sub>O",
        "Molecular Mass": "400.08",
        "Boiling Point": "161 °C",
        "Melting Point": "37 °C"
    }
}