{
    "cas_no": "79069-13-9",
    "key_name": "1,1-Dimethylethyl <em>N</em>-[(1<em>S</em>)-2-hydroxy-1-methylethyl]carbamate",
    "cn_name": "N-Boc-L-丙氨醇;N-叔丁氧羰基-L-丙氨醇;",
    "alternate_name": "Carbamic acid, <em>N</em>-[(1<em>S</em>)-2-hydroxy-1-methylethyl]-, 1,1-dimethylethyl ester;Carbamic acid, (2-hydroxy-1-methylethyl)-, 1,1-dimethylethyl ester, (<em>S</em>)-;Carbamic acid, [(1<em>S</em>)-2-hydroxy-1-methylethyl]-, 1,1-dimethylethyl ester;1,1-Dimethylethyl <em>N</em>-[(1<em>S</em>)-2-hydroxy-1-methylethyl]carbamate;(<em>S</em>)-2-(<em>N</em>-<em>tert</em>-Butoxycarbonylamino)propan-1-ol;<em>N</em>-<em>tert</em>-Butoxycarbonyl-<span class=\"text-smallcaps\">L</span>-alaninol;(<em>S</em>)-2-<em>tert</em>-Butoxycarbonylamino-1-propanol;(1<em>S</em>)-<em>N</em>-(<em>tert</em>-Butoxycarbonyl)-1-methyl-2-hydroxyethylamine;(<em>S</em>)-2-((<em>tert</em>-Butoxycarbonyl)amino)propanol;((<em>S</em>)-2-Hydroxy-1-methylethyl)carbamic acid tert-butyl ester;(<em>S</em>)-(-)-2-(<em>tert</em>-Butoxycarbonylamino)-1-propanol;(<em>S</em>)-<em>N</em>-Boc-alaninol;<em>N</em>-Boc-<span class=\"text-smallcaps\">L</span>-alaninol;<em>tert</em>-Butyl ((<em>S</em>)-1-hydroxypropan-2-yl)carbamate;<em>N</em>-((<em>S</em>)-2-Hydroxy-1-methylethyl)carbamic acid tert-butyl ester;1,1-Dimethylethyl ((1<em>S</em>)-2-hydroxy-1-methylethyl)carbamate;<em>tert</em>-Butyl ((1<em>S</em>)-2-hydroxy-1-methylethyl)carbamate;((1<em>S</em>)-2-Hydroxy-1-methylethyl)carbamic acid tert-butyl ester;<em>tert</em>-Butyl <em>N</em>-((<em>S</em>)-1-hydroxypropan-2-yl)carbamate;<em>tert</em>-Butyl ((2<em>S</em>)-1-hydroxypropan-2-yl)carbamate;(<em>S</em>)-<em>N</em>-Boc-2-aminopropan-1-ol;(<em>S</em>)-<em>tert</em>-Butyl (1-hydroxypropan-2-yl)carbamate;(<em>S</em>)-<em>2</em>-<em>t</em>-Butoxycarbonylaminopropan-1-ol;<em>tert</em>-Butyl <em>N</em>-[(2S)-1-hydroxypropan-2-yl]carbamate",
    "duplicated_cas_no": "1456511-68-4",
    "SMILES": "O(C(C)(C)C)C(N[C@H](CO)C)=O",
    "meta_data": {
        "InChI": "InChI=1S/C8H17NO3/c1-6(5-10)9-7(11)12-8(2,3)4/h6,10H,5H2,1-4H3,(H,9,11)/t6-/m0/s1",
        "InChIKey": null,
        "Canonical SMILES": "O=C(OC(C)(C)C)NC(C)CO",
        "Molecular Formula": "C<sub>8</sub>H<sub>17</sub>NO<sub>3</sub>",
        "Molecular Mass": "175.23",
        "Melting Point": "57-58 °C"
    }
}