{
    "cas_no": "108-61-2",
    "key_name": "2,2′-Oxybis[1-propanol]",
    "cn_name": "双(1-甲基-2-羟乙基)醚;",
    "alternate_name": "1-Propanol, 2,2′-oxybis-;1-Propanol, 2,2′-oxydi-;2,2′-Oxybis[1-propanol];2,2′-Oxydi-1-propanol;Bis(1-methyl-2-hydroxyethyl) ether;2,4-Dimethyl-3-oxapentane-1,5-diol;2-[(1-Hydroxypropan-2-yl)oxy]propan-1-ol;2-(1-Hydroxypropan-2-yloxy)propan-1-ol",
    "duplicated_cas_no": "",
    "SMILES": "O(C(CO)C)C(CO)C",
    "meta_data": {
        "InChI": "InChI=1S/C6H14O3/c1-5(3-7)9-6(2)4-8/h5-8H,3-4H2,1-2H3",
        "InChIKey": null,
        "Canonical SMILES": "OCC(OC(C)CO)C",
        "Molecular Formula": "C<sub>6</sub>H<sub>14</sub>O<sub>3</sub>",
        "Molecular Mass": "134.17",
        "Boiling Point": "113-114 °C @ Press: 10 Torr",
        "Melting Point": "65 °C",
        "Density": "0.9878 g/cm³ @ Temp: 60 °C"
    }
}