{
    "cas_no": "1151-94-6",
    "key_name": "4-Methoxy-4′-nitrobenzophenone",
    "cn_name": null,
    "alternate_name": "Methanone, (4-methoxyphenyl)(4-nitrophenyl)-;Benzophenone, 4-methoxy-4′-nitro-;(4-Methoxyphenyl)(4-nitrophenyl)methanone;4-Methoxy-4′-nitrobenzophenone;4-Nitro-4′-methoxybenzophenone;4′-Methoxy-4-nitrobenzophenone;4-Methoxyphenyl 4-nitrophenyl ketone;NSC 406625",
    "duplicated_cas_no": "",
    "SMILES": "C(=O)(C1=CC=C(N(=O)=O)C=C1)C2=CC=C(OC)C=C2",
    "meta_data": {
        "InChI": "InChI=1S/C14H11NO4/c1-19-13-8-4-11(5-9-13)14(16)10-2-6-12(7-3-10)15(17)18/h2-9H,1H3",
        "InChIKey": null,
        "Canonical SMILES": "O=C(C1=CC=C(OC)C=C1)C2=CC=C(C=C2)N(=O)=O",
        "Molecular Formula": "C<sub>14</sub>H<sub>11</sub>NO<sub>4</sub>",
        "Molecular Mass": "257.24",
        "Boiling Point": "192-194 °C @ Press: 0.9 Torr",
        "Melting Point": "126-128 °C"
    }
}