{
    "cas_no": "1835-49-0",
    "key_name": "Tetrafluoroterephthalonitrile",
    "cn_name": "四氟对苯二腈;2,3,5,6-四氟对苯二腈;四氟对苯二甲腈;",
    "alternate_name": "1,4-Benzenedicarbonitrile, 2,3,5,6-tetrafluoro-;Terephthalonitrile, tetrafluoro-;2,3,5,6-Tetrafluoro-1,4-benzenedicarbonitrile;Tetrafluoroterephthalonitrile;Diamond 2031;1,4-Dicyanotetrafluorobenzene;2,3,5,6-Tetrafluoroterephthalonitrile;Tetrafluoroterephthalodinitrile;2,3,5,6-Tetrafluoro-1,4-benzodinitrile;1,2,4,5-Tetrafluoro-3,6-dicyanobenzene;NSC 97007;1,4-Dicyano-2,3,5,6-tetrafluorobenzene;2,3,5,6-Tetrafluoro-1,4-dicyanobenzene;2,3,5,6-Tetrafluorophthalonitrile;Perfluoroterephthalonitrile",
    "duplicated_cas_no": "",
    "SMILES": "C(#N)C1=C(F)C(F)=C(C#N)C(F)=C1F",
    "meta_data": {
        "InChI": "InChI=1S/C8F4N2/c9-5-3(1-13)6(10)8(12)4(2-14)7(5)11",
        "InChIKey": null,
        "Canonical SMILES": "N#CC1=C(F)C(F)=C(C#N)C(F)=C1F",
        "Molecular Formula": "C<sub>8</sub>F<sub>4</sub>N<sub>2</sub>",
        "Molecular Mass": "200.09",
        "Melting Point": "198 °C"
    }
}