{
    "cas_no": "367-86-2",
    "key_name": "4-Fluoro-3-nitrobenzotrifluoride",
    "cn_name": "2-硝基-4-三氟甲基氟苯;",
    "alternate_name": "Benzene, 1-fluoro-2-nitro-4-(trifluoromethyl)-;Toluene, α,α,α,4-tetrafluoro-3-nitro-;1-Fluoro-2-nitro-4-(trifluoromethyl)benzene;α,α,α,4-Tetrafluoro-3-nitrotoluene;4-Fluoro-3-nitrobenzotrifluoride;3-Nitro-4-fluorobenzotrifluoride;4-Fluoro-3-nitrobenzofluoride;4-Trifluoromethyl-2-nitro-1-fluorobenzene;2-Fluoro-5-(trifluoromethyl)nitrobenzene;NSC 10303;2-Nitro-4-(trifluoromethyl)fluorobenzene;2-Fluoro-5-trifluoromethyl-1-nitrobenzene",
    "duplicated_cas_no": "",
    "SMILES": "N(=O)(=O)C1=CC(C(F)(F)F)=CC=C1F",
    "meta_data": {
        "InChI": "InChI=1S/C7H3F4NO2/c8-5-2-1-4(7(9,10)11)3-6(5)12(13)14/h1-3H",
        "InChIKey": null,
        "Canonical SMILES": "O=N(=O)C1=CC(=CC=C1F)C(F)(F)F",
        "Molecular Formula": "C<sub>7</sub>H<sub>3</sub>F<sub>4</sub>NO<sub>2</sub>",
        "Molecular Mass": "209.10",
        "Boiling Point": "92 °C @ Press: 15 Torr"
    }
}