{
    "cas_no": "37517-28-5",
    "key_name": "Amikacin",
    "cn_name": "丁胺卡那霉素;",
    "alternate_name": "<span class=\"text-smallcaps\">D</smallcap>-Streptamine, <em>O</em>-3-amino-3-deoxy-α-<smallcap>D</smallcap>-glucopyranosyl-(1→6)-<em>O</em>-[6-amino-6-deoxy-α-<smallcap>D</span>-glucopyranosyl-(1→4)]-<em>N</em><sup>1</sup>-[(2<em>S</em>)-4-amino-2-hydroxy-1-oxobutyl]-2-deoxy-;<span class=\"text-smallcaps\">D</smallcap>-Streptamine, <em>O</em>-3-amino-3-deoxy-α-<smallcap>D</smallcap>-glucopyranosyl-(1→6)-<em>O</em>-[6-amino-6-deoxy-α-<smallcap>D</span>-glucopyranosyl-(1→4)]-<em>N</em><sup>1</sup>-(4-amino-2-hydroxy-1-oxobutyl)-2-deoxy-, (<em>S</em>)-;<em>O</em>-3-Amino-3-deoxy-α-<span class=\"text-smallcaps\">D</smallcap>-glucopyranosyl-(1→6)-<em>O</em>-[6-amino-6-deoxy-α-<smallcap>D</smallcap>-glucopyranosyl-(1→4)]-<em>N</em><sup>1</sup>-[(2<em>S</em>)-4-amino-2-hydroxy-1-oxobutyl]-2-deoxy-<smallcap>D</span>-streptamine;1-<em>N</em>-[<span class=\"text-smallcaps\">L</span>-(-)-γ-Amino-α-hydroxybutyryl]kanamycin A;Amikacin;Antibiotic BB-K 8;BB-K 8;Amicacin;Amikacillin;Lukadin;Amukin;Arikace;Potentox;BAY 41-6551;BAY 416651;Amikozit;Amigasol;Arikayce;MeSH ID: D000583",
    "duplicated_cas_no": "108914-65-4;110660-81-6;110660-83-8;111319-93-8;38859-32-4;1079316-47-4",
    "SMILES": "O([C@H]1[C@H](NC([C@H](CCN)O)=O)C[C@H](N)[C@@H](O[C@H]2O[C@H](CN)[C@@H](O)[C@H](O)[C@H]2O)[C@@H]1O)[C@H]3O[C@H](CO)[C@@H](O)[C@H](N)[C@H]3O",
    "meta_data": {
        "InChI": "InChI=1S/C22H43N5O13/c23-2-1-8(29)20(36)27-7-3-6(25)18(39-22-16(34)15(33)13(31)9(4-24)37-22)17(35)19(7)40-21-14(32)11(26)12(30)10(5-28)38-21/h6-19,21-22,28-35H,1-5,23-26H2,(H,27,36)/t6-,7+,8-,9+,10+,11-,12+,13+,14+,15-,16+,17-,18+,19-,21+,22+/m0/s1",
        "InChIKey": null,
        "Canonical SMILES": "O=C(NC1CC(N)C(OC2OC(CN)C(O)C(O)C2O)C(O)C1OC3OC(CO)C(O)C(N)C3O)C(O)CCN",
        "Molecular Formula": "C<sub>22</sub>H<sub>43</sub>N<sub>5</sub>O<sub>13</sub>",
        "Molecular Mass": "585.60",
        "Melting Point": "203-204 °C"
    }
}