{
    "cas_no": "108-23-6",
    "key_name": "Isopropyl chloroformate",
    "cn_name": "氯甲酸异丙酯;",
    "alternate_name": "Carbonochloridic acid, 1-methylethyl ester;Formic acid, chloro-, isopropyl ester;Isopropyl chlorocarbonate;Isopropyl chlorcarbonate;Isopropyl chloroformate;Chloroformic acid isopropyl ester;2-Propyl chloroformate;1-Methylethyl chloroformate;Isopropoxycarbonyl chloride;Isopropyl carbonochloridate",
    "duplicated_cas_no": "94274-22-3",
    "SMILES": "O(C(C)C)C(Cl)=O",
    "meta_data": {
        "InChI": "InChI=1S/C4H7ClO2/c1-3(2)7-4(5)6/h3H,1-2H3",
        "InChIKey": null,
        "Canonical SMILES": "O=C(Cl)OC(C)C",
        "Molecular Formula": "C<sub>4</sub>H<sub>7</sub>ClO<sub>2</sub>",
        "Molecular Mass": "122.55",
        "Boiling Point": "104.6 °C @ Press: 761 Torr",
        "Density": "1.08 g/cm³"
    }
}