{
    "cas_no": "5417-17-4",
    "key_name": "2-Chloro-3,4-dimethoxybenzaldehyde",
    "cn_name": "2-氯-3,4-二甲氧基苯甲醛;",
    "alternate_name": "Benzaldehyde, 2-chloro-3,4-dimethoxy-;Veratraldehyde, 2-chloro-;2-Chloro-3,4-dimethoxybenzaldehyde;2-Chloroveratraldehyde;NSC 7375",
    "duplicated_cas_no": "",
    "SMILES": "O(C)C1=C(OC)C=CC(C=O)=C1Cl",
    "meta_data": {
        "InChI": "InChI=1S/C9H9ClO3/c1-12-7-4-3-6(5-11)8(10)9(7)13-2/h3-5H,1-2H3",
        "InChIKey": null,
        "Canonical SMILES": "O=CC1=CC=C(OC)C(OC)=C1Cl",
        "Molecular Formula": "C<sub>9</sub>H<sub>9</sub>ClO<sub>3</sub>",
        "Molecular Mass": "200.62",
        "Melting Point": "69-70 °C"
    }
}