{
    "cas_no": "614-21-1",
    "key_name": "2-Nitro-1-phenylethanone",
    "cn_name": "α-Nitroacetophenone;",
    "alternate_name": "Ethanone, 2-nitro-1-phenyl-;Acetophenone, 2-nitro-;2-Nitro-1-phenylethanone;α-Nitroacetophenone;ω-Nitroacetophenone;Nitromethyl phenyl ketone;Benzoylnitromethane;α-Nitro-2-phenyl-2-ethanone;NSC 4509;Phenyl nitromethyl ketone;2-Nitro-1-phenylethan-1-one",
    "duplicated_cas_no": "",
    "SMILES": "C(CN(=O)=O)(=O)C1=CC=CC=C1",
    "meta_data": {
        "InChI": "InChI=1S/C8H7NO3/c10-8(6-9(11)12)7-4-2-1-3-5-7/h1-5H,6H2",
        "InChIKey": null,
        "Canonical SMILES": "O=C(C=1C=CC=CC1)CN(=O)=O",
        "Molecular Formula": "C<sub>8</sub>H<sub>7</sub>NO<sub>3</sub>",
        "Molecular Mass": "165.15",
        "Melting Point": "105-106 °C"
    }
}