{
    "cas_no": "23979-41-1",
    "key_name": "(<em>R</em>)-Naproxen",
    "cn_name": "(R)-(?)-6-甲氧基-α-甲基-2-萘乙酸;(R)-萘普生;",
    "alternate_name": "2-Naphthaleneacetic acid, 6-methoxy-α-methyl-, (α<em>R</em>)-;2-Naphthaleneacetic acid, 6-methoxy-α-methyl-, (<em>R</em>)-;(α<em>R</em>)-6-Methoxy-α-methyl-2-naphthaleneacetic acid;(-)-6-Methoxy-α-methyl-2-naphthaleneacetic acid;<em>l</em>-Naproxen;(<em>R</em>)-2-(6-Methoxy-2-naphthyl)propionic acid;(-)-Naproxen;(<em>R</em>)-Naproxen;(R)-(-)-Naproxen;(-)-2-(6-Methoxy-2-naphthyl)propionic acid;(<em>R</em>)-(-)-Naproxen;(<em>R</em>)-2-(6-Methoxynaphthalen-2-yl)propanoic acid;(-)-(<em>R</em>)-2-(6-Methoxy-2-naphthyl)propionic acid;(R)-2-(6-Methoxynaphthalen-2-yl)propanoic acid;2-Naphthaleneacetic acid 6-methoxy-α-methyl-, (αR)-;(<em>R</em>)-(-)-2-(6-Methoxy-2-naphthyl)propionic acid",
    "duplicated_cas_no": "",
    "SMILES": "[C@@H](C(O)=O)(C)C1=CC2=C(C=C(OC)C=C2)C=C1",
    "meta_data": {
        "InChI": "InChI=1S/C14H14O3/c1-9(14(15)16)10-3-4-12-8-13(17-2)6-5-11(12)7-10/h3-9H,1-2H3,(H,15,16)/t9-/m1/s1",
        "InChIKey": null,
        "Canonical SMILES": "O=C(O)C(C1=CC=C2C=C(OC)C=CC2=C1)C",
        "Molecular Formula": "C<sub>14</sub>H<sub>14</sub>O<sub>3</sub>",
        "Molecular Mass": "230.26",
        "Melting Point": "156-157 °C"
    }
}