{
    "cas_no": "7283-09-2",
    "key_name": "β-<span class=\"text-smallcaps\">D</span>-Allopyranose",
    "cn_name": "Β-D-别吡喃糖;",
    "alternate_name": "β-<span class=\"text-smallcaps\">D</span>-Allopyranose;Allopyranose, β-<span class=\"text-smallcaps\">D</span>-;β-<span class=\"text-smallcaps\">D</span>-Allose;6-Deoxy-6-fluoro-<span class=\"text-smallcaps\">D</span>-β-allopyranose",
    "duplicated_cas_no": "",
    "SMILES": "C(O)[C@@H]1[C@@H](O)[C@@H](O)[C@@H](O)[C@H](O)O1",
    "meta_data": {
        "InChI": "InChI=1S/C6H12O6/c7-1-2-3(8)4(9)5(10)6(11)12-2/h2-11H,1H2/t2-,3-,4-,5-,6-/m1/s1",
        "InChIKey": null,
        "Canonical SMILES": "OCC1OC(O)C(O)C(O)C1O",
        "Molecular Formula": "C<sub>6</sub>H<sub>12</sub>O<sub>6</sub>",
        "Molecular Mass": "180.16",
        "Melting Point": "128-128.5 °C"
    }
}