{
    "cas_no": "75-52-5",
    "key_name": "Nitromethane",
    "cn_name": "硝基甲烷;",
    "alternate_name": "Methane, nitro-;Nitromethane;Nitrocarbol;NSC 428;NM",
    "duplicated_cas_no": "104306-48-1",
    "SMILES": "N(C)(=O)=O",
    "meta_data": {
        "InChI": "InChI=1S/CH3NO2/c1-2(3)4/h1H3",
        "InChIKey": null,
        "Canonical SMILES": "O=N(=O)C",
        "Molecular Formula": "CH<sub>3</sub>NO<sub>2</sub>",
        "Molecular Mass": "61.04",
        "Boiling Point": "101.2 °C @ Press: 760 Torr",
        "Melting Point": "-29 °C",
        "Density": "1.1322 g/cm³ @ Temp: 25 °C"
    }
}