{
    "cas_no": "619-89-6",
    "key_name": "4-Nitrocinnamic acid",
    "cn_name": "对硝基肉桂酸;4-硝基肉桂酸;",
    "alternate_name": "2-Propenoic acid, 3-(4-nitrophenyl)-;Cinnamic acid, <em>p</em>-nitro-;3-(4-Nitrophenyl)-2-propenoic acid;<em>p</em>-Nitrocinnamic acid;4-Nitrocinnamic acid;3-(4-Nitrophenyl)acrylic acid;3-(4-Nitrophenyl)propenoic acid;NSC 2067;NSC 638142",
    "duplicated_cas_no": "",
    "SMILES": "N(=O)(=O)C1=CC=C(C=CC(O)=O)C=C1",
    "meta_data": {
        "InChI": "InChI=1S/C9H7NO4/c11-9(12)6-3-7-1-4-8(5-2-7)10(13)14/h1-6H,(H,11,12)",
        "InChIKey": null,
        "Canonical SMILES": "O=C(O)C=CC1=CC=C(C=C1)N(=O)=O",
        "Molecular Formula": "C<sub>9</sub>H<sub>7</sub>NO<sub>4</sub>",
        "Molecular Mass": "193.16",
        "Melting Point": "275 °C"
    }
}