{
    "cas_no": "16954-69-1",
    "key_name": "<em>N</em>-Methyl-2-benzothiazolamine",
    "cn_name": null,
    "alternate_name": "2-Benzothiazolamine, <em>N</em>-methyl-;Benzothiazole, 2-(methylamino)-;<em>N</em>-Methyl-2-benzothiazolamine;2-(Methylamino)benzothiazole;2-(<em>N</em>-Methylamino)benzothiazole;<em>N</em>-(2-Benzothiazolyl)methylamine;Benzothiazol-2-ylmethylamine",
    "duplicated_cas_no": "",
    "SMILES": "N(C)C1=NC=2C(S1)=CC=CC2",
    "meta_data": {
        "InChI": "InChI=1S/C8H8N2S/c1-9-8-10-6-4-2-3-5-7(6)11-8/h2-5H,1H3,(H,9,10)",
        "InChIKey": null,
        "Canonical SMILES": "N1=C(SC=2C=CC=CC12)NC",
        "Molecular Formula": "C<sub>8</sub>H<sub>8</sub>N<sub>2</sub>S",
        "Molecular Mass": "164.23",
        "Melting Point": "138 °C"
    }
}