{
    "cas_no": "76196-79-7",
    "key_name": "Ethyl 6-cyano-3-pyridinecarboxylate",
    "cn_name": null,
    "alternate_name": "3-Pyridinecarboxylic acid, 6-cyano-, ethyl ester;Nicotinic acid, 6-cyano-, ethyl ester;Ethyl 6-cyano-3-pyridinecarboxylate;6-Cyanopyridine-3-carboxylic acid ethyl ester",
    "duplicated_cas_no": "",
    "SMILES": "C(OCC)(=O)C=1C=CC(C#N)=NC1",
    "meta_data": {
        "InChI": "InChI=1S/C9H8N2O2/c1-2-13-9(12)7-3-4-8(5-10)11-6-7/h3-4,6H,2H2,1H3",
        "InChIKey": null,
        "Canonical SMILES": "N#CC1=NC=C(C=C1)C(=O)OCC",
        "Molecular Formula": "C<sub>9</sub>H<sub>8</sub>N<sub>2</sub>O<sub>2</sub>",
        "Molecular Mass": "176.17",
        "Boiling Point": "125 °C @ Press: 3 Torr",
        "Melting Point": "55.5-56.5 °C"
    }
}