{
    "cas_no": "29598-76-3",
    "key_name": "AO 412S",
    "cn_name": "抗氧化剂TH-412S;季戊四醇四(3-月桂基硫代丙酸酯);",
    "alternate_name": "Propanoic acid, 3-(dodecylthio)-, 1,1′-[2,2-bis[[3-(dodecylthio)-1-oxopropoxy]methyl]-1,3-propanediyl] ester;Propionic acid, 3-(dodecylthio)-, neopentanetetrayl ester;Propanoic acid, 3-(dodecylthio)-, 2,2-bis[[3-(dodecylthio)-1-oxopropoxy]methyl]-1,3-propanediyl ester;Pentaerythritol tetrakis(3-<em>n</em>-dodecylthiopropionate);Pentaerythritol tetrakis[3-(dodecylthio)propionate];Pentaerythritol tetrakis[3-laurylthiopropionate];Pentaerythritol tetrakis(β-laurylthiopropionate);Seenox 412S;Pentaerythritol tetrakis(β-dodecylthiopropionate);Pentaerythritol tetrakis(dodecylthiopropionate);Sumilizer TP-D;Mark AO 412S;ADK Stab AO 412S;AO 412S;Tetrakis[methylene-3-(dodecylthio)propionate]methane;AO-S 116;TP-D;Naugard 412S;TH 412S;Chinox S 4P;Antioxidant 412S;Pentaerythritol tetra(3-laurylthiopropionate);PTLP;Thanox 412S;S 4P;Adeka AO 412S;Pentaerythrithol tetrakis(3-dodecylthiopropionate);ADK Stab AAO 412S;Adekastab AO 412S;Pentaerythrityl tetrakis(3-laurylthiopropionate);Songnox 4120;2,2-Bis[[3-(dodecylthio)-1-oxopropoxy]methyl]propane-1,3-diyl bis[3-(dodecylthio)propionate];Rianox 412S;Antioxidant S 4P;Adeka Stab AO 412S",
    "duplicated_cas_no": "113285-57-7;72847-47-3;888324-56-9",
    "SMILES": "C(COC(CCSCCCCCCCCCCCC)=O)(COC(CCSCCCCCCCCCCCC)=O)(COC(CCSCCCCCCCCCCCC)=O)COC(CCSCCCCCCCCCCCC)=O",
    "meta_data": {
        "InChI": "InChI=1S/C65H124O8S4/c1-5-9-13-17-21-25-29-33-37-41-49-74-53-45-61(66)70-57-65(58-71-62(67)46-54-75-50-42-38-34-30-26-22-18-14-10-6-2,59-72-63(68)47-55-76-51-43-39-35-31-27-23-19-15-11-7-3)60-73-64(69)48-56-77-52-44-40-36-32-28-24-20-16-12-8-4/h5-60H2,1-4H3",
        "InChIKey": null,
        "Canonical SMILES": "O=C(OCC(COC(=O)CCSCCCCCCCCCCCC)(COC(=O)CCSCCCCCCCCCCCC)COC(=O)CCSCCCCCCCCCCCC)CCSCCCCCCCCCCCC",
        "Molecular Formula": "C<sub>65</sub>H<sub>124</sub>O<sub>8</sub>S<sub>4</sub>",
        "Molecular Mass": "1161.94",
        "Melting Point": "48-51 °C"
    }
}