{
    "cas_no": "89786-04-9",
    "key_name": "Tazobactam",
    "cn_name": null,
    "alternate_name": "4-Thia-1-azabicyclo[3.2.0]heptane-2-carboxylic acid, 3-methyl-7-oxo-3-(1<em>H</em>-1,2,3-triazol-1-ylmethyl)-, 4,4-dioxide, (2<em>S</em>,3<em>S</em>,5<em>R</em>)-;4-Thia-1-azabicyclo[3.2.0]heptane-2-carboxylic acid, 3-methyl-7-oxo-3-(1<em>H</em>-1,2,3-triazol-1-ylmethyl)-, 4,4-dioxide, [2<em>S</em>-(2α,3β,5α)]-;1<em>H</em>-1,2,3-Triazole, 4-thia-1-azabicyclo[3.2.0]heptane-2-carboxylic acid deriv.;YTR 830H;Tazobactam;CL 298741",
    "duplicated_cas_no": "138282-19-6",
    "SMILES": "C([C@@]1(C)[C@H](C(O)=O)N2[C@](S1(=O)=O)(CC2=O)[H])N3C=CN=N3",
    "meta_data": {
        "InChI": "InChI=1S/C10H12N4O5S/c1-10(5-13-3-2-11-12-13)8(9(16)17)14-6(15)4-7(14)20(10,18)19/h2-3,7-8H,4-5H2,1H3,(H,16,17)/t7-,8+,10+/m1/s1",
        "InChIKey": null,
        "Canonical SMILES": "O=C(O)C1N2C(=O)CC2S(=O)(=O)C1(C)CN3N=NC=C3",
        "Molecular Formula": "C<sub>10</sub>H<sub>12</sub>N<sub>4</sub>O<sub>5</sub>S",
        "Molecular Mass": "300.29",
        "Melting Point": "181-182 °C"
    }
}