{
    "cas_no": "6628-68-8",
    "key_name": "1,3-Diethyl 2-(2-phenylethyl)propanedioate",
    "cn_name": null,
    "alternate_name": "Propanedioic acid, 2-(2-phenylethyl)-, 1,3-diethyl ester;Malonic acid, phenethyl-, diethyl ester;Propanedioic acid, (2-phenylethyl)-, diethyl ester;1,3-Diethyl 2-(2-phenylethyl)propanedioate;Diethyl 2-phenethylmalonate;Diethyl phenethylmalonate;Diethyl (2-phenylethyl)malonate;Diethyl 2-(2-phenylethyl)propanedioate;(2-Phenylethyl)propanedioic acid diethyl ester;NSC 60931",
    "duplicated_cas_no": "",
    "SMILES": "C(C(OCC)=O)(C(OCC)=O)CCC1=CC=CC=C1",
    "meta_data": {
        "InChI": "InChI=1S/C15H20O4/c1-3-18-14(16)13(15(17)19-4-2)11-10-12-8-6-5-7-9-12/h5-9,13H,3-4,10-11H2,1-2H3",
        "InChIKey": null,
        "Canonical SMILES": "O=C(OCC)C(C(=O)OCC)CCC=1C=CC=CC1",
        "Molecular Formula": "C<sub>15</sub>H<sub>20</sub>O<sub>4</sub>",
        "Molecular Mass": "264.32",
        "Boiling Point": "185 °C @ Press: 15 Torr"
    }
}