{
    "cas_no": "19675-63-9",
    "key_name": "4-(2-Carboxyethenyl)benzoic acid",
    "cn_name": "4-羧基肉桂酸;",
    "alternate_name": "Benzoic acid, 4-(2-carboxyethenyl)-;Cinnamic acid, <em>p</em>-carboxy-;4-(2-Carboxyethenyl)benzoic acid;4-Carboxycinnamic acid;<em>p</em>-Carboxycinnamic acid",
    "duplicated_cas_no": "",
    "SMILES": "C(O)(=O)C1=CC=C(C=CC(O)=O)C=C1",
    "meta_data": {
        "InChI": "InChI=1S/C10H8O4/c11-9(12)6-3-7-1-4-8(5-2-7)10(13)14/h1-6H,(H,11,12)(H,13,14)",
        "InChIKey": null,
        "Canonical SMILES": "O=C(O)C=CC1=CC=C(C=C1)C(=O)O",
        "Molecular Formula": "C<sub>10</sub>H<sub>8</sub>O<sub>4</sub>",
        "Molecular Mass": "192.17",
        "Melting Point": "250-260 °C"
    }
}