{
    "cas_no": "7780-06-5",
    "key_name": "Isopropyl cinnamate",
    "cn_name": null,
    "alternate_name": "2-Propenoic acid, 3-phenyl-, 1-methylethyl ester;Cinnamic acid, isopropyl ester;Isopropyl cinnamate;<em>iso</em>-Propyl cinnamate",
    "duplicated_cas_no": "",
    "SMILES": "C(=CC(OC(C)C)=O)C1=CC=CC=C1",
    "meta_data": {
        "InChI": "InChI=1S/C12H14O2/c1-10(2)14-12(13)9-8-11-6-4-3-5-7-11/h3-10H,1-2H3",
        "InChIKey": null,
        "Canonical SMILES": "O=C(OC(C)C)C=CC=1C=CC=CC1",
        "Molecular Formula": "C<sub>12</sub>H<sub>14</sub>O<sub>2</sub>",
        "Molecular Mass": "190.24",
        "Boiling Point": "153-155 °C @ Press: 20 Torr",
        "Melting Point": "39 °C",
        "Density": "1.0320 g/cm³ @ Temp: 20 °C"
    }
}