{
    "cas_no": "636-46-4",
    "key_name": "4-Hydroxyisophthalic acid",
    "cn_name": "4-羟基间苯二甲酸;4-羟基-1,3-苯二甲酸;",
    "alternate_name": "1,3-Benzenedicarboxylic acid, 4-hydroxy-;Isophthalic acid, 4-hydroxy-;4-Hydroxy-1,3-benzenedicarboxylic acid;4-Hydroxyisophthalic acid;4-Hydroxy-<em>m</em>-phthalic acid;Eupirina;NSC 2445",
    "duplicated_cas_no": "",
    "SMILES": "C(O)(=O)C1=CC(C(O)=O)=CC=C1O",
    "meta_data": {
        "InChI": "InChI=1S/C8H6O5/c9-6-2-1-4(7(10)11)3-5(6)8(12)13/h1-3,9H,(H,10,11)(H,12,13)",
        "InChIKey": null,
        "Canonical SMILES": "O=C(O)C1=CC=C(O)C(=C1)C(=O)O",
        "Molecular Formula": "C<sub>8</sub>H<sub>6</sub>O<sub>5</sub>",
        "Molecular Mass": "182.13",
        "Melting Point": "310 °C"
    }
}