{
    "cas_no": "559-70-6",
    "key_name": "β-Amyrin",
    "cn_name": "beta-香树精;beta-香树脂醇;白桦酯醇;",
    "alternate_name": "Olean-12-en-3-ol, (3β)-;Olean-12-en-3β-ol;(3β)-Olean-12-en-3-ol;β-Amyrenol;β-Amyrin;β-Amyrine;3β-Hydroxyolean-12-ene;(+)-β-Amyrin;β-Amirin;NSC 527971",
    "duplicated_cas_no": "",
    "SMILES": "C[C@]12[C@@]3(C)C([C@]4([C@@](C)(CC3)CCC(C)(C)C4)[H])=CC[C@@]1([C@]5(C)[C@@](CC2)(C(C)(C)[C@@H](O)CC5)[H])[H]",
    "meta_data": {
        "InChI": "InChI=1S/C30H50O/c1-25(2)15-16-27(5)17-18-29(7)20(21(27)19-25)9-10-23-28(6)13-12-24(31)26(3,4)22(28)11-14-30(23,29)8/h9,21-24,31H,10-19H2,1-8H3/t21-,22-,23+,24-,27+,28-,29+,30+/m0/s1",
        "InChIKey": null,
        "Canonical SMILES": "OC1CCC2(C)C(CCC3(C)C2CC=C4C5CC(C)(C)CCC5(C)CCC43C)C1(C)C",
        "Molecular Formula": "C<sub>30</sub>H<sub>50</sub>O",
        "Molecular Mass": "426.72",
        "Melting Point": "197 °C"
    }
}