{
    "cas_no": "489-41-8",
    "key_name": "Globulol",
    "cn_name": "(-)-蓝桉醇;",
    "alternate_name": "1<em>H</em>-Cycloprop[<em>e</em>]azulen-4-ol, decahydro-1,1,4,7-tetramethyl-, (1a<em>R</em>,4<em>R</em>,4a<em>R</em>,7<em>R</em>,7a<em>S</em>,7b<em>S</em>)-;Globulol;1<em>H</em>-Cycloprop[<em>e</em>]azulen-4-ol, decahydro-1,1,4,7-tetramethyl-, [1a<em>R</em>-(1aα,4α,4aα,7α,7aβ,7bα)]-;(1a<em>R</em>,4<em>R</em>,4a<em>R</em>,7<em>R</em>,7a<em>S</em>,7b<em>S</em>)-Decahydro-1,1,4,7-tetramethyl-1<em>H</em>-cycloprop[<em>e</em>]azulen-4-ol;(-)-Globulol;NSC 152470",
    "duplicated_cas_no": "",
    "SMILES": "CC1(C)[C@]2([C@]3([C@]([C@](C)(O)CC[C@]21[H])(CC[C@H]3C)[H])[H])[H]",
    "meta_data": {
        "InChI": "InChI=1S/C15H26O/c1-9-5-6-10-12(9)13-11(14(13,2)3)7-8-15(10,4)16/h9-13,16H,5-8H2,1-4H3/t9-,10-,11-,12-,13-,15-/m1/s1",
        "InChIKey": null,
        "Canonical SMILES": "OC1(C)CCC2C(C3C(C)CCC31)C2(C)C",
        "Molecular Formula": "C<sub>15</sub>H<sub>26</sub>O",
        "Molecular Mass": "222.37",
        "Melting Point": "86-88 °C"
    }
}