{
    "cas_no": "111-89-7",
    "key_name": "1,5-Dimethoxypentane",
    "cn_name": "1,5-二甲氧基戊烷;",
    "alternate_name": "Pentane, 1,5-dimethoxy-;1,5-Dimethoxypentane;1,5-Pentanediol dimethyl ether;2,8-Dioxanonane;NSC 97204",
    "duplicated_cas_no": "",
    "SMILES": "C(CCOC)CCOC",
    "meta_data": {
        "InChI": "InChI=1S/C7H16O2/c1-8-6-4-3-5-7-9-2/h3-7H2,1-2H3",
        "InChIKey": null,
        "Canonical SMILES": "O(C)CCCCCOC",
        "Molecular Formula": "C<sub>7</sub>H<sub>16</sub>O<sub>2</sub>",
        "Molecular Mass": "132.20",
        "Boiling Point": "156-157 °C @ Press: 760 Torr",
        "Density": "0.854 g/cm³ @ Temp: 22 °C"
    }
}