{
    "cas_no": "3020-06-2",
    "key_name": "3,4-Dimethylbenzeneacetonitrile",
    "cn_name": null,
    "alternate_name": "Benzeneacetonitrile, 3,4-dimethyl-;Acetonitrile, 3,4-xylyl-;3,4-Dimethylbenzeneacetonitrile;3,4-Xylylacetonitrile;3,4-Dimethylbenzyl cyanide;(3,4-Dimethylphenyl)acetonitrile;NSC 26232;2-(3,4-Dimethylphenyl)acetonitrile",
    "duplicated_cas_no": "",
    "SMILES": "C(C#N)C1=CC(C)=C(C)C=C1",
    "meta_data": {
        "InChI": "InChI=1S/C10H11N/c1-8-3-4-10(5-6-11)7-9(8)2/h3-4,7H,5H2,1-2H3",
        "InChIKey": null,
        "Canonical SMILES": "N#CCC1=CC=C(C(=C1)C)C",
        "Molecular Formula": "C<sub>10</sub>H<sub>11</sub>N",
        "Molecular Mass": "145.20",
        "Boiling Point": "635 °C @ Press: 0.5 Torr",
        "Melting Point": "35-38 °C"
    }
}