{
    "cas_no": "14172-92-0",
    "key_name": "Nickel tetraphenylporphyrin",
    "cn_name": null,
    "alternate_name": "Nickel, [5,10,15,20-tetraphenyl-21<em>H</em>,23<em>H</em>-porphinato(2-)-κ<em>N</em><sup>21</sup>,κ<em>N</em><sup>22</sup>,κ<em>N</em><sup>23</sup>,κ<em>N</em><sup>24</sup>]-, (<em>SP</em>-4-1)-;Nickel, [5,10,15,20-tetraphenylporphinato(2-)]-;Nickel, [5,10,15,20-tetraphenyl-21<em>H</em>,23<em>H</em>-porphinato(2-)-<em>N</em><sup>21</sup>,<em>N</em><sup>22</sup>,<em>N</em><sup>23</sup>,<em>N</em><sup>24</sup>]-, (<em>SP</em>-4-1)-;Nickel, [α,β,γ,δ-tetraphenylporphinato(2-)]-;Porphine, α,β,γ,δ-tetraphenyl-, Ni deriv.;21<em>H</em>,23<em>H</em>-Porphine, 5,10,15,20-tetraphenyl-, nickel complex;21<em>H</em>,23<em>H</em>-Porphine, nickel deriv.;[5,10,15,20-Tetraphenylporphinato(2-)]nickel;Tetraphenylporphine nickel complex;[<em>meso</em>-Tetraphenylporphinato(2-)]nickel;Nickel tetraphenylporphine;Nickel tetraphenylporphyrin;Nickel(II) 5,10,15,20-tetraphenylporphine;Nickel(II) tetraphenylporphyrin;Nickel meso-tetraphenylporphyrin;(5,10,15,20-Tetraphenylporphyrinato)nickel;Nickel 5,10,15,20-tetraphenyl-21<em>H</em>,23<em>H</em>-porphyrin;Nickel(II) <em>meso</em>-tetraphenylporphyrin;(<em>meso</em>-Tetraphenylporphinato)nickel;(Tetraphenylporphyrinato)nickel;(<em>meso</em>-Tetraphenylporphinato)nickel(II);Nickel 5,10,15,20-tetraphenylporphyrin;(<em>meso</em>-Tetraphenylporphyrinato)nickel;Nickel(II) <em>meso</em>-tetraphenylporphine;5,10,15,20-Tetraphenylporphyrin nickel",
    "duplicated_cas_no": "",
    "SMILES": "[Ni+2]123[N-]4C5=C(C6=[N]1C(=C(C=7[N-]2C(C(=C8[N]3=C(C(=C4C=C5)C9=CC=CC=C9)C=C8)C%10=CC=CC=C%10)=CC7)C%11=CC=CC=C%11)C=C6)C%12=CC=CC=C%12",
    "meta_data": {
        "InChI": "InChI=1S/C44H28N4.Ni/c1-5-13-29(14-6-1)41-33-21-23-35(45-33)42(30-15-7-2-8-16-30)37-25-27-39(47-37)44(32-19-11-4-12-20-32)40-28-26-38(48-40)43(31-17-9-3-10-18-31)36-24-22-34(41)46-36;/h1-28H;/q-2;+2/b41-33-,41-34?,42-35-,42-37?,43-36-,43-38?,44-39-,44-40?;",
        "InChIKey": null,
        "Canonical SMILES": "C=1C=CC(=CC1)C=2C=3C=CC4=C(C=5C=CC=CC5)C6=CC=C7C(C=8C=CC=CC8)=C9C=CC=%10C(C=%11C=CC=CC%11)=C%12C=CC2[N-]%12[Ni+2]([N]34)([N]%109)[N-]67",
        "Molecular Formula": "C<sub>44</sub>H<sub>28</sub>N<sub>4</sub>Ni",
        "Molecular Mass": "",
        "Melting Point": "&gt;300 °C"
    }
}