{
    "cas_no": "2091-39-6",
    "key_name": "11,14-Eicosadienoic acid",
    "cn_name": "顺式-11,14-二十碳二烯酸;顺式-11,14-二十碳二烯酸;",
    "alternate_name": "11,14-Eicosadienoic acid",
    "duplicated_cas_no": "",
    "SMILES": "C(CCC=CCC=CCCCCC)CCCCCCC(O)=O",
    "meta_data": {
        "InChI": "InChI=1S/C20H36O2/c1-2-3-4-5-6-7-8-9-10-11-12-13-14-15-16-17-18-19-20(21)22/h6-7,9-10H,2-5,8,11-19H2,1H3,(H,21,22)",
        "InChIKey": null,
        "Canonical SMILES": "O=C(O)CCCCCCCCCC=CCC=CCCCCC",
        "Molecular Formula": "C<sub>20</sub>H<sub>36</sub>O<sub>2</sub>",
        "Molecular Mass": "308.50",
        "Boiling Point": "198 °C @ Press: 0.08 Torr"
    }
}