{
    "cas_no": "6374-91-0",
    "key_name": "5,7-Dibromoisatin",
    "cn_name": null,
    "alternate_name": "1<em>H</em>-Indole-2,3-dione, 5,7-dibromo-;Indole-2,3-dione, 5,7-dibromo-;Isatin, 5,7-dibromo-;5,7-Dibromo-1<em>H</em>-indole-2,3-dione;5,7-Dibromoisatin;SCR 0009418",
    "duplicated_cas_no": "",
    "SMILES": "BrC1=C2C(C(=O)C(=O)N2)=CC(Br)=C1",
    "meta_data": {
        "InChI": "InChI=1S/C8H3Br2NO2/c9-3-1-4-6(5(10)2-3)11-8(13)7(4)12/h1-2H,(H,11,12,13)",
        "InChIKey": null,
        "Canonical SMILES": "O=C1NC=2C(Br)=CC(Br)=CC2C1=O",
        "Molecular Formula": "C<sub>8</sub>H<sub>3</sub>Br<sub>2</sub>NO<sub>2</sub>",
        "Molecular Mass": "304.92",
        "Melting Point": "253 °C"
    }
}