{
    "cas_no": "300-92-5",
    "key_name": "Aluminum distearate",
    "cn_name": "双硬脂酸铝;二硬脂酸铝;碱式硬脂酸铝;",
    "alternate_name": "Aluminum, hydroxybis(octadecanoato-κ<em>O</em>)-;Aluminum, hydroxybis(stearato)-;Aluminum, hydroxybis(octadecanoato-<em>O</em>)-;Octadecanoic acid, aluminum complex;Hydroxybis(octadecanoato-κ<em>O</em>)aluminum;Aluminum distearate;Aluminum hydroxide distearate;Aluminum hydroxydistearate;NSC 522176;Al-St 102;Aluminum Stearate 600;ALG-D 2;Ligastar AL-D 2;Liga ALG-V;Ligaster ALG-V;Aluminum Distearate 600;Hydroxy aluminum distearate",
    "duplicated_cas_no": "36816-06-5",
    "SMILES": "O([Al](OC(CCCCCCCCCCCCCCCCC)=O)O)C(CCCCCCCCCCCCCCCCC)=O",
    "meta_data": {
        "InChI": "InChI=1S/2C18H36O2.Al.H2O/c2*1-2-3-4-5-6-7-8-9-10-11-12-13-14-15-16-17-18(19)20;;/h2*2-17H2,1H3,(H,19,20);;1H2/q;;+3;/p-3",
        "InChIKey": null,
        "Canonical SMILES": "O=C(O[Al](O)OC(=O)CCCCCCCCCCCCCCCCC)CCCCCCCCCCCCCCCCC",
        "Molecular Formula": "C<sub>36</sub>H<sub>71</sub>AlO<sub>5</sub>",
        "Molecular Mass": "",
        "Melting Point": "145 °C",
        "Density": "1.009 g/cm³"
    }
}