{
    "cas_no": "130693-82-2",
    "key_name": "Dorzolamide hydrochloride",
    "cn_name": "盐酸多佐胺;盐酸杜塞酰胺;(2S,4S)-2-乙基氨基-4-甲基-5,5-二氧-5,7-二硫双环[4.3.0]壬-8,10-二烯-8-磺酰胺;",
    "alternate_name": "4<em>H</em>-Thieno[2,3-<em>b</em>]thiopyran-2-sulfonamide, 4-(ethylamino)-5,6-dihydro-6-methyl-, 7,7-dioxide, hydrochloride (1:1), (4<em>S</em>,6<em>S</em>)-;4<em>H</em>-Thieno[2,3-<em>b</em>]thiopyran-2-sulfonamide, 4-(ethylamino)-5,6-dihydro-6-methyl-, 7,7-dioxide, monohydrochloride, (4<em>S</em>-<em>trans</em>)-;4<em>H</em>-Thieno[2,3-<em>b</em>]thiopyran-2-sulfonamide, 4-(ethylamino)-5,6-dihydro-6-methyl-, 7,7-dioxide, monohydrochloride, (4<em>S</em>,6<em>S</em>)-;L 671152;MK 507;Trusopt;Dorzolamide hydrochloride;(<em>S</em>,<em>S</em>)-(-)-5,6-Dihydro-4-ethylamino-6-methyl-4<em>H</em>-thieno[2,3-<em>b</em>]thiopyran-2-sulfonamide-7,7-dioxide monohydrochloride;Biosopt;(4<em>S</em>,6<em>S</em>)-4-(Ethylamino)-5,6-dihydro-6-methyl-4<em>H</em>-thieno-[2,3-<em>b</em>]thiopyran-2-sulfonamide 7,7-dioxide hydrochloride",
    "duplicated_cas_no": "206984-09-0",
    "SMILES": "O=S1(=O)C2=C([C@@H](NCC)C[C@@H]1C)C=C(S(N)(=O)=O)S2.Cl",
    "meta_data": {
        "InChI": "InChI=1S/C10H16N2O4S3.ClH/c1-3-12-8-4-6(2)18(13,14)10-7(8)5-9(17-10)19(11,15)16;/h5-6,8,12H,3-4H2,1-2H3,(H2,11,15,16);1H/t6-,8-;/m0./s1",
        "InChIKey": null,
        "Canonical SMILES": "Cl.O=S(=O)(N)C=1SC2=C(C1)C(NCC)CC(C)S2(=O)=O",
        "Molecular Formula": "C<sub>10</sub>H<sub>16</sub>N<sub>2</sub>O<sub>4</sub>S<sub>3</sub>.ClH",
        "Molecular Mass": "",
        "Melting Point": "283-285 °C"
    }
}