{
    "cas_no": "16587-71-6",
    "key_name": "4-<em>tert</em>-Amylcyclohexanone",
    "cn_name": "4-(1,1-二甲基丙基)环己酮;",
    "alternate_name": "Cyclohexanone, 4-(1,1-dimethylpropyl)-;Cyclohexanone, 4-<em>tert</em>-pentyl-;4-(1,1-Dimethylpropyl)cyclohexanone;4-<em>tert</em>-Amylcyclohexanone;4-<em>tert</em>-Pentylcyclohexanone;Orivone;NSC 21167;4-(<em>tert</em>-Pentyl)cyclohexan-1-one",
    "duplicated_cas_no": "",
    "SMILES": "C(CC)(C)(C)C1CCC(=O)CC1",
    "meta_data": {
        "InChI": "InChI=1S/C11H20O/c1-4-11(2,3)9-5-7-10(12)8-6-9/h9H,4-8H2,1-3H3",
        "InChIKey": null,
        "Canonical SMILES": "O=C1CCC(CC1)C(C)(C)CC",
        "Molecular Formula": "C<sub>11</sub>H<sub>20</sub>O",
        "Molecular Mass": "168.28",
        "Boiling Point": "110-113 °C @ Press: 12 Torr",
        "Melting Point": "96 °C",
        "Density": "0.9245 g/cm³ @ Temp: 20 °C"
    }
}