{
    "cas_no": "22179-78-8",
    "key_name": "4-Fluorobenzamidoxime",
    "cn_name": null,
    "alternate_name": "Benzenecarboximidamide, 4-fluoro-<em>N</em>-hydroxy-;Benzamidoxime, <em>p</em>-fluoro-;4-Fluoro-<em>N</em>-hydroxybenzenecarboximidamide;4-Fluorobenzamidoxime;4-Fluorobenzamide oxime;4-Fluoro-<em>N</em>′-hydroxybenzenecarboximidamide;4-Fluoro-<em>N</em>-hydroxybenzamidine;4-Fluoro-<em>N</em>′-hydroxybenzamidine;<em>N</em>′-Hydroxy-4-fluorobenzenecarboximidamide;<em>N</em>-Hydroxy-4-fluorobenzamidine;4-Fluoro-<em>N</em>-hydroxybenzimidamide",
    "duplicated_cas_no": "",
    "SMILES": "C(NO)(=N)C1=CC=C(F)C=C1",
    "meta_data": {
        "InChI": "InChI=1S/C7H7FN2O/c8-6-3-1-5(2-4-6)7(9)10-11/h1-4,11H,(H2,9,10)",
        "InChIKey": null,
        "Canonical SMILES": "FC1=CC=C(C=C1)C(=N)NO",
        "Molecular Formula": "C<sub>7</sub>H<sub>7</sub>FN<sub>2</sub>O",
        "Molecular Mass": "154.14",
        "Melting Point": "93-95 °C"
    }
}