{
    "cas_no": "1835-52-5",
    "key_name": "Aspartic acid, 4-methyl ester, hydrochloride (1:1)",
    "cn_name": "DL-天门冬氨酸甲酯盐酸盐;",
    "alternate_name": "Aspartic acid, 4-methyl ester, hydrochloride (1:1);Aspartic acid, 4-methyl ester, hydrochloride, <span class=\"text-smallcaps\">DL</span>-;<span class=\"text-smallcaps\">DL</span>-Aspartic acid, 4-methyl ester, hydrochloride;Aspartic acid, 4-methyl ester, hydrochloride;β-Methyl <span class=\"text-smallcaps\">DL</span>-aspartate hydrochloride;2-Amino-4-methoxy-4-oxobutanoic acid hydrochloride",
    "duplicated_cas_no": "200262-62-0",
    "SMILES": "C(C(C(O)=O)N)C(OC)=O.Cl",
    "meta_data": {
        "InChI": "InChI=1S/C5H9NO4.ClH/c1-10-4(7)2-3(6)5(8)9;/h3H,2,6H2,1H3,(H,8,9);1H",
        "InChIKey": null,
        "Canonical SMILES": "Cl.O=C(OC)CC(N)C(=O)O",
        "Molecular Formula": "C<sub>5</sub>H<sub>9</sub>NO<sub>4</sub>.ClH",
        "Molecular Mass": "",
        "Melting Point": "193-194 °C"
    }
}