{
    "cas_no": "20651-75-6",
    "key_name": "1-Butyl-4-nitrobenzene",
    "cn_name": "1-丁基-4-硝基苯;",
    "alternate_name": "Benzene, 1-butyl-4-nitro-;1-Butyl-4-nitrobenzene;<em>p</em>-Nitrobutylbenzene;<em>p</em>-Butylnitrobenzene;4-Nitrobutylbenzene",
    "duplicated_cas_no": "",
    "SMILES": "N(=O)(=O)C1=CC=C(CCCC)C=C1",
    "meta_data": {
        "InChI": "InChI=1S/C10H13NO2/c1-2-3-4-9-5-7-10(8-6-9)11(12)13/h5-8H,2-4H2,1H3",
        "InChIKey": null,
        "Canonical SMILES": "O=N(=O)C1=CC=C(C=C1)CCCC",
        "Molecular Formula": "C<sub>10</sub>H<sub>13</sub>NO<sub>2</sub>",
        "Molecular Mass": "179.22",
        "Boiling Point": "152-155 °C @ Press: 16 Torr",
        "Melting Point": "67-68 °C"
    }
}