{
    "cas_no": "70340-04-4",
    "key_name": "Phosphonium, [(2-hydroxyphenyl)methyl]triphenyl-, bromide (1:1)",
    "cn_name": null,
    "alternate_name": "Phosphonium, [(2-hydroxyphenyl)methyl]triphenyl-, bromide (1:1);Phosphonium, [(2-hydroxyphenyl)methyl]triphenyl-, bromide;(2-Hydroxybenzyl)triphenylphosphonium bromide;(<em>o</em>-Hydroxybenzyl)triphenylphosphonium bromide",
    "duplicated_cas_no": "",
    "SMILES": "[P+](CC1=C(O)C=CC=C1)(C2=CC=CC=C2)(C3=CC=CC=C3)C4=CC=CC=C4.[Br-]",
    "meta_data": {
        "InChI": "InChI=1S/C25H21OP.BrH/c26-25-19-11-10-12-21(25)20-27(22-13-4-1-5-14-22,23-15-6-2-7-16-23)24-17-8-3-9-18-24;/h1-19H,20H2;1H",
        "InChIKey": null,
        "Canonical SMILES": "[Br-].OC=1C=CC=CC1C[P+](C=2C=CC=CC2)(C=3C=CC=CC3)C=4C=CC=CC4",
        "Molecular Formula": "C<sub>25</sub>H<sub>22</sub>OP.Br",
        "Molecular Mass": "",
        "Melting Point": "248-252 °C"
    }
}