{
    "cas_no": "40020-01-7",
    "key_name": "Pyridafol",
    "cn_name": null,
    "alternate_name": "4-Pyridazinol, 6-chloro-3-phenyl-;6-Chloro-3-phenyl-4-pyridazinol;3-Phenyl-4-hydroxy-6-chloropyridazine;CL 9673;NOA 402989;Pyridafol;3-Chloro-5-hydroxy-6-phenylpyridazine",
    "duplicated_cas_no": "",
    "SMILES": "OC1=C(C2=CC=CC=C2)N=NC(Cl)=C1",
    "meta_data": {
        "InChI": "InChI=1S/C10H7ClN2O/c11-9-6-8(14)10(13-12-9)7-4-2-1-3-5-7/h1-6H,(H,12,14)",
        "InChIKey": null,
        "Canonical SMILES": "ClC=1N=NC(=C(O)C1)C2=CC=CC=C2",
        "Molecular Formula": "C<sub>10</sub>H<sub>7</sub>ClN<sub>2</sub>O",
        "Molecular Mass": "206.63",
        "Melting Point": "214-216 °C"
    }
}