{
    "cas_no": "57-68-1",
    "key_name": "Sulfamethazine",
    "cn_name": "磺胺二甲嘧啶;N-(4,6-二甲基-2-嘧啶基)-4-氨基苯磺酰胺;磺胺二甲基嘧啶;",
    "alternate_name": "Benzenesulfonamide, 4-amino-<em>N</em>-(4,6-dimethyl-2-pyrimidinyl)-;Sulfanilamide, <em>N</em><sup>1</sup>-(4,6-dimethyl-2-pyrimidinyl)-;4-Amino-<em>N</em>-(4,6-dimethyl-2-pyrimidinyl)benzenesulfonamide;Azolmetazin;Cremomethazine;Diazil;<em>N</em><sup>1</sup>-(4,6-Dimethyl-2-pyrimidinyl)sulfanilamide;<em>N</em><sup>1</sup>-(4,6-Dimethyl-2-pyrimidyl)sulfanilamide;4,6-Dimethyl-2-sulfanilamidopyrimidine;Dimezathine;Mermeth;Neazina;Pirmazin;Sulfadimerazine;Sulfadimesine;Sulfadimethyldiazine;Sulfadimethylpyrimidine;Sulfadimezine;Sulfadimidine;Sulfadine;Sulfamethazine;Sulfamethiazine;2-Sulfanilamido-4,6-dimethylpyrimidine;Sulfodimesin;Sulphadimethylpyrimidine;Sulphadimidine;Vertolan;Sulfodimezine;Superseptil;Spanbolet;Superseptyl;Sulfadimesin;A 502;Sulphamethasine;2-(<em>p</em>-Aminobenzenesulfonamido)-4,6-dimethylpyrimidine;<em>N</em>-(4,6-Dimethyl-2-pyrimidyl)sulfanilamide;Sulphamethazine;Sulfadimezin;Sulphodimezine;Sulfadimidin;Kelametazine;Diazyl;Sulphamezathine;Sulphamidine;Neasina;2-(4-Aminobenzenesulfonamido)-4,6-dimethylpyrimidine;BN 2409;Calfspan;S-Dimidine;SulfaSURE SR Bolus;Sulka K Boluses;Dimidin R;DiazilSulfadine;Calfspan Tablets;NSC 67457;NSC 683529;Sustain III;Panazin;2-(4-Aminobenzenesulfonylamino)-4,6-dimethylpyrimidine;4-Amino-<em>N</em>-(4,6-dimethylpyrimidin-2-yl)benzenesulfonamide;SMZ;MeSH ID: D013418",
    "duplicated_cas_no": "",
    "SMILES": "S(NC=1N=C(C)C=C(C)N1)(=O)(=O)C2=CC=C(N)C=C2",
    "meta_data": {
        "InChI": "InChI=1S/C12H14N4O2S/c1-8-7-9(2)15-12(14-8)16-19(17,18)11-5-3-10(13)4-6-11/h3-7H,13H2,1-2H3,(H,14,15,16)",
        "InChIKey": null,
        "Canonical SMILES": "O=S(=O)(NC=1N=C(C=C(N1)C)C)C2=CC=C(N)C=C2",
        "Molecular Formula": "C<sub>12</sub>H<sub>14</sub>N<sub>4</sub>O<sub>2</sub>S",
        "Molecular Mass": "278.33",
        "Melting Point": "198.5 °C",
        "Density": "1.4655 g/cm³"
    }
}