{
    "cas_no": "5267-39-0",
    "key_name": "4-Chlorobenzhydrylamine hydrochloride",
    "cn_name": "4-氯二苯甲胺盐酸盐;",
    "alternate_name": "Benzenemethanamine, 4-chloro-α-phenyl-, hydrochloride (1:1);Benzylamine, <em>p</em>-chloro-α-phenyl-, hydrochloride;Benzenemethanamine, 4-chloro-α-phenyl-, hydrochloride;4-Chlorobenzhydrylamine hydrochloride;<em>p</em>-Chloro-α-phenylbenzylamine hydrochloride;NSC 23816;(4-Chlorophenyl)(phenyl)methanamine hydrochloride",
    "duplicated_cas_no": "",
    "SMILES": "C(N)(C1=CC=C(Cl)C=C1)C2=CC=CC=C2.Cl",
    "meta_data": {
        "InChI": "InChI=1S/C13H12ClN.ClH/c14-12-8-6-11(7-9-12)13(15)10-4-2-1-3-5-10;/h1-9,13H,15H2;1H",
        "InChIKey": null,
        "Canonical SMILES": "Cl.ClC1=CC=C(C=C1)C(N)C=2C=CC=CC2",
        "Molecular Formula": "C<sub>13</sub>H<sub>12</sub>ClN.ClH",
        "Molecular Mass": "",
        "Melting Point": "304-305 °C (decomp)"
    }
}