{
    "cas_no": "23745-86-0",
    "key_name": "Acetic acid, fluoro-, potassium salt",
    "cn_name": null,
    "alternate_name": "Acetic acid, fluoro-, potassium salt;Potassium fluoroacetate",
    "duplicated_cas_no": "",
    "SMILES": "C(CF)(O)=O.[K]",
    "meta_data": {
        "InChI": "InChI=1S/C2H3FO2.K/c3-1-2(4)5;/h1H2,(H,4,5);",
        "InChIKey": null,
        "Canonical SMILES": "[K].O=C(O)CF",
        "Molecular Formula": "C<sub>2</sub>H<sub>3</sub>FO<sub>2</sub>.K",
        "Molecular Mass": "",
        "Melting Point": "189 °C (decomp)"
    }
}