{
    "cas_no": "136507-15-8",
    "key_name": "2-Methoxy-4-nitrobenzaldehyde",
    "cn_name": "2-甲氧基-4-硝基苯甲醛;",
    "alternate_name": "Benzaldehyde, 2-methoxy-4-nitro-;2-Methoxy-4-nitrobenzaldehyde;4-Nitro-2-methoxybenzaldehyde;1-Formyl-2-methoxy-4-nitrobenzene",
    "duplicated_cas_no": "",
    "SMILES": "O(C)C1=C(C=O)C=CC(N(=O)=O)=C1",
    "meta_data": {
        "InChI": "InChI=1S/C8H7NO4/c1-13-8-4-7(9(11)12)3-2-6(8)5-10/h2-5H,1H3",
        "InChIKey": null,
        "Canonical SMILES": "O=CC1=CC=C(C=C1OC)N(=O)=O",
        "Molecular Formula": "C<sub>8</sub>H<sub>7</sub>NO<sub>4</sub>",
        "Molecular Mass": "181.15",
        "Melting Point": "122 °C"
    }
}