{
    "cas_no": "203854-56-2",
    "key_name": "(2<em>S</em>)-2-(Aminomethyl)-4-methylpentanoic acid",
    "cn_name": null,
    "alternate_name": "Pentanoic acid, 2-(aminomethyl)-4-methyl-, (2<em>S</em>)-;Pentanoic acid, 2-(aminomethyl)-4-methyl-, (<em>S</em>)-;(2<em>S</em>)-2-(Aminomethyl)-4-methylpentanoic acid;(<em>S</em>)-2-Aminomethyl-4-methylpentanoic acid;(-)-2-Aminomethyl-4-methylpentanoic acid",
    "duplicated_cas_no": "",
    "SMILES": "[C@@H](CC(C)C)(C(O)=O)CN",
    "meta_data": {
        "InChI": "InChI=1S/C7H15NO2/c1-5(2)3-6(4-8)7(9)10/h5-6H,3-4,8H2,1-2H3,(H,9,10)/t6-/m0/s1",
        "InChIKey": null,
        "Canonical SMILES": "O=C(O)C(CN)CC(C)C",
        "Molecular Formula": "C<sub>7</sub>H<sub>15</sub>NO<sub>2</sub>",
        "Molecular Mass": "145.20",
        "Melting Point": "226-228 °C"
    }
}