{
    "cas_no": "297-78-9",
    "key_name": "Isobenzan",
    "cn_name": "碳氯灵;八氯六氢亚甲基苯并呋喃;1,2,3,4,5,6,7,8,8-八氯-3A,4,7,7A四氢-4,7-亚甲桥苯并呋喃;",
    "alternate_name": "4,7-Methanoisobenzofuran, 1,3,4,5,6,7,8,8-octachloro-1,3,3a,4,7,7a-hexahydro-;4,7-Methanoisobenzofuran, 1,3,4,5,6,7,8,8-octachloro-3a,4,7,7a-tetrahydro-;1,3,4,5,6,7,8,8-Octachloro-1,3,3a,4,7,7a-hexahydro-4,7-methanoisobenzofuran;SD 4402;CP 14,957;ENT 25,545-X;Isobenzan;1,3,4,5,6,7,8,8-Octachloro-2-oxa-3a,4,7,7a-tetrahydro-4,7-methanoindene;1,3,4,5,6,7,8,8-Octachloro-3a,4,7,7a-tetrahydro-4,7-methanophthalan;Telodrin;948;WL 1650",
    "duplicated_cas_no": "3212-31-5;21152-15-8",
    "SMILES": "ClC12C3C(C(Cl)(C1(Cl)Cl)C(Cl)=C2Cl)C(Cl)OC3Cl",
    "meta_data": {
        "InChI": "InChI=1S/C9H4Cl8O/c10-3-4(11)8(15)2-1(5(12)18-6(2)13)7(3,14)9(8,16)17/h1-2,5-6H",
        "InChIKey": null,
        "Canonical SMILES": "ClC1=C(Cl)C2(Cl)C3C(Cl)OC(Cl)C3C1(Cl)C2(Cl)Cl",
        "Molecular Formula": "C<sub>9</sub>H<sub>4</sub>Cl<sub>8</sub>O",
        "Molecular Mass": "411.75",
        "Melting Point": "120-122 °C",
        "Density": "1.87 g/cm³"
    }
}