{
    "cas_no": "10397-30-5",
    "key_name": "4-Methyl-3-nitrobenzoyl chloride",
    "cn_name": "3-硝基-4-甲基苯甲酰氯;",
    "alternate_name": "Benzoyl chloride, 4-methyl-3-nitro-;<em>p</em>-Toluoyl chloride, 3-nitro-;4-Methyl-3-nitrobenzoyl chloride;2-Nitrotoluene-4-carbonyl chloride;3-Nitro-4-methylbenzoyl chloride;3-Nitro-<em>p</em>-toluoyl chloride",
    "duplicated_cas_no": "",
    "SMILES": "N(=O)(=O)C1=CC(C(Cl)=O)=CC=C1C",
    "meta_data": {
        "InChI": "InChI=1S/C8H6ClNO3/c1-5-2-3-6(8(9)11)4-7(5)10(12)13/h2-4H,1H3",
        "InChIKey": null,
        "Canonical SMILES": "O=C(Cl)C1=CC=C(C(=C1)N(=O)=O)C",
        "Molecular Formula": "C<sub>8</sub>H<sub>6</sub>ClNO<sub>3</sub>",
        "Molecular Mass": "199.59",
        "Boiling Point": "139-140 °C @ Press: 2 Torr",
        "Melting Point": "11 °C"
    }
}