{
    "cas_no": "616-46-6",
    "key_name": "2-Aminothiophene",
    "cn_name": "噻吩胺;2-胺噻吩;",
    "alternate_name": "2-Thiophenamine;Thiophenine;2-Aminothiophene;2-Thiophenine;2-Thienylamine;NSC 118942;(Thiophen-2-yl)amine",
    "duplicated_cas_no": "",
    "SMILES": "NC1=CC=CS1",
    "meta_data": {
        "InChI": "InChI=1S/C4H5NS/c5-4-2-1-3-6-4/h1-3H,5H2",
        "InChIKey": null,
        "Canonical SMILES": "S1C=CC=C1N",
        "Molecular Formula": "C<sub>4</sub>H<sub>5</sub>NS",
        "Molecular Mass": "99.15",
        "Melting Point": "12-13 °C"
    }
}