{
    "cas_no": "13494-10-5",
    "key_name": "2′,3′-Dihydroxyacetophenone",
    "cn_name": null,
    "alternate_name": "Ethanone, 1-(2,3-dihydroxyphenyl)-;Acetophenone, 2′,3′-dihydroxy-;1-(2,3-Dihydroxyphenyl)ethanone;3-Acetyl-1,2-benzenediol;2′,3′-Dihydroxyacetophenone;1-(2,3-Dihydroxyphenyl)ethan-1-one",
    "duplicated_cas_no": "",
    "SMILES": "C(C)(=O)C1=C(O)C(O)=CC=C1",
    "meta_data": {
        "InChI": "InChI=1S/C8H8O3/c1-5(9)6-3-2-4-7(10)8(6)11/h2-4,10-11H,1H3",
        "InChIKey": null,
        "Canonical SMILES": "O=C(C=1C=CC=C(O)C1O)C",
        "Molecular Formula": "C<sub>8</sub>H<sub>8</sub>O<sub>3</sub>",
        "Molecular Mass": "152.15",
        "Melting Point": "97-98 °C"
    }
}