{
    "cas_no": "122-65-6",
    "key_name": "<em>N</em><sup>1</sup>,<em>N</em><sup>2</sup>-Bis(phenylmethyl)ethanedithioamide",
    "cn_name": "N,Nˊ-二苄基二硫代草酰胺;N,Nˊ-二苄基二硫代乙二酰胺；N,Nˊ-二苄基硫代草酰胺;",
    "alternate_name": "Ethanedithioamide, <em>N</em><sup>1</sup>,<em>N</em><sup>2</sup>-bis(phenylmethyl)-;Oxamide, <em>N</em>,<em>N</em>′-dibenzyldithio-;Ethanedithioamide, <em>N</em>,<em>N</em>′-bis(phenylmethyl)-;<em>N</em><sup>1</sup>,<em>N</em><sup>2</sup>-Bis(phenylmethyl)ethanedithioamide;<em>N</em>,<em>N</em>′-Dibenzyldithiooxamide;Dibenzylrubeanic acid;Dibenzylhydrorubeanic acid;<em>N</em>,<em>N</em>′-Dibenzyldithioxamide;NSC 44704",
    "duplicated_cas_no": "",
    "SMILES": "C(NC(C(NCC1=CC=CC=C1)=S)=S)C2=CC=CC=C2",
    "meta_data": {
        "InChI": "InChI=1S/C16H16N2S2/c19-15(17-11-13-7-3-1-4-8-13)16(20)18-12-14-9-5-2-6-10-14/h1-10H,11-12H2,(H,17,19)(H,18,20)",
        "InChIKey": null,
        "Canonical SMILES": "S=C(NCC=1C=CC=CC1)C(=S)NCC=2C=CC=CC2",
        "Molecular Formula": "C<sub>16</sub>H<sub>16</sub>N<sub>2</sub>S<sub>2</sub>",
        "Molecular Mass": "300.44",
        "Melting Point": "120 °C"
    }
}