{
    "cas_no": "101477-54-7",
    "key_name": "Piperazine, 1-[bis(4-fluorophenyl)methyl]-4-[(2,3,4-trimethoxyphenyl)methyl]-, hydrochloride (1:2)",
    "cn_name": "盐酸洛美利嗪;1-[二(4-氟苯基)甲基)]-4-(2,3,4-三甲氧基苯甲基)哌嗪二盐酸盐;",
    "alternate_name": "Piperazine, 1-[bis(4-fluorophenyl)methyl]-4-[(2,3,4-trimethoxyphenyl)methyl]-, hydrochloride (1:2);Piperazine, 1-[bis(4-fluorophenyl)methyl]-4-[(2,3,4-trimethoxyphenyl)methyl]-, dihydrochloride;KB 2796;Lomerizine dihydrochloride;Lomerizine hydrochloride",
    "duplicated_cas_no": "",
    "SMILES": "C(N1CCN(CC2=C(OC)C(OC)=C(OC)C=C2)CC1)(C3=CC=C(F)C=C3)C4=CC=C(F)C=C4.Cl",
    "meta_data": {
        "InChI": "InChI=1S/C27H30F2N2O3.2ClH/c1-32-24-13-8-21(26(33-2)27(24)34-3)18-30-14-16-31(17-15-30)25(19-4-9-22(28)10-5-19)20-6-11-23(29)12-7-20;;/h4-13,25H,14-18H2,1-3H3;2*1H",
        "InChIKey": null,
        "Canonical SMILES": "Cl.FC1=CC=C(C=C1)C(C2=CC=C(F)C=C2)N3CCN(CC4=CC=C(OC)C(OC)=C4OC)CC3",
        "Molecular Formula": "C<sub>27</sub>H<sub>30</sub>F<sub>2</sub>N<sub>2</sub>O<sub>3</sub>.2ClH",
        "Molecular Mass": "",
        "Melting Point": "214-218 °C (decomp)"
    }
}