{
    "cas_no": "1123-86-0",
    "key_name": "Cyclohexyl ethyl ketone",
    "cn_name": "环己基甲乙酮;环己基甲乙酮;",
    "alternate_name": "1-Propanone, 1-cyclohexyl-;1-Cyclohexyl-1-propanone;Ethyl cyclohexyl ketone;Cyclohexyl ethyl ketone;NSC 39457",
    "duplicated_cas_no": "",
    "SMILES": "C(CC)(=O)C1CCCCC1",
    "meta_data": {
        "InChI": "InChI=1S/C9H16O/c1-2-9(10)8-6-4-3-5-7-8/h8H,2-7H2,1H3",
        "InChIKey": null,
        "Canonical SMILES": "O=C(CC)C1CCCCC1",
        "Molecular Formula": "C<sub>9</sub>H<sub>16</sub>O",
        "Molecular Mass": "140.22",
        "Boiling Point": "196 °C",
        "Density": "0.911 g/cm³ @ Temp: 20 °C"
    }
}