{
    "cas_no": "5391-39-9",
    "key_name": "1-Acetyl-2-imidazolidinone",
    "cn_name": "N-乙酰基-2-咪唑烷酮;1-乙酰基-2-咪唑啉酮;",
    "alternate_name": "2-Imidazolidinone, 1-acetyl-;1-Acetyl-2-imidazolidinone;<em>N</em>-Acetyl-2-imidazolidinone;<em>N</em>-Acetylimidazolidinone",
    "duplicated_cas_no": "",
    "SMILES": "C(C)(=O)N1C(=O)NCC1",
    "meta_data": {
        "InChI": "InChI=1S/C5H8N2O2/c1-4(8)7-3-2-6-5(7)9/h2-3H2,1H3,(H,6,9)",
        "InChIKey": null,
        "Canonical SMILES": "O=C1NCCN1C(=O)C",
        "Molecular Formula": "C<sub>5</sub>H<sub>8</sub>N<sub>2</sub>O<sub>2</sub>",
        "Molecular Mass": "128.13",
        "Melting Point": "171.5-173 °C"
    }
}