{
    "cas_no": "2390-09-2",
    "key_name": "<em>cis</em>-11-Eicosenoic acid methyl ester",
    "cn_name": "顺式-11-二十碳烯酸甲酯;",
    "alternate_name": "11-Eicosenoic acid, methyl ester, (11<em>Z</em>)-;11-Eicosenoic acid, methyl ester, (<em>Z</em>)-;Methyl (<em>Z</em>)-11-eicosenoate;Methyl 11-<em>cis</em>-eicosenoate;Methyl 11(Z)-eicosenoate;<em>cis</em>-11-Eicosenoic acid methyl ester",
    "duplicated_cas_no": "62472-88-2",
    "SMILES": "C(CCCCC/C=C\\CCCCCCCC)CCCC(OC)=O",
    "meta_data": {
        "InChI": "InChI=1S/C21H40O2/c1-3-4-5-6-7-8-9-10-11-12-13-14-15-16-17-18-19-20-21(22)23-2/h10-11H,3-9,12-20H2,1-2H3/b11-10-",
        "InChIKey": null,
        "Canonical SMILES": "O=C(OC)CCCCCCCCCC=CCCCCCCCC",
        "Molecular Formula": "C<sub>21</sub>H<sub>40</sub>O<sub>2</sub>",
        "Molecular Mass": "324.54",
        "Melting Point": "-34.0 °C"
    }
}