{
    "cas_no": "25265-77-4",
    "key_name": "Texanol",
    "cn_name": "2,2,4-三甲基-1,3-戊二醇单异丁酸酯;醇酯-12;",
    "alternate_name": "Propanoic acid, 2-methyl-, monoester with 2,2,4-trimethyl-1,3-pentanediol;Isobutyric acid, ester with 2,2,4-trimethyl-1,3-pentanediol;Texanol;2,2,4-Trimethyl-1,3-pentanediol monoisobutyrate;Isobutyraldehyde Tishchenko trimer;CS 12;Chissocizer CS 12;Ucar Filmer IBT;NX 795;Ester 12;Texanol Ester Alcohol;Alcohol ester 12;2,2,4-Trimethyl-1,3-pentanediol monoisobutylate;Nexcoat NX 795;C 12;2,2,4-Trimethyl-1,3-pentanediol mono(2-methylpropanoate);XS 12;GRSHY 1800;DN 12;LD 506;Ruanta C 12;AD 82;Texanol AD 82;Haltanol;G 12;J 1902;2,2,4-Trimethyl-1,3-pentanediol 2-methylpropanoic acid monoester;RTC 12",
    "duplicated_cas_no": "129383-05-7;141136-23-4;25134-27-4;855004-42-1",
    "SMILES": "",
    "meta_data": {
        "InChI": "",
        "InChIKey": null,
        "Canonical SMILES": "",
        "Molecular Formula": "C<sub>12</sub>H<sub>24</sub>O<sub>3</sub>",
        "Molecular Mass": "",
        "Boiling Point": "255-260 °C",
        "Melting Point": "-50 °C",
        "Density": "0.95 g/cm³"
    }
}