{
    "cas_no": "10466-61-2",
    "key_name": "Leucinamide hydrochloride",
    "cn_name": "L-亮氨酰胺盐酸盐;",
    "alternate_name": "Pentanamide, 2-amino-4-methyl-, hydrochloride (1:1), (2<em>S</em>)-;Leucinamide, monohydrochloride, <span class=\"text-smallcaps\">L</span>-;Pentanamide, 2-amino-4-methyl-, monohydrochloride, (<em>S</em>)-;Pentanamide, 2-amino-4-methyl-, monohydrochloride, (2<em>S</em>)-;<span class=\"text-smallcaps\">L</span>-Leucinamide monohydrochloride;<span class=\"text-smallcaps\">L</span>-Leucinamide hydrochloride;Leucinamide hydrochloride;Leucine amide hydrochloride;(<em>S</em>)-Leucinamide hydrochloride;NSC 83635;(<em>S</em>)-2-Amino-4-methylvaleramide monohydrochloride;(<em>S</em>)-2-Amino-4-methylpentanamide hydrochloride",
    "duplicated_cas_no": "",
    "SMILES": "[C@H](CC(C)C)(C(N)=O)N.Cl",
    "meta_data": {
        "InChI": "InChI=1S/C6H14N2O.ClH/c1-4(2)3-5(7)6(8)9;/h4-5H,3,7H2,1-2H3,(H2,8,9);1H/t5-;/m0./s1",
        "InChIKey": null,
        "Canonical SMILES": "Cl.O=C(N)C(N)CC(C)C",
        "Molecular Formula": "C<sub>6</sub>H<sub>14</sub>N<sub>2</sub>O.ClH",
        "Molecular Mass": "",
        "Melting Point": "224-229 °C (decomp)"
    }
}