{
    "cas_no": "1435-55-8",
    "key_name": "Hydroquinidine",
    "cn_name": "二氢奎尼丁;氢化奎宁定;氢化奎尼定;(5-乙基-1-氮杂双环[2.2.2]辛烷-7-基)-(6-甲氧基喹啉-4-基)甲醇;",
    "alternate_name": "Cinchonan-9-ol, 10,11-dihydro-6′-methoxy-, (9<em>S</em>)-;Hydroquinidine;(9<em>S</em>)-10,11-Dihydro-6′-methoxycinchonan-9-ol;Dihydroquinidine;Hydroconquinine;10,11-Dihydroquinidine;(+)-Hydroquinidine",
    "duplicated_cas_no": "1415-00-5;900786-91-6;904813-09-8;1089762-75-3;1195456-48-4;2176466-42-3",
    "SMILES": "[C@H](O)(C=1C2=C(C=CC(OC)=C2)N=CC1)[C@@]3([N@@]4C[C@H](CC)[C@](C3)(CC4)[H])[H]",
    "meta_data": {
        "InChI": "InChI=1S/C20H26N2O2/c1-3-13-12-22-9-7-14(13)10-19(22)20(23)16-6-8-21-18-5-4-15(24-2)11-17(16)18/h4-6,8,11,13-14,19-20,23H,3,7,9-10,12H2,1-2H3/t13-,14-,19+,20-/m0/s1",
        "InChIKey": null,
        "Canonical SMILES": "OC(C=1C=CN=C2C=CC(OC)=CC21)C3N4CCC(C3)C(C4)CC",
        "Molecular Formula": "C<sub>20</sub>H<sub>26</sub>N<sub>2</sub>O<sub>2</sub>",
        "Molecular Mass": "326.43",
        "Melting Point": "168.5 °C"
    }
}