{
    "cas_no": "140-69-2",
    "key_name": "[(4-Methoxyphenyl)methyl]hydrazine",
    "cn_name": null,
    "alternate_name": "Hydrazine, [(4-methoxyphenyl)methyl]-;Hydrazine, (<em>p</em>-methoxybenzyl)-;[(4-Methoxyphenyl)methyl]hydrazine;4-Methoxybenzylhydrazine;<em>p</em>-Methoxybenzylhydrazine",
    "duplicated_cas_no": "",
    "SMILES": "C(NN)C1=CC=C(OC)C=C1",
    "meta_data": {
        "InChI": "InChI=1S/C8H12N2O/c1-11-8-4-2-7(3-5-8)6-10-9/h2-5,10H,6,9H2,1H3",
        "InChIKey": null,
        "Canonical SMILES": "O(C1=CC=C(C=C1)CNN)C",
        "Molecular Formula": "C<sub>8</sub>H<sub>12</sub>N<sub>2</sub>O",
        "Molecular Mass": "152.19",
        "Boiling Point": "135-136 °C",
        "Melting Point": "34-36 °C"
    }
}