{
    "cas_no": "3291-00-7",
    "key_name": "Salicylhydrazone",
    "cn_name": "水杨醛腙;",
    "alternate_name": "Benzaldehyde, 2-hydroxy-, hydrazone;Salicylaldehyde, hydrazone;Salicylic aldehyde hydrazone;2-Hydroxybenzaldehyde hydrazone;Salicylhydrazone;Salicylidene hydrazone;Salzone;<em>N</em>-(Aminoformimidoyl)phenol;2-(Hydrazonomethyl)phenol",
    "duplicated_cas_no": "",
    "SMILES": "C(=NN)C1=C(O)C=CC=C1",
    "meta_data": {
        "InChI": "InChI=1S/C7H8N2O/c8-9-5-6-3-1-2-4-7(6)10/h1-5,10H,8H2",
        "InChIKey": null,
        "Canonical SMILES": "OC=1C=CC=CC1C=NN",
        "Molecular Formula": "C<sub>7</sub>H<sub>8</sub>N<sub>2</sub>O",
        "Molecular Mass": "136.15",
        "Melting Point": "96 °C"
    }
}