{
    "cas_no": "7681-11-0",
    "key_name": "Potassium iodide",
    "cn_name": "碘化钾;",
    "alternate_name": "Potassium iodide (KI);K1-N;Potassium monoiodide;Knollide;Asmofug E;Kaiod;Pherajod;Potassium iodide;Ceoiodin;Antistrumin;Iodostin;Jodid;Thyrojod;Thyro-Block;NSC 77362;Kalium iodidum;Zeoiodine;Iod-active;Iodomarin;iOsat;SSKI;ThyroSafe;ThyroShield;Iosat;IOsat;S 5070;MeSH ID: D011193",
    "duplicated_cas_no": "106449-25-6;39448-53-8;59216-96-5;61456-02-8",
    "SMILES": "I[K]",
    "meta_data": {
        "InChI": "InChI=1S/HI.K/h1H;/q;+1/p-1",
        "InChIKey": null,
        "Canonical SMILES": "[K]I",
        "Molecular Formula": "IK",
        "Molecular Mass": "",
        "Boiling Point": "1330 °C",
        "Melting Point": "680 °C",
        "Density": "3.13 g/cm³"
    }
}