{
    "cas_no": "24685-89-0",
    "key_name": "Silicic acid (H<sub>4</sub>SiO<sub>4</sub>) tetrakis[2-(2-methoxyethoxy)ethyl] ester",
    "cn_name": "四[2-(2-甲氧乙氧基)乙基]硅酸酯;2-(2-甲氧乙氧基)乙醇同硅酸的四的酯化物;",
    "alternate_name": "Silicic acid (H<sub>4</sub>SiO<sub>4</sub>), tetrakis[2-(2-methoxyethoxy)ethyl] ester;Ethanol, 2-(2-methoxyethoxy)-, tetraester with silicic acid (H<sub>4</sub>SiO<sub>4</sub>);Silicic acid (H<sub>4</sub>SiO<sub>4</sub>) tetrakis[2-(2-methoxyethoxy)ethyl] ester;C 4-2117;Tetrakis[2-(2-methoxyethoxy)ethyl] silicate",
    "duplicated_cas_no": "",
    "SMILES": "[Si](OCCOCCOC)(OCCOCCOC)(OCCOCCOC)OCCOCCOC",
    "meta_data": {
        "InChI": "InChI=1S/C20H44O12Si/c1-21-5-9-25-13-17-29-33(30-18-14-26-10-6-22-2,31-19-15-27-11-7-23-3)32-20-16-28-12-8-24-4/h5-20H2,1-4H3",
        "InChIKey": null,
        "Canonical SMILES": "O(C)CCOCCO[Si](OCCOCCOC)(OCCOCCOC)OCCOCCOC",
        "Molecular Formula": "C<sub>20</sub>H<sub>44</sub>O<sub>12</sub>Si",
        "Molecular Mass": "504.64",
        "Boiling Point": "245 °C @ Press: 1 Torr",
        "Density": "1.090 g/cm³"
    }
}