{
    "cas_no": "5182-44-5",
    "key_name": "2-(3-Chlorophenyl)ethanol",
    "cn_name": "间-氯苯乙醇;",
    "alternate_name": "Benzeneethanol, 3-chloro-;Phenethyl alcohol, <em>m</em>-chloro-;3-Chlorobenzeneethanol;2-(3-Chlorophenyl)ethanol;3-Chlorophenethyl alcohol;<em>m</em>-Chlorophenethyl alcohol;2-(3-Chlorophenyl)ethyl alcohol;3-Chlorophenethanol;2-(3-Chlorophenyl)ethan-1-ol",
    "duplicated_cas_no": "",
    "SMILES": "C(CO)C1=CC(Cl)=CC=C1",
    "meta_data": {
        "InChI": "InChI=1S/C8H9ClO/c9-8-3-1-2-7(6-8)4-5-10/h1-3,6,10H,4-5H2",
        "InChIKey": null,
        "Canonical SMILES": "ClC1=CC=CC(=C1)CCO",
        "Molecular Formula": "C<sub>8</sub>H<sub>9</sub>ClO",
        "Molecular Mass": "156.61",
        "Boiling Point": "100.5 °C @ Press: 3 Torr"
    }
}