{
    "cas_no": "32136-81-5",
    "key_name": "1-(4-Hydroxyphenyl)-2-methoxyethanone",
    "cn_name": null,
    "alternate_name": "Ethanone, 1-(4-hydroxyphenyl)-2-methoxy-;Acetophenone, 4′-hydroxy-2-methoxy-;1-(4-Hydroxyphenyl)-2-methoxyethanone;2-Methoxy-4′-hydroxyacetophenone;4-Hydroxy-α-methoxyacetophenone;2-Methoxy-1-(4-hydroxyphenyl)ethanone;1-(4-Hydroxyphenyl)-2-methoxyethan-1-one",
    "duplicated_cas_no": "",
    "SMILES": "C(COC)(=O)C1=CC=C(O)C=C1",
    "meta_data": {
        "InChI": "InChI=1S/C9H10O3/c1-12-6-9(11)7-2-4-8(10)5-3-7/h2-5,10H,6H2,1H3",
        "InChIKey": null,
        "Canonical SMILES": "O=C(C1=CC=C(O)C=C1)COC",
        "Molecular Formula": "C<sub>9</sub>H<sub>10</sub>O<sub>3</sub>",
        "Molecular Mass": "166.17",
        "Melting Point": "128-130 °C"
    }
}