{
    "cas_no": "26677-99-6",
    "key_name": "Acrylic acid-maleic anhydride copolymer",
    "cn_name": "丙烯酸马来酸共聚物;",
    "alternate_name": "2-Propenoic acid, polymer with 2,5-furandione;Maleic anhydride, polymer with acrylic acid;Acrylic acid, polymer with maleic anhydride;2,5-Furandione, polymer with 2-propenoic acid;Maleic anhydride-acrylic acid copolymer;Acrylic acid-maleic anhydride copolymer;Acrylic acid-maleic anhydride polymer;EMH 138;NSC 124031;Acrylic acid-2,5-furandione copolymer;Acrodur 958D;B 52 (acrylic polymer);B 52;Maleic acid anhydride-acrylic acid copolymer;Chinatan TM;2-Propenoic acid-2,5-furandione diblock copolymer",
    "duplicated_cas_no": "221347-90-6;1187573-66-5",
    "SMILES": "O=C1OC(=O)C=C1.C(C=C)(O)=O",
    "meta_data": {
        "InChI": "InChI=1S/C4H2O3.C3H4O2/c5-3-1-2-4(6)7-3;1-2-3(4)5/h1-2H;2H,1H2,(H,4,5)",
        "InChIKey": null,
        "Canonical SMILES": "O=C(O)C=C.O=C1OC(=O)C=C1",
        "Molecular Formula": "(C<sub>4</sub>H<sub>2</sub>O<sub>3</sub>.C<sub>3</sub>H<sub>4</sub>O<sub>2</sub>)<sub>x</sub>",
        "Molecular Mass": "",
        "Melting Point": "115-117 °C"
    }
}