{
    "cas_no": "69655-05-6",
    "key_name": "Didanosine",
    "cn_name": "地丹诺辛;地达诺辛;2\",3\"-双脱氧肌苷;2\",3\"-双脱氧肌甙;",
    "alternate_name": "Inosine, 2′,3′-dideoxy-;2′,3′-Dideoxyinosine;NSC 612049;Didanosine;BMY 40900;DdI;Videx;Dideoxyinosine;DdI (nucleoside);Videx EC",
    "duplicated_cas_no": "",
    "SMILES": "O=C1C2=C(N(C=N2)[C@@H]3O[C@H](CO)CC3)NC=N1",
    "meta_data": {
        "InChI": "InChI=1S/C10H12N4O3/c15-3-6-1-2-7(17-6)14-5-13-8-9(14)11-4-12-10(8)16/h4-7,15H,1-3H2,(H,11,12,16)/t6-,7+/m0/s1",
        "InChIKey": null,
        "Canonical SMILES": "O=C1N=CNC2=C1N=CN2C3OC(CO)CC3",
        "Molecular Formula": "C<sub>10</sub>H<sub>12</sub>N<sub>4</sub>O<sub>3</sub>",
        "Molecular Mass": "236.23",
        "Melting Point": "160-163 °C"
    }
}