{
    "cas_no": "103946-54-9",
    "key_name": "4′-Methyl[2,2′-bipyridine]-4-carboxylic acid",
    "cn_name": "4\"-甲基-2,2\"-联吡啶-4-甲酸;",
    "alternate_name": "[2,2′-Bipyridine]-4-carboxylic acid, 4′-methyl-;4′-Methyl[2,2′-bipyridine]-4-carboxylic acid;4-Carboxy-4′-methyl-2,2′-bipyridine;4-Methyl-2,2′-bipyridine-4′-carboxylic acid;4′-Methyl-2,2′-bipyridine-4-carboxylic acid;4′-Methyl-2,2′-bipyridyl-4-carboxylic acid;2-(4-Methylpyridin-2-yl)pyridine-4-carboxylic acid",
    "duplicated_cas_no": "",
    "SMILES": "C(O)(=O)C=1C=C(N=CC1)C2=CC(C)=CC=N2",
    "meta_data": {
        "InChI": "InChI=1S/C12H10N2O2/c1-8-2-4-13-10(6-8)11-7-9(12(15)16)3-5-14-11/h2-7H,1H3,(H,15,16)",
        "InChIKey": null,
        "Canonical SMILES": "O=C(O)C=1C=CN=C(C1)C=2N=CC=C(C2)C",
        "Molecular Formula": "C<sub>12</sub>H<sub>10</sub>N<sub>2</sub>O<sub>2</sub>",
        "Molecular Mass": "214.22",
        "Melting Point": "280 °C"
    }
}