{
    "cas_no": "2198-61-0",
    "key_name": "Isoamyl hexanoate",
    "cn_name": "己酸异戊酯;己酸3-甲基丁酯;",
    "alternate_name": "Hexanoic acid, 3-methylbutyl ester;Hexanoic acid, isopentyl ester;Isopentyl alcohol, hexanoate;Isoamyl caproate;Isoamyl hexanoate;3-Methylbutyl hexanoate;Isopentyl hexanoate;Isopentyl caproate",
    "duplicated_cas_no": "",
    "SMILES": "C(OCCC(C)C)(CCCCC)=O",
    "meta_data": {
        "InChI": "InChI=1S/C11H22O2/c1-4-5-6-7-11(12)13-9-8-10(2)3/h10H,4-9H2,1-3H3",
        "InChIKey": null,
        "Canonical SMILES": "O=C(OCCC(C)C)CCCCC",
        "Molecular Formula": "C<sub>11</sub>H<sub>22</sub>O<sub>2</sub>",
        "Molecular Mass": "186.29",
        "Boiling Point": "225.5 °C"
    }
}