{
    "cas_no": "10599-70-9",
    "key_name": "3-Acetyl-2,5-dimethylfuran",
    "cn_name": "3-乙酰基-2,5-二甲基呋喃;",
    "alternate_name": "Ethanone, 1-(2,5-dimethyl-3-furanyl)-;Ketone, 2,5-dimethyl-3-furyl methyl;1-(2,5-Dimethyl-3-furanyl)ethanone;3-Acetyl-2,5-dimethylfuran;2,5-Dimethyl-3-acetylfuran;1-(2,5-Dimethyl-3-furyl)-1-ethanone;NSC 504254;1-(2,5-Dimethylfuran-3-yl)ethanone;2,5-Dimethyl-3-furyl methyl ketone;1-(2,5-Dimethylfuran-3-yl)ethan-1-one",
    "duplicated_cas_no": "",
    "SMILES": "C(C)(=O)C=1C=C(C)OC1C",
    "meta_data": {
        "InChI": "InChI=1S/C8H10O2/c1-5-4-8(6(2)9)7(3)10-5/h4H,1-3H3",
        "InChIKey": null,
        "Canonical SMILES": "O=C(C=1C=C(OC1C)C)C",
        "Molecular Formula": "C<sub>8</sub>H<sub>10</sub>O<sub>2</sub>",
        "Molecular Mass": "138.16",
        "Boiling Point": "95 °C @ Press: 23 Torr"
    }
}