{
    "cas_no": "101623-69-2",
    "key_name": "Carbonic acid, 1-chloroethyl 4-nitrophenyl ester",
    "cn_name": null,
    "alternate_name": "Carbonic acid, 1-chloroethyl 4-nitrophenyl ester;1-Chloroethyl <em>p</em>-nitrophenyl carbonate;1-Chloroethyl 4-nitrophenyl carbonate",
    "duplicated_cas_no": "",
    "SMILES": "O(C(OC(C)Cl)=O)C1=CC=C(N(=O)=O)C=C1",
    "meta_data": {
        "InChI": "InChI=1S/C9H8ClNO5/c1-6(10)15-9(12)16-8-4-2-7(3-5-8)11(13)14/h2-6H,1H3",
        "InChIKey": null,
        "Canonical SMILES": "O=C(OC1=CC=C(C=C1)N(=O)=O)OC(Cl)C",
        "Molecular Formula": "C<sub>9</sub>H<sub>8</sub>ClNO<sub>5</sub>",
        "Molecular Mass": "245.62",
        "Melting Point": "71.0-71.7 °C"
    }
}