{
    "cas_no": "6343-73-3",
    "key_name": "β-Naphthyl laurate",
    "cn_name": "月桂酸-2-萘酯;2-萘基月桂酸酯;",
    "alternate_name": "Dodecanoic acid, 2-naphthalenyl ester;Lauric acid, 2-naphthyl ester;2-Naphthol, laurate;β-Naphthyl laurate;2-Naphthyl dodecanoate;2-Naphthyl laurate;NSC 49742",
    "duplicated_cas_no": "",
    "SMILES": "O(C(CCCCCCCCCCC)=O)C1=CC2=C(C=C1)C=CC=C2",
    "meta_data": {
        "InChI": "InChI=1S/C22H30O2/c1-2-3-4-5-6-7-8-9-10-15-22(23)24-21-17-16-19-13-11-12-14-20(19)18-21/h11-14,16-18H,2-10,15H2,1H3",
        "InChIKey": null,
        "Canonical SMILES": "O=C(OC=1C=CC=2C=CC=CC2C1)CCCCCCCCCCC",
        "Molecular Formula": "C<sub>22</sub>H<sub>30</sub>O<sub>2</sub>",
        "Molecular Mass": "326.47",
        "Melting Point": "58-60 °C"
    }
}