{
    "cas_no": "628-67-1",
    "key_name": "Butylene glycol diacetate",
    "cn_name": null,
    "alternate_name": "1,4-Butanediol, 1,4-diacetate;1,4-Butanediol, diacetate;Tetramethylene diacetate;Tetramethylene acetate;1,4-Diacetoxybutane;Butylene glycol diacetate;1,4-Butylene glycol diacetate;NSC 67924;CELTOL 1,4-BDDA",
    "duplicated_cas_no": "850214-39-0",
    "SMILES": "C(OC(C)=O)CCCOC(C)=O",
    "meta_data": {
        "InChI": "InChI=1S/C8H14O4/c1-7(9)11-5-3-4-6-12-8(2)10/h3-6H2,1-2H3",
        "InChIKey": null,
        "Canonical SMILES": "O=C(OCCCCOC(=O)C)C",
        "Molecular Formula": "C<sub>8</sub>H<sub>14</sub>O<sub>4</sub>",
        "Molecular Mass": "174.19",
        "Boiling Point": "229 °C",
        "Melting Point": "12 °C"
    }
}