{
    "cas_no": "73033-58-6",
    "key_name": "5-Chloro-2-nitrobenzenemethanol",
    "cn_name": "5-氯-2-硝基苯甲醇;",
    "alternate_name": "Benzenemethanol, 5-chloro-2-nitro-;5-Chloro-2-nitrobenzenemethanol;5-Chloro-2-nitrobenzyl alcohol;(5-Chloro-2-nitrophenyl)methanol",
    "duplicated_cas_no": "",
    "SMILES": "C(O)C1=C(N(=O)=O)C=CC(Cl)=C1",
    "meta_data": {
        "InChI": "InChI=1S/C7H6ClNO3/c8-6-1-2-7(9(11)12)5(3-6)4-10/h1-3,10H,4H2",
        "InChIKey": null,
        "Canonical SMILES": "O=N(=O)C1=CC=C(Cl)C=C1CO",
        "Molecular Formula": "C<sub>7</sub>H<sub>6</sub>ClNO<sub>3</sub>",
        "Molecular Mass": "187.58",
        "Melting Point": "79.8-80.2 °C"
    }
}