{
    "cas_no": "7797-81-1",
    "key_name": "<em>N</em>-Hydroxynaphthalimide",
    "cn_name": "N-羟基-1,8-萘二甲酰亚胺;N-羟基-1,8-萘二甲酰亚胺;",
    "alternate_name": "1<em>H</em>-Benz[<em>de</em>]isoquinoline-1,3(2<em>H</em>)-dione, 2-hydroxy-;Naphthalimide, <em>N</em>-hydroxy-;2-Hydroxy-1<em>H</em>-benz[<em>de</em>]isoquinoline-1,3(2<em>H</em>)-dione;<em>N</em>-Hydroxynaphthalimide;<em>N</em>-Hydroxy-1,8-naphthalimide;Naphthalhydroxamic acid;NSC 108691;2-Hydroxy-benzo[<em>de</em>]isoquinoline-1,3-dione",
    "duplicated_cas_no": "",
    "SMILES": "O=C1C=2C=3C(C(=O)N1O)=CC=CC3C=CC2",
    "meta_data": {
        "InChI": "InChI=1S/C12H7NO3/c14-11-8-5-1-3-7-4-2-6-9(10(7)8)12(15)13(11)16/h1-6,16H",
        "InChIKey": null,
        "Canonical SMILES": "O=C1C=2C=CC=C3C=CC=C(C(=O)N1O)C32",
        "Molecular Formula": "C<sub>12</sub>H<sub>7</sub>NO<sub>3</sub>",
        "Molecular Mass": "213.19",
        "Melting Point": "284 °C"
    }
}