{
    "cas_no": "174899-82-2",
    "key_name": "1-Ethyl-3-methylimidazolium bis(trifluoromethylsulfonyl)imide",
    "cn_name": "1-乙基-3-甲基咪唑啉双(三氟甲基磺酰基)亚胺;1-乙基-3-甲基咪唑二(氟甲基磺酰)酰亚胺;",
    "alternate_name": "1<em>H</em>-Imidazolium, 3-ethyl-1-methyl-, salt with 1,1,1-trifluoro-<em>N</em>-[(trifluoromethyl)sulfonyl]methanesulfonamide (1:1);1<em>H</em>-Imidazolium, 1-ethyl-3-methyl-, salt with 1,1,1-trifluoro-<em>N</em>-[(trifluoromethyl)sulfonyl]methanesulfonamide (1:1);Methanesulfonamide, 1,1,1-trifluoro-<em>N</em>-[(trifluoromethyl)sulfonyl]-, ion(1-), 1-ethyl-3-methyl-1<em>H</em>-imidazolium;1-Ethyl-3-methylimidazolium bis(trifluoromethylsulfonyl)imide;1-Methyl-3-ethylimidazolium bis(trifluoromethylsulfonyl)imide;1-Ethyl-3-methyl-1<em>H</em>-imidazolium salt with 1,1,1-trifluoro-<em>N</em>-[(trifluoromethyl)sulfonyl]methanesulfonamide;1-Ethyl-3-methylimidazolium bis(triflyl)amide;1-Ethyl-3-methylimidazolium bistriflimide;1-Ethyl-3-methylimidazolium bis(trifluoromethanesulfonyl)imide;1-Ethyl-3-methylimidazolium triflimide;1-Ethyl-3-methyl-1<em>H</em>-imidazolium bis(trifluoromethylsulfonyl)imide;EMI-TFSI;Elexcel IL 210;3-Ethyl-1-methylimidazolium bis(trifluoromethanesulfonyl)imide;1-Ethyl-3-methyl-1<em>H</em>-imidazolium bis(trifluoromethanesulfonyl)imide;1-Ethyl-3-methylimidazolium bis[(trifluoromethyl)sulfonyl]amide;1-Ethyl-3-methyl-1-H-imidazolium bis(trifluoromethansulfonyl)imide;1-Ethyl-3-methylimidazolium bis(trifluoromethanesulfonimide) salt;1-Ethyl-3-methylimidazolium bis(trifluoromethanesylfonyl)imide(1-);1-Ethyl-3-methylimidizolium bis(trifluoromethane sulfonyl)imide;Ethylmethylimidazolium bis(trifluoromethanesulfonyl)imide;1-Ethyl-3-methylimidazolium bis(trifluoromethanesulfonyl)imide(1-);EMIm bis(trifluoromethanesulfonyl)amide;1-Ethyl-3-methylimidazolium bis(trifluoromethanesulfonimide);IL 210;1-Ethyl-3-methylimidazolium bis(trifluoromethylsulfonyl)imidate(1-);Basionics HP 01;1-Ethyl-3-methylimidazolium bis(trifluoromethanesulfone)imide;1-Ethyl-3-methylimidazolium bis(trifluoromethylsulfonyl)imide(1-);[C<sub>2</sub>Mim<sup>+</sup>][Tf<sub>2</sub>N<sup>-</sup>];[EMIM][TFSI];1-Ethyl-3-methylimidazolium bis(trifluorosulfonyl)imide;1-Ethyl-3-methylimidazolinium bis(trifluoromethylsulfonyl)imide;1-Ethyl-3-methylimidazolium bis(trifluoromethylsufonyl)imide;A 79426;1-Ethyl-3-methylimidazolium bis(trifluoromethylsulfonyl)amide;EMIN 111;CIL 612",
    "duplicated_cas_no": "387335-32-2;528892-06-0;551952-27-3;760197-26-0;1048670-28-5;1255933-47-1;1311389-49-7;1958816-33-5",
    "SMILES": "S([N-]S(C(F)(F)F)(=O)=O)(C(F)(F)F)(=O)=O.C(C)[N+]1=CN(C)C=C1",
    "meta_data": {
        "InChI": "InChI=1S/C6H11N2.C2F6NO4S2/c1-3-8-5-4-7(2)6-8;3-1(4,5)14(10,11)9-15(12,13)2(6,7)8/h4-6H,3H2,1-2H3;/q+1;-1",
        "InChIKey": null,
        "Canonical SMILES": "O=S(=O)([N-]S(=O)(=O)C(F)(F)F)C(F)(F)F.C1=C[N+](=CN1C)CC",
        "Molecular Formula": "C<sub>6</sub>H<sub>11</sub>N<sub>2</sub>.C<sub>2</sub>F<sub>6</sub>NO<sub>4</sub>S<sub>2</sub>",
        "Molecular Mass": "",
        "Boiling Point": "543.6 °C",
        "Melting Point": "-17 °C",
        "Density": "1.5 g/cm³"
    }
}