{
    "cas_no": "345627-80-7",
    "key_name": "<em>N</em>-[5-[[[5-(1,1-Dimethylethyl)-2-oxazolyl]methyl]thio]-2-thiazolyl]-4-piperidinecarboxamide",
    "cn_name": "N-[5-[(5-叔丁基-1,3-恶唑-2-基)甲硫基]-1,3-噻唑-2-基]哌啶-4-甲酰胺;",
    "alternate_name": "4-Piperidinecarboxamide, <em>N</em>-[5-[[[5-(1,1-dimethylethyl)-2-oxazolyl]methyl]thio]-2-thiazolyl]-;<em>N</em>-[5-[[[5-(1,1-Dimethylethyl)-2-oxazolyl]methyl]thio]-2-thiazolyl]-4-piperidinecarboxamide;BMS 387032;SNS 032;<em>N</em>-[5-[[(5-<em>tert</em>-Butyloxazol-2-yl)methyl]thio]thiazol-2-yl]piperidine-4-carboxamide",
    "duplicated_cas_no": "936487-64-8",
    "SMILES": "C(SC=1SC(NC(=O)C2CCNCC2)=NC1)C=3OC(C(C)(C)C)=CN3",
    "meta_data": {
        "InChI": "InChI=1S/C17H24N4O2S2/c1-17(2,3)12-8-19-13(23-12)10-24-14-9-20-16(25-14)21-15(22)11-4-6-18-7-5-11/h8-9,11,18H,4-7,10H2,1-3H3,(H,20,21,22)",
        "InChIKey": null,
        "Canonical SMILES": "O=C(NC1=NC=C(S1)SCC2=NC=C(O2)C(C)(C)C)C3CCNCC3",
        "Molecular Formula": "C<sub>17</sub>H<sub>24</sub>N<sub>4</sub>O<sub>2</sub>S<sub>2</sub>",
        "Molecular Mass": "380.53",
        "Melting Point": "171-173 °C"
    }
}