{
    "cas_no": "362-05-0",
    "key_name": "2-Hydroxyestradiol",
    "cn_name": "1-(3-甲基-2-吡啶基)-1,4-二氮杂庚烷;1,3,5(10)-雌甾三烯-2,3-17β-三醇;雌甾-1,3,5(10)-三烯2,3,17-三醇;",
    "alternate_name": "Estra-1,3,5(10)-triene-2,3,17-triol, (17β)-;Estra-1,3,5(10)-triene-2,3,17β-triol;(17β)-Estra-1,3,5(10)-triene-2,3,17-triol;2-Hydroxyestradiol;2,3,17β-Trihydroxyestra-1,3,5(10)-triene;NSC 61711",
    "duplicated_cas_no": "",
    "SMILES": "C[C@@]12[C@]([C@]3([C@@](C=4C(CC3)=CC(O)=C(O)C4)(CC1)[H])[H])(CC[C@@H]2O)[H]",
    "meta_data": {
        "InChI": "InChI=1S/C18H24O3/c1-18-7-6-11-12(14(18)4-5-17(18)21)3-2-10-8-15(19)16(20)9-13(10)11/h8-9,11-12,14,17,19-21H,2-7H2,1H3/t11-,12+,14-,17-,18-/m0/s1",
        "InChIKey": null,
        "Canonical SMILES": "OC=1C=C2C(=CC1O)C3CCC4(C)C(O)CCC4C3CC2",
        "Molecular Formula": "C<sub>18</sub>H<sub>24</sub>O<sub>3</sub>",
        "Molecular Mass": "288.38",
        "Melting Point": "161-162 °C"
    }
}