{
    "cas_no": "137-26-8",
    "key_name": "Tetramethylthiuram disulfide",
    "cn_name": "二硫化四甲基秋兰姆;橡胶促进剂TMTD;促进剂T;二硫化双(硫羰基二甲胺:N,N-四甲基二硫双硫羰胺;福美双;",
    "alternate_name": "Thioperoxydicarbonic diamide ([(H<sub>2</sub>N)C(S)]<sub>2</sub>S<sub>2</sub>), <em>N</em>,<em>N</em>,<em>N</em>′,<em>N</em>′-tetramethyl-;Disulfide, bis(dimethylthiocarbamoyl);Thioperoxydicarbonic diamide ([(H<sub>2</sub>N)C(S)]<sub>2</sub>S<sub>2</sub>), tetramethyl-;SQ 1489;Accelerator Thiuram;Aceto TETD;Arasan M;Arasan;Arasan-SF;Bis(dimethylthiocarbamoyl) disulfide;Bis(dimethylthiocarbamyl) disulfide;Fernasan;Fernasan A;Hermal;Heryl;Mercuram;Methyl Thiram;Normersan;Panoram 75;Pomarsol;Pomasol;Puralin;Rezifilm;Royal TMTD;Spotrete;Tersan;Tetramethylthiuram bisulfide;<em>N</em>,<em>N</em>,<em>N</em>′,<em>N</em>′-Tetramethylthiuram disulfide;Tetramethylthiuram disulphide;Tetramethylthiuram disulfide;Thiosan;Thiram;Thiram 75;Thiurad;Thiuram;Thiuram M;Thiuram disulfide, tetramethyl-;Thiuramyl;Tiuramyl;TMTD;TMTDS;Thylate;Tridipam;Tuads;Tulisan;Arasan 75;Fernide;Kregasan;Polyram ultra;Sadoplon;Tetrasipton;Thiulin;Tripomol;VUAgT-I-4;Thiuram D;Thiotox;Thillate;Arasan 42S;Thirasan;Arasan 70;Ekagom TB;Nobecutan;Vulcafor TMTD;Vulkacit Th;Sadoplon 75;Accelerator T;Trametan;Hexathir;Zaprawa Nasienna T;Aatiram;Thiram 80;Vulcafor TMT;Vulkacit thiuram;Hermat TMT;Thiram B;AApirol;Atiram;Falitiram;Formalsol;Thioscabin;Arasan 70-S Red;Tutan;Accel TMT;Tyradin;Tersan 75;Pol-Thiuram;TMT;TUEX;Tigam;Rhenogran TMTD;Metiurac;Nocceler TT;Rhodiauram;Thiotox (fungicide);Accelerant T;Ferna-Col;Methyl Tuads;Arasan 50 red;Radothiram;Radotiram;Thiride;Thiuram TMTD;Tetramethylthioperoxydicarbonic diamide;Zupa S 80;Betoxin;Robac TMT;Pomarsol Forte;Delsan;Basultra;Anles;Tiradin;Soxinol TT;Tirama;Sanceler TT;T 30;Metiur;Tirep;Emol;Cunitex;Tripomol 80;Vulkacit Thiuram C;SOX TT;Orac TMTD;NSC 1771;Vulkafil ZN 96TT09;Thiuramin;Vulkacit DTMT;Perkacit TMTD;Nomersan;ENT 987;NSC 49512;NSC 59637;NSC 622696;Vulkacit Thiuram TMTD;Thiuram MDP;Accel TT;Vulkazit Thiuram;TT;Vulkazam S;Vulkafil TMTD;Bis(dimethylaminothiocarbonyl) disulfide;Rhenogran TMTD 80;Granuflo;Oricel TT;Super Accelerator 501;Nocceler TT-P;Noxela TTP;Rhenogran TMTD 75;Preventol VPOC 3480;Chew-Nott;Bis(dimethylthiocarbamyl) sulfide;Vulkacit TMTD;Sanceler TT-PO;Nocceler TT-PO;Accelerator TT;TMTD-II;Accel TMT-PO;Rhenogran TMTD 70;TMTD 80;Nocceler TT-P(TT);Royal Flo;Thiram Granuflo 80WG;Accelerator TMTD;Accelerant TMTD;Thiram Granuflo;Seedon;M 05833;Nocceler TMTD;Thianosan;DIMACIT TMTD-PDR-D;SH 167432;Sanceler EM 2;Rhenogran TMTD/C",
    "duplicated_cas_no": "12680-07-8;12680-62-5;39456-80-9;56645-31-9;66173-72-6;92481-09-9;93196-73-7;200889-05-0;793709-88-3;1135443-08-1;2213445-87-3",
    "SMILES": "C(N(C)C)(SSC(N(C)C)=S)=S",
    "meta_data": {
        "InChI": "InChI=1S/C6H12N2S4/c1-7(2)5(9)11-12-6(10)8(3)4/h1-4H3",
        "InChIKey": null,
        "Canonical SMILES": "S=C(SSC(=S)N(C)C)N(C)C",
        "Molecular Formula": "C<sub>6</sub>H<sub>12</sub>N<sub>2</sub>S<sub>4</sub>",
        "Molecular Mass": "240.43",
        "Boiling Point": "129 °C @ Press: 20 Torr",
        "Melting Point": "155-156 °C",
        "Density": "1.29 g/cm³ @ Temp: 20 °C"
    }
}