{
    "cas_no": "162359-56-0",
    "key_name": "Fingolimod hydrochloride",
    "cn_name": "盐酸芬戈莫德;2-氨基-2-[2-(4-辛烷基苯基)乙基]-1,3-丙二醇盐酸盐;",
    "alternate_name": "1,3-Propanediol, 2-amino-2-[2-(4-octylphenyl)ethyl]-, hydrochloride (1:1);1,3-Propanediol, 2-amino-2-[2-(4-octylphenyl)ethyl]-, hydrochloride;FTY 720;Fingolimod hydrochloride;2-Amino-2-[2-(4-octylphenyl)ethyl]propane-1,3-diol hydrochloride;Gilenya;Imusera;2-Amino-[2-(4-octylphenyl)ethyl]-1,3-propanediol hydrochloride",
    "duplicated_cas_no": "",
    "SMILES": "C(CC(CO)(CO)N)C1=CC=C(CCCCCCCC)C=C1.Cl",
    "meta_data": {
        "InChI": "InChI=1S/C19H33NO2.ClH/c1-2-3-4-5-6-7-8-17-9-11-18(12-10-17)13-14-19(20,15-21)16-22;/h9-12,21-22H,2-8,13-16,20H2,1H3;1H",
        "InChIKey": null,
        "Canonical SMILES": "Cl.OCC(N)(CO)CCC1=CC=C(C=C1)CCCCCCCC",
        "Molecular Formula": "C<sub>19</sub>H<sub>33</sub>NO<sub>2</sub>.ClH",
        "Molecular Mass": "",
        "Melting Point": "107-108 °C"
    }
}