{
    "cas_no": "5505-72-6",
    "key_name": "2,4,6-Triethenyl-2,4,6-trimethylcyclotrisilazane",
    "cn_name": null,
    "alternate_name": "Cyclotrisilazane, 2,4,6-triethenyl-2,4,6-trimethyl-;Cyclotrisilazane, 2,4,6-trimethyl-2,4,6-trivinyl-;2,4,6-Triethenyl-2,4,6-trimethylcyclotrisilazane;2,4,6-Trimethyl-2,4,6-trivinylcyclotrisilazane;2,4,6-Triethenyl-2,4,6-trimethyl-1,3,5,2,4,6-triazatrisilinane;2,4,6-Tris(ethenyl)-2,4,6-trimethyl-1,3,5,2,4,6-triazatrisilinane;1,3,5-Trimethyl-1,3,5-trivinylcyclotrisilazane;1,3,5-Trivinyl-1,3,5-trimethylcyclotrisilazane",
    "duplicated_cas_no": "",
    "SMILES": "C(=C)[Si]1(C)N[Si](C=C)(C)N[Si](C=C)(C)N1",
    "meta_data": {
        "InChI": "InChI=1S/C9H21N3Si3/c1-7-13(4)10-14(5,8-2)12-15(6,9-3)11-13/h7-12H,1-3H2,4-6H3",
        "InChIKey": null,
        "Canonical SMILES": "C=C[Si]1(N[Si](C=C)(N[Si](C=C)(N1)C)C)C",
        "Molecular Formula": "C<sub>9</sub>H<sub>21</sub>N<sub>3</sub>Si<sub>3</sub>",
        "Molecular Mass": "255.54",
        "Boiling Point": "106-109 °C @ Press: 11 Torr",
        "Density": "0.939 g/cm³"
    }
}