{
    "cas_no": "36062-07-4",
    "key_name": "Octahydrocurcumin",
    "cn_name": null,
    "alternate_name": "3,5-Heptanediol, 1,7-bis(4-hydroxy-3-methoxyphenyl)-;1,7-Bis(4-hydroxy-3-methoxyphenyl)-3,5-heptanediol;Octahydrocurcumin;Hexahydrobisdemethoxycurcumin",
    "duplicated_cas_no": "",
    "SMILES": "C(CC(CC(CCC1=CC(OC)=C(O)C=C1)O)O)C2=CC(OC)=C(O)C=C2",
    "meta_data": {
        "InChI": "InChI=1S/C21H28O6/c1-26-20-11-14(5-9-18(20)24)3-7-16(22)13-17(23)8-4-15-6-10-19(25)21(12-15)27-2/h5-6,9-12,16-17,22-25H,3-4,7-8,13H2,1-2H3",
        "InChIKey": null,
        "Canonical SMILES": "OC1=CC=C(C=C1OC)CCC(O)CC(O)CCC2=CC=C(O)C(OC)=C2",
        "Molecular Formula": "C<sub>21</sub>H<sub>28</sub>O<sub>6</sub>",
        "Molecular Mass": "376.44",
        "Melting Point": "74-75 °C"
    }
}