{
    "cas_no": "15905-32-5",
    "key_name": "2′,4′,5′,7′-Tetraiodofluorescein",
    "cn_name": "樱桃红;四碘荧光素;赤藓红;食用色素红色3号;3,\"6\"-二羟基-2,\"4,\"5,\"7,\"-四碘螺[异苯并呋喃-1(3H),9\"-[9H]占;",
    "alternate_name": "Spiro[isobenzofuran-1(3<em>H</em>),9′-[9<em>H</em>]xanthen]-3-one, 3′,6′-dihydroxy-2′,4′,5′,7′-tetraiodo-;Fluorescein, 2′,4′,5′,7′-tetraiodo-;3′,6′-Dihydroxy-2′,4′,5′,7′-tetraiodospiro[isobenzofuran-1(3<em>H</em>),9′-[9<em>H</em>]xanthen]-3-one;2′,4′,5′,7′-Tetraiodofluorescein;Iodeosin;Tetraiodofluorescein;Erythrosine acid;Solvent Red 140;C.I. Solvent Red 140;C.I. 45430:2;NSC 328781;Erythrosine J;Erythrosin J;3′,6′-Dihydroxy-2′,4′,5′,7′-tetraiodospiro[2-benzofuran-3,9′-xanthene]-1-one",
    "duplicated_cas_no": "518-39-8;10557-31-0;19052-68-7;30495-83-1;66771-70-8;76823-15-9;83412-54-8;748740-60-5;875516-06-6;2209062-14-4",
    "SMILES": "O=C1OC2(C=3C(OC=4C2=CC(I)=C(O)C4I)=C(I)C(O)=C(I)C3)C=5C1=CC=CC5",
    "meta_data": {
        "InChI": "InChI=1S/C20H8I4O5/c21-11-5-9-17(13(23)15(11)25)28-18-10(6-12(22)16(26)14(18)24)20(9)8-4-2-1-3-7(8)19(27)29-20/h1-6,25-26H",
        "InChIKey": null,
        "Canonical SMILES": "O=C1OC2(C=3C=CC=CC13)C4=CC(I)=C(O)C(I)=C4OC5=C(I)C(O)=C(I)C=C52",
        "Molecular Formula": "C<sub>20</sub>H<sub>8</sub>I<sub>4</sub>O<sub>5</sub>",
        "Molecular Mass": "835.89",
        "Melting Point": "290-292 °C"
    }
}