{
    "cas_no": "81846-19-7",
    "key_name": "Treprostinil",
    "cn_name": "曲前列尼尔;",
    "alternate_name": "Acetic acid, 2-[[(1<em>R</em>,2<em>R</em>,3a<em>S</em>,9a<em>S</em>)-2,3,3a,4,9,9a-hexahydro-2-hydroxy-1-[(3<em>S</em>)-3-hydroxyoctyl]-1<em>H</em>-benz[<em>f</em>]inden-5-yl]oxy]-;Acetic acid, [[2,3,3a,4,9,9a-hexahydro-2-hydroxy-1-(3-hydroxyoctyl)-1<em>H</em>-benz[<em>f</em>]inden-5-yl]oxy]-, [1<em>R</em>-[1α(<em>S</em>*),2β,3aα,9aα]]-;Acetic acid, [[(1<em>R</em>,2<em>R</em>,3a<em>S</em>,9a<em>S</em>)-2,3,3a,4,9,9a-hexahydro-2-hydroxy-1-[(3<em>S</em>)-3-hydroxyoctyl]-1<em>H</em>-benz[<em>f</em>]inden-5-yl]oxy]-;1<em>H</em>-Benz[<em>f</em>]indene, acetic acid deriv.;2-[[(1<em>R</em>,2<em>R</em>,3a<em>S</em>,9a<em>S</em>)-2,3,3a,4,9,9a-Hexahydro-2-hydroxy-1-[(3<em>S</em>)-3-hydroxyoctyl]-1<em>H</em>-benz[<em>f</em>]inden-5-yl]oxy]acetic acid;U 62840;15AU81;LRX 15;Treprostinil;Uniprost;BW 15AU;Rumodolin;2-[[(1R,2R,3<em>a</em>S,9<em>a</em>S)-2-Hydroxy-1-((<em>S</em>)-3-hydroxyoctyl)-2,3,3a,4,9,9a-hexahydro-1<em>H</em>-cyclopenta[<em>b</em>]naphthalen-5-yl]oxy]acetic acid;Trevyent;Orenitram",
    "duplicated_cas_no": "1162106-72-0",
    "SMILES": "C(C[C@H](CCCCC)O)[C@@H]1[C@@]2([C@@](CC=3C(C2)=CC=CC3OCC(O)=O)(C[C@H]1O)[H])[H]",
    "meta_data": {
        "InChI": "InChI=1S/C23H34O5/c1-2-3-4-7-17(24)9-10-18-19-11-15-6-5-8-22(28-14-23(26)27)20(15)12-16(19)13-21(18)25/h5-6,8,16-19,21,24-25H,2-4,7,9-14H2,1H3,(H,26,27)/t16-,17-,18+,19-,21+/m0/s1",
        "InChIKey": null,
        "Canonical SMILES": "O=C(O)COC1=CC=CC2=C1CC3CC(O)C(CCC(O)CCCCC)C3C2",
        "Molecular Formula": "C<sub>23</sub>H<sub>34</sub>O<sub>5</sub>",
        "Molecular Mass": "390.51",
        "Melting Point": "126-127 °C"
    }
}