{
    "cas_no": "42454-06-8",
    "key_name": "5-Hydroxy-2-nitrobenzaldehyde",
    "cn_name": "5-羟基-2-硝基苯甲醛;",
    "alternate_name": "Benzaldehyde, 5-hydroxy-2-nitro-;5-Hydroxy-2-nitrobenzaldehyde;2-Nitro-5-hydroxybenzaldehyde;3-Formyl-4-nitrophenol;NSC 93899;3-Hydroxy-6-nitrobenzaldehyde",
    "duplicated_cas_no": "",
    "SMILES": "C(=O)C1=C(N(=O)=O)C=CC(O)=C1",
    "meta_data": {
        "InChI": "InChI=1S/C7H5NO4/c9-4-5-3-6(10)1-2-7(5)8(11)12/h1-4,10H",
        "InChIKey": null,
        "Canonical SMILES": "O=CC1=CC(O)=CC=C1N(=O)=O",
        "Molecular Formula": "C<sub>7</sub>H<sub>5</sub>NO<sub>4</sub>",
        "Molecular Mass": "167.12",
        "Melting Point": "167 °C"
    }
}