{
    "cas_no": "85-19-8",
    "key_name": "Benzophenone 7",
    "cn_name": "2-羟基-5-氯二苯甲酮;",
    "alternate_name": "Methanone, (5-chloro-2-hydroxyphenyl)phenyl-;Benzophenone, 5-chloro-2-hydroxy-;(5-Chloro-2-hydroxyphenyl)phenylmethanone;2-Hydroxy-5-chlorobenzophenone;3-Chloro-6-hydroxybenzophenone;5-Chloro-2-hydroxybenzophenone;DOW HCB;UV Absorber NL/5;2-Benzoyl-4-chlorophenol;Ch 11;Benzophenone 7;NSC 33407;(2-Hydroxy-5-chlorophenyl)phenylmethanone",
    "duplicated_cas_no": "",
    "SMILES": "C(=O)(C1=C(O)C=CC(Cl)=C1)C2=CC=CC=C2",
    "meta_data": {
        "InChI": "InChI=1S/C13H9ClO2/c14-10-6-7-12(15)11(8-10)13(16)9-4-2-1-3-5-9/h1-8,15H",
        "InChIKey": null,
        "Canonical SMILES": "O=C(C=1C=CC=CC1)C2=CC(Cl)=CC=C2O",
        "Molecular Formula": "C<sub>13</sub>H<sub>9</sub>ClO<sub>2</sub>",
        "Molecular Mass": "232.66",
        "Boiling Point": "147-149 °C @ Press: 0.3 Torr",
        "Melting Point": "93-95 °C"
    }
}