{
    "cas_no": "614-96-0",
    "key_name": "5-Methylindole",
    "cn_name": "5-甲基吲哚;",
    "alternate_name": "1<em>H</em>-Indole, 5-methyl-;Indole, 5-methyl-;5-Methyl-1<em>H</em>-indole;5-Methylindole;5-Methylindol;NSC 522562",
    "duplicated_cas_no": "",
    "SMILES": "CC=1C=C2C(=CC1)NC=C2",
    "meta_data": {
        "InChI": "InChI=1S/C9H9N/c1-7-2-3-9-8(6-7)4-5-10-9/h2-6,10H,1H3",
        "InChIKey": null,
        "Canonical SMILES": "C1=CC=2C=C(C=CC2N1)C",
        "Molecular Formula": "C<sub>9</sub>H<sub>9</sub>N",
        "Molecular Mass": "131.17",
        "Boiling Point": "267 °C",
        "Melting Point": "60 °C"
    }
}