{
    "cas_no": "10326-41-7",
    "key_name": "<span class=\"text-smallcaps\">D</span>-Lactic acid",
    "cn_name": "D-乳酸;(R)-乳酸;D-2-羟基丙酸;",
    "alternate_name": "Propanoic acid, 2-hydroxy-, (2<em>R</em>)-;Lactic acid, <span class=\"text-smallcaps\">D</span>-;Propanoic acid, 2-hydroxy-, (<em>R</em>)-;(2<em>R</em>)-2-Hydroxypropanoic acid;<span class=\"text-smallcaps\">D</span>-Lactic acid;<span class=\"text-smallcaps\">D</span>-(-)-Lactic acid;(<em>R</em>)-Lactic acid;<em>l</em>-Lactic acid;(<em>R</em>)-α-Hydroxypropionic acid;(-)-Lactic acid;(<em>R</em>)-(-)-Lactic acid;(<em>R</em>)-2-Hydroxypropanoic acid;(<em>R</em>)-2-Hydroxypropionic acid;(2R)-2-Hydroxypropanoic acid;(R)-2-Hydroxy-propionic acid;2<em>R</em>-Hydroxypropionic acid",
    "duplicated_cas_no": "",
    "SMILES": "[C@H](C(O)=O)(C)O",
    "meta_data": {
        "InChI": "InChI=1S/C3H6O3/c1-2(4)3(5)6/h2,4H,1H3,(H,5,6)/t2-/m1/s1",
        "InChIKey": null,
        "Canonical SMILES": "O=C(O)C(O)C",
        "Molecular Formula": "C<sub>3</sub>H<sub>6</sub>O<sub>3</sub>",
        "Molecular Mass": "90.08",
        "Melting Point": "52.8 °C",
        "Density": "1.24 g/cm³"
    }
}