{
    "cas_no": "834-12-8",
    "key_name": "Ametryn",
    "cn_name": "莠灭净;2-甲硫基-4-乙氨基-6-异丙氨基-1,3,5-三嗪;",
    "alternate_name": "1,3,5-Triazine-2,4-diamine, <em>N</em><sup>2</sup>-ethyl-<em>N</em><sup>4</sup>-(1-methylethyl)-6-(methylthio)-;<em>s</em>-Triazine, 2-(ethylamino)-4-(isopropylamino)-6-(methylthio)-;1,3,5-Triazine-2,4-diamine, <em>N</em>-ethyl-<em>N</em>′-(1-methylethyl)-6-(methylthio)-;<em>N</em><sup>2</sup>-Ethyl-<em>N</em><sup>4</sup>-(1-methylethyl)-6-(methylthio)-1,3,5-triazine-2,4-diamine;A 1093;G 34162;Ametryne;2-Ethylamino-4-isopropylamino-6-methylmercapto-<em>s</em>-triazine;2-Ethylamino-4-isopropylamino-6-methylthio-<em>s</em>-triazine;2-Methylmercapto-4-ethylamino-6-isopropylamino-<em>s</em>-triazine;2-Methylthio-4-ethylamino-6-isopropylamino-<em>s</em>-triazine;Gesapax;Evik;Ametryn;2-Ethylamino-4-isopropylamino-6-methylthio-1,3,5-triazine;Cemerin;Primatol Z 80;2-Ethylamino-4-methylthio-6-isopropylamino-1,3,5-triazine;2-Methylthio-4-ethylamino-6-isopropylamino-<em>sym</em>-triazine;Ametrex;NSC 163044;Doruplant;Amephyt;<em>N</em>-Ethyl-<em>N</em>′-(1-methylethyl)-6-(methylthio)-1,3,5-triazine-2,4-diamine;Metrimex 500SC;2-<em>N</em>-Ethyl-6-(methylsulfanyl)-4-<em>N</em>-(propan-2-yl)-1,3,5-triazine-2,4-diamine",
    "duplicated_cas_no": "",
    "SMILES": "N(C(C)C)C=1N=C(NCC)N=C(SC)N1",
    "meta_data": {
        "InChI": "InChI=1S/C9H17N5S/c1-5-10-7-12-8(11-6(2)3)14-9(13-7)15-4/h6H,5H2,1-4H3,(H2,10,11,12,13,14)",
        "InChIKey": null,
        "Canonical SMILES": "N=1C(=NC(=NC1NCC)NC(C)C)SC",
        "Molecular Formula": "C<sub>9</sub>H<sub>17</sub>N<sub>5</sub>S",
        "Molecular Mass": "227.33",
        "Boiling Point": "345 °C",
        "Melting Point": "88-89 °C",
        "Density": "1.190 g/cm³ @ Temp: 20 °C"
    }
}