{
    "cas_no": "12136-78-6",
    "key_name": "Molybdenum silicide (MoSi<sub>2</sub>)",
    "cn_name": null,
    "alternate_name": "Molybdenum silicide (MoSi<sub>2</sub>);Molybdenum disilicide (MoSi<sub>2</sub>);Molybdenum disilicide;MS (silicide);MS;GMY 180-17;CW-MoSi2-002;CW-MoSi 2-002",
    "duplicated_cas_no": "153977-13-0;261509-17-5;610785-17-6;1009807-62-8;1366372-99-7;2100875-59-8;2414423-73-5;2578907-19-2;3035583-78-6",
    "SMILES": "",
    "meta_data": {
        "InChI": "",
        "InChIKey": null,
        "Canonical SMILES": "",
        "Molecular Formula": "MoSi<sub>2</sub>",
        "Molecular Mass": "",
        "Melting Point": "~1930 °C (approx)",
        "Density": "6.31 g/cm³"
    }
}