{
    "cas_no": "56725-99-6",
    "key_name": "Icariside I",
    "cn_name": null,
    "alternate_name": "4<em>H</em>-1-Benzopyran-4-one, 7-(β-<span class=\"text-smallcaps\">D</span>-glucopyranosyloxy)-3,5-dihydroxy-2-(4-methoxyphenyl)-8-(3-methyl-2-buten-1-yl)-;4<em>H</em>-1-Benzopyran-4-one, 7-(β-<span class=\"text-smallcaps\">D</span>-glucopyranosyloxy)-3,5-dihydroxy-2-(4-methoxyphenyl)-8-(3-methyl-2-butenyl)-;7-(β-<span class=\"text-smallcaps\">D</span>-Glucopyranosyloxy)-3,5-dihydroxy-2-(4-methoxyphenyl)-8-(3-methyl-2-buten-1-yl)-4<em>H</em>-1-benzopyran-4-one;Icarisid I;Icariside I;Icariin I;GH 01",
    "duplicated_cas_no": "195537-25-8",
    "SMILES": "C(C=C(C)C)C1=C2C(C(=O)C(O)=C(O2)C3=CC=C(OC)C=C3)=C(O)C=C1O[C@@H]4O[C@H](CO)[C@@H](O)[C@H](O)[C@H]4O",
    "meta_data": {
        "InChI": "InChI=1S/C27H30O11/c1-12(2)4-9-15-17(36-27-24(34)22(32)20(30)18(11-28)37-27)10-16(29)19-21(31)23(33)25(38-26(15)19)13-5-7-14(35-3)8-6-13/h4-8,10,18,20,22,24,27-30,32-34H,9,11H2,1-3H3/t18-,20-,22+,24-,27-/m1/s1",
        "InChIKey": null,
        "Canonical SMILES": "O=C1C(O)=C(OC=2C1=C(O)C=C(OC3OC(CO)C(O)C(O)C3O)C2CC=C(C)C)C=4C=CC(OC)=CC4",
        "Molecular Formula": "C<sub>27</sub>H<sub>30</sub>O<sub>11</sub>",
        "Molecular Mass": "530.52",
        "Melting Point": "259-260 °C"
    }
}