{
    "cas_no": "21112-37-8",
    "key_name": "2-<em>tert</em>-Butyl-1,4-dimethoxybenzene",
    "cn_name": null,
    "alternate_name": "Benzene, 2-(1,1-dimethylethyl)-1,4-dimethoxy-;Benzene, 2-<em>tert</em>-butyl-1,4-dimethoxy-;2-(1,1-Dimethylethyl)-1,4-dimethoxybenzene;Mono-<em>tert</em>-butylhydroquinone dimethyl ether;Compound 77B;1,4-Dimethoxy-2-<em>tert</em>-butylbenzene;2-<em>tert</em>-Butyl-1,4-dimethoxybenzene;Vetimoss;1,4-Dimethoxy-<em>2</em>-<em>t</em>-butylbenzene;1-<em>tert</em>-Butyl-2,5-dimethoxybenzene",
    "duplicated_cas_no": "",
    "SMILES": "C(C)(C)(C)C1=C(OC)C=CC(OC)=C1",
    "meta_data": {
        "InChI": "InChI=1S/C12H18O2/c1-12(2,3)10-8-9(13-4)6-7-11(10)14-5/h6-8H,1-5H3",
        "InChIKey": null,
        "Canonical SMILES": "O(C1=CC=C(OC)C(=C1)C(C)(C)C)C",
        "Molecular Formula": "C<sub>12</sub>H<sub>18</sub>O<sub>2</sub>",
        "Molecular Mass": "194.27",
        "Boiling Point": "117-118 °C @ Press: 12 Torr",
        "Melting Point": "70-70.5 °C",
        "Density": "0.9978 g/cm³ @ Temp: 15 °C"
    }
}