{
    "cas_no": "615-77-0",
    "key_name": "1-Methyluracil",
    "cn_name": "1-甲基尿嘧啶;",
    "alternate_name": "2,4(1<em>H</em>,3<em>H</em>)-Pyrimidinedione, 1-methyl-;Uracil, 1-methyl-;1-Methyl-2,4(1<em>H</em>,3<em>H</em>)-pyrimidinedione;1-Methyluracil;<em>N</em><sup>1</sup>-Methyluracil;NSC 44432;Pseudothymine;1-Methyl-1<em>H</em>,3<em>H</em>-pyrimidine-2,4-dione;1-Methylpyrimidine-2,4-dione;1-Methyl-1,2,3,4-tetrahydropyrimidine-2,4-dione",
    "duplicated_cas_no": "171895-78-6",
    "SMILES": "O=C1N(C)C=CC(=O)N1",
    "meta_data": {
        "InChI": "InChI=1S/C5H6N2O2/c1-7-3-2-4(8)6-5(7)9/h2-3H,1H3,(H,6,8,9)",
        "InChIKey": null,
        "Canonical SMILES": "O=C1C=CN(C(=O)N1)C",
        "Molecular Formula": "C<sub>5</sub>H<sub>6</sub>N<sub>2</sub>O<sub>2</sub>",
        "Molecular Mass": "126.11",
        "Melting Point": "237 °C"
    }
}