{
    "cas_no": "706-07-0",
    "key_name": "1-Chloro-4-(2-nitroethenyl)benzene",
    "cn_name": "1-(4-氯苯基)-2-硝基乙烯;4-氯-beta-硝基苯乙烯;",
    "alternate_name": "Benzene, 1-chloro-4-(2-nitroethenyl)-;Styrene, <em>p</em>-chloro-β-nitro-;1-Chloro-4-(2-nitroethenyl)benzene;<em>p</em>-Chloro-β-nitrostyrene;4-Chloro-β-nitrostyrene;4-Chloro-ω-nitrostyrene;1-(<em>p</em>-Chlorophenyl)-2-nitroethene;NSC 2547;1-(2-Nitrovinyl)-4-chlorobenzene;2-(4-Chlorophenyl)-1-nitroethene;1-(4-Chlorophenyl)-2-nitroethene;1-Chloro-4-(2-nitrovinyl)benzene;1-Nitro-2-(4-chlorophenyl)ethylene;4-Chloromethyl-β-nitrostyrene",
    "duplicated_cas_no": "",
    "SMILES": "C(=CN(=O)=O)C1=CC=C(Cl)C=C1",
    "meta_data": {
        "InChI": "InChI=1S/C8H6ClNO2/c9-8-3-1-7(2-4-8)5-6-10(11)12/h1-6H",
        "InChIKey": null,
        "Canonical SMILES": "O=N(=O)C=CC1=CC=C(Cl)C=C1",
        "Molecular Formula": "C<sub>8</sub>H<sub>6</sub>ClNO<sub>2</sub>",
        "Molecular Mass": "183.59",
        "Melting Point": "111-112 °C"
    }
}