{
    "cas_no": "1195-08-0",
    "key_name": "5-Formyluracil",
    "cn_name": "5-甲酰基尿嘧啶;",
    "alternate_name": "5-Pyrimidinecarboxaldehyde, 1,2,3,4-tetrahydro-2,4-dioxo-;1,2,3,4-Tetrahydro-2,4-dioxo-5-pyrimidinecarboxaldehyde;5-Formyluracil;2,4(1<em>H</em>,3<em>H</em>)-Pyrimidinedione, 5-formyl-;2,4-Dioxo-1,2,3,4-tetrahydropyrimidine-5-carboxaldehyde;NSC 197200;NSC 241524;Immureg;2,4-Dihydroxy-5-formylpyrimidine;2,4-Dihydroxy-pyrimidine-5-carbaldehyde;2,4-Dioxo-1<em>H</em>-pyrimidine-5-carbaldehyde;2,4-Dioxo-1,2,3,4-tetrahydropyrimidine-5-carbaldehyde;2,4-Dihydroxypyrimidine-5-carbaldehyde",
    "duplicated_cas_no": "",
    "SMILES": "C(=O)C=1C(=O)NC(=O)NC1",
    "meta_data": {
        "InChI": "InChI=1S/C5H4N2O3/c8-2-3-1-6-5(10)7-4(3)9/h1-2H,(H2,6,7,9,10)",
        "InChIKey": null,
        "Canonical SMILES": "O=CC1=CNC(=O)NC1=O",
        "Molecular Formula": "C<sub>5</sub>H<sub>4</sub>N<sub>2</sub>O<sub>3</sub>",
        "Molecular Mass": "140.10",
        "Melting Point": "&gt;300 °C"
    }
}