{
    "cas_no": "6426-43-3",
    "key_name": "Taraxasteryl acetate",
    "cn_name": null,
    "alternate_name": "Urs-20(30)-en-3-ol, 3-acetate, (3β,18α,19α)-;Urs-20(30)-en-3-ol, acetate, (3β,18α,19α)-;Taraxasterol acetate;Pyrethrol, acetate;Taraxasteryl acetate;Saussurol acetate;Isolactucerol acetate;NSC 401400;3β-Acetoxy-20-methylenetaraxastane;20-Methylenetaraxastan-3β-yl acetate;20-Methylenetaraxastan-3β-ol acetate",
    "duplicated_cas_no": "7469-71-8;13956-74-6",
    "SMILES": "C[C@]12[C@@]3(C)[C@@]([C@@]4([C@@](C)(CC3)CCC(=C)[C@H]4C)[H])(CC[C@@]1([C@]5(C)[C@@](CC2)(C(C)(C)[C@@H](OC(C)=O)CC5)[H])[H])[H]",
    "meta_data": {
        "InChI": "InChI=1S/C32H52O2/c1-20-12-15-29(6)18-19-31(8)23(27(29)21(20)2)10-11-25-30(7)16-14-26(34-22(3)33)28(4,5)24(30)13-17-32(25,31)9/h21,23-27H,1,10-19H2,2-9H3/t21-,23-,24+,25-,26+,27-,29-,30+,31-,32-/m1/s1",
        "InChIKey": null,
        "Canonical SMILES": "O=C(OC1CCC2(C)C(CCC3(C)C2CCC4C5C(C(=C)CCC5(C)CCC43C)C)C1(C)C)C",
        "Molecular Formula": "C<sub>32</sub>H<sub>52</sub>O<sub>2</sub>",
        "Molecular Mass": "468.75",
        "Melting Point": "251-252 °C"
    }
}