{
    "cas_no": "5773-80-8",
    "key_name": "6-Bromo-2-naphthalenecarboxylic acid",
    "cn_name": "6-溴-2-萘甲酸;",
    "alternate_name": "2-Naphthalenecarboxylic acid, 6-bromo-;2-Naphthoic acid, 6-bromo-;6-Bromo-2-naphthalenecarboxylic acid;6-Bromo-2-naphthoic acid;6-Bromo-2-naphthylacetic acid;2-Bromo-6-naphthoic acid",
    "duplicated_cas_no": "",
    "SMILES": "C(O)(=O)C1=CC2=C(C=C(Br)C=C2)C=C1",
    "meta_data": {
        "InChI": "InChI=1S/C11H7BrO2/c12-10-4-3-7-5-9(11(13)14)2-1-8(7)6-10/h1-6H,(H,13,14)",
        "InChIKey": null,
        "Canonical SMILES": "O=C(O)C1=CC=C2C=C(Br)C=CC2=C1",
        "Molecular Formula": "C<sub>11</sub>H<sub>7</sub>BrO<sub>2</sub>",
        "Molecular Mass": "251.08",
        "Melting Point": "286 °C"
    }
}