{
    "cas_no": "644-21-3",
    "key_name": "1-Ethyl-1-phenylhydrazine",
    "cn_name": "1-乙基-1-苯肼;N-乙基-N-苯肼;",
    "alternate_name": "Hydrazine, 1-ethyl-1-phenyl-;1-Ethyl-1-phenylhydrazine;1-Phenyl-1-ethylhydrazine;<em>N</em>-Ethyl-<em>N</em>-phenylhydrazine",
    "duplicated_cas_no": "",
    "SMILES": "N(CC)(N)C1=CC=CC=C1",
    "meta_data": {
        "InChI": "InChI=1S/C8H12N2/c1-2-10(9)8-6-4-3-5-7-8/h3-7H,2,9H2,1H3",
        "InChIKey": null,
        "Canonical SMILES": "NN(C=1C=CC=CC1)CC",
        "Molecular Formula": "C<sub>8</sub>H<sub>12</sub>N<sub>2</sub>",
        "Molecular Mass": "136.19",
        "Boiling Point": "237 °C"
    }
}