{
    "cas_no": "75-19-4",
    "key_name": "Cyclopropane",
    "cn_name": null,
    "alternate_name": "Cyclopropane;Trimethylene;Trimethylene (cyclic);RC 270;RC 0270",
    "duplicated_cas_no": "151821-32-8",
    "SMILES": "C1CC1",
    "meta_data": {
        "InChI": "InChI=1S/C3H6/c1-2-3-1/h1-3H2",
        "InChIKey": null,
        "Canonical SMILES": "C1CC1",
        "Molecular Formula": "C<sub>3</sub>H<sub>6</sub>",
        "Molecular Mass": "42.08",
        "Boiling Point": "-32.8 °C @ Press: 760 Torr",
        "Melting Point": "-127.4 °C",
        "Density": "1.1358 g/cm³ @ Temp: 20 °C"
    }
}