{
    "cas_no": "41093-60-1",
    "key_name": "Steviolbioside",
    "cn_name": "甜菊双糖甙;",
    "alternate_name": "Kaur-16-en-18-oic acid, 13-[(2-<em>O</em>-β-<span class=\"text-smallcaps\">D</smallcap>-glucopyranosyl-β-<smallcap>D</span>-glucopyranosyl)oxy]-, (4α)-;(4α)-13-[(2-<em>O</em>-β-<span class=\"text-smallcaps\">D</smallcap>-Glucopyranosyl-β-<smallcap>D</span>-glucopyranosyl)oxy]kaur-16-en-18-oic acid;Steviolbioside;Steviobioside;Steviol-1,2-Bioside",
    "duplicated_cas_no": "478614-28-7;2734910-62-2;2974441-66-0",
    "SMILES": "C[C@]12[C@]3([C@]4(C[C@](O[C@H]5[C@H](O[C@@H]6O[C@H](CO)[C@@H](O)[C@H](O)[C@H]6O)[C@@H](O)[C@H](O)[C@@H](CO)O5)(C(=C)C4)CC3)CC[C@@]1([C@@](C(O)=O)(C)CCC2)[H])[H]",
    "meta_data": {
        "InChI": "InChI=1S/C32H50O13/c1-15-11-31-9-5-18-29(2,7-4-8-30(18,3)28(40)41)19(31)6-10-32(15,14-31)45-27-25(23(38)21(36)17(13-34)43-27)44-26-24(39)22(37)20(35)16(12-33)42-26/h16-27,33-39H,1,4-14H2,2-3H3,(H,40,41)/t16-,17-,18+,19+,20-,21-,22+,23+,24-,25-,26+,27+,29-,30-,31-,32+/m1/s1",
        "InChIKey": null,
        "Canonical SMILES": "O=C(O)C1(C)CCCC2(C)C1CCC34CC(=C)C(OC5OC(CO)C(O)C(O)C5OC6OC(CO)C(O)C(O)C6O)(CCC32)C4",
        "Molecular Formula": "C<sub>32</sub>H<sub>50</sub>O<sub>13</sub>",
        "Molecular Mass": "642.73",
        "Melting Point": "188-192 °C"
    }
}