{
    "cas_no": "1620-14-0",
    "key_name": "1-(Diethylamino)-2-propanone",
    "cn_name": "二乙基氨基丙酮;二乙胺基丙酮;",
    "alternate_name": "2-Propanone, 1-(diethylamino)-;2-Propanone, (diethylamino)-;1-(Diethylamino)-2-propanone;(Diethylamino)acetone;NSC 61985;1-(<em>N</em>,<em>N</em>-Diethylamino)-propan-2-one",
    "duplicated_cas_no": "",
    "SMILES": "N(CC(C)=O)(CC)CC",
    "meta_data": {
        "InChI": "InChI=1S/C7H15NO/c1-4-8(5-2)6-7(3)9/h4-6H2,1-3H3",
        "InChIKey": null,
        "Canonical SMILES": "O=C(C)CN(CC)CC",
        "Molecular Formula": "C<sub>7</sub>H<sub>15</sub>NO",
        "Molecular Mass": "129.20",
        "Boiling Point": "69.6 °C",
        "Density": "0.8620 g/cm³"
    }
}