{
    "cas_no": "63335-24-0",
    "key_name": "Malabaricone B",
    "cn_name": null,
    "alternate_name": "1-Nonanone, 1-(2,6-dihydroxyphenyl)-9-(4-hydroxyphenyl)-;1-(2,6-Dihydroxyphenyl)-9-(4-hydroxyphenyl)-1-nonanone;Malabaricone B;NSC 287967;NSC 630196",
    "duplicated_cas_no": "",
    "SMILES": "C(CCCCCCCCC1=CC=C(O)C=C1)(=O)C2=C(O)C=CC=C2O",
    "meta_data": {
        "InChI": "InChI=1S/C21H26O4/c22-17-14-12-16(13-15-17)8-5-3-1-2-4-6-9-18(23)21-19(24)10-7-11-20(21)25/h7,10-15,22,24-25H,1-6,8-9H2",
        "InChIKey": null,
        "Canonical SMILES": "O=C(C=1C(O)=CC=CC1O)CCCCCCCCC2=CC=C(O)C=C2",
        "Molecular Formula": "C<sub>21</sub>H<sub>26</sub>O<sub>4</sub>",
        "Molecular Mass": "342.43",
        "Melting Point": "100-102 °C"
    }
}