{
    "cas_no": "948-60-7",
    "key_name": "Pterin-6-carboxylic acid",
    "cn_name": "蝶呤-6-羧酸;2-氨基-1,4-二氢-4-氧代蝶啶-6-羧酸;",
    "alternate_name": "6-Pteridinecarboxylic acid, 2-amino-3,4-dihydro-4-oxo-;6-Pteridinecarboxylic acid, 2-amino-1,4-dihydro-4-oxo-;6-Pteridinecarboxylic acid, 2-amino-4-hydroxy-;2-Amino-3,4-dihydro-4-oxo-6-pteridinecarboxylic acid;2-Amino-4-hydroxy-6-carboxypteridine;2-Amino-4-hydroxypteridine-6-carboxylic acid;Ranachrome 5;Pterin-6-carboxylic acid;2-Amino-6-carboxy-4-hydroxypteridine;6-Carboxypterin;2-Amino-4-hydroxypterin-6-carboxylic acid;NSC 96893;2-Imino-4-oxo-1,2,3,4-tetrahydropteridine-6-carboxylic acid;2-Amino-4-oxo-4,8-dihydropteridine-6-carboxylic acid;2-Amino-4-oxo-3,4-dihydropteridine-6-carboxylic acid;2-Amino-4-oxo-1,4-dihydropteridine-6-carboxylic acid",
    "duplicated_cas_no": "1501-50-4;30205-79-9",
    "SMILES": "O=C1C=2C(NC=C(C(O)=O)N2)=NC(N)=N1",
    "meta_data": {
        "InChI": "InChI=1S/C7H5N5O3/c8-7-11-4-3(5(13)12-7)10-2(1-9-4)6(14)15/h1H,(H,14,15)(H3,8,9,11,12,13)",
        "InChIKey": null,
        "Canonical SMILES": "O=C(O)C=1N=C2C(=O)N=C(N=C2NC1)N",
        "Molecular Formula": "C<sub>7</sub>H<sub>5</sub>N<sub>5</sub>O<sub>3</sub>",
        "Molecular Mass": "207.15",
        "Melting Point": "~300 °C (decomp) (approx)"
    }
}