{
    "cas_no": "153556-42-4",
    "key_name": "4-Bromo-3-fluorobenzoic acid",
    "cn_name": "4-溴-3-氟苯甲酸;",
    "alternate_name": "Benzoic acid, 4-bromo-3-fluoro-;4-Bromo-3-fluorobenzoic acid;3-Fluoro-4-bromobenzoic acid",
    "duplicated_cas_no": "",
    "SMILES": "C(O)(=O)C1=CC(F)=C(Br)C=C1",
    "meta_data": {
        "InChI": "InChI=1S/C7H4BrFO2/c8-5-2-1-4(7(10)11)3-6(5)9/h1-3H,(H,10,11)",
        "InChIKey": null,
        "Canonical SMILES": "O=C(O)C1=CC=C(Br)C(F)=C1",
        "Molecular Formula": "C<sub>7</sub>H<sub>4</sub>BrFO<sub>2</sub>",
        "Molecular Mass": "219.01",
        "Melting Point": "190-192 °C"
    }
}