{
    "cas_no": "35935-34-3",
    "key_name": "1<em>H</em>-Imidazolium, 3-ethyl-1-methyl-, iodide (1:1)",
    "cn_name": "1-乙基-3-甲基碘化咪唑鎓;",
    "alternate_name": "1<em>H</em>-Imidazolium, 3-ethyl-1-methyl-, iodide (1:1);1<em>H</em>-Imidazolium, 1-ethyl-3-methyl-, iodide;1-Methylimidazole ethiodide;1-Ethylimidazole methiodide;1-Ethyl-3-methylimidazolium iodide;1-Methyl-3-ethylimidazolium iodide;1-Ethyl-1<em>H</em>-3-methylimidazolium iodide",
    "duplicated_cas_no": "",
    "SMILES": "C(C)[N+]1=CN(C)C=C1.[I-]",
    "meta_data": {
        "InChI": "InChI=1S/C6H11N2.HI/c1-3-8-5-4-7(2)6-8;/h4-6H,3H2,1-2H3;1H/q+1;/p-1",
        "InChIKey": null,
        "Canonical SMILES": "[I-].C1=C[N+](=CN1C)CC",
        "Molecular Formula": "C<sub>6</sub>H<sub>11</sub>N<sub>2</sub>.I",
        "Molecular Mass": "",
        "Melting Point": "80-82 °C"
    }
}