{
    "cas_no": "111296-91-4",
    "key_name": "5,12-Dihydroindolo[3,2-<em>a</em>]carbazole",
    "cn_name": null,
    "alternate_name": "Indolo[3,2-<em>a</em>]carbazole, 5,12-dihydro-;5,12-Dihydroindolo[3,2-<em>a</em>]carbazole",
    "duplicated_cas_no": "2070002-02-5",
    "SMILES": "C=12C3=C(C=4C(N3)=CC=CC4)C=CC1NC=5C2=CC=CC5",
    "meta_data": {
        "InChI": "InChI=1S/C18H12N2/c1-3-7-14-11(5-1)12-9-10-16-17(18(12)20-14)13-6-2-4-8-15(13)19-16/h1-10,19-20H",
        "InChIKey": null,
        "Canonical SMILES": "C=1C=CC2=C(C1)NC3=C2C=CC=4NC=5C=CC=CC5C43",
        "Molecular Formula": "C<sub>18</sub>H<sub>12</sub>N<sub>2</sub>",
        "Molecular Mass": "256.30",
        "Melting Point": "299-300 °C"
    }
}