{
    "cas_no": "84-77-5",
    "key_name": "Didecyl phthalate",
    "cn_name": "邻苯二甲酸二癸酯;1,2-苯二甲酸二癸酯;邻酞酸二癸酯;苯二甲酸二正癸酯;",
    "alternate_name": "1,2-Benzenedicarboxylic acid, 1,2-didecyl ester;Phthalic acid, didecyl ester;1,2-Benzenedicarboxylic acid, didecyl ester;Didecyl phthalate;Di-<em>n</em>-decyl phthalate;Decyl phthalate;Vinycizer 105;Bis(<em>n</em>-decyl)phthalate;NSC 15319;DDP;Dicapryl phthalate",
    "duplicated_cas_no": "",
    "SMILES": "C(OCCCCCCCCCC)(=O)C1=C(C(OCCCCCCCCCC)=O)C=CC=C1",
    "meta_data": {
        "InChI": "InChI=1S/C28H46O4/c1-3-5-7-9-11-13-15-19-23-31-27(29)25-21-17-18-22-26(25)28(30)32-24-20-16-14-12-10-8-6-4-2/h17-18,21-22H,3-16,19-20,23-24H2,1-2H3",
        "InChIKey": null,
        "Canonical SMILES": "O=C(OCCCCCCCCCC)C=1C=CC=CC1C(=O)OCCCCCCCCCC",
        "Molecular Formula": "C<sub>28</sub>H<sub>46</sub>O<sub>4</sub>",
        "Molecular Mass": "446.66",
        "Boiling Point": "261 °C @ Press: 5 Torr",
        "Melting Point": "&lt;25 °C",
        "Density": "0.9675 g/cm³ @ Temp: 20 °C"
    }
}