{
    "cas_no": "23077-43-2",
    "key_name": "5-Fluoro-1<em>H</em>-indole-3-carboxylic acid",
    "cn_name": null,
    "alternate_name": "1<em>H</em>-Indole-3-carboxylic acid, 5-fluoro-;Indole-3-carboxylic acid, 5-fluoro-;5-Fluoro-1<em>H</em>-indole-3-carboxylic acid;5-Fluoroindole-3-carboxylic acid",
    "duplicated_cas_no": "",
    "SMILES": "C(O)(=O)C=1C=2C(NC1)=CC=C(F)C2",
    "meta_data": {
        "InChI": "InChI=1S/C9H6FNO2/c10-5-1-2-8-6(3-5)7(4-11-8)9(12)13/h1-4,11H,(H,12,13)",
        "InChIKey": null,
        "Canonical SMILES": "O=C(O)C1=CNC=2C=CC(F)=CC21",
        "Molecular Formula": "C<sub>9</sub>H<sub>6</sub>FNO<sub>2</sub>",
        "Molecular Mass": "179.15",
        "Melting Point": "234-236 °C (decomp)"
    }
}