{
    "cas_no": "22179-73-3",
    "key_name": "3,4-Dichlorobenzenecarbothioamide",
    "cn_name": null,
    "alternate_name": "Benzenecarbothioamide, 3,4-dichloro-;Benzamide, 3,4-dichlorothio-;3,4-Dichlorobenzenecarbothioamide;3,4-Dichlorothiobenzamide;3,4-Dichlorobenzothioamide;3,4-Dichlorobenzene-1-carbothioamide",
    "duplicated_cas_no": "",
    "SMILES": "C(N)(=S)C1=CC(Cl)=C(Cl)C=C1",
    "meta_data": {
        "InChI": "InChI=1S/C7H5Cl2NS/c8-5-2-1-4(7(10)11)3-6(5)9/h1-3H,(H2,10,11)",
        "InChIKey": null,
        "Canonical SMILES": "S=C(N)C1=CC=C(Cl)C(Cl)=C1",
        "Molecular Formula": "C<sub>7</sub>H<sub>5</sub>Cl<sub>2</sub>NS",
        "Molecular Mass": "206.09",
        "Melting Point": "132-134 °C"
    }
}