{
    "cas_no": "3588-17-8",
    "key_name": "<em>trans</em>,<em>trans</em>-Muconic acid",
    "cn_name": null,
    "alternate_name": "2,4-Hexadienedioic acid, (2<em>E</em>,4<em>E</em>)-;2,4-Hexadienedioic acid, (<em>E</em>,<em>E</em>)-;(2<em>E</em>,4<em>E</em>)-2,4-Hexadienedioic acid;<em>trans</em>,<em>trans</em>-Muconic acid;(<em>E</em>,<em>E</em>)-Muconic acid;NSC 66486;<em>trans</em>,<em>trans</em>-2,4-Hexadienedioic acid;(E,E)-1,3-Butadiene-1,4-dicarboxylic acid",
    "duplicated_cas_no": "",
    "SMILES": "C(\\C=C\\C(O)=O)=C/C(O)=O",
    "meta_data": {
        "InChI": "InChI=1S/C6H6O4/c7-5(8)3-1-2-4-6(9)10/h1-4H,(H,7,8)(H,9,10)/b3-1+,4-2+",
        "InChIKey": null,
        "Canonical SMILES": "O=C(O)C=CC=CC(=O)O",
        "Molecular Formula": "C<sub>6</sub>H<sub>6</sub>O<sub>4</sub>",
        "Molecular Mass": "142.11",
        "Melting Point": "301 °C"
    }
}