{
    "cas_no": "14938-35-3",
    "key_name": "4-Pentylphenol",
    "cn_name": "4-戊基苯酚;对戊基苯酚;",
    "alternate_name": "Phenol, 4-pentyl-;Phenol, <em>p</em>-pentyl-;4-Pentylphenol;Amyl <em>p</em>-hydroxybenzene;<em>p</em>-Amylphenol;<em>p</em>-Pentylphenol;4-Amylphenol;4-<em>n</em>-Pentylphenol;<em>p</em>-Hydroxy-<em>n</em>-pentylbenzene;4-<em>n</em>-Amylphenol",
    "duplicated_cas_no": "65916-15-6",
    "SMILES": "C(CCCC)C1=CC=C(O)C=C1",
    "meta_data": {
        "InChI": "InChI=1S/C11H16O/c1-2-3-4-5-10-6-8-11(12)9-7-10/h6-9,12H,2-5H2,1H3",
        "InChIKey": null,
        "Canonical SMILES": "OC1=CC=C(C=C1)CCCCC",
        "Molecular Formula": "C<sub>11</sub>H<sub>16</sub>O",
        "Molecular Mass": "164.24",
        "Boiling Point": "250.5 °C",
        "Melting Point": "23 °C"
    }
}