{
    "cas_no": "115-29-7",
    "key_name": "Endosulfan",
    "cn_name": "硫丹;1,2,3,4,7,7-六氯双环[2,2,1]庚烯-(2)-双羟甲基-5,6-亚硫酸酯;",
    "alternate_name": "6,9-Methano-2,4,3-benzodioxathiepin, 6,7,8,9,10,10-hexachloro-1,5,5a,6,9,9a-hexahydro-, 3-oxide;5-Norbornene-2,3-dimethanol, 1,4,5,6,7,7-hexachloro-, cyclic sulfite;OMS 570;HOE 2671;BIO 5462;ENT 23979;α,β-1,2,3,4,7,7-Hexachlorobicyclo[2.2.1]-2-heptene-5,6-bisoxymethylene sulfite;6,7,8,9,10,10-Hexachloro-1,5,5a,6,9,9a-hexahydro-6,9-methano-2,4,3-benzodioxathiepin-3-oxide;1,4,5,6,7,7-Hexachloro-5-norbornene-2,3-dimethanol cyclic sulfite;Niagara 5462;Endosulfan;Thiodan;Malix;SD 4314;6,7,8,9,10,10-Hexachloro-1,5,5α,6,9,9α-hexahydro-6,9-methano-2,4,3-benzodioxathiepin-3-oxide;Endosulfan 35EC;Chlorthiepin;Endosulphan;Beosit;Thimul;Thionex;Benzoepin;Tionex;Thiodan 35EC;Thiodan 35;Thiotox;Thiotox (insecticide);Hildan;Endocel;Tiovel;Endotaf;Phaser;Madhusulphan;Sialan;Parrysulfan;Thioflo;Ethiosulfan;Endodhan;Zebra ciagro;Thionex 35;Akodan 35;Global E 35;Endosulfan 35 Nufarm;Liudan;Endosri;MeSH ID: D004726",
    "duplicated_cas_no": "6994-04-3;8003-45-0;426824-51-3",
    "SMILES": "ClC12C3C(C(Cl)(C1(Cl)Cl)C(Cl)=C2Cl)COS(=O)OC3",
    "meta_data": {
        "InChI": "InChI=1S/C9H6Cl6O3S/c10-5-6(11)8(13)4-2-18-19(16)17-1-3(4)7(5,12)9(8,14)15/h3-4H,1-2H2",
        "InChIKey": null,
        "Canonical SMILES": "O=S1OCC2C(CO1)C3(Cl)C(Cl)=C(Cl)C2(Cl)C3(Cl)Cl",
        "Molecular Formula": "C<sub>9</sub>H<sub>6</sub>Cl<sub>6</sub>O<sub>3</sub>S",
        "Molecular Mass": "406.93",
        "Boiling Point": "106 °C @ Press: 0.70 Torr",
        "Melting Point": "106 °C",
        "Density": "1.745 g/cm³ @ Temp: 20 °C"
    }
}