{
    "cas_no": "111-36-4",
    "key_name": "Butyl isocyanate",
    "cn_name": "异氰酸正丁酯;",
    "alternate_name": "Butane, 1-isocyanato-;Isocyanic acid, butyl ester;1-Isocyanatobutane;Butyl isocyanate;<em>n</em>-Butyl isocyanate",
    "duplicated_cas_no": "",
    "SMILES": "C(CCC)N=C=O",
    "meta_data": {
        "InChI": "InChI=1S/C5H9NO/c1-2-3-4-6-5-7/h2-4H2,1H3",
        "InChIKey": null,
        "Canonical SMILES": "O=C=NCCCC",
        "Molecular Formula": "C<sub>5</sub>H<sub>9</sub>NO",
        "Molecular Mass": "99.13",
        "Boiling Point": "115 °C",
        "Melting Point": "&lt;-70 °C",
        "Density": "0.9 g/cm³"
    }
}