{
    "cas_no": "80789-75-9",
    "key_name": "1-(4-Methylphenyl)cyclopentanecarboxylic acid",
    "cn_name": "1-(对甲苯基)-1-环戊烷羧酸;",
    "alternate_name": "Cyclopentanecarboxylic acid, 1-(4-methylphenyl)-;1-(4-Methylphenyl)cyclopentanecarboxylic acid;1-(<em>p</em>-Methylphenyl)cyclopentanecarboxylic acid;1-(<em>p</em>-Tolyl)-1-cyclopentanecarboxylic acid;NSC 154615;1-<em>p</em>-Tolylcyclopentanecarboxylic acid;1-(4-Methylphenyl)cyclopentane-1-carboxylic acid",
    "duplicated_cas_no": "",
    "SMILES": "C(O)(=O)C1(CCCC1)C2=CC=C(C)C=C2",
    "meta_data": {
        "InChI": "InChI=1S/C13H16O2/c1-10-4-6-11(7-5-10)13(12(14)15)8-2-3-9-13/h4-7H,2-3,8-9H2,1H3,(H,14,15)",
        "InChIKey": null,
        "Canonical SMILES": "O=C(O)C1(C2=CC=C(C=C2)C)CCCC1",
        "Molecular Formula": "C<sub>13</sub>H<sub>16</sub>O<sub>2</sub>",
        "Molecular Mass": "204.26",
        "Melting Point": "167-169 °C"
    }
}