{
    "cas_no": "28541-83-5",
    "key_name": "4-Methylumbelliferyl α-<span class=\"text-smallcaps\">D</span>-mannopyranoside",
    "cn_name": "4-甲基伞形酮基-α-D-吡喃甘露糖苷;4-甲基伞形酮基-α-D-吡喃甘露糖苷;4-甲基伞形酮酰-α-D-甘露糖苷;",
    "alternate_name": "2<em>H</em>-1-Benzopyran-2-one, 7-(α-<span class=\"text-smallcaps\">D</span>-mannopyranosyloxy)-4-methyl-;Mannopyranoside, 4-methyl-2-oxo-2<em>H</em>-1-benzopyran-7-yl, α-<span class=\"text-smallcaps\">D</span>-;7-(α-<span class=\"text-smallcaps\">D</span>-Mannopyranosyloxy)-4-methyl-2<em>H</em>-1-benzopyran-2-one;4-Methylumbelliferyl α-<span class=\"text-smallcaps\">D</span>-mannopyranoside;4-Methylumbelliferyl α-<span class=\"text-smallcaps\">D</span>-mannoside;4′-Methylumbelliferyl α-<span class=\"text-smallcaps\">D</span>-mannopyranoside;4-Methylumbelliferyl α-mannopyranoside",
    "duplicated_cas_no": "882048-87-5",
    "SMILES": "CC=1C=2C(=CC(O[C@H]3O[C@H](CO)[C@@H](O)[C@H](O)[C@@H]3O)=CC2)OC(=O)C1",
    "meta_data": {
        "InChI": "InChI=1S/C16H18O8/c1-7-4-12(18)23-10-5-8(2-3-9(7)10)22-16-15(21)14(20)13(19)11(6-17)24-16/h2-5,11,13-17,19-21H,6H2,1H3/t11-,13-,14+,15+,16+/m1/s1",
        "InChIKey": null,
        "Canonical SMILES": "O=C1OC=2C=C(OC3OC(CO)C(O)C(O)C3O)C=CC2C(=C1)C",
        "Molecular Formula": "C<sub>16</sub>H<sub>18</sub>O<sub>8</sub>",
        "Molecular Mass": "338.31",
        "Melting Point": "132-134 °C"
    }
}