{
    "cas_no": "37439-34-2",
    "key_name": "2(1<em>H</em>)-Pyridinone, 3,5,6-trichloro-, sodium salt (1:1)",
    "cn_name": "3,5,6-三氯吡啶-2-醇钠盐;",
    "alternate_name": "2(1<em>H</em>)-Pyridinone, 3,5,6-trichloro-, sodium salt (1:1);2(1<em>H</em>)-Pyridinone, 3,5,6-trichloro-, sodium salt;Sodium 3,5,6-trichloro-2-pyridinol;3,5,6-Trichloro-2-pyridinol sodium salt;Sodium 3,5,6-trichloro-2-pyridinate;Sodium 3,5,6-trichloro-2-pyridinolate;Sodium <em>O</em>-3,5,6-trichloro-2-pyridinate",
    "duplicated_cas_no": "",
    "SMILES": "ClC1=C(Cl)NC(=O)C(Cl)=C1.[Na]",
    "meta_data": {
        "InChI": "InChI=1S/C5H2Cl3NO.Na/c6-2-1-3(7)5(10)9-4(2)8;/h1H,(H,9,10);",
        "InChIKey": null,
        "Canonical SMILES": "[Na].O=C1NC(Cl)=C(Cl)C=C1Cl",
        "Molecular Formula": "C<sub>5</sub>H<sub>2</sub>Cl<sub>3</sub>NO.Na",
        "Molecular Mass": "",
        "Melting Point": "172-175 °C"
    }
}