{
    "cas_no": "455-86-7",
    "key_name": "3,4-Difluorobenzoic acid",
    "cn_name": "3,4-二氟苯甲酸;",
    "alternate_name": "Benzoic acid, 3,4-difluoro-;3,4-Difluorobenzoic acid;NSC 190686",
    "duplicated_cas_no": "",
    "SMILES": "C(O)(=O)C1=CC(F)=C(F)C=C1",
    "meta_data": {
        "InChI": "InChI=1S/C7H4F2O2/c8-5-2-1-4(7(10)11)3-6(5)9/h1-3H,(H,10,11)",
        "InChIKey": null,
        "Canonical SMILES": "O=C(O)C1=CC=C(F)C(F)=C1",
        "Molecular Formula": "C<sub>7</sub>H<sub>4</sub>F<sub>2</sub>O<sub>2</sub>",
        "Molecular Mass": "158.10",
        "Melting Point": "123 °C"
    }
}