{
    "cas_no": "7721-01-9",
    "key_name": "Tantalum pentachloride",
    "cn_name": "五氯化钽;",
    "alternate_name": "Tantalum chloride (TaCl<sub>5</sub>);Tantalum pentachloride;Pentachlorotantalum;Tantalum pentachloride (TaCl<sub>5</sub>);Tantalum chloride;Tantalum(V) chloride",
    "duplicated_cas_no": "",
    "SMILES": "[Ta](Cl)(Cl)(Cl)(Cl)Cl",
    "meta_data": {
        "InChI": "InChI=1S/5ClH.Ta/h5*1H;/q;;;;;+5/p-5",
        "InChIKey": null,
        "Canonical SMILES": "Cl[Ta](Cl)(Cl)(Cl)Cl",
        "Molecular Formula": "Cl<sub>5</sub>Ta",
        "Molecular Mass": "",
        "Boiling Point": "233 °C",
        "Melting Point": "216.5-220 °C"
    }
}