{
    "cas_no": "39136-63-5",
    "key_name": "5-Phenyl-2-thiazolamine",
    "cn_name": "2-胺基-5-苯基噻唑;",
    "alternate_name": "2-Thiazolamine, 5-phenyl-;Thiazole, 2-amino-5-phenyl-;5-Phenyl-2-thiazolamine;2-Amino-5-phenylthiazole;5-Phenyl-2-aminothiazole;5-Phenylthiazol-2-amine;2-Amino-5-phenyl-1,3-thiazole",
    "duplicated_cas_no": "",
    "SMILES": "NC=1SC(=CN1)C2=CC=CC=C2",
    "meta_data": {
        "InChI": "InChI=1S/C9H8N2S/c10-9-11-6-8(12-9)7-4-2-1-3-5-7/h1-6H,(H2,10,11)",
        "InChIKey": null,
        "Canonical SMILES": "N=1C=C(SC1N)C=2C=CC=CC2",
        "Molecular Formula": "C<sub>9</sub>H<sub>8</sub>N<sub>2</sub>S",
        "Molecular Mass": "176.24",
        "Melting Point": "191-191.5 °C"
    }
}