{
    "cas_no": "5428-89-7",
    "key_name": "5-Chloro-2-pyrimidinamine",
    "cn_name": "2-氨基-5-氯嘧啶;",
    "alternate_name": "2-Pyrimidinamine, 5-chloro-;Pyrimidine, 2-amino-5-chloro-;5-Chloro-2-pyrimidinamine;2-Amino-5-chloropyrimidine;NSC 13326;5-Chloropyrimidin-2-amine",
    "duplicated_cas_no": "",
    "SMILES": "ClC=1C=NC(N)=NC1",
    "meta_data": {
        "InChI": "InChI=1S/C4H4ClN3/c5-3-1-7-4(6)8-2-3/h1-2H,(H2,6,7,8)",
        "InChIKey": null,
        "Canonical SMILES": "ClC1=CN=C(N=C1)N",
        "Molecular Formula": "C<sub>4</sub>H<sub>4</sub>ClN<sub>3</sub>",
        "Molecular Mass": "129.55",
        "Melting Point": "234-236 °C"
    }
}