{
    "cas_no": "29289-13-2",
    "key_name": "2-Iodo-4-methylaniline",
    "cn_name": "3-碘-4-甲基苯胺;",
    "alternate_name": "Benzenamine, 2-iodo-4-methyl-;<em>p</em>-Toluidine, 2-iodo-;2-Iodo-4-methylbenzenamine;2-Iodo-4-methylaniline;2-Amino-5-methylphenyl iodide",
    "duplicated_cas_no": "",
    "SMILES": "IC1=C(N)C=CC(C)=C1",
    "meta_data": {
        "InChI": "InChI=1S/C7H8IN/c1-5-2-3-7(9)6(8)4-5/h2-4H,9H2,1H3",
        "InChIKey": null,
        "Canonical SMILES": "IC1=CC(=CC=C1N)C",
        "Molecular Formula": "C<sub>7</sub>H<sub>8</sub>IN",
        "Molecular Mass": "233.05",
        "Boiling Point": "116-118 °C @ Press: 0.8 Torr",
        "Melting Point": "37 °C"
    }
}