{
    "cas_no": "3155-16-6",
    "key_name": "1,2-Diphenyl ethanedioate",
    "cn_name": null,
    "alternate_name": "Ethanedioic acid, 1,2-diphenyl ester;Oxalic acid, diphenyl ester;Ethanedioic acid, diphenyl ester;1,2-Diphenyl ethanedioate;Diphenyl oxalate;NSC 400575",
    "duplicated_cas_no": "",
    "SMILES": "O(C(C(OC1=CC=CC=C1)=O)=O)C2=CC=CC=C2",
    "meta_data": {
        "InChI": "InChI=1S/C14H10O4/c15-13(17-11-7-3-1-4-8-11)14(16)18-12-9-5-2-6-10-12/h1-10H",
        "InChIKey": null,
        "Canonical SMILES": "O=C(OC=1C=CC=CC1)C(=O)OC=2C=CC=CC2",
        "Molecular Formula": "C<sub>14</sub>H<sub>10</sub>O<sub>4</sub>",
        "Molecular Mass": "242.23",
        "Melting Point": "126 °C"
    }
}