{
    "cas_no": "13122-99-1",
    "key_name": "<em>N</em>-[(Phenylmethoxy)carbonyl]-<span class=\"text-smallcaps\">L</span>-phenylalanylglycine",
    "cn_name": null,
    "alternate_name": "Glycine, <em>N</em>-[(phenylmethoxy)carbonyl]-<span class=\"text-smallcaps\">L</span>-phenylalanyl-;Glycine, <em>N</em>-(<em>N</em>-carboxy-3-phenyl-<span class=\"text-smallcaps\">L</span>-alanyl)-, <em>N</em>-benzyl ester;Glycine, <em>N</em>-[<em>N</em>-[(phenylmethoxy)carbonyl]-<span class=\"text-smallcaps\">L</span>-phenylalanyl]-;Glycine, <em>N</em>-(<em>N</em>-carboxy-3-phenylalanyl)-, <em>N</em>-benzyl ester;<em>N</em>-[(Phenylmethoxy)carbonyl]-<span class=\"text-smallcaps\">L</span>-phenylalanylglycine;<em>N</em>-(Benzyloxycarbonyl)-<span class=\"text-smallcaps\">L</span>-phenylalanylglycine;Benzyloxycarbonyl-<span class=\"text-smallcaps\">L</span>-phenylalanylglycine;<em>N</em>-Carbobenzoxy-<span class=\"text-smallcaps\">L</span>-phenylalanylglycine;<em>N</em>-(Benzyloxycarbonyl)phenylalanylglycine;NSC 76846;2-[[(2S)-3-Phenyl-2-(phenylmethoxycarbonylamino)propanoyl]amino]acetic acid",
    "duplicated_cas_no": "",
    "SMILES": "[C@@H](CC1=CC=CC=C1)(NC(OCC2=CC=CC=C2)=O)C(NCC(O)=O)=O",
    "meta_data": {
        "InChI": "InChI=1S/C19H20N2O5/c22-17(23)12-20-18(24)16(11-14-7-3-1-4-8-14)21-19(25)26-13-15-9-5-2-6-10-15/h1-10,16H,11-13H2,(H,20,24)(H,21,25)(H,22,23)/t16-/m0/s1",
        "InChIKey": null,
        "Canonical SMILES": "O=C(OCC=1C=CC=CC1)NC(C(=O)NCC(=O)O)CC=2C=CC=CC2",
        "Molecular Formula": "C<sub>19</sub>H<sub>20</sub>N<sub>2</sub>O<sub>5</sub>",
        "Molecular Mass": "356.37",
        "Melting Point": "151-152 °C"
    }
}