{
    "cas_no": "1646-88-4",
    "key_name": "Aldicarb sulfone",
    "cn_name": null,
    "alternate_name": "Propanal, 2-methyl-2-(methylsulfonyl)-, <em>O</em>-[(methylamino)carbonyl]oxime;Propionaldehyde, 2-methyl-2-(methylsulfonyl)-, <em>O</em>-(methylcarbamoyl)oxime;Carbamic acid, methyl-, <em>O</em>-[[2-methyl-2-(methylsulfonyl)propylidene]amino] deriv.;2-Methyl-2-(methylsulfonyl)propionaldehyde <em>O</em>-(methylcarbamoyl)oxime;Temik sulfone;Aldicarb sulfone;UC 21865;Aldoxycarb;Sulfocarb;Standak;UCES;Yangdimiewei;(2-Methanesulfonyl-2-methylpropylidene)amino <em>N</em>-methylcarbamate;2-Methyl-2-(methylsulfonyl)propanal <em>O</em>-(methylcarbamoyl)oxime",
    "duplicated_cas_no": "60005-95-0",
    "SMILES": "C(C=NOC(NC)=O)(S(C)(=O)=O)(C)C",
    "meta_data": {
        "InChI": "InChI=1S/C7H14N2O4S/c1-7(2,14(4,11)12)5-9-13-6(10)8-3/h5H,1-4H3,(H,8,10)",
        "InChIKey": null,
        "Canonical SMILES": "O=C(ON=CC(C)(C)S(=O)(=O)C)NC",
        "Molecular Formula": "C<sub>7</sub>H<sub>14</sub>N<sub>2</sub>O<sub>4</sub>S",
        "Molecular Mass": "222.26",
        "Melting Point": "140-142 °C"
    }
}