{
    "cas_no": "175136-93-3",
    "key_name": "1-(2-Furanylmethyl)-5-oxo-3-pyrrolidinecarboxylic acid",
    "cn_name": "1-(2-呋喃甲基)-5-氧吡咯烷-3-羧酸;",
    "alternate_name": "3-Pyrrolidinecarboxylic acid, 1-(2-furanylmethyl)-5-oxo-;1-(2-Furanylmethyl)-5-oxo-3-pyrrolidinecarboxylic acid;1-(2-Furylmethyl)-5-oxopyrrolidine-3-carboxylic acid;1-(2-Furylmethyl)-5-oxopyrrolidine-3-carboxylicacid",
    "duplicated_cas_no": "",
    "SMILES": "C(N1CC(C(O)=O)CC1=O)C2=CC=CO2",
    "meta_data": {
        "InChI": "InChI=1S/C10H11NO4/c12-9-4-7(10(13)14)5-11(9)6-8-2-1-3-15-8/h1-3,7H,4-6H2,(H,13,14)",
        "InChIKey": null,
        "Canonical SMILES": "O=C(O)C1CC(=O)N(CC=2OC=CC2)C1",
        "Molecular Formula": "C<sub>10</sub>H<sub>11</sub>NO<sub>4</sub>",
        "Molecular Mass": "209.20",
        "Melting Point": "155-156 °C"
    }
}