{
    "cas_no": "378-44-9",
    "key_name": "Betamethasone",
    "cn_name": "倍他米松;16b-甲基-11b,17a,21-三羟基-9a-孕甾-1,4-二烯-3,20-二酮;",
    "alternate_name": "Pregna-1,4-diene-3,20-dione, 9-fluoro-11,17,21-trihydroxy-16-methyl-, (11β,16β)-;Pregna-1,4-diene-3,20-dione, 9-fluoro-11β,17,21-trihydroxy-16β-methyl-;(11β,16β)-9-Fluoro-11,17,21-trihydroxy-16-methylpregna-1,4-diene-3,20-dione;Betamethasone;Betamethazone;Betnelan;Betsolan;Celestone;9α-Fluoro-16β-methylprednisolone;9α-Fluoro-16β-methyl-1,4-pregnadiene-11β,17α,21-triol-3,20-dione;9-Fluoro-11β,17,21-trihydroxy-16β-methylpregna-1,4-diene-3,20-dione;9α-Fluoro-11β,17,21-trihydroxy-16β-methylpregna-1,4-diene-3,20-dione;β-Methasone;β-Methasone alcohol;9α-Fluoro-11β,17α,21-trihydroxy-16β-methylpregna-1,4-diene-3,20-dione;9-Fluoro-16β-methylprednisolone;Betacorlan;Rinderon;Betacortril;Celestene;Betapredol;Cidoten;Betasolon;Desacort-Beta;Rinderon A;Bedifos;Celeston;Colircusi betamida;Bifas;Dermabet;Flubenisolone;Visubeta;Becort;Sch 4831;NSC 39470;Betadexamethasone;Celestan;Betametasone;Flosteron;Bethamethasone;Betacortil;Ethamethasoneb;MeSH ID: D001623",
    "duplicated_cas_no": "",
    "SMILES": "F[C@@]12[C@]([C@]3([C@](C)(C[C@@H]1O)[C@](C(CO)=O)(O)[C@@H](C)C3)[H])(CCC=4[C@]2(C)C=CC(=O)C4)[H]",
    "meta_data": {
        "InChI": "InChI=1S/C22H29FO5/c1-12-8-16-15-5-4-13-9-14(25)6-7-19(13,2)21(15,23)17(26)10-20(16,3)22(12,28)18(27)11-24/h6-7,9,12,15-17,24,26,28H,4-5,8,10-11H2,1-3H3/t12-,15-,16-,17-,19-,20-,21-,22-/m0/s1",
        "InChIKey": null,
        "Canonical SMILES": "O=C1C=CC2(C(=C1)CCC3C4CC(C)C(O)(C(=O)CO)C4(C)CC(O)C32F)C",
        "Molecular Formula": "C<sub>22</sub>H<sub>29</sub>FO<sub>5</sub>",
        "Molecular Mass": "392.46",
        "Melting Point": "231-234 °C (decomp)"
    }
}