{
    "cas_no": "772-65-6",
    "key_name": "Dichloromethylphenethylsilane",
    "cn_name": "二氯甲基(2-苯乙基)硅烷;",
    "alternate_name": "Benzene, [2-(dichloromethylsilyl)ethyl]-;Silane, dichloromethylphenethyl-;Silane, dichloromethyl(2-phenylethyl)-;[2-(Dichloromethylsilyl)ethyl]benzene;Dichloromethylphenethylsilane;Methyl(2-phenethyl)dichlorosilane;[2-[Dichloro(methyl)silyl]ethyl]benzene;Phenethylmethyldichlorosilane;Dichloromethyl(2-phenylethyl)silane",
    "duplicated_cas_no": "",
    "SMILES": "C(C[Si](C)(Cl)Cl)C1=CC=CC=C1",
    "meta_data": {
        "InChI": "InChI=1S/C9H12Cl2Si/c1-12(10,11)8-7-9-5-3-2-4-6-9/h2-6H,7-8H2,1H3",
        "InChIKey": null,
        "Canonical SMILES": "Cl[Si](Cl)(C)CCC=1C=CC=CC1",
        "Molecular Formula": "C<sub>9</sub>H<sub>12</sub>Cl<sub>2</sub>Si",
        "Molecular Mass": "219.18",
        "Boiling Point": "99 °C @ Press: 6 Torr",
        "Density": "1.127 g/cm³"
    }
}