{
    "cas_no": "2586-62-1",
    "key_name": "1-Bromo-2-methylnaphthalene",
    "cn_name": null,
    "alternate_name": "Naphthalene, 1-bromo-2-methyl-;1-Bromo-2-methylnaphthalene;β-Methyl-α-bromonaphthalene;2-Methyl-1-bromonaphthalene;NSC 36286",
    "duplicated_cas_no": "",
    "SMILES": "BrC=1C2=C(C=CC1C)C=CC=C2",
    "meta_data": {
        "InChI": "InChI=1S/C11H9Br/c1-8-6-7-9-4-2-3-5-10(9)11(8)12/h2-7H,1H3",
        "InChIKey": null,
        "Canonical SMILES": "BrC=1C=2C=CC=CC2C=CC1C",
        "Molecular Formula": "C<sub>11</sub>H<sub>9</sub>Br",
        "Molecular Mass": "221.09",
        "Boiling Point": "165-170 °C @ Press: 13 Torr"
    }
}