{
    "cas_no": "5374-06-1",
    "key_name": "4,6-Di-<em>tert</em>-butylresorcinol",
    "cn_name": "4,6-二叔丁基间苯二酚;",
    "alternate_name": "1,3-Benzenediol, 4,6-bis(1,1-dimethylethyl)-;Resorcinol, 4,6-di-<em>tert</em>-butyl-;4,6-Bis(1,1-dimethylethyl)-1,3-benzenediol;4,6-Di-<em>tert</em>-butylresorcinol;4,6-Di-<em>tert</em>-butyl-1,3-benzenediol",
    "duplicated_cas_no": "",
    "SMILES": "C(C)(C)(C)C1=CC(C(C)(C)C)=C(O)C=C1O",
    "meta_data": {
        "InChI": "InChI=1S/C14H22O2/c1-13(2,3)9-7-10(14(4,5)6)12(16)8-11(9)15/h7-8,15-16H,1-6H3",
        "InChIKey": null,
        "Canonical SMILES": "OC=1C=C(O)C(=CC1C(C)(C)C)C(C)(C)C",
        "Molecular Formula": "C<sub>14</sub>H<sub>22</sub>O<sub>2</sub>",
        "Molecular Mass": "222.32",
        "Melting Point": "121-123 °C"
    }
}