{
    "cas_no": "55755-17-4",
    "key_name": "3-Methylphenethylamine",
    "cn_name": null,
    "alternate_name": "Benzeneethanamine, 3-methyl-;3-Methylbenzeneethanamine;3-Methylphenylethylamine;[2-[3-Methylphenyl]ethyl]amine;3-Methylphenethylamine;2-(3-Methylphenyl)ethanamine;2-(<em>m</em>-Tolyl)ethylamine;2-(<em>m</em>-Tolyl)ethanamine;2-(3-Methylphenyl)ethan-1-amine",
    "duplicated_cas_no": "",
    "SMILES": "C(CN)C1=CC(C)=CC=C1",
    "meta_data": {
        "InChI": "InChI=1S/C9H13N/c1-8-3-2-4-9(7-8)5-6-10/h2-4,7H,5-6,10H2,1H3",
        "InChIKey": null,
        "Canonical SMILES": "NCCC=1C=CC=C(C1)C",
        "Molecular Formula": "C<sub>9</sub>H<sub>13</sub>N",
        "Molecular Mass": "135.21",
        "Boiling Point": "101-102 °C @ Press: 18 Torr",
        "Melting Point": "170-171 °C"
    }
}