{
    "cas_no": "7774-29-0",
    "key_name": "Mercuric iodide",
    "cn_name": "红色碘化汞;二碘化汞；碘化汞；碘化高汞；碘化汞红色;",
    "alternate_name": "Mercury iodide (HgI<sub>2</sub>);Mercuric iodide;Red Mercuric Iodide;Mercury diiodide;Mercuric diiodide;Diiodomercury;Mercury(2+) diiodide;Mercury(2+) iodide;Mercury(II) iodide",
    "duplicated_cas_no": "",
    "SMILES": "[Hg](I)I",
    "meta_data": {
        "InChI": "InChI=1S/Hg.2HI/h;2*1H/q+2;;/p-2",
        "InChIKey": null,
        "Canonical SMILES": "I[Hg]I",
        "Molecular Formula": "HgI<sub>2</sub>",
        "Molecular Mass": "",
        "Boiling Point": "350 °C",
        "Melting Point": "259 °C",
        "Density": "6.28 g/cm³"
    }
}