{
    "cas_no": "13957-31-8",
    "key_name": "4-Thiouridine",
    "cn_name": "4-硫代尿苷;",
    "alternate_name": "Uridine, 4-thio-;4-Thiouridine;Thiouridine;NSC 518132",
    "duplicated_cas_no": "17676-63-0",
    "SMILES": "O[C@H]1[C@@H](O[C@H](CO)[C@H]1O)N2C(=O)NC(=S)C=C2",
    "meta_data": {
        "InChI": "InChI=1S/C9H12N2O5S/c12-3-4-6(13)7(14)8(16-4)11-2-1-5(17)10-9(11)15/h1-2,4,6-8,12-14H,3H2,(H,10,15,17)/t4-,6-,7-,8-/m1/s1",
        "InChIKey": null,
        "Canonical SMILES": "O=C1NC(=S)C=CN1C2OC(CO)C(O)C2O",
        "Molecular Formula": "C<sub>9</sub>H<sub>12</sub>N<sub>2</sub>O<sub>5</sub>S",
        "Molecular Mass": "260.27",
        "Melting Point": "139-140 °C"
    }
}