{
    "cas_no": "626-03-9",
    "key_name": "4-Hydroxy-2(1<em>H</em>)-pyridinone",
    "cn_name": "2,4-二羟基吡啶;",
    "alternate_name": "2(1<em>H</em>)-Pyridinone, 4-hydroxy-;2,4-Pyridinediol;2(1<em>H</em>)-Pyridone, 4-hydroxy-;4-Hydroxy-2(1<em>H</em>)-pyridinone;2,4-Dihydroxypyridine;4-Hydroxy-2-pyridone;3-Deazauracil;4-Hydroxy-2-pyridinone;4-Hydroxy-2-oxopyridine;NSC 119859;NSC 37839;4-Hydroxy-1<em>H</em>-pyridin-2-one;4-Hydroxypyridin-2(1<em>H</em>)-one",
    "duplicated_cas_no": "29212-34-8",
    "SMILES": "OC1=CC(=O)NC=C1",
    "meta_data": {
        "InChI": "InChI=1S/C5H5NO2/c7-4-1-2-6-5(8)3-4/h1-3H,(H2,6,7,8)",
        "InChIKey": null,
        "Canonical SMILES": "O=C1C=C(O)C=CN1",
        "Molecular Formula": "C<sub>5</sub>H<sub>5</sub>NO<sub>2</sub>",
        "Molecular Mass": "111.10",
        "Melting Point": "278 °C"
    }
}