{
    "cas_no": "13765-03-2",
    "key_name": "Lithium iodate",
    "cn_name": "碘酸锂;",
    "alternate_name": "Iodic acid (HIO<sub>3</sub>), lithium salt (1:1);Iodic acid (HIO<sub>3</sub>), lithium salt;Lithium iodate (LiIO<sub>3</sub>);Lithium iodate",
    "duplicated_cas_no": "12593-78-1",
    "SMILES": "I(=O)(=O)O.[Li]",
    "meta_data": {
        "InChI": "InChI=1S/HIO3.Li/c2-1(3)4;/h(H,2,3,4);",
        "InChIKey": null,
        "Canonical SMILES": "[Li].O=I(=O)O",
        "Molecular Formula": "HIO<sub>3</sub>.Li",
        "Molecular Mass": "",
        "Melting Point": "430 °C",
        "Density": "3.402 g/cm³"
    }
}