{
    "cas_no": "3300-51-4",
    "key_name": "4-(Trifluoromethyl)benzylamine",
    "cn_name": "4-(三氟甲基)苄胺;4-三氟甲基苯甲胺;",
    "alternate_name": "Benzenemethanamine, 4-(trifluoromethyl)-;Benzylamine, <em>p</em>-(trifluoromethyl)-;4-(Trifluoromethyl)benzenemethanamine;<em>p</em>-(Trifluoromethyl)benzylamine;4-(Trifluoromethyl)benzylamine;((4-(Trifluoromethyl)phenyl)methyl)amine;1-[4-(Trifluoromethyl)phenyl]methanamine;(4-Trifluoromethylphenyl)methanamine;1-(4-Trifluoromethylphenyl)methylamine;[4-[Tris(fluoranyl)methyl]phenyl]methanamine",
    "duplicated_cas_no": "",
    "SMILES": "C(F)(F)(F)C1=CC=C(CN)C=C1",
    "meta_data": {
        "InChI": "InChI=1S/C8H8F3N/c9-8(10,11)7-3-1-6(5-12)2-4-7/h1-4H,5,12H2",
        "InChIKey": null,
        "Canonical SMILES": "FC(F)(F)C1=CC=C(C=C1)CN",
        "Molecular Formula": "C<sub>8</sub>H<sub>8</sub>F<sub>3</sub>N",
        "Molecular Mass": "175.15",
        "Boiling Point": "114-120 °C",
        "Melting Point": "43 °C"
    }
}