{
    "cas_no": "14899-36-6",
    "key_name": "Dexamethasone palmitate",
    "cn_name": "地塞米松棕榈酸酯;",
    "alternate_name": "Pregna-1,4-diene-3,20-dione, 9-fluoro-11,17-dihydroxy-16-methyl-21-[(1-oxohexadecyl)oxy]-, (11β,16α)-;Pregna-1,4-diene-3,20-dione, 9-fluoro-11β,17,21-trihydroxy-16α-methyl-, 21-palmitate;Palmitic acid, 21-ester with 9-fluoro-11β,17,21-trihydroxy-16α-methylpregna-1,4-diene-3,20-dione;(11β,16α)-9-Fluoro-11,17-dihydroxy-16-methyl-21-[(1-oxohexadecyl)oxy]pregna-1,4-diene-3,20-dione;Dexamethasone 21-palmitate;Dexamethasone palmitate;Limethason;Lipotalon;Limethasone",
    "duplicated_cas_no": "80950-33-0",
    "SMILES": "C[C@@]12[C@]([C@]3([C@@](F)([C@]4(C)C(CC3)=CC(=O)C=C4)[C@@H](O)C1)[H])(C[C@@H](C)[C@@]2(C(COC(CCCCCCCCCCCCCCC)=O)=O)O)[H]",
    "meta_data": {
        "InChI": "InChI=1S/C38H59FO6/c1-5-6-7-8-9-10-11-12-13-14-15-16-17-18-34(43)45-26-33(42)38(44)27(2)23-31-30-20-19-28-24-29(40)21-22-35(28,3)37(30,39)32(41)25-36(31,38)4/h21-22,24,27,30-32,41,44H,5-20,23,25-26H2,1-4H3/t27-,30+,31+,32+,35+,36+,37+,38+/m1/s1",
        "InChIKey": null,
        "Canonical SMILES": "O=C1C=CC2(C(=C1)CCC3C4CC(C)C(O)(C(=O)COC(=O)CCCCCCCCCCCCCCC)C4(C)CC(O)C32F)C",
        "Molecular Formula": "C<sub>38</sub>H<sub>59</sub>FO<sub>6</sub>",
        "Molecular Mass": "630.87",
        "Melting Point": "60-65 °C"
    }
}