{
    "cas_no": "63721-05-1",
    "key_name": "4-Pentenoic acid, 3,3-dimethyl-, methyl ester",
    "cn_name": null,
    "alternate_name": "4-Pentenoic acid, 3,3-dimethyl-, methyl ester;Methyl 3,3-dimethyl-4-pentenoate;3,3-Dimethyl-4-pentenoic acid methyl ester;D 2153;Methyl 3,3-dimethyl-1-pentenoate",
    "duplicated_cas_no": "",
    "SMILES": "C(CC(OC)=O)(C=C)(C)C",
    "meta_data": {
        "InChI": "InChI=1S/C8H14O2/c1-5-8(2,3)6-7(9)10-4/h5H,1,6H2,2-4H3",
        "InChIKey": null,
        "Canonical SMILES": "O=C(OC)CC(C=C)(C)C",
        "Molecular Formula": "C<sub>8</sub>H<sub>14</sub>O<sub>2</sub>",
        "Molecular Mass": "142.20",
        "Boiling Point": "59 °C @ Press: 33 Torr"
    }
}