{
    "cas_no": "24974-74-1",
    "key_name": "2-Bromobenzenemethanesulfonyl chloride",
    "cn_name": null,
    "alternate_name": "Benzenemethanesulfonyl chloride, 2-bromo-;α-Toluenesulfonyl chloride, <em>o</em>-bromo-;2-Bromobenzenemethanesulfonyl chloride;(2-Bromophenyl)methanesulfonyl chloride;2-Bromobenzylsulfonyl chloride",
    "duplicated_cas_no": "",
    "SMILES": "C(S(Cl)(=O)=O)C1=C(Br)C=CC=C1",
    "meta_data": {
        "InChI": "InChI=1S/C7H6BrClO2S/c8-7-4-2-1-3-6(7)5-12(9,10)11/h1-4H,5H2",
        "InChIKey": null,
        "Canonical SMILES": "O=S(=O)(Cl)CC=1C=CC=CC1Br",
        "Molecular Formula": "C<sub>7</sub>H<sub>6</sub>BrClO<sub>2</sub>S",
        "Molecular Mass": "269.54",
        "Melting Point": "78-79 °C"
    }
}