{
    "cas_no": "94569-84-3",
    "key_name": "2-Bromo-5-fluorobenzaldehyde",
    "cn_name": "2-溴-5-氟苯甲醛;",
    "alternate_name": "Benzaldehyde, 2-bromo-5-fluoro-;2-Bromo-5-fluorobenzaldehyde;5-Fluoro-2-bromobenzaldehyde",
    "duplicated_cas_no": "",
    "SMILES": "C(=O)C1=C(Br)C=CC(F)=C1",
    "meta_data": {
        "InChI": "InChI=1S/C7H4BrFO/c8-7-2-1-6(9)3-5(7)4-10/h1-4H",
        "InChIKey": null,
        "Canonical SMILES": "O=CC1=CC(F)=CC=C1Br",
        "Molecular Formula": "C<sub>7</sub>H<sub>4</sub>BrFO",
        "Molecular Mass": "203.01",
        "Melting Point": "53-55 °C"
    }
}