{
    "cas_no": "2495-35-4",
    "key_name": "Benzyl acrylate",
    "cn_name": "丙烯酸苄酯;",
    "alternate_name": "2-Propenoic acid, phenylmethyl ester;Acrylic acid, benzyl ester;Benzyl acrylate;Sartomer SR 432;SR 432;Benzyl 2-propenoate;NSC 20964;Viscoat 160;V 160;FA-BZA;Fancryl FA-BZA;V 180;A-BZ;M 1182;Miramer M 1182;EM 75;Miramer M 1182HP;Komerate A 003",
    "duplicated_cas_no": "1426230-24-1;1933490-62-0;2061966-59-2",
    "SMILES": "C(OC(C=C)=O)C1=CC=CC=C1",
    "meta_data": {
        "InChI": "InChI=1S/C10H10O2/c1-2-10(11)12-8-9-6-4-3-5-7-9/h2-7H,1,8H2",
        "InChIKey": null,
        "Canonical SMILES": "O=C(OCC=1C=CC=CC1)C=C",
        "Molecular Formula": "C<sub>10</sub>H<sub>10</sub>O<sub>2</sub>",
        "Molecular Mass": "162.19",
        "Boiling Point": "94 °C @ Press: 6 Torr",
        "Melting Point": "214-216 °C",
        "Density": "1.053 g/cm³ @ Temp: 20 °C"
    }
}