{
    "cas_no": "13877-91-3",
    "key_name": "β-Ocimene",
    "cn_name": "罗勒烯;3,7-二甲基-1,3,6-辛三烯;Α-罗勒烯;",
    "alternate_name": "1,3,6-Octatriene, 3,7-dimethyl-;β-Ocimene;3,7-Dimethyl-1,3,6-octatriene",
    "duplicated_cas_no": "1856-63-9;11009-78-2;11022-64-3",
    "SMILES": "C(=CCC=C(C)C)(C=C)C",
    "meta_data": {
        "InChI": "InChI=1S/C10H16/c1-5-10(4)8-6-7-9(2)3/h5,7-8H,1,6H2,2-4H3",
        "InChIKey": null,
        "Canonical SMILES": "C=CC(=CCC=C(C)C)C",
        "Molecular Formula": "C<sub>10</sub>H<sub>16</sub>",
        "Molecular Mass": "136.23",
        "Boiling Point": "73 °C",
        "Density": "0.8000 g/cm³ @ Temp: 204 °C"
    }
}