{
    "cas_no": "111-24-0",
    "key_name": "1,5-Dibromopentane",
    "cn_name": "1,5-二溴戊烷;",
    "alternate_name": "Pentane, 1,5-dibromo-;1,5-Dibromopentane;Pentamethylene bromide;Pentamethylene dibromide;1,5-Pentanedibromide;NSC 5373",
    "duplicated_cas_no": "",
    "SMILES": "C(CCBr)CCBr",
    "meta_data": {
        "InChI": "InChI=1S/C5H10Br2/c6-4-2-1-3-5-7/h1-5H2",
        "InChIKey": null,
        "Canonical SMILES": "BrCCCCCBr",
        "Molecular Formula": "C<sub>5</sub>H<sub>10</sub>Br<sub>2</sub>",
        "Molecular Mass": "229.94",
        "Boiling Point": "222.3 °C",
        "Melting Point": "-39.5 °C",
        "Density": "1.703 g/cm³ @ Temp: 16 °C"
    }
}