{
    "cas_no": "364-83-0",
    "key_name": "1-(2,4-Difluorophenyl)ethanone",
    "cn_name": "2\",4\"-二氟苯乙酮;",
    "alternate_name": "Ethanone, 1-(2,4-difluorophenyl)-;Acetophenone, 2′,4′-difluoro-;1-(2,4-Difluorophenyl)ethanone;2,4-Difluoroacetophenone;2′,4′-Difluoroacetophenone;2,4-Difluorophenyl methyl ketone;<em>o</em>,<em>p</em>-Difluoroacetophenone;1-(2,4-Difluorophenyl)ethan-1-one",
    "duplicated_cas_no": "",
    "SMILES": "C(C)(=O)C1=C(F)C=C(F)C=C1",
    "meta_data": {
        "InChI": "InChI=1S/C8H6F2O/c1-5(11)7-3-2-6(9)4-8(7)10/h2-4H,1H3",
        "InChIKey": null,
        "Canonical SMILES": "O=C(C1=CC=C(F)C=C1F)C",
        "Molecular Formula": "C<sub>8</sub>H<sub>6</sub>F<sub>2</sub>O",
        "Molecular Mass": "156.13",
        "Boiling Point": "80-81 °C @ Press: 25 Torr"
    }
}