{
    "cas_no": "2038-03-1",
    "key_name": "4-Morpholineethanamine",
    "cn_name": "N-(2-氨基乙基)吗啉;N-氨乙基吗啉;",
    "alternate_name": "4-Morpholineethanamine;Morpholine, 4-(2-aminoethyl)-;<em>N</em>-(2-Aminoethyl)morpholine;1-Amino-2-morpholinoethane;2-Morpholinoethylamine;β-Morpholinoethylamine;<em>N</em>-(β-Aminoethyl)morpholine;2-Morpholinoethanamine;2-(4-Morpholinyl)ethylamine;4-(2-Aminoethyl)morpholine;2-Morpholino-1-ethanamine;2-(4-Morpholinyl)ethanamine;2-(4-Morpholino)ethylamine;4-Aminoethylmorpholine;[2-(Morpholin-4-yl)ethyl]amine;2-(Morpholin-4-yl)ethan-1-amine;2-(Morpholin-4-yl)ethanamine",
    "duplicated_cas_no": "850360-43-9",
    "SMILES": "C(CN)N1CCOCC1",
    "meta_data": {
        "InChI": "InChI=1S/C6H14N2O/c7-1-2-8-3-5-9-6-4-8/h1-7H2",
        "InChIKey": null,
        "Canonical SMILES": "O1CCN(CC1)CCN",
        "Molecular Formula": "C<sub>6</sub>H<sub>14</sub>N<sub>2</sub>O",
        "Molecular Mass": "130.19",
        "Boiling Point": "205 °C",
        "Melting Point": "25.6 °C",
        "Density": "0.992 g/cm³"
    }
}