{
    "cas_no": "1477-68-5",
    "key_name": "3-<em>O</em>-Methyldopamine hydrochloride",
    "cn_name": "甲基多巴胺盐酸盐;3-O-甲基多巴胺盐酸盐;3-甲氧基-4-羟基-&beta;-苯乙胺盐酸盐,3-甲氧基多巴胺盐酸盐;",
    "alternate_name": "Phenol, 4-(2-aminoethyl)-2-methoxy-, hydrochloride (1:1);Phenol, 4-(2-aminoethyl)-2-methoxy-, hydrochloride;Guaiacol, 4-(2-aminoethyl)-, hydrochloride;2-Methoxytyramine hydrochloride;4-Hydroxy-3-methoxyphenethylamine hydrochloride;3-<em>O</em>-Methyldopamine hydrochloride;3-Methoxy-4-hydroxyphenethylamine hydrochloride;4-Hydroxy-3-methoxy-β-phenethylamine hydrochloride;4-(2-Aminoethyl)-2-methoxyphenol hydrochloride;2-(4-Hydroxy-3-methoxyphenyl)-ethylamine hydrochloride",
    "duplicated_cas_no": "",
    "SMILES": "O(C)C1=CC(CCN)=CC=C1O.Cl",
    "meta_data": {
        "InChI": "InChI=1S/C9H13NO2.ClH/c1-12-9-6-7(4-5-10)2-3-8(9)11;/h2-3,6,11H,4-5,10H2,1H3;1H",
        "InChIKey": null,
        "Canonical SMILES": "Cl.OC1=CC=C(C=C1OC)CCN",
        "Molecular Formula": "C<sub>9</sub>H<sub>13</sub>NO<sub>2</sub>.ClH",
        "Molecular Mass": "",
        "Melting Point": "213-214 °C"
    }
}