{
    "cas_no": "20776-55-0",
    "key_name": "2-Amino-3-iodobenzoic acid",
    "cn_name": null,
    "alternate_name": "Benzoic acid, 2-amino-3-iodo-;Anthranilic acid, 3-iodo-;2-Amino-3-iodobenzoic acid;3-Iodoanthranilic acid;NSC 135149",
    "duplicated_cas_no": "",
    "SMILES": "C(O)(=O)C1=C(N)C(I)=CC=C1",
    "meta_data": {
        "InChI": "InChI=1S/C7H6INO2/c8-5-3-1-2-4(6(5)9)7(10)11/h1-3H,9H2,(H,10,11)",
        "InChIKey": null,
        "Canonical SMILES": "O=C(O)C=1C=CC=C(I)C1N",
        "Molecular Formula": "C<sub>7</sub>H<sub>6</sub>INO<sub>2</sub>",
        "Molecular Mass": "263.03",
        "Melting Point": "208-209 °C"
    }
}