{
    "cas_no": "2964-09-2",
    "key_name": "Ethanaminium, 2-(benzoyloxy)-<em>N</em>,<em>N</em>,<em>N</em>-trimethyl-, chloride (1:1)",
    "cn_name": "氯化苯甲酰胆碱;苯甲酰氯化胆碱;氯代苯酰维生素B;氯化苯甲酰胆碱,99%;苯甲酰胆碱氯;",
    "alternate_name": "Ethanaminium, 2-(benzoyloxy)-<em>N</em>,<em>N</em>,<em>N</em>-trimethyl-, chloride (1:1);Choline, chloride, benzoate;Ethanaminium, 2-(benzoyloxy)-<em>N</em>,<em>N</em>,<em>N</em>-trimethyl-, chloride;Benzoylcholine chloride",
    "duplicated_cas_no": "",
    "SMILES": "C(OCC[N+](C)(C)C)(=O)C1=CC=CC=C1.[Cl-]",
    "meta_data": {
        "InChI": "InChI=1S/C12H18NO2.ClH/c1-13(2,3)9-10-15-12(14)11-7-5-4-6-8-11;/h4-8H,9-10H2,1-3H3;1H/q+1;/p-1",
        "InChIKey": null,
        "Canonical SMILES": "[Cl-].O=C(OCC[N+](C)(C)C)C=1C=CC=CC1",
        "Molecular Formula": "C<sub>12</sub>H<sub>18</sub>NO<sub>2</sub>.Cl",
        "Molecular Mass": "",
        "Melting Point": "200 °C"
    }
}