{
    "cas_no": "101-80-4",
    "key_name": "4,4′-Diaminodiphenyl ether",
    "cn_name": "4,4\"-二氨基二苯醚;",
    "alternate_name": "Benzenamine, 4,4′-oxybis-;Aniline, 4,4′-oxydi-;4,4′-Oxybis[benzenamine];4,4′-Diaminophenyl ether;<em>p</em>,<em>p</em>′-Oxydianiline;4,4′-Diaminodiphenyl ether;Oxybis(4-aminobenzene);Oxydi-<em>p</em>-phenylenediamine;4,4′-Oxydianiline;Bis(4-aminophenyl) ether;<em>p</em>,<em>p</em>′-Oxybis[aniline];<em>p</em>,<em>p</em>′-Diaminodiphenyl ether;Bis(<em>p</em>-aminophenyl) ether;4,4′-Diaminobiphenyl oxide;Oxydianiline;4-Aminophenyl ether;4,4′-Oxybis(aniline);<em>p</em>-Aminophenyl ether;4,4′-Oxydiphenylamine;ODA;4,4′-Diaminobiphenyl ether;4,4′-Diaminodiphenyl oxide;NSC 37075;NSC 6089;4-(4-Aminophenoxy)phenylamine;DPE;DPE (amine);Di(4-aminophenyl) ether;1-Amino-4-(4-aminophenoxy)benzene;DDE;4-(4′-Aminophenoxy)benzenamine;4-(4-Aminophenoxy)aniline;4,4′-Oxidianiline;GJ 0071;DADPE;4,4′-ODA;4,4′-DAE",
    "duplicated_cas_no": "121509-79-3;928208-61-1;2762484-87-5",
    "SMILES": "O(C1=CC=C(N)C=C1)C2=CC=C(N)C=C2",
    "meta_data": {
        "InChI": "InChI=1S/C12H12N2O/c13-9-1-5-11(6-2-9)15-12-7-3-10(14)4-8-12/h1-8H,13-14H2",
        "InChIKey": null,
        "Canonical SMILES": "O(C1=CC=C(N)C=C1)C2=CC=C(N)C=C2",
        "Molecular Formula": "C<sub>12</sub>H<sub>12</sub>N<sub>2</sub>O",
        "Molecular Mass": "200.24",
        "Boiling Point": "&gt;300 °C",
        "Melting Point": "186-187 °C",
        "Density": "1.417 g/cm³"
    }
}