{
    "cas_no": "99586-66-0",
    "key_name": "2-Amino-4-chloro-6-methyl-5-pyrimidinecarbonitrile",
    "cn_name": null,
    "alternate_name": "5-Pyrimidinecarbonitrile, 2-amino-4-chloro-6-methyl-;2-Amino-4-chloro-6-methyl-5-pyrimidinecarbonitrile;2-Amino-4-chloro-6-methylpyrimidine-5-carbonitrile",
    "duplicated_cas_no": "",
    "SMILES": "C(#N)C=1C(C)=NC(N)=NC1Cl",
    "meta_data": {
        "InChI": "InChI=1S/C6H5ClN4/c1-3-4(2-8)5(7)11-6(9)10-3/h1H3,(H2,9,10,11)",
        "InChIKey": null,
        "Canonical SMILES": "N#CC1=C(Cl)N=C(N=C1C)N",
        "Molecular Formula": "C<sub>6</sub>H<sub>5</sub>ClN<sub>4</sub>",
        "Molecular Mass": "168.58",
        "Melting Point": "258-259 °C (decomp)"
    }
}