{
    "cas_no": "96-83-3",
    "key_name": "(±)-Iopanoic acid",
    "cn_name": "碘番酸;碘泛酸;三碘氨苯乙基丙酸;2-乙基-3-(3-氨基-2,4,6-三碘苯)丙酸;",
    "alternate_name": "Benzenepropanoic acid, 3-amino-α-ethyl-2,4,6-triiodo-;Hydrocinnamic acid, 3-amino-α-ethyl-2,4,6-triiodo-;3-Amino-α-ethyl-2,4,6-triiodobenzenepropanoic acid;3-Amino-α-ethyl-2,4,6-triiodohydrocinnamic acid;2-(3-Amino-2,4,6-triiodobenzyl)butyric acid;3-(3-Amino-2,4,6-triiodophenyl)-2-ethylpropanoic acid;Copanoic;2-Ethyl-3-(3-amino-2,4,6-triiodophenyl)propionic acid;Iodopanic acid;Iodopanoic acid;Iopanoic acid;Jopagnost;Telepaque;α-Ethyl-β-(3-amino-2,4,6-triiodophenyl)propionic acid;3-(3-Amino-2,4,6-triiodophenyl)-2-ethylpropionic acid;Colepax;Iopanoicum;Cholevid;Iopagnost;Bilijodon;Choladine;Cistobil;(±)-Iopanoic acid;NSC 41706;2-[(5-Amino-2,4,6-triiodophenyl)methyl]butanoic acid;2-[(3-Amino-2,4,6-triiodophenyl)methyl]butanoic acid;2-(3-Amino-2,4,6-triiodobenzyl)butanoic acid;MeSH ID: D007480",
    "duplicated_cas_no": "17879-93-5",
    "SMILES": "C(C(C(O)=O)CC)C1=C(I)C(N)=C(I)C=C1I",
    "meta_data": {
        "InChI": "InChI=1S/C11H12I3NO2/c1-2-5(11(16)17)3-6-7(12)4-8(13)10(15)9(6)14/h4-5H,2-3,15H2,1H3,(H,16,17)",
        "InChIKey": null,
        "Canonical SMILES": "O=C(O)C(CC=1C(I)=CC(I)=C(N)C1I)CC",
        "Molecular Formula": "C<sub>11</sub>H<sub>12</sub>I<sub>3</sub>NO<sub>2</sub>",
        "Molecular Mass": "570.93",
        "Melting Point": "155.2 °C"
    }
}