{
    "cas_no": "3167-63-3",
    "key_name": "Diethyl <em>P</em>-(chloromethyl)phosphonate",
    "cn_name": "二甲基(氯甲基)丙烯酯;",
    "alternate_name": "Phosphonic acid, <em>P</em>-(chloromethyl)-, diethyl ester;Phosphonic acid, (chloromethyl)-, diethyl ester;Diethyl <em>P</em>-(chloromethyl)phosphonate;Diethyl (chloromethyl)phosphonate;Diethyl chloromethanephosphonate;Chloromethylphosphonic acid diethyl ester;NSC 67753;1-[Chloromethyl(ethoxy)phosphoryl]oxyethane",
    "duplicated_cas_no": "",
    "SMILES": "P(OCC)(OCC)(CCl)=O",
    "meta_data": {
        "InChI": "InChI=1S/C5H12ClO3P/c1-3-8-10(7,5-6)9-4-2/h3-5H2,1-2H3",
        "InChIKey": null,
        "Canonical SMILES": "O=P(OCC)(OCC)CCl",
        "Molecular Formula": "C<sub>5</sub>H<sub>12</sub>ClO<sub>3</sub>P",
        "Molecular Mass": "186.57",
        "Boiling Point": "109-111 °C @ Press: 10 Torr",
        "Density": "1.1909 g/cm³ @ Temp: 20 °C"
    }
}