{
    "cas_no": "479-41-4",
    "key_name": "Indirubin",
    "cn_name": "靛玉红;2-(2-氧代-1H-吲哚-3-亚基)-1H-吲哚-3-酮;",
    "alternate_name": "2<em>H</em>-Indol-2-one, 3-(1,3-dihydro-3-oxo-2<em>H</em>-indol-2-ylidene)-1,3-dihydro-;[Δ<sup>2,3′</sup>-Biindoline]-2′,3-dione;Indirubin;3-(1,3-Dihydro-3-oxo-2<em>H</em>-indol-2-ylidene)-1,3-dihydro-2<em>H</em>-indol-2-one;C.I. 73200;Indigopurpurin;Indigo red;Couroupitine B;NSC 105327",
    "duplicated_cas_no": "53570-83-5;396106-96-0;1199246-06-4",
    "SMILES": "O=C1C(C=2C(N1)=CC=CC2)=C3NC=4C(C3=O)=CC=CC4",
    "meta_data": {
        "InChI": "InChI=1S/C16H10N2O2/c19-15-10-6-2-4-8-12(10)17-14(15)13-9-5-1-3-7-11(9)18-16(13)20/h1-8,17H,(H,18,20)",
        "InChIKey": null,
        "Canonical SMILES": "O=C1NC=2C=CC=CC2C1=C3NC=4C=CC=CC4C3=O",
        "Molecular Formula": "C<sub>16</sub>H<sub>10</sub>N<sub>2</sub>O<sub>2</sub>",
        "Molecular Mass": "262.26",
        "Melting Point": "204-205 °C"
    }
}