{
    "cas_no": "102625-64-9",
    "key_name": "Pantoprazole sulfide",
    "cn_name": "5-(二氟甲氧基)-2-{[(3,4-二甲氧基-2-吡啶基)甲基]硫}-1H-苯并咪唑;",
    "alternate_name": "1<em>H</em>-Benzimidazole, 6-(difluoromethoxy)-2-[[(3,4-dimethoxy-2-pyridinyl)methyl]thio]-;1<em>H</em>-Benzimidazole, 5-(difluoromethoxy)-2-[[(3,4-dimethoxy-2-pyridinyl)methyl]thio]-;6-(Difluoromethoxy)-2-[[(3,4-dimethoxy-2-pyridinyl)methyl]thio]-1<em>H</em>-benzimidazole;H 258/28;5-(Difluoromethoxy)-2-[[(3,4-dimethoxy-2-pyridyl)methyl]thio]-1<em>H</em>-benzimidazole;5-(Difluoromethoxy)-2-[[(3,4-dimethoxy-2-pyridinyl)methyl]thio]-1<em>H</em>-benzimidazole;Pantoprazole sulfide;Pantoprazole thioether",
    "duplicated_cas_no": "",
    "SMILES": "S(CC1=C(OC)C(OC)=CC=N1)C=2NC=3C(N2)=CC(OC(F)F)=CC3",
    "meta_data": {
        "InChI": "InChI=1S/C16H15F2N3O3S/c1-22-13-5-6-19-12(14(13)23-2)8-25-16-20-10-4-3-9(24-15(17)18)7-11(10)21-16/h3-7,15H,8H2,1-2H3,(H,20,21)",
        "InChIKey": null,
        "Canonical SMILES": "FC(F)OC=1C=CC=2NC(=NC2C1)SCC3=NC=CC(OC)=C3OC",
        "Molecular Formula": "C<sub>16</sub>H<sub>15</sub>F<sub>2</sub>N<sub>3</sub>O<sub>3</sub>S",
        "Molecular Mass": "367.37",
        "Melting Point": "165-170 °C"
    }
}