{
    "cas_no": "100-84-5",
    "key_name": "3-Methylanisole",
    "cn_name": "间甲基苯甲醚;3-甲基苯甲醚;",
    "alternate_name": "Benzene, 1-methoxy-3-methyl-;Anisole, <em>m</em>-methyl-;1-Methoxy-3-methylbenzene;<em>m</em>-Methylanisole;Methyl <em>m</em>-tolyl ether;3-Methylanisole;<em>m</em>-Cresol methyl ether;3-Methoxytoluene;<em>m</em>-Methoxytoluene;<em>m</em>-Cresyl methyl ether;3-Methyl-1-methoxybenzene;3-Cresol methyl ether;m-Methylanisole;NSC 6255;3-Methoxy-1-methylbenzene",
    "duplicated_cas_no": "",
    "SMILES": "O(C)C1=CC(C)=CC=C1",
    "meta_data": {
        "InChI": "InChI=1S/C8H10O/c1-7-4-3-5-8(6-7)9-2/h3-6H,1-2H3",
        "InChIKey": null,
        "Canonical SMILES": "O(C1=CC=CC(=C1)C)C",
        "Molecular Formula": "C<sub>8</sub>H<sub>10</sub>O",
        "Molecular Mass": "122.16",
        "Boiling Point": "175.5 °C",
        "Melting Point": "-47 °C",
        "Density": "0.9716 g/cm³"
    }
}