{
    "cas_no": "110-81-6",
    "key_name": "Diethyl disulfide",
    "cn_name": "二乙基二硫;二乙基二硫醚;乙基二硫醚;",
    "alternate_name": "Disulfide, diethyl;Ethyl disulfide;Diethyl disulfide;3,4-Dithiahexane;Ethyldithioethane;Ethyl disulphide;NSC 8839;Diethyl dithioether;1,2-Diethyldisulfane;(Ethyldisulfanyl)ethane",
    "duplicated_cas_no": "",
    "SMILES": "S(SCC)CC",
    "meta_data": {
        "InChI": "InChI=1S/C4H10S2/c1-3-5-6-4-2/h3-4H2,1-2H3",
        "InChIKey": null,
        "Canonical SMILES": "S(SCC)CC",
        "Molecular Formula": "C<sub>4</sub>H<sub>10</sub>S<sub>2</sub>",
        "Molecular Mass": "122.25",
        "Boiling Point": "154.1 °C",
        "Melting Point": "-101.5 °C",
        "Density": "0.8363 g/cm³ @ Temp: 20 °C"
    }
}