{
    "cas_no": "1160556-64-8",
    "key_name": "2′-(Dicyclohexylphosphino)-<em>N</em><sup>2</sup>,<em>N</em><sup>2</sup>,<em>N</em><sup>6</sup>,<em>N</em><sup>6</sup>-tetramethyl[1,1′-biphenyl]-2,6-diamine",
    "cn_name": null,
    "alternate_name": "[1,1′-Biphenyl]-2,6-diamine, 2′-(dicyclohexylphosphino)-<em>N</em><sup>2</sup>,<em>N</em><sup>2</sup>,<em>N</em><sup>6</sup>,<em>N</em><sup>6</sup>-tetramethyl-;2′-(Dicyclohexylphosphino)-<em>N</em><sup>2</sup>,<em>N</em><sup>2</sup>,<em>N</em><sup>6</sup>,<em>N</em><sup>6</sup>-tetramethyl[1,1′-biphenyl]-2,6-diamine;CPhos;2-(2-Dicyclohexylphosphanylphenyl)-1-<em>N</em>,1-<em>N</em>,3-<em>N</em>,3-<em>N</em>-tetramethylbenzene-1,3-diamine;2′-(Dicyclohexylphosphino)-N2,N2,N6,N6-tetramethyl-[1,1′-biphenyl]-2,6-diamine",
    "duplicated_cas_no": "",
    "SMILES": "P(C1=C(C=CC=C1)C2=C(N(C)C)C=CC=C2N(C)C)(C3CCCCC3)C4CCCCC4",
    "meta_data": {
        "InChI": "InChI=1S/C28H41N2P/c1-29(2)25-19-13-20-26(30(3)4)28(25)24-18-11-12-21-27(24)31(22-14-7-5-8-15-22)23-16-9-6-10-17-23/h11-13,18-23H,5-10,14-17H2,1-4H3",
        "InChIKey": null,
        "Canonical SMILES": "C1=CC=C(C(=C1)C=2C(=CC=CC2N(C)C)N(C)C)P(C3CCCCC3)C4CCCCC4",
        "Molecular Formula": "C<sub>28</sub>H<sub>41</sub>N<sub>2</sub>P",
        "Molecular Mass": "436.61",
        "Melting Point": "111-113 °C"
    }
}