{
    "cas_no": "111-31-9",
    "key_name": "1-Hexanethiol",
    "cn_name": "1-己硫醇;",
    "alternate_name": "1-Hexanethiol;Hexanethiol;Hexyl mercaptan;Hexan-1-thiol;<em>n</em>-Hexyl mercaptan;<em>n</em>-Hexylthiol;Hexylthiol;<em>n</em>-Hexanethiol;1-Hexyl mercaptan;1-Mercaptohexane;1-Hexylthiol;NSC 99106",
    "duplicated_cas_no": "2022216-71-1",
    "SMILES": "C(CCC)CCS",
    "meta_data": {
        "InChI": "InChI=1S/C6H14S/c1-2-3-4-5-6-7/h7H,2-6H2,1H3",
        "InChIKey": null,
        "Canonical SMILES": "SCCCCCC",
        "Molecular Formula": "C<sub>6</sub>H<sub>14</sub>S",
        "Molecular Mass": "118.24",
        "Boiling Point": "151 °C",
        "Melting Point": "-81 °C",
        "Density": "0.8367 g/cm³ @ Temp: 25 °C"
    }
}