{
    "cas_no": "507-25-5",
    "key_name": "Tetraiodomethane",
    "cn_name": null,
    "alternate_name": "Methane, tetraiodo-;Carbon tetraiodide;Tetraiodomethane;Carbon iodide (CI<sub>4</sub>)",
    "duplicated_cas_no": "",
    "SMILES": "C(I)(I)(I)I",
    "meta_data": {
        "InChI": "InChI=1S/CI4/c2-1(3,4)5",
        "InChIKey": null,
        "Canonical SMILES": "IC(I)(I)I",
        "Molecular Formula": "CI<sub>4</sub>",
        "Molecular Mass": "519.63",
        "Melting Point": "171 °C",
        "Density": "4.50 g/cm³ @ Temp: 0 °C"
    }
}