{
    "cas_no": "702-96-5",
    "key_name": "2,2,5,5-Tetramethyl-3-pyrrolidinecarboxamide",
    "cn_name": "2,2,5,5-四甲基-3-吡咯烷羧酰胺;2,2,5,5-四甲基-3-吡咯烷羧酰胺;2,2,5,5-四甲基吡咯烷-3-氨甲酰胺;",
    "alternate_name": "3-Pyrrolidinecarboxamide, 2,2,5,5-tetramethyl-;2,2,5,5-Tetramethyl-3-pyrrolidinecarboxamide;3-Aminocarbonyl-2,2,5,5-tetramethylpyrrolidine;3-Carbamoyl-2,2,5,5-tetramethylpyrrolidine;2,2,5,5-Tetramethylpyrrolidine-3-carboxamide;2,2,5,5-Tetramethyl-pyrrolidine-3-carboxylic acid amide",
    "duplicated_cas_no": "68354-49-4",
    "SMILES": "C(N)(=O)C1C(C)(C)NC(C)(C)C1",
    "meta_data": {
        "InChI": "InChI=1S/C9H18N2O/c1-8(2)5-6(7(10)12)9(3,4)11-8/h6,11H,5H2,1-4H3,(H2,10,12)",
        "InChIKey": null,
        "Canonical SMILES": "O=C(N)C1CC(NC1(C)C)(C)C",
        "Molecular Formula": "C<sub>9</sub>H<sub>18</sub>N<sub>2</sub>O",
        "Molecular Mass": "170.25",
        "Melting Point": "126-129 °C"
    }
}