{
    "cas_no": "51234-28-7",
    "key_name": "Benoxaprofen",
    "cn_name": null,
    "alternate_name": "5-Benzoxazoleacetic acid, 2-(4-chlorophenyl)-α-methyl-;2-(4-Chlorophenyl)-α-methyl-5-benzoxazoleacetic acid;Benoxaprofen;LRCL 3794;Lilly 90459;Oraflex;Opren;(±)-Benoxaprofen;(<em>RS</em>)-Benoxaprofen;<em>dl</em>-Benoxaprofen;(±)-2-(4-Chlorophenyl)-α-methyl-5-benzoxazoleacetic acid;Coxigon;Compound 90459;Uniprofen;NSC 299582;2-[2-(4-Chlorophenyl)benzoxazol-5-yl]-propanoic acid;299582Q1;2-(2-(4-Chlorophenyl)benzo[<em>d</em>]oxazol-5-yl)propanoic acid",
    "duplicated_cas_no": "67434-14-4",
    "SMILES": "C(C(O)=O)(C)C=1C=C2C(OC(=N2)C3=CC=C(Cl)C=C3)=CC1",
    "meta_data": {
        "InChI": "InChI=1S/C16H12ClNO3/c1-9(16(19)20)11-4-7-14-13(8-11)18-15(21-14)10-2-5-12(17)6-3-10/h2-9H,1H3,(H,19,20)",
        "InChIKey": null,
        "Canonical SMILES": "O=C(O)C(C1=CC=C2OC(=NC2=C1)C=3C=CC(Cl)=CC3)C",
        "Molecular Formula": "C<sub>16</sub>H<sub>12</sub>ClNO<sub>3</sub>",
        "Molecular Mass": "301.72",
        "Melting Point": "189-190 °C"
    }
}