{
    "cas_no": "198470-84-7",
    "key_name": "Parecoxib",
    "cn_name": null,
    "alternate_name": "Propanamide, <em>N</em>-[[4-(5-methyl-3-phenyl-4-isoxazolyl)phenyl]sulfonyl]-;<em>N</em>-[[4-(5-Methyl-3-phenyl-4-isoxazolyl)phenyl]sulfonyl]propanamide;Parecoxib;SC 69124;Vorth-P;Valus-P;Xapit",
    "duplicated_cas_no": "",
    "SMILES": "CC1=C(C(=NO1)C2=CC=CC=C2)C3=CC=C(S(NC(CC)=O)(=O)=O)C=C3",
    "meta_data": {
        "InChI": "InChI=1S/C19H18N2O4S/c1-3-17(22)21-26(23,24)16-11-9-14(10-12-16)18-13(2)25-20-19(18)15-7-5-4-6-8-15/h4-12H,3H2,1-2H3,(H,21,22)",
        "InChIKey": null,
        "Canonical SMILES": "O=C(NS(=O)(=O)C1=CC=C(C=C1)C=2C(=NOC2C)C=3C=CC=CC3)CC",
        "Molecular Formula": "C<sub>19</sub>H<sub>18</sub>N<sub>2</sub>O<sub>4</sub>S",
        "Molecular Mass": "370.42",
        "Melting Point": "142-143 °C"
    }
}