{
    "cas_no": "522-12-3",
    "key_name": "Quercitrin",
    "cn_name": "槲皮苷;榭黄甙;槲皮甙;栎素;橡皮甙;",
    "alternate_name": "4<em>H</em>-1-Benzopyran-4-one, 3-[(6-deoxy-α-<span class=\"text-smallcaps\">L</span>-mannopyranosyl)oxy]-2-(3,4-dihydroxyphenyl)-5,7-dihydroxy-;Quercitrin;3-[(6-Deoxy-α-<span class=\"text-smallcaps\">L</span>-mannopyranosyl)oxy]-2-(3,4-dihydroxyphenyl)-5,7-dihydroxy-4<em>H</em>-1-benzopyran-4-one;C.I. 75720;3,3′,4′,5,7-Pentahydroxyflavone 3-α-<span class=\"text-smallcaps\">L</span>-rhamnoside;Quercetin 3-α-<span class=\"text-smallcaps\">L</span>-rhamnoside;Quercimelin;Quercitroside;Quercetin 3-rhamnoside;Quercetin 3-<em>O</em>-α-<span class=\"text-smallcaps\">L</span>-rhamnoside;Quercetin 3-<em>O</em>-α-<span class=\"text-smallcaps\">L</span>-rhamnopyranoside;NSC 9221;WA 17779;3-<em>O</em>-α-<span class=\"text-smallcaps\">L</span>-Rhamnopyranosylquercetin;Quercetin rhamnoside;5,7,3′,4′-Tetrahydroxyflavone 3-<em>O</em>-α-<span class=\"text-smallcaps\">L</span>-rhamnoside;Quercetin 3-α-rhamnoside;Quercetin 3-<em>O</em>-rhamnoside;Quercetin 3-<em>O</em>-α-rhamnopyranoside;Quercetin 3-<em>O</em>-α-rhamnoside;Quercetin 3-rhamnopyranoside",
    "duplicated_cas_no": "29660-86-4;52828-35-0;52882-53-8;64626-60-4;158800-81-8;124827-82-3;912616-94-5;1207354-36-6",
    "SMILES": "O(C1=C(OC=2C(C1=O)=C(O)C=C(O)C2)C3=CC(O)=C(O)C=C3)[C@H]4[C@H](O)[C@H](O)[C@@H](O)[C@H](C)O4",
    "meta_data": {
        "InChI": "InChI=1S/C21H20O11/c1-7-15(26)17(28)18(29)21(30-7)32-20-16(27)14-12(25)5-9(22)6-13(14)31-19(20)8-2-3-10(23)11(24)4-8/h2-7,15,17-18,21-26,28-29H,1H3/t7-,15-,17+,18+,21-/m0/s1",
        "InChIKey": null,
        "Canonical SMILES": "O=C1C(OC2OC(C)C(O)C(O)C2O)=C(OC=3C=C(O)C=C(O)C13)C=4C=CC(O)=C(O)C4",
        "Molecular Formula": "C<sub>21</sub>H<sub>20</sub>O<sub>11</sub>",
        "Molecular Mass": "448.38",
        "Melting Point": "170 °C"
    }
}