{
    "cas_no": "95885-13-5",
    "key_name": "5-Ethyl-2,4-dihydro-4-(2-phenoxyethyl)-3<em>H</em>-1,2,4-triazol-3-one",
    "cn_name": "5-乙基-4-(2-苯氧基乙基)-2H-1,2,4-三氮唑-3(4H)-酮;",
    "alternate_name": "3<em>H</em>-1,2,4-Triazol-3-one, 5-ethyl-2,4-dihydro-4-(2-phenoxyethyl)-;5-Ethyl-2,4-dihydro-4-(2-phenoxyethyl)-3<em>H</em>-1,2,4-triazol-3-one;4-(2-Phenoxyethyl)-5-ethyl-1,2,4-triazol-3-one;3-Ethyl-4-(2-phenoxyethyl)-1<em>H</em>-1,2,4-triazol-5-one",
    "duplicated_cas_no": "",
    "SMILES": "C(COC1=CC=CC=C1)N2C(CC)=NNC2=O",
    "meta_data": {
        "InChI": "InChI=1S/C12H15N3O2/c1-2-11-13-14-12(16)15(11)8-9-17-10-6-4-3-5-7-10/h3-7H,2,8-9H2,1H3,(H,14,16)",
        "InChIKey": null,
        "Canonical SMILES": "O=C1NN=C(N1CCOC=2C=CC=CC2)CC",
        "Molecular Formula": "C<sub>12</sub>H<sub>15</sub>N<sub>3</sub>O<sub>2</sub>",
        "Molecular Mass": "233.27",
        "Melting Point": "135-138 °C"
    }
}