{
    "cas_no": "68155-69-1",
    "key_name": "1-Bromo-4-ethoxy-2-methylbenzene",
    "cn_name": null,
    "alternate_name": "Benzene, 1-bromo-4-ethoxy-2-methyl-;1-Bromo-4-ethoxy-2-methylbenzene;2-Bromo-5-ethoxytoluene",
    "duplicated_cas_no": "",
    "SMILES": "O(CC)C1=CC(C)=C(Br)C=C1",
    "meta_data": {
        "InChI": "InChI=1S/C9H11BrO/c1-3-11-8-4-5-9(10)7(2)6-8/h4-6H,3H2,1-2H3",
        "InChIKey": null,
        "Canonical SMILES": "BrC1=CC=C(OCC)C=C1C",
        "Molecular Formula": "C<sub>9</sub>H<sub>11</sub>BrO",
        "Molecular Mass": "215.09",
        "Boiling Point": "129 °C @ Press: 10 Torr"
    }
}