{
    "cas_no": "5159-41-1",
    "key_name": "2-Iodobenzyl alcohol",
    "cn_name": "2-碘苄醇;2-碘苯甲醇;",
    "alternate_name": "Benzenemethanol, 2-iodo-;Benzyl alcohol, <em>o</em>-iodo-;2-Iodobenzenemethanol;<em>o</em>-Iodobenzyl alcohol;2-Iodobenzyl alcohol;2-(Hydroxymethyl)iodobenzene;1-Hydroxymethyl-2-iodobenzene;2-Iodophenylmethanol;2-(Hydroxymethyl)-1-iodobenzene",
    "duplicated_cas_no": "185532-99-4",
    "SMILES": "C(O)C1=C(I)C=CC=C1",
    "meta_data": {
        "InChI": "InChI=1S/C7H7IO/c8-7-4-2-1-3-6(7)5-9/h1-4,9H,5H2",
        "InChIKey": null,
        "Canonical SMILES": "IC=1C=CC=CC1CO",
        "Molecular Formula": "C<sub>7</sub>H<sub>7</sub>IO",
        "Molecular Mass": "234.03",
        "Melting Point": "92 °C"
    }
}