{
    "cas_no": "25415-67-2",
    "key_name": "Ethyl 4-methylpentanoate",
    "cn_name": null,
    "alternate_name": "Pentanoic acid, 4-methyl-, ethyl ester;Valeric acid, 4-methyl-, ethyl ester;Ethyl 4-methylpentanoate;Ethyl isocaproate;Ethyl 4-methylvalerate;Ethyl isohexanoate",
    "duplicated_cas_no": "",
    "SMILES": "C(CCC(C)C)(OCC)=O",
    "meta_data": {
        "InChI": "InChI=1S/C8H16O2/c1-4-10-8(9)6-5-7(2)3/h7H,4-6H2,1-3H3",
        "InChIKey": null,
        "Canonical SMILES": "O=C(OCC)CCC(C)C",
        "Molecular Formula": "C<sub>8</sub>H<sub>16</sub>O<sub>2</sub>",
        "Molecular Mass": "144.21",
        "Boiling Point": "163 °C",
        "Density": "0.8700 g/cm³ @ Temp: 420 °C"
    }
}