{
    "cas_no": "4670-05-7",
    "key_name": "Theaflavin",
    "cn_name": "茶黄素;",
    "alternate_name": "5<em>H</em>-Benzocyclohepten-5-one, 1,8-bis[(2<em>R</em>,3<em>R</em>)-3,4-dihydro-3,5,7-trihydroxy-2<em>H</em>-1-benzopyran-2-yl]-3,4,6-trihydroxy-;Theaflavin;Theaflavine;5<em>H</em>-Benzocyclohepten-5-one, 3,4,6-trihydroxy-1,8-bis(3α,5,7-trihydroxy-2α-chromanyl)-;5<em>H</em>-Benzocyclohepten-5-one, 1,8-bis(3,4-dihydro-3,5,7-trihydroxy-2<em>H</em>-1-benzopyran-2-yl)-3,4,6-trihydroxy-, [2<em>R</em>-[2α(2<em>R</em>*,3<em>R</em>*),3α]]-;1,8-Bis[(2<em>R</em>,3<em>R</em>)-3,4-dihydro-3,5,7-trihydroxy-2<em>H</em>-1-benzopyran-2-yl]-3,4,6-trihydroxy-5<em>H</em>-benzocyclohepten-5-one;(-)-Theaflavin;Theaflavin 1;Xiayie;TF 40",
    "duplicated_cas_no": "131486-05-0;47826-45-9",
    "SMILES": "OC1=C2C(=C(C=C1O)[C@H]3OC=4C(C[C@H]3O)=C(O)C=C(O)C4)C=C(C=C(O)C2=O)[C@H]5OC=6C(C[C@H]5O)=C(O)C=C(O)C6",
    "meta_data": {
        "InChI": "InChI=1S/C29H24O12/c30-11-3-17(32)15-8-21(36)28(40-23(15)5-11)10-1-13-14(7-20(35)27(39)25(13)26(38)19(34)2-10)29-22(37)9-16-18(33)4-12(31)6-24(16)41-29/h1-7,21-22,28-33,35-37,39H,8-9H2,(H,34,38)/t21-,22-,28-,29-/m1/s1",
        "InChIKey": null,
        "Canonical SMILES": "O=C1C(O)=CC(=CC=2C1=C(O)C(O)=CC2C3OC=4C=C(O)C=C(O)C4CC3O)C5OC=6C=C(O)C=C(O)C6CC5O",
        "Molecular Formula": "C<sub>29</sub>H<sub>24</sub>O<sub>12</sub>",
        "Molecular Mass": "564.49",
        "Melting Point": "237-240 °C (decomp)"
    }
}