{
    "cas_no": "56684-87-8",
    "key_name": "Batatasin III",
    "cn_name": null,
    "alternate_name": "Phenol, 3-[2-(3-hydroxyphenyl)ethyl]-5-methoxy-;3-[2-(3-Hydroxyphenyl)ethyl]-5-methoxyphenol;Batatasin III;3,3′-Dihydroxy-5-methoxybibenzyl;Batatacin III",
    "duplicated_cas_no": "39354-57-9;54473-09-5",
    "SMILES": "C(CC1=CC(O)=CC=C1)C2=CC(OC)=CC(O)=C2",
    "meta_data": {
        "InChI": "InChI=1S/C15H16O3/c1-18-15-9-12(8-14(17)10-15)6-5-11-3-2-4-13(16)7-11/h2-4,7-10,16-17H,5-6H2,1H3",
        "InChIKey": null,
        "Canonical SMILES": "OC1=CC=CC(=C1)CCC=2C=C(O)C=C(OC)C2",
        "Molecular Formula": "C<sub>15</sub>H<sub>16</sub>O<sub>3</sub>",
        "Molecular Mass": "244.29",
        "Melting Point": "98 °C"
    }
}