{
    "cas_no": "611-20-1",
    "key_name": "2-Hydroxybenzonitrile",
    "cn_name": "邻羟基苯甲腈;2-羟基苯甲腈;",
    "alternate_name": "Benzonitrile, 2-hydroxy-;Salicylonitrile;2-Hydroxybenzonitrile;<em>o</em>-Hydroxybenzonitrile;<em>o</em>-Cyanophenol;2-Cyanophenol;Salicylnitrile;NSC 53558",
    "duplicated_cas_no": "",
    "SMILES": "C(#N)C1=C(O)C=CC=C1",
    "meta_data": {
        "InChI": "InChI=1S/C7H5NO/c8-5-6-3-1-2-4-7(6)9/h1-4,9H",
        "InChIKey": null,
        "Canonical SMILES": "N#CC=1C=CC=CC1O",
        "Molecular Formula": "C<sub>7</sub>H<sub>5</sub>NO",
        "Molecular Mass": "119.12",
        "Boiling Point": "149 °C",
        "Melting Point": "98 °C",
        "Density": "1.1052 g/cm³ @ Temp: 20 °C"
    }
}