{
    "cas_no": "118292-06-1",
    "key_name": "6-Ethynyl-3,4-dihydro-4,4-dimethyl-2<em>H</em>-1-benzothiopyran",
    "cn_name": "6-乙炔基-4,4-二甲基二氢苯并噻喃;",
    "alternate_name": "2<em>H</em>-1-Benzothiopyran, 6-ethynyl-3,4-dihydro-4,4-dimethyl-;6-Ethynyl-3,4-dihydro-4,4-dimethyl-2<em>H</em>-1-benzothiopyran;4,4-Dimethyl-6-ethynylthiochroman;6-Ethynyl-4,4-dimethyl-1,2,3,4-tetrahydro[1]benzthiothiopyran;(4,4-Dimethylthiochroman-6-yl)acetylene",
    "duplicated_cas_no": "",
    "SMILES": "CC1(C)C=2C(=CC=C(C#C)C2)SCC1",
    "meta_data": {
        "InChI": "InChI=1S/C13H14S/c1-4-10-5-6-12-11(9-10)13(2,3)7-8-14-12/h1,5-6,9H,7-8H2,2-3H3",
        "InChIKey": null,
        "Canonical SMILES": "C#CC1=CC=C2SCCC(C2=C1)(C)C",
        "Molecular Formula": "C<sub>13</sub>H<sub>14</sub>S",
        "Molecular Mass": "202.32",
        "Boiling Point": "100 °C @ Press: 0.7 Torr"
    }
}