{
    "cas_no": "374064-01-4",
    "key_name": "5-(3-Pyridinyl)-1<em>H</em>-pyrazole-3-carboxylic acid",
    "cn_name": null,
    "alternate_name": "1<em>H</em>-Pyrazole-3-carboxylic acid, 5-(3-pyridinyl)-;5-(3-Pyridinyl)-1<em>H</em>-pyrazole-3-carboxylic acid;5-(Pyridin-3-yl)-1<em>H</em>-pyrazole-3-carboxylic acid;3-Pyridin-3-yl-1<em>H</em>-pyrazole-5-carboxylic acid",
    "duplicated_cas_no": "",
    "SMILES": "C(O)(=O)C=1C=C(NN1)C=2C=CC=NC2",
    "meta_data": {
        "InChI": "InChI=1S/C9H7N3O2/c13-9(14)8-4-7(11-12-8)6-2-1-3-10-5-6/h1-5H,(H,11,12)(H,13,14)",
        "InChIKey": null,
        "Canonical SMILES": "O=C(O)C1=NNC(=C1)C=2C=NC=CC2",
        "Molecular Formula": "C<sub>9</sub>H<sub>7</sub>N<sub>3</sub>O<sub>2</sub>",
        "Molecular Mass": "189.17",
        "Melting Point": "308-310 °C (decomp)"
    }
}