{
    "cas_no": "142-30-3",
    "key_name": "2,5-Dimethyl-3-hexyne-2,5-diol",
    "cn_name": "2,5-二甲基-3-己炔-2,5-二醇;HD-M;",
    "alternate_name": "3-Hexyne-2,5-diol, 2,5-dimethyl-;2,5-Dimethyl-3-hexyne-2,5-diol;D 43;Kemitracin 50;2,5-Dihydroxy-2,5-dimethyl-3-hexyne;2,5-Dimethyl-2,5-dihydroxy-3-hexyne;2,5-Dimethyl-3-hexyn-2,5-diol;Tetramethyl-2-butynediol;Tetramethyl-2-butyne-1,4-diol;Olfine Y;NSC 117261;NSC 8340",
    "duplicated_cas_no": "",
    "SMILES": "C(#CC(C)(C)O)C(C)(C)O",
    "meta_data": {
        "InChI": "InChI=1S/C8H14O2/c1-7(2,9)5-6-8(3,4)10/h9-10H,1-4H3",
        "InChIKey": null,
        "Canonical SMILES": "OC(C#CC(O)(C)C)(C)C",
        "Molecular Formula": "C<sub>8</sub>H<sub>14</sub>O<sub>2</sub>",
        "Molecular Mass": "142.20",
        "Boiling Point": "205 °C @ Press: 759 Torr",
        "Melting Point": "95 °C",
        "Density": "0.949 g/cm³ @ Temp: 20 °C"
    }
}