{
    "cas_no": "60-18-4",
    "key_name": "<span class=\"text-smallcaps\">L</span>-Tyrosine",
    "cn_name": "L-酪氨酸;(2S,3R)-2-氨基-3-对羟苯基丙酸;",
    "alternate_name": "<span class=\"text-smallcaps\">L</span>-Tyrosine;Tyrosine, <span class=\"text-smallcaps\">L</span>-;(-)-α-Amino-<em>p</em>-hydroxyhydrocinnamic acid;<span class=\"text-smallcaps\">L</span>(-)-β-(<em>p</em>-Hydroxyphenyl)alanine;<span class=\"text-smallcaps\">L</span>-(-)-Tyrosine;<em>p</em>-Tyrosine;Benzenepropanoic acid, α-amino-4-hydroxy-, (<em>S</em>)-;<span class=\"text-smallcaps\">L</span>-Phenylalanine, 4-hydroxy-;Tyrosine;<span class=\"text-smallcaps\">L</span>-<em>p</em>-Tyrosine;Tyr;4-(2-Amino-2-carboxyethyl)phenol;Propanoic acid, 2-amino-3-(4-hydroxyphenyl)-, (<em>S</em>)-;β-(<em>p</em>-Hydroxyphenyl)alanine;(<em>S</em>)-α-Amino-4-hydroxybenzenepropanoic acid;<span class=\"text-smallcaps\">L</span>-Tyr;(<em>S</em>)-Tyrosine;NSC 82624;NSC 9973;(<em>S</em>)-2-Amino-3-(4-hydroxyphenyl)propanoic acid;(2<em>S</em>)-2-Amino-3-(4-hydroxyphenyl)propanoic acid;Therigon;H-<span class=\"text-smallcaps\">L</span>-Tyr-OH;<span class=\"text-smallcaps\">L</span>-4-Hydroxyphenylalanine;<em>p</em>-Hydroxyphenylalanine;513: PN: WO2022056313 SEQID: 528 claimed protein;359: PN: US20220128567 SEQID: 528 claimed protein;359: PN: US20220178935 SEQID: 528 claimed protein;MeSH ID: D014443;526: PN: WO2023172654 SEQID: 528 claimed sequence;3: PN: WO2024088381 SEQID: 13 claimed sequence",
    "duplicated_cas_no": "140-43-2;1991-85-1;46209-14-7;55520-40-6;1207451-88-4;2416148-26-8",
    "SMILES": "C([C@@H](C(O)=O)N)C1=CC=C(O)C=C1",
    "meta_data": {
        "InChI": "InChI=1S/C9H11NO3/c10-8(9(12)13)5-6-1-3-7(11)4-2-6/h1-4,8,11H,5,10H2,(H,12,13)/t8-/m0/s1",
        "InChIKey": null,
        "Canonical SMILES": "O=C(O)C(N)CC1=CC=C(O)C=C1",
        "Molecular Formula": "C<sub>9</sub>H<sub>11</sub>NO<sub>3</sub>",
        "Molecular Mass": "181.19",
        "Melting Point": "344 °C",
        "Density": "1.46 g/cm³"
    }
}