{
    "cas_no": "2586-96-1",
    "key_name": "Liensinine",
    "cn_name": "莲心碱;",
    "alternate_name": "Phenol, 4-[[(1<em>R</em>)-1,2,3,4-tetrahydro-6,7-dimethoxy-2-methyl-1-isoquinolinyl]methyl]-2-[[(1<em>R</em>)-1,2,3,4-tetrahydro-1-[(4-hydroxyphenyl)methyl]-6-methoxy-2-methyl-7-isoquinolinyl]oxy]-;Liensinine;Phenol, 4-[(1,2,3,4-tetrahydro-6,7-dimethoxy-2-methyl-1-isoquinolinyl)methyl]-2-[[1,2,3,4-tetrahydro-1-[(4-hydroxyphenyl)methyl]-6-methoxy-2-methyl-7-isoquinolinyl]oxy]-, [<em>R</em>-(<em>R</em>*,<em>R</em>*)]-;4-[[(1<em>R</em>)-1,2,3,4-Tetrahydro-6,7-dimethoxy-2-methyl-1-isoquinolinyl]methyl]-2-[[(1<em>R</em>)-1,2,3,4-tetrahydro-1-[(4-hydroxyphenyl)methyl]-6-methoxy-2-methyl-7-isoquinolinyl]oxy]phenol",
    "duplicated_cas_no": "",
    "SMILES": "C([C@@H]1C=2C(=CC(OC)=C(OC3=CC(C[C@@H]4C=5C(=CC(OC)=C(OC)C5)CCN4C)=CC=C3O)C2)CCN1C)C6=CC=C(O)C=C6",
    "meta_data": {
        "InChI": "InChI=1S/C37H42N2O6/c1-38-14-13-26-20-35(43-4)37(22-29(26)30(38)16-23-6-9-27(40)10-7-23)45-33-18-24(8-11-32(33)41)17-31-28-21-36(44-5)34(42-3)19-25(28)12-15-39(31)2/h6-11,18-22,30-31,40-41H,12-17H2,1-5H3/t30-,31-/m1/s1",
        "InChIKey": null,
        "Canonical SMILES": "OC1=CC=C(C=C1)CC2C3=CC(OC4=CC(=CC=C4O)CC5C6=CC(OC)=C(OC)C=C6CCN5C)=C(OC)C=C3CCN2C",
        "Molecular Formula": "C<sub>37</sub>H<sub>42</sub>N<sub>2</sub>O<sub>6</sub>",
        "Molecular Mass": "610.74",
        "Melting Point": "95-99 °C"
    }
}