{
    "cas_no": "2767-91-1",
    "key_name": "4-Morpholinopyridine",
    "cn_name": null,
    "alternate_name": "Morpholine, 4-(4-pyridinyl)-;Morpholine, 4-(4-pyridyl)-;4-(4-Pyridinyl)morpholine;4-(4-Morpholinyl)pyridine;4-Morpholinopyridine;<em>N</em>-(4-Pyridinyl)morpholine",
    "duplicated_cas_no": "",
    "SMILES": "C=1(C=CN=CC1)N2CCOCC2",
    "meta_data": {
        "InChI": "InChI=1S/C9H12N2O/c1-3-10-4-2-9(1)11-5-7-12-8-6-11/h1-4H,5-8H2",
        "InChIKey": null,
        "Canonical SMILES": "N=1C=CC(=CC1)N2CCOCC2",
        "Molecular Formula": "C<sub>9</sub>H<sub>12</sub>N<sub>2</sub>O",
        "Molecular Mass": "164.20",
        "Melting Point": "101-104 °C"
    }
}