{
    "cas_no": "128796-39-4",
    "key_name": "4-(Trifluoromethyl)phenylboronic acid",
    "cn_name": "4-三氟甲基苯硼酸;对三氟甲基苯硼酸;",
    "alternate_name": "Boronic acid, <em>B</em>-[4-(trifluoromethyl)phenyl]-;Boronic acid, [4-(trifluoromethyl)phenyl]-;<em>B</em>-[4-(Trifluoromethyl)phenyl]boronic acid;4-(Trifluoromethyl)phenylboronic acid;4-(Trifluoromethyl)benzeneboronic acid;α,α,α-Trifluoro-<em>p</em>-tolylboronic acid;[<em>p</em>-(Trifluoromethyl)phenyl]boronic acid",
    "duplicated_cas_no": "2093414-97-0",
    "SMILES": "C(F)(F)(F)C1=CC=C(B(O)O)C=C1",
    "meta_data": {
        "InChI": "InChI=1S/C7H6BF3O2/c9-7(10,11)5-1-3-6(4-2-5)8(12)13/h1-4,12-13H",
        "InChIKey": null,
        "Canonical SMILES": "FC(F)(F)C1=CC=C(C=C1)B(O)O",
        "Molecular Formula": "C<sub>7</sub>H<sub>6</sub>BF<sub>3</sub>O<sub>2</sub>",
        "Molecular Mass": "189.93",
        "Melting Point": "230-235 °C (decomp)"
    }
}