{
    "cas_no": "7346-41-0",
    "key_name": "2-Chloroadamantane",
    "cn_name": "2-氯代金刚烷;2-氯金刚烷;",
    "alternate_name": "Tricyclo[3.3.1.1<sup>3,7</sup>]decane, 2-chloro-;Adamantane, 2-chloro-;2-Chlorotricyclo[3.3.1.1<sup>3,7</sup>]decane;2-Chloroadamantane;2-Adamantyl chloride;2-Chloradamantane",
    "duplicated_cas_no": "",
    "SMILES": "ClC1C2CC3CC1CC(C2)C3",
    "meta_data": {
        "InChI": "InChI=1S/C10H15Cl/c11-10-8-2-6-1-7(4-8)5-9(10)3-6/h6-10H,1-5H2",
        "InChIKey": null,
        "Canonical SMILES": "ClC1C2CC3CC(C2)CC1C3",
        "Molecular Formula": "C<sub>10</sub>H<sub>15</sub>Cl",
        "Molecular Mass": "170.68",
        "Melting Point": "186-188 °C"
    }
}