{
    "cas_no": "877-90-7",
    "key_name": "<em>N</em>-(3-Chloro-4-fluorophenyl)acetamide",
    "cn_name": "3-氟-4-氟乙酰苯胺;",
    "alternate_name": "Acetamide, <em>N</em>-(3-chloro-4-fluorophenyl)-;Acetanilide, 3′-chloro-4′-fluoro-;<em>N</em>-(3-Chloro-4-fluorophenyl)acetamide;3′-Chloro-4′-fluoroacetanilide",
    "duplicated_cas_no": "",
    "SMILES": "N(C(C)=O)C1=CC(Cl)=C(F)C=C1",
    "meta_data": {
        "InChI": "InChI=1S/C8H7ClFNO/c1-5(12)11-6-2-3-8(10)7(9)4-6/h2-4H,1H3,(H,11,12)",
        "InChIKey": null,
        "Canonical SMILES": "O=C(NC1=CC=C(F)C(Cl)=C1)C",
        "Molecular Formula": "C<sub>8</sub>H<sub>7</sub>ClFNO",
        "Molecular Mass": "187.60",
        "Melting Point": "98 °C"
    }
}