{
    "cas_no": "1021-25-6",
    "key_name": "1-Phenyl-1,3,8-triazaspiro[4.5]decan-4-one",
    "cn_name": "1-苯基-1,3,8-三唑螺环(4,5)十烷-4-酮;1-苯基-1,3,8-三氮杂螺[4.5]葵烷-4-酮;",
    "alternate_name": "1,3,8-Triazaspiro[4.5]decan-4-one, 1-phenyl-;1-Phenyl-1,3,8-triazaspiro[4.5]decan-4-one;4-Oxo-1-phenyl-1,3,8-triazaspiro[4.5]decane;1-Phenyl-4-oxo-1,3,8-triazaspiro[4.5]decane;NSC 96918",
    "duplicated_cas_no": "72724-31-3;1172126-80-5",
    "SMILES": "O=C1C2(N(CN1)C3=CC=CC=C3)CCNCC2",
    "meta_data": {
        "InChI": "InChI=1S/C13H17N3O/c17-12-13(6-8-14-9-7-13)16(10-15-12)11-4-2-1-3-5-11/h1-5,14H,6-10H2,(H,15,17)",
        "InChIKey": null,
        "Canonical SMILES": "O=C1NCN(C=2C=CC=CC2)C13CCNCC3",
        "Molecular Formula": "C<sub>13</sub>H<sub>17</sub>N<sub>3</sub>O",
        "Molecular Mass": "231.29",
        "Melting Point": "168-176 °C"
    }
}