{
    "cas_no": "1161009-89-7",
    "key_name": "4,4,5,5-Tetramethyl-2-(9,9′-spirobi[9<em>H</em>-fluoren]-4-yl)-1,3,2-dioxaborolane",
    "cn_name": null,
    "alternate_name": "1,3,2-Dioxaborolane, 4,4,5,5-tetramethyl-2-(9,9′-spirobi[9<em>H</em>-fluoren]-4-yl)-;4,4,5,5-Tetramethyl-2-(9,9′-spirobi[9<em>H</em>-fluoren]-4-yl)-1,3,2-dioxaborolane;4-(9,9′-Spirobifluorenyl)pinacolboronate",
    "duplicated_cas_no": "",
    "SMILES": "CC1(C)OB(C2=C3C(C4(C=5C3=CC=CC5)C=6C(C=7C4=CC=CC7)=CC=CC6)=CC=C2)OC1(C)C",
    "meta_data": {
        "InChI": "InChI=1S/C31H27BO2/c1-29(2)30(3,4)34-32(33-29)27-19-11-18-26-28(27)22-14-7-10-17-25(22)31(26)23-15-8-5-12-20(23)21-13-6-9-16-24(21)31/h5-19H,1-4H3",
        "InChIKey": null,
        "Canonical SMILES": "O1B(OC(C)(C)C1(C)C)C2=CC=CC3=C2C4=CC=CC=C4C53C=6C=CC=CC6C=7C=CC=CC75",
        "Molecular Formula": "C<sub>31</sub>H<sub>27</sub>BO<sub>2</sub>",
        "Molecular Mass": "442.36",
        "Melting Point": "223 °C"
    }
}