{
    "cas_no": "18181-70-9",
    "key_name": "Iodofenphos",
    "cn_name": "碘硫磷;磺硫磷;",
    "alternate_name": "Phosphorothioic acid, <em>O</em>-(2,5-dichloro-4-iodophenyl) <em>O</em>,<em>O</em>-dimethyl ester;C 9491;<em>O</em>-(2,5-Dichloro-4-iodophenyl) <em>O</em>,<em>O</em>-dimethyl phosphorothioate;CIBA C 9491;Ciba 9491;Iodofenphos;OMS 1211;Iodophos;Alfacron;Monocron 9491;Nuvanol N;Iodofenfos;Trix;Jodfenphos;<em>O</em>,<em>O</em>-Dimethyl <em>O</em>-(2,5-dichloro-4-iodophenyl) phosphorothioate",
    "duplicated_cas_no": "",
    "SMILES": "O(P(OC)(OC)=S)C1=C(Cl)C=C(I)C(Cl)=C1",
    "meta_data": {
        "InChI": "InChI=1S/C8H8Cl2IO3PS/c1-12-15(16,13-2)14-8-4-5(9)7(11)3-6(8)10/h3-4H,1-2H3",
        "InChIKey": null,
        "Canonical SMILES": "S=P(OC=1C=C(Cl)C(I)=CC1Cl)(OC)OC",
        "Molecular Formula": "C<sub>8</sub>H<sub>8</sub>Cl<sub>2</sub>IO<sub>3</sub>PS",
        "Molecular Mass": "413.00",
        "Melting Point": "72-73 °C",
        "Density": "2.0 g/cm³ @ Temp: 20 °C"
    }
}