{
    "cas_no": "175203-89-1",
    "key_name": "3-(2-Thienyl)-5-(trifluoromethyl)isoxazole",
    "cn_name": "3-(2-噻吩基)-5-(三氟甲基)异唑;",
    "alternate_name": "Isoxazole, 3-(2-thienyl)-5-(trifluoromethyl)-;3-(2-Thienyl)-5-(trifluoromethyl)isoxazole;3-Thiophen-2-yl-5-(trifluoromethyl)-1,2-oxazole",
    "duplicated_cas_no": "",
    "SMILES": "C(F)(F)(F)C1=CC(=NO1)C2=CC=CS2",
    "meta_data": {
        "InChI": "InChI=1S/C8H4F3NOS/c9-8(10,11)7-4-5(12-13-7)6-2-1-3-14-6/h1-4H",
        "InChIKey": null,
        "Canonical SMILES": "FC(F)(F)C=1ON=C(C1)C=2SC=CC2",
        "Molecular Formula": "C<sub>8</sub>H<sub>4</sub>F<sub>3</sub>NOS",
        "Molecular Mass": "219.18",
        "Melting Point": "112-115 °C"
    }
}