{
    "cas_no": "27241-31-2",
    "key_name": "1-(2,4,6-Trichlorophenyl)-3-amino-5-pyrazolone",
    "cn_name": "1-(2,4,6-三氯苯基)-3-氨基-5-吡唑酮;",
    "alternate_name": "3<em>H</em>-Pyrazol-3-one, 5-amino-2,4-dihydro-2-(2,4,6-trichlorophenyl)-;2-Pyrazolin-5-one, 3-amino-1-(2,4,6-trichlorophenyl)-;5-Amino-2,4-dihydro-2-(2,4,6-trichlorophenyl)-3<em>H</em>-pyrazol-3-one;1-(2,4,6-Trichlorophenyl)-3-anilinopyrazolone;1-(2,4,6-Trichlorophenyl)-3-amino-2-pyrazoline-5-one;1-(2,4,6-Trichlorophenyl)-3-amino-5-pyrazolone;NSC 113482;3-Amino-1-(2,4,6-trichlorophenyl)-4,5-dihydro-1<em>H</em>-pyrazol-5-one;3-Amino-1-(2,4,6-trichlorophenyl)-2-pyrazolin-5-one",
    "duplicated_cas_no": "54188-96-4",
    "SMILES": "ClC1=C(C(Cl)=CC(Cl)=C1)N2N=C(N)CC2=O",
    "meta_data": {
        "InChI": "InChI=1S/C9H6Cl3N3O/c10-4-1-5(11)9(6(12)2-4)15-8(16)3-7(13)14-15/h1-2H,3H2,(H2,13,14)",
        "InChIKey": null,
        "Canonical SMILES": "O=C1N(N=C(N)C1)C=2C(Cl)=CC(Cl)=CC2Cl",
        "Molecular Formula": "C<sub>9</sub>H<sub>6</sub>Cl<sub>3</sub>N<sub>3</sub>O",
        "Molecular Mass": "278.52",
        "Melting Point": "222-224 °C"
    }
}