{
    "cas_no": "20310-89-8",
    "key_name": "Saponarin",
    "cn_name": null,
    "alternate_name": "4<em>H</em>-1-Benzopyran-4-one, 6-β-<span class=\"text-smallcaps\">D</smallcap>-glucopyranosyl-7-(β-<smallcap>D</span>-glucopyranosyloxy)-5-hydroxy-2-(4-hydroxyphenyl)-;Saponarin;6-β-<span class=\"text-smallcaps\">D</smallcap>-Glucopyranosyl-7-(β-<smallcap>D</span>-glucopyranosyloxy)-5-hydroxy-2-(4-hydroxyphenyl)-4<em>H</em>-1-benzopyran-4-one;Isovitexin 7-β-<span class=\"text-smallcaps\">D</span>-glucopyranoside;Petrocomoside;6-<em>C</em>-Glucosyl-7-<em>O</em>-glucosylapigenin;Isovitexin 7-glucoside;7-<em>O</em>-Glucosylisovitexin;Isovitexin 7-β-<span class=\"text-smallcaps\">D</span>-glucoside;Apigenin 6-<em>C</em>-glucosyl-7-<em>O</em>-glucoside;Apigenin-6-<em>C</em>-glucoside-7-<em>O</em>-glucoside",
    "duplicated_cas_no": "98601-05-9;1329-51-7;11018-95-4;21753-79-7;61383-36-6;66982-79-4",
    "SMILES": "O(C1=C(C(O)=C2C(=C1)OC(=CC2=O)C3=CC=C(O)C=C3)[C@@H]4O[C@H](CO)[C@@H](O)[C@H](O)[C@H]4O)[C@@H]5O[C@H](CO)[C@@H](O)[C@H](O)[C@H]5O",
    "meta_data": {
        "InChI": "InChI=1S/C27H30O15/c28-7-15-19(32)22(35)24(37)26(40-15)18-14(41-27-25(38)23(36)20(33)16(8-29)42-27)6-13-17(21(18)34)11(31)5-12(39-13)9-1-3-10(30)4-2-9/h1-6,15-16,19-20,22-30,32-38H,7-8H2/t15-,16-,19-,20-,22+,23+,24-,25-,26+,27-/m1/s1",
        "InChIKey": null,
        "Canonical SMILES": "O=C1C=C(OC=2C=C(OC3OC(CO)C(O)C(O)C3O)C(=C(O)C12)C4OC(CO)C(O)C(O)C4O)C=5C=CC(O)=CC5",
        "Molecular Formula": "C<sub>27</sub>H<sub>30</sub>O<sub>15</sub>",
        "Molecular Mass": "594.52",
        "Melting Point": "210-215 °C"
    }
}