{
    "cas_no": "13264-92-1",
    "key_name": "2-Nitrophenyl 2-(acetylamino)-2-deoxy-β-<span class=\"text-smallcaps\">D</span>-glucopyranoside",
    "cn_name": null,
    "alternate_name": "β-<span class=\"text-smallcaps\">D</span>-Glucopyranoside, 2-nitrophenyl 2-(acetylamino)-2-deoxy-;Glucopyranoside, <em>o</em>-nitrophenyl 2-acetamido-2-deoxy-, β-<span class=\"text-smallcaps\">D</span>-;β-<span class=\"text-smallcaps\">D</span>-Glucoside, <em>o</em>-nitrophenyl 2-acetamido-2-deoxy-;2-Nitrophenyl 2-(acetylamino)-2-deoxy-β-<span class=\"text-smallcaps\">D</span>-glucopyranoside",
    "duplicated_cas_no": "",
    "SMILES": "O([C@H]1[C@H](NC(C)=O)[C@@H](O)[C@H](O)[C@@H](CO)O1)C2=C(N(=O)=O)C=CC=C2",
    "meta_data": {
        "InChI": "InChI=1S/C14H18N2O8/c1-7(18)15-11-13(20)12(19)10(6-17)24-14(11)23-9-5-3-2-4-8(9)16(21)22/h2-5,10-14,17,19-20H,6H2,1H3,(H,15,18)/t10-,11-,12-,13-,14-/m1/s1",
        "InChIKey": null,
        "Canonical SMILES": "O=C(NC1C(OC=2C=CC=CC2N(=O)=O)OC(CO)C(O)C1O)C",
        "Molecular Formula": "C<sub>14</sub>H<sub>18</sub>N<sub>2</sub>O<sub>8</sub>",
        "Molecular Mass": "342.30",
        "Melting Point": "176-177 °C"
    }
}