{
    "cas_no": "2571-39-3",
    "key_name": "3,4-Dimethylbenzophenone",
    "cn_name": null,
    "alternate_name": "Methanone, (3,4-dimethylphenyl)phenyl-;Benzophenone, 3,4-dimethyl-;(3,4-Dimethylphenyl)phenylmethanone;3,4-Dimethylbenzophenone;NSC 10172",
    "duplicated_cas_no": "",
    "SMILES": "C(=O)(C1=CC(C)=C(C)C=C1)C2=CC=CC=C2",
    "meta_data": {
        "InChI": "InChI=1S/C15H14O/c1-11-8-9-14(10-12(11)2)15(16)13-6-4-3-5-7-13/h3-10H,1-2H3",
        "InChIKey": null,
        "Canonical SMILES": "O=C(C=1C=CC=CC1)C2=CC=C(C(=C2)C)C",
        "Molecular Formula": "C<sub>15</sub>H<sub>14</sub>O",
        "Molecular Mass": "210.27",
        "Boiling Point": "341 °C",
        "Melting Point": "47.5 °C"
    }
}