{
    "cas_no": "445-03-4",
    "key_name": "2-Trifluoromethyl-4-chloroaniline",
    "cn_name": "2-氨基-5-氯三氟甲苯;",
    "alternate_name": "Benzenamine, 4-chloro-2-(trifluoromethyl)-;<em>o</em>-Toluidine, 4-chloro-α,α,α-trifluoro-;4-Chloro-2-(trifluoromethyl)benzenamine;C.I. 37055;C.I. Azoic Diazo Component 17;Diazo Fast Scarlet VD;Fast Scarlet Salt VD;Fast Scarlet VD Salt;Scarlet Salt NVD;1-Amino-4-chloro-2-trifluoromethylbenzene;4-Chloro-2-(trifluoromethyl)aniline;4-Chloro-α,α,α-trifluoro-<em>o</em>-toluidine;2-Amino-5-chlorobenzotrifluoride;2-Trifluoromethyl-4-chloroaniline;5-Chloro-2-aminotrifluorotoluene",
    "duplicated_cas_no": "",
    "SMILES": "C(F)(F)(F)C1=C(N)C=CC(Cl)=C1",
    "meta_data": {
        "InChI": "InChI=1S/C7H5ClF3N/c8-4-1-2-6(12)5(3-4)7(9,10)11/h1-3H,12H2",
        "InChIKey": null,
        "Canonical SMILES": "FC(F)(F)C1=CC(Cl)=CC=C1N",
        "Molecular Formula": "C<sub>7</sub>H<sub>5</sub>ClF<sub>3</sub>N",
        "Molecular Mass": "195.57",
        "Boiling Point": "76-77 °C @ Press: 4-5 Torr"
    }
}