{
    "cas_no": "516-15-4",
    "key_name": "Pregn-4-ene-3,11,20-trione",
    "cn_name": "11-酮孕甾酮;",
    "alternate_name": "Pregn-4-ene-3,11,20-trione;U 1258;Ketogestin;11-Ketoprogesterone;11-Oxoprogesterone;Δ<sup>4</sup>-Pregnene-3,11,20-trione;11-Oxopregn-4-ene-3,20-dione;Ketoprogesterone;DG 322A;STX 124",
    "duplicated_cas_no": "2968365-30-0",
    "SMILES": "C[C@@]12[C@@]3([C@]([C@]4([C@](C)(CC3=O)[C@@H](C(C)=O)CC4)[H])(CCC1=CC(=O)CC2)[H])[H]",
    "meta_data": {
        "InChI": "InChI=1S/C21H28O3/c1-12(22)16-6-7-17-15-5-4-13-10-14(23)8-9-20(13,2)19(15)18(24)11-21(16,17)3/h10,15-17,19H,4-9,11H2,1-3H3/t15-,16+,17-,19+,20-,21+/m0/s1",
        "InChIKey": null,
        "Canonical SMILES": "O=C1C=C2CCC3C(C(=O)CC4(C)C(C(=O)C)CCC34)C2(C)CC1",
        "Molecular Formula": "C<sub>21</sub>H<sub>28</sub>O<sub>3</sub>",
        "Molecular Mass": "328.45",
        "Melting Point": "172 °C"
    }
}