{
    "cas_no": "1306-23-6",
    "key_name": "Cadmium sulfide",
    "cn_name": "硫化镉;",
    "alternate_name": "Cadmium sulfide (CdS);Cadmium sulfide;Cadmium Golden 366;Cadmium Lemon Yellow 527;Cadmium Primrose 819;Cadmium Yellow 000;Cadmium Yellow 892;Cadmium Yellow 10G conc;Cadmium Yellow Conc. Deep;Cadmium Yellow Conc. Golden;Cadmium Yellow Conc. Lemon;Cadmium Yellow Conc. Primrose;Cadmium Yellow OZ dark;Cadmium Yellow Primrose 47-4100;Cadmopur Golden Yellow N;Cadmopur Yellow;Capsebon;Ferro Lemon Yellow;Ferro Orange Yellow;Ferro Yellow;Cadmium yellow;Cadmium sulfide yellow;Cadmium monosulfide;C. P. Golden Yellow 55;PC 108;Primrose 1466;GSK (cadmium sulfide);Reckitt Yellow 12;Sicotherm Yellow L 1001;Cadmium Yellow ST;Lumidot CdS 480;FP 102;NLT 102",
    "duplicated_cas_no": "106496-20-2;1441148-55-5",
    "SMILES": "[Cd]=S",
    "meta_data": {
        "InChI": "InChI=1S/Cd.S",
        "InChIKey": null,
        "Canonical SMILES": "S=[Cd]",
        "Molecular Formula": "CdS",
        "Molecular Mass": "",
        "Melting Point": "980 °C (sublm)",
        "Density": "4.8 g/cm³"
    }
}