{
    "cas_no": "14062-30-7",
    "key_name": "Ethyl 3-(bromophenyl)acetate",
    "cn_name": "2-(3-溴苯基)乙酸乙酯;",
    "alternate_name": "Benzeneacetic acid, 3-bromo-, ethyl ester;Acetic acid, (<em>m</em>-bromophenyl)-, ethyl ester;Ethyl (<em>m</em>-bromophenyl)acetate;Ethyl 3-(bromophenyl)acetate;3-Bromophenylacetic acid, ethyl ester;Ethyl 2-(3-Bromophenyl)acetate;Ethyl 3-bromobenzeneacetate",
    "duplicated_cas_no": "",
    "SMILES": "C(C(OCC)=O)C1=CC(Br)=CC=C1",
    "meta_data": {
        "InChI": "InChI=1S/C10H11BrO2/c1-2-13-10(12)7-8-4-3-5-9(11)6-8/h3-6H,2,7H2,1H3",
        "InChIKey": null,
        "Canonical SMILES": "O=C(OCC)CC=1C=CC=C(Br)C1",
        "Molecular Formula": "C<sub>10</sub>H<sub>11</sub>BrO<sub>2</sub>",
        "Molecular Mass": "243.10",
        "Boiling Point": "132-134 °C @ Press: 8 Torr",
        "Density": "1.3810 g/cm³ @ Temp: 20 °C"
    }
}