{
    "cas_no": "16903-61-0",
    "key_name": "(<em>T</em>-4)-[Tetrahydroborato(1-)-κ<em>H</em>,κ<em>H</em>′]bis(triphenylphosphine)copper",
    "cn_name": "双(三苯基膦)硼氢化亚铜;",
    "alternate_name": "Copper, [tetrahydroborato(1-)-κ<em>H</em>,κ<em>H</em>′]bis(triphenylphosphine)-, (<em>T</em>-4)-;Copper, [tetrahydroborato(1-)]bis(triphenylphosphine)-;Copper, [tetrahydroborato(1-)-<em>H</em>,<em>H</em>′]bis(triphenylphosphine)-, (<em>T</em>-4)-;Copper, (tetrahydroborato)bis(triphenylphosphine)-;(<em>T</em>-4)-[Tetrahydroborato(1-)-κ<em>H</em>,κ<em>H</em>′]bis(triphenylphosphine)copper;[Tetrahydroborato(1-)]bis(triphenylphosphine)copper;(Tetrahydroborato)bis(triphenylphosphine)copper;Tetrahydroboratobis(triphenylphosphine)copper(I);Bis(triphenylphosphine)cuprous borohydride;Bis(triphenylphosphine)copper(I) borohydride",
    "duplicated_cas_no": "",
    "SMILES": "[P]([Cu+]1([P](C2=CC=CC=C2)(C3=CC=CC=C3)C4=CC=CC=C4)[H-][B+3]([H-])([H-])[H-]1)(C5=CC=CC=C5)(C6=CC=CC=C6)C7=CC=CC=C7",
    "meta_data": {
        "InChI": "InChI=1S/2C18H15P.BH4.Cu/c2*1-4-10-16(11-5-1)19(17-12-6-2-7-13-17)18-14-8-3-9-15-18;;/h2*1-15H;1H4;/q;;-1;+1",
        "InChIKey": null,
        "Canonical SMILES": "[H-][B+3]1([H-])[H-][Cu+]([H-]1)([P](C=2C=CC=CC2)(C=3C=CC=CC3)C=4C=CC=CC4)[P](C=5C=CC=CC5)(C=6C=CC=CC6)C=7C=CC=CC7",
        "Molecular Formula": "C<sub>36</sub>H<sub>34</sub>BCuP<sub>2</sub>",
        "Molecular Mass": "",
        "Melting Point": "177 °C"
    }
}