{
    "cas_no": "18113-07-0",
    "key_name": "4-Chloro-3-methoxyphenol",
    "cn_name": null,
    "alternate_name": "Phenol, 4-chloro-3-methoxy-;4-Chloro-3-methoxyphenol",
    "duplicated_cas_no": "",
    "SMILES": "O(C)C1=C(Cl)C=CC(O)=C1",
    "meta_data": {
        "InChI": "InChI=1S/C7H7ClO2/c1-10-7-4-5(9)2-3-6(7)8/h2-4,9H,1H3",
        "InChIKey": null,
        "Canonical SMILES": "ClC1=CC=C(O)C=C1OC",
        "Molecular Formula": "C<sub>7</sub>H<sub>7</sub>ClO<sub>2</sub>",
        "Molecular Mass": "158.58",
        "Boiling Point": "141-150 °C @ Press: 18 Torr",
        "Melting Point": "79-80 °C"
    }
}