{
    "cas_no": "4525-33-1",
    "key_name": "Dimethyl dicarbonate",
    "cn_name": "焦碳酸二甲酯;二碳酸二甲酯;",
    "alternate_name": "Dicarbonic acid, 1,3-dimethyl ester;Formic acid, oxydi-, dimethyl ester;Dicarbonic acid, dimethyl ester;Dimethyl pyrocarbonate;Dimethyl dicarbonate;Methyl pyrocarbonate;Velcorin;Pyrocarbonic acid dimethyl ester",
    "duplicated_cas_no": "",
    "SMILES": "O(C(OC)=O)C(OC)=O",
    "meta_data": {
        "InChI": "InChI=1S/C4H6O5/c1-7-3(5)9-4(6)8-2/h1-2H3",
        "InChIKey": null,
        "Canonical SMILES": "O=C(OC(=O)OC)OC",
        "Molecular Formula": "C<sub>4</sub>H<sub>6</sub>O<sub>5</sub>",
        "Molecular Mass": "134.09",
        "Boiling Point": "52-53 °C @ Press: 4-5 Torr",
        "Melting Point": "100-101.5 °C",
        "Density": "1.258 g/cm³ @ Temp: 20 °C"
    }
}