{
    "cas_no": "527-95-7",
    "key_name": "Herbacetin",
    "cn_name": "4-氯-3-氟苯甲醛;",
    "alternate_name": "4<em>H</em>-1-Benzopyran-4-one, 3,5,7,8-tetrahydroxy-2-(4-hydroxyphenyl)-;Flavone, 3,4′,5,7,8-pentahydroxy-;3,5,7,8-Tetrahydroxy-2-(4-hydroxyphenyl)-4<em>H</em>-1-benzopyran-4-one;Herbacetin;3,5,7,8,4′-Pentahydroxyflavone;Isoarticulatidin;8-Hydroxykaempferol;2-(4-Hydroxyphenyl)-3,5,7,8-tetrakis(oxidanyl)chromen-4-one;3,5,7,8-Tetrahydroxy-2-(4-hydroxyphenyl)chromen-4-one",
    "duplicated_cas_no": "",
    "SMILES": "OC1=C2C(C(=O)C(O)=C(O2)C3=CC=C(O)C=C3)=C(O)C=C1O",
    "meta_data": {
        "InChI": "InChI=1S/C15H10O7/c16-7-3-1-6(2-4-7)14-13(21)12(20)10-8(17)5-9(18)11(19)15(10)22-14/h1-5,16-19,21H",
        "InChIKey": null,
        "Canonical SMILES": "O=C1C(O)=C(OC=2C(O)=C(O)C=C(O)C12)C=3C=CC(O)=CC3",
        "Molecular Formula": "C<sub>15</sub>H<sub>10</sub>O<sub>7</sub>",
        "Molecular Mass": "302.24",
        "Melting Point": "266 °C"
    }
}