{
    "cas_no": "492-98-8",
    "key_name": "2,2′-Biimidazole",
    "cn_name": null,
    "alternate_name": "2,2′-Bi-1<em>H</em>-imidazole;2,2′-Biimidazole;Glycosine of Debus;2,2′-Diimidazole;2,2′-Biimidazolyl;2,2′-Bisimidazole;NSC 522950;1<em>H</em>,1′<em>H</em>-2,2′-Biimidazole;H<sub>2</sub>BIm;1<em>H</em>,1′<em>H</em>-[2,2′]Biimidazolyl;2-(1<em>H</em>-Imidazol-2-yl)-1<em>H</em>-imidazole",
    "duplicated_cas_no": "178362-76-0",
    "SMILES": "C=1(NC=CN1)C=2NC=CN2",
    "meta_data": {
        "InChI": "InChI=1S/C6H6N4/c1-2-8-5(7-1)6-9-3-4-10-6/h1-4H,(H,7,8)(H,9,10)",
        "InChIKey": null,
        "Canonical SMILES": "N=1C=CNC1C2=NC=CN2",
        "Molecular Formula": "C<sub>6</sub>H<sub>6</sub>N<sub>4</sub>",
        "Molecular Mass": "134.14",
        "Melting Point": "&gt;300 °C"
    }
}