{
    "cas_no": "59430-62-5",
    "key_name": "4-Amino-α-methylbenzeneacetic acid",
    "cn_name": null,
    "alternate_name": "Benzeneacetic acid, 4-amino-α-methyl-;Hydratropic acid, <em>p</em>-amino-;4-Amino-α-methylbenzeneacetic acid;2-(<em>p</em>-Aminophenyl)propionic acid;α-(<em>p</em>-Aminophenyl)propionic acid;<em>p</em>-Amino-α-methylphenylacetic acid;2-(4-Aminophenyl)propionic acid;α-(4-Aminophenyl)-α-methylacetic acid;2-(4-Aminophenyl)propanoic acid",
    "duplicated_cas_no": "76816-29-0",
    "SMILES": "C(C(O)=O)(C)C1=CC=C(N)C=C1",
    "meta_data": {
        "InChI": "InChI=1S/C9H11NO2/c1-6(9(11)12)7-2-4-8(10)5-3-7/h2-6H,10H2,1H3,(H,11,12)",
        "InChIKey": null,
        "Canonical SMILES": "O=C(O)C(C1=CC=C(N)C=C1)C",
        "Molecular Formula": "C<sub>9</sub>H<sub>11</sub>NO<sub>2</sub>",
        "Molecular Mass": "165.19",
        "Melting Point": "136 °C"
    }
}