{
    "cas_no": "138775-03-8",
    "key_name": "1-(1,1-Dimethylethyl) 4-(phenylmethyl) (2<em>S</em>)-1,2,4-piperazinetricarboxylate",
    "cn_name": "(S)-N-1-叔丁氧羰基-N-4-苄氧羰基-2-哌嗪甲酸;",
    "alternate_name": "1,2,4-Piperazinetricarboxylic acid, 1-(1,1-dimethylethyl) 4-(phenylmethyl) ester, (2<em>S</em>)-;1,2,4-Piperazinetricarboxylic acid, 1-(1,1-dimethylethyl) 4-(phenylmethyl) ester, (<em>S</em>)-;1-(1,1-Dimethylethyl) 4-(phenylmethyl) (2<em>S</em>)-1,2,4-piperazinetricarboxylate;(<em>S</em>)-4-(Benzyloxycarbonyl)-1-(<em>tert</em>-butoxycarbonyl)piperazine-2-carboxylic acid;(2<em>S</em>)-1-(Benzyloxycarbonyl)-2-carboxy-4-(benzyloxycarbonyl)piperazine",
    "duplicated_cas_no": "552881-20-6",
    "SMILES": "C(OC(C)(C)C)(=O)N1[C@H](C(O)=O)CN(C(OCC2=CC=CC=C2)=O)CC1",
    "meta_data": {
        "InChI": "InChI=1S/C18H24N2O6/c1-18(2,3)26-17(24)20-10-9-19(11-14(20)15(21)22)16(23)25-12-13-7-5-4-6-8-13/h4-8,14H,9-12H2,1-3H3,(H,21,22)/t14-/m0/s1",
        "InChIKey": null,
        "Canonical SMILES": "O=C(OCC=1C=CC=CC1)N2CCN(C(=O)OC(C)(C)C)C(C(=O)O)C2",
        "Molecular Formula": "C<sub>18</sub>H<sub>24</sub>N<sub>2</sub>O<sub>6</sub>",
        "Molecular Mass": "364.39",
        "Melting Point": "50-53 °C"
    }
}