{
    "cas_no": "2177-70-0",
    "key_name": "Phenyl methacrylate",
    "cn_name": "甲基丙烯酸苯酯;甲基丙烯酸甲酯;",
    "alternate_name": "2-Propenoic acid, 2-methyl-, phenyl ester;Methacrylic acid, phenyl ester;Phenyl methacrylate;NSC 177877;Acryester PH;Miramer M 1041",
    "duplicated_cas_no": "",
    "SMILES": "O(C(C(C)=C)=O)C1=CC=CC=C1",
    "meta_data": {
        "InChI": "InChI=1S/C10H10O2/c1-8(2)10(11)12-9-6-4-3-5-7-9/h3-7H,1H2,2H3",
        "InChIKey": null,
        "Canonical SMILES": "O=C(OC=1C=CC=CC1)C(=C)C",
        "Molecular Formula": "C<sub>10</sub>H<sub>10</sub>O<sub>2</sub>",
        "Molecular Mass": "162.19",
        "Boiling Point": "47-50 °C @ Press: 0.2 Torr",
        "Density": "1.0542 g/cm³ @ Temp: 20 °C"
    }
}