{
    "cas_no": "74991-91-6",
    "key_name": "9-Methoxy-6<em>H</em>-indolo[3,2,1-<em>de</em>][1,5]naphthyridin-6-one",
    "cn_name": null,
    "alternate_name": "6<em>H</em>-Indolo[3,2,1-<em>de</em>][1,5]naphthyridin-6-one, 9-methoxy-;9-Methoxy-6<em>H</em>-indolo[3,2,1-<em>de</em>][1,5]naphthyridin-6-one;9-Methoxycanthin-6-one",
    "duplicated_cas_no": "",
    "SMILES": "O=C1N2C=3C(C=4C2=CC(OC)=CC4)=CC=NC3C=C1",
    "meta_data": {
        "InChI": "InChI=1S/C15H10N2O2/c1-19-9-2-3-10-11-6-7-16-12-4-5-14(18)17(15(11)12)13(10)8-9/h2-8H,1H3",
        "InChIKey": null,
        "Canonical SMILES": "O=C1C=CC2=NC=CC=3C4=CC=C(OC)C=C4N1C23",
        "Molecular Formula": "C<sub>15</sub>H<sub>10</sub>N<sub>2</sub>O<sub>2</sub>",
        "Molecular Mass": "250.25",
        "Melting Point": "180.1 °C"
    }
}