{
    "cas_no": "579-92-0",
    "key_name": "2,2′-Iminodibenzoic acid",
    "cn_name": "二苯胺-2,2\"二羧酸;二苯胺-2,2二羧酸;",
    "alternate_name": "Benzoic acid, 2,2′-iminobis-;Benzoic acid, 2,2′-iminodi-;Benzoic acid, <em>o</em>,<em>o</em>′-iminodi-;2,2′-Iminobis[benzoic acid];Diphenylamine-2,2′-dicarboxylic acid;Vanadox;2,2′-Dicarboxydiphenylamine;2,2′-Iminodibenzoic acid;Bis(2-carboxyphenyl)amine;NSC 27841;<em>N</em>-(2-Carboxyphenyl)anthranilic acid;2-(2-Carboxyphenylamino)benzoic acid",
    "duplicated_cas_no": "",
    "SMILES": "N(C1=C(C(O)=O)C=CC=C1)C2=C(C(O)=O)C=CC=C2",
    "meta_data": {
        "InChI": "InChI=1S/C14H11NO4/c16-13(17)9-5-1-3-7-11(9)15-12-8-4-2-6-10(12)14(18)19/h1-8,15H,(H,16,17)(H,18,19)",
        "InChIKey": null,
        "Canonical SMILES": "O=C(O)C=1C=CC=CC1NC=2C=CC=CC2C(=O)O",
        "Molecular Formula": "C<sub>14</sub>H<sub>11</sub>NO<sub>4</sub>",
        "Molecular Mass": "257.24",
        "Melting Point": "296-297 °C (decomp)"
    }
}