{
    "cas_no": "7320-34-5",
    "key_name": "Potassium pyrophosphate",
    "cn_name": "焦磷酸四钾;焦磷酸钾;",
    "alternate_name": "Diphosphoric acid, potassium salt (1:4);Pyrophosphoric acid, tetrapotassium salt;Diphosphoric acid, tetrapotassium salt;Phosphosol;Potassium pyrophosphate;Tetrapotassium pyrophosphate;Tetrakalium pyrophosphate;Tetrapotassium diphosphate;Potassium phosphate (K<sub>4</sub>P<sub>2</sub>O<sub>7</sub>);Potassium diphosphate (K<sub>4</sub>P<sub>2</sub>O<sub>7</sub>);E 450v;Potassium metaphosphate oxide (K<sub>4</sub>(PO<sub>3</sub>)<sub>2</sub>O);S 11152",
    "duplicated_cas_no": "1174512-44-7;1269628-81-0;2223678-13-3",
    "SMILES": "O(P(=O)(O)O)P(=O)(O)O.[K]",
    "meta_data": {
        "InChI": "InChI=1S/4K.H4O7P2/c;;;;1-8(2,3)7-9(4,5)6/h;;;;(H2,1,2,3)(H2,4,5,6)",
        "InChIKey": null,
        "Canonical SMILES": "[K].O=P(O)(O)OP(=O)(O)O",
        "Molecular Formula": "H<sub>4</sub>O<sub>7</sub>P<sub>2</sub>.4K",
        "Molecular Mass": "",
        "Melting Point": "1090 °C"
    }
}