{
    "cas_no": "487-89-8",
    "key_name": "Indole-3-carboxaldehyde",
    "cn_name": "3-吲哚甲醛;",
    "alternate_name": "1<em>H</em>-Indole-3-carboxaldehyde;Indole-3-carboxaldehyde;Indole-3-aldehyde;Indole-3-carbaldehyde;β-Indolylaldehyde;3-Formylindole;3-Formyl-1<em>H</em>-indole;NSC 10118;1<em>H</em>-Indole-3-aldehyde;1<em>H</em>-Indole-3-carbaldehyde;3-Indolylformaldehyde;1<em>H</em>-Indole-3-methanal;Indole-3-carboxylaldehyde;Indole-3-formaldehyde;1<em>H</em>-Indol-3-yl carboxaldehyde",
    "duplicated_cas_no": "246045-99-8",
    "SMILES": "C(=O)C=1C=2C(NC1)=CC=CC2",
    "meta_data": {
        "InChI": "InChI=1S/C9H7NO/c11-6-7-5-10-9-4-2-1-3-8(7)9/h1-6,10H",
        "InChIKey": null,
        "Canonical SMILES": "O=CC1=CNC=2C=CC=CC12",
        "Molecular Formula": "C<sub>9</sub>H<sub>7</sub>NO",
        "Molecular Mass": "145.16",
        "Melting Point": "196.5 °C"
    }
}