{
    "cas_no": "27773-39-3",
    "key_name": "Aspidospermidine-3-carboxylic acid, 2,3,6,7-tetradehydro-16-methoxy-, methyl ester, (5α,12<em>R</em>,19α)-",
    "cn_name": null,
    "alternate_name": "Aspidospermidine-3-carboxylic acid, 2,3,6,7-tetradehydro-16-methoxy-, methyl ester, (5α,12<em>R</em>,19α)-;Aspidospermidine-3-carboxylic acid, 2,3,6,7-tetradehydro-16-methoxy-, methyl ester, (5α,12β,19α)-;Ervamycine;16-Methoxytabersonine;11-Methoxytabersonine;(-)-11-Methoxytabersonine",
    "duplicated_cas_no": "11021-76-4;22260-37-3;2152678-27-6",
    "SMILES": "C(C)[C@@]12[C@]3([C@@]4(C(=C(C(OC)=O)C1)NC=5C4=CC=C(OC)C5)CCN3CC=C2)[H]",
    "meta_data": {
        "InChI": "InChI=1S/C22H26N2O3/c1-4-21-8-5-10-24-11-9-22(20(21)24)16-7-6-14(26-2)12-17(16)23-18(22)15(13-21)19(25)27-3/h5-8,12,20,23H,4,9-11,13H2,1-3H3/t20-,21-,22-/m0/s1",
        "InChIKey": null,
        "Canonical SMILES": "O=C(OC)C1=C2NC3=CC(OC)=CC=C3C24CCN5CC=CC(C1)(CC)C54",
        "Molecular Formula": "C<sub>22</sub>H<sub>26</sub>N<sub>2</sub>O<sub>3</sub>",
        "Molecular Mass": "366.45",
        "Melting Point": "71-73 °C"
    }
}