{
    "cas_no": "3085-54-9",
    "key_name": "<em>N</em>-(4-Methylphenyl)formamide",
    "cn_name": "4-甲基甲苯胺;",
    "alternate_name": "Formamide, <em>N</em>-(4-methylphenyl)-;<em>p</em>-Formotoluidide;<em>N</em>-(4-Methylphenyl)formamide;<em>N</em>-(<em>p</em>-Methylphenyl)formamide;4′-Methylformanilide;<em>p</em>-Methylformanilide;<em>N</em>-Formyl-<em>p</em>-toluidine;<em>N</em>-<em>p</em>-Tolylformamide;NSC 68098;<em>N</em>-Formyl-4-methylaniline;<em>N</em>-4-Tolylformamide",
    "duplicated_cas_no": "",
    "SMILES": "N(C=O)C1=CC=C(C)C=C1",
    "meta_data": {
        "InChI": "InChI=1S/C8H9NO/c1-7-2-4-8(5-3-7)9-6-10/h2-6H,1H3,(H,9,10)",
        "InChIKey": null,
        "Canonical SMILES": "O=CNC1=CC=C(C=C1)C",
        "Molecular Formula": "C<sub>8</sub>H<sub>9</sub>NO",
        "Molecular Mass": "135.16",
        "Melting Point": "57 °C"
    }
}