{
    "cas_no": "79922-55-7",
    "key_name": "Bisphenol A diphenyl ether bismaleimide",
    "cn_name": null,
    "alternate_name": "1<em>H</em>-Pyrrole-2,5-dione, 1,1′-[(1-methylethylidene)bis(4,1-phenyleneoxy-4,1-phenylene)]bis-;1,1′-[(1-Methylethylidene)bis(4,1-phenyleneoxy-4,1-phenylene)]bis[1<em>H</em>-pyrrole-2,5-dione];MB 8000;2,2-Bis[4-(4-maleimidophenoxy)phenyl]propane;BMI-BAPP;Bisphenol A bis(4-maleimidophenyl ether);DAPPI;BBMI;1-[4-[4-[1-[4-[4-(2,5-Dioxo-1-pyrrolidinyl)phenoxy]phenyl]-1-methylethyl]phenoxy]phenyl]-1<em>H</em>-pyrrole-2,5-dione;2,2′-Bis[4-(4-maleimidophenoxy)phenyl]propane;Bisphenol A diphenyl ether bismaleimide;BMI 80;QY 8911-3;BMI 4000;2,2′-[4-(4-Maleimidophenoxy)phenyl]propane;2,2-Bis[4-(4′-maleimidophenoxy)phenyl]propane;KI 80;1-[4-[4-[2-[4-[4-(2,5-Dioxopyrrol-1-yl)phenoxy]phenyl]propan-2-yl]phenoxy]phenyl]pyrrole-2,5-dione",
    "duplicated_cas_no": "137422-53-8;160499-61-6;160903-46-8;178949-90-1;184874-64-4;1459737-83-7;1634670-50-0",
    "SMILES": "O=C1N(C2=CC=C(OC3=CC=C(C(C)(C)C4=CC=C(OC5=CC=C(C=C5)N6C(=O)C=CC6=O)C=C4)C=C3)C=C2)C(=O)C=C1",
    "meta_data": {
        "InChI": "InChI=1S/C35H26N2O6/c1-35(2,23-3-11-27(12-4-23)42-29-15-7-25(8-16-29)36-31(38)19-20-32(36)39)24-5-13-28(14-6-24)43-30-17-9-26(10-18-30)37-33(40)21-22-34(37)41/h3-22H,1-2H3",
        "InChIKey": null,
        "Canonical SMILES": "O=C1C=CC(=O)N1C2=CC=C(OC3=CC=C(C=C3)C(C4=CC=C(OC5=CC=C(C=C5)N6C(=O)C=CC6=O)C=C4)(C)C)C=C2",
        "Molecular Formula": "C<sub>35</sub>H<sub>26</sub>N<sub>2</sub>O<sub>6</sub>",
        "Molecular Mass": "570.59",
        "Melting Point": "142 °C"
    }
}