{
    "cas_no": "3650-09-7",
    "key_name": "Carnosic acid",
    "cn_name": "鼠尾草酸;",
    "alternate_name": "4a(2<em>H</em>)-Phenanthrenecarboxylic acid, 1,3,4,9,10,10a-hexahydro-5,6-dihydroxy-1,1-dimethyl-7-(1-methylethyl)-, (4a<em>R</em>,10a<em>S</em>)-;Podocarpa-8,11,13-trien-17-oic acid, 11,12-dihydroxy-13-isopropyl-;4a(2<em>H</em>)-Phenanthrenecarboxylic acid, 1,3,4,9,10,10a-hexahydro-5,6-dihydroxy-1,1-dimethyl-7-(1-methylethyl)-, (4a<em>R</em>-<em>trans</em>)-;(4a<em>R</em>,10a<em>S</em>)-1,3,4,9,10,10a-Hexahydro-5,6-dihydroxy-1,1-dimethyl-7-(1-methylethyl)-4a(2<em>H</em>)-phenanthrenecarboxylic acid;Carnosic acid;Salvin;RoseOx;Rosamox;(+)-Carnosic acid;(4AR,10aS)-5,6-dihydroxy-1,1-dimethyl-7-propan-2-yl-2,3,4,9,10,10a-hexahydrophenanthrene-4a-carboxylic acid",
    "duplicated_cas_no": "",
    "SMILES": "C(O)(=O)[C@@]12C=3C(=CC(C(C)C)=C(O)C3O)CC[C@]1(C(C)(C)CCC2)[H]",
    "meta_data": {
        "InChI": "InChI=1S/C20H28O4/c1-11(2)13-10-12-6-7-14-19(3,4)8-5-9-20(14,18(23)24)15(12)17(22)16(13)21/h10-11,14,21-22H,5-9H2,1-4H3,(H,23,24)/t14-,20+/m0/s1",
        "InChIKey": null,
        "Canonical SMILES": "O=C(O)C12C=3C(O)=C(O)C(=CC3CCC1C(C)(C)CCC2)C(C)C",
        "Molecular Formula": "C<sub>20</sub>H<sub>28</sub>O<sub>4</sub>",
        "Molecular Mass": "332.43",
        "Melting Point": "201-202 °C"
    }
}