{
    "cas_no": "73896-36-3",
    "key_name": "6-Methoxy-3-nitro-2-pyridinamine",
    "cn_name": "2-氨基-3-硝基-6-甲氧基吡啶;",
    "alternate_name": "2-Pyridinamine, 6-methoxy-3-nitro-;6-Methoxy-3-nitro-2-pyridinamine;2-Amino-6-methoxy-3-nitropyridine;(6-Methoxy-3-nitropyridin-2-yl)amine;2-Amino-3-nitro-6-methoxypyridine;6-Methoxy-3-nitro-2-aminopyridine",
    "duplicated_cas_no": "",
    "SMILES": "N(=O)(=O)C1=C(N)N=C(OC)C=C1",
    "meta_data": {
        "InChI": "InChI=1S/C6H7N3O3/c1-12-5-3-2-4(9(10)11)6(7)8-5/h2-3H,1H3,(H2,7,8)",
        "InChIKey": null,
        "Canonical SMILES": "O=N(=O)C1=CC=C(N=C1N)OC",
        "Molecular Formula": "C<sub>6</sub>H<sub>7</sub>N<sub>3</sub>O<sub>3</sub>",
        "Molecular Mass": "169.14",
        "Melting Point": "169-171 °C"
    }
}