{
    "cas_no": "29096-75-1",
    "key_name": "2-Amino-5,6-dimethylbenzimidazole",
    "cn_name": "2-氨基-5,6-二甲基苯并咪唑; 5,6-二甲基-1H-苯并咪唑-2-胺;",
    "alternate_name": "1<em>H</em>-Benzimidazol-2-amine, 5,6-dimethyl-;Benzimidazole, 2-amino-5,6-dimethyl-;5,6-Dimethyl-1<em>H</em>-benzimidazol-2-amine;5,6-Dimethyl-2-aminobenzimidazole;2-Amino-5,6-dimethylbenzimidazole;NSC 208659;5,6-Dimethyl-1<em>H</em>-benzo[<em>d</em>]imidazol-2-amine",
    "duplicated_cas_no": "943743-88-2",
    "SMILES": "CC=1C=C2C(=CC1C)N=C(N)N2",
    "meta_data": {
        "InChI": "InChI=1S/C9H11N3/c1-5-3-7-8(4-6(5)2)12-9(10)11-7/h3-4H,1-2H3,(H3,10,11,12)",
        "InChIKey": null,
        "Canonical SMILES": "N1=C(N)NC=2C=C(C(=CC12)C)C",
        "Molecular Formula": "C<sub>9</sub>H<sub>11</sub>N<sub>3</sub>",
        "Molecular Mass": "161.20",
        "Melting Point": "195-199 °C"
    }
}