{
    "cas_no": "4861-58-9",
    "key_name": "2-Pentylthiophene",
    "cn_name": "2-正戊基噻吩;2-正戊基噻吩,98%;",
    "alternate_name": "Thiophene, 2-pentyl-;2-Pentylthiophene;2-<em>n</em>-Pentylthiophene",
    "duplicated_cas_no": "",
    "SMILES": "C(CCCC)C1=CC=CS1",
    "meta_data": {
        "InChI": "InChI=1S/C9H14S/c1-2-3-4-6-9-7-5-8-10-9/h5,7-8H,2-4,6H2,1H3",
        "InChIKey": null,
        "Canonical SMILES": "S1C=CC=C1CCCCC",
        "Molecular Formula": "C<sub>9</sub>H<sub>14</sub>S",
        "Molecular Mass": "154.27",
        "Boiling Point": "118-120 °C @ Press: 12 Torr",
        "Melting Point": "-59.0 °C",
        "Density": "0.947 g/cm³ @ Temp: 18.7 °C"
    }
}