{
    "cas_no": "63245-28-3",
    "key_name": "EHIDA",
    "cn_name": "依替菲宁;N-(2,6-二乙苯基氨基甲酰甲基)亚胺二乙酸;",
    "alternate_name": "Glycine, <em>N</em>-(carboxymethyl)-<em>N</em>-[2-[(2,6-diethylphenyl)amino]-2-oxoethyl]-;<em>N</em>-(Carboxymethyl)-<em>N</em>-[2-[(2,6-diethylphenyl)amino]-2-oxoethyl]glycine;<em>N</em>-(2,6-Diethylacetanilide)iminodiacetic acid;Etifenin;Diethyl-HIDA;EHIDA",
    "duplicated_cas_no": "67000-56-0",
    "SMILES": "N(C(CN(CC(O)=O)CC(O)=O)=O)C1=C(CC)C=CC=C1CC",
    "meta_data": {
        "InChI": "InChI=1S/C16H22N2O5/c1-3-11-6-5-7-12(4-2)16(11)17-13(19)8-18(9-14(20)21)10-15(22)23/h5-7H,3-4,8-10H2,1-2H3,(H,17,19)(H,20,21)(H,22,23)",
        "InChIKey": null,
        "Canonical SMILES": "O=C(O)CN(CC(=O)O)CC(=O)NC=1C(=CC=CC1CC)CC",
        "Molecular Formula": "C<sub>16</sub>H<sub>22</sub>N<sub>2</sub>O<sub>5</sub>",
        "Molecular Mass": "322.36",
        "Melting Point": "190-194 °C"
    }
}