{
    "cas_no": "5975-78-0",
    "key_name": "Zearalanone",
    "cn_name": "玉米赤霉酮;",
    "alternate_name": "1<em>H</em>-2-Benzoxacyclotetradecin-1,7(8<em>H</em>)-dione, 3,4,5,6,9,10,11,12-octahydro-14,16-dihydroxy-3-methyl-, (3<em>S</em>)-;1<em>H</em>-2-Benzoxacyclotetradecin-1,7(8<em>H</em>)-dione, 3,4,5,6,9,10,11,12-octahydro-14,16-dihydroxy-3-methyl-, (<em>S</em>)-;β-Resorcylic acid, 6-(10-hydroxy-6-oxoundecyl)-, μ-lactone;(3<em>S</em>)-3,4,5,6,9,10,11,12-Octahydro-14,16-dihydroxy-3-methyl-1<em>H</em>-2-benzoxacyclotetradecin-1,7(8<em>H</em>)-dione;Zearalanone;(<em>S</em>)-Zearalanone;P 1502;Zanone;(-)-Zearalanone",
    "duplicated_cas_no": "21307-27-7",
    "SMILES": "OC1=C2C(=CC(O)=C1)CCCCCC(=O)CCC[C@H](C)OC2=O",
    "meta_data": {
        "InChI": "InChI=1S/C18H24O5/c1-12-6-5-9-14(19)8-4-2-3-7-13-10-15(20)11-16(21)17(13)18(22)23-12/h10-12,20-21H,2-9H2,1H3/t12-/m0/s1",
        "InChIKey": null,
        "Canonical SMILES": "O=C1OC(C)CCCC(=O)CCCCCC=2C=C(O)C=C(O)C12",
        "Molecular Formula": "C<sub>18</sub>H<sub>24</sub>O<sub>5</sub>",
        "Molecular Mass": "320.38",
        "Melting Point": "191-193 °C"
    }
}