{
    "cas_no": "739-71-9",
    "key_name": "Trimipramine",
    "cn_name": "曲米帕明;曲米帕明;三甲丙咪嗪;",
    "alternate_name": "5<em>H</em>-Dibenz[<em>b</em>,<em>f</em>]azepine-5-propanamine, 10,11-dihydro-<em>N</em>,<em>N</em>,β-trimethyl-;5<em>H</em>-Dibenz[<em>b</em>,<em>f</em>]azepine, 5-[3-(dimethylamino)-2-methylpropyl]-10,11-dihydro-;10,11-Dihydro-<em>N</em>,<em>N</em>,β-trimethyl-5<em>H</em>-dibenz[<em>b</em>,<em>f</em>]azepine-5-propanamine;IL 6001;7162 RP;10,11-Dihydro-5-(3-dimethylamino-2-methylpropyl)-5<em>H</em>-dibenz[<em>b</em>,<em>f</em>]azepine;5-[3-(Dimethylamino)-2-methylpropyl]-10,11-dihydro-5<em>H</em>-dibenz[<em>b</em>,<em>f</em>]azepine;5-(γ-Dimethylamino-β-methylpropyl)-10,11-dihydro-5<em>H</em>-dibenzo[<em>b</em>,<em>f</em>]azepine;Trimeprimine;Trimipramine;Surmontil;β-Methylimipramine;Sapilent;Trimeproprimine;RP 7162;(±)-Trimipramine;Rhotrimine;MeSH ID: D014299",
    "duplicated_cas_no": "1796-77-6",
    "SMILES": "C(C(CN(C)C)C)N1C=2C(CCC=3C1=CC=CC3)=CC=CC2",
    "meta_data": {
        "InChI": "InChI=1S/C20H26N2/c1-16(14-21(2)3)15-22-19-10-6-4-8-17(19)12-13-18-9-5-7-11-20(18)22/h4-11,16H,12-15H2,1-3H3",
        "InChIKey": null,
        "Canonical SMILES": "C=1C=CC2=C(C1)N(C=3C=CC=CC3CC2)CC(C)CN(C)C",
        "Molecular Formula": "C<sub>20</sub>H<sub>26</sub>N<sub>2</sub>",
        "Molecular Mass": "294.43",
        "Boiling Point": "153-154 °C @ Press: 0.4 Torr",
        "Melting Point": "45 °C"
    }
}