{
    "cas_no": "589-15-1",
    "key_name": "4-Bromobenzyl bromide",
    "cn_name": "对溴溴苄;4-溴溴苄;",
    "alternate_name": "Benzene, 1-bromo-4-(bromomethyl)-;Toluene, <em>p</em>,α-dibromo-;1-Bromo-4-(bromomethyl)benzene;<em>p</em>-Bromobenzyl bromide;α,<em>p</em>-Dibromotoluene;4-Bromobenzyl bromide;4-(Bromomethyl)bromobenzene;1-(Bromomethyl)-4-bromobenzene;4-Bromo-1-bromomethylbenzene;NSC 113584",
    "duplicated_cas_no": "",
    "SMILES": "C(Br)C1=CC=C(Br)C=C1",
    "meta_data": {
        "InChI": "InChI=1S/C7H6Br2/c8-5-6-1-3-7(9)4-2-6/h1-4H,5H2",
        "InChIKey": null,
        "Canonical SMILES": "BrC1=CC=C(C=C1)CBr",
        "Molecular Formula": "C<sub>7</sub>H<sub>6</sub>Br<sub>2</sub>",
        "Molecular Mass": "249.93",
        "Boiling Point": "190-195 °C @ Press: 4 Torr",
        "Melting Point": "63 °C"
    }
}