{
    "cas_no": "24237-54-5",
    "key_name": "Tinoridine",
    "cn_name": "替诺立定;2-氨基-6-苄基-4,5,6,7-四氢噻吩并[2,3-c]吡啶-3-甲酸乙酯;",
    "alternate_name": "Thieno[2,3-<em>c</em>]pyridine-3-carboxylic acid, 2-amino-4,5,6,7-tetrahydro-6-(phenylmethyl)-, ethyl ester;Thieno[2,3-<em>c</em>]pyridine-3-carboxylic acid, 2-amino-6-benzyl-4,5,6,7-tetrahydro-, ethyl ester;2-Amino-3-ethoxycarbonyl-6-benzyl-4,5,6,7-tetrahydrothieno[2,3-<em>c</em>]pyridine;2-Amino-3-ethoxycarboxyl-6-benzyl-4,5,6,7-tetrahydrothieno[2,3-<em>c</em>]pyridine;2-Amino-3-ethoxycarbonyl-6-benzyl-4,5,6,4-tetrahydrothieno[2,3-<em>c</em>]pyridine;Y 3642;Tinoridine;NSC 158555;2-Amino-6-benzyl-4,5,6,7-tetrahydro-thieno[2,3-<em>c</em>]pyridine-3-carboxylic acid ethyl ester",
    "duplicated_cas_no": "",
    "SMILES": "C(OCC)(=O)C=1C2=C(CN(CC3=CC=CC=C3)CC2)SC1N",
    "meta_data": {
        "InChI": "InChI=1S/C17H20N2O2S/c1-2-21-17(20)15-13-8-9-19(11-14(13)22-16(15)18)10-12-6-4-3-5-7-12/h3-7H,2,8-11,18H2,1H3",
        "InChIKey": null,
        "Canonical SMILES": "O=C(OCC)C1=C(SC2=C1CCN(CC=3C=CC=CC3)C2)N",
        "Molecular Formula": "C<sub>17</sub>H<sub>20</sub>N<sub>2</sub>O<sub>2</sub>S",
        "Molecular Mass": "316.42",
        "Melting Point": "112.5 °C"
    }
}