{
    "cas_no": "822-08-2",
    "key_name": "1,11-Undecanediamine",
    "cn_name": null,
    "alternate_name": "1,11-Undecanediamine;Undecamethylenediamine;1,11-Diaminoundecane;NSC 59818;1,11-Undecamethylenediamine",
    "duplicated_cas_no": "95931-02-5",
    "SMILES": "C(CCCCCN)CCCCCN",
    "meta_data": {
        "InChI": "InChI=1S/C11H26N2/c12-10-8-6-4-2-1-3-5-7-9-11-13/h1-13H2",
        "InChIKey": null,
        "Canonical SMILES": "NCCCCCCCCCCCN",
        "Molecular Formula": "C<sub>11</sub>H<sub>26</sub>N<sub>2</sub>",
        "Molecular Mass": "186.34",
        "Boiling Point": "149-152 °C @ Press: 10 Torr",
        "Melting Point": "58 °C"
    }
}