{
    "cas_no": "629-76-5",
    "key_name": "1-Pentadecanol",
    "cn_name": "1-十五醇;C15醇;",
    "alternate_name": "1-Pentadecanol;Pentadecanol;Pentadecyl alcohol;<em>n</em>-1-Pentadecanol;<em>n</em>-Pentadecanol;Alfol 15;NSC 66446",
    "duplicated_cas_no": "",
    "SMILES": "C(CCCCCCCO)CCCCCCC",
    "meta_data": {
        "InChI": "InChI=1S/C15H32O/c1-2-3-4-5-6-7-8-9-10-11-12-13-14-15-16/h16H,2-15H2,1H3",
        "InChIKey": null,
        "Canonical SMILES": "OCCCCCCCCCCCCCCC",
        "Molecular Formula": "C<sub>15</sub>H<sub>32</sub>O",
        "Molecular Mass": "228.41",
        "Boiling Point": "122-125 °C @ Press: 0.35 Torr",
        "Melting Point": "45-46 °C",
        "Density": "0.8364 g/cm³ @ Temp: 22.4 °C"
    }
}