{
    "cas_no": "4857-04-9",
    "key_name": "2-(Chloromethyl)benzimidazole",
    "cn_name": "2-氯甲基苯并咪唑;",
    "alternate_name": "1<em>H</em>-Benzimidazole, 2-(chloromethyl)-;Benzimidazole, 2-(chloromethyl)-;2-(Chloromethyl)-1<em>H</em>-benzimidazole;2-(Chloromethyl)benzimidazole;NSC 103708;NSC 15436;2-(Chloromethyl)-1<em>H</em>-benzo[<em>d</em>]imidazole;2-(Chloromethyl)-1<em>H</em>-1,3-benzodiazole",
    "duplicated_cas_no": "",
    "SMILES": "C(Cl)C=1NC=2C(N1)=CC=CC2",
    "meta_data": {
        "InChI": "InChI=1S/C8H7ClN2/c9-5-8-10-6-3-1-2-4-7(6)11-8/h1-4H,5H2,(H,10,11)",
        "InChIKey": null,
        "Canonical SMILES": "ClCC1=NC=2C=CC=CC2N1",
        "Molecular Formula": "C<sub>8</sub>H<sub>7</sub>ClN<sub>2</sub>",
        "Molecular Mass": "166.61",
        "Melting Point": "160-161 °C"
    }
}