{
    "cas_no": "52-67-5",
    "key_name": "(-)-Penicillamine",
    "cn_name": "青霉胺;D-青霉胺;3,3-二甲基-D(-)-半胱胺酸;",
    "alternate_name": "<span class=\"text-smallcaps\">D</span>-Valine, 3-mercapto-;Valine, 3-mercapto-, <span class=\"text-smallcaps\">D</span>-;3-Mercapto-<span class=\"text-smallcaps\">D</span>-valine;Cuprimine;<span class=\"text-smallcaps\">D</span>-3-Mercaptovaline;<span class=\"text-smallcaps\">D</span>-Penicillamine;Penicillamine;Metalcaptase;Cuprenil;Trolovol;<span class=\"text-smallcaps\">D</span>-Mercaptovaline;<span class=\"text-smallcaps\">D</span>-(-)-Penicillamine;Penicillamin;<span class=\"text-smallcaps\">D</span>-Penamine;Reduced <span class=\"text-smallcaps\">D</span>-penicillamine;Reduced penicillamine;DPA;Kuprenil;Cupripen;(<em>S</em>)-3,3-Dimethylcysteine;(-)-Penicillamine;2-Amino-3-mercapto-3-methylbutanoic acid;(2<em>S</em>)-2-Amino-3-methyl-3-sulfanylbutanoic acid;(<em>S</em>)-Penicillamine;Perdolat;Mercaptyl;Pendramine;Depen;Sufirtan;β-Thiovaline;Depamine;NSC 81549;Artamin;Dimethylcysteine;(2S)-2-Azaniumyl-3-methyl-3-sulfanylbutanoate;(2S)-2-Amino-3-methyl-3-sulfanylbutanoic acid;MeSH ID: D010396",
    "duplicated_cas_no": "16414-54-3;937590-88-0",
    "SMILES": "[C@@H](C(C)(C)S)(C(O)=O)N",
    "meta_data": {
        "InChI": "InChI=1S/C5H11NO2S/c1-5(2,9)3(6)4(7)8/h3,9H,6H2,1-2H3,(H,7,8)/t3-/m0/s1",
        "InChIKey": null,
        "Canonical SMILES": "O=C(O)C(N)C(S)(C)C",
        "Molecular Formula": "C<sub>5</sub>H<sub>11</sub>NO<sub>2</sub>S",
        "Molecular Mass": "149.21",
        "Melting Point": "202-206 °C"
    }
}