{
    "cas_no": "75184-71-3",
    "key_name": "Albendazole sulfone",
    "cn_name": null,
    "alternate_name": "Carbamic acid, <em>N</em>-[6-(propylsulfonyl)-1<em>H</em>-benzimidazol-2-yl]-, methyl ester;Carbamic acid, [5-(propylsulfonyl)-1<em>H</em>-benzimidazol-2-yl]-, methyl ester;Albendazole sulfone;Methyl [5-(propylsulfonyl)-1<em>H</em>-benzimidazol-2-yl]carbamate;[5-(Propane-1-sulfonyl)-1<em>H</em>-benzoimidazol-2-yl]-carbamic acid methyl ester",
    "duplicated_cas_no": "76567-28-7",
    "SMILES": "S(CCC)(=O)(=O)C=1C=C2C(N=C(NC(OC)=O)N2)=CC1",
    "meta_data": {
        "InChI": "InChI=1S/C12H15N3O4S/c1-3-6-20(17,18)8-4-5-9-10(7-8)14-11(13-9)15-12(16)19-2/h4-5,7H,3,6H2,1-2H3,(H2,13,14,15,16)",
        "InChIKey": null,
        "Canonical SMILES": "O=C(OC)NC1=NC=2C=CC(=CC2N1)S(=O)(=O)CCC",
        "Molecular Formula": "C<sub>12</sub>H<sub>15</sub>N<sub>3</sub>O<sub>4</sub>S",
        "Molecular Mass": "297.33",
        "Melting Point": "226-227 °C"
    }
}