{
    "cas_no": "39890-45-4",
    "key_name": "2-(1-Piperazinyl)-1-(1-pyrrolidinyl)ethanone",
    "cn_name": null,
    "alternate_name": "Ethanone, 2-(1-piperazinyl)-1-(1-pyrrolidinyl)-;Pyrrolidine, 1-(1-piperazinylacetyl)-;2-(1-Piperazinyl)-1-(1-pyrrolidinyl)ethanone;1-Pyrrolidinocarbonylmethylpiperazine;1-(1-Pyrrolidinylcarbonylmethyl)piperazine;1-[(1-Piperazinylmethyl)carbonyl]pyrrolidine;<em>N</em>-Pyrrolidinocarbonylmethylpiperazine;1-(1-Piperazinylacetyl)pyrrolidine;<em>N</em>-[2-(1-Piperazinyl)acetyl]pyrrolidine;2-(Piperazin-1-yl)-1-(pyrrolidin-1-yl)ethanone;1-(2-Oxo-2-pyrrolidin-1-ylethyl)piperazine;NSC 330748;1-[2-(Piperazin-1-yl)acetyl]pyrrolidine;1-(2-(Pyrrolidin-1-yl)-2-oxoethyl)piperazine;2-(Piperazin-1-yl)-1-(pyrrolidin-1-yl)ethan-1-one",
    "duplicated_cas_no": "",
    "SMILES": "C(CN1CCNCC1)(=O)N2CCCC2",
    "meta_data": {
        "InChI": "InChI=1S/C10H19N3O/c14-10(13-5-1-2-6-13)9-12-7-3-11-4-8-12/h11H,1-9H2",
        "InChIKey": null,
        "Canonical SMILES": "O=C(N1CCCC1)CN2CCNCC2",
        "Molecular Formula": "C<sub>10</sub>H<sub>19</sub>N<sub>3</sub>O",
        "Molecular Mass": "197.28",
        "Melting Point": "90 °C"
    }
}