{
    "cas_no": "15546-75-5",
    "key_name": "5,10-Dihydro-5,10-dimethylphenazine",
    "cn_name": "5,10-二氢-5,10-二甲基吩嗪;",
    "alternate_name": "Phenazine, 5,10-dihydro-5,10-dimethyl-;5,10-Dihydro-5,10-dimethylphenazine;5,10-Dimethyl-5,10-dihydrophenazine;<em>N</em>,<em>N</em>′-Dimethylphenazine;DMPhen;NSC 149969",
    "duplicated_cas_no": "",
    "SMILES": "CN1C=2C(N(C)C=3C1=CC=CC3)=CC=CC2",
    "meta_data": {
        "InChI": "InChI=1S/C14H14N2/c1-15-11-7-3-5-9-13(11)16(2)14-10-6-4-8-12(14)15/h3-10H,1-2H3",
        "InChIKey": null,
        "Canonical SMILES": "C=1C=CC2=C(C1)N(C=3C=CC=CC3N2C)C",
        "Molecular Formula": "C<sub>14</sub>H<sub>14</sub>N<sub>2</sub>",
        "Molecular Mass": "210.27",
        "Melting Point": "152-153 °C"
    }
}