{
    "cas_no": "19131-99-8",
    "key_name": "(α<em>S</em>)-<em>N</em>,α-Dimethylbenzenemethanamine",
    "cn_name": "(S)-(-)-N,α-二甲基苯甲基胺;",
    "alternate_name": "Benzenemethanamine, <em>N</em>,α-dimethyl-, (α<em>S</em>)-;Benzylamine, <em>N</em>,α-dimethyl-, (<em>S</em>)-(-)-;Benzenemethanamine, <em>N</em>,α-dimethyl-, (<em>S</em>)-;(α<em>S</em>)-<em>N</em>,α-Dimethylbenzenemethanamine;<em>S</em>-(-)-<em>N</em>,α-Dimethylbenzylamine;(<em>S</em>)-<em>N</em>-Methyl-1-phenylethylamine;(<em>S</em>)-Methyl(1-phenylethyl)amine;<em>N</em>-Methyl-(<em>S</em>)-α-phenylethylamine;<em>N</em>-Methyl-(<em>S</em>)-1-phenylethylamine;(<em>S</em>)-<em>N</em>,α-Dimethylbenzenemethanamine;(<em>S</em>)-<em>N</em>,α-Dimethylbenzylamine;(<em>S</em>)-(-)-<em>N</em>-Methyl-1-phenylethylamine;(<em>S</em>)-α,<em>N</em>-Dimethylbenzylamine;<em>N</em>-Methyl-<em>N</em>-[(1<em>S</em>)-1-phenylethyl]amine;(1<em>S</em>)-<em>N</em>-Methyl-1-phenylethylamine;<em>N</em>-Methyl-<em>N</em>-[(α<em>S</em>)-α-methylbenzyl]amine;(<em>S</em>)-<em>N</em>-Methyl-α-methylbenzylamine;(-)-(<em>S</em>)-α,<em>N</em>-Dimethylbenzylamine;(<em>S</em>)-<em>N</em>-Methyl-1-phenylethanamine;(1S)-<em>N</em>-Methyl-1-phenylethanamine;(<em>S</em>)-<em>N</em>-Methyl-1-phenylethan-1-amine",
    "duplicated_cas_no": "",
    "SMILES": "[C@H](NC)(C)C1=CC=CC=C1",
    "meta_data": {
        "InChI": "InChI=1S/C9H13N/c1-8(10-2)9-6-4-3-5-7-9/h3-8,10H,1-2H3/t8-/m0/s1",
        "InChIKey": null,
        "Canonical SMILES": "C=1C=CC(=CC1)C(NC)C",
        "Molecular Formula": "C<sub>9</sub>H<sub>13</sub>N",
        "Molecular Mass": "135.21",
        "Boiling Point": "86 °C @ Press: 20 Torr"
    }
}