{
    "cas_no": "30007-47-7",
    "key_name": "5-Bromo-5-nitro-1,3-dioxane",
    "cn_name": "5-溴-5-硝基-1,3-二恶烷;",
    "alternate_name": "1,3-Dioxane, 5-bromo-5-nitro-;<em>m</em>-Dioxane, 5-bromo-5-nitro-;5-Bromo-5-nitro-1,3-dioxane;Bronidox;Bronidox L;Microcide I",
    "duplicated_cas_no": "",
    "SMILES": "N(=O)(=O)C1(Br)COCOC1",
    "meta_data": {
        "InChI": "InChI=1S/C4H6BrNO4/c5-4(6(7)8)1-9-3-10-2-4/h1-3H2",
        "InChIKey": null,
        "Canonical SMILES": "O=N(=O)C1(Br)COCOC1",
        "Molecular Formula": "C<sub>4</sub>H<sub>6</sub>BrNO<sub>4</sub>",
        "Molecular Mass": "212.00",
        "Melting Point": "59 °C"
    }
}