{
    "cas_no": "168297-85-6",
    "key_name": "(<em>S</em>)-4-Benzyl-5,5-dimethyloxazolidin-2-one",
    "cn_name": "(S)-(-)-4-苄基-5,5-二甲基-2-恶唑烷酮;",
    "alternate_name": "2-Oxazolidinone, 5,5-dimethyl-4-(phenylmethyl)-, (4<em>S</em>)-;2-Oxazolidinone, 5,5-dimethyl-4-(phenylmethyl)-, (<em>S</em>)-;(4<em>S</em>)-5,5-Dimethyl-4-(phenylmethyl)-2-oxazolidinone;(<em>S</em>)-4-Benzyl-5,5-dimethyloxazolidin-2-one;(<em>S</em>)-(-)-4-Benzyl-5,5-dimethyl-2-oxazolidinone;4<em>S</em>-Benzyl-5,5-dimethyloxazolidin-2-one;(4S)-4-Benzyl-5,5-dimethyloxazolidin-2-one;(4<em>S</em>)-4-Benzyl-5,5-dimethyloxazolidin-2-one;(4S)-4-Benzyl-5,5-dimethyl-1,3-oxazolidin-2-one",
    "duplicated_cas_no": "",
    "SMILES": "C([C@H]1C(C)(C)OC(=O)N1)C2=CC=CC=C2",
    "meta_data": {
        "InChI": "InChI=1S/C12H15NO2/c1-12(2)10(13-11(14)15-12)8-9-6-4-3-5-7-9/h3-7,10H,8H2,1-2H3,(H,13,14)/t10-/m0/s1",
        "InChIKey": null,
        "Canonical SMILES": "O=C1OC(C)(C)C(N1)CC=2C=CC=CC2",
        "Molecular Formula": "C<sub>12</sub>H<sub>15</sub>NO<sub>2</sub>",
        "Molecular Mass": "205.25",
        "Melting Point": "66-67 °C"
    }
}