{
    "cas_no": "103-79-7",
    "key_name": "Phenylacetone",
    "cn_name": "苯基丙酮;",
    "alternate_name": "2-Propanone, 1-phenyl-;2-Propanone, phenyl-;1-Phenyl-2-propanone;Benzyl methyl ketone;Methyl benzyl ketone;Phenylacetone;Phenyl-2-propanone;3-Phenyl-2-propanone;Phenylmethyl methyl ketone;α-Phenylacetone;1-Phenylacetone;NSC 9827",
    "duplicated_cas_no": "136675-26-8;823270-75-3",
    "SMILES": "C(C(C)=O)C1=CC=CC=C1",
    "meta_data": {
        "InChI": "InChI=1S/C9H10O/c1-8(10)7-9-5-3-2-4-6-9/h2-6H,7H2,1H3",
        "InChIKey": null,
        "Canonical SMILES": "O=C(C)CC=1C=CC=CC1",
        "Molecular Formula": "C<sub>9</sub>H<sub>10</sub>O",
        "Molecular Mass": "134.18",
        "Boiling Point": "216.5 °C",
        "Melting Point": "-15 °C",
        "Density": "1.0044 g/cm³ @ Temp: 22 °C"
    }
}