{
    "cas_no": "51940-44-4",
    "key_name": "Pipemidic acid",
    "cn_name": "吡哌酸;8-乙基-5,8-二氢-5-氧代-2-(1-哌嗪基)吡啶并[2,3-d]嘧啶-6-羧酸;",
    "alternate_name": "Pyrido[2,3-<em>d</em>]pyrimidine-6-carboxylic acid, 8-ethyl-5,8-dihydro-5-oxo-2-(1-piperazinyl)-;8-Ethyl-5,8-dihydro-5-oxo-2-(1-piperazinyl)pyrido[2,3-<em>d</em>]pyrimidine-6-carboxylic acid;Pipemidic acid;Deblaston;Uromidin;Palin;Dolcol;Uroval;Pi-Coli;Urosten;Pipedac;Memento 400;Pipurin;Tractur;1489RB;Pipeacid;Uropimid;Pipemid;Filtrax;8-Ethyl-2-(piperazin-1-yl)-5-oxo-5,8-dihydropyrido[2,3-<em>d</em>]pyrimidine-6-carboxylic acid;MeSH ID: D010876",
    "duplicated_cas_no": "108911-86-0;56451-79-7",
    "SMILES": "C(C)N1C=2C(C(=O)C(C(O)=O)=C1)=CN=C(N2)N3CCNCC3",
    "meta_data": {
        "InChI": "InChI=1S/C14H17N5O3/c1-2-18-8-10(13(21)22)11(20)9-7-16-14(17-12(9)18)19-5-3-15-4-6-19/h7-8,15H,2-6H2,1H3,(H,21,22)",
        "InChIKey": null,
        "Canonical SMILES": "O=C(O)C1=CN(C2=NC(=NC=C2C1=O)N3CCNCC3)CC",
        "Molecular Formula": "C<sub>14</sub>H<sub>17</sub>N<sub>5</sub>O<sub>3</sub>",
        "Molecular Mass": "303.32",
        "Melting Point": "253-255 °C"
    }
}