{
    "cas_no": "52698-46-1",
    "key_name": "1,1,1-Trimethoxy-2-methylpropane",
    "cn_name": "原异丁酸三甲酯;",
    "alternate_name": "Propane, 1,1,1-trimethoxy-2-methyl-;1,1,1-Trimethoxy-2-methylpropane;Trimethyl orthoisobutyrate",
    "duplicated_cas_no": "",
    "SMILES": "C(C(C)C)(OC)(OC)OC",
    "meta_data": {
        "InChI": "InChI=1S/C7H16O3/c1-6(2)7(8-3,9-4)10-5/h6H,1-5H3",
        "InChIKey": null,
        "Canonical SMILES": "O(C)C(OC)(OC)C(C)C",
        "Molecular Formula": "C<sub>7</sub>H<sub>16</sub>O<sub>3</sub>",
        "Molecular Mass": "148.20",
        "Boiling Point": "130-135 °C @ Press: 760 Torr"
    }
}