{
    "cas_no": "27126-93-8",
    "key_name": "3,5-Bis(trifluoromethyl)benzonitrile",
    "cn_name": "3,5-双三氟甲基苯腈;",
    "alternate_name": "Benzonitrile, 3,5-bis(trifluoromethyl)-;3,5-Bis(trifluoromethyl)benzonitrile;NSC 88316;3,5-Bis(trifluoromethyl)-1-cyanobenzene;2-Cyano-3,5-bis(trifluoromethyl)benzene",
    "duplicated_cas_no": "",
    "SMILES": "C(F)(F)(F)C1=CC(C(F)(F)F)=CC(C#N)=C1",
    "meta_data": {
        "InChI": "InChI=1S/C9H3F6N/c10-8(11,12)6-1-5(4-16)2-7(3-6)9(13,14)15/h1-3H",
        "InChIKey": null,
        "Canonical SMILES": "N#CC=1C=C(C=C(C1)C(F)(F)F)C(F)(F)F",
        "Molecular Formula": "C<sub>9</sub>H<sub>3</sub>F<sub>6</sub>N",
        "Molecular Mass": "239.12",
        "Melting Point": "16-17 °C"
    }
}