{
    "cas_no": "13138-53-9",
    "key_name": "4-Nitro-1,2-benzenedicarboxamide",
    "cn_name": "4-硝基邻苯二甲酰胺;",
    "alternate_name": "1,2-Benzenedicarboxamide, 4-nitro-;4-Nitro-1,2-benzenedicarboxamide;4-Nitrophthalamide;NSC 94821",
    "duplicated_cas_no": "",
    "SMILES": "C(N)(=O)C1=C(C(N)=O)C=CC(N(=O)=O)=C1",
    "meta_data": {
        "InChI": "InChI=1S/C8H7N3O4/c9-7(12)5-2-1-4(11(14)15)3-6(5)8(10)13/h1-3H,(H2,9,12)(H2,10,13)",
        "InChIKey": null,
        "Canonical SMILES": "O=C(N)C1=CC=C(C=C1C(=O)N)N(=O)=O",
        "Molecular Formula": "C<sub>8</sub>H<sub>7</sub>N<sub>3</sub>O<sub>4</sub>",
        "Molecular Mass": "209.16",
        "Melting Point": "189-191 °C"
    }
}