{
    "cas_no": "25419-06-1",
    "key_name": "<em>N</em>-Methylpentylamine",
    "cn_name": "N-甲基正戊胺;",
    "alternate_name": "1-Pentanamine, <em>N</em>-methyl-;Pentylamine, <em>N</em>-methyl-;<em>N</em>-Methyl-1-pentanamine;Methylamylamine;<em>N</em>-Methylamylamine;<em>N</em>-Methylpentylamine;<em>N</em>-Amyl-<em>N</em>-methylamine;<em>N</em>-Methylpentanamine;<em>N</em>-Pentyl-<em>N</em>-methylamine;<em>N</em>-Methyl-<em>N</em>-pentylamine;<em>N</em>-Methylpentan-1-amine;<em>N</em>-Methyl-1-pentylamine",
    "duplicated_cas_no": "",
    "SMILES": "C(CCC)CNC",
    "meta_data": {
        "InChI": "InChI=1S/C6H15N/c1-3-4-5-6-7-2/h7H,3-6H2,1-2H3",
        "InChIKey": null,
        "Canonical SMILES": "N(C)CCCCC",
        "Molecular Formula": "C<sub>6</sub>H<sub>15</sub>N",
        "Molecular Mass": "101.19",
        "Boiling Point": "116-118 °C",
        "Density": "0.738 g/cm³ @ Temp: 15 °C"
    }
}