{
    "cas_no": "1080-44-0",
    "key_name": "<em>N</em>-[(4-Methylphenyl)sulfonyl]glycine",
    "cn_name": "N-对甲苯磺酰甘氨酸;甲苯磺酰基甘氨酸;",
    "alternate_name": "Glycine, <em>N</em>-[(4-methylphenyl)sulfonyl]-;Glycine, <em>N</em>-(<em>p</em>-tolylsulfonyl)-;<em>N</em>-[(4-Methylphenyl)sulfonyl]glycine;Tosylglycine;(<em>p</em>-Toluenesulfonyl)glycine;<em>N</em>-(<em>p</em>-Tolylsulfonyl)glycine;<em>N</em>-Tosylglycine;<em>N</em>-<em>p</em>-Tosylglycine;<em>N</em>-(<em>p</em>-Toluenesulfonyl)glycine;NSC 25821;<em>N</em>-<em>p</em>-(Toluenesulfonyl)aminoacetic acid;[[(4-Methylphenyl)sulfonyl]amino]acetic acid;[(Toluene-4-sulfonyl)amino]acetic acid;2-(4-Methylphenylsulfonamido)acetic acid;2-[(4-Methylphenyl)sulfonylamino]acetic acid;2-(4-Methylbenzenesulfonamido)acetic acid",
    "duplicated_cas_no": "",
    "SMILES": "S(NCC(O)=O)(=O)(=O)C1=CC=C(C)C=C1",
    "meta_data": {
        "InChI": "InChI=1S/C9H11NO4S/c1-7-2-4-8(5-3-7)15(13,14)10-6-9(11)12/h2-5,10H,6H2,1H3,(H,11,12)",
        "InChIKey": null,
        "Canonical SMILES": "O=C(O)CNS(=O)(=O)C1=CC=C(C=C1)C",
        "Molecular Formula": "C<sub>9</sub>H<sub>11</sub>NO<sub>4</sub>S",
        "Molecular Mass": "229.25",
        "Melting Point": "149-150 °C"
    }
}