{
    "cas_no": "226-36-8",
    "key_name": "Dibenz[<em>a</em>,<em>h</em>]acridine",
    "cn_name": null,
    "alternate_name": "Dibenz[<em>a</em>,<em>h</em>]acridine;7-Azadibenz[<em>a</em>,<em>h</em>]anthracene;1,2:5,6-Dibenzacridine;Dibenz[<em>a</em>,<em>d</em>]acridine;1,2,5,6-Dibenzoacridine",
    "duplicated_cas_no": "",
    "SMILES": "C12=C3C(=CC=C1N=C4C(=C2)C=CC=5C4=CC=CC5)C=CC=C3",
    "meta_data": {
        "InChI": "InChI=1S/C21H13N/c1-3-7-17-14(5-1)11-12-20-19(17)13-16-10-9-15-6-2-4-8-18(15)21(16)22-20/h1-13H",
        "InChIKey": null,
        "Canonical SMILES": "N=1C2=CC=C3C=CC=CC3=C2C=C4C=CC=5C=CC=CC5C14",
        "Molecular Formula": "C<sub>21</sub>H<sub>13</sub>N",
        "Molecular Mass": "279.33",
        "Melting Point": "226 °C"
    }
}