{
    "cas_no": "314-41-0",
    "key_name": "1,2,3,5-Tetrafluoro-4-nitrobenzene",
    "cn_name": "2,3,4,6-四氟硝基苯;",
    "alternate_name": "Benzene, 1,2,3,5-tetrafluoro-4-nitro-;1,2,3,5-Tetrafluoro-4-nitrobenzene;2,3,4,6-Tetrafluoronitrobenzene;2,3,4,6-Tetrafluoro-1-nitrobenzene",
    "duplicated_cas_no": "",
    "SMILES": "N(=O)(=O)C1=C(F)C(F)=C(F)C=C1F",
    "meta_data": {
        "InChI": "InChI=1S/C6HF4NO2/c7-2-1-3(8)6(11(12)13)5(10)4(2)9/h1H",
        "InChIKey": null,
        "Canonical SMILES": "O=N(=O)C=1C(F)=CC(F)=C(F)C1F",
        "Molecular Formula": "C<sub>6</sub>HF<sub>4</sub>NO<sub>2</sub>",
        "Molecular Mass": "195.07",
        "Boiling Point": "76-77 °C @ Press: 20 Torr"
    }
}