{
    "cas_no": "93413-79-7",
    "key_name": "Benzeneethanamine, β-1-cyclohexen-1-yl-4-methoxy-<em>N</em>,<em>N</em>-dimethyl-, hydrochloride (1:1)",
    "cn_name": null,
    "alternate_name": "Benzeneethanamine, β-1-cyclohexen-1-yl-4-methoxy-<em>N</em>,<em>N</em>-dimethyl-, hydrochloride (1:1);Benzeneethanamine, β-1-cyclohexen-1-yl-4-methoxy-<em>N</em>,<em>N</em>-dimethyl-, hydrochloride, (±)-;Benzeneethanamine, β-1-cyclohexen-1-yl-4-methoxy-<em>N</em>,<em>N</em>-dimethyl-, hydrochloride",
    "duplicated_cas_no": "",
    "SMILES": "C(CN(C)C)(C1=CC=C(OC)C=C1)C=2CCCCC2.Cl",
    "meta_data": {
        "InChI": "InChI=1S/C17H25NO.ClH/c1-18(2)13-17(14-7-5-4-6-8-14)15-9-11-16(19-3)12-10-15;/h7,9-12,17H,4-6,8,13H2,1-3H3;1H",
        "InChIKey": null,
        "Canonical SMILES": "Cl.O(C1=CC=C(C=C1)C(C2=CCCCC2)CN(C)C)C",
        "Molecular Formula": "C<sub>17</sub>H<sub>25</sub>NO.ClH",
        "Molecular Mass": "",
        "Melting Point": "187-189 °C"
    }
}