{
    "cas_no": "4426-51-1",
    "key_name": "1,3,2-Dioxathiane, 4-methyl-, 2-oxide",
    "cn_name": "亚硫酸丁烯酯;亚硫酸丁烯酯;",
    "alternate_name": "1,3,2-Dioxathiane, 4-methyl-, 2-oxide;1,3-Butanediol, cyclic sulfite;4-Methyltrimethylene sulfite;NSC 60195;4-Methyl-2-oxo-1,3,2-dioxathiane;4-Methyl-1,3,2-dioxathiane 2-oxide;1,3-Butylene glycol sulfite;Butylene sulfite",
    "duplicated_cas_no": "",
    "SMILES": "CC1OS(=O)OCC1",
    "meta_data": {
        "InChI": "InChI=1S/C4H8O3S/c1-4-2-3-6-8(5)7-4/h4H,2-3H2,1H3",
        "InChIKey": null,
        "Canonical SMILES": "O=S1OCCC(O1)C",
        "Molecular Formula": "C<sub>4</sub>H<sub>8</sub>O<sub>3</sub>S",
        "Molecular Mass": "136.17",
        "Boiling Point": "185 °C",
        "Melting Point": "5 °C"
    }
}