{
    "cas_no": "80621-81-4",
    "key_name": "Rifaximin",
    "cn_name": "利福昔明;",
    "alternate_name": "2,7-(Epoxypentadeca[1,11,13]trienimino)benzofuro[4,5-<em>e</em>]pyrido[1,2-<em>a</em>]benzimidazole-1,15(2<em>H</em>)-dione, 25-(acetyloxy)-5,6,21,23-tetrahydroxy-27-methoxy-2,4,11,16,20,22,24,26-octamethyl-, (2<em>S</em>,16<em>Z</em>,18<em>E</em>,20<em>S</em>,21<em>S</em>,22<em>R</em>,23<em>R</em>,24<em>R</em>,25<em>S</em>,26<em>R</em>,27<em>S</em>,28<em>E</em>)-;2,7-(Epoxypentadeca[1,11,13]trienimino)benzofuro[4,5-<em>e</em>]pyrido[1,2-<em>a</em>]benzimidazole-1,15(2<em>H</em>)-dione, 25-(acetyloxy)-5,6,21,23-tetrahydroxy-27-methoxy-2,4,11,16,20,22,24,26-octamethyl-, [2<em>S</em>-(2<em>R</em>*,16<em>Z</em>,18<em>E</em>,20<em>R</em>*,21<em>R</em>*,22<em>S</em>*,23<em>S</em>*,24<em>S</em>*,25<em>R</em>*,26<em>S</em>*,27<em>R</em>*,28<em>E</em>)]-;(2<em>S</em>,16<em>Z</em>,18<em>E</em>,20<em>S</em>,21<em>S</em>,22<em>R</em>,23<em>R</em>,24<em>R</em>,25<em>S</em>,26<em>R</em>,27<em>S</em>,28<em>E</em>)-25-(Acetyloxy)-5,6,21,23-tetrahydroxy-27-methoxy-2,4,11,16,20,22,24,26-octamethyl-2,7-(epoxypentadeca[1,11,13]trienimino)benzofuro[4,5-<em>e</em>]pyrido[1,2-<em>a</em>]benzimidazole-1,15(2<em>H</em>)-dione;L 105;Rifamycin L 105SV;L 105SV;Rifaximin;Rifamycin L 105;L 105 (ansamacrolide antibiotic);refaximin;Xifaxan;Normix;Xifaxanta;(2<em>S</em>,16<em>Z</em>,18<em>E</em>,20<em>S</em>,21<em>S</em>,22<em>R</em>,23<em>R</em>,24<em>R</em>,25<em>S</em>,26<em>R</em>,27<em>S</em>,28<em>E</em>)-5,6,21,23,25-Pentahydroxy-27-methoxy-2,4,11,16,20,22,24,26-octamethyl-2,7-(epoxypentadeca[1,11,13]trienimino)benzofuro[4,5-<em>e</em>]pyrido[1,2-<em>a</em>]benzimidazole-1,15(2<em>H</em>)-dione,25-acetate",
    "duplicated_cas_no": "126334-60-9;88747-56-2;1229193-76-3",
    "SMILES": "",
    "meta_data": {
        "InChI": "",
        "InChIKey": null,
        "Canonical SMILES": "",
        "Molecular Formula": "C<sub>43</sub>H<sub>51</sub>N<sub>3</sub>O<sub>11</sub>",
        "Molecular Mass": "785.88",
        "Melting Point": "200-205 °C (decomp)"
    }
}