{
    "cas_no": "69227-93-6",
    "key_name": "Dodecyl β-<span class=\"text-smallcaps\">D</span>-maltoside",
    "cn_name": "十二烷基-beta-D-麦芽糖苷;",
    "alternate_name": "β-<span class=\"text-smallcaps\">D</smallcap>-Glucopyranoside, dodecyl 4-<em>O</em>-α-<smallcap>D</span>-glucopyranosyl-;Dodecyl 4-<em>O</em>-α-<span class=\"text-smallcaps\">D</smallcap>-glucopyranosyl-β-<smallcap>D</span>-glucopyranoside;Dodecyl β-maltoside;1-Dodecyl-β-<span class=\"text-smallcaps\">D</span>-maltoside;Dodecyl <em>O</em>-β-<span class=\"text-smallcaps\">D</span>-maltoside;Dodecyl β-<span class=\"text-smallcaps\">D</span>-maltopyranoside;Dodecyl maltoside;Lauryl β-<span class=\"text-smallcaps\">D</span>-maltoside;Dodecyl β-<span class=\"text-smallcaps\">D</span>-maltoside;β-1-<em>n</em>-Dodecyl-<span class=\"text-smallcaps\">D</span>-maltoside;Lauryl β-maltoside;<em>n</em>-Dodecyl β-<span class=\"text-smallcaps\">D</span>-maltoside;Dodecyl β-maltopyranoside;Lauryl maltoside;Lauryl β-<span class=\"text-smallcaps\">D</span>-maltopyranoside;Lauryl β-maltopyranoside;<em>n</em>-Dodecyl β-<span class=\"text-smallcaps\">D</span>-maltopyranoside;DDM;DDM (detergent);D 316",
    "duplicated_cas_no": "100839-36-9;124828-33-7;171286-93-4;1245945-83-8",
    "SMILES": "O([C@@H]1[C@@H](CO)O[C@@H](OCCCCCCCCCCCC)[C@H](O)[C@H]1O)[C@H]2O[C@H](CO)[C@@H](O)[C@H](O)[C@H]2O",
    "meta_data": {
        "InChI": "InChI=1S/C24H46O11/c1-2-3-4-5-6-7-8-9-10-11-12-32-23-21(31)19(29)22(16(14-26)34-23)35-24-20(30)18(28)17(27)15(13-25)33-24/h15-31H,2-14H2,1H3/t15-,16-,17-,18+,19-,20-,21-,22-,23-,24-/m1/s1",
        "InChIKey": null,
        "Canonical SMILES": "OCC1OC(OC2C(O)C(O)C(OCCCCCCCCCCCC)OC2CO)C(O)C(O)C1O",
        "Molecular Formula": "C<sub>24</sub>H<sub>46</sub>O<sub>11</sub>",
        "Molecular Mass": "510.62",
        "Melting Point": "240 °C"
    }
}