{
    "cas_no": "21967-41-9",
    "key_name": "Baicalin",
    "cn_name": "黄芩甙;黄芩素;贝加灵;黄芩苷;",
    "alternate_name": "β-<span class=\"text-smallcaps\">D</span>-Glucopyranosiduronic acid, 5,6-dihydroxy-4-oxo-2-phenyl-4<em>H</em>-1-benzopyran-7-yl;Baicalin;5,6-Dihydroxy-4-oxo-2-phenyl-4<em>H</em>-1-benzopyran-7-yl β-<span class=\"text-smallcaps\">D</span>-glucopyranosiduronic acid;Baicalein 7-glucuronide;Baicalein 7-<em>O</em>-β-<span class=\"text-smallcaps\">D</span>-glucuronide;Baicalein 7-<em>O</em>-glucuronide",
    "duplicated_cas_no": "100647-26-5;27462-75-5;31564-28-0;912850-49-8",
    "SMILES": "OC1=C2C(OC(=CC2=O)C3=CC=CC=C3)=CC(O[C@@H]4O[C@H](C(O)=O)[C@@H](O)[C@H](O)[C@H]4O)=C1O",
    "meta_data": {
        "InChI": "InChI=1S/C21H18O11/c22-9-6-10(8-4-2-1-3-5-8)30-11-7-12(14(23)15(24)13(9)11)31-21-18(27)16(25)17(26)19(32-21)20(28)29/h1-7,16-19,21,23-27H,(H,28,29)/t16-,17-,18+,19-,21+/m0/s1",
        "InChIKey": null,
        "Canonical SMILES": "O=C(O)C1OC(OC=2C=C3OC(=CC(=O)C3=C(O)C2O)C=4C=CC=CC4)C(O)C(O)C1O",
        "Molecular Formula": "C<sub>21</sub>H<sub>18</sub>O<sub>11</sub>",
        "Molecular Mass": "446.36",
        "Melting Point": "223 °C"
    }
}