{
    "cas_no": "1484-80-6",
    "key_name": "2-Ethylpiperidine",
    "cn_name": "2-乙基哌啶;",
    "alternate_name": "Piperidine, 2-ethyl-;2-Ethylpiperidine;α-Ethylpiperidine;NSC 211477",
    "duplicated_cas_no": "78738-37-1",
    "SMILES": "C(C)C1CCCCN1",
    "meta_data": {
        "InChI": "InChI=1S/C7H15N/c1-2-7-5-3-4-6-8-7/h7-8H,2-6H2,1H3",
        "InChIKey": null,
        "Canonical SMILES": "N1CCCCC1CC",
        "Molecular Formula": "C<sub>7</sub>H<sub>15</sub>N",
        "Molecular Mass": "113.20",
        "Boiling Point": "129-131 °C"
    }
}