{
    "cas_no": "3706-26-1",
    "key_name": "Benzeneethanamine, 4-methoxy-α-methyl-, hydrochloride (1:1)",
    "cn_name": null,
    "alternate_name": "Benzeneethanamine, 4-methoxy-α-methyl-, hydrochloride (1:1);Phenethylamine, <em>p</em>-methoxy-α-methyl-, hydrochloride;Benzeneethanamine, 4-methoxy-α-methyl-, hydrochloride;<em>p</em>-Methoxy-α-methylphenethylamine hydrochloride;2-Amino-1-(4-methoxyphenyl)propane hydrochloride;<em>p</em>-Methoxyamphetamine hydrochloride;4-Methoxyamphetamine hydrochloride;(±)-4-Methoxyamphetamine hydrochloride;2-(4-Methoxy-phenyl)-1-methyl-ethylamine; hydrochloride",
    "duplicated_cas_no": "52740-56-4",
    "SMILES": "C(C(C)N)C1=CC=C(OC)C=C1.Cl",
    "meta_data": {
        "InChI": "InChI=1S/C10H15NO.ClH/c1-8(11)7-9-3-5-10(12-2)6-4-9;/h3-6,8H,7,11H2,1-2H3;1H",
        "InChIKey": null,
        "Canonical SMILES": "Cl.O(C1=CC=C(C=C1)CC(N)C)C",
        "Molecular Formula": "C<sub>10</sub>H<sub>15</sub>NO.ClH",
        "Molecular Mass": "",
        "Melting Point": "210-211 °C"
    }
}