{
    "cas_no": "3524-62-7",
    "key_name": "(±)-Benzoin methyl ether",
    "cn_name": "安息香甲醚;苯偶姻甲醚;",
    "alternate_name": "Ethanone, 2-methoxy-1,2-diphenyl-;Acetophenone, 2-methoxy-2-phenyl-;2-Methoxy-1,2-diphenylethanone;Benzoin methyl ether;2-Methoxy-2-phenylacetophenone;<em>O</em>-Methylbenzoin;α-Methoxybenzyl phenyl ketone;QCU 3;2-Methoxy-1,2-diphenyl-1-ethanone;α-Methoxydeoxybenzoin;Nisso Cure MBO;<em>dl</em>-Benzoin methyl ether;(±)-Benzoin methyl ether;(<em>RS</em>)-Benzoin methyl ether;PS 96;α-Methoxy-α-phenylacetophenone;NSC 76550",
    "duplicated_cas_no": "5987-95-1",
    "SMILES": "C(C(=O)C1=CC=CC=C1)(OC)C2=CC=CC=C2",
    "meta_data": {
        "InChI": "InChI=1S/C15H14O2/c1-17-15(13-10-6-3-7-11-13)14(16)12-8-4-2-5-9-12/h2-11,15H,1H3",
        "InChIKey": null,
        "Canonical SMILES": "O=C(C=1C=CC=CC1)C(OC)C=2C=CC=CC2",
        "Molecular Formula": "C<sub>15</sub>H<sub>14</sub>O<sub>2</sub>",
        "Molecular Mass": "226.27",
        "Boiling Point": "192 °C @ Press: 1 Torr",
        "Melting Point": "49.5 °C",
        "Density": "1.209 g/cm³"
    }
}