{
    "cas_no": "56776-01-3",
    "key_name": "Tulobuterol hydrochloride",
    "cn_name": "盐酸妥布特罗;盐酸妥洛特罗;(+/-)-2-氯-2-[(叔丁基氨基)甲基]苯甲醇盐酸盐;",
    "alternate_name": "Benzenemethanol, 2-chloro-α-[[(1,1-dimethylethyl)amino]methyl]-, hydrochloride (1:1);Benzenemethanol, 2-chloro-α-[[(1,1-dimethylethyl)amino]methyl]-, hydrochloride;C 78;Lobuterol;Tulobuterol hydrochloride;Berachin;Chlibamol;Ventaire;Atenos;Hokunalin;Respacal;Bremax;Brelomax;2-(<em>tert</em>-Butylamino)-1-(2-chlorophenyl)ethanol hydrochloride",
    "duplicated_cas_no": "99798-69-3",
    "SMILES": "C(CNC(C)(C)C)(O)C1=C(Cl)C=CC=C1.Cl",
    "meta_data": {
        "InChI": "InChI=1S/C12H18ClNO.ClH/c1-12(2,3)14-8-11(15)9-6-4-5-7-10(9)13;/h4-7,11,14-15H,8H2,1-3H3;1H",
        "InChIKey": null,
        "Canonical SMILES": "Cl.ClC=1C=CC=CC1C(O)CNC(C)(C)C",
        "Molecular Formula": "C<sub>12</sub>H<sub>18</sub>ClNO.ClH",
        "Molecular Mass": "",
        "Melting Point": "161-163 °C"
    }
}