{
    "cas_no": "74165-74-5",
    "key_name": "3-Amino-5-methoxybenzoic acid",
    "cn_name": null,
    "alternate_name": "Benzoic acid, 3-amino-5-methoxy-;3-Amino-5-methoxybenzoic acid",
    "duplicated_cas_no": "",
    "SMILES": "C(O)(=O)C1=CC(OC)=CC(N)=C1",
    "meta_data": {
        "InChI": "InChI=1S/C8H9NO3/c1-12-7-3-5(8(10)11)2-6(9)4-7/h2-4H,9H2,1H3,(H,10,11)",
        "InChIKey": null,
        "Canonical SMILES": "O=C(O)C=1C=C(OC)C=C(N)C1",
        "Molecular Formula": "C<sub>8</sub>H<sub>9</sub>NO<sub>3</sub>",
        "Molecular Mass": "167.16",
        "Melting Point": "194-197 °C"
    }
}