{
    "cas_no": "14167-18-1",
    "key_name": "Cobalt salen",
    "cn_name": "双水杨酰胺乙基钴;",
    "alternate_name": "Cobalt, [[2,2′-[1,2-ethanediylbis[(nitrilo-κ<em>N</em>)methylidyne]]bis[phenolato-κ<em>O</em>]](2-)]-, (<em>SP</em>-4-2)-;Cobalt, [[α,α′-(ethylenedinitrilo)di-<em>o</em>-cresolato](2-)]-;Cobalt, [[2,2′-[1,2-ethanediylbis(nitrilomethylidyne)]bis[phenolato]](2-)-<em>N</em>,<em>N</em>′,<em>O</em>,<em>O</em>′]-, (<em>SP</em>-4-2)-;<em>o</em>-Cresol, α,α′-(ethylenedinitrilo)di-, Co deriv.;(<em>SP</em>-4-2)-[[2,2′-[1,2-Ethanediylbis[(nitrilo-κ<em>N</em>)methylidyne]]bis[phenolato-κ<em>O</em>]](2-)]cobalt;[<em>N</em>,<em>N</em>′-Ethylenebis(salicylaldehyde iminato)]cobalt(II);[<em>N</em>,<em>N</em>′-Ethylenebis(salicylideniminato)]cobalt;<em>N</em>,<em>N</em>′-Ethylenebis(salicylideniminato)cobalt(II);Salcomine;Salcomin;Bis(salicylidene)ethylenediaminatocobalt(II);Cobalt bis(salicylidene)ethylenediamine;[Bis(salicylidene)ethylenediamine]cobalt;Co(salen);Cobalt salen;[<em>N</em>,<em>N</em>′-Bis(salicylidene)ethylenediaminato]cobalt;[<em>N</em>,<em>N</em>′-Disalicylideneethylenediamine]cobalt;[Bis(salicylidene)ethylenediaminato]cobalt;NSC 32965;(<em>N</em>,<em>N</em>′-Bis(salicylidene)ethylenediamine)cobalt(II);[2,2′-[Ethane-1,2-diylbis(nitrilomethylidene)]diphenolato]cobalt(II);[N,N′-Bis(salicylidene)ethane-1,2-diaminato]cobalt(II)",
    "duplicated_cas_no": "36870-54-9",
    "SMILES": "[Co+2]123[N](=CC=4C([O-]1)=CC=CC4)CC[N]2=CC=5C([O-]3)=CC=CC5",
    "meta_data": {
        "InChI": "InChI=1S/C16H16N2O2.Co/c19-15-7-3-1-5-13(15)11-17-9-10-18-12-14-6-2-4-8-16(14)20;/h1-8,11-12,19-20H,9-10H2;/q;+2/p-2",
        "InChIKey": null,
        "Canonical SMILES": "[O-]1C=2C=CC=CC2C=[N]3CC[N]4=CC=5C=CC=CC5[O-][Co+2]134",
        "Molecular Formula": "C<sub>16</sub>H<sub>14</sub>CoN<sub>2</sub>O<sub>2</sub>",
        "Molecular Mass": "",
        "Melting Point": "&gt;300 °C"
    }
}