{
    "cas_no": "52-01-7",
    "key_name": "Spironolactone",
    "cn_name": "螺内酯;17beta-羟基-3-氧-7alpha-(乙酰硫基)-17alpha-孕甾-4-烯-21-羧酸-gamma-内酯;",
    "alternate_name": "Pregn-4-ene-21-carboxylic acid, 7-(acetylthio)-17-hydroxy-3-oxo-, γ-lactone, (7α,17α)-;17α-Pregn-4-ene-21-carboxylic acid, 17-hydroxy-7α-mercapto-3-oxo-, γ-lactone, acetate;Spiro[17<em>H</em>-cyclopenta[<em>a</em>]phenanthrene-17,2′(5′<em>H</em>)-furan], pregn-4-ene-21-carboxylic acid deriv.;SC 9420;3-(3-<em>keto</em>-7α-Acetylthio-17β-hydroxy-4-androsten-17α-yl)propionic acid lactone;Aldactone;Aldactone A;17-Hydroxy-7α-mercapto-3-oxo-17α-pregn-4-ene-21-carboxylic acid γ-lactone 7-acetate;3-(3-Oxo-7α-acetylthio-17β-hydroxy-4-androsten-17α-yl)propionic acid-γ-lactone;Spironolactone;Spironolactone A;3′-(3-Oxo-7α-acetylthio-17β-hydroxyandrost-4-en-17α-yl)-propionic acid lactone;7α-Acetylthio-3-oxo-17α-pregn-4-ene-21,17β-carbolactone;Verospiron;7α-(Acetylthio)-17-hydroxy-3-oxo-17α-pregn-4-ene-21-carboxylic acid γ-lactone;Verospirone;Spiresis;Spiridon;Spirolang;Spirone;Uractone;Spirolactone;Duraspiron;Spiretic;Spiroderm;Altex;Urusonin;Osyrol;Dira;Supra-Puren;Almatol;Spiro-Tablinen;Aquareduct;Aldace;Sagisal;Xenalon;Aldopur;Laractone;Sincomen;Osiren;Suracton;Nefurofan;Lacalmin;Abbolactone;Lacdene;Spirolone;Diatensec;Deverol;Euteberol;Spiroctan;NSC 150399;Quimolactona;Berlactone;Novo-Spiroton;Spironol;MeSH ID: D013148;CaroSpir",
    "duplicated_cas_no": "496916-40-6;1050678-93-7;1436392-20-9",
    "SMILES": "C[C@@]12[C@]3(CC[C@]1([C@]4([C@](CC2)([C@]5(C)C(C[C@H]4SC(C)=O)=CC(=O)CC5)[H])[H])[H])OC(=O)CC3",
    "meta_data": {
        "InChI": "InChI=1S/C24H32O4S/c1-14(25)29-19-13-15-12-16(26)4-8-22(15,2)17-5-9-23(3)18(21(17)19)6-10-24(23)11-7-20(27)28-24/h12,17-19,21H,4-11,13H2,1-3H3/t17-,18-,19+,21+,22-,23-,24+/m0/s1",
        "InChIKey": null,
        "Canonical SMILES": "O=C(SC1CC2=CC(=O)CCC2(C)C3CCC4(C)C(CCC54OC(=O)CC5)C13)C",
        "Molecular Formula": "C<sub>24</sub>H<sub>32</sub>O<sub>4</sub>S",
        "Molecular Mass": "416.57",
        "Melting Point": "134-135 °C"
    }
}