{
    "cas_no": "1583-83-1",
    "key_name": "1-(Difluoromethoxy)-4-methylbenzene",
    "cn_name": "4-(二氟甲氧基)甲苯;",
    "alternate_name": "Benzene, 1-(difluoromethoxy)-4-methyl-;Anisole, α,α-difluoro-<em>p</em>-methyl-;1-(Difluoromethoxy)-4-methylbenzene;Difluoromethyl 4-methylphenyl ether",
    "duplicated_cas_no": "",
    "SMILES": "O(C(F)F)C1=CC=C(C)C=C1",
    "meta_data": {
        "InChI": "InChI=1S/C8H8F2O/c1-6-2-4-7(5-3-6)11-8(9)10/h2-5,8H,1H3",
        "InChIKey": null,
        "Canonical SMILES": "FC(F)OC1=CC=C(C=C1)C",
        "Molecular Formula": "C<sub>8</sub>H<sub>8</sub>F<sub>2</sub>O",
        "Molecular Mass": "158.15",
        "Boiling Point": "165-167 °C",
        "Melting Point": "165-167 °C",
        "Density": "1.133 g/cm³ @ Temp: 20 °C"
    }
}