{
    "cas_no": "15096-52-3",
    "key_name": "Cryolite",
    "cn_name": null,
    "alternate_name": "Cryolite (Na<sub>3</sub>(AlF<sub>6</sub>));Cryolite;Kryocide;Kryolith;Kriolit;Cryolite (AlNa<sub>3</sub>F<sub>6</sub>);Cryocide;RTN-C;Prokil Cryolite 96",
    "duplicated_cas_no": "1344-75-8",
    "SMILES": "[Al+3]([F-])([F-])([F-])([F-])([F-])[F-].[Na+]",
    "meta_data": {
        "InChI": "InChI=1S/Al.6FH.3Na/h;6*1H;;;/q+3;;;;;;;3*+1/p-6",
        "InChIKey": null,
        "Canonical SMILES": "[Na+].[F-][Al+3]([F-])([F-])([F-])([F-])[F-]",
        "Molecular Formula": "AlF<sub>6</sub>.3Na",
        "Molecular Mass": "",
        "Melting Point": "960-1027 °C",
        "Density": "2.95 g/cm³"
    }
}