{
    "cas_no": "5878-19-3",
    "key_name": "Methoxyacetone",
    "cn_name": "1-甲氧基-2-丙酮;甲氧基丙酮;",
    "alternate_name": "2-Propanone, 1-methoxy-;2-Propanone, methoxy-;1-Methoxy-2-propanone;Methoxyacetone;1-Methoxyacetone;Methoxymethyl methyl ketone;Methoxy-2-propanone;α-Methoxypropanone;α-Methoxyacetone;Methyl methoxymethyl ketone",
    "duplicated_cas_no": "",
    "SMILES": "C(C(C)=O)OC",
    "meta_data": {
        "InChI": "InChI=1S/C4H8O2/c1-4(5)3-6-2/h3H2,1-2H3",
        "InChIKey": null,
        "Canonical SMILES": "O=C(C)COC",
        "Molecular Formula": "C<sub>4</sub>H<sub>8</sub>O<sub>2</sub>",
        "Molecular Mass": "88.11",
        "Boiling Point": "116 °C",
        "Melting Point": "65-67 °C",
        "Density": "0.9491 g/cm³ @ Temp: 20 °C"
    }
}