{
    "cas_no": "3634-67-1",
    "key_name": "Chlorotrihexylsilane",
    "cn_name": null,
    "alternate_name": "Silane, chlorotrihexyl-;Chlorotrihexylsilane;Trihexylchlorosilane;Trihexylsilyl chloride;Tri-<em>n</em>-hexylsilyl chloride;NSC 139855",
    "duplicated_cas_no": "",
    "SMILES": "[Si](CCCCCC)(CCCCCC)(CCCCCC)Cl",
    "meta_data": {
        "InChI": "InChI=1S/C18H39ClSi/c1-4-7-10-13-16-20(19,17-14-11-8-5-2)18-15-12-9-6-3/h4-18H2,1-3H3",
        "InChIKey": null,
        "Canonical SMILES": "Cl[Si](CCCCCC)(CCCCCC)CCCCCC",
        "Molecular Formula": "C<sub>18</sub>H<sub>39</sub>ClSi",
        "Molecular Mass": "319.04",
        "Boiling Point": "154-155 °C @ Press: 5 Torr",
        "Density": "0.871 g/cm³"
    }
}