{
    "cas_no": "14861-06-4",
    "key_name": "Vinyl crotonate",
    "cn_name": "巴豆酸乙烯酯;2-丁烯酸乙烯酯;",
    "alternate_name": "2-Butenoic acid, ethenyl ester;Crotonic acid, vinyl ester;Vinyl 2-butenoate;Vinyl crotonate;NSC 5215",
    "duplicated_cas_no": "",
    "SMILES": "C(C=CC)(OC=C)=O",
    "meta_data": {
        "InChI": "InChI=1S/C6H8O2/c1-3-5-6(7)8-4-2/h3-5H,2H2,1H3",
        "InChIKey": null,
        "Canonical SMILES": "O=C(OC=C)C=CC",
        "Molecular Formula": "C<sub>6</sub>H<sub>8</sub>O<sub>2</sub>",
        "Molecular Mass": "112.13",
        "Boiling Point": "47 °C @ Press: 28 Torr",
        "Density": "0.8358 g/cm³ @ Temp: 20 °C"
    }
}