{
    "cas_no": "2094-73-7",
    "key_name": "Ethyl 1-adamantanecarboxylate",
    "cn_name": "金刚烷-1-甲酸乙酯;",
    "alternate_name": "Tricyclo[3.3.1.1<sup>3,7</sup>]decane-1-carboxylic acid, ethyl ester;1-Adamantanecarboxylic acid, ethyl ester;1-Adamantylcarboxylic acid ethyl ester;Ethyl 1-adamantanecarboxylate;1-Carbethoxyadamantane",
    "duplicated_cas_no": "",
    "SMILES": "C(OCC)(=O)C12CC3CC(C1)CC(C2)C3",
    "meta_data": {
        "InChI": "InChI=1S/C13H20O2/c1-2-15-12(14)13-6-9-3-10(7-13)5-11(4-9)8-13/h9-11H,2-8H2,1H3",
        "InChIKey": null,
        "Canonical SMILES": "O=C(OCC)C12CC3CC(CC(C3)C1)C2",
        "Molecular Formula": "C<sub>13</sub>H<sub>20</sub>O<sub>2</sub>",
        "Molecular Mass": "208.30",
        "Boiling Point": "89 °C @ Press: 9.55 Torr"
    }
}