{
    "cas_no": "541-57-1",
    "key_name": "4-Hydroxy-2(5<em>H</em>)-furanone",
    "cn_name": "4-羟基-2(5H)-呋喃酮;",
    "alternate_name": "2(5<em>H</em>)-Furanone, 4-hydroxy-;4-Hydroxy-2(5<em>H</em>)-furanone;4-Hydroxy-5<em>H</em>-furan-2-one;β-Tetronic acid;3-Hydroxy-2<em>H</em>-furan-5-one",
    "duplicated_cas_no": "",
    "SMILES": "OC1=CC(=O)OC1",
    "meta_data": {
        "InChI": "InChI=1S/C4H4O3/c5-3-1-4(6)7-2-3/h1,5H,2H2",
        "InChIKey": null,
        "Canonical SMILES": "O=C1OCC(O)=C1",
        "Molecular Formula": "C<sub>4</sub>H<sub>4</sub>O<sub>3</sub>",
        "Molecular Mass": "100.07",
        "Melting Point": "140-141 °C"
    }
}