{
    "cas_no": "27740-01-8",
    "key_name": "Scutellarin",
    "cn_name": "野黄芩苷;野黄芩甙;",
    "alternate_name": "β-<span class=\"text-smallcaps\">D</span>-Glucopyranosiduronic acid, 5,6-dihydroxy-2-(4-hydroxyphenyl)-4-oxo-4<em>H</em>-1-benzopyran-7-yl;Glucopyranosiduronic acid, 5,6-dihydroxy-2-(<em>p</em>-hydroxyphenyl)-4-oxo-4<em>H</em>-1-benzopyran-7-yl, β-<span class=\"text-smallcaps\">D</span>-;Scutellarin;Flavone, 4′,5,6,7-tetrahydroxy-, 7-β-<span class=\"text-smallcaps\">D</span>-glucopyranuronoside;5,6-Dihydroxy-2-(4-hydroxyphenyl)-4-oxo-4<em>H</em>-1-benzopyran-7-yl β-<span class=\"text-smallcaps\">D</span>-glucopyranosiduronic acid;Scutellarein 7-β-<span class=\"text-smallcaps\">D</span>-glucuronoside;Scutellarein 7-glucuronide;Scutellarein 7-β-<span class=\"text-smallcaps\">D</span>-glucuronide;Scutellarein 7-<em>O</em>-β-<span class=\"text-smallcaps\">D</span>-glucuronide;Scutellarin B;Scutellarein 7-<em>O</em>-β-glucuronide",
    "duplicated_cas_no": "1329-06-2;32647-60-2;676536-34-8;1692861-25-8",
    "SMILES": "O=C1C=2C(OC(=C1)C3=CC=C(O)C=C3)=CC(O[C@@H]4O[C@H](C(O)=O)[C@@H](O)[C@H](O)[C@H]4O)=C(O)C2O",
    "meta_data": {
        "InChI": "InChI=1S/C21H18O12/c22-8-3-1-7(2-4-8)10-5-9(23)13-11(31-10)6-12(14(24)15(13)25)32-21-18(28)16(26)17(27)19(33-21)20(29)30/h1-6,16-19,21-22,24-28H,(H,29,30)/t16-,17-,18+,19-,21+/m0/s1",
        "InChIKey": null,
        "Canonical SMILES": "O=C(O)C1OC(OC=2C=C3OC(=CC(=O)C3=C(O)C2O)C=4C=CC(O)=CC4)C(O)C(O)C1O",
        "Molecular Formula": "C<sub>21</sub>H<sub>18</sub>O<sub>12</sub>",
        "Molecular Mass": "462.36",
        "Melting Point": "205-206 °C"
    }
}