{
    "cas_no": "6175-49-1",
    "key_name": "2-Dodecanone",
    "cn_name": "2-十二烷酮;甲基癸基甲酮;",
    "alternate_name": "2-Dodecanone;Methyl decyl ketone;Decyl methyl ketone",
    "duplicated_cas_no": "",
    "SMILES": "C(CCCCCC)CCCC(C)=O",
    "meta_data": {
        "InChI": "InChI=1S/C12H24O/c1-3-4-5-6-7-8-9-10-11-12(2)13/h3-11H2,1-2H3",
        "InChIKey": null,
        "Canonical SMILES": "O=C(C)CCCCCCCCCC",
        "Molecular Formula": "C<sub>12</sub>H<sub>24</sub>O",
        "Molecular Mass": "184.32",
        "Boiling Point": "246.5 °C",
        "Melting Point": "21 °C"
    }
}