{
    "cas_no": "396-64-5",
    "key_name": "3,3′-Difluoro-1,1′-biphenyl",
    "cn_name": "3,3\"-二氟联苯;3,3\"-二氟联苯,97%;3,3\"-二氟联苯;",
    "alternate_name": "1,1′-Biphenyl, 3,3′-difluoro-;Biphenyl, 3,3′-difluoro-;3,3′-Difluoro-1,1′-biphenyl;3,3′-Difluorobiphenyl;<em>m</em>,<em>m</em>′-Difluorobiphenyl;3,3′-Difluorodiphenyl;1-Fluoro-3-(3-fluorophenyl)benzene",
    "duplicated_cas_no": "",
    "SMILES": "FC=1C=C(C=CC1)C2=CC(F)=CC=C2",
    "meta_data": {
        "InChI": "InChI=1S/C12H8F2/c13-11-5-1-3-9(7-11)10-4-2-6-12(14)8-10/h1-8H",
        "InChIKey": null,
        "Canonical SMILES": "FC=1C=CC=C(C1)C=2C=CC=C(F)C2",
        "Molecular Formula": "C<sub>12</sub>H<sub>8</sub>F<sub>2</sub>",
        "Molecular Mass": "190.19",
        "Boiling Point": "130 °C",
        "Melting Point": "7-8 °C",
        "Density": "1.372 g/cm³ @ Temp: -10 °C"
    }
}