{
    "cas_no": "1619-62-1",
    "key_name": "Propanedioic acid, 2,2-dimethyl-, 1,3-diethyl ester",
    "cn_name": "二甲基丙二酸二甲酯;二甲基丙二酸二乙酯;",
    "alternate_name": "Propanedioic acid, 2,2-dimethyl-, 1,3-diethyl ester;Malonic acid, dimethyl-, diethyl ester;Propanedioic acid, dimethyl-, diethyl ester;Diethyl dimethylmalonate;2,2-Bis(ethoxycarbonyl)propane;Dimethylmalonic acid diethyl ester;Diethyl 2,2-dimethylmalonate;Dimethylpropanedioic acid diethyl ester;NSC 28462;2,2-Dimethylmalonic acid diethyl ester;1,3-Diethyl 2,2-dimethylpropanedioate",
    "duplicated_cas_no": "",
    "SMILES": "C(C(OCC)=O)(C(OCC)=O)(C)C",
    "meta_data": {
        "InChI": "InChI=1S/C9H16O4/c1-5-12-7(10)9(3,4)8(11)13-6-2/h5-6H2,1-4H3",
        "InChIKey": null,
        "Canonical SMILES": "O=C(OCC)C(C(=O)OCC)(C)C",
        "Molecular Formula": "C<sub>9</sub>H<sub>16</sub>O<sub>4</sub>",
        "Molecular Mass": "188.22",
        "Boiling Point": "197 °C",
        "Melting Point": "-30.4 °C",
        "Density": "0.9964 g/cm³ @ Temp: 20 °C"
    }
}