{
    "cas_no": "83-86-3",
    "key_name": "Phytic acid",
    "cn_name": "植酸;肌醇六磷酸酯;环己六醇磷酸酯;",
    "alternate_name": "<em>myo</em>-Inositol, 1,2,3,4,5,6-hexakis(dihydrogen phosphate);Inositol, hexakis(dihydrogen phosphate), <em>myo</em>-;<em>myo</em>-Inositol, hexakis(dihydrogen phosphate);Fytic acid;Phytic acid;<em>myo</em>-Inositol hexaphosphate;Inositol hexakis(phosphate);Inositol hexaphosphate;Alkalovert;<em>myo</em>-Inositol hexakis(phosphate);IP<sub>6</sub>;<em>meso</em>-Inositol hexaphosphate;Inositol 1,2,3,4,5,6-hexakisphosphate;Phyliance;InsP<sub>6</sub>;Exfoderm Forte;Exfoderm;WHL;WHL (depressant);RP 3000;RP 3000 (rust inhibitor);Dermofeel PA 3;IP 6J;MeSH ID: D010833",
    "duplicated_cas_no": "50762-79-3;78039-41-5;894854-44-5;1206549-44-1;1242436-18-5",
    "SMILES": "O(P(=O)(O)O)[C@H]1[C@@H](OP(=O)(O)O)[C@@H](OP(=O)(O)O)[C@H](OP(=O)(O)O)[C@@H](OP(=O)(O)O)[C@@H]1OP(=O)(O)O",
    "meta_data": {
        "InChI": "InChI=1/C6H18O24P6/c7-31(8,9)25-1-2(26-32(10,11)12)4(28-34(16,17)18)6(30-36(22,23)24)5(29-35(19,20)21)3(1)27-33(13,14)15/h1-6H,(H2,7,8,9)(H2,10,11,12)(H2,13,14,15)(H2,16,17,18)(H2,19,20,21)(H2,22,23,24)/t1-,2-,3-,4+,5-,6-",
        "InChIKey": null,
        "Canonical SMILES": "O=P(O)(O)OC1C(OP(=O)(O)O)C(OP(=O)(O)O)C(OP(=O)(O)O)C(OP(=O)(O)O)C1OP(=O)(O)O",
        "Molecular Formula": "C<sub>6</sub>H<sub>18</sub>O<sub>24</sub>P<sub>6</sub>",
        "Molecular Mass": "660.04",
        "Melting Point": "&lt;25 °C"
    }
}