{
    "cas_no": "99-76-3",
    "key_name": "Methylparaben",
    "cn_name": "尼泊金甲酯;",
    "alternate_name": "Benzoic acid, 4-hydroxy-, methyl ester;Benzoic acid, <em>p</em>-hydroxy-, methyl ester;<em>p</em>-Hydroxybenzoic acid methyl ester;Maseptol;Methylben;Methyl chemosept;Methyl <em>p</em>-hydroxybenzoate;Methylparaben;Methyl Parasept;Metoxyde;Moldex;Nipagin;Paridol;Preserval M;Septos;Solbrol M;Tegosept M;4-Hydroxybenzoic acid methyl ester;Methyl 4-hydroxybenzoate;<em>p</em>-Methoxycarbonylphenol;Methaben;<em>p</em>-Carbomethoxyphenol;4-(Methoxycarbonyl)phenol;Methyl Butex;Preserval;Solbrol;Nipagin M;Metaben;4-(Carbomethoxy)phenol;Metagin;Mekkings M;Killitol;Para M;E 218;E 218 (preservative);NSC 3827;NSC 406127;Danisol M;Paraben M;4-Hydroxymethyl benzoate;Tegasept Methyl;Methyl 4-(3′-butenyloxy)benzoate;Ueno Me Paraben NF;MEKKINS-M",
    "duplicated_cas_no": "58339-84-7;156291-94-0;1000398-37-7",
    "SMILES": "C(OC)(=O)C1=CC=C(O)C=C1",
    "meta_data": {
        "InChI": "InChI=1S/C8H8O3/c1-11-8(10)6-2-4-7(9)5-3-6/h2-5,9H,1H3",
        "InChIKey": null,
        "Canonical SMILES": "O=C(OC)C1=CC=C(O)C=C1",
        "Molecular Formula": "C<sub>8</sub>H<sub>8</sub>O<sub>3</sub>",
        "Molecular Mass": "152.15",
        "Boiling Point": "265 °C",
        "Melting Point": "131 °C",
        "Density": "1.1208 g/cm³ @ Temp: 137.2 °C"
    }
}