{
    "cas_no": "13417-49-7",
    "key_name": "5,6-Dihydro-2<em>H</em>-pyran-3-carboxaldehyde",
    "cn_name": null,
    "alternate_name": "2<em>H</em>-Pyran-3-carboxaldehyde, 5,6-dihydro-;5,6-Dihydro-2<em>H</em>-pyran-3-carboxaldehyde;3-Formyl-5,6-dihydro-2<em>H</em>-pyran;3,6-Dihydro-2<em>H</em>-pyran-5-carbaldehyde",
    "duplicated_cas_no": "",
    "SMILES": "C(=O)C1=CCCOC1",
    "meta_data": {
        "InChI": "InChI=1S/C6H8O2/c7-4-6-2-1-3-8-5-6/h2,4H,1,3,5H2",
        "InChIKey": null,
        "Canonical SMILES": "O=CC1=CCCOC1",
        "Molecular Formula": "C<sub>6</sub>H<sub>8</sub>O<sub>2</sub>",
        "Molecular Mass": "112.13",
        "Boiling Point": "49.2 °C",
        "Density": "1.114 g/cm³ @ Temp: 20 °C"
    }
}