{
    "cas_no": "4414-87-3",
    "key_name": "1<em>H</em>-Pyrrolo[2,3-<em>b</em>]pyridine-3-acetonitrile",
    "cn_name": null,
    "alternate_name": "1<em>H</em>-Pyrrolo[2,3-<em>b</em>]pyridine-3-acetonitrile;3-(Cyanomethyl)pyrrolo[2,3-<em>b</em>]pyridine;(1<em>H</em>-Pyrrolo[2,3-<em>b</em>]pyridin-3-yl)acetonitrile;2-[1<em>H</em>-Pyrrolo[2,3-<em>b</em>]pyridin-3-yl]acetonitrile",
    "duplicated_cas_no": "",
    "SMILES": "C(C#N)C=1C=2C(NC1)=NC=CC2",
    "meta_data": {
        "InChI": "InChI=1S/C9H7N3/c10-4-3-7-6-12-9-8(7)2-1-5-11-9/h1-2,5-6H,3H2,(H,11,12)",
        "InChIKey": null,
        "Canonical SMILES": "N#CCC1=CNC=2N=CC=CC21",
        "Molecular Formula": "C<sub>9</sub>H<sub>7</sub>N<sub>3</sub>",
        "Molecular Mass": "157.17",
        "Melting Point": "144 °C"
    }
}