{
    "cas_no": "496-77-5",
    "key_name": "5-Hydroxy-4-octanone",
    "cn_name": "5-羟基-4-辛酮;",
    "alternate_name": "4-Octanone, 5-hydroxy-;5-Hydroxy-4-octanone;5-Octanol-4-one;Butyroin;Octan-4-ol-5-one;4-Hydroxy-5-octanone;(±)-Butyroin;NSC 1479",
    "duplicated_cas_no": "116296-89-0",
    "SMILES": "C(C(CCC)=O)(CCC)O",
    "meta_data": {
        "InChI": "InChI=1S/C8H16O2/c1-3-5-7(9)8(10)6-4-2/h7,9H,3-6H2,1-2H3",
        "InChIKey": null,
        "Canonical SMILES": "O=C(CCC)C(O)CCC",
        "Molecular Formula": "C<sub>8</sub>H<sub>16</sub>O<sub>2</sub>",
        "Molecular Mass": "144.21",
        "Boiling Point": "80-82 °C @ Press: 10 Torr",
        "Melting Point": "104-105 °C",
        "Density": "0.9160 g/cm³"
    }
}