{
    "cas_no": "15190-10-0",
    "key_name": "α-Phenyl-4-morpholineacetonitrile",
    "cn_name": "a-(4-吗啉基)苯乙腈;Α-(4-吗啉)苯乙腈;Α-(4-吗啉)苯乙腈;A-(4-吗啉基)苯乙腈, 98+%;A-(4-吗啉基)苯乙腈;",
    "alternate_name": "4-Morpholineacetonitrile, α-phenyl-;α-Phenyl-4-morpholineacetonitrile;2-Phenyl-2-morpholinoacetonitrile;NSC 75643;Morpholinophenylacetonitrile;α-Phenylmorpholineacetonitrile;α-Morpholinobenzeneacetonitrile;2-Morpholino-2-phenylacetonitrile;2-(Morpholin-4-yl)-2-phenylacetonitrile;2-Morpholin-4-yl-2-phenylacetonitrile",
    "duplicated_cas_no": "129959-05-3;73485-89-9",
    "SMILES": "C(C#N)(C1=CC=CC=C1)N2CCOCC2",
    "meta_data": {
        "InChI": "InChI=1S/C12H14N2O/c13-10-12(11-4-2-1-3-5-11)14-6-8-15-9-7-14/h1-5,12H,6-9H2",
        "InChIKey": null,
        "Canonical SMILES": "N#CC(C=1C=CC=CC1)N2CCOCC2",
        "Molecular Formula": "C<sub>12</sub>H<sub>14</sub>N<sub>2</sub>O",
        "Molecular Mass": "202.25",
        "Melting Point": "67-68 °C"
    }
}