{
    "cas_no": "598-16-3",
    "key_name": "1,1,2-Tribromoethene",
    "cn_name": "三溴乙烯;三溴乙烯;",
    "alternate_name": "Ethene, 1,1,2-tribromo-;Ethylene, tribromo-;Ethene, tribromo-;1,1,2-Tribromoethene;Tribromoethylene;1,1,2-Tribromoethylene;Tribromoethene;NSC 343621",
    "duplicated_cas_no": "",
    "SMILES": "C(=CBr)(Br)Br",
    "meta_data": {
        "InChI": "InChI=1S/C2HBr3/c3-1-2(4)5/h1H",
        "InChIKey": null,
        "Canonical SMILES": "BrC=C(Br)Br",
        "Molecular Formula": "C<sub>2</sub>HBr<sub>3</sub>",
        "Molecular Mass": "264.74",
        "Boiling Point": "164 °C",
        "Density": "2.5415 g/cm³ @ Temp: 25 °C"
    }
}