{
    "cas_no": "90004-94-7",
    "key_name": "1-(4-Bromo-2-nitrophenyl)ethanone",
    "cn_name": null,
    "alternate_name": "Ethanone, 1-(4-bromo-2-nitrophenyl)-;Acetophenone, 4′-bromo-2′-nitro-;1-(4-Bromo-2-nitrophenyl)ethanone;4′-Bromo-2′-nitroacetophenone;1-(4-Bromo-2-nitrophenyl)ethan-1-one",
    "duplicated_cas_no": "",
    "SMILES": "C(C)(=O)C1=C(N(=O)=O)C=C(Br)C=C1",
    "meta_data": {
        "InChI": "InChI=1S/C8H6BrNO3/c1-5(11)7-3-2-6(9)4-8(7)10(12)13/h2-4H,1H3",
        "InChIKey": null,
        "Canonical SMILES": "O=C(C1=CC=C(Br)C=C1N(=O)=O)C",
        "Molecular Formula": "C<sub>8</sub>H<sub>6</sub>BrNO<sub>3</sub>",
        "Molecular Mass": "244.04",
        "Melting Point": "70 °C"
    }
}