{
    "cas_no": "1018450-37-7",
    "key_name": "4-Chloro-3-fluoro-2-iodobenzenamine",
    "cn_name": null,
    "alternate_name": "Benzenamine, 4-chloro-3-fluoro-2-iodo-;4-Chloro-3-fluoro-2-iodobenzenamine",
    "duplicated_cas_no": "",
    "SMILES": "FC1=C(I)C(N)=CC=C1Cl",
    "meta_data": {
        "InChI": "InChI=1S/C6H4ClFIN/c7-3-1-2-4(10)6(9)5(3)8/h1-2H,10H2",
        "InChIKey": null,
        "Canonical SMILES": "FC=1C(Cl)=CC=C(N)C1I",
        "Molecular Formula": "C<sub>6</sub>H<sub>4</sub>ClFIN",
        "Molecular Mass": "271.46",
        "Melting Point": "80.5-81.0 °C"
    }
}