{
    "cas_no": "7790-69-4",
    "key_name": "Lithium nitrate",
    "cn_name": "硝酸锂;",
    "alternate_name": "Nitric acid, lithium salt (1:1);Nitric acid, lithium salt;Lithium nitrate;Lifetime N;Rasir;Eucon Integral ARC",
    "duplicated_cas_no": "1314087-12-1;2732998-41-1",
    "SMILES": "N(=O)(=O)O.[Li]",
    "meta_data": {
        "InChI": "InChI=1S/Li.HNO3/c;2-1(3)4/h;(H,2,3,4)",
        "InChIKey": null,
        "Canonical SMILES": "[Li].O=N(=O)O",
        "Molecular Formula": "HNO<sub>3</sub>.Li",
        "Molecular Mass": "",
        "Melting Point": "127 °C",
        "Density": "1.712 g/cm³ (liquid) @ Temp: 507 °C"
    }
}