{
    "cas_no": "100-37-8",
    "key_name": "Diethylethanolamine",
    "cn_name": "二乙氨基乙醇;",
    "alternate_name": "Ethanol, 2-(diethylamino)-;2-(Diethylamino)ethanol;(Diethylamino)ethanol;Diethylethanolamine;2-Hydroxytriethylamine;<em>N</em>,<em>N</em>-Diethylethanolamine;Diethyl(β-hydroxyethyl)amine;DEAE;β-(Diethylamino)ethanol;2-(<em>N</em>,<em>N</em>-Diethylamino)ethanol;<em>N</em>,<em>N</em>-Diethyl-2-aminoethanol;2-(Diethylamino)ethyl alcohol;Pennad 150;<em>N</em>,<em>N</em>-Diethyl(2-hydroxyethyl)amine;<em>N</em>,<em>N</em>-Diethylmonoethanolamine;(2-Hydroxyethyl)diethylamine;Diethylmonoethanolamine;<em>N</em>-(2-Hydroxyethyl)diethylamine;MKS;DEEA;NSC 8759;A 22;A 22 (amine);2-(<em>N</em>,<em>N</em>-Diethyl)ethanolamine;Diethyl(2-hydroxyethyl)amine;Amino Alcohol 2A",
    "duplicated_cas_no": "102802-00-6",
    "SMILES": "N(CCO)(CC)CC",
    "meta_data": {
        "InChI": "InChI=1S/C6H15NO/c1-3-7(4-2)5-6-8/h8H,3-6H2,1-2H3",
        "InChIKey": null,
        "Canonical SMILES": "OCCN(CC)CC",
        "Molecular Formula": "C<sub>6</sub>H<sub>15</sub>NO",
        "Molecular Mass": "117.19",
        "Boiling Point": "163 °C @ Press: 760 Torr",
        "Melting Point": "-70 °C",
        "Density": "0.8921 g/cm³ @ Temp: 20 °C"
    }
}