{
    "cas_no": "638-49-3",
    "key_name": "Pentyl formate",
    "cn_name": "甲酸戊酯;",
    "alternate_name": "Formic acid, pentyl ester;Amyl formate;Pentyl formate;<em>n</em>-Pentyl formate;<em>n</em>-Amyl formate;NSC 72023",
    "duplicated_cas_no": "",
    "SMILES": "C(COC=O)CCC",
    "meta_data": {
        "InChI": "InChI=1S/C6H12O2/c1-2-3-4-5-8-6-7/h6H,2-5H2,1H3",
        "InChIKey": null,
        "Canonical SMILES": "O=COCCCCC",
        "Molecular Formula": "C<sub>6</sub>H<sub>12</sub>O<sub>2</sub>",
        "Molecular Mass": "116.16",
        "Boiling Point": "130.4 °C",
        "Melting Point": "-73.5 °C",
        "Density": "0.8853 g/cm³ @ Temp: 20 °C"
    }
}