{
    "cas_no": "4097-89-6",
    "key_name": "Tris(2-aminoethyl)amine",
    "cn_name": "N,N-二(2-氨乙基)-1,2-乙二胺;",
    "alternate_name": "1,2-Ethanediamine, <em>N</em><sup>1</sup>,<em>N</em><sup>1</sup>-bis(2-aminoethyl)-;Diethylenetriamine, 4-(2-aminoethyl)-;1,2-Ethanediamine, <em>N</em>,<em>N</em>-bis(2-aminoethyl)-;<em>N</em><sup>1</sup>,<em>N</em><sup>1</sup>-Bis(2-aminoethyl)-1,2-ethanediamine;2,2′,2′′-Nitrilotris[ethylamine];2,2′,2′′-Triaminotris(ethylamine);Tris(aminoethyl)amine;Ethanamine, 2,2′,2′′-nitrilotris-;Tris(2-aminoethyl)amine;β,β′,β′′-Triaminotriethylamine;2,2′,2′′-Triaminotriethylamine;4-(3-Azapropyl)-1,4,7-triazaheptane;Tri(2-aminoethyl)amine;Nitrilotris(ethylamine);<em>N</em>,<em>N</em>-Bis(2-aminoethyl)ethylenediamine;Tren;<em>N</em>,<em>N</em>-Bis(2-aminoethyl)-1,2-ethanediamine;4-(2-Aminoethyl)diethylenetriamine;Tren-HP;<em>N</em>,<em>N</em>,<em>N</em>-Tris(2-aminoethyl)amine;Tris(β-aminoethyl)amine;2,2′,2′′-Tris(2-aminoethyl)amine;Nitrilotriethylamine;T 1243;3-(2-Aminoethyl)-3-aza-pentane-1,5-diamine",
    "duplicated_cas_no": "949116-21-6",
    "SMILES": "N(CCN)(CCN)CCN",
    "meta_data": {
        "InChI": "InChI=1S/C6H18N4/c7-1-4-10(5-2-8)6-3-9/h1-9H2",
        "InChIKey": null,
        "Canonical SMILES": "NCCN(CCN)CCN",
        "Molecular Formula": "C<sub>6</sub>H<sub>18</sub>N<sub>4</sub>",
        "Molecular Mass": "146.23",
        "Boiling Point": "96-99 °C"
    }
}