{
    "cas_no": "1310-66-3",
    "key_name": "Lithium hydroxide, monohydrate",
    "cn_name": "氢氧化锂;",
    "alternate_name": "Lithium hydroxide (Li(OH)), monohydrate;Lithium hydroxide, monohydrate;Lithium hydroxide hydrate",
    "duplicated_cas_no": "",
    "SMILES": "[Li]O.O",
    "meta_data": {
        "InChI": "InChI=1S/Li.2H2O/h;2*1H2/q+1;;/p-1",
        "InChIKey": null,
        "Canonical SMILES": "[Li]O.O",
        "Molecular Formula": "H<sub>2</sub>O.HLiO",
        "Molecular Mass": "",
        "Melting Point": "450 °C",
        "Density": "1.51 g/cm³"
    }
}