{
    "cas_no": "4949-44-4",
    "key_name": "Ethyl 3-oxopentanoate",
    "cn_name": "丙酰乙酸乙酯;",
    "alternate_name": "Pentanoic acid, 3-oxo-, ethyl ester;Valeric acid, 3-oxo-, ethyl ester;Ethyl propionylacetate;Ethyl 3-ketopentanoate;Ethyl 3-oxovalerate;Ethyl 3-oxopentanoate;Ethyl propioacetate;Propionylacetic acid ethyl ester;Ethyl β-oxovalerate;Ethyl propanoylacetate;NSC 7251;NSC 78662;3-Oxopentanoic acid ethyl ester;3-Oxovaleric acid ethyl ester;Ethyl propionoylacetate",
    "duplicated_cas_no": "129916-45-6",
    "SMILES": "C(C(OCC)=O)C(CC)=O",
    "meta_data": {
        "InChI": "InChI=1S/C7H12O3/c1-3-6(8)5-7(9)10-4-2/h3-5H2,1-2H3",
        "InChIKey": null,
        "Canonical SMILES": "O=C(OCC)CC(=O)CC",
        "Molecular Formula": "C<sub>7</sub>H<sub>12</sub>O<sub>3</sub>",
        "Molecular Mass": "144.17",
        "Boiling Point": "191 °C",
        "Melting Point": "98 °C",
        "Density": "1.0527 g/cm³ @ Temp: 20 °C"
    }
}