{
    "cas_no": "3119-15-1",
    "key_name": "3-Amino-2,4,6-triiodobenzoic acid",
    "cn_name": "3-氨基-2,4,6-三碘苯甲酸;",
    "alternate_name": "Benzoic acid, 3-amino-2,4,6-triiodo-;3-Amino-2,4,6-triiodobenzoic acid;2,4,6-Triiodo-3-aminobenzoic acid;NSC 60105",
    "duplicated_cas_no": "",
    "SMILES": "C(O)(=O)C1=C(I)C(N)=C(I)C=C1I",
    "meta_data": {
        "InChI": "InChI=1S/C7H4I3NO2/c8-2-1-3(9)6(11)5(10)4(2)7(12)13/h1H,11H2,(H,12,13)",
        "InChIKey": null,
        "Canonical SMILES": "O=C(O)C=1C(I)=CC(I)=C(N)C1I",
        "Molecular Formula": "C<sub>7</sub>H<sub>4</sub>I<sub>3</sub>NO<sub>2</sub>",
        "Molecular Mass": "514.83",
        "Melting Point": "190-192 °C (decomp)"
    }
}