{
    "cas_no": "616-91-1",
    "key_name": "<em>N</em>-Acetyl-<span class=\"text-smallcaps\">L</span>-cysteine",
    "cn_name": "N-乙酰-L-半胱氨酸;N-乙酰-L-beta-巯基丙氨酸;",
    "alternate_name": "<span class=\"text-smallcaps\">L</span>-Cysteine, <em>N</em>-acetyl-;Cysteine, <em>N</em>-acetyl-, <span class=\"text-smallcaps\">L</span>-;<em>N</em>-Acetyl-<span class=\"text-smallcaps\">L</span>-cysteine;<em>N</em>-Acetylcysteine;Acetylcysteine;Mercapturic acid;Mucomyst;Mercapturic acid, (<em>R</em>)-;Airbron;Fluimucil;Fluimucetin;Respaire;Mucolyticum-Lappe;<span class=\"text-smallcaps\">L</span>-Acetylcysteine;Parvolex;Mucolytikum Lappe;Broncholysin;NSC 111180;Broncholysin (mucolytic);Mucosolvin;<em>N</em>-Acetyl-(<em>R</em>)-cysteine;Mucofilin;<span class=\"text-smallcaps\">L</span>-<em>N</em>-Acetylcysteine;Fluimicil;Fluimicil Infantil;Fluibiotic;<em>N</em><sup>α</sup>-Acetylcysteine;Exomuc;(<em>R</em>)-<em>N</em>-Acetylcysteine;Tixair;Muco Sanigen;Brunac;Fluatox;Mucocedyl;Mucolator;Neo-Fluimucil;Fabrol;Mucolyticum;Mucret;Fluprowit;Acetilcysteina;ACC;Flumil;Syntemucol;Hypotears;Lysomucil;Fluimucil Antidot;Acetadote;Mucosten;Asist;Trom;Mentopin;Mucomelt;Mucinac;(2<em>R</em>)-2Acetamido-3-sulfanylpropanoic acid;Cysteplus;Ac-Cys-OH;(2R)-2-Acetamido-3-sulfanylpropanoic acid;A 7250;MeSH ID: D000111",
    "duplicated_cas_no": "7696-05-1;1261105-20-7",
    "SMILES": "[C@@H](NC(C)=O)(C(O)=O)CS",
    "meta_data": {
        "InChI": "InChI=1S/C5H9NO3S/c1-3(7)6-4(2-10)5(8)9/h4,10H,2H2,1H3,(H,6,7)(H,8,9)/t4-/m0/s1",
        "InChIKey": null,
        "Canonical SMILES": "O=C(O)C(NC(=O)C)CS",
        "Molecular Formula": "C<sub>5</sub>H<sub>9</sub>NO<sub>3</sub>S",
        "Molecular Mass": "163.19",
        "Melting Point": "109.5 °C"
    }
}