{
    "cas_no": "13242-55-2",
    "key_name": "β-<span class=\"text-smallcaps\">D</span>-Glucopyranose, 1,6-anhydro-, 2,3,4-triacetate",
    "cn_name": "1,6-脱水-β-D-葡萄糖-2,3,4-三邻醋酸;",
    "alternate_name": "β-<span class=\"text-smallcaps\">D</span>-Glucopyranose, 1,6-anhydro-, 2,3,4-triacetate;Levoglucosan, triacetate;β-<span class=\"text-smallcaps\">D</span>-Glucopyranose, 1,6-anhydro-, triacetate;6,8-Dioxabicyclo[3.2.1]octane, β-<span class=\"text-smallcaps\">D</span>-glucopyranose deriv.;Triacetyllevoglucosan;2,3,4-Tri-<em>O</em>-acetyl-1,6-anhydro-β-<span class=\"text-smallcaps\">D</span>-glucopyranose;1,6-Anhydro-β-<span class=\"text-smallcaps\">D</span>-glucopyranose triacetate;1,6-Anhydro-2,3,4-tri-<em>O</em>-acetyl-β-<span class=\"text-smallcaps\">D</span>-glucopyranose;NSC 25284",
    "duplicated_cas_no": "1089722-46-2",
    "SMILES": "O(C(C)=O)[C@H]1[C@H](OC(C)=O)[C@@]2(O[C@]([C@@H]1OC(C)=O)(OC2)[H])[H]",
    "meta_data": {
        "InChI": "InChI=1S/C12H16O8/c1-5(13)17-9-8-4-16-12(20-8)11(19-7(3)15)10(9)18-6(2)14/h8-12H,4H2,1-3H3/t8-,9-,10+,11-,12-/m1/s1",
        "InChIKey": null,
        "Canonical SMILES": "O=C(OC1C2OCC(O2)C(OC(=O)C)C1OC(=O)C)C",
        "Molecular Formula": "C<sub>12</sub>H<sub>16</sub>O<sub>8</sub>",
        "Molecular Mass": "288.25",
        "Melting Point": "110 °C"
    }
}