{
    "cas_no": "1992-15-0",
    "key_name": "α<sup>1</sup>,α<sup>1</sup>,α<sup>4</sup>,α<sup>4</sup>-Tetrakis(trifluoromethyl)-1,4-benzenedimethanol",
    "cn_name": "1,4-双(2-羟基六氟异丙基)苯;1,4-双(六氟-Α-羟基异丙基)苯水合物;",
    "alternate_name": "1,4-Benzenedimethanol, α<sup>1</sup>,α<sup>1</sup>,α<sup>4</sup>,α<sup>4</sup>-tetrakis(trifluoromethyl)-;<em>p</em>-Xylene-α,α′-diol, α,α,α′,α′-tetrakis(trifluoromethyl)-;1,4-Benzenedimethanol, α,α,α′,α′-tetrakis(trifluoromethyl)-;α<sup>1</sup>,α<sup>1</sup>,α<sup>4</sup>,α<sup>4</sup>-Tetrakis(trifluoromethyl)-1,4-benzenedimethanol;1,4-Bis(2-hydroxyhexafluoro-2-propyl)benzene;1,4-Bis(2-hydroxyhexafluoroisopropyl)benzene;1,4-HFAB;α,α,α′,α′-Tetrakis(trifluoromethyl)-1,4-benzenedimethanol;1,1,1,3,3,3-Hexafluoro-2-[4-(1,1,1,3,3,3-hexafluoro-2-hydroxypropan-2-yl)phenyl]propan-2-ol",
    "duplicated_cas_no": "351529-18-5",
    "SMILES": "C(C(F)(F)F)(C(F)(F)F)(O)C1=CC=C(C(C(F)(F)F)(C(F)(F)F)O)C=C1",
    "meta_data": {
        "InChI": "InChI=1S/C12H6F12O2/c13-9(14,15)7(25,10(16,17)18)5-1-2-6(4-3-5)8(26,11(19,20)21)12(22,23)24/h1-4,25-26H",
        "InChIKey": null,
        "Canonical SMILES": "FC(F)(F)C(O)(C1=CC=C(C=C1)C(O)(C(F)(F)F)C(F)(F)F)C(F)(F)F",
        "Molecular Formula": "C<sub>12</sub>H<sub>6</sub>F<sub>12</sub>O<sub>2</sub>",
        "Molecular Mass": "410.16",
        "Melting Point": "85 °C"
    }
}