{
    "cas_no": "3385-21-5",
    "key_name": "1,3-Cyclohexanediamine",
    "cn_name": "1,3-环己烷二胺;1,3-环己二胺;",
    "alternate_name": "1,3-Cyclohexanediamine;1,3-Diaminocyclohexane",
    "duplicated_cas_no": "",
    "SMILES": "NC1CC(N)CCC1",
    "meta_data": {
        "InChI": "InChI=1S/C6H14N2/c7-5-2-1-3-6(8)4-5/h5-6H,1-4,7-8H2",
        "InChIKey": null,
        "Canonical SMILES": "NC1CCCC(N)C1",
        "Molecular Formula": "C<sub>6</sub>H<sub>14</sub>N<sub>2</sub>",
        "Molecular Mass": "114.19",
        "Boiling Point": "97 °C @ Press: 30 Torr"
    }
}