{
    "cas_no": "931-20-4",
    "key_name": "1-Methyl-2-piperidone",
    "cn_name": "1-甲基-2-哌啶酮;1-甲基-2-哌啶酮;N-甲基-α-哌啶酮;",
    "alternate_name": "2-Piperidinone, 1-methyl-;2-Piperidone, 1-methyl-;1-Methyl-2-piperidinone;<em>N</em>-Methyl-2-piperidone;<em>N</em>-Methyl-2-piperidinone;1-Methyl-2-piperidone;<em>N</em>-Methyl-δ-valerolactam;<em>N</em>-Methylvalerolactam;<em>N</em>-Methylpiperidone;NSC 67384;1-Methyl-6-oxopiperidine",
    "duplicated_cas_no": "",
    "SMILES": "O=C1N(C)CCCC1",
    "meta_data": {
        "InChI": "InChI=1S/C6H11NO/c1-7-5-3-2-4-6(7)8/h2-5H2,1H3",
        "InChIKey": null,
        "Canonical SMILES": "O=C1N(C)CCCC1",
        "Molecular Formula": "C<sub>6</sub>H<sub>11</sub>NO",
        "Molecular Mass": "113.16",
        "Boiling Point": "94-95 °C @ Press: 9 Torr",
        "Density": "1.0331 g/cm³ @ Temp: 20 °C"
    }
}