{
    "cas_no": "3390-12-3",
    "key_name": "2,4-Dimethyl-1,3-dioxolane",
    "cn_name": "2,4-二甲基-1,3-二氧戊环;2,4-二甲基-1,3-二氧戊环;",
    "alternate_name": "1,3-Dioxolane, 2,4-dimethyl-;2,4-Dimethyl-1,3-dioxolane;Acetaldehyde cyclic propylene acetal;Propylene acetal",
    "duplicated_cas_no": "",
    "SMILES": "CC1OC(C)OC1",
    "meta_data": {
        "InChI": "InChI=1S/C5H10O2/c1-4-3-6-5(2)7-4/h4-5H,3H2,1-2H3",
        "InChIKey": null,
        "Canonical SMILES": "O1CC(OC1C)C",
        "Molecular Formula": "C<sub>5</sub>H<sub>10</sub>O<sub>2</sub>",
        "Molecular Mass": "102.13",
        "Boiling Point": "110-125 °C",
        "Density": "0.9283 g/cm³ @ Temp: 20 °C"
    }
}