{
    "cas_no": "13676-54-5",
    "key_name": "Bismaleimidodiphenylmethane",
    "cn_name": "N,N\"-(4,4\"-亚甲基二苯基)双马来酰亚胺;",
    "alternate_name": "1<em>H</em>-Pyrrole-2,5-dione, 1,1′-(methylenedi-4,1-phenylene)bis-;Maleimide, <em>N</em>,<em>N</em>′-(methylenedi-<em>p</em>-phenylene)di-;1,1′-(Methylenedi-4,1-phenylene)bis[1<em>H</em>-pyrrole-2,5-dione];<em>N</em>,<em>N</em>′-(Methylenedi-<em>p</em>-phenylene)dimaleimide;4,4′-Methylenebis(<em>N</em>-phenylenemaleimide);4,4′-Bis(maleimido)diphenylmethane;4,4′-Diphenylmethanebismaleimide;4,4′-Methylenebis(<em>N</em>-phenylmaleimide);4,4′-Biphenylmethanebismaleimide;4,4′-Methylenebis(phenylmaleimide);<em>N</em>,<em>N</em>′-Bismaleimido-4,4′-diphenylmethane;<em>p</em>,<em>p</em>′-Dimaleimidodiphenylmethane;Methylenedi-<em>p</em>-phenylene-<em>N</em>,<em>N</em>′-bismaleimide;<em>N</em>,<em>N</em>′-(<em>p</em>,<em>p</em>′-Diphenylmethane)bismaleimide;Bis(4-maleimidophenyl)methane;<em>N</em>,<em>N</em>′-(4,4′-Diphenylmethane)bismaleimide;<em>N</em>,<em>N</em>′-(Methylenedi-4,1-phenylene)bismaleimide;4,4′-Diphenylmethanedimaleimide;4,4′-Dimaleimidodiphenylmethane;Bis(<em>p</em>-maleimidophenyl)methane;4,4′-(<em>N</em>,<em>N</em>′-Bismaleimido)diphenylmethane;<em>N</em>,<em>N</em>′-4,4′-Diaminodiphenylmethanebis[maleimide];<em>p</em>,<em>p</em>′-Methylenebis(<em>N</em>-phenylmaleimide);4,4′-Methylenedianiline bismaleimide;1,1′-Methylenebis(4-maleimidobenzene);<em>N</em>,<em>N</em>′-(Methylenedi-<em>p</em>-phenylene)bismaleimide;4,4′-(Methylenedi-<em>p</em>-phenylene)dimaleimide;4,4′-Bis(maleimidophenyl)methane;<em>N</em>,<em>N</em>′-(Methylene-<em>p</em>-phenylene)dimaleimide;XU 292A;Bismaleimide S;1,1′-(Methylenedi-4,1-phenylene)bismaleimide;Matrimid 5292A;BMI-S;BMI;MB 3000;Matrimid 5258;MB 3000H;Bestlex BH 180;MDABMI;4,4′-Methylenebis[maleimidobenzene];4,4′-Diaminodiphenylmethane bismaleimide;BMI-H;BMI-H (maleimide compound);<em>N</em>,<em>N</em>′-(Methylenebis-<em>p</em>-phenylene)bismaleimide;Bismaleimidodiphenylmethane;NSC 44754;4,4′-Dimaleimidediphenylmethane;BMI (maleimide compound);BDM-S;BMI 1000;4,4′-Bismalimidodiphenylmethane;<em>N</em>,<em>N</em>′-4,4′-Bismaleimide diphenylmethane;BMI 1000H;BMI-RB;T-Bismaleimide;Homide 121;BMI 1100;BMI 1100H;BM 200;1,1′-(Methylenedi-4,4′-phenylene)bismaleimide;4,4-Bis(4-maleimidophenyl)methane;EM 23-30;ED-BM 25;1-[4-[[4-(2,5-Dioxopyrrol-1-yl)phenyl]methyl]phenyl]pyrrole-2,5-dione;1,1′-[methylenebis(4,1-phenylene)]bis(1H-pyrrole-2,5-dione);D 928;BMI 01;Homide 121G;BMI-LA;Compimide MDAB;KI 70",
    "duplicated_cas_no": "35325-39-4;128605-25-4;146267-52-9;164796-17-2;172664-39-0;180051-53-0;184874-68-8;191356-15-7;352219-58-0;449213-21-2;459429-26-6;574759-58-3;1262658-03-6;1319695-59-4;1416794-09-6;1429310-61-1;1539286-76-4;2260716-21-8;2393050-96-7",
    "SMILES": "O=C1N(C(=O)C=C1)C2=CC=C(CC3=CC=C(C=C3)N4C(=O)C=CC4=O)C=C2",
    "meta_data": {
        "InChI": "InChI=1S/C21H14N2O4/c24-18-9-10-19(25)22(18)16-5-1-14(2-6-16)13-15-3-7-17(8-4-15)23-20(26)11-12-21(23)27/h1-12H,13H2",
        "InChIKey": null,
        "Canonical SMILES": "O=C1C=CC(=O)N1C2=CC=C(C=C2)CC3=CC=C(C=C3)N4C(=O)C=CC4=O",
        "Molecular Formula": "C<sub>21</sub>H<sub>14</sub>N<sub>2</sub>O<sub>4</sub>",
        "Molecular Mass": "358.35",
        "Melting Point": "120-145 °C",
        "Density": "1.33 g/cm³"
    }
}