{
    "cas_no": "5728-33-6",
    "key_name": "3′-Methyl[1,1′-biphenyl]-4-carboxylic acid",
    "cn_name": "3\"-甲基联苯-4-甲酸;",
    "alternate_name": "[1,1′-Biphenyl]-4-carboxylic acid, 3′-methyl-;4-Biphenylcarboxylic acid, 3′-methyl-;3′-Methyl[1,1′-biphenyl]-4-carboxylic acid;3′-Methyl-4-biphenylcarboxylic acid;3′-Methyl-1,1′-biphenyl-4-carboxylic acid",
    "duplicated_cas_no": "",
    "SMILES": "CC=1C=C(C2=CC=C(C(O)=O)C=C2)C=CC1",
    "meta_data": {
        "InChI": "InChI=1S/C14H12O2/c1-10-3-2-4-13(9-10)11-5-7-12(8-6-11)14(15)16/h2-9H,1H3,(H,15,16)",
        "InChIKey": null,
        "Canonical SMILES": "O=C(O)C1=CC=C(C=C1)C=2C=CC=C(C2)C",
        "Molecular Formula": "C<sub>14</sub>H<sub>12</sub>O<sub>2</sub>",
        "Molecular Mass": "212.24",
        "Melting Point": "188-189 °C"
    }
}