{
    "cas_no": "23350-58-5",
    "key_name": "2-Butenamide",
    "cn_name": null,
    "alternate_name": "2-Butenamide;Crotonamide;But-2-enoic acid amide",
    "duplicated_cas_no": "",
    "SMILES": "C(C(N)=O)=CC",
    "meta_data": {
        "InChI": "InChI=1S/C4H7NO/c1-2-3-4(5)6/h2-3H,1H3,(H2,5,6)",
        "InChIKey": null,
        "Canonical SMILES": "O=C(N)C=CC",
        "Molecular Formula": "C<sub>4</sub>H<sub>7</sub>NO",
        "Molecular Mass": "85.10",
        "Melting Point": "159.5-160.0 °C"
    }
}