{
    "cas_no": "89901-03-1",
    "key_name": "Methyl 4′-bromo[1,1′-biphenyl]-4-carboxylate",
    "cn_name": "4\"-溴[1,1\"-联苯]-4-甲酸甲酯;",
    "alternate_name": "[1,1′-Biphenyl]-4-carboxylic acid, 4′-bromo-, methyl ester;Methyl 4′-bromo[1,1′-biphenyl]-4-carboxylate;Methyl 4′-bromobiphenyl-4-carboxylate;4′-Bromobiphenyl-4-carboxylic acid methyl ester;4′-Bromo-1,1′-biphenyl-4-carboxylic acid methyl ester",
    "duplicated_cas_no": "",
    "SMILES": "C(OC)(=O)C1=CC=C(C=C1)C2=CC=C(Br)C=C2",
    "meta_data": {
        "InChI": "InChI=1S/C14H11BrO2/c1-17-14(16)12-4-2-10(3-5-12)11-6-8-13(15)9-7-11/h2-9H,1H3",
        "InChIKey": null,
        "Canonical SMILES": "O=C(OC)C1=CC=C(C=C1)C=2C=CC(Br)=CC2",
        "Molecular Formula": "C<sub>14</sub>H<sub>11</sub>BrO<sub>2</sub>",
        "Molecular Mass": "291.14",
        "Melting Point": "144-146 °C"
    }
}