{
    "cas_no": "6540-98-3",
    "key_name": "6-Hydroxy-5-decanone",
    "cn_name": "6-羟基5-癸酮;6-羟基5-癸酮;",
    "alternate_name": "5-Decanone, 6-hydroxy-;6-Hydroxy-5-decanone;5-Hydroxy-6-decanone;Decan-5-ol-6-one",
    "duplicated_cas_no": "116296-90-3;594872-20-5",
    "SMILES": "C(C(CCCC)=O)(CCCC)O",
    "meta_data": {
        "InChI": "InChI=1S/C10H20O2/c1-3-5-7-9(11)10(12)8-6-4-2/h9,11H,3-8H2,1-2H3",
        "InChIKey": null,
        "Canonical SMILES": "O=C(CCCC)C(O)CCCC",
        "Molecular Formula": "C<sub>10</sub>H<sub>20</sub>O<sub>2</sub>",
        "Molecular Mass": "172.26",
        "Boiling Point": "205-215 °C @ Press: 12 Torr",
        "Melting Point": "151-152 °C"
    }
}