{
    "cas_no": "2106-02-7",
    "key_name": "2-Chloro-4-fluorobenzenamine",
    "cn_name": "2-氯-4-氟苯胺;",
    "alternate_name": "Benzenamine, 2-chloro-4-fluoro-;Aniline, 2-chloro-4-fluoro-;2-Chloro-4-fluorobenzenamine;2-Chloro-4-fluoroaniline;(2-Chloro-4-fluorophenyl)amine;4-Fluoro-2-chloroaniline",
    "duplicated_cas_no": "",
    "SMILES": "ClC1=C(N)C=CC(F)=C1",
    "meta_data": {
        "InChI": "InChI=1S/C6H5ClFN/c7-5-3-4(8)1-2-6(5)9/h1-3H,9H2",
        "InChIKey": null,
        "Canonical SMILES": "FC1=CC=C(N)C(Cl)=C1",
        "Molecular Formula": "C<sub>6</sub>H<sub>5</sub>ClFN",
        "Molecular Mass": "145.56",
        "Boiling Point": "70-71 °C @ Press: 0.25 Torr"
    }
}