{
    "cas_no": "659-18-7",
    "key_name": "Ethanol, 2,2,2-trifluoro-, 1,1′,1′′-triester with boric acid (H<sub>3</sub>BO<sub>3</sub>)",
    "cn_name": null,
    "alternate_name": "Ethanol, 2,2,2-trifluoro-, 1,1′,1′′-triester with boric acid (H<sub>3</sub>BO<sub>3</sub>);Ethanol, 2,2,2-trifluoro-, triester with boric acid (H<sub>3</sub>BO<sub>3</sub>);Ethanol, 2,2,2-trifluoro-, borate;Tris(2,2,2-trifluoroethoxy)boron;Tris(2,2,2-trifluoroethyl) borate",
    "duplicated_cas_no": "",
    "SMILES": "B(OCC(F)(F)F)(OCC(F)(F)F)OCC(F)(F)F",
    "meta_data": {
        "InChI": "InChI=1S/C6H6BF9O3/c8-4(9,10)1-17-7(18-2-5(11,12)13)19-3-6(14,15)16/h1-3H2",
        "InChIKey": null,
        "Canonical SMILES": "FC(F)(F)COB(OCC(F)(F)F)OCC(F)(F)F",
        "Molecular Formula": "C<sub>6</sub>H<sub>6</sub>BF<sub>9</sub>O<sub>3</sub>",
        "Molecular Mass": "307.91",
        "Boiling Point": "43 °C @ Press: 60 Torr"
    }
}