{
    "cas_no": "28831-65-4",
    "key_name": "(+)-Lithospermic acid",
    "cn_name": "紫草酸;",
    "alternate_name": "3-Benzofurancarboxylic acid, 4-[(1<em>E</em>)-3-[(1<em>R</em>)-1-carboxy-2-(3,4-dihydroxyphenyl)ethoxy]-3-oxo-1-propen-1-yl]-2-(3,4-dihydroxyphenyl)-2,3-dihydro-7-hydroxy-, (2<em>S</em>,3<em>S</em>)-;Lithospermic acid;3-Benzofurancarboxylic acid, 4-[(1<em>E</em>)-3-[(1<em>R</em>)-1-carboxy-2-(3,4-dihydroxyphenyl)ethoxy]-3-oxo-1-propenyl]-2-(3,4-dihydroxyphenyl)-2,3-dihydro-7-hydroxy-, (2<em>S</em>,3<em>S</em>)-;(2<em>S</em>,3<em>S</em>)-4-[(1<em>E</em>)-3-[(1<em>R</em>)-1-Carboxy-2-(3,4-dihydroxyphenyl)ethoxy]-3-oxo-1-propen-1-yl]-2-(3,4-dihydroxyphenyl)-2,3-dihydro-7-hydroxy-3-benzofurancarboxylic acid;Lithospermic acid A;(+)-Lithospermic acid",
    "duplicated_cas_no": "11075-67-5;54814-35-6",
    "SMILES": "C(O)(=O)[C@H]1C=2C(O[C@@H]1C3=CC(O)=C(O)C=C3)=C(O)C=CC2/C=C/C(O[C@H](CC4=CC(O)=C(O)C=C4)C(O)=O)=O",
    "meta_data": {
        "InChI": "InChI=1S/C27H22O12/c28-15-5-1-12(9-18(15)31)10-20(26(34)35)38-21(33)8-4-13-2-7-17(30)25-22(13)23(27(36)37)24(39-25)14-3-6-16(29)19(32)11-14/h1-9,11,20,23-24,28-32H,10H2,(H,34,35)(H,36,37)/b8-4+/t20-,23+,24-/m1/s1",
        "InChIKey": null,
        "Canonical SMILES": "O=C(OC(C(=O)O)CC1=CC=C(O)C(O)=C1)C=CC2=CC=C(O)C=3OC(C4=CC=C(O)C(O)=C4)C(C(=O)O)C23",
        "Molecular Formula": "C<sub>27</sub>H<sub>22</sub>O<sub>12</sub>",
        "Molecular Mass": "538.46",
        "Melting Point": "183-188 °C"
    }
}