{
    "cas_no": "3228-99-7",
    "key_name": "1,3-Dichloro-2,2-bis(chloromethyl)propane",
    "cn_name": "四氯季戊醇;",
    "alternate_name": "Propane, 1,3-dichloro-2,2-bis(chloromethyl)-;1,3-Dichloro-2,2-bis(chloromethyl)propane;Pentaerythritol tetrachloride;Pentaerythrityl tetrachloride;Tetrachloride;Tetrakis(chloromethyl)methane;2,2-Bis(chloromethyl)-1,3-dichloropropane;NSC 405471;NSC 408644",
    "duplicated_cas_no": "",
    "SMILES": "C(CCl)(CCl)(CCl)CCl",
    "meta_data": {
        "InChI": "InChI=1S/C5H8Cl4/c6-1-5(2-7,3-8)4-9/h1-4H2",
        "InChIKey": null,
        "Canonical SMILES": "ClCC(CCl)(CCl)CCl",
        "Molecular Formula": "C<sub>5</sub>H<sub>8</sub>Cl<sub>4</sub>",
        "Molecular Mass": "209.93",
        "Boiling Point": "100 °C @ Press: 12 Torr",
        "Melting Point": "97 °C"
    }
}