{
    "cas_no": "5395-50-6",
    "key_name": "Tetramethylolacetylenediurea",
    "cn_name": "四羟甲基甘脲;1,3,4,6-四羟甲基甘脲;",
    "alternate_name": "Imidazo[4,5-<em>d</em>]imidazole-2,5(1<em>H</em>,3<em>H</em>)-dione, tetrahydro-1,3,4,6-tetrakis(hydroxymethyl)-;Glycoluril, 1,3,4,6-tetrakis(hydroxymethyl)-;Tetrahydro-1,3,4,6-tetrakis(hydroxymethyl)imidazo[4,5-<em>d</em>]imidazole-2,5(1<em>H</em>,3<em>H</em>)-dione;2,5-Dioxo-1,3,4,6-tetrakis(hydroxymethyl)hexahydroimidazo[4,5-<em>d</em>]imidazole;Fixapret 140;Tetramethylolacetylenediurea;Tetramethylolglycoluril;<em>N</em>,<em>N</em>′,<em>N</em>′′,<em>N</em>′′′-Tetrakis(hydroxymethyl)glycoluril;Tetrakis(hydroxymethyl)glycoluril;Tetrakis(hydroxymethyl)acetyleneurea;Cymel 1172;NSC 3319;NSC 67452;Tetrakis(hydroxymethyl)acetylenediurea;Protectol TD;2,4,6,8-Tetrakis(hydroxymethyl)glycoluril;Tetrahydro-1,3,4,6-tetrakis(hydroxymethyl)imidazo[4,5-<em>d</em>]imidazol-2,5(1<em>H</em>,3<em>H</em>)-dione;Tetramethylol acetylene carbamide;1,3,4,6-Tetrakis(hydroxymethyl)glycoluril;Q 172;1,3,4,6-Tetrakis(hydroxymethyl)tetrahydroimidazo[4,5-<em>d</em>]imidazole-2,5(1<em>H</em>,3<em>H</em>)-dione;1,3,4,6-Tetrakis(hydroxymethyl)-3a,6a-dihydroimidazo[4,5-<em>d</em>]imidazole-2,5-dione",
    "duplicated_cas_no": "100091-50-7;53272-25-6",
    "SMILES": "C(O)N1C2C(N(CO)C(=O)N2CO)N(CO)C1=O",
    "meta_data": {
        "InChI": "InChI=1S/C8H14N4O6/c13-1-9-5-6(11(3-15)7(9)17)12(4-16)8(18)10(5)2-14/h5-6,13-16H,1-4H2",
        "InChIKey": null,
        "Canonical SMILES": "O=C1N(CO)C2N(C(=O)N(CO)C2N1CO)CO",
        "Molecular Formula": "C<sub>8</sub>H<sub>14</sub>N<sub>4</sub>O<sub>6</sub>",
        "Molecular Mass": "262.22",
        "Melting Point": "137-138 °C"
    }
}