{
    "cas_no": "28188-41-2",
    "key_name": "3-Cyanobenzyl bromide",
    "cn_name": "3-氰基苄基溴;间氰基苄基溴;间氰基溴苄;",
    "alternate_name": "Benzonitrile, 3-(bromomethyl)-;<em>m</em>-Tolunitrile, α-bromo-;3-(Bromomethyl)benzonitrile;<em>m</em>-Cyanobenzyl bromide;3-Cyanobenzyl bromide;<em>m</em>-(Bromomethyl)benzonitrile;α-Bromo-<em>m</em>-tolunitrile;<em>m</em>-Cyano-α-bromotoluene;NSC 108298;1-Bromomethyl-3-cyanobenzene",
    "duplicated_cas_no": "",
    "SMILES": "C(Br)C1=CC(C#N)=CC=C1",
    "meta_data": {
        "InChI": "InChI=1S/C8H6BrN/c9-5-7-2-1-3-8(4-7)6-10/h1-4H,5H2",
        "InChIKey": null,
        "Canonical SMILES": "N#CC1=CC=CC(=C1)CBr",
        "Molecular Formula": "C<sub>8</sub>H<sub>6</sub>BrN",
        "Molecular Mass": "196.04",
        "Boiling Point": "130 °C @ Press: 4 Torr",
        "Melting Point": "93 °C"
    }
}