{
    "cas_no": "486-86-2",
    "key_name": "(-)-<em>N</em>-Methylcytisine",
    "cn_name": "N-甲基野靛碱;N-甲基金雀花碱;",
    "alternate_name": "1,5-Methano-8<em>H</em>-pyrido[1,2-<em>a</em>][1,5]diazocin-8-one, 1,2,3,4,5,6-hexahydro-3-methyl-, (1<em>R</em>,5<em>S</em>)-;Cytisine, 12-methyl-;1,5-Methano-8<em>H</em>-pyrido[1,2-<em>a</em>][1,5]diazocin-8-one, 1,2,3,4,5,6-hexahydro-3-methyl-, (1<em>R</em>)-;Cytisine, methyl-;Cytisine, <em>N</em>-methyl-;(1<em>R</em>,5<em>S</em>)-1,2,3,4,5,6-Hexahydro-3-methyl-1,5-methano-8<em>H</em>-pyrido[1,2-<em>a</em>][1,5]diazocin-8-one;<em>N</em>-Methylcytisine;Caulophylline;Caulophyllin;(-)-<em>N</em>-Methylcytisine;3-Methylcytisine;<em>N</em>-Methylcytizin",
    "duplicated_cas_no": "28463-18-5",
    "SMILES": "O=C1N2C([C@@]3(C[C@](C2)(CN(C)C3)[H])[H])=CC=C1",
    "meta_data": {
        "InChI": "InChI=1S/C12H16N2O/c1-13-6-9-5-10(8-13)11-3-2-4-12(15)14(11)7-9/h2-4,9-10H,5-8H2,1H3/t9-,10+/m0/s1",
        "InChIKey": null,
        "Canonical SMILES": "O=C1C=CC=C2N1CC3CN(C)CC2C3",
        "Molecular Formula": "C<sub>12</sub>H<sub>16</sub>N<sub>2</sub>O",
        "Molecular Mass": "204.27",
        "Boiling Point": "140-170 °C @ Press: 0.01 Torr",
        "Melting Point": "137 °C"
    }
}