{
    "cas_no": "1180-71-8",
    "key_name": "Limonin",
    "cn_name": "柠檬苦素;",
    "alternate_name": "11<em>H</em>,13<em>H</em>-Oxireno[<em>d</em>]pyrano[4′,3′:3,3a]isobenzofuro[5,4-<em>f</em>][2]benzopyran-4,6,13(2<em>H</em>,5a<em>H</em>)-trione, 8-(3-furanyl)decahydro-2,2,4a,8a-tetramethyl-, (2a<em>R</em>,4a<em>R</em>,4b<em>R</em>,5a<em>S</em>,8<em>S</em>,8a<em>S</em>,10a<em>R</em>,10b<em>R</em>,14a<em>S</em>)-;11<em>H</em>,13<em>H</em>-Oxireno[<em>d</em>]pyrano[4′,3′:3,3a]isobenzofuro[5,4-<em>f</em>][2]benzopyran-4,6,13(2<em>H</em>,5a<em>H</em>)-trione, 8-(3-furyl)decahydro-2,2,4a,8a-tetramethyl-;Limonin;Limonoic acid, di-δ-lactone;(2a<em>R</em>,4a<em>R</em>,4b<em>R</em>,5a<em>S</em>,8<em>S</em>,8a<em>S</em>,10a<em>R</em>,10b<em>R</em>,14a<em>S</em>)-8-(3-Furanyl)decahydro-2,2,4a,8a-tetramethyl-11<em>H</em>,13<em>H</em>-oxireno[<em>d</em>]pyrano[4′,3′:3,3a]isobenzofuro[5,4-<em>f</em>][2]benzopyran-4,6,13(2<em>H</em>,5a<em>H</em>)-trione;Citrolimonin;Dictamnolactone;Evodin;11<em>H</em>,13<em>H</em>-Oxireno[<em>d</em>]pyrano[4′,3′:3,3a]isobenzofuro[5,4-<em>f</em>][2]benzopyran-4,6,13(2<em>H</em>,5a<em>H</em>)-trione, 8-(3-furanyl)decahydro-2,2,4a,8a-tetramethyl-, [2a<em>R</em>-(2aα,4aβ,4b<em>R</em>*,5aα,8α,8aα,10aα,10b<em>R</em>*,14aα)]-;Obaculactone;Limonine;7,16-Dioxo-7,16-dideoxylimondiol;Obakulactone",
    "duplicated_cas_no": "1392-24-1",
    "SMILES": "C[C@]12[C@]34[C@](O3)(C(=O)O[C@H]([C@]4(C)CC[C@@]1([C@]56[C@@](CC2=O)(C(C)(C)O[C@]5(CC(=O)OC6)[H])[H])[H])C=7C=COC7)[H]",
    "meta_data": {
        "InChI": "InChI=1S/C26H30O8/c1-22(2)15-9-16(27)24(4)14(25(15)12-31-18(28)10-17(25)33-22)5-7-23(3)19(13-6-8-30-11-13)32-21(29)20-26(23,24)34-20/h6,8,11,14-15,17,19-20H,5,7,9-10,12H2,1-4H3/t14-,15-,17-,19-,20+,23-,24-,25+,26+/m0/s1",
        "InChIKey": null,
        "Canonical SMILES": "O=C1OCC23C(OC(C)(C)C3CC(=O)C4(C)C2CCC5(C)C(OC(=O)C6OC645)C7=COC=C7)C1",
        "Molecular Formula": "C<sub>26</sub>H<sub>30</sub>O<sub>8</sub>",
        "Molecular Mass": "470.51",
        "Melting Point": "298 °C"
    }
}