{
    "cas_no": "1521-41-1",
    "key_name": "3,4-Dimethoxybenzamide",
    "cn_name": null,
    "alternate_name": "Benzamide, 3,4-dimethoxy-;Veratrimidic acid;Veratramide;3,4-Dimethoxybenzamide;SR 4191;NSC 370837",
    "duplicated_cas_no": "5653-59-8;869468-77-9",
    "SMILES": "O(C)C1=C(OC)C=CC(C(N)=O)=C1",
    "meta_data": {
        "InChI": "InChI=1S/C9H11NO3/c1-12-7-4-3-6(9(10)11)5-8(7)13-2/h3-5H,1-2H3,(H2,10,11)",
        "InChIKey": null,
        "Canonical SMILES": "O=C(N)C1=CC=C(OC)C(OC)=C1",
        "Molecular Formula": "C<sub>9</sub>H<sub>11</sub>NO<sub>3</sub>",
        "Molecular Mass": "181.19",
        "Melting Point": "93-94 °C"
    }
}