{
    "cas_no": "6971-38-6",
    "key_name": "2-Methyl-4-nitrosophenol",
    "cn_name": null,
    "alternate_name": "Phenol, 2-methyl-4-nitroso-;<em>o</em>-Cresol, 4-nitroso-;2-Methyl-4-nitrosophenol;<em>p</em>-Nitroso-<em>o</em>-cresol;NSC 66508;NSC 677555",
    "duplicated_cas_no": "",
    "SMILES": "N(=O)C1=CC(C)=C(O)C=C1",
    "meta_data": {
        "InChI": "InChI=1S/C7H7NO2/c1-5-4-6(8-10)2-3-7(5)9/h2-4,9H,1H3",
        "InChIKey": null,
        "Canonical SMILES": "O=NC1=CC=C(O)C(=C1)C",
        "Molecular Formula": "C<sub>7</sub>H<sub>7</sub>NO<sub>2</sub>",
        "Molecular Mass": "137.14",
        "Melting Point": "133-134 °C"
    }
}