{
    "cas_no": "822-20-8",
    "key_name": "1-Heptadecanol, 1-acetate",
    "cn_name": null,
    "alternate_name": "1-Heptadecanol, 1-acetate;1-Heptadecanol, acetate;<em>n</em>-Heptadecyl acetate;Heptadecyl acetate;1-Heptadecyl acetate",
    "duplicated_cas_no": "",
    "SMILES": "C(CCCCCCCCCCCC)CCCCOC(C)=O",
    "meta_data": {
        "InChI": "InChI=1S/C19H38O2/c1-3-4-5-6-7-8-9-10-11-12-13-14-15-16-17-18-21-19(2)20/h3-18H2,1-2H3",
        "InChIKey": null,
        "Canonical SMILES": "O=C(OCCCCCCCCCCCCCCCCC)C",
        "Molecular Formula": "C<sub>19</sub>H<sub>38</sub>O<sub>2</sub>",
        "Molecular Mass": "298.50",
        "Boiling Point": "123-130 °C @ Press: 1-2 Torr"
    }
}