{
    "cas_no": "5321-63-1",
    "key_name": "Piperazine, 1-(phenylmethyl)-, hydrochloride (1:2)",
    "cn_name": "N-苄基哌嗪二盐酸盐;",
    "alternate_name": "Piperazine, 1-(phenylmethyl)-, hydrochloride (1:2);Piperazine, 1-benzyl-, dihydrochloride;Piperazine, 1-(phenylmethyl)-, dihydrochloride;Benzylpiperazine dihydrochloride;1-Benzylpiperazine dihydrochloride;<em>N</em>-Benzylpiperazine dihydrochloride",
    "duplicated_cas_no": "",
    "SMILES": "C(C1=CC=CC=C1)N2CCNCC2.Cl",
    "meta_data": {
        "InChI": "InChI=1S/C11H16N2.2ClH/c1-2-4-11(5-3-1)10-13-8-6-12-7-9-13;;/h1-5,12H,6-10H2;2*1H",
        "InChIKey": null,
        "Canonical SMILES": "Cl.C=1C=CC(=CC1)CN2CCNCC2",
        "Molecular Formula": "C<sub>11</sub>H<sub>16</sub>N<sub>2</sub>.2ClH",
        "Molecular Mass": "",
        "Melting Point": "253 °C"
    }
}