{
    "cas_no": "42397-64-8",
    "key_name": "1,6-Dinitropyrene",
    "cn_name": "1,6-二硝基芘;",
    "alternate_name": "Pyrene, 1,6-dinitro-;1,6-Dinitropyrene",
    "duplicated_cas_no": "",
    "SMILES": "N(=O)(=O)C1=C2C3=C4C(C(N(=O)=O)=CC=C4C=C2)=CC=C3C=C1",
    "meta_data": {
        "InChI": "InChI=1S/C16H8N2O4/c19-17(20)13-8-4-10-2-6-12-14(18(21)22)7-3-9-1-5-11(13)16(10)15(9)12/h1-8H",
        "InChIKey": null,
        "Canonical SMILES": "O=N(=O)C1=CC=C2C=CC3=C(C=CC4=CC=C1C2=C43)N(=O)=O",
        "Molecular Formula": "C<sub>16</sub>H<sub>8</sub>N<sub>2</sub>O<sub>4</sub>",
        "Molecular Mass": "292.25",
        "Melting Point": "309 °C"
    }
}