{
    "cas_no": "18773-95-0",
    "key_name": "1-(1<em>H</em>-Benzimidazol-1-yl)ethanone",
    "cn_name": null,
    "alternate_name": "Ethanone, 1-(1<em>H</em>-benzimidazol-1-yl)-;Benzimidazole, 1-acetyl-;1<em>H</em>-Benzimidazole, 1-acetyl-;1-(1<em>H</em>-Benzimidazol-1-yl)ethanone;1-Acetylbenzimidazole;<em>N</em>-Acetylbenzimidazole;1-Acetyl-1<em>H</em>-benzimidazole;1-(1<em>H</em>-1,3-Benzodiazol-1-yl)ethan-1-one",
    "duplicated_cas_no": "",
    "SMILES": "C(C)(=O)N1C=2C(N=C1)=CC=CC2",
    "meta_data": {
        "InChI": "InChI=1S/C9H8N2O/c1-7(12)11-6-10-8-4-2-3-5-9(8)11/h2-6H,1H3",
        "InChIKey": null,
        "Canonical SMILES": "O=C(N1C=NC=2C=CC=CC21)C",
        "Molecular Formula": "C<sub>9</sub>H<sub>8</sub>N<sub>2</sub>O",
        "Molecular Mass": "160.17",
        "Melting Point": "113-114 °C"
    }
}