{
    "cas_no": "2031-79-0",
    "key_name": "2,2,4,4,6,6-Hexaethylcyclotrisiloxane",
    "cn_name": "六乙基环三硅氧烷;1,1,3,3,5,5-六乙基环三硅氧烷;",
    "alternate_name": "Cyclotrisiloxane, 2,2,4,4,6,6-hexaethyl-;Cyclotrisiloxane, hexaethyl-;2,2,4,4,6,6-Hexaethylcyclotrisiloxane;Hexaethylcyclotrisiloxane;1,1,3,3,5,5-Hexaethylcyclotrisiloxane;2,2,4,4,6,6-Hexaethyl-1,3,5,2,4,6-trioxatrisilinane",
    "duplicated_cas_no": "",
    "SMILES": "C(C)[Si]1(CC)O[Si](CC)(CC)O[Si](CC)(CC)O1",
    "meta_data": {
        "InChI": "InChI=1S/C12H30O3Si3/c1-7-16(8-2)13-17(9-3,10-4)15-18(11-5,12-6)14-16/h7-12H2,1-6H3",
        "InChIKey": null,
        "Canonical SMILES": "O1[Si](O[Si](O[Si]1(CC)CC)(CC)CC)(CC)CC",
        "Molecular Formula": "C<sub>12</sub>H<sub>30</sub>O<sub>3</sub>Si<sub>3</sub>",
        "Molecular Mass": "306.62",
        "Boiling Point": "117 °C @ Press: 10 Torr",
        "Melting Point": "14 °C",
        "Density": "0.955 g/cm³"
    }
}