{
    "cas_no": "67488-50-0",
    "key_name": "3-Thiophenecarboxylic acid, 2,5-dihydro-, methyl ester, 1,1-dioxide",
    "cn_name": null,
    "alternate_name": "3-Thiophenecarboxylic acid, 2,5-dihydro-, methyl ester, 1,1-dioxide;2,5-Dihydro-3-thiophenecarboxylic acid methyl ester 1,1-dioxide;NSC 640439",
    "duplicated_cas_no": "",
    "SMILES": "C(OC)(=O)C=1CS(=O)(=O)CC1",
    "meta_data": {
        "InChI": "InChI=1S/C6H8O4S/c1-10-6(7)5-2-3-11(8,9)4-5/h2H,3-4H2,1H3",
        "InChIKey": null,
        "Canonical SMILES": "O=C(OC)C1=CCS(=O)(=O)C1",
        "Molecular Formula": "C<sub>6</sub>H<sub>8</sub>O<sub>4</sub>S",
        "Molecular Mass": "176.19",
        "Melting Point": "57-58 °C"
    }
}