{
    "cas_no": "109-31-9",
    "key_name": "1,9-Dihexyl nonanedioate",
    "cn_name": "壬二酸二己酯;",
    "alternate_name": "Nonanedioic acid, 1,9-dihexyl ester;Azelaic acid, dihexyl ester;Nonanedioic acid, dihexyl ester;1,9-Dihexyl nonanedioate;Dihexyl azelate;Plastolein 9051 DHNZ;Di-<em>n</em>-hexyl azelate",
    "duplicated_cas_no": "",
    "SMILES": "C(C(OCCCCCC)=O)CCCCCCC(OCCCCCC)=O",
    "meta_data": {
        "InChI": "InChI=1S/C21H40O4/c1-3-5-7-14-18-24-20(22)16-12-10-9-11-13-17-21(23)25-19-15-8-6-4-2/h3-19H2,1-2H3",
        "InChIKey": null,
        "Canonical SMILES": "O=C(OCCCCCC)CCCCCCCC(=O)OCCCCCC",
        "Molecular Formula": "C<sub>21</sub>H<sub>40</sub>O<sub>4</sub>",
        "Molecular Mass": "356.54",
        "Boiling Point": "216 °C @ Press: 5 Torr",
        "Melting Point": "-8 °C",
        "Density": "0.927 g/cm³ @ Temp: 20 °C"
    }
}