{
    "cas_no": "16713-66-9",
    "key_name": "1,1-Cyclopentanediacetic acid",
    "cn_name": "1,1-环戊烷二乙酸;3,3-四亚甲基戊二酸;",
    "alternate_name": "1,1-Cyclopentanediacetic acid;3,3′-Tetramethylene glutaric acid;Tetramethyleneglutaric acid;AY 20037;NSC 39838;1,1-Bis(carboxymethyl)cyclopentane;2-[1-(Carboxymethyl)cyclopentyl]acetic acid;2,2′-(Cyclopentane-1,1-diyl)diacetic acid",
    "duplicated_cas_no": "",
    "SMILES": "C(C(O)=O)C1(CC(O)=O)CCCC1",
    "meta_data": {
        "InChI": "InChI=1S/C9H14O4/c10-7(11)5-9(6-8(12)13)3-1-2-4-9/h1-6H2,(H,10,11)(H,12,13)",
        "InChIKey": null,
        "Canonical SMILES": "O=C(O)CC1(CC(=O)O)CCCC1",
        "Molecular Formula": "C<sub>9</sub>H<sub>14</sub>O<sub>4</sub>",
        "Molecular Mass": "186.21",
        "Melting Point": "176-177 °C"
    }
}