{
    "cas_no": "13286-32-3",
    "key_name": "Kitazin",
    "cn_name": null,
    "alternate_name": "Phosphorothioic acid, <em>O</em>,<em>O</em>-diethyl <em>S</em>-(phenylmethyl) ester;Phosphorothioic acid, <em>S</em>-benzyl <em>O</em>,<em>O</em>-diethyl ester;Benzyl ethyl phosphorothioate ((PhCH<sub>2</sub>S)(EtO)<sub>2</sub>PO);<em>O</em>,<em>O</em>-Diethyl <em>S</em>-benzyl thiophosphate;Kitazin;<em>S</em>-Benzyl <em>O</em>,<em>O</em>-diethyl phosphorothioate;<em>O</em>,<em>O</em>-Diethyl <em>S</em>-benzyl phosphorothioate;Ricide;Ricid;EBP;NSC 49723;EBP (insecticide);Isoprobenphos;Kitazin 48EC",
    "duplicated_cas_no": "",
    "SMILES": "P(SCC1=CC=CC=C1)(OCC)(OCC)=O",
    "meta_data": {
        "InChI": "InChI=1S/C11H17O3PS/c1-3-13-15(12,14-4-2)16-10-11-8-6-5-7-9-11/h5-9H,3-4,10H2,1-2H3",
        "InChIKey": null,
        "Canonical SMILES": "O=P(OCC)(OCC)SCC=1C=CC=CC1",
        "Molecular Formula": "C<sub>11</sub>H<sub>17</sub>O<sub>3</sub>PS",
        "Molecular Mass": "260.29",
        "Boiling Point": "165-170 °C @ Press: 2 Torr",
        "Density": "1.1589 g/cm³ @ Temp: 20 °C"
    }
}