{
    "cas_no": "34552-84-6",
    "key_name": "Isoxicam",
    "cn_name": null,
    "alternate_name": "2<em>H</em>-1,2-Benzothiazine-3-carboxamide, 4-hydroxy-2-methyl-<em>N</em>-(5-methyl-3-isoxazolyl)-, 1,1-dioxide;Isoxicam;Pacyl;Pacyl (antiinflammatory);W 8495;Vectren;Floxicam",
    "duplicated_cas_no": "",
    "SMILES": "OC=1C=2C(S(=O)(=O)N(C)C1C(NC3=NOC(C)=C3)=O)=CC=CC2",
    "meta_data": {
        "InChI": "InChI=1S/C14H13N3O5S/c1-8-7-11(16-22-8)15-14(19)12-13(18)9-5-3-4-6-10(9)23(20,21)17(12)2/h3-7,18H,1-2H3,(H,15,16,19)",
        "InChIKey": null,
        "Canonical SMILES": "O=C(NC1=NOC(=C1)C)C2=C(O)C=3C=CC=CC3S(=O)(=O)N2C",
        "Molecular Formula": "C<sub>14</sub>H<sub>13</sub>N<sub>3</sub>O<sub>5</sub>S",
        "Molecular Mass": "335.34",
        "Melting Point": "265-271 °C (decomp)"
    }
}