{
    "cas_no": "50926-11-9",
    "key_name": "Indium tin oxide",
    "cn_name": null,
    "alternate_name": "Indium tin oxide;ITO;UFP-HX;Tin indium oxide;SUFP-HX;X 101 (oxide);X 101;F-ITO;New Pro Coat EC-L;S 100;S 100 (electrode);Microsolver LIT 41A;ITO 3Mb;VP AdNano ITO-DW;D 01-9000;VP AdNano ITO-TC 8;L 2CC5;ITO-R;PFC100-D150;ITO-P 001;DK 444;B-ITO 30N;AM-ITO 042-1;Indium tin oxide (InSnO);SK 100 (metal oxide);SK 100;Tetolight OES 125;VP-ITO-IR 5",
    "duplicated_cas_no": "103288-91-1;117728-36-6;188840-34-8;2766086-04-6",
    "SMILES": "[O].[In].[Sn]",
    "meta_data": {
        "InChI": "InChI=1S/In.O.Sn",
        "InChIKey": null,
        "Canonical SMILES": "[O].[In].[Sn]",
        "Molecular Formula": "In.O.Sn",
        "Molecular Mass": "",
        "Melting Point": "287 °C",
        "Density": "7.05 g/cm³"
    }
}