{
    "uri": "substance/pt/50926119",
    "rn": "50926-11-9",
    "name": "Indium tin oxide",
    "images": [],
    "inchi": "InChI=1S/In.O.Sn",
    "inchiKey": "InChIKey=AMGQUBHHOARCQH-UHFFFAOYSA-N",
    "smile": "[O].[In].[Sn]",
    "canonicalSmile": "[O].[In].[Sn]",
    "molecularFormula": "In.O.Sn",
    "molecularMass": "",
    "experimentalProperties": [
        {
            "name": "Melting Point",
            "property": "287 °C",
            "sourceNumber": 1
        },
        {
            "name": "Density",
            "property": "7.05 g/cm³",
            "sourceNumber": 2
        }
    ],
    "propertyCitations": [
        {
            "docUri": "document/pt/document/28964617",
            "sourceNumber": 1,
            "source": "Padmaperuma, Asanga B.; Chemistry of Materials, (2006), 18(9), 2389-2396, CAplus"
        },
        {
            "docUri": "document/pt/document/26842608",
            "sourceNumber": 2,
            "source": "Jung, Yeon Sik; Thin Solid Films, (2004), 467(1-2), 36-42, CAplus"
        }
    ],
    "synonyms": [
        "Indium tin oxide",
        "ITO",
        "UFP-HX",
        "Tin indium oxide",
        "SUFP-HX",
        "X 101 (oxide)",
        "X 101",
        "F-ITO",
        "New Pro Coat EC-L",
        "S 100",
        "S 100 (electrode)",
        "Microsolver LIT 41A",
        "ITO 3Mb",
        "VP AdNano ITO-DW",
        "D 01-9000",
        "VP AdNano ITO-TC 8",
        "L 2CC5",
        "ITO-R",
        "PFC100-D150",
        "ITO-P 001",
        "DK 444",
        "B-ITO 30N",
        "AM-ITO 042-1",
        "Indium tin oxide (InSnO)",
        "SK 100 (metal oxide)",
        "SK 100",
        "Tetolight OES 125",
        "VP-ITO-IR 5"
    ],
    "replacedRns": [
        "103288-91-1",
        "117728-36-6",
        "188840-34-8",
        "2766086-04-6"
    ],
    "hasMolfile": true,
    "source": "https://commonchemistry.cas.org/detail?cas_rn=50926-11-9"
}