{
    "cas_no": "5119-48-2",
    "key_name": "Withaferin A",
    "cn_name": null,
    "alternate_name": "Ergosta-2,24-dien-26-oic acid, 5,6-epoxy-4,22,27-trihydroxy-1-oxo-, δ-lactone, (4β,5β,6β,22<em>R</em>)-;Withaferin A;5β-Ergosta-2,24-dien-26-oic acid, 5,6β-epoxy-4β,22,27-trihydroxy-1-oxo-, δ-lactone, (20<em>S</em>,22<em>R</em>)-;5,6-Epoxy-5<em>H</em>-cyclopenta[<em>a</em>]phenanthrene, ergosta-2,24-dien-26-oic acid deriv.;Withaferine;Withaferine A;NSC 101088;NSC 273757",
    "duplicated_cas_no": "5196-55-4;22848-77-7;47738-04-5;1246849-97-7",
    "SMILES": "C[C@]12[C@]3([C@](O3)(C[C@@]4([C@@]1(CC[C@@]5(C)[C@]4(CC[C@@]5([C@H](C)[C@]6(CC(C)=C(CO)C(=O)O6)[H])[H])[H])[H])[H])[H])[C@@H](O)C=CC2=O",
    "meta_data": {
        "InChI": "InChI=1S/C28H38O6/c1-14-11-21(33-25(32)17(14)13-29)15(2)18-5-6-19-16-12-24-28(34-24)23(31)8-7-22(30)27(28,4)20(16)9-10-26(18,19)3/h7-8,15-16,18-21,23-24,29,31H,5-6,9-13H2,1-4H3/t15-,16-,18+,19-,20-,21+,23-,24+,26+,27-,28+/m0/s1",
        "InChIKey": null,
        "Canonical SMILES": "O=C1OC(CC(=C1CO)C)C(C)C2CCC3C4CC5OC65C(O)C=CC(=O)C6(C)C4CCC23C",
        "Molecular Formula": "C<sub>28</sub>H<sub>38</sub>O<sub>6</sub>",
        "Molecular Mass": "470.60",
        "Melting Point": "230-232 °C"
    }
}