{
    "cas_no": "18001-60-0",
    "key_name": "1,1,3,3-Tetraethoxy-1,3-dimethyldisiloxane",
    "cn_name": null,
    "alternate_name": "Disiloxane, 1,1,3,3-tetraethoxy-1,3-dimethyl-;1,1,3,3-Tetraethoxy-1,3-dimethyldisiloxane;Tetraethoxydimethyldisiloxane;[Diethoxy(methyl)silyl]oxy-diethoxy-methylsilane",
    "duplicated_cas_no": "",
    "SMILES": "O([Si](OCC)(OCC)C)[Si](OCC)(OCC)C",
    "meta_data": {
        "InChI": "InChI=1S/C10H26O5Si2/c1-7-11-16(5,12-8-2)15-17(6,13-9-3)14-10-4/h7-10H2,1-6H3",
        "InChIKey": null,
        "Canonical SMILES": "O(CC)[Si](OCC)(O[Si](OCC)(OCC)C)C",
        "Molecular Formula": "C<sub>10</sub>H<sub>26</sub>O<sub>5</sub>Si<sub>2</sub>",
        "Molecular Mass": "282.48",
        "Boiling Point": "205 °C",
        "Density": "0.953 g/cm³"
    }
}