{
    "cas_no": "1711-07-5",
    "key_name": "3-Fluorobenzoyl chloride",
    "cn_name": "间氟苯甲酰氯;3-氟苯甲酰氯;",
    "alternate_name": "Benzoyl chloride, 3-fluoro-;Benzoyl chloride, <em>m</em>-fluoro-;Benzoyl chloride, m-fluoro-;3-Fluorobenzoyl chloride;<em>m</em>-Fluorobenzoic acid chloride;<em>m</em>-Fluorobenzoyl chloride;NSC 88315;3-Fluorobenzenecarbonyl chloride",
    "duplicated_cas_no": "",
    "SMILES": "C(Cl)(=O)C1=CC(F)=CC=C1",
    "meta_data": {
        "InChI": "InChI=1S/C7H4ClFO/c8-7(10)5-2-1-3-6(9)4-5/h1-4H",
        "InChIKey": null,
        "Canonical SMILES": "O=C(Cl)C=1C=CC=C(F)C1",
        "Molecular Formula": "C<sub>7</sub>H<sub>4</sub>ClFO",
        "Molecular Mass": "158.56",
        "Boiling Point": "189 °C",
        "Melting Point": "-30 °C"
    }
}