{
    "cas_no": "7719-02-0",
    "key_name": "(Dichloroethenylsilyl)benzene",
    "cn_name": null,
    "alternate_name": "Benzene, (dichloroethenylsilyl)-;Silane, dichlorophenylvinyl-;Silane, dichloroethenylphenyl-;(Dichloroethenylsilyl)benzene;Dichlorophenylvinylsilane;Dichloro(vinyl)phenylsilane;Vinylphenyldichlorosilane;Phenylvinyldichlorosilane;NSC 270717",
    "duplicated_cas_no": "21104-97-2",
    "SMILES": "[Si](C=C)(Cl)(Cl)C1=CC=CC=C1",
    "meta_data": {
        "InChI": "InChI=1S/C8H8Cl2Si/c1-2-11(9,10)8-6-4-3-5-7-8/h2-7H,1H2",
        "InChIKey": null,
        "Canonical SMILES": "Cl[Si](Cl)(C=C)C=1C=CC=CC1",
        "Molecular Formula": "C<sub>8</sub>H<sub>8</sub>Cl<sub>2</sub>Si",
        "Molecular Mass": "203.14",
        "Boiling Point": "84-87 °C @ Press: 1.5 Torr",
        "Melting Point": "-43 °C",
        "Density": "1.196 g/cm³ @ Temp: 25 °C"
    }
}