{
    "cas_no": "3939-01-3",
    "key_name": "3-Piperidinecarboxylic acid, 4-oxo-1-(phenylmethyl)-, methyl ester, hydrochloride (1:1)",
    "cn_name": "1-苄基-3-甲氧羰基-4-哌啶酮盐酸盐;",
    "alternate_name": "3-Piperidinecarboxylic acid, 4-oxo-1-(phenylmethyl)-, methyl ester, hydrochloride (1:1);Nipecotic acid, 1-benzyl-4-oxo-, methyl ester, hydrochloride;3-Piperidinecarboxylic acid, 4-oxo-1-(phenylmethyl)-, methyl ester, hydrochloride;1-Benzyl-4-oxo-3-piperidinecarboxylic acid methyl ester monohydrochloride;1-Benzyl-3-(methoxycarbonyl)-4-oxopiperidine monohydrochloride;Methyl 1-benzyl-4-oxo-3-piperidinecarboxylate hydrochloride;1-Benzyl-4-oxopiperidine-3-carboxylic acid methyl ester hydrochloride;1-Benzyl-3-carbomethoxy-4-piperidone hydrochloride",
    "duplicated_cas_no": "",
    "SMILES": "C(OC)(=O)C1C(=O)CCN(CC2=CC=CC=C2)C1.Cl",
    "meta_data": {
        "InChI": "InChI=1S/C14H17NO3.ClH/c1-18-14(17)12-10-15(8-7-13(12)16)9-11-5-3-2-4-6-11;/h2-6,12H,7-10H2,1H3;1H",
        "InChIKey": null,
        "Canonical SMILES": "Cl.O=C(OC)C1C(=O)CCN(CC=2C=CC=CC2)C1",
        "Molecular Formula": "C<sub>14</sub>H<sub>17</sub>NO<sub>3</sub>.ClH",
        "Molecular Mass": "",
        "Melting Point": "173-174 °C (decomp)"
    }
}