{
    "cas_no": "730-40-5",
    "key_name": "4-Amino-4′-nitroazobenzene",
    "cn_name": "分散橙3;",
    "alternate_name": "Benzenamine, 4-[2-(4-nitrophenyl)diazenyl]-;C.I. Disperse Orange 3;Benzenamine, 4-[(4-nitrophenyl)azo]-;4-[2-(4-Nitrophenyl)diazenyl]benzenamine;C.I. 11005;Acetamine Orange GR;Acetate Fast Orange G;Acetate Fast Orange GR;Acetoquinone Light Orange JRL;Altocyl Orange GR;Amacel Orange GR;Artisil Direct Orange 2R;Artisil Orange 2R;Celliton Discharge Orange GRL;Celliton Fast Orange GR;Celliton Orange GR;Celliton Orange GRA;Celutate Orange GRH;Cibacete Orange 2RN;Cibacet Orange 2R;Cilla Fast Orange GR;Diacelliton Fast Orange GL;Disperse Orange GR;Dispersol Fast Orange G;Durgacet Orange GR;Eastman Orange GRN;Eastone Orange 2R;Eniacyl Orange GR;Fenacet Orange G;Interchem Acetate Orange GL;Kayalon Fast Orange GR;Microsetile Orange GR;Miketon Fast Orange GR;Nacelan Orange GR;Neosetile Orange GR;<em>p</em>-Nitro-<em>p</em>′-aminoazobenzene;Nyloquinone Orange 2R;Oracet Orange 2R;Perliton Orange 6R;Reliton Orange GR;Serilic Orange GXD;Setacyl Orange GR;Setacyl Orange RE;Silotras Orange TSGR;Supracet Fast Orange G;Vonteryl Orange GS;Disperse Orange 3;4-Amino-4′-nitroazobenzene;4′-Nitro-4-aminoazobenzene;4-Nitro-4′-aminoazobenzene;C.I. Solvent Orange 9;Disperse Orange Zh;Transetile Orange P-GR;Dispersol Orange AG;<em>p</em>-(<em>p</em>-Nitrophenylazo)aniline;Synten Orange 2R;Ostacet Orange P 2R;Atlantic Disperse Orange GRA;4-(4-Nitrophenylazo)aniline;4-[(4-Nitrophenyl)azo]benzenamine;Akasperse Orange RBA;4-(4′-Nitrophenylazo)aniline",
    "duplicated_cas_no": "",
    "SMILES": "N(=NC1=CC=C(N)C=C1)C2=CC=C(N(=O)=O)C=C2",
    "meta_data": {
        "InChI": "InChI=1S/C12H10N4O2/c13-9-1-3-10(4-2-9)14-15-11-5-7-12(8-6-11)16(17)18/h1-8H,13H2",
        "InChIKey": null,
        "Canonical SMILES": "O=N(=O)C1=CC=C(N=NC2=CC=C(N)C=C2)C=C1",
        "Molecular Formula": "C<sub>12</sub>H<sub>10</sub>N<sub>4</sub>O<sub>2</sub>",
        "Molecular Mass": "242.23",
        "Melting Point": "215 °C"
    }
}