{
    "cas_no": "591-55-9",
    "key_name": "5-Pyrimidinamine",
    "cn_name": "5-氨基嘧啶;",
    "alternate_name": "5-Pyrimidinamine;Pyrimidine, 5-amino-;5-Aminopyrimidine;5-Aminopyridine;NSC 401237;Pyrimidin-5-ylamine",
    "duplicated_cas_no": "",
    "SMILES": "NC=1C=NC=NC1",
    "meta_data": {
        "InChI": "InChI=1S/C4H5N3/c5-4-1-6-3-7-2-4/h1-3H,5H2",
        "InChIKey": null,
        "Canonical SMILES": "N=1C=NC=C(N)C1",
        "Molecular Formula": "C<sub>4</sub>H<sub>5</sub>N<sub>3</sub>",
        "Molecular Mass": "95.10",
        "Melting Point": "170-171 °C"
    }
}