{
    "cas_no": "2199-93-1",
    "key_name": "3-Acetyl-6-bromocoumarin",
    "cn_name": "3-乙酰基-6-溴香豆素;",
    "alternate_name": "2<em>H</em>-1-Benzopyran-2-one, 3-acetyl-6-bromo-;Coumarin, 3-acetyl-6-bromo-;3-Acetyl-6-bromo-2<em>H</em>-1-benzopyran-2-one;3-Acetyl-6-bromocoumarin;6-Bromo-3-acetylcoumarin;NSC 201515;3-Acetyl-6-bromo-2<em>H</em>-chromen-2-one;3-Acetyl-6-bromochromen-2-one",
    "duplicated_cas_no": "",
    "SMILES": "C(C)(=O)C1=CC=2C(OC1=O)=CC=C(Br)C2",
    "meta_data": {
        "InChI": "InChI=1S/C11H7BrO3/c1-6(13)9-5-7-4-8(12)2-3-10(7)15-11(9)14/h2-5H,1H3",
        "InChIKey": null,
        "Canonical SMILES": "O=C1OC=2C=CC(Br)=CC2C=C1C(=O)C",
        "Molecular Formula": "C<sub>11</sub>H<sub>7</sub>BrO<sub>3</sub>",
        "Molecular Mass": "267.08",
        "Melting Point": "219 °C",
        "Density": "1.70 g/cm³"
    }
}