{
    "cas_no": "630-03-5",
    "key_name": "Nonacosane",
    "cn_name": "N-二十九烷;二十九烷;",
    "alternate_name": "Nonacosane;Celidoniol, deoxy-;<em>n</em>-Nonacosane",
    "duplicated_cas_no": "",
    "SMILES": "C(CCCCCCCCCCCCCC)CCCCCCCCCCCCCC",
    "meta_data": {
        "InChI": "InChI=1S/C29H60/c1-3-5-7-9-11-13-15-17-19-21-23-25-27-29-28-26-24-22-20-18-16-14-12-10-8-6-4-2/h3-29H2,1-2H3",
        "InChIKey": null,
        "Canonical SMILES": "CCCCCCCCCCCCCCCCCCCCCCCCCCCCC",
        "Molecular Formula": "C<sub>29</sub>H<sub>60</sub>",
        "Molecular Mass": "408.79",
        "Boiling Point": "440.8 °C",
        "Melting Point": "63.7 °C"
    }
}