{
    "cas_no": "57653-26-6",
    "key_name": "Fenobam",
    "cn_name": null,
    "alternate_name": "Urea, <em>N</em>-(3-chlorophenyl)-<em>N</em>′-(4,5-dihydro-1-methyl-4-oxo-1<em>H</em>-imidazol-2-yl)-;<em>N</em>-(3-Chlorophenyl)-<em>N</em>′-(4,5-dihydro-1-methyl-4-oxo-1<em>H</em>-imidazol-2-yl)urea;Fenobam;1-(3-Chlorophenyl)-3-(1-methyl-4-oxo-4,5-dihydro-1<em>H</em>-imidazol-2-yl)urea",
    "duplicated_cas_no": "",
    "SMILES": "N(C(NC1=CC(Cl)=CC=C1)=O)C2=NC(=O)CN2C",
    "meta_data": {
        "InChI": "InChI=1S/C11H11ClN4O2/c1-16-6-9(17)14-10(16)15-11(18)13-8-4-2-3-7(12)5-8/h2-5H,6H2,1H3,(H2,13,14,15,17,18)",
        "InChIKey": null,
        "Canonical SMILES": "O=C1N=C(NC(=O)NC=2C=CC=C(Cl)C2)N(C)C1",
        "Molecular Formula": "C<sub>11</sub>H<sub>11</sub>ClN<sub>4</sub>O<sub>2</sub>",
        "Molecular Mass": "266.68",
        "Melting Point": "180-180.5 °C"
    }
}