{
    "cas_no": "90038-01-0",
    "key_name": "Detomidine hydrochloride",
    "cn_name": null,
    "alternate_name": "1<em>H</em>-Imidazole, 5-[(2,3-dimethylphenyl)methyl]-, hydrochloride (1:1);1<em>H</em>-Imidazole, 4-[(2,3-dimethylphenyl)methyl]-, monohydrochloride;Detomidine hydrochloride;Domosedan;Dormosedan;MPV 253AII",
    "duplicated_cas_no": "",
    "SMILES": "C(C1=C(C)C(C)=CC=C1)C2=CN=CN2.Cl",
    "meta_data": {
        "InChI": "InChI=1S/C12H14N2.ClH/c1-9-4-3-5-11(10(9)2)6-12-7-13-8-14-12;/h3-5,7-8H,6H2,1-2H3,(H,13,14);1H",
        "InChIKey": null,
        "Canonical SMILES": "Cl.N1=CNC(=C1)CC=2C=CC=C(C2C)C",
        "Molecular Formula": "C<sub>12</sub>H<sub>14</sub>N<sub>2</sub>.ClH",
        "Molecular Mass": "",
        "Melting Point": "160 °C"
    }
}