{
    "cas_no": "6306-24-7",
    "key_name": "4-(Aminosulfonyl)benzamide",
    "cn_name": null,
    "alternate_name": "Benzamide, 4-(aminosulfonyl)-;Benzamide, <em>p</em>-sulfamoyl-;4-(Aminosulfonyl)benzamide;<em>p</em>-Carboxybenzenesulfonic acid diamide;4-Carbamoylbenzenesulfonamide;<em>p</em>-Sulfamoylbenzamide;4-(Aminocarbonyl)benzenesulfonamide;NSC 22973",
    "duplicated_cas_no": "",
    "SMILES": "S(N)(=O)(=O)C1=CC=C(C(N)=O)C=C1",
    "meta_data": {
        "InChI": "InChI=1S/C7H8N2O3S/c8-7(10)5-1-3-6(4-2-5)13(9,11)12/h1-4H,(H2,8,10)(H2,9,11,12)",
        "InChIKey": null,
        "Canonical SMILES": "O=C(N)C1=CC=C(C=C1)S(=O)(=O)N",
        "Molecular Formula": "C<sub>7</sub>H<sub>8</sub>N<sub>2</sub>O<sub>3</sub>S",
        "Molecular Mass": "200.21",
        "Melting Point": "238 °C"
    }
}