{
    "cas_no": "612-20-4",
    "key_name": "2-(Hydroxymethyl)benzoic acid",
    "cn_name": null,
    "alternate_name": "Benzoic acid, 2-(hydroxymethyl)-;<em>o</em>-Toluic acid, α-hydroxy-;2-(Hydroxymethyl)benzoic acid;α-Hydroxy-<em>o</em>-toluic acid;<em>o</em>-Carboxybenzyl alcohol;2-Carboxybenzyl alcohol;NSC 30638;<em>o</em>-(Hydroxymethyl)benzoic acid",
    "duplicated_cas_no": "",
    "SMILES": "C(O)C1=C(C(O)=O)C=CC=C1",
    "meta_data": {
        "InChI": "InChI=1S/C8H8O3/c9-5-6-3-1-2-4-7(6)8(10)11/h1-4,9H,5H2,(H,10,11)",
        "InChIKey": null,
        "Canonical SMILES": "O=C(O)C=1C=CC=CC1CO",
        "Molecular Formula": "C<sub>8</sub>H<sub>8</sub>O<sub>3</sub>",
        "Molecular Mass": "152.15",
        "Melting Point": "139.5-140.5 °C"
    }
}