{
    "cas_no": "3320-83-0",
    "key_name": "2-Chlorophenyl isocyanate",
    "cn_name": "邻氯苯异氰酸酯;",
    "alternate_name": "Benzene, 1-chloro-2-isocyanato-;Isocyanic acid, <em>o</em>-chlorophenyl ester;Isoacyanic acid, <em>o</em>-chlorophenyl ester;1-Chloro-2-isocyanatobenzene;<em>o</em>-Chlorophenyl isocyanate;2-Chlorophenyl isocyanate;NSC 8761;2-Chlorobenzene isocyanate",
    "duplicated_cas_no": "",
    "SMILES": "N(=C=O)C1=C(Cl)C=CC=C1",
    "meta_data": {
        "InChI": "InChI=1S/C7H4ClNO/c8-6-3-1-2-4-7(6)9-5-10/h1-4H",
        "InChIKey": null,
        "Canonical SMILES": "O=C=NC=1C=CC=CC1Cl",
        "Molecular Formula": "C<sub>7</sub>H<sub>4</sub>ClNO",
        "Molecular Mass": "153.57",
        "Boiling Point": "200 °C",
        "Melting Point": "30.5 °C"
    }
}