{
    "cas_no": "613-89-8",
    "key_name": "2-Aminoacetophenone",
    "cn_name": "2-氨基苯乙酮;",
    "alternate_name": "Ethanone, 2-amino-1-phenyl-;Acetophenone, 2-amino-;Acetophenone, α-amino-;2-Amino-1-phenylethanone;Phenacylamine;ω-Aminoacetophenone;2-Aminoacetophenone;α-Aminoacetophenone;α-Demethylcathinone;2-Oxophenethylamine;1-Phenyl-2-aminoethanone;(2-Oxo-2-phenylethyl)amine;2-Oxo-2-phenylethanamine;Irgacure 36P;IHT 389;2-Amino-1-phenylethan-1-one;Benzoylethanamine;Omnirad 930",
    "duplicated_cas_no": "",
    "SMILES": "C(CN)(=O)C1=CC=CC=C1",
    "meta_data": {
        "InChI": "InChI=1S/C8H9NO/c9-6-8(10)7-4-2-1-3-5-7/h1-5H,6,9H2",
        "InChIKey": null,
        "Canonical SMILES": "O=C(C=1C=CC=CC1)CN",
        "Molecular Formula": "C<sub>8</sub>H<sub>9</sub>NO",
        "Molecular Mass": "135.16",
        "Boiling Point": "251 °C",
        "Melting Point": "20 °C"
    }
}