{
    "cas_no": "85-34-7",
    "key_name": "Chlorfenac",
    "cn_name": "伐草克;",
    "alternate_name": "Benzeneacetic acid, 2,3,6-trichloro-;Acetic acid, (2,3,6-trichlorophenyl)-;2,3,6-Trichlorobenzeneacetic acid;Fenac;TCPA;2,3,6-Trichlorophenylacetic acid;Fenatrol;Chlorfenac;NSC 41931;2-(2,3,6-Trichlorophenyl)acetic acid",
    "duplicated_cas_no": "",
    "SMILES": "C(C(O)=O)C1=C(Cl)C(Cl)=CC=C1Cl",
    "meta_data": {
        "InChI": "InChI=1S/C8H5Cl3O2/c9-5-1-2-6(10)8(11)4(5)3-7(12)13/h1-2H,3H2,(H,12,13)",
        "InChIKey": null,
        "Canonical SMILES": "O=C(O)CC=1C(Cl)=CC=C(Cl)C1Cl",
        "Molecular Formula": "C<sub>8</sub>H<sub>5</sub>Cl<sub>3</sub>O<sub>2</sub>",
        "Molecular Mass": "239.48",
        "Melting Point": "161 °C"
    }
}