{
    "cas_no": "501945-71-7",
    "key_name": "2-(Benzo[<em>b</em>]thiophen-5-yl)-4,4,5,5-tetramethyl-[1,3,2]dioxaborolane",
    "cn_name": null,
    "alternate_name": "Benzo[<em>b</em>]thiophene, 5-(4,4,5,5-tetramethyl-1,3,2-dioxaborolan-2-yl)-;5-(4,4,5,5-Tetramethyl-1,3,2-dioxaborolan-2-yl)benzo[<em>b</em>]thiophene;2-[Benzothiophen-5-yl]-4,4,5,5-tetramethyl-1,3,2-dioxaborolane;2-(Benzo[<em>b</em>]thiophen-5-yl)-4,4,5,5-tetramethyl-[1,3,2]dioxaborolane;2-(Benzo[<em>b</em>]thien-5-yl)-4,4,5,5-tetramethyl-1,3,2-dioxaborolane;5-(4,4,5,5-Tetramethyl-1,3,2-dioxaborolan-2-yl)benzothiophene;2-(1-Benzothiophen-5-yl)-4,4,5,5-tetramethyl-1,3,2-dioxaborolane",
    "duplicated_cas_no": "",
    "SMILES": "CC1(C)OB(OC1(C)C)C=2C=C3C(=CC2)SC=C3",
    "meta_data": {
        "InChI": "InChI=1S/C14H17BO2S/c1-13(2)14(3,4)17-15(16-13)11-5-6-12-10(9-11)7-8-18-12/h5-9H,1-4H3",
        "InChIKey": null,
        "Canonical SMILES": "O1B(OC(C)(C)C1(C)C)C=2C=CC=3SC=CC3C2",
        "Molecular Formula": "C<sub>14</sub>H<sub>17</sub>BO<sub>2</sub>S",
        "Molecular Mass": "260.16",
        "Melting Point": "73-75 °C"
    }
}