{
    "cas_no": "4080-95-9",
    "key_name": "Azelaic dihydrazide",
    "cn_name": "壬二酸二酰肼;",
    "alternate_name": "Nonanedioic acid, 1,9-dihydrazide;Azelaic acid, dihydrazide;Nonanedioic acid, dihydrazide;Azelaic dihydrazide;NSC 23708;Azelaohydrazide;Nonanedioic dihydrazide",
    "duplicated_cas_no": "",
    "SMILES": "C(CCCCCCCC(NN)=O)(NN)=O",
    "meta_data": {
        "InChI": "InChI=1S/C9H20N4O2/c10-12-8(14)6-4-2-1-3-5-7-9(15)13-11/h1-7,10-11H2,(H,12,14)(H,13,15)",
        "InChIKey": null,
        "Canonical SMILES": "O=C(NN)CCCCCCCC(=O)NN",
        "Molecular Formula": "C<sub>9</sub>H<sub>20</sub>N<sub>4</sub>O<sub>2</sub>",
        "Molecular Mass": "216.28",
        "Melting Point": "177 °C"
    }
}