{
    "cas_no": "20582-55-2",
    "key_name": "5-Thiazolecarboxylic acid, 4-methyl-, ethyl ester",
    "cn_name": "4-甲基噻唑-5-甲酸乙酯;4-甲基-5-乙氧羰基噻唑;",
    "alternate_name": "5-Thiazolecarboxylic acid, 4-methyl-, ethyl ester;Ethyl 4-methylthiazole-5-carboxylate;4-Methylthiazole-5-carboxylic acid ethyl ester;4-Methyl-5-(ethoxycarbonyl)thiazole;NSC 170824;Ethyl 4-methyl-1,3-thiazole-5-carboxylate",
    "duplicated_cas_no": "",
    "SMILES": "C(OCC)(=O)C1=C(C)N=CS1",
    "meta_data": {
        "InChI": "InChI=1S/C7H9NO2S/c1-3-10-7(9)6-5(2)8-4-11-6/h4H,3H2,1-2H3",
        "InChIKey": null,
        "Canonical SMILES": "O=C(OCC)C=1SC=NC1C",
        "Molecular Formula": "C<sub>7</sub>H<sub>9</sub>NO<sub>2</sub>S",
        "Molecular Mass": "171.22",
        "Boiling Point": "230-236 °C",
        "Melting Point": "27-28 °C"
    }
}