{
    "cas_no": "63-05-8",
    "key_name": "Androstenedione",
    "cn_name": "雄烯二酮;",
    "alternate_name": "Androst-4-ene-3,17-dione;Androstenedione;SKF 2170;3,17-Dioxoandrost-4-ene;17-Ketotestosterone;Fecundin;Δ<sup>4</sup>-Androstene-3,17-dione;NSC 9563;4-Androstene-3,17-dione",
    "duplicated_cas_no": "40786-82-1;104534-78-3;117598-81-9;846024-35-9;1050678-87-9;2602564-74-7",
    "SMILES": "C[C@@]12[C@@]3([C@]([C@]4([C@](C)(CC3)C(=O)CC4)[H])(CCC1=CC(=O)CC2)[H])[H]",
    "meta_data": {
        "InChI": "InChI=1S/C19H26O2/c1-18-9-7-13(20)11-12(18)3-4-14-15-5-6-17(21)19(15,2)10-8-16(14)18/h11,14-16H,3-10H2,1-2H3/t14-,15-,16-,18-,19-/m0/s1",
        "InChIKey": null,
        "Canonical SMILES": "O=C1C=C2CCC3C4CCC(=O)C4(C)CCC3C2(C)CC1",
        "Molecular Formula": "C<sub>19</sub>H<sub>26</sub>O<sub>2</sub>",
        "Molecular Mass": "286.41",
        "Melting Point": "158 °C"
    }
}