{
    "cas_no": "6830-82-6",
    "key_name": "<em>N</em>-Methyl-2-phenylacetamide",
    "cn_name": "N-甲基-2-苯乙胺;",
    "alternate_name": "Benzeneacetamide, <em>N</em>-methyl-;Acetamide, <em>N</em>-methyl-2-phenyl-;<em>N</em>-Methylbenzeneacetamide;<em>N</em>-Methylphenylacetamide;<em>N</em>-Methyl-2-phenylacetamide;NSC 54118",
    "duplicated_cas_no": "",
    "SMILES": "C(C(NC)=O)C1=CC=CC=C1",
    "meta_data": {
        "InChI": "InChI=1S/C9H11NO/c1-10-9(11)7-8-5-3-2-4-6-8/h2-6H,7H2,1H3,(H,10,11)",
        "InChIKey": null,
        "Canonical SMILES": "O=C(NC)CC=1C=CC=CC1",
        "Molecular Formula": "C<sub>9</sub>H<sub>11</sub>NO",
        "Molecular Mass": "149.19",
        "Boiling Point": "165-168 °C @ Press: 11 Torr",
        "Melting Point": "56-57 °C"
    }
}