{
    "cas_no": "51-56-9",
    "key_name": "Homatropine hydrobromide",
    "cn_name": "氢溴酸后马托品;后马托品氢溴酸盐;8-甲基-8-氮杂双环[3.2.1]辛-3-醇alpha-羟基苯乙酸酯氢溴酸盐;",
    "alternate_name": "Benzeneacetic acid, α-hydroxy-, (3-<em>endo</em>)-8-methyl-8-azabicyclo[3.2.1]oct-3-yl ester, hydrobromide (1:1);1α<span class=\"text-smallcaps\">H</smallcap>,5α<smallcap>H</span>-Tropan-3α-ol, mandelate (ester), hydrobromide;Benzeneacetic acid, α-hydroxy-, 8-methyl-8-azabicyclo[3.2.1]oct-3-yl ester, hydrobromide, <em>endo</em>-;Benzeneacetic acid, α-hydroxy-, (3-<em>endo</em>)-8-methyl-8-azabicyclo[3.2.1]oct-3-yl ester, hydrobromide;Homatropine hydrobromide;Mandelic acid tropine ester hydrobromide;(±)-Homatropine bromide;Homatropine bromide;Isopto Homatropine",
    "duplicated_cas_no": "",
    "SMILES": "O(C(C(O)C1=CC=CC=C1)=O)[C@H]2C[C@@]3(N(C)[C@](C2)(CC3)[H])[H].Br",
    "meta_data": {
        "InChI": "InChI=1/C16H21NO3.BrH/c1-17-12-7-8-13(17)10-14(9-12)20-16(19)15(18)11-5-3-2-4-6-11;/h2-6,12-15,18H,7-10H2,1H3;1H/t12-,13+,14+,15?;",
        "InChIKey": null,
        "Canonical SMILES": "Br.O=C(OC1CC2N(C)C(CC2)C1)C(O)C=3C=CC=CC3",
        "Molecular Formula": "C<sub>16</sub>H<sub>21</sub>NO<sub>3</sub>.BrH",
        "Molecular Mass": "",
        "Melting Point": "250 °C (decomp)"
    }
}