{
    "cas_no": "78415-72-2",
    "key_name": "Milrinone",
    "cn_name": "米力农;2-甲基-6-氧-1,6-二氢-[3,4\"双吡啶]-5-甲腈;",
    "alternate_name": "[3,4′-Bipyridine]-5-carbonitrile, 1,6-dihydro-2-methyl-6-oxo-;1,6-Dihydro-2-methyl-6-oxo[3,4′-bipyridine]-5-carbonitrile;Win 47203;Milrinone;Corotrope;Primacor IV;Corotrop;Milrila;Primacor;2-Hydroxy-6-methyl-5-(pyridin-4-yl)pyridine-3-carbonitrile;MeSH ID: D020105",
    "duplicated_cas_no": "",
    "SMILES": "CC1=C(C=C(C#N)C(=O)N1)C=2C=CN=CC2",
    "meta_data": {
        "InChI": "InChI=1S/C12H9N3O/c1-8-11(9-2-4-14-5-3-9)6-10(7-13)12(16)15-8/h2-6H,1H3,(H,15,16)",
        "InChIKey": null,
        "Canonical SMILES": "N#CC1=CC(C=2C=CN=CC2)=C(NC1=O)C",
        "Molecular Formula": "C<sub>12</sub>H<sub>9</sub>N<sub>3</sub>O",
        "Molecular Mass": "211.22",
        "Melting Point": "&gt;300 °C"
    }
}