{
    "cas_no": "29096-64-8",
    "key_name": "3-Acetylimidazo[1,2-<em>a</em>]pyridine",
    "cn_name": null,
    "alternate_name": "Ethanone, 1-imidazo[1,2-<em>a</em>]pyridin-3-yl-;Ketone, imidazo[1,2-<em>a</em>]pyridin-3-yl methyl;Imidazo[1,2-<em>a</em>]pyridine, ethanone deriv.;1-Imidazo[1,2-<em>a</em>]pyridin-3-ylethanone;3-Acetylimidazo[1,2-<em>a</em>]pyridine;1-(Imidazo[1,2-<em>a</em>]pyridin-3-yl)ethanone;1-[Imidazo[1,2-<em>a</em>]pyridin-3-yl]ethan-1-one",
    "duplicated_cas_no": "",
    "SMILES": "C(C)(=O)C=1N2C(=NC1)C=CC=C2",
    "meta_data": {
        "InChI": "InChI=1S/C9H8N2O/c1-7(12)8-6-10-9-4-2-3-5-11(8)9/h2-6H,1H3",
        "InChIKey": null,
        "Canonical SMILES": "O=C(C1=CN=C2C=CC=CN21)C",
        "Molecular Formula": "C<sub>9</sub>H<sub>8</sub>N<sub>2</sub>O",
        "Molecular Mass": "160.17",
        "Melting Point": "98-99 °C"
    }
}