{
    "cas_no": "2966-50-9",
    "key_name": "Silver trifluoroacetate",
    "cn_name": "三氟乙酸银;",
    "alternate_name": "Acetic acid, 2,2,2-trifluoro-, silver(1+) salt (1:1);Acetic acid, trifluoro-, silver(1+) salt;Silver mono(trifluoroacetate);Silver(1+) trifluoroacetate;Silver trifluoroacetate;Trifluoroacetic acid silver(1+) salt;Silver(I) trifluoroacetate;Silver perfluoroacetate;Trifluorooacetic acid, silver salt (1:1);Silver(1+) 2,2,2-trifluoroacetate",
    "duplicated_cas_no": "380240-19-7;1964452-54-7;2446500-25-8",
    "SMILES": "C(C(O)=O)(F)(F)F.[Ag]",
    "meta_data": {
        "InChI": "InChI=1S/C2HF3O2.Ag/c3-2(4,5)1(6)7;/h(H,6,7);",
        "InChIKey": null,
        "Canonical SMILES": "[Ag].O=C(O)C(F)(F)F",
        "Molecular Formula": "C<sub>2</sub>HF<sub>3</sub>O<sub>2</sub>.Ag",
        "Molecular Mass": "",
        "Melting Point": "251-253 °C (decomp)"
    }
}