{
    "cas_no": "2463-84-5",
    "key_name": "Dicapthon",
    "cn_name": "异氯磷;O-(2-氯-4-硝基苯基)-O,O-二甲基硫化磷酸酯;",
    "alternate_name": "Phosphorothioic acid, <em>O</em>-(2-chloro-4-nitrophenyl) <em>O</em>,<em>O</em>-dimethyl ester;OMS 214;ENT 17,035;American Cyanamid 4124;<em>O</em>-(2-Chloro-4-nitrophenyl) <em>O</em>,<em>O</em>-dimethyl phosphorothioate;Di-Captan;Dicapthon;<em>O</em>,<em>O</em>-Dimethyl <em>O</em>-2-chloro-4-nitrophenyl phosphorothioate;Experimental Insecticide 4124;Isochlorthion;<em>p</em>-Nitro-<em>o</em>-chlorophenyl dimethyl thionophosphate;BAY 14981;ENT 17035;Dicapthion;Insecticide ACC 4124",
    "duplicated_cas_no": "",
    "SMILES": "O(P(OC)(OC)=S)C1=C(Cl)C=C(N(=O)=O)C=C1",
    "meta_data": {
        "InChI": "InChI=1S/C8H9ClNO5PS/c1-13-16(17,14-2)15-8-4-3-6(10(11)12)5-7(8)9/h3-5H,1-2H3",
        "InChIKey": null,
        "Canonical SMILES": "O=N(=O)C1=CC=C(OP(=S)(OC)OC)C(Cl)=C1",
        "Molecular Formula": "C<sub>8</sub>H<sub>9</sub>ClNO<sub>5</sub>PS",
        "Molecular Mass": "297.65",
        "Melting Point": "53 °C"
    }
}