{
    "cas_no": "121032-29-9",
    "key_name": "Nelarabine",
    "cn_name": "奈拉滨;",
    "alternate_name": "9<em>H</em>-Purin-2-amine, 9-β-<span class=\"text-smallcaps\">D</span>-arabinofuranosyl-6-methoxy-;9-β-<span class=\"text-smallcaps\">D</span>-Arabinofuranosyl-6-methoxy-9<em>H</em>-purin-2-amine;506u;Nelzarabine;MAY;GW 506U78;Nelarabine;Arranon;Atriance",
    "duplicated_cas_no": "",
    "SMILES": "O[C@@H]1[C@H](N2C=3C(N=C2)=C(OC)N=C(N)N3)O[C@H](CO)[C@H]1O",
    "meta_data": {
        "InChI": "InChI=1S/C11H15N5O5/c1-20-9-5-8(14-11(12)15-9)16(3-13-5)10-7(19)6(18)4(2-17)21-10/h3-4,6-7,10,17-19H,2H2,1H3,(H2,12,14,15)/t4-,6-,7+,10-/m1/s1",
        "InChIKey": null,
        "Canonical SMILES": "OCC1OC(N2C=NC=3C(=NC(=NC32)N)OC)C(O)C1O",
        "Molecular Formula": "C<sub>11</sub>H<sub>15</sub>N<sub>5</sub>O<sub>5</sub>",
        "Molecular Mass": "297.27",
        "Melting Point": "208-210 °C"
    }
}