{
    "cas_no": "27638-00-2",
    "key_name": "Glyceryl dilaurate",
    "cn_name": null,
    "alternate_name": "Dodecanoic acid, diester with 1,2,3-propanetriol;Laurin, di-;Dilaurin;Glycerol dilaurate;Didodecanoyl glyceride;Glycerine dilaurate;Dilauroyl glyceride;Glyceryl dilaurate;Emulsynt GDL;Lexemul GDL;Glycerin dilaurate",
    "duplicated_cas_no": "40431-02-5;1202864-51-4",
    "SMILES": "",
    "meta_data": {
        "InChI": "",
        "InChIKey": null,
        "Canonical SMILES": "",
        "Molecular Formula": "C<sub>27</sub>H<sub>52</sub>O<sub>5</sub>",
        "Molecular Mass": "",
        "Melting Point": "57.8 °C",
        "Density": "0.9530 g/cm³ @ Temp: 50 °C"
    }
}