{
    "cas_no": "16491-36-4",
    "key_name": "<em>cis</em>-3-Hexenyl butanoate",
    "cn_name": "(Z)-丁酸-3-己烯酯;",
    "alternate_name": "Butanoic acid, (3<em>Z</em>)-3-hexen-1-yl ester;Butyric acid, 3-hexenyl ester, (<em>Z</em>)-;Butanoic acid, 3-hexenyl ester, (<em>Z</em>)-;Butanoic acid, (3<em>Z</em>)-3-hexenyl ester;<em>cis</em>-3-Hexenyl butyrate;<em>cis</em>-3-Hexenyl butanoate;<em>cis</em>-Hex-3-en-1-yl butyrate;(<em>Z</em>)-3-Hexen-1-yl butyrate;(<em>Z</em>)-3-Hexenyl butanoate;(<em>Z</em>)-3-Hexenyl butyrate;(<em>Z</em>)-3-Hexen-1-ol butanoate;(3<em>Z</em>)-Hexenyl butyrate;(3<em>Z</em>)-Hexenyl butanoate;Pipol Butyrate",
    "duplicated_cas_no": "",
    "SMILES": "C(OCC/C=C\\CC)(CCC)=O",
    "meta_data": {
        "InChI": "InChI=1S/C10H18O2/c1-3-5-6-7-9-12-10(11)8-4-2/h5-6H,3-4,7-9H2,1-2H3/b6-5-",
        "InChIKey": null,
        "Canonical SMILES": "O=C(OCCC=CCC)CCC",
        "Molecular Formula": "C<sub>10</sub>H<sub>18</sub>O<sub>2</sub>",
        "Molecular Mass": "170.25",
        "Boiling Point": "96 °C @ Press: 20 Torr"
    }
}