{
    "cas_no": "144-24-1",
    "key_name": "α-Methyl-<span class=\"text-smallcaps\">DL</span>-leucine",
    "cn_name": "DL-α-甲基亮氨酸;",
    "alternate_name": "Leucine, 2-methyl-;Leucine, 2-methyl-, <span class=\"text-smallcaps\">DL</span>-;<span class=\"text-smallcaps\">DL</span>-Leucine, 2-methyl-;2-Methylleucine;(±)-2,4-Dimethylnorvaline;2-Methyl-<span class=\"text-smallcaps\">DL</span>-leucine;α-Methyl-<span class=\"text-smallcaps\">DL</span>-leucine;<span class=\"text-smallcaps\">DL</span>-2-Methylleucine;Norvaline, 2,4-dimethyl-;α-Methylleucine;2-Amino-2,4-dimethylvaleric acid;NSC 16592;2-Amino-2,4-dimethyl-pentanoic acid;2-Amino-2,4-dimethylpentanoic acid",
    "duplicated_cas_no": "5632-91-7",
    "SMILES": "C(CC(C)C)(C(O)=O)(C)N",
    "meta_data": {
        "InChI": "InChI=1S/C7H15NO2/c1-5(2)4-7(3,8)6(9)10/h5H,4,8H2,1-3H3,(H,9,10)",
        "InChIKey": null,
        "Canonical SMILES": "O=C(O)C(N)(C)CC(C)C",
        "Molecular Formula": "C<sub>7</sub>H<sub>15</sub>NO<sub>2</sub>",
        "Molecular Mass": "145.20",
        "Melting Point": "&gt;203 °C (sublm)"
    }
}