{
    "cas_no": "40004-08-8",
    "key_name": "1-(Ethoxycarbonylmethyl)piperazine",
    "cn_name": "1-(乙氧基羰甲基)哌嗪;N-(碳乙氧甲基)哌嗪;Ethyl 1-piperazineacetate;",
    "alternate_name": "1-Piperazineacetic acid, ethyl ester;1-(Ethoxycarbonylmethyl)piperazine;Ethyl 1-piperazinylacetate;Ethyl 1-piperazineacetate;<em>N</em>-(Ethoxycarbonylmethyl)piperazine;4-(Carboethoxymethyl)piperazine;<em>N</em>-(Carboethoxymethyl)piperazine;Piperazin-1-ylacetic acid ethyl ester;2-(Piperazin-1-yl)acetic acid ethyl ester;Ethyl piperazinoacetate;Ethyl 2-piperazinoacetate;Ethyl 2-(piperazin-1-yl)acetate",
    "duplicated_cas_no": "",
    "SMILES": "C(C(OCC)=O)N1CCNCC1",
    "meta_data": {
        "InChI": "InChI=1S/C8H16N2O2/c1-2-12-8(11)7-10-5-3-9-4-6-10/h9H,2-7H2,1H3",
        "InChIKey": null,
        "Canonical SMILES": "O=C(OCC)CN1CCNCC1",
        "Molecular Formula": "C<sub>8</sub>H<sub>16</sub>N<sub>2</sub>O<sub>2</sub>",
        "Molecular Mass": "172.22",
        "Boiling Point": "153-159 °C"
    }
}