{
    "cas_no": "23165-44-8",
    "key_name": "1-Butyl-4-isothiocyanatobenzene",
    "cn_name": "4-正丁基苯酚硫代异氰酸酯;",
    "alternate_name": "Benzene, 1-butyl-4-isothiocyanato-;Isothiocyanic acid, <em>p</em>-butylphenyl ester;1-Butyl-4-isothiocyanatobenzene;4-Butylphenyl isothiocyanate;4-<em>n</em>-Butylphenyl isothiocyanate",
    "duplicated_cas_no": "",
    "SMILES": "C(CCC)C1=CC=C(N=C=S)C=C1",
    "meta_data": {
        "InChI": "InChI=1S/C11H13NS/c1-2-3-4-10-5-7-11(8-6-10)12-9-13/h5-8H,2-4H2,1H3",
        "InChIKey": null,
        "Canonical SMILES": "S=C=NC1=CC=C(C=C1)CCCC",
        "Molecular Formula": "C<sub>11</sub>H<sub>13</sub>NS",
        "Molecular Mass": "191.29",
        "Boiling Point": "165-168 °C @ Press: 17 Torr"
    }
}