{
    "cas_no": "451-82-1",
    "key_name": "(2-Fluorophenyl)acetic acid",
    "cn_name": "2-氟苯乙酸;邻氟苯乙酸;",
    "alternate_name": "Benzeneacetic acid, 2-fluoro-;Acetic acid, (<em>o</em>-fluorophenyl)-;2-Fluorobenzeneacetic acid;(<em>o</em>-Fluorophenyl)acetic acid;(2-Fluorophenyl)acetic acid;NSC 401;2-(2-Fluorophenyl)ethanoic acid hydrochloride;<em>o</em>-Fluorobenzeneacetic acid;2-(2-Fluorophenyl)acetic acid",
    "duplicated_cas_no": "",
    "SMILES": "C(C(O)=O)C1=C(F)C=CC=C1",
    "meta_data": {
        "InChI": "InChI=1S/C8H7FO2/c9-7-4-2-1-3-6(7)5-8(10)11/h1-4H,5H2,(H,10,11)",
        "InChIKey": null,
        "Canonical SMILES": "O=C(O)CC=1C=CC=CC1F",
        "Molecular Formula": "C<sub>8</sub>H<sub>7</sub>FO<sub>2</sub>",
        "Molecular Mass": "154.14",
        "Melting Point": "63 °C"
    }
}