{
    "cas_no": "2896-67-5",
    "key_name": "2-Methoxy-6-methylphenol",
    "cn_name": "2-甲氧基-6-甲基苯酚;2-羟基-3-甲氧基甲苯;",
    "alternate_name": "Phenol, 2-methoxy-6-methyl-;<em>o</em>-Cresol, 6-methoxy-;Guaiacol, 6-methyl-;2-Methoxy-6-methylphenol;2-Hydroxy-3-methoxytoluene;6-Methylguaiacol;6-Methoxy-<em>o</em>-cresol;NSC 7374;2-Methyl-6-methoxyphenol",
    "duplicated_cas_no": "",
    "SMILES": "O(C)C1=C(O)C(C)=CC=C1",
    "meta_data": {
        "InChI": "InChI=1S/C8H10O2/c1-6-4-3-5-7(10-2)8(6)9/h3-5,9H,1-2H3",
        "InChIKey": null,
        "Canonical SMILES": "OC=1C(OC)=CC=CC1C",
        "Molecular Formula": "C<sub>8</sub>H<sub>10</sub>O<sub>2</sub>",
        "Molecular Mass": "138.16",
        "Boiling Point": "164-165 °C @ Press: 20 Torr",
        "Melting Point": "41-42 °C"
    }
}