{
    "cas_no": "26644-46-2",
    "key_name": "Triforine",
    "cn_name": null,
    "alternate_name": "Formamide, <em>N</em>,<em>N</em>′-[1,4-piperazinediylbis(2,2,2-trichloroethylidene)]bis-;<em>N</em>,<em>N</em>′-[1,4-Piperazinediylbis(2,2,2-trichloroethylidene)]bis[formamide];<em>N</em>,<em>N</em>′-Bis(1-formamido-2,2,2-trichloroethyl)piperazine;Triforine;CELA-W 524;1,4-Bis(1-formamido-2,2,2-trichloroethyl)piperazine;Triforin;W 524;Funginex;Saprol;Biformylchlorazin;CA 70203;CELA 50;Asepta Funginex;NSC 263493",
    "duplicated_cas_no": "36660-66-9;37273-84-0;1135442-61-3",
    "SMILES": "C(C(Cl)(Cl)Cl)(NC=O)N1CCN(C(C(Cl)(Cl)Cl)NC=O)CC1",
    "meta_data": {
        "InChI": "InChI=1S/C10H14Cl6N4O2/c11-9(12,13)7(17-5-21)19-1-2-20(4-3-19)8(18-6-22)10(14,15)16/h5-8H,1-4H2,(H,17,21)(H,18,22)",
        "InChIKey": null,
        "Canonical SMILES": "O=CNC(N1CCN(CC1)C(NC=O)C(Cl)(Cl)Cl)C(Cl)(Cl)Cl",
        "Molecular Formula": "C<sub>10</sub>H<sub>14</sub>Cl<sub>6</sub>N<sub>4</sub>O<sub>2</sub>",
        "Molecular Mass": "434.96",
        "Melting Point": "155 °C (decomp)",
        "Density": "1.554 g/cm³ @ Temp: 20 °C"
    }
}