{
    "cas_no": "36404-90-7",
    "key_name": "2-Fluoro-3-pyridinecarboxaldehyde",
    "cn_name": null,
    "alternate_name": "3-Pyridinecarboxaldehyde, 2-fluoro-;2-Fluoro-3-pyridinecarboxaldehyde;2-Fluoropyridine-3-carboxaldehyde;2-Fluoro-3-formylpyridine;2-Fluoronicotinaldehyde;2-Fluoropyridine-3-carbaldehyde",
    "duplicated_cas_no": "",
    "SMILES": "C(=O)C1=C(F)N=CC=C1",
    "meta_data": {
        "InChI": "InChI=1S/C6H4FNO/c7-6-5(4-9)2-1-3-8-6/h1-4H",
        "InChIKey": null,
        "Canonical SMILES": "O=CC1=CC=CN=C1F",
        "Molecular Formula": "C<sub>6</sub>H<sub>4</sub>FNO",
        "Molecular Mass": "125.10",
        "Boiling Point": "50 °C @ Press: 3 Torr"
    }
}