{
    "cas_no": "101-84-8",
    "key_name": "Diphenyl ether",
    "cn_name": "苯基醚;联苯醚;二苯醚;",
    "alternate_name": "Benzene, 1,1′-oxybis-;Phenyl ether;1,1′-Oxybis[benzene];Benzene, phenoxy-;Biphenyl oxide;Diphenyl ether;Diphenyl oxide;Phenoxybenzene;Phenyl oxide;Chemcryl JK-EB;Oxybisbenzene;NSC 19311;Barrel Therm 330",
    "duplicated_cas_no": "",
    "SMILES": "O(C1=CC=CC=C1)C2=CC=CC=C2",
    "meta_data": {
        "InChI": "InChI=1S/C12H10O/c1-3-7-11(8-4-1)13-12-9-5-2-6-10-12/h1-10H",
        "InChIKey": null,
        "Canonical SMILES": "O(C=1C=CC=CC1)C=2C=CC=CC2",
        "Molecular Formula": "C<sub>12</sub>H<sub>10</sub>O",
        "Molecular Mass": "170.21",
        "Boiling Point": "259 °C",
        "Melting Point": "28 °C",
        "Density": "1.08 g/cm³"
    }
}