{
    "cas_no": "118994-86-8",
    "key_name": "5-Oxazolecarboxaldehyde",
    "cn_name": null,
    "alternate_name": "5-Oxazolecarboxaldehyde;5-Formyloxazole;1,3-Oxazole-5-carbaldehyde",
    "duplicated_cas_no": "",
    "SMILES": "C(=O)C1=CN=CO1",
    "meta_data": {
        "InChI": "InChI=1S/C4H3NO2/c6-2-4-1-5-3-7-4/h1-3H",
        "InChIKey": null,
        "Canonical SMILES": "O=CC=1OC=NC1",
        "Molecular Formula": "C<sub>4</sub>H<sub>3</sub>NO<sub>2</sub>",
        "Molecular Mass": "97.07",
        "Melting Point": "30-32 °C"
    }
}