{
    "cas_no": "3819-00-9",
    "key_name": "Piperacetazine",
    "cn_name": "乙酰哌普嗪;乙酰哌普嗪;",
    "alternate_name": "Ethanone, 1-[10-[3-[4-(2-hydroxyethyl)-1-piperidinyl]propyl]-10<em>H</em>-phenothiazin-2-yl]-;Ketone, 10-[3-[4-(2-hydroxyethyl)piperidino]propyl]phenothiazin-2-yl methyl;1-[10-[3-[4-(2-Hydroxyethyl)-1-piperidinyl]propyl]-10<em>H</em>-phenothiazin-2-yl]ethanone;PC 1421;2-Acetyl-10-[3-[4-(β-hydroxyethyl)piperidino]propyl]phenothiazine;10-[3-[4-(2-Hydroxyethyl)piperidino]propyl]phenothiazin-2-yl methyl ketone;Quide;Piperacetazine;Psymod;SC 9794;1-(10-[3-[4-(2-Hydroxyethyl)piperidin-1-yl]propyl]-10<em>H</em>-phenothiazin-2-yl)ethan-1-one",
    "duplicated_cas_no": "",
    "SMILES": "C(CCN1CCC(CCO)CC1)N2C=3C(SC=4C2=CC=CC4)=CC=C(C(C)=O)C3",
    "meta_data": {
        "InChI": "InChI=1S/C24H30N2O2S/c1-18(28)20-7-8-24-22(17-20)26(21-5-2-3-6-23(21)29-24)13-4-12-25-14-9-19(10-15-25)11-16-27/h2-3,5-8,17,19,27H,4,9-16H2,1H3",
        "InChIKey": null,
        "Canonical SMILES": "O=C(C1=CC=C2SC=3C=CC=CC3N(C2=C1)CCCN4CCC(CCO)CC4)C",
        "Molecular Formula": "C<sub>24</sub>H<sub>30</sub>N<sub>2</sub>O<sub>2</sub>S",
        "Molecular Mass": "410.57",
        "Melting Point": "105.2-107.6 °C"
    }
}