{
    "cas_no": "2055-46-1",
    "key_name": "Tetrahydropyrimidine-2-thione",
    "cn_name": "3,4,5,6-四氢-2-嘧啶硫醇;3,4,5,6-四氢-2-嘧啶硫醇;",
    "alternate_name": "2(1<em>H</em>)-Pyrimidinethione, tetrahydro-;Tetrahydro-2(1<em>H</em>)-pyrimidinethione;Cyclic propylene thiourea;<em>N</em>,<em>N</em>′-Trimethylenethiourea;Thiourea, <em>N</em>,<em>N</em>′-1,3-propanediyl-;Hexahydropyrimidine-2-thione;2-Mercaptotetrahydropyrimidine;1,4,5,6-Tetrahydro-2-pyrimidinethiol;3,4,5,6-Tetrahydro-2-pyrimidinethiol;Tetrahydropyrimidine-2-thione;2-Mercapto-3,4,5,6-tetrahydropyrimidine;2-Mercapto-1,4,5,6-tetrahydropyrimidine;Perhydropyrimidine-2-thione;3,4,5,6-Tetrahydro-2(1<em>H</em>)-pyrimidinethione;1,3-Diazinane-2-thione;NSC 21316;3,4,5,6-Tetrahydro-1<em>H</em>-pyrimidine-2-thione;Trimethylenethiourea;3,4,5,6-Tetrahydro-2-mercaptopyrimidine;1,3-Trimethylene-2-thiourea",
    "duplicated_cas_no": "29228-86-2;63529-34-0",
    "SMILES": "S=C1NCCCN1",
    "meta_data": {
        "InChI": "InChI=1S/C4H8N2S/c7-4-5-2-1-3-6-4/h1-3H2,(H2,5,6,7)",
        "InChIKey": null,
        "Canonical SMILES": "S=C1NCCCN1",
        "Molecular Formula": "C<sub>4</sub>H<sub>8</sub>N<sub>2</sub>S",
        "Molecular Mass": "116.18",
        "Melting Point": "210-212 °C"
    }
}