{
    "cas_no": "7778-85-0",
    "key_name": "Propylene glycol dimethyl ether",
    "cn_name": "1,2-二甲氧基丙烷;丙二醇二甲醚;",
    "alternate_name": "Propane, 1,2-dimethoxy-;1,2-Dimethoxypropane;Propylene glycol dimethyl ether;DMFDG;Hisolve MMPOM",
    "duplicated_cas_no": "1338-34-7;76900-31-7",
    "SMILES": "C(COC)(OC)C",
    "meta_data": {
        "InChI": "InChI=1S/C5H12O2/c1-5(7-3)4-6-2/h5H,4H2,1-3H3",
        "InChIKey": null,
        "Canonical SMILES": "O(C)CC(OC)C",
        "Molecular Formula": "C<sub>5</sub>H<sub>12</sub>O<sub>2</sub>",
        "Molecular Mass": "104.15",
        "Boiling Point": "96 °C"
    }
}