{
    "cas_no": "2588-05-8",
    "key_name": "Phorate oxon sulfoxide",
    "cn_name": null,
    "alternate_name": "Phosphorothioic acid, <em>O</em>,<em>O</em>-diethyl <em>S</em>-[(ethylsulfinyl)methyl] ester;Methanethiol, (ethylsulfinyl)-, <em>S</em>-ester with <em>O</em>,<em>O</em>-diethyl phosphorothioate;Phoratoxon sulfoxide;Phorate oxon sulfoxide",
    "duplicated_cas_no": "",
    "SMILES": "P(SCS(CC)=O)(OCC)(OCC)=O",
    "meta_data": {
        "InChI": "InChI=1S/C7H17O4PS2/c1-4-10-12(8,11-5-2)13-7-14(9)6-3/h4-7H2,1-3H3",
        "InChIKey": null,
        "Canonical SMILES": "O=S(CSP(=O)(OCC)OCC)CC",
        "Molecular Formula": "C<sub>7</sub>H<sub>17</sub>O<sub>4</sub>PS<sub>2</sub>",
        "Molecular Mass": "260.31",
        "Boiling Point": "150 °C @ Press: 0.2 Torr"
    }
}