{
    "cas_no": "120-46-7",
    "key_name": "Dibenzoylmethane",
    "cn_name": "二苯甲酰基甲烷;",
    "alternate_name": "1,3-Propanedione, 1,3-diphenyl-;1,3-Diphenyl-1,3-propanedione;ω-Benzoylacetophenone;Phenyl phenacyl ketone;Dibenzoylmethane;2-Benzoylacetophenone;Karenz DK 2;Rhodiastab 83;NSC 406806;NSC 52984;NSC 6266;DBM;AD 158;1,3-Diphenylpropan-1,3-dione;Rhodiastab 83P;DBM 83;PB 201",
    "duplicated_cas_no": "61346-73-4;2090414-61-0",
    "SMILES": "C(CC(=O)C1=CC=CC=C1)(=O)C2=CC=CC=C2",
    "meta_data": {
        "InChI": "InChI=1S/C15H12O2/c16-14(12-7-3-1-4-8-12)11-15(17)13-9-5-2-6-10-13/h1-10H,11H2",
        "InChIKey": null,
        "Canonical SMILES": "O=C(C=1C=CC=CC1)CC(=O)C=2C=CC=CC2",
        "Molecular Formula": "C<sub>15</sub>H<sub>12</sub>O<sub>2</sub>",
        "Molecular Mass": "224.25",
        "Boiling Point": "219-221 °C",
        "Melting Point": "70.5 °C"
    }
}