{
    "cas_no": "2937-81-7",
    "key_name": "1,3,4-Thiadiazole-2,5-diamine",
    "cn_name": "2,5-二氨基-1,3,4-噻二唑;2,5-二氨基-1,3,4-噻二唑;",
    "alternate_name": "1,3,4-Thiadiazole-2,5-diamine;1,3,4-Thiadiazole, 2,5-diamino-;2,5-Diamino-1,3,4-thiadiazole;2,5-Diamino-1,3,4-thiadiazol",
    "duplicated_cas_no": "",
    "SMILES": "NC=1SC(N)=NN1",
    "meta_data": {
        "InChI": "InChI=1S/C2H4N4S/c3-1-5-6-2(4)7-1/h(H2,3,5)(H2,4,6)",
        "InChIKey": null,
        "Canonical SMILES": "N=1N=C(SC1N)N",
        "Molecular Formula": "C<sub>2</sub>H<sub>4</sub>N<sub>4</sub>S",
        "Molecular Mass": "116.14",
        "Melting Point": "210 °C"
    }
}