{
    "cas_no": "28314-81-0",
    "key_name": "3-Bromo-2,6-difluorobenzoic acid",
    "cn_name": null,
    "alternate_name": "Benzoic acid, 3-bromo-2,6-difluoro-;3-Bromo-2,6-difluorobenzoic acid",
    "duplicated_cas_no": "",
    "SMILES": "C(O)(=O)C1=C(F)C(Br)=CC=C1F",
    "meta_data": {
        "InChI": "InChI=1S/C7H3BrF2O2/c8-3-1-2-4(9)5(6(3)10)7(11)12/h1-2H,(H,11,12)",
        "InChIKey": null,
        "Canonical SMILES": "O=C(O)C=1C(F)=CC=C(Br)C1F",
        "Molecular Formula": "C<sub>7</sub>H<sub>3</sub>BrF<sub>2</sub>O<sub>2</sub>",
        "Molecular Mass": "237.00",
        "Melting Point": "137-139 °C"
    }
}