{
    "cas_no": "7287-82-3",
    "key_name": "1-(2-Methylphenyl)ethanol",
    "cn_name": "1-(2-甲基苯基)乙醇;",
    "alternate_name": "Benzenemethanol, α,2-dimethyl-;Benzyl alcohol, <em>o</em>,α-dimethyl-;α,2-Dimethylbenzenemethanol;1-(2-Methylphenyl)ethanol;α,2-Dimethylbenzyl alcohol;1-(<em>o</em>-Tolyl)ethanol;α-(2-Methylphenyl)ethanol;1-(<em>o</em>-Methylphenyl)ethanol;1-(2-Tolyl)ethanol;<em>o</em>-Methyl-α-methylbenzyl alcohol;(±)-1-(2-Methylphenyl)ethanol;1-(2-Methylphenyl)ethan-1-ol",
    "duplicated_cas_no": "99531-03-0",
    "SMILES": "C(C)(O)C1=C(C)C=CC=C1",
    "meta_data": {
        "InChI": "InChI=1S/C9H12O/c1-7-5-3-4-6-9(7)8(2)10/h3-6,8,10H,1-2H3",
        "InChIKey": null,
        "Canonical SMILES": "OC(C=1C=CC=CC1C)C",
        "Molecular Formula": "C<sub>9</sub>H<sub>12</sub>O",
        "Molecular Mass": "136.19",
        "Boiling Point": "64-65 °C @ Press: 0.7 Torr"
    }
}