{
    "cas_no": "118289-55-7",
    "key_name": "5-(2-Chloroethyl)-6-chlorooxindole",
    "cn_name": "5-(2-氯乙基)-6-氯-1,3-二氢-吲哚-2-(2H)-酮;",
    "alternate_name": "2<em>H</em>-Indol-2-one, 6-chloro-5-(2-chloroethyl)-1,3-dihydro-;6-Chloro-5-(2-chloroethyl)-1,3-dihydro-2<em>H</em>-indol-2-one;5-(2-Chloroethyl)-6-chlorooxindole;6-Chloro-5-(2-chloroethyl)oxindole;5-(2-Chloroethyl)-6-chloro-1,3-dihydro-2<em>H</em>-indol-2-one;6-Chloro-5-(2-chloroethyl)-2-oxoindoline;6-Chloro-5-(2-chloroethyl)indolin-2-one",
    "duplicated_cas_no": "",
    "SMILES": "C(CCl)C=1C=C2C(=CC1Cl)NC(=O)C2",
    "meta_data": {
        "InChI": "InChI=1S/C10H9Cl2NO/c11-2-1-6-3-7-4-10(14)13-9(7)5-8(6)12/h3,5H,1-2,4H2,(H,13,14)",
        "InChIKey": null,
        "Canonical SMILES": "O=C1NC2=CC(Cl)=C(C=C2C1)CCCl",
        "Molecular Formula": "C<sub>10</sub>H<sub>9</sub>Cl<sub>2</sub>NO",
        "Molecular Mass": "230.09",
        "Melting Point": "210-211 °C"
    }
}