{
    "cas_no": "3379-41-7",
    "key_name": "1,1′-Oxybis[4-phenoxybenzene]",
    "cn_name": null,
    "alternate_name": "Benzene, 1,1′-oxybis[4-phenoxy-;Ether, bis(<em>p</em>-phenoxyphenyl);1,1′-Oxybis[4-phenoxybenzene];Bis(<em>p</em>-phenoxyphenyl) ether;4,4′-Diphenoxydiphenyl ether",
    "duplicated_cas_no": "",
    "SMILES": "O(C1=CC=C(OC2=CC=CC=C2)C=C1)C3=CC=C(OC4=CC=CC=C4)C=C3",
    "meta_data": {
        "InChI": "InChI=1S/C24H18O3/c1-3-7-19(8-4-1)25-21-11-15-23(16-12-21)27-24-17-13-22(14-18-24)26-20-9-5-2-6-10-20/h1-18H",
        "InChIKey": null,
        "Canonical SMILES": "O(C=1C=CC=CC1)C2=CC=C(OC3=CC=C(OC=4C=CC=CC4)C=C3)C=C2",
        "Molecular Formula": "C<sub>24</sub>H<sub>18</sub>O<sub>3</sub>",
        "Molecular Mass": "354.40",
        "Boiling Point": "463 °C",
        "Melting Point": "110 °C"
    }
}