{
    "cas_no": "1454-80-4",
    "key_name": "2,2′-Diaminobiphenyl",
    "cn_name": null,
    "alternate_name": "[1,1′-Biphenyl]-2,2′-diamine;2,2′-Biphenyldiamine;<em>o</em>,<em>o</em>′-Diaminobiphenyl;2,2′-Diaminobiphenyl;2,2′-Diaminodiphenyl;<em>o</em>-Benzidine;2,2′-Diamino-1,1′-biphenyl;NSC 99367;<em>o</em>-Dianiline;2-(2-Aminophenyl)aniline",
    "duplicated_cas_no": "",
    "SMILES": "NC1=C(C=CC=C1)C2=C(N)C=CC=C2",
    "meta_data": {
        "InChI": "InChI=1S/C12H12N2/c13-11-7-3-1-5-9(11)10-6-2-4-8-12(10)14/h1-8H,13-14H2",
        "InChIKey": null,
        "Canonical SMILES": "NC=1C=CC=CC1C=2C=CC=CC2N",
        "Molecular Formula": "C<sub>12</sub>H<sub>12</sub>N<sub>2</sub>",
        "Molecular Mass": "184.24",
        "Boiling Point": "162 °C",
        "Melting Point": "81 °C"
    }
}