{
    "cas_no": "43112-38-5",
    "key_name": "3-(Trimethylsilyl)-2-oxazolidinone",
    "cn_name": "3-三甲基硅基-2-恶唑烷酮;3-三甲基甲硅烷基-2-噁唑烷酮;",
    "alternate_name": "2-Oxazolidinone, 3-(trimethylsilyl)-;3-(Trimethylsilyl)-2-oxazolidinone;<em>N</em>-(Trimethylsilyl)-2-oxazolidone;<em>N</em>-(Trimethylsilyl)-2-oxazolidinone;TMSO;NSC 617258;3-Trimethylsilyl-1,3-oxazolidin-2-one",
    "duplicated_cas_no": "",
    "SMILES": "[Si](C)(C)(C)N1C(=O)OCC1",
    "meta_data": {
        "InChI": "InChI=1S/C6H13NO2Si/c1-10(2,3)7-4-5-9-6(7)8/h4-5H2,1-3H3",
        "InChIKey": null,
        "Canonical SMILES": "O=C1OCCN1[Si](C)(C)C",
        "Molecular Formula": "C<sub>6</sub>H<sub>13</sub>NO<sub>2</sub>Si",
        "Molecular Mass": "159.26",
        "Boiling Point": "99.5-100 °C @ Press: 5.5-6 Torr",
        "Density": "1.040 g/cm³ @ Temp: 20 °C"
    }
}