{
    "cas_no": "1569-01-3",
    "key_name": "1-Propoxy-2-propanol",
    "cn_name": "1-丙氧基-2-丙醇;1-丙氧基-2-丙醇;丙二醇丙醚;",
    "alternate_name": "2-Propanol, 1-propoxy-;1-Propoxy-2-propanol;1,2-Propylene glycol 1-propyl ether;Arcosolv PNP;Propasol solvent P;1-(1-Propyloxy)propan-2-ol",
    "duplicated_cas_no": "",
    "SMILES": "C(OCCC)C(C)O",
    "meta_data": {
        "InChI": "InChI=1S/C6H14O2/c1-3-4-8-5-6(2)7/h6-7H,3-5H2,1-2H3",
        "InChIKey": null,
        "Canonical SMILES": "OC(C)COCCC",
        "Molecular Formula": "C<sub>6</sub>H<sub>14</sub>O<sub>2</sub>",
        "Molecular Mass": "118.17",
        "Boiling Point": "148-149 °C @ Press: 730 Torr",
        "Melting Point": "-80 °C",
        "Density": "0.8886 g/cm³ @ Temp: 20 °C"
    }
}