{
    "cas_no": "1552-92-7",
    "key_name": "Acetic acid, 2-cyclohexylidene-, ethyl ester",
    "cn_name": "环庚烯基乙酸乙酯;",
    "alternate_name": "Acetic acid, 2-cyclohexylidene-, ethyl ester;Δ<sup>1,α</sup>-Cyclohexaneacetic acid, ethyl ester;Acetic acid, cyclohexylidene-, ethyl ester;Ethyl cyclohexylideneacetate;Cyclohexylideneacetic acid ethyl ester;NSC 18981;Ethyl 2-cyclohexylideneacetate",
    "duplicated_cas_no": "",
    "SMILES": "C(C(OCC)=O)=C1CCCCC1",
    "meta_data": {
        "InChI": "InChI=1S/C10H16O2/c1-2-12-10(11)8-9-6-4-3-5-7-9/h8H,2-7H2,1H3",
        "InChIKey": null,
        "Canonical SMILES": "O=C(OCC)C=C1CCCCC1",
        "Molecular Formula": "C<sub>10</sub>H<sub>16</sub>O<sub>2</sub>",
        "Molecular Mass": "168.23",
        "Boiling Point": "104.0-105.5 °C @ Press: 15 Torr"
    }
}