{
    "cas_no": "1502-22-3",
    "key_name": "Cyclohexenylcyclohexanone",
    "cn_name": "2-(1-环己烯-1-基)环己酮;2-(1-环己烯基-1)环己酮;",
    "alternate_name": "Cyclohexanone, 2-(1-cyclohexen-1-yl)-;2-(1-Cyclohexen-1-yl)cyclohexanone;2-(Cyclohex-1-enyl)cyclohexanone;CHCH;1-(2-Oxocyclohexyl)cyclohexene;NSC 518776;Cyclohexenylcyclohexanone;2-(Cyclohex-1-en-1-yl)cyclohexan-1-one",
    "duplicated_cas_no": "",
    "SMILES": "O=C1C(C=2CCCCC2)CCCC1",
    "meta_data": {
        "InChI": "InChI=1S/C12H18O/c13-12-9-5-4-8-11(12)10-6-2-1-3-7-10/h6,11H,1-5,7-9H2",
        "InChIKey": null,
        "Canonical SMILES": "O=C1CCCCC1C2=CCCCC2",
        "Molecular Formula": "C<sub>12</sub>H<sub>18</sub>O",
        "Molecular Mass": "178.27",
        "Boiling Point": "265 °C",
        "Melting Point": "-78 °C",
        "Density": "1.015 g/cm³ @ Temp: 19 °C"
    }
}