{
    "cas_no": "56038-13-2",
    "key_name": "Sucralose",
    "cn_name": "三氯蔗糖;",
    "alternate_name": "α-<span class=\"text-smallcaps\">D</smallcap>-Galactopyranoside, 1,6-dichloro-1,6-dideoxy-β-<smallcap>D</span>-fructofuranosyl 4-chloro-4-deoxy-;1,6-Dichloro-1,6-dideoxy-β-<span class=\"text-smallcaps\">D</smallcap>-fructofuranosyl 4-chloro-4-deoxy-α-<smallcap>D</span>-galactopyranoside;1′,4,6′-Trichlorogalactosucrose;4,1′,6′-Trichloro-4,1′,6′-trideoxygalactosucrose;Sucralose;Splenda;Aspasvit;Sansweet SU 100;TGS;Acucar Light;San Sweet SA 8020;Sucrazit;Sansweet;Predillon SU 600;Sansweet SU 200",
    "duplicated_cas_no": "1450725-31-1",
    "SMILES": "O([C@]1(CCl)O[C@H](CCl)[C@@H](O)[C@@H]1O)[C@H]2O[C@H](CO)[C@H](Cl)[C@H](O)[C@H]2O",
    "meta_data": {
        "InChI": "InChI=1S/C12H19Cl3O8/c13-1-4-7(17)10(20)12(3-14,22-4)23-11-9(19)8(18)6(15)5(2-16)21-11/h4-11,16-20H,1-3H2/t4-,5-,6+,7-,8+,9-,10+,11-,12+/m1/s1",
        "InChIKey": null,
        "Canonical SMILES": "ClCC1OC(OC2OC(CO)C(Cl)C(O)C2O)(CCl)C(O)C1O",
        "Molecular Formula": "C<sub>12</sub>H<sub>19</sub>Cl<sub>3</sub>O<sub>8</sub>",
        "Molecular Mass": "397.63",
        "Melting Point": "130 °C"
    }
}