{
    "cas_no": "18331-34-5",
    "key_name": "3-Ethyl-4-oxo-5-benzylidene-1,3-thiazolidine-2-thione",
    "cn_name": null,
    "alternate_name": "4-Thiazolidinone, 3-ethyl-5-(phenylmethylene)-2-thioxo-;Rhodanine, 5-benzylidene-3-ethyl-;3-Ethyl-5-(phenylmethylene)-2-thioxo-4-thiazolidinone;3-Ethyl-4-oxo-5-benzylidene-1,3-thiazolidine-2-thione;5-Benzal-3-ethylrhodanine;5-Benzylidene-3-ethylrhodanine;NK 1077;3-Ethyl-5-(phenylmethylidene)-2-sulfanylidene-1,3-thiazolidin-4-one",
    "duplicated_cas_no": "",
    "SMILES": "C(=C1C(=O)N(CC)C(=S)S1)C2=CC=CC=C2",
    "meta_data": {
        "InChI": "InChI=1S/C12H11NOS2/c1-2-13-11(14)10(16-12(13)15)8-9-6-4-3-5-7-9/h3-8H,2H2,1H3",
        "InChIKey": null,
        "Canonical SMILES": "O=C1C(SC(=S)N1CC)=CC=2C=CC=CC2",
        "Molecular Formula": "C<sub>12</sub>H<sub>11</sub>NOS<sub>2</sub>",
        "Molecular Mass": "249.35",
        "Melting Point": "150 °C"
    }
}