{
    "cas_no": "50257-40-4",
    "key_name": "1-[[2,4,6-Tris(1-methylethyl)phenyl]sulfonyl]-1<em>H</em>-imidazole",
    "cn_name": "1-(2,4,6-三异丙基苯基磺酰)咪唑;N-(2,4,6-三异丙基苯磺酰)咪唑;",
    "alternate_name": "1<em>H</em>-Imidazole, 1-[[2,4,6-tris(1-methylethyl)phenyl]sulfonyl]-;1-[[2,4,6-Tris(1-methylethyl)phenyl]sulfonyl]-1<em>H</em>-imidazole;1-(2,4,6-Triisoprolylphenylsulfonyl)-1<em>H</em>-imidazole;1-(2,4,6-Triisopropylphenylsulfonyl)-<sup>1</sup><em>H</em>-imidazole;1-(2,4,6-Triisopropylphenylsulfonyl)imidazole;1-(2,4,6-Triisopropyl-benzenesulfonyl)-1<em>H</em>-imidazole;1-[2,4,6-Tri(propan-2-yl)phenyl]sulfonylimidazole",
    "duplicated_cas_no": "",
    "SMILES": "S(=O)(=O)(C1=C(C(C)C)C=C(C(C)C)C=C1C(C)C)N2C=CN=C2",
    "meta_data": {
        "InChI": "InChI=1S/C18H26N2O2S/c1-12(2)15-9-16(13(3)4)18(17(10-15)14(5)6)23(21,22)20-8-7-19-11-20/h7-14H,1-6H3",
        "InChIKey": null,
        "Canonical SMILES": "O=S(=O)(C=1C(=CC(=CC1C(C)C)C(C)C)C(C)C)N2C=NC=C2",
        "Molecular Formula": "C<sub>18</sub>H<sub>26</sub>N<sub>2</sub>O<sub>2</sub>S",
        "Molecular Mass": "334.48",
        "Melting Point": "118-119 °C"
    }
}