{
    "cas_no": "94-46-2",
    "key_name": "Isoamyl benzoate",
    "cn_name": "苯甲酸异戊酯;",
    "alternate_name": "1-Butanol, 3-methyl-, 1-benzoate;Isopentyl alcohol, benzoate;1-Butanol, 3-methyl-, benzoate;<em>iso</em>-Amyl benzoate;Isopentyl benzoate;Isoamyl benzoate;3-Methylbutyl benzoate;<em>iso</em>-Pentyl benzoate;NSC 9284",
    "duplicated_cas_no": "",
    "SMILES": "C(OCCC(C)C)(=O)C1=CC=CC=C1",
    "meta_data": {
        "InChI": "InChI=1S/C12H16O2/c1-10(2)8-9-14-12(13)11-6-4-3-5-7-11/h3-7,10H,8-9H2,1-2H3",
        "InChIKey": null,
        "Canonical SMILES": "O=C(OCCC(C)C)C=1C=CC=CC1",
        "Molecular Formula": "C<sub>12</sub>H<sub>16</sub>O<sub>2</sub>",
        "Molecular Mass": "192.25",
        "Boiling Point": "261 °C"
    }
}