{
    "cas_no": "83649-48-3",
    "key_name": "Benzenepropanoic acid, β-amino-, hydrochloride (1:1), (β<em>R</em>)-",
    "cn_name": null,
    "alternate_name": "Benzenepropanoic acid, β-amino-, hydrochloride (1:1), (β<em>R</em>)-;Benzenepropanoic acid, β-amino-, hydrochloride, (<em>R</em>)-;Benzenepropanoic acid, β-amino-, hydrochloride, (β<em>R</em>)-;(3R)-3-Amino-3-phenylpropanoic acid hydrochloride;(R)-3-Amino-3-phenylpropanoic acid hydrochloride;(R)-3-Amino-3-phenylpropionic acid hydrochloride",
    "duplicated_cas_no": "",
    "SMILES": "[C@H](CC(O)=O)(N)C1=CC=CC=C1.Cl",
    "meta_data": {
        "InChI": "InChI=1S/C9H11NO2.ClH/c10-8(6-9(11)12)7-4-2-1-3-5-7;/h1-5,8H,6,10H2,(H,11,12);1H/t8-;/m1./s1",
        "InChIKey": null,
        "Canonical SMILES": "Cl.O=C(O)CC(N)C=1C=CC=CC1",
        "Molecular Formula": "C<sub>9</sub>H<sub>11</sub>NO<sub>2</sub>.ClH",
        "Molecular Mass": "",
        "Melting Point": "195-198 °C"
    }
}