{
    "cas_no": "3055-99-0",
    "key_name": "Nonaethylene glycol monododecyl ether",
    "cn_name": "单十二烷基九乙二醇醚;",
    "alternate_name": "3,6,9,12,15,18,21,24,27-Nonaoxanonatriacontan-1-ol;Do 9/R3;Ethanol, 2-[2-[2-[2-[2-[2-[2-[2-[2-(dodecyloxy)ethoxy]ethoxy]ethoxy]ethoxy]ethoxy]ethoxy]ethoxy]ethoxy]-;Nonaethylene glycol monododecyl ether;C<sub>12</sub>E<sub>9</sub>;Nonaoxyethylene monododecyl ether;C<sub>12</sub>EO<sub>9</sub>;2-[2-[2-[2-[2-[2-[2-[2-(2-Dodecoxyethoxy)ethoxy]ethoxy]ethoxy]ethoxy]ethoxy]ethoxy]ethoxy]ethanol;POE-9 lauryl ether",
    "duplicated_cas_no": "95297-49-7;73579-17-6",
    "SMILES": "C(COCCOCCOCCOCCOCCOCCO)OCCOCCOCCCCCCCCCCCC",
    "meta_data": {
        "InChI": "InChI=1S/C30H62O10/c1-2-3-4-5-6-7-8-9-10-11-13-32-15-17-34-19-21-36-23-25-38-27-29-40-30-28-39-26-24-37-22-20-35-18-16-33-14-12-31/h31H,2-30H2,1H3",
        "InChIKey": null,
        "Canonical SMILES": "OCCOCCOCCOCCOCCOCCOCCOCCOCCOCCCCCCCCCCCC",
        "Molecular Formula": "C<sub>30</sub>H<sub>62</sub>O<sub>10</sub>",
        "Molecular Mass": "582.81",
        "Melting Point": "33.3-33.6 °C"
    }
}