{
    "cas_no": "13074-39-0",
    "key_name": "2-Aminoadamantane",
    "cn_name": null,
    "alternate_name": "Tricyclo[3.3.1.1<sup>3,7</sup>]decan-2-amine;2-Adamantanamine;2-Aminoadamantane;2-Adamantylamine;JP 60;2-Amantadine;Tricyclo[3.3.1.1<sup>3,7</sup>]decan-2-amine, (±)-;NSC 127842;(Adamantan-2-yl)amine;2-Adamantaneamine",
    "duplicated_cas_no": "135361-61-4",
    "SMILES": "NC1C2CC3CC1CC(C2)C3",
    "meta_data": {
        "InChI": "InChI=1S/C10H17N/c11-10-8-2-6-1-7(4-8)5-9(10)3-6/h6-10H,1-5,11H2",
        "InChIKey": null,
        "Canonical SMILES": "NC1C2CC3CC(C2)CC1C3",
        "Molecular Formula": "C<sub>10</sub>H<sub>17</sub>N",
        "Molecular Mass": "151.25",
        "Melting Point": "230-236 °C"
    }
}