{
    "cas_no": "5680-83-1",
    "key_name": "<em>N</em>-[(Phenylmethoxy)carbonyl]glycine hydrazide",
    "cn_name": null,
    "alternate_name": "Glycine, <em>N</em>-[(phenylmethoxy)carbonyl]-, hydrazide;Glycine, <em>N</em>-carboxy-, <em>N</em>-benzyl ester, hydrazide;<em>N</em>-[(Phenylmethoxy)carbonyl]glycine hydrazide;Carbobenzoxyglycine hydrazide;<em>N</em>-(Benzyloxycarbonyl)glycine hydrazide;[(Benzyloxy)carbonyl]glycine hydrazide;NSC 117434;Benzyl <em>N</em>-(2-hydrazino-2-oxoethyl)carbamate",
    "duplicated_cas_no": "",
    "SMILES": "C(OC(NCC(NN)=O)=O)C1=CC=CC=C1",
    "meta_data": {
        "InChI": "InChI=1S/C10H13N3O3/c11-13-9(14)6-12-10(15)16-7-8-4-2-1-3-5-8/h1-5H,6-7,11H2,(H,12,15)(H,13,14)",
        "InChIKey": null,
        "Canonical SMILES": "O=C(OCC=1C=CC=CC1)NCC(=O)NN",
        "Molecular Formula": "C<sub>10</sub>H<sub>13</sub>N<sub>3</sub>O<sub>3</sub>",
        "Molecular Mass": "223.23",
        "Melting Point": "116-117 °C"
    }
}