{
    "cas_no": "2623-33-8",
    "key_name": "<em>p</em>-Acetoxyacetanilide",
    "cn_name": "对乙酰氧基乙酰苯胺;",
    "alternate_name": "Acetamide, <em>N</em>-[4-(acetyloxy)phenyl]-;Acetanilide, 4′-hydroxy-, acetate (ester);Acetanilide, 4′-hydroxy-, acetate;<em>N</em>-[4-(Acetyloxy)phenyl]acetamide;4-Acetamidophenyl acetate;Acetaminophen acetate;<em>p</em>-Acetoxyacetanilide;Diacetamate;4′-Acetoxyacetanilide;<em>N</em>-Acetyl-4-aminophenyl acetate;<em>p</em>-Acetamidophenyl acetate;NSC 33893;NSC 6083;<em>N</em>-(4-Acetoxyphenyl)acetamide;<em>O</em>-Acetylparacetamol;4-Acetylaminophenyl acetate;4-Acetoxyacetaminophen",
    "duplicated_cas_no": "",
    "SMILES": "N(C(C)=O)C1=CC=C(OC(C)=O)C=C1",
    "meta_data": {
        "InChI": "InChI=1S/C10H11NO3/c1-7(12)11-9-3-5-10(6-4-9)14-8(2)13/h3-6H,1-2H3,(H,11,12)",
        "InChIKey": null,
        "Canonical SMILES": "O=C(OC1=CC=C(C=C1)NC(=O)C)C",
        "Molecular Formula": "C<sub>10</sub>H<sub>11</sub>NO<sub>3</sub>",
        "Molecular Mass": "193.20",
        "Melting Point": "151.5-152.5 °C"
    }
}