{
    "cas_no": "62-38-4",
    "key_name": "Phenylmercuric acetate",
    "cn_name": "乙酸苯汞;醋酸苯汞;赛力散;赛力散原粉;裕米农;龙汞;",
    "alternate_name": "Mercury, (acetato-κ<em>O</em>)phenyl-;Phenylmercury acetate;Mercury, (acetato)phenyl-;Mercury, (acetato-<em>O</em>)phenyl-;(Acetato-κ<em>O</em>)phenylmercury;Tag 331;Tag HL 331;Acetoxyphenylmercury;Bufen;Contra Creme;Fungitox OR;Liquiphene;Mercuriphenyl acetate;Mersolite 8;Norforms;Phix;PMA;PMAC;PMAS;Quicksan;Scutl;Setrete;Tag;Tag Fungicide;Ziarnik;Antimucin WDR;Benzene, (acetoxymercurio)-;Phenylmercuric acetate;Sanitized SPG;Trigosan;Femma;Mercuron;Verdasan;Neantina;Acetatophenylmercury;PMA 220;Sanmicron;(Acetato-<em>O</em>)phenylmercury;Bufen 30;Mersolite D;Programin;Spruce Seal;Nylmerate;Algimycin 200;Fungicide R;Panomatic;Anticon;Volpar;Meracen;Antimucin WBR;Hexasan;Hexasan (fungicide);Seed Dressing R;Zaprawa Nasienna R;Mercron;Ruberon;Troysan 30;Mergal A 25;Ceresol;PMA (fungicide);Troysan PMA 30;Samtol;Lorophyn;Agrosan D;Intercide PMA 18;Intercide 60;Nuodex PMA 18;Acetic acid, phenylmercury deriv.;Parasan;Parasan (bactericide);Seedtox;NSC 35670;NSC 61321;Agrosan;MeSH ID: D010662",
    "duplicated_cas_no": "112415-59-5;1337-06-0;8013-47-6;61840-45-7;64684-45-3",
    "SMILES": "[Hg](OC(C)=O)C1=CC=CC=C1",
    "meta_data": {
        "InChI": "InChI=1S/C6H5.C2H4O2.Hg/c1-2-4-6-5-3-1;1-2(3)4;/h1-5H;1H3,(H,3,4);/q;;+1/p-1",
        "InChIKey": null,
        "Canonical SMILES": "O=C(O[Hg]C=1C=CC=CC1)C",
        "Molecular Formula": "C<sub>8</sub>H<sub>8</sub>HgO<sub>2</sub>",
        "Molecular Mass": "",
        "Melting Point": "149 °C",
        "Density": "2.400 g/cm³"
    }
}