{
    "cas_no": "406-90-6",
    "key_name": "Fluroxene",
    "cn_name": "三氟乙烯醚;2,2,2-三氟乙基乙烯醚;",
    "alternate_name": "Ethene, (2,2,2-trifluoroethoxy)-;Ether, 2,2,2-trifluoroethyl vinyl;(2,2,2-Trifluoroethoxy)ethene;Fluoromar;Fluoroxene;Fluroxene;2,2,2-Trifluoroethyl vinyl ether;Trifluoroethyl vinyl ether;2-Ethenoxy-1,1,1-trifluoroethane",
    "duplicated_cas_no": "",
    "SMILES": "C(C(F)(F)F)OC=C",
    "meta_data": {
        "InChI": "InChI=1S/C4H5F3O/c1-2-8-3-4(5,6)7/h2H,1,3H2",
        "InChIKey": null,
        "Canonical SMILES": "FC(F)(F)COC=C",
        "Molecular Formula": "C<sub>4</sub>H<sub>5</sub>F<sub>3</sub>O",
        "Molecular Mass": "126.08",
        "Boiling Point": "42.5 °C",
        "Density": "1.135 g/cm³ @ Temp: 20 °C"
    }
}