{
    "cas_no": "3982-82-9",
    "key_name": "DC 704",
    "cn_name": "1,1,5,5-四苯基-1,3,3,5-四甲基硅氧烷;",
    "alternate_name": "Trisiloxane, 1,3,3,5-tetramethyl-1,1,5,5-tetraphenyl-;1,3,3,5-Tetramethyl-1,1,5,5-tetraphenyltrisiloxane;HIVAC F 4;Dow Corning 704;DC 704;Dimethylbis(methyldiphenylsilyloxy)silane;Silicone DC 704;FT 704;SH 704;1,1,5,5-Tetraphenyltetramethyltrisiloxane;1,1,5,5-Tetraphenyl-1,3,3,5-tetramethyltrisiloxane;DM 7040;SIT 7757;PDM 7040",
    "duplicated_cas_no": "26746-40-7",
    "SMILES": "[Si](O[Si](O[Si](C)(C1=CC=CC=C1)C2=CC=CC=C2)(C)C)(C)(C3=CC=CC=C3)C4=CC=CC=C4",
    "meta_data": {
        "InChI": "InChI=1S/C28H32O2Si3/c1-31(2,29-32(3,25-17-9-5-10-18-25)26-19-11-6-12-20-26)30-33(4,27-21-13-7-14-22-27)28-23-15-8-16-24-28/h5-24H,1-4H3",
        "InChIKey": null,
        "Canonical SMILES": "O([Si](O[Si](C=1C=CC=CC1)(C=2C=CC=CC2)C)(C)C)[Si](C=3C=CC=CC3)(C=4C=CC=CC4)C",
        "Molecular Formula": "C<sub>28</sub>H<sub>32</sub>O<sub>2</sub>Si<sub>3</sub>",
        "Molecular Mass": "484.81",
        "Boiling Point": "233 °C @ Press: 0.5 Torr",
        "Density": "1.070 g/cm³"
    }
}