{
    "cas_no": "529-23-7",
    "key_name": "2-Aminobenzaldehyde",
    "cn_name": "2-氨基苯甲醛;邻氨基苯甲醛;",
    "alternate_name": "Benzaldehyde, 2-amino-;Anthranilaldehyde;2-Aminobenzaldehyde;<em>o</em>-Aminobenzaldehyde;2-Formylaniline",
    "duplicated_cas_no": "",
    "SMILES": "C(=O)C1=C(N)C=CC=C1",
    "meta_data": {
        "InChI": "InChI=1S/C7H7NO/c8-7-4-2-1-3-6(7)5-9/h1-5H,8H2",
        "InChIKey": null,
        "Canonical SMILES": "O=CC=1C=CC=CC1N",
        "Molecular Formula": "C<sub>7</sub>H<sub>7</sub>NO",
        "Molecular Mass": "121.14",
        "Boiling Point": "82.5 °C",
        "Melting Point": "39 °C"
    }
}