{
    "cas_no": "4121-12-4",
    "key_name": "1,1′-Dibutyl 2,2′-thiobis[acetate]",
    "cn_name": "硫代二甘酸二正丁酯;",
    "alternate_name": "Acetic acid, 2,2′-thiobis-, 1,1′-dibutyl ester;Acetic acid, thiodi-, dibutyl ester;Acetic acid, 2,2′-thiobis-, dibutyl ester;1,1′-Dibutyl 2,2′-thiobis[acetate];2-[(2-Butoxy-2-oxoethyl)thio]acetic acid butyl ester",
    "duplicated_cas_no": "",
    "SMILES": "C(C(OCCCC)=O)SCC(OCCCC)=O",
    "meta_data": {
        "InChI": "InChI=1S/C12H22O4S/c1-3-5-7-15-11(13)9-17-10-12(14)16-8-6-4-2/h3-10H2,1-2H3",
        "InChIKey": null,
        "Canonical SMILES": "O=C(OCCCC)CSCC(=O)OCCCC",
        "Molecular Formula": "C<sub>12</sub>H<sub>22</sub>O<sub>4</sub>S",
        "Molecular Mass": "262.37",
        "Boiling Point": "131 °C @ Press: 2 Torr"
    }
}