{
    "cas_no": "19408-46-9",
    "key_name": "Kasugamycin hydrochloride",
    "cn_name": "盐酸春雷霉素;",
    "alternate_name": "<span class=\"text-smallcaps\">D</smallcap>-<em>chiro</em>-Inositol, 3-<em>O</em>-[2-amino-4-[(carboxyiminomethyl)amino]-2,3,4,6-tetradeoxy-α-<smallcap>D</span>-<em>arabino</em>-hexopyranosyl]-, hydrochloride (1:1);Kasugamycin, monohydrochloride;<span class=\"text-smallcaps\">D</smallcap>-<em>chiro</em>-Inositol, 3-<em>O</em>-[2-amino-4-[(carboxyiminomethyl)amino]-2,3,4,6-tetradeoxy-α-<smallcap>D</span>-<em>arabino</em>-hexopyranosyl]-, monohydrochloride;Kasumin;Kasugamycin hydrochloride",
    "duplicated_cas_no": "11014-57-6;12609-82-4;39080-40-5;1135443-65-0",
    "SMILES": "O([C@H]1[C@H](O)[C@@H](O)[C@@H](O)[C@H](O)[C@@H]1O)[C@@H]2[C@@H](N)C[C@H](NC(C(O)=O)=N)[C@@H](C)O2.Cl",
    "meta_data": {
        "InChI": "InChI=1S/C14H25N3O9.ClH/c1-3-5(17-12(16)13(23)24)2-4(15)14(25-3)26-11-9(21)7(19)6(18)8(20)10(11)22;/h3-11,14,18-22H,2,15H2,1H3,(H2,16,17)(H,23,24);1H/t3-,4+,5+,6-,7+,8+,9-,10+,11+,14-;/m1./s1",
        "InChIKey": null,
        "Canonical SMILES": "Cl.O=C(O)C(=N)NC1CC(N)C(OC1C)OC2C(O)C(O)C(O)C(O)C2O",
        "Molecular Formula": "C<sub>14</sub>H<sub>25</sub>N<sub>3</sub>O<sub>9</sub>.ClH",
        "Molecular Mass": "",
        "Melting Point": "202-204 °C (decomp)"
    }
}