{
    "cas_no": "7492-44-6",
    "key_name": "α-Butylcinnamaldehyde",
    "cn_name": null,
    "alternate_name": "Hexanal, 2-(phenylmethylene)-;Cinnamaldehyde, α-butyl-;2-(Phenylmethylene)hexanal;α-Butylcinnamaldehyde;α-Butylcinnamic aldehyde;NSC 406674",
    "duplicated_cas_no": "",
    "SMILES": "C(=C(CCCC)C=O)C1=CC=CC=C1",
    "meta_data": {
        "InChI": "InChI=1S/C13H16O/c1-2-3-7-13(11-14)10-12-8-5-4-6-9-12/h4-6,8-11H,2-3,7H2,1H3",
        "InChIKey": null,
        "Canonical SMILES": "O=CC(=CC=1C=CC=CC1)CCCC",
        "Molecular Formula": "C<sub>13</sub>H<sub>16</sub>O",
        "Molecular Mass": "188.27",
        "Boiling Point": "84-87 °C @ Press: 0.15 Torr"
    }
}