{
    "cas_no": "7194-85-6",
    "key_name": "Octatriacontane",
    "cn_name": "三十八烷;三十八烷;",
    "alternate_name": "Octatriacontane;<em>n</em>-Octatriacontane",
    "duplicated_cas_no": "",
    "SMILES": "C(CCCCCCCCCCCCCCCCCCC)CCCCCCCCCCCCCCCCCC",
    "meta_data": {
        "InChI": "InChI=1S/C38H78/c1-3-5-7-9-11-13-15-17-19-21-23-25-27-29-31-33-35-37-38-36-34-32-30-28-26-24-22-20-18-16-14-12-10-8-6-4-2/h3-38H2,1-2H3",
        "InChIKey": null,
        "Canonical SMILES": "CCCCCCCCCCCCCCCCCCCCCCCCCCCCCCCCCCCCCC",
        "Molecular Formula": "C<sub>38</sub>H<sub>78</sub>",
        "Molecular Mass": "535.03",
        "Boiling Point": "512 °C",
        "Melting Point": "80-81 °C"
    }
}