{
    "cas_no": "2564-95-6",
    "key_name": "<em>N</em>,<em>N</em>-Dimethylsuccinamic acid",
    "cn_name": "N,N-二甲基琥珀酰胺酸;",
    "alternate_name": "Butanoic acid, 4-(dimethylamino)-4-oxo-;Succinamic acid, <em>N</em>,<em>N</em>-dimethyl-;4-(Dimethylamino)-4-oxobutanoic acid;<em>N</em>,<em>N</em>-Dimethylsuccinic acid monoamide;<em>N</em>,<em>N</em>-Dimethylsuccinamic acid;NSC 46778",
    "duplicated_cas_no": "",
    "SMILES": "C(CCC(O)=O)(N(C)C)=O",
    "meta_data": {
        "InChI": "InChI=1S/C6H11NO3/c1-7(2)5(8)3-4-6(9)10/h3-4H2,1-2H3,(H,9,10)",
        "InChIKey": null,
        "Canonical SMILES": "O=C(O)CCC(=O)N(C)C",
        "Molecular Formula": "C<sub>6</sub>H<sub>11</sub>NO<sub>3</sub>",
        "Molecular Mass": "145.16",
        "Melting Point": "81.6-82.6 °C"
    }
}