{
    "cas_no": "612-61-3",
    "key_name": "7-Chloroquinoline",
    "cn_name": "7-氯喹啉;",
    "alternate_name": "Quinoline, 7-chloro-;7-Chloroquinoline",
    "duplicated_cas_no": "",
    "SMILES": "ClC1=CC2=C(C=C1)C=CC=N2",
    "meta_data": {
        "InChI": "InChI=1S/C9H6ClN/c10-8-4-3-7-2-1-5-11-9(7)6-8/h1-6H",
        "InChIKey": null,
        "Canonical SMILES": "ClC1=CC=C2C=CC=NC2=C1",
        "Molecular Formula": "C<sub>9</sub>H<sub>6</sub>ClN",
        "Molecular Mass": "163.60",
        "Boiling Point": "207-208 °C",
        "Melting Point": "85 °C"
    }
}