{
    "cas_no": "163794-91-0",
    "key_name": "4-[(Dimethylamino)bis(1-methylethyl)silyl]butanenitrile",
    "cn_name": null,
    "alternate_name": "Butanenitrile, 4-[(dimethylamino)bis(1-methylethyl)silyl]-;4-[(Dimethylamino)bis(1-methylethyl)silyl]butanenitrile",
    "duplicated_cas_no": "",
    "SMILES": "[Si](CCCC#N)(C(C)C)(C(C)C)N(C)C",
    "meta_data": {
        "InChI": "InChI=1S/C12H26N2Si/c1-11(2)15(12(3)4,14(5)6)10-8-7-9-13/h11-12H,7-8,10H2,1-6H3",
        "InChIKey": null,
        "Canonical SMILES": "N#CCCC[Si](N(C)C)(C(C)C)C(C)C",
        "Molecular Formula": "C<sub>12</sub>H<sub>26</sub>N<sub>2</sub>Si",
        "Molecular Mass": "226.43",
        "Boiling Point": "96-98 °C @ Press: 0.2 Torr",
        "Density": "0.890 g/cm³"
    }
}