{
    "cas_no": "39537-23-0",
    "key_name": "<span class=\"text-smallcaps\">L</smallcap>-Alanyl-<smallcap>L</span>-glutamine",
    "cn_name": "L-丙氨酰-L-谷氨酰胺;力肽;",
    "alternate_name": "<span class=\"text-smallcaps\">L</smallcap>-Glutamine, <smallcap>L</span>-alanyl-;<span class=\"text-smallcaps\">L</smallcap>-Glutamine, <em>N</em><sup>2</sup>-<smallcap>L</span>-alanyl-;Glutamine, <em>N</em><sup>2</sup>-<span class=\"text-smallcaps\">L</span>-alanyl-;<span class=\"text-smallcaps\">L</smallcap>-Alanyl-<smallcap>L</span>-glutamine;Dipeptiven;Dipeptamin;<span class=\"text-smallcaps\">L</smallcap>-Ala-<smallcap>L</span>-Gln;72: PN: US20070066537 PAGE: 17 claimed protein;GlutaMAX;Glutamax I;Alanyl-glutamine;96: PN: WO2011146121 PAGE: 115 claimed sequence;Sustamine;63: PN: WO2020097235 SEQID: 292 claimed protein;GlutaMAX I;13: PN: WO2022111997 PAGE: 22 claimed sequence;GlutaMax I;13: PN: WO2023161197 SEQID: 15 claimed sequence",
    "duplicated_cas_no": "",
    "SMILES": "[C@H](NC([C@H](C)N)=O)(CCC(N)=O)C(O)=O",
    "meta_data": {
        "InChI": "InChI=1S/C8H15N3O4/c1-4(9)7(13)11-5(8(14)15)2-3-6(10)12/h4-5H,2-3,9H2,1H3,(H2,10,12)(H,11,13)(H,14,15)/t4-,5-/m0/s1",
        "InChIKey": null,
        "Canonical SMILES": "O=C(O)C(NC(=O)C(N)C)CCC(=O)N",
        "Molecular Formula": "C<sub>8</sub>H<sub>15</sub>N<sub>3</sub>O<sub>4</sub>",
        "Molecular Mass": "217.22",
        "Melting Point": "204-205 °C"
    }
}