{
    "cas_no": "13472-00-9",
    "key_name": "2-(4-Aminophenyl)ethylamine",
    "cn_name": "2-(4-氨基苯)乙胺;对氨基苯乙胺;",
    "alternate_name": "Benzeneethanamine, 4-amino-;Phenethylamine, <em>p</em>-amino-;4-Aminobenzeneethanamine;4-Aminophenylethylamine;4-Amino-β-phenylethylamine;<em>p</em>-(2-Aminoethyl)aniline;2-(4-Aminophenyl)ethylamine;4-Amino-β-phenethylamine;β-(4-Aminophenyl)ethylamine;4-(2-Aminoethyl)aniline;β-(<em>p</em>-Aminophenyl)ethylamine;<em>p</em>-Aminophenethylamine;4-Aminophenethylamine;2-(<em>p</em>-Aminophenyl)ethylamine;2-(4-Aminophenyl)phenethylamine;(<em>p</em>-Aminophenyl)ethylamine;4-(2-Aminoethyl)phenylamine;NSC 299558;NSC 9060;4-(2-Aminoethyl)benzenamine;APEA",
    "duplicated_cas_no": "",
    "SMILES": "C(CN)C1=CC=C(N)C=C1",
    "meta_data": {
        "InChI": "InChI=1S/C8H12N2/c9-6-5-7-1-3-8(10)4-2-7/h1-4H,5-6,9-10H2",
        "InChIKey": null,
        "Canonical SMILES": "NC1=CC=C(C=C1)CCN",
        "Molecular Formula": "C<sub>8</sub>H<sub>12</sub>N<sub>2</sub>",
        "Molecular Mass": "136.19",
        "Boiling Point": "140-142 °C @ Press: 12 Torr",
        "Melting Point": "62-63 °C"
    }
}