{
    "cas_no": "1667-11-4",
    "key_name": "4-Phenylbenzyl chloride",
    "cn_name": "4-氯甲基联苯;",
    "alternate_name": "1,1′-Biphenyl, 4-(chloromethyl)-;Biphenyl, 4-(chloromethyl)-;4-(Chloromethyl)-1,1′-biphenyl;<em>p</em>-Phenylbenzyl chloride;4-Phenylbenzyl chloride;4CMB;4-(Chloromethyl)biphenyl;1-(Chloromethyl)-4-phenylbenzene;NSC 16277;(1,1′-Biphenyl-4-yl)methyl chloride",
    "duplicated_cas_no": "",
    "SMILES": "C(Cl)C1=CC=C(C=C1)C2=CC=CC=C2",
    "meta_data": {
        "InChI": "InChI=1S/C13H11Cl/c14-10-11-6-8-13(9-7-11)12-4-2-1-3-5-12/h1-9H,10H2",
        "InChIKey": null,
        "Canonical SMILES": "ClCC=1C=CC(=CC1)C=2C=CC=CC2",
        "Molecular Formula": "C<sub>13</sub>H<sub>11</sub>Cl",
        "Molecular Mass": "202.68",
        "Boiling Point": "130 °C @ Press: 0.3 Torr",
        "Melting Point": "68 °C"
    }
}