{
    "cas_no": "90-63-1",
    "key_name": "1-Hydroxy-1-phenyl-2-propanone",
    "cn_name": null,
    "alternate_name": "2-Propanone, 1-hydroxy-1-phenyl-;1-Hydroxy-1-phenyl-2-propanone;1-Phenylacetylcarbinol;1-Hydroxy-1-phenylpropan-2-one;1-Phenyl-1-hydroxypropan-2-one;1-Hydroxy-2-oxo-1-phenylpropane;Phenylacetylcarbinol;1-Hydroxy-1-phenylacetone;α-Hydroxybenzyl methyl ketone;1-Phenyl-2-oxo-1-propanol;NSC 404583",
    "duplicated_cas_no": "129263-08-7",
    "SMILES": "C(C(C)=O)(O)C1=CC=CC=C1",
    "meta_data": {
        "InChI": "InChI=1S/C9H10O2/c1-7(10)9(11)8-5-3-2-4-6-8/h2-6,9,11H,1H3",
        "InChIKey": null,
        "Canonical SMILES": "O=C(C)C(O)C=1C=CC=CC1",
        "Molecular Formula": "C<sub>9</sub>H<sub>10</sub>O<sub>2</sub>",
        "Molecular Mass": "150.17",
        "Boiling Point": "135-137 °C",
        "Melting Point": "123-124 °C",
        "Density": "1.1045 g/cm³ @ Temp: 20 °C"
    }
}