{
    "cas_no": "5328-63-2",
    "key_name": "Methyl β-<span class=\"text-smallcaps\">D</span>-arabinopyranoside",
    "cn_name": "甲基-Β-D-阿拉伯吡喃糖苷;",
    "alternate_name": "β-<span class=\"text-smallcaps\">D</span>-Arabinopyranoside, methyl;Arabinopyranoside, methyl, β-<span class=\"text-smallcaps\">D</span>-;Methyl β-<span class=\"text-smallcaps\">D</span>-arabinopyranoside;NSC 1975",
    "duplicated_cas_no": "",
    "SMILES": "O(C)[C@H]1[C@@H](O)[C@H](O)[C@H](O)CO1",
    "meta_data": {
        "InChI": "InChI=1S/C6H12O5/c1-10-6-5(9)4(8)3(7)2-11-6/h3-9H,2H2,1H3/t3-,4-,5+,6-/m1/s1",
        "InChIKey": null,
        "Canonical SMILES": "OC1COC(OC)C(O)C1O",
        "Molecular Formula": "C<sub>6</sub>H<sub>12</sub>O<sub>5</sub>",
        "Molecular Mass": "164.16",
        "Melting Point": "84-86 °C"
    }
}