{
    "cas_no": "4411-89-6",
    "key_name": "2-Phenyl-2-butenal",
    "cn_name": "2-苯基巴豆醛;",
    "alternate_name": "Benzeneacetaldehyde, α-ethylidene-;Crotonaldehyde, 2-phenyl-;Crotonaldehyde, α-phenyl-;α-Ethylidenebenzeneacetaldehyde;α-Phenylcrotonaldehyde;2-Phenyl-2-butenal;2-Phenylcrotonaldehyde",
    "duplicated_cas_no": "",
    "SMILES": "C(=CC)(C=O)C1=CC=CC=C1",
    "meta_data": {
        "InChI": "InChI=1S/C10H10O/c1-2-9(8-11)10-6-4-3-5-7-10/h2-8H,1H3",
        "InChIKey": null,
        "Canonical SMILES": "O=CC(=CC)C=1C=CC=CC1",
        "Molecular Formula": "C<sub>10</sub>H<sub>10</sub>O",
        "Molecular Mass": "146.19",
        "Boiling Point": "117 °C @ Press: 15 Torr",
        "Density": "1.045 g/cm³ @ Temp: 18 °C"
    }
}