{
    "cas_no": "7787-85-1",
    "key_name": "Dichloro(2-chloroethyl)methylsilane",
    "cn_name": null,
    "alternate_name": "Silane, dichloro(2-chloroethyl)methyl-;Dichloro(2-chloroethyl)methylsilane;2-Chloroethylmethyldichlorosilane",
    "duplicated_cas_no": "",
    "SMILES": "C([Si](C)(Cl)Cl)CCl",
    "meta_data": {
        "InChI": "InChI=1S/C3H7Cl3Si/c1-7(5,6)3-2-4/h2-3H2,1H3",
        "InChIKey": null,
        "Canonical SMILES": "ClCC[Si](Cl)(Cl)C",
        "Molecular Formula": "C<sub>3</sub>H<sub>7</sub>Cl<sub>3</sub>Si",
        "Molecular Mass": "177.53",
        "Boiling Point": "157 °C",
        "Density": "1.261 g/cm³"
    }
}