{
    "cas_no": "500-73-2",
    "key_name": "Acetic acid, 2,2,2-trifluoro-, phenyl ester",
    "cn_name": "三氟乙酸苯酯;",
    "alternate_name": "Acetic acid, 2,2,2-trifluoro-, phenyl ester;Acetic acid, trifluoro-, phenyl ester;Phenyl trifluoroacetate;Phenyl 2,2,2-trifluoroacetate",
    "duplicated_cas_no": "",
    "SMILES": "O(C(C(F)(F)F)=O)C1=CC=CC=C1",
    "meta_data": {
        "InChI": "InChI=1S/C8H5F3O2/c9-8(10,11)7(12)13-6-4-2-1-3-5-6/h1-5H",
        "InChIKey": null,
        "Canonical SMILES": "O=C(OC=1C=CC=CC1)C(F)(F)F",
        "Molecular Formula": "C<sub>8</sub>H<sub>5</sub>F<sub>3</sub>O<sub>2</sub>",
        "Molecular Mass": "190.12",
        "Boiling Point": "146.5-147.0 °C",
        "Melting Point": "-8.5 °C",
        "Density": "1.276 g/cm³ @ Temp: 25 °C"
    }
}