{
    "cas_no": "776-34-1",
    "key_name": "1-Amino-4-nitronaphthalene",
    "cn_name": "4-硝基1-萘胺;1-氨基-4-硝基萘;",
    "alternate_name": "1-Naphthalenamine, 4-nitro-;1-Naphthylamine, 4-nitro-;4-Nitro-1-naphthalenamine;1,4-Nitronaphthylamine;1-Amino-4-nitronaphthalene;4-Nitro-1-naphthylamine;4-Nitro-1-naphthamine;4-Nitro-α-naphthylamine;4-Amino-1-nitronaphthalene;NSC 614;4-Nitro-1-aminonaphthalene",
    "duplicated_cas_no": "",
    "SMILES": "N(=O)(=O)C=1C2=C(C(N)=CC1)C=CC=C2",
    "meta_data": {
        "InChI": "InChI=1S/C10H8N2O2/c11-9-5-6-10(12(13)14)8-4-2-1-3-7(8)9/h1-6H,11H2",
        "InChIKey": null,
        "Canonical SMILES": "O=N(=O)C1=CC=C(N)C=2C=CC=CC21",
        "Molecular Formula": "C<sub>10</sub>H<sub>8</sub>N<sub>2</sub>O<sub>2</sub>",
        "Molecular Mass": "188.18",
        "Melting Point": "196 °C"
    }
}