{
    "cas_no": "321-30-2",
    "key_name": "Adenine sulfate",
    "cn_name": "腺嘌呤硫酸盐;1H-嘌呤-6-胺硫酸盐;硫酸-6-氨基嘌呤;",
    "alternate_name": "9<em>H</em>-Purin-6-amine, sulfate (2:1);1<em>H</em>-Purin-6-amine, sulfate (2:1);Adenine, sulfate (2:1);Adenine sulfate;Adenine hemisulfate;Adeninium sulfate",
    "duplicated_cas_no": "98537-53-2",
    "SMILES": "S(=O)(=O)(O)O.NC1=C2C(=NC=N1)N=CN2",
    "meta_data": {
        "InChI": "InChI=1S/C5H5N5.H2O4S/c6-4-3-5(9-1-7-3)10-2-8-4;1-5(2,3)4/h1-2H,(H3,6,7,8,9,10);(H2,1,2,3,4)",
        "InChIKey": null,
        "Canonical SMILES": "O=S(=O)(O)O.N1=CN=C(N)C=2NC=NC12",
        "Molecular Formula": "C<sub>5</sub>H<sub>5</sub>N<sub>5</sub>.<sup>1</sup>/<sub>2</sub>H<sub>2</sub>O<sub>4</sub>S",
        "Molecular Mass": "",
        "Melting Point": "&gt;285 °C (decomp)"
    }
}