{
    "cas_no": "31127-54-5",
    "key_name": "2,3,4,4′-Tetrahydroxybenzophenone",
    "cn_name": "2,3,4,4\"-四羟基二苯甲酮;2,3,4,4\"-THBP;",
    "alternate_name": "Methanone, (4-hydroxyphenyl)(2,3,4-trihydroxyphenyl)-;Benzophenone, 2,3,4,4′-tetrahydroxy-;(4-Hydroxyphenyl)(2,3,4-trihydroxyphenyl)methanone;4,2′,3′,4′-Tetrahydroxybenzophenone;2,3,4,4′-Tetrahydroxybenzophenone;HBP 2344",
    "duplicated_cas_no": "",
    "SMILES": "C(=O)(C1=C(O)C(O)=C(O)C=C1)C2=CC=C(O)C=C2",
    "meta_data": {
        "InChI": "InChI=1S/C13H10O5/c14-8-3-1-7(2-4-8)11(16)9-5-6-10(15)13(18)12(9)17/h1-6,14-15,17-18H",
        "InChIKey": null,
        "Canonical SMILES": "O=C(C1=CC=C(O)C=C1)C2=CC=C(O)C(O)=C2O",
        "Molecular Formula": "C<sub>13</sub>H<sub>10</sub>O<sub>5</sub>",
        "Molecular Mass": "246.22",
        "Melting Point": "219 °C"
    }
}