{
    "cas_no": "4815-29-6",
    "key_name": "4<em>H</em>-Cyclopenta[<em>b</em>]thiophene-3-carboxylic acid, 2-amino-5,6-dihydro-, ethyl ester",
    "cn_name": "2-氨基-5,6-二氢-4H-环戊并[b]噻吩-3-甲酸乙酯;",
    "alternate_name": "4<em>H</em>-Cyclopenta[<em>b</em>]thiophene-3-carboxylic acid, 2-amino-5,6-dihydro-, ethyl ester;NSC 99004;Ethyl 2-amino-5,6-dihydro-4<em>H</em>-cyclopenta[<em>b</em>]thiophene-3-carboxylate",
    "duplicated_cas_no": "",
    "SMILES": "C(OCC)(=O)C=1C2=C(SC1N)CCC2",
    "meta_data": {
        "InChI": "InChI=1S/C10H13NO2S/c1-2-13-10(12)8-6-4-3-5-7(6)14-9(8)11/h2-5,11H2,1H3",
        "InChIKey": null,
        "Canonical SMILES": "O=C(OCC)C1=C(SC2=C1CCC2)N",
        "Molecular Formula": "C<sub>10</sub>H<sub>13</sub>NO<sub>2</sub>S",
        "Molecular Mass": "211.28",
        "Melting Point": "89-90 °C"
    }
}