{
    "cas_no": "13476-99-8",
    "key_name": "Tris(acetylacetonato)vanadium",
    "cn_name": "乙酰丙酮合钒(Ⅲ);乙酰丙酮合钒(Ⅲ);2,4-戊二酮合钒(Ⅲ);",
    "alternate_name": "Vanadium, tris(2,4-pentanedionato-κ<em>O</em><sup>2</sup>,κ<em>O</em><sup>4</sup>)-, (<em>OC</em>-6-11)-;Vanadium, tris(2,4-pentanedionato)-;Vanadium, tris(2,4-pentanedionato-<em>O</em>,<em>O</em>′)-, (<em>OC</em>-6-11)-;Vanadium, tris(2,4-pentanedionato-κ<em>O</em>,κ<em>O</em>′)-, (<em>OC</em>-6-11)-;(<em>OC</em>-6-11)-Tris(2,4-pentanedionato-κ<em>O</em><sup>2</sup>,κ<em>O</em><sup>4</sup>)vanadium;Tris(acetylacetonato)vanadium;Vanadium tris(acetylacetonate);Tris(2,4-pentanedionato)vanadium;Vanadium(III) acetylacetonate;Vanadium(III) tris(acetylacetonate);Tris(acetylacetonato)vanadium(III);NSC 177701",
    "duplicated_cas_no": "37042-53-8;69976-01-8",
    "SMILES": "CC1=O[V+3]23(O=C(C)[CH-]C(C)=O2)(O=C(C)[CH-]C(C)=O3)O=C(C)[CH-]1",
    "meta_data": {
        "InChI": "InChI=1S/3C5H7O2.V/c3*1-4(6)3-5(2)7;/h3*3H,1-2H3;/q3*-1;+3",
        "InChIKey": null,
        "Canonical SMILES": "O1=C([CH-]C(=O[V+3]123(O=C([CH-]C(=O2)C)C)O=C([CH-]C(=O3)C)C)C)C",
        "Molecular Formula": "C<sub>15</sub>H<sub>21</sub>O<sub>6</sub>V",
        "Molecular Mass": "",
        "Melting Point": "184 °C (polymorph)"
    }
}