{
    "cas_no": "99-16-1",
    "key_name": "Allantoic acid",
    "cn_name": null,
    "alternate_name": "Acetic acid, 2,2-bis[(aminocarbonyl)amino]-;Acetic acid, diureido-;Allantoic acid;Acetic acid, bis[(aminocarbonyl)amino]-;2,2-Bis[(aminocarbonyl)amino]acetic acid;2,2-Diureidoacetic acid",
    "duplicated_cas_no": "",
    "SMILES": "C(NC(N)=O)(NC(N)=O)C(O)=O",
    "meta_data": {
        "InChI": "InChI=1S/C4H8N4O4/c5-3(11)7-1(2(9)10)8-4(6)12/h1H,(H,9,10)(H3,5,7,11)(H3,6,8,12)",
        "InChIKey": null,
        "Canonical SMILES": "O=C(N)NC(NC(=O)N)C(=O)O",
        "Molecular Formula": "C<sub>4</sub>H<sub>8</sub>N<sub>4</sub>O<sub>4</sub>",
        "Molecular Mass": "176.13",
        "Melting Point": "168 °C"
    }
}