{
    "cas_no": "214360-49-3",
    "key_name": "1-[3-(4,4,5,5-Tetramethyl-1,3,2-dioxaborolan-2-yl)phenyl]ethanone",
    "cn_name": null,
    "alternate_name": "Ethanone, 1-[3-(4,4,5,5-tetramethyl-1,3,2-dioxaborolan-2-yl)phenyl]-;1-[3-(4,4,5,5-Tetramethyl-1,3,2-dioxaborolan-2-yl)phenyl]ethanone;2-(3-Acetylphenyl)-4,4,5,5-tetramethyl-1,3,2-dioxaborolane;1-(3-(4,4,5,5-Tetramethyl-1,3,2-dioxaborolan-2-yl)phenyl)ethan-1-one",
    "duplicated_cas_no": "",
    "SMILES": "CC1(C)OB(OC1(C)C)C2=CC(C(C)=O)=CC=C2",
    "meta_data": {
        "InChI": "InChI=1S/C14H19BO3/c1-10(16)11-7-6-8-12(9-11)15-17-13(2,3)14(4,5)18-15/h6-9H,1-5H3",
        "InChIKey": null,
        "Canonical SMILES": "O=C(C=1C=CC=C(C1)B2OC(C)(C)C(O2)(C)C)C",
        "Molecular Formula": "C<sub>14</sub>H<sub>19</sub>BO<sub>3</sub>",
        "Molecular Mass": "246.11",
        "Melting Point": "50.7-52.5 °C"
    }
}