{
    "cas_no": "4001-73-4",
    "key_name": "2-Bromobenzamide",
    "cn_name": "2-溴苯甲酰胺;",
    "alternate_name": "Benzamide, 2-bromo-;Benzamide, <em>o</em>-bromo-;2-Bromobenzamide;<em>o</em>-Bromobenzamide;NSC 10071;2-Carbamoyl-1-bromobenzene",
    "duplicated_cas_no": "",
    "SMILES": "C(N)(=O)C1=C(Br)C=CC=C1",
    "meta_data": {
        "InChI": "InChI=1S/C7H6BrNO/c8-6-4-2-1-3-5(6)7(9)10/h1-4H,(H2,9,10)",
        "InChIKey": null,
        "Canonical SMILES": "O=C(N)C=1C=CC=CC1Br",
        "Molecular Formula": "C<sub>7</sub>H<sub>6</sub>BrNO",
        "Molecular Mass": "200.03",
        "Boiling Point": "158-161 °C @ Press: 12 Torr",
        "Melting Point": "160.5 °C"
    }
}