{
    "cas_no": "101-02-0",
    "key_name": "Triphenyl phosphite",
    "cn_name": "亚磷酸三苯酯;",
    "alternate_name": "Phosphorous acid, triphenyl ester;Phenyl phosphite ((C<sub>6</sub>H<sub>5</sub>O)<sub>3</sub>P);Triphenyl phosphite;Phosclere T 36;TPP;Triphenoxyphosphine;Mellite 310;Advance TPP;JP 360;TP 1 (plasticizer);TP 1;TPP (plasticizer);Weston TPP;Sumilizer TTP-R;Sumilizer TPP-R;Tris(phenoxy)phosphine;ADK Stab TPP;TPP-R;Mark TPP;Doverphos 10;Irgafos TPP;Irgastab CH 55;NSC 43789;NSC 62219;Plastistab 2334;TP-I;Antioxidant TPPi;Antioxidant TPP;JP 30;Tppi;T 0510",
    "duplicated_cas_no": "",
    "SMILES": "P(OC1=CC=CC=C1)(OC2=CC=CC=C2)OC3=CC=CC=C3",
    "meta_data": {
        "InChI": "InChI=1S/C18H15O3P/c1-4-10-16(11-5-1)19-22(20-17-12-6-2-7-13-17)21-18-14-8-3-9-15-18/h1-15H",
        "InChIKey": null,
        "Canonical SMILES": "O(C=1C=CC=CC1)P(OC=2C=CC=CC2)OC=3C=CC=CC3",
        "Molecular Formula": "C<sub>18</sub>H<sub>15</sub>O<sub>3</sub>P",
        "Molecular Mass": "310.28",
        "Boiling Point": "360 °C",
        "Melting Point": "25 °C",
        "Density": "1.1842 g/cm³ @ Temp: 20 °C"
    }
}