{
    "cas_no": "594-34-3",
    "key_name": "2-Bromoisobutyl bromide",
    "cn_name": "1,2-二溴-2-甲基丙烷;",
    "alternate_name": "Propane, 1,2-dibromo-2-methyl-;1,2-Dibromo-2-methylpropane;Isobutylene bromide;NSC 9233;2-Bromoisobutyl bromide",
    "duplicated_cas_no": "",
    "SMILES": "C(CBr)(Br)(C)C",
    "meta_data": {
        "InChI": "InChI=1S/C4H8Br2/c1-4(2,6)3-5/h3H2,1-2H3",
        "InChIKey": null,
        "Canonical SMILES": "BrCC(Br)(C)C",
        "Molecular Formula": "C<sub>4</sub>H<sub>8</sub>Br<sub>2</sub>",
        "Molecular Mass": "215.91",
        "Boiling Point": "150 °C",
        "Melting Point": "10.5 °C",
        "Density": "1.7628 g/cm³ @ Temp: 20 °C"
    }
}