{
    "cas_no": "51-45-6",
    "key_name": "Histamine",
    "cn_name": "组胺;1H-咪唑-4-乙胺;",
    "alternate_name": "1<em>H</em>-Imidazole-5-ethanamine;Histamine;1<em>H</em>-Imidazole-4-ethanamine;Eramin;Ergamine;Ergotidine;5-Imidazoleethylamine;Imidazole-4-ethylamine;β-Imidazolyl-4-ethylamine;2-(4-Imidazolyl)ethylamine;4-(2-Aminoethyl)imidazole;2-(1<em>H</em>-Imidazol-4-yl)ethylamine;2-(4-Imidazolyl)ethanamine;2-(1<em>H</em>-Imidazol-5-yl)ethylamine;2-(1<em>H</em>-Imidazol-4-yl)ethanamine;NSC 33792;2-(1<em>H</em>-Imidazol-5-yl)ethanamine;2-(3<em>H</em>-Imidazol-4-yl)ethylamine;2-(1<em>H</em>-Imidazol-5-yl)ethan-1-amine;2-(1<em>H</em>-Imidazol-4-yl)ethan-1-amine;4-Imidazoleethanamine;MeSH ID: D006632",
    "duplicated_cas_no": "64422-25-9;924364-91-0;1416954-63-6",
    "SMILES": "C(CN)C1=CN=CN1",
    "meta_data": {
        "InChI": "InChI=1S/C5H9N3/c6-2-1-5-3-7-4-8-5/h3-4H,1-2,6H2,(H,7,8)",
        "InChIKey": null,
        "Canonical SMILES": "N1=CNC(=C1)CCN",
        "Molecular Formula": "C<sub>5</sub>H<sub>9</sub>N<sub>3</sub>",
        "Molecular Mass": "111.15",
        "Boiling Point": "209-210 °C @ Press: 18 Torr",
        "Melting Point": "83-84 °C",
        "Density": "1.1933 g/cm³"
    }
}