{
    "cas_no": "6515-37-3",
    "key_name": "4′-Hydroxyflavanone",
    "cn_name": "4\"-羟基黄烷酮;4\"-羟基黄烷酮;",
    "alternate_name": "4<em>H</em>-1-Benzopyran-4-one, 2,3-dihydro-2-(4-hydroxyphenyl)-;Flavanone, 4′-hydroxy-;2,3-Dihydro-2-(4-hydroxyphenyl)-4<em>H</em>-1-benzopyran-4-one;4′-Hydroxyflavanone;(±)-4′-Hydroxyflavanone;STX 310;2-(4-Hydroxyphenyl)chroman-4-one;2-(4-Hydroxyphenyl)-3,4-dihydro-2<em>H</em>-1-benzopyran-4-one;2-(4-Hydroxyphenyl)-2,3-dihydrochromen-4-one",
    "duplicated_cas_no": "24271-95-2",
    "SMILES": "O=C1CC(OC=2C1=CC=CC2)C3=CC=C(O)C=C3",
    "meta_data": {
        "InChI": "InChI=1S/C15H12O3/c16-11-7-5-10(6-8-11)15-9-13(17)12-3-1-2-4-14(12)18-15/h1-8,15-16H,9H2",
        "InChIKey": null,
        "Canonical SMILES": "O=C1C=2C=CC=CC2OC(C3=CC=C(O)C=C3)C1",
        "Molecular Formula": "C<sub>15</sub>H<sub>12</sub>O<sub>3</sub>",
        "Molecular Mass": "240.25",
        "Melting Point": "191 °C"
    }
}