{
    "cas_no": "19156-63-9",
    "key_name": "2-Amino-5-ethyl-3-thiophenecarboxylic acid methyl ester",
    "cn_name": null,
    "alternate_name": "3-Thiophenecarboxylic acid, 2-amino-5-ethyl-, methyl ester;Methyl 5-ethyl-2-amino-thiophene-3-carboxylate;Methyl 2-amino-5-ethyl-3-thiophenecarboxylate;2-Amino-5-ethyl-3-thiophenecarboxylic acid methyl ester",
    "duplicated_cas_no": "",
    "SMILES": "C(OC)(=O)C1=C(N)SC(CC)=C1",
    "meta_data": {
        "InChI": "InChI=1S/C8H11NO2S/c1-3-5-4-6(7(9)12-5)8(10)11-2/h4H,3,9H2,1-2H3",
        "InChIKey": null,
        "Canonical SMILES": "O=C(OC)C=1C=C(SC1N)CC",
        "Molecular Formula": "C<sub>8</sub>H<sub>11</sub>NO<sub>2</sub>S",
        "Molecular Mass": "185.24",
        "Melting Point": "62 °C"
    }
}