{
    "cas_no": "4541-14-4",
    "key_name": "4-Benzyloxybutanol",
    "cn_name": "4-苄氧基-1-丁醇;",
    "alternate_name": "1-Butanol, 4-(phenylmethoxy)-;1-Butanol, 4-(benzyloxy)-;4-(Phenylmethoxy)-1-butanol;Benzyl 4-hydroxybutyl ether;4-(Benzyloxy)-1-butanol;4-Benzyloxybutanol;1,4-Butanediol monobenzyl ether;4-Benzyloxybutyl alcohol",
    "duplicated_cas_no": "",
    "SMILES": "C(OCCCCO)C1=CC=CC=C1",
    "meta_data": {
        "InChI": "InChI=1S/C11H16O2/c12-8-4-5-9-13-10-11-6-2-1-3-7-11/h1-3,6-7,12H,4-5,8-10H2",
        "InChIKey": null,
        "Canonical SMILES": "OCCCCOCC=1C=CC=CC1",
        "Molecular Formula": "C<sub>11</sub>H<sub>16</sub>O<sub>2</sub>",
        "Molecular Mass": "180.24",
        "Boiling Point": "160 °C @ Press: 3 Torr"
    }
}