{
    "cas_no": "558-17-8",
    "key_name": "2-Iodo-2-methylpropane",
    "cn_name": "碘代叔丁烷;叔丁基碘;碘叔丁烷;2-碘-2-甲基丙烷;碘代第三丁烷;特丁基碘;2-碘-2-甲基丙烷, 97%,;",
    "alternate_name": "Propane, 2-iodo-2-methyl-;2-Iodo-2-methylpropane;<em>tert</em>-Butyl iodide;Trimethyliodomethane;2-Methyl-2-iodopropane;<em>t</em>-Butyl iodide;1,1-Dimethylethyl iodide",
    "duplicated_cas_no": "",
    "SMILES": "C(C)(C)(C)I",
    "meta_data": {
        "InChI": "InChI=1S/C4H9I/c1-4(2,3)5/h1-3H3",
        "InChIKey": null,
        "Canonical SMILES": "IC(C)(C)C",
        "Molecular Formula": "C<sub>4</sub>H<sub>9</sub>I",
        "Molecular Mass": "184.02",
        "Boiling Point": "100.1 °C",
        "Melting Point": "-38.2 °C",
        "Density": "1.5445 g/cm³ @ Temp: 20 °C"
    }
}