{
    "cas_no": "933-98-2",
    "key_name": "1-Ethyl-2,3-dimethylbenzene",
    "cn_name": "3-乙基邻二甲苯;",
    "alternate_name": "Benzene, 1-ethyl-2,3-dimethyl-;<em>o</em>-Xylene, 3-ethyl-;1-Ethyl-2,3-dimethylbenzene;1,2-Dimethyl-3-ethylbenzene;3-Ethyl-<em>o</em>-xylene;3-Ethyl-1,2-dimethylbenzene;2,3-Dimethyl-1-ethylbenzene",
    "duplicated_cas_no": "",
    "SMILES": "C(C)C1=C(C)C(C)=CC=C1",
    "meta_data": {
        "InChI": "InChI=1S/C10H14/c1-4-10-7-5-6-8(2)9(10)3/h5-7H,4H2,1-3H3",
        "InChIKey": null,
        "Canonical SMILES": "C=1C=C(C(=C(C1)CC)C)C",
        "Molecular Formula": "C<sub>10</sub>H<sub>14</sub>",
        "Molecular Mass": "134.22",
        "Boiling Point": "194 °C",
        "Melting Point": "-49.5 °C",
        "Density": "0.8920 g/cm³ @ Temp: 20 °C"
    }
}