{
    "cas_no": "1073-06-9",
    "key_name": "1-Bromo-3-fluorobenzene",
    "cn_name": "间溴氟苯;3-氟溴苯;",
    "alternate_name": "Benzene, 1-bromo-3-fluoro-;1-Bromo-3-fluorobenzene;1-Fluoro-3-bromobenzene;<em>m</em>-Bromofluorobenzene;<em>m</em>-Fluorobromobenzene;<em>m</em>-Fluorophenyl bromide;3-Bromofluorobenzene;3-Fluorobromobenzene;3-Fluorophenyl bromide;3-Fluoro-1-bromobenzene;m-Bromofluorobenzene;3-Bromo-1-fluorobenzene;NSC 10267",
    "duplicated_cas_no": "",
    "SMILES": "BrC1=CC(F)=CC=C1",
    "meta_data": {
        "InChI": "InChI=1S/C6H4BrF/c7-5-2-1-3-6(8)4-5/h1-4H",
        "InChIKey": null,
        "Canonical SMILES": "FC1=CC=CC(Br)=C1",
        "Molecular Formula": "C<sub>6</sub>H<sub>4</sub>BrF",
        "Molecular Mass": "175.00",
        "Boiling Point": "150 °C",
        "Density": "1.5862 g/cm³ @ Temp: 25.00 °C"
    }
}