{
    "cas_no": "1455-13-6",
    "key_name": "Methanol-<em>d</em>",
    "cn_name": "氘代甲醇-d;氘代甲醇-D1;",
    "alternate_name": "Methanol-<em>d</em>;Methyl alcohol-<em>d</em>;Methanol (CH<sub>3</sub>OD);Methanol-<em>O</em>-<em>d</em>;Methanol-<em>hydroxy</em>-<em>d</em>;<em>O</em>-Deuteromethanol;Methyl deuteroxide;Methanol-d",
    "duplicated_cas_no": "31074-58-5",
    "SMILES": "CO[2H]",
    "meta_data": {
        "InChI": "InChI=1S/CH4O/c1-2/h2H,1H3/i2D",
        "InChIKey": null,
        "Canonical SMILES": "OC",
        "Molecular Formula": "CH<sub>3</sub>DO",
        "Molecular Mass": "",
        "Boiling Point": "64-65 °C @ Press: 740 Torr"
    }
}