{
    "cas_no": "2001-32-3",
    "key_name": "2-Nitrobenzenepropanoic acid",
    "cn_name": "3-(2-硝基苯基)丙酸;",
    "alternate_name": "Benzenepropanoic acid, 2-nitro-;Hydrocinnamic acid, <em>o</em>-nitro-;2-Nitrobenzenepropanoic acid;3-<em>o</em>-Nitrophenylpropionic acid;3-(2-Nitrophenyl)propanoic acid;NSC 99344;3-(<em>o</em>-Nitrophenyl)propanoic acid",
    "duplicated_cas_no": "",
    "SMILES": "C(CC(O)=O)C1=C(N(=O)=O)C=CC=C1",
    "meta_data": {
        "InChI": "InChI=1S/C9H9NO4/c11-9(12)6-5-7-3-1-2-4-8(7)10(13)14/h1-4H,5-6H2,(H,11,12)",
        "InChIKey": null,
        "Canonical SMILES": "O=C(O)CCC=1C=CC=CC1N(=O)=O",
        "Molecular Formula": "C<sub>9</sub>H<sub>9</sub>NO<sub>4</sub>",
        "Molecular Mass": "195.17",
        "Boiling Point": "216-220 °C @ Press: 12 Torr",
        "Melting Point": "115 °C"
    }
}