{
    "cas_no": "578-58-5",
    "key_name": "2-Methylanisole",
    "cn_name": "2-甲基苯甲醚;邻甲基苯甲醚;邻甲氧基甲苯;",
    "alternate_name": "Benzene, 1-methoxy-2-methyl-;Anisole, <em>o</em>-methyl-;1-Methoxy-2-methylbenzene;<em>o</em>-Cresyl methyl ether;<em>o</em>-Methylanisole;Methyl <em>o</em>-cresyl ether;Methyl <em>o</em>-tolyl ether;2-Methylanisole;<em>o</em>-Methoxytoluene;2-Methoxytoluene;<em>o</em>-Cresol methyl ether;Methyl <em>o</em>-methylphenyl ether;2-Methyl-1-methoxybenzene;2-Cresol methyl ether;NSC 6253;NK 409",
    "duplicated_cas_no": "",
    "SMILES": "O(C)C1=C(C)C=CC=C1",
    "meta_data": {
        "InChI": "InChI=1S/C8H10O/c1-7-5-3-4-6-8(7)9-2/h3-6H,1-2H3",
        "InChIKey": null,
        "Canonical SMILES": "O(C=1C=CC=CC1C)C",
        "Molecular Formula": "C<sub>8</sub>H<sub>10</sub>O",
        "Molecular Mass": "122.16",
        "Boiling Point": "171 °C",
        "Melting Point": "-34.1 °C",
        "Density": "0.9798 g/cm³"
    }
}