{
    "cas_no": "768-33-2",
    "key_name": "Chlorodimethylphenylsilane",
    "cn_name": "苯基二甲基氯硅烷;二甲基苯基氯硅烷;",
    "alternate_name": "Benzene, (chlorodimethylsilyl)-;Silane, chlorodimethylphenyl-;(Chlorodimethylsilyl)benzene;Dimethylphenylchlorosilane;Chlorodimethylphenylsilane;Phenyldimethylchlorosilane;Dimethylphenylsilyl chloride;Phenyldimethylsilyl chloride;NSC 95425;Phenylchlorodimethylsilane;LS 2000",
    "duplicated_cas_no": "",
    "SMILES": "[Si](C)(C)(Cl)C1=CC=CC=C1",
    "meta_data": {
        "InChI": "InChI=1S/C8H11ClSi/c1-10(2,9)8-6-4-3-5-7-8/h3-7H,1-2H3",
        "InChIKey": null,
        "Canonical SMILES": "Cl[Si](C=1C=CC=CC1)(C)C",
        "Molecular Formula": "C<sub>8</sub>H<sub>11</sub>ClSi",
        "Molecular Mass": "170.71",
        "Boiling Point": "192-193 °C",
        "Density": "1.032 g/cm³"
    }
}