{
    "cas_no": "2997-01-5",
    "key_name": "EDR 176",
    "cn_name": "乙二醇二(3-氨丙基)醚;",
    "alternate_name": "1-Propanamine, 3,3′-[1,2-ethanediylbis(oxy)]bis-;Propylamine, 3,3′-(ethylenedioxy)bis-;3,3′-[1,2-Ethanediylbis(oxy)]bis[1-propanamine];1,2-Bis(3-aminopropoxy)ethane;Ethylene glycol bis(3-aminopropyl) ether;Di(3-aminopropoxy)ethane;Bis(3-aminopropoxy)ethane;3,3′-(Ethylenedioxy)bis[propylamine];1,2-Bis(γ-aminopropoxy)ethane;1,10-Diamino-4,7-dioxadecane;4,7-Dioxadecamethylenediamine;4,7-Dioxadecane-1,10-diamine;3,3′-(Ethylenedioxy)dipropanamine;4,7-Dioxa-1,10-diaminodecane;3-[2-(3-Aminopropoxy)ethoxy]propylamine;NDPA 10;XTJ 590;EDR 176;Jeffamine EDR 176;4,7-Dioxadecan-1,10-diamine;2,2′-(Ethylenedioxy)dipropylamine;3,3′-(Ethane-1,2-diylbis(oxy))bis(propan-1-amine);Jeffamine XTJ 590",
    "duplicated_cas_no": "920744-02-1;1188394-98-0",
    "SMILES": "C(COCCCN)OCCCN",
    "meta_data": {
        "InChI": "InChI=1S/C8H20N2O2/c9-3-1-5-11-7-8-12-6-2-4-10/h1-10H2",
        "InChIKey": null,
        "Canonical SMILES": "O(CCOCCCN)CCCN",
        "Molecular Formula": "C<sub>8</sub>H<sub>20</sub>N<sub>2</sub>O<sub>2</sub>",
        "Molecular Mass": "176.26",
        "Boiling Point": "99-105 °C @ Press: 4 Torr",
        "Density": "0.9904 g/cm³ @ Temp: 20 °C"
    }
}