{
    "cas_no": "359-04-6",
    "key_name": "Ethene, 1-chloro-1,2-difluoro-",
    "cn_name": null,
    "alternate_name": "Ethene, 1-chloro-1,2-difluoro-;Ethylene, 1-chloro-1,2-difluoro-;1-Chloro-1,2-difluoroethylene;HCFC 1122a;F 1122a;1-Chloro-1,2-difluoroethene;HCFO 1122a",
    "duplicated_cas_no": "",
    "SMILES": "C(=CF)(Cl)F",
    "meta_data": {
        "InChI": "InChI=1S/C2HClF2/c3-2(5)1-4/h1H",
        "InChIKey": null,
        "Canonical SMILES": "FC=C(F)Cl",
        "Molecular Formula": "C<sub>2</sub>HClF<sub>2</sub>",
        "Molecular Mass": "98.48",
        "Boiling Point": "-15 °C"
    }
}