{
    "cas_no": "103440-53-5",
    "key_name": "Benzoic acid, 4-iodo-2-methyl-, methyl ester",
    "cn_name": null,
    "alternate_name": "Benzoic acid, 4-iodo-2-methyl-, methyl ester;<em>o</em>-Toluic acid, 4-iodo-, methyl ester;Methyl 4-iodo-2-methylbenzoate",
    "duplicated_cas_no": "",
    "SMILES": "C(OC)(=O)C1=C(C)C=C(I)C=C1",
    "meta_data": {
        "InChI": "InChI=1S/C9H9IO2/c1-6-5-7(10)3-4-8(6)9(11)12-2/h3-5H,1-2H3",
        "InChIKey": null,
        "Canonical SMILES": "O=C(OC)C1=CC=C(I)C=C1C",
        "Molecular Formula": "C<sub>9</sub>H<sub>9</sub>IO<sub>2</sub>",
        "Molecular Mass": "276.07",
        "Boiling Point": "155 °C @ Press: 17 Torr"
    }
}