{
    "cas_no": "5660-91-3",
    "key_name": "1,3-Diphenyl-2<em>H</em>-cyclopenta[<em>l</em>]phenanthren-2-one",
    "cn_name": "9,10-菲并1,12-二苯基环戊二烯酮;9,10-菲并1,12-二苯基环戊二烯酮;",
    "alternate_name": "2<em>H</em>-Cyclopenta[<em>l</em>]phenanthren-2-one, 1,3-diphenyl-;1,3-Diphenyl-2<em>H</em>-cyclopenta[<em>l</em>]phenanthren-2-one;Phencyclone;NSC 101867;NSC 101868;NSC 222805;1,3-Diphenylcyclopenta[<em>l</em>]phenanthren-2-one",
    "duplicated_cas_no": "",
    "SMILES": "O=C1C(=C2C(=C1C3=CC=CC=C3)C=4C(C=5C2=CC=CC5)=CC=CC4)C6=CC=CC=C6",
    "meta_data": {
        "InChI": "InChI=1S/C29H18O/c30-29-25(19-11-3-1-4-12-19)27-23-17-9-7-15-21(23)22-16-8-10-18-24(22)28(27)26(29)20-13-5-2-6-14-20/h1-18H",
        "InChIKey": null,
        "Canonical SMILES": "O=C1C(C=2C=CC=CC2)=C3C=4C=CC=CC4C=5C=CC=CC5C3=C1C=6C=CC=CC6",
        "Molecular Formula": "C<sub>29</sub>H<sub>18</sub>O",
        "Molecular Mass": "382.45",
        "Melting Point": "273 °C"
    }
}