{
    "cas_no": "2578-45-2",
    "key_name": "2-Chloro-3,5-dinitropyridine",
    "cn_name": "2-氯-3,5-二硝基吡啶;",
    "alternate_name": "Pyridine, 2-chloro-3,5-dinitro-;2-Chloro-3,5-dinitropyridine;3,5-Dinitro-2-chloropyridine",
    "duplicated_cas_no": "1497480-04-2",
    "SMILES": "N(=O)(=O)C=1C=C(N(=O)=O)C=NC1Cl",
    "meta_data": {
        "InChI": "InChI=1S/C5H2ClN3O4/c6-5-4(9(12)13)1-3(2-7-5)8(10)11/h1-2H",
        "InChIKey": null,
        "Canonical SMILES": "O=N(=O)C1=CN=C(Cl)C(=C1)N(=O)=O",
        "Molecular Formula": "C<sub>5</sub>H<sub>2</sub>ClN<sub>3</sub>O<sub>4</sub>",
        "Molecular Mass": "203.54",
        "Melting Point": "64.5 °C"
    }
}