{
    "cas_no": "1717-00-6",
    "key_name": "1,1-Dichloro-1-fluoroethane",
    "cn_name": "1-氟-1,1-二氯乙烷;氟里昂-141b;",
    "alternate_name": "Ethane, 1,1-dichloro-1-fluoro-;1,1-Dichloro-1-fluoroethane;1-Fluoro-1,1-dichloroethane;Refrigerant 141b;R 141b;HCFC 141b;Dichlorofluoroethane;CFC 141b;Isotron 141b;HFA 141b;Fron 141b;Solkane 141b;F 141b;Daiflon 141b;CG 141b;Forane 141b;Genetron 141b;Forane DGX;Genesolv 2000;Asahiklin AK 141b;Khladon 141b;RC 14;141B;HFC 141b",
    "duplicated_cas_no": "",
    "SMILES": "C(C)(Cl)(Cl)F",
    "meta_data": {
        "InChI": "InChI=1S/C2H3Cl2F/c1-2(3,4)5/h1H3",
        "InChIKey": null,
        "Canonical SMILES": "FC(Cl)(Cl)C",
        "Molecular Formula": "C<sub>2</sub>H<sub>3</sub>Cl<sub>2</sub>F",
        "Molecular Mass": "116.95",
        "Boiling Point": "32 °C",
        "Melting Point": "-103.5 °C",
        "Density": "1.250 g/cm³ @ Temp: 10 °C"
    }
}