{
    "cas_no": "629-94-7",
    "key_name": "Heneicosane",
    "cn_name": "二十一烷;正二十一烷;",
    "alternate_name": "Heneicosane;<em>n</em>-Heneicosane",
    "duplicated_cas_no": "",
    "SMILES": "C(CCCCCCCCCC)CCCCCCCCCC",
    "meta_data": {
        "InChI": "InChI=1S/C21H44/c1-3-5-7-9-11-13-15-17-19-21-20-18-16-14-12-10-8-6-4-2/h3-21H2,1-2H3",
        "InChIKey": null,
        "Canonical SMILES": "CCCCCCCCCCCCCCCCCCCCC",
        "Molecular Formula": "C<sub>21</sub>H<sub>44</sub>",
        "Molecular Mass": "296.57",
        "Boiling Point": "356.5 °C",
        "Melting Point": "40.5 °C",
        "Density": "0.7477 g/cm³ @ Temp: 89 °C"
    }
}