{
    "cas_no": "367-29-3",
    "key_name": "5-Fluoro-2-methylaniline",
    "cn_name": "5-氟-2-甲基苯胺;",
    "alternate_name": "Benzenamine, 5-fluoro-2-methyl-;<em>o</em>-Toluidine, 5-fluoro-;5-Fluoro-2-methylbenzenamine;2-Methyl-5-fluoroaniline;5-Fluoro-2-methylaniline;2-Amino-4-fluorotoluene;3-Fluoro-6-methylaniline;NSC 60730;5-Fluoro-2-methylphenylamine",
    "duplicated_cas_no": "",
    "SMILES": "NC1=C(C)C=CC(F)=C1",
    "meta_data": {
        "InChI": "InChI=1S/C7H8FN/c1-5-2-3-6(8)4-7(5)9/h2-4H,9H2,1H3",
        "InChIKey": null,
        "Canonical SMILES": "FC1=CC=C(C(N)=C1)C",
        "Molecular Formula": "C<sub>7</sub>H<sub>8</sub>FN",
        "Molecular Mass": "125.14",
        "Boiling Point": "100-101 °C @ Press: 16 Torr",
        "Melting Point": "37.5 °C"
    }
}