{
    "cas_no": "4497-58-9",
    "key_name": "2,2,4-Trimethyl-1,2,3,4-tetrahydroquinoline",
    "cn_name": "2,2,4-三甲基-1,2,3,4-四氢喹啉;",
    "alternate_name": "Quinoline, 1,2,3,4-tetrahydro-2,2,4-trimethyl-;1,2,3,4-Tetrahydro-2,2,4-trimethylquinoline;2,2,4-Trimethyl-1,2,3,4-tetrahydroquinoline;2,2,4-Trimethyl-3,4-dihydro-1<em>H</em>-quinoline",
    "duplicated_cas_no": "",
    "SMILES": "CC1C=2C(NC(C)(C)C1)=CC=CC2",
    "meta_data": {
        "InChI": "InChI=1S/C12H17N/c1-9-8-12(2,3)13-11-7-5-4-6-10(9)11/h4-7,9,13H,8H2,1-3H3",
        "InChIKey": null,
        "Canonical SMILES": "C=1C=CC2=C(C1)NC(C)(C)CC2C",
        "Molecular Formula": "C<sub>12</sub>H<sub>17</sub>N",
        "Molecular Mass": "175.27",
        "Boiling Point": "259 °C @ Press: 760 Torr",
        "Melting Point": "39-40 °C"
    }
}