{
    "cas_no": "492-30-8",
    "key_name": "2-C-Methyl-<span class=\"text-smallcaps\">D</span>-ribono-1,4-lactone",
    "cn_name": "2-C-甲基-D-核糖酸-1,4-内酯;",
    "alternate_name": "<span class=\"text-smallcaps\">D</span>-Ribonic acid, 2-<em>C</em>-methyl-, γ-lactone;Ribonic acid, 2-<em>C</em>-methyl-, γ-lactone, <span class=\"text-smallcaps\">D</span>-;2-<em>C</em>-Methyl-<span class=\"text-smallcaps\">D</span>-<em>ribo</em>-pentonic acid γ-lactone;α-<span class=\"text-smallcaps\">D</span>-Glucosaccharinic acid γ-lactone;NSC 19768;NSC 62382;2-C-Methyl-<span class=\"text-smallcaps\">D</span>-ribono-1,4-lactone",
    "duplicated_cas_no": "",
    "SMILES": "C(O)[C@@H]1[C@@H](O)[C@@](C)(O)C(=O)O1",
    "meta_data": {
        "InChI": "InChI=1S/C6H10O5/c1-6(10)4(8)3(2-7)11-5(6)9/h3-4,7-8,10H,2H2,1H3/t3-,4-,6-/m1/s1",
        "InChIKey": null,
        "Canonical SMILES": "O=C1OC(CO)C(O)C1(O)C",
        "Molecular Formula": "C<sub>6</sub>H<sub>10</sub>O<sub>5</sub>",
        "Molecular Mass": "162.14",
        "Melting Point": "158-162 °C"
    }
}