{
    "cas_no": "129-15-7",
    "key_name": "2-Methyl-1-nitroanthraquinone",
    "cn_name": null,
    "alternate_name": "9,10-Anthracenedione, 2-methyl-1-nitro-;Anthraquinone, 2-methyl-1-nitro-;2-Methyl-1-nitro-9,10-anthracenedione;1-Nitro-2-methylanthraquinone;2-Methyl-1-nitroanthraquinone;1-Nitro-2-methyl-9,10-anthraquinone;NSC 8",
    "duplicated_cas_no": "",
    "SMILES": "N(=O)(=O)C1=C2C(C(=O)C=3C(C2=O)=CC=CC3)=CC=C1C",
    "meta_data": {
        "InChI": "InChI=1S/C15H9NO4/c1-8-6-7-11-12(13(8)16(19)20)15(18)10-5-3-2-4-9(10)14(11)17/h2-7H,1H3",
        "InChIKey": null,
        "Canonical SMILES": "O=C1C=2C=CC=CC2C(=O)C=3C1=CC=C(C3N(=O)=O)C",
        "Molecular Formula": "C<sub>15</sub>H<sub>9</sub>NO<sub>4</sub>",
        "Molecular Mass": "267.24",
        "Melting Point": "270-271 °C"
    }
}