{
    "cas_no": "2049-95-8",
    "key_name": "<em>tert</em>-Amylbenzene",
    "cn_name": "叔戊基苯;",
    "alternate_name": "Benzene, (1,1-dimethylpropyl)-;Benzene, <em>tert</em>-pentyl-;(1,1-Dimethylpropyl)benzene;<em>tert</em>-Pentylbenzene;<em>tert</em>-Amylbenzene;2-Methyl-2-phenylbutane;Hizol P;NSC 4025;(2-Methylbutan-2-yl)benzene;2-Methylbutan-2-ylbenzene",
    "duplicated_cas_no": "",
    "SMILES": "C(CC)(C)(C)C1=CC=CC=C1",
    "meta_data": {
        "InChI": "InChI=1S/C11H16/c1-4-11(2,3)10-8-6-5-7-9-10/h5-9H,4H2,1-3H3",
        "InChIKey": null,
        "Canonical SMILES": "C=1C=CC(=CC1)C(C)(C)CC",
        "Molecular Formula": "C<sub>11</sub>H<sub>16</sub>",
        "Molecular Mass": "148.24",
        "Boiling Point": "192.4 °C",
        "Density": "0.8720 g/cm³"
    }
}