{
    "cas_no": "330-84-7",
    "key_name": "1-Fluoro-4-phenoxybenzene",
    "cn_name": "4-氟二苯醚;",
    "alternate_name": "Benzene, 1-fluoro-4-phenoxy-;Ether, <em>p</em>-fluorophenyl phenyl;1-Fluoro-4-phenoxybenzene;<em>p</em>-Fluorophenyl phenyl ether;4-Fluorophenyl phenyl ether;4-Fluorodiphenyl ether;NSC 51798;4-Phenoxy-1-fluorobenzene",
    "duplicated_cas_no": "",
    "SMILES": "O(C1=CC=C(F)C=C1)C2=CC=CC=C2",
    "meta_data": {
        "InChI": "InChI=1S/C12H9FO/c13-10-6-8-12(9-7-10)14-11-4-2-1-3-5-11/h1-9H",
        "InChIKey": null,
        "Canonical SMILES": "FC1=CC=C(OC=2C=CC=CC2)C=C1",
        "Molecular Formula": "C<sub>12</sub>H<sub>9</sub>FO",
        "Molecular Mass": "188.20",
        "Boiling Point": "254-255 °C @ Press: 740 Torr",
        "Density": "1.1523 g/cm³ @ Temp: 16 °C"
    }
}