{
    "cas_no": "2051-33-4",
    "key_name": "(±)-Tetrahydrolavandulol",
    "cn_name": "四氢薰衣草醇;四氢拉凡醇;",
    "alternate_name": "1-Hexanol, 5-methyl-2-(1-methylethyl)-;1-Hexanol, 2-isopropyl-5-methyl-;5-Methyl-2-(1-methylethyl)-1-hexanol;2-Isopropyl-5-methyl-1-hexanol;NSC 65622;(±)-Tetrahydrolavandulol;2-Isopropyl-5-methylhexan-1-ol;5-Methyl-2-isopropylhexyl alcohol",
    "duplicated_cas_no": "",
    "SMILES": "C(CCC(C)C)(C(C)C)CO",
    "meta_data": {
        "InChI": "InChI=1S/C10H22O/c1-8(2)5-6-10(7-11)9(3)4/h8-11H,5-7H2,1-4H3",
        "InChIKey": null,
        "Canonical SMILES": "OCC(CCC(C)C)C(C)C",
        "Molecular Formula": "C<sub>10</sub>H<sub>22</sub>O",
        "Molecular Mass": "158.28",
        "Boiling Point": "211 °C",
        "Density": "0.8366 g/cm³ @ Temp: 17 °C"
    }
}