{
    "cas_no": "18339-94-1",
    "key_name": "2,2-Dimethyl-1,3,6,9-tetraoxa-2-silacycloundecane",
    "cn_name": null,
    "alternate_name": "1,3,6,9-Tetraoxa-2-silacycloundecane, 2,2-dimethyl-;2,2-Dimethyl-1,3,6,9-tetraoxa-2-silacycloundecane",
    "duplicated_cas_no": "",
    "SMILES": "C[Si]1(C)OCCOCCOCCO1",
    "meta_data": {
        "InChI": "InChI=1S/C8H18O4Si/c1-13(2)11-7-5-9-3-4-10-6-8-12-13/h3-8H2,1-2H3",
        "InChIKey": null,
        "Canonical SMILES": "O1CCOCCO[Si](OCC1)(C)C",
        "Molecular Formula": "C<sub>8</sub>H<sub>18</sub>O<sub>4</sub>Si",
        "Molecular Mass": "206.31",
        "Boiling Point": "96 °C @ Press: 9 Torr",
        "Density": "1.070 g/cm³"
    }
}