{
    "cas_no": "3330-15-2",
    "key_name": "1,1,1,2,2,3,3-Heptafluoro-3-(1,2,2,2-tetrafluoroethoxy)propane",
    "cn_name": "七氟丙基1,2,2,2-四氟乙醚;",
    "alternate_name": "Propane, 1,1,1,2,2,3,3-heptafluoro-3-(1,2,2,2-tetrafluoroethoxy)-;Ether, heptafluoropropyl 1,2,2,2-tetrafluoroethyl;1,1,1,2,2,3,3-Heptafluoro-3-(1,2,2,2-tetrafluoroethoxy)propane;1,2,2,2-Tetrafluoroethyl heptafluoropropyl ether;Du Pont E 1;Freon E 1;Heptafluoropropyl 1,2,2,2-tetrafluoroethyl ether",
    "duplicated_cas_no": "",
    "SMILES": "C(C(C(F)(F)F)(F)F)(OC(C(F)(F)F)F)(F)F",
    "meta_data": {
        "InChI": "InChI=1S/C5HF11O/c6-1(2(7,8)9)17-5(15,16)3(10,11)4(12,13)14/h1H",
        "InChIKey": null,
        "Canonical SMILES": "FC(OC(F)(F)C(F)(F)C(F)(F)F)C(F)(F)F",
        "Molecular Formula": "C<sub>5</sub>HF<sub>11</sub>O",
        "Molecular Mass": "286.04",
        "Boiling Point": "41 °C"
    }
}