{
    "cas_no": "550-70-9",
    "key_name": "Triprolidine hydrochloride",
    "cn_name": "2-(1-(4-甲基苯基)-3-(1-吡咯烷基)-1-丙烯基)吡啶盐酸盐;2-(1-(4-甲基苯基)-3-(1-吡咯烷基)-1-丙烯基)吡啶;",
    "alternate_name": "Pyridine, 2-[(1<em>E</em>)-1-(4-methylphenyl)-3-(1-pyrrolidinyl)-1-propen-1-yl]-, hydrochloride (1:1);Pyridine, 2-[3-(1-pyrrolidinyl)-1-<em>p</em>-tolylpropenyl]-, monohydrochloride, (<em>E</em>)-;Pyridine, 2-[1-(4-methylphenyl)-3-(1-pyrrolidinyl)-1-propenyl]-, monohydrochloride, (<em>E</em>)-;Pyridine, 2-[(1<em>E</em>)-1-(4-methylphenyl)-3-(1-pyrrolidinyl)-1-propenyl]-, monohydrochloride;Actidilat;<em>trans</em>-1-(4-Methylphenyl)-1-(2-pyridyl)-3-pyrrolidinoprop-1-ene hydrochloride;Triprolidine hydrochloride;<em>trans</em>-2-[3-(1-Pyrrolidinyl)-1-(<em>p</em>-tolyl)propenyl]pyridine hydrochloride;Actidil;295C51;Pro-Actidil;Entra;Pro-Entra;Venen;Actidilon;<em>trans</em>-Triprolidine hydrochloride",
    "duplicated_cas_no": "",
    "SMILES": "C(=C\\CN1CCCC1)(\\C2=CC=C(C)C=C2)/C3=CC=CC=N3.Cl",
    "meta_data": {
        "InChI": "InChI=1S/C19H22N2.ClH/c1-16-7-9-17(10-8-16)18(19-6-2-3-12-20-19)11-15-21-13-4-5-14-21;/h2-3,6-12H,4-5,13-15H2,1H3;1H/b18-11+;",
        "InChIKey": null,
        "Canonical SMILES": "Cl.N=1C=CC=CC1C(=CCN2CCCC2)C3=CC=C(C=C3)C",
        "Molecular Formula": "C<sub>19</sub>H<sub>22</sub>N<sub>2</sub>.ClH",
        "Molecular Mass": "",
        "Melting Point": "116-118 °C"
    }
}