{
    "cas_no": "120-57-0",
    "key_name": "1,3-Benzodioxole-5-carboxaldehyde",
    "cn_name": "胡椒醛;洋茉莉醛;3,4-亚甲基二氧苯甲醛;",
    "alternate_name": "1,3-Benzodioxole-5-carboxaldehyde;Piperonal;Heliotropin;Heliotropine;Piperonaldehyde;Protocatechuic aldehyde methylene ether;3,4-Dihydroxybenzaldehyde methylene ketal;Piperonylaldehyde;3,4-(Methylenedioxy)benzaldehyde;5-Formyl-1,3-benzodioxole;Geliotropin;3,4-Dimethylenedioxybenzaldehyde;5-Formylbenzodioxole;5-Formyl-1,3-benzodioxolane;2<em>H</em>-Benzo[3,4-<em>d</em>]-1,3-dioxolan-5-ylformaldehyde;NSC 26826;Benzo[<em>d</em>][1,3]dioxole-5-carboxaldehyde;Benzo[1,3]dioxole-5-carbaldehyde;Benzo[<em>d</em>][1,3]dioxole-5-carbaldehyde;2<em>H</em>-1,3-Benzodioxole-5-carboxaldehyde;Benzo[<em>d</em>][1,3]dioxol-5-carboxaldehyde;2<em>H</em>-1,3-Benzodioxole-5-carbaldehyde",
    "duplicated_cas_no": "30024-74-9;659726-32-6;1989611-55-3",
    "SMILES": "C(=O)C=1C=C2C(=CC1)OCO2",
    "meta_data": {
        "InChI": "InChI=1S/C8H6O3/c9-4-6-1-2-7-8(3-6)11-5-10-7/h1-4H,5H2",
        "InChIKey": null,
        "Canonical SMILES": "O=CC1=CC=C2OCOC2=C1",
        "Molecular Formula": "C<sub>8</sub>H<sub>6</sub>O<sub>3</sub>",
        "Molecular Mass": "150.13",
        "Boiling Point": "263 °C @ Press: 760 Torr",
        "Melting Point": "37 °C"
    }
}