{
    "cas_no": "69888-86-4",
    "key_name": "Tetradecanoic acid, 2,5-dioxo-1-pyrrolidinyl ester",
    "cn_name": "N-琥珀酰亚胺基豆蔻酸;",
    "alternate_name": "Tetradecanoic acid, 2,5-dioxo-1-pyrrolidinyl ester;2,5-Pyrrolidinedione, 1-[(1-oxotetradecyl)oxy]-;<em>N</em>-Hydroxysuccinimide myristate;Tetradecanoic acid <em>N</em>-hydroxysuccinimide ester;Myristic acid <em>N</em>-hydroxysuccinimide ester;Succinimidyl tetradecanoate;2,5-Dioxopyrrolidin-1-yl tetradecanoate",
    "duplicated_cas_no": "",
    "SMILES": "O(C(CCCCCCCCCCCCC)=O)N1C(=O)CCC1=O",
    "meta_data": {
        "InChI": "InChI=1S/C18H31NO4/c1-2-3-4-5-6-7-8-9-10-11-12-13-18(22)23-19-16(20)14-15-17(19)21/h2-15H2,1H3",
        "InChIKey": null,
        "Canonical SMILES": "O=C(ON1C(=O)CCC1=O)CCCCCCCCCCCCC",
        "Molecular Formula": "C<sub>18</sub>H<sub>31</sub>NO<sub>4</sub>",
        "Molecular Mass": "325.44",
        "Melting Point": "85-86 °C"
    }
}