{
    "cas_no": "2169-64-4",
    "key_name": "Azaribine",
    "cn_name": "6-氮杂尿苷-2,3,5-三乙酸酯;阿托立平;氮尿苷乙酯;阿扎立平;",
    "alternate_name": "1,2,4-Triazine-3,5(2<em>H</em>,4<em>H</em>)-dione, 2-(2,3,5-tri-<em>O</em>-acetyl-β-<span class=\"text-smallcaps\">D</span>-ribofuranosyl)-;<em>as</em>-Triazine-3,5(2<em>H</em>,4<em>H</em>)-dione, 2-β-<span class=\"text-smallcaps\">D</span>-ribofuranosyl-, 2′,3′,5′-triacetate;2-(2,3,5-Tri-<em>O</em>-acetyl-β-<span class=\"text-smallcaps\">D</span>-ribofuranosyl)-1,2,4-triazine-3,5(2<em>H</em>,4<em>H</em>)-dione;CB 304;Azaribine;Triazure;2′,3′,5′-Tri-<em>O</em>-acetyl-6-azauridine;6-Azauridine triacetate;Azaribin;6-Aza-2′,3′,5′-tri-<em>O</em>-acetyluridine;NSC 67239",
    "duplicated_cas_no": "",
    "SMILES": "O(C(C)=O)[C@H]1[C@@H](O[C@H](COC(C)=O)[C@H]1OC(C)=O)N2C(=O)NC(=O)C=N2",
    "meta_data": {
        "InChI": "InChI=1S/C14H17N3O9/c1-6(18)23-5-9-11(24-7(2)19)12(25-8(3)20)13(26-9)17-14(22)16-10(21)4-15-17/h4,9,11-13H,5H2,1-3H3,(H,16,21,22)/t9-,11-,12-,13-/m1/s1",
        "InChIKey": null,
        "Canonical SMILES": "O=C(OCC1OC(N2N=CC(=O)NC2=O)C(OC(=O)C)C1OC(=O)C)C",
        "Molecular Formula": "C<sub>14</sub>H<sub>17</sub>N<sub>3</sub>O<sub>9</sub>",
        "Molecular Mass": "371.30",
        "Melting Point": "99-101 °C"
    }
}