{
    "cas_no": "78113-36-7",
    "key_name": "Romurtide",
    "cn_name": "罗莫肽;罗莫泰德;",
    "alternate_name": "<span class=\"text-smallcaps\">L</smallcap>-Lysine, <em>N</em>-(<em>N</em>-acetylmuramoyl)-<smallcap>L</smallcap>-alanyl-<smallcap>D</span>-α-glutaminyl-<em>N</em><sup>6</sup>-(1-oxooctadecyl)-;<span class=\"text-smallcaps\">L</smallcap>-Lysine, <em>N</em><sup>2</sup>-[<em>N</em><sup>2</sup>-[<em>N</em>-(<em>N</em>-acetylmuramoyl)-<smallcap>L</smallcap>-alanyl]-<smallcap>D</span>-α-glutaminyl]-<em>N</em><sup>6</sup>-(1-oxooctadecyl)-;<em>N</em>-(<em>N</em>-Acetylmuramoyl)-<span class=\"text-smallcaps\">L</smallcap>-alanyl-<smallcap>D</smallcap>-α-glutaminyl-<em>N</em><sup>6</sup>-(1-oxooctadecyl)-<smallcap>L</span>-lysine;<em>N</em><sup>α</sup>-Acetylmuramoyl-<span class=\"text-smallcaps\">L</smallcap>-alanyl-<smallcap>D</smallcap>-isoglutaminyl-<em>N</em><sup>ε</sup>-stearoyl-<smallcap>L</span>-lysine;MDP-Lys(L 18);Muroctasin;Romurtide;Muroctasine;DJ 7041;Nopia;1: PN: WO2009033811 PAGE: 103 claimed protein",
    "duplicated_cas_no": "102604-65-9;124436-09-5;83175-69-3;94616-69-0",
    "SMILES": "[C@H]([C@@H](NC(C)=O)C=O)(O[C@@H](C(N[C@H](C(N[C@H](CCC(N[C@@H](CCCCNC(CCCCCCCCCCCCCCCCC)=O)C(O)=O)=O)C(N)=O)=O)C)=O)C)[C@@H]([C@@H](CO)O)O",
    "meta_data": {
        "InChI": "InChI=1S/C43H78N6O13/c1-5-6-7-8-9-10-11-12-13-14-15-16-17-18-19-23-36(54)45-26-21-20-22-33(43(60)61)48-37(55)25-24-32(40(44)57)49-41(58)29(2)46-42(59)30(3)62-39(38(56)35(53)28-51)34(27-50)47-31(4)52/h27,29-30,32-35,38-39,51,53,56H,5-26,28H2,1-4H3,(H2,44,57)(H,45,54)(H,46,59)(H,47,52)(H,48,55)(H,49,58)(H,60,61)/t29-,30+,32+,33-,34-,35+,38+,39+/m0/s1",
        "InChIKey": null,
        "Canonical SMILES": "O=CC(NC(=O)C)C(OC(C(=O)NC(C(=O)NC(C(=O)N)CCC(=O)NC(C(=O)O)CCCCNC(=O)CCCCCCCCCCCCCCCCC)C)C)C(O)C(O)CO",
        "Molecular Formula": "C<sub>43</sub>H<sub>78</sub>N<sub>6</sub>O<sub>13</sub>",
        "Molecular Mass": "887.11",
        "Melting Point": "176-178 °C"
    }
}