{
    "cas_no": "87639-57-4",
    "key_name": "1,2-Benzenedicarboxylic acid, 4-bromo-, 1,2-dimethyl ester",
    "cn_name": null,
    "alternate_name": "1,2-Benzenedicarboxylic acid, 4-bromo-, 1,2-dimethyl ester;1,2-Benzenedicarboxylic acid, 4-bromo-, dimethyl ester;Dimethyl 4-bromophthalate;4-Bromophthalic acid dimethyl ester;Dimethyl 4-bromo-1,2-benzenedicarboxylate;1,2-Dimethyl 4-bromobenzene-1,2-dicarboxylate",
    "duplicated_cas_no": "",
    "SMILES": "C(OC)(=O)C1=C(C(OC)=O)C=CC(Br)=C1",
    "meta_data": {
        "InChI": "InChI=1S/C10H9BrO4/c1-14-9(12)7-4-3-6(11)5-8(7)10(13)15-2/h3-5H,1-2H3",
        "InChIKey": null,
        "Canonical SMILES": "O=C(OC)C1=CC=C(Br)C=C1C(=O)OC",
        "Molecular Formula": "C<sub>10</sub>H<sub>9</sub>BrO<sub>4</sub>",
        "Molecular Mass": "273.08",
        "Boiling Point": "177-178 °C @ Press: 13 Torr",
        "Melting Point": "33-35 °C"
    }
}