{
    "cas_no": "10534-89-1",
    "key_name": "Hexaamminecobalt(3+) trichloride",
    "cn_name": null,
    "alternate_name": "Cobalt(3+), hexaammine-, chloride (1:3), (<em>OC</em>-6-11)-;Cobalt(3+), hexaammine-, trichloride, (<em>OC</em>-6-11)-;Cobalt(3+), hexaammine-, trichloride;Hexaaminecobalt trichloride;Cobalt-hexamine chloride;Hexaamminecobalt chloride;Hexaamminecobalt trichloride;Hexaminecobalt(3+) trichloride;Hexamminecobalt(III) chloride;Hexaamminecobalt(3+) trichloride;Hexaminocobaltic chloride;Hexaaminecobalt(3+) trichloride;Cobalt hexammine chloride;Hexaamminecobalt(III) chloride;Hexaamminetrichlorocobalt;Cobalt hexaammine trichloride;NSC 4317;Hexaamminecobalt(III) trichloride",
    "duplicated_cas_no": "15528-31-1",
    "SMILES": "[Co+3]([NH3])([NH3])([NH3])([NH3])([NH3])[NH3].[Cl-]",
    "meta_data": {
        "InChI": "InChI=1S/3ClH.Co.6H3N/h3*1H;;6*1H3/q;;;+3;;;;;;/p-3",
        "InChIKey": null,
        "Canonical SMILES": "[Cl-].[NH3][Co+3]([NH3])([NH3])([NH3])([NH3])[NH3]",
        "Molecular Formula": "Cl.<sup>1</sup>/<sub>3</sub>CoH<sub>18</sub>N<sub>6</sub>",
        "Molecular Mass": "",
        "Melting Point": "286 °C",
        "Density": "1.74 g/cm³"
    }
}