{
    "cas_no": "6974-97-6",
    "key_name": "4,7-Dimethyl-1<em>H</em>-indene",
    "cn_name": "4,7-Dimethyl-1H-indene;",
    "alternate_name": "1<em>H</em>-Indene, 4,7-dimethyl-;Indene, 4,7-dimethyl-;4,7-Dimethyl-1<em>H</em>-indene;4,7-Dimethylindene;NSC 22051",
    "duplicated_cas_no": "",
    "SMILES": "CC1=C2C(=C(C)C=C1)C=CC2",
    "meta_data": {
        "InChI": "InChI=1S/C11H12/c1-8-6-7-9(2)11-5-3-4-10(8)11/h3-4,6-7H,5H2,1-2H3",
        "InChIKey": null,
        "Canonical SMILES": "C=1C=C(C2=C(C=CC2)C1C)C",
        "Molecular Formula": "C<sub>11</sub>H<sub>12</sub>",
        "Molecular Mass": "144.21",
        "Boiling Point": "63-65 °C @ Press: 1.7 Torr"
    }
}