{
    "cas_no": "87691-87-0",
    "key_name": "3-(1-Piperazinyl)-1,2-benzisothiazole",
    "cn_name": "4-(1,2-苯并异噻唑-3-基)-1-哌嗪;3-(1-哌嗪基)-1,2-苯并异噻唑;",
    "alternate_name": "1,2-Benzisothiazole, 3-(1-piperazinyl)-;3-(1-Piperazinyl)-1,2-benzisothiazole;<em>N</em>-(3-Benzisothiazolyl)piperazine;1-(1,2-Benzisothiazol-3-yl)piperazine;MJ 14069;1-(Benzoisothiazol-3-yl)piperazine;ID 11614;3-(Piperazin-1-yl)benzoisothiazole;3-Piperazin-1-yl-benzo[<em>d</em>]isothiazole;1-(Benzisothiazol-3-yl)piperazine;3-(1-Piperazinyl)-1,2-benzothiazole;4-(1,2-Benzisothiazol-3-yl)-1-piperazine",
    "duplicated_cas_no": "",
    "SMILES": "C=1(C=2C(SN1)=CC=CC2)N3CCNCC3",
    "meta_data": {
        "InChI": "InChI=1S/C11H13N3S/c1-2-4-10-9(3-1)11(13-15-10)14-7-5-12-6-8-14/h1-4,12H,5-8H2",
        "InChIKey": null,
        "Canonical SMILES": "N=1SC=2C=CC=CC2C1N3CCNCC3",
        "Molecular Formula": "C<sub>11</sub>H<sub>13</sub>N<sub>3</sub>S",
        "Molecular Mass": "219.31",
        "Melting Point": "87-91 °C"
    }
}