{
    "cas_no": "4430-51-7",
    "key_name": "1,4-Diisothiocyanatobutane",
    "cn_name": null,
    "alternate_name": "Butane, 1,4-diisothiocyanato-;Isothiocyanic acid, tetramethylene ester;1,4-Diisothiocyanatobutane;Tetramethylene diisothiocyanate",
    "duplicated_cas_no": "",
    "SMILES": "C(CCN=C=S)CN=C=S",
    "meta_data": {
        "InChI": "InChI=1S/C6H8N2S2/c9-5-7-3-1-2-4-8-6-10/h1-4H2",
        "InChIKey": null,
        "Canonical SMILES": "S=C=NCCCCN=C=S",
        "Molecular Formula": "C<sub>6</sub>H<sub>8</sub>N<sub>2</sub>S<sub>2</sub>",
        "Molecular Mass": "172.27",
        "Boiling Point": "170 °C @ Press: 11 Torr",
        "Density": "1.2107 g/cm³ @ Temp: 21.5 °C"
    }
}