{
    "cas_no": "19869-42-2",
    "key_name": "4<em>H</em>-Azepin-4-one, hexahydro-1-methyl-, hydrochloride (1:1)",
    "cn_name": "1-甲基六氢氮杂卓-4-酮盐酸盐;",
    "alternate_name": "4<em>H</em>-Azepin-4-one, hexahydro-1-methyl-, hydrochloride (1:1);4<em>H</em>-Azepin-4-one, hexahydro-1-methyl-, hydrochloride;1-Methylhexahydro-4-azepinone hydrochloride;1-Methylhexahydroazepin-4-one hydrochloride;1-Methylazepan-4-one hydrochloride;<em>N</em>-Methylazepan-4-one hydrochloride;1-Methyl-1,2,3,5,6,7-hexahydroazepin-4-one hydrochloride",
    "duplicated_cas_no": "",
    "SMILES": "O=C1CCN(C)CCC1.Cl",
    "meta_data": {
        "InChI": "InChI=1S/C7H13NO.ClH/c1-8-5-2-3-7(9)4-6-8;/h2-6H2,1H3;1H",
        "InChIKey": null,
        "Canonical SMILES": "Cl.O=C1CCN(C)CCC1",
        "Molecular Formula": "C<sub>7</sub>H<sub>13</sub>NO.ClH",
        "Molecular Mass": "",
        "Melting Point": "166.5-167 °C"
    }
}