{
    "cas_no": "14110-64-6",
    "key_name": "Cytochalasin A",
    "cn_name": "细胞松驰素 A;",
    "alternate_name": "2<em>H</em>-Oxacyclotetradecino[2,3-<em>d</em>]isoindole-2,5,18-trione, 6,7,8,9,10,12a,13,14,15,15a,16,17-dodecahydro-13-hydroxy-9,15-dimethyl-14-methylene-16-(phenylmethyl)-, (3<em>E</em>,9<em>R</em>,11<em>E</em>,12a<em>S</em>,13<em>S</em>,15<em>S</em>,15a<em>S</em>,16<em>S</em>,18a<em>S</em>)-;2<em>H</em>-Oxacyclotetradecino[2,3-<em>d</em>]isoindole-2,5,18-trione, 16-benzyl-6,7,8,9,10,12a,13,14,15,15a,16,17-dodecahydro-13-hydroxy-9,15-dimethyl-14-methylene-;24-Oxa[14]cytochalasa-6(12),13,21-triene-1,20,23-trione, 7-hydroxy-16-methyl-10-phenyl-, (7<em>S</em>,13<em>E</em>,16<em>R</em>,21<em>E</em>)-;(3<em>E</em>,9<em>R</em>,11<em>E</em>,12a<em>S</em>,13<em>S</em>,15<em>S</em>,15a<em>S</em>,16<em>S</em>,18a<em>S</em>)-6,7,8,9,10,12a,13,14,15,15a,16,17-Dodecahydro-13-hydroxy-9,15-dimethyl-14-methylene-16-(phenylmethyl)-2<em>H</em>-oxacyclotetradecino[2,3-<em>d</em>]isoindole-2,5,18-trione;5-Dehydrophomin;Phomin, 5,5-didehydro-;Cytochalasin A;Dehydrophomin;5,5-Didehydrophomin;2<em>H</em>-Oxacyclotetradecino[2,3-<em>d</em>]isoindole-2,5,18-trione, 6,7,8,9,10,12a,13,14,15,15a,16,17-dodecahydro-13-hydroxy-9,15-dimethyl-14-methylene-16-(phenylmethyl)-, [9<em>R</em>-(3<em>E</em>,9<em>R</em>*,11<em>E</em>,12a<em>S</em>*,13<em>S</em>*,15<em>S</em>*,15a<em>S</em>*,16<em>S</em>*,18a<em>S</em>*)]-;NSC 174119",
    "duplicated_cas_no": "11032-94-3;11041-99-9",
    "SMILES": "",
    "meta_data": {
        "InChI": "",
        "InChIKey": null,
        "Canonical SMILES": "",
        "Molecular Formula": "C<sub>29</sub>H<sub>35</sub>NO<sub>5</sub>",
        "Molecular Mass": "477.59",
        "Melting Point": "185-187 °C"
    }
}