{
    "cas_no": "219834-95-4",
    "key_name": "<em>B</em>-(4-Methoxy-1-naphthalenyl)boronic acid",
    "cn_name": null,
    "alternate_name": "Boronic acid, <em>B</em>-(4-methoxy-1-naphthalenyl)-;Boronic acid, (4-methoxy-1-naphthalenyl)-;<em>B</em>-(4-Methoxy-1-naphthalenyl)boronic acid;(4-Methoxynaphthalen-1-yl)boronic acid;(4-Methoxy-1-naphthyl)boronic acid",
    "duplicated_cas_no": "1643806-47-6",
    "SMILES": "B(O)(O)C=1C2=C(C(OC)=CC1)C=CC=C2",
    "meta_data": {
        "InChI": "InChI=1S/C11H11BO3/c1-15-11-7-6-10(12(13)14)8-4-2-3-5-9(8)11/h2-7,13-14H,1H3",
        "InChIKey": null,
        "Canonical SMILES": "OB(O)C1=CC=C(OC)C=2C=CC=CC12",
        "Molecular Formula": "C<sub>11</sub>H<sub>11</sub>BO<sub>3</sub>",
        "Molecular Mass": "202.01",
        "Melting Point": "195 °C"
    }
}