{
    "cas_no": "40290-32-2",
    "key_name": "(±)-1,2-Dipalmitoylglycerol",
    "cn_name": null,
    "alternate_name": "Hexadecanoic acid, 1,1′-[1-(hydroxymethyl)-1,2-ethanediyl] ester;Hexadecanoic acid, 1-(hydroxymethyl)-1,2-ethanediyl ester, (±)-;Hexadecanoic acid, 1-(hydroxymethyl)-1,2-ethanediyl ester;<em>rac</em>-Glycerol 1,2-dipalmitate;(±)-1,2-Dipalmitoylglycerol;1,2-Dipalmitoyl-<span class=\"text-smallcaps\">D</smallcap><smallcap>L</span>-glycerol;(<em>RS</em>)-1,2-Dipalmitin;(±)-1,2-Dipalmitoylglycerin;<em>rac</em>-1,2-Dipalmitoylglycerol;1,2-Dipalmitoyl-<em>rac</em>-glycerol;(±)-1,2-Dipalmitin;1,2-Dipalmitin;Glycerol 1,2-dipalmitate;1,2-Dipalmitoylglycerol;2,3-Dipalmitin;(±)-1-(Hydroxymethyl)ethane-1,2-diyl dipalmitate;Glycerol 1,2-dihexadecanoate;1-(Hexadecanoyloxy)-3-hydroxypropan-2-yl hexadecanoate",
    "duplicated_cas_no": "761-35-3;146952-97-8",
    "SMILES": "C(OC(CCCCCCCCCCCCCCC)=O)(COC(CCCCCCCCCCCCCCC)=O)CO",
    "meta_data": {
        "InChI": "InChI=1S/C35H68O5/c1-3-5-7-9-11-13-15-17-19-21-23-25-27-29-34(37)39-32-33(31-36)40-35(38)30-28-26-24-22-20-18-16-14-12-10-8-6-4-2/h33,36H,3-32H2,1-2H3",
        "InChIKey": null,
        "Canonical SMILES": "O=C(OCC(OC(=O)CCCCCCCCCCCCCCC)CO)CCCCCCCCCCCCCCC",
        "Molecular Formula": "C<sub>35</sub>H<sub>68</sub>O<sub>5</sub>",
        "Molecular Mass": "568.91",
        "Melting Point": "64 °C"
    }
}