{
    "cas_no": "1137-73-1",
    "key_name": "<em>N</em>-Phenyliminodiacetic acid",
    "cn_name": "N-苯基亚胺二乙酸;N-苯基亚氨基二乙酸;",
    "alternate_name": "Glycine, <em>N</em>-(carboxymethyl)-<em>N</em>-phenyl-;Acetic acid, (phenylimino)di-;<em>N</em>-(Carboxymethyl)-<em>N</em>-phenylglycine;<em>N</em>-(Carboxymethyl)anilinoacetic acid;(Phenylimino)diacetic acid;Anilinediacetic acid;<em>N</em>-Phenyliminodiacetic acid;Anilinodiacetic acid;NSC 105534;2,2′-(Phenylazanediyl)diacetic acid;2-[<em>N</em>-(Carboxymethyl)anilino]acetic acid;2-[(Carboxymethyl)(phenyl)amino]acetic acid",
    "duplicated_cas_no": "",
    "SMILES": "N(CC(O)=O)(CC(O)=O)C1=CC=CC=C1",
    "meta_data": {
        "InChI": "InChI=1S/C10H11NO4/c12-9(13)6-11(7-10(14)15)8-4-2-1-3-5-8/h1-5H,6-7H2,(H,12,13)(H,14,15)",
        "InChIKey": null,
        "Canonical SMILES": "O=C(O)CN(C=1C=CC=CC1)CC(=O)O",
        "Molecular Formula": "C<sub>10</sub>H<sub>11</sub>NO<sub>4</sub>",
        "Molecular Mass": "209.20",
        "Melting Point": "150 °C"
    }
}