{
    "cas_no": "289042-11-1",
    "key_name": "Methyl 4-(4-fluorophenyl)-6-(1-methylethyl)-2-[methyl(methylsulfonyl)amino]-5-pyrimidinecarboxylate",
    "cn_name": "4-(4-氟苯基)-6-异丙基-2-[(N-甲基-N-甲磺酰)氨基]嘧啶-5-羧酸甲酯;",
    "alternate_name": "5-Pyrimidinecarboxylic acid, 4-(4-fluorophenyl)-6-(1-methylethyl)-2-[methyl(methylsulfonyl)amino]-, methyl ester;Methyl 4-(4-fluorophenyl)-6-(1-methylethyl)-2-[methyl(methylsulfonyl)amino]-5-pyrimidinecarboxylate;4-(4-Fluorophenyl)-6-isopropyl-2-[(methanesulfonyl)methylamino]pyrimidine-5-carboxylic acid methyl ester;Methyl 4-(4-fluorophenyl)-6-isopropyl-2-[<em>N</em>-methyl-<em>N</em>-(methylsulfonyl)amino]pyrimidine-5-carboxylate",
    "duplicated_cas_no": "",
    "SMILES": "C(OC)(=O)C=1C(=NC(N(S(C)(=O)=O)C)=NC1C(C)C)C2=CC=C(F)C=C2",
    "meta_data": {
        "InChI": "InChI=1S/C17H20FN3O4S/c1-10(2)14-13(16(22)25-4)15(11-6-8-12(18)9-7-11)20-17(19-14)21(3)26(5,23)24/h6-10H,1-5H3",
        "InChIKey": null,
        "Canonical SMILES": "O=C(OC)C=1C(=NC(=NC1C(C)C)N(C)S(=O)(=O)C)C=2C=CC(F)=CC2",
        "Molecular Formula": "C<sub>17</sub>H<sub>20</sub>FN<sub>3</sub>O<sub>4</sub>S",
        "Molecular Mass": "381.42",
        "Melting Point": "132.1-132.7 °C"
    }
}