{
    "cas_no": "1192-63-8",
    "key_name": "1-Pyrrolidinecarbonyl chloride",
    "cn_name": "1-吡咯烷羰酰氯;1-吡咯烷羰酰基氯化物;1-氯甲酰基吡咯烷;",
    "alternate_name": "1-Pyrrolidinecarbonyl chloride;1-Pyrrolidinylcarbonyl chloride;Pyrrolidine-1-carbonyl chloride",
    "duplicated_cas_no": "",
    "SMILES": "C(Cl)(=O)N1CCCC1",
    "meta_data": {
        "InChI": "InChI=1S/C5H8ClNO/c6-5(8)7-3-1-2-4-7/h1-4H2",
        "InChIKey": null,
        "Canonical SMILES": "O=C(Cl)N1CCCC1",
        "Molecular Formula": "C<sub>5</sub>H<sub>8</sub>ClNO",
        "Molecular Mass": "133.58",
        "Boiling Point": "94-96 °C @ Press: 5 Torr",
        "Density": "1.2120 g/cm³ @ Temp: 20 °C"
    }
}