{
    "cas_no": "23249-97-0",
    "key_name": "1<em>H</em>-Benzimidazole-2-propanoic acid",
    "cn_name": "2-苯并咪唑丙酸;",
    "alternate_name": "1<em>H</em>-Benzimidazole-2-propanoic acid;2-Benzimidazolepropionic acid;2-(2-Carboxyethyl)benzimidazole;(2-Benzimidazolyl)propionic acid;Propazol;Procodazol;Procodazole;3-(2-Benzimidazolyl)propionic acid;AL 1241;Estimulocel;NSC 35790;3-(1<em>H</em>-Benzimidazol-2-yl)propionic acid;3-(1<em>H</em>-Benzimidazol-2-yl)propanoic acid",
    "duplicated_cas_no": "",
    "SMILES": "C(CC(O)=O)C=1NC=2C(N1)=CC=CC2",
    "meta_data": {
        "InChI": "InChI=1S/C10H10N2O2/c13-10(14)6-5-9-11-7-3-1-2-4-8(7)12-9/h1-4H,5-6H2,(H,11,12)(H,13,14)",
        "InChIKey": null,
        "Canonical SMILES": "O=C(O)CCC1=NC=2C=CC=CC2N1",
        "Molecular Formula": "C<sub>10</sub>H<sub>10</sub>N<sub>2</sub>O<sub>2</sub>",
        "Molecular Mass": "190.20",
        "Melting Point": "228 °C (decomp)"
    }
}