{
    "cas_no": "91-40-7",
    "key_name": "<em>N</em>-Phenylanthranilic acid",
    "cn_name": "N-苯基邻氨基苯甲酸;芬那酸;N-苯基氨茴酸;",
    "alternate_name": "Benzoic acid, 2-(phenylamino)-;Anthranilic acid, <em>N</em>-phenyl-;2-(Phenylamino)benzoic acid;<em>o</em>-Anilinobenzoic acid;2-Anilinobenzoic acid;Diphenylamine-2-carboxylic acid;Fenamic acid;2-Carboxydiphenylamine;<em>N</em>-Phenylanthranilic acid;<em>N</em>-Phenyl-<em>o</em>-aminobenzoic acid;<em>N</em>-Phenyl-2-aminobenzoic acid;<em>o</em>-Carboxydiphenylamine;Diphenylamine-2-carboxylate;<em>o</em>-(Phenylamino)benzoic acid;NSC 215211;NSC 4273;DPC;DPC (chloride channel inhibitor)",
    "duplicated_cas_no": "",
    "SMILES": "N(C1=C(C(O)=O)C=CC=C1)C2=CC=CC=C2",
    "meta_data": {
        "InChI": "InChI=1S/C13H11NO2/c15-13(16)11-8-4-5-9-12(11)14-10-6-2-1-3-7-10/h1-9,14H,(H,15,16)",
        "InChIKey": null,
        "Canonical SMILES": "O=C(O)C=1C=CC=CC1NC=2C=CC=CC2",
        "Molecular Formula": "C<sub>13</sub>H<sub>11</sub>NO<sub>2</sub>",
        "Molecular Mass": "213.23",
        "Melting Point": "183.5 °C",
        "Density": "1.324 g/cm³"
    }
}