{
    "cas_no": "5794-13-8",
    "key_name": "<span class=\"text-smallcaps\">L</span>-Asparagine, hydrate (1:1)",
    "cn_name": "L-天冬酰胺一水物;L-天门冬酰胺一水合物;",
    "alternate_name": "<span class=\"text-smallcaps\">L</span>-Asparagine, hydrate (1:1);Asparagine, monohydrate, <span class=\"text-smallcaps\">L</span>-;<span class=\"text-smallcaps\">L</span>-Asparagine, monohydrate;Asparagine monohydrate",
    "duplicated_cas_no": "",
    "SMILES": "[C@H](CC(N)=O)(C(O)=O)N.O",
    "meta_data": {
        "InChI": "InChI=1S/C4H8N2O3.H2O/c5-2(4(8)9)1-3(6)7;/h2H,1,5H2,(H2,6,7)(H,8,9);1H2/t2-;/m0./s1",
        "InChIKey": null,
        "Canonical SMILES": "O=C(O)C(N)CC(=O)N.O",
        "Molecular Formula": "C<sub>4</sub>H<sub>8</sub>N<sub>2</sub>O<sub>3</sub>.H<sub>2</sub>O",
        "Molecular Mass": "",
        "Melting Point": "235 °C"
    }
}