{
    "cas_no": "17096-15-0",
    "key_name": "1,1′-Thiobis(2-naphthol)",
    "cn_name": "1,1\"-硫联二(2-萘酚);",
    "alternate_name": "2-Naphthalenol, 1,1′-thiobis-;2-Naphthol, 1,1′-thiodi-;1,1′-Thiobis[2-naphthalenol];1,1′-Thiobis(β-naphthol);1,1′-Thiobis(2-naphthol);1,1′-Thiodi-β-naphthol;Bis(2-hydroxy-1-naphthyl) sulfide;NSC 11877;Thiobis(2,2′-naphthol);1,1′-Thiobis(naphthalen-2-ol)",
    "duplicated_cas_no": "1081767-25-0",
    "SMILES": "S(C=1C2=C(C=CC1O)C=CC=C2)C=3C4=C(C=CC3O)C=CC=C4",
    "meta_data": {
        "InChI": "InChI=1S/C20H14O2S/c21-17-11-9-13-5-1-3-7-15(13)19(17)23-20-16-8-4-2-6-14(16)10-12-18(20)22/h1-12,21-22H",
        "InChIKey": null,
        "Canonical SMILES": "OC=1C=CC=2C=CC=CC2C1SC3=C(O)C=CC=4C=CC=CC43",
        "Molecular Formula": "C<sub>20</sub>H<sub>14</sub>O<sub>2</sub>S",
        "Molecular Mass": "318.39",
        "Melting Point": "212 °C"
    }
}