{
    "cas_no": "1524-86-3",
    "key_name": "(11β,16α)-9-Fluoro-11,21-dihydroxy-16,17-[(1-methylethylidene)bis(oxy)]pregn-4-ene-3,20-dione",
    "cn_name": "氢化曲安奈德;",
    "alternate_name": "Pregn-4-ene-3,20-dione, 9-fluoro-11,21-dihydroxy-16,17-[(1-methylethylidene)bis(oxy)]-, (11β,16α)-;Pregn-4-ene-3,20-dione, 9-fluoro-11β,16α,17,21-tetrahydroxy-, cyclic 16,17-acetal with acetone;Corticosterone, 9-fluoro-16α,17-dihydroxy-, cyclic 16,17-acetal with Me<sub>2</sub>CO;2<em>H</em>-Naphth[2′,1′:4,5]indeno[1,2-<em>d</em>][1,3]dioxole, pregn-4-ene-3,20-dione deriv.;(11β,16α)-9-Fluoro-11,21-dihydroxy-16,17-[(1-methylethylidene)bis(oxy)]pregn-4-ene-3,20-dione;11β,16α,17α,21-Tetrahydroxy-9α-fluoropregn-4-ene-3,20-dione 16,17-acetonide;NSC 21915",
    "duplicated_cas_no": "",
    "SMILES": "C(CO)(=O)[C@]12[C@]3(C)[C@@](C[C@]1(OC(C)(C)O2)[H])([C@]4([C@](F)([C@@H](O)C3)[C@]5(C)C(CC4)=CC(=O)CC5)[H])[H]",
    "meta_data": {
        "InChI": "InChI=1S/C24H33FO6/c1-20(2)30-19-10-16-15-6-5-13-9-14(27)7-8-21(13,3)23(15,25)17(28)11-22(16,4)24(19,31-20)18(29)12-26/h9,15-17,19,26,28H,5-8,10-12H2,1-4H3/t15-,16-,17-,19+,21-,22-,23-,24+/m0/s1",
        "InChIKey": null,
        "Canonical SMILES": "O=C1C=C2CCC3C4CC5OC(OC5(C(=O)CO)C4(C)CC(O)C3(F)C2(C)CC1)(C)C",
        "Molecular Formula": "C<sub>24</sub>H<sub>33</sub>FO<sub>6</sub>",
        "Molecular Mass": "436.51",
        "Melting Point": "262 °C (decomp)"
    }
}