{
    "cas_no": "103204-69-9",
    "key_name": "4-(Acetylamino)-2-methylbenzoic acid",
    "cn_name": "4-ACETAMIDO-2-METHYLBENZOIC ACID;",
    "alternate_name": "Benzoic acid, 4-(acetylamino)-2-methyl-;<em>o</em>-Toluic acid, 4-acetamido-;4-(Acetylamino)-2-methylbenzoic acid;4-Acetamido-2-methylbenzoic acid",
    "duplicated_cas_no": "",
    "SMILES": "C(O)(=O)C1=C(C)C=C(NC(C)=O)C=C1",
    "meta_data": {
        "InChI": "InChI=1S/C10H11NO3/c1-6-5-8(11-7(2)12)3-4-9(6)10(13)14/h3-5H,1-2H3,(H,11,12)(H,13,14)",
        "InChIKey": null,
        "Canonical SMILES": "O=C(O)C1=CC=C(C=C1C)NC(=O)C",
        "Molecular Formula": "C<sub>10</sub>H<sub>11</sub>NO<sub>3</sub>",
        "Molecular Mass": "193.20",
        "Melting Point": "222 °C (decomp)"
    }
}