{
    "cas_no": "7184-60-3",
    "key_name": "Borrelidin",
    "cn_name": null,
    "alternate_name": "Cyclopentanecarboxylic acid, 2-[(2<em>S</em>,4<em>E</em>,6<em>Z</em>,8<em>R</em>,9<em>S</em>,11<em>R</em>,13<em>S</em>,15<em>S</em>,16<em>S</em>)-7-cyano-8,16-dihydroxy-9,11,13,15-tetramethyl-18-oxooxacyclooctadeca-4,6-dien-2-yl]-, (1<em>R</em>,2<em>R</em>)-;Cyclopentanecarboxylic acid, 2-(7-cyano-8,16-dihydroxy-9,11,13,15-tetramethyl-18-oxooxacyclooctadeca-4,6-dien-2-yl)-, [2<em>S</em>-[2<em>R</em>*(1<em>S</em>*,2<em>S</em>*),4<em>E</em>,6<em>Z</em>,8<em>S</em>*,9<em>R</em>*,11<em>S</em>*,13<em>R</em>*,15<em>R</em>*,16<em>R</em>*]]-;Borrelidin;Oxacyclooctadecane, cyclopentanecarboxylic acid deriv.;(1<em>R</em>,2<em>R</em>)-2-[(2<em>S</em>,4<em>E</em>,6<em>Z</em>,8<em>R</em>,9<em>S</em>,11<em>R</em>,13<em>S</em>,15<em>S</em>,16<em>S</em>)-7-Cyano-8,16-dihydroxy-9,11,13,15-tetramethyl-18-oxooxacyclooctadeca-4,6-dien-2-yl]cyclopentanecarboxylic acid;Borrelidine;Treponemycin;NSC 216128;(-)-Borrelidin;B 3061;Borrelidin A",
    "duplicated_cas_no": "97328-74-0;1403-11-8",
    "SMILES": "",
    "meta_data": {
        "InChI": "",
        "InChIKey": null,
        "Canonical SMILES": "",
        "Molecular Formula": "C<sub>28</sub>H<sub>43</sub>NO<sub>6</sub>",
        "Molecular Mass": "489.64",
        "Melting Point": "143-145 °C"
    }
}