{
    "cas_no": "69123-94-0",
    "key_name": "1-(2-Deoxy-2-fluoro-β-<span class=\"text-smallcaps\">D</span>-arabinofuranosyl)-2,4(1<em>H</em>,3<em>H</em>)-pyrimidinedione",
    "cn_name": "1-(2-脱氧-2-氟-beta-D-阿拉伯呋喃基)尿嘧啶;",
    "alternate_name": "2,4(1<em>H</em>,3<em>H</em>)-Pyrimidinedione, 1-(2-deoxy-2-fluoro-β-<span class=\"text-smallcaps\">D</span>-arabinofuranosyl)-;1-(2-Deoxy-2-fluoro-β-<span class=\"text-smallcaps\">D</span>-arabinofuranosyl)-2,4(1<em>H</em>,3<em>H</em>)-pyrimidinedione;NUK-7",
    "duplicated_cas_no": "1190089-69-0",
    "SMILES": "F[C@@H]1[C@@H](O[C@H](CO)[C@H]1O)N2C(=O)NC(=O)C=C2",
    "meta_data": {
        "InChI": "InChI=1S/C9H11FN2O5/c10-6-7(15)4(3-13)17-8(6)12-2-1-5(14)11-9(12)16/h1-2,4,6-8,13,15H,3H2,(H,11,14,16)/t4-,6+,7-,8-/m1/s1",
        "InChIKey": null,
        "Canonical SMILES": "O=C1C=CN(C(=O)N1)C2OC(CO)C(O)C2F",
        "Molecular Formula": "C<sub>9</sub>H<sub>11</sub>FN<sub>2</sub>O<sub>5</sub>",
        "Molecular Mass": "246.19",
        "Melting Point": "161-162 °C"
    }
}