{
    "cas_no": "1914-58-5",
    "key_name": "(3<em>E</em>)-4-Phenyl-3-butenoic acid",
    "cn_name": "4-苯基-3-丁烯酸;反式-苯乙烯乙酸;",
    "alternate_name": "3-Butenoic acid, 4-phenyl-, (3<em>E</em>)-;3-Butenoic acid, 4-phenyl-, (<em>E</em>)-;(3<em>E</em>)-4-Phenyl-3-butenoic acid;<em>trans</em>-Styrylacetic acid;(<em>E</em>)-4-Phenyl-3-butenoic acid;NSC 172584;(3<em>E</em>)-4-Phenylbut-3-enoic acid",
    "duplicated_cas_no": "",
    "SMILES": "C(=C/CC(O)=O)\\C1=CC=CC=C1",
    "meta_data": {
        "InChI": "InChI=1S/C10H10O2/c11-10(12)8-4-7-9-5-2-1-3-6-9/h1-7H,8H2,(H,11,12)/b7-4+",
        "InChIKey": null,
        "Canonical SMILES": "O=C(O)CC=CC=1C=CC=CC1",
        "Molecular Formula": "C<sub>10</sub>H<sub>10</sub>O<sub>2</sub>",
        "Molecular Mass": "162.19",
        "Melting Point": "78-80 °C"
    }
}