{
    "cas_no": "3637-01-2",
    "key_name": "3,4-Dimethylacetophenone",
    "cn_name": "3,4-二甲基苯乙酮;1-(3,4-二甲基苯基)乙-1-酮;",
    "alternate_name": "Ethanone, 1-(3,4-dimethylphenyl)-;Acetophenone, 3′,4′-dimethyl-;1-(3,4-Dimethylphenyl)ethanone;3′,4′-Dimethylacetophenone;3,4-Dimethylacetophenone;Methyl 3,4-dimethylphenyl ketone;1-(3,4-Dimethylphenyl)ethan-1-one",
    "duplicated_cas_no": "",
    "SMILES": "C(C)(=O)C1=CC(C)=C(C)C=C1",
    "meta_data": {
        "InChI": "InChI=1S/C10H12O/c1-7-4-5-10(9(3)11)6-8(7)2/h4-6H,1-3H3",
        "InChIKey": null,
        "Canonical SMILES": "O=C(C1=CC=C(C(=C1)C)C)C",
        "Molecular Formula": "C<sub>10</sub>H<sub>12</sub>O",
        "Molecular Mass": "148.20",
        "Boiling Point": "246.5 °C",
        "Melting Point": "-3 °C",
        "Density": "1.0042 g/cm³ @ Temp: 20 °C"
    }
}