{
    "cas_no": "111-60-4",
    "key_name": "Glycol monostearate",
    "cn_name": null,
    "alternate_name": "Octadecanoic acid, 2-hydroxyethyl ester;Stearic acid, 2-hydroxyethyl ester;Ethylene glycol, monostearate;S 151;Empilan 2848;Ethylene glycol stearate;Glycol monostearate;Glycol stearate;Ivorit;Monthybase;Monthyle;Parastarin;Prodhybas N;Prodhybase ethyl;Sedetol;Tego-stearate;2-Hydroxyethyl stearate;Emerest 2350;Tegin EGMS-VA;Cutina EGMS;Kessco EGMS;Kessco EGMS 70;Nikkol EGMS 70;Emcol ES 50;Stepan EGMS;EGMS 70V;Emalex EG-M-S",
    "duplicated_cas_no": "8034-25-1",
    "SMILES": "C(CCCCCCCCCCCCCCC)CC(OCCO)=O",
    "meta_data": {
        "InChI": "InChI=1S/C20H40O3/c1-2-3-4-5-6-7-8-9-10-11-12-13-14-15-16-17-20(22)23-19-18-21/h21H,2-19H2,1H3",
        "InChIKey": null,
        "Canonical SMILES": "O=C(OCCO)CCCCCCCCCCCCCCCCC",
        "Molecular Formula": "C<sub>20</sub>H<sub>40</sub>O<sub>3</sub>",
        "Molecular Mass": "328.53",
        "Boiling Point": "&gt;400 °C",
        "Melting Point": "60.5 °C"
    }
}