{
    "cas_no": "5074-71-5",
    "key_name": "Bis(2,3,4,5,6-pentafluorophenyl)phenylphosphine",
    "cn_name": "双(五氟苯基)苯膦;十氟三苯基磷;",
    "alternate_name": "Phosphine, bis(2,3,4,5,6-pentafluorophenyl)phenyl-;Phosphine, bis(pentafluorophenyl)phenyl-;Bis(2,3,4,5,6-pentafluorophenyl)phenylphosphine;Bis(pentafluorophenyl)phenylphosphine;(Decafluorodiphenyl)phenylphosphine;Phenylbis(pentafluorophenyl)phosphine",
    "duplicated_cas_no": "",
    "SMILES": "P(C1=C(F)C(F)=C(F)C(F)=C1F)(C2=C(F)C(F)=C(F)C(F)=C2F)C3=CC=CC=C3",
    "meta_data": {
        "InChI": "InChI=1S/C18H5F10P/c19-7-9(21)13(25)17(14(26)10(7)22)29(6-4-2-1-3-5-6)18-15(27)11(23)8(20)12(24)16(18)28/h1-5H",
        "InChIKey": null,
        "Canonical SMILES": "FC=1C(F)=C(F)C(=C(F)C1F)P(C=2C=CC=CC2)C=3C(F)=C(F)C(F)=C(F)C3F",
        "Molecular Formula": "C<sub>18</sub>H<sub>5</sub>F<sub>10</sub>P",
        "Molecular Mass": "442.19",
        "Melting Point": "69-70 °C"
    }
}