{
    "cas_no": "31858-66-9",
    "key_name": "Methyl (4<em>E</em>)-6-(1,3-dihydro-4-hydroxy-6-methoxy-7-methyl-3-oxo-5-isobenzofuranyl)-4-methyl-4-hexenoate",
    "cn_name": null,
    "alternate_name": "4-Hexenoic acid, 6-(1,3-dihydro-4-hydroxy-6-methoxy-7-methyl-3-oxo-5-isobenzofuranyl)-4-methyl-, methyl ester, (4<em>E</em>)-;4-Hexenoic acid, 6-(1,3-dihydro-4-hydroxy-6-methoxy-7-methyl-3-oxo-5-isobenzofuranyl)-4-methyl-, methyl ester, (<em>E</em>)-;4-Hexenoic acid, 6-(4-hydroxy-6-methoxy-7-methyl-3-oxo-5-phthalanyl)-4-methyl-, methyl ester, (<em>E</em>)-;Methyl (4<em>E</em>)-6-(1,3-dihydro-4-hydroxy-6-methoxy-7-methyl-3-oxo-5-isobenzofuranyl)-4-methyl-4-hexenoate;Methyl mycophenolate;Mycophenolic acid methyl ester",
    "duplicated_cas_no": "",
    "SMILES": "CC1=C2C(=C(O)C(C/C=C(/CCC(OC)=O)\\C)=C1OC)C(=O)OC2",
    "meta_data": {
        "InChI": "InChI=1S/C18H22O6/c1-10(6-8-14(19)22-3)5-7-12-16(20)15-13(9-24-18(15)21)11(2)17(12)23-4/h5,20H,6-9H2,1-4H3/b10-5+",
        "InChIKey": null,
        "Canonical SMILES": "O=C1OCC2=C1C(O)=C(C(OC)=C2C)CC=C(C)CCC(=O)OC",
        "Molecular Formula": "C<sub>18</sub>H<sub>22</sub>O<sub>6</sub>",
        "Molecular Mass": "334.36",
        "Melting Point": "104 °C"
    }
}