{
    "cas_no": "3587-60-8",
    "key_name": "Benzyl chloromethyl ether",
    "cn_name": "苄基氯甲基醚;",
    "alternate_name": "Benzene, [(chloromethoxy)methyl]-;Ether, benzyl chloromethyl;[(Chloromethoxy)methyl]benzene;Benzyl chloromethyl ether;Benzyloxymethyl chloride;Chloromethyl benzyl ether;Chloromethyl phenylmethyl ether;BOMCl",
    "duplicated_cas_no": "",
    "SMILES": "C(OCCl)C1=CC=CC=C1",
    "meta_data": {
        "InChI": "InChI=1S/C8H9ClO/c9-7-10-6-8-4-2-1-3-5-8/h1-5H,6-7H2",
        "InChIKey": null,
        "Canonical SMILES": "ClCOCC=1C=CC=CC1",
        "Molecular Formula": "C<sub>8</sub>H<sub>9</sub>ClO",
        "Molecular Mass": "156.61",
        "Boiling Point": "103 °C @ Press: 13 Torr",
        "Density": "1.1350 g/cm³ @ Temp: 20 °C"
    }
}