{
    "cas_no": "6377-18-0",
    "key_name": "Chartreusin",
    "cn_name": "教酒菌素;",
    "alternate_name": "Benzo[<em>h</em>][1]benzopyrano[5,4,3-<em>cde</em>][1]benzopyran-5,12-dione, 10-[[6-deoxy-2-<em>O</em>-(6-deoxy-3-<em>O</em>-methyl-α-<span class=\"text-smallcaps\">D</smallcap>-galactopyranosyl)-β-<smallcap>D</span>-galactopyranosyl]oxy]-6-hydroxy-1-methyl-;Chartreusin;10-[[6-Deoxy-2-<em>O</em>-(6-deoxy-3-<em>O</em>-methyl-α-<span class=\"text-smallcaps\">D</smallcap>-galactopyranosyl)-β-<smallcap>D</span>-galactopyranosyl]oxy]-6-hydroxy-1-methylbenzo[<em>h</em>][1]benzopyrano[5,4,3-<em>cde</em>][1]benzopyran-5,12-dione;NSC 5159;Antibiotic X 465A;Lambdamycin",
    "duplicated_cas_no": "1393-73-3;1393-74-4;1403-35-6;59979-62-3",
    "SMILES": "OC=1C2=C3C=4C(C(=O)OC3=C5C1C=CC=C5O[C@H]6[C@H](O[C@@H]7[C@H](O)[C@@H](OC)[C@@H](O)[C@@H](C)O7)[C@@H](O)[C@@H](O)[C@@H](C)O6)=C(C)C=CC4OC2=O",
    "meta_data": {
        "InChI": "InChI=1S/C32H32O14/c1-10-8-9-15-18-16(10)29(38)45-26-17-13(23(35)20(19(18)26)30(39)43-15)6-5-7-14(17)44-32-28(24(36)21(33)11(2)42-32)46-31-25(37)27(40-4)22(34)12(3)41-31/h5-9,11-12,21-22,24-25,27-28,31-37H,1-4H3/t11-,12-,21+,22+,24+,25-,27+,28-,31-,32+/m1/s1",
        "InChIKey": null,
        "Canonical SMILES": "O=C1OC2=CC=C(C=3C(=O)OC=4C=5C(OC6OC(C)C(O)C(O)C6OC7OC(C)C(O)C(OC)C7O)=CC=CC5C(O)=C1C4C23)C",
        "Molecular Formula": "C<sub>32</sub>H<sub>32</sub>O<sub>14</sub>",
        "Molecular Mass": "640.59",
        "Melting Point": "185 °C"
    }
}