{
    "cas_no": "102-46-5",
    "key_name": "3,4-Dimethylbenzyl chloride",
    "cn_name": "3,4-二甲基氯苄;",
    "alternate_name": "Benzene, 4-(chloromethyl)-1,2-dimethyl-;4-(Chloromethyl)-1,2-dimethylbenzene;3,4-Dimethylbenzyl chloride;1,2-Dimethyl-4-chloromethylbenzene;NSC 62669;4-(Chloromethyl)-<em>o</em>-xylene;1-(Chloromethyl)-3,4-dimethylbenzene",
    "duplicated_cas_no": "",
    "SMILES": "C(Cl)C1=CC(C)=C(C)C=C1",
    "meta_data": {
        "InChI": "InChI=1S/C9H11Cl/c1-7-3-4-9(6-10)5-8(7)2/h3-5H,6H2,1-2H3",
        "InChIKey": null,
        "Canonical SMILES": "ClCC1=CC=C(C(=C1)C)C",
        "Molecular Formula": "C<sub>9</sub>H<sub>11</sub>Cl",
        "Molecular Mass": "154.64",
        "Boiling Point": "116-117 °C @ Press: 24 Torr"
    }
}