{
    "cas_no": "77-99-6",
    "key_name": "Trimethylolpropane",
    "cn_name": "1,1,1-三羟甲基丙烷;",
    "alternate_name": "1,3-Propanediol, 2-ethyl-2-(hydroxymethyl)-;2-Ethyl-2-(hydroxymethyl)-1,3-propanediol;Ethyltrimethylolmethane;Propane, 1,1,1-tris(hydroxymethyl)-;TMP;1,1,1-Trimethylolpropane;1,1,1-Tris(hydroxymethyl)propane;2-Ethyl-2-(hydroxymethyl)propanediol;Ettriol;Trimethylolpropane;Tris(hydroxymethyl)propane;2,2-Bis(hydroxymethyl)-1-butanol;Ethriol;TMP (alcohol);1,1,1-Tri(hydroxymethyl)propane;RC Crosslinker TR;NSC 3576;Addolink TR;2-(Hydroxymethyl)-2-ethyl-1,3-propanediol;T 0480;2-Ethyl-2-hydroxymethyl-1,3-propandiol;2,2-Bis(hydroxymethyl)butanol;9U02;G 36",
    "duplicated_cas_no": "30774-18-6;51811-73-5;53632-31-8;59218-55-2;65581-89-7;69896-09-9;77974-02-8;97649-49-5;101164-61-8;102984-18-9;110368-52-0;853320-12-4;2182590-63-0;2410621-75-7",
    "SMILES": "C(CC)(CO)(CO)CO",
    "meta_data": {
        "InChI": "InChI=1S/C6H14O3/c1-2-6(3-7,4-8)5-9/h7-9H,2-5H2,1H3",
        "InChIKey": null,
        "Canonical SMILES": "OCC(CO)(CO)CC",
        "Molecular Formula": "C<sub>6</sub>H<sub>14</sub>O<sub>3</sub>",
        "Molecular Mass": "134.17",
        "Boiling Point": "160 °C @ Press: 5 Torr",
        "Melting Point": "58 °C"
    }
}