{
    "cas_no": "1123-27-9",
    "key_name": "1-(1-Hydroxycyclohexyl)ethanone",
    "cn_name": null,
    "alternate_name": "Ethanone, 1-(1-hydroxycyclohexyl)-;Ketone, 1-hydroxycyclohexyl methyl;1-(1-Hydroxycyclohexyl)ethanone;1-Acetylcyclohexanol;1-Hydroxycyclohexyl methyl ketone;1-Acetyl-1-hydroxycyclohexane;NSC 31427;NSC 37640;1-(1-Hydroxycyclohexyl)ethan-1-one",
    "duplicated_cas_no": "",
    "SMILES": "C(C)(=O)C1(O)CCCCC1",
    "meta_data": {
        "InChI": "InChI=1S/C8H14O2/c1-7(9)8(10)5-3-2-4-6-8/h10H,2-6H2,1H3",
        "InChIKey": null,
        "Canonical SMILES": "O=C(C)C1(O)CCCCC1",
        "Molecular Formula": "C<sub>8</sub>H<sub>14</sub>O<sub>2</sub>",
        "Molecular Mass": "142.20",
        "Boiling Point": "125.5 °C",
        "Density": "1.018 g/cm³"
    }
}