{
    "cas_no": "506-52-5",
    "key_name": "1-Hexacosanol",
    "cn_name": null,
    "alternate_name": "1-Hexacosanol;Ceryl alcohol;Cerylic alcohol;<em>n</em>-Hexacosanol;Hexacosyl alcohol;Hexacosanol;Cerotyl alcohol;NSC 4058",
    "duplicated_cas_no": "",
    "SMILES": "C(CCCCCCCCCCCCC)CCCCCCCCCCCCO",
    "meta_data": {
        "InChI": "InChI=1S/C26H54O/c1-2-3-4-5-6-7-8-9-10-11-12-13-14-15-16-17-18-19-20-21-22-23-24-25-26-27/h27H,2-26H2,1H3",
        "InChIKey": null,
        "Canonical SMILES": "OCCCCCCCCCCCCCCCCCCCCCCCCCC",
        "Molecular Formula": "C<sub>26</sub>H<sub>54</sub>O",
        "Molecular Mass": "382.71",
        "Boiling Point": "175 °C @ Press: 0.02 Torr",
        "Melting Point": "80 °C"
    }
}