{
    "cas_no": "7323-63-9",
    "key_name": "1,4-Bis(1,1-dimethylethyl)-2,5-dimethoxybenzene",
    "cn_name": null,
    "alternate_name": "Benzene, 1,4-bis(1,1-dimethylethyl)-2,5-dimethoxy-;Benzene, 1,4-di-<em>tert</em>-butyl-2,5-dimethoxy-;1,4-Bis(1,1-dimethylethyl)-2,5-dimethoxybenzene;1,4-Dimethoxy-2,5-di-<em>tert</em>-butylbenzene;2,5-Di-<em>tert</em>-butyl-1,4-dimethoxybenzene;1,4-Di-<em>tert</em>-butyl-2,5-dimethoxybenzene;NSC 124045;1,4-Ditert-butyl-2,5-dimethoxybenzene",
    "duplicated_cas_no": "",
    "SMILES": "C(C)(C)(C)C1=C(OC)C=C(C(C)(C)C)C(OC)=C1",
    "meta_data": {
        "InChI": "InChI=1S/C16H26O2/c1-15(2,3)11-9-14(18-8)12(16(4,5)6)10-13(11)17-7/h9-10H,1-8H3",
        "InChIKey": null,
        "Canonical SMILES": "O(C=1C=C(C(OC)=CC1C(C)(C)C)C(C)(C)C)C",
        "Molecular Formula": "C<sub>16</sub>H<sub>26</sub>O<sub>2</sub>",
        "Molecular Mass": "250.38",
        "Melting Point": "103-104 °C"
    }
}