{
    "cas_no": "10310-32-4",
    "key_name": "Tribenoside",
    "cn_name": "三苄糖甙;三苄糖苷;(3R,4R,5R)-5-[1,2-双(苯甲氧基)乙基]-2-乙氧基-4-(苯甲氧基)氧杂戊环-3-醇;",
    "alternate_name": "<span class=\"text-smallcaps\">D</span>-Glucofuranoside, ethyl 3,5,6-tris-<em>O</em>-(phenylmethyl)-;Glucofuranoside, ethyl 3,5,6-tri-<em>O</em>-benzyl-, <span class=\"text-smallcaps\">D</span>-;Glucofuranoside, ethyl 3,5,6-tri-<em>O</em>-benzyl-;Ethyl 3,5,6-tris-<em>O</em>-(phenylmethyl)-<span class=\"text-smallcaps\">D</span>-glucofuranoside;Ethyl 3,5,6-tri-<em>O</em>-benzyl-<span class=\"text-smallcaps\">D</span>-glucofuranoside;Ba 21401;Glyvenol;Tribenzoside;Tribenoside;Ethyl 3,5,6-tri-O-benzyl-<span class=\"text-smallcaps\">D</span>-glucofuranoside;Glivenol;Glyvenal;TBGF;Flebosan;Hemocuron;Venex;Alven",
    "duplicated_cas_no": "",
    "SMILES": "[C@@H](OCC1=CC=CC=C1)(COCC2=CC=CC=C2)[C@@]3([C@H](OCC4=CC=CC=C4)[C@@H](O)C(OCC)O3)[H]",
    "meta_data": {
        "InChI": "InChI=1S/C29H34O6/c1-2-32-29-26(30)28(34-20-24-16-10-5-11-17-24)27(35-29)25(33-19-23-14-8-4-9-15-23)21-31-18-22-12-6-3-7-13-22/h3-17,25-30H,2,18-21H2,1H3/t25-,26-,27-,28-,29?/m1/s1",
        "InChIKey": null,
        "Canonical SMILES": "OC1C(OCC)OC(C(OCC=2C=CC=CC2)COCC=3C=CC=CC3)C1OCC=4C=CC=CC4",
        "Molecular Formula": "C<sub>29</sub>H<sub>34</sub>O<sub>6</sub>",
        "Molecular Mass": "478.58",
        "Boiling Point": "275 °C"
    }
}