{
    "cas_no": "6938-94-9",
    "key_name": "Diisopropyl adipate",
    "cn_name": "己二酸二异丙酯;",
    "alternate_name": "Hexanedioic acid, 1,6-bis(1-methylethyl) ester;Adipic acid, diisopropyl ester;Hexanedioic acid, bis(1-methylethyl) ester;Diisopropyl adipate;Isopropyl adipate;Ceraphyl 230;Wickenol 116;Standamul DIPA;Nikkol DID;NSC 56587;Crodamol DA;Schercemol DIA;Iso Adipat;Crodamol DA-LQ-(JP);Hexanedioic acid diisopropyl ester;Dermol DIA;Pelemol DIA;Isoadipate",
    "duplicated_cas_no": "121879-14-9",
    "SMILES": "O(C(CCCCC(OC(C)C)=O)=O)C(C)C",
    "meta_data": {
        "InChI": "InChI=1S/C12H22O4/c1-9(2)15-11(13)7-5-6-8-12(14)16-10(3)4/h9-10H,5-8H2,1-4H3",
        "InChIKey": null,
        "Canonical SMILES": "O=C(OC(C)C)CCCCC(=O)OC(C)C",
        "Molecular Formula": "C<sub>12</sub>H<sub>22</sub>O<sub>4</sub>",
        "Molecular Mass": "230.30",
        "Boiling Point": "113-115 °C @ Press: 1.5 Torr",
        "Melting Point": "-1.1 °C"
    }
}