{
    "cas_no": "6582-42-9",
    "key_name": "1-(3,4-Dichlorophenyl)-1-propanone",
    "cn_name": "3\",4\"-二氯代苯丙酮;",
    "alternate_name": "1-Propanone, 1-(3,4-dichlorophenyl)-;Propiophenone, 3′,4′-dichloro-;1-(3,4-Dichlorophenyl)-1-propanone;3′,4′-Dichloropropiophenone",
    "duplicated_cas_no": "",
    "SMILES": "C(CC)(=O)C1=CC(Cl)=C(Cl)C=C1",
    "meta_data": {
        "InChI": "InChI=1S/C9H8Cl2O/c1-2-9(12)6-3-4-7(10)8(11)5-6/h3-5H,2H2,1H3",
        "InChIKey": null,
        "Canonical SMILES": "O=C(C1=CC=C(Cl)C(Cl)=C1)CC",
        "Molecular Formula": "C<sub>9</sub>H<sub>8</sub>Cl<sub>2</sub>O",
        "Molecular Mass": "203.07",
        "Boiling Point": "136-140 °C @ Press: 18 Torr"
    }
}