{
    "cas_no": "349-49-5",
    "key_name": "4-(Trifluoromethyl)-2-thiazolamine",
    "cn_name": "2-氨基-4-(三氟甲基)噻唑;2-氨基-4-(三氟甲基)噻唑;",
    "alternate_name": "2-Thiazolamine, 4-(trifluoromethyl)-;Thiazole, 2-amino-4-(trifluoromethyl)-;4-(Trifluoromethyl)-2-thiazolamine;2-Amino-4-trifluoromethylthiazole;4-Trifluoromethyl-2-aminothiazole;2-Amino-4-trifluoromethyl-1,3-thiazole;4-(Trifluoromethyl)thiazol-2-amine;4-(Trifluoromethyl)-1,3-thiazol-2-amine;(4-Trifluoromethylthiazol-2-yl)amine",
    "duplicated_cas_no": "",
    "SMILES": "C(F)(F)(F)C=1N=C(N)SC1",
    "meta_data": {
        "InChI": "InChI=1S/C4H3F3N2S/c5-4(6,7)2-1-10-3(8)9-2/h1H,(H2,8,9)",
        "InChIKey": null,
        "Canonical SMILES": "FC(F)(F)C=1N=C(SC1)N",
        "Molecular Formula": "C<sub>4</sub>H<sub>3</sub>F<sub>3</sub>N<sub>2</sub>S",
        "Molecular Mass": "168.14",
        "Boiling Point": "110-114 °C @ Press: 9 Torr",
        "Melting Point": "58-60 °C"
    }
}