{
    "cas_no": "3010-82-0",
    "key_name": "Terephthalamide",
    "cn_name": "1,4-苯二碳酰胺;",
    "alternate_name": "1,4-Benzenedicarboxamide;Terephthalamide;Terephthalic acid diamide;<em>p</em>-Phthalamide;Terephthalamimidic acid;Terephthaldiamide;<em>p</em>-Carbamoylbenzamide;Terephthalic diamide;NSC 56420",
    "duplicated_cas_no": "",
    "SMILES": "C(N)(=O)C1=CC=C(C(N)=O)C=C1",
    "meta_data": {
        "InChI": "InChI=1S/C8H8N2O2/c9-7(11)5-1-2-6(4-3-5)8(10)12/h1-4H,(H2,9,11)(H2,10,12)",
        "InChIKey": null,
        "Canonical SMILES": "O=C(N)C1=CC=C(C=C1)C(=O)N",
        "Molecular Formula": "C<sub>8</sub>H<sub>8</sub>N<sub>2</sub>O<sub>2</sub>",
        "Molecular Mass": "164.16",
        "Melting Point": "200 °C (decomp)"
    }
}