{
    "cas_no": "375-01-9",
    "key_name": "2,2,3,3,4,4,4-Heptafluorobutanol",
    "cn_name": "全氟丁醇;七氟丁醇;2,2,3,3,4,4,4-七氟代-1-丁醇;",
    "alternate_name": "1-Butanol, 2,2,3,3,4,4,4-heptafluoro-;2,2,3,3,4,4,4-Heptafluoro-1-butanol;1<em>H</em>,1<em>H</em>-Heptafluorobutanol-1;2,2,3,3,4,4,4-Heptafluorobutanol;1,1-Dihydroperfluorobutyl alcohol;α,α-Dihydroperfluorobutanol;Heptafluoro-1,1-dihydrobutyl alcohol;1,1-Dihydroperfluoro-1-butanol;(Perfluoropropyl)methanol;1<em>H</em>,1<em>H</em>-Heptafluoro-1-butanol;NSC 60528;1<em>H</em>,1<em>H</em>-Heptafluorobutanol",
    "duplicated_cas_no": "",
    "SMILES": "C(C(CO)(F)F)(C(F)(F)F)(F)F",
    "meta_data": {
        "InChI": "InChI=1S/C4H3F7O/c5-2(6,1-12)3(7,8)4(9,10)11/h12H,1H2",
        "InChIKey": null,
        "Canonical SMILES": "FC(F)(F)C(F)(F)C(F)(F)CO",
        "Molecular Formula": "C<sub>4</sub>H<sub>3</sub>F<sub>7</sub>O",
        "Molecular Mass": "200.05",
        "Boiling Point": "95 °C",
        "Density": "1.58806 g/cm³ (liquid) @ Temp: 25.000 °C"
    }
}