{
    "cas_no": "1484-12-4",
    "key_name": "<em>N</em>-Methylcarbazole",
    "cn_name": "N-甲基咔唑;N-甲基咔唑;",
    "alternate_name": "9<em>H</em>-Carbazole, 9-methyl-;Carbazole, 9-methyl-;9-Methyl-9<em>H</em>-carbazole;<em>N</em>-Methylcarbazole;9-Methylcarbazole;NSC 121195;<em>N</em>-Methyl-9<em>H</em>-carbazole",
    "duplicated_cas_no": "",
    "SMILES": "CN1C=2C(C=3C1=CC=CC3)=CC=CC2",
    "meta_data": {
        "InChI": "InChI=1S/C13H11N/c1-14-12-8-4-2-6-10(12)11-7-3-5-9-13(11)14/h2-9H,1H3",
        "InChIKey": null,
        "Canonical SMILES": "C=1C=CC2=C(C1)C=3C=CC=CC3N2C",
        "Molecular Formula": "C<sub>13</sub>H<sub>11</sub>N",
        "Molecular Mass": "181.23",
        "Boiling Point": "196-198 °C",
        "Melting Point": "89.34 °C"
    }
}