{
    "cas_no": "1458-01-1",
    "key_name": "Methyl 3,5-diamino-6-chloropyrazine-2-carboxylate",
    "cn_name": "3,5-二氨基-6-氯吡嗪-2-羧酸甲酯;",
    "alternate_name": "2-Pyrazinecarboxylic acid, 3,5-diamino-6-chloro-, methyl ester;Pyrazinecarboxylic acid, 3,5-diamino-6-chloro-, methyl ester;Methyl 3,5-diamino-6-chloropyrazinecarboxylate;3,5-Diamino-6-chloropyrazine-2-carboxylic acid methyl ester;Methyl 3,5-diamino-6-chloropyrazine-2-carboxylate",
    "duplicated_cas_no": "",
    "SMILES": "C(OC)(=O)C=1C(N)=NC(N)=C(Cl)N1",
    "meta_data": {
        "InChI": "InChI=1S/C6H7ClN4O2/c1-13-6(12)2-4(8)11-5(9)3(7)10-2/h1H3,(H4,8,9,11)",
        "InChIKey": null,
        "Canonical SMILES": "O=C(OC)C1=NC(Cl)=C(N=C1N)N",
        "Molecular Formula": "C<sub>6</sub>H<sub>7</sub>ClN<sub>4</sub>O<sub>2</sub>",
        "Molecular Mass": "202.60",
        "Melting Point": "210-212 °C"
    }
}