{
    "cas_no": "141-01-5",
    "key_name": "Ferrous fumarate",
    "cn_name": "富马酸亚铁;",
    "alternate_name": "2-Butenedioic acid (2<em>E</em>)-, iron(2+) salt (1:1);Fumaric acid, iron(2+) salt (1:1);2-Butenedioic acid (<em>E</em>)-, iron(2+) salt (1:1);Iron fumarate (Fe(O<sub>4</sub>C<sub>4</sub>H<sub>2</sub>));Cpiron;Fersamal;Firon;Fumar F;Fumiron;Hemoton;Toleron;Iron fumarate (Fe(C<sub>4</sub>H<sub>2</sub>O<sub>4</sub>));Ferrous fumarate;Erco-Fer;Feostat;Feroton;Ferrofume;Ferronat;Ferrotemp;Ferrone;Fumafer;Ircon;One-Iron;Palafer;Tolferain;Tolifer;Ercoferro;Iron fumarate;Orgasal;Ferrum;Meterfer;Galfer;Fresamal;Heferol;Fepstat;Iron(II) fumarate;Fumacure;Oral-Fe1",
    "duplicated_cas_no": "871-44-3",
    "SMILES": "C(=C/C(O)=O)\\C(O)=O.[Fe]",
    "meta_data": {
        "InChI": "InChI=1S/C4H4O4.Fe/c5-3(6)1-2-4(7)8;/h1-2H,(H,5,6)(H,7,8);/b2-1+;",
        "InChIKey": null,
        "Canonical SMILES": "[Fe].O=C(O)C=CC(=O)O",
        "Molecular Formula": "C<sub>4</sub>H<sub>4</sub>O<sub>4</sub>.Fe",
        "Molecular Mass": "",
        "Melting Point": "&gt;280 °C",
        "Density": "2.435 g/cm³ @ Temp: 25 °C"
    }
}