{
    "cas_no": "2086-26-2",
    "key_name": "Hydroxylamine, <em>O</em>-[(4-nitrophenyl)methyl]-, hydrochloride (1:1)",
    "cn_name": "O-(4-硝基苄基)羟胺盐酸盐;4-硝基苄基羟胺盐酸盐;",
    "alternate_name": "Hydroxylamine, <em>O</em>-[(4-nitrophenyl)methyl]-, hydrochloride (1:1);Hydroxylamine, <em>O</em>-[(4-nitrophenyl)methyl]-, monohydrochloride;Hydroxylamine, <em>O</em>-(<em>p</em>-nitrobenzyl)-, monohydrochloride;Benzyloxyamine, <em>p</em>-nitro-, hydrochloride;<em>p</em>-Nitrobenzyloxyamine hydrochloride;<em>O</em>-(<em>p</em>-Nitrobenzyl)hydroxylamine hydrochloride;4-Nitrobenzyloxyamine hydrochloride;<em>O</em>-(4-Nitrobenzyl)hydroxylamine hydrochloride",
    "duplicated_cas_no": "",
    "SMILES": "N(=O)(=O)C1=CC=C(CON)C=C1.Cl",
    "meta_data": {
        "InChI": "InChI=1S/C7H8N2O3.ClH/c8-12-5-6-1-3-7(4-2-6)9(10)11;/h1-4H,5,8H2;1H",
        "InChIKey": null,
        "Canonical SMILES": "Cl.O=N(=O)C1=CC=C(C=C1)CON",
        "Molecular Formula": "C<sub>7</sub>H<sub>8</sub>N<sub>2</sub>O<sub>3</sub>.ClH",
        "Molecular Mass": "",
        "Melting Point": "190-196 °C"
    }
}