{
    "cas_no": "592-09-6",
    "key_name": "Trichloro(3,3,3-trifluoropropyl)silane",
    "cn_name": "三氟丙基三氯硅烷;三氯(3,3,3-三氟丙基)硅烷;",
    "alternate_name": "Silane, trichloro(3,3,3-trifluoropropyl)-;Trichloro(3,3,3-trifluoropropyl)silane;(3,3,3-Trifluoropropyl)trichlorosilane;TSL 8261",
    "duplicated_cas_no": "",
    "SMILES": "C(C[Si](Cl)(Cl)Cl)C(F)(F)F",
    "meta_data": {
        "InChI": "InChI=1S/C3H4Cl3F3Si/c4-10(5,6)2-1-3(7,8)9/h1-2H2",
        "InChIKey": null,
        "Canonical SMILES": "FC(F)(F)CC[Si](Cl)(Cl)Cl",
        "Molecular Formula": "C<sub>3</sub>H<sub>4</sub>Cl<sub>3</sub>F<sub>3</sub>Si",
        "Molecular Mass": "231.50",
        "Boiling Point": "113-114 °C",
        "Density": "1.395 g/cm³"
    }
}