{
    "cas_no": "298-03-3",
    "key_name": "Demeton-O",
    "cn_name": "内吸磷－O;内吸磷－ODemeton-O;",
    "alternate_name": "Phosphorothioic acid, <em>O</em>,<em>O</em>-diethyl <em>O</em>-[2-(ethylthio)ethyl] ester;Phosphorothioic acid, <em>O</em>,<em>O</em>-diethyl ester <em>O</em>-[2-(ethylthio)ethyl] ester;Demeton-O;<em>O</em>,<em>O</em>-Diethyl <em>O</em>-[2-(ethylthio)ethyl] phosphorothionate;Demetonthione;NSC 8928",
    "duplicated_cas_no": "",
    "SMILES": "P(OCCSCC)(OCC)(OCC)=S",
    "meta_data": {
        "InChI": "InChI=1S/C8H19O3PS2/c1-4-9-12(13,10-5-2)11-7-8-14-6-3/h4-8H2,1-3H3",
        "InChIKey": null,
        "Canonical SMILES": "S=P(OCC)(OCC)OCCSCC",
        "Molecular Formula": "C<sub>8</sub>H<sub>19</sub>O<sub>3</sub>PS<sub>2</sub>",
        "Molecular Mass": "258.34",
        "Boiling Point": "134 °C @ Press: 2 Torr",
        "Density": "1.119 g/cm³ @ Temp: 21 °C"
    }
}