{
    "cas_no": "30299-08-2",
    "key_name": "Clinofibrate",
    "cn_name": "克利贝特;",
    "alternate_name": "Butanoic acid, 2,2′-[cyclohexylidenebis(4,1-phenyleneoxy)]bis[2-methyl-;2,2′-[Cyclohexylidenebis(4,1-phenyleneoxy)]bis[2-methylbutanoic acid];1,1-Bis[4′-(1′′-carboxy-1′′-methylpropoxy)phenyl]cyclohexane;S 8527;Clinofibrate;Lipoclin",
    "duplicated_cas_no": "",
    "SMILES": "O(C(C(O)=O)(CC)C)C1=CC=C(C2(CCCCC2)C3=CC=C(OC(C(O)=O)(CC)C)C=C3)C=C1",
    "meta_data": {
        "InChI": "InChI=1S/C28H36O6/c1-5-26(3,24(29)30)33-22-14-10-20(11-15-22)28(18-8-7-9-19-28)21-12-16-23(17-13-21)34-27(4,6-2)25(31)32/h10-17H,5-9,18-19H2,1-4H3,(H,29,30)(H,31,32)",
        "InChIKey": null,
        "Canonical SMILES": "O=C(O)C(OC1=CC=C(C=C1)C2(C3=CC=C(OC(C(=O)O)(C)CC)C=C3)CCCCC2)(C)CC",
        "Molecular Formula": "C<sub>28</sub>H<sub>36</sub>O<sub>6</sub>",
        "Molecular Mass": "468.58",
        "Melting Point": "143-146 °C"
    }
}