{
    "cas_no": "502-50-1",
    "key_name": "4-Ketopimelic acid",
    "cn_name": "4-酮庚乙酸;4-酮庚乙酸;4-酮庚二酸;",
    "alternate_name": "Heptanedioic acid, 4-oxo-;4-Oxoheptanedioic acid;4-Oxopimelic acid;γ-Ketopimelic acid;4-Ketopimelic acid;NSC 16642",
    "duplicated_cas_no": "",
    "SMILES": "C(CCC(O)=O)(CCC(O)=O)=O",
    "meta_data": {
        "InChI": "InChI=1S/C7H10O5/c8-5(1-3-6(9)10)2-4-7(11)12/h1-4H2,(H,9,10)(H,11,12)",
        "InChIKey": null,
        "Canonical SMILES": "O=C(O)CCC(=O)CCC(=O)O",
        "Molecular Formula": "C<sub>7</sub>H<sub>10</sub>O<sub>5</sub>",
        "Molecular Mass": "174.15",
        "Melting Point": "141.5 °C"
    }
}