{
    "cas_no": "29608-49-9",
    "key_name": "Almitrine bismesylate",
    "cn_name": "甲磺酸阿米三嗪;N,N\"-二烯丙基-6-[4-[二(4-氟苯基)甲基]哌嗪-1-基]-1,3,5-三嗪-2,4-二胺二甲磺酸盐;",
    "alternate_name": "1,3,5-Triazine-2,4-diamine, 6-[4-[bis(4-fluorophenyl)methyl]-1-piperazinyl]-<em>N</em><sup>2</sup>,<em>N</em><sup>4</sup>-di-2-propen-1-yl-, methanesulfonate (1:2);<em>s</em>-Triazine, 2,4-bis(allylamino)-6-[4-[bis(<em>p</em>-fluorophenyl)methyl]-1-piperazinyl]-, dimethanesulfonate;1,3,5-Triazine-2,4-diamine, 6-[4-[bis(4-fluorophenyl)methyl]-1-piperazinyl]-<em>N</em>,<em>N</em>′-di-2-propenyl-, dimethanesulfonate;1-(4,6-Bis(allylamino)-2-<em>s</em>-triazinyl)-4-(4,4′-difluorobenzhydryl)piperazine bis(methane sulfonate);1-[4,6-Bis(allylamino)-<em>s</em>-triazin-2-yl]-4-(di-<em>p</em>-fluorobenzhydryl)piperazine bis(methanesulfonate);1-(4,6-Diallylamino-2-triazinyl)-4-(di-<em>p</em>-fluorobenzhydryl)piperazine bis(methanesulfonate);Almitrine bismethanesulfonate;Almitrine dimesylate;Vectarion;Almitrine bismesylate;Almitrine dimethanesulfonate;Almitrine mesylate",
    "duplicated_cas_no": "",
    "SMILES": "C(N1CCN(CC1)C=2N=C(NCC=C)N=C(NCC=C)N2)(C3=CC=C(F)C=C3)C4=CC=C(F)C=C4.S(C)(=O)(=O)O",
    "meta_data": {
        "InChI": "InChI=1S/C26H29F2N7.CH4O3S/c1-3-13-29-24-31-25(30-14-4-2)33-26(32-24)35-17-15-34(16-18-35)23(19-5-9-21(27)10-6-19)20-7-11-22(28)12-8-20;1-5(2,3)4/h3-12,23H,1-2,13-18H2,(H2,29,30,31,32,33);1H3,(H,2,3,4)",
        "InChIKey": null,
        "Canonical SMILES": "O=S(=O)(O)C.FC1=CC=C(C=C1)C(C2=CC=C(F)C=C2)N3CCN(C=4N=C(N=C(N4)NCC=C)NCC=C)CC3",
        "Molecular Formula": "C<sub>26</sub>H<sub>29</sub>F<sub>2</sub>N<sub>7</sub>.2CH<sub>4</sub>O<sub>3</sub>S",
        "Molecular Mass": "",
        "Melting Point": "243 °C (decomp)"
    }
}