{
    "cas_no": "1671-76-7",
    "key_name": "Butyl 4-methoxyphenyl ketone",
    "cn_name": null,
    "alternate_name": "1-Pentanone, 1-(4-methoxyphenyl)-;Valerophenone, 4′-methoxy-;1-(4-Methoxyphenyl)-1-pentanone;<em>p</em>-Methoxyvalerophenone;4′-Methoxyvalerophenone;Butyl <em>p</em>-methoxyphenyl ketone;Butyl 4-methoxyphenyl ketone;NSC 406939;4-Methoxyvalerophenone",
    "duplicated_cas_no": "",
    "SMILES": "C(CCCC)(=O)C1=CC=C(OC)C=C1",
    "meta_data": {
        "InChI": "InChI=1S/C12H16O2/c1-3-4-5-12(13)10-6-8-11(14-2)9-7-10/h6-9H,3-5H2,1-2H3",
        "InChIKey": null,
        "Canonical SMILES": "O=C(C1=CC=C(OC)C=C1)CCCC",
        "Molecular Formula": "C<sub>12</sub>H<sub>16</sub>O<sub>2</sub>",
        "Molecular Mass": "192.25",
        "Boiling Point": "300 °C @ Press: 739 Torr",
        "Melting Point": "22-23.5 °C"
    }
}