{
    "cas_no": "3209-46-9",
    "key_name": "<em>N</em>,<em>N</em>-Dimethyl-1,5-pentanediamine",
    "cn_name": null,
    "alternate_name": "1,5-Pentanediamine, <em>N</em><sup>1</sup>,<em>N</em><sup>1</sup>-dimethyl-;1,5-Pentanediamine, <em>N</em>,<em>N</em>-dimethyl-;<em>N</em><sup>1</sup>,<em>N</em><sup>1</sup>-Dimethyl-1,5-pentanediamine;<em>N</em>,<em>N</em>-Dimethyl-1,5-pentanediamine;<em>N</em>,<em>N</em>-Dimethylpentamethylenediamine;5-Dimethylaminopentylamine;5-(Dimethylamino)amylamine;Dimethylaminopentylamine;(5-Aminopentyl)dimethylamine;<em>N</em>1,N1-Dimethylpentane-1,5-diamine",
    "duplicated_cas_no": "",
    "SMILES": "C(CN(C)C)CCCN",
    "meta_data": {
        "InChI": "InChI=1S/C7H18N2/c1-9(2)7-5-3-4-6-8/h3-8H2,1-2H3",
        "InChIKey": null,
        "Canonical SMILES": "NCCCCCN(C)C",
        "Molecular Formula": "C<sub>7</sub>H<sub>18</sub>N<sub>2</sub>",
        "Molecular Mass": "130.23",
        "Boiling Point": "79-80 °C @ Press: 16 Torr",
        "Melting Point": "85 °C"
    }
}