{
    "cas_no": "88903-69-9",
    "key_name": "(1<em>R</em>,4a<em>R</em>,11<em>R</em>,12a<em>S</em>,13<em>S</em>,16a<em>S</em>,23<em>R</em>,24a<em>S</em>)-Eicosahydro-5<em>H</em>,17<em>H</em>-1,23:11,13-diethano-2<em>H</em>,14<em>H</em>-[1,11]dioxacycloeicosino[2,3-<em>b</em>:12,13-<em>b</em>′]dipyridine",
    "cn_name": null,
    "alternate_name": "5<em>H</em>,17<em>H</em>-1,23:11,13-Diethano-2<em>H</em>,14<em>H</em>-[1,11]dioxacycloeicosino[2,3-<em>b</em>:12,13-<em>b</em>′]dipyridine, eicosahydro-, (1<em>R</em>,4a<em>R</em>,11<em>R</em>,12a<em>S</em>,13<em>S</em>,16a<em>S</em>,23<em>R</em>,24a<em>S</em>)-;5<em>H</em>,17<em>H</em>-1,23:11,13-Diethano-2<em>H</em>,14<em>H</em>-[1,11]dioxacycloeicosino[2,3-<em>b</em>:12,13-<em>b</em>′]dipyridine, eicosahydro-, [1<em>R</em>-(1<em>R</em>*,4a<em>R</em>*,11<em>R</em>*,12a<em>S</em>*,13<em>S</em>*,16a<em>S</em>*,23<em>R</em>*,24a<em>S</em>*)]-;(1<em>R</em>,4a<em>R</em>,11<em>R</em>,12a<em>S</em>,13<em>S</em>,16a<em>S</em>,23<em>R</em>,24a<em>S</em>)-Eicosahydro-5<em>H</em>,17<em>H</em>-1,23:11,13-diethano-2<em>H</em>,14<em>H</em>-[1,11]dioxacycloeicosino[2,3-<em>b</em>:12,13-<em>b</em>′]dipyridine;Xestospongin C;Xestospongine C;(-)-Xestospongin C;Araguspongin E;(-)-Araguspongin E;Araguspongine E;(-)-Araguspongine E",
    "duplicated_cas_no": "123000-03-3",
    "SMILES": "[C@@]12([N@@]3CC[C@](O1)(CCCCCC[C@]4([C@@]5(O[C@](CCCCCC[C@]2(CCC3)[H])(CC[N@]5CCC4)[H])[H])[H])[H])[H]",
    "meta_data": {
        "InChI": "InChI=1S/C28H50N2O2/c1-3-7-15-25-17-21-30-20-10-14-24(28(30)31-25)12-6-2-4-8-16-26-18-22-29-19-9-13-23(11-5-1)27(29)32-26/h23-28H,1-22H2/t23-,24+,25-,26-,27+,28+/m1/s1",
        "InChIKey": null,
        "Canonical SMILES": "O1C2CCN3CCCC(CCCCCCC4OC5N(CCCC5CCCCCC2)CC4)C13",
        "Molecular Formula": "C<sub>28</sub>H<sub>50</sub>N<sub>2</sub>O<sub>2</sub>",
        "Molecular Mass": "446.71",
        "Melting Point": "146-147 °C"
    }
}