{
    "cas_no": "21406-61-1",
    "key_name": "Phosphonium, pentyltriphenyl-, bromide (1:1)",
    "cn_name": "(1-戊基)三苯基溴化磷;",
    "alternate_name": "Phosphonium, pentyltriphenyl-, bromide (1:1);Phosphonium, pentyltriphenyl-, bromide;Pentyltriphenylphosphonium bromide;Amyltriphenylphosphonium bromide;Bromo(pentyl)triphenylphosphorane",
    "duplicated_cas_no": "59725-01-8",
    "SMILES": "[P+](CCCCC)(C1=CC=CC=C1)(C2=CC=CC=C2)C3=CC=CC=C3.[Br-]",
    "meta_data": {
        "InChI": "InChI=1S/C23H26P.BrH/c1-2-3-13-20-24(21-14-7-4-8-15-21,22-16-9-5-10-17-22)23-18-11-6-12-19-23;/h4-12,14-19H,2-3,13,20H2,1H3;1H/q+1;/p-1",
        "InChIKey": null,
        "Canonical SMILES": "[Br-].C=1C=CC(=CC1)[P+](C=2C=CC=CC2)(C=3C=CC=CC3)CCCCC",
        "Molecular Formula": "C<sub>23</sub>H<sub>26</sub>P.Br",
        "Molecular Mass": "",
        "Melting Point": "165-167.5 °C"
    }
}