{
    "cas_no": "487-90-1",
    "key_name": "Porphobilinogen",
    "cn_name": null,
    "alternate_name": "1<em>H</em>-Pyrrole-3-propanoic acid, 5-(aminomethyl)-4-(carboxymethyl)-;Pyrrole-3-propionic acid, 5-(aminomethyl)-4-(carboxymethyl)-;5-(Aminomethyl)-4-(carboxymethyl)-1<em>H</em>-pyrrole-3-propanoic acid;PBG;Porphobilinogen;3-[5-(Aminomethyl)-4-(carboxymethyl)-1<em>H</em>-pyrrol-3-yl]propanoic acid hydrate;MeSH ID: D011162",
    "duplicated_cas_no": "1189314-12-2;2118404-09-2",
    "SMILES": "C(C(O)=O)C=1C(CCC(O)=O)=CNC1CN",
    "meta_data": {
        "InChI": "InChI=1S/C10H14N2O4/c11-4-8-7(3-10(15)16)6(5-12-8)1-2-9(13)14/h5,12H,1-4,11H2,(H,13,14)(H,15,16)",
        "InChIKey": null,
        "Canonical SMILES": "O=C(O)CC=1C(=CNC1CN)CCC(=O)O",
        "Molecular Formula": "C<sub>10</sub>H<sub>14</sub>N<sub>2</sub>O<sub>4</sub>",
        "Molecular Mass": "226.23",
        "Melting Point": "170-174 °C (decomp)"
    }
}