{
    "cas_no": "126-06-7",
    "key_name": "3-Bromo-1-chloro-5,5-dimethylhydantoin",
    "cn_name": "3-溴-1-氯-5,5-二甲基海因;",
    "alternate_name": "2,4-Imidazolidinedione, 3-bromo-1-chloro-5,5-dimethyl-;Hydantoin, 3-bromo-1-chloro-5,5-dimethyl-;3-Bromo-1-chloro-5,5-dimethyl-2,4-imidazolidinedione;1-Chloro-3-bromo-5,5-dimethylhydantoin;3-Bromo-1-chloro-5,5-dimethylhydantoin",
    "duplicated_cas_no": "",
    "SMILES": "CC1(C)C(=O)N(Br)C(=O)N1Cl",
    "meta_data": {
        "InChI": "InChI=1S/C5H6BrClN2O2/c1-5(2)3(10)8(6)4(11)9(5)7/h1-2H3",
        "InChIKey": null,
        "Canonical SMILES": "O=C1N(Br)C(=O)C(N1Cl)(C)C",
        "Molecular Formula": "C<sub>5</sub>H<sub>6</sub>BrClN<sub>2</sub>O<sub>2</sub>",
        "Molecular Mass": "241.47",
        "Melting Point": "163-164 °C"
    }
}