{
    "cas_no": "928-89-2",
    "key_name": "6-Chloro-1-hexene",
    "cn_name": "6-氯-1-己烯;",
    "alternate_name": "1-Hexene, 6-chloro-;6-Chloro-1-hexene;5-Hexen-1-yl chloride;5-Hexenyl chloride;1-Chlorohex-5-ene",
    "duplicated_cas_no": "",
    "SMILES": "C(CC=C)CCCl",
    "meta_data": {
        "InChI": "InChI=1S/C6H11Cl/c1-2-3-4-5-6-7/h2H,1,3-6H2",
        "InChIKey": null,
        "Canonical SMILES": "ClCCCCC=C",
        "Molecular Formula": "C<sub>6</sub>H<sub>11</sub>Cl",
        "Molecular Mass": "118.60",
        "Boiling Point": "128-130 °C"
    }
}