{
    "cas_no": "19220-93-0",
    "key_name": "Phenol, 2,3,4,5,6-pentafluoro-, 1-acetate",
    "cn_name": null,
    "alternate_name": "Phenol, 2,3,4,5,6-pentafluoro-, 1-acetate;Phenol, pentafluoro-, acetate;Pentafluorophenyl acetate;NSC 168737",
    "duplicated_cas_no": "",
    "SMILES": "O(C(C)=O)C1=C(F)C(F)=C(F)C(F)=C1F",
    "meta_data": {
        "InChI": "InChI=1S/C8H3F5O2/c1-2(14)15-8-6(12)4(10)3(9)5(11)7(8)13/h1H3",
        "InChIKey": null,
        "Canonical SMILES": "O=C(OC=1C(F)=C(F)C(F)=C(F)C1F)C",
        "Molecular Formula": "C<sub>8</sub>H<sub>3</sub>F<sub>5</sub>O<sub>2</sub>",
        "Molecular Mass": "226.10",
        "Boiling Point": "74 °C"
    }
}