{
    "cas_no": "22232-54-8",
    "key_name": "Carbimazole",
    "cn_name": "卡比吗唑;卡比马唑;甲亢平;3-甲基-2-硫代咪唑啉-1-羧酸乙酯;",
    "alternate_name": "1<em>H</em>-Imidazole-1-carboxylic acid, 2,3-dihydro-3-methyl-2-thioxo-, ethyl ester;4-Imidazoline-1-carboxylic acid, 3-methyl-2-thioxo-, ethyl ester;Tyrazol;Carbimazole;1-Ethoxycarbonyl-3-methyl-2-thio-4-imidazoline;Ethyl 3-methyl-2-thioimidazoline-1-carboxylate;1-Methyl-3-carbethoxy-2-thioglyoxalone;Athyromazole;CG 1;3-Carbethoxymercapto-1-methylimidazole;Carbethoxymethimazole;3-Carbethoxythio-1-methylglyoxaline;3-Carbethoxythio-1-methyliminazole;Neomercazole;Ethyl 3-methyl-2-thioxo-Δ<sup>4</sup>-imidazoline-1-carboxylate;Basolest;Carbimazol;Neo-Thyreostat",
    "duplicated_cas_no": "",
    "SMILES": "C(OCC)(=O)N1C(=S)N(C)C=C1",
    "meta_data": {
        "InChI": "InChI=1S/C7H10N2O2S/c1-3-11-7(10)9-5-4-8(2)6(9)12/h4-5H,3H2,1-2H3",
        "InChIKey": null,
        "Canonical SMILES": "O=C(OCC)N1C=CN(C1=S)C",
        "Molecular Formula": "C<sub>7</sub>H<sub>10</sub>N<sub>2</sub>O<sub>2</sub>S",
        "Molecular Mass": "186.23",
        "Melting Point": "123.5 °C"
    }
}