{
    "cas_no": "139-59-3",
    "key_name": "(4-Aminophenoxy)benzene",
    "cn_name": "4-氨基二苯醚;",
    "alternate_name": "Benzenamine, 4-phenoxy-;Aniline, <em>p</em>-phenoxy-;4-Phenoxybenzenamine;<em>p</em>-Phenoxyaniline;4-Aminodiphenyl ether;4-Phenoxyaniline;<em>p</em>-Aminophenyl phenyl ether;4-Amino-1-phenoxybenzene;4-Aminophenyl phenyl ether;<em>p</em>-Phenoxyphenylamine;4-Phenoxyphenylamine;NSC 4629;NSC 57084;NSC 61131;4-(Phenyloxy)aniline;(4-Aminophenoxy)benzene;1-Amino-4-phenoxybenzene",
    "duplicated_cas_no": "",
    "SMILES": "O(C1=CC=C(N)C=C1)C2=CC=CC=C2",
    "meta_data": {
        "InChI": "InChI=1S/C12H11NO/c13-10-6-8-12(9-7-10)14-11-4-2-1-3-5-11/h1-9H,13H2",
        "InChIKey": null,
        "Canonical SMILES": "O(C=1C=CC=CC1)C2=CC=C(N)C=C2",
        "Molecular Formula": "C<sub>12</sub>H<sub>11</sub>NO",
        "Molecular Mass": "185.22",
        "Boiling Point": "187-189 °C",
        "Melting Point": "83 °C"
    }
}