{
    "cas_no": "3989-36-4",
    "key_name": "Ethyl 1,2,3-thiadiazole-4-carboxylate",
    "cn_name": "1,2,3-噻重氮-4-羧酸乙酯;1,2,3-噻重氮-4-羧酸乙酯;",
    "alternate_name": "1,2,3-Thiadiazole-4-carboxylic acid, ethyl ester;Ethyl 1,2,3-thiadiazole-4-carboxylate;4-(Ethoxycarbonyl)-1,2,3-thiadiazole;NSC 78612",
    "duplicated_cas_no": "",
    "SMILES": "C(OCC)(=O)C1=CSN=N1",
    "meta_data": {
        "InChI": "InChI=1S/C5H6N2O2S/c1-2-9-5(8)4-3-10-7-6-4/h3H,2H2,1H3",
        "InChIKey": null,
        "Canonical SMILES": "O=C(OCC)C=1N=NSC1",
        "Molecular Formula": "C<sub>5</sub>H<sub>6</sub>N<sub>2</sub>O<sub>2</sub>S",
        "Molecular Mass": "158.18",
        "Melting Point": "86-86.5 °C"
    }
}