{
    "cas_no": "1721-69-3",
    "key_name": "Lup-20(29)-ene-3,28-diol, 3,28-diacetate, (3β)-",
    "cn_name": "桦木脑二乙酸;桦木脑二乙酸;",
    "alternate_name": "Lup-20(29)-ene-3,28-diol, 3,28-diacetate, (3β)-;Lup-20(29)-ene-3β,28-diol, diacetate;Lup-20(29)-ene-3,28-diol, diacetate, (3β)-;Lup-20(30)-ene-3β,28-diol, diacetate;Betulin diacetate;3,28-Di-<em>O</em>-acetylbetulin;Betulin 3,28-diacetate;(+)-Betulin diacetate;3,28-Diacetylbetulin;Betulinol diacetate;NSC 38876;3,28-Diacetoxy-betulin;Betulinol biacetate;(3β)-3,28-Diacetyloxylup-20(29)-ene",
    "duplicated_cas_no": "",
    "SMILES": "C(OC(C)=O)[C@]12[C@@]([C@@]3([C@@](C)(CC1)[C@@]4(C)[C@](CC3)([C@]5(C)[C@@](CC4)(C(C)(C)[C@@H](OC(C)=O)CC5)[H])[H])[H])([C@H](C(C)=C)CC2)[H]",
    "meta_data": {
        "InChI": "InChI=1S/C34H54O4/c1-21(2)24-12-17-34(20-37-22(3)35)19-18-32(8)25(29(24)34)10-11-27-31(7)15-14-28(38-23(4)36)30(5,6)26(31)13-16-33(27,32)9/h24-29H,1,10-20H2,2-9H3/t24-,25+,26-,27+,28-,29+,31-,32+,33+,34+/m0/s1",
        "InChIKey": null,
        "Canonical SMILES": "O=C(OCC12CCC(C(=C)C)C2C3CCC4C5(C)CCC(OC(=O)C)C(C)(C)C5CCC4(C)C3(C)CC1)C",
        "Molecular Formula": "C<sub>34</sub>H<sub>54</sub>O<sub>4</sub>",
        "Molecular Mass": "526.79",
        "Melting Point": "218-218.5 °C",
        "Density": "0.9635 g/cm³ @ Temp: 28.5 °C"
    }
}