{
    "cas_no": "491833-29-5",
    "key_name": "<em>N</em>-[(1<em>R</em>,2<em>R</em>)-2-(2,3-Dihydro-1,4-benzodioxin-6-yl)-2-hydroxy-1-(1-pyrrolidinylmethyl)ethyl]octanamide",
    "cn_name": null,
    "alternate_name": "Octanamide, <em>N</em>-[(1<em>R</em>,2<em>R</em>)-2-(2,3-dihydro-1,4-benzodioxin-6-yl)-2-hydroxy-1-(1-pyrrolidinylmethyl)ethyl]-;<em>N</em>-[(1<em>R</em>,2<em>R</em>)-2-(2,3-Dihydro-1,4-benzodioxin-6-yl)-2-hydroxy-1-(1-pyrrolidinylmethyl)ethyl]octanamide;Eliglustat;Genz 99067;Cerdelga",
    "duplicated_cas_no": "",
    "SMILES": "[C@@H]([C@@H](CN1CCCC1)NC(CCCCCCC)=O)(O)C=2C=C3C(=CC2)OCCO3",
    "meta_data": {
        "InChI": "InChI=1S/C23H36N2O4/c1-2-3-4-5-6-9-22(26)24-19(17-25-12-7-8-13-25)23(27)18-10-11-20-21(16-18)29-15-14-28-20/h10-11,16,19,23,27H,2-9,12-15,17H2,1H3,(H,24,26)/t19-,23-/m1/s1",
        "InChIKey": null,
        "Canonical SMILES": "O=C(NC(CN1CCCC1)C(O)C2=CC=C3OCCOC3=C2)CCCCCCC",
        "Molecular Formula": "C<sub>23</sub>H<sub>36</sub>N<sub>2</sub>O<sub>4</sub>",
        "Molecular Mass": "404.54",
        "Melting Point": "85-87 °C"
    }
}