{
    "cas_no": "70049-77-3",
    "key_name": "3-(Aminosulfonyl)-4-chlorobenzoyl chloride",
    "cn_name": "4-氯-3-氨磺酰基苯甲酰氯;",
    "alternate_name": "Benzoyl chloride, 3-(aminosulfonyl)-4-chloro-;Benzoyl chloride, 4-chloro-3-sulfamoyl-;3-(Aminosulfonyl)-4-chlorobenzoyl chloride;4-Chloro-3-sulfamoylbenzoyl chloride",
    "duplicated_cas_no": "",
    "SMILES": "S(N)(=O)(=O)C1=CC(C(Cl)=O)=CC=C1Cl",
    "meta_data": {
        "InChI": "InChI=1S/C7H5Cl2NO3S/c8-5-2-1-4(7(9)11)3-6(5)14(10,12)13/h1-3H,(H2,10,12,13)",
        "InChIKey": null,
        "Canonical SMILES": "O=C(Cl)C1=CC=C(Cl)C(=C1)S(=O)(=O)N",
        "Molecular Formula": "C<sub>7</sub>H<sub>5</sub>Cl<sub>2</sub>NO<sub>3</sub>S",
        "Molecular Mass": "254.09",
        "Melting Point": "158-160 °C"
    }
}