{
    "cas_no": "1709-39-3",
    "key_name": "4-Amino-<em>N</em>,<em>N</em>-diethylbenzenesulfonamide",
    "cn_name": null,
    "alternate_name": "Benzenesulfonamide, 4-amino-<em>N</em>,<em>N</em>-diethyl-;Sulfanilamide, <em>N</em><sup>1</sup>,<em>N</em><sup>1</sup>-diethyl-;4-Amino-<em>N</em>,<em>N</em>-diethylbenzenesulfonamide;<em>N</em>,<em>N</em>-Diethyl-4-aminobenzenesulfonamide;<em>N</em><sup>1</sup>,<em>N</em><sup>1</sup>-Diethylsulfanilamide;NSC 15769",
    "duplicated_cas_no": "",
    "SMILES": "S(N(CC)CC)(=O)(=O)C1=CC=C(N)C=C1",
    "meta_data": {
        "InChI": "InChI=1S/C10H16N2O2S/c1-3-12(4-2)15(13,14)10-7-5-9(11)6-8-10/h5-8H,3-4,11H2,1-2H3",
        "InChIKey": null,
        "Canonical SMILES": "O=S(=O)(C1=CC=C(N)C=C1)N(CC)CC",
        "Molecular Formula": "C<sub>10</sub>H<sub>16</sub>N<sub>2</sub>O<sub>2</sub>S",
        "Molecular Mass": "228.31",
        "Melting Point": "105-106 °C"
    }
}