{
    "cas_no": "89-81-6",
    "key_name": "(±)-Piperitone",
    "cn_name": "3甲基-6-(1-甲基乙基)-2-环己烯-1-酮;3-甲基-6-(1-甲基乙基)-2-环己烯-1-酮;胡椒酮;",
    "alternate_name": "2-Cyclohexen-1-one, 3-methyl-6-(1-methylethyl)-;<em>p</em>-Menth-1-en-3-one;3-Methyl-6-(1-methylethyl)-2-cyclohexen-1-one;3-Carvomenthenone;4-Isopropyl-1-methyl-1-cyclohexen-3-one;Piperitone;3-Methyl-6-isopropyl-2-cyclohexen-1-one;6-Isopropyl-3-methyl-2-cyclohexen-1-one;<em>dl</em>-Piperitone;(±)-Piperitone;NSC 251528;3-Methyl-6-propan-2-ylcyclohex-2-en-1-one;3-Methyl-6-(propan-2-yl)cyclohex-2-en-1-one",
    "duplicated_cas_no": "6091-52-7;1082702-70-2",
    "SMILES": "C(C)(C)C1C(=O)C=C(C)CC1",
    "meta_data": {
        "InChI": "InChI=1S/C10H16O/c1-7(2)9-5-4-8(3)6-10(9)11/h6-7,9H,4-5H2,1-3H3",
        "InChIKey": null,
        "Canonical SMILES": "O=C1C=C(C)CCC1C(C)C",
        "Molecular Formula": "C<sub>10</sub>H<sub>16</sub>O",
        "Molecular Mass": "152.23",
        "Boiling Point": "233 °C",
        "Melting Point": "&lt;25 °C",
        "Density": "0.9331 g/cm³ @ Temp: 20 °C"
    }
}