{
    "cas_no": "90566-53-3",
    "key_name": "Fluticasone",
    "cn_name": "氟替卡松;",
    "alternate_name": "Androsta-1,4-diene-17-carbothioic acid, 6,9-difluoro-11,17-dihydroxy-16-methyl-3-oxo-, <em>S</em>-(fluoromethyl) ester, (6α,11β,16α,17α)-;Fluticasone;VR 506",
    "duplicated_cas_no": "220589-36-6",
    "SMILES": "C[C@@]12[C@]([C@]3([C@@](F)([C@]4(C)C([C@@H](F)C3)=CC(=O)C=C4)[C@@H](O)C1)[H])(C[C@@H](C)[C@@]2(C(SCF)=O)O)[H]",
    "meta_data": {
        "InChI": "InChI=1S/C22H27F3O4S/c1-11-6-13-14-8-16(24)15-7-12(26)4-5-19(15,2)21(14,25)17(27)9-20(13,3)22(11,29)18(28)30-10-23/h4-5,7,11,13-14,16-17,27,29H,6,8-10H2,1-3H3/t11-,13+,14+,16+,17+,19+,20+,21+,22+/m1/s1",
        "InChIKey": null,
        "Canonical SMILES": "O=C1C=CC2(C(=C1)C(F)CC3C4CC(C)C(O)(C(=O)SCF)C4(C)CC(O)C32F)C",
        "Molecular Formula": "C<sub>22</sub>H<sub>27</sub>F<sub>3</sub>O<sub>4</sub>S",
        "Molecular Mass": "444.51",
        "Melting Point": "237-239 °C"
    }
}