{
    "cas_no": "16588-74-2",
    "key_name": "3,5-Bis(trifluoromethyl)phenyl isocyanate",
    "cn_name": null,
    "alternate_name": "Benzene, 1-isocyanato-3,5-bis(trifluoromethyl)-;Isocyanic acid, α,α,α,α′,α′,α′-hexafluoro-3,5-xylyl ester;1-Isocyanato-3,5-bis(trifluoromethyl)benzene;3,5-Bis(trifluoromethyl)phenyl isocyanate;3,5-Di(trifluoromethyl)phenyl isocyanate",
    "duplicated_cas_no": "2716241-48-2",
    "SMILES": "C(F)(F)(F)C1=CC(C(F)(F)F)=CC(N=C=O)=C1",
    "meta_data": {
        "InChI": "InChI=1S/C9H3F6NO/c10-8(11,12)5-1-6(9(13,14)15)3-7(2-5)16-4-17/h1-3H",
        "InChIKey": null,
        "Canonical SMILES": "O=C=NC=1C=C(C=C(C1)C(F)(F)F)C(F)(F)F",
        "Molecular Formula": "C<sub>9</sub>H<sub>3</sub>F<sub>6</sub>NO",
        "Molecular Mass": "255.12",
        "Boiling Point": "63 °C @ Press: 14 Torr"
    }
}