{
    "cas_no": "104-83-6",
    "key_name": "4-Chlorobenzyl chloride",
    "cn_name": "4-氯氯苄;对氯氯苄;4-氯苄基氯;",
    "alternate_name": "Benzene, 1-chloro-4-(chloromethyl)-;Toluene, <em>p</em>,α-dichloro-;1-Chloro-4-(chloromethyl)benzene;<em>p</em>,α-Dichlorotoluene;<em>p</em>-Chlorobenzyl chloride;α,<em>p</em>-Dichlorotoluene;4-Chlorobenzyl chloride;α,4-Dichlorotoluene;(4-Chlorophenyl)methyl chloride;<em>p</em>-Chlorophenylmethyl chloride;1-(Chloromethyl)-4-chlorobenzene;NSC 34032;4-Chloro-1-(chloromethyl)benzene;4-Chloromethylchlorobenzene",
    "duplicated_cas_no": "",
    "SMILES": "C(Cl)C1=CC=C(Cl)C=C1",
    "meta_data": {
        "InChI": "InChI=1S/C7H6Cl2/c8-5-6-1-3-7(9)4-2-6/h1-4H,5H2",
        "InChIKey": null,
        "Canonical SMILES": "ClC1=CC=C(C=C1)CCl",
        "Molecular Formula": "C<sub>7</sub>H<sub>6</sub>Cl<sub>2</sub>",
        "Molecular Mass": "161.03",
        "Boiling Point": "223 °C",
        "Melting Point": "31 °C",
        "Density": "1.388 g/cm³ @ Temp: 20 °C"
    }
}