{
    "cas_no": "1916-07-0",
    "key_name": "Methyl 3,4,5-trimethoxybenzoate",
    "cn_name": "3,4,5-三甲氧基苯甲酸甲酯;",
    "alternate_name": "Benzoic acid, 3,4,5-trimethoxy-, methyl ester;Methyl 3,4,5-trimethoxybenzoate;Trimethylgallic acid methyl ester;3,4,5-Trimethoxybenzoic acid methyl ester;Methyl tri-<em>O</em>-methylgallate;Methyl gallate trimethyl ether;Methyl eudesmate;NSC 16955",
    "duplicated_cas_no": "",
    "SMILES": "O(C)C1=C(OC)C=C(C(OC)=O)C=C1OC",
    "meta_data": {
        "InChI": "InChI=1S/C11H14O5/c1-13-8-5-7(11(12)16-4)6-9(14-2)10(8)15-3/h5-6H,1-4H3",
        "InChIKey": null,
        "Canonical SMILES": "O=C(OC)C1=CC(OC)=C(OC)C(OC)=C1",
        "Molecular Formula": "C<sub>11</sub>H<sub>14</sub>O<sub>5</sub>",
        "Molecular Mass": "226.23",
        "Boiling Point": "118-120 °C @ Press: 0.1 Torr",
        "Melting Point": "82-83 °C"
    }
}