{
    "cas_no": "7790-86-5",
    "key_name": "Cerium trichloride",
    "cn_name": null,
    "alternate_name": "Cerium chloride (CeCl<sub>3</sub>);Cerous chloride;Cerium trichloride;Cerium chloride;Cerium(III) chloride;Cerous(III) chloride;NSC 84267",
    "duplicated_cas_no": "1082111-62-3",
    "SMILES": "[Ce](Cl)(Cl)Cl",
    "meta_data": {
        "InChI": "InChI=1S/Ce.3ClH/h;3*1H/q+3;;;/p-3",
        "InChIKey": null,
        "Canonical SMILES": "Cl[Ce](Cl)Cl",
        "Molecular Formula": "CeCl<sub>3</sub>",
        "Molecular Mass": "",
        "Melting Point": "788 °C"
    }
}