{
    "cas_no": "957-75-5",
    "key_name": "5-Bromouridine",
    "cn_name": "5-溴尿苷;5-溴尿嘧啶核苷;",
    "alternate_name": "Uridine, 5-bromo-;5-Bromouridine;(-)-5-Bromouridine;NSC 38296;4-Amino-5-bromo-1-[3,4-dihydroxy-5-(hydroxymethyl)oxolan-2-yl]pyrimidin-2-one",
    "duplicated_cas_no": "21597-77-3;1294478-58-2",
    "SMILES": "O[C@H]1[C@@H](O[C@H](CO)[C@H]1O)N2C(=O)NC(=O)C(Br)=C2",
    "meta_data": {
        "InChI": "InChI=1S/C9H11BrN2O6/c10-3-1-12(9(17)11-7(3)16)8-6(15)5(14)4(2-13)18-8/h1,4-6,8,13-15H,2H2,(H,11,16,17)/t4-,5-,6-,8-/m1/s1",
        "InChIKey": null,
        "Canonical SMILES": "O=C1NC(=O)N(C=C1Br)C2OC(CO)C(O)C2O",
        "Molecular Formula": "C<sub>9</sub>H<sub>11</sub>BrN<sub>2</sub>O<sub>6</sub>",
        "Molecular Mass": "323.10",
        "Melting Point": "181-184 °C (decomp)"
    }
}