{
    "cas_no": "16369-14-5",
    "key_name": "2-Amino-1-pentanol",
    "cn_name": null,
    "alternate_name": "1-Pentanol, 2-amino-;1-Pentanol, 2-amino-, <span class=\"text-smallcaps\">DL</span>-;1-Pentanol, 2-amino-, (±)-;2-Amino-1-pentanol;<em>dl</em>-Norvalinol;(±)-2-Aminopentan-1-ol;<span class=\"text-smallcaps\">DL</span>-2-Amino-1-pentanol;[1-(Hydroxymethyl)butyl]amine",
    "duplicated_cas_no": "141459-04-3;4146-04-7",
    "SMILES": "C(CCC)(CO)N",
    "meta_data": {
        "InChI": "InChI=1S/C5H13NO/c1-2-3-5(6)4-7/h5,7H,2-4,6H2,1H3",
        "InChIKey": null,
        "Canonical SMILES": "OCC(N)CCC",
        "Molecular Formula": "C<sub>5</sub>H<sub>13</sub>NO",
        "Molecular Mass": "103.16",
        "Boiling Point": "101 °C @ Press: 25 Torr",
        "Melting Point": "32 °C"
    }
}