{
    "cas_no": "98-19-1",
    "key_name": "1-(1,1-Dimethylethyl)-3,5-dimethylbenzene",
    "cn_name": null,
    "alternate_name": "Benzene, 1-(1,1-dimethylethyl)-3,5-dimethyl-;<em>m</em>-Xylene, 5-<em>tert</em>-butyl-;1-(1,1-Dimethylethyl)-3,5-dimethylbenzene;5-<em>tert</em>-Butyl-<em>m</em>-xylene;5-<em>tert</em>-Butyl-1,3-dimethylbenzene;1,3-Dimethyl-5-<em>tert</em>-butylbenzene;3,5-Dimethyl-<em>tert</em>-butylbenzene;1-<em>tert</em>-Butyl-3,5-dimethylbenzene;5-(1,1-Dimethylethyl)-1,3-dimethylbenzene;1,3-Dimethyl-5-(1,1-dimethylethyl)benzene;NSC 11016;(<em>tert</em>-Butyl)-3,5-dimethylbenzene",
    "duplicated_cas_no": "",
    "SMILES": "C(C)(C)(C)C1=CC(C)=CC(C)=C1",
    "meta_data": {
        "InChI": "InChI=1S/C12H18/c1-9-6-10(2)8-11(7-9)12(3,4)5/h6-8H,1-5H3",
        "InChIKey": null,
        "Canonical SMILES": "C=1C(=CC(=CC1C)C(C)(C)C)C",
        "Molecular Formula": "C<sub>12</sub>H<sub>18</sub>",
        "Molecular Mass": "162.27",
        "Boiling Point": "207 °C",
        "Melting Point": "-18 °C",
        "Density": "0.8671 g/cm³"
    }
}