{
    "cas_no": "29654-55-5",
    "key_name": "3,5-Dihydroxybenzyl alcohol",
    "cn_name": "3,5-二羟基苯甲醇;",
    "alternate_name": "1,3-Benzenediol, 5-(hydroxymethyl)-;Benzyl alcohol, 3,5-dihydroxy-;5-(Hydroxymethyl)-1,3-benzenediol;3,5-Dihydroxybenzyl alcohol;5-(Hydroxymethyl)resorcinol;1,3-Dihydroxy-5-(hydroxymethyl)benzene",
    "duplicated_cas_no": "",
    "SMILES": "C(O)C1=CC(O)=CC(O)=C1",
    "meta_data": {
        "InChI": "InChI=1S/C7H8O3/c8-4-5-1-6(9)3-7(10)2-5/h1-3,8-10H,4H2",
        "InChIKey": null,
        "Canonical SMILES": "OC=1C=C(O)C=C(C1)CO",
        "Molecular Formula": "C<sub>7</sub>H<sub>8</sub>O<sub>3</sub>",
        "Molecular Mass": "140.14",
        "Melting Point": "182 °C"
    }
}