{
    "cas_no": "1211-40-1",
    "key_name": "4-Amino-4′-nitrobiphenyl",
    "cn_name": "4-氨基-4\"-硝基联苯;",
    "alternate_name": "[1,1′-Biphenyl]-4-amine, 4′-nitro-;4-Biphenylamine, 4′-nitro-;4′-Nitro[1,1′-biphenyl]-4-amine;4-Amino-4′-nitrobiphenyl;4′-Nitro-4-biphenylamine;4′-Nitro-4-aminodiphenyl;4-Nitro-4′-aminodiphenyl;4-Amino-4′-nitro-1,1′-biphenyl;(4′-Nitrobiphenyl-4-yl)amine",
    "duplicated_cas_no": "",
    "SMILES": "N(=O)(=O)C1=CC=C(C=C1)C2=CC=C(N)C=C2",
    "meta_data": {
        "InChI": "InChI=1S/C12H10N2O2/c13-11-5-1-9(2-6-11)10-3-7-12(8-4-10)14(15)16/h1-8H,13H2",
        "InChIKey": null,
        "Canonical SMILES": "O=N(=O)C1=CC=C(C=C1)C=2C=CC(N)=CC2",
        "Molecular Formula": "C<sub>12</sub>H<sub>10</sub>N<sub>2</sub>O<sub>2</sub>",
        "Molecular Mass": "214.22",
        "Melting Point": "200-201 °C"
    }
}