{
    "cas_no": "105955-11-1",
    "key_name": "<em>N</em>-Oleoyldopamine",
    "cn_name": "N-油酰多巴胺;",
    "alternate_name": "9-Octadecenamide, <em>N</em>-[2-(3,4-dihydroxyphenyl)ethyl]-, (9<em>Z</em>)-;9-Octadecenamide, <em>N</em>-[2-(3,4-dihydroxyphenyl)ethyl]-, (<em>Z</em>)-;(9<em>Z</em>)-<em>N</em>-[2-(3,4-Dihydroxyphenyl)ethyl]-9-octadecenamide;<em>N</em>-Oleoyldopamine",
    "duplicated_cas_no": "",
    "SMILES": "C(CNC(CCCCCCC/C=C\\CCCCCCCC)=O)C1=CC(O)=C(O)C=C1",
    "meta_data": {
        "InChI": "InChI=1S/C26H43NO3/c1-2-3-4-5-6-7-8-9-10-11-12-13-14-15-16-17-26(30)27-21-20-23-18-19-24(28)25(29)22-23/h9-10,18-19,22,28-29H,2-8,11-17,20-21H2,1H3,(H,27,30)/b10-9-",
        "InChIKey": null,
        "Canonical SMILES": "O=C(NCCC1=CC=C(O)C(O)=C1)CCCCCCCC=CCCCCCCCC",
        "Molecular Formula": "C<sub>26</sub>H<sub>43</sub>NO<sub>3</sub>",
        "Molecular Mass": "417.62",
        "Melting Point": "50.5-52 °C"
    }
}