{
    "cas_no": "2665-12-5",
    "key_name": "Tris(2-methylphenyl) borate",
    "cn_name": "三邻甲苯基硼酸;",
    "alternate_name": "Boric acid, tris(2-methylphenyl) ester;Boric acid (H<sub>3</sub>BO<sub>3</sub>), tri-<em>o</em>-tolyl ester;Boric acid (H<sub>3</sub>BO<sub>3</sub>), tris(2-methylphenyl) ester;<em>o</em>-Tolyl borate;Tris(2-methylphenyl) borate;Tri-<em>o</em>-cresyl borate;Tris(<em>o</em>-methylphenyl) borate;Tri-<em>o</em>-tolyl borate;NSC 807",
    "duplicated_cas_no": "",
    "SMILES": "B(OC1=C(C)C=CC=C1)(OC2=C(C)C=CC=C2)OC3=C(C)C=CC=C3",
    "meta_data": {
        "InChI": "InChI=1S/C21H21BO3/c1-16-10-4-7-13-19(16)23-22(24-20-14-8-5-11-17(20)2)25-21-15-9-6-12-18(21)3/h4-15H,1-3H3",
        "InChIKey": null,
        "Canonical SMILES": "O(B(OC=1C=CC=CC1C)OC=2C=CC=CC2C)C=3C=CC=CC3C",
        "Molecular Formula": "C<sub>21</sub>H<sub>21</sub>BO<sub>3</sub>",
        "Molecular Mass": "332.20",
        "Boiling Point": "218 °C @ Press: 6 Torr"
    }
}