{
    "cas_no": "5616-32-0",
    "key_name": "(Methylamino)acetonitrile",
    "cn_name": null,
    "alternate_name": "Acetonitrile, 2-(methylamino)-;Glycinonitrile, <em>N</em>-methyl-;Acetonitrile, (methylamino)-;2-(Methylamino)acetonitrile;(Methylamino)acetonitrile;Sarcosinonitrile;<em>N</em>-(Methylamino)acetonitrile;Methyl(cyanomethyl)amine;NSC 99320",
    "duplicated_cas_no": "",
    "SMILES": "C(C#N)NC",
    "meta_data": {
        "InChI": "InChI=1S/C3H6N2/c1-5-3-2-4/h5H,3H2,1H3",
        "InChIKey": null,
        "Canonical SMILES": "N#CCNC",
        "Molecular Formula": "C<sub>3</sub>H<sub>6</sub>N<sub>2</sub>",
        "Molecular Mass": "70.09",
        "Boiling Point": "95-100 °C @ Press: 0.2 Torr",
        "Density": "0.9171 g/cm³ @ Temp: 25 °C"
    }
}