{
    "cas_no": "7480-35-5",
    "key_name": "<em>cis</em>-1-Amino-2-indanol",
    "cn_name": null,
    "alternate_name": "1<em>H</em>-Inden-2-ol, 1-amino-2,3-dihydro-, (1<em>R</em>,2<em>S</em>)-<em>rel</em>-;2-Indanol, 1-amino-, <em>cis</em>-;1<em>H</em>-Inden-2-ol, 1-amino-2,3-dihydro-, <em>cis</em>-;<em>rel</em>-(1<em>R</em>,2<em>S</em>)-1-Amino-2,3-dihydro-1<em>H</em>-inden-2-ol;(±)-<em>cis</em>-1-Amino-2-indanol;<em>cis</em>-1-Amino-2-indanol;<em>cis</em>-1-Amino-2-hydroxyindan",
    "duplicated_cas_no": "140632-20-8",
    "SMILES": "N[C@H]1C=2C(C[C@H]1O)=CC=CC2",
    "meta_data": {
        "InChI": "InChI=1/C9H11NO/c10-9-7-4-2-1-3-6(7)5-8(9)11/h1-4,8-9,11H,5,10H2/t8-,9+/s2",
        "InChIKey": null,
        "Canonical SMILES": "OC1CC=2C=CC=CC2C1N",
        "Molecular Formula": "C<sub>9</sub>H<sub>11</sub>NO",
        "Molecular Mass": "149.19",
        "Melting Point": "129-130 °C"
    }
}