{
    "cas_no": "5445-17-0",
    "key_name": "Methyl 2-bromopropanoate",
    "cn_name": "2-溴丙酸甲酯;alpha-溴丙酸甲酯;",
    "alternate_name": "Propanoic acid, 2-bromo-, methyl ester;Propionic acid, 2-bromo-, methyl ester;Methyl 2-bromopropanoate;Methyl α-bromopropionate;Methyl 2-bromopropionate;2-Bromopropanoic acid methyl ester;2-Bromopropionic acid methyl ester;<span class=\"text-smallcaps\">DL</span>-α-Bromopropionic acid methyl ester;Methyl <span class=\"text-smallcaps\">DL</span>-2-bromopropanoate;(±)-2-Bromopropionic acid methyl ester;(±)-Methyl 2-bromopropionate;Methyl <span class=\"text-smallcaps\">DL</span>-α-bromopropionate;Methyl (±)-α-bromopropionate;NSC 21973;Methyl α-bromopropanoate",
    "duplicated_cas_no": "57885-43-5",
    "SMILES": "C(C(Br)C)(OC)=O",
    "meta_data": {
        "InChI": "InChI=1S/C4H7BrO2/c1-3(5)4(6)7-2/h3H,1-2H3",
        "InChIKey": null,
        "Canonical SMILES": "O=C(OC)C(Br)C",
        "Molecular Formula": "C<sub>4</sub>H<sub>7</sub>BrO<sub>2</sub>",
        "Molecular Mass": "167.00",
        "Boiling Point": "37 °C @ Press: 10 Torr"
    }
}