{
    "cas_no": "1579-89-1",
    "key_name": "<em>N</em>-[4-Amino-3-(trifluoromethyl)phenyl]acetamide",
    "cn_name": "5-乙酰氨基-2-氨基三氟甲苯;",
    "alternate_name": "Acetamide, <em>N</em>-[4-amino-3-(trifluoromethyl)phenyl]-;<em>m</em>-Acetotoluidide, 4′-amino-α,α,α-trifluoro-;<em>N</em>-[4-Amino-3-(trifluoromethyl)phenyl]acetamide;α,α,α-Trifluoro-4′-amino-<em>m</em>-acetotoluidide;2-Amino-5-acetamidobenzotrifluoride",
    "duplicated_cas_no": "",
    "SMILES": "C(F)(F)(F)C1=CC(NC(C)=O)=CC=C1N",
    "meta_data": {
        "InChI": "InChI=1S/C9H9F3N2O/c1-5(15)14-6-2-3-8(13)7(4-6)9(10,11)12/h2-4H,13H2,1H3,(H,14,15)",
        "InChIKey": null,
        "Canonical SMILES": "O=C(NC1=CC=C(N)C(=C1)C(F)(F)F)C",
        "Molecular Formula": "C<sub>9</sub>H<sub>9</sub>F<sub>3</sub>N<sub>2</sub>O",
        "Molecular Mass": "218.18",
        "Melting Point": "118-119 °C"
    }
}