{
    "cas_no": "562-90-3",
    "key_name": "Tetraacetoxysilane",
    "cn_name": "硅酸四乙酸酐;",
    "alternate_name": "Acetic acid, 1,1′,1′′,1′′′-tetraanhydride with silicic acid (H<sub>4</sub>SiO<sub>4</sub>);Acetic acid, tetraanhydride with silicic acid (H<sub>4</sub>SiO<sub>4</sub>);Acetic acid, tetraanhydride with H4SiO4;Silicic acid (H<sub>4</sub>SiO<sub>4</sub>), tetraanhydride with acetic acid;Silicon tetraacetate;Tetraacetoxysilane;Silane, tetrakis(acetyloxy)-",
    "duplicated_cas_no": "16201-97-1",
    "SMILES": "[Si](OC(C)=O)(OC(C)=O)(OC(C)=O)OC(C)=O",
    "meta_data": {
        "InChI": "InChI=1S/C8H12O8Si/c1-5(9)13-17(14-6(2)10,15-7(3)11)16-8(4)12/h1-4H3",
        "InChIKey": null,
        "Canonical SMILES": "O=C(O[Si](OC(=O)C)(OC(=O)C)OC(=O)C)C",
        "Molecular Formula": "C<sub>8</sub>H<sub>12</sub>O<sub>8</sub>Si",
        "Molecular Mass": "264.26",
        "Boiling Point": "148 °C",
        "Melting Point": "110 °C"
    }
}