{
    "cas_no": "576-55-6",
    "key_name": "3,4,5,6-Tetrabromo-<em>o</em>-cresol",
    "cn_name": "3,4,5,6-四溴邻甲酚;",
    "alternate_name": "Phenol, 2,3,4,5-tetrabromo-6-methyl-;<em>o</em>-Cresol, 3,4,5,6-tetrabromo-;2,3,4,5-Tetrabromo-6-methylphenol;3,4,5,6-Tetrabromo-<em>o</em>-cresol;3,4,5,6-Tetrabromo-2-methylphenol;Remanol;Deodorant Richter/K;2-Methyl-3,4,5,6-tetrabromophenol;NSC 4866",
    "duplicated_cas_no": "1321-02-4",
    "SMILES": "BrC1=C(Br)C(Br)=C(O)C(C)=C1Br",
    "meta_data": {
        "InChI": "InChI=1S/C7H4Br4O/c1-2-3(8)4(9)5(10)6(11)7(2)12/h12H,1H3",
        "InChIKey": null,
        "Canonical SMILES": "BrC=1C(Br)=C(Br)C(=C(O)C1Br)C",
        "Molecular Formula": "C<sub>7</sub>H<sub>4</sub>Br<sub>4</sub>O",
        "Molecular Mass": "423.72",
        "Melting Point": "208 °C"
    }
}