{
    "cas_no": "290-37-9",
    "key_name": "Pyrazine",
    "cn_name": "吡嗪;对二氮杂苯;",
    "alternate_name": "Pyrazine;1,4-Diazabenzene;1,4-Diazine;Paradiazine;Piazine;<em>p</em>-Diazine;NSC 400221",
    "duplicated_cas_no": "1339899-95-4",
    "SMILES": "C=1C=NC=CN1",
    "meta_data": {
        "InChI": "InChI=1S/C4H4N2/c1-2-6-4-3-5-1/h1-4H",
        "InChIKey": null,
        "Canonical SMILES": "N=1C=CN=CC1",
        "Molecular Formula": "C<sub>4</sub>H<sub>4</sub>N<sub>2</sub>",
        "Molecular Mass": "80.09",
        "Boiling Point": "115 °C",
        "Melting Point": "55 °C"
    }
}