{
    "cas_no": "652-03-9",
    "key_name": "Tetrafluorophthalic acid",
    "cn_name": "3,4,5,6-四氟邻苯二甲酸;",
    "alternate_name": "1,2-Benzenedicarboxylic acid, 3,4,5,6-tetrafluoro-;Phthalic acid, tetrafluoro-;3,4,5,6-Tetrafluoro-1,2-benzenedicarboxylic acid;Tetrafluorophthalic acid;3,4,5,6-Tetrafluorophthalic acid;<em>o</em>-Tetrafluorobenzenedicarboxylic acid",
    "duplicated_cas_no": "",
    "SMILES": "C(O)(=O)C1=C(C(O)=O)C(F)=C(F)C(F)=C1F",
    "meta_data": {
        "InChI": "InChI=1S/C8H2F4O4/c9-3-1(7(13)14)2(8(15)16)4(10)6(12)5(3)11/h(H,13,14)(H,15,16)",
        "InChIKey": null,
        "Canonical SMILES": "O=C(O)C=1C(F)=C(F)C(F)=C(F)C1C(=O)O",
        "Molecular Formula": "C<sub>8</sub>H<sub>2</sub>F<sub>4</sub>O<sub>4</sub>",
        "Molecular Mass": "238.09",
        "Melting Point": "163 °C"
    }
}