{
    "cas_no": "10271-85-9",
    "key_name": "5-Isothiazolecarboxylic acid",
    "cn_name": null,
    "alternate_name": "5-Isothiazolecarboxylic acid;1,2-Thiazole-5-carboxylic acid",
    "duplicated_cas_no": "",
    "SMILES": "C(O)(=O)C1=CC=NS1",
    "meta_data": {
        "InChI": "InChI=1S/C4H3NO2S/c6-4(7)3-1-2-5-8-3/h1-2H,(H,6,7)",
        "InChIKey": null,
        "Canonical SMILES": "O=C(O)C=1SN=CC1",
        "Molecular Formula": "C<sub>4</sub>H<sub>3</sub>NO<sub>2</sub>S",
        "Molecular Mass": "129.14",
        "Melting Point": "196-200 °C (decomp)"
    }
}