{
    "cas_no": "169051-76-7",
    "key_name": "1,2-Dimethyl-3-propylimidazolium bis(trifluoromethylsulfonyl)imide",
    "cn_name": null,
    "alternate_name": "1<em>H</em>-Imidazolium, 1,2-dimethyl-3-propyl-, salt with 1,1,1-trifluoro-<em>N</em>-[(trifluoromethyl)sulfonyl]methanesulfonamide (1:1);Methanesulfonamide, 1,1,1-trifluoro-<em>N</em>-[(trifluoromethyl)sulfonyl]-, ion(1-), 1,2-dimethyl-3-propyl-1<em>H</em>-imidazolium;1,2-Dimethyl-3-propylimidazolium bis(trifluoromethylsulfonyl)imide;1,2-Dimethyl-3-propylimidazolium-bis(trifluoromethanesulfonyl)imide;1,2-Dimethyl-3-propylimidazolium bis[(trifluoromethyl)sulfonyl]amide",
    "duplicated_cas_no": "",
    "SMILES": "C(CC)[N+]1=C(C)N(C)C=C1.S([N-]S(C(F)(F)F)(=O)=O)(C(F)(F)F)(=O)=O",
    "meta_data": {
        "InChI": "InChI=1S/C8H15N2.C2F6NO4S2/c1-4-5-10-7-6-9(3)8(10)2;3-1(4,5)14(10,11)9-15(12,13)2(6,7)8/h6-7H,4-5H2,1-3H3;/q+1;-1",
        "InChIKey": null,
        "Canonical SMILES": "O=S(=O)([N-]S(=O)(=O)C(F)(F)F)C(F)(F)F.C1=C[N+](=C(N1C)C)CCC",
        "Molecular Formula": "C<sub>8</sub>H<sub>15</sub>N<sub>2</sub>.C<sub>2</sub>F<sub>6</sub>NO<sub>4</sub>S<sub>2</sub>",
        "Molecular Mass": "",
        "Melting Point": "11.29 °C",
        "Density": "1.4542 g/cm³ @ Temp: 30.9-31.3 °C"
    }
}