{
    "cas_no": "1440-61-5",
    "key_name": "4-(Chloroacetyl)morpholine",
    "cn_name": "4-(2-氯乙酰基)吗啉;2-氯-1-吗琳乙-1-酮;4-(2-氯乙酰基)吗啉;4-(2-氯乙酰)吗啉;",
    "alternate_name": "Ethanone, 2-chloro-1-(4-morpholinyl)-;Morpholine, 4-(chloroacetyl)-;2-Chloro-1-(4-morpholinyl)ethanone;<em>N</em>-(Chloroacetyl)morpholine;4-(Chloroacetyl)morpholine;Chloroacetic acid morpholide;4-Morpholinylcarbonylmethyl chloride;4-(2-Chloroacetyl)morpholine;2-Morpholino-2-oxoethyl chloride;2-Chloro-1-morpholino-1-ethanone;Chloroacetic acid morpholine amide;2-Chloro-1-(morpholin-4-yl)ethanone;NSC 54542;2-Chloro-1-morpholinoethanone;2-Chloro-1-(morpholin-4-yl)ethan-1-one",
    "duplicated_cas_no": "",
    "SMILES": "C(CCl)(=O)N1CCOCC1",
    "meta_data": {
        "InChI": "InChI=1S/C6H10ClNO2/c7-5-6(9)8-1-3-10-4-2-8/h1-5H2",
        "InChIKey": null,
        "Canonical SMILES": "O=C(N1CCOCC1)CCl",
        "Molecular Formula": "C<sub>6</sub>H<sub>10</sub>ClNO<sub>2</sub>",
        "Molecular Mass": "163.60",
        "Boiling Point": "152-160 °C @ Press: 6 Torr",
        "Density": "1.2782 g/cm³ @ Temp: 20 °C"
    }
}