{
    "cas_no": "10576-12-2",
    "key_name": "Ethyl <em>N</em>-hydroxyethanimidate",
    "cn_name": "乙酰羟肟酸乙酯;",
    "alternate_name": "Ethanimidic acid, <em>N</em>-hydroxy-, ethyl ester;Acetohydroximic acid, ethyl ester;Ethyl acetate, oxime;Ethyl <em>N</em>-hydroxyethanimidate;Ethyl acetohydroximate;Ethyl acetohydroxamate;Ethyl <em>N</em>-hydroxyacetimidate;NSC 255004;<em>N</em>-Hydroxyacetimidic acid ethyl ester;Ethyl <em>N</em>-hydroxylacetimidate",
    "duplicated_cas_no": "",
    "SMILES": "C(OCC)(=NO)C",
    "meta_data": {
        "InChI": "InChI=1S/C4H9NO2/c1-3-7-4(2)5-6/h6H,3H2,1-2H3",
        "InChIKey": null,
        "Canonical SMILES": "ON=C(OCC)C",
        "Molecular Formula": "C<sub>4</sub>H<sub>9</sub>NO<sub>2</sub>",
        "Molecular Mass": "103.12",
        "Boiling Point": "59-60 °C @ Press: 12 Torr",
        "Melting Point": "25-26 °C"
    }
}