{
    "cas_no": "6002-34-2",
    "key_name": "<em>tert</em>-Butyldiphenylphosphine",
    "cn_name": "叔丁基二苯基膦;",
    "alternate_name": "Phosphine, (1,1-dimethylethyl)diphenyl-;Phosphine, <em>tert</em>-butyldiphenyl-;(1,1-Dimethylethyl)diphenylphosphine;<em>tert</em>-Butyldiphenylphosphine;Diphenyl-<em>tert</em>-butylphosphine;Diphenyl(1,1-dimethylethyl)phosphine;Diphenyl(<em>tert</em>-butyl)phosphane;NSC 244302;Bis(<em>tert</em>-butyl)phenylphosphine",
    "duplicated_cas_no": "",
    "SMILES": "P(C(C)(C)C)(C1=CC=CC=C1)C2=CC=CC=C2",
    "meta_data": {
        "InChI": "InChI=1S/C16H19P/c1-16(2,3)17(14-10-6-4-7-11-14)15-12-8-5-9-13-15/h4-13H,1-3H3",
        "InChIKey": null,
        "Canonical SMILES": "C=1C=CC(=CC1)P(C=2C=CC=CC2)C(C)(C)C",
        "Molecular Formula": "C<sub>16</sub>H<sub>19</sub>P",
        "Molecular Mass": "242.30",
        "Boiling Point": "118-122 °C @ Press: 0.2 Torr"
    }
}