{
    "cas_no": "4177-16-6",
    "key_name": "Vinylpyrazine",
    "cn_name": "2-乙烯哌嗪;2-乙烯哌嗪;",
    "alternate_name": "Pyrazine, 2-ethenyl-;Pyrazine, vinyl-;Pyrazine, ethenyl-;2-Ethenylpyrazine;2-Vinylpyrazine;Vinylpyrazine",
    "duplicated_cas_no": "",
    "SMILES": "C(=C)C=1C=NC=CN1",
    "meta_data": {
        "InChI": "InChI=1S/C6H6N2/c1-2-6-5-7-3-4-8-6/h2-5H,1H2",
        "InChIKey": null,
        "Canonical SMILES": "N=1C=CN=C(C1)C=C",
        "Molecular Formula": "C<sub>6</sub>H<sub>6</sub>N<sub>2</sub>",
        "Molecular Mass": "106.13",
        "Boiling Point": "61 °C @ Press: 20 Torr",
        "Density": "1.046 g/cm³ @ Temp: 20 °C"
    }
}