{
    "cas_no": "3163-15-3",
    "key_name": "2-Aminoresorcinol",
    "cn_name": "2-氨基间苯二酚;2-氨基-1,3-苯二酚;",
    "alternate_name": "1,3-Benzenediol, 2-amino-;Resorcinol, 2-amino-;2-Amino-1,3-benzenediol;2-Aminoresorcinol;2,6-Dihydroxyaniline;2-Aminoresorcin;2-Aminobenzene-1,3-diol",
    "duplicated_cas_no": "",
    "SMILES": "NC1=C(O)C=CC=C1O",
    "meta_data": {
        "InChI": "InChI=1S/C6H7NO2/c7-6-4(8)2-1-3-5(6)9/h1-3,8-9H,7H2",
        "InChIKey": null,
        "Canonical SMILES": "OC1=CC=CC(O)=C1N",
        "Molecular Formula": "C<sub>6</sub>H<sub>7</sub>NO<sub>2</sub>",
        "Molecular Mass": "125.13",
        "Melting Point": "&gt;200 °C (decomp)"
    }
}