{
    "cas_no": "19309-90-1",
    "key_name": "Methacryloxypropylbis(trimethylsiloxy)methylsilane",
    "cn_name": null,
    "alternate_name": "2-Propenoic acid, 2-methyl-, 3-[1,3,3,3-tetramethyl-1-[(trimethylsilyl)oxy]-1-disiloxanyl]propyl ester;Methacrylic acid, 3-[1,3,3,3-tetramethyl-1-(trimethylsiloxy)disiloxanyl]propyl ester;2-Propenoic acid, 2-methyl-, 3-[1,3,3,3-tetramethyl-1-[(trimethylsilyl)oxy]disiloxanyl]propyl ester;Methacryloxypropylbis(trimethylsiloxy)methylsilane;(3-Methacryloxypropyl)bis(trimethylsiloxy)methylsilane;Bis(trimethylsiloxy)methylsilylpropyl methacrylate;3-Methacryloyloxypropylbis(trimethylsiloxy)methylsilane",
    "duplicated_cas_no": "",
    "SMILES": "[Si](CCCOC(C(C)=C)=O)(O[Si](C)(C)C)(O[Si](C)(C)C)C",
    "meta_data": {
        "InChI": "InChI=1S/C14H32O4Si3/c1-13(2)14(15)16-11-10-12-21(9,17-19(3,4)5)18-20(6,7)8/h1,10-12H2,2-9H3",
        "InChIKey": null,
        "Canonical SMILES": "O=C(OCCC[Si](O[Si](C)(C)C)(O[Si](C)(C)C)C)C(=C)C",
        "Molecular Formula": "C<sub>14</sub>H<sub>32</sub>O<sub>4</sub>Si<sub>3</sub>",
        "Molecular Mass": "348.66",
        "Boiling Point": "83-85 °C @ Press: 1.5 Torr",
        "Density": "0.912 g/cm³"
    }
}