{
    "cas_no": "54300-08-2",
    "key_name": "2-Acetyl-3,5-dimethylpyrazine",
    "cn_name": "2-乙酰基-3-5-二甲基吡嗪;",
    "alternate_name": "Ethanone, 1-(3,5-dimethyl-2-pyrazinyl)-;Ethanone, 1-(3,5-dimethylpyrazinyl)-;1-(3,5-Dimethyl-2-pyrazinyl)ethanone;2-Acetyl-3,5-dimethylpyrazine;1-(3,5-Dimethylpyrazin-2-yl)ethan-1-one",
    "duplicated_cas_no": "",
    "SMILES": "C(C)(=O)C=1C(C)=NC(C)=CN1",
    "meta_data": {
        "InChI": "InChI=1S/C8H10N2O/c1-5-4-9-8(7(3)11)6(2)10-5/h4H,1-3H3",
        "InChIKey": null,
        "Canonical SMILES": "O=C(C1=NC=C(N=C1C)C)C",
        "Molecular Formula": "C<sub>8</sub>H<sub>10</sub>N<sub>2</sub>O",
        "Molecular Mass": "150.18",
        "Boiling Point": "70 °C @ Press: 7 Torr"
    }
}