{
    "cas_no": "17832-28-9",
    "key_name": "4-Hydroxybutyl vinyl ether",
    "cn_name": "4-羟丁基乙烯基醚;",
    "alternate_name": "1-Butanol, 4-(ethenyloxy)-;1-Butanol, 4-(vinyloxy)-;4-(Ethenyloxy)-1-butanol;4-Hydroxybutyl vinyl ether;4-(Vinyloxy)-1-butanol;1,4-Butanediol monovinyl ether;Rapi-Cure HBVE;Tetramethylene glycol monovinyl ether;4-(Vinyloxy)butanol;HBVE;NECO 100",
    "duplicated_cas_no": "",
    "SMILES": "C(COC=C)CCO",
    "meta_data": {
        "InChI": "InChI=1S/C6H12O2/c1-2-8-6-4-3-5-7/h2,7H,1,3-6H2",
        "InChIKey": null,
        "Canonical SMILES": "OCCCCOC=C",
        "Molecular Formula": "C<sub>6</sub>H<sub>12</sub>O<sub>2</sub>",
        "Molecular Mass": "116.16",
        "Boiling Point": "83-85 °C @ Press: 15 Torr",
        "Density": "0.9448 g/cm³ @ Temp: 20 °C"
    }
}