{
    "cas_no": "109-43-3",
    "key_name": "Dibutyl sebacate",
    "cn_name": "癸二酸二丁酯;",
    "alternate_name": "Decanedioic acid, 1,10-dibutyl ester;Sebacic acid, dibutyl ester;Decanedioic acid, dibutyl ester;PX 404;Bis(<em>n</em>-butyl) sebacate;Dibutyl sebacate;Polycizer DBS;Staflex DBS;Kodaflex DBS;Di-<em>n</em>-Butyl sebacate;Ergoplast SDB;Dibutyl decanedioate;Sebacic acid di-<em>n</em>-butyl ester;Uniflex DBS;DBS;Reomol DBS;NSC 3893;Edenol DBS",
    "duplicated_cas_no": "98781-27-2;39393-66-3",
    "SMILES": "C(C(OCCCC)=O)CCCCCCCC(OCCCC)=O",
    "meta_data": {
        "InChI": "InChI=1S/C18H34O4/c1-3-5-15-21-17(19)13-11-9-7-8-10-12-14-18(20)22-16-6-4-2/h3-16H2,1-2H3",
        "InChIKey": null,
        "Canonical SMILES": "O=C(OCCCC)CCCCCCCCC(=O)OCCCC",
        "Molecular Formula": "C<sub>18</sub>H<sub>34</sub>O<sub>4</sub>",
        "Molecular Mass": "314.46",
        "Boiling Point": "344.5 °C",
        "Melting Point": "-10 °C",
        "Density": "0.9405 g/cm³ @ Temp: 15 °C"
    }
}