{
    "cas_no": "59-52-9",
    "key_name": "Dimercaprol",
    "cn_name": "二巯丙醇;二巯基丙醇;2,3-二巯基-1-丙醇;",
    "alternate_name": "1-Propanol, 2,3-dimercapto-;2,3-Dimercapto-1-propanol;BAL;Dicaptol;Dimercaprol;2,3-Dimercaptopropanol;Dithioglycerol;3-Hydroxy-1,2-propanedithiol;British antilewisite;1,2-Dithioglycerol;1,2-Dimercapto-3-propanol;2,3-Dithiopropanol;α,β-Dithioglycerol;Dimersol;Antoxol;Dithioglycerine;DMP;Panobal;Sulfactin;2,3-Dithiopropan-1-ol;NSC 39515;NSC 4646;2,3-Bis(sulfanyl)propan-1-ol;2,3-Disulfanylpropan-1-ol",
    "duplicated_cas_no": "98923-19-4;31855-41-1;81600-56-8",
    "SMILES": "C(CO)(CS)S",
    "meta_data": {
        "InChI": "InChI=1S/C3H8OS2/c4-1-3(6)2-5/h3-6H,1-2H2",
        "InChIKey": null,
        "Canonical SMILES": "OCC(S)CS",
        "Molecular Formula": "C<sub>3</sub>H<sub>8</sub>OS<sub>2</sub>",
        "Molecular Mass": "124.22",
        "Boiling Point": "140 °C",
        "Melting Point": "77 °C",
        "Density": "1.2385 g/cm³ @ Temp: 25 °C"
    }
}