{
    "cas_no": "95-31-8",
    "key_name": "<em>N</em>-(1,1-Dimethylethyl)-2-benzothiazolesulfenamide",
    "cn_name": "N-叔丁基-2-苯并噻唑次磺酰胺;",
    "alternate_name": "2-Benzothiazolesulfenamide, <em>N</em>-(1,1-dimethylethyl)-;2-Benzothiazolesulfenamide, <em>N</em>-<em>tert</em>-butyl-;<em>N</em>-(1,1-Dimethylethyl)-2-benzothiazolesulfenamide;Santocure NS;Vulkacit NZ;<em>N</em>-<em>tert</em>-Butyl-2-benzothiazolesulfenamide;2-(<em>tert</em>-Butylaminothio)benzothiazole;Benzothiazolyl-2-<em>tert</em>-butylsulfenamide;Nocceler NS;Accel BNS;<em>N</em>-<em>tert</em>-Butyl-2-benzothiazolylsulphenamide;Soxinol NS;Delac NS;2-[[(1,1-Dimethylethyl)amino]thio]benzothiazole;BBTS;Nocceler NS-F;SA-TB;Sanceler NS;Rhenogran TBBS 80;<em>N</em>-<em>tert</em>-Butyl-2-benzothiazolylsulfenamide;NSG;TBBS;NSG (heterocycle);Sanceler NS-G;<em>N</em>-<em>tert</em>-Butylbenzothiazolesulfenamide;Cure NS;Santocure TBBS;Perkacit TBBS;Sulfenamide TBBS;NSC 84176;Sulfenamide T;NS-P;Sanceler NS-F;NS-F;NS;Vulkacit NZ/EG-C;Vulkacit NZ/C;NS 80 (vulcanization accelerator);NS 80;Rubenamid T/Gr;Nocceler NS-G;<em>n</em>-<em>tert</em>-Butyl-2-benzothaiazole sulfonamide;Luvomaxx TBBS;Antioxidant NS;Nocceler NS-P;Santocure BBTS;TBBS 80;Vanax NS Rodform;Sanceler NS-P",
    "duplicated_cas_no": "40860-78-4;172451-95-5;179095-45-5;1234495-49-8",
    "SMILES": "S(NC(C)(C)C)C1=NC=2C(S1)=CC=CC2",
    "meta_data": {
        "InChI": "InChI=1S/C11H14N2S2/c1-11(2,3)13-15-10-12-8-6-4-5-7-9(8)14-10/h4-7,13H,1-3H3",
        "InChIKey": null,
        "Canonical SMILES": "N1=C(SNC(C)(C)C)SC=2C=CC=CC12",
        "Molecular Formula": "C<sub>11</sub>H<sub>14</sub>N<sub>2</sub>S<sub>2</sub>",
        "Molecular Mass": "238.37",
        "Melting Point": "108 °C",
        "Density": "1.29 g/cm³ @ Temp: 25 °C"
    }
}