{
    "cas_no": "6295-87-0",
    "key_name": "Pyridinium, 1-amino-, iodide (1:1)",
    "cn_name": "1-氨基吡啶碘;",
    "alternate_name": "Pyridinium, 1-amino-, iodide (1:1);Pyridinium, 1-amino-, iodide;1-Aminopyridinium iodide;<em>N</em>-Aminopyridinium iodide;NSC 49542;1-Aminopyridin-1-ium iodide;Pyridine-1-ium-1-amine iodide",
    "duplicated_cas_no": "85469-84-7",
    "SMILES": "N[N+]=1C=CC=CC1.[I-]",
    "meta_data": {
        "InChI": "InChI=1S/C5H7N2.HI/c6-7-4-2-1-3-5-7;/h1-5H,6H2;1H/q+1;/p-1",
        "InChIKey": null,
        "Canonical SMILES": "[I-].N[N+]=1C=CC=CC1",
        "Molecular Formula": "C<sub>5</sub>H<sub>7</sub>N<sub>2</sub>.I",
        "Molecular Mass": "",
        "Melting Point": "161-162 °C"
    }
}