{
    "cas_no": "20229-56-5",
    "key_name": "Quercetin 4′-<em>O</em>-glucoside",
    "cn_name": null,
    "alternate_name": "4<em>H</em>-1-Benzopyran-4-one, 2-[4-(β-<span class=\"text-smallcaps\">D</span>-glucopyranosyloxy)-3-hydroxyphenyl]-3,5,7-trihydroxy-;Spireoside;2-[4-(β-<span class=\"text-smallcaps\">D</span>-Glucopyranosyloxy)-3-hydroxyphenyl]-3,5,7-trihydroxy-4<em>H</em>-1-benzopyran-4-one;Spiraeoside;Quercetin 4′-glucoside;Quercetin 4′-<em>O</em>-glucoside;Quercetin 4′-β-<span class=\"text-smallcaps\">D</span>-glucopyranoside;Spiraein (Acacia);Spiraein;Spiraeosid;Quercetin 4′-<em>O</em>-β-<span class=\"text-smallcaps\">D</span>-glucopyranoside;Quercetin 4′-<em>O</em>-β-<span class=\"text-smallcaps\">D</span>-glucoside;Quercetin 4′-β-<span class=\"text-smallcaps\">D</span>-glucoside",
    "duplicated_cas_no": "27459-69-4;1313191-86-4",
    "SMILES": "O=C1C=2C(OC(=C1O)C3=CC(O)=C(O[C@@H]4O[C@H](CO)[C@@H](O)[C@H](O)[C@H]4O)C=C3)=CC(O)=CC2O",
    "meta_data": {
        "InChI": "InChI=1S/C21H20O12/c22-6-13-15(26)17(28)19(30)21(33-13)32-11-2-1-7(3-9(11)24)20-18(29)16(27)14-10(25)4-8(23)5-12(14)31-20/h1-5,13,15,17,19,21-26,28-30H,6H2/t13-,15-,17+,19-,21-/m1/s1",
        "InChIKey": null,
        "Canonical SMILES": "O=C1C(O)=C(OC=2C=C(O)C=C(O)C12)C=3C=CC(OC4OC(CO)C(O)C(O)C4O)=C(O)C3",
        "Molecular Formula": "C<sub>21</sub>H<sub>20</sub>O<sub>12</sub>",
        "Molecular Mass": "464.38",
        "Melting Point": "240-241 °C"
    }
}