{
    "cas_no": "3158-26-7",
    "key_name": "Octyl isocyanate",
    "cn_name": "正辛基异氰酸酯;1-异氰酸辛酯;",
    "alternate_name": "Octane, 1-isocyanato-;Isocyanic acid, octyl ester;1-Isocyanatooctane;Octyl isocyanate;<em>n</em>-Octyl isocyanate;1-Octyl isocyanate",
    "duplicated_cas_no": "1402151-44-3",
    "SMILES": "C(CCCCC)CCN=C=O",
    "meta_data": {
        "InChI": "InChI=1S/C9H17NO/c1-2-3-4-5-6-7-8-10-9-11/h2-8H2,1H3",
        "InChIKey": null,
        "Canonical SMILES": "O=C=NCCCCCCCC",
        "Molecular Formula": "C<sub>9</sub>H<sub>17</sub>NO",
        "Molecular Mass": "155.24",
        "Boiling Point": "94-95 °C @ Press: 18 Torr"
    }
}