{
    "cas_no": "475-81-0",
    "key_name": "(+)-Glaucine",
    "cn_name": "海?粟?;海?粟?;",
    "alternate_name": "4<em>H</em>-Dibenzo[<em>de</em>,<em>g</em>]quinoline, 5,6,6a,7-tetrahydro-1,2,9,10-tetramethoxy-6-methyl-, (6a<em>S</em>)-;Glaucine;6aα-Aporphine, 1,2,9,10-tetramethoxy-;4<em>H</em>-Dibenzo[<em>de</em>,<em>g</em>]quinoline, 5,6,6a,7-tetrahydro-1,2,9,10-tetramethoxy-6-methyl-, (<em>S</em>)-;(6a<em>S</em>)-5,6,6a,7-Tetrahydro-1,2,9,10-tetramethoxy-6-methyl-4<em>H</em>-dibenzo[<em>de</em>,<em>g</em>]quinoline;<em>d</em>-Glaucine;(+)-Glaucine;Boldine dimethyl ether;Bromcholitin;Glauvent;<em>S</em>-(+)-Glaucine;<em>O</em>,<em>O</em>-Dimethylisoboldine;(<em>S</em>)-Glaucine;<em>O</em>,<em>O</em>-Dimethylboldine;<em>N</em>,<em>O</em>,<em>O</em>′-Trimethyllaurelliptine;NSC 34396;(6AS)-1,2,9,10-tetramethoxy-6-methyl-5,6,6a,7-tetrahydro-4<em>H</em>-dibenzo[<em>de</em>,<em>g</em>]quinoline",
    "duplicated_cas_no": "",
    "SMILES": "O(C)C1=C2C=3[C@](CC=4C2=CC(OC)=C(OC)C4)(N(C)CCC3C=C1OC)[H]",
    "meta_data": {
        "InChI": "InChI=1S/C21H25NO4/c1-22-7-6-12-9-18(25-4)21(26-5)20-14-11-17(24-3)16(23-2)10-13(14)8-15(22)19(12)20/h9-11,15H,6-8H2,1-5H3/t15-/m0/s1",
        "InChIKey": null,
        "Canonical SMILES": "O(C=1C=C2C=3C(OC)=C(OC)C=C4C3C(N(C)CC4)CC2=CC1OC)C",
        "Molecular Formula": "C<sub>21</sub>H<sub>25</sub>NO<sub>4</sub>",
        "Molecular Mass": "355.43",
        "Melting Point": "124-125 °C"
    }
}