{
    "cas_no": "1467-79-4",
    "key_name": "Dimethylcyanamide",
    "cn_name": "二甲基氰胺;二甲基氨基氰;",
    "alternate_name": "Cyanamide, <em>N</em>,<em>N</em>-dimethyl-;Cyanamide, dimethyl-;<em>N</em>,<em>N</em>-Dimethylcyanamide;Dimethylcyanamide;<em>N</em>-Cyano-<em>N</em>-methylmethanamine;Cyanodimethylamine;Dimethylaminocarbonitrile;<em>N</em>-Cyanodimethylamine;NSC 7765;<em>N</em>,<em>N</em>-Dimethylcyanoamine",
    "duplicated_cas_no": "",
    "SMILES": "N(C#N)(C)C",
    "meta_data": {
        "InChI": "InChI=1S/C3H6N2/c1-5(2)3-4/h1-2H3",
        "InChIKey": null,
        "Canonical SMILES": "N#CN(C)C",
        "Molecular Formula": "C<sub>3</sub>H<sub>6</sub>N<sub>2</sub>",
        "Molecular Mass": "70.09",
        "Boiling Point": "163.5 °C @ Press: 760 Torr",
        "Melting Point": "-41.0 °C",
        "Density": "0.876 g/cm³"
    }
}