{
    "cas_no": "7337-45-3",
    "key_name": "<em>tert</em>-Butylamine borane",
    "cn_name": "甲硼烷-叔丁胺络合物;",
    "alternate_name": "Boron, trihydro(2-methyl-2-propanamine)-, (<em>T</em>-4)-;2-Propanamine, 2-methyl-, compd. with borane (1:1);<em>tert</em>-Butylamine, compd. with BH<sub>3</sub> (1:1);<em>tert</em>-Butylamine, compd. with BH<sub>3</sub>;Borane, compd. with <em>tert</em>-butylamine (1:1);Borane, compd. with 2-methyl-2-propanamine (1:1);(<em>T</em>-4)-Trihydro(2-methyl-2-propanamine)boron;<em>tert</em>-Butylamine borane;<em>tert</em>-Butylamine-borane (1:1);(<em>tert</em>-Butylamine)trihydroboron;NSC 114045;Borane-<em>tert</em>-butylamine;<em>tert</em>-Butylamine, compd. with borane(1) (1:1);2-Propanamine, 2-methyl-, boron complex",
    "duplicated_cas_no": "22465-03-8;34432-28-5;81186-27-8;82039-14-3;117151-71-0;264232-42-0;879655-11-5;1087344-96-4",
    "SMILES": "[NH2]([B+3]([H-])([H-])[H-])C(C)(C)C",
    "meta_data": {
        "InChI": "InChI=1S/C4H14BN/c1-4(2,3)6-5/h6H2,1-3,5H3",
        "InChIKey": null,
        "Canonical SMILES": "[H-][B+3]([H-])([H-])[NH2]C(C)(C)C",
        "Molecular Formula": "C<sub>4</sub>H<sub>14</sub>BN",
        "Molecular Mass": "",
        "Melting Point": "96 °C"
    }
}