{
    "cas_no": "872-55-9",
    "key_name": "2-Ethylthiophene",
    "cn_name": "2-乙基噻吩;",
    "alternate_name": "Thiophene, 2-ethyl-;2-Ethylthiophene",
    "duplicated_cas_no": "",
    "SMILES": "C(C)C1=CC=CS1",
    "meta_data": {
        "InChI": "InChI=1S/C6H8S/c1-2-6-4-3-5-7-6/h3-5H,2H2,1H3",
        "InChIKey": null,
        "Canonical SMILES": "S1C=CC=C1CC",
        "Molecular Formula": "C<sub>6</sub>H<sub>8</sub>S",
        "Molecular Mass": "112.19",
        "Boiling Point": "134 °C",
        "Density": "0.9928 g/cm³ @ Temp: 20 °C"
    }
}