{
    "cas_no": "64464-07-9",
    "key_name": "Ethanamine, 2-(2-methoxyphenoxy)-, hydrochloride (1:1)",
    "cn_name": "2-甲氧基苯氧基乙胺盐酸盐;邻甲氧基苯氧基乙胺盐酸盐;",
    "alternate_name": "Ethanamine, 2-(2-methoxyphenoxy)-, hydrochloride (1:1);Ethanamine, 2-(2-methoxyphenoxy)-, hydrochloride;Ethylamine, 2-(<em>o</em>-methoxyphenoxy)-, hydrochloride;2-(2-Methoxyphenoxy)ethylamine hydrochloride;2-(2-Methoxyphenoxy)ethan-1-amine hydrochloride",
    "duplicated_cas_no": "",
    "SMILES": "O(CCN)C1=C(OC)C=CC=C1.Cl",
    "meta_data": {
        "InChI": "InChI=1S/C9H13NO2.ClH/c1-11-8-4-2-3-5-9(8)12-7-6-10;/h2-5H,6-7,10H2,1H3;1H",
        "InChIKey": null,
        "Canonical SMILES": "Cl.O(C=1C=CC=CC1OCCN)C",
        "Molecular Formula": "C<sub>9</sub>H<sub>13</sub>NO<sub>2</sub>.ClH",
        "Molecular Mass": "",
        "Melting Point": "116-117 °C"
    }
}