{
    "cas_no": "4721-17-9",
    "key_name": "<em>P</em>-Hexadecylphosphonic acid",
    "cn_name": "正十六烷基磷酸;",
    "alternate_name": "Phosphonic acid, <em>P</em>-hexadecyl-;Phosphonic acid, hexadecyl-;<em>P</em>-Hexadecylphosphonic acid;1-Hexadecanephosphonic acid;Hexadecylphosphonic acid;Hexadecanephosphonic acid;<em>n</em>-Hexadecylphosphonic acid;1-Hexadecylphosphonic acid",
    "duplicated_cas_no": "",
    "SMILES": "C(CCCCCCCCCCCCC)CCP(=O)(O)O",
    "meta_data": {
        "InChI": "InChI=1S/C16H35O3P/c1-2-3-4-5-6-7-8-9-10-11-12-13-14-15-16-20(17,18)19/h2-16H2,1H3,(H2,17,18,19)",
        "InChIKey": null,
        "Canonical SMILES": "O=P(O)(O)CCCCCCCCCCCCCCCC",
        "Molecular Formula": "C<sub>16</sub>H<sub>35</sub>O<sub>3</sub>P",
        "Molecular Mass": "306.42",
        "Melting Point": "94.5-95.5 °C"
    }
}