{
    "cas_no": "1076-38-6",
    "key_name": "4-Hydroxycoumarin",
    "cn_name": "4-羟基香豆素;4-羟基-1-苯并吡喃-2-酮;",
    "alternate_name": "2<em>H</em>-1-Benzopyran-2-one, 4-hydroxy-;Coumarin, 4-hydroxy-;4-Hydroxy-2<em>H</em>-1-benzopyran-2-one;Benzotetronic acid;4-Coumarinol;4-Hydroxycoumarin;4-Hydroxy-2<em>H</em>-benzo[<em>b</em>]pyran-2-one;NSC 11889;4-Hydroxychromen-2-one;4-Hydroxycoumariin;4-Hydroxy-2<em>H</em>-chromen-2-one;4-Hydroxy-2<em>H</em>-benzopyran-2-one;Naian",
    "duplicated_cas_no": "",
    "SMILES": "OC=1C=2C(OC(=O)C1)=CC=CC2",
    "meta_data": {
        "InChI": "InChI=1S/C9H6O3/c10-7-5-9(11)12-8-4-2-1-3-6(7)8/h1-5,10H",
        "InChIKey": null,
        "Canonical SMILES": "O=C1OC=2C=CC=CC2C(O)=C1",
        "Molecular Formula": "C<sub>9</sub>H<sub>6</sub>O<sub>3</sub>",
        "Molecular Mass": "162.14",
        "Melting Point": "206 °C"
    }
}