{
    "cas_no": "536-59-4",
    "key_name": "Perillyl alcohol",
    "cn_name": "紫苏醇;4-(1-甲基乙烯基)-1-环己烯-1-甲醇;紫苏醇;L-紫苏醇;芥子醇;",
    "alternate_name": "1-Cyclohexene-1-methanol, 4-(1-methylethenyl)-;<em>p</em>-Mentha-1,8-dien-7-ol;4-(1-Methylethenyl)-1-cyclohexene-1-methanol;Perillic alcohol;Perillyl alcohol;Perilla alcohol;Perillol;<em>dl</em>-Perillyl alcohol;NSC 641066;(±)-Perillyl alcohol;4-Isopropenyl-1-cyclohexene-methanol;4-Isopropenyl-1-cyclohexenylmethanol;(4-(Prop-1-en-2-yl)cyclohex-1-en-1-yl)methanol;[4-(Prop-1-en-2-yl)cyclohex-1-en-1-yl]methanol;(4-Prop-1-en-2-ylcyclohexen-1-yl)methanol;NEO 100",
    "duplicated_cas_no": "1406-56-0;7644-38-4;66141-69-3",
    "SMILES": "C(C)(=C)C1CCC(CO)=CC1",
    "meta_data": {
        "InChI": "InChI=1S/C10H16O/c1-8(2)10-5-3-9(7-11)4-6-10/h3,10-11H,1,4-7H2,2H3",
        "InChIKey": null,
        "Canonical SMILES": "OCC1=CCC(C(=C)C)CC1",
        "Molecular Formula": "C<sub>10</sub>H<sub>16</sub>O",
        "Molecular Mass": "152.23",
        "Boiling Point": "244 °C",
        "Density": "0.9640 g/cm³ @ Temp: 29 °C"
    }
}