{
    "cas_no": "513-85-9",
    "key_name": "2,3-Butanediol",
    "cn_name": "2,3-丁二醇;",
    "alternate_name": "2,3-Butanediol;2,3-Dihydroxybutane;Dimethylethylene glycol;2,3-Butylene glycol;1,2-Dimethyl-1,2-ethanediol",
    "duplicated_cas_no": "98923-25-2",
    "SMILES": "C(C(C)O)(C)O",
    "meta_data": {
        "InChI": "InChI=1S/C4H10O2/c1-3(5)4(2)6/h3-6H,1-2H3",
        "InChIKey": null,
        "Canonical SMILES": "OC(C)C(O)C",
        "Molecular Formula": "C<sub>4</sub>H<sub>10</sub>O<sub>2</sub>",
        "Molecular Mass": "90.12",
        "Boiling Point": "182 °C",
        "Melting Point": "7.6 °C",
        "Density": "1.0033 g/cm³ @ Temp: 20 °C"
    }
}