{
    "cas_no": "71042-72-3",
    "key_name": "Ethyl 2,3-dihydro-7-methyl-1<em>H</em>-indene-4-carboxylate",
    "cn_name": null,
    "alternate_name": "1<em>H</em>-Indene-4-carboxylic acid, 2,3-dihydro-7-methyl-, ethyl ester;Ethyl 2,3-dihydro-7-methyl-1<em>H</em>-indene-4-carboxylate",
    "duplicated_cas_no": "",
    "SMILES": "C(OCC)(=O)C1=C2C(=C(C)C=C1)CCC2",
    "meta_data": {
        "InChI": "InChI=1S/C13H16O2/c1-3-15-13(14)12-8-7-9(2)10-5-4-6-11(10)12/h7-8H,3-6H2,1-2H3",
        "InChIKey": null,
        "Canonical SMILES": "O=C(OCC)C1=CC=C(C2=C1CCC2)C",
        "Molecular Formula": "C<sub>13</sub>H<sub>16</sub>O<sub>2</sub>",
        "Molecular Mass": "204.26",
        "Boiling Point": "110-112 °C @ Press: 0.45 Torr"
    }
}