{
    "cas_no": "139-07-1",
    "key_name": "Benzyldodecyldimethylammonium chloride",
    "cn_name": "十二烷基二甲基苄基氯化铵;1227;",
    "alternate_name": "Benzenemethanaminium, <em>N</em>-dodecyl-<em>N</em>,<em>N</em>-dimethyl-, chloride (1:1);Benzyldodecyldimethylammonium chloride;Ammonium, benzyldodecyldimethyl-, chloride;Benzenemethanaminium, <em>N</em>-dodecyl-<em>N</em>,<em>N</em>-dimethyl-, chloride;Bas 2631;Benzododecinium chloride;Catigene OM;Dimethylbenzyldodecylammonium chloride;Dodecylbenzyldimethylammonium chloride;Dodecyldimethylbenzylammonium chloride;Lauryldimethylbenzylammonium chloride;Noramium DA 50;Vantoc CL;<em>N</em>-Dodecyl-<em>N</em>,<em>N</em>-dimethylbenzenemethanaminium chloride;Benzyldimethyllaurylammonium chloride;Benzyllauryldimethylammonium chloride;Dimethyldodecylbenzylammonium chloride;Lauryl benzalkonium chloride;Laurylbenzyldimethylammonium chloride;Cequartyl A;Benzyldimethyldodecylammonium chloride;Dimethylbenzyllaurylammonium chloride;Dehyquart LDB;<em>N</em>-Benzyl-<em>N</em>-dodecyl-<em>N</em>,<em>N</em>-dimethylammonium chloride;<em>N</em>-Dodecyl-<em>N</em>,<em>N</em>-dimethyl-<em>N</em>-benzylammonium chloride;DYK 1125;Catiolite BC 50;Swanol CA 100;Dimethylaurylbenzylammonium chloride;Rolcril;Orthosan HM;Zephirol;Swanol CA 101;Dimethyllaurylbenzylammonium chloride;Rewoquat B 50;Tetranil BC 80;Catiogen PAN;Loraquat B 50;Retarder N;Catinal CB 50;Texnol R 5;QBA 1211;Lauralkonium chloride;Katamin AB 18;Croda N-Dodecyl;Cationic 1227;Leveling Agent 1227;Pionin B 231;<em>N</em>-Lauryl-<em>N</em>,<em>N</em>-dimethyl-<em>N</em>-benzylammonium chloride;Catiogen BC 50;Accelerator 1227;Surfactant 1227;BenzylQUAT?;Germicide 1227;BAC 12;Cationic Surfactant 1227;BTC 1218-50;<em>N</em>-Benzyl-<em>N</em>,<em>N</em>-dimethyl-<em>N</em>-laurylammonium chloride;D 1227;QBA 1211S;Fentacare 1227-45",
    "duplicated_cas_no": "8038-88-8;51796-11-3;67377-59-7;78565-22-7;95078-12-9;107397-84-2;143243-76-9;173270-95-6;353491-88-0;1231166-23-6;1427499-25-9",
    "SMILES": "C([N+](CCCCCCCCCCCC)(C)C)C1=CC=CC=C1.[Cl-]",
    "meta_data": {
        "InChI": "InChI=1S/C21H38N.ClH/c1-4-5-6-7-8-9-10-11-12-16-19-22(2,3)20-21-17-14-13-15-18-21;/h13-15,17-18H,4-12,16,19-20H2,1-3H3;1H/q+1;/p-1",
        "InChIKey": null,
        "Canonical SMILES": "[Cl-].C=1C=CC(=CC1)C[N+](C)(C)CCCCCCCCCCCC",
        "Molecular Formula": "C<sub>21</sub>H<sub>38</sub>N.Cl",
        "Molecular Mass": "",
        "Melting Point": "42 °C"
    }
}