{
    "cas_no": "112665-43-7",
    "key_name": "Seratrodast",
    "cn_name": "塞曲司特;7-(3,5,6-三甲基-1,4-苯醌-2-基)-7-苯基庚酸;",
    "alternate_name": "Benzeneheptanoic acid, ζ-(2,4,5-trimethyl-3,6-dioxo-1,4-cyclohexadien-1-yl)-;Benzeneheptanoic acid, ζ-(2,4,5-trimethyl-3,6-dioxo-1,4-cyclohexadien-1-yl)-, (±)-;ζ-(2,4,5-Trimethyl-3,6-dioxo-1,4-cyclohexadien-1-yl)benzeneheptanoic acid;AA 2414;(±)-2,4,5-Trimethyl-3,6-dioxo-ζ-phenyl-1,4-cyclohexadiene-1-heptanoic acid;Seratrodast;ABT 001;A 73001;Abbott 73001;7-(3,5,6-Trimethyl-1,4-benzoquinon-2-yl)-7-phenylheptanoic acid;Seratodrast;Bronica;7-Phenyl-7-(2,4,5-trimethyl-3,6-dioxocyclohexa-1,4-dien-1-yl)heptanoic acid",
    "duplicated_cas_no": "103186-19-2",
    "SMILES": "C(CCCCCC(O)=O)(C1=C(C)C(=O)C(C)=C(C)C1=O)C2=CC=CC=C2",
    "meta_data": {
        "InChI": "InChI=1S/C22H26O4/c1-14-15(2)22(26)20(16(3)21(14)25)18(17-10-6-4-7-11-17)12-8-5-9-13-19(23)24/h4,6-7,10-11,18H,5,8-9,12-13H2,1-3H3,(H,23,24)",
        "InChIKey": null,
        "Canonical SMILES": "O=C(O)CCCCCC(C=1C=CC=CC1)C=2C(=O)C(=C(C(=O)C2C)C)C",
        "Molecular Formula": "C<sub>22</sub>H<sub>26</sub>O<sub>4</sub>",
        "Molecular Mass": "354.44",
        "Melting Point": "128-129 °C"
    }
}