{
    "cas_no": "78287-27-1",
    "key_name": "7-Ethylcamptothecin",
    "cn_name": "7-乙基喜树碱;",
    "alternate_name": "1<em>H</em>-Pyrano[3′,4′:6,7]indolizino[1,2-<em>b</em>]quinoline-3,14(4<em>H</em>,12<em>H</em>)-dione, 4,11-diethyl-4-hydroxy-, (4<em>S</em>)-;1<em>H</em>-Pyrano[3′,4′:6,7]indolizino[1,2-<em>b</em>]quinoline-3,14(4<em>H</em>,12<em>H</em>)-dione, 4,11-diethyl-4-hydroxy-, (<em>S</em>)-;(4<em>S</em>)-4,11-Diethyl-4-hydroxy-1<em>H</em>-pyrano[3′,4′:6,7]indolizino[1,2-<em>b</em>]quinoline-3,14(4<em>H</em>,12<em>H</em>)-dione;7-Ethylcamptothecin;SN 22;7-Ethyl-20(<em>S</em>)-camptothecin",
    "duplicated_cas_no": "",
    "SMILES": "O=C1N2C(C=3C(C2)=C(CC)C=4C(N3)=CC=CC4)=CC5=C1COC(=O)[C@@]5(CC)O",
    "meta_data": {
        "InChI": "InChI=1S/C22H20N2O4/c1-3-12-13-7-5-6-8-17(13)23-19-14(12)10-24-18(19)9-16-15(20(24)25)11-28-21(26)22(16,27)4-2/h5-9,27H,3-4,10-11H2,1-2H3/t22-/m0/s1",
        "InChIKey": null,
        "Canonical SMILES": "O=C1OCC=2C(=O)N3C(=CC2C1(O)CC)C=4N=C5C=CC=CC5=C(C4C3)CC",
        "Molecular Formula": "C<sub>22</sub>H<sub>20</sub>N<sub>2</sub>O<sub>4</sub>",
        "Molecular Mass": "376.41",
        "Melting Point": "259-261 °C"
    }
}