{
    "cas_no": "1841-58-3",
    "key_name": "3′-Fluoro[1,1′-biphenyl]-4-carboxylic acid",
    "cn_name": null,
    "alternate_name": "[1,1′-Biphenyl]-4-carboxylic acid, 3′-fluoro-;4-Biphenylcarboxylic acid, 3′-fluoro-;3′-Fluoro[1,1′-biphenyl]-4-carboxylic acid;3′-Fluorobiphenyl-4-carboxylic acid",
    "duplicated_cas_no": "",
    "SMILES": "FC=1C=C(C2=CC=C(C(O)=O)C=C2)C=CC1",
    "meta_data": {
        "InChI": "InChI=1S/C13H9FO2/c14-12-3-1-2-11(8-12)9-4-6-10(7-5-9)13(15)16/h1-8H,(H,15,16)",
        "InChIKey": null,
        "Canonical SMILES": "O=C(O)C=1C=CC(=CC1)C2=CC=CC(F)=C2",
        "Molecular Formula": "C<sub>13</sub>H<sub>9</sub>FO<sub>2</sub>",
        "Molecular Mass": "216.21",
        "Melting Point": "244.1-246.1 °C",
        "Density": "1.42 g/cm³"
    }
}