{
    "cas_no": "22536-67-0",
    "key_name": "2,5-Dichloropyrimidine",
    "cn_name": "2,5-二氯嘧啶;",
    "alternate_name": "Pyrimidine, 2,5-dichloro-;2,5-Dichloropyrimidine;2-Chloro-5-chloropyrimidine",
    "duplicated_cas_no": "",
    "SMILES": "ClC=1C=NC(Cl)=NC1",
    "meta_data": {
        "InChI": "InChI=1S/C4H2Cl2N2/c5-3-1-7-4(6)8-2-3/h1-2H",
        "InChIKey": null,
        "Canonical SMILES": "ClC1=NC=C(Cl)C=N1",
        "Molecular Formula": "C<sub>4</sub>H<sub>2</sub>Cl<sub>2</sub>N<sub>2</sub>",
        "Molecular Mass": "148.98",
        "Boiling Point": "190 °C",
        "Melting Point": "57.0-57.5 °C"
    }
}