{
    "cas_no": "3197-06-6",
    "key_name": "<em>N</em>,<em>N</em>-Bis(2-hydroxyethyl)ethylenediamine",
    "cn_name": "N,N-双(2-羟乙基)乙二胺;",
    "alternate_name": "Ethanol, 2,2′-[(2-aminoethyl)imino]bis-;Ethanol, 2,2′-[(2-aminoethyl)imino]di-;2,2′-[(2-Aminoethyl)imino]bis[ethanol];<em>N</em>,<em>N</em>-Bis(2-hydroxyethyl)ethanediamine;<em>N</em>-(2-Aminoethyl)diethanolamine;<em>N</em>,<em>N</em>-Bis(2-hydroxyethyl)-1,2-diaminoethane;2-Bis[(2-hydroxyethyl)amino]ethylamine;<em>N</em>,<em>N</em>-Bis(2-hydroxyethyl)ethylenediamine;<em>N</em>,<em>N</em>-Di(2-hydroxyethyl)ethylenediamine;2-Amino-<em>N</em>,<em>N</em>-bis(2-hydroxyethyl)ethylamine;NSC 29614;(2-Aminoethyl)bis(2-hydroxyethyl)amine;2,2′-[(2-Aminoethyl)imino]bisethanol;[2-(Diethanolamino)ethyl]amine;2,2′((2-Aminoethyl)azanediyl)diethanol;2-[(2-Aminoethyl)(2-hydroxyethyl)amino]ethanol;2-[(2-Aminoethyl)(2-hydroxyethyl)amino]ethan-1-ol;2-[2-Aminoethyl(2-hydroxyethyl)amino]ethanol",
    "duplicated_cas_no": "",
    "SMILES": "N(CCN)(CCO)CCO",
    "meta_data": {
        "InChI": "InChI=1S/C6H16N2O2/c7-1-2-8(3-5-9)4-6-10/h9-10H,1-7H2",
        "InChIKey": null,
        "Canonical SMILES": "OCCN(CCO)CCN",
        "Molecular Formula": "C<sub>6</sub>H<sub>16</sub>N<sub>2</sub>O<sub>2</sub>",
        "Molecular Mass": "148.20",
        "Boiling Point": "170 °C"
    }
}