{
    "cas_no": "5472-13-9",
    "key_name": "2-Methylbenzhydrol",
    "cn_name": "2-甲基二苯甲醇;邻甲基二苯甲醇;",
    "alternate_name": "Benzenemethanol, 2-methyl-α-phenyl-;Benzhydrol, 2-methyl-;2-Methyl-α-phenylbenzenemethanol;<em>o</em>-Methylbenzhydrol;2-Methylbenzhydrol;(2-Methylphenyl)phenylmethanol;α-(2-Methylphenyl)benzenemethanol;Phenyl(2-tolyl)methanol;NSC 27910;α-(2-Methylphenyl)benzyl alcohol;Phenyl(<em>o</em>-tolyl)methanol",
    "duplicated_cas_no": "127309-00-6",
    "SMILES": "C(O)(C1=C(C)C=CC=C1)C2=CC=CC=C2",
    "meta_data": {
        "InChI": "InChI=1S/C14H14O/c1-11-7-5-6-10-13(11)14(15)12-8-3-2-4-9-12/h2-10,14-15H,1H3",
        "InChIKey": null,
        "Canonical SMILES": "OC(C=1C=CC=CC1)C=2C=CC=CC2C",
        "Molecular Formula": "C<sub>14</sub>H<sub>14</sub>O",
        "Molecular Mass": "198.26",
        "Boiling Point": "143-144 °C @ Press: 1.5 Torr",
        "Melting Point": "95 °C"
    }
}