{
    "cas_no": "304-84-7",
    "key_name": "Ethamivan",
    "cn_name": null,
    "alternate_name": "Benzamide, <em>N</em>,<em>N</em>-diethyl-4-hydroxy-3-methoxy-;Vanillamide, <em>N</em>,<em>N</em>-diethyl-;<em>N</em>,<em>N</em>-Diethyl-4-hydroxy-3-methoxybenzamide;Diethamivan;<em>N</em>,<em>N</em>-Diethylvanillamide;Emivan;Etamivan;Ethamivan;3-Methoxy-4-hydroxybenzoic acid diethylamide;Etamivanum;Vandid;Vanillic acid diethylamide;Diethylvanillamide;Analepticon;Corivanil;Ventilone;Romecor;Sevanil;Simaron;Vanillic acid <em>N</em>,<em>N</em>-diethylamide;Vanillic diethylamide;Cardiovanil;NSC 406087",
    "duplicated_cas_no": "8060-67-1",
    "SMILES": "C(N(CC)CC)(=O)C1=CC(OC)=C(O)C=C1",
    "meta_data": {
        "InChI": "InChI=1S/C12H17NO3/c1-4-13(5-2)12(15)9-6-7-10(14)11(8-9)16-3/h6-8,14H,4-5H2,1-3H3",
        "InChIKey": null,
        "Canonical SMILES": "O=C(C1=CC=C(O)C(OC)=C1)N(CC)CC",
        "Molecular Formula": "C<sub>12</sub>H<sub>17</sub>NO<sub>3</sub>",
        "Molecular Mass": "223.27",
        "Melting Point": "95 °C"
    }
}