{
    "cas_no": "102-76-1",
    "key_name": "Triacetin",
    "cn_name": "三醋精;三乙酸甘油酯;甘油三乙酸酯;1,2,3-丙三醇三乙酸酯;三醋酸甘油酯;",
    "alternate_name": "1,2,3-Propanetriol, 1,2,3-triacetate;Acetin, tri-;1,2,3-Propanetriol, triacetate;Enzactin;Fungacetin;Glycerol triacetate;Glyceryl triacetate;Kesscoflex TRA;Triacetin;Triacetine;Triacetylglycerin;Vanay;Glycerin triacetate;Glyped;1,2,3-Triacetoxypropane;Estol 1581;Ujostabil;Triacetylglycerol;Priacetin 1580;Priacetin 1581;NSC 4796;Edenor GTA;DRA 150;Speziol GTA;Kollisolv GTA;Triacetin 1584;Triacetain glycerol;Captex 500;Alphacure 920;DAR 150;Edenor GTA Kosher;106C;GTA;2,3-Diacetyloxypropyl acetate;1,3-Bis(acetyloxy)propan-2-yl acetate;DRA-150;MeSH ID: D014215",
    "duplicated_cas_no": "2102168-03-4",
    "SMILES": "C(COC(C)=O)(COC(C)=O)OC(C)=O",
    "meta_data": {
        "InChI": "InChI=1S/C9H14O6/c1-6(10)13-4-9(15-8(3)12)5-14-7(2)11/h9H,4-5H2,1-3H3",
        "InChIKey": null,
        "Canonical SMILES": "O=C(OCC(OC(=O)C)COC(=O)C)C",
        "Molecular Formula": "C<sub>9</sub>H<sub>14</sub>O<sub>6</sub>",
        "Molecular Mass": "218.20",
        "Boiling Point": "258-260 °C",
        "Melting Point": "-78 °C",
        "Density": "1.1562 g/cm³ @ Temp: 25 °C"
    }
}