{
    "cas_no": "32042-43-6",
    "key_name": "Arginine hydrochloride (1:?)",
    "cn_name": null,
    "alternate_name": "Arginine, hydrochloride (1:?);<span class=\"text-smallcaps\">DL</span>-Arginine, hydrochloride;Arginine, hydrochloride;Arginine hydrochloride (1:?)",
    "duplicated_cas_no": "",
    "SMILES": "C(CCNC(=N)N)C(C(O)=O)N.Cl",
    "meta_data": {
        "InChI": "InChI=1S/C6H14N4O2.ClH/c7-4(5(11)12)2-1-3-10-6(8)9;/h4H,1-3,7H2,(H,11,12)(H4,8,9,10);1H",
        "InChIKey": null,
        "Canonical SMILES": "Cl.O=C(O)C(N)CCCNC(=N)N",
        "Molecular Formula": "C<sub>6</sub>H<sub>14</sub>N<sub>4</sub>O<sub>2</sub>.xClH",
        "Molecular Mass": "",
        "Melting Point": "208 °C"
    }
}