{
    "cas_no": "94-99-5",
    "key_name": "2,4-Dichlorobenzyl chloride",
    "cn_name": "2,4-二氯氯苄;",
    "alternate_name": "Benzene, 2,4-dichloro-1-(chloromethyl)-;Toluene, α,2,4-trichloro-;2,4-Dichloro-1-(chloromethyl)benzene;2,4-Dichlorobenzyl chloride;α,2,4-Trichlorotoluene;2,4,α-Trichlorotoluene;1-Chloromethyl-2,4-dichlorobenzene;NSC 406892",
    "duplicated_cas_no": "2271328-35-7",
    "SMILES": "C(Cl)C1=C(Cl)C=C(Cl)C=C1",
    "meta_data": {
        "InChI": "InChI=1S/C7H5Cl3/c8-4-5-1-2-6(9)3-7(5)10/h1-3H,4H2",
        "InChIKey": null,
        "Canonical SMILES": "ClC1=CC=C(C(Cl)=C1)CCl",
        "Molecular Formula": "C<sub>7</sub>H<sub>5</sub>Cl<sub>3</sub>",
        "Molecular Mass": "195.47",
        "Boiling Point": "248 °C",
        "Melting Point": "-2.6 °C"
    }
}