{
    "cas_no": "14484-64-1",
    "key_name": "Ferbam",
    "cn_name": "福美铁;二甲基二硫代氨基甲酸铁;三(N,N-二甲基-二硫代氨基甲酸)铁;N,N-二甲基二硫代氨基甲酸铁;二甲氨基荒;",
    "alternate_name": "Iron, tris(<em>N</em>,<em>N</em>-dimethylcarbamodithioato-κ<em>S</em>,κ<em>S</em>′)-, (<em>OC</em>-6-11)-;Iron, tris(dimethyldithiocarbamato)-;Iron, tris(dimethylcarbamodithioato-<em>S</em>,<em>S</em>′)-, (<em>OC</em>-6-11)-;Iron, tris(dimethylcarbamodithioato-κ<em>S</em>,κ<em>S</em>′)-, (<em>OC</em>-6-11)-;Carbamodithioic acid, dimethyl-, iron complex;(<em>OC</em>-6-11)-Tris(<em>N</em>,<em>N</em>-dimethylcarbamodithioato-κ<em>S</em>,κ<em>S</em>′)iron;Bercema Fertam 50;Fermate;Ferric dimethyldithiocarbamate;Fuklasin Ultra;Ferberk;Ferradow;Iron dimethyldithiocarbamate;Karbam Black;Stauffer ferbam;Ferbam;Hexaferb;Ferbam 50;Aafertis;Tris(dimethyldithiocarbamato)iron;Tris(<em>N</em>,<em>N</em>-dimethyldithiocarbamato)iron(III);Dimethyldithiocarbamic acid iron(3+) salt;Fuklazin;Liromate;Tris(<em>N</em>,<em>N</em>-dimethyldithiocarbamato)iron;Ferric <em>N</em>,<em>N</em>-dimethyldithiocarbamate;Trimanzone;Iron tris(dimethyldithiocarbamate);Nocceler TTFE;Sanceler TT-FE",
    "duplicated_cas_no": "301-05-3;13494-27-4;64070-92-4;1135443-06-9",
    "SMILES": "N(C)(C)C=1[S-][Fe+3]23([S-]C(N(C)C)=[S]2)([S-]C(N(C)C)=[S]3)[S]1",
    "meta_data": {
        "InChI": "InChI=1S/3C3H7NS2.Fe/c3*1-4(2)3(5)6;/h3*1-2H3,(H,5,6);/q;;;+3/p-3",
        "InChIKey": null,
        "Canonical SMILES": "[S]1=C([S-][Fe+3]123([S]=C([S-]2)N(C)C)[S]=C([S-]3)N(C)C)N(C)C",
        "Molecular Formula": "C<sub>9</sub>H<sub>18</sub>FeN<sub>3</sub>S<sub>6</sub>",
        "Molecular Mass": "",
        "Melting Point": "&gt;180 °C (decomp)"
    }
}