{
    "cas_no": "16481-54-2",
    "key_name": "Podophyllotoxin glucoside",
    "cn_name": null,
    "alternate_name": "Furo[3′,4′:6,7]naphtho[2,3-<em>d</em>]-1,3-dioxol-6(5a<em>H</em>)-one, 9-(β-<span class=\"text-smallcaps\">D</span>-glucopyranosyloxy)-5,8,8a,9-tetrahydro-5-(3,4,5-trimethoxyphenyl)-, (5<em>R</em>,5a<em>R</em>,8a<em>R</em>,9<em>R</em>)-;Podophyllotoxin, β-<span class=\"text-smallcaps\">D</span>-glucopyranoside;Furo[3′,4′:6,7]naphtho[2,3-<em>d</em>]-1,3-dioxol-6(5a<em>H</em>)-one, 9-(β-<span class=\"text-smallcaps\">D</span>-glucopyranosyloxy)-5,8,8a,9-tetrahydro-5-(3,4,5-trimethoxyphenyl)-, [5<em>R</em>-(5α,5aβ,8aα,9α)]-;Podophyllotoxin glucoside;(5<em>R</em>,5a<em>R</em>,8a<em>R</em>,9<em>R</em>)-9-(β-<span class=\"text-smallcaps\">D</span>-Glucopyranosyloxy)-5,8,8a,9-tetrahydro-5-(3,4,5-trimethoxyphenyl)furo[3′,4′:6,7]naphtho[2,3-<em>d</em>]-1,3-dioxol-6(5a<em>H</em>)-one;Podophyllotoxin β-<span class=\"text-smallcaps\">D</span>-glucoside;Podophyllotoxin 3-β-<span class=\"text-smallcaps\">D</span>-glucopyranoside;Podophyllotoxin 4-<em>O</em>-glucoside;NSC 163024;Podophyllotoxin-4-<em>O</em>-β-<span class=\"text-smallcaps\">D</span>-glucopyranoside;Podophyllotoxin 1-<em>O</em>-β-<span class=\"text-smallcaps\">D</span>-glycoside;Podophyllotoxin 7′-<em>O</em>-β-<span class=\"text-smallcaps\">D</span>-glucopyranoside",
    "duplicated_cas_no": "129-14-6;1329-57-3;11018-96-5",
    "SMILES": "O=C1[C@@]2([C@@H](C=3C([C@H](O[C@@H]4O[C@H](CO)[C@@H](O)[C@H](O)[C@H]4O)[C@]2(CO1)[H])=CC5=C(C3)OCO5)C6=CC(OC)=C(OC)C(OC)=C6)[H]",
    "meta_data": {
        "InChI": "InChI=1S/C28H32O13/c1-34-17-4-11(5-18(35-2)26(17)36-3)20-12-6-15-16(39-10-38-15)7-13(12)25(14-9-37-27(33)21(14)20)41-28-24(32)23(31)22(30)19(8-29)40-28/h4-7,14,19-25,28-32H,8-10H2,1-3H3/t14-,19+,20+,21-,22+,23-,24+,25-,28-/m0/s1",
        "InChIKey": null,
        "Canonical SMILES": "O=C1OCC2C(OC3OC(CO)C(O)C(O)C3O)C4=CC=5OCOC5C=C4C(C6=CC(OC)=C(OC)C(OC)=C6)C12",
        "Molecular Formula": "C<sub>28</sub>H<sub>32</sub>O<sub>13</sub>",
        "Molecular Mass": "576.55",
        "Melting Point": "149-152 °C"
    }
}