{
    "cas_no": "106577-39-3",
    "key_name": "Hederacolchiside A<sub>1</sub>",
    "cn_name": null,
    "alternate_name": "Olean-12-en-28-oic acid, 3-[(<em>O</em>-6-deoxy-α-<span class=\"text-smallcaps\">L</smallcap>-mannopyranosyl-(1→2)-<em>O</em>-[β-<smallcap>D</smallcap>-glucopyranosyl-(1→4)]-α-<smallcap>L</span>-arabinopyranosyl)oxy]-, (3β)-;(3β)-3-[(<em>O</em>-6-Deoxy-α-<span class=\"text-smallcaps\">L</smallcap>-mannopyranosyl-(1→2)-<em>O</em>-[β-<smallcap>D</smallcap>-glucopyranosyl-(1→4)]-α-<smallcap>L</span>-arabinopyranosyl)oxy]olean-12-en-28-oic acid;Hederacolchiside A<sub>1</sub>;Oleanolic acid-3-<em>O</em>-α-<span class=\"text-smallcaps\">L</smallcap>-rhamnopyranosyl-(1-&gt;2)-[β-<smallcap>D</smallcap>-glucopyranosyl-(1-&gt;4)]-α-<smallcap>L</span>-arabinopyranoside;Raddeanoside R<sub>13</sub>;Oleanolic acid 3-<em>O</em>-α-<span class=\"text-smallcaps\">L</smallcap>-rhamnopyranosyl-(1→2)-[β-<smallcap>D</smallcap>-glucopyranosyl-(1→4)]-α-<smallcap>L</span>-arabinopyranoside",
    "duplicated_cas_no": "393171-34-1",
    "SMILES": "C[C@]12[C@@]3(C)C([C@]4([C@@](C(O)=O)(CC3)CCC(C)(C)C4)[H])=CC[C@@]1([C@]5(C)[C@@](CC2)(C(C)(C)[C@@H](O[C@H]6[C@H](O[C@H]7[C@H](O)[C@H](O)[C@@H](O)[C@H](C)O7)[C@@H](O)[C@@H](O[C@@H]8O[C@H](CO)[C@@H](O)[C@H](O)[C@H]8O)CO6)CC5)[H])[H]",
    "meta_data": {
        "InChI": "InChI=1S/C47H76O16/c1-22-30(49)33(52)35(54)38(59-22)63-37-32(51)26(61-39-36(55)34(53)31(50)25(20-48)60-39)21-58-40(37)62-29-12-13-44(6)27(43(29,4)5)11-14-46(8)28(44)10-9-23-24-19-42(2,3)15-17-47(24,41(56)57)18-16-45(23,46)7/h9,22,24-40,48-55H,10-21H2,1-8H3,(H,56,57)/t22-,24-,25+,26-,27-,28+,29-,30-,31+,32-,33+,34-,35+,36+,37+,38-,39-,40-,44-,45+,46+,47-/m0/s1",
        "InChIKey": null,
        "Canonical SMILES": "O=C(O)C12CCC(C)(C)CC2C3=CCC4C5(C)CCC(OC6OCC(OC7OC(CO)C(O)C(O)C7O)C(O)C6OC8OC(C)C(O)C(O)C8O)C(C)(C)C5CCC4(C)C3(C)CC1",
        "Molecular Formula": "C<sub>47</sub>H<sub>76</sub>O<sub>16</sub>",
        "Molecular Mass": "897.10",
        "Melting Point": "253-255 °C"
    }
}