{
    "cas_no": "55-10-7",
    "key_name": "Vanillylmandelic acid",
    "cn_name": "3-甲氧基-4-羟基扁桃酸;",
    "alternate_name": "Benzeneacetic acid, α,4-dihydroxy-3-methoxy-;Mandelic acid, 4-hydroxy-3-methoxy-;α,4-Dihydroxy-3-methoxybenzeneacetic acid;HMMA;4-Hydroxy-3-methoxymandelic acid;Vanillomandelic acid;Vanillylmandelic acid;Vanilmandelic acid;VMA;Vanillinmandelic acid;(4-Hydroxy-3-methoxyphenyl)glycolic acid;3-Methoxy-4-hydroxyphenylhydroxyacetic acid;4′-Hydroxy-3′-methoxymandelic acid;<span class=\"text-smallcaps\">DL</span>-3-Methoxy-4-hydroxymandelic acid;<span class=\"text-smallcaps\">DL</span>-Vanillylmandelic acid;4-Hydroxy-3-methoxy-<span class=\"text-smallcaps\">DL</span>-mandelic acid;(±)-3-Methoxy-4-hydroxymandelic acid;<span class=\"text-smallcaps\">DL</span>-4-Hydroxy-3-methoxymandelic acid;<em>dl</em>-4-Hydroxy-3-methoxymandelic acid (<em>dl</em>-vanillylmandelic acid);(±)-4-Hydroxy-3-methoxymandelic acid;<span class=\"text-smallcaps\">DL</span>-Vanillomandelic acid;<em>dl</em>-Vanillomandelic acid;(±)-Vanilmandelic acid;Vanillyl-<em>dl</em>-mandelic acid;2-Hydroxy-2-(4-hydroxy-3-methoxyphenyl)acetic acid;2-(4′-Hydroxy-3′-methoxyphenyl)-2-hydroxyethanoic acid;MeSH ID: D014642",
    "duplicated_cas_no": "2394-20-9",
    "SMILES": "C(C(O)=O)(O)C1=CC(OC)=C(O)C=C1",
    "meta_data": {
        "InChI": "InChI=1S/C9H10O5/c1-14-7-4-5(2-3-6(7)10)8(11)9(12)13/h2-4,8,10-11H,1H3,(H,12,13)",
        "InChIKey": null,
        "Canonical SMILES": "O=C(O)C(O)C1=CC=C(O)C(OC)=C1",
        "Molecular Formula": "C<sub>9</sub>H<sub>10</sub>O<sub>5</sub>",
        "Molecular Mass": "198.17",
        "Melting Point": "132 °C (decomp)"
    }
}