{
    "cas_no": "52-90-4",
    "key_name": "<span class=\"text-smallcaps\">L</span>-(+)-Cysteine",
    "cn_name": "L-半胱氨酸;L-beta-巯基丙氨酸;",
    "alternate_name": "<span class=\"text-smallcaps\">L</span>-Cysteine;Cysteine, <span class=\"text-smallcaps\">L</span>-;Half-cystine;β-Mercaptoalanine;Thioserine;<span class=\"text-smallcaps\">L</span>-(+)-Cysteine;Cysteine;Propanoic acid, 2-amino-3-mercapto-, (<em>R</em>)-;Cystein;<span class=\"text-smallcaps\">L</span>-Alanine, 3-mercapto-;NSC 8746;(<em>R</em>)-2-Amino-3-mercaptopropanoic acid;(<em>R</em>)-Cysteine;2-Amino-3-mercaptopropionic acid;<span class=\"text-smallcaps\">L</span>-Cys;E 920;(R)-2-Amino-3-mercaptopropanoic acid;(<em>R</em>)-2-Amino-3-sulfanylpropanoic acid;(2R)-2-Amino-3-sulfanylpropanoic acid;2-Amino-3-mercaptopropanoic acid;11: PN: WO2021055880 SEQID: 12 claimed protein;518: PN: WO2022056313 SEQID: 534 claimed protein;1: PN: WO2022258499 SEQID: 1 claimed sequence;MeSH ID: D003545",
    "duplicated_cas_no": "4371-52-2;154605-72-8;1404190-35-7",
    "SMILES": "[C@@H](C(O)=O)(CS)N",
    "meta_data": {
        "InChI": "InChI=1S/C3H7NO2S/c4-2(1-7)3(5)6/h2,7H,1,4H2,(H,5,6)/t2-/m0/s1",
        "InChIKey": null,
        "Canonical SMILES": "O=C(O)C(N)CS",
        "Molecular Formula": "C<sub>3</sub>H<sub>7</sub>NO<sub>2</sub>S",
        "Molecular Mass": "121.16",
        "Melting Point": "240 °C (decomp)",
        "Density": "1.6666 g/cm³ @ Temp: 45.00 °C"
    }
}