{
    "cas_no": "768-56-9",
    "key_name": "4-Phenyl-1-butene",
    "cn_name": "4-苯基-1-丁烯;苯基丁烯;",
    "alternate_name": "Benzene, 3-buten-1-yl-;1-Butene, 4-phenyl-;Benzene, 3-butenyl-;3-Buten-1-ylbenzene;4-Phenyl-1-butene;1-Phenyl-3-butene;3-Butenylbenzene;NSC 65603;Homoallylbenzene",
    "duplicated_cas_no": "",
    "SMILES": "C(CC=C)C1=CC=CC=C1",
    "meta_data": {
        "InChI": "InChI=1S/C10H12/c1-2-3-7-10-8-5-4-6-9-10/h2,4-6,8-9H,1,3,7H2",
        "InChIKey": null,
        "Canonical SMILES": "C=CCCC=1C=CC=CC1",
        "Molecular Formula": "C<sub>10</sub>H<sub>12</sub>",
        "Molecular Mass": "132.20",
        "Boiling Point": "177 °C",
        "Melting Point": "-70 °C",
        "Density": "0.8915 g/cm³ @ Temp: 20 °C"
    }
}