{
    "cas_no": "2385-77-5",
    "key_name": "(<em>R</em>)-Citronellal",
    "cn_name": null,
    "alternate_name": "6-Octenal, 3,7-dimethyl-, (3<em>R</em>)-;6-Octenal, 3,7-dimethyl-, (<em>R</em>)-;(3<em>R</em>)-3,7-Dimethyl-6-octenal;(+)-Citronellal;<em>d</em>-Citronellal;(<em>R</em>)-(+)-Citronellal;(<em>R</em>)-Citronellal;(<em>R</em>)-3,7-Dimethyl-6-octenal;<span class=\"text-smallcaps\">D</span>-Citronellal;Citronellal CP;(3R)-3,7-Dimethyloct-6-enal;(R)-(+)-Citronellal",
    "duplicated_cas_no": "951036-03-6",
    "SMILES": "[C@@H](CCC=C(C)C)(CC=O)C",
    "meta_data": {
        "InChI": "InChI=1S/C10H18O/c1-9(2)5-4-6-10(3)7-8-11/h5,8,10H,4,6-7H2,1-3H3/t10-/m1/s1",
        "InChIKey": null,
        "Canonical SMILES": "O=CCC(C)CCC=C(C)C",
        "Molecular Formula": "C<sub>10</sub>H<sub>18</sub>O",
        "Molecular Mass": "154.25",
        "Boiling Point": "207 °C",
        "Melting Point": "&lt;25 °C",
        "Density": "1.0124 g/cm³ @ Temp: 25.00 °C"
    }
}