{
    "cas_no": "38202-27-6",
    "key_name": "Ethyl <em>N</em>-[[(2,4,6-trimethylphenyl)sulfonyl]oxy]ethanimidate",
    "cn_name": "O-(2,4,6-三甲基苯磺酰基)乙酰羟肟酸乙酯;",
    "alternate_name": "Ethanimidic acid, <em>N</em>-[[(2,4,6-trimethylphenyl)sulfonyl]oxy]-, ethyl ester;Ethyl <em>N</em>-[[(2,4,6-trimethylphenyl)sulfonyl]oxy]ethanimidate;Ethyl <em>O</em>-2,4,6-trimethylphenylsulfonylacetohydroxamate;<em>O</em>-Mesitylsulfonylacetohydroxamic acid ethyl ester;<em>N</em>-[(Mesitylenesulfonyl)oxy]acetimidic acid ethyl ester;Ethyl <em>N</em>-[(mesitylsulfonyl)oxy]acetimidate",
    "duplicated_cas_no": "",
    "SMILES": "S(ON=C(OCC)C)(=O)(=O)C1=C(C)C=C(C)C=C1C",
    "meta_data": {
        "InChI": "InChI=1S/C13H19NO4S/c1-6-17-12(5)14-18-19(15,16)13-10(3)7-9(2)8-11(13)4/h7-8H,6H2,1-5H3",
        "InChIKey": null,
        "Canonical SMILES": "O=S(=O)(ON=C(OCC)C)C=1C(=CC(=CC1C)C)C",
        "Molecular Formula": "C<sub>13</sub>H<sub>19</sub>NO<sub>4</sub>S",
        "Molecular Mass": "285.36",
        "Melting Point": "56-58 °C"
    }
}