{
    "cas_no": "6018-28-6",
    "key_name": "Arecaidine hydrochloride",
    "cn_name": "盐酸槟榔碇;",
    "alternate_name": "3-Pyridinecarboxylic acid, 1,2,5,6-tetrahydro-1-methyl-, hydrochloride (1:1);Nicotinic acid, 1,2,5,6-tetrahydro-1-methyl-, hydrochloride;Arecaidine hydrochloride;3-Pyridinecarboxylic acid, 1,2,5,6-tetrahydro-1-methyl-, hydrochloride;1-Methyl-1,2,5,6-tetrahydronicotinic acid hydrochloride;1-Methyl-1,2,5,6-tetrahydropyridine-3-carboxylic acid hydrochloride",
    "duplicated_cas_no": "",
    "SMILES": "C(O)(=O)C=1CN(C)CCC1.Cl",
    "meta_data": {
        "InChI": "InChI=1S/C7H11NO2.ClH/c1-8-4-2-3-6(5-8)7(9)10;/h3H,2,4-5H2,1H3,(H,9,10);1H",
        "InChIKey": null,
        "Canonical SMILES": "Cl.O=C(O)C1=CCCN(C)C1",
        "Molecular Formula": "C<sub>7</sub>H<sub>11</sub>NO<sub>2</sub>.ClH",
        "Molecular Mass": "",
        "Melting Point": "250 °C (decomp)"
    }
}