{
    "cas_no": "129909-90-6",
    "key_name": "Amicarbazone",
    "cn_name": "胺唑草酮;4-氨基-5-氧代-3-异丙基-N-叔丁基-1,2,4-三唑-1-甲酰胺;",
    "alternate_name": "1<em>H</em>-1,2,4-Triazole-1-carboxamide, 4-amino-<em>N</em>-(1,1-dimethylethyl)-4,5-dihydro-3-(1-methylethyl)-5-oxo-;4-Amino-<em>N</em>-(1,1-dimethylethyl)-4,5-dihydro-3-(1-methylethyl)-5-oxo-1<em>H</em>-1,2,4-triazole-1-carboxamide;BAY-MKH 3586;Amicarbazone;BAY 314666;Dinamic;4-Amino-<em>N</em>-<em>tert</em>-butyl-3-isopropyl-5-oxo-4,5-dihydro-1<em>H</em>-1,2,4-triazole-1-carboxamide;Galago;Xonerate;Anzuocaotong",
    "duplicated_cas_no": "",
    "SMILES": "C(NC(C)(C)C)(=O)N1N=C(C(C)C)N(N)C1=O",
    "meta_data": {
        "InChI": "InChI=1S/C10H19N5O2/c1-6(2)7-13-15(9(17)14(7)11)8(16)12-10(3,4)5/h6H,11H2,1-5H3,(H,12,16)",
        "InChIKey": null,
        "Canonical SMILES": "O=C(NC(C)(C)C)N1N=C(N(N)C1=O)C(C)C",
        "Molecular Formula": "C<sub>10</sub>H<sub>19</sub>N<sub>5</sub>O<sub>2</sub>",
        "Molecular Mass": "241.29",
        "Melting Point": "100-105 °C"
    }
}