{
    "cas_no": "18113-03-6",
    "key_name": "2-Chloro-4-methoxyphenol",
    "cn_name": "2-氯-4甲氧基苯酚;",
    "alternate_name": "Phenol, 2-chloro-4-methoxy-;2-Chloro-4-methoxyphenol",
    "duplicated_cas_no": "",
    "SMILES": "O(C)C1=CC(Cl)=C(O)C=C1",
    "meta_data": {
        "InChI": "InChI=1S/C7H7ClO2/c1-10-5-2-3-7(9)6(8)4-5/h2-4,9H,1H3",
        "InChIKey": null,
        "Canonical SMILES": "ClC1=CC(OC)=CC=C1O",
        "Molecular Formula": "C<sub>7</sub>H<sub>7</sub>ClO<sub>2</sub>",
        "Molecular Mass": "158.58",
        "Boiling Point": "108 °C @ Press: 15 Torr",
        "Melting Point": "46-47 °C"
    }
}