{
    "cas_no": "2122-19-2",
    "key_name": "4-Methylimidazolidine-2-thione",
    "cn_name": null,
    "alternate_name": "2-Imidazolidinethione, 4-methyl-;2-Imidazoline-2-thiol, 4-methyl-;2-Imidazoline-2-thiol, 5-methyl-;4-Methyl-2-imidazolidinethione;4-Methylimidazolidine-2-thione;<em>N</em>,<em>N</em>′-(1,2-Propylene)thiourea;NSC 31254;NSC 68394",
    "duplicated_cas_no": "2122-20-5",
    "SMILES": "CC1NC(=S)NC1",
    "meta_data": {
        "InChI": "InChI=1S/C4H8N2S/c1-3-2-5-4(7)6-3/h3H,2H2,1H3,(H2,5,6,7)",
        "InChIKey": null,
        "Canonical SMILES": "S=C1NCC(N1)C",
        "Molecular Formula": "C<sub>4</sub>H<sub>8</sub>N<sub>2</sub>S",
        "Molecular Mass": "116.18",
        "Melting Point": "102-104 °C"
    }
}