{
    "cas_no": "212844-54-7",
    "key_name": "Purvalanol B",
    "cn_name": null,
    "alternate_name": "Benzoic acid, 2-chloro-4-[[2-[[(1<em>R</em>)-1-(hydroxymethyl)-2-methylpropyl]amino]-9-(1-methylethyl)-9<em>H</em>-purin-6-yl]amino]-;2-Chloro-4-[[2-[[(1<em>R</em>)-1-(hydroxymethyl)-2-methylpropyl]amino]-9-(1-methylethyl)-9<em>H</em>-purin-6-yl]amino]benzoic acid;Purvalanol B;NG 95",
    "duplicated_cas_no": "",
    "SMILES": "N(C1=C2C(N(C(C)C)C=N2)=NC(N[C@H](C(C)C)CO)=N1)C3=CC(Cl)=C(C(O)=O)C=C3",
    "meta_data": {
        "InChI": "InChI=1S/C20H25ClN6O3/c1-10(2)15(8-28)24-20-25-17(16-18(26-20)27(9-22-16)11(3)4)23-12-5-6-13(19(29)30)14(21)7-12/h5-7,9-11,15,28H,8H2,1-4H3,(H,29,30)(H2,23,24,25,26)/t15-/m0/s1",
        "InChIKey": null,
        "Canonical SMILES": "O=C(O)C1=CC=C(C=C1Cl)NC2=NC(=NC3=C2N=CN3C(C)C)NC(CO)C(C)C",
        "Molecular Formula": "C<sub>20</sub>H<sub>25</sub>ClN<sub>6</sub>O<sub>3</sub>",
        "Molecular Mass": "432.90",
        "Melting Point": "55.9 °C"
    }
}