{
    "cas_no": "81334-34-1",
    "key_name": "Imazapyr",
    "cn_name": "灭草烟;2-(4-异丙基-4-甲基-5-氧代-2-咪唑啉-2-基)烟酸;",
    "alternate_name": "3-Pyridinecarboxylic acid, 2-[4,5-dihydro-4-methyl-4-(1-methylethyl)-5-oxo-1<em>H</em>-imidazol-2-yl]-;2-[4,5-Dihydro-4-methyl-4-(1-methylethyl)-5-oxo-1<em>H</em>-imidazol-2-yl]-3-pyridinecarboxylic acid;AC 243997;Imazapyr;Chopper;Arsenal 250A;(±)-Imazapyr;2-(4-Isopropyl-4-methyl-5-oxo-2-imidazolin-2-yl)nicotinic acid;Charper;Powerline;2-(4-Isopropyl-4-methyl-5-oxo-4,5-dihydro-1<em>H</em>-imidazol-2-yl)-nicotinic acid",
    "duplicated_cas_no": "94795-74-1;108224-78-8",
    "SMILES": "C(O)(=O)C1=C(C=2NC(C(C)C)(C)C(=O)N2)N=CC=C1",
    "meta_data": {
        "InChI": "InChI=1S/C13H15N3O3/c1-7(2)13(3)12(19)15-10(16-13)9-8(11(17)18)5-4-6-14-9/h4-7H,1-3H3,(H,17,18)(H,15,16,19)",
        "InChIKey": null,
        "Canonical SMILES": "O=C(O)C=1C=CC=NC1C2=NC(=O)C(N2)(C)C(C)C",
        "Molecular Formula": "C<sub>13</sub>H<sub>15</sub>N<sub>3</sub>O<sub>3</sub>",
        "Molecular Mass": "261.28",
        "Melting Point": "171 °C",
        "Density": "0.34 g/cm³"
    }
}