{
    "cas_no": "67490-21-5",
    "key_name": "2,4,6-Tris(1,1-dimethylethyl)pyrimidine",
    "cn_name": null,
    "alternate_name": "Pyrimidine, 2,4,6-tris(1,1-dimethylethyl)-;2,4,6-Tris(1,1-dimethylethyl)pyrimidine;2,4,6-Tri-<em>tert</em>-butylpyrimidine;2,4,6-Tritert-butylpyrimidine",
    "duplicated_cas_no": "",
    "SMILES": "C(C)(C)(C)C=1C=C(C(C)(C)C)N=C(C(C)(C)C)N1",
    "meta_data": {
        "InChI": "InChI=1S/C16H28N2/c1-14(2,3)11-10-12(15(4,5)6)18-13(17-11)16(7,8)9/h10H,1-9H3",
        "InChIKey": null,
        "Canonical SMILES": "N=1C(=NC(=CC1C(C)(C)C)C(C)(C)C)C(C)(C)C",
        "Molecular Formula": "C<sub>16</sub>H<sub>28</sub>N<sub>2</sub>",
        "Molecular Mass": "248.41",
        "Melting Point": "78-80 °C"
    }
}