{
    "cas_no": "51762-05-1",
    "key_name": "Cefroxadine",
    "cn_name": "头孢沙定;(6R,7R)-7-[[(2R)-2-氨基-2-(1-环己-1,4-二烯)乙酰]氨基]-3-甲氧基-8-氧代-5-硫杂-1-氮杂双环[4.2;",
    "alternate_name": "5-Thia-1-azabicyclo[4.2.0]oct-2-ene-2-carboxylic acid, 7-[[(2<em>R</em>)-2-amino-2-(1,4-cyclohexadien-1-yl)acetyl]amino]-3-methoxy-8-oxo-, (6<em>R</em>,7<em>R</em>)-;5-Thia-1-azabicyclo[4.2.0]oct-2-ene-2-carboxylic acid, 7-[(amino-1,4-cyclohexadien-1-ylacetyl)amino]-3-methoxy-8-oxo-, [6<em>R</em>-[6α,7β(<em>R</em>*)]]-;5-Thia-1-azabicyclo[4.2.0]oct-2-ene-2-carboxylic acid, 7-[[(2<em>R</em>)-amino-1,4-cyclohexadien-1-ylacetyl]amino]-3-methoxy-8-oxo-, (6<em>R</em>,7<em>R</em>)-;(6<em>R</em>,7<em>R</em>)-7-[[(2<em>R</em>)-2-Amino-2-(1,4-cyclohexadien-1-yl)acetyl]amino]-3-methoxy-8-oxo-5-thia-1-azabicyclo[4.2.0]oct-2-ene-2-carboxylic acid;CGP 9000;Cefroxadine;Oraspor",
    "duplicated_cas_no": "109945-75-7",
    "SMILES": "C(O)(=O)C=1N2[C@@]([C@H](NC([C@H](N)C=3CC=CCC3)=O)C2=O)(SCC1OC)[H]",
    "meta_data": {
        "InChI": "InChI=1S/C16H19N3O5S/c1-24-9-7-25-15-11(14(21)19(15)12(9)16(22)23)18-13(20)10(17)8-5-3-2-4-6-8/h2-3,6,10-11,15H,4-5,7,17H2,1H3,(H,18,20)(H,22,23)/t10-,11-,15-/m1/s1",
        "InChIKey": null,
        "Canonical SMILES": "O=C(O)C1=C(OC)CSC2N1C(=O)C2NC(=O)C(N)C3=CCC=CC3",
        "Molecular Formula": "C<sub>16</sub>H<sub>19</sub>N<sub>3</sub>O<sub>5</sub>S",
        "Molecular Mass": "365.40",
        "Melting Point": "170 °C (decomp)"
    }
}