{
    "cas_no": "10024-90-5",
    "key_name": "1-(4-Methoxy-3-methylphenyl)ethanone",
    "cn_name": null,
    "alternate_name": "Ethanone, 1-(4-methoxy-3-methylphenyl)-;Acetophenone, 4′-methoxy-3′-methyl-;1-(4-Methoxy-3-methylphenyl)ethanone;4′-Methoxy-3′-methylacetophenone;4-Acetyl-2-methylanisole;3′-Methyl-4′-methoxyacetophenone;1-(4-Methoxy-3-methylphenyl)ethan-1-one",
    "duplicated_cas_no": "1471488-83-1",
    "SMILES": "C(C)(=O)C1=CC(C)=C(OC)C=C1",
    "meta_data": {
        "InChI": "InChI=1S/C10H12O2/c1-7-6-9(8(2)11)4-5-10(7)12-3/h4-6H,1-3H3",
        "InChIKey": null,
        "Canonical SMILES": "O=C(C1=CC=C(OC)C(=C1)C)C",
        "Molecular Formula": "C<sub>10</sub>H<sub>12</sub>O<sub>2</sub>",
        "Molecular Mass": "164.20",
        "Boiling Point": "116 °C @ Press: 3 Torr",
        "Melting Point": "26-26.5 °C",
        "Density": "1.0812 g/cm³ @ Temp: 18 °C"
    }
}