{
    "cas_no": "10124-43-3",
    "key_name": "Cobalt sulfate",
    "cn_name": "硫酸钴;",
    "alternate_name": "Sulfuric acid, cobalt(2+) salt (1:1);Cobaltous sulfate;Cobalt sulfate;Cobalt sulfate (CoSO<sub>4</sub>);Cobalt sulfate (1:1);Cobalt(II) sulfate;Cobalt(2+) sulfate;Cobalt monosulfate",
    "duplicated_cas_no": "139939-65-4",
    "SMILES": "S(=O)(=O)(O)O.[Co]",
    "meta_data": {
        "InChI": "InChI=1S/Co.H2O4S/c;1-5(2,3)4/h;(H2,1,2,3,4)",
        "InChIKey": null,
        "Canonical SMILES": "[Co].O=S(=O)(O)O",
        "Molecular Formula": "Co.H<sub>2</sub>O<sub>4</sub>S",
        "Molecular Mass": "",
        "Melting Point": "735 °C",
        "Density": "3.71 g/cm³ @ Temp: 25 °C"
    }
}