{
    "cas_no": "113-38-2",
    "key_name": "Estradiol, dipropionate",
    "cn_name": "3,17-二丙酸-17-BETA-雌二酯;3,17-二丙酸-17-BETA-雌二酯;",
    "alternate_name": "Estra-1,3,5(10)-triene-3,17-diol (17β)-, 3,17-dipropanoate;Estradiol, dipropionate;Estra-1,3,5(10)-triene-3,17-diol (17β)-, dipropanoate;Agofollin;Dimenformon dipropionate;Diovocylin;17β-Estradiol dipropionate;β-Estradiol dipropionate;3,17β-Estradiol dipropionate;Oestradiol 3,17-dipropionate;Ovocyclin dipropionate;Progynon DP;Nacyclyl;Diovocyclin;Diprostron;Ovocyclin P;Endofollicolina D. P.;Estroici;Estronex;Follicyclin P;Estradiol 3,17-dipropionate;Estradiol propionate;1,3,5(10)-Estratriene-3,17β-diol dipropionate;17β-Estradiol 3,17-dipropionate;3,17β-Dipropionoxyestra-1,3,5(10)-triene;Ovahormon Depot;Akrofolline",
    "duplicated_cas_no": "",
    "SMILES": "C[C@@]12[C@]([C@]3([C@@](C=4C(CC3)=CC(OC(CC)=O)=CC4)(CC1)[H])[H])(CC[C@@H]2OC(CC)=O)[H]",
    "meta_data": {
        "InChI": "InChI=1S/C24H32O4/c1-4-22(25)27-16-7-9-17-15(14-16)6-8-19-18(17)12-13-24(3)20(19)10-11-21(24)28-23(26)5-2/h7,9,14,18-21H,4-6,8,10-13H2,1-3H3/t18-,19-,20+,21+,24+/m1/s1",
        "InChIKey": null,
        "Canonical SMILES": "O=C(OC1=CC=C2C(=C1)CCC3C2CCC4(C)C(OC(=O)CC)CCC34)CC",
        "Molecular Formula": "C<sub>24</sub>H<sub>32</sub>O<sub>4</sub>",
        "Molecular Mass": "384.51",
        "Melting Point": "104-105 °C"
    }
}