{
    "cas_no": "564483-18-7",
    "key_name": "X-Phos",
    "cn_name": "2-二环己基磷-2\",4\",6\"-三异丙基联苯;",
    "alternate_name": "Phosphine, dicyclohexyl[2′,4′,6′-tris(1-methylethyl)[1,1′-biphenyl]-2-yl]-;Dicyclohexyl[2′,4′,6′-tris(1-methylethyl)[1,1′-biphenyl]-2-yl]phosphine;X-Phos;2-(Dicyclohexylphosphino)-2′,4′,6′-triisopropyl-1,1′-biphenyl;2,,4′,6′-Diisopropyl-1,1′-biphenyl-2-yldicyclohexylphosphine;Dicyclohexyl(2′,4′,6′-triisopropylbiphenyl-2-yl)phosphine;2-(Dicyclohexylphosphino)-2′,4′,6′-tri(isopropyl)biphenyl;[2′,4′,6′-Triisopropyl-1,1′-biphenyl-2-yl]dicyclohexylphosphine;2-Dicyclohexylphosphino-2′,4′,6′-triisoprophylbiphenyl;Dicyclohexyl(2′,4′,6′-triisopropyl[1,1′-biphenyl]-2-yl)phosphine",
    "duplicated_cas_no": "",
    "SMILES": "C(C)(C)C1=C(C(C(C)C)=CC(C(C)C)=C1)C2=C(P(C3CCCCC3)C4CCCCC4)C=CC=C2",
    "meta_data": {
        "InChI": "InChI=1S/C33H49P/c1-23(2)26-21-30(24(3)4)33(31(22-26)25(5)6)29-19-13-14-20-32(29)34(27-15-9-7-10-16-27)28-17-11-8-12-18-28/h13-14,19-25,27-28H,7-12,15-18H2,1-6H3",
        "InChIKey": null,
        "Canonical SMILES": "C1=CC=C(C(=C1)C2=C(C=C(C=C2C(C)C)C(C)C)C(C)C)P(C3CCCCC3)C4CCCCC4",
        "Molecular Formula": "C<sub>33</sub>H<sub>49</sub>P",
        "Molecular Mass": "476.72",
        "Melting Point": "182-184 °C"
    }
}