{
    "cas_no": "712-74-3",
    "key_name": "1,2,4,5-Benzenetetracarbonitrile",
    "cn_name": "1,2,4,5-苯四甲腈;1,2,4,5-苯四甲腈;1,2,4,5-四氰苯;1,2,4,5-四氰基苯;苯四碳晴;均苯四甲腈;",
    "alternate_name": "1,2,4,5-Benzenetetracarbonitrile;Pyromellitonitrile;Pyromellitic tetranitrile;1,2,4,5-Tetracyanobenzene;1,2,4,5-Benzenetetranitrile;Pyromellitotetranitrile;<em>sym</em>-Tetracyanobenzene;Pyromellitic acid tetranitrile;Pyromellitic nitrile;TCNB",
    "duplicated_cas_no": "",
    "SMILES": "C(#N)C1=C(C#N)C=C(C#N)C(C#N)=C1",
    "meta_data": {
        "InChI": "InChI=1S/C10H2N4/c11-3-7-1-8(4-12)10(6-14)2-9(7)5-13/h1-2H",
        "InChIKey": null,
        "Canonical SMILES": "N#CC=1C=C(C#N)C(C#N)=CC1C#N",
        "Molecular Formula": "C<sub>10</sub>H<sub>2</sub>N<sub>4</sub>",
        "Molecular Mass": "178.15",
        "Melting Point": "258 °C",
        "Density": "1.35 g/cm³"
    }
}