{
    "cas_no": "335-58-0",
    "key_name": "1,1,1,2,2,3,3,4,4,5,5,6,6,7,7-Pentadecafluoro-7-iodoheptane",
    "cn_name": "1-碘十五氟-正-庚烷;1-碘全氟庚烷;1-碘十五氟-正-庚烷;",
    "alternate_name": "Heptane, 1,1,1,2,2,3,3,4,4,5,5,6,6,7,7-pentadecafluoro-7-iodo-;Heptane, pentadecafluoro-1-iodo-;1,1,1,2,2,3,3,4,4,5,5,6,6,7,7-Pentadecafluoro-7-iodoheptane;Perfluoroheptyl iodide;Pentadecafluoro-1-iodoheptane;Perfluoro-1-iodoheptane;Perfluoro-<em>n</em>-heptyl iodide;1-Iodoperfluoroheptane;Pentadecafluoroheptyl iodide",
    "duplicated_cas_no": "",
    "SMILES": "C(C(C(C(F)(F)F)(F)F)(F)F)(C(C(C(F)(F)I)(F)F)(F)F)(F)F",
    "meta_data": {
        "InChI": "InChI=1S/C7F15I/c8-1(9,2(10,11)4(14,15)6(18,19)20)3(12,13)5(16,17)7(21,22)23",
        "InChIKey": null,
        "Canonical SMILES": "FC(F)(F)C(F)(F)C(F)(F)C(F)(F)C(F)(F)C(F)(F)C(F)(F)I",
        "Molecular Formula": "C<sub>7</sub>F<sub>15</sub>I",
        "Molecular Mass": "495.96",
        "Boiling Point": "137.5 °C"
    }
}