{
    "cas_no": "109-81-9",
    "key_name": "<em>N</em>-Methylethylenediamine",
    "cn_name": "N-甲基乙二胺;N-甲基乙烯基二胺;",
    "alternate_name": "1,2-Ethanediamine, <em>N</em><sup>1</sup>-methyl-;Ethylenediamine, <em>N</em>-methyl-;1,2-Ethanediamine, <em>N</em>-methyl-;<em>N</em><sup>1</sup>-Methyl-1,2-ethanediamine;<em>N</em>-Methylethylenediamine;2-(Methylamino)ethylamine;(2-Aminoethyl)methylamine;<em>N</em>-Methyl-1,2-ethanediamine;<em>N</em>-Methyl-1,2-diaminoethane;1-(Methylamino)-2-aminoethane;<em>N</em>-Methyl-1,2-ethylenediamine;1-Methylethylenediamine;2-(Methylamino)ethanamine",
    "duplicated_cas_no": "",
    "SMILES": "C(CN)NC",
    "meta_data": {
        "InChI": "InChI=1S/C3H10N2/c1-5-3-2-4/h5H,2-4H2,1H3",
        "InChIKey": null,
        "Canonical SMILES": "NCCNC",
        "Molecular Formula": "C<sub>3</sub>H<sub>10</sub>N<sub>2</sub>",
        "Molecular Mass": "74.12",
        "Boiling Point": "115 °C"
    }
}