{
    "cas_no": "123-61-5",
    "key_name": "1,3-Phenylene diisocyanate",
    "cn_name": "1,3-二异苯氰酸酯;",
    "alternate_name": "Benzene, 1,3-diisocyanato-;Isocyanic acid, <em>m</em>-phenylene ester;1,3-Diisocyanatobenzene;Nacconate 400;<em>m</em>-Phenylene isocyanate;Benzene 1,3-diisocyanate;1,3-Phenylene diisocyanate;<em>m</em>-Phenylene diisocyanate;NSC 511721",
    "duplicated_cas_no": "",
    "SMILES": "N(=C=O)C1=CC(N=C=O)=CC=C1",
    "meta_data": {
        "InChI": "InChI=1S/C8H4N2O2/c11-5-9-7-2-1-3-8(4-7)10-6-12/h1-4H",
        "InChIKey": null,
        "Canonical SMILES": "O=C=NC1=CC=CC(N=C=O)=C1",
        "Molecular Formula": "C<sub>8</sub>H<sub>4</sub>N<sub>2</sub>O<sub>2</sub>",
        "Molecular Mass": "160.13",
        "Boiling Point": "102-104 °C @ Press: 8 Torr",
        "Melting Point": "51 °C"
    }
}