{
    "cas_no": "82689-20-1",
    "key_name": "Phenylmethyl <em>N</em>-[(5<em>S</em>)-5-[[(1,1-dimethylethoxy)carbonyl]amino]-6-hydroxyhexyl]carbamate",
    "cn_name": null,
    "alternate_name": "Carbamic acid, <em>N</em>-[(5<em>S</em>)-5-[[(1,1-dimethylethoxy)carbonyl]amino]-6-hydroxyhexyl]-, phenylmethyl ester;Carbamic acid, [5-[[(1,1-dimethylethoxy)carbonyl]amino]-6-hydroxyhexyl]-, phenylmethyl ester, (<em>S</em>)-;Carbamic acid, [(5<em>S</em>)-5-[[(1,1-dimethylethoxy)carbonyl]amino]-6-hydroxyhexyl]-, phenylmethyl ester;Phenylmethyl <em>N</em>-[(5<em>S</em>)-5-[[(1,1-dimethylethoxy)carbonyl]amino]-6-hydroxyhexyl]carbamate;Benzyl [(5<em>S</em>)-5-[[(<em>tert</em>-butyloxy)carbonyl]amino]-6-hydroxyhexyl]carbamate;Benzyl [(5<em>S</em>)-5-[(<em>tert</em>-butoxycarbonyl)amino]-6-hydroxyhexyl]carbamate;(<em>S</em>)-Benzyl tert-butyl (6-hydroxyhexane-1,5-diyl)dicarbamate",
    "duplicated_cas_no": "",
    "SMILES": "C(OC(NCCCC[C@H](NC(OC(C)(C)C)=O)CO)=O)C1=CC=CC=C1",
    "meta_data": {
        "InChI": "InChI=1S/C19H30N2O5/c1-19(2,3)26-18(24)21-16(13-22)11-7-8-12-20-17(23)25-14-15-9-5-4-6-10-15/h4-6,9-10,16,22H,7-8,11-14H2,1-3H3,(H,20,23)(H,21,24)/t16-/m0/s1",
        "InChIKey": null,
        "Canonical SMILES": "O=C(OCC=1C=CC=CC1)NCCCCC(NC(=O)OC(C)(C)C)CO",
        "Molecular Formula": "C<sub>19</sub>H<sub>30</sub>N<sub>2</sub>O<sub>5</sub>",
        "Molecular Mass": "366.45",
        "Melting Point": "62-63 °C"
    }
}