{
    "cas_no": "84677-06-5",
    "key_name": "1-[[(Phenylmethoxy)carbonyl]amino]cyclopropanecarboxylic acid",
    "cn_name": "1-Cbz-氨基环丙烷羧酸;1-苄氧羰基氨基环丙烷羧酸;",
    "alternate_name": "Cyclopropanecarboxylic acid, 1-[[(phenylmethoxy)carbonyl]amino]-;1-[[(Phenylmethoxy)carbonyl]amino]cyclopropanecarboxylic acid;1-Benzyloxycarbonylaminocyclopropanecarboxylic acid;<em>N</em>-Benzyloxycarbonyl-1-aminocyclopropanecarboxylic acid;1-[(Benzyloxycarbonyl)amino]cyclopropane-1-carboxylic acid;1-(Phenylmethoxycarbonylamino)cyclopropane-1-carboxylic acid",
    "duplicated_cas_no": "",
    "SMILES": "N(C(OCC1=CC=CC=C1)=O)C2(C(O)=O)CC2",
    "meta_data": {
        "InChI": "InChI=1S/C12H13NO4/c14-10(15)12(6-7-12)13-11(16)17-8-9-4-2-1-3-5-9/h1-5H,6-8H2,(H,13,16)(H,14,15)",
        "InChIKey": null,
        "Canonical SMILES": "O=C(OCC=1C=CC=CC1)NC2(C(=O)O)CC2",
        "Molecular Formula": "C<sub>12</sub>H<sub>13</sub>NO<sub>4</sub>",
        "Molecular Mass": "235.24",
        "Melting Point": "153-158 °C"
    }
}