{
    "cas_no": "57531-37-0",
    "key_name": "2-Chloro-4-nitroimidazole",
    "cn_name": "2-氯-4-硝基咪唑;",
    "alternate_name": "1<em>H</em>-Imidazole, 2-chloro-5-nitro-;1<em>H</em>-Imidazole, 2-chloro-4-nitro-;2-Chloro-5-nitro-1<em>H</em>-imidazole;2-Chloro-4-nitroimidazole;P<sub>21</sub>;2-Chloro-4(5)-nitroimidazole;2-Chloro-4-nitro-1<em>H</em>-imidazole",
    "duplicated_cas_no": "",
    "SMILES": "N(=O)(=O)C=1NC(Cl)=NC1",
    "meta_data": {
        "InChI": "InChI=1S/C3H2ClN3O2/c4-3-5-1-2(6-3)7(8)9/h1H,(H,5,6)",
        "InChIKey": null,
        "Canonical SMILES": "O=N(=O)C1=CN=C(Cl)N1",
        "Molecular Formula": "C<sub>3</sub>H<sub>2</sub>ClN<sub>3</sub>O<sub>2</sub>",
        "Molecular Mass": "147.52",
        "Melting Point": "216-217 °C"
    }
}