{
    "cas_no": "10537-86-7",
    "key_name": "4-Hydroxy-3,5-bis(1-methylethyl)benzaldehyde",
    "cn_name": null,
    "alternate_name": "Benzaldehyde, 4-hydroxy-3,5-bis(1-methylethyl)-;Benzaldehyde, 4-hydroxy-3,5-diisopropyl-;4-Hydroxy-3,5-bis(1-methylethyl)benzaldehyde;4-Hydroxy-3,5-diisopropylbenzaldehyde;3,5-Diisopropyl-4-hydroxybenzaldehyde;3,5-Bis(1-methylethyl)-4-hydroxybenzaldehyde;4-Hydroxy-3,5-bis(isopropyl)benzaldehyde",
    "duplicated_cas_no": "",
    "SMILES": "C(C)(C)C1=C(O)C(C(C)C)=CC(C=O)=C1",
    "meta_data": {
        "InChI": "InChI=1S/C13H18O2/c1-8(2)11-5-10(7-14)6-12(9(3)4)13(11)15/h5-9,15H,1-4H3",
        "InChIKey": null,
        "Canonical SMILES": "O=CC=1C=C(C(O)=C(C1)C(C)C)C(C)C",
        "Molecular Formula": "C<sub>13</sub>H<sub>18</sub>O<sub>2</sub>",
        "Molecular Mass": "206.28",
        "Melting Point": "119-120 °C"
    }
}