{
    "cas_no": "14118-16-2",
    "key_name": "<em>N</em><sup>1</sup>,<em>N</em><sup>1</sup>,<em>N</em><sup>4</sup>,<em>N</em><sup>4</sup>-Tetraphenyl-1,4-benzenediamine",
    "cn_name": null,
    "alternate_name": "1,4-Benzenediamine, <em>N</em><sup>1</sup>,<em>N</em><sup>1</sup>,<em>N</em><sup>4</sup>,<em>N</em><sup>4</sup>-tetraphenyl-;<em>p</em>-Phenylenediamine, <em>N</em>,<em>N</em>,<em>N</em>′,<em>N</em>′-tetraphenyl-;1,4-Benzenediamine, <em>N</em>,<em>N</em>,<em>N</em>′,<em>N</em>′-tetraphenyl-;<em>N</em><sup>1</sup>,<em>N</em><sup>1</sup>,<em>N</em><sup>4</sup>,<em>N</em><sup>4</sup>-Tetraphenyl-1,4-benzenediamine;<em>N</em>,<em>N</em>,<em>N</em>′,<em>N</em>′-Tetraphenyl-<em>p</em>-phenylenediamine;<em>N</em>,<em>N</em>,<em>N</em>′,<em>N</em>′-Tetraphenyl-1,4-phenylenediamine;1,4-Bis(diphenylamino)benzene;<em>N</em>,<em>N</em>,<em>N</em>'<em>N</em>′-Tetraphenyl-1,4-benzenediamine;1-<em>N</em>,1-<em>N</em>,4-<em>N</em>,4-<em>N</em>-Tetraphenylbenzene-1,4-diamine",
    "duplicated_cas_no": "",
    "SMILES": "N(C1=CC=C(N(C2=CC=CC=C2)C3=CC=CC=C3)C=C1)(C4=CC=CC=C4)C5=CC=CC=C5",
    "meta_data": {
        "InChI": "InChI=1S/C30H24N2/c1-5-13-25(14-6-1)31(26-15-7-2-8-16-26)29-21-23-30(24-22-29)32(27-17-9-3-10-18-27)28-19-11-4-12-20-28/h1-24H",
        "InChIKey": null,
        "Canonical SMILES": "C=1C=CC(=CC1)N(C=2C=CC=CC2)C3=CC=C(C=C3)N(C=4C=CC=CC4)C=5C=CC=CC5",
        "Molecular Formula": "C<sub>30</sub>H<sub>24</sub>N<sub>2</sub>",
        "Molecular Mass": "412.52",
        "Melting Point": "200 °C",
        "Density": "1.212 g/cm³ (solid)"
    }
}