{
    "cas_no": "7339-87-9",
    "key_name": "4-Hydroxyphenylacetaldehyde",
    "cn_name": "4-羟基苯乙醛;",
    "alternate_name": "Benzeneacetaldehyde, 4-hydroxy-;Acetaldehyde, (<em>p</em>-hydroxyphenyl)-;4-Hydroxybenzeneacetaldehyde;(<em>p</em>-Hydroxyphenyl)acetaldehyde;4-Hydroxyphenylacetaldehyde;4-Hydroxyphenylacetadehyde;2-(4-Hydroxyphenyl)acetaldehyde",
    "duplicated_cas_no": "",
    "SMILES": "C(C=O)C1=CC=C(O)C=C1",
    "meta_data": {
        "InChI": "InChI=1S/C8H8O2/c9-6-5-7-1-3-8(10)4-2-7/h1-4,6,10H,5H2",
        "InChIKey": null,
        "Canonical SMILES": "O=CCC1=CC=C(O)C=C1",
        "Molecular Formula": "C<sub>8</sub>H<sub>8</sub>O<sub>2</sub>",
        "Molecular Mass": "136.15",
        "Melting Point": "118 °C"
    }
}