{
    "cas_no": "84-99-1",
    "key_name": "Xanthoxyletin",
    "cn_name": "黄木亭;",
    "alternate_name": "2<em>H</em>,8<em>H</em>-Benzo[1,2-<em>b</em>:5,4-<em>b</em>′]dipyran-2-one, 5-methoxy-8,8-dimethyl-;Xanthoxyletin;5-Methoxy-8,8-dimethyl-2<em>H</em>,8<em>H</em>-benzo[1,2-<em>b</em>:5,4-<em>b</em>′]dipyran-2-one;Xanthoxylin N;2-Propenoic acid, 3-(7-hydroxy-5-methoxy-2,2-dimethyl-2<em>H</em>-1-benzopyran-6-yl)-, δ-lactone;NSC 35542",
    "duplicated_cas_no": "",
    "SMILES": "O(C)C1=C2C(=CC3=C1C=CC(=O)O3)OC(C)(C)C=C2",
    "meta_data": {
        "InChI": "InChI=1S/C15H14O4/c1-15(2)7-6-10-12(19-15)8-11-9(14(10)17-3)4-5-13(16)18-11/h4-8H,1-3H3",
        "InChIKey": null,
        "Canonical SMILES": "O=C1OC2=CC=3OC(C=CC3C(OC)=C2C=C1)(C)C",
        "Molecular Formula": "C<sub>15</sub>H<sub>14</sub>O<sub>4</sub>",
        "Molecular Mass": "258.27",
        "Melting Point": "133 °C"
    }
}