{
    "cas_no": "2578-57-6",
    "key_name": "<span class=\"text-smallcaps\">L</span>-Prolylglycine",
    "cn_name": null,
    "alternate_name": "Glycine, <span class=\"text-smallcaps\">L</span>-prolyl-;Glycine, <em>N</em>-<span class=\"text-smallcaps\">L</span>-prolyl-;<span class=\"text-smallcaps\">L</span>-Prolylglycine;45: PN: WO03052099 PAGE: 84 claimed protein;NSC 89175;103: PN: EP2161028 PAGE: 10 claimed protein;1: PN: KR20100018632 PAGE: 3 claimed protein;2: PN: WO2010117786 PAGE: 166 claimed protein;6: PN: WO2014063098 TABLE: 5 claimed protein;42: PN: US20130123467 SEQID: 47 claimed protein;19: PN: WO2015153838 PAGE: 89 claimed sequence;84: PN: WO2017078631 PAGE: 50 claimed protein;3: PN: US20180142240 PAGE: 82 claimed sequence;2: PN: CN108148117 PAGE: 2 claimed sequence;8: PN: JP2019112401 FIGURE: 2 claimed sequence;2-[[(2S)-Pyrrolidin-1-ium-2-carbonyl]amino]acetate;2-[(2S)-Pyrrolidin-2-ylformamido]acetic acid",
    "duplicated_cas_no": "",
    "SMILES": "C(NCC(O)=O)(=O)[C@@H]1CCCN1",
    "meta_data": {
        "InChI": "InChI=1S/C7H12N2O3/c10-6(11)4-9-7(12)5-2-1-3-8-5/h5,8H,1-4H2,(H,9,12)(H,10,11)/t5-/m0/s1",
        "InChIKey": null,
        "Canonical SMILES": "O=C(O)CNC(=O)C1NCCC1",
        "Molecular Formula": "C<sub>7</sub>H<sub>12</sub>N<sub>2</sub>O<sub>3</sub>",
        "Molecular Mass": "172.18",
        "Melting Point": "236 °C"
    }
}