{
    "cas_no": "6828-35-9",
    "key_name": "5-Chloro-2-iodobenzenamine",
    "cn_name": "5-氯-2-碘苯胺;",
    "alternate_name": "Benzenamine, 5-chloro-2-iodo-;Aniline, 5-chloro-2-iodo-;5-Chloro-2-iodobenzenamine;5-Chloro-2-iodoaniline;3-Chloro-6-iodoaniline;2-Iodo-5-chloroaniline",
    "duplicated_cas_no": "",
    "SMILES": "NC1=C(I)C=CC(Cl)=C1",
    "meta_data": {
        "InChI": "InChI=1S/C6H5ClIN/c7-4-1-2-5(8)6(9)3-4/h1-3H,9H2",
        "InChIKey": null,
        "Canonical SMILES": "ClC1=CC=C(I)C(N)=C1",
        "Molecular Formula": "C<sub>6</sub>H<sub>5</sub>ClIN",
        "Molecular Mass": "253.47",
        "Melting Point": "64-66 °C"
    }
}