{
    "cas_no": "6640-25-1",
    "key_name": "(4-Chlorophenyl)cyclopropylmethanone",
    "cn_name": "4-氯苯基环丙基甲基酮;4-氯苯基环丙基甲酮;",
    "alternate_name": "Methanone, (4-chlorophenyl)cyclopropyl-;Ketone, <em>p</em>-chlorophenyl cyclopropyl;(4-Chlorophenyl)cyclopropylmethanone;<em>p</em>-Chlorophenyl cyclopropyl ketone;4-Chlorophenyl cyclopropyl ketone;(<em>p</em>-Chlorobenzoyl)cyclopropane;Cyclopropyl 4-chlorophenyl ketone;NSC 49315",
    "duplicated_cas_no": "",
    "SMILES": "C(=O)(C1CC1)C2=CC=C(Cl)C=C2",
    "meta_data": {
        "InChI": "InChI=1S/C10H9ClO/c11-9-5-3-8(4-6-9)10(12)7-1-2-7/h3-7H,1-2H2",
        "InChIKey": null,
        "Canonical SMILES": "O=C(C1=CC=C(Cl)C=C1)C2CC2",
        "Molecular Formula": "C<sub>10</sub>H<sub>9</sub>ClO",
        "Molecular Mass": "180.63",
        "Boiling Point": "132-133 °C @ Press: 10 Torr",
        "Melting Point": "23-24 °C"
    }
}