{
    "cas_no": "826-62-0",
    "key_name": "5-Norbornene-2,3-dicarboxylic anhydride",
    "cn_name": "NA酸酐;内亚甲基四氢苯酐;降冰片烯二酸酐;纳迪克酸酐;",
    "alternate_name": "4,7-Methanoisobenzofuran-1,3-dione, 3a,4,7,7a-tetrahydro-;5-Norbornene-2,3-dicarboxylic anhydride;3a,4,7,7a-Tetrahydro-4,7-methanoisobenzofuran-1,3-dione;Bicyclo[2.2.1]hept-5-ene-2,3-dicarboxylic anhydride;2-Norbornene-5,6-dicarboxylic anhydride;3,6-Methylene-1,2,3,6-tetrahydrophthalic anhydride;5-Norbornene-2,3-dicarboxylic acid anhydride;3,6-Methano-4-cyclohexene-1,2-dicarboxylic acid anhydride;NSC 3999;4-Oxatricyclo[5.2.1.0<sup>2,6</sup>]dec-8-ene-3,5-dione;Bicyclo[2.2.1]hept-2-ene-5,6-dicarboxylic anhydride;Norbornenedicarboxylic anhydride;5,6-Norbornene-2,3-dicarboxylic acid anhydride;Anhydride 647",
    "duplicated_cas_no": "66075-60-3",
    "SMILES": "O=C1C2C(C3CC2C=C3)C(=O)O1",
    "meta_data": {
        "InChI": "InChI=1S/C9H8O3/c10-8-6-4-1-2-5(3-4)7(6)9(11)12-8/h1-2,4-7H,3H2",
        "InChIKey": null,
        "Canonical SMILES": "O=C1OC(=O)C2C3C=CC(C3)C12",
        "Molecular Formula": "C<sub>9</sub>H<sub>8</sub>O<sub>3</sub>",
        "Molecular Mass": "164.16",
        "Melting Point": "147 °C",
        "Density": "1.42 g/cm³"
    }
}