{
    "cas_no": "13139-14-5",
    "key_name": "<em>N</em>-<em>tert</em>-Butoxycarbonyl-<span class=\"text-smallcaps\">L</span>-tryptophan",
    "cn_name": "N-叔丁氧羰基-L-色氨酸;N-BOC-L-色氨酸;",
    "alternate_name": "<span class=\"text-smallcaps\">L</span>-Tryptophan, <em>N</em>-[(1,1-dimethylethoxy)carbonyl]-;Tryptophan, <em>N</em>-carboxy-, <em>N</em>-<em>tert</em>-butyl ester, <span class=\"text-smallcaps\">L</span>-;Tryptophan, <em>N</em>-carboxy-, <em>N</em>-<em>tert</em>-butyl ester;<em>N</em>-[(1,1-Dimethylethoxy)carbonyl]-<span class=\"text-smallcaps\">L</span>-tryptophan;<em>tert</em>-Butoxycarbonyl-<span class=\"text-smallcaps\">L</span>-tryptophan;<em>N</em>-<em>tert</em>-Butoxycarbonyl-<span class=\"text-smallcaps\">L</span>-tryptophan;<em>N</em>-<em>tert</em>-Butyloxycarbonyl-<span class=\"text-smallcaps\">L</span>-tryptophan;<em>N</em><sup>α</sup>-<em>tert</em>-Butoxycarbonyl-<span class=\"text-smallcaps\">L</span>-tryptophan;<em>tert</em>-Butyloxycarbonyl-<span class=\"text-smallcaps\">L</span>-tryptophan;<em>N</em><sup>α</sup>-<em>tert</em>-Butoxycarbonyltryptophan;<em>N</em><sup>α</sup>-BOC-<span class=\"text-smallcaps\">L</span>-tryptophan;<em>N</em>-Boc-<span class=\"text-smallcaps\">L</span>-tryptophan;<em>N</em>-(<em>tert</em>-Butoxycarbonyl)-<span class=\"text-smallcaps\">L</span>-tryptophan methyl ester;NSC 334306;(<em>S</em>)-2-[(<em>tert</em>-Butoxycarbonyl)amino]-3-(1<em>H</em>-indol-3-yl)propionic acid;(<em>S</em>)-2-(((<em>tert</em>-Butoxy)carbonyl)amino)-3-(1<em>H</em>-indol-3-yl)propanoic acid;<em>N</em>-BOC-<span class=\"text-smallcaps\">L</span>-Trp-OH;(2S)-3-(1<em>H</em>-Indol-3-yl)-2-[(2-methylpropan-2-yl)oxycarbonylamino]propanoic acid;(2S)-2-[[(<em>tert</em>-Butoxy)carbonyl]amino]-3-(1<em>H</em>-indol-3-yl)propanoic acid",
    "duplicated_cas_no": "118552-56-0;259144-37-1;957765-97-8;2045394-30-5;2634813-69-5",
    "SMILES": "C([C@H](NC(OC(C)(C)C)=O)C(O)=O)C=1C=2C(NC1)=CC=CC2",
    "meta_data": {
        "InChI": "InChI=1S/C16H20N2O4/c1-16(2,3)22-15(21)18-13(14(19)20)8-10-9-17-12-7-5-4-6-11(10)12/h4-7,9,13,17H,8H2,1-3H3,(H,18,21)(H,19,20)/t13-/m0/s1",
        "InChIKey": null,
        "Canonical SMILES": "O=C(OC(C)(C)C)NC(C(=O)O)CC1=CNC=2C=CC=CC21",
        "Molecular Formula": "C<sub>16</sub>H<sub>20</sub>N<sub>2</sub>O<sub>4</sub>",
        "Molecular Mass": "304.34",
        "Melting Point": "135.5-189.5 °C"
    }
}