{
    "cas_no": "83002-04-4",
    "key_name": "5-(1,1-Dimethylheptyl)-2-[(1<em>R</em>,2<em>R</em>,5<em>R</em>)-5-hydroxy-2-(3-hydroxypropyl)cyclohexyl]phenol",
    "cn_name": null,
    "alternate_name": "Phenol, 5-(1,1-dimethylheptyl)-2-[(1<em>R</em>,2<em>R</em>,5<em>R</em>)-5-hydroxy-2-(3-hydroxypropyl)cyclohexyl]-;Phenol, 5-(1,1-dimethylheptyl)-2-[5-hydroxy-2-(3-hydroxypropyl)cyclohexyl]-, (1α,2β,5α)-(-)-;5-(1,1-Dimethylheptyl)-2-[(1<em>R</em>,2<em>R</em>,5<em>R</em>)-5-hydroxy-2-(3-hydroxypropyl)cyclohexyl]phenol;(-)-CP 55940;CP 55940",
    "duplicated_cas_no": "",
    "SMILES": "C(CCO)[C@H]1[C@@H](C[C@H](O)CC1)C2=C(O)C=C(C(CCCCCC)(C)C)C=C2",
    "meta_data": {
        "InChI": "InChI=1S/C24H40O3/c1-4-5-6-7-14-24(2,3)19-11-13-21(23(27)16-19)22-17-20(26)12-10-18(22)9-8-15-25/h11,13,16,18,20,22,25-27H,4-10,12,14-15,17H2,1-3H3/t18-,20-,22-/m1/s1",
        "InChIKey": null,
        "Canonical SMILES": "OC1=CC(=CC=C1C2CC(O)CCC2CCCO)C(C)(C)CCCCCC",
        "Molecular Formula": "C<sub>24</sub>H<sub>40</sub>O<sub>3</sub>",
        "Molecular Mass": "376.57",
        "Melting Point": "65-68 °C"
    }
}