{
    "cas_no": "494-19-9",
    "key_name": "10,11-Dihydro-5<em>H</em>-dibenz[<em>b</em>,<em>f</em>]azepine",
    "cn_name": "亚氨基二苄;亚胺联苄;10,11-二氢-5H-二苯并[b,f]氮杂卓;",
    "alternate_name": "5<em>H</em>-Dibenz[<em>b</em>,<em>f</em>]azepine, 10,11-dihydro-;10,11-Dihydro-5<em>H</em>-dibenz[<em>b</em>,<em>f</em>]azepine;10,11-Dihydrodibenz[<em>b</em>,<em>f</em>]azepine;2,2′-Iminobibenzyl;2,2′-Iminodibenzyl;Iminobibenzyl;Iminodibenzyl;10,11-Dihydro-5<em>H</em>-dibenzo[<em>b</em>,<em>f</em>]azepine;NSC 72110;10,11-Dihydroiminostilbene;10,11-Dihydro-5<em>H</em>-dibenz-(b,f)-azepine",
    "duplicated_cas_no": "",
    "SMILES": "C1=2C(CCC=3C(N1)=CC=CC3)=CC=CC2",
    "meta_data": {
        "InChI": "InChI=1S/C14H13N/c1-3-7-13-11(5-1)9-10-12-6-2-4-8-14(12)15-13/h1-8,15H,9-10H2",
        "InChIKey": null,
        "Canonical SMILES": "C=1C=CC2=C(C1)NC=3C=CC=CC3CC2",
        "Molecular Formula": "C<sub>14</sub>H<sub>13</sub>N",
        "Molecular Mass": "195.26",
        "Boiling Point": "128-135 °C @ Press: 0.08 Torr",
        "Melting Point": "108-109 °C"
    }
}