{
    "cas_no": "104224-63-7",
    "key_name": "2-(1-Adamantyl)-4-bromoanisole",
    "cn_name": "2-(1-金刚烷基)-4-溴苯甲醚;",
    "alternate_name": "Tricyclo[3.3.1.1<sup>3,7</sup>]decane, 1-(5-bromo-2-methoxyphenyl)-;1-(5-Bromo-2-methoxyphenyl)tricyclo[3.3.1.1<sup>3,7</sup>]decane;2-Adamantyl-4-bromoanisole;2-(1-Adamantyl)-4-bromoanisole;2-(1-Adamantyl)-4-bromomethoxybenzene;1-Methoxy-2-(1-adamantyl)-4-bromobenzene;4-Bromo-2-(1-adamantyl)anisole;1-(5-Bromo-2-methoxyphenyl)adamantane",
    "duplicated_cas_no": "1220973-22-7;2095639-52-2",
    "SMILES": "O(C)C1=C(C23CC4CC(C2)CC(C3)C4)C=C(Br)C=C1",
    "meta_data": {
        "InChI": "InChI=1S/C17H21BrO/c1-19-16-3-2-14(18)7-15(16)17-8-11-4-12(9-17)6-13(5-11)10-17/h2-3,7,11-13H,4-6,8-10H2,1H3",
        "InChIKey": null,
        "Canonical SMILES": "BrC1=CC=C(OC)C(=C1)C23CC4CC(CC(C4)C2)C3",
        "Molecular Formula": "C<sub>17</sub>H<sub>21</sub>BrO",
        "Molecular Mass": "321.25",
        "Melting Point": "138-139 °C"
    }
}