{
    "cas_no": "637-56-9",
    "key_name": "Benzenamine, 4-ethoxy-, hydrochloride (1:1)",
    "cn_name": "对氨基苯乙醚盐酸盐;",
    "alternate_name": "Benzenamine, 4-ethoxy-, hydrochloride (1:1);<em>p</em>-Phenetidine, hydrochloride;Benzenamine, 4-ethoxy-, hydrochloride;Phenetidine hydrochloride;4-Ethoxyaniline hydrochloride;4-Ethoxyanilinium chloride",
    "duplicated_cas_no": "",
    "SMILES": "O(CC)C1=CC=C(N)C=C1.Cl",
    "meta_data": {
        "InChI": "InChI=1S/C8H11NO.ClH/c1-2-10-8-5-3-7(9)4-6-8;/h3-6H,2,9H2,1H3;1H",
        "InChIKey": null,
        "Canonical SMILES": "Cl.O(C1=CC=C(N)C=C1)CC",
        "Molecular Formula": "C<sub>8</sub>H<sub>11</sub>NO.ClH",
        "Molecular Mass": "",
        "Melting Point": "234.5-235.0 °C"
    }
}