{
    "cas_no": "6136-93-2",
    "key_name": "Diethoxyacetonitrile",
    "cn_name": "二乙氧基乙腈;",
    "alternate_name": "Acetonitrile, 2,2-diethoxy-;Formaldehyde, cyano-, diethyl acetal;Acetonitrile, diethoxy-;2,2-Diethoxyacetonitrile;Diethoxyacetonitrile",
    "duplicated_cas_no": "",
    "SMILES": "C(OCC)(OCC)C#N",
    "meta_data": {
        "InChI": "InChI=1S/C6H11NO2/c1-3-8-6(5-7)9-4-2/h6H,3-4H2,1-2H3",
        "InChIKey": null,
        "Canonical SMILES": "N#CC(OCC)OCC",
        "Molecular Formula": "C<sub>6</sub>H<sub>11</sub>NO<sub>2</sub>",
        "Molecular Mass": "129.16",
        "Boiling Point": "167.7 °C @ Press: 773 Torr",
        "Density": "0.9288 g/cm³ @ Temp: 25 °C"
    }
}