{
    "cas_no": "865758-96-9",
    "key_name": "2-[(6-Chloro-3,4-dihydro-3-methyl-2,4-dioxo-1(2<em>H</em>)-pyrimidinyl)methyl]benzonitrile",
    "cn_name": null,
    "alternate_name": "Benzonitrile, 2-[(6-chloro-3,4-dihydro-3-methyl-2,4-dioxo-1(2<em>H</em>)-pyrimidinyl)methyl]-;2-[(6-Chloro-3,4-dihydro-3-methyl-2,4-dioxo-1(2<em>H</em>)-pyrimidinyl)methyl]benzonitrile;2-[(6-Chloro-3-methyl-2,4-dioxo-3,4-dihydropyrimidin-1(2<em>H</em>)-yl)methyl]benzonitrile;2-[(6-Chloro-3-methyl-2,4-dioxopyrimidin-1-yl)methyl]benzonitrile",
    "duplicated_cas_no": "2762036-51-9",
    "SMILES": "C(N1C(=O)N(C)C(=O)C=C1Cl)C2=C(C#N)C=CC=C2",
    "meta_data": {
        "InChI": "InChI=1S/C13H10ClN3O2/c1-16-12(18)6-11(14)17(13(16)19)8-10-5-3-2-4-9(10)7-15/h2-6H,8H2,1H3",
        "InChIKey": null,
        "Canonical SMILES": "N#CC=1C=CC=CC1CN2C(Cl)=CC(=O)N(C2=O)C",
        "Molecular Formula": "C<sub>13</sub>H<sub>10</sub>ClN<sub>3</sub>O<sub>2</sub>",
        "Molecular Mass": "275.69",
        "Melting Point": "168-170 °C"
    }
}