{
    "cas_no": "114322-14-4",
    "key_name": "2,1,3-Benzoxadiazole-4-sulfonyl chloride",
    "cn_name": null,
    "alternate_name": "2,1,3-Benzoxadiazole-4-sulfonyl chloride;4-Benzofurazansulfonyl chloride;Benzo[<em>c</em>]-1,2,5-oxadiazole-4-sulfonyl chloride;Benzo[1,2,5]oxadiazole-4-sulfonyl chloride;Benzo-2,1,3-oxadiazole-4-sulfonyl chloride;2,1,3-Benzoxadiazol-4-ylsulfonyl chloride",
    "duplicated_cas_no": "",
    "SMILES": "S(Cl)(=O)(=O)C=1C=2C(C=CC1)=NON2",
    "meta_data": {
        "InChI": "InChI=1S/C6H3ClN2O3S/c7-13(10,11)5-3-1-2-4-6(5)9-12-8-4/h1-3H",
        "InChIKey": null,
        "Canonical SMILES": "O=S(=O)(Cl)C1=CC=CC2=NON=C21",
        "Molecular Formula": "C<sub>6</sub>H<sub>3</sub>ClN<sub>2</sub>O<sub>3</sub>S",
        "Molecular Mass": "218.62",
        "Melting Point": "78-80 °C"
    }
}