{
    "cas_no": "683-72-7",
    "key_name": "Dichloroacetamide",
    "cn_name": "二氯乙酰胺;",
    "alternate_name": "Acetamide, 2,2-dichloro-;2,2-Dichloroacetamide;Dichloroacetamide;NSC 402025",
    "duplicated_cas_no": "",
    "SMILES": "C(C(N)=O)(Cl)Cl",
    "meta_data": {
        "InChI": "InChI=1S/C2H3Cl2NO/c3-1(4)2(5)6/h1H,(H2,5,6)",
        "InChIKey": null,
        "Canonical SMILES": "O=C(N)C(Cl)Cl",
        "Molecular Formula": "C<sub>2</sub>H<sub>3</sub>Cl<sub>2</sub>NO",
        "Molecular Mass": "127.96",
        "Boiling Point": "234 °C",
        "Melting Point": "99.4 °C"
    }
}