{
    "cas_no": "124-73-2",
    "key_name": "1,2-Dibromo-1,1,2,2-tetrafluoroethane",
    "cn_name": "1,2-二溴四氟乙烷;1,1,2,2-四氟-1,2-二溴乙烷;氟里昂114B-2;",
    "alternate_name": "Ethane, 1,2-dibromo-1,1,2,2-tetrafluoro-;Ethane, 1,2-dibromotetrafluoro-;1,2-Dibromo-1,1,2,2-tetrafluoroethane;Freon 114B2;F 114B2;Halon 2402;1,2-Dibromoperfluoroethane;<em>sym</em>-Dibromotetrafluoroethane;R 114B2;Khladon 114B2;Fluobrene;FC 114B2;Daiflon 114B<sub>2</sub>;<em>sym</em>-1,2-Dibromo-1,1,2,2-tetrafluoroethane;Halon 114B2;1,2-Dibromotetrafluoroethane;H 2402",
    "duplicated_cas_no": "76199-55-8",
    "SMILES": "C(C(Br)(F)F)(Br)(F)F",
    "meta_data": {
        "InChI": "InChI=1S/C2Br2F4/c3-1(5,6)2(4,7)8",
        "InChIKey": null,
        "Canonical SMILES": "FC(F)(Br)C(F)(F)Br",
        "Molecular Formula": "C<sub>2</sub>Br<sub>2</sub>F<sub>4</sub>",
        "Molecular Mass": "259.82",
        "Boiling Point": "47.3 °C",
        "Melting Point": "-112 °C",
        "Density": "2.18 g/cm³ @ Temp: 21.1 °C"
    }
}