{
    "cas_no": "24008-63-7",
    "key_name": "(<em>S</em>)-Mandelamide",
    "cn_name": null,
    "alternate_name": "Benzeneacetamide, α-hydroxy-, (α<em>S</em>)-;Mandelamide, <span class=\"text-smallcaps\">L</span>-;Benzeneacetamide, α-hydroxy-, (<em>S</em>)-;(α<em>S</em>)-α-Hydroxybenzeneacetamide;<span class=\"text-smallcaps\">L</span>-Mandelamide;<span class=\"text-smallcaps\">L</span>-(+)-Mandelamide;(<em>S</em>)-(+)-Mandelamide;(<em>S</em>)-Mandelamide;(+)-Mandelamide",
    "duplicated_cas_no": "",
    "SMILES": "[C@H](C(N)=O)(O)C1=CC=CC=C1",
    "meta_data": {
        "InChI": "InChI=1S/C8H9NO2/c9-8(11)7(10)6-4-2-1-3-5-6/h1-5,7,10H,(H2,9,11)/t7-/m0/s1",
        "InChIKey": null,
        "Canonical SMILES": "O=C(N)C(O)C=1C=CC=CC1",
        "Molecular Formula": "C<sub>8</sub>H<sub>9</sub>NO<sub>2</sub>",
        "Molecular Mass": "151.16",
        "Melting Point": "122-122.5 °C"
    }
}