{
    "cas_no": "20637-09-6",
    "key_name": "Methyl 4-aminobenzenebutanoate",
    "cn_name": "4-(4-氨基苯)丁酸甲酯;对氨基苯丁酸甲酯;",
    "alternate_name": "Benzenebutanoic acid, 4-amino-, methyl ester;Butyric acid, 4-(<em>p</em>-aminophenyl)-, methyl ester;Methyl 4-aminobenzenebutanoate;Methyl 4-(4-aminophenyl)butyrate;Methyl 4-(<em>p</em>-aminophenyl)butyrate;Methyl 4-(4-aminophenyl)butanoate;4-(4-Aminophenyl)butanoic acid methyl ester",
    "duplicated_cas_no": "",
    "SMILES": "C(CCC(OC)=O)C1=CC=C(N)C=C1",
    "meta_data": {
        "InChI": "InChI=1S/C11H15NO2/c1-14-11(13)4-2-3-9-5-7-10(12)8-6-9/h5-8H,2-4,12H2,1H3",
        "InChIKey": null,
        "Canonical SMILES": "O=C(OC)CCCC1=CC=C(N)C=C1",
        "Molecular Formula": "C<sub>11</sub>H<sub>15</sub>NO<sub>2</sub>",
        "Molecular Mass": "193.24",
        "Melting Point": "42 °C"
    }
}