{
    "cas_no": "7423-92-9",
    "key_name": "(-)-<em>o</em>-Tyrosine",
    "cn_name": null,
    "alternate_name": "<span class=\"text-smallcaps\">L</span>-Phenylalanine, 2-hydroxy-;<em>o</em>-Tyrosine, <span class=\"text-smallcaps\">L</span>-;2-Hydroxy-<span class=\"text-smallcaps\">L</span>-phenylalanine;<span class=\"text-smallcaps\">L</span>-<em>o</em>-Tyrosine;<span class=\"text-smallcaps\">L</span>-3-(2-Hydroxyphenyl)alanine;<span class=\"text-smallcaps\">L</span>-<em>o</em>-Hydroxyphenylalanine;<em>o</em>-<span class=\"text-smallcaps\">L</span>-Tyrosine;(-)-<em>o</em>-Tyrosine;<span class=\"text-smallcaps\">L</span>-2-Hydroxyphenylalanine;(<em>S</em>)-2-Amino-3-(2-hydroxyphenyl)propanoicacid",
    "duplicated_cas_no": "",
    "SMILES": "C([C@@H](C(O)=O)N)C1=C(O)C=CC=C1",
    "meta_data": {
        "InChI": "InChI=1S/C9H11NO3/c10-7(9(12)13)5-6-3-1-2-4-8(6)11/h1-4,7,11H,5,10H2,(H,12,13)/t7-/m0/s1",
        "InChIKey": null,
        "Canonical SMILES": "O=C(O)C(N)CC=1C=CC=CC1O",
        "Molecular Formula": "C<sub>9</sub>H<sub>11</sub>NO<sub>3</sub>",
        "Molecular Mass": "181.19",
        "Melting Point": "249-250 °C"
    }
}