{
    "cas_no": "2309-94-6",
    "key_name": "Disperse Blue 183",
    "cn_name": "分散兰183;N-[2-[(2-溴-6-氰基-4-硝基苯基)偶氮]-5-(二乙基氨基)苯基]丙酰胺;",
    "alternate_name": "Propanamide, <em>N</em>-[2-[2-(2-bromo-6-cyano-4-nitrophenyl)diazenyl]-5-(diethylamino)phenyl]-;Propionanilide, 2′-[(2-bromo-6-cyano-4-nitrophenyl)azo]-5′-(diethylamino)-;Propanamide, <em>N</em>-[2-[(2-bromo-6-cyano-4-nitrophenyl)azo]-5-(diethylamino)phenyl]-;<em>N</em>-[2-[2-(2-Bromo-6-cyano-4-nitrophenyl)diazenyl]-5-(diethylamino)phenyl]propanamide;C.I. Disperse Blue 183;Foron Blue SE 2R;Tulasteron Fast Blue 2RC-N;Foron Blue SE 2RI;Rathilene Blue F 2R;Disperse Blue SE 2R;EX 236;Synten Blue P 2R;Disperse Blue 183;Lonsperse Disperse Blue RSE;Disperse Blue RSE;C.I. 11078;Terasil Blue P 2BR",
    "duplicated_cas_no": "119466-60-3;63172-45-2",
    "SMILES": "N(C(CC)=O)C1=C(N=NC2=C(C#N)C=C(N(=O)=O)C=C2Br)C=CC(N(CC)CC)=C1",
    "meta_data": {
        "InChI": "InChI=1S/C20H21BrN6O3/c1-4-19(28)23-18-11-14(26(5-2)6-3)7-8-17(18)24-25-20-13(12-22)9-15(27(29)30)10-16(20)21/h7-11H,4-6H2,1-3H3,(H,23,28)",
        "InChIKey": null,
        "Canonical SMILES": "N#CC1=CC(=CC(Br)=C1N=NC2=CC=C(C=C2NC(=O)CC)N(CC)CC)N(=O)=O",
        "Molecular Formula": "C<sub>20</sub>H<sub>21</sub>BrN<sub>6</sub>O<sub>3</sub>",
        "Molecular Mass": "473.32",
        "Melting Point": "183 °C"
    }
}