{
    "cas_no": "69716-05-8",
    "key_name": "6-Methoxy-3-benzofuranacetic acid",
    "cn_name": null,
    "alternate_name": "3-Benzofuranacetic acid, 6-methoxy-;6-Methoxy-3-benzofuranacetic acid;(6-Methoxybenzofuran-3-yl)acetic acid;2-(5-Methoxybenzofuran-1-yl)ethanoic acid;2-(6-Methoxy-1-benzofuran-3-yl) acetic acid;2-(6-Methoxybenzofuran-3-yl)acetic acid",
    "duplicated_cas_no": "",
    "SMILES": "C(C(O)=O)C=1C=2C(=CC(OC)=CC2)OC1",
    "meta_data": {
        "InChI": "InChI=1S/C11H10O4/c1-14-8-2-3-9-7(4-11(12)13)6-15-10(9)5-8/h2-3,5-6H,4H2,1H3,(H,12,13)",
        "InChIKey": null,
        "Canonical SMILES": "O=C(O)CC1=COC=2C=C(OC)C=CC21",
        "Molecular Formula": "C<sub>11</sub>H<sub>10</sub>O<sub>4</sub>",
        "Molecular Mass": "206.19",
        "Melting Point": "124.6-126.0 °C"
    }
}