{
    "cas_no": "1317-35-7",
    "key_name": "Manganese oxide (Mn<sub>3</sub>O<sub>4</sub>)",
    "cn_name": "四氧化三锰;黑锰矿;辉锰;",
    "alternate_name": "Manganese oxide (Mn<sub>3</sub>O<sub>4</sub>);Manganomanganic oxide;Trimanganese tetroxide;Trimanganese tetraoxide;Manganese oxide;M 34 (pigment);M 34;Manganese oxide (MnO<sub>4/3</sub>);Manganese tetraoxide;Brownox",
    "duplicated_cas_no": "339311-30-7;2149632-09-5;2398670-84-1",
    "SMILES": "",
    "meta_data": {
        "InChI": "",
        "InChIKey": null,
        "Canonical SMILES": "",
        "Molecular Formula": "Mn<sub>3</sub>O<sub>4</sub>",
        "Molecular Mass": "",
        "Melting Point": "1564 °C",
        "Density": "4.8 g/cm³"
    }
}