{
    "uri": "substance/pt/1317357",
    "rn": "1317-35-7",
    "name": "Manganese oxide (Mn<sub>3</sub>O<sub>4</sub>)",
    "images": [],
    "inchi": "",
    "inchiKey": "",
    "smile": "",
    "canonicalSmile": "",
    "molecularFormula": "Mn<sub>3</sub>O<sub>4</sub>",
    "molecularMass": "",
    "experimentalProperties": [
        {
            "name": "Melting Point",
            "property": "1564 °C",
            "sourceNumber": 1
        },
        {
            "name": "Density",
            "property": "4.8 g/cm³",
            "sourceNumber": 1
        }
    ],
    "propertyCitations": [
        {
            "docUri": "",
            "sourceNumber": 1,
            "source": "International Chemical Safety Cards data were obtained from the National Institute for Occupational Safety and Health (US)"
        }
    ],
    "synonyms": [
        "Manganese oxide (Mn<sub>3</sub>O<sub>4</sub>)",
        "Manganomanganic oxide",
        "Trimanganese tetroxide",
        "Trimanganese tetraoxide",
        "Manganese oxide",
        "M 34 (pigment)",
        "M 34",
        "Manganese oxide (MnO<sub>4/3</sub>)",
        "Manganese tetraoxide",
        "Brownox"
    ],
    "replacedRns": [
        "339311-30-7",
        "2149632-09-5",
        "2398670-84-1"
    ],
    "hasMolfile": false,
    "source": "https://commonchemistry.cas.org/detail?cas_rn=1317-35-7"
}