{
    "cas_no": "49742-56-5",
    "key_name": "[1,1′-Biphenyl]-4-carboxylic acid, 4′-methyl-, methyl ester",
    "cn_name": null,
    "alternate_name": "[1,1′-Biphenyl]-4-carboxylic acid, 4′-methyl-, methyl ester;Methyl 4′-methylbiphenyl-4-carboxylate;Methyl 4-(4-methylphenyl)benzoate;Methyl 4-(<em>p</em>-tolyl)benzoate;Methyl 4′-methyl-1,1′-biphenyl-4-carboxylate;4′-Methylbiphenyl-4-carboxylic acid methyl ester;4-Methoxycarbonyl-4′-methyl-1,1′-biphenyl",
    "duplicated_cas_no": "",
    "SMILES": "C(OC)(=O)C1=CC=C(C=C1)C2=CC=C(C)C=C2",
    "meta_data": {
        "InChI": "InChI=1S/C15H14O2/c1-11-3-5-12(6-4-11)13-7-9-14(10-8-13)15(16)17-2/h3-10H,1-2H3",
        "InChIKey": null,
        "Canonical SMILES": "O=C(OC)C=1C=CC(=CC1)C2=CC=C(C=C2)C",
        "Molecular Formula": "C<sub>15</sub>H<sub>14</sub>O<sub>2</sub>",
        "Molecular Mass": "226.27",
        "Melting Point": "115-116 °C"
    }
}