{
    "cas_no": "3445-11-2",
    "key_name": "1-(2-Hydroxyethyl)-2-pyrrolidinone",
    "cn_name": "N-羟乙基-2-吡咯烷酮;",
    "alternate_name": "2-Pyrrolidinone, 1-(2-hydroxyethyl)-;1-(2-Hydroxyethyl)-2-pyrrolidinone;<em>N</em>-(β-Hydroxyethyl)-2-pyrrolidinone;<em>N</em>-(2-Hydroxyethyl)-2-pyrrolidinone;1-(β-Hydroxyethyl)-2-pyrrolidone;1-(2-Hydroxyethyl)-2-pyrrolidone;<em>N</em>-(β-Hydroxyethyl)-2-pyrrolidone;<em>N</em>-(2-Hydroxyethyl)-2-pyrrolidone;<em>N</em>-(2-Hydroxyethyl)pyrrolidone;2-(2-Oxopyrrolidin-1-yl)ethanol;HEP;1-(2-Hydroxyethyl)-2-oxopyrrolidine;1-(2-Hydroxylethyl)-2-pyrrolidone;2-Hydroxyethylpyrrolidin-2-one",
    "duplicated_cas_no": "",
    "SMILES": "C(CO)N1C(=O)CCC1",
    "meta_data": {
        "InChI": "InChI=1S/C6H11NO2/c8-5-4-7-3-1-2-6(7)9/h8H,1-5H2",
        "InChIKey": null,
        "Canonical SMILES": "O=C1N(CCO)CCC1",
        "Molecular Formula": "C<sub>6</sub>H<sub>11</sub>NO<sub>2</sub>",
        "Molecular Mass": "129.16",
        "Boiling Point": "295 °C",
        "Melting Point": "20 °C",
        "Density": "1.1435 g/cm³ @ Temp: 20 °C"
    }
}