{
    "cas_no": "51411-04-2",
    "key_name": "Alrestatin",
    "cn_name": "阿司他丁;阿瑞司他丁;",
    "alternate_name": "1<em>H</em>-Benz[<em>de</em>]isoquinoline-2(3<em>H</em>)-acetic acid, 1,3-dioxo-;1,3-Dioxo-1<em>H</em>-benz[<em>de</em>]isoquinoline-2(3<em>H</em>)-acetic acid;AY 22284;Alrestatin;HIC 016G;[1,3-Dioxo-1<em>H</em>,3<em>H</em>-benz[<em>de</em>]isoquinolin-2-yl]acetic acid;NSC 299132;(1,3-Dioxo-1<em>H</em>-benzo[<em>de</em>]isoquinolin-2(3<em>H</em>)-yl)acetic acid;2-(1,3-Dioxobenzo[<em>de</em>]isoquinolin-2-yl)acetic acid",
    "duplicated_cas_no": "",
    "SMILES": "O=C1C=2C=3C(C(=O)N1CC(O)=O)=CC=CC3C=CC2",
    "meta_data": {
        "InChI": "InChI=1S/C14H9NO4/c16-11(17)7-15-13(18)9-5-1-3-8-4-2-6-10(12(8)9)14(15)19/h1-6H,7H2,(H,16,17)",
        "InChIKey": null,
        "Canonical SMILES": "O=C(O)CN1C(=O)C=2C=CC=C3C=CC=C(C1=O)C32",
        "Molecular Formula": "C<sub>14</sub>H<sub>9</sub>NO<sub>4</sub>",
        "Molecular Mass": "255.23",
        "Melting Point": "266-267 °C"
    }
}