{
    "cas_no": "5874-61-3",
    "key_name": "2-Phenyl-4-(phenylmethyl)-5(4<em>H</em>)-oxazolone",
    "cn_name": null,
    "alternate_name": "5(4<em>H</em>)-Oxazolone, 2-phenyl-4-(phenylmethyl)-;2-Oxazolin-5-one, 4-benzyl-2-phenyl-, <span class=\"text-smallcaps\">L</span>-;2-Oxazolin-5-one, 4-benzyl-2-phenyl-;2-Phenyl-4-(phenylmethyl)-5(4<em>H</em>)-oxazolone;4-Benzyl-2-phenyloxazol-5(4<em>H</em>)-one;(±)-2-Phenyl-4-benzyl-5(4<em>H</em>)-oxazolone",
    "duplicated_cas_no": "6436-89-1;51127-19-6",
    "SMILES": "C(C1N=C(OC1=O)C2=CC=CC=C2)C3=CC=CC=C3",
    "meta_data": {
        "InChI": "InChI=1S/C16H13NO2/c18-16-14(11-12-7-3-1-4-8-12)17-15(19-16)13-9-5-2-6-10-13/h1-10,14H,11H2",
        "InChIKey": null,
        "Canonical SMILES": "O=C1OC(=NC1CC=2C=CC=CC2)C=3C=CC=CC3",
        "Molecular Formula": "C<sub>16</sub>H<sub>13</sub>NO<sub>2</sub>",
        "Molecular Mass": "251.28",
        "Melting Point": "67-68 °C"
    }
}