{
    "cas_no": "136239-66-2",
    "key_name": "1-Butoxy-2,3-difluorobenzene",
    "cn_name": null,
    "alternate_name": "Benzene, 1-butoxy-2,3-difluoro-;1-Butoxy-2,3-difluorobenzene;3-Butoxy-1,2-difluorobenzene",
    "duplicated_cas_no": "",
    "SMILES": "O(CCCC)C1=C(F)C(F)=CC=C1",
    "meta_data": {
        "InChI": "InChI=1S/C10H12F2O/c1-2-3-7-13-9-6-4-5-8(11)10(9)12/h4-6H,2-3,7H2,1H3",
        "InChIKey": null,
        "Canonical SMILES": "FC1=CC=CC(OCCCC)=C1F",
        "Molecular Formula": "C<sub>10</sub>H<sub>12</sub>F<sub>2</sub>O",
        "Molecular Mass": "186.20",
        "Boiling Point": "54-56 °C @ Press: 1.0 Torr"
    }
}