{
    "cas_no": "4419-94-7",
    "key_name": "<em>p</em>-Nitrophenyl β-<span class=\"text-smallcaps\">D</span>-lactoside",
    "cn_name": null,
    "alternate_name": "β-<span class=\"text-smallcaps\">D</smallcap>-Glucopyranoside, 4-nitrophenyl 4-<em>O</em>-β-<smallcap>D</span>-galactopyranosyl-;Lactoside, <em>p</em>-nitrophenyl, β-<span class=\"text-smallcaps\">D</span>-;4-Nitrophenyl 4-<em>O</em>-β-<span class=\"text-smallcaps\">D</smallcap>-galactopyranosyl-β-<smallcap>D</span>-glucopyranoside;4-Nitrophenyl β-lactoside;<em>p</em>-Nitrophenyl β-<span class=\"text-smallcaps\">D</span>-lactoside;<em>p</em>-Nitrophenyl-β-lactoside",
    "duplicated_cas_no": "459218-64-5;906328-18-5;1195204-56-8",
    "SMILES": "O([C@@H]1[C@@H](CO)O[C@@H](OC2=CC=C(N(=O)=O)C=C2)[C@H](O)[C@H]1O)[C@@H]3O[C@H](CO)[C@H](O)[C@H](O)[C@H]3O",
    "meta_data": {
        "InChI": "InChI=1S/C18H25NO13/c20-5-9-11(22)12(23)14(25)18(30-9)32-16-10(6-21)31-17(15(26)13(16)24)29-8-3-1-7(2-4-8)19(27)28/h1-4,9-18,20-26H,5-6H2/t9-,10-,11+,12+,13-,14-,15-,16-,17-,18+/m1/s1",
        "InChIKey": null,
        "Canonical SMILES": "O=N(=O)C1=CC=C(OC2OC(CO)C(OC3OC(CO)C(O)C(O)C3O)C(O)C2O)C=C1",
        "Molecular Formula": "C<sub>18</sub>H<sub>25</sub>NO<sub>13</sub>",
        "Molecular Mass": "463.39",
        "Melting Point": "258-260 °C (decomp)"
    }
}