{
    "cas_no": "4371-91-9",
    "key_name": "Silicic acid (H<sub>6</sub>Si<sub>2</sub>O<sub>7</sub>), hexamethyl ester",
    "cn_name": "二原硅酸六甲酯;",
    "alternate_name": "Silicic acid (H<sub>6</sub>Si<sub>2</sub>O<sub>7</sub>), hexamethyl ester;Methyl silicate ((MeO)<sub>6</sub>Si<sub>2</sub>O);Hexamethoxydisiloxane;Hexamethyl disilicate;Bistrimethoxysiloxane",
    "duplicated_cas_no": "",
    "SMILES": "[Si](O[Si](OC)(OC)OC)(OC)(OC)OC",
    "meta_data": {
        "InChI": "InChI=1S/C6H18O7Si2/c1-7-14(8-2,9-3)13-15(10-4,11-5)12-6/h1-6H3",
        "InChIKey": null,
        "Canonical SMILES": "O(C)[Si](OC)(OC)O[Si](OC)(OC)OC",
        "Molecular Formula": "C<sub>6</sub>H<sub>18</sub>O<sub>7</sub>Si<sub>2</sub>",
        "Molecular Mass": "258.37",
        "Boiling Point": "73 °C @ Press: 3 Torr",
        "Density": "1.1222 g/cm³ @ Temp: 20 °C"
    }
}