{
    "cas_no": "3312-04-7",
    "key_name": "4,4-Bis(4-fluorophenyl)-1-chlorobutane",
    "cn_name": "4,4,-二(4-氟苯)氯丁烷;",
    "alternate_name": "Benzene, 1,1′-(4-chlorobutylidene)bis[4-fluoro-;Butane, 4-chloro-1,1-bis(<em>p</em>-fluorophenyl)-;1,1′-(4-Chlorobutylidene)bis[4-fluorobenzene];1,1-Bis(<em>p</em>-fluorophenyl)-4-chlorobutane;4-Chloro-1,1-bis(4-fluorophenyl)butane;1-Chloro-4,4-bis(4-fluorophenyl)butane;4-Chloro-1,1-bis(<em>p</em>-fluorophenyl)butane;4,4-Bis(4-fluorophenyl)butyl chloride;4,4-Bis(4-fluorophenyl)-1-chlorobutane;4,4′-(4-chlorobutane-1,1-diyl)bis(fluorobenzene);1,1′-(4-chlorobutane-1,1-diyl)bis(4-fluorobenzene);1-[4-Chloro-1-(4-fluorophenyl)butyl]-4-fluorobenzene",
    "duplicated_cas_no": "",
    "SMILES": "C(CCCCl)(C1=CC=C(F)C=C1)C2=CC=C(F)C=C2",
    "meta_data": {
        "InChI": "InChI=1S/C16H15ClF2/c17-11-1-2-16(12-3-7-14(18)8-4-12)13-5-9-15(19)10-6-13/h3-10,16H,1-2,11H2",
        "InChIKey": null,
        "Canonical SMILES": "FC1=CC=C(C=C1)C(C2=CC=C(F)C=C2)CCCCl",
        "Molecular Formula": "C<sub>16</sub>H<sub>15</sub>ClF<sub>2</sub>",
        "Molecular Mass": "280.74",
        "Boiling Point": "166-168 °C @ Press: 6 Torr",
        "Density": "1.2039 g/cm³ @ Temp: 20 °C"
    }
}