{
    "cas_no": "128-97-2",
    "key_name": "1,4,5,8-Naphthalenetetracarboxylic acid",
    "cn_name": "1,4,5,8-萘四甲酸;",
    "alternate_name": "1,4,5,8-Naphthalenetetracarboxylic acid;Tetra acid;1,4,5,8-Tetracarboxynaphthalene;NSC 66207",
    "duplicated_cas_no": "",
    "SMILES": "C(O)(=O)C=1C2=C(C(C(O)=O)=CC=C2C(O)=O)C(C(O)=O)=CC1",
    "meta_data": {
        "InChI": "InChI=1S/C14H8O8/c15-11(16)5-1-2-6(12(17)18)10-8(14(21)22)4-3-7(9(5)10)13(19)20/h1-4H,(H,15,16)(H,17,18)(H,19,20)(H,21,22)",
        "InChIKey": null,
        "Canonical SMILES": "O=C(O)C1=CC=C(C(=O)O)C=2C(=CC=C(C(=O)O)C12)C(=O)O",
        "Molecular Formula": "C<sub>14</sub>H<sub>8</sub>O<sub>8</sub>",
        "Molecular Mass": "304.21",
        "Melting Point": "180 °C"
    }
}