{
    "cas_no": "64063-37-2",
    "key_name": "2,6-Dichloro-3-methylaniline",
    "cn_name": null,
    "alternate_name": "Benzenamine, 2,6-dichloro-3-methyl-;2,6-Dichloro-3-methylbenzenamine;2,6-Dichloro-3-methylaniline;2,6-Dichloro-3-methylphenylamine",
    "duplicated_cas_no": "",
    "SMILES": "ClC1=C(N)C(Cl)=CC=C1C",
    "meta_data": {
        "InChI": "InChI=1S/C7H7Cl2N/c1-4-2-3-5(8)7(10)6(4)9/h2-3H,10H2,1H3",
        "InChIKey": null,
        "Canonical SMILES": "ClC1=CC=C(C(Cl)=C1N)C",
        "Molecular Formula": "C<sub>7</sub>H<sub>7</sub>Cl<sub>2</sub>N",
        "Molecular Mass": "176.04",
        "Melting Point": "37-38 °C",
        "Density": "1.334 g/cm³ @ Temp: 20 °C"
    }
}