{
    "cas_no": "7440-23-5",
    "key_name": "Sodium",
    "cn_name": "钠;金属钠;",
    "alternate_name": "Sodium;Sodium metal;Sodium-23;Sodium atom;Atomic sodium;Natrium;sodium;MeSH ID: D012964",
    "duplicated_cas_no": "351903-26-9;184637-88-5;213530-35-9;1061193-24-5",
    "SMILES": "[Na]",
    "meta_data": {
        "InChI": "InChI=1S/Na",
        "InChIKey": null,
        "Canonical SMILES": "[Na]",
        "Molecular Formula": "Na",
        "Molecular Mass": "",
        "Boiling Point": "881.4 °C",
        "Melting Point": "97.82 °C",
        "Density": "0.968 g/cm³ @ Temp: 20 °C"
    }
}