{
    "cas_no": "5361-54-6",
    "key_name": "4-(Phenylsulfonyl)benzoic acid",
    "cn_name": "4-苯磺酰苯甲酸;",
    "alternate_name": "Benzoic acid, 4-(phenylsulfonyl)-;Benzoic acid, <em>p</em>-(phenylsulfonyl)-;4-(Phenylsulfonyl)benzoic acid;<em>p</em>-(Phenylsulfonyl)benzoic acid;<em>p</em>-Carboxyphenyl phenyl sulfone;4-Carboxydiphenyl sulfone;NSC 3667;NSC 91053",
    "duplicated_cas_no": "",
    "SMILES": "S(=O)(=O)(C1=CC=C(C(O)=O)C=C1)C2=CC=CC=C2",
    "meta_data": {
        "InChI": "InChI=1S/C13H10O4S/c14-13(15)10-6-8-12(9-7-10)18(16,17)11-4-2-1-3-5-11/h1-9H,(H,14,15)",
        "InChIKey": null,
        "Canonical SMILES": "O=C(O)C1=CC=C(C=C1)S(=O)(=O)C=2C=CC=CC2",
        "Molecular Formula": "C<sub>13</sub>H<sub>10</sub>O<sub>4</sub>S",
        "Molecular Mass": "262.28",
        "Melting Point": "266-268 °C"
    }
}