{
    "cas_no": "66532-86-3",
    "key_name": "Glycine, <em>N</em>,<em>N</em>-diethyl-, 4-(acetylamino)phenyl ester, hydrochloride (1:1)",
    "cn_name": "盐酸丙帕他莫;4-(乙酰氨基)苯基N,N-二乙基甘氨酸酯盐酸盐;",
    "alternate_name": "Glycine, <em>N</em>,<em>N</em>-diethyl-, 4-(acetylamino)phenyl ester, hydrochloride (1:1);Glycine, <em>N</em>,<em>N</em>-diethyl-, 4-(acetylamino)phenyl ester, monohydrochloride;Propacetamol hydrochloride;UP 34101;Pro-Dafalgan;Pro-efferalgan",
    "duplicated_cas_no": "",
    "SMILES": "O(C(CN(CC)CC)=O)C1=CC=C(NC(C)=O)C=C1.Cl",
    "meta_data": {
        "InChI": "InChI=1S/C14H20N2O3.ClH/c1-4-16(5-2)10-14(18)19-13-8-6-12(7-9-13)15-11(3)17;/h6-9H,4-5,10H2,1-3H3,(H,15,17);1H",
        "InChIKey": null,
        "Canonical SMILES": "Cl.O=C(OC1=CC=C(C=C1)NC(=O)C)CN(CC)CC",
        "Molecular Formula": "C<sub>14</sub>H<sub>20</sub>N<sub>2</sub>O<sub>3</sub>.ClH",
        "Molecular Mass": "",
        "Melting Point": "228 °C"
    }
}