{
    "cas_no": "599-61-1",
    "key_name": "3,3′-Diaminodiphenyl sulfone",
    "cn_name": "3,3\"-二氨基二苯砜;",
    "alternate_name": "Benzenamine, 3,3′-sulfonylbis-;Aniline, 3,3′-sulfonyldi-;3,3′-Sulfonylbis[benzenamine];3,3′-Diaminodiphenyl sulfone;Bis(<em>m</em>-aminophenyl) sulfone;3,3′-Diaminophenyl sulfone;Bis(3-aminophenyl) sulfone;3,3′-Sulfonyldianiline;3,3′-Sulfonylbis(aniline);DAS (crosslinking agent);DAS;HT 9719;C 600 (hardener);C 600;NSC 20610;Aradur 9719-1;3,3′-DDS;3,3′-DAS;Omicure 33DDS;C 10;C 10 (hardener);Aradur 9771-1",
    "duplicated_cas_no": "",
    "SMILES": "S(=O)(=O)(C1=CC(N)=CC=C1)C2=CC(N)=CC=C2",
    "meta_data": {
        "InChI": "InChI=1S/C12H12N2O2S/c13-9-3-1-5-11(7-9)17(15,16)12-6-2-4-10(14)8-12/h1-8H,13-14H2",
        "InChIKey": null,
        "Canonical SMILES": "O=S(=O)(C=1C=CC=C(N)C1)C=2C=CC=C(N)C2",
        "Molecular Formula": "C<sub>12</sub>H<sub>12</sub>N<sub>2</sub>O<sub>2</sub>S",
        "Molecular Mass": "248.30",
        "Melting Point": "168-169 °C"
    }
}