{
    "cas_no": "189089-91-6",
    "key_name": "1-(Phenylsulfonyl)-1<em>H</em>-pyrrolo[2,3-<em>b</em>]pyridine-2-carboxaldehyde",
    "cn_name": null,
    "alternate_name": "1<em>H</em>-Pyrrolo[2,3-<em>b</em>]pyridine-2-carboxaldehyde, 1-(phenylsulfonyl)-;1-(Phenylsulfonyl)-1<em>H</em>-pyrrolo[2,3-<em>b</em>]pyridine-2-carboxaldehyde;1-(Benzenesulfonyl)pyrrolo[2,3-<em>b</em>]pyridine-2-carbaldehyde;1-(Phenylsulfonyl)-1<em>H</em>-pyrrolo[2,3-<em>b</em>]pyridine-2-carbaldehyde",
    "duplicated_cas_no": "",
    "SMILES": "S(=O)(=O)(N1C=2C(C=C1C=O)=CC=CN2)C3=CC=CC=C3",
    "meta_data": {
        "InChI": "InChI=1S/C14H10N2O3S/c17-10-12-9-11-5-4-8-15-14(11)16(12)20(18,19)13-6-2-1-3-7-13/h1-10H",
        "InChIKey": null,
        "Canonical SMILES": "O=CC1=CC=2C=CC=NC2N1S(=O)(=O)C=3C=CC=CC3",
        "Molecular Formula": "C<sub>14</sub>H<sub>10</sub>N<sub>2</sub>O<sub>3</sub>S",
        "Molecular Mass": "286.31",
        "Melting Point": "140-145 °C"
    }
}