{
    "cas_no": "19984-46-4",
    "key_name": "1-(1-Adamantyl)piperazine",
    "cn_name": null,
    "alternate_name": "Piperazine, 1-tricyclo[3.3.1.1<sup>3,7</sup>]dec-1-yl-;Piperazine, 1-(1-adamantyl)-;1-Tricyclo[3.3.1.1<sup>3,7</sup>]dec-1-ylpiperazine;1-(1-Adamantyl)piperazine;<em>N</em>-1-Adamantylpiperazine;1-(<em>N</em>-Piperazino)adamantane;1-(Adamantan-1-yl)piperazine",
    "duplicated_cas_no": "",
    "SMILES": "C12(CC3CC(C1)CC(C2)C3)N4CCNCC4",
    "meta_data": {
        "InChI": "InChI=1S/C14H24N2/c1-3-16(4-2-15-1)14-8-11-5-12(9-14)7-13(6-11)10-14/h11-13,15H,1-10H2",
        "InChIKey": null,
        "Canonical SMILES": "N1CCN(CC1)C23CC4CC(CC(C4)C2)C3",
        "Molecular Formula": "C<sub>14</sub>H<sub>24</sub>N<sub>2</sub>",
        "Molecular Mass": "220.35",
        "Boiling Point": "148-150 °C",
        "Melting Point": "83-85 °C (sublm)"
    }
}