{
    "cas_no": "502-69-2",
    "key_name": "6,10,14-Trimethyl-2-pentadecanone",
    "cn_name": "6,10,14-三甲基-2-十五烷酮;6,10,14-三甲基-2-十五烷酮;6,10,14-三甲基-十五烷-2-酮;植酮;",
    "alternate_name": "2-Pentadecanone, 6,10,14-trimethyl-;6,10,14-Trimethyl-2-pentadecanone;Hexahydrofarnesyl acetone;Perhydrofarnesyl acetone;(±)-Phytone;6,10,14-Trimethylpentadecan-2-one",
    "duplicated_cas_no": "13955-74-3",
    "SMILES": "C(CCCC(CCCC(C)=O)C)(CCCC(C)C)C",
    "meta_data": {
        "InChI": "InChI=1S/C18H36O/c1-15(2)9-6-10-16(3)11-7-12-17(4)13-8-14-18(5)19/h15-17H,6-14H2,1-5H3",
        "InChIKey": null,
        "Canonical SMILES": "O=C(C)CCCC(C)CCCC(C)CCCC(C)C",
        "Molecular Formula": "C<sub>18</sub>H<sub>36</sub>O",
        "Molecular Mass": "268.48",
        "Boiling Point": "142-143 °C @ Press: 3 Torr",
        "Melting Point": "129-136 °C",
        "Density": "0.8403 g/cm³ @ Temp: 19 °C"
    }
}