{
    "cas_no": "15986-80-8",
    "key_name": "2-Methyl-3-propylpyrazine",
    "cn_name": "2-甲基-3-丙基吡嗪;2-甲基-3-丙基吡嗪;2-甲基-3-正丙基哌嗪;2-甲基-3-正丙基吡嗪;2-甲基-3-正丙基哌嗪,99%;",
    "alternate_name": "Pyrazine, 2-methyl-3-propyl-;2-Methyl-3-propylpyrazine;3-Propyl-2-methylpyrazine;2-Propyl-3-methylpyrazine",
    "duplicated_cas_no": "",
    "SMILES": "C(CC)C=1C(C)=NC=CN1",
    "meta_data": {
        "InChI": "InChI=1S/C8H12N2/c1-3-4-8-7(2)9-5-6-10-8/h5-6H,3-4H2,1-2H3",
        "InChIKey": null,
        "Canonical SMILES": "N=1C=CN=C(C1C)CCC",
        "Molecular Formula": "C<sub>8</sub>H<sub>12</sub>N<sub>2</sub>",
        "Molecular Mass": "136.19",
        "Boiling Point": "189 °C"
    }
}