{
    "cas_no": "776-76-1",
    "key_name": "Methyldiphenylsilane",
    "cn_name": "二苯基甲基硅烷;",
    "alternate_name": "Benzene, 1,1′-(methylsilylene)bis-;Silane, methyldiphenyl-;1,1′-(Methylsilylene)bis[benzene];Diphenylmethylsilane;Methyldiphenylsilane;NSC 111638;SID 4555.0;LS 4880",
    "duplicated_cas_no": "",
    "SMILES": "[SiH](C)(C1=CC=CC=C1)C2=CC=CC=C2",
    "meta_data": {
        "InChI": "InChI=1S/C13H14Si/c1-14(12-8-4-2-5-9-12)13-10-6-3-7-11-13/h2-11,14H,1H3",
        "InChIKey": null,
        "Canonical SMILES": "C=1C=CC(=CC1)[SiH](C=2C=CC=CC2)C",
        "Molecular Formula": "C<sub>13</sub>H<sub>14</sub>Si",
        "Molecular Mass": "198.34",
        "Boiling Point": "266-267 °C",
        "Density": "0.997 g/cm³"
    }
}