{
    "cas_no": "37951-49-8",
    "key_name": "3′-Methoxypropiophenone",
    "cn_name": "间甲氧基苯丙酮;",
    "alternate_name": "1-Propanone, 1-(3-methoxyphenyl)-;1-(3-Methoxyphenyl)-1-propanone;3′-Methoxypropiophenone;<em>m</em>-Methoxypropiophenone;3-Methoxyphenyl ethyl ketone",
    "duplicated_cas_no": "",
    "SMILES": "C(CC)(=O)C1=CC(OC)=CC=C1",
    "meta_data": {
        "InChI": "InChI=1S/C10H12O2/c1-3-10(11)8-5-4-6-9(7-8)12-2/h4-7H,3H2,1-2H3",
        "InChIKey": null,
        "Canonical SMILES": "O=C(C=1C=CC=C(OC)C1)CC",
        "Molecular Formula": "C<sub>10</sub>H<sub>12</sub>O<sub>2</sub>",
        "Molecular Mass": "164.20",
        "Boiling Point": "259 °C"
    }
}