{
    "cas_no": "396-30-5",
    "key_name": "6-Fluoroquinoline",
    "cn_name": null,
    "alternate_name": "Quinoline, 6-fluoro-;6-Fluoroquinoline",
    "duplicated_cas_no": "",
    "SMILES": "FC1=CC2=C(C=C1)N=CC=C2",
    "meta_data": {
        "InChI": "InChI=1S/C9H6FN/c10-8-3-4-9-7(6-8)2-1-5-11-9/h1-6H",
        "InChIKey": null,
        "Canonical SMILES": "FC=1C=CC2=NC=CC=C2C1",
        "Molecular Formula": "C<sub>9</sub>H<sub>6</sub>FN",
        "Molecular Mass": "147.15",
        "Boiling Point": "124 °C @ Press: 30 Torr",
        "Density": "1.200 g/cm³ @ Temp: 25 °C"
    }
}