{
    "cas_no": "110221-53-9",
    "key_name": "Temocaprilat",
    "cn_name": "替莫普利;[(2S,6R)-6-[[(S)-1-(乙氧羰基)-3-苯基丙基]氨基]-5-氧代-2-(2-噻吩基)-1,4-硫氮杂卓-4-基]乙酸;",
    "alternate_name": "1,4-Thiazepine-4(5<em>H</em>)-acetic acid, 6-[[(1<em>S</em>)-1-carboxy-3-phenylpropyl]amino]tetrahydro-5-oxo-2-(2-thienyl)-, (2<em>S</em>,6<em>R</em>)-;1,4-Thiazepine-4(5<em>H</em>)-acetic acid, 6-[(1-carboxy-3-phenylpropyl)amino]tetrahydro-5-oxo-2-(2-thienyl)-, [2<em>S</em>-[2α,6β(<em>R</em>*)]]-;(2<em>S</em>,6<em>R</em>)-6-[[(1<em>S</em>)-1-Carboxy-3-phenylpropyl]amino]tetrahydro-5-oxo-2-(2-thienyl)-1,4-thiazepine-4(5<em>H</em>)-acetic acid;RS 5139;Temocapril diacid;Temocaprilat;Temocaprilate",
    "duplicated_cas_no": "",
    "SMILES": "C(C(O)=O)N1C[C@H](SC[C@H](N[C@@H](CCC2=CC=CC=C2)C(O)=O)C1=O)C3=CC=CS3",
    "meta_data": {
        "InChI": "InChI=1S/C21H24N2O5S2/c24-19(25)12-23-11-18(17-7-4-10-29-17)30-13-16(20(23)26)22-15(21(27)28)9-8-14-5-2-1-3-6-14/h1-7,10,15-16,18,22H,8-9,11-13H2,(H,24,25)(H,27,28)/t15-,16-,18-/m0/s1",
        "InChIKey": null,
        "Canonical SMILES": "O=C(O)CN1C(=O)C(NC(C(=O)O)CCC=2C=CC=CC2)CSC(C=3SC=CC3)C1",
        "Molecular Formula": "C<sub>21</sub>H<sub>24</sub>N<sub>2</sub>O<sub>5</sub>S<sub>2</sub>",
        "Molecular Mass": "448.56",
        "Melting Point": "246 °C (decomp)"
    }
}