{
    "cas_no": "31938-07-5",
    "key_name": "(3-Bromophenyl)acetonitrile",
    "cn_name": "3-溴氰苄;3-溴苯乙腈;间溴氰苄;间溴苯乙腈;",
    "alternate_name": "Benzeneacetonitrile, 3-bromo-;Acetonitrile, (<em>m</em>-bromophenyl)-;3-Bromobenzeneacetonitrile;<em>m</em>-Bromobenzyl cyanide;(3-Bromophenyl)acetonitrile;3-Bromobenzyl cyanide;1-Bromo-3-cyanomethylbenzene;3-Bromobenzylnitrile;2-(3-Bromophenyl)acetonitrile",
    "duplicated_cas_no": "",
    "SMILES": "C(C#N)C1=CC(Br)=CC=C1",
    "meta_data": {
        "InChI": "InChI=1S/C8H6BrN/c9-8-3-1-2-7(6-8)4-5-10/h1-3,6H,4H2",
        "InChIKey": null,
        "Canonical SMILES": "N#CCC=1C=CC=C(Br)C1",
        "Molecular Formula": "C<sub>8</sub>H<sub>6</sub>BrN",
        "Molecular Mass": "196.04",
        "Boiling Point": "135-138 °C @ Press: 8 Torr"
    }
}