{
    "cas_no": "6265-74-3",
    "key_name": "<em>N</em>-(2-Hydroxyethyl)isonicotinamide",
    "cn_name": null,
    "alternate_name": "4-Pyridinecarboxamide, <em>N</em>-(2-hydroxyethyl)-;Isonicotinamide, <em>N</em>-(2-hydroxyethyl)-;<em>N</em>-(2-Hydroxyethyl)-4-pyridinecarboxamide;<em>N</em>-Hydroxyethylisonicotinamide;4-(2-Hydroxyethyl)carbamoylpyridine;NSC 33143;<em>N</em>-(2-Hydroxyethyl)isonicotinamide",
    "duplicated_cas_no": "",
    "SMILES": "C(NCCO)(=O)C=1C=CN=CC1",
    "meta_data": {
        "InChI": "InChI=1S/C8H10N2O2/c11-6-5-10-8(12)7-1-3-9-4-2-7/h1-4,11H,5-6H2,(H,10,12)",
        "InChIKey": null,
        "Canonical SMILES": "O=C(NCCO)C=1C=CN=CC1",
        "Molecular Formula": "C<sub>8</sub>H<sub>10</sub>N<sub>2</sub>O<sub>2</sub>",
        "Molecular Mass": "166.18",
        "Melting Point": "133-134 °C"
    }
}