{
    "cas_no": "37920-25-5",
    "key_name": "1-(4-Butylphenyl)ethanone",
    "cn_name": "4\"-丁基苯乙酮;对丁基苯乙酮;",
    "alternate_name": "Ethanone, 1-(4-butylphenyl)-;Acetophenone, 4′-butyl-;1-(4-Butylphenyl)ethanone;<em>p</em>-Butylacetophenone;4′-Butylacetophenone;4-<em>n</em>-Butylacetophenone;1-(4-Butylphenyl)ethan-1-one",
    "duplicated_cas_no": "",
    "SMILES": "C(C)(=O)C1=CC=C(CCCC)C=C1",
    "meta_data": {
        "InChI": "InChI=1S/C12H16O/c1-3-4-5-11-6-8-12(9-7-11)10(2)13/h6-9H,3-5H2,1-2H3",
        "InChIKey": null,
        "Canonical SMILES": "O=C(C1=CC=C(C=C1)CCCC)C",
        "Molecular Formula": "C<sub>12</sub>H<sub>16</sub>O",
        "Molecular Mass": "176.25",
        "Boiling Point": "268-270 °C @ Press: 766 Torr",
        "Density": "0.9862 g/cm³ @ Temp: 20 °C"
    }
}