{
    "cas_no": "109806-71-5",
    "key_name": "2-[4-[(4-Chlorophenyl)phenylmethyl]piperazin-1-yl]ethanol",
    "cn_name": null,
    "alternate_name": "1-Piperazineethanol, 4-[(4-chlorophenyl)phenylmethyl]-;1-Piperazineethanol, 4-(<em>p</em>-chloro-α-phenylbenzyl)-;4-[(4-Chlorophenyl)phenylmethyl]-1-piperazineethanol;2-[4-[(4-Chlorophenyl)phenylmethyl]piperazin-1-yl]ethanol",
    "duplicated_cas_no": "",
    "SMILES": "C(N1CCN(CCO)CC1)(C2=CC=C(Cl)C=C2)C3=CC=CC=C3",
    "meta_data": {
        "InChI": "InChI=1S/C19H23ClN2O/c20-18-8-6-17(7-9-18)19(16-4-2-1-3-5-16)22-12-10-21(11-13-22)14-15-23/h1-9,19,23H,10-15H2",
        "InChIKey": null,
        "Canonical SMILES": "ClC1=CC=C(C=C1)C(C=2C=CC=CC2)N3CCN(CCO)CC3",
        "Molecular Formula": "C<sub>19</sub>H<sub>23</sub>ClN<sub>2</sub>O",
        "Molecular Mass": "330.85",
        "Boiling Point": "205-208 °C @ Press: 0.1 Torr"
    }
}