{
    "cas_no": "822-16-2",
    "key_name": "Sodium stearate",
    "cn_name": "硬酯酸钠;十八酸钠盐;",
    "alternate_name": "Octadecanoic acid, sodium salt (1:1);Stearic acid, sodium salt;Octadecanoic acid, sodium salt;Flexichem B;Prodhygine;Sodium stearate;Sodium octadecanoate;Bonderlube 235;AFCO-Chem B 65;Nonsoul SN 1;SS 40N;C-Lube 10;Serfax MT 90;Edenor FHTI;SNA 2000;AFCO-Chem NA;SK 1;Nonsoul SN 15;Bonderlube 234;Rhenogran NAST 50ACMF-GE1858;SN 1;Daiwax NA;C 18-98/100MY, sodium salt;Ligastar NA-R/D;Nonsoul SN 1W1;SS 100;Palmstar NAV-PC;Stearic acid 300",
    "duplicated_cas_no": "",
    "SMILES": "C(CCCCCCCCCCC)CCCCCC(O)=O.[Na]",
    "meta_data": {
        "InChI": "InChI=1S/C18H36O2.Na/c1-2-3-4-5-6-7-8-9-10-11-12-13-14-15-16-17-18(19)20;/h2-17H2,1H3,(H,19,20);",
        "InChIKey": null,
        "Canonical SMILES": "[Na].O=C(O)CCCCCCCCCCCCCCCCC",
        "Molecular Formula": "C<sub>18</sub>H<sub>36</sub>O<sub>2</sub>.Na",
        "Molecular Mass": "",
        "Melting Point": "270 °C",
        "Density": "1.07 g/cm³"
    }
}