{
    "cas_no": "2809-21-4",
    "key_name": "(1-Hydroxyethylidene)-1,1-diphosphonic acid",
    "cn_name": null,
    "alternate_name": "Phosphonic acid, <em>P</em>,<em>P</em>′-(1-hydroxyethylidene)bis-;Phosphonic acid, (1-hydroxyethylidene)di-;Phosphonic acid, (1-hydroxyethylidene)bis-;<em>P</em>,<em>P</em>′-(1-Hydroxyethylidene)bis[phosphonic acid];1-Hydroxyethane-1,1-diphosphonic acid;Etidronic acid;Ethane-1-hydroxy-1,1-diphosphonic acid;(1-Hydroxyethylidene)diphosphonic acid;Dequest Z 010;(1-Hydroxyethylidene)-1,1-diphosphonic acid;1000SL;Oxyethylidenediphosphonic acid;Hydroxyethanediphosphonic acid;1-Hydroxyethanediphosphonic acid;EHDP;Dequest 2010;1-Hydroxy-1,1-diphosphonoethane;Dequest 2015;HEDP;(1-Hydroxyethylidene)bisphosphonic acid;Turpinal SL;1-Hydroxyethane-1,1-bisphosphonic acid;Ferrofos 510;(1-Hydroxyethylidene)-1,1-bis(phosphonic acid);Feliox 115;Wayplex;Xydiphone;Lonza 106;Tecquest 360;OEDF;OEDP;Xidiphone;Ksidifon;Defloc EH 06;Mayoquest 1500;HDEPA;Turpinal SLR;Masquol P 210;Terpil SL;RP 61;Cublen K 60;Dequest 2010CS;1-Hydroxyethane-1,1-diyldiphosphonic acid;Sone 16;Dequest 16;Briquest ADPA 60A;Acetodiphosphonic acid;Unihib 106;Anti Cal 5;Sequion 10H;1-Hydroxyethylidene-1,1′-diphosphonic acid;Mascol P 210;NSC 227995;Belclene 660;Feliox CY 115;Chelate 101;OEDFK;1-Hydroxyethylidene-1,1-diphosphoric acid;Briquest ADPA-A;Acidum etidronicum;Ethydronate;Ethidronate;Etidronate;Dequest 2010LA;Feliox 115A;Xidifon;Kochtreat 75;Chelest PH 210L;Dequest D 2010;Dequest 2010R;1-Hydroxyethylidene-1,1-diphoshonic acid;Aquacid 105EX;Aquacid 105CG;Aquacid 105EXSP;Aquacid 105EXLC;Aquacid 105NS;Aquacid 105;H 501;H 501 (corrosion inhibitor);Belclene 660LA;Dequest 2010EG;1-Hydroxyethyl-1,1-diphosphoric acid;Dequest LC 2010;Codex 661;1-Hydroxyethane-1,2-diphosphonic acid;Cublen K 8514G;Dequest 2010EL;Polyphoscor",
    "duplicated_cas_no": "51888-66-5;66216-98-6;83047-25-0;85188-80-3;85985-26-8;86159-18-4;100511-44-2;103736-66-9;106908-76-3;129130-42-3;138360-84-6;192526-55-9;303177-33-5;853028-38-3",
    "SMILES": "C(P(=O)(O)O)(P(=O)(O)O)(C)O",
    "meta_data": {
        "InChI": "InChI=1S/C2H8O7P2/c1-2(3,10(4,5)6)11(7,8)9/h3H,1H3,(H2,4,5,6)(H2,7,8,9)",
        "InChIKey": null,
        "Canonical SMILES": "O=P(O)(O)C(O)(C)P(=O)(O)O",
        "Molecular Formula": "C<sub>2</sub>H<sub>8</sub>O<sub>7</sub>P<sub>2</sub>",
        "Molecular Mass": "206.03",
        "Melting Point": "155 °C (decomp)"
    }
}