{
    "cas_no": "34834-67-8",
    "key_name": "Hydroxycotinine",
    "cn_name": null,
    "alternate_name": "2-Pyrrolidinone, 3-hydroxy-1-methyl-5-(3-pyridinyl)-, (3<em>R</em>,5<em>S</em>)-;2-Pyrrolidinone, 3-hydroxy-1-methyl-5-(3-pyridinyl)-, (3<em>R</em>-<em>trans</em>)-;Cotinine, hydroxy-;(3<em>R</em>,5<em>S</em>)-3-Hydroxy-1-methyl-5-(3-pyridinyl)-2-pyrrolidinone;<em>trans</em>-1-Methyl-3(<em>R</em>)-hydroxy-5(<em>S</em>)-3-pyridyl-2-pyrrolidinone;<em>trans</em>-3′-Hydroxycotinine;Hydroxycotinine;(3<em>S</em>-<em>trans</em>)-3-Hydroxycotinine;(3′<em>R</em>,5′<em>S</em>)-3′-Hydroxycotinine",
    "duplicated_cas_no": "108450-02-8;27323-64-4",
    "SMILES": "CN1[C@@H](C[C@@H](O)C1=O)C=2C=CC=NC2",
    "meta_data": {
        "InChI": "InChI=1S/C10H12N2O2/c1-12-8(5-9(13)10(12)14)7-3-2-4-11-6-7/h2-4,6,8-9,13H,5H2,1H3/t8-,9+/m0/s1",
        "InChIKey": null,
        "Canonical SMILES": "O=C1N(C)C(C=2C=NC=CC2)CC1O",
        "Molecular Formula": "C<sub>10</sub>H<sub>12</sub>N<sub>2</sub>O<sub>2</sub>",
        "Molecular Mass": "192.21",
        "Melting Point": "108-110 °C"
    }
}