{
    "cas_no": "15578-26-4",
    "key_name": "Stannous pyrophosphate",
    "cn_name": "焦磷酸亚锡;",
    "alternate_name": "Diphosphoric acid, tin(2+) salt (1:2);Pyrophosphoric acid, tin(2+) salt (1:2);Tin pyrophosphate (Sn<sub>2</sub>P<sub>2</sub>O<sub>7</sub>);Stannous pyrophosphate;Tin(2+) pyrophosphate;Tin(II) pyrophosphate;Tin phosphate (Sn<sub>2</sub>(P<sub>2</sub>O<sub>7</sub>))",
    "duplicated_cas_no": "69679-28-3;167994-36-7",
    "SMILES": "O(P(=O)(O)O)P(=O)(O)O.[Sn]",
    "meta_data": {
        "InChI": "InChI=1S/H4O7P2.2Sn/c1-8(2,3)7-9(4,5)6;;/h(H2,1,2,3)(H2,4,5,6);;",
        "InChIKey": null,
        "Canonical SMILES": "[Sn].O=P(O)(O)OP(=O)(O)O",
        "Molecular Formula": "H<sub>4</sub>O<sub>7</sub>P<sub>2</sub>.2Sn",
        "Molecular Mass": "",
        "Melting Point": "&gt;400 °C (decomp)",
        "Density": "4.01 g/cm³"
    }
}