{
    "cas_no": "539-93-5",
    "key_name": "1,3-Dilaurin",
    "cn_name": "α,α-二月桂酸甘油酯;1,3-二月桂酸甘油酯;",
    "alternate_name": "Dodecanoic acid, 1,1′-(2-hydroxy-1,3-propanediyl) ester;Laurin, 1,3-di-;Dodecanoic acid, 2-hydroxy-1,3-propanediyl ester;1,3-Dilaurin;α,α′-Dilaurin;Glycerol 1,3-dilaurate;1,3-Dilauroylglycerol;Glycerol 1,3-didodecanoate;(3-Dodecanoyloxy-2-hydroxypropyl) dodecanoate",
    "duplicated_cas_no": "",
    "SMILES": "C(COC(CCCCCCCCCCC)=O)(COC(CCCCCCCCCCC)=O)O",
    "meta_data": {
        "InChI": "InChI=1S/C27H52O5/c1-3-5-7-9-11-13-15-17-19-21-26(29)31-23-25(28)24-32-27(30)22-20-18-16-14-12-10-8-6-4-2/h25,28H,3-24H2,1-2H3",
        "InChIKey": null,
        "Canonical SMILES": "O=C(OCC(O)COC(=O)CCCCCCCCCCC)CCCCCCCCCCC",
        "Molecular Formula": "C<sub>27</sub>H<sub>52</sub>O<sub>5</sub>",
        "Molecular Mass": "456.70",
        "Melting Point": "40 °C"
    }
}