{
    "cas_no": "206-44-0",
    "key_name": "Fluoranthene",
    "cn_name": "荧蒽;",
    "alternate_name": "Fluoranthene;Benzo[<em>jk</em>]fluorene;Idryl;1,2-(1,8-Naphthylene)benzene;Benzene, 1,2-(1,8-naphthalenediyl)-;NSC 6803;ClusterCarbon",
    "duplicated_cas_no": "",
    "SMILES": "C12=C3C=4C(C1=CC=CC2=CC=C3)=CC=CC4",
    "meta_data": {
        "InChI": "InChI=1S/C16H10/c1-2-8-13-12(7-1)14-9-3-5-11-6-4-10-15(13)16(11)14/h1-10H",
        "InChIKey": null,
        "Canonical SMILES": "C1=CC=C2C(=C1)C3=CC=CC4=CC=CC2=C43",
        "Molecular Formula": "C<sub>16</sub>H<sub>10</sub>",
        "Molecular Mass": "202.25",
        "Boiling Point": "384 °C",
        "Melting Point": "111 °C",
        "Density": "1.252 g/cm³ @ Temp: 0 °C"
    }
}