{
    "cas_no": "193902-87-3",
    "key_name": "<em>tert</em>-Butyl 4-[4-amino-2-(trifluoromethyl)phenyl]piperazine-1-carboxylate",
    "cn_name": null,
    "alternate_name": "1-Piperazinecarboxylic acid, 4-[4-amino-2-(trifluoromethyl)phenyl]-, 1,1-dimethylethyl ester;4-(4-Amino-2-trifluoromethylphenyl)piperazine-1-carboxylic acid tert-butyl ester;1-Boc-4-[4-amino-2-(trifluoromethyl)phenyl]piperazine;<em>tert</em>-Butyl 4-[4-amino-2-(trifluoromethyl)phenyl]piperazine-1-carboxylate",
    "duplicated_cas_no": "",
    "SMILES": "C(F)(F)(F)C1=C(C=CC(N)=C1)N2CCN(C(OC(C)(C)C)=O)CC2",
    "meta_data": {
        "InChI": "InChI=1S/C16H22F3N3O2/c1-15(2,3)24-14(23)22-8-6-21(7-9-22)13-5-4-11(20)10-12(13)16(17,18)19/h4-5,10H,6-9,20H2,1-3H3",
        "InChIKey": null,
        "Canonical SMILES": "O=C(OC(C)(C)C)N1CCN(C2=CC=C(N)C=C2C(F)(F)F)CC1",
        "Molecular Formula": "C<sub>16</sub>H<sub>22</sub>F<sub>3</sub>N<sub>3</sub>O<sub>2</sub>",
        "Molecular Mass": "345.36",
        "Melting Point": "140-141 °C"
    }
}