{
    "cas_no": "60481-36-9",
    "key_name": "Hydrazine, (3,5-dimethylphenyl)-, hydrochloride (1:1)",
    "cn_name": null,
    "alternate_name": "Hydrazine, (3,5-dimethylphenyl)-, hydrochloride (1:1);Hydrazine, (3,5-dimethylphenyl)-, monohydrochloride;(3,5-Dimethylphenyl)hydrazine hydrochloride;(3,5-Dimethylphenyl)hydrazine monohydrochloride;<em>N</em>-(3,5-Dimethylphenyl)hydrazine hydrochloride",
    "duplicated_cas_no": "",
    "SMILES": "N(N)C1=CC(C)=CC(C)=C1.Cl",
    "meta_data": {
        "InChI": "InChI=1S/C8H12N2.ClH/c1-6-3-7(2)5-8(4-6)10-9;/h3-5,10H,9H2,1-2H3;1H",
        "InChIKey": null,
        "Canonical SMILES": "Cl.NNC=1C=C(C=C(C1)C)C",
        "Molecular Formula": "C<sub>8</sub>H<sub>12</sub>N<sub>2</sub>.ClH",
        "Molecular Mass": "",
        "Melting Point": "166-167 °C"
    }
}