{
    "cas_no": "650-51-1",
    "key_name": "Sodium trichloroacetate",
    "cn_name": "雷玛唑盐FD;",
    "alternate_name": "Acetic acid, 2,2,2-trichloro-, sodium salt (1:1);Acetic acid, trichloro-, sodium salt;Antyperz;Sodium TCA;Sodium trichloroacetate;STCA;Trichloroacetic acid sodium salt;TCA sodium salt;Varitox;Antiperz;NaTa;TCAN;Remazol Salt FD;Drimarene Salt FD",
    "duplicated_cas_no": "2093367-88-3",
    "SMILES": "C(C(O)=O)(Cl)(Cl)Cl.[Na]",
    "meta_data": {
        "InChI": "InChI=1S/C2HCl3O2.Na/c3-2(4,5)1(6)7;/h(H,6,7);",
        "InChIKey": null,
        "Canonical SMILES": "[Na].O=C(O)C(Cl)(Cl)Cl",
        "Molecular Formula": "C<sub>2</sub>HCl<sub>3</sub>O<sub>2</sub>.Na",
        "Molecular Mass": "",
        "Melting Point": "165-200 °C (decomp)",
        "Density": "0.9 g/cm³"
    }
}