{
    "cas_no": "69088-96-6",
    "key_name": "4-(3-Aminophenyl)-2-methyl-3-butyn-2-ol",
    "cn_name": null,
    "alternate_name": "3-Butyn-2-ol, 4-(3-aminophenyl)-2-methyl-;4-(3-Aminophenyl)-2-methyl-3-butyn-2-ol;1-(3-Aminophenyl)-3-hydroxy-3-methyl-1-butyne;M-APACB;3-(3-Hydroxy-3-methylbutyn-1-yl)aniline;2-Methyl-4-(3-aminophenyl)-3-butyn-2-ol",
    "duplicated_cas_no": "",
    "SMILES": "C(#CC(C)(C)O)C1=CC(N)=CC=C1",
    "meta_data": {
        "InChI": "InChI=1S/C11H13NO/c1-11(2,13)7-6-9-4-3-5-10(12)8-9/h3-5,8,13H,12H2,1-2H3",
        "InChIKey": null,
        "Canonical SMILES": "OC(C#CC1=CC=CC(N)=C1)(C)C",
        "Molecular Formula": "C<sub>11</sub>H<sub>13</sub>NO",
        "Molecular Mass": "175.23",
        "Melting Point": "117-118 °C"
    }
}