{
    "cas_no": "5796-17-8",
    "key_name": "<span class=\"text-smallcaps\">D</span>-Dopa",
    "cn_name": "3-羟基-D-酪氨酸;D-3-(3,4-二羟基苯)丙氨酸;",
    "alternate_name": "<span class=\"text-smallcaps\">D</span>-Tyrosine, 3-hydroxy-;Alanine, 3-(3,4-dihydroxyphenyl)-, <span class=\"text-smallcaps\">D</span>-;3-Hydroxy-<span class=\"text-smallcaps\">D</span>-tyrosine;<span class=\"text-smallcaps\">D</span>-Dopa;<span class=\"text-smallcaps\">D</span>-3,4-Dihydroxyphenylalanine;3-(3,4-Dihydroxyphenyl)-<span class=\"text-smallcaps\">D</span>-alanine;3,4-Dihydroxy-<span class=\"text-smallcaps\">D</span>-phenylalanine;(+)-3-(3,4-Dihydroxyphenyl)alanine;<span class=\"text-smallcaps\">D</span>-3-Hydroxytyrosine;β-(3,4-Dihydroxy)-<span class=\"text-smallcaps\">D</span>-phenylalanine;(+)-Dopa;<span class=\"text-smallcaps\">D</span>-3-(3,4-Dihydroxyphenyl)alanine;(R)-2-Amino-3-(3,4-dihydroxyphenyl)propanoic acid",
    "duplicated_cas_no": "2029175-67-3",
    "SMILES": "C([C@H](C(O)=O)N)C1=CC(O)=C(O)C=C1",
    "meta_data": {
        "InChI": "InChI=1S/C9H11NO4/c10-6(9(13)14)3-5-1-2-7(11)8(12)4-5/h1-2,4,6,11-12H,3,10H2,(H,13,14)/t6-/m1/s1",
        "InChIKey": null,
        "Canonical SMILES": "O=C(O)C(N)CC1=CC=C(O)C(O)=C1",
        "Molecular Formula": "C<sub>9</sub>H<sub>11</sub>NO<sub>4</sub>",
        "Molecular Mass": "197.19",
        "Melting Point": "274.5-276 °C (decomp)"
    }
}