{
    "cas_no": "13531-48-1",
    "key_name": "Benzoic acid, 3-cyano-, methyl ester",
    "cn_name": "3-氰基苯甲酸甲酯;",
    "alternate_name": "Benzoic acid, 3-cyano-, methyl ester;Benzoic acid, <em>m</em>-cyano-, methyl ester;Methyl <em>m</em>-cyanobenzoate;Methyl 3-cyanobenzoate;3-Cyanobenzoic acid methyl ester;3-(Methoxycarbonyl)benzonitrile",
    "duplicated_cas_no": "",
    "SMILES": "C(OC)(=O)C1=CC(C#N)=CC=C1",
    "meta_data": {
        "InChI": "InChI=1S/C9H7NO2/c1-12-9(11)8-4-2-3-7(5-8)6-10/h2-5H,1H3",
        "InChIKey": null,
        "Canonical SMILES": "N#CC1=CC=CC(=C1)C(=O)OC",
        "Molecular Formula": "C<sub>9</sub>H<sub>7</sub>NO<sub>2</sub>",
        "Molecular Mass": "161.16",
        "Melting Point": "38-40 °C"
    }
}