{
    "cas_no": "6639-06-1",
    "key_name": "1<em>H</em>-Indole-1-propanoic acid",
    "cn_name": null,
    "alternate_name": "1<em>H</em>-Indole-1-propanoic acid;Indole-1-propionic acid;NSC 17814;3-Indol-1-ylpropionic acid;1-(2-Carboxyethyl)-1<em>H</em>-indole;3-(1<em>H</em>-Indol-1-yl)propanoic acid;3-Indol-1-ylpropanoic acid",
    "duplicated_cas_no": "",
    "SMILES": "C(CC(O)=O)N1C=2C(C=C1)=CC=CC2",
    "meta_data": {
        "InChI": "InChI=1S/C11H11NO2/c13-11(14)6-8-12-7-5-9-3-1-2-4-10(9)12/h1-5,7H,6,8H2,(H,13,14)",
        "InChIKey": null,
        "Canonical SMILES": "O=C(O)CCN1C=CC=2C=CC=CC21",
        "Molecular Formula": "C<sub>11</sub>H<sub>11</sub>NO<sub>2</sub>",
        "Molecular Mass": "189.21",
        "Boiling Point": "180-197 °C",
        "Melting Point": "91 °C"
    }
}