{
    "cas_no": "3920-42-1",
    "key_name": "1,5-Dimethyl-4-nitro-1<em>H</em>-pyrazole",
    "cn_name": null,
    "alternate_name": "1<em>H</em>-Pyrazole, 1,5-dimethyl-4-nitro-;Pyrazole, 1,5-dimethyl-4-nitro-;1,5-Dimethyl-4-nitro-1<em>H</em>-pyrazole;1,5-Dimethyl-4-nitropyrazole",
    "duplicated_cas_no": "",
    "SMILES": "N(=O)(=O)C1=C(C)N(C)N=C1",
    "meta_data": {
        "InChI": "InChI=1S/C5H7N3O2/c1-4-5(8(9)10)3-6-7(4)2/h3H,1-2H3",
        "InChIKey": null,
        "Canonical SMILES": "O=N(=O)C=1C=NN(C1C)C",
        "Molecular Formula": "C<sub>5</sub>H<sub>7</sub>N<sub>3</sub>O<sub>2</sub>",
        "Molecular Mass": "141.13",
        "Melting Point": "114.6 °C"
    }
}