{
    "cas_no": "39026-92-1",
    "key_name": "9-Methoxycamptothecin",
    "cn_name": null,
    "alternate_name": "1<em>H</em>-Pyrano[3′,4′:6,7]indolizino[1,2-<em>b</em>]quinoline-3,14(4<em>H</em>,12<em>H</em>)-dione, 4-ethyl-4-hydroxy-10-methoxy-, (4<em>S</em>)-;1<em>H</em>-Pyrano[3′,4′:6,7]indolizino[1,2-<em>b</em>]quinoline-3,14(4<em>H</em>,12<em>H</em>)-dione, 4-ethyl-4-hydroxy-10-methoxy-, (<em>S</em>)-;(4<em>S</em>)-4-Ethyl-4-hydroxy-10-methoxy-1<em>H</em>-pyrano[3′,4′:6,7]indolizino[1,2-<em>b</em>]quinoline-3,14(4<em>H</em>,12<em>H</em>)-dione;9-Methoxycamptothecin;9-Methoxycamptothecine;NSC 176323",
    "duplicated_cas_no": "",
    "SMILES": "C(C)[C@]1(O)C2=C(C(=O)N3C(=C2)C=4C(C3)=CC=5C(N4)=CC=CC5OC)COC1=O",
    "meta_data": {
        "InChI": "InChI=1S/C21H18N2O5/c1-3-21(26)14-8-16-18-11(7-12-15(22-18)5-4-6-17(12)27-2)9-23(16)19(24)13(14)10-28-20(21)25/h4-8,26H,3,9-10H2,1-2H3/t21-/m0/s1",
        "InChIKey": null,
        "Canonical SMILES": "O=C1OCC=2C(=O)N3C(=CC2C1(O)CC)C=4N=C5C=CC=C(OC)C5=CC4C3",
        "Molecular Formula": "C<sub>21</sub>H<sub>18</sub>N<sub>2</sub>O<sub>5</sub>",
        "Molecular Mass": "378.38",
        "Melting Point": "223-225 °C"
    }
}