{
    "cas_no": "1732-09-8",
    "key_name": "Dimethyl suberate",
    "cn_name": "辛二酸二甲酯;",
    "alternate_name": "Octanedioic acid, 1,8-dimethyl ester;Suberic acid, dimethyl ester;Octanedioic acid, dimethyl ester;Dimethyl octanedioate;Dimethyl suberate;Dimethyl 1,8-octanedioate",
    "duplicated_cas_no": "",
    "SMILES": "C(CCCCCCC(OC)=O)(OC)=O",
    "meta_data": {
        "InChI": "InChI=1S/C10H18O4/c1-13-9(11)7-5-3-4-6-8-10(12)14-2/h3-8H2,1-2H3",
        "InChIKey": null,
        "Canonical SMILES": "O=C(OC)CCCCCCC(=O)OC",
        "Molecular Formula": "C<sub>10</sub>H<sub>18</sub>O<sub>4</sub>",
        "Molecular Mass": "202.25",
        "Boiling Point": "268 °C",
        "Melting Point": "-3.1 °C"
    }
}