{
    "cas_no": "2740-94-5",
    "key_name": "1-Benzyl-3-methyl-2-thiourea",
    "cn_name": null,
    "alternate_name": "Thiourea, <em>N</em>-methyl-<em>N</em>′-(phenylmethyl)-;Urea, 1-benzyl-3-methyl-2-thio-;<em>N</em>-Methyl-<em>N</em>′-(phenylmethyl)thiourea;1-Benzyl-3-methylthiourea;<em>N</em>-Benzyl-<em>N</em>′-methylthiourea;1-Benzyl-3-methyl-2-thiourea;<em>N</em>-Methyl-<em>N</em>′-benzylthiourea;1-Methyl-3-benzyl thiourea",
    "duplicated_cas_no": "",
    "SMILES": "C(NC(NC)=S)C1=CC=CC=C1",
    "meta_data": {
        "InChI": "InChI=1S/C9H12N2S/c1-10-9(12)11-7-8-5-3-2-4-6-8/h2-6H,7H2,1H3,(H2,10,11,12)",
        "InChIKey": null,
        "Canonical SMILES": "S=C(NC)NCC=1C=CC=CC1",
        "Molecular Formula": "C<sub>9</sub>H<sub>12</sub>N<sub>2</sub>S",
        "Molecular Mass": "180.27",
        "Melting Point": "74-76 °C"
    }
}