{
    "cas_no": "4461-48-7",
    "key_name": "4-Methyl-2-pentene",
    "cn_name": "顺式-4-甲基-2-戊烯;",
    "alternate_name": "2-Pentene, 4-methyl-;4-Methyl-2-pentene;2-Methyl-3-pentene;1,1-Dimethyl-2-butene;NSC 19873",
    "duplicated_cas_no": "",
    "SMILES": "C(C(C)C)=CC",
    "meta_data": {
        "InChI": "InChI=1S/C6H12/c1-4-5-6(2)3/h4-6H,1-3H3",
        "InChIKey": null,
        "Canonical SMILES": "C(=CC(C)C)C",
        "Molecular Formula": "C<sub>6</sub>H<sub>12</sub>",
        "Molecular Mass": "84.16",
        "Boiling Point": "59 °C",
        "Melting Point": "-120 °C",
        "Density": "0.6709 g/cm³ @ Temp: 20 °C"
    }
}