{
    "cas_no": "85-43-8",
    "key_name": "1,2,3,6-Tetrahydrophthalic anhydride",
    "cn_name": "顺-1,2,3,6-四氢苯酐;四氢邻苯二甲酸酐;四氢酞酐;",
    "alternate_name": "1,3-Isobenzofurandione, 3a,4,7,7a-tetrahydro-;4-Cyclohexene-1,2-dicarboxylic anhydride;3a,4,7,7a-Tetrahydro-1,3-isobenzofurandione;Maleic anhydride-butadiene adduct;Δ<sup>4</sup>-Tetrahydrophthalic anhydride;1,2,3,6-Tetrahydrophthalic anhydride;Tetrahydrophthalic anhydride;Tetrahydrophthalic acid anhydride;4-Cyclohexene-1,2-dicarboxylic acid anhydride;1,2,3,6-Tetrahydrophthalic acid anhydride;Rikacid TH;Cyclohexene-4,5-dicarboxylic anhydride;Rikacid THPA;NSC 82642;KBH 1098;HK 019;B 570H;THPA;Epiclon B 570H;Tetrahydroisobenzofuran-1,3-dione;1,3,3a,4,7,7a-Hexahydro-2-benzofuran-1,3-dione;Anhydride 70;1,3-Isobenzofurandione, hexahydro-5-methylene-;Hexahydro-5-methylene-1,3-isobenzofurandione",
    "duplicated_cas_no": "27936-16-9;57570-09-9;1312159-69-5;1431295-16-7;2377923-09-4;2758647-50-4",
    "SMILES": "O=C1C2C(C(=O)O1)CC=CC2",
    "meta_data": {
        "InChI": "InChI=1S/C8H8O3/c9-7-5-3-1-2-4-6(5)8(10)11-7/h1-2,5-6H,3-4H2",
        "InChIKey": null,
        "Canonical SMILES": "O=C1OC(=O)C2CC=CCC12",
        "Molecular Formula": "C<sub>8</sub>H<sub>8</sub>O<sub>3</sub>",
        "Molecular Mass": "152.15",
        "Boiling Point": "195 °C @ Press: 50 Torr",
        "Melting Point": "102 °C",
        "Density": "1.20 g/cm³ @ Temp: 105 °C"
    }
}