{
    "cas_no": "56961-27-4",
    "key_name": "3-Bromo-2-chlorobenzoic acid",
    "cn_name": null,
    "alternate_name": "Benzoic acid, 3-bromo-2-chloro-;3-Bromo-2-chlorobenzoic acid",
    "duplicated_cas_no": "",
    "SMILES": "C(O)(=O)C1=C(Cl)C(Br)=CC=C1",
    "meta_data": {
        "InChI": "InChI=1S/C7H4BrClO2/c8-5-3-1-2-4(6(5)9)7(10)11/h1-3H,(H,10,11)",
        "InChIKey": null,
        "Canonical SMILES": "O=C(O)C=1C=CC=C(Br)C1Cl",
        "Molecular Formula": "C<sub>7</sub>H<sub>4</sub>BrClO<sub>2</sub>",
        "Molecular Mass": "235.46",
        "Melting Point": "168-169 °C"
    }
}