{
    "cas_no": "6959-48-4",
    "key_name": "3-(Chloromethyl)pyridine hydrochloride",
    "cn_name": "3-氯甲基吡啶盐酸盐;",
    "alternate_name": "Pyridine, 3-(chloromethyl)-, hydrochloride (1:1);Pyridine, 3-(chloromethyl)-, hydrochloride;3-(Chloromethyl)pyridine hydrochloride;3-Pyridylmethyl chloride hydrochloride;3-(Chloromethyl)pyridine monohydrochloride;3-Picolyl chloride hydrochloride;(Pyridin-3-yl)methyl chloride hydrochloride;3-(Chloromethyl)pyridinium chloride",
    "duplicated_cas_no": "",
    "SMILES": "C(Cl)C=1C=CC=NC1.Cl",
    "meta_data": {
        "InChI": "InChI=1S/C6H6ClN.ClH/c7-4-6-2-1-3-8-5-6;/h1-3,5H,4H2;1H",
        "InChIKey": null,
        "Canonical SMILES": "Cl.ClCC=1C=NC=CC1",
        "Molecular Formula": "C<sub>6</sub>H<sub>6</sub>ClN.ClH",
        "Molecular Mass": "",
        "Melting Point": "137-143 °C"
    }
}