{
    "cas_no": "98-64-6",
    "key_name": "4-Chlorobenzenesulfonamide",
    "cn_name": "4-氯苯磺酰胺;对氯苯磺酰胺;",
    "alternate_name": "Benzenesulfonamide, 4-chloro-;Benzenesulfonamide, <em>p</em>-chloro-;4-Chlorobenzenesulfonamide;<em>p</em>-Chlorobenzenesulfonamide;4-Chlorophenylsulfonamide;<em>p</em>-Chlorobenzenesulfamide;<em>p</em>-Chlorophenylsulfonamide;ADD 55051;NSC 403674;NSC 9913;4-Chlorobenzezne sulfonamide",
    "duplicated_cas_no": "",
    "SMILES": "S(N)(=O)(=O)C1=CC=C(Cl)C=C1",
    "meta_data": {
        "InChI": "InChI=1S/C6H6ClNO2S/c7-5-1-3-6(4-2-5)11(8,9)10/h1-4H,(H2,8,9,10)",
        "InChIKey": null,
        "Canonical SMILES": "O=S(=O)(N)C1=CC=C(Cl)C=C1",
        "Molecular Formula": "C<sub>6</sub>H<sub>6</sub>ClNO<sub>2</sub>S",
        "Molecular Mass": "191.64",
        "Melting Point": "145.75 °C"
    }
}