{
    "cas_no": "117704-25-3",
    "key_name": "Doramectin",
    "cn_name": "多拉菌素;",
    "alternate_name": "Avermectin A<sub>1a</sub>, 25-cyclohexyl-5-<em>O</em>-demethyl-25-de(1-methylpropyl)-;Spiro[11,15-methano-2<em>H</em>,13<em>H</em>,17<em>H</em>-furo[4,3,2-<em>pq</em>][2,6]benzodioxacyclooctadecin-13,2′-[2<em>H</em>]pyran], avermectin A<sub>1a</sub> deriv.;25-Cyclohexyl-5-<em>O</em>-demethyl-25-de(1-methylpropyl)avermectin A<sub>1a</sub>;Doramectin;UK 67994;25-Cyclohexylavermectin B1;Dectomax;L 701023;Doramectin A<sub>1a</sub>;Treo ACE;Treo Ace Injetavel",
    "duplicated_cas_no": "157544-18-8",
    "SMILES": "",
    "meta_data": {
        "InChI": "",
        "InChIKey": null,
        "Canonical SMILES": "",
        "Molecular Formula": "C<sub>50</sub>H<sub>74</sub>O<sub>14</sub>",
        "Molecular Mass": "899.11",
        "Melting Point": "116-119 °C"
    }
}