{
    "cas_no": "50741-92-9",
    "key_name": "1-Methoxy-2-methyl-4-nitrobenzene",
    "cn_name": null,
    "alternate_name": "Benzene, 1-methoxy-2-methyl-4-nitro-;Anisole, 2-methyl-4-nitro-;1-Methoxy-2-methyl-4-nitrobenzene;2-Methyl-4-nitroanisole;2-Methoxy-5-nitrotoluene;4-Methoxy-3-methylnitrobenzene;3-Methyl-4-methoxynitrobenzene",
    "duplicated_cas_no": "",
    "SMILES": "N(=O)(=O)C1=CC(C)=C(OC)C=C1",
    "meta_data": {
        "InChI": "InChI=1S/C8H9NO3/c1-6-5-7(9(10)11)3-4-8(6)12-2/h3-5H,1-2H3",
        "InChIKey": null,
        "Canonical SMILES": "O=N(=O)C1=CC=C(OC)C(=C1)C",
        "Molecular Formula": "C<sub>8</sub>H<sub>9</sub>NO<sub>3</sub>",
        "Molecular Mass": "167.16",
        "Melting Point": "63 °C"
    }
}