{
    "cas_no": "931-53-3",
    "key_name": "Cyclohexyl isocyanide",
    "cn_name": "二苯基(o-甲苯基)膦;",
    "alternate_name": "Cyclohexane, isocyano-;Cyclohexyl isocyanide;Isocyanocyclohexane;Cyclohexyl isonitrile;Cyclohexaneisonitrile;1-Cyclohexyl isonitrile",
    "duplicated_cas_no": "1627209-98-6;2408960-28-9",
    "SMILES": "[N+](#[C-])C1CCCCC1",
    "meta_data": {
        "InChI": "InChI=1S/C7H11N/c1-8-7-5-3-2-4-6-7/h7H,2-6H2",
        "InChIKey": null,
        "Canonical SMILES": "[C-]#[N+]C1CCCCC1",
        "Molecular Formula": "C<sub>7</sub>H<sub>11</sub>N",
        "Molecular Mass": "",
        "Boiling Point": "56-58 °C @ Press: 11 Torr"
    }
}