{
    "cas_no": "15129-36-9",
    "key_name": "<em>N</em><sup>1</sup>-[(Triethoxysilyl)methyl]-1,6-hexanediamine",
    "cn_name": null,
    "alternate_name": "1,6-Hexanediamine, <em>N</em><sup>1</sup>-[(triethoxysilyl)methyl]-;1,6-Hexanediamine, <em>N</em>-[(triethoxysilyl)methyl]-;<em>N</em><sup>1</sup>-[(Triethoxysilyl)methyl]-1,6-hexanediamine;<em>N</em>-(6-Aminohexyl)aminomethyltriethoxysilane;<em>N</em>-[(Triethoxysilyl)methyl]-1,6-hexanediamine;AGM 3;SiA 0592.6;AHAMTES;[(6-Aminohexyl)amino]methyltriethoxysilane;S 25035",
    "duplicated_cas_no": "",
    "SMILES": "[Si](CNCCCCCCN)(OCC)(OCC)OCC",
    "meta_data": {
        "InChI": "InChI=1S/C13H32N2O3Si/c1-4-16-19(17-5-2,18-6-3)13-15-12-10-8-7-9-11-14/h15H,4-14H2,1-3H3",
        "InChIKey": null,
        "Canonical SMILES": "O(CC)[Si](OCC)(OCC)CNCCCCCCN",
        "Molecular Formula": "C<sub>13</sub>H<sub>32</sub>N<sub>2</sub>O<sub>3</sub>Si",
        "Molecular Mass": "292.49",
        "Boiling Point": "160 °C @ Press: 0.1 Torr",
        "Density": "0.928 g/cm³ @ Temp: 25 °C"
    }
}