{
    "cas_no": "20265-37-6",
    "key_name": "3-Methoxy-2-nitropyridine",
    "cn_name": "3-甲氧基-2-硝基吡啶;2-硝基-3-甲氧基吡啶;",
    "alternate_name": "Pyridine, 3-methoxy-2-nitro-;3-Methoxy-2-nitropyridine;2-Nitro-3-methoxypyridine;3-(Methyloxy)-2-nitropyridine",
    "duplicated_cas_no": "",
    "SMILES": "O(C)C1=C(N(=O)=O)N=CC=C1",
    "meta_data": {
        "InChI": "InChI=1S/C6H6N2O3/c1-11-5-3-2-4-7-6(5)8(9)10/h2-4H,1H3",
        "InChIKey": null,
        "Canonical SMILES": "O=N(=O)C1=NC=CC=C1OC",
        "Molecular Formula": "C<sub>6</sub>H<sub>6</sub>N<sub>2</sub>O<sub>3</sub>",
        "Molecular Mass": "154.12",
        "Melting Point": "73-75 °C"
    }
}