{
    "cas_no": "16419-60-6",
    "key_name": "2-Methylphenylboronic acid",
    "cn_name": "2-甲基苯硼酸;2-甲基苯基硼酸;",
    "alternate_name": "Boronic acid, <em>B</em>-(2-methylphenyl)-;<em>o</em>-Tolueneboronic acid;Boronic acid, (2-methylphenyl)-;<em>B</em>-(2-Methylphenyl)boronic acid;<em>o</em>-Tolylboronic acid;<em>o</em>-Methylphenylboronic acid;2-Methyl-1-phenylboronic acid;2-Methylphenylboronic acid;2-Tolueneboronic acid;<em>o</em>-Boronotoluene;(2-Tolyl)boronic acid;2-Methylbenzeneboronic acid",
    "duplicated_cas_no": "1166976-49-3;1695577-88-8;1695577-89-9",
    "SMILES": "B(O)(O)C1=C(C)C=CC=C1",
    "meta_data": {
        "InChI": "InChI=1S/C7H9BO2/c1-6-4-2-3-5-7(6)8(9)10/h2-5,9-10H,1H3",
        "InChIKey": null,
        "Canonical SMILES": "OB(O)C=1C=CC=CC1C",
        "Molecular Formula": "C<sub>7</sub>H<sub>9</sub>BO<sub>2</sub>",
        "Molecular Mass": "135.96",
        "Melting Point": "166.5 °C"
    }
}