{
    "cas_no": "94-12-2",
    "key_name": "Risocaine",
    "cn_name": "利索卡因;",
    "alternate_name": "Benzoic acid, 4-amino-, propyl ester;Benzoic acid, <em>p</em>-amino-, propyl ester;Propesin;<em>p</em>-Aminobenzoic acid, propyl ester;Keloform P;Propaesin;Propesine;Propyl <em>p</em>-aminobenzoate;Risocaine;4-(Propoxycarbonyl)aniline;Propazyl;Propylcain;Raythesin;<em>n</em>-Propyl <em>p</em>-aminobenzoate;Propyl 4-aminobenzoate;NSC 23516",
    "duplicated_cas_no": "",
    "SMILES": "C(OCCC)(=O)C1=CC=C(N)C=C1",
    "meta_data": {
        "InChI": "InChI=1S/C10H13NO2/c1-2-7-13-10(12)8-3-5-9(11)6-4-8/h3-6H,2,7,11H2,1H3",
        "InChIKey": null,
        "Canonical SMILES": "O=C(OCCC)C1=CC=C(N)C=C1",
        "Molecular Formula": "C<sub>10</sub>H<sub>13</sub>NO<sub>2</sub>",
        "Molecular Mass": "179.22",
        "Boiling Point": "206-208 °C @ Press: 2 Torr",
        "Melting Point": "75 °C"
    }
}