{
    "cas_no": "618-48-4",
    "key_name": "3-Chlorobenzamide",
    "cn_name": "间氯苯甲酰胺;",
    "alternate_name": "Benzamide, 3-chloro-;Benzamide, <em>m</em>-chloro-;3-Chlorobenzamide;<em>m</em>-Chlorobenzamide",
    "duplicated_cas_no": "",
    "SMILES": "C(N)(=O)C1=CC(Cl)=CC=C1",
    "meta_data": {
        "InChI": "InChI=1S/C7H6ClNO/c8-6-3-1-2-5(4-6)7(9)10/h1-4H,(H2,9,10)",
        "InChIKey": null,
        "Canonical SMILES": "O=C(N)C=1C=CC=C(Cl)C1",
        "Molecular Formula": "C<sub>7</sub>H<sub>6</sub>ClNO",
        "Molecular Mass": "155.58",
        "Boiling Point": "99-100 °C @ Press: 15 Torr",
        "Melting Point": "133-134 °C"
    }
}