{
    "cas_no": "713-36-0",
    "key_name": "1-Methyl-2-(phenylmethyl)benzene",
    "cn_name": null,
    "alternate_name": "Benzene, 1-methyl-2-(phenylmethyl)-;Methane, phenyl-<em>o</em>-tolyl-;1-Methyl-2-(phenylmethyl)benzene;2-Methyldiphenylmethane;<em>o</em>-Benzyltoluene;Phenyl-<em>o</em>-tolylmethane;<em>o</em>-Tolylphenylmethane;α-Phenyl-<em>o</em>-xylene;2-Benzyltoluene;Phenyl-2-tolylmethane;(2-Methylphenyl)phenylmethane;<em>o</em>-Methyldiphenylmethane;Phenyl(<em>o</em>-methylphenyl)methane;1-Benzyl-2-methylbenzene;NSC 75366",
    "duplicated_cas_no": "",
    "SMILES": "C(C1=C(C)C=CC=C1)C2=CC=CC=C2",
    "meta_data": {
        "InChI": "InChI=1S/C14H14/c1-12-7-5-6-10-14(12)11-13-8-3-2-4-9-13/h2-10H,11H2,1H3",
        "InChIKey": null,
        "Canonical SMILES": "C=1C=CC(=CC1)CC=2C=CC=CC2C",
        "Molecular Formula": "C<sub>14</sub>H<sub>14</sub>",
        "Molecular Mass": "182.26",
        "Boiling Point": "280.5 °C",
        "Melting Point": "6.6 °C",
        "Density": "0.9945 g/cm³ @ Temp: 20 °C"
    }
}