{
    "cas_no": "58880-19-6",
    "key_name": "Trichostatin A",
    "cn_name": "曲古柳菌素A;曲古抑菌素A;曲古抑菌素;",
    "alternate_name": "2,4-Heptadienamide, 7-[4-(dimethylamino)phenyl]-<em>N</em>-hydroxy-4,6-dimethyl-7-oxo-, (2<em>E</em>,4<em>E</em>,6<em>R</em>)-;2,4-Heptadienamide, 7-[4-(dimethylamino)phenyl]-<em>N</em>-hydroxy-4,6-dimethyl-7-oxo-, [<em>R</em>-(<em>E</em>,<em>E</em>)]-;(2<em>E</em>,4<em>E</em>,6<em>R</em>)-7-[4-(Dimethylamino)phenyl]-<em>N</em>-hydroxy-4,6-dimethyl-7-oxo-2,4-heptadienamide;Trichostatin A;(<em>R</em>)-Trichostatin A;TSA;(<em>R</em>)-(+)-Trichostatin A;VTR 297",
    "duplicated_cas_no": "",
    "SMILES": "C([C@@H](/C=C(/C=C/C(NO)=O)\\C)C)(=O)C1=CC=C(N(C)C)C=C1",
    "meta_data": {
        "InChI": "InChI=1S/C17H22N2O3/c1-12(5-10-16(20)18-22)11-13(2)17(21)14-6-8-15(9-7-14)19(3)4/h5-11,13,22H,1-4H3,(H,18,20)/b10-5+,12-11+/t13-/m1/s1",
        "InChIKey": null,
        "Canonical SMILES": "O=C(C=CC(=CC(C(=O)C1=CC=C(C=C1)N(C)C)C)C)NO",
        "Molecular Formula": "C<sub>17</sub>H<sub>22</sub>N<sub>2</sub>O<sub>3</sub>",
        "Molecular Mass": "302.37",
        "Melting Point": "140-143 °C"
    }
}