{
    "cas_no": "39846-84-9",
    "key_name": "Ethyl 5-nitro-1<em>H</em>-pyrazole-3-carboxylate",
    "cn_name": "5-硝基吡唑-3-羧酸乙酯;",
    "alternate_name": "1<em>H</em>-Pyrazole-3-carboxylic acid, 5-nitro-, ethyl ester;Ethyl 5-nitro-1<em>H</em>-pyrazole-3-carboxylate;5-Nitro-3-pyrazolecarboxylic acid ethyl ester;Ethyl 3-nitro-1<em>H</em>-pyrazole-5-carboxylate",
    "duplicated_cas_no": "321742-18-1;380593-30-6;400825-03-8;698978-98-2;1092683-08-3;1649469-52-2;2416788-67-3;2764670-74-6",
    "SMILES": "C(OCC)(=O)C=1C=C(N(=O)=O)NN1",
    "meta_data": {
        "InChI": "InChI=1S/C6H7N3O4/c1-2-13-6(10)4-3-5(8-7-4)9(11)12/h3H,2H2,1H3,(H,7,8)",
        "InChIKey": null,
        "Canonical SMILES": "O=C(OCC)C1=NNC(=C1)N(=O)=O",
        "Molecular Formula": "C<sub>6</sub>H<sub>7</sub>N<sub>3</sub>O<sub>4</sub>",
        "Molecular Mass": "185.14",
        "Melting Point": "155 °C"
    }
}