{
    "cas_no": "6921-45-5",
    "key_name": "1-(4-Cyclopropylphenyl)ethanone",
    "cn_name": null,
    "alternate_name": "Ethanone, 1-(4-cyclopropylphenyl)-;Acetophenone, 4′-cyclopropyl-;1-(4-Cyclopropylphenyl)ethanone;<em>p</em>-Cyclopropylacetophenone;4′-Cyclopropylacetophenone;NSC 98349;1-Acetyl-4-cyclopropylbenzene",
    "duplicated_cas_no": "",
    "SMILES": "C(C)(=O)C1=CC=C(C2CC2)C=C1",
    "meta_data": {
        "InChI": "InChI=1S/C11H12O/c1-8(12)9-2-4-10(5-3-9)11-6-7-11/h2-5,11H,6-7H2,1H3",
        "InChIKey": null,
        "Canonical SMILES": "O=C(C1=CC=C(C=C1)C2CC2)C",
        "Molecular Formula": "C<sub>11</sub>H<sub>12</sub>O",
        "Molecular Mass": "160.21",
        "Boiling Point": "114-119 °C @ Press: 2.5-2.9 Torr",
        "Melting Point": "35-36 °C"
    }
}