{
    "cas_no": "77532-90-2",
    "key_name": "5-Fluoro-2-formylbenzonitrile",
    "cn_name": "2-氰基-4-氟苯甲醛;",
    "alternate_name": "Benzonitrile, 5-fluoro-2-formyl-;5-Fluoro-2-formylbenzonitrile",
    "duplicated_cas_no": "",
    "SMILES": "C(=O)C1=C(C#N)C=C(F)C=C1",
    "meta_data": {
        "InChI": "InChI=1S/C8H4FNO/c9-8-2-1-6(5-11)7(3-8)4-10/h1-3,5H",
        "InChIKey": null,
        "Canonical SMILES": "N#CC1=CC(F)=CC=C1C=O",
        "Molecular Formula": "C<sub>8</sub>H<sub>4</sub>FNO",
        "Molecular Mass": "149.12",
        "Melting Point": "120-122 °C"
    }
}