{
    "cas_no": "823-78-9",
    "key_name": "3-Bromobenzyl bromide",
    "cn_name": "3-溴苄溴;间溴溴苄;",
    "alternate_name": "Benzene, 1-bromo-3-(bromomethyl)-;Toluene, <em>m</em>,α-dibromo-;1-Bromo-3-(bromomethyl)benzene;3-Bromobenzyl bromide;<em>m</em>-Bromobenzyl bromide;α,<em>m</em>-Dibromotoluene;3-(Bromomethyl)bromobenzene;1-Bromomethyl-3-bromobenzene",
    "duplicated_cas_no": "",
    "SMILES": "C(Br)C1=CC(Br)=CC=C1",
    "meta_data": {
        "InChI": "InChI=1S/C7H6Br2/c8-5-6-2-1-3-7(9)4-6/h1-4H,5H2",
        "InChIKey": null,
        "Canonical SMILES": "BrC1=CC=CC(=C1)CBr",
        "Molecular Formula": "C<sub>7</sub>H<sub>6</sub>Br<sub>2</sub>",
        "Molecular Mass": "249.93",
        "Melting Point": "39-41 °C"
    }
}