{
    "cas_no": "60607-34-3",
    "key_name": "Oxatomide",
    "cn_name": "奥沙米特;苯咪唑嗪;1-[-3-[4-(二苯基甲基)-1-哌嗪基]丙基]-2-苯并咪唑酮;",
    "alternate_name": "2<em>H</em>-Benzimidazol-2-one, 1-[3-[4-(diphenylmethyl)-1-piperazinyl]propyl]-1,3-dihydro-;1-[3-[4-(Diphenylmethyl)-1-piperazinyl]propyl]-1,3-dihydro-2<em>H</em>-benzimidazol-2-one;Oxatomide;R 35443;KW 4354;Dasten;Celtect;Tinset;Cobiona;NSC 309710;1-[3-[4-(Diphenylmethyl)piperazin-1-ium-1-yl]propyl]-1<em>H</em>-benzimidazol-2-olate;1-[3-(4-Benzhydrylpiperazin-1-ium-1-yl)propyl]benzimidazol-2-olate",
    "duplicated_cas_no": "",
    "SMILES": "C(N1CCN(CCCN2C=3C(NC2=O)=CC=CC3)CC1)(C4=CC=CC=C4)C5=CC=CC=C5",
    "meta_data": {
        "InChI": "InChI=1S/C27H30N4O/c32-27-28-24-14-7-8-15-25(24)31(27)17-9-16-29-18-20-30(21-19-29)26(22-10-3-1-4-11-22)23-12-5-2-6-13-23/h1-8,10-15,26H,9,16-21H2,(H,28,32)",
        "InChIKey": null,
        "Canonical SMILES": "O=C1NC=2C=CC=CC2N1CCCN3CCN(CC3)C(C=4C=CC=CC4)C=5C=CC=CC5",
        "Molecular Formula": "C<sub>27</sub>H<sub>30</sub>N<sub>4</sub>O",
        "Molecular Mass": "426.55",
        "Melting Point": "153.6 °C"
    }
}