{
    "cas_no": "928-90-5",
    "key_name": "5-Hexyn-1-ol",
    "cn_name": null,
    "alternate_name": "5-Hexyn-1-ol;1-Hydroxy-5-hexyne;6-Hydroxy-1-hexyne;5-Hexynyl alcohol;5-Hexynol;1-Hexyn-6-ol",
    "duplicated_cas_no": "",
    "SMILES": "C(CC#C)CCO",
    "meta_data": {
        "InChI": "InChI=1S/C6H10O/c1-2-3-4-5-6-7/h1,7H,3-6H2",
        "InChIKey": null,
        "Canonical SMILES": "C#CCCCCO",
        "Molecular Formula": "C<sub>6</sub>H<sub>10</sub>O",
        "Molecular Mass": "98.14",
        "Boiling Point": "75 °C @ Press: 16 Torr",
        "Melting Point": "172 °C",
        "Density": "0.902 g/cm³ @ Temp: 20 °C"
    }
}