{
    "cas_no": "128-50-7",
    "key_name": "Nopol",
    "cn_name": "6,6-二甲基-二环[3.1.1]庚-2-烯-2-乙醇;",
    "alternate_name": "Bicyclo[3.1.1]hept-2-ene-2-ethanol, 6,6-dimethyl-;2-Norpinene-2-ethanol, 6,6-dimethyl-;6,6-Dimethylbicyclo[3.1.1]hept-2-ene-2-ethanol;6,6-Dimethyl-2-norpinene-2-ethanol;Nopol (terpene);Homomyrtenol;Nopol;10-(Hydroxymethyl)-2-pinene;NSC 1284;NSC 404962;2-(6,6-Dimethylbicyclo[3.1.1]hept-2-en-2-yl)ethanol;2-[6,6-Dimethylbicyclo[3.1.1]hept-2-en-2-yl]ethan-1-ol;2-(6,6-Dimethyl-4-bicyclo[3.1.1]hept-3-enyl)ethanol",
    "duplicated_cas_no": "55590-69-7;474266-41-6",
    "SMILES": "C(CO)C=1C2C(C)(C)C(C2)CC1",
    "meta_data": {
        "InChI": "InChI=1S/C11H18O/c1-11(2)9-4-3-8(5-6-12)10(11)7-9/h3,9-10,12H,4-7H2,1-2H3",
        "InChIKey": null,
        "Canonical SMILES": "OCCC1=CCC2CC1C2(C)C",
        "Molecular Formula": "C<sub>11</sub>H<sub>18</sub>O",
        "Molecular Mass": "166.26",
        "Boiling Point": "235 °C",
        "Density": "0.9647 g/cm³ @ Temp: 25 °C"
    }
}