{
    "cas_no": "19968-85-5",
    "key_name": "Cyclohexanol, 1-(aminomethyl)-, hydrochloride (1:1)",
    "cn_name": null,
    "alternate_name": "Cyclohexanol, 1-(aminomethyl)-, hydrochloride (1:1);Cyclohexanol, 1-(aminomethyl)-, hydrochloride;1-Aminomethyl-1-cyclohexanol hydrochloride;1-(Aminomethyl)cyclohexanol hydrochloride",
    "duplicated_cas_no": "",
    "SMILES": "C(N)C1(O)CCCCC1.Cl",
    "meta_data": {
        "InChI": "InChI=1S/C7H15NO.ClH/c8-6-7(9)4-2-1-3-5-7;/h9H,1-6,8H2;1H",
        "InChIKey": null,
        "Canonical SMILES": "Cl.OC1(CN)CCCCC1",
        "Molecular Formula": "C<sub>7</sub>H<sub>15</sub>NO.ClH",
        "Molecular Mass": "",
        "Melting Point": "205 °C"
    }
}