{
    "cas_no": "431-47-0",
    "key_name": "Methyl trifluoroacetate",
    "cn_name": "三氟乙酸甲酯;",
    "alternate_name": "Acetic acid, 2,2,2-trifluoro-, methyl ester;Acetic acid, trifluoro-, methyl ester;Methyl trifluoroacetate;Methyl perfluoroacetate;Methyl 2,2,2-trifluoroacetate",
    "duplicated_cas_no": "",
    "SMILES": "C(C(F)(F)F)(OC)=O",
    "meta_data": {
        "InChI": "InChI=1S/C3H3F3O2/c1-8-2(7)3(4,5)6/h1H3",
        "InChIKey": null,
        "Canonical SMILES": "O=C(OC)C(F)(F)F",
        "Molecular Formula": "C<sub>3</sub>H<sub>3</sub>F<sub>3</sub>O<sub>2</sub>",
        "Molecular Mass": "128.05",
        "Boiling Point": "43.25 °C"
    }
}