{
    "cas_no": "3237-22-7",
    "key_name": "Furfurylidenemalononitrile",
    "cn_name": null,
    "alternate_name": "Propanedinitrile, 2-(2-furanylmethylene)-;Malononitrile, furfurylidene-;Propanedinitrile, (2-furanylmethylene)-;2-(2-Furanylmethylene)propanedinitrile;Furan, 2-(2,2-dicyanoethenyl)-;2-Furfurylidenemalononitrile;RGW 904;Furfurylidenemalononitrile;(2-Furanylmethylene)propanedinitrile;2-Furfurylidenemalonodinitrile;NSC 1333;2-(Furan-2-ylmethylene)malononitrile;2-(2-Furylmethylene)malononitrile;2-(Furan-2-yl)malononitrile;(2-Furanylmethylene)malononitrile;(2-Furylmethylene)malononitrile;2-(Furan-2-ylmethylidene)propanedinitrile",
    "duplicated_cas_no": "2155820-01-0",
    "SMILES": "C(=C(C#N)C#N)C1=CC=CO1",
    "meta_data": {
        "InChI": "InChI=1S/C8H4N2O/c9-5-7(6-10)4-8-2-1-3-11-8/h1-4H",
        "InChIKey": null,
        "Canonical SMILES": "N#CC(C#N)=CC=1OC=CC1",
        "Molecular Formula": "C<sub>8</sub>H<sub>4</sub>N<sub>2</sub>O",
        "Molecular Mass": "144.13",
        "Melting Point": "67-68 °C"
    }
}