{
    "cas_no": "10177-32-9",
    "key_name": "Methyl 4-methoxy-3-pyridinecarboxylate",
    "cn_name": null,
    "alternate_name": "3-Pyridinecarboxylic acid, 4-methoxy-, methyl ester;Nicotinic acid, 4-methoxy-, methyl ester;Methyl 4-methoxy-3-pyridinecarboxylate;Methyl 4-methoxynicotinate",
    "duplicated_cas_no": "",
    "SMILES": "C(OC)(=O)C=1C(OC)=CC=NC1",
    "meta_data": {
        "InChI": "InChI=1S/C8H9NO3/c1-11-7-3-4-9-5-6(7)8(10)12-2/h3-5H,1-2H3",
        "InChIKey": null,
        "Canonical SMILES": "O=C(OC)C=1C=NC=CC1OC",
        "Molecular Formula": "C<sub>8</sub>H<sub>9</sub>NO<sub>3</sub>",
        "Molecular Mass": "167.16",
        "Melting Point": "83-84 °C"
    }
}