{
    "cas_no": "591-64-0",
    "key_name": "Calcium levulinate",
    "cn_name": "乙酰丙酸钙;γ-戊酮酸钙;果糖酸钙;左旋(糖)酸钙;果糖衍酸鈣;",
    "alternate_name": "Pentanoic acid, 4-oxo-, calcium salt (2:1);Levulinic acid, calcium salt;Pentanoic acid, 4-oxo-, calcium salt;Calcium levulinate;4-Oxopentanoic acid calcium salt;Flanthin;Laevucalcin;Levucal;Levulin calcio;Mil-u-cal;Calcium-Diasporal;Calcium Pharmacon",
    "duplicated_cas_no": "1298118-75-8",
    "SMILES": "C(CC(O)=O)C(C)=O.[Ca]",
    "meta_data": {
        "InChI": "InChI=1S/C5H8O3.Ca/c1-4(6)2-3-5(7)8;/h2-3H2,1H3,(H,7,8);",
        "InChIKey": null,
        "Canonical SMILES": "[Ca].O=C(O)CCC(=O)C",
        "Molecular Formula": "C<sub>5</sub>H<sub>8</sub>O<sub>3</sub>.<sup>1</sup>/<sub>2</sub>Ca",
        "Molecular Mass": "",
        "Melting Point": "125 °C"
    }
}