{
    "cas_no": "811-62-1",
    "key_name": "Chlorodimethylphosphine",
    "cn_name": "氯(二甲基)膦;二甲基氯化膦;",
    "alternate_name": "Phosphinous chloride, dimethyl-;Chlorodimethylphosphine;Dimethylchlorophosphine;Dimethylphosphinous chloride;Dimethylphosphine chloride",
    "duplicated_cas_no": "1080001-65-5",
    "SMILES": "P(C)(C)Cl",
    "meta_data": {
        "InChI": "InChI=1S/C2H6ClP/c1-4(2)3/h1-2H3",
        "InChIKey": null,
        "Canonical SMILES": "ClP(C)C",
        "Molecular Formula": "C<sub>2</sub>H<sub>6</sub>ClP",
        "Molecular Mass": "96.50",
        "Boiling Point": "77 °C",
        "Melting Point": "-4-0 °C"
    }
}