{
    "cas_no": "43192-34-3",
    "key_name": "4-Bromo-3-methoxybenzaldehyde",
    "cn_name": null,
    "alternate_name": "Benzaldehyde, 4-bromo-3-methoxy-;4-Bromo-3-methoxybenzaldehyde;3-Methoxy-4-bromo-Benzaldehyde",
    "duplicated_cas_no": "",
    "SMILES": "O(C)C1=CC(C=O)=CC=C1Br",
    "meta_data": {
        "InChI": "InChI=1S/C8H7BrO2/c1-11-8-4-6(5-10)2-3-7(8)9/h2-5H,1H3",
        "InChIKey": null,
        "Canonical SMILES": "O=CC1=CC=C(Br)C(OC)=C1",
        "Molecular Formula": "C<sub>8</sub>H<sub>7</sub>BrO<sub>2</sub>",
        "Molecular Mass": "215.04",
        "Melting Point": "74-76 °C"
    }
}