{
    "cas_no": "69225-59-8",
    "key_name": "3,3-Dimethyl-1,5-dioxaspiro[5.5]undecan-9-one",
    "cn_name": "3,3-二甲基-1,5-二氧杂螺[5.5]十一烷-9-酮;",
    "alternate_name": "1,5-Dioxaspiro[5.5]undecan-9-one, 3,3-dimethyl-;3,3-Dimethyl-1,5-dioxaspiro[5.5]undecan-9-one;1,4-Cyclohexanedione mono(2,2-dimethyltrimethylene ketal)",
    "duplicated_cas_no": "",
    "SMILES": "CC1(C)COC2(OC1)CCC(=O)CC2",
    "meta_data": {
        "InChI": "InChI=1S/C11H18O3/c1-10(2)7-13-11(14-8-10)5-3-9(12)4-6-11/h3-8H2,1-2H3",
        "InChIKey": null,
        "Canonical SMILES": "O=C1CCC2(OCC(C)(C)CO2)CC1",
        "Molecular Formula": "C<sub>11</sub>H<sub>18</sub>O<sub>3</sub>",
        "Molecular Mass": "198.26",
        "Boiling Point": "70 °C @ Press: 0.05 Torr",
        "Melting Point": "48-49.5 °C"
    }
}