{
    "cas_no": "77866-58-1",
    "key_name": "<em>trans</em>-4-Propylcyclohexanol",
    "cn_name": null,
    "alternate_name": "Cyclohexanol, 4-propyl-, <em>trans</em>-;<em>trans</em>-4-Propylcyclohexanol",
    "duplicated_cas_no": "",
    "SMILES": "C(CC)[C@H]1CC[C@H](O)CC1",
    "meta_data": {
        "InChI": "InChI=1/C9H18O/c1-2-3-8-4-6-9(10)7-5-8/h8-10H,2-7H2,1H3/t8-,9-",
        "InChIKey": null,
        "Canonical SMILES": "OC1CCC(CCC)CC1",
        "Molecular Formula": "C<sub>9</sub>H<sub>18</sub>O",
        "Molecular Mass": "142.24",
        "Boiling Point": "212-214 °C @ Press: 740 Torr",
        "Density": "0.9025 g/cm³ @ Temp: 25 °C"
    }
}