{
    "cas_no": "7726-95-6",
    "key_name": "Bromine",
    "cn_name": "溴;溴素;",
    "alternate_name": "Bromine;Dibromine;Diatomic bromine;Bromine element;Bromine molecule (Br<sub>2</sub>);Bromitize Plus;ABWS 20;MeSH ID: D001966",
    "duplicated_cas_no": "23724-81-4",
    "SMILES": "BrBr",
    "meta_data": {
        "InChI": "InChI=1S/Br2/c1-2",
        "InChIKey": null,
        "Canonical SMILES": "BrBr",
        "Molecular Formula": "Br<sub>2</sub>",
        "Molecular Mass": "159.81",
        "Boiling Point": "58.78 °C",
        "Melting Point": "-7.25 °C",
        "Density": "3.11 g/cm³ @ Temp: 25 °C"
    }
}