{
    "cas_no": "261953-36-0",
    "key_name": "6-Iodo-1<em>H</em>-indazole",
    "cn_name": null,
    "alternate_name": "1<em>H</em>-Indazole, 6-iodo-;6-Iodo-1<em>H</em>-indazole",
    "duplicated_cas_no": "",
    "SMILES": "IC=1C=C2C(=CC1)C=NN2",
    "meta_data": {
        "InChI": "InChI=1S/C7H5IN2/c8-6-2-1-5-4-9-10-7(5)3-6/h1-4H,(H,9,10)",
        "InChIKey": null,
        "Canonical SMILES": "IC=1C=CC=2C=NNC2C1",
        "Molecular Formula": "C<sub>7</sub>H<sub>5</sub>IN<sub>2</sub>",
        "Molecular Mass": "244.03",
        "Melting Point": "204 °C"
    }
}