{
    "cas_no": "21743-75-9",
    "key_name": "Tetrazole-5-acetic acid",
    "cn_name": "1H-四唑-5-乙酸;",
    "alternate_name": "2<em>H</em>-Tetrazole-5-acetic acid;1<em>H</em>-Tetrazole-5-acetic acid;Tetrazole-5-acetic acid;NSC 282047;(1<em>H</em>-Tetrazol-5-yl)acetic acid;1,2,3,4-Tetrazole-5-acetic acid;(2<em>H</em>-Tetrazol-5-yl)acetic acid;2-(2<em>H</em>-Tetrazol-5-yl)acetic acid;2-(1<em>H</em>-Tetrazol-5-yl)acetic acid;2-(1<em>H</em>-1,2,3,4-Tetrazol-5-yl)acetic acid;1<em>H</em>-Tetraazol-5-ylacetic acid;2-(2<em>H</em>-1,2,3,4-Tetrazol-5-yl)acetic acid",
    "duplicated_cas_no": "",
    "SMILES": "C(C(O)=O)C=1NN=NN1",
    "meta_data": {
        "InChI": "InChI=1S/C3H4N4O2/c8-3(9)1-2-4-6-7-5-2/h1H2,(H,8,9)(H,4,5,6,7)",
        "InChIKey": null,
        "Canonical SMILES": "O=C(O)CC1=NN=NN1",
        "Molecular Formula": "C<sub>3</sub>H<sub>4</sub>N<sub>4</sub>O<sub>2</sub>",
        "Molecular Mass": "128.09",
        "Melting Point": "127 °C"
    }
}