{
    "cas_no": "517-51-1",
    "key_name": "Rubrene",
    "cn_name": "红荧烯;5,6,11,12-四苯基并四苯;",
    "alternate_name": "Naphthacene, 5,6,11,12-tetraphenyl-;5,6,11,12-Tetraphenylnaphthacene;Rubrene;5,6,11,12-Tetraphenyltetracene;Rubren;NSC 16080;NSC 614322",
    "duplicated_cas_no": "",
    "SMILES": "C12=C(C(=C3C(=C1C4=CC=CC=C4)C=CC=C3)C5=CC=CC=C5)C(=C6C(=C2C7=CC=CC=C7)C=CC=C6)C8=CC=CC=C8",
    "meta_data": {
        "InChI": "InChI=1S/C42H28/c1-5-17-29(18-6-1)37-33-25-13-14-26-34(33)39(31-21-9-3-10-22-31)42-40(32-23-11-4-12-24-32)36-28-16-15-27-35(36)38(41(37)42)30-19-7-2-8-20-30/h1-28H",
        "InChIKey": null,
        "Canonical SMILES": "C=1C=CC(=CC1)C=2C3=CC=CC=C3C(C=4C=CC=CC4)=C5C(C=6C=CC=CC6)=C7C=CC=CC7=C(C=8C=CC=CC8)C25",
        "Molecular Formula": "C<sub>42</sub>H<sub>28</sub>",
        "Molecular Mass": "532.67",
        "Melting Point": "331 °C",
        "Density": "1.26 g/cm³"
    }
}