{
    "cas_no": "57568-60-2",
    "key_name": "2-Phenyl-3-(2-furyl)prop-2-enal",
    "cn_name": null,
    "alternate_name": "Benzeneacetaldehyde, α-(2-furanylmethylene)-;2-Furanacrolein, α-phenyl-;α-(2-Furanylmethylene)benzeneacetaldehyde;2-Phenyl-3-(2-furyl)prop-2-enal",
    "duplicated_cas_no": "",
    "SMILES": "C(=CC1=CC=CO1)(C=O)C2=CC=CC=C2",
    "meta_data": {
        "InChI": "InChI=1S/C13H10O2/c14-10-12(9-13-7-4-8-15-13)11-5-2-1-3-6-11/h1-10H",
        "InChIKey": null,
        "Canonical SMILES": "O=CC(=CC=1OC=CC1)C=2C=CC=CC2",
        "Molecular Formula": "C<sub>13</sub>H<sub>10</sub>O<sub>2</sub>",
        "Molecular Mass": "198.22",
        "Boiling Point": "166-177 °C @ Press: 7.5 Torr"
    }
}