{
    "cas_no": "398489-26-4",
    "key_name": "<em>tert</em>-Butyl 3-oxoazetidine-1-carboxylate",
    "cn_name": "1-Boc-3-氮杂环丁酮;3-氧代氮杂环丁-1-羧酸叔丁酯;",
    "alternate_name": "1-Azetidinecarboxylic acid, 3-oxo-, 1,1-dimethylethyl ester;3-Oxoazetidine-1-carboxylic acid <em>tert</em>-butyl ester;1-<em>tert</em>-Butoxycarbonyl-3-azetidinone;<em>tert</em>-Butyl 3-oxoazetidine-1-carboxylate;1-(<em>tert</em>-Butoxycarbonyl)-3-oxoazetidine;3-Oxoazetidine-1-carboxylic acid tert-butyl ester;1-Boc-3-oxoazetidine;1-Boc-azetidin-3-one;<em>N</em>-Boc-azetidin-3-one;3-Boc-azetidinone;<em>N</em>-(<em>tert</em>-Butoxycarbonyl)-3-oxoazetidine",
    "duplicated_cas_no": "2036092-29-0",
    "SMILES": "C(OC(C)(C)C)(=O)N1CC(=O)C1",
    "meta_data": {
        "InChI": "InChI=1S/C8H13NO3/c1-8(2,3)12-7(11)9-4-6(10)5-9/h4-5H2,1-3H3",
        "InChIKey": null,
        "Canonical SMILES": "O=C(OC(C)(C)C)N1CC(=O)C1",
        "Molecular Formula": "C<sub>8</sub>H<sub>13</sub>NO<sub>3</sub>",
        "Molecular Mass": "171.19",
        "Melting Point": "40-45 °C"
    }
}