{
    "cas_no": "21871-47-6",
    "key_name": "5-Benzylthio-1<em>H</em>-tetrazole",
    "cn_name": "5-苄硫基四氮唑;",
    "alternate_name": "2<em>H</em>-Tetrazole, 5-[(phenylmethyl)thio]-;1<em>H</em>-Tetrazole, 5-(benzylthio)-;1<em>H</em>-Tetrazole, 5-[(phenylmethyl)thio]-;Tetrazole, 5-(benzylthio)-;5-[(Phenylmethyl)thio]-2<em>H</em>-tetrazole;5-Benzylmercapto-1,2,3,4-tetrazole;5-Benzylthio-1<em>H</em>-tetrazole;NSC 282041;5-Benzylmercaptotetrazole",
    "duplicated_cas_no": "",
    "SMILES": "C(SC=1NN=NN1)C2=CC=CC=C2",
    "meta_data": {
        "InChI": "InChI=1S/C8H8N4S/c1-2-4-7(5-3-1)6-13-8-9-11-12-10-8/h1-5H,6H2,(H,9,10,11,12)",
        "InChIKey": null,
        "Canonical SMILES": "N1=NNC(=N1)SCC=2C=CC=CC2",
        "Molecular Formula": "C<sub>8</sub>H<sub>8</sub>N<sub>4</sub>S",
        "Molecular Mass": "192.24",
        "Melting Point": "150-151 °C"
    }
}