{
    "cas_no": "58537-99-8",
    "key_name": "4-Hydroxy-2,6-dimethylbenzonitrile",
    "cn_name": "4-羟基-2,6-二甲基苯甲腈;4-羟甲基-2,6-二甲基苯腈;",
    "alternate_name": "Benzonitrile, 4-hydroxy-2,6-dimethyl-;4-Hydroxy-2,6-dimethylbenzonitrile;4-Cyano-3,5-dimethylphenol",
    "duplicated_cas_no": "",
    "SMILES": "C(#N)C1=C(C)C=C(O)C=C1C",
    "meta_data": {
        "InChI": "InChI=1S/C9H9NO/c1-6-3-8(11)4-7(2)9(6)5-10/h3-4,11H,1-2H3",
        "InChIKey": null,
        "Canonical SMILES": "N#CC=1C(=CC(O)=CC1C)C",
        "Molecular Formula": "C<sub>9</sub>H<sub>9</sub>NO",
        "Molecular Mass": "147.17",
        "Melting Point": "174-175 °C"
    }
}