{
    "cas_no": "17671-27-1",
    "key_name": "Behenyl behenate",
    "cn_name": "二十二烷酸二十二烷基酯;山嵛酸山嵛酸基酯;",
    "alternate_name": "Docosanoic acid, docosyl ester;1-Docosanol, docosanoate;Behenyl behenate;Rikaflow BB 62;<em>n</em>-Docosyl <em>n</em>-docosanoate;Exceparl BB;Docosyl behenate;Pelemol BB;Nissan Unister M 2222SL;Unister M 2222SL;Behenic acid behenyl ester;SP-C 44 Ester Wax;Kester Wax 72;WEP 3;Nissan Electol WEP 3;Esprix N 252;Behenic behenate;Electol WEP 3;Unister RM 2222SL;M 2222SL;Nissan Unister MB 96R;Unister 2222SL;Unister MB 96R",
    "duplicated_cas_no": "881028-10-0;1672701-09-5",
    "SMILES": "O(C(CCCCCCCCCCCCCCCCCCCCC)=O)CCCCCCCCCCCCCCCCCCCCCC",
    "meta_data": {
        "InChI": "InChI=1S/C44H88O2/c1-3-5-7-9-11-13-15-17-19-21-23-25-27-29-31-33-35-37-39-41-43-46-44(45)42-40-38-36-34-32-30-28-26-24-22-20-18-16-14-12-10-8-6-4-2/h3-43H2,1-2H3",
        "InChIKey": null,
        "Canonical SMILES": "O=C(OCCCCCCCCCCCCCCCCCCCCCC)CCCCCCCCCCCCCCCCCCCCC",
        "Molecular Formula": "C<sub>44</sub>H<sub>88</sub>O<sub>2</sub>",
        "Molecular Mass": "649.17",
        "Melting Point": "75 °C"
    }
}