{
    "cas_no": "112-59-4",
    "key_name": "Diethylene glycol monohexyl ether",
    "cn_name": "己基卡必醇;二甘醇单己基醚;",
    "alternate_name": "Ethanol, 2-[2-(hexyloxy)ethoxy]-;2-[2-(Hexyloxy)ethoxy]ethanol;Diethylene glycol monohexyl ether;<em>n</em>-Hexoxyethoxyethanol;Hexyl Carbitol;Diethylene glycol hexyl ether;3,6-Dioxa-1-dodecanol;Ucar Filmer EHC;DEGHE;NSC 403666;HEDG;Kyowanol HX 20;Hexyl diglycol;2-(2-Hexoxyethoxy)ethanol",
    "duplicated_cas_no": "",
    "SMILES": "O(CCCCCC)CCOCCO",
    "meta_data": {
        "InChI": "InChI=1S/C10H22O3/c1-2-3-4-5-7-12-9-10-13-8-6-11/h11H,2-10H2,1H3",
        "InChIKey": null,
        "Canonical SMILES": "OCCOCCOCCCCCC",
        "Molecular Formula": "C<sub>10</sub>H<sub>22</sub>O<sub>3</sub>",
        "Molecular Mass": "190.28",
        "Boiling Point": "259.1 °C @ Press: 760 Torr",
        "Melting Point": "-40 °C",
        "Density": "0.935 g/cm³ @ Temp: 25 °C"
    }
}