{
    "cas_no": "136-36-7",
    "key_name": "Resorcinol, monobenzoate",
    "cn_name": "间苯二酚单苯甲酸酯;1,3-苯二酚单苯甲酸酯;",
    "alternate_name": "1,3-Benzenediol, 1-benzoate;Resorcinol, monobenzoate;1,3-Benzenediol, monobenzoate;Resorcinol, benzoate;3-Hydroxyphenyl benzoate;Eastman Inhibitor RMB;1,3-Benzenediol benzoate;Seesorb 300;<em>m</em>-Hydroxyphenyl benzoate;Eastman RMB;RMB;3-Benzoyloxyphenol;NSC 4807",
    "duplicated_cas_no": "",
    "SMILES": "C(OC1=CC(O)=CC=C1)(=O)C2=CC=CC=C2",
    "meta_data": {
        "InChI": "InChI=1S/C13H10O3/c14-11-7-4-8-12(9-11)16-13(15)10-5-2-1-3-6-10/h1-9,14H",
        "InChIKey": null,
        "Canonical SMILES": "O=C(OC=1C=CC=C(O)C1)C=2C=CC=CC2",
        "Molecular Formula": "C<sub>13</sub>H<sub>10</sub>O<sub>3</sub>",
        "Molecular Mass": "214.22",
        "Melting Point": "132 °C"
    }
}