{
    "cas_no": "1187-59-3",
    "key_name": "Methylacrylamide",
    "cn_name": "N-甲基-2-丙烯酰胺;N-甲基-2-丙烯酰胺;",
    "alternate_name": "2-Propenamide, <em>N</em>-methyl-;Acrylamide, <em>N</em>-methyl-;<em>N</em>-Methyl-2-propenamide;<em>N</em>-Methylacrylamide;Methylacrylamide",
    "duplicated_cas_no": "",
    "SMILES": "C(C=C)(NC)=O",
    "meta_data": {
        "InChI": "InChI=1S/C4H7NO/c1-3-4(6)5-2/h3H,1H2,2H3,(H,5,6)",
        "InChIKey": null,
        "Canonical SMILES": "O=C(C=C)NC",
        "Molecular Formula": "C<sub>4</sub>H<sub>7</sub>NO",
        "Molecular Mass": "85.10",
        "Boiling Point": "84 °C @ Press: 3.0 Torr",
        "Melting Point": "102-106 °C",
        "Density": "0.9872 g/cm³ @ Temp: 20 °C"
    }
}