{
    "cas_no": "2192-06-5",
    "key_name": "4(5<em>H</em>)-Thiazolone, 2-amino-, hydrochloride (1:1)",
    "cn_name": null,
    "alternate_name": "4(5<em>H</em>)-Thiazolone, 2-amino-, hydrochloride (1:1);4-Thiazolidinone, 2-imino-, monohydrochloride;4(5<em>H</em>)-Thiazolone, 2-amino-, monohydrochloride;2-Thiazolin-4-one, 2-amino-, hydrochloride;Pseudothiohydantoin hydrochloride;2-Imino-4-thiazolidinone hydrochloride;2-Amino-4(5<em>H</em>)-thiazolone hydrochloride;2-Imino-1,3-thiazolidin-4-one hydrochloride",
    "duplicated_cas_no": "76874-78-7;884240-34-0",
    "SMILES": "O=C1N=C(N)SC1.Cl",
    "meta_data": {
        "InChI": "InChI=1S/C3H4N2OS.ClH/c4-3-5-2(6)1-7-3;/h1H2,(H2,4,5,6);1H",
        "InChIKey": null,
        "Canonical SMILES": "Cl.O=C1N=C(SC1)N",
        "Molecular Formula": "C<sub>3</sub>H<sub>4</sub>N<sub>2</sub>OS.ClH",
        "Molecular Mass": "",
        "Melting Point": "&gt;350 °C"
    }
}