{
    "cas_no": "6894-38-8",
    "key_name": "Jasmonic acid",
    "cn_name": null,
    "alternate_name": "Cyclopentaneacetic acid, 3-oxo-2-(2<em>Z</em>)-2-penten-1-yl-, (1<em>R</em>,2<em>R</em>)-;Cyclopentaneacetic acid, 3-oxo-2-(2-pentenyl)-, (<em>Z</em>)-<em>trans</em>-;Cyclopentaneacetic acid, 3-oxo-2-(2-pentenyl)-, [1<em>R</em>-[1α,2β(<em>Z</em>)]]-;Cyclopentaneacetic acid, 3-oxo-2-(2<em>Z</em>)-2-pentenyl-, (1<em>R</em>,2<em>R</em>)-;(1<em>R</em>,2<em>R</em>)-3-Oxo-2-(2<em>Z</em>)-2-penten-1-ylcyclopentaneacetic acid;Jasmonic acid;(-)-Jasmonic acid;(3<em>R</em>,7<em>R</em>)(-)-Jasmonic acid;(1<em>R</em>,2<em>R</em>)-Jasmonic acid",
    "duplicated_cas_no": "139724-06-4",
    "SMILES": "C(C(O)=O)[C@@H]1[C@@H](C/C=C\\CC)C(=O)CC1",
    "meta_data": {
        "InChI": "InChI=1S/C12H18O3/c1-2-3-4-5-10-9(8-12(14)15)6-7-11(10)13/h3-4,9-10H,2,5-8H2,1H3,(H,14,15)/b4-3-/t9-,10-/m1/s1",
        "InChIKey": null,
        "Canonical SMILES": "O=C(O)CC1CCC(=O)C1CC=CCC",
        "Molecular Formula": "C<sub>12</sub>H<sub>18</sub>O<sub>3</sub>",
        "Molecular Mass": "210.27",
        "Boiling Point": "160 °C @ Press: 0.7 Torr"
    }
}