{
    "cas_no": "6928-85-4",
    "key_name": "1-Amino-4-methylpiperazine",
    "cn_name": "1-氨基-4-甲基哌嗪;",
    "alternate_name": "1-Piperazinamine, 4-methyl-;Piperazine, 1-amino-4-methyl-;4-Methyl-1-piperazinamine;1-Amino-4-methylpiperazine;1-Methyl-4-aminopiperazine;4-Methyl-1-aminopiperazine;<em>N</em>-Amino-<em>N</em>′-methylpiperazine;<em>N</em><sup>1</sup>-Methyl-<em>N</em><sup>4</sup>-aminopiperazine;NSC 80649;(4-Methylpiperazin-1-yl)amine;4-Amino-1-methylpiperazine",
    "duplicated_cas_no": "2135319-59-2",
    "SMILES": "CN1CCN(N)CC1",
    "meta_data": {
        "InChI": "InChI=1S/C5H13N3/c1-7-2-4-8(6)5-3-7/h2-6H2,1H3",
        "InChIKey": null,
        "Canonical SMILES": "NN1CCN(C)CC1",
        "Molecular Formula": "C<sub>5</sub>H<sub>13</sub>N<sub>3</sub>",
        "Molecular Mass": "115.18",
        "Boiling Point": "172-175 °C @ Press: 760 Torr"
    }
}