{
    "cas_no": "2672-58-4",
    "key_name": "Trimethyl 1,3,5-benzenetricarboxylate",
    "cn_name": "三甲基-1,3,5-苯三甲酸;",
    "alternate_name": "1,3,5-Benzenetricarboxylic acid, 1,3,5-trimethyl ester;1,3,5-Benzenetricarboxylic acid, trimethyl ester;Trimesic acid trimethyl ester;Trimethyl trimesate;Trimethyl 1,3,5-benzenetricarboxylate;1,3,5-Tris(methoxycarbonyl)benzene;1,3,5-Tricarbomethoxybenzene;NSC 61883;1,3,5-Tri(methoxycarbonyl)benzene;1,3,5-Trimethyl benzene-1,3,5-tricarboxylate",
    "duplicated_cas_no": "37251-58-4",
    "SMILES": "C(OC)(=O)C1=CC(C(OC)=O)=CC(C(OC)=O)=C1",
    "meta_data": {
        "InChI": "InChI=1S/C12H12O6/c1-16-10(13)7-4-8(11(14)17-2)6-9(5-7)12(15)18-3/h4-6H,1-3H3",
        "InChIKey": null,
        "Canonical SMILES": "O=C(OC)C=1C=C(C=C(C1)C(=O)OC)C(=O)OC",
        "Molecular Formula": "C<sub>12</sub>H<sub>12</sub>O<sub>6</sub>",
        "Molecular Mass": "252.22",
        "Melting Point": "143-144 °C"
    }
}