{
    "cas_no": "75-18-3",
    "key_name": "Dimethyl sulfide",
    "cn_name": "二甲基硫;二甲基硫醚;",
    "alternate_name": "Methane, 1,1′-thiobis-;Methyl sulfide;Methane, thiobis-;1,1′-Thiobis[methane];Dimethyl sulfide;DMS;2-Thiapropane;Dimethyl thioether;Methyl monosulfide;Dimethyl monosulfide;Dimethyl sulphide;Thiobis(methane);Methylthiomethane;Dimethylsulfane;(Methylsulfanyl)methane",
    "duplicated_cas_no": "956465-01-3",
    "SMILES": "S(C)C",
    "meta_data": {
        "InChI": "InChI=1S/C2H6S/c1-3-2/h1-2H3",
        "InChIKey": null,
        "Canonical SMILES": "S(C)C",
        "Molecular Formula": "C<sub>2</sub>H<sub>6</sub>S",
        "Molecular Mass": "62.13",
        "Boiling Point": "37.3 °C",
        "Melting Point": "-98.3 °C",
        "Density": "0.8483 g/cm³ @ Temp: 20 °C"
    }
}