{
    "cas_no": "60-82-2",
    "key_name": "Phloretin",
    "cn_name": "根皮素;三羟苯酚丙酮;2\",4\",6\"-三羟基-3-(4-羟基苯基)苯丙酮;",
    "alternate_name": "1-Propanone, 3-(4-hydroxyphenyl)-1-(2,4,6-trihydroxyphenyl)-;Phloretin;Propiophenone, 2′,4′,6′-trihydroxy-3-(<em>p</em>-hydroxyphenyl)-;3-(4-Hydroxyphenyl)-1-(2,4,6-trihydroxyphenyl)-1-propanone;Dihydronaringenin;β-(<em>p</em>-Hydroxyphenyl)phloropropiophenone;β-(<em>p</em>-Hydroxyphenyl)-2,4,6-trihydroxypropiophenone;Phloretol;2′,4′,6′-Trihydroxy-3-(<em>p</em>-hydroxyphenyl)propiophenone;NSC 407292;Naringenin dihydrochalcone;2′,4′,6′-Trihydroxy-3-(4-Hydroxyphenyl)propiophenone;RJC 02792;α,β-Dihydrochalconaringenin;MeSH ID: D010693",
    "duplicated_cas_no": "1623753-77-4",
    "SMILES": "C(CCC1=CC=C(O)C=C1)(=O)C2=C(O)C=C(O)C=C2O",
    "meta_data": {
        "InChI": "InChI=1S/C15H14O5/c16-10-4-1-9(2-5-10)3-6-12(18)15-13(19)7-11(17)8-14(15)20/h1-2,4-5,7-8,16-17,19-20H,3,6H2",
        "InChIKey": null,
        "Canonical SMILES": "O=C(C=1C(O)=CC(O)=CC1O)CCC2=CC=C(O)C=C2",
        "Molecular Formula": "C<sub>15</sub>H<sub>14</sub>O<sub>5</sub>",
        "Molecular Mass": "274.27",
        "Melting Point": "263.5 °C (decomp)"
    }
}