{
    "cas_no": "102676-31-3",
    "key_name": "Benzonitrile, 4-(5,6,7,8-tetrahydroimidazo[1,5-<em>a</em>]pyridin-5-yl)-, hydrochloride (1:1)",
    "cn_name": null,
    "alternate_name": "Benzonitrile, 4-(5,6,7,8-tetrahydroimidazo[1,5-<em>a</em>]pyridin-5-yl)-, hydrochloride (1:1);Benzonitrile, 4-(5,6,7,8-tetrahydroimidazo[1,5-<em>a</em>]pyridin-5-yl)-, monohydrochloride;Imidazo[1,5-<em>a</em>]pyridine, benzonitrile deriv.;CGS 16949A;Fadrozole hydrochloride;CGS 16949;Afema",
    "duplicated_cas_no": "102676-96-0",
    "SMILES": "C(#N)C1=CC=C(C2N3C(CCC2)=CN=C3)C=C1.Cl",
    "meta_data": {
        "InChI": "InChI=1S/C14H13N3.ClH/c15-8-11-4-6-12(7-5-11)14-3-1-2-13-9-16-10-17(13)14;/h4-7,9-10,14H,1-3H2;1H",
        "InChIKey": null,
        "Canonical SMILES": "Cl.N#CC1=CC=C(C=C1)C2N3C=NC=C3CCC2",
        "Molecular Formula": "C<sub>14</sub>H<sub>13</sub>N<sub>3</sub>.ClH",
        "Molecular Mass": "",
        "Melting Point": "117-118 °C"
    }
}