{
    "cas_no": "85440-79-5",
    "key_name": "2,3-Dihydro-2-methyl-1-nitroso-1<em>H</em>-indole",
    "cn_name": null,
    "alternate_name": "1<em>H</em>-Indole, 2,3-dihydro-2-methyl-1-nitroso-;1<em>H</em>-Indole, 2,3-dihydro-2-methyl-1-nitroso-, (±)-;2,3-Dihydro-2-methyl-1-nitroso-1<em>H</em>-indole;1-Nitroso-2-methylindoline;2-Methyl-1-nitroso-2,3-dihydro-1<em>H</em>-indole;2-Methyl-1-nitrosoindoline",
    "duplicated_cas_no": "84838-71-1",
    "SMILES": "N(=O)N1C=2C(CC1C)=CC=CC2",
    "meta_data": {
        "InChI": "InChI=1S/C9H10N2O/c1-7-6-8-4-2-3-5-9(8)11(7)10-12/h2-5,7H,6H2,1H3",
        "InChIKey": null,
        "Canonical SMILES": "O=NN1C=2C=CC=CC2CC1C",
        "Molecular Formula": "C<sub>9</sub>H<sub>10</sub>N<sub>2</sub>O",
        "Molecular Mass": "162.19",
        "Melting Point": "54-55 °C"
    }
}