{
    "cas_no": "5685-06-3",
    "key_name": "4-Methyl-2(3<em>H</em>)-thiazolethione",
    "cn_name": null,
    "alternate_name": "2(3<em>H</em>)-Thiazolethione, 4-methyl-;4-Thiazoline-2-thione, 4-methyl-;2-Thiazolethiol, 4-methyl-;4-Methyl-2(3<em>H</em>)-thiazolethione;4-Methylthiazoline-2-thione;2-Mercapto-4-methylthiazole;4-Methyl-4-thiazoline-2-thione;4-Methyl-2-mercaptothiazole;4-Methyl-2-thiazolethiol;2-Mercapto-4-methyl-1,3-thiazole;4-Methylthiazole-2-thione;NSC 40808",
    "duplicated_cas_no": "4498-39-9;69304-67-2",
    "SMILES": "CC=1NC(=S)SC1",
    "meta_data": {
        "InChI": "InChI=1S/C4H5NS2/c1-3-2-7-4(6)5-3/h2H,1H3,(H,5,6)",
        "InChIKey": null,
        "Canonical SMILES": "S=C1SC=C(N1)C",
        "Molecular Formula": "C<sub>4</sub>H<sub>5</sub>NS<sub>2</sub>",
        "Molecular Mass": "131.22",
        "Boiling Point": "188 °C @ Press: 3 Torr",
        "Melting Point": "89.3 °C"
    }
}