{
    "cas_no": "480-68-2",
    "key_name": "5-Nitrobarbituric acid",
    "cn_name": "5-硝基巴比土酸;5-硝基巴比妥酸;5-硝基丙二酰脲;5-硝基-2,4,6(1H,3H,5H)-嘧啶三酮;",
    "alternate_name": "2,4,6(1<em>H</em>,3<em>H</em>,5<em>H</em>)-Pyrimidinetrione, 5-nitro-;Barbituric acid, 5-nitro-;Dilituric acid;5-Nitro-2,4,6(1<em>H</em>,3<em>H</em>,5<em>H</em>)-pyrimidinetrione;5-Nitrobarbituric acid;5-Nitro-6-hydroxyuracil;2,4,6-Trihydroxy-5-nitropyrimidine;5-Nitro-2,4,6-pyrimidinetriol;5-Nitro-2,4,6-trihydroxypyrimidine;6-Hydroxy-5-nitro-2,4(1<em>H</em>,3<em>H</em>)-pyrimidinedione;NSC 5071",
    "duplicated_cas_no": "28176-10-5;104390-34-3;106351-49-9;408326-79-4;443922-47-2;506429-09-0;654052-69-4;882755-36-4;1071306-40-5",
    "SMILES": "N(=O)(=O)C1C(=O)NC(=O)NC1=O",
    "meta_data": {
        "InChI": "InChI=1S/C4H3N3O5/c8-2-1(7(11)12)3(9)6-4(10)5-2/h1H,(H2,5,6,8,9,10)",
        "InChIKey": null,
        "Canonical SMILES": "O=C1NC(=O)C(C(=O)N1)N(=O)=O",
        "Molecular Formula": "C<sub>4</sub>H<sub>3</sub>N<sub>3</sub>O<sub>5</sub>",
        "Molecular Mass": "173.08",
        "Melting Point": "180.5 °C"
    }
}