{
    "cas_no": "593-53-3",
    "key_name": "Fluoromethane",
    "cn_name": "氟甲烷; 甲基氟;",
    "alternate_name": "Methane, fluoro-;Fluoromethane;Methyl fluoride;Freon 41;Monofluoromethane;HFC 41;R 41 (refrigerant);R 41;F 41;Methyl fluoride dimer;Fluoromethane dimer;Freon R 41",
    "duplicated_cas_no": "102801-15-0;1519044-65-5",
    "SMILES": "CF",
    "meta_data": {
        "InChI": "InChI=1S/CH3F/c1-2/h1H3",
        "InChIKey": null,
        "Canonical SMILES": "FC",
        "Molecular Formula": "CH<sub>3</sub>F",
        "Molecular Mass": "34.03",
        "Boiling Point": "-78.4 °C",
        "Density": "0.8817 g/cm³"
    }
}