{
    "cas_no": "4562-27-0",
    "key_name": "4-Hydroxypyrimidine",
    "cn_name": "4-嘧啶酮;",
    "alternate_name": "4(3<em>H</em>)-Pyrimidinone;4(1<em>H</em>)-Pyrimidinone;4-Pyrimidinol;4-Hydroxypyrimidine;4-Oxopyrimidine;Deaminoisocytosine;4-Pyrimidinone;4-Pyrimidone;4(3<em>H</em>)-Pyrimidone;3<em>H</em>-Pyrimidin-4-one;NSC 1575;NSC 157911;Pyrimidine-4-ol;1<em>H</em>-Pyrimidin-6-one;3,4-Dihydropyrimidin-4-one",
    "duplicated_cas_no": "542-27-8;176773-03-8",
    "SMILES": "O=C1C=CN=CN1",
    "meta_data": {
        "InChI": "InChI=1S/C4H4N2O/c7-4-1-2-5-3-6-4/h1-3H,(H,5,6,7)",
        "InChIKey": null,
        "Canonical SMILES": "O=C1C=CN=CN1",
        "Molecular Formula": "C<sub>4</sub>H<sub>4</sub>N<sub>2</sub>O",
        "Molecular Mass": "96.09",
        "Melting Point": "164-165 °C"
    }
}