{
    "cas_no": "116-69-8",
    "key_name": "3-Bromophthalic acid",
    "cn_name": null,
    "alternate_name": "1,2-Benzenedicarboxylic acid, 3-bromo-;Phthalic acid, 3-bromo-;3-Bromo-1,2-benzenedicarboxylic acid;3-Bromophthalic acid",
    "duplicated_cas_no": "",
    "SMILES": "C(O)(=O)C1=C(C(O)=O)C=CC=C1Br",
    "meta_data": {
        "InChI": "InChI=1S/C8H5BrO4/c9-5-3-1-2-4(7(10)11)6(5)8(12)13/h1-3H,(H,10,11)(H,12,13)",
        "InChIKey": null,
        "Canonical SMILES": "O=C(O)C=1C=CC=C(Br)C1C(=O)O",
        "Molecular Formula": "C<sub>8</sub>H<sub>5</sub>BrO<sub>4</sub>",
        "Molecular Mass": "245.03",
        "Melting Point": "177-178 °C"
    }
}