{
    "cas_no": "99-21-8",
    "key_name": "<em>N</em>-(4-Amino-5-methoxy-2-methylphenyl)benzamide",
    "cn_name": null,
    "alternate_name": "Benzamide, <em>N</em>-(4-amino-5-methoxy-2-methylphenyl)-;<em>m</em>-Benzanisidide, 4′-amino-6′-methyl-;<em>N</em>-(4-Amino-5-methoxy-2-methylphenyl)benzamide;3-Amino-6-benzoylamido-4-methoxy-1-methylbenzol;4′-Amino-6′-methyl-<em>m</em>-benzanisidide;4-Amino-1-benzoylamino-3-methoxy-6-methylbenzene;Fast Violet B;<em>N</em>-(2-Methyl-5-methoxy-4-aminophenyl)benzamide",
    "duplicated_cas_no": "",
    "SMILES": "N(C(=O)C1=CC=CC=C1)C2=CC(OC)=C(N)C=C2C",
    "meta_data": {
        "InChI": "InChI=1S/C15H16N2O2/c1-10-8-12(16)14(19-2)9-13(10)17-15(18)11-6-4-3-5-7-11/h3-9H,16H2,1-2H3,(H,17,18)",
        "InChIKey": null,
        "Canonical SMILES": "O=C(NC1=CC(OC)=C(N)C=C1C)C=2C=CC=CC2",
        "Molecular Formula": "C<sub>15</sub>H<sub>16</sub>N<sub>2</sub>O<sub>2</sub>",
        "Molecular Mass": "256.30",
        "Melting Point": "185 °C"
    }
}