{
    "cas_no": "298-07-7",
    "key_name": "Bis(2-ethylhexyl) phosphate",
    "cn_name": "二(2-乙基己基)磷酸酯;双(2-乙基己基)磷酸酯;磷酸二异辛酯;磷酸二辛酯;",
    "alternate_name": "Phosphoric acid, bis(2-ethylhexyl) ester;1-Hexanol, 2-ethyl-, hydrogen phosphate;Bis(2-ethylhexyl) phosphate;Di(2-ethylhexyl)orthophosphoric acid;2-Ethyl-1-hexanol hydrogen phosphate;HDEHP;Di-2-ethylhexyl hydrogen phosphate;Bis(2-ethylhexyl) hydrogen phosphate;Bis(2-ethylhexyl) orthophosphate;<em>O</em>,<em>O</em>-Bis(2-ethylhexyl)phosphoric acid;<em>O</em>,<em>O</em>-Di(2-ethylhexyl)phosphoric acid;Hydrogen bis(2-ethylhexyl) phosphate;Di(2-ethylhexyl) phosphate;D 2EHPA;DP 8R;P 204 (acid);P 204;LB 58;Hostarex PA 216;Phosphoric acid di(2-ethylhexyl) ester;Orthophosphoric acid 2-ethylhexyl alcohol diester;Di(2-ethylhexyl)phosphoric acid;Dioctyl orthophosphate;Dioctyl phosphate;Dioctyl hydrogen phosphate;DEHAP;JB 58;HDEHPA;TOPS 99;DP 8;A 208 (phosphate);A 208;Baysolvex D 2EHPA;Phoslex A 208;DZ-Ni-EX 02",
    "duplicated_cas_no": "1179814-34-6",
    "SMILES": "P(OCC(CCCC)CC)(OCC(CCCC)CC)(=O)O",
    "meta_data": {
        "InChI": "InChI=1S/C16H35O4P/c1-5-9-11-15(7-3)13-19-21(17,18)20-14-16(8-4)12-10-6-2/h15-16H,5-14H2,1-4H3,(H,17,18)",
        "InChIKey": null,
        "Canonical SMILES": "O=P(O)(OCC(CC)CCCC)OCC(CC)CCCC",
        "Molecular Formula": "C<sub>16</sub>H<sub>35</sub>O<sub>4</sub>P",
        "Molecular Mass": "322.42",
        "Melting Point": "-50 °C",
        "Density": "0.973 g/cm³ @ Temp: 25 °C"
    }
}