{
    "cas_no": "550-90-3",
    "key_name": "(+)-Lupanine",
    "cn_name": "羽扇豆?;羽扇豆?;",
    "alternate_name": "7,14-Methano-2<em>H</em>,11<em>H</em>-dipyrido[1,2-<em>a</em>:1′,2′-<em>e</em>][1,5]diazocin-11-one, dodecahydro-, (7<em>S</em>,7a<em>R</em>,14<em>S</em>,14a<em>S</em>)-;Lupanine;7,14-Methano-2<em>H</em>,11<em>H</em>-dipyrido[1,2-<em>a</em>:1′,2′-<em>e</em>][1,5]diazocin-11-one, dodecahydro-, [7<em>S</em>-(7α,7aα,14α,14aβ)]-;Lupanine, <em>d</em>-;(7<em>S</em>,7a<em>R</em>,14<em>S</em>,14a<em>S</em>)-Dodecahydro-7,14-methano-2<em>H</em>,11<em>H</em>-dipyrido[1,2-<em>a</em>:1′,2′-<em>e</em>][1,5]diazocin-11-one;Lupanin;2-Oxosparteine;(+)-Lupanine;7,14-Methano-4<em>H</em>,6<em>H</em>-dipyrido[1,2-<em>a</em>:1′,2′-<em>e</em>][1,5]diazocin-4-one, dodecahydro-, [7<em>S</em>-(7α,7aβ,14α,14aα)]-;<em>d</em>-Lupanine;(+)-2-Oxosparteine;<span class=\"text-smallcaps\">D</span>-(+)-Lupanine;<span class=\"text-smallcaps\">D</span>-Lupanine",
    "duplicated_cas_no": "1617-54-5;15043-15-9",
    "SMILES": "O=C1N2[C@@]([C@]3(C[C@@](C2)([C@]4(N(C3)CCCC4)[H])[H])[H])(CCC1)[H]",
    "meta_data": {
        "InChI": "InChI=1S/C15H24N2O/c18-15-6-3-5-14-11-8-12(10-17(14)15)13-4-1-2-7-16(13)9-11/h11-14H,1-10H2/t11-,12-,13-,14+/m0/s1",
        "InChIKey": null,
        "Canonical SMILES": "O=C1N2CC3CC(CN4CCCCC43)C2CCC1",
        "Molecular Formula": "C<sub>15</sub>H<sub>24</sub>N<sub>2</sub>O",
        "Molecular Mass": "248.36",
        "Boiling Point": "186-188 °C @ Press: 1 Torr",
        "Melting Point": "99 °C"
    }
}