{
    "cas_no": "2539-53-9",
    "key_name": "4-Ethoxy-3-hydroxybenzaldehyde",
    "cn_name": null,
    "alternate_name": "Benzaldehyde, 4-ethoxy-3-hydroxy-;4-Ethoxy-3-hydroxybenzaldehyde;Isoethylvanillin;3-Hydroxy-4-ethoxybenzaldehyde",
    "duplicated_cas_no": "",
    "SMILES": "O(CC)C1=C(O)C=C(C=O)C=C1",
    "meta_data": {
        "InChI": "InChI=1S/C9H10O3/c1-2-12-9-4-3-7(6-10)5-8(9)11/h3-6,11H,2H2,1H3",
        "InChIKey": null,
        "Canonical SMILES": "O=CC1=CC=C(OCC)C(O)=C1",
        "Molecular Formula": "C<sub>9</sub>H<sub>10</sub>O<sub>3</sub>",
        "Molecular Mass": "166.17",
        "Melting Point": "125 °C"
    }
}