{
    "cas_no": "463-04-7",
    "key_name": "Amyl nitrite",
    "cn_name": "亚硝酸正戊酯;",
    "alternate_name": "Nitrous acid, pentyl ester;Pentyl nitrite;<em>n</em>-Amyl nitrite;Nitramyl;Amyl nitrite;1-Pentyl nitrite;<em>n</em>-Pentyl nitrite",
    "duplicated_cas_no": "",
    "SMILES": "C(CON=O)CCC",
    "meta_data": {
        "InChI": "InChI=1S/C5H11NO2/c1-2-3-4-5-8-6-7/h2-5H2,1H3",
        "InChIKey": null,
        "Canonical SMILES": "O=NOCCCCC",
        "Molecular Formula": "C<sub>5</sub>H<sub>11</sub>NO<sub>2</sub>",
        "Molecular Mass": "117.15",
        "Boiling Point": "104.5 °C"
    }
}