{
    "cas_no": "71082-47-8",
    "key_name": "6-Methoxyquinoline-3-carboxylic acid",
    "cn_name": null,
    "alternate_name": "3-Quinolinecarboxylic acid, 6-methoxy-;6-Methoxy-3-quinolinecarboxylic acid;6-Methoxyquinoline-3-carboxylic acid",
    "duplicated_cas_no": "",
    "SMILES": "C(O)(=O)C1=CC2=C(C=CC(OC)=C2)N=C1",
    "meta_data": {
        "InChI": "InChI=1S/C11H9NO3/c1-15-9-2-3-10-7(5-9)4-8(6-12-10)11(13)14/h2-6H,1H3,(H,13,14)",
        "InChIKey": null,
        "Canonical SMILES": "O=C(O)C1=CN=C2C=CC(OC)=CC2=C1",
        "Molecular Formula": "C<sub>11</sub>H<sub>9</sub>NO<sub>3</sub>",
        "Molecular Mass": "203.19",
        "Melting Point": "273 °C"
    }
}