{
    "cas_no": "372-75-8",
    "key_name": "Citrulline",
    "cn_name": "L-瓜氨酸;L(+)-2-氨基-5-脲戊酸;脲氨基戊酸;",
    "alternate_name": "<span class=\"text-smallcaps\">L</span>-Ornithine, <em>N</em><sup>5</sup>-(aminocarbonyl)-;Ornithine, <em>N</em><sup>5</sup>-carbamoyl-, <span class=\"text-smallcaps\">L</span>-;<em>N</em><sup>5</sup>-(Aminocarbonyl)-<span class=\"text-smallcaps\">L</span>-ornithine;α-Amino-δ-ureidovaleric acid;<em>N</em><sup>δ</sup>-Carbamylornithine;δ-Ureidonorvaline;Citrulline;<em>N</em><sup>5</sup>-Carbamoyl-<span class=\"text-smallcaps\">L</span>-ornithine;Cit;<span class=\"text-smallcaps\">L</span>-Citrulline;NSC 27425;<span class=\"text-smallcaps\">L</span>-(+)-Citrulline;164: PN: US20220128567 SEQID: 529 claimed sequence;164: PN: US20220178935 SEQID: 529 claimed sequence;MeSH ID: D002956;527: PN: WO2023172654 SEQID: 529 claimed sequence",
    "duplicated_cas_no": "",
    "SMILES": "C(CCNC(N)=O)[C@@H](C(O)=O)N",
    "meta_data": {
        "InChI": "InChI=1S/C6H13N3O3/c7-4(5(10)11)2-1-3-9-6(8)12/h4H,1-3,7H2,(H,10,11)(H3,8,9,12)/t4-/m0/s1",
        "InChIKey": null,
        "Canonical SMILES": "O=C(N)NCCCC(N)C(=O)O",
        "Molecular Formula": "C<sub>6</sub>H<sub>13</sub>N<sub>3</sub>O<sub>3</sub>",
        "Molecular Mass": "175.19",
        "Melting Point": "235.5 °C",
        "Density": "1.384 g/cm³ (solid)"
    }
}