{
    "cas_no": "86-53-3",
    "key_name": "1-Naphthalenecarbonitrile",
    "cn_name": "1-萘甲腈;1-氰基萘;",
    "alternate_name": "1-Naphthalenecarbonitrile;1-Naphthonitrile;α-Naphthonitrile;α-Naphthyl cyanide;1-Cyanonaphthalene;1-Naphthylnitrile;α-Cyanonaphthalene;1-Naphthalenenitrile;1-Naphthyl cyanide;NSC 60230",
    "duplicated_cas_no": "",
    "SMILES": "C(#N)C=1C2=C(C=CC1)C=CC=C2",
    "meta_data": {
        "InChI": "InChI=1S/C11H7N/c12-8-10-6-3-5-9-4-1-2-7-11(9)10/h1-7H",
        "InChIKey": null,
        "Canonical SMILES": "N#CC1=CC=CC=2C=CC=CC12",
        "Molecular Formula": "C<sub>11</sub>H<sub>7</sub>N",
        "Molecular Mass": "153.18",
        "Boiling Point": "299 °C",
        "Melting Point": "37.5 °C"
    }
}