{
    "cas_no": "3079-63-8",
    "key_name": "<em>N</em>-[(Phenylmethoxy)carbonyl]glycyl-<span class=\"text-smallcaps\">L</span>-alanine",
    "cn_name": "Z-GLY-ALA-OH;",
    "alternate_name": "<span class=\"text-smallcaps\">L</span>-Alanine, <em>N</em>-[(phenylmethoxy)carbonyl]glycyl-;Alanine, <em>N</em>-(<em>N</em>-carboxyglycyl)-, <em>N</em>-benzyl ester, <span class=\"text-smallcaps\">L</span>-;<span class=\"text-smallcaps\">L</span>-Alanine, <em>N</em>-[<em>N</em>-[(phenylmethoxy)carbonyl]glycyl]-;<em>N</em>-[(Phenylmethoxy)carbonyl]glycyl-<span class=\"text-smallcaps\">L</span>-alanine;(Benzyloxycarbonyl)glycyl-<span class=\"text-smallcaps\">L</span>-alanine;<em>N</em>-(Benzyloxycarbonyl)glycyl-<span class=\"text-smallcaps\">L</span>-alanine;<em>N</em>-(Benzyloxycarbonyl)glycylalanine;NSC 169157;(2S)-2-[[2-(Phenylmethoxycarbonylamino)acetyl]amino]propanoic acid",
    "duplicated_cas_no": "",
    "SMILES": "C(OC(NCC(N[C@H](C(O)=O)C)=O)=O)C1=CC=CC=C1",
    "meta_data": {
        "InChI": "InChI=1S/C13H16N2O5/c1-9(12(17)18)15-11(16)7-14-13(19)20-8-10-5-3-2-4-6-10/h2-6,9H,7-8H2,1H3,(H,14,19)(H,15,16)(H,17,18)/t9-/m0/s1",
        "InChIKey": null,
        "Canonical SMILES": "O=C(OCC=1C=CC=CC1)NCC(=O)NC(C(=O)O)C",
        "Molecular Formula": "C<sub>13</sub>H<sub>16</sub>N<sub>2</sub>O<sub>5</sub>",
        "Molecular Mass": "280.28",
        "Melting Point": "177 °C"
    }
}