{
    "cas_no": "50670-58-1",
    "key_name": "4′-Bromo[1,1′-biphenyl]-4-carboxaldehyde",
    "cn_name": null,
    "alternate_name": "[1,1′-Biphenyl]-4-carboxaldehyde, 4′-bromo-;4′-Bromo[1,1′-biphenyl]-4-carboxaldehyde;4′-Bromo-4-biphenylcarboxaldehyde;4-(4-Bromophenyl)benzaldehyde;4-Bromo-4′-formylbiphenyl;4′-Bromobiphenyl-4-carbaldehyde;4′-Bromo-[1,1′-biphenyl]-4-carbaldehyde",
    "duplicated_cas_no": "2222571-94-8",
    "SMILES": "C(=O)C1=CC=C(C=C1)C2=CC=C(Br)C=C2",
    "meta_data": {
        "InChI": "InChI=1S/C13H9BrO/c14-13-7-5-12(6-8-13)11-3-1-10(9-15)2-4-11/h1-9H",
        "InChIKey": null,
        "Canonical SMILES": "O=CC1=CC=C(C=C1)C=2C=CC(Br)=CC2",
        "Molecular Formula": "C<sub>13</sub>H<sub>9</sub>BrO",
        "Molecular Mass": "261.11",
        "Melting Point": "135-140 °C"
    }
}