{
    "cas_no": "4840-63-5",
    "key_name": "5-(Ethylsulfonyl)-2-methoxybenzoic acid",
    "cn_name": "2-甲氧基-5-乙砜基苯甲酸;",
    "alternate_name": "Benzoic acid, 5-(ethylsulfonyl)-2-methoxy-;<em>o</em>-Anisic acid, 5-(ethylsulfonyl)-;5-(Ethylsulfonyl)-2-methoxybenzoic acid;2-Methoxy-5-(ethylsulfonyl)benzoic acid;3-Ethylsulfonyl-6-methoxybenzoic acid;2-Methoxy-5-ethylsulphonyl benzoic acid",
    "duplicated_cas_no": "",
    "SMILES": "S(CC)(=O)(=O)C1=CC(C(O)=O)=C(OC)C=C1",
    "meta_data": {
        "InChI": "InChI=1S/C10H12O5S/c1-3-16(13,14)7-4-5-9(15-2)8(6-7)10(11)12/h4-6H,3H2,1-2H3,(H,11,12)",
        "InChIKey": null,
        "Canonical SMILES": "O=C(O)C1=CC(=CC=C1OC)S(=O)(=O)CC",
        "Molecular Formula": "C<sub>10</sub>H<sub>12</sub>O<sub>5</sub>S",
        "Molecular Mass": "244.26",
        "Melting Point": "124.0-125.5 °C"
    }
}