{
    "cas_no": "139756-02-8",
    "key_name": "4-Amino-1-methyl-3-propyl-1<em>H</em>-pyrazole-5-carboxamide",
    "cn_name": "4-氨基-1-甲基-3-正丙基-1H-吡唑-5-甲酰胺;",
    "alternate_name": "1<em>H</em>-Pyrazole-5-carboxamide, 4-amino-1-methyl-3-propyl-;4-Amino-1-methyl-3-propyl-1<em>H</em>-pyrazole-5-carboxamide;4-Amino-1-methyl-3-propylpyrazole-5-carboxamide;4-Amino-2-methyl-5-propyl-2<em>H</em>-pyrazole-3-carboxamide",
    "duplicated_cas_no": "",
    "SMILES": "C(N)(=O)C1=C(N)C(CCC)=NN1C",
    "meta_data": {
        "InChI": "InChI=1S/C8H14N4O/c1-3-4-5-6(9)7(8(10)13)12(2)11-5/h3-4,9H2,1-2H3,(H2,10,13)",
        "InChIKey": null,
        "Canonical SMILES": "O=C(N)C1=C(N)C(=NN1C)CCC",
        "Molecular Formula": "C<sub>8</sub>H<sub>14</sub>N<sub>4</sub>O",
        "Molecular Mass": "182.22",
        "Melting Point": "98 °C"
    }
}