{
    "cas_no": "2030-63-9",
    "key_name": "Clofazimine",
    "cn_name": "氯苯吩嗪;N,5-二(4-氯苯基)-3,5-二氢-3-(异丙亚氨基)吩嗪-2-胺;",
    "alternate_name": "2-Phenazinamine, <em>N</em>,5-bis(4-chlorophenyl)-3,5-dihydro-3-[(1-methylethyl)imino]-;Phenazine, 3-(<em>p</em>-chloroanilino)-10-(<em>p</em>-chlorophenyl)-2,10-dihydro-2-(isopropylimino)-;<em>N</em>,5-Bis(4-chlorophenyl)-3,5-dihydro-3-[(1-methylethyl)imino]-2-phenazinamine;G 30320;3-(<em>p</em>-Chloroanilino)-10-(<em>p</em>-chlorophenyl)-2,10-dihydro-2-(isopropylimino)phenazine;Clofazimine;B 663 (pharmaceutical);B 663;Chlofazimine;2-(4-Chloroanilino)-3-isopropylimino-5-(4-chlorophenyl)-3,5-dihydrophenazine;2-<em>p</em>-Chloroanilino-5-<em>p</em>-chlorophenyl-3,5-dihydro-3-isopropyliminophenazine;Lampren;Hansepran;Lamprene;NSC 141046;MeSH ID: D002991",
    "duplicated_cas_no": "",
    "SMILES": "N(C(C)C)=C1C=C2N(C=3C(N=C2C=C1NC4=CC=C(Cl)C=C4)=CC=CC3)C5=CC=C(Cl)C=C5",
    "meta_data": {
        "InChI": "InChI=1S/C27H22Cl2N4/c1-17(2)30-24-16-27-25(15-23(24)31-20-11-7-18(28)8-12-20)32-22-5-3-4-6-26(22)33(27)21-13-9-19(29)10-14-21/h3-17,31H,1-2H3",
        "InChIKey": null,
        "Canonical SMILES": "ClC1=CC=C(C=C1)NC2=CC3=NC=4C=CC=CC4N(C5=CC=C(Cl)C=C5)C3=CC2=NC(C)C",
        "Molecular Formula": "C<sub>27</sub>H<sub>22</sub>Cl<sub>2</sub>N<sub>4</sub>",
        "Molecular Mass": "473.40",
        "Melting Point": "210-212 °C"
    }
}