{
    "cas_no": "61785-35-1",
    "key_name": "(5-Chloro-2-hydroxyphenyl)(2-chlorophenyl)methanone",
    "cn_name": "2,5-二氯-2-羟基二苯酮;",
    "alternate_name": "Methanone, (5-chloro-2-hydroxyphenyl)(2-chlorophenyl)-;(5-Chloro-2-hydroxyphenyl)(2-chlorophenyl)methanone;2′,5-Dichloro-2-hydroxybenzophenone;SL 810196",
    "duplicated_cas_no": "",
    "SMILES": "C(=O)(C1=C(O)C=CC(Cl)=C1)C2=C(Cl)C=CC=C2",
    "meta_data": {
        "InChI": "InChI=1S/C13H8Cl2O2/c14-8-5-6-12(16)10(7-8)13(17)9-3-1-2-4-11(9)15/h1-7,16H",
        "InChIKey": null,
        "Canonical SMILES": "O=C(C=1C=CC=CC1Cl)C2=CC(Cl)=CC=C2O",
        "Molecular Formula": "C<sub>13</sub>H<sub>8</sub>Cl<sub>2</sub>O<sub>2</sub>",
        "Molecular Mass": "267.11",
        "Melting Point": "106.5-107.5 °C"
    }
}