{
    "cas_no": "13368-45-1",
    "key_name": "1-Ethenyl-<em>N</em>,<em>N</em>,<em>N</em>′,<em>N</em>′,1-pentamethylsilanediamine",
    "cn_name": "二(二甲氨基)甲基乙烯基硅烷;",
    "alternate_name": "Silanediamine, 1-ethenyl-<em>N</em>,<em>N</em>,<em>N</em>′,<em>N</em>′,1-pentamethyl-;Silanediamine, <em>N</em>,<em>N</em>,<em>N</em>′,<em>N</em>′,1-pentamethyl-1-vinyl-;1-Ethenyl-<em>N</em>,<em>N</em>,<em>N</em>′,<em>N</em>′,1-pentamethylsilanediamine;Methylvinylbis(dimethylamino)silane;Vinylmethylbis(dimethylamino)silane;Bis(dimethylamino)methylvinylsilane;Bis(dimethylamino)vinylmethylsilane;[(Dimethylamino)(ethenyl)methylsilyl]dimethylamine",
    "duplicated_cas_no": "",
    "SMILES": "[Si](N(C)C)(N(C)C)(C=C)C",
    "meta_data": {
        "InChI": "InChI=1S/C7H18N2Si/c1-7-10(6,8(2)3)9(4)5/h7H,1H2,2-6H3",
        "InChIKey": null,
        "Canonical SMILES": "C=C[Si](N(C)C)(N(C)C)C",
        "Molecular Formula": "C<sub>7</sub>H<sub>18</sub>N<sub>2</sub>Si",
        "Molecular Mass": "158.32",
        "Boiling Point": "146-147 °C"
    }
}