{
    "cas_no": "774-48-1",
    "key_name": "(Diethoxymethyl)benzene",
    "cn_name": "苯甲醛二乙缩醛;",
    "alternate_name": "Benzene, (diethoxymethyl)-;Benzaldehyde, diethyl acetal;(Diethoxymethyl)benzene;α,α-Diethoxytoluene;Diethoxyphenylmethane;Diethyl benzaldehyde acetal;Ethyl phenyl acetal;NSC 287;1,1-Diethoxymethylbenzene",
    "duplicated_cas_no": "",
    "SMILES": "C(OCC)(OCC)C1=CC=CC=C1",
    "meta_data": {
        "InChI": "InChI=1S/C11H16O2/c1-3-12-11(13-4-2)10-8-6-5-7-9-10/h5-9,11H,3-4H2,1-2H3",
        "InChIKey": null,
        "Canonical SMILES": "O(CC)C(OCC)C=1C=CC=CC1",
        "Molecular Formula": "C<sub>11</sub>H<sub>16</sub>O<sub>2</sub>",
        "Molecular Mass": "180.24",
        "Boiling Point": "217-221 °C",
        "Density": "0.97875 g/cm³ @ Temp: 25 °C"
    }
}