{
    "cas_no": "5870-29-1",
    "key_name": "Cyclopentolate hydrochloride",
    "cn_name": "盐酸环喷托酯;",
    "alternate_name": "Benzeneacetic acid, α-(1-hydroxycyclopentyl)-, 2-(dimethylamino)ethyl ester, hydrochloride (1:1);Benzeneacetic acid, α-(1-hydroxycyclopentyl)-, 2-(dimethylamino)ethyl ester, hydrochloride;Cyclopentaneacetic acid, 1-hydroxy-α-phenyl-, 2-(dimethylamino)ethyl ester hydrochloride;Cyclopentolate hydrochloride;β-Dimethylaminoethyl (1-hydroxycyclopentyl)phenylacetate hydrochloride;2-(Dimethylamino)ethyl 1-hydroxy-α-phenylcyclopentaneacetate hydrochloride;(±)-Cyclopentolate-hydrochloride;Zyklolat;Mydplegic;Ak-Pentolate;Mydrilate;Alnide;Cyplegin;Cyclate;Cyclogik",
    "duplicated_cas_no": "60452-45-1",
    "SMILES": "C(C(OCCN(C)C)=O)(C1(O)CCCC1)C2=CC=CC=C2.Cl",
    "meta_data": {
        "InChI": "InChI=1S/C17H25NO3.ClH/c1-18(2)12-13-21-16(19)15(14-8-4-3-5-9-14)17(20)10-6-7-11-17;/h3-5,8-9,15,20H,6-7,10-13H2,1-2H3;1H",
        "InChIKey": null,
        "Canonical SMILES": "Cl.O=C(OCCN(C)C)C(C=1C=CC=CC1)C2(O)CCCC2",
        "Molecular Formula": "C<sub>17</sub>H<sub>25</sub>NO<sub>3</sub>.ClH",
        "Molecular Mass": "",
        "Melting Point": "137-141 °C"
    }
}