{
    "cas_no": "23434-88-0",
    "key_name": "Tetrahydropiperine",
    "cn_name": null,
    "alternate_name": "1-Pentanone, 5-(1,3-benzodioxol-5-yl)-1-(1-piperidinyl)-;Piperidine, 1-[5-[3,4-(methylenedioxy)phenyl]valeryl]-;Piperidine, 1-[5-(1,3-benzodioxol-5-yl)-1-oxopentyl]-;5-(1,3-Benzodioxol-5-yl)-1-(1-piperidinyl)-1-pentanone;Tetrahydropiperine;Cosmoperine;Tetrahydropiperidine",
    "duplicated_cas_no": "",
    "SMILES": "C(CCCC(=O)N1CCCCC1)C=2C=C3C(=CC2)OCO3",
    "meta_data": {
        "InChI": "InChI=1S/C17H23NO3/c19-17(18-10-4-1-5-11-18)7-3-2-6-14-8-9-15-16(12-14)21-13-20-15/h8-9,12H,1-7,10-11,13H2",
        "InChIKey": null,
        "Canonical SMILES": "O=C(N1CCCCC1)CCCCC2=CC=C3OCOC3=C2",
        "Molecular Formula": "C<sub>17</sub>H<sub>23</sub>NO<sub>3</sub>",
        "Molecular Mass": "289.37",
        "Boiling Point": "261 °C @ Press: 14 Torr"
    }
}