{
    "cas_no": "75-37-6",
    "key_name": "1,1-Difluoroethane",
    "cn_name": "1,1-二氟乙烷;氟里昂-152a;",
    "alternate_name": "Ethane, 1,1-difluoro-;1,1-Difluoroethane;Algofrene 67;Ethylidene fluoride;Genetron 152A;FC 152a;R 152a;Dymel 152;FKW 152a;HFC 152a;Fron 152a;F 152A;Dymel 152A;HCFC 152a;HFA 152a;TG 152a;Solkane 152a;Propellant 152A;Formacel Z 2;HFO 152a;152a;Freon R 152a",
    "duplicated_cas_no": "71281-71-5",
    "SMILES": "C(C)(F)F",
    "meta_data": {
        "InChI": "InChI=1S/C2H4F2/c1-2(3)4/h2H,1H3",
        "InChIKey": null,
        "Canonical SMILES": "FC(F)C",
        "Molecular Formula": "C<sub>2</sub>H<sub>4</sub>F<sub>2</sub>",
        "Molecular Mass": "66.05",
        "Boiling Point": "-24.7 °C",
        "Melting Point": "-117 °C",
        "Density": "0.91 g/cm³ @ Temp: 21 °C"
    }
}