{
    "cas_no": "84-65-1",
    "key_name": "Anthraquinone",
    "cn_name": "蒽醌;",
    "alternate_name": "9,10-Anthracenedione;Anthraquinone;Hoelite;9,10-Anthraquinone;Anthradione;Morkit;Anthracene-9,10-quinone;DAQ-N;Flight Control;NSC 7957;Flight Control Plus;1,4,11,12-Tetrahydro-9,10-anthraquinone;SAQ;Kawasaki SAQ;SAQ (quinone);Avipel;DBLE 104",
    "duplicated_cas_no": "790240-52-7",
    "SMILES": "O=C1C=2C(C(=O)C=3C1=CC=CC3)=CC=CC2",
    "meta_data": {
        "InChI": "InChI=1S/C14H8O2/c15-13-9-5-1-2-6-10(9)14(16)12-8-4-3-7-11(12)13/h1-8H",
        "InChIKey": null,
        "Canonical SMILES": "O=C1C=2C=CC=CC2C(=O)C=3C=CC=CC13",
        "Molecular Formula": "C<sub>14</sub>H<sub>8</sub>O<sub>2</sub>",
        "Molecular Mass": "208.21",
        "Boiling Point": "377 °C @ Press: 760 Torr",
        "Melting Point": "286 °C",
        "Density": "1.05814 g/cm³ @ Temp: 302.6 °C"
    }
}