{
    "cas_no": "4672-49-5",
    "key_name": "1,2-Ethanediol, 1,2-dimethanesulfonate",
    "cn_name": null,
    "alternate_name": "1,2-Ethanediol, 1,2-dimethanesulfonate;Ethylene glycol, dimethanesulfonate;Methanesulfonic acid, ethylene ester;1,2-Ethanediol, dimethanesulfonate;Ethylene bis(methanesulfonate);NSC 10716;1,2-Ethanediyl dimethanesulfonate;1,2-Bis(mesyloxy)ethane;Ethylene glycol dimesylate;1,2-Bis(methanesulfonyloxy)ethane;1,2-Bis(methylsulfonyloxy)ethane;Ethylene dimethanesulfonate;Ethane dimethanesulfonate;NSC 17016;Ethylene glycol bis(methanesulfonate);2-Methylsulfonyloxyethyl methanesulfonate;2-(Methanesulfonyloxy)ethyl methanesulfonate",
    "duplicated_cas_no": "",
    "SMILES": "O(S(C)(=O)=O)CCOS(C)(=O)=O",
    "meta_data": {
        "InChI": "InChI=1S/C4H10O6S2/c1-11(5,6)9-3-4-10-12(2,7)8/h3-4H2,1-2H3",
        "InChIKey": null,
        "Canonical SMILES": "O=S(=O)(OCCOS(=O)(=O)C)C",
        "Molecular Formula": "C<sub>4</sub>H<sub>10</sub>O<sub>6</sub>S<sub>2</sub>",
        "Molecular Mass": "218.25",
        "Melting Point": "35-36 °C",
        "Density": "1.65 g/cm³"
    }
}