{
    "cas_no": "700-63-0",
    "key_name": "2-Amino-2-phenylacetamide",
    "cn_name": null,
    "alternate_name": "Benzeneacetamide, α-amino-;Acetamide, 2-amino-2-phenyl-;α-Aminobenzeneacetamide;α-Amino-α-phenylacetamide;2-Amino-2-phenylacetamide;<span class=\"text-smallcaps\">DL</span>-Phenylglycinamide;<span class=\"text-smallcaps\">DL</span>-Phenylglycine amide;<span class=\"text-smallcaps\">DL</span>-α-Phenylglycine amide;(±)-α-Aminobenzeneacetamide;NSC 47695",
    "duplicated_cas_no": "58429-87-1",
    "SMILES": "C(C(N)=O)(N)C1=CC=CC=C1",
    "meta_data": {
        "InChI": "InChI=1S/C8H10N2O/c9-7(8(10)11)6-4-2-1-3-5-6/h1-5,7H,9H2,(H2,10,11)",
        "InChIKey": null,
        "Canonical SMILES": "O=C(N)C(N)C=1C=CC=CC1",
        "Molecular Formula": "C<sub>8</sub>H<sub>10</sub>N<sub>2</sub>O",
        "Molecular Mass": "150.18",
        "Melting Point": "128-129 °C"
    }
}