{
    "cas_no": "5399-92-8",
    "key_name": "4-Chloro-1<em>H</em>-pyrazolo[3,4-<em>d</em>]pyrimidine",
    "cn_name": "4-氯-1H-吡唑并[3,4-d]嘧啶;",
    "alternate_name": "1<em>H</em>-Pyrazolo[3,4-<em>d</em>]pyrimidine, 4-chloro-;4-Chloro-1<em>H</em>-pyrazolo[3,4-<em>d</em>]pyrimidine;4-Chloropyrazolo[3,4-<em>d</em>]pyrimidine;NSC 4937",
    "duplicated_cas_no": "",
    "SMILES": "ClC1=C2C(=NC=N1)NN=C2",
    "meta_data": {
        "InChI": "InChI=1S/C5H3ClN4/c6-4-3-1-9-10-5(3)8-2-7-4/h1-2H,(H,7,8,9,10)",
        "InChIKey": null,
        "Canonical SMILES": "ClC1=NC=NC=2NN=CC12",
        "Molecular Formula": "C<sub>5</sub>H<sub>3</sub>ClN<sub>4</sub>",
        "Molecular Mass": "154.56",
        "Melting Point": "150-155 °C (decomp)"
    }
}