{
    "cas_no": "57808-66-9",
    "key_name": "Domperidone",
    "cn_name": "多潘立酮;5-氯-1-[1-[3-(2,3-二氢-2-氧代-1H-苯并咪唑-1-基)丙基]哌啶-4-基]-1,3-二氢-2H-苯并咪唑-2-酮;",
    "alternate_name": "2<em>H</em>-Benzimidazol-2-one, 5-chloro-1-[1-[3-(2,3-dihydro-2-oxo-1<em>H</em>-benzimidazol-1-yl)propyl]-4-piperidinyl]-1,3-dihydro-;5-Chloro-1-[1-[3-(2,3-dihydro-2-oxo-1<em>H</em>-benzimidazol-1-yl)propyl]-4-piperidinyl]-1,3-dihydro-2<em>H</em>-benzimidazol-2-one;Domperidone;Motilium;KW 5338;R 33812;Nauzelin;Nauzelin Ds;Mod;Peridys;Gastronorm;Euciton;Peridon;Evoxin;NSC 299589;Motillium;Motinorm costi;Nomit;Domperi 10 DT;Domcolic;MeSH ID: D004294",
    "duplicated_cas_no": "",
    "SMILES": "O=C1N(C=2C(N1)=CC(Cl)=CC2)C3CCN(CCCN4C=5C(NC4=O)=CC=CC5)CC3",
    "meta_data": {
        "InChI": "InChI=1S/C22H24ClN5O2/c23-15-6-7-20-18(14-15)25-22(30)28(20)16-8-12-26(13-9-16)10-3-11-27-19-5-2-1-4-17(19)24-21(27)29/h1-2,4-7,14,16H,3,8-13H2,(H,24,29)(H,25,30)",
        "InChIKey": null,
        "Canonical SMILES": "O=C1NC=2C=CC=CC2N1CCCN3CCC(N4C(=O)NC5=CC(Cl)=CC=C54)CC3",
        "Molecular Formula": "C<sub>22</sub>H<sub>24</sub>ClN<sub>5</sub>O<sub>2</sub>",
        "Molecular Mass": "425.91",
        "Melting Point": "242.5 °C"
    }
}