{
    "cas_no": "1553-60-2",
    "key_name": "Ibufenac",
    "cn_name": "异丁芬酸;",
    "alternate_name": "Benzeneacetic acid, 4-(2-methylpropyl)-;Acetic acid, (<em>p</em>-isobutylphenyl)-;4-(2-Methylpropyl)benzeneacetic acid;Ibufenac;(<em>p</em>-Isobutylphenyl)acetic acid;4-Isobutylphenylacetic acid;Dytransin;Ibunac;Isodilan;Medirex;4-Isobutoxyphenylacetic acid;RD 11654;NSC 99976;4-(2-Methylpropyl)phenylacetic acid;2-(4-Isobutylphenyl)acetic acid;2-[4-(2-Methylpropyl)phenyl]acetic acid",
    "duplicated_cas_no": "",
    "SMILES": "C(C(C)C)C1=CC=C(CC(O)=O)C=C1",
    "meta_data": {
        "InChI": "InChI=1S/C12H16O2/c1-9(2)7-10-3-5-11(6-4-10)8-12(13)14/h3-6,9H,7-8H2,1-2H3,(H,13,14)",
        "InChIKey": null,
        "Canonical SMILES": "O=C(O)CC1=CC=C(C=C1)CC(C)C",
        "Molecular Formula": "C<sub>12</sub>H<sub>16</sub>O<sub>2</sub>",
        "Molecular Mass": "192.25",
        "Melting Point": "85-87 °C"
    }
}