{
    "cas_no": "1679-47-6",
    "key_name": "α-Methyl-γ-butyrolactone",
    "cn_name": "甲基-&gamma;-丁内酯;3-甲基-二氢-2(3H)-呋喃酮;&alpha;-甲基-&gamma;-丁内酯;丁酸-4-氢氧-2-甲基-&gamma;-;",
    "alternate_name": "2(3<em>H</em>)-Furanone, dihydro-3-methyl-;Butyric acid, 4-hydroxy-2-methyl-, γ-lactone;Butyric acid, γ-hydroxy-α-methyl-, γ-lactone;Dihydro-3-methyl-2(3<em>H</em>)-furanone;α-Methyl-γ-butyrolactone;2-Methylbutanolide;2-Methyl-γ-butyrolactone;2-Methyl-4-butanolide;4-Hydroxy-2-methylbutyric acid lactone;α-Methylbutyrolactone;4-Hydroxy-2-methylbutanoic acid lactone;2-Methylbutyrolactone;3-Methyltetrahydrofuran-2-one;3-Methyl-2-oxooxolane;(±)-2-Methylbutyrolactone;(±)-α-Methyl-γ-butyrolactone;(±)-Dihydro-3-methyl-2(3<em>H</em>)-furanone;NSC 102837;3-Methyldihydrofuran-2(3<em>H</em>)-one;3-Methyldihydrofuran-2-one;3-Methyloxolan-2-one",
    "duplicated_cas_no": "69010-09-9",
    "SMILES": "CC1C(=O)OCC1",
    "meta_data": {
        "InChI": "InChI=1S/C5H8O2/c1-4-2-3-7-5(4)6/h4H,2-3H2,1H3",
        "InChIKey": null,
        "Canonical SMILES": "O=C1OCCC1C",
        "Molecular Formula": "C<sub>5</sub>H<sub>8</sub>O<sub>2</sub>",
        "Molecular Mass": "100.12",
        "Boiling Point": "200-201 °C @ Press: 745 Torr",
        "Density": "1.047 g/cm³ @ Temp: 26 °C"
    }
}