{
    "cas_no": "2208-05-1",
    "key_name": "2-Dimethylaminoethyl benzoate",
    "cn_name": "苯甲酸二甲基氨基乙酯;DMB;",
    "alternate_name": "Benzoic acid, 2-(dimethylamino)ethyl ester;Ethanol, 2-(dimethylamino)-, benzoate;2-Dimethylaminoethyl benzoate;<em>N</em>,<em>N</em>-Dimethylaminoethyl benzoate;<em>N</em>,<em>N</em>-Dimethyl(2-benzoyloxyethyl)amine;Gencure DMB",
    "duplicated_cas_no": "",
    "SMILES": "C(OCCN(C)C)(=O)C1=CC=CC=C1",
    "meta_data": {
        "InChI": "InChI=1S/C11H15NO2/c1-12(2)8-9-14-11(13)10-6-4-3-5-7-10/h3-7H,8-9H2,1-2H3",
        "InChIKey": null,
        "Canonical SMILES": "O=C(OCCN(C)C)C=1C=CC=CC1",
        "Molecular Formula": "C<sub>11</sub>H<sub>15</sub>NO<sub>2</sub>",
        "Molecular Mass": "193.24",
        "Boiling Point": "152-154 °C @ Press: 3 Torr"
    }
}