{
    "cas_no": "1077-16-3",
    "key_name": "Hexylbenzene",
    "cn_name": "1-苯基己烷;",
    "alternate_name": "Benzene, hexyl-;Hexane, 1-phenyl-;Hexylbenzene;<em>n</em>-Hexylbenzene;1-Phenylhexane;NSC 86141;6-Phenylhexane",
    "duplicated_cas_no": "74296-34-7",
    "SMILES": "C(CCCCC)C1=CC=CC=C1",
    "meta_data": {
        "InChI": "InChI=1S/C12H18/c1-2-3-4-6-9-12-10-7-5-8-11-12/h5,7-8,10-11H,2-4,6,9H2,1H3",
        "InChIKey": null,
        "Canonical SMILES": "C=1C=CC(=CC1)CCCCCC",
        "Molecular Formula": "C<sub>12</sub>H<sub>18</sub>",
        "Molecular Mass": "162.27",
        "Boiling Point": "226.1 °C",
        "Melting Point": "-61 °C",
        "Density": "0.852 g/cm³ @ Temp: 19 °C"
    }
}