{
    "cas_no": "78269-85-9",
    "key_name": "2,5-Dioxo-1-pyrrolidinyl [2-(trimethylsilyl)ethyl] carbonate",
    "cn_name": "1-[2-(三甲基甲硅烷基)乙氧基碳氧基]吡咯烷-2,5-二酮;",
    "alternate_name": "Carbonic acid, 2,5-dioxo-1-pyrrolidinyl [2-(trimethylsilyl)ethyl] ester;2,5-Pyrrolidinedione, 1-[[[2-(trimethylsilyl)ethoxy]carbonyl]oxy]-;2,5-Dioxo-1-pyrrolidinyl [2-(trimethylsilyl)ethyl] carbonate;1-[[[2-(Trimethylsilyl)ethoxy]carbonyl]oxy]pyrrolidin-2,5-dione;1-[[[2-(Trimethylsilyl)ethoxy]carbonyl]oxy]pyrrolidine-2,5-dione;1-[[[[2-(Trimethylsilyl)ethyl]oxy]carbonyl]oxy]-2,5-pyrrolidinedione;2,5-Dioxopyrrolidin-1-yl 2-(trimethylsilyl)ethyl carbonate;<em>N</em>-[[[(2-Trimethylsilylethyl)oxy]carbonyl]oxy]succinimide;Teoc-OSu;<em>N</em>-[[[2-(Trimethylsilyl)ethoxy]carbonyl]oxy]succinimide",
    "duplicated_cas_no": "3029667-41-9",
    "SMILES": "O(C(OCC[Si](C)(C)C)=O)N1C(=O)CCC1=O",
    "meta_data": {
        "InChI": "InChI=1S/C10H17NO5Si/c1-17(2,3)7-6-15-10(14)16-11-8(12)4-5-9(11)13/h4-7H2,1-3H3",
        "InChIKey": null,
        "Canonical SMILES": "O=C(ON1C(=O)CCC1=O)OCC[Si](C)(C)C",
        "Molecular Formula": "C<sub>10</sub>H<sub>17</sub>NO<sub>5</sub>Si",
        "Molecular Mass": "259.33",
        "Melting Point": "97.5-98.5 °C"
    }
}