{
    "cas_no": "2227-79-4",
    "key_name": "Thiobenzamide",
    "cn_name": "硫代苯甲酰胺;",
    "alternate_name": "Benzenecarbothioamide;Benzamide, thio-;Thiobenzamide;Benzothioamide;Benzenethiocarboxamide;Aminothiocarbonylbenzene;Thibendiamide",
    "duplicated_cas_no": "",
    "SMILES": "C(N)(=S)C1=CC=CC=C1",
    "meta_data": {
        "InChI": "InChI=1S/C7H7NS/c8-7(9)6-4-2-1-3-5-6/h1-5H,(H2,8,9)",
        "InChIKey": null,
        "Canonical SMILES": "S=C(N)C=1C=CC=CC1",
        "Molecular Formula": "C<sub>7</sub>H<sub>7</sub>NS",
        "Molecular Mass": "137.20",
        "Boiling Point": "180 °C",
        "Melting Point": "115-116 °C"
    }
}