{
    "cas_no": "4443-09-8",
    "key_name": "Norwogonin",
    "cn_name": null,
    "alternate_name": "4<em>H</em>-1-Benzopyran-4-one, 5,7,8-trihydroxy-2-phenyl-;Flavone, 5,7,8-trihydroxy-;5,7,8-Trihydroxy-2-phenyl-4<em>H</em>-1-benzopyran-4-one;Norwogonin;5,7,8-Trihydroxyflavone;NSC 128304",
    "duplicated_cas_no": "",
    "SMILES": "O=C1C=2C(OC(=C1)C3=CC=CC=C3)=C(O)C(O)=CC2O",
    "meta_data": {
        "InChI": "InChI=1S/C15H10O5/c16-9-6-11(18)14(19)15-13(9)10(17)7-12(20-15)8-4-2-1-3-5-8/h1-7,16,18-19H",
        "InChIKey": null,
        "Canonical SMILES": "O=C1C=C(OC=2C(O)=C(O)C=C(O)C12)C=3C=CC=CC3",
        "Molecular Formula": "C<sub>15</sub>H<sub>10</sub>O<sub>5</sub>",
        "Molecular Mass": "270.24",
        "Melting Point": "227-228 °C"
    }
}