{
    "cas_no": "3174-74-1",
    "key_name": "3,6-Dihydro-2<em>H</em>-pyran",
    "cn_name": null,
    "alternate_name": "2<em>H</em>-Pyran, 3,6-dihydro-;3,6-Dihydro-2<em>H</em>-pyran;5,6-Dihydro-2<em>H</em>-pyran",
    "duplicated_cas_no": "",
    "SMILES": "C=1CCOCC1",
    "meta_data": {
        "InChI": "InChI=1S/C5H8O/c1-2-4-6-5-3-1/h1-2H,3-5H2",
        "InChIKey": null,
        "Canonical SMILES": "O1CC=CCC1",
        "Molecular Formula": "C<sub>5</sub>H<sub>8</sub>O",
        "Molecular Mass": "84.12",
        "Boiling Point": "92-93 °C",
        "Density": "0.943 g/cm³ @ Temp: 28.5 °C"
    }
}