{
    "cas_no": "88919-22-6",
    "key_name": "3-(2-Aminoethyl)-<em>N</em>-methyl-1<em>H</em>-indole-5-methanesulfonamide",
    "cn_name": null,
    "alternate_name": "1<em>H</em>-Indole-5-methanesulfonamide, 3-(2-aminoethyl)-<em>N</em>-methyl-;3-(2-Aminoethyl)-<em>N</em>-methyl-1<em>H</em>-indole-5-methanesulfonamide;1-[3-(2-Aminoethyl)-1<em>H</em>-indol-5-yl]-<em>N</em>-methylmethanesulfonamide",
    "duplicated_cas_no": "",
    "SMILES": "C(CN)C=1C=2C(NC1)=CC=C(CS(NC)(=O)=O)C2",
    "meta_data": {
        "InChI": "InChI=1S/C12H17N3O2S/c1-14-18(16,17)8-9-2-3-12-11(6-9)10(4-5-13)7-15-12/h2-3,6-7,14-15H,4-5,8,13H2,1H3",
        "InChIKey": null,
        "Canonical SMILES": "O=S(=O)(NC)CC=1C=CC=2NC=C(C2C1)CCN",
        "Molecular Formula": "C<sub>12</sub>H<sub>17</sub>N<sub>3</sub>O<sub>2</sub>S",
        "Molecular Mass": "267.35",
        "Melting Point": "134-136 °C"
    }
}