{
    "cas_no": "51-26-3",
    "key_name": "Triprop",
    "cn_name": "去氨甲碘安;",
    "alternate_name": "Benzenepropanoic acid, 4-(4-hydroxy-3-iodophenoxy)-3,5-diiodo-;Hydrocinnamic acid, 4-(4-hydroxy-3-iodophenoxy)-3,5-diiodo-;4-(4-Hydroxy-3-iodophenoxy)-3,5-diiodobenzenepropanoic acid;4-(4-Hydroxy-3-iodophenoxy)-3,5-diiodohydrocinnamic acid;β-[4-(3′-Iodo-4′-hydroxyphenoxy)-3,5-diiodophenyl]propionic acid;Triopron;Triprop;3,3′,5-Triiodothyropropionic acid;[(4-Hydroxy-3-iodo-4-phenoxy)-3,5-diiodophenyl]propionic acid;Atralose;Birodan;Thyropropic acid",
    "duplicated_cas_no": "",
    "SMILES": "O(C1=C(I)C=C(CCC(O)=O)C=C1I)C2=CC(I)=C(O)C=C2",
    "meta_data": {
        "InChI": "InChI=1S/C15H11I3O4/c16-10-7-9(2-3-13(10)19)22-15-11(17)5-8(6-12(15)18)1-4-14(20)21/h2-3,5-7,19H,1,4H2,(H,20,21)",
        "InChIKey": null,
        "Canonical SMILES": "O=C(O)CCC1=CC(I)=C(OC2=CC=C(O)C(I)=C2)C(I)=C1",
        "Molecular Formula": "C<sub>15</sub>H<sub>11</sub>I<sub>3</sub>O<sub>4</sub>",
        "Molecular Mass": "635.96",
        "Melting Point": "200 °C"
    }
}