{
    "cas_no": "3179-10-0",
    "key_name": "1-Methoxy-4-(2-nitroethenyl)benzene",
    "cn_name": "1-(4-甲氧苯基)-2-硝基乙烯;4-甲氧基-beta-硝基苯乙烯;",
    "alternate_name": "Benzene, 1-methoxy-4-(2-nitroethenyl)-;Anisole, <em>p</em>-(2-nitrovinyl)-;1-Methoxy-4-(2-nitroethenyl)benzene;<em>p</em>-Methoxy-β-nitrostyrene;<em>p</em>-(2-Nitrovinyl)anisole;4-Methoxy-ω-nitrostyrene;4-(2-Nitrovinyl)anisole;4-Methoxy-β-nitrostyrene;1-(4-Methoxyphenyl)-2-nitroethene;2-(4-Methoxyphenyl)-1-nitroethene;1-Methoxy-4-(2-nitrovinyl)benzene;NSC 23856;2-(4-Methoxyphenyl)nitroethylene;Chembridge 5102117;1-Nitro-2-(4-methoxyphenyl)ethene;β-Nitro-4-methoxystyrene",
    "duplicated_cas_no": "",
    "SMILES": "C(=CN(=O)=O)C1=CC=C(OC)C=C1",
    "meta_data": {
        "InChI": "InChI=1S/C9H9NO3/c1-13-9-4-2-8(3-5-9)6-7-10(11)12/h2-7H,1H3",
        "InChIKey": null,
        "Canonical SMILES": "O=N(=O)C=CC1=CC=C(OC)C=C1",
        "Molecular Formula": "C<sub>9</sub>H<sub>9</sub>NO<sub>3</sub>",
        "Molecular Mass": "179.17",
        "Melting Point": "86-87 °C"
    }
}