{
    "cas_no": "394-41-2",
    "key_name": "3-Fluoro-4-nitrophenol",
    "cn_name": "3-氟-4-硝基苯酚;",
    "alternate_name": "Phenol, 3-fluoro-4-nitro-;3-Fluoro-4-nitrophenol;4-Nitro-3-fluorophenol;2-Fluoro-4-hydroxy-1-nitrobenzene",
    "duplicated_cas_no": "",
    "SMILES": "N(=O)(=O)C1=C(F)C=C(O)C=C1",
    "meta_data": {
        "InChI": "InChI=1S/C6H4FNO3/c7-5-3-4(9)1-2-6(5)8(10)11/h1-3,9H",
        "InChIKey": null,
        "Canonical SMILES": "O=N(=O)C1=CC=C(O)C=C1F",
        "Molecular Formula": "C<sub>6</sub>H<sub>4</sub>FNO<sub>3</sub>",
        "Molecular Mass": "157.10",
        "Melting Point": "91.5-92.5 °C"
    }
}