{
    "cas_no": "138907-71-8",
    "key_name": "Ethyl 5-amino-1-(4-bromophenyl)-1<em>H</em>-pyrazole-4-carboxylate",
    "cn_name": "5-氨基-1-(4-溴苯基)-1H-吡唑-4-羧酸乙酯;",
    "alternate_name": "1<em>H</em>-Pyrazole-4-carboxylic acid, 5-amino-1-(4-bromophenyl)-, ethyl ester;Ethyl 5-amino-1-(4-bromophenyl)-1<em>H</em>-pyrazole-4-carboxylate",
    "duplicated_cas_no": "",
    "SMILES": "NC=1N(N=CC1C(OCC)=O)C2=CC=C(Br)C=C2",
    "meta_data": {
        "InChI": "InChI=1S/C12H12BrN3O2/c1-2-18-12(17)10-7-15-16(11(10)14)9-5-3-8(13)4-6-9/h3-7H,2,14H2,1H3",
        "InChIKey": null,
        "Canonical SMILES": "O=C(OCC)C=1C=NN(C2=CC=C(Br)C=C2)C1N",
        "Molecular Formula": "C<sub>12</sub>H<sub>12</sub>BrN<sub>3</sub>O<sub>2</sub>",
        "Molecular Mass": "310.15",
        "Melting Point": "120-122 °C"
    }
}