{
    "cas_no": "34598-50-0",
    "key_name": "5-Bromo-2,3-dihydro-1<em>H</em>-inden-1-ol",
    "cn_name": null,
    "alternate_name": "1<em>H</em>-Inden-1-ol, 5-bromo-2,3-dihydro-;5-Bromo-2,3-dihydro-1<em>H</em>-inden-1-ol;5-Bromoindanol;5-Bromo-1-indanol;5-Bromo-1-hydroxy-2,3-dihydro-1<em>H</em>-indene",
    "duplicated_cas_no": "125114-85-4",
    "SMILES": "OC1C=2C(CC1)=CC(Br)=CC2",
    "meta_data": {
        "InChI": "InChI=1S/C9H9BrO/c10-7-2-3-8-6(5-7)1-4-9(8)11/h2-3,5,9,11H,1,4H2",
        "InChIKey": null,
        "Canonical SMILES": "BrC1=CC=C2C(=C1)CCC2O",
        "Molecular Formula": "C<sub>9</sub>H<sub>9</sub>BrO",
        "Molecular Mass": "213.07",
        "Melting Point": "77-79 °C"
    }
}