{
    "cas_no": "1125-80-0",
    "key_name": "3-Methylisoquinoline",
    "cn_name": "3-甲基异喹啉;",
    "alternate_name": "Isoquinoline, 3-methyl-;3-Methylisoquinoline;NSC 4619;NSC 475",
    "duplicated_cas_no": "",
    "SMILES": "CC1=CC2=C(C=N1)C=CC=C2",
    "meta_data": {
        "InChI": "InChI=1S/C10H9N/c1-8-6-9-4-2-3-5-10(9)7-11-8/h2-7H,1H3",
        "InChIKey": null,
        "Canonical SMILES": "N1=CC2=CC=CC=C2C=C1C",
        "Molecular Formula": "C<sub>10</sub>H<sub>9</sub>N",
        "Molecular Mass": "143.19",
        "Boiling Point": "249 °C",
        "Melting Point": "68 °C"
    }
}