{
    "cas_no": "7154-66-7",
    "key_name": "2-Bromobenzoyl chloride",
    "cn_name": "2-溴苯甲酰氯;邻溴苯甲酰氯;",
    "alternate_name": "Benzoyl chloride, 2-bromo-;Benzoyl chloride, <em>o</em>-bromo-;2-Bromobenzoyl chloride;<em>o</em>-Bromobenzoyl chloride;2-Bromobenzoic acid chloride;NSC 73706;2-Bromobenzene-1-carbonyl chloride",
    "duplicated_cas_no": "",
    "SMILES": "C(Cl)(=O)C1=C(Br)C=CC=C1",
    "meta_data": {
        "InChI": "InChI=1S/C7H4BrClO/c8-6-4-2-1-3-5(6)7(9)10/h1-4H",
        "InChIKey": null,
        "Canonical SMILES": "O=C(Cl)C=1C=CC=CC1Br",
        "Molecular Formula": "C<sub>7</sub>H<sub>4</sub>BrClO",
        "Molecular Mass": "219.46",
        "Boiling Point": "243 °C",
        "Melting Point": "11 °C"
    }
}