{
    "cas_no": "79-74-3",
    "key_name": "2,5-Bis(1,1-dimethylpropyl)-1,4-benzenediol",
    "cn_name": "2,5-二叔戊基氢醌;2,5-双(1,1-二甲基丙基)-1,4-苯二醇;",
    "alternate_name": "1,4-Benzenediol, 2,5-bis(1,1-dimethylpropyl)-;Hydroquinone, 2,5-di-<em>tert</em>-pentyl-;2,5-Bis(1,1-dimethylpropyl)-1,4-benzenediol;2,5-Di-<em>tert</em>-amylhydroquinone;2,5-Bis(1,1-dimethylpropyl)hydroquinone;Santovar A;2,5-Di-<em>tert</em>-pentylhydroquinone;DAH;DAHQ;Antage DAH;2,5-Di-<em>t</em>-amylhydroquinone;2,5-Di(<em>tert</em>-amyl)-1,4-benzohydroquinone;DTAHQ;Lowinox AH 25;AH 25;2,5-Di(tert-amyl)hydroquinone;NSC 455;NSC 6267;Santovar TAHQ;Nocrac DAH;2,5-Di-<em>tert</em>-pentyl-1,4-benzenediol;Bostex 517;Antioxidant DAH",
    "duplicated_cas_no": "195460-39-0;211107-60-7",
    "SMILES": "C(CC)(C)(C)C1=C(O)C=C(C(CC)(C)C)C(O)=C1",
    "meta_data": {
        "InChI": "InChI=1S/C16H26O2/c1-7-15(3,4)11-9-14(18)12(10-13(11)17)16(5,6)8-2/h9-10,17-18H,7-8H2,1-6H3",
        "InChIKey": null,
        "Canonical SMILES": "OC=1C=C(C(O)=CC1C(C)(C)CC)C(C)(C)CC",
        "Molecular Formula": "C<sub>16</sub>H<sub>26</sub>O<sub>2</sub>",
        "Molecular Mass": "250.38",
        "Melting Point": "179.4-180.4 °C",
        "Density": "1.05 g/cm³ @ Temp: 25 °C"
    }
}