{
    "cas_no": "6683-46-1",
    "key_name": "1,1,4,4-Tetramethyl-1,2,3,4-tetrahydronaphthalene",
    "cn_name": null,
    "alternate_name": "Naphthalene, 1,2,3,4-tetrahydro-1,1,4,4-tetramethyl-;1,2,3,4-Tetrahydro-1,1,4,4-tetramethylnaphthalene;1,1,4,4-Tetramethyltetralin;1,1,4,4-Tetramethyl-1,2,3,4-tetrahydronaphthalene;NSC 17400;1,1,4,4-Tetramethyl-2,3-dihydronaphthalene",
    "duplicated_cas_no": "",
    "SMILES": "CC1(C)C=2C(C(C)(C)CC1)=CC=CC2",
    "meta_data": {
        "InChI": "InChI=1S/C14H20/c1-13(2)9-10-14(3,4)12-8-6-5-7-11(12)13/h5-8H,9-10H2,1-4H3",
        "InChIKey": null,
        "Canonical SMILES": "C=1C=CC2=C(C1)C(C)(C)CCC2(C)C",
        "Molecular Formula": "C<sub>14</sub>H<sub>20</sub>",
        "Molecular Mass": "188.31",
        "Boiling Point": "248 °C",
        "Melting Point": "115-120 °C",
        "Density": "0.9482 g/cm³ @ Temp: 27 °C"
    }
}