{
    "cas_no": "33237-37-5",
    "key_name": "Rutaevin",
    "cn_name": null,
    "alternate_name": "1<em>H</em>,3<em>H</em>,6<em>H</em>,8<em>H</em>-Oxireno[<em>c</em>]pyrano[4′′,3′′:2′,3′]furo[3′,4′:5,6]naphtho[1,2-<em>d</em>]pyran-3,7,10(6a<em>H</em>,9a<em>H</em>)-trione, 12-(3-furanyl)octahydro-8-hydroxy-6,6,8a,12a-tetramethyl-, (4a<em>S</em>,6a<em>S</em>,8<em>R</em>,8a<em>S</em>,8b<em>R</em>,9a<em>S</em>,12<em>S</em>,12a<em>S</em>,14a<em>R</em>,14b<em>R</em>)-;Limonoic acid, 7-deoxo-7-hydroxy-6-oxo-, 3,19:16,17-dilactone, (5β,7β)-;11<em>H</em>,13<em>H</em>-Oxireno[<em>d</em>]pyrano[4′,3′:3,3a]isobenzofuro[5,4-<em>f</em>][2]benzopyran-3,6,13(4<em>H</em>,5a<em>H</em>)-trione, 8-(3-furanyl)decahydro-4-hydroxy-2,2,4a,8a-tetramethyl-, (2a<em>S</em>,4<em>R</em>,4a<em>S</em>,4b<em>R</em>,5a<em>S</em>,8<em>S</em>,8a<em>S</em>,10a<em>R</em>,10b<em>R</em>,14a<em>S</em>)-;11<em>H</em>,13<em>H</em>-Oxireno[<em>d</em>]pyrano[4′,3′:3,3a]isobenzofuro[5,4-<em>f</em>][2]benzopyran, limonoic acid deriv.;(4a<em>S</em>,6a<em>S</em>,8<em>R</em>,8a<em>S</em>,8b<em>R</em>,9a<em>S</em>,12<em>S</em>,12a<em>S</em>,14a<em>R</em>,14b<em>R</em>)-12-(3-Furanyl)octahydro-8-hydroxy-6,6,8a,12a-tetramethyl-1<em>H</em>,3<em>H</em>,6<em>H</em>,8<em>H</em>-oxireno[<em>c</em>]pyrano[4′′,3′′:2′,3′]furo[3′,4′:5,6]naphtho[1,2-<em>d</em>]pyran-3,7,10(6a<em>H</em>,9a<em>H</em>)-trione;Rutaevin;11<em>H</em>,13<em>H</em>-Oxireno[<em>d</em>]pyrano[4′,3′:3,3a]isobenzofuro[5,4-<em>f</em>][2]benzopyran-3,6,13(4<em>H</em>,5a<em>H</em>)-trione, 8-(3-furanyl)decahydro-4-hydroxy-2,2,4a,8a-tetramethyl-, [2a<em>S</em>-(2aα,4α,4aα,4b<em>S</em>*,5aβ,8β,8aβ,10aβ,10b<em>S</em>*,14aβ)]-;Rutevin",
    "duplicated_cas_no": "13942-86-4",
    "SMILES": "C[C@]12[C@]34[C@](C)([C@@H](OC(=O)[C@]3(O4)[H])C=5C=COC5)CC[C@@]1([C@]67[C@](C(=O)[C@@H]2O)(C(C)(C)O[C@]6(CC(=O)OC7)[H])[H])[H]",
    "meta_data": {
        "InChI": "InChI=1S/C26H30O9/c1-22(2)17-16(28)18(29)24(4)13(25(17)11-32-15(27)9-14(25)34-22)5-7-23(3)19(12-6-8-31-10-12)33-21(30)20-26(23,24)35-20/h6,8,10,13-14,17-20,29H,5,7,9,11H2,1-4H3/t13-,14-,17+,18-,19-,20+,23-,24-,25-,26+/m0/s1",
        "InChIKey": null,
        "Canonical SMILES": "O=C1OCC23C(OC(C)(C)C3C(=O)C(O)C4(C)C2CCC5(C)C(OC(=O)C6OC654)C7=COC=C7)C1",
        "Molecular Formula": "C<sub>26</sub>H<sub>30</sub>O<sub>9</sub>",
        "Molecular Mass": "486.51",
        "Melting Point": "300 °C"
    }
}