{
    "cas_no": "13589-77-0",
    "key_name": "5-Amino-2-phenyl-3(2<em>H</em>)-pyridazinone",
    "cn_name": null,
    "alternate_name": "3(2<em>H</em>)-Pyridazinone, 5-amino-2-phenyl-;5-Amino-2-phenyl-3(2<em>H</em>)-pyridazinone;5-Amino-2-phenyl-3-pyridazinone;1-Phenyl-4-amino-6-pyridazone",
    "duplicated_cas_no": "",
    "SMILES": "O=C1N(C2=CC=CC=C2)N=CC(N)=C1",
    "meta_data": {
        "InChI": "InChI=1S/C10H9N3O/c11-8-6-10(14)13(12-7-8)9-4-2-1-3-5-9/h1-7H,11H2",
        "InChIKey": null,
        "Canonical SMILES": "O=C1C=C(N)C=NN1C=2C=CC=CC2",
        "Molecular Formula": "C<sub>10</sub>H<sub>9</sub>N<sub>3</sub>O",
        "Molecular Mass": "187.20",
        "Melting Point": "209-211 °C"
    }
}