{
    "cas_no": "7758-88-5",
    "key_name": "Cerium trifluoride",
    "cn_name": "氟化铈;",
    "alternate_name": "Cerium fluoride (CeF<sub>3</sub>);Cerium trifluoride;Cerous fluoride",
    "duplicated_cas_no": "24398-28-5;1269230-85-4;3030697-35-6",
    "SMILES": "[Ce](F)(F)F",
    "meta_data": {
        "InChI": "InChI=1S/Ce.3FH/h;3*1H/q+3;;;/p-3",
        "InChIKey": null,
        "Canonical SMILES": "F[Ce](F)F",
        "Molecular Formula": "CeF<sub>3</sub>",
        "Molecular Mass": "",
        "Melting Point": "1459 °C",
        "Density": "6.126 g/cm³"
    }
}