{
    "cas_no": "3989-15-9",
    "key_name": "1-Methyl-2-[2-(trimethylsilyl)ethynyl]benzene",
    "cn_name": "2-[(三甲基甲硅烷基)乙炔基]甲苯;",
    "alternate_name": "Benzene, 1-methyl-2-[2-(trimethylsilyl)ethynyl]-;Silane, trimethyl(<em>o</em>-tolylethynyl)-;Silane, trimethyl[(2-methylphenyl)ethynyl]-;1-Methyl-2-[2-(trimethylsilyl)ethynyl]benzene;2-Tolyl(trimethylsilyl)acetylene;1-Methyl-2-(2-trimethylsilylethynyl)benzene;2-[(Trimethylsilyl)ethynyl]toluene;[(2-Methylphenyl)ethynyl]trimethylsilane",
    "duplicated_cas_no": "",
    "SMILES": "C(#C[Si](C)(C)C)C1=C(C)C=CC=C1",
    "meta_data": {
        "InChI": "InChI=1S/C12H16Si/c1-11-7-5-6-8-12(11)9-10-13(2,3)4/h5-8H,1-4H3",
        "InChIKey": null,
        "Canonical SMILES": "C(#C[Si](C)(C)C)C=1C=CC=CC1C",
        "Molecular Formula": "C<sub>12</sub>H<sub>16</sub>Si",
        "Molecular Mass": "188.34",
        "Boiling Point": "50-58 °C @ Press: 0.5 Torr",
        "Density": "0.88 g/cm³"
    }
}