{
    "cas_no": "7081-53-0",
    "key_name": "2-Pyrrolidinone, 1-ethyl-4-[2-(4-morpholinyl)ethyl]-3,3-diphenyl-, hydrochloride, hydrate (1:1:1)",
    "cn_name": null,
    "alternate_name": "2-Pyrrolidinone, 1-ethyl-4-[2-(4-morpholinyl)ethyl]-3,3-diphenyl-, hydrochloride, hydrate (1:1:1);2-Pyrrolidinone, 1-ethyl-4-(2-morpholinoethyl)-3,3-diphenyl-, monohydrochloride, monohydrate;2-Pyrrolidinone, 1-ethyl-4-[2-(4-morpholinyl)ethyl]-3,3-diphenyl-, monohydrochloride, monohydrate;AHR 619;Doxapram hydrochloride hydrate;1-Ethyl-4-(2-morpholinoethyl)-3,3-diphenyl-2-pyrrolidinone hydrochloride hydrate;Doxapram hydrochloride monohydrate;1-Ethyl-4-[2-(morpholin-4-yl)ethyl]-3,3-diphenylpyrrolidin-2-one hydrate hydrochloride",
    "duplicated_cas_no": "",
    "SMILES": "C(CN1CCOCC1)C2C(C(=O)N(CC)C2)(C3=CC=CC=C3)C4=CC=CC=C4.Cl.O",
    "meta_data": {
        "InChI": "InChI=1S/C24H30N2O2.ClH.H2O/c1-2-26-19-22(13-14-25-15-17-28-18-16-25)24(23(26)27,20-9-5-3-6-10-20)21-11-7-4-8-12-21;;/h3-12,22H,2,13-19H2,1H3;1H;1H2",
        "InChIKey": null,
        "Canonical SMILES": "Cl.O=C1N(CC)CC(CCN2CCOCC2)C1(C=3C=CC=CC3)C=4C=CC=CC4.O",
        "Molecular Formula": "C<sub>24</sub>H<sub>30</sub>N<sub>2</sub>O<sub>2</sub>.ClH.H<sub>2</sub>O",
        "Molecular Mass": "",
        "Melting Point": "217-219 °C"
    }
}