{
    "cas_no": "377-38-8",
    "key_name": "2,2,3,3-Tetrafluorobutanedioic acid",
    "cn_name": "四氟丁二酸;",
    "alternate_name": "Butanedioic acid, 2,2,3,3-tetrafluoro-;Succinic acid, tetrafluoro-;Butanedioic acid, tetrafluoro-;2,2,3,3-Tetrafluorobutanedioic acid;Perfluorosuccinic acid;Tetrafluorosuccinic acid;NSC 3238;2,2,3,3-Tetrafluorosuccinic acid",
    "duplicated_cas_no": "110961-36-9",
    "SMILES": "C(C(C(O)=O)(F)F)(C(O)=O)(F)F",
    "meta_data": {
        "InChI": "InChI=1S/C4H2F4O4/c5-3(6,1(9)10)4(7,8)2(11)12/h(H,9,10)(H,11,12)",
        "InChIKey": null,
        "Canonical SMILES": "O=C(O)C(F)(F)C(F)(F)C(=O)O",
        "Molecular Formula": "C<sub>4</sub>H<sub>2</sub>F<sub>4</sub>O<sub>4</sub>",
        "Molecular Mass": "190.05",
        "Boiling Point": "150 °C @ Press: 15 Torr",
        "Melting Point": "119 °C"
    }
}