{
    "cas_no": "10519-96-7",
    "key_name": "Potassium trimethylsilanolate",
    "cn_name": "三甲基硅醇钾; 三甲基硅烷醇钾;三甲基硅酸钾;三甲基硅烷醇钾;三甲基硅醇钾;",
    "alternate_name": "Silanol, 1,1,1-trimethyl-, potassium salt (1:1);Silanol, trimethyl-, potassium salt;Potassium, (trimethylsiloxy)-;Silanol, trimethyl-, potassium deriv.;Potassium trimethylsilanolate;Trimethylsiloxypotassium;Potassium trimethylsilyloxide;Potassium trimethylsiloxide;Trimethylsilanol potassium salt",
    "duplicated_cas_no": "24291-06-3;89034-11-7",
    "SMILES": "[Si](C)(C)(C)O.[K]",
    "meta_data": {
        "InChI": "InChI=1S/C3H10OSi.K/c1-5(2,3)4;/h4H,1-3H3;",
        "InChIKey": null,
        "Canonical SMILES": "[K].O[Si](C)(C)C",
        "Molecular Formula": "C<sub>3</sub>H<sub>10</sub>OSi.K",
        "Molecular Mass": "",
        "Melting Point": "134-138 °C (decomp)"
    }
}