{
    "cas_no": "2597-56-0",
    "key_name": "2-Methoxy-4-nitrobenzoic acid",
    "cn_name": "2-甲氧基-4-硝基苯甲酸;",
    "alternate_name": "Benzoic acid, 2-methoxy-4-nitro-;<em>o</em>-Anisic acid, 4-nitro-;2-Methoxy-4-nitrobenzoic acid;4-Nitro-<em>o</em>-anisic acid;4-Nitro-2-methoxybenzoic acid;NSC 229300",
    "duplicated_cas_no": "",
    "SMILES": "O(C)C1=C(C(O)=O)C=CC(N(=O)=O)=C1",
    "meta_data": {
        "InChI": "InChI=1S/C8H7NO5/c1-14-7-4-5(9(12)13)2-3-6(7)8(10)11/h2-4H,1H3,(H,10,11)",
        "InChIKey": null,
        "Canonical SMILES": "O=C(O)C1=CC=C(C=C1OC)N(=O)=O",
        "Molecular Formula": "C<sub>8</sub>H<sub>7</sub>NO<sub>5</sub>",
        "Molecular Mass": "197.14",
        "Melting Point": "147 °C"
    }
}