{
    "cas_no": "141-04-8",
    "key_name": "Diisobutyl adipate",
    "cn_name": "己二酸二异丁酯;",
    "alternate_name": "Hexanedioic acid, 1,6-bis(2-methylpropyl) ester;Adipic acid, diisobutyl ester;Hexanedioic acid, bis(2-methylpropyl) ester;DIBA;Diisobutyl adipate;Ftaflex DIBA;Isobutyl adipate;Adipic acid bis(2-methylpropyl) ester;Adipic acid di-<em>iso</em>-butyl ester;Plasthall DIBA;Vinycizer 40;NSC 6343;KAK-DIBA;DI 4A;Rhodisolv DIB;Halltress DIBA;Plasticizer 40",
    "duplicated_cas_no": "53659-85-1",
    "SMILES": "C(OCC(C)C)(CCCCC(OCC(C)C)=O)=O",
    "meta_data": {
        "InChI": "InChI=1S/C14H26O4/c1-11(2)9-17-13(15)7-5-6-8-14(16)18-10-12(3)4/h11-12H,5-10H2,1-4H3",
        "InChIKey": null,
        "Canonical SMILES": "O=C(OCC(C)C)CCCCC(=O)OCC(C)C",
        "Molecular Formula": "C<sub>14</sub>H<sub>26</sub>O<sub>4</sub>",
        "Molecular Mass": "258.35",
        "Boiling Point": "278-280 °C",
        "Melting Point": "-20 °C",
        "Density": "0.9534 g/cm³ @ Temp: 19 °C"
    }
}