{
    "cas_no": "96-31-1",
    "key_name": "<em>N</em>,<em>N</em>′-Dimethylurea",
    "cn_name": "1,3-二甲基脲;1,3-二甲脲;",
    "alternate_name": "Urea, <em>N</em>,<em>N</em>′-dimethyl-;Urea, 1,3-dimethyl-;<em>N</em>,<em>N</em>′-Dimethylurea;1,3-Dimethylurea;Symmetric dimethylurea;<em>sym</em>-Dimethylurea;NSC 14910;NSC 24823",
    "duplicated_cas_no": "475470-59-8",
    "SMILES": "C(NC)(NC)=O",
    "meta_data": {
        "InChI": "InChI=1S/C3H8N2O/c1-4-3(6)5-2/h1-2H3,(H2,4,5,6)",
        "InChIKey": null,
        "Canonical SMILES": "O=C(NC)NC",
        "Molecular Formula": "C<sub>3</sub>H<sub>8</sub>N<sub>2</sub>O",
        "Molecular Mass": "88.11",
        "Boiling Point": "268-270 °C",
        "Melting Point": "108 °C",
        "Density": "1.142 g/cm³"
    }
}