{
    "cas_no": "60-31-1",
    "key_name": "Acetylcholine chloride",
    "cn_name": "氯化乙酰胆碱;乙酰氯化胆碱;2-(乙酰氧基)-N,N,N-三甲基乙铵氯化物;",
    "alternate_name": "Ethanaminium, 2-(acetyloxy)-<em>N</em>,<em>N</em>,<em>N</em>-trimethyl-, chloride (1:1);Choline acetate (ester), chloride;Ethanaminium, 2-(acetyloxy)-<em>N</em>,<em>N</em>,<em>N</em>-trimethyl-, chloride;Acecoline;2-Acetoxyethyltrimethylammonium chloride;Acetylcholine chloride;ACh chloride;Arterocoline;(2-Hydroxyethyl)trimethylammonium chloride acetate;Ovisot;Acetylcholinium chloride;<em>O</em>-Acetylcholine chloride;Trimethyl(2-acetoxyethyl)ammonium chloride;Acecholin;Miochol",
    "duplicated_cas_no": "1784-29-8;70623-44-8;2028303-10-6",
    "SMILES": "C(COC(C)=O)[N+](C)(C)C.[Cl-]",
    "meta_data": {
        "InChI": "InChI=1S/C7H16NO2.ClH/c1-7(9)10-6-5-8(2,3)4;/h5-6H2,1-4H3;1H/q+1;/p-1",
        "InChIKey": null,
        "Canonical SMILES": "[Cl-].O=C(OCC[N+](C)(C)C)C",
        "Molecular Formula": "C<sub>7</sub>H<sub>16</sub>NO<sub>2</sub>.Cl",
        "Molecular Mass": "",
        "Melting Point": "150 °C",
        "Density": "1.27 g/cm³"
    }
}