{
    "cas_no": "540-80-7",
    "key_name": "<em>tert</em>-Butyl nitrite",
    "cn_name": "亚硝酸特丁酯;",
    "alternate_name": "Nitrous acid, 1,1-dimethylethyl ester;Nitrous acid, <em>tert</em>-butyl ester;<em>tert</em>-Butyl nitrite;α,α-Dimethylethyl nitrite;1,1-Dimethylethyl nitrite",
    "duplicated_cas_no": "",
    "SMILES": "O(C(C)(C)C)N=O",
    "meta_data": {
        "InChI": "InChI=1S/C4H9NO2/c1-4(2,3)7-5-6/h1-3H3",
        "InChIKey": null,
        "Canonical SMILES": "O=NOC(C)(C)C",
        "Molecular Formula": "C<sub>4</sub>H<sub>9</sub>NO<sub>2</sub>",
        "Molecular Mass": "103.12",
        "Boiling Point": "63 °C"
    }
}