{
    "cas_no": "67643-17-8",
    "key_name": "1,2-Dihydro-4-hydroxy-6-methyl-2-oxo-3-pyridinecarbonitrile",
    "cn_name": null,
    "alternate_name": "3-Pyridinecarbonitrile, 1,2-dihydro-4-hydroxy-6-methyl-2-oxo-;1,2-Dihydro-4-hydroxy-6-methyl-2-oxo-3-pyridinecarbonitrile;4-Hydroxy-6-methyl-2-oxo-1,2-dihydropyridine-3-carbonitrile;2-Hydroxy-6-methyl-4-oxo-1,4-dihydropyridine-3-carbonitrile",
    "duplicated_cas_no": "",
    "SMILES": "C(#N)C1=C(O)C=C(C)NC1=O",
    "meta_data": {
        "InChI": "InChI=1S/C7H6N2O2/c1-4-2-6(10)5(3-8)7(11)9-4/h2H,1H3,(H2,9,10,11)",
        "InChIKey": null,
        "Canonical SMILES": "N#CC=1C(=O)NC(=CC1O)C",
        "Molecular Formula": "C<sub>7</sub>H<sub>6</sub>N<sub>2</sub>O<sub>2</sub>",
        "Molecular Mass": "150.13",
        "Melting Point": "300-301 °C (decomp)"
    }
}