{
    "cas_no": "34784-06-0",
    "key_name": "7-Chloroisoquinoline",
    "cn_name": null,
    "alternate_name": "Isoquinoline, 7-chloro-;7-Chloroisoquinoline",
    "duplicated_cas_no": "",
    "SMILES": "ClC1=CC2=C(C=C1)C=CN=C2",
    "meta_data": {
        "InChI": "InChI=1S/C9H6ClN/c10-9-2-1-7-3-4-11-6-8(7)5-9/h1-6H",
        "InChIKey": null,
        "Canonical SMILES": "ClC=1C=CC=2C=CN=CC2C1",
        "Molecular Formula": "C<sub>9</sub>H<sub>6</sub>ClN",
        "Molecular Mass": "163.60",
        "Melting Point": "45 °C"
    }
}