{
    "cas_no": "945-49-3",
    "key_name": "α-Cyclohexylbenzenemethanol",
    "cn_name": "环己基(苯基)甲醇;",
    "alternate_name": "Benzenemethanol, α-cyclohexyl-;Cyclohexanemethanol, α-phenyl-;α-Cyclohexylbenzenemethanol;α-Cyclohexylbenzyl alcohol;Methanol, cyclohexylphenyl-;α-Phenylcyclohexanemethanol;Cyclohexyl(phenyl)methanol;NSC 28611",
    "duplicated_cas_no": "21632-21-3",
    "SMILES": "C(O)(C1CCCCC1)C2=CC=CC=C2",
    "meta_data": {
        "InChI": "InChI=1S/C13H18O/c14-13(11-7-3-1-4-8-11)12-9-5-2-6-10-12/h1,3-4,7-8,12-14H,2,5-6,9-10H2",
        "InChIKey": null,
        "Canonical SMILES": "OC(C=1C=CC=CC1)C2CCCCC2",
        "Molecular Formula": "C<sub>13</sub>H<sub>18</sub>O",
        "Molecular Mass": "190.28",
        "Boiling Point": "168 °C @ Press: 20 Torr",
        "Melting Point": "41 °C"
    }
}