{
    "cas_no": "17682-70-1",
    "key_name": "Diacetone <span class=\"text-smallcaps\">L</span>-sorbose",
    "cn_name": null,
    "alternate_name": "α-<span class=\"text-smallcaps\">L</span>-Sorbofuranose, 2,3:4,6-bis-<em>O</em>-(1-methylethylidene)-;Sorbofuranose, 2,3:4,6-di-<em>O</em>-isopropylidene-, α-<span class=\"text-smallcaps\">L</span>-;7<em>H</em>-1,3-Dioxolo[4,5]furo[3,2-<em>d</em>][1,3]dioxin, α-<span class=\"text-smallcaps\">L</span>-sorbofuranose deriv.;2,3:4,6-Bis-<em>O</em>-(1-methylethylidene)-α-<span class=\"text-smallcaps\">L</span>-sorbofuranose;2,3:4,6-Di-<em>O</em>-isopropylidene-α-<span class=\"text-smallcaps\">L</span>-sorbofuranose;2,3:4,6-Di-<em>O</em>-isopropylidene-<span class=\"text-smallcaps\">L</span>-sorbose;Diacetone sorbose;Di-<em>O</em>-Isopropylidene-<span class=\"text-smallcaps\">L</span>-sorbose;Sorbose diacetonide;Diacetone <span class=\"text-smallcaps\">L</span>-sorbose;NSC 23815",
    "duplicated_cas_no": "3768-12-5;15383-42-3;70587-93-8",
    "SMILES": "C(O)[C@]12[C@]([C@]3([C@@](O1)(COC(C)(C)O3)[H])[H])(OC(C)(C)O2)[H]",
    "meta_data": {
        "InChI": "InChI=1S/C12H20O6/c1-10(2)14-5-7-8(16-10)9-12(6-13,15-7)18-11(3,4)17-9/h7-9,13H,5-6H2,1-4H3/t7-,8+,9-,12-/m0/s1",
        "InChIKey": null,
        "Canonical SMILES": "OCC12OC3COC(OC3C2OC(O1)(C)C)(C)C",
        "Molecular Formula": "C<sub>12</sub>H<sub>20</sub>O<sub>6</sub>",
        "Molecular Mass": "260.28",
        "Boiling Point": "130-135 °C @ Press: 0.1-0.3 Torr",
        "Melting Point": "77-78 °C"
    }
}