{
    "cas_no": "2157-19-9",
    "key_name": "Endodiol",
    "cn_name": "硫丹醇;",
    "alternate_name": "Bicyclo[2.2.1]hept-5-ene-2,3-dimethanol, 1,4,5,6,7,7-hexachloro-;5-Norbornene-2,3-dimethanol, 1,4,5,6,7,7-hexachloro-;1,4,5,6,7,7-Hexachlorobicyclo[2.2.1]hept-5-ene-2,3-dimethanol;Thiodandiol;1,4,5,6,7,7-Hexachloro-2,3-bis(hydroxymethyl)-5-norbornene;Endosulfan alcohol;1,4,5,6,7,7-Hexachloro-5-norbornene-2,3-dimethanol;Chlorendic diol;Endosulfandiol;Endodiol;NSC 11682;NSC 41892",
    "duplicated_cas_no": "",
    "SMILES": "ClC12C(Cl)(Cl)C(Cl)(C(CO)C1CO)C(Cl)=C2Cl",
    "meta_data": {
        "InChI": "InChI=1S/C9H8Cl6O2/c10-5-6(11)8(13)4(2-17)3(1-16)7(5,12)9(8,14)15/h3-4,16-17H,1-2H2",
        "InChIKey": null,
        "Canonical SMILES": "ClC1=C(Cl)C2(Cl)C(CO)C(CO)C1(Cl)C2(Cl)Cl",
        "Molecular Formula": "C<sub>9</sub>H<sub>8</sub>Cl<sub>6</sub>O<sub>2</sub>",
        "Molecular Mass": "360.88",
        "Melting Point": "199 °C"
    }
}