{
    "cas_no": "89-83-8",
    "key_name": "Thymol",
    "cn_name": "百里香酚;麝香草酚;百里酚;",
    "alternate_name": "Phenol, 5-methyl-2-(1-methylethyl)-;Thymol;5-Methyl-2-(1-methylethyl)phenol;<em>p</em>-Cymen-3-ol;3-Hydroxy-<em>p</em>-cymene;1-Methyl-3-hydroxy-4-isopropylbenzene;5-Methyl-2-isopropyl-1-phenol;Thyme camphor;2-Hydroxy-1-isopropyl-4-methylbenzene;3-Methyl-6-isopropylphenol;2-Isopropyl-5-methylphenol;5-Methyl-2-isopropylphenol;<em>m</em>-Thymol;6-Isopropyl-3-methylphenol;6-Isopropyl-<em>m</em>-cresol;Thymol Chrystals;NSC 11215;NSC 47821;NSC 49142;Apiguard;T 0501;5-Methyl-2-propan-2-ylphenol;Marukarep RM;MeSH ID: D013943",
    "duplicated_cas_no": "",
    "SMILES": "C(C)(C)C1=C(O)C=C(C)C=C1",
    "meta_data": {
        "InChI": "InChI=1S/C10H14O/c1-7(2)9-5-4-8(3)6-10(9)11/h4-7,11H,1-3H3",
        "InChIKey": null,
        "Canonical SMILES": "OC1=CC(=CC=C1C(C)C)C",
        "Molecular Formula": "C<sub>10</sub>H<sub>14</sub>O",
        "Molecular Mass": "150.22",
        "Boiling Point": "233 °C",
        "Melting Point": "52 °C",
        "Density": "0.9699 g/cm³ @ Temp: 25 °C"
    }
}