{
    "cas_no": "823-36-9",
    "key_name": "2-Ethyl-1,3-cyclopentanedione",
    "cn_name": "2-乙基-1,3-环戊二酮;",
    "alternate_name": "1,3-Cyclopentanedione, 2-ethyl-;2-Ethyl-1,3-cyclopentanedione",
    "duplicated_cas_no": "",
    "SMILES": "C(C)C1C(=O)CCC1=O",
    "meta_data": {
        "InChI": "InChI=1S/C7H10O2/c1-2-5-6(8)3-4-7(5)9/h5H,2-4H2,1H3",
        "InChIKey": null,
        "Canonical SMILES": "O=C1CCC(=O)C1CC",
        "Molecular Formula": "C<sub>7</sub>H<sub>10</sub>O<sub>2</sub>",
        "Molecular Mass": "126.15",
        "Melting Point": "173-175 °C"
    }
}