{
    "cas_no": "3050-69-9",
    "key_name": "Vinyl hexanoate",
    "cn_name": "己酸乙烯基酯;",
    "alternate_name": "Hexanoic acid, ethenyl ester;Hexanoic acid, vinyl ester;Vinyl caproate;Vinyl hexoate;Vinyl hexanoate;Caproic acid vinyl ester;Vinyl <em>n</em>-hexanoate;NSC 32629",
    "duplicated_cas_no": "170016-10-1",
    "SMILES": "C(C(OC=C)=O)CCCC",
    "meta_data": {
        "InChI": "InChI=1S/C8H14O2/c1-3-5-6-7-8(9)10-4-2/h4H,2-3,5-7H2,1H3",
        "InChIKey": null,
        "Canonical SMILES": "O=C(OC=C)CCCCC",
        "Molecular Formula": "C<sub>8</sub>H<sub>14</sub>O<sub>2</sub>",
        "Molecular Mass": "142.20",
        "Boiling Point": "165-167 °C",
        "Density": "0.8995 g/cm³ @ Temp: 20 °C"
    }
}