{
    "cas_no": "2491-17-0",
    "key_name": "1-Cyclohexyl-3-(2-morpholinoethyl)carbodiimide metho-<em>p</em>-toluenesulfonate",
    "cn_name": "1-环已基-2-吗啉乙基碳二亚胺对甲苯磺酸盐;",
    "alternate_name": "Morpholinium, 4-[2-[(cyclohexylcarbonimidoyl)amino]ethyl]-4-methyl-, 4-methylbenzenesulfonate (1:1);Morpholinium, 4-[2-[(cyclohexylimidocarbonyl)amino]ethyl]-4-methyl-, <em>p</em>-toluenesulfonate;Morpholinium, 4-[2-[(cyclohexylcarbonimidoyl)amino]ethyl]-4-methyl-, salt with 4-methylbenzenesulfonic acid (1:1);4-[2-[[(Cyclohexylimino)methylene]amino]ethyl]-4-methylmorpholinium <em>p</em>-toluenesulfonate;<em>N</em>-Cyclohexyl-<em>N</em>′-β-(4-methylmorpholinium)ethylcarbodiimide <em>p</em>-toluenesulfonate;<em>N</em>-Cyclohexyl-<em>N</em>′-[(<em>N</em>-methylmorpholinio)ethyl]carbodiimide <em>p</em>-toluenesulfonate;CME-carbodiimide;1-Cyclohexyl-3-(2-morpholinoethyl)carbodiimide metho-<em>p</em>-toluenesulfonate;<em>N</em>-Cyclohexyl-<em>N</em>′-[β-(4-methylmorpholinio)ethyl]carbodiimide <em>p</em>-toluenesulfonate;1-Cyclohexyl-3-(2-morpholinyl-(4)-ethyl)carbodiimide metho-<em>p</em>-toluenesulfonate;<em>N</em>-Cyclohexyl-<em>N</em>′-β-(4-methylmorpholinium)ethylcarbodiimide <em>p</em>-toluenesulfonate salt;1-Cyclohexyl-3-(2-morpholinoethyl)carbodiimide methyl-<em>p</em>-toluenesulfonate;1-Cyclohexyl-3-(2-morpholinoethyl)carbodiimide metho-<em>p</em>-toluenesulphonate;<em>N</em>-Cyclohexyl-<em>N</em>-[β-(4-methylmorpholinium)ethyl] carbodiimide <em>p</em>-toluenesulfonate;<em>N</em>-Cyclohexyl-<em>N</em>′-[β-(4-methylmorpholino)ethyl]carbodiimide <em>p</em>-toluenesulfonate;1-Cyclohexyl-3-(2-morpholinethyl)carbodiimide metho-<em>p</em>-toluenesulfonate;CHM;<em>N</em>-Cyclohexyl-<em>N</em>′-2-morpholinyl(4)ethylcarbodiimide methyl <em>p</em>-toluenesulfonate;CMCT;NSC 231596;<em>N</em>-Cyclohexyl-<em>N</em>′-(2-morpholinoethyl)carbodiimide methyl <em>p</em>-toluenesulfonate",
    "duplicated_cas_no": "97717-29-8;102292-00-2;105222-31-9;109359-69-5;128057-28-3;4304-32-9;4641-47-8;5939-47-9;7329-78-4;66407-42-9;94117-76-7;94608-57-8",
    "SMILES": "C(CN=C=NC1CCCCC1)[N+]2(C)CCOCC2.S(=O)(=O)([O-])C1=CC=C(C)C=C1",
    "meta_data": {
        "InChI": "InChI=1S/C14H26N3O.C7H8O3S/c1-17(9-11-18-12-10-17)8-7-15-13-16-14-5-3-2-4-6-14;1-6-2-4-7(5-3-6)11(8,9)10/h14H,2-12H2,1H3;2-5H,1H3,(H,8,9,10)/q+1;/p-1",
        "InChIKey": null,
        "Canonical SMILES": "O=S(=O)([O-])C1=CC=C(C=C1)C.C(=NCC[N+]1(C)CCOCC1)=NC2CCCCC2",
        "Molecular Formula": "C<sub>14</sub>H<sub>26</sub>N<sub>3</sub>O.C<sub>7</sub>H<sub>7</sub>O<sub>3</sub>S",
        "Molecular Mass": "",
        "Melting Point": "113-115 °C"
    }
}