{
    "cas_no": "17141-63-8",
    "key_name": "Manganese dinitrate hexahydrate",
    "cn_name": "六水硝酸锰;",
    "alternate_name": "Nitric acid, manganese(2+) salt, hexahydrate;Manganese dinitrate hexahydrate;Manganese nitrate (Mn(NO<sub>3</sub>)<sub>2</sub>) hexahydrate;Manganese(II) nitrate hexahydrate;Manganous nitrate hexahydrate",
    "duplicated_cas_no": "2374821-02-8",
    "SMILES": "N(=O)(=O)O.[Mn].O",
    "meta_data": {
        "InChI": "InChI=1S/Mn.HNO3.3H2O/c;2-1(3)4;;;/h;(H,2,3,4);3*1H2",
        "InChIKey": null,
        "Canonical SMILES": "[Mn].O=N(=O)O.O",
        "Molecular Formula": "H<sub>2</sub>O.<sup>1</sup>/<sub>3</sub>HNO<sub>3</sub>.<sup>1</sup>/<sub>6</sub>Mn",
        "Molecular Mass": "",
        "Melting Point": "26 °C",
        "Density": "1.689 g/cm³ @ Temp: 25.000 °C"
    }
}