{
    "cas_no": "14328-64-4",
    "key_name": "Cyclohexaneacetic acid, α-amino-, methyl ester, hydrochloride (1:1), (α<em>R</em>)-",
    "cn_name": null,
    "alternate_name": "Cyclohexaneacetic acid, α-amino-, methyl ester, hydrochloride (1:1), (α<em>R</em>)-;Cyclohexaneacetic acid, α-amino-, methyl ester, hydrochloride, <span class=\"text-smallcaps\">D</span>-;Cyclohexaneacetic acid, α-amino-, methyl ester, hydrochloride, (<em>R</em>)-;Cyclohexaneacetic acid, α-amino-, methyl ester, hydrochloride, (α<em>R</em>)-;Methyl (2<em>R</em>)-2-amino-2-cyclohexylethanoate hydrochloride;(<em>R</em>)-(Amino)(cyclohexyl)ethanoic acid methyl ester hydrochloride;(R)-Methyl 2-amino-2-cyclohexylacetate hydrochloride",
    "duplicated_cas_no": "",
    "SMILES": "[C@@H](C(OC)=O)(N)C1CCCCC1.Cl",
    "meta_data": {
        "InChI": "InChI=1S/C9H17NO2.ClH/c1-12-9(11)8(10)7-5-3-2-4-6-7;/h7-8H,2-6,10H2,1H3;1H/t8-;/m1./s1",
        "InChIKey": null,
        "Canonical SMILES": "Cl.O=C(OC)C(N)C1CCCCC1",
        "Molecular Formula": "C<sub>9</sub>H<sub>17</sub>NO<sub>2</sub>.ClH",
        "Molecular Mass": "",
        "Melting Point": "190-191 °C"
    }
}