{
    "cas_no": "2935-44-6",
    "key_name": "2,5-Hexanediol",
    "cn_name": "2,5-己二醇;2,5-二羟基己烷;",
    "alternate_name": "2,5-Hexanediol;Diisopropanol;2,5-Dihydroxyhexane;NSC 3699",
    "duplicated_cas_no": "",
    "SMILES": "C(CC(C)O)C(C)O",
    "meta_data": {
        "InChI": "InChI=1S/C6H14O2/c1-5(7)3-4-6(2)8/h5-8H,3-4H2,1-2H3",
        "InChIKey": null,
        "Canonical SMILES": "OC(C)CCC(O)C",
        "Molecular Formula": "C<sub>6</sub>H<sub>14</sub>O<sub>2</sub>",
        "Molecular Mass": "118.17",
        "Boiling Point": "216 °C",
        "Melting Point": "-9 °C",
        "Density": "0.97 g/cm³"
    }
}