{
    "cas_no": "371-14-2",
    "key_name": "4-Fluorophenylhydrazine",
    "cn_name": "4-氟苯肼;4-氟苯肼;",
    "alternate_name": "Hydrazine, (4-fluorophenyl)-;Hydrazine, (<em>p</em>-fluorophenyl)-;(4-Fluorophenyl)hydrazine;(<em>p</em>-Fluorophenyl)hydrazine;4-Fluorophenylhydrazine;1-(4-Fluorophenyl)hydrazine;<em>N</em>-(4-Fluorophenyl)hydrazine",
    "duplicated_cas_no": "2171492-23-0",
    "SMILES": "N(N)C1=CC=C(F)C=C1",
    "meta_data": {
        "InChI": "InChI=1S/C6H7FN2/c7-5-1-3-6(9-8)4-2-5/h1-4,9H,8H2",
        "InChIKey": null,
        "Canonical SMILES": "FC1=CC=C(C=C1)NN",
        "Molecular Formula": "C<sub>6</sub>H<sub>7</sub>FN<sub>2</sub>",
        "Molecular Mass": "126.13",
        "Boiling Point": "129.2 °C @ Press: 12 Torr",
        "Melting Point": "36.8 °C"
    }
}