{
    "cas_no": "35120-18-4",
    "key_name": "Ethyl 1-bromocyclobutanecarboxylate",
    "cn_name": "1-溴环丁羧酸乙酯;",
    "alternate_name": "Cyclobutanecarboxylic acid, 1-bromo-, ethyl ester;1-Bromo-1-carbethoxycyclobutane;Ethyl 1-bromocyclobutanecarboxylate;Ethyl 1-bromocyclobutane-1-carboxylate;1-Ethoxycarbonyl-1-bromocyclobutane;NSC 135010;1-Bromocyclobutanecarboxylic acid ethyl ester;Ethyl 1-bromocyclobutanoate",
    "duplicated_cas_no": "",
    "SMILES": "C(OCC)(=O)C1(Br)CCC1",
    "meta_data": {
        "InChI": "InChI=1S/C7H11BrO2/c1-2-10-6(9)7(8)4-3-5-7/h2-5H2,1H3",
        "InChIKey": null,
        "Canonical SMILES": "O=C(OCC)C1(Br)CCC1",
        "Molecular Formula": "C<sub>7</sub>H<sub>11</sub>BrO<sub>2</sub>",
        "Molecular Mass": "207.07",
        "Boiling Point": "67-68 °C @ Press: 5 Torr"
    }
}