{
    "cas_no": "999-40-6",
    "key_name": "Neryl butyrate",
    "cn_name": null,
    "alternate_name": "Butanoic acid, (2<em>Z</em>)-3,7-dimethyl-2,6-octadien-1-yl ester;Butyric acid, 3,7-dimethyl-2,6-octadienyl ester, (<em>Z</em>)-;Butanoic acid, 3,7-dimethyl-2,6-octadienyl ester, (<em>Z</em>)-;Butanoic acid, (2<em>Z</em>)-3,7-dimethyl-2,6-octadienyl ester;2,6-Octadien-1-ol, 3,7-dimethyl-, butyrate, (<em>Z</em>)-;Neryl butyrate;Neryl butanoate;Neryl <em>n</em>-butyrate;Nerol butyrate",
    "duplicated_cas_no": "",
    "SMILES": "C(=C\\COC(CCC)=O)(\\CCC=C(C)C)/C",
    "meta_data": {
        "InChI": "InChI=1S/C14H24O2/c1-5-7-14(15)16-11-10-13(4)9-6-8-12(2)3/h8,10H,5-7,9,11H2,1-4H3/b13-10-",
        "InChIKey": null,
        "Canonical SMILES": "O=C(OCC=C(C)CCC=C(C)C)CCC",
        "Molecular Formula": "C<sub>14</sub>H<sub>24</sub>O<sub>2</sub>",
        "Molecular Mass": "224.34",
        "Boiling Point": "89-92 °C @ Press: 0.8 Torr",
        "Density": "0.8986 g/cm³ @ Temp: 15 °C"
    }
}