{
    "cas_no": "2369-13-3",
    "key_name": "3-Fluoro-4-nitrobenzenamine",
    "cn_name": "3-氟-4-硝基苯胺;",
    "alternate_name": "Benzenamine, 3-fluoro-4-nitro-;Aniline, 3-fluoro-4-nitro-;3-Fluoro-4-nitrobenzenamine;3-Fluoro-4-nitroaniline;NSC 402983;4-Nitro-3-fluoroaniline",
    "duplicated_cas_no": "",
    "SMILES": "N(=O)(=O)C1=C(F)C=C(N)C=C1",
    "meta_data": {
        "InChI": "InChI=1S/C6H5FN2O2/c7-5-3-4(8)1-2-6(5)9(10)11/h1-3H,8H2",
        "InChIKey": null,
        "Canonical SMILES": "O=N(=O)C1=CC=C(N)C=C1F",
        "Molecular Formula": "C<sub>6</sub>H<sub>5</sub>FN<sub>2</sub>O<sub>2</sub>",
        "Molecular Mass": "156.11",
        "Melting Point": "252-253 °C"
    }
}