{
    "cas_no": "7647-01-0",
    "key_name": "Hydrochloric acid",
    "cn_name": "盐酸;氯化氢;氢氯酸;浓盐酸;",
    "alternate_name": "Hydrochloric acid;Anhydrous hydrochloric acid;Chlorohydric acid;Dilute hydrochloric acid;Hydrogen chloride;Muriatic acid;Hydrogen chloride (HCl);Hydrochloric acid gas;Enplate PO 236;Chloridric acid;NSC 77365;Baume HCL;ICON Etch",
    "duplicated_cas_no": "113962-65-5;51005-19-7;61674-62-2;218625-68-4",
    "SMILES": "Cl",
    "meta_data": {
        "InChI": "InChI=1S/ClH/h1H",
        "InChIKey": null,
        "Canonical SMILES": "Cl",
        "Molecular Formula": "ClH",
        "Molecular Mass": "",
        "Boiling Point": "-85 °C",
        "Melting Point": "-114 °C",
        "Density": "1.09620 g/cm³ @ Press: 760 Torr"
    }
}