{
    "cas_no": "20017-67-8",
    "key_name": "γ-Phenylbenzenepropanol",
    "cn_name": "3,3-二苯基丙醇;1-羟基-3,3-二苯基丙烷;",
    "alternate_name": "Benzenepropanol, γ-phenyl-;1-Propanol, 3,3-diphenyl-;γ-Phenylbenzenepropanol;3,3-Diphenyl-1-propanol;3,3-Diphenylpropanol;NSC 74499;3,3-Diphenylpropyl alcohol",
    "duplicated_cas_no": "",
    "SMILES": "C(CCO)(C1=CC=CC=C1)C2=CC=CC=C2",
    "meta_data": {
        "InChI": "InChI=1S/C15H16O/c16-12-11-15(13-7-3-1-4-8-13)14-9-5-2-6-10-14/h1-10,15-16H,11-12H2",
        "InChIKey": null,
        "Canonical SMILES": "OCCC(C=1C=CC=CC1)C=2C=CC=CC2",
        "Molecular Formula": "C<sub>15</sub>H<sub>16</sub>O",
        "Molecular Mass": "212.29",
        "Boiling Point": "152-154 °C @ Press: 0.3 Torr",
        "Melting Point": "20-22 °C"
    }
}