{
    "cas_no": "624-89-5",
    "key_name": "Ethyl methyl sulfide",
    "cn_name": "甲基乙基硫醚;",
    "alternate_name": "Ethane, (methylthio)-;Sulfide, ethyl methyl;(Methylthio)ethane;Ethyl methyl sulfide;Methyl ethyl sulfide;2-Thiabutane;1-(Methylthio)ethane;Ethyl methyl thioether;(Methylsulfanyl)ethane;Ethyl(methyl)sulfane",
    "duplicated_cas_no": "",
    "SMILES": "C(SC)C",
    "meta_data": {
        "InChI": "InChI=1S/C3H8S/c1-3-4-2/h3H2,1-2H3",
        "InChIKey": null,
        "Canonical SMILES": "S(C)CC",
        "Molecular Formula": "C<sub>3</sub>H<sub>8</sub>S",
        "Molecular Mass": "76.16",
        "Boiling Point": "66.7 °C",
        "Melting Point": "-105.9 °C",
        "Density": "0.8455 g/cm³ @ Temp: 20 °C"
    }
}