{
    "cas_no": "1677-80-1",
    "key_name": "3,4-Dichloropyridazine",
    "cn_name": null,
    "alternate_name": "Pyridazine, 3,4-dichloro-;3,4-Dichloropyridazine;NSC 73470",
    "duplicated_cas_no": "",
    "SMILES": "ClC1=C(Cl)N=NC=C1",
    "meta_data": {
        "InChI": "InChI=1S/C4H2Cl2N2/c5-3-1-2-7-8-4(3)6/h1-2H",
        "InChIKey": null,
        "Canonical SMILES": "ClC1=NN=CC=C1Cl",
        "Molecular Formula": "C<sub>4</sub>H<sub>2</sub>Cl<sub>2</sub>N<sub>2</sub>",
        "Molecular Mass": "148.98",
        "Boiling Point": "125 °C @ Press: 3-4 Torr"
    }
}