{
    "cas_no": "10203-08-4",
    "key_name": "3,5-Dichlorobenzaldehyde",
    "cn_name": "3,5-二氯苯甲醛;",
    "alternate_name": "Benzaldehyde, 3,5-dichloro-;3,5-Dichlorobenzaldehyde;NSC 109095;2,6-Dichloro-4-benzaldehyde",
    "duplicated_cas_no": "",
    "SMILES": "C(=O)C1=CC(Cl)=CC(Cl)=C1",
    "meta_data": {
        "InChI": "InChI=1S/C7H4Cl2O/c8-6-1-5(4-10)2-7(9)3-6/h1-4H",
        "InChIKey": null,
        "Canonical SMILES": "O=CC=1C=C(Cl)C=C(Cl)C1",
        "Molecular Formula": "C<sub>7</sub>H<sub>4</sub>Cl<sub>2</sub>O",
        "Molecular Mass": "175.01",
        "Boiling Point": "240 °C",
        "Melting Point": "65 °C"
    }
}