{
    "cas_no": "147-82-0",
    "key_name": "2,4,6-Tribromoaniline",
    "cn_name": "2,4,6-三溴苯胺;",
    "alternate_name": "Benzenamine, 2,4,6-tribromo-;Aniline, 2,4,6-tribromo-;2,4,6-Tribromobenzenamine;2,4,6-Tribromoaniline;<em>sym</em>-Tribromoaniline;NSC 2216;2,4,6-Tribromo-phenylamine",
    "duplicated_cas_no": "",
    "SMILES": "NC1=C(Br)C=C(Br)C=C1Br",
    "meta_data": {
        "InChI": "InChI=1S/C6H4Br3N/c7-3-1-4(8)6(10)5(9)2-3/h1-2H,10H2",
        "InChIKey": null,
        "Canonical SMILES": "BrC=1C=C(Br)C(N)=C(Br)C1",
        "Molecular Formula": "C<sub>6</sub>H<sub>4</sub>Br<sub>3</sub>N",
        "Molecular Mass": "329.81",
        "Boiling Point": "300 °C",
        "Melting Point": "120-122 °C",
        "Density": "2.35 g/cm³"
    }
}