{
    "cas_no": "16834-13-2",
    "key_name": "Tetra(4-pyridyl)porphyrin",
    "cn_name": null,
    "alternate_name": "21<em>H</em>,23<em>H</em>-Porphine, 5,10,15,20-tetra-4-pyridinyl-;Porphine, 5,10,15,20-tetra-4-pyridyl-;Porphine, α,β,γ,δ-tetra-4-pyridyl-;5,10,15,20-Tetra-4-pyridinyl-21<em>H</em>,23<em>H</em>-porphine;α,β,γ,δ-Tetra-4-pyridylporphine;Tetrakis(4-pyridyl)porphine;5,10,15,20-Tetra(4-pyridyl)porphine;Tetrakis(4-pyridyl)porphyrin;Tetra(4-pyridyl)porphyrin;<em>meso</em>-Tetra(4-pyridyl)porphyrin;5,10,15,20-Tetra(4-pyridyl)porphyrin;Mesotetra(4-pyridyl)porphyrin;<em>meso</em>-Tetrakis(4-pyridyl)porphine;5,10,15,20-Tetrakis(4-pyridyl)-21<em>H</em>,23<em>H</em>-porphine;<em>meso</em>-Tetrakis(4-pyridyl)porphyrin;5,10,15,20-Tetrakis(4′-<em>N</em>-pyridyl)porphyrin;5,10,15,20-Tetra(4-pyridyl)-21<em>H</em>,23<em>H</em>-porphine;<em>meso</em>-Tetra(4-pyridyl)porphine;5,10,15,20-Tetrakis(4-pyridyl)porphyrin;5,10,15,20-Tetrakis(4-pyridinyl)-21<em>H</em>,23<em>H</em>-porphine;Tetra(4-pyridyl)porphine;α,β,γ,δ-Tetrakis(4-pyridyl)porphine;5,10,15,20-Tetrakis(4-pyridyl)-21<em>H</em>,23<em>H</em>-porphyrin;<em>meso</em>-Tetrakis(pyridin-4-yl)porphine;5,10,15,20-Tetra(4-pyridyl)-21<em>H</em>,23<em>H</em>-porphyrin",
    "duplicated_cas_no": "1280164-55-7",
    "SMILES": "C=1(C=2NC(=CC2)C(=C3N=C(C=C3)C(=C4NC(=C(C5=NC1C=C5)C=6C=CN=CC6)C=C4)C=7C=CN=CC7)C=8C=CN=CC8)C=9C=CN=CC9",
    "meta_data": {
        "InChI": "InChI=1S/C40H26N8/c1-2-30-38(26-11-19-42-20-12-26)32-5-6-34(47-32)40(28-15-23-44-24-16-28)36-8-7-35(48-36)39(27-13-21-43-22-14-27)33-4-3-31(46-33)37(29(1)45-30)25-9-17-41-18-10-25/h1-24,45,48H/b37-29-,37-31?,38-30-,38-32?,39-33-,39-35?,40-34-,40-36?",
        "InChIKey": null,
        "Canonical SMILES": "N=1C=CC(=CC1)C2=C3N=C(C=C3)C(C=4C=CN=CC4)=C5C=CC(N5)=C(C6=NC(C=C6)=C(C=7C=CN=CC7)C8=CC=C2N8)C=9C=CN=CC9",
        "Molecular Formula": "C<sub>40</sub>H<sub>26</sub>N<sub>8</sub>",
        "Molecular Mass": "618.69",
        "Melting Point": "&gt;300 °C"
    }
}