{
    "cas_no": "30315-46-9",
    "key_name": "(2<em>S</em>)-3-[(1,1-Dimethylethyl)amino]-1,2-propanediol",
    "cn_name": "S-(-)-3-叔丁胺基-1,2-丙二醇;",
    "alternate_name": "1,2-Propanediol, 3-[(1,1-dimethylethyl)amino]-, (2<em>S</em>)-;1,2-Propanediol, 3-(<em>tert</em>-butylamino)-, (<em>S</em>)-(-)-;1,2-Propanediol, 3-[(1,1-dimethylethyl)amino]-, (<em>S</em>)-;(2<em>S</em>)-3-[(1,1-Dimethylethyl)amino]-1,2-propanediol;(<em>S</em>)-3-(<em>tert</em>-Butylamino)-1,2-propanediol;(<em>S</em>)-1-<em>tert</em>-Butylamino-2,3-propanediol;(2S)-3-(<em>tert</em>-Butylamino)propane-1,2-diol",
    "duplicated_cas_no": "",
    "SMILES": "C([C@@H](CO)O)NC(C)(C)C",
    "meta_data": {
        "InChI": "InChI=1S/C7H17NO2/c1-7(2,3)8-4-6(10)5-9/h6,8-10H,4-5H2,1-3H3/t6-/m0/s1",
        "InChIKey": null,
        "Canonical SMILES": "OCC(O)CNC(C)(C)C",
        "Molecular Formula": "C<sub>7</sub>H<sub>17</sub>NO<sub>2</sub>",
        "Molecular Mass": "147.22",
        "Melting Point": "83.5-85.0 °C"
    }
}