{
    "cas_no": "23328-62-3",
    "key_name": "(Methylthio)acetaldehyde",
    "cn_name": null,
    "alternate_name": "Acetaldehyde, 2-(methylthio)-;Acetaldehyde, (methylthio)-;2-(Methylthio)acetaldehyde;2-(Methylmercapto)acetaldehyde;(Methylthio)acetaldehyde;2-(Methylsulfanyl)acetaldehyde",
    "duplicated_cas_no": "",
    "SMILES": "C(C=O)SC",
    "meta_data": {
        "InChI": "InChI=1S/C3H6OS/c1-5-3-2-4/h2H,3H2,1H3",
        "InChIKey": null,
        "Canonical SMILES": "O=CCSC",
        "Molecular Formula": "C<sub>3</sub>H<sub>6</sub>OS",
        "Molecular Mass": "90.14",
        "Boiling Point": "125-138 °C",
        "Density": "1.0591 g/cm³ @ Temp: 20 °C"
    }
}