{
    "cas_no": "95-33-0",
    "key_name": "Accelerator CZ",
    "cn_name": "N-环己基-2-苯并噻唑次磺酰胺;橡胶促进剂CBS;橡胶促进剂CZ;",
    "alternate_name": "2-Benzothiazolesulfenamide, <em>N</em>-cyclohexyl-;<em>N</em>-Cyclohexyl-2-benzothiazolesulfenamide;Conac A;Curax;Delac S;Conac S;Royal CBTS;Santocure;Sulfenamide Ts;<em>N</em>-Cyclohexylbenzothiazolesulfenamide;Ekagom CBS;Vulkacit CZ;Vulcafor CBS;Sulfenax CB;Thiohexam;Sulfenax;Sulfenax CB 30;Rhodifax 16;Accelerator CZ;<em>N</em>-Cyclohexylbenzothiazole-2-sulphenamide;2-(Cyclohexylaminothio)benzothiazole;Benzothiazyl-2-cyclohexylsulfenamide;CBS;Nocceler CZ;Vulkacit C;Soxinol CZ;Sulfenax CB/K;Vulkacit CZ/K;Vulkacit CZ/C;Pennac CBS;Accicure HBS;<em>N</em>-Cyclohexyl-2-benzothiazolylsulphenamide;Sanceler CM-PO;Vulcafor HBS;Sanceler CM;Nocceler CZ-P;CBTS;<em>N</em>-Cyclohexyl-2-benzothiazolylsulfenamide;<em>N</em>-Cyclohexyl-2-benzothiazylsulfenamide;Nocceler CZ-G;Rhenogran CBS;2-Benzothiazolesulfenic acid <em>N</em>-cyclohexylamide;Accel CZ;Durax;Vulkafil ZN 94TT02;Sanceler CZ-P;Vulkacit CZ/EG-C;Sanceler CM-G;CBS (accelerator);CZ-G;Santocure CBS;NSC 4809;Banac CBS;Vulkacit CZ/EG;Vulkacit CZ/CV;Perkacit CBS;Sanceler CZ-G;Rhenogran CBS 80;Accelerator CM;CZ;CBS 80;Accelerator CBS;CZ Vulcanizer;Nocceler CZ-R;CZ 80;Oricel CZ;Vulkacit CBS;Pilicure CBS;Rubenamid C-EG/C;sulfenamide Tz",
    "duplicated_cas_no": "51540-81-9;75301-39-2;108251-59-8;156014-54-9;929698-33-9;2087514-33-6",
    "SMILES": "S(NC1CCCCC1)C2=NC=3C(S2)=CC=CC3",
    "meta_data": {
        "InChI": "InChI=1S/C13H16N2S2/c1-2-6-10(7-3-1)15-17-13-14-11-8-4-5-9-12(11)16-13/h4-5,8-10,15H,1-3,6-7H2",
        "InChIKey": null,
        "Canonical SMILES": "N1=C(SNC2CCCCC2)SC=3C=CC=CC13",
        "Molecular Formula": "C<sub>13</sub>H<sub>16</sub>N<sub>2</sub>S<sub>2</sub>",
        "Molecular Mass": "264.41",
        "Melting Point": "93-100 °C",
        "Density": "1.27 g/cm³"
    }
}