{
    "cas_no": "20389-09-7",
    "key_name": "2-(2-Chlorophenyl)-4-quinolinecarboxylic acid",
    "cn_name": null,
    "alternate_name": "4-Quinolinecarboxylic acid, 2-(2-chlorophenyl)-;Cinchoninic acid, 2-(<em>o</em>-chlorophenyl)-;2-(2-Chlorophenyl)-4-quinolinecarboxylic acid;2-(<em>o</em>-Chlorophenyl)cinchoninic acid;NSC 109765",
    "duplicated_cas_no": "",
    "SMILES": "ClC1=C(C2=NC3=C(C(C(O)=O)=C2)C=CC=C3)C=CC=C1",
    "meta_data": {
        "InChI": "InChI=1S/C16H10ClNO2/c17-13-7-3-1-6-11(13)15-9-12(16(19)20)10-5-2-4-8-14(10)18-15/h1-9H,(H,19,20)",
        "InChIKey": null,
        "Canonical SMILES": "O=C(O)C1=CC(=NC=2C=CC=CC21)C=3C=CC=CC3Cl",
        "Molecular Formula": "C<sub>16</sub>H<sub>10</sub>ClNO<sub>2</sub>",
        "Molecular Mass": "283.71",
        "Melting Point": "233.0-235.0 °C"
    }
}