{
    "cas_no": "108-27-0",
    "key_name": "5-Methyl-2-pyrrolidone",
    "cn_name": "5-甲基-2-吡咯酮;5-甲基-2-吡咯烷酮;",
    "alternate_name": "2-Pyrrolidinone, 5-methyl-;2-Pyrrolidinone, 5-methyl-, (±)-;5-Methyl-2-pyrrolidinone;γ-Valerolactam;5-Methyl-2-pyrrolidone;5-Methyl-1-azacyclopentan-2-one;(±)-5-Methyl-2-pyrrolidinone;NSC 75833;5-Methyl-2-pyrroldinone;MPLD",
    "duplicated_cas_no": "62182-32-5",
    "SMILES": "CC1NC(=O)CC1",
    "meta_data": {
        "InChI": "InChI=1S/C5H9NO/c1-4-2-3-5(7)6-4/h4H,2-3H2,1H3,(H,6,7)",
        "InChIKey": null,
        "Canonical SMILES": "O=C1NC(C)CC1",
        "Molecular Formula": "C<sub>5</sub>H<sub>9</sub>NO",
        "Molecular Mass": "99.13",
        "Boiling Point": "248 °C",
        "Melting Point": "43 °C",
        "Density": "1.0458 g/cm³ @ Temp: 22 °C"
    }
}