{
    "cas_no": "127786-29-2",
    "key_name": "1<em>H</em>-Dibenz[<em>c</em>,<em>f</em>]imidazo[1,5-<em>a</em>]azepin-3-amine, 9,13b-dihydro-, hydrobromide (1:1)",
    "cn_name": null,
    "alternate_name": "1<em>H</em>-Dibenz[<em>c</em>,<em>f</em>]imidazo[1,5-<em>a</em>]azepin-3-amine, 9,13b-dihydro-, hydrobromide (1:1);1<em>H</em>-Dibenz[<em>c</em>,<em>f</em>]imidazo[1,5-<em>a</em>]azepin-3-amine, 9,13b-dihydro-, monohydrobromide",
    "duplicated_cas_no": "",
    "SMILES": "NC=1N2C(C=3C(CC=4C2=CC=CC4)=CC=CC3)CN1.Br",
    "meta_data": {
        "InChI": "InChI=1S/C16H15N3.BrH/c17-16-18-10-15-13-7-3-1-5-11(13)9-12-6-2-4-8-14(12)19(15)16;/h1-8,15H,9-10H2,(H2,17,18);1H",
        "InChIKey": null,
        "Canonical SMILES": "Br.N1=C(N)N2C=3C=CC=CC3CC=4C=CC=CC4C2C1",
        "Molecular Formula": "C<sub>16</sub>H<sub>15</sub>N<sub>3</sub>.BrH",
        "Molecular Mass": "",
        "Melting Point": "284-286 °C"
    }
}