{
    "cas_no": "603-62-3",
    "key_name": "3-Nitrophthalimide",
    "cn_name": "3-硝基邻苯二甲酰亚胺;",
    "alternate_name": "1<em>H</em>-Isoindole-1,3(2<em>H</em>)-dione, 4-nitro-;Phthalimide, 3-nitro-;4-Nitro-1<em>H</em>-isoindole-1,3(2<em>H</em>)-dione;3-Nitrophthalimide;NSC 5393;4-Nitro-1H-isoindole-1,3(2H)-dione;4-Nitroisoindoline-1,3-dione",
    "duplicated_cas_no": "",
    "SMILES": "N(=O)(=O)C1=C2C(C(=O)NC2=O)=CC=C1",
    "meta_data": {
        "InChI": "InChI=1S/C8H4N2O4/c11-7-4-2-1-3-5(10(13)14)6(4)8(12)9-7/h1-3H,(H,9,11,12)",
        "InChIKey": null,
        "Canonical SMILES": "O=C1NC(=O)C=2C1=CC=CC2N(=O)=O",
        "Molecular Formula": "C<sub>8</sub>H<sub>4</sub>N<sub>2</sub>O<sub>4</sub>",
        "Molecular Mass": "192.13",
        "Melting Point": "214 °C",
        "Density": "1.705 g/cm³ (solid)"
    }
}