{
    "cas_no": "989-51-5",
    "key_name": "Epigallocatechin gallate",
    "cn_name": "(-)-表没食子儿茶素没食子酸酯;",
    "alternate_name": "Benzoic acid, 3,4,5-trihydroxy-, (2<em>R</em>,3<em>R</em>)-3,4-dihydro-5,7-dihydroxy-2-(3,4,5-trihydroxyphenyl)-2<em>H</em>-1-benzopyran-3-yl ester;Epigallocatechol, 3-gallate, (-)-;Benzoic acid, 3,4,5-trihydroxy-, 3,4-dihydro-5,7-dihydroxy-2-(3,4,5-trihydroxyphenyl)-2<em>H</em>-1-benzopyran-3-yl ester, (2<em>R</em>-<em>cis</em>)-;Epigallocatechol, 3-gallate;Epigallocatechol, gallate;Gallic acid, 3-ester with epigallocatechol, (-)-;(-)-Epigallocatechin gallate;(-)-Epigallocatechol gallate;(-)-Epigallocatechin 3-gallate;Epigallocatechin gallate;Epigallocatechin 3-gallate;3-<em>O</em>-Galloyl-(-)-epigallocatechin;(-)-Epigallocatechin 3-<em>O</em>-gallate;<span class=\"text-smallcaps\">L</span>-Epigallocatechin gallate;<em>epi</em>-Gallocatechin 3-<em>O</em>-gallate;(-)-<em>epi</em>-Gallocatechin 3-<em>O</em>-gallate;NVP-XAA 723;Epigallocatechin 3-<em>O</em>-gallate;Epigallocatechin-3-monogallate;Teavigo;PF-EGCg 90;EGCG;<em>epi</em>-Gallocatechin gallate;Theliokeep;Teafuran 90S;EGCg-OP",
    "duplicated_cas_no": "863-65-0;435276-52-1",
    "SMILES": "O(C(=O)C1=CC(O)=C(O)C(O)=C1)[C@H]2[C@H](OC=3C(C2)=C(O)C=C(O)C3)C4=CC(O)=C(O)C(O)=C4",
    "meta_data": {
        "InChI": "InChI=1S/C22H18O11/c23-10-5-12(24)11-7-18(33-22(31)9-3-15(27)20(30)16(28)4-9)21(32-17(11)6-10)8-1-13(25)19(29)14(26)2-8/h1-6,18,21,23-30H,7H2/t18-,21-/m1/s1",
        "InChIKey": null,
        "Canonical SMILES": "O=C(OC1CC=2C(O)=CC(O)=CC2OC1C3=CC(O)=C(O)C(O)=C3)C4=CC(O)=C(O)C(O)=C4",
        "Molecular Formula": "C<sub>22</sub>H<sub>18</sub>O<sub>11</sub>",
        "Molecular Mass": "458.37",
        "Melting Point": "217 °C"
    }
}