{
    "cas_no": "13257-51-7",
    "key_name": "Acetic acid, 2,2,2-trifluoro-, mercury(2+) salt (2:1)",
    "cn_name": "三氟乙酸汞;三氟醋酸汞;",
    "alternate_name": "Acetic acid, 2,2,2-trifluoro-, mercury(2+) salt (2:1);Acetic acid, trifluoro-, mercury(2+) salt;Mercuric trifluoroacetate;Trifluoroacetic acid mercury(2+) salt;Bis(trifluoroacetato)mercury;Mercury(II) trifluoroacetate;Mercury bis(trifluoroacetate);Mercury(2+) trifluoroacetate;Mercury(II) bis(trifluoroacetate);Bis(trifluoroacetoxy)mercury",
    "duplicated_cas_no": "75513-04-1;1091628-50-0;1645280-58-5",
    "SMILES": "C(C(O)=O)(F)(F)F.[Hg]",
    "meta_data": {
        "InChI": "InChI=1S/C2HF3O2.Hg/c3-2(4,5)1(6)7;/h(H,6,7);",
        "InChIKey": null,
        "Canonical SMILES": "[Hg].O=C(O)C(F)(F)F",
        "Molecular Formula": "C<sub>2</sub>HF<sub>3</sub>O<sub>2</sub>.<sup>1</sup>/<sub>2</sub>Hg",
        "Molecular Mass": "",
        "Melting Point": "164-168 °C"
    }
}