{
    "cas_no": "764-85-2",
    "key_name": "Nonanoyl chloride",
    "cn_name": null,
    "alternate_name": "Nonanoyl chloride;Pelargonoyl chloride;Nonanoic acid chloride;<em>n</em>-Nonanoyl chloride;Pelargonic acid chloride;Pelargonyl chloride;NSC 9829",
    "duplicated_cas_no": "",
    "SMILES": "C(CCCCC)CCC(Cl)=O",
    "meta_data": {
        "InChI": "InChI=1S/C9H17ClO/c1-2-3-4-5-6-7-8-9(10)11/h2-8H2,1H3",
        "InChIKey": null,
        "Canonical SMILES": "O=C(Cl)CCCCCCCC",
        "Molecular Formula": "C<sub>9</sub>H<sub>17</sub>ClO",
        "Molecular Mass": "176.68",
        "Boiling Point": "215.3 °C",
        "Melting Point": "-60.5 °C",
        "Density": "0.93353 g/cm³ @ Temp: 30 °C"
    }
}