{
    "cas_no": "625-51-4",
    "key_name": "<em>N</em>-(Hydroxymethyl)acetamide",
    "cn_name": "N-(羟甲基)乙酰胺;",
    "alternate_name": "Acetamide, <em>N</em>-(hydroxymethyl)-;<em>N</em>-(Hydroxymethyl)acetamide;Formicin;<em>N</em>-Methylolacetamide;Acetamidomethanol;<em>N</em>-Monomethylolacetamide;Monomethylolacetamide",
    "duplicated_cas_no": "",
    "SMILES": "N(C(C)=O)CO",
    "meta_data": {
        "InChI": "InChI=1S/C3H7NO2/c1-3(6)4-2-5/h5H,2H2,1H3,(H,4,6)",
        "InChIKey": null,
        "Canonical SMILES": "O=C(NCO)C",
        "Molecular Formula": "C<sub>3</sub>H<sub>7</sub>NO<sub>2</sub>",
        "Molecular Mass": "89.09",
        "Melting Point": "56-57 °C",
        "Density": "1.024 g/cm³ @ Temp: 20 °C"
    }
}