{
    "cas_no": "5697-44-9",
    "key_name": "2-[(4-Methylphenyl)sulfonyl]acetonitrile",
    "cn_name": "4-甲苯磺酰乙腈;对甲苯磺酰乙腈;",
    "alternate_name": "Acetonitrile, 2-[(4-methylphenyl)sulfonyl]-;Acetonitrile, (<em>p</em>-tolylsulfonyl)-;Acetonitrile, [(4-methylphenyl)sulfonyl]-;2-[(4-Methylphenyl)sulfonyl]acetonitrile;4-Tolylsulfoacetonitrile;[(4-Methylphenyl)sulfonyl]acetonitrile;(<em>p</em>-Tolylsulfonyl)acetonitrile;Cyanomethyl <em>p</em>-tolyl sulfone;(4-Tolylsulfonyl)acetonitrile;<em>p</em>-Toluenesulfonylacetonitrile;NSC 125922;4-Methylbenzenesulfonylacetonitrile;Tosylacetonitrile;2-(4-Methylbenzenesulfonyl)acetonitrile;2-Tosylacetonitrile;(Toluene-4-sulfonyl)-acetonitrile",
    "duplicated_cas_no": "",
    "SMILES": "S(CC#N)(=O)(=O)C1=CC=C(C)C=C1",
    "meta_data": {
        "InChI": "InChI=1S/C9H9NO2S/c1-8-2-4-9(5-3-8)13(11,12)7-6-10/h2-5H,7H2,1H3",
        "InChIKey": null,
        "Canonical SMILES": "N#CCS(=O)(=O)C1=CC=C(C=C1)C",
        "Molecular Formula": "C<sub>9</sub>H<sub>9</sub>NO<sub>2</sub>S",
        "Molecular Mass": "195.24",
        "Melting Point": "149.5-150.5 °C"
    }
}