{
    "cas_no": "1073-26-3",
    "key_name": "2-Propionylpyrrole",
    "cn_name": null,
    "alternate_name": "1-Propanone, 1-(1<em>H</em>-pyrrol-2-yl)-;1-Propanone, 1-pyrrol-2-yl-;1-Propanone, 1-(2-pyrryl)-;1-(1<em>H</em>-Pyrrol-2-yl)-1-propanone;2-Propionylpyrrole;2-Propanoylpyrrole;NSC 81353;1-(1<em>H</em>-Pyrrol-2-yl)propan-1-one",
    "duplicated_cas_no": "",
    "SMILES": "C(CC)(=O)C1=CC=CN1",
    "meta_data": {
        "InChI": "InChI=1S/C7H9NO/c1-2-7(9)6-4-3-5-8-6/h3-5,8H,2H2,1H3",
        "InChIKey": null,
        "Canonical SMILES": "O=C(C1=CC=CN1)CC",
        "Molecular Formula": "C<sub>7</sub>H<sub>9</sub>NO",
        "Molecular Mass": "123.15",
        "Boiling Point": "227-230 °C",
        "Melting Point": "52 °C"
    }
}