{
    "cas_no": "5557-88-0",
    "key_name": "2-Penten-4-yn-1-ol",
    "cn_name": "2-五亚乙基六胺-4-炔-1-醇;2-烯-4-炔-戊醇-1;",
    "alternate_name": "2-Penten-4-yn-1-ol;NSC 35152",
    "duplicated_cas_no": "",
    "SMILES": "C(=CCO)C#C",
    "meta_data": {
        "InChI": "InChI=1S/C5H6O/c1-2-3-4-5-6/h1,3-4,6H,5H2",
        "InChIKey": null,
        "Canonical SMILES": "C#CC=CCO",
        "Molecular Formula": "C<sub>5</sub>H<sub>6</sub>O",
        "Molecular Mass": "82.10",
        "Boiling Point": "71-73 °C @ Press: 19 Torr"
    }
}