{
    "cas_no": "539-80-0",
    "key_name": "Tropone",
    "cn_name": "环庚三烯酮;",
    "alternate_name": "2,4,6-Cycloheptatrien-1-one;Tropone;Cycloheptatrienone;Tropon;2,4,6-Cycloheptatrienone",
    "duplicated_cas_no": "",
    "SMILES": "O=C1C=CC=CC=C1",
    "meta_data": {
        "InChI": "InChI=1S/C7H6O/c8-7-5-3-1-2-4-6-7/h1-6H",
        "InChIKey": null,
        "Canonical SMILES": "O=C1C=CC=CC=C1",
        "Molecular Formula": "C<sub>7</sub>H<sub>6</sub>O",
        "Molecular Mass": "106.12",
        "Boiling Point": "104-105.5 °C @ Press: 10 Torr",
        "Melting Point": "-7 °C",
        "Density": "1.0825 g/cm³ @ Temp: 25 °C"
    }
}