{
    "cas_no": "138-60-3",
    "key_name": "Chelidamic acid",
    "cn_name": "白屈氨酸;4-氧代-1,4-二氢-2,6-吡啶二甲酸;",
    "alternate_name": "2,6-Pyridinedicarboxylic acid, 1,4-dihydro-4-oxo-;Chelidamic acid;1,4-Dihydro-4-oxo-2,6-pyridinedicarboxylic acid;NSC 3983;4-Oxo-1,4-dihydropyridine-2,6-dicarboxylic acid",
    "duplicated_cas_no": "",
    "SMILES": "C(O)(=O)C=1NC(C(O)=O)=CC(=O)C1",
    "meta_data": {
        "InChI": "InChI=1S/C7H5NO5/c9-3-1-4(6(10)11)8-5(2-3)7(12)13/h1-2H,(H,8,9)(H,10,11)(H,12,13)",
        "InChIKey": null,
        "Canonical SMILES": "O=C1C=C(NC(=C1)C(=O)O)C(=O)O",
        "Molecular Formula": "C<sub>7</sub>H<sub>5</sub>NO<sub>5</sub>",
        "Molecular Mass": "183.12",
        "Melting Point": "248 °C (decomp)"
    }
}