{
    "cas_no": "874-14-6",
    "key_name": "1,3-Dimethyluracil",
    "cn_name": "1,3-二甲基脲嘧啶;1,3-二甲基尿嘧啶;1,3-二甲基-2,4-嘧啶二酮;",
    "alternate_name": "2,4(1<em>H</em>,3<em>H</em>)-Pyrimidinedione, 1,3-dimethyl-;Uracil, 1,3-dimethyl-;1,3-Dimethyl-2,4(1<em>H</em>,3<em>H</em>)-pyrimidinedione;1,3-Dimethyluracil;<em>N</em>,<em>N</em>′-Dimethyluracil;<em>N</em><sup>1</sup>,<em>N</em><sup>3</sup>-Dimethyluracil;1,3-Dimethyl-2,4-pyrimidinedione;NSC 401858;1,3-Dimethyl-1,2,3,4-tetrahydropyrimidine-2,4-dione;1,3-Dimethyl-1<em>H</em>,3<em>H</em>-pyrimidine-2,4-dione",
    "duplicated_cas_no": "",
    "SMILES": "O=C1N(C)C(=O)C=CN1C",
    "meta_data": {
        "InChI": "InChI=1S/C6H8N2O2/c1-7-4-3-5(9)8(2)6(7)10/h3-4H,1-2H3",
        "InChIKey": null,
        "Canonical SMILES": "O=C1C=CN(C(=O)N1C)C",
        "Molecular Formula": "C<sub>6</sub>H<sub>8</sub>N<sub>2</sub>O<sub>2</sub>",
        "Molecular Mass": "140.14",
        "Melting Point": "120 °C"
    }
}