{
    "cas_no": "328-72-3",
    "key_name": "1-Chloro-3,5-bis(trifluoromethyl)benzene",
    "cn_name": "3,5-二三氟甲基氯苯;",
    "alternate_name": "Benzene, 1-chloro-3,5-bis(trifluoromethyl)-;1-Chloro-3,5-bis(trifluoromethyl)benzene;3,5-Bis(trifluoromethyl)chlorobenzene;5-Chloro-1,3-bis(trifluoromethyl)benzene",
    "duplicated_cas_no": "",
    "SMILES": "C(F)(F)(F)C1=CC(C(F)(F)F)=CC(Cl)=C1",
    "meta_data": {
        "InChI": "InChI=1S/C8H3ClF6/c9-6-2-4(7(10,11)12)1-5(3-6)8(13,14)15/h1-3H",
        "InChIKey": null,
        "Canonical SMILES": "FC(F)(F)C1=CC(Cl)=CC(=C1)C(F)(F)F",
        "Molecular Formula": "C<sub>8</sub>H<sub>3</sub>ClF<sub>6</sub>",
        "Molecular Mass": "248.55",
        "Boiling Point": "138 °C",
        "Melting Point": "-25 °C",
        "Density": "1.5 g/cm³"
    }
}