{
    "cas_no": "4328-13-6",
    "key_name": "Tetrahexylammonium bromide",
    "cn_name": "四乙基溴化铵;溴化四乙胺;N,N,N-三乙基乙铵溴化物;",
    "alternate_name": "1-Hexanaminium, <em>N</em>,<em>N</em>,<em>N</em>-trihexyl-, bromide (1:1);Ammonium, tetrahexyl-, bromide;1-Hexanaminium, <em>N</em>,<em>N</em>,<em>N</em>-trihexyl-, bromide;Tetrahexylammonium bromide;Tetra-<em>n</em>-hexylammonium bromide",
    "duplicated_cas_no": "515815-73-3",
    "SMILES": "[N+](CCCCCC)(CCCCCC)(CCCCCC)CCCCCC.[Br-]",
    "meta_data": {
        "InChI": "InChI=1S/C24H52N.BrH/c1-5-9-13-17-21-25(22-18-14-10-6-2,23-19-15-11-7-3)24-20-16-12-8-4;/h5-24H2,1-4H3;1H/q+1;/p-1",
        "InChIKey": null,
        "Canonical SMILES": "[Br-].CCCCCC[N+](CCCCCC)(CCCCCC)CCCCCC",
        "Molecular Formula": "C<sub>24</sub>H<sub>52</sub>N.Br",
        "Molecular Mass": "",
        "Melting Point": "99 °C"
    }
}