{
    "cas_no": "434-22-0",
    "key_name": "Nandrolone",
    "cn_name": "诺龙;",
    "alternate_name": "Estr-4-en-3-one, 17-hydroxy-, (17β)-;Estr-4-en-3-one, 17β-hydroxy-;(17β)-17-Hydroxyestr-4-en-3-one;Δ<sup>4</sup>-Estren-17β-ol-3-one;Menidrabol;<em>d</em>-13β-Methyl-17β-hydroxygon-4-en-3-one;Nandrolone;Norandrostenolone;19-Nor-17β-hydroxy-3-ketoandrost-4-ene;19-Nortestosterone;17β-Hydroxyestr-4-en-3-one;Nortestosterone;4-Estren-17β-ol-3-one;17β-Hydroxy-19-nor-4-androsten-3-one;19-Norandrostenolone;Nandrolon;Norandrostenolon;Nortestonate;Oestrenolon;4-Estren-3-one-17β-ol;(+)-19-Nortestosterone;17β-Nortestosterone;β-Nortestosterone;(17β)-19-Nortestosterone;NSC 3351;17β-Nandrolone;Biobol;Hybolin;4-Estrene-17β-ol-3-one;MeSH ID: D009277",
    "duplicated_cas_no": "30598-74-4;409336-73-8",
    "SMILES": "C[C@@]12[C@]([C@]3([C@@]([C@@]4(C(CC3)=CC(=O)CC4)[H])(CC1)[H])[H])(CC[C@@H]2O)[H]",
    "meta_data": {
        "InChI": "InChI=1S/C18H26O2/c1-18-9-8-14-13-5-3-12(19)10-11(13)2-4-15(14)16(18)6-7-17(18)20/h10,13-17,20H,2-9H2,1H3/t13-,14+,15+,16-,17-,18-/m0/s1",
        "InChIKey": null,
        "Canonical SMILES": "O=C1C=C2CCC3C(CCC4(C)C(O)CCC34)C2CC1",
        "Molecular Formula": "C<sub>18</sub>H<sub>26</sub>O<sub>2</sub>",
        "Molecular Mass": "274.40",
        "Melting Point": "112 °C"
    }
}