{
    "cas_no": "1227958-32-8",
    "key_name": "1,1-Dimethylethyl <em>N</em>-(2-bromo-6-chloro-3-pyridinyl)carbamate",
    "cn_name": null,
    "alternate_name": "Carbamic acid, <em>N</em>-(2-bromo-6-chloro-3-pyridinyl)-, 1,1-dimethylethyl ester;1,1-Dimethylethyl <em>N</em>-(2-bromo-6-chloro-3-pyridinyl)carbamate;<em>tert</em>-Butyl (2-bromo-6-chloropyridin-3-yl)carbamate",
    "duplicated_cas_no": "",
    "SMILES": "N(C(OC(C)(C)C)=O)C1=C(Br)N=C(Cl)C=C1",
    "meta_data": {
        "InChI": "InChI=1S/C10H12BrClN2O2/c1-10(2,3)16-9(15)13-6-4-5-7(12)14-8(6)11/h4-5H,1-3H3,(H,13,15)",
        "InChIKey": null,
        "Canonical SMILES": "O=C(OC(C)(C)C)NC1=CC=C(Cl)N=C1Br",
        "Molecular Formula": "C<sub>10</sub>H<sub>12</sub>BrClN<sub>2</sub>O<sub>2</sub>",
        "Molecular Mass": "307.57",
        "Melting Point": "95-96 °C"
    }
}