{
    "cas_no": "20780-76-1",
    "key_name": "5-Iodoisatin",
    "cn_name": "5-碘靛红;5-碘-1H-吲哚-2,3-二酮;5-碘吲哚醌;5-碘靛红;",
    "alternate_name": "1<em>H</em>-Indole-2,3-dione, 5-iodo-;Indole-2,3-dione, 5-iodo-;Isatin, 5-iodo-;5-Iodo-1<em>H</em>-indole-2,3-dione;5-Iodoisatin;NSC 92515;5-Iodoindoline-2,3-dione",
    "duplicated_cas_no": "",
    "SMILES": "O=C1C=2C(NC1=O)=CC=C(I)C2",
    "meta_data": {
        "InChI": "InChI=1S/C8H4INO2/c9-4-1-2-6-5(3-4)7(11)8(12)10-6/h1-3H,(H,10,11,12)",
        "InChIKey": null,
        "Canonical SMILES": "O=C1NC2=CC=C(I)C=C2C1=O",
        "Molecular Formula": "C<sub>8</sub>H<sub>4</sub>INO<sub>2</sub>",
        "Molecular Mass": "273.03",
        "Melting Point": "264-265 °C"
    }
}