{
    "cas_no": "298-00-0",
    "key_name": "Parathion-methyl",
    "cn_name": "甲基对硫磷;甲基1605;O,O-二甲基-O-(4-硝基苯基)硫代磷酸酯;",
    "alternate_name": "Phosphorothioic acid, <em>O</em>,<em>O</em>-dimethyl <em>O</em>-(4-nitrophenyl) ester;Phosphorothioic acid, <em>O</em>,<em>O</em>-dimethyl <em>O</em>-(<em>p</em>-nitrophenyl) ester;8056HC;Dalf;<em>O</em>,<em>O</em>-Dimethyl <em>O</em>-(<em>p</em>-nitrophenyl) phosphorothioate;<em>O</em>,<em>O</em>-Dimethyl <em>O</em>-(4-nitrophenyl) phosphorothioate;Dimethyl 4-nitrophenyl phosphorothioate;<em>O</em>,<em>O</em>-Dimethyl <em>O</em>-(<em>p</em>-nitrophenyl) thiophosphate;Dimethyl <em>p</em>-nitrophenyl thiophosphate;<em>O</em>,<em>O</em>-Dimethyl <em>O</em>-(4-nitrophenyl) thiophosphate;Metacide;Metaphos;Methyl E 605;Methyl parathion;Nitrox 80;Nitrox;M-Parathion;Wofatox;Azofos;BAY 11405;Parathion-methyl;Thiophenit;Vofatox;Azophos;Dimethyl parathion;Methylthiophos;Metron;Metron (pesticide);Dimethyl <em>p</em>-nitrophenyl phosphorothionate;Folidol M;Folidol M 40;Parathion methyl homolog;Sinafid M 48;Meptox;Penncap M;Demethylfenitrothion;Metafos;Metafos (pesticide);Penncap MLS;Oleovofotox;Quinophos;Metacide (insecticide);Paratuf;Parataf;Yphos;ME 605;Probel MP 2;ME 1605;Me 605SP;Folidol 600;Methyl 1605;Folidol M 50;Metacid 50;Metacid;Morphos;Methyl Bladan;Bravik;Bravik 600CE;Mentox 600CE;Methyl 4E;Parathion M;Folisuper 600BR;Methion 48EC;Azophos (pesticide)",
    "duplicated_cas_no": "37359-35-6;63653-66-7",
    "SMILES": "P(OC1=CC=C(N(=O)=O)C=C1)(OC)(OC)=S",
    "meta_data": {
        "InChI": "InChI=1S/C8H10NO5PS/c1-12-15(16,13-2)14-8-5-3-7(4-6-8)9(10)11/h3-6H,1-2H3",
        "InChIKey": null,
        "Canonical SMILES": "O=N(=O)C1=CC=C(OP(=S)(OC)OC)C=C1",
        "Molecular Formula": "C<sub>8</sub>H<sub>10</sub>NO<sub>5</sub>PS",
        "Molecular Mass": "263.21",
        "Boiling Point": "154 °C @ Press: 1.02 Torr",
        "Melting Point": "35-36 °C",
        "Density": "1.358 g/cm³ @ Temp: 20 °C"
    }
}