{
    "cas_no": "610-29-7",
    "key_name": "Nitroterephthalic acid",
    "cn_name": "2-硝基对苯二甲酸;",
    "alternate_name": "1,4-Benzenedicarboxylic acid, 2-nitro-;Terephthalic acid, nitro-;2-Nitro-1,4-benzenedicarboxylic acid;Nitroterephthalic acid;2-Nitroterephthalic acid;2-Nitrobenzene-1,4-dicarboxylic acid;2-Nitro-<em>p</em>-phthalic acid;NSC 48124;NSC 75848",
    "duplicated_cas_no": "",
    "SMILES": "N(=O)(=O)C1=C(C(O)=O)C=CC(C(O)=O)=C1",
    "meta_data": {
        "InChI": "InChI=1S/C8H5NO6/c10-7(11)4-1-2-5(8(12)13)6(3-4)9(14)15/h1-3H,(H,10,11)(H,12,13)",
        "InChIKey": null,
        "Canonical SMILES": "O=C(O)C1=CC=C(C(=O)O)C(=C1)N(=O)=O",
        "Molecular Formula": "C<sub>8</sub>H<sub>5</sub>NO<sub>6</sub>",
        "Molecular Mass": "211.13",
        "Melting Point": "199 °C"
    }
}