{
    "cas_no": "524684-52-4",
    "key_name": "2-(3-Fluoro-4-hydroxyphenyl)-7-vinyl-1,3-benzoxazol-5-ol",
    "cn_name": "普林贝瑞;2-(3-氟-4-羟基苯基)-7-乙烯基-1,3-苯并恶唑-5-醇;",
    "alternate_name": "5-Benzoxazolol, 7-ethenyl-2-(3-fluoro-4-hydroxyphenyl)-;7-Ethenyl-2-(3-fluoro-4-hydroxyphenyl)-5-benzoxazolol;2-(3-Fluoro-4-hydroxyphenyl)-7-vinyl-1,3-benzoxazol-5-ol;ERB 041;Prinaberel;2-(3-Fluoro-4-hydroxyphenyl)-7-vinylbenzoxazol-5-ol;2-(3-Fluoro-4-hydroxyphenyl)-7-vinylbenzo[<em>d</em>]oxazol-5-ol",
    "duplicated_cas_no": "",
    "SMILES": "C(=C)C1=C2C(N=C(O2)C3=CC(F)=C(O)C=C3)=CC(O)=C1",
    "meta_data": {
        "InChI": "InChI=1S/C15H10FNO3/c1-2-8-5-10(18)7-12-14(8)20-15(17-12)9-3-4-13(19)11(16)6-9/h2-7,18-19H,1H2",
        "InChIKey": null,
        "Canonical SMILES": "FC=1C=C(C=CC1O)C2=NC3=CC(O)=CC(C=C)=C3O2",
        "Molecular Formula": "C<sub>15</sub>H<sub>10</sub>FNO<sub>3</sub>",
        "Molecular Mass": "271.24",
        "Melting Point": "250-252 °C"
    }
}