{
    "cas_no": "582-22-9",
    "key_name": "(±)-2-Phenylpropylamine",
    "cn_name": "2-苯丙胺;",
    "alternate_name": "Benzeneethanamine, β-methyl-;Phenethylamine, β-methyl-;β-Methylbenzeneethanamine;1-Propanamine, 2-phenyl-;β-Methylphenethylamine;β-Methylphenylethylamine;2-Phenylpropylamine;β-Phenylpropylamine;(<em>RS</em>)-2-Phenylpropylamine;(±)-2-Phenylpropylamine;2-Phenylpropanamine;2-Phenyl-1-propylamine;2-Phenyl-1-propanamine;NSC 272273;(±)-β-Methylphenethylamine",
    "duplicated_cas_no": "45789-52-4",
    "SMILES": "C(CN)(C)C1=CC=CC=C1",
    "meta_data": {
        "InChI": "InChI=1S/C9H13N/c1-8(7-10)9-5-3-2-4-6-9/h2-6,8H,7,10H2,1H3",
        "InChIKey": null,
        "Canonical SMILES": "NCC(C=1C=CC=CC1)C",
        "Molecular Formula": "C<sub>9</sub>H<sub>13</sub>N",
        "Molecular Mass": "135.21",
        "Boiling Point": "210 °C",
        "Density": "0.9483 g/cm³ @ Temp: 20 °C"
    }
}