{
    "cas_no": "15629-92-2",
    "key_name": "Dichloro[1,1′-(1,3-propanediyl)bis[1,1-diphenylphosphine-κ<em>P</em>]]nickel",
    "cn_name": "1,3-双(二苯基膦丙烷)二氯化镍;",
    "alternate_name": "Nickel, dichloro[1,1′-(1,3-propanediyl)bis[1,1-diphenylphosphine-κ<em>P</em>]]-;Nickel, dichloro[trimethylenebis[diphenylphosphine]]-;Nickel, dichloro[1,3-propanediylbis[diphenylphosphine]-<em>P</em>,<em>P</em>′]-;Nickel, dichloro[1,3-propanediylbis[diphenylphosphine-κ<em>P</em>]]-;Phosphine, 1,3-propanediylbis[diphenyl-, nickel complex;Dichloro[1,1′-(1,3-propanediyl)bis[1,1-diphenylphosphine-κ<em>P</em>]]nickel;Bis[1,3-bis(diphenylphosphino)propane]dichloronickel;1,3-Bis(diphenylphosphino)propanenickel dichloride;[1,3-Bis(diphenylphosphino)propane]nickel(II) chloride;(1,3-Bis(diphenylphosphino)propane)dichloronickel;[Bis(diphenylphosphino)propane]nickel dichloride;Dichloro[1,3-bis(diphenylphosphino)propane]nickel;Nickel 1,3-bis(diphenylphosphino)propane dichloride;1,3-Bis(diphenylphosphino)propane nickel chloride;1,3-Bis(diphenylphosphino)nickel dichloride",
    "duplicated_cas_no": "",
    "SMILES": "[Cl-][Ni+2]1([Cl-])[P](CCC[P]1(C2=CC=CC=C2)C3=CC=CC=C3)(C4=CC=CC=C4)C5=CC=CC=C5",
    "meta_data": {
        "InChI": "InChI=1S/C27H26P2.2ClH.Ni/c1-5-14-24(15-6-1)28(25-16-7-2-8-17-25)22-13-23-29(26-18-9-3-10-19-26)27-20-11-4-12-21-27;;;/h1-12,14-21H,13,22-23H2;2*1H;/q;;;+2/p-2",
        "InChIKey": null,
        "Canonical SMILES": "[Cl-][Ni+2]1([Cl-])[P](C=2C=CC=CC2)(C=3C=CC=CC3)CCC[P]1(C=4C=CC=CC4)C=5C=CC=CC5",
        "Molecular Formula": "C<sub>27</sub>H<sub>26</sub>Cl<sub>2</sub>NiP<sub>2</sub>",
        "Molecular Mass": "",
        "Melting Point": "210-220 °C"
    }
}