{
    "cas_no": "1668-86-6",
    "key_name": "<em>rel</em>-(4a<em>R</em>,8a<em>R</em>)-4a,5,9,10,11,12-Hexahydro-3-methoxy-11-methyl-6<em>H</em>-benzofuro[3a,3,2-<em>ef</em>][2]benzazepin-6-one",
    "cn_name": null,
    "alternate_name": "6<em>H</em>-Benzofuro[3a,3,2-<em>ef</em>][2]benzazepin-6-one, 4a,5,9,10,11,12-hexahydro-3-methoxy-11-methyl-, (4a<em>R</em>,8a<em>R</em>)-<em>rel</em>-;Narwedine, (±)-;Galanthamine, 3-deoxy-3-oxo-, (±)-;<em>rel</em>-(4a<em>R</em>,8a<em>R</em>)-4a,5,9,10,11,12-Hexahydro-3-methoxy-11-methyl-6<em>H</em>-benzofuro[3a,3,2-<em>ef</em>][2]benzazepin-6-one;<em>dl</em>-Narwedine;(±)-Narwedine",
    "duplicated_cas_no": "14543-68-1;27317-44-8",
    "SMILES": "O(C)C1=C2C=3[C@]4([C@@](O2)(CC(=O)C=C4)[H])CCN(C)CC3C=C1",
    "meta_data": {
        "InChI": "InChI=1/C17H19NO3/c1-18-8-7-17-6-5-12(19)9-14(17)21-16-13(20-2)4-3-11(10-18)15(16)17/h3-6,14H,7-10H2,1-2H3/t14-,17-/s2",
        "InChIKey": null,
        "Canonical SMILES": "O=C1C=CC23C4=C(OC2C1)C(OC)=CC=C4CN(C)CC3",
        "Molecular Formula": "C<sub>17</sub>H<sub>19</sub>NO<sub>3</sub>",
        "Molecular Mass": "285.34",
        "Melting Point": "198-199 °C"
    }
}