{
    "cas_no": "2901-13-5",
    "key_name": "Benzeneacetic acid, α,α-dimethyl-, ethyl ester",
    "cn_name": "2,2-二甲基苯乙酸乙酯;二甲基苯乙酸乙酯;",
    "alternate_name": "Benzeneacetic acid, α,α-dimethyl-, ethyl ester;Hydratropic acid, α-methyl-, ethyl ester;Ethyl 2-phenylisobutyrate;Ethyl dimethylphenylacetate;Ethyl α,α-dimethylbenzeneacetate;Ethyl α,α-dimethylphenylacetate;NSC 29060;Ethyl 2-methyl-2-phenylpropanoate;Ethyl 2-methyl-2-phenylpropionate",
    "duplicated_cas_no": "",
    "SMILES": "C(C(OCC)=O)(C)(C)C1=CC=CC=C1",
    "meta_data": {
        "InChI": "InChI=1S/C12H16O2/c1-4-14-11(13)12(2,3)10-8-6-5-7-9-10/h5-9H,4H2,1-3H3",
        "InChIKey": null,
        "Canonical SMILES": "O=C(OCC)C(C=1C=CC=CC1)(C)C",
        "Molecular Formula": "C<sub>12</sub>H<sub>16</sub>O<sub>2</sub>",
        "Molecular Mass": "192.25",
        "Boiling Point": "68-71 °C @ Press: 0.5-0.6 Torr",
        "Density": "1.0039 g/cm³ @ Temp: 20 °C"
    }
}