{
    "cas_no": "101-98-4",
    "key_name": "<em>N</em>-Benzyl-<em>N</em>-methylethanolamine",
    "cn_name": "N-苄基-N-甲基乙醇胺;2-(N-苄基-N-甲基氨基)乙醇;N-甲基-N-羟乙基苄胺;",
    "alternate_name": "Ethanol, 2-[methyl(phenylmethyl)amino]-;Ethanol, 2-(benzylmethylamino)-;2-[Methyl(phenylmethyl)amino]ethanol;<em>N</em>-Methyl-<em>N</em>-benzylethanolamine;2-(Benzylmethylamino)ethanol;2-(<em>N</em>-Methylbenzylamino)ethanol;<em>N</em>-Benzyl-<em>N</em>-methyl-2-aminoethanol;β-(<em>N</em>-Benzyl-<em>N</em>-methylamino)ethanol;<em>N</em>-Benzyl-<em>N</em>-methylethanolamine;2-(<em>N</em>-benzyl-<em>N</em>-methylamino)ethanol;Benzyl(2-hydroxyethyl)methylamine;<em>N</em>-Benzyl-<em>N</em>-methyl(2-hydroxyethyl)amine;2-[Benzyl(methyl)amino]ethan-1-ol",
    "duplicated_cas_no": "53014-43-0",
    "SMILES": "C(N(CCO)C)C1=CC=CC=C1",
    "meta_data": {
        "InChI": "InChI=1S/C10H15NO/c1-11(7-8-12)9-10-5-3-2-4-6-10/h2-6,12H,7-9H2,1H3",
        "InChIKey": null,
        "Canonical SMILES": "OCCN(C)CC=1C=CC=CC1",
        "Molecular Formula": "C<sub>10</sub>H<sub>15</sub>NO",
        "Molecular Mass": "165.23",
        "Boiling Point": "100-105 °C @ Press: 2 Torr"
    }
}