{
    "cas_no": "6900-99-8",
    "key_name": "Norchelerythrine",
    "cn_name": null,
    "alternate_name": "[1,3]Benzodioxolo[5,6-<em>c</em>]phenanthridine, 1,2-dimethoxy-;Chelerythrine, 12-demethyl-;Norchelerythrine;1,2-Dimethoxy[1,3]benzodioxolo[5,6-<em>c</em>]phenanthridine;De-<em>N</em>-methylchelerythrine;Des-<em>N</em>-methylchelerythrine;Norchelerythrin;<em>O</em>-Methyldecarine;<em>N</em>-Norchelerythrine;Norbroussonpapyrine;O-Methylisodecarine;O-Methylzanthoxyline;Demethylchelerythrine;1,2-Dimethoxy-[1,3]dioxolo[4′,5′:4,5]benzo[1,2-<em>c</em>]phenanthridine",
    "duplicated_cas_no": "286939-05-7",
    "SMILES": "O(C)C1=C2C(C=3C(=C4C(=CC3)C=C5C(=C4)OCO5)N=C2)=CC=C1OC",
    "meta_data": {
        "InChI": "InChI=1S/C20H15NO4/c1-22-16-6-5-12-13-4-3-11-7-17-18(25-10-24-17)8-14(11)19(13)21-9-15(12)20(16)23-2/h3-9H,10H2,1-2H3",
        "InChIKey": null,
        "Canonical SMILES": "N1=CC2=C(OC)C(OC)=CC=C2C=3C=CC=4C=C5OCOC5=CC4C13",
        "Molecular Formula": "C<sub>20</sub>H<sub>15</sub>NO<sub>4</sub>",
        "Molecular Mass": "333.34",
        "Melting Point": "221.5-222.5 °C"
    }
}