{
    "cas_no": "13986-26-0",
    "key_name": "Zirconium iodide (ZrI<sub>4</sub>)",
    "cn_name": "碘化锆(IV);",
    "alternate_name": "Zirconium iodide (ZrI<sub>4</sub>);Zirconium tetraiodide;Zirconium iodide",
    "duplicated_cas_no": "",
    "SMILES": "[Zr](I)(I)(I)I",
    "meta_data": {
        "InChI": "InChI=1S/4HI.Zr/h4*1H;/q;;;;+4/p-4",
        "InChIKey": null,
        "Canonical SMILES": "I[Zr](I)(I)I",
        "Molecular Formula": "I<sub>4</sub>Zr",
        "Molecular Mass": "",
        "Melting Point": "499 °C"
    }
}