{
    "cas_no": "14892-14-9",
    "key_name": "2-(2,3,4,5,6-Pentafluorophenoxy)acetic acid",
    "cn_name": "2,3,4,5,6-五氟苯氧基乙酸;",
    "alternate_name": "Acetic acid, 2-(2,3,4,5,6-pentafluorophenoxy)-;Acetic acid, (pentafluorophenoxy)-;2-(2,3,4,5,6-Pentafluorophenoxy)acetic acid;(Pentafluorophenoxy)acetic acid;NSC 97010;2,3,4,5,6-Pentafluorophenoxyacetic acid",
    "duplicated_cas_no": "",
    "SMILES": "O(CC(O)=O)C1=C(F)C(F)=C(F)C(F)=C1F",
    "meta_data": {
        "InChI": "InChI=1S/C8H3F5O3/c9-3-4(10)6(12)8(7(13)5(3)11)16-1-2(14)15/h1H2,(H,14,15)",
        "InChIKey": null,
        "Canonical SMILES": "O=C(O)COC=1C(F)=C(F)C(F)=C(F)C1F",
        "Molecular Formula": "C<sub>8</sub>H<sub>3</sub>F<sub>5</sub>O<sub>3</sub>",
        "Molecular Mass": "242.10",
        "Melting Point": "109 °C"
    }
}