{
    "cas_no": "629-12-9",
    "key_name": "Pentyl isothiocyanate",
    "cn_name": "1-硫代异氰酸戊酯;异硫氰酸戊酯;1-异硫代氰酸戊酯;",
    "alternate_name": "Pentane, 1-isothiocyanato-;Isothiocyanic acid, pentyl ester;1-Isothiocyanatopentane;Pentyl isothiocyanate;<em>n</em>-Pentyl isothiocyanate;Amyl isothiocyanate;1-Pentyl isothiocyanate",
    "duplicated_cas_no": "",
    "SMILES": "C(CN=C=S)CCC",
    "meta_data": {
        "InChI": "InChI=1S/C6H11NS/c1-2-3-4-5-7-6-8/h2-5H2,1H3",
        "InChIKey": null,
        "Canonical SMILES": "S=C=NCCCCC",
        "Molecular Formula": "C<sub>6</sub>H<sub>11</sub>NS",
        "Molecular Mass": "129.22",
        "Boiling Point": "91-94 °C @ Press: 28-30 Torr"
    }
}