{
    "cas_no": "2033-24-1",
    "key_name": "2,2-Dimethyl-1,3-dioxane-4,6-dione",
    "cn_name": "丙二酸环(亚)异丙酯;2,2-二甲基-1,3-二氧六环-4,6-二酮;2,2-二甲基-1,3-二噁唑烷-4,6-二酮;",
    "alternate_name": "1,3-Dioxane-4,6-dione, 2,2-dimethyl-;Malonic acid, cyclic isopropylidene ester;2,2-Dimethyl-1,3-dioxane-4,6-dione;Meldrum's acid;2,2-Propanediol cyclic malonate;Cyclic isopropylidene malonate;2,2-Dimethyl-<em>m</em>-dioxane-4,6-dione;Isopropylidene malonate;2,2-Dimethyl-4,6-dioxo-1,3-dioxane;Meldrumic acid;2,2-Dimethyl-1,3-dioxan-4,6-dione;NSC 688343;NSC 71902;<em>N</em>,<em>N</em>-Dimethyl-1-4-aminobilidine",
    "duplicated_cas_no": "2550393-68-3",
    "SMILES": "CC1(C)OC(=O)CC(=O)O1",
    "meta_data": {
        "InChI": "InChI=1S/C6H8O4/c1-6(2)9-4(7)3-5(8)10-6/h3H2,1-2H3",
        "InChIKey": null,
        "Canonical SMILES": "O=C1OC(OC(=O)C1)(C)C",
        "Molecular Formula": "C<sub>6</sub>H<sub>8</sub>O<sub>4</sub>",
        "Molecular Mass": "144.13",
        "Boiling Point": "116-120 °C @ Press: 14 Torr",
        "Melting Point": "94 °C"
    }
}