{
    "cas_no": "2589-71-1",
    "key_name": "1-(4-Hydroxyphenyl)-1-pentanone",
    "cn_name": "4-羟基苯戊酮;对羟基苯戊酮;",
    "alternate_name": "1-Pentanone, 1-(4-hydroxyphenyl)-;Valerophenone, 4′-hydroxy-;1-(4-Hydroxyphenyl)-1-pentanone;4-Valerylphenol;<em>p</em>-Hydroxyvalerophenone;NSC 49186;NSC 49321;4′-Hydroxyvalerophenone",
    "duplicated_cas_no": "",
    "SMILES": "C(CCCC)(=O)C1=CC=C(O)C=C1",
    "meta_data": {
        "InChI": "InChI=1S/C11H14O2/c1-2-3-4-11(13)9-5-7-10(12)8-6-9/h5-8,12H,2-4H2,1H3",
        "InChIKey": null,
        "Canonical SMILES": "O=C(C1=CC=C(O)C=C1)CCCC",
        "Molecular Formula": "C<sub>11</sub>H<sub>14</sub>O<sub>2</sub>",
        "Molecular Mass": "178.23",
        "Boiling Point": "210 °C @ Press: 15 Torr",
        "Melting Point": "62-63 °C"
    }
}