{
    "cas_no": "334829-66-2",
    "key_name": "<em>N</em>-Acetyl-<em>S</em>-[[[4-(methylsulfinyl)butyl]amino]thioxomethyl]-<span class=\"text-smallcaps\">L</span>-cysteine",
    "cn_name": null,
    "alternate_name": "<span class=\"text-smallcaps\">L</span>-Cysteine, <em>N</em>-acetyl-<em>S</em>-[[[4-(methylsulfinyl)butyl]amino]thioxomethyl]-;<span class=\"text-smallcaps\">L</span>-Cysteine, <em>N</em>-acetyl-, [4-(methylsulfinyl)butyl]carbamodithioate (ester);<em>N</em>-Acetyl-<em>S</em>-[[[4-(methylsulfinyl)butyl]amino]thioxomethyl]-<span class=\"text-smallcaps\">L</span>-cysteine;<em>N</em>-Acetyl-<em>S</em>-(((methylsulfinyl)butyl)carbamothioyl)-<span class=\"text-smallcaps\">L</span>-cysteine",
    "duplicated_cas_no": "",
    "SMILES": "[C@@H](CSC(NCCCCS(C)=O)=S)(NC(C)=O)C(O)=O",
    "meta_data": {
        "InChI": "InChI=1S/C11H20N2O4S3/c1-8(14)13-9(10(15)16)7-19-11(18)12-5-3-4-6-20(2)17/h9H,3-7H2,1-2H3,(H,12,18)(H,13,14)(H,15,16)/t9-,20?/m0/s1",
        "InChIKey": null,
        "Canonical SMILES": "O=C(NC(C(=O)O)CSC(=S)NCCCCS(=O)C)C",
        "Molecular Formula": "C<sub>11</sub>H<sub>20</sub>N<sub>2</sub>O<sub>4</sub>S<sub>3</sub>",
        "Molecular Mass": "340.48",
        "Melting Point": "60-62 °C"
    }
}