{
    "cas_no": "56741-95-8",
    "key_name": "Bropirimine",
    "cn_name": null,
    "alternate_name": "4(3<em>H</em>)-Pyrimidinone, 2-amino-5-bromo-6-phenyl-;4(1<em>H</em>)-Pyrimidinone, 2-amino-5-bromo-6-phenyl-;2-Amino-5-bromo-6-phenyl-4(3<em>H</em>)-pyrimidinone;5-Bromo-6-phenylisocytosine;2-Amino-5-bromo-6-phenyl-4-pyrimidinol;NSC 149027;2-Amino-5-bromo-6-phenyl-4-pyrimidinone;5-Bromo-2,3-dihydro-2-imino-6-phenyl-4(1<em>H</em>)-pyrimidinone;Bropirimine;U 54461;U 54461S;PNU 54461;2-Amino-5-bromo-4-hydroxy-6-phenylpyrimidine;2-Amino-5-bromo-6-phenyl-1<em>H</em>-pyrimidin-4-one;2-Amino-5-bromo-6-phenyl-3,4-dihydropyrimidin-4-one",
    "duplicated_cas_no": "",
    "SMILES": "BrC1=C(NC(N)=NC1=O)C2=CC=CC=C2",
    "meta_data": {
        "InChI": "InChI=1S/C10H8BrN3O/c11-7-8(6-4-2-1-3-5-6)13-10(12)14-9(7)15/h1-5H,(H3,12,13,14,15)",
        "InChIKey": null,
        "Canonical SMILES": "O=C1N=C(N)NC(C=2C=CC=CC2)=C1Br",
        "Molecular Formula": "C<sub>10</sub>H<sub>8</sub>BrN<sub>3</sub>O",
        "Molecular Mass": "266.09",
        "Melting Point": "246-248 °C"
    }
}