{
    "cas_no": "2562-37-0",
    "key_name": "1-Nitrocyclohexene",
    "cn_name": null,
    "alternate_name": "Cyclohexene, 1-nitro-;1-Nitrocyclohexene;1-Nitrocyclohex-1-ene",
    "duplicated_cas_no": "",
    "SMILES": "N(=O)(=O)C=1CCCCC1",
    "meta_data": {
        "InChI": "InChI=1S/C6H9NO2/c8-7(9)6-4-2-1-3-5-6/h4H,1-3,5H2",
        "InChIKey": null,
        "Canonical SMILES": "O=N(=O)C1=CCCCC1",
        "Molecular Formula": "C<sub>6</sub>H<sub>9</sub>NO<sub>2</sub>",
        "Molecular Mass": "127.14",
        "Boiling Point": "66.5-68.0 °C @ Press: 1.5 Torr",
        "Density": "1.1267 g/cm³ @ Temp: 20 °C"
    }
}