{
    "cas_no": "66572-55-2",
    "key_name": "6-Methoxynicotinic acid",
    "cn_name": "6-甲氧基烟酸; 6-甲氧基吡啶-3-羧酸;",
    "alternate_name": "3-Pyridinecarboxylic acid, 6-methoxy-;6-Methoxy-3-pyridinecarboxylic acid;3-Carboxy-6-methoxypyridine;6-Methoxypyridine-3-carboxylic acid;6-Methoxynicotinic acid;2-Methoxy-5-pyridinecarboxylic acid",
    "duplicated_cas_no": "",
    "SMILES": "C(O)(=O)C=1C=CC(OC)=NC1",
    "meta_data": {
        "InChI": "InChI=1S/C7H7NO3/c1-11-6-3-2-5(4-8-6)7(9)10/h2-4H,1H3,(H,9,10)",
        "InChIKey": null,
        "Canonical SMILES": "O=C(O)C1=CN=C(OC)C=C1",
        "Molecular Formula": "C<sub>7</sub>H<sub>7</sub>NO<sub>3</sub>",
        "Molecular Mass": "153.14",
        "Melting Point": "171.5-172.5 °C"
    }
}