{
    "cas_no": "23676-09-7",
    "key_name": "Ethyl 4-ethoxybenzoate",
    "cn_name": "对乙氧基苯甲酸乙酯;4-乙氧基苯甲酸乙酯;",
    "alternate_name": "Benzoic acid, 4-ethoxy-, ethyl ester;Benzoic acid, <em>p</em>-ethoxy-, ethyl ester;Ethyl 4-ethoxybenzoate;Ethyl <em>p</em>-ethoxybenzoate;<em>p</em>-Ethoxyethyl benzoate;4-Ethoxybenzoic acid ethyl ester;NSC 405367;4-Ethoxy ethylbenzoate",
    "duplicated_cas_no": "",
    "SMILES": "C(OCC)(=O)C1=CC=C(OCC)C=C1",
    "meta_data": {
        "InChI": "InChI=1S/C11H14O3/c1-3-13-10-7-5-9(6-8-10)11(12)14-4-2/h5-8H,3-4H2,1-2H3",
        "InChIKey": null,
        "Canonical SMILES": "O=C(OCC)C1=CC=C(OCC)C=C1",
        "Molecular Formula": "C<sub>11</sub>H<sub>14</sub>O<sub>3</sub>",
        "Molecular Mass": "194.23",
        "Boiling Point": "275 °C"
    }
}