{
    "cas_no": "1733-57-9",
    "key_name": "Ethyldiphenylphosphine oxide",
    "cn_name": "乙基二苯基氧化膦;乙基二苯基氧化膦;",
    "alternate_name": "Phosphine oxide, ethyldiphenyl-;Ethyldiphenylphosphine oxide;Diphenyl(ethyl)phosphine oxide;Diphenylphosphinoethane monoxide",
    "duplicated_cas_no": "",
    "SMILES": "P(CC)(=O)(C1=CC=CC=C1)C2=CC=CC=C2",
    "meta_data": {
        "InChI": "InChI=1S/C14H15OP/c1-2-16(15,13-9-5-3-6-10-13)14-11-7-4-8-12-14/h3-12H,2H2,1H3",
        "InChIKey": null,
        "Canonical SMILES": "O=P(C=1C=CC=CC1)(C=2C=CC=CC2)CC",
        "Molecular Formula": "C<sub>14</sub>H<sub>15</sub>OP",
        "Molecular Mass": "230.24",
        "Boiling Point": "176-177 °C @ Press: 13 Torr",
        "Melting Point": "120.5-121 °C",
        "Density": "1.0749 g/cm³"
    }
}