{
    "cas_no": "1653-64-1",
    "key_name": "1,3-Benzodioxole-5-ethanamine, hydrochloride (1:1)",
    "cn_name": "3,4-亚甲二氧基苯乙胺;胡椒乙胺;高胡椒胺;",
    "alternate_name": "1,3-Benzodioxole-5-ethanamine, hydrochloride (1:1);Phenethylamine, 3,4-(methylenedioxy)-, hydrochloride;1,3-Benzodioxole-5-ethanamine, hydrochloride;3,4-Methylenedioxy-β-phenylethylamine hydrochloride;2-(3,4-Methylenedioxyphenyl)ethylamine hydrochloride;3,4-Methylenedioxyphenethylamine hydrochloride;3,4-(Methylenedioxy)phenylethylamine hydrochloride;2-(3,4-Methylenedioxyphenyl)ethylamine chlorohydrate;[2-(Benzodioxol-5-yl)ethyl]amine hydrochloride",
    "duplicated_cas_no": "933989-35-6",
    "SMILES": "C(CN)C=1C=C2C(=CC1)OCO2.Cl",
    "meta_data": {
        "InChI": "InChI=1S/C9H11NO2.ClH/c10-4-3-7-1-2-8-9(5-7)12-6-11-8;/h1-2,5H,3-4,6,10H2;1H",
        "InChIKey": null,
        "Canonical SMILES": "Cl.O1C2=CC=C(C=C2OC1)CCN",
        "Molecular Formula": "C<sub>9</sub>H<sub>11</sub>NO<sub>2</sub>.ClH",
        "Molecular Mass": "",
        "Melting Point": "208-209 °C"
    }
}