{
    "cas_no": "883-44-3",
    "key_name": "2-(3-Hydroxypropyl)-1<em>H</em>-isoindole-1,3(2<em>H</em>)-dione",
    "cn_name": "N-(3-羟丙基)酞亚胺;N-(3-羟丙基)酞亚胺;",
    "alternate_name": "1<em>H</em>-Isoindole-1,3(2<em>H</em>)-dione, 2-(3-hydroxypropyl)-;Phthalimide, <em>N</em>-(3-hydroxypropyl)-;2-(3-Hydroxypropyl)-1<em>H</em>-isoindole-1,3(2<em>H</em>)-dione;<em>N</em>-(3-Hydroxypropyl)phthalimide;2-(3-Hydroxypropyl)isoindole-1,3-dione;3-(Phthalimido)propanol;NSC 41174;2-(3-Hydroxypropyl)isoindoline-1,3-dione;3-Phthalimido-1-propanol;3-(1,3-Dioxoisoindolin-2-yl)propanol;2-(3-Hydroxypropyl)-2,3-dihydro-1<em>H</em>-isoindole-1,3-dione",
    "duplicated_cas_no": "872968-97-3",
    "SMILES": "O=C1C=2C(C(=O)N1CCCO)=CC=CC2",
    "meta_data": {
        "InChI": "InChI=1S/C11H11NO3/c13-7-3-6-12-10(14)8-4-1-2-5-9(8)11(12)15/h1-2,4-5,13H,3,6-7H2",
        "InChIKey": null,
        "Canonical SMILES": "O=C1C=2C=CC=CC2C(=O)N1CCCO",
        "Molecular Formula": "C<sub>11</sub>H<sub>11</sub>NO<sub>3</sub>",
        "Molecular Mass": "205.21",
        "Melting Point": "74 °C"
    }
}