{
    "cas_no": "111035-65-5",
    "key_name": "(+)-Annonacin",
    "cn_name": null,
    "alternate_name": "2(5<em>H</em>)-Furanone, 5-methyl-3-[(2<em>R</em>,8<em>R</em>,13<em>R</em>)-2,8,13-trihydroxy-13-[(2<em>R</em>,5<em>R</em>)-tetrahydro-5-[(1<em>R</em>)-1-hydroxytridecyl]-2-furanyl]tridecyl]-, (5<em>S</em>)-;2(5<em>H</em>)-Furanone, 5-methyl-3-[2,8,13-trihydroxy-13-[tetrahydro-5-(1-hydroxytridecyl)-2-furanyl]tridecyl]-, [1<em>R</em>-[1α[1(<em>S</em>*),2<em>R</em>*,8<em>R</em>*,13<em>R</em>*],5β(<em>R</em>*)]]-;(5<em>S</em>)-5-Methyl-3-[(2<em>R</em>,8<em>R</em>,13<em>R</em>)-2,8,13-trihydroxy-13-[(2<em>R</em>,5<em>R</em>)-tetrahydro-5-[(1<em>R</em>)-1-hydroxytridecyl]-2-furanyl]tridecyl]-2(5<em>H</em>)-furanone;Annonacin;(+)-Annonacin",
    "duplicated_cas_no": "",
    "SMILES": "[C@H](CCCC[C@@H](CCCCC[C@H](CC1=C[C@H](C)OC1=O)O)O)(O)[C@@]2(O[C@@]([C@@H](CCCCCCCCCCCC)O)(CC2)[H])[H]",
    "meta_data": {
        "InChI": "InChI=1S/C35H64O7/c1-3-4-5-6-7-8-9-10-11-15-21-31(38)33-23-24-34(42-33)32(39)22-17-16-19-29(36)18-13-12-14-20-30(37)26-28-25-27(2)41-35(28)40/h25,27,29-34,36-39H,3-24,26H2,1-2H3/t27-,29+,30+,31+,32+,33+,34+/m0/s1",
        "InChIKey": null,
        "Canonical SMILES": "O=C1OC(C=C1CC(O)CCCCCC(O)CCCCC(O)C2OC(CC2)C(O)CCCCCCCCCCCC)C",
        "Molecular Formula": "C<sub>35</sub>H<sub>64</sub>O<sub>7</sub>",
        "Molecular Mass": "596.88",
        "Melting Point": "69-71 °C"
    }
}