{
    "cas_no": "10157-76-3",
    "key_name": "Dodecyl 4-methylbenzenesulfonate",
    "cn_name": "对甲苯磺酸十二酯;",
    "alternate_name": "Benzenesulfonic acid, 4-methyl-, dodecyl ester;<em>p</em>-Toluenesulfonic acid, dodecyl ester;Dodecyl alcohol, <em>p</em>-toluenesulfonate;Dodecyl 4-methylbenzenesulfonate;Dodecyl <em>p</em>-toluenesulfonate;Dodecyl tosylate;<em>n</em>-Dodecyl <em>p</em>-toluenesulfonate;1-Dodecyl <em>p</em>-tosylate;<em>n</em>-Dodecyl tosylate;Lauryl tosylate;4-Methylbenzenesulfonic acid dodecyl ester",
    "duplicated_cas_no": "",
    "SMILES": "S(OCCCCCCCCCCCC)(=O)(=O)C1=CC=C(C)C=C1",
    "meta_data": {
        "InChI": "InChI=1S/C19H32O3S/c1-3-4-5-6-7-8-9-10-11-12-17-22-23(20,21)19-15-13-18(2)14-16-19/h13-16H,3-12,17H2,1-2H3",
        "InChIKey": null,
        "Canonical SMILES": "O=S(=O)(OCCCCCCCCCCCC)C1=CC=C(C=C1)C",
        "Molecular Formula": "C<sub>19</sub>H<sub>32</sub>O<sub>3</sub>S",
        "Molecular Mass": "340.52",
        "Melting Point": "30 °C"
    }
}