{
    "cas_no": "6520-83-8",
    "key_name": "Benzoic acid, 2-methoxy-6-methyl-, ethyl ester",
    "cn_name": "2-甲氧基-6-甲基苯甲酸乙酯;",
    "alternate_name": "Benzoic acid, 2-methoxy-6-methyl-, ethyl ester;<em>o</em>-Anisic acid, 6-methyl-, ethyl ester;Ethyl 2-methoxy-6-methylbenzoate;2-Methoxy-6-methylbenzoic acid ethyl ester",
    "duplicated_cas_no": "",
    "SMILES": "C(OCC)(=O)C1=C(OC)C=CC=C1C",
    "meta_data": {
        "InChI": "InChI=1S/C11H14O3/c1-4-14-11(12)10-8(2)6-5-7-9(10)13-3/h5-7H,4H2,1-3H3",
        "InChIKey": null,
        "Canonical SMILES": "O=C(OCC)C=1C(OC)=CC=CC1C",
        "Molecular Formula": "C<sub>11</sub>H<sub>14</sub>O<sub>3</sub>",
        "Molecular Mass": "194.23",
        "Boiling Point": "93-95 °C @ Press: 0.5 Torr"
    }
}