{
    "cas_no": "607-85-2",
    "key_name": "Isopropyl salicylate",
    "cn_name": "水杨酸异丙酯;",
    "alternate_name": "Benzoic acid, 2-hydroxy-, 1-methylethyl ester;Salicylic acid, isopropyl ester;Isopropyl salicylate;Isopropyl <em>o</em>-hydroxybenzoate;2-Hydroxybenzoic acid isopropyl ester",
    "duplicated_cas_no": "",
    "SMILES": "C(OC(C)C)(=O)C1=C(O)C=CC=C1",
    "meta_data": {
        "InChI": "InChI=1S/C10H12O3/c1-7(2)13-10(12)8-5-3-4-6-9(8)11/h3-7,11H,1-2H3",
        "InChIKey": null,
        "Canonical SMILES": "O=C(OC(C)C)C=1C=CC=CC1O",
        "Molecular Formula": "C<sub>10</sub>H<sub>12</sub>O<sub>3</sub>",
        "Molecular Mass": "180.20",
        "Boiling Point": "238 °C"
    }
}