{
    "cas_no": "20826-03-3",
    "key_name": "5-Methoxynicotinic acid",
    "cn_name": null,
    "alternate_name": "3-Pyridinecarboxylic acid, 5-methoxy-;Nicotinic acid, 5-methoxy-;5-Methoxy-3-pyridinecarboxylic acid;5-Methoxypyridine-3-carboxylic acid;5-Methoxynicotinic acid",
    "duplicated_cas_no": "",
    "SMILES": "C(O)(=O)C=1C=C(OC)C=NC1",
    "meta_data": {
        "InChI": "InChI=1S/C7H7NO3/c1-11-6-2-5(7(9)10)3-8-4-6/h2-4H,1H3,(H,9,10)",
        "InChIKey": null,
        "Canonical SMILES": "O=C(O)C=1C=NC=C(OC)C1",
        "Molecular Formula": "C<sub>7</sub>H<sub>7</sub>NO<sub>3</sub>",
        "Molecular Mass": "153.14",
        "Melting Point": "228-229 °C"
    }
}