{
    "cas_no": "557-24-4",
    "key_name": "Maleamic acid",
    "cn_name": "马来酰胺酸;",
    "alternate_name": "2-Butenoic acid, 4-amino-4-oxo-, (2<em>Z</em>)-;Maleamic acid;2-Butenoic acid, 4-amino-4-oxo-, (<em>Z</em>)-;(2<em>Z</em>)-4-Amino-4-oxo-2-butenoic acid;Maleic acid monoamide;Maleic monoamide;Maleamate",
    "duplicated_cas_no": "87135-90-8;2016842-20-7",
    "SMILES": "C(=C\\C(O)=O)\\C(N)=O",
    "meta_data": {
        "InChI": "InChI=1S/C4H5NO3/c5-3(6)1-2-4(7)8/h1-2H,(H2,5,6)(H,7,8)/b2-1-",
        "InChIKey": null,
        "Canonical SMILES": "O=C(O)C=CC(=O)N",
        "Molecular Formula": "C<sub>4</sub>H<sub>5</sub>NO<sub>3</sub>",
        "Molecular Mass": "115.09",
        "Melting Point": "172.5 °C"
    }
}