{
    "cas_no": "23918-98-1",
    "key_name": "Eritadenine",
    "cn_name": null,
    "alternate_name": "9<em>H</em>-Purine-9-butanoic acid, 6-amino-α,β-dihydroxy-, (α<em>R</em>,β<em>R</em>)-;9<em>H</em>-Purine-9-butanoic acid, 6-amino-α,β-dihydroxy-, [<em>R</em>-(<em>R</em>*,<em>R</em>*)]-;Erythronic acid, 4-(6-amino-9<em>H</em>-purin-9-yl)-4-deoxy-, <span class=\"text-smallcaps\">D</span>-;(α<em>R</em>,β<em>R</em>)-6-Amino-α,β-dihydroxy-9<em>H</em>-purine-9-butanoic acid;Lentinacin;Lentysine;Eritadenine;4-(6-Aminopurin-9-yl)-4-deoxy-<span class=\"text-smallcaps\">D</span>-erythronic acid;4-(6-Amino-9<em>H</em>-purin-9-yl)-4-deoxy-<span class=\"text-smallcaps\">D</span>-erythronic acid;4-(9-Adenyl)-<span class=\"text-smallcaps\">D</span>-<em>erythro</em>-2,3-dihydroxybutyric acid;<span class=\"text-smallcaps\">D</span>-Eritadenine",
    "duplicated_cas_no": "25486-40-2",
    "SMILES": "C([C@H]([C@H](C(O)=O)O)O)N1C=2C(N=C1)=C(N)N=CN2",
    "meta_data": {
        "InChI": "InChI=1S/C9H11N5O4/c10-7-5-8(12-2-11-7)14(3-13-5)1-4(15)6(16)9(17)18/h2-4,6,15-16H,1H2,(H,17,18)(H2,10,11,12)/t4-,6-/m1/s1",
        "InChIKey": null,
        "Canonical SMILES": "O=C(O)C(O)C(O)CN1C=NC=2C(=NC=NC21)N",
        "Molecular Formula": "C<sub>9</sub>H<sub>11</sub>N<sub>5</sub>O<sub>4</sub>",
        "Molecular Mass": "253.21",
        "Melting Point": "279 °C"
    }
}