{
    "cas_no": "1953-02-2",
    "key_name": "Tiopronin",
    "cn_name": "硫普罗宁;N-(2-巯基丙酰基)-甘氨酸;",
    "alternate_name": "Glycine, <em>N</em>-(2-mercapto-1-oxopropyl)-;Glycine, <em>N</em>-(2-mercaptopropionyl)-;<em>N</em>-(2-Mercapto-1-oxopropyl)glycine;Thiola;(2-Mercaptopropionyl)glycine;α-Mercaptopropionylglycine;Mercaptopropionylglycine;<em>N</em>-(2-Mercaptopropionyl)glycine;Tiopronin;Meprin (detoxicant);Mucolysin;(2-Mercaptopropionamido)acetic acid;α-Mercaptopropionyglycine;Thiopronin;Thiopronine;MPG;Hepadigest;Sutilan Cusi;<span class=\"text-smallcaps\">DL</span>-(α-Mercaptopropionyl)glycine;(±)-Tiopronin;MPG (hepatoprotective);Thiosol;Acadione;BRN 1859822;Sutilan;Tiopronino;Tiopronine;Thiolpropionamidoacetic acid;Vincol;Tioproninum;Epatiol;Capen;Tioglis;Captimer;CCRIS 1935;2-(2-Sulfanylpropanamido)acetic acid;2-(2-Sulfanylpropanoylamino)acetic acid",
    "duplicated_cas_no": "33068-82-5",
    "SMILES": "C(NCC(O)=O)(C(C)S)=O",
    "meta_data": {
        "InChI": "InChI=1S/C5H9NO3S/c1-3(10)5(9)6-2-4(7)8/h3,10H,2H2,1H3,(H,6,9)(H,7,8)",
        "InChIKey": null,
        "Canonical SMILES": "O=C(O)CNC(=O)C(S)C",
        "Molecular Formula": "C<sub>5</sub>H<sub>9</sub>NO<sub>3</sub>S",
        "Molecular Mass": "163.19",
        "Melting Point": "96 °C"
    }
}