{
    "cas_no": "49708-81-8",
    "key_name": "<em>trans</em>-4-(4-Chlorophenyl)cyclohexanecarboxylic acid",
    "cn_name": "4-(4-氯苯基)环己烷甲酸;4-(4-氯苯基)环己基-1-羧酸;",
    "alternate_name": "Cyclohexanecarboxylic acid, 4-(4-chlorophenyl)-, <em>trans</em>-;<em>trans</em>-4-(4-Chlorophenyl)cyclohexanecarboxylic acid;<em>trans</em>-4-(<em>p</em>-Chlorophenyl)cyclohexanecarboxylic acid",
    "duplicated_cas_no": "",
    "SMILES": "C(O)(=O)[C@H]1CC[C@@H](CC1)C2=CC=C(Cl)C=C2",
    "meta_data": {
        "InChI": "InChI=1/C13H15ClO2/c14-12-7-5-10(6-8-12)9-1-3-11(4-2-9)13(15)16/h5-9,11H,1-4H2,(H,15,16)/t9-,11-",
        "InChIKey": null,
        "Canonical SMILES": "O=C(O)C1CCC(C2=CC=C(Cl)C=C2)CC1",
        "Molecular Formula": "C<sub>13</sub>H<sub>15</sub>ClO<sub>2</sub>",
        "Molecular Mass": "238.71",
        "Melting Point": "235 °C"
    }
}