{
    "cas_no": "6322-07-2",
    "key_name": "<span class=\"text-smallcaps\">D</span>-Gulono-1,4-lactone",
    "cn_name": "D-(-)-古洛糖酸-gamma-内酯;",
    "alternate_name": "<span class=\"text-smallcaps\">D</span>-Gulonic acid, γ-lactone;Gulonic acid, γ-lactone, <span class=\"text-smallcaps\">D</span>-;γ-<span class=\"text-smallcaps\">D</span>-Gulonolactone;1,4-<span class=\"text-smallcaps\">D</span>-Gulonolactone;<span class=\"text-smallcaps\">D</span>-Gulono-1,4-lactone;<span class=\"text-smallcaps\">D</span>-Gulonolactone;<span class=\"text-smallcaps\">D</span>-Gulono-γ-lactone;NSC 34392;<span class=\"text-smallcaps\">D</span>-Gulonic γ-lactone",
    "duplicated_cas_no": "1148030-90-3;1192061-34-9",
    "SMILES": "[C@H](CO)(O)[C@]1([C@@H](O)[C@@H](O)C(=O)O1)[H]",
    "meta_data": {
        "InChI": "InChI=1S/C6H10O6/c7-1-2(8)5-3(9)4(10)6(11)12-5/h2-5,7-10H,1H2/t2-,3+,4-,5+/m1/s1",
        "InChIKey": null,
        "Canonical SMILES": "O=C1OC(C(O)CO)C(O)C1O",
        "Molecular Formula": "C<sub>6</sub>H<sub>10</sub>O<sub>6</sub>",
        "Molecular Mass": "178.14",
        "Melting Point": "135-136 °C"
    }
}