{
    "cas_no": "14192-12-2",
    "key_name": "2,5-Diiodobenzoic acid",
    "cn_name": "2,5-二碘苯甲酸;",
    "alternate_name": "Benzoic acid, 2,5-diiodo-;2,5-Diiodobenzoic acid;NSC 97505",
    "duplicated_cas_no": "",
    "SMILES": "C(O)(=O)C1=C(I)C=CC(I)=C1",
    "meta_data": {
        "InChI": "InChI=1S/C7H4I2O2/c8-4-1-2-6(9)5(3-4)7(10)11/h1-3H,(H,10,11)",
        "InChIKey": null,
        "Canonical SMILES": "O=C(O)C1=CC(I)=CC=C1I",
        "Molecular Formula": "C<sub>7</sub>H<sub>4</sub>I<sub>2</sub>O<sub>2</sub>",
        "Molecular Mass": "373.91",
        "Melting Point": "183 °C"
    }
}