{
    "cas_no": "17320-10-4",
    "key_name": "4β-Hydroxycholesterol",
    "cn_name": null,
    "alternate_name": "Cholest-5-ene-3,4-diol, (3β,4β)-;Cholest-5-ene-3β,4β-diol;(3β,4β)-Cholest-5-ene-3,4-diol;3β,4β-Dihydroxycholest-5-ene;4β-Hydroxycholesterol;<em>cis</em>-Δ<sup>5</sup>-Cholestene-3,4-diol;<em>cis</em>-3,4-Dihydroxy-Δ<sup>5</sup>-cholestene",
    "duplicated_cas_no": "886027-17-4;879877-81-3",
    "SMILES": "C[C@@]12[C@@]3([C@]([C@]4([C@](C)(CC3)[C@@]([C@@H](CCCC(C)C)C)(CC4)[H])[H])(CC=C1[C@@H](O)[C@@H](O)CC2)[H])[H]",
    "meta_data": {
        "InChI": "InChI=1S/C27H46O2/c1-17(2)7-6-8-18(3)20-11-12-21-19-9-10-23-25(29)24(28)14-16-27(23,5)22(19)13-15-26(20,21)4/h10,17-22,24-25,28-29H,6-9,11-16H2,1-5H3/t18-,19+,20-,21+,22+,24+,25-,26-,27-/m1/s1",
        "InChIKey": null,
        "Canonical SMILES": "OC1C2=CCC3C(CCC4(C)C(CCC34)C(C)CCCC(C)C)C2(C)CCC1O",
        "Molecular Formula": "C<sub>27</sub>H<sub>46</sub>O<sub>2</sub>",
        "Molecular Mass": "402.65",
        "Melting Point": "175-176 °C"
    }
}