{
    "cas_no": "4602-84-0",
    "key_name": "Farnesol",
    "cn_name": "3,7,11-三甲基-2,6,10-十二烷三烯-1-醇;法呢醇;合金欢醇;",
    "alternate_name": "2,6,10-Dodecatrien-1-ol, 3,7,11-trimethyl-;Farnesol;3,7,11-Trimethyl-2,6,10-dodecatrien-1-ol;Farnesyl alcohol;FCI 119a;NSC 60597;Nikkosome;3,7,11-Trimethyl-2,6,10-dodecen-1-ol;CSU 1806;MeSH ID: D005204",
    "duplicated_cas_no": "",
    "SMILES": "C(=CCCC(=CCO)C)(CCC=C(C)C)C",
    "meta_data": {
        "InChI": "InChI=1S/C15H26O/c1-13(2)7-5-8-14(3)9-6-10-15(4)11-12-16/h7,9,11,16H,5-6,8,10,12H2,1-4H3",
        "InChIKey": null,
        "Canonical SMILES": "OCC=C(C)CCC=C(C)CCC=C(C)C",
        "Molecular Formula": "C<sub>15</sub>H<sub>26</sub>O",
        "Molecular Mass": "222.37",
        "Boiling Point": "145-147 °C @ Press: 5 Torr",
        "Melting Point": "&lt;25 °C",
        "Density": "0.8871 g/cm³ @ Temp: 20 °C"
    }
}