{
    "cas_no": "6674-22-2",
    "key_name": "1,8-Diazabicyclo[5.4.0]undec-7-ene",
    "cn_name": "1,8-二氮杂双环[5.4.0]十一碳-7-烯;DBU;",
    "alternate_name": "Pyrimido[1,2-<em>a</em>]azepine, 2,3,4,6,7,8,9,10-octahydro-;2,3,4,6,7,8,9,10-Octahydropyrimido[1,2-<em>a</em>]azepine;1,8-Diazabicyclo[5.4.0]undec-7-ene;1,8-Diaza-7-bicyclo[5.4.0]undecene;DBU;Polycat DBU;1,8-Diazabicyclo[5.4.0]undecene-7;NSC 111184;NSC 230466;Dabco DBU;Amicure DBUE;Alcanpoudre DBU 70-3KG;1,8-Diazabicyclo[5.4.0]undeca-7-ene;Lupragen N 700;PC CAT DBU;1,8-Diazabicycloundec-7-ene;Diazabicyclo[5.4.0]undec-7-ene;Active D 10;2<em>H</em>,3<em>H</em>,4<em>H</em>,6<em>H</em>,7<em>H</em>,8<em>H</em>,9<em>H</em>,10<em>H</em>-Pyrimido[1,2-<em>a</em>]azepine",
    "duplicated_cas_no": "31171-04-7;41015-70-7;51301-56-5;69722-76-5;78995-63-8;83329-50-4;857293-63-1;1380214-95-8;1802659-41-1;2058348-68-6;2102590-64-5;2254312-58-6;3022359-96-9",
    "SMILES": "C=12N(CCCN1)CCCCC2",
    "meta_data": {
        "InChI": "InChI=1S/C9H16N2/c1-2-5-9-10-6-4-8-11(9)7-3-1/h1-8H2",
        "InChIKey": null,
        "Canonical SMILES": "N1=C2N(CCC1)CCCCC2",
        "Molecular Formula": "C<sub>9</sub>H<sub>16</sub>N<sub>2</sub>",
        "Molecular Mass": "152.24",
        "Boiling Point": "97-98 °C @ Press: 3 Torr",
        "Density": "1.0378 g/cm³ @ Temp: 20 °C"
    }
}