{
    "cas_no": "3017-95-6",
    "key_name": "2-Bromo-1-chloropropane",
    "cn_name": "1-氯-2-溴丙烷;2-溴-1-氯丙烷;",
    "alternate_name": "Propane, 2-bromo-1-chloro-;2-Bromo-1-chloropropane;1-Chloro-2-bromopropane;(±)-2-Bromo-1-chloropropane;NSC 8022",
    "duplicated_cas_no": "127054-38-0",
    "SMILES": "C(CCl)(Br)C",
    "meta_data": {
        "InChI": "InChI=1S/C3H6BrCl/c1-3(4)2-5/h3H,2H2,1H3",
        "InChIKey": null,
        "Canonical SMILES": "ClCC(Br)C",
        "Molecular Formula": "C<sub>3</sub>H<sub>6</sub>BrCl",
        "Molecular Mass": "157.44",
        "Boiling Point": "118 °C",
        "Density": "1.537 g/cm³ @ Temp: 20 °C"
    }
}