{
    "cas_no": "6994-46-3",
    "key_name": "Solvent Blue 59",
    "cn_name": "溶剂蓝59;1,4-双(乙胺基)-9,10-蒽二酮;",
    "alternate_name": "9,10-Anthracenedione, 1,4-bis(ethylamino)-;Anthraquinone, 1,4-bis(ethylamino)-;1,4-Bis(ethylamino)-9,10-anthracenedione;C.I. Solvent Blue 59;Calco Oil Blue N;1,4-Bis(ethylamino)anthraquinone;Solvent Blue 59;1,4-Bis(ethylamino)-9,10-anthraquinone;Kayaset Blue FR;C.I. Solvent Blue 105;C.I. 61552;Solvent Blue 105;Ceres Blue N",
    "duplicated_cas_no": "81859-26-9",
    "SMILES": "N(CC)C1=C2C(=C(NCC)C=C1)C(=O)C=3C(C2=O)=CC=CC3",
    "meta_data": {
        "InChI": "InChI=1S/C18H18N2O2/c1-3-19-13-9-10-14(20-4-2)16-15(13)17(21)11-7-5-6-8-12(11)18(16)22/h5-10,19-20H,3-4H2,1-2H3",
        "InChIKey": null,
        "Canonical SMILES": "O=C1C=2C=CC=CC2C(=O)C=3C(=CC=C(NCC)C13)NCC",
        "Molecular Formula": "C<sub>18</sub>H<sub>18</sub>N<sub>2</sub>O<sub>2</sub>",
        "Molecular Mass": "294.35",
        "Melting Point": "197-198 °C"
    }
}