{
    "cas_no": "16644-30-7",
    "key_name": "3-(Chloromethyl)-2-hydroxy-5-nitrobenzaldehyde",
    "cn_name": "3-氯甲基-5-硝基水杨醛;",
    "alternate_name": "Benzaldehyde, 3-(chloromethyl)-2-hydroxy-5-nitro-;2,3-Cresotaldehyde, α-chloro-5-nitro-;3-(Chloromethyl)-2-hydroxy-5-nitrobenzaldehyde;3-Chloromethyl-5-nitrosalicylaldehyde;NSC 221280;2-Hydroxy-3-(chloromethyl)-5-nitrobenzaldehyde",
    "duplicated_cas_no": "",
    "SMILES": "C(Cl)C1=C(O)C(C=O)=CC(N(=O)=O)=C1",
    "meta_data": {
        "InChI": "InChI=1S/C8H6ClNO4/c9-3-5-1-7(10(13)14)2-6(4-11)8(5)12/h1-2,4,12H,3H2",
        "InChIKey": null,
        "Canonical SMILES": "O=CC=1C=C(C=C(C1O)CCl)N(=O)=O",
        "Molecular Formula": "C<sub>8</sub>H<sub>6</sub>ClNO<sub>4</sub>",
        "Molecular Mass": "215.59",
        "Melting Point": "90.5-91.5 °C"
    }
}