{
    "cas_no": "499-12-7",
    "key_name": "Aconitic acid",
    "cn_name": "乌头酸;失水柠檬酸;丙烯三羧酸;",
    "alternate_name": "1-Propene-1,2,3-tricarboxylic acid;Achilleaic acid;Achilleic acid;Aconitic acid;Citridic acid;Citridinic acid;Equisetic acid;3-Carboxyglutaconic acid;Pyrocitric acid;2-Pentenedioic acid, 3-carboxy-;NSC 7616;MeSH ID: D000156",
    "duplicated_cas_no": "",
    "SMILES": "C(CC(O)=O)(=CC(O)=O)C(O)=O",
    "meta_data": {
        "InChI": "InChI=1S/C6H6O6/c7-4(8)1-3(6(11)12)2-5(9)10/h1H,2H2,(H,7,8)(H,9,10)(H,11,12)",
        "InChIKey": null,
        "Canonical SMILES": "O=C(O)C=C(C(=O)O)CC(=O)O",
        "Molecular Formula": "C<sub>6</sub>H<sub>6</sub>O<sub>6</sub>",
        "Molecular Mass": "174.11",
        "Melting Point": "194-195 °C (decomp)"
    }
}