{
    "cas_no": "56133-86-9",
    "key_name": "2,5-Dichlorobenzeneethanamine",
    "cn_name": null,
    "alternate_name": "Benzeneethanamine, 2,5-dichloro-;Phenethylamine, 2,5-dichloro-;2,5-Dichlorobenzeneethanamine;2,5-Dichlorophenylethylamine;2,5-Dichlorophenethylamine;2-(2,5-Dichlorophenyl)ethanamine;2-(2,5-Dichlorophenyl)ethan-1-amine",
    "duplicated_cas_no": "",
    "SMILES": "C(CN)C1=C(Cl)C=CC(Cl)=C1",
    "meta_data": {
        "InChI": "InChI=1S/C8H9Cl2N/c9-7-1-2-8(10)6(5-7)3-4-11/h1-2,5H,3-4,11H2",
        "InChIKey": null,
        "Canonical SMILES": "ClC1=CC=C(Cl)C(=C1)CCN",
        "Molecular Formula": "C<sub>8</sub>H<sub>9</sub>Cl<sub>2</sub>N",
        "Molecular Mass": "190.07",
        "Boiling Point": "132-134 °C @ Press: 10 Torr"
    }
}