{
    "cas_no": "102-09-0",
    "key_name": "Diphenyl carbonate",
    "cn_name": "碳酸二苯酯;DPC;",
    "alternate_name": "Carbonic acid, diphenyl ester;Diphenyl carbonate;Phenyl carbonate ((PhO)<sub>2</sub>CO);NSC 37087;Bisphenyl carbonate",
    "duplicated_cas_no": "98287-56-0",
    "SMILES": "O(C(OC1=CC=CC=C1)=O)C2=CC=CC=C2",
    "meta_data": {
        "InChI": "InChI=1S/C13H10O3/c14-13(15-11-7-3-1-4-8-11)16-12-9-5-2-6-10-12/h1-10H",
        "InChIKey": null,
        "Canonical SMILES": "O=C(OC=1C=CC=CC1)OC=2C=CC=CC2",
        "Molecular Formula": "C<sub>13</sub>H<sub>10</sub>O<sub>3</sub>",
        "Molecular Mass": "214.22",
        "Boiling Point": "302-306 °C",
        "Melting Point": "80-81 °C",
        "Density": "1.1215 g/cm³ @ Temp: 87 °C"
    }
}