{
    "cas_no": "16064-10-1",
    "key_name": "6-Hydroxy-4(3<em>H</em>)-quinazolinone",
    "cn_name": null,
    "alternate_name": "4(3<em>H</em>)-Quinazolinone, 6-hydroxy-;4(1<em>H</em>)-Quinazolinone, 6-hydroxy-;6-Hydroxy-4(3<em>H</em>)-quinazolinone;6-Hydroxy-4-quinazolinone;6-Hydroxy-3<em>H</em>-quinazolin-4-one;4,6-Dihydroxyquinazoline;6-Hydroxy-3,4-dihydroquinazolin-4-one;Quinazoline-4,6-diol;6-Hydroxyquinazolin-4(3<em>H</em>)-one",
    "duplicated_cas_no": "",
    "SMILES": "O=C1C=2C(=CC=C(O)C2)NC=N1",
    "meta_data": {
        "InChI": "InChI=1S/C8H6N2O2/c11-5-1-2-7-6(3-5)8(12)10-4-9-7/h1-4,11H,(H,9,10,12)",
        "InChIKey": null,
        "Canonical SMILES": "O=C1N=CNC2=CC=C(O)C=C12",
        "Molecular Formula": "C<sub>8</sub>H<sub>6</sub>N<sub>2</sub>O<sub>2</sub>",
        "Molecular Mass": "162.15",
        "Melting Point": "&gt;300 °C"
    }
}