{
    "cas_no": "2823-44-1",
    "key_name": "α-<span class=\"text-smallcaps\">D</span>-Mannopyranosyl fluoride, 2,3,4,6-tetraacetate",
    "cn_name": null,
    "alternate_name": "α-<span class=\"text-smallcaps\">D</span>-Mannopyranosyl fluoride, 2,3,4,6-tetraacetate;Mannopyranosyl fluoride, tetraacetate, α-<span class=\"text-smallcaps\">D</span>-;α-<span class=\"text-smallcaps\">D</span>-Mannopyranosyl fluoride, tetraacetate;Tetra-<em>O</em>-acetyl-α-<span class=\"text-smallcaps\">D</span>-mannopyranosyl fluoride",
    "duplicated_cas_no": "",
    "SMILES": "O(C(C)=O)[C@H]1[C@H](OC(C)=O)[C@@H](COC(C)=O)O[C@H](F)[C@H]1OC(C)=O",
    "meta_data": {
        "InChI": "InChI=1S/C14H19FO9/c1-6(16)20-5-10-11(21-7(2)17)12(22-8(3)18)13(14(15)24-10)23-9(4)19/h10-14H,5H2,1-4H3/t10-,11-,12+,13+,14+/m1/s1",
        "InChIKey": null,
        "Canonical SMILES": "O=C(OCC1OC(F)C(OC(=O)C)C(OC(=O)C)C1OC(=O)C)C",
        "Molecular Formula": "C<sub>14</sub>H<sub>19</sub>FO<sub>9</sub>",
        "Molecular Mass": "350.29",
        "Melting Point": "68-69 °C"
    }
}