{
    "cas_no": "334-49-6",
    "key_name": "<em>trans</em>-2-Decenoic acid",
    "cn_name": "反式-2-癸烯酸;反式-2-癸烯酸;反-2-十二烯酸;",
    "alternate_name": "2-Decenoic acid, (2<em>E</em>)-;2-Decenoic acid, (<em>E</em>)-;(2<em>E</em>)-2-Decenoic acid;<em>trans</em>-2-Decenoic acid;(<em>E</em>)-2-Decenoic acid",
    "duplicated_cas_no": "",
    "SMILES": "C(CCCCCC)/C=C/C(O)=O",
    "meta_data": {
        "InChI": "InChI=1S/C10H18O2/c1-2-3-4-5-6-7-8-9-10(11)12/h8-9H,2-7H2,1H3,(H,11,12)/b9-8+",
        "InChIKey": null,
        "Canonical SMILES": "O=C(O)C=CCCCCCCC",
        "Molecular Formula": "C<sub>10</sub>H<sub>18</sub>O<sub>2</sub>",
        "Molecular Mass": "170.25",
        "Boiling Point": "120 °C @ Press: 2 Torr",
        "Melting Point": "12 °C"
    }
}