{
    "cas_no": "286930-03-8",
    "key_name": "Fesoterodine fumarate",
    "cn_name": null,
    "alternate_name": "Propanoic acid, 2-methyl-, 2-[(1<em>R</em>)-3-[bis(1-methylethyl)amino]-1-phenylpropyl]-4-(hydroxymethyl)phenyl ester, (2<em>E</em>)-2-butenedioate (1:1);Propanoic acid, 2-methyl-, 2-[(1<em>R</em>)-3-[bis(1-methylethyl)amino]-1-phenylpropyl]-4-(hydroxymethyl)phenyl ester, (2<em>E</em>)-2-butenedioate (1:1) (salt);Fesoterodine fumarate;SMP 8272;SPM 907;Toviaz",
    "duplicated_cas_no": "960373-34-6;1390644-35-5",
    "SMILES": "[C@H](CCN(C(C)C)C(C)C)(C1=C(OC(C(C)C)=O)C=CC(CO)=C1)C2=CC=CC=C2.C(=C/C(O)=O)\\C(O)=O",
    "meta_data": {
        "InChI": "",
        "InChIKey": null,
        "Canonical SMILES": "O=C(O)C=CC(=O)O.O=C(OC1=CC=C(C=C1C(C=2C=CC=CC2)CCN(C(C)C)C(C)C)CO)C(C)C",
        "Molecular Formula": "C<sub>26</sub>H<sub>37</sub>NO<sub>3</sub>.C<sub>4</sub>H<sub>4</sub>O<sub>4</sub>",
        "Molecular Mass": "",
        "Melting Point": "103.5 °C"
    }
}