{
    "cas_no": "541508-27-4",
    "key_name": "1-(5-Chloro-2-fluorophenyl)ethanone",
    "cn_name": null,
    "alternate_name": "Ethanone, 1-(5-chloro-2-fluorophenyl)-;1-(5-Chloro-2-fluorophenyl)ethanone",
    "duplicated_cas_no": "",
    "SMILES": "C(C)(=O)C1=C(F)C=CC(Cl)=C1",
    "meta_data": {
        "InChI": "InChI=1S/C8H6ClFO/c1-5(11)7-4-6(9)2-3-8(7)10/h2-4H,1H3",
        "InChIKey": null,
        "Canonical SMILES": "O=C(C1=CC(Cl)=CC=C1F)C",
        "Molecular Formula": "C<sub>8</sub>H<sub>6</sub>ClFO",
        "Molecular Mass": "172.58",
        "Boiling Point": "100-105 °C @ Press: 8 Torr"
    }
}