{
    "cas_no": "819-97-6",
    "key_name": "<em>sec</em>-Butyl butyrate",
    "cn_name": null,
    "alternate_name": "Butanoic acid, 1-methylpropyl ester;Butyric acid, <em>sec</em>-butyl ester;<em>sec</em>-Butyl butyrate;<em>sec</em>-Butyl butanoate;1-Methylpropyl butyrate;1-Methylpropyl butanoate",
    "duplicated_cas_no": "116783-24-5",
    "SMILES": "O(C(CCC)=O)C(CC)C",
    "meta_data": {
        "InChI": "InChI=1S/C8H16O2/c1-4-6-8(9)10-7(3)5-2/h7H,4-6H2,1-3H3",
        "InChIKey": null,
        "Canonical SMILES": "O=C(OC(C)CC)CCC",
        "Molecular Formula": "C<sub>8</sub>H<sub>16</sub>O<sub>2</sub>",
        "Molecular Mass": "144.21",
        "Boiling Point": "151.5 °C @ Press: 747 Torr",
        "Density": "0.8572 g/cm³ @ Temp: 16 °C"
    }
}