{
    "cas_no": "1118-12-3",
    "key_name": "<em>tert</em>-Butylurea",
    "cn_name": "叔丁脲;",
    "alternate_name": "Urea, <em>N</em>-(1,1-dimethylethyl)-;Urea, <em>tert</em>-butyl-;Urea, (1,1-dimethylethyl)-;<em>N</em>-(1,1-Dimethylethyl)urea;<em>tert</em>-Butylurea;<em>N</em>-<em>tert</em>-Butylurea;1-<em>tert</em>-Butylurea;NSC 4604;(1,1-Dimethylethyl)urea",
    "duplicated_cas_no": "",
    "SMILES": "N(C(C)(C)C)C(N)=O",
    "meta_data": {
        "InChI": "InChI=1S/C5H12N2O/c1-5(2,3)7-4(6)8/h1-3H3,(H3,6,7,8)",
        "InChIKey": null,
        "Canonical SMILES": "O=C(N)NC(C)(C)C",
        "Molecular Formula": "C<sub>5</sub>H<sub>12</sub>N<sub>2</sub>O",
        "Molecular Mass": "116.16",
        "Melting Point": "183 °C (decomp)",
        "Density": "1.1380 g/cm³"
    }
}