{
    "cas_no": "606-35-9",
    "key_name": "2,4,6-Trinitroanisole",
    "cn_name": "2,4,6-三硝基苯甲醚;",
    "alternate_name": "Benzene, 2-methoxy-1,3,5-trinitro-;Anisole, 2,4,6-trinitro-;2-Methoxy-1,3,5-trinitrobenzene;2,4,6-Trinitroanisole;Methyl picrate;1-Methoxy-2,4,6-trinitrobenzene;NSC 36950;Trinitroanisol;TNA",
    "duplicated_cas_no": "",
    "SMILES": "O(C)C1=C(N(=O)=O)C=C(N(=O)=O)C=C1N(=O)=O",
    "meta_data": {
        "InChI": "InChI=1S/C7H5N3O7/c1-17-7-5(9(13)14)2-4(8(11)12)3-6(7)10(15)16/h2-3H,1H3",
        "InChIKey": null,
        "Canonical SMILES": "O=N(=O)C=1C=C(C(OC)=C(C1)N(=O)=O)N(=O)=O",
        "Molecular Formula": "C<sub>7</sub>H<sub>5</sub>N<sub>3</sub>O<sub>7</sub>",
        "Molecular Mass": "243.13",
        "Melting Point": "69 °C",
        "Density": "1.610 g/cm³"
    }
}