{
    "cas_no": "4812-20-8",
    "key_name": "2-Isopropoxyphenol",
    "cn_name": "2-异丙氧基苯酚;",
    "alternate_name": "Phenol, 2-(1-methylethoxy)-;Phenol, <em>o</em>-isopropoxy-;2-(1-Methylethoxy)phenol;<em>o</em>-Isopropoxyphenol;2-Isopropoxyphenol;Catechol monoisopropyl ether;2-Isopropyloxyphenol;1-Hydroxy-2-isopropoxybenzene;<em>ortho</em>-Isopropoxyphenol;2-IPP;2-(Propan-2-yloxy)phenol;2-(2-Propoxy)phenol",
    "duplicated_cas_no": "",
    "SMILES": "O(C(C)C)C1=C(O)C=CC=C1",
    "meta_data": {
        "InChI": "InChI=1S/C9H12O2/c1-7(2)11-9-6-4-3-5-8(9)10/h3-7,10H,1-2H3",
        "InChIKey": null,
        "Canonical SMILES": "OC=1C=CC=CC1OC(C)C",
        "Molecular Formula": "C<sub>9</sub>H<sub>12</sub>O<sub>2</sub>",
        "Molecular Mass": "152.19",
        "Boiling Point": "100-102 °C"
    }
}