{
    "cas_no": "14618-78-1",
    "key_name": "4,4-Dimethoxybutanenitrile",
    "cn_name": null,
    "alternate_name": "Butanenitrile, 4,4-dimethoxy-;Succinaldehydonitrile, dimethyl acetal;Butyronitrile, 4,4-dimethoxy-;4,4-Dimethoxybutanenitrile;4,4-Dimethoxybutyronitrile;3-Cyanopropionaldehyde dimethyl acetal;β-Cyanopropionaldehyde dimethylacetal;3-Cyanopropanal dimethyl acetal;1,1-Dimethoxy-3-cyanopropane",
    "duplicated_cas_no": "",
    "SMILES": "C(CCC#N)(OC)OC",
    "meta_data": {
        "InChI": "InChI=1S/C6H11NO2/c1-8-6(9-2)4-3-5-7/h6H,3-4H2,1-2H3",
        "InChIKey": null,
        "Canonical SMILES": "N#CCCC(OC)OC",
        "Molecular Formula": "C<sub>6</sub>H<sub>11</sub>NO<sub>2</sub>",
        "Molecular Mass": "129.16",
        "Boiling Point": "93 °C @ Press: 17 Torr",
        "Density": "0.992 g/cm³ @ Temp: 23 °C"
    }
}