{
    "cas_no": "756-13-8",
    "key_name": "1,1,1,2,2,4,5,5,5-Nonafluoro-4-(trifluoromethyl)-3-pentanone",
    "cn_name": "1,1,1,2,2,4,5,5,5-九氟代-4-(三氟代甲基)-3-戊酮;",
    "alternate_name": "3-Pentanone, 1,1,1,2,2,4,5,5,5-nonafluoro-4-(trifluoromethyl)-;1,1,1,2,2,4,5,5,5-Nonafluoro-4-(trifluoromethyl)-3-pentanone;Perfluoro-2-methyl-3-pentanone;Perfluoro(ethyl isopropyl ketone);Heptafluoroisopropyl pentafluoroethyl ketone;Perfluoro-(4-methylpentan-3-one);L 18543;Novec 1230;Dodecafluoro-2-methylpentan-3-one;Novec 649;Khaldon PFK 49;HFE 649",
    "duplicated_cas_no": "873685-17-7",
    "SMILES": "C(C(C(C(F)(F)F)(F)F)=O)(C(F)(F)F)(C(F)(F)F)F",
    "meta_data": {
        "InChI": "InChI=1S/C6F12O/c7-2(4(10,11)12,5(13,14)15)1(19)3(8,9)6(16,17)18",
        "InChIKey": null,
        "Canonical SMILES": "O=C(C(F)(F)C(F)(F)F)C(F)(C(F)(F)F)C(F)(F)F",
        "Molecular Formula": "C<sub>6</sub>F<sub>12</sub>O",
        "Molecular Mass": "316.04",
        "Boiling Point": "48-49 °C @ Press: 760 Torr",
        "Density": "0.0217 g/cm³ @ Press: 1315 Torr"
    }
}