{
    "cas_no": "2943-75-1",
    "key_name": "Octyltriethoxysilane",
    "cn_name": "正辛基三乙氧基硅烷;",
    "alternate_name": "Silane, triethoxyoctyl-;Triethoxyoctylsilane;Octyltriethoxysilane;<em>n</em>-Octyltriethoxysilane;Y 9187;Dynasylan OCTEO;Prosil 9202;Prosil 9234;Silquest A 137;A 137 (coupling agent);A 137;Enviroseal 40;U 222;Si 208;Si 208 (coupling agent);VP-Si 208;NSC 42964;Z 6341;O 9835;Caprylyltriethoxysilane;LM-N 308;AES 3083;EMI 1831;L 04407;Elotex Seal 80;KBE 3083;Silquest 06715.0;Xiameter OFS 6341;KH 350;Triethoxycaprylylsilane;OFS 6341;1-(Triethoxysilyl)octane;KH 832;Penta 818;SM 008;Xiameter OFS 6595;DB 8830;Silres BS 1601;SCA-K 08E;Dowsil 87;ZH 801;XHW 308;SICO-N 823;BS 1601;Kinggsica 28AS",
    "duplicated_cas_no": "1247019-87-9;2360960-53-6",
    "SMILES": "[Si](CCCCCCCC)(OCC)(OCC)OCC",
    "meta_data": {
        "InChI": "InChI=1S/C14H32O3Si/c1-5-9-10-11-12-13-14-18(15-6-2,16-7-3)17-8-4/h5-14H2,1-4H3",
        "InChIKey": null,
        "Canonical SMILES": "O(CC)[Si](OCC)(OCC)CCCCCCCC",
        "Molecular Formula": "C<sub>14</sub>H<sub>32</sub>O<sub>3</sub>Si",
        "Molecular Mass": "276.49",
        "Boiling Point": "98-99 °C @ Press: 2 Torr",
        "Melting Point": "&lt;-40 °C",
        "Density": "0.875 g/cm³"
    }
}