{
    "cas_no": "26782-74-1",
    "key_name": "(2<em>S</em>)-2-Chloro-3-methylbutanoic acid",
    "cn_name": null,
    "alternate_name": "Butanoic acid, 2-chloro-3-methyl-, (2<em>S</em>)-;Butyric acid, 2-chloro-3-methyl-, (<em>S</em>)-;Butanoic acid, 2-chloro-3-methyl-, (<em>S</em>)-;(2<em>S</em>)-2-Chloro-3-methylbutanoic acid;(<em>S</em>)-2-Chloro-3-methylbutanoic acid;(<em>S</em>)-2-Chloro-3-methylbutyric acid;(<em>S</em>)-(+)-2-Chloro-3-methylbutanoic acid;(2S)-2-Chloro-3-methylbutanoic acid",
    "duplicated_cas_no": "",
    "SMILES": "[C@H](C(C)C)(C(O)=O)Cl",
    "meta_data": {
        "InChI": "InChI=1S/C5H9ClO2/c1-3(2)4(6)5(7)8/h3-4H,1-2H3,(H,7,8)/t4-/m0/s1",
        "InChIKey": null,
        "Canonical SMILES": "O=C(O)C(Cl)C(C)C",
        "Molecular Formula": "C<sub>5</sub>H<sub>9</sub>ClO<sub>2</sub>",
        "Molecular Mass": "136.58",
        "Boiling Point": "98 °C @ Press: 16 Torr",
        "Density": "1.10 g/cm³"
    }
}