{
    "cas_no": "1477-57-2",
    "key_name": "<em>N</em>,<em>N</em>′-1,8-Octanediylbis[2,2-dichloroacetamide]",
    "cn_name": null,
    "alternate_name": "Acetamide, <em>N</em>,<em>N</em>′-1,8-octanediylbis[2,2-dichloro-;Acetamide, <em>N</em>,<em>N</em>′-octamethylenebis[2,2-dichloro-;<em>N</em>,<em>N</em>′-1,8-Octanediylbis[2,2-dichloroacetamide];Win 18446;<em>N</em>,<em>N</em>′-Bis(dichloroacetyl)-1,8-octamethylenediamine;Win 18441;<em>N</em>,<em>N</em>′-Octamethylenebis(2,2-dichloroacetamide);<em>N</em>,<em>N</em>′-Bis(dichloroacetyl)-1,8-diaminooctane;Fertilysin;Bis-Diamine;Fertilysine;NSC 59354;2,2-Dichloro-<em>N</em>-[8-[(2,2-dichloroacetyl)amino]octyl]acetamide",
    "duplicated_cas_no": "1071707-69-1",
    "SMILES": "N(C(C(Cl)Cl)=O)CCCCCCCCNC(C(Cl)Cl)=O",
    "meta_data": {
        "InChI": "InChI=1S/C12H20Cl4N2O2/c13-9(14)11(19)17-7-5-3-1-2-4-6-8-18-12(20)10(15)16/h9-10H,1-8H2,(H,17,19)(H,18,20)",
        "InChIKey": null,
        "Canonical SMILES": "O=C(NCCCCCCCCNC(=O)C(Cl)Cl)C(Cl)Cl",
        "Molecular Formula": "C<sub>12</sub>H<sub>20</sub>Cl<sub>4</sub>N<sub>2</sub>O<sub>2</sub>",
        "Molecular Mass": "366.11",
        "Melting Point": "122.4-123.6 °C"
    }
}