{
    "cas_no": "5958-24-7",
    "key_name": "2-Chloromethyl-4-phenyl-6-chloroquinazoline 3-oxide",
    "cn_name": null,
    "alternate_name": "Quinazoline, 6-chloro-2-(chloromethyl)-4-phenyl-, 3-oxide;2-Chloromethyl-4-phenyl-6-chloroquinazoline 3-oxide;2-(Chloromethyl)-6-chloro-4-phenylquinazoline 3-oxide;6-Chloro-2-(chloromethyl)-4-phenylquinazoline 3-oxide",
    "duplicated_cas_no": "",
    "SMILES": "O=N1=C(C2=C(N=C1CCl)C=CC(Cl)=C2)C3=CC=CC=C3",
    "meta_data": {
        "InChI": "InChI=1S/C15H10Cl2N2O/c16-9-14-18-13-7-6-11(17)8-12(13)15(19(14)20)10-4-2-1-3-5-10/h1-8H,9H2",
        "InChIKey": null,
        "Canonical SMILES": "O=N=1C(=NC=2C=CC(Cl)=CC2C1C=3C=CC=CC3)CCl",
        "Molecular Formula": "C<sub>15</sub>H<sub>10</sub>Cl<sub>2</sub>N<sub>2</sub>O",
        "Molecular Mass": "305.16",
        "Melting Point": "109-112 °C"
    }
}