{
    "cas_no": "1197-13-3",
    "key_name": "1<em>H</em>-Pyrrole-2-carboxylic acid, 5-formyl-, methyl ester",
    "cn_name": null,
    "alternate_name": "1<em>H</em>-Pyrrole-2-carboxylic acid, 5-formyl-, methyl ester;Pyrrole-2-carboxylic acid, 5-formyl-, methyl ester;Methyl 5-formyl-2-pyrrolecarboxylate;NSC 244809;5-Formyl-1<em>H</em>-pyrrole-2-carboxylic acid methyl ester;Methyl 5-formyl-1<em>H</em>-pyrrole-2-carboxylate",
    "duplicated_cas_no": "",
    "SMILES": "C(OC)(=O)C=1NC(C=O)=CC1",
    "meta_data": {
        "InChI": "InChI=1S/C7H7NO3/c1-11-7(10)6-3-2-5(4-9)8-6/h2-4,8H,1H3",
        "InChIKey": null,
        "Canonical SMILES": "O=CC1=CC=C(N1)C(=O)OC",
        "Molecular Formula": "C<sub>7</sub>H<sub>7</sub>NO<sub>3</sub>",
        "Molecular Mass": "153.14",
        "Melting Point": "96 °C"
    }
}