{
    "uri": "substance/pt/8052424",
    "rn": "8052-42-4",
    "name": "Asphalt",
    "images": [],
    "inchi": "",
    "inchiKey": "",
    "smile": "",
    "canonicalSmile": "",
    "molecularFormula": "Unspecified",
    "molecularMass": "",
    "experimentalProperties": [
        {
            "name": "Boiling Point",
            "property": "&gt;371 °C",
            "sourceNumber": 1
        },
        {
            "name": "Melting Point",
            "property": "54-173 °C",
            "sourceNumber": 2
        },
        {
            "name": "Density",
            "property": "1.00-1.18 g/cm³",
            "sourceNumber": 1
        }
    ],
    "propertyCitations": [
        {
            "docUri": "",
            "sourceNumber": 1,
            "source": "Hazardous Substances Data Bank data were obtained from the National Library of Medicine (US)"
        },
        {
            "docUri": "",
            "sourceNumber": 2,
            "source": "International Chemical Safety Cards data were obtained from the National Institute for Occupational Safety and Health (US)"
        }
    ],
    "synonyms": [
        "Asphalt",
        "Asphaltum",
        "Judean pitch",
        "Mineral pitch",
        "Bitumens, asphalt",
        "Bituminous materials, asphalt",
        "Mineral rubber",
        "Petroleum refining residues, asphalts",
        "Rubber, mineral",
        "AC 8 (asphalt)",
        "Bitusize B",
        "Dacholeum",
        "AZ-IP 90",
        "Witcurb 22L",
        "Flintkote FL",
        "AC 8",
        "AC 20",
        "AC 10",
        "Aszol H",
        "Flintkote 5",
        "Petroleum asphalt",
        "AC 3 (asphalt)",
        "Straight asphalt",
        "AC 10 (asphalt)",
        "NT 8H",
        "Aqua Brown B-A",
        "Aqua Brown B-K",
        "Flintkote",
        "JWS 8930AK",
        "Trumbull 3400",
        "Asro 85",
        "Asro 150",
        "Liquamite",
        "Catiozol CPE 3",
        "Monar DA Grade",
        "WRAC 20",
        "AR 1000",
        "AC 3",
        "Nippon Oil 40-60",
        "Slad TB",
        "Fujikon Plus",
        "Polyphalt S.S",
        "Cenex AC 20",
        "Phalcell W",
        "0907ASP",
        "Flintkote 3",
        "Flintkote AR 52",
        "SP 95",
        "SPP 70",
        "Nisshiru GS",
        "SP 95 (asphalt)",
        "SP Blown Asphalt 10-20HC",
        "Drainage ECO",
        "AH 90 (asphalt)",
        "Wood River AC 5",
        "Neo Catic A",
        "Neo Primer",
        "CPE 4",
        "Meishoku Porous Zol",
        "Trumbull 3706",
        "KM 2 (asphalt)",
        "Porous Zol",
        "Stars 60/80",
        "AC 20 (asphalt)",
        "AC 5",
        "Ecophalt View",
        "PG 58-22",
        "AR 4000",
        "Frontier 58-22",
        "PG 64-22",
        "Ergon 150 Pen",
        "Trumbull 4004",
        "Nisseki Straight Asphalt 60-80",
        "CPC 1",
        "CPE 3",
        "Straight Asphalt 60-80",
        "Formula FLX",
        "AC 40",
        "PG 70-28",
        "Protecto-Magic",
        "AH 90",
        "LH 90",
        "Kelamayi 110",
        "SK 70",
        "SK 90",
        "Huanxiling 90",
        "AAD 1",
        "Trumbull 1410",
        "ABD",
        "HXL 90",
        "GSTDS 90",
        "SMA 11-50/70",
        "PG 52-34",
        "Caribit",
        "AH 50",
        "AH 70",
        "Strata T",
        "A 70",
        "OGFC 13",
        "AC 16 (asphalt)",
        "SMA 16",
        "AC 16",
        "AP 5",
        "AP 5 (asphalt)",
        "SMA 5",
        "AR 1000 (asphalt)",
        "MA 11S",
        "AH 70A",
        "Taipuke 70",
        "Redaspol 90JLF/015697",
        "Straight Asphalt 80-100",
        "SFT 130",
        "MXA 230",
        "HR 120",
        "Epochphalt Super",
        "Epochphalt D",
        "PG 64",
        "Alon 64-22",
        "Alon 76-22",
        "SEM 64-22",
        "SEM 70-22",
        "Lion 64-22",
        "Lion 70-22",
        "Valero H 64-22",
        "Martin 64-22",
        "PG 64 (binder)",
        "Caltex AH 70",
        "CAG",
        "AH 30",
        "Straight Asphalt 150-200",
        "AH 80",
        "Donghai 70",
        "NTTSS 1H",
        "NTCQS 1HLM",
        "PG 70-10",
        "AC 70-10",
        "HIFLO S",
        "FD 1",
        "MC 800",
        "MC 30",
        "L 11",
        "Zhonghai 361",
        "Zero PEN",
        "MM 70AH",
        "TLA",
        "TLA (asphalt)",
        "Superpave 20",
        "Superpave 25",
        "PAC 13",
        "JTG-F 40-70A",
        "N 660",
        "N 660 (asphalt)",
        "A 100",
        "A 100 (asphalt)",
        "AP 3",
        "CJ 100",
        "AP 3 (asphalt)",
        "Esso 90",
        "Cecabase PC 24",
        "NFT 1",
        "RC-FLZRHLQ",
        "T 140",
        "T 140 (asphalt)",
        "PG 67-22",
        "GS 70",
        "Sigmart E",
        "Sigmart EL",
        "Maruesu 6",
        "H 130 (asphalt)",
        "H 130",
        "RF-C 1",
        "MS 0",
        "ZB 125",
        "RF 9 (asphalt)",
        "Zhenhai 70A",
        "AC 60/70",
        "EA 7",
        "F 400",
        "Zhonghai 70",
        "RHLQ 003",
        "FT 11022",
        "Liaohe AH 70",
        "Zhonghai 90",
        "Maoming 70",
        "SK 70A",
        "Esso AH 70",
        "01514127N",
        "LG 08",
        "HL 1q001",
        "HK 0101",
        "A 35P",
        "AH 10 (asphalt)",
        "AH 10",
        "SHAN 60F",
        "SHAN 61F",
        "SHAN 62F",
        "SHAN 63F",
        "SHAN 64F",
        "SHAN 65F",
        "Y 101-60",
        "MECO-OL 106",
        "T 120T260",
        "RHLQQ 01",
        "ZLQ 601",
        "MQ 250",
        "GF 90 (asphalt)",
        "GF 200 (asphalt)",
        "GF 90",
        "GF 200"
    ],
    "replacedRns": [
        "12197-22-7",
        "50922-30-0",
        "851786-52-2",
        "1941999-40-1",
        "1955522-49-2",
        "2244698-58-4",
        "2567591-52-8",
        "2643329-43-3"
    ],
    "hasMolfile": false,
    "source": "https://commonchemistry.cas.org/detail?cas_rn=8052-42-4"
}