{
    "cas_no": "17697-12-0",
    "key_name": "Phenylseleninyl benzeneseleninate",
    "cn_name": "苯亚硒酸酐;",
    "alternate_name": "Benzeneseleninic acid, phenylseleninyl ester;Benzeneseleninic acid, anhydride;Benzeneseleninic anhydride;Phenylseleninyl benzeneseleninate;Diphenylseleninic anhydride;Phenylseleninic anhydride",
    "duplicated_cas_no": "",
    "SMILES": "[Se](O[Se](=O)C1=CC=CC=C1)(=O)C2=CC=CC=C2",
    "meta_data": {
        "InChI": "InChI=1S/C12H10O3Se2/c13-16(11-7-3-1-4-8-11)15-17(14)12-9-5-2-6-10-12/h1-10H",
        "InChIKey": null,
        "Canonical SMILES": "O=[Se](O[Se](=O)C=1C=CC=CC1)C=2C=CC=CC2",
        "Molecular Formula": "C<sub>12</sub>H<sub>10</sub>O<sub>3</sub>Se<sub>2</sub>",
        "Molecular Mass": "360.13",
        "Melting Point": "165 °C"
    }
}