{
    "cas_no": "89-33-8",
    "key_name": "1-Phenyl-3-carbethoxy-5-pyrazolone",
    "cn_name": "1-苯基-5-吡唑啉酮-3-甲酸乙酯;4,5-二氢-5-氧代-1-苯基-1H-吡唑-3-羧酸乙酯;",
    "alternate_name": "1<em>H</em>-Pyrazole-3-carboxylic acid, 4,5-dihydro-5-oxo-1-phenyl-, ethyl ester;2-Pyrazoline-3-carboxylic acid, 5-oxo-1-phenyl-, ethyl ester;Ethyl-1-phenyl-5-pyrazolone-3-carboxylate;1-Phenyl-3-ethoxycarbonyle-5-pyrazolone;Ethyl 5-oxo-1-phenyl-2-pyrazoline-3-carboxylate;1-Phenyl-3-carbethoxy-5-pyrazolone;1-Phenyl-3-carbethoxypyrazolone;3-Carbethoxy-1-phenyl-5-pyrazolone;Ethyl 4,5-dihydro-5-oxo-1-phenyl-1<em>H</em>-pyrazole-3-carboxylate;3-(Ethoxycarbonyl)-1-phenyl-5-pyrazolone;NSC 49150;NSC 57876;Ethyl 1-phenyl-2-pyrazolin-5-one-3-carboxylate;3-Carboxyethyl-1-phenylpyrazolone;2,4-Dihydro-2-phenyl-5-ethoxycarbonyl-3<em>H</em>-pyrazol-3-one",
    "duplicated_cas_no": "",
    "SMILES": "O=C1N(N=C(C(OCC)=O)C1)C2=CC=CC=C2",
    "meta_data": {
        "InChI": "InChI=1S/C12H12N2O3/c1-2-17-12(16)10-8-11(15)14(13-10)9-6-4-3-5-7-9/h3-7H,2,8H2,1H3",
        "InChIKey": null,
        "Canonical SMILES": "O=C(OCC)C1=NN(C=2C=CC=CC2)C(=O)C1",
        "Molecular Formula": "C<sub>12</sub>H<sub>12</sub>N<sub>2</sub>O<sub>3</sub>",
        "Molecular Mass": "232.24",
        "Melting Point": "181.5-182.5 °C"
    }
}