{
    "cas_no": "555-16-8",
    "key_name": "4-Nitrobenzaldehyde",
    "cn_name": "对硝基苯甲醛;4-硝基苯甲醛;",
    "alternate_name": "Benzaldehyde, 4-nitro-;Benzaldehyde, <em>p</em>-nitro-;4-Nitrobenzaldehyde;<em>p</em>-Nitrobenzaldehyde;<em>p</em>-Formylnitrobenzene;4-Formylnitrobenzene;NSC 6103;4-Nitrobenzenecarboxaldehyde",
    "duplicated_cas_no": "",
    "SMILES": "N(=O)(=O)C1=CC=C(C=O)C=C1",
    "meta_data": {
        "InChI": "InChI=1S/C7H5NO3/c9-5-6-1-3-7(4-2-6)8(10)11/h1-5H",
        "InChIKey": null,
        "Canonical SMILES": "O=CC1=CC=C(C=C1)N(=O)=O",
        "Molecular Formula": "C<sub>7</sub>H<sub>5</sub>NO<sub>3</sub>",
        "Molecular Mass": "151.12",
        "Boiling Point": "50 °C @ Press: 0.2 Torr",
        "Melting Point": "107 °C"
    }
}