{
    "cas_no": "59743-88-3",
    "key_name": "10-Methoxy-4-(1-methyl-4-piperidinyl)-4<em>H</em>-benzo[4,5]cyclohepta[1,2-<em>b</em>]thiophene-4-ol",
    "cn_name": null,
    "alternate_name": "4<em>H</em>-Benzo[4,5]cyclohepta[1,2-<em>b</em>]thiophene-4-ol, 10-methoxy-4-(1-methyl-4-piperidinyl)-;4<em>H</em>-Benzo[4,5]cyclohepta[1,2]thiophene-4-ol, 10-methoxy-4-(1-methyl-4-piperidinyl)-;10-Methoxy-4-(1-methyl-4-piperidinyl)-4<em>H</em>-benzo[4,5]cyclohepta[1,2-<em>b</em>]thiophene-4-ol;10-Methoxy-4-(1-methylpiperidin-4-yl)-4<em>H</em>-benzo[4,5]cyclohepta[1,2-<em>b</em>]thiophen-4-ol",
    "duplicated_cas_no": "126939-21-7;43076-77-3",
    "SMILES": "OC1(C2=C(C(OC)=CC=3C1=CC=CC3)SC=C2)C4CCN(C)CC4",
    "meta_data": {
        "InChI": "InChI=1S/C20H23NO2S/c1-21-10-7-15(8-11-21)20(22)16-6-4-3-5-14(16)13-18(23-2)19-17(20)9-12-24-19/h3-6,9,12-13,15,22H,7-8,10-11H2,1-2H3",
        "InChIKey": null,
        "Canonical SMILES": "OC1(C=2C=CC=CC2C=C(OC)C=3SC=CC31)C4CCN(C)CC4",
        "Molecular Formula": "C<sub>20</sub>H<sub>23</sub>NO<sub>2</sub>S",
        "Molecular Mass": "341.47",
        "Melting Point": "194-196 °C"
    }
}