{
    "cas_no": "24830-94-2",
    "key_name": "<span class=\"text-smallcaps\">D</span>-Allothreonine",
    "cn_name": "D-别苏氨酸;(2R,3R)-2-氨基-3-羟基丁酸;",
    "alternate_name": "<span class=\"text-smallcaps\">D</span>-Allothreonine;Allothreonine, <span class=\"text-smallcaps\">D</span>-;<span class=\"text-smallcaps\">D</span>-<em>allo</em>-Threonine;(<em>R</em>)-Allothreonine;(<em>R</em>)-<em>allo</em>-Threonine;(2<em>R</em>,3<em>R</em>)-Allothreonine;NSC 206267;(2<em>R</em>,3<em>R</em>)-3-Hydroxy-2-aminobutanoic acid;(2R,3R)-2-Amino-3-hydroxybutanoic acid",
    "duplicated_cas_no": "",
    "SMILES": "[C@@H]([C@@H](C)O)(C(O)=O)N",
    "meta_data": {
        "InChI": "InChI=1S/C4H9NO3/c1-2(6)3(5)4(7)8/h2-3,6H,5H2,1H3,(H,7,8)/t2-,3-/m1/s1",
        "InChIKey": null,
        "Canonical SMILES": "O=C(O)C(N)C(O)C",
        "Molecular Formula": "C<sub>4</sub>H<sub>9</sub>NO<sub>3</sub>",
        "Molecular Mass": "119.12",
        "Melting Point": "272-272.5 °C (decomp)"
    }
}