{
    "cas_no": "28034-99-3",
    "key_name": "4′-Chloro-4-biphenylol",
    "cn_name": "4-氯联苯基-4-醇;",
    "alternate_name": "[1,1′-Biphenyl]-4-ol, 4′-chloro-;4-Biphenylol, 4′-chloro-;Phenol, <em>p</em>-(<em>p</em>-chlorophenyl)-;4′-Chloro[1,1′-biphenyl]-4-ol;<em>p</em>-Chloro-<em>p</em>′-hydroxybiphenyl;4-(4-Chlorophenyl)phenol;4-Chloro-4′-hydroxybiphenyl;4′-Chloro-4-biphenylol;4′-Hydroxy-4-chlorobiphenyl;4-Hydroxy-4′-chlorobiphenyl;4-(4′-Chlorophenyl)phenol;4-Chloro-4′-biphenylol",
    "duplicated_cas_no": "",
    "SMILES": "ClC1=CC=C(C=C1)C2=CC=C(O)C=C2",
    "meta_data": {
        "InChI": "InChI=1S/C12H9ClO/c13-11-5-1-9(2-6-11)10-3-7-12(14)8-4-10/h1-8,14H",
        "InChIKey": null,
        "Canonical SMILES": "ClC=1C=CC(=CC1)C2=CC=C(O)C=C2",
        "Molecular Formula": "C<sub>12</sub>H<sub>9</sub>ClO",
        "Molecular Mass": "204.65",
        "Melting Point": "146-147 °C"
    }
}