{
    "cas_no": "13991-37-2",
    "key_name": "<em>trans</em>-2-Pentenoic acid",
    "cn_name": null,
    "alternate_name": "2-Pentenoic acid, (2<em>E</em>)-;2-Pentenoic acid, (<em>E</em>)-;(2<em>E</em>)-2-Pentenoic acid;<em>trans</em>-2-Pentenoic acid;(<em>E</em>)-2-Pentenoic acid;(E)-Pent-2-enoic acid;(2E)-Pent-2-enoic acid",
    "duplicated_cas_no": "",
    "SMILES": "C(\\C(O)=O)=C/CC",
    "meta_data": {
        "InChI": "InChI=1S/C5H8O2/c1-2-3-4-5(6)7/h3-4H,2H2,1H3,(H,6,7)/b4-3+",
        "InChIKey": null,
        "Canonical SMILES": "O=C(O)C=CCC",
        "Molecular Formula": "C<sub>5</sub>H<sub>8</sub>O<sub>2</sub>",
        "Molecular Mass": "100.12",
        "Boiling Point": "174-175 °C"
    }
}