{
    "cas_no": "75626-17-4",
    "key_name": "1,4-Difluoro-2-methoxybenzene",
    "cn_name": "2,5-二氟苯甲醚;",
    "alternate_name": "Benzene, 1,4-difluoro-2-methoxy-;1,4-Difluoro-2-methoxybenzene;2,5-Difluoroanisole;2,5-Difluoroanisol",
    "duplicated_cas_no": "",
    "SMILES": "O(C)C1=C(F)C=CC(F)=C1",
    "meta_data": {
        "InChI": "InChI=1S/C7H6F2O/c1-10-7-4-5(8)2-3-6(7)9/h2-4H,1H3",
        "InChIKey": null,
        "Canonical SMILES": "FC1=CC=C(F)C(OC)=C1",
        "Molecular Formula": "C<sub>7</sub>H<sub>6</sub>F<sub>2</sub>O",
        "Molecular Mass": "144.12",
        "Boiling Point": "72-73 °C @ Press: 25 Torr",
        "Melting Point": "59-60 °C"
    }
}