{
    "cas_no": "124858-35-1",
    "key_name": "Nadifloxacin",
    "cn_name": "那氟沙星;(+/-)-9-氟-6,7-二氢-8-(4-羟基-1-哌啶)-5-甲基-1-氧代-1H,5H-苯并喹嗪-2-甲酸;",
    "alternate_name": "1<em>H</em>,5<em>H</em>-Benzo[<em>ij</em>]quinolizine-2-carboxylic acid, 9-fluoro-6,7-dihydro-8-(4-hydroxy-1-piperidinyl)-5-methyl-1-oxo-;1<em>H</em>,5<em>H</em>-Benzo[<em>ij</em>]quinolizine-2-carboxylic acid, 9-fluoro-6,7-dihydro-8-(4-hydroxy-1-piperidinyl)-5-methyl-1-oxo-, (±)-;9-Fluoro-6,7-dihydro-8-(4-hydroxy-1-piperidinyl)-5-methyl-1-oxo-1<em>H</em>,5<em>H</em>-benzo[<em>ij</em>]quinolizine-2-carboxylic acid;OPC 7251;Nadifloxacin;Jinofloxacin;Nadixa;9-Fluoro-8-(4-hydroxypiperidin-1-yl)-5-methyl-1-oxo-6,7-dihydro-1<em>H</em>,5<em>H</em>-pyrido[3,2,1-<em>ij</em>]quinoline-2-carboxylic acid;Nadibact",
    "duplicated_cas_no": "81962-84-7",
    "SMILES": "O=C1C=2C3=C(C(=C(F)C2)N4CCC(O)CC4)CCC(C)N3C=C1C(O)=O",
    "meta_data": {
        "InChI": "InChI=1S/C19H21FN2O4/c1-10-2-3-12-16-13(18(24)14(19(25)26)9-22(10)16)8-15(20)17(12)21-6-4-11(23)5-7-21/h8-11,23H,2-7H2,1H3,(H,25,26)",
        "InChIKey": null,
        "Canonical SMILES": "O=C(O)C1=CN2C=3C(=CC(F)=C(C3CCC2C)N4CCC(O)CC4)C1=O",
        "Molecular Formula": "C<sub>19</sub>H<sub>21</sub>FN<sub>2</sub>O<sub>4</sub>",
        "Molecular Mass": "360.38",
        "Melting Point": "245-247 °C (decomp)"
    }
}