{
    "cas_no": "452-62-0",
    "key_name": "2-Bromo-1-fluoro-4-methylbenzene",
    "cn_name": "3-溴-4-氟甲苯;",
    "alternate_name": "Benzene, 2-bromo-1-fluoro-4-methyl-;Toluene, 3-bromo-4-fluoro-;2-Bromo-1-fluoro-4-methylbenzene;3-Bromo-4-fluorotoluene;2-Fluoro-5-methyl-1-bromobenzene;2-Fluoro-5-methylbromobenzene;NSC 88313;1-Bromo-2-fluoro-5-methylbenzene;5-Methyl-2-fluorobromobenzene",
    "duplicated_cas_no": "",
    "SMILES": "BrC1=C(F)C=CC(C)=C1",
    "meta_data": {
        "InChI": "InChI=1S/C7H6BrF/c1-5-2-3-7(9)6(8)4-5/h2-4H,1H3",
        "InChIKey": null,
        "Canonical SMILES": "FC1=CC=C(C=C1Br)C",
        "Molecular Formula": "C<sub>7</sub>H<sub>6</sub>BrF",
        "Molecular Mass": "189.02",
        "Boiling Point": "174-177 °C @ Press: 757 Torr"
    }
}