{
    "cas_no": "2274-42-2",
    "key_name": "(Methylsulfonyl)acetonitrile",
    "cn_name": "甲磺酰乙腈;",
    "alternate_name": "Acetonitrile, 2-(methylsulfonyl)-;Acetonitrile, (methylsulfonyl)-;2-(Methylsulfonyl)acetonitrile;(Methylsulfonyl)acetonitrile;Methanesulfonylacetonitrile;NSC 207832;2-Methanesulfonylacetonitrile",
    "duplicated_cas_no": "",
    "SMILES": "C(S(C)(=O)=O)C#N",
    "meta_data": {
        "InChI": "InChI=1S/C3H5NO2S/c1-7(5,6)3-2-4/h3H2,1H3",
        "InChIKey": null,
        "Canonical SMILES": "N#CCS(=O)(=O)C",
        "Molecular Formula": "C<sub>3</sub>H<sub>5</sub>NO<sub>2</sub>S",
        "Molecular Mass": "119.14",
        "Melting Point": "83.5-84.5 °C"
    }
}