{
    "cas_no": "2675-94-7",
    "key_name": "<em>N</em>,<em>N</em>-Diethylacrylamide",
    "cn_name": "N,N-二乙基-2-丙烯酰胺;",
    "alternate_name": "2-Propenamide, <em>N</em>,<em>N</em>-diethyl-;Acrylamide, <em>N</em>,<em>N</em>-diethyl-;<em>N</em>,<em>N</em>-Diethyl-2-propenamide;<em>N</em>,<em>N</em>-Diethylacrylamide;Acrylic acid diethylamide;NSC 20951;DEAA;3-(<em>N</em>,<em>N</em>-Diethyl)-1-acrylamide;Kohshylmer DEAA",
    "duplicated_cas_no": "44903-67-5;320727-39-7",
    "SMILES": "N(C(C=C)=O)(CC)CC",
    "meta_data": {
        "InChI": "InChI=1S/C7H13NO/c1-4-7(9)8(5-2)6-3/h4H,1,5-6H2,2-3H3",
        "InChIKey": null,
        "Canonical SMILES": "O=C(C=C)N(CC)CC",
        "Molecular Formula": "C<sub>7</sub>H<sub>13</sub>NO",
        "Molecular Mass": "127.18",
        "Boiling Point": "101-107 °C",
        "Density": "0.9256 g/cm³ @ Temp: 20 °C"
    }
}