{
    "cas_no": "106-93-4",
    "key_name": "1,2-Dibromoethane",
    "cn_name": "1,2-二溴乙烷;",
    "alternate_name": "Ethane, 1,2-dibromo-;1,2-Dibromoethane;Bromofume;<em>sym</em>-Dibromoethane;α,β-Dibromoethane;Dowfume W 8;Glycol dibromide;Iscobrome D;Soilfume;Aadibroom;Dowfume W 85;Nefis;Sanhyuum;Ethylene dibromide;Ethylene bromide;EDB;Soilbrom;α,ω-Dibromoethane;Edabrom;MeSH ID: D015946",
    "duplicated_cas_no": "8003-07-4;56729-21-6;625084-37-9",
    "SMILES": "C(CBr)Br",
    "meta_data": {
        "InChI": "InChI=1S/C2H4Br2/c3-1-2-4/h1-2H2",
        "InChIKey": null,
        "Canonical SMILES": "BrCCBr",
        "Molecular Formula": "C<sub>2</sub>H<sub>4</sub>Br<sub>2</sub>",
        "Molecular Mass": "187.86",
        "Boiling Point": "131-132 °C",
        "Melting Point": "9.97 °C",
        "Density": "2.2 g/cm³"
    }
}