{
    "cas_no": "89972-76-9",
    "key_name": "4′-(4-Bromophenyl)-2,2′:6′,2′′-terpyridine",
    "cn_name": "4-(4-溴苯基)-2,2:6,2-三联吡啶;",
    "alternate_name": "2,2′:6′,2′′-Terpyridine, 4′-(4-bromophenyl)-;4′-(4-Bromophenyl)-2,2′:6′,2′′-terpyridine;4′-<em>p</em>-Bromophenyl-2,2′:6′,2′′-terpyridine;4′-(4-Bromphenyl)-2,2′:6′,2′′-terpyridine;4-(4-Bromophenyl)-2,2′:6,2′′-terpyridine",
    "duplicated_cas_no": "",
    "SMILES": "BrC1=CC=C(C=2C=C(N=C(C2)C3=CC=CC=N3)C4=CC=CC=N4)C=C1",
    "meta_data": {
        "InChI": "InChI=1S/C21H14BrN3/c22-17-9-7-15(8-10-17)16-13-20(18-5-1-3-11-23-18)25-21(14-16)19-6-2-4-12-24-19/h1-14H",
        "InChIKey": null,
        "Canonical SMILES": "BrC1=CC=C(C=C1)C2=CC(=NC(=C2)C3=NC=CC=C3)C4=NC=CC=C4",
        "Molecular Formula": "C<sub>21</sub>H<sub>14</sub>BrN<sub>3</sub>",
        "Molecular Mass": "388.26",
        "Melting Point": "154-156 °C"
    }
}