{
    "cas_no": "1572-97-0",
    "key_name": "(<em>S</em>)-1-(4-Methoxyphenyl)ethanol",
    "cn_name": "(S)-(-)-对甲氧基苯乙醇;",
    "alternate_name": "Benzenemethanol, 4-methoxy-α-methyl-, (α<em>S</em>)-;Benzenemethanol, 4-methoxy-α-methyl-, (<em>S</em>)-;(α<em>S</em>)-4-Methoxy-α-methylbenzenemethanol;(<em>S</em>)-1-(4-Methoxyphenyl)ethanol;(<em>S</em>)-1-(<em>p</em>-Methoxyphenyl)ethanol;(<em>S</em>)-4-Methoxy-α-methylbenzyl alcohol;(<em>S</em>)-(-)-1-(<em>p</em>-Methoxyphenyl)ethanol;(-)-1-(<em>p</em>-Methoxyphenyl)ethanol;(1<em>S</em>)-1-(4-Methoxyphenyl)ethanol;(<em>S</em>)-1-(4-Methoxyphenyl)-1-ethanol;(-)-1-(4-Methoxyphenyl)ethanol;(1S)-1-(4-Methoxyphenyl)ethan-1-ol;(1S)-1-(4-Methoxyphenyl)ethanol",
    "duplicated_cas_no": "",
    "SMILES": "[C@@H](C)(O)C1=CC=C(OC)C=C1",
    "meta_data": {
        "InChI": "InChI=1S/C9H12O2/c1-7(10)8-3-5-9(11-2)6-4-8/h3-7,10H,1-2H3/t7-/m0/s1",
        "InChIKey": null,
        "Canonical SMILES": "OC(C1=CC=C(OC)C=C1)C",
        "Molecular Formula": "C<sub>9</sub>H<sub>12</sub>O<sub>2</sub>",
        "Molecular Mass": "152.19",
        "Boiling Point": "94-95 °C @ Press: 0.8 mbar"
    }
}