{
    "cas_no": "78-83-1",
    "key_name": "Isobutanol",
    "cn_name": "异丁醇;2-甲基丙醇;",
    "alternate_name": "1-Propanol, 2-methyl-;Isobutyl alcohol;2-Methyl-1-propanol;Isobutanol;Isopropyl carbinol;2-Methylpropyl alcohol;<em>iso</em>-Butyl alcohol;1-Isobutanol;NSC 5708;1-Methyl-2-propanol;1-Hydroxy-2-methylpropane",
    "duplicated_cas_no": "",
    "SMILES": "C(CO)(C)C",
    "meta_data": {
        "InChI": "InChI=1S/C4H10O/c1-4(2)3-5/h4-5H,3H2,1-2H3",
        "InChIKey": null,
        "Canonical SMILES": "OCC(C)C",
        "Molecular Formula": "C<sub>4</sub>H<sub>10</sub>O",
        "Molecular Mass": "74.12",
        "Boiling Point": "108 °C",
        "Melting Point": "-108 °C",
        "Density": "0.8018 g/cm³ @ Temp: 24 °C"
    }
}