{
    "cas_no": "120077-69-2",
    "key_name": "4-Bromo-3-chlorobenzaldehyde",
    "cn_name": null,
    "alternate_name": "Benzaldehyde, 4-bromo-3-chloro-;4-Bromo-3-chlorobenzaldehyde",
    "duplicated_cas_no": "",
    "SMILES": "C(=O)C1=CC(Cl)=C(Br)C=C1",
    "meta_data": {
        "InChI": "InChI=1S/C7H4BrClO/c8-6-2-1-5(4-10)3-7(6)9/h1-4H",
        "InChIKey": null,
        "Canonical SMILES": "O=CC1=CC=C(Br)C(Cl)=C1",
        "Molecular Formula": "C<sub>7</sub>H<sub>4</sub>BrClO",
        "Molecular Mass": "219.46",
        "Melting Point": "52 °C"
    }
}