{
    "cas_no": "15722-48-2",
    "key_name": "Olsalazine",
    "cn_name": null,
    "alternate_name": "Benzoic acid, 3,3′-(1,2-diazenediyl)bis[6-hydroxy-;C.I. Mordant Yellow 5;Benzoic acid, 3,3′-azobis[6-hydroxy-;Salicylic acid, 5,5′-azodi-;3,3′-(1,2-Diazenediyl)bis[6-hydroxybenzoic acid];3,3′-Dicarboxy-4,4′-dihydroxyazobenzene;3,3′-Azobis(6-hydroxybenzoic acid);5,5′-Azobis(salicylic acid);Azodisal;Olsalazine;5,5′-Azodisalicylic acid",
    "duplicated_cas_no": "",
    "SMILES": "N(=NC1=CC(C(O)=O)=C(O)C=C1)C2=CC(C(O)=O)=C(O)C=C2",
    "meta_data": {
        "InChI": "InChI=1S/C14H10N2O6/c17-11-3-1-7(5-9(11)13(19)20)15-16-8-2-4-12(18)10(6-8)14(21)22/h1-6,17-18H,(H,19,20)(H,21,22)",
        "InChIKey": null,
        "Canonical SMILES": "O=C(O)C1=CC(N=NC2=CC=C(O)C(=C2)C(=O)O)=CC=C1O",
        "Molecular Formula": "C<sub>14</sub>H<sub>10</sub>N<sub>2</sub>O<sub>6</sub>",
        "Molecular Mass": "302.24",
        "Melting Point": "&gt;300 °C"
    }
}