{
    "cas_no": "885272-25-3",
    "key_name": "2,3-Dihydro-5-methoxy-2-oxo-1<em>H</em>-indole-3-acetic acid",
    "cn_name": null,
    "alternate_name": "1<em>H</em>-Indole-3-acetic acid, 2,3-dihydro-5-methoxy-2-oxo-;2,3-Dihydro-5-methoxy-2-oxo-1<em>H</em>-indole-3-acetic acid;2-(5-Methoxy-2-oxoindolin-3-yl)acetic acid;(5-Methoxy-2-oxo-2,3-dihydro-1<em>H</em>-indol-3-yl)-acetic acid;2-(5-Methoxy-2-oxo-2,3-dihydro-1<em>H</em>-indol-3-yl)acetic acid;2-(5-Methoxy-2-oxo-1,3-dihydroindol-3-yl)acetic acid",
    "duplicated_cas_no": "",
    "SMILES": "C(C(O)=O)C1C=2C(NC1=O)=CC=C(OC)C2",
    "meta_data": {
        "InChI": "InChI=1S/C11H11NO4/c1-16-6-2-3-9-7(4-6)8(5-10(13)14)11(15)12-9/h2-4,8H,5H2,1H3,(H,12,15)(H,13,14)",
        "InChIKey": null,
        "Canonical SMILES": "O=C(O)CC1C(=O)NC2=CC=C(OC)C=C21",
        "Molecular Formula": "C<sub>11</sub>H<sub>11</sub>NO<sub>4</sub>",
        "Molecular Mass": "221.21",
        "Melting Point": "193-194 °C"
    }
}