{
    "cas_no": "4042-36-8",
    "key_name": "(+)-Pyroglutamic acid",
    "cn_name": "D-焦谷氨酸;",
    "alternate_name": "<span class=\"text-smallcaps\">D</span>-Proline, 5-oxo-;Proline, 5-oxo-, <span class=\"text-smallcaps\">D</span>-;5-Oxo-<span class=\"text-smallcaps\">D</span>-proline;<span class=\"text-smallcaps\">D</span>-Pyrrolidonecarboxylic acid;<span class=\"text-smallcaps\">D</span>-2-Pyrrolidone-5-carboxylic acid;<span class=\"text-smallcaps\">D</span>-Pyroglutamic acid;<span class=\"text-smallcaps\">D</span>-Pyrrolidinonecarboxylic acid;(<em>R</em>)-2-Pyrrolidone-5-carboxylic acid;(+)-Pyroglutamic acid;(+)-2-Pyrrolidone-5-carboxylic acid;(<em>R</em>)-(+)-2-Pyrrolidone-5-carboxylic acid;(2<em>R</em>)-2-Carboxy-5-pyrrolidinone;(<em>R</em>)-5-Oxopyrrolidine-2-carboxylic acid;(<em>R</em>)-Pyroglutamic acid;(<em>R</em>)-5-Oxoproline;(<em>R</em>)-(+)-5-Oxopyrrolidine-2-carboxylic acid;(+)-<span class=\"text-smallcaps\">D</span>-Pyroglutamic acid;<span class=\"text-smallcaps\">D</span>-Pidolic acid;(R)-(+)-2-Pyrrolidone-5-carboxylic acid;(2R)-5-Oxopyrrolidine-2-carboxylic acid",
    "duplicated_cas_no": "",
    "SMILES": "C(O)(=O)[C@@H]1NC(=O)CC1",
    "meta_data": {
        "InChI": "InChI=1S/C5H7NO3/c7-4-2-1-3(6-4)5(8)9/h3H,1-2H2,(H,6,7)(H,8,9)/t3-/m1/s1",
        "InChIKey": null,
        "Canonical SMILES": "O=C(O)C1NC(=O)CC1",
        "Molecular Formula": "C<sub>5</sub>H<sub>7</sub>NO<sub>3</sub>",
        "Molecular Mass": "129.11",
        "Melting Point": "170-178 °C"
    }
}