{
    "cas_no": "42070-92-8",
    "key_name": "(+)-1-(4-Methylphenyl)ethanol",
    "cn_name": null,
    "alternate_name": "Benzenemethanol, α,4-dimethyl-, (α<em>R</em>)-;Benzenemethanol, α,4-dimethyl-, (<em>R</em>)-;(α<em>R</em>)-α,4-Dimethylbenzenemethanol;(<em>R</em>)-α,<em>p</em>-Methylbenzyl alcohol;(+)-1-(4-Methylphenyl)ethanol;(<em>R</em>)-1-(4-Methylphenyl)ethanol;(<em>R</em>)-1-(4-Tolyl)ethanol;(<em>R</em>)-1-(<em>p</em>-Methylphenyl)ethanol;(+)-1-(<em>p</em>-Methylphenyl)ethanol;(<em>R</em>)-1-(<em>p</em>-Tolyl)ethanol;(R)-4-Methylphenylethan-1-ol;(R)-(+)-1-(4-Methylphenyl)ethanol;(R)-1-(4′-Methylphenyl)ethanol;(R)-1-<em>p</em>-Tolylethanol;(R)-1-(<em>p</em>-Tolyl)ethan-1-ol;(R)-1-(4-Methylphenyl)ethanol;(1R)-1-(4-Methylphenyl)ethan-1-ol",
    "duplicated_cas_no": "1613639-45-4",
    "SMILES": "[C@H](C)(O)C1=CC=C(C)C=C1",
    "meta_data": {
        "InChI": "InChI=1S/C9H12O/c1-7-3-5-9(6-4-7)8(2)10/h3-6,8,10H,1-2H3/t8-/m1/s1",
        "InChIKey": null,
        "Canonical SMILES": "OC(C1=CC=C(C=C1)C)C",
        "Molecular Formula": "C<sub>9</sub>H<sub>12</sub>O",
        "Molecular Mass": "136.19",
        "Boiling Point": "76 °C @ Press: 2.2 Torr"
    }
}