{
    "cas_no": "32111-28-7",
    "key_name": "<em>N</em>-Methyl-2-pyrazinamine",
    "cn_name": null,
    "alternate_name": "2-Pyrazinamine, <em>N</em>-methyl-;Pyrazinamine, <em>N</em>-methyl-;<em>N</em>-Methyl-2-pyrazinamine;2-Methylaminopyrazine",
    "duplicated_cas_no": "",
    "SMILES": "N(C)C=1C=NC=CN1",
    "meta_data": {
        "InChI": "InChI=1S/C5H7N3/c1-6-5-4-7-2-3-8-5/h2-4H,1H3,(H,6,8)",
        "InChIKey": null,
        "Canonical SMILES": "N=1C=CN=C(C1)NC",
        "Molecular Formula": "C<sub>5</sub>H<sub>7</sub>N<sub>3</sub>",
        "Molecular Mass": "109.13",
        "Boiling Point": "76 °C @ Press: 1 Torr",
        "Melting Point": "49-50 °C"
    }
}