{
    "cas_no": "18282-10-5",
    "key_name": "Tin oxide (SnO<sub>2</sub>)",
    "cn_name": null,
    "alternate_name": "Tin oxide (SnO<sub>2</sub>);Stannic oxide;Tin(IV) oxide;Stannic dioxide;C.I. 77861;Stannic oxide (SnO<sub>2</sub>);T 10 (oxide);T 10;Tin dioxide (SnO<sub>2</sub>);Nalco SN 20;SN 38 (oxide);SN 38;T 1186;S 1 (tin compound);S 3976;S 1;Nyacol SN 15;Nanotek Tin Oxide;Nanotek SnO<sub>2</sub>;S 8 (oxide);S 8;SAM 05;P 3001;SAM 05 (catalyst);Nyacol SN 15CG;Nanotek SN;EPS 12A;Tin dioxide;SH-S;SH-S (oxide);S 1S;OV-SN;S 2000;S 2000 (oxide);Tego RL;SH (oxide);SH;Suncolloid HX 305M5;EPS 8;CP 004;EPS 12;CXF 303IP;HIS 30MH;AT-SNNO 200N;Suncolloid HX 405MH;HX 405MH;SnO<sub>2</sub>;QF-Ti 1125P;YC-Sn 20;XF 120;XT-SnO<sub>2</sub> 6;HN-Sn 20",
    "duplicated_cas_no": "1394228-66-0;1446491-57-1;2364456-43-7;2404583-06-6;2763751-99-9;2920969-90-8",
    "SMILES": "[Sn](=O)=O",
    "meta_data": {
        "InChI": "InChI=1S/2O.Sn",
        "InChIKey": null,
        "Canonical SMILES": "O=[Sn]=O",
        "Molecular Formula": "O<sub>2</sub>Sn",
        "Molecular Mass": "150.71",
        "Melting Point": "1630 °C",
        "Density": "6.95 g/cm³"
    }
}