{
    "cas_no": "1005-39-6",
    "key_name": "2-(Methylthio)-4,6-pyrimidinediamine",
    "cn_name": "4,6-二氨基-2-甲巯基嘧啶;",
    "alternate_name": "4,6-Pyrimidinediamine, 2-(methylthio)-;Pyrimidine, 4,6-diamino-2-(methylthio)-;2-(Methylthio)-4,6-pyrimidinediamine;2-Methylthio-4,6-diaminopyrimidine;4,6-Diamino-2-(methylmercapto)pyrimidine;4,6-Diamino-2-(methylthio)pyrimidine;NSC 44919;NSC 60555;2-Methylsulfanyl-pyrimidine-4,6-diamine;2-Methylsulfanylpyrimidine-4,6-diamine;2-(Methylsulfanyl)pyrimidine-4,6-diamine",
    "duplicated_cas_no": "",
    "SMILES": "S(C)C=1N=C(N)C=C(N)N1",
    "meta_data": {
        "InChI": "InChI=1S/C5H8N4S/c1-10-5-8-3(6)2-4(7)9-5/h2H,1H3,(H4,6,7,8,9)",
        "InChIKey": null,
        "Canonical SMILES": "N=1C(=NC(N)=CC1N)SC",
        "Molecular Formula": "C<sub>5</sub>H<sub>8</sub>N<sub>4</sub>S",
        "Molecular Mass": "156.21",
        "Melting Point": "188-189 °C"
    }
}