{
    "cas_no": "100-70-9",
    "key_name": "2-Cyanopyridine",
    "cn_name": "2-氰基吡啶;",
    "alternate_name": "2-Pyridinecarbonitrile;Picolinonitrile;2-Cyanopyridine;Picolinic acid nitrile;2-Pyridinenitrile;2-Pyridyl cyanide;2-Azabenzonitrile;α-Cyanopyridine;2-Pyridylnitrile;NSC 59697;2-Nitrilopyridine",
    "duplicated_cas_no": "",
    "SMILES": "C(#N)C1=CC=CC=N1",
    "meta_data": {
        "InChI": "InChI=1S/C6H4N2/c7-5-6-3-1-2-4-8-6/h1-4H",
        "InChIKey": null,
        "Canonical SMILES": "N#CC1=NC=CC=C1",
        "Molecular Formula": "C<sub>6</sub>H<sub>4</sub>N<sub>2</sub>",
        "Molecular Mass": "104.11",
        "Boiling Point": "224.5 °C",
        "Melting Point": "29 °C",
        "Density": "1.0810 g/cm³ @ Temp: 25 °C"
    }
}