{
    "cas_no": "38469-84-0",
    "key_name": "5-Methoxy-2-nitrobenzonitrile",
    "cn_name": null,
    "alternate_name": "Benzonitrile, 5-methoxy-2-nitro-;5-Methoxy-2-nitrobenzonitrile;NSC 263768",
    "duplicated_cas_no": "",
    "SMILES": "C(#N)C1=C(N(=O)=O)C=CC(OC)=C1",
    "meta_data": {
        "InChI": "InChI=1S/C8H6N2O3/c1-13-7-2-3-8(10(11)12)6(4-7)5-9/h2-4H,1H3",
        "InChIKey": null,
        "Canonical SMILES": "N#CC1=CC(OC)=CC=C1N(=O)=O",
        "Molecular Formula": "C<sub>8</sub>H<sub>6</sub>N<sub>2</sub>O<sub>3</sub>",
        "Molecular Mass": "178.14",
        "Melting Point": "96 °C"
    }
}