{
    "cas_no": "19812-64-7",
    "key_name": "1,14-Tetradecanediol",
    "cn_name": "1,14-十四烷二醇;",
    "alternate_name": "1,14-Tetradecanediol;1,14-Dihydroxytetradecane",
    "duplicated_cas_no": "",
    "SMILES": "C(CCCCCCCO)CCCCCCO",
    "meta_data": {
        "InChI": "InChI=1S/C14H30O2/c15-13-11-9-7-5-3-1-2-4-6-8-10-12-14-16/h15-16H,1-14H2",
        "InChIKey": null,
        "Canonical SMILES": "OCCCCCCCCCCCCCCO",
        "Molecular Formula": "C<sub>14</sub>H<sub>30</sub>O<sub>2</sub>",
        "Molecular Mass": "230.39",
        "Melting Point": "85.8 °C"
    }
}