{
    "cas_no": "42508-74-7",
    "key_name": "4-Methyl-2-pyridinemethanol",
    "cn_name": null,
    "alternate_name": "2-Pyridinemethanol, 4-methyl-;4-Methyl-2-pyridinemethanol;2-(Hydroxymethyl)-4-methylpyridine;2-(Hydroxymethyl)-4-picoline;(4-Methylpyridin-2-yl)methanol",
    "duplicated_cas_no": "",
    "SMILES": "C(O)C1=CC(C)=CC=N1",
    "meta_data": {
        "InChI": "InChI=1S/C7H9NO/c1-6-2-3-8-7(4-6)5-9/h2-4,9H,5H2,1H3",
        "InChIKey": null,
        "Canonical SMILES": "OCC1=NC=CC(=C1)C",
        "Molecular Formula": "C<sub>7</sub>H<sub>9</sub>NO",
        "Molecular Mass": "123.15",
        "Boiling Point": "100-107 °C @ Press: 4 Torr",
        "Melting Point": "96 °C"
    }
}