{
    "cas_no": "460-73-1",
    "key_name": "1,1,1,3,3-Pentafluoropropane",
    "cn_name": "1,1,1,3,3-五氟丙烷;",
    "alternate_name": "Propane, 1,1,1,3,3-pentafluoro-;1,1,1,3,3-Pentafluoropropane;HFC 245fa;Enovate 3000;Genetron 245fa;Enovate 245;Enovate 245fa;1,1,3,3,3-Pentafluoropropane;245fa;R 245fa;HCF 245Fa;Enovate 245F",
    "duplicated_cas_no": "220035-33-6",
    "SMILES": "C(C(F)(F)F)C(F)F",
    "meta_data": {
        "InChI": "InChI=1S/C3H3F5/c4-2(5)1-3(6,7)8/h2H,1H2",
        "InChIKey": null,
        "Canonical SMILES": "FC(F)CC(F)(F)F",
        "Molecular Formula": "C<sub>3</sub>H<sub>3</sub>F<sub>5</sub>",
        "Molecular Mass": "134.05",
        "Boiling Point": "15.3 °C",
        "Density": "0.51729 g/cm³"
    }
}