{
    "cas_no": "7398-82-5",
    "key_name": "1,4-Bis(dichloromethyl)benzene",
    "cn_name": "1,4-双(二氯甲基)苯;",
    "alternate_name": "Benzene, 1,4-bis(dichloromethyl)-;<em>p</em>-Xylene, α,α,α′,α′-tetrachloro-;1,4-Bis(dichloromethyl)benzene;α,α,α′,α′-Tetrachloro-<em>p</em>-xylene;<em>p</em>-(Dichloromethyl)benzal chloride",
    "duplicated_cas_no": "",
    "SMILES": "C(Cl)(Cl)C1=CC=C(C(Cl)Cl)C=C1",
    "meta_data": {
        "InChI": "InChI=1S/C8H6Cl4/c9-7(10)5-1-2-6(4-3-5)8(11)12/h1-4,7-8H",
        "InChIKey": null,
        "Canonical SMILES": "ClC(Cl)C1=CC=C(C=C1)C(Cl)Cl",
        "Molecular Formula": "C<sub>8</sub>H<sub>6</sub>Cl<sub>4</sub>",
        "Molecular Mass": "243.95",
        "Melting Point": "9.5 °C"
    }
}