{
    "cas_no": "563-54-2",
    "key_name": "1-Propene, 1,2-dichloro-",
    "cn_name": null,
    "alternate_name": "1-Propene, 1,2-dichloro-;Propene, 1,2-dichloro-;1,2-Dichloropropylene;1,2-Dichloro-1-propene",
    "duplicated_cas_no": "",
    "SMILES": "C(=CCl)(C)Cl",
    "meta_data": {
        "InChI": "InChI=1S/C3H4Cl2/c1-3(5)2-4/h2H,1H3",
        "InChIKey": null,
        "Canonical SMILES": "ClC=C(Cl)C",
        "Molecular Formula": "C<sub>3</sub>H<sub>4</sub>Cl<sub>2</sub>",
        "Molecular Mass": "110.97",
        "Boiling Point": "75 °C"
    }
}