{
    "cas_no": "180-84-7",
    "key_name": "Olean",
    "cn_name": null,
    "alternate_name": "1,7-Dioxaspiro[5.5]undecane;Olean",
    "duplicated_cas_no": "95273-63-5",
    "SMILES": "C12(CCCCO1)CCCCO2",
    "meta_data": {
        "InChI": "InChI=1S/C9H16O2/c1-3-7-10-9(5-1)6-2-4-8-11-9/h1-8H2",
        "InChIKey": null,
        "Canonical SMILES": "O1CCCCC12OCCCC2",
        "Molecular Formula": "C<sub>9</sub>H<sub>16</sub>O<sub>2</sub>",
        "Molecular Mass": "156.22",
        "Boiling Point": "193 °C @ Press: 750 Torr",
        "Density": "1.0167 g/cm³ @ Temp: 20 °C"
    }
}