{
    "cas_no": "64121-98-8",
    "key_name": "Di-<em>O</em>-methylcrenatin",
    "cn_name": null,
    "alternate_name": "β-<span class=\"text-smallcaps\">D</span>-Glucopyranoside, 4-(hydroxymethyl)-2,6-dimethoxyphenyl;4-(Hydroxymethyl)-2,6-dimethoxyphenyl β-<span class=\"text-smallcaps\">D</span>-glucopyranoside;Di-<em>O</em>-methylcrenatin",
    "duplicated_cas_no": "",
    "SMILES": "O(C1=C(OC)C=C(CO)C=C1OC)[C@@H]2O[C@H](CO)[C@@H](O)[C@H](O)[C@H]2O",
    "meta_data": {
        "InChI": "InChI=1S/C15H22O9/c1-21-8-3-7(5-16)4-9(22-2)14(8)24-15-13(20)12(19)11(18)10(6-17)23-15/h3-4,10-13,15-20H,5-6H2,1-2H3/t10-,11-,12+,13-,15+/m1/s1",
        "InChIKey": null,
        "Canonical SMILES": "OCC1=CC(OC)=C(OC2OC(CO)C(O)C(O)C2O)C(OC)=C1",
        "Molecular Formula": "C<sub>15</sub>H<sub>22</sub>O<sub>9</sub>",
        "Molecular Mass": "346.33",
        "Melting Point": "175-177 °C"
    }
}