{
    "cas_no": "125494-59-9",
    "key_name": "Sibutramine hydrochloride monohydrate",
    "cn_name": "盐酸西布曲明;N-{1-[1-(4-氯苯基)环丁基]-3-甲基丁基}-N,N\"-二甲胺一水合盐酸盐;",
    "alternate_name": "Cyclobutanemethanamine, 1-(4-chlorophenyl)-<em>N</em>,<em>N</em>-dimethyl-α-(2-methylpropyl)-, hydrochloride, hydrate (1:1:1);Cyclobutanemethanamine, 1-(4-chlorophenyl)-<em>N</em>,<em>N</em>-dimethyl-α-(2-methylpropyl)-, hydrochloride, monohydrate;Sibutramine hydrochloride monohydrate;1-(1-(4-Chlorophenyl)cyclobutyl)-<em>N</em>,<em>N</em>,3-trimethylbutan-1-amine hydrochloride hydrate",
    "duplicated_cas_no": "",
    "SMILES": "C(CC(C)C)(N(C)C)C1(CCC1)C2=CC=C(Cl)C=C2.Cl.O",
    "meta_data": {
        "InChI": "InChI=1S/C17H26ClN.ClH.H2O/c1-13(2)12-16(19(3)4)17(10-5-11-17)14-6-8-15(18)9-7-14;;/h6-9,13,16H,5,10-12H2,1-4H3;1H;1H2",
        "InChIKey": null,
        "Canonical SMILES": "Cl.ClC1=CC=C(C=C1)C2(CCC2)C(N(C)C)CC(C)C.O",
        "Molecular Formula": "C<sub>17</sub>H<sub>26</sub>ClN.ClH.H<sub>2</sub>O",
        "Molecular Mass": "",
        "Melting Point": "193-195.5 °C"
    }
}