{
    "cas_no": "54198-71-9",
    "key_name": "Ethanimidamide, 2-hydroxy-, hydrochloride (1:1)",
    "cn_name": "2-羟基乙脒盐酸盐;2-羟基乙脒盐酸盐;",
    "alternate_name": "Ethanimidamide, 2-hydroxy-, hydrochloride (1:1);Ethanimidamide, 2-hydroxy-, monohydrochloride;Glycolamidine, hydrochloride;2-Hydroxyacetamidine hydrochloride;Hydroxyacetamidine hydrochloride;2-Hydroxyacetimidamide hydrochloride",
    "duplicated_cas_no": "",
    "SMILES": "C(CO)(=N)N.Cl",
    "meta_data": {
        "InChI": "InChI=1S/C2H6N2O.ClH/c3-2(4)1-5;/h5H,1H2,(H3,3,4);1H",
        "InChIKey": null,
        "Canonical SMILES": "Cl.N=C(N)CO",
        "Molecular Formula": "C<sub>2</sub>H<sub>6</sub>N<sub>2</sub>O.ClH",
        "Molecular Mass": "",
        "Melting Point": "150-151 °C"
    }
}