{
    "cas_no": "1222-05-5",
    "key_name": "Galaxolide",
    "cn_name": "佳乐麝香;1,3,4,6,7,8-六氢-4,6,6,7,8,8-六甲基-环戊并[G]-2-苯并吡喃;",
    "alternate_name": "Cyclopenta[<em>g</em>]-2-benzopyran, 1,3,4,6,7,8-hexahydro-4,6,6,7,8,8-hexamethyl-;1,3,4,6,7,8-Hexahydro-4,6,6,7,8,8-hexamethylcyclopenta[<em>g</em>]-2-benzopyran;Galaxolide;Galaxolide 50;Pearlide;Abbalide;HHCB;Galaxolide 50BB;Galaxolide 50IPM;Galaxolide White;1,3,4,6,7,8-Hexahydro-4,6,6,7,8,8-hexamethylcyclopenta[<em>g</em>]-2-benzopyrane;1,3,4,6,7,8-Hexahydro-4,6,6,8,8,8-hexamethylcyclopenta-2-benzopyran;4,6,6,7,8,8-Hexamethyl-1,3,4,6,7,8-hexahydrocyclopenta[<em>g</em>]isochromene;Hexamethylindanopyran;Galaxolide S",
    "duplicated_cas_no": "80450-66-4",
    "SMILES": "CC1(C)C=2C(=CC3=C(C2)COCC3C)C(C)(C)C1C",
    "meta_data": {
        "InChI": "InChI=1S/C18H26O/c1-11-9-19-10-13-7-15-16(8-14(11)13)18(5,6)12(2)17(15,3)4/h7-8,11-12H,9-10H2,1-6H3",
        "InChIKey": null,
        "Canonical SMILES": "O1CC=2C=C3C(=CC2C(C)C1)C(C)(C)C(C)C3(C)C",
        "Molecular Formula": "C<sub>18</sub>H<sub>26</sub>O",
        "Molecular Mass": "258.40",
        "Boiling Point": "129 °C @ Press: 0.8 Torr"
    }
}