{
    "cas_no": "22841-92-5",
    "key_name": "3-Chloro-2-hydrazinylpyridine",
    "cn_name": null,
    "alternate_name": "Pyridine, 3-chloro-2-hydrazinyl-;Pyridine, 3-chloro-2-hydrazino-;2(1<em>H</em>)-Pyridinone, 3-chloro-, hydrazone;3-Chloro-2-hydrazinylpyridine;3-Chloro-2-hydrazinopyridine;2-Hydrazino-3-chloropyridine;3-Chloro-2(1<em>H</em>)-pyridinone hydrazone;(3-Chloropyridin-2-yl)hydrazine;[3-Chloro-2-pyridyl]-1-hydrazine;3-Chloro-2-hydrazylpyridine;1-(3-Chloropyridin-2-yl)hydrazine;(3-Chloro-2-pyridyl)hydrazine",
    "duplicated_cas_no": "",
    "SMILES": "N(N)=C1C(Cl)=CC=CN1",
    "meta_data": {
        "InChI": "InChI=1S/C5H6ClN3/c6-4-2-1-3-8-5(4)9-7/h1-3H,7H2,(H,8,9)",
        "InChIKey": null,
        "Canonical SMILES": "ClC1=CC=CNC1=NN",
        "Molecular Formula": "C<sub>5</sub>H<sub>6</sub>ClN<sub>3</sub>",
        "Molecular Mass": "143.57",
        "Melting Point": "163-164 °C"
    }
}