{
    "cas_no": "3449-63-6",
    "key_name": "3-(4-Fluorophenyl)pentanedioic acid",
    "cn_name": null,
    "alternate_name": "Pentanedioic acid, 3-(4-fluorophenyl)-;Glutaric acid, 3-(<em>p</em>-fluorophenyl)-;3-(4-Fluorophenyl)pentanedioic acid;3-(4-Fluorophenyl)glutaric acid;NSC 128774",
    "duplicated_cas_no": "",
    "SMILES": "C(CC(O)=O)(CC(O)=O)C1=CC=C(F)C=C1",
    "meta_data": {
        "InChI": "InChI=1S/C11H11FO4/c12-9-3-1-7(2-4-9)8(5-10(13)14)6-11(15)16/h1-4,8H,5-6H2,(H,13,14)(H,15,16)",
        "InChIKey": null,
        "Canonical SMILES": "O=C(O)CC(C1=CC=C(F)C=C1)CC(=O)O",
        "Molecular Formula": "C<sub>11</sub>H<sub>11</sub>FO<sub>4</sub>",
        "Molecular Mass": "226.20",
        "Melting Point": "144-147 °C"
    }
}