{
    "cas_no": "922-66-7",
    "key_name": "Bromo(1-methylpropyl)magnesium",
    "cn_name": "仲丁基溴化镁;溴化丁基鎂;",
    "alternate_name": "Magnesium, bromo(1-methylpropyl)-;Magnesium, bromo-<em>sec</em>-butyl-;<em>sec</em>-Butylmagnesium bromide;Bromo(1-methylpropyl)magnesium;Bromo-<em>sec</em>-butylmagnesium;1-Methylpropylmagnesium bromide;2-Butylmagnesium bromide",
    "duplicated_cas_no": "137588-30-8;41745-01-1;146398-19-8",
    "SMILES": "C(CC)([Mg]Br)C",
    "meta_data": {
        "InChI": "InChI=1S/C4H9.BrH.Mg/c1-3-4-2;;/h3H,4H2,1-2H3;1H;/q;;+1/p-1",
        "InChIKey": null,
        "Canonical SMILES": "Br[Mg]C(C)CC",
        "Molecular Formula": "C<sub>4</sub>H<sub>9</sub>BrMg",
        "Molecular Mass": "",
        "Boiling Point": "122-124 °C @ Press: 0.2 Torr",
        "Melting Point": "64.5-65 °C"
    }
}