{
    "cas_no": "1190-22-3",
    "key_name": "1,3-Dichlorobutane",
    "cn_name": "1,3-二氯丁烷;",
    "alternate_name": "Butane, 1,3-dichloro-;1,3-Dichlorobutane",
    "duplicated_cas_no": "",
    "SMILES": "C(C(C)Cl)CCl",
    "meta_data": {
        "InChI": "InChI=1S/C4H8Cl2/c1-4(6)2-3-5/h4H,2-3H2,1H3",
        "InChIKey": null,
        "Canonical SMILES": "ClCCC(Cl)C",
        "Molecular Formula": "C<sub>4</sub>H<sub>8</sub>Cl<sub>2</sub>",
        "Molecular Mass": "127.01",
        "Boiling Point": "134 °C",
        "Density": "1.1158 g/cm³ @ Temp: 20 °C"
    }
}