{
    "cas_no": "5142-23-4",
    "key_name": "3-Methyladenine",
    "cn_name": "3-甲基腺嘌呤;6-氨基-3-甲基嘌呤;",
    "alternate_name": "3<em>H</em>-Purin-6-amine, 3-methyl-;Adenine, 3-methyl-;3-Methyl-3<em>H</em>-purin-6-amine;3-Methyladenine;<em>N</em><sup>3</sup>-Methyladenine;6-Amino-3-methylpurine;3-Methyl-6-aminopurine;NSC 66389;3-Methyl-3<em>H</em>-purin-6-ylamine;3-Methylpurin-6-amine",
    "duplicated_cas_no": "",
    "SMILES": "NC1=C2C(N(C)C=N1)=NC=N2",
    "meta_data": {
        "InChI": "InChI=1S/C6H7N5/c1-11-3-10-5(7)4-6(11)9-2-8-4/h2-3H,7H2,1H3",
        "InChIKey": null,
        "Canonical SMILES": "N1=CN=C2C1=C(N=CN2C)N",
        "Molecular Formula": "C<sub>6</sub>H<sub>7</sub>N<sub>5</sub>",
        "Molecular Mass": "149.15",
        "Melting Point": "300 °C"
    }
}