{
    "cas_no": "7790-38-7",
    "key_name": "Palladium diiodide",
    "cn_name": "碘化钯(II);碘化钯;碘化亚钯;二碘化钯;碘化钯(II);",
    "alternate_name": "Palladium iodide (PdI<sub>2</sub>);Palladous iodide;Palladium diiodide;Palladium iodide;Palladium(II) iodide",
    "duplicated_cas_no": "",
    "SMILES": "[Pd](I)I",
    "meta_data": {
        "InChI": "InChI=1S/2HI.Pd/h2*1H;/q;;+2/p-2",
        "InChIKey": null,
        "Canonical SMILES": "I[Pd]I",
        "Molecular Formula": "I<sub>2</sub>Pd",
        "Molecular Mass": "",
        "Melting Point": "810 °C (decomp)",
        "Density": "6.06 g/cm³"
    }
}