{
    "cas_no": "110-60-1",
    "key_name": "Putrescine",
    "cn_name": null,
    "alternate_name": "1,4-Butanediamine;Tetramethylenediamine;1,4-Diaminobutane;Putrescine;Putrescin;1,4-Butylenediamine;1,4-Tetramethylenediamine;1,4-Diamino-<em>n</em>-butane;α,ω-Butanediamine;NSC 60545;Putramine;Putrascine;MeSH ID: D011700",
    "duplicated_cas_no": "",
    "SMILES": "C(CCN)CN",
    "meta_data": {
        "InChI": "InChI=1S/C4H12N2/c5-3-1-2-4-6/h1-6H2",
        "InChIKey": null,
        "Canonical SMILES": "NCCCCN",
        "Molecular Formula": "C<sub>4</sub>H<sub>12</sub>N<sub>2</sub>",
        "Molecular Mass": "88.15",
        "Boiling Point": "158.5 °C",
        "Melting Point": "27.5 °C",
        "Density": "1.00039 g/cm³ @ Temp: 45 °C"
    }
}