{
    "cas_no": "10242-08-7",
    "key_name": "5-Methoxybenzofuran-2-carboxylic acid",
    "cn_name": "5-甲氧基苯并呋喃-2-甲酸;",
    "alternate_name": "2-Benzofurancarboxylic acid, 5-methoxy-;Coumarilic acid, 5-methoxy-;5-Methoxy-2-benzofurancarboxylic acid;5-Methoxycoumarilic acid;5-Methoxybenzofuran-2-carboxylic acid;NSC 149912;5-Methoxybenzo[<em>b</em>]furan-2-carboxylic acid",
    "duplicated_cas_no": "",
    "SMILES": "C(O)(=O)C1=CC=2C(O1)=CC=C(OC)C2",
    "meta_data": {
        "InChI": "InChI=1S/C10H8O4/c1-13-7-2-3-8-6(4-7)5-9(14-8)10(11)12/h2-5H,1H3,(H,11,12)",
        "InChIKey": null,
        "Canonical SMILES": "O=C(O)C=1OC=2C=CC(OC)=CC2C1",
        "Molecular Formula": "C<sub>10</sub>H<sub>8</sub>O<sub>4</sub>",
        "Molecular Mass": "192.17",
        "Melting Point": "212-213 °C"
    }
}