{
    "cas_no": "14667-55-1",
    "key_name": "Trimethylpyrazine",
    "cn_name": "2,3,5-三甲基吡嗪;",
    "alternate_name": "Pyrazine, 2,3,5-trimethyl-;Pyrazine, trimethyl-;2,3,5-Trimethylpyrazine;Trimethylpyrazine;2,3,6-Trimethylpyrazine",
    "duplicated_cas_no": "124765-77-1",
    "SMILES": "CC=1C(C)=NC=C(C)N1",
    "meta_data": {
        "InChI": "InChI=1S/C7H10N2/c1-5-4-8-6(2)7(3)9-5/h4H,1-3H3",
        "InChIKey": null,
        "Canonical SMILES": "N=1C=C(N=C(C1C)C)C",
        "Molecular Formula": "C<sub>7</sub>H<sub>10</sub>N<sub>2</sub>",
        "Molecular Mass": "122.17",
        "Boiling Point": "171.5 °C",
        "Melting Point": "156 °C"
    }
}