{
    "cas_no": "394-47-8",
    "key_name": "2-Fluorobenzonitrile",
    "cn_name": "邻氟苯腈;2-氟苯腈;",
    "alternate_name": "Benzonitrile, 2-fluoro-;Benzonitrile, <em>o</em>-fluoro-;2-Fluorobenzonitrile;<em>o</em>-Fluorobenzonitrile;<em>o</em>-Cyanofluorobenzene;2-Cyanofluorobenzene;2-Fluorocyanobenzene;NSC 88278;2-Fluorobenzenenitrile",
    "duplicated_cas_no": "",
    "SMILES": "C(#N)C1=C(F)C=CC=C1",
    "meta_data": {
        "InChI": "InChI=1S/C7H4FN/c8-7-4-2-1-3-6(7)5-9/h1-4H",
        "InChIKey": null,
        "Canonical SMILES": "N#CC=1C=CC=CC1F",
        "Molecular Formula": "C<sub>7</sub>H<sub>4</sub>FN",
        "Molecular Mass": "121.11",
        "Boiling Point": "90 °C @ Press: 21 Torr",
        "Melting Point": "-13.7 °C"
    }
}