{
    "cas_no": "301-13-3",
    "key_name": "Tris(2-ethylhexyl) phosphite",
    "cn_name": "三(2-乙基己基)亚磷酸盐;磷酸三辛酯;",
    "alternate_name": "Phosphorous acid, tris(2-ethylhexyl) ester;1-Hexanol, 2-ethyl-, phosphite (3:1);1-Hexanol, 2-ethyl-, phosphite;Tris(2-ethylhexyl) phosphite;JP 308;NSC 3233;JP 308E;TIOP",
    "duplicated_cas_no": "",
    "SMILES": "P(OCC(CCCC)CC)(OCC(CCCC)CC)OCC(CCCC)CC",
    "meta_data": {
        "InChI": "InChI=1S/C24H51O3P/c1-7-13-16-22(10-4)19-25-28(26-20-23(11-5)17-14-8-2)27-21-24(12-6)18-15-9-3/h22-24H,7-21H2,1-6H3",
        "InChIKey": null,
        "Canonical SMILES": "O(P(OCC(CC)CCCC)OCC(CC)CCCC)CC(CC)CCCC",
        "Molecular Formula": "C<sub>24</sub>H<sub>51</sub>O<sub>3</sub>P",
        "Molecular Mass": "418.63",
        "Boiling Point": "157-164 °C @ Press: 0.3 Torr",
        "Density": "0.902 g/cm³ @ Temp: 20 °C"
    }
}