{
    "cas_no": "6627-60-7",
    "key_name": "6-Methyl-2-pyridinemethanamine",
    "cn_name": "6-甲基-2-吡啶甲胺;",
    "alternate_name": "2-Pyridinemethanamine, 6-methyl-;Pyridine, 2-(aminomethyl)-6-methyl-;6-Methyl-2-pyridinemethanamine;2-(Aminomethyl)-6-methylpyridine;6-Methyl-2-(aminomethyl)pyridine;2-Aminomethyl-6-picoline;(6-Methyl-2-pyridyl)methylamine;2-Methyl-6-aminomethylpyridine;[(6-Methylpyridin-2-yl)methyl]amine;NSC 60125;NSC 63906;(6-Methylpyridin-2-yl)methanamine;1-(6-Methylpyridin-2-yl)methanamine;(6-Methyl-2-pyridyl)methanamine",
    "duplicated_cas_no": "",
    "SMILES": "C(N)C=1N=C(C)C=CC1",
    "meta_data": {
        "InChI": "InChI=1S/C7H10N2/c1-6-3-2-4-7(5-8)9-6/h2-4H,5,8H2,1H3",
        "InChIKey": null,
        "Canonical SMILES": "N=1C(=CC=CC1CN)C",
        "Molecular Formula": "C<sub>7</sub>H<sub>10</sub>N<sub>2</sub>",
        "Molecular Mass": "122.17",
        "Boiling Point": "55-57 °C @ Press: 0.1 Torr"
    }
}