{
    "cas_no": "39244-10-5",
    "key_name": "3-Furanacrylic acid",
    "cn_name": null,
    "alternate_name": "2-Propenoic acid, 3-(3-furanyl)-;3-Furanacrylic acid;3-(3-Furanyl)-2-propenoic acid;3-(3-Furyl)acrylic acid;3-Furylacrylic acid;3-(3-Furyl)-2-propenoic acid;3-Furan-3-yl-acrylic acid",
    "duplicated_cas_no": "",
    "SMILES": "C(=CC(O)=O)C=1C=COC1",
    "meta_data": {
        "InChI": "InChI=1S/C7H6O3/c8-7(9)2-1-6-3-4-10-5-6/h1-5H,(H,8,9)",
        "InChIKey": null,
        "Canonical SMILES": "O=C(O)C=CC1=COC=C1",
        "Molecular Formula": "C<sub>7</sub>H<sub>6</sub>O<sub>3</sub>",
        "Molecular Mass": "138.12",
        "Melting Point": "153-155 °C"
    }
}