{
    "cas_no": "814-29-9",
    "key_name": "Tributylphosphine oxide",
    "cn_name": "三丁基氧化膦;三正丁基氧化膦;",
    "alternate_name": "Phosphine oxide, tributyl-;Tributylphosphine oxide;Butyphos;Trisbutylphosphine oxide;TBPO;NSC 41935;NSC 65484;1-Dibutylphosphorylbutane;1-(Dibutylphosphoryl)butane",
    "duplicated_cas_no": "",
    "SMILES": "P(CCCC)(CCCC)(CCCC)=O",
    "meta_data": {
        "InChI": "InChI=1S/C12H27OP/c1-4-7-10-14(13,11-8-5-2)12-9-6-3/h4-12H2,1-3H3",
        "InChIKey": null,
        "Canonical SMILES": "O=P(CCCC)(CCCC)CCCC",
        "Molecular Formula": "C<sub>12</sub>H<sub>27</sub>OP",
        "Molecular Mass": "218.32",
        "Boiling Point": "300 °C",
        "Melting Point": "64 °C",
        "Density": "0.8480 g/cm³ @ Temp: 20 °C"
    }
}