{
    "cas_no": "2199-51-1",
    "key_name": "Ethyl 2,4-dimethyl-1<em>H</em>-pyrrole-3-carboxylate",
    "cn_name": "2,4-二甲基-3-吡咯羧酸乙酯;",
    "alternate_name": "1<em>H</em>-Pyrrole-3-carboxylic acid, 2,4-dimethyl-, ethyl ester;Pyrrole-3-carboxylic acid, 2,4-dimethyl-, ethyl ester;Ethyl 2,4-dimethyl-1<em>H</em>-pyrrole-3-carboxylate;2,4-Dimethyl-3-carbethoxypyrrole;Ethyl 2,4-dimethylpyrrole-3-carboxylate;2,4-Dimethyl-3-(ethoxycarbonyl)pyrrole;3-(Ethoxycarbonyl)-2,4-dimethylpyrrole;2,4-Dimethyl-1<em>H</em>-pyrrole-3-carboxylic acid ethyl ester;NSC 13425",
    "duplicated_cas_no": "",
    "SMILES": "C(OCC)(=O)C=1C(C)=CNC1C",
    "meta_data": {
        "InChI": "InChI=1S/C9H13NO2/c1-4-12-9(11)8-6(2)5-10-7(8)3/h5,10H,4H2,1-3H3",
        "InChIKey": null,
        "Canonical SMILES": "O=C(OCC)C=1C(=CNC1C)C",
        "Molecular Formula": "C<sub>9</sub>H<sub>13</sub>NO<sub>2</sub>",
        "Molecular Mass": "167.21",
        "Boiling Point": "159-160 °C @ Press: 10 Torr",
        "Melting Point": "75-76 °C"
    }
}