{
    "cas_no": "5436-43-1",
    "key_name": "BDE 47",
    "cn_name": null,
    "alternate_name": "Benzene, 2,4-dibromo-1-(2,4-dibromophenoxy)-;Benzene, 1,1′-oxybis[2,4-dibromo-;2,4-Dibromo-1-(2,4-dibromophenoxy)benzene;2,2′,4,4′-Tetrabromodiphenyl ether;2,4,2′,4′-Tetrabromodiphenyl ether;BDE 47;PBDE 47;NSC 21724;2,2′,4,4′-Tetrabromodiphenyl oxide",
    "duplicated_cas_no": "",
    "SMILES": "O(C1=C(Br)C=C(Br)C=C1)C2=C(Br)C=C(Br)C=C2",
    "meta_data": {
        "InChI": "InChI=1S/C12H6Br4O/c13-7-1-3-11(9(15)5-7)17-12-4-2-8(14)6-10(12)16/h1-6H",
        "InChIKey": null,
        "Canonical SMILES": "BrC1=CC=C(OC2=CC=C(Br)C=C2Br)C(Br)=C1",
        "Molecular Formula": "C<sub>12</sub>H<sub>6</sub>Br<sub>4</sub>O",
        "Molecular Mass": "485.79",
        "Boiling Point": "396 °C",
        "Melting Point": "82.6-83.0 °C"
    }
}