{
    "cas_no": "60719-84-8",
    "key_name": "Amrinone",
    "cn_name": "氨力农;5-氨基-[3,4\"双吡啶]-6(1H)-酮;",
    "alternate_name": "[3,4′-Bipyridin]-6(1<em>H</em>)-one, 5-amino-;5-Amino[3,4′-bipyridin]-6(1<em>H</em>)-one;Amrinone;Win 40680;5-Amino-1,6-dihydro-6-oxo-[3,4′-bipyridine];Cordemcura;AWD 08-250;3-Amino-5-(4-pyridinyl)-1,2-dihydro-2-pyridone;Wincoram;Vesistol;Cartonic;Inamrinone;3-Amino-5-(pyridin-4-yl)pyridin-2(1<em>H</em>)-one;3-Amino-5-pyridin-4-yl-1<em>H</em>-pyridin-2-one;3-Amino-5-(pyridin-4-yl)-1,2-dihydropyridin-2-one;3-Amino-5-(4-pyridinyl)-2(1<em>H</em>)-pyridinone;MeSH ID: D000676",
    "duplicated_cas_no": "",
    "SMILES": "NC1=CC(=CNC1=O)C=2C=CN=CC2",
    "meta_data": {
        "InChI": "InChI=1S/C10H9N3O/c11-9-5-8(6-13-10(9)14)7-1-3-12-4-2-7/h1-6H,11H2,(H,13,14)",
        "InChIKey": null,
        "Canonical SMILES": "O=C1NC=C(C=C1N)C=2C=CN=CC2",
        "Molecular Formula": "C<sub>10</sub>H<sub>9</sub>N<sub>3</sub>O",
        "Molecular Mass": "187.20",
        "Melting Point": "295 °C (decomp)"
    }
}