{
    "cas_no": "103-60-6",
    "key_name": "Phenoxyethyl isobutyrate",
    "cn_name": "异丁酸苯氧乙酯;2-甲基丙酸苯氧乙酯;",
    "alternate_name": "Propanoic acid, 2-methyl-, 2-phenoxyethyl ester;Isobutyric acid, 2-phenoxyethyl ester;Ethanol, 2-phenoxy-, isobutyrate;Phenoxyethyl isobutyrate;NSC 227210;NSC 406209;β-Phenoxyethyl isobutyrate;2-Phenoxyethyl 2-methylpropanoate;2-Phenoxyethyl isobutyrate;Phenirate",
    "duplicated_cas_no": "",
    "SMILES": "O(CCOC(C(C)C)=O)C1=CC=CC=C1",
    "meta_data": {
        "InChI": "InChI=1S/C12H16O3/c1-10(2)12(13)15-9-8-14-11-6-4-3-5-7-11/h3-7,10H,8-9H2,1-2H3",
        "InChIKey": null,
        "Canonical SMILES": "O=C(OCCOC=1C=CC=CC1)C(C)C",
        "Molecular Formula": "C<sub>12</sub>H<sub>16</sub>O<sub>3</sub>",
        "Molecular Mass": "208.25",
        "Boiling Point": "125-127 °C @ Press: 4 Torr",
        "Density": "1.052 g/cm³ @ Temp: 20 °C"
    }
}