{
    "cas_no": "6601-22-5",
    "key_name": "2,4-Dichloro-6-morpholino-1,3,5-triazine",
    "cn_name": "2,4-二氯-6-吗啉基-1,3,5-三嗪;",
    "alternate_name": "1,3,5-Triazine, 2,4-dichloro-6-(4-morpholinyl)-;<em>s</em>-Triazine, 2,4-dichloro-6-morpholino-;2,4-Dichloro-6-(4-morpholinyl)-1,3,5-triazine;2-Morpholino-4,6-dichlorotriazine;2,4-Dichloro-6-morpholino-1,3,5-triazine;2,4-Dichloro-6-morpholino-<em>s</em>-triazine;4,6-Dichloro-2-morpholino-1,3,5-triazine;2-Morpholino-4,6-dichloro-<em>s</em>-triazine;2,6-Dichloro-4-morpholino-1,3,5-triazine;2-(<em>N</em>-Morpholino)-4,6-dichloro-<em>s</em>-triazine;2,4-Dichloro-6-(morpholin-4-yl)-1,3,5-triazine;4-(4,6-Dichloro-1,3,5-triazin-2-yl)morpholine;4-Morpholino-2,6-dichloro-1,3,5-triazine",
    "duplicated_cas_no": "",
    "SMILES": "ClC1=NC(=NC(Cl)=N1)N2CCOCC2",
    "meta_data": {
        "InChI": "InChI=1S/C7H8Cl2N4O/c8-5-10-6(9)12-7(11-5)13-1-3-14-4-2-13/h1-4H2",
        "InChIKey": null,
        "Canonical SMILES": "ClC=1N=C(Cl)N=C(N1)N2CCOCC2",
        "Molecular Formula": "C<sub>7</sub>H<sub>8</sub>Cl<sub>2</sub>N<sub>4</sub>O",
        "Molecular Mass": "235.07",
        "Melting Point": "157.5-158.5 °C"
    }
}