{
    "cas_no": "541-28-6",
    "key_name": "1-Iodo-3-methylbutane",
    "cn_name": "异戊基碘;碘代异戊烷;1-碘-3-甲基丁烷;",
    "alternate_name": "Butane, 1-iodo-3-methyl-;1-Iodo-3-methylbutane;<em>Iso</em>-Amyliodide;4-Iodo-2-methylbutane;Isopentyl iodide;Isoamyl iodide;3-Methylbutyliodide;3-Methyl-1-iodobutane",
    "duplicated_cas_no": "",
    "SMILES": "C(C(C)C)CI",
    "meta_data": {
        "InChI": "InChI=1S/C5H11I/c1-5(2)3-4-6/h5H,3-4H2,1-2H3",
        "InChIKey": null,
        "Canonical SMILES": "ICCC(C)C",
        "Molecular Formula": "C<sub>5</sub>H<sub>11</sub>I",
        "Molecular Mass": "198.05",
        "Boiling Point": "147 °C",
        "Melting Point": "143-144 °C",
        "Density": "1.5028 g/cm³ @ Temp: 20 °C"
    }
}