{
    "cas_no": "3770-50-1",
    "key_name": "Ethyl 1<em>H</em>-indole-2-carboxylate",
    "cn_name": "吲哚-2-羧酸乙酯;",
    "alternate_name": "1<em>H</em>-Indole-2-carboxylic acid, ethyl ester;Indole-2-carboxylic acid, ethyl ester;Ethyl 1<em>H</em>-indole-2-carboxylate;Ethyl indole-2-carboxylate;2-Carbethoxyindole;2-Ethoxycarbonylindole;NSC 10076",
    "duplicated_cas_no": "",
    "SMILES": "C(OCC)(=O)C1=CC=2C(N1)=CC=CC2",
    "meta_data": {
        "InChI": "InChI=1S/C11H11NO2/c1-2-14-11(13)10-7-8-5-3-4-6-9(8)12-10/h3-7,12H,2H2,1H3",
        "InChIKey": null,
        "Canonical SMILES": "O=C(OCC)C1=CC=2C=CC=CC2N1",
        "Molecular Formula": "C<sub>11</sub>H<sub>11</sub>NO<sub>2</sub>",
        "Molecular Mass": "189.21",
        "Melting Point": "122-125 °C"
    }
}