{
    "cas_no": "880-09-1",
    "key_name": "Dipiperidinomethane",
    "cn_name": "双(哌啶乙基)甲烷;二哌啶甲烷;",
    "alternate_name": "Piperidine, 1,1′-methylenebis-;Piperidine, 1,1′-methylenedi-;1,1′-Methylenebis[piperidine];Dipiperidinomethane;Bis(piperidino)methane;Methylenebispiperidine;1,1′-Methylenedipiperidine;NSC 25572;1,1′-Methylenebis-piperidin;1-[(Piperidin-1-yl)methyl]piperidine;1-(Piperidin-1-ylmethyl)piperidine;Di(piperidin-1-yl)methane",
    "duplicated_cas_no": "",
    "SMILES": "C(N1CCCCC1)N2CCCCC2",
    "meta_data": {
        "InChI": "InChI=1S/C11H22N2/c1-3-7-12(8-4-1)11-13-9-5-2-6-10-13/h1-11H2",
        "InChIKey": null,
        "Canonical SMILES": "N1(CN2CCCCC2)CCCCC1",
        "Molecular Formula": "C<sub>11</sub>H<sub>22</sub>N<sub>2</sub>",
        "Molecular Mass": "182.31",
        "Boiling Point": "235 °C",
        "Density": "0.9168 g/cm³ @ Temp: 16.5 °C"
    }
}