{
    "cas_no": "634-93-5",
    "key_name": "2,4,6-Trichloroaniline",
    "cn_name": "2,4,6-三氯苯胺;",
    "alternate_name": "Benzenamine, 2,4,6-trichloro-;Aniline, 2,4,6-trichloro-;2,4,6-Trichlorobenzenamine;<em>sym</em>-Trichloroaniline;2,4,6-Trichloroaniline;2,4,6-Trichloraniline;NSC 2114;2,4,6-Trichlorophenylamine",
    "duplicated_cas_no": "",
    "SMILES": "NC1=C(Cl)C=C(Cl)C=C1Cl",
    "meta_data": {
        "InChI": "InChI=1S/C6H4Cl3N/c7-3-1-4(8)6(10)5(9)2-3/h1-2H,10H2",
        "InChIKey": null,
        "Canonical SMILES": "ClC=1C=C(Cl)C(N)=C(Cl)C1",
        "Molecular Formula": "C<sub>6</sub>H<sub>4</sub>Cl<sub>3</sub>N",
        "Molecular Mass": "196.46",
        "Boiling Point": "262 °C @ Press: 746 Torr",
        "Melting Point": "78.5 °C"
    }
}