{
    "cas_no": "23081-86-9",
    "key_name": "1-Butyl-4-piperidinone",
    "cn_name": null,
    "alternate_name": "4-Piperidinone, 1-butyl-;4-Piperidone, 1-butyl-;1-Butyl-4-piperidinone;<em>N</em>-Butyl-4-piperidone;1-Butyl-4-piperidone;1-<em>n</em>-Butyl-4-piperidone;<em>N</em>-Butyl-4-piperidinone",
    "duplicated_cas_no": "",
    "SMILES": "C(CCC)N1CCC(=O)CC1",
    "meta_data": {
        "InChI": "InChI=1S/C9H17NO/c1-2-3-6-10-7-4-9(11)5-8-10/h2-8H2,1H3",
        "InChIKey": null,
        "Canonical SMILES": "O=C1CCN(CC1)CCCC",
        "Molecular Formula": "C<sub>9</sub>H<sub>17</sub>NO",
        "Molecular Mass": "155.24",
        "Boiling Point": "66 °C @ Press: 1 Torr"
    }
}