{
    "cas_no": "5588-10-3",
    "key_name": "Benzeneethanamine, 2-methoxy-<em>N</em>,α-dimethyl-, hydrochloride (1:1)",
    "cn_name": "盐酸甲氧那明;甲氧苯丙甲胺盐酸盐;alpha-(2-甲氧基苯基)-beta-甲基氨基丙烷盐酸盐;",
    "alternate_name": "Benzeneethanamine, 2-methoxy-<em>N</em>,α-dimethyl-, hydrochloride (1:1);Phenethylamine, <em>o</em>-methoxy-<em>N</em>,α-dimethyl-, hydrochloride;Benzeneethanamine, 2-methoxy-<em>N</em>,α-dimethyl-, hydrochloride;<em>o</em>-Methoxy-<em>N</em>,α-dimethylphenethylamine hydrochloride;Methoxyphenaminium chloride;Orthoxine hydrochloride;Ortodrinex hydrochloride;Methoxyphenamine hydrochloride;<em>o</em>-Methoxymethamphetamine hydrochloride;<em>dl</em>-<em>o</em>-Methoxy-<em>N</em>,α-dimethylphenethylamine hydrochloride;<em>dl</em>-Orthoxine hydrochloride;(±)-Methoxyphenamine hydrochloride;2-Methoxymethamphetamine hydrochloride;Proasma;NSC 65644;[1-(2-Methoxyphenyl)propan-2-yl](methyl)amine hydrochloride",
    "duplicated_cas_no": "3595-10-6",
    "SMILES": "C(C(NC)C)C1=C(OC)C=CC=C1.Cl",
    "meta_data": {
        "InChI": "InChI=1S/C11H17NO.ClH/c1-9(12-2)8-10-6-4-5-7-11(10)13-3;/h4-7,9,12H,8H2,1-3H3;1H",
        "InChIKey": null,
        "Canonical SMILES": "Cl.O(C=1C=CC=CC1CC(NC)C)C",
        "Molecular Formula": "C<sub>11</sub>H<sub>17</sub>NO.ClH",
        "Molecular Mass": "",
        "Melting Point": "129-131 °C"
    }
}