{
    "cas_no": "50-86-2",
    "key_name": "4-Acetamidosalicylic acid",
    "cn_name": "4-乙酰氨基水杨酸;4-乙酰氨基-2-羟基苯甲酸;",
    "alternate_name": "Benzoic acid, 4-(acetylamino)-2-hydroxy-;Salicylic acid, 4-acetamido-;4-(Acetylamino)-2-hydroxybenzoic acid;<em>N</em>-Acetyl-4-aminosalicylic acid;<em>N</em>-Acetyl-<em>p</em>-aminosalicylic acid;<em>p</em>-Acetamidosalicylic acid;4-Acetamidosalicylic acid;3-Hydroxy-4-carboxyacetanilide;2-Hydroxy-4-acetamidobenzoic acid;NSC 54182;4-Acetamido-2-hydroxybenzoic acid;<em>p</em>-(Acetylamino)salicylic acid",
    "duplicated_cas_no": "",
    "SMILES": "C(O)(=O)C1=C(O)C=C(NC(C)=O)C=C1",
    "meta_data": {
        "InChI": "InChI=1S/C9H9NO4/c1-5(11)10-6-2-3-7(9(13)14)8(12)4-6/h2-4,12H,1H3,(H,10,11)(H,13,14)",
        "InChIKey": null,
        "Canonical SMILES": "O=C(O)C1=CC=C(C=C1O)NC(=O)C",
        "Molecular Formula": "C<sub>9</sub>H<sub>9</sub>NO<sub>4</sub>",
        "Molecular Mass": "195.17",
        "Melting Point": "220-232 °C (decomp)"
    }
}