{
    "cas_no": "63-38-7",
    "key_name": "Cytidine diphosphate",
    "cn_name": null,
    "alternate_name": "Cytidine 5′-(trihydrogen diphosphate);Cytidine pyrophosphate;Cytidine 5′-(trihydrogen pyrophosphate);CDP;Cytidine coenzyme;Cytidine 5′-diphosphate;Cytidine, mono(trihydrogen diphosphate) (ester);Cytidine 5′-pyrophosphate;Cytidine diphosphate;5′-CDP;MeSH ID: D003565",
    "duplicated_cas_no": "87691-21-2",
    "SMILES": "O[C@H]1[C@@H](O[C@H](COP(OP(=O)(O)O)(=O)O)[C@H]1O)N2C(=O)N=C(N)C=C2",
    "meta_data": {
        "InChI": "InChI=1S/C9H15N3O11P2/c10-5-1-2-12(9(15)11-5)8-7(14)6(13)4(22-8)3-21-25(19,20)23-24(16,17)18/h1-2,4,6-8,13-14H,3H2,(H,19,20)(H2,10,11,15)(H2,16,17,18)/t4-,6-,7-,8-/m1/s1",
        "InChIKey": null,
        "Canonical SMILES": "O=C1N=C(N)C=CN1C2OC(COP(=O)(O)OP(=O)(O)O)C(O)C2O",
        "Molecular Formula": "C<sub>9</sub>H<sub>15</sub>N<sub>3</sub>O<sub>11</sub>P<sub>2</sub>",
        "Molecular Mass": "403.18",
        "Melting Point": "183 °C (decomp)"
    }
}