{
    "cas_no": "363-51-9",
    "key_name": "2-Chloro-6-fluoroaniline",
    "cn_name": "2-氯-6-氟苯胺;",
    "alternate_name": "Benzenamine, 2-chloro-6-fluoro-;Aniline, 2-chloro-6-fluoro-;2-Chloro-6-fluorobenzenamine;2-Chloro-6-fluoroaniline;2-Chloro-6-fluorophenylamine;2-Fluoro-6-chloroaniline",
    "duplicated_cas_no": "",
    "SMILES": "NC1=C(Cl)C=CC=C1F",
    "meta_data": {
        "InChI": "InChI=1S/C6H5ClFN/c7-4-2-1-3-5(8)6(4)9/h1-3H,9H2",
        "InChIKey": null,
        "Canonical SMILES": "FC1=CC=CC(Cl)=C1N",
        "Molecular Formula": "C<sub>6</sub>H<sub>5</sub>ClFN",
        "Molecular Mass": "145.56",
        "Boiling Point": "91 °C @ Press: 30 Torr",
        "Melting Point": "31-32 °C",
        "Density": "1.316 g/cm³ @ Temp: 23 °C"
    }
}