{
    "cas_no": "54522-52-0",
    "key_name": "Methylprotodioscin",
    "cn_name": null,
    "alternate_name": "β-<span class=\"text-smallcaps\">D</smallcap>-Glucopyranoside, (3β,22α,25<em>R</em>)-26-(β-<smallcap>D</smallcap>-glucopyranosyloxy)-22-methoxyfurost-5-en-3-yl <em>O</em>-6-deoxy-α-<smallcap>L</smallcap>-mannopyranosyl-(1→2)-<em>O</em>-[6-deoxy-α-<smallcap>L</span>-mannopyranosyl-(1→4)]-;(3β,22α,25<em>R</em>)-26-(β-<span class=\"text-smallcaps\">D</smallcap>-Glucopyranosyloxy)-22-methoxyfurost-5-en-3-yl <em>O</em>-6-deoxy-α-<smallcap>L</smallcap>-mannopyranosyl-(1→2)-<em>O</em>-[6-deoxy-α-<smallcap>L</smallcap>-mannopyranosyl-(1→4)]-β-<smallcap>D</span>-glucopyranoside;Methylprotodioscin;Smilax saponin B;3β,26-Dihydroxy-22α-methoxyfurost-5-ene 3-<em>O</em>-β-chacotrioside 26-<em>O</em>-β-<span class=\"text-smallcaps\">D</span>-glucopyranoside;NSC 698790;22-Methoxylprotodioscin;22-<em>O</em>-Methylprotodioscin",
    "duplicated_cas_no": "55658-89-4;221527-55-5",
    "SMILES": "C[C@@]12[C@]([C@]3([C@](CC1)([C@]4(C)C(=CC3)C[C@@H](O[C@H]5[C@H](O[C@H]6[C@H](O)[C@H](O)[C@@H](O)[C@H](C)O6)[C@@H](O)[C@H](O[C@H]7[C@H](O)[C@H](O)[C@@H](O)[C@H](C)O7)[C@@H](CO)O5)CC4)[H])[H])(C[C@]8([C@@]2([C@H](C)[C@](CC[C@H](CO[C@@H]9O[C@H](CO)[C@@H](O)[C@H](O)[C@H]9O)C)(OC)O8)[H])[H])[H]",
    "meta_data": {
        "InChI": "InChI=1S/C52H86O22/c1-21(20-66-46-40(61)39(60)36(57)31(18-53)70-46)10-15-52(65-7)22(2)33-30(74-52)17-29-27-9-8-25-16-26(11-13-50(25,5)28(27)12-14-51(29,33)6)69-49-45(73-48-42(63)38(59)35(56)24(4)68-48)43(64)44(32(19-54)71-49)72-47-41(62)37(58)34(55)23(3)67-47/h8,21-24,26-49,53-64H,9-20H2,1-7H3/t21-,22+,23+,24+,26+,27-,28+,29+,30+,31-,32-,33+,34+,35+,36-,37-,38-,39+,40-,41-,42-,43+,44-,45-,46-,47+,48+,49-,50+,51+,52-/m1/s1",
        "InChIKey": null,
        "Canonical SMILES": "OCC1OC(OCC(C)CCC2(OC)OC3CC4C5CC=C6CC(OC7OC(CO)C(OC8OC(C)C(O)C(O)C8O)C(O)C7OC9OC(C)C(O)C(O)C9O)CCC6(C)C5CCC4(C)C3C2C)C(O)C(O)C1O",
        "Molecular Formula": "C<sub>52</sub>H<sub>86</sub>O<sub>22</sub>",
        "Molecular Mass": "1063.23",
        "Melting Point": "175-177 °C"
    }
}