{
    "cas_no": "18511-71-2",
    "key_name": "4,4′-Dibromo-2,2′-bipyridine",
    "cn_name": "4,4\"-二溴-2,2\"-联吡啶;",
    "alternate_name": "2,2′-Bipyridine, 4,4′-dibromo-;4,4′-Dibromo-2,2′-bipyridine;4,4′-Dibromo-2,2′-dipyridine;4,4′-Bromo-2,2′-bipyridine;4,4′-Dibromo-2,2′-bipyridyl",
    "duplicated_cas_no": "",
    "SMILES": "BrC=1C=C(N=CC1)C2=CC(Br)=CC=N2",
    "meta_data": {
        "InChI": "InChI=1S/C10H6Br2N2/c11-7-1-3-13-9(5-7)10-6-8(12)2-4-14-10/h1-6H",
        "InChIKey": null,
        "Canonical SMILES": "BrC=1C=CN=C(C1)C=2N=CC=C(Br)C2",
        "Molecular Formula": "C<sub>10</sub>H<sub>6</sub>Br<sub>2</sub>N<sub>2</sub>",
        "Molecular Mass": "313.98",
        "Melting Point": "141-142 °C"
    }
}