{
    "cas_no": "4792-67-0",
    "key_name": "Ethyl 5-chloro-1<em>H</em>-indole-2-carboxylate",
    "cn_name": "5-氯吲哚-2-羧酸乙酯;",
    "alternate_name": "1<em>H</em>-Indole-2-carboxylic acid, 5-chloro-, ethyl ester;Indole-2-carboxylic acid, 5-chloro-, ethyl ester;Ethyl 5-chloroindole-2-carboxylate;5-Chloroindole-2-carboxylic acid ethyl ester;5-Chloro-2-ethoxycarbonylindole;5-Chloro-1<em>H</em>-indole-2-carboxylic acid ethyl ester;NSC 94209;Ethyl 5-chloro-1<em>H</em>-indole-2-carboxylate",
    "duplicated_cas_no": "",
    "SMILES": "C(OCC)(=O)C1=CC=2C(N1)=CC=C(Cl)C2",
    "meta_data": {
        "InChI": "InChI=1S/C11H10ClNO2/c1-2-15-11(14)10-6-7-5-8(12)3-4-9(7)13-10/h3-6,13H,2H2,1H3",
        "InChIKey": null,
        "Canonical SMILES": "O=C(OCC)C1=CC=2C=C(Cl)C=CC2N1",
        "Molecular Formula": "C<sub>11</sub>H<sub>10</sub>ClNO<sub>2</sub>",
        "Molecular Mass": "223.66",
        "Melting Point": "167-168 °C"
    }
}