{
    "cas_no": "1286694-67-4",
    "key_name": "1,6-<em>O</em>,<em>O</em>-Diacetylbritannilactone",
    "cn_name": null,
    "alternate_name": "2(3<em>H</em>)-Benzofuranone, 4-(acetyloxy)-5-[(1<em>S</em>)-4-(acetyloxy)-1-methylbutyl]-3a,4,7,7a-tetrahydro-6-methyl-3-methylene-, (3a<em>R</em>,4<em>S</em>,7a<em>R</em>)-;(3a<em>R</em>,4<em>S</em>,7a<em>R</em>)-4-(Acetyloxy)-5-[(1<em>S</em>)-4-(acetyloxy)-1-methylbutyl]-3a,4,7,7a-tetrahydro-6-methyl-3-methylene-2(3<em>H</em>)-benzofuranone;Di-<em>O</em>-acetylbritannilactone;Britannilactone diacetate;1,6-<em>O</em>,<em>O</em>-Diacetylbritannilactone",
    "duplicated_cas_no": "151513-70-1",
    "SMILES": "O(C(C)=O)[C@H]1[C@]2([C@@](CC(C)=C1[C@H](CCCOC(C)=O)C)(OC(=O)C2=C)[H])[H]",
    "meta_data": {
        "InChI": "InChI=1S/C19H26O6/c1-10(7-6-8-23-13(4)20)16-11(2)9-15-17(12(3)19(22)25-15)18(16)24-14(5)21/h10,15,17-18H,3,6-9H2,1-2,4-5H3/t10-,15+,17+,18+/m0/s1",
        "InChIKey": null,
        "Canonical SMILES": "O=C1OC2CC(=C(C(OC(=O)C)C2C1=C)C(C)CCCOC(=O)C)C",
        "Molecular Formula": "C<sub>19</sub>H<sub>26</sub>O<sub>6</sub>",
        "Molecular Mass": "350.41",
        "Melting Point": "83-84 °C"
    }
}