{
    "cas_no": "5394-50-3",
    "key_name": "1,2-Bis(phenylmethyl) 1,2-hydrazinedicarboxylate",
    "cn_name": null,
    "alternate_name": "1,2-Hydrazinedicarboxylic acid, 1,2-bis(phenylmethyl) ester;Bicarbamic acid, dibenzyl ester;1,2-Hydrazinedicarboxylic acid, bis(phenylmethyl) ester;1,2-Bis(phenylmethyl) 1,2-hydrazinedicarboxylate;Dibenzyl hydrazodicarboxylate;<em>N</em>,<em>N</em>′-Bis(benzyloxycarbonyl)hydrazine;Dibenzyl 1,2-hydrazinedicarboxylate;NSC 3457;<em>N</em>′-(Benzyloxycarbonyl)hydrazinecarboxylic acid benzyl ester",
    "duplicated_cas_no": "",
    "SMILES": "C(OC(NNC(OCC1=CC=CC=C1)=O)=O)C2=CC=CC=C2",
    "meta_data": {
        "InChI": "InChI=1S/C16H16N2O4/c19-15(21-11-13-7-3-1-4-8-13)17-18-16(20)22-12-14-9-5-2-6-10-14/h1-10H,11-12H2,(H,17,19)(H,18,20)",
        "InChIKey": null,
        "Canonical SMILES": "O=C(OCC=1C=CC=CC1)NNC(=O)OCC=2C=CC=CC2",
        "Molecular Formula": "C<sub>16</sub>H<sub>16</sub>N<sub>2</sub>O<sub>4</sub>",
        "Molecular Mass": "300.31",
        "Melting Point": "104-105.5 °C"
    }
}