{
    "cas_no": "1753-48-6",
    "key_name": "2-Amino-5-pyrimidinecarbonitrile",
    "cn_name": "2-氨基嘧啶-5-腈;",
    "alternate_name": "5-Pyrimidinecarbonitrile, 2-amino-;2-Amino-5-pyrimidinecarbonitrile;5-Cyano-2-pyrimidinamine;2-Amino-5-cyanopyrimidine",
    "duplicated_cas_no": "",
    "SMILES": "C(#N)C=1C=NC(N)=NC1",
    "meta_data": {
        "InChI": "InChI=1S/C5H4N4/c6-1-4-2-8-5(7)9-3-4/h2-3H,(H2,7,8,9)",
        "InChIKey": null,
        "Canonical SMILES": "N#CC1=CN=C(N=C1)N",
        "Molecular Formula": "C<sub>5</sub>H<sub>4</sub>N<sub>4</sub>",
        "Molecular Mass": "120.11",
        "Melting Point": "300-310 °C (decomp)"
    }
}