{
    "cas_no": "4620-70-6",
    "key_name": "2-(<em>tert</em>-Butylamino)ethanol",
    "cn_name": "2-(叔丁氨基)乙醇;叔丁基乙醇胺;",
    "alternate_name": "Ethanol, 2-[(1,1-dimethylethyl)amino]-;Ethanol, 2-(<em>tert</em>-butylamino)-;2-[(1,1-Dimethylethyl)amino]ethanol;2-(<em>tert</em>-Butylamino)ethanol;β-<em>tert</em>-Butylaminoethanol;<em>N</em>-<em>tert</em>-Butylethanolamine;2-(<em>t</em>-Butylamino)ethanol;NSC 78430;<em>tert</em>-Butyl(2-hydroxyethyl)amine;<em>tert</em>-Butylethanolamine;2-(<em>tert</em>-Butylamino)ethan-1-ol;<em>N</em>-<em>tert</em>-Butyl-2-aminoethanol",
    "duplicated_cas_no": "81752-37-6",
    "SMILES": "N(C(C)(C)C)CCO",
    "meta_data": {
        "InChI": "InChI=1S/C6H15NO/c1-6(2,3)7-4-5-8/h7-8H,4-5H2,1-3H3",
        "InChIKey": null,
        "Canonical SMILES": "OCCNC(C)(C)C",
        "Molecular Formula": "C<sub>6</sub>H<sub>15</sub>NO",
        "Molecular Mass": "117.19",
        "Boiling Point": "176.5 °C",
        "Melting Point": "44 °C"
    }
}