{
    "cas_no": "533-87-9",
    "key_name": "<em>rel</em>-(9<em>R</em>,10<em>S</em>)-9,10,16-Trihydroxyhexadecanoic acid",
    "cn_name": "(±)-9,10,16-三羟基棕榈酸;",
    "alternate_name": "Hexadecanoic acid, 9,10,16-trihydroxy-, (9<em>R</em>,10<em>S</em>)-<em>rel</em>-;Hexadecanoic acid, 9,10,16-trihydroxy-, (<em>R</em>*,<em>S</em>*)-(±)-;<em>rel</em>-(9<em>R</em>,10<em>S</em>)-9,10,16-Trihydroxyhexadecanoic acid;(±)-<em>erythro</em>-Aleuritic acid;<span class=\"text-smallcaps\">DL</span>-<em>erythro</em>-Aleuritic acid;α-Aleuritic acid;<em>erythro</em>-Aleuritic acid;NSC 7668",
    "duplicated_cas_no": "18951-77-4",
    "SMILES": "[C@H]([C@H](CCCCCCO)O)(CCCCCCCC(O)=O)O",
    "meta_data": {
        "InChI": "InChI=1/C16H32O5/c17-13-9-5-4-7-11-15(19)14(18)10-6-2-1-3-8-12-16(20)21/h14-15,17-19H,1-13H2,(H,20,21)/t14-,15+/s2",
        "InChIKey": null,
        "Canonical SMILES": "O=C(O)CCCCCCCC(O)C(O)CCCCCCO",
        "Molecular Formula": "C<sub>16</sub>H<sub>32</sub>O<sub>5</sub>",
        "Molecular Mass": "304.42",
        "Melting Point": "100.5 °C"
    }
}