{
    "cas_no": "344-19-4",
    "key_name": "2,6-Dichloro-4-fluorobenzenamine",
    "cn_name": "2,6-二氯-4-氟苯胺;",
    "alternate_name": "Benzenamine, 2,6-dichloro-4-fluoro-;Aniline, 2,6-dichloro-4-fluoro-;2,6-Dichloro-4-fluorobenzenamine;2,6-Dichloro-4-fluoroaniline;(2,6-Dichloro-4-fluorophenyl)amine",
    "duplicated_cas_no": "",
    "SMILES": "NC1=C(Cl)C=C(F)C=C1Cl",
    "meta_data": {
        "InChI": "InChI=1S/C6H4Cl2FN/c7-4-1-3(9)2-5(8)6(4)10/h1-2H,10H2",
        "InChIKey": null,
        "Canonical SMILES": "FC=1C=C(Cl)C(N)=C(Cl)C1",
        "Molecular Formula": "C<sub>6</sub>H<sub>4</sub>Cl<sub>2</sub>FN",
        "Molecular Mass": "180.01",
        "Melting Point": "33 °C"
    }
}