{
    "cas_no": "17297-56-2",
    "key_name": "Kaempferol 3-<em>O</em>-robinobioside",
    "cn_name": null,
    "alternate_name": "4<em>H</em>-1-Benzopyran-4-one, 3-[[6-<em>O</em>-(6-deoxy-α-<span class=\"text-smallcaps\">L</smallcap>-mannopyranosyl)-β-<smallcap>D</span>-galactopyranosyl]oxy]-5,7-dihydroxy-2-(4-hydroxyphenyl)-;Biorobin;3-[[6-<em>O</em>-(6-Deoxy-α-<span class=\"text-smallcaps\">L</smallcap>-mannopyranosyl)-β-<smallcap>D</span>-galactopyranosyl]oxy]-5,7-dihydroxy-2-(4-hydroxyphenyl)-4<em>H</em>-1-benzopyran-4-one;Kaempferol 3-β-robinobioside;Kaempferol 3-β-robinoside;Kaempferol 3-<em>O</em>-robinobioside;Kaempferol 3-<em>O</em>-α-<span class=\"text-smallcaps\">L</smallcap>-rhamnopyranosyl-(1→6)-β-<smallcap>D</span>-galactopyranoside;Kaempferol-3-<em>O</em>-β-<span class=\"text-smallcaps\">D</span>-robinobioside;Kaempferol 3-rhamnosyl(1→6)galactoside;Kaempferol 3-robinobioside;Kaempferol 3-<em>O</em>-β-robinobioside;Kaempferol 3-<em>O</em>-robinoside;Kampferol-3-<em>O</em>-robinobioside",
    "duplicated_cas_no": "11044-86-3;69501-06-0;77133-41-6",
    "SMILES": "O(C1=C(OC=2C(C1=O)=C(O)C=C(O)C2)C3=CC=C(O)C=C3)[C@@H]4O[C@H](CO[C@H]5[C@H](O)[C@H](O)[C@@H](O)[C@H](C)O5)[C@H](O)[C@H](O)[C@H]4O",
    "meta_data": {
        "InChI": "InChI=1S/C27H30O15/c1-9-17(31)20(34)22(36)26(39-9)38-8-15-18(32)21(35)23(37)27(41-15)42-25-19(33)16-13(30)6-12(29)7-14(16)40-24(25)10-2-4-11(28)5-3-10/h2-7,9,15,17-18,20-23,26-32,34-37H,8H2,1H3/t9-,15+,17-,18-,20+,21-,22+,23+,26+,27-/m0/s1",
        "InChIKey": null,
        "Canonical SMILES": "O=C1C(OC2OC(COC3OC(C)C(O)C(O)C3O)C(O)C(O)C2O)=C(OC=4C=C(O)C=C(O)C14)C=5C=CC(O)=CC5",
        "Molecular Formula": "C<sub>27</sub>H<sub>30</sub>O<sub>15</sub>",
        "Molecular Mass": "594.52",
        "Melting Point": "221-223 °C"
    }
}