{
    "cas_no": "1007-03-0",
    "key_name": "α-Cyclopropylbenzyl alcohol",
    "cn_name": null,
    "alternate_name": "Benzenemethanol, α-cyclopropyl-;Benzyl alcohol, α-cyclopropyl-;α-Cyclopropylbenzenemethanol;Cyclopropanemethanol, α-phenyl-;α-Cyclopropylbenzyl alcohol;Phenylcyclopropylcarbinol;Cyclopropylphenylmethanol;(±)-α-Cyclopropylbenzylalcohol;α-Phenylcyclopropanemethanol;Cyclopropyl phenyl carbinol",
    "duplicated_cas_no": "63226-80-2",
    "SMILES": "C(O)(C1CC1)C2=CC=CC=C2",
    "meta_data": {
        "InChI": "InChI=1S/C10H12O/c11-10(9-6-7-9)8-4-2-1-3-5-8/h1-5,9-11H,6-7H2",
        "InChIKey": null,
        "Canonical SMILES": "OC(C=1C=CC=CC1)C2CC2",
        "Molecular Formula": "C<sub>10</sub>H<sub>12</sub>O",
        "Molecular Mass": "148.20",
        "Boiling Point": "121 °C @ Press: 12 Torr"
    }
}