{
    "cas_no": "4387-31-9",
    "key_name": "4-Chloro-3-methylbenzonitrile",
    "cn_name": "3-甲基-4-氯苯腈;",
    "alternate_name": "Benzonitrile, 4-chloro-3-methyl-;<em>m</em>-Tolunitrile, 4-chloro-;4-Chloro-3-methylbenzonitrile",
    "duplicated_cas_no": "",
    "SMILES": "C(#N)C1=CC(C)=C(Cl)C=C1",
    "meta_data": {
        "InChI": "InChI=1S/C8H6ClN/c1-6-4-7(5-10)2-3-8(6)9/h2-4H,1H3",
        "InChIKey": null,
        "Canonical SMILES": "N#CC1=CC=C(Cl)C(=C1)C",
        "Molecular Formula": "C<sub>8</sub>H<sub>6</sub>ClN",
        "Molecular Mass": "151.59",
        "Boiling Point": "58-60 °C @ Press: 6 x 10<sup>-3</sup> Torr",
        "Melting Point": "46-47 °C"
    }
}