{
    "cas_no": "1010-19-1",
    "key_name": "Benzenaminium, <em>N</em>,<em>N</em>,<em>N</em>-triethyl-, iodide (1:1)",
    "cn_name": "苯基三乙基碘化铵;",
    "alternate_name": "Benzenaminium, <em>N</em>,<em>N</em>,<em>N</em>-triethyl-, iodide (1:1);Ammonium, triethylphenyl-, iodide;Triethylphenylammonium iodide;Benzenaminium, <em>N</em>,<em>N</em>,<em>N</em>-triethyl-, iodide;<em>N</em>,<em>N</em>,<em>N</em>-Triethylanilinium iodide;Phenyl triethyl ammonium iodide",
    "duplicated_cas_no": "",
    "SMILES": "[N+](CC)(CC)(CC)C1=CC=CC=C1.[I-]",
    "meta_data": {
        "InChI": "InChI=1S/C12H20N.HI/c1-4-13(5-2,6-3)12-10-8-7-9-11-12;/h7-11H,4-6H2,1-3H3;1H/q+1;/p-1",
        "InChIKey": null,
        "Canonical SMILES": "[I-].C=1C=CC(=CC1)[N+](CC)(CC)CC",
        "Molecular Formula": "C<sub>12</sub>H<sub>20</sub>N.I",
        "Molecular Mass": "",
        "Melting Point": "125-127 °C"
    }
}