{
    "cas_no": "10476-81-0",
    "key_name": "Strontium bromide (SrBr<sub>2</sub>)",
    "cn_name": "溴化锶;无水溴化锶;",
    "alternate_name": "Strontium bromide (SrBr<sub>2</sub>);Strontium bromide;Strontium dibromide",
    "duplicated_cas_no": "",
    "SMILES": "[Sr](Br)Br",
    "meta_data": {
        "InChI": "InChI=1S/2BrH.Sr/h2*1H;/q;;+2/p-2",
        "InChIKey": null,
        "Canonical SMILES": "Br[Sr]Br",
        "Molecular Formula": "Br<sub>2</sub>Sr",
        "Molecular Mass": "",
        "Melting Point": "651 °C",
        "Density": "4.216 g/cm³ (solid)"
    }
}