{
    "cas_no": "603-36-1",
    "key_name": "Triphenylantimony",
    "cn_name": "三苯基锑;三苯锑;",
    "alternate_name": "Stibine, triphenyl-;Triphenylstibine;Triphenylantimony;Triphenylstibane;NSC 2844;Sb(C<sub>6</sub>H<sub>5</sub>)<sub>3</sub>",
    "duplicated_cas_no": "",
    "SMILES": "[Sb](C1=CC=CC=C1)(C2=CC=CC=C2)C3=CC=CC=C3",
    "meta_data": {
        "InChI": "InChI=1S/3C6H5.Sb/c3*1-2-4-6-5-3-1;/h3*1-5H;",
        "InChIKey": null,
        "Canonical SMILES": "C=1C=CC(=CC1)[Sb](C=2C=CC=CC2)C=3C=CC=CC3",
        "Molecular Formula": "C<sub>18</sub>H<sub>15</sub>Sb",
        "Molecular Mass": "",
        "Boiling Point": "&gt;360 °C",
        "Melting Point": "53.5 °C",
        "Density": "1.4343 g/cm³"
    }
}