{
    "cas_no": "5002-47-1",
    "key_name": "Fluphenazine decanoate",
    "cn_name": "癸氟奋乃静;4-[3-[2-(三氟甲基)-10H-吩噻嗪-10-基]丙基]-1-哌嗪乙醇癸酸酯;",
    "alternate_name": "Decanoic acid, 2-[4-[3-[2-(trifluoromethyl)-10<em>H</em>-phenothiazin-10-yl]propyl]-1-piperazinyl]ethyl ester;Decanoic acid, 2-[4-[3-[2-(trifluoromethyl)phenothiazin-10-yl]propyl]-1-piperazinyl]ethyl ester;1-Piperazineethanol, 4-[3-[2-(trifluoromethyl)phenothiazin-10-yl]propyl]-, decanoate (ester);SQ 10733;Fluphenazine decanoate;Fluorophenazine decanoate;Dapotum D;Lyogen;Modecate;Flufenazine decanoate;Prolixin decanoate;Moditen depot;QD 10733;Depot;NSC 169510;2-(4-(3-(2-(Trifluoromethyl)-10<em>H</em>-phenothiazin-10-yl)propyl)piperazin-1-yl)ethyl decanoate",
    "duplicated_cas_no": "",
    "SMILES": "C(CCN1CCN(CCOC(CCCCCCCCC)=O)CC1)N2C=3C(SC=4C2=CC=CC4)=CC=C(C(F)(F)F)C3",
    "meta_data": {
        "InChI": "InChI=1S/C32H44F3N3O2S/c1-2-3-4-5-6-7-8-14-31(39)40-24-23-37-21-19-36(20-22-37)17-11-18-38-27-12-9-10-13-29(27)41-30-16-15-26(25-28(30)38)32(33,34)35/h9-10,12-13,15-16,25H,2-8,11,14,17-24H2,1H3",
        "InChIKey": null,
        "Canonical SMILES": "O=C(OCCN1CCN(CC1)CCCN2C=3C=CC=CC3SC4=CC=C(C=C42)C(F)(F)F)CCCCCCCCC",
        "Molecular Formula": "C<sub>32</sub>H<sub>44</sub>F<sub>3</sub>N<sub>3</sub>O<sub>2</sub>S",
        "Molecular Mass": "591.77",
        "Melting Point": "30-32 °C"
    }
}