{
    "cas_no": "84145-43-7",
    "key_name": "Piperazine, 1-(4-methoxyphenyl)-, hydrochloride (1:1)",
    "cn_name": "1-(4-甲氧基苯基)哌嗪盐酸盐;",
    "alternate_name": "Piperazine, 1-(4-methoxyphenyl)-, hydrochloride (1:1);Piperazine, 1-(4-methoxyphenyl)-, monohydrochloride;1-(4-Methoxyphenyl)piperazine hydrochloride;1-(Para-methoxyphenyl)piperazine hydrochloride",
    "duplicated_cas_no": "",
    "SMILES": "O(C)C1=CC=C(C=C1)N2CCNCC2.Cl",
    "meta_data": {
        "InChI": "InChI=1S/C11H16N2O.ClH/c1-14-11-4-2-10(3-5-11)13-8-6-12-7-9-13;/h2-5,12H,6-9H2,1H3;1H",
        "InChIKey": null,
        "Canonical SMILES": "Cl.O(C1=CC=C(C=C1)N2CCNCC2)C",
        "Molecular Formula": "C<sub>11</sub>H<sub>16</sub>N<sub>2</sub>O.ClH",
        "Molecular Mass": "",
        "Melting Point": "240 °C"
    }
}