{
    "cas_no": "672-15-1",
    "key_name": "<span class=\"text-smallcaps\">L</span>-Homoserine",
    "cn_name": "L-高丝氨酸;(S)-2-氨基-4-羟基丁酸;",
    "alternate_name": "<span class=\"text-smallcaps\">L</span>-Homoserine;Butyric acid, 2-amino-4-hydroxy-, <span class=\"text-smallcaps\">L</span>-;Homoserine;Butanoic acid, 2-amino-4-hydroxy-, (<em>S</em>)-;(<em>S</em>)-2-Amino-4-hydroxybutanoic acid;(<em>S</em>)-Homoserine;Butyric acid, 2-amino-4-hydroxy-;2-Amino-4-hydroxybutanoic acid;2-Amino-4-hydroxybutyric acid;NSC 206251;(2S)-2-Amino-4-hydroxybutanoic acid",
    "duplicated_cas_no": "498-19-1",
    "SMILES": "[C@H](CCO)(C(O)=O)N",
    "meta_data": {
        "InChI": "InChI=1S/C4H9NO3/c5-3(1-2-6)4(7)8/h3,6H,1-2,5H2,(H,7,8)/t3-/m0/s1",
        "InChIKey": null,
        "Canonical SMILES": "O=C(O)C(N)CCO",
        "Molecular Formula": "C<sub>4</sub>H<sub>9</sub>NO<sub>3</sub>",
        "Molecular Mass": "119.12",
        "Melting Point": "203 °C (decomp)"
    }
}