{
    "cas_no": "4430-42-6",
    "key_name": "Berteroin",
    "cn_name": null,
    "alternate_name": "Pentane, 1-isothiocyanato-5-(methylthio)-;Isothiocyanic acid, 5-(methylthio)pentyl ester;1-Isothiocyanato-5-(methylthio)pentane;5-(Methylthio)pentyl isothiocyante;5-(Methylthio)pentyl isothiocyanate;Berteroin;(5-Isothiocyanatopentyl)(methyl)sulfane",
    "duplicated_cas_no": "",
    "SMILES": "C(CCN=C=S)CCSC",
    "meta_data": {
        "InChI": "InChI=1S/C7H13NS2/c1-10-6-4-2-3-5-8-7-9/h2-6H2,1H3",
        "InChIKey": null,
        "Canonical SMILES": "S=C=NCCCCCSC",
        "Molecular Formula": "C<sub>7</sub>H<sub>13</sub>NS<sub>2</sub>",
        "Molecular Mass": "175.31",
        "Boiling Point": "155 °C @ Press: 10 Torr"
    }
}