{
    "cas_no": "13884-92-9",
    "key_name": "Phosphonium, triphenyl[(phenylthio)methyl]-, chloride (1:1)",
    "cn_name": null,
    "alternate_name": "Phosphonium, triphenyl[(phenylthio)methyl]-, chloride (1:1);Phosphonium, triphenyl[(phenylthio)methyl]-, chloride;Triphenyl[(phenylthio)methyl]phosphonium chloride;[(Phenylthio)methyl]triphenylphosphonium chloride",
    "duplicated_cas_no": "",
    "SMILES": "[P+](CSC1=CC=CC=C1)(C2=CC=CC=C2)(C3=CC=CC=C3)C4=CC=CC=C4.[Cl-]",
    "meta_data": {
        "InChI": "InChI=1S/C25H22PS.ClH/c1-5-13-22(14-6-1)26(23-15-7-2-8-16-23,24-17-9-3-10-18-24)21-27-25-19-11-4-12-20-25;/h1-20H,21H2;1H/q+1;/p-1",
        "InChIKey": null,
        "Canonical SMILES": "[Cl-].S(C=1C=CC=CC1)C[P+](C=2C=CC=CC2)(C=3C=CC=CC3)C=4C=CC=CC4",
        "Molecular Formula": "C<sub>25</sub>H<sub>22</sub>PS.Cl",
        "Molecular Mass": "",
        "Melting Point": "242-244 °C"
    }
}