{
    "cas_no": "113046-72-3",
    "key_name": "Ethyl 6,7-difluoro-1-methyl-4-oxo-1<em>H</em>,4<em>H</em>-[1,3]thiazeto[3,2-<em>a</em>]quinoline-3-carboxylate",
    "cn_name": "6,7-二氟-1-甲基-4-氧代-4H-[1,3]噻嗪[3,2-a]并喹啉-3-羧酸乙酯;",
    "alternate_name": "1<em>H</em>,4<em>H</em>-[1,3]Thiazeto[3,2-<em>a</em>]quinoline-3-carboxylic acid, 6,7-difluoro-1-methyl-4-oxo-, ethyl ester;Ethyl 6,7-difluoro-1-methyl-4-oxo-1<em>H</em>,4<em>H</em>-[1,3]thiazeto[3,2-<em>a</em>]quinoline-3-carboxylate",
    "duplicated_cas_no": "145788-71-2",
    "SMILES": "C(OCC)(=O)C1=C2N(C=3C(C1=O)=CC(F)=C(F)C3)C(C)S2",
    "meta_data": {
        "InChI": "InChI=1S/C14H11F2NO3S/c1-3-20-14(19)11-12(18)7-4-8(15)9(16)5-10(7)17-6(2)21-13(11)17/h4-6H,3H2,1-2H3",
        "InChIKey": null,
        "Canonical SMILES": "O=C(OCC)C=1C(=O)C2=CC(F)=C(F)C=C2N3C1SC3C",
        "Molecular Formula": "C<sub>14</sub>H<sub>11</sub>F<sub>2</sub>NO<sub>3</sub>S",
        "Molecular Mass": "311.30",
        "Melting Point": "200-202 °C"
    }
}