{
    "cas_no": "21411-42-7",
    "key_name": "2,4,6-Trimethylbenzenemethanethiol",
    "cn_name": null,
    "alternate_name": "Benzenemethanethiol, 2,4,6-trimethyl-;Methanethiol, mesityl-;2,4,6-Trimethylbenzenemethanethiol;(2,4,6-Trimethylphenyl)methanethiol;2,4,6-Trimethylbenzyl mercaptan;NSC 181935",
    "duplicated_cas_no": "",
    "SMILES": "C(S)C1=C(C)C=C(C)C=C1C",
    "meta_data": {
        "InChI": "InChI=1S/C10H14S/c1-7-4-8(2)10(6-11)9(3)5-7/h4-5,11H,6H2,1-3H3",
        "InChIKey": null,
        "Canonical SMILES": "SCC=1C(=CC(=CC1C)C)C",
        "Molecular Formula": "C<sub>10</sub>H<sub>14</sub>S",
        "Molecular Mass": "166.28",
        "Boiling Point": "120 °C @ Press: 5 Torr",
        "Melting Point": "46-47 °C"
    }
}