{
    "cas_no": "7013-16-3",
    "key_name": "9-β-<span class=\"text-smallcaps\">D</span>-Arabinofuranosyl-1,9-dihydro-6<em>H</em>-purin-6-one",
    "cn_name": null,
    "alternate_name": "6<em>H</em>-Purin-6-one, 9-β-<span class=\"text-smallcaps\">D</span>-arabinofuranosyl-1,9-dihydro-;Hypoxanthine, 9-β-<span class=\"text-smallcaps\">D</span>-arabinofuranosyl-;9-β-<span class=\"text-smallcaps\">D</span>-Arabinofuranosyl-1,9-dihydro-6<em>H</em>-purin-6-one;9-β-<span class=\"text-smallcaps\">D</span>-Arabinofuranosylhypoxanthine;Hypoxanthine arabinoside;Arabinosylhypoxanthine;Arainosine;NSC 405122;Ara-H",
    "duplicated_cas_no": "61630-46-4",
    "SMILES": "O[C@@H]1[C@H](N2C3=C(N=C2)C(=O)N=CN3)O[C@H](CO)[C@H]1O",
    "meta_data": {
        "InChI": "InChI=1S/C10H12N4O5/c15-1-4-6(16)7(17)10(19-4)14-3-13-5-8(14)11-2-12-9(5)18/h2-4,6-7,10,15-17H,1H2,(H,11,12,18)/t4-,6-,7+,10-/m1/s1",
        "InChIKey": null,
        "Canonical SMILES": "O=C1N=CNC2=C1N=CN2C3OC(CO)C(O)C3O",
        "Molecular Formula": "C<sub>10</sub>H<sub>12</sub>N<sub>4</sub>O<sub>5</sub>",
        "Molecular Mass": "268.23",
        "Melting Point": "259-260 °C"
    }
}