{
    "cas_no": "541-88-8",
    "key_name": "Chloroacetic anhydride",
    "cn_name": "氯乙酸酐;氯醋酸酐;",
    "alternate_name": "Acetic acid, 2-chloro-, 1,1′-anhydride;Acetic acid, chloro-, anhydride;Chloroacetic acid anhydride;Chloroacetic anhydride;Chloracetic anhydride;Chloroacetyl anhydride;2-Chloroacetic anhydride;α,α′-Dichloroacetic anhydride;NSC 71207;Bis(chloroacetic acid) anhydride;2-Chloroacetyl 2-chloroacetate",
    "duplicated_cas_no": "39739-42-9",
    "SMILES": "O(C(CCl)=O)C(CCl)=O",
    "meta_data": {
        "InChI": "InChI=1S/C4H4Cl2O3/c5-1-3(7)9-4(8)2-6/h1-2H2",
        "InChIKey": null,
        "Canonical SMILES": "O=C(OC(=O)CCl)CCl",
        "Molecular Formula": "C<sub>4</sub>H<sub>4</sub>Cl<sub>2</sub>O<sub>3</sub>",
        "Molecular Mass": "170.98",
        "Boiling Point": "203 °C @ Press: 760 Torr",
        "Melting Point": "46 °C",
        "Density": "1.5494 g/cm³ @ Temp: 20 °C"
    }
}