{
    "cas_no": "3947-62-4",
    "key_name": "β-<span class=\"text-smallcaps\">D</span>-Glucopyranose, 2,3,4,6-tetraacetate",
    "cn_name": "2,3,4,6-四-O-乙酰-β-D-吡喃葡萄糖;",
    "alternate_name": "β-<span class=\"text-smallcaps\">D</span>-Glucopyranose, 2,3,4,6-tetraacetate;Glucopyranose, 2,3,4,6-tetraacetate, β-<span class=\"text-smallcaps\">D</span>-;Glucopyranose, 2,3,4,6-tetraacetate;2,3,4,6-Tetra-<em>O</em>-acetyl-β-<span class=\"text-smallcaps\">D</span>-glucopyranose;β-<span class=\"text-smallcaps\">D</span>-Glucose 2,3,4,6-tetraacetate;Acetic acid (2<em>R</em>,3<em>R</em>,4<em>S</em>,5<em>R</em>,6<em>R</em>)-4,5-diacetoxy-6-(acetoxymethyl)-2-hydroxytetrahydropyran-3-yl ester",
    "duplicated_cas_no": "54294-67-6",
    "SMILES": "O(C(C)=O)[C@H]1[C@H](OC(C)=O)[C@@H](COC(C)=O)O[C@@H](O)[C@@H]1OC(C)=O",
    "meta_data": {
        "InChI": "InChI=1S/C14H20O10/c1-6(15)20-5-10-11(21-7(2)16)12(22-8(3)17)13(14(19)24-10)23-9(4)18/h10-14,19H,5H2,1-4H3/t10-,11-,12+,13-,14-/m1/s1",
        "InChIKey": null,
        "Canonical SMILES": "O=C(OCC1OC(O)C(OC(=O)C)C(OC(=O)C)C1OC(=O)C)C",
        "Molecular Formula": "C<sub>14</sub>H<sub>20</sub>O<sub>10</sub>",
        "Molecular Mass": "348.30",
        "Boiling Point": "~0.130 °C (approx) @ Press: 5 x 10<sup>-4</sup> Torr",
        "Melting Point": "118-128 °C"
    }
}