{
    "cas_no": "515-40-2",
    "key_name": "Neophyl chloride",
    "cn_name": "1-氯-2-甲基-2-苯基丙烷;氯代叔丁基苯;",
    "alternate_name": "Benzene, (2-chloro-1,1-dimethylethyl)-;(2-Chloro-1,1-dimethylethyl)benzene;(β-Chloro-<em>tert</em>-butyl)benzene;(β-Chloro-α,α-dimethyl)ethylbenzene;1-Chloro-2-methyl-2-phenylpropane;Neophyl chloride;β,β-Dimethylphenethyl chloride;2-Methyl-2-phenylpropyl chloride;NSC 54159;NSC 923;(1,1-Dimethyl-2-chloroethyl)benzene;(1-Chloro-2-methylpropan-2-yl)benzene",
    "duplicated_cas_no": "",
    "SMILES": "C(CCl)(C)(C)C1=CC=CC=C1",
    "meta_data": {
        "InChI": "InChI=1S/C10H13Cl/c1-10(2,8-11)9-6-4-3-5-7-9/h3-7H,8H2,1-2H3",
        "InChIKey": null,
        "Canonical SMILES": "ClCC(C=1C=CC=CC1)(C)C",
        "Molecular Formula": "C<sub>10</sub>H<sub>13</sub>Cl",
        "Molecular Mass": "168.66",
        "Boiling Point": "223 °C",
        "Melting Point": "54.5-55 °C",
        "Density": "1.047 g/cm³ @ Temp: 20 °C"
    }
}