{
    "cas_no": "4845-50-5",
    "key_name": "1,4-Dioxane-2,3-diol",
    "cn_name": "2,3-二羟基-1,4-二氧杂环己烷;",
    "alternate_name": "1,4-Dioxane-2,3-diol;<em>p</em>-Dioxane-2,3-diol;2,3-Dihydroxy-1,4-dioxane;NSC 57544",
    "duplicated_cas_no": "",
    "SMILES": "OC1C(O)OCCO1",
    "meta_data": {
        "InChI": "InChI=1S/C4H8O4/c5-3-4(6)8-2-1-7-3/h3-6H,1-2H2",
        "InChIKey": null,
        "Canonical SMILES": "OC1OCCOC1O",
        "Molecular Formula": "C<sub>4</sub>H<sub>8</sub>O<sub>4</sub>",
        "Molecular Mass": "120.10",
        "Melting Point": "100-130 °C"
    }
}