{
    "cas_no": "79-95-8",
    "key_name": "Tetrachlorobisphenol A",
    "cn_name": "四氯双酚A;四氯双酚A;",
    "alternate_name": "Phenol, 4,4′-(1-methylethylidene)bis[2,6-dichloro-;Phenol, 4,4′-isopropylidenebis[2,6-dichloro-;4,4′-(1-Methylethylidene)bis[2,6-dichlorophenol];2,2-Bis(4-hydroxy-3,5-dichlorophenyl)propane;2,2-Bis(3,5-dichloro-4-hydroxyphenyl)propane;2,2-Bis[3,5-dichloro-4-oxyphenyl]propane;Tetrachlorobisphenol A;2,2′,6,6′-Tetrachlorobisphenol A;4,4′-Isopropylidenebis[2,6-dichlorophenol];Tetrachlorodian;3,3′,5,5′-Tetrachlorobisphenol A;NSC 18248;NSC 67465;3,5,3′,5′-Tetrachlorobisphenol A;2,2′,6,6′-Tetrachloro-4,4′-isopropylidenediphenol;2,6-Dichloro-4-[2-(3,5-dichloro-4-hydroxyphenyl)propan-2-yl]phenol",
    "duplicated_cas_no": "4112-94-1;27360-90-3;29155-33-7;2396737-92-9",
    "SMILES": "C(C)(C)(C1=CC(Cl)=C(O)C(Cl)=C1)C2=CC(Cl)=C(O)C(Cl)=C2",
    "meta_data": {
        "InChI": "InChI=1S/C15H12Cl4O2/c1-15(2,7-3-9(16)13(20)10(17)4-7)8-5-11(18)14(21)12(19)6-8/h3-6,20-21H,1-2H3",
        "InChIKey": null,
        "Canonical SMILES": "ClC=1C=C(C=C(Cl)C1O)C(C2=CC(Cl)=C(O)C(Cl)=C2)(C)C",
        "Molecular Formula": "C<sub>15</sub>H<sub>12</sub>Cl<sub>4</sub>O<sub>2</sub>",
        "Molecular Mass": "366.07",
        "Melting Point": "136-137 °C"
    }
}