{
    "cas_no": "36854-57-6",
    "key_name": "α-Ethylbenzeneacetyl chloride",
    "cn_name": "2-苯基丁酰氯;",
    "alternate_name": "Benzeneacetyl chloride, α-ethyl-;Butyryl chloride, 2-phenyl-;α-Ethylbenzeneacetyl chloride;α-Phenylbutyryl chloride;2-Phenylbutyryl chloride;(±)-α-Phenylbutyryl chloride;(±)-2-Phenylbutyric chloride;2-Phenylbutanoyl chloride;NSC 86133",
    "duplicated_cas_no": "51260-63-0",
    "SMILES": "C(C(Cl)=O)(CC)C1=CC=CC=C1",
    "meta_data": {
        "InChI": "InChI=1S/C10H11ClO/c1-2-9(10(11)12)8-6-4-3-5-7-8/h3-7,9H,2H2,1H3",
        "InChIKey": null,
        "Canonical SMILES": "O=C(Cl)C(C=1C=CC=CC1)CC",
        "Molecular Formula": "C<sub>10</sub>H<sub>11</sub>ClO",
        "Molecular Mass": "182.65",
        "Boiling Point": "122-125 °C @ Press: 20 Torr",
        "Melting Point": "178-180 °C"
    }
}