{
    "cas_no": "34176-52-8",
    "key_name": "2-Hydrazinyl-4-phenylthiazole",
    "cn_name": null,
    "alternate_name": "Thiazole, 2-hydrazinyl-4-phenyl-;Thiazole, 2-hydrazino-4-phenyl-;2(3<em>H</em>)-Thiazolone, 4-phenyl-, hydrazone;2-Hydrazinyl-4-phenylthiazole;2-Hydrazino-4-phenylthiazole;NSC 153290;(4-Phenylthiazol-2-yl)hydrazine;2-Hydrazinyl-4-phenyl-1,3-thiazole",
    "duplicated_cas_no": "",
    "SMILES": "N(N)=C1NC(=CS1)C2=CC=CC=C2",
    "meta_data": {
        "InChI": "InChI=1S/C9H9N3S/c10-12-9-11-8(6-13-9)7-4-2-1-3-5-7/h1-6H,10H2,(H,11,12)",
        "InChIKey": null,
        "Canonical SMILES": "N(N)=C1SC=C(N1)C=2C=CC=CC2",
        "Molecular Formula": "C<sub>9</sub>H<sub>9</sub>N<sub>3</sub>S",
        "Molecular Mass": "191.25",
        "Melting Point": "167-168 °C"
    }
}