{
    "cas_no": "54-31-9",
    "key_name": "Furosemide",
    "cn_name": "呋噻米;呋喃苯胺酸;利尿磺胺;2-(2-呋喃甲基)氨基-5-(磺酰氨基)-4-氯苯甲酸;",
    "alternate_name": "Benzoic acid, 5-(aminosulfonyl)-4-chloro-2-[(2-furanylmethyl)amino]-;Anthranilic acid, 4-chloro-<em>N</em>-furfuryl-5-sulfamoyl-;5-(Aminosulfonyl)-4-chloro-2-[(2-furanylmethyl)amino]benzoic acid;LB 502;4-Chloro-<em>N</em>-furfuryl-5-sulfamoylanthranilic acid;4-Chloro-<em>N</em>-(2-furylmethyl)-5-sulfamoylanthranilic acid;Furosemid;Furosemide;Lasix;Frusemide;Furanthryl;Trofurit;5-(Aminosulfamyl)-4-chloro-2-[(2-furanylmethyl)amino]benzoic acid;Aisemide;Beronald;Desdemin;Errolon;Frusemin;Fulsix;Fuluvamide;Katlex;Lasilix;Lowpstron;Macasirool;Prefemin;Nicorol;Rosemide;Transit;Urex;Furantril;Seguril;Salix;Fusid;Lasex;Furanthril;Furesis;Radonna;2-Furfurylamino-4-chloro-5-sulfamoylbenzoic acid;Aluzine;Anfuramaide;Apo-Frusemide;Apo-Furosemide;Aquarid;Naclex;Aldic;Arasemide;Bioretic;Cetasix;Dirine;Disemide;Diural;Diuresal;Diurin;Diurolasa;Diusemide;Diusil;Dranex;Dryptal;Aquamide;Aquasin;Eutensin;Fluidrol;Franyl;Frumex;Furmid;Frusedan;Frusema;Frusetic;Frusid;Furanturil;Furetic;Furex;Furix;Frumide;Furo-Basan;Furocot;Furodiurol;Furomen;Furomex;Furomide M.D.;Furo-Puren;Furorese;Furosan;Furosix;Furoter;Furovite;Golan;Hissuflux;Hydrex;Hydro;Impugan;Kofuzon;Kutrix;Lasemid;Lasiletten;Lasix Retard;Laxur;Liside;Marsemide;Urenil;Nadis;Nelsix;Nephron;Odemase;Odemex;Oedemex;Promedes;Promide;Radisemide;Retep;Salinex;Salurid;Selectofur;Uremide;Durafurid;Uresix;Urex M;Urian;Uridon;Yidoli;Zafurida;Hydro-rapid;Disal;Diuretic salt;Mirfat;Discoid;Profemin;Lowpston;Rusyde;Furosedon;NSC 269420;Desal;Frusenex;Furosem;Teuto;Furosemide-Darnitsa;Neosemid;Pharlab;Fuluobi;4-Chloro-2-(furan-2-ylmethylamino)-5-sulfamoylbenzoic acid;MeSH ID: D005665",
    "duplicated_cas_no": "",
    "SMILES": "C(O)(=O)C1=C(NCC2=CC=CO2)C=C(Cl)C(S(N)(=O)=O)=C1",
    "meta_data": {
        "InChI": "InChI=1S/C12H11ClN2O5S/c13-9-5-10(15-6-7-2-1-3-20-7)8(12(16)17)4-11(9)21(14,18)19/h1-5,15H,6H2,(H,16,17)(H2,14,18,19)",
        "InChIKey": null,
        "Canonical SMILES": "O=C(O)C1=CC(=C(Cl)C=C1NCC=2OC=CC2)S(=O)(=O)N",
        "Molecular Formula": "C<sub>12</sub>H<sub>11</sub>ClN<sub>2</sub>O<sub>5</sub>S",
        "Molecular Mass": "330.74",
        "Melting Point": "206 °C",
        "Density": "1.594 g/cm³ (solid)"
    }
}