{
    "cas_no": "22900-11-4",
    "key_name": "β-Neuraminic acid, <em>N</em>-acetyl-, methyl ester",
    "cn_name": "Methyl5-Acetamido-3,5-dideoxy-beta-D-glycero-D-galacto-2-nonulopyranosylonate;",
    "alternate_name": "β-Neuraminic acid, <em>N</em>-acetyl-, methyl ester;<span class=\"text-smallcaps\">D</smallcap>-<em>glycero</em>-<smallcap>D</span>-<em>galacto</em>-Nonulopyranosonic acid, 5-acetamido-3,5-dideoxy-, methyl ester, β-;<span class=\"text-smallcaps\">D</smallcap>-<em>glycero</em>-β-<smallcap>D</span>-<em>galacto</em>-2-Nonulopyranosonic acid, 5-(acetylamino)-3,5-dideoxy-, methyl ester;Methyl <em>N</em>-acetyl-β-neuraminate;<em>N</em>-Acetyl-β-neuraminic acid methyl ester",
    "duplicated_cas_no": "",
    "SMILES": "[C@H]([C@@H](CO)O)(O)[C@]1([C@H](NC(C)=O)[C@@H](O)C[C@](C(OC)=O)(O)O1)[H]",
    "meta_data": {
        "InChI": "InChI=1S/C12H21NO9/c1-5(15)13-8-6(16)3-12(20,11(19)21-2)22-10(8)9(18)7(17)4-14/h6-10,14,16-18,20H,3-4H2,1-2H3,(H,13,15)/t6-,7+,8+,9+,10+,12-/m0/s1",
        "InChIKey": null,
        "Canonical SMILES": "O=C(NC1C(O)CC(O)(OC1C(O)C(O)CO)C(=O)OC)C",
        "Molecular Formula": "C<sub>12</sub>H<sub>21</sub>NO<sub>9</sub>",
        "Molecular Mass": "323.30",
        "Melting Point": "183 °C"
    }
}