{
    "cas_no": "13706-86-0",
    "key_name": "5-methyl-2,3-hexanedione",
    "cn_name": "乙酰基异戊酰;乙酰基异戊酰;",
    "alternate_name": "2,3-Hexanedione, 5-methyl-;5-Methyl-2,3-hexanedione;2-Methylhexa-4,5-dione;5-methyl-2,3-hexanedione",
    "duplicated_cas_no": "",
    "SMILES": "C(CC(C)C)(C(C)=O)=O",
    "meta_data": {
        "InChI": "InChI=1S/C7H12O2/c1-5(2)4-7(9)6(3)8/h5H,4H2,1-3H3",
        "InChIKey": null,
        "Canonical SMILES": "O=C(C(=O)CC(C)C)C",
        "Molecular Formula": "C<sub>7</sub>H<sub>12</sub>O<sub>2</sub>",
        "Molecular Mass": "128.17",
        "Boiling Point": "138 °C",
        "Density": "0.9135 g/cm³ @ Temp: 420 °C"
    }
}