{
    "cas_no": "173903-15-6",
    "key_name": "Methyl <em>N</em>-(chlorocarbonyl)-<em>N</em>-[4-(trifluoromethoxy)phenyl]carbamate",
    "cn_name": "N-氯甲酰基-N-[4-(三氟甲氧基)苯基]氨基甲酸甲酯;",
    "alternate_name": "Carbamic acid, <em>N</em>-(chlorocarbonyl)-<em>N</em>-[4-(trifluoromethoxy)phenyl]-, methyl ester;Carbamic acid, (chlorocarbonyl)[4-(trifluoromethoxy)phenyl]-, methyl ester;Methyl <em>N</em>-(chlorocarbonyl)-<em>N</em>-[4-(trifluoromethoxy)phenyl]carbamate;Methyl (chlorocarbonyl)-(4-(trifluoromethoxy)phenyl)carbamate",
    "duplicated_cas_no": "",
    "SMILES": "N(C(OC)=O)(C(Cl)=O)C1=CC=C(OC(F)(F)F)C=C1",
    "meta_data": {
        "InChI": "InChI=1S/C10H7ClF3NO4/c1-18-9(17)15(8(11)16)6-2-4-7(5-3-6)19-10(12,13)14/h2-5H,1H3",
        "InChIKey": null,
        "Canonical SMILES": "O=C(Cl)N(C(=O)OC)C1=CC=C(OC(F)(F)F)C=C1",
        "Molecular Formula": "C<sub>10</sub>H<sub>7</sub>ClF<sub>3</sub>NO<sub>4</sub>",
        "Molecular Mass": "297.62",
        "Melting Point": "96-98 °C"
    }
}