{
    "cas_no": "21085-72-3",
    "key_name": "Acetobromo-α-<span class=\"text-smallcaps\">D</span>-glucuronic acid methyl ester",
    "cn_name": "乙酰溴-α-D-葡萄糖酮酸甲基酯;",
    "alternate_name": "α-<span class=\"text-smallcaps\">D</span>-Glucopyranuronic acid, 1-bromo-1-deoxy-, methyl ester, 2,3,4-triacetate;Glucopyranuronic acid, 1-bromo-1-deoxy-, methyl ester, triacetate, α-<span class=\"text-smallcaps\">D</span>-;α-<span class=\"text-smallcaps\">D</span>-Glucopyranuronic acid, 1-bromo-1-deoxy-, methyl ester, triacetate;Glucuronic acid, 1-bromo-1-deoxy-, methyl ester, 2,3,4-triacetate;Methyl acetobromoglucuronate;Methyl 2,3,4-tri-<em>O</em>-acetyl-1-bromo-1-deoxy-α-<span class=\"text-smallcaps\">D</span>-glucopyranosyluronate;Methyl 2,3,4-tri-<em>O</em>-acetyl-1-bromo-1-deoxy-α-<span class=\"text-smallcaps\">D</span>-glucopyranuranate;Methyl (tri-<em>O</em>-acetyl-α-<span class=\"text-smallcaps\">D</span>-glucopyranosyl bromide)uronate;Methyl 1-bromo-1-deoxy-2,3,4-tri-<em>O</em>-acetyl-α-<span class=\"text-smallcaps\">D</span>-glucopyranuronate;Methyl α-acetobromglucuronate;Methyl α-acetobromoglucuronate;Methyl 2,3,4-tri-<em>O</em>-acetyl-α-bromoglucuronate;Acetobromo-α-<span class=\"text-smallcaps\">D</span>-glucuronic acid methyl ester;Methyl 2,3,4-tri-<em>O</em>-acetyl-1-bromo-α-<span class=\"text-smallcaps\">D</span>-glucopyranuronate;Methyl (2,3,4-tri-<em>O</em>-acetyl-α-<span class=\"text-smallcaps\">D</span>-glucopyranosyl bromide)uronate;Methyl (2S,3S,4S,5R,6R)-3,4,5-triacetoxy-6-bromo-tetrahydropyran-2-carboxylate",
    "duplicated_cas_no": "51740-90-0;147662-92-8;249290-64-0;2170097-92-2",
    "SMILES": "O(C(C)=O)[C@H]1[C@H](OC(C)=O)[C@@H](C(OC)=O)O[C@H](Br)[C@@H]1OC(C)=O",
    "meta_data": {
        "InChI": "InChI=1S/C13H17BrO9/c1-5(15)20-8-9(21-6(2)16)11(13(18)19-4)23-12(14)10(8)22-7(3)17/h8-12H,1-4H3/t8-,9-,10+,11-,12-/m0/s1",
        "InChIKey": null,
        "Canonical SMILES": "O=C(OC1C(Br)OC(C(=O)OC)C(OC(=O)C)C1OC(=O)C)C",
        "Molecular Formula": "C<sub>13</sub>H<sub>17</sub>BrO<sub>9</sub>",
        "Molecular Mass": "397.17",
        "Melting Point": "106-107 °C"
    }
}