{
    "cas_no": "352359-23-0",
    "key_name": "1-(1,1-Dimethylethyl) 2-borono-5-fluoro-1<em>H</em>-indole-1-carboxylate",
    "cn_name": "1-Boc-5-氟吲哚-2-硼酸;N-叔丁氧羰基-5-氟吲哚-2-硼酸;",
    "alternate_name": "1<em>H</em>-Indole-1-carboxylic acid, 2-borono-5-fluoro-, 1-(1,1-dimethylethyl) ester;1-(1,1-Dimethylethyl) 2-borono-5-fluoro-1<em>H</em>-indole-1-carboxylate;[1-[[(1,1-Dimethylethyl)oxy]carbonyl]-5-fluoro-1<em>H</em>-indol-2-yl]boronic acid;[1-(<em>tert</em>-Butoxycarbonyl)-5-fluoro-1<em>H</em>-indol-2-yl]boronic acid;1-Boc-5-fluoroindole-2-boronic Acid",
    "duplicated_cas_no": "",
    "SMILES": "C(OC(C)(C)C)(=O)N1C=2C(C=C1B(O)O)=CC(F)=CC2",
    "meta_data": {
        "InChI": "InChI=1S/C13H15BFNO4/c1-13(2,3)20-12(17)16-10-5-4-9(15)6-8(10)7-11(16)14(18)19/h4-7,18-19H,1-3H3",
        "InChIKey": null,
        "Canonical SMILES": "O=C(OC(C)(C)C)N1C(=CC=2C=C(F)C=CC21)B(O)O",
        "Molecular Formula": "C<sub>13</sub>H<sub>15</sub>BFNO<sub>4</sub>",
        "Molecular Mass": "279.07",
        "Melting Point": "231-234 °C"
    }
}