{
    "cas_no": "98651-70-8",
    "key_name": "2-Amino-4-methoxy-3-pyridinecarbonitrile",
    "cn_name": null,
    "alternate_name": "3-Pyridinecarbonitrile, 2-amino-4-methoxy-;2-Amino-4-methoxy-3-pyridinecarbonitrile;2-Amino-4-methoxynicotinonitrile;2-Amino-4-methoxypyridin-3-carbonitril",
    "duplicated_cas_no": "",
    "SMILES": "O(C)C=1C(C#N)=C(N)N=CC1",
    "meta_data": {
        "InChI": "InChI=1S/C7H7N3O/c1-11-6-2-3-10-7(9)5(6)4-8/h2-3H,1H3,(H2,9,10)",
        "InChIKey": null,
        "Canonical SMILES": "N#CC=1C(=NC=CC1OC)N",
        "Molecular Formula": "C<sub>7</sub>H<sub>7</sub>N<sub>3</sub>O",
        "Molecular Mass": "149.15",
        "Melting Point": "211 °C"
    }
}