{
    "cas_no": "15901-42-5",
    "key_name": "3,3,5-Trimethylcyclohexanamine",
    "cn_name": "3,3,5-三甲基环乙胺;",
    "alternate_name": "Cyclohexanamine, 3,3,5-trimethyl-;Cyclohexylamine, 3,3,5-trimethyl-;3,3,5-Trimethylcyclohexanamine;3,3,5-Trimethylcyclohexylamine;3,5,5-Trimethylcyclohexylamine;3,3,5-Trimethylcyclohexan-1-amine",
    "duplicated_cas_no": "",
    "SMILES": "CC1(C)CC(C)CC(N)C1",
    "meta_data": {
        "InChI": "InChI=1S/C9H19N/c1-7-4-8(10)6-9(2,3)5-7/h7-8H,4-6,10H2,1-3H3",
        "InChIKey": null,
        "Canonical SMILES": "NC1CC(C)CC(C)(C)C1",
        "Molecular Formula": "C<sub>9</sub>H<sub>19</sub>N",
        "Molecular Mass": "141.25",
        "Boiling Point": "179.6 °C",
        "Density": "0.8442 g/cm³ @ Temp: 20 °C"
    }
}