{
    "cas_no": "25117-75-3",
    "key_name": "3-Ethoxybenzonitrile",
    "cn_name": "3-乙氧基苯甲腈;",
    "alternate_name": "Benzonitrile, 3-ethoxy-;Benzonitrile, <em>m</em>-ethoxy-;3-Ethoxybenzonitrile;<em>m</em>-Ethoxybenzonitrile;3-(Ethyloxy)benzonitrile",
    "duplicated_cas_no": "",
    "SMILES": "O(CC)C1=CC(C#N)=CC=C1",
    "meta_data": {
        "InChI": "InChI=1S/C9H9NO/c1-2-11-9-5-3-4-8(6-9)7-10/h3-6H,2H2,1H3",
        "InChIKey": null,
        "Canonical SMILES": "N#CC1=CC=CC(OCC)=C1",
        "Molecular Formula": "C<sub>9</sub>H<sub>9</sub>NO",
        "Molecular Mass": "147.17",
        "Boiling Point": "241-244 °C"
    }
}