{
    "cas_no": "306934-80-5",
    "key_name": "3-Pyridazinecarboxylic acid, 1,6-dihydro-6-oxo-, hydrate (1:1)",
    "cn_name": null,
    "alternate_name": "3-Pyridazinecarboxylic acid, 1,6-dihydro-6-oxo-, hydrate (1:1);3-Pyridazinecarboxylic acid, 1,6-dihydro-6-oxo-, monohydrate",
    "duplicated_cas_no": "",
    "SMILES": "C(O)(=O)C=1C=CC(=O)NN1.O",
    "meta_data": {
        "InChI": "InChI=1S/C5H4N2O3.H2O/c8-4-2-1-3(5(9)10)6-7-4;/h1-2H,(H,7,8)(H,9,10);1H2",
        "InChIKey": null,
        "Canonical SMILES": "O=C(O)C1=NNC(=O)C=C1.O",
        "Molecular Formula": "C<sub>5</sub>H<sub>4</sub>N<sub>2</sub>O<sub>3</sub>.H<sub>2</sub>O",
        "Molecular Mass": "",
        "Melting Point": "257 °C"
    }
}