{
    "cas_no": "923978-27-2",
    "key_name": "2-[2,6-Dimethyl-4-[(1<em>E</em>)-3-[4-(methylthio)phenyl]-3-oxo-1-propen-1-yl]phenoxy]-2-methylpropanoic acid",
    "cn_name": null,
    "alternate_name": "Propanoic acid, 2-[2,6-dimethyl-4-[(1<em>E</em>)-3-[4-(methylthio)phenyl]-3-oxo-1-propen-1-yl]phenoxy]-2-methyl-;2-[2,6-Dimethyl-4-[(1<em>E</em>)-3-[4-(methylthio)phenyl]-3-oxo-1-propen-1-yl]phenoxy]-2-methylpropanoic acid;GFT 505;Elafibranor;GFT-505;(<em>E</em>)-1-[4-(Methylthio)phenyl]-3-[3,5-dimethyl-4-[(carboxydimethylmethyl)oxy]phenyl]prop-2-en-1-one",
    "duplicated_cas_no": "",
    "SMILES": "O(C(C(O)=O)(C)C)C1=C(C)C=C(/C=C/C(=O)C2=CC=C(SC)C=C2)C=C1C",
    "meta_data": {
        "InChI": "InChI=1S/C22H24O4S/c1-14-12-16(13-15(2)20(14)26-22(3,4)21(24)25)6-11-19(23)17-7-9-18(27-5)10-8-17/h6-13H,1-5H3,(H,24,25)/b11-6+",
        "InChIKey": null,
        "Canonical SMILES": "O=C(O)C(OC=1C(=CC(C=CC(=O)C2=CC=C(SC)C=C2)=CC1C)C)(C)C",
        "Molecular Formula": "C<sub>22</sub>H<sub>24</sub>O<sub>4</sub>S",
        "Molecular Mass": "384.49",
        "Melting Point": "145-147 °C"
    }
}