{
    "cas_no": "6590-96-1",
    "key_name": "2,4-Dichlorophenyl isothiocyanate",
    "cn_name": "2,4-二氯苯基硫代异氰酸酯;",
    "alternate_name": "Benzene, 2,4-dichloro-1-isothiocyanato-;Isothiocyanic acid, 2,4-dichlorophenyl ester;2,4-Dichloro-1-isothiocyanatobenzene;2,4-Dichlorophenyl isothiocyanate;AF 100;AF 100 (antifouling agent)",
    "duplicated_cas_no": "",
    "SMILES": "N(=C=S)C1=C(Cl)C=C(Cl)C=C1",
    "meta_data": {
        "InChI": "InChI=1S/C7H3Cl2NS/c8-5-1-2-7(10-4-11)6(9)3-5/h1-3H",
        "InChIKey": null,
        "Canonical SMILES": "S=C=NC1=CC=C(Cl)C=C1Cl",
        "Molecular Formula": "C<sub>7</sub>H<sub>3</sub>Cl<sub>2</sub>NS",
        "Molecular Mass": "204.08",
        "Boiling Point": "139-142 °C @ Press: 13 Torr",
        "Melting Point": "58-59 °C"
    }
}