{
    "cas_no": "3926-62-3",
    "key_name": "Sodium chloroacetate",
    "cn_name": "氯乙酸钠;",
    "alternate_name": "Acetic acid, 2-chloro-, sodium salt (1:1);Acetic acid, chloro-, sodium salt;Sodium chloroacetate;Chloroacetic acid sodium salt;Sodium monochloroacetate;SMA;SMA (herbicide);Monochloroacetic acid sodium salt;Sodium 2-chloroacetate;Sodium α-chloroacetate;Sodium chloroethanoate;Sodium monochloroactetate",
    "duplicated_cas_no": "1081776-28-4",
    "SMILES": "C(CCl)(O)=O.[Na]",
    "meta_data": {
        "InChI": "InChI=1S/C2H3ClO2.Na/c3-1-2(4)5;/h1H2,(H,4,5);",
        "InChIKey": null,
        "Canonical SMILES": "[Na].O=C(O)CCl",
        "Molecular Formula": "C<sub>2</sub>H<sub>3</sub>ClO<sub>2</sub>.Na",
        "Molecular Mass": "",
        "Melting Point": "150-200 °C (decomp)"
    }
}