{
    "cas_no": "19781-81-8",
    "key_name": "4-Heptyn-2-ol",
    "cn_name": "4-庚炔-2-醇;",
    "alternate_name": "4-Heptyn-2-ol;2-Hydroxy-4-heptyne",
    "duplicated_cas_no": "90134-40-0",
    "SMILES": "C(C#CCC)C(C)O",
    "meta_data": {
        "InChI": "InChI=1S/C7H12O/c1-3-4-5-6-7(2)8/h7-8H,3,6H2,1-2H3",
        "InChIKey": null,
        "Canonical SMILES": "OC(C)CC#CCC",
        "Molecular Formula": "C<sub>7</sub>H<sub>12</sub>O",
        "Molecular Mass": "112.17",
        "Boiling Point": "68 °C @ Press: 14 Torr"
    }
}