{
    "cas_no": "3768-57-8",
    "key_name": "<em>N</em>,<em>N</em>,<em>N</em>′,<em>N</em>′,<em>N</em>′′,<em>N</em>′′,1-Heptamethylsilanetriamine",
    "cn_name": null,
    "alternate_name": "Silanetriamine, <em>N</em>,<em>N</em>,<em>N</em>′,<em>N</em>′,<em>N</em>′′,<em>N</em>′′,1-heptamethyl-;Silanetriamine, heptamethyl-;<em>N</em>,<em>N</em>,<em>N</em>′,<em>N</em>′,<em>N</em>′′,<em>N</em>′′,1-Heptamethylsilanetriamine;Methyltris(dimethylamino)silane;Tris(dimethylamino)methylsilane;LS 1960;[Bis(dimethylamino)(methyl)silyl]dimethylamine",
    "duplicated_cas_no": "",
    "SMILES": "[Si](N(C)C)(N(C)C)(N(C)C)C",
    "meta_data": {
        "InChI": "InChI=1S/C7H21N3Si/c1-8(2)11(7,9(3)4)10(5)6/h1-7H3",
        "InChIKey": null,
        "Canonical SMILES": "N(C)(C)[Si](N(C)C)(N(C)C)C",
        "Molecular Formula": "C<sub>7</sub>H<sub>21</sub>N<sub>3</sub>Si",
        "Molecular Mass": "175.35",
        "Boiling Point": "55-56 °C @ Press: 17 Torr",
        "Melting Point": "-11 °C",
        "Density": "0.850 g/cm³ @ Temp: 22 °C"
    }
}