{
    "cas_no": "6007-26-7",
    "key_name": "2-Methyl-1,3-dithiane",
    "cn_name": "2-甲基-1,3-二噻烷;",
    "alternate_name": "1,3-Dithiane, 2-methyl-;<em>m</em>-Dithiane, 2-methyl-;Acetaldehyde, cyclic trimethylene mercaptal;2-Methyl-1,3-dithiane;2-Methyl-<em>m</em>-dithiane;2-Methyl-1,3-dithian;NSC 249337",
    "duplicated_cas_no": "76800-48-1",
    "SMILES": "CC1SCCCS1",
    "meta_data": {
        "InChI": "InChI=1S/C5H10S2/c1-5-6-3-2-4-7-5/h5H,2-4H2,1H3",
        "InChIKey": null,
        "Canonical SMILES": "S1CCCSC1C",
        "Molecular Formula": "C<sub>5</sub>H<sub>10</sub>S<sub>2</sub>",
        "Molecular Mass": "134.26",
        "Boiling Point": "66 °C @ Press: 5 Torr"
    }
}