{
    "cas_no": "31883-05-3",
    "key_name": "Moricizine",
    "cn_name": null,
    "alternate_name": "Carbamic acid, <em>N</em>-[10-[3-(4-morpholinyl)-1-oxopropyl]-10<em>H</em>-phenothiazin-2-yl]-, ethyl ester;Phenothiazine-2-carbamic acid, 10-(3-morpholinopropionyl)-, ethyl ester;Carbamic acid, [10-[3-(4-morpholinyl)-1-oxopropyl]-10<em>H</em>-phenothiazin-2-yl]-, ethyl ester;Ethyl 10-(β-<em>N</em>-morpholinylpropionyl)phenothiazine-2-carbamate;Ethyl 10-(β-morpholinopropionyl)phenothiazine-2-carbamate;G 214;Moricizine;Moracizine;[10-(3-Morpholin-4-yl-propionyl)-10<em>H</em>-phenothiazin-2-yl]-carbamic acid ethyl ester",
    "duplicated_cas_no": "",
    "SMILES": "C(CCN1CCOCC1)(=O)N2C=3C(SC=4C2=CC=CC4)=CC=C(NC(OCC)=O)C3",
    "meta_data": {
        "InChI": "InChI=1S/C22H25N3O4S/c1-2-29-22(27)23-16-7-8-20-18(15-16)25(17-5-3-4-6-19(17)30-20)21(26)9-10-24-11-13-28-14-12-24/h3-8,15H,2,9-14H2,1H3,(H,23,27)",
        "InChIKey": null,
        "Canonical SMILES": "O=C(OCC)NC1=CC=C2SC=3C=CC=CC3N(C(=O)CCN4CCOCC4)C2=C1",
        "Molecular Formula": "C<sub>22</sub>H<sub>25</sub>N<sub>3</sub>O<sub>4</sub>S",
        "Molecular Mass": "427.52",
        "Melting Point": "156-157 °C"
    }
}