{
    "cas_no": "2921-20-2",
    "key_name": "Tetradecylthioacetic acid",
    "cn_name": null,
    "alternate_name": "Acetic acid, 2-(tetradecylthio)-;Acetic acid, (tetradecylthio)-;2-(Tetradecylthio)acetic acid;Tetradecylthioacetic acid;1-Mono(carboxymethylthio)tetradecane",
    "duplicated_cas_no": "",
    "SMILES": "C(CCCCCCCCCCC)CCSCC(O)=O",
    "meta_data": {
        "InChI": "InChI=1S/C16H32O2S/c1-2-3-4-5-6-7-8-9-10-11-12-13-14-19-15-16(17)18/h2-15H2,1H3,(H,17,18)",
        "InChIKey": null,
        "Canonical SMILES": "O=C(O)CSCCCCCCCCCCCCCC",
        "Molecular Formula": "C<sub>16</sub>H<sub>32</sub>O<sub>2</sub>S",
        "Molecular Mass": "288.49",
        "Melting Point": "64-66 °C"
    }
}