{
    "cas_no": "91503-79-6",
    "key_name": "Flurbiprofen axetil",
    "cn_name": "氟比洛芬酯;2-氟-Α-甲基-(1,1\"-联苯)-4-乙酸1-(乙酰氧基)乙基酯;氟比洛芬酯 (非对映体混合物);",
    "alternate_name": "[1,1′-Biphenyl]-4-acetic acid, 2-fluoro-α-methyl-, 1-(acetyloxy)ethyl ester;Flurbiprofen axetil;LFP 83;1-Acetoxyethyl 2-(2-fluoro-4-biphenylyl)propionate;Ropiopn;1-Acetoxyethyl 2-(2-fluoro-[1,1′-biphenyl]-4-yl)propanoate",
    "duplicated_cas_no": "",
    "SMILES": "FC1=C(C=CC(C(C(OC(OC(C)=O)C)=O)C)=C1)C2=CC=CC=C2",
    "meta_data": {
        "InChI": "InChI=1S/C19H19FO4/c1-12(19(22)24-14(3)23-13(2)21)16-9-10-17(18(20)11-16)15-7-5-4-6-8-15/h4-12,14H,1-3H3",
        "InChIKey": null,
        "Canonical SMILES": "O=C(OC(OC(=O)C(C=1C=CC(=C(F)C1)C=2C=CC=CC2)C)C)C",
        "Molecular Formula": "C<sub>19</sub>H<sub>19</sub>FO<sub>4</sub>",
        "Molecular Mass": "330.35",
        "Boiling Point": "174 °C @ Press: 0.8 Torr"
    }
}