{
    "cas_no": "1321-40-0",
    "key_name": "Quinolinol",
    "cn_name": null,
    "alternate_name": "Quinolinol;Quinoline, hydroxy-",
    "duplicated_cas_no": "856581-35-6;1007366-67-7",
    "SMILES": "",
    "meta_data": {
        "InChI": "",
        "InChIKey": null,
        "Canonical SMILES": "",
        "Molecular Formula": "C<sub>9</sub>H<sub>7</sub>NO",
        "Molecular Mass": "",
        "Melting Point": "~320 °C (approx)"
    }
}