{
    "cas_no": "15397-15-6",
    "key_name": "β-<span class=\"text-smallcaps\">D</span>-Ribofuranose, 2-<em>C</em>-methyl-, 1,2,3,5-tetrabenzoate",
    "cn_name": "1,2,3,5-四苯甲酰氧基-2-C-甲基-beta-D-呋喃核糖;",
    "alternate_name": "β-<span class=\"text-smallcaps\">D</span>-Ribofuranose, 2-<em>C</em>-methyl-, 1,2,3,5-tetrabenzoate;Ribofuranose, 2-<em>C</em>-methyl-, tetrabenzoate, β-<span class=\"text-smallcaps\">D</span>-;β-<span class=\"text-smallcaps\">D</span>-Ribofuranose, 2-<em>C</em>-methyl-, tetrabenzoate;1,2,3,5-Tetra-<em>O</em>-benzoyl-2-C-methyl-β-<span class=\"text-smallcaps\">D</span>-ribofuranose",
    "duplicated_cas_no": "",
    "SMILES": "O(C(=O)C1=CC=CC=C1)[C@H]2[C@](OC(=O)C3=CC=CC=C3)(C)[C@H](OC(=O)C4=CC=CC=C4)O[C@@H]2COC(=O)C5=CC=CC=C5",
    "meta_data": {
        "InChI": "InChI=1S/C34H28O9/c1-34(43-32(38)26-20-12-5-13-21-26)28(41-30(36)24-16-8-3-9-17-24)27(22-39-29(35)23-14-6-2-7-15-23)40-33(34)42-31(37)25-18-10-4-11-19-25/h2-21,27-28,33H,22H2,1H3/t27-,28-,33+,34-/m1/s1",
        "InChIKey": null,
        "Canonical SMILES": "O=C(OCC1OC(OC(=O)C=2C=CC=CC2)C(OC(=O)C=3C=CC=CC3)(C)C1OC(=O)C=4C=CC=CC4)C=5C=CC=CC5",
        "Molecular Formula": "C<sub>34</sub>H<sub>28</sub>O<sub>9</sub>",
        "Molecular Mass": "580.58",
        "Melting Point": "155-156 °C"
    }
}