{
    "cas_no": "959-28-4",
    "key_name": "<em>trans</em>-1,2-Dibenzoylethylene",
    "cn_name": null,
    "alternate_name": "2-Butene-1,4-dione, 1,4-diphenyl-, (2<em>E</em>)-;2-Butene-1,4-dione, 1,4-diphenyl-, (<em>E</em>)-;2-Butene-1,4-dione, 1,4-diphenyl-, <em>trans</em>-;(2<em>E</em>)-1,4-Diphenyl-2-butene-1,4-dione;<em>trans</em>-1,4-Diphenyl-2-butene-1,4-dione;<em>trans</em>-1,2-Dibenzoylethylene;<em>trans</em>-Dibenzoylethylene;(<em>E</em>)-1,2-Dibenzoylethylene;<em>trans</em>-1,2-Dibenzoylethene;<em>trans</em>-Dibenzoylethene;<em>trans</em>-1,2-Bis(benzoyl)ethylene;(<em>E</em>)-1,2-Dibenzoylethene;(<em>E</em>)-Dibenzoylethylene;(<em>E</em>)-1,4-Diphenyl-2-butene-1,4-dione;NSC 1983;(2<em>E</em>)-1,4-Diphenylbut-2-ene-1,4-dione",
    "duplicated_cas_no": "",
    "SMILES": "C(/C=C/C(=O)C1=CC=CC=C1)(=O)C2=CC=CC=C2",
    "meta_data": {
        "InChI": "InChI=1S/C16H12O2/c17-15(13-7-3-1-4-8-13)11-12-16(18)14-9-5-2-6-10-14/h1-12H/b12-11+",
        "InChIKey": null,
        "Canonical SMILES": "O=C(C=CC(=O)C=1C=CC=CC1)C=2C=CC=CC2",
        "Molecular Formula": "C<sub>16</sub>H<sub>12</sub>O<sub>2</sub>",
        "Molecular Mass": "236.27",
        "Melting Point": "111 °C"
    }
}