{
    "cas_no": "13754-56-8",
    "key_name": "Dioxopromethazine",
    "cn_name": "盐酸二氧丙嗪;10-(2-二甲氨基-异丙基)吩噻嗪-5,5-二氧化物的盐酸盐;",
    "alternate_name": "10<em>H</em>-Phenothiazine-10-ethanamine, <em>N</em>,<em>N</em>,α-trimethyl-, 5,5-dioxide;Phenothiazine, 10-[2-(dimethylamino)propyl]-, 5,5-dioxide;Promethazine 5,5-dioxide;Prothanon;9,9-Dioxopromethazine;9,9-Dioxypromethazin;Dioxopromethazine;1-(5,5-Dioxophenothiazin-10-yl)-<em>N</em>,<em>N</em>-dimethylpropan-2-amine",
    "duplicated_cas_no": "",
    "SMILES": "C(C(N(C)C)C)N1C=2C(S(=O)(=O)C=3C1=CC=CC3)=CC=CC2",
    "meta_data": {
        "InChI": "InChI=1S/C17H20N2O2S/c1-13(18(2)3)12-19-14-8-4-6-10-16(14)22(20,21)17-11-7-5-9-15(17)19/h4-11,13H,12H2,1-3H3",
        "InChIKey": null,
        "Canonical SMILES": "O=S1(=O)C=2C=CC=CC2N(C=3C=CC=CC31)CC(N(C)C)C",
        "Molecular Formula": "C<sub>17</sub>H<sub>20</sub>N<sub>2</sub>O<sub>2</sub>S",
        "Molecular Mass": "316.42",
        "Melting Point": "127-129 °C"
    }
}