{
    "cas_no": "57602-02-5",
    "key_name": "1,14-Dibromo-3,6,9,12-tetraoxatetradecane",
    "cn_name": null,
    "alternate_name": "3,6,9,12-Tetraoxatetradecane, 1,14-dibromo-;1,14-Dibromo-3,6,9,12-tetraoxatetradecane;1,2-Bis[2-(2-bromoethoxy)ethoxy]ethane",
    "duplicated_cas_no": "",
    "SMILES": "C(COCCOCCBr)OCCOCCBr",
    "meta_data": {
        "InChI": "InChI=1S/C10H20Br2O4/c11-1-3-13-5-7-15-9-10-16-8-6-14-4-2-12/h1-10H2",
        "InChIKey": null,
        "Canonical SMILES": "BrCCOCCOCCOCCOCCBr",
        "Molecular Formula": "C<sub>10</sub>H<sub>20</sub>Br<sub>2</sub>O<sub>4</sub>",
        "Molecular Mass": "364.07",
        "Boiling Point": "169-173 °C @ Press: 1.8 Torr"
    }
}