{
    "cas_no": "716-61-0",
    "key_name": "Chloramphenicol base",
    "cn_name": null,
    "alternate_name": "1,3-Propanediol, 2-amino-1-(4-nitrophenyl)-, (1<em>R</em>,2<em>R</em>)-;1,3-Propanediol, 2-amino-1-(<em>p</em>-nitrophenyl)-, <span class=\"text-smallcaps\">D</span>-<em>threo</em>-(-)-;1,3-Propanediol, 2-amino-1-(4-nitrophenyl)-, [<em>R</em>-(<em>R</em>*,<em>R</em>*)]-;(1<em>R</em>,2<em>R</em>)-2-Amino-1-(4-nitrophenyl)-1,3-propanediol;(-)-<em>threo</em>-1-(<em>p</em>-Nitrophenyl)-2-amino-1,3-propanediol;<span class=\"text-smallcaps\">D</span>-(-)-<em>trans</em>-1-<em>p</em>-Nitrophenyl-2-amino-1,3-propanediol;<span class=\"text-smallcaps\">D</span>-<em>threo</em>-2-Amino-1-(<em>p</em>-nitrophenyl)-1,3-propanediol;<span class=\"text-smallcaps\">D</span>-<em>threo</em>-(1<em>R</em>,2<em>R</em>)-1-<em>p</em>-Nitrophenyl-2-amino-1,3-propanediol;<span class=\"text-smallcaps\">D</span>-(-)-<em>threo</em>-1-<em>p</em>-Nitrophenyl-2-amino-1,3-propanediol;Chloramphenicol base;Levoamine;Chloramphenicol D base;<span class=\"text-smallcaps\">D</span>-<em>threo</em>-(-)-2-Amino-1-(4-nitrophenyl)-1,3-propanediol;<span class=\"text-smallcaps\">D</span>-<em>threo</em>-2-Amino-1-(4-nitrophenyl)-1,3-propanediol;<span class=\"text-smallcaps\">D</span>-1-(<em>p</em>-Nitrophenyl)-2-aminopropane-1,3-diol;(1<em>R</em>,2<em>R</em>)-(-)-2-Amino-1-(4-nitrophenyl)-1,3-propanediol;(1<em>R</em>,2<em>R</em>)-<em>threo</em>-(-)-1-(4-Nitrophenyl)-2-amino-1,3-propanediol;(1R,2R)-(-)-2-Amino-1-(4-nitrophenyl)-1,3-propanediol;(1R,2R)-2-Amino-1-(4-nitrophenyl)-1,3-propanediol",
    "duplicated_cas_no": "7008-69-7;21792-00-7;21792-01-8;25126-23-2;213530-48-4",
    "SMILES": "[C@@H]([C@@H](CO)N)(O)C1=CC=C(N(=O)=O)C=C1",
    "meta_data": {
        "InChI": "InChI=1S/C9H12N2O4/c10-8(5-12)9(13)6-1-3-7(4-2-6)11(14)15/h1-4,8-9,12-13H,5,10H2/t8-,9-/m1/s1",
        "InChIKey": null,
        "Canonical SMILES": "O=N(=O)C1=CC=C(C=C1)C(O)C(N)CO",
        "Molecular Formula": "C<sub>9</sub>H<sub>12</sub>N<sub>2</sub>O<sub>4</sub>",
        "Molecular Mass": "212.20",
        "Melting Point": "162-163 °C"
    }
}