{
    "cas_no": "68-41-7",
    "key_name": "(+)-Cycloserine",
    "cn_name": "D-环丝氨酸;",
    "alternate_name": "3-Isoxazolidinone, 4-amino-, (4<em>R</em>)-;3-Isoxazolidinone, 4-amino-, (+)-;3-Isoxazolidinone, 4-amino-, (<em>R</em>)-;(4<em>R</em>)-4-Amino-3-isoxazolidinone;<span class=\"text-smallcaps\">D</span>-4-Amino-3-isoxazolidone;Cyclo-<span class=\"text-smallcaps\">D</span>-serine;Oxamycin;<em>d</em>-4-Amino-3-isoxazolidinone;<span class=\"text-smallcaps\">D</span>-4-Amino-3-isoxazolidinone;(+)-Cycloserine;α-Cycloserine;Cycloserine;Orientomycin;Cyclorin;Farmiserina;Tisomycin;Miroseryn;Wasserina;Novoserin;<span class=\"text-smallcaps\">D</span>-Cycloserine;(<em>R</em>)-(+)-Cycloserine;(<em>R</em>)-Cycloserine;D-CS;Seromycin;(<em>R</em>)-4-Amino-3-isoxazolidinone;Closerin;Micoserina;PA 94;Closina;NSC 154851;NSC 76029;(R)-4-Aminoisoxazolidin-3-one;(4R)-4-Amino-1,2-oxazolidin-3-one;MeSH ID: D003523",
    "duplicated_cas_no": "",
    "SMILES": "N[C@H]1C(=O)NOC1",
    "meta_data": {
        "InChI": "InChI=1S/C3H6N2O2/c4-2-1-7-5-3(2)6/h2H,1,4H2,(H,5,6)/t2-/m1/s1",
        "InChIKey": null,
        "Canonical SMILES": "O=C1NOCC1N",
        "Molecular Formula": "C<sub>3</sub>H<sub>6</sub>N<sub>2</sub>O<sub>2</sub>",
        "Molecular Mass": "102.09",
        "Melting Point": "155-156 °C (decomp)"
    }
}