{
    "cas_no": "3949-36-8",
    "key_name": "3-Acetylcoumarin",
    "cn_name": "3-乙酰基香豆素;3-乙酰香豆素;",
    "alternate_name": "2<em>H</em>-1-Benzopyran-2-one, 3-acetyl-;Coumarin, 3-acetyl-;3-Acetyl-2<em>H</em>-1-benzopyran-2-one;3-Acetylcoumarin;3-Acetylbenzopyran-2-one;NSC 31678;3-Acetyl-2<em>H</em>-chromen-2-one;3-Acetyl-chromen-2-one;3-Acetylchromen-2-one",
    "duplicated_cas_no": "",
    "SMILES": "C(C)(=O)C1=CC=2C(OC1=O)=CC=CC2",
    "meta_data": {
        "InChI": "InChI=1S/C11H8O3/c1-7(12)9-6-8-4-2-3-5-10(8)14-11(9)13/h2-6H,1H3",
        "InChIKey": null,
        "Canonical SMILES": "O=C1OC=2C=CC=CC2C=C1C(=O)C",
        "Molecular Formula": "C<sub>11</sub>H<sub>8</sub>O<sub>3</sub>",
        "Molecular Mass": "188.18",
        "Melting Point": "122 °C"
    }
}