{
    "cas_no": "3248-05-3",
    "key_name": "4,7-Dimethyl-1,10-phenanthroline",
    "cn_name": "4,7-二甲基-1,10-菲咯啉;4,7-二甲基-1,10-菲罗啉;4,7-二甲基-1,10-邻二氮杂菲;",
    "alternate_name": "1,10-Phenanthroline, 4,7-dimethyl-;4,7-Dimethyl-1,10-phenanthroline;4,7-Dimethyl-<em>o</em>-phenanthroline;NSC 4281",
    "duplicated_cas_no": "71958-79-7",
    "SMILES": "CC=1C=2C(=C3C(=CC2)C(C)=CC=N3)N=CC1",
    "meta_data": {
        "InChI": "InChI=1S/C14H12N2/c1-9-5-7-15-13-11(9)3-4-12-10(2)6-8-16-14(12)13/h3-8H,1-2H3",
        "InChIKey": null,
        "Canonical SMILES": "N=1C=CC(=C2C=CC3=C(N=CC=C3C)C12)C",
        "Molecular Formula": "C<sub>14</sub>H<sub>12</sub>N<sub>2</sub>",
        "Molecular Mass": "208.26",
        "Melting Point": "194-195 °C"
    }
}