{
    "cas_no": "1006-94-6",
    "key_name": "5-Methoxyindole",
    "cn_name": "5-甲氧基吲哚;",
    "alternate_name": "1<em>H</em>-Indole, 5-methoxy-;Indole, 5-methoxy-;5-Methoxy-1<em>H</em>-indole;5-Methoxyindole;Femedol;NSC 521752;Indol-5-yl methyl ether",
    "duplicated_cas_no": "",
    "SMILES": "O(C)C=1C=C2C(=CC1)NC=C2",
    "meta_data": {
        "InChI": "InChI=1S/C9H9NO/c1-11-8-2-3-9-7(6-8)4-5-10-9/h2-6,10H,1H3",
        "InChIKey": null,
        "Canonical SMILES": "O(C=1C=CC=2NC=CC2C1)C",
        "Molecular Formula": "C<sub>9</sub>H<sub>9</sub>NO",
        "Molecular Mass": "147.17",
        "Boiling Point": "176-178 °C",
        "Melting Point": "56-58 °C"
    }
}