{
    "cas_no": "54998-00-4",
    "key_name": "5-Morpholino-2-nitroaniline",
    "cn_name": "4-(3-氨基-4-硝基苯基)吗啉;5-吗啉基-2-硝基苯胺;",
    "alternate_name": "Benzenamine, 5-(4-morpholinyl)-2-nitro-;5-(4-Morpholinyl)-2-nitrobenzenamine;5-Morpholino-2-nitroaniline;<em>N</em>-(3-Amino-4-nitrophenyl)morpholine;5-(Morpholin-4-yl)-2-nitrophenylamine;AMA 30;5-(4-Morpholinyl)-2-nitroaniline;4-(3-Amino-4-nitrophenyl)morpholine;5-Morpholino-2-nitrobenzenamine",
    "duplicated_cas_no": "",
    "SMILES": "NC=1C=C(C=CC1N(=O)=O)N2CCOCC2",
    "meta_data": {
        "InChI": "InChI=1S/C10H13N3O3/c11-9-7-8(1-2-10(9)13(14)15)12-3-5-16-6-4-12/h1-2,7H,3-6,11H2",
        "InChIKey": null,
        "Canonical SMILES": "O=N(=O)C1=CC=C(C=C1N)N2CCOCC2",
        "Molecular Formula": "C<sub>10</sub>H<sub>13</sub>N<sub>3</sub>O<sub>3</sub>",
        "Molecular Mass": "223.23",
        "Melting Point": "187.5 °C"
    }
}