{
    "cas_no": "501-68-8",
    "key_name": "Beclamide",
    "cn_name": "贝克拉胺;苄氯丙酰胺;氯丙酰苄胺;",
    "alternate_name": "Propanamide, 3-chloro-<em>N</em>-(phenylmethyl)-;Propionamide, <em>N</em>-benzyl-3-chloro-;3-Chloro-<em>N</em>-(phenylmethyl)propanamide;Beclamide;<em>N</em>-Benzyl-β-chloropropanamide;<em>N</em>-Benzyl-β-chloropropionamide;<em>N</em>-Benzyl-3-chloropropionamide;Chloracon;Chloroethylphenamide;Hibicon;Nydrane;Posedrine;<em>N</em>-(3-Chloropropionyl)benzylamine;Nidrane;Seclar;Chlorakon;Nydran;Beklamid;Beclamid;Neuracen;NSC 67062",
    "duplicated_cas_no": "",
    "SMILES": "C(NC(CCCl)=O)C1=CC=CC=C1",
    "meta_data": {
        "InChI": "InChI=1S/C10H12ClNO/c11-7-6-10(13)12-8-9-4-2-1-3-5-9/h1-5H,6-8H2,(H,12,13)",
        "InChIKey": null,
        "Canonical SMILES": "O=C(NCC=1C=CC=CC1)CCCl",
        "Molecular Formula": "C<sub>10</sub>H<sub>12</sub>ClNO",
        "Molecular Mass": "197.66",
        "Melting Point": "94 °C"
    }
}