{
    "cas_no": "3801-89-6",
    "key_name": "1-(3-Fluorophenyl)piperazine",
    "cn_name": null,
    "alternate_name": "Piperazine, 1-(3-fluorophenyl)-;Piperazine, 1-(<em>m</em>-fluorophenyl)-;1-(3-Fluorophenyl)piperazine;<em>N</em>-(3-Fluorophenyl)piperazine;1-(<em>m</em>-Fluorophenyl)piperazine;4-(3-Fluorophenyl)piperazine",
    "duplicated_cas_no": "",
    "SMILES": "FC=1C=C(C=CC1)N2CCNCC2",
    "meta_data": {
        "InChI": "InChI=1S/C10H13FN2/c11-9-2-1-3-10(8-9)13-6-4-12-5-7-13/h1-3,8,12H,4-7H2",
        "InChIKey": null,
        "Canonical SMILES": "FC1=CC=CC(=C1)N2CCNCC2",
        "Molecular Formula": "C<sub>10</sub>H<sub>13</sub>FN<sub>2</sub>",
        "Molecular Mass": "180.22",
        "Boiling Point": "145-155 °C @ Press: 3 Torr"
    }
}