{
    "cas_no": "1199-20-8",
    "key_name": "β-Methylcinnamic acid",
    "cn_name": "3-苯基丁-2-烯酸;",
    "alternate_name": "2-Butenoic acid, 3-phenyl-;Cinnamic acid, β-methyl-;3-Phenyl-2-butenoic acid;β-Methylcinnamic acid;3-Phenylcrotonic acid;NSC 16625;3-Phenylbut-2-enoic acid",
    "duplicated_cas_no": "",
    "SMILES": "C(=CC(O)=O)(C)C1=CC=CC=C1",
    "meta_data": {
        "InChI": "InChI=1S/C10H10O2/c1-8(7-10(11)12)9-5-3-2-4-6-9/h2-7H,1H3,(H,11,12)",
        "InChIKey": null,
        "Canonical SMILES": "O=C(O)C=C(C=1C=CC=CC1)C",
        "Molecular Formula": "C<sub>10</sub>H<sub>10</sub>O<sub>2</sub>",
        "Molecular Mass": "162.19",
        "Boiling Point": "125-170 °C @ Press: 20 Torr",
        "Melting Point": "98.5 °C"
    }
}