{
    "cas_no": "684-16-2",
    "key_name": "Hexafluoroacetone",
    "cn_name": "六氟丙酮;全氟丙酮;",
    "alternate_name": "2-Propanone, 1,1,1,3,3,3-hexafluoro-;2-Propanone, hexafluoro-;1,1,1,3,3,3-Hexafluoro-2-propanone;GC 7887;Perfluoroacetone;Hexafluoroacetone;Perfluoro-2-propanone;Hexafluoro-2-propanone;Bis(trifluoromethyl) ketone;1,1,1,3,3,3-Hexafluoroacetone;NSC 202438;Hexafluoropropanone",
    "duplicated_cas_no": "",
    "SMILES": "C(C(F)(F)F)(C(F)(F)F)=O",
    "meta_data": {
        "InChI": "InChI=1S/C3F6O/c4-2(5,6)1(10)3(7,8)9",
        "InChIKey": null,
        "Canonical SMILES": "O=C(C(F)(F)F)C(F)(F)F",
        "Molecular Formula": "C<sub>3</sub>F<sub>6</sub>O",
        "Molecular Mass": "166.02",
        "Boiling Point": "-27 °C",
        "Melting Point": "-129 °C",
        "Density": "1.33 g/cm³ @ Temp: 25 °C"
    }
}