{
    "cas_no": "4476-28-2",
    "key_name": "4-(1-Methylethyl)benzeneacetic acid",
    "cn_name": null,
    "alternate_name": "Benzeneacetic acid, 4-(1-methylethyl)-;<em>p</em>-Cymene-7-carboxylic acid;4-(1-Methylethyl)benzeneacetic acid;<em>p</em>-Isopropylphenylacetic acid;2-(4-Isopropylphenyl)acetic acid;4-(Propan-2-yl)phenylacetic acid;2-(4-Propan-2-ylphenyl)acetic acid;2-[4-(Propan-2-yl)phenyl]acetic acid",
    "duplicated_cas_no": "",
    "SMILES": "C(C(O)=O)C1=CC=C(C(C)C)C=C1",
    "meta_data": {
        "InChI": "InChI=1S/C11H14O2/c1-8(2)10-5-3-9(4-6-10)7-11(12)13/h3-6,8H,7H2,1-2H3,(H,12,13)",
        "InChIKey": null,
        "Canonical SMILES": "O=C(O)CC1=CC=C(C=C1)C(C)C",
        "Molecular Formula": "C<sub>11</sub>H<sub>14</sub>O<sub>2</sub>",
        "Molecular Mass": "178.23",
        "Boiling Point": "170-174 °C @ Press: 14 Torr",
        "Melting Point": "38-40 °C"
    }
}