{
    "cas_no": "612-71-5",
    "key_name": "1,3,5-Triphenylbenzene",
    "cn_name": "1,3,5-三苯基苯;",
    "alternate_name": "1,1′:3′,1′′-Terphenyl, 5′-phenyl-;<em>m</em>-Terphenyl, 5′-phenyl-;5′-Phenyl-1,1′:3′,1′′-terphenyl;Benzene, 1,3,5-triphenyl-;1,3,5-Triphenylbenzene;1,1′-Biphenyl, 3,5-diphenyl-;5′-Phenyl-<em>m</em>-terphenyl;NSC 17358",
    "duplicated_cas_no": "",
    "SMILES": "C1(=CC(=CC(=C1)C2=CC=CC=C2)C3=CC=CC=C3)C4=CC=CC=C4",
    "meta_data": {
        "InChI": "InChI=1S/C24H18/c1-4-10-19(11-5-1)22-16-23(20-12-6-2-7-13-20)18-24(17-22)21-14-8-3-9-15-21/h1-18H",
        "InChIKey": null,
        "Canonical SMILES": "C=1C=CC(=CC1)C2=CC(=CC(=C2)C=3C=CC=CC3)C=4C=CC=CC4",
        "Molecular Formula": "C<sub>24</sub>H<sub>18</sub>",
        "Molecular Mass": "306.40",
        "Boiling Point": "462 °C",
        "Melting Point": "176 °C",
        "Density": "1.199 g/cm³"
    }
}