{
    "cas_no": "22839-47-0",
    "key_name": "Aspartame",
    "cn_name": "阿斯巴甜;阿司帕坦;L-天冬氨酰-L-苯丙氨酸甲酯;",
    "alternate_name": "<span class=\"text-smallcaps\">L</smallcap>-Phenylalanine, <smallcap>L</span>-α-aspartyl-, 2-methyl ester;Succinamic acid, 3-amino-<em>N</em>-(α-carboxyphenethyl)-, <em>N</em>-methyl ester, stereoisomer;<span class=\"text-smallcaps\">L</smallcap>-Phenylalanine, <em>N</em>-<smallcap>L</span>-α-aspartyl-, 1-methyl ester;<span class=\"text-smallcaps\">L</smallcap>-Aspartyl-<smallcap>L</span>-phenylalanine methyl ester;Aspartylphenylalanine methyl ester;<span class=\"text-smallcaps\">L</smallcap>-α-Aspartyl-<smallcap>L</span>-phenylalanine methyl ester;<span class=\"text-smallcaps\">L</smallcap>-Aspartyl-<smallcap>L</span>-3-phenylalanine methyl ester;α-<span class=\"text-smallcaps\">L</smallcap>-Aspartyl-<smallcap>L</span>-phenylalanine methyl ester;Methyl aspartylphenylalanate;Sweet dipeptide;Aspartame;<span class=\"text-smallcaps\">L</smallcap>-Aspartyl-<smallcap>L</span>-phenylalanyl methyl ester;Canderel;Dipeptide sweetener;α-Sweet;NutraSweet;Palsweet Diet;E 951;Pal Sweet;Equal;α-Aspartame;<span class=\"text-smallcaps\">L</span>-Aspartame;Finn;Zero-Cal;Sladex;Pal Sweet Diet G 100;SWD 8029;MeSH ID: D001218",
    "duplicated_cas_no": "7421-84-3;53906-69-7;172964-81-7",
    "SMILES": "[C@@H](CC1=CC=CC=C1)(NC([C@H](CC(O)=O)N)=O)C(OC)=O",
    "meta_data": {
        "InChI": "InChI=1S/C14H18N2O5/c1-21-14(20)11(7-9-5-3-2-4-6-9)16-13(19)10(15)8-12(17)18/h2-6,10-11H,7-8,15H2,1H3,(H,16,19)(H,17,18)/t10-,11-/m0/s1",
        "InChIKey": null,
        "Canonical SMILES": "O=C(O)CC(N)C(=O)NC(C(=O)OC)CC=1C=CC=CC1",
        "Molecular Formula": "C<sub>14</sub>H<sub>18</sub>N<sub>2</sub>O<sub>5</sub>",
        "Molecular Mass": "294.30",
        "Melting Point": "246-247 °C"
    }
}