{
    "cas_no": "540-07-8",
    "key_name": "Pentyl hexanoate",
    "cn_name": "己酸戊酯;正己酸正戊酯;",
    "alternate_name": "Hexanoic acid, pentyl ester;Amyl caproate;<em>n</em>-Amyl caproate;Amyl hexanoate;Pentyl hexanoate;Amyl capronate;Pentyl caproate;<em>n</em>-Pentyl hexanoate;NSC 46119;NSC 53794",
    "duplicated_cas_no": "",
    "SMILES": "C(OCCCCC)(CCCCC)=O",
    "meta_data": {
        "InChI": "InChI=1S/C11H22O2/c1-3-5-7-9-11(12)13-10-8-6-4-2/h3-10H2,1-2H3",
        "InChIKey": null,
        "Canonical SMILES": "O=C(OCCCCC)CCCCC",
        "Molecular Formula": "C<sub>11</sub>H<sub>22</sub>O<sub>2</sub>",
        "Molecular Mass": "186.29",
        "Boiling Point": "226 °C",
        "Melting Point": "-47 °C",
        "Density": "0.8801 g/cm³ @ Temp: 0 °C"
    }
}