{
    "cas_no": "1403-66-3",
    "key_name": "Gentamicin",
    "cn_name": "庆大霉素;",
    "alternate_name": "Gentamicin;Gentamycin;Gentavet;Gentacycol;Gentalline;Oksitselanim;Lyramycin;Septigen;Centicin;Gentamycins",
    "duplicated_cas_no": "",
    "SMILES": "",
    "meta_data": {
        "InChI": "",
        "InChIKey": null,
        "Canonical SMILES": "",
        "Molecular Formula": "Unspecified",
        "Molecular Mass": "",
        "Melting Point": "102-108 °C"
    }
}