{
    "uri": "substance/pt/1403663",
    "rn": "1403-66-3",
    "name": "Gentamicin",
    "images": [],
    "inchi": "",
    "inchiKey": "",
    "smile": "",
    "canonicalSmile": "",
    "molecularFormula": "Unspecified",
    "molecularMass": "",
    "experimentalProperties": [
        {
            "name": "Melting Point",
            "property": "102-108 °C",
            "sourceNumber": 1
        }
    ],
    "propertyCitations": [
        {
            "docUri": "",
            "sourceNumber": 1,
            "source": "Hazardous Substances Data Bank data were obtained from the National Library of Medicine (US)"
        }
    ],
    "synonyms": [
        "Gentamicin",
        "Gentamycin",
        "Gentavet",
        "Gentacycol",
        "Gentalline",
        "Oksitselanim",
        "Lyramycin",
        "Septigen",
        "Centicin",
        "Gentamycins"
    ],
    "replacedRns": [],
    "hasMolfile": false,
    "source": "https://commonchemistry.cas.org/detail?cas_rn=1403-66-3"
}