{
    "cas_no": "54586-78-6",
    "key_name": "(Methacryloxymethyl)trimethoxysilane",
    "cn_name": null,
    "alternate_name": "2-Propenoic acid, 2-methyl-, (trimethoxysilyl)methyl ester;(Methacryloxymethyl)trimethoxysilane;Geniosil XL 33;Methacryloxy methylene trimethoxysilane;(Methacryloyloxymethyl)trimethoxysilane;Geniosil XL33;(Trimethoxysilyl)methyl 2-methylacrylate;α-570;Trimethoxysilylmethyl methacrylate;(Trimethoxysilyl)methyl 2-methacrylate;X 12-1303MS",
    "duplicated_cas_no": "",
    "SMILES": "[Si](COC(C(C)=C)=O)(OC)(OC)OC",
    "meta_data": {
        "InChI": "InChI=1S/C8H16O5Si/c1-7(2)8(9)13-6-14(10-3,11-4)12-5/h1,6H2,2-5H3",
        "InChIKey": null,
        "Canonical SMILES": "O=C(OC[Si](OC)(OC)OC)C(=C)C",
        "Molecular Formula": "C<sub>8</sub>H<sub>16</sub>O<sub>5</sub>Si",
        "Molecular Mass": "220.30",
        "Boiling Point": "48-50 °C @ Press: 2 Torr",
        "Density": "1.07 g/cm³"
    }
}