{
    "cas_no": "111406-87-2",
    "key_name": "Zileuton",
    "cn_name": "齐留通;N-羟基-N-(1-苯并噻吩-2-基-乙基)脲;",
    "alternate_name": "Urea, <em>N</em>-(1-benzo[<em>b</em>]thien-2-ylethyl)-<em>N</em>-hydroxy-;<em>N</em>-(1-Benzo[<em>b</em>]thien-2-ylethyl)-<em>N</em>-hydroxyurea;Zileuton;A 64077;Abbott 64077;Zyflo;Leutrol;Griluto-CR;1-[1-(1-Benzothiophen-2-yl)ethyl]-1-hydroxyurea",
    "duplicated_cas_no": "133305-01-8;154003-29-9",
    "SMILES": "C(N(C(N)=O)O)(C)C1=CC=2C(S1)=CC=CC2",
    "meta_data": {
        "InChI": "InChI=1S/C11H12N2O2S/c1-7(13(15)11(12)14)10-6-8-4-2-3-5-9(8)16-10/h2-7,15H,1H3,(H2,12,14)",
        "InChIKey": null,
        "Canonical SMILES": "O=C(N)N(O)C(C=1SC=2C=CC=CC2C1)C",
        "Molecular Formula": "C<sub>11</sub>H<sub>12</sub>N<sub>2</sub>O<sub>2</sub>S",
        "Molecular Mass": "236.29",
        "Melting Point": "157-158 °C"
    }
}