{
    "cas_no": "50-67-9",
    "key_name": "Serotonin",
    "cn_name": "5-羟基色胺;3-(2-氨基乙基)吲哚-5-醇;",
    "alternate_name": "1<em>H</em>-Indol-5-ol, 3-(2-aminoethyl)-;Indol-5-ol, 3-(2-aminoethyl)-;3-(2-Aminoethyl)-1<em>H</em>-indol-5-ol;5-HT;3-(β-Aminoethyl)-5-hydroxyindole;3-(2-Aminoethyl)indol-5-ol;DS substance;Enteramine;5-HTA;5-Hydroxy-3-(β-aminoethyl)indole;5-Hydroxytryptamine;Serotonin;Substance DS;Thrombocytin;Thrombotonin;Tryptamine, 5-hydroxy-;Enteramin;5-Hydroxyltryptamine;5-Hydroxytriptamine;MeSH ID: D012701",
    "duplicated_cas_no": "33361-47-6",
    "SMILES": "C(CN)C=1C=2C(NC1)=CC=C(O)C2",
    "meta_data": {
        "InChI": "InChI=1S/C10H12N2O/c11-4-3-7-6-12-10-2-1-8(13)5-9(7)10/h1-2,5-6,12-13H,3-4,11H2",
        "InChIKey": null,
        "Canonical SMILES": "OC=1C=CC=2NC=C(C2C1)CCN",
        "Molecular Formula": "C<sub>10</sub>H<sub>12</sub>N<sub>2</sub>O",
        "Molecular Mass": "176.22",
        "Melting Point": "167.5 °C"
    }
}