{
    "cas_no": "88899-55-2",
    "key_name": "Bafilomycin A<sub>1</sub>",
    "cn_name": "巴佛洛霉素 A1;",
    "alternate_name": "Oxacyclohexadeca-3,5,11,13-tetraen-2-one, 8-hydroxy-16-[(1<em>S</em>,2<em>R</em>,3<em>S</em>)-2-hydroxy-1-methyl-3-[(2<em>R</em>,4<em>R</em>,5<em>S</em>,6<em>R</em>)-tetrahydro-2,4-dihydroxy-5-methyl-6-(1-methylethyl)-2<em>H</em>-pyran-2-yl]butyl]-3,15-dimethoxy-5,7,9,11-tetramethyl-, (3<em>Z</em>,5<em>E</em>,7<em>R</em>,8<em>S</em>,9<em>S</em>,11<em>E</em>,13<em>E</em>,15<em>S</em>,16<em>R</em>)-;Hygrolidin, 21-<em>O</em>-de(3-carboxy-1-oxo-2-propenyl)-2-demethyl-2-methoxy-24-methyl-;Oxacyclohexadecane, hygrolidin deriv.;(3<em>Z</em>,5<em>E</em>,7<em>R</em>,8<em>S</em>,9<em>S</em>,11<em>E</em>,13<em>E</em>,15<em>S</em>,16<em>R</em>)-8-Hydroxy-16-[(1<em>S</em>,2<em>R</em>,3<em>S</em>)-2-hydroxy-1-methyl-3-[(2<em>R</em>,4<em>R</em>,5<em>S</em>,6<em>R</em>)-tetrahydro-2,4-dihydroxy-5-methyl-6-(1-methylethyl)-2<em>H</em>-pyran-2-yl]butyl]-3,15-dimethoxy-5,7,9,11-tetramethyloxacyclohexadeca-3,5,11,13-tetraen-2-one;Bafilomycin A<sub>1</sub>;Oxacyclohexadeca-3,5,11,13-tetraen-2-one, 8-hydroxy-16-[2-hydroxy-1-methyl-3-[tetrahydro-2,4-dihydroxy-5-methyl-6-(1-methylethyl)-2<em>H</em>-pyran-2-yl]butyl]-3,15-dimethoxy-5,7,9,11-tetramethyl-, [7<em>R</em>-[3<em>Z</em>,5<em>E</em>,7<em>R</em>*,8<em>S</em>*,9<em>S</em>*,11<em>E</em>,13<em>E</em>,15<em>S</em>*,16<em>R</em>*[1<em>S</em>*,2<em>R</em>*,3<em>S</em>*(2<em>R</em>*,4<em>R</em>*,5<em>S</em>*,6<em>R</em>*)]]]-;(-)-Bafilomycin A<sub>1</sub>;NSC 381866",
    "duplicated_cas_no": "",
    "SMILES": "",
    "meta_data": {
        "InChI": "",
        "InChIKey": null,
        "Canonical SMILES": "",
        "Molecular Formula": "C<sub>35</sub>H<sub>58</sub>O<sub>9</sub>",
        "Molecular Mass": "622.83",
        "Melting Point": "96-97 °C"
    }
}