{
    "cas_no": "35620-72-5",
    "key_name": "2-(Phenylthio)-3-pyridinecarboxylic acid",
    "cn_name": null,
    "alternate_name": "3-Pyridinecarboxylic acid, 2-(phenylthio)-;2-(Phenylthio)-3-pyridinecarboxylic acid;2-(Phenylthio)nicotinic acid;2-Phenylthio-3-pyridinecarboxylic acid;2-(Phenylsulfanyl)pyridine-3-carboxylic acid",
    "duplicated_cas_no": "",
    "SMILES": "S(C1=C(C(O)=O)C=CC=N1)C2=CC=CC=C2",
    "meta_data": {
        "InChI": "InChI=1S/C12H9NO2S/c14-12(15)10-7-4-8-13-11(10)16-9-5-2-1-3-6-9/h1-8H,(H,14,15)",
        "InChIKey": null,
        "Canonical SMILES": "O=C(O)C1=CC=CN=C1SC=2C=CC=CC2",
        "Molecular Formula": "C<sub>12</sub>H<sub>9</sub>NO<sub>2</sub>S",
        "Molecular Mass": "231.27",
        "Melting Point": "171-171.5 °C"
    }
}