{
    "cas_no": "2196-18-1",
    "key_name": "β-Hydroxypropiovanillone",
    "cn_name": null,
    "alternate_name": "1-Propanone, 3-hydroxy-1-(4-hydroxy-3-methoxyphenyl)-;Propiophenone, 3,4′-dihydroxy-3′-methoxy-;3-Hydroxy-1-(4-hydroxy-3-methoxyphenyl)-1-propanone;β-Hydroxypropiovanillone;3,4′-Dihydroxy-3′-methoxypropiophenone;ω-Hydroxypropioguaiacone;2-Hydroxyethylguaiacylketone",
    "duplicated_cas_no": "",
    "SMILES": "C(CCO)(=O)C1=CC(OC)=C(O)C=C1",
    "meta_data": {
        "InChI": "InChI=1S/C10H12O4/c1-14-10-6-7(2-3-9(10)13)8(12)4-5-11/h2-3,6,11,13H,4-5H2,1H3",
        "InChIKey": null,
        "Canonical SMILES": "O=C(C1=CC=C(O)C(OC)=C1)CCO",
        "Molecular Formula": "C<sub>10</sub>H<sub>12</sub>O<sub>4</sub>",
        "Molecular Mass": "196.20",
        "Melting Point": "109-110 °C"
    }
}