{
    "cas_no": "298-12-4",
    "key_name": "Glyoxylic acid",
    "cn_name": "乙醛酸;",
    "alternate_name": "Acetic acid, 2-oxo-;Glyoxylic acid;Acetic acid, oxo-;2-Oxoacetic acid;Formylformic acid;Glyoxalic acid;Oxalaldehydic acid;Oxoethanoic acid;Oxoacetic acid;α-Ketoacetic acid;NSC 27785;Formylcarboxylic acid;Glyoxo High Pure 50;Carboxyformaldehyde",
    "duplicated_cas_no": "872051-56-4",
    "SMILES": "C(C=O)(O)=O",
    "meta_data": {
        "InChI": "InChI=1S/C2H2O3/c3-1-2(4)5/h1H,(H,4,5)",
        "InChIKey": null,
        "Canonical SMILES": "O=CC(=O)O",
        "Molecular Formula": "C<sub>2</sub>H<sub>2</sub>O<sub>3</sub>",
        "Molecular Mass": "74.04",
        "Melting Point": "98 °C",
        "Density": "1.42 g/cm³ @ Temp: 20 °C"
    }
}