{
    "cas_no": "50850-93-6",
    "key_name": "6-Benzothiazolecarboxylic acid, 2-amino-, ethyl ester",
    "cn_name": "2-氨基苯并噻唑-6-羧酸乙酯;",
    "alternate_name": "6-Benzothiazolecarboxylic acid, 2-amino-, ethyl ester;2-Amino-6-carbethoxybenzothiazole;Ethyl 2-aminobenzothiazole-6-carboxylate;2-Amino-1,3-benzothiazole-6-carboxylic acid ethyl ester;2-Aminobenzothiazole-6-carboxylic acid ethyl ester;Ethyl 2-aminobenzo[<em>d</em>]thiazole-6-carboxylate;2-Amino-6-ethoxycarbonylbenzothiazole",
    "duplicated_cas_no": "92408-43-0",
    "SMILES": "C(OCC)(=O)C=1C=C2C(N=C(N)S2)=CC1",
    "meta_data": {
        "InChI": "InChI=1S/C10H10N2O2S/c1-2-14-9(13)6-3-4-7-8(5-6)15-10(11)12-7/h3-5H,2H2,1H3,(H2,11,12)",
        "InChIKey": null,
        "Canonical SMILES": "O=C(OCC)C=1C=CC=2N=C(SC2C1)N",
        "Molecular Formula": "C<sub>10</sub>H<sub>10</sub>N<sub>2</sub>O<sub>2</sub>S",
        "Molecular Mass": "222.26",
        "Melting Point": "241 °C"
    }
}