{
    "cas_no": "700-12-9",
    "key_name": "Pentamethylbenzene",
    "cn_name": "五甲基苯;1,2,3,4,5-五甲基苯;五甲苯;",
    "alternate_name": "Benzene, 1,2,3,4,5-pentamethyl-;Benzene, pentamethyl-;1,2,3,4,5-Pentamethylbenzene;Pentamethylbenzene;NSC 1889;WJB",
    "duplicated_cas_no": "",
    "SMILES": "CC1=C(C)C(C)=C(C)C=C1C",
    "meta_data": {
        "InChI": "InChI=1S/C11H16/c1-7-6-8(2)10(4)11(5)9(7)3/h6H,1-5H3",
        "InChIKey": null,
        "Canonical SMILES": "C=1C(=C(C(=C(C1C)C)C)C)C",
        "Molecular Formula": "C<sub>11</sub>H<sub>16</sub>",
        "Molecular Mass": "148.24",
        "Boiling Point": "232 °C",
        "Melting Point": "54.5 °C",
        "Density": "0.921 g/cm³ @ Temp: 20 °C"
    }
}