{
    "cas_no": "590-36-3",
    "key_name": "2-Methyl-2-pentanol",
    "cn_name": null,
    "alternate_name": "2-Pentanol, 2-methyl-;2-Methyl-2-pentanol;2-Hydroxy-2-methylpentane;1,1-Dimethylbutanol;2-Methyl-2-hydroxypentane;1,1-Dimethyl-1-butanol;2-Methyl-2-amyl alcohol;NSC 8686;4-Hydroxy-4-methylpentane;4-Methyl-4-pentanol",
    "duplicated_cas_no": "",
    "SMILES": "C(C(C)(C)O)CC",
    "meta_data": {
        "InChI": "InChI=1S/C6H14O/c1-4-5-6(2,3)7/h7H,4-5H2,1-3H3",
        "InChIKey": null,
        "Canonical SMILES": "OC(C)(C)CCC",
        "Molecular Formula": "C<sub>6</sub>H<sub>14</sub>O",
        "Molecular Mass": "102.17",
        "Boiling Point": "121.1 °C",
        "Melting Point": "-103 °C",
        "Density": "0.8350 g/cm³ @ Temp: 15.5 °C"
    }
}