{
    "cas_no": "603-41-8",
    "key_name": "4,4′-Dihydroxydiphenyl(2-pyridyl)methane",
    "cn_name": null,
    "alternate_name": "Phenol, 4,4′-(2-pyridinylmethylene)bis-;Phenol, 4,4′-(2-pyridylmethylene)di-;4,4′-(2-Pyridinylmethylene)bis[phenol];Deacetylbisacodyl;Bis(4-hydroxyphenyl)(2-pyridyl)methane;La 96;DDPM;4,4′-Dihydroxydiphenyl(2-pyridyl)methane;DDPM (pharmaceutical)",
    "duplicated_cas_no": "",
    "SMILES": "C(C1=CC=C(O)C=C1)(C2=CC=C(O)C=C2)C3=CC=CC=N3",
    "meta_data": {
        "InChI": "InChI=1S/C18H15NO2/c20-15-8-4-13(5-9-15)18(17-3-1-2-12-19-17)14-6-10-16(21)11-7-14/h1-12,18,20-21H",
        "InChIKey": null,
        "Canonical SMILES": "OC1=CC=C(C=C1)C(C2=NC=CC=C2)C3=CC=C(O)C=C3",
        "Molecular Formula": "C<sub>18</sub>H<sub>15</sub>NO<sub>2</sub>",
        "Molecular Mass": "277.32",
        "Melting Point": "215-220 °C"
    }
}