{
    "cas_no": "38642-74-9",
    "key_name": "10<em>H</em>-Phenothiazine-2-carbonitrile",
    "cn_name": null,
    "alternate_name": "10<em>H</em>-Phenothiazine-2-carbonitrile;Phenothiazine-2-carbonitrile;2-Cyanophenothiazine;NSC 170554;2-(Cyano)-10<em>H</em>-phenothiazine",
    "duplicated_cas_no": "",
    "SMILES": "C(#N)C=1C=C2C(SC=3C(N2)=CC=CC3)=CC1",
    "meta_data": {
        "InChI": "InChI=1S/C13H8N2S/c14-8-9-5-6-13-11(7-9)15-10-3-1-2-4-12(10)16-13/h1-7,15H",
        "InChIKey": null,
        "Canonical SMILES": "N#CC1=CC=C2SC=3C=CC=CC3NC2=C1",
        "Molecular Formula": "C<sub>13</sub>H<sub>8</sub>N<sub>2</sub>S",
        "Molecular Mass": "224.28",
        "Melting Point": "204 °C"
    }
}