{
    "cas_no": "1591-98-6",
    "key_name": "4-Bromo-2-methylphenyl isocyanate",
    "cn_name": "4-溴-2-甲基异氰酸苯酯;",
    "alternate_name": "Benzene, 4-bromo-1-isocyanato-2-methyl-;Isocyanic acid, 4-bromo-<em>o</em>-tolyl ester;4-Bromo-1-isocyanato-2-methylbenzene;4-Bromo-2-methylphenyl isocyanate",
    "duplicated_cas_no": "",
    "SMILES": "N(=C=O)C1=C(C)C=C(Br)C=C1",
    "meta_data": {
        "InChI": "InChI=1S/C8H6BrNO/c1-6-4-7(9)2-3-8(6)10-5-11/h2-4H,1H3",
        "InChIKey": null,
        "Canonical SMILES": "O=C=NC1=CC=C(Br)C=C1C",
        "Molecular Formula": "C<sub>8</sub>H<sub>6</sub>BrNO",
        "Molecular Mass": "212.04",
        "Boiling Point": "78 °C @ Press: 1 Torr"
    }
}