{
    "cas_no": "6807-17-6",
    "key_name": "4,4′-(1,3-Dimethylbutylidene)bis[phenol]",
    "cn_name": "4,4\"-(1,3-二甲基丁基)二苯酚;",
    "alternate_name": "Phenol, 4,4′-(1,3-dimethylbutylidene)bis-;Phenol, 4,4′-(1,3-dimethylbutylidene)di-;4,4′-(1,3-Dimethylbutylidene)bis[phenol];2,2-Bis(4-hydroxyphenyl)-4-methylpentane;2,2-(4-Hydroxyphenyl)-4-methylpentane;NSC 73727;Bis MIBK;4,4′-(1,3-Dimethylbutylidene)bisphenol;2,2-Bis(4′-hydroxyphenyl)-4-methylpentane;BisP-MIBK;Bisphenol MIBK;4,4′-(1,3-Dimethylbutylidene)diphenol",
    "duplicated_cas_no": "2353429-71-5",
    "SMILES": "C(CC(C)C)(C)(C1=CC=C(O)C=C1)C2=CC=C(O)C=C2",
    "meta_data": {
        "InChI": "InChI=1S/C18H22O2/c1-13(2)12-18(3,14-4-8-16(19)9-5-14)15-6-10-17(20)11-7-15/h4-11,13,19-20H,12H2,1-3H3",
        "InChIKey": null,
        "Canonical SMILES": "OC1=CC=C(C=C1)C(C2=CC=C(O)C=C2)(C)CC(C)C",
        "Molecular Formula": "C<sub>18</sub>H<sub>22</sub>O<sub>2</sub>",
        "Molecular Mass": "270.37",
        "Melting Point": "150 °C"
    }
}