{
    "cas_no": "475102-14-8",
    "key_name": "1-(1,1-Dimethylethyl) 2-borono-5-methyl-1<em>H</em>-indole-1-carboxylate",
    "cn_name": null,
    "alternate_name": "1<em>H</em>-Indole-1-carboxylic acid, 2-borono-5-methyl-, 1-(1,1-dimethylethyl) ester;1-(1,1-Dimethylethyl) 2-borono-5-methyl-1<em>H</em>-indole-1-carboxylate;(1-(<em>tert</em>-Butoxycarbonyl)-5-methyl-1<em>H</em>-indol-2-yl)boronic acid;1-BOC-5-methylindole-2-boronic acid;1-Boc-5-methyl-1<em>H</em>-indole-2-boronic acid",
    "duplicated_cas_no": "",
    "SMILES": "C(OC(C)(C)C)(=O)N1C=2C(C=C1B(O)O)=CC(C)=CC2",
    "meta_data": {
        "InChI": "InChI=1S/C14H18BNO4/c1-9-5-6-11-10(7-9)8-12(15(18)19)16(11)13(17)20-14(2,3)4/h5-8,18-19H,1-4H3",
        "InChIKey": null,
        "Canonical SMILES": "O=C(OC(C)(C)C)N1C(=CC=2C=C(C=CC21)C)B(O)O",
        "Molecular Formula": "C<sub>14</sub>H<sub>18</sub>BNO<sub>4</sub>",
        "Molecular Mass": "275.11",
        "Melting Point": "110-112 °C"
    }
}