{
    "cas_no": "16400-32-1",
    "key_name": "1-Bromo-2-pentyne",
    "cn_name": "1-溴-2-戊炔;",
    "alternate_name": "2-Pentyne, 1-bromo-;1-Bromo-2-pentyne;2-Pentynyl bromide;2-Pentyn-1-yl bromide",
    "duplicated_cas_no": "1009031-45-1",
    "SMILES": "C(#CCC)CBr",
    "meta_data": {
        "InChI": "InChI=1S/C5H7Br/c1-2-3-4-5-6/h2,5H2,1H3",
        "InChIKey": null,
        "Canonical SMILES": "BrCC#CCC",
        "Molecular Formula": "C<sub>5</sub>H<sub>7</sub>Br",
        "Molecular Mass": "147.01",
        "Boiling Point": "93-94 °C @ Press: 113 Torr",
        "Density": "1.3931 g/cm³ @ Temp: 20 °C"
    }
}