{
    "cas_no": "4461-29-4",
    "key_name": "2-Thiopheneacetamide",
    "cn_name": "2-噻吩乙酰胺;",
    "alternate_name": "2-Thiopheneacetamide;2-Thienylacetamide;2-(Thiophen-2-yl)acetamide",
    "duplicated_cas_no": "",
    "SMILES": "C(C(N)=O)C1=CC=CS1",
    "meta_data": {
        "InChI": "InChI=1S/C6H7NOS/c7-6(8)4-5-2-1-3-9-5/h1-3H,4H2,(H2,7,8)",
        "InChIKey": null,
        "Canonical SMILES": "O=C(N)CC=1SC=CC1",
        "Molecular Formula": "C<sub>6</sub>H<sub>7</sub>NOS",
        "Molecular Mass": "141.19",
        "Melting Point": "146-147 °C"
    }
}