{
    "cas_no": "5203-14-5",
    "key_name": "4-Butoxybenzonitrile",
    "cn_name": "4-正丁氧基苯甲腈;",
    "alternate_name": "Benzonitrile, 4-butoxy-;Benzonitrile, <em>p</em>-butoxy-;4-Butoxybenzonitrile",
    "duplicated_cas_no": "",
    "SMILES": "O(CCCC)C1=CC=C(C#N)C=C1",
    "meta_data": {
        "InChI": "InChI=1S/C11H13NO/c1-2-3-8-13-11-6-4-10(9-12)5-7-11/h4-7H,2-3,8H2,1H3",
        "InChIKey": null,
        "Canonical SMILES": "N#CC1=CC=C(OCCCC)C=C1",
        "Molecular Formula": "C<sub>11</sub>H<sub>13</sub>NO",
        "Molecular Mass": "175.23",
        "Boiling Point": "146-148 °C @ Press: 3 Torr",
        "Melting Point": "35 °C"
    }
}