{
    "cas_no": "4910-46-7",
    "key_name": "Spaglumic acid",
    "cn_name": "司谷氨酸;司谷氨酸;",
    "alternate_name": "<span class=\"text-smallcaps\">L</smallcap>-Glutamic acid, <em>N</em>-acetyl-<smallcap>L</span>-β-aspartyl-;Glutamic acid, <em>N</em>-(<em>N</em>-acetyl-<span class=\"text-smallcaps\">L</smallcap>-β-aspartyl)-, <smallcap>L</span>-;Glutamic acid, <em>N</em>-(<em>N</em>-acetyl-<span class=\"text-smallcaps\">L</span>-β-aspartyl)-;<span class=\"text-smallcaps\">L</smallcap>-Glutamic acid, <em>N</em>-(<em>N</em>-acetyl-<smallcap>L</span>-β-aspartyl)-;<em>N</em>-Acetyl-<span class=\"text-smallcaps\">L</smallcap>-β-aspartyl-<smallcap>L</span>-glutamic acid;Spaglumic acid;β-Spaglumic acid;β-NAAG",
    "duplicated_cas_no": "",
    "SMILES": "[C@@H](CC(N[C@@H](CCC(O)=O)C(O)=O)=O)(NC(C)=O)C(O)=O",
    "meta_data": {
        "InChI": "InChI=1S/C11H16N2O8/c1-5(14)12-7(11(20)21)4-8(15)13-6(10(18)19)2-3-9(16)17/h6-7H,2-4H2,1H3,(H,12,14)(H,13,15)(H,16,17)(H,18,19)(H,20,21)/t6-,7-/m0/s1",
        "InChIKey": null,
        "Canonical SMILES": "O=C(O)CCC(NC(=O)CC(NC(=O)C)C(=O)O)C(=O)O",
        "Molecular Formula": "C<sub>11</sub>H<sub>16</sub>N<sub>2</sub>O<sub>8</sub>",
        "Molecular Mass": "304.25",
        "Melting Point": "113-115 °C (decomp)"
    }
}