{
    "cas_no": "3574-96-7",
    "key_name": "Chlorfenazole",
    "cn_name": "2-(2-氯苯基)-1H-苯并咪唑;",
    "alternate_name": "1<em>H</em>-Benzimidazole, 2-(2-chlorophenyl)-;Benzimidazole, 2-(<em>o</em>-chlorophenyl)-;2-(2-Chlorophenyl)-1<em>H</em>-benzimidazole;2-(2-Chlorophenyl)benzimidazole;2-(2′-Chlorophenyl)benzimidazole;2-(<em>o</em>-Chlorophenyl)benzimidazole;G 572;NSC 128751;Chlorfenazole;2-(2-Chlorophenyl)-1<em>H</em>-benzo[<em>d</em>]imidazole;2-(2-Chlorophenyl)-1<em>H</em>-1,3-benzodiazole",
    "duplicated_cas_no": "",
    "SMILES": "ClC1=C(C=2NC=3C(N2)=CC=CC3)C=CC=C1",
    "meta_data": {
        "InChI": "InChI=1S/C13H9ClN2/c14-10-6-2-1-5-9(10)13-15-11-7-3-4-8-12(11)16-13/h1-8H,(H,15,16)",
        "InChIKey": null,
        "Canonical SMILES": "ClC=1C=CC=CC1C2=NC=3C=CC=CC3N2",
        "Molecular Formula": "C<sub>13</sub>H<sub>9</sub>ClN<sub>2</sub>",
        "Molecular Mass": "228.68",
        "Melting Point": "234 °C"
    }
}