{
    "cas_no": "452-86-8",
    "key_name": "4-Methylcatechol",
    "cn_name": "3,4-二羟基甲苯;4-甲基儿茶酚;4-甲基邻苯二酚;",
    "alternate_name": "1,2-Benzenediol, 4-methyl-;Pyrocatechol, 4-methyl-;4-Methyl-1,2-benzenediol;Homocatechol;Homopyrocatechol;4-Methylcatechol;4-Methylpyrocatechol;<em>p</em>-Methylpyrocatechol;3,4-Dihydroxytoluene;Toluene-3,4-diol;4-Methyl-1,2-dihydroxybenzene;1,2-Dihydroxy-4-methylbenzene;2-Hydroxy-4-methylphenol;5-Methylcatechol;1-Methyl-3,4-dihydroxybenzene;NSC 17489;<em>p</em>-Methylcatechol;4-Methylbenzcatechin;4-Methyl-1,2-benzediol",
    "duplicated_cas_no": "",
    "SMILES": "OC1=C(O)C=CC(C)=C1",
    "meta_data": {
        "InChI": "InChI=1S/C7H8O2/c1-5-2-3-6(8)7(9)4-5/h2-4,8-9H,1H3",
        "InChIKey": null,
        "Canonical SMILES": "OC1=CC=C(C=C1O)C",
        "Molecular Formula": "C<sub>7</sub>H<sub>8</sub>O<sub>2</sub>",
        "Molecular Mass": "124.14",
        "Boiling Point": "251 °C",
        "Melting Point": "65 °C",
        "Density": "1.1287 g/cm³ @ Temp: 73.6000390625 °C"
    }
}