{
    "cas_no": "28169-46-2",
    "key_name": "2-Methyl-3,5-dinitrobenzoic acid",
    "cn_name": "3,5-二硝基-2-甲基苯甲酸;3,5-二硝基邻甲基苯甲酸;",
    "alternate_name": "Benzoic acid, 2-methyl-3,5-dinitro-;<em>o</em>-Toluic acid, 3,5-dinitro-;2-Methyl-3,5-dinitrobenzoic acid;3,5-Dinitro-<em>o</em>-toluic acid;NSC 168527;3,5-Dinitro-2-methylbenzoic acid",
    "duplicated_cas_no": "857153-70-9",
    "SMILES": "C(O)(=O)C1=C(C)C(N(=O)=O)=CC(N(=O)=O)=C1",
    "meta_data": {
        "InChI": "InChI=1S/C8H6N2O6/c1-4-6(8(11)12)2-5(9(13)14)3-7(4)10(15)16/h2-3H,1H3,(H,11,12)",
        "InChIKey": null,
        "Canonical SMILES": "O=C(O)C=1C=C(C=C(C1C)N(=O)=O)N(=O)=O",
        "Molecular Formula": "C<sub>8</sub>H<sub>6</sub>N<sub>2</sub>O<sub>6</sub>",
        "Molecular Mass": "226.14",
        "Melting Point": "205-206 °C",
        "Density": "1.614 g/cm³"
    }
}