{
    "cas_no": "21542-96-1",
    "key_name": "Dimethylbehenylamine",
    "cn_name": null,
    "alternate_name": "1-Docosanamine, <em>N</em>,<em>N</em>-dimethyl-;Docosylamine, <em>N</em>,<em>N</em>-dimethyl-;<em>N</em>,<em>N</em>-Dimethyl-1-docosanamine;<em>N</em>,<em>N</em>-Dimethyldocosylamine;<em>N</em>-Docosyldimethylamine;DM 22D;Armeen DM 22D;Dimethylbehenylamine;Farmin DM 2298;Farmin DM 2285;Dimethyldocosylamine;Behenyldimethylamine;Lipomin DM 22D",
    "duplicated_cas_no": "",
    "SMILES": "C(CCCCCCCCCCCCCC)CCCCCCCN(C)C",
    "meta_data": {
        "InChI": "InChI=1S/C24H51N/c1-4-5-6-7-8-9-10-11-12-13-14-15-16-17-18-19-20-21-22-23-24-25(2)3/h4-24H2,1-3H3",
        "InChIKey": null,
        "Canonical SMILES": "N(C)(C)CCCCCCCCCCCCCCCCCCCCCC",
        "Molecular Formula": "C<sub>24</sub>H<sub>51</sub>N",
        "Molecular Mass": "353.67",
        "Boiling Point": "190 °C @ Press: 0.1 Torr",
        "Melting Point": "41 °C"
    }
}