{
    "cas_no": "611-24-5",
    "key_name": "2-(Methylamino)phenol",
    "cn_name": "2-甲氨基苯酚;",
    "alternate_name": "Phenol, 2-(methylamino)-;Phenol, <em>o</em>-(methylamino)-;2-(Methylamino)phenol;<em>N</em>-Methyl-2-aminophenol;<em>N</em>-Methyl-<em>o</em>-hydroxyaniline;<em>o</em>-(Methylamino)phenol;2-(<em>N</em>-Methylamino)phenol;NSC 245030;2-Hydroxy-<em>N</em>-methylaniline",
    "duplicated_cas_no": "",
    "SMILES": "N(C)C1=C(O)C=CC=C1",
    "meta_data": {
        "InChI": "InChI=1S/C7H9NO/c1-8-6-4-2-3-5-7(6)9/h2-5,8-9H,1H3",
        "InChIKey": null,
        "Canonical SMILES": "OC=1C=CC=CC1NC",
        "Molecular Formula": "C<sub>7</sub>H<sub>9</sub>NO",
        "Molecular Mass": "123.15",
        "Melting Point": "&gt;80 °C (decomp)"
    }
}