{
    "cas_no": "135-68-2",
    "key_name": "4′-Chloro[1,1′-biphenyl]-4-amine",
    "cn_name": null,
    "alternate_name": "[1,1′-Biphenyl]-4-amine, 4′-chloro-;4-Biphenylamine, 4′-chloro-;4′-Chloro[1,1′-biphenyl]-4-amine;<em>p</em>-Amino-<em>p</em>′-chlorobiphenyl;4-Amino-4′-chlorobiphenyl;4-Amino-4′-chlorodiphenyl;<em>p</em>′-Chloro-<em>p</em>-phenylaniline;4′-Chloro-4-aminobiphenyl;4′-Chloro-4-biphenylamine;4-Chloro-4′-aminobiphenyl;NSC 95713;(4′-Chlorobiphenyl-4-yl)amine;4-(4-Chlorophenyl)aniline;4′-Chloro-[1,1′-biphenyl]-4-amine;4-Amino-4′-chloro-1,1′-biphenyl",
    "duplicated_cas_no": "",
    "SMILES": "ClC1=CC=C(C=C1)C2=CC=C(N)C=C2",
    "meta_data": {
        "InChI": "InChI=1S/C12H10ClN/c13-11-5-1-9(2-6-11)10-3-7-12(14)8-4-10/h1-8H,14H2",
        "InChIKey": null,
        "Canonical SMILES": "ClC=1C=CC(=CC1)C2=CC=C(N)C=C2",
        "Molecular Formula": "C<sub>12</sub>H<sub>10</sub>ClN",
        "Molecular Mass": "203.67",
        "Melting Point": "134 °C"
    }
}