{
    "cas_no": "1459-00-3",
    "key_name": "1-Bromo-2-phenylpropane",
    "cn_name": "β-溴代异丙基苯;",
    "alternate_name": "Benzene, (2-bromo-1-methylethyl)-;Cumene, β-bromo-;(2-Bromo-1-methylethyl)benzene;1-Bromo-2-phenylpropane;2-Phenylpropyl bromide;β-Bromoisopropylbenzene;2-Methyl-2-phenylethyl bromide;NSC 43688;(1-Bromopropan-2-yl)benzene;1-Bromopropan-2-ylbenzene",
    "duplicated_cas_no": "",
    "SMILES": "C(CBr)(C)C1=CC=CC=C1",
    "meta_data": {
        "InChI": "InChI=1S/C9H11Br/c1-8(7-10)9-5-3-2-4-6-9/h2-6,8H,7H2,1H3",
        "InChIKey": null,
        "Canonical SMILES": "BrCC(C=1C=CC=CC1)C",
        "Molecular Formula": "C<sub>9</sub>H<sub>11</sub>Br",
        "Molecular Mass": "199.09",
        "Boiling Point": "188.5 °C",
        "Melting Point": "-59.3 °C",
        "Density": "1.373 g/cm³ @ Temp: 14 °C"
    }
}