{
    "cas_no": "105-41-9",
    "key_name": "1,3-Dimethylamylamine",
    "cn_name": "1,3-二甲基戊胺;2-氨基-4-甲基己烷;",
    "alternate_name": "2-Hexanamine, 4-methyl-;Pentylamine, 1,3-dimethyl-;4-Methyl-2-hexanamine;2-Amino-4-methylhexane;1,3-Dimethylamylamine;1,3-Dimethylpentylamine;Forthane;4-Methyl-2-hexylamine;Forthan;1,3-Dimethylpentanamine;Methylhexaneamine;NSC 1106",
    "duplicated_cas_no": "",
    "SMILES": "C(CC(C)N)(CC)C",
    "meta_data": {
        "InChI": "InChI=1S/C7H17N/c1-4-6(2)5-7(3)8/h6-7H,4-5,8H2,1-3H3",
        "InChIKey": null,
        "Canonical SMILES": "NC(C)CC(C)CC",
        "Molecular Formula": "C<sub>7</sub>H<sub>17</sub>N",
        "Molecular Mass": "115.22",
        "Boiling Point": "132.5 °C",
        "Density": "0.7620-0.7655 g/cm³"
    }
}