{
    "cas_no": "149-32-6",
    "key_name": "Erythritol",
    "cn_name": "赤藓糖醇;1,2,3,4-丁四醇;",
    "alternate_name": "1,2,3,4-Butanetetrol, (2<em>R</em>,3<em>S</em>)-<em>rel</em>-;Erythritol;1,2,3,4-Butanetetrol, (<em>R</em>*,<em>S</em>*)-;<em>rel</em>-(2<em>R</em>,3<em>S</em>)-1,2,3,4-Butanetetrol;Erythrol;Phycitol;Mesoerythritol;<em>meso</em>-Erythritol;Erythrit;NIK 242;C*Eridex;NSC 8099;C<sup>*</sup> Eridex 16954;Erythritol 100M;F 8015;Lakanto-S;Cargill Zerose 16957;Zerose 01657;Zerose;(2<em>R</em>,3<em>S</em>)-Butane-1,2,3,4-tetraol;Eridex F 16960;Zerose Tm 16957;Zerose 16952;Erythritol T;Erythritol 50M;(2R,3S)-<em>rel</em>-Butane-1,2,3,4-tetraol;Lakanto Sweet Powder;(2<em>R</em>,3<em>S</em>)-1,2,3,4-Butanetetrol;MeSH ID: D004896",
    "duplicated_cas_no": "10030-58-7;188346-77-2;868541-49-5;882981-67-1;909878-64-4;1646188-83-1;1798874-12-0;2075830-99-6;2584414-71-9;2774599-63-0",
    "SMILES": "[C@H]([C@H](CO)O)(CO)O",
    "meta_data": {
        "InChI": "InChI=1/C4H10O4/c5-1-3(7)4(8)2-6/h3-8H,1-2H2/t3-,4+",
        "InChIKey": null,
        "Canonical SMILES": "OCC(O)C(O)CO",
        "Molecular Formula": "C<sub>4</sub>H<sub>10</sub>O<sub>4</sub>",
        "Molecular Mass": "122.12",
        "Boiling Point": "330.5 °C",
        "Melting Point": "121.5 °C",
        "Density": "1.44 g/cm³"
    }
}