{
    "cas_no": "62438-03-3",
    "key_name": "5-Methyl-3-isoxazolecarboxylic acid hydrazide",
    "cn_name": null,
    "alternate_name": "3-Isoxazolecarboxylic acid, 5-methyl-, hydrazide;5-Methyl-3-isoxazolecarboxylic acid hydrazide;NSC 306459",
    "duplicated_cas_no": "",
    "SMILES": "C(NN)(=O)C=1C=C(C)ON1",
    "meta_data": {
        "InChI": "InChI=1S/C5H7N3O2/c1-3-2-4(8-10-3)5(9)7-6/h2H,6H2,1H3,(H,7,9)",
        "InChIKey": null,
        "Canonical SMILES": "O=C(NN)C1=NOC(=C1)C",
        "Molecular Formula": "C<sub>5</sub>H<sub>7</sub>N<sub>3</sub>O<sub>2</sub>",
        "Molecular Mass": "141.13",
        "Melting Point": "142-143 °C"
    }
}