{
    "cas_no": "111291-97-5",
    "key_name": "1,1-Dimethylethyl 4-ethynylbenzoate",
    "cn_name": null,
    "alternate_name": "Benzoic acid, 4-ethynyl-, 1,1-dimethylethyl ester;1,1-Dimethylethyl 4-ethynylbenzoate;<em>tert</em>-Butyl 4-ethynylbenzoate",
    "duplicated_cas_no": "",
    "SMILES": "C(OC(C)(C)C)(=O)C1=CC=C(C#C)C=C1",
    "meta_data": {
        "InChI": "InChI=1S/C13H14O2/c1-5-10-6-8-11(9-7-10)12(14)15-13(2,3)4/h1,6-9H,2-4H3",
        "InChIKey": null,
        "Canonical SMILES": "O=C(OC(C)(C)C)C1=CC=C(C#C)C=C1",
        "Molecular Formula": "C<sub>13</sub>H<sub>14</sub>O<sub>2</sub>",
        "Molecular Mass": "202.25",
        "Melting Point": "71.5-72 °C"
    }
}