{
    "cas_no": "39742-60-4",
    "key_name": "1-Phenethyl-4-piperidone",
    "cn_name": null,
    "alternate_name": "4-Piperidinone, 1-(2-phenylethyl)-;4-Piperidone, 1-phenethyl-;1-(2-Phenylethyl)-4-piperidinone;<em>N</em>-Phenethyl-4-piperidone;1-Phenethyl-4-piperidone;1-Phenethyl-4-piperidinone;1-(β-Phenylethyl)-4-piperidone;1-(2-Phenylethyl)-4-piperidone;1-Phenylethyl-4-piperidone;<em>N</em>-Phenethylpiperidin-4-one;<em>N</em>-(2-Phenylethyl)-4-piperidone;1-(2-Phenethyl)-4-piperidinone;NSC 74494;1-(2-Phenethyl)-4-piperidone",
    "duplicated_cas_no": "",
    "SMILES": "C(CC1=CC=CC=C1)N2CCC(=O)CC2",
    "meta_data": {
        "InChI": "InChI=1S/C13H17NO/c15-13-7-10-14(11-8-13)9-6-12-4-2-1-3-5-12/h1-5H,6-11H2",
        "InChIKey": null,
        "Canonical SMILES": "O=C1CCN(CCC=2C=CC=CC2)CC1",
        "Molecular Formula": "C<sub>13</sub>H<sub>17</sub>NO",
        "Molecular Mass": "203.28",
        "Boiling Point": "117-118 °C @ Press: 0.1 Torr",
        "Melting Point": "59.5-60.5 °C"
    }
}