{
    "cas_no": "1515-76-0",
    "key_name": "1,3-Butadien-1-ol, 1-acetate",
    "cn_name": null,
    "alternate_name": "1,3-Butadien-1-ol, 1-acetate;1,3-Butadien-1-ol, acetate;1-Acetoxy-1,3-butadiene;1-Acetoxybutadiene;1,3-Butadienyl acetate;Butadienyl acetate",
    "duplicated_cas_no": "52749-14-1",
    "SMILES": "O(C=CC=C)C(C)=O",
    "meta_data": {
        "InChI": "InChI=1S/C6H8O2/c1-3-4-5-8-6(2)7/h3-5H,1H2,2H3",
        "InChIKey": null,
        "Canonical SMILES": "O=C(OC=CC=C)C",
        "Molecular Formula": "C<sub>6</sub>H<sub>8</sub>O<sub>2</sub>",
        "Molecular Mass": "112.13",
        "Boiling Point": "52-54 °C @ Press: 40 Torr",
        "Density": "0.9643 g/cm³ @ Temp: 20 °C"
    }
}