{
    "cas_no": "79-14-1",
    "key_name": "Glycolic acid",
    "cn_name": "乙醇酸;羟基乙酸;甘醇酸;",
    "alternate_name": "Acetic acid, 2-hydroxy-;Glycolic acid;Acetic acid, hydroxy-;2-Hydroxyacetic acid;Hydroxyacetic acid;Hydroxyethanoic acid;α-Hydroxyacetic acid;Glycocide;GlyPure;GlyPure 70;NSC 166;2-Hydroxyethanoic acid;GlyPure 99;YST-GCS",
    "duplicated_cas_no": "702627-33-6;259744-22-4;1033720-45-4;1033720-48-7",
    "SMILES": "C(CO)(O)=O",
    "meta_data": {
        "InChI": "InChI=1S/C2H4O3/c3-1-2(4)5/h3H,1H2,(H,4,5)",
        "InChIKey": null,
        "Canonical SMILES": "O=C(O)CO",
        "Molecular Formula": "C<sub>2</sub>H<sub>4</sub>O<sub>3</sub>",
        "Molecular Mass": "76.05",
        "Boiling Point": "104 °C @ Press: 10 Torr",
        "Melting Point": "80 °C",
        "Density": "1.49 g/cm³ @ Temp: 25 °C"
    }
}