{
    "cas_no": "583-71-1",
    "key_name": "4-Bromo-<em>o</em>-xylene",
    "cn_name": "4-溴-1,2-二甲苯;4-溴邻二甲苯;3,4-二甲基溴苯;",
    "alternate_name": "Benzene, 4-bromo-1,2-dimethyl-;<em>o</em>-Xylene, 4-bromo-;4-Bromo-1,2-dimethylbenzene;1-Bromo-3,4-dimethylbenzene;3,4-Dimethylbromobenzene;4-Bromo-<em>o</em>-xylene;4-Bromo-1,2-xylene;3,4-Xylyl bromide;3,4-Dimethylphenyl bromide;NSC 60147",
    "duplicated_cas_no": "",
    "SMILES": "CC1=C(C)C=CC(Br)=C1",
    "meta_data": {
        "InChI": "InChI=1S/C8H9Br/c1-6-3-4-8(9)5-7(6)2/h3-5H,1-2H3",
        "InChIKey": null,
        "Canonical SMILES": "BrC1=CC=C(C(=C1)C)C",
        "Molecular Formula": "C<sub>8</sub>H<sub>9</sub>Br",
        "Molecular Mass": "185.06",
        "Boiling Point": "214.5 °C",
        "Melting Point": "-0.2 °C",
        "Density": "1.3640 g/cm³ @ Temp: 20 °C"
    }
}