{
    "cas_no": "614-97-1",
    "key_name": "5-Methylbenzimidazole",
    "cn_name": "5-甲基苯并咪唑;",
    "alternate_name": "1<em>H</em>-Benzimidazole, 6-methyl-;Benzimidazole, 5-methyl-;1<em>H</em>-Benzimidazole, 5-methyl-;Benzimidazole, 5(<em>or</em> 6)-methyl-;6-Methyl-1<em>H</em>-benzimidazole;5-Methylbenzimidazole;5-Methyl-1<em>H</em>-benzimidazole;NSC 3826",
    "duplicated_cas_no": "",
    "SMILES": "CC=1C=C2C(=CC1)NC=N2",
    "meta_data": {
        "InChI": "InChI=1S/C8H8N2/c1-6-2-3-7-8(4-6)10-5-9-7/h2-5H,1H3,(H,9,10)",
        "InChIKey": null,
        "Canonical SMILES": "N1=CNC=2C=CC(=CC12)C",
        "Molecular Formula": "C<sub>8</sub>H<sub>8</sub>N<sub>2</sub>",
        "Molecular Mass": "132.16",
        "Boiling Point": "169-172 °C @ Press: 0.1 Torr",
        "Melting Point": "112-113 °C"
    }
}