{
    "cas_no": "694-05-3",
    "key_name": "1,2,3,6-Tetrahydropyridine",
    "cn_name": "1,2,5,6-四氢吡啶;1,2,5,6-四氢吡啶;",
    "alternate_name": "Pyridine, 1,2,3,6-tetrahydro-;1,2,3,6-Tetrahydropyridine;1,2,5,6-Tetrahydropyridine;Δ<sup>3</sup>-Piperidine;NSC 65443;3,6-Dihydro-2<em>H</em>-pyridine",
    "duplicated_cas_no": "",
    "SMILES": "C=1CCNCC1",
    "meta_data": {
        "InChI": "InChI=1S/C5H9N/c1-2-4-6-5-3-1/h1-2,6H,3-5H2",
        "InChIKey": null,
        "Canonical SMILES": "C1=CCCNC1",
        "Molecular Formula": "C<sub>5</sub>H<sub>9</sub>N",
        "Molecular Mass": "83.13",
        "Boiling Point": "108 °C",
        "Melting Point": "-48 °C",
        "Density": "0.9153 g/cm³ @ Temp: 20 °C"
    }
}