{
    "cas_no": "46765-03-1",
    "key_name": "3,3′-Sulfonylbis[phenol]",
    "cn_name": null,
    "alternate_name": "Phenol, 3,3′-sulfonylbis-;3,3′-Sulfonylbis[phenol];3,3′-Dihydroxydiphenyl sulfone",
    "duplicated_cas_no": "",
    "SMILES": "S(=O)(=O)(C1=CC(O)=CC=C1)C2=CC(O)=CC=C2",
    "meta_data": {
        "InChI": "InChI=1S/C12H10O4S/c13-9-3-1-5-11(7-9)17(15,16)12-6-2-4-10(14)8-12/h1-8,13-14H",
        "InChIKey": null,
        "Canonical SMILES": "O=S(=O)(C=1C=CC=C(O)C1)C=2C=CC=C(O)C2",
        "Molecular Formula": "C<sub>12</sub>H<sub>10</sub>O<sub>4</sub>S",
        "Molecular Mass": "250.27",
        "Melting Point": "186-187 °C"
    }
}