{
    "cas_no": "129-00-0",
    "key_name": "Pyrene",
    "cn_name": "芘;",
    "alternate_name": "Pyrene;Benzo[<em>def</em>]phenanthrene;NSC 17534;NSC 66449",
    "duplicated_cas_no": "76165-23-6",
    "SMILES": "C12=C3C4=CC=C1C=CC=C2C=CC3=CC=C4",
    "meta_data": {
        "InChI": "InChI=1S/C16H10/c1-3-11-7-9-13-5-2-6-14-10-8-12(4-1)15(11)16(13)14/h1-10H",
        "InChIKey": null,
        "Canonical SMILES": "C=1C=C2C=CC3=CC=CC=4C=CC(C1)=C2C34",
        "Molecular Formula": "C<sub>16</sub>H<sub>10</sub>",
        "Molecular Mass": "202.25",
        "Boiling Point": "404 °C @ Press: 760 Torr",
        "Melting Point": "151.2 °C",
        "Density": "1.271 g/cm³ @ Temp: 23 °C"
    }
}