{
    "cas_no": "101-59-7",
    "key_name": "4-[(4-Nitrophenyl)thio]benzenamine",
    "cn_name": "4-氨基-4\"-硝基二苯硫醚;",
    "alternate_name": "Benzenamine, 4-[(4-nitrophenyl)thio]-;Aniline, <em>p</em>-[(<em>p</em>-nitrophenyl)thio]-;Aniline, <em>p</em>-(<em>p</em>-nitrophenylmercapto)-;4-[(4-Nitrophenyl)thio]benzenamine;<em>p</em>-[(<em>p</em>-Nitrophenyl)thio]aniline;4-Amino-4′-nitrodiphenyl sulfide;<em>p</em>-Aminophenyl <em>p</em>-nitrophenyl sulfide;4-Nitro-4′-aminophenyl sulfide;4-Aminophenyl 4-nitrophenyl sulfide;4′-Nitro-4-aminodiphenyl sulfide;4-(4-Nitrophenylthio)aniline;NSC 23568;4-(<em>p</em>-Nitrophenylthio)aniline;BI 2A7;4-[(4-Nitrophenyl)sulfanyl]aniline",
    "duplicated_cas_no": "71921-26-1",
    "SMILES": "S(C1=CC=C(N(=O)=O)C=C1)C2=CC=C(N)C=C2",
    "meta_data": {
        "InChI": "InChI=1S/C12H10N2O2S/c13-9-1-5-11(6-2-9)17-12-7-3-10(4-8-12)14(15)16/h1-8H,13H2",
        "InChIKey": null,
        "Canonical SMILES": "O=N(=O)C1=CC=C(SC2=CC=C(N)C=C2)C=C1",
        "Molecular Formula": "C<sub>12</sub>H<sub>10</sub>N<sub>2</sub>O<sub>2</sub>S",
        "Molecular Mass": "246.29",
        "Melting Point": "143 °C"
    }
}