{
    "cas_no": "183204-72-0",
    "key_name": "Tipiracil hydrochloride",
    "cn_name": null,
    "alternate_name": "2,4(1<em>H</em>,3<em>H</em>)-Pyrimidinedione, 5-chloro-6-[(2-imino-1-pyrrolidinyl)methyl]-, hydrochloride (1:1);2,4(1<em>H</em>,3<em>H</em>)-Pyrimidinedione, 5-chloro-6-[(2-imino-1-pyrrolidinyl)methyl]-, monohydrochloride;TPI hydrochloride;TAS 1-462;Tipiracil hydrochloride;5-Chloro-6-[(2-iminopyrrolidin-1-yl)methyl]pyrimidine-2,4(1<em>H</em>,3<em>H</em>)-dione hydrochloride",
    "duplicated_cas_no": "",
    "SMILES": "C(C1=C(Cl)C(=O)NC(=O)N1)N2C(=N)CCC2.Cl",
    "meta_data": {
        "InChI": "InChI=1S/C9H11ClN4O2.ClH/c10-7-5(12-9(16)13-8(7)15)4-14-3-1-2-6(14)11;/h11H,1-4H2,(H2,12,13,15,16);1H",
        "InChIKey": null,
        "Canonical SMILES": "Cl.O=C1NC(=O)C(Cl)=C(N1)CN2C(=N)CCC2",
        "Molecular Formula": "C<sub>9</sub>H<sub>11</sub>ClN<sub>4</sub>O<sub>2</sub>.ClH",
        "Molecular Mass": "",
        "Melting Point": "245 °C (decomp)"
    }
}