{
    "cas_no": "623-76-7",
    "key_name": "<em>N</em>,<em>N</em>′-Diethylurea",
    "cn_name": "1,3-二乙基脲;",
    "alternate_name": "Urea, <em>N</em>,<em>N</em>′-diethyl-;Urea, 1,3-diethyl-;<em>N</em>,<em>N</em>′-Diethylurea;1,3-Diethylurea;<em>sym</em>-Diethylurea;NSC 429",
    "duplicated_cas_no": "27554-37-6",
    "SMILES": "C(NCC)(NCC)=O",
    "meta_data": {
        "InChI": "InChI=1S/C5H12N2O/c1-3-6-5(8)7-4-2/h3-4H2,1-2H3,(H2,6,7,8)",
        "InChIKey": null,
        "Canonical SMILES": "O=C(NCC)NCC",
        "Molecular Formula": "C<sub>5</sub>H<sub>12</sub>N<sub>2</sub>O",
        "Molecular Mass": "116.16",
        "Boiling Point": "263 °C",
        "Melting Point": "112.5 °C",
        "Density": "1.1240 g/cm³"
    }
}