{
    "cas_no": "13472-45-2",
    "key_name": "Sodium tungsten oxide (Na<sub>2</sub>WO<sub>4</sub>)",
    "cn_name": "钨酸钠;",
    "alternate_name": "Sodium tungsten oxide (Na<sub>2</sub>WO<sub>4</sub>);Tungstic acid (H<sub>2</sub>WO<sub>4</sub>), disodium salt;Tungstate (WO<sub>4</sub><sup>2-</sup>), disodium, (<em>T</em>-4)-;Disodium tungstate;Disodium tungstate (Na<sub>2</sub>WO<sub>4</sub>);Sodium tungstate (Na<sub>2</sub>(WO<sub>4</sub>));Sodium tungstate;Sodium tungstate(VI) (Na<sub>2</sub>WO<sub>4</sub>);Disodium tetraoxotungstate(2-);Disodium tetraoxatungstate(2-);Tungstate (WO<sub>4</sub><sup>2-</sup>), sodium (1:2), (<em>T</em>-4)-",
    "duplicated_cas_no": "44142-66-7;1290611-51-6;1373772-04-3;1446344-33-7;1708934-19-3;2076459-16-8;2244760-56-1;2470257-54-4;2640844-21-7;2920363-58-0",
    "SMILES": "[O].[W].[Na]",
    "meta_data": {
        "InChI": "InChI=1S/Na.O.W",
        "InChIKey": null,
        "Canonical SMILES": "[O].[Na].[W]",
        "Molecular Formula": "Na.O.W",
        "Molecular Mass": "",
        "Melting Point": "698 °C",
        "Density": "4.179 g/cm³"
    }
}