{
    "uri": "substance/pt/13472452",
    "rn": "13472-45-2",
    "name": "Sodium tungsten oxide (Na<sub>2</sub>WO<sub>4</sub>)",
    "images": [],
    "inchi": "InChI=1S/Na.O.W",
    "inchiKey": "InChIKey=QOBFCGLLOGLAPM-UHFFFAOYSA-N",
    "smile": "[O].[W].[Na]",
    "canonicalSmile": "[O].[Na].[W]",
    "molecularFormula": "Na.O.W",
    "molecularMass": "",
    "experimentalProperties": [
        {
            "name": "Melting Point",
            "property": "698 °C",
            "sourceNumber": 1
        },
        {
            "name": "Density",
            "property": "4.179 g/cm³",
            "sourceNumber": 1
        }
    ],
    "propertyCitations": [
        {
            "docUri": "",
            "sourceNumber": 1,
            "source": "Hazardous Substances Data Bank data were obtained from the National Library of Medicine (US)"
        }
    ],
    "synonyms": [
        "Sodium tungsten oxide (Na<sub>2</sub>WO<sub>4</sub>)",
        "Tungstic acid (H<sub>2</sub>WO<sub>4</sub>), disodium salt",
        "Tungstate (WO<sub>4</sub><sup>2-</sup>), disodium, (<em>T</em>-4)-",
        "Disodium tungstate",
        "Disodium tungstate (Na<sub>2</sub>WO<sub>4</sub>)",
        "Sodium tungstate (Na<sub>2</sub>(WO<sub>4</sub>))",
        "Sodium tungstate",
        "Sodium tungstate(VI) (Na<sub>2</sub>WO<sub>4</sub>)",
        "Disodium tetraoxotungstate(2-)",
        "Disodium tetraoxatungstate(2-)",
        "Tungstate (WO<sub>4</sub><sup>2-</sup>), sodium (1:2), (<em>T</em>-4)-"
    ],
    "replacedRns": [
        "44142-66-7",
        "1290611-51-6",
        "1373772-04-3",
        "1446344-33-7",
        "1708934-19-3",
        "2076459-16-8",
        "2244760-56-1",
        "2470257-54-4",
        "2640844-21-7",
        "2920363-58-0"
    ],
    "hasMolfile": true,
    "source": "https://commonchemistry.cas.org/detail?cas_rn=13472-45-2"
}