{
    "cas_no": "28281-76-7",
    "key_name": "4-Methoxyphthalic anhydride",
    "cn_name": "5-甲氧基-异苯并呋喃-1,3-二酮;",
    "alternate_name": "1,3-Isobenzofurandione, 5-methoxy-;Phthalic anhydride, 4-methoxy-;5-Methoxy-1,3-isobenzofurandione;4-Methoxyphthalic anhydride;5-Methoxyphthalic anhydride;5-Methoxyisobenzofuran-1,3-dione;4-Methoxyphthalic acid anhydride",
    "duplicated_cas_no": "",
    "SMILES": "O=C1C=2C(C(=O)O1)=CC=C(OC)C2",
    "meta_data": {
        "InChI": "InChI=1S/C9H6O4/c1-12-5-2-3-6-7(4-5)9(11)13-8(6)10/h2-4H,1H3",
        "InChIKey": null,
        "Canonical SMILES": "O=C1OC(=O)C2=CC(OC)=CC=C12",
        "Molecular Formula": "C<sub>9</sub>H<sub>6</sub>O<sub>4</sub>",
        "Molecular Mass": "178.14",
        "Melting Point": "98-99 °C"
    }
}