{
    "cas_no": "589-68-4",
    "key_name": "1-Monomyristin",
    "cn_name": "甘油单肉豆寇酸酯;rac-甘油-1-豆蔻酸;1-单十四烷酰-rac-甘油;rac-1-肉豆蔻酰甘油;DL-α-肉豆蔻脂;单肉豆蔻;",
    "alternate_name": "Tetradecanoic acid, 2,3-dihydroxypropyl ester;Myristin, 1-mono-;Glyceryl myristate;Glycerol α-monomyristate;1-Monomyristin;Myristic acid 1-monoglyceride;α-Monomyristin;Glycerol 1-myristate;Myristic acid α-monoglyceride;Tetradecanoic acid α-monoglyceride;1-Monotetradecanoylglycerol;1-Monomyristoyl-<em>rac</em>-glycerol;(±)-2,3-Dihydroxypropyl tetradecanoate;NSC 404225;Glycerol 1-monotetradecanoate;2,3-Dihydroxypropyl tetradecanoate;1-Myristoyl-rac-glycerol;2,3-Dihydroxypropyltetradecanoate;1-Glyceryl myristate",
    "duplicated_cas_no": "75685-84-6",
    "SMILES": "C(OCC(CO)O)(CCCCCCCCCCCCC)=O",
    "meta_data": {
        "InChI": "InChI=1S/C17H34O4/c1-2-3-4-5-6-7-8-9-10-11-12-13-17(20)21-15-16(19)14-18/h16,18-19H,2-15H2,1H3",
        "InChIKey": null,
        "Canonical SMILES": "O=C(OCC(O)CO)CCCCCCCCCCCCC",
        "Molecular Formula": "C<sub>17</sub>H<sub>34</sub>O<sub>4</sub>",
        "Molecular Mass": "302.45",
        "Melting Point": "67.3 °C"
    }
}