{
    "cas_no": "936-59-4",
    "key_name": "3-Chloropropiophenone",
    "cn_name": "3-氯代苯丙酮;氯苯丙酮;",
    "alternate_name": "1-Propanone, 3-chloro-1-phenyl-;Propiophenone, 3-chloro-;3-Chloro-1-phenyl-1-propanone;β-Chloroethyl phenyl ketone;β-Chloropropiophenone;3-Chloropropiophenone;ω-Chloropropiophenone;2-Chloroethyl phenyl ketone;NSC 227202;NSC 37238;1-Phenyl-3-chloro-1-propanone;3-Chloro-1-phenylpropan-1-one;β-Chloropropanophenone",
    "duplicated_cas_no": "",
    "SMILES": "C(CCCl)(=O)C1=CC=CC=C1",
    "meta_data": {
        "InChI": "InChI=1S/C9H9ClO/c10-7-6-9(11)8-4-2-1-3-5-8/h1-5H,6-7H2",
        "InChIKey": null,
        "Canonical SMILES": "O=C(C=1C=CC=CC1)CCCl",
        "Molecular Formula": "C<sub>9</sub>H<sub>9</sub>ClO",
        "Molecular Mass": "168.62",
        "Boiling Point": "255-265 °C",
        "Melting Point": "57 °C",
        "Density": "1.0983 g/cm³ @ Temp: 20 °C"
    }
}