{
    "cas_no": "10466-72-5",
    "key_name": "Dinitrophenyl-ε-aminocaproic acid",
    "cn_name": null,
    "alternate_name": "Hexanoic acid, 6-[(2,4-dinitrophenyl)amino]-;Hexanoic acid, 6-(2,4-dinitroanilino)-;6-[(2,4-Dinitrophenyl)amino]hexanoic acid;Dinitrophenyl-ε-aminocaproic acid;ε-2,4-Dinitrophenylaminocaproic acid;<em>N</em>-(2,4-Dinitrophenyl)-6-aminocaproic acid;6-(2,4-Dinitroanilino)caproic acid;<em>N</em>-(2,4-Dinitrophenyl)-ε-aminocaproic acid;[(2,4-Dinitrophenyl)amino]caproic acid;DNP-ε-amino-<em>n</em>-caproic acid;NSC 89627",
    "duplicated_cas_no": "",
    "SMILES": "N(CCCCCC(O)=O)C1=C(N(=O)=O)C=C(N(=O)=O)C=C1",
    "meta_data": {
        "InChI": "InChI=1S/C12H15N3O6/c16-12(17)4-2-1-3-7-13-10-6-5-9(14(18)19)8-11(10)15(20)21/h5-6,8,13H,1-4,7H2,(H,16,17)",
        "InChIKey": null,
        "Canonical SMILES": "O=C(O)CCCCCNC1=CC=C(C=C1N(=O)=O)N(=O)=O",
        "Molecular Formula": "C<sub>12</sub>H<sub>15</sub>N<sub>3</sub>O<sub>6</sub>",
        "Molecular Mass": "297.26",
        "Melting Point": "134 °C (decomp)"
    }
}