{
    "cas_no": "88043-21-4",
    "key_name": "1-(1,1-Dimethylethyl) 2-methyl (2<em>S</em>,4<em>R</em>)-4-[[(4-methylphenyl)sulfonyl]oxy]-1,2-pyrrolidinedicarboxylate",
    "cn_name": null,
    "alternate_name": "1,2-Pyrrolidinedicarboxylic acid, 4-[[(4-methylphenyl)sulfonyl]oxy]-, 1-(1,1-dimethylethyl) 2-methyl ester, (2<em>S</em>,4<em>R</em>)-;1,2-Pyrrolidinedicarboxylic acid, 4-[[(4-methylphenyl)sulfonyl]oxy]-, 1-(1,1-dimethylethyl) 2-methyl ester, (2<em>S</em>-<em>trans</em>)-;1-(1,1-Dimethylethyl) 2-methyl (2<em>S</em>,4<em>R</em>)-4-[[(4-methylphenyl)sulfonyl]oxy]-1,2-pyrrolidinedicarboxylate;<em>tert</em>-Butyl methyl (2<em>S</em>,4<em>R</em>)-4-[[(4-methylphenyl)sulfonyl]oxy]pyrrolidine-1,2-dicarboxylate",
    "duplicated_cas_no": "",
    "SMILES": "C(OC(C)(C)C)(=O)N1[C@H](C(OC)=O)C[C@@H](OS(=O)(=O)C2=CC=C(C)C=C2)C1",
    "meta_data": {
        "InChI": "InChI=1S/C18H25NO7S/c1-12-6-8-14(9-7-12)27(22,23)26-13-10-15(16(20)24-5)19(11-13)17(21)25-18(2,3)4/h6-9,13,15H,10-11H2,1-5H3/t13-,15+/m1/s1",
        "InChIKey": null,
        "Canonical SMILES": "O=C(OC(C)(C)C)N1CC(OS(=O)(=O)C2=CC=C(C=C2)C)CC1C(=O)OC",
        "Molecular Formula": "C<sub>18</sub>H<sub>25</sub>NO<sub>7</sub>S",
        "Molecular Mass": "399.46",
        "Melting Point": "76-78 °C"
    }
}