{
    "cas_no": "28772-56-7",
    "key_name": "2<em>H</em>-1-Benzopyran-2-one, 3-[3-(4′-bromo[1,1′-biphenyl]-4-yl)-3-hydroxy-1-phenylpropyl]-4-hydroxy-",
    "cn_name": "溴敌隆;3-[3-(4-溴联苯基)-3-羟基-1-苯基丙基]-4-羟基香豆素;",
    "alternate_name": "2<em>H</em>-1-Benzopyran-2-one, 3-[3-(4′-bromo[1,1′-biphenyl]-4-yl)-3-hydroxy-1-phenylpropyl]-4-hydroxy-;Coumarin, 3-[α-[<em>p</em>-(<em>p</em>-bromophenyl)-β-hydroxyphenethyl]benzyl]-4-hydroxy-;3-[3-(4′-Bromo[1,1′-biphenyl]-4-yl)-3-hydroxy-1-phenylpropyl]-4-hydroxy-2<em>H</em>-1-benzopyran-2-one;Bromadiolone;Maki;Roban;Hemus AB;Ratonil;3-[3-(4′-Bromo[1,1′-biphenyl]-4-yl)-3-hydroxy-1-phenylpropyl]-4-hydroxy-2H-1-benzopyran-2-one",
    "duplicated_cas_no": "",
    "SMILES": "C(CC(O)C1=CC=C(C=C1)C2=CC=C(Br)C=C2)(C3=C(O)C=4C(OC3=O)=CC=CC4)C5=CC=CC=C5",
    "meta_data": {
        "InChI": "InChI=1S/C30H23BrO4/c31-23-16-14-20(15-17-23)19-10-12-22(13-11-19)26(32)18-25(21-6-2-1-3-7-21)28-29(33)24-8-4-5-9-27(24)35-30(28)34/h1-17,25-26,32-33H,18H2",
        "InChIKey": null,
        "Canonical SMILES": "O=C1OC=2C=CC=CC2C(O)=C1C(C=3C=CC=CC3)CC(O)C4=CC=C(C=C4)C=5C=CC(Br)=CC5",
        "Molecular Formula": "C<sub>30</sub>H<sub>23</sub>BrO<sub>4</sub>",
        "Molecular Mass": "527.41",
        "Melting Point": "205 °C"
    }
}