{
    "cas_no": "3235-17-4",
    "key_name": "<em>N</em>-[(Phenylmethoxy)carbonyl]-<span class=\"text-smallcaps\">L</span>-alanylglycine",
    "cn_name": null,
    "alternate_name": "Glycine, <em>N</em>-[(phenylmethoxy)carbonyl]-<span class=\"text-smallcaps\">L</span>-alanyl-;Glycine, <em>N</em>-(<em>N</em>-carboxy-<span class=\"text-smallcaps\">L</span>-alanyl)-, <em>N</em>-benzyl ester;Glycine, <em>N</em>-[<em>N</em>-[(phenylmethoxy)carbonyl]-<span class=\"text-smallcaps\">L</span>-alanyl]-;<em>N</em>-[(Phenylmethoxy)carbonyl]-<span class=\"text-smallcaps\">L</span>-alanylglycine;Benzyloxycarbonyl-<span class=\"text-smallcaps\">L</span>-alanylglycine;<em>N</em>-Carbobenzoxy-<span class=\"text-smallcaps\">L</span>-alanylglycine;<em>N</em>-(Benzyloxycarbonyl)alanylglycine;Cbz-<span class=\"text-smallcaps\">L</span>-Ala-Gly-OH;2-[[(2S)-2-(Phenylmethoxycarbonylamino)propanoyl]amino]acetic acid",
    "duplicated_cas_no": "",
    "SMILES": "C(OC(N[C@H](C(NCC(O)=O)=O)C)=O)C1=CC=CC=C1",
    "meta_data": {
        "InChI": "InChI=1S/C13H16N2O5/c1-9(12(18)14-7-11(16)17)15-13(19)20-8-10-5-3-2-4-6-10/h2-6,9H,7-8H2,1H3,(H,14,18)(H,15,19)(H,16,17)/t9-/m0/s1",
        "InChIKey": null,
        "Canonical SMILES": "O=C(OCC=1C=CC=CC1)NC(C(=O)NCC(=O)O)C",
        "Molecular Formula": "C<sub>13</sub>H<sub>16</sub>N<sub>2</sub>O<sub>5</sub>",
        "Molecular Mass": "280.28",
        "Melting Point": "132 °C"
    }
}