{
    "cas_no": "32181-59-2",
    "key_name": "<em>N</em>-Acetyllactosamine",
    "cn_name": null,
    "alternate_name": "<span class=\"text-smallcaps\">D</smallcap>-Glucose, 2-(acetylamino)-2-deoxy-4-<em>O</em>-β-<smallcap>D</span>-galactopyranosyl-;<span class=\"text-smallcaps\">D</smallcap>-Glucose, 2-acetamido-2-deoxy-4-<em>O</em>-β-<smallcap>D</span>-galactopyranosyl-;<span class=\"text-smallcaps\">D</smallcap>-Glucosamine, <em>N</em>-acetyl-4-<em>O</em>-β-<smallcap>D</span>-galactopyranosyl-;2-(Acetylamino)-2-deoxy-4-<em>O</em>-β-<span class=\"text-smallcaps\">D</smallcap>-galactopyranosyl-<smallcap>D</span>-glucose;<em>N</em>-Acetyllactosamine;Lactosamine, <em>N</em>-acetyl-;<em>O</em>-β-<span class=\"text-smallcaps\">D</smallcap>-Galactopyranosyl-(1→4)-2-deoxy-2-acetamido-<smallcap>D</span>-glucose;<em>N</em>-Acetyl-4-<em>O</em>-β-<span class=\"text-smallcaps\">D</smallcap>-galactopyranosyl-<smallcap>D</span>-glucosamine;2-Acetamido-2-deoxy-4-<em>O</em>-β-<span class=\"text-smallcaps\">D</smallcap>-galactopyranosyl-<smallcap>D</span>-glucose",
    "duplicated_cas_no": "98529-93-2;133432-89-0;849699-87-2;1195141-68-4;1348336-54-8",
    "SMILES": "O([C@@H]([C@@H]([C@@H](NC(C)=O)C=O)O)[C@@H](CO)O)[C@@H]1O[C@H](CO)[C@H](O)[C@H](O)[C@H]1O",
    "meta_data": {
        "InChI": "InChI=1S/C14H25NO11/c1-5(19)15-6(2-16)9(21)13(7(20)3-17)26-14-12(24)11(23)10(22)8(4-18)25-14/h2,6-14,17-18,20-24H,3-4H2,1H3,(H,15,19)/t6-,7+,8+,9+,10-,11-,12+,13+,14-/m0/s1",
        "InChIKey": null,
        "Canonical SMILES": "O=CC(NC(=O)C)C(O)C(OC1OC(CO)C(O)C(O)C1O)C(O)CO",
        "Molecular Formula": "C<sub>14</sub>H<sub>25</sub>NO<sub>11</sub>",
        "Molecular Mass": "383.35",
        "Melting Point": "170-185 °C (decomp)"
    }
}