{
    "cas_no": "19968-17-3",
    "key_name": "4-Bromo-3-(trifluoromethyl)-1<em>H</em>-pyrazole",
    "cn_name": null,
    "alternate_name": "1<em>H</em>-Pyrazole, 4-bromo-3-(trifluoromethyl)-;Pyrazole, 4-bromo-3-(trifluoromethyl)-;4-Bromo-3-(trifluoromethyl)-1<em>H</em>-pyrazole;4-Bromo-3-trifluoromethyl-1<em>H</em>-pyrazole;4-Bromo-5-trifluoromethyl-1<em>H</em>-pyrazole",
    "duplicated_cas_no": "918339-68-1;1808957-19-8",
    "SMILES": "C(F)(F)(F)C=1C(Br)=CNN1",
    "meta_data": {
        "InChI": "InChI=1S/C4H2BrF3N2/c5-2-1-9-10-3(2)4(6,7)8/h1H,(H,9,10)",
        "InChIKey": null,
        "Canonical SMILES": "FC(F)(F)C1=NNC=C1Br",
        "Molecular Formula": "C<sub>4</sub>H<sub>2</sub>BrF<sub>3</sub>N<sub>2</sub>",
        "Molecular Mass": "214.97",
        "Melting Point": "108 °C"
    }
}