{
    "cas_no": "3465-72-3",
    "key_name": "<em>trans</em>-Urocanic acid",
    "cn_name": null,
    "alternate_name": "2-Propenoic acid, 3-(1<em>H</em>-imidazol-5-yl)-, (2<em>E</em>)-;Imidazole-4-acrylic acid, (<em>E</em>)-;2-Propenoic acid, 3-(1<em>H</em>-imidazol-4-yl)-, (<em>E</em>)-;2-Propenoic acid, 3-(1<em>H</em>-imidazol-4-yl)-, (2<em>E</em>)-;Urocanic acid, <em>trans</em>-;(2<em>E</em>)-3-(1<em>H</em>-Imidazol-5-yl)-2-propenoic acid;<em>trans</em>-Urocanic acid;(<em>E</em>)-3-(4-Imidazolyl)acrylic acid;(<em>E</em>)-Urocanic acid;(<em>E</em>)-3-(Imidazol-4-yl)-2-propenoic acid;(<em>E</em>)-3-(1<em>H</em>-Imidazol-4-yl)-2-propenoic acid",
    "duplicated_cas_no": "7699-36-7;739340-22-8;926068-43-1",
    "SMILES": "C(=C/C(O)=O)\\C1=CN=CN1",
    "meta_data": {
        "InChI": "InChI=1S/C6H6N2O2/c9-6(10)2-1-5-3-7-4-8-5/h1-4H,(H,7,8)(H,9,10)/b2-1+",
        "InChIKey": null,
        "Canonical SMILES": "O=C(O)C=CC1=CN=CN1",
        "Molecular Formula": "C<sub>6</sub>H<sub>6</sub>N<sub>2</sub>O<sub>2</sub>",
        "Molecular Mass": "138.12",
        "Melting Point": "168-172 °C"
    }
}