{
    "cas_no": "2596-47-6",
    "key_name": "3-[4-(Acetyloxy)-3-methoxyphenyl]-2-propenoic acid",
    "cn_name": null,
    "alternate_name": "2-Propenoic acid, 3-[4-(acetyloxy)-3-methoxyphenyl]-;Cinnamic acid, 4-hydroxy-3-methoxy-, acetate;3-[4-(Acetyloxy)-3-methoxyphenyl]-2-propenoic acid;3-Methoxy-4-acetoxycinnamic acid;Acetylferulic acid;4-Acetoxy-3-methoxycinnamic acid;Ferulic acid acetate;4-Acetyloxy-3-methoxycinnamic acid;3-(4-Acetoxy-3-methoxyphenyl)-2-propenoic acid;<em>O</em>-Acetylferulic acid;NSC 16957",
    "duplicated_cas_no": "",
    "SMILES": "O(C(C)=O)C1=C(OC)C=C(C=CC(O)=O)C=C1",
    "meta_data": {
        "InChI": "InChI=1S/C12H12O5/c1-8(13)17-10-5-3-9(4-6-12(14)15)7-11(10)16-2/h3-7H,1-2H3,(H,14,15)",
        "InChIKey": null,
        "Canonical SMILES": "O=C(O)C=CC1=CC=C(OC(=O)C)C(OC)=C1",
        "Molecular Formula": "C<sub>12</sub>H<sub>12</sub>O<sub>5</sub>",
        "Molecular Mass": "236.22",
        "Melting Point": "196-198 °C"
    }
}