{
    "cas_no": "2948-46-1",
    "key_name": "α<sup>1</sup>,α<sup>1</sup>,α<sup>4</sup>,α<sup>4</sup>-Tetramethyl-1,4-benzenedimethanol",
    "cn_name": "1,4-双(1-甲基-1-羟乙基)苯;二羟基-1,4-二异丙基苯;",
    "alternate_name": "1,4-Benzenedimethanol, α<sup>1</sup>,α<sup>1</sup>,α<sup>4</sup>,α<sup>4</sup>-tetramethyl-;<em>p</em>-Xylene-α,α′-diol, α,α,α′,α′-tetramethyl-;1,4-Benzenedimethanol, α,α,α′,α′-tetramethyl-;α<sup>1</sup>,α<sup>1</sup>,α<sup>4</sup>,α<sup>4</sup>-Tetramethyl-1,4-benzenedimethanol;α,α′-Dihydroxy-<em>p</em>-diisopropylbenzene;α,α,α′,α′-Tetramethyl-<em>p</em>-xylylenediol;<em>p</em>-Bis(2-hydroxyisopropyl)benzene;1,4-Bis(2-hydroxy-2-propyl)benzene;α,α,α′,α′-Tetramethyl-<em>p</em>-benzenedimethanol;<em>p</em>-Bis(α-hydroxyisopropyl)benzene;Dicumyl alcohol;1,4-Bis(1-hydroxy-1-methylethyl)benzene;1,4-Di(2-hydroxy-2-propyl)benzene;1,4-Bis(α-hydroxyisopropyl)benzene;1,4-Bis(2-propanol)benzene;α,α,α′,α′-Tetramethyl-1,4-benzenedimethanol;1,4-Bis(1-methyl-1-hydroxyethyl)benzene;2-[4-(2-Hydroxypropan-2-yl)phenyl]propan-2-ol",
    "duplicated_cas_no": "",
    "SMILES": "C(C)(C)(O)C1=CC=C(C(C)(C)O)C=C1",
    "meta_data": {
        "InChI": "InChI=1S/C12H18O2/c1-11(2,13)9-5-7-10(8-6-9)12(3,4)14/h5-8,13-14H,1-4H3",
        "InChIKey": null,
        "Canonical SMILES": "OC(C1=CC=C(C=C1)C(O)(C)C)(C)C",
        "Molecular Formula": "C<sub>12</sub>H<sub>18</sub>O<sub>2</sub>",
        "Molecular Mass": "194.27",
        "Melting Point": "141-142 °C",
        "Density": "1.10 g/cm³"
    }
}