{
    "cas_no": "965-93-5",
    "key_name": "Methyltrienolone",
    "cn_name": "美曲勃龙;甲基群勃龙;",
    "alternate_name": "Estra-4,9,11-trien-3-one, 17-hydroxy-17-methyl-, (17β)-;Estra-4,9,11-trien-3-one, 17β-hydroxy-17-methyl-;(17β)-17-Hydroxy-17-methylestra-4,9,11-trien-3-one;R 1881;17β-Hydroxy-17-methylestra-4,9,11-trien-3-one;Methyltrienolone;Metribolone;3-Oxo-17β-hydroxy-17α-methylestra-4,9,11-triene;17α-Methyl-17β-hydroxyestra-4,9,11-trien-3-one;3-Oxo-17β-hydroxy-17-methylestra-4,9,11-triene;17α-Methyltrienolone;RU 1881;17α-Methyl-3-oxo-4,9,11-estratrien-17β-ol;17α-Methyl-17β-hydroxyestra-4,9(10),11-trien-3-one;NSC 92858",
    "duplicated_cas_no": "1050679-33-8",
    "SMILES": "C[C@@]12[C@]([C@]3(C(C=C1)=C4C(CC3)=CC(=O)CC4)[H])(CC[C@]2(C)O)[H]",
    "meta_data": {
        "InChI": "InChI=1S/C19H24O2/c1-18-9-7-15-14-6-4-13(20)11-12(14)3-5-16(15)17(18)8-10-19(18,2)21/h7,9,11,16-17,21H,3-6,8,10H2,1-2H3/t16-,17+,18+,19+/m1/s1",
        "InChIKey": null,
        "Canonical SMILES": "O=C1C=C2C(=C3C=CC4(C)C(CCC4(O)C)C3CC2)CC1",
        "Molecular Formula": "C<sub>19</sub>H<sub>24</sub>O<sub>2</sub>",
        "Molecular Mass": "284.39",
        "Melting Point": "170 °C"
    }
}