{
    "cas_no": "1768-59-8",
    "key_name": "<em>N</em>,2-Diphenylhydrazinecarbothioamide",
    "cn_name": "1,4-二苯氨基硫脲;1,4-二苯氨基硫脲;",
    "alternate_name": "Hydrazinecarbothioamide, <em>N</em>,2-diphenyl-;Semicarbazide, 1,4-diphenyl-3-thio-;<em>N</em>,2-Diphenylhydrazinecarbothioamide;1,4-Diphenylthiosemicarbazide;1,4-Diphenyl-3-thiosemicarbazide;<em>N</em>,2-diphenylhydrazinecarbothioamide;NSC 406528;NSC 49341;1-Anilino-3-phenylthiourea",
    "duplicated_cas_no": "",
    "SMILES": "N(C(NNC1=CC=CC=C1)=S)C2=CC=CC=C2",
    "meta_data": {
        "InChI": "InChI=1S/C13H13N3S/c17-13(14-11-7-3-1-4-8-11)16-15-12-9-5-2-6-10-12/h1-10,15H,(H2,14,16,17)",
        "InChIKey": null,
        "Canonical SMILES": "S=C(NNC=1C=CC=CC1)NC=2C=CC=CC2",
        "Molecular Formula": "C<sub>13</sub>H<sub>13</sub>N<sub>3</sub>S",
        "Molecular Mass": "243.33",
        "Melting Point": "176 °C"
    }
}