{
    "cas_no": "112649-48-6",
    "key_name": "BR-xanthone A",
    "cn_name": null,
    "alternate_name": "10<em>H</em>-Dipyrano[3,2-<em>a</em>:2′,3′-<em>i</em>]xanthen-14(1<em>H</em>)-one, 2,3,11,12-tetrahydro-5,13-dihydroxy-3,3,10,10-tetramethyl-;2,3,11,12-Tetrahydro-5,13-dihydroxy-3,3,10,10-tetramethyl-10<em>H</em>-dipyrano[3,2-<em>a</em>:2′,3′-<em>i</em>]xanthen-14(1<em>H</em>)-one;BR-xanthone A",
    "duplicated_cas_no": "",
    "SMILES": "O=C1C=2C3=C(C(O)=CC2OC=4C1=C(O)C5=C(C4)OC(C)(C)CC5)OC(C)(C)CC3",
    "meta_data": {
        "InChI": "InChI=1S/C23H24O6/c1-22(2)7-5-11-14(28-22)10-16-18(19(11)25)20(26)17-12-6-8-23(3,4)29-21(12)13(24)9-15(17)27-16/h9-10,24-25H,5-8H2,1-4H3",
        "InChIKey": null,
        "Canonical SMILES": "O=C1C=2C(O)=C3C(OC(C)(C)CC3)=CC2OC4=CC(O)=C5OC(C)(C)CCC5=C14",
        "Molecular Formula": "C<sub>23</sub>H<sub>24</sub>O<sub>6</sub>",
        "Molecular Mass": "396.43",
        "Melting Point": "180-182 °C"
    }
}