{
    "cas_no": "2825-00-5",
    "key_name": "Aureothin",
    "cn_name": null,
    "alternate_name": "4<em>H</em>-Pyran-4-one, 2-methoxy-3,5-dimethyl-6-[(2<em>R</em>,4<em>Z</em>)-tetrahydro-4-[(2<em>E</em>)-2-methyl-3-(4-nitrophenyl)-2-propen-1-ylidene]-2-furanyl]-;4<em>H</em>-Pyran-4-one, 2-methoxy-3,5-dimethyl-6-[tetrahydro-4-[2-methyl-3-(4-nitrophenyl)-2-propenylidene]-2-furanyl]-, [<em>R</em>-(<em>Z</em>,<em>E</em>)]-;4<em>H</em>-Pyran-4-one, 2-methoxy-3,5-dimethyl-6-[tetrahydro-4-(β-methyl-<em>p</em>-nitrocinnamylidene)-2-furyl]-;4<em>H</em>-Pyran-4-one, 2-methoxy-3,5-dimethyl-6-[(2<em>R</em>,4<em>Z</em>)-tetrahydro-4-[(2<em>E</em>)-2-methyl-3-(4-nitrophenyl)-2-propenylidene]-2-furanyl]-;2-Methoxy-3,5-dimethyl-6-[(2<em>R</em>,4<em>Z</em>)-tetrahydro-4-[(2<em>E</em>)-2-methyl-3-(4-nitrophenyl)-2-propen-1-ylidene]-2-furanyl]-4<em>H</em>-pyran-4-one;Aureothin;Mycolutein;Strain 58 substance;(+)-Aureothin;(+)-(<em>R</em>)-Aureothin",
    "duplicated_cas_no": "1400-44-8;26469-10-3",
    "SMILES": "CC1=C(OC(OC)=C(C)C1=O)[C@H]2C\\C(=C\\C(=C\\C3=CC=C(N(=O)=O)C=C3)\\C)\\CO2",
    "meta_data": {
        "InChI": "InChI=1S/C22H23NO6/c1-13(9-16-5-7-18(8-6-16)23(25)26)10-17-11-19(28-12-17)21-14(2)20(24)15(3)22(27-4)29-21/h5-10,19H,11-12H2,1-4H3/b13-9+,17-10-/t19-/m1/s1",
        "InChIKey": null,
        "Canonical SMILES": "O=C1C(=C(OC(=C1C)C2OCC(=CC(=CC3=CC=C(C=C3)N(=O)=O)C)C2)OC)C",
        "Molecular Formula": "C<sub>22</sub>H<sub>23</sub>NO<sub>6</sub>",
        "Molecular Mass": "397.42",
        "Melting Point": "157-158 °C"
    }
}