{
    "cas_no": "104-04-1",
    "key_name": "<em>N</em>-(4-Nitrophenyl)acetamide",
    "cn_name": "对硝基乙酰苯胺;",
    "alternate_name": "Acetamide, <em>N</em>-(4-nitrophenyl)-;Acetanilide, 4′-nitro-;Acetanilide, <em>p</em>-nitro-;<em>N</em>-(4-Nitrophenyl)acetamide;<em>p</em>-Nitroacetanilide;4′-Nitroacetanilide;<em>N</em>-Acetyl-<em>p</em>-nitroaniline;<em>p</em>-Acetamidonitrobenzene;<em>N</em>-Acetyl-4-nitroaniline;<em>N</em>-Acetyl-4-nitrobenzenamine;1-Nitro-4-acetylaminobenzene;<em>N</em>-(<em>p</em>-Nitrophenyl)acetamide;4-(Acetylamino)nitrobenzene;NSC 1315;1-(Acetylamino)-4-nitrobenzene",
    "duplicated_cas_no": "",
    "SMILES": "N(C(C)=O)C1=CC=C(N(=O)=O)C=C1",
    "meta_data": {
        "InChI": "InChI=1S/C8H8N2O3/c1-6(11)9-7-2-4-8(5-3-7)10(12)13/h2-5H,1H3,(H,9,11)",
        "InChIKey": null,
        "Canonical SMILES": "O=C(NC1=CC=C(C=C1)N(=O)=O)C",
        "Molecular Formula": "C<sub>8</sub>H<sub>8</sub>N<sub>2</sub>O<sub>3</sub>",
        "Molecular Mass": "180.16",
        "Boiling Point": "100 °C",
        "Melting Point": "216 °C"
    }
}