{
    "cas_no": "66067-43-4",
    "key_name": "3-Ethylbenzophenone",
    "cn_name": null,
    "alternate_name": "Methanone, (3-ethylphenyl)phenyl-;(3-Ethylphenyl)phenylmethanone;3-Ethylbenzophenone;<em>m</em>-Ethylbenzophenone",
    "duplicated_cas_no": "",
    "SMILES": "C(=O)(C1=CC(CC)=CC=C1)C2=CC=CC=C2",
    "meta_data": {
        "InChI": "InChI=1S/C15H14O/c1-2-12-7-6-10-14(11-12)15(16)13-8-4-3-5-9-13/h3-11H,2H2,1H3",
        "InChIKey": null,
        "Canonical SMILES": "O=C(C=1C=CC=CC1)C2=CC=CC(=C2)CC",
        "Molecular Formula": "C<sub>15</sub>H<sub>14</sub>O",
        "Molecular Mass": "210.27",
        "Boiling Point": "320-333 °C @ Press: 760 Torr"
    }
}