{
    "cas_no": "1119-62-6",
    "key_name": "3,3′-Dithiodipropionic acid",
    "cn_name": "3,3\"-二硫代二丙酸;3,3\"-二氢氧啉酸;",
    "alternate_name": "Propanoic acid, 3,3′-dithiobis-;Propionic acid, 3,3′-dithiodi-;Propionic acid, β,β′-dithiodi-;Propionic acid, β,β′-dithiobis-;3,3′-Dithiobis[propanoic acid];3,3′-Dithiodipropionic acid;β,β′-Dithiodipropionic acid;2-Carboxyethyl disulfide;Bis(2-carboxyethyl)disulfide;3,3′-Dithiodipropanoic acid;3,3-Dithiobispropionic acid;NSC 677544;NSC 18841;DTDPA;Disulfide dipropanoic acid;3,3′-Bisthiodipropionic acid;3,3′-Disulfanediyldipropanoic acid;3-[(2-Carboxyethyl)disulfanyl]propanoic acid",
    "duplicated_cas_no": "",
    "SMILES": "C(CC(O)=O)SSCCC(O)=O",
    "meta_data": {
        "InChI": "InChI=1S/C6H10O4S2/c7-5(8)1-3-11-12-4-2-6(9)10/h1-4H2,(H,7,8)(H,9,10)",
        "InChIKey": null,
        "Canonical SMILES": "O=C(O)CCSSCCC(=O)O",
        "Molecular Formula": "C<sub>6</sub>H<sub>10</sub>O<sub>4</sub>S<sub>2</sub>",
        "Molecular Mass": "210.27",
        "Melting Point": "156-157 °C"
    }
}