{
    "cas_no": "39878-65-4",
    "key_name": "<em>O</em>-Methyl-<span class=\"text-smallcaps\">D</span>-tyrosine",
    "cn_name": "O-甲基-D-酪氨酸;",
    "alternate_name": "<span class=\"text-smallcaps\">D</span>-Tyrosine, <em>O</em>-methyl-;<em>O</em>-Methyl-<span class=\"text-smallcaps\">D</span>-tyrosine;<span class=\"text-smallcaps\">D</span>-<em>O</em>-Methyltyrosine;<span class=\"text-smallcaps\">D</span>-4-Methoxyphenylalanine;(<em>R</em>)-2-Amino-3-(4-methoxyphenyl)propionic acid;(2R)-2-Amino-3-(4-methoxyphenyl)propanoic acid",
    "duplicated_cas_no": "",
    "SMILES": "C([C@H](C(O)=O)N)C1=CC=C(OC)C=C1",
    "meta_data": {
        "InChI": "InChI=1S/C10H13NO3/c1-14-8-4-2-7(3-5-8)6-9(11)10(12)13/h2-5,9H,6,11H2,1H3,(H,12,13)/t9-/m1/s1",
        "InChIKey": null,
        "Canonical SMILES": "O=C(O)C(N)CC1=CC=C(OC)C=C1",
        "Molecular Formula": "C<sub>10</sub>H<sub>13</sub>NO<sub>3</sub>",
        "Molecular Mass": "195.22",
        "Melting Point": "262-263 °C (decomp)"
    }
}