{
    "cas_no": "23666-13-9",
    "key_name": "Vicenin 2",
    "cn_name": "维采宁-2; 葡萄糖基芹菜素; 6-C-葡萄糖-8-C-木糖洋芹素;",
    "alternate_name": "4<em>H</em>-1-Benzopyran-4-one, 6,8-di-β-<span class=\"text-smallcaps\">D</span>-glucopyranosyl-5,7-dihydroxy-2-(4-hydroxyphenyl)-;Vicenin;6,8-Di-β-<span class=\"text-smallcaps\">D</span>-glucopyranosyl-5,7-dihydroxy-2-(4-hydroxyphenyl)-4<em>H</em>-1-benzopyran-4-one;Vicenin 2;Apigenin 6,8-bis(<em>C</em>-β-<span class=\"text-smallcaps\">D</span>-glucopyranoside);Apigenin 6,8-di-<em>C</em>-<span class=\"text-smallcaps\">D</span>-glucoside;6,8-Di-<em>C</em>-glucosylapigenin;6,8-Di-<em>C</em>-β-glucosylapigenin;Vicenin II;Violantin;6,8-Di-<em>C</em>-β-<span class=\"text-smallcaps\">D</span>-glucopyranosylapigenin;Apigenin 6,8-di-<em>C</em>-β-<span class=\"text-smallcaps\">D</span>-glucoside;Apigenin 6,8-di-<em>C</em>-glucoside;Apigenin 6,8-di-glucopyranoside;Apigenin 6,8-di-C-glucopyranoside;Apigenin 6,8-<em>C</em>-di-β-<span class=\"text-smallcaps\">D</span>-glucopyranoside;6,8-Di-C-glucopyranosylapigenin",
    "duplicated_cas_no": "61393-93-9",
    "SMILES": "OC=1C(=C2C(=C(O)C1[C@@H]3O[C@H](CO)[C@@H](O)[C@H](O)[C@H]3O)C(=O)C=C(O2)C4=CC=C(O)C=C4)[C@@H]5O[C@H](CO)[C@@H](O)[C@H](O)[C@H]5O",
    "meta_data": {
        "InChI": "InChI=1S/C27H30O15/c28-6-12-17(32)21(36)23(38)26(41-12)15-19(34)14-10(31)5-11(8-1-3-9(30)4-2-8)40-25(14)16(20(15)35)27-24(39)22(37)18(33)13(7-29)42-27/h1-5,12-13,17-18,21-24,26-30,32-39H,6-7H2/t12-,13-,17-,18-,21+,22+,23-,24-,26+,27+/m1/s1",
        "InChIKey": null,
        "Canonical SMILES": "O=C1C=C(OC2=C1C(O)=C(C(O)=C2C3OC(CO)C(O)C(O)C3O)C4OC(CO)C(O)C(O)C4O)C=5C=CC(O)=CC5",
        "Molecular Formula": "C<sub>27</sub>H<sub>30</sub>O<sub>15</sub>",
        "Molecular Mass": "594.52",
        "Melting Point": "&gt;250 °C (decomp)"
    }
}