{
    "cas_no": "3332-27-2",
    "key_name": "Tetradecyldimethylamine oxide",
    "cn_name": "N,N-二甲基十四癸胺-N-氧化物二甲基十四胺氧化物N,N-二甲基十四(烷)胺-N-氧化物;",
    "alternate_name": "1-Tetradecanamine, <em>N</em>,<em>N</em>-dimethyl-, <em>N</em>-oxide;Tetradecylamine, <em>N</em>,<em>N</em>-dimethyl-, <em>N</em>-oxide;Ammonyx MO;<em>N</em>,<em>N</em>-Dimethylmyristylamine oxide;Myristyldimethylamine oxide;<em>N</em>,<em>N</em>-Dimethyl-<em>n</em>-tetradecylamine oxide;Dimethylmyristylamine oxide;<em>N</em>-Tetradecyldimethylamine <em>N</em>-oxide;Myristamine oxide;Conco XA-M;Aromox DM 14;<em>N</em>-Myristyl-<em>N</em>,<em>N</em>-dimethylamine oxide;<em>N</em>,<em>N</em>-Dimethyltetradecylamine oxide;<em>N</em>,<em>N</em>-Dimethyl-1-tetradecanamine oxide;Empigen OH;Dimethyltetradecylamine oxide;<em>N</em>,<em>N</em>-Dimethyl 1-tetradecanamine <em>N</em>-oxide;Ninox M;Aromox DM 14D-W;Tetradecyldimethylamine oxide;Tetradecyldimethylaminoxide;Aromox DM 14D-N;Empigen OH 25;Admox 14;Aromox DM 14D;Aromox DM 14D-W970;Incromine Oxide M;Admox SC 1485;Genaminox MY;Tetradecyldimethylamine <em>N</em>-oxide;Aromox 14D-W970;Aromox DM 14N;<em>N</em>,<em>N</em>-Dimethyl-<em>N</em>-tetradecylamine <em>N</em>-oxide;Cadenax DM 14D-N;OA 14;Ammonyx M;Esadecyldimethylamine <em>N</em>-oxide;Amphitol 40N",
    "duplicated_cas_no": "217643-95-3;217821-90-4;683806-08-8",
    "SMILES": "C(CCCCCCCCCCC)CCN(C)(C)=O",
    "meta_data": {
        "InChI": "InChI=1S/C16H35NO/c1-4-5-6-7-8-9-10-11-12-13-14-15-16-17(2,3)18/h4-16H2,1-3H3",
        "InChIKey": null,
        "Canonical SMILES": "O=N(C)(C)CCCCCCCCCCCCCC",
        "Molecular Formula": "C<sub>16</sub>H<sub>35</sub>NO",
        "Molecular Mass": "257.46",
        "Melting Point": "130.2-130.5 °C"
    }
}