{
    "cas_no": "1991-52-2",
    "key_name": "2,5-Di-<em>tert</em>-butyl-4-methoxyphenol",
    "cn_name": "2,5-二叔丁基-4-甲氧基苯酚;",
    "alternate_name": "Phenol, 2,5-bis(1,1-dimethylethyl)-4-methoxy-;Phenol, 2,5-di-<em>tert</em>-butyl-4-methoxy-;2,5-Bis(1,1-dimethylethyl)-4-methoxyphenol;2,5-Di-<em>tert</em>-butyl-4-methoxyphenol;2,5-Di-<em>tert</em>-butyl-4-hydroxyanisole;DTBMP;2,5-Di(1,1-dimethylethyl)-4-methoxyphenol;2,5-Ditert-butyl-4-methoxyphenol;DTBMP (antioxidant)",
    "duplicated_cas_no": "1449223-59-9",
    "SMILES": "C(C)(C)(C)C1=C(OC)C=C(C(C)(C)C)C(O)=C1",
    "meta_data": {
        "InChI": "InChI=1S/C15H24O2/c1-14(2,3)10-9-13(17-7)11(8-12(10)16)15(4,5)6/h8-9,16H,1-7H3",
        "InChIKey": null,
        "Canonical SMILES": "OC=1C=C(C(OC)=CC1C(C)(C)C)C(C)(C)C",
        "Molecular Formula": "C<sub>15</sub>H<sub>24</sub>O<sub>2</sub>",
        "Molecular Mass": "236.35",
        "Melting Point": "101.5-103 °C"
    }
}