{
    "cas_no": "123-18-2",
    "key_name": "2,6,8-Trimethyl-4-nonanone",
    "cn_name": "2,6,8-三甲基-4-壬酮;",
    "alternate_name": "4-Nonanone, 2,6,8-trimethyl-;2,6,8-Trimethyl-4-nonanone;2,4,8-Trimethylnonan-6-one;NSC 66186",
    "duplicated_cas_no": "",
    "SMILES": "C(CC(CC(C)C)=O)(CC(C)C)C",
    "meta_data": {
        "InChI": "InChI=1S/C12H24O/c1-9(2)6-11(5)8-12(13)7-10(3)4/h9-11H,6-8H2,1-5H3",
        "InChIKey": null,
        "Canonical SMILES": "O=C(CC(C)C)CC(C)CC(C)C",
        "Molecular Formula": "C<sub>12</sub>H<sub>24</sub>O",
        "Molecular Mass": "184.32",
        "Boiling Point": "210-212 °C",
        "Density": "0.820 g/cm³"
    }
}