{
    "cas_no": "98-06-6",
    "key_name": "<em>tert</em>-Butylbenzene",
    "cn_name": "叔丁基苯;",
    "alternate_name": "Benzene, (1,1-dimethylethyl)-;Benzene, <em>tert</em>-butyl-;(1,1-Dimethylethyl)benzene;<em>tert</em>-Butylbenzene;2-Methyl-2-phenylpropane;Trimethylphenylmethane;Dimethylethylbenzene;<em>t</em>-Butylbenzene;Phenyltrimethylmethane;NSC 6557",
    "duplicated_cas_no": "",
    "SMILES": "C(C)(C)(C)C1=CC=CC=C1",
    "meta_data": {
        "InChI": "InChI=1S/C10H14/c1-10(2,3)9-7-5-4-6-8-9/h4-8H,1-3H3",
        "InChIKey": null,
        "Canonical SMILES": "C=1C=CC(=CC1)C(C)(C)C",
        "Molecular Formula": "C<sub>10</sub>H<sub>14</sub>",
        "Molecular Mass": "134.22",
        "Boiling Point": "169.1 °C",
        "Melting Point": "-57.8 °C",
        "Density": "0.8669 g/cm³ @ Temp: 20 °C"
    }
}