{
    "cas_no": "80789-69-1",
    "key_name": "1-(4-Chlorophenyl)cyclopentanecarboxylic acid",
    "cn_name": null,
    "alternate_name": "Cyclopentanecarboxylic acid, 1-(4-chlorophenyl)-;Cyclopentanecarboxylic acid, 1-(<em>p</em>-chlorophenyl)-;1-(4-Chlorophenyl)cyclopentanecarboxylic acid;1-(<em>p</em>-Chlorophenyl)cyclopentanecarboxylic acid;1-(4-Chlorophenyl)-1-cyclopentanecarboxylic acid;NSC 123457",
    "duplicated_cas_no": "1323151-68-3",
    "SMILES": "C(O)(=O)C1(CCCC1)C2=CC=C(Cl)C=C2",
    "meta_data": {
        "InChI": "InChI=1S/C12H13ClO2/c13-10-5-3-9(4-6-10)12(11(14)15)7-1-2-8-12/h3-6H,1-2,7-8H2,(H,14,15)",
        "InChIKey": null,
        "Canonical SMILES": "O=C(O)C1(C2=CC=C(Cl)C=C2)CCCC1",
        "Molecular Formula": "C<sub>12</sub>H<sub>13</sub>ClO<sub>2</sub>",
        "Molecular Mass": "224.68",
        "Melting Point": "148-149 °C"
    }
}