{
    "cas_no": "876-33-5",
    "key_name": "Hydroxylamine, <em>O</em>-[(4-methoxyphenyl)methyl]-, hydrochloride (1:1)",
    "cn_name": null,
    "alternate_name": "Hydroxylamine, <em>O</em>-[(4-methoxyphenyl)methyl]-, hydrochloride (1:1);Hydroxylamine, <em>O</em>-(<em>p</em>-methoxybenzyl)-, hydrochloride;Benzyloxyamine, <em>p</em>-methoxy-, hydrochloride;Hydroxylamine, <em>O</em>-[(4-methoxyphenyl)methyl]-, hydrochloride;<em>O</em>-(4-Methoxybenzyl)hydroxylamine hydrochloride;4-Methoxybenzyloxyamine hydrochloride",
    "duplicated_cas_no": "2808482-87-1",
    "SMILES": "C(ON)C1=CC=C(OC)C=C1.Cl",
    "meta_data": {
        "InChI": "InChI=1S/C8H11NO2.ClH/c1-10-8-4-2-7(3-5-8)6-11-9;/h2-5H,6,9H2,1H3;1H",
        "InChIKey": null,
        "Canonical SMILES": "Cl.O(N)CC1=CC=C(OC)C=C1",
        "Molecular Formula": "C<sub>8</sub>H<sub>11</sub>NO<sub>2</sub>.ClH",
        "Molecular Mass": "",
        "Melting Point": "199-200 °C (decomp)"
    }
}