{
    "cas_no": "4747-21-1",
    "key_name": "Methylisopropylamine",
    "cn_name": null,
    "alternate_name": "2-Propanamine, <em>N</em>-methyl-;Ethylamine, <em>N</em>,1-dimethyl-;Isopropylamine, <em>N</em>-methyl-;<em>N</em>-Methylisopropylamine;2-(Methylamino)propane;Methylisopropylamine;Isopropylmethylamine;<em>N</em>,1-Dimethylethylamine;<em>N</em>-Methyl-<em>N</em>-isopropylamine;<em>N</em>-Methyl-2-propanamine;<em>N</em>-Isopropyl-<em>N</em>-methylamine;<em>N</em>-Methyl-<em>N</em>-(1-methylethyl)amine;<em>N</em>-Isopropylmethylamine;NSC 1065;Methyl(1-methylethyl)amine;(Methyl)(propan-2-yl)amine;Methyl(propan-2-yl)amine;<em>N</em>-Methyl-2-propylamine",
    "duplicated_cas_no": "",
    "SMILES": "C(NC)(C)C",
    "meta_data": {
        "InChI": "InChI=1S/C4H11N/c1-4(2)5-3/h4-5H,1-3H3",
        "InChIKey": null,
        "Canonical SMILES": "N(C)C(C)C",
        "Molecular Formula": "C<sub>4</sub>H<sub>11</sub>N",
        "Molecular Mass": "73.14",
        "Boiling Point": "50.4 °C",
        "Density": "0.7026 g/cm³ @ Temp: 19 °C"
    }
}