{
    "cas_no": "23094-69-1",
    "key_name": "Corilagin",
    "cn_name": null,
    "alternate_name": "β-<span class=\"text-smallcaps\">D</span>-Glucopyranose, cyclic 3,6-[(1<em>R</em>)-4,4′,5,5′,6,6′-hexahydroxy[1,1′-biphenyl]-2,2′-dicarboxylate] 1-(3,4,5-trihydroxybenzoate);Glucopyranose, cyclic 3,6-(4,4′,5,5′,6,6′-hexahydroxydiphenate) 1-gallate, β-<span class=\"text-smallcaps\">D</span>-;Corilagin;β-<span class=\"text-smallcaps\">D</span>-Glucopyranose, cyclic 3,6-(4,4′,5,5′,6,6′-hexahydroxy[1,1′-biphenyl]-2,2′-dicarboxylate) 1-(3,4,5-trihydroxybenzoate), (<em>R</em>)-;8,12-Methano-10<em>H</em>-dibenzo[<em>j</em>,<em>l</em>][1,4,8]trioxacyclotetradecin, β-<span class=\"text-smallcaps\">D</span>-glucopyranose deriv.;Corillagin",
    "duplicated_cas_no": "1646808-35-6",
    "SMILES": "OC1=C2C=3C(=CC(O)=C(O)C3O)C(=O)OCC4C(O)C(OC(=O)C2=CC(O)=C1O)C(O)C(OC(=O)C5=CC(O)=C(O)C(O)=C5)O4",
    "meta_data": {
        "InChI": "InChI=1S/C27H22O18/c28-9-1-6(2-10(29)16(9)32)24(39)45-27-22(38)23-19(35)13(43-27)5-42-25(40)7-3-11(30)17(33)20(36)14(7)15-8(26(41)44-23)4-12(31)18(34)21(15)37/h1-4,13,19,22-23,27-38H,5H2",
        "InChIKey": null,
        "Canonical SMILES": "O=C1OCC2OC(OC(=O)C3=CC(O)=C(O)C(O)=C3)C(O)C(OC(=O)C4=CC(O)=C(O)C(O)=C4C=5C(O)=C(O)C(O)=CC15)C2O",
        "Molecular Formula": "C<sub>27</sub>H<sub>22</sub>O<sub>18</sub>",
        "Molecular Mass": "634.45",
        "Melting Point": "206-207 °C"
    }
}