{
    "cas_no": "32328-03-3",
    "key_name": "Diethyl 3-hydroxyglutarate",
    "cn_name": "3-羟基戊二酸二乙酯;",
    "alternate_name": "Pentanedioic acid, 3-hydroxy-, 1,5-diethyl ester;Pentanedioic acid, 3-hydroxy-, diethyl ester;Glutaric acid, 3-hydroxy-, diethyl ester;Diethyl 3-hydroxyglutarate;3-Hydroxyglutaric acid diethyl ester;NSC 62681;Diethyl 3-hydroxypentanedioate;1,5-Diethyl 3-hydroxypentanedioate",
    "duplicated_cas_no": "",
    "SMILES": "C(CC(OCC)=O)(CC(OCC)=O)O",
    "meta_data": {
        "InChI": "InChI=1S/C9H16O5/c1-3-13-8(11)5-7(10)6-9(12)14-4-2/h7,10H,3-6H2,1-2H3",
        "InChIKey": null,
        "Canonical SMILES": "O=C(OCC)CC(O)CC(=O)OCC",
        "Molecular Formula": "C<sub>9</sub>H<sub>16</sub>O<sub>5</sub>",
        "Molecular Mass": "204.22",
        "Boiling Point": "150-153 °C @ Press: 16 Torr",
        "Density": "1.10 g/cm³ @ Temp: 23 °C"
    }
}