{
    "cas_no": "24065-33-6",
    "key_name": "5-Chloro-2-thiophenecarboxylic acid",
    "cn_name": "2-氯噻吩-5-甲酸;",
    "alternate_name": "2-Thiophenecarboxylic acid, 5-chloro-;5-Chloro-2-thiophenecarboxylic acid;2-Chloro-5-carboxythiophene;NSC 14776;5-Chlorothiophen-2-carboxylic acid;2-Chloro-5-thiophenecarboxylic acid",
    "duplicated_cas_no": "",
    "SMILES": "C(O)(=O)C=1SC(Cl)=CC1",
    "meta_data": {
        "InChI": "InChI=1S/C5H3ClO2S/c6-4-2-1-3(9-4)5(7)8/h1-2H,(H,7,8)",
        "InChIKey": null,
        "Canonical SMILES": "O=C(O)C=1SC(Cl)=CC1",
        "Molecular Formula": "C<sub>5</sub>H<sub>3</sub>ClO<sub>2</sub>S",
        "Molecular Mass": "162.59",
        "Melting Point": "146-147 °C"
    }
}