{
    "cas_no": "1003-07-2",
    "key_name": "Isothiazolin-3-one",
    "cn_name": null,
    "alternate_name": "3(2<em>H</em>)-Isothiazolone;4-Isothiazolin-3-one;3-Isothiazolone;3-Isothiazolol;3-Hydroxyisothiazole;Isothiazolinone;Ebotec aqua;Duo Mei Jing;Isothiazolin-3-one;3-Oxo-2,3-dihydroisothiazole;NSC 93489;A 01;GT 2060;PT 490;1,2-Isothiazole-3-one;GY 506;1,2-Thiazol-3-one;Xarcin AB",
    "duplicated_cas_no": "20599-55-7",
    "SMILES": "O=C1C=CSN1",
    "meta_data": {
        "InChI": "InChI=1S/C3H3NOS/c5-3-1-2-6-4-3/h1-2H,(H,4,5)",
        "InChIKey": null,
        "Canonical SMILES": "O=C1C=CSN1",
        "Molecular Formula": "C<sub>3</sub>H<sub>3</sub>NOS",
        "Molecular Mass": "101.13",
        "Melting Point": "74-75 °C"
    }
}