{
    "cas_no": "3441-01-8",
    "key_name": "3-Cyanobenzamide",
    "cn_name": null,
    "alternate_name": "Benzamide, 3-cyano-;Benzamide, <em>m</em>-cyano-;3-Cyanobenzamide;<em>m</em>-Cyanobenzamide",
    "duplicated_cas_no": "",
    "SMILES": "C(N)(=O)C1=CC(C#N)=CC=C1",
    "meta_data": {
        "InChI": "InChI=1S/C8H6N2O/c9-5-6-2-1-3-7(4-6)8(10)11/h1-4H,(H2,10,11)",
        "InChIKey": null,
        "Canonical SMILES": "N#CC1=CC=CC(=C1)C(=O)N",
        "Molecular Formula": "C<sub>8</sub>H<sub>6</sub>N<sub>2</sub>O",
        "Molecular Mass": "146.15",
        "Melting Point": "222 °C"
    }
}