{
    "cas_no": "3724-52-5",
    "key_name": "1,2,3,4-Cyclopentanetetracarboxylic acid",
    "cn_name": "1,2,3,4-环戊烷四羧酸;环戊烷四羧酸;",
    "alternate_name": "1,2,3,4-Cyclopentanetetracarboxylic acid;1,2,3,4-Tetracarboxycyclopentane",
    "duplicated_cas_no": "",
    "SMILES": "C(O)(=O)C1C(C(O)=O)C(C(O)=O)CC1C(O)=O",
    "meta_data": {
        "InChI": "InChI=1S/C9H10O8/c10-6(11)2-1-3(7(12)13)5(9(16)17)4(2)8(14)15/h2-5H,1H2,(H,10,11)(H,12,13)(H,14,15)(H,16,17)",
        "InChIKey": null,
        "Canonical SMILES": "O=C(O)C1CC(C(=O)O)C(C(=O)O)C1C(=O)O",
        "Molecular Formula": "C<sub>9</sub>H<sub>10</sub>O<sub>8</sub>",
        "Molecular Mass": "246.17",
        "Melting Point": "194 °C"
    }
}