{
    "cas_no": "11078-21-0",
    "key_name": "Filipin",
    "cn_name": null,
    "alternate_name": "Filipin;Filimarisin;U 5956",
    "duplicated_cas_no": "",
    "SMILES": "",
    "meta_data": {
        "InChI": "",
        "InChIKey": null,
        "Canonical SMILES": "",
        "Molecular Formula": "Unspecified",
        "Molecular Mass": "",
        "Melting Point": "195-205 °C"
    }
}