{
    "uri": "substance/pt/11078210",
    "rn": "11078-21-0",
    "name": "Filipin",
    "images": [],
    "inchi": "",
    "inchiKey": "",
    "smile": "",
    "canonicalSmile": "",
    "molecularFormula": "Unspecified",
    "molecularMass": "",
    "experimentalProperties": [
        {
            "name": "Melting Point",
            "property": "195-205 °C",
            "sourceNumber": 1
        }
    ],
    "propertyCitations": [
        {
            "docUri": "",
            "sourceNumber": 1,
            "source": "Drugs - Synonyms and Properties data were obtained from Ashgate Publishing Co. (US)"
        }
    ],
    "synonyms": [
        "Filipin",
        "Filimarisin",
        "U 5956"
    ],
    "replacedRns": [],
    "hasMolfile": false,
    "source": "https://commonchemistry.cas.org/detail?cas_rn=11078-21-0"
}