{
    "cas_no": "75-00-3",
    "key_name": "Chloroethane",
    "cn_name": null,
    "alternate_name": "Ethane, chloro-;Chloroethane;Aethylis;Aethylis chloridum;Anodynon;Chelen;Chlorethyl;Chloridum;Chloryl;Chloryl Anesthetic;Ether chloratus;Ether hydrochloric;Ether muriatic;Hydrochloric ether;Kelene;Monochlorethane;Muriatic ether;Narcotile;Ethyl chloride;Chlorene;Cloretilo;Dublofix;Monochloroethane;R 160;F 160;Chloryle anesthetic;Freon 160;HCC-160",
    "duplicated_cas_no": "",
    "SMILES": "C(C)Cl",
    "meta_data": {
        "InChI": "InChI=1S/C2H5Cl/c1-2-3/h2H2,1H3",
        "InChIKey": null,
        "Canonical SMILES": "ClCC",
        "Molecular Formula": "C<sub>2</sub>H<sub>5</sub>Cl",
        "Molecular Mass": "64.51",
        "Boiling Point": "12.3 °C @ Press: 760 Torr",
        "Melting Point": "-138.7 °C",
        "Density": "0.9214 g/cm³ @ Temp: 0 °C"
    }
}