{
    "cas_no": "627-01-0",
    "key_name": "<em>N</em>-Ethylglycine",
    "cn_name": "N-乙胺乙酸;N-乙甘氨酸;",
    "alternate_name": "Glycine, <em>N</em>-ethyl-;<em>N</em>-Ethylglycine;NSC 244825;2-(Ethylamino)acetic acid;2-(Ethylazaniumyl)acetate",
    "duplicated_cas_no": "",
    "SMILES": "C(C(O)=O)NCC",
    "meta_data": {
        "InChI": "InChI=1S/C4H9NO2/c1-2-5-3-4(6)7/h5H,2-3H2,1H3,(H,6,7)",
        "InChIKey": null,
        "Canonical SMILES": "O=C(O)CNCC",
        "Molecular Formula": "C<sub>4</sub>H<sub>9</sub>NO<sub>2</sub>",
        "Molecular Mass": "103.12",
        "Melting Point": "180-182 °C (decomp)"
    }
}