{
    "cas_no": "1015-89-0",
    "key_name": "6(5<em>H</em>)-Phenanthridinone",
    "cn_name": "6(5H)-菲啶酮;",
    "alternate_name": "6(5<em>H</em>)-Phenanthridinone;6-Phenanthridinol;6-Phenanthridone;6-Phenanthridinone;PJ 97A;5<em>H</em>-Phenanthridin-6-one;NSC 11021;NSC 40943;NSC 61083;WD 99-004344;Phenanthridinone",
    "duplicated_cas_no": "",
    "SMILES": "O=C1C2=C(C=3C(N1)=CC=CC3)C=CC=C2",
    "meta_data": {
        "InChI": "InChI=1S/C13H9NO/c15-13-11-7-2-1-5-9(11)10-6-3-4-8-12(10)14-13/h1-8H,(H,14,15)",
        "InChIKey": null,
        "Canonical SMILES": "O=C1NC=2C=CC=CC2C=3C=CC=CC13",
        "Molecular Formula": "C<sub>13</sub>H<sub>9</sub>NO",
        "Molecular Mass": "195.22",
        "Boiling Point": "435 °C",
        "Melting Point": "&gt;300 °C"
    }
}