{
    "cas_no": "2465-32-9",
    "key_name": "1,3-Diolein",
    "cn_name": "1,3-二精油;1,3-甘油二油酸酯;",
    "alternate_name": "9-Octadecenoic acid (9<em>Z</em>)-, 1,1′-(2-hydroxy-1,3-propanediyl) ester;Olein, 1,3-di-;9-Octadecenoic acid (<em>Z</em>)-, 2-hydroxy-1,3-propanediyl ester;9-Octadecenoic acid (9<em>Z</em>)-, 2-hydroxy-1,3-propanediyl ester;1,3-Diolein;(<em>Z</em>,<em>Z</em>)-1,3-Dioctadecenoyl glycerol;Glycerol 1,3-dioleate;1,3-Dioleoylglycerol;<em>sn</em>-1,3-Dioleoylglycerol;1,3-Glyceryl dioleate;2-Hydroxypropane-1,3-diyl dioleate",
    "duplicated_cas_no": "117933-44-5;118014-31-6;1119449-13-6;1421841-25-9",
    "SMILES": "C(C(COC(CCCCCCC/C=C\\CCCCCCCC)=O)O)OC(CCCCCCC/C=C\\CCCCCCCC)=O",
    "meta_data": {
        "InChI": "InChI=1S/C39H72O5/c1-3-5-7-9-11-13-15-17-19-21-23-25-27-29-31-33-38(41)43-35-37(40)36-44-39(42)34-32-30-28-26-24-22-20-18-16-14-12-10-8-6-4-2/h17-20,37,40H,3-16,21-36H2,1-2H3/b19-17-,20-18-",
        "InChIKey": null,
        "Canonical SMILES": "O=C(OCC(O)COC(=O)CCCCCCCC=CCCCCCCCC)CCCCCCCC=CCCCCCCCC",
        "Molecular Formula": "C<sub>39</sub>H<sub>72</sub>O<sub>5</sub>",
        "Molecular Mass": "620.99",
        "Melting Point": "21.5-22 °C",
        "Density": "0.9128 g/cm³ @ Temp: 35 °C"
    }
}