{
    "cas_no": "472-26-4",
    "key_name": "Telocinobufagin",
    "cn_name": "远华蟾蜍精;",
    "alternate_name": "Bufa-20,22-dienolide, 3,5,14-trihydroxy-, (3β,5β)-;Telocinobufagin;5β-Bufa-20,22-dienolide, 3β,5,14-trihydroxy-;(3β,5β)-3,5,14-Trihydroxybufa-20,22-dienolide;Telocinobufogenin;NSC 119989;NSC 90782;Telobufotoxin",
    "duplicated_cas_no": "22636-40-4;200506-13-4",
    "SMILES": "O[C@@]12[C@]3([C@@]([C@]4(C)[C@](O)(CC3)C[C@@H](O)CC4)(CC[C@]1(C)[C@H](CC2)C=5C=CC(=O)OC5)[H])[H]",
    "meta_data": {
        "InChI": "InChI=1S/C24H34O5/c1-21-9-5-16(25)13-23(21,27)11-7-19-18(21)6-10-22(2)17(8-12-24(19,22)28)15-3-4-20(26)29-14-15/h3-4,14,16-19,25,27-28H,5-13H2,1-2H3/t16-,17+,18-,19+,21+,22+,23-,24-/m0/s1",
        "InChIKey": null,
        "Canonical SMILES": "O=C1OC=C(C=C1)C2CCC3(O)C4CCC5(O)CC(O)CCC5(C)C4CCC23C",
        "Molecular Formula": "C<sub>24</sub>H<sub>34</sub>O<sub>5</sub>",
        "Molecular Mass": "402.52",
        "Melting Point": "208-214 °C"
    }
}