{
    "cas_no": "125971-57-5",
    "key_name": "4-Methyl-3-oxo-<em>N</em>-phenyl-2-(phenylmethylene)pentanamide",
    "cn_name": "2-(苯甲撑)-3-氧代-4-甲基-N-苯基-戊酰胺;",
    "alternate_name": "Pentanamide, 4-methyl-3-oxo-<em>N</em>-phenyl-2-(phenylmethylene)-;4-Methyl-3-oxo-<em>N</em>-phenyl-2-(phenylmethylene)pentanamide;2-Isobutyryl-<em>N</em>-phenyl-3-phenylacrylamide",
    "duplicated_cas_no": "",
    "SMILES": "C(=CC1=CC=CC=C1)(C(NC2=CC=CC=C2)=O)C(C(C)C)=O",
    "meta_data": {
        "InChI": "InChI=1S/C19H19NO2/c1-14(2)18(21)17(13-15-9-5-3-6-10-15)19(22)20-16-11-7-4-8-12-16/h3-14H,1-2H3,(H,20,22)",
        "InChIKey": null,
        "Canonical SMILES": "O=C(NC=1C=CC=CC1)C(=CC=2C=CC=CC2)C(=O)C(C)C",
        "Molecular Formula": "C<sub>19</sub>H<sub>19</sub>NO<sub>2</sub>",
        "Molecular Mass": "293.36",
        "Melting Point": "190-193 °C"
    }
}