{
    "cas_no": "52009-64-0",
    "key_name": "3,8-Diamino-6-phenylphenanthridine",
    "cn_name": "3,8-二氨基-6-苯基菲啶;",
    "alternate_name": "3,8-Phenanthridinediamine, 6-phenyl-;6-Phenyl-3,8-phenanthridinediamine;3,8-Diamino-6-phenylphenanthridine",
    "duplicated_cas_no": "",
    "SMILES": "NC1=CC=2C(=C3C(=NC2C4=CC=CC=C4)C=C(N)C=C3)C=C1",
    "meta_data": {
        "InChI": "InChI=1S/C19H15N3/c20-13-6-8-15-16-9-7-14(21)11-18(16)22-19(17(15)10-13)12-4-2-1-3-5-12/h1-11H,20-21H2",
        "InChIKey": null,
        "Canonical SMILES": "N=1C=2C=C(N)C=CC2C=3C=CC(N)=CC3C1C=4C=CC=CC4",
        "Molecular Formula": "C<sub>19</sub>H<sub>15</sub>N<sub>3</sub>",
        "Molecular Mass": "285.34",
        "Melting Point": "192-194 °C (decomp)"
    }
}