{
    "cas_no": "3381-88-2",
    "key_name": "Methasterone",
    "cn_name": null,
    "alternate_name": "Androstan-3-one, 17-hydroxy-2,17-dimethyl-, (2α,5α,17β)-;5α-Androstan-3-one, 17β-hydroxy-2α,17-dimethyl-;(2α,5α,17β)-17-Hydroxy-2,17-dimethylandrostan-3-one;2α,17α-Dimethyldihydrotestosterone;17β-Hydroxy-2α,17-dimethyl-5α-androstan-3-one;NSC 40490;Methasteron;Superdrol;17-Methyldrostanolone;Methasterone",
    "duplicated_cas_no": "",
    "SMILES": "C[C@@]12[C@@]3([C@]([C@]4([C@](C)(CC3)[C@@](C)(O)CC4)[H])(CC[C@]1(CC(=O)[C@H](C)C2)[H])[H])[H]",
    "meta_data": {
        "InChI": "InChI=1S/C21H34O2/c1-13-12-19(2)14(11-18(13)22)5-6-15-16(19)7-9-20(3)17(15)8-10-21(20,4)23/h13-17,23H,5-12H2,1-4H3/t13-,14+,15-,16+,17+,19+,20+,21+/m1/s1",
        "InChIKey": null,
        "Canonical SMILES": "O=C1CC2CCC3C(CCC4(C)C3CCC4(O)C)C2(C)CC1C",
        "Molecular Formula": "C<sub>21</sub>H<sub>34</sub>O<sub>2</sub>",
        "Molecular Mass": "318.49",
        "Melting Point": "139.0-140.5 °C"
    }
}