{
    "cas_no": "18084-64-5",
    "key_name": "1,4,7,10-Tetrabenzyl-1,4,7,10-tetraazacyclododecane",
    "cn_name": null,
    "alternate_name": "1,4,7,10-Tetraazacyclododecane, 1,4,7,10-tetrakis(phenylmethyl)-;1,4,7,10-Tetraazacyclododecane, 1,4,7,10-tetrabenzyl-;1,4,7,10-Tetrakis(phenylmethyl)-1,4,7,10-tetraazacyclododecane;1,4,7,10-Tetrabenzyl-1,4,7,10-tetraazacyclododecane;1,4,7,10-Tetrakisbenzyl-1,4,7,10-tetraazacyclododecane;1,4,7,10-Tetrabenzyl-1,4,7,10-tetrazacyclododecane",
    "duplicated_cas_no": "",
    "SMILES": "C(N1CCN(CC2=CC=CC=C2)CCN(CC3=CC=CC=C3)CCN(CC4=CC=CC=C4)CC1)C5=CC=CC=C5",
    "meta_data": {
        "InChI": "InChI=1S/C36H44N4/c1-5-13-33(14-6-1)29-37-21-23-38(30-34-15-7-2-8-16-34)25-27-40(32-36-19-11-4-12-20-36)28-26-39(24-22-37)31-35-17-9-3-10-18-35/h1-20H,21-32H2",
        "InChIKey": null,
        "Canonical SMILES": "C=1C=CC(=CC1)CN2CCN(CC=3C=CC=CC3)CCN(CC=4C=CC=CC4)CCN(CC=5C=CC=CC5)CC2",
        "Molecular Formula": "C<sub>36</sub>H<sub>44</sub>N<sub>4</sub>",
        "Molecular Mass": "532.76",
        "Melting Point": "140-142 °C"
    }
}