{
    "cas_no": "40134-18-7",
    "key_name": "3-Pyridinecarboxylic acid, 2-chloro-, methyl ester",
    "cn_name": "2-氯烟酸甲酯;2-氯烟酸甲酯;",
    "alternate_name": "3-Pyridinecarboxylic acid, 2-chloro-, methyl ester;Nicotinic acid, 2-chloro-, methyl ester;Methyl 2-chloronicotinate;2-Chloronicotinic acid methyl ester;Methyl 2-chloropyridine-3-carboxylate;2-Chloro-3-methoxycarbonylpyridine;2-Chloropyridine-3-carboxylic acid methyl ester",
    "duplicated_cas_no": "",
    "SMILES": "C(OC)(=O)C1=C(Cl)N=CC=C1",
    "meta_data": {
        "InChI": "InChI=1S/C7H6ClNO2/c1-11-7(10)5-3-2-4-9-6(5)8/h2-4H,1H3",
        "InChIKey": null,
        "Canonical SMILES": "O=C(OC)C1=CC=CN=C1Cl",
        "Molecular Formula": "C<sub>7</sub>H<sub>6</sub>ClNO<sub>2</sub>",
        "Molecular Mass": "171.58",
        "Boiling Point": "87-88 °C @ Press: 3 Torr",
        "Density": "1.325 g/cm³ @ Temp: 20 °C"
    }
}