{
    "cas_no": "88-43-7",
    "key_name": "5-Amino-2-chlorobenzenesulfonic acid",
    "cn_name": "5-氨基-2-氯苯磺酸;2-氯-5-氨基苯磺;4-氯苯胺-3-磺酸;对氯间苯胺磺;4-氯-1-氨基苯-3-磺酸;",
    "alternate_name": "Benzenesulfonic acid, 5-amino-2-chloro-;Metanilic acid, 6-chloro-;5-Amino-2-chlorobenzenesulfonic acid;<em>p</em>-Chloroaniline-<em>m</em>-sulfonic acid;4-Chloroaniline-3-sulfonic acid;4-Chloro-3-sulfoaniline;6-Chlorometanilic acid;3-Amino-6-chlorobenzenesulfonic acid;1-Amino-4-chlorobenzene-3-sulfonic acid;NSC 15346",
    "duplicated_cas_no": "",
    "SMILES": "S(=O)(=O)(O)C1=C(Cl)C=CC(N)=C1",
    "meta_data": {
        "InChI": "InChI=1S/C6H6ClNO3S/c7-5-2-1-4(8)3-6(5)12(9,10)11/h1-3H,8H2,(H,9,10,11)",
        "InChIKey": null,
        "Canonical SMILES": "O=S(=O)(O)C1=CC(N)=CC=C1Cl",
        "Molecular Formula": "C<sub>6</sub>H<sub>6</sub>ClNO<sub>3</sub>S",
        "Molecular Mass": "207.63",
        "Melting Point": "&gt;310 °C (decomp)"
    }
}