{
    "cas_no": "2052-01-9",
    "key_name": "Bromoisobutyric acid",
    "cn_name": "2-溴代异丁酸;2-溴-2-甲基丙酸;",
    "alternate_name": "Propanoic acid, 2-bromo-2-methyl-;Propionic acid, 2-bromo-2-methyl-;Isobutyric acid, α-bromo-;2-Bromo-2-methylpropanoic acid;α-Bromoisobutyric acid;Isobromobutyric acid;α-Bromo-α-methylpropionic acid;2-Bromoisobutyric acid;2-Bromo-2-methylpropionic acid;Bromoisobutyric acid;NSC 41213;2-Methyl-2-bromopropanoic acid",
    "duplicated_cas_no": "280757-31-5",
    "SMILES": "C(C(O)=O)(Br)(C)C",
    "meta_data": {
        "InChI": "InChI=1S/C4H7BrO2/c1-4(2,5)3(6)7/h1-2H3,(H,6,7)",
        "InChIKey": null,
        "Canonical SMILES": "O=C(O)C(Br)(C)C",
        "Molecular Formula": "C<sub>4</sub>H<sub>7</sub>BrO<sub>2</sub>",
        "Molecular Mass": "167.00",
        "Boiling Point": "199 °C",
        "Melting Point": "48.5 °C"
    }
}