{
    "cas_no": "23351-91-9",
    "key_name": "5-Bromo-1,3-benzenedicarboxylic acid",
    "cn_name": "5-溴间苯二甲酸;5-溴异间苯二甲酸;",
    "alternate_name": "1,3-Benzenedicarboxylic acid, 5-bromo-;Isophthalic acid, 5-bromo-;5-Bromo-1,3-benzenedicarboxylic acid;5-Bromoisophthalic acid;5-Bromo-1,3-benzenedicarboxyic acid",
    "duplicated_cas_no": "",
    "SMILES": "C(O)(=O)C1=CC(C(O)=O)=CC(Br)=C1",
    "meta_data": {
        "InChI": "InChI=1S/C8H5BrO4/c9-6-2-4(7(10)11)1-5(3-6)8(12)13/h1-3H,(H,10,11)(H,12,13)",
        "InChIKey": null,
        "Canonical SMILES": "O=C(O)C1=CC(Br)=CC(=C1)C(=O)O",
        "Molecular Formula": "C<sub>8</sub>H<sub>5</sub>BrO<sub>4</sub>",
        "Molecular Mass": "245.03",
        "Melting Point": "275-277 °C"
    }
}