{
    "cas_no": "2318-25-4",
    "key_name": "Ethyl 3-ethoxy-3-iminopropanoate hydrochloride",
    "cn_name": "3-乙氧基-3-亚氨基丙酸乙酯盐酸盐;",
    "alternate_name": "Propanoic acid, 3-ethoxy-3-imino-, ethyl ester, hydrochloride (1:1);Acetic acid, (1-ethoxyformimidoyl)-, ethyl ester, hydrochloride;Propanoic acid, 3-ethoxy-3-imino-, ethyl ester, hydrochloride;Ethyl carbethoxyacetimidate hydrochloride;Ethyl β-ethoxy-β-iminopropionate hydrochloride;Ethyl 3-ethoxy-3-iminopropionate hydrochloride;Ethyl (ethoxycarbonyl)acetimidate hydrochloride;Ethyl 3-ethoxy-3-iminopropanoate hydrochloride;Ethyl 2-(ethoxycarbonyl)acetimidate hydrochloride;β-Ethoxy-β-iminopropionic acid ethyl ester hydrochloride;3-Ethoxy-3-iminopropanoic acid ethyl ester hydrochloride;2-(Ethoxycarbonyl)acetimidic acid ethyl ester hydrochloride;3-Ethoxy-3-oxo-1-ethoxypropan-1-imine hydrochloride;3-Ethoxy-3-iminopropionic acid ethyl ester hydrochloride",
    "duplicated_cas_no": "165895-16-9",
    "SMILES": "C(CC(OCC)=O)(OCC)=N.Cl",
    "meta_data": {
        "InChI": "InChI=1S/C7H13NO3.ClH/c1-3-10-6(8)5-7(9)11-4-2;/h8H,3-5H2,1-2H3;1H",
        "InChIKey": null,
        "Canonical SMILES": "Cl.O=C(OCC)CC(=N)OCC",
        "Molecular Formula": "C<sub>7</sub>H<sub>13</sub>NO<sub>3</sub>.ClH",
        "Molecular Mass": "",
        "Melting Point": "111-113 °C (decomp)"
    }
}