{
    "cas_no": "23141-61-9",
    "key_name": "6-Methyl-5-nitroquinoline",
    "cn_name": "6-甲基-5-硝基喹啉;",
    "alternate_name": "Quinoline, 6-methyl-5-nitro-;6-Methyl-5-nitroquinoline;5-Nitro-6-methylquinoline;NSC 162892",
    "duplicated_cas_no": "",
    "SMILES": "N(=O)(=O)C=1C2=C(C=CC1C)N=CC=C2",
    "meta_data": {
        "InChI": "InChI=1S/C10H8N2O2/c1-7-4-5-9-8(3-2-6-11-9)10(7)12(13)14/h2-6H,1H3",
        "InChIKey": null,
        "Canonical SMILES": "O=N(=O)C1=C2C=CC=NC2=CC=C1C",
        "Molecular Formula": "C<sub>10</sub>H<sub>8</sub>N<sub>2</sub>O<sub>2</sub>",
        "Molecular Mass": "188.18",
        "Melting Point": "116-117 °C"
    }
}