{
    "cas_no": "117391-51-2",
    "key_name": "β-Amino-3-fluorobenzenepropanoic acid",
    "cn_name": "3-氨基-3-(3-氟苯基)丙酸;",
    "alternate_name": "Benzenepropanoic acid, β-amino-3-fluoro-;β-Amino-3-fluorobenzenepropanoic acid;3-Amino-3-(3-fluorophenyl)propionic acid;3-Amino-3-(3-fluorophenyl)propanoic acid",
    "duplicated_cas_no": "",
    "SMILES": "C(CC(O)=O)(N)C1=CC(F)=CC=C1",
    "meta_data": {
        "InChI": "InChI=1S/C9H10FNO2/c10-7-3-1-2-6(4-7)8(11)5-9(12)13/h1-4,8H,5,11H2,(H,12,13)",
        "InChIKey": null,
        "Canonical SMILES": "O=C(O)CC(N)C=1C=CC=C(F)C1",
        "Molecular Formula": "C<sub>9</sub>H<sub>10</sub>FNO<sub>2</sub>",
        "Molecular Mass": "183.18",
        "Melting Point": "237-239 °C"
    }
}