{
    "cas_no": "10226-29-6",
    "key_name": "6-Bromo-2-hexanone",
    "cn_name": "6-溴-2-己酮;",
    "alternate_name": "2-Hexanone, 6-bromo-;6-Bromo-2-hexanone;1-Bromo-5-hexanone;5-Oxohexyl bromide",
    "duplicated_cas_no": "",
    "SMILES": "C(CCCBr)C(C)=O",
    "meta_data": {
        "InChI": "InChI=1S/C6H11BrO/c1-6(8)4-2-3-5-7/h2-5H2,1H3",
        "InChIKey": null,
        "Canonical SMILES": "O=C(C)CCCCBr",
        "Molecular Formula": "C<sub>6</sub>H<sub>11</sub>BrO",
        "Molecular Mass": "179.05",
        "Boiling Point": "216 °C",
        "Density": "1.33 g/cm³ @ Temp: 20 °C"
    }
}