{
    "cas_no": "1871-96-1",
    "key_name": "Sebaconitrile",
    "cn_name": "癸二腈;",
    "alternate_name": "Decanedinitrile;Sebaconitrile;1,8-Dicyanooctane;NSC 39461",
    "duplicated_cas_no": "72007-50-2",
    "SMILES": "C(CCCCC#N)CCCC#N",
    "meta_data": {
        "InChI": "InChI=1S/C10H16N2/c11-9-7-5-3-1-2-4-6-8-10-12/h1-8H2",
        "InChIKey": null,
        "Canonical SMILES": "N#CCCCCCCCCC#N",
        "Molecular Formula": "C<sub>10</sub>H<sub>16</sub>N<sub>2</sub>",
        "Molecular Mass": "164.25",
        "Boiling Point": "204 °C",
        "Melting Point": "8.03 °C",
        "Density": "0.913 g/cm³ @ Temp: 20 °C"
    }
}