{
    "cas_no": "111-81-9",
    "key_name": "Methyl 10-undecenoate",
    "cn_name": "十一烯酸甲酯;10-十一烯酸甲酯;十一碳烯酸甲酯;",
    "alternate_name": "10-Undecenoic acid, methyl ester;10-Hendecenoic acid methyl ester;Methyl 10-undecenoate;Methyl undecenoate;Undecylenic acid methyl ester;Methyl 10-undecylenate;Maskod MNS 01-10;Methyl undec-10-enylate;NSC 1273;Methyl undec-10-enoate",
    "duplicated_cas_no": "25339-67-7",
    "SMILES": "C(CCC(OC)=O)CCCCCC=C",
    "meta_data": {
        "InChI": "InChI=1S/C12H22O2/c1-3-4-5-6-7-8-9-10-11-12(13)14-2/h3H,1,4-11H2,2H3",
        "InChIKey": null,
        "Canonical SMILES": "O=C(OC)CCCCCCCCC=C",
        "Molecular Formula": "C<sub>12</sub>H<sub>22</sub>O<sub>2</sub>",
        "Molecular Mass": "198.30",
        "Boiling Point": "248 °C",
        "Melting Point": "-27.5 °C",
        "Density": "0.8826 g/cm³ @ Temp: 20 °C"
    }
}