{
    "cas_no": "19685-21-3",
    "key_name": "2,5,8,11-Tetraoxatetradec-13-ene",
    "cn_name": null,
    "alternate_name": "2,5,8,11-Tetraoxatetradec-13-ene;Methyl triethylene glycol allyl ether;Allylmethoxytriethylene glycol;Triethyleneglycol methyl allyl ether;Triethyleneglycol monomethyl monoallyl ether;Allylmethoxytriethylene oxide;Allyl triethylene glycol methyl ether;Triethylene glycol allyl methyl ether;Allyl(trioxyethylene) methyl ether;Tri(ethylene glycol) monoallyl monomethyl ether;ENEA 0375;3-[2-[2-(2-Methoxyethoxy)ethoxy]ethoxy]-1-propene",
    "duplicated_cas_no": "",
    "SMILES": "C(OCCOCC=C)COCCOC",
    "meta_data": {
        "InChI": "InChI=1S/C10H20O4/c1-3-4-12-7-8-14-10-9-13-6-5-11-2/h3H,1,4-10H2,2H3",
        "InChIKey": null,
        "Canonical SMILES": "O(C)CCOCCOCCOCC=C",
        "Molecular Formula": "C<sub>10</sub>H<sub>20</sub>O<sub>4</sub>",
        "Molecular Mass": "204.26",
        "Boiling Point": "117-119 °C @ Press: 5 Torr"
    }
}