{
    "cas_no": "50-84-0",
    "key_name": "2,4-Dichlorobenzoic acid",
    "cn_name": "2,4-二氯苯甲酸;",
    "alternate_name": "Benzoic acid, 2,4-dichloro-;2,4-Dichlorobenzoic acid;NSC 578",
    "duplicated_cas_no": "",
    "SMILES": "C(O)(=O)C1=C(Cl)C=C(Cl)C=C1",
    "meta_data": {
        "InChI": "InChI=1S/C7H4Cl2O2/c8-4-1-2-5(7(10)11)6(9)3-4/h1-3H,(H,10,11)",
        "InChIKey": null,
        "Canonical SMILES": "O=C(O)C1=CC=C(Cl)C=C1Cl",
        "Molecular Formula": "C<sub>7</sub>H<sub>4</sub>Cl<sub>2</sub>O<sub>2</sub>",
        "Molecular Mass": "191.01",
        "Melting Point": "164.2 °C"
    }
}