{
    "cas_no": "5162-82-3",
    "key_name": "3-Chloro-4-methylbenzoic acid",
    "cn_name": "3-氯-4-甲基苯甲酸;",
    "alternate_name": "Benzoic acid, 3-chloro-4-methyl-;<em>p</em>-Toluic acid, 3-chloro-;3-Chloro-4-methylbenzoic acid;3-Chloro-<em>p</em>-toluic acid",
    "duplicated_cas_no": "",
    "SMILES": "C(O)(=O)C1=CC(Cl)=C(C)C=C1",
    "meta_data": {
        "InChI": "InChI=1S/C8H7ClO2/c1-5-2-3-6(8(10)11)4-7(5)9/h2-4H,1H3,(H,10,11)",
        "InChIKey": null,
        "Canonical SMILES": "O=C(O)C1=CC=C(C(Cl)=C1)C",
        "Molecular Formula": "C<sub>8</sub>H<sub>7</sub>ClO<sub>2</sub>",
        "Molecular Mass": "170.59",
        "Boiling Point": "105-107 °C @ Press: 6.5 Torr",
        "Melting Point": "196 °C"
    }
}