{
    "cas_no": "2085-88-3",
    "key_name": "α-Methylstyrene oxide",
    "cn_name": "2-苯基环氧丙烷;",
    "alternate_name": "Oxirane, 2-methyl-2-phenyl-;Cumene, α,β-epoxy-;2-Methyl-2-phenyloxirane;α-Methylstyrene oxide;α-Methylstyrene epoxide;2-Phenyl-1,2-epoxypropane;2-Phenylpropene oxide;(±)-2-Methyl-2-phenyloxirane;1,2-Epoxy-2-phenylpropane;NSC 36616;NSC 51065;2-Phenyl-2-methyloxirane",
    "duplicated_cas_no": "100018-61-9",
    "SMILES": "CC1(CO1)C2=CC=CC=C2",
    "meta_data": {
        "InChI": "InChI=1S/C9H10O/c1-9(7-10-9)8-5-3-2-4-6-8/h2-6H,7H2,1H3",
        "InChIKey": null,
        "Canonical SMILES": "O1CC1(C=2C=CC=CC2)C",
        "Molecular Formula": "C<sub>9</sub>H<sub>10</sub>O",
        "Molecular Mass": "134.18",
        "Boiling Point": "81-81.5 °C @ Press: 14 Torr",
        "Density": "1.0395 g/cm³ @ Temp: 0 °C"
    }
}