{
    "cas_no": "91-62-3",
    "key_name": "6-Methylquinoline",
    "cn_name": "6-甲基喹啉;",
    "alternate_name": "Quinoline, 6-methyl-;6-Methylquinoline;NSC 4152",
    "duplicated_cas_no": "",
    "SMILES": "CC1=CC2=C(C=C1)N=CC=C2",
    "meta_data": {
        "InChI": "InChI=1S/C10H9N/c1-8-4-5-10-9(7-8)3-2-6-11-10/h2-7H,1H3",
        "InChIKey": null,
        "Canonical SMILES": "N1=CC=CC2=CC(=CC=C12)C",
        "Molecular Formula": "C<sub>10</sub>H<sub>9</sub>N",
        "Molecular Mass": "143.19",
        "Boiling Point": "258.6 °C",
        "Melting Point": "-22 °C"
    }
}