{
    "cas_no": "5388-42-1",
    "key_name": "2,3-Dihydro-2-phenyl-1<em>H</em>-isoindol-1-one",
    "cn_name": "2,3-二氢-2-苯基-1H-异吲哚-1-酮;N-苯基异吲哚满-1-酮;2-苯基-1-氧代二氢氮杂茚;",
    "alternate_name": "1<em>H</em>-Isoindol-1-one, 2,3-dihydro-2-phenyl-;Phthalimidine, 2-phenyl-;2,3-Dihydro-2-phenyl-1<em>H</em>-isoindol-1-one;<em>N</em>-Phenylphthalimidine;NSC 97577;2-Phenylisoindolin-1-one;<em>N</em>-Phenylisoindolin-1-one;<em>N</em>-Phenylisoindolinone;2-Phenyl-3<em>H</em>-isoindol-1-one",
    "duplicated_cas_no": "",
    "SMILES": "O=C1N(CC=2C1=CC=CC2)C3=CC=CC=C3",
    "meta_data": {
        "InChI": "InChI=1S/C14H11NO/c16-14-13-9-5-4-6-11(13)10-15(14)12-7-2-1-3-8-12/h1-9H,10H2",
        "InChIKey": null,
        "Canonical SMILES": "O=C1C=2C=CC=CC2CN1C=3C=CC=CC3",
        "Molecular Formula": "C<sub>14</sub>H<sub>11</sub>NO",
        "Molecular Mass": "209.24",
        "Melting Point": "160 °C"
    }
}