{
    "cas_no": "13461-16-0",
    "key_name": "1,3-Dimethyl-2-imidazolidinethione",
    "cn_name": "1,3-二甲基咪唑烷-2-硫酮;",
    "alternate_name": "2-Imidazolidinethione, 1,3-dimethyl-;1,3-Dimethyl-2-imidazolidinethione;<em>N</em>,<em>N</em>′-Dimethylethylenethiourea;1,3-Dimethylimidazoline-2(3<em>H</em>)-thione;1,3-Dimethyl-1,3-diazolidine-2-thione;<em>N</em>,<em>N</em>′-Dimethylimidazolidine-2-thione",
    "duplicated_cas_no": "",
    "SMILES": "S=C1N(C)CCN1C",
    "meta_data": {
        "InChI": "InChI=1S/C5H10N2S/c1-6-3-4-7(2)5(6)8/h3-4H2,1-2H3",
        "InChIKey": null,
        "Canonical SMILES": "S=C1N(C)CCN1C",
        "Molecular Formula": "C<sub>5</sub>H<sub>10</sub>N<sub>2</sub>S",
        "Molecular Mass": "130.21",
        "Melting Point": "110-112 °C"
    }
}