{
    "cas_no": "32598-14-4",
    "key_name": "PCB 105",
    "cn_name": "2,3,3,4,4-五氯二苯酚;2,3,3,4,4-五氯二苯酚PCBNo105;",
    "alternate_name": "1,1′-Biphenyl, 2,3,3′,4,4′-pentachloro-;Biphenyl, 2,3,3′,4,4′-pentachloro-;2,3,3′,4,4′-Pentachloro-1,1′-biphenyl;2,3,3′,4,4′-Pentachlorobiphenyl;3,4,2′,3′,4′-Pentachlorobiphenyl;2,3,4,3′,4′-Pentachlorobiphenyl;PCB 105;CB 105;2′,3′,4,4′,5-Pentachlorobiphenyl;Polychlorinated biphenyl-105;1,2,3-Trichloro-4-(3,4-dichlorophenyl)benzene",
    "duplicated_cas_no": "",
    "SMILES": "ClC1=C(C2=CC(Cl)=C(Cl)C=C2)C=CC(Cl)=C1Cl",
    "meta_data": {
        "InChI": "InChI=1S/C12H5Cl5/c13-8-3-1-6(5-10(8)15)7-2-4-9(14)12(17)11(7)16/h1-5H",
        "InChIKey": null,
        "Canonical SMILES": "ClC=1C=CC(=CC1Cl)C2=CC=C(Cl)C(Cl)=C2Cl",
        "Molecular Formula": "C<sub>12</sub>H<sub>5</sub>Cl<sub>5</sub>",
        "Molecular Mass": "326.43",
        "Melting Point": "116-117 °C"
    }
}