{
    "cas_no": "3694-58-4",
    "key_name": "1-Chloro-3-(isothiocyanatomethyl)benzene",
    "cn_name": "异硫氰酸3-氯苄酯;",
    "alternate_name": "Benzene, 1-chloro-3-(isothiocyanatomethyl)-;Isothiocyanic acid, <em>m</em>-chlorobenzyl ester;Toluene, <em>m</em>-chloro-α-isothiocyanato-;1-Chloro-3-(isothiocyanatomethyl)benzene;3-Chlorobenzyl isothiocyanate;<em>m</em>-Chlorobenzyl isothiocyanate",
    "duplicated_cas_no": "",
    "SMILES": "C(N=C=S)C1=CC(Cl)=CC=C1",
    "meta_data": {
        "InChI": "InChI=1S/C8H6ClNS/c9-8-3-1-2-7(4-8)5-10-6-11/h1-4H,5H2",
        "InChIKey": null,
        "Canonical SMILES": "S=C=NCC=1C=CC=C(Cl)C1",
        "Molecular Formula": "C<sub>8</sub>H<sub>6</sub>ClNS",
        "Molecular Mass": "183.66",
        "Boiling Point": "140-145 °C @ Press: 6 Torr",
        "Density": "1.201 g/cm³ @ Temp: 27 °C"
    }
}