{
    "cas_no": "7722-88-5",
    "key_name": "Tetrasodium pyrophosphate",
    "cn_name": "焦磷酸钠;",
    "alternate_name": "Diphosphoric acid, sodium salt (1:4);Pyrophosphoric acid, tetrasodium salt;Diphosphoric acid, tetrasodium salt;Anhydrous tetrasodium pyrophosphate;Phosphotex;Tetrasodium diphosphate;Tetrasodium pyrophosphate;TSPP;Victor TSPP;Sodium pyrophosphate (Na<sub>4</sub>P<sub>2</sub>O<sub>7</sub>);Sodium pyrophosphate;Sodium diphosphate (Na<sub>4</sub>P<sub>2</sub>O<sub>7</sub>);Sodium phosphate (Na<sub>4</sub>P<sub>2</sub>O<sub>7</sub>);Tetrasodium pyrophosphate (Na<sub>4</sub>P<sub>2</sub>O<sub>7</sub>);Tetrasodium diphosphate (Na<sub>4</sub>P<sub>2</sub>O<sub>7</sub>);Sodium diphosphate;Accoline 126;SPP (phosphate);SPP;Thermphos Pyro E 450;Sodium phosphorus oxide (Na<sub>4</sub>P<sub>2</sub>O<sub>7</sub>);Phosphomix 110;Nankarin S 1;TSPPC",
    "duplicated_cas_no": "93269-17-1;156460-73-0;192507-07-6;1269628-79-6",
    "SMILES": "O(P(=O)(O)O)P(=O)(O)O.[Na]",
    "meta_data": {
        "InChI": "InChI=1S/4Na.H4O7P2/c;;;;1-8(2,3)7-9(4,5)6/h;;;;(H2,1,2,3)(H2,4,5,6)",
        "InChIKey": null,
        "Canonical SMILES": "[Na].O=P(O)(O)OP(=O)(O)O",
        "Molecular Formula": "H<sub>4</sub>O<sub>7</sub>P<sub>2</sub>.4Na",
        "Molecular Mass": "",
        "Melting Point": "988 °C",
        "Density": "2.534 g/cm³"
    }
}