{
    "cas_no": "26191-64-0",
    "key_name": "4′-Methyl[1,1′-biphenyl]-4-ol",
    "cn_name": "4-(4-甲基苯基)苯酚;4-甲基-4\"-羟基联苯;",
    "alternate_name": "[1,1′-Biphenyl]-4-ol, 4′-methyl-;4-Biphenylol, 4′-methyl-;Phenol, <em>p</em>-(<em>p</em>-tolyl)-;4′-Methyl[1,1′-biphenyl]-4-ol;4′-Methyl-4-biphenylol;4-Hydroxy-4′-methylbiphenyl;4′-Methyl-4-hydroxybiphenyl;4-(4′-Methylphenyl)phenol;4-Hydroxy-4′-methyl-1,1′-biphenyl;4-(4-Methylphenyl)phenol;4′-Methyl-1,1′-biphenyl-4-ol",
    "duplicated_cas_no": "",
    "SMILES": "CC1=CC=C(C=C1)C2=CC=C(O)C=C2",
    "meta_data": {
        "InChI": "InChI=1S/C13H12O/c1-10-2-4-11(5-3-10)12-6-8-13(14)9-7-12/h2-9,14H,1H3",
        "InChIKey": null,
        "Canonical SMILES": "OC=1C=CC(=CC1)C2=CC=C(C=C2)C",
        "Molecular Formula": "C<sub>13</sub>H<sub>12</sub>O",
        "Molecular Mass": "184.23",
        "Melting Point": "152-153 °C"
    }
}