{
    "cas_no": "17403-09-7",
    "key_name": "3-(4-Piperidinyl)-1<em>H</em>-indole",
    "cn_name": "3-(4\"-哌啶基)-1H-吲哚;",
    "alternate_name": "1<em>H</em>-Indole, 3-(4-piperidinyl)-;Indole, 3-(4-piperidyl)-;3-(4-Piperidinyl)-1<em>H</em>-indole;3-(4-Piperidyl)indole;4-(1<em>H</em>-Indol-3-yl)piperidine;RU 22424;4-(3-Indolyl)piperidine;3-(Piperidin-4-yl)indole;3-(4-Piperidyl)-1<em>H</em>-indole",
    "duplicated_cas_no": "",
    "SMILES": "C=1(C=2C(NC1)=CC=CC2)C3CCNCC3",
    "meta_data": {
        "InChI": "InChI=1S/C13H16N2/c1-2-4-13-11(3-1)12(9-15-13)10-5-7-14-8-6-10/h1-4,9-10,14-15H,5-8H2",
        "InChIKey": null,
        "Canonical SMILES": "C=1C=CC2=C(C1)NC=C2C3CCNCC3",
        "Molecular Formula": "C<sub>13</sub>H<sub>16</sub>N<sub>2</sub>",
        "Molecular Mass": "200.28",
        "Melting Point": "222-224 °C"
    }
}