{
    "cas_no": "13465-84-4",
    "key_name": "Tetraiodosilane",
    "cn_name": "碘化硅(IV);碘化硅(IV);",
    "alternate_name": "Silane, tetraiodo-;Silicon iodide (SiI<sub>4</sub>);Tetraiodosilane;Silicon tetraiodide",
    "duplicated_cas_no": "",
    "SMILES": "[Si](I)(I)(I)I",
    "meta_data": {
        "InChI": "InChI=1S/I4Si/c1-5(2,3)4",
        "InChIKey": null,
        "Canonical SMILES": "I[Si](I)(I)I",
        "Molecular Formula": "I<sub>4</sub>Si",
        "Molecular Mass": "535.70",
        "Boiling Point": "287-288 °C",
        "Melting Point": "120-121 °C",
        "Density": "4.198 g/cm³"
    }
}