{
    "cas_no": "64-65-3",
    "key_name": "Bemegride",
    "cn_name": "美解眠;贝美格;乙甲哌啶二酮;",
    "alternate_name": "2,6-Piperidinedione, 4-ethyl-4-methyl-;Glutarimide, 3-ethyl-3-methyl-;4-Ethyl-4-methyl-2,6-piperidinedione;NP 13;Ahypnon;Bemegrid;Bemegride;2,6-Dioxo-4-methyl-4-ethylpiperidine;4-Ethyl-4-methyl-2,6-dioxopiperidine;β-Ethyl-β-methylglutarimide;3-Ethyl-3-methylglutarimide;Eukraton;Malysol;Megimide;Methetharimide;4-Methyl-4-ethyl-2,6-dioxopiperidine;β-Methyl-β-ethylglutarimide;3-Methyl-3-ethylglutarimide;Mikedimide;Megimid;Agipnon;Etimid;Megibal;Antibarbi;Zentraleptin;NSC 168667;NSC 58187;MeSH ID: D001534",
    "duplicated_cas_no": "",
    "SMILES": "C(C)C1(C)CC(=O)NC(=O)C1",
    "meta_data": {
        "InChI": "InChI=1S/C8H13NO2/c1-3-8(2)4-6(10)9-7(11)5-8/h3-5H2,1-2H3,(H,9,10,11)",
        "InChIKey": null,
        "Canonical SMILES": "O=C1NC(=O)CC(C)(C1)CC",
        "Molecular Formula": "C<sub>8</sub>H<sub>13</sub>NO<sub>2</sub>",
        "Molecular Mass": "155.19",
        "Melting Point": "126.5 °C"
    }
}