{
    "cas_no": "694-28-0",
    "key_name": "2-Chlorocyclopentanone",
    "cn_name": "2-氯环戊酮;",
    "alternate_name": "Cyclopentanone, 2-chloro-;Cyclopentanone, 2-chloro-, (±)-;2-Chlorocyclopentanone;2-Chloro-1-cyclopentanone;α-Chlorocyclopentanone;(±)-2-Chlorocyclopentanone;NSC 60206",
    "duplicated_cas_no": "93474-01-2",
    "SMILES": "ClC1C(=O)CCC1",
    "meta_data": {
        "InChI": "InChI=1S/C5H7ClO/c6-4-2-1-3-5(4)7/h4H,1-3H2",
        "InChIKey": null,
        "Canonical SMILES": "O=C1CCCC1Cl",
        "Molecular Formula": "C<sub>5</sub>H<sub>7</sub>ClO",
        "Molecular Mass": "118.56",
        "Boiling Point": "80 °C @ Press: 10 Torr",
        "Density": "1.870 g/cm³ @ Temp: 14 °C"
    }
}