{
    "cas_no": "64-86-8",
    "key_name": "Colchicine",
    "cn_name": "秋水仙素;秋水仙碱;",
    "alternate_name": "Acetamide, <em>N</em>-[(7<em>S</em>)-5,6,7,9-tetrahydro-1,2,3,10-tetramethoxy-9-oxobenzo[<em>a</em>]heptalen-7-yl]-;Colchicine;Acetamide, <em>N</em>-(5,6,7,9-tetrahydro-1,2,3,10-tetramethoxy-9-oxobenzo[<em>a</em>]heptalen-7-yl)-, (<em>S</em>)-;Benzo[<em>a</em>]heptalene, acetamide deriv.;<em>N</em>-[(7<em>S</em>)-5,6,7,9-Tetrahydro-1,2,3,10-tetramethoxy-9-oxobenzo[<em>a</em>]heptalen-7-yl]acetamide;NSC 757;(<em>S</em>)-<em>N</em>-(5,6,7,9-Tetrahydro-1,2,3,10-tetramethoxy-9-oxobenzo[<em>a</em>]heptalen-7-yl)acetamide;Colchineos;Colchisol;Colcin;Colsaloid;Condylon;(-)-Colchicine;Colcrys;(<em>S</em>)-<em>N</em>-(1,2,3,10-Tetramethoxy-9-oxo-5,6,7,9-tetrahydrobenzo[<em>a</em>]heptalen-7-yl)acetamide;Mitigare;Zycolchin;MeSH ID: D003078",
    "duplicated_cas_no": "5843-86-7;30512-31-3",
    "SMILES": "O(C)C1=C2C=3C([C@@H](NC(C)=O)CCC2=CC(OC)=C1OC)=CC(=O)C(OC)=CC3",
    "meta_data": {
        "InChI": "InChI=1S/C22H25NO6/c1-12(24)23-16-8-6-13-10-19(27-3)21(28-4)22(29-5)20(13)14-7-9-18(26-2)17(25)11-15(14)16/h7,9-11,16H,6,8H2,1-5H3,(H,23,24)/t16-/m0/s1",
        "InChIKey": null,
        "Canonical SMILES": "O=C1C=C2C(=CC=C1OC)C3=C(OC)C(OC)=C(OC)C=C3CCC2NC(=O)C",
        "Molecular Formula": "C<sub>22</sub>H<sub>25</sub>NO<sub>6</sub>",
        "Molecular Mass": "399.44",
        "Melting Point": "142-150 °C"
    }
}