{
    "cas_no": "22819-91-6",
    "key_name": "7-Chloroheptanenitrile",
    "cn_name": "7-氯庚醇腈;7-氯庚醇腈,99%;",
    "alternate_name": "Heptanenitrile, 7-chloro-;7-Chloroheptanenitrile;7-Chloroheptanonitrile;1-Chloro-6-cyanohexane",
    "duplicated_cas_no": "",
    "SMILES": "C(CCCCl)CCC#N",
    "meta_data": {
        "InChI": "InChI=1S/C7H12ClN/c8-6-4-2-1-3-5-7-9/h1-6H2",
        "InChIKey": null,
        "Canonical SMILES": "N#CCCCCCCCl",
        "Molecular Formula": "C<sub>7</sub>H<sub>12</sub>ClN",
        "Molecular Mass": "145.63",
        "Boiling Point": "131-132 °C @ Press: 15 Torr",
        "Density": "1.003 g/cm³ @ Temp: 20.5 °C"
    }
}