{
    "cas_no": "5408-86-6",
    "key_name": "2,3-Dibromobutane",
    "cn_name": null,
    "alternate_name": "Butane, 2,3-dibromo-;2,3-Dibromobutane;NSC 8414",
    "duplicated_cas_no": "",
    "SMILES": "C(C(Br)C)(Br)C",
    "meta_data": {
        "InChI": "InChI=1S/C4H8Br2/c1-3(5)4(2)6/h3-4H,1-2H3",
        "InChIKey": null,
        "Canonical SMILES": "BrC(C)C(Br)C",
        "Molecular Formula": "C<sub>4</sub>H<sub>8</sub>Br<sub>2</sub>",
        "Molecular Mass": "215.91",
        "Boiling Point": "161 °C",
        "Melting Point": "-24 °C",
        "Density": "1.7892 g/cm³ @ Temp: 20 °C"
    }
}