{
    "cas_no": "19432-68-9",
    "key_name": "2-Thiopheneacetic acid, methyl ester",
    "cn_name": "2-噻吩乙酸甲酯;噻吩-2-乙酸甲酯;",
    "alternate_name": "2-Thiopheneacetic acid, methyl ester;Methyl (2-thienyl)acetate;Methyl 2-thiopheneacetate;Methyl 2-(thiophen-2-yl)acetate;2-(Thien-2-yl)acetic acid methyl ester",
    "duplicated_cas_no": "",
    "SMILES": "C(C(OC)=O)C1=CC=CS1",
    "meta_data": {
        "InChI": "InChI=1S/C7H8O2S/c1-9-7(8)5-6-3-2-4-10-6/h2-4H,5H2,1H3",
        "InChIKey": null,
        "Canonical SMILES": "O=C(OC)CC=1SC=CC1",
        "Molecular Formula": "C<sub>7</sub>H<sub>8</sub>O<sub>2</sub>S",
        "Molecular Mass": "156.20",
        "Boiling Point": "115-118 °C @ Press: 23 Torr"
    }
}