{
    "cas_no": "23277-00-1",
    "key_name": "Phosphonium, (1-naphthalenylmethyl)triphenyl-, chloride (1:1)",
    "cn_name": "(1-萘甲基)三苯基氯化磷;",
    "alternate_name": "Phosphonium, (1-naphthalenylmethyl)triphenyl-, chloride (1:1);Phosphonium, (1-naphthylmethyl)triphenyl-, chloride;Phosphonium, (1-naphthalenylmethyl)triphenyl-, chloride;1-Naphthylmethyltriphenylphosphonium chloride;FS 1;FS 1 (vulcanization accelerator);(1-Naphthalenemethyl)triphenylphosphonium chloride",
    "duplicated_cas_no": "1092104-97-6",
    "SMILES": "[P+](CC=1C2=C(C=CC1)C=CC=C2)(C3=CC=CC=C3)(C4=CC=CC=C4)C5=CC=CC=C5.[Cl-]",
    "meta_data": {
        "InChI": "InChI=1S/C29H24P.ClH/c1-4-16-26(17-5-1)30(27-18-6-2-7-19-27,28-20-8-3-9-21-28)23-25-15-12-14-24-13-10-11-22-29(24)25;/h1-22H,23H2;1H/q+1;/p-1",
        "InChIKey": null,
        "Canonical SMILES": "[Cl-].C=1C=CC(=CC1)[P+](C=2C=CC=CC2)(C=3C=CC=CC3)CC4=CC=CC=5C=CC=CC54",
        "Molecular Formula": "C<sub>29</sub>H<sub>24</sub>P.Cl",
        "Molecular Mass": "",
        "Melting Point": "290-291.5 °C"
    }
}