{
    "cas_no": "585-34-2",
    "key_name": "3-<em>tert</em>-Butylphenol",
    "cn_name": "3-叔丁基苯酚;",
    "alternate_name": "Phenol, 3-(1,1-dimethylethyl)-;Phenol, <em>m</em>-<em>tert</em>-butyl-;3-(1,1-Dimethylethyl)phenol;3-<em>tert</em>-Butylphenol;<em>m</em>-<em>tert</em>-Butylphenol;3-<em>t</em>-Butylphenol;5-<em>tert</em>-Butyl-1-hydroxybenzene;m-<em>tert</em>-Butylphenol",
    "duplicated_cas_no": "",
    "SMILES": "C(C)(C)(C)C1=CC(O)=CC=C1",
    "meta_data": {
        "InChI": "InChI=1S/C10H14O/c1-10(2,3)8-5-4-6-9(11)7-8/h4-7,11H,1-3H3",
        "InChIKey": null,
        "Canonical SMILES": "OC1=CC=CC(=C1)C(C)(C)C",
        "Molecular Formula": "C<sub>10</sub>H<sub>14</sub>O",
        "Molecular Mass": "150.22",
        "Boiling Point": "240 °C",
        "Melting Point": "42.3 °C"
    }
}