{
    "cas_no": "4024-34-4",
    "key_name": "Neobenodine",
    "cn_name": null,
    "alternate_name": "Ethanamine, <em>N</em>,<em>N</em>-dimethyl-2-[(4-methylphenyl)phenylmethoxy]-, hydrochloride (1:1);Ethylamine, <em>N</em>,<em>N</em>-dimethyl-2-[(<em>p</em>-methyl-α-phenylbenzyl)oxy]-, hydrochloride;Ethanamine, <em>N</em>,<em>N</em>-dimethyl-2-[(4-methylphenyl)phenyl methoxy]-, hydrochloride;Neobenodine;4-Methyldiphenhydramine hydrochloride;2-[(<em>p</em>-Methyl-α-phenylbenzyl)oxy]ethyl(dimethyl)ammonium chloride",
    "duplicated_cas_no": "",
    "SMILES": "C(OCCN(C)C)(C1=CC=C(C)C=C1)C2=CC=CC=C2.Cl",
    "meta_data": {
        "InChI": "InChI=1S/C18H23NO.ClH/c1-15-9-11-17(12-10-15)18(20-14-13-19(2)3)16-7-5-4-6-8-16;/h4-12,18H,13-14H2,1-3H3;1H",
        "InChIKey": null,
        "Canonical SMILES": "Cl.O(CCN(C)C)C(C=1C=CC=CC1)C2=CC=C(C=C2)C",
        "Molecular Formula": "C<sub>18</sub>H<sub>23</sub>NO.ClH",
        "Molecular Mass": "",
        "Melting Point": "150-152 °C"
    }
}