{
    "cas_no": "565-67-3",
    "key_name": "(±)-2-Methyl-3-pentanol",
    "cn_name": "2-甲基-3-戊醇;乙基异丙基甲醇;",
    "alternate_name": "3-Pentanol, 2-methyl-;2-Methyl-3-pentanol;4-Methyl-3-pentanol;2-Methyl-3-pentyl alcohol;<span class=\"text-smallcaps\">DL</span>-4-Methylpentan-3-ol;(±)-2-Methyl-3-pentanol;(±)-4-Methyl-3-pentanol;1-Ethyl-2-methylpropyl alcohol",
    "duplicated_cas_no": "20281-90-7",
    "SMILES": "C(C(C)C)(CC)O",
    "meta_data": {
        "InChI": "InChI=1S/C6H14O/c1-4-6(7)5(2)3/h5-7H,4H2,1-3H3",
        "InChIKey": null,
        "Canonical SMILES": "OC(CC)C(C)C",
        "Molecular Formula": "C<sub>6</sub>H<sub>14</sub>O",
        "Molecular Mass": "102.17",
        "Boiling Point": "126.5 °C",
        "Density": "0.8230 g/cm³ @ Temp: 20 °C"
    }
}