{
    "cas_no": "3456-75-5",
    "key_name": "5-Fluoro-2-nitrobenzeneacetonitrile",
    "cn_name": "5-氟-2-硝基苯乙腈;",
    "alternate_name": "Benzeneacetonitrile, 5-fluoro-2-nitro-;Acetonitrile, (5-fluoro-2-nitrophenyl)-;5-Fluoro-2-nitrobenzeneacetonitrile;(5-Fluoro-2-nitrophenyl)acetonitrile;2-(5-Fluoro-2-nitrophenyl)acetonitrile",
    "duplicated_cas_no": "",
    "SMILES": "N(=O)(=O)C1=C(CC#N)C=C(F)C=C1",
    "meta_data": {
        "InChI": "InChI=1S/C8H5FN2O2/c9-7-1-2-8(11(12)13)6(5-7)3-4-10/h1-2,5H,3H2",
        "InChIKey": null,
        "Canonical SMILES": "N#CCC1=CC(F)=CC=C1N(=O)=O",
        "Molecular Formula": "C<sub>8</sub>H<sub>5</sub>FN<sub>2</sub>O<sub>2</sub>",
        "Molecular Mass": "180.14",
        "Melting Point": "64-65 °C"
    }
}