{
    "cas_no": "693-95-8",
    "key_name": "4-Methylthiazole",
    "cn_name": "4-甲基噻唑;",
    "alternate_name": "Thiazole, 4-methyl-;4-Methylthiazole;NSC 42976;4-Methyl-1,3-thiazole",
    "duplicated_cas_no": "",
    "SMILES": "CC1=CSC=N1",
    "meta_data": {
        "InChI": "InChI=1S/C4H5NS/c1-4-2-6-3-5-4/h2-3H,1H3",
        "InChIKey": null,
        "Canonical SMILES": "N1=CSC=C1C",
        "Molecular Formula": "C<sub>4</sub>H<sub>5</sub>NS",
        "Molecular Mass": "99.15",
        "Boiling Point": "132 °C @ Press: 743 Torr",
        "Density": "1.112 g/cm³ @ Temp: 25 °C"
    }
}