{
    "cas_no": "13544-06-4",
    "key_name": "2-Nitro-4-(trifluoromethyl)benzeneacetonitrile",
    "cn_name": null,
    "alternate_name": "Benzeneacetonitrile, 2-nitro-4-(trifluoromethyl)-;Acetonitrile, (α,α,α-trifluoro-2-nitro-<em>p</em>-tolyl)-;2-Nitro-4-(trifluoromethyl)benzeneacetonitrile;4-Trifluoromethyl-2-nitrobenzeneacetonitrile;(2-Nitro-4-trifluoromethylphenyl)acetonitrile;2-[2-Nitro-4-(trifluoromethyl)phenyl]acetonitrile",
    "duplicated_cas_no": "",
    "SMILES": "N(=O)(=O)C1=C(CC#N)C=CC(C(F)(F)F)=C1",
    "meta_data": {
        "InChI": "InChI=1S/C9H5F3N2O2/c10-9(11,12)7-2-1-6(3-4-13)8(5-7)14(15)16/h1-2,5H,3H2",
        "InChIKey": null,
        "Canonical SMILES": "N#CCC1=CC=C(C=C1N(=O)=O)C(F)(F)F",
        "Molecular Formula": "C<sub>9</sub>H<sub>5</sub>F<sub>3</sub>N<sub>2</sub>O<sub>2</sub>",
        "Molecular Mass": "230.14",
        "Boiling Point": "134-138 °C",
        "Melting Point": "37-38 °C"
    }
}