{
    "cas_no": "135-97-7",
    "key_name": "Pseudotropine",
    "cn_name": "beta-托品醇;8-甲基-8-氮杂双环[3.2.1]辛-3-醇;",
    "alternate_name": "8-Azabicyclo[3.2.1]octan-3-ol, 8-methyl-, (3-<em>exo</em>)-;Pseudotropine;1α<span class=\"text-smallcaps\">H</smallcap>,5α<smallcap>H</span>-Tropan-3β-ol;8-Azabicyclo[3.2.1]octan-3-ol, 8-methyl-, <em>exo</em>-;(3-<em>exo</em>)-8-Methyl-8-azabicyclo[3.2.1]octan-3-ol;ψ-Tropine;Pseudotropanol;3β-Tropanol;3-Pseudotropanol;NSC 43871",
    "duplicated_cas_no": "",
    "SMILES": "CN1[C@]2(C[C@@H](O)C[C@@]1(CC2)[H])[H]",
    "meta_data": {
        "InChI": "InChI=1/C8H15NO/c1-9-6-2-3-7(9)5-8(10)4-6/h6-8,10H,2-5H2,1H3/t6-,7+,8-",
        "InChIKey": null,
        "Canonical SMILES": "OC1CC2N(C)C(CC2)C1",
        "Molecular Formula": "C<sub>8</sub>H<sub>15</sub>NO",
        "Molecular Mass": "141.21",
        "Boiling Point": "241 °C",
        "Melting Point": "109 °C",
        "Density": "0.998 g/cm³ @ Temp: 116 °C"
    }
}