{
    "cas_no": "1129-37-9",
    "key_name": "4-Nitrobenzaldehyde oxime",
    "cn_name": "4-硝基苯甲醛肟;",
    "alternate_name": "Benzaldehyde, 4-nitro-, oxime;Benzaldehyde, <em>p</em>-nitro-, oxime;<em>p</em>-Nitrobenzaldehyde oxime;<em>p</em>-Nitrobenzaldoxime;4-Nitrobenzaldoxime;4-Nitrobenzaldehyde oxime;(4-Nitrobenzylidene)hydroxylamine;NSC 68355",
    "duplicated_cas_no": "",
    "SMILES": "N(=O)(=O)C1=CC=C(C=NO)C=C1",
    "meta_data": {
        "InChI": "InChI=1S/C7H6N2O3/c10-8-5-6-1-3-7(4-2-6)9(11)12/h1-5,10H",
        "InChIKey": null,
        "Canonical SMILES": "O=N(=O)C1=CC=C(C=NO)C=C1",
        "Molecular Formula": "C<sub>7</sub>H<sub>6</sub>N<sub>2</sub>O<sub>3</sub>",
        "Molecular Mass": "166.13",
        "Melting Point": "126-130 °C"
    }
}