{
    "cas_no": "10031-22-8",
    "key_name": "Lead dibromide",
    "cn_name": null,
    "alternate_name": "Lead bromide (PbBr<sub>2</sub>);Lead bromide;Lead dibromide;Lead(II) bromide;Plumbous bromide",
    "duplicated_cas_no": "",
    "SMILES": "[Pb](Br)Br",
    "meta_data": {
        "InChI": "InChI=1S/2BrH.Pb/h2*1H;/q;;+2/p-2",
        "InChIKey": null,
        "Canonical SMILES": "Br[Pb]Br",
        "Molecular Formula": "Br<sub>2</sub>Pb",
        "Molecular Mass": "",
        "Melting Point": "366 °C",
        "Density": "6.648 g/cm³"
    }
}