{
    "cas_no": "51310-55-5",
    "key_name": "3-(Trifluoromethyl)-1<em>H</em>-indole",
    "cn_name": null,
    "alternate_name": "1<em>H</em>-Indole, 3-(trifluoromethyl)-;3-(Trifluoromethyl)-1<em>H</em>-indole",
    "duplicated_cas_no": "",
    "SMILES": "C(F)(F)(F)C=1C=2C(NC1)=CC=CC2",
    "meta_data": {
        "InChI": "InChI=1S/C9H6F3N/c10-9(11,12)7-5-13-8-4-2-1-3-6(7)8/h1-5,13H",
        "InChIKey": null,
        "Canonical SMILES": "FC(F)(F)C1=CNC=2C=CC=CC21",
        "Molecular Formula": "C<sub>9</sub>H<sub>6</sub>F<sub>3</sub>N",
        "Molecular Mass": "185.15",
        "Melting Point": "109-110 °C"
    }
}