{
    "cas_no": "476-66-4",
    "key_name": "Ellagic acid",
    "cn_name": "鞣花酸;",
    "alternate_name": "[1]Benzopyrano[5,4,3-<em>cde</em>][1]benzopyran-5,10-dione, 2,3,7,8-tetrahydroxy-;2,3,7,8-Tetrahydroxy[1]benzopyrano[5,4,3-<em>cde</em>][1]benzopyran-5,10-dione;C.I. 55005;C.I. 75270;Alizarine Yellow;Benzoaric acid;Ellagic acid;Gallogen (astringent);[1,1′-Biphenyl]-2,2′-dicarboxylic acid, 4,4′,5,5′,6,6′-hexahydroxy-, di-δ-lactone;Eleagic acid;Gallogen;Elagostasine;Lagistase;Alizarin yellow;G 91006;LDN 0097519;Ellagic acid LT;2,3,7,8-Tetrahydroxy-chromeno[5,4,3-<em>cde</em>]chromene-5,10-dione;MeSH ID: D004610",
    "duplicated_cas_no": "124590-32-5;77415-21-5",
    "SMILES": "OC=1C2=C3C4=C(OC(=O)C3=CC1O)C(O)=C(O)C=C4C(=O)O2",
    "meta_data": {
        "InChI": "InChI=1S/C14H6O8/c15-5-1-3-7-8-4(14(20)22-11(7)9(5)17)2-6(16)10(18)12(8)21-13(3)19/h1-2,15-18H",
        "InChIKey": null,
        "Canonical SMILES": "O=C1OC2=C(O)C(O)=CC=3C(=O)OC=4C(O)=C(O)C=C1C4C23",
        "Molecular Formula": "C<sub>14</sub>H<sub>6</sub>O<sub>8</sub>",
        "Molecular Mass": "302.19",
        "Melting Point": "&gt;360 °C"
    }
}