{
    "cas_no": "1677-46-9",
    "key_name": "4-Hydroxy-1-methyl-2(1<em>H</em>)-quinolinone",
    "cn_name": null,
    "alternate_name": "2(1<em>H</em>)-Quinolinone, 4-hydroxy-1-methyl-;Carbostyril, 4-hydroxy-1-methyl-;4-Hydroxy-1-methyl-2(1<em>H</em>)-quinolinone;4-Hydroxy-<em>N</em>-methylcarbostyril;4-Hydroxy-1-methyl-2-quinolone;1-Methyl-2-oxo-1,2-dihydro-4-hydroxyquinoline;4-Hydroxy-<em>N</em>-methyl-2-quinolone;4-Hydroxy-1-methyl-2(1<em>H</em>)-quinolone;4-Hydroxy-1-methylcarbostyril;1-Methyl-4-hydroxy-2(1<em>H</em>)-quinolinone;<em>N</em>-Methyl-4-hydroxyquinol-2-one;1-Methyl-4-hydroxycarbostyril;1-Methyl-4-hydroxy-2-quinolone;4-Hydroxy-1-methyl-2-quinolinone;4-Hydroxy-<em>N</em>-methyl-2-quinolinone;4-Hydroxy-1-methylquinolin-2(1<em>H</em>)-one;NSC 39973;4-Hydroxy-1-methylquinoline-2(1<em>H</em>)-one;4-Hydroxy-N-methyl-2-quinolone;1-Methyl-4-hydroxyquinolin-2-one",
    "duplicated_cas_no": "",
    "SMILES": "CN1C=2C(C(O)=CC1=O)=CC=CC2",
    "meta_data": {
        "InChI": "InChI=1S/C10H9NO2/c1-11-8-5-3-2-4-7(8)9(12)6-10(11)13/h2-6,12H,1H3",
        "InChIKey": null,
        "Canonical SMILES": "O=C1C=C(O)C=2C=CC=CC2N1C",
        "Molecular Formula": "C<sub>10</sub>H<sub>9</sub>NO<sub>2</sub>",
        "Molecular Mass": "175.18",
        "Melting Point": "255-258 °C"
    }
}