{
    "cas_no": "21187-98-4",
    "key_name": "Gliclazide",
    "cn_name": "格列齐特;甲磺双环脲;1-(3-氮杂双环[3,3,0]辛基)-3-对甲苯磺酰脲;",
    "alternate_name": "Benzenesulfonamide, <em>N</em>-[[(hexahydrocyclopenta[<em>c</em>]pyrrol-2(1<em>H</em>)-yl)amino]carbonyl]-4-methyl-;Urea, 1-(hexahydrocyclopenta[<em>c</em>]pyrrol-2(1<em>H</em>)-yl)-3-(<em>p</em>-tolylsulfonyl)-;Cyclopenta[<em>c</em>]pyrrole, benzenesulfonamide deriv.;<em>N</em>-[[(Hexahydrocyclopenta[<em>c</em>]pyrrol-2(1<em>H</em>)-yl)amino]carbonyl]-4-methylbenzenesulfonamide;Gliclazide;Diamicron;S 1702;1-(Hexahydrocyclopenta[<em>c</em>]pyrrol-2(1<em>H</em>)-yl)-3-(<em>p</em>-tolylsulfonyl)urea;SE 1702;S 852;<em>N</em>-(4-Methylbenzenesulfonyl)-<em>N</em>′-[3-azabicyclo(3,3,0)oct-3-yl]urea;Diabezidum;Glinormax;Diabrezide;Diaprel;Glyzide;Glimicron;Diabyl;1-(3,3a,4,5,6,6a-Hexahydro-1<em>H</em>-cyclopenta[<em>c</em>]pyrrol-2-yl)-3-(4-methylphenyl)sulfonylurea;1-(4-Methylbenzenesulfonyl)-3-[octahydrocyclopenta[<em>c</em>]pyrrol-2-yl]urea;BRD-A 61154809;MeSH ID: D005907",
    "duplicated_cas_no": "",
    "SMILES": "N(C(NS(=O)(=O)C1=CC=C(C)C=C1)=O)N2CC3C(C2)CCC3",
    "meta_data": {
        "InChI": "InChI=1S/C15H21N3O3S/c1-11-5-7-14(8-6-11)22(20,21)17-15(19)16-18-9-12-3-2-4-13(12)10-18/h5-8,12-13H,2-4,9-10H2,1H3,(H2,16,17,19)",
        "InChIKey": null,
        "Canonical SMILES": "O=C(NN1CC2CCCC2C1)NS(=O)(=O)C3=CC=C(C=C3)C",
        "Molecular Formula": "C<sub>15</sub>H<sub>21</sub>N<sub>3</sub>O<sub>3</sub>S",
        "Molecular Mass": "323.41",
        "Melting Point": "181 °C"
    }
}