{
    "cas_no": "2620-50-0",
    "key_name": "1,3-Benzodioxole-5-methanamine",
    "cn_name": "3,4-亚甲二氧基苄胺;胡椒基胺;3,4-亚甲二氧基苯甲胺;",
    "alternate_name": "1,3-Benzodioxole-5-methanamine;Piperonylamine;1-(Aminomethyl)-3,4-(methylenedioxy)benzene;3,4-(Methylenedioxy)benzylamine;1,3-Benzodioxol-5-ylmethylamine;3,4-Methylenedioxyphenylmethylamine;1,3-Benzodioxol-5-ylmethanamine;[(Benzodioxol-5-yl)methyl]amine;NSC 75851;5-Aminomethyl-1,3-benzodioxole;1-(1,3-Benzodioxol-5-yl)methanamine;(Benzo[<em>d</em>][1,3]dioxol-5-yl)methanamine;[(Benzo[<em>d</em>][1,3]dioxol-5-yl)methyl]amine;3′,4′-(Methylenedioxy)benzylamine;C-(Benzo[1,3]dioxol-5-yl)methylamine;(1,3-Dioxaindan-5-yl)methanamine;2<em>H</em>-1,3-Benzodioxol-5-ylmethanamine;1,3-Benzodioxole-5-methylamine",
    "duplicated_cas_no": "",
    "SMILES": "C(N)C=1C=C2C(=CC1)OCO2",
    "meta_data": {
        "InChI": "InChI=1S/C8H9NO2/c9-4-6-1-2-7-8(3-6)11-5-10-7/h1-3H,4-5,9H2",
        "InChIKey": null,
        "Canonical SMILES": "O1C2=CC=C(C=C2OC1)CN",
        "Molecular Formula": "C<sub>8</sub>H<sub>9</sub>NO<sub>2</sub>",
        "Molecular Mass": "151.16",
        "Boiling Point": "137-140 °C @ Press: 13 Torr"
    }
}