{
    "cas_no": "122-20-3",
    "key_name": "Triisopropanolamine",
    "cn_name": null,
    "alternate_name": "2-Propanol, 1,1′,1′′-nitrilotris-;2-Propanol, 1,1′,1′′-nitrilotri-;1,1′,1′′-Nitrilotris[2-propanol];Triisopropanolamine;Tri-<em>iso</em>-propanolamine;Tris(2-hydroxypropyl)amine;Tris(2-hydroxy-1-propyl)amine;1,1′,1′′-Nitrilotri-2-propanol;Tris(2-propanol)amine;Tri-2-propanolamine;TIPA;NTP;NSC 4010;CBA (aminoalcohol);CBA;1-[Bis(2-hydroxypropyl)amino]propan-2-ol",
    "duplicated_cas_no": "2488591-40-6",
    "SMILES": "N(CC(C)O)(CC(C)O)CC(C)O",
    "meta_data": {
        "InChI": "InChI=1S/C9H21NO3/c1-7(11)4-10(5-8(2)12)6-9(3)13/h7-9,11-13H,4-6H2,1-3H3",
        "InChIKey": null,
        "Canonical SMILES": "OC(C)CN(CC(O)C)CC(O)C",
        "Molecular Formula": "C<sub>9</sub>H<sub>21</sub>NO<sub>3</sub>",
        "Molecular Mass": "191.27",
        "Boiling Point": "306 °C",
        "Melting Point": "45 °C",
        "Density": "1.0 g/cm³"
    }
}