{
    "cas_no": "49773-20-8",
    "key_name": "2-(Methylsulfonyl)ethanamine",
    "cn_name": "2-(甲磺酰基)乙胺;2-氨乙基甲基砜;",
    "alternate_name": "Ethanamine, 2-(methylsulfonyl)-;2-(Methylsulfonyl)ethanamine;2-(Methylsulfonyl)ethylamine;2-Aminoethyl methyl sulfone;2-(Methylsulfonyl)ethan-1-amine;2-(Methylsulfonyl)ethaneamine;2-(Methanesulfonyl)ethanamine;2-Methanesulfonylethan-1-amine",
    "duplicated_cas_no": "",
    "SMILES": "C(S(C)(=O)=O)CN",
    "meta_data": {
        "InChI": "InChI=1S/C3H9NO2S/c1-7(5,6)3-2-4/h2-4H2,1H3",
        "InChIKey": null,
        "Canonical SMILES": "O=S(=O)(C)CCN",
        "Molecular Formula": "C<sub>3</sub>H<sub>9</sub>NO<sub>2</sub>S",
        "Molecular Mass": "123.17",
        "Boiling Point": "160 °C @ Press: 0.02 Torr"
    }
}