{
    "cas_no": "20691-92-3",
    "key_name": "1-Methyl-4-piperidinecarbonitrile",
    "cn_name": null,
    "alternate_name": "4-Piperidinecarbonitrile, 1-methyl-;Isonipecotonitrile, 1-methyl-;1-Methyl-4-piperidinecarbonitrile;4-Cyano-1-methylpiperidine;1-Methyl-4-cyanopiperidine;1-Methylisonipecotonitrile",
    "duplicated_cas_no": "",
    "SMILES": "C(#N)C1CCN(C)CC1",
    "meta_data": {
        "InChI": "InChI=1S/C7H12N2/c1-9-4-2-7(6-8)3-5-9/h7H,2-5H2,1H3",
        "InChIKey": null,
        "Canonical SMILES": "N#CC1CCN(C)CC1",
        "Molecular Formula": "C<sub>7</sub>H<sub>12</sub>N<sub>2</sub>",
        "Molecular Mass": "124.18",
        "Boiling Point": "82-83 °C @ Press: 10 Torr",
        "Density": "0.9521 g/cm³ @ Temp: 20 °C"
    }
}