{
    "cas_no": "34681-23-7",
    "key_name": "Butoxycarboxim",
    "cn_name": null,
    "alternate_name": "2-Butanone, 3-(methylsulfonyl)-, <em>O</em>-[(methylamino)carbonyl]oxime;Butoxycarboxim;Co 859;Butocarboxim sulfone;(3-Methanesulfonylbutan-2-ylidene)amino <em>N</em>-methylcarbamate",
    "duplicated_cas_no": "",
    "SMILES": "C(C(=NOC(NC)=O)C)(S(C)(=O)=O)C",
    "meta_data": {
        "InChI": "InChI=1S/C7H14N2O4S/c1-5(6(2)14(4,11)12)9-13-7(10)8-3/h6H,1-4H3,(H,8,10)",
        "InChIKey": null,
        "Canonical SMILES": "O=C(ON=C(C)C(C)S(=O)(=O)C)NC",
        "Molecular Formula": "C<sub>7</sub>H<sub>14</sub>N<sub>2</sub>O<sub>4</sub>S",
        "Molecular Mass": "222.26",
        "Melting Point": "85-89 °C",
        "Density": "1.21 g/cm³ @ Temp: 20 °C"
    }
}