{
    "cas_no": "3891-98-3",
    "key_name": "Farnesane",
    "cn_name": null,
    "alternate_name": "Dodecane, 2,6,10-trimethyl-;2,6,10-Trimethyldodecane;Farnesane;Farnesan;Hemisqualane;Neossance TMD",
    "duplicated_cas_no": "27982-62-3",
    "SMILES": "C(CCCC(CC)C)(CCCC(C)C)C",
    "meta_data": {
        "InChI": "InChI=1S/C15H32/c1-6-14(4)10-8-12-15(5)11-7-9-13(2)3/h13-15H,6-12H2,1-5H3",
        "InChIKey": null,
        "Canonical SMILES": "CCC(C)CCCC(C)CCCC(C)C",
        "Molecular Formula": "C<sub>15</sub>H<sub>32</sub>",
        "Molecular Mass": "212.41",
        "Boiling Point": "119.5-120 °C @ Press: 11 Torr",
        "Density": "0.7682 g/cm³ @ Temp: 25 °C"
    }
}