{
    "cas_no": "1120-64-5",
    "key_name": "2-Methyl-2-oxazoline",
    "cn_name": "2-甲基-2-唑啉;2-甲基-2-恶唑啉;",
    "alternate_name": "Oxazole, 4,5-dihydro-2-methyl-;2-Oxazoline, 2-methyl-;4,5-Dihydro-2-methyloxazole;2-Methyl-2-oxazoline;2-Methyloxazoline;NSC 43141;2-Methyl-4,5-dihydrooxazole;2-Methyl-4,5-dihydro-1,3-oxazole",
    "duplicated_cas_no": "99392-69-5;138394-13-5;650601-13-1;166449-24-7",
    "SMILES": "CC1=NCCO1",
    "meta_data": {
        "InChI": "InChI=1S/C4H7NO/c1-4-5-2-3-6-4/h2-3H2,1H3",
        "InChIKey": null,
        "Canonical SMILES": "N1=C(OCC1)C",
        "Molecular Formula": "C<sub>4</sub>H<sub>7</sub>NO",
        "Molecular Mass": "85.10",
        "Boiling Point": "111 °C",
        "Density": "0.9895 g/cm³ @ Temp: 20 °C"
    }
}