{
    "cas_no": "86780-90-7",
    "key_name": "Aranidipine",
    "cn_name": "阿雷地平;",
    "alternate_name": "3,5-Pyridinedicarboxylic acid, 1,4-dihydro-2,6-dimethyl-4-(2-nitrophenyl)-, 3-methyl 5-(2-oxopropyl) ester;3,5-Pyridinedicarboxylic acid, 1,4-dihydro-2,6-dimethyl-4-(2-nitrophenyl)-, methyl 2-oxopropyl ester;MPC 1304;(±)-Acetonyl methyl 1,4-dihydro-2,6-dimethyl-4-(<em>o</em>-nitrophenyl)-3,5-pyridinedicarboxylate;Aranidipine;Sapresta;3-Methyl 5-(2-oxopropyl) 2,6-dimethyl-4-(2-nitrophenyl)-1,4-dihydropyridine-3,5-dicarboxylate",
    "duplicated_cas_no": "",
    "SMILES": "C(OCC(C)=O)(=O)C=1C(C(C(OC)=O)=C(C)NC1C)C2=C(N(=O)=O)C=CC=C2",
    "meta_data": {
        "InChI": "InChI=1S/C19H20N2O7/c1-10(22)9-28-19(24)16-12(3)20-11(2)15(18(23)27-4)17(16)13-7-5-6-8-14(13)21(25)26/h5-8,17,20H,9H2,1-4H3",
        "InChIKey": null,
        "Canonical SMILES": "O=C(OC)C1=C(NC(=C(C(=O)OCC(=O)C)C1C=2C=CC=CC2N(=O)=O)C)C",
        "Molecular Formula": "C<sub>19</sub>H<sub>20</sub>N<sub>2</sub>O<sub>7</sub>",
        "Molecular Mass": "388.37",
        "Melting Point": "150-151 °C"
    }
}