{
    "cas_no": "38746-92-8",
    "key_name": "4-(Methylthio)benzeneacetonitrile",
    "cn_name": null,
    "alternate_name": "Benzeneacetonitrile, 4-(methylthio)-;Acetonitrile, [<em>p</em>-(methylthio)phenyl]-;4-(Methylthio)benzeneacetonitrile;<em>p</em>-(Methylthio)phenylacetonitrile;[4-(Methylthio)phenyl]acetonitrile;4-Methylsulfanylphenylacetonitrile;2-[4-(Methylsulfanyl)phenyl]acetonitrile",
    "duplicated_cas_no": "",
    "SMILES": "C(C#N)C1=CC=C(SC)C=C1",
    "meta_data": {
        "InChI": "InChI=1S/C9H9NS/c1-11-9-4-2-8(3-5-9)6-7-10/h2-5H,6H2,1H3",
        "InChIKey": null,
        "Canonical SMILES": "N#CCC1=CC=C(SC)C=C1",
        "Molecular Formula": "C<sub>9</sub>H<sub>9</sub>NS",
        "Molecular Mass": "163.24",
        "Boiling Point": "120.5-127.5 °C @ Press: 1 Torr",
        "Melting Point": "40.5-41.5 °C"
    }
}