{
    "cas_no": "29110-74-5",
    "key_name": "3-Chloroindazole",
    "cn_name": null,
    "alternate_name": "1<em>H</em>-Indazole, 3-chloro-;3-Chloro-1<em>H</em>-indazole;3-Chloroindazole;NSC 42179;NSC 44503",
    "duplicated_cas_no": "",
    "SMILES": "ClC=1C=2C(=CC=CC2)NN1",
    "meta_data": {
        "InChI": "InChI=1S/C7H5ClN2/c8-7-5-3-1-2-4-6(5)9-10-7/h1-4H,(H,9,10)",
        "InChIKey": null,
        "Canonical SMILES": "ClC1=NNC=2C=CC=CC12",
        "Molecular Formula": "C<sub>7</sub>H<sub>5</sub>ClN<sub>2</sub>",
        "Molecular Mass": "152.58",
        "Melting Point": "149 °C"
    }
}