{
    "cas_no": "32765-81-4",
    "key_name": "1-Hexanaminium, 6-bromo-<em>N</em>,<em>N</em>,<em>N</em>-trimethyl-, bromide (1:1)",
    "cn_name": null,
    "alternate_name": "1-Hexanaminium, 6-bromo-<em>N</em>,<em>N</em>,<em>N</em>-trimethyl-, bromide (1:1);1-Hexanaminium, 6-bromo-<em>N</em>,<em>N</em>,<em>N</em>-trimethyl-, bromide;Ammonium, (6-bromohexyl)trimethyl-, bromide;(6-Bromohexyl)trimethylammonium bromide",
    "duplicated_cas_no": "",
    "SMILES": "C(CCCCCBr)[N+](C)(C)C.[Br-]",
    "meta_data": {
        "InChI": "InChI=1S/C9H21BrN.BrH/c1-11(2,3)9-7-5-4-6-8-10;/h4-9H2,1-3H3;1H/q+1;/p-1",
        "InChIKey": null,
        "Canonical SMILES": "[Br-].BrCCCCCC[N+](C)(C)C",
        "Molecular Formula": "C<sub>9</sub>H<sub>21</sub>BrN.Br",
        "Molecular Mass": "",
        "Melting Point": "98-100 °C"
    }
}