{
    "cas_no": "1686-23-3",
    "key_name": "(<em>T</em>-4)-Oxotripropoxyvanadium",
    "cn_name": null,
    "alternate_name": "Vanadium, oxotripropoxy-, (<em>T</em>-4)-;Vanadic acid (H<sub>3</sub>VO<sub>4</sub>), tripropyl ester;Propyl vanadate(V);(<em>T</em>-4)-Oxotripropoxyvanadium;Tripropoxyvanadyl;Tripropoxyoxovanadium;Tripropyl vanadate;Vanadium tripropoxide oxide;Oxotripropoxyvanadium;Vanadyl oxytripropoxide;Vanadyl tripropoxide;Propyl orthovanadate;Vanadium(V) oxytripropoxide;Vanadium oxytripropoxide;Vanadyltris(propoxide);Vanadium(V) oxide tripropoxide",
    "duplicated_cas_no": "",
    "SMILES": "[V](OCCC)(OCCC)(OCCC)=O",
    "meta_data": {
        "InChI": "InChI=1S/3C3H7O.O.V/c3*1-2-3-4;;/h3*2-3H2,1H3;;/q3*-1;;+3",
        "InChIKey": null,
        "Canonical SMILES": "O=[V](OCCC)(OCCC)OCCC",
        "Molecular Formula": "C<sub>9</sub>H<sub>21</sub>O<sub>4</sub>V",
        "Molecular Mass": "",
        "Boiling Point": "143 °C @ Press: 24 Torr",
        "Density": "1.088 g/cm³ @ Temp: 15 °C"
    }
}