{
    "cas_no": "30097-06-4",
    "key_name": "2,4-Thiazolidinedicarboxylic acid",
    "cn_name": "噻唑烷-2,4-二羧酸;二酸噻唑啉;噻二酸;噻二西酸;",
    "alternate_name": "2,4-Thiazolidinedicarboxylic acid;Tidiacic;Tidiacic acid;TDCA;1,3-Thiazolidine-2,4-dicarboxylic acid",
    "duplicated_cas_no": "32675-63-1",
    "SMILES": "C(O)(=O)C1NC(C(O)=O)SC1",
    "meta_data": {
        "InChI": "InChI=1S/C5H7NO4S/c7-4(8)2-1-11-3(6-2)5(9)10/h2-3,6H,1H2,(H,7,8)(H,9,10)",
        "InChIKey": null,
        "Canonical SMILES": "O=C(O)C1SCC(N1)C(=O)O",
        "Molecular Formula": "C<sub>5</sub>H<sub>7</sub>NO<sub>4</sub>S",
        "Molecular Mass": "177.18",
        "Melting Point": "184-185 °C"
    }
}