{
    "cas_no": "612-55-5",
    "key_name": "2-Iodonaphthalene",
    "cn_name": null,
    "alternate_name": "Naphthalene, 2-iodo-;2-Iodonaphthalene;β-Iodonaphthalene;2-Naphthyl iodide;NSC 3786;Naphthalen-2-yl iodide;2-Monoiodonaphthalene",
    "duplicated_cas_no": "2222571-96-0",
    "SMILES": "IC1=CC2=C(C=C1)C=CC=C2",
    "meta_data": {
        "InChI": "InChI=1S/C10H7I/c11-10-6-5-8-3-1-2-4-9(8)7-10/h1-7H",
        "InChIKey": null,
        "Canonical SMILES": "IC=1C=CC=2C=CC=CC2C1",
        "Molecular Formula": "C<sub>10</sub>H<sub>7</sub>I",
        "Molecular Mass": "254.07",
        "Melting Point": "54 °C"
    }
}