{
    "cas_no": "589-18-4",
    "key_name": "4-Methylbenzyl alcohol",
    "cn_name": "4-甲基苄醇;对甲基苄醇;对甲基苯甲醇;",
    "alternate_name": "Benzenemethanol, 4-methyl-;Benzyl alcohol, <em>p</em>-methyl-;4-Methylbenzenemethanol;<em>p</em>-Tolylcarbinol;<em>p</em>-Methylbenzyl alcohol;4-Methylbenzyl alcohol;4-(Hydroxymethyl)toluene;<em>p</em>-Toluyl alcohol;<em>p</em>-Tolualcohol;(4-Methylphenyl)methanol;<em>p</em>-Toluic alcohol;(4-Tolyl)methanol;<em>p</em>-Tolylmethanol;NSC 3992",
    "duplicated_cas_no": "185532-77-8",
    "SMILES": "C(O)C1=CC=C(C)C=C1",
    "meta_data": {
        "InChI": "InChI=1S/C8H10O/c1-7-2-4-8(6-9)5-3-7/h2-5,9H,6H2,1H3",
        "InChIKey": null,
        "Canonical SMILES": "OCC1=CC=C(C=C1)C",
        "Molecular Formula": "C<sub>8</sub>H<sub>10</sub>O",
        "Molecular Mass": "122.16",
        "Boiling Point": "217 °C",
        "Melting Point": "61.5 °C",
        "Density": "1.0194 g/cm³ @ Temp: 20 °C"
    }
}