{
    "cas_no": "38573-88-5",
    "key_name": "1-Bromo-2,3-difluorobenzene",
    "cn_name": "2,3-二氟溴苯;1-溴-2,3-二氟苯;",
    "alternate_name": "Benzene, 1-bromo-2,3-difluoro-;1-Bromo-2,3-difluorobenzene;2,3-Difluorobromobenzene;2,3-Difluoro-1-bromobenzene",
    "duplicated_cas_no": "",
    "SMILES": "FC1=C(Br)C=CC=C1F",
    "meta_data": {
        "InChI": "InChI=1S/C6H3BrF2/c7-4-2-1-3-5(8)6(4)9/h1-3H",
        "InChIKey": null,
        "Canonical SMILES": "FC1=CC=CC(Br)=C1F",
        "Molecular Formula": "C<sub>6</sub>H<sub>3</sub>BrF<sub>2</sub>",
        "Molecular Mass": "192.99",
        "Boiling Point": "158 °C"
    }
}