{
    "cas_no": "2295-12-7",
    "key_name": "1,1-Dimethylsilacyclobutane",
    "cn_name": null,
    "alternate_name": "Silacyclobutane, 1,1-dimethyl-;1,1-Dimethylsilacyclobutane;1,1-Dimethyl-1-silacyclobutane;1,1-Dimethylsiletane;Cyclotrimethylenedimethylsilane;1,1-Dimethylsilatane",
    "duplicated_cas_no": "",
    "SMILES": "C[Si]1(C)CCC1",
    "meta_data": {
        "InChI": "InChI=1S/C5H12Si/c1-6(2)4-3-5-6/h3-5H2,1-2H3",
        "InChIKey": null,
        "Canonical SMILES": "C[Si]1(C)CCC1",
        "Molecular Formula": "C<sub>5</sub>H<sub>12</sub>Si",
        "Molecular Mass": "100.23",
        "Boiling Point": "82 °C",
        "Melting Point": "42-45 °C",
        "Density": "0.775 g/cm³"
    }
}