{
    "cas_no": "122-78-1",
    "key_name": "Phenylacetaldehyde",
    "cn_name": null,
    "alternate_name": "Benzeneacetaldehyde;Acetaldehyde, phenyl-;Phenylacetaldehyde;Phenylacetic aldehyde;α-Tolualdehyde;α-Toluic aldehyde;2-Phenylethanal;Phenylethanal;α-Phenylacetaldehyde;Phenacetaldehyde;NSC 406309;Hyacinthin;Benzylcarboxaldehyde",
    "duplicated_cas_no": "2170235-75-1",
    "SMILES": "C(C=O)C1=CC=CC=C1",
    "meta_data": {
        "InChI": "InChI=1S/C8H8O/c9-7-6-8-4-2-1-3-5-8/h1-5,7H,6H2",
        "InChIKey": null,
        "Canonical SMILES": "O=CCC=1C=CC=CC1",
        "Molecular Formula": "C<sub>8</sub>H<sub>8</sub>O",
        "Molecular Mass": "120.15",
        "Boiling Point": "195 °C",
        "Melting Point": "33.5 °C",
        "Density": "1.0252 g/cm³ @ Temp: 20 °C"
    }
}