{
    "cas_no": "16889-14-8",
    "key_name": "Amidoamine S",
    "cn_name": "N-[2-(二乙基氨基)乙基]十八酰胺;",
    "alternate_name": "Octadecanamide, <em>N</em>-[2-(diethylamino)ethyl]-;<em>N</em>-[2-(Diethylamino)ethyl]octadecanamide;<em>N</em>-[2-(Diethylamino)ethyl]stearamide;Sapamine COB-ST;Lexamine 22;Stearamidoethyl diethylamine;Chemical Base 6532;Diethylaminoethyl stearamide;Stearic acid diethylaminoethylamide;Amidoamine S;NSC 126195;Stearic acid 2-(<em>N</em>,<em>N</em>-diethylamino)ethylamide;Nikkol Amidoamine S;Catinal AEAS;Nikkol Amidoamine SV;Catinal AEAK;Ayacol Amineamide 50E",
    "duplicated_cas_no": "",
    "SMILES": "C(N(CC)CC)CNC(CCCCCCCCCCCCCCCCC)=O",
    "meta_data": {
        "InChI": "InChI=1S/C24H50N2O/c1-4-7-8-9-10-11-12-13-14-15-16-17-18-19-20-21-24(27)25-22-23-26(5-2)6-3/h4-23H2,1-3H3,(H,25,27)",
        "InChIKey": null,
        "Canonical SMILES": "O=C(NCCN(CC)CC)CCCCCCCCCCCCCCCCC",
        "Molecular Formula": "C<sub>24</sub>H<sub>50</sub>N<sub>2</sub>O",
        "Molecular Mass": "382.67",
        "Melting Point": "61-62 °C"
    }
}