{
    "cas_no": "5416-80-8",
    "key_name": "2-Methylindole-3-carboxaldehyde",
    "cn_name": "2-甲基吲哚-3-甲醛;",
    "alternate_name": "1<em>H</em>-Indole-3-carboxaldehyde, 2-methyl-;Indole-3-carboxaldehyde, 2-methyl-;2-Methyl-1<em>H</em>-indole-3-carboxaldehyde;2-Methylindole-3-carboxaldehyde;3-Formyl-2-methylindole;2-Methyl-3-formylindole;NSC 11895;2-Methyl-1<em>H</em>-indole-3-carbaldehyde",
    "duplicated_cas_no": "",
    "SMILES": "C(=O)C=1C=2C(NC1C)=CC=CC2",
    "meta_data": {
        "InChI": "InChI=1S/C10H9NO/c1-7-9(6-12)8-4-2-3-5-10(8)11-7/h2-6,11H,1H3",
        "InChIKey": null,
        "Canonical SMILES": "O=CC=1C=2C=CC=CC2NC1C",
        "Molecular Formula": "C<sub>10</sub>H<sub>9</sub>NO",
        "Molecular Mass": "159.18",
        "Melting Point": "196 °C"
    }
}