{
    "cas_no": "452-63-1",
    "key_name": "2-Bromo-5-fluorotoluene",
    "cn_name": "2-溴-5-氟甲苯;",
    "alternate_name": "Benzene, 1-bromo-4-fluoro-2-methyl-;1-Bromo-4-fluoro-2-methylbenzene;6-Bromo-3-fluorotoluene;2-Bromo-5-fluorotoluene;5-Fluoro-2-bromotoluene;NSC 88287;4-Fluoro-2-methyl-1-bromobenzene;2-Methyl-4-fluorobromobenzene;4-Fluoro-2-methylphenyl bromide;4-Bromo-3-methyl-1-fluorobenzene;1-Bromo-2-methyl-4-fluorobenzene",
    "duplicated_cas_no": "",
    "SMILES": "CC1=C(Br)C=CC(F)=C1",
    "meta_data": {
        "InChI": "InChI=1S/C7H6BrF/c1-5-4-6(9)2-3-7(5)8/h2-4H,1H3",
        "InChIKey": null,
        "Canonical SMILES": "FC1=CC=C(Br)C(=C1)C",
        "Molecular Formula": "C<sub>7</sub>H<sub>6</sub>BrF",
        "Molecular Mass": "189.02",
        "Boiling Point": "177 °C @ Press: 756 Torr"
    }
}