{
    "cas_no": "140-49-8",
    "key_name": "<em>N</em>-[4-(2-Chloroacetyl)phenyl]acetamide",
    "cn_name": "4-氯乙酰基乙酰苯胺;",
    "alternate_name": "Acetamide, <em>N</em>-[4-(2-chloroacetyl)phenyl]-;Acetanilide, 4′-(chloroacetyl)-;Acetamide, <em>N</em>-[4-(chloroacetyl)phenyl]-;<em>N</em>-[4-(2-Chloroacetyl)phenyl]acetamide;1-Acetylamino-4-chloroacetylbenzene;<em>p</em>-(Acetylamino)phenacyl chloride;<em>p</em>-Acetamidophenacyl chloride;1-Acetamido-4-chloroacetylbenzene;4′-(Chloroacetyl)acetanilide;4-Acetamidophenacyl chloride;4-Acetylaminophenacyl chloride;NSC 768",
    "duplicated_cas_no": "",
    "SMILES": "N(C(C)=O)C1=CC=C(C(CCl)=O)C=C1",
    "meta_data": {
        "InChI": "InChI=1S/C10H10ClNO2/c1-7(13)12-9-4-2-8(3-5-9)10(14)6-11/h2-5H,6H2,1H3,(H,12,13)",
        "InChIKey": null,
        "Canonical SMILES": "O=C(NC1=CC=C(C=C1)C(=O)CCl)C",
        "Molecular Formula": "C<sub>10</sub>H<sub>10</sub>ClNO<sub>2</sub>",
        "Molecular Mass": "211.64",
        "Melting Point": "212 °C"
    }
}