{
    "cas_no": "2986-17-6",
    "key_name": "<em>N</em>,<em>N</em>′-Bis(1-methylethyl)thiourea",
    "cn_name": "N,N\"-二异丙基硫脲; 1,3-二异丙基-2-硫脲;",
    "alternate_name": "Thiourea, <em>N</em>,<em>N</em>′-bis(1-methylethyl)-;Urea, 1,3-diisopropyl-2-thio-;<em>N</em>,<em>N</em>′-Bis(1-methylethyl)thiourea;<em>N</em>,<em>N</em>′-Diisopropylthiourea;1,3-Diisopropylthiourea;Diisopropylthiourea;1,3-Diisopropyl-2-thiourea;NSC 8694;1,3-Di(propan-2-yl)thiourea;1,3-Bis(propan-2-yl)thiourea",
    "duplicated_cas_no": "",
    "SMILES": "N(C(NC(C)C)=S)C(C)C",
    "meta_data": {
        "InChI": "InChI=1S/C7H16N2S/c1-5(2)8-7(10)9-6(3)4/h5-6H,1-4H3,(H2,8,9,10)",
        "InChIKey": null,
        "Canonical SMILES": "S=C(NC(C)C)NC(C)C",
        "Molecular Formula": "C<sub>7</sub>H<sub>16</sub>N<sub>2</sub>S",
        "Molecular Mass": "160.28",
        "Melting Point": "142 °C"
    }
}