{
    "cas_no": "498-45-3",
    "key_name": "Scopine",
    "cn_name": "东莨菪醇;9-甲基-3-氧代-9-氮杂三环[3.3.1.02.4]壬烷-7-醇;",
    "alternate_name": "3-Oxa-9-azatricyclo[3.3.1.0<sup>2,4</sup>]nonan-7-ol, 9-methyl-, (1α,2β,4β,5α,7β)-;Scopine;1α<span class=\"text-smallcaps\">H</smallcap>,5α<smallcap>H</span>-Tropan-3α-ol, 6β,7β-epoxy-;(1α,2β,4β,5α,7β)-9-Methyl-3-oxa-9-azatricyclo[3.3.1.0<sup>2,4</sup>]nonan-7-ol;Scopanol;6,7-Epoxytropine;Scopin",
    "duplicated_cas_no": "",
    "SMILES": "CN1[C@@]2([C@]3([C@](O3)([C@]1(C[C@@H](O)C2)[H])[H])[H])[H]",
    "meta_data": {
        "InChI": "InChI=1/C8H13NO2/c1-9-5-2-4(10)3-6(9)8-7(5)11-8/h4-8,10H,2-3H2,1H3/t4-,5-,6+,7-,8+",
        "InChIKey": null,
        "Canonical SMILES": "OC1CC2N(C)C(C1)C3OC23",
        "Molecular Formula": "C<sub>8</sub>H<sub>13</sub>NO<sub>2</sub>",
        "Molecular Mass": "155.19",
        "Melting Point": "75-76 °C"
    }
}