{
    "cas_no": "3102-00-9",
    "key_name": "1-Butoxy-3-phenoxy-2-propanol",
    "cn_name": "非布丙醇;苯丁氧丙醇;1-丁氧基-3-(苯氧基)丙-2-醇;",
    "alternate_name": "2-Propanol, 1-butoxy-3-phenoxy-;1-Butoxy-3-phenoxy-2-propanol;1-Phenoxy-3-butoxy-2-propanol;3-Butoxy-1-phenoxy-2-propanol;Febuprol;Valbil;Valbilan;H 33;K 10033;NSC 30151",
    "duplicated_cas_no": "",
    "SMILES": "O(CC(COCCCC)O)C1=CC=CC=C1",
    "meta_data": {
        "InChI": "InChI=1S/C13H20O3/c1-2-3-9-15-10-12(14)11-16-13-7-5-4-6-8-13/h4-8,12,14H,2-3,9-11H2,1H3",
        "InChIKey": null,
        "Canonical SMILES": "OC(COC=1C=CC=CC1)COCCCC",
        "Molecular Formula": "C<sub>13</sub>H<sub>20</sub>O<sub>3</sub>",
        "Molecular Mass": "224.30",
        "Boiling Point": "165 °C",
        "Melting Point": "&lt;25 °C",
        "Density": "1.0336 g/cm³ @ Temp: 20 °C"
    }
}