{
    "cas_no": "120-70-7",
    "key_name": "Bis(salicylidene)-1,3-propanediamine",
    "cn_name": "N,N\"-双水杨酸水酯-1,3-二氨基丙烷;N,N\"-二水杨醛-1,3-丙二胺;",
    "alternate_name": "Phenol, 2,2′-[1,3-propanediylbis(nitrilomethylidyne)]bis-;<em>o</em>-Cresol, α,α′-(trimethylenedinitrilo)di-;2,2′-[1,3-Propanediylbis(nitrilomethylidyne)]bis[phenol];Disalicylidenepropanediamine;α,α′-(Trimethylenedinitrilo)di-<em>o</em>-cresol;DSPD;1,3-Bis(<em>o</em>-hydroxybenzylideneamino)propane;Disalicylidene-1,3-propanediamine;<em>N</em>,<em>N</em>′-Bis(salicylidene)-1,3-propylenediamine;<em>N</em>,<em>N</em>′-1,3-Propylenebis(salicylideneamine);1,3-Propanediylbis(salicylaldimine);<em>N</em>,<em>N</em>′-Bis(salicylidene)-1,3-propanediamine;Bis(salicylidene)-1,3-propanediamine;<em>N</em>,<em>N</em>′-Disalicylidene-1,3-diaminopropane;<em>N</em>,<em>N</em>′-Bis(salicylidene)-1,3-diaminopropane;<em>N</em>,<em>N</em>′-Trimethylenebis(salicylaldehyde imine);<em>N</em>,<em>N</em>′-Bis(salicylidene)trimethylenediamine;1,3-Bis(salicylideneamino)propane;NSC 166332;1,3-Bis[[(2-hydroxyphenyl)methylene]amino]propane;1,7-Bis(2-hydroxyphenyl)-2,6-diaza-hepta-1,6-diene;1,3-Diamino-<em>N</em>,<em>N</em>′-bis(salicylidene)propane;Salpn;<em>N</em>,<em>N</em>′-Disalicylidene propane diamine",
    "duplicated_cas_no": "",
    "SMILES": "C(=NCCCN=CC1=C(O)C=CC=C1)C2=C(O)C=CC=C2",
    "meta_data": {
        "InChI": "InChI=1S/C17H18N2O2/c20-16-8-3-1-6-14(16)12-18-10-5-11-19-13-15-7-2-4-9-17(15)21/h1-4,6-9,12-13,20-21H,5,10-11H2",
        "InChIKey": null,
        "Canonical SMILES": "OC=1C=CC=CC1C=NCCCN=CC=2C=CC=CC2O",
        "Molecular Formula": "C<sub>17</sub>H<sub>18</sub>N<sub>2</sub>O<sub>2</sub>",
        "Molecular Mass": "282.34",
        "Melting Point": "52 °C"
    }
}