{
    "cas_no": "5802-60-8",
    "key_name": "1,1-Bis(phenylmethyl)hydrazine",
    "cn_name": "1,1-二苄肼;N,N-二苄肼;",
    "alternate_name": "Hydrazine, 1,1-bis(phenylmethyl)-;Hydrazine, 1,1-dibenzyl-;1,1-Bis(phenylmethyl)hydrazine;1,1-Dibenzylhydrazine;<em>N</em>,<em>N</em>-Dibenzylhydrazine",
    "duplicated_cas_no": "",
    "SMILES": "C(N(CC1=CC=CC=C1)N)C2=CC=CC=C2",
    "meta_data": {
        "InChI": "InChI=1S/C14H16N2/c15-16(11-13-7-3-1-4-8-13)12-14-9-5-2-6-10-14/h1-10H,11-12,15H2",
        "InChIKey": null,
        "Canonical SMILES": "NN(CC=1C=CC=CC1)CC=2C=CC=CC2",
        "Molecular Formula": "C<sub>14</sub>H<sub>16</sub>N<sub>2</sub>",
        "Molecular Mass": "212.29",
        "Boiling Point": "145 °C @ Press: 1 Torr",
        "Melting Point": "65 °C"
    }
}