{
    "cas_no": "3589-73-9",
    "key_name": "6-Methoxyharmalan",
    "cn_name": "6-甲氧基哈马兰;6-甲氧基哈梅蓝;",
    "alternate_name": "3<em>H</em>-Pyrido[3,4-<em>b</em>]indole, 4,9-dihydro-6-methoxy-1-methyl-;4,9-Dihydro-6-methoxy-1-methyl-3<em>H</em>-pyrido[3,4-<em>b</em>]indole;6-Methoxy-1-methyl-3,4-dihydro-β-carboline;6-Methoxyharmalan;6-Methoxyharmalane",
    "duplicated_cas_no": "",
    "SMILES": "O(C)C=1C=C2C3=C(NC2=CC1)C(C)=NCC3",
    "meta_data": {
        "InChI": "InChI=1S/C13H14N2O/c1-8-13-10(5-6-14-8)11-7-9(16-2)3-4-12(11)15-13/h3-4,7,15H,5-6H2,1-2H3",
        "InChIKey": null,
        "Canonical SMILES": "N1=C(C=2NC=3C=CC(OC)=CC3C2CC1)C",
        "Molecular Formula": "C<sub>13</sub>H<sub>14</sub>N<sub>2</sub>O",
        "Molecular Mass": "214.26",
        "Melting Point": "208-209 °C"
    }
}