{
    "cas_no": "7011-83-8",
    "key_name": "5-Hexyldihydro-5-methyl-2(3<em>H</em>)-furanone",
    "cn_name": "二氢茉莉内酯;5-甲基-5-己基-2(3H)-呋喃酮;",
    "alternate_name": "2(3<em>H</em>)-Furanone, 5-hexyldihydro-5-methyl-;Decanoic acid, 4-hydroxy-4-methyl-, γ-lactone;Capric acid, γ-hydroxy-γ-methyl-, lactone;5-Hexyldihydro-5-methyl-2(3<em>H</em>)-furanone;4-Methyldecanolide;γ-Methyl-γ-decalactone;γ-Methyl-γ-decanolactone;4-Methyl-4-decanolide;NSC 141822;Lactojamon;Lactojasmone;5-Hexyl-5-methyldihydrofuran-2(3<em>H</em>)-one",
    "duplicated_cas_no": "124099-86-1",
    "SMILES": "C(CCCCC)C1(C)OC(=O)CC1",
    "meta_data": {
        "InChI": "InChI=1S/C11H20O2/c1-3-4-5-6-8-11(2)9-7-10(12)13-11/h3-9H2,1-2H3",
        "InChIKey": null,
        "Canonical SMILES": "O=C1OC(C)(CC1)CCCCCC",
        "Molecular Formula": "C<sub>11</sub>H<sub>20</sub>O<sub>2</sub>",
        "Molecular Mass": "184.28",
        "Boiling Point": "120-125 °C @ Press: 4-5 Torr",
        "Density": "0.950 g/cm³ @ Temp: 20 °C"
    }
}