{
    "cas_no": "53934-76-2",
    "key_name": "2-Oxo-1-pyrrolidineacetic acid",
    "cn_name": null,
    "alternate_name": "1-Pyrrolidineacetic acid, 2-oxo-;2-Oxo-1-pyrrolidineacetic acid;2-Pyrrolidinoneacetic acid;(2-Oxopyrrolidin-1-yl)acetic acid;2-Pyrrolidinon-1-ylacetic acid",
    "duplicated_cas_no": "",
    "SMILES": "C(C(O)=O)N1C(=O)CCC1",
    "meta_data": {
        "InChI": "InChI=1S/C6H9NO3/c8-5-2-1-3-7(5)4-6(9)10/h1-4H2,(H,9,10)",
        "InChIKey": null,
        "Canonical SMILES": "O=C(O)CN1C(=O)CCC1",
        "Molecular Formula": "C<sub>6</sub>H<sub>9</sub>NO<sub>3</sub>",
        "Molecular Mass": "143.14",
        "Melting Point": "143 °C"
    }
}