{
    "cas_no": "16617-46-2",
    "key_name": "3-Amino-4-cyanopyrazole",
    "cn_name": "3-氨基-4-氰基吡唑;",
    "alternate_name": "1<em>H</em>-Pyrazole-4-carbonitrile, 3-amino-;Pyrazole-4-carbonitrile, 3-amino-;Pyrazole-4-carbonitrile, 3(<em>or</em> 5)-amino-;3-Amino-1<em>H</em>-pyrazole-4-carbonitrile;3-Amino-4-cyanopyrazole;5-Amino-4-cyanopyrazole;3-Amino-4-pyrazolecarbonitrile;5-Amino-4-pyrazolecarbonitrile;3-Aminopyrazol-4-carbonitrile;NSC 44932;(4-Cyano-1<em>H</em>-pyrazol-3-yl)amine;3-Amino-4-cyano-1<em>H</em>-pyrazole;5-Amino-1<em>H</em>-pyrazole-4-carbonitrile;5-Amino-4-cyano-1<em>H</em>-pyrazole;4-Cyano-3-aminopyrazole",
    "duplicated_cas_no": "95470-64-7;99196-22-2;103013-86-1;108443-29-4;134022-72-3;140706-29-2;40234-39-7;50908-45-7;52630-99-6;54381-61-2;72242-75-2;73075-19-1;80509-48-4;81375-80-6;89403-99-6;706823-00-9;749216-52-2;821023-66-9;842170-55-2;862172-63-2;875554-86-2;877833-74-4;145370-88-3;147770-51-2;154180-57-1;159224-07-4;250712-20-0;882231-01-8;924366-17-6;948292-33-9;1017683-96-3;1028842-84-3;1092789-12-2",
    "SMILES": "C(#N)C=1C(N)=NNC1",
    "meta_data": {
        "InChI": "InChI=1S/C4H4N4/c5-1-3-2-7-8-4(3)6/h2H,(H3,6,7,8)",
        "InChIKey": null,
        "Canonical SMILES": "N#CC1=CNN=C1N",
        "Molecular Formula": "C<sub>4</sub>H<sub>4</sub>N<sub>4</sub>",
        "Molecular Mass": "108.10",
        "Melting Point": "174-175 °C"
    }
}