{
    "cas_no": "63136-61-8",
    "key_name": "4-Chloro-7-methylquinoline",
    "cn_name": null,
    "alternate_name": "Quinoline, 4-chloro-7-methyl-;4-Chloro-7-methylquinoline",
    "duplicated_cas_no": "",
    "SMILES": "ClC=1C2=C(C=C(C)C=C2)N=CC1",
    "meta_data": {
        "InChI": "InChI=1S/C10H8ClN/c1-7-2-3-8-9(11)4-5-12-10(8)6-7/h2-6H,1H3",
        "InChIKey": null,
        "Canonical SMILES": "ClC=1C=CN=C2C=C(C=CC12)C",
        "Molecular Formula": "C<sub>10</sub>H<sub>8</sub>ClN",
        "Molecular Mass": "177.63",
        "Boiling Point": "140-142 °C @ Press: 9.5 Torr",
        "Melting Point": "28 °C"
    }
}