{
    "cas_no": "3179-31-5",
    "key_name": "3-Mercapto-1,2,4-triazole",
    "cn_name": "3-巯基-1,2,4-三氮唑;",
    "alternate_name": "3<em>H</em>-1,2,4-Triazole-3-thione, 1,2-dihydro-;<em>s</em>-Triazole-3-thiol;Δ<sup>2</sup>-1,2,4-Triazoline-5-thione;1,2-Dihydro-3<em>H</em>-1,2,4-triazole-3-thione;4<em>H</em>-1,2,4-Triazole-3-thiol;1,2,4-Triazole-3-thiol;5-Mercapto-1,3,4-triazole;ENT 61291;3-Mercapto-1,2,4-triazole;1,3,4-Triazole-2-thiol;1,2,4-Triazole-5-thiol;1<em>H</em>-1,2,4-Triazole-3-thiol;2-Mercapto-1,3,4-triazole;3(5)-Mercapto-1,2,4-triazole;3-Mercapto-4<em>H</em>-1,2,4-triazole;2-Mercapto-1,3,5-triazole;3-Mercapto-<em>s</em>-triazole;1,2,4-triazole-3(5)-thiol;3-MT;3-Mercapto-1<em>H</em>-1,2,4-triazole;NSC 97089;1<em>H</em>-1,2,4-Triazole-5-thiol;2<em>H</em>-1,2,4-Triazole-3-thiol;(4<em>H</em>)-1,2,4-Triazole-2-thiol;1<em>H</em>-1,2,4-Triazole-5(4<em>H</em>)-thione;1,2,4-1<em>H</em>-Triazole-3-thiol;1,2-Dihydro-1,2,4-triazole-3-thione;2,4-Dihydro-[1,2,4]triazole-3-thione",
    "duplicated_cas_no": "7271-43-4;17357-98-1;51099-88-8",
    "SMILES": "S=C1NC=NN1",
    "meta_data": {
        "InChI": "InChI=1S/C2H3N3S/c6-2-3-1-4-5-2/h1H,(H2,3,4,5,6)",
        "InChIKey": null,
        "Canonical SMILES": "S=C1NN=CN1",
        "Molecular Formula": "C<sub>2</sub>H<sub>3</sub>N<sub>3</sub>S",
        "Molecular Mass": "101.13",
        "Melting Point": "216 °C"
    }
}