{
    "cas_no": "3840-30-0",
    "key_name": "3,4,5-Trimethoxybenzyl chloride",
    "cn_name": "3,4,5-三甲氧基苄氯;",
    "alternate_name": "Benzene, 5-(chloromethyl)-1,2,3-trimethoxy-;Toluene, α-chloro-3,4,5-trimethoxy-;5-(Chloromethyl)-1,2,3-trimethoxybenzene;3,4,5-Trimethoxybenzyl chloride;NSC 100940;1-(Chloromethyl)-3,4,5-trimethoxybenzene",
    "duplicated_cas_no": "",
    "SMILES": "O(C)C1=C(OC)C=C(CCl)C=C1OC",
    "meta_data": {
        "InChI": "InChI=1S/C10H13ClO3/c1-12-8-4-7(6-11)5-9(13-2)10(8)14-3/h4-5H,6H2,1-3H3",
        "InChIKey": null,
        "Canonical SMILES": "ClCC1=CC(OC)=C(OC)C(OC)=C1",
        "Molecular Formula": "C<sub>10</sub>H<sub>13</sub>ClO<sub>3</sub>",
        "Molecular Mass": "216.66",
        "Boiling Point": "110 °C @ Press: 0.1 Torr",
        "Melting Point": "60-62 °C"
    }
}