{
    "cas_no": "6872-06-6",
    "key_name": "2-Methylindoline",
    "cn_name": null,
    "alternate_name": "1<em>H</em>-Indole, 2,3-dihydro-2-methyl-;Indoline, 2-methyl-;2,3-Dihydro-2-methyl-1<em>H</em>-indole;2-Methylindoline;2-Methyl-2,3-dihydroindole;2,3-Dihydro-2-methylindole;α-Methyldihydroindole;NSC 65598;2-Methyl-2,3-dihydro-1<em>H</em>-indole;2-Methyl-1<em>H</em>-indoline;(±)-2-Methylindoline",
    "duplicated_cas_no": "138380-84-4",
    "SMILES": "CC1CC=2C(N1)=CC=CC2",
    "meta_data": {
        "InChI": "InChI=1S/C9H11N/c1-7-6-8-4-2-3-5-9(8)10-7/h2-5,7,10H,6H2,1H3",
        "InChIKey": null,
        "Canonical SMILES": "C=1C=CC2=C(C1)NC(C)C2",
        "Molecular Formula": "C<sub>9</sub>H<sub>11</sub>N",
        "Molecular Mass": "133.19",
        "Boiling Point": "115-117 °C @ Press: 18 Torr",
        "Melting Point": "60.0-61.0 °C"
    }
}