{
    "cas_no": "719-64-2",
    "key_name": "5-Chloro-3-phenyl-2,1-benzisoxazole",
    "cn_name": null,
    "alternate_name": "2,1-Benzisoxazole, 5-chloro-3-phenyl-;5-Chloro-3-phenyl-2,1-benzisoxazole;3-Phenyl-5-chloro-2,1-benzisoxazole;5-Chloro-3-phenylanthranil;3-Phenyl-5-chloroanthranil;5-Chloro-3-phenylbenz[<em>c</em>]isoxazole;5-Chloro-3-phenyl-2,1-benzisoxazoles;NSC 405896;5-Chloro-3-phenylbenzo[<em>c</em>]isoxazole",
    "duplicated_cas_no": "",
    "SMILES": "ClC1=CC2=C(ON=C2C=C1)C3=CC=CC=C3",
    "meta_data": {
        "InChI": "InChI=1S/C13H8ClNO/c14-10-6-7-12-11(8-10)13(16-15-12)9-4-2-1-3-5-9/h1-8H",
        "InChIKey": null,
        "Canonical SMILES": "ClC=1C=CC2=NOC(C=3C=CC=CC3)=C2C1",
        "Molecular Formula": "C<sub>13</sub>H<sub>8</sub>ClNO",
        "Molecular Mass": "229.66",
        "Melting Point": "115-117 °C"
    }
}