{
    "cas_no": "2114-02-5",
    "key_name": "Amidinothiourea",
    "cn_name": "脒基硫脲;",
    "alternate_name": "Thiourea, <em>N</em>-(aminoiminomethyl)-;Urea, 1-amidino-2-thio-;Thiourea, (aminoiminomethyl)-;<em>N</em>-(Aminoiminomethyl)thiourea;Guanylthiourea;Gutimine;Thiodicyanodiamidine;1-Amidino-2-thiourea;1-Amidinothiourea;Guthimin;ASU;<em>N</em>-Amidinothiourea;Amidinothiourea;<em>N</em>-(Diaminomethylene)thiourea;Amino[[amino(imino)methyl]amino]thioxomethane;2-Imino-4-thiobiuret;NSC 55743;(Diaminomethylidene)thiourea;1-(Diaminomethylene)thiourea",
    "duplicated_cas_no": "14945-91-6;168971-57-1",
    "SMILES": "N(C(=N)N)C(N)=S",
    "meta_data": {
        "InChI": "InChI=1S/C2H6N4S/c3-1(4)6-2(5)7/h(H6,3,4,5,6,7)",
        "InChIKey": null,
        "Canonical SMILES": "S=C(N)NC(=N)N",
        "Molecular Formula": "C<sub>2</sub>H<sub>6</sub>N<sub>4</sub>S",
        "Molecular Mass": "118.16",
        "Melting Point": "170-172 °C (decomp)"
    }
}