{
    "cas_no": "156-57-0",
    "key_name": "Cysteamine hydrochloride",
    "cn_name": "半胱胺盐酸盐;盐酸半胱氨;beta-巯基乙胺盐酸盐;",
    "alternate_name": "Ethanethiol, 2-amino-, hydrochloride (1:1);Ethanethiol, 2-amino-, hydrochloride;Cysteamine hydrochloride;2-Mercaptoethylamine hydrochloride;2-Aminoethanethiol hydrochloride;2-Mercaptoethylammonium chloride;Merkamin hydrochloride;Mercamine hydrochloride;Cysteaminium chloride;Cysteinamine hydrochloride;Cysteamine chlorohydrate;1-Amino-2-mercaptoethane hydrochloride;β-Mercaptoethylamine hydrochloride;2-Thioethylamine hydrochloride;CI 9148;2-Mercaptoethanamine hydrochloride;2-Aminoethanthiol hydrochloride;CT 2000;Lynovex;2-Mercaptoethanaminium chloride;2-Aminoethane-1-thiol hydrochloride;Cystadrops;CA 75A",
    "duplicated_cas_no": "116962-86-8;2022216-63-1",
    "SMILES": "C(CS)N.Cl",
    "meta_data": {
        "InChI": "InChI=1S/C2H7NS.ClH/c3-1-2-4;/h4H,1-3H2;1H",
        "InChIKey": null,
        "Canonical SMILES": "Cl.SCCN",
        "Molecular Formula": "C<sub>2</sub>H<sub>7</sub>NS.ClH",
        "Molecular Mass": "",
        "Melting Point": "70.2-70.7 °C"
    }
}