{
    "cas_no": "4444-26-2",
    "key_name": "Hexaaminobenzene",
    "cn_name": null,
    "alternate_name": "1,2,3,4,5,6-Benzenehexamine;Benzenehexamine;Benzene, hexaamino-;Hexaaminobenzene",
    "duplicated_cas_no": "",
    "SMILES": "NC1=C(N)C(N)=C(N)C(N)=C1N",
    "meta_data": {
        "InChI": "InChI=1S/C6H12N6/c7-1-2(8)4(10)6(12)5(11)3(1)9/h7-12H2",
        "InChIKey": null,
        "Canonical SMILES": "NC=1C(N)=C(N)C(N)=C(N)C1N",
        "Molecular Formula": "C<sub>6</sub>H<sub>12</sub>N<sub>6</sub>",
        "Molecular Mass": "168.20",
        "Melting Point": "255 °C (decomp)"
    }
}