{
    "cas_no": "64297-64-9",
    "key_name": "2-Iodoxybenzoic acid",
    "cn_name": "2-碘酰苯甲酸;",
    "alternate_name": "Benzoic acid, 2-iodyl-;Benzoic acid, <em>o</em>-iodoxy-;2-Iodylbenzoic acid;2-Iodoxybenzoic acid;<em>o</em>-Iodoxybenzoic acid;IBX;SIBX",
    "duplicated_cas_no": "173029-05-5",
    "SMILES": "C(O)(=O)C1=C(I(=O)=O)C=CC=C1",
    "meta_data": {
        "InChI": "InChI=1S/C7H5IO4/c9-7(10)5-3-1-2-4-6(5)8(11)12/h1-4H,(H,9,10)",
        "InChIKey": null,
        "Canonical SMILES": "O=C(O)C=1C=CC=CC1I(=O)=O",
        "Molecular Formula": "C<sub>7</sub>H<sub>5</sub>IO<sub>4</sub>",
        "Molecular Mass": "280.02",
        "Boiling Point": "153 °C @ Press: 760 Torr",
        "Melting Point": "222 °C (decomp)"
    }
}