{
    "cas_no": "63701-55-3",
    "key_name": "Benzenepropanoic acid, β-(aminomethyl)-4-chloro-, hydrochloride (1:1), (β<em>R</em>)-",
    "cn_name": "R(+)-巴氯芬盐酸盐;",
    "alternate_name": "Benzenepropanoic acid, β-(aminomethyl)-4-chloro-, hydrochloride (1:1), (β<em>R</em>)-;Benzenepropanoic acid, β-(aminomethyl)-4-chloro-, hydrochloride, (<em>R</em>)-;Benzenepropanoic acid, β-(aminomethyl)-4-chloro-, hydrochloride, (β<em>R</em>)-;<em>d</em>-Baclofen hydrochloride;(+)-Baclofen hydrochloride;(<em>R</em>)-Baclofen monohydrochloride;<em>R</em>-Baclofen hydrochloride;(<em>R</em>)-4-Amino-3-(4-chlorophenyl)butyric acid hydrochloride;(<em>R</em>)-4-Amino-3-(4-chlorophenyl)butanoic acid hydrochloride",
    "duplicated_cas_no": "2375745-80-3",
    "SMILES": "[C@H](CC(O)=O)(CN)C1=CC=C(Cl)C=C1.Cl",
    "meta_data": {
        "InChI": "InChI=1S/C10H12ClNO2.ClH/c11-9-3-1-7(2-4-9)8(6-12)5-10(13)14;/h1-4,8H,5-6,12H2,(H,13,14);1H/t8-;/m0./s1",
        "InChIKey": null,
        "Canonical SMILES": "Cl.O=C(O)CC(C1=CC=C(Cl)C=C1)CN",
        "Molecular Formula": "C<sub>10</sub>H<sub>12</sub>ClNO<sub>2</sub>.ClH",
        "Molecular Mass": "",
        "Melting Point": "194-195 °C"
    }
}