{
    "cas_no": "105728-90-3",
    "key_name": "2-Fluoro-5-methoxybenzaldehyde",
    "cn_name": "2-氟-5-甲氧基苯甲醛;",
    "alternate_name": "Benzaldehyde, 2-fluoro-5-methoxy-;2-Fluoro-5-methoxybenzaldehyde",
    "duplicated_cas_no": "",
    "SMILES": "C(=O)C1=CC(OC)=CC=C1F",
    "meta_data": {
        "InChI": "InChI=1S/C8H7FO2/c1-11-7-2-3-8(9)6(4-7)5-10/h2-5H,1H3",
        "InChIKey": null,
        "Canonical SMILES": "O=CC1=CC(OC)=CC=C1F",
        "Molecular Formula": "C<sub>8</sub>H<sub>7</sub>FO<sub>2</sub>",
        "Molecular Mass": "154.14",
        "Melting Point": "48-50 °C"
    }
}