{
    "cas_no": "3875-51-2",
    "key_name": "Isopropylcyclopentane",
    "cn_name": "异丙环戊烷;异丙基环戊烷;",
    "alternate_name": "Cyclopentane, (1-methylethyl)-;Cyclopentane, isopropyl-;(1-Methylethyl)cyclopentane;Isopropylcyclopentane;Propane, 2-cyclopentyl-;NSC 73948;(Propan-2-yl)cyclopentane",
    "duplicated_cas_no": "",
    "SMILES": "C(C)(C)C1CCCC1",
    "meta_data": {
        "InChI": "InChI=1S/C8H16/c1-7(2)8-5-3-4-6-8/h7-8H,3-6H2,1-2H3",
        "InChIKey": null,
        "Canonical SMILES": "CC(C)C1CCCC1",
        "Molecular Formula": "C<sub>8</sub>H<sub>16</sub>",
        "Molecular Mass": "112.21",
        "Boiling Point": "126.5 °C",
        "Melting Point": "-111.4 °C",
        "Density": "0.7717 g/cm³ @ Temp: 20 °C"
    }
}