{
    "cas_no": "3022-16-0",
    "key_name": "Bis(chloromethyl)durene",
    "cn_name": null,
    "alternate_name": "Benzene, 1,4-bis(chloromethyl)-2,3,5,6-tetramethyl-;1,4-Bis(chloromethyl)-2,3,5,6-tetramethylbenzene;Bis(chloromethyl)durene;3,6-Bis(chloromethyl)durene;2,3,5,6-Tetramethyl-<em>p</em>-dichloroxylylene;1,4-Bis(chloromethyl)durene;1,4-Bis(chloromethyl)tetramethylbenzene;2,3,5,6-Tetramethyl-<em>p</em>-xylylene dichloride;NSC 93952;1,2,4,5-Tetramethyl-3,6-bis(chloromethyl)benzene",
    "duplicated_cas_no": "",
    "SMILES": "C(Cl)C1=C(C)C(C)=C(CCl)C(C)=C1C",
    "meta_data": {
        "InChI": "InChI=1S/C12H16Cl2/c1-7-8(2)12(6-14)10(4)9(3)11(7)5-13/h5-6H2,1-4H3",
        "InChIKey": null,
        "Canonical SMILES": "ClCC1=C(C(=C(C(=C1C)C)CCl)C)C",
        "Molecular Formula": "C<sub>12</sub>H<sub>16</sub>Cl<sub>2</sub>",
        "Molecular Mass": "231.16",
        "Melting Point": "193-194 °C",
        "Density": "1.30 g/cm³"
    }
}