{
    "cas_no": "59558-23-5",
    "key_name": "4-Methylphenyl octanoate",
    "cn_name": "辛酸-4-甲基苯酯;",
    "alternate_name": "Octanoic acid, 4-methylphenyl ester;Octanoic acid, <em>p</em>-tolyl ester;Caprylic acid, <em>p</em>-tolyl ester;4-Methylphenyl octanoate;<em>p</em>-Cresyl octanoate;<em>p</em>-Cresyl caprylate;NSC 24727;<em>p</em>-Cresyl <em>n</em>-octanoate;(4-Methylphenyl) octanoate",
    "duplicated_cas_no": "",
    "SMILES": "O(C(CCCCCCC)=O)C1=CC=C(C)C=C1",
    "meta_data": {
        "InChI": "InChI=1S/C15H22O2/c1-3-4-5-6-7-8-15(16)17-14-11-9-13(2)10-12-14/h9-12H,3-8H2,1-2H3",
        "InChIKey": null,
        "Canonical SMILES": "O=C(OC1=CC=C(C=C1)C)CCCCCCC",
        "Molecular Formula": "C<sub>15</sub>H<sub>22</sub>O<sub>2</sub>",
        "Molecular Mass": "234.33",
        "Boiling Point": "163-165 °C @ Press: 10 Torr",
        "Density": "0.957 g/cm³ @ Temp: 25 °C"
    }
}