{
    "cas_no": "934-32-7",
    "key_name": "2-Aminobenzimidazole",
    "cn_name": "2-氨基苯并咪唑;",
    "alternate_name": "1<em>H</em>-Benzimidazol-2-amine;Benzimidazole, 2-amino-;2-Aminobenzimidazole;2-Iminobenzimidazoline;2-Benzimidazolamine;2-AB;2-Amino-1<em>H</em>-benzimidazole;2-Benzimidazolylamine;1<em>H</em>-Benzimidazol-2-ylamine;NSC 27793;NSC 7628;A 0850;2-Aminobenzoimidazole;1<em>H</em>-1,3-Benzodiazol-2-amine;1<em>H</em>-Benzoimidazol-2-ylamine;1<em>H</em>-Benzo[<em>d</em>]imidazole-2-amine",
    "duplicated_cas_no": "144704-99-4",
    "SMILES": "NC=1NC=2C(N1)=CC=CC2",
    "meta_data": {
        "InChI": "InChI=1S/C7H7N3/c8-7-9-5-3-1-2-4-6(5)10-7/h1-4H,(H3,8,9,10)",
        "InChIKey": null,
        "Canonical SMILES": "N1=C(N)NC=2C=CC=CC12",
        "Molecular Formula": "C<sub>7</sub>H<sub>7</sub>N<sub>3</sub>",
        "Molecular Mass": "133.15",
        "Melting Point": "229-231 °C"
    }
}