{
    "cas_no": "3584-23-4",
    "key_name": "2-(<em>p</em>-Methoxyphenyl)-4,6-bis(trichloromethyl)-<em>s</em>-triazine",
    "cn_name": "2-(4-甲氧基苯基)-4,6-双(三氯甲基)-S-三嗪;",
    "alternate_name": "1,3,5-Triazine, 2-(4-methoxyphenyl)-4,6-bis(trichloromethyl)-;<em>s</em>-Triazine, 2-(<em>p</em>-methoxyphenyl)-4,6-bis(trichloromethyl)-;2-(4-Methoxyphenyl)-4,6-bis(trichloromethyl)-1,3,5-triazine;2,6-Bis(trichloromethyl)-4-(4-methoxyphenyl)-1,3,5-triazine;2-(<em>p</em>-Methoxyphenyl)-4,6-bis(trichloromethyl)-<em>s</em>-triazine;XL 353;2-(<em>p</em>-Methoxyphenyl)-4,6-bis(trichloromethyl)-1,3,5-triazine;2-(4-Methoxyphenyl)-4,6-bis(trichloromethyl)-<em>s</em>-triazine;TAZ 104;2,4-Bis(trichloromethyl)-6-(4-methoxyphenyl)-<em>s</em>-triazine;2,4-Bis(Trichloromethyl)-6-(4-methoxyphenyl)-1,3,5-triazine;MP-Triazine;2,4-Bis(trichloromethyl)-6-<em>p</em>-methoxyphenyl-<em>s</em>-triazine",
    "duplicated_cas_no": "",
    "SMILES": "C(Cl)(Cl)(Cl)C1=NC(=NC(C(Cl)(Cl)Cl)=N1)C2=CC=C(OC)C=C2",
    "meta_data": {
        "InChI": "InChI=1S/C12H7Cl6N3O/c1-22-7-4-2-6(3-5-7)8-19-9(11(13,14)15)21-10(20-8)12(16,17)18/h2-5H,1H3",
        "InChIKey": null,
        "Canonical SMILES": "ClC(Cl)(Cl)C1=NC(=NC(=N1)C(Cl)(Cl)Cl)C=2C=CC(OC)=CC2",
        "Molecular Formula": "C<sub>12</sub>H<sub>7</sub>Cl<sub>6</sub>N<sub>3</sub>O",
        "Molecular Mass": "421.92",
        "Melting Point": "144 °C"
    }
}