{
    "cas_no": "19112-35-7",
    "key_name": "Ethyl 2-chloro-β-oxobenzenepropanoate",
    "cn_name": "(2-氯苯甲酰)乙酸乙酯;",
    "alternate_name": "Benzenepropanoic acid, 2-chloro-β-oxo-, ethyl ester;Acetic acid, (<em>o</em>-chlorobenzoyl)-, ethyl ester;Ethyl 2-chloro-β-oxobenzenepropanoate;Ethyl (<em>o</em>-chlorobenzoyl)acetate;Ethyl (2-chlorobenzoyl)acetate;NSC 158136;Ethyl 3-(2-chlorophenyl)-3-oxopropanoate;Ethyl 2-(2-chlorobenzoyl)acetate;3-(2-Chlorophenyl)-3-oxopropionic acid ethyl ester",
    "duplicated_cas_no": "",
    "SMILES": "C(CC(OCC)=O)(=O)C1=C(Cl)C=CC=C1",
    "meta_data": {
        "InChI": "InChI=1S/C11H11ClO3/c1-2-15-11(14)7-10(13)8-5-3-4-6-9(8)12/h3-6H,2,7H2,1H3",
        "InChIKey": null,
        "Canonical SMILES": "O=C(OCC)CC(=O)C=1C=CC=CC1Cl",
        "Molecular Formula": "C<sub>11</sub>H<sub>11</sub>ClO<sub>3</sub>",
        "Molecular Mass": "226.66",
        "Boiling Point": "&gt;200 °C"
    }
}