{
    "cas_no": "20426-12-4",
    "key_name": "4-Hydroxychalcone",
    "cn_name": null,
    "alternate_name": "2-Propen-1-one, 3-(4-hydroxyphenyl)-1-phenyl-;Chalcone, 4-hydroxy-;3-(4-Hydroxyphenyl)-1-phenyl-2-propen-1-one;4-Hydroxychalcone;4-Hydroxystyryl phenyl ketone;(4-Hydroxybenzylidene)acetophenone;(4-Hydroxybenzal)acetophenone;1-Phenyl-3-(4-hydroxyphenyl)-2-propen-1-one;NSC 60593;<em>p</em>-Hydroxychalcone",
    "duplicated_cas_no": "",
    "SMILES": "C(C=CC1=CC=C(O)C=C1)(=O)C2=CC=CC=C2",
    "meta_data": {
        "InChI": "InChI=1S/C15H12O2/c16-14-9-6-12(7-10-14)8-11-15(17)13-4-2-1-3-5-13/h1-11,16H",
        "InChIKey": null,
        "Canonical SMILES": "O=C(C=CC1=CC=C(O)C=C1)C=2C=CC=CC2",
        "Molecular Formula": "C<sub>15</sub>H<sub>12</sub>O<sub>2</sub>",
        "Molecular Mass": "224.25",
        "Melting Point": "183-184 °C"
    }
}