{
    "cas_no": "23906-97-0",
    "key_name": "Phosphonium, tetraoctyl-, bromide (1:1)",
    "cn_name": "四正辛基溴化膦;",
    "alternate_name": "Phosphonium, tetraoctyl-, bromide (1:1);Phosphonium, tetraoctyl-, bromide;Tetraoctylphosphonium bromide;Cyphos IL 166;Cyphos 166",
    "duplicated_cas_no": "",
    "SMILES": "[P+](CCCCCCCC)(CCCCCCCC)(CCCCCCCC)CCCCCCCC.[Br-]",
    "meta_data": {
        "InChI": "InChI=1S/C32H68P.BrH/c1-5-9-13-17-21-25-29-33(30-26-22-18-14-10-6-2,31-27-23-19-15-11-7-3)32-28-24-20-16-12-8-4;/h5-32H2,1-4H3;1H/q+1;/p-1",
        "InChIKey": null,
        "Canonical SMILES": "[Br-].CCCCCCCC[P+](CCCCCCCC)(CCCCCCCC)CCCCCCCC",
        "Molecular Formula": "C<sub>32</sub>H<sub>68</sub>P.Br",
        "Molecular Mass": "",
        "Melting Point": "42.0 °C"
    }
}