{
    "cas_no": "92977-45-2",
    "key_name": "4-Bromo-2-chlorothiazole",
    "cn_name": null,
    "alternate_name": "Thiazole, 4-bromo-2-chloro-;4-Bromo-2-chlorothiazole",
    "duplicated_cas_no": "",
    "SMILES": "BrC=1N=C(Cl)SC1",
    "meta_data": {
        "InChI": "InChI=1S/C3HBrClNS/c4-2-1-7-3(5)6-2/h1H",
        "InChIKey": null,
        "Canonical SMILES": "ClC1=NC(Br)=CS1",
        "Molecular Formula": "C<sub>3</sub>HBrClNS",
        "Molecular Mass": "198.47",
        "Melting Point": "59-60 °C"
    }
}