{
    "cas_no": "33842-16-9",
    "key_name": "Methyl 1,3-benzodioxole-4-carboxylate",
    "cn_name": "苯并-1,3-二氧戊环-4-甲酸甲酯;1,3-苯并二恶茂-4-甲酸甲酯;",
    "alternate_name": "1,3-Benzodioxole-4-carboxylic acid, methyl ester;Benzoic acid, 2,3-(methylenedioxy)-, methyl ester;Methyl 1,3-benzodioxole-4-carboxylate;Methyl 2,3-methylenedioxybenzoate;NSC 146459;1,3-Benzodioxol-4-carboxylic acid methyl ester",
    "duplicated_cas_no": "",
    "SMILES": "C(OC)(=O)C1=C2C(=CC=C1)OCO2",
    "meta_data": {
        "InChI": "InChI=1S/C9H8O4/c1-11-9(10)6-3-2-4-7-8(6)13-5-12-7/h2-4H,5H2,1H3",
        "InChIKey": null,
        "Canonical SMILES": "O=C(OC)C=1C=CC=C2OCOC21",
        "Molecular Formula": "C<sub>9</sub>H<sub>8</sub>O<sub>4</sub>",
        "Molecular Mass": "180.16",
        "Melting Point": "55-56 °C"
    }
}