{
    "cas_no": "24544-04-5",
    "key_name": "2,6-Diisopropylaniline",
    "cn_name": "2,6-二异丙基苯胺;",
    "alternate_name": "Benzenamine, 2,6-bis(1-methylethyl)-;Aniline, 2,6-diisopropyl-;2,6-Bis(1-methylethyl)benzenamine;2,6-Diisopropylaniline;2,6-Diisopropylphenylamine;2,6-Bis(1-methylethyl)aniline;<em>N</em>-(2,6-Diisopropylphenyl)amine;2,6-Di(propan-2-yl)aniline;2,6-Bis(propan-2-yl)aniline;2,6-Diisopropylamine",
    "duplicated_cas_no": "",
    "SMILES": "C(C)(C)C1=C(N)C(C(C)C)=CC=C1",
    "meta_data": {
        "InChI": "InChI=1S/C12H19N/c1-8(2)10-6-5-7-11(9(3)4)12(10)13/h5-9H,13H2,1-4H3",
        "InChIKey": null,
        "Canonical SMILES": "NC=1C(=CC=CC1C(C)C)C(C)C",
        "Molecular Formula": "C<sub>12</sub>H<sub>19</sub>N",
        "Molecular Mass": "177.29",
        "Boiling Point": "257 °C",
        "Melting Point": "-45 °C"
    }
}