{
    "cas_no": "82692-44-2",
    "key_name": "Benzofenap",
    "cn_name": "吡草酮;2-[4-(2,4-二氯-间-甲苯酰基)-1,3-二甲基吡唑-5-基氧]-4\"-甲基苯乙酮;",
    "alternate_name": "Ethanone, 2-[[4-(2,4-dichloro-3-methylbenzoyl)-1,3-dimethyl-1<em>H</em>-pyrazol-5-yl]oxy]-1-(4-methylphenyl)-;2-[[4-(2,4-Dichloro-3-methylbenzoyl)-1,3-dimethyl-1<em>H</em>-pyrazol-5-yl]oxy]-1-(4-methylphenyl)ethanone;Benzofenap;MY 71;Yukawide;MY 98",
    "duplicated_cas_no": "137658-66-3",
    "SMILES": "C(=O)(C1=C(OCC(=O)C2=CC=C(C)C=C2)N(C)N=C1C)C3=C(Cl)C(C)=C(Cl)C=C3",
    "meta_data": {
        "InChI": "InChI=1S/C22H20Cl2N2O3/c1-12-5-7-15(8-6-12)18(27)11-29-22-19(14(3)25-26(22)4)21(28)16-9-10-17(23)13(2)20(16)24/h5-10H,11H2,1-4H3",
        "InChIKey": null,
        "Canonical SMILES": "O=C(C1=CC=C(Cl)C(=C1Cl)C)C=2C(=NN(C2OCC(=O)C3=CC=C(C=C3)C)C)C",
        "Molecular Formula": "C<sub>22</sub>H<sub>20</sub>Cl<sub>2</sub>N<sub>2</sub>O<sub>3</sub>",
        "Molecular Mass": "431.31",
        "Melting Point": "133.3 °C"
    }
}