{
    "cas_no": "7790-62-7",
    "key_name": "Potassium pyrosulfate",
    "cn_name": "焦硫酸钾;",
    "alternate_name": "Disulfuric acid, potassium salt (1:2);Pyrosulfuric acid, dipotassium salt;Disulfuric acid, dipotassium salt;Potassium pyrosulfate (K<sub>2</sub>S<sub>2</sub>O<sub>7</sub>);Dipotassium pyrosulfate;Potassium pyrosulfate;Potassium disulfate;Dipotassium disulfate;Potassium sulfate (K<sub>2</sub>S<sub>2</sub>O<sub>7</sub>);Potassium disulfate (K<sub>2</sub>S<sub>2</sub>O<sub>7</sub>)",
    "duplicated_cas_no": "",
    "SMILES": "O(S(=O)(=O)O)S(=O)(=O)O.[K]",
    "meta_data": {
        "InChI": "InChI=1S/2K.H2O7S2/c;;1-8(2,3)7-9(4,5)6/h;;(H,1,2,3)(H,4,5,6)",
        "InChIKey": null,
        "Canonical SMILES": "[K].O=S(=O)(O)OS(=O)(=O)O",
        "Molecular Formula": "H<sub>2</sub>O<sub>7</sub>S<sub>2</sub>.2K",
        "Molecular Mass": "",
        "Melting Point": "335 °C"
    }
}