{
    "cas_no": "1123-93-9",
    "key_name": "5-Benzothiazolamine",
    "cn_name": "1,3-苯并噻唑-5-胺;1,3-苯并噻唑-5-胺;",
    "alternate_name": "5-Benzothiazolamine;Benzothiazole, 5-amino-;5-Aminobenzothiazole;NSC 170655;1,3-Benzothiazol-5-amine;Benzo[<em>d</em>]thiazol-5-amine",
    "duplicated_cas_no": "",
    "SMILES": "NC=1C=C2C(=CC1)SC=N2",
    "meta_data": {
        "InChI": "InChI=1S/C7H6N2S/c8-5-1-2-7-6(3-5)9-4-10-7/h1-4H,8H2",
        "InChIKey": null,
        "Canonical SMILES": "N1=CSC=2C=CC(N)=CC12",
        "Molecular Formula": "C<sub>7</sub>H<sub>6</sub>N<sub>2</sub>S",
        "Molecular Mass": "150.20",
        "Melting Point": "74-75 °C"
    }
}