{
    "cas_no": "614-86-8",
    "key_name": "2,4-Dihydroxycinnamic acid",
    "cn_name": null,
    "alternate_name": "2-Propenoic acid, 3-(2,4-dihydroxyphenyl)-;Cinnamic acid, 2,4-dihydroxy-;3-(2,4-Dihydroxyphenyl)-2-propenoic acid;Umbellic acid;2,4-Dihydroxycinnamic acid;3-(2,4-Dihydroxyphenyl)acrylic acid",
    "duplicated_cas_no": "",
    "SMILES": "C(=CC(O)=O)C1=C(O)C=C(O)C=C1",
    "meta_data": {
        "InChI": "InChI=1S/C9H8O4/c10-7-3-1-6(8(11)5-7)2-4-9(12)13/h1-5,10-11H,(H,12,13)",
        "InChIKey": null,
        "Canonical SMILES": "O=C(O)C=CC1=CC=C(O)C=C1O",
        "Molecular Formula": "C<sub>9</sub>H<sub>8</sub>O<sub>4</sub>",
        "Molecular Mass": "180.16",
        "Melting Point": "240 °C (decomp)"
    }
}