{
    "cas_no": "16484-77-8",
    "key_name": "(+)-Mecoprop",
    "cn_name": "高2-甲-4-氯丙酸;",
    "alternate_name": "Propanoic acid, 2-(4-chloro-2-methylphenoxy)-, (2<em>R</em>)-;Propionic acid, 2-[(4-chloro-<em>o</em>-tolyl)oxy]-, (+)-;Propanoic acid, 2-(4-chloro-2-methylphenoxy)-, (<em>R</em>)-;(2<em>R</em>)-2-(4-Chloro-2-methylphenoxy)propanoic acid;(+)-2-(4-Chloro-2-methylphenoxy)propionic acid;(+)-2-(4-Chloro-<em>o</em>-tolyloxy)propionic acid;(+)-MCPP;Mecoprop-P;(+)-2-(4-Chloro-2-methylphenoxy)propanoic acid;Duplosan;(<em>R</em>)-(+)-Mecoprop;(+)-Mecoprop;(<em>R</em>)-Mecoprop;(<em>R</em>)-2-(4-Chloro-2-methylphenoxy)propionate;(<em>R</em>)-2-(4-Chloro-o-tolyloxy)propionic acid;Ipponjime Ekizai;(+)-(<em>R</em>)-2-(4-Chloro-2-methylphenoxy)propionic acid;(2R)-2-(4-Chloro-2-methylphenoxy)propanoic acid;CMPP-P;MCPP-P;Mechlorprop-P;RP 591066",
    "duplicated_cas_no": "18221-59-5;94596-45-9",
    "SMILES": "O([C@@H](C(O)=O)C)C1=C(C)C=C(Cl)C=C1",
    "meta_data": {
        "InChI": "InChI=1S/C10H11ClO3/c1-6-5-8(11)3-4-9(6)14-7(2)10(12)13/h3-5,7H,1-2H3,(H,12,13)/t7-/m1/s1",
        "InChIKey": null,
        "Canonical SMILES": "O=C(O)C(OC1=CC=C(Cl)C=C1C)C",
        "Molecular Formula": "C<sub>10</sub>H<sub>11</sub>ClO<sub>3</sub>",
        "Molecular Mass": "214.65",
        "Melting Point": "95 °C"
    }
}