{
    "cas_no": "116229-43-7",
    "key_name": "<em>N</em>-(1,3-Dimethylbutylidene)-3-(triethoxysilyl)-1-propanamine",
    "cn_name": null,
    "alternate_name": "1-Propanamine, <em>N</em>-(1,3-dimethylbutylidene)-3-(triethoxysilyl)-;<em>N</em>-(1,3-Dimethylbutylidene)-3-(triethoxysilyl)-1-propanamine;S 340;X 12-817H;Sila-Ace S 340;KBE 9103;3-Triethoxysilyl-<em>N</em>-(1,3-dimethylbutylidene)propylamine;<em>N</em>-(1,3-Dimethylbutylidene)-3-(triethoxysilyl)-1-propaneamine;3-[(1,3-Dimethylbutylidene)amino]propyltriethoxysilane;<em>N</em>-(1,3-Dimethylbutylidene)-3-aminopropyltriethoxysilane;3-Triethoxysilyl-(1,3-dimethylbutylidene)propylamine;(5,7-Dimethyl-4-aza-4-octen-1-yl)triethoxysilane;X 12-807H;Dynamar RC 5125;KBE 9103P;SID 4068.0;[3-[(4-Methylpentan-2-ylidene)amino]propyl]triethoxysilane;Dynasylan VPS 1262",
    "duplicated_cas_no": "1192265-10-3;2334305-94-9",
    "SMILES": "[Si](CCCN=C(CC(C)C)C)(OCC)(OCC)OCC",
    "meta_data": {
        "InChI": "InChI=1S/C15H33NO3Si/c1-7-17-20(18-8-2,19-9-3)12-10-11-16-15(6)13-14(4)5/h14H,7-13H2,1-6H3",
        "InChIKey": null,
        "Canonical SMILES": "N(=C(C)CC(C)C)CCC[Si](OCC)(OCC)OCC",
        "Molecular Formula": "C<sub>15</sub>H<sub>33</sub>NO<sub>3</sub>Si",
        "Molecular Mass": "303.51",
        "Boiling Point": "134 °C @ Press: 5 Torr",
        "Density": "0.93 g/cm³"
    }
}