{
    "cas_no": "403-32-7",
    "key_name": "(4-Fluorophenyl)glyoxal",
    "cn_name": "4-氟代苯甲酰甲醛一水;",
    "alternate_name": "Benzeneacetaldehyde, 4-fluoro-α-oxo-;Glyoxal, (<em>p</em>-fluorophenyl)-;4-Fluoro-α-oxobenzeneacetaldehyde;(4-Fluorophenyl)glyoxal;(<em>p</em>-Fluorophenyl)glyoxal;NSC 402742;2-(4-Fluorophenyl)-2-oxoacetaldehyde",
    "duplicated_cas_no": "",
    "SMILES": "C(C=O)(=O)C1=CC=C(F)C=C1",
    "meta_data": {
        "InChI": "InChI=1S/C8H5FO2/c9-7-3-1-6(2-4-7)8(11)5-10/h1-5H",
        "InChIKey": null,
        "Canonical SMILES": "O=CC(=O)C1=CC=C(F)C=C1",
        "Molecular Formula": "C<sub>8</sub>H<sub>5</sub>FO<sub>2</sub>",
        "Molecular Mass": "152.12",
        "Boiling Point": "65-67 °C @ Press: 5 Torr"
    }
}