{
    "cas_no": "761-65-9",
    "key_name": "<em>N</em>,<em>N</em>-Dibutylformamide",
    "cn_name": "N,N-二丁基甲酰胺;",
    "alternate_name": "Formamide, <em>N</em>,<em>N</em>-dibutyl-;<em>N</em>,<em>N</em>-Dibutylformamide;Dibutylformamide;<em>N</em>,<em>N</em>-Di-<em>n</em>-butylformamide;NSC 404525;<em>N</em>-Formyldibutylamine",
    "duplicated_cas_no": "",
    "SMILES": "N(CCCC)(CCCC)C=O",
    "meta_data": {
        "InChI": "InChI=1S/C9H19NO/c1-3-5-7-10(9-11)8-6-4-2/h9H,3-8H2,1-2H3",
        "InChIKey": null,
        "Canonical SMILES": "O=CN(CCCC)CCCC",
        "Molecular Formula": "C<sub>9</sub>H<sub>19</sub>NO",
        "Molecular Mass": "157.25",
        "Boiling Point": "76-78 °C @ Press: 0.25 Torr",
        "Melting Point": "60-100 °C",
        "Density": "0.8932 g/cm³ @ Temp: 20 °C"
    }
}