{
    "cas_no": "626-35-7",
    "key_name": "Ethyl nitroacetate",
    "cn_name": "硝基乙酸乙酯;",
    "alternate_name": "Acetic acid, 2-nitro-, ethyl ester;Acetic acid, nitro-, ethyl ester;Ethyl nitroacetate;Nitroacetic acid ethyl ester;NSC 42302;Ethyl 2-nitroacetate;2-Nitroacetic acid ethyl ester",
    "duplicated_cas_no": "",
    "SMILES": "C(C(OCC)=O)N(=O)=O",
    "meta_data": {
        "InChI": "InChI=1S/C4H7NO4/c1-2-9-4(6)3-5(7)8/h2-3H2,1H3",
        "InChIKey": null,
        "Canonical SMILES": "O=C(OCC)CN(=O)=O",
        "Molecular Formula": "C<sub>4</sub>H<sub>7</sub>NO<sub>4</sub>",
        "Molecular Mass": "133.10",
        "Boiling Point": "94 °C @ Press: 11 Torr",
        "Density": "1.2115 g/cm³ @ Temp: 13.1 °C"
    }
}