{
    "cas_no": "68-34-8",
    "key_name": "<em>N</em>-Phenyl-<em>p</em>-toluenesulfonamide",
    "cn_name": "对甲苯硫酰苯胺;",
    "alternate_name": "Benzenesulfonamide, 4-methyl-<em>N</em>-phenyl-;<em>p</em>-Toluenesulfonanilide;4-Methyl-<em>N</em>-phenylbenzenesulfonamide;<em>N</em>-Phenyl-<em>p</em>-toluenesulfonamide;<em>p</em>-Toluenesulfanilide;<em>N</em>-Tosylaniline;<em>p</em>-Toluenesulfonylanilide;<em>N</em><sup>1</sup>-Phenyl-4-toluenesulfonamide;<em>N</em>-Phenyl-<em>p</em>-toluenesulphonamide;<em>N</em>-Phenyl-4-methylbenzenesulfonamide;<em>N</em>-<em>p</em>-Toluenesulfonylaniline;4-Methylbenzenesulfonanilide;NSC 2178;NSC 24629;Topcizer 108;<em>N</em>-Tosylbenzenamine",
    "duplicated_cas_no": "",
    "SMILES": "S(NC1=CC=CC=C1)(=O)(=O)C2=CC=C(C)C=C2",
    "meta_data": {
        "InChI": "InChI=1S/C13H13NO2S/c1-11-7-9-13(10-8-11)17(15,16)14-12-5-3-2-4-6-12/h2-10,14H,1H3",
        "InChIKey": null,
        "Canonical SMILES": "O=S(=O)(NC=1C=CC=CC1)C2=CC=C(C=C2)C",
        "Molecular Formula": "C<sub>13</sub>H<sub>13</sub>NO<sub>2</sub>S",
        "Molecular Mass": "247.31",
        "Melting Point": "103 °C"
    }
}