{
    "cas_no": "637-07-0",
    "key_name": "Clofibrate",
    "cn_name": "氯贝特;氯苯丁酯;对氯苯氧异丁酸乙酯;",
    "alternate_name": "Propanoic acid, 2-(4-chlorophenoxy)-2-methyl-, ethyl ester;Propionic acid, 2-(<em>p</em>-chlorophenoxy)-2-methyl-, ethyl ester;ICI 28257;AY 61123;Atromid S;Clofibrate;CPIB;EPIB;Ethyl 2-(<em>p</em>-chlorophenoxy)isobutyrate;Ethyl 2-(<em>p</em>-chlorophenoxy)-2-methylpropionate;Ethyl α-(4-chlorophenoxy)-α-methylpropionate;Regelan;Ethyl α-(4-chlorophenoxy)isobutyrate;Ethyl α-(<em>p</em>-chlorophenoxy)isobutyrate;Miscleron;<em>p</em>-Chlorophenoxyisobutyric acid ethyl ester;Ethyl 2-(4-chlorophenoxy)-2-methylpropionate;Ethyl α-(<em>p</em>-chlorophenoxy)-α-methylpropionate;Ethyl clofibrate;2-(<em>p</em>-Chlorophenoxy)-2-methylpropionic acid ethyl ester;Amotril;Anparton;Ateriosan;Ateculon;Atheropront;Atromidin;Recolip;Serotinex;Skleromexe;Clobren SF;Normet;Claripex CPIB;Lipavlon;Neo-Atromid;Hyclorate;Lipomid;Clofibrat;Lipavil;Azionyl;Claripex;Cartagyl;Ethyl 2-(4-chlorophenoxy)isobutyrate;Misclerone;ECPIB;Ethyl <em>p</em>-chlorophenoxyisobutyrate;Bioscleran;Liprinal;Arteriosan;Sklerepmexe;Sklerolip;Abitrate;Ticlobran;Artevil;Sklero-Tablinene;Clofinit;Normolipol;Xyduril;Apolan;NSC 79389;2-(4-Chlorophenoxy)isobutyric acid ethyl ester;Ethyl 2-(4-chlorophenoxy)-2-methylpropanoate;MeSH ID: D002994",
    "duplicated_cas_no": "",
    "SMILES": "O(C(C(OCC)=O)(C)C)C1=CC=C(Cl)C=C1",
    "meta_data": {
        "InChI": "InChI=1S/C12H15ClO3/c1-4-15-11(14)12(2,3)16-10-7-5-9(13)6-8-10/h5-8H,4H2,1-3H3",
        "InChIKey": null,
        "Canonical SMILES": "O=C(OCC)C(OC1=CC=C(Cl)C=C1)(C)C",
        "Molecular Formula": "C<sub>12</sub>H<sub>15</sub>ClO<sub>3</sub>",
        "Molecular Mass": "242.70",
        "Boiling Point": "148-150 °C @ Press: 20 Torr",
        "Melting Point": "&lt;25 °C",
        "Density": "1.138-1.144 g/cm³ @ Temp: 20 °C"
    }
}