{
    "cas_no": "3453-83-6",
    "key_name": "2,4,6-Trimethylbenzenesulfonic acid",
    "cn_name": "均三甲苯磺酸;",
    "alternate_name": "Benzenesulfonic acid, 2,4,6-trimethyl-;2-Mesitylenesulfonic acid;2,4,6-Trimethylbenzenesulfonic acid;Mesitylenesulfonic acid;Mesitylsulfonic acid;NSC 5233;2,4,6-Trimethylbenzene-1-sulfonic acid",
    "duplicated_cas_no": "2578939-07-6",
    "SMILES": "S(=O)(=O)(O)C1=C(C)C=C(C)C=C1C",
    "meta_data": {
        "InChI": "InChI=1S/C9H12O3S/c1-6-4-7(2)9(8(3)5-6)13(10,11)12/h4-5H,1-3H3,(H,10,11,12)",
        "InChIKey": null,
        "Canonical SMILES": "O=S(=O)(O)C=1C(=CC(=CC1C)C)C",
        "Molecular Formula": "C<sub>9</sub>H<sub>12</sub>O<sub>3</sub>S",
        "Molecular Mass": "200.25",
        "Melting Point": "77 °C"
    }
}