{
    "cas_no": "20007-72-1",
    "key_name": "(±)-Wieland-Miescher ketone",
    "cn_name": null,
    "alternate_name": "1,6(2<em>H</em>,7<em>H</em>)-Naphthalenedione, 3,4,8,8a-tetrahydro-8a-methyl-;3,4,8,8a-Tetrahydro-8a-methyl-1,6(2<em>H</em>,7<em>H</em>)-naphthalenedione;9-Methyl-Δ<sup>5,10</sup>-octalin-1,6-dione;9-Methyl-1,6-dioxo-1,2,3,4,6,7,8,9-octahydronaphthalene;9-Methyl-5(10)-octalin-1,6-dione;Wieland-Miescher ketone;MODX;(±)-8a-Methyl-1,2,3,4,6,7,8,8a-octahydro-1,6-naphthalenedione;(<em>R</em>/<em>S</em>)-Wieland-Miescher ketone;NSC 87581;(±)-Wieland-Miescher ketone;8a-Methyl-3,4,8,8a-tetrahydronaphthalene-1,6(2<em>H</em>,7<em>H</em>)-dione",
    "duplicated_cas_no": "20007-99-2",
    "SMILES": "CC12C(=CC(=O)CC1)CCCC2=O",
    "meta_data": {
        "InChI": "InChI=1S/C11H14O2/c1-11-6-5-9(12)7-8(11)3-2-4-10(11)13/h7H,2-6H2,1H3",
        "InChIKey": null,
        "Canonical SMILES": "O=C1C=C2CCCC(=O)C2(C)CC1",
        "Molecular Formula": "C<sub>11</sub>H<sub>14</sub>O<sub>2</sub>",
        "Molecular Mass": "178.23",
        "Boiling Point": "106-108 °C @ Press: 1 x 10<sup>-3</sup> Torr",
        "Melting Point": "41.5-42.5 °C"
    }
}