{
    "cas_no": "4693-91-8",
    "key_name": "4-Methoxybenzeneacetyl chloride",
    "cn_name": null,
    "alternate_name": "Benzeneacetyl chloride, 4-methoxy-;Acetyl chloride, (<em>p</em>-methoxyphenyl)-;4-Methoxybenzeneacetyl chloride;(<em>p</em>-Methoxyphenyl)acetyl chloride;(4-Methoxyphenyl)acetyl chloride;<em>p</em>-Methoxyphenacetyl chloride;<em>p</em>-Anisylacetyl chloride;2-(4-Methoxyphenyl)acetyl chloride;4-Methoxyphenacetyl chloride",
    "duplicated_cas_no": "1258517-81-5",
    "SMILES": "C(C(Cl)=O)C1=CC=C(OC)C=C1",
    "meta_data": {
        "InChI": "InChI=1S/C9H9ClO2/c1-12-8-4-2-7(3-5-8)6-9(10)11/h2-5H,6H2,1H3",
        "InChIKey": null,
        "Canonical SMILES": "O=C(Cl)CC1=CC=C(OC)C=C1",
        "Molecular Formula": "C<sub>9</sub>H<sub>9</sub>ClO<sub>2</sub>",
        "Molecular Mass": "184.62",
        "Boiling Point": "139 °C",
        "Density": "1.2283 g/cm³ @ Temp: 0 °C"
    }
}