{
    "cas_no": "37538-68-4",
    "key_name": "Pyrido[3,2-<em>d</em>]pyrimidine-2,4-diol",
    "cn_name": null,
    "alternate_name": "Pyrido[3,2-<em>d</em>]pyrimidine-2,4(1<em>H</em>,3<em>H</em>)-dione;Pyrido[3,2-<em>d</em>]pyrimidine-2,4-diol;2,4-Dihydroxypyrido[3,2-<em>d</em>]pyrimidine;1<em>H</em>,3<em>H</em>-Pyrido[3,2-<em>d</em>]pyrimidine-2,4-dione;1<em>H</em>,2<em>H</em>,3<em>H</em>,4<em>H</em>-Pyrido[3,2-<em>d</em>]pyrimidine-2,4-dione;1<em>H</em>-Pyrido[3,2-<em>d</em>]pyrimidine-2,4-dione",
    "duplicated_cas_no": "24410-23-9",
    "SMILES": "O=C1C=2C(NC(=O)N1)=CC=CN2",
    "meta_data": {
        "InChI": "InChI=1S/C7H5N3O2/c11-6-5-4(2-1-3-8-5)9-7(12)10-6/h1-3H,(H2,9,10,11,12)",
        "InChIKey": null,
        "Canonical SMILES": "O=C1NC(=O)C2=NC=CC=C2N1",
        "Molecular Formula": "C<sub>7</sub>H<sub>5</sub>N<sub>3</sub>O<sub>2</sub>",
        "Molecular Mass": "163.13",
        "Melting Point": "320 °C"
    }
}