{
    "cas_no": "41177-72-4",
    "key_name": "5-Bromo-2,3-dihydro-7-benzofurancarboxylic acid",
    "cn_name": null,
    "alternate_name": "7-Benzofurancarboxylic acid, 5-bromo-2,3-dihydro-;5-Bromo-2,3-dihydro-7-benzofurancarboxylic acid;5-Bromo-2,3-dihydrobenzofuran-7-carboxylic acid;5-Bromo-2,3-dihydro-1-benzofuran-7-carboxylic acid",
    "duplicated_cas_no": "",
    "SMILES": "C(O)(=O)C1=C2C(=CC(Br)=C1)CCO2",
    "meta_data": {
        "InChI": "InChI=1S/C9H7BrO3/c10-6-3-5-1-2-13-8(5)7(4-6)9(11)12/h3-4H,1-2H2,(H,11,12)",
        "InChIKey": null,
        "Canonical SMILES": "O=C(O)C1=CC(Br)=CC2=C1OCC2",
        "Molecular Formula": "C<sub>9</sub>H<sub>7</sub>BrO<sub>3</sub>",
        "Molecular Mass": "243.05",
        "Melting Point": "228-229 °C"
    }
}