{
    "cas_no": "2050-66-0",
    "key_name": "Bis(4-chloro-2-nitrophenyl) disulfide",
    "cn_name": "2,2-二硝基-4,4-二氯二苯二硫;2,2-二硝基-4,4-二氯二苯二硫;",
    "alternate_name": "Disulfide, bis(4-chloro-2-nitrophenyl);Bis(4-chloro-2-nitrophenyl) disulfide;Bis(2-nitro-4-chlorophenyl) disulfide;NSC 6334",
    "duplicated_cas_no": "",
    "SMILES": "N(=O)(=O)C1=C(SSC2=C(N(=O)=O)C=C(Cl)C=C2)C=CC(Cl)=C1",
    "meta_data": {
        "InChI": "InChI=1S/C12H6Cl2N2O4S2/c13-7-1-3-11(9(5-7)15(17)18)21-22-12-4-2-8(14)6-10(12)16(19)20/h1-6H",
        "InChIKey": null,
        "Canonical SMILES": "O=N(=O)C1=CC(Cl)=CC=C1SSC2=CC=C(Cl)C=C2N(=O)=O",
        "Molecular Formula": "C<sub>12</sub>H<sub>6</sub>Cl<sub>2</sub>N<sub>2</sub>O<sub>4</sub>S<sub>2</sub>",
        "Molecular Mass": "377.22",
        "Melting Point": "212 °C"
    }
}