{
    "cas_no": "443-48-1",
    "key_name": "Metronidazole",
    "cn_name": "甲硝唑;2-甲基-5-硝基咪唑-1-乙醇;",
    "alternate_name": "1<em>H</em>-Imidazole-1-ethanol, 2-methyl-5-nitro-;Imidazole-1-ethanol, 2-methyl-5-nitro-;2-Methyl-5-nitro-1<em>H</em>-imidazole-1-ethanol;Bayer 5360;RP 8823;Clont;Flagyl;1-(2-Hydroxyethyl)-2-methyl-5-nitroimidazole;1-Hydroxyethyl-2-methyl-5-nitroimidazole;1-(β-Hydroxyethyl)-2-methyl-5-nitroimidazole;2-Methyl-5-nitroimidazole-1-ethanol;Metronidazol;Metronidazole;Trichopal;Flagil;Klont;Orvagil;Anagiardil;Gineflavir;Takimetol;Mexibol;Flagesol;Trichomol;Trivazol;Deflamon;Vagimid;Klion;Entizol;Metrogyl;Metropol;Elyzol;Noritate;Metron;Tricocet;Metrotop;Trichocide;Sanatrichom;Protostat;Tricho-Gynaedron;Rathimed;NSC 50364;Metro Cream &amp; Gel;Fossyol;Metrolyl;Zadstat;Metrolag;Trichazol;Arilin;Vagilen;MetroGel;Tricho Cordes;Satric;Medazol;Efloran;NSC 69587;Trichobrol;Cimetrol 500LPCI;Trikhopol;Nidazole;Dentamet gel;metrovagin;Polibiotic;Flazol;Supplin;Emgyl;Metrodol;Loxagyl;Metrotab;Tromet;Emtrin;Rosiced;Trichopole;Trichopol;Metrodine;Compeba;2-(2-Methyl-5-nitro-1<em>H</em>-imidazol-1-yl)ethanol;Metro;2-(2-Methyl-5-nitro-1<em>H</em>-imidazol-1-yl)ethan-1-ol;MeSH ID: D008795;Amrizole",
    "duplicated_cas_no": "39322-38-8;133884-00-1;2434660-38-3",
    "SMILES": "C(CO)N1C(N(=O)=O)=CN=C1C",
    "meta_data": {
        "InChI": "InChI=1S/C6H9N3O3/c1-5-7-4-6(9(11)12)8(5)2-3-10/h4,10H,2-3H2,1H3",
        "InChIKey": null,
        "Canonical SMILES": "O=N(=O)C1=CN=C(N1CCO)C",
        "Molecular Formula": "C<sub>6</sub>H<sub>9</sub>N<sub>3</sub>O<sub>3</sub>",
        "Molecular Mass": "171.15",
        "Melting Point": "158-160 °C",
        "Density": "1.45 g/cm³"
    }
}