{
    "cas_no": "517-28-2",
    "key_name": "Hematoxylin",
    "cn_name": "苏木色精;苏木色素;苏木精;",
    "alternate_name": "Benz[<em>b</em>]indeno[1,2-<em>d</em>]pyran-3,4,6a,9,10(6<em>H</em>)-pentol, 7,11b-dihydro-, (6a<em>S</em>,11b<em>R</em>)-;Benz[<em>b</em>]indeno[1,2-<em>d</em>]pyran-3,4,6a,9,10(6<em>H</em>)-pentol, 7,11b-dihydro-;Benz[<em>b</em>]indeno[1,2-<em>d</em>]pyran-3,4,6a,9,10(6<em>H</em>)-pentol, 7,11b-dihydro-, (6a<em>S</em>-<em>cis</em>)-;(6a<em>S</em>,11b<em>R</em>)-7,11b-Dihydrobenz[<em>b</em>]indeno[1,2-<em>d</em>]pyran-3,4,6a,9,10(6<em>H</em>)-pentol;Haematoxylin;Hematoxyline;Hydroxybrasilin;Hematoxylin;Hydroxybrazilin;(+)-Hematoxylin;NSC 270085;(6AS,11bR)-7,11b-dihydro-6<em>H</em>-indeno[2,1-<em>c</em>]chromene-3,4,6a,9,10-pentol;MeSH ID: D006416",
    "duplicated_cas_no": "1412-19-7;22562-63-6",
    "SMILES": "O[C@]12[C@](C=3C(C1)=CC(O)=C(O)C3)(C=4C(OC2)=C(O)C(O)=CC4)[H]",
    "meta_data": {
        "InChI": "InChI=1S/C16H14O6/c17-10-2-1-8-13-9-4-12(19)11(18)3-7(9)5-16(13,21)6-22-15(8)14(10)20/h1-4,13,17-21H,5-6H2/t13-,16+/m0/s1",
        "InChIKey": null,
        "Canonical SMILES": "OC1=CC=C2C(OCC3(O)CC4=CC(O)=C(O)C=C4C23)=C1O",
        "Molecular Formula": "C<sub>16</sub>H<sub>14</sub>O<sub>6</sub>",
        "Molecular Mass": "302.28",
        "Melting Point": "140 °C"
    }
}