{
    "cas_no": "74936-72-4",
    "key_name": "2,6-Dimethyl-4-(3-nitrophenyl)-1,4-dihydropyridine-3,5-dicarboxylic acid monomethyl ester",
    "cn_name": "2,6-二甲基-5-甲氧基羰基-4-(3-硝基苯)-1,4-二氢吡啶-3-甲酸;",
    "alternate_name": "3,5-Pyridinedicarboxylic acid, 1,4-dihydro-2,6-dimethyl-4-(3-nitrophenyl)-, 3-methyl ester;3,5-Pyridinedicarboxylic acid, 1,4-dihydro-2,6-dimethyl-4-(3-nitrophenyl)-, monomethyl ester;2,6-Dimethyl-5-methoxycarbonyl-4-(3-nitrophenyl)-1,4-dihydropyridine-3-carboxylic acid;(±)-1,4-Dihydro-2,6-dimethyl-4-(3-nitrophenyl)-3,5-pyridinedicarboxylic acid monomethyl ester;(±)-1,4-Dihydro-5-methoxycarbonyl-2,6-dimethyl-4-(3-nitrophenyl)-3-pyridinecarboxylic acid;2,6-Dimethyl-4-(3-nitrophenyl)-1,4-dihydropyridine-3,5-dicarboxylic acid monomethyl ester",
    "duplicated_cas_no": "101072-62-2;146904-07-6",
    "SMILES": "C(OC)(=O)C=1C(C(C(O)=O)=C(C)NC1C)C2=CC(N(=O)=O)=CC=C2",
    "meta_data": {
        "InChI": "InChI=1S/C16H16N2O6/c1-8-12(15(19)20)14(13(9(2)17-8)16(21)24-3)10-5-4-6-11(7-10)18(22)23/h4-7,14,17H,1-3H3,(H,19,20)",
        "InChIKey": null,
        "Canonical SMILES": "O=C(O)C1=C(NC(=C(C(=O)OC)C1C=2C=CC=C(C2)N(=O)=O)C)C",
        "Molecular Formula": "C<sub>16</sub>H<sub>16</sub>N<sub>2</sub>O<sub>6</sub>",
        "Molecular Mass": "332.31",
        "Melting Point": "189-190 °C"
    }
}