{
    "cas_no": "142-83-6",
    "key_name": "Sorbaldehyde",
    "cn_name": "(E,E)-2,4-己二烯醛;",
    "alternate_name": "2,4-Hexadienal, (2<em>E</em>,4<em>E</em>)-;Sorbaldehyde;2,4-Hexadienal, (<em>E</em>,<em>E</em>)-;(2<em>E</em>,4<em>E</em>)-2,4-Hexadienal;Sorbic aldehyde;(<em>E</em>,<em>E</em>)-Hexa-2,4-dienal;<em>trans</em>-2,<em>trans</em>-4-Hexadienal;(<em>E</em>,<em>E</em>)-2,4-Hexadienal;<em>trans</em>,<em>trans</em>-2,4-Hexadien-1-al",
    "duplicated_cas_no": "4488-48-6",
    "SMILES": "C(\\C=C\\C)=C/C=O",
    "meta_data": {
        "InChI": "InChI=1S/C6H8O/c1-2-3-4-5-6-7/h2-6H,1H3/b3-2+,5-4+",
        "InChIKey": null,
        "Canonical SMILES": "O=CC=CC=CC",
        "Molecular Formula": "C<sub>6</sub>H<sub>8</sub>O",
        "Molecular Mass": "96.13",
        "Boiling Point": "76 °C @ Press: 30 Torr",
        "Density": "0.898 g/cm³ @ Temp: 20 °C"
    }
}