{
    "cas_no": "22205-45-4",
    "key_name": "Copper sulfide (Cu<sub>2</sub>S)",
    "cn_name": null,
    "alternate_name": "Copper sulfide (Cu<sub>2</sub>S);Cuprous sulfide;Dicopper sulfide;Copper(I) sulfide;Dicopper monosulfide;Cuprous sulfide (Cu<sub>2</sub>S);Austro Tecc CB 500;Copper sulfide (Cu<sub>0.67</sub>S<sub>0.33</sub>);Copper sulfide (CuS<sub>0.5</sub>)",
    "duplicated_cas_no": "1308-78-7;22891-51-6;155903-69-8;271578-53-1;1708103-96-1;2490708-35-3;3011679-03-8",
    "SMILES": "S([Cu])[Cu]",
    "meta_data": {
        "InChI": "InChI=1S/2Cu.S",
        "InChIKey": null,
        "Canonical SMILES": "[Cu]S[Cu]",
        "Molecular Formula": "Cu<sub>2</sub>S",
        "Molecular Mass": "",
        "Melting Point": "1100 °C",
        "Density": "5.60 g/cm³"
    }
}