{
    "cas_no": "2107-76-8",
    "key_name": "5,7-Dihydroxy-4-methylcoumarin",
    "cn_name": "5,7-二羟基-4-甲基香豆素;",
    "alternate_name": "2<em>H</em>-1-Benzopyran-2-one, 5,7-dihydroxy-4-methyl-;Coumarin, 5,7-dihydroxy-4-methyl-;5,7-Dihydroxy-4-methyl-2<em>H</em>-1-benzopyran-2-one;4-Methyl-5,7-dihydroxycoumarin;5,7-Dihydroxy-4-methylcoumarin;NSC 5302;5,7-Dihydroxy-4-methyl-chromen-2-one;5,7-Dihydroxy-4-methyl-2<em>H</em>-chromen-2-one",
    "duplicated_cas_no": "",
    "SMILES": "CC=1C=2C(=CC(O)=CC2O)OC(=O)C1",
    "meta_data": {
        "InChI": "InChI=1S/C10H8O4/c1-5-2-9(13)14-8-4-6(11)3-7(12)10(5)8/h2-4,11-12H,1H3",
        "InChIKey": null,
        "Canonical SMILES": "O=C1OC=2C=C(O)C=C(O)C2C(=C1)C",
        "Molecular Formula": "C<sub>10</sub>H<sub>8</sub>O<sub>4</sub>",
        "Molecular Mass": "192.17",
        "Melting Point": "282-284 °C"
    }
}