{
    "cas_no": "638-95-9",
    "key_name": "α-Amyrin",
    "cn_name": "alpha-香树精;alpha-香树脂醇;",
    "alternate_name": "Urs-12-en-3-ol, (3β)-;Viminalol;Urs-12-en-3β-ol;(3β)-Urs-12-en-3-ol;α-Amyrenol;α-Amyrin;α-Amyrine;3β-Hydroxyurs-12-ene;α-Amirin;NSC 114787",
    "duplicated_cas_no": "104010-91-5;527743-21-1;955129-49-4",
    "SMILES": "C[C@]12[C@@]3(C)C([C@]4([C@@](C)(CC3)CC[C@@H](C)[C@@H]4C)[H])=CC[C@@]1([C@]5(C)[C@@](CC2)(C(C)(C)[C@@H](O)CC5)[H])[H]",
    "meta_data": {
        "InChI": "InChI=1S/C30H50O/c1-19-11-14-27(5)17-18-29(7)21(25(27)20(19)2)9-10-23-28(6)15-13-24(31)26(3,4)22(28)12-16-30(23,29)8/h9,19-20,22-25,31H,10-18H2,1-8H3/t19-,20+,22+,23-,24+,25+,27-,28+,29-,30-/m1/s1",
        "InChIKey": null,
        "Canonical SMILES": "OC1CCC2(C)C(CCC3(C)C2CC=C4C5C(C)C(C)CCC5(C)CCC43C)C1(C)C",
        "Molecular Formula": "C<sub>30</sub>H<sub>50</sub>O",
        "Molecular Mass": "426.72",
        "Melting Point": "186 °C"
    }
}