{
    "cas_no": "12065-10-0",
    "key_name": "Germanium selenide (GeSe)",
    "cn_name": null,
    "alternate_name": "Germanium selenide (GeSe);Germanous selenide;Germanium monoselenide;Germanium selenide (Ge<sub>0.5</sub>Se<sub>0.5</sub>)",
    "duplicated_cas_no": "51682-05-4;1643927-41-6",
    "SMILES": "[Ge]=[Se]",
    "meta_data": {
        "InChI": "InChI=1S/GeSe/c1-2",
        "InChIKey": null,
        "Canonical SMILES": "[Ge]=[Se]",
        "Molecular Formula": "GeSe",
        "Molecular Mass": "",
        "Melting Point": "670 °C",
        "Density": "5.634 g/cm³"
    }
}