{
    "cas_no": "25373-56-2",
    "key_name": "2-(1<em>H</em>-Imidazol-1-yl)benzenemethanol",
    "cn_name": null,
    "alternate_name": "Benzenemethanol, 2-(1<em>H</em>-imidazol-1-yl)-;Benzyl alcohol, <em>o</em>-imidazol-1-yl-;2-(1<em>H</em>-Imidazol-1-yl)benzenemethanol;[2-(1<em>H</em>-Imidazol-1-yl)phenyl]methanol;(2-Imidazol-1-ylphenyl)methanol",
    "duplicated_cas_no": "",
    "SMILES": "C(O)C1=C(C=CC=C1)N2C=CN=C2",
    "meta_data": {
        "InChI": "InChI=1S/C10H10N2O/c13-7-9-3-1-2-4-10(9)12-6-5-11-8-12/h1-6,8,13H,7H2",
        "InChIKey": null,
        "Canonical SMILES": "OCC=1C=CC=CC1N2C=NC=C2",
        "Molecular Formula": "C<sub>10</sub>H<sub>10</sub>N<sub>2</sub>O",
        "Molecular Mass": "174.20",
        "Melting Point": "102-104 °C"
    }
}