{
    "cas_no": "86-48-6",
    "key_name": "1-Hydroxy-2-naphthoic acid",
    "cn_name": "1-羟基-2-萘甲酸;1,2-酸;",
    "alternate_name": "2-Naphthalenecarboxylic acid, 1-hydroxy-;2-Naphthoic acid, 1-hydroxy-;1-Hydroxy-2-naphthalenecarboxylic acid;1-Hydroxy-2-naphthoic acid;1-Naphthol-2-carboxylic acid;2-Carboxy-1-naphthol;NSC 3717;Xinafoic acid;α-Hydroxy-β-naphthoic acid;1-Hydroxy 2-naphthalic acid;H 0279",
    "duplicated_cas_no": "",
    "SMILES": "OC=1C2=C(C=CC1C(O)=O)C=CC=C2",
    "meta_data": {
        "InChI": "InChI=1S/C11H8O3/c12-10-8-4-2-1-3-7(8)5-6-9(10)11(13)14/h1-6,12H,(H,13,14)",
        "InChIKey": null,
        "Canonical SMILES": "O=C(O)C=1C=CC=2C=CC=CC2C1O",
        "Molecular Formula": "C<sub>11</sub>H<sub>8</sub>O<sub>3</sub>",
        "Molecular Mass": "188.18",
        "Boiling Point": "150-160 °C @ Press: 0.1 Torr",
        "Melting Point": "195 °C",
        "Density": "1.43 g/cm³"
    }
}