{
    "cas_no": "3392-11-8",
    "key_name": "<em>N</em>-[(1,1-Dimethylethoxy)carbonyl]-<span class=\"text-smallcaps\">L</span>-tryptophan 2,5-dioxo-1-pyrrolidinyl ester",
    "cn_name": "BOC-L-色氨酸羟基琥珀酰亚胺酯;BOC-L-色氨酸羟基琥珀酰亚胺酯;",
    "alternate_name": "<span class=\"text-smallcaps\">L</span>-Tryptophan, <em>N</em>-[(1,1-dimethylethoxy)carbonyl]-, 2,5-dioxo-1-pyrrolidinyl ester;Succinimide, <em>N</em>-[(<em>N</em>-carboxy-<span class=\"text-smallcaps\">L</span>-tryptophyl)oxy]-, <em>tert</em>-butyl ester;Carbamic acid, [2-[(2,5-dioxo-1-pyrrolidinyl)oxy]-1-(1<em>H</em>-indol-3-ylmethyl)-2-oxoethyl]-, 1,1-dimethylethyl ester, (<em>S</em>)-;Carbamic acid, [(1<em>S</em>)-2-[(2,5-dioxo-1-pyrrolidinyl)oxy]-1-(1<em>H</em>-indol-3-ylmethyl)-2-oxoethyl]-, 1,1-dimethylethyl ester;<em>N</em>-[(1,1-Dimethylethoxy)carbonyl]-<span class=\"text-smallcaps\">L</span>-tryptophan 2,5-dioxo-1-pyrrolidinyl ester;NSC 164059;(2,5-Dioxopyrrolidin-1-yl) (2S)-3-(1<em>H</em>-indol-3-yl)-2-[(2-methylpropan-2-yl)oxycarbonylamino]propanoate",
    "duplicated_cas_no": "",
    "SMILES": "C([C@@H](C(ON1C(=O)CCC1=O)=O)NC(OC(C)(C)C)=O)C=2C=3C(NC2)=CC=CC3",
    "meta_data": {
        "InChI": "InChI=1S/C20H23N3O6/c1-20(2,3)28-19(27)22-15(18(26)29-23-16(24)8-9-17(23)25)10-12-11-21-14-7-5-4-6-13(12)14/h4-7,11,15,21H,8-10H2,1-3H3,(H,22,27)/t15-/m0/s1",
        "InChIKey": null,
        "Canonical SMILES": "O=C(OC(C)(C)C)NC(C(=O)ON1C(=O)CCC1=O)CC2=CNC=3C=CC=CC32",
        "Molecular Formula": "C<sub>20</sub>H<sub>23</sub>N<sub>3</sub>O<sub>6</sub>",
        "Molecular Mass": "401.41",
        "Melting Point": "153-154 °C"
    }
}