{
    "cas_no": "877-88-3",
    "key_name": "3,5-Dimethoxybenzyl bromide",
    "cn_name": "3,5-二甲氧基溴苄;",
    "alternate_name": "Benzene, 1-(bromomethyl)-3,5-dimethoxy-;Toluene, α-bromo-3,5-dimethoxy-;1-(Bromomethyl)-3,5-dimethoxybenzene;3,5-Dimethoxybenzyl bromide;5-(Bromomethyl)-1,3-dimethoxybenzene;α-Bromo-3,5-dimethoxytoluene;1-(Bromomethyl)-3,5-bis(methoxy)benzene",
    "duplicated_cas_no": "",
    "SMILES": "C(Br)C1=CC(OC)=CC(OC)=C1",
    "meta_data": {
        "InChI": "InChI=1S/C9H11BrO2/c1-11-8-3-7(6-10)4-9(5-8)12-2/h3-5H,6H2,1-2H3",
        "InChIKey": null,
        "Canonical SMILES": "BrCC=1C=C(OC)C=C(OC)C1",
        "Molecular Formula": "C<sub>9</sub>H<sub>11</sub>BrO<sub>2</sub>",
        "Molecular Mass": "231.09",
        "Melting Point": "71-72 °C"
    }
}