{
    "cas_no": "23138-50-3",
    "key_name": "1-Ethyl-4-isocyanatobenzene",
    "cn_name": "4-乙基苯基异氰酸酯;",
    "alternate_name": "Benzene, 1-ethyl-4-isocyanato-;Isocyanic acid, <em>p</em>-ethylphenyl ester;1-Ethyl-4-isocyanatobenzene;<em>p</em>-Ethylphenyl isocyanate;4-Ethylphenyl isocyanate",
    "duplicated_cas_no": "",
    "SMILES": "N(=C=O)C1=CC=C(CC)C=C1",
    "meta_data": {
        "InChI": "InChI=1S/C9H9NO/c1-2-8-3-5-9(6-4-8)10-7-11/h3-6H,2H2,1H3",
        "InChIKey": null,
        "Canonical SMILES": "O=C=NC1=CC=C(C=C1)CC",
        "Molecular Formula": "C<sub>9</sub>H<sub>9</sub>NO",
        "Molecular Mass": "147.17",
        "Boiling Point": "101-102 °C @ Press: 27 Torr"
    }
}