{
    "cas_no": "490-79-9",
    "key_name": "2,5-Dihydroxybenzoic acid",
    "cn_name": "2,5-二羟基苯甲酸;5-羟基水杨酸;龙胆酸;",
    "alternate_name": "Benzoic acid, 2,5-dihydroxy-;Gentisic acid;2,5-Dihydroxybenzoic acid;Hydroquinonecarboxylic acid;5-Hydroxysalicylic acid;2,5-Dioxybenzoic acid;Gensigen;Gensigon;Carboxyhydroquinone;3,6-Dihydroxybenzoic acid;Gentisinic acid;NSC 27224;NSC 49098;NSC 78825;2,5-DHBA;2,5-DHB;2,5-Dihydroxybenzenecarboxylic acid",
    "duplicated_cas_no": "",
    "SMILES": "C(O)(=O)C1=C(O)C=CC(O)=C1",
    "meta_data": {
        "InChI": "InChI=1S/C7H6O4/c8-4-1-2-6(9)5(3-4)7(10)11/h1-3,8-9H,(H,10,11)",
        "InChIKey": null,
        "Canonical SMILES": "O=C(O)C1=CC(O)=CC=C1O",
        "Molecular Formula": "C<sub>7</sub>H<sub>6</sub>O<sub>4</sub>",
        "Molecular Mass": "154.12",
        "Boiling Point": "150 °C @ Press: 12 Torr",
        "Melting Point": "199.5 °C"
    }
}