{
    "cas_no": "22134-07-2",
    "key_name": "1,3,5-Trichloro-2-isothiocyanatobenzene",
    "cn_name": null,
    "alternate_name": "Benzene, 1,3,5-trichloro-2-isothiocyanato-;Isothiocyanic acid, 2,4,6-trichlorophenyl ester;1,3,5-Trichloro-2-isothiocyanatobenzene;2,4,6-Trichlorophenyl isothiocyanate",
    "duplicated_cas_no": "",
    "SMILES": "N(=C=S)C1=C(Cl)C=C(Cl)C=C1Cl",
    "meta_data": {
        "InChI": "InChI=1S/C7H2Cl3NS/c8-4-1-5(9)7(11-3-12)6(10)2-4/h1-2H",
        "InChIKey": null,
        "Canonical SMILES": "S=C=NC=1C(Cl)=CC(Cl)=CC1Cl",
        "Molecular Formula": "C<sub>7</sub>H<sub>2</sub>Cl<sub>3</sub>NS",
        "Molecular Mass": "238.52",
        "Melting Point": "80-81 °C"
    }
}