{
    "cas_no": "12116-66-4",
    "key_name": "Hafnocene dichloride",
    "cn_name": "双(环戊二烯)二氯化铪;",
    "alternate_name": "Hafnium, dichlorobis(η<sup>5</sup>-2,4-cyclopentadien-1-yl)-;Hafnium, dichlorodi-π-cyclopentadienyl-;Dicyclopentadienylhafnium dichloride;Dichlorobis(η<sup>5</sup>-2,4-cyclopentadien-1-yl)hafnium;Hafnocene dichloride;Dichlorodicyclopentadienylhafnium;Dichlorodi-π-cyclopentadienylhafnium;Hafnium dicyclopentadiene dichloride;Dichlorobis(η-cyclopentadienyl)hafnium;Dichlorobis(η<sup>5</sup>-cyclopentadienyl)hafnium;Dichlorobis(cyclopentadienyl)hafnium;Bis(cyclopentadienyl)hafnium dichloride;Dichlorohafnocene;Bis(cyclopentadienyl)hafnium(IV) dichloride;NSC 102788",
    "duplicated_cas_no": "115348-40-8;23845-56-9",
    "SMILES": "[Cl-][Hf+4]12345678([Cl-])([CH]=9[CH-]1[CH]2=[CH]3[CH]49)[CH]=%10[CH-]5[CH]6=[CH]7[CH]8%10",
    "meta_data": {
        "InChI": "InChI=1S/2C5H5.2ClH.Hf/c2*1-2-4-5-3-1;;;/h2*1-5H;2*1H;/q2*-1;;;+4/p-2",
        "InChIKey": null,
        "Canonical SMILES": "[Cl-][Hf+4]12345678([Cl-])([CH]=9[CH]4=[CH]3[CH-]2[CH]91)[CH]=%10[CH]8=[CH]7[CH-]6[CH]%105",
        "Molecular Formula": "C<sub>10</sub>H<sub>10</sub>Cl<sub>2</sub>Hf",
        "Molecular Mass": "",
        "Melting Point": "230-233 °C"
    }
}