{
    "cas_no": "78-63-7",
    "key_name": "2,5-Dimethyl-2,5-di(<em>tert</em>-butylperoxy)hexane",
    "cn_name": "2,5-二甲基-2,5-二(叔丁基过氧基)己烷;双\"2,5\"硫化剂;硫化剂双二五;",
    "alternate_name": "Peroxide, 1,1′-(1,1,4,4-tetramethyl-1,4-butanediyl)bis[2-(1,1-dimethylethyl);Peroxide, (1,1,4,4-tetramethyltetramethylene)bis[<em>tert</em>-butyl;Peroxide, (1,1,4,4-tetramethyl-1,4-butanediyl)bis[(1,1-dimethylethyl);1,1′-(1,1,4,4-Tetramethyl-1,4-butanediyl)bis[2-(1,1-dimethylethyl) peroxide];2,5-Dimethyl-2,5-bis(<em>tert</em>-butylperoxy)hexane;Luperox 101;Lupersol 101;Varox;Trigonox XQ 8;2,5-Dimethyl-2,5-di(<em>tert</em>-butylperoxy)hexane;Varox 50;(1,1,4,4-Tetramethyltetramethylene)bis(<em>tert</em>-butyl peroxide);2,5-Bis(<em>tert</em>-butylperoxy)-2,5-dimethylhexane;2,5-Dimethyl-2,5-bis(<em>tert</em>-butyldioxy)hexane;2,5-Di(<em>t</em>-butylperoxy)-2,5-dimethylhexane;Luperco 101XL;2,5-Di(<em>tert</em>-butylperoxy)-2,5-dimethylhexane;2,5-Di-<em>tert</em>-butyl-2,5-dimethylhexyl peroxide;2,5-Bis(<em>tert</em>-butyldioxy)-2,5-dimethylhexane;Kayahexa AD;Kayahexa AD 40C;Perhexa 25B;Perhexa 25B40;Trigonox 101;Lupersol 101XL;Perhexa 2.5B40;Interox DHBP 45IC/G;Perhexa 2.5B;Kayahexa AD 40;2,5-Dimethyl-2,5-di(<em>t</em>-butylperoxy)hexane;AD 40C;RC 4 (peroxide);RC 4;Interox DHBP;TC 8 (catalyst);TC 8;CR 05;Varox Liquid;Varox DBPH 50;Luperco 101X45;CT 8 (crosslinking agent);CT 8;HC 4 (peroxide);HC 4;AD;RPZ 101;Trigonox 101E5;2,5-Dimethyl-di(<em>tert</em>-butyl)peroxyhexane;Trigonox 101-40MD-GR;C 8;C 8 (vulcanizer);C 8A;C 15;RC 8;C 15 (peroxide);Trigonox 101E10;Lupersol L 101;101XL;Luperox 101XL;25B40;L 101;2,5-Methyl-2,5-di(<em>tert</em>-butylperoxy)hexane;Luperox 101XL45;LX 101;RC 450P;Trigonox 101-50;2,5-Dimethylhexane-2,5-di-<em>tert</em>-butylperoxide;NSC 38203;Yinox 101;Sanperox APO;APO;Trigonox 101-40D;Link-Cup DBPH;Varox DBPH;APO 40S;DHBP 50WO;DBPH-PAR 100;Varox DBPH 50HP;Trigonox 101-40B;DHBP 45ICI;DBPH 50HP;APO 10DL;Perhexa 25B10;Dual 25;Trigonox 101-45B-PD;Varox DBPH 50EZD;DBPH 50;Kayahexa 4D;BPDH;HC 8;LS 4;Peroxan HX;DBPH;DHBP;Trigonox 101-40MB;DBPMH;WLZ 3;Trigonox 101-45S-PS;101-45S;Luperox 101-50D;Kayahekisa AD;2,5-Dimethyl-2,5-bis(<em>tert</em>-butylperoxide)hexane;T 101;Peroxide L 101;EX 131;101-50D;DDPH 50;C 4;Trigonox 101E50;101XL45;Trigonox 101-20PP;LS 5;Luperox L 101;Colink 101-45GE;TX 101;Trigonox 101IP;2,5-Dimethyl-2,5-bis(1,1-dimethylethylperoxy)hexane;Luperox 101XL45SP2;101XL45SP2;Perhexa 25B36;Luperox 101PP10;Luperox 101SIL45;DHBP 45;Enox 101-20PP;101SC8B;Kayahexa APO 10DL;101C8BS;Trigonox 101SC15;DHBP 45PSI;Trigonox 101-40C;HC 818B;C 8BS;DHBP 5IC5;V 110B;Vulcanizing agent 25;Perkadox 101-40C;Double 25;CR-PP 20X;Trigonox 101SC15S;C 8B;Luperox 101MO50;TC 14;Luperox 101XL46SP2;Peroxan APO",
    "duplicated_cas_no": "64366-72-9;80237-87-2;105521-59-3;109603-45-4;118093-18-8;138427-60-8;139352-38-8;143637-29-0;158049-62-8;162535-20-8;180513-58-0;184247-21-0;186467-25-4;482317-83-9;860310-58-3;1448312-18-2;1628689-99-5;2355034-65-8",
    "SMILES": "C(CCC(OOC(C)(C)C)(C)C)(OOC(C)(C)C)(C)C",
    "meta_data": {
        "InChI": "InChI=1S/C16H34O4/c1-13(2,3)17-19-15(7,8)11-12-16(9,10)20-18-14(4,5)6/h11-12H2,1-10H3",
        "InChIKey": null,
        "Canonical SMILES": "O(OC(C)(C)CCC(OOC(C)(C)C)(C)C)C(C)(C)C",
        "Molecular Formula": "C<sub>16</sub>H<sub>34</sub>O<sub>4</sub>",
        "Molecular Mass": "290.44",
        "Boiling Point": "50-52 °C @ Press: 0.1 Torr",
        "Melting Point": "5 °C",
        "Density": "0.8728 g/cm³ @ Temp: 28 °C"
    }
}