{
    "cas_no": "85-86-9",
    "key_name": "1-(<em>p</em>-Phenylazophenylazo)-2-naphthol (Sudan III)",
    "cn_name": "溶剂红23;苏丹红;",
    "alternate_name": "2-Naphthalenol, 1-[2-[4-(2-phenyldiazenyl)phenyl]diazenyl]-;C.I. Solvent Red 23;2-Naphthalenol, 1-[[4-(phenylazo)phenyl]azo]-;2-Naphthol, 1-(<em>p</em>-phenylazophenylazo)-;1-[2-[4-(2-Phenyldiazenyl)phenyl]diazenyl]-2-naphthalenol;C.I. 26100;111440 Red;Brasilazina Oil Scarlet;Certiqual Oil Red;Fast Oil Scarlet III;Fat Red R;Fat Red HRR;Fat Red RS;Fat Scarlet LB;Grasal Brilliant Red G;Grasan Brilliant Red G;Oil Red 3G;Oil Red AS;Oil Scarlet G;Organol Red BS;Organol Scarlet;1-(<em>p</em>-Phenylazophenylazo)-2-naphthol;Silotras Scarlet TB;Somalia Red III;Stearix Scarlet;Sudan Red III;Sudan P III;Tetrazobenzene-β-naphthol;Toney Red;D and C Red No. 17;Sudan III;Red Zh;Fat Soluble Red Zh;FD And C Red No. 17;Red No. 225;Solvent Red 23;Oil Red Extra;Sudan 3;Japan Red 225;Japan Red No. 225;NSC 65825;NSC 8995;D&amp;C Red No. 17;Oil Red DR 126;DC Red 17;Red 17;VisioTag;1-(<em>p</em>-Phenylazophenylazo)-2-naphthol (Sudan III);D&amp;C Red No. 17 K 7007",
    "duplicated_cas_no": "",
    "SMILES": "N(=NC1=CC=C(N=NC2=CC=CC=C2)C=C1)C=3C4=C(C=CC3O)C=CC=C4",
    "meta_data": {
        "InChI": "InChI=1S/C22H16N4O/c27-21-15-10-16-6-4-5-9-20(16)22(21)26-25-19-13-11-18(12-14-19)24-23-17-7-2-1-3-8-17/h1-15,27H",
        "InChIKey": null,
        "Canonical SMILES": "OC=1C=CC=2C=CC=CC2C1N=NC3=CC=C(N=NC=4C=CC=CC4)C=C3",
        "Molecular Formula": "C<sub>22</sub>H<sub>16</sub>N<sub>4</sub>O",
        "Molecular Mass": "352.39",
        "Melting Point": "195 °C"
    }
}