{
    "cas_no": "2491-74-9",
    "key_name": "<em>N</em>,<em>N</em>-Dimethyl-4-[2-(4-nitrophenyl)diazenyl]benzenamine",
    "cn_name": "4-硝基-4-二甲基氨基偶氮苯;",
    "alternate_name": "Benzenamine, <em>N</em>,<em>N</em>-dimethyl-4-[2-(4-nitrophenyl)diazenyl]-;Aniline, <em>N</em>,<em>N</em>-dimethyl-<em>p</em>-[(<em>p</em>-nitrophenyl)azo]-;Benzenamine, <em>N</em>,<em>N</em>-dimethyl-4-[(4-nitrophenyl)azo]-;<em>N</em>,<em>N</em>-Dimethyl-4-[2-(4-nitrophenyl)diazenyl]benzenamine;4′-Nitro-<em>N</em>,<em>N</em>-dimethyl-4-aminoazobenzene;<em>p</em>-Dimethylamino-<em>p</em>′-nitroazobenzene;4-(Dimethylamino)-4′-nitroazobenzene;4-Nitro-4′-(dimethylamino)azobenzene;<em>N</em>,<em>N</em>-Dimethyl-4-[(4-nitrophenyl)azo]aniline;<em>p</em>-Nitrobenzeneazodimethylaniline;4′-Nitro-4-dimethylaminoazobenzene;DAN-AB;4-(<em>N</em>,<em>N</em>-Dimethylamino)-4′-nitroazobenzene;Disperse Orange G;Disperse Orange SE 2FL",
    "duplicated_cas_no": "",
    "SMILES": "N(C)(C)C1=CC=C(N=NC2=CC=C(N(=O)=O)C=C2)C=C1",
    "meta_data": {
        "InChI": "InChI=1S/C14H14N4O2/c1-17(2)13-7-3-11(4-8-13)15-16-12-5-9-14(10-6-12)18(19)20/h3-10H,1-2H3",
        "InChIKey": null,
        "Canonical SMILES": "O=N(=O)C1=CC=C(N=NC2=CC=C(C=C2)N(C)C)C=C1",
        "Molecular Formula": "C<sub>14</sub>H<sub>14</sub>N<sub>4</sub>O<sub>2</sub>",
        "Molecular Mass": "270.29",
        "Melting Point": "236 °C"
    }
}