{
    "cas_no": "1168-87-2",
    "key_name": "<em>N</em>-[(Phenylmethoxy)carbonyl]-<span class=\"text-smallcaps\">L</span>-alanine 4-nitrophenyl ester",
    "cn_name": null,
    "alternate_name": "<span class=\"text-smallcaps\">L</span>-Alanine, <em>N</em>-[(phenylmethoxy)carbonyl]-, 4-nitrophenyl ester;Alanine, <em>N</em>-carboxy-, <em>N</em>-benzyl <em>p</em>-nitrophenyl ester, <span class=\"text-smallcaps\">L</span>-;Alanine, <em>N</em>-carboxy-, <em>N</em>-benzyl <em>p</em>-nitrophenyl ester;<em>N</em>-[(Phenylmethoxy)carbonyl]-<span class=\"text-smallcaps\">L</span>-alanine 4-nitrophenyl ester;<em>N</em>-Carbobenzoxy-<span class=\"text-smallcaps\">L</span>-alanine <em>p</em>-nitrophenyl ester;<em>N</em>-(Benzyloxycarbonyl)-<span class=\"text-smallcaps\">L</span>-alanine <em>p</em>-nitrophenyl ester;<em>p</em>-Nitrophenyl <em>N</em>-(benzyloxycarbonyl)-<span class=\"text-smallcaps\">L</span>-2-aminopropionate;Benzyloxycarbonyl-<span class=\"text-smallcaps\">L</span>-alanine <em>p</em>-nitrophenyl ester;<em>N</em>-α-Carbobenzoxy-<span class=\"text-smallcaps\">L</span>-alanine <em>p</em>-nitrophenyl ester;α-<em>N</em>-Benzyloxycarbonyl-<span class=\"text-smallcaps\">L</span>-alanine <em>p</em>-nitrophenyl ester;<em>N</em>-(Benzyloxycarbonyl)-<span class=\"text-smallcaps\">L</span>-alanine 4-nitrophenyl ester;Carbobenzoxy-<span class=\"text-smallcaps\">L</span>-alanine <em>p</em>-nitrophenyl ester;<em>N</em>-(Benzyloxycarbonyl)alanine 4-nitrophenyl ester",
    "duplicated_cas_no": "",
    "SMILES": "O(C([C@@H](NC(OCC1=CC=CC=C1)=O)C)=O)C2=CC=C(N(=O)=O)C=C2",
    "meta_data": {
        "InChI": "InChI=1S/C17H16N2O6/c1-12(18-17(21)24-11-13-5-3-2-4-6-13)16(20)25-15-9-7-14(8-10-15)19(22)23/h2-10,12H,11H2,1H3,(H,18,21)/t12-/m0/s1",
        "InChIKey": null,
        "Canonical SMILES": "O=C(OCC=1C=CC=CC1)NC(C(=O)OC2=CC=C(C=C2)N(=O)=O)C",
        "Molecular Formula": "C<sub>17</sub>H<sub>16</sub>N<sub>2</sub>O<sub>6</sub>",
        "Molecular Mass": "344.32",
        "Melting Point": "75 °C"
    }
}