{
    "cas_no": "21564-17-0",
    "key_name": "2-(Thiocyanomethylthio)benzothiazole",
    "cn_name": "2-(硫氰酸甲基巯基)苯并噻唑;2-(氰硫基甲硫基)苯并噻唑;苯噻氰;",
    "alternate_name": "Thiocyanic acid, (2-benzothiazolylthio)methyl ester;2-[(Thiocyanatomethyl)thio]benzothiazole;Busan 72;2-(Thiocyanomethylthio)benzothiazole;Busan 15;TCMTB;Busan 72A;KVK 733059;Busan 30I;Busan 30-1;Busan 30;Ichiban;Busan 70;Alentisan;Busan 71;Busan 30A;Benthiazole;Superdavloxan;Busan 1030;Sancelant TMB;2-(Thiocyanatomethylthio)benzo[<em>d</em>]thiazole;Delsan 30;Busan 80;Busan 30L;Nusan;Busan 1118;Busan 30WBA;BN 30;Bulab 6009;Afrotin CRO;Busan 30WB;Ascend;Nu-flow T;Guzafan;Argent 30;Argent;Tolcide 2230;2-(Thiocyanatomethylthio)-1,3-benzothiazole;Fungicide FDE;Acticide WB 300;(2-Benzothiazolylthio)methyl thiocyanate;2-(Thiocyanomethylthio)benzthiazole",
    "duplicated_cas_no": "120946-97-6;6441-45-8;56532-60-6;56996-45-3;64441-45-8;64441-44-7",
    "SMILES": "S(CSC#N)C1=NC=2C(S1)=CC=CC2",
    "meta_data": {
        "InChI": "InChI=1S/C9H6N2S3/c10-5-12-6-13-9-11-7-3-1-2-4-8(7)14-9/h1-4H,6H2",
        "InChIKey": null,
        "Canonical SMILES": "N#CSCSC1=NC=2C=CC=CC2S1",
        "Molecular Formula": "C<sub>9</sub>H<sub>6</sub>N<sub>2</sub>S<sub>3</sub>",
        "Molecular Mass": "238.35",
        "Boiling Point": "&gt;120 °C",
        "Melting Point": "&lt;-10 °C",
        "Density": "1.4 g/cm³"
    }
}