{
    "cas_no": "16829-91-7",
    "key_name": "1-Octanaminium, <em>N</em>,<em>N</em>,<em>N</em>-trioctyl-, iodide (1:1)",
    "cn_name": "碘化四-n-辛铵;",
    "alternate_name": "1-Octanaminium, <em>N</em>,<em>N</em>,<em>N</em>-trioctyl-, iodide (1:1);Ammonium, tetraoctyl-, iodide;Tetraoctylammonium iodide;1-Octanaminium, <em>N</em>,<em>N</em>,<em>N</em>-trioctyl-, iodide;Tetra-<em>n</em>-octylammonium iodide",
    "duplicated_cas_no": "",
    "SMILES": "[N+](CCCCCCCC)(CCCCCCCC)(CCCCCCCC)CCCCCCCC.[I-]",
    "meta_data": {
        "InChI": "InChI=1S/C32H68N.HI/c1-5-9-13-17-21-25-29-33(30-26-22-18-14-10-6-2,31-27-23-19-15-11-7-3)32-28-24-20-16-12-8-4;/h5-32H2,1-4H3;1H/q+1;/p-1",
        "InChIKey": null,
        "Canonical SMILES": "[I-].CCCCCCCC[N+](CCCCCCCC)(CCCCCCCC)CCCCCCCC",
        "Molecular Formula": "C<sub>32</sub>H<sub>68</sub>N.I",
        "Molecular Mass": "",
        "Melting Point": "121-122 °C"
    }
}