{
    "cas_no": "20485-41-0",
    "key_name": "4-Methyl-5-thiazolecarboxylic acid",
    "cn_name": "4-甲基噻唑-5-甲酸;4-甲基噻唑-5-羧酸;",
    "alternate_name": "5-Thiazolecarboxylic acid, 4-methyl-;4-Methyl-5-thiazolecarboxylic acid;4-Methyl-1,3-thiazole-5-carboxylic acid",
    "duplicated_cas_no": "1430343-28-4",
    "SMILES": "C(O)(=O)C1=C(C)N=CS1",
    "meta_data": {
        "InChI": "InChI=1S/C5H5NO2S/c1-3-4(5(7)8)9-2-6-3/h2H,1H3,(H,7,8)",
        "InChIKey": null,
        "Canonical SMILES": "O=C(O)C=1SC=NC1C",
        "Molecular Formula": "C<sub>5</sub>H<sub>5</sub>NO<sub>2</sub>S",
        "Molecular Mass": "143.16",
        "Melting Point": "280 °C (decomp)"
    }
}