{
    "cas_no": "84-85-5",
    "key_name": "4-Methoxy-1-naphthol",
    "cn_name": "4-甲氧基-1-萘酚;1-羟基-4-甲氧基萘;",
    "alternate_name": "1-Naphthalenol, 4-methoxy-;1-Naphthol, 4-methoxy-;4-Methoxy-1-naphthalenol;C.I. 76620;Ursol Grounding Blue BL;4-Methoxy-α-naphthol;4-Methoxy-1-naphthol;1-Hydroxy-4-methoxynaphthalene;ET 2111;Walrycin A;Quino Power MNT;QS 30;3-Phenanthrenol, 9-methoxy-",
    "duplicated_cas_no": "2761696-02-8",
    "SMILES": "O(C)C=1C2=C(C(O)=CC1)C=CC=C2",
    "meta_data": {
        "InChI": "InChI=1S/C11H10O2/c1-13-11-7-6-10(12)8-4-2-3-5-9(8)11/h2-7,12H,1H3",
        "InChIKey": null,
        "Canonical SMILES": "OC1=CC=C(OC)C=2C=CC=CC12",
        "Molecular Formula": "C<sub>11</sub>H<sub>10</sub>O<sub>2</sub>",
        "Molecular Mass": "174.20",
        "Melting Point": "124-125 °C"
    }
}