{
    "cas_no": "129-06-6",
    "key_name": "(±)-Warfarin sodium",
    "cn_name": "华法林钠;3-(3-氧代-1-苯基丁基)-4-羟基-2H-1-苯并吡喃-2-酮钠盐;",
    "alternate_name": "2<em>H</em>-1-Benzopyran-2-one, 4-hydroxy-3-(3-oxo-1-phenylbutyl)-, sodium salt (1:1);Coumarin, 3-(α-acetonylbenzyl)-4-hydroxy-, sodium salt;2<em>H</em>-1-Benzopyran-2-one, 4-hydroxy-3-(3-oxo-1-phenylbutyl)-, sodium salt;Warfarin, sodium deriv.;3-(α-Acetonylbenzyl)-4-hydroxycoumarin sodium;Athrombin;Coumadin sodium;Prothromadin;Panwarfin;Sodium coumadin;Sodium warfarin;Warfarin sodium;Warfarin sodium salt;Sodium, [[2-oxo-3-(3-oxo-1-phenylbutyl)-2<em>H</em>-1-benzopyran-4-yl]oxy]-;Coumafene sodium;Varfine;Tintorane;Marevan;Waran;Warfilone;Coumadin;Ratsul Soluble;Zoocoumarin sodium salt;(±)-Warfarin sodium;Aldocumar;Coumadan Sodico;Dimantil;Farin;Coumadine;Orfarin;Simarc 2;Sofarin;UniWarfin;Warfarina;Warfil 5;Marevam;Taro-warfarin;Warfant",
    "duplicated_cas_no": "12795-55-0;51821-81-9;859043-62-2",
    "SMILES": "C(CC(C)=O)(C1=C(O)C=2C(OC1=O)=CC=CC2)C3=CC=CC=C3.[Na]",
    "meta_data": {
        "InChI": "InChI=1S/C19H16O4.Na/c1-12(20)11-15(13-7-3-2-4-8-13)17-18(21)14-9-5-6-10-16(14)23-19(17)22;/h2-10,15,21H,11H2,1H3;",
        "InChIKey": null,
        "Canonical SMILES": "[Na].O=C1OC=2C=CC=CC2C(O)=C1C(C=3C=CC=CC3)CC(=O)C",
        "Molecular Formula": "C<sub>19</sub>H<sub>16</sub>O<sub>4</sub>.Na",
        "Molecular Mass": "",
        "Melting Point": "160 °C",
        "Density": "1.3128 g/cm³ (solid)"
    }
}