{
    "cas_no": "124027-47-0",
    "key_name": "Velnacrine",
    "cn_name": null,
    "alternate_name": "1-Acridinol, 9-amino-1,2,3,4-tetrahydro-;9-Amino-1,2,3,4-tetrahydro-1-acridinol;9-Amino-1,2,3,4-tetrahydroacridin-1-ol;1-Hydroxytacrine;Velnacrine;(±)-9-Amino-1,2,3,4-tetrahydroacridin-1-ol;Hydroxytacrine",
    "duplicated_cas_no": "104675-29-8;112964-98-4;121445-17-8",
    "SMILES": "NC1=C2C(=NC=3C1=CC=CC3)CCCC2O",
    "meta_data": {
        "InChI": "InChI=1S/C13H14N2O/c14-13-8-4-1-2-5-9(8)15-10-6-3-7-11(16)12(10)13/h1-2,4-5,11,16H,3,6-7H2,(H2,14,15)",
        "InChIKey": null,
        "Canonical SMILES": "OC1C2=C(N)C=3C=CC=CC3N=C2CCC1",
        "Molecular Formula": "C<sub>13</sub>H<sub>14</sub>N<sub>2</sub>O",
        "Molecular Mass": "214.26",
        "Melting Point": "245 °C"
    }
}