{
    "cas_no": "91-09-8",
    "key_name": "Methyl α-<span class=\"text-smallcaps\">D</span>-xylopyranoside",
    "cn_name": "甲基-Α-D-吡喃木糖;",
    "alternate_name": "α-<span class=\"text-smallcaps\">D</span>-Xylopyranoside, methyl;Xylopyranoside, methyl, α-<span class=\"text-smallcaps\">D</span>-;Methyl α-<span class=\"text-smallcaps\">D</span>-xylopyranoside;Methyl α-xyloside;α-Methyl <span class=\"text-smallcaps\">D</span>-xyloside",
    "duplicated_cas_no": "31394-51-1",
    "SMILES": "O(C)[C@@H]1[C@H](O)[C@@H](O)[C@H](O)CO1",
    "meta_data": {
        "InChI": "InChI=1S/C6H12O5/c1-10-6-5(9)4(8)3(7)2-11-6/h3-9H,2H2,1H3/t3-,4+,5-,6+/m1/s1",
        "InChIKey": null,
        "Canonical SMILES": "OC1COC(OC)C(O)C1O",
        "Molecular Formula": "C<sub>6</sub>H<sub>12</sub>O<sub>5</sub>",
        "Molecular Mass": "164.16",
        "Melting Point": "91 °C"
    }
}