{
    "cas_no": "2439-55-6",
    "key_name": "Methyloctadecylamine",
    "cn_name": "N-甲基-1-十八胺;",
    "alternate_name": "1-Octadecanamine, <em>N</em>-methyl-;Octadecylamine, <em>N</em>-methyl-;<em>N</em>-Methyl-1-octadecanamine;<em>N</em>-Methylstearylamine;<em>N</em>-Methyloctadecylamine;<em>N</em>-Methyl-<em>N</em>-octadecylamine;<em>N</em>-Methyl-<em>N</em>-stearylamine;Methylstearylamine;Octadecylmethylamine;<em>N</em>-Stearyl-<em>N</em>-methylamine;Methyloctadecylamine;<em>N</em>-Methyloctadecanamine;NSC 66468;<em>n</em>-Octadecylmethylamine",
    "duplicated_cas_no": "",
    "SMILES": "C(CCCCCCCCNC)CCCCCCCCC",
    "meta_data": {
        "InChI": "InChI=1S/C19H41N/c1-3-4-5-6-7-8-9-10-11-12-13-14-15-16-17-18-19-20-2/h20H,3-19H2,1-2H3",
        "InChIKey": null,
        "Canonical SMILES": "N(C)CCCCCCCCCCCCCCCCCC",
        "Molecular Formula": "C<sub>19</sub>H<sub>41</sub>N",
        "Molecular Mass": "283.54",
        "Boiling Point": "155 °C @ Press: 0.5 Torr"
    }
}