{
    "cas_no": "2627-86-3",
    "key_name": "(<em>S</em>)-1-Phenylethylamine",
    "cn_name": "S-1-苯乙胺;S(-)-alpha-甲基苄胺;",
    "alternate_name": "Benzenemethanamine, α-methyl-, (α<em>S</em>)-;Benzylamine, α-methyl-, (<em>S</em>)-(-)-;Benzenemethanamine, α-methyl-, (<em>S</em>)-;Benzylamine, α-methyl-, (-)-;(α<em>S</em>)-α-Methylbenzenemethanamine;<span class=\"text-smallcaps\">D</span>-(-)-(α-Phenylethyl)amine;(-)-1-Phenylethylamine;<span class=\"text-smallcaps\">L</span>-(-)-α-Methylbenzylamine;(-)-α-Methylbenzylamine;<span class=\"text-smallcaps\">L</span>-(-)-α-Phenylethylamine;(<em>S</em>)-(-)-α-Phenylethylamine;(<em>S</em>)-α-Phenethylamine;(<em>S</em>)-(-)-α-Methylbenzylamine;(<em>S</em>)-(-)-α-Phenethylamine;(-)-α-Phenylethylamine;<em>S</em>-α-Methylbenzylamine;<span class=\"text-smallcaps\">L</span>-(-)-1-Phenylethylamine;<span class=\"text-smallcaps\">L</span>-α-Phenylethylamine;(-)-α-Phenethylamine;(<em>S</em>)-(-)-Phenethylamine;(<em>S</em>)-α-Phenylethylamine;(<em>S</em>)-Phenethylamine;(<em>S</em>)-1-Phenylethanamine;(<em>S</em>)-α-Methylbenzenemethanamine;<span class=\"text-smallcaps\">L</span>-Phenethylamine;(1<em>S</em>)-Phenylethylamine;(1<em>S</em>)-(-)-1-Phenylethylamine;(<em>S</em>)-1-Phenethylamine;(-)-1-Phenethylamine;(<em>S</em>)-(-)-1-Phenethylamine;(<em>S</em>)-(-)-1-Phenylethylamine;(<em>S</em>)-1-Phenylethylamine;(-)-Phenylethylamine;(-)-1-Amino-1-phenylethane;(<em>S</em>)-1-Amino-1-phenylethane;(<em>S</em>)-Methylbenzylamine;<span class=\"text-smallcaps\">L</span>-α-Methylbenzylamine;(-)-α-Methylbenzenemethanamine;(a<em>S</em>)-α-Methylbenzenemethanamine;(<em>S</em>)-Phenylethylamine;<span class=\"text-smallcaps\">L</span>-1-Amino-ethylbenzene;1-(<em>S</em>)-Phenylethylamine;(1<em>S</em>)-1-Phenylethylamine;(<em>S</em>)-1-Phenyl-1-aminoethane;(<em>S</em>)-1-Aminoethylbenzene;(1S)-1-Phenylethanamine;(<em>S</em>)-1-Phenyl-1-ethanamine;(1<em>S</em>)-1-Phenylethanamine;(-)-((<em>S</em>)-α-Methylbenzyl)amine;(<em>S</em>)-(-)-Phenylethylamine;<span class=\"text-smallcaps\">L</span>-1-Phenylethylamine;(1S)-1-Phenylethan-1-amine",
    "duplicated_cas_no": "137577-63-0",
    "SMILES": "[C@@H](C)(N)C1=CC=CC=C1",
    "meta_data": {
        "InChI": "InChI=1S/C8H11N/c1-7(9)8-5-3-2-4-6-8/h2-7H,9H2,1H3/t7-/m0/s1",
        "InChIKey": null,
        "Canonical SMILES": "NC(C=1C=CC=CC1)C",
        "Molecular Formula": "C<sub>8</sub>H<sub>11</sub>N",
        "Molecular Mass": "121.18",
        "Boiling Point": "184-186 °C",
        "Melting Point": "168-169 °C",
        "Density": "0.952 g/cm³ @ Temp: 21 °C"
    }
}