{
    "cas_no": "120068-79-3",
    "key_name": "5-Amino-1-[2,6-dichloro-4-(trifluoromethyl)phenyl]-1<em>H</em>-pyrazole-3-carbonitrile",
    "cn_name": "5-氨基-3-氰基-1-(2,6-二氯-4-三氟甲基苯基)吡唑;",
    "alternate_name": "1<em>H</em>-Pyrazole-3-carbonitrile, 5-amino-1-[2,6-dichloro-4-(trifluoromethyl)phenyl]-;5-Amino-1-[2,6-dichloro-4-(trifluoromethyl)phenyl]-1<em>H</em>-pyrazole-3-carbonitrile;5-Amino-3-cyano-1-[2,6-dichloro-4-(trifluoromethyl)phenyl]pyrazole;5-Amino-1-(2,6-dichloro-4-trifluoromethylphenyl)-3-cyanopyrazole;1-[2,6-Dichloro-4-(trifluoromethyl)phenyl]-3-cyano-5-aminopyrazole;5-Amino-3-cyano-1-[2,6-dichloro-4-(trifluoromethyl)phenyl]-1<em>H</em>-pyrazole;Fipronil-detrifluoromethylsulfinyl",
    "duplicated_cas_no": "",
    "SMILES": "NC=1N(N=C(C#N)C1)C2=C(Cl)C=C(C(F)(F)F)C=C2Cl",
    "meta_data": {
        "InChI": "InChI=1S/C11H5Cl2F3N4/c12-7-1-5(11(14,15)16)2-8(13)10(7)20-9(18)3-6(4-17)19-20/h1-3H,18H2",
        "InChIKey": null,
        "Canonical SMILES": "N#CC1=NN(C(N)=C1)C2=C(Cl)C=C(C=C2Cl)C(F)(F)F",
        "Molecular Formula": "C<sub>11</sub>H<sub>5</sub>Cl<sub>2</sub>F<sub>3</sub>N<sub>4</sub>",
        "Molecular Mass": "321.09",
        "Melting Point": "132-141 °C"
    }
}