{
    "cas_no": "1074-86-8",
    "key_name": "Indole-4-carboxaldehyde",
    "cn_name": "4-吲哚甲醛;吲哚-4-甲醛;",
    "alternate_name": "1<em>H</em>-Indole-4-carboxaldehyde;Indole-4-carboxaldehyde;4-Formylindole;4-Indolecarbaldehyde;NSC 337264;4-Formyl-1<em>H</em>-indole;1<em>H</em>-Indole-4-carbaldehyde",
    "duplicated_cas_no": "",
    "SMILES": "C(=O)C1=C2C(NC=C2)=CC=C1",
    "meta_data": {
        "InChI": "InChI=1S/C9H7NO/c11-6-7-2-1-3-9-8(7)4-5-10-9/h1-6,10H",
        "InChIKey": null,
        "Canonical SMILES": "O=CC1=CC=CC=2NC=CC12",
        "Molecular Formula": "C<sub>9</sub>H<sub>7</sub>NO",
        "Molecular Mass": "145.16",
        "Melting Point": "141-143 °C"
    }
}