{
    "cas_no": "1205-72-7",
    "key_name": "4-Piperidinamine, 1-(phenylmethyl)-, hydrochloride (1:2)",
    "cn_name": "4-氨基-1-苄基哌啶二盐酸盐水合物;",
    "alternate_name": "4-Piperidinamine, 1-(phenylmethyl)-, hydrochloride (1:2);Piperidine, 4-amino-1-benzyl-, dihydrochloride;4-Piperidinamine, 1-(phenylmethyl)-, dihydrochloride;4-Amino-1-benzylpiperidine dihydrochloride;1-Benzyl-4-aminopiperidine dihydrochloride",
    "duplicated_cas_no": "",
    "SMILES": "C(N1CCC(N)CC1)C2=CC=CC=C2.Cl",
    "meta_data": {
        "InChI": "InChI=1S/C12H18N2.2ClH/c13-12-6-8-14(9-7-12)10-11-4-2-1-3-5-11;;/h1-5,12H,6-10,13H2;2*1H",
        "InChIKey": null,
        "Canonical SMILES": "Cl.NC1CCN(CC=2C=CC=CC2)CC1",
        "Molecular Formula": "C<sub>12</sub>H<sub>18</sub>N<sub>2</sub>.2ClH",
        "Molecular Mass": "",
        "Melting Point": "275 °C"
    }
}