{
    "cas_no": "72093-04-0",
    "key_name": "3-Chloro-4-methylpyridine",
    "cn_name": null,
    "alternate_name": "Pyridine, 3-chloro-4-methyl-;4-Picoline, 3-chloro-;3-Chloro-4-methylpyridine;3-Chloro-4-picoline",
    "duplicated_cas_no": "",
    "SMILES": "CC=1C(Cl)=CN=CC1",
    "meta_data": {
        "InChI": "InChI=1S/C6H6ClN/c1-5-2-3-8-4-6(5)7/h2-4H,1H3",
        "InChIKey": null,
        "Canonical SMILES": "ClC=1C=NC=CC1C",
        "Molecular Formula": "C<sub>6</sub>H<sub>6</sub>ClN",
        "Molecular Mass": "127.57",
        "Boiling Point": "178 °C"
    }
}