{
    "cas_no": "84380-01-8",
    "key_name": "α-Arbutin",
    "cn_name": "alpha-熊果苷;alpha-熊果甙;4-氢苯醌-alpha-D-吡喃葡萄糖甙;对苯二酚-alpha-D-葡萄糖苷;",
    "alternate_name": "α-<span class=\"text-smallcaps\">D</span>-Glucopyranoside, 4-hydroxyphenyl;4-Hydroxyphenyl α-<span class=\"text-smallcaps\">D</span>-glucopyranoside;Hydroquinone <em>O</em>-α-<span class=\"text-smallcaps\">D</span>-glucopyranoside;α-Arbutin",
    "duplicated_cas_no": "",
    "SMILES": "O([C@H]1O[C@H](CO)[C@@H](O)[C@H](O)[C@H]1O)C2=CC=C(O)C=C2",
    "meta_data": {
        "InChI": "InChI=1S/C12H16O7/c13-5-8-9(15)10(16)11(17)12(19-8)18-7-3-1-6(14)2-4-7/h1-4,8-17H,5H2/t8-,9-,10+,11-,12+/m1/s1",
        "InChIKey": null,
        "Canonical SMILES": "OC1=CC=C(OC2OC(CO)C(O)C(O)C2O)C=C1",
        "Molecular Formula": "C<sub>12</sub>H<sub>16</sub>O<sub>7</sub>",
        "Molecular Mass": "272.25",
        "Melting Point": "205-208 °C"
    }
}