{
    "cas_no": "100124-07-0",
    "key_name": "<em>B</em>-4-Phenoxathiinylboronic acid",
    "cn_name": "吩恶噻-4-硼酸;",
    "alternate_name": "Boronic acid, <em>B</em>-4-phenoxathiinyl-;4-Phenoxathiinboronic acid;Boronic acid, 4-phenoxathiinyl-;<em>B</em>-4-Phenoxathiinylboronic acid;Phenoxathiin-4-ylboronic acid",
    "duplicated_cas_no": "",
    "SMILES": "B(O)(O)C1=C2C(SC=3C(O2)=CC=CC3)=CC=C1",
    "meta_data": {
        "InChI": "InChI=1S/C12H9BO3S/c14-13(15)8-4-3-7-11-12(8)16-9-5-1-2-6-10(9)17-11/h1-7,14-15H",
        "InChIKey": null,
        "Canonical SMILES": "OB(O)C=1C=CC=C2SC=3C=CC=CC3OC21",
        "Molecular Formula": "C<sub>12</sub>H<sub>9</sub>BO<sub>3</sub>S",
        "Molecular Mass": "244.07",
        "Melting Point": "156.8-157 °C"
    }
}