{
    "cas_no": "80584-91-4",
    "key_name": "1,3,5-Triazine-2,4,6-triaminocaproic acid",
    "cn_name": "2,4,6-三(氨基己酸基)-1,3,5-三嗪;",
    "alternate_name": "Hexanoic acid, 6,6′,6′′-(1,3,5-triazine-2,4,6-triyltriimino)tris-;Hexanoic acid, 6,6′,6′′-(<em>s</em>-triazine-2,4,6-triyltriimino)tri-;6,6′,6′′-(1,3,5-Triazine-2,4,6-triyltriimino)tris[hexanoic acid];6,6′,6′′-(1,3,5-Triazine-2,4,6-triyltriimino)trihexanoic acid;Irgacor L 190;Irgacor 190;6,6′,6′′-(1,3,5-Triazine-2,4,6-triyltriimino)tris(hexanoic acid);Belcor 590;Irgacor L 190 Plus;1,3,5-Triazine-2,4,6-triaminocaproic acid;L 190;Belcor 593;L 190 Plus;Irgacor L 190P",
    "duplicated_cas_no": "109075-25-4",
    "SMILES": "N(CCCCCC(O)=O)C=1N=C(NCCCCCC(O)=O)N=C(NCCCCCC(O)=O)N1",
    "meta_data": {
        "InChI": "InChI=1S/C21H36N6O6/c28-16(29)10-4-1-7-13-22-19-25-20(23-14-8-2-5-11-17(30)31)27-21(26-19)24-15-9-3-6-12-18(32)33/h1-15H2,(H,28,29)(H,30,31)(H,32,33)(H3,22,23,24,25,26,27)",
        "InChIKey": null,
        "Canonical SMILES": "O=C(O)CCCCCNC=1N=C(N=C(N1)NCCCCCC(=O)O)NCCCCCC(=O)O",
        "Molecular Formula": "C<sub>21</sub>H<sub>36</sub>N<sub>6</sub>O<sub>6</sub>",
        "Molecular Mass": "468.55",
        "Melting Point": "186-188 °C"
    }
}