{
    "cas_no": "737-86-0",
    "key_name": "Pyridoxal isonicotinoyl hydrazone",
    "cn_name": null,
    "alternate_name": "4-Pyridinecarboxylic acid, 2-[[3-hydroxy-5-(hydroxymethyl)-2-methyl-4-pyridinyl]methylene]hydrazide;Isonicotinic acid, [[3-hydroxy-5-(hydroxymethyl)-2-methyl-4-pyridyl]methylene]hydrazide;4-Pyridinecarboxylic acid, [[3-hydroxy-5-(hydroxymethyl)-2-methyl-4-pyridinyl]methylene]hydrazide;Isonicotinic acid, hydrazide, hydrazone with pyridoxal;Pyridoxal isonicotinoyl hydrazone;PIH;NSC 77674",
    "duplicated_cas_no": "82845-52-1",
    "SMILES": "C(=NNC(=O)C=1C=CN=CC1)C=2C(CO)=CN=C(C)C2O",
    "meta_data": {
        "InChI": "InChI=1S/C14H14N4O3/c1-9-13(20)12(11(8-19)6-16-9)7-17-18-14(21)10-2-4-15-5-3-10/h2-7,19-20H,8H2,1H3,(H,18,21)",
        "InChIKey": null,
        "Canonical SMILES": "O=C(NN=CC1=C(O)C(=NC=C1CO)C)C=2C=CN=CC2",
        "Molecular Formula": "C<sub>14</sub>H<sub>14</sub>N<sub>4</sub>O<sub>3</sub>",
        "Molecular Mass": "286.29",
        "Melting Point": "261-262 °C (decomp)"
    }
}