{
    "cas_no": "1548-84-1",
    "key_name": "Phenol, 2,3,4,5,6-pentafluoro-, 1-benzoate",
    "cn_name": null,
    "alternate_name": "Phenol, 2,3,4,5,6-pentafluoro-, 1-benzoate;Phenol, pentafluoro-, benzoate;Pentafluorophenyl benzoate",
    "duplicated_cas_no": "",
    "SMILES": "O(C(=O)C1=CC=CC=C1)C2=C(F)C(F)=C(F)C(F)=C2F",
    "meta_data": {
        "InChI": "InChI=1S/C13H5F5O2/c14-7-8(15)10(17)12(11(18)9(7)16)20-13(19)6-4-2-1-3-5-6/h1-5H",
        "InChIKey": null,
        "Canonical SMILES": "O=C(OC=1C(F)=C(F)C(F)=C(F)C1F)C=2C=CC=CC2",
        "Molecular Formula": "C<sub>13</sub>H<sub>5</sub>F<sub>5</sub>O<sub>2</sub>",
        "Molecular Mass": "288.17",
        "Melting Point": "76.5-78.2 °C"
    }
}