{
    "cas_no": "7686-78-4",
    "key_name": "1,1-Diethyl 2-ethenyl-1,1-cyclopropanedicarboxylate",
    "cn_name": null,
    "alternate_name": "1,1-Cyclopropanedicarboxylic acid, 2-ethenyl-, 1,1-diethyl ester;1,1-Cyclopropanedicarboxylic acid, 2-vinyl-, diethyl ester;1,1-Cyclopropanedicarboxylic acid, 2-ethenyl-, diethyl ester;1,1-Cyclopropanedicarboxylic acid, vinyl-, diethyl ester;1,1-Diethyl 2-ethenyl-1,1-cyclopropanedicarboxylate;Diethyl 2-vinylcyclopropane-1,1-dicarboxylate;1,1-Bis(ethoxycarbonyl)-2-vinylcyclopropane;Diethyl 2-ethenylcyclopropane-1,1-dicarboxylate;1,1-Diethoxycarbonyl-2-vinylcyclopropane",
    "duplicated_cas_no": "137329-10-3;79930-08-8",
    "SMILES": "C(OCC)(=O)C1(C(OCC)=O)C(C=C)C1",
    "meta_data": {
        "InChI": "InChI=1S/C11H16O4/c1-4-8-7-11(8,9(12)14-5-2)10(13)15-6-3/h4,8H,1,5-7H2,2-3H3",
        "InChIKey": null,
        "Canonical SMILES": "O=C(OCC)C1(C(=O)OCC)CC1C=C",
        "Molecular Formula": "C<sub>11</sub>H<sub>16</sub>O<sub>4</sub>",
        "Molecular Mass": "212.24",
        "Boiling Point": "69-72 °C @ Press: 0.5 Torr",
        "Density": "1.0381 g/cm³ @ Temp: 425 °C"
    }
}