{
    "cas_no": "1204-79-1",
    "key_name": "4′-Amino[1,1′-biphenyl]-4-ol",
    "cn_name": null,
    "alternate_name": "[1,1′-Biphenyl]-4-ol, 4′-amino-;4-Biphenylol, 4′-amino-;Phenol, <em>p</em>-(<em>p</em>-aminophenyl)-;4′-Amino[1,1′-biphenyl]-4-ol;4-Amino-4′-hydroxybiphenyl;4′-Amino-4-biphenylol;4-(4-Aminophenyl)phenol;4′-Hydroxy-4-aminobiphenyl",
    "duplicated_cas_no": "",
    "SMILES": "NC1=CC=C(C=C1)C2=CC=C(O)C=C2",
    "meta_data": {
        "InChI": "InChI=1S/C12H11NO/c13-11-5-1-9(2-6-11)10-3-7-12(14)8-4-10/h1-8,14H,13H2",
        "InChIKey": null,
        "Canonical SMILES": "OC=1C=CC(=CC1)C2=CC=C(N)C=C2",
        "Molecular Formula": "C<sub>12</sub>H<sub>11</sub>NO",
        "Molecular Mass": "185.22",
        "Melting Point": "271.5 °C"
    }
}