{
    "cas_no": "2637-37-8",
    "key_name": "2(1<em>H</em>)-Quinolinethione",
    "cn_name": "2-喹啉硫醇;",
    "alternate_name": "2(1<em>H</em>)-Quinolinethione;Carbostyril, thio-;2-Quinolinethiol;2-Mercaptoquinoline;Thiocarbostyril;2-Thioquinolone;2-Quinolinethione;NSC 408468;NSC 43642;2-Thioquinoline;1<em>H</em>-Quinoline-2-thione;1,2-Dihydroquinoline-2-thione",
    "duplicated_cas_no": "4481-48-5",
    "SMILES": "S=C1NC=2C(C=C1)=CC=CC2",
    "meta_data": {
        "InChI": "InChI=1S/C9H7NS/c11-9-6-5-7-3-1-2-4-8(7)10-9/h1-6H,(H,10,11)",
        "InChIKey": null,
        "Canonical SMILES": "S=C1C=CC=2C=CC=CC2N1",
        "Molecular Formula": "C<sub>9</sub>H<sub>7</sub>NS",
        "Molecular Mass": "161.22",
        "Boiling Point": "178 °C @ Press: 0.5 Torr",
        "Melting Point": "187 °C"
    }
}