{
    "cas_no": "10129-78-9",
    "key_name": "2,4-Dibromophenoxyacetic acid",
    "cn_name": "2,4-二溴苯氧基乙酸;",
    "alternate_name": "Acetic acid, 2-(2,4-dibromophenoxy)-;Acetic acid, (2,4-dibromophenoxy)-;2-(2,4-Dibromophenoxy)acetic acid;2,4-Dibromophenoxyacetic acid",
    "duplicated_cas_no": "",
    "SMILES": "O(CC(O)=O)C1=C(Br)C=C(Br)C=C1",
    "meta_data": {
        "InChI": "InChI=1S/C8H6Br2O3/c9-5-1-2-7(6(10)3-5)13-4-8(11)12/h1-3H,4H2,(H,11,12)",
        "InChIKey": null,
        "Canonical SMILES": "O=C(O)COC1=CC=C(Br)C=C1Br",
        "Molecular Formula": "C<sub>8</sub>H<sub>6</sub>Br<sub>2</sub>O<sub>3</sub>",
        "Molecular Mass": "309.94",
        "Melting Point": "151.8-153.5 °C"
    }
}