{
    "cas_no": "610-69-5",
    "key_name": "2-Nitrophenyl acetate",
    "cn_name": null,
    "alternate_name": "Acetic acid, 2-nitrophenyl ester;Acetic acid, <em>o</em>-nitrophenyl ester;Phenol, <em>o</em>-nitro-, acetate;2-Nitrophenyl acetate;<em>o</em>-Nitrophenyl acetate;2-Nitrophenol acetate;NPA;NSC 5397",
    "duplicated_cas_no": "",
    "SMILES": "N(=O)(=O)C1=C(OC(C)=O)C=CC=C1",
    "meta_data": {
        "InChI": "InChI=1S/C8H7NO4/c1-6(10)13-8-5-3-2-4-7(8)9(11)12/h2-5H,1H3",
        "InChIKey": null,
        "Canonical SMILES": "O=C(OC=1C=CC=CC1N(=O)=O)C",
        "Molecular Formula": "C<sub>8</sub>H<sub>7</sub>NO<sub>4</sub>",
        "Molecular Mass": "181.15",
        "Boiling Point": "141 °C",
        "Melting Point": "40.5 °C"
    }
}