{
    "cas_no": "112-50-5",
    "key_name": "Triethylene glycol monoethyl ether",
    "cn_name": "三乙二醇单乙醚;三甘醇单乙醚;三乙二醇乙醚;2-[2-(2-乙氧基乙氧基)乙氧基]乙醇;",
    "alternate_name": "Ethanol, 2-[2-(2-ethoxyethoxy)ethoxy]-;2-[2-(2-Ethoxyethoxy)ethoxy]ethanol;Dowanol TE;Ethoxytriglycol;Triethylene glycol monoethyl ether;Triglycol monoethyl ether;3,6,9-Trioxaundecan-1-ol;Ethoxytriethylene glycol;Ethyltriglycol;Poly-solve TE;12: PN: WO2017021334 SEQID: 18 claimed sequence",
    "duplicated_cas_no": "",
    "SMILES": "C(OCCOCC)COCCO",
    "meta_data": {
        "InChI": "InChI=1S/C8H18O4/c1-2-10-5-6-12-8-7-11-4-3-9/h9H,2-8H2,1H3",
        "InChIKey": null,
        "Canonical SMILES": "OCCOCCOCCOCC",
        "Molecular Formula": "C<sub>8</sub>H<sub>18</sub>O<sub>4</sub>",
        "Molecular Mass": "178.23",
        "Boiling Point": "255.4 °C @ Press: 760 Torr",
        "Melting Point": "-18.7 °C",
        "Density": "1.018 g/cm³ @ Temp: 25 °C"
    }
}