{
    "cas_no": "23981-80-8",
    "key_name": "(±)-Naproxen",
    "cn_name": "2-(6-甲氧基-2-萘基)丙酸;",
    "alternate_name": "2-Naphthaleneacetic acid, 6-methoxy-α-methyl-;6-Methoxy-α-methyl-2-naphthaleneacetic acid;2-(6-Methoxy-2-naphthyl)propionic acid;6-Methoxy-2-naphthyl-α-methylacetic acid;2-(6-Methoxy-2-naphthyl)propanoic acid;α-(6-Methoxy-2-naphthyl)propionic acid;(±)-Naproxen;<span class=\"text-smallcaps\">D</smallcap><smallcap>L</span>-2-(6-Methoxy-2-naphthyl)propionic acid;(±)-2-(6-Methoxy-2-naphthalenyl)propionic acid;<span class=\"text-smallcaps\">D</smallcap><smallcap>L</span>-Naproxen;(±)-6-Methoxy-α-methyl-2-naphthaleneacetic acid;(±)-2-(6-Methoxy-2-naphthyl)propionic acid;(<em>RS</em>)-Naproxen;Racemic naproxen;2-(6-Methoxynaphthalen-2-yl)propionic acid;2-(6-Methoxynaphthalen-2-yl)propanoic acid",
    "duplicated_cas_no": "26159-31-9;1264273-58-6",
    "SMILES": "C(C(O)=O)(C)C1=CC2=C(C=C(OC)C=C2)C=C1",
    "meta_data": {
        "InChI": "InChI=1S/C14H14O3/c1-9(14(15)16)10-3-4-12-8-13(17-2)6-5-11(12)7-10/h3-9H,1-2H3,(H,15,16)",
        "InChIKey": null,
        "Canonical SMILES": "O=C(O)C(C1=CC=C2C=C(OC)C=CC2=C1)C",
        "Molecular Formula": "C<sub>14</sub>H<sub>14</sub>O<sub>3</sub>",
        "Molecular Mass": "230.26",
        "Melting Point": "156-157 °C"
    }
}