{
    "cas_no": "619-05-6",
    "key_name": "3,4-Diaminobenzoic acid",
    "cn_name": "3,4-二氨基苯甲酸;",
    "alternate_name": "Benzoic acid, 3,4-diamino-;3,4-Diaminobenzoic acid;4-Carboxy-<em>o</em>-phenylenediamine;4-Carboxy-1,2-diaminobenzene;4-Carboxy-1,2-benzenediamine;4-Carboxyphenyldiamine",
    "duplicated_cas_no": "",
    "SMILES": "C(O)(=O)C1=CC(N)=C(N)C=C1",
    "meta_data": {
        "InChI": "InChI=1S/C7H8N2O2/c8-5-2-1-4(7(10)11)3-6(5)9/h1-3H,8-9H2,(H,10,11)",
        "InChIKey": null,
        "Canonical SMILES": "O=C(O)C1=CC=C(N)C(N)=C1",
        "Molecular Formula": "C<sub>7</sub>H<sub>8</sub>N<sub>2</sub>O<sub>2</sub>",
        "Molecular Mass": "152.15",
        "Melting Point": "210-211 °C"
    }
}