{
    "cas_no": "5332-06-9",
    "key_name": "4-Bromobutyronitrile",
    "cn_name": "4-溴丁腈丙烯酸酯;",
    "alternate_name": "Butanenitrile, 4-bromo-;Butyronitrile, 4-bromo-;4-Bromobutanenitrile;3-Bromopropyl cyanide;4-Bromobutyronitrile;3-Cyanopropyl bromide;1-Bromo-3-cyanopropane;NSC 3972",
    "duplicated_cas_no": "",
    "SMILES": "C(CC#N)CBr",
    "meta_data": {
        "InChI": "InChI=1S/C4H6BrN/c5-3-1-2-4-6/h1-3H2",
        "InChIKey": null,
        "Canonical SMILES": "N#CCCCBr",
        "Molecular Formula": "C<sub>4</sub>H<sub>6</sub>BrN",
        "Molecular Mass": "148.00",
        "Boiling Point": "206 °C",
        "Melting Point": "104-105 °C",
        "Density": "1.4967 g/cm³ @ Temp: 20 °C"
    }
}