{
    "cas_no": "461-96-1",
    "key_name": "1-Bromo-3,5-difluorobenzene",
    "cn_name": "1-溴-3,5-二氟苯;",
    "alternate_name": "Benzene, 1-bromo-3,5-difluoro-;1-Bromo-3,5-difluorobenzene;3,5-Difluorobromobenzene;3,5-Difluoro-1-bromobenzene;5-Bromo-1,3-difluorobenzene;3,5-Difluorophenyl bromide;1,3-Difluoro-5-bromobenzene",
    "duplicated_cas_no": "475653-30-6",
    "SMILES": "BrC1=CC(F)=CC(F)=C1",
    "meta_data": {
        "InChI": "InChI=1S/C6H3BrF2/c7-4-1-5(8)3-6(9)2-4/h1-3H",
        "InChIKey": null,
        "Canonical SMILES": "FC=1C=C(F)C=C(Br)C1",
        "Molecular Formula": "C<sub>6</sub>H<sub>3</sub>BrF<sub>2</sub>",
        "Molecular Mass": "192.99",
        "Boiling Point": "140 °C",
        "Density": "1.676 g/cm³ @ Temp: 23 °C"
    }
}