{
    "cas_no": "791-35-5",
    "key_name": "Chlophedianol",
    "cn_name": null,
    "alternate_name": "Benzenemethanol, 2-chloro-α-[2-(dimethylamino)ethyl]-α-phenyl-;Benzhydrol, 2-chloro-α-[2-(dimethylamino)ethyl]-;2-Chloro-α-[2-(dimethylamino)ethyl]-α-phenylbenzenemethanol;2-Chloro-α-(2-dimethylaminoethyl)benzhydrol;1-<em>o</em>-Chlorophenyl-3-dimethylamino-1-phenylpropan-1-ol;Clofedanol;1-Phenyl-1-<em>o</em>-chlorophenyl-3-(dimethylamino)-1-propanol;Chlophedianol;α-(Dimethylaminoethyl)-<em>o</em>-chlorobenzhydrol;1-<em>o</em>-Chlorophenyl-1-phenyl-3-dimethylamino-1-propanol;1-Phenyl-1-(<em>o</em>-chlorophenyl)-3-dimethylaminopropanol;Tussistop;Calmotusin;(±)-Chlophedianol;NSC 113595",
    "duplicated_cas_no": "65460-06-2",
    "SMILES": "C(CCN(C)C)(O)(C1=C(Cl)C=CC=C1)C2=CC=CC=C2",
    "meta_data": {
        "InChI": "InChI=1S/C17H20ClNO/c1-19(2)13-12-17(20,14-8-4-3-5-9-14)15-10-6-7-11-16(15)18/h3-11,20H,12-13H2,1-2H3",
        "InChIKey": null,
        "Canonical SMILES": "ClC=1C=CC=CC1C(O)(C=2C=CC=CC2)CCN(C)C",
        "Molecular Formula": "C<sub>17</sub>H<sub>20</sub>ClNO",
        "Molecular Mass": "289.80",
        "Melting Point": "120 °C"
    }
}