{
    "cas_no": "10160-87-9",
    "key_name": "3,3-Diethoxy-1-propyne",
    "cn_name": "丙醛二乙基乙缩醛;3,3-二乙氧基-1-丙炔;3,3-Diethoxy-1-propyne;Propargylaldehyde diethyl acetal;",
    "alternate_name": "1-Propyne, 3,3-diethoxy-;Propiolaldehyde, diethyl acetal;Propyne, 3,3-diethoxy-;3,3-Diethoxy-1-propyne;Propynal diethyl acetal;2-Propyn-1-al diethyl acetal;3,3-Diethoxypropyne;1,1-Diethoxyprop-2-yne;NSC 45019;Propargylaldehyde diethyl acetal;2-Propynal diethyl acetal",
    "duplicated_cas_no": "",
    "SMILES": "C(OCC)(OCC)C#C",
    "meta_data": {
        "InChI": "InChI=1S/C7H12O2/c1-4-7(8-5-2)9-6-3/h1,7H,5-6H2,2-3H3",
        "InChIKey": null,
        "Canonical SMILES": "C#CC(OCC)OCC",
        "Molecular Formula": "C<sub>7</sub>H<sub>12</sub>O<sub>2</sub>",
        "Molecular Mass": "128.17",
        "Boiling Point": "139 °C"
    }
}