{
    "cas_no": "111-47-7",
    "key_name": "Propyl sulfide",
    "cn_name": "二丙硫醚;二丙基硫醚;",
    "alternate_name": "Propane, 1,1′-thiobis-;Propyl sulfide;1,1′-Thiobis[propane];Dipropyl sulfide;Dipropyl thioether;4-Thiaheptane;Propyl monosulfide;Di-<em>n</em>-propyl sulfide;<em>n</em>-Propyl sulfide;Di-<em>n</em>-propyl thioether;NSC 78429;1-Propylsulfanyl-propane;1-(Propylsulfanyl)propane",
    "duplicated_cas_no": "",
    "SMILES": "S(CCC)CCC",
    "meta_data": {
        "InChI": "InChI=1S/C6H14S/c1-3-5-7-6-4-2/h3-6H2,1-2H3",
        "InChIKey": null,
        "Canonical SMILES": "S(CCC)CCC",
        "Molecular Formula": "C<sub>6</sub>H<sub>14</sub>S",
        "Molecular Mass": "118.24",
        "Boiling Point": "142.9 °C",
        "Melting Point": "-102.5 °C",
        "Density": "0.83762 g/cm³ @ Temp: 20 °C"
    }
}