{
    "cas_no": "1111-74-6",
    "key_name": "Dimethylsilane",
    "cn_name": "二甲基硅烷;",
    "alternate_name": "Silane, dimethyl-;Dimethylsilane;2-Silapropane",
    "duplicated_cas_no": "",
    "SMILES": "[SiH2](C)C",
    "meta_data": {
        "InChI": "InChI=1S/C2H8Si/c1-3-2/h3H2,1-2H3",
        "InChIKey": null,
        "Canonical SMILES": "C[SiH2]C",
        "Molecular Formula": "C<sub>2</sub>H<sub>8</sub>Si",
        "Molecular Mass": "60.17",
        "Boiling Point": "-20 °C",
        "Melting Point": "-150 °C",
        "Density": "0.680 g/cm³ @ Temp: -20 °C"
    }
}