{
    "cas_no": "22353-53-3",
    "key_name": "3-Chloro-2-methoxy-5-nitropyridine",
    "cn_name": null,
    "alternate_name": "Pyridine, 3-chloro-2-methoxy-5-nitro-;3-Chloro-2-methoxy-5-nitropyridine",
    "duplicated_cas_no": "",
    "SMILES": "N(=O)(=O)C=1C=C(Cl)C(OC)=NC1",
    "meta_data": {
        "InChI": "InChI=1S/C6H5ClN2O3/c1-12-6-5(7)2-4(3-8-6)9(10)11/h2-3H,1H3",
        "InChIKey": null,
        "Canonical SMILES": "O=N(=O)C1=CN=C(OC)C(Cl)=C1",
        "Molecular Formula": "C<sub>6</sub>H<sub>5</sub>ClN<sub>2</sub>O<sub>3</sub>",
        "Molecular Mass": "188.57",
        "Melting Point": "63-64 °C"
    }
}