{
    "cas_no": "13161-30-3",
    "key_name": "2-Hydroxypyridine <em>N</em>-oxide",
    "cn_name": null,
    "alternate_name": "2-Pyridinol, 1-oxide;2-Hydroxypyridine 1-oxide;2-Hydroxypyridine <em>N</em>-oxide;NSC 406972;Oxypyrion;2-Pyridinol <em>N</em>-oxide;1-Oxypyridin-2-ol;2-Hydroxypyridin-1-ium-1-olate",
    "duplicated_cas_no": "",
    "SMILES": "OC=1N(=O)=CC=CC1",
    "meta_data": {
        "InChI": "InChI=1S/C5H5NO2/c7-5-3-1-2-4-6(5)8/h1-4,7H",
        "InChIKey": null,
        "Canonical SMILES": "O=N=1C=CC=CC1O",
        "Molecular Formula": "C<sub>5</sub>H<sub>5</sub>NO<sub>2</sub>",
        "Molecular Mass": "111.10",
        "Melting Point": "149-151 °C"
    }
}