{
    "cas_no": "13940-94-8",
    "key_name": "4-Chlorobenzal chloride",
    "cn_name": null,
    "alternate_name": "Benzene, 1-chloro-4-(dichloromethyl)-;Toluene, <em>p</em>,α,α-trichloro-;1-Chloro-4-(dichloromethyl)benzene;<em>p</em>-Chlorobenzal chloride;4-Chloro-1-(dichloromethyl)benzene;4-Chlorobenzylidene chloride;<em>p</em>-Chlorobenzylidene chloride;α,α,<em>p</em>-Trichlorotoluene;<em>p</em>-(Dichloromethyl)benzyl chloride;4-Chlorobenzal chloride;Dichloro(4-chlorophenyl)methane;α,α,4-Trichlorotoluene",
    "duplicated_cas_no": "",
    "SMILES": "C(Cl)(Cl)C1=CC=C(Cl)C=C1",
    "meta_data": {
        "InChI": "InChI=1S/C7H5Cl3/c8-6-3-1-5(2-4-6)7(9)10/h1-4,7H",
        "InChIKey": null,
        "Canonical SMILES": "ClC1=CC=C(C=C1)C(Cl)Cl",
        "Molecular Formula": "C<sub>7</sub>H<sub>5</sub>Cl<sub>3</sub>",
        "Molecular Mass": "195.47",
        "Boiling Point": "1-20 °C"
    }
}