{
    "cas_no": "18706-39-3",
    "key_name": "2-(Trifluoromethyl)-4-quinolinecarboxylic acid",
    "cn_name": null,
    "alternate_name": "4-Quinolinecarboxylic acid, 2-(trifluoromethyl)-;Cinchoninic acid, 2-(trifluoromethyl)-;2-(Trifluoromethyl)-4-quinolinecarboxylic acid;2-Trifluoromethyl-4-carboxyquinoline",
    "duplicated_cas_no": "",
    "SMILES": "C(O)(=O)C=1C2=C(N=C(C(F)(F)F)C1)C=CC=C2",
    "meta_data": {
        "InChI": "InChI=1S/C11H6F3NO2/c12-11(13,14)9-5-7(10(16)17)6-3-1-2-4-8(6)15-9/h1-5H,(H,16,17)",
        "InChIKey": null,
        "Canonical SMILES": "O=C(O)C1=CC(=NC=2C=CC=CC21)C(F)(F)F",
        "Molecular Formula": "C<sub>11</sub>H<sub>6</sub>F<sub>3</sub>NO<sub>2</sub>",
        "Molecular Mass": "241.17",
        "Melting Point": "181-182 °C"
    }
}