{
    "cas_no": "552-86-3",
    "key_name": "Furoin",
    "cn_name": "糠偶因;联糠醛;对称二呋喃羟基乙酮;1,2-二(呋喃-2-基)-2-羟基乙-1-酮;",
    "alternate_name": "Ethanone, 1,2-di-2-furanyl-2-hydroxy-;Furoin;1,2-Di-2-furanyl-2-hydroxyethanone;α-Furoin;1,2-Bis(2-furyl)-2-hydroxyethanone;2-Furyl(hydroxy)methyl 2-furyl ketone;NSC 18522;NSC 6105;(±)-Furoin;2-Hydroxy-1,2-di-2-furanyl-ethanone;1,2-Di(2-furyl)-2-hydroxyethanone;1,2-Bis(furan-2-yl)-2-hydroxyethanone;1,2-Bis(furan-2-yl)-2-hydroxyethan-1-one;1,2-Di(2-furyl)-2-hydroxyethan-1-one",
    "duplicated_cas_no": "92921-36-3",
    "SMILES": "C(C(=O)C1=CC=CO1)(O)C2=CC=CO2",
    "meta_data": {
        "InChI": "InChI=1S/C10H8O4/c11-9(7-3-1-5-13-7)10(12)8-4-2-6-14-8/h1-6,9,11H",
        "InChIKey": null,
        "Canonical SMILES": "O=C(C=1OC=CC1)C(O)C=2OC=CC2",
        "Molecular Formula": "C<sub>10</sub>H<sub>8</sub>O<sub>4</sub>",
        "Molecular Mass": "192.17",
        "Melting Point": "39-138 °C"
    }
}