{
    "cas_no": "3669-41-8",
    "key_name": "2,4-Dihydroxyphenyl benzyl ketone",
    "cn_name": "2\",4\"-二羟基-2-苯基苯乙酮;",
    "alternate_name": "Ethanone, 1-(2,4-dihydroxyphenyl)-2-phenyl-;Acetophenone, 2′,4′-dihydroxy-2-phenyl-;1-(2,4-Dihydroxyphenyl)-2-phenylethanone;2,4-Dihydroxydeoxybenzoin;2′,4′-Dihydroxy-2-phenylacetophenone;2,4-Dihydroxyphenyl benzyl ketone;4-(Phenylacetyl)resorcinol;ω-Phenylresacetophenone;2,4-Dihydroxydesoxybenzoin;NSC 105542;Benzyl 2,4-dihydroxyphenyl ketone;1-(2,4-Dihydroxyphenyl)-2-phenylethan-1-one",
    "duplicated_cas_no": "",
    "SMILES": "C(CC1=CC=CC=C1)(=O)C2=C(O)C=C(O)C=C2",
    "meta_data": {
        "InChI": "InChI=1S/C14H12O3/c15-11-6-7-12(14(17)9-11)13(16)8-10-4-2-1-3-5-10/h1-7,9,15,17H,8H2",
        "InChIKey": null,
        "Canonical SMILES": "O=C(C1=CC=C(O)C=C1O)CC=2C=CC=CC2",
        "Molecular Formula": "C<sub>14</sub>H<sub>12</sub>O<sub>3</sub>",
        "Molecular Mass": "228.24",
        "Boiling Point": "192-194 °C @ Press: 0.2 Torr",
        "Melting Point": "115 °C"
    }
}