{
    "cas_no": "4137-10-4",
    "key_name": "Dimethylammonium dimethylcarbamate",
    "cn_name": null,
    "alternate_name": "Carbamic acid, <em>N</em>,<em>N</em>-dimethyl-, compd. with <em>N</em>-methylmethanamine (1:1);Carbamic acid, dimethyl-, compd. with dimethylamine (1:1);Carbamic acid, dimethyl-, compd. with <em>N</em>-methylmethanamine (1:1);Carbamic acid, dimethyl-, compd. with dimethylamine;Methanamine, <em>N</em>-methyl-, dimethylcarbamate;Dimethylamine, compd. with dimethylcarbamic acid (1:1);Dimethylammonium dimethylcarbamate;Dimcarb;Dimethylamine <em>N</em>,<em>N</em>-dimethylcarbamate",
    "duplicated_cas_no": "99548-65-9;878746-33-9",
    "SMILES": "C(N(C)C)(O)=O.N(C)C",
    "meta_data": {
        "InChI": "InChI=1S/C3H7NO2.C2H7N/c1-4(2)3(5)6;1-3-2/h1-2H3,(H,5,6);3H,1-2H3",
        "InChIKey": null,
        "Canonical SMILES": "O=C(O)N(C)C.N(C)C",
        "Molecular Formula": "C<sub>3</sub>H<sub>7</sub>NO<sub>2</sub>.C<sub>2</sub>H<sub>7</sub>N",
        "Molecular Mass": "",
        "Boiling Point": "60.17 °C",
        "Density": "1.026 g/cm³"
    }
}