{
    "cas_no": "636-09-9",
    "key_name": "Diethyl terephthalate",
    "cn_name": null,
    "alternate_name": "1,4-Benzenedicarboxylic acid, 1,4-diethyl ester;Terephthalic acid, diethyl ester;1,4-Benzenedicarboxylic acid, diethyl ester;Diethyl terephthalate;<em>p</em>-Benzenedicarboxylic acid diethyl ester;<em>p</em>-Diethyl phthalate;NSC 68816;1,4-Diethyl benzene-1,4-dicarboxylate",
    "duplicated_cas_no": "",
    "SMILES": "C(OCC)(=O)C1=CC=C(C(OCC)=O)C=C1",
    "meta_data": {
        "InChI": "InChI=1S/C12H14O4/c1-3-15-11(13)9-5-7-10(8-6-9)12(14)16-4-2/h5-8H,3-4H2,1-2H3",
        "InChIKey": null,
        "Canonical SMILES": "O=C(OCC)C1=CC=C(C=C1)C(=O)OCC",
        "Molecular Formula": "C<sub>12</sub>H<sub>14</sub>O<sub>4</sub>",
        "Molecular Mass": "222.24",
        "Boiling Point": "302 °C",
        "Melting Point": "44 °C",
        "Density": "1.0913 g/cm³ @ Temp: 25 °C"
    }
}