{
    "cas_no": "217-59-4",
    "key_name": "Triphenylene",
    "cn_name": "9,10-苯并菲;三亚苯;",
    "alternate_name": "Triphenylene;9,10-Benzphenanthrene;9,10-Benzophenanthrene;1,2,3,4-Dibenznaphthalene;Isochrysene;Benzo[<em>l</em>]phenanthrene;NSC 57455",
    "duplicated_cas_no": "",
    "SMILES": "C12=C3C(=C4C(=C1C=CC=C2)C=CC=C4)C=CC=C3",
    "meta_data": {
        "InChI": "InChI=1S/C18H12/c1-2-8-14-13(7-1)15-9-3-4-11-17(15)18-12-6-5-10-16(14)18/h1-12H",
        "InChIKey": null,
        "Canonical SMILES": "C=1C=CC=2C(C1)=C3C=CC=CC3=C4C=CC=CC24",
        "Molecular Formula": "C<sub>18</sub>H<sub>12</sub>",
        "Molecular Mass": "228.29",
        "Boiling Point": "425 °C",
        "Melting Point": "199 °C",
        "Density": "0.9425 g/cm³ @ Temp: 20 °C"
    }
}