{
    "cas_no": "589-90-2",
    "key_name": "1,4-Dimethylcyclohexane",
    "cn_name": "1,4-二甲基环已烷;",
    "alternate_name": "Cyclohexane, 1,4-dimethyl-;1,4-Dimethylcyclohexane;<em>p</em>-Dimethylcyclohexane;NSC 44845",
    "duplicated_cas_no": "",
    "SMILES": "CC1CCC(C)CC1",
    "meta_data": {
        "InChI": "InChI=1S/C8H16/c1-7-3-5-8(2)6-4-7/h7-8H,3-6H2,1-2H3",
        "InChIKey": null,
        "Canonical SMILES": "CC1CCC(C)CC1",
        "Molecular Formula": "C<sub>8</sub>H<sub>16</sub>",
        "Molecular Mass": "112.21",
        "Boiling Point": "120 °C",
        "Melting Point": "-87 °C",
        "Density": "0.7861 g/cm³ @ Temp: 0 °C"
    }
}