{
    "cas_no": "96034-64-9",
    "key_name": "(4-Nitrophenyl)methyl (2<em>S</em>,4<em>S</em>)-2-[(dimethylamino)carbonyl]-4-mercapto-1-pyrrolidinecarboxylate",
    "cn_name": "(2S,4S)-2-(二甲基氨基甲酰)-4-巯基-1-(对硝基苄氧基甲酰)-1-吡咯烷;美罗配南侧链;",
    "alternate_name": "1-Pyrrolidinecarboxylic acid, 2-[(dimethylamino)carbonyl]-4-mercapto-, (4-nitrophenyl)methyl ester, (2<em>S</em>,4<em>S</em>)-;1-Pyrrolidinecarboxylic acid, 2-[(dimethylamino)carbonyl]-4-mercapto-, (4-nitrophenyl)methyl ester, (2<em>S</em>-<em>cis</em>)-;(4-Nitrophenyl)methyl (2<em>S</em>,4<em>S</em>)-2-[(dimethylamino)carbonyl]-4-mercapto-1-pyrrolidinecarboxylate;(2<em>S</em>,4<em>S</em>)-2-Dimethylaminocarbonyl-4-mercapto-1-(<em>p</em>-nitrobenzyloxycarbonyl)-pyrrolidine;(2<em>S</em>,4<em>S</em>)-<em>N</em>,<em>N</em>-Dimethyl-1-(4-nitrobenzyloxycarbonyl)-4-mercaptopyrrolidine-2-carboxamide",
    "duplicated_cas_no": "158168-79-7",
    "SMILES": "C(OCC1=CC=C(N(=O)=O)C=C1)(=O)N2[C@H](C(N(C)C)=O)C[C@H](S)C2",
    "meta_data": {
        "InChI": "InChI=1S/C15H19N3O5S/c1-16(2)14(19)13-7-12(24)8-17(13)15(20)23-9-10-3-5-11(6-4-10)18(21)22/h3-6,12-13,24H,7-9H2,1-2H3/t12-,13-/m0/s1",
        "InChIKey": null,
        "Canonical SMILES": "O=C(OCC1=CC=C(C=C1)N(=O)=O)N2CC(S)CC2C(=O)N(C)C",
        "Molecular Formula": "C<sub>15</sub>H<sub>19</sub>N<sub>3</sub>O<sub>5</sub>S",
        "Molecular Mass": "353.39",
        "Melting Point": "118-119 °C"
    }
}