{
    "cas_no": "626-89-1",
    "key_name": "4-Methyl-1-pentanol",
    "cn_name": "4-甲基-1-戊醇;",
    "alternate_name": "1-Pentanol, 4-methyl-;Isohexyl alcohol;4-Methyl-1-pentanol;<em>iso</em>-Hexanol;2-Methyl-5-pentanol;Isohexanol;NSC 91492;Anglamol 6085U;4-Methylamyl alcohol",
    "duplicated_cas_no": "",
    "SMILES": "C(C(C)C)CCO",
    "meta_data": {
        "InChI": "InChI=1S/C6H14O/c1-6(2)4-3-5-7/h6-7H,3-5H2,1-2H3",
        "InChIKey": null,
        "Canonical SMILES": "OCCCC(C)C",
        "Molecular Formula": "C<sub>6</sub>H<sub>14</sub>O",
        "Molecular Mass": "102.17",
        "Boiling Point": "151.9 °C",
        "Density": "0.8156 g/cm³ @ Temp: 20 °C"
    }
}