{
    "cas_no": "17676-24-3",
    "key_name": "Hinokiresinol",
    "cn_name": null,
    "alternate_name": "Phenol, 4,4′-[(1<em>E</em>,3<em>S</em>)-3-ethenyl-1-propene-1,3-diyl]bis-;Phenol, 4,4′-(3-vinylpropenylene)di-, (<em>E</em>)-;Hinokiresinol;Phenol, 4,4′-(3-ethenyl-1-propene-1,3-diyl)bis-, [<em>S</em>-(<em>E</em>)]-;4,4′-[(1<em>E</em>,3<em>S</em>)-3-Ethenyl-1-propene-1,3-diyl]bis[phenol];α-(<em>p</em>-Hydroxystyryl)chavicol;(-)-Hinokiresinol",
    "duplicated_cas_no": "4825-69-8;16453-39-7",
    "SMILES": "[C@@H](/C=C/C1=CC=C(O)C=C1)(C=C)C2=CC=C(O)C=C2",
    "meta_data": {
        "InChI": "InChI=1S/C17H16O2/c1-2-14(15-7-11-17(19)12-8-15)6-3-13-4-9-16(18)10-5-13/h2-12,14,18-19H,1H2/b6-3+/t14-/m0/s1",
        "InChIKey": null,
        "Canonical SMILES": "OC1=CC=C(C=C1)C=CC(C=C)C2=CC=C(O)C=C2",
        "Molecular Formula": "C<sub>17</sub>H<sub>16</sub>O<sub>2</sub>",
        "Molecular Mass": "252.31",
        "Melting Point": "69-71 °C"
    }
}