{
    "cas_no": "506-68-3",
    "key_name": "Cyanogen bromide",
    "cn_name": "溴氰;溴化氰;氰化溴;",
    "alternate_name": "Cyanogen bromide ((CN)Br);Cyanogen bromide;Bromine cyanide;Bromocyanogen;Bromocyanide (BrCN);Bromocyanide;Bromocyan;Cyanogen bromide (BrCN);Cyanogen monobromide;Bromine cyanide (BrCN);Cyanobromide;Campilit;Bromine monocyanide;NSC 89684;Cyanic bromide;Carbononitridic bromide;MeSH ID: D003488",
    "duplicated_cas_no": "",
    "SMILES": "C(Br)#N",
    "meta_data": {
        "InChI": "InChI=1S/CBrN/c2-1-3",
        "InChIKey": null,
        "Canonical SMILES": "N#CBr",
        "Molecular Formula": "CBrN",
        "Molecular Mass": "105.92",
        "Boiling Point": "61.4 °C @ Press: 760 Torr",
        "Melting Point": "52 °C",
        "Density": "2.015 g/cm³ @ Temp: 20 °C"
    }
}