{
    "cas_no": "2206-27-1",
    "key_name": "DMSO-<em>d</em><sub>6</sub>",
    "cn_name": "二甲基亚砜-D6;",
    "alternate_name": "Methane-<em>d</em><sub>3</sub>, 1,1′-sulfinylbis-;(Methyl sulfoxide)-<em>d</em><sub>6</sub>;Methane-<em>d</em><sub>3</sub>, sulfinylbis-;1,1′-Sulfinylbis[methane-<em>d</em><sub>3</sub>];Dimethyl-<em>d</em><sub>6</sub> sulfoxide;Dimethyl sulfoxide-<em>d</em><sub>6</sub>;Sulfinylbis(methane-<em>d</em><sub>3</sub>);DMSO-<em>d</em><sub>6</sub>;Hexadeuteriodimethyl sulfoxide;Di(methyl-<em>d</em><sub>3</sub>) sulfoxide;Bis(trideuteromethyl) sulfoxide;Perdeuteriodimethyl sulfoxide;Bis(trideuteriomethyl) sulfoxide;Deuterated-DMSO;Perdeuterated dimethyl sulfoxide;Perdeuterated thioacetone",
    "duplicated_cas_no": "",
    "SMILES": "S(C([2H])([2H])[2H])(C([2H])([2H])[2H])=O",
    "meta_data": {
        "InChI": "InChI=1S/C2H6OS/c1-4(2)3/h1-2H3/i1D3,2D3",
        "InChIKey": null,
        "Canonical SMILES": "O=S(C)C",
        "Molecular Formula": "C<sub>2</sub>D<sub>6</sub>OS",
        "Molecular Mass": "",
        "Boiling Point": "74 °C @ Press: 11 Torr"
    }
}