{
    "cas_no": "519-37-9",
    "key_name": "Etofylline",
    "cn_name": "7-(β-羟乙基)茶叶碱;",
    "alternate_name": "1<em>H</em>-Purine-2,6-dione, 3,7-dihydro-7-(2-hydroxyethyl)-1,3-dimethyl-;Theophylline, 7-(2-hydroxyethyl)-;3,7-Dihydro-7-(2-hydroxyethyl)-1,3-dimethyl-1<em>H</em>-purine-2,6-dione;Cordalin;Etofylline;7-(β-Hydroxyethyl)theophylline;7-(2-Hydroxyethyl)theophylline;Oxyethyltheophylline;Oxyphylline;Phyllocormin N;7-(Hydroxyethyl)theophylline;Hydroxyethyltheophylline;7-(2-Hydroxyethyl)-1,3-dimethylxanthine;Oxytheonyl;Oxphylline;Aethophyllinum;Ascorphylline;Bio-phylline;Corophyllin-N;Dilaphyllin;Soluphylline;Frekaphyllin;7-Theophyllineethanol;Oxyphyllin;KT 200G;Etophyllin;Oxyethophylline;Etophylline;NSC 113373;1,3-Dimethyl-7-(2-hydroxyethyl)xanthine",
    "duplicated_cas_no": "",
    "SMILES": "C(CO)N1C2=C(N(C)C(=O)N(C)C2=O)N=C1",
    "meta_data": {
        "InChI": "InChI=1S/C9H12N4O3/c1-11-7-6(8(15)12(2)9(11)16)13(3-4-14)5-10-7/h5,14H,3-4H2,1-2H3",
        "InChIKey": null,
        "Canonical SMILES": "O=C1C2=C(N=CN2CCO)N(C(=O)N1C)C",
        "Molecular Formula": "C<sub>9</sub>H<sub>12</sub>N<sub>4</sub>O<sub>3</sub>",
        "Molecular Mass": "224.22",
        "Melting Point": "158 °C"
    }
}