{
    "cas_no": "118-42-3",
    "key_name": "Hydroxychloroquine",
    "cn_name": "羟氯喹;羟基氯喹;2-[[4-[(7-氯喹啉-4-基)氨基]戊基](乙基)氨基]乙醇;",
    "alternate_name": "Ethanol, 2-[[4-[(7-chloro-4-quinolinyl)amino]pentyl]ethylamino]-;Ethanol, 2-[[4-[(7-chloro-4-quinolyl)amino]pentyl]ethylamino]-;2-[[4-[(7-Chloro-4-quinolinyl)amino]pentyl]ethylamino]ethanol;WIN 1258;7-Chloro-4-[4-(<em>N</em>-ethyl-<em>N</em>-β-hydroxyethylamino)-1-methylbutylamino]quinoline;7-Chloro-4-[4-[ethyl(2-hydroxyethyl)amino]-1-methylbutylamino]quinoline;7-Chloro-4-[5-(<em>N</em>-ethyl-<em>N</em>-2-hydroxyethylamino)-2-pentyl]aminoquinoline;Hydroxychloroquine;Oxychlorochin;Win 1258-2;Racemic Hydroxychloroquine;(±)-Hydroxychloroquine;Oxichloroquine;Oxychloroquine;2-([4-[(7-Chloroquinolin-4-yl)amino]pentyl](ethyl)amino)ethan-1-ol;MeSH ID: D006886",
    "duplicated_cas_no": "117456-74-3;25526-45-8",
    "SMILES": "N(C(CCCN(CCO)CC)C)C=1C2=C(N=CC1)C=C(Cl)C=C2",
    "meta_data": {
        "InChI": "InChI=1S/C18H26ClN3O/c1-3-22(11-12-23)10-4-5-14(2)21-17-8-9-20-18-13-15(19)6-7-16(17)18/h6-9,13-14,23H,3-5,10-12H2,1-2H3,(H,20,21)",
        "InChIKey": null,
        "Canonical SMILES": "ClC=1C=CC=2C(=NC=CC2NC(C)CCCN(CC)CCO)C1",
        "Molecular Formula": "C<sub>18</sub>H<sub>26</sub>ClN<sub>3</sub>O",
        "Molecular Mass": "335.87",
        "Melting Point": "90 °C"
    }
}