{
    "cas_no": "111-32-0",
    "key_name": "4-Methoxy-1-butanol",
    "cn_name": "4-甲氧基-1-丁醇;1,4-丁二醇单甲醚;",
    "alternate_name": "1-Butanol, 4-methoxy-;4-Methoxy-1-butanol;Dowanol BMAT;4-Methoxybutyl alcohol;NSC 245191",
    "duplicated_cas_no": "",
    "SMILES": "C(CCO)COC",
    "meta_data": {
        "InChI": "InChI=1S/C5H12O2/c1-7-5-3-2-4-6/h6H,2-5H2,1H3",
        "InChIKey": null,
        "Canonical SMILES": "OCCCCOC",
        "Molecular Formula": "C<sub>5</sub>H<sub>12</sub>O<sub>2</sub>",
        "Molecular Mass": "104.15",
        "Boiling Point": "124-125 °C @ Press: 13 Torr",
        "Density": "0.9954 g/cm³ @ Temp: 18 °C"
    }
}