{
    "cas_no": "123572-88-3",
    "key_name": "Furametpyr",
    "cn_name": null,
    "alternate_name": "1<em>H</em>-Pyrazole-4-carboxamide, 5-chloro-<em>N</em>-(1,3-dihydro-1,1,3-trimethyl-4-isobenzofuranyl)-1,3-dimethyl-;5-Chloro-<em>N</em>-(1,3-dihydro-1,1,3-trimethyl-4-isobenzofuranyl)-1,3-dimethyl-1<em>H</em>-pyrazole-4-carboxamide;Furametpyr;Limber",
    "duplicated_cas_no": "1135441-61-0",
    "SMILES": "N(C(=O)C1=C(Cl)N(C)N=C1C)C2=C3C(C(C)(C)OC3C)=CC=C2",
    "meta_data": {
        "InChI": "InChI=1S/C17H20ClN3O2/c1-9-13(15(18)21(5)20-9)16(22)19-12-8-6-7-11-14(12)10(2)23-17(11,3)4/h6-8,10H,1-5H3,(H,19,22)",
        "InChIKey": null,
        "Canonical SMILES": "O=C(NC1=CC=CC2=C1C(OC2(C)C)C)C3=C(Cl)N(N=C3C)C",
        "Molecular Formula": "C<sub>17</sub>H<sub>20</sub>ClN<sub>3</sub>O<sub>2</sub>",
        "Molecular Mass": "333.81",
        "Melting Point": "145 °C"
    }
}