{
    "cas_no": "96-04-8",
    "key_name": "2,3-Heptanedione",
    "cn_name": "2,3-庚烷二酮;",
    "alternate_name": "2,3-Heptanedione;Acetylvaleryl;Valerylacetyl;NSC 31668;Heptan-2,3-dione",
    "duplicated_cas_no": "",
    "SMILES": "C(C(C)=O)(CCCC)=O",
    "meta_data": {
        "InChI": "InChI=1S/C7H12O2/c1-3-4-5-7(9)6(2)8/h3-5H2,1-2H3",
        "InChIKey": null,
        "Canonical SMILES": "O=C(C(=O)CCCC)C",
        "Molecular Formula": "C<sub>7</sub>H<sub>12</sub>O<sub>2</sub>",
        "Molecular Mass": "128.17",
        "Boiling Point": "46 °C @ Press: 13 Torr",
        "Density": "0.9241 g/cm³ @ Temp: 20 °C"
    }
}