{
    "cas_no": "42217-02-7",
    "key_name": "1-Chloroeicosane",
    "cn_name": "1-氯二十一碳烷;",
    "alternate_name": "Eicosane, 1-chloro-;1-Chloroeicosane;1-Chloroicosane",
    "duplicated_cas_no": "",
    "SMILES": "C(CCCCCCCCCC)CCCCCCCCCCl",
    "meta_data": {
        "InChI": "InChI=1S/C20H41Cl/c1-2-3-4-5-6-7-8-9-10-11-12-13-14-15-16-17-18-19-20-21/h2-20H2,1H3",
        "InChIKey": null,
        "Canonical SMILES": "ClCCCCCCCCCCCCCCCCCCCC",
        "Molecular Formula": "C<sub>20</sub>H<sub>41</sub>Cl",
        "Molecular Mass": "316.99",
        "Boiling Point": "189 °C @ Press: 1.5 Torr"
    }
}