{
    "cas_no": "3655-05-8",
    "key_name": "<em>N</em>-[(1,1-Dimethylethoxy)carbonyl]glycine 4-nitrophenyl ester",
    "cn_name": null,
    "alternate_name": "Glycine, <em>N</em>-[(1,1-dimethylethoxy)carbonyl]-, 4-nitrophenyl ester;Glycine, <em>N</em>-carboxy-, <em>N</em>-<em>tert</em>-butyl <em>p</em>-nitrophenyl ester;<em>N</em>-[(1,1-Dimethylethoxy)carbonyl]glycine 4-nitrophenyl ester;<em>N</em>-<em>tert</em>-Butyloxycarbonylglycine <em>p</em>-nitrophenyl ester;(<em>tert</em>-Butoxycarbonyl)glycine <em>p</em>-nitrophenyl ester;<em>N</em>-<em>t</em>-Butyloxycarbonylglycine <em>p</em>-nitrophenyl ester;<em>N</em>-<em>tert</em>-Butoxycarbonylglycine <em>p</em>-nitrophenyl ester;<em>N</em>-<em>tert</em>-Butoxycarbonylglycine 4-nitrophenyl ester;BOC-Glycine <em>p</em>-nitrophenyl ester;4-Nitrophenyl 2-((<em>tert</em>-butoxycarbonyl)amino)acetate;(4-Nitrophenyl) 2-[(2-methylpropan-2-yl)oxycarbonylamino]acetate",
    "duplicated_cas_no": "",
    "SMILES": "O(C(CNC(OC(C)(C)C)=O)=O)C1=CC=C(N(=O)=O)C=C1",
    "meta_data": {
        "InChI": "InChI=1S/C13H16N2O6/c1-13(2,3)21-12(17)14-8-11(16)20-10-6-4-9(5-7-10)15(18)19/h4-7H,8H2,1-3H3,(H,14,17)",
        "InChIKey": null,
        "Canonical SMILES": "O=C(OC(C)(C)C)NCC(=O)OC1=CC=C(C=C1)N(=O)=O",
        "Molecular Formula": "C<sub>13</sub>H<sub>16</sub>N<sub>2</sub>O<sub>6</sub>",
        "Molecular Mass": "296.28",
        "Melting Point": "71 °C"
    }
}