{
    "cas_no": "3784-03-0",
    "key_name": "Phenol, 2,4,6-trichloro-, sodium salt (1:1)",
    "cn_name": "2,4,6-三氯苯酚钠;",
    "alternate_name": "Phenol, 2,4,6-trichloro-, sodium salt (1:1);Phenol, 2,4,6-trichloro-, sodium salt;Sodium 2,4,6-trichlorophenate;2,4,6-Trichlorophenol sodium salt;Sodium 2,4,6-trichlorophenoxide;Sodium 2,4,6-trichlorophenolate",
    "duplicated_cas_no": "89465-86-1",
    "SMILES": "OC1=C(Cl)C=C(Cl)C=C1Cl.[Na]",
    "meta_data": {
        "InChI": "InChI=1S/C6H3Cl3O.Na/c7-3-1-4(8)6(10)5(9)2-3;/h1-2,10H;",
        "InChIKey": null,
        "Canonical SMILES": "[Na].ClC=1C=C(Cl)C(O)=C(Cl)C1",
        "Molecular Formula": "C<sub>6</sub>H<sub>3</sub>Cl<sub>3</sub>O.Na",
        "Molecular Mass": "",
        "Melting Point": "185 °C"
    }
}