{
    "cas_no": "13283-01-7",
    "key_name": "Tungsten hexachloride",
    "cn_name": "氯化钨;六氯化钨;",
    "alternate_name": "Tungsten chloride (WCl<sub>6</sub>), (<em>OC</em>-6-11)-;Tungsten chloride (WCl<sub>6</sub>);Tungsten hexachloride;Hexachlorotungsten;Wolfram hexachloride;Hexachlorotungsten (Cl<sub>6</sub>W);Tungsten(VI) chloride;Tungsten chloride;Tungsten carbide (WC<sub>16</sub>)",
    "duplicated_cas_no": "18715-53-2;60542-63-4;2270832-30-7",
    "SMILES": "[W](Cl)(Cl)(Cl)(Cl)(Cl)Cl",
    "meta_data": {
        "InChI": "InChI=1S/6ClH.W/h6*1H;/q;;;;;;+6/p-6",
        "InChIKey": null,
        "Canonical SMILES": "Cl[W](Cl)(Cl)(Cl)(Cl)Cl",
        "Molecular Formula": "Cl<sub>6</sub>W",
        "Molecular Mass": "",
        "Boiling Point": "336.5 °C",
        "Melting Point": "283 °C"
    }
}