{
    "cas_no": "12093-10-6",
    "key_name": "Ferrocenecarboxaldehyde",
    "cn_name": "二茂铁甲醛;",
    "alternate_name": "Ferrocene, formyl-;Ferrocenecarboxaldehyde;Iron, cyclopentadienyl(formylcyclopentadienyl)-;Formylferrocene;Cyclopentadienecarboxaldehyde, cyclopentadienyliron deriv.;Formyldicyclopentadienyliron;Ferrocenecarbaldehyde;2-Ferrocenecarboxaldehyde;Ferrocenylcarbaldehyde;1-Formylferrocene;Ferrocenylcarboxaldehyde;NSC 407052;Ferrocene-1-carboxaldehyde",
    "duplicated_cas_no": "",
    "SMILES": "C(=O)[C-]12[Fe+2]3456789([CH]1=[CH]3[CH]4=[CH]52)[CH-]%10[CH]6=[CH]7[CH]8=[CH]9%10",
    "meta_data": {
        "InChI": "InChI=1S/C6H5O.C5H5.Fe/c7-5-6-3-1-2-4-6;1-2-4-5-3-1;/h1-5H;1-5H;/q2*-1;+2",
        "InChIKey": null,
        "Canonical SMILES": "O=C[C-]12[CH]3=[CH]4[CH]5=[CH]1[Fe+2]67894532[CH]=%10[CH]9=[CH]8[CH-]7[CH]%106",
        "Molecular Formula": "C<sub>11</sub>H<sub>10</sub>FeO",
        "Molecular Mass": "",
        "Melting Point": "120 °C"
    }
}