{
    "cas_no": "69938-76-7",
    "key_name": "<em>N</em>,<em>N</em>′-1,6-Hexanediylbis[2,2-dimethylhydrazinecarboxamide]",
    "cn_name": "1,6-六亚甲基-双(N,N-二甲基氨基脲);黄变防止剂HN-130;",
    "alternate_name": "Hydrazinecarboxamide, <em>N</em>,<em>N</em>′-1,6-hexanediylbis[2,2-dimethyl-;<em>N</em>,<em>N</em>′-1,6-Hexanediylbis[2,2-dimethylhydrazinecarboxamide];1,6-Hexamethylenebis(<em>N</em>,<em>N</em>-dimethylsemicarbazide);1,6-Hexamethylenebis(dimethylsemicarbazide);HN 130;HN 200;AF 24;Antifade 3000;HK 130;NH 130 (semicarbazide);NH 130",
    "duplicated_cas_no": "101360-17-2",
    "SMILES": "N(C(NCCCCCCNC(NN(C)C)=O)=O)N(C)C",
    "meta_data": {
        "InChI": "InChI=1S/C12H28N6O2/c1-17(2)15-11(19)13-9-7-5-6-8-10-14-12(20)16-18(3)4/h5-10H2,1-4H3,(H2,13,15,19)(H2,14,16,20)",
        "InChIKey": null,
        "Canonical SMILES": "O=C(NN(C)C)NCCCCCCNC(=O)NN(C)C",
        "Molecular Formula": "C<sub>12</sub>H<sub>28</sub>N<sub>6</sub>O<sub>2</sub>",
        "Molecular Mass": "288.39",
        "Melting Point": "145-148 °C"
    }
}