{
    "cas_no": "77-24-7",
    "key_name": "Propanedioic acid, 2-ethyl-2-(3-methylbutyl)-, 1,3-diethyl ester",
    "cn_name": "乙基(异戊基)丙二酸二乙酯;乙基(3-甲基丁基)丙二酸二乙酯;",
    "alternate_name": "Propanedioic acid, 2-ethyl-2-(3-methylbutyl)-, 1,3-diethyl ester;Malonic acid, ethylisopentyl-, diethyl ester;Propanedioic acid, ethyl(3-methylbutyl)-, diethyl ester;Malonic acid, ethylisoamyl-, diethyl ester;Diethyl ethylisoamylmalonate;NSC 8721;1,3-Diethyl 2-ethyl-2-(3-methylbutyl)propanedioate",
    "duplicated_cas_no": "",
    "SMILES": "C(C(OCC)=O)(C(OCC)=O)(CCC(C)C)CC",
    "meta_data": {
        "InChI": "InChI=1S/C14H26O4/c1-6-14(10-9-11(4)5,12(15)17-7-2)13(16)18-8-3/h11H,6-10H2,1-5H3",
        "InChIKey": null,
        "Canonical SMILES": "O=C(OCC)C(C(=O)OCC)(CC)CCC(C)C",
        "Molecular Formula": "C<sub>14</sub>H<sub>26</sub>O<sub>4</sub>",
        "Molecular Mass": "258.35",
        "Boiling Point": "248-253 °C",
        "Melting Point": "116-118 °C",
        "Density": "0.931 g/cm³ @ Temp: 20 °C"
    }
}