{
    "cas_no": "1474-78-8",
    "key_name": "Phosphinecarboxylic acid, 1,1-diethoxy-, ethyl ester, 1-oxide",
    "cn_name": "二乙氧基膦酰基甲酸乙酯;甲膦酸三乙酯;",
    "alternate_name": "Phosphinecarboxylic acid, 1,1-diethoxy-, ethyl ester, 1-oxide;Formic acid, phosphono-, triethyl ester;Phosphinecarboxylic acid, diethoxy-, ethyl ester, oxide;Diethyl (ethoxycarbonyl)phosphonate;Diethyl carbethoxyphosphonate;Triethyl carboxyphosphonate;Ethyl diethylphosphonoformate;Triethyl phosphonoformate;NSC 108684",
    "duplicated_cas_no": "1071716-58-9",
    "SMILES": "P(C(OCC)=O)(OCC)(OCC)=O",
    "meta_data": {
        "InChI": "InChI=1S/C7H15O5P/c1-4-10-7(8)13(9,11-5-2)12-6-3/h4-6H2,1-3H3",
        "InChIKey": null,
        "Canonical SMILES": "O=C(OCC)P(=O)(OCC)OCC",
        "Molecular Formula": "C<sub>7</sub>H<sub>15</sub>O<sub>5</sub>P",
        "Molecular Mass": "210.16",
        "Boiling Point": "122.5-123.0 °C @ Press: 8 Torr",
        "Density": "1.0450 g/cm³ @ Temp: 20 °C"
    }
}