{
    "cas_no": "32343-73-0",
    "key_name": "Acetylcadaverine",
    "cn_name": null,
    "alternate_name": "Acetamide, <em>N</em>-(5-aminopentyl)-;<em>N</em>-(5-Aminopentyl)acetamide;Monoacetyl cadaverine;<em>N</em>-Acetylcadaverine;Acetylcadaverine",
    "duplicated_cas_no": "",
    "SMILES": "C(CCCCN)NC(C)=O",
    "meta_data": {
        "InChI": "InChI=1S/C7H16N2O/c1-7(10)9-6-4-2-3-5-8/h2-6,8H2,1H3,(H,9,10)",
        "InChIKey": null,
        "Canonical SMILES": "O=C(NCCCCCN)C",
        "Molecular Formula": "C<sub>7</sub>H<sub>16</sub>N<sub>2</sub>O",
        "Molecular Mass": "144.21",
        "Boiling Point": "105-110 °C @ Press: 20 Torr"
    }
}