{
    "cas_no": "517-16-8",
    "key_name": "<em>N</em>-(Ethylmercury)-<em>p</em>-toluenesulphonanilide",
    "cn_name": "磺胺乙汞;",
    "alternate_name": "Mercury, ethyl(4-methyl-<em>N</em>-phenylbenzenesulfonamidato-κ<em>N</em>)-;Mercury, ethyl(<em>p</em>-toluenesulfonanilidato)-;Mercury, ethyl(4-methyl-<em>N</em>-phenylbenzenesulfonamidato-<em>N</em>)-;Benzenesulfono-<em>p</em>-toluidide, <em>N</em>-(ethylmercuri)-;Benzenesulfonamide, 4-methyl-<em>N</em>-phenyl-, mercury complex;Ethyl(4-methyl-<em>N</em>-phenylbenzenesulfonamidato-κ<em>N</em>)mercury;Ceresan M;Ceresan M-DB;<em>N</em>-(Ethylmercuri)-<em>p</em>-toluenesulfonanilide;<em>N</em>-(Ethylmercuri)-<em>p</em>-toluenesulphonanilide;Ethylmercury <em>p</em>-toluenesulfonanilide;(<em>N</em>-Phenyl-<em>p</em>-toluenesulfonamido)ethylmercury;Mergon;Ethylmercuric-<em>p</em>-toluensulfonanilide;<em>N</em>-(Ethylmercury)-<em>p</em>-toluenesulfonanilide;Granosan MDB;Seed Dressing Universal;Zaprawa Nasienna Universal R;Mergon D;Zaprawa Nasienna Uniwersalna;Zaprawa Nasienna Universal;EMTS;<em>N</em>-(Ethylmercury)-<em>p</em>-toluenesulphonanilide",
    "duplicated_cas_no": "",
    "SMILES": "N(S(=O)(=O)C1=CC=C(C)C=C1)([Hg]CC)C2=CC=CC=C2",
    "meta_data": {
        "InChI": "InChI=1S/C13H12NO2S.C2H5.Hg/c1-11-7-9-13(10-8-11)17(15,16)14-12-5-3-2-4-6-12;1-2;/h2-10H,1H3;1H2,2H3;/q-1;;+1",
        "InChIKey": null,
        "Canonical SMILES": "O=S(=O)(C1=CC=C(C=C1)C)N([Hg]CC)C=2C=CC=CC2",
        "Molecular Formula": "C<sub>15</sub>H<sub>17</sub>HgNO<sub>2</sub>S",
        "Molecular Mass": "",
        "Melting Point": "153-154 °C"
    }
}