{
    "cas_no": "2719-32-6",
    "key_name": "4-Cyanophenyl isothiocyanate",
    "cn_name": "4-氰基苯基硫代异氰酸酯;",
    "alternate_name": "Benzonitrile, 4-isothiocyanato-;Isothiocyanic acid, <em>p</em>-cyanophenyl ester;4-Isothiocyanatobenzonitrile;<em>p</em>-Cyanophenyl isothiocyanate;4-Cyanophenyl isothiocyanate",
    "duplicated_cas_no": "28176-29-6",
    "SMILES": "N(=C=S)C1=CC=C(C#N)C=C1",
    "meta_data": {
        "InChI": "InChI=1S/C8H4N2S/c9-5-7-1-3-8(4-2-7)10-6-11/h1-4H",
        "InChIKey": null,
        "Canonical SMILES": "N#CC1=CC=C(N=C=S)C=C1",
        "Molecular Formula": "C<sub>8</sub>H<sub>4</sub>N<sub>2</sub>S",
        "Molecular Mass": "160.20",
        "Melting Point": "121 °C"
    }
}