{
    "cas_no": "51329-15-8",
    "key_name": "Methyl 3,5-dibromobenzoate",
    "cn_name": "3,5--二溴苯甲酸甲酯;",
    "alternate_name": "Benzoic acid, 3,5-dibromo-, methyl ester;Methyl 3,5-dibromobenzoate;3,5-Dibromobenzoic acid methyl ester",
    "duplicated_cas_no": "",
    "SMILES": "C(OC)(=O)C1=CC(Br)=CC(Br)=C1",
    "meta_data": {
        "InChI": "InChI=1S/C8H6Br2O2/c1-12-8(11)5-2-6(9)4-7(10)3-5/h2-4H,1H3",
        "InChIKey": null,
        "Canonical SMILES": "O=C(OC)C=1C=C(Br)C=C(Br)C1",
        "Molecular Formula": "C<sub>8</sub>H<sub>6</sub>Br<sub>2</sub>O<sub>2</sub>",
        "Molecular Mass": "293.94",
        "Melting Point": "62-63 °C"
    }
}