{
    "cas_no": "924-44-7",
    "key_name": "Ethyl glyoxylate",
    "cn_name": "乙醛酸乙酯;",
    "alternate_name": "Acetic acid, 2-oxo-, ethyl ester;Glyoxylic acid, ethyl ester;Acetic acid, oxo-, ethyl ester;Ethyl glyoxylate;Ethyl oxoacetate;Oxoacetic acid ethyl ester;NSC 49206;Ethyl 2-oxoacetate;Glyoxalic acid ethyl ester;Formyl ethoxy ketone",
    "duplicated_cas_no": "",
    "SMILES": "C(OCC)(C=O)=O",
    "meta_data": {
        "InChI": "InChI=1S/C4H6O3/c1-2-7-4(6)3-5/h3H,2H2,1H3",
        "InChIKey": null,
        "Canonical SMILES": "O=CC(=O)OCC",
        "Molecular Formula": "C<sub>4</sub>H<sub>6</sub>O<sub>3</sub>",
        "Molecular Mass": "102.09",
        "Boiling Point": "140-143 °C @ Press: 1.5 Torr",
        "Density": "1.094 g/cm³ @ Temp: 25 °C"
    }
}