{
    "cas_no": "90-49-3",
    "key_name": "Pheneturide",
    "cn_name": "2-苯丁酰脲;",
    "alternate_name": "Benzeneacetamide, <em>N</em>-(aminocarbonyl)-α-ethyl-;Urea, (2-phenylbutyryl)-;<em>N</em>-(Aminocarbonyl)-α-ethylbenzeneacetamide;Ethylphenacemide;Lircapyl;Pheneturide;2-Phenylbutyrylurea;<em>N</em>-(α-Phenylbutyryl)urea;Phenylethylacetylurea;α-Phenyl-α-ethylacetylurea;1-[(Ethyl)phenylacetyl]urea;Benuride;M 551;S 46;Phenuride;<em>dl</em>-Pheneturide;PBU;EPA;(2-Phenylbutanoyl)urea",
    "duplicated_cas_no": "6509-31-5",
    "SMILES": "C(C(NC(N)=O)=O)(CC)C1=CC=CC=C1",
    "meta_data": {
        "InChI": "InChI=1S/C11H14N2O2/c1-2-9(10(14)13-11(12)15)8-6-4-3-5-7-8/h3-7,9H,2H2,1H3,(H3,12,13,14,15)",
        "InChIKey": null,
        "Canonical SMILES": "O=C(N)NC(=O)C(C=1C=CC=CC1)CC",
        "Molecular Formula": "C<sub>11</sub>H<sub>14</sub>N<sub>2</sub>O<sub>2</sub>",
        "Molecular Mass": "206.24",
        "Melting Point": "162 °C"
    }
}