{
    "cas_no": "2462-35-3",
    "key_name": "<span class=\"text-smallcaps\">L</span>-Leucine, phenylmethyl ester, hydrochloride (1:1)",
    "cn_name": null,
    "alternate_name": "<span class=\"text-smallcaps\">L</span>-Leucine, phenylmethyl ester, hydrochloride (1:1);Leucine, benzyl ester, hydrochloride, <span class=\"text-smallcaps\">L</span>-;<span class=\"text-smallcaps\">L</span>-Leucine, phenylmethyl ester, hydrochloride;Leucine benzyl ester hydrochloride;<span class=\"text-smallcaps\">L</span>-Leucine benzyl ester hydrochloride;Benzyl <span class=\"text-smallcaps\">L</span>-leucinate hydrochloride;(<em>S</em>)-Benzyl 2-amino-4-methylpentanoate hydrochloride",
    "duplicated_cas_no": "",
    "SMILES": "C(OC([C@H](CC(C)C)N)=O)C1=CC=CC=C1.Cl",
    "meta_data": {
        "InChI": "InChI=1S/C13H19NO2.ClH/c1-10(2)8-12(14)13(15)16-9-11-6-4-3-5-7-11;/h3-7,10,12H,8-9,14H2,1-2H3;1H/t12-;/m0./s1",
        "InChIKey": null,
        "Canonical SMILES": "Cl.O=C(OCC=1C=CC=CC1)C(N)CC(C)C",
        "Molecular Formula": "C<sub>13</sub>H<sub>19</sub>NO<sub>2</sub>.ClH",
        "Molecular Mass": "",
        "Melting Point": "129 °C"
    }
}