{
    "cas_no": "2443-66-5",
    "key_name": "Hydroxy(phenyl)acetic acid hydrazide",
    "cn_name": "马来酸酰肼;",
    "alternate_name": "Benzeneacetic acid, α-hydroxy-, hydrazide;Mandelic acid, hydrazide;Mandelohydrazide;<span class=\"text-smallcaps\">DL</span>-Hydroxy(phenyl)acetic acid hydrazide;Hydroxy(phenyl)acetohydrazide;Hydroxy(phenyl)acetic acid hydrazide;INHd 34;2-Hydroxy-2-phenylacetohydrazide",
    "duplicated_cas_no": "14139-75-4",
    "SMILES": "C(C(NN)=O)(O)C1=CC=CC=C1",
    "meta_data": {
        "InChI": "InChI=1S/C8H10N2O2/c9-10-8(12)7(11)6-4-2-1-3-5-6/h1-5,7,11H,9H2,(H,10,12)",
        "InChIKey": null,
        "Canonical SMILES": "O=C(NN)C(O)C=1C=CC=CC1",
        "Molecular Formula": "C<sub>8</sub>H<sub>10</sub>N<sub>2</sub>O<sub>2</sub>",
        "Molecular Mass": "166.18",
        "Melting Point": "132-133 °C"
    }
}