{
    "cas_no": "10377-60-3",
    "key_name": "Magnesium nitrate",
    "cn_name": "硝酸镁;",
    "alternate_name": "Nitric acid, magnesium salt (2:1);Nitric acid, magnesium salt;Magnesium nitrate;Magniosan;Magnesium dinitrate",
    "duplicated_cas_no": "50908-84-4",
    "SMILES": "N(=O)(=O)O.[Mg]",
    "meta_data": {
        "InChI": "InChI=1S/Mg.HNO3/c;2-1(3)4/h;(H,2,3,4)",
        "InChIKey": null,
        "Canonical SMILES": "[Mg].O=N(=O)O",
        "Molecular Formula": "HNO<sub>3</sub>.<sup>1</sup>/<sub>2</sub>Mg",
        "Molecular Mass": "",
        "Melting Point": "298-303 °C (decomp)",
        "Density": "~2.3 g/cm³ (approx)"
    }
}