{
    "cas_no": "4339-72-4",
    "key_name": "Oleanolic acid acetate",
    "cn_name": "齐墩果酸3-乙酸酯;",
    "alternate_name": "Olean-12-en-28-oic acid, 3-(acetyloxy)-, (3β)-;Olean-12-en-28-oic acid, 3β-hydroxy-, acetate;Oleanolic acid, acetyl-;(3β)-3-(Acetyloxy)olean-12-en-28-oic acid;Acetyloleanolic acid;<em>O</em>-Acetyloleanolic acid;3-<em>O</em>-Acetyloleanolic acid;3β-Acetyloleanolic acid;Oleanolic acetate;Oleanolic acid acetate;3-Acetyloleanolic acid;3β-Acetoxyolean-12-en-28-oic acid;3-Acetoxyoleanolic acid;Oleanolic acid 3-<em>O</em>-acetate;Oleanolic acid 3β-acetate;3β-Acetoxyolean-12-en-28-acid;Oleanolic acid 3-acetate",
    "duplicated_cas_no": "118122-15-9;137867-41-5;87038-54-8",
    "SMILES": "C[C@]12[C@@]3(C)C([C@]4([C@@](C(O)=O)(CC3)CCC(C)(C)C4)[H])=CC[C@@]1([C@]5(C)[C@@](CC2)(C(C)(C)[C@@H](OC(C)=O)CC5)[H])[H]",
    "meta_data": {
        "InChI": "InChI=1S/C32H50O4/c1-20(33)36-25-12-13-29(6)23(28(25,4)5)11-14-31(8)24(29)10-9-21-22-19-27(2,3)15-17-32(22,26(34)35)18-16-30(21,31)7/h9,22-25H,10-19H2,1-8H3,(H,34,35)/t22-,23-,24+,25-,29-,30+,31+,32-/m0/s1",
        "InChIKey": null,
        "Canonical SMILES": "O=C(OC1CCC2(C)C3CC=C4C5CC(C)(C)CCC5(C(=O)O)CCC4(C)C3(C)CCC2C1(C)C)C",
        "Molecular Formula": "C<sub>32</sub>H<sub>50</sub>O<sub>4</sub>",
        "Molecular Mass": "498.74",
        "Melting Point": "264-265 °C"
    }
}