{
    "cas_no": "2556-53-8",
    "key_name": "Calcium methoxide",
    "cn_name": "甲醇钙;",
    "alternate_name": "Methanol, calcium salt (2:1);Methanol, calcium salt;Calcium methoxide;Calcium dimethoxide;AKC 165;Dimethoxycalcium",
    "duplicated_cas_no": "1313402-15-1",
    "SMILES": "CO.[Ca]",
    "meta_data": {
        "InChI": "InChI=1S/CH4O.Ca/c1-2;/h2H,1H3;",
        "InChIKey": null,
        "Canonical SMILES": "[Ca].OC",
        "Molecular Formula": "CH<sub>4</sub>O.<sup>1</sup>/<sub>2</sub>Ca",
        "Molecular Mass": "",
        "Melting Point": "&gt;170 °C (decomp)"
    }
}