{
    "cas_no": "25085-50-1",
    "key_name": "<em>p</em>-<em>tert</em>-Butylphenol-formaldehyde copolymer",
    "cn_name": null,
    "alternate_name": "Formaldehyde, polymer with 4-(1,1-dimethylethyl)phenol;Phenol, <em>p</em>-<em>tert</em>-butyl-, polymer with formaldehyde;Phenol, 4-(1,1-dimethylethyl)-, polymer with formaldehyde;Formaldehyde-<em>p</em>-<em>tert</em>-butylphenol resin;Fenofor B;Paraformaldehyde-<em>p</em>-<em>tert</em>-butylphenol copolymer;<em>p</em>-<em>tert</em>-Butylphenol-formaldehyde resin;<em>p</em>-<em>tert</em>-Butylphenol-formaldehyde polymer;<em>p</em>-<em>tert</em>-Butylphenol-formaldehyde copolymers;Varcum 921;<em>p</em>-<em>tert</em>-Butylphenol-formaldehyde resol;Resin 101K;Formaldehyde-<em>p</em>-<em>tert</em>-butylphenol polymer;4-<em>tert</em>-Butylphenol-formaldehyde polymer;101K;Balrezit 75;Formaldehyde-<em>p</em>-<em>tert</em>-butylphenol copolymer;Bakelite CKM 1634;Bakelite CKM 1834;<em>p</em>-<em>t</em>-Butylphenol-formaldehyde polymer;Balresin;Durez 26799;101L;Resin 1001;Bakelite CKR 1634;Formaldehyde-4-<em>tert</em>-butylphenol copolymer;CKM 1634;CKM 2103;Alresen PA 101;Alresen PA 104;Hitanol 2181SL;Hitanol 2353N;F 60;PP 3121;Hitanol 2181;Hitanol 1140;Resinox P 97;Viaphen PA 101;101LK;<em>p</em>-<em>tert</em>-Butylphenol-paraformaldehyde copolymer;Bakelite 92370;FFO 101;Tamanol 521;Tamanol 510;Super Beckacite G 1050;PR 1140;75TBE;Bakelite CKM;Bakelite CKM 2432;Resitop PS 2657;PS 2657;PR 50483;Sumilit PR 50483;CKR 1634;TKB 140;Hitanol 1154;F 60 (polymer);CKM 2432;101L (phenolic resin);Advorez 989;H 2181;Shonol CKM 2103;Ribetak R 7522;4-<em>tert</em>-Butylphenol-formaldehyde copolymer;<em>p</em>-<em>tert</em>-Butylphenol-formaldehyde copolymer;6572LB;6204K;Biolac 1071;PAPS-PTBPN 01;Durez 32333;Hitanol H 2181;SFC 112-65;4-Tert-butylphenol-formaldehyde copolymer;Formaldehyde-<em>p</em>-<em>t</em>-butylphenol copolymer;Resin 204;Jinghe 204;Poly[[(1,1-dimethylethyl)hydroxyphenylene]methylene];Paraformaldehyde-p-<em>tert</em>-butylphenol copolymer;<em>p</em>-<em>tert</em>-Butylphenol-Formalin copolymer;Hexion 0751LA;SL 1401;PF 7001;SC 204;SC 204 (phenolic resin);SL 1400;TDN 204 resin",
    "duplicated_cas_no": "37359-98-1;39289-25-3;39355-39-0;39468-17-2;50809-28-4;52623-30-0;52907-75-2;55962-70-4;59948-61-7;63284-43-5;65546-94-3;66038-50-4;68426-15-3;71281-91-9;75433-58-8;78041-31-3;79586-37-1;87397-89-5;89551-78-0;106441-81-0;108422-69-1;114101-07-4;134170-74-4;135230-05-6",
    "SMILES": "C(C)(C)(C)C1=CC=C(O)C=C1.C=O",
    "meta_data": {
        "InChI": "InChI=1S/C10H14O.CH2O/c1-10(2,3)8-4-6-9(11)7-5-8;1-2/h4-7,11H,1-3H3;1H2",
        "InChIKey": null,
        "Canonical SMILES": "O=C.OC1=CC=C(C=C1)C(C)(C)C",
        "Molecular Formula": "(C<sub>10</sub>H<sub>14</sub>O.CH<sub>2</sub>O)<sub>x</sub>",
        "Molecular Mass": "",
        "Melting Point": "80 °C"
    }
}