{
    "cas_no": "583-08-4",
    "key_name": "Nicotinuric acid",
    "cn_name": "烟酰甘氨酸;",
    "alternate_name": "Glycine, <em>N</em>-(3-pyridinylcarbonyl)-;Glycine, <em>N</em>-nicotinoyl-;<em>N</em>-(3-Pyridinylcarbonyl)glycine;Nicotinylglycine;Nicotinoylglycine;Nicotinuric acid;NSC 71273;2-(Nicotinylamino)acetic acid;(Nicotinoylamino)acetic acid;[(Pyridin-3-ylcarbonyl)amino]acetic acid;2-[(Pyridin-3-yl)formamido]acetic acid;2-(Pyridin-3-ylformamido)acetic acid;2-(Nicotinamido)aceticacid;2-(Pyridine-3-carbonylamino)acetic acid",
    "duplicated_cas_no": "",
    "SMILES": "C(NCC(O)=O)(=O)C=1C=CC=NC1",
    "meta_data": {
        "InChI": "InChI=1S/C8H8N2O3/c11-7(12)5-10-8(13)6-2-1-3-9-4-6/h1-4H,5H2,(H,10,13)(H,11,12)",
        "InChIKey": null,
        "Canonical SMILES": "O=C(O)CNC(=O)C=1C=NC=CC1",
        "Molecular Formula": "C<sub>8</sub>H<sub>8</sub>N<sub>2</sub>O<sub>3</sub>",
        "Molecular Mass": "180.16",
        "Boiling Point": "85-90 °C @ Press: 12-20 Torr",
        "Melting Point": "242-244 °C (decomp)",
        "Density": "1.49 g/cm³"
    }
}