{
    "cas_no": "15761-39-4",
    "key_name": "BOC-<span class=\"text-smallcaps\">L</span>-Proline",
    "cn_name": "BOC-L-脯氨酸;叔丁氧羰基-L-脯氨酸;",
    "alternate_name": "1,2-Pyrrolidinedicarboxylic acid, 1-(1,1-dimethylethyl) ester, (2<em>S</em>)-;1,2-Pyrrolidinedicarboxylic acid, 1-<em>tert</em>-butyl ester, <span class=\"text-smallcaps\">L</span>-;1,2-Pyrrolidinedicarboxylic acid, 1-(1,1-dimethylethyl) ester, (<em>S</em>)-;1-<em>tert</em>-Butyloxycarbonyl-<span class=\"text-smallcaps\">L</span>-proline;1-<em>tert</em>-Butoxycarbonyl-<span class=\"text-smallcaps\">L</span>-proline;<em>N</em>-(<em>tert</em>-Butyloxycarbonyl)-<span class=\"text-smallcaps\">L</span>-proline;<em>N</em>-(<em>tert</em>-Butoxycarbonyl)-<span class=\"text-smallcaps\">L</span>-proline;BOC-<span class=\"text-smallcaps\">L</span>-Proline;<em>N</em>-(<em>t</em>-Butoxycarbonyl)proline;<em>N</em>-(<em>tert</em>-Butoxycarbonyl)-(<em>S</em>)-proline;<em>N</em>-[(1,1-Dimethylethoxy)carbonyl]-(<em>S</em>)-proline;<em>N</em>-Boc-(<em>S</em>)-proline;(<em>S</em>)-<em>N</em>-<em>tert</em>-Butoxycarbonylproline;1-(<em>tert</em>-Butoxycarbonyl)-(<em>S</em>)-proline;<em>N</em>-(<em>tert</em>-Butoxycarbonyl)proline;(2<em>S</em>)-1-<em>tert</em>-Butoxycarbonylpyrrolidine-2-carboxylic acid;(<em>S</em>)-Pyrrolidine-1,2-dicarboxylic acid 1-<em>tert</em>-butyl ester;NSC 164660;(<em>S</em>)-1-(<em>tert</em>-Butoxycarbonyl)-2-pyrrolidinecarboxylic acid;<em>N</em>-Boc-<span class=\"text-smallcaps\">L</span>-proline;(2<em>S</em>)-1,2-Pyrrolidinedicarboxylic acid 1-(1,1-dimethylethyl) ester;(2S)-1-Boc-pyrrolidine-2-carboxylic acid;1-<em>tert</em>-Butyl (<em>S</em>)-pyrrolidine-1,2-dicarboxylate;<span class=\"text-smallcaps\">L</span>-<em>N</em>-Boc-proline;(<em>S</em>)-1-Boc-β-proline;1-(<em>tert</em>-Butoxycarbonyl)-(2S)-pyrrolidine-2-carboxylic acid;<em>trans</em>-<em>N</em>-(<em>tert</em>-Butoxycarbonyl)-4-hydroxy-<span class=\"text-smallcaps\">L</span>-proline;Boc-<span class=\"text-smallcaps\">L</span>-Pro;Boc-L-Pro-OH;(2S)-1-[(2-Methylpropan-2-yl)oxycarbonyl]pyrrolidine-2-carboxylic acid;(2S)-1-<em>tert</em>-Butoxycarbonylpyrrolidine-2-carboxylic acid",
    "duplicated_cas_no": "",
    "SMILES": "C(OC(C)(C)C)(=O)N1[C@H](C(O)=O)CCC1",
    "meta_data": {
        "InChI": "InChI=1S/C10H17NO4/c1-10(2,3)15-9(14)11-6-4-5-7(11)8(12)13/h7H,4-6H2,1-3H3,(H,12,13)/t7-/m0/s1",
        "InChIKey": null,
        "Canonical SMILES": "O=C(OC(C)(C)C)N1CCCC1C(=O)O",
        "Molecular Formula": "C<sub>10</sub>H<sub>17</sub>NO<sub>4</sub>",
        "Molecular Mass": "215.25",
        "Melting Point": "135-136 °C"
    }
}