{
    "cas_no": "40501-41-5",
    "key_name": "[1,1′-Biphenyl]-4-carboxylic acid, 4′-hydroxy-, methyl ester",
    "cn_name": null,
    "alternate_name": "[1,1′-Biphenyl]-4-carboxylic acid, 4′-hydroxy-, methyl ester;Methyl 4′-hydroxy-4-biphenylcarboxylate;Methyl 4-hydroxybiphenyl-4′-carboxylate;4′-Hydroxy-4-biphenylcarboxylic acid methyl ester;Methyl 4-(4-hydroxyphenyl)benzoate;Methyl 4-(4′-hydroxyphenyl)benzoate;4′-Hydroxy[1,1′-biphenyl]-4-carboxylic acid methyl ester;Methyl 4′-hydroxy-1,1′-biphenyl-4-carboxylate",
    "duplicated_cas_no": "",
    "SMILES": "C(OC)(=O)C1=CC=C(C=C1)C2=CC=C(O)C=C2",
    "meta_data": {
        "InChI": "InChI=1S/C14H12O3/c1-17-14(16)12-4-2-10(3-5-12)11-6-8-13(15)9-7-11/h2-9,15H,1H3",
        "InChIKey": null,
        "Canonical SMILES": "O=C(OC)C1=CC=C(C=C1)C=2C=CC(O)=CC2",
        "Molecular Formula": "C<sub>14</sub>H<sub>12</sub>O<sub>3</sub>",
        "Molecular Mass": "228.24",
        "Melting Point": "224-226 °C"
    }
}