{
    "cas_no": "4515-23-5",
    "key_name": "Phenylmethyl [(3<em>S</em>)-tetrahydro-2,5-dioxo-3-furanyl]carbamate",
    "cn_name": null,
    "alternate_name": "Carbamic acid, [(3<em>S</em>)-tetrahydro-2,5-dioxo-3-furanyl]-, phenylmethyl ester;Carbamic acid, (tetrahydro-2,5-dioxo-3-furanyl)-, phenylmethyl ester, (<em>S</em>)-;Aspartic anhydride, <em>N</em>-carboxy-, <em>N</em>-benzyl ester, <span class=\"text-smallcaps\">L</span>-;Phenylmethyl [(3<em>S</em>)-tetrahydro-2,5-dioxo-3-furanyl]carbamate;<em>N</em>-Carbobenzoxy-<span class=\"text-smallcaps\">L</span>-aspartic anhydride;<em>N</em>-Carbobenzoxy-<span class=\"text-smallcaps\">L</span>-aspartic acid anhydride;<em>N</em>-(Benzyloxycarbonyl)-<span class=\"text-smallcaps\">L</span>-aspartic anhydride;<em>N</em>-(Benzyloxycarbonyl)-<span class=\"text-smallcaps\">L</span>-aspartic acid anhydride;<em>N</em>-(Benzyloxycarbonyl)aspartic anhydride;Cbz-<span class=\"text-smallcaps\">L</span>-Aspartic acid anhydride;β-Benzyl <span class=\"text-smallcaps\">L</span>-aspartate <em>N</em>-carboxyl anhydride",
    "duplicated_cas_no": "",
    "SMILES": "N(C(OCC1=CC=CC=C1)=O)[C@@H]2C(=O)OC(=O)C2",
    "meta_data": {
        "InChI": "InChI=1S/C12H11NO5/c14-10-6-9(11(15)18-10)13-12(16)17-7-8-4-2-1-3-5-8/h1-5,9H,6-7H2,(H,13,16)/t9-/m0/s1",
        "InChIKey": null,
        "Canonical SMILES": "O=C(OCC=1C=CC=CC1)NC2C(=O)OC(=O)C2",
        "Molecular Formula": "C<sub>12</sub>H<sub>11</sub>NO<sub>5</sub>",
        "Molecular Mass": "249.22",
        "Melting Point": "124 °C"
    }
}