{
    "cas_no": "118-34-3",
    "key_name": "Syringin",
    "cn_name": "紫丁香苷;(2R,3S,4S,5R,6S)-2-羟甲基-6-[4-[(E)-3-羟基丙-1-烯基]-2,6-二甲氧基苯氧基]氧杂环己烷-3,4,5-三;",
    "alternate_name": "β-<span class=\"text-smallcaps\">D</span>-Glucopyranoside, 4-[(1<em>E</em>)-3-hydroxy-1-propen-1-yl]-2,6-dimethoxyphenyl;Syringin;β-<span class=\"text-smallcaps\">D</span>-Glucopyranoside, 4-(3-hydroxy-1-propenyl)-2,6-dimethoxyphenyl, (<em>E</em>)-;β-<span class=\"text-smallcaps\">D</span>-Glucopyranoside, 4-[(1<em>E</em>)-3-hydroxy-1-propenyl]-2,6-dimethoxyphenyl;4-[(1<em>E</em>)-3-Hydroxy-1-propen-1-yl]-2,6-dimethoxyphenyl β-<span class=\"text-smallcaps\">D</span>-glucopyranoside;Ligustrin;Lilacin;Methoxyconiferine;Syringoside;Eleutheroside B;Magnolenin;Ilexanthin A;Siringin;NSC 287441;Sinapyl alcohol 4-<em>O</em>-glucoside;Sinapyl alcohol β-glucoside;(<em>E</em>)-Sinapyl alcohol 4-glucoside;(2<em>R</em>,3<em>S</em>,4<em>S</em>,5<em>R</em>,6<em>S</em>)-2-(Hydroxymethyl)-6-[4-(3-hydroxyprop-1-enyl)-2,6-dimethoxyphenoxy] oxane-3,4,5-triol;Syringin B",
    "duplicated_cas_no": "55598-67-9;875907-76-9",
    "SMILES": "O(C1=C(OC)C=C(/C=C/CO)C=C1OC)[C@@H]2O[C@H](CO)[C@@H](O)[C@H](O)[C@H]2O",
    "meta_data": {
        "InChI": "InChI=1S/C17H24O9/c1-23-10-6-9(4-3-5-18)7-11(24-2)16(10)26-17-15(22)14(21)13(20)12(8-19)25-17/h3-4,6-7,12-15,17-22H,5,8H2,1-2H3/b4-3+/t12-,13-,14+,15-,17+/m1/s1",
        "InChIKey": null,
        "Canonical SMILES": "OCC=CC1=CC(OC)=C(OC2OC(CO)C(O)C(O)C2O)C(OC)=C1",
        "Molecular Formula": "C<sub>17</sub>H<sub>24</sub>O<sub>9</sub>",
        "Molecular Mass": "372.37",
        "Melting Point": "189-190 °C"
    }
}