{
    "cas_no": "7435-83-8",
    "key_name": "2,3,5,6-Tetramethylbenzyl chloride",
    "cn_name": "2,3,5,6-四甲基苄基氯;",
    "alternate_name": "Benzene, 3-(chloromethyl)-1,2,4,5-tetramethyl-;3-(Chloromethyl)-1,2,4,5-tetramethylbenzene;(Chloromethyl)durene;2,3,5,6-Tetramethylbenzyl chloride;<em>m</em>,<em>m</em>,<em>o</em>,<em>o</em>-Tetramethylbenzyl chloride;NSC 85458;1,2,4,5-Tetramethyl-3-(chloromethyl)benzene",
    "duplicated_cas_no": "",
    "SMILES": "C(Cl)C1=C(C)C(C)=CC(C)=C1C",
    "meta_data": {
        "InChI": "InChI=1S/C11H15Cl/c1-7-5-8(2)10(4)11(6-12)9(7)3/h5H,6H2,1-4H3",
        "InChIKey": null,
        "Canonical SMILES": "ClCC=1C(=C(C=C(C1C)C)C)C",
        "Molecular Formula": "C<sub>11</sub>H<sub>15</sub>Cl",
        "Molecular Mass": "182.69",
        "Boiling Point": "143-144 °C @ Press: 18 Torr",
        "Melting Point": "67-68 °C"
    }
}