{
    "cas_no": "83935-45-9",
    "key_name": "1-[4-(2,5-Dimethyl-1<em>H</em>-pyrrol-1-yl)phenyl]ethanone",
    "cn_name": "N-(4-乙酰苯)-2,5-二甲基吡咯;1-(4-乙酰苯基)-2,5-二甲基吡咯;",
    "alternate_name": "Ethanone, 1-[4-(2,5-dimethyl-1<em>H</em>-pyrrol-1-yl)phenyl]-;1-[4-(2,5-Dimethyl-1<em>H</em>-pyrrol-1-yl)phenyl]ethanone;4-(2,5-Dimethylpyrrol-1-yl)acetophenone;1-(4-Acetylphenyl)-2,5-dimethylpyrrole;1-(4-Acetylphenyl)-2,5-dimethyl-1<em>H</em>-pyrrole;1-[4-(2,5-Dimethyl-1<em>H</em>-pyrrol-1-yl)phenyl]ethan-1-one;1-[4-(2,5-Dimethyl-pyrrol-1-yl)-phenyl]-ethanone;1-[4-(2,5-Dimethylpyrrol-1-yl)phenyl]ethanone",
    "duplicated_cas_no": "",
    "SMILES": "CC=1N(C2=CC=C(C(C)=O)C=C2)C(C)=CC1",
    "meta_data": {
        "InChI": "InChI=1S/C14H15NO/c1-10-4-5-11(2)15(10)14-8-6-13(7-9-14)12(3)16/h4-9H,1-3H3",
        "InChIKey": null,
        "Canonical SMILES": "O=C(C1=CC=C(C=C1)N2C(=CC=C2C)C)C",
        "Molecular Formula": "C<sub>14</sub>H<sub>15</sub>NO",
        "Molecular Mass": "213.27",
        "Melting Point": "112-113 °C"
    }
}