{
    "cas_no": "86-97-5",
    "key_name": "5-Amino-2-naphthol",
    "cn_name": "5-氨基-2-萘酚;5-氨基-2-萘酚;",
    "alternate_name": "2-Naphthalenol, 5-amino-;2-Naphthol, 5-amino-;5-Amino-2-naphthalenol;5-Amino-2-naphthol;1-Amino-6-naphthol;6-Hydroxy-1-naphthylamine;NSC 4012;1-Amino-6-hydroxynaphthaline;5-Amino-2-hydroxynaphthalene",
    "duplicated_cas_no": "",
    "SMILES": "NC=1C2=C(C=C(O)C=C2)C=CC1",
    "meta_data": {
        "InChI": "InChI=1S/C10H9NO/c11-10-3-1-2-7-6-8(12)4-5-9(7)10/h1-6,12H,11H2",
        "InChIKey": null,
        "Canonical SMILES": "OC=1C=CC=2C(N)=CC=CC2C1",
        "Molecular Formula": "C<sub>10</sub>H<sub>9</sub>NO",
        "Molecular Mass": "159.18",
        "Melting Point": "183-185 °C"
    }
}