{
    "cas_no": "17238-05-0",
    "key_name": "(±)-Dihydrodaidzein",
    "cn_name": null,
    "alternate_name": "4<em>H</em>-1-Benzopyran-4-one, 2,3-dihydro-7-hydroxy-3-(4-hydroxyphenyl)-;Isoflavanone, 4′,7-dihydroxy-;2,3-Dihydro-7-hydroxy-3-(4-hydroxyphenyl)-4<em>H</em>-1-benzopyran-4-one;(±)-Dihydrodaidzein;Dihydrodaidzein",
    "duplicated_cas_no": "37054-07-2",
    "SMILES": "O=C1C=2C(OCC1C3=CC=C(O)C=C3)=CC(O)=CC2",
    "meta_data": {
        "InChI": "InChI=1S/C15H12O4/c16-10-3-1-9(2-4-10)13-8-19-14-7-11(17)5-6-12(14)15(13)18/h1-7,13,16-17H,8H2",
        "InChIKey": null,
        "Canonical SMILES": "O=C1C2=CC=C(O)C=C2OCC1C3=CC=C(O)C=C3",
        "Molecular Formula": "C<sub>15</sub>H<sub>12</sub>O<sub>4</sub>",
        "Molecular Mass": "256.25",
        "Melting Point": "250 °C"
    }
}