{
    "cas_no": "2142-76-9",
    "key_name": "1-(2,6-Dimethylphenyl)ethanone",
    "cn_name": "2,6-二甲基苯乙酮;2,6-二甲基苯乙酮;",
    "alternate_name": "Ethanone, 1-(2,6-dimethylphenyl)-;Acetophenone, 2′,6′-dimethyl-;1-(2,6-Dimethylphenyl)ethanone;2′,6′-Dimethylacetophenone;2,6-Dimethylacetophenone;1-(2,6-Dimethylphenyl)ethan-1-one",
    "duplicated_cas_no": "",
    "SMILES": "C(C)(=O)C1=C(C)C=CC=C1C",
    "meta_data": {
        "InChI": "InChI=1S/C10H12O/c1-7-5-4-6-8(2)10(7)9(3)11/h4-6H,1-3H3",
        "InChIKey": null,
        "Canonical SMILES": "O=C(C=1C(=CC=CC1C)C)C",
        "Molecular Formula": "C<sub>10</sub>H<sub>12</sub>O",
        "Molecular Mass": "148.20",
        "Boiling Point": "72-73 °C @ Press: 1.5 Torr",
        "Melting Point": "23.5-23.7 °C",
        "Density": "0.9821 g/cm³ @ Temp: 25 °C"
    }
}