{
    "cas_no": "3260-85-3",
    "key_name": "4-Chloro-1-methoxy-2-methylbenzene",
    "cn_name": "4-氯-2-甲基苯甲醚;",
    "alternate_name": "Benzene, 4-chloro-1-methoxy-2-methyl-;Anisole, 4-chloro-2-methyl-;4-Chloro-1-methoxy-2-methylbenzene;2-Methyl-4-chlorophenyl methyl ether;4-Chloro-2-methylanisole;5-Chloro-2-methoxytoluene;2-Methyl-4-chloroanisole;NSC 300882",
    "duplicated_cas_no": "",
    "SMILES": "O(C)C1=C(C)C=C(Cl)C=C1",
    "meta_data": {
        "InChI": "InChI=1S/C8H9ClO/c1-6-5-7(9)3-4-8(6)10-2/h3-5H,1-2H3",
        "InChIKey": null,
        "Canonical SMILES": "ClC1=CC=C(OC)C(=C1)C",
        "Molecular Formula": "C<sub>8</sub>H<sub>9</sub>ClO",
        "Molecular Mass": "156.61",
        "Boiling Point": "210-212 °C @ Press: 760 Torr",
        "Melting Point": "36-37 °C"
    }
}