{
    "cas_no": "615-87-2",
    "key_name": "1,5-Dibromo-2,4-dimethylbenzene",
    "cn_name": null,
    "alternate_name": "Benzene, 1,5-dibromo-2,4-dimethyl-;<em>m</em>-Xylene, 4,6-dibromo-;1,5-Dibromo-2,4-dimethylbenzene;4,6-Dibromo-1,3-xylene;4,6-Dibromo-<em>m</em>-xylene;2,4-Dibromo-1,5-dimethylbenzene",
    "duplicated_cas_no": "",
    "SMILES": "BrC1=C(C)C=C(C)C(Br)=C1",
    "meta_data": {
        "InChI": "InChI=1S/C8H8Br2/c1-5-3-6(2)8(10)4-7(5)9/h3-4H,1-2H3",
        "InChIKey": null,
        "Canonical SMILES": "BrC=1C=C(Br)C(=CC1C)C",
        "Molecular Formula": "C<sub>8</sub>H<sub>8</sub>Br<sub>2</sub>",
        "Molecular Mass": "263.96",
        "Melting Point": "69 °C"
    }
}