{
    "cas_no": "5426-09-5",
    "key_name": "3a,4,7,7a-Tetrahydro-4,7-epoxyisobenzofuran-1,3-dione",
    "cn_name": null,
    "alternate_name": "4,7-Epoxyisobenzofuran-1,3-dione, 3a,4,7,7a-tetrahydro-;7-Oxabicyclo[2.2.1]hept-5-ene-2,3-dicarboxylic anhydride;3a,4,7,7a-Tetrahydro-4,7-epoxyisobenzofuran-1,3-dione;3,6-Epoxy-1,2,3,6-tetrahydrophthalic anhydride;Furan-maleic anhydride adduct;1,4-Epoxycyclohex-5-ene-2,3-dicarboxylic anhydride;7-Oxabicyclo[2.2.1]hept-5-ene-2,3-dicarboxylic acid anhydride;NSC 14002;NSC 231495;NSC 61997;4,10-Dioxatricyclo[5.2.1.0<sup>2,6</sup>]dec-8-ene-3,5-dione;4,10-Dioxatricyclo[5.2.1.0<sup>2,6</sup>]dec-8-ene-3,5-dion;3,6-Oxo-1,2,3,6-tetrahydrophtalic anhydride",
    "duplicated_cas_no": "1284163-28-5",
    "SMILES": "O=C1C2C(C3OC2C=C3)C(=O)O1",
    "meta_data": {
        "InChI": "InChI=1S/C8H6O4/c9-7-5-3-1-2-4(11-3)6(5)8(10)12-7/h1-6H",
        "InChIKey": null,
        "Canonical SMILES": "O=C1OC(=O)C2C3OC(C=C3)C12",
        "Molecular Formula": "C<sub>8</sub>H<sub>6</sub>O<sub>4</sub>",
        "Molecular Mass": "166.13",
        "Melting Point": "118 °C"
    }
}