{
    "cas_no": "13639-54-8",
    "key_name": "β-<span class=\"text-smallcaps\">D</span>-Glucopyranose, 1-thio-, 2,3,4,6-tetraacetate 1-(<em>O</em>-ethyl carbonodithioate)",
    "cn_name": "beta-D-四乙酰葡萄糖乙基黄原酸酯;",
    "alternate_name": "β-<span class=\"text-smallcaps\">D</span>-Glucopyranose, 1-thio-, 2,3,4,6-tetraacetate 1-(<em>O</em>-ethyl carbonodithioate);Glucopyranose, 1-thio-, 2,3,4,6-tetraacetate 1-(<em>O</em>-ethyl dithiocarbonate), β-<span class=\"text-smallcaps\">D</span>-;NSC 66060",
    "duplicated_cas_no": "",
    "SMILES": "O(C(C)=O)[C@@H]1[C@@H](OC(C)=O)[C@H](OC(C)=O)[C@@H](COC(C)=O)O[C@H]1SC(OCC)=S",
    "meta_data": {
        "InChI": "InChI=1S/C17H24O10S2/c1-6-22-17(28)29-16-15(26-11(5)21)14(25-10(4)20)13(24-9(3)19)12(27-16)7-23-8(2)18/h12-16H,6-7H2,1-5H3/t12-,13-,14+,15-,16+/m1/s1",
        "InChIKey": null,
        "Canonical SMILES": "O=C(OCC1OC(SC(=S)OCC)C(OC(=O)C)C(OC(=O)C)C1OC(=O)C)C",
        "Molecular Formula": "C<sub>17</sub>H<sub>24</sub>O<sub>10</sub>S<sub>2</sub>",
        "Molecular Mass": "452.50",
        "Melting Point": "78-80 °C"
    }
}