{
    "cas_no": "7286-84-2",
    "key_name": "Chloramben methyl",
    "cn_name": "草灭平2E;3-氨基-2,5-二氯苯甲酸甲酯;",
    "alternate_name": "Benzoic acid, 3-amino-2,5-dichloro-, methyl ester;Amiben methyl ester;Chloramben methyl ester;Methyl 3-amino-2,5-dichlorobenzoate;Chloramben methyl;3-Amino-2,5-dichlorobenzoic acid methyl ester;NSC 190368",
    "duplicated_cas_no": "",
    "SMILES": "C(OC)(=O)C1=C(Cl)C(N)=CC(Cl)=C1",
    "meta_data": {
        "InChI": "InChI=1S/C8H7Cl2NO2/c1-13-8(12)5-2-4(9)3-6(11)7(5)10/h2-3H,11H2,1H3",
        "InChIKey": null,
        "Canonical SMILES": "O=C(OC)C=1C=C(Cl)C=C(N)C1Cl",
        "Molecular Formula": "C<sub>8</sub>H<sub>7</sub>Cl<sub>2</sub>NO<sub>2</sub>",
        "Molecular Mass": "220.05",
        "Melting Point": "58-60 °C"
    }
}