{
    "cas_no": "202982-72-7",
    "key_name": "4-Chloro-3-iodophenol",
    "cn_name": "4-氯-3-碘苯酚;",
    "alternate_name": "Phenol, 4-chloro-3-iodo-;4-Chloro-3-iodophenol",
    "duplicated_cas_no": "",
    "SMILES": "IC1=C(Cl)C=CC(O)=C1",
    "meta_data": {
        "InChI": "InChI=1S/C6H4ClIO/c7-5-2-1-4(9)3-6(5)8/h1-3,9H",
        "InChIKey": null,
        "Canonical SMILES": "ClC1=CC=C(O)C=C1I",
        "Molecular Formula": "C<sub>6</sub>H<sub>4</sub>ClIO",
        "Molecular Mass": "254.45",
        "Melting Point": "78 °C"
    }
}