{
    "cas_no": "444731-75-3",
    "key_name": "<em>N</em>-(2-Chloro-4-pyrimidinyl)-<em>N</em>,2,3-trimethyl-2<em>H</em>-indazol-6-amine",
    "cn_name": "N-(2-氯嘧啶-4-基)-N-甲基-2,3-二甲基-2H-吲唑-6-胺;",
    "alternate_name": "2<em>H</em>-Indazol-6-amine, <em>N</em>-(2-chloro-4-pyrimidinyl)-<em>N</em>,2,3-trimethyl-;<em>N</em>-(2-Chloro-4-pyrimidinyl)-<em>N</em>,2,3-trimethyl-2<em>H</em>-indazol-6-amine;<em>N</em>-(2-Chloropyrimidin-4-yl)-<em>N</em>-methyl-2,3-dimethyl-2<em>H</em>-indazol-6-amine;<em>N</em>-(2-Chloropyrimidin-4-yl)-<em>N</em>,2,3-trimethyl-2<em>H</em>-indazol-6-amine;<em>N</em>-(2-Chloropyrimidin-4-yl)-<em>N</em>-methyl-2,3-Methyl-2<em>H</em>-indazol-6-amine",
    "duplicated_cas_no": "",
    "SMILES": "CC1=C2C(C=C(N(C)C3=NC(Cl)=NC=C3)C=C2)=NN1C",
    "meta_data": {
        "InChI": "InChI=1S/C14H14ClN5/c1-9-11-5-4-10(8-12(11)18-20(9)3)19(2)13-6-7-16-14(15)17-13/h4-8H,1-3H3",
        "InChIKey": null,
        "Canonical SMILES": "ClC1=NC=CC(=N1)N(C=2C=CC=3C(=NN(C3C)C)C2)C",
        "Molecular Formula": "C<sub>14</sub>H<sub>14</sub>ClN<sub>5</sub>",
        "Molecular Mass": "287.75",
        "Melting Point": "173-174 °C"
    }
}