{
    "cas_no": "15679-12-6",
    "key_name": "2-Ethyl-4-methylthiazole",
    "cn_name": "2-乙基-4-甲基噻唑;",
    "alternate_name": "Thiazole, 2-ethyl-4-methyl-;2-Ethyl-4-methylthiazole;2-Ethyl-4-methyl-1,3-thiazole",
    "duplicated_cas_no": "",
    "SMILES": "C(C)C1=NC(C)=CS1",
    "meta_data": {
        "InChI": "InChI=1S/C6H9NS/c1-3-6-7-5(2)4-8-6/h4H,3H2,1-2H3",
        "InChIKey": null,
        "Canonical SMILES": "N1=C(SC=C1C)CC",
        "Molecular Formula": "C<sub>6</sub>H<sub>9</sub>NS",
        "Molecular Mass": "127.21",
        "Boiling Point": "162 °C"
    }
}