{
    "cas_no": "880-29-5",
    "key_name": "<em>N</em>-(4-Ethoxyphenyl)thiourea",
    "cn_name": null,
    "alternate_name": "Thiourea, <em>N</em>-(4-ethoxyphenyl)-;Urea, 1-(<em>p</em>-ethoxyphenyl)-2-thio-;Thiourea, (4-ethoxyphenyl)-;<em>N</em>-(4-Ethoxyphenyl)thiourea;(<em>p</em>-Ethoxyphenyl)thiourea;(4-Ethoxyphenyl)thiourea;4-Thioureidophenetole;NSC 31198;1-(4-Ethoxyphenyl)thiourea",
    "duplicated_cas_no": "",
    "SMILES": "N(C(N)=S)C1=CC=C(OCC)C=C1",
    "meta_data": {
        "InChI": "InChI=1S/C9H12N2OS/c1-2-12-8-5-3-7(4-6-8)11-9(10)13/h3-6H,2H2,1H3,(H3,10,11,13)",
        "InChIKey": null,
        "Canonical SMILES": "S=C(N)NC1=CC=C(OCC)C=C1",
        "Molecular Formula": "C<sub>9</sub>H<sub>12</sub>N<sub>2</sub>OS",
        "Molecular Mass": "196.27",
        "Melting Point": "171-173 °C"
    }
}