{
    "cas_no": "5271-38-5",
    "key_name": "2-(Methylthio)ethanol",
    "cn_name": "2-甲硫基乙醇;2-(甲硫基)乙醇;",
    "alternate_name": "Ethanol, 2-(methylthio)-;2-(Methylthio)ethanol;2-Hydroxyethyl methyl sulfide;2-Methylmercaptoethanol;Hydroxyethyl methyl sulfide;<em>S</em>-Methylmercaptoethanol;β-Methylmercaptoethanol;β-(Methylthio)ethanol;β-Hydroxyethyl methyl sulfide;Methyl 2-hydroxyethyl sulfide;2-Methanesulfanylethanol;2-(Methylsulfanyl)ethanol;NSC 1902;2-(Methylthio)ethyl alcohol;2-Methylsulfanyl-1-ethanol;2-(Methylthio)ethan-1-ol",
    "duplicated_cas_no": "",
    "SMILES": "C(CO)SC",
    "meta_data": {
        "InChI": "InChI=1S/C3H8OS/c1-5-3-2-4/h4H,2-3H2,1H3",
        "InChIKey": null,
        "Canonical SMILES": "OCCSC",
        "Molecular Formula": "C<sub>3</sub>H<sub>8</sub>OS",
        "Molecular Mass": "92.16",
        "Boiling Point": "80.5-81 °C @ Press: 30 Torr",
        "Density": "1.6040 g/cm³ @ Temp: 20 °C"
    }
}