{
    "cas_no": "19283-70-6",
    "key_name": "2-Hydroxy-3,4-dimethoxybenzaldehyde",
    "cn_name": null,
    "alternate_name": "Benzaldehyde, 2-hydroxy-3,4-dimethoxy-;Veratraldehyde, 2-hydroxy-;2-Hydroxy-3,4-dimethoxybenzaldehyde;3,4-Dimethoxysalicylaldehyde;3,4-Dimethoxy-2-hydroxybenzaldehyde",
    "duplicated_cas_no": "",
    "SMILES": "O(C)C1=C(OC)C=CC(C=O)=C1O",
    "meta_data": {
        "InChI": "InChI=1S/C9H10O4/c1-12-7-4-3-6(5-10)8(11)9(7)13-2/h3-5,11H,1-2H3",
        "InChIKey": null,
        "Canonical SMILES": "O=CC1=CC=C(OC)C(OC)=C1O",
        "Molecular Formula": "C<sub>9</sub>H<sub>10</sub>O<sub>4</sub>",
        "Molecular Mass": "182.17",
        "Boiling Point": "122 °C @ Press: 2 Torr",
        "Melting Point": "74 °C"
    }
}