{
    "cas_no": "22446-37-3",
    "key_name": "Methyl (2-hydroxyphenyl)acetate",
    "cn_name": null,
    "alternate_name": "Benzeneacetic acid, 2-hydroxy-, methyl ester;Acetic acid, (<em>o</em>-hydroxyphenyl)-, methyl ester;Methyl <em>o</em>-hydroxyphenylacetate;Methyl 2-hydroxybenzeneacetate;2-Hydroxyphenylacetic acid methyl ester;Methyl (2-hydroxyphenyl)acetate;2-(2-Hydroxyphenyl)acetic acid methyl ester;Methyl 2-(2′-hydroxyphenyl)acetate",
    "duplicated_cas_no": "",
    "SMILES": "C(C(OC)=O)C1=C(O)C=CC=C1",
    "meta_data": {
        "InChI": "InChI=1S/C9H10O3/c1-12-9(11)6-7-4-2-3-5-8(7)10/h2-5,10H,6H2,1H3",
        "InChIKey": null,
        "Canonical SMILES": "O=C(OC)CC=1C=CC=CC1O",
        "Molecular Formula": "C<sub>9</sub>H<sub>10</sub>O<sub>3</sub>",
        "Molecular Mass": "166.17",
        "Boiling Point": "90-94 °C @ Press: 0.1 Torr",
        "Melting Point": "71-72 °C"
    }
}