{
    "cas_no": "71-30-7",
    "key_name": "Cytosine",
    "cn_name": "胞嘧啶;4-氨基-2-羟基嘧啶;",
    "alternate_name": "2(1<em>H</em>)-Pyrimidinone, 6-amino-;2(1<em>H</em>)-Pyrimidinone, 4-amino-;Cytosine;6-Amino-2(1<em>H</em>)-pyrimidinone;4-Amino-2-hydroxypyrimidine;4-Amino-2-oxo-1,2-dihydropyrimidine;4-Amino-2(1<em>H</em>)-pyrimidinone;Cytosinimine;4-Aminouracil;NSC 27787;4-Amino-1<em>H</em>-pyrimidin-2-one;Cytosines;2-Hydroxy-4-pyrimidinamine;MeSH ID: D003596",
    "duplicated_cas_no": "504-05-2;14987-28-1;26661-23-4;66322-75-6;66398-98-9;66460-16-0;66460-17-1;80275-67-8;88733-25-9;118511-36-7;149297-78-9;918399-36-7;1268833-99-3",
    "SMILES": "NC=1NC(=O)N=CC1",
    "meta_data": {
        "InChI": "InChI=1S/C4H5N3O/c5-3-1-2-6-4(8)7-3/h1-2H,(H3,5,6,7,8)",
        "InChIKey": null,
        "Canonical SMILES": "O=C1N=CC=C(N)N1",
        "Molecular Formula": "C<sub>4</sub>H<sub>5</sub>N<sub>3</sub>O",
        "Molecular Mass": "111.10",
        "Melting Point": "322.5 °C (decomp)",
        "Density": "1.391 g/cm³ @ Temp: Room temp"
    }
}