{
    "cas_no": "24958-42-7",
    "key_name": "2-Bromo-4-methoxy-5-(phenylmethoxy)benzoic acid",
    "cn_name": null,
    "alternate_name": "Benzoic acid, 2-bromo-4-methoxy-5-(phenylmethoxy)-;Benzoic acid, 5-(benzyloxy)-2-bromo-4-methoxy-;2-Bromo-4-methoxy-5-(phenylmethoxy)benzoic acid;2-Bromo-5-benzyloxy-4-methoxybenzoic acid;5-(Benzyloxy)-2-bromo-4-methoxybenzoic acid;2-Bromo-4-methoxy-5-(benzyloxy)benzoic acid",
    "duplicated_cas_no": "",
    "SMILES": "O(CC1=CC=CC=C1)C2=C(OC)C=C(Br)C(C(O)=O)=C2",
    "meta_data": {
        "InChI": "InChI=1S/C15H13BrO4/c1-19-13-8-12(16)11(15(17)18)7-14(13)20-9-10-5-3-2-4-6-10/h2-8H,9H2,1H3,(H,17,18)",
        "InChIKey": null,
        "Canonical SMILES": "O=C(O)C=1C=C(OCC=2C=CC=CC2)C(OC)=CC1Br",
        "Molecular Formula": "C<sub>15</sub>H<sub>13</sub>BrO<sub>4</sub>",
        "Molecular Mass": "337.17",
        "Melting Point": "185 °C"
    }
}