{
    "cas_no": "525-64-4",
    "key_name": "2,7-Diaminofluorene",
    "cn_name": "2,7-二氨基芴;",
    "alternate_name": "9<em>H</em>-Fluorene-2,7-diamine;Fluorene-2,7-diamine;2,7-Diaminofluorene;NSC 12277;2,7-Diamino-9<em>H</em>-fluorene;2,7-Aminofluorene",
    "duplicated_cas_no": "1334501-40-4",
    "SMILES": "NC=1C=C2C(C=3C(C2)=CC(N)=CC3)=CC1",
    "meta_data": {
        "InChI": "InChI=1S/C13H12N2/c14-10-1-3-12-8(6-10)5-9-7-11(15)2-4-13(9)12/h1-4,6-7H,5,14-15H2",
        "InChIKey": null,
        "Canonical SMILES": "NC=1C=CC=2C3=CC=C(N)C=C3CC2C1",
        "Molecular Formula": "C<sub>13</sub>H<sub>12</sub>N<sub>2</sub>",
        "Molecular Mass": "196.25",
        "Boiling Point": "161 °C @ Press: 5 Torr",
        "Melting Point": "166 °C"
    }
}