{
    "cas_no": "718635-93-9",
    "key_name": "1,3,4,6,7,11b-Hexahydro-9,10-dimethoxy-3-(2-methylpropyl)-2<em>H</em>-benzo[<em>a</em>]quinolizin-2-one",
    "cn_name": null,
    "alternate_name": "2<em>H</em>-Benzo[<em>a</em>]quinolizin-2-one, 1,3,4,6,7,11b-hexahydro-9,10-dimethoxy-3-(2-methylpropyl)-;1,3,4,6,7,11b-Hexahydro-9,10-dimethoxy-3-(2-methylpropyl)-2<em>H</em>-benzo[<em>a</em>]quinolizin-2-one;3-Isobutyl-9,10-dimethoxy-1,3,4,6,7,11b-hexahydro-pyrido[2,1-<em>a</em>]isoquinolin-2-one;3-Isobutyl-9,10-dimethoxy-3,4,6,7-tetrahydro-1<em>H</em>-pyrido[2,1-<em>a</em>]isoquinolin-2(11b<em>H</em>)-one",
    "duplicated_cas_no": "",
    "SMILES": "O(C)C=1C=C2C3N(CC(CC(C)C)C(=O)C3)CCC2=CC1OC",
    "meta_data": {
        "InChI": "InChI=1S/C19H27NO3/c1-12(2)7-14-11-20-6-5-13-8-18(22-3)19(23-4)9-15(13)16(20)10-17(14)21/h8-9,12,14,16H,5-7,10-11H2,1-4H3",
        "InChIKey": null,
        "Canonical SMILES": "O=C1CC2C3=CC(OC)=C(OC)C=C3CCN2CC1CC(C)C",
        "Molecular Formula": "C<sub>19</sub>H<sub>27</sub>NO<sub>3</sub>",
        "Molecular Mass": "317.42",
        "Melting Point": "125 °C"
    }
}