{
    "cas_no": "96525-23-4",
    "key_name": "Flurtamone",
    "cn_name": "呋草酮;(RS)-5-甲胺基-2-苯基-4-(a,a,a-三氟-间-甲苯基呋喃-(2H)-酮;",
    "alternate_name": "3(2<em>H</em>)-Furanone, 5-(methylamino)-2-phenyl-4-[3-(trifluoromethyl)phenyl]-;3(2<em>H</em>)-Furanone, 5-(methylamino)-2-phenyl-4-[3-(trifluoromethyl)phenyl]-, (±)-;5-(Methylamino)-2-phenyl-4-[3-(trifluoromethyl)phenyl]-3(2<em>H</em>)-furanone;RE 40885;Flurtamone;Benchmark;Fluortanone",
    "duplicated_cas_no": "121525-86-8",
    "SMILES": "N(C)C1=C(C(=O)C(O1)C2=CC=CC=C2)C3=CC(C(F)(F)F)=CC=C3",
    "meta_data": {
        "InChI": "InChI=1S/C18H14F3NO2/c1-22-17-14(12-8-5-9-13(10-12)18(19,20)21)15(23)16(24-17)11-6-3-2-4-7-11/h2-10,16,22H,1H3",
        "InChIKey": null,
        "Canonical SMILES": "O=C1C(C=2C=CC=C(C2)C(F)(F)F)=C(OC1C=3C=CC=CC3)NC",
        "Molecular Formula": "C<sub>18</sub>H<sub>14</sub>F<sub>3</sub>NO<sub>2</sub>",
        "Molecular Mass": "333.30",
        "Melting Point": "152.5 °C"
    }
}