{
    "cas_no": "1571-72-8",
    "key_name": "3-Amino-4-hydroxybenzoic acid",
    "cn_name": "3-氨基-4-羟基苯甲酸;",
    "alternate_name": "Benzoic acid, 3-amino-4-hydroxy-;3-Amino-4-hydroxybenzoic acid;4-Hydroxy-3-aminobenzoic acid;NSC 700601;3-Amino-4-hydroxylbenzoic acid",
    "duplicated_cas_no": "",
    "SMILES": "C(O)(=O)C1=CC(N)=C(O)C=C1",
    "meta_data": {
        "InChI": "InChI=1S/C7H7NO3/c8-5-3-4(7(10)11)1-2-6(5)9/h1-3,9H,8H2,(H,10,11)",
        "InChIKey": null,
        "Canonical SMILES": "O=C(O)C1=CC=C(O)C(N)=C1",
        "Molecular Formula": "C<sub>7</sub>H<sub>7</sub>NO<sub>3</sub>",
        "Molecular Mass": "153.14",
        "Melting Point": "205 °C"
    }
}