{
    "cas_no": "94608-23-8",
    "key_name": "(<em>Z</em>)-3,5,4′-Trimethoxystilbene",
    "cn_name": null,
    "alternate_name": "Benzene, 1,3-dimethoxy-5-[(1<em>Z</em>)-2-(4-methoxyphenyl)ethenyl]-;Benzene, 1,3-dimethoxy-5-[2-(4-methoxyphenyl)ethenyl]-, (<em>Z</em>)-;1,3-Dimethoxy-5-[(1<em>Z</em>)-2-(4-methoxyphenyl)ethenyl]benzene;3,4′,5-Trimethoxy-<em>cis</em>-stilbene;(<em>Z</em>)-3,5,4′-Trimethoxystilbene;(<em>Z</em>)-1-(4-Methoxyphenyl)-2-(3,5-dimethoxyphenyl)ethene",
    "duplicated_cas_no": "",
    "SMILES": "C(=C\\C1=CC=C(OC)C=C1)\\C2=CC(OC)=CC(OC)=C2",
    "meta_data": {
        "InChI": "InChI=1S/C17H18O3/c1-18-15-8-6-13(7-9-15)4-5-14-10-16(19-2)12-17(11-14)20-3/h4-12H,1-3H3/b5-4-",
        "InChIKey": null,
        "Canonical SMILES": "O(C1=CC=C(C=C1)C=CC=2C=C(OC)C=C(OC)C2)C",
        "Molecular Formula": "C<sub>17</sub>H<sub>18</sub>O<sub>3</sub>",
        "Molecular Mass": "270.32",
        "Melting Point": "55-57 °C"
    }
}