{
    "cas_no": "22662-39-1",
    "key_name": "Rafoxanide",
    "cn_name": "雷复尼特;碘醚柳胺;重碘柳胺;3-氯-4-(对氯苯氧基)-3,5-二碘水杨酰苯胺;",
    "alternate_name": "Benzamide, <em>N</em>-[3-chloro-4-(4-chlorophenoxy)phenyl]-2-hydroxy-3,5-diiodo-;Salicylanilide, 3′-chloro-4′-(<em>p</em>-chlorophenoxy)-3,5-diiodo-;<em>N</em>-[3-Chloro-4-(4-chlorophenoxy)phenyl]-2-hydroxy-3,5-diiodobenzamide;Rafoxanide;3,5-Diiodo-3′-chloro-4′-(<em>p</em>-chlorophenoxy)salicylanilide;3,5-Diodo-3′-chloro-4′-(<em>p</em>-chlorophenoxy)salicylanilide;Ranide;3′-Chloro-4′-(<em>p</em>-chlorophenoxy)-3,5-diiodosalicylanilide;3′-Chloro-4′-(4-chlorophenoxy)-3,5-diiodosalicylanilide;Disalan;NSC 355278;MeSH ID: D011888",
    "duplicated_cas_no": "",
    "SMILES": "C(NC1=CC(Cl)=C(OC2=CC=C(Cl)C=C2)C=C1)(=O)C3=C(O)C(I)=CC(I)=C3",
    "meta_data": {
        "InChI": "InChI=1S/C19H11Cl2I2NO3/c20-10-1-4-13(5-2-10)27-17-6-3-12(9-15(17)21)24-19(26)14-7-11(22)8-16(23)18(14)25/h1-9,25H,(H,24,26)",
        "InChIKey": null,
        "Canonical SMILES": "O=C(NC1=CC=C(OC2=CC=C(Cl)C=C2)C(Cl)=C1)C=3C=C(I)C=C(I)C3O",
        "Molecular Formula": "C<sub>19</sub>H<sub>11</sub>Cl<sub>2</sub>I<sub>2</sub>NO<sub>3</sub>",
        "Molecular Mass": "626.01",
        "Melting Point": "169 °C"
    }
}