{
    "cas_no": "5558-66-7",
    "key_name": "2,2-Diphenylpropionic acid",
    "cn_name": "2, 2-二苯基丙酸;",
    "alternate_name": "Benzeneacetic acid, α-methyl-α-phenyl-;Propionic acid, 2,2-diphenyl-;α-Methyl-α-phenylbenzeneacetic acid;α,α-Diphenylpropionic acid;2,2-Diphenylpropanoic acid;2,2-Diphenylpropionic acid;NSC 82164",
    "duplicated_cas_no": "",
    "SMILES": "C(C(O)=O)(C)(C1=CC=CC=C1)C2=CC=CC=C2",
    "meta_data": {
        "InChI": "InChI=1S/C15H14O2/c1-15(14(16)17,12-8-4-2-5-9-12)13-10-6-3-7-11-13/h2-11H,1H3,(H,16,17)",
        "InChIKey": null,
        "Canonical SMILES": "O=C(O)C(C=1C=CC=CC1)(C=2C=CC=CC2)C",
        "Molecular Formula": "C<sub>15</sub>H<sub>14</sub>O<sub>2</sub>",
        "Molecular Mass": "226.27",
        "Melting Point": "176 °C"
    }
}