{
    "cas_no": "94-32-6",
    "key_name": "Ethyl 4-(butylamino)benzoate",
    "cn_name": "4-(正丁基氨基)苯甲酸乙酯;对丁氨基苯甲酸乙酯;",
    "alternate_name": "Benzoic acid, 4-(butylamino)-, ethyl ester;Benzoic acid, <em>p</em>-(butylamino)-, ethyl ester;Ethyl 4-(butylamino)benzoate;Ethyl <em>p</em>-butylaminobenzoate",
    "duplicated_cas_no": "",
    "SMILES": "C(OCC)(=O)C1=CC=C(NCCCC)C=C1",
    "meta_data": {
        "InChI": "InChI=1S/C13H19NO2/c1-3-5-10-14-12-8-6-11(7-9-12)13(15)16-4-2/h6-9,14H,3-5,10H2,1-2H3",
        "InChIKey": null,
        "Canonical SMILES": "O=C(OCC)C1=CC=C(C=C1)NCCCC",
        "Molecular Formula": "C<sub>13</sub>H<sub>19</sub>NO<sub>2</sub>",
        "Molecular Mass": "221.30",
        "Melting Point": "68 °C"
    }
}