{
    "cas_no": "328-89-2",
    "key_name": "2-Bromo-4-(trifluoromethyl)benzoic acid",
    "cn_name": "2-溴-4-三氟甲基苯甲酸;",
    "alternate_name": "Benzoic acid, 2-bromo-4-(trifluoromethyl)-;<em>p</em>-Toluic acid, 2-bromo-α,α,α-trifluoro-;2-Bromo-4-(trifluoromethyl)benzoic acid",
    "duplicated_cas_no": "",
    "SMILES": "C(F)(F)(F)C1=CC(Br)=C(C(O)=O)C=C1",
    "meta_data": {
        "InChI": "InChI=1S/C8H4BrF3O2/c9-6-3-4(8(10,11)12)1-2-5(6)7(13)14/h1-3H,(H,13,14)",
        "InChIKey": null,
        "Canonical SMILES": "O=C(O)C1=CC=C(C=C1Br)C(F)(F)F",
        "Molecular Formula": "C<sub>8</sub>H<sub>4</sub>BrF<sub>3</sub>O<sub>2</sub>",
        "Molecular Mass": "269.02",
        "Melting Point": "182-183 °C"
    }
}