{
    "cas_no": "106-98-9",
    "key_name": "1-Butene",
    "cn_name": "1-丁烯;",
    "alternate_name": "1-Butene;Butene-1;α-Butylene;1-Butylene;Ethylethylene;α-Butene;2-Butylene",
    "duplicated_cas_no": "1735-75-7;33004-02-3;54366-07-3",
    "SMILES": "C(C=C)C",
    "meta_data": {
        "InChI": "InChI=1S/C4H8/c1-3-4-2/h3H,1,4H2,2H3",
        "InChIKey": null,
        "Canonical SMILES": "C=CCC",
        "Molecular Formula": "C<sub>4</sub>H<sub>8</sub>",
        "Molecular Mass": "56.11",
        "Boiling Point": "-6.47 °C @ Press: 760 Torr",
        "Melting Point": "-185 °C",
        "Density": "0.577 g/cm³ @ Temp: 25 °C"
    }
}