{
    "cas_no": "26328-04-1",
    "key_name": "Cinepazide maleate",
    "cn_name": "马来酸桂哌齐特;1-[(1-吡咯烷甲酰)甲基]-4-(3,4,5-三甲氧基肉桂酰基)哌嗪顺丁烯二酸盐;",
    "alternate_name": "2-Propen-1-one, 1-[4-[2-oxo-2-(1-pyrrolidinyl)ethyl]-1-piperazinyl]-3-(3,4,5-trimethoxyphenyl)-, (2<em>Z</em>)-2-butenedioate (1:1);Piperazine, 1-[(1-pyrrolidinylcarbonyl)methyl]-4-(3,4,5-trimethoxycinnamoyl)-, maleate (1:1);Piperazine, 1-[2-oxo-2-(1-pyrrolidinyl)ethyl]-4-[1-oxo-3-(3,4,5-trimethoxyphenyl)-2-propenyl]-, (<em>Z</em>)-2-butenedioate (1:1);Piperazine, 1-[2-oxo-2-(1-pyrrolidinyl)ethyl]-4-[1-oxo-3-(3,4,5-trimethoxyphenyl)-2-propenyl]-, (2<em>Z</em>)-2-butenedioate (1:1);Cinepazide maleate;Brendil;Vasodistal;MD 67350;NSC 291562",
    "duplicated_cas_no": "53529-16-1",
    "SMILES": "O(C)C1=C(OC)C(OC)=CC(C=CC(=O)N2CCN(CC(=O)N3CCCC3)CC2)=C1.C(=C\\C(O)=O)\\C(O)=O",
    "meta_data": {
        "InChI": "InChI=1S/C22H31N3O5.C4H4O4/c1-28-18-14-17(15-19(29-2)22(18)30-3)6-7-20(26)25-12-10-23(11-13-25)16-21(27)24-8-4-5-9-24;5-3(6)1-2-4(7)8/h6-7,14-15H,4-5,8-13,16H2,1-3H3;1-2H,(H,5,6)(H,7,8)/b;2-1-",
        "InChIKey": null,
        "Canonical SMILES": "O=C(O)C=CC(=O)O.O=C(C=CC=1C=C(OC)C(OC)=C(OC)C1)N2CCN(CC(=O)N3CCCC3)CC2",
        "Molecular Formula": "C<sub>22</sub>H<sub>31</sub>N<sub>3</sub>O<sub>5</sub>.C<sub>4</sub>H<sub>4</sub>O<sub>4</sub>",
        "Molecular Mass": "",
        "Melting Point": "135 °C"
    }
}