{
    "cas_no": "78920-10-2",
    "key_name": "5-Hydroxy-4-propyl-2(5<em>H</em>)-furanone",
    "cn_name": null,
    "alternate_name": "2(5<em>H</em>)-Furanone, 5-hydroxy-4-propyl-;5-Hydroxy-4-propyl-2(5<em>H</em>)-furanone;5-Hydroxy-4-propyl-5<em>H</em>-furan-2-one;2-Hydroxy-3-propyl-2<em>H</em>-furan-5-one",
    "duplicated_cas_no": "122952-13-0",
    "SMILES": "C(CC)C=1C(O)OC(=O)C1",
    "meta_data": {
        "InChI": "InChI=1S/C7H10O3/c1-2-3-5-4-6(8)10-7(5)9/h4,7,9H,2-3H2,1H3",
        "InChIKey": null,
        "Canonical SMILES": "O=C1OC(O)C(=C1)CCC",
        "Molecular Formula": "C<sub>7</sub>H<sub>10</sub>O<sub>3</sub>",
        "Molecular Mass": "142.15",
        "Boiling Point": "115 °C @ Press: 0.01 Torr"
    }
}