{
    "cas_no": "531-37-3",
    "key_name": "Phenol, 2-methoxy-, 1-benzoate",
    "cn_name": null,
    "alternate_name": "Phenol, 2-methoxy-, 1-benzoate;Phenol, <em>o</em>-methoxy-, benzoate;Guaiacol benzoate;Phenol, 2-methoxy-, benzoate;<em>o</em>-Anisyl benzoate;Benzosol;Benzoylguaiacol;<em>o</em>-Methoxyphenyl benzoate;2-Methoxyphenyl benzoate;Benzcaine;Guaiacyl benzoate;Benzoguaiacol;NSC 3795",
    "duplicated_cas_no": "",
    "SMILES": "O(C(=O)C1=CC=CC=C1)C2=C(OC)C=CC=C2",
    "meta_data": {
        "InChI": "InChI=1S/C14H12O3/c1-16-12-9-5-6-10-13(12)17-14(15)11-7-3-2-4-8-11/h2-10H,1H3",
        "InChIKey": null,
        "Canonical SMILES": "O=C(OC=1C=CC=CC1OC)C=2C=CC=CC2",
        "Molecular Formula": "C<sub>14</sub>H<sub>12</sub>O<sub>3</sub>",
        "Molecular Mass": "228.24",
        "Boiling Point": "205 °C @ Press: 15 Torr",
        "Melting Point": "57.5 °C"
    }
}