{
    "cas_no": "61827-67-6",
    "key_name": "Benzenesulfonic acid, 4-acetyl-, sodium salt (1:1)",
    "cn_name": "4-乙酰苯基磺酰钠盐;",
    "alternate_name": "Benzenesulfonic acid, 4-acetyl-, sodium salt (1:1);Benzenesulfonic acid, 4-acetyl-, sodium salt;Benzenesulfonic acid, <em>p</em>-acetyl-, sodium salt;Sodium 4-acetylbenzenesulfonate;4-Acetylbenzenesulfonic acid sodium salt;<em>p</em>-Acetylbenzenesulfonic acid sodium salt",
    "duplicated_cas_no": "1089286-46-3",
    "SMILES": "S(=O)(=O)(O)C1=CC=C(C(C)=O)C=C1.[Na]",
    "meta_data": {
        "InChI": "InChI=1S/C8H8O4S.Na/c1-6(9)7-2-4-8(5-3-7)13(10,11)12;/h2-5H,1H3,(H,10,11,12);",
        "InChIKey": null,
        "Canonical SMILES": "[Na].O=C(C1=CC=C(C=C1)S(=O)(=O)O)C",
        "Molecular Formula": "C<sub>8</sub>H<sub>8</sub>O<sub>4</sub>S.Na",
        "Molecular Mass": "",
        "Melting Point": "178 °C"
    }
}