{
    "cas_no": "5356-84-3",
    "key_name": "Tris(trimethylsilyloxy)vinylsilane",
    "cn_name": "乙烯基三(三甲基硅氧烷基)硅烷;",
    "alternate_name": "Trisiloxane, 3-ethenyl-1,1,1,5,5,5-hexamethyl-3-[(trimethylsilyl)oxy]-;Trisiloxane, 1,1,1,5,5,5-hexamethyl-3-(trimethylsiloxy)-3-vinyl-;3-Ethenyl-1,1,1,5,5,5-hexamethyl-3-[(trimethylsilyl)oxy]trisiloxane;Vinyl[tris(trimethylsiloxy)]silane;Tris(trimethylsilyloxy)vinylsilane;Tris(trimethylsiloxy)(vinyl)silane;1,1,1,5,5,5-Hexamethyl-3-((trimethylsilyl)oxy)-3-vinyltrisiloxane",
    "duplicated_cas_no": "",
    "SMILES": "[Si](O[Si](C)(C)C)(O[Si](C)(C)C)(O[Si](C)(C)C)C=C",
    "meta_data": {
        "InChI": "InChI=1S/C11H30O3Si4/c1-11-18(12-15(2,3)4,13-16(5,6)7)14-17(8,9)10/h11H,1H2,2-10H3",
        "InChIKey": null,
        "Canonical SMILES": "O([Si](O[Si](C)(C)C)(O[Si](C)(C)C)C=C)[Si](C)(C)C",
        "Molecular Formula": "C<sub>11</sub>H<sub>30</sub>O<sub>3</sub>Si<sub>4</sub>",
        "Molecular Mass": "322.70",
        "Boiling Point": "78 °C @ Press: 15 Torr",
        "Density": "0.865 g/cm³"
    }
}