{
    "cas_no": "629-20-9",
    "key_name": "Cyclooctatetraene",
    "cn_name": "环辛四烯;1,3,5,7-环辛四烯;",
    "alternate_name": "1,3,5,7-Cyclooctatetraene;[8]Annulene;Cyclooctatetraene;NSC 5093",
    "duplicated_cas_no": "",
    "SMILES": "C=1C=CC=CC=CC1",
    "meta_data": {
        "InChI": "InChI=1S/C8H8/c1-2-4-6-8-7-5-3-1/h1-8H/b2-1-,3-1?,4-2?,5-3-,6-4-,7-5?,8-6?,8-7-",
        "InChIKey": null,
        "Canonical SMILES": "C=1C=CC=CC=CC1",
        "Molecular Formula": "C<sub>8</sub>H<sub>8</sub>",
        "Molecular Mass": "104.15",
        "Boiling Point": "140.5 °C",
        "Melting Point": "-4.7 °C",
        "Density": "0.925 g/cm³ @ Temp: 20 °C"
    }
}