{
    "cas_no": "626-01-7",
    "key_name": "3-Iodoaniline",
    "cn_name": "3-碘苯胺;3-碘代苯胺;间碘苯胺;",
    "alternate_name": "Benzenamine, 3-iodo-;Aniline, <em>m</em>-iodo-;3-Iodobenzenamine;<em>m</em>-Aminoiodobenzene;3-Iodoaniline;<em>m</em>-Iodoaniline;NSC 34545;(3-Iodophenyl)amine;3-Aminophenyl iodide",
    "duplicated_cas_no": "",
    "SMILES": "IC1=CC(N)=CC=C1",
    "meta_data": {
        "InChI": "InChI=1S/C6H6IN/c7-5-2-1-3-6(8)4-5/h1-4H,8H2",
        "InChIKey": null,
        "Canonical SMILES": "IC1=CC=CC(N)=C1",
        "Molecular Formula": "C<sub>6</sub>H<sub>6</sub>IN",
        "Molecular Mass": "219.02",
        "Boiling Point": "145 °C",
        "Melting Point": "33 °C",
        "Density": "1.821 g/cm³"
    }
}