{
    "cas_no": "13494-80-9",
    "key_name": "Tellurium",
    "cn_name": null,
    "alternate_name": "Tellurium;Tellurium element;MeSH ID: D013691",
    "duplicated_cas_no": "137322-20-4",
    "SMILES": "[Te]",
    "meta_data": {
        "InChI": "InChI=1S/Te",
        "InChIKey": null,
        "Canonical SMILES": "[Te]",
        "Molecular Formula": "Te",
        "Molecular Mass": "",
        "Boiling Point": "989.9 °C",
        "Melting Point": "449.8 °C",
        "Density": "6.11-6.27 g/cm³"
    }
}