{
    "cas_no": "34661-75-1",
    "key_name": "Urapidil",
    "cn_name": "乌拉地尔;6-{3-[4-(2-甲氧基苯基)-1-哌嗪基]-丙基氨基}-1,3-二甲基脲嘧啶;",
    "alternate_name": "2,4(1<em>H</em>,3<em>H</em>)-Pyrimidinedione, 6-[[3-[4-(2-methoxyphenyl)-1-piperazinyl]propyl]amino]-1,3-dimethyl-;6-[[3-[4-(2-Methoxyphenyl)-1-piperazinyl]propyl]amino]-1,3-dimethyl-2,4(1<em>H</em>,3<em>H</em>)-pyrimidinedione;Urapidil;Ebrantil;BKU;Mediatensyl;B 66256;Eupressyl;Uraprene;NSC 310405;Uropidil",
    "duplicated_cas_no": "",
    "SMILES": "O(C)C1=C(C=CC=C1)N2CCN(CCCNC=3N(C)C(=O)N(C)C(=O)C3)CC2",
    "meta_data": {
        "InChI": "InChI=1S/C20H29N5O3/c1-22-18(15-19(26)23(2)20(22)27)21-9-6-10-24-11-13-25(14-12-24)16-7-4-5-8-17(16)28-3/h4-5,7-8,15,21H,6,9-14H2,1-3H3",
        "InChIKey": null,
        "Canonical SMILES": "O=C1C=C(NCCCN2CCN(C=3C=CC=CC3OC)CC2)N(C(=O)N1C)C",
        "Molecular Formula": "C<sub>20</sub>H<sub>29</sub>N<sub>5</sub>O<sub>3</sub>",
        "Molecular Mass": "387.48",
        "Melting Point": "156-158 °C"
    }
}