{
    "cas_no": "20938-74-3",
    "key_name": "<em>N</em>-Methylmercaptoacetamide",
    "cn_name": null,
    "alternate_name": "Acetamide, 2-mercapto-<em>N</em>-methyl-;2-Mercapto-<em>N</em>-methylacetamide;<em>N</em>-Methylmercaptoacetamide",
    "duplicated_cas_no": "",
    "SMILES": "C(CS)(NC)=O",
    "meta_data": {
        "InChI": "InChI=1S/C3H7NOS/c1-4-3(5)2-6/h6H,2H2,1H3,(H,4,5)",
        "InChIKey": null,
        "Canonical SMILES": "O=C(NC)CS",
        "Molecular Formula": "C<sub>3</sub>H<sub>7</sub>NOS",
        "Molecular Mass": "105.16",
        "Boiling Point": "91-94 °C @ Press: 5 Torr",
        "Melting Point": "58 °C"
    }
}