{
    "cas_no": "20380-11-4",
    "key_name": "(25<em>R</em>)-26-Hydroxycholesterol",
    "cn_name": null,
    "alternate_name": "Cholest-5-ene-3,26-diol, (3β,25<em>R</em>)-;Cholest-5-ene-3β,26-diol, (25<em>R</em>)-;(3β,25<em>R</em>)-Cholest-5-ene-3,26-diol;(25<em>R</em>)-Cholest-5-ene-3β,26-diol;(25<em>R</em>)-26-Hydroxycholesterol;(3β,25R)-Cholest-5-ene-3,26-diol",
    "duplicated_cas_no": "",
    "SMILES": "C[C@@]12[C@]([C@]3([C@@]([C@]4(C)C(=CC3)C[C@@H](O)CC4)(CC1)[H])[H])(CC[C@@]2([C@@H](CCC[C@H](CO)C)C)[H])[H]",
    "meta_data": {
        "InChI": "InChI=1S/C27H46O2/c1-18(17-28)6-5-7-19(2)23-10-11-24-22-9-8-20-16-21(29)12-14-26(20,3)25(22)13-15-27(23,24)4/h8,18-19,21-25,28-29H,5-7,9-17H2,1-4H3/t18-,19-,21+,22+,23-,24+,25+,26+,27-/m1/s1",
        "InChIKey": null,
        "Canonical SMILES": "OCC(C)CCCC(C)C1CCC2C3CC=C4CC(O)CCC4(C)C3CCC12C",
        "Molecular Formula": "C<sub>27</sub>H<sub>46</sub>O<sub>2</sub>",
        "Molecular Mass": "402.65",
        "Melting Point": "172-174 °C"
    }
}