{
    "cas_no": "5000-48-6",
    "key_name": "1-[(4-Chlorophenyl)sulfonyl]-2-propanone",
    "cn_name": "(4-氯苯磺酰)丙酮;(4-氯苯磺酰)丙酮;",
    "alternate_name": "2-Propanone, 1-[(4-chlorophenyl)sulfonyl]-;2-Propanone, 1-[(<em>p</em>-chlorophenyl)sulfonyl]-;1-[(4-Chlorophenyl)sulfonyl]-2-propanone;(<em>p</em>-Chlorophenylsulfonyl)acetone;1-(4-Chlorophenylsulfonyl)propan-2-one;1-(4-Chlorobenzenesulfonyl)propan-2-one;1-[(4-Chlorophenyl)sulfonyl]acetone",
    "duplicated_cas_no": "",
    "SMILES": "S(CC(C)=O)(=O)(=O)C1=CC=C(Cl)C=C1",
    "meta_data": {
        "InChI": "InChI=1S/C9H9ClO3S/c1-7(11)6-14(12,13)9-4-2-8(10)3-5-9/h2-5H,6H2,1H3",
        "InChIKey": null,
        "Canonical SMILES": "O=C(C)CS(=O)(=O)C1=CC=C(Cl)C=C1",
        "Molecular Formula": "C<sub>9</sub>H<sub>9</sub>ClO<sub>3</sub>S",
        "Molecular Mass": "232.68",
        "Melting Point": "83 °C"
    }
}