{
    "cas_no": "140-29-4",
    "key_name": "Phenylacetonitrile",
    "cn_name": "苯乙腈;氰化苄;",
    "alternate_name": "Benzeneacetonitrile;Acetonitrile, phenyl-;Benzyl cyanide;Benzyl nitrile;ω-Cyanotoluene;Phenylacetonitrile;α-Tolunitrile;α-Cyanotoluene;2-Phenylacetonitrile;(Cyanomethyl)benzene;Phenacetonitrile;α-Phenylacetonitrile;2-Phenylethanenitrile;NSC 118418;NSC 3407;Benzeneethanenitrile",
    "duplicated_cas_no": "",
    "SMILES": "C(C#N)C1=CC=CC=C1",
    "meta_data": {
        "InChI": "InChI=1S/C8H7N/c9-7-6-8-4-2-1-3-5-8/h1-5H,6H2",
        "InChIKey": null,
        "Canonical SMILES": "N#CCC=1C=CC=CC1",
        "Molecular Formula": "C<sub>8</sub>H<sub>7</sub>N",
        "Molecular Mass": "117.15",
        "Boiling Point": "233.5 °C",
        "Melting Point": "-23.8 °C",
        "Density": "1.0214 g/cm³ @ Temp: 15 °C"
    }
}