{
    "cas_no": "5472-41-3",
    "key_name": "4-Amino-6-hydroxypyrazolo[3,4-<em>d</em>]pyrimidine",
    "cn_name": "4-氨基-6-羟基吡唑-(3,4-d)嘧啶;4-氨基-6-羟基吡唑[3,4-d]嘧啶;",
    "alternate_name": "6<em>H</em>-Pyrazolo[3,4-<em>d</em>]pyrimidin-6-one, 4-amino-1,7-dihydro-;1<em>H</em>-Pyrazolo[3,4-<em>d</em>]pyrimidin-6-ol, 4-amino-;6<em>H</em>-Pyrazolo[3,4-<em>d</em>]pyrimidin-6-one, 4-amino-1,5-dihydro-;1<em>H</em>-Pyrazolo[3,4-<em>d</em>]pyrimidine, 4-amino-, 6-oxide;4-Amino-1,7-dihydro-6<em>H</em>-pyrazolo[3,4-<em>d</em>]pyrimidin-6-one;4-Amino-6-hydroxypyrazolo[3,4-<em>d</em>]pyrimidine;4-Amino-6-oxopyrazolo[3,4-<em>d</em>]pyrimidine;NSC 28415",
    "duplicated_cas_no": "42755-00-0",
    "SMILES": "NC=1C2=C(NC(=O)N1)NN=C2",
    "meta_data": {
        "InChI": "InChI=1S/C5H5N5O/c6-3-2-1-7-10-4(2)9-5(11)8-3/h1H,(H4,6,7,8,9,10,11)",
        "InChIKey": null,
        "Canonical SMILES": "O=C1N=C(N)C=2C=NNC2N1",
        "Molecular Formula": "C<sub>5</sub>H<sub>5</sub>N<sub>5</sub>O",
        "Molecular Mass": "151.13",
        "Melting Point": "264-266 °C"
    }
}