{
    "cas_no": "50-24-8",
    "key_name": "Prednisolone",
    "cn_name": "泼尼松龙;氢化泼尼松;去氢氢化可的松;",
    "alternate_name": "Pregna-1,4-diene-3,20-dione, 11,17,21-trihydroxy-, (11β)-;Pregna-1,4-diene-3,20-dione, 11β,17,21-trihydroxy-;(11β)-11,17,21-Trihydroxypregna-1,4-diene-3,20-dione;Codelcortone;Co-Hydeltra;Δ<sup>1</sup>-Cortisol;Decortin H;Δ<sup>1</sup>-Dehydrocortisol;Δ<sup>1</sup>-Dehydrohydrocortisone;1-Dehydrohydrocortisone;Delta F;Delta-Cortef;Deltacortenol;Deltacortril;Delta-stab;Di-Adreson F;Dicortol;Fernisolone;Hostacortin H;Hydeltra;Hydeltrone;Δ<sup>1</sup>-Hydrocortisone;Hydrodeltalone;Hydrodeltisone;Hydroretrocortin;Metacortandralone;Meticortelone;Meti-Derm;Paracortol;Precortancyl;Precortisyl;Predne-Dome;Prednisolone;Predonin;Predonine;1,4-Pregnadiene-3,20-dione-11β,17α,21-triol;1,4-Pregnadiene-11β,17α,21-triol-3,20-dione;Prenolone;Scherisolon;Sterane;Sterolone;11β,17α,21-Trihydroxypregna-1,4-diene-3,20-dione;11β,17,21-Trihydroxypregna-1,4-diene-3,20-dione;Ulacort;Ultracortene H;Deltahydrocortisone;Eazolin D;Donisolone;1,2-Dehydrohydrocortisone;Ultracorten H;Steran;Delta-Ef-Cortelan;Deltisilone;Prednelan;Supercortisol;Precortalon;Delcortol;Panafcortelone;Klismacort;Decaprednil;Cortalone;Precortilon;Deltacortril Enteric;NSC 9120;Predniretard;Prednicen;Predni-Dome;Flamasone;Hydroretrocortine;Solone;Deltasolone;NSC 9900;Preflam;Prelone;Aprednislon;Vetsolone;Prednicare;Prednisolona Syntex;Millipred;Equisolon;Decortin;43: PN: US20220380460 SEQID: 44 claimed sequence;MeSH ID: D011239",
    "duplicated_cas_no": "8056-11-9;58201-11-9",
    "SMILES": "C[C@@]12[C@]([C@]3([C@@]([C@]4(C)C(CC3)=CC(=O)C=C4)([C@@H](O)C1)[H])[H])(CC[C@@]2(C(CO)=O)O)[H]",
    "meta_data": {
        "InChI": "InChI=1S/C21H28O5/c1-19-7-5-13(23)9-12(19)3-4-14-15-6-8-21(26,17(25)11-22)20(15,2)10-16(24)18(14)19/h5,7,9,14-16,18,22,24,26H,3-4,6,8,10-11H2,1-2H3/t14-,15-,16-,18+,19-,20-,21-/m0/s1",
        "InChIKey": null,
        "Canonical SMILES": "O=C1C=CC2(C(=C1)CCC3C4CCC(O)(C(=O)CO)C4(C)CC(O)C32)C",
        "Molecular Formula": "C<sub>21</sub>H<sub>28</sub>O<sub>5</sub>",
        "Molecular Mass": "360.44",
        "Melting Point": "235 °C (decomp)"
    }
}