{
    "cas_no": "50-91-9",
    "key_name": "Floxuridine",
    "cn_name": "5-氟-2\"-脱氧脲核苷;氟脲脱氧核苷;",
    "alternate_name": "Uridine, 2′-deoxy-5-fluoro-;2′-Deoxy-5-fluorouridine;Floxuridine;5-Fluorodeoxyuridine;5-Fluoro-2′-deoxyuridine;5-Fluorouracil 2′-deoxyriboside;5-Fluorouracil deoxyriboside;NSC 27640;1-(2-Deoxy-β-<span class=\"text-smallcaps\">D</span>-ribofuranosyl)-5-fluorouracil;5-Fluoro-2′-deoxy-β-uridine;FUDR;Floxuridin;FdUrd;NSC 26740;5-FudR;MeSH ID: D005467",
    "duplicated_cas_no": "888-03-9;3460-74-0",
    "SMILES": "O=C1N([C@@H]2O[C@H](CO)[C@@H](O)C2)C=C(F)C(=O)N1",
    "meta_data": {
        "InChI": "InChI=1S/C9H11FN2O5/c10-4-2-12(9(16)11-8(4)15)7-1-5(14)6(3-13)17-7/h2,5-7,13-14H,1,3H2,(H,11,15,16)/t5-,6+,7+/m0/s1",
        "InChIKey": null,
        "Canonical SMILES": "O=C1NC(=O)N(C=C1F)C2OC(CO)C(O)C2",
        "Molecular Formula": "C<sub>9</sub>H<sub>11</sub>FN<sub>2</sub>O<sub>5</sub>",
        "Molecular Mass": "246.19",
        "Melting Point": "150-151 °C"
    }
}