{
    "cas_no": "151-50-8",
    "key_name": "Potassium cyanide",
    "cn_name": null,
    "alternate_name": "Potassium cyanide (K(CN));Potassium cyanide;Feratox;Hydrocyanic acid, potassium salt (1:1);MeSH ID: D011190",
    "duplicated_cas_no": "15745-74-1;60195-52-0;133708-36-8;946438-26-2",
    "SMILES": "C([K])#N",
    "meta_data": {
        "InChI": "InChI=1S/CN.K/c1-2;",
        "InChIKey": null,
        "Canonical SMILES": "N#C[K]",
        "Molecular Formula": "CKN",
        "Molecular Mass": "",
        "Boiling Point": "1625 °C",
        "Melting Point": "634 °C",
        "Density": "1.55 g/cm³ @ Temp: 20 °C"
    }
}