{
    "cas_no": "1403-36-7",
    "key_name": "Chetomin",
    "cn_name": null,
    "alternate_name": "3,11a-Epidithio-11a<em>H</em>-pyrazino[1′,2′:1,5]pyrrolo[2,3-<em>b</em>]indole-1,4-dione, 2,3,5a,6,10b,11-hexahydro-3-(hydroxymethyl)-10b-[(1<em>S</em>,4<em>S</em>)-3-[[4-(hydroxymethyl)-5,7-dimethyl-6,8-dioxo-2,3-dithia-5,7-diazabicyclo[2.2.2]oct-1-yl]methyl]-1<em>H</em>-indol-1-yl]-2-methyl-, (3<em>S</em>,5a<em>R</em>,10b<em>S</em>,11a<em>S</em>)-;Chaetomin;3,11a-Epidithio-11a<em>H</em>-pyrazino[1′,2′:1,5]pyrrolo[2,3-<em>b</em>]indole, chaetomin deriv.;2,3-Dithia-5,7-diazabicyclo[2.2.2]octane, chaetomin deriv.;(3<em>S</em>,5a<em>R</em>,10b<em>S</em>,11a<em>S</em>)-2,3,5a,6,10b,11-Hexahydro-3-(hydroxymethyl)-10b-[(1<em>S</em>,4<em>S</em>)-3-[[4-(hydroxymethyl)-5,7-dimethyl-6,8-dioxo-2,3-dithia-5,7-diazabicyclo[2.2.2]oct-1-yl]methyl]-1<em>H</em>-indol-1-yl]-2-methyl-3,11a-epidithio-11a<em>H</em>-pyrazino[1′,2′:1,5]pyrrolo[2,3-<em>b</em>]indole-1,4-dione;Chetomin;Stereoisomer of 2,3,5a,6,10b,11-hexahydro-3-(hydroxymethyl)-10b-[3-[[4-(hydroxymethyl)-5,7-dimethyl-6,8-dioxo-2,3-dithia-5,7-diazabicyclo[2.2.2]oct-1-yl]methyl]-1<em>H</em>-indol-1-yl]-2-methyl-3,11a-epidithio-11a<em>H</em>-pyrazino[1′,2′:1,5]pyrrolo[2,3-<em>b</em>]indole-1,4-dione;NSC 289491",
    "duplicated_cas_no": "1390-81-4;35808-58-3",
    "SMILES": "O=C1N2[C@@]3([C@](C[C@]24C(=O)N(C)[C@@]1(CO)SS4)(C=5C(N3)=CC=CC5)N6C=7C(C(C[C@]89C(=O)N(C)[C@](CO)(C(=O)N8C)SS9)=C6)=CC=CC7)[H]",
    "meta_data": {
        "InChI": "InChI=1S/C31H30N6O6S4/c1-33-25(42)30(15-38)34(2)23(40)28(33,44-46-30)12-17-13-36(21-11-7-4-8-18(17)21)27-14-29-24(41)35(3)31(16-39,47-45-29)26(43)37(29)22(27)32-20-10-6-5-9-19(20)27/h4-11,13,22,32,38-39H,12,14-16H2,1-3H3/t22-,27+,28+,29+,30+,31+/m1/s1",
        "InChIKey": null,
        "Canonical SMILES": "O=C1N(C)C2(SSC1(N(C2=O)C)CO)CC3=CN(C=4C=CC=CC43)C56C=7C=CC=CC7NC6N8C(=O)C9(SSC8(C(=O)N9C)C5)CO",
        "Molecular Formula": "C<sub>31</sub>H<sub>30</sub>N<sub>6</sub>O<sub>6</sub>S<sub>4</sub>",
        "Molecular Mass": "710.87",
        "Melting Point": "215 °C"
    }
}