{
    "cas_no": "563-43-9",
    "key_name": "Ethylaluminum dichloride",
    "cn_name": "二氯乙基铝;乙基二氯化铝;二氯化乙基铝;",
    "alternate_name": "Aluminum, dichloroethyl-;Ethylaluminum dichloride;Dichloroethylaluminum;Dichloromonoethylaluminum;Ethyldichloroaluminum;Ethylaluminium dichloride;Ethyldichloroaluminium",
    "duplicated_cas_no": "845524-94-9",
    "SMILES": "[Al](CC)(Cl)Cl",
    "meta_data": {
        "InChI": "InChI=1S/C2H5.Al.2ClH/c1-2;;;/h1H2,2H3;;2*1H/q;+2;;/p-2",
        "InChIKey": null,
        "Canonical SMILES": "Cl[Al](Cl)CC",
        "Molecular Formula": "C<sub>2</sub>H<sub>5</sub>AlCl<sub>2</sub>",
        "Molecular Mass": "",
        "Boiling Point": "194 °C",
        "Melting Point": "31 °C",
        "Density": "1.222 g/cm³"
    }
}