{
    "cas_no": "13775-52-5",
    "key_name": "Aluminate(3-), hexafluoro-, potassium (1:3), (<em>OC</em>-6-11)-",
    "cn_name": "氟铝酸钾;氟化铝钾;",
    "alternate_name": "Aluminate(3-), hexafluoro-, potassium (1:3), (<em>OC</em>-6-11)-;Aluminate(3-), hexafluoro-, tripotassium;Potassium hexafluoroaluminate;Aluminate(3-), hexafluoro-, tripotassium, (<em>OC</em>-6-11)-;Potassium hexafluoroaluminate (K<sub>3</sub>[AlF<sub>6</sub>]);Aluminum potassium fluoride (K<sub>3</sub>AlF<sub>6</sub>);Tripotassium hexafluoroaluminate;Tripotassium hexafluoroaluminate(3-);Potassium fluoaluminate (K<sub>3</sub>AlF<sub>6</sub>);Potassium aluminum fluoride (K<sub>3</sub>AlF<sub>6</sub>);Potassium fluoroaluminate;Aluminum potassium fluoride (AlK<sub>3</sub>F<sub>6</sub>);Aluminum tripotassium hexafluoride;Potassium hexafluoroaluminate(3-)",
    "duplicated_cas_no": "678983-35-2;1632411-86-9",
    "SMILES": "[Al+3]([F-])([F-])([F-])([F-])([F-])[F-].[K+]",
    "meta_data": {
        "InChI": "InChI=1S/Al.6FH.3K/h;6*1H;;;/q+3;;;;;;;3*+1/p-6",
        "InChIKey": null,
        "Canonical SMILES": "[K+].[F-][Al+3]([F-])([F-])([F-])([F-])[F-]",
        "Molecular Formula": "AlF<sub>6</sub>.3K",
        "Molecular Mass": "",
        "Melting Point": "548 °C"
    }
}