{
    "cas_no": "114747-45-4",
    "key_name": "1,3-Dihydro-1,3,3-trimethyl-6′-(1-piperidinyl)spiro[2<em>H</em>-indole-2,3′-[3<em>H</em>]naphth[2,1-<em>b</em>][1,4]oxazine]",
    "cn_name": "1,3,3-三甲基吲哚啉-6\"-(1-哌啶基)螺吩恶嗪;1,3-二氢-1,3,3-三甲基-6\"-(1-哌啶基)螺[2H-吲哚-2,3\"-[3H]萘并;",
    "alternate_name": "Spiro[2<em>H</em>-indole-2,3′-[3<em>H</em>]naphth[2,1-<em>b</em>][1,4]oxazine], 1,3-dihydro-1,3,3-trimethyl-6′-(1-piperidinyl)-;1,3-Dihydro-1,3,3-trimethyl-6′-(1-piperidinyl)spiro[2<em>H</em>-indole-2,3′-[3<em>H</em>]naphth[2,1-<em>b</em>][1,4]oxazine];Technocolor Purple 3;1,3,3-Trimethylindolino-6′-(1-piperidinyl)spironaphthoxazine;1,3,3-Trimethylindolino-6′-(1-piperidinyl)spironaphthooxazine;1,3,3-Trimethyl-6′-(1-piperidinyl)spiroindolinenaphthooxazine;1,3-Dihydro-1,3,3-trimethyl-6′-(1-piperidinyl)spiro[2<em>H</em>-indol-2,3′-(3<em>H</em>)-naphtho(2,1-b)(1,4)-oxazine]",
    "duplicated_cas_no": "149140-06-7;885677-14-5;891787-37-4",
    "SMILES": "CN1C2(OC=3C(N=C2)=C4C(=C(C3)N5CCCCC5)C=CC=C4)C(C)(C)C=6C1=CC=CC6",
    "meta_data": {
        "InChI": "InChI=1S/C27H29N3O/c1-26(2)21-13-7-8-14-22(21)29(3)27(26)18-28-25-20-12-6-5-11-19(20)23(17-24(25)31-27)30-15-9-4-10-16-30/h5-8,11-14,17-18H,4,9-10,15-16H2,1-3H3",
        "InChIKey": null,
        "Canonical SMILES": "N1=CC2(OC3=CC(=C4C=CC=CC4=C13)N5CCCCC5)N(C=6C=CC=CC6C2(C)C)C",
        "Molecular Formula": "C<sub>27</sub>H<sub>29</sub>N<sub>3</sub>O",
        "Molecular Mass": "411.54",
        "Melting Point": "228-230 °C"
    }
}