{
    "cas_no": "1124-14-7",
    "key_name": "1-Bromo-4-cyclopropylbenzene",
    "cn_name": null,
    "alternate_name": "Benzene, 1-bromo-4-cyclopropyl-;1-Bromo-4-cyclopropylbenzene;(<em>p</em>-Bromophenyl)cyclopropane;4-Cyclopropylbromobenzene;4-Cyclopropylphenyl bromide;(4-Bromophenyl)cyclopropane;4-Bromocyclopropylbenzene",
    "duplicated_cas_no": "",
    "SMILES": "BrC1=CC=C(C2CC2)C=C1",
    "meta_data": {
        "InChI": "InChI=1S/C9H9Br/c10-9-5-3-8(4-6-9)7-1-2-7/h3-7H,1-2H2",
        "InChIKey": null,
        "Canonical SMILES": "BrC1=CC=C(C=C1)C2CC2",
        "Molecular Formula": "C<sub>9</sub>H<sub>9</sub>Br",
        "Molecular Mass": "197.07",
        "Boiling Point": "101-102 °C @ Press: 11 Torr",
        "Melting Point": "15 °C",
        "Density": "1.3902 g/cm³ @ Temp: 20 °C"
    }
}