{
    "cas_no": "458-09-3",
    "key_name": "3-Fluoro-4-hydroxybenzeneacetic acid",
    "cn_name": "3-氟-4-羟基苯乙酸;",
    "alternate_name": "Benzeneacetic acid, 3-fluoro-4-hydroxy-;Acetic acid, (3-fluoro-4-hydroxyphenyl)-;3-Fluoro-4-hydroxybenzeneacetic acid;Capacin;3-Fluoro-4-hydroxyphenylacetic acid;Kapacin;Thyreostaticum EBEWE;Wiflucin;2-(3-Fluoro-4-hydroxyphenyl)acetic acid",
    "duplicated_cas_no": "",
    "SMILES": "C(C(O)=O)C1=CC(F)=C(O)C=C1",
    "meta_data": {
        "InChI": "InChI=1S/C8H7FO3/c9-6-3-5(4-8(11)12)1-2-7(6)10/h1-3,10H,4H2,(H,11,12)",
        "InChIKey": null,
        "Canonical SMILES": "O=C(O)CC1=CC=C(O)C(F)=C1",
        "Molecular Formula": "C<sub>8</sub>H<sub>7</sub>FO<sub>3</sub>",
        "Molecular Mass": "170.14",
        "Melting Point": "132-133 °C"
    }
}