{
    "cas_no": "161949-50-4",
    "key_name": "1-Chloro-4-iodo-2-methoxybenzene",
    "cn_name": null,
    "alternate_name": "Benzene, 1-chloro-4-iodo-2-methoxy-;1-Chloro-4-iodo-2-methoxybenzene;2-Chloro-5-iodoanisole;2-Chloro-5-iodo-1-methoxybenzene",
    "duplicated_cas_no": "",
    "SMILES": "O(C)C1=C(Cl)C=CC(I)=C1",
    "meta_data": {
        "InChI": "InChI=1S/C7H6ClIO/c1-10-7-4-5(9)2-3-6(7)8/h2-4H,1H3",
        "InChIKey": null,
        "Canonical SMILES": "ClC1=CC=C(I)C=C1OC",
        "Molecular Formula": "C<sub>7</sub>H<sub>6</sub>ClIO",
        "Molecular Mass": "268.48",
        "Melting Point": "39-40 °C"
    }
}