{
    "cas_no": "1122-47-0",
    "key_name": "1-Methylcytosine",
    "cn_name": null,
    "alternate_name": "2(1<em>H</em>)-Pyrimidinone, 4-amino-1-methyl-;Cytosine, 1-methyl-;4-Amino-1-methyl-2(1<em>H</em>)-pyrimidinone;1-Methylcytosine;<em>N</em><sup>1</sup>-Methylcytosine;NSC 47693",
    "duplicated_cas_no": "",
    "SMILES": "O=C1N(C)C=CC(N)=N1",
    "meta_data": {
        "InChI": "InChI=1S/C5H7N3O/c1-8-3-2-4(6)7-5(8)9/h2-3H,1H3,(H2,6,7,9)",
        "InChIKey": null,
        "Canonical SMILES": "O=C1N=C(N)C=CN1C",
        "Molecular Formula": "C<sub>5</sub>H<sub>7</sub>N<sub>3</sub>O",
        "Molecular Mass": "125.13",
        "Melting Point": "278-279 °C",
        "Density": "1.4483 g/cm³"
    }
}