{
    "cas_no": "123-83-1",
    "key_name": "<em>N</em>,<em>N</em>-Dimethyl-<em>N</em>′-ethylethylenediamine",
    "cn_name": null,
    "alternate_name": "1,2-Ethanediamine, <em>N</em><sup>2</sup>-ethyl-<em>N</em><sup>1</sup>,<em>N</em><sup>1</sup>-dimethyl-;Ethylenediamine, <em>N</em>′-ethyl-<em>N</em>,<em>N</em>-dimethyl-;1,2-Ethanediamine, <em>N</em>′-ethyl-<em>N</em>,<em>N</em>-dimethyl-;<em>N</em><sup>2</sup>-Ethyl-<em>N</em><sup>1</sup>,<em>N</em><sup>1</sup>-dimethyl-1,2-ethanediamine;<em>N</em>′-Ethyl-<em>N</em>,<em>N</em>-dimethyl-1,2-ethanediamine;<em>N</em>′-Ethyl-<em>N</em>,<em>N</em>-dimethylethylenediamine;<em>N</em>,<em>N</em>-Dimethyl-<em>N</em>′-ethylethylenediamine;<em>N</em>,<em>N</em>-Dimethyl-<em>N</em>′-ethyl-1,2-diaminoethane;<em>N</em>-Ethyl-2-dimethylaminoethylamine;<em>N</em>-[2-(Dimethylamino)ethyl]-<em>N</em>-ethylamine;<em>N</em>-Ethyl-<em>N</em>′,<em>N</em>′-dimethylethane-1,2-diamine;<em>N</em>-Ethyl-<em>N</em>′,<em>N</em>′-dimethylethylenediamine;<em>N</em>′-Ethyl-<em>N</em>,<em>N</em>-dimethyl-ethan-1,2-diamine;[2-(Dimethylamino)ethyl](ethyl)amine",
    "duplicated_cas_no": "",
    "SMILES": "C(CNCC)N(C)C",
    "meta_data": {
        "InChI": "InChI=1S/C6H16N2/c1-4-7-5-6-8(2)3/h7H,4-6H2,1-3H3",
        "InChIKey": null,
        "Canonical SMILES": "N(CC)CCN(C)C",
        "Molecular Formula": "C<sub>6</sub>H<sub>16</sub>N<sub>2</sub>",
        "Molecular Mass": "116.20",
        "Boiling Point": "134.5 °C"
    }
}