{
    "cas_no": "487-36-5",
    "key_name": "(+)-Pinoresinol",
    "cn_name": null,
    "alternate_name": "Phenol, 4,4′-[(1<em>S</em>,3a<em>R</em>,4<em>S</em>,6a<em>R</em>)-tetrahydro-1<em>H</em>,3<em>H</em>-furo[3,4-<em>c</em>]furan-1,4-diyl]bis[2-methoxy-;Pinoresinol;Phenol, 4,4′-(tetrahydro-1<em>H</em>,3<em>H</em>-furo[3,4-<em>c</em>]furan-1,4-diyl)bis[2-methoxy-, [1<em>S</em>-(1α,3aα,4α,6aα)]-;Phenol, 4,4′-(tetrahydro-1<em>H</em>,3<em>H</em>-furo[3,4-<em>c</em>]furan-1,4-diyl)bis[2-methoxy-, stereoisomer;1<em>H</em>,3<em>H</em>-Furo[3,4-<em>c</em>]furan, phenol deriv.;4,4′-[(1<em>S</em>,3a<em>R</em>,4<em>S</em>,6a<em>R</em>)-Tetrahydro-1<em>H</em>,3<em>H</em>-furo[3,4-<em>c</em>]furan-1,4-diyl]bis[2-methoxyphenol];(+)-Pinoresinol;<em>d</em>-Pinoresinol;NSC 35444",
    "duplicated_cas_no": "18779-54-9;22658-90-8",
    "SMILES": "O(C)C=1C=C([C@@H]2[C@@]3([C@@]([C@H](OC3)C4=CC(OC)=C(O)C=C4)(CO2)[H])[H])C=CC1O",
    "meta_data": {
        "InChI": "InChI=1S/C20H22O6/c1-23-17-7-11(3-5-15(17)21)19-13-9-26-20(14(13)10-25-19)12-4-6-16(22)18(8-12)24-2/h3-8,13-14,19-22H,9-10H2,1-2H3/t13-,14-,19+,20+/m0/s1",
        "InChIKey": null,
        "Canonical SMILES": "OC1=CC=C(C=C1OC)C2OCC3C(OCC23)C4=CC=C(O)C(OC)=C4",
        "Molecular Formula": "C<sub>20</sub>H<sub>22</sub>O<sub>6</sub>",
        "Molecular Mass": "358.39",
        "Melting Point": "112 °C",
        "Density": "1.385 g/cm³"
    }
}