{
    "cas_no": "898566-17-1",
    "key_name": "2-(4-Fluorophenyl)-5-[(5-iodo-2-methylphenyl)methyl]thiophene",
    "cn_name": "2-(4-氟苯基)-5-[(5-碘-2-甲基苯基)甲基]噻吩;",
    "alternate_name": "Thiophene, 2-(4-fluorophenyl)-5-[(5-iodo-2-methylphenyl)methyl]-;2-(4-Fluorophenyl)-5-[(5-iodo-2-methylphenyl)methyl]thiophene;2-(4-Fluorophenyl)-5-(5-iodo-2-methylbenzyl)thiophene;5-(5-Iodo-2-methylbenzyl)-2-(4-fluorophenyl)thiophene;2-(5-Iodo-2-methylbenzyl)-5-(4-fluorophenyl)thiophene",
    "duplicated_cas_no": "1363332-76-6;2055479-82-6",
    "SMILES": "C(C=1SC(=CC1)C2=CC=C(F)C=C2)C3=C(C)C=CC(I)=C3",
    "meta_data": {
        "InChI": "InChI=1S/C18H14FIS/c1-12-2-7-16(20)10-14(12)11-17-8-9-18(21-17)13-3-5-15(19)6-4-13/h2-10H,11H2,1H3",
        "InChIKey": null,
        "Canonical SMILES": "FC=1C=CC(=CC1)C=2SC(=CC2)CC3=CC(I)=CC=C3C",
        "Molecular Formula": "C<sub>18</sub>H<sub>14</sub>FIS",
        "Molecular Mass": "408.27",
        "Melting Point": "109-110 °C"
    }
}