{
    "cas_no": "23128-74-7",
    "key_name": "Antioxidant 1098",
    "cn_name": "N,N\"-双-(3-(3,5-二叔丁基-4-羟基苯基)丙酰基)己二胺;抗氧剂1098;",
    "alternate_name": "Benzenepropanamide, <em>N</em>,<em>N</em>′-1,6-hexanediylbis[3,5-bis(1,1-dimethylethyl)-4-hydroxy-;Hydrocinnamamide, <em>N</em>,<em>N</em>′-hexamethylenebis[3,5-di-<em>tert</em>-butyl-4-hydroxy-;<em>N</em>,<em>N</em>′-1,6-Hexanediylbis[3,5-bis(1,1-dimethylethyl)-4-hydroxybenzenepropanamide;1,6-Bis[3-(3,5-di-<em>tert</em>-butyl-4-hydroxyphenyl)propionamido]hexane;1,6-Bis[3-(3,5-di-<em>tert</em>-butyl-4-hydroxyphenyl)propionylamino]hexane;<em>N</em>,<em>N</em>′-Hexamethylenebis[3-(3,5-di-<em>tert</em>-butyl-4-hydroxyphenyl)propionamide];1,6-Bis[3-(3,5-di-<em>tert</em>-butyl-4-hydroxyphenyl)propylamido]hexane;Irganox 1098;<em>N</em>,<em>N</em>′-Hexamethylenebis(3,5-di-<em>tert</em>-butyl-4-hydroxyhydrocinnamamide);1,6-Bis(3,5-di-<em>tert</em>-butyl-4-hydroxyhydrocinnamido)hexane;IX 1098;<em>N</em>,<em>N</em>′-Hexamethylenebis(3,5-di-<em>tert</em>-butyl-4-hydroxyhydrocinnamide);<em>N</em>,<em>N</em>′-Bis[3-(3,5-di-<em>tert</em>-butyl-4-hydroxyphenyl)propionyl]hexamethylenediamine;Antioxidant 1098;<em>N</em>,<em>N</em>′-Hexane-1,6-diylbis[3-(3,5-di-<em>tert</em>-butyl-4-hydroxyphenyl)propionamide];Irganox 1090;Lowinox HD 98;Irg 1098;<em>N</em>,<em>N</em>′-Bis[3-(3′,5′-di-<em>tert</em>-butyl-4′-hydroxyphenyl)propionyl]hexamethylenediamine;TTAD;GX 2921;<em>N</em>,<em>N</em>′-1,6-Hexamethylenebis[3-(3,5-di-<em>tert</em>-butyl-4-hydroxyphenyl)propionamide;<em>N</em>,<em>N</em>′-Bis[3-(3,5-<em>tert</em>-butyl-4-hydroxyphenyl)propionyl]hexamethylenediamine;HD 98;Irganox 98;N,N′-Hexamethylenebis(3,5-di-tert-butyl-4-hydroxybenzenepropionamide);3,3′-Bis(3,5-di-<em>tert</em>-butyl-4-hydroxyphenyl)-<em>N</em>,<em>N</em>′-hexamethylenedipropionamide;Chemnox 1098;Irganox B 1096;Antioxidant 1096;KY 1098;<em>N</em>,<em>N</em>′-Hexane-1,6-diylbis[3,5-ditert-butyl-4-hydroxyphenylpropionamide)];Heat stabilizer 1096;N,N′-Hexane-1,6-diyl-bis(3-(3,5-di-tert-butyl-4-hydroxyphenylpropionamide));<em>N</em>,<em>N</em>′-1,6-Hexamethylenebis-3-(3,5-<em>tert</em>-butyl-4-hydroxyphenyl)propionamide;<em>N</em>,<em>N</em>′-Bis(3-(3,5-di-<em>tert</em>-butyl-4-hydroxyphenyl)propionyl)hexanediamine;Rianox 1098;GC Thanox 1098;Songnox 1098;Chinox 1098;<em>N</em>,<em>N</em>′-Hexamethylenebis[3-(3,5-di-<em>t</em>ert-butyl-4-hydroxyphenyl)propionamide];AO 1098;N,N′-Hexamethylenebis(3,5-di-tert-butyl-4-hydroxyhydrocinnamide);HP 1098;Antage HP 300;A 01098",
    "duplicated_cas_no": "64082-95-7;1357193-25-9;1622203-94-4;1622862-37-6;2096411-66-2;2415643-02-4;2812483-40-0",
    "SMILES": "C(CC(NCCCCCCNC(CCC1=CC(C(C)(C)C)=C(O)C(C(C)(C)C)=C1)=O)=O)C2=CC(C(C)(C)C)=C(O)C(C(C)(C)C)=C2",
    "meta_data": {
        "InChI": "InChI=1S/C40H64N2O4/c1-37(2,3)29-23-27(24-30(35(29)45)38(4,5)6)17-19-33(43)41-21-15-13-14-16-22-42-34(44)20-18-28-25-31(39(7,8)9)36(46)32(26-28)40(10,11)12/h23-26,45-46H,13-22H2,1-12H3,(H,41,43)(H,42,44)",
        "InChIKey": null,
        "Canonical SMILES": "O=C(NCCCCCCNC(=O)CCC=1C=C(C(O)=C(C1)C(C)(C)C)C(C)(C)C)CCC=2C=C(C(O)=C(C2)C(C)(C)C)C(C)(C)C",
        "Molecular Formula": "C<sub>40</sub>H<sub>64</sub>N<sub>2</sub>O<sub>4</sub>",
        "Molecular Mass": "636.95",
        "Melting Point": "158-159 °C"
    }
}