{
    "cas_no": "497-38-1",
    "key_name": "Bicyclo[2.2.1]heptan-2-one",
    "cn_name": "降樟脑;",
    "alternate_name": "Bicyclo[2.2.1]heptan-2-one;2-Norbornanone;Norcamphor;2-Oxonorbornane;2,5-Methanocyclohexanone;(±)-2-Norbornanone;<em>dl</em>-Norcamphor;(±)-Norcamphor;Racemic norcamphor;NSC 66537;NSC 92359",
    "duplicated_cas_no": "22270-13-9",
    "SMILES": "O=C1C2CC(C1)CC2",
    "meta_data": {
        "InChI": "InChI=1S/C7H10O/c8-7-4-5-1-2-6(7)3-5/h5-6H,1-4H2",
        "InChIKey": null,
        "Canonical SMILES": "O=C1CC2CCC1C2",
        "Molecular Formula": "C<sub>7</sub>H<sub>10</sub>O",
        "Molecular Mass": "110.15",
        "Boiling Point": "68-72 °C @ Press: 12 Torr",
        "Melting Point": "93-94 °C"
    }
}