{
    "cas_no": "19715-19-6",
    "key_name": "3,5-Bis(1,1-dimethylethyl)-2-hydroxybenzoic acid",
    "cn_name": "3,5-二叔丁基水杨酸;",
    "alternate_name": "Benzoic acid, 3,5-bis(1,1-dimethylethyl)-2-hydroxy-;Salicylic acid, 3,5-di-<em>tert</em>-butyl-;3,5-Bis(1,1-dimethylethyl)-2-hydroxybenzoic acid;3,5-Di-<em>tert</em>-butylsalicylic acid;2-Hydroxy-3,5-di-<em>tert</em>-butylbenzoic acid;3,5-Di(<em>tert</em>-butyl)-2-hydroxybenzoic acid;3,5-Di(<em>tert</em>-butyl)-2-hydroxybenzenecarboxylic acid;TCI-D 1947;3,5-Bis-<em>tert</em>-butylsalicylic acid;3,5-Ditert-butyl-2-hydroxybenzoic acid;D 1947",
    "duplicated_cas_no": "",
    "SMILES": "C(C)(C)(C)C1=C(O)C(C(O)=O)=CC(C(C)(C)C)=C1",
    "meta_data": {
        "InChI": "InChI=1S/C15H22O3/c1-14(2,3)9-7-10(13(17)18)12(16)11(8-9)15(4,5)6/h7-8,16H,1-6H3,(H,17,18)",
        "InChIKey": null,
        "Canonical SMILES": "O=C(O)C=1C=C(C=C(C1O)C(C)(C)C)C(C)(C)C",
        "Molecular Formula": "C<sub>15</sub>H<sub>22</sub>O<sub>3</sub>",
        "Molecular Mass": "250.33",
        "Melting Point": "164.4 °C"
    }
}