{
    "cas_no": "695-86-3",
    "key_name": "5-Methoxy-4-pyrimidinamine",
    "cn_name": null,
    "alternate_name": "4-Pyrimidinamine, 5-methoxy-;Pyrimidine, 4-amino-5-methoxy-;5-Methoxy-4-pyrimidinamine",
    "duplicated_cas_no": "",
    "SMILES": "O(C)C=1C(N)=NC=NC1",
    "meta_data": {
        "InChI": "InChI=1S/C5H7N3O/c1-9-4-2-7-3-8-5(4)6/h2-3H,1H3,(H2,6,7,8)",
        "InChIKey": null,
        "Canonical SMILES": "N=1C=NC(N)=C(OC)C1",
        "Molecular Formula": "C<sub>5</sub>H<sub>7</sub>N<sub>3</sub>O",
        "Molecular Mass": "125.13",
        "Melting Point": "118.5-119.0 °C"
    }
}