{
    "cas_no": "20628-07-3",
    "key_name": "1-(2-Methoxy-5-methylphenyl)ethanone",
    "cn_name": null,
    "alternate_name": "Ethanone, 1-(2-methoxy-5-methylphenyl)-;Acetophenone, 2′-methoxy-5′-methyl-;1-(2-Methoxy-5-methylphenyl)ethanone;6′-Methoxy-3′-methylacetophenone;2′-Methoxy-5′-methylacetophenone;5-Methyl-2-methoxyacetophenone;3-Acetyl-4-methoxytoluene;1-(2-Methoxy-5-methylphenyl)ethan-1-one",
    "duplicated_cas_no": "",
    "SMILES": "C(C)(=O)C1=C(OC)C=CC(C)=C1",
    "meta_data": {
        "InChI": "InChI=1S/C10H12O2/c1-7-4-5-10(12-3)9(6-7)8(2)11/h4-6H,1-3H3",
        "InChIKey": null,
        "Canonical SMILES": "O=C(C1=CC(=CC=C1OC)C)C",
        "Molecular Formula": "C<sub>10</sub>H<sub>12</sub>O<sub>2</sub>",
        "Molecular Mass": "164.20",
        "Boiling Point": "120.5 °C @ Press: 7 Torr",
        "Melting Point": "85 °C",
        "Density": "1.0652 g/cm³ @ Temp: 20 °C"
    }
}