{
    "cas_no": "99-64-9",
    "key_name": "3-(Dimethylamino)benzoic acid",
    "cn_name": "间二甲氨基苯甲酸;3-二甲基氨基安息香酸;",
    "alternate_name": "Benzoic acid, 3-(dimethylamino)-;Benzoic acid, <em>m</em>-(dimethylamino)-;3-(Dimethylamino)benzoic acid;<em>m</em>-(Dimethylamino)benzoic acid;<em>m</em>-(<em>N</em>,<em>N</em>-Dimethylamino)benzoic acid;3-(<em>N</em>,<em>N</em>-Dimethylamino)benzoic acid;<em>N</em>,<em>N</em>-Dimethyl-3-carboxyaniline;<em>N</em>,<em>N</em>-Dimethyl-3-aminobenzoic acid;NSC 7197;DMAB",
    "duplicated_cas_no": "1884231-56-4",
    "SMILES": "C(O)(=O)C1=CC(N(C)C)=CC=C1",
    "meta_data": {
        "InChI": "InChI=1S/C9H11NO2/c1-10(2)8-5-3-4-7(6-8)9(11)12/h3-6H,1-2H3,(H,11,12)",
        "InChIKey": null,
        "Canonical SMILES": "O=C(O)C1=CC=CC(=C1)N(C)C",
        "Molecular Formula": "C<sub>9</sub>H<sub>11</sub>NO<sub>2</sub>",
        "Molecular Mass": "165.19",
        "Melting Point": "150 °C",
        "Density": "1.27 g/cm³"
    }
}