{
    "cas_no": "49625-89-0",
    "key_name": "β-Naltrexol",
    "cn_name": null,
    "alternate_name": "Morphinan-3,6,14-triol, 17-(cyclopropylmethyl)-4,5-epoxy-, (5α,6β)-;(5α,6β)-17-(Cyclopropylmethyl)-4,5-epoxymorphinan-3,6,14-triol;17-(Cyclopropylmethyl)-4,5α-epoxy-3,14-dihydroxymorphinan-6β-ol;6β-Hydroxynaltrexone;β-Naltrexol;6β-Naltrexol",
    "duplicated_cas_no": "",
    "SMILES": "O[C@]12[C@@]34C=5C(O[C@]3([C@H](O)CC1)[H])=C(O)C=CC5C[C@]2(N(CC6CC6)CC4)[H]",
    "meta_data": {
        "InChI": "InChI=1S/C20H25NO4/c22-13-4-3-12-9-15-20(24)6-5-14(23)18-19(20,16(12)17(13)25-18)7-8-21(15)10-11-1-2-11/h3-4,11,14-15,18,22-24H,1-2,5-10H2/t14-,15-,18+,19+,20-/m1/s1",
        "InChIKey": null,
        "Canonical SMILES": "OC1=CC=C2C3=C1OC4C(O)CCC5(O)C(N(CCC345)CC6CC6)C2",
        "Molecular Formula": "C<sub>20</sub>H<sub>25</sub>NO<sub>4</sub>",
        "Molecular Mass": "343.42",
        "Melting Point": "175-177 °C"
    }
}