{
    "cas_no": "81569-25-7",
    "key_name": "4-Thiazolecarboxylic acid, 2-amino-5-(1-methylethyl)-, methyl ester",
    "cn_name": null,
    "alternate_name": "4-Thiazolecarboxylic acid, 2-amino-5-(1-methylethyl)-, methyl ester;Methyl 2-amino-5-isopropyl-1,3-thiazole-4-carboxylate;Methyl 2-amino-5-isopropylthiazole-4-carboxylate;Methyl 2-amino-5-(1-methylethyl)thiazole-4-carboxylate",
    "duplicated_cas_no": "",
    "SMILES": "C(OC)(=O)C1=C(C(C)C)SC(N)=N1",
    "meta_data": {
        "InChI": "InChI=1S/C8H12N2O2S/c1-4(2)6-5(7(11)12-3)10-8(9)13-6/h4H,1-3H3,(H2,9,10)",
        "InChIKey": null,
        "Canonical SMILES": "O=C(OC)C=1N=C(SC1C(C)C)N",
        "Molecular Formula": "C<sub>8</sub>H<sub>12</sub>N<sub>2</sub>O<sub>2</sub>S",
        "Molecular Mass": "200.26",
        "Melting Point": "151-152 °C"
    }
}