{
    "cas_no": "85622-93-1",
    "key_name": "Temozolomide",
    "cn_name": "替莫唑胺;4-甲基-5-氧代-2,3,4,6,8-五氮杂双环[4.3.0]壬-2,7,9-三烯-9-甲酰胺;3,4-二氢-3-甲基-4-氧代咪唑;",
    "alternate_name": "Imidazo[5,1-<em>d</em>]-1,2,3,5-tetrazine-8-carboxamide, 3,4-dihydro-3-methyl-4-oxo-;3,4-Dihydro-3-methyl-4-oxoimidazo[5,1-<em>d</em>]-1,2,3,5-tetrazine-8-carboxamide;CCRG 81045;NSC 362856;M and B 39831;MB 39831;Methazolastone;Temozolomide;Temodal;Sch 52365;Temodar;3-Methyl-4-oxo-8-imidazolo[5,1-<em>d</em>][1,2,3,5]tetrazinecarboxamide;8-Carbamoyl-3-methylimidazo[5,1-<em>d</em>]-1,2,3,5-tetrazin-4(3<em>H</em>)-one;3-Methyl-8-carbamoylimidazo[5,1-<em>d</em>]-1,2,3,5-tetrazin-4(3<em>H</em>)-one;3-Methyl-4-oxo-3,4-dihydroimidazo[5,1-<em>d</em>][1,2,3,5]tetrazine-8-carboxamide;T 2577;3-Methyl-4-oxoimidazo[5,1-<em>d</em>][1,2,3,5]tetrazine-8-carboxamide;3-Methyl-4-oxo-3,4-dihydro-imidazo[5,1-<em>d</em>][1,2,3,5]tetrazine-8-carboxylic acid amide;3-Methyl-4-oxo-3<em>H</em>,4<em>H</em>-imidazo[4,3-<em>d</em>][1,2,3,5]tetrazine-8-carboxamide;Temomedac",
    "duplicated_cas_no": "97716-75-1",
    "SMILES": "C(N)(=O)C1=C2N(C(=O)N(C)N=N2)C=N1",
    "meta_data": {
        "InChI": "InChI=1S/C6H6N6O2/c1-11-6(14)12-2-8-3(4(7)13)5(12)9-10-11/h2H,1H3,(H2,7,13)",
        "InChIKey": null,
        "Canonical SMILES": "O=C(N)C=1N=CN2C(=O)N(N=NC12)C",
        "Molecular Formula": "C<sub>6</sub>H<sub>6</sub>N<sub>6</sub>O<sub>2</sub>",
        "Molecular Mass": "194.15",
        "Melting Point": "212 °C (decomp)"
    }
}