{
    "cas_no": "1072-52-2",
    "key_name": "1-Aziridineethanol",
    "cn_name": "1-氮杂环丙烷;1-丫啶乙醇;",
    "alternate_name": "1-Aziridineethanol;1-(2-Hydroxyethyl)ethylenimine;<em>N</em>-(2-Hydroxyethyl)aziridine;<em>N</em>-(2-Hydroxyethyl)ethylenimine;<em>N</em>-(β-Hydroxyethyl)aziridine;2-(Aziridin-1-yl)ethanol;NSC 50209;1-(2-Hydroxylethyl)aziridine;2-(Aziridin-1-yl)ethan-1-ol",
    "duplicated_cas_no": "",
    "SMILES": "C(CO)N1CC1",
    "meta_data": {
        "InChI": "InChI=1S/C4H9NO/c6-4-3-5-1-2-5/h6H,1-4H2",
        "InChIKey": null,
        "Canonical SMILES": "OCCN1CC1",
        "Molecular Formula": "C<sub>4</sub>H<sub>9</sub>NO",
        "Molecular Mass": "87.12",
        "Boiling Point": "154-156 °C @ Press: 760 Torr"
    }
}