{
    "cas_no": "729-99-7",
    "key_name": "Sulfamoxole",
    "cn_name": "磺胺二甲基恶唑;",
    "alternate_name": "Benzenesulfonamide, 4-amino-<em>N</em>-(4,5-dimethyl-2-oxazolyl)-;Sulfanilamide, <em>N</em><sup>1</sup>-(4,5-dimethyl-2-oxazolyl)-;4-Amino-<em>N</em>-(4,5-dimethyl-2-oxazolyl)benzenesulfonamide;N<sup>1</sup>-(4,5-Dimethyl-2-oxazolyl)sulfanilamide;Sulfamoxole;2-Sulfanilamido-4,5-dimethyloxazole;Sulfano;Sulfmidil;Sulfuno;Tardamid;Sulfadimethyloxazole;2-(<em>p</em>-Aminobenzolsulfonamido)-4,5-dimethyloxazole;<em>N</em>′-(4,5-Dimethyl-2-oxazolyl)sulfanilamide;Tardamide;Sulfamoxolum;Oxasulfa;Sulfabutin;Sulfavigor;Justamil;Sulfune;Sulfono;NSC 683535;MeSH ID: D013423",
    "duplicated_cas_no": "",
    "SMILES": "N(S(=O)(=O)C1=CC=C(N)C=C1)C2=NC(C)=C(C)O2",
    "meta_data": {
        "InChI": "InChI=1S/C11H13N3O3S/c1-7-8(2)17-11(13-7)14-18(15,16)10-5-3-9(12)4-6-10/h3-6H,12H2,1-2H3,(H,13,14)",
        "InChIKey": null,
        "Canonical SMILES": "O=S(=O)(NC1=NC(=C(O1)C)C)C2=CC=C(N)C=C2",
        "Molecular Formula": "C<sub>11</sub>H<sub>13</sub>N<sub>3</sub>O<sub>3</sub>S",
        "Molecular Mass": "267.30",
        "Melting Point": "193 °C",
        "Density": "1.3786 g/cm³"
    }
}