{
    "cas_no": "76631-46-4",
    "key_name": "Detomidine",
    "cn_name": null,
    "alternate_name": "1<em>H</em>-Imidazole, 5-[(2,3-dimethylphenyl)methyl]-;1<em>H</em>-Imidazole, 4-[(2,3-dimethylphenyl)methyl]-;5-[(2,3-Dimethylphenyl)methyl]-1<em>H</em>-imidazole;Detomidine;MPV 252AII",
    "duplicated_cas_no": "",
    "SMILES": "C(C1=C(C)C(C)=CC=C1)C2=CN=CN2",
    "meta_data": {
        "InChI": "InChI=1S/C12H14N2/c1-9-4-3-5-11(10(9)2)6-12-7-13-8-14-12/h3-5,7-8H,6H2,1-2H3,(H,13,14)",
        "InChIKey": null,
        "Canonical SMILES": "N1=CNC(=C1)CC=2C=CC=C(C2C)C",
        "Molecular Formula": "C<sub>12</sub>H<sub>14</sub>N<sub>2</sub>",
        "Molecular Mass": "186.25",
        "Melting Point": "114-116 °C"
    }
}