{
    "cas_no": "89-56-5",
    "key_name": "5-Methylsalicylic acid",
    "cn_name": "5-甲基水杨酸;2-羟基-5-甲基苯甲酸;",
    "alternate_name": "Benzoic acid, 2-hydroxy-5-methyl-;2,5-Cresotic acid;2-Hydroxy-5-methylbenzoic acid;<em>p</em>-Cresotic acid;<em>p</em>-Cresotinic acid;α-Cresotinic acid;<em>p</em>-Homosalicylic acid;6-Hydroxy-3-methylbenzoic acid;6-Hydroxy-<em>m</em>-toluic acid;5-Methyl-2-hydroxybenzoic acid;5-Methylsalicylic acid;NSC 38518",
    "duplicated_cas_no": "",
    "SMILES": "C(O)(=O)C1=C(O)C=CC(C)=C1",
    "meta_data": {
        "InChI": "InChI=1S/C8H8O3/c1-5-2-3-7(9)6(4-5)8(10)11/h2-4,9H,1H3,(H,10,11)",
        "InChIKey": null,
        "Canonical SMILES": "O=C(O)C1=CC(=CC=C1O)C",
        "Molecular Formula": "C<sub>8</sub>H<sub>8</sub>O<sub>3</sub>",
        "Molecular Mass": "152.15",
        "Melting Point": "151 °C",
        "Density": "1.31 g/cm³"
    }
}