{
    "cas_no": "1949-89-9",
    "key_name": "2-Deoxy-<span class=\"text-smallcaps\">D</span>-galactose",
    "cn_name": "2-脱氧-D-半乳糖;",
    "alternate_name": "<span class=\"text-smallcaps\">D</span>-<em>lyxo</em>-Hexose, 2-deoxy-;2-Deoxy-<span class=\"text-smallcaps\">D</span>-<em>lyxo</em>-hexose;Galactose, 2-deoxy-, <span class=\"text-smallcaps\">D</span>-;2-Deoxy-<span class=\"text-smallcaps\">D</span>-galactose;2-Deoxygalactose;Galactose, 2-deoxy-;2-Deoxy-<span class=\"text-smallcaps\">D</span>-talose",
    "duplicated_cas_no": "10029-67-1",
    "SMILES": "[C@@H]([C@@H](CC=O)O)([C@@H](CO)O)O",
    "meta_data": {
        "InChI": "InChI=1S/C6H12O5/c7-2-1-4(9)6(11)5(10)3-8/h2,4-6,8-11H,1,3H2/t4-,5-,6-/m1/s1",
        "InChIKey": null,
        "Canonical SMILES": "O=CCC(O)C(O)C(O)CO",
        "Molecular Formula": "C<sub>6</sub>H<sub>12</sub>O<sub>5</sub>",
        "Molecular Mass": "164.16",
        "Melting Point": "104-105 °C"
    }
}