{
    "cas_no": "555-55-5",
    "key_name": "Hispidin",
    "cn_name": null,
    "alternate_name": "2<em>H</em>-Pyran-2-one, 6-[(1<em>E</em>)-2-(3,4-dihydroxyphenyl)ethenyl]-4-hydroxy-;2<em>H</em>-Pyran-2-one, 6-(3,4-dihydroxystyryl)-4-hydroxy-;2<em>H</em>-Pyran-2-one, 6-[2-(3,4-dihydroxyphenyl)ethenyl]-4-hydroxy-, (<em>E</em>)-;Hispidin;6-[(1<em>E</em>)-2-(3,4-Dihydroxyphenyl)ethenyl]-4-hydroxy-2<em>H</em>-pyran-2-one;6-(3,4-Dihydroxystyryl)-4-hydroxy-2-pyrone;Hispidine",
    "duplicated_cas_no": "",
    "SMILES": "C(=C/C1=CC(O)=CC(=O)O1)\\C2=CC(O)=C(O)C=C2",
    "meta_data": {
        "InChI": "InChI=1S/C13H10O5/c14-9-6-10(18-13(17)7-9)3-1-8-2-4-11(15)12(16)5-8/h1-7,14-16H/b3-1+",
        "InChIKey": null,
        "Canonical SMILES": "O=C1OC(C=CC2=CC=C(O)C(O)=C2)=CC(O)=C1",
        "Molecular Formula": "C<sub>13</sub>H<sub>10</sub>O<sub>5</sub>",
        "Molecular Mass": "246.22",
        "Melting Point": "259 °C (decomp)"
    }
}