{
    "cas_no": "78-75-1",
    "key_name": "1,2-Dibromopropane",
    "cn_name": "1,2-二溴丙烷;",
    "alternate_name": "Propane, 1,2-dibromo-;1,2-Dibromopropane;Propylene dibromide;2,3-Dibromopropane",
    "duplicated_cas_no": "120575-45-3",
    "SMILES": "C(CBr)(Br)C",
    "meta_data": {
        "InChI": "InChI=1S/C3H6Br2/c1-3(5)2-4/h3H,2H2,1H3",
        "InChIKey": null,
        "Canonical SMILES": "BrCC(Br)C",
        "Molecular Formula": "C<sub>3</sub>H<sub>6</sub>Br<sub>2</sub>",
        "Molecular Mass": "201.89",
        "Boiling Point": "141.9 °C",
        "Melting Point": "-55.2 °C",
        "Density": "1.9245 g/cm³ @ Temp: 20 °C"
    }
}