{
    "cas_no": "17467-15-1",
    "key_name": "3-Phenyl-1,2,4-thiadiazol-5-amine",
    "cn_name": "5-氨基-3-苯基-1,2,4-噻重氮;",
    "alternate_name": "1,2,4-Thiadiazol-5-amine, 3-phenyl-;1,2,4-Thiadiazole, 5-amino-3-phenyl-;3-Phenyl-1,2,4-thiadiazol-5-amine;5-Amino-3-phenyl-1,2,4-thiadiazole;NSC 119930;(3-Phenyl-[1,2,4]thiadiazol-5-yl)amine;3-Phenyl-5-amino-1,2,4-thiadiazole",
    "duplicated_cas_no": "",
    "SMILES": "NC1=NC(=NS1)C2=CC=CC=C2",
    "meta_data": {
        "InChI": "InChI=1S/C8H7N3S/c9-8-10-7(11-12-8)6-4-2-1-3-5-6/h1-5H,(H2,9,10,11)",
        "InChIKey": null,
        "Canonical SMILES": "N=1SC(=NC1C=2C=CC=CC2)N",
        "Molecular Formula": "C<sub>8</sub>H<sub>7</sub>N<sub>3</sub>S",
        "Molecular Mass": "177.23",
        "Melting Point": "155 °C"
    }
}