{
    "cas_no": "70-49-5",
    "key_name": "(±)-Mercaptosuccinic acid",
    "cn_name": "巯基丁二酸;DL-巯基琥珀酸;",
    "alternate_name": "Butanedioic acid, 2-mercapto-;Succinic acid, mercapto-;Butanedioic acid, mercapto-;2-Mercaptobutanedioic acid;Mercaptosuccinic acid;Thiomalic acid;2-Thiomalic acid;α-Mercaptosuccinic acid;2-Mercaptosuccinic acid;Monomercaptosuccinic acid;<span class=\"text-smallcaps\">DL</span>-Mercaptosuccinic acid;<span class=\"text-smallcaps\">DL</span>-Thiomalic acid;(±)-Mercaptosuccinic acid;Mercaptobutanedioic acid;NSC 7302;2-Sulfanylbutanedioic acid",
    "duplicated_cas_no": "644-87-1",
    "SMILES": "C(CC(O)=O)(C(O)=O)S",
    "meta_data": {
        "InChI": "InChI=1S/C4H6O4S/c5-3(6)1-2(9)4(7)8/h2,9H,1H2,(H,5,6)(H,7,8)",
        "InChIKey": null,
        "Canonical SMILES": "O=C(O)CC(S)C(=O)O",
        "Molecular Formula": "C<sub>4</sub>H<sub>6</sub>O<sub>4</sub>S",
        "Molecular Mass": "150.15",
        "Melting Point": "149 °C"
    }
}