{
    "cas_no": "82-68-8",
    "key_name": "Quintozene",
    "cn_name": "五氯硝基苯;",
    "alternate_name": "Benzene, 1,2,3,4,5-pentachloro-6-nitro-;Benzene, pentachloronitro-;1,2,3,4,5-Pentachloro-6-nitrobenzene;Brassicol Super;Folosan;PCNB;Pentachloronitrobenzene;Quintozene;Terrachlor;Tilcarex;Brassicol;Fomac 2;Kobutol;Terraclor;Terrafun;Avicol (pesticide);Batrilex;Fartox;GC 3944-3-4;Brassicol 75;Terraclor 30G;Quintozen;Phomasan;Pentagen;Botrilex;Tritisan;Marisan forte;Quinosan;Chinozan;Nitropentachlorobenzene;RTU 1010;2,3,4,5,6-Pentachloronitrobenzene;Terrazan F;Terrazan;Plantacol;NSC 58427;Korsikol;RTU PCNB;1,2,3,4,5-Pentachloronitrobenzene",
    "duplicated_cas_no": "39378-26-2;55353-34-9;56573-57-0;1135443-48-9",
    "SMILES": "N(=O)(=O)C1=C(Cl)C(Cl)=C(Cl)C(Cl)=C1Cl",
    "meta_data": {
        "InChI": "InChI=1S/C6Cl5NO2/c7-1-2(8)4(10)6(12(13)14)5(11)3(1)9",
        "InChIKey": null,
        "Canonical SMILES": "O=N(=O)C=1C(Cl)=C(Cl)C(Cl)=C(Cl)C1Cl",
        "Molecular Formula": "C<sub>6</sub>Cl<sub>5</sub>NO<sub>2</sub>",
        "Molecular Mass": "295.33",
        "Boiling Point": "328 °C",
        "Melting Point": "144 °C",
        "Density": "1.718 g/cm³ @ Temp: 25 °C"
    }
}