{
    "cas_no": "495-61-4",
    "key_name": "β-Bisabolene",
    "cn_name": null,
    "alternate_name": "Cyclohexene, 1-methyl-4-(5-methyl-1-methylene-4-hexen-1-yl)-, (4<em>S</em>)-;β-Bisabolene;1,5-Heptadiene, 6-methyl-2-(4-methyl-3-cyclohexen-1-yl)-, (<em>S</em>)-(-)-;Cyclohexene, 1-methyl-4-(5-methyl-1-methylene-4-hexenyl)-, (<em>S</em>)-;Cyclohexene, 1-methyl-4-(5-methyl-1-methylene-4-hexenyl)-, (4<em>S</em>)-;(4<em>S</em>)-1-Methyl-4-(5-methyl-1-methylene-4-hexen-1-yl)cyclohexene;(-)-β-Bisabolene;<em>l</em>-β-Bisabolene;(<em>S</em>)-1-Methyl-4-(5-methyl-1-methylene-4-hexenyl)-1-cyclohexene;(<em>S</em>)-1-Methyl-4-(5-methyl-1-methylene-4-hexenyl)cyclohexene;(<em>S</em>)-β-Bisabolene",
    "duplicated_cas_no": "23089-29-4",
    "SMILES": "C(CCC=C(C)C)(=C)[C@H]1CCC(C)=CC1",
    "meta_data": {
        "InChI": "InChI=1S/C15H24/c1-12(2)6-5-7-14(4)15-10-8-13(3)9-11-15/h6,8,15H,4-5,7,9-11H2,1-3H3/t15-/m1/s1",
        "InChIKey": null,
        "Canonical SMILES": "C=C(CCC=C(C)C)C1CC=C(C)CC1",
        "Molecular Formula": "C<sub>15</sub>H<sub>24</sub>",
        "Molecular Mass": "204.35",
        "Boiling Point": "145 °C @ Press: 18 Torr",
        "Density": "0.8730 g/cm³ @ Temp: 20 °C"
    }
}