{
    "cas_no": "112-32-3",
    "key_name": "Octyl formate",
    "cn_name": null,
    "alternate_name": "Formic acid, octyl ester;Octyl alcohol, formate;Octyl formate;<em>n</em>-Octyl formate;1-Octyl formate;NSC 404473",
    "duplicated_cas_no": "",
    "SMILES": "C(CCCCC)CCOC=O",
    "meta_data": {
        "InChI": "InChI=1S/C9H18O2/c1-2-3-4-5-6-7-8-11-9-10/h9H,2-8H2,1H3",
        "InChIKey": null,
        "Canonical SMILES": "O=COCCCCCCCC",
        "Molecular Formula": "C<sub>9</sub>H<sub>18</sub>O<sub>2</sub>",
        "Molecular Mass": "158.24",
        "Boiling Point": "198.8 °C",
        "Melting Point": "-39.1 °C",
        "Density": "0.975 g/cm³ @ Temp: 20 °C"
    }
}