{
    "cas_no": "361440-67-7",
    "key_name": "1,1-Dimethylethyl (1<em>S</em>,3<em>S</em>,5<em>S</em>)-3-(aminocarbonyl)-2-azabicyclo[3.1.0]hexane-2-carboxylate",
    "cn_name": null,
    "alternate_name": "2-Azabicyclo[3.1.0]hexane-2-carboxylic acid, 3-(aminocarbonyl)-, 1,1-dimethylethyl ester, (1<em>S</em>,3<em>S</em>,5<em>S</em>)-;1,1-Dimethylethyl (1<em>S</em>,3<em>S</em>,5<em>S</em>)-3-(aminocarbonyl)-2-azabicyclo[3.1.0]hexane-2-carboxylate;<em>tert</em>-Butyl (1<em>S</em>,3<em>S</em>,5<em>S</em>)-3-carbamoyl-2-azabicyclo[3.1.0]hexane-2-carboxylate",
    "duplicated_cas_no": "",
    "SMILES": "C(OC(C)(C)C)(=O)N1[C@@]2([C@@](C2)(C[C@H]1C(N)=O)[H])[H]",
    "meta_data": {
        "InChI": "InChI=1S/C11H18N2O3/c1-11(2,3)16-10(15)13-7-4-6(7)5-8(13)9(12)14/h6-8H,4-5H2,1-3H3,(H2,12,14)/t6-,7-,8-/m0/s1",
        "InChIKey": null,
        "Canonical SMILES": "O=C(OC(C)(C)C)N1C(C(=O)N)CC2CC12",
        "Molecular Formula": "C<sub>11</sub>H<sub>18</sub>N<sub>2</sub>O<sub>3</sub>",
        "Molecular Mass": "226.27",
        "Melting Point": "56-58 °C"
    }
}