{
    "cas_no": "16409-43-1",
    "key_name": "Rose oxide",
    "cn_name": null,
    "alternate_name": "2<em>H</em>-Pyran, tetrahydro-4-methyl-2-(2-methyl-1-propen-1-yl)-;2<em>H</em>-Pyran, tetrahydro-4-methyl-2-(2-methylpropenyl)-;2<em>H</em>-Pyran, tetrahydro-4-methyl-2-(2-methyl-1-propenyl)-;Pyran, tetrahydro-4-methyl-2-(2-methylpropenyl)-;Tetrahydro-4-methyl-2-(2-methyl-1-propen-1-yl)-2<em>H</em>-pyran;Rose oxide;Rosoxide;Rosenoxide;Rose oxide L;4-Methyl-2-(2-methyl-1-propenyl)tetrahydro-2<em>H</em>-pyran;Tetrahydro-4-methyl-2-(2-methyl-1-propenyl)-2<em>H</em>-pyran;Tetrahydro-4-methyl-2-(2-methylpropenyl)-2<em>H</em>-pyran;Rose ether;4-Methyl-2-(2-methylprop-1-en-1-yl)tetrahydro-2<em>H</em>-pyran;Rose Oxide 90;Tetrahydro-4-methyl-2-(2-methyl-1-propenyl)-2H pyran",
    "duplicated_cas_no": "2377533-88-3",
    "SMILES": "C(=C(C)C)C1CC(C)CCO1",
    "meta_data": {
        "InChI": "InChI=1S/C10H18O/c1-8(2)6-10-7-9(3)4-5-11-10/h6,9-10H,4-5,7H2,1-3H3",
        "InChIKey": null,
        "Canonical SMILES": "O1CCC(C)CC1C=C(C)C",
        "Molecular Formula": "C<sub>10</sub>H<sub>18</sub>O",
        "Molecular Mass": "154.25",
        "Boiling Point": "58 °C @ Press: 12 Torr",
        "Density": "0.8753 g/cm³ @ Temp: 20 °C"
    }
}