{
    "cas_no": "53-42-9",
    "key_name": "Etiocholanolone",
    "cn_name": "3a-羟基-5b-雄甾烷-17-酮;",
    "alternate_name": "Androstan-17-one, 3-hydroxy-, (3α,5β)-;5β-Androstan-17-one, 3α-hydroxy-;(3α,5β)-3-Hydroxyandrostan-17-one;5β-Androstan-3α-ol-17-one;5β-Androsterone;Etiocholanolone;3α-Hydroxy-5β-androstane-17-one;3α-Hydroxy-5β-androstan-17-one;5-Isoandrosterone;Etiocholan-3α-ol-17-one;Aetiocholanolone;3α-Etiocholanolone;5β-Androstane-3α-ol-17-one;NSC 50908;α-Etiocholanolone;MeSH ID: D005043",
    "duplicated_cas_no": "",
    "SMILES": "C[C@@]12[C@@]3([C@]([C@]4([C@](C)(CC3)C(=O)CC4)[H])(CC[C@@]1(C[C@H](O)CC2)[H])[H])[H]",
    "meta_data": {
        "InChI": "InChI=1S/C19H30O2/c1-18-9-7-13(20)11-12(18)3-4-14-15-5-6-17(21)19(15,2)10-8-16(14)18/h12-16,20H,3-11H2,1-2H3/t12-,13-,14+,15+,16+,18+,19+/m1/s1",
        "InChIKey": null,
        "Canonical SMILES": "O=C1CCC2C3CCC4CC(O)CCC4(C)C3CCC12C",
        "Molecular Formula": "C<sub>19</sub>H<sub>30</sub>O<sub>2</sub>",
        "Molecular Mass": "290.44",
        "Melting Point": "138.5-139.5 °C"
    }
}