{
    "cas_no": "18542-45-5",
    "key_name": "1-Naphthalenyl propargyl ether",
    "cn_name": null,
    "alternate_name": "Naphthalene, 1-(2-propyn-1-yloxy)-;Naphthalene, 1-(2-propynyloxy)-;1-(2-Propyn-1-yloxy)naphthalene;1-Naphthyl 2-propynyl ether;3-(1-Naphthyloxy)-1-propyne;1-Naphthalenyl propargyl ether;1-Prop-2-ynyloxynaphthalene;1-Prop-2-ynoxynaphthalene;1-(Prop-2-yn-1-yloxy)naphthalene",
    "duplicated_cas_no": "",
    "SMILES": "O(CC#C)C=1C2=C(C=CC1)C=CC=C2",
    "meta_data": {
        "InChI": "InChI=1S/C13H10O/c1-2-10-14-13-9-5-7-11-6-3-4-8-12(11)13/h1,3-9H,10H2",
        "InChIKey": null,
        "Canonical SMILES": "C#CCOC1=CC=CC=2C=CC=CC12",
        "Molecular Formula": "C<sub>13</sub>H<sub>10</sub>O",
        "Molecular Mass": "182.22",
        "Melting Point": "69-74 °C"
    }
}