{
    "cas_no": "16588-26-4",
    "key_name": "2-Bromo-1-chloro-4-nitrobenzene",
    "cn_name": "3-溴-4氯硝基苯;",
    "alternate_name": "Benzene, 2-bromo-1-chloro-4-nitro-;2-Bromo-1-chloro-4-nitrobenzene;3-Bromo-4-chloro-1-nitrobenzene;1-Chloro-2-bromo-4-nitrobenzene;3-Bromo-4-chloronitrobenzene;2-Bromo-4-nitrochlorobenzene;1-Bromo-2-chloro-5-nitrobenzene",
    "duplicated_cas_no": "",
    "SMILES": "N(=O)(=O)C1=CC(Br)=C(Cl)C=C1",
    "meta_data": {
        "InChI": "InChI=1S/C6H3BrClNO2/c7-5-3-4(9(10)11)1-2-6(5)8/h1-3H",
        "InChIKey": null,
        "Canonical SMILES": "O=N(=O)C1=CC=C(Cl)C(Br)=C1",
        "Molecular Formula": "C<sub>6</sub>H<sub>3</sub>BrClNO<sub>2</sub>",
        "Molecular Mass": "236.45",
        "Boiling Point": "100 °C @ Press: 0.1 Torr",
        "Melting Point": "61 °C"
    }
}