{
    "cas_no": "16968-19-7",
    "key_name": "2,2′-Dinitrodibenzyl",
    "cn_name": "2,2-二硝基二苯乙烷;",
    "alternate_name": "Benzene, 1,1′-(1,2-ethanediyl)bis[2-nitro-;Bibenzyl, 2,2′-dinitro-;1,1′-(1,2-Ethanediyl)bis[2-nitrobenzene];1,2-Bis(<em>o</em>-nitrophenyl)ethane;<em>o</em>,<em>o</em>′-Dinitrodibenzyl;2,2′-Dinitrodibenzyl;2,2′-Dinitrobibenzyl;1,2-Di(<em>o</em>-nitrophenyl)ethane;Bis(<em>o</em>-nitrobenzyl);NSC 85868;1-Nitro-2-[2-(2-nitrophenyl)ethyl]benzene;1,2-Bis(2-nitrophenyl)ethane",
    "duplicated_cas_no": "",
    "SMILES": "C(CC1=C(N(=O)=O)C=CC=C1)C2=C(N(=O)=O)C=CC=C2",
    "meta_data": {
        "InChI": "InChI=1S/C14H12N2O4/c17-15(18)13-7-3-1-5-11(13)9-10-12-6-2-4-8-14(12)16(19)20/h1-8H,9-10H2",
        "InChIKey": null,
        "Canonical SMILES": "O=N(=O)C=1C=CC=CC1CCC=2C=CC=CC2N(=O)=O",
        "Molecular Formula": "C<sub>14</sub>H<sub>12</sub>N<sub>2</sub>O<sub>4</sub>",
        "Molecular Mass": "272.26",
        "Melting Point": "120-121 °C"
    }
}