{
    "cas_no": "3513-03-9",
    "key_name": "β-<span class=\"text-smallcaps\">D</span>-<em>erythro</em>-Hex-2-enopyranuronic acid, 4-[[(3<em>S</em>)-3-amino-5-[(aminoiminomethyl)methylamino]-1-oxopentyl]amino]-1-(4-amino-2-oxo-1(2<em>H</em>)-pyrimidinyl)-1,2,3,4-tetradeoxy-, hydrochloride (1:1)",
    "cn_name": null,
    "alternate_name": "β-<span class=\"text-smallcaps\">D</span>-<em>erythro</em>-Hex-2-enopyranuronic acid, 4-[[(3<em>S</em>)-3-amino-5-[(aminoiminomethyl)methylamino]-1-oxopentyl]amino]-1-(4-amino-2-oxo-1(2<em>H</em>)-pyrimidinyl)-1,2,3,4-tetradeoxy-, hydrochloride (1:1);Blasticidin S, monohydrochloride;β-<span class=\"text-smallcaps\">D</span>-<em>erythro</em>-Hex-2-enopyranuronic acid, 4-[[3-amino-5-[(aminoiminomethyl)methylamino]-1-oxopentyl]amino]-1-(4-amino-2-oxo-1(2<em>H</em>)-pyrimidinyl)-1,2,3,4-tetradeoxy-, monohydrochloride, (<em>S</em>)-;β-<span class=\"text-smallcaps\">D</span>-<em>erythro</em>-Hex-2-enopyranuronic acid, 4-[[(3<em>S</em>)-3-amino-5-[(aminoiminomethyl)methylamino]-1-oxopentyl]amino]-1-(4-amino-2-oxo-1(2<em>H</em>)-pyrimidinyl)-1,2,3,4-tetradeoxy-, monohydrochloride;Blasticidin S hydrochloride",
    "duplicated_cas_no": "885319-52-8",
    "SMILES": "O=C1N([C@@H]2O[C@H](C(O)=O)[C@@H](NC(C[C@H](CCN(C(=N)N)C)N)=O)C=C2)C=CC(N)=N1.Cl",
    "meta_data": {
        "InChI": "InChI=1S/C17H26N8O5.ClH/c1-24(16(20)21)6-4-9(18)8-12(26)22-10-2-3-13(30-14(10)15(27)28)25-7-5-11(19)23-17(25)29;/h2-3,5,7,9-10,13-14H,4,6,8,18H2,1H3,(H3,20,21)(H,22,26)(H,27,28)(H2,19,23,29);1H/t9-,10-,13+,14-;/m0./s1",
        "InChIKey": null,
        "Canonical SMILES": "Cl.O=C1N=C(N)C=CN1C2OC(C(=O)O)C(C=C2)NC(=O)CC(N)CCN(C(=N)N)C",
        "Molecular Formula": "C<sub>17</sub>H<sub>26</sub>N<sub>8</sub>O<sub>5</sub>.ClH",
        "Molecular Mass": "",
        "Melting Point": "224-225 °C (decomp)"
    }
}