{
    "cas_no": "6147-11-1",
    "key_name": "α-Mangostin",
    "cn_name": "山竺提取物;罗汉果提取物;曼果斯廷;1,3,6-三羟基-7-甲氧基-2,8-双(3-甲基-2-丁烯基)-9H-氧杂蒽-9-酮;",
    "alternate_name": "9<em>H</em>-Xanthen-9-one, 1,3,6-trihydroxy-7-methoxy-2,8-bis(3-methyl-2-buten-1-yl)-;Xanthen-9-one, 1,3,6-trihydroxy-7-methoxy-2,8-bis(3-methyl-2-butenyl)-;Mangostin;9<em>H</em>-Xanthen-9-one, 1,3,6-trihydroxy-7-methoxy-2,8-bis(3-methyl-2-butenyl)-;1,3,6-Trihydroxy-7-methoxy-2,8-bis(3-methyl-2-buten-1-yl)-9<em>H</em>-xanthen-9-one;1,3,6-Trihydroxy-7-methoxy-2,8-bis(3,3-dimethylallyl)xanthone;1,3,6-Trihydroxy-7-methoxy-2,8-di(3-methyl-2-butenyl)xanthone;α-Mangostin;α-Mangosten;NSC 139154;NSC 27593;NSC 30552;7-<em>O</em>-Methyl-4-desprenylcostatin;7-<em>O</em>-Methyl-γ-mangostin;1,3,6-Trihydroxy-7-methoxy-2,8-bis(3-methylbut-2-enyl)xanthen-9-one",
    "duplicated_cas_no": "1596362-31-0",
    "SMILES": "C(C=C(C)C)C1=C2C(OC=3C(C2=O)=C(O)C(CC=C(C)C)=C(O)C3)=CC(O)=C1OC",
    "meta_data": {
        "InChI": "InChI=1S/C24H26O6/c1-12(2)6-8-14-16(25)10-19-21(22(14)27)23(28)20-15(9-7-13(3)4)24(29-5)17(26)11-18(20)30-19/h6-7,10-11,25-27H,8-9H2,1-5H3",
        "InChIKey": null,
        "Canonical SMILES": "O=C1C2=C(O)C(=C(O)C=C2OC3=CC(O)=C(OC)C(=C13)CC=C(C)C)CC=C(C)C",
        "Molecular Formula": "C<sub>24</sub>H<sub>26</sub>O<sub>6</sub>",
        "Molecular Mass": "410.46",
        "Melting Point": "180-181 °C"
    }
}