{
    "cas_no": "1874-23-3",
    "key_name": "Methyl 5-nitro-2-furoate",
    "cn_name": "5-硝基-2-糠酸甲酯;5-硝基-2-糠酸甲酯;",
    "alternate_name": "2-Furancarboxylic acid, 5-nitro-, methyl ester;2-Furoic acid, 5-nitro-, methyl ester;Methyl 5-nitro-2-furoate;Methyl 5-nitropyromucate;Methyl 5′-nitropyromucate;5-Nitro-2-carbomethoxyfuran;Methyl 5-nitrofuran-2-carboxylate;5-Nitro-2-(methoxycarbonyl)furan;Methyl 5-nitro-2-furylcarboxylate;5-Nitro-2-furoic acid methyl ester;NSC 6457",
    "duplicated_cas_no": "",
    "SMILES": "C(OC)(=O)C=1OC(N(=O)=O)=CC1",
    "meta_data": {
        "InChI": "InChI=1S/C6H5NO5/c1-11-6(8)4-2-3-5(12-4)7(9)10/h2-3H,1H3",
        "InChIKey": null,
        "Canonical SMILES": "O=C(OC)C=1OC(=CC1)N(=O)=O",
        "Molecular Formula": "C<sub>6</sub>H<sub>5</sub>NO<sub>5</sub>",
        "Molecular Mass": "171.11",
        "Melting Point": "192.5-194 °C"
    }
}