{
    "cas_no": "712-29-8",
    "key_name": "6-(Hydroxymethyl)pterin",
    "cn_name": null,
    "alternate_name": "4(3<em>H</em>)-Pteridinone, 2-amino-6-(hydroxymethyl)-;4(1<em>H</em>)-Pteridinone, 2-amino-6-(hydroxymethyl)-;Ranachrome 3;6-Pteridinemethanol, 2-amino-4-hydroxy-;2-Amino-6-(hydroxymethyl)-4(3<em>H</em>)-pteridinone;2-Amino-4-hydroxy-6-(hydroxymethyl)pteridine;Rana-pterin 3;6-(Hydroxymethyl)pterin;Pterin-6-methanol;2-Amino-4-hydroxy-6-pteridinemethanol;NSC 123888;NSC 91688;2-Amino-6-(hydroxymethyl)-3,4-dihydropteridin-4-one;2-Amino-6-(hydroxymethyl)-4-oxopteridine;2-Amino-6-(hydroxymethyl)pteridin-4-ol",
    "duplicated_cas_no": "1501-52-6",
    "SMILES": "O=C1C=2C(=NC(N)=N1)NC=C(CO)N2",
    "meta_data": {
        "InChI": "InChI=1S/C7H7N5O2/c8-7-11-5-4(6(14)12-7)10-3(2-13)1-9-5/h1,13H,2H2,(H3,8,9,11,12,14)",
        "InChIKey": null,
        "Canonical SMILES": "O=C1N=C(N=C2NC=C(N=C12)CO)N",
        "Molecular Formula": "C<sub>7</sub>H<sub>7</sub>N<sub>5</sub>O<sub>2</sub>",
        "Molecular Mass": "193.16",
        "Melting Point": "300 °C (decomp)"
    }
}