{
    "cas_no": "350-12-9",
    "key_name": "Sulbentine",
    "cn_name": "舒苯汀;舒苯汀;",
    "alternate_name": "2<em>H</em>-1,3,5-Thiadiazine-2-thione, tetrahydro-3,5-bis(phenylmethyl)-;2<em>H</em>-1,3,5-Thiadiazine-2-thione, 3,5-dibenzyltetrahydro-;Tetrahydro-3,5-bis(phenylmethyl)-2<em>H</em>-1,3,5-thiadiazine-2-thione;D 47;Dibenzthion;Dibenzthione;3,5-Dibenzyltetrahydro-1,3,5-thiadiazine-2-thione;<em>N</em>,<em>N</em>′-Dibenzyl-2-thione-1,3,5-tetrahydrothiadiazine;<em>N</em>,<em>N</em>′-Dibenzyl-2-thio-1,3,5-tetrahydrothiadiazin;Fungiplex;Afungin;Carbothialdin D<sub>47</sub>;Carbothialdine;3,5-Dibenzyltetrahydro-2<em>H</em>-1,3,5-thiadiazine-2-thione;2-Thioxo-3,5-dibenzyltetrahydro-1,3,5-thiadiazine;Refungine;Sulbentine;Noticin;Mecal;Sulbentin;NSC 150555;Dibenzathione;3,5-Dibenzyl-1,3,5-thiadiazinane-2-thione",
    "duplicated_cas_no": "",
    "SMILES": "C(N1CN(CC2=CC=CC=C2)CSC1=S)C3=CC=CC=C3",
    "meta_data": {
        "InChI": "InChI=1S/C17H18N2S2/c20-17-19(12-16-9-5-2-6-10-16)13-18(14-21-17)11-15-7-3-1-4-8-15/h1-10H,11-14H2",
        "InChIKey": null,
        "Canonical SMILES": "S=C1SCN(CC=2C=CC=CC2)CN1CC=3C=CC=CC3",
        "Molecular Formula": "C<sub>17</sub>H<sub>18</sub>N<sub>2</sub>S<sub>2</sub>",
        "Molecular Mass": "314.47",
        "Melting Point": "101.5 °C"
    }
}