{
    "cas_no": "31333-13-8",
    "key_name": "3-Nonyn-1-ol",
    "cn_name": "3-壬炔-1-醇;",
    "alternate_name": "3-Nonyn-1-ol",
    "duplicated_cas_no": "",
    "SMILES": "C(C#CCCO)CCCC",
    "meta_data": {
        "InChI": "InChI=1S/C9H16O/c1-2-3-4-5-6-7-8-9-10/h10H,2-5,8-9H2,1H3",
        "InChIKey": null,
        "Canonical SMILES": "OCCC#CCCCCC",
        "Molecular Formula": "C<sub>9</sub>H<sub>16</sub>O",
        "Molecular Mass": "140.22",
        "Boiling Point": "103-103.5 °C",
        "Density": "0.8837 g/cm³ @ Temp: 17 °C"
    }
}