{
    "cas_no": "2964-48-9",
    "key_name": "(1<em>S</em>,2<em>S</em>)-2-Amino-1-(4-nitrophenyl)-1,3-propanediol",
    "cn_name": "(1S,2S)-2-氨基-1-(4-硝基苯基)丙烷-1,3-二醇;",
    "alternate_name": "1,3-Propanediol, 2-amino-1-(4-nitrophenyl)-, (1<em>S</em>,2<em>S</em>)-;1,3-Propanediol, 2-amino-1-(<em>p</em>-nitrophenyl)-, <span class=\"text-smallcaps\">L</span>-<em>threo</em>-(+)-;1,3-Propanediol, 2-amino-1-(4-nitrophenyl)-, [<em>S</em>-(<em>R</em>*,<em>R</em>*)]-;(1<em>S</em>,2<em>S</em>)-2-Amino-1-(4-nitrophenyl)-1,3-propanediol;Threomine;<span class=\"text-smallcaps\">L</span>-(+)-<em>threo</em>-1-(<em>p</em>-Nitrophenyl)-2-amino-1,3-propanediol;<span class=\"text-smallcaps\">L</span>-(<em>p</em>-Nitrophenyl)-2-amino-1,3-propanediol;Dextramine;<span class=\"text-smallcaps\">L</span>-<em>threo</em>-(+)-2-Amino-1-(4-nitrophenyl)-1,3-propanediol;<span class=\"text-smallcaps\">L</span>-1-(<em>p</em>-Nitrophenyl)-2-aminopropane-1,3-diol;<em>threo</em>-(1<em>S</em>,2<em>S</em>)-2-Amino-1-(4-nitrophenyl)-1,3-propanediol;(1<em>S</em>,2<em>S</em>)-(+)-2-Amino-1-(4-nitrophenyl)-1,3-propanediol;NSC 12466;(2<em>S</em>,3<em>S</em>)-2-Amino-3-(4-nitrophenyl)propane-1,3-diol;(1S,2S)-1-(4-Nitrophenyl)-2-amino-1,3-propanediol",
    "duplicated_cas_no": "64772-26-5",
    "SMILES": "[C@H]([C@H](CO)N)(O)C1=CC=C(N(=O)=O)C=C1",
    "meta_data": {
        "InChI": "InChI=1S/C9H12N2O4/c10-8(5-12)9(13)6-1-3-7(4-2-6)11(14)15/h1-4,8-9,12-13H,5,10H2/t8-,9-/m0/s1",
        "InChIKey": null,
        "Canonical SMILES": "O=N(=O)C1=CC=C(C=C1)C(O)C(N)CO",
        "Molecular Formula": "C<sub>9</sub>H<sub>12</sub>N<sub>2</sub>O<sub>4</sub>",
        "Molecular Mass": "212.20",
        "Melting Point": "163-164 °C"
    }
}