{
    "cas_no": "140235-34-3",
    "key_name": "1-Methyl malate",
    "cn_name": null,
    "alternate_name": "Butanedioic acid, 2-hydroxy-, 1-methyl ester;Butanedioic acid, hydroxy-, 1-methyl ester;1-Methyl malate;Malic acid 1-methyl ester;3-Hydroxy-4-methoxy-4-oxobutanoic acid;2-Hydroxysuccinic Acid Methyl Ester",
    "duplicated_cas_no": "63549-07-5",
    "SMILES": "C(C(OC)=O)(CC(O)=O)O",
    "meta_data": {
        "InChI": "InChI=1S/C5H8O5/c1-10-5(9)3(6)2-4(7)8/h3,6H,2H2,1H3,(H,7,8)",
        "InChIKey": null,
        "Canonical SMILES": "O=C(O)CC(O)C(=O)OC",
        "Molecular Formula": "C<sub>5</sub>H<sub>8</sub>O<sub>5</sub>",
        "Molecular Mass": "148.11",
        "Boiling Point": "121-122 °C @ Press: 15 Torr",
        "Density": "1.1975 g/cm³ @ Temp: 26 °C"
    }
}