{
    "cas_no": "76-43-7",
    "key_name": "Fluoxymesterone",
    "cn_name": "氟甲睾酮;氟羟甲基睾丸酮;",
    "alternate_name": "Androst-4-en-3-one, 9-fluoro-11,17-dihydroxy-17-methyl-, (11β,17β)-;Androst-4-en-3-one, 9-fluoro-11β,17β-dihydroxy-17-methyl-;(11β,17β)-9-Fluoro-11,17-dihydroxy-17-methylandrost-4-en-3-one;11β,17β-Dihydroxy-9α-fluoro-17α-methyl-4-androsten-3-one;9α-Fluoro-11β,17β-dihydroxy-17α-methylandrost-4-ene-3-one;9-Fluoro-11β,17β-dihydroxy-17-methylandrost-4-en-3-one;9α-Fluoro-11β,17β-dihydroxy-17α-methyl-4-androsten-3-one;9α-Fluoro-11β-hydroxy-17-methyltestosterone;9α-Fluoro-11β-hydroxy-17α-methyltestosterone;Fluoximesterone;Fluoxymesterone;Halotestin;17α-Methyl-9α-fluoro-11β-hydroxytestosterone;Ultandren;Ultandrene;U 6040;Androsterolo;Androfluorene;Androfluorone;Fluotestin;Testoral;Oratestin;Ora Testryl;Oralsterone;Flusteron;Flutestos;Neo-Ormonal;NSC-12165;9α-Fluoro-11β,17β-dihydroxy-17-methyl-4-androsten-3-one;NSC 10704;MeSH ID: D005474",
    "duplicated_cas_no": "742-82-5",
    "SMILES": "F[C@@]12[C@]([C@]3([C@](C)(C[C@@H]1O)[C@@](C)(O)CC3)[H])(CCC=4[C@]2(C)CCC(=O)C4)[H]",
    "meta_data": {
        "InChI": "InChI=1S/C20H29FO3/c1-17-8-6-13(22)10-12(17)4-5-15-14-7-9-19(3,24)18(14,2)11-16(23)20(15,17)21/h10,14-16,23-24H,4-9,11H2,1-3H3/t14-,15-,16-,17-,18-,19-,20-/m0/s1",
        "InChIKey": null,
        "Canonical SMILES": "O=C1C=C2CCC3C4CCC(O)(C)C4(C)CC(O)C3(F)C2(C)CC1",
        "Molecular Formula": "C<sub>20</sub>H<sub>29</sub>FO<sub>3</sub>",
        "Molecular Mass": "336.44",
        "Melting Point": "270 °C"
    }
}