{
    "cas_no": "7399-49-7",
    "key_name": "<em>o</em>-Isopropenyltoluene",
    "cn_name": "异丙烯基甲苯;",
    "alternate_name": "Benzene, 1-methyl-2-(1-methylethenyl)-;Styrene, <em>o</em>,α-dimethyl-;1-Methyl-2-(1-methylethenyl)benzene;<em>o</em>-Methyl-α-methylstyrene;<em>o</em>-Isopropenyltoluene;<em>o</em>,α-Dimethylstyrene;2-Isopropenyltoluene;1-Methyl-2-isopropenylbenzene;α,<em>o</em>-Dimethylstyrene;NSC 54362;α,2-Dimethylstyrene;1-Methyl-2-(prop-1-en-2-yl)benzene;2-(1-Methylethenyl)toluene;α-Methyl-<em>o</em>-methylstyrene",
    "duplicated_cas_no": "",
    "SMILES": "C(C)(=C)C1=C(C)C=CC=C1",
    "meta_data": {
        "InChI": "InChI=1S/C10H12/c1-8(2)10-7-5-4-6-9(10)3/h4-7H,1H2,2-3H3",
        "InChIKey": null,
        "Canonical SMILES": "C=C(C=1C=CC=CC1C)C",
        "Molecular Formula": "C<sub>10</sub>H<sub>12</sub>",
        "Molecular Mass": "132.20",
        "Boiling Point": "175 °C",
        "Density": "0.8890 g/cm³ @ Temp: 20 °C"
    }
}