{
    "cas_no": "2190-25-2",
    "key_name": "1,3-Dipalmitoyl-2-oleoylglycerol",
    "cn_name": null,
    "alternate_name": "9-Octadecenoic acid (9<em>Z</em>)-, 2-[(1-oxohexadecyl)oxy]-1-[[(1-oxohexadecyl)oxy]methyl]ethyl ester;Olein, 1,3-dipalmito-2-;Palmitin, 2-oleo-1,3-di-;9-Octadecenoic acid (<em>Z</em>)-, 2-[(1-oxohexadecyl)oxy]-1-[[(1-oxohexadecyl)oxy]methyl]ethyl ester;Glyceryl 2-oleate-1,3-dipalmitate;2-Oleodipalmitin;1,3-Dipalmitoyl-2-oleoylglycerol;2-Oleo-1,3-dipalmitin;1,3-Dipalmito-2-olein;Glycerin-1-palmitate-2-oleate-3-palmitate;Glycerol 1,3-dipalmitate 2-oleate;1,3-Dipalmitoyl-2-oleoylglycerin;2-Oleoyl-1,3-dipalmitoylglycerin;2-Oleoyl-1,3-dipalmitin;1-Palmito-2-oleo-3-palmitin;1,3-Dipalmitoyl-2-olein;POP;2-Oleoyl-1,3-dipalmitoylglycerol;Triglyceride POP,sn;POP-TG;1,3-Dihexadecanoyl-2-(9i-octadecenoyl)glycerol",
    "duplicated_cas_no": "124329-99-3",
    "SMILES": "C(OC(CCCCCCC/C=C\\CCCCCCCC)=O)(COC(CCCCCCCCCCCCCCC)=O)COC(CCCCCCCCCCCCCCC)=O",
    "meta_data": {
        "InChI": "InChI=1S/C53H100O6/c1-4-7-10-13-16-19-22-25-26-29-32-35-38-41-44-47-53(56)59-50(48-57-51(54)45-42-39-36-33-30-27-23-20-17-14-11-8-5-2)49-58-52(55)46-43-40-37-34-31-28-24-21-18-15-12-9-6-3/h25-26,50H,4-24,27-49H2,1-3H3/b26-25-",
        "InChIKey": null,
        "Canonical SMILES": "O=C(OCC(OC(=O)CCCCCCCC=CCCCCCCCC)COC(=O)CCCCCCCCCCCCCCC)CCCCCCCCCCCCCCC",
        "Molecular Formula": "C<sub>53</sub>H<sub>100</sub>O<sub>6</sub>",
        "Molecular Mass": "833.36",
        "Melting Point": "37.5-38.5 °C"
    }
}