{
    "cas_no": "22236-11-9",
    "key_name": "<em>N</em>-[4-(Difluoromethoxy)phenyl]acetamide",
    "cn_name": "N-(4-二氟甲氧基苯基)乙酰胺;",
    "alternate_name": "Acetamide, <em>N</em>-[4-(difluoromethoxy)phenyl]-;<em>p</em>-Acetanisidide, α,α-difluoro-;<em>N</em>-[4-(Difluoromethoxy)phenyl]acetamide;<em>N</em>-(4-Difluoromethoxyphenyl)acetamide;4-Difluoromethoxyacetanilide",
    "duplicated_cas_no": "",
    "SMILES": "N(C(C)=O)C1=CC=C(OC(F)F)C=C1",
    "meta_data": {
        "InChI": "InChI=1S/C9H9F2NO2/c1-6(13)12-7-2-4-8(5-3-7)14-9(10)11/h2-5,9H,1H3,(H,12,13)",
        "InChIKey": null,
        "Canonical SMILES": "O=C(NC1=CC=C(OC(F)F)C=C1)C",
        "Molecular Formula": "C<sub>9</sub>H<sub>9</sub>F<sub>2</sub>NO<sub>2</sub>",
        "Molecular Mass": "201.17",
        "Melting Point": "109-111 °C"
    }
}