{
    "cas_no": "121552-61-2",
    "key_name": "Cyprodinil",
    "cn_name": "嘧菌环胺;4-环丙基-6-甲基-N-苯基嘧啶-2-胺;",
    "alternate_name": "2-Pyrimidinamine, 4-cyclopropyl-6-methyl-<em>N</em>-phenyl-;4-Cyclopropyl-6-methyl-<em>N</em>-phenyl-2-pyrimidinamine;Cyprodinil;CGA 219417;Unix;Chorus;Vangard;Chorus (pesticide);Chorus 75WG;Vangard 75WG;CXR 6024;Kayak;Vangard WG",
    "duplicated_cas_no": "",
    "SMILES": "N(C=1N=C(C=C(C)N1)C2CC2)C3=CC=CC=C3",
    "meta_data": {
        "InChI": "InChI=1S/C14H15N3/c1-10-9-13(11-7-8-11)17-14(15-10)16-12-5-3-2-4-6-12/h2-6,9,11H,7-8H2,1H3,(H,15,16,17)",
        "InChIKey": null,
        "Canonical SMILES": "N=1C(=NC(=CC1C)C2CC2)NC=3C=CC=CC3",
        "Molecular Formula": "C<sub>14</sub>H<sub>15</sub>N<sub>3</sub>",
        "Molecular Mass": "225.29",
        "Melting Point": "75.9 °C",
        "Density": "1.21 g/cm³ @ Temp: 20 °C"
    }
}