{
    "cas_no": "7252-84-8",
    "key_name": "3-Amino-6-methoxypyridazine",
    "cn_name": "3-氨基-6-甲氧基哒嗪;",
    "alternate_name": "3-Pyridazinamine, 6-methoxy-;Pyridazine, 3-amino-6-methoxy-;6-Methoxy-3-pyridazinamine;3-Amino-6-methoxypyridazine;6-Methoxypyridazin-3-amine;NSC 73703;3-Methoxy-6-aminopyridazine;6-Amino-3-methoxypyridazine;(6-Methoxypyridazin-3-yl)amine",
    "duplicated_cas_no": "",
    "SMILES": "O(C)C1=CC=C(N)N=N1",
    "meta_data": {
        "InChI": "InChI=1S/C5H7N3O/c1-9-5-3-2-4(6)7-8-5/h2-3H,1H3,(H2,6,7)",
        "InChIKey": null,
        "Canonical SMILES": "N=1N=C(N)C=CC1OC",
        "Molecular Formula": "C<sub>5</sub>H<sub>7</sub>N<sub>3</sub>O",
        "Molecular Mass": "125.13",
        "Melting Point": "107 °C"
    }
}