{
    "cas_no": "32556-71-1",
    "key_name": "(3<em>S</em>)-1-Octyn-3-ol",
    "cn_name": "(S)-1-辛炔-3-醇;",
    "alternate_name": "1-Octyn-3-ol, (3<em>S</em>)-;1-Octyn-3-ol, (<em>S</em>)-;1-Octyn-3-ol, (<em>S</em>)-(-)-;(3<em>S</em>)-1-Octyn-3-ol;(<em>S</em>)-1-Octyn-3-ol;(<em>S</em>)(-)-1-Octyn-3-ol;(-)-1-Octyn-3-ol;(3<em>S</em>)-Hydroxy-1-octyne;(<em>S</em>)-1-Octyne-3-ol;(3S)-Oct-1-yn-3-ol",
    "duplicated_cas_no": "257943-25-2",
    "SMILES": "[C@H](CCCCC)(C#C)O",
    "meta_data": {
        "InChI": "InChI=1S/C8H14O/c1-3-5-6-7-8(9)4-2/h2,8-9H,3,5-7H2,1H3/t8-/m1/s1",
        "InChIKey": null,
        "Canonical SMILES": "C#CC(O)CCCCC",
        "Molecular Formula": "C<sub>8</sub>H<sub>14</sub>O",
        "Molecular Mass": "126.20",
        "Boiling Point": "120 °C @ Press: 20 Torr"
    }
}