{
    "cas_no": "81-20-9",
    "key_name": "2,6-Dimethylnitrobenzene",
    "cn_name": "2,6-二甲基硝基苯;2-硝基间二甲苯;2-硝基-1,3-二甲苯;1,3-二甲基-2-硝基苯;",
    "alternate_name": "Benzene, 1,3-dimethyl-2-nitro-;<em>m</em>-Xylene, 2-nitro-;1,3-Dimethyl-2-nitrobenzene;2-Nitro-<em>m</em>-xylene;2,6-Dimethylnitrobenzene;2-Nitro-1,3-dimethylbenzene;2-Nitro-1,3-xylene;NSC 9811",
    "duplicated_cas_no": "",
    "SMILES": "N(=O)(=O)C1=C(C)C=CC=C1C",
    "meta_data": {
        "InChI": "InChI=1S/C8H9NO2/c1-6-4-3-5-7(2)8(6)9(10)11/h3-5H,1-2H3",
        "InChIKey": null,
        "Canonical SMILES": "O=N(=O)C=1C(=CC=CC1C)C",
        "Molecular Formula": "C<sub>8</sub>H<sub>9</sub>NO<sub>2</sub>",
        "Molecular Mass": "151.16",
        "Boiling Point": "226 °C",
        "Melting Point": "15 °C"
    }
}