{
    "cas_no": "1073-23-0",
    "key_name": "2,6-Dimethylpyridine <em>N</em>-oxide",
    "cn_name": "2,6-二甲基吡啶N-氧化物;",
    "alternate_name": "Pyridine, 2,6-dimethyl-, 1-oxide;2,6-Lutidine, 1-oxide;2,6-Dimethylpyridine 1-oxide;2,6-Lutidine <em>N</em>-oxide;2,6-Dimethylpyridine <em>N</em>-oxide;2,6-Lutidine oxide;2,6-Dimethylpyridine oxide;Ivin;NSC 18258;NSC 60738;2,6-Dimethyl-1-oxidopyridin-1-ium;2,6-Dimethylpyridin-1-ium-1-olate",
    "duplicated_cas_no": "90881-19-9;91313-96-1",
    "SMILES": "O=N=1C(C)=CC=CC1C",
    "meta_data": {
        "InChI": "InChI=1S/C7H9NO/c1-6-4-3-5-7(2)8(6)9/h3-5H,1-2H3",
        "InChIKey": null,
        "Canonical SMILES": "O=N=1C(=CC=CC1C)C",
        "Molecular Formula": "C<sub>7</sub>H<sub>9</sub>NO",
        "Molecular Mass": "123.15",
        "Boiling Point": "115-119 °C",
        "Melting Point": "95-96 °C"
    }
}