{
    "cas_no": "6630-33-7",
    "key_name": "2-Bromobenzaldehyde",
    "cn_name": "邻溴苯甲醛;2-溴苯甲醛;",
    "alternate_name": "Benzaldehyde, 2-bromo-;Benzaldehyde, <em>o</em>-bromo-;2-Bromobenzaldehyde;<em>o</em>-Bromobenzaldehyde;1-Bromo-2-formylbenzene;2-Bromobenzenecarboxaldehyde;NSC 60390;<em>o</em>-Formylphenyl bromide;2-Formyl-bromobenzene",
    "duplicated_cas_no": "",
    "SMILES": "C(=O)C1=C(Br)C=CC=C1",
    "meta_data": {
        "InChI": "InChI=1S/C7H5BrO/c8-7-4-2-1-3-6(7)5-9/h1-5H",
        "InChIKey": null,
        "Canonical SMILES": "O=CC=1C=CC=CC1Br",
        "Molecular Formula": "C<sub>7</sub>H<sub>5</sub>BrO",
        "Molecular Mass": "185.02",
        "Boiling Point": "230 °C",
        "Melting Point": "21.5 °C",
        "Density": "1.305 g/cm³ @ Temp: 30 °C"
    }
}