{
    "cas_no": "19249-34-4",
    "key_name": "Ethanol, 2,2′-(phenylimino)bis-, 1,1′-diacetate",
    "cn_name": "N,N-二乙酰氧乙基苯胺;",
    "alternate_name": "Ethanol, 2,2′-(phenylimino)bis-, 1,1′-diacetate;Ethanol, 2,2′-(phenylimino)di-, diacetate (ester);Ethanol, 2,2′-(phenylimino)bis-, diacetate (ester);Ethanol, 2,2′-(phenylimino)di-, diacetate;<em>N</em>,<em>N</em>-Bis(2-acetoxyethyl)aniline;Bis(2-acetoxyethyl)aniline;<em>N</em>,<em>N</em>-Bis(acetoxyethyl)aniline;<em>N</em>,<em>N</em>-Bis(β-acetoxyethyl)aniline;<em>N</em>,<em>N</em>-Di(β-acetoxyethyl)aniline;<em>N</em>,<em>N</em>-Bis(2-acetyloxyethyl)aniline;<em>N</em>,<em>N</em>-Di(2-acetoxyethyl)aniline;Diacetyl-<em>N</em>-phenyldiethanolamine;<em>O</em>,<em>O</em>′-Diacetyl-<em>N</em>-phenyldiethanolamine;<em>N</em>,<em>N</em>-Bis(2-hydroxyethyl)aniline diacetate;(Phenylazanediyl)bis(ethane-2,1-diyl) diacetate",
    "duplicated_cas_no": "",
    "SMILES": "N(CCOC(C)=O)(CCOC(C)=O)C1=CC=CC=C1",
    "meta_data": {
        "InChI": "InChI=1S/C14H19NO4/c1-12(16)18-10-8-15(9-11-19-13(2)17)14-6-4-3-5-7-14/h3-7H,8-11H2,1-2H3",
        "InChIKey": null,
        "Canonical SMILES": "O=C(OCCN(C=1C=CC=CC1)CCOC(=O)C)C",
        "Molecular Formula": "C<sub>14</sub>H<sub>19</sub>NO<sub>4</sub>",
        "Molecular Mass": "265.30",
        "Boiling Point": "177-180 °C @ Press: 4 Torr"
    }
}