{
    "cas_no": "1201-74-7",
    "key_name": "1-(2-Naphthyl)ethylamine",
    "cn_name": null,
    "alternate_name": "2-Naphthalenemethanamine, α-methyl-;2-Naphthalenemethylamine, α-methyl-;α-Methyl-2-naphthalenemethanamine;1-(β-Naphthyl)ethylamine;1-(2-Naphthyl)ethylamine;1-Amino-1-(2-naphthyl)ethane;(±)-1-(2-Naphthyl)ethylamine;α-(2-Naphthyl)ethylamine;(±)-α-(2-Naphthyl)ethylamine;(<em>RS</em>)-1-(2-Naphthyl)ethylamine;1-Naphthalen-2-yl-ethylamine;1-Naphthalen-2-ylethanamine;1-(Naphthalen-2-yl)ethan-1-amine",
    "duplicated_cas_no": "64234-21-5",
    "SMILES": "C(C)(N)C1=CC2=C(C=C1)C=CC=C2",
    "meta_data": {
        "InChI": "InChI=1S/C12H13N/c1-9(13)11-7-6-10-4-2-3-5-12(10)8-11/h2-9H,13H2,1H3",
        "InChIKey": null,
        "Canonical SMILES": "NC(C=1C=CC=2C=CC=CC2C1)C",
        "Molecular Formula": "C<sub>12</sub>H<sub>13</sub>N",
        "Molecular Mass": "171.24",
        "Boiling Point": "157 °C",
        "Melting Point": "23 °C",
        "Density": "1.047 g/cm³ @ Temp: 20 °C"
    }
}