{
    "cas_no": "22084-94-2",
    "key_name": "8-Hydroxy-7-methoxy-4-methyl-2<em>H</em>-1-benzopyran-2-one",
    "cn_name": null,
    "alternate_name": "2<em>H</em>-1-Benzopyran-2-one, 8-hydroxy-7-methoxy-4-methyl-;Coumarin, 8-hydroxy-7-methoxy-4-methyl-;Herniarin, 8-hydroxy-4-methyl-;8-Hydroxy-7-methoxy-4-methyl-2<em>H</em>-1-benzopyran-2-one;4-Methyl-7-methoxy-8-hydroxycoumarin",
    "duplicated_cas_no": "",
    "SMILES": "CC=1C=2C(=C(O)C(OC)=CC2)OC(=O)C1",
    "meta_data": {
        "InChI": "InChI=1S/C11H10O4/c1-6-5-9(12)15-11-7(6)3-4-8(14-2)10(11)13/h3-5,13H,1-2H3",
        "InChIKey": null,
        "Canonical SMILES": "O=C1OC=2C(O)=C(OC)C=CC2C(=C1)C",
        "Molecular Formula": "C<sub>11</sub>H<sub>10</sub>O<sub>4</sub>",
        "Molecular Mass": "206.19",
        "Melting Point": "145 °C"
    }
}