{
    "cas_no": "42783-04-0",
    "key_name": "3-Thiophenecarboxylic acid, 2-amino-5-nitro-, ethyl ester",
    "cn_name": null,
    "alternate_name": "3-Thiophenecarboxylic acid, 2-amino-5-nitro-, ethyl ester;Ethyl 2-amino-5-nitro-3-thenoate;Ethyl 2-amino-5-nitro-3-thiophenecarboxylate;2-Amino-3-ethoxycarbonyl-5-nitrothiophene",
    "duplicated_cas_no": "",
    "SMILES": "C(OCC)(=O)C=1C=C(N(=O)=O)SC1N",
    "meta_data": {
        "InChI": "InChI=1S/C7H8N2O4S/c1-2-13-7(10)4-3-5(9(11)12)14-6(4)8/h3H,2,8H2,1H3",
        "InChIKey": null,
        "Canonical SMILES": "O=C(OCC)C=1C=C(SC1N)N(=O)=O",
        "Molecular Formula": "C<sub>7</sub>H<sub>8</sub>N<sub>2</sub>O<sub>4</sub>S",
        "Molecular Mass": "216.21",
        "Melting Point": "243-246 °C"
    }
}