{
    "cas_no": "6622-91-9",
    "key_name": "4-Pyridylacetic acid hydrochloride",
    "cn_name": "4-吡啶乙酸盐酸盐;",
    "alternate_name": "4-Pyridineacetic acid, hydrochloride (1:1);4-Pyridineacetic acid, hydrochloride;4-Pyridylacetic acid hydrochloride;2-(Pyridin-4-yl)acetic acid hydrochloride;Pyridin-4-ylacetic acid hydrochloride",
    "duplicated_cas_no": "",
    "SMILES": "C(C(O)=O)C=1C=CN=CC1.Cl",
    "meta_data": {
        "InChI": "InChI=1S/C7H7NO2.ClH/c9-7(10)5-6-1-3-8-4-2-6;/h1-4H,5H2,(H,9,10);1H",
        "InChIKey": null,
        "Canonical SMILES": "Cl.O=C(O)CC=1C=CN=CC1",
        "Molecular Formula": "C<sub>7</sub>H<sub>7</sub>NO<sub>2</sub>.ClH",
        "Molecular Mass": "",
        "Melting Point": "130-131 °C"
    }
}