{
    "cas_no": "1702-42-7",
    "key_name": "Tributylmethylphosphonium iodide",
    "cn_name": "碘化三丁基甲基膦;",
    "alternate_name": "Phosphonium, tributylmethyl-, iodide (1:1);Phosphonium, tributylmethyl-, iodide;Tributylmethylphosphonium iodide;Methyltributylphosphonium iodide;NSC 41941;Hishicolin PX 4MI;Methyltri-<em>n</em>-butylphosphonium iodide",
    "duplicated_cas_no": "",
    "SMILES": "[P+](CCCC)(CCCC)(CCCC)C.[I-]",
    "meta_data": {
        "InChI": "InChI=1S/C13H30P.HI/c1-5-8-11-14(4,12-9-6-2)13-10-7-3;/h5-13H2,1-4H3;1H/q+1;/p-1",
        "InChIKey": null,
        "Canonical SMILES": "[I-].CCCC[P+](C)(CCCC)CCCC",
        "Molecular Formula": "C<sub>13</sub>H<sub>30</sub>P.I",
        "Molecular Mass": "",
        "Melting Point": "133.5 °C"
    }
}