{
    "cas_no": "20383-28-2",
    "key_name": "<em>N</em>,<em>N</em>-Bis(1-methylethyl)benzamide",
    "cn_name": "N,N-二异丙基苯甲酰胺;",
    "alternate_name": "Benzamide, <em>N</em>,<em>N</em>-bis(1-methylethyl)-;Benzamide, <em>N</em>,<em>N</em>-diisopropyl-;<em>N</em>,<em>N</em>-Bis(1-methylethyl)benzamide;<em>N</em>,<em>N</em>-Diisopropylbenzamide;NSC 6912",
    "duplicated_cas_no": "",
    "SMILES": "N(C(=O)C1=CC=CC=C1)(C(C)C)C(C)C",
    "meta_data": {
        "InChI": "InChI=1S/C13H19NO/c1-10(2)14(11(3)4)13(15)12-8-6-5-7-9-12/h5-11H,1-4H3",
        "InChIKey": null,
        "Canonical SMILES": "O=C(C=1C=CC=CC1)N(C(C)C)C(C)C",
        "Molecular Formula": "C<sub>13</sub>H<sub>19</sub>NO",
        "Molecular Mass": "205.30",
        "Boiling Point": "164-174 °C @ Press: 20 Torr",
        "Melting Point": "69-714 °C"
    }
}