{
    "cas_no": "32771-64-5",
    "key_name": "<em>cis</em>-Zeatin",
    "cn_name": null,
    "alternate_name": "2-Buten-1-ol, 2-methyl-4-(9<em>H</em>-purin-6-ylamino)-, (2<em>Z</em>)-;2-Buten-1-ol, 2-methyl-4-(1<em>H</em>-purin-6-ylamino)-, (<em>Z</em>)-;2-Buten-1-ol, 2-methyl-4-(purin-6-ylamino)-, (<em>Z</em>)-;2-Buten-1-ol, 2-methyl-4-(1<em>H</em>-purin-6-ylamino)-, (2<em>Z</em>)-;(2<em>Z</em>)-2-Methyl-4-(9<em>H</em>-purin-6-ylamino)-2-buten-1-ol;<em>cis</em>-Zeatin;(<em>Z</em>)-Zeatin;6-(4-Hydroxy-3-methyl-<em>cis</em>-2-butenylamino)purine;<em>cis</em>-6-(4-Hydroxy-3-methyl-2-butenylamino)purine",
    "duplicated_cas_no": "",
    "SMILES": "N(C/C=C(\\CO)/C)C1=C2C(N=CN2)=NC=N1",
    "meta_data": {
        "InChI": "InChI=1S/C10H13N5O/c1-7(4-16)2-3-11-9-8-10(13-5-12-8)15-6-14-9/h2,5-6,16H,3-4H2,1H3,(H2,11,12,13,14,15)/b7-2-",
        "InChIKey": null,
        "Canonical SMILES": "OCC(=CCNC1=NC=NC=2N=CNC21)C",
        "Molecular Formula": "C<sub>10</sub>H<sub>13</sub>N<sub>5</sub>O",
        "Molecular Mass": "219.24",
        "Melting Point": "206-208 °C"
    }
}