{
    "cas_no": "2141-09-5",
    "key_name": "(+)-Magnoflorine",
    "cn_name": "木?花?;木?花?;",
    "alternate_name": "4<em>H</em>-Dibenzo[<em>de</em>,<em>g</em>]quinolinium, 5,6,6a,7-tetrahydro-1,11-dihydroxy-2,10-dimethoxy-6,6-dimethyl-, (6a<em>S</em>)-;6aα-Aporphinium, 1,11-dihydroxy-2,10-dimethoxy-6-methyl-;4<em>H</em>-Dibenzo[<em>de</em>,<em>g</em>]quinolinium, 5,6,6a,7-tetrahydro-1,11-dihydroxy-2,10-dimethoxy-6,6-dimethyl-, (<em>S</em>)-;(6a<em>S</em>)-5,6,6a,7-Tetrahydro-1,11-dihydroxy-2,10-dimethoxy-6,6-dimethyl-4<em>H</em>-dibenzo[<em>de</em>,<em>g</em>]quinolinium;Magnoflorine;Thalictrine;Escholine;Thalictrin;Escholin;(+)-Magnoflorine;α-Magnoflorine;(6AS)-2,10-dimethoxy-6,6-dimethyl-5,6,6a,7-tetrahydro-4<em>H</em>-dibenzo[<em>de</em>,<em>g</em>]quinoline-6-ium-1,11-diol;Zizyphusine",
    "duplicated_cas_no": "7224-58-0;107446-79-7;114216-97-6",
    "SMILES": "OC1=C2C=3[C@](CC=4C2=C(O)C(OC)=CC4)([N+](C)(C)CCC3C=C1OC)[H]",
    "meta_data": {
        "InChI": "InChI=1S/C20H23NO4/c1-21(2)8-7-12-10-15(25-4)20(23)18-16(12)13(21)9-11-5-6-14(24-3)19(22)17(11)18/h5-6,10,13H,7-9H2,1-4H3,(H-,22,23)/p+1/t13-/m0/s1",
        "InChIKey": null,
        "Canonical SMILES": "OC=1C(OC)=CC=C2C1C=3C(O)=C(OC)C=C4C3C(C2)[N+](C)(C)CC4",
        "Molecular Formula": "C<sub>20</sub>H<sub>24</sub>NO<sub>4</sub>",
        "Molecular Mass": "",
        "Melting Point": "208 °C"
    }
}