{
    "cas_no": "322-46-3",
    "key_name": "Pyrido[2,3-<em>b</em>]pyrazine",
    "cn_name": "吡啶并[2,3-b]吡嗪;2,3-二吡啶吡嗪;吡啶并[2,3-B]吡嗪;吡啶并[2,3-B]吡;",
    "alternate_name": "Pyrido[2,3-<em>b</em>]pyrazine;5-Azaquinoxaline;1,4,5-Triazanaphthalene;NSC 73508",
    "duplicated_cas_no": "",
    "SMILES": "C12=C(N=CC=N1)N=CC=C2",
    "meta_data": {
        "InChI": "InChI=1S/C7H5N3/c1-2-6-7(9-3-1)10-5-4-8-6/h1-5H",
        "InChIKey": null,
        "Canonical SMILES": "N=1C=CN=C2C=CC=NC12",
        "Molecular Formula": "C<sub>7</sub>H<sub>5</sub>N<sub>3</sub>",
        "Molecular Mass": "131.13",
        "Melting Point": "147-148 °C"
    }
}