{
    "cas_no": "603-69-0",
    "key_name": "Butanoic acid, 2-acetyl-3-oxo-, ethyl ester",
    "cn_name": "二乙酰乙酸乙酯;双乙酰乙酸乙酯;",
    "alternate_name": "Butanoic acid, 2-acetyl-3-oxo-, ethyl ester;Acetoacetic acid, 2-acetyl-, ethyl ester;Ethyl diacetylacetate;Ethyl 2-acetylacetoacetate;Ethyl 2-acetyl-3-oxobutyrate;Ethyl diacetoacetate;NSC 345;NSC 68058;2-Acetyl-3-oxobutanoic acid ethyl ester;2-Acetyl-3-oxobutyric acid ethyl ester;Di(acetyl)acetic acid ethyl ester;Ethyl 2-acetyl-3-oxobutanoate",
    "duplicated_cas_no": "",
    "SMILES": "C(C(OCC)=O)(C(C)=O)C(C)=O",
    "meta_data": {
        "InChI": "InChI=1S/C8H12O4/c1-4-12-8(11)7(5(2)9)6(3)10/h7H,4H2,1-3H3",
        "InChIKey": null,
        "Canonical SMILES": "O=C(OCC)C(C(=O)C)C(=O)C",
        "Molecular Formula": "C<sub>8</sub>H<sub>12</sub>O<sub>4</sub>",
        "Molecular Mass": "172.18",
        "Boiling Point": "210 °C",
        "Density": "1.1045 g/cm³ @ Temp: 20 °C"
    }
}