{
    "cas_no": "141-94-6",
    "key_name": "Hexetidine",
    "cn_name": "海克替啶;5-氨基-1,3-二(2-乙基己基)-5-甲基六氢嘧啶;",
    "alternate_name": "5-Pyrimidinamine, 1,3-bis(2-ethylhexyl)hexahydro-5-methyl-;Pyrimidine, 5-amino-1,3-bis(2-ethylhexyl)hexahydro-5-methyl-;1,3-Bis(2-ethylhexyl)hexahydro-5-methyl-5-pyrimidinamine;5-Amino-1,3-bis(2-ethylhexyl)hexahydro-5-methylpyrimidine;5-Amino-1,3-bis(β-ethylhexyl)-5-methylhexahydropyrimidine;5-Amino-1,3-bis(2-ethylhexyl)-5-methylhexahydropyrimidine;5-Amino-1,3-di(β-ethylhexyl)hexahydro-5-methylpyrimidine;1,3-Bis(β-ethylhexyl)-5-methyl-5-aminohexahydropyrimidine;Hexetidine;Sterilate;Sterisil;Triscol;Hextril;Oraldene;Hexoral;Glypesin;Triocil;Steri/Sol;Elsix;Hexigel;Hexocil;NSC 17764;Hexopyrimidine;MeSH ID: D006590",
    "duplicated_cas_no": "",
    "SMILES": "C(C(CCCC)CC)N1CN(CC(CCCC)CC)CC(C)(N)C1",
    "meta_data": {
        "InChI": "InChI=1S/C21H45N3/c1-6-10-12-19(8-3)14-23-16-21(5,22)17-24(18-23)15-20(9-4)13-11-7-2/h19-20H,6-18,22H2,1-5H3",
        "InChIKey": null,
        "Canonical SMILES": "NC1(C)CN(CN(CC(CC)CCCC)C1)CC(CC)CCCC",
        "Molecular Formula": "C<sub>21</sub>H<sub>45</sub>N<sub>3</sub>",
        "Molecular Mass": "339.60",
        "Boiling Point": "160 °C",
        "Melting Point": "&lt;25 °C",
        "Density": "0.8889 g/cm³ @ Temp: 20 °C"
    }
}