{
    "cas_no": "16325-63-6",
    "key_name": "2,4,4-Trimethyl-1-pentanol",
    "cn_name": "2,4,4-三甲基-1-戊醇;2,4,4-三甲基戊醇;",
    "alternate_name": "1-Pentanol, 2,4,4-trimethyl-;2,4,4-Trimethyl-1-pentanol;NSC 24283",
    "duplicated_cas_no": "111675-46-8",
    "SMILES": "C(C(C)(C)C)C(CO)C",
    "meta_data": {
        "InChI": "InChI=1S/C8H18O/c1-7(6-9)5-8(2,3)4/h7,9H,5-6H2,1-4H3",
        "InChIKey": null,
        "Canonical SMILES": "OCC(C)CC(C)(C)C",
        "Molecular Formula": "C<sub>8</sub>H<sub>18</sub>O",
        "Molecular Mass": "130.23",
        "Boiling Point": "78-80 °C @ Press: 22 Torr"
    }
}