{
    "cas_no": "6032-29-7",
    "key_name": "2-Pentanol",
    "cn_name": "2-戊醇;仲戊醇;",
    "alternate_name": "2-Pentanol;<em>sec</em>-Amyl alcohol;Methylpropylcarbinol;2-Pentyl alcohol;1-Methyl-1-butanol;<em>sec</em>-Pentanol;1-Methylbutanol;<em>sec</em>-Pentyl alcohol;2-Hydroxypentane;<span class=\"text-smallcaps\">DL</span>-2-Pentanol;(±)-2-Pentanol;<em>dl</em>-2-Pentanol",
    "duplicated_cas_no": "113244-42-1;141459-01-0;13403-73-1",
    "SMILES": "C(C(C)O)CC",
    "meta_data": {
        "InChI": "InChI=1S/C5H12O/c1-3-4-5(2)6/h5-6H,3-4H2,1-2H3",
        "InChIKey": null,
        "Canonical SMILES": "OC(C)CCC",
        "Molecular Formula": "C<sub>5</sub>H<sub>12</sub>O",
        "Molecular Mass": "88.15",
        "Boiling Point": "119.3 °C",
        "Melting Point": "-73 °C",
        "Density": "0.814 g/cm³ @ Temp: 15 °C"
    }
}