{
    "cas_no": "700-87-8",
    "key_name": "2-Methoxyphenyl isocyanate",
    "cn_name": "2-甲氧基苯基异氰酸酯;",
    "alternate_name": "Benzene, 1-isocyanato-2-methoxy-;Isocyanic acid, <em>o</em>-methoxyphenyl ester;1-Isocyanato-2-methoxybenzene;<em>o</em>-Methoxyphenyl isocyanate;2-Methoxyphenyl isocyanate;<em>o</em>-Anisyl isocyanate",
    "duplicated_cas_no": "",
    "SMILES": "N(=C=O)C1=C(OC)C=CC=C1",
    "meta_data": {
        "InChI": "InChI=1S/C8H7NO2/c1-11-8-5-3-2-4-7(8)9-6-10/h2-5H,1H3",
        "InChIKey": null,
        "Canonical SMILES": "O=C=NC=1C=CC=CC1OC",
        "Molecular Formula": "C<sub>8</sub>H<sub>7</sub>NO<sub>2</sub>",
        "Molecular Mass": "149.15",
        "Boiling Point": "94.8-95.5 °C @ Press: 10 Torr"
    }
}