{
    "cas_no": "770-71-8",
    "key_name": "Tricyclo[3.3.1.1<sup>3,7</sup>]decane-1-methanol",
    "cn_name": "1-金刚烷甲醇;1-羟甲基金刚烷;",
    "alternate_name": "Tricyclo[3.3.1.1<sup>3,7</sup>]decane-1-methanol;1-Adamantanemethanol;1-(Hydroxymethyl)adamantane;3-(Hydroxymethyl)adamantane;1-Adamantylmethanol;1-Adamantylcarbinol;(Adamantan-1-yl)methanol;(1s,3s)-Adamantan-1-ylmethanol",
    "duplicated_cas_no": "",
    "SMILES": "C(O)C12CC3CC(C1)CC(C2)C3",
    "meta_data": {
        "InChI": "InChI=1S/C11H18O/c12-7-11-4-8-1-9(5-11)3-10(2-8)6-11/h8-10,12H,1-7H2",
        "InChIKey": null,
        "Canonical SMILES": "OCC12CC3CC(CC(C3)C1)C2",
        "Molecular Formula": "C<sub>11</sub>H<sub>18</sub>O",
        "Molecular Mass": "166.26",
        "Melting Point": "115 °C"
    }
}