{
    "cas_no": "1582-09-8",
    "key_name": "Trifluralin",
    "cn_name": "氟乐灵;2,6-二硝基-N,N-二正丙基-4-三氟甲基苯胺;",
    "alternate_name": "Benzenamine, 2,6-dinitro-<em>N</em>,<em>N</em>-dipropyl-4-(trifluoromethyl)-;<em>p</em>-Toluidine, α,α,α-trifluoro-2,6-dinitro-<em>N</em>,<em>N</em>-dipropyl-;2,6-Dinitro-<em>N</em>,<em>N</em>-dipropyl-4-(trifluoromethyl)benzenamine;L 36352;Lilly 36,352;2,6-Dinitro-<em>N</em>,<em>N</em>-di-<em>n</em>-propyl-α,α,α-trifluoro-<em>p</em>-toluidine;4-(Di-<em>n</em>-propylamino)-3,5-dinitro-1-(trifluoromethyl)benzene;<em>N</em>,<em>N</em>-Di-<em>n</em>-propyl-2,6-dinitro-4-trifluoromethylaniline;<em>N</em>,<em>N</em>-Dipropyl-4-trifluoromethyl-2,6-dinitroaniline;Treflan;α,α,α-Trifluoro-2,6-dinitro-<em>N</em>,<em>N</em>-di-<em>n</em>-propyl-<em>p</em>-toluidine;α,α,α-Trifluoro-2,6-dinitro-<em>N</em>,<em>N</em>-dipropyl-<em>p</em>-toluidine;Trifluralin;Trifluraline;2,6-Dinitro-4-(trifluoromethyl)-<em>N</em>,<em>N</em>-dipropylaniline;4-(Trifluoromethyl)-2,6-dinitro-<em>N</em>,<em>N</em>-dipropylaniline;2,6-Dinitro-<em>N</em>,<em>N</em>-dipropyl-4-(trifluoromethyl)aniline;Agriflan 24;Olitref;Nitran;Elancolan;Trikepin;Agriflan;Trefanocide;Trifloran;<em>N</em>,<em>N</em>-Dipropyl-2,6-dinitro-4-(trifluoromethyl)aniline;Synfloran;Nitran K;Tristar;Super-Treflan;Biobarrier;Triflurom;Triflurotox;Brassix;Treflan 4E;Trifsan;Premerlin;Zeltoxone;Tefralin;Trilan;Trilan (fungicide);Bayonet;Trilin;Triflurex;(2,6-Dinitro-4-trifluoromethyl-phenyl)-dipropyl-amine;MeSH ID: D014274",
    "duplicated_cas_no": "39300-53-3;52627-52-8;61373-95-3;71281-30-6;75635-23-3",
    "SMILES": "N(CCC)(CCC)C1=C(N(=O)=O)C=C(C(F)(F)F)C=C1N(=O)=O",
    "meta_data": {
        "InChI": "InChI=1S/C13H16F3N3O4/c1-3-5-17(6-4-2)12-10(18(20)21)7-9(13(14,15)16)8-11(12)19(22)23/h7-8H,3-6H2,1-2H3",
        "InChIKey": null,
        "Canonical SMILES": "O=N(=O)C=1C=C(C=C(C1N(CCC)CCC)N(=O)=O)C(F)(F)F",
        "Molecular Formula": "C<sub>13</sub>H<sub>16</sub>F<sub>3</sub>N<sub>3</sub>O<sub>4</sub>",
        "Molecular Mass": "335.28",
        "Boiling Point": "139-140 °C @ Press: 4.2 Torr",
        "Melting Point": "46-47 °C",
        "Density": "1.36 g/cm³ @ Temp: 22 °C"
    }
}