{
    "cas_no": "6361-21-3",
    "key_name": "2-Chloro-5-nitrobenzaldehyde",
    "cn_name": "2-氯-5-硝基苯甲醛;",
    "alternate_name": "Benzaldehyde, 2-chloro-5-nitro-;2-Chloro-5-nitrobenzaldehyde;3-Nitro-6-chlorobenzaldehyde;6-Chloro-3-nitrobenzaldehyde;5-Nitro-2-chlorobenzaldehyde;NSC 129753",
    "duplicated_cas_no": "",
    "SMILES": "C(=O)C1=CC(N(=O)=O)=CC=C1Cl",
    "meta_data": {
        "InChI": "InChI=1S/C7H4ClNO3/c8-7-2-1-6(9(11)12)3-5(7)4-10/h1-4H",
        "InChIKey": null,
        "Canonical SMILES": "O=CC1=CC(=CC=C1Cl)N(=O)=O",
        "Molecular Formula": "C<sub>7</sub>H<sub>4</sub>ClNO<sub>3</sub>",
        "Molecular Mass": "185.56",
        "Melting Point": "98 °C"
    }
}