{
    "cas_no": "2164-17-2",
    "key_name": "Fluometuron",
    "cn_name": "伏草隆;N,N-二甲基-N\"-[3-(三氟甲基)苯基]脲;",
    "alternate_name": "Urea, <em>N</em>,<em>N</em>-dimethyl-<em>N</em>′-[3-(trifluoromethyl)phenyl]-;Urea, 1,1-dimethyl-3-(α,α,α-trifluoro-<em>m</em>-tolyl)-;<em>N</em>,<em>N</em>-Dimethyl-<em>N</em>′-[3-(trifluoromethyl)phenyl]urea;C 2059;Cotoran;1,1-Dimethyl-3-(α,α,α-trifluoro-<em>m</em>-tolyl)urea;Fluometuron;<em>N</em>-(3-Trifluoromethylphenyl)-<em>N</em>′,<em>N</em>′-dimethylurea;3-(<em>m</em>-Trifluoromethylphenyl)-1,1-dimethylurea;<em>N</em>-(<em>m</em>-Trifluoromethylphenyl)-<em>N</em>′,<em>N</em>′-dimethylurea;3-(3-Trifluoromethylphenyl)-1,1-dimethylurea;Ciba 2059;Pakhtaran;Lanex;Cotoran 85DF;Fluomethuron",
    "duplicated_cas_no": "",
    "SMILES": "N(C(N(C)C)=O)C1=CC(C(F)(F)F)=CC=C1",
    "meta_data": {
        "InChI": "InChI=1S/C10H11F3N2O/c1-15(2)9(16)14-8-5-3-4-7(6-8)10(11,12)13/h3-6H,1-2H3,(H,14,16)",
        "InChIKey": null,
        "Canonical SMILES": "O=C(NC1=CC=CC(=C1)C(F)(F)F)N(C)C",
        "Molecular Formula": "C<sub>10</sub>H<sub>11</sub>F<sub>3</sub>N<sub>2</sub>O",
        "Molecular Mass": "232.20",
        "Boiling Point": "~280 °C (approx) @ Press: 760 Torr",
        "Melting Point": "163-164.5 °C",
        "Density": "1.39 g/cm³ @ Temp: 20 °C"
    }
}