{
    "cas_no": "13067-93-1",
    "key_name": "Cyanofenphos",
    "cn_name": "苯腈膦;苯腈硫磷；O-乙基-O-(对-氯基苯基)苯基硫逐膦酸酯;",
    "alternate_name": "Phosphonothioic acid, <em>P</em>-phenyl-, <em>O</em>-(4-cyanophenyl) <em>O</em>-ethyl ester;Phosphonothioic acid, phenyl-, <em>O</em>-ethyl ester, <em>O</em>-ester with <em>p</em>-hydroxybenzonitrile;Phosphonothioic acid, phenyl-, <em>O</em>-(4-cyanophenyl) <em>O</em>-ethyl ester;Phosphonothioic acid, phenyl-, <em>O</em>-<em>p</em>-cyanophenyl <em>O</em>-ethyl ester;S 4087;Monsanto CP-19699;Surecide;B 10094;CP 19699;Cyanophenphos;CYP (cyanofenphos);<em>O</em>-Ethyl <em>O</em>-(4-cyanophenyl) phenylphosphonothioate;Cyanofenphos;OMS 870;Surazon;SUD",
    "duplicated_cas_no": "62421-62-9",
    "SMILES": "P(OC1=CC=C(C#N)C=C1)(OCC)(=S)C2=CC=CC=C2",
    "meta_data": {
        "InChI": "InChI=1S/C15H14NO2PS/c1-2-17-19(20,15-6-4-3-5-7-15)18-14-10-8-13(12-16)9-11-14/h3-11H,2H2,1H3",
        "InChIKey": null,
        "Canonical SMILES": "N#CC1=CC=C(OP(=S)(OCC)C=2C=CC=CC2)C=C1",
        "Molecular Formula": "C<sub>15</sub>H<sub>14</sub>NO<sub>2</sub>PS",
        "Molecular Mass": "303.32",
        "Melting Point": "83 °C"
    }
}