{
    "cas_no": "24808-04-6",
    "key_name": "(-)-Epiafzelechin",
    "cn_name": null,
    "alternate_name": "2<em>H</em>-1-Benzopyran-3,5,7-triol, 3,4-dihydro-2-(4-hydroxyphenyl)-, (2<em>R</em>,3<em>R</em>)-;3,4′,5,7-Flavantetrol, (-)-;2<em>H</em>-1-Benzopyran-3,5,7-triol, 3,4-dihydro-2-(4-hydroxyphenyl)-, (2<em>R</em>-<em>cis</em>)-;(2<em>R</em>,3<em>R</em>)-3,4-Dihydro-2-(4-hydroxyphenyl)-2<em>H</em>-1-benzopyran-3,5,7-triol;Epiafzelechin, (-)-;(-)-Epiafzelechin;<em>epi</em>-Afzelechin;(-)-<em>epi</em>-Afzelechin",
    "duplicated_cas_no": "22425-52-1;30358-91-9",
    "SMILES": "OC1=C2C(O[C@@H]([C@H](O)C2)C3=CC=C(O)C=C3)=CC(O)=C1",
    "meta_data": {
        "InChI": "InChI=1S/C15H14O5/c16-9-3-1-8(2-4-9)15-13(19)7-11-12(18)5-10(17)6-14(11)20-15/h1-6,13,15-19H,7H2/t13-,15-/m1/s1",
        "InChIKey": null,
        "Canonical SMILES": "OC1=CC=C(C=C1)C2OC=3C=C(O)C=C(O)C3CC2O",
        "Molecular Formula": "C<sub>15</sub>H<sub>14</sub>O<sub>5</sub>",
        "Molecular Mass": "274.27",
        "Melting Point": "241 °C (decomp)"
    }
}