{
    "cas_no": "108-96-3",
    "key_name": "4(1<em>H</em>)-Pyridinone",
    "cn_name": "吡啶酮;",
    "alternate_name": "4(1<em>H</em>)-Pyridinone;4(1<em>H</em>)-Pyridone;γ-Pyridone;4-Oxopyridine;4-Pyridone;4-Pyridinone;NSC 146174;NSC 26021;1,4-Dihydropyridin-4-one;1<em>H</em>-Pyridin-4-one",
    "duplicated_cas_no": "26266-70-6",
    "SMILES": "O=C1C=CNC=C1",
    "meta_data": {
        "InChI": "InChI=1S/C5H5NO/c7-5-1-3-6-4-2-5/h1-4H,(H,6,7)",
        "InChIKey": null,
        "Canonical SMILES": "O=C1C=CNC=C1",
        "Molecular Formula": "C<sub>5</sub>H<sub>5</sub>NO",
        "Molecular Mass": "95.10",
        "Boiling Point": "200 °C @ Press: 3 Torr",
        "Melting Point": "65-66 °C"
    }
}