{
    "cas_no": "13679-75-9",
    "key_name": "1-(2-Thienyl)-1-propanone",
    "cn_name": "1-(2-噻吩基)-1-丙酮;",
    "alternate_name": "1-Propanone, 1-(2-thienyl)-;1-(2-Thienyl)-1-propanone;Ethyl 2-thienyl ketone;2-Propionylthiophene;2-Propanoylthiophene;1-(Thiophen-2-yl)propan-1-one;NSC 76041",
    "duplicated_cas_no": "213611-32-6",
    "SMILES": "C(CC)(=O)C1=CC=CS1",
    "meta_data": {
        "InChI": "InChI=1S/C7H8OS/c1-2-6(8)7-4-3-5-9-7/h3-5H,2H2,1H3",
        "InChIKey": null,
        "Canonical SMILES": "O=C(C=1SC=CC1)CC",
        "Molecular Formula": "C<sub>7</sub>H<sub>8</sub>OS",
        "Molecular Mass": "140.20",
        "Boiling Point": "128-129 °C @ Press: 25 Torr",
        "Density": "1.1390 g/cm³ @ Temp: 20 °C"
    }
}