{
    "cas_no": "835-11-0",
    "key_name": "2,2′-Dihydroxybenzophenone",
    "cn_name": null,
    "alternate_name": "Methanone, bis(2-hydroxyphenyl)-;Benzophenone, 2,2′-dihydroxy-;Bis(2-hydroxyphenyl)methanone;2,2′-Dihydroxybenzophenone;Bis(2-hydroxyphenyl) ketone;2-(2-Hydroxybenzoyl)phenol",
    "duplicated_cas_no": "",
    "SMILES": "C(=O)(C1=C(O)C=CC=C1)C2=C(O)C=CC=C2",
    "meta_data": {
        "InChI": "InChI=1S/C13H10O3/c14-11-7-3-1-5-9(11)13(16)10-6-2-4-8-12(10)15/h1-8,14-15H",
        "InChIKey": null,
        "Canonical SMILES": "O=C(C=1C=CC=CC1O)C=2C=CC=CC2O",
        "Molecular Formula": "C<sub>13</sub>H<sub>10</sub>O<sub>3</sub>",
        "Molecular Mass": "214.22",
        "Boiling Point": "333 °C",
        "Melting Point": "59.5 °C"
    }
}