{
    "cas_no": "4786-52-1",
    "key_name": "Ethyl 1,6-dihydro-6-oxo-5-pyrimidinecarboxylate",
    "cn_name": "4-羟基-5-嘧啶甲酸乙酯;",
    "alternate_name": "5-Pyrimidinecarboxylic acid, 1,6-dihydro-6-oxo-, ethyl ester;5-Pyrimidinecarboxylic acid, 4-hydroxy-, ethyl ester;5-Pyrimidinecarboxylic acid, 1,4-dihydro-4-oxo-, ethyl ester;Ethyl 1,6-dihydro-6-oxo-5-pyrimidinecarboxylate;5-Ethoxycarbonyl-4-hydroxypyrimidine;Ethyl 4-hydroxy-5-pyrimidinecarboxylate;Ethyl 3,4-dihydro-4-oxopyrimidine-5-carboxylate;NSC 69216;4-Hydroxypyrimidine-5-carboxylic acid ethyl ester",
    "duplicated_cas_no": "71133-17-0",
    "SMILES": "C(OCC)(=O)C=1C(=O)NC=NC1",
    "meta_data": {
        "InChI": "InChI=1S/C7H8N2O3/c1-2-12-7(11)5-3-8-4-9-6(5)10/h3-4H,2H2,1H3,(H,8,9,10)",
        "InChIKey": null,
        "Canonical SMILES": "O=C(OCC)C1=CN=CNC1=O",
        "Molecular Formula": "C<sub>7</sub>H<sub>8</sub>N<sub>2</sub>O<sub>3</sub>",
        "Molecular Mass": "168.15",
        "Melting Point": "185-186 °C"
    }
}