{
    "cas_no": "80806-68-4",
    "key_name": "4,4,5,5,6,6,7,7,8,8,9,9,9-Tridecafluoro-1-nonanol",
    "cn_name": "3-(全氟正己基)丙醇;",
    "alternate_name": "1-Nonanol, 4,4,5,5,6,6,7,7,8,8,9,9,9-tridecafluoro-;4,4,5,5,6,6,7,7,8,8,9,9,9-Tridecafluoro-1-nonanol;4,4,5,5,6,6,7,7,8,8,9,9,9-Tridecafluoronon-1-ol;4,4,5,5,6,6,7,7,8,8,9,9,9-Tridecafluorononan-1-ol;3-(Perfluorohexyl)propanol",
    "duplicated_cas_no": "",
    "SMILES": "C(C(C(C(F)(F)F)(F)F)(F)F)(C(C(CCCO)(F)F)(F)F)(F)F",
    "meta_data": {
        "InChI": "InChI=1S/C9H7F13O/c10-4(11,2-1-3-23)5(12,13)6(14,15)7(16,17)8(18,19)9(20,21)22/h23H,1-3H2",
        "InChIKey": null,
        "Canonical SMILES": "FC(F)(F)C(F)(F)C(F)(F)C(F)(F)C(F)(F)C(F)(F)CCCO",
        "Molecular Formula": "C<sub>9</sub>H<sub>7</sub>F<sub>13</sub>O",
        "Molecular Mass": "378.13",
        "Boiling Point": "84-86 °C @ Press: 20 Torr",
        "Melting Point": "-6--3 °C"
    }
}