{
    "cas_no": "9011-06-7",
    "key_name": "Vinyl chloride-vinylidene chloride copolymer",
    "cn_name": null,
    "alternate_name": "Ethene, 1,1-dichloro-, polymer with chloroethene;Ethylene, 1,1-dichloro-, polymer with chloroethylene;Ethylene, chloro-, polymer with vinylidene chloride;Ethene, chloro-, polymer with 1,1-dichloroethene;Vinyl chloride-vinylidene chloride copolymer;Vinylidene chloride-vinyl chloride copolymer;Vinyl chloride-1,1-dichloroethylene copolymer;Velon;Vinyl chloride-vinylidene chloride polymer;Breon 202;Chloroethylene-1,1-dichloroethylene polymer;Daran;ET 67;KhS 596;Latex SVKh;Polyco 2611;SVKh 1;Vinylidene chloride-vinyl chloride polymer;VIKh 65;Geon 652;Geon 222;Saran 746;SP 489;UP 925;1,1-Dichloroethylene-monochloroethylene polymer;Laplen;Saran 683;Dow 874;Breon CS 100/30;Vinyl chloride copolymer with vinylidene chloride;Viniden 60;Dow Latex 874;VKhVD 40;IKhS 1;QX 2168;Daran CR 6795H;SVKh 40;VKhVD 65;XP 5230.04;SVKh;Sconatex BF 50;VKhVD 64A;VKhVD 65V;VKhVD 65PED;VKhVD 65PTs;KhS 04;KhS 76;VKhVD 30;KhS 710;KhS 558;1000WK;Saran B;Poly(vinyl chloride-vinylidene chloride);Poviden VU;Poviden U 1;Saran 506;Saran SL 100;Saran 872;K-Flex 15RS2;Saran 925;Saran 428;Saran HB 75;Saran HB 100;Saran HB 200;Krehalon SOA;Krehalon AO;Krehalon DO 813;Saran 872C;Saran 313C;Ixan WV 320;Krehalon SPX 105;XU 32009.02;Aronmelt UL 321;UL 321;Saran 502;Haloflex DP 2022S;Ixan A;Ixan D;Ixan G;PV 864;Geon 650X18;Saran 516;WV 323;PV 858;PV 325;Saran 469;Saran L 501;Saran L 536B;VKhVD 65VK;Krehalon FB 2;L 536B;Krehalon Latex AO;Saran 2032;Dow 2032;XVS 709;Ixan XV 400;Ixan XV 400OF;Saran XUS 320;Poly(vinylidene chloride-vinyl chloride);Krehalon MT 300R;MT 300R;Saran 313;Vinyl chloride-vinylidene dichloride copolymer;Vinylidene dichloride-vinyl chloride copolymer;Saran 415;Saran 43710-7;Ixan PV 708;Saran Latex L 536B;Saran Film UB;Saran UB;Saran 883;Saran Film 883;VC 11;1,1-Dichloroethene-chloroethene copolymer;WJ 1",
    "duplicated_cas_no": "96511-18-1;109321-18-8;9006-07-9;37353-78-9;39289-33-3;52218-82-3;58543-30-9;59218-09-6;61489-68-7;77272-44-7;460985-89-1;170618-05-0;1202864-68-3;1217061-58-9",
    "SMILES": "C(=C)(Cl)Cl.C(=C)Cl",
    "meta_data": {
        "InChI": "InChI=1S/C2H2Cl2.C2H3Cl/c1-2(3)4;1-2-3/h1H2;2H,1H2",
        "InChIKey": null,
        "Canonical SMILES": "ClC=C.ClC(Cl)=C",
        "Molecular Formula": "(C<sub>2</sub>H<sub>3</sub>Cl.C<sub>2</sub>H<sub>2</sub>Cl<sub>2</sub>)<sub>x</sub>",
        "Molecular Mass": "",
        "Melting Point": "149-191 °C"
    }
}