{
    "cas_no": "34837-55-3",
    "key_name": "Benzeneselenenyl bromide",
    "cn_name": "苯基溴化硒;",
    "alternate_name": "Benzeneselenenyl bromide;Phenylselenenyl bromide;Phenylselenyl bromide;Benzeneselenyl bromide;Phenylselenium bromide",
    "duplicated_cas_no": "",
    "SMILES": "[Se](Br)C1=CC=CC=C1",
    "meta_data": {
        "InChI": "InChI=1S/C6H5BrSe/c7-8-6-4-2-1-3-5-6/h1-5H",
        "InChIKey": null,
        "Canonical SMILES": "Br[Se]C=1C=CC=CC1",
        "Molecular Formula": "C<sub>6</sub>H<sub>5</sub>BrSe",
        "Molecular Mass": "235.97",
        "Boiling Point": "107-108 °C @ Press: 15 Torr",
        "Melting Point": "62 °C"
    }
}