{
    "cas_no": "25346-31-0",
    "key_name": "3-Bromo-3-methylpentane",
    "cn_name": null,
    "alternate_name": "Pentane, 3-bromo-3-methyl-;3-Bromo-3-methylpentane",
    "duplicated_cas_no": "",
    "SMILES": "C(CC)(CC)(Br)C",
    "meta_data": {
        "InChI": "InChI=1S/C6H13Br/c1-4-6(3,7)5-2/h4-5H2,1-3H3",
        "InChIKey": null,
        "Canonical SMILES": "BrC(C)(CC)CC",
        "Molecular Formula": "C<sub>6</sub>H<sub>13</sub>Br",
        "Molecular Mass": "165.07",
        "Boiling Point": "130 °C",
        "Density": "1.2066 g/cm³ @ Temp: 0 °C"
    }
}