{
    "cas_no": "2465-27-2",
    "key_name": "C.I. Basic Yellow 2",
    "cn_name": "碱性嫩黄O;金胺;盐基淡黄;盐基槐黄;碱性槐黄;碱性淡黄O;4,4\"-碳亚氨基双(N,N-二甲基苯胺)单盐酸盐;",
    "alternate_name": "Benzenamine, 4,4′-carbonimidoylbis[<em>N</em>,<em>N</em>-dimethyl-, hydrochloride (1:1);C.I. Basic Yellow 2, monohydrochloride;Benzenamine, 4,4′-carbonimidoylbis[<em>N</em>,<em>N</em>-dimethyl-, monohydrochloride;C.I. Basic Yellow 2;C.I. 41000;ADC Auramine O;Aizen Auramine;Aizen Auramine conc.SFA;Aizen Auramine OH;Auramine A1;Auramine N;Auramine O;Auramine Extra;Auramine Extra Conc. A;Auramine O Extra Conc. A Export;Auramine FA;Auramine hydrochloride;Auramine II;Auramine Lake Yellow O;Auramine ON;Auramine OO;Auramine OOO;Auramine OS;Auramine Pure;Auramine SP;Auramine Yellow;Calcozine Yellow OX;Mitsui Auramine O;Auramine;Auramine FWA;Auramine 0-100;Basic Yellow 2;Auramine chloride;Auramin;Basonyl Yellow 120;Arazine Yellow;Flexo Yellow 110;Aizen Auramine OW 100;Basic Light Yellow;Auramine Extra 0-125;Auramine Extra 0-100;Basic Flavine Yellow O;Basic Light Yellow O;Basic yellow O",
    "duplicated_cas_no": "12237-78-4",
    "SMILES": "C(=N)(C1=CC=C(N(C)C)C=C1)C2=CC=C(N(C)C)C=C2.Cl",
    "meta_data": {
        "InChI": "InChI=1S/C17H21N3.ClH/c1-19(2)15-9-5-13(6-10-15)17(18)14-7-11-16(12-8-14)20(3)4;/h5-12,18H,1-4H3;1H",
        "InChIKey": null,
        "Canonical SMILES": "Cl.N=C(C1=CC=C(C=C1)N(C)C)C2=CC=C(C=C2)N(C)C",
        "Molecular Formula": "C<sub>17</sub>H<sub>21</sub>N<sub>3</sub>.ClH",
        "Molecular Mass": "",
        "Melting Point": "&gt;250 °C (decomp)"
    }
}