{
    "cas_no": "30045-16-0",
    "key_name": "Dehydrocorydaline",
    "cn_name": null,
    "alternate_name": "Dibenzo[<em>a</em>,<em>g</em>]quinolizinium, 5,6-dihydro-2,3,9,10-tetramethoxy-13-methyl-;Berbinium, 7,8,13,13a-tetradehydro-2,3,9,10-tetramethoxy-13-methyl-;Corydaline, dehydro-;5,6-Dihydro-2,3,9,10-tetramethoxy-13-methyldibenzo[<em>a</em>,<em>g</em>]quinolizinium;Dehydrocorydaline;13-Methylpalmatine;2,3,9,10-Tetramethoxy-13-methyl-5,6-dihydroisoquinolino[2,1-<em>b</em>]isoquinolin-7-ium",
    "duplicated_cas_no": "18866-88-1",
    "SMILES": "CC1=C2C=3C(=CC(OC)=C(OC)C3)CC[N+]2=CC=4C1=CC=C(OC)C4OC",
    "meta_data": {
        "InChI": "InChI=1S/C22H24NO4/c1-13-15-6-7-18(24-2)22(27-5)17(15)12-23-9-8-14-10-19(25-3)20(26-4)11-16(14)21(13)23/h6-7,10-12H,8-9H2,1-5H3/q+1",
        "InChIKey": null,
        "Canonical SMILES": "O(C=1C=CC=2C(=C[N+]3=C(C4=CC(OC)=C(OC)C=C4CC3)C2C)C1OC)C",
        "Molecular Formula": "C<sub>22</sub>H<sub>24</sub>NO<sub>4</sub>",
        "Molecular Mass": "",
        "Melting Point": "170-173 °C"
    }
}