{
    "cas_no": "294-93-9",
    "key_name": "12-Crown-4",
    "cn_name": "12-冠醚-4;",
    "alternate_name": "1,4,7,10-Tetraoxacyclododecane;Ethylene oxide cyclic tetramer;12-Crown-4;12-Crown-4-ether;12C4",
    "duplicated_cas_no": "64491-37-8;168081-54-7",
    "SMILES": "C1COCCOCCOCCO1",
    "meta_data": {
        "InChI": "InChI=1S/C8H16O4/c1-2-10-5-6-12-8-7-11-4-3-9-1/h1-8H2",
        "InChIKey": null,
        "Canonical SMILES": "O1CCOCCOCCOCC1",
        "Molecular Formula": "C<sub>8</sub>H<sub>16</sub>O<sub>4</sub>",
        "Molecular Mass": "176.21",
        "Boiling Point": "61-70 °C",
        "Melting Point": "16 °C"
    }
}