{
    "cas_no": "545-46-0",
    "key_name": "Uvaol",
    "cn_name": "乌发醇;",
    "alternate_name": "Urs-12-ene-3,28-diol, (3β)-;Urs-12-ene-3β,28-diol;(3β)-Urs-12-ene-3,28-diol;Uvaol;Uvalol;3β,28-Dihydroxyurs-12-ene;3,28-Dihydroxyurs-12-ene;Urs-12-en-3β,28-diol;NSC 159627",
    "duplicated_cas_no": "1315333-03-9",
    "SMILES": "C[C@]12C([C@]3([C@@](CO)(CC1)CC[C@@H](C)[C@@H]3C)[H])=CC[C@]4([C@@]2(C)CC[C@@]5([C@]4(C)CC[C@H](O)C5(C)C)[H])[H]",
    "meta_data": {
        "InChI": "InChI=1S/C30H50O2/c1-19-10-15-30(18-31)17-16-28(6)21(25(30)20(19)2)8-9-23-27(5)13-12-24(32)26(3,4)22(27)11-14-29(23,28)7/h8,19-20,22-25,31-32H,9-18H2,1-7H3/t19-,20+,22+,23-,24+,25+,27+,28-,29-,30-/m1/s1",
        "InChIKey": null,
        "Canonical SMILES": "OCC12CCC(C)C(C)C2C3=CCC4C5(C)CCC(O)C(C)(C)C5CCC4(C)C3(C)CC1",
        "Molecular Formula": "C<sub>30</sub>H<sub>50</sub>O<sub>2</sub>",
        "Molecular Mass": "442.72",
        "Melting Point": "233 °C"
    }
}