{
    "cas_no": "63069-49-8",
    "key_name": "2-Amino-5-fluorobenzamide",
    "cn_name": "2-氨基-5-氟苯甲酰胺;",
    "alternate_name": "Benzamide, 2-amino-5-fluoro-;2-Amino-5-fluorobenzamide;5-Fluoro-2-aminobenzamide",
    "duplicated_cas_no": "",
    "SMILES": "C(N)(=O)C1=C(N)C=CC(F)=C1",
    "meta_data": {
        "InChI": "InChI=1S/C7H7FN2O/c8-4-1-2-6(9)5(3-4)7(10)11/h1-3H,9H2,(H2,10,11)",
        "InChIKey": null,
        "Canonical SMILES": "O=C(N)C1=CC(F)=CC=C1N",
        "Molecular Formula": "C<sub>7</sub>H<sub>7</sub>FN<sub>2</sub>O",
        "Molecular Mass": "154.14",
        "Melting Point": "144-146 °C"
    }
}