{
    "cas_no": "20769-85-1",
    "key_name": "2-Bromoisobutyryl bromide",
    "cn_name": "2-溴-2-甲基丙酰溴;2-溴异丁酰溴;",
    "alternate_name": "Propanoyl bromide, 2-bromo-2-methyl-;Propionyl bromide, 2-bromo-2-methyl-;2-Bromo-2-methylpropanoyl bromide;α-Bromoisobutyryl bromide;2-Bromo-2-methylpropionyl bromide;Bromodimethylacetyl bromide;2-Bromoisobutyryl bromide;2-Bromoisobutanoyl bromide;2-Bromoisobutyric bromide;Bromoisobutyryl bromide;2-Methyl-2-bromopropionyl bromide;1,2-Dibromo-2-methylpropanal;Bibb",
    "duplicated_cas_no": "",
    "SMILES": "C(C(Br)=O)(Br)(C)C",
    "meta_data": {
        "InChI": "InChI=1S/C4H6Br2O/c1-4(2,6)3(5)7/h1-2H3",
        "InChIKey": null,
        "Canonical SMILES": "O=C(Br)C(Br)(C)C",
        "Molecular Formula": "C<sub>4</sub>H<sub>6</sub>Br<sub>2</sub>O",
        "Molecular Mass": "229.90",
        "Boiling Point": "163 °C",
        "Density": "1.86 g/cm³"
    }
}