{
    "cas_no": "1068-57-1",
    "key_name": "Acetohydrazide",
    "cn_name": null,
    "alternate_name": "Acetic acid, hydrazide;Acetic acid hydrazide;Acetyl hydrazide;Hydrazine, acetyl-;Acethydrazide;Monoacetylhydrazine;Acetohydrazide;Acetylhydrazine;ENT-61241;Ethanehydrazonic acid;NSC 53155;Acetic hydrazide;Acetohydrazine;NSC 2271;Acetocarbazate",
    "duplicated_cas_no": "43183-98-8",
    "SMILES": "C(NN)(C)=O",
    "meta_data": {
        "InChI": "InChI=1S/C2H6N2O/c1-2(5)4-3/h3H2,1H3,(H,4,5)",
        "InChIKey": null,
        "Canonical SMILES": "O=C(NN)C",
        "Molecular Formula": "C<sub>2</sub>H<sub>6</sub>N<sub>2</sub>O",
        "Molecular Mass": "74.08",
        "Boiling Point": "137 °C",
        "Melting Point": "67 °C"
    }
}