{
    "cas_no": "13927-71-4",
    "key_name": "(<em>SP</em>-4-1)-Bis(<em>N</em>,<em>N</em>-dibutylcarbamodithioato-κ<em>S</em>,κ<em>S</em>′)copper",
    "cn_name": null,
    "alternate_name": "Copper, bis(<em>N</em>,<em>N</em>-dibutylcarbamodithioato-κ<em>S</em>,κ<em>S</em>′)-, (<em>SP</em>-4-1)-;Copper, bis(dibutyldithiocarbamato)-;Copper, bis(dibutylcarbamodithioato-<em>S</em>,<em>S</em>′)-, (<em>SP</em>-4-1)-;Copper, bis(dibutylcarbamodithioato-κ<em>S</em>,κ<em>S</em>′)-, (<em>SP</em>-4-1)-;Carbamodithioic acid, dibutyl-, copper complex;(<em>SP</em>-4-1)-Bis(<em>N</em>,<em>N</em>-dibutylcarbamodithioato-κ<em>S</em>,κ<em>S</em>′)copper;Copper dibutyldithiocarbamate;Copper(2+) dibutyldithiocarbamate;Bis(<em>N</em>,<em>N</em>-dibutyldithiocarbamato)copper;Copper bis(dibutyldithiocarbamate);Bis(dibutyldithiocarbamato)copper;NSC 22318;AI 61R;CDBC",
    "duplicated_cas_no": "2102-06-9",
    "SMILES": "N(CCCC)(CCCC)C=1[S-][Cu+2]2([S-]C(N(CCCC)CCCC)=[S]2)[S]1",
    "meta_data": {
        "InChI": "InChI=1S/2C9H19NS2.Cu/c2*1-3-5-7-10(9(11)12)8-6-4-2;/h2*3-8H2,1-2H3,(H,11,12);/q;;+2/p-2",
        "InChIKey": null,
        "Canonical SMILES": "[S]1=C([S-][Cu+2]12[S]=C([S-]2)N(CCCC)CCCC)N(CCCC)CCCC",
        "Molecular Formula": "C<sub>18</sub>H<sub>36</sub>CuN<sub>2</sub>S<sub>4</sub>",
        "Molecular Mass": "",
        "Melting Point": "60-61 °C"
    }
}