{
    "cas_no": "10038-98-9",
    "key_name": "Germanium chloride",
    "cn_name": "氯化锗;四氯化锗;",
    "alternate_name": "Germane, tetrachloro-;Germanium chloride (GeCl<sub>4</sub>);Tetrachlorogermane;Germanium(IV) chloride;Germanium tetrachloride;Germanium chloride;NSC 132053",
    "duplicated_cas_no": "",
    "SMILES": "[Ge](Cl)(Cl)(Cl)Cl",
    "meta_data": {
        "InChI": "InChI=1S/Cl4Ge/c1-5(2,3)4",
        "InChIKey": null,
        "Canonical SMILES": "Cl[Ge](Cl)(Cl)Cl",
        "Molecular Formula": "Cl<sub>4</sub>Ge",
        "Molecular Mass": "214.45",
        "Boiling Point": "83.1 °C",
        "Melting Point": "-52--49 °C",
        "Density": "1.879 g/cm³"
    }
}