{
    "cas_no": "5438-68-6",
    "key_name": "<em>O</em>-Acetylmandelic acid",
    "cn_name": "2-乙酰氧基-2-苯基乙酸;乙酰氧基扁桃酸;",
    "alternate_name": "Benzeneacetic acid, α-(acetyloxy)-;Mandelic acid, acetate;α-(Acetyloxy)benzeneacetic acid;<em>O</em>-Acetylmandelic acid;Acetoxyphenylacetic acid;2-Acetoxy-2-phenylacetic acid;Phenyl-α-acetoxyacetic acid;α-Acetoxyphenylacetic acid;<span class=\"text-smallcaps\">DL</span>-<em>O</em>-Acetylmandelic acid;NSC 14369;(±)-<em>O</em>-Acetylmandelic acid;2-(Acetyloxy)-2-phenylacetic acid",
    "duplicated_cas_no": "29071-09-8",
    "SMILES": "C(OC(C)=O)(C(O)=O)C1=CC=CC=C1",
    "meta_data": {
        "InChI": "InChI=1S/C10H10O4/c1-7(11)14-9(10(12)13)8-5-3-2-4-6-8/h2-6,9H,1H3,(H,12,13)",
        "InChIKey": null,
        "Canonical SMILES": "O=C(O)C(OC(=O)C)C=1C=CC=CC1",
        "Molecular Formula": "C<sub>10</sub>H<sub>10</sub>O<sub>4</sub>",
        "Molecular Mass": "194.18",
        "Melting Point": "80 °C"
    }
}