{
    "cas_no": "75-95-6",
    "key_name": "1,1,1,2,2-Pentabromoethane",
    "cn_name": null,
    "alternate_name": "Ethane, 1,1,1,2,2-pentabromo-;Ethane, pentabromo-;1,1,1,2,2-Pentabromoethane;Pentabromoethane",
    "duplicated_cas_no": "",
    "SMILES": "C(C(Br)Br)(Br)(Br)Br",
    "meta_data": {
        "InChI": "InChI=1S/C2HBr5/c3-1(4)2(5,6)7/h1H",
        "InChIKey": null,
        "Canonical SMILES": "BrC(Br)C(Br)(Br)Br",
        "Molecular Formula": "C<sub>2</sub>HBr<sub>5</sub>",
        "Molecular Mass": "424.55",
        "Boiling Point": "140 °C @ Press: 15 Torr",
        "Melting Point": "56.5 °C"
    }
}