{
    "cas_no": "89-79-2",
    "key_name": "(-)-Isopulegol",
    "cn_name": "(?)-异蒲勒醇;(-)-异蒲勒醇;异胡薄荷醇;",
    "alternate_name": "Cyclohexanol, 5-methyl-2-(1-methylethenyl)-, (1<em>R</em>,2<em>S</em>,5<em>R</em>)-;<em>p</em>-Menth-8-en-3-ol, (1<em>R</em>,3<em>R</em>,4<em>S</em>)-(-)-;Cyclohexanol, 5-methyl-2-(1-methylethenyl)-, [1<em>R</em>-(1α,2β,5α)]-;(1<em>R</em>,2<em>S</em>,5<em>R</em>)-5-Methyl-2-(1-methylethenyl)cyclohexanol;Isopulegol;(-)-Isopulegol;<em>l</em>-Isopulegol;<em>iso</em>-Pulegol;(-)-<span class=\"text-smallcaps\">L</span>-Isopulegol;<span class=\"text-smallcaps\">L</span>-Isopulegol;Isopugenol I;(1<em>R</em>,2<em>S</em>,5<em>R</em>)-(-)-Isopulegol;(1<em>R</em>,2<em>S</em>,5<em>R</em>)-2-Isopropenyl-5-methylcyclohexanol;<em>trans</em>-Isoperitenol;Isopulegol I;Coolact;(1R,2S,5R)-5-Methyl-2-(prop-1-en-2-yl)cyclohexan-1-ol;CA-P (Isopulegol)",
    "duplicated_cas_no": "18674-66-3",
    "SMILES": "C(C)(=C)[C@H]1[C@H](O)C[C@H](C)CC1",
    "meta_data": {
        "InChI": "InChI=1S/C10H18O/c1-7(2)9-5-4-8(3)6-10(9)11/h8-11H,1,4-6H2,2-3H3/t8-,9+,10-/m1/s1",
        "InChIKey": null,
        "Canonical SMILES": "OC1CC(C)CCC1C(=C)C",
        "Molecular Formula": "C<sub>10</sub>H<sub>18</sub>O",
        "Molecular Mass": "154.25",
        "Boiling Point": "93-94 °C",
        "Melting Point": "78 °C",
        "Density": "0.911 g/cm³ @ Temp: 20 °C"
    }
}