{
    "cas_no": "17955-88-3",
    "key_name": "Caprylyl methicone",
    "cn_name": "1,1,1,3,5,5,5-庚甲基-3-辛基三硅氧烷;",
    "alternate_name": "Trisiloxane, 1,1,1,3,5,5,5-heptamethyl-3-octyl-;1,1,1,3,5,5,5-Heptamethyl-3-octyltrisiloxane;Heptamethyloctyltrisiloxane;Silsoft 034;SilCare 41M15;Caprylyl methicone;SS 3408;Silsoft 034 Silicone;3-Octylheptamethyltrisiloxane;Dow Corning FZ 3196;FZ 3196;Dowsil FZ 3196;(Methyl)(octyl)bis(trimethylsiloxy)silane",
    "duplicated_cas_no": "",
    "SMILES": "[Si](O[Si](C)(C)C)(O[Si](C)(C)C)(CCCCCCCC)C",
    "meta_data": {
        "InChI": "InChI=1S/C15H38O2Si3/c1-9-10-11-12-13-14-15-20(8,16-18(2,3)4)17-19(5,6)7/h9-15H2,1-8H3",
        "InChIKey": null,
        "Canonical SMILES": "O([Si](C)(C)C)[Si](O[Si](C)(C)C)(C)CCCCCCCC",
        "Molecular Formula": "C<sub>15</sub>H<sub>38</sub>O<sub>2</sub>Si<sub>3</sub>",
        "Molecular Mass": "334.72",
        "Boiling Point": "84-88 °C @ Press: 0.3 Torr"
    }
}