{
    "cas_no": "1600-27-7",
    "key_name": "Mercuric acetate",
    "cn_name": "乙酸汞盐;乙酸汞;醋酸汞;乙酸高汞;",
    "alternate_name": "Acetic acid, mercury(2+) salt (2:1);Acetic acid, mercury(2+) salt;Acetic acid, mercuridi-;Mercuric acetate;Mercury acetate;Mercury acetate (Hg(O<sub>2</sub>C<sub>2</sub>H<sub>3</sub>)<sub>2</sub>);Mercury(2+) acetate;Mercury diacetate;Mercury(II) acetate;Mercuric diacetate;Diacetoxymercury;Bis(acetyloxy)mercury;Mercuric(II) acetate;Mercury(II) diacetate",
    "duplicated_cas_no": "6129-23-3;7619-62-7;19701-15-6;148333-06-6",
    "SMILES": "C(C)(O)=O.[Hg]",
    "meta_data": {
        "InChI": "InChI=1S/C2H4O2.Hg/c1-2(3)4;/h1H3,(H,3,4);",
        "InChIKey": null,
        "Canonical SMILES": "[Hg].O=C(O)C",
        "Molecular Formula": "C<sub>2</sub>H<sub>4</sub>O<sub>2</sub>.<sup>1</sup>/<sub>2</sub>Hg",
        "Molecular Mass": "",
        "Melting Point": "179 °C (decomp)",
        "Density": "3.28 g/cm³"
    }
}