{
    "cas_no": "32305-98-9",
    "key_name": "(-)-DIOP",
    "cn_name": "异丙烯基-2,3-二羟基-1,4-双二苯基膦丁烷;",
    "alternate_name": "Phosphine, 1,1′-[[(4<em>R</em>,5<em>R</em>)-2,2-dimethyl-1,3-dioxolane-4,5-diyl]bis(methylene)]bis[1,1-diphenyl-;Phosphine, [(2,2-dimethyl-1,3-dioxolane-4,5-diyl)bis(methylene)]bis[diphenyl-, (4<em>R</em>-<em>trans</em>)-;Phosphine, [(2,2-dimethyl-1,3-dioxolane-4,5-diyl)dimethylene]bis[diphenyl-, <em>trans</em>-(-)-;Phosphine, [[(4<em>R</em>,5<em>R</em>)-2,2-dimethyl-1,3-dioxolane-4,5-diyl]bis(methylene)]bis[diphenyl-;1,1′-[[(4<em>R</em>,5<em>R</em>)-2,2-Dimethyl-1,3-dioxolane-4,5-diyl]bis(methylene)]bis[1,1-diphenylphosphine];(-)-2,3-<em>O</em>-Isopropylidene-2,3-dihydroxy-1,4-bis(diphenylphosphino)butane;(-)-DIOP;(<em>R</em>)-DIOP;(<em>R</em>,<em>R</em>)-DIOP;(4<em>R</em>,5<em>R</em>)-DIOP;(4<em>R</em>,5<em>R</em>)-4,5-Bis(diphenylphosphinomethyl)-2,2-dimethyl-1,3-dioxolane;(-)-4,5-Bis(diphenylphosphinomethyl)-2,2-dimethyl-1,3-dioxolane;(4<em>R</em>,5<em>R</em>)-<em>trans</em>-4,5-Bis[(diphenylphosphino)methyl]-2,2-dimethyl-1,3-dioxolane;[[(4<em>R</em>,5<em>R</em>)-2,2-Dimethyl-1,3-dioxolane-4,5-diyl]bis(methylene)]bis[diphenylphosphine]",
    "duplicated_cas_no": "597553-12-3",
    "SMILES": "P(C[C@H]1[C@H](CP(C2=CC=CC=C2)C3=CC=CC=C3)OC(C)(C)O1)(C4=CC=CC=C4)C5=CC=CC=C5",
    "meta_data": {
        "InChI": "InChI=1S/C31H32O2P2/c1-31(2)32-29(23-34(25-15-7-3-8-16-25)26-17-9-4-10-18-26)30(33-31)24-35(27-19-11-5-12-20-27)28-21-13-6-14-22-28/h3-22,29-30H,23-24H2,1-2H3/t29-,30-/m0/s1",
        "InChIKey": null,
        "Canonical SMILES": "O1C(CP(C=2C=CC=CC2)C=3C=CC=CC3)C(OC1(C)C)CP(C=4C=CC=CC4)C=5C=CC=CC5",
        "Molecular Formula": "C<sub>31</sub>H<sub>32</sub>O<sub>2</sub>P<sub>2</sub>",
        "Molecular Mass": "498.53",
        "Melting Point": "89-90 °C"
    }
}