{
    "cas_no": "191-07-1",
    "key_name": "Coronene",
    "cn_name": null,
    "alternate_name": "Coronene;NSC 90725;Circumbenzene",
    "duplicated_cas_no": "65426-27-9",
    "SMILES": "C12=C3C=4C=5C=6C1=C7C=CC6C=CC5C=CC4C=CC3=CC=C2C=C7",
    "meta_data": {
        "InChI": "InChI=1S/C24H12/c1-2-14-5-6-16-9-11-18-12-10-17-8-7-15-4-3-13(1)19-20(14)22(16)24(18)23(17)21(15)19/h1-12H",
        "InChIKey": null,
        "Canonical SMILES": "C1=CC2=CC=C3C=CC4=CC=C5C=CC6=CC=C1C=7C2=C3C4=C5C67",
        "Molecular Formula": "C<sub>24</sub>H<sub>12</sub>",
        "Molecular Mass": "300.35",
        "Boiling Point": "525 °C",
        "Melting Point": "437.3 °C",
        "Density": "1.377 g/cm³"
    }
}