{
    "cas_no": "883-93-2",
    "key_name": "2-Phenylbenzothiazole",
    "cn_name": "2-苯基苯并噻唑;",
    "alternate_name": "Benzothiazole, 2-phenyl-;2-Phenylbenzothiazole;NSC 1854;NSC 2034;2-Phenylbenzo[<em>d</em>]thiazole;2-Phenyl-1,3-benzothiazole",
    "duplicated_cas_no": "",
    "SMILES": "C1(=NC=2C(S1)=CC=CC2)C3=CC=CC=C3",
    "meta_data": {
        "InChI": "InChI=1S/C13H9NS/c1-2-6-10(7-3-1)13-14-11-8-4-5-9-12(11)15-13/h1-9H",
        "InChIKey": null,
        "Canonical SMILES": "N1=C(SC=2C=CC=CC12)C=3C=CC=CC3",
        "Molecular Formula": "C<sub>13</sub>H<sub>9</sub>NS",
        "Molecular Mass": "211.28",
        "Boiling Point": "371 °C",
        "Melting Point": "115 °C",
        "Density": "1.2215 g/cm³ (Solid)"
    }
}