{
    "cas_no": "98-55-5",
    "key_name": "α-Terpineol",
    "cn_name": "alpha-松油醇;2-(4-甲基-3-环己烯基)-2-丙醇;",
    "alternate_name": "3-Cyclohexene-1-methanol, α,α,4-trimethyl-;<em>p</em>-Menth-1-en-8-ol;α,α,4-Trimethyl-3-cyclohexene-1-methanol;α-Terpineol;1-<em>p</em>-Menthen-8-ol;Terpineol 350;2-(4-Methyl-3-cyclohexenyl)-2-propanol;8-Hydroxy-<em>p</em>-menth-1-ene;PC 593;<em>dl</em>-α-Terpineol;(±)-α-Terpineol;NSC 21449;NSC 403665;4-(2-Hydroxy-2-propyl)-1-methylcyclohexene;Pine Oil 593;1,1-Dimethyl-1-(4-methylcyclohex-3-enyl)methanol;Mil 350;2-(4-Methylcyclohex-3-en-1-yl)propan-2-ol",
    "duplicated_cas_no": "2438-12-2;22347-88-2",
    "SMILES": "C(C)(C)(O)C1CCC(C)=CC1",
    "meta_data": {
        "InChI": "InChI=1S/C10H18O/c1-8-4-6-9(7-5-8)10(2,3)11/h4,9,11H,5-7H2,1-3H3",
        "InChIKey": null,
        "Canonical SMILES": "OC(C)(C)C1CC=C(C)CC1",
        "Molecular Formula": "C<sub>10</sub>H<sub>18</sub>O",
        "Molecular Mass": "154.25",
        "Boiling Point": "218-221 °C @ Press: 764 Torr",
        "Melting Point": "35-40 °C",
        "Density": "0.935 g/cm³ @ Temp: 20 °C"
    }
}