{
    "cas_no": "4377-41-7",
    "key_name": "2-(Chloromethyl)quinoline",
    "cn_name": null,
    "alternate_name": "Quinoline, 2-(chloromethyl)-;2-(Chloromethyl)quinoline;α-Chloroquinaldine;NSC 158442",
    "duplicated_cas_no": "",
    "SMILES": "C(Cl)C1=NC2=C(C=C1)C=CC=C2",
    "meta_data": {
        "InChI": "InChI=1S/C10H8ClN/c11-7-9-6-5-8-3-1-2-4-10(8)12-9/h1-6H,7H2",
        "InChIKey": null,
        "Canonical SMILES": "ClCC1=NC=2C=CC=CC2C=C1",
        "Molecular Formula": "C<sub>10</sub>H<sub>8</sub>ClN",
        "Molecular Mass": "177.63",
        "Melting Point": "53.5-54.5 °C"
    }
}