{
    "cas_no": "37115-32-5",
    "key_name": "Adinazolam",
    "cn_name": null,
    "alternate_name": "4<em>H</em>-[1,2,4]Triazolo[4,3-<em>a</em>][1,4]benzodiazepine-1-methanamine, 8-chloro-<em>N</em>,<em>N</em>-dimethyl-6-phenyl-;8-Chloro-<em>N</em>,<em>N</em>-dimethyl-6-phenyl-4<em>H</em>-[1,2,4]triazolo[4,3-<em>a</em>][1,4]benzodiazepine-1-methanamine;Adinazolam;U 41123;1-(8-Chloro-6-phenyl-4<em>H</em>-[1,2,4]triazolo[4,3-<em>a</em>][1,4]benzodiazepin-1-yl)-<em>N</em>,<em>N</em>-dimethylmethanamine",
    "duplicated_cas_no": "53416-44-7",
    "SMILES": "C(N(C)C)C=1N2C=3C(C(=NCC2=NN1)C4=CC=CC=C4)=CC(Cl)=CC3",
    "meta_data": {
        "InChI": "InChI=1S/C19H18ClN5/c1-24(2)12-18-23-22-17-11-21-19(13-6-4-3-5-7-13)15-10-14(20)8-9-16(15)25(17)18/h3-10H,11-12H2,1-2H3",
        "InChIKey": null,
        "Canonical SMILES": "ClC=1C=CC2=C(C1)C(=NCC3=NN=C(N32)CN(C)C)C=4C=CC=CC4",
        "Molecular Formula": "C<sub>19</sub>H<sub>18</sub>ClN<sub>5</sub>",
        "Molecular Mass": "351.83",
        "Melting Point": "171-172.5 °C"
    }
}