{
    "cas_no": "575-89-3",
    "key_name": "2-(2,4,6-Trichlorophenoxy)acetic acid",
    "cn_name": "2,4,6-三氯苯氧基乙酸;",
    "alternate_name": "Acetic acid, 2-(2,4,6-trichlorophenoxy)-;Acetic acid, (2,4,6-trichlorophenoxy)-;2-(2,4,6-Trichlorophenoxy)acetic acid;2,4,6-T;(2,4,6-Trichlorophenoxy)acetic acid;NSC 61993",
    "duplicated_cas_no": "",
    "SMILES": "O(CC(O)=O)C1=C(Cl)C=C(Cl)C=C1Cl",
    "meta_data": {
        "InChI": "InChI=1S/C8H5Cl3O3/c9-4-1-5(10)8(6(11)2-4)14-3-7(12)13/h1-2H,3H2,(H,12,13)",
        "InChIKey": null,
        "Canonical SMILES": "O=C(O)COC=1C(Cl)=CC(Cl)=CC1Cl",
        "Molecular Formula": "C<sub>8</sub>H<sub>5</sub>Cl<sub>3</sub>O<sub>3</sub>",
        "Molecular Mass": "255.48",
        "Melting Point": "190 °C"
    }
}