{
    "cas_no": "6579-55-1",
    "key_name": "Ethanolisopropanolamine",
    "cn_name": null,
    "alternate_name": "2-Propanol, 1-[(2-hydroxyethyl)amino]-;1-[(2-Hydroxyethyl)amino]-2-propanol;Ethanolisopropanolamine;NSC 86953",
    "duplicated_cas_no": "84620-44-0",
    "SMILES": "C(NCCO)C(C)O",
    "meta_data": {
        "InChI": "InChI=1S/C5H13NO2/c1-5(8)4-6-2-3-7/h5-8H,2-4H2,1H3",
        "InChIKey": null,
        "Canonical SMILES": "OCCNCC(O)C",
        "Molecular Formula": "C<sub>5</sub>H<sub>13</sub>NO<sub>2</sub>",
        "Molecular Mass": "119.16",
        "Boiling Point": "163-166 °C @ Press: 35 Torr",
        "Density": "1.042 g/cm³ @ Temp: 25 °C"
    }
}