{
    "cas_no": "4265-27-4",
    "key_name": "2-Butylbenzofuran",
    "cn_name": "2-丁基苯并呋喃;2-正丁基苯并[b]呋喃;",
    "alternate_name": "Benzofuran, 2-butyl-;2-Butylbenzofuran;2-Butylbenzo[<em>b</em>]furan;2-Butyl-1-benzofuran;2-(<em>n</em>-Butyl)benzofuran",
    "duplicated_cas_no": "",
    "SMILES": "C(CCC)C1=CC=2C(O1)=CC=CC2",
    "meta_data": {
        "InChI": "InChI=1S/C12H14O/c1-2-3-7-11-9-10-6-4-5-8-12(10)13-11/h4-6,8-9H,2-3,7H2,1H3",
        "InChIKey": null,
        "Canonical SMILES": "O1C=2C=CC=CC2C=C1CCCC",
        "Molecular Formula": "C<sub>12</sub>H<sub>14</sub>O",
        "Molecular Mass": "174.24",
        "Boiling Point": "129 °C @ Press: 15 Torr"
    }
}