{
    "cas_no": "6950-92-1",
    "key_name": "2,4,6-Trimethylbenzeneethanol",
    "cn_name": "2-异亚丙基丙酮乙醇;",
    "alternate_name": "Benzeneethanol, 2,4,6-trimethyl-;Phenethyl alcohol, 2,4,6-trimethyl-;2,4,6-Trimethylbenzeneethanol;2-Mesitylethanol;NSC 65639;2-(2,4,6-Trimethylphenyl)ethanol;2-(2,4,6-Trimethylphenyl)ethan-1-ol;2-Mesitylethan-1-ol",
    "duplicated_cas_no": "",
    "SMILES": "C(CO)C1=C(C)C=C(C)C=C1C",
    "meta_data": {
        "InChI": "InChI=1S/C11H16O/c1-8-6-9(2)11(4-5-12)10(3)7-8/h6-7,12H,4-5H2,1-3H3",
        "InChIKey": null,
        "Canonical SMILES": "OCCC=1C(=CC(=CC1C)C)C",
        "Molecular Formula": "C<sub>11</sub>H<sub>16</sub>O",
        "Molecular Mass": "164.24",
        "Boiling Point": "141 °C @ Press: 14 Torr",
        "Melting Point": "79.0-81.4 °C"
    }
}