{
    "cas_no": "4593-81-1",
    "key_name": "Dibutyldichlorogermane",
    "cn_name": "二正丁基二氯化锗;",
    "alternate_name": "Germane, dibutyldichloro-;Dibutylgermanium dichloride;Dibutyldichlorogermane;Dichlorodibutylgermane;Di-<em>n</em>-butylgermanedichloride;Dibutyldichlorogermanium;NSC 166300",
    "duplicated_cas_no": "",
    "SMILES": "[Ge](CCCC)(CCCC)(Cl)Cl",
    "meta_data": {
        "InChI": "InChI=1S/C8H18Cl2Ge/c1-3-5-7-11(9,10)8-6-4-2/h3-8H2,1-2H3",
        "InChIKey": null,
        "Canonical SMILES": "Cl[Ge](Cl)(CCCC)CCCC",
        "Molecular Formula": "C<sub>8</sub>H<sub>18</sub>Cl<sub>2</sub>Ge",
        "Molecular Mass": "257.77",
        "Boiling Point": "242 °C",
        "Density": "1.208 g/cm³"
    }
}