{
    "cas_no": "24277-44-9",
    "key_name": "(<em>R</em>)-1-Phenylethyl isothiocyanate",
    "cn_name": null,
    "alternate_name": "Benzene, [(1<em>R</em>)-1-isothiocyanatoethyl]-;Isothiocyanic acid, α-methylbenzyl ester, (<em>R</em>)-(-)-;Benzene, (1-isothiocyanatoethyl)-, (<em>R</em>)-;[(1<em>R</em>)-1-Isothiocyanatoethyl]benzene;(<em>R</em>)-1-Phenylethyl isothiocyanate;(<em>R</em>)-α-Methylbenzyl isothiocyanate;(R)-(1-Isothiocyanatoethyl)benzene",
    "duplicated_cas_no": "",
    "SMILES": "[C@@H](N=C=S)(C)C1=CC=CC=C1",
    "meta_data": {
        "InChI": "InChI=1S/C9H9NS/c1-8(10-7-11)9-5-3-2-4-6-9/h2-6,8H,1H3/t8-/m1/s1",
        "InChIKey": null,
        "Canonical SMILES": "S=C=NC(C=1C=CC=CC1)C",
        "Molecular Formula": "C<sub>9</sub>H<sub>9</sub>NS",
        "Molecular Mass": "163.24",
        "Boiling Point": "121 °C @ Press: 10 Torr"
    }
}