{
    "cas_no": "4429-63-4",
    "key_name": "Tabersonine",
    "cn_name": "它波宁;",
    "alternate_name": "Aspidospermidine-3-carboxylic acid, 2,3,6,7-tetradehydro-, methyl ester, (5α,12<em>R</em>,19α)-;Tabersonine;Aspidospermidine-3-carboxylic acid, 2,3,6,7-tetradehydro-, methyl ester, (5α,12β,19α)-;1<em>H</em>-Indolizino[8,1-<em>cd</em>]carbazole-5-carboxylic acid, 3a-ethyl-3a,4,6,11,12,13a-hexahydro-, methyl ester;1<em>H</em>-Indolizino[8,1-<em>cd</em>]carbazole, aspidospermidine-3-carboxylic acid deriv.;(-)-Tabersonine;Tabersonin",
    "duplicated_cas_no": "6540-94-9;17794-57-9",
    "SMILES": "C(C)[C@@]12[C@]3([C@@]4(C(=C(C(OC)=O)C1)NC=5C4=CC=CC5)CCN3CC=C2)[H]",
    "meta_data": {
        "InChI": "InChI=1S/C21H24N2O2/c1-3-20-9-6-11-23-12-10-21(19(20)23)15-7-4-5-8-16(15)22-17(21)14(13-20)18(24)25-2/h4-9,19,22H,3,10-13H2,1-2H3/t19-,20-,21-/m0/s1",
        "InChIKey": null,
        "Canonical SMILES": "O=C(OC)C1=C2NC=3C=CC=CC3C24CCN5CC=CC(C1)(CC)C54",
        "Molecular Formula": "C<sub>21</sub>H<sub>24</sub>N<sub>2</sub>O<sub>2</sub>",
        "Molecular Mass": "336.43",
        "Melting Point": "196 °C"
    }
}