{
    "cas_no": "4743-82-2",
    "key_name": "4-Oxo-2-pentenoic acid",
    "cn_name": "3-乙酰基丙烯酸;",
    "alternate_name": "2-Pentenoic acid, 4-oxo-;4-Oxo-2-pentenoic acid;β-Acetylacrylic acid;Acetylacrylic acid;3-Acetylacrylic acid;β-Acetoacrylic acid;4-Oxopentenoic acid",
    "duplicated_cas_no": "",
    "SMILES": "C(=CC(O)=O)C(C)=O",
    "meta_data": {
        "InChI": "InChI=1S/C5H6O3/c1-4(6)2-3-5(7)8/h2-3H,1H3,(H,7,8)",
        "InChIKey": null,
        "Canonical SMILES": "O=C(O)C=CC(=O)C",
        "Molecular Formula": "C<sub>5</sub>H<sub>6</sub>O<sub>3</sub>",
        "Molecular Mass": "114.10",
        "Melting Point": "125-126 °C"
    }
}