{
    "cas_no": "61941-56-8",
    "key_name": "Amfenac sodium",
    "cn_name": null,
    "alternate_name": "Benzeneacetic acid, 2-amino-3-benzoyl-, sodium salt (1:1);Benzeneacetic acid, 2-amino-3-benzoyl-, monosodium salt;Sodium 2-amino-3-benzoylbenzeneacetate;Sodium (2-amino-3-benzoylphenyl)acetate;AHR 5850D;Amfenac sodium;AHR 5850;Phenazox",
    "duplicated_cas_no": "",
    "SMILES": "C(=O)(C1=C(N)C(CC(O)=O)=CC=C1)C2=CC=CC=C2.[Na]",
    "meta_data": {
        "InChI": "InChI=1S/C15H13NO3.Na/c16-14-11(9-13(17)18)7-4-8-12(14)15(19)10-5-2-1-3-6-10;/h1-8H,9,16H2,(H,17,18);",
        "InChIKey": null,
        "Canonical SMILES": "[Na].O=C(O)CC=1C=CC=C(C(=O)C=2C=CC=CC2)C1N",
        "Molecular Formula": "C<sub>15</sub>H<sub>13</sub>NO<sub>3</sub>.Na",
        "Molecular Mass": "",
        "Melting Point": "254-255.5 °C"
    }
}