{
    "cas_no": "85-60-9",
    "key_name": "4,4′-Butylidenebis(3-methyl-6-tert-butylphenol)",
    "cn_name": "4,4\"-亚丁基双(6-叔丁基-3-甲基苯酚);4,4\"-亚丁基双(6-叔丁基间甲酚);",
    "alternate_name": "Phenol, 4,4′-butylidenebis[2-(1,1-dimethylethyl)-5-methyl-;<em>m</em>-Cresol, 4,4′-butylidenebis[6-<em>tert</em>-butyl-;4,4′-Butylidenebis[2-(1,1-dimethylethyl)-5-methylphenol];1,1-Bis(2-methyl-4-hydroxy-5-<em>tert</em>-butylphenyl)butane;4,4′-Butylidenebis[6-<em>tert</em>-butyl-3-methylphenol];Santowhite Powder;4,4′-Butylidenebis[2-<em>tert</em>-butyl-5-methylphenol];1,1-Bis(2-methyl-5-<em>tert</em>-butyl-4-hydroxyphenyl)butane;4,4′-Butylidenebis[3-methyl-6-<em>tert</em>-butylphenol];1,1-Bis(5-<em>tert</em>-butyl-4-hydroxy-2-methylphenyl)butane;1,1-Bis(4-hydroxy-3-<em>tert</em>-butyl-6-methylphenyl)butane;4,4′-Butylidenebis[6-<em>tert</em>-butyl-<em>m</em>-cresol];Anullex PBA 15;SWP (antioxidant);1,1-Bis(3-<em>tert</em>-butyl-4-hydroxy-6-methylphenyl)butane;Sumilizer BBM;SWP;BBM;Santowhite;Noclizer NS 30;Yoshinox BB;Antage W 300;Sumilizer BBM-S;Annulex PBA 15;Nonflex BB;Vanox SWP;1,1-Bis(3-<em>tert</em>-butyl-6-methyl-4-hydroxyphenyl)butane;Santowhite AW 300;ADK Stab AO 40;BBM-S;Nocrac NS 30;Selosol G 969;Mark AO 40;Lowinox 44B25;DH 26;NSC 67485;Antioxidant BBM;4,4′-Butylidenebis(3-methyl-6-t-butylphenol);4,4′-Butylidenebis(3-methyl-6-tert-butylphenol);4,4′-Butylidenebis(6-tert-butyl-3-methylphenol);NS 30;W 300;Antioxidant W 300;Songnox 4425;ADK-AO 40;4,4′-Butylidene-bis-(2-tert-butyl-5-methyl-phenol);2-<em>tert</em>-Butyl-4-[1-(5-<em>tert</em>-butyl-4-hydroxy-2-methylphenyl)butyl]-5-methylphenol;TS 376;AO 40",
    "duplicated_cas_no": "60318-19-6;80693-10-3;87524-30-9;90651-43-7;99346-89-1;111214-55-2;153569-64-3;193362-53-7;210757-73-6;1883583-86-5",
    "SMILES": "C(CCC)(C1=CC(C(C)(C)C)=C(O)C=C1C)C2=CC(C(C)(C)C)=C(O)C=C2C",
    "meta_data": {
        "InChI": "InChI=1S/C26H38O2/c1-10-11-18(19-14-21(25(4,5)6)23(27)12-16(19)2)20-15-22(26(7,8)9)24(28)13-17(20)3/h12-15,18,27-28H,10-11H2,1-9H3",
        "InChIKey": null,
        "Canonical SMILES": "OC=1C=C(C(=CC1C(C)(C)C)C(C2=CC(=C(O)C=C2C)C(C)(C)C)CCC)C",
        "Molecular Formula": "C<sub>26</sub>H<sub>38</sub>O<sub>2</sub>",
        "Molecular Mass": "382.58",
        "Melting Point": "209 °C",
        "Density": "1.03 g/cm³ @ Temp: 25 °C"
    }
}