{
    "cas_no": "897-78-9",
    "key_name": "2,6-Dibenzylidenecyclohexanone",
    "cn_name": "2,6-二苯亚甲基环己酮;",
    "alternate_name": "Cyclohexanone, 2,6-bis(phenylmethylene)-;Cyclohexanone, 2,6-dibenzylidene-;2,6-Bis(phenylmethylene)cyclohexanone;2,6-Dibenzylidenecyclohexanone;2,6-Dibenzalcyclohexanone;NSC 2384;NSC 40618;2,6-Dibenzylidenecyclohexan-1-one;2,6-Bis(dibenzylidene)cyclohexanone",
    "duplicated_cas_no": "",
    "SMILES": "C(=C1C(=O)C(=CC2=CC=CC=C2)CCC1)C3=CC=CC=C3",
    "meta_data": {
        "InChI": "InChI=1S/C20H18O/c21-20-18(14-16-8-3-1-4-9-16)12-7-13-19(20)15-17-10-5-2-6-11-17/h1-6,8-11,14-15H,7,12-13H2",
        "InChIKey": null,
        "Canonical SMILES": "O=C1C(=CC=2C=CC=CC2)CCCC1=CC=3C=CC=CC3",
        "Molecular Formula": "C<sub>20</sub>H<sub>18</sub>O",
        "Molecular Mass": "274.36",
        "Boiling Point": "185-195 °C @ Press: 20 Torr",
        "Melting Point": "117.5 °C",
        "Density": "1.177 g/cm³"
    }
}