{
    "cas_no": "329-15-7",
    "key_name": "4-(Trifluoromethyl)benzoyl chloride",
    "cn_name": "4-三氟甲基苯甲酰氯;对三氟甲基苯甲酰氯;",
    "alternate_name": "Benzoyl chloride, 4-(trifluoromethyl)-;<em>p</em>-Toluoyl chloride, α,α,α-trifluoro-;4-(Trifluoromethyl)benzoyl chloride;<em>p</em>-Trifluoromethylbenzoic acid chloride;α,α,α-Trifluoro-<em>p</em>-toluoyl chloride;<em>p</em>-(Trifluoromethyl)benzoyl chloride;4-(Trifluoromethyl)-1-benzenecarbonyl chloride;NSC 88292;4-Trifluoromethylphenylcarbonyl chloride;4-(Trifluoromethyl)benzoic acid chloride;<em>p</em>-Trifluoromethylchloroformic acid",
    "duplicated_cas_no": "",
    "SMILES": "C(F)(F)(F)C1=CC=C(C(Cl)=O)C=C1",
    "meta_data": {
        "InChI": "InChI=1S/C8H4ClF3O/c9-7(13)5-1-3-6(4-2-5)8(10,11)12/h1-4H",
        "InChIKey": null,
        "Canonical SMILES": "O=C(Cl)C1=CC=C(C=C1)C(F)(F)F",
        "Molecular Formula": "C<sub>8</sub>H<sub>4</sub>ClF<sub>3</sub>O",
        "Molecular Mass": "208.57",
        "Boiling Point": "74-75 °C @ Press: 12 Torr",
        "Melting Point": "64-65 °C",
        "Density": "1.4035 g/cm³ @ Temp: 20 °C"
    }
}