{
    "cas_no": "1971007-88-1",
    "key_name": "<em>N</em>-[[1-(5-Fluoropentyl)-1<em>H</em>-indol-3-yl]carbonyl]-3-methyl-<span class=\"text-smallcaps\">L</span>-valine methyl ester",
    "cn_name": null,
    "alternate_name": "<span class=\"text-smallcaps\">L</span>-Valine, <em>N</em>-[[1-(5-fluoropentyl)-1<em>H</em>-indol-3-yl]carbonyl]-3-methyl-, methyl ester;<em>N</em>-[[1-(5-Fluoropentyl)-1<em>H</em>-indol-3-yl]carbonyl]-3-methyl-<span class=\"text-smallcaps\">L</span>-valine methyl ester",
    "duplicated_cas_no": "",
    "SMILES": "C(N[C@H](C(OC)=O)[C@](C)(C)C)(=O)C=1C=2C(N(CCCCCF)C1)=CC=CC2",
    "meta_data": {
        "InChI": "InChI=1S/C21H29FN2O3/c1-21(2,3)18(20(26)27-4)23-19(25)16-14-24(13-9-5-8-12-22)17-11-7-6-10-15(16)17/h6-7,10-11,14,18H,5,8-9,12-13H2,1-4H3,(H,23,25)/t18-/m1/s1",
        "InChIKey": null,
        "Canonical SMILES": "O=C(OC)C(NC(=O)C1=CN(C=2C=CC=CC12)CCCCCF)C(C)(C)C",
        "Molecular Formula": "C<sub>21</sub>H<sub>29</sub>FN<sub>2</sub>O<sub>3</sub>",
        "Molecular Mass": "376.46",
        "Melting Point": "82-84 °C"
    }
}