{
    "cas_no": "2314-97-8",
    "key_name": "Trifluoroiodomethane",
    "cn_name": "三氟碘甲烷;三氟甲基碘;",
    "alternate_name": "Methane, trifluoroiodo-;Trifluoroiodomethane;Iodotrifluoromethane;Perfluoromethyl iodide;Trifluoromethyl iodide;Freon 13I1;Monoiodotrifluoromethane;R 13I1",
    "duplicated_cas_no": "263005-66-9;1519044-54-2;2189727-17-9",
    "SMILES": "C(F)(F)(F)I",
    "meta_data": {
        "InChI": "InChI=1S/CF3I/c2-1(3,4)5",
        "InChIKey": null,
        "Canonical SMILES": "FC(F)(F)I",
        "Molecular Formula": "CF<sub>3</sub>I",
        "Molecular Mass": "195.91",
        "Boiling Point": "-22.5 °C"
    }
}