{
    "cas_no": "37566-40-8",
    "key_name": "5-Chloro-1,3,4-thiadiazol-2-amine",
    "cn_name": null,
    "alternate_name": "1,3,4-Thiadiazol-2-amine, 5-chloro-;5-Chloro-1,3,4-thiadiazol-2-amine;2-Amino-5-chloro-1,3,4-thiadiazole;NSC 231514",
    "duplicated_cas_no": "",
    "SMILES": "ClC=1SC(N)=NN1",
    "meta_data": {
        "InChI": "InChI=1S/C2H2ClN3S/c3-1-5-6-2(4)7-1/h(H2,4,6)",
        "InChIKey": null,
        "Canonical SMILES": "ClC1=NN=C(S1)N",
        "Molecular Formula": "C<sub>2</sub>H<sub>2</sub>ClN<sub>3</sub>S",
        "Molecular Mass": "135.58",
        "Melting Point": "192 °C (decomp)"
    }
}