{
    "cas_no": "8025-81-8",
    "key_name": "Spiramycin",
    "cn_name": null,
    "alternate_name": "Spiramycin;Foromacidin;Rovamycin;Provamycin;RP 5337;Espiramicin;Antibiotic 799;Selectomycin;Stomamycin;Sequamycin;NSC 55926;IL 5902;Rovamicina;Rovamycine;Spiramycins;MeSH ID: D015572",
    "duplicated_cas_no": "1394-00-9;78355-64-3",
    "SMILES": "",
    "meta_data": {
        "InChI": "",
        "InChIKey": null,
        "Canonical SMILES": "",
        "Molecular Formula": "Unspecified",
        "Molecular Mass": "",
        "Melting Point": "126-128 °C"
    }
}