{
    "uri": "substance/pt/8025818",
    "rn": "8025-81-8",
    "name": "Spiramycin",
    "images": [],
    "inchi": "",
    "inchiKey": "",
    "smile": "",
    "canonicalSmile": "",
    "molecularFormula": "Unspecified",
    "molecularMass": "",
    "experimentalProperties": [
        {
            "name": "Melting Point",
            "property": "126-128 °C",
            "sourceNumber": 1
        }
    ],
    "propertyCitations": [
        {
            "docUri": "document/pt/document/15610121",
            "sourceNumber": 1,
            "source": "Gaumann, Ernst; CH334468, 1959, CAplus"
        }
    ],
    "synonyms": [
        "Spiramycin",
        "Foromacidin",
        "Rovamycin",
        "Provamycin",
        "RP 5337",
        "Espiramicin",
        "Antibiotic 799",
        "Selectomycin",
        "Stomamycin",
        "Sequamycin",
        "NSC 55926",
        "IL 5902",
        "Rovamicina",
        "Rovamycine",
        "Spiramycins",
        "MeSH ID: D015572"
    ],
    "replacedRns": [
        "1394-00-9",
        "78355-64-3"
    ],
    "hasMolfile": false,
    "source": "https://commonchemistry.cas.org/detail?cas_rn=8025-81-8"
}