{
    "cas_no": "46917-07-1",
    "key_name": "Methacryloyloxyethyldimethylbenzylammonium chloride",
    "cn_name": null,
    "alternate_name": "Benzenemethanaminium, <em>N</em>,<em>N</em>-dimethyl-<em>N</em>-[2-[(2-methyl-1-oxo-2-propen-1-yl)oxy]ethyl]-, chloride (1:1);Benzenemethanaminium, <em>N</em>,<em>N</em>-dimethyl-<em>N</em>-[2-[(2-methyl-1-oxo-2-propenyl)oxy]ethyl]-, chloride;Benzyldimethyl-2-(methacryloyloxy)ethylammonium chloride;Madquat BZ 75;Benzyl(methacryloyloxyethyl)dimethylammonium chloride;DML 60;[2-(Methacryloyloxy)ethyl]dimethylbenzylammonium chloride;DMB 60;Methacryloyloxyethyldimethylbenzylammonium chloride;MADAMBQ;Methacryloyloxyethylbenzyldimethylammonium chloride;2-Methacryloxyethylbenzyldimethylammonium chloride;Methacryloxyethyldimethylbenzylammonium chloride;<em>N</em>,<em>N</em>-Dimethylaminoethyl methacrylate benzyl chloride",
    "duplicated_cas_no": "103471-19-8;125044-90-8;26841-39-4;34344-71-3;56662-97-6;63812-97-5;146186-40-5;286466-37-3",
    "SMILES": "C([N+](CCOC(C(C)=C)=O)(C)C)C1=CC=CC=C1.[Cl-]",
    "meta_data": {
        "InChI": "InChI=1S/C15H22NO2.ClH/c1-13(2)15(17)18-11-10-16(3,4)12-14-8-6-5-7-9-14;/h5-9H,1,10-12H2,2-4H3;1H/q+1;/p-1",
        "InChIKey": null,
        "Canonical SMILES": "[Cl-].O=C(OCC[N+](C)(C)CC=1C=CC=CC1)C(=C)C",
        "Molecular Formula": "C<sub>15</sub>H<sub>22</sub>NO<sub>2</sub>.Cl",
        "Molecular Mass": "",
        "Melting Point": "108-110 °C"
    }
}