{
    "cas_no": "15400-53-0",
    "key_name": "Ethyl 2-amino-1,4-dihydro-4-oxo-5-pyrimidinecarboxylate",
    "cn_name": "2-氨基-5-乙氧羰基-4-羟基嘧啶;2-氨基-5-乙氧羰基-4-羟基嘧啶;2-氨基-4-羟基嘧啶-5-羧酸乙酯;2-氨基-5-乙氧;",
    "alternate_name": "5-Pyrimidinecarboxylic acid, 2-amino-1,4-dihydro-4-oxo-, ethyl ester;5-Pyrimidinecarboxylic acid, 2-amino-4-hydroxy-, ethyl ester;Ethyl 2-amino-1,4-dihydro-4-oxo-5-pyrimidinecarboxylate;2-Amino-4-hydroxy-5-pyrimidine carbonic acid ethyl ester;2-Amino-4-hydroxypyrimidine-5-carboxylic acid ethyl ester;Ethyl 2-amino-6-oxo-1,6-dihydropyrimidine-5-carboxylate",
    "duplicated_cas_no": "",
    "SMILES": "C(OCC)(=O)C=1C(=O)NC(N)=NC1",
    "meta_data": {
        "InChI": "InChI=1S/C7H9N3O3/c1-2-13-6(12)4-3-9-7(8)10-5(4)11/h3H,2H2,1H3,(H3,8,9,10,11)",
        "InChIKey": null,
        "Canonical SMILES": "O=C(OCC)C1=CN=C(N)NC1=O",
        "Molecular Formula": "C<sub>7</sub>H<sub>9</sub>N<sub>3</sub>O<sub>3</sub>",
        "Molecular Mass": "183.16",
        "Melting Point": "285 °C"
    }
}