{
    "cas_no": "110-18-9",
    "key_name": "<em>N</em>,<em>N</em>,<em>N</em>′,<em>N</em>′-Tetramethylethylenediamine",
    "cn_name": "四甲基乙二胺;四甲基乙撑二胺;",
    "alternate_name": "1,2-Ethanediamine, <em>N</em><sup>1</sup>,<em>N</em><sup>1</sup>,<em>N</em><sup>2</sup>,<em>N</em><sup>2</sup>-tetramethyl-;Ethylenediamine, <em>N</em>,<em>N</em>,<em>N</em>′,<em>N</em>′-tetramethyl-;1,2-Ethanediamine, <em>N</em>,<em>N</em>,<em>N</em>′,<em>N</em>′-tetramethyl-;<em>N</em><sup>1</sup>,<em>N</em><sup>1</sup>,<em>N</em><sup>2</sup>,<em>N</em><sup>2</sup>-Tetramethyl-1,2-ethanediamine;<em>N</em>,<em>N</em>,<em>N</em>′,<em>N</em>′-Tetramethyl-1,2-diaminoethane;<em>N</em>,<em>N</em>,<em>N</em>′,<em>N</em>′-Tetramethyldiaminoethane;<em>N</em>,<em>N</em>,<em>N</em>′,<em>N</em>′-Tetramethylethylenediamine;1,2-Bis(dimethylamino)ethane;Dimethyl[2-(dimethylamino)ethyl]amine;TEMED;Propamine D;Tetrameen;2,5-Dimethyl-2,5-diazahexane;TMEDA;TMED;Toyocat TE;Kaolizer 11;MR;MR (amine);<em>N</em>,<em>N</em>,<em>N</em>′,<em>N</em>′-Tetramethyl-1,2-ethanediamine;(2-(Dimethylamino)ethyl)dimethylamine;Dabco TMEDA;<em>N</em>,<em>N</em>,<em>N</em>′,<em>N</em>′-Tetramethyl-1,2-ethylenediamine;PC CAT TMEDA;Addocat 6090;Tetramethyl ethylene diamine;RC 6090",
    "duplicated_cas_no": "1258795-32-2",
    "SMILES": "C(CN(C)C)N(C)C",
    "meta_data": {
        "InChI": "InChI=1S/C6H16N2/c1-7(2)5-6-8(3)4/h5-6H2,1-4H3",
        "InChIKey": null,
        "Canonical SMILES": "N(C)(C)CCN(C)C",
        "Molecular Formula": "C<sub>6</sub>H<sub>16</sub>N<sub>2</sub>",
        "Molecular Mass": "116.20",
        "Boiling Point": "121 °C",
        "Melting Point": "-55 °C",
        "Density": "0.7765 g/cm³ @ Temp: 20 °C"
    }
}