{
    "cas_no": "73367-80-3",
    "key_name": "12-Bromododecanoic acid",
    "cn_name": "12-溴十二烷酸;",
    "alternate_name": "Dodecanoic acid, 12-bromo-;12-Bromododecanoic acid;12-Bromolauric acid;ω-Bromododecanoic acid;NSC 660375",
    "duplicated_cas_no": "",
    "SMILES": "C(CCCCCCCCBr)CCC(O)=O",
    "meta_data": {
        "InChI": "InChI=1S/C12H23BrO2/c13-11-9-7-5-3-1-2-4-6-8-10-12(14)15/h1-11H2,(H,14,15)",
        "InChIKey": null,
        "Canonical SMILES": "O=C(O)CCCCCCCCCCCBr",
        "Molecular Formula": "C<sub>12</sub>H<sub>23</sub>BrO<sub>2</sub>",
        "Molecular Mass": "279.21",
        "Boiling Point": "140-143 °C @ Press: 20 Torr",
        "Melting Point": "53 °C"
    }
}