{
    "cas_no": "6483-50-7",
    "key_name": "1,4-Diethylpiperazine",
    "cn_name": "1,4-二乙基哌嗪;1,4-二乙基哌嗪;1,4-二乙基哌嗪,98%;",
    "alternate_name": "Piperazine, 1,4-diethyl-;1,4-Diethylpiperazine;<em>N</em>,<em>N</em>′-Diethylpiperazine",
    "duplicated_cas_no": "",
    "SMILES": "C(C)N1CCN(CC)CC1",
    "meta_data": {
        "InChI": "InChI=1S/C8H18N2/c1-3-9-5-7-10(4-2)8-6-9/h3-8H2,1-2H3",
        "InChIKey": null,
        "Canonical SMILES": "N1(CC)CCN(CC)CC1",
        "Molecular Formula": "C<sub>8</sub>H<sub>18</sub>N<sub>2</sub>",
        "Molecular Mass": "142.24",
        "Boiling Point": "172-176 °C @ Press: 760 Torr"
    }
}