{
    "cas_no": "191330-56-0",
    "key_name": "(3<em>R</em>,4<em>S</em>)-1-(4-Fluorophenyl)-3-[3-(4-fluorophenyl)-3-oxopropyl]-4-(4-hydroxyphenyl)azetidin-2-one",
    "cn_name": "(3R,4S)-1-(4-氟苯基)-3-[3-(4-氟苯基)-3-氧代丙基]-4-(4-羟基苯基)氮杂环丁烷-2-酮;",
    "alternate_name": "2-Azetidinone, 1-(4-fluorophenyl)-3-[3-(4-fluorophenyl)-3-oxopropyl]-4-(4-hydroxyphenyl)-, (3<em>R</em>,4<em>S</em>)-;2-Azetidinone, 1-(4-fluorophenyl)-3-[3-(4-fluorophenyl)-3-oxopropyl]-4-(4-hydroxyphenyl)-, (3<em>R</em>-<em>trans</em>)-;(3<em>R</em>,4<em>S</em>)-1-(4-Fluorophenyl)-3-[3-(4-fluorophenyl)-3-oxopropyl]-4-(4-hydroxyphenyl)-2-azetidinone;(3<em>R</em>,4<em>S</em>)-1-(4-Fluorophenyl)-3-[3-(4-fluorophenyl)-3-oxopropyl]-4-(4-hydroxyphenyl)azetidin-2-one",
    "duplicated_cas_no": "",
    "SMILES": "C(CC(=O)C1=CC=C(F)C=C1)[C@@H]2[C@H](N(C2=O)C3=CC=C(F)C=C3)C4=CC=C(O)C=C4",
    "meta_data": {
        "InChI": "InChI=1S/C24H19F2NO3/c25-17-5-1-15(2-6-17)22(29)14-13-21-23(16-3-11-20(28)12-4-16)27(24(21)30)19-9-7-18(26)8-10-19/h1-12,21,23,28H,13-14H2/t21-,23-/m1/s1",
        "InChIKey": null,
        "Canonical SMILES": "O=C(C1=CC=C(F)C=C1)CCC2C(=O)N(C3=CC=C(F)C=C3)C2C4=CC=C(O)C=C4",
        "Molecular Formula": "C<sub>24</sub>H<sub>19</sub>F<sub>2</sub>NO<sub>3</sub>",
        "Molecular Mass": "407.41",
        "Melting Point": "51-53 °C"
    }
}