{
    "cas_no": "627-82-7",
    "key_name": "Bis(2,3-dihydroxypropyl) ether",
    "cn_name": "甘油醚;二甘油;一缩二甘油;",
    "alternate_name": "1,2-Propanediol, 3,3′-oxybis-;1,2-Propanediol, 3,3′-oxydi-;3,3′-Oxybis[1,2-propanediol];α,α′-Diglycerol;4-Oxaheptane-1,2,6,7-tetrol;3,3′-Oxydi-1,2-propanediol;NSC 8689;Bis(2,3-dihydroxypropyl) ether;α,α-Diglycerol",
    "duplicated_cas_no": "18657-17-5;18654-77-8",
    "SMILES": "C(OCC(CO)O)C(CO)O",
    "meta_data": {
        "InChI": "InChI=1S/C6H14O5/c7-1-5(9)3-11-4-6(10)2-8/h5-10H,1-4H2",
        "InChIKey": null,
        "Canonical SMILES": "OCC(O)COCC(O)CO",
        "Molecular Formula": "C<sub>6</sub>H<sub>14</sub>O<sub>5</sub>",
        "Molecular Mass": "166.17",
        "Boiling Point": "210-215 °C @ Press: 15 Torr",
        "Melting Point": "319 °C",
        "Density": "1.2813 g/cm³ @ Temp: 20 °C"
    }
}