{
    "cas_no": "155-90-8",
    "key_name": "4-Methoxy-2-pyrimidinamine",
    "cn_name": "2-氨基-4-甲氧基嘧啶;",
    "alternate_name": "2-Pyrimidinamine, 4-methoxy-;Pyrimidine, 2-amino-4-methoxy-;4-Methoxy-2-pyrimidinamine;2-Amino-4-methoxypyrimidine;4-Methoxy-2-aminopyrimidine;NSC 25503;(4-Methoxypyrimidin-2-yl)amine",
    "duplicated_cas_no": "",
    "SMILES": "O(C)C1=NC(N)=NC=C1",
    "meta_data": {
        "InChI": "InChI=1S/C5H7N3O/c1-9-4-2-3-7-5(6)8-4/h2-3H,1H3,(H2,6,7,8)",
        "InChIKey": null,
        "Canonical SMILES": "N=1C=CC(=NC1N)OC",
        "Molecular Formula": "C<sub>5</sub>H<sub>7</sub>N<sub>3</sub>O",
        "Molecular Mass": "125.13",
        "Melting Point": "119-120 °C"
    }
}