{
    "cas_no": "62882-00-2",
    "key_name": "8-Methylisoquinoline",
    "cn_name": "8-甲基异喹啉;",
    "alternate_name": "Isoquinoline, 8-methyl-;8-Methylisoquinoline",
    "duplicated_cas_no": "",
    "SMILES": "CC=1C2=C(C=CC1)C=CN=C2",
    "meta_data": {
        "InChI": "InChI=1S/C10H9N/c1-8-3-2-4-9-5-6-11-7-10(8)9/h2-7H,1H3",
        "InChIKey": null,
        "Canonical SMILES": "N=1C=CC2=CC=CC(=C2C1)C",
        "Molecular Formula": "C<sub>10</sub>H<sub>9</sub>N",
        "Molecular Mass": "143.19",
        "Melting Point": "87-88 °C"
    }
}