{
    "cas_no": "371-15-3",
    "key_name": "4-Fluorophenyl methyl sulfide",
    "cn_name": "对氟茴香硫醚;4-氟茴香硫醚;",
    "alternate_name": "Benzene, 1-fluoro-4-(methylthio)-;Sulfide, <em>p</em>-fluorophenyl methyl;1-Fluoro-4-(methylthio)benzene;<em>p</em>-Fluorothioanisole;Methyl 4-fluorophenyl sulfide;<em>p</em>-Fluorophenyl methyl sulfide;4-Fluorophenyl methyl sulfide;4-Fluorothioanisole;Methyl <em>p</em>-fluorophenyl sulfide;4-Fluoro-1-methylsulfanylbenzene;4-Fluorophenyl methyl sulphide;1-Fluoro-4-(methylsulfanyl)benzene;1-(Methylthio)-4-fluorobenzene;1-Fluoro-4-methylsulfanylbenzene;(4-Fluorophenyl)(methyl)sulfane",
    "duplicated_cas_no": "",
    "SMILES": "S(C)C1=CC=C(F)C=C1",
    "meta_data": {
        "InChI": "InChI=1S/C7H7FS/c1-9-7-4-2-6(8)3-5-7/h2-5H,1H3",
        "InChIKey": null,
        "Canonical SMILES": "FC1=CC=C(SC)C=C1",
        "Molecular Formula": "C<sub>7</sub>H<sub>7</sub>FS",
        "Molecular Mass": "142.19",
        "Boiling Point": "74 °C @ Press: 10 Torr"
    }
}