{
    "cas_no": "874-43-1",
    "key_name": "5-Pyrimidinemethanamine, 4-amino-2-methyl-, hydrochloride (1:2)",
    "cn_name": null,
    "alternate_name": "5-Pyrimidinemethanamine, 4-amino-2-methyl-, hydrochloride (1:2);Pyrimidine, 4-amino-5-(aminomethyl)-2-methyl-, dihydrochloride;5-Pyrimidinemethanamine, 4-amino-2-methyl-, dihydrochloride;5-(Aminomethyl)-2-methylpyrimidin-4-amine dihydrochloride",
    "duplicated_cas_no": "",
    "SMILES": "C(N)C=1C(N)=NC(C)=NC1.Cl",
    "meta_data": {
        "InChI": "InChI=1S/C6H10N4.2ClH/c1-4-9-3-5(2-7)6(8)10-4;;/h3H,2,7H2,1H3,(H2,8,9,10);2*1H",
        "InChIKey": null,
        "Canonical SMILES": "Cl.N=1C=C(C(=NC1C)N)CN",
        "Molecular Formula": "C<sub>6</sub>H<sub>10</sub>N<sub>4</sub>.2ClH",
        "Molecular Mass": "",
        "Melting Point": "268-269 °C"
    }
}