{
    "cas_no": "20679-58-7",
    "key_name": "1,4-Bis(bromoacetoxy)-2-butene",
    "cn_name": "1,4-双(溴乙酮氧)-2-丁烯;2-丁烯-1,4-二醇双(溴乙酸)酯;BBAB;",
    "alternate_name": "Acetic acid, 2-bromo-, 1,1′-(2-butene-1,4-diyl) ester;Acetic acid, bromo-, 2-butenylene ester;Acetic acid, bromo-, 2-butene-1,4-diyl ester;2-Butene-1,4-diol, bis(bromoacetate);1,4-Bis(bromoacetoxy)-2-butene;Slimacide V 10;Fennosan F 50;Slimicide BBAB;Busan 1210;B 14;NSC 23989;BBAB;2-Butene-1,4-diyl bis(bromoacetate)",
    "duplicated_cas_no": "",
    "SMILES": "C(OCC=CCOC(CBr)=O)(CBr)=O",
    "meta_data": {
        "InChI": "InChI=1S/C8H10Br2O4/c9-5-7(11)13-3-1-2-4-14-8(12)6-10/h1-2H,3-6H2",
        "InChIKey": null,
        "Canonical SMILES": "O=C(OCC=CCOC(=O)CBr)CBr",
        "Molecular Formula": "C<sub>8</sub>H<sub>10</sub>Br<sub>2</sub>O<sub>4</sub>",
        "Molecular Mass": "329.97",
        "Boiling Point": "135-136 °C @ Press: 5 x 10<sup>-3</sup> Torr"
    }
}