{
    "cas_no": "765-50-4",
    "key_name": "2-(Chloromethyl)thiophene",
    "cn_name": "2-氯甲基噻吩;",
    "alternate_name": "Thiophene, 2-(chloromethyl)-;2-(Chloromethyl)thiophene;Thenyl chloride;2-Thenyl chloride;2-Thienylmethyl chloride;2-Thiophenemethyl chloride",
    "duplicated_cas_no": "",
    "SMILES": "C(Cl)C1=CC=CS1",
    "meta_data": {
        "InChI": "InChI=1S/C5H5ClS/c6-4-5-2-1-3-7-5/h1-3H,4H2",
        "InChIKey": null,
        "Canonical SMILES": "ClCC=1SC=CC1",
        "Molecular Formula": "C<sub>5</sub>H<sub>5</sub>ClS",
        "Molecular Mass": "132.61",
        "Boiling Point": "80-81 °C @ Press: 18 Torr"
    }
}