{
    "cas_no": "114873-05-1",
    "key_name": "<em>N</em>-[(1,1-Dimethylethoxy)carbonyl]-2-methyl-<span class=\"text-smallcaps\">L</span>-phenylalanine",
    "cn_name": "BOC-L-2-甲基苯丙氨酸;N-叔丁氧羰基-L-2-甲基苯丙氨酸;",
    "alternate_name": "<span class=\"text-smallcaps\">L</span>-Phenylalanine, <em>N</em>-[(1,1-dimethylethoxy)carbonyl]-2-methyl-;<em>N</em>-[(1,1-Dimethylethoxy)carbonyl]-2-methyl-<span class=\"text-smallcaps\">L</span>-phenylalanine;(2<em>S</em>)-2-[(<em>tert</em>-Butoxycarbonyl)amino]-3-(2-methylphenyl)propionic acid;(<em>S</em>)-2-(<em>tert</em>-Butoxycarbonylamino)-3-<em>o</em>-tolylpropanoic acid",
    "duplicated_cas_no": "",
    "SMILES": "C([C@H](NC(OC(C)(C)C)=O)C(O)=O)C1=C(C)C=CC=C1",
    "meta_data": {
        "InChI": "InChI=1S/C15H21NO4/c1-10-7-5-6-8-11(10)9-12(13(17)18)16-14(19)20-15(2,3)4/h5-8,12H,9H2,1-4H3,(H,16,19)(H,17,18)/t12-/m0/s1",
        "InChIKey": null,
        "Canonical SMILES": "O=C(OC(C)(C)C)NC(C(=O)O)CC=1C=CC=CC1C",
        "Molecular Formula": "C<sub>15</sub>H<sub>21</sub>NO<sub>4</sub>",
        "Molecular Mass": "279.33",
        "Melting Point": "118-119 °C"
    }
}