{
    "cas_no": "31477-60-8",
    "key_name": "Ormeloxifene",
    "cn_name": null,
    "alternate_name": "Pyrrolidine, 1-[2-[4-[(3<em>R</em>,4<em>R</em>)-3,4-dihydro-7-methoxy-2,2-dimethyl-3-phenyl-2<em>H</em>-1-benzopyran-4-yl]phenoxy]ethyl]-, <em>rel</em>-;Pyrrolidine, 1-[2-[<em>p</em>-(7-methoxy-2,2-dimethyl-3-phenyl-4-chromanyl)phenoxy]ethyl]-, <em>trans</em>-;Pyrrolidine, 1-[2-[4-(3,4-dihydro-7-methoxy-2,2-dimethyl-3-phenyl-2<em>H</em>-1-benzopyran-4-yl)phenoxy]ethyl]-, <em>trans</em>-;<em>rel</em>-1-[2-[4-[(3<em>R</em>,4<em>R</em>)-3,4-Dihydro-7-methoxy-2,2-dimethyl-3-phenyl-2<em>H</em>-1-benzopyran-4-yl]phenoxy]ethyl]pyrrolidine;3,4-<em>trans</em>-2,2-Dimethyl-3-phenyl-4-[<em>p</em>-(β-pyrrolidinoethoxy)phenyl]-7-methoxychroman;Centchroman;67/20;1-[2-[<em>p</em>-(<em>trans</em>-7-Methoxy-2,2-dimethyl-3-phenyl-4-chromanyl)phenoxy]ethyl]pyrrolidine;<em>trans</em>-Centchroman;Ormeloxifene;Sevista;Centron;Novex-DS;Saheli",
    "duplicated_cas_no": "78994-24-8",
    "SMILES": "CC1(C)[C@@H]([C@H](C=2C(O1)=CC(OC)=CC2)C3=CC=C(OCCN4CCCC4)C=C3)C5=CC=CC=C5",
    "meta_data": {
        "InChI": "InChI=1/C30H35NO3/c1-30(2)29(23-9-5-4-6-10-23)28(26-16-15-25(32-3)21-27(26)34-30)22-11-13-24(14-12-22)33-20-19-31-17-7-8-18-31/h4-6,9-16,21,28-29H,7-8,17-20H2,1-3H3/t28-,29+/s2",
        "InChIKey": null,
        "Canonical SMILES": "O(C1=CC=C2C(OC(C)(C)C(C=3C=CC=CC3)C2C4=CC=C(OCCN5CCCC5)C=C4)=C1)C",
        "Molecular Formula": "C<sub>30</sub>H<sub>35</sub>NO<sub>3</sub>",
        "Molecular Mass": "457.60",
        "Melting Point": "99-101 °C"
    }
}