{
    "cas_no": "6802-75-1",
    "key_name": "1,3-Diethyl 2-(1-methylethylidene)propanedioate",
    "cn_name": "亚异丙基丙二酸二乙酯;",
    "alternate_name": "Propanedioic acid, 2-(1-methylethylidene)-, 1,3-diethyl ester;Malonic acid, isopropylidene-, diethyl ester;Propanedioic acid, (1-methylethylidene)-, diethyl ester;1,3-Diethyl 2-(1-methylethylidene)propanedioate;Diethyl isopropylidenemalonate;Diethyl 2-(1-methylethylidene)propanedioate;NSC 127864;NSC 408244;Diethyl 2-(1-methylethylidene)malonate;Diethyl 2-isopropylidenemalonate;1,3-Diethyl 2-(propan-2-ylidene)propanedioate;Diethyl 2-(propan-2-ylidene)malonate",
    "duplicated_cas_no": "",
    "SMILES": "C(C(OCC)=O)(C(OCC)=O)=C(C)C",
    "meta_data": {
        "InChI": "InChI=1S/C10H16O4/c1-5-13-9(11)8(7(3)4)10(12)14-6-2/h5-6H2,1-4H3",
        "InChIKey": null,
        "Canonical SMILES": "O=C(OCC)C(C(=O)OCC)=C(C)C",
        "Molecular Formula": "C<sub>10</sub>H<sub>16</sub>O<sub>4</sub>",
        "Molecular Mass": "200.23",
        "Boiling Point": "176.5 °C",
        "Melting Point": "93-94 °C",
        "Density": "1.0254 g/cm³ @ Temp: 25 °C"
    }
}