{
    "cas_no": "27314-97-2",
    "key_name": "Tirapazamine",
    "cn_name": null,
    "alternate_name": "1,2,4-Benzotriazin-3-amine, 1,4-dioxide;1,2,4-Benzotriazine, 3-amino-, 1,4-dioxide;3-Amino-1,2,4-benzotriazine 1,4-dioxide;SR 4233;Tirapazamine;Win 59075;Tirazone;SR 259075;SML 0552;SR259075",
    "duplicated_cas_no": "",
    "SMILES": "O=N=1C2=C(N(=O)=NC1N)C=CC=C2",
    "meta_data": {
        "InChI": "InChI=1S/C7H6N4O2/c8-7-9-11(13)6-4-2-1-3-5(6)10(7)12/h1-4H,(H2,8,9)",
        "InChIKey": null,
        "Canonical SMILES": "O=N1=NC(N)=N(=O)C=2C=CC=CC21",
        "Molecular Formula": "C<sub>7</sub>H<sub>6</sub>N<sub>4</sub>O<sub>2</sub>",
        "Molecular Mass": "178.15",
        "Melting Point": "222-224 °C"
    }
}