{
    "cas_no": "3131-63-3",
    "key_name": "2-Ethylbenzofuran",
    "cn_name": "2-乙基苯并呋喃;",
    "alternate_name": "Benzofuran, 2-ethyl-;2-Ethylbenzofuran;2-Ethylbenzo[<em>b</em>]furan;2-Ethyl-1-benzofuran",
    "duplicated_cas_no": "",
    "SMILES": "C(C)C1=CC=2C(O1)=CC=CC2",
    "meta_data": {
        "InChI": "InChI=1S/C10H10O/c1-2-9-7-8-5-3-4-6-10(8)11-9/h3-7H,2H2,1H3",
        "InChIKey": null,
        "Canonical SMILES": "O1C=2C=CC=CC2C=C1CC",
        "Molecular Formula": "C<sub>10</sub>H<sub>10</sub>O",
        "Molecular Mass": "146.19",
        "Boiling Point": "217-218 °C @ Press: 742 Torr"
    }
}