{
    "cas_no": "7377-08-4",
    "key_name": "<em>N</em>-(4-Aminobenzoyl)-β-alanine",
    "cn_name": "对氨基苯甲酰-beta-丙氨酸;",
    "alternate_name": "β-Alanine, <em>N</em>-(4-aminobenzoyl)-;β-Alanine, <em>N</em>-(<em>p</em>-aminobenzoyl)-;<em>N</em>-(4-Aminobenzoyl)-β-alanine;<em>p</em>-Amino-<em>N</em>-benzoyl-β-alanine;3-(4-Aminobenzoylamino)propionic acid;3-[(4-Aminobenzoyl)amino]propanoic acid;3-[(4-Aminophenyl)formamido]propanoic acid",
    "duplicated_cas_no": "",
    "SMILES": "C(NCCC(O)=O)(=O)C1=CC=C(N)C=C1",
    "meta_data": {
        "InChI": "InChI=1S/C10H12N2O3/c11-8-3-1-7(2-4-8)10(15)12-6-5-9(13)14/h1-4H,5-6,11H2,(H,12,15)(H,13,14)",
        "InChIKey": null,
        "Canonical SMILES": "O=C(O)CCNC(=O)C1=CC=C(N)C=C1",
        "Molecular Formula": "C<sub>10</sub>H<sub>12</sub>N<sub>2</sub>O<sub>3</sub>",
        "Molecular Mass": "208.21",
        "Melting Point": "148-149 °C"
    }
}