{
    "cas_no": "19716-61-1",
    "key_name": "8-Oxocoptisine",
    "cn_name": null,
    "alternate_name": "4<em>H</em>-Bis[1,3]benzodioxolo[5,6-<em>a</em>:4′,5′-<em>g</em>]quinolizin-4-one, 6,7-dihydro-;6,7-Dihydro-4<em>H</em>-bis[1,3]benzodioxolo[5,6-<em>a</em>:4′,5′-<em>g</em>]quinolizin-4-one;8-Oxocoptisine;8-Oxycoptisine;2,3,9,10-Dimethylenedioxy-8-oxoprotoberberine",
    "duplicated_cas_no": "",
    "SMILES": "O=C1N2C(C=3C(=CC4=C(C3)OCO4)CC2)=CC=5C1=C6C(=CC5)OCO6",
    "meta_data": {
        "InChI": "InChI=1S/C19H13NO5/c21-19-17-11(1-2-14-18(17)25-9-22-14)5-13-12-7-16-15(23-8-24-16)6-10(12)3-4-20(13)19/h1-2,5-7H,3-4,8-9H2",
        "InChIKey": null,
        "Canonical SMILES": "O=C1C=2C=3OCOC3C=CC2C=C4C5=CC=6OCOC6C=C5CCN14",
        "Molecular Formula": "C<sub>19</sub>H<sub>13</sub>NO<sub>5</sub>",
        "Molecular Mass": "335.31",
        "Melting Point": "283-285 °C"
    }
}