{
    "cas_no": "21124-33-4",
    "key_name": "Ammonium diethyldithiocarbamate",
    "cn_name": "二乙基二硫甲胺酸氨;",
    "alternate_name": "Carbamodithioic acid, <em>N</em>,<em>N</em>-diethyl-, ammonium salt (1:1);Carbamic acid, diethyldithio-, ammonium salt;Carbamodithioic acid, diethyl-, ammonium salt;Diethyldithiocarbamic acid ammonium salt;Ammonium diethyldithiocarbamate;Ammonium <em>N</em>,<em>N</em>-diethyldithiocarbamate",
    "duplicated_cas_no": "",
    "SMILES": "N(C(=S)S)(CC)CC.N",
    "meta_data": {
        "InChI": "InChI=1S/C5H11NS2.H3N/c1-3-6(4-2)5(7)8;/h3-4H2,1-2H3,(H,7,8);1H3",
        "InChIKey": null,
        "Canonical SMILES": "S=C(S)N(CC)CC.N",
        "Molecular Formula": "C<sub>5</sub>H<sub>11</sub>NS<sub>2</sub>.H<sub>3</sub>N",
        "Molecular Mass": "",
        "Melting Point": "62-64 °C"
    }
}