{
    "cas_no": "77472-71-0",
    "key_name": "1-Pyrrolidineacetic acid, 2-oxo-4-phenyl-, hydrazide",
    "cn_name": null,
    "alternate_name": "1-Pyrrolidineacetic acid, 2-oxo-4-phenyl-, hydrazide;2-Oxo-4-phenylpyrrolidine-1-acetic acid hydrazide",
    "duplicated_cas_no": "",
    "SMILES": "C(C(NN)=O)N1CC(CC1=O)C2=CC=CC=C2",
    "meta_data": {
        "InChI": "InChI=1S/C12H15N3O2/c13-14-11(16)8-15-7-10(6-12(15)17)9-4-2-1-3-5-9/h1-5,10H,6-8,13H2,(H,14,16)",
        "InChIKey": null,
        "Canonical SMILES": "O=C(NN)CN1C(=O)CC(C=2C=CC=CC2)C1",
        "Molecular Formula": "C<sub>12</sub>H<sub>15</sub>N<sub>3</sub>O<sub>2</sub>",
        "Molecular Mass": "233.27",
        "Melting Point": "154-155 °C"
    }
}