{
    "cas_no": "2492-26-4",
    "key_name": "2-Mercaptobenzothiazole sodium salt",
    "cn_name": "巯基苯并噻唑钠;2-硫醇基苯并噻唑钠盐;苯并噻唑-2-基硫化钠;",
    "alternate_name": "2(3<em>H</em>)-Benzothiazolethione, sodium salt (1:1);2(3<em>H</em>)-Benzothiazolethione, sodium salt;Sodium, (2-benzothiazolylthio)-;Benzothiazole, 2-mercapto-, sodium deriv.;Duodex;2-Mercaptobenzothiazole sodium salt;Sodium 2-mercaptobenzothiazole;Sodium 2-benzothiazolethiolate;Nacap;Sodium 2-benzothiazolethioate;Sodium 2-mercaptobenzothiazolate;2-Benzothiazolethiol sodium salt;Sodium MBT;Sanbit N-G;Sodium 2-benzothiazolylthiolate;Norust GL 50;Sodium 2(3<em>H</em>)-benzothiazolethione;1,3-Benzothiazol-2-ylsulfanylsodium;Sodium 2-mercaptobenzothiolate",
    "duplicated_cas_no": "26249-01-4;106691-70-7;1208900-17-7;1357581-00-0",
    "SMILES": "S=C1NC=2C(S1)=CC=CC2.[Na]",
    "meta_data": {
        "InChI": "InChI=1S/C7H5NS2.Na/c9-7-8-5-3-1-2-4-6(5)10-7;/h1-4H,(H,8,9);",
        "InChIKey": null,
        "Canonical SMILES": "[Na].S=C1SC=2C=CC=CC2N1",
        "Molecular Formula": "C<sub>7</sub>H<sub>5</sub>NS<sub>2</sub>.Na",
        "Molecular Mass": "",
        "Melting Point": "&gt;300 °C"
    }
}