{
    "cas_no": "280773-17-3",
    "key_name": "2-Amino-<em>N</em>-(5-chloro-2-pyridinyl)-5-methoxybenzamide",
    "cn_name": null,
    "alternate_name": "Benzamide, 2-amino-<em>N</em>-(5-chloro-2-pyridinyl)-5-methoxy-;2-Amino-<em>N</em>-(5-chloro-2-pyridinyl)-5-methoxybenzamide",
    "duplicated_cas_no": "",
    "SMILES": "C(NC1=CC=C(Cl)C=N1)(=O)C2=CC(OC)=CC=C2N",
    "meta_data": {
        "InChI": "InChI=1S/C13H12ClN3O2/c1-19-9-3-4-11(15)10(6-9)13(18)17-12-5-2-8(14)7-16-12/h2-7H,15H2,1H3,(H,16,17,18)",
        "InChIKey": null,
        "Canonical SMILES": "O=C(NC1=NC=C(Cl)C=C1)C2=CC(OC)=CC=C2N",
        "Molecular Formula": "C<sub>13</sub>H<sub>12</sub>ClN<sub>3</sub>O<sub>2</sub>",
        "Molecular Mass": "277.71",
        "Melting Point": "69-71 °C"
    }
}