{
    "cas_no": "68252-19-7",
    "key_name": "Pirmenol",
    "cn_name": null,
    "alternate_name": "2-Pyridinemethanol, α-[3-[(2<em>R</em>,6<em>S</em>)-2,6-dimethyl-1-piperidinyl]propyl]-α-phenyl-, <em>rel</em>-;2-Pyridinemethanol, α-[3-(2,6-dimethyl-1-piperidinyl)propyl]-α-phenyl-, <em>cis</em>-(±)-;<em>rel</em>-α-[3-[(2<em>R</em>,6<em>S</em>)-2,6-Dimethyl-1-piperidinyl]propyl]-α-phenyl-2-pyridinemethanol;Pirmenol;(±)-Pirmenol;2-Pyridinemethanol, α-[3-(2,6-dimethyl-1-piperidinyl)propyl]-α-phenyl-, <em>cis</em>-",
    "duplicated_cas_no": "82719-44-6",
    "SMILES": "C(CCCN1[C@H](C)CCC[C@@H]1C)(O)(C2=CC=CC=C2)C3=CC=CC=N3",
    "meta_data": {
        "InChI": "InChI=1/C22H30N2O/c1-18-10-8-11-19(2)24(18)17-9-15-22(25,20-12-4-3-5-13-20)21-14-6-7-16-23-21/h3-7,12-14,16,18-19,25H,8-11,15,17H2,1-2H3/t18-,19+,22?",
        "InChIKey": null,
        "Canonical SMILES": "OC(C1=NC=CC=C1)(C=2C=CC=CC2)CCCN3C(C)CCCC3C",
        "Molecular Formula": "C<sub>22</sub>H<sub>30</sub>N<sub>2</sub>O",
        "Molecular Mass": "338.49",
        "Melting Point": "70-71 °C"
    }
}