{
    "cas_no": "3003-84-7",
    "key_name": "2-(Chloromethyl)tetrahydrofuran",
    "cn_name": "2-氯甲基四氢呋喃;2-(氯甲基)四氢呋喃;氯化氢糠;",
    "alternate_name": "Furan, 2-(chloromethyl)tetrahydro-;2-(Chloromethyl)tetrahydrofuran;Tetrahydrofurfuryl chloride;2-(Chloromethyl)oxolane;NSC 2874",
    "duplicated_cas_no": "154533-73-0",
    "SMILES": "C(Cl)C1CCCO1",
    "meta_data": {
        "InChI": "InChI=1S/C5H9ClO/c6-4-5-2-1-3-7-5/h5H,1-4H2",
        "InChIKey": null,
        "Canonical SMILES": "ClCC1OCCC1",
        "Molecular Formula": "C<sub>5</sub>H<sub>9</sub>ClO",
        "Molecular Mass": "120.58",
        "Boiling Point": "150-151 °C",
        "Density": "1.110 g/cm³ @ Temp: 25 °C"
    }
}