{
    "cas_no": "2161-40-2",
    "key_name": "2-Methoxy-2,4,6-cycloheptatrien-1-one",
    "cn_name": null,
    "alternate_name": "2,4,6-Cycloheptatrien-1-one, 2-methoxy-;2-Methoxy-2,4,6-cycloheptatrien-1-one;2-Methoxytropone;2-<em>C</em>-Methoxytropone;2-Methoxycycloheptatrienone;α-Tropolone methyl ether;α-Methoxytropone;Tropolone methyl ether;2-Methoxy-2,4,6-cycloheptatrienone;YMN 27;2-Methoxytropolone",
    "duplicated_cas_no": "",
    "SMILES": "O(C)C=1C(=O)C=CC=CC1",
    "meta_data": {
        "InChI": "InChI=1S/C8H8O2/c1-10-8-6-4-2-3-5-7(8)9/h2-6H,1H3",
        "InChIKey": null,
        "Canonical SMILES": "O=C1C=CC=CC=C1OC",
        "Molecular Formula": "C<sub>8</sub>H<sub>8</sub>O<sub>2</sub>",
        "Molecular Mass": "136.15",
        "Boiling Point": "135-137 °C @ Press: 4 Torr",
        "Melting Point": "76 °C"
    }
}