{
    "cas_no": "33240-96-9",
    "key_name": "Benzenamine, 3-nitro-, hydrochloride (1:1)",
    "cn_name": "3-硝基苯胺盐酸盐;",
    "alternate_name": "Benzenamine, 3-nitro-, hydrochloride (1:1);Benzenamine, 3-nitro-, monohydrochloride;Aniline, <em>m</em>-nitro-, monohydrochloride;<em>m</em>-Nitroaniline monohydrochloride;3-Nitroaniline hydrochloride;<em>m</em>-Nitroaniline hydrochloride;<em>m</em>-Nitrobenzylammonium chloride",
    "duplicated_cas_no": "",
    "SMILES": "N(=O)(=O)C1=CC(N)=CC=C1.Cl",
    "meta_data": {
        "InChI": "InChI=1S/C6H6N2O2.ClH/c7-5-2-1-3-6(4-5)8(9)10;/h1-4H,7H2;1H",
        "InChIKey": null,
        "Canonical SMILES": "Cl.O=N(=O)C=1C=CC=C(N)C1",
        "Molecular Formula": "C<sub>6</sub>H<sub>6</sub>N<sub>2</sub>O<sub>2</sub>.ClH",
        "Molecular Mass": "",
        "Melting Point": "225-227 °C"
    }
}