{
    "cas_no": "97944-44-0",
    "key_name": "5-Chloro-2-methyl-4-pyridinamine",
    "cn_name": null,
    "alternate_name": "4-Pyridinamine, 5-chloro-2-methyl-;5-Chloro-2-methyl-4-pyridinamine;3-Chloro-6-methyl-4-pyridinamine;5-Chloro-2-methylpyridin-4-amine",
    "duplicated_cas_no": "",
    "SMILES": "NC=1C(Cl)=CN=C(C)C1",
    "meta_data": {
        "InChI": "InChI=1S/C6H7ClN2/c1-4-2-6(8)5(7)3-9-4/h2-3H,1H3,(H2,8,9)",
        "InChIKey": null,
        "Canonical SMILES": "ClC1=CN=C(C=C1N)C",
        "Molecular Formula": "C<sub>6</sub>H<sub>7</sub>ClN<sub>2</sub>",
        "Molecular Mass": "142.59",
        "Melting Point": "98.0 °C"
    }
}