{
    "cas_no": "459-47-2",
    "key_name": "1-Ethyl-4-fluorobenzene",
    "cn_name": "1-乙基-4-氟苯;",
    "alternate_name": "Benzene, 1-ethyl-4-fluoro-;1-Ethyl-4-fluorobenzene;<em>p</em>-Fluoroethylbenzene;4-Fluoroethylbenzene;4-Ethylfluorobenzene;1-Fluoro-4-ethylbenzene",
    "duplicated_cas_no": "",
    "SMILES": "C(C)C1=CC=C(F)C=C1",
    "meta_data": {
        "InChI": "InChI=1S/C8H9F/c1-2-7-3-5-8(9)6-4-7/h3-6H,2H2,1H3",
        "InChIKey": null,
        "Canonical SMILES": "FC1=CC=C(C=C1)CC",
        "Molecular Formula": "C<sub>8</sub>H<sub>9</sub>F",
        "Molecular Mass": "124.16",
        "Boiling Point": "141 °C",
        "Density": "0.994 g/cm³ @ Temp: 0 °C"
    }
}