{
    "cas_no": "959-66-0",
    "key_name": "β-Oxo-<em>N</em>-phenylbenzenepropanamide",
    "cn_name": "2-苯甲酰乙酰苯胺;",
    "alternate_name": "Benzenepropanamide, β-oxo-<em>N</em>-phenyl-;Acetanilide, 2-benzoyl-;β-Oxo-<em>N</em>-phenylbenzenepropanamide;2-Benzoylacetanilide;<em>N</em>-Phenylbenzoylacetamide;NSC 210265;3-Oxo-<em>N</em>,3-diphenylpropanamide",
    "duplicated_cas_no": "",
    "SMILES": "N(C(CC(=O)C1=CC=CC=C1)=O)C2=CC=CC=C2",
    "meta_data": {
        "InChI": "InChI=1S/C15H13NO2/c17-14(12-7-3-1-4-8-12)11-15(18)16-13-9-5-2-6-10-13/h1-10H,11H2,(H,16,18)",
        "InChIKey": null,
        "Canonical SMILES": "O=C(NC=1C=CC=CC1)CC(=O)C=2C=CC=CC2",
        "Molecular Formula": "C<sub>15</sub>H<sub>13</sub>NO<sub>2</sub>",
        "Molecular Mass": "239.27",
        "Melting Point": "108-110 °C"
    }
}