{
    "cas_no": "2295-31-0",
    "key_name": "Thiazolidinedione",
    "cn_name": "2,4-噻唑烷二酮;",
    "alternate_name": "2,4-Thiazolidinedione;Thiazolidinedione;2-Thiazolin-4-one, 2-hydroxy-;2,4-Dioxothiazolidine;2,4(3<em>H</em>,5<em>H</em>)-Thiazoledione;U 25560;NSC 6745;Thiazole-2,4-dione;2,4-Dioxo-1,3-thiazolidine;Thiazolidin-2,4-dione;2-Hydroxy-4,5-dihydro-1,3-thiazol-4-one",
    "duplicated_cas_no": "",
    "SMILES": "O=C1NC(=O)SC1",
    "meta_data": {
        "InChI": "InChI=1S/C3H3NO2S/c5-2-1-7-3(6)4-2/h1H2,(H,4,5,6)",
        "InChIKey": null,
        "Canonical SMILES": "O=C1SCC(=O)N1",
        "Molecular Formula": "C<sub>3</sub>H<sub>3</sub>NO<sub>2</sub>S",
        "Molecular Mass": "117.13",
        "Melting Point": "128 °C"
    }
}