{
    "cas_no": "930-35-8",
    "key_name": "1,3-Dithiole-2-thione",
    "cn_name": null,
    "alternate_name": "1,3-Dithiole-2-thione;Carbonic acid, trithio-, cyclic vinylene ester;1,2-Ethenedithiol, cyclic trithiocarbonate;Isotrithione;1,3-Dithiolethione;DT 827A;Vinylene trithiocarbonate;Dithiolene;2<em>H</em>-1,3-Dithiole-2-thione",
    "duplicated_cas_no": "",
    "SMILES": "S=C1SC=CS1",
    "meta_data": {
        "InChI": "InChI=1S/C3H2S3/c4-3-5-1-2-6-3/h1-2H",
        "InChIKey": null,
        "Canonical SMILES": "S=C1SC=CS1",
        "Molecular Formula": "C<sub>3</sub>H<sub>2</sub>S<sub>3</sub>",
        "Molecular Mass": "134.24",
        "Boiling Point": "122-126 °C @ Press: 0.5 Torr",
        "Melting Point": "49.3-50.8 °C"
    }
}