{
    "cas_no": "20190-03-8",
    "key_name": "Carbamic acid, <em>N</em>-cyclohexyl-, compd. with cyclohexanamine (1:1)",
    "cn_name": "碳酸环己胺;",
    "alternate_name": "Carbamic acid, <em>N</em>-cyclohexyl-, compd. with cyclohexanamine (1:1);Cyclohexanecarbamic acid, compd. with cyclohexylamine (1:1);Carbamic acid, cyclohexyl-, compd. with cyclohexanamine (1:1);Cyclohexanecarbamic acid, compd. with cyclohexylamine;Cyclohexylammonium <em>N</em>-cyclohexylcarbamate;Cyclohexylammonium cyclohexylcarbamate;Verzone Crystal 130",
    "duplicated_cas_no": "855424-93-0",
    "SMILES": "N(C(=O)O)C1CCCCC1.NC1CCCCC1",
    "meta_data": {
        "InChI": "InChI=1S/C7H13NO2.C6H13N/c9-7(10)8-6-4-2-1-3-5-6;7-6-4-2-1-3-5-6/h6,8H,1-5H2,(H,9,10);6H,1-5,7H2",
        "InChIKey": null,
        "Canonical SMILES": "O=C(O)NC1CCCCC1.NC1CCCCC1",
        "Molecular Formula": "C<sub>7</sub>H<sub>13</sub>NO<sub>2</sub>.C<sub>6</sub>H<sub>13</sub>N",
        "Molecular Mass": "",
        "Melting Point": "112-113 °C"
    }
}