{
    "cas_no": "146-78-1",
    "key_name": "2-Fluoroadenosine",
    "cn_name": "2-氟腺苷;2-氟腺甙;",
    "alternate_name": "Adenosine, 2-fluoro-;2-Fluoroadenosine;2-Fluoro-9-β-<span class=\"text-smallcaps\">D</span>-ribofuranosyladenine;NSC 30605",
    "duplicated_cas_no": "",
    "SMILES": "NC1=C2C(N(C=N2)[C@@H]3O[C@H](CO)[C@@H](O)[C@H]3O)=NC(F)=N1",
    "meta_data": {
        "InChI": "InChI=1S/C10H12FN5O4/c11-10-14-7(12)4-8(15-10)16(2-13-4)9-6(19)5(18)3(1-17)20-9/h2-3,5-6,9,17-19H,1H2,(H2,12,14,15)/t3-,5-,6-,9-/m1/s1",
        "InChIKey": null,
        "Canonical SMILES": "FC=1N=C(N)C=2N=CN(C2N1)C3OC(CO)C(O)C3O",
        "Molecular Formula": "C<sub>10</sub>H<sub>12</sub>FN<sub>5</sub>O<sub>4</sub>",
        "Molecular Mass": "285.23",
        "Melting Point": "200 °C (decomp)"
    }
}