{
    "cas_no": "81213-52-7",
    "key_name": "(1-Oxyl-2,2,5,5-tetramethyl-Δ3-pyrroline-3-methyl)methanethiosulfonate",
    "cn_name": null,
    "alternate_name": "1<em>H</em>-Pyrrol-1-yloxy, 2,5-dihydro-2,2,5,5-tetramethyl-3-[[(methylsulfonyl)thio]methyl]-;2,5-Dihydro-2,2,5,5-tetramethyl-3-[[(methylsulfonyl)thio]methyl]-1<em>H</em>-pyrrol-1-yloxy;MTS;MTS (spin label);MTSL;MTSSL;(1-Oxyl-2,2,5,5-tetramethyl-Δ3-pyrroline-3-methyl)methanethiosulfonate",
    "duplicated_cas_no": "",
    "SMILES": "",
    "meta_data": {
        "InChI": "",
        "InChIKey": null,
        "Canonical SMILES": "",
        "Molecular Formula": "C<sub>10</sub>H<sub>18</sub>NO<sub>3</sub>S<sub>2</sub>",
        "Molecular Mass": "",
        "Melting Point": "85-87 °C"
    }
}