{
    "cas_no": "3967-54-2",
    "key_name": "Chloroethylene carbonate",
    "cn_name": "4-氯-1,3-二氧五环-2-酮;氯代碳酸乙烯酯;",
    "alternate_name": "1,3-Dioxolan-2-one, 4-chloro-;Carbonic acid, cyclic chloroethylene ester;Carbonic acid, chloroethylene ester;1,2-Ethanediol, 1-chloro-, cyclic carbonate;4-Chloro-1,3-dioxolan-2-one;1,2-Ethanediol, chloro-, cyclic carbonate;Chloroethylene carbonate;Cyclic chloroethylene carbonate;NSC 74446",
    "duplicated_cas_no": "",
    "SMILES": "ClC1OC(=O)OC1",
    "meta_data": {
        "InChI": "InChI=1S/C3H3ClO3/c4-2-1-6-3(5)7-2/h2H,1H2",
        "InChIKey": null,
        "Canonical SMILES": "O=C1OCC(Cl)O1",
        "Molecular Formula": "C<sub>3</sub>H<sub>3</sub>ClO<sub>3</sub>",
        "Molecular Mass": "122.51",
        "Boiling Point": "212 °C @ Press: 735 Torr",
        "Density": "1.513 g/cm³ @ Temp: 25 °C"
    }
}