{
    "cas_no": "37943-90-1",
    "key_name": "2-(Diphenylphosphino)pyridine",
    "cn_name": "二苯基-2-吡啶膦;2-吡啶基二苯基膦;",
    "alternate_name": "Pyridine, 2-(diphenylphosphino)-;2-(Diphenylphosphino)pyridine;Diphenyl-2-pyridylphosphine;2-Pyridyldiphenylphosphine;Diphenyl(2-pyridinyl)phosphine;Diphenyl(2-pyridyl)phosphane;2-(Diphenylphosphanyl)pyridine;2-Diphenylphosphanyl-pyridine",
    "duplicated_cas_no": "136868-49-0",
    "SMILES": "P(C1=CC=CC=C1)(C2=CC=CC=C2)C3=CC=CC=N3",
    "meta_data": {
        "InChI": "InChI=1S/C17H14NP/c1-3-9-15(10-4-1)19(16-11-5-2-6-12-16)17-13-7-8-14-18-17/h1-14H",
        "InChIKey": null,
        "Canonical SMILES": "N=1C=CC=CC1P(C=2C=CC=CC2)C=3C=CC=CC3",
        "Molecular Formula": "C<sub>17</sub>H<sub>14</sub>NP",
        "Molecular Mass": "263.27",
        "Boiling Point": "163 °C @ Press: 0.05 Torr",
        "Melting Point": "85 °C"
    }
}