{
    "cas_no": "493-08-3",
    "key_name": "3,4-Dihydro-2<em>H</em>-1-benzopyran",
    "cn_name": null,
    "alternate_name": "2<em>H</em>-1-Benzopyran, 3,4-dihydro-;Chroman;3,4-Dihydro-2<em>H</em>-1-benzopyran;Dihydrobenzopyran;3,4-Dihydro-2<em>H</em>-chromene",
    "duplicated_cas_no": "",
    "SMILES": "C=12C(=CC=CC1)OCCC2",
    "meta_data": {
        "InChI": "InChI=1S/C9H10O/c1-2-6-9-8(4-1)5-3-7-10-9/h1-2,4,6H,3,5,7H2",
        "InChIKey": null,
        "Canonical SMILES": "O1C=2C=CC=CC2CCC1",
        "Molecular Formula": "C<sub>9</sub>H<sub>10</sub>O",
        "Molecular Mass": "134.18",
        "Boiling Point": "98-99 °C @ Press: 18 Torr",
        "Density": "1.0610 g/cm³ @ Temp: 20 °C"
    }
}