{
    "cas_no": "1305-79-9",
    "key_name": "Calcium peroxide",
    "cn_name": null,
    "alternate_name": "Calcium peroxide (Ca(O<sub>2</sub>));Calcium dioxide;Calcium oxide (CaO<sub>2</sub>);Calper;Calper G;Calcium peroxide;Neocaloxo;Ixper C",
    "duplicated_cas_no": "12049-69-3;55396-25-3;61976-87-2",
    "SMILES": "[Ca]1OO1",
    "meta_data": {
        "InChI": "InChI=1S/Ca.O2/c;1-2/q+2;-2",
        "InChIKey": null,
        "Canonical SMILES": "O1O[Ca]1",
        "Molecular Formula": "CaO<sub>2</sub>",
        "Molecular Mass": "",
        "Melting Point": "200 °C (decomp)",
        "Density": "3.34 g/cm³ @ Temp: 25 °C"
    }
}