{
    "cas_no": "73-40-5",
    "key_name": "Guanine",
    "cn_name": "鸟嘌呤;2-氨基-6-羟基嘌呤;2-氨基次黄嘌呤;",
    "alternate_name": "6<em>H</em>-Purin-6-one, 2-amino-1,9-dihydro-;Guanine;6<em>H</em>-Purin-6-one, 2-amino-1,7-dihydro-;2-Amino-1,9-dihydro-6<em>H</em>-purin-6-one;C.I. 75170;2-Aminohypoxanthine;C.I. Natural White 1;Hypoxanthine, 2-amino-;Pearl Essence;Stella Polaris;2-Amino-6-hydroxypurine;2-Amino-6-hydroxy-1<em>H</em>-purine;Guanine enol;Dew Pearl;Naturon;Guanin;Mearlmaid;Natural Pearl Essence;Natural White 1;Mearlmaid AA;9<em>H</em>-Guanine;2-Amino-6,7-dihydro-1<em>H</em>-purin-6-one;2-Imino-2,3-dihydro-1<em>H</em>-purin-6-ol;2-Amino-6,7-dihydro-3<em>H</em>-purin-6-one;2-Amino-1<em>H</em>-purin-6(7<em>H</em>)-one;2-Amino-9<em>H</em>-purin-6-ol;2-Amino-3,7-dihydropurin-6-one;2-Amino-6,9-dihydro-3<em>H</em>-purin-6-one;2-Amino-1,9-dihydro-purin-6-one;2-Amino-6,9-dihydro-1<em>H</em>-purin-6-one;MeSH ID: D006147",
    "duplicated_cas_no": "492-33-1;8039-79-0;11006-44-3;15986-36-4;37432-34-1;54435-87-9;69257-39-2;158475-99-1;66224-64-4;929247-29-0;934585-79-2;936902-27-1",
    "SMILES": "O=C1C2=C(NC(N)=N1)N=CN2",
    "meta_data": {
        "InChI": "InChI=1S/C5H5N5O/c6-5-9-3-2(4(11)10-5)7-1-8-3/h1H,(H4,6,7,8,9,10,11)",
        "InChIKey": null,
        "Canonical SMILES": "O=C1N=C(N)NC=2N=CNC12",
        "Molecular Formula": "C<sub>5</sub>H<sub>5</sub>N<sub>5</sub>O",
        "Molecular Mass": "151.13",
        "Melting Point": "360 °C (decomp)"
    }
}