{
    "cas_no": "3696-28-4",
    "key_name": "Dipyrithione",
    "cn_name": "2,2\"-二硫代二(吡啶-1-氧化物);",
    "alternate_name": "Pyridine, 2,2′-dithiobis-, 1,1′-dioxide;Pyridine, 2,2′-dithiodi-, 1,1′-dioxide;Bis(2-pyridyl) disulfide di-<em>N</em>-oxide;Dipyrithione;2,2′-Dithiodipyridine 1,1′-dioxide;Bis(2-pyridyl-<em>N</em>-oxide) disulfide;2,2′-Dithiobispyridine 1,1′-dioxide;Bis(<em>N</em>-oxido-2-pyridyl) disulfide;Bis(2-pyridyl 1-oxide) disulfide;2,2′-Dithiobis(pyridine 1-oxide);Bis(2-pyridine-<em>N</em>-oxide)disulfide;2,2′-Dithiobis(pyridine <em>N</em>-oxide);Omadine disulfide;(1-Oxo-2-pyridyl) disulfide;OSY 20;Omadine DS;Di-2-pyridyl disulfide <em>N</em>,<em>N</em>′-dioxide;NSC 677437;2,2′-Dipyridyl disulfide bis-<em>N</em>-oxide;2,2′-Dipyridyl disulfide <em>N</em>,<em>N</em>′-bisoxide;OMDS;NSC 241716;NSC 84740;Pyrion disulfide;Pyrithione disulfide;Sentex TBS;1-Oxido-2-[(1-oxidopyridin-1-ium-2-yl)disulfanyl]pyridin-1-ium;Bispyrithione",
    "duplicated_cas_no": "84617-33-4;90829-79-1;2305748-09-6",
    "SMILES": "S(SC=1N(=O)=CC=CC1)C=2N(=O)=CC=CC2",
    "meta_data": {
        "InChI": "InChI=1S/C10H8N2O2S2/c13-11-7-3-1-5-9(11)15-16-10-6-2-4-8-12(10)14/h1-8H",
        "InChIKey": null,
        "Canonical SMILES": "O=N=1C=CC=CC1SSC=2C=CC=CN2=O",
        "Molecular Formula": "C<sub>10</sub>H<sub>8</sub>N<sub>2</sub>O<sub>2</sub>S<sub>2</sub>",
        "Molecular Mass": "252.31",
        "Melting Point": "205 °C"
    }
}