{
    "cas_no": "14898-79-4",
    "key_name": "(-)-2-Butanol",
    "cn_name": "(R)-(-)-2-丁醇;",
    "alternate_name": "2-Butanol, (2<em>R</em>)-;<em>sec</em>-Butyl alcohol, (<em>R</em>)-(-)-;2-Butanol, (<em>R</em>)-;(-)-2-Butanol;(<em>R</em>)-(-)-2-Butanol;(<em>R</em>)-2-Butanol;<span class=\"text-smallcaps\">D</span>-2-Butanol;(2<em>R</em>)-2-Butanol;(R)-(-)-<em>sec</em>-Butanol;(2R)-Butan-2-ol;(<em>R</em>)-<em>sec</em>-Butanol;R-(-)-Butan-2-ol",
    "duplicated_cas_no": "",
    "SMILES": "[C@H](CC)(C)O",
    "meta_data": {
        "InChI": "InChI=1S/C4H10O/c1-3-4(2)5/h4-5H,3H2,1-2H3/t4-/m1/s1",
        "InChIKey": null,
        "Canonical SMILES": "OC(C)CC",
        "Molecular Formula": "C<sub>4</sub>H<sub>10</sub>O",
        "Molecular Mass": "74.12",
        "Boiling Point": "99-99.5 °C",
        "Density": "1.3954 g/cm³ @ Temp: 22 °C"
    }
}