{
    "cas_no": "50333-13-6",
    "key_name": "<em>N</em>-Methylflindersine",
    "cn_name": null,
    "alternate_name": "5<em>H</em>-Pyrano[3,2-<em>c</em>]quinolin-5-one, 2,6-dihydro-2,2,6-trimethyl-;2,6-Dihydro-2,2,6-trimethyl-5<em>H</em>-pyrano[3,2-<em>c</em>]quinolin-5-one;<em>N</em>-Methylflindersine;NSC 347659;2,2,6-Trimethylpyrano[3,2-<em>c</em>]quinolin-5-one",
    "duplicated_cas_no": "",
    "SMILES": "CN1C=2C(C3=C(C1=O)C=CC(C)(C)O3)=CC=CC2",
    "meta_data": {
        "InChI": "InChI=1S/C15H15NO2/c1-15(2)9-8-11-13(18-15)10-6-4-5-7-12(10)16(3)14(11)17/h4-9H,1-3H3",
        "InChIKey": null,
        "Canonical SMILES": "O=C1C=2C=CC(OC2C=3C=CC=CC3N1C)(C)C",
        "Molecular Formula": "C<sub>15</sub>H<sub>15</sub>NO<sub>2</sub>",
        "Molecular Mass": "241.29",
        "Melting Point": "81-82 °C"
    }
}