{
    "cas_no": "50743-20-9",
    "key_name": "6-Chloro-4-oxo-4<em>H</em>-1-benzopyran-3-carbonitrile",
    "cn_name": null,
    "alternate_name": "4<em>H</em>-1-Benzopyran-3-carbonitrile, 6-chloro-4-oxo-;6-Chloro-4-oxo-4<em>H</em>-1-benzopyran-3-carbonitrile;6-Chloro-3-cyanochromone",
    "duplicated_cas_no": "",
    "SMILES": "O=C1C=2C(OC=C1C#N)=CC=C(Cl)C2",
    "meta_data": {
        "InChI": "InChI=1S/C10H4ClNO2/c11-7-1-2-9-8(3-7)10(13)6(4-12)5-14-9/h1-3,5H",
        "InChIKey": null,
        "Canonical SMILES": "N#CC1=COC2=CC=C(Cl)C=C2C1=O",
        "Molecular Formula": "C<sub>10</sub>H<sub>4</sub>ClNO<sub>2</sub>",
        "Molecular Mass": "205.60",
        "Melting Point": "211-213 °C"
    }
}