{
    "cas_no": "557-61-9",
    "key_name": "1-Octacosanol",
    "cn_name": "二十八烷醇;蒙旦醇;普利醇;",
    "alternate_name": "1-Octacosanol;<em>n</em>-Octacosanol;Octacosyl alcohol;Octacosanol;Cluytyl alcohol;Montanyl alcohol;NSC 10770;NSC 57768",
    "duplicated_cas_no": "",
    "SMILES": "C(CCCCCCCCCCCCCC)CCCCCCCCCCCCCO",
    "meta_data": {
        "InChI": "InChI=1S/C28H58O/c1-2-3-4-5-6-7-8-9-10-11-12-13-14-15-16-17-18-19-20-21-22-23-24-25-26-27-28-29/h29H,2-28H2,1H3",
        "InChIKey": null,
        "Canonical SMILES": "OCCCCCCCCCCCCCCCCCCCCCCCCCCCC",
        "Molecular Formula": "C<sub>28</sub>H<sub>58</sub>O",
        "Molecular Mass": "410.76",
        "Melting Point": "83.3 °C"
    }
}