{
    "cas_no": "2836-00-2",
    "key_name": "3-Amino-4-methylphenol",
    "cn_name": "3-氨基-4-甲基苯酚;3-氨基对甲酚;",
    "alternate_name": "Phenol, 3-amino-4-methyl-;<em>p</em>-Cresol, 3-amino-;3-Amino-4-methylphenol;2-Amino-4-hydroxytoluene;4-Methyl-3-aminophenol;5-Hydroxy-2-methylaniline;3-Hydroxy-6-methylaniline;3-Amino-4-cresol",
    "duplicated_cas_no": "",
    "SMILES": "NC1=C(C)C=CC(O)=C1",
    "meta_data": {
        "InChI": "InChI=1S/C7H9NO/c1-5-2-3-6(9)4-7(5)8/h2-4,9H,8H2,1H3",
        "InChIKey": null,
        "Canonical SMILES": "OC1=CC=C(C(N)=C1)C",
        "Molecular Formula": "C<sub>7</sub>H<sub>9</sub>NO",
        "Molecular Mass": "123.15",
        "Melting Point": "157.8 °C"
    }
}