{
    "cas_no": "7791-21-1",
    "key_name": "Chlorine oxide (Cl<sub>2</sub>O)",
    "cn_name": null,
    "alternate_name": "Chlorine oxide (Cl<sub>2</sub>O);Chlorine monooxide;Dichloroxide;Hypochlorous anhydride;Chlorine monoxide (Cl<sub>2</sub>O);Dichlorine monoxide;Dichlorine oxide;Oxygen dichloride;Dichlorine monoxide (ClOCl)",
    "duplicated_cas_no": "",
    "SMILES": "O(Cl)Cl",
    "meta_data": {
        "InChI": "InChI=1S/Cl2O/c1-3-2",
        "InChIKey": null,
        "Canonical SMILES": "ClOCl",
        "Molecular Formula": "Cl<sub>2</sub>O",
        "Molecular Mass": "86.91",
        "Boiling Point": "2.2 °C",
        "Melting Point": "-120.6 °C"
    }
}