{
    "cas_no": "144689-63-4",
    "key_name": "Olmesartan medoxomil",
    "cn_name": "奥美沙坦酯;2,3-二羟基-2-丁烯基-4-(1-羟基-1-甲基乙基)-2-丙基-1-[4-(2-1H-四唑-5-苯基)苄基]咪唑-5-羧酸;",
    "alternate_name": "1<em>H</em>-Imidazole-5-carboxylic acid, 4-(1-hydroxy-1-methylethyl)-2-propyl-1-[[2′-(2<em>H</em>-tetrazol-5-yl)[1,1′-biphenyl]-4-yl]methyl]-, (5-methyl-2-oxo-1,3-dioxol-4-yl)methyl ester;1<em>H</em>-Imidazole-5-carboxylic acid, 4-(1-hydroxy-1-methylethyl)-2-propyl-1-[[2′-(1<em>H</em>-tetrazol-5-yl)[1,1′-biphenyl]-4-yl]methyl]-, (5-methyl-2-oxo-1,3-dioxol-4-yl)methyl ester;1,3-Dioxole, 1<em>H</em>-imidazole-5-carboxylic acid deriv.;CS 866;Olmesartan medoxomil;Benicar;Olmetec;Olsertain;Angiosartan;(5-Methyl-2-oxo-2<em>H</em>-1,3-dioxol-4-yl)methyl 4-(2-hydroxypropan-2-yl)-2-propyl-1-([4-[2-(1<em>H</em>-1,2,3,4-tetrazol-5-yl)phenyl]phenyl]methyl)-1<em>H</em>-imidazole-5-carboxylate;(5-Methyl-2-oxo-1,3-dioxol-4-yl)methyl 4-(1-hydroxy-1-methylethyl)-2-propyl-1-[[2′-(2<em>H</em>-tetrazol-5-yl)[1,1′-biphenyl]-4-yl]methyl]-1<em>H</em>-imidazole-5-carboxylate",
    "duplicated_cas_no": "",
    "SMILES": "C(N1C(C(OCC2=C(C)OC(=O)O2)=O)=C(C(C)(C)O)N=C1CCC)C3=CC=C(C=C3)C4=C(C=CC=C4)C=5NN=NN5",
    "meta_data": {
        "InChI": "InChI=1S/C29H30N6O6/c1-5-8-23-30-25(29(3,4)38)24(27(36)39-16-22-17(2)40-28(37)41-22)35(23)15-18-11-13-19(14-12-18)20-9-6-7-10-21(20)26-31-33-34-32-26/h6-7,9-14,38H,5,8,15-16H2,1-4H3,(H,31,32,33,34)",
        "InChIKey": null,
        "Canonical SMILES": "O=C1OC(=C(O1)COC(=O)C2=C(N=C(N2CC=3C=CC(=CC3)C=4C=CC=CC4C5=NN=NN5)CCC)C(O)(C)C)C",
        "Molecular Formula": "C<sub>29</sub>H<sub>30</sub>N<sub>6</sub>O<sub>6</sub>",
        "Molecular Mass": "558.59",
        "Melting Point": "180-182 °C"
    }
}