{
    "cas_no": "4235-95-4",
    "key_name": "1,2-Dioleoyl-<em>sn</em>-glycero-3-phosphocholine",
    "cn_name": "1,2-二油酰基卵磷脂;",
    "alternate_name": "3,5,9-Trioxa-4-phosphaheptacos-18-en-1-aminium, 4-hydroxy-<em>N</em>,<em>N</em>,<em>N</em>-trimethyl-10-oxo-7-[[(9<em>Z</em>)-1-oxo-9-octadecen-1-yl]oxy]-, inner salt, 4-oxide, (7<em>R</em>,18<em>Z</em>)-;Choline, hydroxide, dihydrogen phosphate, inner salt, ester with <span class=\"text-smallcaps\">L</span>-1,2-diolein;3,5,9-Trioxa-4-phosphaheptacos-18-en-1-aminium, 4-hydroxy-<em>N</em>,<em>N</em>,<em>N</em>-trimethyl-10-oxo-7-[(1-oxo-9-octadecenyl)oxy]-, hydroxide, inner salt, 4-oxide, [<em>R</em>-(<em>Z</em>,<em>Z</em>)]-;Choline phosphate, 3-ester with <span class=\"text-smallcaps\">L</span>-1,2-diolein;3,5,9-Trioxa-4-phosphaheptacos-18-en-1-aminium, 4-hydroxy-<em>N</em>,<em>N</em>,<em>N</em>-trimethyl-10-oxo-7-[[(9<em>Z</em>)-1-oxo-9-octadecenyl]oxy]-, inner salt, 4-oxide, (7<em>R</em>,18<em>Z</em>)-;Olein, 1,2-di-, <span class=\"text-smallcaps\">L</span>-, dihydrogen phosphate, monoester with choline hydroxide;Dioleoyl <span class=\"text-smallcaps\">L</span>-α-lecithin;1,2-Dioleyl-<span class=\"text-smallcaps\">L</span>-lecithin;Dioleoyllecithin;Dioleoyl-<span class=\"text-smallcaps\">L</span>-α-phosphatidylcholine;<span class=\"text-smallcaps\">L</span>-Dioleoylphosphatidylcholine;Dioleoyl-<span class=\"text-smallcaps\">L</span>-α-glycerophosphorylcholine;1,2-Dioleoyl-<em>sn</em>-<em>glycero</em>-3-phosphorylcholine;<span class=\"text-smallcaps\">L</span>-α-Di(<em>cis</em>-9-octadecanoyl) lecithin;1,2-Dioleoylphosphatidylcholine;<span class=\"text-smallcaps\">L</span>-Dioleoyl lecithin;1,2-Dioleoyl-<span class=\"text-smallcaps\">L</span>-α-lecithin;<em>sn</em>-3-Dioleoyllecithin;1,2-Dioleoyl-<em>sn</em>-glycero-3-phosphorylcholine;1,2-Dioleoyl-<em>sn</em>-phosphatidylcholine;<span class=\"text-smallcaps\">L</span>-α-Dioleoyllecithin;Dioleoyl-3-<em>sn</em>-phosphatidylcholine;Dioleoyl-<span class=\"text-smallcaps\">L</span>-α-glycerophosphocholine;<span class=\"text-smallcaps\">L</span>-α-Dioleoyl phosphatidylcholine;DOPC;<span class=\"text-smallcaps\">L</span>-α-Dioleylphosphatidylcholine;3,5,9-Trioxa-4-phosphaheptacos-18-en-1-aminium, 4-hydroxy-<em>N</em>,<em>N</em>,<em>N</em>-trimethyl-10-oxo-7-[(1-oxo-9-octadecenyl)oxy]-, inner salt, 4-oxide, [<em>R</em>-(<em>Z</em>,<em>Z</em>)]-;1,2-Dioleoyl-<em>sn</em>-glycero-3-phosphocholine;Dioleoylphosphatidylcholine;PDD 111;1,2-Dioleoyl-3-sn-phosphatidylcholine;1,2-Di-(9<em>Z</em>-octadecenoyl)-<em>sn</em>-<em>glycero</em>-3-phosphocholine;51: PN: WO2017201317 SEQID: 124 claimed DNA;1,2-Di-(9Z-octadecenoyl)-sn-<em>glycero</em>-3-phosphocholine;1,2-Dioleoyl-sn-<em>glycero</em>-3-phosphochline;Coatsome MC 8181",
    "duplicated_cas_no": "53695-00-4;629647-89-8",
    "SMILES": "[C@H](OC(CCCCCCC/C=C\\CCCCCCCC)=O)(COP(OCC[N+](C)(C)C)(=O)[O-])COC(CCCCCCC/C=C\\CCCCCCCC)=O",
    "meta_data": {
        "InChI": "InChI=1S/C44H84NO8P/c1-6-8-10-12-14-16-18-20-22-24-26-28-30-32-34-36-43(46)50-40-42(41-52-54(48,49)51-39-38-45(3,4)5)53-44(47)37-35-33-31-29-27-25-23-21-19-17-15-13-11-9-7-2/h20-23,42H,6-19,24-41H2,1-5H3/b22-20-,23-21-/t42-/m1/s1",
        "InChIKey": null,
        "Canonical SMILES": "O=C(OCC(OC(=O)CCCCCCCC=CCCCCCCCC)COP(=O)([O-])OCC[N+](C)(C)C)CCCCCCCC=CCCCCCCCC",
        "Molecular Formula": "C<sub>44</sub>H<sub>84</sub>NO<sub>8</sub>P",
        "Molecular Mass": "",
        "Melting Point": "-21 °C"
    }
}