{
    "cas_no": "59729-33-8",
    "key_name": "Citalopram",
    "cn_name": null,
    "alternate_name": "5-Isobenzofurancarbonitrile, 1-[3-(dimethylamino)propyl]-1-(4-fluorophenyl)-1,3-dihydro-;1-[3-(Dimethylamino)propyl]-1-(4-fluorophenyl)-1,3-dihydro-5-isobenzofurancarbonitrile;Lu 10-171;Citalopram;Nitalapram;(±)-Citalopram;1-[3-(Dimethylamino)propyl]-1-(4-fluorophenyl)-1,3-dihydroisobenzofuran-5-carbonitrile;Bonitrile;1-(3-Dimethylaminopropyl)-1-(4-fluorophenyl)-5-cyanophthalan;Prepram;1-[3-(Dimethylamino)propyl]-1-(4-fluorophenyl)-1,3-dihydro-2-benzofuran-5-carbonitrile;Cital;MeSH ID: D015283",
    "duplicated_cas_no": "103146-27-6;128196-03-2",
    "SMILES": "C(CCN(C)C)C1(C=2C(CO1)=CC(C#N)=CC2)C3=CC=C(F)C=C3",
    "meta_data": {
        "InChI": "InChI=1S/C20H21FN2O/c1-23(2)11-3-10-20(17-5-7-18(21)8-6-17)19-9-4-15(13-22)12-16(19)14-24-20/h4-9,12H,3,10-11,14H2,1-2H3",
        "InChIKey": null,
        "Canonical SMILES": "N#CC1=CC=C2C(=C1)COC2(C3=CC=C(F)C=C3)CCCN(C)C",
        "Molecular Formula": "C<sub>20</sub>H<sub>21</sub>FN<sub>2</sub>O",
        "Molecular Mass": "324.39",
        "Boiling Point": "178 °C",
        "Melting Point": "156-157 °C"
    }
}