{
    "cas_no": "89-67-8",
    "key_name": "<span class=\"text-smallcaps\">D</smallcap>-<em>glycero</em>-<smallcap>D</span>-<em>gulo</em>-Heptonic acid, γ-lactone",
    "cn_name": null,
    "alternate_name": "<span class=\"text-smallcaps\">D</smallcap>-<em>glycero</em>-<smallcap>D</span>-<em>gulo</em>-Heptonic acid, γ-lactone;NSC 2558",
    "duplicated_cas_no": "",
    "SMILES": "[C@H]([C@@H](CO)O)(O)[C@]1([C@@H](O)[C@@H](O)C(=O)O1)[H]",
    "meta_data": {
        "InChI": "InChI=1S/C7H12O7/c8-1-2(9)3(10)6-4(11)5(12)7(13)14-6/h2-6,8-12H,1H2/t2-,3-,4+,5-,6+/m1/s1",
        "InChIKey": null,
        "Canonical SMILES": "O=C1OC(C(O)C1O)C(O)C(O)CO",
        "Molecular Formula": "C<sub>7</sub>H<sub>12</sub>O<sub>7</sub>",
        "Molecular Mass": "208.17",
        "Melting Point": "148-149 °C"
    }
}