{
    "cas_no": "142-95-0",
    "key_name": "Octylammonium chloride",
    "cn_name": null,
    "alternate_name": "1-Octanamine, hydrochloride (1:1);Octylamine, hydrochloride;1-Octanamine, hydrochloride;Octylammonium chloride;Octylamine monohydrochloride;<em>n</em>-Octylamine hydrochloride",
    "duplicated_cas_no": "",
    "SMILES": "C(CCCC)CCCN.Cl",
    "meta_data": {
        "InChI": "InChI=1S/C8H19N.ClH/c1-2-3-4-5-6-7-8-9;/h2-9H2,1H3;1H",
        "InChIKey": null,
        "Canonical SMILES": "Cl.NCCCCCCCC",
        "Molecular Formula": "C<sub>8</sub>H<sub>19</sub>N.ClH",
        "Molecular Mass": "",
        "Melting Point": "197-198 °C"
    }
}