{
    "cas_no": "549-18-8",
    "key_name": "Amitriptyline hydrochloride",
    "cn_name": "盐酸阿米替林;N,N-二甲基-3-[10,11-二氢-5H-二苯并(a,b)环庚三烯-5-亚基]-1-丙胺盐酸盐;",
    "alternate_name": "1-Propanamine, 3-(10,11-dihydro-5<em>H</em>-dibenzo[<em>a</em>,<em>d</em>]cyclohepten-5-ylidene)-<em>N</em>,<em>N</em>-dimethyl-, hydrochloride (1:1);5<em>H</em>-Dibenzo[<em>a</em>,<em>d</em>]cycloheptene-Δ<sup>5,γ</sup>-propylamine, 10,11-dihydro-<em>N</em>,<em>N</em>-dimethyl-, hydrochloride;1-Propanamine, 3-(10,11-dihydro-5<em>H</em>-dibenzo[<em>a</em>,<em>d</em>]cyclohepten-5-ylidene)-<em>N</em>,<em>N</em>-dimethyl-, hydrochloride;Amitriptyline hydrochloride;10,11-Dihydro-<em>N</em>,<em>N</em>-dimethyl-5<em>H</em>-dibenzo[<em>a</em>,<em>d</em>]cycloheptene-Δ<sup>5</sup>,γ-propylamine hydrochloride;5-(3-Dimethylaminopropylidene)dibenzo[<em>a</em>,<em>d</em>][1,4]cycloheptadiene hydrochloride;Tryptizol;Saroten;Damilen hydrochloride;Amitriptyline chloride;Lentizol;Laroxyl;Sarotex;NIH 10794;Elavil;Amineurin;Uxen;Noriline;Triptizol;Domical;Miketorin;Amilent;Endep;Amiprin;Apo-Amitriptyline;Larozyl;Amicen;Saroten Retard;Pinsaun;Amitrip;Tryptine;Etravil;Amyline;Anapsique;Tryptal;Trynol;Tridep;Amilit;Amiplin;Novoprotect;Elatrol;Tripta;Trepiline;Redomex;Elatrolet;Vanatrip;Syneudon;Trytomer;Pinsanu;Teperin;Enafon;Adepril;Tryptanol;Lantron;Amyzol;Sarotena;Euplit;Amitril;Ro 4-1575;Deprex;Sylvemid;Amitid;Amil 25;ADT;[3-(10,11-Dihydro-dibenzo[<em>a</em>,<em>d</em>]cyclohepten-5-ylidene)-propyl]-dimethyl-amine; hydrochloride",
    "duplicated_cas_no": "8058-15-9",
    "SMILES": "C(CCN(C)C)=C1C=2C(CCC=3C1=CC=CC3)=CC=CC2.Cl",
    "meta_data": {
        "InChI": "InChI=1S/C20H23N.ClH/c1-21(2)15-7-12-20-18-10-5-3-8-16(18)13-14-17-9-4-6-11-19(17)20;/h3-6,8-12H,7,13-15H2,1-2H3;1H",
        "InChIKey": null,
        "Canonical SMILES": "Cl.C=1C=CC2=C(C1)C(=CCCN(C)C)C=3C=CC=CC3CC2",
        "Molecular Formula": "C<sub>20</sub>H<sub>23</sub>N.ClH",
        "Molecular Mass": "",
        "Melting Point": "196-197 °C"
    }
}