{
    "cas_no": "130000-40-7",
    "key_name": "Thifluzamide",
    "cn_name": null,
    "alternate_name": "5-Thiazolecarboxamide, <em>N</em>-[2,6-dibromo-4-(trifluoromethoxy)phenyl]-2-methyl-4-(trifluoromethyl)-;<em>N</em>-[2,6-Dibromo-4-(trifluoromethoxy)phenyl]-2-methyl-4-(trifluoromethyl)-5-thiazolecarboxamide;MON 24000;Thifluzamide;Greatam;Pulsor;2′,6′-Dibromo-2-methyl-4′-trifluoromethoxy-4-trifluoromethyl-1,3-thiazole-5-carboxyanilide",
    "duplicated_cas_no": "1135441-69-8",
    "SMILES": "C(NC1=C(Br)C=C(OC(F)(F)F)C=C1Br)(=O)C2=C(C(F)(F)F)N=C(C)S2",
    "meta_data": {
        "InChI": "InChI=1S/C13H6Br2F6N2O2S/c1-4-22-10(12(16,17)18)9(26-4)11(24)23-8-6(14)2-5(3-7(8)15)25-13(19,20)21/h2-3H,1H3,(H,23,24)",
        "InChIKey": null,
        "Canonical SMILES": "O=C(NC1=C(Br)C=C(OC(F)(F)F)C=C1Br)C=2SC(=NC2C(F)(F)F)C",
        "Molecular Formula": "C<sub>13</sub>H<sub>6</sub>Br<sub>2</sub>F<sub>6</sub>N<sub>2</sub>O<sub>2</sub>S",
        "Molecular Mass": "528.06",
        "Melting Point": "178 °C"
    }
}