{
    "cas_no": "26274-35-1",
    "key_name": "2,4-Diphenylpyridine",
    "cn_name": null,
    "alternate_name": "Pyridine, 2,4-diphenyl-;2,4-Diphenylpyridine",
    "duplicated_cas_no": "",
    "SMILES": "C=1(C=C(N=CC1)C2=CC=CC=C2)C3=CC=CC=C3",
    "meta_data": {
        "InChI": "InChI=1S/C17H13N/c1-3-7-14(8-4-1)16-11-12-18-17(13-16)15-9-5-2-6-10-15/h1-13H",
        "InChIKey": null,
        "Canonical SMILES": "N=1C=CC(=CC1C=2C=CC=CC2)C=3C=CC=CC3",
        "Molecular Formula": "C<sub>17</sub>H<sub>13</sub>N",
        "Molecular Mass": "231.29",
        "Melting Point": "68 °C"
    }
}