{
    "cas_no": "6639-30-1",
    "key_name": "2,4,5-Trichlorotoluene",
    "cn_name": "2,4,5-三氯甲苯;",
    "alternate_name": "Benzene, 1,2,4-trichloro-5-methyl-;Toluene, 2,4,5-trichloro-;1,2,4-Trichloro-5-methylbenzene;2,4,5-Trichlorotoluene;NSC 16047",
    "duplicated_cas_no": "",
    "SMILES": "CC1=C(Cl)C=C(Cl)C(Cl)=C1",
    "meta_data": {
        "InChI": "InChI=1S/C7H5Cl3/c1-4-2-6(9)7(10)3-5(4)8/h2-3H,1H3",
        "InChIKey": null,
        "Canonical SMILES": "ClC=1C=C(Cl)C(=CC1Cl)C",
        "Molecular Formula": "C<sub>7</sub>H<sub>5</sub>Cl<sub>3</sub>",
        "Molecular Mass": "195.47",
        "Boiling Point": "231 °C",
        "Melting Point": "82.4 °C"
    }
}