{
    "cas_no": "136470-78-5",
    "key_name": "Abacavir",
    "cn_name": "阿巴卡韦;(1S,4R)-4-[2-氨基-6-(环丙氨基)-9H-嘌呤-9-基]-2-环戊烯-1-甲醇;",
    "alternate_name": "2-Cyclopentene-1-methanol, 4-[2-amino-6-(cyclopropylamino)-9<em>H</em>-purin-9-yl]-, (1<em>S</em>,4<em>R</em>)-;2-Cyclopentene-1-methanol, 4-[2-amino-6-(cyclopropylamino)-9<em>H</em>-purin-9-yl]-, (1<em>S</em>-<em>cis</em>)-;(1<em>S</em>,4<em>R</em>)-4-[2-Amino-6-(cyclopropylamino)-9<em>H</em>-purin-9-yl]-2-cyclopentene-1-methanol;Abacavir;1592U89;ABC;(-)-Abacavir",
    "duplicated_cas_no": "",
    "SMILES": "N(C1=C2C(N(C=N2)[C@@H]3C[C@H](CO)C=C3)=NC(N)=N1)C4CC4",
    "meta_data": {
        "InChI": "InChI=1S/C14H18N6O/c15-14-18-12(17-9-2-3-9)11-13(19-14)20(7-16-11)10-4-1-8(5-10)6-21/h1,4,7-10,21H,2-3,5-6H2,(H3,15,17,18,19)/t8-,10+/m1/s1",
        "InChIKey": null,
        "Canonical SMILES": "OCC1C=CC(N2C=NC=3C(=NC(=NC32)N)NC4CC4)C1",
        "Molecular Formula": "C<sub>14</sub>H<sub>18</sub>N<sub>6</sub>O",
        "Molecular Mass": "286.33",
        "Melting Point": "125-128 °C"
    }
}