{
    "cas_no": "637-12-7",
    "key_name": "Aluminum stearate",
    "cn_name": "硬脂酸铝;十八酸铝;",
    "alternate_name": "Octadecanoic acid, aluminum salt (3:1);Aluminum stearate;Stearic acid, aluminum salt;Octadecanoic acid, aluminum salt;Metasap XX;Tribasic aluminum stearate;Rofob 3;Aluminum stearate (1:3);Alugel 34TN;Aluminium stearate;SA 1500;Aluminum tristearate;Aluminum(III) stearate;SA 1000;Alugel 44M;Thompson's Water Seal;Alugel 30DF;SA 2000;SA 100;SA 100 (stearate);Daiwax WA 1;Arusute 30;Liga TR;Aluminum Stearate 900;Alugel 34TH;SA 1500 (stearate);AL 103;Aluminum Tristearate 900;M 132HG;AL 900",
    "duplicated_cas_no": "65324-35-8",
    "SMILES": "C(CCCCCCCCCCC)CCCCCC(O)=O.[Al]",
    "meta_data": {
        "InChI": "InChI=1S/C18H36O2.Al/c1-2-3-4-5-6-7-8-9-10-11-12-13-14-15-16-17-18(19)20;/h2-17H2,1H3,(H,19,20);",
        "InChIKey": null,
        "Canonical SMILES": "[Al].O=C(O)CCCCCCCCCCCCCCCCC",
        "Molecular Formula": "C<sub>18</sub>H<sub>36</sub>O<sub>2</sub>.<sup>1</sup>/<sub>3</sub>Al",
        "Molecular Mass": "",
        "Melting Point": "118 °C",
        "Density": "1.070 g/cm³"
    }
}