{
    "cas_no": "4133-34-0",
    "key_name": "7-Methoxy-2-tetralone",
    "cn_name": "7-甲氧基-2-萘满酮;",
    "alternate_name": "2(1<em>H</em>)-Naphthalenone, 3,4-dihydro-7-methoxy-;3,4-Dihydro-7-methoxy-2(1<em>H</em>)-naphthalenone;7-Methoxy-2-tetralone;7-Methoxy-β-tetralone;7-Methoxy-3,4-dihydro-1<em>H</em>-naphthalen-2-one;7-Methoxy-1,2,3,4-tetrahydronaphthalen-2-one;7-Methoxy-3,4-dihydronaphthalen-2(1<em>H</em>)-one;7-Methoxy-2-tetralinone",
    "duplicated_cas_no": "",
    "SMILES": "O(C)C=1C=C2C(=CC1)CCC(=O)C2",
    "meta_data": {
        "InChI": "InChI=1S/C11H12O2/c1-13-11-5-3-8-2-4-10(12)6-9(8)7-11/h3,5,7H,2,4,6H2,1H3",
        "InChIKey": null,
        "Canonical SMILES": "O=C1CC2=CC(OC)=CC=C2CC1",
        "Molecular Formula": "C<sub>11</sub>H<sub>12</sub>O<sub>2</sub>",
        "Molecular Mass": "176.21",
        "Boiling Point": "123-125 °C @ Press: 0.4 Torr",
        "Melting Point": "23-24 °C"
    }
}