{
    "cas_no": "7399-50-0",
    "key_name": "2-(1-Ethylpropyl)pyridine",
    "cn_name": "2-(3-乙丙基)嘧啶;2-(1-乙丙基)嘧啶;戊基吡啶;2-(1-乙基丙基)吡啶;",
    "alternate_name": "Pyridine, 2-(1-ethylpropyl)-;2-(1-Ethylpropyl)pyridine;3-(2-Pyridyl)pentane;2-(3-Pentyl)pyridine;NSC 54364;2-(Pentan-3-yl)pyridine",
    "duplicated_cas_no": "",
    "SMILES": "C(CC)(CC)C1=CC=CC=N1",
    "meta_data": {
        "InChI": "InChI=1S/C10H15N/c1-3-9(4-2)10-7-5-6-8-11-10/h5-9H,3-4H2,1-2H3",
        "InChIKey": null,
        "Canonical SMILES": "N=1C=CC=CC1C(CC)CC",
        "Molecular Formula": "C<sub>10</sub>H<sub>15</sub>N",
        "Molecular Mass": "149.23",
        "Boiling Point": "195.4 °C",
        "Density": "0.9017 g/cm³ @ Temp: 20 °C"
    }
}