{
    "cas_no": "10328-92-4",
    "key_name": "<em>N</em>-Methylisatoic anhydride",
    "cn_name": null,
    "alternate_name": "2<em>H</em>-3,1-Benzoxazine-2,4(1<em>H</em>)-dione, 1-methyl-;Isatoic anhydride, <em>N</em>-methyl-;1-Methyl-2<em>H</em>-3,1-benzoxazine-2,4(1<em>H</em>)-dione;<em>N</em>-Methylisatoic anhydride;<em>N</em>-Methylisatoic acid anhydride;NSC 76087;<em>N</em>-Methylisatioc anhydride;1-Methyl-4<em>H</em>-3,1-benzoxazine-2,4(1<em>H</em>)dione;1-Methyl-1<em>H</em>-benzo[<em>d</em>][1,3]oxazine-2,4-dione;1-Methyl-3,1-benzoxazine-2,4-dione;1-Methyl-2,4-dihydro-1<em>H</em>-3,1-benzoxazine-2,4-dione",
    "duplicated_cas_no": "",
    "SMILES": "CN1C=2C(C(=O)OC1=O)=CC=CC2",
    "meta_data": {
        "InChI": "InChI=1S/C9H7NO3/c1-10-7-5-3-2-4-6(7)8(11)13-9(10)12/h2-5H,1H3",
        "InChIKey": null,
        "Canonical SMILES": "O=C1OC(=O)N(C=2C=CC=CC12)C",
        "Molecular Formula": "C<sub>9</sub>H<sub>7</sub>NO<sub>3</sub>",
        "Molecular Mass": "177.16",
        "Melting Point": "177 °C"
    }
}