{
    "cas_no": "5306-85-4",
    "key_name": "Dimethyl isosorbide",
    "cn_name": "异山梨醇二甲醚;异山梨酯二甲醚;",
    "alternate_name": "<span class=\"text-smallcaps\">D</span>-Glucitol, 1,4:3,6-dianhydro-2,5-di-<em>O</em>-methyl-;Glucitol, 1,4:3,6-dianhydro-2,5-di-<em>O</em>-methyl-, <span class=\"text-smallcaps\">D</span>-;Sorbitol, 1,4:3,6-dianhydro-2,5-di-<em>O</em>-methyl-;Furo[3,2-<em>b</em>]furan, <span class=\"text-smallcaps\">D</span>-glucitol deriv.;1,4:3,6-Dianhydro-2,5-di-<em>O</em>-methyl-<span class=\"text-smallcaps\">D</span>-glucitol;Dimethyl isosorbide;Isosorbide dimethyl ether;Arlasolve DMI;2,5-Di-<em>O</em>-methyl-1,4:3,6-dianhydro-<span class=\"text-smallcaps\">D</span>-glucitol;NSC 40727;NSC 44695;Gransolve DMI;Solvall BDE 1",
    "duplicated_cas_no": "",
    "SMILES": "O(C)[C@H]1[C@@]2([C@@]([C@@H](OC)CO2)(OC1)[H])[H]",
    "meta_data": {
        "InChI": "InChI=1S/C8H14O4/c1-9-5-3-11-8-6(10-2)4-12-7(5)8/h5-8H,3-4H2,1-2H3/t5-,6+,7-,8-/m1/s1",
        "InChIKey": null,
        "Canonical SMILES": "O(C)C1COC2C(OC)COC12",
        "Molecular Formula": "C<sub>8</sub>H<sub>14</sub>O<sub>4</sub>",
        "Molecular Mass": "174.19",
        "Boiling Point": "234 °C",
        "Melting Point": "&lt;-50 °C",
        "Density": "1.1635 g/cm³ @ Temp: 20 °C"
    }
}