{
    "cas_no": "573-40-0",
    "key_name": "Rapanone",
    "cn_name": null,
    "alternate_name": "2,5-Cyclohexadiene-1,4-dione, 2,5-dihydroxy-3-tridecyl-;<em>p</em>-Benzoquinone, 2,5-dihydroxy-3-tridecyl-;Rapanone;2,5-Dihydroxy-3-tridecyl-2,5-cyclohexadiene-1,4-dione;Ropanone;NSC 340285",
    "duplicated_cas_no": "",
    "SMILES": "C(CCCCCCCCCCCC)C=1C(=O)C(O)=CC(=O)C1O",
    "meta_data": {
        "InChI": "InChI=1S/C19H30O4/c1-2-3-4-5-6-7-8-9-10-11-12-13-15-18(22)16(20)14-17(21)19(15)23/h14,20,23H,2-13H2,1H3",
        "InChIKey": null,
        "Canonical SMILES": "O=C1C=C(O)C(=O)C(=C1O)CCCCCCCCCCCCC",
        "Molecular Formula": "C<sub>19</sub>H<sub>30</sub>O<sub>4</sub>",
        "Molecular Mass": "322.44",
        "Melting Point": "141-142 °C"
    }
}