{
    "cas_no": "534-52-1",
    "key_name": "2-Methyl-4,6-dinitrophenol",
    "cn_name": "4,6-二硝基邻甲酚;",
    "alternate_name": "Phenol, 2-methyl-4,6-dinitro-;<em>o</em>-Cresol, 4,6-dinitro-;2-Methyl-4,6-dinitrophenol;Dekrysil;Detal;4,6-Dinitro-<em>o</em>-cresol;3,5-Dinitro-2-hydroxytoluene;Dinitrol;2,4-Dinitro-6-methylphenol;Ditrosol;DNOC;Effusan;Effusan 3436;Hedolite;K III;K IV;Elgetol 30;Lipan;Prokarbol;Sandolin A;Sinox;Dinoc;Hedolit;Selinon;Elgetol;Winterwash;Rafex 35;Rafex;6-Methyl-2,4-dinitrophenol;Krezotol 50;Sandolin;Dinitrocresol;Dillex;Dinurania;Extrar;Flavin-Sandoz;Dinitro-<em>o</em>-cresol;Neudorff DN 50;Raphatox;Arborol;Degrassan;Elipol;Nitrofan;Dinitro;Dinitrodendtroxal;Kreozan;4,6-Dinitro-2-methylphenol;NSC 2082",
    "duplicated_cas_no": "8068-73-3;8071-51-0;37359-43-6;53240-95-2",
    "SMILES": "N(=O)(=O)C1=CC(N(=O)=O)=CC(C)=C1O",
    "meta_data": {
        "InChI": "InChI=1S/C7H6N2O5/c1-4-2-5(8(11)12)3-6(7(4)10)9(13)14/h2-3,10H,1H3",
        "InChIKey": null,
        "Canonical SMILES": "O=N(=O)C=1C=C(C(O)=C(C1)C)N(=O)=O",
        "Molecular Formula": "C<sub>7</sub>H<sub>6</sub>N<sub>2</sub>O<sub>5</sub>",
        "Molecular Mass": "198.13",
        "Boiling Point": "220 °C",
        "Melting Point": "86.5 °C",
        "Density": "1.58 g/cm³ @ Temp: 20 °C"
    }
}