{
    "cas_no": "28320-32-3",
    "key_name": "2,7-Dibromo-9,9-dimethylfluorene",
    "cn_name": "2,7-二溴-9,9-二甲基芴;9,9-二甲基-2,7-二溴芴;",
    "alternate_name": "9<em>H</em>-Fluorene, 2,7-dibromo-9,9-dimethyl-;Fluorene, 2,7-dibromo-9,9-dimethyl-;2,7-Dibromo-9,9-dimethyl-9<em>H</em>-fluorene;2,7-Dibromo-9,9-dimethylfluorene;2,7-Dibromo-9,9′-dimethyl-9<em>H</em>-fluorene",
    "duplicated_cas_no": "",
    "SMILES": "CC1(C)C=2C(C=3C1=CC(Br)=CC3)=CC=C(Br)C2",
    "meta_data": {
        "InChI": "InChI=1S/C15H12Br2/c1-15(2)13-7-9(16)3-5-11(13)12-6-4-10(17)8-14(12)15/h3-8H,1-2H3",
        "InChIKey": null,
        "Canonical SMILES": "BrC=1C=CC=2C3=CC=C(Br)C=C3C(C2C1)(C)C",
        "Molecular Formula": "C<sub>15</sub>H<sub>12</sub>Br<sub>2</sub>",
        "Molecular Mass": "352.06",
        "Melting Point": "170-172 °C"
    }
}