{
    "cas_no": "4740-24-3",
    "key_name": "4-(Butylamino)benzoic acid",
    "cn_name": null,
    "alternate_name": "Benzoic acid, 4-(butylamino)-;Benzoic acid, <em>p</em>-(butylamino)-;4-(Butylamino)benzoic acid;<em>p</em>-Butylaminobenzoic acid;NSC 44300",
    "duplicated_cas_no": "",
    "SMILES": "N(CCCC)C1=CC=C(C(O)=O)C=C1",
    "meta_data": {
        "InChI": "InChI=1S/C11H15NO2/c1-2-3-8-12-10-6-4-9(5-7-10)11(13)14/h4-7,12H,2-3,8H2,1H3,(H,13,14)",
        "InChIKey": null,
        "Canonical SMILES": "O=C(O)C1=CC=C(C=C1)NCCCC",
        "Molecular Formula": "C<sub>11</sub>H<sub>15</sub>NO<sub>2</sub>",
        "Molecular Mass": "193.24",
        "Melting Point": "156 °C"
    }
}