{
    "cas_no": "1592-20-7",
    "key_name": "4-Vinylbenzyl chloride",
    "cn_name": "4-氯甲基苯乙烯;对氯甲基苯乙烯;",
    "alternate_name": "Benzene, 1-(chloromethyl)-4-ethenyl-;Styrene, <em>p</em>-(chloromethyl)-;1-(Chloromethyl)-4-ethenylbenzene;<em>p</em>-Vinylbenzyl chloride;<em>p</em>-(Chloromethyl)styrene;4-Vinylbenzyl chloride;4-(Chloromethyl)styrene;CMS 14;1-(Chloromethyl)-4-vinylbenzene;Ethanol, 2-[[(4-ethenylphenyl)methyl]amino]-, compd. with ethenylbenzene (1:1);CSM 14",
    "duplicated_cas_no": "2676172-65-7",
    "SMILES": "C(=C)C1=CC=C(CCl)C=C1",
    "meta_data": {
        "InChI": "InChI=1S/C9H9Cl/c1-2-8-3-5-9(7-10)6-4-8/h2-6H,1,7H2",
        "InChIKey": null,
        "Canonical SMILES": "ClCC1=CC=C(C=C)C=C1",
        "Molecular Formula": "C<sub>9</sub>H<sub>9</sub>Cl",
        "Molecular Mass": "152.62",
        "Boiling Point": "77.5-79 °C @ Press: 2 Torr"
    }
}