{
    "cas_no": "5890-18-6",
    "key_name": "(+)-Laurolitsine",
    "cn_name": "(S)-5,6,6A,7-四氢-1,10-二甲氧基-4H-二苯并[DE,G]喹啉-2,9-二醇;",
    "alternate_name": "4<em>H</em>-Dibenzo[<em>de</em>,<em>g</em>]quinoline-2,9-diol, 5,6,6a,7-tetrahydro-1,10-dimethoxy-, (6a<em>S</em>)-;Laurolitsine;Norboldine;6aα-Noraporphine-2,9-diol, 1,10-dimethoxy-;4<em>H</em>-Dibenzo[<em>de</em>,<em>g</em>]quinoline-2,9-diol, 5,6,6a,7-tetrahydro-1,10-dimethoxy-, (<em>S</em>)-;(6a<em>S</em>)-5,6,6a,7-Tetrahydro-1,10-dimethoxy-4<em>H</em>-dibenzo[<em>de</em>,<em>g</em>]quinoline-2,9-diol;(+)-Norboldine;(+)-Laurolitsine",
    "duplicated_cas_no": "",
    "SMILES": "O(C)C1=C2C=3[C@](CC=4C2=CC(OC)=C(O)C4)(NCCC3C=C1O)[H]",
    "meta_data": {
        "InChI": "InChI=1S/C18H19NO4/c1-22-15-8-11-10(7-13(15)20)5-12-16-9(3-4-19-12)6-14(21)18(23-2)17(11)16/h6-8,12,19-21H,3-5H2,1-2H3/t12-/m0/s1",
        "InChIKey": null,
        "Canonical SMILES": "OC1=CC2=C(C=C1OC)C3=C(OC)C(O)=CC4=C3C(NCC4)C2",
        "Molecular Formula": "C<sub>18</sub>H<sub>19</sub>NO<sub>4</sub>",
        "Molecular Mass": "313.35",
        "Melting Point": "138-140 °C"
    }
}