{
    "cas_no": "24939-16-0",
    "key_name": "Bis(4-hydroxycinnamoyl)methane",
    "cn_name": null,
    "alternate_name": "1,6-Heptadiene-3,5-dione, 1,7-bis(4-hydroxyphenyl)-;1,6-Heptadiene-3,5-dione, 1,7-bis(<em>p</em>-hydroxyphenyl)-;1,7-Bis(4-hydroxyphenyl)-1,6-heptadiene-3,5-dione;<em>p</em>,<em>p</em>′-Dihydroxydicinnamoylmethane;Bis(4-hydroxycinnamoyl)methane;Bisdemethoxycucurmin",
    "duplicated_cas_no": "1194789-09-7",
    "SMILES": "C(=CC(CC(C=CC1=CC=C(O)C=C1)=O)=O)C2=CC=C(O)C=C2",
    "meta_data": {
        "InChI": "InChI=1S/C19H16O4/c20-16-7-1-14(2-8-16)5-11-18(22)13-19(23)12-6-15-3-9-17(21)10-4-15/h1-12,20-21H,13H2",
        "InChIKey": null,
        "Canonical SMILES": "O=C(C=CC1=CC=C(O)C=C1)CC(=O)C=CC2=CC=C(O)C=C2",
        "Molecular Formula": "C<sub>19</sub>H<sub>16</sub>O<sub>4</sub>",
        "Molecular Mass": "308.33",
        "Melting Point": "218-220 °C (decomp)"
    }
}