{
    "cas_no": "59-32-5",
    "key_name": "Chloropyramine",
    "cn_name": "氯吡拉敏;氯吡胺;2-[(4-氯苄基)[2-(二甲基氨基)乙基]氨基]吡啶;",
    "alternate_name": "1,2-Ethanediamine, <em>N</em><sup>1</sup>-[(4-chlorophenyl)methyl]-<em>N</em><sup>2</sup>,<em>N</em><sup>2</sup>-dimethyl-<em>N</em><sup>1</sup>-2-pyridinyl-;Pyridine, 2-[(<em>p</em>-chlorobenzyl)[2-(dimethylamino)ethyl]amino]-;1,2-Ethanediamine, <em>N</em>-[(4-chlorophenyl)methyl]-<em>N</em>′,<em>N</em>′-dimethyl-<em>N</em>-2-pyridinyl-;<em>N</em><sup>1</sup>-[(4-Chlorophenyl)methyl]-<em>N</em><sup>2</sup>,<em>N</em><sup>2</sup>-dimethyl-<em>N</em><sup>1</sup>-2-pyridinyl-1,2-ethanediamine;Avapena;Chlorneoantergan;2-[(<em>p</em>-Chlorobenzyl)(2-dimethylaminoethyl)amino]pyridine;Chloropyramine;Chlorpyramine;<em>N</em>,<em>N</em>-Dimethyl-<em>N</em>′-(<em>p</em>-chlorobenzyl)-<em>N</em>′-(2-pyridyl)ethylenediamine;<em>N</em>,<em>N</em>-Dimethyl-<em>N</em>′-(2-pyridyl)-<em>N</em>′-(4-chlorobenzyl)ethylenediamine;Halopyramine;Suprastin;Synopen;Synpen;Synopen R;<em>N</em>-Dimethylaminoethyl-<em>N</em>-<em>p</em>-chlorobenzyl-α-aminopyridine;Chloropyribenzamine;Allergan S;NSC 241038;Subrestin;<em>N</em>′-[(4-Chlorophenyl)methyl]-<em>N</em>,<em>N</em>-dimethyl-<em>N</em>′-pyridin-2-yl-ethane-1,2-diamine;<em>N</em>-[(4-Chlorophenyl)methyl]-<em>N</em>-[2-(dimethylamino)ethyl]pyridine-2-amine",
    "duplicated_cas_no": "",
    "SMILES": "N(CC1=CC=C(Cl)C=C1)(CCN(C)C)C2=CC=CC=N2",
    "meta_data": {
        "InChI": "InChI=1S/C16H20ClN3/c1-19(2)11-12-20(16-5-3-4-10-18-16)13-14-6-8-15(17)9-7-14/h3-10H,11-13H2,1-2H3",
        "InChIKey": null,
        "Canonical SMILES": "ClC1=CC=C(C=C1)CN(C2=NC=CC=C2)CCN(C)C",
        "Molecular Formula": "C<sub>16</sub>H<sub>20</sub>ClN<sub>3</sub>",
        "Molecular Mass": "289.80",
        "Boiling Point": "154.5 °C",
        "Melting Point": "&lt;25 °C"
    }
}