{
    "cas_no": "20082-71-7",
    "key_name": "Chlorodimethyl(pentafluorophenyl)silane",
    "cn_name": "五氟苯基二甲基氯硅烷;",
    "alternate_name": "Benzene, 1-(chlorodimethylsilyl)-2,3,4,5,6-pentafluoro-;Silane, chlorodimethyl(pentafluorophenyl)-;1-(Chlorodimethylsilyl)-2,3,4,5,6-pentafluorobenzene;Flophemesyl chloride;Chlorodimethyl(pentafluorophenyl)silane;(Pentafluorophenyl)dimethylchlorosilane;(Pentafluorophenyl)dimethylsilyl chloride",
    "duplicated_cas_no": "",
    "SMILES": "[Si](C)(C)(Cl)C1=C(F)C(F)=C(F)C(F)=C1F",
    "meta_data": {
        "InChI": "InChI=1S/C8H6ClF5Si/c1-15(2,9)8-6(13)4(11)3(10)5(12)7(8)14/h1-2H3",
        "InChIKey": null,
        "Canonical SMILES": "FC=1C(F)=C(F)C(=C(F)C1F)[Si](Cl)(C)C",
        "Molecular Formula": "C<sub>8</sub>H<sub>6</sub>ClF<sub>5</sub>Si",
        "Molecular Mass": "260.66",
        "Boiling Point": "88-90 °C @ Press: 10 Torr",
        "Density": "1.367 g/cm³ @ Temp: 25 °C"
    }
}