{
    "cas_no": "163229-48-9",
    "key_name": "1-(1,1-Dimethylethyl) 2-methyl 1<em>H</em>-indole-1,2-dicarboxylate",
    "cn_name": null,
    "alternate_name": "1<em>H</em>-Indole-1,2-dicarboxylic acid, 1-(1,1-dimethylethyl) 2-methyl ester;1-(1,1-Dimethylethyl) 2-methyl 1<em>H</em>-indole-1,2-dicarboxylate;1-(<em>tert</em>-Butyl) 2-methyl 1<em>H</em>-indole-1,2-dicarboxylate;Methyl <em>N</em>-Boc-indole-2-carboxylate",
    "duplicated_cas_no": "",
    "SMILES": "C(OC(C)(C)C)(=O)N1C=2C(C=C1C(OC)=O)=CC=CC2",
    "meta_data": {
        "InChI": "InChI=1S/C15H17NO4/c1-15(2,3)20-14(18)16-11-8-6-5-7-10(11)9-12(16)13(17)19-4/h5-9H,1-4H3",
        "InChIKey": null,
        "Canonical SMILES": "O=C(OC)C1=CC=2C=CC=CC2N1C(=O)OC(C)(C)C",
        "Molecular Formula": "C<sub>15</sub>H<sub>17</sub>NO<sub>4</sub>",
        "Molecular Mass": "275.30",
        "Melting Point": "65.0-65.5 °C"
    }
}