{
    "cas_no": "5429-85-6",
    "key_name": "Oleic acid anilide",
    "cn_name": null,
    "alternate_name": "9-Octadecenamide, <em>N</em>-phenyl-, (9<em>Z</em>)-;9-Octadecenamide, <em>N</em>-phenyl-, (<em>Z</em>)-;Oleanilide;(9<em>Z</em>)-<em>N</em>-Phenyl-9-octadecenamide;Oleic acid anilide;Oleoylanilide;Oleyl anilide;<em>N</em>-Phenyloleamide",
    "duplicated_cas_no": "",
    "SMILES": "N(C(CCCCCCC/C=C\\CCCCCCCC)=O)C1=CC=CC=C1",
    "meta_data": {
        "InChI": "InChI=1S/C24H39NO/c1-2-3-4-5-6-7-8-9-10-11-12-13-14-15-19-22-24(26)25-23-20-17-16-18-21-23/h9-10,16-18,20-21H,2-8,11-15,19,22H2,1H3,(H,25,26)/b10-9-",
        "InChIKey": null,
        "Canonical SMILES": "O=C(NC=1C=CC=CC1)CCCCCCCC=CCCCCCCCC",
        "Molecular Formula": "C<sub>24</sub>H<sub>39</sub>NO",
        "Molecular Mass": "357.57",
        "Melting Point": "41 °C"
    }
}