{
    "cas_no": "13726-85-7",
    "key_name": "BOC-<span class=\"text-smallcaps\">L</span>-glutamine",
    "cn_name": "BOC-L-谷氨酰胺;N-叔丁氧羰基-L-谷氨酰胺;",
    "alternate_name": "<span class=\"text-smallcaps\">L</span>-Glutamine, <em>N</em><sup>2</sup>-[(1,1-dimethylethoxy)carbonyl]-;Glutamine, <em>N</em><sup>2</sup>-carboxy-, <em>N</em><sup>2</sup>-<em>tert</em>-butyl ester, <span class=\"text-smallcaps\">L</span>-;Glutamine, <em>N</em><sup>2</sup>-carboxy-, <em>N</em>-<em>tert</em>-butyl ester;<em>N</em><sup>2</sup>-[(1,1-Dimethylethoxy)carbonyl]-<span class=\"text-smallcaps\">L</span>-glutamine;<em>tert</em>-Butoxycarbonyl-<span class=\"text-smallcaps\">L</span>-glutamine;<em>N</em><sup>α</sup>-<em>tert</em>-Butoxycarbonyl-<span class=\"text-smallcaps\">L</span>-glutamine;<em>N</em><sup>2</sup>-<em>tert</em>-Butoxycarbonyl-<span class=\"text-smallcaps\">L</span>-glutamine;<em>N</em>-(<em>tert</em>-Butoxycarbonyl)glutamine;BOC-glutamine;<em>N</em><sup>α</sup>-(<em>tert</em>-Butoxycarbonyl)glutamine;<em>N</em>-(<em>tert</em>-Butoxycarbonyl)-<span class=\"text-smallcaps\">L</span>-glutamine;BOC-<span class=\"text-smallcaps\">L</span>-glutamine;NSC 334370;(<em>S</em>)-2-[(<em>tert</em>-Butoxycarbonyl)amino]-4-carbamoylbutanoic acid;(<em>S</em>)-5-Amino-2-[(<em>tert</em>-butoxycarbonyl)amino]-5-oxopentanoic acid;(2S)-5-Amino-2-[(2-methylpropan-2-yl)oxycarbonylamino]-5-oxopentanoic acid;(2S)-2-[(<em>tert</em>-Butoxycarbonyl)amino]-4-carbamoylbutanoic acid",
    "duplicated_cas_no": "2483-14-9",
    "SMILES": "[C@H](NC(OC(C)(C)C)=O)(CCC(N)=O)C(O)=O",
    "meta_data": {
        "InChI": "InChI=1S/C10H18N2O5/c1-10(2,3)17-9(16)12-6(8(14)15)4-5-7(11)13/h6H,4-5H2,1-3H3,(H2,11,13)(H,12,16)(H,14,15)/t6-/m0/s1",
        "InChIKey": null,
        "Canonical SMILES": "O=C(OC(C)(C)C)NC(C(=O)O)CCC(=O)N",
        "Molecular Formula": "C<sub>10</sub>H<sub>18</sub>N<sub>2</sub>O<sub>5</sub>",
        "Molecular Mass": "246.26",
        "Melting Point": "48.0-49.8 °C"
    }
}