{
    "cas_no": "1335-32-6",
    "key_name": "Lead acetate (Pb<sub>3</sub>(AcO)<sub>2</sub>(OH)<sub>4</sub>)",
    "cn_name": "双乙酸四羟三铅;碱式乙酸铅;盐基性醋酸铅;",
    "alternate_name": "Lead, bis(acetato-κ<em>O</em>)tetrahydroxytri-;Lead, bis(acetato)tetrahydroxytri-;Lead, bis(acetato-<em>O</em>)tetrahydroxytri-;Lead acetate (Pb<sub>3</sub>(AcO)<sub>2</sub>(OH)<sub>4</sub>);Lead, subacetate;Bis(acetato)dihydroxytrilead;Lead acetate, basic;Monobasic lead acetate;Lead acetate hydroxide (Pb<sub>3</sub>(OAc)<sub>2</sub>(OH)<sub>4</sub>)",
    "duplicated_cas_no": "",
    "SMILES": "",
    "meta_data": {
        "InChI": "",
        "InChIKey": null,
        "Canonical SMILES": "",
        "Molecular Formula": "C<sub>4</sub>H<sub>10</sub>O<sub>8</sub>Pb<sub>3</sub>",
        "Molecular Mass": "",
        "Melting Point": "75 °C"
    }
}