{
    "uri": "substance/pt/1335326",
    "rn": "1335-32-6",
    "name": "Lead acetate (Pb<sub>3</sub>(AcO)<sub>2</sub>(OH)<sub>4</sub>)",
    "images": [],
    "inchi": "",
    "inchiKey": "",
    "smile": "",
    "canonicalSmile": "",
    "molecularFormula": "C<sub>4</sub>H<sub>10</sub>O<sub>8</sub>Pb<sub>3</sub>",
    "molecularMass": "",
    "experimentalProperties": [
        {
            "name": "Melting Point",
            "property": "75 °C",
            "sourceNumber": 1
        }
    ],
    "propertyCitations": [
        {
            "docUri": "",
            "sourceNumber": 1,
            "source": "Hazardous Substances Data Bank data were obtained from the National Library of Medicine (US)"
        }
    ],
    "synonyms": [
        "Lead, bis(acetato-κ<em>O</em>)tetrahydroxytri-",
        "Lead, bis(acetato)tetrahydroxytri-",
        "Lead, bis(acetato-<em>O</em>)tetrahydroxytri-",
        "Lead acetate (Pb<sub>3</sub>(AcO)<sub>2</sub>(OH)<sub>4</sub>)",
        "Lead, subacetate",
        "Bis(acetato)dihydroxytrilead",
        "Lead acetate, basic",
        "Monobasic lead acetate",
        "Lead acetate hydroxide (Pb<sub>3</sub>(OAc)<sub>2</sub>(OH)<sub>4</sub>)"
    ],
    "replacedRns": [],
    "hasMolfile": false,
    "source": "https://commonchemistry.cas.org/detail?cas_rn=1335-32-6"
}