{
    "cas_no": "92-39-7",
    "key_name": "2-Chlorophenothiazine",
    "cn_name": "2-氯吩噻嗪;",
    "alternate_name": "10<em>H</em>-Phenothiazine, 2-chloro-;Phenothiazine, 2-chloro-;2-Chloro-10<em>H</em>-phenothiazine;2-Chlorophenothiazine;NSC 170953;NSC 17469;NSC 67188",
    "duplicated_cas_no": "",
    "SMILES": "ClC=1C=C2C(SC=3C(N2)=CC=CC3)=CC1",
    "meta_data": {
        "InChI": "InChI=1S/C12H8ClNS/c13-8-5-6-12-10(7-8)14-9-3-1-2-4-11(9)15-12/h1-7,14H",
        "InChIKey": null,
        "Canonical SMILES": "ClC1=CC=C2SC=3C=CC=CC3NC2=C1",
        "Molecular Formula": "C<sub>12</sub>H<sub>8</sub>ClNS",
        "Molecular Mass": "233.72",
        "Melting Point": "199.5 °C"
    }
}