{
    "cas_no": "2327-02-8",
    "key_name": "<em>N</em>-(3,4-Dichlorophenyl)urea",
    "cn_name": null,
    "alternate_name": "Urea, <em>N</em>-(3,4-dichlorophenyl)-;Urea, (3,4-dichlorophenyl)-;<em>N</em>-(3,4-Dichlorophenyl)urea;1-(3,4-Dichlorophenyl)urea;3,4-Dichlorophenylurea;3,4-DCPU;DCPU;Didemethyldiuron;Monouron;Diuron-desdimethyl",
    "duplicated_cas_no": "",
    "SMILES": "N(C(N)=O)C1=CC(Cl)=C(Cl)C=C1",
    "meta_data": {
        "InChI": "InChI=1S/C7H6Cl2N2O/c8-5-2-1-4(3-6(5)9)11-7(10)12/h1-3H,(H3,10,11,12)",
        "InChIKey": null,
        "Canonical SMILES": "O=C(N)NC1=CC=C(Cl)C(Cl)=C1",
        "Molecular Formula": "C<sub>7</sub>H<sub>6</sub>Cl<sub>2</sub>N<sub>2</sub>O",
        "Molecular Mass": "205.04",
        "Melting Point": "155.6-156.3 °C"
    }
}