{
    "cas_no": "98753-19-6",
    "key_name": "Cefpirome sulfate",
    "cn_name": "硫酸头孢匹罗;1-[7-(2-氨基-4-噻唑基)-2-(甲氧亚氨基)乙酰氨基]-2-羧基-8-氧代-5-硫杂-1-氮杂双环[4.2.0]辛;",
    "alternate_name": "5<em>H</em>-Cyclopenta[<em>b</em>]pyridinium, 1-[[(6<em>R</em>,7<em>R</em>)-7-[[(2<em>Z</em>)-(2-amino-4-thiazolyl)(methoxyimino)acetyl]amino]-2-carboxy-8-oxo-5-thia-1-azabicyclo[4.2.0]oct-2-en-3-yl]methyl]-6,7-dihydro-, sulfate (1:1);HR 810 sulfate;Cefpirome sulfate;Keiten;Broact",
    "duplicated_cas_no": "128401-54-7;92682-19-4;160888-38-0",
    "SMILES": "C(O)(=O)C=1N2[C@@]([C@H](NC(/C(=N\\OC)/C3=CSC(N)=N3)=O)C2=O)(SCC1C[N+]4=C5C(CCC5)=CC=C4)[H].S(=O)(=O)([O-])O",
    "meta_data": {
        "InChI": "InChI=1S/C22H22N6O5S2.H2O4S/c1-33-26-15(13-10-35-22(23)24-13)18(29)25-16-19(30)28-17(21(31)32)12(9-34-20(16)28)8-27-7-3-5-11-4-2-6-14(11)27;1-5(2,3)4/h3,5,7,10,16,20H,2,4,6,8-9H2,1H3,(H3-,23,24,25,29,31,32);(H2,1,2,3,4)/b26-15-;/t16-,20-;/m1./s1",
        "InChIKey": null,
        "Canonical SMILES": "O=C(O)C1=C(CSC2N1C(=O)C2NC(=O)C(=NOC)C=3N=C(SC3)N)C[N+]=4C=CC=C5C4CCC5.O=S(=O)([O-])O",
        "Molecular Formula": "C<sub>22</sub>H<sub>23</sub>N<sub>6</sub>O<sub>5</sub>S<sub>2</sub>.HO<sub>4</sub>S",
        "Molecular Mass": "",
        "Melting Point": "&gt;200 °C"
    }
}