{
    "cas_no": "57224-50-7",
    "key_name": "(2<em>S</em>)-2-Amino-4,4-dimethylpentanoic acid",
    "cn_name": "L-α-新戊基甘氨酸;γ-甲基-L-亮氨酸;(S)-2-氨基-4,4-甲基戊酸;L-γ-甲基异亮氨酸;",
    "alternate_name": "Pentanoic acid, 2-amino-4,4-dimethyl-, (2<em>S</em>)-;<span class=\"text-smallcaps\">L</span>-Leucine, 4-methyl-;(2<em>S</em>)-2-Amino-4,4-dimethylpentanoic acid;<span class=\"text-smallcaps\">L</span>-γ-Methylleucine;4-Methyl-<span class=\"text-smallcaps\">L</span>-leucine;<span class=\"text-smallcaps\">L</span>-2-Amino-4,4-dimethylpentanoic acid;γ-Methyl-<span class=\"text-smallcaps\">L</span>-leucine;(2S)-2-Amino-4,4-dimethylpentanoic acid;3-<em>tert</em>-Butyl-<span class=\"text-smallcaps\">L</span>-alanine;<span class=\"text-smallcaps\">L</span>-α-Neopentylglycine",
    "duplicated_cas_no": "1013313-58-0",
    "SMILES": "[C@H](CC(C)(C)C)(C(O)=O)N",
    "meta_data": {
        "InChI": "InChI=1S/C7H15NO2/c1-7(2,3)4-5(8)6(9)10/h5H,4,8H2,1-3H3,(H,9,10)/t5-/m0/s1",
        "InChIKey": null,
        "Canonical SMILES": "O=C(O)C(N)CC(C)(C)C",
        "Molecular Formula": "C<sub>7</sub>H<sub>15</sub>NO<sub>2</sub>",
        "Molecular Mass": "145.20",
        "Melting Point": "208-210 °C"
    }
}