{
    "cas_no": "1113-41-3",
    "key_name": "<span class=\"text-smallcaps\">L</span>-Penicillamine",
    "cn_name": "3-巯基谷胺酸;3-巯基谷氨酸;",
    "alternate_name": "<span class=\"text-smallcaps\">L</span>-Valine, 3-mercapto-;Valine, 3-mercapto-, <span class=\"text-smallcaps\">L</span>-;3-Mercapto-<span class=\"text-smallcaps\">L</span>-valine;<span class=\"text-smallcaps\">L</span>-Penicillamine;(<em>R</em>)-Penicillamine;(+)-Penicillamine;NSC 241261;(R)-2-Amino-3-mercapto-3-methylbutanoic acid;(2R)-2-Amino-3-methyl-3-sulfanylbutanoic acid",
    "duplicated_cas_no": "16414-53-2;73706-37-3",
    "SMILES": "[C@H](C(C)(C)S)(C(O)=O)N",
    "meta_data": {
        "InChI": "InChI=1S/C5H11NO2S/c1-5(2,9)3(6)4(7)8/h3,9H,6H2,1-2H3,(H,7,8)/t3-/m1/s1",
        "InChIKey": null,
        "Canonical SMILES": "O=C(O)C(N)C(S)(C)C",
        "Molecular Formula": "C<sub>5</sub>H<sub>11</sub>NO<sub>2</sub>S",
        "Molecular Mass": "149.21",
        "Melting Point": "190-194 °C"
    }
}