{
    "cas_no": "79-10-7",
    "key_name": "Acrylic acid",
    "cn_name": "丙烯酸;2-丙烯酸;败酯酸;",
    "alternate_name": "2-Propenoic acid;Acrylic acid;Acroleic acid;Ethylenecarboxylic acid;Vinylformic acid;Propenoic acid;NSC 4765;LX 300;LX 300 (crosslinking agent);B 60-1;HF 3050;Liroudan FR-RV;Relugan FR-RV;RA 238;TM 1202;Acrylic Acid Glacial;BF 9011;YLH 023",
    "duplicated_cas_no": "55927-87-2;166941-59-9;211862-52-1;1265528-53-7;1453489-99-0;1644624-02-1;1703019-10-6;1873349-31-5;2015239-27-5;2133361-51-8",
    "SMILES": "C(C=C)(O)=O",
    "meta_data": {
        "InChI": "InChI=1S/C3H4O2/c1-2-3(4)5/h2H,1H2,(H,4,5)",
        "InChIKey": null,
        "Canonical SMILES": "O=C(O)C=C",
        "Molecular Formula": "C<sub>3</sub>H<sub>4</sub>O<sub>2</sub>",
        "Molecular Mass": "72.06",
        "Boiling Point": "141 °C @ Press: 760 Torr",
        "Melting Point": "12.3 °C",
        "Density": "1.0511 g/cm³ @ Temp: 20 °C"
    }
}