{
    "cas_no": "624-48-6",
    "key_name": "Dimethyl maleate",
    "cn_name": "马来酸二甲酯;顺丁烯二酸二甲酯;",
    "alternate_name": "2-Butenedioic acid (2<em>Z</em>)-, 1,4-dimethyl ester;Maleic acid, dimethyl ester;2-Butenedioic acid (<em>Z</em>)-, dimethyl ester;2-Butenedioic acid (2<em>Z</em>)-, dimethyl ester;Dimethyl maleate;Methyl maleate;Sipomer DMM;Dimethyl <em>cis</em>-ethylenedicarboxylate;Dimethyl (<em>Z</em>)-butenedioate;Dimethyl <em>cis</em>-ethenedicarboxylate;Dimethyl <em>cis</em>-butenedioate;(<em>Z</em>)-Dimethyl 2-butenedioate;(2<em>Z</em>)-2-Butenedioic acid dimethyl ester;Dimethyl (Z)-but-2-enedioate;(Z)-2-Butenedioic acid dimethyl ester;1,4-Dimethyl (2Z)-but-2-enedioate",
    "duplicated_cas_no": "",
    "SMILES": "C(/C=C\\C(OC)=O)(OC)=O",
    "meta_data": {
        "InChI": "InChI=1S/C6H8O4/c1-9-5(7)3-4-6(8)10-2/h3-4H,1-2H3/b4-3-",
        "InChIKey": null,
        "Canonical SMILES": "O=C(OC)C=CC(=O)OC",
        "Molecular Formula": "C<sub>6</sub>H<sub>8</sub>O<sub>4</sub>",
        "Molecular Mass": "144.13",
        "Boiling Point": "202 °C",
        "Melting Point": "-19 °C",
        "Density": "1.34 g/cm³ @ Temp: -33 °C"
    }
}