{
    "cas_no": "636-93-1",
    "key_name": "5-Nitroguaiacol",
    "cn_name": "2-甲氧基-5-硝基苯酚;5-硝基愈创木酚;",
    "alternate_name": "Phenol, 2-methoxy-5-nitro-;Guaiacol, 5-nitro-;2-Methoxy-5-nitrophenol;5-Nitroguaiacol;3-Hydroxy-4-methoxynitrobenzene;4-Nitro-2-hydroxyanisole;3-Nitro-6-methoxyphenol;2-Hydroxy-4-nitroanisole",
    "duplicated_cas_no": "",
    "SMILES": "N(=O)(=O)C1=CC(O)=C(OC)C=C1",
    "meta_data": {
        "InChI": "InChI=1S/C7H7NO4/c1-12-7-3-2-5(8(10)11)4-6(7)9/h2-4,9H,1H3",
        "InChIKey": null,
        "Canonical SMILES": "O=N(=O)C1=CC=C(OC)C(O)=C1",
        "Molecular Formula": "C<sub>7</sub>H<sub>7</sub>NO<sub>4</sub>",
        "Molecular Mass": "169.13",
        "Melting Point": "103-104 °C"
    }
}