{
    "cas_no": "135-00-2",
    "key_name": "2-Benzoylthiophene",
    "cn_name": "2-苯甲酰噻吩;",
    "alternate_name": "Methanone, phenyl-2-thienyl-;Ketone, phenyl 2-thienyl;Phenyl-2-thienylmethanone;Phenyl 2-thienyl ketone;2-Benzoylthiophene;α-Benzoylthiophene;2-Thienyl phenyl ketone;Phenyl(2-thienyl)methanone;NSC 4502;Phenyl thiophene-2-yl ketone",
    "duplicated_cas_no": "",
    "SMILES": "C(=O)(C1=CC=CS1)C2=CC=CC=C2",
    "meta_data": {
        "InChI": "InChI=1S/C11H8OS/c12-11(10-7-4-8-13-10)9-5-2-1-3-6-9/h1-8H",
        "InChIKey": null,
        "Canonical SMILES": "O=C(C=1SC=CC1)C=2C=CC=CC2",
        "Molecular Formula": "C<sub>11</sub>H<sub>8</sub>OS",
        "Molecular Mass": "188.25",
        "Boiling Point": "300 °C",
        "Melting Point": "56.5 °C"
    }
}