{
    "cas_no": "13831-31-7",
    "key_name": "2-(Acetyloxy)acetyl chloride",
    "cn_name": "乙酰氧基乙酰氯;",
    "alternate_name": "Acetyl chloride, 2-(acetyloxy)-;Glycoloyl chloride, acetate;Acetyl chloride, (acetyloxy)-;2-(Acetyloxy)acetyl chloride;Acetoxyacetyl chloride;Acetylglycoloyl chloride;2-Acetoxyacetyl chloride;(Acetyloxy)acetyl chloride;α-Acetoxyacetyl chloride;Acetic acid (chlorocarbonyl)methyl ester;2-Chloro-2-oxoethyl acetate;(Chlorocarbonyl)methyl acetate",
    "duplicated_cas_no": "",
    "SMILES": "C(OC(C)=O)C(Cl)=O",
    "meta_data": {
        "InChI": "InChI=1S/C4H5ClO3/c1-3(6)8-2-4(5)7/h2H2,1H3",
        "InChIKey": null,
        "Canonical SMILES": "O=C(Cl)COC(=O)C",
        "Molecular Formula": "C<sub>4</sub>H<sub>5</sub>ClO<sub>3</sub>",
        "Molecular Mass": "136.53",
        "Boiling Point": "55 °C @ Press: 12 Torr",
        "Melting Point": "159-160 °C"
    }
}