{
    "cas_no": "1878-66-6",
    "key_name": "(4-Chlorophenyl)acetic acid",
    "cn_name": "对氯苯乙酸;4-氯苯乙酸;",
    "alternate_name": "Benzeneacetic acid, 4-chloro-;Acetic acid, (<em>p</em>-chlorophenyl)-;4-Chlorobenzeneacetic acid;(<em>p</em>-Chlorophenyl)acetic acid;2-(<em>p</em>-Chlorophenyl)acetic acid;(4-Chlorophenyl)acetic acid;PCPA;2-(4-Chlorophenyl)acetic acid;NSC 14285",
    "duplicated_cas_no": "",
    "SMILES": "C(C(O)=O)C1=CC=C(Cl)C=C1",
    "meta_data": {
        "InChI": "InChI=1S/C8H7ClO2/c9-7-3-1-6(2-4-7)5-8(10)11/h1-4H,5H2,(H,10,11)",
        "InChIKey": null,
        "Canonical SMILES": "O=C(O)CC1=CC=C(Cl)C=C1",
        "Molecular Formula": "C<sub>8</sub>H<sub>7</sub>ClO<sub>2</sub>",
        "Molecular Mass": "170.59",
        "Melting Point": "105-108 °C",
        "Density": "1.21 g/cm³"
    }
}