{
    "cas_no": "19406-51-0",
    "key_name": "4-Amino-2,6-dinitrotoluene",
    "cn_name": null,
    "alternate_name": "Benzenamine, 4-methyl-3,5-dinitro-;<em>p</em>-Toluidine, 3,5-dinitro-;4-Methyl-3,5-dinitrobenzenamine;3,5-Dinitro-4-methylaniline;4-Amino-2,6-dinitrotoluene;2,6-Dinitro-4-aminotoluene;1-Amino-3,5-dinitro-4-methylbenzene;3,5-Dinitro-<em>p</em>-toluidine;4-Methyl-3,5-dinitroaniline;NSC 25010;NSC 55353;4-ADNT",
    "duplicated_cas_no": "",
    "SMILES": "N(=O)(=O)C1=C(C)C(N(=O)=O)=CC(N)=C1",
    "meta_data": {
        "InChI": "InChI=1S/C7H7N3O4/c1-4-6(9(11)12)2-5(8)3-7(4)10(13)14/h2-3H,8H2,1H3",
        "InChIKey": null,
        "Canonical SMILES": "O=N(=O)C1=CC(N)=CC(=C1C)N(=O)=O",
        "Molecular Formula": "C<sub>7</sub>H<sub>7</sub>N<sub>3</sub>O<sub>4</sub>",
        "Molecular Mass": "197.15",
        "Melting Point": "171 °C"
    }
}