{
    "cas_no": "3731-52-0",
    "key_name": "3-Pyridinemethanamine",
    "cn_name": "3-氨甲基吡啶;3-吡啶甲胺;",
    "alternate_name": "3-Pyridinemethanamine;Pyridine, 3-(aminomethyl)-;3-Picolylamine;3-Pyridylmethylamine;3-(Aminomethyl)pyridine;3-Pyridinemethylamine;β-Pyridylmethylamine;Picolamine;(3-Pyridinylmethyl)amine;1-(Pyridin-3-yl)methanamine;NSC 59706;Pyridin-3-ylmethanamine;3-Pyridylmethanamine;<em>N</em>-(3-Pyridylmethyl)amine;<em>m</em>-Picolylamine",
    "duplicated_cas_no": "",
    "SMILES": "C(N)C=1C=CC=NC1",
    "meta_data": {
        "InChI": "InChI=1S/C6H8N2/c7-4-6-2-1-3-8-5-6/h1-3,5H,4,7H2",
        "InChIKey": null,
        "Canonical SMILES": "N=1C=CC=C(C1)CN",
        "Molecular Formula": "C<sub>6</sub>H<sub>8</sub>N<sub>2</sub>",
        "Molecular Mass": "108.14",
        "Boiling Point": "226 °C",
        "Melting Point": "-21.1 °C",
        "Density": "1.062 g/cm³ @ Temp: 25 °C"
    }
}