{
    "cas_no": "556-53-6",
    "key_name": "Propylammonium chloride",
    "cn_name": null,
    "alternate_name": "1-Propanamine, hydrochloride (1:1);Propylamine, hydrochloride;1-Propanamine, hydrochloride;1-Propylammonium chloride;Propylammonium chloride;<em>n</em>-Propylamine hydrochloride;<em>n</em>-Propylammonium chloride;1-Aminopropane hydrochloride",
    "duplicated_cas_no": "",
    "SMILES": "C(CN)C.Cl",
    "meta_data": {
        "InChI": "InChI=1S/C3H9N.ClH/c1-2-3-4;/h2-4H2,1H3;1H",
        "InChIKey": null,
        "Canonical SMILES": "Cl.NCCC",
        "Molecular Formula": "C<sub>3</sub>H<sub>9</sub>N.ClH",
        "Molecular Mass": "",
        "Melting Point": "161 °C"
    }
}