{
    "cas_no": "14002-80-3",
    "key_name": "Methyl 3-hydroxy-2,2-dimethylpropanoate",
    "cn_name": "羟基三甲基乙酸甲酯;",
    "alternate_name": "Propanoic acid, 3-hydroxy-2,2-dimethyl-, methyl ester;Hydracrylic acid, 2,2-dimethyl-, methyl ester;Methyl β-hydroxypivalate;Methyl 3-hydroxy-2,2-dimethylpropanoate;Methyl hydroxypivalate;2-Methoxycarbonyl-2-methylpropan-1-ol;Methyl 2,2-dimethyl-3-hydroxypropionate;Hydroxypivalic acid methyl ester;2,2-Dimethyl-3-hydroxypropanoic acid methyl ester;Methyl 3-hydroxy-2,2-dimethylpropionate;3-Hydroxy-2,2-dimethylpropionic acid methyl ester;Methyl 2,2-dimethyl-3-hydroxypropanoate;3-Hydroxy-2,2-dimethylpropanoic acid methyl ester",
    "duplicated_cas_no": "",
    "SMILES": "C(C(OC)=O)(CO)(C)C",
    "meta_data": {
        "InChI": "InChI=1S/C6H12O3/c1-6(2,4-7)5(8)9-3/h7H,4H2,1-3H3",
        "InChIKey": null,
        "Canonical SMILES": "O=C(OC)C(C)(C)CO",
        "Molecular Formula": "C<sub>6</sub>H<sub>12</sub>O<sub>3</sub>",
        "Molecular Mass": "132.16",
        "Boiling Point": "65 °C @ Press: 10 Torr"
    }
}