{
    "cas_no": "6876-37-5",
    "key_name": "Methylammonium bromide",
    "cn_name": null,
    "alternate_name": "Methanamine, hydrobromide;Methylamine, hydrobromide;Methylammonium bromide;MABr",
    "duplicated_cas_no": "",
    "SMILES": "CN.Br",
    "meta_data": {
        "InChI": "InChI=1S/CH5N.BrH/c1-2;/h2H2,1H3;1H",
        "InChIKey": null,
        "Canonical SMILES": "Br.NC",
        "Molecular Formula": "CH<sub>5</sub>N.BrH",
        "Molecular Mass": "",
        "Melting Point": "246 °C"
    }
}