{
    "cas_no": "42609-73-4",
    "key_name": "Methyldymron",
    "cn_name": null,
    "alternate_name": "Urea, <em>N</em>-methyl-<em>N</em>′-(1-methyl-1-phenylethyl)-<em>N</em>-phenyl-;<em>N</em>-Methyl-<em>N</em>′-(1-methyl-1-phenylethyl)-<em>N</em>-phenylurea;<em>N</em>-Methyl-<em>N</em>-phenyl-<em>N</em>′-(2-phenylisopropyl)urea;<em>N</em>-(α,α-Dimethylbenzyl)-<em>N</em><sup>′</sup>-methyl-<em>N</em><sup>′</sup>-phenylurea;K 1441;Dimelon-methyl;Methyldymron;1-Methyl-1-phenyl-3-(2-phenylpropan-2-yl)urea",
    "duplicated_cas_no": "",
    "SMILES": "N(C(NC(C)(C)C1=CC=CC=C1)=O)(C)C2=CC=CC=C2",
    "meta_data": {
        "InChI": "InChI=1S/C17H20N2O/c1-17(2,14-10-6-4-7-11-14)18-16(20)19(3)15-12-8-5-9-13-15/h4-13H,1-3H3,(H,18,20)",
        "InChIKey": null,
        "Canonical SMILES": "O=C(NC(C=1C=CC=CC1)(C)C)N(C=2C=CC=CC2)C",
        "Molecular Formula": "C<sub>17</sub>H<sub>20</sub>N<sub>2</sub>O",
        "Molecular Mass": "268.35",
        "Melting Point": "72 °C"
    }
}