{
    "cas_no": "4215-80-9",
    "key_name": "1,1,1-Triphenylsilanamine",
    "cn_name": null,
    "alternate_name": "Silanamine, 1,1,1-triphenyl-;Silylamine, 1,1,1-triphenyl-;1,1,1-Triphenylsilanamine;(Triphenylsilyl)amine;Aminotriphenylsilane;[Amino(diphenyl)silyl]benzene;1,1,1-Triphenylsilylamine",
    "duplicated_cas_no": "",
    "SMILES": "[Si](N)(C1=CC=CC=C1)(C2=CC=CC=C2)C3=CC=CC=C3",
    "meta_data": {
        "InChI": "InChI=1S/C18H17NSi/c19-20(16-10-4-1-5-11-16,17-12-6-2-7-13-17)18-14-8-3-9-15-18/h1-15H,19H2",
        "InChIKey": null,
        "Canonical SMILES": "N[Si](C=1C=CC=CC1)(C=2C=CC=CC2)C=3C=CC=CC3",
        "Molecular Formula": "C<sub>18</sub>H<sub>17</sub>NSi",
        "Molecular Mass": "275.42",
        "Boiling Point": "187-200 °C @ Press: 2 Torr",
        "Melting Point": "60-62 °C"
    }
}