{
    "cas_no": "1575-96-8",
    "key_name": "2-Methyl-1-naphthalenecarboxylic acid",
    "cn_name": null,
    "alternate_name": "1-Naphthalenecarboxylic acid, 2-methyl-;1-Naphthoic acid, 2-methyl-;2-Methyl-1-naphthalenecarboxylic acid;2-Methyl-1-naphthoic acid;2-Methyl-α-naphthoic acid;2-Methylnaphthalene-1-carboxylic acid",
    "duplicated_cas_no": "",
    "SMILES": "C(O)(=O)C=1C2=C(C=CC1C)C=CC=C2",
    "meta_data": {
        "InChI": "InChI=1S/C12H10O2/c1-8-6-7-9-4-2-3-5-10(9)11(8)12(13)14/h2-7H,1H3,(H,13,14)",
        "InChIKey": null,
        "Canonical SMILES": "O=C(O)C=1C=2C=CC=CC2C=CC1C",
        "Molecular Formula": "C<sub>12</sub>H<sub>10</sub>O<sub>2</sub>",
        "Molecular Mass": "186.21",
        "Melting Point": "126-127 °C"
    }
}