{
    "cas_no": "19980-43-9",
    "key_name": "1-[(Trimethylsilyl)oxy]cyclopentene",
    "cn_name": "1-(三甲基硅氧基)环戊烯;",
    "alternate_name": "Cyclopentene, 1-[(trimethylsilyl)oxy]-;Silane, (1-cyclopenten-1-yloxy)trimethyl-;1-[(Trimethylsilyl)oxy]cyclopentene;1-(Trimethylsilyloxy)cyclopentene;1-Cyclopentenyl trimethylsilyl ether;1-(Trimethylsiloxy)cyclopentene;1-(Trimethylsilyloxy)-1-cyclopentene;(1-Cyclopentenyloxy)trimethylsilane;(1-Cyclopenten-1-yloxy)trimethylsilane;1-(Trimethylsiloxy)-1-cyclopentene;Cyclopentanone trimethylsilyl enol ether",
    "duplicated_cas_no": "",
    "SMILES": "O([Si](C)(C)C)C=1CCCC1",
    "meta_data": {
        "InChI": "InChI=1S/C8H16OSi/c1-10(2,3)9-8-6-4-5-7-8/h6H,4-5,7H2,1-3H3",
        "InChIKey": null,
        "Canonical SMILES": "O(C1=CCCC1)[Si](C)(C)C",
        "Molecular Formula": "C<sub>8</sub>H<sub>16</sub>OSi",
        "Molecular Mass": "156.30",
        "Boiling Point": "158-159 °C",
        "Density": "0.878 g/cm³"
    }
}