{
    "cas_no": "64359-81-5",
    "key_name": "4,5-Dichloro-2-<em>n</em>-octyl-4-isothiazolin-3-one",
    "cn_name": "4,5-二氯-2-正辛基-3-异噻唑啉酮;",
    "alternate_name": "3(2<em>H</em>)-Isothiazolone, 4,5-dichloro-2-octyl-;4,5-Dichloro-2-octyl-3(2<em>H</em>)-isothiazolone;C 9211;RH 287;Kathon 930;4,5-Dichloro-2-<em>n</em>-octyl-3-isothiazolone;4,5-Dichloro-2-octyl-3-isothiazolone;4,5-Dichloro-2-octylisothiazolin-3-one;4,5-Dichloro-2-octyl-4-isothiazolin-3-one;Sea-Nine 211;Kathon RH 287;Kathon 5287;Kathon 287T;4,5-Dichloro-2-<em>n</em>-octylisothiazolin-3-one;4,5-Dichloro-2-<em>n</em>-octyl-4-isothiazolin-3-one;Sea-Nine 221;Dichloro-<em>N</em>-octylisothiazolin-3-one;Ecoplast T 20;Kathon 910SB;Nalco 2894;Kathon 287tech;Klarix 4000;Kathon 287PXE;Sea-Nine;4,5-Dichloro-2-<em>N</em>-octyl-3(2<em>H</em>)-isothiazolone;Sea-Nine 211N;Rocima 200;DCOIT;Rozone 2000;4,5-Dichloro-<em>n</em>-octylisothiazolin-3-one;4,5-Dichloro-2-<em>n</em>-octyl-4-isothiazoline-3-one;Vinyzene DCOIT;SeaNine CR Marine Anti-Fouling Agent;Sea-Nine CR 2;Kathon 287;DCOIT 30;Bioban 200;4,5-Dichloro-2-octyl-isothiazolone;DCOIT 97;2-(<em>n</em>-Octyl)-dichloro-3-isothiazolone;DC 30;DC 30 (antibacterial);4,5-Dichloro-2-<em>n</em>-octylisothiazolyl-3-one;Dichlorooctylisothiazolinone;Sea-Nine Ultra;IT 4008;Parmetol S 15;DBX 200B",
    "duplicated_cas_no": "442523-55-9",
    "SMILES": "C(CCCCCCC)N1C(=O)C(Cl)=C(Cl)S1",
    "meta_data": {
        "InChI": "InChI=1S/C11H17Cl2NOS/c1-2-3-4-5-6-7-8-14-11(15)9(12)10(13)16-14/h2-8H2,1H3",
        "InChIKey": null,
        "Canonical SMILES": "O=C1C(Cl)=C(Cl)SN1CCCCCCCC",
        "Molecular Formula": "C<sub>11</sub>H<sub>17</sub>Cl<sub>2</sub>NOS",
        "Molecular Mass": "282.23",
        "Melting Point": "44-46 °C"
    }
}