{
    "cas_no": "30727-18-5",
    "key_name": "Ethyl 1-methyl-2-piperidinecarboxylate",
    "cn_name": "1-甲基-2-哌啶甲酸乙酯;",
    "alternate_name": "2-Piperidinecarboxylic acid, 1-methyl-, ethyl ester;Pipecolic acid, 1-methyl-, ethyl ester;Ethyl 1-methyl-2-piperidinecarboxylate;Ethyl 1-methylpipecolate;Ethyl 1-methylpipecolinate;1-Methyl-piperidine-2-carboxylic acid ethyl ester",
    "duplicated_cas_no": "106863-92-7",
    "SMILES": "C(OCC)(=O)C1N(C)CCCC1",
    "meta_data": {
        "InChI": "InChI=1S/C9H17NO2/c1-3-12-9(11)8-6-4-5-7-10(8)2/h8H,3-7H2,1-2H3",
        "InChIKey": null,
        "Canonical SMILES": "O=C(OCC)C1N(C)CCCC1",
        "Molecular Formula": "C<sub>9</sub>H<sub>17</sub>NO<sub>2</sub>",
        "Molecular Mass": "171.24",
        "Boiling Point": "92-96 °C @ Press: 11 Torr",
        "Density": "0.9801 g/cm³ @ Temp: 20 °C"
    }
}