{
    "cas_no": "100784-20-1",
    "key_name": "Halosulfuron-methyl",
    "cn_name": "氯吡嘧磺隆;3-(4,6-二甲氧基嘧啶-2-基)-1-(1-甲基-3-氯-4-甲氧基甲酰基吡唑-5-基)磺酰脲;",
    "alternate_name": "1<em>H</em>-Pyrazole-4-carboxylic acid, 3-chloro-5-[[[[(4,6-dimethoxy-2-pyrimidinyl)amino]carbonyl]amino]sulfonyl]-1-methyl-, methyl ester;NC 319;NC 311;Halosulfuron-methyl;A 841101;MON 12000;Manage;MON 12037;Inpool;Sempra;Permit 75WG;Permit;Shadow;Yukon;Tribute Total",
    "duplicated_cas_no": "",
    "SMILES": "S(NC(NC=1N=C(OC)C=C(OC)N1)=O)(=O)(=O)C2=C(C(OC)=O)C(Cl)=NN2C",
    "meta_data": {
        "InChI": "InChI=1S/C13H15ClN6O7S/c1-20-10(8(9(14)18-20)11(21)27-4)28(23,24)19-13(22)17-12-15-6(25-2)5-7(16-12)26-3/h5H,1-4H3,(H2,15,16,17,19,22)",
        "InChIKey": null,
        "Canonical SMILES": "O=C(OC)C=1C(Cl)=NN(C1S(=O)(=O)NC(=O)NC=2N=C(OC)C=C(N2)OC)C",
        "Molecular Formula": "C<sub>13</sub>H<sub>15</sub>ClN<sub>6</sub>O<sub>7</sub>S",
        "Molecular Mass": "434.81",
        "Melting Point": "176 °C"
    }
}