{
    "cas_no": "364-12-5",
    "key_name": "4-Bromo-1-iodo-2-(trifluoromethyl)benzene",
    "cn_name": null,
    "alternate_name": "Benzene, 4-bromo-1-iodo-2-(trifluoromethyl)-;Toluene, 5-bromo-α,α,α-trifluoro-2-iodo-;4-Bromo-1-iodo-2-(trifluoromethyl)benzene;2-Trifluoromethyl-4-bromoiodobenzene;5-Bromo-2-iodobenzotrifluoride",
    "duplicated_cas_no": "",
    "SMILES": "C(F)(F)(F)C1=C(I)C=CC(Br)=C1",
    "meta_data": {
        "InChI": "InChI=1S/C7H3BrF3I/c8-4-1-2-6(12)5(3-4)7(9,10)11/h1-3H",
        "InChIKey": null,
        "Canonical SMILES": "FC(F)(F)C1=CC(Br)=CC=C1I",
        "Molecular Formula": "C<sub>7</sub>H<sub>3</sub>BrF<sub>3</sub>I",
        "Molecular Mass": "350.90",
        "Melting Point": "77-78 °C"
    }
}