{
    "cas_no": "16498-81-0",
    "key_name": "2-Methoxynicotinic acid",
    "cn_name": "2-甲氧基烟酸;",
    "alternate_name": "3-Pyridinecarboxylic acid, 2-methoxy-;Nicotinic acid, 2-methoxy-;2-Methoxy-3-pyridinecarboxylic acid;2-Methoxynicotinic acid",
    "duplicated_cas_no": "",
    "SMILES": "O(C)C1=C(C(O)=O)C=CC=N1",
    "meta_data": {
        "InChI": "InChI=1S/C7H7NO3/c1-11-6-5(7(9)10)3-2-4-8-6/h2-4H,1H3,(H,9,10)",
        "InChIKey": null,
        "Canonical SMILES": "O=C(O)C1=CC=CN=C1OC",
        "Molecular Formula": "C<sub>7</sub>H<sub>7</sub>NO<sub>3</sub>",
        "Molecular Mass": "153.14",
        "Melting Point": "144-146 °C"
    }
}