{
    "cas_no": "2255-50-7",
    "key_name": "8-Hydroxydictamnine",
    "cn_name": null,
    "alternate_name": "Furo[2,3-<em>b</em>]quinolin-8-ol, 4-methoxy-;4-Methoxyfuro[2,3-<em>b</em>]quinolin-8-ol;Robustine (Haplophyllum);Robustine;8-Hydroxydictamnine;NPLC 0314",
    "duplicated_cas_no": "",
    "SMILES": "O(C)C=1C=2C(N=C3C1C=CO3)=C(O)C=CC2",
    "meta_data": {
        "InChI": "InChI=1S/C12H9NO3/c1-15-11-7-3-2-4-9(14)10(7)13-12-8(11)5-6-16-12/h2-6,14H,1H3",
        "InChIKey": null,
        "Canonical SMILES": "OC1=CC=CC2=C1N=C3OC=CC3=C2OC",
        "Molecular Formula": "C<sub>12</sub>H<sub>9</sub>NO<sub>3</sub>",
        "Molecular Mass": "215.20",
        "Melting Point": "148-149 °C"
    }
}