{
    "cas_no": "871-92-1",
    "key_name": "Octylsilane",
    "cn_name": "正辛基硅;正辛基硅;",
    "alternate_name": "Silane, octyl-;Octylsilane",
    "duplicated_cas_no": "",
    "SMILES": "C(CCCC)CCC[SiH3]",
    "meta_data": {
        "InChI": "InChI=1S/C8H20Si/c1-2-3-4-5-6-7-8-9/h2-8H2,1,9H3",
        "InChIKey": null,
        "Canonical SMILES": "CCCCCCCC[SiH3]",
        "Molecular Formula": "C<sub>8</sub>H<sub>20</sub>Si",
        "Molecular Mass": "144.33",
        "Boiling Point": "162-163 °C",
        "Density": "0.746 g/cm³"
    }
}