{
    "cas_no": "70-29-1",
    "key_name": "Diethyl sulfoxide",
    "cn_name": "[二]乙亞碸;[二]乙亞碸;",
    "alternate_name": "Ethane, 1,1′-sulfinylbis-;Ethyl sulfoxide;1,1′-Sulfinylbis[ethane];Diethyl sulfoxide;Diethyl sulphoxide;1,1′-Sulfinylbis(ethane);NSC 139125;(Ethanesulfinyl)ethane",
    "duplicated_cas_no": "",
    "SMILES": "S(CC)(CC)=O",
    "meta_data": {
        "InChI": "InChI=1S/C4H10OS/c1-3-6(5)4-2/h3-4H2,1-2H3",
        "InChIKey": null,
        "Canonical SMILES": "O=S(CC)CC",
        "Molecular Formula": "C<sub>4</sub>H<sub>10</sub>OS",
        "Molecular Mass": "106.19",
        "Boiling Point": "88-89 °C @ Press: 15 Torr",
        "Melting Point": "14 °C",
        "Density": "1.104 g/cm³ @ Temp: 20 °C"
    }
}