{
    "cas_no": "465-92-9",
    "key_name": "Marrubiin",
    "cn_name": null,
    "alternate_name": "2<em>H</em>-Naphtho[1,8-<em>bc</em>]furan-2-one, 6-[2-(3-furanyl)ethyl]decahydro-6-hydroxy-2a,5a,7-trimethyl-, (2a<em>S</em>,5a<em>S</em>,6<em>R</em>,7<em>R</em>,8a<em>R</em>,8b<em>R</em>)-;8β<span class=\"text-smallcaps\">H</span>-Labda-13(16),14-dien-19-oic acid, 15,16-epoxy-6β,9-dihydroxy-, γ-lactone;Marrubiin;2<em>H</em>-Naphtho[1,8-<em>bc</em>]furan-2-one, 6-[2-(3-furanyl)ethyl]decahydro-6-hydroxy-2a,5a,7-trimethyl-, [2a<em>S</em>-(2aα,5aβ,6α,7α,8aα,8bα)]-;(2a<em>S</em>,5a<em>S</em>,6<em>R</em>,7<em>R</em>,8a<em>R</em>,8b<em>R</em>)-6-[2-(3-Furanyl)ethyl]decahydro-6-hydroxy-2a,5a,7-trimethyl-2<em>H</em>-naphtho[1,8-<em>bc</em>]furan-2-one;15,16-Epoxy-6β,9-dihydroxy-8β<span class=\"text-smallcaps\">H</span>-labda-13(16),14-dien-19-oic acid γ-lactone;Marrubin;NSC 36693;(+)-Marrubiin",
    "duplicated_cas_no": "15420-98-1",
    "SMILES": "C[C@@]12[C@]3([C@](OC(=O)[C@@]3(C)CCC1)(C[C@@H](C)[C@@]2(CCC=4C=COC4)O)[H])[H]",
    "meta_data": {
        "InChI": "InChI=1S/C20H28O4/c1-13-11-15-16-18(2,17(21)24-15)7-4-8-19(16,3)20(13,22)9-5-14-6-10-23-12-14/h6,10,12-13,15-16,22H,4-5,7-9,11H2,1-3H3/t13-,15-,16+,18+,19+,20-/m1/s1",
        "InChIKey": null,
        "Canonical SMILES": "O=C1OC2CC(C)C(O)(CCC3=COC=C3)C4(C)CCCC1(C)C24",
        "Molecular Formula": "C<sub>20</sub>H<sub>28</sub>O<sub>4</sub>",
        "Molecular Mass": "332.43",
        "Boiling Point": "297-299 °C @ Press: 15 Torr",
        "Melting Point": "115.5-154.5 °C"
    }
}