{
    "cas_no": "5093-70-9",
    "key_name": "4-Bromo-2,6-dimethylpyridine",
    "cn_name": "4-溴-2,6-二甲基吡啶;",
    "alternate_name": "Pyridine, 4-bromo-2,6-dimethyl-;2,6-Lutidine, 4-bromo-;4-Bromo-2,6-dimethylpyridine;4-Bromo-2,6-lutidine",
    "duplicated_cas_no": "",
    "SMILES": "BrC=1C=C(C)N=C(C)C1",
    "meta_data": {
        "InChI": "InChI=1S/C7H8BrN/c1-5-3-7(8)4-6(2)9-5/h3-4H,1-2H3",
        "InChIKey": null,
        "Canonical SMILES": "BrC=1C=C(N=C(C1)C)C",
        "Molecular Formula": "C<sub>7</sub>H<sub>8</sub>BrN",
        "Molecular Mass": "186.05",
        "Boiling Point": "194 °C",
        "Melting Point": "34 °C"
    }
}