{
    "cas_no": "86598-92-7",
    "key_name": "Imibenconazole",
    "cn_name": "亚胺唑;亚胺唑;4-氯苄基-N-2,4-二氯苯基-2-(1H-1,2,4-三唑-1-基)硫代乙酰胺酯;霉能灵;酰胺唑;HF 8505 (制剂;",
    "alternate_name": "1<em>H</em>-1,2,4-Triazole-1-ethanimidothioic acid, <em>N</em>-(2,4-dichlorophenyl)-, (4-chlorophenyl)methyl ester;HF 8505;HF 6305;Imibenconazole;Manage;Manage (fungicide)",
    "duplicated_cas_no": "96923-02-3;1135441-10-9",
    "SMILES": "C(=NC1=C(Cl)C=C(Cl)C=C1)(CN2C=NC=N2)SCC3=CC=C(Cl)C=C3",
    "meta_data": {
        "InChI": "InChI=1S/C17H13Cl3N4S/c18-13-3-1-12(2-4-13)9-25-17(8-24-11-21-10-22-24)23-16-6-5-14(19)7-15(16)20/h1-7,10-11H,8-9H2",
        "InChIKey": null,
        "Canonical SMILES": "ClC1=CC=C(C=C1)CSC(=NC2=CC=C(Cl)C=C2Cl)CN3N=CN=C3",
        "Molecular Formula": "C<sub>17</sub>H<sub>13</sub>Cl<sub>3</sub>N<sub>4</sub>S",
        "Molecular Mass": "411.74",
        "Melting Point": "90 °C"
    }
}