{
    "cas_no": "632-21-3",
    "key_name": "1,1,3,3-Tetrachloropropanone",
    "cn_name": "1,1,3,3-四氯丙酮;",
    "alternate_name": "2-Propanone, 1,1,3,3-tetrachloro-;1,1,3,3-Tetrachloro-2-propanone;1,1,3,3-Tetrachloroacetone;1,1,3,3-Tetrachloropropanone;NSC 137844",
    "duplicated_cas_no": "",
    "SMILES": "C(C(Cl)Cl)(C(Cl)Cl)=O",
    "meta_data": {
        "InChI": "InChI=1S/C3H2Cl4O/c4-2(5)1(8)3(6)7/h2-3H",
        "InChIKey": null,
        "Canonical SMILES": "O=C(C(Cl)Cl)C(Cl)Cl",
        "Molecular Formula": "C<sub>3</sub>H<sub>2</sub>Cl<sub>4</sub>O",
        "Molecular Mass": "195.86",
        "Boiling Point": "183 °C",
        "Melting Point": "45-46 °C"
    }
}