{
    "cas_no": "106047-29-4",
    "key_name": "6-Bromo-2,4′-bipyridine",
    "cn_name": null,
    "alternate_name": "2,4′-Bipyridine, 6-bromo-;6-Bromo-2,4′-bipyridine;2-Bromo-6-(4-pyridinyl)pyridine",
    "duplicated_cas_no": "",
    "SMILES": "BrC1=NC(=CC=C1)C=2C=CN=CC2",
    "meta_data": {
        "InChI": "InChI=1S/C10H7BrN2/c11-10-3-1-2-9(13-10)8-4-6-12-7-5-8/h1-7H",
        "InChIKey": null,
        "Canonical SMILES": "BrC1=NC(=CC=C1)C=2C=CN=CC2",
        "Molecular Formula": "C<sub>10</sub>H<sub>7</sub>BrN<sub>2</sub>",
        "Molecular Mass": "235.08",
        "Melting Point": "101-103 °C"
    }
}