{
    "cas_no": "1724-39-6",
    "key_name": "Cyclododecanol",
    "cn_name": "环十二醇;",
    "alternate_name": "Cyclododecanol;NSC 524960",
    "duplicated_cas_no": "",
    "SMILES": "OC1CCCCCCCCCCC1",
    "meta_data": {
        "InChI": "InChI=1S/C12H24O/c13-12-10-8-6-4-2-1-3-5-7-9-11-12/h12-13H,1-11H2",
        "InChIKey": null,
        "Canonical SMILES": "OC1CCCCCCCCCCC1",
        "Molecular Formula": "C<sub>12</sub>H<sub>24</sub>O",
        "Molecular Mass": "184.32",
        "Boiling Point": "128-130 °C @ Press: 20 Torr",
        "Melting Point": "76-79 °C"
    }
}