{
    "cas_no": "66-72-8",
    "key_name": "Pyridoxal",
    "cn_name": "吡哆醛; 3-羟基-5-羟甲基-2-甲基吡啶-4-甲醛;",
    "alternate_name": "4-Pyridinecarboxaldehyde, 3-hydroxy-5-(hydroxymethyl)-2-methyl-;Pyridoxal;3-Hydroxy-5-(hydroxymethyl)-2-methyl-4-pyridinecarboxaldehyde;Pyridoxaldehyde;3-Hydroxy-5-(hydroxymethyl)-2-methylpyridine-4-carboxaldehyde;3-Hydroxy-5-hydroxymethyl-2-methyl-pyridine-4-carbaldehyde;3-Hydroxy-5-(hydroxymethyl)-2-methylpyridine-4-carbaldehyde;3-Hydroxy-5-(hydroxymethyl)-2-methylisonicotinaldehyde;MeSH ID: D011730",
    "duplicated_cas_no": "",
    "SMILES": "C(=O)C=1C(CO)=CN=C(C)C1O",
    "meta_data": {
        "InChI": "InChI=1S/C8H9NO3/c1-5-8(12)7(4-11)6(3-10)2-9-5/h2,4,10,12H,3H2,1H3",
        "InChIKey": null,
        "Canonical SMILES": "O=CC1=C(O)C(=NC=C1CO)C",
        "Molecular Formula": "C<sub>8</sub>H<sub>9</sub>NO<sub>3</sub>",
        "Molecular Mass": "167.16",
        "Melting Point": "165 °C"
    }
}