{
    "cas_no": "5130-24-5",
    "key_name": "Ethenyl carbonochloridate",
    "cn_name": "氯甲酸乙烯酯;氯甲酸乙烯酯;",
    "alternate_name": "Carbonochloridic acid, ethenyl ester;Formic acid, chloro-, vinyl ester;Ethenyl carbonochloridate;Vinyl chloroformate;Vinyl chlorocarbonate;Vinyloxycarbonyl chloride",
    "duplicated_cas_no": "",
    "SMILES": "O(C(Cl)=O)C=C",
    "meta_data": {
        "InChI": "InChI=1S/C3H3ClO2/c1-2-6-3(4)5/h2H,1H2",
        "InChIKey": null,
        "Canonical SMILES": "O=C(Cl)OC=C",
        "Molecular Formula": "C<sub>3</sub>H<sub>3</sub>ClO<sub>2</sub>",
        "Molecular Mass": "106.51",
        "Boiling Point": "92-94 °C @ Press: 752 Torr"
    }
}