{
    "cas_no": "26944-48-9",
    "key_name": "Glibornuride",
    "cn_name": null,
    "alternate_name": "Benzenesulfonamide, <em>N</em>-[[[(1<em>S</em>,2<em>S</em>,3<em>R</em>,4<em>R</em>)-3-hydroxy-4,7,7-trimethylbicyclo[2.2.1]hept-2-yl]amino]carbonyl]-4-methyl-;Urea, 1-(2-hydroxy-3-bornyl)-3-(<em>p</em>-tolylsulfonyl)-, (1<em>R</em>,2<em>R</em>,3<em>S</em>,4<em>S</em>)-;Benzenesulfonamide, <em>N</em>-[[(3-hydroxy-4,7,7-trimethylbicyclo[2.2.1]hept-2-yl)amino]carbonyl]-4-methyl-, [1<em>S</em>-(<em>endo</em>,<em>endo</em>)]-;<em>N</em>-[[[(1<em>S</em>,2<em>S</em>,3<em>R</em>,4<em>R</em>)-3-Hydroxy-4,7,7-trimethylbicyclo[2.2.1]hept-2-yl]amino]carbonyl]-4-methylbenzenesulfonamide;Glibornuride;<em>endo</em>, <em>endo</em>-1-[(1<em>R</em>)-(2-Hydroxy-3-bornyl)]-3-(<em>p</em>-tolylsulfonyl)urea;Ro 6-4563;Ro 6-4563/8;<em>endo</em>,<em>endo</em>-1-(2-Hydroxy-3-bornyl)-3-(<em>p</em>-tolylsulfonyl)urea;Glutril;Gluboride",
    "duplicated_cas_no": "24266-65-7",
    "SMILES": "C[C@@]12C(C)(C)[C@@]([C@H](NC(NS(=O)(=O)C3=CC=C(C)C=C3)=O)[C@@H]1O)(CC2)[H]",
    "meta_data": {
        "InChI": "InChI=1S/C18H26N2O4S/c1-11-5-7-12(8-6-11)25(23,24)20-16(22)19-14-13-9-10-18(4,15(14)21)17(13,2)3/h5-8,13-15,21H,9-10H2,1-4H3,(H2,19,20,22)/t13-,14+,15+,18+/m1/s1",
        "InChIKey": null,
        "Canonical SMILES": "O=C(NC1C(O)C2(C)CCC1C2(C)C)NS(=O)(=O)C3=CC=C(C=C3)C",
        "Molecular Formula": "C<sub>18</sub>H<sub>26</sub>N<sub>2</sub>O<sub>4</sub>S",
        "Molecular Mass": "366.48",
        "Melting Point": "192-195 °C"
    }
}