{
    "cas_no": "175865-59-5",
    "key_name": "Valganciclovir hydrochloride",
    "cn_name": "缬更昔洛韦盐酸盐;(S)-2-氨基-3-甲基丁酸(R,S)-2-[(2-氨基-6-氧代-1,6-二氢-9H-嘌呤-9-基)甲氧基]-3-羟基丙;",
    "alternate_name": "<span class=\"text-smallcaps\">L</span>-Valine, 2-[(2-amino-1,6-dihydro-6-oxo-9<em>H</em>-purin-9-yl)methoxy]-3-hydroxypropyl ester, hydrochloride (1:1);<span class=\"text-smallcaps\">L</span>-Valine, 2-[(2-amino-1,6-dihydro-6-oxo-9<em>H</em>-purin-9-yl)methoxy]-3-hydroxypropyl ester, monohydrochloride;RS 079070-194;Valganciclovir hydrochloride;Ro 107-9070/194;Valcyte",
    "duplicated_cas_no": "",
    "SMILES": "C(OC(COC([C@H](C(C)C)N)=O)CO)N1C2=C(N=C1)C(=O)N=C(N)N2.Cl",
    "meta_data": {
        "InChI": "InChI=1S/C14H22N6O5.ClH/c1-7(2)9(15)13(23)24-4-8(3-21)25-6-20-5-17-10-11(20)18-14(16)19-12(10)22;/h5,7-9,21H,3-4,6,15H2,1-2H3,(H3,16,18,19,22);1H/t8?,9-;/m0./s1",
        "InChIKey": null,
        "Canonical SMILES": "Cl.O=C1N=C(N)NC2=C1N=CN2COC(CO)COC(=O)C(N)C(C)C",
        "Molecular Formula": "C<sub>14</sub>H<sub>22</sub>N<sub>6</sub>O<sub>5</sub>.ClH",
        "Molecular Mass": "",
        "Melting Point": "143 °C"
    }
}