{
    "cas_no": "10294-26-5",
    "key_name": "Silver sulfate",
    "cn_name": "硫酸银;",
    "alternate_name": "Sulfuric acid, silver(1+) salt (1:2);Sulfuric acid, disilver(1+) salt;Silver sulfate;Silver sulfate (Ag<sub>2</sub>SO<sub>4</sub>);Disilver sulfate;Disilver(1+) sulfate;Sulfuric acid disilver salt;Disilver monosulfate;Sulfuric acid silver salt (1:2)",
    "duplicated_cas_no": "14125-27-0",
    "SMILES": "S(=O)(=O)(O)O.[Ag]",
    "meta_data": {
        "InChI": "InChI=1S/2Ag.H2O4S/c;;1-5(2,3)4/h;;(H2,1,2,3,4)",
        "InChIKey": null,
        "Canonical SMILES": "[Ag].O=S(=O)(O)O",
        "Molecular Formula": "Ag.<sup>1</sup>/<sub>2</sub>H<sub>2</sub>O<sub>4</sub>S",
        "Molecular Mass": "",
        "Melting Point": "652 °C"
    }
}