{
    "cas_no": "5394-18-3",
    "key_name": "2-(4-Bromobutyl)-1<em>H</em>-isoindole-1,3(2<em>H</em>)-dione",
    "cn_name": "N-(4-溴丁基)邻苯二甲酰亚胺;",
    "alternate_name": "1<em>H</em>-Isoindole-1,3(2<em>H</em>)-dione, 2-(4-bromobutyl)-;Phthalimide, <em>N</em>-(4-bromobutyl)-;2-(4-Bromobutyl)-1<em>H</em>-isoindole-1,3(2<em>H</em>)-dione;<em>N</em>-(4-Bromobutyl)phthalimide;1-Phthalimido-4-bromobutane;4-Bromobutylphthalimide;2-(4-Bromobutyl)phthalimide;2-(4-Bromobutyl)isoindole-1,3-dione;NSC 575;2-(4-Bromobutyl)isoindoline-1,3-dione;2-(4-Bromobutyl)-2,3-dihydro-1<em>H</em>-isoindole-1,3-dione",
    "duplicated_cas_no": "",
    "SMILES": "O=C1C=2C(C(=O)N1CCCCBr)=CC=CC2",
    "meta_data": {
        "InChI": "InChI=1S/C12H12BrNO2/c13-7-3-4-8-14-11(15)9-5-1-2-6-10(9)12(14)16/h1-2,5-6H,3-4,7-8H2",
        "InChIKey": null,
        "Canonical SMILES": "O=C1C=2C=CC=CC2C(=O)N1CCCCBr",
        "Molecular Formula": "C<sub>12</sub>H<sub>12</sub>BrNO<sub>2</sub>",
        "Molecular Mass": "282.13",
        "Melting Point": "80-81 °C"
    }
}