{
    "cas_no": "5459-63-2",
    "key_name": "1,1′-Dimethyl 2,2′-dithiobis[benzoate]",
    "cn_name": null,
    "alternate_name": "Benzoic acid, 2,2′-dithiobis-, 1,1′-dimethyl ester;Benzoic acid, 2,2′-dithiobis-, dimethyl ester;Benzoic acid, 2,2′-dithiodi-, dimethyl ester;1,1′-Dimethyl 2,2′-dithiobis[benzoate];2,2′-Dimethoxycarbonyl diphenyl disulfide;Dimethyl 2,2′-dithiodibenzoate;Bis(<em>o</em>-methoxycarbonylphenyl) disulfide;Bis(2-carbomethoxyphenyl) disulfide;NSC 5343;Bis[2-(methoxycarbonyl)phenyl] disulfide",
    "duplicated_cas_no": "",
    "SMILES": "S(SC1=C(C(OC)=O)C=CC=C1)C2=C(C(OC)=O)C=CC=C2",
    "meta_data": {
        "InChI": "InChI=1S/C16H14O4S2/c1-19-15(17)11-7-3-5-9-13(11)21-22-14-10-6-4-8-12(14)16(18)20-2/h3-10H,1-2H3",
        "InChIKey": null,
        "Canonical SMILES": "O=C(OC)C=1C=CC=CC1SSC=2C=CC=CC2C(=O)OC",
        "Molecular Formula": "C<sub>16</sub>H<sub>14</sub>O<sub>4</sub>S<sub>2</sub>",
        "Molecular Mass": "334.41",
        "Melting Point": "131-134 °C"
    }
}