{
    "cas_no": "5505-63-5",
    "key_name": "<span class=\"text-smallcaps\">D</span>-Mannosamine hydrochloride",
    "cn_name": "盐酸D-甘露糖胺;D-甘露糖氨盐酸盐;",
    "alternate_name": "<span class=\"text-smallcaps\">D</span>-Mannose, 2-amino-2-deoxy-, hydrochloride (1:1);Mannose, 2-amino-2-deoxy-, hydrochloride, <span class=\"text-smallcaps\">D</span>-;<span class=\"text-smallcaps\">D</span>-Mannose, 2-amino-2-deoxy-, hydrochloride;2-Amino-2-deoxy-<span class=\"text-smallcaps\">D</span>-mannose hydrochloride;<span class=\"text-smallcaps\">D</span>-Mannosamine hydrochloride;<span class=\"text-smallcaps\">D</span>-(+)-Mannosamine hydrochloride",
    "duplicated_cas_no": "91674-20-3;1334320-69-2",
    "SMILES": "[C@H]([C@@H]([C@@H](CO)O)O)([C@@H](C=O)N)O.Cl",
    "meta_data": {
        "InChI": "InChI=1S/C6H13NO5.ClH/c7-3(1-8)5(11)6(12)4(10)2-9;/h1,3-6,9-12H,2,7H2;1H/t3-,4-,5-,6-;/m1./s1",
        "InChIKey": null,
        "Canonical SMILES": "Cl.O=CC(N)C(O)C(O)C(O)CO",
        "Molecular Formula": "C<sub>6</sub>H<sub>13</sub>NO<sub>5</sub>.ClH",
        "Molecular Mass": "",
        "Melting Point": "178-180 °C (decomp)"
    }
}