{
    "cas_no": "31218-83-4",
    "key_name": "Propetamphos",
    "cn_name": "胺丙畏;巴胺磷；烯虫磷；赛福丁；1-甲基-乙基(E)-3{[(乙胺基)甲氧基磷硫基]氧基}-2-丁烯酯;",
    "alternate_name": "2-Butenoic acid, 3-[[(ethylamino)methoxyphosphinothioyl]oxy]-, 1-methylethyl ester, (2<em>E</em>)-;Crotonic acid, 3-hydroxy-, isopropyl ester, <em>O</em>-ester with <em>O</em>-methyl ethylphosphoramidothioate, (<em>E</em>)-;2-Butenoic acid, 3-[[(ethylamino)methoxyphosphinothioyl]oxy]-, 1-methylethyl ester, (<em>E</em>)-;Blotic;SAN 322I;Propetamphos;VEL 4283;SAN 322;Safrotin S 200;Ectomort Jetting Fluid and Sheep Dip;Deadmag;Ectomort Jetting Fluid;Magget;Mules-n-Mark II;<em>E</em>-Propetamphos;Ectomort Centenary;Young's Summer Dip;Safrotin MC;Safrotin;Safrotin Brush-on Bait",
    "duplicated_cas_no": "",
    "SMILES": "P(O/C(=C/C(OC(C)C)=O)/C)(NCC)(OC)=S",
    "meta_data": {
        "InChI": "InChI=1/C10H20NO4PS/c1-6-11-16(17,13-5)15-9(4)7-10(12)14-8(2)3/h7-8H,6H2,1-5H3,(H,11,17)/b9-7+",
        "InChIKey": null,
        "Canonical SMILES": "O=C(OC(C)C)C=C(OP(=S)(OC)NCC)C",
        "Molecular Formula": "C<sub>10</sub>H<sub>20</sub>NO<sub>4</sub>PS",
        "Molecular Mass": "281.31",
        "Boiling Point": "87-89 °C @ Press: 5 x 10<sup>-3</sup> Torr",
        "Melting Point": "&lt;25 °C",
        "Density": "1.1294 g/cm³ @ Temp: 20 °C"
    }
}