{
    "cas_no": "7643-75-6",
    "key_name": "<span class=\"text-smallcaps\">L</span>-Arabitol",
    "cn_name": null,
    "alternate_name": "<span class=\"text-smallcaps\">L</span>-Arabinitol;Arabinitol, <span class=\"text-smallcaps\">L</span>-;<span class=\"text-smallcaps\">L</span>-Arabitol;<span class=\"text-smallcaps\">L</span>-(-)-Arabitol;(-)-Arabitol;NSC 83253;<span class=\"text-smallcaps\">L</span>-Lyxitol;<span class=\"text-smallcaps\">L</span>-<em>arabino</em>-Pentitol",
    "duplicated_cas_no": "488-83-5",
    "SMILES": "C(C(CO)O)(C(CO)O)O",
    "meta_data": {
        "InChI": "InChI=1S/C5H12O5/c6-1-3(8)5(10)4(9)2-7/h3-10H,1-2H2",
        "InChIKey": null,
        "Canonical SMILES": "OCC(O)C(O)C(O)CO",
        "Molecular Formula": "C<sub>5</sub>H<sub>12</sub>O<sub>5</sub>",
        "Molecular Mass": "152.15",
        "Melting Point": "99-101 °C",
        "Density": "1.297 g/cm³ (liquid) @ Temp: 102.9 °C"
    }
}