{
    "cas_no": "2046-21-1",
    "key_name": "Heptanoic acid, 6-oxo-, methyl ester",
    "cn_name": null,
    "alternate_name": "Heptanoic acid, 6-oxo-, methyl ester;Methyl 6-oxoheptanoate;6-Oxoheptanoic acid methyl ester;NSC 148317",
    "duplicated_cas_no": "",
    "SMILES": "C(CCCC(C)=O)C(OC)=O",
    "meta_data": {
        "InChI": "InChI=1S/C8H14O3/c1-7(9)5-3-4-6-8(10)11-2/h3-6H2,1-2H3",
        "InChIKey": null,
        "Canonical SMILES": "O=C(OC)CCCCC(=O)C",
        "Molecular Formula": "C<sub>8</sub>H<sub>14</sub>O<sub>3</sub>",
        "Molecular Mass": "158.20",
        "Boiling Point": "140-142 °C @ Press: 0.8 Torr",
        "Density": "1.0636 g/cm³ @ Temp: 20 °C"
    }
}