{
    "cas_no": "14923-17-2",
    "key_name": "Guanidine, <em>N</em>,<em>N</em>′′′-1,4-butanediylbis-, sulfate (1:1)",
    "cn_name": null,
    "alternate_name": "Guanidine, <em>N</em>,<em>N</em>′′′-1,4-butanediylbis-, sulfate (1:1);Guanidine, 1,1′-tetramethylenedi-, sulfate (1:1);1,4-Diguanidinobutane sulfate;Arcaine sulfate;1-(4-Guanidinobutyl)guanidine sulfate",
    "duplicated_cas_no": "1215321-86-0",
    "SMILES": "S(=O)(=O)(O)O.C(NC(=N)N)CCCNC(=N)N",
    "meta_data": {
        "InChI": "InChI=1S/C6H16N6.H2O4S/c7-5(8)11-3-1-2-4-12-6(9)10;1-5(2,3)4/h1-4H2,(H4,7,8,11)(H4,9,10,12);(H2,1,2,3,4)",
        "InChIKey": null,
        "Canonical SMILES": "O=S(=O)(O)O.N=C(N)NCCCCNC(=N)N",
        "Molecular Formula": "C<sub>6</sub>H<sub>16</sub>N<sub>6</sub>.H<sub>2</sub>O<sub>4</sub>S",
        "Molecular Mass": "",
        "Melting Point": "244-246 °C"
    }
}