{
    "cas_no": "558-25-8",
    "key_name": "Methanesulfonyl fluoride",
    "cn_name": null,
    "alternate_name": "Methanesulfonyl fluoride;Fumette;MSF;Fluoro methyl sulfone;Mesyl fluoride;Methylsulfonyl fluoride",
    "duplicated_cas_no": "",
    "SMILES": "S(C)(F)(=O)=O",
    "meta_data": {
        "InChI": "InChI=1S/CH3FO2S/c1-5(2,3)4/h1H3",
        "InChIKey": null,
        "Canonical SMILES": "O=S(=O)(F)C",
        "Molecular Formula": "CH<sub>3</sub>FO<sub>2</sub>S",
        "Molecular Mass": "98.10",
        "Boiling Point": "123-124 °C",
        "Density": "1.3470 g/cm³ @ Temp: 20 °C"
    }
}