{
    "cas_no": "2051-61-8",
    "key_name": "3-Chlorobiphenyl",
    "cn_name": "3-氯联苯;3-氯联苯PCBNo2;",
    "alternate_name": "1,1′-Biphenyl, 3-chloro-;Biphenyl, 3-chloro-;3-Chloro-1,1′-biphenyl;<em>m</em>-Chlorobiphenyl;3-Chlorobiphenyl;3-Chlorodiphenyl;3-Monochlorobiphenyl;PCB 2;1-Chloro-3-phenylbenzene",
    "duplicated_cas_no": "",
    "SMILES": "ClC=1C=C(C=CC1)C2=CC=CC=C2",
    "meta_data": {
        "InChI": "InChI=1S/C12H9Cl/c13-12-8-4-7-11(9-12)10-5-2-1-3-6-10/h1-9H",
        "InChIKey": null,
        "Canonical SMILES": "ClC1=CC=CC(=C1)C=2C=CC=CC2",
        "Molecular Formula": "C<sub>12</sub>H<sub>9</sub>Cl",
        "Molecular Mass": "188.65",
        "Boiling Point": "284.5 °C",
        "Melting Point": "16 °C"
    }
}