{
    "cas_no": "77-53-2",
    "key_name": "(+)-Cedrol",
    "cn_name": "柏木脑;2,6,6,8-四甲基三环[5.3.1.0]十一烷-8-醇;",
    "alternate_name": "1<em>H</em>-3a,7-Methanoazulen-6-ol, octahydro-3,6,8,8-tetramethyl-, (3<em>R</em>,3a<em>S</em>,6<em>R</em>,7<em>R</em>,8a<em>S</em>)-;8β<span class=\"text-smallcaps\">H</span>-Cedran-8-ol;Cedrol;1<em>H</em>-3a,7-Methanoazulen-6-ol, octahydro-3,6,8,8-tetramethyl-, [3<em>R</em>-(3α,3aβ,6α,7β,8aα)]-;(3<em>R</em>,3a<em>S</em>,6<em>R</em>,7<em>R</em>,8a<em>S</em>)-Octahydro-3,6,8,8-tetramethyl-1<em>H</em>-3a,7-methanoazulen-6-ol;α-Cedrol;(+)-Cedrol;Cedrol Nanomedicin;(3R,3AS,6R,7R,8aS)-3,6,8,8-tetramethyloctahydro-1<em>H</em>-3a,7-methanoazulen-6-ol",
    "duplicated_cas_no": "13567-37-8",
    "SMILES": "C[C@H]1[C@@]23[C@](C(C)(C)[C@@](C2)([C@](C)(O)CC3)[H])(CC1)[H]",
    "meta_data": {
        "InChI": "InChI=1S/C15H26O/c1-10-5-6-11-13(2,3)12-9-15(10,11)8-7-14(12,4)16/h10-12,16H,5-9H2,1-4H3/t10-,11+,12-,14-,15+/m1/s1",
        "InChIKey": null,
        "Canonical SMILES": "OC1(C)CCC23CC1C(C)(C)C3CCC2C",
        "Molecular Formula": "C<sub>15</sub>H<sub>26</sub>O",
        "Molecular Mass": "222.37",
        "Melting Point": "86 °C"
    }
}