{
    "cas_no": "723286-98-4",
    "key_name": "5-(Trifluoromethyl)-2-(chloromethyl)-1,3,4-oxadiazole",
    "cn_name": "5-氯甲基-2-三氟甲基-1,3,4-噁二唑;",
    "alternate_name": "1,3,4-Oxadiazole, 2-(chloromethyl)-5-(trifluoromethyl)-;2-(Chloromethyl)-5-(trifluoromethyl)-1,3,4-oxadiazole;5-(Trifluoromethyl)-2-(chloromethyl)-1,3,4-oxadiazole;2-Chloromethyl-5-trifluoromethyl-1,3,4-oxadiazole;5-(Chloromethyl)-2-(trifluoromethyl)-1,3,4-oxadiazole",
    "duplicated_cas_no": "",
    "SMILES": "C(F)(F)(F)C=1OC(CCl)=NN1",
    "meta_data": {
        "InChI": "InChI=1S/C4H2ClF3N2O/c5-1-2-9-10-3(11-2)4(6,7)8/h1H2",
        "InChIKey": null,
        "Canonical SMILES": "FC(F)(F)C1=NN=C(O1)CCl",
        "Molecular Formula": "C<sub>4</sub>H<sub>2</sub>ClF<sub>3</sub>N<sub>2</sub>O",
        "Molecular Mass": "186.52",
        "Boiling Point": "55-60 °C @ Press: 10 Torr"
    }
}