{
    "cas_no": "4121-16-8",
    "key_name": "Dinonyl sebacate",
    "cn_name": "癸二酸二壬酯;癸二酸二壬酯;",
    "alternate_name": "Decanedioic acid, 1,10-dinonyl ester;Sebacic acid, dinonyl ester;Decanedioic acid, dinonyl ester;Bisoflex DNS;Dinonyl sebacate;Di-<em>n</em>-Nonyl sebacate",
    "duplicated_cas_no": "",
    "SMILES": "C(C(OCCCCCCCCC)=O)CCCCCCCC(OCCCCCCCCC)=O",
    "meta_data": {
        "InChI": "InChI=1S/C28H54O4/c1-3-5-7-9-13-17-21-25-31-27(29)23-19-15-11-12-16-20-24-28(30)32-26-22-18-14-10-8-6-4-2/h3-26H2,1-2H3",
        "InChIKey": null,
        "Canonical SMILES": "O=C(OCCCCCCCCC)CCCCCCCCC(=O)OCCCCCCCCC",
        "Molecular Formula": "C<sub>28</sub>H<sub>54</sub>O<sub>4</sub>",
        "Molecular Mass": "454.73",
        "Boiling Point": "215-218 °C @ Press: 0.15 Torr"
    }
}