{
    "cas_no": "518-69-4",
    "key_name": "(+)-Corydaline",
    "cn_name": null,
    "alternate_name": "6<em>H</em>-Dibenzo[<em>a</em>,<em>g</em>]quinolizine, 5,8,13,13a-tetrahydro-2,3,9,10-tetramethoxy-13-methyl-, (13<em>S</em>,13a<em>R</em>)-;Corydaline;13aβ-Berbine, 2,3,9,10-tetramethoxy-13α-methyl-;6<em>H</em>-Dibenzo[<em>a</em>,<em>g</em>]quinolizine, 5,8,13,13a-tetrahydro-2,3,9,10-tetramethoxy-13-methyl-, (13<em>S</em>-<em>trans</em>)-;(13<em>S</em>,13a<em>R</em>)-5,8,13,13a-Tetrahydro-2,3,9,10-tetramethoxy-13-methyl-6<em>H</em>-dibenzo[<em>a</em>,<em>g</em>]quinolizine;Corydaline, (+)-;Corydalin;<em>d</em>-Corydaline;(+)-Corydaline;7,8,13,13α-Tetrahydrocorydaline;NSC 406036;(13S,13AR)-2,3,9,10-tetramethoxy-13-methyl-6,8,13,13a-tetrahydro-5<em>H</em>-isoquinolino[2,1-<em>b</em>]isoquinoline",
    "duplicated_cas_no": "3907-48-0",
    "SMILES": "C[C@@H]1[C@@]2(C=3C(=CC(OC)=C(OC)C3)CCN2CC=4C1=CC=C(OC)C4OC)[H]",
    "meta_data": {
        "InChI": "InChI=1S/C22H27NO4/c1-13-15-6-7-18(24-2)22(27-5)17(15)12-23-9-8-14-10-19(25-3)20(26-4)11-16(14)21(13)23/h6-7,10-11,13,21H,8-9,12H2,1-5H3/t13-,21+/m0/s1",
        "InChIKey": null,
        "Canonical SMILES": "O(C1=CC=C2C(=C1OC)CN3CCC4=CC(OC)=C(OC)C=C4C3C2C)C",
        "Molecular Formula": "C<sub>22</sub>H<sub>27</sub>NO<sub>4</sub>",
        "Molecular Mass": "369.45",
        "Melting Point": "135-136 °C"
    }
}