{
    "cas_no": "42185-03-5",
    "key_name": "2-Propoxyethylamine",
    "cn_name": "2-丙氧基乙胺;",
    "alternate_name": "Ethanamine, 2-propoxy-;Ethylamine, 2-propoxy-;2-Propoxyethanamine;2-Propoxyethylamine;[2-(Propyloxy)ethyl]amine;2-Propoxyethan-1-amine",
    "duplicated_cas_no": "",
    "SMILES": "O(CCC)CCN",
    "meta_data": {
        "InChI": "InChI=1S/C5H13NO/c1-2-4-7-5-3-6/h2-6H2,1H3",
        "InChIKey": null,
        "Canonical SMILES": "O(CCN)CCC",
        "Molecular Formula": "C<sub>5</sub>H<sub>13</sub>NO",
        "Molecular Mass": "103.16",
        "Boiling Point": "125-126 °C @ Press: 750 Torr"
    }
}