{
    "cas_no": "22457-23-4",
    "key_name": "Stemone",
    "cn_name": "5-甲基-3-庚酮肟;百部酮;",
    "alternate_name": "3-Heptanone, 5-methyl-, oxime;Ethyl 2-methylbutyl ketoxime;5-Methyl-3-heptanone oxime;Stemone;NSC 166310",
    "duplicated_cas_no": "",
    "SMILES": "C(CC(CC)C)(CC)=NO",
    "meta_data": {
        "InChI": "InChI=1S/C8H17NO/c1-4-7(3)6-8(5-2)9-10/h7,10H,4-6H2,1-3H3",
        "InChIKey": null,
        "Canonical SMILES": "ON=C(CC)CC(C)CC",
        "Molecular Formula": "C<sub>8</sub>H<sub>17</sub>NO",
        "Molecular Mass": "143.23",
        "Boiling Point": "70 °C @ Press: 0.7 Torr"
    }
}