{
    "cas_no": "13117-94-7",
    "key_name": "2-(1,1-Dimethylethyl)-6-methylbenzenamine",
    "cn_name": "6-叔丁基邻甲苯胺;",
    "alternate_name": "Benzenamine, 2-(1,1-dimethylethyl)-6-methyl-;<em>o</em>-Toluidine, 6-<em>tert</em>-butyl-;2-(1,1-Dimethylethyl)-6-methylbenzenamine;2-<em>tert</em>-Butyl-6-methylaniline;2-Methyl-6-<em>tert</em>-butylaniline",
    "duplicated_cas_no": "",
    "SMILES": "C(C)(C)(C)C1=C(N)C(C)=CC=C1",
    "meta_data": {
        "InChI": "InChI=1S/C11H17N/c1-8-6-5-7-9(10(8)12)11(2,3)4/h5-7H,12H2,1-4H3",
        "InChIKey": null,
        "Canonical SMILES": "NC=1C(=CC=CC1C(C)(C)C)C",
        "Molecular Formula": "C<sub>11</sub>H<sub>17</sub>N",
        "Molecular Mass": "163.26",
        "Boiling Point": "225-250 °C"
    }
}