{
    "cas_no": "487-54-7",
    "key_name": "Salicyluric acid",
    "cn_name": "2-羟基马尿酸;O-羟基马尿酸;",
    "alternate_name": "Glycine, <em>N</em>-(2-hydroxybenzoyl)-;Salicyluric acid;Hippuric acid, <em>o</em>-hydroxy-;<em>N</em>-(2-Hydroxybenzoyl)glycine;<em>o</em>-Hydroxyhippuric acid;(2-Hydroxybenzoyl)glycine;<em>N</em>-Salicyloylglycine;Salicyloylglycine;<em>N</em>-(<em>o</em>-Hydroxybenzoyl)glycine;2-Hydroxyhippuric acid;NSC 524135;2-[(2-Hydroxyphenyl)formamido]acetic acid;2-(2-Hydroxybenzamido)acetic acid",
    "duplicated_cas_no": "857017-98-2",
    "SMILES": "C(NCC(O)=O)(=O)C1=C(O)C=CC=C1",
    "meta_data": {
        "InChI": "InChI=1S/C9H9NO4/c11-7-4-2-1-3-6(7)9(14)10-5-8(12)13/h1-4,11H,5H2,(H,10,14)(H,12,13)",
        "InChIKey": null,
        "Canonical SMILES": "O=C(O)CNC(=O)C=1C=CC=CC1O",
        "Molecular Formula": "C<sub>9</sub>H<sub>9</sub>NO<sub>4</sub>",
        "Molecular Mass": "195.17",
        "Melting Point": "168 °C"
    }
}