{
    "cas_no": "3964-56-5",
    "key_name": "4-Bromo-2-chlorophenol",
    "cn_name": "2-氯-4-溴苯酚;4-溴-2-氯苯酚;",
    "alternate_name": "Phenol, 4-bromo-2-chloro-;4-Bromo-2-chlorophenol;2-Chloro-4-bromophenol",
    "duplicated_cas_no": "",
    "SMILES": "ClC1=C(O)C=CC(Br)=C1",
    "meta_data": {
        "InChI": "InChI=1S/C6H4BrClO/c7-4-1-2-6(9)5(8)3-4/h1-3,9H",
        "InChIKey": null,
        "Canonical SMILES": "ClC1=CC(Br)=CC=C1O",
        "Molecular Formula": "C<sub>6</sub>H<sub>4</sub>BrClO",
        "Molecular Mass": "207.45",
        "Boiling Point": "233.5 °C",
        "Melting Point": "50.5 °C"
    }
}