{
    "cas_no": "123-29-5",
    "key_name": "Ethyl nonanoate",
    "cn_name": "壬酸乙酯;",
    "alternate_name": "Nonanoic acid, ethyl ester;Ethyl nonanoate;Ethyl nonylate;Ethyl pelargonate;Wine ether;Pelargonic acid ethyl ester;Ethyl <em>n</em>-nonanoate;NSC 8901",
    "duplicated_cas_no": "",
    "SMILES": "C(CCCCCCCC)(OCC)=O",
    "meta_data": {
        "InChI": "InChI=1S/C11H22O2/c1-3-5-6-7-8-9-10-11(12)13-4-2/h3-10H2,1-2H3",
        "InChIKey": null,
        "Canonical SMILES": "O=C(OCC)CCCCCCCC",
        "Molecular Formula": "C<sub>11</sub>H<sub>22</sub>O<sub>2</sub>",
        "Molecular Mass": "186.29",
        "Boiling Point": "227 °C",
        "Melting Point": "-36.7 °C",
        "Density": "0.82333 g/cm³ @ Temp: 70.000 °C; Press: Atm pressure"
    }
}