{
    "cas_no": "96-66-2",
    "key_name": "Antioxidant 736",
    "cn_name": "4,4\"-硫联二(6-叔丁基-2-甲基苯酚);",
    "alternate_name": "Phenol, 4,4′-thiobis[2-(1,1-dimethylethyl)-6-methyl-;<em>o</em>-Cresol, 4,4′-thiobis[6-<em>tert</em>-butyl-;4,4′-Thiobis[2-(1,1-dimethylethyl)-6-methylphenol];4,4′-Thiobis(6-<em>tert</em>-butyl-<em>o</em>-cresol);4,4′-Thiobis(2-methyl-6-<em>tert</em>-butylphenol);4,4′-Thiobis(6-<em>tert</em>-butyl-2-methylphenol);Ethyl 736;2,2′-Di-<em>tert</em>-Butyl-6,6′-dimethyl-4,4′-thiodiphenol;Antioxidant E 736;E 736;TB 2;Ethyl Antioxidant 736;Antioxidant 736;4,4′-Thiobis(2-<em>tert</em>-butyl-6-methylphenol);Ethyl AO 736;AO 736;TB 2 (antioxidant);NSC 58409;KY 736;2-<em>tert</em>-Butyl-4-(3-<em>tert</em>-butyl-4-hydroxy-5-methylphenyl)sulfanyl-6-methylphenol;Irganox 736",
    "duplicated_cas_no": "",
    "SMILES": "C(C)(C)(C)C1=CC(SC2=CC(C(C)(C)C)=C(O)C(C)=C2)=CC(C)=C1O",
    "meta_data": {
        "InChI": "InChI=1S/C22H30O2S/c1-13-9-15(11-17(19(13)23)21(3,4)5)25-16-10-14(2)20(24)18(12-16)22(6,7)8/h9-12,23-24H,1-8H3",
        "InChIKey": null,
        "Canonical SMILES": "OC=1C(=CC(SC=2C=C(C(O)=C(C2)C(C)(C)C)C)=CC1C(C)(C)C)C",
        "Molecular Formula": "C<sub>22</sub>H<sub>30</sub>O<sub>2</sub>S",
        "Molecular Mass": "358.54",
        "Melting Point": "123-124 °C"
    }
}