{
    "cas_no": "4219-24-3",
    "key_name": "3-Hexenoic acid",
    "cn_name": "3-己烯酸;",
    "alternate_name": "3-Hexenoic acid;Hydrosorbic acid;Δ<sup>3</sup>-Hexenoic acid;NSC 26715",
    "duplicated_cas_no": "",
    "SMILES": "C(C=CCC)C(O)=O",
    "meta_data": {
        "InChI": "InChI=1S/C6H10O2/c1-2-3-4-5-6(7)8/h3-4H,2,5H2,1H3,(H,7,8)",
        "InChIKey": null,
        "Canonical SMILES": "O=C(O)CC=CCC",
        "Molecular Formula": "C<sub>6</sub>H<sub>10</sub>O<sub>2</sub>",
        "Molecular Mass": "114.14",
        "Boiling Point": "208 °C",
        "Melting Point": "12 °C",
        "Density": "0.9626 g/cm³ @ Temp: 14 °C"
    }
}