{
    "cas_no": "15102-42-8",
    "key_name": "2,3-Dibromopropionamide",
    "cn_name": "2,3-二溴丙酰胺;2,3-二溴丙酰胺;2,3-二溴丙酰胺(标准品);2,3-二溴丙酰胺[丙烯酰胺的气液色谱测定法的标准];",
    "alternate_name": "Propanamide, 2,3-dibromo-;Propionamide, 2,3-dibromo-;2,3-Dibromopropanamide;2,3-Dibromopropionamide;NSC 144295",
    "duplicated_cas_no": "",
    "SMILES": "C(C(N)=O)(CBr)Br",
    "meta_data": {
        "InChI": "InChI=1S/C3H5Br2NO/c4-1-2(5)3(6)7/h2H,1H2,(H2,6,7)",
        "InChIKey": null,
        "Canonical SMILES": "O=C(N)C(Br)CBr",
        "Molecular Formula": "C<sub>3</sub>H<sub>5</sub>Br<sub>2</sub>NO",
        "Molecular Mass": "230.89",
        "Melting Point": "132-133 °C"
    }
}