{
    "cas_no": "354-38-1",
    "key_name": "Trifluoroacetamide",
    "cn_name": "2,2,2-三氟乙酰胺;",
    "alternate_name": "Acetamide, 2,2,2-trifluoro-;2,2,2-Trifluoroacetamide;Trifluoroacetamide;NSC 9449",
    "duplicated_cas_no": "2869179-92-8",
    "SMILES": "C(C(N)=O)(F)(F)F",
    "meta_data": {
        "InChI": "InChI=1S/C2H2F3NO/c3-2(4,5)1(6)7/h(H2,6,7)",
        "InChIKey": null,
        "Canonical SMILES": "O=C(N)C(F)(F)F",
        "Molecular Formula": "C<sub>2</sub>H<sub>2</sub>F<sub>3</sub>NO",
        "Molecular Mass": "113.04",
        "Boiling Point": "162.5 °C",
        "Melting Point": "72.5 °C"
    }
}