{
    "cas_no": "5166-53-0",
    "key_name": "5-Methyl-3-hexen-2-one",
    "cn_name": "5-甲基-3-己烯-2-酮;",
    "alternate_name": "3-Hexen-2-one, 5-methyl-;5-Methyl-3-hexen-2-one;2-Oxo-5-methylhex-3-ene;5-Methyl-3-hexene-2-one",
    "duplicated_cas_no": "",
    "SMILES": "C(=CC(C)=O)C(C)C",
    "meta_data": {
        "InChI": "InChI=1S/C7H12O/c1-6(2)4-5-7(3)8/h4-6H,1-3H3",
        "InChIKey": null,
        "Canonical SMILES": "O=C(C=CC(C)C)C",
        "Molecular Formula": "C<sub>7</sub>H<sub>12</sub>O",
        "Molecular Mass": "112.17",
        "Boiling Point": "156 °C @ Press: 757 Torr",
        "Density": "0.8484 g/cm³ @ Temp: 18.5 °C"
    }
}