{
    "cas_no": "350-30-1",
    "key_name": "3-Chloro-4-fluoronitrobenzene",
    "cn_name": "3-氯-4-氟硝基苯;",
    "alternate_name": "Benzene, 2-chloro-1-fluoro-4-nitro-;2-Chloro-1-fluoro-4-nitrobenzene;3-Chloro-4-fluoronitrobenzene;1-Chloro-2-fluoro-5-nitrobenzene;3-Chloro-4-fluoro-1-nitrobenzene;NSC 163894;4-Fluoro-3-chloronitrobenzene;1-Fluoro-2-chloro-4-nitrobenzene;2-Chloro-4-nitrofluorobenzene",
    "duplicated_cas_no": "",
    "SMILES": "N(=O)(=O)C1=CC(Cl)=C(F)C=C1",
    "meta_data": {
        "InChI": "InChI=1S/C6H3ClFNO2/c7-5-3-4(9(10)11)1-2-6(5)8/h1-3H",
        "InChIKey": null,
        "Canonical SMILES": "O=N(=O)C1=CC=C(F)C(Cl)=C1",
        "Molecular Formula": "C<sub>6</sub>H<sub>3</sub>ClFNO<sub>2</sub>",
        "Molecular Mass": "175.54",
        "Boiling Point": "92-93 °C @ Press: 7.5 Torr",
        "Melting Point": "41.5 °C"
    }
}