{
    "cas_no": "345-92-6",
    "key_name": "4,4′-Difluorobenzophenone",
    "cn_name": "4,4\"-二氟二苯甲酮;",
    "alternate_name": "Methanone, bis(4-fluorophenyl)-;Benzophenone, 4,4′-difluoro-;Bis(4-fluorophenyl)methanone;4,4′-Difluorobenzophenone;<em>p</em>,<em>p</em>′-Difluorobenzophenone;Bis(4-fluorophenyl) ketone;Di-<em>p</em>-fluorophenyl ketone;Bis(<em>p</em>-fluorophenyl) ketone;NSC 51800;4,4′-Difluorodiphenyl ketone;4,4′-Difluorodiphenylmethanone",
    "duplicated_cas_no": "",
    "SMILES": "C(=O)(C1=CC=C(F)C=C1)C2=CC=C(F)C=C2",
    "meta_data": {
        "InChI": "InChI=1S/C13H8F2O/c14-11-5-1-9(2-6-11)13(16)10-3-7-12(15)8-4-10/h1-8H",
        "InChIKey": null,
        "Canonical SMILES": "O=C(C1=CC=C(F)C=C1)C2=CC=C(F)C=C2",
        "Molecular Formula": "C<sub>13</sub>H<sub>8</sub>F<sub>2</sub>O",
        "Molecular Mass": "218.20",
        "Melting Point": "109 °C"
    }
}