{
    "cas_no": "85386-20-5",
    "key_name": "5-Phenyl-2-pyrimidinecarboxylic acid",
    "cn_name": null,
    "alternate_name": "2-Pyrimidinecarboxylic acid, 5-phenyl-;5-Phenyl-2-pyrimidinecarboxylic acid",
    "duplicated_cas_no": "",
    "SMILES": "C(O)(=O)C=1N=CC(=CN1)C2=CC=CC=C2",
    "meta_data": {
        "InChI": "InChI=1S/C11H8N2O2/c14-11(15)10-12-6-9(7-13-10)8-4-2-1-3-5-8/h1-7H,(H,14,15)",
        "InChIKey": null,
        "Canonical SMILES": "O=C(O)C=1N=CC(=CN1)C2=CC=CC=C2",
        "Molecular Formula": "C<sub>11</sub>H<sub>8</sub>N<sub>2</sub>O<sub>2</sub>",
        "Molecular Mass": "200.19",
        "Melting Point": "223 °C"
    }
}