{
    "cas_no": "1259-35-4",
    "key_name": "Tris(pentafluorophenyl)phosphine",
    "cn_name": "三(五氟苯基)膦;",
    "alternate_name": "Phosphine, tris(2,3,4,5,6-pentafluorophenyl)-;Phosphine, tris(pentafluorophenyl)-;Tris(2,3,4,5,6-pentafluorophenyl)phosphine;Tris(pentafluorophenyl)phosphine;MLO 74-62;Tris(perfluorophenyl)phosphine",
    "duplicated_cas_no": "",
    "SMILES": "P(C1=C(F)C(F)=C(F)C(F)=C1F)(C2=C(F)C(F)=C(F)C(F)=C2F)C3=C(F)C(F)=C(F)C(F)=C3F",
    "meta_data": {
        "InChI": "InChI=1S/C18F15P/c19-1-4(22)10(28)16(11(29)5(1)23)34(17-12(30)6(24)2(20)7(25)13(17)31)18-14(32)8(26)3(21)9(27)15(18)33",
        "InChIKey": null,
        "Canonical SMILES": "FC=1C(F)=C(F)C(=C(F)C1F)P(C=2C(F)=C(F)C(F)=C(F)C2F)C=3C(F)=C(F)C(F)=C(F)C3F",
        "Molecular Formula": "C<sub>18</sub>F<sub>15</sub>P",
        "Molecular Mass": "532.14",
        "Melting Point": "114-115 °C"
    }
}