{
    "cas_no": "90101-22-7",
    "key_name": "1,1-Dimethylethyl <em>N</em>-(6-methyl-2-pyridinyl)carbamate",
    "cn_name": null,
    "alternate_name": "Carbamic acid, <em>N</em>-(6-methyl-2-pyridinyl)-, 1,1-dimethylethyl ester;Carbamic acid, (6-methyl-2-pyridinyl)-, 1,1-dimethylethyl ester;1,1-Dimethylethyl <em>N</em>-(6-methyl-2-pyridinyl)carbamate;2-Methyl-6-[[<em>tert</em>-Butoxycarbonyl]amino]pyridine;<em>N</em>-(6-Methylpyridin-2-yl)carbamic acid tert-butyl ester;2-(<em>tert</em>-Butoxycarbonylamino)-6-methylpyridine;<em>tert</em>-Butyl (6-methylpyridin-2-yl)carbamate",
    "duplicated_cas_no": "777078-22-5",
    "SMILES": "N(C(OC(C)(C)C)=O)C=1N=C(C)C=CC1",
    "meta_data": {
        "InChI": "InChI=1S/C11H16N2O2/c1-8-6-5-7-9(12-8)13-10(14)15-11(2,3)4/h5-7H,1-4H3,(H,12,13,14)",
        "InChIKey": null,
        "Canonical SMILES": "O=C(OC(C)(C)C)NC=1N=C(C=CC1)C",
        "Molecular Formula": "C<sub>11</sub>H<sub>16</sub>N<sub>2</sub>O<sub>2</sub>",
        "Molecular Mass": "208.26",
        "Melting Point": "57.9-58.6 °C"
    }
}