{
    "cas_no": "4621-04-9",
    "key_name": "4-Isopropylcyclohexanol",
    "cn_name": "4-(1-甲基乙基)环己醇;对异丙基环己醇;",
    "alternate_name": "Cyclohexanol, 4-(1-methylethyl)-;Cyclohexanol, 4-isopropyl-;4-(1-Methylethyl)cyclohexanol;4-Isopropylcyclohexanol;<em>p</em>-Isopropylcyclohexanol;NSC 21123;Folrosia;Apo patchone",
    "duplicated_cas_no": "",
    "SMILES": "C(C)(C)C1CCC(O)CC1",
    "meta_data": {
        "InChI": "InChI=1S/C9H18O/c1-7(2)8-3-5-9(10)6-4-8/h7-10H,3-6H2,1-2H3",
        "InChIKey": null,
        "Canonical SMILES": "OC1CCC(CC1)C(C)C",
        "Molecular Formula": "C<sub>9</sub>H<sub>18</sub>O",
        "Molecular Mass": "142.24",
        "Boiling Point": "102-106 °C @ Press: 12 Torr",
        "Density": "0.9209 g/cm³ @ Temp: 15 °C"
    }
}