{
    "cas_no": "6388-47-2",
    "key_name": "2-Amino-3-chlorobenzoic acid",
    "cn_name": "2-氨基-3-氯苯甲酸;",
    "alternate_name": "Benzoic acid, 2-amino-3-chloro-;Anthranilic acid, 3-chloro-;2-Amino-3-chlorobenzoic acid;3-Chloroanthranilic acid;3-Chloro-2-aminobenzoic acid;NSC 20671",
    "duplicated_cas_no": "",
    "SMILES": "C(O)(=O)C1=C(N)C(Cl)=CC=C1",
    "meta_data": {
        "InChI": "InChI=1S/C7H6ClNO2/c8-5-3-1-2-4(6(5)9)7(10)11/h1-3H,9H2,(H,10,11)",
        "InChIKey": null,
        "Canonical SMILES": "O=C(O)C=1C=CC=C(Cl)C1N",
        "Molecular Formula": "C<sub>7</sub>H<sub>6</sub>ClNO<sub>2</sub>",
        "Molecular Mass": "171.58",
        "Melting Point": "190 °C"
    }
}