{
    "cas_no": "1174-72-7",
    "key_name": "Tetraphenoxysilane",
    "cn_name": "硅酸四苯酯;",
    "alternate_name": "Silicic acid (H<sub>4</sub>SiO<sub>4</sub>), tetraphenyl ester;Phenyl silicate ((PhO)<sub>4</sub>Si);Silane, tetraphenoxy-;Tetraphenoxysilane;Tetraphenyl silicate;Tetraphenyl orthosilicate;NSC 252166",
    "duplicated_cas_no": "",
    "SMILES": "[Si](OC1=CC=CC=C1)(OC2=CC=CC=C2)(OC3=CC=CC=C3)OC4=CC=CC=C4",
    "meta_data": {
        "InChI": "InChI=1S/C24H20O4Si/c1-5-13-21(14-6-1)25-29(26-22-15-7-2-8-16-22,27-23-17-9-3-10-18-23)28-24-19-11-4-12-20-24/h1-20H",
        "InChIKey": null,
        "Canonical SMILES": "O(C=1C=CC=CC1)[Si](OC=2C=CC=CC2)(OC=3C=CC=CC3)OC=4C=CC=CC4",
        "Molecular Formula": "C<sub>24</sub>H<sub>20</sub>O<sub>4</sub>Si",
        "Molecular Mass": "400.50",
        "Boiling Point": "417 °C",
        "Melting Point": "49 °C",
        "Density": "1.1328 g/cm³ @ Temp: 70 °C"
    }
}