{
    "cas_no": "1154-59-2",
    "key_name": "3,3′,4′,5-Tetrachlorosalicylanilide",
    "cn_name": "3,3,4,5-四氯水杨酰苯胺;",
    "alternate_name": "Benzamide, 3,5-dichloro-<em>N</em>-(3,4-dichlorophenyl)-2-hydroxy-;Salicylanilide, 3,3′,4′,5-tetrachloro-;3,5-Dichloro-<em>N</em>-(3,4-dichlorophenyl)-2-hydroxybenzamide;3,5-Dichlorosalicylic acid 3,4-dichloroanilide;3,3′,4′,5-Tetrachlorosalicylanilide;3,5,3′,4′-Tetrachlorosalicylanilide;Impregon;Irgasan BS 200;WR 593;Lenigron;MCT 30",
    "duplicated_cas_no": "",
    "SMILES": "C(NC1=CC(Cl)=C(Cl)C=C1)(=O)C2=C(O)C(Cl)=CC(Cl)=C2",
    "meta_data": {
        "InChI": "InChI=1S/C13H7Cl4NO2/c14-6-3-8(12(19)11(17)4-6)13(20)18-7-1-2-9(15)10(16)5-7/h1-5,19H,(H,18,20)",
        "InChIKey": null,
        "Canonical SMILES": "O=C(NC1=CC=C(Cl)C(Cl)=C1)C=2C=C(Cl)C=C(Cl)C2O",
        "Molecular Formula": "C<sub>13</sub>H<sub>7</sub>Cl<sub>4</sub>NO<sub>2</sub>",
        "Molecular Mass": "351.01",
        "Melting Point": "161 °C"
    }
}