{
    "cas_no": "20098-20-8",
    "key_name": "5-Bromo-2-adamantanone",
    "cn_name": "5-溴-2-金刚烷酮;",
    "alternate_name": "Tricyclo[3.3.1.1<sup>3,7</sup>]decan-2-one, 5-bromo-;2-Adamantanone, 5-bromo-;Tricyclo[3.3.1.1<sup>3,7</sup>]decanone, 5-bromo-;5-Bromotricyclo[3.3.1.1<sup>3,7</sup>]decan-2-one;5-Bromo-2-adamantanone;1-Bromoadamantan-4-one;(±)-5-Bromoadamantan-2-one",
    "duplicated_cas_no": "164262-70-8",
    "SMILES": "BrC12CC3C(=O)C(C1)CC(C2)C3",
    "meta_data": {
        "InChI": "InChI=1S/C10H13BrO/c11-10-3-6-1-7(4-10)9(12)8(2-6)5-10/h6-8H,1-5H2",
        "InChIKey": null,
        "Canonical SMILES": "O=C1C2CC3CC1CC(Br)(C2)C3",
        "Molecular Formula": "C<sub>10</sub>H<sub>13</sub>BrO",
        "Molecular Mass": "229.11",
        "Melting Point": "150-152 °C"
    }
}