{
    "cas_no": "29504-89-0",
    "key_name": "3-(Octylamino)propanenitrile",
    "cn_name": null,
    "alternate_name": "Propanenitrile, 3-(octylamino)-;Propionitrile, 3-(octylamino)-;3-(Octylamino)propanenitrile;<em>N</em>-Octyl-β-aminopropionitrile;3-(Octylamino)propionitrile;<em>N</em>-(2-Cyanoethyl)octylamine",
    "duplicated_cas_no": "",
    "SMILES": "C(CCCCCC)CNCCC#N",
    "meta_data": {
        "InChI": "InChI=1S/C11H22N2/c1-2-3-4-5-6-7-10-13-11-8-9-12/h13H,2-8,10-11H2,1H3",
        "InChIKey": null,
        "Canonical SMILES": "N#CCCNCCCCCCCC",
        "Molecular Formula": "C<sub>11</sub>H<sub>22</sub>N<sub>2</sub>",
        "Molecular Mass": "182.31",
        "Boiling Point": "117-120 °C @ Press: 1 Torr"
    }
}