{
    "cas_no": "57-47-6",
    "key_name": "(-)-Physostigmine",
    "cn_name": null,
    "alternate_name": "Pyrrolo[2,3-<em>b</em>]indol-5-ol, 1,2,3,3a,8,8a-hexahydro-1,3a,8-trimethyl-, 5-(<em>N</em>-methylcarbamate), (3a<em>S</em>,8a<em>R</em>)-;Physostigmine;Pyrrolo[2,3-<em>b</em>]indol-5-ol, 1,2,3,3a,8,8a-hexahydro-1,3a,8-trimethyl-, methylcarbamate (ester), (3a<em>S</em>-<em>cis</em>)-;Pyrrolo[2,3-<em>b</em>]indol-5-ol, 1,2,3,3a,8,8a-hexahydro-1,3a,8-trimethyl-, methylcarbamate (ester), (3a<em>S</em>,8a<em>R</em>)-;Eserine;(-)-Eserine;Esromiotin;Physostol;(-)-Physostigmine;NIH 10421;MCV 4484;Cogmine;NSC 30782;MeSH ID: D010830",
    "duplicated_cas_no": "511-49-9;50975-37-6",
    "SMILES": "C[C@]12C=3C(N(C)[C@]1(N(C)CC2)[H])=CC=C(OC(NC)=O)C3",
    "meta_data": {
        "InChI": "InChI=1S/C15H21N3O2/c1-15-7-8-17(3)13(15)18(4)12-6-5-10(9-11(12)15)20-14(19)16-2/h5-6,9,13H,7-8H2,1-4H3,(H,16,19)/t13-,15+/m1/s1",
        "InChIKey": null,
        "Canonical SMILES": "O=C(OC1=CC=C2C(=C1)C3(C)CCN(C)C3N2C)NC",
        "Molecular Formula": "C<sub>15</sub>H<sub>21</sub>N<sub>3</sub>O<sub>2</sub>",
        "Molecular Mass": "275.35",
        "Melting Point": "105.5 °C"
    }
}