{
    "cas_no": "504-40-5",
    "key_name": "1,3-Distearin",
    "cn_name": null,
    "alternate_name": "Octadecanoic acid, 1,1′-(2-hydroxy-1,3-propanediyl) ester;Stearin, 1,3-di-;Octadecanoic acid, 2-hydroxy-1,3-propanediyl ester;1,3-Distearin;Stearic acid diglycerin ester;1,3-Di-<em>O</em>-stearoylglycerol;1,3-Distearoylglycerol;1,3-Distearoylglycerin;Glyceryl 1,3-distearate;Glycerin 1,3-distearate;Glycerol 1,3-distearate;<em>sn</em>-1,3-Distearoylglycerol;NSC 404229;2-Hydroxypropane-1,3-diyl distearate",
    "duplicated_cas_no": "",
    "SMILES": "C(C(COC(CCCCCCCCCCCCCCCCC)=O)O)OC(CCCCCCCCCCCCCCCCC)=O",
    "meta_data": {
        "InChI": "InChI=1S/C39H76O5/c1-3-5-7-9-11-13-15-17-19-21-23-25-27-29-31-33-38(41)43-35-37(40)36-44-39(42)34-32-30-28-26-24-22-20-18-16-14-12-10-8-6-4-2/h37,40H,3-36H2,1-2H3",
        "InChIKey": null,
        "Canonical SMILES": "O=C(OCC(O)COC(=O)CCCCCCCCCCCCCCCCC)CCCCCCCCCCCCCCCCC",
        "Molecular Formula": "C<sub>39</sub>H<sub>76</sub>O<sub>5</sub>",
        "Molecular Mass": "625.02",
        "Melting Point": "78.5-79 °C"
    }
}