{
    "cas_no": "75-76-3",
    "key_name": "Tetramethylsilane",
    "cn_name": "四甲基硅烷;",
    "alternate_name": "Silane, tetramethyl-;Tetramethylsilane;TMS;TMS (silane derivative);NSC 5210;T 2050",
    "duplicated_cas_no": "",
    "SMILES": "[Si](C)(C)(C)C",
    "meta_data": {
        "InChI": "InChI=1S/C4H12Si/c1-5(2,3)4/h1-4H3",
        "InChIKey": null,
        "Canonical SMILES": "C[Si](C)(C)C",
        "Molecular Formula": "C<sub>4</sub>H<sub>12</sub>Si",
        "Molecular Mass": "88.22",
        "Boiling Point": "26.6 °C",
        "Melting Point": "-99 °C",
        "Density": "0.641 g/cm³"
    }
}