{
    "cas_no": "352-91-0",
    "key_name": "Propane, 1-bromo-3-fluoro-",
    "cn_name": "1-溴-3-氟丙烷;1-溴-3-氟丙烷;",
    "alternate_name": "Propane, 1-bromo-3-fluoro-;1-Bromo-3-fluoropropane;3-Fluoropropyl bromide;1-Fluoro-3-bromopropane;3-Bromo-1-fluoropropane;3-Fluoro-1-bromopropane",
    "duplicated_cas_no": "",
    "SMILES": "C(CBr)CF",
    "meta_data": {
        "InChI": "InChI=1S/C3H6BrF/c4-2-1-3-5/h1-3H2",
        "InChIKey": null,
        "Canonical SMILES": "FCCCBr",
        "Molecular Formula": "C<sub>3</sub>H<sub>6</sub>BrF",
        "Molecular Mass": "140.98",
        "Boiling Point": "101.4 °C",
        "Density": "1.542 g/cm³ @ Temp: 25 °C"
    }
}