{
    "cas_no": "7727-79-9",
    "key_name": "Zederone",
    "cn_name": null,
    "alternate_name": "Oxireno[4,5]cyclodeca[1,2-<em>b</em>]furan-10(2<em>H</em>)-one, 1a,3,6,10a-tetrahydro-1a,5,9-trimethyl-, (1a<em>R</em>,4<em>E</em>,10a<em>R</em>)-;Zederone;Oxireno[4,5]cyclodeca[1,2-<em>b</em>]furan-10(2<em>H</em>)-one, 1a,3,6,10a-tetrahydro-1a,5,9-trimethyl-, [<em>R</em>-[<em>R</em>*,<em>R</em>*-(<em>E</em>)]]-;Germacra-1(10),7,11-trien-6-one, 4,5α:8,12-diepoxy-, (<em>E</em>)-;(1a<em>R</em>,4<em>E</em>,10a<em>R</em>)-1a,3,6,10a-Tetrahydro-1a,5,9-trimethyloxireno[4,5]cyclodeca[1,2-<em>b</em>]furan-10(2<em>H</em>)-one",
    "duplicated_cas_no": "1397-64-4",
    "SMILES": "",
    "meta_data": {
        "InChI": "",
        "InChIKey": null,
        "Canonical SMILES": "",
        "Molecular Formula": "C<sub>15</sub>H<sub>18</sub>O<sub>3</sub>",
        "Molecular Mass": "246.30",
        "Melting Point": "153.4-153.9 °C"
    }
}