{
    "cas_no": "7397-46-8",
    "key_name": "Diethylmethoxyborane",
    "cn_name": "二乙基甲氧基硼烷;",
    "alternate_name": "Borinic acid, <em>B</em>,<em>B</em>-diethyl-, methyl ester;Borinic acid, diethyl-, methyl ester;Methoxydiethylborane;Diethylmethoxyborane;Methyl diethylborinate;Diethylboron methoxide",
    "duplicated_cas_no": "",
    "SMILES": "B(CC)(CC)OC",
    "meta_data": {
        "InChI": "InChI=1S/C5H13BO/c1-4-6(5-2)7-3/h4-5H2,1-3H3",
        "InChIKey": null,
        "Canonical SMILES": "O(B(CC)CC)C",
        "Molecular Formula": "C<sub>5</sub>H<sub>13</sub>BO",
        "Molecular Mass": "99.97",
        "Boiling Point": "89-90 °C @ Press: 760 Torr",
        "Density": "0.717 g/cm³ (liquid) @ Temp: 20 °C"
    }
}