{
    "cas_no": "135-48-8",
    "key_name": "Pentacene",
    "cn_name": "并五苯;",
    "alternate_name": "Pentacene;Benzo[<em>b</em>]naphthacene;<em>lin</em>-Dibenzanthracene;<em>lin</em>-Naphthoanthracene;2,3:6,7-Dibenzanthracene;Dibenz[<em>b</em>,<em>i</em>]anthracene;NSC 90784",
    "duplicated_cas_no": "",
    "SMILES": "C12=C(C=C3C(=C1)C=C4C(=C3)C=CC=C4)C=C5C(=C2)C=CC=C5",
    "meta_data": {
        "InChI": "InChI=1S/C22H14/c1-2-6-16-10-20-14-22-12-18-8-4-3-7-17(18)11-21(22)13-19(20)9-15(16)5-1/h1-14H",
        "InChIKey": null,
        "Canonical SMILES": "C=1C=CC2=CC3=CC=4C=C5C=CC=CC5=CC4C=C3C=C2C1",
        "Molecular Formula": "C<sub>22</sub>H<sub>14</sub>",
        "Molecular Mass": "278.35",
        "Boiling Point": "40-43 °C @ Press: 0.15 Torr",
        "Melting Point": "257 °C"
    }
}