{
    "cas_no": "138-15-8",
    "key_name": "<span class=\"text-smallcaps\">L</span>-Glutamic acid, hydrochloride",
    "cn_name": "L-谷氨酸盐酸盐;",
    "alternate_name": "<span class=\"text-smallcaps\">L</span>-Glutamic acid, hydrochloride (1:1);Glutamic acid, hydrochloride, <span class=\"text-smallcaps\">L</span>-;<span class=\"text-smallcaps\">L</span>-Glutamic acid, hydrochloride;Acidalin;Acidoride;Acidothyn;Aciglumin;Acidulin;Aclor;Acridogen;Acridoride;2-Aminopentanedioic acid hydrochloride;Antalka;Gastuloric;Glusatin;Glutamic acid hydrochloride;Glutamidin;Glutan Hydrochloric;Glutan hydrochloride;Glutasin;Hydrionic;Hypochylin;Muriamic;Pepsdol;<span class=\"text-smallcaps\">L</span>-Glutamic acid monohydrochloride;Acidogen;Acidulen;Pepsidol;Glutan HCl;Glutamic acid monohydrochloride;<span class=\"text-smallcaps\">L</span>(+)-Glutamic acid hydrochloride;NSC 9239",
    "duplicated_cas_no": "125685-10-1",
    "SMILES": "[C@H](CCC(O)=O)(C(O)=O)N.Cl",
    "meta_data": {
        "InChI": "InChI=1S/C5H9NO4.ClH/c6-3(5(9)10)1-2-4(7)8;/h3H,1-2,6H2,(H,7,8)(H,9,10);1H/t3-;/m0./s1",
        "InChIKey": null,
        "Canonical SMILES": "Cl.O=C(O)CCC(N)C(=O)O",
        "Molecular Formula": "C<sub>5</sub>H<sub>9</sub>NO<sub>4</sub>.ClH",
        "Molecular Mass": "",
        "Melting Point": "214 °C (decomp)",
        "Density": "1.525 g/cm³"
    }
}