{
    "cas_no": "766-51-8",
    "key_name": "2-Chloroanisole",
    "cn_name": "2-氯苯甲醚;邻氯苯甲醚;",
    "alternate_name": "Benzene, 1-chloro-2-methoxy-;Anisole, <em>o</em>-chloro-;1-Chloro-2-methoxybenzene;<em>o</em>-Chloroanisole;<em>o</em>-Chlorophenyl methyl ether;2-Chloroanisole;2-Chlorophenol methyl ether;<em>o</em>-Chloromethoxybenzene;2-Chloromethoxybenzene;<em>o</em>-Methoxychlorobenzene;NSC 155175;2-Methoxyphenyl chloride;2-Methoxy-1-chlorobenzene",
    "duplicated_cas_no": "",
    "SMILES": "O(C)C1=C(Cl)C=CC=C1",
    "meta_data": {
        "InChI": "InChI=1S/C7H7ClO/c1-9-7-5-3-2-4-6(7)8/h2-5H,1H3",
        "InChIKey": null,
        "Canonical SMILES": "ClC=1C=CC=CC1OC",
        "Molecular Formula": "C<sub>7</sub>H<sub>7</sub>ClO",
        "Molecular Mass": "142.58",
        "Boiling Point": "198.5 °C",
        "Melting Point": "-26.8 °C",
        "Density": "1.248 g/cm³ @ Temp: 20 °C"
    }
}