{
    "cas_no": "939-83-3",
    "key_name": "2-Methyl-5-nitrobenzonitrile",
    "cn_name": null,
    "alternate_name": "Benzonitrile, 2-methyl-5-nitro-;<em>o</em>-Tolunitrile, 5-nitro-;2-Methyl-5-nitrobenzonitrile;2-Cyano-4-nitrotoluene;5-Nitro-<em>o</em>-tolunitrile;6-Methyl-3-nitrobenzonitrile;5-Nitro-2-methylbenzonitrile;NSC 507493",
    "duplicated_cas_no": "",
    "SMILES": "C(#N)C1=CC(N(=O)=O)=CC=C1C",
    "meta_data": {
        "InChI": "InChI=1S/C8H6N2O2/c1-6-2-3-8(10(11)12)4-7(6)5-9/h2-4H,1H3",
        "InChIKey": null,
        "Canonical SMILES": "N#CC1=CC(=CC=C1C)N(=O)=O",
        "Molecular Formula": "C<sub>8</sub>H<sub>6</sub>N<sub>2</sub>O<sub>2</sub>",
        "Molecular Mass": "162.15",
        "Melting Point": "113-115 °C"
    }
}