{
    "cas_no": "33627-41-7",
    "key_name": "1-<em>O</em>-Acetylbritannilactone",
    "cn_name": null,
    "alternate_name": "2(3<em>H</em>)-Benzofuranone, 5-[(1<em>S</em>)-4-(acetyloxy)-1-methylbutyl]-3a,4,7,7a-tetrahydro-4-hydroxy-6-methyl-3-methylene-, (3a<em>S</em>,4<em>S</em>,7a<em>R</em>)-;2(3<em>H</em>)-Benzofuranone, 5-[4-(acetyloxy)-1-methylbutyl]-3a,4,7,7a-tetrahydro-4-hydroxy-6-methyl-3-methylene-, [3a<em>S</em>-[3aα,4α,5(<em>R</em>*),7aα]]-;(3a<em>S</em>,4<em>S</em>,7a<em>R</em>)-5-[(1<em>S</em>)-4-(Acetyloxy)-1-methylbutyl]-3a,4,7,7a-tetrahydro-4-hydroxy-6-methyl-3-methylene-2(3<em>H</em>)-benzofuranone;Inulicin;1-<em>O</em>-Acetylbritannilactone;1-<em>O</em>-Acetylbritannilatone;Britannilactone 1-<em>O</em>-acetate;1-Acetoxy-6α-hydroxyeriolanolide",
    "duplicated_cas_no": "681457-46-5;744203-09-6",
    "SMILES": "O[C@H]1[C@]2([C@@](CC(C)=C1[C@H](CCCOC(C)=O)C)(OC(=O)C2=C)[H])[H]",
    "meta_data": {
        "InChI": "InChI=1S/C17H24O5/c1-9(6-5-7-21-12(4)18)14-10(2)8-13-15(16(14)19)11(3)17(20)22-13/h9,13,15-16,19H,3,5-8H2,1-2,4H3/t9-,13+,15+,16+/m0/s1",
        "InChIKey": null,
        "Canonical SMILES": "O=C1OC2CC(=C(C(O)C2C1=C)C(C)CCCOC(=O)C)C",
        "Molecular Formula": "C<sub>17</sub>H<sub>24</sub>O<sub>5</sub>",
        "Molecular Mass": "308.37",
        "Melting Point": "124.0-126.1 °C"
    }
}