{
    "cas_no": "4726-96-9",
    "key_name": "<em>O</em>-Benzyl-<span class=\"text-smallcaps\">L</span>-serine",
    "cn_name": null,
    "alternate_name": "<span class=\"text-smallcaps\">L</span>-Serine, <em>O</em>-(phenylmethyl)-;Alanine, 3-(benzyloxy)-, <span class=\"text-smallcaps\">L</span>-;<em>O</em>-(Phenylmethyl)-<span class=\"text-smallcaps\">L</span>-serine;<em>O</em>-Benzyl-<span class=\"text-smallcaps\">L</span>-serine;3-(Benzyloxy)-<span class=\"text-smallcaps\">L</span>-alanine;<em>O</em>-Benzylserine;<span class=\"text-smallcaps\">L</span>-<em>O</em>-Benzylserine;(<em>S</em>)-2-Amino-3-(benzyloxy)propanoic acid;(<em>S</em>)-2-Amino-3-benzyloxypropionic acid;(2S)-2-Azaniumyl-3-phenylmethoxypropanoate;(2S)-2-Amino-3-(benzyloxy)propanoic acid",
    "duplicated_cas_no": "27485-53-6;1445593-41-8;1682647-45-5;1683583-31-4",
    "SMILES": "C(OC[C@@H](C(O)=O)N)C1=CC=CC=C1",
    "meta_data": {
        "InChI": "InChI=1S/C10H13NO3/c11-9(10(12)13)7-14-6-8-4-2-1-3-5-8/h1-5,9H,6-7,11H2,(H,12,13)/t9-/m0/s1",
        "InChIKey": null,
        "Canonical SMILES": "O=C(O)C(N)COCC=1C=CC=CC1",
        "Molecular Formula": "C<sub>10</sub>H<sub>13</sub>NO<sub>3</sub>",
        "Molecular Mass": "195.22",
        "Melting Point": "218 °C"
    }
}