{
    "cas_no": "14538-51-3",
    "key_name": "2,3-Butanediamine, <em>N</em><sup>2</sup>,<em>N</em><sup>3</sup>-dihydroxy-2,3-dimethyl-, sulfate (1:1)",
    "cn_name": null,
    "alternate_name": "2,3-Butanediamine, <em>N</em><sup>2</sup>,<em>N</em><sup>3</sup>-dihydroxy-2,3-dimethyl-, sulfate (1:1);2,3-Butanediamine, <em>N</em>,<em>N</em>′-dihydroxy-2,3-dimethyl-, sulfate (1:1) (salt);Hydroxylamine, <em>N</em>,<em>N</em>′-(tetramethylethylene)bis-, 1sulfate (1:1) (salt);2,3-Bis(hydroxylamino)-2,3-dimethylbutane sulfuric acid salt;2,3-Bis(hydroxyamino)-2,3-dimethylbutane sulfate;2,3-Dimethyl-2,3-bis(hydroxylammonium)butane sulfate;2,3-Bis(hydroxylamino)-2,3-dimethylbutane monosulfate;2,3-Bis(hydroxylammonium)-2,3-dimethylbutane sulfate;<em>N</em>,<em>N</em>′-Dihydroxy-2,3-diamino-2,3-dimethylbutane sulfate;2,3-Bis(hydroxylamino)-2,3-dimethylbutane sulfate;<em>N</em>,<em>N</em>′-Dihydroxy-2,3-dimethylbutane-2,3-diamine monosulfate",
    "duplicated_cas_no": "78375-92-5;210881-06-4",
    "SMILES": "C(C(NO)(C)C)(NO)(C)C.S(=O)(=O)(O)O",
    "meta_data": {
        "InChI": "InChI=1S/C6H16N2O2.H2O4S/c1-5(2,7-9)6(3,4)8-10;1-5(2,3)4/h7-10H,1-4H3;(H2,1,2,3,4)",
        "InChIKey": null,
        "Canonical SMILES": "O=S(=O)(O)O.ONC(C)(C)C(NO)(C)C",
        "Molecular Formula": "C<sub>6</sub>H<sub>16</sub>N<sub>2</sub>O<sub>2</sub>.H<sub>2</sub>O<sub>4</sub>S",
        "Molecular Mass": "",
        "Melting Point": "172-174 °C"
    }
}