{
    "cas_no": "220000-87-3",
    "key_name": "4-Chloro-<em>N</em>-methylpicolinamide",
    "cn_name": "N-甲基-4-氯-2-吡啶甲酰胺;4-氯-N-甲基吡啶-2-甲酰胺;",
    "alternate_name": "2-Pyridinecarboxamide, 4-chloro-<em>N</em>-methyl-;4-Chloro-<em>N</em>-methyl-2-pyridinecarboxamide;2-(<em>N</em>-Methylcarbamoyl)-4-chloropyridine;<em>N</em>-Methyl-4-chloro-2-pyridinecarboxamide;<em>N</em>-Methyl-4-chloropicolinamide;4-Chloropyridine-2-carboxylic acid methylamide;4-Chloro-<em>N</em>-methylpicolinamide;APS-4-76",
    "duplicated_cas_no": "",
    "SMILES": "C(NC)(=O)C1=CC(Cl)=CC=N1",
    "meta_data": {
        "InChI": "InChI=1S/C7H7ClN2O/c1-9-7(11)6-4-5(8)2-3-10-6/h2-4H,1H3,(H,9,11)",
        "InChIKey": null,
        "Canonical SMILES": "O=C(NC)C1=NC=CC(Cl)=C1",
        "Molecular Formula": "C<sub>7</sub>H<sub>7</sub>ClN<sub>2</sub>O",
        "Molecular Mass": "170.60",
        "Melting Point": "41-42 °C"
    }
}