{
    "cas_no": "463-49-0",
    "key_name": "Allene",
    "cn_name": "丙二烯;",
    "alternate_name": "1,2-Propadiene;Propadiene;Allene;<em>sym</em>-Allylene;Dimethylenemethane;Bis(methylene)methane",
    "duplicated_cas_no": "6688-91-1",
    "SMILES": "C(=C)=C",
    "meta_data": {
        "InChI": "InChI=1S/C3H4/c1-3-2/h1-2H2",
        "InChIKey": null,
        "Canonical SMILES": "C(=C)=C",
        "Molecular Formula": "C<sub>3</sub>H<sub>4</sub>",
        "Molecular Mass": "40.06",
        "Boiling Point": "-34.5 °C @ Press: 760 Torr",
        "Melting Point": "-136 °C",
        "Density": "1.787 g/cm³"
    }
}