{
    "cas_no": "144-98-9",
    "key_name": "Allothreonine",
    "cn_name": "DL-别苏氨酸;",
    "alternate_name": "Allothreonine;Allothreonine, <span class=\"text-smallcaps\">DL</span>-;<span class=\"text-smallcaps\">DL</span>-<em>allo</em>-Threonine;<span class=\"text-smallcaps\">DL</span>-Allothreonine;Threonine, <em>allo</em>-;Butanoic acid, 2-amino-3-<em>allo</em>-hydroxy-;<em>allo</em>-Threonine;NSC 41828",
    "duplicated_cas_no": "2676-21-3",
    "SMILES": "[C@H]([C@H](C)O)(C(O)=O)N",
    "meta_data": {
        "InChI": "InChI=1/C4H9NO3/c1-2(6)3(5)4(7)8/h2-3,6H,5H2,1H3,(H,7,8)/t2-,3-/s2",
        "InChIKey": null,
        "Canonical SMILES": "O=C(O)C(N)C(O)C",
        "Molecular Formula": "C<sub>4</sub>H<sub>9</sub>NO<sub>3</sub>",
        "Molecular Mass": "119.12",
        "Melting Point": "245-248 °C"
    }
}