{
    "cas_no": "5441-51-0",
    "key_name": "4-Ethylcyclohexanone",
    "cn_name": "4-乙基环己酮;对乙基环己酮;",
    "alternate_name": "Cyclohexanone, 4-ethyl-;4-Ethylcyclohexanone;NSC 21120;4-Ethyl-1-cyclohexanone",
    "duplicated_cas_no": "",
    "SMILES": "C(C)C1CCC(=O)CC1",
    "meta_data": {
        "InChI": "InChI=1S/C8H14O/c1-2-7-3-5-8(9)6-4-7/h7H,2-6H2,1H3",
        "InChIKey": null,
        "Canonical SMILES": "O=C1CCC(CC)CC1",
        "Molecular Formula": "C<sub>8</sub>H<sub>14</sub>O",
        "Molecular Mass": "126.20",
        "Boiling Point": "193 °C",
        "Melting Point": "87-88 °C",
        "Density": "0.913 g/cm³ @ Temp: 20 °C"
    }
}