{
    "cas_no": "874819-71-3",
    "key_name": "<em>N</em>-(2-Nitrophenyl)phosphoric triamide",
    "cn_name": null,
    "alternate_name": "Phosphoric triamide, <em>N</em>-(2-nitrophenyl)-;Phosphoric triamide, (2-nitrophenyl)-;<em>N</em>-(2-Nitrophenyl)phosphoric triamide;<em>N</em>-(2-Nitrophenyl)phosphoric acid triamide",
    "duplicated_cas_no": "",
    "SMILES": "N(=O)(=O)C1=C(NP(N)(N)=O)C=CC=C1",
    "meta_data": {
        "InChI": "InChI=1S/C6H9N4O3P/c7-14(8,13)9-5-3-1-2-4-6(5)10(11)12/h1-4H,(H5,7,8,9,13)",
        "InChIKey": null,
        "Canonical SMILES": "O=N(=O)C=1C=CC=CC1NP(=O)(N)N",
        "Molecular Formula": "C<sub>6</sub>H<sub>9</sub>N<sub>4</sub>O<sub>3</sub>P",
        "Molecular Mass": "216.13",
        "Melting Point": "168-169 °C"
    }
}