{
    "cas_no": "19235-89-3",
    "key_name": "4-Chloro-2-cyanopyridine",
    "cn_name": "4-氯-2-氰基吡啶；4-氯氰基砒啶;",
    "alternate_name": "2-Pyridinecarbonitrile, 4-chloro-;Picolinonitrile, 4-chloro-;4-Chloro-2-pyridinecarbonitrile;4-Chloropicolinonitrile;4-Chloro-2-cyanopyridine;2-Cyano-4-chloropyridine;4-Chloro-pyridine-2-carbonitrile;4-Chloropyridine carbonitrile",
    "duplicated_cas_no": "",
    "SMILES": "C(#N)C1=CC(Cl)=CC=N1",
    "meta_data": {
        "InChI": "InChI=1S/C6H3ClN2/c7-5-1-2-9-6(3-5)4-8/h1-3H",
        "InChIKey": null,
        "Canonical SMILES": "N#CC1=NC=CC(Cl)=C1",
        "Molecular Formula": "C<sub>6</sub>H<sub>3</sub>ClN<sub>2</sub>",
        "Molecular Mass": "138.55",
        "Melting Point": "85-86 °C"
    }
}