{
    "cas_no": "6936-48-7",
    "key_name": "(2<em>Z</em>)-4-(Methylamino)-4-oxo-2-butenoic acid",
    "cn_name": "N-甲基马来酸;N-甲基马来酸;",
    "alternate_name": "2-Butenoic acid, 4-(methylamino)-4-oxo-, (2<em>Z</em>)-;Maleamic acid, <em>N</em>-methyl-;2-Butenoic acid, 4-(methylamino)-4-oxo-, (<em>Z</em>)-;(2<em>Z</em>)-4-(Methylamino)-4-oxo-2-butenoic acid;<em>N</em>-Methylmaleamic acid",
    "duplicated_cas_no": "",
    "SMILES": "C(/C=C\\C(O)=O)(NC)=O",
    "meta_data": {
        "InChI": "InChI=1S/C5H7NO3/c1-6-4(7)2-3-5(8)9/h2-3H,1H3,(H,6,7)(H,8,9)/b3-2-",
        "InChIKey": null,
        "Canonical SMILES": "O=C(O)C=CC(=O)NC",
        "Molecular Formula": "C<sub>5</sub>H<sub>7</sub>NO<sub>3</sub>",
        "Molecular Mass": "129.11",
        "Melting Point": "154 °C"
    }
}