{
    "cas_no": "3708-04-1",
    "key_name": "2-(Methylsulfonyl)-1-phenylethanone",
    "cn_name": null,
    "alternate_name": "Ethanone, 2-(methylsulfonyl)-1-phenyl-;Acetophenone, 2-(methylsulfonyl)-;2-(Methylsulfonyl)-1-phenylethanone;(Methylsulfonyl)benzoylmethane;2-(Methylsulfonyl)acetophenone;Methyl phenacyl sulfone;α-(Methylsulfonyl)acetophenone;NSC 137561;NSC 2736;NSC 51601;2-(Methylsulfonyl)-1-phenylethan-1-one;2-Methanesulfonyl-1-phenylethan-1-one",
    "duplicated_cas_no": "",
    "SMILES": "C(CS(C)(=O)=O)(=O)C1=CC=CC=C1",
    "meta_data": {
        "InChI": "InChI=1S/C9H10O3S/c1-13(11,12)7-9(10)8-5-3-2-4-6-8/h2-6H,7H2,1H3",
        "InChIKey": null,
        "Canonical SMILES": "O=C(C=1C=CC=CC1)CS(=O)(=O)C",
        "Molecular Formula": "C<sub>9</sub>H<sub>10</sub>O<sub>3</sub>S",
        "Molecular Mass": "198.24",
        "Melting Point": "110 °C"
    }
}