{
    "cas_no": "1400-61-9",
    "key_name": "Nystatin",
    "cn_name": null,
    "alternate_name": "Nystatin;Fungicidin;Mycostatin;Mykostatyna;Myconystatin;Stamycin;Candio-Hermal;Diastatin;Nystan;Nystavescent;O-V Statin;Moronal (antibiotic);Nistatin;Nysfungin;Nyotran;Nystop;<span class=\"text-smallcaps\">L</span>-Nystatin;Nystex;Biofanal;Mycostatin Pastilles;Flagystatin;Nystacid;Ceratocide;Nilstat;MeSH ID: D009761",
    "duplicated_cas_no": "8047-11-8;11004-84-5;11121-35-0;28474-84-2",
    "SMILES": "",
    "meta_data": {
        "InChI": "",
        "InChIKey": null,
        "Canonical SMILES": "",
        "Molecular Formula": "Unspecified",
        "Molecular Mass": "",
        "Melting Point": "44-46 °C"
    }
}