{
    "cas_no": "99-08-1",
    "key_name": "3-Nitrotoluene",
    "cn_name": "3-硝基甲苯;间硝基甲苯;",
    "alternate_name": "Benzene, 1-methyl-3-nitro-;Toluene, <em>m</em>-nitro-;1-Methyl-3-nitrobenzene;<em>m</em>-Methylnitrobenzene;MNT;3-Nitrotoluene;3-Methylnitrobenzene;3-Methyl-1-nitrobenzene;<em>m</em>-Mononitrotoluene;<em>m</em>-Nitrotoluene;NSC 9578;1-Nitro-3-methylbenzene",
    "duplicated_cas_no": "",
    "SMILES": "N(=O)(=O)C1=CC(C)=CC=C1",
    "meta_data": {
        "InChI": "InChI=1S/C7H7NO2/c1-6-3-2-4-7(5-6)8(9)10/h2-5H,1H3",
        "InChIKey": null,
        "Canonical SMILES": "O=N(=O)C1=CC=CC(=C1)C",
        "Molecular Formula": "C<sub>7</sub>H<sub>7</sub>NO<sub>2</sub>",
        "Molecular Mass": "137.14",
        "Boiling Point": "231.9 °C @ Press: 760 Torr",
        "Melting Point": "15.5 °C",
        "Density": "1.1581 g/cm³ @ Temp: 20 °C"
    }
}