{
    "cas_no": "521-12-0",
    "key_name": "Dromostanolone propionate",
    "cn_name": "屈他雄酮丙酸酯;",
    "alternate_name": "Androstan-3-one, 2-methyl-17-(1-oxopropoxy)-, (2α,5α,17β)-;5α-Androstan-3-one, 17β-hydroxy-2α-methyl-, propionate;(2α,5α,17β)-2-Methyl-17-(1-oxopropoxy)androstan-3-one;2MDTP;32379;Dromostanolone propionate;17β-Hydroxy-2α-methyl-5α-androstan-3-one propionate;Masterone;MDHT;2α-Methyldihydrotestosterone propionate;2α-Methyl-4,5-dihydrotestosterone propionate;2α-Methyl-17β-propionoxy-5α-androstan-3-one;Drostanolone propionate;17β-Hydroxy-2α-methylandrostan-3-one propionate;Drolban;Emdisterone;Masterid;Masteril;Permastril;2α-Methylandrostan-17β-ol-3-one propionate;Medrotestron propionate;Medrotestrone propionate;Medrotestrone propanoate;2α-Methyl-17β-hydroxy-5α-androstan-3-one 17-propionate;Masteron;Prometholone",
    "duplicated_cas_no": "1334-53-8;7241-34-1;51258-12-9",
    "SMILES": "C[C@@]12[C@@]3([C@]([C@]4([C@](C)(CC3)[C@@H](OC(CC)=O)CC4)[H])(CC[C@]1(CC(=O)[C@H](C)C2)[H])[H])[H]",
    "meta_data": {
        "InChI": "InChI=1S/C23H36O3/c1-5-21(25)26-20-9-8-17-16-7-6-15-12-19(24)14(2)13-23(15,4)18(16)10-11-22(17,20)3/h14-18,20H,5-13H2,1-4H3/t14-,15+,16+,17+,18+,20+,22+,23+/m1/s1",
        "InChIKey": null,
        "Canonical SMILES": "O=C(OC1CCC2C3CCC4CC(=O)C(C)CC4(C)C3CCC12C)CC",
        "Molecular Formula": "C<sub>23</sub>H<sub>36</sub>O<sub>3</sub>",
        "Molecular Mass": "360.53",
        "Melting Point": "128 °C"
    }
}