{
    "cas_no": "19653-33-9",
    "key_name": "Ethyl 1-piperidinepropanoate",
    "cn_name": "1-哌啶丙酸乙酯;",
    "alternate_name": "1-Piperidinepropanoic acid, ethyl ester;1-Piperidinepropionic acid, ethyl ester;Ethyl 1-piperidinepropanoate;Ethyl 3-piperidinepropionate;NSC 75594;Ethyl 3-piperidinopropionate;Ethyl 3-(1-piperidyl)propionate;Ethyl 3-(1-piperidinyl)propanoate;1-[2-(Ethoxycarbonyl)ethyl]piperidine",
    "duplicated_cas_no": "",
    "SMILES": "C(CC(OCC)=O)N1CCCCC1",
    "meta_data": {
        "InChI": "InChI=1S/C10H19NO2/c1-2-13-10(12)6-9-11-7-4-3-5-8-11/h2-9H2,1H3",
        "InChIKey": null,
        "Canonical SMILES": "O=C(OCC)CCN1CCCCC1",
        "Molecular Formula": "C<sub>10</sub>H<sub>19</sub>NO<sub>2</sub>",
        "Molecular Mass": "185.26",
        "Boiling Point": "&gt;218 °C",
        "Density": "0.927 g/cm³ @ Temp: 20 °C"
    }
}