{
    "cas_no": "709-98-8",
    "key_name": "Propanil",
    "cn_name": "敌稗;N-(3\",4\"-二氯苯基)丙酰胺;",
    "alternate_name": "Propanamide, <em>N</em>-(3,4-dichlorophenyl)-;Propionanilide, 3′,4′-dichloro-;<em>N</em>-(3,4-Dichlorophenyl)propanamide;Stam F 34;FW 734;<em>N</em>-(3,4-Dichlorophenyl)propionamide;3′,4′-Dichloropropionanilide;DPA;Propanil;Propionic acid 3,4-dichloroanilide;Rogue;Surcopur;Propanide;Stam;Stam LV 10;DCPA;Propanid;Synpran N;Chem Rice;Strel;Propagrin 36;Propanex;Stampede 360;Riverside propanil 60DF;Wham EZ;Stam 80EDF;Stam M 4;NSC 31312;Stam Novel Flo 480;Propasint;Riceshot;Stam 480EC;MeSH ID: D011411",
    "duplicated_cas_no": "110343-36-7;11096-32-5",
    "SMILES": "N(C(CC)=O)C1=CC(Cl)=C(Cl)C=C1",
    "meta_data": {
        "InChI": "InChI=1S/C9H9Cl2NO/c1-2-9(13)12-6-3-4-7(10)8(11)5-6/h3-5H,2H2,1H3,(H,12,13)",
        "InChIKey": null,
        "Canonical SMILES": "O=C(NC1=CC=C(Cl)C(Cl)=C1)CC",
        "Molecular Formula": "C<sub>9</sub>H<sub>9</sub>Cl<sub>2</sub>NO",
        "Molecular Mass": "218.08",
        "Melting Point": "85-89 °C",
        "Density": "1.054 g/cm³ @ Temp: 25 °C"
    }
}