{
    "cas_no": "191-30-0",
    "key_name": "Dibenzo[<em>a</em>,<em>l</em>]pyrene",
    "cn_name": "二苯并(a,l)芘;",
    "alternate_name": "Dibenzo[<em>def</em>,<em>p</em>]chrysene;1,2:3,4-Dibenzopyrene;Dibenzo[<em>a</em>,<em>l</em>]pyrene;Ba 51-090462;1,2,9,10-Dibenzopyrene;4,5,6,7-Dibenzpyrene;2,3:4,5-Dibenzpyrene;NSC 90324",
    "duplicated_cas_no": "",
    "SMILES": "C12=C3C=4C(C=5C1=C(C=CC2=CC=6C3=CC=CC6)C=CC5)=CC=CC4",
    "meta_data": {
        "InChI": "InChI=1S/C24H14/c1-2-8-18-16(6-1)14-17-13-12-15-7-5-11-20-19-9-3-4-10-21(19)24(18)23(17)22(15)20/h1-14H",
        "InChIKey": null,
        "Canonical SMILES": "C=1C=CC2=C(C1)C=C3C=CC4=CC=CC=5C=6C=CC=CC6C2=C3C45",
        "Molecular Formula": "C<sub>24</sub>H<sub>14</sub>",
        "Molecular Mass": "302.37",
        "Melting Point": "162.4 °C"
    }
}