{
    "cas_no": "1896-62-4",
    "key_name": "<em>trans</em>-4-Phenyl-3-buten-2-one",
    "cn_name": null,
    "alternate_name": "3-Buten-2-one, 4-phenyl-, (3<em>E</em>)-;3-Buten-2-one, 4-phenyl-, (<em>E</em>)-;(3<em>E</em>)-4-Phenyl-3-buten-2-one;Methyl <em>trans</em>-styryl ketone;<em>trans</em>-Benzylideneacetone;<em>trans</em>-1-Phenylbut-1-en-3-one;<em>trans</em>-Benzalacetone;<em>trans</em>-4-Phenyl-3-buten-2-one;<em>trans</em>-Phenylvinyl methyl ketone;(<em>E</em>)-Benzylideneacetone;(<em>E</em>)-Methyl styryl ketone;(<em>E</em>)-Benzalacetone;(<em>E</em>)-4-Phenyl-3-buten-2-one;Methyl (<em>E</em>)-2-phenylethenyl ketone;<em>trans</em>-4-Phenyl-3-butene-2-one;<em>trans</em>-4-Phenylbuten-2-one;(E)-Benzalacetone",
    "duplicated_cas_no": "",
    "SMILES": "C(=C/C(C)=O)\\C1=CC=CC=C1",
    "meta_data": {
        "InChI": "InChI=1S/C10H10O/c1-9(11)7-8-10-5-3-2-4-6-10/h2-8H,1H3/b8-7+",
        "InChIKey": null,
        "Canonical SMILES": "O=C(C=CC=1C=CC=CC1)C",
        "Molecular Formula": "C<sub>10</sub>H<sub>10</sub>O",
        "Molecular Mass": "146.19",
        "Boiling Point": "262 °C",
        "Melting Point": "42 °C"
    }
}