{
    "cas_no": "1197-22-4",
    "key_name": "<em>N</em>-Phenylmethanesulfonamide",
    "cn_name": "N-苯基甲磺酰胺;",
    "alternate_name": "Methanesulfonamide, <em>N</em>-phenyl-;Methanesulfonanilide;<em>N</em>-Phenylmethanesulfonamide;Methanesulfanilide;<em>N</em>-Mesylaniline;Methylsulfonanilide;<em>N</em>-(Methylsulfonyl)aniline;NSC 11329",
    "duplicated_cas_no": "",
    "SMILES": "N(S(C)(=O)=O)C1=CC=CC=C1",
    "meta_data": {
        "InChI": "InChI=1S/C7H9NO2S/c1-11(9,10)8-7-5-3-2-4-6-7/h2-6,8H,1H3",
        "InChIKey": null,
        "Canonical SMILES": "O=S(=O)(NC=1C=CC=CC1)C",
        "Molecular Formula": "C<sub>7</sub>H<sub>9</sub>NO<sub>2</sub>S",
        "Molecular Mass": "171.22",
        "Melting Point": "99-100 °C"
    }
}