{
    "cas_no": "9012-72-0",
    "key_name": "<span class=\"text-smallcaps\">D</span>-Glucan",
    "cn_name": null,
    "alternate_name": "<span class=\"text-smallcaps\">D</span>-Glucan;Glucosan;Polyglucan;Glucan;Polyglucosan;Poly-<span class=\"text-smallcaps\">D</span>-glucan;<span class=\"text-smallcaps\">D</span>-Glucosan;Fit fiber 80;Fit Fiber 80P",
    "duplicated_cas_no": "9037-91-6;9072-21-3",
    "SMILES": "",
    "meta_data": {
        "InChI": "",
        "InChIKey": null,
        "Canonical SMILES": "",
        "Molecular Formula": "Unspecified",
        "Molecular Mass": "",
        "Melting Point": "108-109 °C"
    }
}