{
    "uri": "substance/pt/9012720",
    "rn": "9012-72-0",
    "name": "<span class=\"text-smallcaps\">D</span>-Glucan",
    "images": [],
    "inchi": "",
    "inchiKey": "",
    "smile": "",
    "canonicalSmile": "",
    "molecularFormula": "Unspecified",
    "molecularMass": "",
    "experimentalProperties": [
        {
            "name": "Melting Point",
            "property": "108-109 °C",
            "sourceNumber": 1
        }
    ],
    "propertyCitations": [
        {
            "docUri": "document/pt/document/23800087",
            "sourceNumber": 1,
            "source": "Pictet, Ame; Compt. rend., (1920), 171, 243-5, CAplus"
        }
    ],
    "synonyms": [
        "<span class=\"text-smallcaps\">D</span>-Glucan",
        "Glucosan",
        "Polyglucan",
        "Glucan",
        "Polyglucosan",
        "Poly-<span class=\"text-smallcaps\">D</span>-glucan",
        "<span class=\"text-smallcaps\">D</span>-Glucosan",
        "Fit fiber 80",
        "Fit Fiber 80P"
    ],
    "replacedRns": [
        "9037-91-6",
        "9072-21-3"
    ],
    "hasMolfile": false,
    "source": "https://commonchemistry.cas.org/detail?cas_rn=9012-72-0"
}