{
    "cas_no": "104-12-1",
    "key_name": "4-Chlorophenyl isocyanate",
    "cn_name": "对氯苯异氰酸酯;4-氯苯基异氰酸酯;异氰酸对氯苯酯;",
    "alternate_name": "Benzene, 1-chloro-4-isocyanato-;Isocyanic acid, <em>p</em>-chlorophenyl ester;1-Chloro-4-isocyanatobenzene;<em>p</em>-Chlorophenyl isocyanate;4-Chlorophenyl isocyanate;4-Chloroisocyanatobenzene;1-Isocyanato-4-chlorobenzene;NSC 76589;4-Chloro-1-isocyanatobenzene",
    "duplicated_cas_no": "",
    "SMILES": "N(=C=O)C1=CC=C(Cl)C=C1",
    "meta_data": {
        "InChI": "InChI=1S/C7H4ClNO/c8-6-1-3-7(4-2-6)9-5-10/h1-4H",
        "InChIKey": null,
        "Canonical SMILES": "O=C=NC1=CC=C(Cl)C=C1",
        "Molecular Formula": "C<sub>7</sub>H<sub>4</sub>ClNO",
        "Molecular Mass": "153.57",
        "Boiling Point": "115-117 °C @ Press: 45 Torr",
        "Melting Point": "30-31 °C"
    }
}