{
    "cas_no": "98-86-2",
    "key_name": "Acetophenone",
    "cn_name": "苯乙酮;",
    "alternate_name": "Ethanone, 1-phenyl-;Acetophenone;1-Phenylethanone;Acetylbenzene;Hypnone;Methyl phenyl ketone;Phenyl methyl ketone;Acetophenon;Hypnon;1-Phenyl-1-ethanone;NSC 98542;NSC 7635;1-Feniletanone;Benzoylmethane",
    "duplicated_cas_no": "",
    "SMILES": "C(C)(=O)C1=CC=CC=C1",
    "meta_data": {
        "InChI": "InChI=1S/C8H8O/c1-7(9)8-5-3-2-4-6-8/h2-6H,1H3",
        "InChIKey": null,
        "Canonical SMILES": "O=C(C=1C=CC=CC1)C",
        "Molecular Formula": "C<sub>8</sub>H<sub>8</sub>O",
        "Molecular Mass": "120.15",
        "Boiling Point": "202 °C",
        "Melting Point": "20.5 °C",
        "Density": "1.033 g/cm³ @ Temp: 15 °C"
    }
}