{
    "cas_no": "7149-70-4",
    "key_name": "1-Bromo-2-methyl-4-nitrobenzene",
    "cn_name": "2-溴-5-硝基甲苯;",
    "alternate_name": "Benzene, 1-bromo-2-methyl-4-nitro-;Toluene, 2-bromo-5-nitro-;1-Bromo-2-methyl-4-nitrobenzene;2-Methyl-4-nitro-1-bromobenzene;2-Bromo-5-nitrotoluene;4-Bromo-3-methylnitrobenzene;3-Methyl-4-bromonitrobenzene;NSC 72323",
    "duplicated_cas_no": "",
    "SMILES": "N(=O)(=O)C1=CC(C)=C(Br)C=C1",
    "meta_data": {
        "InChI": "InChI=1S/C7H6BrNO2/c1-5-4-6(9(10)11)2-3-7(5)8/h2-4H,1H3",
        "InChIKey": null,
        "Canonical SMILES": "O=N(=O)C1=CC=C(Br)C(=C1)C",
        "Molecular Formula": "C<sub>7</sub>H<sub>6</sub>BrNO<sub>2</sub>",
        "Molecular Mass": "216.03",
        "Melting Point": "78 °C"
    }
}