{
    "cas_no": "738-75-0",
    "key_name": "Phenylacetyl-<span class=\"text-smallcaps\">L</span>-phenylalanine",
    "cn_name": null,
    "alternate_name": "<span class=\"text-smallcaps\">L</span>-Phenylalanine, <em>N</em>-(2-phenylacetyl)-;Alanine, 3-phenyl-<em>N</em>-(phenylacetyl)-, <span class=\"text-smallcaps\">L</span>-;<span class=\"text-smallcaps\">L</span>-Phenylalanine, <em>N</em>-(phenylacetyl)-;Alanine, 3-phenyl-<em>N</em>-(phenylacetyl)-;<em>N</em>-(2-Phenylacetyl)-<span class=\"text-smallcaps\">L</span>-phenylalanine;Phenylacetyl-<span class=\"text-smallcaps\">L</span>-phenylalanine;(2S)-3-Phenyl-2-[(2-phenylacetyl)amino]propanoic acid;(2S)-3-Phenyl-2-(2-phenylacetamido)propanoic acid",
    "duplicated_cas_no": "",
    "SMILES": "C([C@H](NC(CC1=CC=CC=C1)=O)C(O)=O)C2=CC=CC=C2",
    "meta_data": {
        "InChI": "InChI=1S/C17H17NO3/c19-16(12-14-9-5-2-6-10-14)18-15(17(20)21)11-13-7-3-1-4-8-13/h1-10,15H,11-12H2,(H,18,19)(H,20,21)/t15-/m0/s1",
        "InChIKey": null,
        "Canonical SMILES": "O=C(O)C(NC(=O)CC=1C=CC=CC1)CC=2C=CC=CC2",
        "Molecular Formula": "C<sub>17</sub>H<sub>17</sub>NO<sub>3</sub>",
        "Molecular Mass": "283.32",
        "Melting Point": "140-142 °C"
    }
}