{
    "cas_no": "2794-60-7",
    "key_name": "Methanesulfonic acid, 1,1,1-trifluoro-, barium salt (2:1)",
    "cn_name": null,
    "alternate_name": "Methanesulfonic acid, 1,1,1-trifluoro-, barium salt (2:1);Methanesulfonic acid, trifluoro-, barium salt;Barium bis(trifluoromethanesulfonate);Barium trifluoromethanesulfonate;Barium triflate (Ba(CF<sub>3</sub>SO<sub>3</sub>)<sub>2</sub>);Barium triflate",
    "duplicated_cas_no": "",
    "SMILES": "C(S(=O)(=O)O)(F)(F)F.[Ba]",
    "meta_data": {
        "InChI": "InChI=1S/CHF3O3S.Ba/c2-1(3,4)8(5,6)7;/h(H,5,6,7);",
        "InChIKey": null,
        "Canonical SMILES": "[Ba].O=S(=O)(O)C(F)(F)F",
        "Molecular Formula": "CHF<sub>3</sub>O<sub>3</sub>S.<sup>1</sup>/<sub>2</sub>Ba",
        "Molecular Mass": "",
        "Melting Point": "&gt;300 °C (decomp)"
    }
}