{
    "cas_no": "34118-92-8",
    "key_name": "Acecainide hydrochloride",
    "cn_name": "乙酰普鲁卡因胺盐酸盐;",
    "alternate_name": "Benzamide, 4-(acetylamino)-<em>N</em>-[2-(diethylamino)ethyl]-, hydrochloride (1:1);Acetanilide, 4′-[[2-(diethylamino)ethyl]carbamoyl]-, monohydrochloride;Benzamide, 4-(acetylamino)-<em>N</em>-[2-(diethylamino)ethyl]-, monohydrochloride;<em>N</em>-Acetylprocainamide hydrochloride;<em>N</em>-Acetylprocaine amide hydrochloride;Acecainide hydrochloride;ASL 601",
    "duplicated_cas_no": "33091-33-7",
    "SMILES": "C(NCCN(CC)CC)(=O)C1=CC=C(NC(C)=O)C=C1.Cl",
    "meta_data": {
        "InChI": "InChI=1S/C15H23N3O2.ClH/c1-4-18(5-2)11-10-16-15(20)13-6-8-14(9-7-13)17-12(3)19;/h6-9H,4-5,10-11H2,1-3H3,(H,16,20)(H,17,19);1H",
        "InChIKey": null,
        "Canonical SMILES": "Cl.O=C(NCCN(CC)CC)C1=CC=C(C=C1)NC(=O)C",
        "Molecular Formula": "C<sub>15</sub>H<sub>23</sub>N<sub>3</sub>O<sub>2</sub>.ClH",
        "Molecular Mass": "",
        "Melting Point": "190-193 °C"
    }
}