{
    "cas_no": "566939-58-0",
    "key_name": "1,3-Dibromo-5-octyl-4<em>H</em>-thieno[3,4-<em>c</em>]pyrrole-4,6(5<em>H</em>)-dione",
    "cn_name": null,
    "alternate_name": "4<em>H</em>-Thieno[3,4-<em>c</em>]pyrrole-4,6(5<em>H</em>)-dione, 1,3-dibromo-5-octyl-;1,3-Dibromo-5-octyl-4<em>H</em>-thieno[3,4-<em>c</em>]pyrrole-4,6(5<em>H</em>)-dione;1,3-Dibromo-5-octyl-4H-thieno[3,4-c]pyrrole-4,6-(5H)-dione;1,3-Dibromo-5-octylthieno[3,4-<em>c</em>]pyrrole-4,6-dione;Thieno[3,4-<em>c</em>]pyrole-4,6-dione",
    "duplicated_cas_no": "1372768-55-2;1398122-16-1",
    "SMILES": "O=C1C=2C(C(=O)N1CCCCCCCC)=C(Br)SC2Br",
    "meta_data": {
        "InChI": "InChI=1S/C14H17Br2NO2S/c1-2-3-4-5-6-7-8-17-13(18)9-10(14(17)19)12(16)20-11(9)15/h2-8H2,1H3",
        "InChIKey": null,
        "Canonical SMILES": "O=C1C2=C(Br)SC(Br)=C2C(=O)N1CCCCCCCC",
        "Molecular Formula": "C<sub>14</sub>H<sub>17</sub>Br<sub>2</sub>NO<sub>2</sub>S",
        "Molecular Mass": "423.16",
        "Melting Point": "104-105 °C"
    }
}