{
    "cas_no": "3471-31-6",
    "key_name": "5-Methoxyindoleacetic acid",
    "cn_name": "5-甲氧基吲哚-3-乙酸;",
    "alternate_name": "1<em>H</em>-Indole-3-acetic acid, 5-methoxy-;Indole-3-acetic acid, 5-methoxy-;5-Methoxy-1<em>H</em>-indole-3-acetic acid;5-Methoxyindoleacetic acid;5-Methoxy-3-indoleacetic acid;5-Methoxy-3-indolylacetic acid;5-Methyloxyindole-3-acetic acid;Methoxyindoleacetic acid;5-Methoxy-IAA;2-(5-Methoxy-3-indolyl)acetic acid;2-(5-Methoxy-1<em>H</em>-indol-3-yl)acetic acid;(5-Methoxy-1<em>H</em>-indol-3-yl)acetic acid",
    "duplicated_cas_no": "110885-75-1",
    "SMILES": "C(C(O)=O)C=1C=2C(NC1)=CC=C(OC)C2",
    "meta_data": {
        "InChI": "InChI=1S/C11H11NO3/c1-15-8-2-3-10-9(5-8)7(6-12-10)4-11(13)14/h2-3,5-6,12H,4H2,1H3,(H,13,14)",
        "InChIKey": null,
        "Canonical SMILES": "O=C(O)CC1=CNC=2C=CC(OC)=CC21",
        "Molecular Formula": "C<sub>11</sub>H<sub>11</sub>NO<sub>3</sub>",
        "Molecular Mass": "205.21",
        "Melting Point": "146-147 °C"
    }
}