{
    "cas_no": "271-95-4",
    "key_name": "1,2-Benzisoxazole",
    "cn_name": "1,2-苯异唑;",
    "alternate_name": "1,2-Benzisoxazole;Indoxazene;1-Oxa-2-azaindene;1-Oxa-2-aza-1<em>H</em>-indene;Benzo[<em>d</em>]isoxazole;Benzo[1,2-<em>d</em>]isoxazole;1,2-Benzoxazole",
    "duplicated_cas_no": "",
    "SMILES": "C1=2C(ON=C1)=CC=CC2",
    "meta_data": {
        "InChI": "InChI=1S/C7H5NO/c1-2-4-7-6(3-1)5-8-9-7/h1-5H",
        "InChIKey": null,
        "Canonical SMILES": "N=1OC=2C=CC=CC2C1",
        "Molecular Formula": "C<sub>7</sub>H<sub>5</sub>NO",
        "Molecular Mass": "119.12",
        "Boiling Point": "100 °C",
        "Melting Point": "139 °C",
        "Density": "1.1729 g/cm³ @ Temp: 20.4 °C"
    }
}