{
    "cas_no": "588-04-5",
    "key_name": "1,2-Bis(3-methylphenyl)diazene",
    "cn_name": "3,3-二甲基偶氮苯;",
    "alternate_name": "Diazene, 1,2-bis(3-methylphenyl)-;<em>m</em>,<em>m</em>′-Azotoluene;Diazene, bis(3-methylphenyl)-;1,2-Bis(3-methylphenyl)diazene;3,3′-Azotoluene;3,3′-Dimethylazobenzene;NSC 31009;1,2-Di-<em>m</em>-tolyldiazene",
    "duplicated_cas_no": "",
    "SMILES": "N(=NC1=CC(C)=CC=C1)C2=CC(C)=CC=C2",
    "meta_data": {
        "InChI": "InChI=1S/C14H14N2/c1-11-5-3-7-13(9-11)15-16-14-8-4-6-12(2)10-14/h3-10H,1-2H3",
        "InChIKey": null,
        "Canonical SMILES": "N(=NC1=CC=CC(=C1)C)C2=CC=CC(=C2)C",
        "Molecular Formula": "C<sub>14</sub>H<sub>14</sub>N<sub>2</sub>",
        "Molecular Mass": "210.27",
        "Melting Point": "54 °C",
        "Density": "1.0123 g/cm³ @ Temp: 66.2 °C"
    }
}