{
    "cas_no": "76205-19-1",
    "key_name": "1-(4-Chlorophenyl)-1,2-dihydro-3<em>H</em>-pyrazol-3-one",
    "cn_name": null,
    "alternate_name": "3<em>H</em>-Pyrazol-3-one, 1-(4-chlorophenyl)-1,2-dihydro-;1-(4-Chlorophenyl)-1,2-dihydro-3<em>H</em>-pyrazol-3-one;1-(4-Chlorophenyl)-2<em>H</em>-pyrazolin-3-one;1-(4-Chlorophenyl)-1,2-dihydropyrazol-3-one;1-(4-Chlorophenyl)pyrazol-3-ol;1-(4-Chlorophenyl)-3-hydroxypyrazole;1-(4-Chlorophenyl)-1<em>H</em>-pyrazol-3-ol;1-(Para-chlorophenyl)-3-hydroxypyrazole;2-(4-Chlorophenyl)-1<em>H</em>-pyrazol-5-one",
    "duplicated_cas_no": "",
    "SMILES": "O=C1NN(C2=CC=C(Cl)C=C2)C=C1",
    "meta_data": {
        "InChI": "InChI=1S/C9H7ClN2O/c10-7-1-3-8(4-2-7)12-6-5-9(13)11-12/h1-6H,(H,11,13)",
        "InChIKey": null,
        "Canonical SMILES": "O=C1C=CN(N1)C2=CC=C(Cl)C=C2",
        "Molecular Formula": "C<sub>9</sub>H<sub>7</sub>ClN<sub>2</sub>O",
        "Molecular Mass": "194.62",
        "Melting Point": "189-191 °C (decomp)"
    }
}