{
    "cas_no": "1628-29-1",
    "key_name": "1-(10<em>H</em>-Phenothiazin-10-yl)ethanone",
    "cn_name": null,
    "alternate_name": "Ethanone, 1-(10<em>H</em>-phenothiazin-10-yl)-;Phenothiazine, 10-acetyl-;10<em>H</em>-Phenothiazine, 10-acetyl-;1-(10<em>H</em>-Phenothiazin-10-yl)ethanone;10-Acetylphenothiazine;NSC 14724;10-Acetyl-10<em>H</em>-phenothiazine;1-(10<em>H</em>-Phenothiazin-10-yl)ethan-1-one;1-Phenothiazin-10-ylethanone;J 3-55",
    "duplicated_cas_no": "",
    "SMILES": "C(C)(=O)N1C=2C(SC=3C1=CC=CC3)=CC=CC2",
    "meta_data": {
        "InChI": "InChI=1S/C14H11NOS/c1-10(16)15-11-6-2-4-8-13(11)17-14-9-5-3-7-12(14)15/h2-9H,1H3",
        "InChIKey": null,
        "Canonical SMILES": "O=C(N1C=2C=CC=CC2SC=3C=CC=CC31)C",
        "Molecular Formula": "C<sub>14</sub>H<sub>11</sub>NOS",
        "Molecular Mass": "241.31",
        "Melting Point": "198 °C"
    }
}