{
    "cas_no": "5707-04-0",
    "key_name": "Benzeneselenenyl chloride",
    "cn_name": "苯硒酰氯;",
    "alternate_name": "Benzeneselenenyl chloride;Phenylselenyl chloride;Benzeneselenyl chloride;Chlorophenylselenium;Phenylselenium chloride;Phenylselenium monochloride;(Phenylselanyl)chlorane",
    "duplicated_cas_no": "",
    "SMILES": "[Se](Cl)C1=CC=CC=C1",
    "meta_data": {
        "InChI": "InChI=1S/C6H5ClSe/c7-8-6-4-2-1-3-5-6/h1-5H",
        "InChIKey": null,
        "Canonical SMILES": "Cl[Se]C=1C=CC=CC1",
        "Molecular Formula": "C<sub>6</sub>H<sub>5</sub>ClSe",
        "Molecular Mass": "191.52",
        "Boiling Point": "92 °C @ Press: 5 Torr",
        "Melting Point": "64-65 °C"
    }
}