{
    "cas_no": "2179-57-9",
    "key_name": "Diallyl disulfide",
    "cn_name": "二烯丙基二硫;二烯丙基二硫醚;",
    "alternate_name": "Disulfide, di-2-propen-1-yl;Allyl disulfide;Disulfide, di-2-propenyl;Di-2-propen-1-yl disulfide;Diallyl disulfide;Diallyl disulphide;4,5-Dithia-1,7-octadiene;Garlicin;Di(2-propenyl) disulfide;Bis(2-propenyl) disulfide;Dipropenyl disulfide;NSC 29228;1,2-Diallyldisulfane",
    "duplicated_cas_no": "",
    "SMILES": "S(SCC=C)CC=C",
    "meta_data": {
        "InChI": "InChI=1S/C6H10S2/c1-3-5-7-8-6-4-2/h3-4H,1-2,5-6H2",
        "InChIKey": null,
        "Canonical SMILES": "S(SCC=C)CC=C",
        "Molecular Formula": "C<sub>6</sub>H<sub>10</sub>S<sub>2</sub>",
        "Molecular Mass": "146.27",
        "Boiling Point": "79 °C @ Press: 16 Torr",
        "Density": "1.010 g/cm³ @ Temp: 15 °C"
    }
}