{
    "cas_no": "3639-21-2",
    "key_name": "2-Ethyl-2-hydroxybutanoic acid",
    "cn_name": "2-乙基-2-羟基丁酸;",
    "alternate_name": "Butanoic acid, 2-ethyl-2-hydroxy-;Butyric acid, 2-ethyl-2-hydroxy-;2-Ethyl-2-hydroxybutanoic acid;2-Ethyl-2-hydroxybutyric acid;2-Hydroxy-2-ethylbutanoic acid",
    "duplicated_cas_no": "",
    "SMILES": "C(C(O)=O)(CC)(CC)O",
    "meta_data": {
        "InChI": "InChI=1S/C6H12O3/c1-3-6(9,4-2)5(7)8/h9H,3-4H2,1-2H3,(H,7,8)",
        "InChIKey": null,
        "Canonical SMILES": "O=C(O)C(O)(CC)CC",
        "Molecular Formula": "C<sub>6</sub>H<sub>12</sub>O<sub>3</sub>",
        "Molecular Mass": "132.16",
        "Melting Point": "78-79.5 °C"
    }
}