{
    "cas_no": "1515-75-9",
    "key_name": "2,4-Pentadienoic acid, methyl ester",
    "cn_name": null,
    "alternate_name": "2,4-Pentadienoic acid, methyl ester;Methyl β-vinylacrylate;Methyl 2,4-pentadienoate;1-(Methoxycarbonyl)-1,3-butadiene;Methyl 3-vinylacrylate;1,3-Butadiene-1-carboxylic acid methyl ester",
    "duplicated_cas_no": "",
    "SMILES": "C(C=CC=C)(OC)=O",
    "meta_data": {
        "InChI": "InChI=1S/C6H8O2/c1-3-4-5-6(7)8-2/h3-5H,1H2,2H3",
        "InChIKey": null,
        "Canonical SMILES": "O=C(OC)C=CC=C",
        "Molecular Formula": "C<sub>6</sub>H<sub>8</sub>O<sub>2</sub>",
        "Molecular Mass": "112.13",
        "Boiling Point": "50-52 °C @ Press: 20 Torr",
        "Density": "0.9710 g/cm³ @ Temp: 20 °C"
    }
}