{
    "cas_no": "375857-66-2",
    "key_name": "7-(Trifluoromethyl)imidazo[1,2-<em>a</em>]pyrimidine",
    "cn_name": null,
    "alternate_name": "Imidazo[1,2-<em>a</em>]pyrimidine, 7-(trifluoromethyl)-;7-(Trifluoromethyl)imidazo[1,2-<em>a</em>]pyrimidine;7-Trifluoromethylimidazo[1,2-<em>a</em>]pyrimidine",
    "duplicated_cas_no": "",
    "SMILES": "C(F)(F)(F)C1=NC=2N(C=C1)C=CN2",
    "meta_data": {
        "InChI": "InChI=1S/C7H4F3N3/c8-7(9,10)5-1-3-13-4-2-11-6(13)12-5/h1-4H",
        "InChIKey": null,
        "Canonical SMILES": "FC(F)(F)C1=NC2=NC=CN2C=C1",
        "Molecular Formula": "C<sub>7</sub>H<sub>4</sub>F<sub>3</sub>N<sub>3</sub>",
        "Molecular Mass": "187.12",
        "Melting Point": "163-164 °C"
    }
}