{
    "cas_no": "104-29-0",
    "key_name": "Chlorphenesin",
    "cn_name": "氯苯甘醚;3-对氯苯氧基-1,2-丙二醇;",
    "alternate_name": "1,2-Propanediol, 3-(4-chlorophenoxy)-;1,2-Propanediol, 3-(<em>p</em>-chlorophenoxy)-;3-(4-Chlorophenoxy)-1,2-propanediol;Adermykon;<em>p</em>-Chlorophenyl glyceryl ether;<em>p</em>-Chlorophenyl-α-glyceryl ether;Chlorphenesin;Glycerol α-<em>p</em>-chlorophenyl ether;Mycil;3-(<em>p</em>-Chlorophenoxy)propane-1,2-diol;Demykon;Gecophen;<em>p</em>-Chlorphenesin;(±)-Chlorphenesin;(±)-<em>p</em>-Chlorphenesin;Elestab CPN;NSC 6401;1,2-Ethanediol, 1-(4-chlorophenoxy)-;MeSH ID: D002743;Purecare CHP XO;Germazide C",
    "duplicated_cas_no": "62067-20-3;2320573-12-2",
    "SMILES": "O(CC(CO)O)C1=CC=C(Cl)C=C1",
    "meta_data": {
        "InChI": "InChI=1S/C9H11ClO3/c10-7-1-3-9(4-2-7)13-6-8(12)5-11/h1-4,8,11-12H,5-6H2",
        "InChIKey": null,
        "Canonical SMILES": "ClC1=CC=C(OCC(O)CO)C=C1",
        "Molecular Formula": "C<sub>9</sub>H<sub>11</sub>ClO<sub>3</sub>",
        "Molecular Mass": "202.63",
        "Melting Point": "78 °C"
    }
}