{
    "cas_no": "15371-06-9",
    "key_name": "3-(Acetylamino)-1,2-benzenedicarboxylic acid",
    "cn_name": null,
    "alternate_name": "1,2-Benzenedicarboxylic acid, 3-(acetylamino)-;Phthalic acid, 3-acetamido-;3-(Acetylamino)-1,2-benzenedicarboxylic acid;3-Acetamidobenzene-1,2-dicarboxylic acid;3-Acetamidophthalic acid;3-Acetylamino-phthalic acid",
    "duplicated_cas_no": "",
    "SMILES": "C(O)(=O)C1=C(C(O)=O)C=CC=C1NC(C)=O",
    "meta_data": {
        "InChI": "InChI=1S/C10H9NO5/c1-5(12)11-7-4-2-3-6(9(13)14)8(7)10(15)16/h2-4H,1H3,(H,11,12)(H,13,14)(H,15,16)",
        "InChIKey": null,
        "Canonical SMILES": "O=C(O)C=1C=CC=C(NC(=O)C)C1C(=O)O",
        "Molecular Formula": "C<sub>10</sub>H<sub>9</sub>NO<sub>5</sub>",
        "Molecular Mass": "223.18",
        "Melting Point": "260 °C"
    }
}