{
    "cas_no": "513-37-1",
    "key_name": "1-Propene, 1-chloro-2-methyl-",
    "cn_name": "1-氯-2-甲基-1-丙烯;1-氯-2-甲基-1-丙烯;1-氯-2-甲基丙烯;Isocrotyl chloride;",
    "alternate_name": "1-Propene, 1-chloro-2-methyl-;Propene, 1-chloro-2-methyl-;α-Chloroisobutylene;1-Chloro-2-methyl-1-propene;β,β-Dimethylvinyl chloride;Isocrotyl chloride;1-Chloro-2-methylpropene;2-Methyl-1-propenyl chloride;2-Methyl-1-chloropropene;2,2-Dimethylvinyl chloride;Dimethylvinyl chloride",
    "duplicated_cas_no": "",
    "SMILES": "C(=CCl)(C)C",
    "meta_data": {
        "InChI": "InChI=1S/C4H7Cl/c1-4(2)3-5/h3H,1-2H3",
        "InChIKey": null,
        "Canonical SMILES": "ClC=C(C)C",
        "Molecular Formula": "C<sub>4</sub>H<sub>7</sub>Cl",
        "Molecular Mass": "90.55",
        "Boiling Point": "68 °C @ Press: 754 Torr",
        "Density": "0.9186 g/cm³ @ Temp: 20 °C"
    }
}