{
    "cas_no": "40018-25-5",
    "key_name": "2-Chloro-β-oxobenzenepropanenitrile",
    "cn_name": "2-氯苯甲酰乙腈;",
    "alternate_name": "Benzenepropanenitrile, 2-chloro-β-oxo-;Acetonitrile, (<em>o</em>-chlorobenzoyl)-;2-Chloro-β-oxobenzenepropanenitrile;<em>o</em>-Chlorophenacyl cyanide;<em>o</em>-Chloro-ω-cyanoacetophenone;<em>o</em>-Chlorobenzoylacetonitrile;(2-Chlorophenyl)cyanomethyl ketone;2-Chlorobenzoylacetonitrile;3-(2-Chlorophenyl)-3-oxopropanenitrile;3-Oxo-3-(2-chlorophenyl)propanenitrile",
    "duplicated_cas_no": "",
    "SMILES": "C(CC#N)(=O)C1=C(Cl)C=CC=C1",
    "meta_data": {
        "InChI": "InChI=1S/C9H6ClNO/c10-8-4-2-1-3-7(8)9(12)5-6-11/h1-4H,5H2",
        "InChIKey": null,
        "Canonical SMILES": "N#CCC(=O)C=1C=CC=CC1Cl",
        "Molecular Formula": "C<sub>9</sub>H<sub>6</sub>ClNO",
        "Molecular Mass": "179.60",
        "Melting Point": "101 °C"
    }
}