{
    "cas_no": "55749-30-9",
    "key_name": "2-[(4,6-Dimethyl-2-pyrimidinyl)thio]acetic acid",
    "cn_name": "2-(羧基甲基硫代)-4,6-二甲基嘧啶一水合物;",
    "alternate_name": "Acetic acid, 2-[(4,6-dimethyl-2-pyrimidinyl)thio]-;Acetic acid, [(4,6-dimethyl-2-pyrimidinyl)thio]-;2-[(4,6-Dimethyl-2-pyrimidinyl)thio]acetic acid;NSC 100732;[(4,6-Dimethyl-2-pyrimidinyl)thio]acetic acid;2-[(4,6-Dimethylpyrimidinyl)-2-thio]acetic acid;(4,6-Dimethyl-pyrimidin-2-ylsulfanyl)-aceticacid;2-[(4,6-Dimethylpyrimidin-2-yl)sulfanyl]acetic acid;2-(4,6-Dimethylpyrimidin-2-yl)sulfanylacetic acid",
    "duplicated_cas_no": "",
    "SMILES": "S(CC(O)=O)C=1N=C(C)C=C(C)N1",
    "meta_data": {
        "InChI": "InChI=1S/C8H10N2O2S/c1-5-3-6(2)10-8(9-5)13-4-7(11)12/h3H,4H2,1-2H3,(H,11,12)",
        "InChIKey": null,
        "Canonical SMILES": "O=C(O)CSC=1N=C(C=C(N1)C)C",
        "Molecular Formula": "C<sub>8</sub>H<sub>10</sub>N<sub>2</sub>O<sub>2</sub>S",
        "Molecular Mass": "198.24",
        "Melting Point": "112-113 °C"
    }
}