{
    "cas_no": "34662-31-2",
    "key_name": "5-Chloro-2-nitrobenzonitrile",
    "cn_name": "5-氯-2-硝基苄腈;5-氯-2-硝基苯腈;5-氯-2-硝基苯甲腈;",
    "alternate_name": "Benzonitrile, 5-chloro-2-nitro-;5-Chloro-2-nitrobenzonitrile;3-Chloro-6-nitrobenzonitrile;1-Nitro-2-cyano-4-chlorobenzene;NSC 310024",
    "duplicated_cas_no": "",
    "SMILES": "C(#N)C1=C(N(=O)=O)C=CC(Cl)=C1",
    "meta_data": {
        "InChI": "InChI=1S/C7H3ClN2O2/c8-6-1-2-7(10(11)12)5(3-6)4-9/h1-3H",
        "InChIKey": null,
        "Canonical SMILES": "N#CC1=CC(Cl)=CC=C1N(=O)=O",
        "Molecular Formula": "C<sub>7</sub>H<sub>3</sub>ClN<sub>2</sub>O<sub>2</sub>",
        "Molecular Mass": "182.56",
        "Melting Point": "164-165 °C"
    }
}