{
    "cas_no": "1097-51-4",
    "key_name": "16α,17α-Epoxyprogesterone",
    "cn_name": "16,17-环氧黄体酮;",
    "alternate_name": "Pregn-4-ene-3,20-dione, 16,17-epoxy-, (16α)-;Pregn-4-ene-3,20-dione, 16α,17-epoxy-;Progesterone, 16α,17-epoxy-;(16α)-16,17-Epoxypregn-4-ene-3,20-dione;16α,17α-Epoxyprogesterone;16α,17α-Oxidopregn-4-ene-3,20-dione;16α,17α-Oxidoprogesterone;16α,17-Epoxypregn-4-ene-3,20-dione;16α,17α-Epoxy-4-pregnene-3,20-dione;16α,17-Epoxyprogesterone;NSC 18315",
    "duplicated_cas_no": "497164-74-6;517893-42-4",
    "SMILES": "C(C)(=O)[C@]12[C@]3(C)[C@@](C[C@]1(O2)[H])([C@]4([C@](CC3)([C@]5(C)C(CC4)=CC(=O)CC5)[H])[H])[H]",
    "meta_data": {
        "InChI": "InChI=1S/C21H28O3/c1-12(22)21-18(24-21)11-17-15-5-4-13-10-14(23)6-8-19(13,2)16(15)7-9-20(17,21)3/h10,15-18H,4-9,11H2,1-3H3/t15-,16+,17+,18-,19+,20+,21-/m1/s1",
        "InChIKey": null,
        "Canonical SMILES": "O=C1C=C2CCC3C(CCC4(C)C3CC5OC54C(=O)C)C2(C)CC1",
        "Molecular Formula": "C<sub>21</sub>H<sub>28</sub>O<sub>3</sub>",
        "Molecular Mass": "328.45",
        "Melting Point": "205-207 °C"
    }
}