{
    "cas_no": "34698-41-4",
    "key_name": "(±)-1-Aminoindan",
    "cn_name": "1-氨基茚满;1-氨基二氢化茚;",
    "alternate_name": "1<em>H</em>-Inden-1-amine, 2,3-dihydro-;1-Indanamine;2,3-Dihydro-1<em>H</em>-inden-1-amine;1-Aminoindan;1-Indanylamine;(<em>RS</em>)-1-Aminoindan;(±)-1-Aminoindan;<em>dl</em>-Indan-1-amine;NSC 62540;TVP 136;2,3-Dihydro-1<em>H</em>-inden-1-ylamine;(±)-2,3-Dihydro-1<em>H</em>-inden-1-amine",
    "duplicated_cas_no": "141876-64-4;61949-83-5",
    "SMILES": "NC1C=2C(=CC=CC2)CC1",
    "meta_data": {
        "InChI": "InChI=1S/C9H11N/c10-9-6-5-7-3-1-2-4-8(7)9/h1-4,9H,5-6,10H2",
        "InChIKey": null,
        "Canonical SMILES": "NC1C=2C=CC=CC2CC1",
        "Molecular Formula": "C<sub>9</sub>H<sub>11</sub>N",
        "Molecular Mass": "133.19",
        "Boiling Point": "92-95 °C @ Press: 7 Torr"
    }
}