{
    "cas_no": "71556-74-6",
    "key_name": "3-Ethylhexahydro-3-(3-hydroxyphenyl)-1-methyl-2<em>H</em>-azepin-2-one",
    "cn_name": null,
    "alternate_name": "2<em>H</em>-Azepin-2-one, 3-ethylhexahydro-3-(3-hydroxyphenyl)-1-methyl-;3-Ethylhexahydro-3-(3-hydroxyphenyl)-1-methyl-2<em>H</em>-azepin-2-one;3-Ethyl-3-(3-hydroxyphenyl)-1-methylazepan-2-one",
    "duplicated_cas_no": "",
    "SMILES": "C(C)C1(C(=O)N(C)CCCC1)C2=CC(O)=CC=C2",
    "meta_data": {
        "InChI": "InChI=1S/C15H21NO2/c1-3-15(12-7-6-8-13(17)11-12)9-4-5-10-16(2)14(15)18/h6-8,11,17H,3-5,9-10H2,1-2H3",
        "InChIKey": null,
        "Canonical SMILES": "O=C1N(C)CCCCC1(C=2C=CC=C(O)C2)CC",
        "Molecular Formula": "C<sub>15</sub>H<sub>21</sub>NO<sub>2</sub>",
        "Molecular Mass": "247.33",
        "Melting Point": "172-180 °C"
    }
}