{
    "cas_no": "6358-06-1",
    "key_name": "5-Amino-2-chlorophenol",
    "cn_name": "2-氯-5-氨基苯酚;",
    "alternate_name": "Phenol, 5-amino-2-chloro-;5-Amino-2-chlorophenol;2-Chloro-5-aminophenol;3-Amino-6-chlorophenol;3-Hydroxy-4-chloroaniline",
    "duplicated_cas_no": "",
    "SMILES": "OC1=C(Cl)C=CC(N)=C1",
    "meta_data": {
        "InChI": "InChI=1S/C6H6ClNO/c7-5-2-1-4(8)3-6(5)9/h1-3,9H,8H2",
        "InChIKey": null,
        "Canonical SMILES": "ClC1=CC=C(N)C=C1O",
        "Molecular Formula": "C<sub>6</sub>H<sub>6</sub>ClNO",
        "Molecular Mass": "143.57",
        "Melting Point": "97-98 °C"
    }
}