{
    "cas_no": "112809-51-5",
    "key_name": "Letrozole",
    "cn_name": "来曲唑;1-[双(4-氰基苯基)甲基]-1,2,4-三氮唑;",
    "alternate_name": "Benzonitrile, 4,4′-(1<em>H</em>-1,2,4-triazol-1-ylmethylene)bis-;4,4′-(1<em>H</em>-1,2,4-Triazol-1-ylmethylene)bis[benzonitrile];CGS 20267;Letrozole;4,4′-(1<em>H</em>-1,2,4-Triazol-1-ylmethylene)dibenzonitrile;Femara;Letrazole;Lerozole;4-[1-(4-Cyanophenyl)-1-(1,2,4-triazol-1-yl)methyl]benzonitrile;Letroz;Letrof L Lil;Letoripe;Letocor",
    "duplicated_cas_no": "2189711-70-2",
    "SMILES": "C(C1=CC=C(C#N)C=C1)(C2=CC=C(C#N)C=C2)N3C=NC=N3",
    "meta_data": {
        "InChI": "InChI=1S/C17H11N5/c18-9-13-1-5-15(6-2-13)17(22-12-20-11-21-22)16-7-3-14(10-19)4-8-16/h1-8,11-12,17H",
        "InChIKey": null,
        "Canonical SMILES": "N#CC1=CC=C(C=C1)C(C2=CC=C(C#N)C=C2)N3N=CN=C3",
        "Molecular Formula": "C<sub>17</sub>H<sub>11</sub>N<sub>5</sub>",
        "Molecular Mass": "285.30",
        "Melting Point": "181-183 °C",
        "Density": "0.8501 g/cm³ (solid) @ Temp: 45.05 °C; Press: 1.8 x 10⁵ Torr"
    }
}