{
    "cas_no": "123557-91-5",
    "key_name": "5,7-Bis(1,1-dimethylethyl)-3-hydroxy-3-(trifluoromethyl)-2(3<em>H</em>)-benzofuranone",
    "cn_name": null,
    "alternate_name": "2(3<em>H</em>)-Benzofuranone, 5,7-bis(1,1-dimethylethyl)-3-hydroxy-3-(trifluoromethyl)-;5,7-Bis(1,1-dimethylethyl)-3-hydroxy-3-(trifluoromethyl)-2(3<em>H</em>)-benzofuranone;5,7-Di-<em>tert</em>-butyl-3-hydroxy-3-trifluoromethyl-3<em>H</em>-benzofuran-2-one",
    "duplicated_cas_no": "",
    "SMILES": "C(F)(F)(F)C1(O)C=2C(=C(C(C)(C)C)C=C(C(C)(C)C)C2)OC1=O",
    "meta_data": {
        "InChI": "InChI=1S/C17H21F3O3/c1-14(2,3)9-7-10(15(4,5)6)12-11(8-9)16(22,13(21)23-12)17(18,19)20/h7-8,22H,1-6H3",
        "InChIKey": null,
        "Canonical SMILES": "O=C1OC=2C(=CC(=CC2C(C)(C)C)C(C)(C)C)C1(O)C(F)(F)F",
        "Molecular Formula": "C<sub>17</sub>H<sub>21</sub>F<sub>3</sub>O<sub>3</sub>",
        "Molecular Mass": "330.34",
        "Melting Point": "83 °C"
    }
}