{
    "cas_no": "4008-48-4",
    "key_name": "Nitroxoline",
    "cn_name": "5-硝基-8-羟基喹啉;8-羟基-5-硝基喹啉;",
    "alternate_name": "8-Quinolinol, 5-nitro-;5-Nitro-8-quinolinol;8-Hydroxy-5-nitroquinoline;5-Nitro-8-hydroxyquinoline;Nitroxoline;Nibiol;Nitroxolin;5-Nitro-8-oxyquinoline;5-Nitro-8-oxychinoline;5NOK;Noxibiol;5-Nitroxine;BAS 58;5-Nitrox;A 82;NSC 74947;NSC 74948;5-(Hydroxyl[<em>oxido</em>]amino)-8-hydroxyquinoline",
    "duplicated_cas_no": "52440-95-6;64667-01-2",
    "SMILES": "N(=O)(=O)C=1C2=C(C(O)=CC1)N=CC=C2",
    "meta_data": {
        "InChI": "InChI=1S/C9H6N2O3/c12-8-4-3-7(11(13)14)6-2-1-5-10-9(6)8/h1-5,12H",
        "InChIKey": null,
        "Canonical SMILES": "O=N(=O)C=1C=CC(O)=C2N=CC=CC21",
        "Molecular Formula": "C<sub>9</sub>H<sub>6</sub>N<sub>2</sub>O<sub>3</sub>",
        "Molecular Mass": "190.16",
        "Melting Point": "180 °C",
        "Density": "1.4897 g/cm³"
    }
}