{
    "cas_no": "2100-17-6",
    "key_name": "4-Pentenal",
    "cn_name": "4-戊烯醛;4-戊烯醛;",
    "alternate_name": "4-Pentenal;Pent-4-en-1-al",
    "duplicated_cas_no": "",
    "SMILES": "C(CC=O)C=C",
    "meta_data": {
        "InChI": "InChI=1S/C5H8O/c1-2-3-4-5-6/h2,5H,1,3-4H2",
        "InChIKey": null,
        "Canonical SMILES": "O=CCCC=C",
        "Molecular Formula": "C<sub>5</sub>H<sub>8</sub>O",
        "Molecular Mass": "84.12",
        "Boiling Point": "99 °C",
        "Density": "0.852 g/cm³ @ Temp: 20 °C"
    }
}