{
    "cas_no": "15170-57-7",
    "key_name": "Platinum acetylacetonate",
    "cn_name": "二(乙酰丙酮)铂(II);",
    "alternate_name": "Platinum, bis(2,4-pentanedionato-κ<em>O</em><sup>2</sup>,κ<em>O</em><sup>4</sup>)-, (<em>SP</em>-4-1)-;Platinum, bis(2,4-pentanedionato)-;Platinum, bis(2,4-pentanedionato-<em>O</em>,<em>O</em>′)-, (<em>SP</em>-4-1)-;Platinum, bis(2,4-pentanedionato-κ<em>O</em>,κ<em>O</em>′)-, (<em>SP</em>-4-1)-;(<em>SP</em>-4-1)-Bis(2,4-pentanedionato-κ<em>O</em><sup>2</sup>,κ<em>O</em><sup>4</sup>)platinum;Platinum acetylacetonate;Platinum bis(acetylacetonate);Bis(acetylacetonato)platinum;Bis(2,4-pentanedionato)platinum;Platinum(2+) acetylacetonate;Platinum(II) acetylacetonate;Bis(acetylacetonato)platinum(II);Pt(acac)<sub>2</sub>;Pt 70",
    "duplicated_cas_no": "",
    "SMILES": "CC1=O[Pt+2]2(O=C(C)[CH-]C(C)=O2)O=C(C)[CH-]1",
    "meta_data": {
        "InChI": "InChI=1S/2C5H7O2.Pt/c2*1-4(6)3-5(2)7;/h2*3H,1-2H3;/q2*-1;+2",
        "InChIKey": null,
        "Canonical SMILES": "O1=C([CH-]C(=O[Pt+2]12O=C([CH-]C(=O2)C)C)C)C",
        "Molecular Formula": "C<sub>10</sub>H<sub>14</sub>O<sub>4</sub>Pt",
        "Molecular Mass": "",
        "Melting Point": "239.4 °C (decomp)"
    }
}