{
    "cas_no": "133737-32-3",
    "key_name": "Pagoclone",
    "cn_name": null,
    "alternate_name": "1<em>H</em>-Isoindol-1-one, 2-(7-chloro-1,8-naphthyridin-2-yl)-2,3-dihydro-3-(5-methyl-2-oxohexyl)-, (+)-;(+)-2-(7-Chloro-1,8-naphthyridin-2-yl)-2,3-dihydro-3-(5-methyl-2-oxohexyl)-1<em>H</em>-isoindol-1-one;(+)-RP 59037;RP 62955;Pagoclone;IP 456",
    "duplicated_cas_no": "",
    "SMILES": "C(C(CCC(C)C)=O)C1N(C(=O)C=2C1=CC=CC2)C3=NC4=C(C=C3)C=CC(Cl)=N4",
    "meta_data": {
        "InChI": "InChI=1/C23H22ClN3O2/c1-14(2)7-10-16(28)13-19-17-5-3-4-6-18(17)23(29)27(19)21-12-9-15-8-11-20(24)25-22(15)26-21/h3-6,8-9,11-12,14,19H,7,10,13H2,1-2H3",
        "InChIKey": null,
        "Canonical SMILES": "O=C1C=2C=CC=CC2C(N1C=3N=C4N=C(Cl)C=CC4=CC3)CC(=O)CCC(C)C",
        "Molecular Formula": "C<sub>23</sub>H<sub>22</sub>ClN<sub>3</sub>O<sub>2</sub>",
        "Molecular Mass": "407.89",
        "Melting Point": "169 °C"
    }
}