{
    "cas_no": "6635-20-7",
    "key_name": "5-Nitrovanillin",
    "cn_name": "5-硝基香兰素;3-甲氧基-4-羟基-5-硝基苯甲醛;",
    "alternate_name": "Benzaldehyde, 4-hydroxy-3-methoxy-5-nitro-;Vanillin, 5-nitro-;4-Hydroxy-3-methoxy-5-nitrobenzaldehyde;5-Nitrovanillin;3-Methoxy-4-hydroxy-5-nitrobenzaldehyde;5-Nitro-4-hydroxy-3-methoxybenzaldehyde;4-Hydroxy-5-methoxy-3-nitrobenzaldehyde;3-Nitro-4-hydroxy-5-methoxybenzaldehyde;NSC 16932;NSC 35352",
    "duplicated_cas_no": "",
    "SMILES": "N(=O)(=O)C1=C(O)C(OC)=CC(C=O)=C1",
    "meta_data": {
        "InChI": "InChI=1S/C8H7NO5/c1-14-7-3-5(4-10)2-6(8(7)11)9(12)13/h2-4,11H,1H3",
        "InChIKey": null,
        "Canonical SMILES": "O=CC=1C=C(OC)C(O)=C(C1)N(=O)=O",
        "Molecular Formula": "C<sub>8</sub>H<sub>7</sub>NO<sub>5</sub>",
        "Molecular Mass": "197.14",
        "Melting Point": "175-176 °C"
    }
}