{
    "cas_no": "35180-01-9",
    "key_name": "Chloromethyl 1-methylethyl carbonate",
    "cn_name": "氯甲基异丙基碳酸酯;氯甲基碳酸异丙酯;",
    "alternate_name": "Carbonic acid, chloromethyl 1-methylethyl ester;Chloromethyl 1-methylethyl carbonate;Isopropoxycarbonyloxymethyl chloride;Chloromethyl isopropyl carbonate;[(Isopropyloxycarbonyl)oxy]methyl chloride;Isopropyl chloromethyl carbonate;Chloromethyl propan-2-yl carbonate",
    "duplicated_cas_no": "",
    "SMILES": "O(C(OCCl)=O)C(C)C",
    "meta_data": {
        "InChI": "InChI=1S/C5H9ClO3/c1-4(2)9-5(7)8-3-6/h4H,3H2,1-2H3",
        "InChIKey": null,
        "Canonical SMILES": "O=C(OCCl)OC(C)C",
        "Molecular Formula": "C<sub>5</sub>H<sub>9</sub>ClO<sub>3</sub>",
        "Molecular Mass": "152.58",
        "Boiling Point": "66 °C @ Press: 16 Torr"
    }
}