{
    "cas_no": "737789-87-6",
    "key_name": "<em>N</em>-[4-[1-[(2,6-Difluorophenyl)methyl]-5-[(dimethylamino)methyl]-1,2,3,4-tetrahydro-3-(6-methoxy-3-pyridazinyl)-2,4-dioxothieno[2,3-<em>d</em>]pyrimidin-6-yl]phenyl]-<em>N</em>′-methoxyurea",
    "cn_name": null,
    "alternate_name": "Urea, <em>N</em>-[4-[1-[(2,6-difluorophenyl)methyl]-5-[(dimethylamino)methyl]-1,2,3,4-tetrahydro-3-(6-methoxy-3-pyridazinyl)-2,4-dioxothieno[2,3-<em>d</em>]pyrimidin-6-yl]phenyl]-<em>N</em>′-methoxy-;<em>N</em>-[4-[1-[(2,6-Difluorophenyl)methyl]-5-[(dimethylamino)methyl]-1,2,3,4-tetrahydro-3-(6-methoxy-3-pyridazinyl)-2,4-dioxothieno[2,3-<em>d</em>]pyrimidin-6-yl]phenyl]-<em>N</em>′-methoxyurea;TAK 385;Relugolix;1-[4-[1-[(2,6-Difluorophenyl)methyl]-5-[(dimethylamino)methyl]-3-(6-methoxypyridazin-3-yl)-2,4-dioxothieno[2,3-<em>d</em>]pyrimidin-6-yl]phenyl]-3-methoxyurea;RVT 601;Orgovyx;<em>N</em>-(4-(1-(2,6-Difluorobenzyl)-5-((dimethylamino)methyl)-3-(6-methoxy-3-pyridazinyl)-2,4-dioxo-1,2,3,4-tetrahydrothieno[2,3-<em>d</em>]pyrimidin-6-yl)phenyl)-<em>N</em>′-methoxyurea",
    "duplicated_cas_no": "",
    "SMILES": "C(N1C2=C(C(CN(C)C)=C(S2)C3=CC=C(NC(NOC)=O)C=C3)C(=O)N(C1=O)C4=CC=C(OC)N=N4)C5=C(F)C=CC=C5F",
    "meta_data": {
        "InChI": "InChI=1S/C29H27F2N7O5S/c1-36(2)14-19-24-26(39)38(22-12-13-23(42-3)34-33-22)29(41)37(15-18-20(30)6-5-7-21(18)31)27(24)44-25(19)16-8-10-17(11-9-16)32-28(40)35-43-4/h5-13H,14-15H2,1-4H3,(H2,32,35,40)",
        "InChIKey": null,
        "Canonical SMILES": "O=C(NOC)NC=1C=CC(=CC1)C=2SC3=C(C(=O)N(C(=O)N3CC=4C(F)=CC=CC4F)C5=NN=C(OC)C=C5)C2CN(C)C",
        "Molecular Formula": "C<sub>29</sub>H<sub>27</sub>F<sub>2</sub>N<sub>7</sub>O<sub>5</sub>S",
        "Molecular Mass": "623.63",
        "Melting Point": "228 °C (decomp)"
    }
}