{
    "cas_no": "120-12-7",
    "key_name": "Anthracene",
    "cn_name": "蒽;绿油脑;",
    "alternate_name": "Anthracene;Anthracin;Green Oil;Paranaphthalene;Tetra Olive N2G;NSC 7958;A 0495",
    "duplicated_cas_no": "2417305-12-3",
    "SMILES": "C12=C(C=C3C(=C1)C=CC=C3)C=CC=C2",
    "meta_data": {
        "InChI": "InChI=1S/C14H10/c1-2-6-12-10-14-8-4-3-7-13(14)9-11(12)5-1/h1-10H",
        "InChIKey": null,
        "Canonical SMILES": "C=1C=CC=2C=C3C=CC=CC3=CC2C1",
        "Molecular Formula": "C<sub>14</sub>H<sub>10</sub>",
        "Molecular Mass": "178.23",
        "Boiling Point": "342 °C",
        "Melting Point": "218 °C",
        "Density": "1.25 g/cm³ @ Temp: 27 °C"
    }
}