{
    "cas_no": "1912-33-0",
    "key_name": "Indole-3-acetic acid, methyl ester",
    "cn_name": "甲基吲哚-3-乙酸盐;",
    "alternate_name": "1<em>H</em>-Indole-3-acetic acid, methyl ester;Indole-3-acetic acid, methyl ester;β-Indolylacetic acid methyl ester;Methyl β-indoleacetate;Methyl indole-3-acetate;IAA methyl ester;Methyl indol-3-ylacetate;Indolyl-3-acetic acid methyl ester;NSC 63806;Methyl 1<em>H</em>-indol-3-ylacetate;(1<em>H</em>-Indol-3-yl)acetic acid methyl ester;Methyl 2-(1<em>H</em>-indol-3-yl)acetate;Methyl 1<em>H</em>-indole-3-acetate",
    "duplicated_cas_no": "119520-79-5;53272-23-4",
    "SMILES": "C(C(OC)=O)C=1C=2C(NC1)=CC=CC2",
    "meta_data": {
        "InChI": "InChI=1S/C11H11NO2/c1-14-11(13)6-8-7-12-10-5-3-2-4-9(8)10/h2-5,7,12H,6H2,1H3",
        "InChIKey": null,
        "Canonical SMILES": "O=C(OC)CC1=CNC=2C=CC=CC21",
        "Molecular Formula": "C<sub>11</sub>H<sub>11</sub>NO<sub>2</sub>",
        "Molecular Mass": "189.21",
        "Boiling Point": "185-190 °C @ Press: 3 Torr",
        "Melting Point": "49.5-50 °C"
    }
}