{
    "cas_no": "10320-42-0",
    "key_name": "2-Chloro-5-nitropyrimidine",
    "cn_name": "2-氯-5-硝基嘧啶;",
    "alternate_name": "Pyrimidine, 2-chloro-5-nitro-;2-Chloro-5-nitropyrimidine;NSC 528724",
    "duplicated_cas_no": "",
    "SMILES": "N(=O)(=O)C=1C=NC(Cl)=NC1",
    "meta_data": {
        "InChI": "InChI=1S/C4H2ClN3O2/c5-4-6-1-3(2-7-4)8(9)10/h1-2H",
        "InChIKey": null,
        "Canonical SMILES": "O=N(=O)C1=CN=C(Cl)N=C1",
        "Molecular Formula": "C<sub>4</sub>H<sub>2</sub>ClN<sub>3</sub>O<sub>2</sub>",
        "Molecular Mass": "159.53",
        "Melting Point": "110-111 °C"
    }
}