{
    "cas_no": "100784-27-8",
    "key_name": "Methyl 5-(aminosulfonyl)-3-chloro-1-methyl-1<em>H</em>-pyrazole-4-carboxylate",
    "cn_name": null,
    "alternate_name": "1<em>H</em>-Pyrazole-4-carboxylic acid, 5-(aminosulfonyl)-3-chloro-1-methyl-, methyl ester;Methyl 5-(aminosulfonyl)-3-chloro-1-methyl-1<em>H</em>-pyrazole-4-carboxylate;3-Chloro-1-methyl-5-sulfamoyl-1<em>H</em>-pyrazole-4-carboxylic acid methyl ester",
    "duplicated_cas_no": "",
    "SMILES": "C(OC)(=O)C1=C(S(N)(=O)=O)N(C)N=C1Cl",
    "meta_data": {
        "InChI": "InChI=1S/C6H8ClN3O4S/c1-10-5(15(8,12)13)3(4(7)9-10)6(11)14-2/h1-2H3,(H2,8,12,13)",
        "InChIKey": null,
        "Canonical SMILES": "O=C(OC)C=1C(Cl)=NN(C1S(=O)(=O)N)C",
        "Molecular Formula": "C<sub>6</sub>H<sub>8</sub>ClN<sub>3</sub>O<sub>4</sub>S",
        "Molecular Mass": "253.66",
        "Melting Point": "125-126 °C"
    }
}