{
    "cas_no": "555-30-6",
    "key_name": "Methyldopa",
    "cn_name": "甲基多巴;2-氨基-3-(3,4-二羟基苯基)-2-甲基-丙酸;",
    "alternate_name": "<span class=\"text-smallcaps\">L</span>-Tyrosine, 3-hydroxy-α-methyl-;Alanine, 3-(3,4-dihydroxyphenyl)-2-methyl-, <span class=\"text-smallcaps\">L</span>-;3-Hydroxy-α-methyl-<span class=\"text-smallcaps\">L</span>-tyrosine;MK 351;Nr.C 2294;Aldomet;<em>Levo</em>-3-(3,4-Dihydroxyphenyl)-2-methylalanine;<span class=\"text-smallcaps\">L</span>-(-)-β-(3,4-Dihydroxyphenyl)-α-methylalanine;<span class=\"text-smallcaps\">L</span>-α-Methyl-3,4-dihydroxyphenylalanine;<span class=\"text-smallcaps\">L</span>-(-)-α-Methyl-β-(3,4-dihydroxyphenyl)alanine;Methyldopa;α-Methyl-<span class=\"text-smallcaps\">L</span>-3,4-dihydroxyphenylalanine;Presinol;(-)-α-Methyl-3,4-dihydroxyphenylalanine;<em>l</em>-3-(3,4-Dihydroxyphenyl)-2-methylalanine;Dopegyt;α-Methyldopa;(-)-Methyldopa;<em>l</em>-α-Methyldopa;α-Methyl-<span class=\"text-smallcaps\">L</span>-dopa;(<em>S</em>)-(-)-α-Methyldopa;<span class=\"text-smallcaps\">L</span>-2-Amino-2-methyl-3-(3,4-dihydroxyphenyl)propionic acid;AMD;Aldometil;Aldomin;Dopamet;Sembrina;Dopatec;Medomet;Medopren;Methoplain;Alpha medopa;Bayer 1440L;Baypresol;Presolisin;Alphamethyldopa;2-Methyl-3-(3,4-dihydroxyphenyl)alanine;(-)-α-Methyldopa;<span class=\"text-smallcaps\">L</span>-3,4-Dihydroxyphenyl-2-methylalanine;(<em>S</em>)-α-Methyldopa;Methyl-<span class=\"text-smallcaps\">L</span>-dopa;<span class=\"text-smallcaps\">L</span>-α-Methyldopa;<span class=\"text-smallcaps\">L</span>-3,4-Dihydroxy-α-methylphenylalanine;<span class=\"text-smallcaps\">L</span>-Methyldopa;<span class=\"text-smallcaps\">L</span>-α-Methyl-3-(3,4)-dihydroxyphenylalanine;Equibar;Aldomine;Medopa;Lederdopa;Elanpres;NSC 169916;Aldochlor;(2S)-2-Amino-3-(3,4-dihydroxyphenyl)-2-methylpropanoic acid;MeSH ID: D008750",
    "duplicated_cas_no": "133161-54-3;779-08-8;1339-75-9;4290-08-8;88620-56-8",
    "SMILES": "C([C@](C(O)=O)(C)N)C1=CC(O)=C(O)C=C1",
    "meta_data": {
        "InChI": "InChI=1S/C10H13NO4/c1-10(11,9(14)15)5-6-2-3-7(12)8(13)4-6/h2-4,12-13H,5,11H2,1H3,(H,14,15)/t10-/m0/s1",
        "InChIKey": null,
        "Canonical SMILES": "O=C(O)C(N)(C)CC1=CC=C(O)C(O)=C1",
        "Molecular Formula": "C<sub>10</sub>H<sub>13</sub>NO<sub>4</sub>",
        "Molecular Mass": "211.21",
        "Melting Point": "300 °C (decomp)"
    }
}