{
    "cas_no": "5034-06-0",
    "key_name": "Sulfoxonium, trimethyl-, chloride",
    "cn_name": "三甲基氯化亚砜;三甲基氯化亚砜;",
    "alternate_name": "Sulfoxonium, trimethyl-, chloride;Trimethylsulfonium chloride, oxide;Trimethyloxosulfonium chloride;Trimethylsulfoxonium chloride;NSC 221182",
    "duplicated_cas_no": "75633-71-5;343267-77-6",
    "SMILES": "[S+](C)(C)(C)=O.[Cl-]",
    "meta_data": {
        "InChI": "InChI=1S/C3H9OS.ClH/c1-5(2,3)4;/h1-3H3;1H/q+1;/p-1",
        "InChIKey": null,
        "Canonical SMILES": "[Cl-].O=[S+](C)(C)C",
        "Molecular Formula": "C<sub>3</sub>H<sub>9</sub>OS.Cl",
        "Molecular Mass": "",
        "Melting Point": "215-216 °C"
    }
}