{
    "cas_no": "6326-83-6",
    "key_name": "2,2′-[Carbonothioylbis(thio)]bis[acetic acid]",
    "cn_name": "双(羧甲基)三硫代碳酸盐;",
    "alternate_name": "Acetic acid, 2,2′-[carbonothioylbis(thio)]bis-;Carbonic acid, trithio-, diester with mercaptoacetic acid;Carbonic acid, trithio-, bis(carboxymethyl) ester;2,2′-[Carbonothioylbis(thio)]bis[acetic acid];Trithiocarbodiglycolic acid;Bis(carboxymethyl) trithiocarbonate;Thiocarbonyldithioglycolic acid;Di(carboxymethyl) trithiocarbonate;NSC 30797;2-(Carboxymethylsulfanylcarbothioylsulfanyl)acetic acid;2-([[(Carboxymethyl)sulfanyl]methanethioyl]sulfanyl)acetic acid",
    "duplicated_cas_no": "1370634-94-8",
    "SMILES": "C(SCC(O)=O)(SCC(O)=O)=S",
    "meta_data": {
        "InChI": "InChI=1S/C5H6O4S3/c6-3(7)1-11-5(10)12-2-4(8)9/h1-2H2,(H,6,7)(H,8,9)",
        "InChIKey": null,
        "Canonical SMILES": "O=C(O)CSC(=S)SCC(=O)O",
        "Molecular Formula": "C<sub>5</sub>H<sub>6</sub>O<sub>4</sub>S<sub>3</sub>",
        "Molecular Mass": "226.29",
        "Melting Point": "172-173 °C"
    }
}