{
    "cas_no": "98349-24-7",
    "key_name": "Ethyl 2,4,5-trifluoro-β-oxobenzenepropanoate",
    "cn_name": "2,4,5-三氟苯甲酰乙酸乙酯;",
    "alternate_name": "Benzenepropanoic acid, 2,4,5-trifluoro-β-oxo-, ethyl ester;Ethyl 2,4,5-trifluoro-β-oxobenzenepropanoate;Ethyl 2,4,5-trifluorobenzoylacetate;3-Oxo-3-(2,4,5-trifluorophenyl)propionic acid ethyl ester;2,4,5-trifluoro-β-oxobenzenepropanoic acid ethyl ester;Ethyl 2,4,5-Trifluoro-β-oxobenzenepropanoate;Ethyl 3-oxo-3-(2,4,5-trifluorophenyl)propanoate",
    "duplicated_cas_no": "",
    "SMILES": "C(CC(OCC)=O)(=O)C1=C(F)C=C(F)C(F)=C1",
    "meta_data": {
        "InChI": "InChI=1S/C11H9F3O3/c1-2-17-11(16)5-10(15)6-3-8(13)9(14)4-7(6)12/h3-4H,2,5H2,1H3",
        "InChIKey": null,
        "Canonical SMILES": "O=C(OCC)CC(=O)C1=CC(F)=C(F)C=C1F",
        "Molecular Formula": "C<sub>11</sub>H<sub>9</sub>F<sub>3</sub>O<sub>3</sub>",
        "Molecular Mass": "246.18",
        "Boiling Point": "92 °C @ Press: 0.08 Torr"
    }
}