{
    "cas_no": "598-42-5",
    "key_name": "2-Hydroxyacetamide",
    "cn_name": null,
    "alternate_name": "Acetamide, 2-hydroxy-;Glycolamide;2-Hydroxyacetimidic acid;Glycolic acid amide;Glycolic amide;2-Hydroxyacetamide;NSC 97323",
    "duplicated_cas_no": "",
    "SMILES": "C(CO)(N)=O",
    "meta_data": {
        "InChI": "InChI=1S/C2H5NO2/c3-2(5)1-4/h4H,1H2,(H2,3,5)",
        "InChIKey": null,
        "Canonical SMILES": "O=C(N)CO",
        "Molecular Formula": "C<sub>2</sub>H<sub>5</sub>NO<sub>2</sub>",
        "Molecular Mass": "75.07",
        "Melting Point": "120 °C",
        "Density": "1.415 g/cm³ @ Temp: -5 °C"
    }
}