{
    "cas_no": "13161-75-6",
    "key_name": "(+)-Pteryxin",
    "cn_name": null,
    "alternate_name": "2-Butenoic acid, 2-methyl-, (9<em>R</em>,10<em>R</em>)-9-(acetyloxy)-9,10-dihydro-8,8-dimethyl-2-oxo-2<em>H</em>,8<em>H</em>-benzo[1,2-<em>b</em>:3,4-<em>b</em>′]dipyran-10-yl ester, (2<em>Z</em>)-;Pteryxin;Crotonic acid, 2-methyl-, 10-ester with 9,10-dihydro-9,10-dihydroxy-8,8-dimethyl-2<em>H</em>,8<em>H</em>-benzo[1,2-<em>b</em>:3,4-<em>b</em>′]dipyran-2-one acetate, (<em>Z</em>)-;2-Butenoic acid, 2-methyl-, 9-(acetyloxy)-9,10-dihydro-8,8-dimethyl-2-oxo-2<em>H</em>,8<em>H</em>-benzo[1,2-<em>b</em>:3,4-<em>b</em>′]dipyran-10-yl ester, [9<em>R</em>-[9α,10α(<em>Z</em>)]]-;2<em>H</em>,8<em>H</em>-Benzo[1,2-<em>b</em>:3,4-<em>b</em>′]dipyran, 2-butenoic acid deriv.;Pterixin;Pteryxine;(+)-Pteryxin;(+)-(3′<em>R</em>,4′<em>R</em>)-3′-Acetyl-4′-angeloylkhellactone;<em>cis</em>-3′-Acetyl-4′-angeloylkhellactone",
    "duplicated_cas_no": "17944-23-9",
    "SMILES": "O(C(/C(=C\\C)/C)=O)[C@@H]1C=2C3=C(C=CC2OC(C)(C)[C@@H]1OC(C)=O)C=CC(=O)O3",
    "meta_data": {
        "InChI": "InChI=1S/C21H22O7/c1-6-11(2)20(24)27-18-16-14(28-21(4,5)19(18)25-12(3)22)9-7-13-8-10-15(23)26-17(13)16/h6-10,18-19H,1-5H3/b11-6-/t18-,19-/m1/s1",
        "InChIKey": null,
        "Canonical SMILES": "O=C1OC2=C(C=C1)C=CC=3OC(C)(C)C(OC(=O)C)C(OC(=O)C(=CC)C)C32",
        "Molecular Formula": "C<sub>21</sub>H<sub>22</sub>O<sub>7</sub>",
        "Molecular Mass": "386.40",
        "Melting Point": "81 °C"
    }
}