{
    "cas_no": "52605-98-8",
    "key_name": "5-Bromo-2,3-dimethoxypyridine",
    "cn_name": null,
    "alternate_name": "Pyridine, 5-bromo-2,3-dimethoxy-;5-Bromo-2,3-dimethoxypyridine;2,3-Dimethoxy 5-bromo pyridine",
    "duplicated_cas_no": "",
    "SMILES": "O(C)C1=C(OC)C=C(Br)C=N1",
    "meta_data": {
        "InChI": "InChI=1S/C7H8BrNO2/c1-10-6-3-5(8)4-9-7(6)11-2/h3-4H,1-2H3",
        "InChIKey": null,
        "Canonical SMILES": "BrC1=CN=C(OC)C(OC)=C1",
        "Molecular Formula": "C<sub>7</sub>H<sub>8</sub>BrNO<sub>2</sub>",
        "Molecular Mass": "218.05",
        "Melting Point": "172-175 °C"
    }
}