{
    "cas_no": "19883-77-3",
    "key_name": "3-Fluoro-<span class=\"text-smallcaps\">L</span>-phenylalanine",
    "cn_name": null,
    "alternate_name": "<span class=\"text-smallcaps\">L</span>-Phenylalanine, 3-fluoro-;Alanine, 3-(<em>m</em>-fluorophenyl)-, <span class=\"text-smallcaps\">L</span>-;3-Fluoro-<span class=\"text-smallcaps\">L</span>-phenylalanine;<span class=\"text-smallcaps\">L</span>-3-Fluorophenylalanine;<em>m</em>-Fluoro-<span class=\"text-smallcaps\">L</span>-phenylalanine;(2S)-2-Amino-3-(3-fluorophenyl)propanoic acid;(2S)-2-Azaniumyl-3-(3-fluorophenyl)propanoate",
    "duplicated_cas_no": "",
    "SMILES": "C([C@@H](C(O)=O)N)C1=CC(F)=CC=C1",
    "meta_data": {
        "InChI": "InChI=1S/C9H10FNO2/c10-7-3-1-2-6(4-7)5-8(11)9(12)13/h1-4,8H,5,11H2,(H,12,13)/t8-/m0/s1",
        "InChIKey": null,
        "Canonical SMILES": "O=C(O)C(N)CC=1C=CC=C(F)C1",
        "Molecular Formula": "C<sub>9</sub>H<sub>10</sub>FNO<sub>2</sub>",
        "Molecular Mass": "183.18",
        "Melting Point": "240-245 °C"
    }
}