{
    "cas_no": "461-98-3",
    "key_name": "2,6-Dimethyl-4-pyrimidinamine",
    "cn_name": "4-氨基-2,6-二甲基嘧啶;",
    "alternate_name": "4-Pyrimidinamine, 2,6-dimethyl-;Pyrimidine, 4-amino-2,6-dimethyl-;2,6-Dimethyl-4-pyrimidinamine;4-Amino-2,6-dimethylpyrimidine;6-Amino-2,4-dimethylpyrimidine;Cyanmethine;Cyanomethine;Kyanmethin;Kyanmethine;2,4-Dimethyl-6-aminopyrimidine;2,6-Dimethyl-4-pyrimidinylamine;2,6-Dimethyl-4-aminopyrimidine;2,6-Dimethylpyrimidin-4-amine;NSC 21637;2,6-Dimethylpyrimidine-4-amine",
    "duplicated_cas_no": "",
    "SMILES": "CC=1C=C(N)N=C(C)N1",
    "meta_data": {
        "InChI": "InChI=1S/C6H9N3/c1-4-3-6(7)9-5(2)8-4/h3H,1-2H3,(H2,7,8,9)",
        "InChIKey": null,
        "Canonical SMILES": "N=1C(=NC(=CC1N)C)C",
        "Molecular Formula": "C<sub>6</sub>H<sub>9</sub>N<sub>3</sub>",
        "Molecular Mass": "123.16",
        "Melting Point": "183 °C"
    }
}