{
    "cas_no": "123402-21-1",
    "key_name": "3′-Deoxy-3′-fluoroguanosine",
    "cn_name": null,
    "alternate_name": "Guanosine, 3′-deoxy-3′-fluoro-;3′-Deoxy-3′-fluoroguanosine;3′-Fluoro-3′-deoxyguanosine;2-Amino-9-((2<em>R</em>,3<em>S</em>,4<em>S</em>,5<em>R</em>)-4-fluoro-3-hydroxy-5-(hydroxymethyl)tetrahydrofuran-2-yl)-1<em>H</em>-purin-6(9<em>H</em>)-one",
    "duplicated_cas_no": "2316640-40-9",
    "SMILES": "O=C1C2=C(N(C=N2)[C@@H]3O[C@H](CO)[C@@H](F)[C@H]3O)NC(N)=N1",
    "meta_data": {
        "InChI": "InChI=1S/C10H12FN5O4/c11-4-3(1-17)20-9(6(4)18)16-2-13-5-7(16)14-10(12)15-8(5)19/h2-4,6,9,17-18H,1H2,(H3,12,14,15,19)/t3-,4-,6-,9-/m1/s1",
        "InChIKey": null,
        "Canonical SMILES": "O=C1N=C(N)NC2=C1N=CN2C3OC(CO)C(F)C3O",
        "Molecular Formula": "C<sub>10</sub>H<sub>12</sub>FN<sub>5</sub>O<sub>4</sub>",
        "Molecular Mass": "285.23",
        "Melting Point": "289-291 °C"
    }
}