{
    "cas_no": "699-08-1",
    "key_name": "1-Ethoxy-4-iodobenzene",
    "cn_name": "4-碘苯乙醚;对碘苯乙醚;",
    "alternate_name": "Benzene, 1-ethoxy-4-iodo-;Phenetole, <em>p</em>-iodo-;1-Ethoxy-4-iodobenzene;<em>p</em>-Ethoxyiodobenzene;<em>p</em>-Iodophenetole;4-Iodophenetole;4-Iodoethoxybenzene;NSC 3781;4-(Ethyloxy)iodobenzene;4-Ethoxyphenyl iodide;4-Iodo-1-ethoxybenzene;4-Ethoxy-1-iodobenzene",
    "duplicated_cas_no": "",
    "SMILES": "O(CC)C1=CC=C(I)C=C1",
    "meta_data": {
        "InChI": "InChI=1S/C8H9IO/c1-2-10-8-5-3-7(9)4-6-8/h3-6H,2H2,1H3",
        "InChIKey": null,
        "Canonical SMILES": "IC1=CC=C(OCC)C=C1",
        "Molecular Formula": "C<sub>8</sub>H<sub>9</sub>IO",
        "Molecular Mass": "248.06",
        "Boiling Point": "250 °C",
        "Melting Point": "29 °C"
    }
}