{
    "cas_no": "422-61-7",
    "key_name": "2,2,3,3,3-Pentafluoropropanoyl fluoride",
    "cn_name": "五氟丙酰氟;五氟丙酰氟;",
    "alternate_name": "Propanoyl fluoride, 2,2,3,3,3-pentafluoro-;Propionyl fluoride, pentafluoro-;Propanoyl fluoride, pentafluoro-;2,2,3,3,3-Pentafluoropropanoyl fluoride;Pentafluoropropionyl fluoride;Perfluoropropionyl fluoride;Pentafluoropropanoyl fluoride;Perfluoropropanoyl fluoride",
    "duplicated_cas_no": "",
    "SMILES": "C(C(F)(F)F)(C(F)=O)(F)F",
    "meta_data": {
        "InChI": "InChI=1S/C3F6O/c4-1(10)2(5,6)3(7,8)9",
        "InChIKey": null,
        "Canonical SMILES": "O=C(F)C(F)(F)C(F)(F)F",
        "Molecular Formula": "C<sub>3</sub>F<sub>6</sub>O",
        "Molecular Mass": "166.02",
        "Boiling Point": "-28-23 °C"
    }
}