{
    "cas_no": "69-89-6",
    "key_name": "Xanthine",
    "cn_name": "黄嘌呤;2,6-二羟基嘌呤;嘌呤-2(3H),6(1H)-二酮;",
    "alternate_name": "1<em>H</em>-Purine-2,6-dione, 3,9-dihydro-;1<em>H</em>-Purine-2,6-dione, 3,7-dihydro-;Xanthine;3,9-Dihydro-1<em>H</em>-purine-2,6-dione;2,6-Dioxopurine;Isoxanthine;Purine-2,6(1<em>H</em>,3<em>H</em>)-dione;Xanthic oxide;9<em>H</em>-Purine-2,6(1<em>H</em>,3<em>H</em>)-dione;Pseudoxanthine;1<em>H</em>-Purine-2,6-diol;2,6-Dioxo-1,2,3,6-tetrahydropurine;Xanthin;Xan;1<em>H</em>,3<em>H</em>,7<em>H</em>-Xanthine;3,9-Dihydropurine-2,6-dione;NSC 14664;1<em>H</em>,3<em>H</em>,9<em>H</em>-Xanthine;1<em>H</em>-Purine-2,6(3<em>H</em>,7<em>H</em>)-dione;2,3,6,9-Tetrahydro-1<em>H</em>-purine-2,6-dione;2-Hydroxy-6,7-dihydro-1<em>H</em>-purin-6-one;3,7-Dihydropurine-2,6-dione;2-Hydroxy-6,9-dihydro-1<em>H</em>-purin-6-one;MeSH ID: D019820",
    "duplicated_cas_no": "6050-36-8;6053-41-4;16819-86-6;28522-58-9;33669-67-9;42911-15-9;51953-26-5",
    "SMILES": "O=C1C2=C(NC(=O)N1)N=CN2",
    "meta_data": {
        "InChI": "InChI=1S/C5H4N4O2/c10-4-2-3(7-1-6-2)8-5(11)9-4/h1H,(H3,6,7,8,9,10,11)",
        "InChIKey": null,
        "Canonical SMILES": "O=C1NC(=O)C=2NC=NC2N1",
        "Molecular Formula": "C<sub>5</sub>H<sub>4</sub>N<sub>4</sub>O<sub>2</sub>",
        "Molecular Mass": "152.11",
        "Melting Point": "345 °C (decomp)",
        "Density": "1.62 g/cm³ (crystalline) @ Temp: 19.9 °C"
    }
}