{
    "cas_no": "26097-80-3",
    "key_name": "Cambendazole",
    "cn_name": null,
    "alternate_name": "Carbamic acid, <em>N</em>-[2-(4-thiazolyl)-1<em>H</em>-benzimidazol-6-yl]-, 1-methylethyl ester;5-Benzimidazolecarbamic acid, 2-(4-thiazolyl)-, isopropyl ester;Carbamic acid, [2-(4-thiazolyl)-1<em>H</em>-benzimidazol-5-yl]-, 1-methylethyl ester;Cambendazole;Isopropyl 2-(4-thiazolyl)-5-benzimidazolecarbamate;2-(4-Thiazolyl)-5-isopropoxycarbonylaminobenzimidazole;Bonlam;Cambenzole;Novazole;Noviben;MK 905;NSC 377071",
    "duplicated_cas_no": "31338-94-0",
    "SMILES": "N(C(OC(C)C)=O)C=1C=C2C(NC(=N2)C3=CSC=N3)=CC1",
    "meta_data": {
        "InChI": "InChI=1S/C14H14N4O2S/c1-8(2)20-14(19)16-9-3-4-10-11(5-9)18-13(17-10)12-6-21-7-15-12/h3-8H,1-2H3,(H,16,19)(H,17,18)",
        "InChIKey": null,
        "Canonical SMILES": "O=C(OC(C)C)NC1=CC=C2NC(=NC2=C1)C=3N=CSC3",
        "Molecular Formula": "C<sub>14</sub>H<sub>14</sub>N<sub>4</sub>O<sub>2</sub>S",
        "Molecular Mass": "302.35",
        "Melting Point": "212-214 °C"
    }
}