{
    "cas_no": "196597-76-9",
    "key_name": "6,7-Dibromo-2,3-dihydro-5-benzofuranpropanoic acid",
    "cn_name": null,
    "alternate_name": "5-Benzofuranpropanoic acid, 6,7-dibromo-2,3-dihydro-;6,7-Dibromo-2,3-dihydro-5-benzofuranpropanoic acid;3-(6,7-Dibromo-2,3-dihydrobenzo[<em>b</em>]furan-5-yl)propanoic acid;3-(6,7-Dibromo-2,3-dihydrobenzofuran-5-yl)propanoic acid;3-(6,7-Dibromo-2,3-dihydrobenzofuran-5-yl)propionic acid;3-(6,7-Dibromo-2,3-dihydrobenzofuran-5-yl)propionoic acid",
    "duplicated_cas_no": "",
    "SMILES": "BrC1=C2C(=CC(CCC(O)=O)=C1Br)CCO2",
    "meta_data": {
        "InChI": "InChI=1S/C11H10Br2O3/c12-9-6(1-2-8(14)15)5-7-3-4-16-11(7)10(9)13/h5H,1-4H2,(H,14,15)",
        "InChIKey": null,
        "Canonical SMILES": "O=C(O)CCC=1C=C2C(OCC2)=C(Br)C1Br",
        "Molecular Formula": "C<sub>11</sub>H<sub>10</sub>Br<sub>2</sub>O<sub>3</sub>",
        "Molecular Mass": "350.00",
        "Melting Point": "117-118 °C"
    }
}