{
    "cas_no": "13678-59-6",
    "key_name": "2-Methyl-5-(methylthio)furan",
    "cn_name": "2-甲基-5-(甲硫基)-呋喃;",
    "alternate_name": "Furan, 2-methyl-5-(methylthio)-;2-Methyl-5-(methylthio)furan;Methyl 5-methylfuryl sulfide;5-Methyl-2-(methylthio)furan;2-Methyl-5-methylsulfanylfuran",
    "duplicated_cas_no": "",
    "SMILES": "S(C)C=1OC(C)=CC1",
    "meta_data": {
        "InChI": "InChI=1S/C6H8OS/c1-5-3-4-6(7-5)8-2/h3-4H,1-2H3",
        "InChIKey": null,
        "Canonical SMILES": "O1C(SC)=CC=C1C",
        "Molecular Formula": "C<sub>6</sub>H<sub>8</sub>OS",
        "Molecular Mass": "128.19",
        "Boiling Point": "80 °C @ Press: 45-50 Torr"
    }
}