{
    "cas_no": "5314-55-6",
    "key_name": "Ethyltrimethoxysilane",
    "cn_name": "乙基三甲氧基硅烷;",
    "alternate_name": "Silane, ethyltrimethoxy-;Ethyltrimethoxysilane;LS 890;SIE 4901.4;Z 6321;Trimethoxyethylsilane",
    "duplicated_cas_no": "",
    "SMILES": "[Si](CC)(OC)(OC)OC",
    "meta_data": {
        "InChI": "InChI=1S/C5H14O3Si/c1-5-9(6-2,7-3)8-4/h5H2,1-4H3",
        "InChIKey": null,
        "Canonical SMILES": "O(C)[Si](OC)(OC)CC",
        "Molecular Formula": "C<sub>5</sub>H<sub>14</sub>O<sub>3</sub>Si",
        "Molecular Mass": "150.25",
        "Boiling Point": "124.3 °C",
        "Density": "0.948 g/cm³"
    }
}