{
    "cas_no": "113975-33-0",
    "key_name": "<em>N</em>-(3-Iodo-4-pyridinyl)-2,2-dimethylpropanamide",
    "cn_name": "N-(3-碘吡啶-4-基)棕榈酰胺;3-碘-4-(2,2,2-三甲基乙酰胺基)吡啶;",
    "alternate_name": "Propanamide, <em>N</em>-(3-iodo-4-pyridinyl)-2,2-dimethyl-;<em>N</em>-(3-Iodo-4-pyridinyl)-2,2-dimethylpropanamide",
    "duplicated_cas_no": "",
    "SMILES": "N(C(C(C)(C)C)=O)C=1C(I)=CN=CC1",
    "meta_data": {
        "InChI": "InChI=1S/C10H13IN2O/c1-10(2,3)9(14)13-8-4-5-12-6-7(8)11/h4-6H,1-3H3,(H,12,13,14)",
        "InChIKey": null,
        "Canonical SMILES": "O=C(NC=1C=CN=CC1I)C(C)(C)C",
        "Molecular Formula": "C<sub>10</sub>H<sub>13</sub>IN<sub>2</sub>O",
        "Molecular Mass": "304.13",
        "Melting Point": "158 °C"
    }
}