{
    "cas_no": "28162-32-5",
    "key_name": "2-(2-Thienylmethylene)propanedinitrile",
    "cn_name": null,
    "alternate_name": "Propanedinitrile, 2-(2-thienylmethylene)-;Malononitrile, (2-thenylidene)-;Propanedinitrile, (2-thienylmethylene)-;Thiophene, 2-(2,2-dicyanovinyl)-;2-(2-Thienylmethylene)propanedinitrile;(2-Thienylmethylene)propanedinitrile;NSC 506471;NSC 659144;1,1-Dicyano-2-(thien-2-yl)ethene;2-[(Thiophen-2-yl)methylene]malononitrile;(2-Thienylmethylene)malononitrile;2-(Thiophen-2-yl)malononitrile;2-[(2-Thienyl)methylene]malononitrile;(2-Thienylmethylene)methane-1,1-dicarbonitrile;2-[(Thiophen-2-yl)methylidene]propanedinitrile;2-(Thiophen-2-ylmethylidene)propanedinitrile",
    "duplicated_cas_no": "",
    "SMILES": "C(=C(C#N)C#N)C1=CC=CS1",
    "meta_data": {
        "InChI": "InChI=1S/C8H4N2S/c9-5-7(6-10)4-8-2-1-3-11-8/h1-4H",
        "InChIKey": null,
        "Canonical SMILES": "N#CC(C#N)=CC=1SC=CC1",
        "Molecular Formula": "C<sub>8</sub>H<sub>4</sub>N<sub>2</sub>S",
        "Molecular Mass": "160.20",
        "Melting Point": "86 °C"
    }
}