{
    "cas_no": "12135-76-1",
    "key_name": "Ammonium sulfide",
    "cn_name": "硫化铵;",
    "alternate_name": "Ammonium sulfide ((NH<sub>4</sub>)<sub>2</sub>S);True ammonium sulfide;Ammonium monosulfide;Diammonium sulfide;Ammonium sulfide",
    "duplicated_cas_no": "8012-13-3;15603-52-8;19320-46-8;916081-50-0",
    "SMILES": "S([NH4])[NH4]",
    "meta_data": {
        "InChI": "InChI=1S/H8N2S/c1-3-2/h1-2H4",
        "InChIKey": null,
        "Canonical SMILES": "S([NH4])[NH4]",
        "Molecular Formula": "H<sub>8</sub>N<sub>2</sub>S",
        "Molecular Mass": "68.14",
        "Boiling Point": "40.0 °C"
    }
}