{
    "cas_no": "7440-00-8",
    "key_name": "Neodymium",
    "cn_name": "钕;钕棒;",
    "alternate_name": "Neodymium;MeSH ID: D009354",
    "duplicated_cas_no": "110123-51-8",
    "SMILES": "[Nd]",
    "meta_data": {
        "InChI": "InChI=1S/Nd",
        "InChIKey": null,
        "Canonical SMILES": "[Nd]",
        "Molecular Formula": "Nd",
        "Molecular Mass": "",
        "Melting Point": "979 °C",
        "Density": "7.01 g/cm³"
    }
}