{
    "cas_no": "202865-66-5",
    "key_name": "2-Bromo-5-fluorobenzenemethanol",
    "cn_name": "2-溴-5-氟苄醇;",
    "alternate_name": "Benzenemethanol, 2-bromo-5-fluoro-;2-Bromo-5-fluorobenzenemethanol;2-Bromo-5-fluorobenzyl alcohol;(2-Bromo-5-fluorophenyl)methanol;2-Bromo-5-fluorobenzyl alc",
    "duplicated_cas_no": "",
    "SMILES": "C(O)C1=C(Br)C=CC(F)=C1",
    "meta_data": {
        "InChI": "InChI=1S/C7H6BrFO/c8-7-2-1-6(9)3-5(7)4-10/h1-3,10H,4H2",
        "InChIKey": null,
        "Canonical SMILES": "FC1=CC=C(Br)C(=C1)CO",
        "Molecular Formula": "C<sub>7</sub>H<sub>6</sub>BrFO",
        "Molecular Mass": "205.02",
        "Melting Point": "92-94 °C"
    }
}