{
    "cas_no": "34035-04-6",
    "key_name": "5-(2-Chlorophenyl)-2-furancarboxaldehyde",
    "cn_name": "5-(2-氯苯基)糠醛;",
    "alternate_name": "2-Furancarboxaldehyde, 5-(2-chlorophenyl)-;2-Furaldehyde, 5-(<em>o</em>-chlorophenyl)-;5-(2-Chlorophenyl)-2-furancarboxaldehyde;5-(<em>o</em>-Chlorophenyl)-2-furaldehyde;5-(2-Chlorophenyl)-2-furaldehyde;5-(<em>o</em>-Chlorophenyl)-2-furancarboxaldehyde;5-(2-Chlorophenyl)furfural;5-(<em>o</em>-Chlorophenyl)furfural",
    "duplicated_cas_no": "",
    "SMILES": "ClC1=C(C=2OC(C=O)=CC2)C=CC=C1",
    "meta_data": {
        "InChI": "InChI=1S/C11H7ClO2/c12-10-4-2-1-3-9(10)11-6-5-8(7-13)14-11/h1-7H",
        "InChIKey": null,
        "Canonical SMILES": "O=CC=1OC(=CC1)C=2C=CC=CC2Cl",
        "Molecular Formula": "C<sub>11</sub>H<sub>7</sub>ClO<sub>2</sub>",
        "Molecular Mass": "206.63",
        "Melting Point": "77 °C"
    }
}