{
    "cas_no": "3761-41-9",
    "key_name": "Mesulfenfos",
    "cn_name": "倍硫磷亚砜;倍硫磷亚砜Fenthionsulfoxide;",
    "alternate_name": "Phosphorothioic acid, <em>O</em>,<em>O</em>-dimethyl <em>O</em>-[3-methyl-4-(methylsulfinyl)phenyl] ester;Phosphorothioic acid, <em>O</em>,<em>O</em>-dimethyl <em>O</em>-[4-(methylsulfinyl)-<em>m</em>-tolyl] ester;Fenthion sulfoxide;Fensulfoxide;Mesulfenfos;Mesulfenphos",
    "duplicated_cas_no": "",
    "SMILES": "O(P(OC)(OC)=S)C1=CC(C)=C(S(C)=O)C=C1",
    "meta_data": {
        "InChI": "InChI=1S/C10H15O4PS2/c1-8-7-9(5-6-10(8)17(4)11)14-15(16,12-2)13-3/h5-7H,1-4H3",
        "InChIKey": null,
        "Canonical SMILES": "O=S(C1=CC=C(OP(=S)(OC)OC)C=C1C)C",
        "Molecular Formula": "C<sub>10</sub>H<sub>15</sub>O<sub>4</sub>PS<sub>2</sub>",
        "Molecular Mass": "294.33",
        "Boiling Point": "110 °C @ Press: 0.01 Torr"
    }
}