{
    "cas_no": "6754-58-1",
    "key_name": "Xanthohumol",
    "cn_name": null,
    "alternate_name": "2-Propen-1-one, 1-[2,4-dihydroxy-6-methoxy-3-(3-methyl-2-buten-1-yl)phenyl]-3-(4-hydroxyphenyl)-, (2<em>E</em>)-;Xanthohumol;2-Propen-1-one, 1-[2,4-dihydroxy-6-methoxy-3-(3-methyl-2-butenyl)phenyl]-3-(4-hydroxyphenyl)-, (<em>E</em>)-;2-Propen-1-one, 1-[2,4-dihydroxy-6-methoxy-3-(3-methyl-2-butenyl)phenyl]-3-(4-hydroxyphenyl)-, (2<em>E</em>)-;(2<em>E</em>)-1-[2,4-Dihydroxy-6-methoxy-3-(3-methyl-2-buten-1-yl)phenyl]-3-(4-hydroxyphenyl)-2-propen-1-one;Xantho-Flav;Xantho Flav-Pure;Xanthopure",
    "duplicated_cas_no": "",
    "SMILES": "C(/C=C/C1=CC=C(O)C=C1)(=O)C2=C(OC)C=C(O)C(CC=C(C)C)=C2O",
    "meta_data": {
        "InChI": "InChI=1S/C21H22O5/c1-13(2)4-10-16-18(24)12-19(26-3)20(21(16)25)17(23)11-7-14-5-8-15(22)9-6-14/h4-9,11-12,22,24-25H,10H2,1-3H3/b11-7+",
        "InChIKey": null,
        "Canonical SMILES": "O=C(C=CC1=CC=C(O)C=C1)C=2C(OC)=CC(O)=C(C2O)CC=C(C)C",
        "Molecular Formula": "C<sub>21</sub>H<sub>22</sub>O<sub>5</sub>",
        "Molecular Mass": "354.40",
        "Melting Point": "172 °C"
    }
}