{
    "cas_no": "101-26-8",
    "key_name": "Pyridostigmine bromide",
    "cn_name": "溴吡斯的明;溴化1-甲基-3-羟基吡啶鎓二甲氨基甲酸酯;",
    "alternate_name": "Pyridinium, 3-[[(dimethylamino)carbonyl]oxy]-1-methyl-, bromide (1:1);Pyridinium, 3-hydroxy-1-methyl-, bromide, dimethylcarbamate;Pyridinium, 3-[[(dimethylamino)carbonyl]oxy]-1-methyl-, bromide;3-Hydroxy-1-methylpyridinium bromide, dimethylcarbamate;Carbamic acid, dimethyl-, ester with 3-hydroxy-1-methylpyridinium bromide;Ro 1-5130;Kalymin;Mestinon;Mestinon bromide;1-Methyl-3-hydroxypyridinium bromide dimethylcarbamate;Pyridostigmine bromide;3-(Dimethylcarbamyloxy)-1-methylpyridinium bromide;Piridostigmin bromide;Kalimin;Piridostigmin;3-(Dimethylcarbamoyloxy)-1-methylpyridinium bromide;Regonol;NSC 679759;3-[[(Dimethylamino)carbonyl]oxy]-1-methylpyridinium bromide;MeSH ID: D011729",
    "duplicated_cas_no": "",
    "SMILES": "O(C(N(C)C)=O)C1=C[N+](C)=CC=C1.[Br-]",
    "meta_data": {
        "InChI": "InChI=1S/C9H13N2O2.BrH/c1-10(2)9(12)13-8-5-4-6-11(3)7-8;/h4-7H,1-3H3;1H/q+1;/p-1",
        "InChIKey": null,
        "Canonical SMILES": "[Br-].O=C(OC1=CC=C[N+](=C1)C)N(C)C",
        "Molecular Formula": "C<sub>9</sub>H<sub>13</sub>N<sub>2</sub>O<sub>2</sub>.Br",
        "Molecular Mass": "",
        "Melting Point": "152-154 °C"
    }
}