{
    "cas_no": "482311-23-9",
    "key_name": "Methyl 3-methyl-5-nitrobenzoate",
    "cn_name": null,
    "alternate_name": "Benzoic acid, 3-methyl-5-nitro-, methyl ester;Methyl 3-methyl-5-nitrobenzoate",
    "duplicated_cas_no": "",
    "SMILES": "C(OC)(=O)C1=CC(N(=O)=O)=CC(C)=C1",
    "meta_data": {
        "InChI": "InChI=1S/C9H9NO4/c1-6-3-7(9(11)14-2)5-8(4-6)10(12)13/h3-5H,1-2H3",
        "InChIKey": null,
        "Canonical SMILES": "O=C(OC)C=1C=C(C=C(C1)C)N(=O)=O",
        "Molecular Formula": "C<sub>9</sub>H<sub>9</sub>NO<sub>4</sub>",
        "Molecular Mass": "195.17",
        "Melting Point": "84-85 °C"
    }
}