{
    "cas_no": "6294-93-5",
    "key_name": "4-Chloro-3-(trifluoromethyl)phenol",
    "cn_name": "2-氯-5-羟基三氟甲苯;4-氯-3-三氟甲基苯酚;",
    "alternate_name": "Phenol, 4-chloro-3-(trifluoromethyl)-;<em>m</em>-Cresol, 4-chloro-α,α,α-trifluoro-;4-Chloro-3-(trifluoromethyl)phenol;NSC 11757;2-Chloro-5-hydroxybenzotrifluoride",
    "duplicated_cas_no": "",
    "SMILES": "C(F)(F)(F)C1=C(Cl)C=CC(O)=C1",
    "meta_data": {
        "InChI": "InChI=1S/C7H4ClF3O/c8-6-2-1-4(12)3-5(6)7(9,10)11/h1-3,12H",
        "InChIKey": null,
        "Canonical SMILES": "FC(F)(F)C1=CC(O)=CC=C1Cl",
        "Molecular Formula": "C<sub>7</sub>H<sub>4</sub>ClF<sub>3</sub>O",
        "Molecular Mass": "196.55",
        "Boiling Point": "120-122 °C @ Press: 27 Torr",
        "Melting Point": "43 °C"
    }
}