{
    "cas_no": "121-00-6",
    "key_name": "3-<em>tert</em>-Butyl-4-hydroxyanisole",
    "cn_name": "4-羟基-3-叔丁基-苯甲醚;",
    "alternate_name": "Phenol, 2-(1,1-dimethylethyl)-4-methoxy-;Phenol, 2-<em>tert</em>-butyl-4-methoxy-;2-(1,1-Dimethylethyl)-4-methoxyphenol;3-BHA;4-Methoxy-2-<em>tert</em>-butylphenol;2-<em>tert</em>-Butyl-4-methoxyphenol;3-<em>tert</em>-Butyl-4-hydroxyanisole;4-Methoxy-6-<em>tert</em>-butylphenol;<em>o</em>-<em>tert</em>-Butyl-<em>p</em>-methoxyphenol;<em>tert</em>-Butyl-2-methoxy-4-phenol;3-<em>tert</em>-Butyl-<em>p</em>-hydroxyanisole;3-(1,1-Dimethylethyl)-4-hydroxyanisole;4-Hydroxy-3-<em>tert</em>-butylanisole;2-<em>tert</em>-Butyl-<em>p</em>-methoxyphenol",
    "duplicated_cas_no": "1341-82-8",
    "SMILES": "C(C)(C)(C)C1=CC(OC)=CC=C1O",
    "meta_data": {
        "InChI": "InChI=1S/C11H16O2/c1-11(2,3)9-7-8(13-4)5-6-10(9)12/h5-7,12H,1-4H3",
        "InChIKey": null,
        "Canonical SMILES": "OC1=CC=C(OC)C=C1C(C)(C)C",
        "Molecular Formula": "C<sub>11</sub>H<sub>16</sub>O<sub>2</sub>",
        "Molecular Mass": "180.24",
        "Boiling Point": "134-137 °C @ Press: 7 Torr",
        "Melting Point": "62-63 °C",
        "Density": "1.0587 g/cm³ @ Temp: 20 °C"
    }
}