{
    "cas_no": "871-91-0",
    "key_name": "7-Octyn-1-ol",
    "cn_name": "4-壬炔-1-醇;4-壬炔-1-醇;",
    "alternate_name": "7-Octyn-1-ol;8-Hydroxy-1-octyne;Oct-7-yne-1-ol;Oct-7-yn-1-ol",
    "duplicated_cas_no": "",
    "SMILES": "C(CCC#C)CCCO",
    "meta_data": {
        "InChI": "InChI=1S/C8H14O/c1-2-3-4-5-6-7-8-9/h1,9H,3-8H2",
        "InChIKey": null,
        "Canonical SMILES": "C#CCCCCCCO",
        "Molecular Formula": "C<sub>8</sub>H<sub>14</sub>O",
        "Molecular Mass": "126.20",
        "Boiling Point": "65-70 °C"
    }
}