{
    "cas_no": "2621-62-7",
    "key_name": "<em>N</em>-(2,5-Dichlorophenyl)acetamide",
    "cn_name": "N-(2,5-二氯苯基乙酰胺);2\",5\"-二氯乙酰苯胺;",
    "alternate_name": "Acetamide, <em>N</em>-(2,5-dichlorophenyl)-;Acetanilide, 2′,5′-dichloro-;<em>N</em>-(2,5-Dichlorophenyl)acetamide;2′,5′-Dichloroacetanilide;<em>N</em>-Acetyl-2,5-dichloroaniline;NSC 28454",
    "duplicated_cas_no": "",
    "SMILES": "N(C(C)=O)C1=C(Cl)C=CC(Cl)=C1",
    "meta_data": {
        "InChI": "InChI=1S/C8H7Cl2NO/c1-5(12)11-8-4-6(9)2-3-7(8)10/h2-4H,1H3,(H,11,12)",
        "InChIKey": null,
        "Canonical SMILES": "O=C(NC1=CC(Cl)=CC=C1Cl)C",
        "Molecular Formula": "C<sub>8</sub>H<sub>7</sub>Cl<sub>2</sub>NO",
        "Molecular Mass": "204.05",
        "Melting Point": "133 °C"
    }
}