{
    "cas_no": "402-13-1",
    "key_name": "2-Amino-4-(trifluoromethyl)benzoic acid",
    "cn_name": "2-氨基-4-(三氟甲基)苯甲酸;",
    "alternate_name": "Benzoic acid, 2-amino-4-(trifluoromethyl)-;<em>p</em>-Toluic acid, 2-amino-α,α,α-trifluoro-;2-Amino-4-(trifluoromethyl)benzoic acid;4-Trifluoromethylanthranilic acid",
    "duplicated_cas_no": "",
    "SMILES": "C(F)(F)(F)C1=CC(N)=C(C(O)=O)C=C1",
    "meta_data": {
        "InChI": "InChI=1S/C8H6F3NO2/c9-8(10,11)4-1-2-5(7(13)14)6(12)3-4/h1-3H,12H2,(H,13,14)",
        "InChIKey": null,
        "Canonical SMILES": "O=C(O)C1=CC=C(C=C1N)C(F)(F)F",
        "Molecular Formula": "C<sub>8</sub>H<sub>6</sub>F<sub>3</sub>NO<sub>2</sub>",
        "Molecular Mass": "205.13",
        "Melting Point": "172-174 °C"
    }
}