{
    "cas_no": "14641-93-1",
    "key_name": "α-<span class=\"text-smallcaps\">D</span>-Lactose",
    "cn_name": null,
    "alternate_name": "α-<span class=\"text-smallcaps\">D</smallcap>-Glucopyranose, 4-<em>O</em>-β-<smallcap>D</span>-galactopyranosyl-;Lactose, α-;4-<em>O</em>-β-<span class=\"text-smallcaps\">D</smallcap>-Galactopyranosyl-α-<smallcap>D</span>-glucopyranose;α-Lactose;α-<span class=\"text-smallcaps\">D</span>-Lactose",
    "duplicated_cas_no": "",
    "SMILES": "O([C@@H]1[C@@H](CO)O[C@H](O)[C@H](O)[C@H]1O)[C@@H]2O[C@H](CO)[C@H](O)[C@H](O)[C@H]2O",
    "meta_data": {
        "InChI": "InChI=1S/C12H22O11/c13-1-3-5(15)6(16)9(19)12(22-3)23-10-4(2-14)21-11(20)8(18)7(10)17/h3-20H,1-2H2/t3-,4-,5+,6+,7-,8-,9-,10-,11+,12+/m1/s1",
        "InChIKey": null,
        "Canonical SMILES": "OCC1OC(OC2C(O)C(O)C(O)OC2CO)C(O)C(O)C1O",
        "Molecular Formula": "C<sub>12</sub>H<sub>22</sub>O<sub>11</sub>",
        "Molecular Mass": "342.30",
        "Melting Point": "238 °C",
        "Density": "1.543 g/cm³ (powder)"
    }
}