{
    "cas_no": "14227-17-9",
    "key_name": "2,4,6-Trimethoxyaniline",
    "cn_name": null,
    "alternate_name": "Benzenamine, 2,4,6-trimethoxy-;Aniline, 2,4,6-trimethoxy-;2,4,6-Trimethoxybenzenamine;2,4,6-Trimethoxyaniline;2,4,6-Tris(methyloxy)aniline;2,4,6-Trimethoxyphenylamine",
    "duplicated_cas_no": "",
    "SMILES": "O(C)C1=C(N)C(OC)=CC(OC)=C1",
    "meta_data": {
        "InChI": "InChI=1S/C9H13NO3/c1-11-6-4-7(12-2)9(10)8(5-6)13-3/h4-5H,10H2,1-3H3",
        "InChIKey": null,
        "Canonical SMILES": "O(C=1C=C(OC)C(N)=C(OC)C1)C",
        "Molecular Formula": "C<sub>9</sub>H<sub>13</sub>NO<sub>3</sub>",
        "Molecular Mass": "183.20",
        "Boiling Point": "125-127 °C @ Press: 0.8 Torr",
        "Melting Point": "29-31 °C"
    }
}