{
    "cas_no": "53463-68-6",
    "key_name": "10-Bromo-1-decanol",
    "cn_name": "10-溴-1-癸醇;",
    "alternate_name": "1-Decanol, 10-bromo-;10-Bromo-1-decanol;10-Bromodecanol",
    "duplicated_cas_no": "",
    "SMILES": "C(CCCCCO)CCCCBr",
    "meta_data": {
        "InChI": "InChI=1S/C10H21BrO/c11-9-7-5-3-1-2-4-6-8-10-12/h12H,1-10H2",
        "InChIKey": null,
        "Canonical SMILES": "BrCCCCCCCCCCO",
        "Molecular Formula": "C<sub>10</sub>H<sub>21</sub>BrO",
        "Molecular Mass": "237.18",
        "Boiling Point": "166-169 °C @ Press: 10 Torr"
    }
}