{
    "cas_no": "2465-59-0",
    "key_name": "Oxypurinol",
    "cn_name": "奥昔嘌醇;氧嘌呤醇;氧嘌醇;4,6-二羟基吡唑啉[3,4-d]嘧啶;",
    "alternate_name": "1<em>H</em>-Pyrazolo[3,4-<em>d</em>]pyrimidine-4,6(5<em>H</em>,7<em>H</em>)-dione;4<em>H</em>-Pyrazolo[3,4-<em>d</em>]pyrimidine-4,6(5<em>H</em>)-dione, 1,7-dihydro-;Alloxanthine;Oxipurinol;Oxypurinol;4,6-Dihydroxypyrazolo[3,4-<em>d</em>]pyrimidine;Oxoallopurinol;1<em>H</em>-Pyrazolo[3,4-<em>d</em>]pyrimidin-4,6-diol;BW 55-5;1<em>H</em>,3<em>H</em>,9<em>H</em>-Alloxanthine;4,6-Dioxopyrazolo[3,4-<em>d</em>]pyrimidine;NSC 76239;Oxyprim;1<em>H</em>,4<em>H</em>,5<em>H</em>,6<em>H</em>,7<em>H</em>-Pyrazolo[3,4-<em>d</em>]pyrimidine-4,6-dione;MeSH ID: D010117",
    "duplicated_cas_no": "4318-51-8;16220-06-7;22767-93-7",
    "SMILES": "O=C1C2=C(NC(=O)N1)NN=C2",
    "meta_data": {
        "InChI": "InChI=1S/C5H4N4O2/c10-4-2-1-6-9-3(2)7-5(11)8-4/h1H,(H3,6,7,8,9,10,11)",
        "InChIKey": null,
        "Canonical SMILES": "O=C1NC(=O)C=2C=NNC2N1",
        "Molecular Formula": "C<sub>5</sub>H<sub>4</sub>N<sub>4</sub>O<sub>2</sub>",
        "Molecular Mass": "152.11",
        "Melting Point": "&gt;300 °C"
    }
}