{
    "cas_no": "74046-07-4",
    "key_name": "(<em>S</em>)-Vigabatrin",
    "cn_name": null,
    "alternate_name": "5-Hexenoic acid, 4-amino-, (4<em>S</em>)-;5-Hexenoic acid, 4-amino-, (<em>S</em>)-;(4<em>S</em>)-4-Amino-5-hexenoic acid;(+)-γ-Vinyl GABA;RMI 71890;<em>S</em>-(+)-Vigabatrin;(<em>S</em>)-Vigabatrin;4(<em>S</em>)-Amino-5-hexenoic acid;(<em>S</em>)-4-Amino-5-hexenoic acid;(<em>S</em>)-(+)-Gamma-vinyl-GABA;(4S)-4-Aminohex-5-enoic acid",
    "duplicated_cas_no": "",
    "SMILES": "[C@H](CCC(O)=O)(C=C)N",
    "meta_data": {
        "InChI": "InChI=1S/C6H11NO2/c1-2-5(7)3-4-6(8)9/h2,5H,1,3-4,7H2,(H,8,9)/t5-/m1/s1",
        "InChIKey": null,
        "Canonical SMILES": "O=C(O)CCC(N)C=C",
        "Molecular Formula": "C<sub>6</sub>H<sub>11</sub>NO<sub>2</sub>",
        "Molecular Mass": "129.16",
        "Melting Point": "162-165 °C"
    }
}