{
    "cas_no": "392-56-3",
    "key_name": "Hexafluorobenzene",
    "cn_name": "六氟苯;",
    "alternate_name": "Benzene, 1,2,3,4,5,6-hexafluoro-;Benzene, hexafluoro-;1,2,3,4,5,6-Hexafluorobenzene;Hexafluorobenzene;Perfluorobenzene;CP 28;NSC 21628",
    "duplicated_cas_no": "",
    "SMILES": "FC1=C(F)C(F)=C(F)C(F)=C1F",
    "meta_data": {
        "InChI": "InChI=1S/C6F6/c7-1-2(8)4(10)6(12)5(11)3(1)9",
        "InChIKey": null,
        "Canonical SMILES": "FC=1C(F)=C(F)C(F)=C(F)C1F",
        "Molecular Formula": "C<sub>6</sub>F<sub>6</sub>",
        "Molecular Mass": "186.05",
        "Boiling Point": "80.2 °C",
        "Melting Point": "5.3 °C",
        "Density": "1.612 g/cm³ @ Temp: 25 °C"
    }
}