{
    "cas_no": "1668-53-7",
    "key_name": "2-(2,4-Dihydroxyphenyl)-4,6-bis(2,4-dimethylphenyl)-1,3,5-triazine",
    "cn_name": "4-[4,6-二(2,4-二甲苯基)-1,3,5-三嗪-2-基]-1,3-苯二醇;",
    "alternate_name": "1,3-Benzenediol, 4-[4,6-bis(2,4-dimethylphenyl)-1,3,5-triazin-2-yl]-;Resorcinol, 4-(4,6-di-2,4-xylyl-<em>s</em>-triazin-2-yl)-;4-[4,6-Bis(2,4-dimethylphenyl)-1,3,5-triazin-2-yl]-1,3-benzenediol;2-(2,4-Dihydroxyphenyl)-4,6-bis(2,4-dimethylphenyl)-1,3,5-triazine;2-(2,4-Dihydroxyphenyl)-4,6-bis-(2,4-dimethylphenyl)-<em>s</em>-triazine;2-(2,4-Dihydroxyphenyl)-4,6-(2,4-dimethylphenyl)-1,3,5-triazine;2,6-Bis(2,4-dimethylphenyl)-4-(2,4-dihydroxyphenyl)-<em>s</em>-triazine;2-[4,6-Bis(2,4-dimethylphenyl)-1,3,5-triazin-2-yl]-5-hydroxyphenol;2,4-Di(2,4-dimethylphenyl)-6-(2,4-dihydroxyphenyl)-triazine",
    "duplicated_cas_no": "",
    "SMILES": "CC1=C(C=2N=C(N=C(N2)C3=C(O)C=C(O)C=C3)C4=C(C)C=C(C)C=C4)C=CC(C)=C1",
    "meta_data": {
        "InChI": "InChI=1S/C25H23N3O2/c1-14-5-8-19(16(3)11-14)23-26-24(20-9-6-15(2)12-17(20)4)28-25(27-23)21-10-7-18(29)13-22(21)30/h5-13,29-30H,1-4H3",
        "InChIKey": null,
        "Canonical SMILES": "OC=1C=CC(C=2N=C(N=C(N2)C=3C=CC(=CC3C)C)C=4C=CC(=CC4C)C)=C(O)C1",
        "Molecular Formula": "C<sub>25</sub>H<sub>23</sub>N<sub>3</sub>O<sub>2</sub>",
        "Molecular Mass": "397.47",
        "Melting Point": "197.5-198.5 °C"
    }
}