{
    "cas_no": "74115-12-1",
    "key_name": "5-Chloro-3-pyridinol",
    "cn_name": "5-氯-3-羟基吡啶;3-氯-5-羟基吡啶;",
    "alternate_name": "3-Pyridinol, 5-chloro-;5-Chloro-3-pyridinol;3-Hydroxy-5-chloropyridine;5-Chloro-3-hydroxypyridine;3-Chloro-5-hydroxypyridine;3-Chloropyridin-5-ol",
    "duplicated_cas_no": "",
    "SMILES": "ClC=1C=C(O)C=NC1",
    "meta_data": {
        "InChI": "InChI=1S/C5H4ClNO/c6-4-1-5(8)3-7-2-4/h1-3,8H",
        "InChIKey": null,
        "Canonical SMILES": "ClC1=CN=CC(O)=C1",
        "Molecular Formula": "C<sub>5</sub>H<sub>4</sub>ClNO",
        "Molecular Mass": "129.54",
        "Melting Point": "158 °C"
    }
}