{
    "cas_no": "50551-56-9",
    "key_name": "2-Benzofurancarboxylic acid, 5-methoxy-, ethyl ester",
    "cn_name": null,
    "alternate_name": "2-Benzofurancarboxylic acid, 5-methoxy-, ethyl ester;Ethyl 5-methoxycoumarilate;Ethyl 5-methoxybenzofuran-2-carboxylate;Ethyl 5-methoxy-1-benzofuran-2-carboxylate;5-Methoxybenzofuran-2-carboxylic acid ethyl ester",
    "duplicated_cas_no": "",
    "SMILES": "C(OCC)(=O)C1=CC=2C(O1)=CC=C(OC)C2",
    "meta_data": {
        "InChI": "InChI=1S/C12H12O4/c1-3-15-12(13)11-7-8-6-9(14-2)4-5-10(8)16-11/h4-7H,3H2,1-2H3",
        "InChIKey": null,
        "Canonical SMILES": "O=C(OCC)C=1OC=2C=CC(OC)=CC2C1",
        "Molecular Formula": "C<sub>12</sub>H<sub>12</sub>O<sub>4</sub>",
        "Molecular Mass": "220.22",
        "Melting Point": "62 °C"
    }
}