{
    "cas_no": "1121-47-7",
    "key_name": "Furfural oxime",
    "cn_name": null,
    "alternate_name": "2-Furancarboxaldehyde, oxime;2-Furaldehyde, oxime;α-Furfuraldoxime;Furfural oxime;α-Furfural oxime;2-Furfuraldoxime;2-Furaldoxime;Furfuryl oxime;Furfuraldoxime;2-Furanaldoxime;NSC 1919;NSC 49237",
    "duplicated_cas_no": "",
    "SMILES": "C(=NO)C1=CC=CO1",
    "meta_data": {
        "InChI": "InChI=1S/C5H5NO2/c7-6-4-5-2-1-3-8-5/h1-4,7H",
        "InChIKey": null,
        "Canonical SMILES": "ON=CC=1OC=CC1",
        "Molecular Formula": "C<sub>5</sub>H<sub>5</sub>NO<sub>2</sub>",
        "Molecular Mass": "111.10",
        "Boiling Point": "80-85 °C @ Press: 20 Torr",
        "Melting Point": "75-76 °C"
    }
}