{
    "cas_no": "1687-64-5",
    "key_name": "2-Ethyl-6-methylphenol",
    "cn_name": "2-乙基-6-甲基苯酚;",
    "alternate_name": "Phenol, 2-ethyl-6-methyl-;<em>o</em>-Cresol, 6-ethyl-;2-Ethyl-6-methylphenol;6-Ethyl-<em>o</em>-cresol;2-Methyl-6-ethylphenol;6-Methyl-2-ethylphenol",
    "duplicated_cas_no": "",
    "SMILES": "C(C)C1=C(O)C(C)=CC=C1",
    "meta_data": {
        "InChI": "InChI=1S/C9H12O/c1-3-8-6-4-5-7(2)9(8)10/h4-6,10H,3H2,1-2H3",
        "InChIKey": null,
        "Canonical SMILES": "OC=1C(=CC=CC1CC)C",
        "Molecular Formula": "C<sub>9</sub>H<sub>12</sub>O",
        "Molecular Mass": "136.19",
        "Boiling Point": "91-92 °C @ Press: 12 Torr",
        "Melting Point": "140-141 °C"
    }
}