{
    "cas_no": "29421-73-6",
    "key_name": "3,5-Dibromo-2-methylthiophene",
    "cn_name": "3,5-二溴-2-甲基噻吩;",
    "alternate_name": "Thiophene, 3,5-dibromo-2-methyl-;3,5-Dibromo-2-methylthiophene;2,4-Dibromo-5-methylthiophene",
    "duplicated_cas_no": "",
    "SMILES": "BrC1=C(C)SC(Br)=C1",
    "meta_data": {
        "InChI": "InChI=1S/C5H4Br2S/c1-3-4(6)2-5(7)8-3/h2H,1H3",
        "InChIKey": null,
        "Canonical SMILES": "BrC=1SC(=C(Br)C1)C",
        "Molecular Formula": "C<sub>5</sub>H<sub>4</sub>Br<sub>2</sub>S",
        "Molecular Mass": "255.96",
        "Boiling Point": "93 °C @ Press: 8 Torr"
    }
}