{
    "cas_no": "13450-92-5",
    "key_name": "Tetrabromogermane",
    "cn_name": "四溴化锗;",
    "alternate_name": "Germane, tetrabromo-;Germanium bromide (GeBr<sub>4</sub>);Germanium bromide;Tetrabromogermane;Germanium tetrabromide;Germanium tetraboride",
    "duplicated_cas_no": "",
    "SMILES": "[Ge](Br)(Br)(Br)Br",
    "meta_data": {
        "InChI": "InChI=1S/Br4Ge/c1-5(2,3)4",
        "InChIKey": null,
        "Canonical SMILES": "Br[Ge](Br)(Br)Br",
        "Molecular Formula": "Br<sub>4</sub>Ge",
        "Molecular Mass": "392.26",
        "Boiling Point": "186.5 °C",
        "Melting Point": "26.1 °C",
        "Density": "3.132 g/cm³ @ Temp: 25 °C"
    }
}