{
    "cas_no": "2867-59-6",
    "key_name": "3-Amino-1-butanol",
    "cn_name": null,
    "alternate_name": "1-Butanol, 3-amino-;3-Amino-1-butanol;3-Aminobutanol;2-Amino-4-hydroxybutane;3-Amino-3-methylpropan-1-ol",
    "duplicated_cas_no": "",
    "SMILES": "C(C(C)N)CO",
    "meta_data": {
        "InChI": "InChI=1S/C4H11NO/c1-4(5)2-3-6/h4,6H,2-3,5H2,1H3",
        "InChIKey": null,
        "Canonical SMILES": "OCCC(N)C",
        "Molecular Formula": "C<sub>4</sub>H<sub>11</sub>NO",
        "Molecular Mass": "89.14",
        "Boiling Point": "81-82 °C @ Press: 19 Torr",
        "Melting Point": "160 °C"
    }
}