{
    "cas_no": "58-85-5",
    "key_name": "Biotin",
    "cn_name": "D-生物素;维生素H;",
    "alternate_name": "1<em>H</em>-Thieno[3,4-<em>d</em>]imidazole-4-pentanoic acid, hexahydro-2-oxo-, (3a<em>S</em>,4<em>S</em>,6a<em>R</em>)-;Biotin;1<em>H</em>-Thieno[3,4-<em>d</em>]imidazole-4-pentanoic acid, hexahydro-2-oxo-, [3a<em>S</em>-(3aα,4β,6aα)]-;(3a<em>S</em>,4<em>S</em>,6a<em>R</em>)-Hexahydro-2-oxo-1<em>H</em>-thieno[3,4-<em>d</em>]imidazole-4-pentanoic acid;Bioepiderm;Coenzyme R;Factor S;(+)-<em>cis</em>-Hexahydro-2-oxo-1<em>H</em>-thieno[3,4]imidazole-4-valeric acid;<em>cis</em>-(+)-Tetrahydro-2-oxothieno[3,4]imidazoline-4-valeric acid;Vitamin H;Vitamin B<sub>7</sub>;<em>d</em>-Biotin;(+)-Biotin;Factor S (vitamin);<span class=\"text-smallcaps\">D</span>(+)-Biotin;Bios II;<span class=\"text-smallcaps\">D</span>-Biotin;Meribin;Rovimix H 2;Lutavit H<sub>2</sub>;Biodermatin;NSC 63865;Vitamin I;Medebiotin;5-((3a<em>S</em>,4<em>S</em>,6a<em>R</em>)-2-Oxohexahydro-1<em>H</em>-thieno[3,4-<em>d</em>]imidazol-4-yl)pentanoic acid;MD 1003;7: PN: KR2178813 SEQID: 7 claimed sequence;MeSH ID: D001710",
    "duplicated_cas_no": "3672-05-7;15720-24-8;22879-79-4;58073-87-3",
    "SMILES": "C(CCCC(O)=O)[C@H]1[C@@]2([C@@](NC(=O)N2)(CS1)[H])[H]",
    "meta_data": {
        "InChI": "InChI=1S/C10H16N2O3S/c13-8(14)4-2-1-3-7-9-6(5-16-7)11-10(15)12-9/h6-7,9H,1-5H2,(H,13,14)(H2,11,12,15)/t6-,7-,9-/m0/s1",
        "InChIKey": null,
        "Canonical SMILES": "O=C1NC2CSC(CCCCC(=O)O)C2N1",
        "Molecular Formula": "C<sub>10</sub>H<sub>16</sub>N<sub>2</sub>O<sub>3</sub>S",
        "Molecular Mass": "244.31",
        "Melting Point": "232 °C (decomp)",
        "Density": "1.42 g/cm³"
    }
}