{
    "cas_no": "67859-75-0",
    "key_name": "Diethoxymethyloctadecylsilane",
    "cn_name": "甲基十八烷基二乙氧基硅烷;",
    "alternate_name": "Silane, diethoxymethyloctadecyl-;Diethoxymethyloctadecylsilane;Octadecyldiethoxymethylsilane;Methyloctadecyldiethoxysilane;SIO 6627.0",
    "duplicated_cas_no": "",
    "SMILES": "[Si](CCCCCCCCCCCCCCCCCC)(OCC)(OCC)C",
    "meta_data": {
        "InChI": "InChI=1S/C23H50O2Si/c1-5-8-9-10-11-12-13-14-15-16-17-18-19-20-21-22-23-26(4,24-6-2)25-7-3/h5-23H2,1-4H3",
        "InChIKey": null,
        "Canonical SMILES": "O(CC)[Si](OCC)(C)CCCCCCCCCCCCCCCCCC",
        "Molecular Formula": "C<sub>23</sub>H<sub>50</sub>O<sub>2</sub>Si",
        "Molecular Mass": "386.73",
        "Boiling Point": "197 °C @ Press: 2 Torr",
        "Density": "0.852 g/cm³"
    }
}