{
    "cas_no": "367-80-6",
    "key_name": "Ethyl 4-fluoro-3-nitrobenzoate",
    "cn_name": "4-氟-3-硝基苯甲酸乙酯;",
    "alternate_name": "Benzoic acid, 4-fluoro-3-nitro-, ethyl ester;Ethyl 4-fluoro-3-nitrobenzoate;4-Fluoro-3-nitrobenzoic acid ethyl ester",
    "duplicated_cas_no": "",
    "SMILES": "N(=O)(=O)C1=CC(C(OCC)=O)=CC=C1F",
    "meta_data": {
        "InChI": "InChI=1S/C9H8FNO4/c1-2-15-9(12)6-3-4-7(10)8(5-6)11(13)14/h3-5H,2H2,1H3",
        "InChIKey": null,
        "Canonical SMILES": "O=C(OCC)C1=CC=C(F)C(=C1)N(=O)=O",
        "Molecular Formula": "C<sub>9</sub>H<sub>8</sub>FNO<sub>4</sub>",
        "Molecular Mass": "213.16",
        "Melting Point": "45.3 °C"
    }
}