{
    "cas_no": "10257-28-0",
    "key_name": "<span class=\"text-smallcaps\">D</span>-Galactopyranose",
    "cn_name": null,
    "alternate_name": "<span class=\"text-smallcaps\">D</span>-Galactopyranose;Galactopyranose, <span class=\"text-smallcaps\">D</span>-;NSC 8102",
    "duplicated_cas_no": "",
    "SMILES": "C(O)[C@@H]1[C@H](O)[C@H](O)[C@@H](O)C(O)O1",
    "meta_data": {
        "InChI": "InChI=1S/C6H12O6/c7-1-2-3(8)4(9)5(10)6(11)12-2/h2-11H,1H2/t2-,3+,4+,5-,6?/m1/s1",
        "InChIKey": null,
        "Canonical SMILES": "OCC1OC(O)C(O)C(O)C1O",
        "Molecular Formula": "C<sub>6</sub>H<sub>12</sub>O<sub>6</sub>",
        "Molecular Mass": "180.16",
        "Melting Point": "165 °C"
    }
}