{
    "cas_no": "586-75-4",
    "key_name": "4-Bromobenzoyl chloride",
    "cn_name": "4-溴苯甲酰氯;对溴苯甲酰氯;",
    "alternate_name": "Benzoyl chloride, 4-bromo-;Benzoyl chloride, <em>p</em>-bromo-;4-Bromobenzoyl chloride;<em>p</em>-Bromobenzoyl chloride;4-Bromo-1-benzenecarbonyl chloride;NSC 7091",
    "duplicated_cas_no": "1350454-34-0",
    "SMILES": "C(Cl)(=O)C1=CC=C(Br)C=C1",
    "meta_data": {
        "InChI": "InChI=1S/C7H4BrClO/c8-6-3-1-5(2-4-6)7(9)10/h1-4H",
        "InChIKey": null,
        "Canonical SMILES": "O=C(Cl)C1=CC=C(Br)C=C1",
        "Molecular Formula": "C<sub>7</sub>H<sub>4</sub>BrClO",
        "Molecular Mass": "219.46",
        "Boiling Point": "246 °C",
        "Melting Point": "42 °C"
    }
}