{
    "cas_no": "25100-12-3",
    "key_name": "Cyclohexanamine, <em>N</em>-hydroxy-, hydrochloride (1:1)",
    "cn_name": "N-环己基羟基胺盐酸盐;",
    "alternate_name": "Cyclohexanamine, <em>N</em>-hydroxy-, hydrochloride (1:1);Hydroxylamine, <em>N</em>-cyclohexyl-, hydrochloride;Cyclohexanamine, <em>N</em>-hydroxy-, hydrochloride;<em>N</em>-Cyclohexylhydroxylamine hydrochloride;Cyclohexylhydroxylammonium chloride;Cyclohexylhydroxyamine hydrochloride;<em>N</em>-Hydroxycyclohexanamine hydrochloride;Cyclohexylhydroxylamine hydrochloride",
    "duplicated_cas_no": "72762-44-8",
    "SMILES": "N(O)C1CCCCC1.Cl",
    "meta_data": {
        "InChI": "InChI=1S/C6H13NO.ClH/c8-7-6-4-2-1-3-5-6;/h6-8H,1-5H2;1H",
        "InChIKey": null,
        "Canonical SMILES": "Cl.ONC1CCCCC1",
        "Molecular Formula": "C<sub>6</sub>H<sub>13</sub>NO.ClH",
        "Molecular Mass": "",
        "Melting Point": "142 °C"
    }
}