{
    "cas_no": "13078-80-3",
    "key_name": "2-(2-Chlorophenyl)ethylamine",
    "cn_name": "2-氯苯乙胺;邻氯苯乙胺;",
    "alternate_name": "Benzeneethanamine, 2-chloro-;Phenethylamine, <em>o</em>-chloro-;2-Chlorobenzeneethanamine;<em>o</em>-Chlorophenethylamine;<em>o</em>-Chlorophenylethylamine;2-(2-Chlorophenyl)ethylamine;2-Chlorophenethylamine;2-(2-Aminoethyl)chlorobenzene;2-(2-Chlorophenyl)ethanamine;2-(2-Chlorophenyl)ethan-1-amine",
    "duplicated_cas_no": "",
    "SMILES": "C(CN)C1=C(Cl)C=CC=C1",
    "meta_data": {
        "InChI": "InChI=1S/C8H10ClN/c9-8-4-2-1-3-7(8)5-6-10/h1-4H,5-6,10H2",
        "InChIKey": null,
        "Canonical SMILES": "ClC=1C=CC=CC1CCN",
        "Molecular Formula": "C<sub>8</sub>H<sub>10</sub>ClN",
        "Molecular Mass": "155.62",
        "Boiling Point": "128 °C @ Press: 23-26 Torr",
        "Melting Point": "145 °C"
    }
}