{
    "cas_no": "2257-35-4",
    "key_name": "2,3,3-Trichloro-2-propenoic acid",
    "cn_name": "三氯丙烯酸;三氯丙烯酸;",
    "alternate_name": "2-Propenoic acid, 2,3,3-trichloro-;Acrylic acid, trichloro-;2,3,3-Trichloro-2-propenoic acid;Perchlorovinylic acid;Trichloroacrylic acid;2,3,3-Trichloroacrylic acid",
    "duplicated_cas_no": "",
    "SMILES": "C(=C(Cl)Cl)(C(O)=O)Cl",
    "meta_data": {
        "InChI": "InChI=1S/C3HCl3O2/c4-1(2(5)6)3(7)8/h(H,7,8)",
        "InChIKey": null,
        "Canonical SMILES": "O=C(O)C(Cl)=C(Cl)Cl",
        "Molecular Formula": "C<sub>3</sub>HCl<sub>3</sub>O<sub>2</sub>",
        "Molecular Mass": "175.40",
        "Boiling Point": "222 °C",
        "Melting Point": "76 °C"
    }
}