{
    "cas_no": "40258-78-4",
    "key_name": "Ethanol, 1-bromo-, 1-acetate",
    "cn_name": "1-溴乙基乙酸酯;",
    "alternate_name": "Ethanol, 1-bromo-, 1-acetate;Ethanol, 1-bromo-, acetate;1-Bromoethyl acetate;α-Bromoethyl acetate;1-Acetoxyethyl bromide;(<em>RS</em>)-1-Acetoxyethyl bromide",
    "duplicated_cas_no": "70091-16-6",
    "SMILES": "O(C(Br)C)C(C)=O",
    "meta_data": {
        "InChI": "InChI=1S/C4H7BrO2/c1-3(5)7-4(2)6/h3H,1-2H3",
        "InChIKey": null,
        "Canonical SMILES": "O=C(OC(Br)C)C",
        "Molecular Formula": "C<sub>4</sub>H<sub>7</sub>BrO<sub>2</sub>",
        "Molecular Mass": "167.00",
        "Boiling Point": "122-125 °C @ Press: 738 Torr"
    }
}