{
    "cas_no": "16298-03-6",
    "key_name": "2-Pyrazinecarboxylic acid, 3-amino-, methyl ester",
    "cn_name": "3-氨基吡嗪-2-羧酸甲酯;",
    "alternate_name": "2-Pyrazinecarboxylic acid, 3-amino-, methyl ester;Pyrazinecarboxylic acid, 3-amino-, methyl ester;Pyrazinoic acid, 3-amino-, methyl ester;2-Amino-3-(methoxycarbonyl)pyrazine;Methyl 3-aminopyrazinecarboxylate;Methyl 3-aminopyrazine-2-carboxylate;3-Aminopyrazine-2-carboxylic acid methyl ester;Methyl 2-aminopyrazine-3-carboxylate;NSC 123649",
    "duplicated_cas_no": "",
    "SMILES": "C(OC)(=O)C=1C(N)=NC=CN1",
    "meta_data": {
        "InChI": "InChI=1S/C6H7N3O2/c1-11-6(10)4-5(7)9-3-2-8-4/h2-3H,1H3,(H2,7,9)",
        "InChIKey": null,
        "Canonical SMILES": "O=C(OC)C1=NC=CN=C1N",
        "Molecular Formula": "C<sub>6</sub>H<sub>7</sub>N<sub>3</sub>O<sub>2</sub>",
        "Molecular Mass": "153.14",
        "Melting Point": "172 °C"
    }
}