{
    "cas_no": "212118-77-9",
    "key_name": "FlAsH",
    "cn_name": null,
    "alternate_name": "Spiro[isobenzofuran-1(3<em>H</em>),9′-[9<em>H</em>]xanthen]-3-one, 4′,5′-bis(1,3,2-dithiarsolan-2-yl)-3′,6′-dihydroxy-;4′,5′-Bis(1,3,2-dithiarsolan-2-yl)-3′,6′-dihydroxyspiro[isobenzofuran-1(3<em>H</em>),9′-[9<em>H</em>]xanthen]-3-one;Fluorescein arsenical helix binder;FlAsH-EDT<sub>2</sub>;Lumio Green;FlAsH",
    "duplicated_cas_no": "960314-82-3",
    "SMILES": "O=C1OC2(C=3C(=C(C(O)=CC3)[As]4SCCS4)OC=5C2=CC=C(O)C5[As]6SCCS6)C=7C1=CC=CC7",
    "meta_data": {
        "InChI": "InChI=1S/C24H18As2O5S4/c27-17-7-5-15-21(19(17)25-32-9-10-33-25)30-22-16(6-8-18(28)20(22)26-34-11-12-35-26)24(15)14-4-2-1-3-13(14)23(29)31-24/h1-8,27-28H,9-12H2",
        "InChIKey": null,
        "Canonical SMILES": "O=C1OC2(C3=CC=C(O)C(=C3OC=4C2=CC=C(O)C4[As]5SCCS5)[As]6SCCS6)C=7C=CC=CC17",
        "Molecular Formula": "C<sub>24</sub>H<sub>18</sub>As<sub>2</sub>O<sub>5</sub>S<sub>4</sub>",
        "Molecular Mass": "664.50",
        "Melting Point": "115-116 °C"
    }
}