{
    "cas_no": "13324-11-3",
    "key_name": "Benzoic acid, 2-chloro-4-nitro-, methyl ester",
    "cn_name": "2-氯-4-硝基苯甲酸甲酯;",
    "alternate_name": "Benzoic acid, 2-chloro-4-nitro-, methyl ester;Methyl 2-chloro-4-nitrobenzoate;2-Chloro-4-nitrobenzoic acid methyl ester;4-nitro-2-chlorobenzoic acid methyl ester",
    "duplicated_cas_no": "",
    "SMILES": "C(OC)(=O)C1=C(Cl)C=C(N(=O)=O)C=C1",
    "meta_data": {
        "InChI": "InChI=1S/C8H6ClNO4/c1-14-8(11)6-3-2-5(10(12)13)4-7(6)9/h2-4H,1H3",
        "InChIKey": null,
        "Canonical SMILES": "O=C(OC)C1=CC=C(C=C1Cl)N(=O)=O",
        "Molecular Formula": "C<sub>8</sub>H<sub>6</sub>ClNO<sub>4</sub>",
        "Molecular Mass": "215.59",
        "Melting Point": "75.5-76.7 °C"
    }
}