{
    "cas_no": "2583-25-7",
    "key_name": "2-(2-Propen-1-yl)propanedioic acid",
    "cn_name": "烯丙基丙二酸;",
    "alternate_name": "Propanedioic acid, 2-(2-propen-1-yl)-;Malonic acid, allyl-;Propanedioic acid, 2-propenyl-;2-(2-Propen-1-yl)propanedioic acid;3-Butene-1,1-dicarboxylic acid;Allylmalonic acid;NSC 46718;2-Allylmalonic acid",
    "duplicated_cas_no": "",
    "SMILES": "C(CC=C)(C(O)=O)C(O)=O",
    "meta_data": {
        "InChI": "InChI=1S/C6H8O4/c1-2-3-4(5(7)8)6(9)10/h2,4H,1,3H2,(H,7,8)(H,9,10)",
        "InChIKey": null,
        "Canonical SMILES": "O=C(O)C(C(=O)O)CC=C",
        "Molecular Formula": "C<sub>6</sub>H<sub>8</sub>O<sub>4</sub>",
        "Molecular Mass": "144.13",
        "Melting Point": "105 °C"
    }
}