{
    "cas_no": "1918-79-2",
    "key_name": "5-Methyl-2-thiophenecarboxylic acid",
    "cn_name": "5-甲基-2-噻吩甲酸;",
    "alternate_name": "2-Thiophenecarboxylic acid, 5-methyl-;5-Methyl-2-thiophenecarboxylic acid;2-Carboxy-5-methylthiophene;2-Methyl-5-thiophenecarboxylic acid;NSC 89698",
    "duplicated_cas_no": "",
    "SMILES": "C(O)(=O)C=1SC(C)=CC1",
    "meta_data": {
        "InChI": "InChI=1S/C6H6O2S/c1-4-2-3-5(9-4)6(7)8/h2-3H,1H3,(H,7,8)",
        "InChIKey": null,
        "Canonical SMILES": "O=C(O)C=1SC(=CC1)C",
        "Molecular Formula": "C<sub>6</sub>H<sub>6</sub>O<sub>2</sub>S",
        "Molecular Mass": "142.18",
        "Melting Point": "138-139 °C"
    }
}