{
    "cas_no": "51146-55-5",
    "key_name": "Hydroxyibuprofen",
    "cn_name": null,
    "alternate_name": "Benzeneacetic acid, 4-(2-hydroxy-2-methylpropyl)-α-methyl-;4-(2-Hydroxy-2-methylpropyl)-α-methylbenzeneacetic acid;2-[4-(2-Hydroxy-2-methylpropyl)phenyl]propionic acid;2,4′-(2-Hydroxy-2-methylpropyl)phenylpropionic acid;Hydroxyibuprofen;Ibuprofen OH;2-[4-(2-Hydroxy-2-methylpropyl)phenyl]propanoic acid;2-Hydroxyibuprofen",
    "duplicated_cas_no": "87038-86-6",
    "SMILES": "C(C(C)(C)O)C1=CC=C(C(C(O)=O)C)C=C1",
    "meta_data": {
        "InChI": "InChI=1S/C13H18O3/c1-9(12(14)15)11-6-4-10(5-7-11)8-13(2,3)16/h4-7,9,16H,8H2,1-3H3,(H,14,15)",
        "InChIKey": null,
        "Canonical SMILES": "O=C(O)C(C1=CC=C(C=C1)CC(O)(C)C)C",
        "Molecular Formula": "C<sub>13</sub>H<sub>18</sub>O<sub>3</sub>",
        "Molecular Mass": "222.28",
        "Melting Point": "120-122 °C"
    }
}