{
    "cas_no": "17306-46-6",
    "key_name": "Rhoifolin",
    "cn_name": "野漆树苷;",
    "alternate_name": "4<em>H</em>-1-Benzopyran-4-one, 7-[[2-<em>O</em>-(6-deoxy-α-<span class=\"text-smallcaps\">L</smallcap>-mannopyranosyl)-β-<smallcap>D</span>-glucopyranosyl]oxy]-5-hydroxy-2-(4-hydroxyphenyl)-;Rhoifolin;Neohesperidoside, apigenin-7, β-;7-[[2-<em>O</em>-(6-Deoxy-α-<span class=\"text-smallcaps\">L</smallcap>-mannopyranosyl)-β-<smallcap>D</span>-glucopyranosyl]oxy]-5-hydroxy-2-(4-hydroxyphenyl)-4<em>H</em>-1-benzopyran-4-one;Rhoifoloside;Apigenin 7-neohesperidoside;Apigenin 7-<em>O</em>-neohesperidoside;Apigenin 7-<em>O</em>-β-neohesperidoside;Apigenin 7-<em>O</em>-β-<span class=\"text-smallcaps\">D</span>-neohesperidoside;Rhiofolin;Rhiofolen",
    "duplicated_cas_no": "11054-47-0;31870-87-8;51888-94-9;231286-30-9",
    "SMILES": "O=C1C=2C(OC(=C1)C3=CC=C(O)C=C3)=CC(O[C@H]4[C@H](O[C@H]5[C@H](O)[C@H](O)[C@@H](O)[C@H](C)O5)[C@@H](O)[C@H](O)[C@@H](CO)O4)=CC2O",
    "meta_data": {
        "InChI": "InChI=1S/C27H30O14/c1-10-20(32)22(34)24(36)26(37-10)41-25-23(35)21(33)18(9-28)40-27(25)38-13-6-14(30)19-15(31)8-16(39-17(19)7-13)11-2-4-12(29)5-3-11/h2-8,10,18,20-30,32-36H,9H2,1H3/t10-,18+,20-,21+,22+,23-,24+,25+,26-,27+/m0/s1",
        "InChIKey": null,
        "Canonical SMILES": "O=C1C=C(OC2=CC(OC3OC(CO)C(O)C(O)C3OC4OC(C)C(O)C(O)C4O)=CC(O)=C12)C=5C=CC(O)=CC5",
        "Molecular Formula": "C<sub>27</sub>H<sub>30</sub>O<sub>14</sub>",
        "Molecular Mass": "578.52",
        "Melting Point": "250-265 °C"
    }
}