{
    "cas_no": "14362-31-3",
    "key_name": "Chlorcyclizine hydrochloride",
    "cn_name": null,
    "alternate_name": "Piperazine, 1-[(4-chlorophenyl)phenylmethyl]-4-methyl-, hydrochloride (1:1);Piperazine, 1-(<em>p</em>-chloro-α-phenylbenzyl)-4-methyl-, monohydrochloride;Piperazine, 1-[(4-chlorophenyl)phenylmethyl]-4-methyl-, monohydrochloride;Histantin;Chlorcyclizine hydrochloride;Perazil;Di-Paralene;Chlorcyclizine chloride;Chlorcyclizine monohydrochloride;NSC 169496;1-((4-Chlorophenyl)(phenyl)methyl)-4-methylpiperazine hydrochloride",
    "duplicated_cas_no": "",
    "SMILES": "C(C1=CC=C(Cl)C=C1)(N2CCN(C)CC2)C3=CC=CC=C3.Cl",
    "meta_data": {
        "InChI": "InChI=1S/C18H21ClN2.ClH/c1-20-11-13-21(14-12-20)18(15-5-3-2-4-6-15)16-7-9-17(19)10-8-16;/h2-10,18H,11-14H2,1H3;1H",
        "InChIKey": null,
        "Canonical SMILES": "Cl.ClC1=CC=C(C=C1)C(C=2C=CC=CC2)N3CCN(C)CC3",
        "Molecular Formula": "C<sub>18</sub>H<sub>21</sub>ClN<sub>2</sub>.ClH",
        "Molecular Mass": "",
        "Melting Point": "226-227 °C"
    }
}