{
    "cas_no": "6998-60-3",
    "key_name": "Rifamycin",
    "cn_name": null,
    "alternate_name": "Rifamycin;Rifomycin SV;2,7-(Epoxypentadeca[1,11,13]trienimino)naphtho[2,1-<em>b</em>]furan-1,11(2<em>H</em>)-dione, 5,6,9,17,19,21-hexahydroxy-23-methoxy-2,4,12,16,18,20,22-heptamethyl-, 21-acetate;2,7-(Epoxypentadeca[1,11,13]trienimino)naphtho[2,1-<em>b</em>]furan, rifamycin deriv.;Rifamycin SV;Rifocin;Rifomycin;[2<em>S</em>-(2<em>R</em>*,12<em>Z</em>,14<em>E</em>,16<em>R</em>*,17<em>R</em>*,18<em>S</em>*,19<em>S</em>*,20<em>S</em>*,21<em>R</em>*,22<em>S</em>*,23<em>R</em>*,24<em>E</em>)]-21-(Acetyloxy)-5,6,9,17,19-pentahydroxy-23-methoxy-2,4,12,16,18,20,22-heptamethyl-2,7-(epoxypentadeca[1,11,13]trienimino)naphtho[2,1-<em>b</em>]furan-1,11(2<em>H</em>)-dione;NSC 133100;(2<em>S</em>,12<em>Z</em>,14<em>E</em>,16<em>S</em>,17<em>S</em>,18<em>R</em>,19<em>R</em>,20<em>R</em>,21<em>S</em>,22<em>R</em>,23<em>S</em>,24<em>E</em>)-21-(Acetyloxy)-5,6,9,17,19-pentahydroxy-23-methoxy-2,4,12,16,18,20,22-heptamethyl-2,7-(epoxypentadeca[1,11,13]trienimino)naphtho[2,1-<em>b</em>]furan-1,11(2<em>H</em>)-dione;2,7-(Epoxypentadeca[1,11,13]trienimino)naphtho[2,1-<em>b</em>]furan-1,11(2<em>H</em>)-dione, 21-(acetyloxy)-5,6,9,17,19-pentahydroxy-23-methoxy-2,4,12,16,18,20,22-heptamethyl-, (2<em>S</em>,12<em>Z</em>,14<em>E</em>,16<em>S</em>,17<em>S</em>,18<em>R</em>,19<em>R</em>,20<em>R</em>,21<em>S</em>,22<em>R</em>,23<em>S</em>,24<em>E</em>)-;Riphogal;Rifogal;Rifamicine SV;Rifampin SV;Rifocine;Rifamycin SV MMX",
    "duplicated_cas_no": "1404-54-2",
    "SMILES": "",
    "meta_data": {
        "InChI": "",
        "InChIKey": null,
        "Canonical SMILES": "",
        "Molecular Formula": "C<sub>37</sub>H<sub>47</sub>NO<sub>12</sub>",
        "Molecular Mass": "697.77",
        "Melting Point": "300 °C"
    }
}