{
    "cas_no": "376-18-1",
    "key_name": "2,2,3,3,4,4,5,5,6,6,7,7,8,8,9,9-Hexadecafluoro-1-nonanol",
    "cn_name": "1H,1H,9H-十六氟-1-壬醇;",
    "alternate_name": "1-Nonanol, 2,2,3,3,4,4,5,5,6,6,7,7,8,8,9,9-hexadecafluoro-;2,2,3,3,4,4,5,5,6,6,7,7,8,8,9,9-Hexadecafluoro-1-nonanol;α,α,ω-Trihydro-perfluorononyl alcohol;1<em>H</em>,1<em>H</em>,9<em>H</em>-Hexadecafluoro-1-hydroxynonane;1<em>H</em>,1<em>H</em>,9<em>H</em>-Hexadecafluoro-1-nonanol;α,α,ω-Trihydroperfluorononanol;Hexadecylfluorononyl alcohol;2,2,3,3,4,4,5,5,6,6,7,7,8,8,9,9-Hexadecafluorononanol;NSC 5597;A 5810;2,2,3,3,4,4,5,5,6,6,7,7,8,8,9,9-Hexadecafluorononan-1-ol;1,1,9-Trihydroperfluorononanol;1<em>H</em>,1<em>H</em>,9<em>H</em>-Perfluorononyl alcohol;1,1,9-Trihydroperfluorononanol-1",
    "duplicated_cas_no": "",
    "SMILES": "C(C(C(C(C(F)F)(F)F)(F)F)(F)F)(C(C(C(CO)(F)F)(F)F)(F)F)(F)F",
    "meta_data": {
        "InChI": "InChI=1S/C9H4F16O/c10-2(11)4(14,15)6(18,19)8(22,23)9(24,25)7(20,21)5(16,17)3(12,13)1-26/h2,26H,1H2",
        "InChIKey": null,
        "Canonical SMILES": "FC(F)C(F)(F)C(F)(F)C(F)(F)C(F)(F)C(F)(F)C(F)(F)C(F)(F)CO",
        "Molecular Formula": "C<sub>9</sub>H<sub>4</sub>F<sub>16</sub>O",
        "Molecular Mass": "432.10",
        "Boiling Point": "156-158 °C @ Press: 194 Torr",
        "Melting Point": "66 °C"
    }
}