{
    "cas_no": "4146-24-1",
    "key_name": "6-Chloro-2-methylbenzothiazole",
    "cn_name": null,
    "alternate_name": "Benzothiazole, 6-chloro-2-methyl-;6-Chloro-2-methylbenzothiazole;2-Methyl-6-chlorobenzothiazole",
    "duplicated_cas_no": "",
    "SMILES": "CC1=NC=2C(S1)=CC(Cl)=CC2",
    "meta_data": {
        "InChI": "InChI=1S/C8H6ClNS/c1-5-10-7-3-2-6(9)4-8(7)11-5/h2-4H,1H3",
        "InChIKey": null,
        "Canonical SMILES": "ClC=1C=CC=2N=C(SC2C1)C",
        "Molecular Formula": "C<sub>8</sub>H<sub>6</sub>ClNS",
        "Molecular Mass": "183.66",
        "Melting Point": "81 °C"
    }
}