{
    "cas_no": "15362-40-0",
    "key_name": "1-(2,6-Dichlorophenyl)indolin-2-one",
    "cn_name": "1-(2,6-二氯苯基)-1,3-二氢-2H-吲哚-2-酮;",
    "alternate_name": "2<em>H</em>-Indol-2-one, 1-(2,6-dichlorophenyl)-1,3-dihydro-;2-Indolinone, 1-(2,6-dichlorophenyl)-;1-(2,6-Dichlorophenyl)-1,3-dihydro-2<em>H</em>-indol-2-one;1-(2,6-Dichlorophenyl)-2-indolinone;1-(2,6-Dichlorophenyl)oxindole;<em>N</em>-(2,6-Dichlorophenyl)-2-indolinone;NSC 621845;1-[2,6-Dichlorophenyl]-1,3-dihydroindol-2-one;1-(2,6-Dichlorophenyl)indolin-2-one;Diclofenac-lactam",
    "duplicated_cas_no": "1510807-29-0",
    "SMILES": "O=C1N(C=2C(C1)=CC=CC2)C3=C(Cl)C=CC=C3Cl",
    "meta_data": {
        "InChI": "InChI=1S/C14H9Cl2NO/c15-10-5-3-6-11(16)14(10)17-12-7-2-1-4-9(12)8-13(17)18/h1-7H,8H2",
        "InChIKey": null,
        "Canonical SMILES": "O=C1N(C=2C=CC=CC2C1)C=3C(Cl)=CC=CC3Cl",
        "Molecular Formula": "C<sub>14</sub>H<sub>9</sub>Cl<sub>2</sub>NO",
        "Molecular Mass": "278.13",
        "Melting Point": "128 °C"
    }
}