{
    "cas_no": "4164-39-0",
    "key_name": "1,4-Piperazinedicarboxaldehyde",
    "cn_name": null,
    "alternate_name": "1,4-Piperazinedicarboxaldehyde;<em>N</em>,<em>N</em>′-Diformylpiperazine;1,4-Diformylpiperazine;NSC 506922",
    "duplicated_cas_no": "",
    "SMILES": "C(=O)N1CCN(C=O)CC1",
    "meta_data": {
        "InChI": "InChI=1S/C6H10N2O2/c9-5-7-1-2-8(6-10)4-3-7/h5-6H,1-4H2",
        "InChIKey": null,
        "Canonical SMILES": "O=CN1CCN(C=O)CC1",
        "Molecular Formula": "C<sub>6</sub>H<sub>10</sub>N<sub>2</sub>O<sub>2</sub>",
        "Molecular Mass": "142.16",
        "Boiling Point": "167-170 °C @ Press: 1 Torr",
        "Melting Point": "128-129 °C"
    }
}