{
    "cas_no": "519032-08-7",
    "key_name": "Methyl 1,6-dihydro-5-hydroxy-2-[1-methyl-1-[[(phenylmethoxy)carbonyl]amino]ethyl]-6-oxo-4-pyrimidinecarboxylate",
    "cn_name": null,
    "alternate_name": "4-Pyrimidinecarboxylic acid, 1,6-dihydro-5-hydroxy-2-[1-methyl-1-[[(phenylmethoxy)carbonyl]amino]ethyl]-6-oxo-, methyl ester;Methyl 1,6-dihydro-5-hydroxy-2-[1-methyl-1-[[(phenylmethoxy)carbonyl]amino]ethyl]-6-oxo-4-pyrimidinecarboxylate;methyl 2-[1-[[(benzyloxy)carbonyl]amino]-1-methylethyl]-5,6-dihydroxypyrimidine-4-carboxylate;2-(1-Benzyloxycarbonylamino-1-methylethyl)-5,6-dihydroxypyrimidine-4-carboxylic acid methyl ester;Methyl 2-[1-[(benzyloxy)carbonyl]amino]-1-(1-methylethyl)-5,6-dihydroxypyrimidine-4-carboxylate",
    "duplicated_cas_no": "518047-99-9",
    "SMILES": "C(NC(OCC1=CC=CC=C1)=O)(C)(C)C=2NC(C(OC)=O)=C(O)C(=O)N2",
    "meta_data": {
        "InChI": "InChI=1S/C17H19N3O6/c1-17(2,20-16(24)26-9-10-7-5-4-6-8-10)15-18-11(14(23)25-3)12(21)13(22)19-15/h4-8,21H,9H2,1-3H3,(H,20,24)(H,18,19,22)",
        "InChIKey": null,
        "Canonical SMILES": "O=C1N=C(NC(C(=O)OC)=C1O)C(NC(=O)OCC=2C=CC=CC2)(C)C",
        "Molecular Formula": "C<sub>17</sub>H<sub>19</sub>N<sub>3</sub>O<sub>6</sub>",
        "Molecular Mass": "361.35",
        "Melting Point": "186.3-187.0 °C"
    }
}