{
    "cas_no": "17864-93-6",
    "key_name": "4-[2-(Dichloromethylsilyl)ethyl]cyclohexene",
    "cn_name": "2-(4-环己烯基)乙基甲基二氯硅烷;",
    "alternate_name": "Cyclohexene, 4-[2-(dichloromethylsilyl)ethyl]-;Silane, dichloro[2-(3-cyclohexen-1-yl)ethyl]methyl-;4-[2-(Dichloromethylsilyl)ethyl]cyclohexene;2-(3-Cyclohexenyl)ethylmethyldichlorosilane",
    "duplicated_cas_no": "",
    "SMILES": "C(C[Si](C)(Cl)Cl)C1CCC=CC1",
    "meta_data": {
        "InChI": "InChI=1S/C9H16Cl2Si/c1-12(10,11)8-7-9-5-3-2-4-6-9/h2-3,9H,4-8H2,1H3",
        "InChIKey": null,
        "Canonical SMILES": "Cl[Si](Cl)(C)CCC1CC=CCC1",
        "Molecular Formula": "C<sub>9</sub>H<sub>16</sub>Cl<sub>2</sub>Si",
        "Molecular Mass": "223.21",
        "Boiling Point": "79-81 °C @ Press: 2 Torr",
        "Density": "1.077 g/cm³"
    }
}