{
    "cas_no": "177171-16-3",
    "key_name": "3-(Trimethylsilyl)phenylboronic acid",
    "cn_name": "3-(三甲基硅烷基)苯硼酸;",
    "alternate_name": "Boronic acid, <em>B</em>-[3-(trimethylsilyl)phenyl]-;Boronic acid, [3-(trimethylsilyl)phenyl]-;<em>B</em>-[3-(Trimethylsilyl)phenyl]boronic acid;3-(Trimethylsilyl)phenylboronic acid;<em>m</em>-(Trimethylsilyl)phenylboronic acid",
    "duplicated_cas_no": "",
    "SMILES": "[Si](C)(C)(C)C1=CC(B(O)O)=CC=C1",
    "meta_data": {
        "InChI": "InChI=1S/C9H15BO2Si/c1-13(2,3)9-6-4-5-8(7-9)10(11)12/h4-7,11-12H,1-3H3",
        "InChIKey": null,
        "Canonical SMILES": "OB(O)C1=CC=CC(=C1)[Si](C)(C)C",
        "Molecular Formula": "C<sub>9</sub>H<sub>15</sub>BO<sub>2</sub>Si",
        "Molecular Mass": "194.11",
        "Melting Point": "138-140 °C"
    }
}