{
    "cas_no": "13005-11-3",
    "key_name": "1-Methyl-3-pyrrolidinemethanamine",
    "cn_name": null,
    "alternate_name": "3-Pyrrolidinemethanamine, 1-methyl-;Pyrrolidine, 3-(aminomethyl)-1-methyl-;1-Methyl-3-pyrrolidinemethanamine;3-(Aminomethyl)-1-methylpyrrolidine;1-(1-Methylpyrrolidin-3-yl)methanamine;(1-Methylpyrrolidin-3-yl)methanamine",
    "duplicated_cas_no": "99445-25-7",
    "SMILES": "C(N)C1CN(C)CC1",
    "meta_data": {
        "InChI": "InChI=1S/C6H14N2/c1-8-3-2-6(4-7)5-8/h6H,2-5,7H2,1H3",
        "InChIKey": null,
        "Canonical SMILES": "NCC1CN(C)CC1",
        "Molecular Formula": "C<sub>6</sub>H<sub>14</sub>N<sub>2</sub>",
        "Molecular Mass": "114.19",
        "Boiling Point": "72-76 °C @ Press: 0.3 Torr"
    }
}