{
    "cas_no": "63480-11-5",
    "key_name": "7-Methyl-2<em>H</em>-3,1-benzoxazine-2,4(1<em>H</em>)-dione",
    "cn_name": null,
    "alternate_name": "2<em>H</em>-3,1-Benzoxazine-2,4(1<em>H</em>)-dione, 7-methyl-;Isatoic anhydride, 4-methyl-;7-Methyl-2<em>H</em>-3,1-benzoxazine-2,4(1<em>H</em>)-dione;4-Methylisatoic anhydride",
    "duplicated_cas_no": "",
    "SMILES": "O=C1C=2C(NC(=O)O1)=CC(C)=CC2",
    "meta_data": {
        "InChI": "InChI=1S/C9H7NO3/c1-5-2-3-6-7(4-5)10-9(12)13-8(6)11/h2-4H,1H3,(H,10,12)",
        "InChIKey": null,
        "Canonical SMILES": "O=C1OC(=O)C2=CC=C(C=C2N1)C",
        "Molecular Formula": "C<sub>9</sub>H<sub>7</sub>NO<sub>3</sub>",
        "Molecular Mass": "177.16",
        "Melting Point": "228 °C (decomp)"
    }
}