{
    "cas_no": "79-97-0",
    "key_name": "Bisphenol C",
    "cn_name": "4,4\"-(1-甲基亚乙基)双(2-甲基苯酚);2,2-双(4-羟基-3-甲基苯基)丙烷;",
    "alternate_name": "Phenol, 4,4′-(1-methylethylidene)bis[2-methyl-;<em>o</em>-Cresol, 4,4′-isopropylidenedi-;4,4′-(1-Methylethylidene)bis[2-methylphenol];Bisphenol C;4,4′-Isopropylidenedi-<em>o</em>-cresol;2,2-Bis(4-hydroxy-3-methylphenyl)propane;Nonox DCP;3,3′-Dimethyldian;2,2-Bis(3-methyl-4-hydroxyphenyl)propane;4,4′-Isopropylidenebis[2-methylphenol];4,4′-Dihydroxy-3,3′-dimethyldiphenyl-2,2-propane;Dicresylolpropane;3,3′-Dimethylbisphenol A;Bis-<em>o</em>-cresol A;3,3′-Dimethyl-4,4′-dihydroxydiphenyl-2,2-propane;2,2′-Dimethyl-4,4′-isopropylidenebisphenol;2,2′-(4-Hydroxy-3-methylphenyl)propane;NSC 408489;B 1567",
    "duplicated_cas_no": "33935-87-4;1195181-97-5;2115792-72-6;2460074-37-5",
    "SMILES": "C(C)(C)(C1=CC(C)=C(O)C=C1)C2=CC(C)=C(O)C=C2",
    "meta_data": {
        "InChI": "InChI=1S/C17H20O2/c1-11-9-13(5-7-15(11)18)17(3,4)14-6-8-16(19)12(2)10-14/h5-10,18-19H,1-4H3",
        "InChIKey": null,
        "Canonical SMILES": "OC1=CC=C(C=C1C)C(C2=CC=C(O)C(=C2)C)(C)C",
        "Molecular Formula": "C<sub>17</sub>H<sub>20</sub>O<sub>2</sub>",
        "Molecular Mass": "256.34",
        "Melting Point": "136 °C"
    }
}