{
    "cas_no": "57339-57-8",
    "key_name": "6-Bromo-8-quinolinamine",
    "cn_name": null,
    "alternate_name": "8-Quinolinamine, 6-bromo-;Quinoline, 8-amino-6-bromo-;6-Bromo-8-quinolinamine;6-Bromo-8-aminoquinoline;8-Amino-6-bromoquinoline",
    "duplicated_cas_no": "",
    "SMILES": "NC=1C2=C(C=C(Br)C1)C=CC=N2",
    "meta_data": {
        "InChI": "InChI=1S/C9H7BrN2/c10-7-4-6-2-1-3-12-9(6)8(11)5-7/h1-5H,11H2",
        "InChIKey": null,
        "Canonical SMILES": "BrC1=CC(N)=C2N=CC=CC2=C1",
        "Molecular Formula": "C<sub>9</sub>H<sub>7</sub>BrN<sub>2</sub>",
        "Molecular Mass": "223.07",
        "Melting Point": "78 °C"
    }
}