{
    "cas_no": "99-93-4",
    "key_name": "4′-Hydroxyacetophenone",
    "cn_name": "对羟基苯乙酮;4\"-羟基苯乙酮;",
    "alternate_name": "Ethanone, 1-(4-hydroxyphenyl)-;Acetophenone, 4′-hydroxy-;Acetophenone, <em>p</em>-hydroxy-;1-(4-Hydroxyphenyl)ethanone;4-Acetylphenol;Piceol;Methyl <em>p</em>-hydroxyphenyl ketone;<em>p</em>-Hydroxyacetophenone;<em>p</em>-Hydroxyphenyl methyl ketone;<em>p</em>-Acetylphenol;4′-Hydroxyacetophenone;4-Hydroxyphenyl methyl ketone;<em>p</em>-Acetophenol;1-(4-Hydroxyphenyl)-1-ethanone;Methyl 4-hydroxyphenyl ketone;4-Acetophenol;4-Hydroxyphenylethanone;NSC 3698;4-Hydroxyacetopenone;Symsave H;Symsave",
    "duplicated_cas_no": "",
    "SMILES": "C(C)(=O)C1=CC=C(O)C=C1",
    "meta_data": {
        "InChI": "InChI=1S/C8H8O2/c1-6(9)7-2-4-8(10)5-3-7/h2-5,10H,1H3",
        "InChIKey": null,
        "Canonical SMILES": "O=C(C1=CC=C(O)C=C1)C",
        "Molecular Formula": "C<sub>8</sub>H<sub>8</sub>O<sub>2</sub>",
        "Molecular Mass": "136.15",
        "Boiling Point": "147-148 °C",
        "Melting Point": "109.5 °C",
        "Density": "1.247 g/cm³ @ Temp: 24.9 °C"
    }
}