{
    "cas_no": "4880-88-0",
    "key_name": "(-)-Eburnamonine",
    "cn_name": null,
    "alternate_name": "Eburnamenin-14(15<em>H</em>)-one, (3α,16α)-;Vincamone;1<em>H</em>-Indolo[3,2,1-<em>de</em>]pyrido[3,2,1-<em>ij</em>][1,5]naphthyridine, eburnamenin-14(15<em>H</em>)-one deriv.;(3α,16α)-Eburnamenin-14(15<em>H</em>)-one;(3α,16α)-Eburnamonine;(-)-Eburnamonine;(-)-Vincamone;<em>l</em>-Eburnamonine;<em>cis</em>-Vincamone;(-)-<em>cis</em>-Eburnamonine;Eburnal Ritardo;Vinburnine;16-Oxoeburnane;Cervoxan;CH 846",
    "duplicated_cas_no": "13090-13-6;412037-03-7",
    "SMILES": "C(C)[C@]12[C@]3(C=4N(C=5C(C4CCN3CCC1)=CC=CC5)C(=O)C2)[H]",
    "meta_data": {
        "InChI": "InChI=1S/C19H22N2O/c1-2-19-9-5-10-20-11-8-14-13-6-3-4-7-15(13)21(16(22)12-19)17(14)18(19)20/h3-4,6-7,18H,2,5,8-12H2,1H3/t18-,19+/m1/s1",
        "InChIKey": null,
        "Canonical SMILES": "O=C1N2C=3C=CC=CC3C4=C2C5N(CC4)CCCC5(C1)CC",
        "Molecular Formula": "C<sub>19</sub>H<sub>22</sub>N<sub>2</sub>O",
        "Molecular Mass": "294.39",
        "Melting Point": "168-170 °C"
    }
}