{
    "cas_no": "121-88-0",
    "key_name": "2-Amino-5-nitrophenol",
    "cn_name": "2-氨基-5-硝基苯酚;",
    "alternate_name": "Phenol, 2-amino-5-nitro-;2-Amino-5-nitrophenol;C.I. 76535;5-Nitro-2-aminophenol;Ursol Yellow Brown A;2-Hydroxy-4-nitroaniline;5-Nitro-2-amino-1-hydroxybenzene;3-Hydroxy-4-aminonitrobenzene;3-Nitro-6-aminophenol;NSC 7087",
    "duplicated_cas_no": "",
    "SMILES": "N(=O)(=O)C1=CC(O)=C(N)C=C1",
    "meta_data": {
        "InChI": "InChI=1S/C6H6N2O3/c7-5-2-1-4(8(10)11)3-6(5)9/h1-3,9H,7H2",
        "InChIKey": null,
        "Canonical SMILES": "O=N(=O)C1=CC=C(N)C(O)=C1",
        "Molecular Formula": "C<sub>6</sub>H<sub>6</sub>N<sub>2</sub>O<sub>3</sub>",
        "Molecular Mass": "154.12",
        "Melting Point": "207-208 °C"
    }
}