{
    "cas_no": "6286-30-2",
    "key_name": "2,3-Dibromo-3-phenylpropanoic acid",
    "cn_name": "α,β-二溴苯基丙醛酸;",
    "alternate_name": "Benzenepropanoic acid, α,β-dibromo-;Hydrocinnamic acid, α,β-dibromo-;α,β-Dibromobenzenepropanoic acid;α,β-Dibromohydrocinnamic acid;2,3-Dibromo-3-phenylpropanoic acid;α,β-Dibromo-β-phenylpropionic acid;NSC 10049;2,3-Dibromo-3-phenyl-propionic acid;2,3-Dibromo-3-phenylpropionic acid",
    "duplicated_cas_no": "",
    "SMILES": "C(C(C(O)=O)Br)(Br)C1=CC=CC=C1",
    "meta_data": {
        "InChI": "InChI=1S/C9H8Br2O2/c10-7(8(11)9(12)13)6-4-2-1-3-5-6/h1-5,7-8H,(H,12,13)",
        "InChIKey": null,
        "Canonical SMILES": "O=C(O)C(Br)C(Br)C=1C=CC=CC1",
        "Molecular Formula": "C<sub>9</sub>H<sub>8</sub>Br<sub>2</sub>O<sub>2</sub>",
        "Molecular Mass": "307.97",
        "Melting Point": "204 °C"
    }
}