{
    "cas_no": "68227-51-0",
    "key_name": "2-Methyl-5-oxo-1-cyclopenten-1-yl butanoate",
    "cn_name": null,
    "alternate_name": "Butanoic acid, 2-methyl-5-oxo-1-cyclopenten-1-yl ester;Butyric acid, 2-methyl-5-oxo-1-cyclopenten-1-yl ester;2-Methyl-5-oxo-1-cyclopenten-1-yl butanoate;Cyclotene butyrate;2-Methyl-5-oxocyclopent-1-en-1-yl butanoate;2-Methyl-5-oxocyclopent-1-en-1-yl butyrate",
    "duplicated_cas_no": "",
    "SMILES": "O(C(CCC)=O)C1=C(C)CCC1=O",
    "meta_data": {
        "InChI": "InChI=1S/C10H14O3/c1-3-4-9(12)13-10-7(2)5-6-8(10)11/h3-6H2,1-2H3",
        "InChIKey": null,
        "Canonical SMILES": "O=C(OC=1C(=O)CCC1C)CCC",
        "Molecular Formula": "C<sub>10</sub>H<sub>14</sub>O<sub>3</sub>",
        "Molecular Mass": "182.22",
        "Boiling Point": "82.5-85 °C @ Press: 0.1 Torr"
    }
}