{
    "cas_no": "1193-56-2",
    "key_name": "5-Chloro-6-hydroxy-4(3<em>H</em>)-pyrimidinone",
    "cn_name": null,
    "alternate_name": "4(3<em>H</em>)-Pyrimidinone, 5-chloro-6-hydroxy-;4(1<em>H</em>)-Pyrimidinone, 5-chloro-6-hydroxy-;4,6-Pyrimidinediol, 5-chloro-;5-Chloro-6-hydroxy-4(3<em>H</em>)-pyrimidinone;NSC 42601",
    "duplicated_cas_no": "2125-81-7",
    "SMILES": "ClC=1C(=O)NC=NC1O",
    "meta_data": {
        "InChI": "InChI=1S/C4H3ClN2O2/c5-2-3(8)6-1-7-4(2)9/h1H,(H2,6,7,8,9)",
        "InChIKey": null,
        "Canonical SMILES": "O=C1NC=NC(O)=C1Cl",
        "Molecular Formula": "C<sub>4</sub>H<sub>3</sub>ClN<sub>2</sub>O<sub>2</sub>",
        "Molecular Mass": "146.53",
        "Melting Point": "260 °C"
    }
}