{
    "cas_no": "175137-09-4",
    "key_name": "6-(4-Chlorophenyl)-2,4-pyrimidinediamine",
    "cn_name": null,
    "alternate_name": "2,4-Pyrimidinediamine, 6-(4-chlorophenyl)-;Pyrimidine, 2,4-diamino-6-(<em>p</em>-chlorophenyl)-;6-(4-Chlorophenyl)-2,4-pyrimidinediamine;2,4-Diamino-6-(4-chlorophenyl)pyrimidine",
    "duplicated_cas_no": "",
    "SMILES": "NC1=CC(=NC(N)=N1)C2=CC=C(Cl)C=C2",
    "meta_data": {
        "InChI": "InChI=1S/C10H9ClN4/c11-7-3-1-6(2-4-7)8-5-9(12)15-10(13)14-8/h1-5H,(H4,12,13,14,15)",
        "InChIKey": null,
        "Canonical SMILES": "ClC=1C=CC(=CC1)C=2N=C(N=C(N)C2)N",
        "Molecular Formula": "C<sub>10</sub>H<sub>9</sub>ClN<sub>4</sub>",
        "Molecular Mass": "220.66",
        "Melting Point": "162-163 °C"
    }
}