{
    "cas_no": "92-83-1",
    "key_name": "Xanthene",
    "cn_name": "氧杂蒽;",
    "alternate_name": "9<em>H</em>-Xanthene;Xanthene;10<em>H</em>-9-Oxaanthracene;9-Oxa-9,10-dihydroanthracene;NSC 46931",
    "duplicated_cas_no": "",
    "SMILES": "C1=2C(OC=3C(C1)=CC=CC3)=CC=CC2",
    "meta_data": {
        "InChI": "InChI=1S/C13H10O/c1-3-7-12-10(5-1)9-11-6-2-4-8-13(11)14-12/h1-8H,9H2",
        "InChIKey": null,
        "Canonical SMILES": "O1C=2C=CC=CC2CC=3C=CC=CC13",
        "Molecular Formula": "C<sub>13</sub>H<sub>10</sub>O",
        "Molecular Mass": "182.22",
        "Boiling Point": "311 °C",
        "Melting Point": "100.5 °C"
    }
}