{
    "cas_no": "28657-80-9",
    "key_name": "Cinoxacin",
    "cn_name": "西诺沙星;",
    "alternate_name": "[1,3]Dioxolo[4,5-<em>g</em>]cinnoline-3-carboxylic acid, 1-ethyl-1,4-dihydro-4-oxo-;1-Ethyl-1,4-dihydro-4-oxo[1,3]dioxolo[4,5-<em>g</em>]cinnoline-3-carboxylic acid;Compound 64716;Cinoxacin;Cinobac;1-Ethyl-3-carboxy-6,7-methylenedioxy-4-cinnolone;Uronorm;Noxigram;NSC 304467;Cinobactin;1-Ethyl-4-oxo-1<em>H</em>,4<em>H</em>,7<em>H</em>-[1,3]dioxolo[4,5-<em>g</em>]cinnoline-3-carboxylic acid;1-Ethyl-4-oxo-1,4-dihydro-[1,3]dioxolo[4,5-<em>g</em>]cinnoline-3-carboxylic acid;MeSH ID: D002937",
    "duplicated_cas_no": "",
    "SMILES": "C(C)N1C2=C(C=C3C(=C2)OCO3)C(=O)C(C(O)=O)=N1",
    "meta_data": {
        "InChI": "InChI=1S/C12H10N2O5/c1-2-14-7-4-9-8(18-5-19-9)3-6(7)11(15)10(13-14)12(16)17/h3-4H,2,5H2,1H3,(H,16,17)",
        "InChIKey": null,
        "Canonical SMILES": "O=C(O)C1=NN(C2=CC=3OCOC3C=C2C1=O)CC",
        "Molecular Formula": "C<sub>12</sub>H<sub>10</sub>N<sub>2</sub>O<sub>5</sub>",
        "Molecular Mass": "262.22",
        "Melting Point": "261 °C (decomp)"
    }
}