{
    "cas_no": "4593-90-2",
    "key_name": "3-Phenylbutyric acid",
    "cn_name": "3-苯基丁酸;",
    "alternate_name": "Benzenepropanoic acid, β-methyl-;Hydrocinnamic acid, β-methyl-;β-Methylbenzenepropanoic acid;β-Methylhydrocinnamic acid;3-Phenylbutanoic acid;β-Phenylbutyric acid;3-Phenylbutyric acid;(±)-β-Phenylbutyric acid;(±)-3-Phenylbutyric acid;(<em>RS</em>)-3-Phenylbutanoic acid;NSC 177801;NSC 67346",
    "duplicated_cas_no": "772-17-8",
    "SMILES": "C(CC(O)=O)(C)C1=CC=CC=C1",
    "meta_data": {
        "InChI": "InChI=1S/C10H12O2/c1-8(7-10(11)12)9-5-3-2-4-6-9/h2-6,8H,7H2,1H3,(H,11,12)",
        "InChIKey": null,
        "Canonical SMILES": "O=C(O)CC(C=1C=CC=CC1)C",
        "Molecular Formula": "C<sub>10</sub>H<sub>12</sub>O<sub>2</sub>",
        "Molecular Mass": "164.20",
        "Boiling Point": "172-710 °C",
        "Melting Point": "37-39 °C",
        "Density": "1.067 g/cm³ @ Temp: 16.2 °C"
    }
}