{
    "cas_no": "22414-24-0",
    "key_name": "2,5-Dihydro-2,5-dimethoxy-2-methylfuran",
    "cn_name": "2,5-二氢-2,5-二甲氧基-2-甲基呋喃;",
    "alternate_name": "Furan, 2,5-dihydro-2,5-dimethoxy-2-methyl-;2,5-Dihydro-2,5-dimethoxy-2-methylfuran;2-Methyl-2,5-dimethoxy-2,5-dihydrofuran;2,5-Dimethoxy-2-methyl-2,5-dihydrofuran",
    "duplicated_cas_no": "",
    "SMILES": "O(C)C1(C)OC(OC)C=C1",
    "meta_data": {
        "InChI": "InChI=1S/C7H12O3/c1-7(9-3)5-4-6(8-2)10-7/h4-6H,1-3H3",
        "InChIKey": null,
        "Canonical SMILES": "O(C)C1OC(OC)(C=C1)C",
        "Molecular Formula": "C<sub>7</sub>H<sub>12</sub>O<sub>3</sub>",
        "Molecular Mass": "144.17",
        "Boiling Point": "152 °C"
    }
}