{
    "cas_no": "456-56-4",
    "key_name": "[(Trifluoromethyl)thio]benzene",
    "cn_name": "三氟甲基苯硫醚;",
    "alternate_name": "Benzene, [(trifluoromethyl)thio]-;Sulfide, phenyl trifluoromethyl;[(Trifluoromethyl)thio]benzene;Phenyl trifluoromethyl sulfide;Trifluoromethyl phenyl thioether;Phenyl trifluoromethyl thioether",
    "duplicated_cas_no": "",
    "SMILES": "S(C(F)(F)F)C1=CC=CC=C1",
    "meta_data": {
        "InChI": "InChI=1S/C7H5F3S/c8-7(9,10)11-6-4-2-1-3-5-6/h1-5H",
        "InChIKey": null,
        "Canonical SMILES": "FC(F)(F)SC=1C=CC=CC1",
        "Molecular Formula": "C<sub>7</sub>H<sub>5</sub>F<sub>3</sub>S",
        "Molecular Mass": "178.17",
        "Boiling Point": "140-142 °C"
    }
}