{
    "cas_no": "352-34-1",
    "key_name": "1-Fluoro-4-iodobenzene",
    "cn_name": "对氟碘苯;1-氟-4-碘代苯;",
    "alternate_name": "Benzene, 1-fluoro-4-iodo-;1-Fluoro-4-iodobenzene;<em>p</em>-Fluoroiodobenzene;<em>p</em>-Iodofluorobenzene;4-Iodofluorobenzene;4-Fluoroiodobenzene;<em>p</em>-Fluorophenyl iodide;4-Fluorophenyl iodide;4-Fluoro-1-iodobenzene;NSC 10280;NSC 4662;1-Iodo-4-fluorobenzene;4-Iodo-1-fluorobenzene",
    "duplicated_cas_no": "",
    "SMILES": "FC1=CC=C(I)C=C1",
    "meta_data": {
        "InChI": "InChI=1S/C6H4FI/c7-5-1-3-6(8)4-2-5/h1-4H",
        "InChIKey": null,
        "Canonical SMILES": "FC1=CC=C(I)C=C1",
        "Molecular Formula": "C<sub>6</sub>H<sub>4</sub>FI",
        "Molecular Mass": "222.00",
        "Boiling Point": "183 °C",
        "Melting Point": "-27 °C",
        "Density": "1.9001 g/cm³ @ Temp: 25.00 °C"
    }
}