{
    "cas_no": "2001-96-9",
    "key_name": "<em>p</em>-Nitrophenyl β-<span class=\"text-smallcaps\">D</span>-xylopyranoside",
    "cn_name": "对硝基苯基-β-D-木糖苷;",
    "alternate_name": "β-<span class=\"text-smallcaps\">D</span>-Xylopyranoside, 4-nitrophenyl;Xylopyranoside, <em>p</em>-nitrophenyl, β-<span class=\"text-smallcaps\">D</span>-;Xylopyranoside, <em>p</em>-nitrophenyl;4-Nitrophenyl β-<span class=\"text-smallcaps\">D</span>-xylopyranoside;<em>p</em>-Nitrophenyl β-xylopyranoside;<em>p</em>-Nitrophenyl β-<span class=\"text-smallcaps\">D</span>-xylopyranoside;<em>p</em>-Nitrophenyl β-<span class=\"text-smallcaps\">D</span>-xyloside;<em>p</em>-Nitrophenol β-<span class=\"text-smallcaps\">D</span>-xyloside;NSC 371094",
    "duplicated_cas_no": "41721-77-1",
    "SMILES": "O([C@H]1[C@H](O)[C@@H](O)[C@H](O)CO1)C2=CC=C(N(=O)=O)C=C2",
    "meta_data": {
        "InChI": "InChI=1S/C11H13NO7/c13-8-5-18-11(10(15)9(8)14)19-7-3-1-6(2-4-7)12(16)17/h1-4,8-11,13-15H,5H2/t8-,9+,10-,11+/m1/s1",
        "InChIKey": null,
        "Canonical SMILES": "O=N(=O)C1=CC=C(OC2OCC(O)C(O)C2O)C=C1",
        "Molecular Formula": "C<sub>11</sub>H<sub>13</sub>NO<sub>7</sub>",
        "Molecular Mass": "271.22",
        "Melting Point": "159-161 °C"
    }
}