{
    "cas_no": "56-55-3",
    "key_name": "Benzanthracene",
    "cn_name": null,
    "alternate_name": "Benz[<em>a</em>]anthracene;Benzanthrene;Benzo[<em>a</em>]anthracene;Benzo[<em>b</em>]phenanthrene;2,3-Benzophenanthrene;Tetraphene;1,2-Benzanthracene;1,2-Benz[<em>a</em>]anthracene;Benzanthracene;1,2-Benzanthrene;1,2-Benzoanthracene;Benzoanthracene;NSC 30970;Benz(a)anthracenes;Anthracenes, benz(a)anthracenes;MeSH ID: D001551",
    "duplicated_cas_no": "",
    "SMILES": "C12=C3C(=CC=C1C=C4C(=C2)C=CC=C4)C=CC=C3",
    "meta_data": {
        "InChI": "InChI=1S/C18H12/c1-2-7-15-12-18-16(11-14(15)6-1)10-9-13-5-3-4-8-17(13)18/h1-12H",
        "InChIKey": null,
        "Canonical SMILES": "C=1C=CC=2C=C3C(C=CC=4C=CC=CC43)=CC2C1",
        "Molecular Formula": "C<sub>18</sub>H<sub>12</sub>",
        "Molecular Mass": "228.29",
        "Boiling Point": "437.6 °C",
        "Melting Point": "160 °C",
        "Density": "1.274 g/cm³"
    }
}