{
    "cas_no": "41248-23-1",
    "key_name": "Cyclopentanecarboxylic acid, 1-hydroxy-, ethyl ester",
    "cn_name": null,
    "alternate_name": "Cyclopentanecarboxylic acid, 1-hydroxy-, ethyl ester;Ethyl 1-hydroxycyclopentanecarboxylate",
    "duplicated_cas_no": "",
    "SMILES": "C(OCC)(=O)C1(O)CCCC1",
    "meta_data": {
        "InChI": "InChI=1S/C8H14O3/c1-2-11-7(9)8(10)5-3-4-6-8/h10H,2-6H2,1H3",
        "InChIKey": null,
        "Canonical SMILES": "O=C(OCC)C1(O)CCCC1",
        "Molecular Formula": "C<sub>8</sub>H<sub>14</sub>O<sub>3</sub>",
        "Molecular Mass": "158.20",
        "Boiling Point": "83.5-84.5 °C @ Press: 12 Torr"
    }
}