{
    "cas_no": "355-80-6",
    "key_name": "2,2,3,3,4,4,5,5-Octafluoro-1-pentanol",
    "cn_name": "2,2,3,3,4,4,5,5-八氟-1-戊醇;八氟戊醇;",
    "alternate_name": "1-Pentanol, 2,2,3,3,4,4,5,5-octafluoro-;2,2,3,3,4,4,5,5-Octafluoro-1-pentanol;1<em>H</em>,1<em>H</em>,5<em>H</em>-Octafluoro-1-pentanol;2,2,3,3,4,4,5,5-Octafluoropentanol;1,1,5-Trihydrooctafluoropentan-1-ol;1,1,5-Trihydrooctafluoropentyl alcohol;α,α,ω-Trihydroperfluoropentanol;1<em>H</em>,1<em>H</em>,5<em>H</em>-Octafluoro-<em>n</em>-pentanol;NSC 114;1,1,5-Trihydro-1-hydroxyperfluoropentane;1,1,5-Trihydroperfluoropentanol;1<em>H</em>,1<em>H</em>,5<em>H</em>-Perfluoropentanol;1<em>H</em>,1<em>H</em>,5<em>H</em>-Perfluoro-1-pentanol;1,1,5-Trihydroperfluoropentan-1-ol;1,1,2,2,3,3,4,4-Octafluoropentan-5-ol",
    "duplicated_cas_no": "855832-03-0",
    "SMILES": "C(C(C(F)F)(F)F)(C(CO)(F)F)(F)F",
    "meta_data": {
        "InChI": "InChI=1S/C5H4F8O/c6-2(7)4(10,11)5(12,13)3(8,9)1-14/h2,14H,1H2",
        "InChIKey": null,
        "Canonical SMILES": "FC(F)C(F)(F)C(F)(F)C(F)(F)CO",
        "Molecular Formula": "C<sub>5</sub>H<sub>4</sub>F<sub>8</sub>O",
        "Molecular Mass": "232.07",
        "Boiling Point": "140.5 °C",
        "Melting Point": "-65 °C",
        "Density": "1.667 g/cm³ @ Temp: 20 °C"
    }
}