{
    "cas_no": "2051-98-1",
    "key_name": "5-Bromoacenaphthene",
    "cn_name": "5-溴苊;",
    "alternate_name": "Acenaphthylene, 5-bromo-1,2-dihydro-;Acenaphthene, 5-bromo-;5-Bromo-1,2-dihydroacenaphthylene;5-Bromoacenaphthene;NSC 59823",
    "duplicated_cas_no": "",
    "SMILES": "BrC1=C2C3=C(CCC3=CC=C2)C=C1",
    "meta_data": {
        "InChI": "InChI=1S/C12H9Br/c13-11-7-6-9-5-4-8-2-1-3-10(11)12(8)9/h1-3,6-7H,4-5H2",
        "InChIKey": null,
        "Canonical SMILES": "BrC1=CC=C2C=3C1=CC=CC3CC2",
        "Molecular Formula": "C<sub>12</sub>H<sub>9</sub>Br",
        "Molecular Mass": "233.10",
        "Boiling Point": "335 °C",
        "Melting Point": "52 °C"
    }
}