{
    "cas_no": "6134-56-1",
    "key_name": "6-Bromo-1,2,3,4-tetrahydronaphthalene",
    "cn_name": null,
    "alternate_name": "Naphthalene, 6-bromo-1,2,3,4-tetrahydro-;6-Bromo-1,2,3,4-tetrahydronaphthalene;6-Bromotetralin;NSC 174090;2-Bromo-5,6,7,8-tetrahydronaphthalene",
    "duplicated_cas_no": "",
    "SMILES": "BrC=1C=C2C(=CC1)CCCC2",
    "meta_data": {
        "InChI": "InChI=1S/C10H11Br/c11-10-6-5-8-3-1-2-4-9(8)7-10/h5-7H,1-4H2",
        "InChIKey": null,
        "Canonical SMILES": "BrC1=CC=C2C(=C1)CCCC2",
        "Molecular Formula": "C<sub>10</sub>H<sub>11</sub>Br",
        "Molecular Mass": "211.10",
        "Boiling Point": "241 °C @ Press: 760 Torr"
    }
}