{
    "cas_no": "58579-51-4",
    "key_name": "Anagrelide hydrochloride",
    "cn_name": "盐酸阿那格雷;6,7-二氯-1,5-二氢咪唑并[2,1-b]喹唑啉-2(3H)-酮盐酸盐;",
    "alternate_name": "Imidazo[2,1-<em>b</em>]quinazolin-2(3<em>H</em>)-one, 6,7-dichloro-1,5-dihydro-, hydrochloride (1:1);Imidazo[2,1-<em>b</em>]quinazolin-2(3<em>H</em>)-one, 6,7-dichloro-1,5-dihydro-, monohydrochloride;BL 4162A;Anagrelide hydrochloride;Agrelin;BMY 26538-01;Agrylin;6,7-Dichloro-1,5-dihydroimidazo[2,1-<em>b</em>]quinazolin-2(3<em>H</em>)-one Hydrochloride",
    "duplicated_cas_no": "",
    "SMILES": "ClC1=C2C(NC=3N(C2)CC(=O)N3)=CC=C1Cl.Cl",
    "meta_data": {
        "InChI": "InChI=1S/C10H7Cl2N3O.ClH/c11-6-1-2-7-5(9(6)12)3-15-4-8(16)14-10(15)13-7;/h1-2H,3-4H2,(H,13,14,16);1H",
        "InChIKey": null,
        "Canonical SMILES": "Cl.O=C1N=C2NC3=CC=C(Cl)C(Cl)=C3CN2C1",
        "Molecular Formula": "C<sub>10</sub>H<sub>7</sub>Cl<sub>2</sub>N<sub>3</sub>O.ClH",
        "Molecular Mass": "",
        "Melting Point": "&gt;280 °C"
    }
}