{
    "cas_no": "181632-25-7",
    "key_name": "6-Chloro-2,3-dihydro-5-methyl-<em>N</em>-[6-[(2-methyl-3-pyridinyl)oxy]-3-pyridinyl]-1<em>H</em>-indole-1-carboxamide",
    "cn_name": null,
    "alternate_name": "1<em>H</em>-Indole-1-carboxamide, 6-chloro-2,3-dihydro-5-methyl-<em>N</em>-[6-[(2-methyl-3-pyridinyl)oxy]-3-pyridinyl]-;6-Chloro-2,3-dihydro-5-methyl-<em>N</em>-[6-[(2-methyl-3-pyridinyl)oxy]-3-pyridinyl]-1<em>H</em>-indole-1-carboxamide;SB 242084",
    "duplicated_cas_no": "",
    "SMILES": "C(NC=1C=CC(OC2=C(C)N=CC=C2)=NC1)(=O)N3C=4C(CC3)=CC(C)=C(Cl)C4",
    "meta_data": {
        "InChI": "InChI=1S/C21H19ClN4O2/c1-13-10-15-7-9-26(18(15)11-17(13)22)21(27)25-16-5-6-20(24-12-16)28-19-4-3-8-23-14(19)2/h3-6,8,10-12H,7,9H2,1-2H3,(H,25,27)",
        "InChIKey": null,
        "Canonical SMILES": "O=C(NC1=CN=C(OC2=CC=CN=C2C)C=C1)N3C4=CC(Cl)=C(C=C4CC3)C",
        "Molecular Formula": "C<sub>21</sub>H<sub>19</sub>ClN<sub>4</sub>O<sub>2</sub>",
        "Molecular Mass": "394.85",
        "Melting Point": "181-183 °C"
    }
}