{
    "cas_no": "83-40-9",
    "key_name": "3-Methylsalicylic acid",
    "cn_name": "3-甲基水杨酸;3-甲基-2-羟基苯甲酸;2-羟基-3-甲基苯甲酸;邻甲基水杨酸;",
    "alternate_name": "Benzoic acid, 2-hydroxy-3-methyl-;2,3-Cresotic acid;2-Hydroxy-3-methylbenzoic acid;3-MS;<em>o</em>-Cresotic acid;<em>o</em>-Cresotinic acid;β-Cresotinic acid;<em>o</em>-Homosalicylic acid;2-Hydroxy-<em>m</em>-toluic acid;3-Methylsalicylic acid;2,3-Cresotinic acid;3-Methyl-2-hydroxybenzoic acid;Cresotinic acid;Cresotic acid;Hydroxytoluic acid;NSC 17561;NSC 1772;NSC 50796",
    "duplicated_cas_no": "",
    "SMILES": "C(O)(=O)C1=C(O)C(C)=CC=C1",
    "meta_data": {
        "InChI": "InChI=1S/C8H8O3/c1-5-3-2-4-6(7(5)9)8(10)11/h2-4,9H,1H3,(H,10,11)",
        "InChIKey": null,
        "Canonical SMILES": "O=C(O)C1=CC=CC(=C1O)C",
        "Molecular Formula": "C<sub>8</sub>H<sub>8</sub>O<sub>3</sub>",
        "Molecular Mass": "152.15",
        "Melting Point": "165.5 °C",
        "Density": "1.304 g/cm³"
    }
}