{
    "cas_no": "4020-99-9",
    "key_name": "Methyl <em>P</em>,<em>P</em>-diphenylphosphinite",
    "cn_name": "二苯基甲氧基膦;",
    "alternate_name": "Phosphinous acid, <em>P</em>,<em>P</em>-diphenyl-, methyl ester;Phosphinous acid, diphenyl-, methyl ester;Methyl <em>P</em>,<em>P</em>-diphenylphosphinite;Methoxydiphenylphosphine;Methyl diphenylphosphinite;Diphenylmethoxyphosphine;NSC 171167",
    "duplicated_cas_no": "",
    "SMILES": "P(OC)(C1=CC=CC=C1)C2=CC=CC=C2",
    "meta_data": {
        "InChI": "InChI=1S/C13H13OP/c1-14-15(12-8-4-2-5-9-12)13-10-6-3-7-11-13/h2-11H,1H3",
        "InChIKey": null,
        "Canonical SMILES": "O(P(C=1C=CC=CC1)C=2C=CC=CC2)C",
        "Molecular Formula": "C<sub>13</sub>H<sub>13</sub>OP",
        "Molecular Mass": "216.22",
        "Boiling Point": "158 °C @ Press: 12 Torr"
    }
}