{
    "cas_no": "1003-03-8",
    "key_name": "Cyclopentylamine",
    "cn_name": "环戊胺;",
    "alternate_name": "Cyclopentanamine;Cyclopentylamine;Aminocyclopentane;NSC 32389;1-Aminocyclopentane",
    "duplicated_cas_no": "",
    "SMILES": "NC1CCCC1",
    "meta_data": {
        "InChI": "InChI=1S/C5H11N/c6-5-3-1-2-4-5/h5H,1-4,6H2",
        "InChIKey": null,
        "Canonical SMILES": "NC1CCCC1",
        "Molecular Formula": "C<sub>5</sub>H<sub>11</sub>N",
        "Molecular Mass": "85.15",
        "Boiling Point": "108 °C",
        "Melting Point": "-82.7 °C",
        "Density": "0.8689 g/cm³ @ Temp: 20 °C"
    }
}