{
    "cas_no": "61-76-7",
    "key_name": "(-)-Phenylephrine hydrochloride",
    "cn_name": "盐酸去氧肾上腺素;",
    "alternate_name": "Benzenemethanol, 3-hydroxy-α-[(methylamino)methyl]-, hydrochloride (1:1), (α<em>R</em>)-;Benzyl alcohol, <em>m</em>-hydroxy-α-[(methylamino)methyl]-, hydrochloride, (-)-;Benzenemethanol, 3-hydroxy-α-[(methylamino)methyl]-, hydrochloride, (<em>R</em>)-;Benzenemethanol, 3-hydroxy-α-[(methylamino)methyl]-, hydrochloride, (α<em>R</em>)-;Almefrin;(-)-α-Hydroxy-β-(methylamino)ethyl-α-(3-hydroxybenzene)hydrochloride;Isophrin hydrochloride;Neophryn;Sucraphen;Synasal;(-)-Phenylephrine hydrochloride;<em>l</em>-Phenylephrine hydrochloride;Metaoxedrine chloride;Levophenylephrine hydrochloride;Phenylephrine hydrochloride;<em>l</em>-<em>m</em>-Hydroxy-α-[(methylamino)methyl]benzyl alcohol hydrochloride;<em>l</em>-1-(<em>m</em>-Hydroxyphenyl)-2-methylaminoethanol hydrochloride;<em>l</em>-α-Hydroxy-β-methylamino-3-hydroxy-1-ethylbenzene hydrochloride;Neo-Synephrine hydrochloride;Meta-Synephrine hydrochloride;Adrianol;Meta-Sympatol;Oftalfrine;Lexatol;Metaoxedrine hydrochloride;<em>R</em>-(-)-<em>m</em>-Synephrine hydrochloride;Neo-Synesin 1;(<em>R</em>)-Phenylephrine hydrochloride;Mydfrin;Prefrin;Decadron;M-Sympatol;Nostril;Pyracort D;Isophrin;Alcon Efrin;Ak-Dilate;Ak-Nefrin;Neosinesine;Irifrin;R-Phenylephrine hydrochloride;(R)-3-(1-Hydroxy-2-(methylamino)ethyl)phenol hydrochloride;Maxiclear",
    "duplicated_cas_no": "644-22-4;827-62-3;50741-76-9",
    "SMILES": "[C@@H](CNC)(O)C1=CC(O)=CC=C1.Cl",
    "meta_data": {
        "InChI": "InChI=1S/C9H13NO2.ClH/c1-10-6-9(12)7-3-2-4-8(11)5-7;/h2-5,9-12H,6H2,1H3;1H/t9-;/m0./s1",
        "InChIKey": null,
        "Canonical SMILES": "Cl.OC1=CC=CC(=C1)C(O)CNC",
        "Molecular Formula": "C<sub>9</sub>H<sub>13</sub>NO<sub>2</sub>.ClH",
        "Molecular Mass": "",
        "Melting Point": "142.5 °C"
    }
}