{
    "cas_no": "773-64-8",
    "key_name": "Mesitylenesulfonyl chloride",
    "cn_name": "2,4,6-三甲基苯磺酰氯;",
    "alternate_name": "Benzenesulfonyl chloride, 2,4,6-trimethyl-;2-Mesitylenesulfonyl chloride;2,4,6-Trimethylbenzenesulfonyl chloride;Mesitylenesulfonyl chloride;Mesitylsulfonyl chloride;2,4,6-Trimethylphenylsulfonyl chloride;NSC 403295;2,4,6-Trimethylbenzene-1-sulfonyl chloride",
    "duplicated_cas_no": "1804970-05-5",
    "SMILES": "S(Cl)(=O)(=O)C1=C(C)C=C(C)C=C1C",
    "meta_data": {
        "InChI": "InChI=1S/C9H11ClO2S/c1-6-4-7(2)9(8(3)5-6)13(10,11)12/h4-5H,1-3H3",
        "InChIKey": null,
        "Canonical SMILES": "O=S(=O)(Cl)C=1C(=CC(=CC1C)C)C",
        "Molecular Formula": "C<sub>9</sub>H<sub>11</sub>ClO<sub>2</sub>S",
        "Molecular Mass": "218.70",
        "Melting Point": "56 °C"
    }
}