{
    "cas_no": "106-87-6",
    "key_name": "Vinylcyclohexene diepoxide",
    "cn_name": null,
    "alternate_name": "7-Oxabicyclo[4.1.0]heptane, 3-(2-oxiranyl)-;7-Oxabicyclo[4.1.0]heptane, 3-(epoxyethyl)-;7-Oxabicyclo[4.1.0]heptane, 3-oxiranyl-;3-(2-Oxiranyl)-7-oxabicyclo[4.1.0]heptane;1,2-Epoxy-4-(epoxyethyl)cyclohexane;4-Vinylcyclohexene diepoxide;4-Vinyl-1-cyclohexene dioxide;1-(Epoxyethyl)-3,4-epoxycyclohexane;4-Vinyl-1,2-cyclohexene diepoxide;4-Vinyl-1-cyclohexene diepoxide;1-Vinyl-3-cyclohexene dioxide;3-(1,2-Epoxyethyl)-7-oxabicyclo[4.1.0]heptane;Vinylcyclohexene diepoxide;3-(Epoxyethyl)-7-oxabicyclo[4.1.0]heptane;4-Vinylcyclohexene dioxide;Chissonox 206 monomer;4-(1,2-Epoxyethyl)-1,2-epoxycyclohexane;NSC 54752;NSC 61281;NSC 7583;Diluent 6206;4-Vinyl-1,2-cyclohexene dioxide;1,2-Epoxy-4-(2-oxiranyl)cyclohexane;3-Oxiranyl-7-oxa-bicyclo[4.1.0]heptane",
    "duplicated_cas_no": "25550-49-6",
    "SMILES": "C12C(O1)CCC(C2)C3CO3",
    "meta_data": {
        "InChI": "InChI=1S/C8H12O2/c1-2-6-7(10-6)3-5(1)8-4-9-8/h5-8H,1-4H2",
        "InChIKey": null,
        "Canonical SMILES": "O1CC1C2CCC3OC3C2",
        "Molecular Formula": "C<sub>8</sub>H<sub>12</sub>O<sub>2</sub>",
        "Molecular Mass": "140.18",
        "Boiling Point": "227 °C @ Press: 760 Torr",
        "Melting Point": "&lt;-55 °C",
        "Density": "1.0986 g/cm³ @ Temp: 20 °C"
    }
}