{
    "cas_no": "14579-91-0",
    "key_name": "1-(Chloromethyl)-<em>N</em>-[(chloromethyl)dimethylsilyl]-1,1-dimethylsilanamine",
    "cn_name": "1,3-双(氯甲基)-1,1,3,3-四甲基二硅氮烷;二(氯甲基)四甲基二硅氮烷;双(氯甲基)四甲基二硅氮烷;",
    "alternate_name": "Silanamine, 1-(chloromethyl)-<em>N</em>-[(chloromethyl)dimethylsilyl]-1,1-dimethyl-;Disilazane, 1,3-bis(chloromethyl)-1,1,3,3-tetramethyl-;1-(Chloromethyl)-<em>N</em>-[(chloromethyl)dimethylsilyl]-1,1-dimethylsilanamine;1,3-Bis(chloromethyl)-1,1,3,3-tetramethyldisilazane;1,3-Bis(chloromethyl)tetramethyldisilazane;Bis((chloromethyl)dimethylsilyl)amine;NSC 142541",
    "duplicated_cas_no": "",
    "SMILES": "N([Si](CCl)(C)C)[Si](CCl)(C)C",
    "meta_data": {
        "InChI": "InChI=1S/C6H17Cl2NSi2/c1-10(2,5-7)9-11(3,4)6-8/h9H,5-6H2,1-4H3",
        "InChIKey": null,
        "Canonical SMILES": "ClC[Si](N[Si](C)(C)CCl)(C)C",
        "Molecular Formula": "C<sub>6</sub>H<sub>17</sub>Cl<sub>2</sub>NSi<sub>2</sub>",
        "Molecular Mass": "230.28",
        "Boiling Point": "103-105 °C"
    }
}