{
    "cas_no": "615-79-2",
    "key_name": "Pentanoic acid, 2,4-dioxo-, ethyl ester",
    "cn_name": "乙酰丙酮酸乙酯;",
    "alternate_name": "Pentanoic acid, 2,4-dioxo-, ethyl ester;Valeric acid, 2,4-dioxo-, ethyl ester;Ethyl 2,4-dioxovalerate;Ethyl acetopyruvate;Ethoxalylacetone;Ethyl 2,4-dioxopentanoate;Ethyl (acetylmethyl)glyoxylate;Ethyl acetylpyruvate;2,4-Dioxopentanoic acid ethyl ester;NSC 1243;NSC 97434",
    "duplicated_cas_no": "",
    "SMILES": "C(C(OCC)=O)(CC(C)=O)=O",
    "meta_data": {
        "InChI": "InChI=1S/C7H10O4/c1-3-11-7(10)6(9)4-5(2)8/h3-4H2,1-2H3",
        "InChIKey": null,
        "Canonical SMILES": "O=C(OCC)C(=O)CC(=O)C",
        "Molecular Formula": "C<sub>7</sub>H<sub>10</sub>O<sub>4</sub>",
        "Molecular Mass": "158.15",
        "Boiling Point": "214 °C",
        "Melting Point": "18 °C"
    }
}