{
    "cas_no": "56187-04-3",
    "key_name": "4-Methyl-<em>N</em>,<em>N</em>-bis[2-[[(4-methylphenyl)sulfonyl]amino]ethyl]benzenesulfonamide",
    "cn_name": "N,N,N-三(对甲苯磺酰基)二乙烯三胺;",
    "alternate_name": "Benzenesulfonamide, 4-methyl-<em>N</em>,<em>N</em>-bis[2-[[(4-methylphenyl)sulfonyl]amino]ethyl]-;4-Methyl-<em>N</em>,<em>N</em>-bis[2-[[(4-methylphenyl)sulfonyl]amino]ethyl]benzenesulfonamide;<em>N</em>,<em>N</em>′,<em>N</em>′′-Tris(<em>p</em>-tolylsulfonyl)diethylenetriamine;<em>N</em>,<em>N</em>′,<em>N</em>′′-Tritosyldiethylenetriamine;<em>N</em>,<em>N</em>′,<em>N</em>′′-Tris(4-tolylsulfonyl)diethylenetriamine;Diethylenetriamine tritosylate;1,4,7-Tris(<em>p</em>-tolylsulfonyl)-1,4,7-triazaheptane;1,4,7-Tris(<em>p</em>-toluenesulfonyl)-1,4,7-triazaheptane;1,4,7-Tritosyl-1,4,7-triazaheptane;<em>N</em>,<em>N</em>′,<em>N</em>′′-Tris(<em>p</em>-tolylsulfonyl)-3-azapentane-1,5-diamine;NSC 245019;NSC 249331;NSC 694885;<em>N</em>,<em>N</em>′,<em>N</em>′′-Tris(<em>p</em>-toluenesulfonyl)diethylenetriamine;<em>N</em>,<em>N</em>′,<em>N</em>′′-Tri(toluene-4-sulfonyl)diethylenetriamine",
    "duplicated_cas_no": "",
    "SMILES": "S(N(CCNS(=O)(=O)C1=CC=C(C)C=C1)CCNS(=O)(=O)C2=CC=C(C)C=C2)(=O)(=O)C3=CC=C(C)C=C3",
    "meta_data": {
        "InChI": "InChI=1S/C25H31N3O6S3/c1-20-4-10-23(11-5-20)35(29,30)26-16-18-28(37(33,34)25-14-8-22(3)9-15-25)19-17-27-36(31,32)24-12-6-21(2)7-13-24/h4-15,26-27H,16-19H2,1-3H3",
        "InChIKey": null,
        "Canonical SMILES": "O=S(=O)(NCCN(CCNS(=O)(=O)C1=CC=C(C=C1)C)S(=O)(=O)C2=CC=C(C=C2)C)C3=CC=C(C=C3)C",
        "Molecular Formula": "C<sub>25</sub>H<sub>31</sub>N<sub>3</sub>O<sub>6</sub>S<sub>3</sub>",
        "Molecular Mass": "565.73",
        "Melting Point": "174.6 °C"
    }
}