{
    "cas_no": "111470-99-6",
    "key_name": "Amlodipine besylate",
    "cn_name": "苯磺酸氨氯地平;2[(2-氨基乙氧基)甲基]-4(2-氯苯基)-3-乙氧甲酰基-5-甲氧甲酰基-6-甲基-1,4-二氢吡啶苯磺酸;",
    "alternate_name": "3,5-Pyridinedicarboxylic acid, 2-[(2-aminoethoxy)methyl]-4-(2-chlorophenyl)-1,4-dihydro-6-methyl-, 3-ethyl 5-methyl ester, benzenesulfonate (1:1);3,5-Pyridinedicarboxylic acid, 2-[(2-aminoethoxy)methyl]-4-(2-chlorophenyl)-1,4-dihydro-6-methyl-, 3-ethyl 5-methyl ester, monobenzenesulfonate;Benzenesulfonic acid, compd. with 3-ethyl 5-methyl 2-[(2-aminoethoxy)methyl]-4-(2-chlorophenyl)-1,4-dihydro-6-methyl-3,5-pyridinedicarboxylate (1:1);UK 48340-26;Amlodipine besylate;Norvasc;Amlodipine benzenesulfonate;Istin;(±)-3-Ethyl 5-methyl 2-[(2-aminoethoxy)methyl]-4-(2-chlorophenyl)-1,4-dihydro-6-methyl-3,5-pyridinedicarboxylate monobenzenesulfonate;Lowrac;Amcard;Amlodin;Amdepin;Amdipin;Amlosyn;Calchek;Norvas;Norvask;Tensivask;Amlopin;Amlor;Monopina;Antacal;Amlodipine benzenesulfonate salt;(±)-Amlodipine besylate;Amlodis;Amlodin OD;Vazkor;Normodipine;Amlogard;Amlopers 5;AM Arya 5;Amilo;Alkapress;Myodura;Cardilopin;Amlovas;Alopres;Regcor;Lodipressin;Amlodigamma;Amloteron",
    "duplicated_cas_no": "115633-24-4;156366-25-5",
    "SMILES": "C(OCC)(=O)C=1C(C(C(OC)=O)=C(C)NC1COCCN)C2=C(Cl)C=CC=C2.S(=O)(=O)(O)C1=CC=CC=C1",
    "meta_data": {
        "InChI": "InChI=1S/C20H25ClN2O5.C6H6O3S/c1-4-28-20(25)18-15(11-27-10-9-22)23-12(2)16(19(24)26-3)17(18)13-7-5-6-8-14(13)21;7-10(8,9)6-4-2-1-3-5-6/h5-8,17,23H,4,9-11,22H2,1-3H3;1-5H,(H,7,8,9)",
        "InChIKey": null,
        "Canonical SMILES": "O=C(OC)C1=C(NC(=C(C(=O)OCC)C1C=2C=CC=CC2Cl)COCCN)C.O=S(=O)(O)C=1C=CC=CC1",
        "Molecular Formula": "C<sub>20</sub>H<sub>25</sub>ClN<sub>2</sub>O<sub>5</sub>.C<sub>6</sub>H<sub>6</sub>O<sub>3</sub>S",
        "Molecular Mass": "",
        "Melting Point": "178-179 °C"
    }
}