{
    "cas_no": "88511-27-7",
    "key_name": "3-Iodo-4-pyridinamine",
    "cn_name": null,
    "alternate_name": "4-Pyridinamine, 3-iodo-;Pyridine, 4-amino-3-iodo-;3-Iodo-4-pyridinamine;4-Amino-3-iodopyridine;3-Iodo-4-aminopyridine;3-Iodopyridin-4-amine;3-Iodopyridin-4-ylamine",
    "duplicated_cas_no": "",
    "SMILES": "IC=1C(N)=CC=NC1",
    "meta_data": {
        "InChI": "InChI=1S/C5H5IN2/c6-4-3-8-2-1-5(4)7/h1-3H,(H2,7,8)",
        "InChIKey": null,
        "Canonical SMILES": "IC=1C=NC=CC1N",
        "Molecular Formula": "C<sub>5</sub>H<sub>5</sub>IN<sub>2</sub>",
        "Molecular Mass": "220.01",
        "Melting Point": "100 °C"
    }
}