{
    "cas_no": "127-40-2",
    "key_name": "Lutein A",
    "cn_name": "叶黄素;二羟基-d-胡萝卜素;",
    "alternate_name": "β,ε-Carotene-3,3′-diol, (3<em>R</em>,3′<em>R</em>,6′<em>R</em>)-;(3<em>R</em>,3′<em>R</em>,6′<em>R</em>)-β,ε-Carotene-3,3′-diol;<em>trans</em>-Lutein;Vegetable lutein;Vegetable luteol;Xanthophyll;Lutein;<em>all</em>-<em>trans</em>-Lutein;<em>all</em>-<em>trans</em>-(+)-Xanthophyll;Bo-Xan;<em>all</em>-<em>trans</em>-Xanthophyll;Luteine;Lutein A;Oro Glo 7;FloraGLO;(3<em>R</em>,3′<em>R</em>,6′<em>R</em>)-Lutein;E 161;E 161b;6′-Hydro-4′,5′-dehydro-β-carotene-3,3′-diol;(<em>all</em>-<em>E</em>)-Lutein;OS 24;FloraGLO Lutein;Retidyne;Retidyne plus;Phacodyne;Vitreodyne;(3<em>R</em>,3′<em>R</em>,6<em>R</em>)-Lutein;MeSH ID: D014975",
    "duplicated_cas_no": "1407-74-5;25312-96-3;28368-07-2;34026-62-5;34445-91-5;148124-35-0",
    "SMILES": "C(=C/C(=C/C=C/C(=C/C=C/C=C(/C=C/C=C(/C=C/C=1C(C)(C)C[C@H](O)CC1C)\\C)\\C)/C)/C)\\[C@@H]2C(C)(C)C[C@@H](O)C=C2C",
    "meta_data": {
        "InChI": "InChI=1S/C40H56O2/c1-29(17-13-19-31(3)21-23-37-33(5)25-35(41)27-39(37,7)8)15-11-12-16-30(2)18-14-20-32(4)22-24-38-34(6)26-36(42)28-40(38,9)10/h11-25,35-37,41-42H,26-28H2,1-10H3/b12-11+,17-13+,18-14+,23-21+,24-22+,29-15+,30-16+,31-19+,32-20+/t35-,36+,37-/m0/s1",
        "InChIKey": null,
        "Canonical SMILES": "OC1C=C(C)C(C=CC(=CC=CC(=CC=CC=C(C=CC=C(C=CC2=C(C)CC(O)CC2(C)C)C)C)C)C)C(C)(C)C1",
        "Molecular Formula": "C<sub>40</sub>H<sub>56</sub>O<sub>2</sub>",
        "Molecular Mass": "568.87",
        "Melting Point": "196 °C"
    }
}