{
    "cas_no": "13569-80-7",
    "key_name": "Dysprosium fluoride (DyF<sub>3</sub>)",
    "cn_name": "氟化镝;氟化氯化镝(III);",
    "alternate_name": "Dysprosium fluoride (DyF<sub>3</sub>);Dysprosium trifluoride;Dysprosium fluoride",
    "duplicated_cas_no": "",
    "SMILES": "[Dy](F)(F)F",
    "meta_data": {
        "InChI": "InChI=1S/Dy.3FH/h;3*1H/q+3;;;/p-3",
        "InChIKey": null,
        "Canonical SMILES": "F[Dy](F)F",
        "Molecular Formula": "DyF<sub>3</sub>",
        "Molecular Mass": "",
        "Melting Point": "1154 °C"
    }
}