{
    "cas_no": "622-64-0",
    "key_name": "Phenol, 4-[2-(dimethylamino)ethyl]-, sulfate (2:1) (salt)",
    "cn_name": "大麦芽碱硫酸盐;4-(2-二甲基氨基乙基)苯酚硫酸盐(2:1);",
    "alternate_name": "Phenol, 4-[2-(dimethylamino)ethyl]-, sulfate (2:1) (salt);Phenol, <em>p</em>-[2-(dimethylamino)ethyl]-, sulfate (2:1) (salt);Hordenine sulfate;Anhaline sulfate;Hordenine sulphate;<em>p</em>-Hydroxy-<em>N</em>,<em>N</em>-dimethylphenethylamine sulfate;Peyocactine sulfate",
    "duplicated_cas_no": "",
    "SMILES": "S(=O)(=O)(O)O.C(CN(C)C)C1=CC=C(O)C=C1",
    "meta_data": {
        "InChI": "InChI=1S/C10H15NO.H2O4S/c1-11(2)8-7-9-3-5-10(12)6-4-9;1-5(2,3)4/h3-6,12H,7-8H2,1-2H3;(H2,1,2,3,4)",
        "InChIKey": null,
        "Canonical SMILES": "O=S(=O)(O)O.OC1=CC=C(C=C1)CCN(C)C",
        "Molecular Formula": "C<sub>10</sub>H<sub>15</sub>NO.<sup>1</sup>/<sub>2</sub>H<sub>2</sub>O<sub>4</sub>S",
        "Molecular Mass": "",
        "Melting Point": "207-208 °C"
    }
}