{
    "cas_no": "846023-24-3",
    "key_name": "2-Cyano-<em>N</em>-(2,4-dichloro-5-methoxyphenyl)acetamide",
    "cn_name": null,
    "alternate_name": "Acetamide, 2-cyano-<em>N</em>-(2,4-dichloro-5-methoxyphenyl)-;2-Cyano-<em>N</em>-(2,4-dichloro-5-methoxyphenyl)acetamide;<em>N</em>-(2,4-Dichloro-5-methoxyphenyl)-2-cyanoacetamide",
    "duplicated_cas_no": "",
    "SMILES": "N(C(CC#N)=O)C1=CC(OC)=C(Cl)C=C1Cl",
    "meta_data": {
        "InChI": "InChI=1S/C10H8Cl2N2O2/c1-16-9-5-8(6(11)4-7(9)12)14-10(15)2-3-13/h4-5H,2H2,1H3,(H,14,15)",
        "InChIKey": null,
        "Canonical SMILES": "N#CCC(=O)NC1=CC(OC)=C(Cl)C=C1Cl",
        "Molecular Formula": "C<sub>10</sub>H<sub>8</sub>Cl<sub>2</sub>N<sub>2</sub>O<sub>2</sub>",
        "Molecular Mass": "259.09",
        "Melting Point": "180-181 °C"
    }
}