{
    "cas_no": "10599-69-6",
    "key_name": "1-(5-Methyl-2-furanyl)-1-propanone",
    "cn_name": "2-甲基-5-丙酰呋喃;",
    "alternate_name": "1-Propanone, 1-(5-methyl-2-furanyl)-;1-Propanone, 1-(5-methyl-2-furyl)-;1-(5-Methyl-2-furanyl)-1-propanone;5-Methyl-2-propionylfuran;2-Methyl-5-propionylfuran;1-(5-Methyl-2-furyl)propan-1-one;5-Methyl-2-propanoylfuran",
    "duplicated_cas_no": "",
    "SMILES": "C(CC)(=O)C=1OC(C)=CC1",
    "meta_data": {
        "InChI": "InChI=1S/C8H10O2/c1-3-7(9)8-5-4-6(2)10-8/h4-5H,3H2,1-2H3",
        "InChIKey": null,
        "Canonical SMILES": "O=C(C=1OC(=CC1)C)CC",
        "Molecular Formula": "C<sub>8</sub>H<sub>10</sub>O<sub>2</sub>",
        "Molecular Mass": "138.16",
        "Boiling Point": "94-96 °C @ Press: 14 Torr",
        "Density": "1.0580 g/cm³ @ Temp: 20 °C"
    }
}