{
    "cas_no": "13518-80-4",
    "key_name": "2-(Trimethylsilyl)-2<em>H</em>-1,2,3-triazole",
    "cn_name": null,
    "alternate_name": "2<em>H</em>-1,2,3-Triazole, 2-(trimethylsilyl)-;2-(Trimethylsilyl)-2<em>H</em>-1,2,3-triazole;2-(Trimethylsilyl)-1,2,3-triazole",
    "duplicated_cas_no": "",
    "SMILES": "[Si](C)(C)(C)N1N=CC=N1",
    "meta_data": {
        "InChI": "InChI=1S/C5H11N3Si/c1-9(2,3)8-6-4-5-7-8/h4-5H,1-3H3",
        "InChIKey": null,
        "Canonical SMILES": "N1=CC=NN1[Si](C)(C)C",
        "Molecular Formula": "C<sub>5</sub>H<sub>11</sub>N<sub>3</sub>Si",
        "Molecular Mass": "141.25",
        "Melting Point": "148 °C"
    }
}