{
    "cas_no": "152-62-5",
    "key_name": "Dydrogesterone",
    "cn_name": "去氢孕酮;",
    "alternate_name": "Pregna-4,6-diene-3,20-dione, (9β,10α)-;9β,10α-Pregna-4,6-diene-3,20-dione;(9β,10α)-Pregna-4,6-diene-3,20-dione;6-Dehydro-9β,10α-progesterone;6α-Dehydro-retro-Δ<sup>4</sup>-pregnene-3,20-dione;6-Dehydroretroprogesterone;Diphaston;Dydrogesterone;Hydrogesterone;Retro-6-dehydroprogesterone;Retroprogesterone, 6-dehydro-;Terolut;Isopregnenone;Δ<sup>6</sup>-Retroprogesterone;Duphaston;Gestatron;Prodel;Retrone;Dufaston;Duvaron;Gynorest;NSC 92336;MeSH ID: D004394",
    "duplicated_cas_no": "",
    "SMILES": "C[C@]12[C@]3([C@]([C@]4([C@](C)(CC3)[C@@H](C(C)=O)CC4)[H])(C=CC1=CC(=O)CC2)[H])[H]",
    "meta_data": {
        "InChI": "InChI=1S/C21H28O2/c1-13(22)17-6-7-18-16-5-4-14-12-15(23)8-10-20(14,2)19(16)9-11-21(17,18)3/h4-5,12,16-19H,6-11H2,1-3H3/t16-,17+,18-,19+,20+,21+/m0/s1",
        "InChIKey": null,
        "Canonical SMILES": "O=C1C=C2C=CC3C(CCC4(C)C(C(=O)C)CCC34)C2(C)CC1",
        "Molecular Formula": "C<sub>21</sub>H<sub>28</sub>O<sub>2</sub>",
        "Molecular Mass": "312.45",
        "Melting Point": "169-170 °C"
    }
}