{
    "cas_no": "4048-33-3",
    "key_name": "6-Amino-1-hexanol",
    "cn_name": "6-氨基-1-己醇;",
    "alternate_name": "1-Hexanol, 6-amino-;6-Amino-1-hexanol;6-Aminohexyl alcohol;1-Amino-6-hexanol;6-Hydroxyhexylamine;6-Hexanolamine;6-Hydroxy-1-hexanamine;6-Aminohexanol;6-Hydroxy-1-hexylamine;1-Amino-6-hydroxyhexane;NSC 91538",
    "duplicated_cas_no": "",
    "SMILES": "C(CCCO)CCN",
    "meta_data": {
        "InChI": "InChI=1S/C6H15NO/c7-5-3-1-2-4-6-8/h8H,1-7H2",
        "InChIKey": null,
        "Canonical SMILES": "OCCCCCCN",
        "Molecular Formula": "C<sub>6</sub>H<sub>15</sub>NO",
        "Molecular Mass": "117.19",
        "Boiling Point": "140-150 °C @ Press: 17 Torr",
        "Melting Point": "52-54 °C"
    }
}