{
    "cas_no": "66346-87-0",
    "key_name": "6-Chloro-5-methylpyridazin-3-amine",
    "cn_name": null,
    "alternate_name": "3-Pyridazinamine, 6-chloro-5-methyl-;Pyridazine, 6-amino-3-chloro-4-methyl-;6-Chloro-5-methyl-3-pyridazinamine;6-Chloro-5-methylpyridazin-3-amine;3-Amino-6-chloro-5-methylpyridazine;(6-Chloro-5-methylpyridazin-3-yl)amine",
    "duplicated_cas_no": "",
    "SMILES": "CC1=C(Cl)N=NC(N)=C1",
    "meta_data": {
        "InChI": "InChI=1S/C5H6ClN3/c1-3-2-4(7)8-9-5(3)6/h2H,1H3,(H2,7,8)",
        "InChIKey": null,
        "Canonical SMILES": "ClC1=NN=C(N)C=C1C",
        "Molecular Formula": "C<sub>5</sub>H<sub>6</sub>ClN<sub>3</sub>",
        "Molecular Mass": "143.57",
        "Melting Point": "190-191 °C"
    }
}