{
    "cas_no": "827-08-7",
    "key_name": "1,2-Dibromotetrafluorobenzene",
    "cn_name": "1,2-二溴四氟苯;",
    "alternate_name": "Benzene, 1,2-dibromo-3,4,5,6-tetrafluoro-;Benzene, 1,2-dibromotetrafluoro-;1,2-Dibromo-3,4,5,6-tetrafluorobenzene;1,2-Dibromoperfluorobenzene;1,2-Dibromotetrafluorobenzene;<em>o</em>-Dibromoperfluorobenzene;NSC 88296",
    "duplicated_cas_no": "",
    "SMILES": "BrC1=C(Br)C(F)=C(F)C(F)=C1F",
    "meta_data": {
        "InChI": "InChI=1S/C6Br2F4/c7-1-2(8)4(10)6(12)5(11)3(1)9",
        "InChIKey": null,
        "Canonical SMILES": "FC=1C(F)=C(F)C(Br)=C(Br)C1F",
        "Molecular Formula": "C<sub>6</sub>Br<sub>2</sub>F<sub>4</sub>",
        "Molecular Mass": "307.87",
        "Boiling Point": "198 °C",
        "Melting Point": "12 °C"
    }
}