{
    "cas_no": "894-71-3",
    "key_name": "Nortriptyline hydrochloride",
    "cn_name": "去甲替林盐酸盐;盐酸去甲替林甲醇溶液;",
    "alternate_name": "1-Propanamine, 3-(10,11-dihydro-5<em>H</em>-dibenzo[<em>a</em>,<em>d</em>]cyclohepten-5-ylidene)-<em>N</em>-methyl-, hydrochloride (1:1);5<em>H</em>-Dibenzo[<em>a</em>,<em>d</em>]cycloheptene-Δ<sup>5,γ</sup>-propylamine, 10,11-dihydro-<em>N</em>-methyl-, hydrochloride;1-Propanamine, 3-(10,11-dihydro-5<em>H</em>-dibenzo[<em>a</em>,<em>d</em>]cyclohepten-5-ylidene)-<em>N</em>-methyl-, hydrochloride;38489;Aventyl hydrochloride;Desmethylamitriptyline hydrochloride;10,11-Dihydro-<em>N</em>-methyl-5<em>H</em>-dibenzo[<em>a</em>,<em>d</em>]cycloheptene-Δ<sup>5,γ</sup>-propylamine hydrochloride;5-[3-(Methylamino)propylidene]dibenzo[<em>a</em>,<em>e</em>]cyclohepta[1,5]diene hydrochloride;5-(3-Methylaminopropylidene)-10,11-dihydro-5<em>H</em>-dibenzo[<em>a</em>,<em>d</em>]cycloheptene hydrochloride;Noramitriptyline hydrochloride;Nortriptyline hydrochloride;Allegron;Nortrilen;Psychostyl;Acetexa;Noritren;Altilev;Pamelor;Vividyl;Norzepine;Sensival;Norfenazin;Nortryptilinium hydrochloride",
    "duplicated_cas_no": "8057-32-7;37025-22-2",
    "SMILES": "C(CCNC)=C1C=2C(CCC=3C1=CC=CC3)=CC=CC2.Cl",
    "meta_data": {
        "InChI": "InChI=1S/C19H21N.ClH/c1-20-14-6-11-19-17-9-4-2-7-15(17)12-13-16-8-3-5-10-18(16)19;/h2-5,7-11,20H,6,12-14H2,1H3;1H",
        "InChIKey": null,
        "Canonical SMILES": "Cl.C=1C=CC2=C(C1)C(=CCCNC)C=3C=CC=CC3CC2",
        "Molecular Formula": "C<sub>19</sub>H<sub>21</sub>N.ClH",
        "Molecular Mass": "",
        "Melting Point": "213-215 °C"
    }
}