{
    "cas_no": "90-34-6",
    "key_name": "Primaquine",
    "cn_name": "伯氨喹;N-(6-甲氧基喹啉-8-基)戊-1,4-二胺;",
    "alternate_name": "1,4-Pentanediamine, <em>N</em><sup>4</sup>-(6-methoxy-8-quinolinyl)-;Quinoline, 8-[(4-amino-1-methylbutyl)amino]-6-methoxy-;<em>N</em><sup>4</sup>-(6-Methoxy-8-quinolinyl)-1,4-pentanediamine;SN 13272;8-(4-Amino-1-methylbutylamino)-6-methoxyquinoline;6-Methoxy-8-[4-amino-1-methylbutylamino]quinoline;Primaquine;Primachin;Neo-Quipenyl;Primaquin;WR 2975;(±)-Primaquine;<em>dl</em>-Primaquine;NSC 27296;Maliride;Malirid;Primacip;Primalex;Leoprime;Pimaquin;1,4-Pentanediamine N4-(6-methoxy-8-quinolinyl)-;MeSH ID: D011319",
    "duplicated_cas_no": "57152-47-3",
    "SMILES": "N(C(CCCN)C)C=1C2=C(C=C(OC)C1)C=CC=N2",
    "meta_data": {
        "InChI": "InChI=1S/C15H21N3O/c1-11(5-3-7-16)18-14-10-13(19-2)9-12-6-4-8-17-15(12)14/h4,6,8-11,18H,3,5,7,16H2,1-2H3",
        "InChIKey": null,
        "Canonical SMILES": "N=1C=CC=C2C=C(OC)C=C(NC(C)CCCN)C12",
        "Molecular Formula": "C<sub>15</sub>H<sub>21</sub>N<sub>3</sub>O",
        "Molecular Mass": "259.35",
        "Boiling Point": "177 °C",
        "Melting Point": "&lt;25 °C"
    }
}