{
    "cas_no": "105-76-0",
    "key_name": "Dibutyl maleate",
    "cn_name": "马来酸二丁酯;顺丁烯二酸二丁酯;",
    "alternate_name": "2-Butenedioic acid (2<em>Z</em>)-, 1,4-dibutyl ester;Maleic acid, dibutyl ester;2-Butenedioic acid (<em>Z</em>)-, dibutyl ester;2-Butenedioic acid (2<em>Z</em>)-, dibutyl ester;DBM;Dibutyl maleate;RC Comonomer DBM;Staflex DBM;Butyl maleate;Di-<em>n</em>-butyl maleate;Maleic acid di-<em>n</em>-butyl ester;Vinavil CF 5",
    "duplicated_cas_no": "57343-98-3;77223-90-6;79725-21-6;193362-56-0;220713-30-4",
    "SMILES": "C(/C=C\\C(OCCCC)=O)(OCCCC)=O",
    "meta_data": {
        "InChI": "InChI=1S/C12H20O4/c1-3-5-9-15-11(13)7-8-12(14)16-10-6-4-2/h7-8H,3-6,9-10H2,1-2H3/b8-7-",
        "InChIKey": null,
        "Canonical SMILES": "O=C(OCCCC)C=CC(=O)OCCCC",
        "Molecular Formula": "C<sub>12</sub>H<sub>20</sub>O<sub>4</sub>",
        "Molecular Mass": "228.28",
        "Boiling Point": "281 °C",
        "Melting Point": "-85 °C",
        "Density": "0.9964 g/cm³ @ Temp: 20 °C"
    }
}