{
    "cas_no": "613-53-6",
    "key_name": "2-(Tribromomethyl)quinoline",
    "cn_name": "2-(三溴甲基)喹啉;α,α,α-三溴喹哪啶;α,α,α-三溴喹哪啶;",
    "alternate_name": "Quinoline, 2-(tribromomethyl)-;2-(Tribromomethyl)quinoline;Tribromoquinaldine;2-Tribromomethylquinoline;α,α,α-Tribromoquinaldine;NSC 610",
    "duplicated_cas_no": "",
    "SMILES": "C(Br)(Br)(Br)C1=NC2=C(C=C1)C=CC=C2",
    "meta_data": {
        "InChI": "InChI=1S/C10H6Br3N/c11-10(12,13)9-6-5-7-3-1-2-4-8(7)14-9/h1-6H",
        "InChIKey": null,
        "Canonical SMILES": "BrC(Br)(Br)C1=NC=2C=CC=CC2C=C1",
        "Molecular Formula": "C<sub>10</sub>H<sub>6</sub>Br<sub>3</sub>N",
        "Molecular Mass": "379.87",
        "Melting Point": "128 °C"
    }
}