{
    "cas_no": "702-23-8",
    "key_name": "2-(4-Methoxyphenyl)ethanol",
    "cn_name": "对甲氧基苯乙醇;",
    "alternate_name": "Benzeneethanol, 4-methoxy-;Phenethyl alcohol, <em>p</em>-methoxy-;4-Methoxybenzeneethanol;<em>p</em>-Methoxyphenethyl alcohol;β-(<em>p</em>-Methoxyphenyl)ethanol;2-(<em>p</em>-Methoxyphenyl)ethanol;2-(<em>p</em>-Anisyl)ethanol;2-(4-Methoxyphenyl)ethanol;4-Methoxyphenethyl alcohol;<em>p</em>-(Methoxyphenyl)ethyl alcohol;2-(4-Methoxyphenyl)-1-ethanol;1-Methoxy-4-(2-hydroxyethyl)benzene;NSC 408325;4-Methoxyphenethanol",
    "duplicated_cas_no": "",
    "SMILES": "C(CO)C1=CC=C(OC)C=C1",
    "meta_data": {
        "InChI": "InChI=1S/C9H12O2/c1-11-9-4-2-8(3-5-9)6-7-10/h2-5,10H,6-7H2,1H3",
        "InChIKey": null,
        "Canonical SMILES": "OCCC1=CC=C(OC)C=C1",
        "Molecular Formula": "C<sub>9</sub>H<sub>12</sub>O<sub>2</sub>",
        "Molecular Mass": "152.19",
        "Boiling Point": "121 °C @ Press: 5 Torr",
        "Melting Point": "28 °C"
    }
}