{
    "cas_no": "52709-87-2",
    "key_name": "4′-Butoxy[1,1′-biphenyl]-4-carbonitrile",
    "cn_name": "4-丁氧基-4\"-氰基联苯;4-氰基-4\"-丁氧基-1,1\"-联苯;",
    "alternate_name": "[1,1′-Biphenyl]-4-carbonitrile, 4′-butoxy-;4′-Butoxy[1,1′-biphenyl]-4-carbonitrile;4′-Butoxy-4-biphenylcarbonitrile;4′-<em>n</em>-Butyloxy-4-cyanobiphenyl;4-Cyano-4′-<em>n</em>-butoxybiphenyl;4OCB;4-(<em>n</em>-Butoxy)-4′-cyano-1,1′-biphenyl;4′-Butoxy-4-cyanobiphenyl;4′-Butoxy-1,1′-biphenyl-4-carbonitrile",
    "duplicated_cas_no": "",
    "SMILES": "O(CCCC)C1=CC=C(C=C1)C2=CC=C(C#N)C=C2",
    "meta_data": {
        "InChI": "InChI=1S/C17H17NO/c1-2-3-12-19-17-10-8-16(9-11-17)15-6-4-14(13-18)5-7-15/h4-11H,2-3,12H2,1H3",
        "InChIKey": null,
        "Canonical SMILES": "N#CC=1C=CC(=CC1)C2=CC=C(OCCCC)C=C2",
        "Molecular Formula": "C<sub>17</sub>H<sub>17</sub>NO",
        "Molecular Mass": "251.32",
        "Melting Point": "78 °C"
    }
}