{
    "cas_no": "319-89-1",
    "key_name": "Tetrahydroxy-<em>p</em>-benzoquinone",
    "cn_name": "四羟基苯醌;四羟基-1,4-苯二酮;",
    "alternate_name": "2,5-Cyclohexadiene-1,4-dione, 2,3,5,6-tetrahydroxy-;<em>p</em>-Benzoquinone, 2,3,5,6-tetrahydroxy-;<em>p</em>-Benzoquinone, tetrahydroxy-;Quinone, tetrahydroxy-;2,3,5,6-Tetrahydroxy-2,5-cyclohexadiene-1,4-dione;HPEK-1;Kelox;Tetrahydroxy-<em>p</em>-benzoquinone;Tetroquinone;Tetrahydroxyquinone;Tetrahydroxy-1,4-benzoquinone;Tetrahydroxy-<em>p</em>-quinone;2,3,5,6-Tetrahydroxy-<em>p</em>-benzoquinone;Tetrahydroxyparabenzoquinone;Terasin;THQ;2,3,5,6-Tetrahydroxybenzoquinone;Tetrahydroxybenzoquinone;2,3,5,6-Tetrahydroxy-1,4-benzoquinone;NSC 112931",
    "duplicated_cas_no": "",
    "SMILES": "O=C1C(O)=C(O)C(=O)C(O)=C1O",
    "meta_data": {
        "InChI": "InChI=1S/C6H4O6/c7-1-2(8)4(10)6(12)5(11)3(1)9/h7-8,11-12H",
        "InChIKey": null,
        "Canonical SMILES": "O=C1C(O)=C(O)C(=O)C(O)=C1O",
        "Molecular Formula": "C<sub>6</sub>H<sub>4</sub>O<sub>6</sub>",
        "Molecular Mass": "172.09",
        "Melting Point": "&gt;300 °C"
    }
}