{
    "cas_no": "201286-64-8",
    "key_name": "3,5-Dimethyl-4-pyridinecarboxaldehyde",
    "cn_name": null,
    "alternate_name": "4-Pyridinecarboxaldehyde, 3,5-dimethyl-;3,5-Dimethyl-4-pyridinecarboxaldehyde;3,5-Dimethylpyridine-4-carbaldehyde",
    "duplicated_cas_no": "",
    "SMILES": "C(=O)C=1C(C)=CN=CC1C",
    "meta_data": {
        "InChI": "InChI=1S/C8H9NO/c1-6-3-9-4-7(2)8(6)5-10/h3-5H,1-2H3",
        "InChIKey": null,
        "Canonical SMILES": "O=CC=1C(=CN=CC1C)C",
        "Molecular Formula": "C<sub>8</sub>H<sub>9</sub>NO",
        "Molecular Mass": "135.16",
        "Melting Point": "67-67.8 °C"
    }
}