{
    "cas_no": "4767-03-7",
    "key_name": "Dimethylolpropionic acid",
    "cn_name": null,
    "alternate_name": "Propanoic acid, 3-hydroxy-2-(hydroxymethyl)-2-methyl-;Propionic acid, 2,2-bis(hydroxymethyl)-;3-Hydroxy-2-(hydroxymethyl)-2-methylpropanoic acid;α,α-Dimethylolpropionic acid;2,2-Dimethylolpropionic acid;2,2-Bis(hydroxymethyl)propionic acid;α,α-Bis(hydroxymethyl)propionic acid;Dimethylolpropionic acid;Propanoic acid, 2,2-bis(hydroxymethyl)-;2,2-Bis(hydroxymethyl)propanoic acid;2,2-Bis(methylol)propionic acid;2,2-Dihydroxymethylpropanoic acid;NSC 96616;DMPA;Nikkamer PA;3-Hydroxy-2-hydroxymethyl-2-methylpropionic acid;Bis-MPA;Bis(hydroxymethyl)propionic acid;A 05150;LA 6G;KPL 53253",
    "duplicated_cas_no": "123384-67-8;132509-91-2;164008-67-7;1000624-18-9;1204746-07-5",
    "SMILES": "C(C(O)=O)(CO)(CO)C",
    "meta_data": {
        "InChI": "InChI=1S/C5H10O4/c1-5(2-6,3-7)4(8)9/h6-7H,2-3H2,1H3,(H,8,9)",
        "InChIKey": null,
        "Canonical SMILES": "O=C(O)C(C)(CO)CO",
        "Molecular Formula": "C<sub>5</sub>H<sub>10</sub>O<sub>4</sub>",
        "Molecular Mass": "134.13",
        "Melting Point": "190 °C"
    }
}