{
    "cas_no": "515-03-7",
    "key_name": "Sclareol",
    "cn_name": "香紫苏醇;(1R,2R,8aS)-十氢-1-(3-羟基-3-甲基-4-戊烯基)-2,5,5,8a-四甲基-2-萘醇;",
    "alternate_name": "1-Naphthalenepropanol, α-ethenyldecahydro-2-hydroxy-α,2,5,5,8a-pentamethyl-, (α<em>R</em>,1<em>R</em>,2<em>R</em>,4a<em>S</em>,8a<em>S</em>)-;Sclareol;Labd-14-ene-8,13-diol, (13<em>R</em>)-;1-Naphthalenepropanol, α-ethenyldecahydro-2-hydroxy-α,2,5,5,8a-pentamethyl-, [1<em>R</em>-[1α(<em>R</em>*),2β,4aβ,8aα]]-;(α<em>R</em>,1<em>R</em>,2<em>R</em>,4a<em>S</em>,8a<em>S</em>)-α-Ethenyldecahydro-2-hydroxy-α,2,5,5,8a-pentamethyl-1-naphthalenepropanol;(-)-Sclareol",
    "duplicated_cas_no": "17904-64-2;886030-32-6",
    "SMILES": "C[C@]12[C@@](CC[C@@](C)(O)[C@@H]1CC[C@@](C=C)(C)O)(C(C)(C)CCC2)[H]",
    "meta_data": {
        "InChI": "InChI=1S/C20H36O2/c1-7-18(4,21)13-9-16-19(5)12-8-11-17(2,3)15(19)10-14-20(16,6)22/h7,15-16,21-22H,1,8-14H2,2-6H3/t15-,16+,18-,19-,20+/m0/s1",
        "InChIKey": null,
        "Canonical SMILES": "OC(C=C)(C)CCC1C(O)(C)CCC2C(C)(C)CCCC12C",
        "Molecular Formula": "C<sub>20</sub>H<sub>36</sub>O<sub>2</sub>",
        "Molecular Mass": "308.50",
        "Boiling Point": "182 °C @ Press: 1.15 Torr",
        "Melting Point": "104-105 °C"
    }
}