{
    "cas_no": "561304-41-4",
    "key_name": "2-Amino-3-(trifluoromethoxy)benzoic acid",
    "cn_name": null,
    "alternate_name": "Benzoic acid, 2-amino-3-(trifluoromethoxy)-;2-Amino-3-(trifluoromethoxy)benzoic acid;2-Amino-3-trifluoromethoxybenzoic acid",
    "duplicated_cas_no": "",
    "SMILES": "O(C(F)(F)F)C1=C(N)C(C(O)=O)=CC=C1",
    "meta_data": {
        "InChI": "InChI=1S/C8H6F3NO3/c9-8(10,11)15-5-3-1-2-4(6(5)12)7(13)14/h1-3H,12H2,(H,13,14)",
        "InChIKey": null,
        "Canonical SMILES": "O=C(O)C=1C=CC=C(OC(F)(F)F)C1N",
        "Molecular Formula": "C<sub>8</sub>H<sub>6</sub>F<sub>3</sub>NO<sub>3</sub>",
        "Molecular Mass": "221.13",
        "Melting Point": "99-101 °C"
    }
}