{
    "cas_no": "19351-18-9",
    "key_name": "2,2-Dimethylthiazolidine",
    "cn_name": "2,2-二甲基噻唑烷;2,2-二甲基四氢噻唑;",
    "alternate_name": "Thiazolidine, 2,2-dimethyl-;2,2-Dimethylthiazolidine;2,2-Dimethyl-1,3-thiazolidine;2,2-Dimethyltetrahydrothiazole",
    "duplicated_cas_no": "",
    "SMILES": "CC1(C)NCCS1",
    "meta_data": {
        "InChI": "InChI=1S/C5H11NS/c1-5(2)6-3-4-7-5/h6H,3-4H2,1-2H3",
        "InChIKey": null,
        "Canonical SMILES": "S1CCNC1(C)C",
        "Molecular Formula": "C<sub>5</sub>H<sub>11</sub>NS",
        "Molecular Mass": "117.21",
        "Boiling Point": "61 °C @ Press: 15 Torr"
    }
}