{
    "cas_no": "1892-57-5",
    "key_name": "1-Ethyl-3-(3′-dimethylaminopropyl)carbodiimide",
    "cn_name": "1-(3-二甲基氨基丙基)-3-乙基碳二亚胺;1-(3-二甲氨基丙基)-3-乙基碳二亚胺;",
    "alternate_name": "1,3-Propanediamine, <em>N</em><sup>3</sup>-(ethylcarbonimidoyl)-<em>N</em><sup>1</sup>,<em>N</em><sup>1</sup>-dimethyl-;Carbodiimide, [3-(dimethylamino)propyl]ethyl-;1,3-Propanediamine, <em>N</em>′-(ethylcarbonimidoyl)-<em>N</em>,<em>N</em>-dimethyl-;<em>N</em><sup>3</sup>-(Ethylcarbonimidoyl)-<em>N</em><sup>1</sup>,<em>N</em><sup>1</sup>-dimethyl-1,3-propanediamine;1-Ethyl-3-[3-(dimethylamino)propyl]carbodiimide;1-Ethyl-3-(dimethylaminopropyl)carbodiimide;<em>N</em>-Ethyl-<em>N</em>′-(3-dimethylaminopropyl)carbodiimide;3-(3-Dimethylaminopropyl)-1-ethylcarbodiimide;Dec;1-Ethyl-3-(3′-dimethylaminopropyl)carbodiimide;1-[3-(Dimethylamino)propyl]-3-ethylcarbodiimide;EDAC;<em>N</em>-(3-Dimethylaminopropyl)-<em>N</em>′-ethylcarbodiimide;1-Ethyl-3-(<em>N</em>,<em>N</em>-dimethylamino)propylcarbodiimide;EDC;3-Ethyl-1-(3-dimethylaminopropyl)carbodiimide;([[3-(Dimethylamino)propyl]imino]methylidene)(ethyl)amine;(3-Dimethylamino-propyl)-ethyl-carbodiimide;Ethyl-3-(3-dimethylaminopropyl)carbodiimide",
    "duplicated_cas_no": "205250-00-6",
    "SMILES": "C(N=C=NCC)CCN(C)C",
    "meta_data": {
        "InChI": "InChI=1S/C8H17N3/c1-4-9-8-10-6-5-7-11(2)3/h4-7H2,1-3H3",
        "InChIKey": null,
        "Canonical SMILES": "C(=NCC)=NCCCN(C)C",
        "Molecular Formula": "C<sub>8</sub>H<sub>17</sub>N<sub>3</sub>",
        "Molecular Mass": "155.24",
        "Boiling Point": "53-54 °C @ Press: 0.6 Torr"
    }
}