{
    "cas_no": "2746-19-2",
    "key_name": "Himic anhydride",
    "cn_name": "顺-5-降冰片烯-外型-2,3-二甲酸酐;",
    "alternate_name": "4,7-Methanoisobenzofuran-1,3-dione, 3a,4,7,7a-tetrahydro-, (3a<em>R</em>,4<em>R</em>,7<em>S</em>,7a<em>S</em>)-<em>rel</em>-;5-Norbornene-2,3-dicarboxylic anhydride, <em>cis</em>-<em>exo</em>-;4,7-Methanoisobenzofuran-1,3-dione, 3a,4,7,7a-tetrahydro-, (3aα,4β,7β,7aα)-;<em>rel</em>-(3a<em>R</em>,4<em>R</em>,7<em>S</em>,7a<em>S</em>)-3a,4,7,7a-Tetrahydro-4,7-methanoisobenzofuran-1,3-dione;<em>exo</em>-<em>cis</em>-3,6-<em>endo</em>-Methylene-Δ<sup>4</sup>-tetrahydrophthalic anhydride;<em>exo</em>-3,6-Methylene-1,2,3,6-tetrahydrophthalic anhydride;<em>exo</em>-3,6-Methylene-4-cyclohexene-1,2-dicarboxylic anhydride;<em>exo</em>-5-Norbornene-2,3-dicarboxylic anhydride;Himic anhydride;<em>exo</em>-<em>cis</em>-5-Norbornene-2,3-dicarboxylic anhydride;Bicyclo[2.2.1]hept-5-ene-2,3-dicarboxylic acid <em>exo</em>-anhydride;<em>exo</em>-5-Norbornene-1,2-dicarboxylic anhydride;<em>exo</em>-Nadic anhydride;<em>cis</em>-Norbornene-<em>exo</em>-2,3-dicarboxylic anhydride;NSC 110659;<em>cis</em>-5-Norbornene-<em>exo</em>-2,3-dicarboxylic anhydride;<em>exo</em>-2,3-Norbornenedicarboxylic acid anhydride;<em>exo</em>-Carbic anhydride;<em>exo</em>,<em>exo</em>-2,3-Norborn-5-enedicarboxylic anhydride;<em>cis</em>-5-Norbornene-<em>exo</em>-anhydride;NAH;<em>cis</em>-5-Norbornene-<em>e</em>xo-2,3-dicarboxylic anhydride;<em>exo</em>-Norbornene dicarboxylic anhydride;Cis 5-Norbornene-<em>exo</em>-2,3-dicarboxylic acid anhydride",
    "duplicated_cas_no": "38733-15-2;41527-41-7;1584642-27-2;1846566-88-8",
    "SMILES": "O=C1[C@]2([C@]([C@]3(C[C@@]2(C=C3)[H])[H])(C(=O)O1)[H])[H]",
    "meta_data": {
        "InChI": "InChI=1/C9H8O3/c10-8-6-4-1-2-5(3-4)7(6)9(11)12-8/h1-2,4-7H,3H2/t4-,5+,6+,7-",
        "InChIKey": null,
        "Canonical SMILES": "O=C1OC(=O)C2C3C=CC(C3)C12",
        "Molecular Formula": "C<sub>9</sub>H<sub>8</sub>O<sub>3</sub>",
        "Molecular Mass": "164.16",
        "Melting Point": "143 °C"
    }
}