{
    "cas_no": "142-94-9",
    "key_name": "2-Bromooctadecanoic acid",
    "cn_name": null,
    "alternate_name": "Octadecanoic acid, 2-bromo-;Stearic acid, α-bromo-;2-Bromooctadecanoic acid;2-Bromostearic acid;α-Bromostearic acid;<span class=\"text-smallcaps\">DL</span>-α-Bromostearic acid;NSC 58376",
    "duplicated_cas_no": "17108-71-3",
    "SMILES": "C(CCC(C(O)=O)Br)CCCCCCCCCCCCC",
    "meta_data": {
        "InChI": "InChI=1S/C18H35BrO2/c1-2-3-4-5-6-7-8-9-10-11-12-13-14-15-16-17(19)18(20)21/h17H,2-16H2,1H3,(H,20,21)",
        "InChIKey": null,
        "Canonical SMILES": "O=C(O)C(Br)CCCCCCCCCCCCCCCC",
        "Molecular Formula": "C<sub>18</sub>H<sub>35</sub>BrO<sub>2</sub>",
        "Molecular Mass": "363.37",
        "Melting Point": "58 °C"
    }
}