{
    "cas_no": "62935-72-2",
    "key_name": "7-Methoxycoumarin-4-acetic acid",
    "cn_name": "7-甲氧基香豆素-4-乙酸;7-甲氧基-2-氧代-2H-1-苯并吡喃-4-乙酸;",
    "alternate_name": "2<em>H</em>-1-Benzopyran-4-acetic acid, 7-methoxy-2-oxo-;7-Methoxy-2-oxo-2<em>H</em>-1-benzopyran-4-acetic acid;7-Methoxycoumarin-4-acetic acid;NSC 378137;MCA;(7-Methoxy-2-oxo-2<em>H</em>-chromen-4-yl)-acetic acid;2-(7-Methoxy-2-oxo-2<em>H</em>-chromen-4-yl)acetic acid;2-(7-Methoxy-2-oxochromen-4-yl)acetic acid",
    "duplicated_cas_no": "",
    "SMILES": "C(C(O)=O)C=1C=2C(=CC(OC)=CC2)OC(=O)C1",
    "meta_data": {
        "InChI": "InChI=1S/C12H10O5/c1-16-8-2-3-9-7(4-11(13)14)5-12(15)17-10(9)6-8/h2-3,5-6H,4H2,1H3,(H,13,14)",
        "InChIKey": null,
        "Canonical SMILES": "O=C1OC=2C=C(OC)C=CC2C(=C1)CC(=O)O",
        "Molecular Formula": "C<sub>12</sub>H<sub>10</sub>O<sub>5</sub>",
        "Molecular Mass": "234.20",
        "Melting Point": "170 °C (decomp)"
    }
}