{
    "cas_no": "35680-24-1",
    "key_name": "2-Chloro-6-methyl-3-pyridinol",
    "cn_name": null,
    "alternate_name": "3-Pyridinol, 2-chloro-6-methyl-;2-Chloro-6-methyl-3-pyridinol;2-Chloro-3-hydroxy-6-methylpyridine;2-Chloro-3-hydroxy-6-picoline",
    "duplicated_cas_no": "",
    "SMILES": "ClC1=C(O)C=CC(C)=N1",
    "meta_data": {
        "InChI": "InChI=1S/C6H6ClNO/c1-4-2-3-5(9)6(7)8-4/h2-3,9H,1H3",
        "InChIKey": null,
        "Canonical SMILES": "ClC=1N=C(C=CC1O)C",
        "Molecular Formula": "C<sub>6</sub>H<sub>6</sub>ClNO",
        "Molecular Mass": "143.57",
        "Melting Point": "196-198 °C"
    }
}