{
    "cas_no": "304853-42-7",
    "key_name": "Tanaproget",
    "cn_name": null,
    "alternate_name": "1<em>H</em>-Pyrrole-2-carbonitrile, 5-(1,4-dihydro-4,4-dimethyl-2-thioxo-2<em>H</em>-3,1-benzoxazin-6-yl)-1-methyl-;5-(1,4-Dihydro-4,4-dimethyl-2-thioxo-2<em>H</em>-3,1-benzoxazin-6-yl)-1-methyl-1<em>H</em>-pyrrole-2-carbonitrile;NSP 989;Tanaproget;5-(4,4-Dimethyl-2-thioxo-1,4-dihydro-2<em>H</em>-3,1-benzoxazin-6-yl)-1-methyl-1<em>H</em>-pyrrole-2-carbonitrile;5-(4,4-Dimethyl-2-thioxo-1,4-dihydro-2<em>H</em>-benzo[<em>d</em>][1,3]oxazin-6-yl)-1-methyl-1<em>H</em>-pyrrole-2-carbonitrile",
    "duplicated_cas_no": "",
    "SMILES": "CC1(C)C=2C(=CC=C(C2)C=3N(C)C(C#N)=CC3)NC(=S)O1",
    "meta_data": {
        "InChI": "InChI=1S/C16H15N3OS/c1-16(2)12-8-10(4-6-13(12)18-15(21)20-16)14-7-5-11(9-17)19(14)3/h4-8H,1-3H3,(H,18,21)",
        "InChIKey": null,
        "Canonical SMILES": "N#CC1=CC=C(C=2C=CC=3NC(=S)OC(C3C2)(C)C)N1C",
        "Molecular Formula": "C<sub>16</sub>H<sub>15</sub>N<sub>3</sub>OS",
        "Molecular Mass": "297.37",
        "Melting Point": "225-228 °C"
    }
}