{
    "cas_no": "38641-16-6",
    "key_name": "Dodecylnaphthalene",
    "cn_name": "1-十二烷基萘;",
    "alternate_name": "Naphthalene, dodecyl-;Dodecylnaphthalene",
    "duplicated_cas_no": "",
    "SMILES": "",
    "meta_data": {
        "InChI": "",
        "InChIKey": null,
        "Canonical SMILES": "",
        "Molecular Formula": "C<sub>22</sub>H<sub>32</sub>",
        "Molecular Mass": "",
        "Boiling Point": "192-215 °C @ Press: 5 Torr"
    }
}