{
    "cas_no": "16369-21-4",
    "key_name": "<em>N</em>-Propylethanolamine",
    "cn_name": null,
    "alternate_name": "Ethanol, 2-(propylamino)-;2-(Propylamino)ethanol;Mono-<em>n</em>-propylaminoethanol;2-Propylaminoethanol;<em>N</em>-Propylethanolamine;(2-Hydroxyethyl)propylamine;Propyl(2-hydroxyethyl)amine;<em>N</em>-Propyl-2-hydroxy-1-ethylamine;<em>N</em>-Propyl-2-hydroxyethylamine;2-(Propylamino)ethan-1-ol",
    "duplicated_cas_no": "",
    "SMILES": "N(CCC)CCO",
    "meta_data": {
        "InChI": "InChI=1S/C5H13NO/c1-2-3-6-4-5-7/h6-7H,2-5H2,1H3",
        "InChIKey": null,
        "Canonical SMILES": "OCCNCCC",
        "Molecular Formula": "C<sub>5</sub>H<sub>13</sub>NO",
        "Molecular Mass": "103.16",
        "Boiling Point": "183 °C",
        "Density": "0.9005 g/cm³"
    }
}