{
    "cas_no": "32672-69-8",
    "key_name": "Mesoridazine besylate",
    "cn_name": null,
    "alternate_name": "10<em>H</em>-Phenothiazine, 10-[2-(1-methyl-2-piperidinyl)ethyl]-2-(methylsulfinyl)-, benzenesulfonate (1:1);Benzenesulfonic acid, compd. with 10-[2-(1-methyl-2-piperidinyl)ethyl]-2-(methylsulfinyl)-10<em>H</em>-phenothiazine (1:1);10<em>H</em>-Phenothiazine, 10-[2-(1-methyl-2-piperidinyl)ethyl]-2-(methylsulfinyl)-, monobenzenesulfonate;Benzenesulfonic acid, compd. with 10-[2-(1-methyl-2-piperidyl)ethyl]-2-(methylsulfinyl)phenothiazine (1:1);NC 123;Mesoridazine besylate;Mesoridazine benzenesulfonate;Lidanar;Lidanil;10-(2-(1-Methylpiperidin-2-yl)ethyl)-2-(methylsulfinyl)-10<em>H</em>-phenothiazine benzenesulfonate",
    "duplicated_cas_no": "14864-86-9",
    "SMILES": "C(CC1N(C)CCCC1)N2C=3C(SC=4C2=CC=CC4)=CC=C(S(C)=O)C3.S(=O)(=O)(O)C1=CC=CC=C1",
    "meta_data": {
        "InChI": "InChI=1S/C21H26N2OS2.C6H6O3S/c1-22-13-6-5-7-16(22)12-14-23-18-8-3-4-9-20(18)25-21-11-10-17(26(2)24)15-19(21)23;7-10(8,9)6-4-2-1-3-5-6/h3-4,8-11,15-16H,5-7,12-14H2,1-2H3;1-5H,(H,7,8,9)",
        "InChIKey": null,
        "Canonical SMILES": "O=S(C1=CC=C2SC=3C=CC=CC3N(C2=C1)CCC4N(C)CCCC4)C.O=S(=O)(O)C=1C=CC=CC1",
        "Molecular Formula": "C<sub>21</sub>H<sub>26</sub>N<sub>2</sub>OS<sub>2</sub>.C<sub>6</sub>H<sub>6</sub>O<sub>3</sub>S",
        "Molecular Mass": "",
        "Melting Point": "174-175 °C"
    }
}