{
    "cas_no": "10272-49-8",
    "key_name": "4-Phenylpiperidine hydrochloride",
    "cn_name": null,
    "alternate_name": "Piperidine, 4-phenyl-, hydrochloride (1:1);Piperidine, 4-phenyl-, hydrochloride;4-Phenylpiperidine hydrochloride;1,2,3,6-Tetrahydro-4-phenylpiperidine hydrochloride;4-Phenylpiperidinium chloride",
    "duplicated_cas_no": "",
    "SMILES": "C1(=CC=CC=C1)C2CCNCC2.Cl",
    "meta_data": {
        "InChI": "InChI=1S/C11H15N.ClH/c1-2-4-10(5-3-1)11-6-8-12-9-7-11;/h1-5,11-12H,6-9H2;1H",
        "InChIKey": null,
        "Canonical SMILES": "Cl.C=1C=CC(=CC1)C2CCNCC2",
        "Molecular Formula": "C<sub>11</sub>H<sub>15</sub>N.ClH",
        "Molecular Mass": "",
        "Melting Point": "164-165 °C"
    }
}