{
    "cas_no": "14678-05-8",
    "key_name": "5-Isoxazolamine",
    "cn_name": null,
    "alternate_name": "5-Isoxazolamine;Isoxazole, 5-amino-;5-Aminoisoxazole;5-Amino-1,2-oxazole;1,2-Oxazol-5-amine",
    "duplicated_cas_no": "",
    "SMILES": "NC1=CC=NO1",
    "meta_data": {
        "InChI": "InChI=1S/C3H4N2O/c4-3-1-2-5-6-3/h1-2H,4H2",
        "InChIKey": null,
        "Canonical SMILES": "N=1OC(N)=CC1",
        "Molecular Formula": "C<sub>3</sub>H<sub>4</sub>N<sub>2</sub>O",
        "Molecular Mass": "84.08",
        "Melting Point": "75-77 °C"
    }
}