{
    "cas_no": "614-23-3",
    "key_name": "Benzoylthiourea",
    "cn_name": "1-苯甲酰-2-硫脲;苯酰硫代脲;",
    "alternate_name": "Benzamide, <em>N</em>-(aminothioxomethyl)-;Urea, 1-benzoyl-2-thio-;<em>N</em>-(Aminothioxomethyl)benzamide;1-Benzoyl-2-thiourea;Benzoylthiourea;<em>N</em>-Benzoylthiourea;Necacyl;1-Benzoylthiourea;NSC 5784",
    "duplicated_cas_no": "1400-50-6",
    "SMILES": "C(NC(N)=S)(=O)C1=CC=CC=C1",
    "meta_data": {
        "InChI": "InChI=1S/C8H8N2OS/c9-8(12)10-7(11)6-4-2-1-3-5-6/h1-5H,(H3,9,10,11,12)",
        "InChIKey": null,
        "Canonical SMILES": "O=C(NC(=S)N)C=1C=CC=CC1",
        "Molecular Formula": "C<sub>8</sub>H<sub>8</sub>N<sub>2</sub>OS",
        "Molecular Mass": "180.23",
        "Melting Point": "171-172 °C"
    }
}