{
    "cas_no": "557-07-3",
    "key_name": "Zinc oleate",
    "cn_name": "油酸锌;(Z)-9-十八烯酸锌盐;",
    "alternate_name": "9-Octadecenoic acid (9<em>Z</em>)-, zinc salt (2:1);Oleic acid, zinc salt;9-Octadecenoic acid (<em>Z</em>)-, zinc salt;9-Octadecenoic acid (9<em>Z</em>)-, zinc salt;Zinc oleate;Daiwax OZ;Zinc dioleate",
    "duplicated_cas_no": "",
    "SMILES": "C(C/C=C\\CCCCCCCC)CCCCCC(O)=O.[Zn]",
    "meta_data": {
        "InChI": "InChI=1S/C18H34O2.Zn/c1-2-3-4-5-6-7-8-9-10-11-12-13-14-15-16-17-18(19)20;/h9-10H,2-8,11-17H2,1H3,(H,19,20);/b10-9-;",
        "InChIKey": null,
        "Canonical SMILES": "[Zn].O=C(O)CCCCCCCC=CCCCCCCCC",
        "Molecular Formula": "C<sub>18</sub>H<sub>34</sub>O<sub>2</sub>.<sup>1</sup>/<sub>2</sub>Zn",
        "Molecular Mass": "",
        "Melting Point": "85.5 °C"
    }
}