{
    "cas_no": "7484-37-9",
    "key_name": "Phosphonium, triphenyl(3-phenylpropyl)-, bromide (1:1)",
    "cn_name": "(3-苯丙基)三苯基溴化膦;",
    "alternate_name": "Phosphonium, triphenyl(3-phenylpropyl)-, bromide (1:1);Phosphonium, triphenyl(3-phenylpropyl)-, bromide;Triphenyl(3-phenylpropyl)phosphonium bromide;(3-Phenylpropyl)triphenylphosphonium bromide;NSC 110598",
    "duplicated_cas_no": "127083-25-4;830345-58-9;5717-39-5",
    "SMILES": "[P+](CCCC1=CC=CC=C1)(C2=CC=CC=C2)(C3=CC=CC=C3)C4=CC=CC=C4.[Br-]",
    "meta_data": {
        "InChI": "InChI=1S/C27H26P.BrH/c1-5-14-24(15-6-1)16-13-23-28(25-17-7-2-8-18-25,26-19-9-3-10-20-26)27-21-11-4-12-22-27;/h1-12,14-15,17-22H,13,16,23H2;1H/q+1;/p-1",
        "InChIKey": null,
        "Canonical SMILES": "[Br-].C=1C=CC(=CC1)CCC[P+](C=2C=CC=CC2)(C=3C=CC=CC3)C=4C=CC=CC4",
        "Molecular Formula": "C<sub>27</sub>H<sub>26</sub>P.Br",
        "Molecular Mass": "",
        "Melting Point": "205 °C"
    }
}