{
    "cas_no": "20537-88-6",
    "key_name": "Amifostine",
    "cn_name": "氨磷汀;安磷汀;S-2-[3-氨丙基胺]乙基硫代磷酸;",
    "alternate_name": "Ethanethiol, 2-[(3-aminopropyl)amino]-, 1-(dihydrogen phosphate);Phosphorothioic acid, <em>S</em>-[2-[(3-aminopropyl)amino]ethyl] ester;Ethanethiol, 2-[(3-aminopropyl)amino]-, dihydrogen phosphate (ester);WR 2721C;WR 2721;<em>S</em>-[<em>N</em>-(3-Aminopropyl)-2-aminoethyl] dihydrogen thiophosphate;Gammaphos;Aminopropylaminoethyl thiophosphate;<em>S</em>-[2-(3-Aminopropylamino)ethyl] phosphorothioate;<em>S</em>-[2-[(3-Aminopropyl)amino]ethyl] dihydrogen phosphorothioate;YM 08310;2-(3-Aminopropylamino)ethyl thiophosphate;Ethiofos;NSC 296961;Amifostine;Ethyol;S 8744;SAPEP;([2-[(3-Aminopropyl)amino]ethyl]sulfanyl)phosphonic acid;MeSH ID: D004999",
    "duplicated_cas_no": "53028-04-9",
    "SMILES": "S(CCNCCCN)P(=O)(O)O",
    "meta_data": {
        "InChI": "InChI=1S/C5H15N2O3PS/c6-2-1-3-7-4-5-12-11(8,9)10/h7H,1-6H2,(H2,8,9,10)",
        "InChIKey": null,
        "Canonical SMILES": "O=P(O)(O)SCCNCCCN",
        "Molecular Formula": "C<sub>5</sub>H<sub>15</sub>N<sub>2</sub>O<sub>3</sub>PS",
        "Molecular Mass": "214.22",
        "Melting Point": "160-161 °C"
    }
}