{
    "cas_no": "818-44-0",
    "key_name": "Vinyl octanoate",
    "cn_name": "辛酸乙烯酯;",
    "alternate_name": "Octanoic acid, ethenyl ester;Octanoic acid, vinyl ester;Vinyl caprylate;Caprylic acid, vinyl ester;Vinyl octanoate;Vinyl <em>n</em>-octanoate;NSC 32643",
    "duplicated_cas_no": "",
    "SMILES": "C(CCCCCCC)(OC=C)=O",
    "meta_data": {
        "InChI": "InChI=1S/C10H18O2/c1-3-5-6-7-8-9-10(11)12-4-2/h4H,2-3,5-9H2,1H3",
        "InChIKey": null,
        "Canonical SMILES": "O=C(OC=C)CCCCCCC",
        "Molecular Formula": "C<sub>10</sub>H<sub>18</sub>O<sub>2</sub>",
        "Molecular Mass": "170.25",
        "Boiling Point": "94 °C",
        "Density": "0.8889 g/cm³ @ Temp: 20 °C"
    }
}