{
    "cas_no": "87-41-2",
    "key_name": "Phthalide",
    "cn_name": "苯酞;邻羟甲基苯甲酸内酯;",
    "alternate_name": "1(3<em>H</em>)-Isobenzofuranone;Phthalide;1-Phthalanone;2-Hydroxymethylbenzoic acid γ-lactone;Phthalolactone;NSC 1469;3<em>H</em>-Isobenzofuran-1-one;2-Benzofuran-1(3<em>H</em>)-one;1,3-Dihydro-2-benzofuran-1-one",
    "duplicated_cas_no": "1135443-46-7",
    "SMILES": "O=C1C=2C(=CC=CC2)CO1",
    "meta_data": {
        "InChI": "InChI=1S/C8H6O2/c9-8-7-4-2-1-3-6(7)5-10-8/h1-4H,5H2",
        "InChIKey": null,
        "Canonical SMILES": "O=C1OCC=2C=CC=CC12",
        "Molecular Formula": "C<sub>8</sub>H<sub>6</sub>O<sub>2</sub>",
        "Molecular Mass": "134.13",
        "Boiling Point": "290 °C",
        "Melting Point": "75 °C",
        "Density": "1.1636 g/cm³ @ Temp: 99.1 °C"
    }
}