{
    "cas_no": "35474-99-8",
    "key_name": "1-Monoarachidin",
    "cn_name": null,
    "alternate_name": "5,8,11,14-Eicosatetraenoic acid, 2,3-dihydroxypropyl ester, (5<em>Z</em>,8<em>Z</em>,11<em>Z</em>,14<em>Z</em>)-;5,8,11,14-Eicosatetraenoic acid, 2,3-dihydroxypropyl ester, (<em>all</em>-<em>Z</em>)-;1-Monoarachidin;1-Monoarachidonoyl-<em>rac</em>-glycerol;(<em>all</em>-<em>Z</em>)-(±)-2,3-Dihydroxypropyl 5,8,11,14-eicosatetraenoate;1-Arachidonoylglycerol;2,3-Dihydroxypropyl (5<em>Z</em>,8<em>Z</em>,11<em>Z</em>,14<em>Z</em>)-icosa-5,8,11,14-tetraenoate;1-Arachidonylglycerol",
    "duplicated_cas_no": "75656-21-2",
    "SMILES": "C(CC/C=C\\C/C=C\\C/C=C\\C/C=C\\CCCCC)C(OCC(CO)O)=O",
    "meta_data": {
        "InChI": "InChI=1/C23H38O4/c1-2-3-4-5-6-7-8-9-10-11-12-13-14-15-16-17-18-19-23(26)27-21-22(25)20-24/h6-7,9-10,12-13,15-16,22,24-25H,2-5,8,11,14,17-21H2,1H3/b7-6-,10-9-,13-12-,16-15-",
        "InChIKey": null,
        "Canonical SMILES": "O=C(OCC(O)CO)CCCC=CCC=CCC=CCC=CCCCCC",
        "Molecular Formula": "C<sub>23</sub>H<sub>38</sub>O<sub>4</sub>",
        "Molecular Mass": "378.55",
        "Melting Point": "81.5 °C"
    }
}