{
    "cas_no": "57-53-4",
    "key_name": "Meprobamate",
    "cn_name": "甲丙氨酯;2-甲基-2-丙基-1,3-丙二醇二氨基甲酸酯;",
    "alternate_name": "1,3-Propanediol, 2-methyl-2-propyl-, 1,3-dicarbamate;1,3-Propanediol, 2-methyl-2-propyl-, dicarbamate;Andaxin;Apascil;Atraxin;Biobamat;Calmiren;Canquil-400;Cirpon;Cyrpon;Dicandiol;2,2-Di(carbamoyloxymethyl)pentane;Ecuanil;Equanil;Equanil Suspension;Harmonin;Mepantin;Mepavlon;Meprobamate;Meproban;Meprocon CMC;Meprosin;Meprospan;Meprotabs;Meprotan;2-Methyl-2-<em>n</em>-propyl-1,3-propanediol dicarbamate;2-Methyl-2-propyl-1,3-propanediol dicarbamate;Miltaun;Miltown;Nervonus;Oasil;Panediol;Perequil;Perquietil;Pertranquil;Placidon;Probamyl;Procalmadiol;Promate;Quanil;Sedazil;Urbil;Vio-Bamate;Tranquilan;Carbamic acid 2-methyl-2-propyltrimethylene ester;Procalmidol;Anastress;Aneural;Arcoban;Artolon;Ayeramate;Bamo 400;Biobamate;Calmax;Cap-O-Tran;Crestanil;Equinil;Fas-Cile 200;Gadexyl;Hartol;Holbamate;Kesso-Bamate;Klort;Larten;Lepetown;Libiolan;Mar-Bate;Meposed;Meprin (meprobamate);Meprindon;Meprocompren;Meprol;Meprotil;Meptran;Mesmar;Morbam;Placitate;Protran;Quaname;Reostral;Restenil;Robamate;Seril;Setran;Sowell;Tamate;Trankvilan;Tranlisant;Tranquilax;Urbilat;Carbaxin;Meprobamat;Amepromat;Anatimon;Ansiatan;Diron;Anzil;Rastenil;Sedanil;Mepronil;Metranquil;Tranquiline;Meprobam;Appetrol;PMB 400;Miltrate;My-trans;Mepr;Amosene;Milprem;Meproten;PMB 200;Micrainin;NSC 30418;Microbamat;Meprobamat-Petrasch;Epikur;Carb-A-Med;2-Methyl-2-propyltrimethylene dicarbamate;MeSH ID: D008620",
    "duplicated_cas_no": "",
    "SMILES": "C(COC(N)=O)(COC(N)=O)(CCC)C",
    "meta_data": {
        "InChI": "InChI=1S/C9H18N2O4/c1-3-4-9(2,5-14-7(10)12)6-15-8(11)13/h3-6H2,1-2H3,(H2,10,12)(H2,11,13)",
        "InChIKey": null,
        "Canonical SMILES": "O=C(OCC(C)(COC(=O)N)CCC)N",
        "Molecular Formula": "C<sub>9</sub>H<sub>18</sub>N<sub>2</sub>O<sub>4</sub>",
        "Molecular Mass": "218.25",
        "Boiling Point": "200-210 °C",
        "Melting Point": "104-106 °C",
        "Density": "1.247 g/cm³"
    }
}