{
    "cas_no": "402-61-9",
    "key_name": "5-Methyl-1<em>H</em>-pyrazole-3-carboxylic acid",
    "cn_name": "5-甲基-1H-吡唑-3-羧酸;5-甲基-1H-吡唑-3-羧酸;",
    "alternate_name": "1<em>H</em>-Pyrazole-3-carboxylic acid, 5-methyl-;Pyrazole-3-carboxylic acid, 5-methyl-;Pyrazole-3(<em>or</em> 5)-carboxylic acid, 5(<em>or</em> 3)-methyl-;5-Methyl-1<em>H</em>-pyrazole-3-carboxylic acid;U 19425;5-Methylpyrazole-3-carboxylic acid;3-Methylpyrazole-5-carboxylic acid;5-Carboxy-3-methylpyrazole;5-Methyl-3-carboxypyrazole;3-Carboxy-5-methylpyrazole;AS 057278",
    "duplicated_cas_no": "14192-17-7",
    "SMILES": "C(O)(=O)C=1C=C(C)NN1",
    "meta_data": {
        "InChI": "InChI=1S/C5H6N2O2/c1-3-2-4(5(8)9)7-6-3/h2H,1H3,(H,6,7)(H,8,9)",
        "InChIKey": null,
        "Canonical SMILES": "O=C(O)C1=NNC(=C1)C",
        "Molecular Formula": "C<sub>5</sub>H<sub>6</sub>N<sub>2</sub>O<sub>2</sub>",
        "Molecular Mass": "126.11",
        "Melting Point": "236 °C"
    }
}