{
    "cas_no": "40432-84-6",
    "key_name": "(5-Bromo-1<em>H</em>-indol-3-yl)acetic acid",
    "cn_name": "5-溴吲哚-3-乙酸;",
    "alternate_name": "1<em>H</em>-Indole-3-acetic acid, 5-bromo-;5-Bromo-1<em>H</em>-indole-3-acetic acid;5-Bromo-IAA;5-Bromo-3-indoleacetic acid;2-(5-Bromo-1<em>H</em>-indol-3-yl)acetic acid;NSC 88145;(5-Bromo-1<em>H</em>-indol-3-yl)acetic acid;(5-Bromoindol-3-yl)acetic acid",
    "duplicated_cas_no": "",
    "SMILES": "C(C(O)=O)C=1C=2C(NC1)=CC=C(Br)C2",
    "meta_data": {
        "InChI": "InChI=1S/C10H8BrNO2/c11-7-1-2-9-8(4-7)6(5-12-9)3-10(13)14/h1-2,4-5,12H,3H2,(H,13,14)",
        "InChIKey": null,
        "Canonical SMILES": "O=C(O)CC1=CNC=2C=CC(Br)=CC21",
        "Molecular Formula": "C<sub>10</sub>H<sub>8</sub>BrNO<sub>2</sub>",
        "Molecular Mass": "254.08",
        "Melting Point": "144-146 °C"
    }
}