{
    "cas_no": "4144-62-1",
    "key_name": "5-Benzoylvaleric acid",
    "cn_name": "5-苯甲酰戊酸;",
    "alternate_name": "Benzenehexanoic acid, ε-oxo-;Valeric acid, 5-benzoyl-;ε-Oxobenzenehexanoic acid;5-Benzoylvaleric acid;δ-Benzoylvaleric acid;6-Oxo-6-phenylhexanoic acid;5-Benzoylpentanoic acid;NSC 11351",
    "duplicated_cas_no": "",
    "SMILES": "C(CCCCC(O)=O)(=O)C1=CC=CC=C1",
    "meta_data": {
        "InChI": "InChI=1S/C12H14O3/c13-11(8-4-5-9-12(14)15)10-6-2-1-3-7-10/h1-3,6-7H,4-5,8-9H2,(H,14,15)",
        "InChIKey": null,
        "Canonical SMILES": "O=C(O)CCCCC(=O)C=1C=CC=CC1",
        "Molecular Formula": "C<sub>12</sub>H<sub>14</sub>O<sub>3</sub>",
        "Molecular Mass": "206.24",
        "Melting Point": "77-78 °C"
    }
}