{
    "cas_no": "97-42-7",
    "key_name": "Carvyl acetate",
    "cn_name": "2-甲基-5-(2-丙烯基)-2-环己烯-1-醇乙酸酯;",
    "alternate_name": "2-Cyclohexen-1-ol, 2-methyl-5-(1-methylethenyl)-, 1-acetate;<em>p</em>-Mentha-6,8-dien-2-ol, acetate;2-Cyclohexen-1-ol, 2-methyl-5-(1-methylethenyl)-, acetate;Carveol acetate;Carvyl acetate;Carveyl acetate;(2-Methyl-5-prop-1-en-2-ylcyclohex-2-en-1-yl) acetate",
    "duplicated_cas_no": "22567-13-1",
    "SMILES": "O(C(C)=O)C1CC(C(C)=C)CC=C1C",
    "meta_data": {
        "InChI": "InChI=1S/C12H18O2/c1-8(2)11-6-5-9(3)12(7-11)14-10(4)13/h5,11-12H,1,6-7H2,2-4H3",
        "InChIKey": null,
        "Canonical SMILES": "O=C(OC1C(=CCC(C(=C)C)C1)C)C",
        "Molecular Formula": "C<sub>12</sub>H<sub>18</sub>O<sub>2</sub>",
        "Molecular Mass": "194.27",
        "Boiling Point": "128-132 °C @ Press: 14 Torr",
        "Density": "1.0038 g/cm³ @ Temp: 20 °C"
    }
}