{
    "cas_no": "28804-88-8",
    "key_name": "Dimethylnaphthalene",
    "cn_name": null,
    "alternate_name": "Naphthalene, dimethyl-;Dimethylnaphthalene",
    "duplicated_cas_no": "1335-93-9;27457-31-4;65338-04-7;65338-08-1",
    "SMILES": "",
    "meta_data": {
        "InChI": "",
        "InChIKey": null,
        "Canonical SMILES": "",
        "Molecular Formula": "C<sub>12</sub>H<sub>12</sub>",
        "Molecular Mass": "",
        "Boiling Point": "265 °C",
        "Density": "1.0052 g/cm³ @ Temp: 20 °C"
    }
}