{
    "cas_no": "18666-65-4",
    "key_name": "1,1′,1′′-[(Ethenylsilylidyne)tris(oxy)]tris[benzene]",
    "cn_name": "三苯氧基乙烯基硅烷;",
    "alternate_name": "Benzene, 1,1′,1′′-[(ethenylsilylidyne)tris(oxy)]tris-;Silane, triphenoxyvinyl-;Silane, ethenyltriphenoxy-;1,1′,1′′-[(Ethenylsilylidyne)tris(oxy)]tris[benzene];Triphenoxyvinylsilane;Vinyltriphenoxysilane",
    "duplicated_cas_no": "",
    "SMILES": "[Si](OC1=CC=CC=C1)(OC2=CC=CC=C2)(OC3=CC=CC=C3)C=C",
    "meta_data": {
        "InChI": "InChI=1S/C20H18O3Si/c1-2-24(21-18-12-6-3-7-13-18,22-19-14-8-4-9-15-19)23-20-16-10-5-11-17-20/h2-17H,1H2",
        "InChIKey": null,
        "Canonical SMILES": "O(C=1C=CC=CC1)[Si](OC=2C=CC=CC2)(OC=3C=CC=CC3)C=C",
        "Molecular Formula": "C<sub>20</sub>H<sub>18</sub>O<sub>3</sub>Si",
        "Molecular Mass": "334.44",
        "Boiling Point": "210 °C @ Press: 7 Torr",
        "Density": "1.130 g/cm³ @ Temp: 25 °C"
    }
}