{
    "cas_no": "100981-43-9",
    "key_name": "Ebrotidine",
    "cn_name": null,
    "alternate_name": "Benzenesulfonamide, <em>N</em>-[[[2-[[[2-[(aminoiminomethyl)amino]-4-thiazolyl]methyl]thio]ethyl]amino]methylene]-4-bromo-, [<em>N</em>(<em>E</em>)]-;Benzenesulfonamide, <em>N</em>-[[[2-[[[2-[(aminoiminomethyl)amino]-4-thiazolyl]methyl]thio]ethyl]amino]methylene]-4-bromo-, (<em>E</em>)-;[<em>N</em>(<em>E</em>)]-<em>N</em>-[[[2-[[[2-[(Aminoiminomethyl)amino]-4-thiazolyl]methyl]thio]ethyl]amino]methylene]-4-bromobenzenesulfonamide;Ebrotidine;FI 3542;Ulsanic;Ebrodin",
    "duplicated_cas_no": "",
    "SMILES": "C(SCCN/C=N/S(=O)(=O)C1=CC=C(Br)C=C1)C=2N=C(NC(=N)N)SC2",
    "meta_data": {
        "InChI": "InChI=1S/C14H17BrN6O2S3/c15-10-1-3-12(4-2-10)26(22,23)19-9-18-5-6-24-7-11-8-25-14(20-11)21-13(16)17/h1-4,8-9H,5-7H2,(H,18,19)(H4,16,17,20,21)",
        "InChIKey": null,
        "Canonical SMILES": "O=S(=O)(N=CNCCSCC=1N=C(SC1)NC(=N)N)C2=CC=C(Br)C=C2",
        "Molecular Formula": "C<sub>14</sub>H<sub>17</sub>BrN<sub>6</sub>O<sub>2</sub>S<sub>3</sub>",
        "Molecular Mass": "477.42",
        "Melting Point": "142.5-146 °C"
    }
}