{
    "cas_no": "646-04-8",
    "key_name": "<em>trans</em>-2-Pentene",
    "cn_name": null,
    "alternate_name": "2-Pentene, (2<em>E</em>)-;2-Pentene, (<em>E</em>)-;2-Pentene, <em>trans</em>-;(2<em>E</em>)-2-Pentene;<em>trans</em>-β-Amylene;<em>trans</em>-2-Pentene;(<em>E</em>)-2-Pentene;2-<em>trans</em>-Pentene",
    "duplicated_cas_no": "32968-64-2",
    "SMILES": "C(\\CC)=C/C",
    "meta_data": {
        "InChI": "InChI=1S/C5H10/c1-3-5-4-2/h3,5H,4H2,1-2H3/b5-3+",
        "InChIKey": null,
        "Canonical SMILES": "C(=CCC)C",
        "Molecular Formula": "C<sub>5</sub>H<sub>10</sub>",
        "Molecular Mass": "70.13",
        "Boiling Point": "36.3 °C",
        "Melting Point": "-140.2 °C",
        "Density": "0.6431 g/cm³ @ Temp: 25 °C"
    }
}