{
    "cas_no": "63-42-3",
    "key_name": "(+)-Lactose",
    "cn_name": "乳糖;",
    "alternate_name": "<span class=\"text-smallcaps\">D</smallcap>-Glucose, 4-<em>O</em>-β-<smallcap>D</span>-galactopyranosyl-;Lactose;4-<em>O</em>-β-<span class=\"text-smallcaps\">D</smallcap>-Galactopyranosyl-<smallcap>D</span>-glucose;Lactin;Lactobiose;Milk sugar;Saccharum lactin;Lactin (carbohydrate);(+)-Lactose;Lactose anhydrous;Aletobiose;Galactinum;Osmolactan;<span class=\"text-smallcaps\">D</span>-(+)-Lactose;Tablettose;Fast-flo;AHL;Zeparox EP;Lactose Fast-flo;Fast-Flo Lactose;Pharmatose 21;Pharmatose 325M;Nonpareil 107;Tablettose 70;Lactose anhydride;Flowlac 100;Tablettose 80;Super-Tab;Pharmatosa DCL 21;Sorbalac 400;DCl 11;Granulac 140M;Respitose SV 003;Prismalac;Sachelac;Spherolac;Pharmatose DCL 15;Respitose ML 003;Lactohale 300;Sorbolac 400;Dilactose;Lactose Edible 90;SuperTab 21AN;Respitose ML 001;Granulac 70;Granulac 140;Lactohale 100;Lactohale 200;Variolac 960;PrenoLakt;SuperTab 11SD;Respitose ML 006;DCL 15;Inhalac 70;Dairylac 80;Respitose SV 010;Respitose MC 001;LE-PRO LAC 451;Lactose DCL 11;Inhalac 250;Tablettose 100;America Grand Lactose;GranuLac;FlowLac;DuraLacH;Hilmar Extra Fine;Lactose DCL 21;Hilmar Fine Graind;Lactopure Refined Powder;Respitose SV 001;Hilmar 5030;Leprino 100;MeSH ID: D007785",
    "duplicated_cas_no": "1336-90-9;35396-14-6;36570-80-6;73824-63-2;89466-76-2;200734-90-3;396716-09-9;1065027-17-9",
    "SMILES": "O([C@@H]([C@@H]([C@H](C=O)O)O)[C@@H](CO)O)[C@@H]1O[C@H](CO)[C@H](O)[C@H](O)[C@H]1O",
    "meta_data": {
        "InChI": "InChI=1S/C12H22O11/c13-1-4(16)7(18)11(5(17)2-14)23-12-10(21)9(20)8(19)6(3-15)22-12/h1,4-12,14-21H,2-3H2/t4-,5+,6+,7+,8-,9-,10+,11+,12-/m0/s1",
        "InChIKey": null,
        "Canonical SMILES": "O=CC(O)C(O)C(OC1OC(CO)C(O)C(O)C1O)C(O)CO",
        "Molecular Formula": "C<sub>12</sub>H<sub>22</sub>O<sub>11</sub>",
        "Molecular Mass": "342.30",
        "Melting Point": "201-202 °C",
        "Density": "1.52 g/cm³"
    }
}