{
    "cas_no": "150-68-5",
    "key_name": "3-(4-Chlorophenyl)-1,1-dimethylurea",
    "cn_name": null,
    "alternate_name": "Urea, <em>N</em>′-(4-chlorophenyl)-<em>N</em>,<em>N</em>-dimethyl-;Urea, 3-(<em>p</em>-chlorophenyl)-1,1-dimethyl-;<em>N</em>′-(4-Chlorophenyl)-<em>N</em>,<em>N</em>-dimethylurea;<em>N</em>-(<em>p</em>-Chlorophenyl)-<em>N</em>′,<em>N</em>′-dimethylurea;1-(<em>p</em>-Chlorophenyl)-3,3-dimethylurea;3-(<em>p</em>-Chlorophenyl)-1,1-dimethylurea;3-(4-Chlorophenyl)-1,1-dimethylurea;CMU;1,1-Dimethyl-3-(<em>p</em>-chlorophenyl)urea;Karmex Monuron Herbicide;Karmex W. monuron herbicide;Monuron;Telvar;Telvar Monuron Weedkiller;Telvar W. monuron weedkiller;<em>N</em>,<em>N</em>-Dimethyl-<em>N</em>′-(4-chlorophenyl)urea;<em>N</em>-(4-Chlorophenyl)-<em>N</em>′,<em>N</em>′-dimethylurea;1-(4-Chlorophenyl)-3,3-dimethylurea;1,1-Dimethyl-3-(4-chlorophenyl)urea;NSC 8949;<em>N</em>′-<em>p</em>-Chlorophenyl-<em>N</em>,<em>N</em>-dimethylurea;Chlorfenidim",
    "duplicated_cas_no": "",
    "SMILES": "N(C(N(C)C)=O)C1=CC=C(Cl)C=C1",
    "meta_data": {
        "InChI": "InChI=1S/C9H11ClN2O/c1-12(2)9(13)11-8-5-3-7(10)4-6-8/h3-6H,1-2H3,(H,11,13)",
        "InChIKey": null,
        "Canonical SMILES": "O=C(NC1=CC=C(Cl)C=C1)N(C)C",
        "Molecular Formula": "C<sub>9</sub>H<sub>11</sub>ClN<sub>2</sub>O",
        "Molecular Mass": "198.65",
        "Melting Point": "170.5-171.5 °C",
        "Density": "1.27 g/cm³ @ Temp: 20 °C"
    }
}