{
    "cas_no": "4276-09-9",
    "key_name": "<span class=\"text-smallcaps\">D</span>-Valinol",
    "cn_name": "D-缬氨醇;(R)-(-)-2-氨基-3-甲基-1-丁醇;",
    "alternate_name": "1-Butanol, 2-amino-3-methyl-, (2<em>R</em>)-;1-Butanol, 2-amino-3-methyl-, <span class=\"text-smallcaps\">D</span>-;1-Butanol, 2-amino-3-methyl-, (<em>R</em>)-;(2<em>R</em>)-2-Amino-3-methyl-1-butanol;<span class=\"text-smallcaps\">D</span>-Valinol;(-)-Valinol;(<em>R</em>)-Valinol;(<em>R</em>)-(-)-2-Amino-3-methyl-1-butanol;(<em>R</em>)-2-Amino-3-methyl-1-butanol;(<em>R</em>)-2-Amino-3-methylbutanol;(2<em>R</em>)-2-Amino-3-methylbutan-1-ol;[(<em>R</em>)-1-(Hydroxymethyl)-2-methylpropyl]amine;(-)-2-Amino-3-methyl-1-butanol;(R)-(-)-2-Amino-3-methyl-1-butanol;(R)-2-Amino-3-methylbutan-2-ol",
    "duplicated_cas_no": "1206896-36-7",
    "SMILES": "[C@@H](C(C)C)(CO)N",
    "meta_data": {
        "InChI": "InChI=1S/C5H13NO/c1-4(2)5(6)3-7/h4-5,7H,3,6H2,1-2H3/t5-/m0/s1",
        "InChIKey": null,
        "Canonical SMILES": "OCC(N)C(C)C",
        "Molecular Formula": "C<sub>5</sub>H<sub>13</sub>NO",
        "Molecular Mass": "103.16",
        "Melting Point": "31.5-33.0 °C"
    }
}