{
    "cas_no": "2700-30-3",
    "key_name": "Diisopropylformamide",
    "cn_name": "N,N-二异丙基甲酰胺;",
    "alternate_name": "Formamide, <em>N</em>,<em>N</em>-bis(1-methylethyl)-;Formamide, <em>N</em>,<em>N</em>-diisopropyl-;<em>N</em>,<em>N</em>-Bis(1-methylethyl)formamide;<em>N</em>,<em>N</em>-Diisopropylformamide;Diisopropylformamide;NSC 404524;<em>N</em>-Formyldiisopropylamine",
    "duplicated_cas_no": "",
    "SMILES": "N(C(C)C)(C(C)C)C=O",
    "meta_data": {
        "InChI": "InChI=1S/C7H15NO/c1-6(2)8(5-9)7(3)4/h5-7H,1-4H3",
        "InChIKey": null,
        "Canonical SMILES": "O=CN(C(C)C)C(C)C",
        "Molecular Formula": "C<sub>7</sub>H<sub>15</sub>NO",
        "Molecular Mass": "129.20",
        "Boiling Point": "103 °C @ Press: 12 Torr",
        "Density": "0.89 g/cm³ @ Temp: 20 °C"
    }
}