{
    "cas_no": "633-66-9",
    "key_name": "Berberine bisulfate",
    "cn_name": "硫酸氢黄连素;",
    "alternate_name": "Benzo[<em>g</em>]-1,3-benzodioxolo[5,6-<em>a</em>]quinolizinium, 5,6-dihydro-9,10-dimethoxy-, sulfate (1:1);Berbinium, 7,8,13,13a-tetradehydro-9,10-dimethoxy-2,3-(methylenedioxy)-, sulfate (1:1);Berberine sulfate;Berberine bisulfate;Berberine sulfate (1:1);Berberine hydrogen sulfate;NSC 150444;Berberine hemisulfate",
    "duplicated_cas_no": "5956-59-2;76999-88-7",
    "SMILES": "S(=O)(=O)([O-])O.O(C)C1=C2C=[N+]3C(C=4C(=CC5=C(C4)OCO5)CC3)=CC2=CC=C1OC",
    "meta_data": {
        "InChI": "InChI=1S/C20H18NO4.H2O4S/c1-22-17-4-3-12-7-16-14-9-19-18(24-11-25-19)8-13(14)5-6-21(16)10-15(12)20(17)23-2;1-5(2,3)4/h3-4,7-10H,5-6,11H2,1-2H3;(H2,1,2,3,4)/q+1;/p-1",
        "InChIKey": null,
        "Canonical SMILES": "O=S(=O)([O-])O.O(C=1C=CC2=CC=3C4=CC=5OCOC5C=C4CC[N+]3C=C2C1OC)C",
        "Molecular Formula": "C<sub>20</sub>H<sub>18</sub>NO<sub>4</sub>.HO<sub>4</sub>S",
        "Molecular Mass": "",
        "Melting Point": "274-275 °C (decomp)"
    }
}