{
    "cas_no": "110-72-5",
    "key_name": "<em>N</em>-Ethylethylenediamine",
    "cn_name": "N-乙基乙二胺;",
    "alternate_name": "1,2-Ethanediamine, <em>N</em><sup>1</sup>-ethyl-;Ethylenediamine, <em>N</em>-ethyl-;1,2-Ethanediamine, <em>N</em>-ethyl-;<em>N</em><sup>1</sup>-Ethyl-1,2-ethanediamine;<em>N</em>-Ethylethylenediamine;<em>N</em>-Ethyl-1,2-ethanediamine;2-(Ethylamino)ethylamine;<em>N</em>-Ethyl-1,2-diaminoethane;<em>N</em>-(2-Aminoethyl)ethylamine;1-Ethylethylenediamine;2-(Ethylamino)ethanamine;(2-Aminoethyl)(ethyl)amine",
    "duplicated_cas_no": "",
    "SMILES": "C(NCC)CN",
    "meta_data": {
        "InChI": "InChI=1S/C4H12N2/c1-2-6-4-3-5/h6H,2-5H2,1H3",
        "InChIKey": null,
        "Canonical SMILES": "NCCNCC",
        "Molecular Formula": "C<sub>4</sub>H<sub>12</sub>N<sub>2</sub>",
        "Molecular Mass": "88.15",
        "Boiling Point": "129 °C"
    }
}