{
    "cas_no": "612-16-8",
    "key_name": "2-Methoxybenzyl alcohol",
    "cn_name": "2-甲氧基苯甲醇;",
    "alternate_name": "Benzenemethanol, 2-methoxy-;Benzyl alcohol, <em>o</em>-methoxy-;2-Methoxybenzenemethanol;<em>o</em>-Methoxybenzyl alcohol;2-Methoxybenzyl alcohol;2-(Hydroxymethyl)anisole;<em>o</em>-Anisalcohol;(2-Methoxyphenyl)methanol;NSC 66558;<em>o</em>-Methoxyphenylmethanol",
    "duplicated_cas_no": "99501-07-2;185533-04-4",
    "SMILES": "C(O)C1=C(OC)C=CC=C1",
    "meta_data": {
        "InChI": "InChI=1S/C8H10O2/c1-10-8-5-3-2-4-7(8)6-9/h2-5,9H,6H2,1H3",
        "InChIKey": null,
        "Canonical SMILES": "OCC=1C=CC=CC1OC",
        "Molecular Formula": "C<sub>8</sub>H<sub>10</sub>O<sub>2</sub>",
        "Molecular Mass": "138.16",
        "Boiling Point": "249 °C",
        "Melting Point": "85-86 °C"
    }
}