{
    "cas_no": "1126-46-1",
    "key_name": "Methyl 4-chlorobenzoate",
    "cn_name": "甲基-4-氯苯甲酸甲酯;",
    "alternate_name": "Benzoic acid, 4-chloro-, methyl ester;Benzoic acid, <em>p</em>-chloro-, methyl ester;Methyl <em>p</em>-chlorobenzoate;Methyl 4-chlorobenzoate;<em>p</em>-Chlorobenzoic acid methyl ester;4-Chlorobenzoic acid methyl ester;4-Carbomethoxyphenyl chloride;NSC 8366;4-(Methoxycarbonyl)chlorobenzene;5-Chloro-2-benzoic acid methyl ester;4-Chlorophenylcarboxylic acid methyl ester",
    "duplicated_cas_no": "",
    "SMILES": "C(OC)(=O)C1=CC=C(Cl)C=C1",
    "meta_data": {
        "InChI": "InChI=1S/C8H7ClO2/c1-11-8(10)6-2-4-7(9)5-3-6/h2-5H,1H3",
        "InChIKey": null,
        "Canonical SMILES": "O=C(OC)C1=CC=C(Cl)C=C1",
        "Molecular Formula": "C<sub>8</sub>H<sub>7</sub>ClO<sub>2</sub>",
        "Molecular Mass": "170.59",
        "Boiling Point": "113-115 °C @ Press: 20 Torr",
        "Melting Point": "43.5 °C"
    }
}