{
    "cas_no": "1126-81-4",
    "key_name": "4-Acetamidothiophenol",
    "cn_name": "4-乙酰氨基苯硫酚;",
    "alternate_name": "Acetamide, <em>N</em>-(4-mercaptophenyl)-;Acetanilide, 4′-mercapto-;<em>N</em>-(4-Mercaptophenyl)acetamide;<em>p</em>-Acetamidobenzenethiol;4-Acetamidothiophenol;4′-Mercaptoacetanilide;4-Acetamidobenzenethiol;4-Acetylaminothiophenol;4-(Acetylamino)benzenethiol;<em>p</em>-Acetamidothiophenol;<em>p</em>-Mercaptoacetanilide;<em>p</em>-Acetamidophenyl mercaptan;2-(4-Mercaptophenyl)acetamide;<em>N</em>-Acetyl-4-mercaptoaniline;NSC 34851;<em>p</em>-(Acetylamino)thiophenol;<em>N</em>-(4-Sulfanylphenyl)acetamide",
    "duplicated_cas_no": "",
    "SMILES": "N(C(C)=O)C1=CC=C(S)C=C1",
    "meta_data": {
        "InChI": "InChI=1S/C8H9NOS/c1-6(10)9-7-2-4-8(11)5-3-7/h2-5,11H,1H3,(H,9,10)",
        "InChIKey": null,
        "Canonical SMILES": "O=C(NC1=CC=C(S)C=C1)C",
        "Molecular Formula": "C<sub>8</sub>H<sub>9</sub>NOS",
        "Molecular Mass": "167.23",
        "Melting Point": "149-150 °C"
    }
}