{
    "cas_no": "5720-07-0",
    "key_name": "(4-Methoxyphenyl)boronic acid",
    "cn_name": "4-甲氧基苯硼酸;对甲氧基苯硼酸;",
    "alternate_name": "Boronic acid, <em>B</em>-(4-methoxyphenyl)-;Benzeneboronic acid, <em>p</em>-methoxy-;Boronic acid, (4-methoxyphenyl)-;<em>B</em>-(4-Methoxyphenyl)boronic acid;(4-Methoxyphenyl)boronic acid;<em>p</em>-Anisylboronic acid;<em>p</em>-Methoxybenzeneboronic acid;4-Methoxybenzeneboronic acid;(<em>p</em>-Methoxyphenyl)boronic acid;4-Anisylboronic acid;[4-(Methyloxy)phenyl]boronic acid;4-Methoxylphenylboronic acid;<em>p</em>-Methoxyphenylboronic",
    "duplicated_cas_no": "2093414-99-2",
    "SMILES": "B(O)(O)C1=CC=C(OC)C=C1",
    "meta_data": {
        "InChI": "InChI=1S/C7H9BO3/c1-11-7-4-2-6(3-5-7)8(9)10/h2-5,9-10H,1H3",
        "InChIKey": null,
        "Canonical SMILES": "OB(O)C1=CC=C(OC)C=C1",
        "Molecular Formula": "C<sub>7</sub>H<sub>9</sub>BO<sub>3</sub>",
        "Molecular Mass": "151.96",
        "Melting Point": "205-207 °C"
    }
}