{
    "cas_no": "86-47-5",
    "key_name": "7-Chloro-4-hydroxyquinoline-3-carboxylic acid",
    "cn_name": "7-氯-4-羟基-3-喹啉羧酸;7-氯-4-羟基喹啉-3-甲酸;7-氯-4-羟基喹啉-3-羧酸;7-氯-1,4-二氢-4-氧代-3-喹啉羧酸;",
    "alternate_name": "3-Quinolinecarboxylic acid, 7-chloro-4-hydroxy-;7-Chloro-4-hydroxy-3-quinolinecarboxylic acid;7-Chloro-4-hydroxyquinoline-3-carboxylic acid;4-Hydroxy-7-chloro-3-quinolinecarboxylic acid;NSC 27801;NSC 56803",
    "duplicated_cas_no": "",
    "SMILES": "OC=1C2=C(N=CC1C(O)=O)C=C(Cl)C=C2",
    "meta_data": {
        "InChI": "InChI=1S/C10H6ClNO3/c11-5-1-2-6-8(3-5)12-4-7(9(6)13)10(14)15/h1-4H,(H,12,13)(H,14,15)",
        "InChIKey": null,
        "Canonical SMILES": "O=C(O)C1=CN=C2C=C(Cl)C=CC2=C1O",
        "Molecular Formula": "C<sub>10</sub>H<sub>6</sub>ClNO<sub>3</sub>",
        "Molecular Mass": "223.61",
        "Melting Point": "174-273 °C (decomp)"
    }
}