{
    "cas_no": "111-55-7",
    "key_name": "Glycol diacetate",
    "cn_name": "乙二醇二乙酸酯;",
    "alternate_name": "1,2-Ethanediol, 1,2-diacetate;Ethylene glycol, diacetate;1,2-Ethanediol, diacetate;Ethylene acetate;Ethylene diacetate;Glycol diacetate;1,2-Diacetoxyethane;Ethanediol diacetate;Ethylene diethanoate;Aptex Donor H-plus;NSC 8853;Novaset NH;Novaset NH Medium Hardener;1,2-Ethanediyl diacetate;Ethylene glycol diacetate;EGDA;S 2000;2-Acetyloxyethyl acetate;2-(Acetyloxy)ethyl acetate;Flodur 3",
    "duplicated_cas_no": "",
    "SMILES": "C(COC(C)=O)OC(C)=O",
    "meta_data": {
        "InChI": "InChI=1S/C6H10O4/c1-5(7)9-3-4-10-6(2)8/h3-4H2,1-2H3",
        "InChIKey": null,
        "Canonical SMILES": "O=C(OCCOC(=O)C)C",
        "Molecular Formula": "C<sub>6</sub>H<sub>10</sub>O<sub>4</sub>",
        "Molecular Mass": "146.14",
        "Boiling Point": "190-191 °C",
        "Melting Point": "-31 °C",
        "Density": "1.104 g/cm³"
    }
}