{
    "cas_no": "869-29-4",
    "key_name": "2-Propene-1,1-diol, 1,1-diacetate",
    "cn_name": null,
    "alternate_name": "2-Propene-1,1-diol, 1,1-diacetate;2-Propene-1,1-diol, diacetate;SD 345;Allylidene acetate;Allylidene diacetate;SD 345 (ester);Acrolein diacetate;DAP;DAP (pesticide);3,3-Diacetoxy-1-propene;3,3-Diacetoxypropene;2-Propenal, monohydrate, diacetate;NSC 45020;NSC 7632;1,1-Diacetoxy-2-propene;1-(Acetyloxy)prop-2-en-1-yl acetate",
    "duplicated_cas_no": "89898-55-5",
    "SMILES": "C(OC(C)=O)(OC(C)=O)C=C",
    "meta_data": {
        "InChI": "InChI=1S/C7H10O4/c1-4-7(10-5(2)8)11-6(3)9/h4,7H,1H2,2-3H3",
        "InChIKey": null,
        "Canonical SMILES": "O=C(OC(OC(=O)C)C=C)C",
        "Molecular Formula": "C<sub>7</sub>H<sub>10</sub>O<sub>4</sub>",
        "Molecular Mass": "158.15",
        "Boiling Point": "180 °C",
        "Melting Point": "-37.6 °C",
        "Density": "1.076 g/cm³ @ Temp: 17 °C"
    }
}