{
    "cas_no": "86-77-1",
    "key_name": "2-Dibenzofuranol",
    "cn_name": "2-羟基二苯并呋喃;2-羟基二苯并呋喃;",
    "alternate_name": "2-Dibenzofuranol;3-Hydroxybiphenylene oxide;2-Hydroxydibenzofuran;NSC 10863;Dibenzo[<em>b</em>,<em>d</em>]furan-2-ol;2-Dibenzofuranol, 4a,9b-dihydro-",
    "duplicated_cas_no": "1082667-10-4;1684404-35-0",
    "SMILES": "OC=1C=C2C=3C(OC2=CC1)=CC=CC3",
    "meta_data": {
        "InChI": "InChI=1S/C12H8O2/c13-8-5-6-12-10(7-8)9-3-1-2-4-11(9)14-12/h1-7,13H",
        "InChIKey": null,
        "Canonical SMILES": "OC=1C=CC=2OC=3C=CC=CC3C2C1",
        "Molecular Formula": "C<sub>12</sub>H<sub>8</sub>O<sub>2</sub>",
        "Molecular Mass": "184.19",
        "Boiling Point": "348 °C @ Press: 758 Torr",
        "Melting Point": "136 °C"
    }
}