{
    "cas_no": "461-58-5",
    "key_name": "Dicyandiamide",
    "cn_name": "双氰胺;氰基胍;",
    "alternate_name": "Guanidine, <em>N</em>-cyano-;Guanidine, cyano-;<em>N</em>-Cyanoguanidine;Cyanoguanidine;1-Cyanoguanidine;Dicyandiamide;Dicyanodiamide;2-Cyanoguanidine;Didin;Bakelite VE 2560;ACR-H 3636;Araldite XB 2979B;Dicy;Araldite XB 2879B;XB 2879B;Araldite HT 986;DCDA;CG;Epicure DICY 7;Epicure DICY 15;DCD;Amicure AH 162;Adeka HT 2844;DICY-FP;Amicure CG 1400;Dyhard 100SF;H 3636S;Ajicure AH 150;Amicure CG 1200;CG 1200;Dyhard 100;CG 1400;Dyhard 100S;Dyhard RU 100;Dicyanex 200;Dicy 100S;Amicure CG 325;Dicyanex 1400B;ACR-H 3636AS;Epicure DICY;Dyhard SF;200X;CGNA;Dicyanex 200X;DICY 7;EH 3636AS;Epicure DICY 7A;Amicure 3809;Amicure AH 154;Amicure AH 150;Erisys DDA 10;SKW 100SF;SKW 100S;DICY 70;EH 3636S;Amicure CG 140;DICY 7A;Epicure DICY 7MD;Hardener 3636AS;Adeka EH 3636AS;NSC 2031;SPX 7922;Adeka EH 3636;Amicure CG 200;Epicure DICY 50;DICY 1400;Bakelite EPH 714;EPH 714;DICY 7S;DICY 15;Epikure DICY 15;Dyhard 100M;Epicure DICY 7S;Adeka Hardener EH 3636;Adeka ES 3636;Dyhard 100SH;eco-n;DDA 10;CL 310;Epikure DICY 7;CG 1400S;Adeka Hardener ESES 3636AS;Omicure DDA 5;AB 04;AH 154;AH 150;Dicyanex 325;JER Cure DICY 15;Dyhard DF 50EP;DDA (hardener);DDA;CG 1200G;JER Cure DICY 7;DDA 50;Dyhard III;JER Cure DICY 7T;Adeka Hardener 3636AS;Amicure 1400;DDA 5;Casamid 780;H 106;H 106 (hardener);Technicure D 10;Amicure CG 1200E;Technicure NanoDicy;HTP 302;JER Cure DICY 3;Butan 7816LT;DICY 7T;DSH 100;Amicure CG 1200G;1400F;Dicyanex 1400F;SA 284;Omicure DDA 50;Omicure DDA 10;Dyhard D 50EP;Dyhard PI Optional;Unifill B;Dyhard 100E;Adeka Hardener EH 3636AS;100SF;Dicyanex 1400HF;Dyhard SF 100;SF 100;GC 120;EH 4351S;3636AS;Ecure 14;AH 162;JER Cure DDA 7;EQ 14;jER DICY 20;JER Cure DICY 20;DF 585;CG 325;Dyhard 03;Amicure CG 120G;SH 300;Omicure 5;CG 4100;DICY 100;Dicyandiamide 100S;Dyhard UR 100S;CL 076E;JW 5;Jiashengde DSMA;DSMA;Gaide HA;HA;SH 500A;CG 120 (amide);CG 120;DSH 100 (cyanoguanidine);DICY 1200F;CA 120 (guanidine);DM 1 (guanidine);SA 89;DM 1;CA 120;H 209 (amine);H 209;S 26828;HS 5850;SH 900;SH 500;Amicure CG 1400F;D 76609;Epikure 921 Super SH",
    "duplicated_cas_no": "125148-58-5;139351-77-2;139351-78-3;157480-33-6;166432-96-8;187414-06-8;200818-58-2;205265-14-1;313058-80-9;1437797-89-1;1446334-90-2;1610803-20-7;2377513-28-3;2947446-61-7",
    "SMILES": "N(C(=N)N)C#N",
    "meta_data": {
        "InChI": "InChI=1S/C2H4N4/c3-1-6-2(4)5/h(H4,4,5,6)",
        "InChIKey": null,
        "Canonical SMILES": "N#CNC(=N)N",
        "Molecular Formula": "C<sub>2</sub>H<sub>4</sub>N<sub>4</sub>",
        "Molecular Mass": "84.08",
        "Melting Point": "209.5 °C",
        "Density": "1.400 g/cm³ @ Temp: 25 °C"
    }
}