{
    "cas_no": "18147-18-7",
    "key_name": "Dichloro(1,1-dimethylethyl)methylsilane",
    "cn_name": null,
    "alternate_name": "Silane, dichloro(1,1-dimethylethyl)methyl-;Silane, <em>tert</em>-butyldichloromethyl-;Dichloro(1,1-dimethylethyl)methylsilane;<em>tert</em>-Butylmethyldichlorosilane;<em>tert</em>-Butyldichloromethylsilane;Dichloro-<em>tert</em>-butylmethylsilane",
    "duplicated_cas_no": "",
    "SMILES": "C([Si](C)(Cl)Cl)(C)(C)C",
    "meta_data": {
        "InChI": "InChI=1S/C5H12Cl2Si/c1-5(2,3)8(4,6)7/h1-4H3",
        "InChIKey": null,
        "Canonical SMILES": "Cl[Si](Cl)(C)C(C)(C)C",
        "Molecular Formula": "C<sub>5</sub>H<sub>12</sub>Cl<sub>2</sub>Si",
        "Molecular Mass": "171.14",
        "Boiling Point": "130-132 °C",
        "Melting Point": "88-90 °C"
    }
}