{
    "cas_no": "2379-55-7",
    "key_name": "2,3-Dimethylquinoxaline",
    "cn_name": "2,3-二甲基喹喔啉;2,3-二甲基喹戊啉;",
    "alternate_name": "Quinoxaline, 2,3-dimethyl-;2,3-Dimethylquinoxaline;NSC 1789",
    "duplicated_cas_no": "",
    "SMILES": "CC1=NC2=C(N=C1C)C=CC=C2",
    "meta_data": {
        "InChI": "InChI=1S/C10H10N2/c1-7-8(2)12-10-6-4-3-5-9(10)11-7/h3-6H,1-2H3",
        "InChIKey": null,
        "Canonical SMILES": "N=1C=2C=CC=CC2N=C(C1C)C",
        "Molecular Formula": "C<sub>10</sub>H<sub>10</sub>N<sub>2</sub>",
        "Molecular Mass": "158.20",
        "Melting Point": "104-106 °C"
    }
}