{
    "cas_no": "5959-95-5",
    "key_name": "<span class=\"text-smallcaps\">D</span>-Glutamine",
    "cn_name": "D-谷氨酰胺;",
    "alternate_name": "<span class=\"text-smallcaps\">D</span>-Glutamine;Glutamine, <span class=\"text-smallcaps\">D</span>-;(2R)-2-Amino-4-carbamoylbutanoic acid;(2R)-5-Amino-2-azaniumyl-5-oxopentanoate;(R)-2,5-Diamino-5-oxopentanoic acid",
    "duplicated_cas_no": "",
    "SMILES": "[C@@H](CCC(N)=O)(C(O)=O)N",
    "meta_data": {
        "InChI": "InChI=1S/C5H10N2O3/c6-3(5(9)10)1-2-4(7)8/h3H,1-2,6H2,(H2,7,8)(H,9,10)/t3-/m1/s1",
        "InChIKey": null,
        "Canonical SMILES": "O=C(O)C(N)CCC(=O)N",
        "Molecular Formula": "C<sub>5</sub>H<sub>10</sub>N<sub>2</sub>O<sub>3</sub>",
        "Molecular Mass": "146.14",
        "Melting Point": "184-185 °C"
    }
}