{
    "cas_no": "68141-13-9",
    "key_name": "6-<em>tert</em>-Butylquinoline",
    "cn_name": "6-(1,1-二甲基乙基)喹啉;6-叔丁基喹啉;",
    "alternate_name": "Quinoline, 6-(1,1-dimethylethyl)-;6-(1,1-Dimethylethyl)quinoline;6-<em>tert</em>-Butylquinoline",
    "duplicated_cas_no": "",
    "SMILES": "C(C)(C)(C)C1=CC2=C(C=C1)N=CC=C2",
    "meta_data": {
        "InChI": "InChI=1S/C13H15N/c1-13(2,3)11-6-7-12-10(9-11)5-4-8-14-12/h4-9H,1-3H3",
        "InChIKey": null,
        "Canonical SMILES": "N1=CC=CC2=CC(=CC=C12)C(C)(C)C",
        "Molecular Formula": "C<sub>13</sub>H<sub>15</sub>N",
        "Molecular Mass": "185.26",
        "Boiling Point": "85 °C @ Press: 0.05 Torr"
    }
}