{
    "cas_no": "38748-32-2",
    "key_name": "Triptolide",
    "cn_name": "雷公藤甲素;雷公藤内酯醇;雷公藤多甙;",
    "alternate_name": "Trisoxireno[4b,5:6,7:8a,9]phenanthro[1,2-<em>c</em>]furan-1(3<em>H</em>)-one, 3b,4,4a,6,6a,7a,7b,8b,9,10-decahydro-6-hydroxy-8b-methyl-6a-(1-methylethyl)-, (3b<em>S</em>,4a<em>S</em>,5a<em>S</em>,6<em>R</em>,6a<em>R</em>,7a<em>S</em>,7b<em>S</em>,8a<em>S</em>,8b<em>S</em>)-;Triptolide;(3b<em>S</em>,4a<em>S</em>,5a<em>S</em>,6<em>R</em>,6a<em>R</em>,7a<em>S</em>,7b<em>S</em>,8a<em>S</em>,8b<em>S</em>)-3b,4,4a,6,6a,7a,7b,8b,9,10-Decahydro-6-hydroxy-8b-methyl-6a-(1-methylethyl)trisoxireno[4b,5:6,7:8a,9]phenanthro[1,2-<em>c</em>]furan-1(3<em>H</em>)-one;Triptolid;[3b<em>S</em>-(3bα,4aα,5a<em>R</em>*,6β,6aβ,7aβ,7bα,8a<em>R</em>*,8bβ)]-3b,4,4a,6,6a,7a,7b,8b,9,10-Decahydro-6-hydroxy-8b-methyl-6a-(1-methylethyl)trisoxireno[4b,5:6,7:8a,9]phenanthro[1,2-<em>c</em>]furan-1(3<em>H</em>)-one;(-)-Triptolide;PG 490;NSC 163062",
    "duplicated_cas_no": "2871739-81-8",
    "SMILES": "C[C@@]12[C@@]34[C@@]5([C@@](O5)(C[C@]1(C6=C(CC2)C(=O)OC6)[H])[H])[C@H](O)[C@]7([C@H](C)C)[C@]([C@@]3(O4)[H])(O7)[H]",
    "meta_data": {
        "InChI": "InChI=1S/C20H24O6/c1-8(2)18-13(25-18)14-20(26-14)17(3)5-4-9-10(7-23-15(9)21)11(17)6-12-19(20,24-12)16(18)22/h8,11-14,16,22H,4-7H2,1-3H3/t11-,12-,13-,14-,16+,17-,18-,19+,20+/m0/s1",
        "InChIKey": null,
        "Canonical SMILES": "O=C1OCC2=C1CCC3(C)C2CC4OC45C(O)C6(OC6C7OC753)C(C)C",
        "Molecular Formula": "C<sub>20</sub>H<sub>24</sub>O<sub>6</sub>",
        "Molecular Mass": "360.40",
        "Melting Point": "226-227 °C"
    }
}