{
    "cas_no": "621-76-1",
    "key_name": "1,1′,1′′-[Methylidynetris(oxy)]tris[propane]",
    "cn_name": "原甲酸三丙酯;",
    "alternate_name": "Propane, 1,1′,1′′-[methylidynetris(oxy)]tris-;Orthoformic acid, tripropyl ester;1,1′,1′′-[Methylidynetris(oxy)]tris[propane];Tripropyl orthoformate;Tripropoxymethane;Propyl orthoformate;1-(Dipropoxymethoxy)propane",
    "duplicated_cas_no": "",
    "SMILES": "C(OCCC)(OCCC)OCCC",
    "meta_data": {
        "InChI": "InChI=1S/C10H22O3/c1-4-7-11-10(12-8-5-2)13-9-6-3/h10H,4-9H2,1-3H3",
        "InChIKey": null,
        "Canonical SMILES": "O(CCC)C(OCCC)OCCC",
        "Molecular Formula": "C<sub>10</sub>H<sub>22</sub>O<sub>3</sub>",
        "Molecular Mass": "190.28",
        "Boiling Point": "191 °C",
        "Density": "0.8805 g/cm³ @ Temp: 20 °C"
    }
}