{
    "cas_no": "1223-31-0",
    "key_name": "1,1′-Thiobis[4-nitrobenzene]",
    "cn_name": "二(对硝基苯)硫醚;",
    "alternate_name": "Benzene, 1,1′-thiobis[4-nitro-;Sulfide, bis(<em>p</em>-nitrophenyl);1,1′-Thiobis[4-nitrobenzene];4,4′-Dinitrodiphenyl sulfide;Bis(4-nitrophenyl) sulfide;Bis(<em>p</em>-nitrophenyl) sulfide;<em>p</em>,<em>p</em>′-Dinitrodiphenyl sulfide;4-Nitrophenyl sulfide;1,1′-Thiobis(4-nitrobenzene);NSC 11350;NSC 629272;1-Nitro-4-(4-nitrophenyl)sulfanylbenzene;1-Nitro-4-[(4-nitrophenyl)sulfanyl]benzene",
    "duplicated_cas_no": "",
    "SMILES": "S(C1=CC=C(N(=O)=O)C=C1)C2=CC=C(N(=O)=O)C=C2",
    "meta_data": {
        "InChI": "InChI=1S/C12H8N2O4S/c15-13(16)9-1-5-11(6-2-9)19-12-7-3-10(4-8-12)14(17)18/h1-8H",
        "InChIKey": null,
        "Canonical SMILES": "O=N(=O)C1=CC=C(SC2=CC=C(C=C2)N(=O)=O)C=C1",
        "Molecular Formula": "C<sub>12</sub>H<sub>8</sub>N<sub>2</sub>O<sub>4</sub>S",
        "Molecular Mass": "276.27",
        "Melting Point": "152-154 °C"
    }
}