{
    "cas_no": "455-17-4",
    "key_name": "1-Fluoro-4-(trimethylsilyl)benzene",
    "cn_name": null,
    "alternate_name": "Benzene, 1-fluoro-4-(trimethylsilyl)-;Silane, (<em>p</em>-fluorophenyl)trimethyl-;Silane, (4-fluorophenyl)trimethyl-;1-Fluoro-4-(trimethylsilyl)benzene;(<em>p</em>-Fluorophenyl)trimethylsilane;4-Fluorophenyltrimethylsilane;4-Fluoro-1-(trimethylsilyl)benzene",
    "duplicated_cas_no": "",
    "SMILES": "[Si](C)(C)(C)C1=CC=C(F)C=C1",
    "meta_data": {
        "InChI": "InChI=1S/C9H13FSi/c1-11(2,3)9-6-4-8(10)5-7-9/h4-7H,1-3H3",
        "InChIKey": null,
        "Canonical SMILES": "FC1=CC=C(C=C1)[Si](C)(C)C",
        "Molecular Formula": "C<sub>9</sub>H<sub>13</sub>FSi",
        "Molecular Mass": "168.28",
        "Boiling Point": "170-171 °C @ Press: 745 Torr",
        "Density": "0.9656 g/cm³ @ Temp: 20 °C"
    }
}