{
    "cas_no": "1529-41-5",
    "key_name": "3-Chlorobenzeneacetonitrile",
    "cn_name": "间氯氰苄;",
    "alternate_name": "Benzeneacetonitrile, 3-chloro-;Acetonitrile, (<em>m</em>-chlorophenyl)-;3-Chlorobenzeneacetonitrile;<em>m</em>-Chlorobenzyl cyanide;3-Chlorophenylacetonitrile;3-Chlorobenzyl cyanide;<em>m</em>-Chlorophenylacetonitrile;<em>m</em>-Chlorobenzyl nitrile;2-(3-Chlorophenyl)acetonitrile;1-Chloro-3-(cyanomethyl)benzene",
    "duplicated_cas_no": "",
    "SMILES": "C(C#N)C1=CC(Cl)=CC=C1",
    "meta_data": {
        "InChI": "InChI=1S/C8H6ClN/c9-8-3-1-2-7(6-8)4-5-10/h1-3,6H,4H2",
        "InChIKey": null,
        "Canonical SMILES": "N#CCC=1C=CC=C(Cl)C1",
        "Molecular Formula": "C<sub>8</sub>H<sub>6</sub>ClN",
        "Molecular Mass": "151.59",
        "Boiling Point": "261 °C",
        "Melting Point": "11.5 °C"
    }
}