{
    "cas_no": "355-46-4",
    "key_name": "Perfluorohexanesulfonic acid",
    "cn_name": null,
    "alternate_name": "1-Hexanesulfonic acid, 1,1,2,2,3,3,4,4,5,5,6,6,6-tridecafluoro-;1-Hexanesulfonic acid, tridecafluoro-;1,1,2,2,3,3,4,4,5,5,6,6,6-Tridecafluoro-1-hexanesulfonic acid;Perfluorohexanesulfonic acid;Tridecafluorohexanesulfonic acid;1-Perfluorohexanesulfonic acid;1,1,2,2,3,3,4,4,5,5,6,6,6-Tridecafluorohexane-1-sulfonic acid;PFHxS;Tridecafluorohexan-1-sulfonic acid;Tridecafluorohexane-1-sulfonic acid",
    "duplicated_cas_no": "",
    "SMILES": "C(C(C(C(F)(F)F)(F)F)(F)F)(C(C(S(=O)(=O)O)(F)F)(F)F)(F)F",
    "meta_data": {
        "InChI": "InChI=1S/C6HF13O3S/c7-1(8,3(11,12)5(15,16)17)2(9,10)4(13,14)6(18,19)23(20,21)22/h(H,20,21,22)",
        "InChIKey": null,
        "Canonical SMILES": "O=S(=O)(O)C(F)(F)C(F)(F)C(F)(F)C(F)(F)C(F)(F)C(F)(F)F",
        "Molecular Formula": "C<sub>6</sub>HF<sub>13</sub>O<sub>3</sub>S",
        "Molecular Mass": "400.11",
        "Boiling Point": "238.5 °C"
    }
}