{
    "cas_no": "527-73-1",
    "key_name": "2-Nitroimidazole",
    "cn_name": "2-硝基咪唑;",
    "alternate_name": "1<em>H</em>-Imidazole, 2-nitro-;Imidazole, 2-nitro-;2-Nitro-1<em>H</em>-imidazole;2-Nitroimidazole;Azomycin;Amicin;Ro 05-9129;Azomycin (antiprotozoal)",
    "duplicated_cas_no": "116421-32-0;151223-78-8",
    "SMILES": "N(=O)(=O)C=1NC=CN1",
    "meta_data": {
        "InChI": "InChI=1S/C3H3N3O2/c7-6(8)3-4-1-2-5-3/h1-2H,(H,4,5)",
        "InChIKey": null,
        "Canonical SMILES": "O=N(=O)C1=NC=CN1",
        "Molecular Formula": "C<sub>3</sub>H<sub>3</sub>N<sub>3</sub>O<sub>2</sub>",
        "Molecular Mass": "113.07",
        "Melting Point": "287 °C (decomp)"
    }
}