{
    "cas_no": "5337-79-1",
    "key_name": "3-(4-Pyridinyl)-2-propenoic acid",
    "cn_name": "吡啶-4-丙烯酸;3-(吡啶-4-基)丙烯酸;",
    "alternate_name": "2-Propenoic acid, 3-(4-pyridinyl)-;4-Pyridineacrylic acid;3-(4-Pyridinyl)-2-propenoic acid;3-(4-Pyridyl)acrylic acid;4-Pyridylacrylic acid;3-(4-Pyridyl)-2-propenoic acid;3-(Pyridin-4-yl)-2-propenoic acid;3-(4-Pyridinyl)acrylic acid;NSC 830",
    "duplicated_cas_no": "",
    "SMILES": "C(=CC(O)=O)C=1C=CN=CC1",
    "meta_data": {
        "InChI": "InChI=1S/C8H7NO2/c10-8(11)2-1-7-3-5-9-6-4-7/h1-6H,(H,10,11)",
        "InChIKey": null,
        "Canonical SMILES": "O=C(O)C=CC=1C=CN=CC1",
        "Molecular Formula": "C<sub>8</sub>H<sub>7</sub>NO<sub>2</sub>",
        "Molecular Mass": "149.15",
        "Melting Point": "293-295 °C"
    }
}