{
    "cas_no": "154229-21-7",
    "key_name": "17-(3-Pyridinyl)androsta-4,16-dien-3-one",
    "cn_name": null,
    "alternate_name": "Androsta-4,16-dien-3-one, 17-(3-pyridinyl)-;17-(3-Pyridinyl)androsta-4,16-dien-3-one;CB 7627;Δ4-Abiraterone",
    "duplicated_cas_no": "",
    "SMILES": "C[C@@]12[C@]([C@]3([C@@]([C@]4(C)C(CC3)=CC(=O)CC4)(CC1)[H])[H])(CC=C2C=5C=CC=NC5)[H]",
    "meta_data": {
        "InChI": "InChI=1S/C24H29NO/c1-23-11-9-18(26)14-17(23)5-6-19-21-8-7-20(16-4-3-13-25-15-16)24(21,2)12-10-22(19)23/h3-4,7,13-15,19,21-22H,5-6,8-12H2,1-2H3/t19-,21-,22-,23-,24+/m0/s1",
        "InChIKey": null,
        "Canonical SMILES": "O=C1C=C2CCC3C4CC=C(C=5C=NC=CC5)C4(C)CCC3C2(C)CC1",
        "Molecular Formula": "C<sub>24</sub>H<sub>29</sub>NO",
        "Molecular Mass": "347.49",
        "Melting Point": "145-147 °C"
    }
}