{
    "cas_no": "2896-60-8",
    "key_name": "4-Ethylresorcinol",
    "cn_name": "4-乙基间苯二酚;4-乙基-1,3-二羟基苯;4-乙基-1,3-苯二酚;",
    "alternate_name": "1,3-Benzenediol, 4-ethyl-;Resorcinol, 4-ethyl-;4-Ethyl-1,3-benzenediol;4-Ethylresorcinol;6-Ethylresorcinol;1,3-Dihydroxy-4-ethylbenzene;NKO 11;NSC 62013;4-Ethylresorcin;1-Ethyl-2,4-dihydroxybenzene",
    "duplicated_cas_no": "",
    "SMILES": "C(C)C1=C(O)C=C(O)C=C1",
    "meta_data": {
        "InChI": "InChI=1S/C8H10O2/c1-2-6-3-4-7(9)5-8(6)10/h3-5,9-10H,2H2,1H3",
        "InChIKey": null,
        "Canonical SMILES": "OC1=CC=C(C(O)=C1)CC",
        "Molecular Formula": "C<sub>8</sub>H<sub>10</sub>O<sub>2</sub>",
        "Molecular Mass": "138.16",
        "Melting Point": "98.5 °C"
    }
}