{
    "cas_no": "27220-47-9",
    "key_name": "Econazole",
    "cn_name": "益康唑;1-[2,4-二氯-2-(4-氯苄氧基)苯乙基]咪唑;",
    "alternate_name": "1<em>H</em>-Imidazole, 1-[2-[(4-chlorophenyl)methoxy]-2-(2,4-dichlorophenyl)ethyl]-;Imidazole, 1-[2,4-dichloro-β-[(<em>p</em>-chlorobenzyl)oxy]phenethyl]-;1-[2-[(4-Chlorophenyl)methoxy]-2-(2,4-dichlorophenyl)ethyl]-1<em>H</em>-imidazole;Econazole;1-[2,4-Dichloro-β-[(<em>p</em>-chlorobenzyl)oxy]phenethyl]imidazole;(±)-Econazole;NSC 187789;1-[2-[(4-Chlorophenyl)methoxy]-2-(2,4-dichlorophenyl)ethyl]imidazole;MeSH ID: D004464",
    "duplicated_cas_no": "68797-30-8",
    "SMILES": "C(CN1C=CN=C1)(OCC2=CC=C(Cl)C=C2)C3=C(Cl)C=C(Cl)C=C3",
    "meta_data": {
        "InChI": "InChI=1S/C18H15Cl3N2O/c19-14-3-1-13(2-4-14)11-24-18(10-23-8-7-22-12-23)16-6-5-15(20)9-17(16)21/h1-9,12,18H,10-11H2",
        "InChIKey": null,
        "Canonical SMILES": "ClC1=CC=C(C=C1)COC(C2=CC=C(Cl)C=C2Cl)CN3C=NC=C3",
        "Molecular Formula": "C<sub>18</sub>H<sub>15</sub>Cl<sub>3</sub>N<sub>2</sub>O",
        "Molecular Mass": "381.68",
        "Melting Point": "86.8 °C"
    }
}