{
    "cas_no": "4475-95-0",
    "key_name": "2-Amino-2-methylbutanenitrile",
    "cn_name": null,
    "alternate_name": "Butanenitrile, 2-amino-2-methyl-;Butyronitrile, 2-amino-2-methyl-;2-Amino-2-methylbutanenitrile;Isovalinonitrile;1-Cyano-1-methylpropylamine;2-Amino-2-methylbutyronitrile;2-Amino-2-methylbutanonitrile",
    "duplicated_cas_no": "",
    "SMILES": "C(CC)(C#N)(C)N",
    "meta_data": {
        "InChI": "InChI=1S/C5H10N2/c1-3-5(2,7)4-6/h3,7H2,1-2H3",
        "InChIKey": null,
        "Canonical SMILES": "N#CC(N)(C)CC",
        "Molecular Formula": "C<sub>5</sub>H<sub>10</sub>N<sub>2</sub>",
        "Molecular Mass": "98.15",
        "Boiling Point": "72 °C @ Press: 20 Torr",
        "Density": "0.9 g/cm³"
    }
}