{
    "cas_no": "24167-56-4",
    "key_name": "4-Fluoro-<em>N</em>,<em>N</em>-dimethylbenzamide",
    "cn_name": null,
    "alternate_name": "Benzamide, 4-fluoro-<em>N</em>,<em>N</em>-dimethyl-;Benzamide, <em>p</em>-fluoro-<em>N</em>,<em>N</em>-dimethyl-;4-Fluoro-<em>N</em>,<em>N</em>-dimethylbenzamide;<em>p</em>-Fluoro-<em>N</em>,<em>N</em>-dimethylbenzamide;<em>N</em>,<em>N</em>-Dimethyl-4-fluorobenzamide",
    "duplicated_cas_no": "",
    "SMILES": "C(N(C)C)(=O)C1=CC=C(F)C=C1",
    "meta_data": {
        "InChI": "InChI=1S/C9H10FNO/c1-11(2)9(12)7-3-5-8(10)6-4-7/h3-6H,1-2H3",
        "InChIKey": null,
        "Canonical SMILES": "O=C(C1=CC=C(F)C=C1)N(C)C",
        "Molecular Formula": "C<sub>9</sub>H<sub>10</sub>FNO",
        "Molecular Mass": "167.18",
        "Melting Point": "64 °C"
    }
}