{
    "cas_no": "1007-16-5",
    "key_name": "3-Bromo-4-fluorobenzoic acid",
    "cn_name": "3-溴-4-氟苯甲酸;",
    "alternate_name": "Benzoic acid, 3-bromo-4-fluoro-;3-Bromo-4-fluorobenzoic acid",
    "duplicated_cas_no": "",
    "SMILES": "C(O)(=O)C1=CC(Br)=C(F)C=C1",
    "meta_data": {
        "InChI": "InChI=1S/C7H4BrFO2/c8-5-3-4(7(10)11)1-2-6(5)9/h1-3H,(H,10,11)",
        "InChIKey": null,
        "Canonical SMILES": "O=C(O)C1=CC=C(F)C(Br)=C1",
        "Molecular Formula": "C<sub>7</sub>H<sub>4</sub>BrFO<sub>2</sub>",
        "Molecular Mass": "219.01",
        "Melting Point": "156 °C"
    }
}