{
    "cas_no": "5281-18-5",
    "key_name": "Benzaldehyde, hydrazone",
    "cn_name": null,
    "alternate_name": "Benzaldehyde, hydrazone;Benzylidene hydrazine;Benzalhydrazone;NSC 32341;(Phenylmethylidene)hydrazine",
    "duplicated_cas_no": "",
    "SMILES": "C(=NN)C1=CC=CC=C1",
    "meta_data": {
        "InChI": "InChI=1S/C7H8N2/c8-9-6-7-4-2-1-3-5-7/h1-6H,8H2",
        "InChIKey": null,
        "Canonical SMILES": "N(N)=CC=1C=CC=CC1",
        "Molecular Formula": "C<sub>7</sub>H<sub>8</sub>N<sub>2</sub>",
        "Molecular Mass": "120.15",
        "Boiling Point": "115-120 °C @ Press: 8 Torr",
        "Melting Point": "198 °C"
    }
}