{
    "cas_no": "2303-16-4",
    "key_name": "Di-allate",
    "cn_name": null,
    "alternate_name": "Carbamothioic acid, <em>N</em>,<em>N</em>-bis(1-methylethyl)-, <em>S</em>-(2,3-dichloro-2-propen-1-yl) ester;Carbamic acid, diisopropylthio-, <em>S</em>-(2,3-dichloroallyl) ester;Carbamothioic acid, bis(1-methylethyl)-, <em>S</em>-(2,3-dichloro-2-propenyl) ester;2,3-DCDT;CP 15336;Avadex;2,3-Dichloroallyl <em>N</em>,<em>N</em>-diisopropylthiolcarbamate;DATC;Di-allate;<em>S</em>-(2,3-Dichloroallyl) diisopropylthiocarbamate",
    "duplicated_cas_no": "",
    "SMILES": "N(C(SCC(=CCl)Cl)=O)(C(C)C)C(C)C",
    "meta_data": {
        "InChI": "InChI=1S/C10H17Cl2NOS/c1-7(2)13(8(3)4)10(14)15-6-9(12)5-11/h5,7-8H,6H2,1-4H3",
        "InChIKey": null,
        "Canonical SMILES": "O=C(SCC(Cl)=CCl)N(C(C)C)C(C)C",
        "Molecular Formula": "C<sub>10</sub>H<sub>17</sub>Cl<sub>2</sub>NOS",
        "Molecular Mass": "270.22",
        "Boiling Point": "150 °C @ Press: 9 Torr",
        "Melting Point": "25-30 °C",
        "Density": "1.188 g/cm³ @ Temp: 25 °C"
    }
}