{
    "cas_no": "60984-57-8",
    "key_name": "<em>N</em>,<em>N</em>′-Bis(acryloyl)cystamine",
    "cn_name": "N,N\"-双(丙稀酰)胱胺;",
    "alternate_name": "2-Propenamide, <em>N</em>,<em>N</em>′-(dithiodi-2,1-ethanediyl)bis-;<em>N</em>,<em>N</em>′-(Dithiodi-2,1-ethanediyl)bis[2-propenamide];Bisacrylylcystamine;<em>N</em>,<em>N</em>′-Bisacrylylcystamine;<em>N</em>,<em>N</em>′-Cystaminebisacrylamide;NSC 328582;<em>N</em>,<em>N</em>′-Bis(acryloyl)cystamine;Cystamine bisacrylamide;<em>N</em>,<em>N</em>′-Diacryloylcystamine;2,2′-(Bisacrylamino)diethyl disulfide",
    "duplicated_cas_no": "",
    "SMILES": "C(NCCSSCCNC(C=C)=O)(C=C)=O",
    "meta_data": {
        "InChI": "InChI=1S/C10H16N2O2S2/c1-3-9(13)11-5-7-15-16-8-6-12-10(14)4-2/h3-4H,1-2,5-8H2,(H,11,13)(H,12,14)",
        "InChIKey": null,
        "Canonical SMILES": "O=C(C=C)NCCSSCCNC(=O)C=C",
        "Molecular Formula": "C<sub>10</sub>H<sub>16</sub>N<sub>2</sub>O<sub>2</sub>S<sub>2</sub>",
        "Molecular Mass": "260.38",
        "Melting Point": "120-123 °C"
    }
}