{
    "cas_no": "1457-47-2",
    "key_name": "3-Allylrhodanine",
    "cn_name": "3-丙烯基洛丹宁;",
    "alternate_name": "4-Thiazolidinone, 3-(2-propen-1-yl)-2-thioxo-;Rhodanine, 3-allyl-;4-Thiazolidinone, 3-(2-propenyl)-2-thioxo-;3-(2-Propen-1-yl)-2-thioxo-4-thiazolidinone;3-Allyl-4-oxo-2-thioxothiazolidine;3-Allylrhodanine;<em>N</em>-Allylrhodanine;NSC 43395;3-Allyl-2-thioxothiazolidin-4-one;3-Prop-2-enyl-2-sulfanylidene-1,3-thiazolidin-4-one",
    "duplicated_cas_no": "",
    "SMILES": "C(C=C)N1C(=O)CSC1=S",
    "meta_data": {
        "InChI": "InChI=1S/C6H7NOS2/c1-2-3-7-5(8)4-10-6(7)9/h2H,1,3-4H2",
        "InChIKey": null,
        "Canonical SMILES": "O=C1N(C(=S)SC1)CC=C",
        "Molecular Formula": "C<sub>6</sub>H<sub>7</sub>NOS<sub>2</sub>",
        "Molecular Mass": "173.26",
        "Boiling Point": "121 °C @ Press: 0.5 mmHg",
        "Melting Point": "46-48 °C"
    }
}