{
    "cas_no": "14338-32-0",
    "key_name": "2-Chloro-1-methylpyridinium iodide",
    "cn_name": "2-氯-1-甲基吡啶鎓碘化物;2-氯-1-甲基碘代吡啶;",
    "alternate_name": "Pyridinium, 2-chloro-1-methyl-, iodide (1:1);Pyridinium, 2-chloro-1-methyl-, iodide;2-Chloro-<em>N</em>-methylpyridinium iodide;2-Chloropyridine methiodide;2-Chloro-1-methylpyridinium iodide;2-Chloropyridinium iodomethylate;1-Methyl-2-chloropyridinium iodide;<em>N</em>-Methyl-2-chloropyridinium iodide;Mukaiyama's reagent;Mukaiyama reagent;2-Chloro-1-methylpyridin-1-ium iodide",
    "duplicated_cas_no": "",
    "SMILES": "ClC=1[N+](C)=CC=CC1.[I-]",
    "meta_data": {
        "InChI": "InChI=1S/C6H7ClN.HI/c1-8-5-3-2-4-6(8)7;/h2-5H,1H3;1H/q+1;/p-1",
        "InChIKey": null,
        "Canonical SMILES": "[I-].ClC=1C=CC=C[N+]1C",
        "Molecular Formula": "C<sub>6</sub>H<sub>7</sub>ClN.I",
        "Molecular Mass": "",
        "Melting Point": "200 °C (decomp)"
    }
}