{
    "cas_no": "35386-24-4",
    "key_name": "1-(2-Methoxyphenyl)piperazine",
    "cn_name": "1-(2-甲氧苯基)哌嗪;",
    "alternate_name": "Piperazine, 1-(2-methoxyphenyl)-;Piperazine, 1-(<em>o</em>-methoxyphenyl)-;1-(2-Methoxyphenyl)piperazine;<em>N</em>-(<em>o</em>-Methoxyphenyl)piperazine;1-(<em>o</em>-Methoxyphenyl)piperazine;<em>N</em>-(2-Methoxyphenyl)piperazine;1-(<em>o</em>-Anisyl)piperazine;<em>o</em>-Methoxyphenylpiperazine;D 15157;1-[2-(Methyloxy)phenyl]piperazine",
    "duplicated_cas_no": "",
    "SMILES": "O(C)C1=C(C=CC=C1)N2CCNCC2",
    "meta_data": {
        "InChI": "InChI=1S/C11H16N2O/c1-14-11-5-3-2-4-10(11)13-8-6-12-7-9-13/h2-5,12H,6-9H2,1H3",
        "InChIKey": null,
        "Canonical SMILES": "O(C=1C=CC=CC1N2CCNCC2)C",
        "Molecular Formula": "C<sub>11</sub>H<sub>16</sub>N<sub>2</sub>O",
        "Molecular Mass": "192.26",
        "Boiling Point": "130-133 °C",
        "Melting Point": "37-40 °C"
    }
}