{
    "cas_no": "51248-35-2",
    "key_name": "<span class=\"text-smallcaps\">DL</span>-Leucine <em>N</em>-carboxy anhydride",
    "cn_name": null,
    "alternate_name": "2,5-Oxazolidinedione, 4-(2-methylpropyl)-;2,5-Oxazolidinedione, 4-isobutyl-;4-(2-Methylpropyl)-2,5-oxazolidinedione;Leucine, <em>N</em>-carboxy-, cyclic anhydride;<span class=\"text-smallcaps\">DL</span>-Leucine <em>N</em>-carboxy anhydride;<em>N</em>-Carboxy-<span class=\"text-smallcaps\">DL</span>-leucine anhydride",
    "duplicated_cas_no": "26334-33-8",
    "SMILES": "C(C(C)C)C1NC(=O)OC1=O",
    "meta_data": {
        "InChI": "InChI=1S/C7H11NO3/c1-4(2)3-5-6(9)11-7(10)8-5/h4-5H,3H2,1-2H3,(H,8,10)",
        "InChIKey": null,
        "Canonical SMILES": "O=C1OC(=O)C(N1)CC(C)C",
        "Molecular Formula": "C<sub>7</sub>H<sub>11</sub>NO<sub>3</sub>",
        "Molecular Mass": "157.17",
        "Melting Point": "47-48 °C"
    }
}