{
    "cas_no": "6224-91-5",
    "key_name": "Trimethyl-1-propyn-1-ylsilane",
    "cn_name": "1-(三甲基硅基)丙炔;",
    "alternate_name": "Silane, trimethyl-1-propyn-1-yl-;Silane, trimethyl-1-propynyl-;Trimethyl-1-propyn-1-ylsilane;Trimethyl-1-propynylsilane;Methyl(trimethylsilyl)acetylene;1-(Trimethylsilyl)-1-propyne;1-(Trimethylsilyl)propyne;T 3728;1-Propynyltrimethylsilane;Methyl(trimethylsilyl)ethyne;1-Methyl-2-trimethylsilylacetylene",
    "duplicated_cas_no": "",
    "SMILES": "C([Si](C)(C)C)#CC",
    "meta_data": {
        "InChI": "InChI=1S/C6H12Si/c1-5-6-7(2,3)4/h1-4H3",
        "InChIKey": null,
        "Canonical SMILES": "C(#C[Si](C)(C)C)C",
        "Molecular Formula": "C<sub>6</sub>H<sub>12</sub>Si",
        "Molecular Mass": "112.25",
        "Boiling Point": "99-100 °C",
        "Melting Point": "-69 °C",
        "Density": "0.758 g/cm³"
    }
}