{
    "cas_no": "5763-61-1",
    "key_name": "Veratrylamine",
    "cn_name": "3,4-二甲氧基苄胺;藜芦基胺;",
    "alternate_name": "Benzenemethanamine, 3,4-dimethoxy-;Veratrylamine;3,4-Dimethoxybenzenemethanamine;3,4-Dimethoxybenzylamine;[(3,4-Dimethoxyphenyl)methyl]amine;NSC 271740;(3,4-Dimethoxyphenyl)methanamine;1-[3,4-Bis(methyloxy)phenyl]methanamine;1-(3,4-Dimethoxyphenyl)methanamine",
    "duplicated_cas_no": "",
    "SMILES": "O(C)C1=C(OC)C=CC(CN)=C1",
    "meta_data": {
        "InChI": "InChI=1S/C9H13NO2/c1-11-8-4-3-7(6-10)5-9(8)12-2/h3-5H,6,10H2,1-2H3",
        "InChIKey": null,
        "Canonical SMILES": "O(C1=CC=C(C=C1OC)CN)C",
        "Molecular Formula": "C<sub>9</sub>H<sub>13</sub>NO<sub>2</sub>",
        "Molecular Mass": "167.21",
        "Boiling Point": "160 °C @ Press: 14 Torr",
        "Melting Point": "262-263 °C",
        "Density": "1.1224 g/cm³ @ Temp: 20 °C"
    }
}