{
    "cas_no": "2206-89-5",
    "key_name": "Chloroethyl acrylate",
    "cn_name": "丙烯酸氯乙酯;",
    "alternate_name": "2-Propenoic acid, 2-chloroethyl ester;Acrylic acid, 2-chloroethyl ester;Ethanol, 2-chloro-, acrylate;Chloroethyl acrylate;2-Chloroethyl acrylate;Acrylic acid β-chloroethyl ester;β-Chloroethyl acrylate;NSC 18592;NSC 65162;2-Chloroethyl prop-2-enoate",
    "duplicated_cas_no": "",
    "SMILES": "C(OCCCl)(C=C)=O",
    "meta_data": {
        "InChI": "InChI=1S/C5H7ClO2/c1-2-5(7)8-4-3-6/h2H,1,3-4H2",
        "InChIKey": null,
        "Canonical SMILES": "O=C(OCCCl)C=C",
        "Molecular Formula": "C<sub>5</sub>H<sub>7</sub>ClO<sub>2</sub>",
        "Molecular Mass": "134.56",
        "Boiling Point": "64-66 °C @ Press: 20 Torr"
    }
}