{
    "cas_no": "131747-42-7",
    "key_name": "6-Trifluoromethyl-2-pyridinecarboxylic acid",
    "cn_name": "6-(三氟甲基)吡啶-2-甲酸;",
    "alternate_name": "2-Pyridinecarboxylic acid, 6-(trifluoromethyl)-;6-(Trifluoromethyl)-2-pyridinecarboxylic acid;6-Trifluoromethyl-2-pyridinecarboxylic acid;6-(Trifluoromethyl)picolinic acid;2-Trifluoromethyl-6-pyridinecarboxylic acid",
    "duplicated_cas_no": "",
    "SMILES": "C(F)(F)(F)C=1N=C(C(O)=O)C=CC1",
    "meta_data": {
        "InChI": "InChI=1S/C7H4F3NO2/c8-7(9,10)5-3-1-2-4(11-5)6(12)13/h1-3H,(H,12,13)",
        "InChIKey": null,
        "Canonical SMILES": "O=C(O)C=1N=C(C=CC1)C(F)(F)F",
        "Molecular Formula": "C<sub>7</sub>H<sub>4</sub>F<sub>3</sub>NO<sub>2</sub>",
        "Molecular Mass": "191.11",
        "Melting Point": "156-157 °C"
    }
}