{
    "cas_no": "454-92-2",
    "key_name": "3-(Trifluoromethyl)benzoic acid",
    "cn_name": "3-三氟甲基苯甲酸;",
    "alternate_name": "Benzoic acid, 3-(trifluoromethyl)-;<em>m</em>-Toluic acid, α,α,α-trifluoro-;3-(Trifluoromethyl)benzoic acid;<em>m</em>-(Trifluoromethyl)benzoic acid;α,α,α-Trifluoro-<em>m</em>-toluic acid;NSC 43025;TFTA",
    "duplicated_cas_no": "",
    "SMILES": "C(F)(F)(F)C1=CC(C(O)=O)=CC=C1",
    "meta_data": {
        "InChI": "InChI=1S/C8H5F3O2/c9-8(10,11)6-3-1-2-5(4-6)7(12)13/h1-4H,(H,12,13)",
        "InChIKey": null,
        "Canonical SMILES": "O=C(O)C1=CC=CC(=C1)C(F)(F)F",
        "Molecular Formula": "C<sub>8</sub>H<sub>5</sub>F<sub>3</sub>O<sub>2</sub>",
        "Molecular Mass": "190.12",
        "Boiling Point": "238.5 °C",
        "Melting Point": "105.5 °C"
    }
}