{
    "cas_no": "653-11-2",
    "key_name": "(2,3,5,6-Tetrafluorophenyl)hydrazine",
    "cn_name": "2,3,5,6-四氟苯肼;",
    "alternate_name": "Hydrazine, (2,3,5,6-tetrafluorophenyl)-;(2,3,5,6-Tetrafluorophenyl)hydrazine;2,3,5,6-Tetrafluorophenylhydrazine;NSC 97000",
    "duplicated_cas_no": "",
    "SMILES": "N(N)C1=C(F)C(F)=CC(F)=C1F",
    "meta_data": {
        "InChI": "InChI=1S/C6H4F4N2/c7-2-1-3(8)5(10)6(12-11)4(2)9/h1,12H,11H2",
        "InChIKey": null,
        "Canonical SMILES": "FC=1C=C(F)C(F)=C(NN)C1F",
        "Molecular Formula": "C<sub>6</sub>H<sub>4</sub>F<sub>4</sub>N<sub>2</sub>",
        "Molecular Mass": "180.10",
        "Melting Point": "92 °C"
    }
}