{
    "cas_no": "100453-11-0",
    "key_name": "Ethyl 2-cyano-2-ethyl-3-methylhexanoate",
    "cn_name": "2-氰基-2-乙基-3-甲基-己酸乙酯;",
    "alternate_name": "Hexanoic acid, 2-cyano-2-ethyl-3-methyl-, ethyl ester;Ethyl 2-cyano-2-ethyl-3-methylhexanoate",
    "duplicated_cas_no": "",
    "SMILES": "C(C(CCC)C)(C(OCC)=O)(CC)C#N",
    "meta_data": {
        "InChI": "InChI=1S/C12H21NO2/c1-5-8-10(4)12(6-2,9-13)11(14)15-7-3/h10H,5-8H2,1-4H3",
        "InChIKey": null,
        "Canonical SMILES": "N#CC(C(=O)OCC)(CC)C(C)CCC",
        "Molecular Formula": "C<sub>12</sub>H<sub>21</sub>NO<sub>2</sub>",
        "Molecular Mass": "211.30",
        "Boiling Point": "97-98 °C @ Press: 2.5 Torr"
    }
}