{
    "cas_no": "30932-41-3",
    "key_name": "2,2-Diphenylcyclopropanecarbonitrile",
    "cn_name": null,
    "alternate_name": "Cyclopropanecarbonitrile, 2,2-diphenyl-;2,2-Diphenylcyclopropanecarbonitrile;1-Cyano-2,2-diphenylcyclopropane;2,2-Diphenylcyclopropyl cyanide;NSC 120433;2,2-Diphenylcyclopropane-1-carbonitrile",
    "duplicated_cas_no": "151436-92-9",
    "SMILES": "C(#N)C1C(C1)(C2=CC=CC=C2)C3=CC=CC=C3",
    "meta_data": {
        "InChI": "InChI=1S/C16H13N/c17-12-15-11-16(15,13-7-3-1-4-8-13)14-9-5-2-6-10-14/h1-10,15H,11H2",
        "InChIKey": null,
        "Canonical SMILES": "N#CC1CC1(C=2C=CC=CC2)C=3C=CC=CC3",
        "Molecular Formula": "C<sub>16</sub>H<sub>13</sub>N",
        "Molecular Mass": "219.28",
        "Melting Point": "94-105 °C"
    }
}