{
    "cas_no": "1204-44-0",
    "key_name": "4′-Chloro[1,1′-biphenyl]-2-amine",
    "cn_name": null,
    "alternate_name": "[1,1′-Biphenyl]-2-amine, 4′-chloro-;2-Biphenylamine, 4′-chloro-;4′-Chloro[1,1′-biphenyl]-2-amine;2-Amino-4′-chlorobiphenyl;NSC 95712;4′-Chlorobiphenyl-2-ylamine;2-(4-Chlorophenyl)aniline;2-Amino-4′-chloro-1,1′-biphenyl",
    "duplicated_cas_no": "",
    "SMILES": "NC1=C(C2=CC=C(Cl)C=C2)C=CC=C1",
    "meta_data": {
        "InChI": "InChI=1S/C12H10ClN/c13-10-7-5-9(6-8-10)11-3-1-2-4-12(11)14/h1-8H,14H2",
        "InChIKey": null,
        "Canonical SMILES": "ClC=1C=CC(=CC1)C=2C=CC=CC2N",
        "Molecular Formula": "C<sub>12</sub>H<sub>10</sub>ClN",
        "Molecular Mass": "203.67",
        "Melting Point": "71 °C"
    }
}