{
    "cas_no": "10540-29-1",
    "key_name": "Tamoxifen",
    "cn_name": "他莫昔芬;(Z)-2-[4-(1,2-二苯基-1-丁烯)苯氧基]-N,N-二甲基乙胺;",
    "alternate_name": "Ethanamine, 2-[4-[(1<em>Z</em>)-1,2-diphenyl-1-buten-1-yl]phenoxy]-<em>N</em>,<em>N</em>-dimethyl-;Ethylamine, 2-[<em>p</em>-(1,2-diphenyl-1-butenyl)phenoxy]-<em>N</em>,<em>N</em>-dimethyl-, (<em>Z</em>)-;Ethanamine, 2-[4-(1,2-diphenyl-1-butenyl)phenoxy]-<em>N</em>,<em>N</em>-dimethyl-, (<em>Z</em>)-;Ethanamine, 2-[4-[(1<em>Z</em>)-1,2-diphenyl-1-butenyl]phenoxy]-<em>N</em>,<em>N</em>-dimethyl-;2-[4-[(1<em>Z</em>)-1,2-Diphenyl-1-buten-1-yl]phenoxy]-<em>N</em>,<em>N</em>-dimethylethanamine;Tamoxifen;ICI 47699;<em>Z</em>-Tamoxifen;Mammaton;(<em>Z</em>)-2-[4-(1,2-Diphenyl-1-butenyl)phenoxy]-<em>N</em>,<em>N</em>-dimethylethanamine;Novaldex;MeSH ID: D013629",
    "duplicated_cas_no": "",
    "SMILES": "C(=C(/CC)\\C1=CC=CC=C1)(\\C2=CC=C(OCCN(C)C)C=C2)/C3=CC=CC=C3",
    "meta_data": {
        "InChI": "InChI=1S/C26H29NO/c1-4-25(21-11-7-5-8-12-21)26(22-13-9-6-10-14-22)23-15-17-24(18-16-23)28-20-19-27(2)3/h5-18H,4,19-20H2,1-3H3/b26-25-",
        "InChIKey": null,
        "Canonical SMILES": "O(C1=CC=C(C=C1)C(C=2C=CC=CC2)=C(C=3C=CC=CC3)CC)CCN(C)C",
        "Molecular Formula": "C<sub>26</sub>H<sub>29</sub>NO",
        "Molecular Mass": "371.51",
        "Melting Point": "96-98 °C"
    }
}