{
    "cas_no": "383-67-5",
    "key_name": "Allyl trifluoroacetate",
    "cn_name": "三氟乙酸丙烯酯;",
    "alternate_name": "Acetic acid, 2,2,2-trifluoro-, 2-propen-1-yl ester;Acetic acid, trifluoro-, allyl ester;Acetic acid, trifluoro-, 2-propenyl ester;Allyl trifluoroacetate;NSC 20943;Allyl-2,2,2-trifluoroacetate;2-Propenyl 2,2,2-Trifluoroacetate",
    "duplicated_cas_no": "",
    "SMILES": "C(C(F)(F)F)(OCC=C)=O",
    "meta_data": {
        "InChI": "InChI=1S/C5H5F3O2/c1-2-3-10-4(9)5(6,7)8/h2H,1,3H2",
        "InChIKey": null,
        "Canonical SMILES": "O=C(OCC=C)C(F)(F)F",
        "Molecular Formula": "C<sub>5</sub>H<sub>5</sub>F<sub>3</sub>O<sub>2</sub>",
        "Molecular Mass": "154.09",
        "Boiling Point": "66-67 °C",
        "Density": "1.168 g/cm³ @ Temp: 25 °C"
    }
}