{
    "cas_no": "3430-33-9",
    "key_name": "2,6-Dimethyl-3-pyridinamine",
    "cn_name": "3-氨基-2,6-二甲基吡啶;3-氨基-2,6-二甲基吡啶;",
    "alternate_name": "3-Pyridinamine, 2,6-dimethyl-;2,6-Lutidine, 3-amino-;2,6-Dimethyl-3-pyridinamine;3-Amino-2,6-dimethylpyridine;3-Amino-2,6-lutidine;2,6-Dimethyl-3-aminopyridine;NSC 100152",
    "duplicated_cas_no": "",
    "SMILES": "CC1=C(N)C=CC(C)=N1",
    "meta_data": {
        "InChI": "InChI=1S/C7H10N2/c1-5-3-4-7(8)6(2)9-5/h3-4H,8H2,1-2H3",
        "InChIKey": null,
        "Canonical SMILES": "N=1C(=CC=C(N)C1C)C",
        "Molecular Formula": "C<sub>7</sub>H<sub>10</sub>N<sub>2</sub>",
        "Molecular Mass": "122.17",
        "Boiling Point": "228-235 °C",
        "Melting Point": "122 °C"
    }
}