{
    "cas_no": "65182-56-1",
    "key_name": "2-(1,8-Naphthyridin-2-yl)phenol",
    "cn_name": null,
    "alternate_name": "Phenol, 2-(1,8-naphthyridin-2-yl)-;2-(1,8-Naphthyridin-2-yl)phenol;2-(<em>o</em>-Hydroxyphenyl)-1,8-naphthyridine;2-(2-Hydroxyphenyl)-1,8-naphthyridine",
    "duplicated_cas_no": "",
    "SMILES": "OC1=C(C2=NC3=C(C=C2)C=CC=N3)C=CC=C1",
    "meta_data": {
        "InChI": "InChI=1S/C14H10N2O/c17-13-6-2-1-5-11(13)12-8-7-10-4-3-9-15-14(10)16-12/h1-9,17H",
        "InChIKey": null,
        "Canonical SMILES": "OC=1C=CC=CC1C=2N=C3N=CC=CC3=CC2",
        "Molecular Formula": "C<sub>14</sub>H<sub>10</sub>N<sub>2</sub>O",
        "Molecular Mass": "222.24",
        "Melting Point": "188 °C"
    }
}