{
    "cas_no": "27740-43-8",
    "key_name": "Erysotrine",
    "cn_name": null,
    "alternate_name": "Erythrinan, 1,2,6,7-tetradehydro-3,15,16-trimethoxy-, (3β)-;Erysotrine;1<em>H</em>-Indolo[7a,1-<em>a</em>]isoquinoline, erythrinan deriv.;(3β)-1,2,6,7-Tetradehydro-3,15,16-trimethoxyerythrinan;Erysotrin;(+)-Erysotrine",
    "duplicated_cas_no": "466-78-4;5572-10-1",
    "SMILES": "O(C)[C@@H]1C[C@]23C=4C(=CC(OC)=C(OC)C4)CCN2CC=C3C=C1",
    "meta_data": {
        "InChI": "InChI=1S/C19H23NO3/c1-21-15-5-4-14-7-9-20-8-6-13-10-17(22-2)18(23-3)11-16(13)19(14,20)12-15/h4-5,7,10-11,15H,6,8-9,12H2,1-3H3/t15-,19-/m0/s1",
        "InChIKey": null,
        "Canonical SMILES": "O(C=1C=C2C(=CC1OC)C34C(C=CC(OC)C3)=CCN4CC2)C",
        "Molecular Formula": "C<sub>19</sub>H<sub>23</sub>NO<sub>3</sub>",
        "Molecular Mass": "313.39",
        "Melting Point": "97-98 °C"
    }
}