{
    "cas_no": "1641-17-4",
    "key_name": "2-Hydroxy-4-methoxy-4′-methylbenzophenone",
    "cn_name": null,
    "alternate_name": "Methanone, (2-hydroxy-4-methoxyphenyl)(4-methylphenyl)-;Benzophenone, 2-hydroxy-4-methoxy-4′-methyl-;(2-Hydroxy-4-methoxyphenyl)(4-methylphenyl)methanone;2-Hydroxy-4-methoxy-4′-methylbenzophenone;Mexenone;Benzophenone 10;Mexenon;Uvistat 2211;Uvistat;(2-Hydroxy-4-methoxyphenyl)(<em>p</em>-tolyl)methanone",
    "duplicated_cas_no": "",
    "SMILES": "C(=O)(C1=C(O)C=C(OC)C=C1)C2=CC=C(C)C=C2",
    "meta_data": {
        "InChI": "InChI=1S/C15H14O3/c1-10-3-5-11(6-4-10)15(17)13-8-7-12(18-2)9-14(13)16/h3-9,16H,1-2H3",
        "InChIKey": null,
        "Canonical SMILES": "O=C(C1=CC=C(C=C1)C)C2=CC=C(OC)C=C2O",
        "Molecular Formula": "C<sub>15</sub>H<sub>14</sub>O<sub>3</sub>",
        "Molecular Mass": "242.27",
        "Melting Point": "95 °C"
    }
}