{
    "cas_no": "13195-64-7",
    "key_name": "Diisopropyl malonate",
    "cn_name": "丙二酸二异丙酯;",
    "alternate_name": "Propanedioic acid, 1,3-bis(1-methylethyl) ester;Malonic acid, diisopropyl ester;Propanedioic acid, bis(1-methylethyl) ester;Diisopropyl malonate;NSC 406716;Diisopropyl propanedioic acid;1,3-Bis(propan-2-yl) propanedioate",
    "duplicated_cas_no": "",
    "SMILES": "C(CC(OC(C)C)=O)(OC(C)C)=O",
    "meta_data": {
        "InChI": "InChI=1S/C9H16O4/c1-6(2)12-8(10)5-9(11)13-7(3)4/h6-7H,5H2,1-4H3",
        "InChIKey": null,
        "Canonical SMILES": "O=C(OC(C)C)CC(=O)OC(C)C",
        "Molecular Formula": "C<sub>9</sub>H<sub>16</sub>O<sub>4</sub>",
        "Molecular Mass": "188.22",
        "Melting Point": "114 °C"
    }
}