{
    "cas_no": "596-51-0",
    "key_name": "Glycopyrrolate",
    "cn_name": "甘罗溴铵;",
    "alternate_name": "Pyrrolidinium, 3-[(2-cyclopentyl-2-hydroxy-2-phenylacetyl)oxy]-1,1-dimethyl-, bromide (1:1);3-Hydroxy-1,1-dimethylpyrrolidinium bromide α-cyclopentylmandelate;Pyrrolidinium, 3-hydroxy-1,1-dimethyl-, bromide, α-cyclopentylmandelate;Pyrrolidinium, 3-[(cyclopentylhydroxyphenylacetyl)oxy]-1,1-dimethyl-, bromide;AHR-504;1,1-Dimethyl-3-hydroxypyrrolidinium bromide α-cyclopentylmandelate;Glycopyrrolate;Glycopyrronium bromide;β-1-Methyl-3-pyrrolidyl-α-cyclopentylmandelate methobromide;Robinul;Glycopyrronium;Tarodyl;Asecryl;Gastrodyn;Nodapton;Robanul;Tarodyn;Glycopyrrolate bromide;Copyrrolate;NSC 250836;NSC 251251;NSC 251252;NVA 237;Seebri;Glycopyrrone bromide;Qbrexza;Cuvposa;Sialanar;Seebri Breezhaler;Enurev Breezhaler;Tovanor Breezhaler;Dartisla ODT;MeSH ID: D006024",
    "duplicated_cas_no": "",
    "SMILES": "C(C(OC1C[N+](C)(C)CC1)=O)(O)(C2CCCC2)C3=CC=CC=C3.[Br-]",
    "meta_data": {
        "InChI": "InChI=1S/C19H28NO3.BrH/c1-20(2)13-12-17(14-20)23-18(21)19(22,16-10-6-7-11-16)15-8-4-3-5-9-15;/h3-5,8-9,16-17,22H,6-7,10-14H2,1-2H3;1H/q+1;/p-1",
        "InChIKey": null,
        "Canonical SMILES": "[Br-].O=C(OC1CC[N+](C)(C)C1)C(O)(C=2C=CC=CC2)C3CCCC3",
        "Molecular Formula": "C<sub>19</sub>H<sub>28</sub>NO<sub>3</sub>.Br",
        "Molecular Mass": "",
        "Melting Point": "192.5 °C"
    }
}