{
    "cas_no": "1002-62-6",
    "key_name": "Sodium caprate",
    "cn_name": "癸酸钠;癸酸钠;",
    "alternate_name": "Decanoic acid, sodium salt (1:1);Decanoic acid, sodium salt;Sodium caprinate;Sodium decanoate;Sodium caprate;Sodium decanoic acid;Capric acid sodium salt;NAA 102",
    "duplicated_cas_no": "",
    "SMILES": "C(CCCCCC)CCC(O)=O.[Na]",
    "meta_data": {
        "InChI": "InChI=1S/C10H20O2.Na/c1-2-3-4-5-6-7-8-9-10(11)12;/h2-9H2,1H3,(H,11,12);",
        "InChIKey": null,
        "Canonical SMILES": "[Na].O=C(O)CCCCCCCCC",
        "Molecular Formula": "C<sub>10</sub>H<sub>20</sub>O<sub>2</sub>.Na",
        "Molecular Mass": "",
        "Melting Point": "318 °C"
    }
}