{
    "cas_no": "2562-38-1",
    "key_name": "Nitrocyclopentane",
    "cn_name": "硝基环戊烷;",
    "alternate_name": "Cyclopentane, nitro-;Nitrocyclopentane",
    "duplicated_cas_no": "",
    "SMILES": "N(=O)(=O)C1CCCC1",
    "meta_data": {
        "InChI": "InChI=1S/C5H9NO2/c7-6(8)5-3-1-2-4-5/h5H,1-4H2",
        "InChIKey": null,
        "Canonical SMILES": "O=N(=O)C1CCCC1",
        "Molecular Formula": "C<sub>5</sub>H<sub>9</sub>NO<sub>2</sub>",
        "Molecular Mass": "115.13",
        "Boiling Point": "76 °C @ Press: 21 Torr",
        "Melting Point": "143-144 °C",
        "Density": "1.086 g/cm³ @ Temp: 25 °C"
    }
}