{
    "cas_no": "25122-41-2",
    "key_name": "Clobetasol",
    "cn_name": "氯倍他索;",
    "alternate_name": "Pregna-1,4-diene-3,20-dione, 21-chloro-9-fluoro-11,17-dihydroxy-16-methyl-, (11β,16β)-;Pregna-1,4-diene-3,20-dione, 21-chloro-9-fluoro-11β,17-dihydroxy-16β-methyl-;(11β,16β)-21-Chloro-9-fluoro-11,17-dihydroxy-16-methylpregna-1,4-diene-3,20-dione;Clobetasol;21-Chloro-9-fluoro-11β,17-dihydroxy-16β-methylpregna-1,4-diene-3,20-dione;Dovate",
    "duplicated_cas_no": "",
    "SMILES": "F[C@@]12[C@]([C@]3([C@](C)(C[C@@H]1O)[C@](C(CCl)=O)(O)[C@@H](C)C3)[H])(CCC=4[C@]2(C)C=CC(=O)C4)[H]",
    "meta_data": {
        "InChI": "InChI=1S/C22H28ClFO4/c1-12-8-16-15-5-4-13-9-14(25)6-7-19(13,2)21(15,24)17(26)10-20(16,3)22(12,28)18(27)11-23/h6-7,9,12,15-17,26,28H,4-5,8,10-11H2,1-3H3/t12-,15-,16-,17-,19-,20-,21-,22-/m0/s1",
        "InChIKey": null,
        "Canonical SMILES": "O=C1C=CC2(C(=C1)CCC3C4CC(C)C(O)(C(=O)CCl)C4(C)CC(O)C32F)C",
        "Molecular Formula": "C<sub>22</sub>H<sub>28</sub>ClFO<sub>4</sub>",
        "Molecular Mass": "410.91",
        "Melting Point": "195.5-197 °C"
    }
}