{
    "cas_no": "26549-21-3",
    "key_name": "(2<em>S</em>,3<em>S</em>)-2,3-Dimethoxy-<em>N</em><sup>1</sup>,<em>N</em><sup>1</sup>,<em>N</em><sup>4</sup>,<em>N</em><sup>4</sup>-tetramethyl-1,4-butanediamine",
    "cn_name": "(S,S)-(+)-2,3-二甲氧基-1,4-双(二甲氨基)丁烷;(S,S)-(+)-2,3-二甲氧基-1,4-双(二甲氨基)丁烷;2,3-二甲氧基;",
    "alternate_name": "1,4-Butanediamine, 2,3-dimethoxy-<em>N</em><sup>1</sup>,<em>N</em><sup>1</sup>,<em>N</em><sup>4</sup>,<em>N</em><sup>4</sup>-tetramethyl-, (2<em>S</em>,3<em>S</em>)-;1,4-Butanediamine, 2,3-dimethoxy-<em>N</em>,<em>N</em>,<em>N</em>′,<em>N</em>′-tetramethyl-, (<em>S</em>,<em>S</em>)-(+)-;1,4-Butanediamine, 2,3-dimethoxy-<em>N</em>,<em>N</em>,<em>N</em>′,<em>N</em>′-tetramethyl-, [<em>S</em>-(<em>R</em>*,<em>R</em>*)]-;(2<em>S</em>,3<em>S</em>)-2,3-Dimethoxy-<em>N</em><sup>1</sup>,<em>N</em><sup>1</sup>,<em>N</em><sup>4</sup>,<em>N</em><sup>4</sup>-tetramethyl-1,4-butanediamine;(<em>S</em>,<em>S</em>)-(+)-<em>N</em>,<em>N</em>,<em>N</em>′,<em>N</em>′-Tetramethyl-2,3-dimethoxy-1,4-butanediamine;(+)-(2<em>S</em>,3<em>S</em>)-Dimethoxy-1,4-bis(dimethylamino)butane;(+)-2,3-Dimethoxy-<em>N</em>,<em>N</em>,<em>N</em>′,<em>N</em>′-tetramethyl-1,4-butanediamine;(+)-2,3-Dimethoxy-1,4-bis(dimethylamino)butane;<em>S</em>,<em>S</em>-(+)-2,3-Dimethoxy-1,4-bis(dimethylamino)butane;(<em>S</em>,<em>S</em>)-1,4-Bis(dimethylamino)-2,3-dimethoxybutane",
    "duplicated_cas_no": "",
    "SMILES": "[C@@H]([C@H](CN(C)C)OC)(CN(C)C)OC",
    "meta_data": {
        "InChI": "InChI=1S/C10H24N2O2/c1-11(2)7-9(13-5)10(14-6)8-12(3)4/h9-10H,7-8H2,1-6H3/t9-,10-/m0/s1",
        "InChIKey": null,
        "Canonical SMILES": "O(C)C(CN(C)C)C(OC)CN(C)C",
        "Molecular Formula": "C<sub>10</sub>H<sub>24</sub>N<sub>2</sub>O<sub>2</sub>",
        "Molecular Mass": "204.31",
        "Boiling Point": "62-64 °C @ Press: 3 Torr",
        "Density": "0.896 g/cm³ @ Temp: 20 °C"
    }
}