{
    "cas_no": "110-42-9",
    "key_name": "Methyl decanoate",
    "cn_name": "癸酸甲酯;",
    "alternate_name": "Decanoic acid, methyl ester;Metholene 2095;Methyl caprate;Methyl caprinate;Methyl decanoate;Uniphat A 30;Capric acid methyl ester;Methyl <em>n</em>-caprate;Methyl <em>n</em>-decanoate;Pastell M 10;Estasol MD 10;C 1098;NSC 3713;CE 1095",
    "duplicated_cas_no": "",
    "SMILES": "C(CCCCCCCC)C(OC)=O",
    "meta_data": {
        "InChI": "InChI=1S/C11H22O2/c1-3-4-5-6-7-8-9-10-11(12)13-2/h3-10H2,1-2H3",
        "InChIKey": null,
        "Canonical SMILES": "O=C(OC)CCCCCCCCC",
        "Molecular Formula": "C<sub>11</sub>H<sub>22</sub>O<sub>2</sub>",
        "Molecular Mass": "186.29",
        "Boiling Point": "224 °C @ Press: 760 Torr",
        "Melting Point": "-18 °C",
        "Density": "0.8730 g/cm³ @ Temp: 20 °C"
    }
}