{
    "cas_no": "101205-02-1",
    "key_name": "Cycloxydim",
    "cn_name": "噻草酮;草噻喃;(±)-2-(1-(乙氧基亚氨基)丁基)-3-羟基-5-噻唑-3环己基-2-烯酮;",
    "alternate_name": "2-Cyclohexen-1-one, 2-[1-(ethoxyimino)butyl]-3-hydroxy-5-(tetrahydro-2<em>H</em>-thiopyran-3-yl)-;2<em>H</em>-Thiopyran, 2-cyclohexen-1-one deriv.;2-[1-(Ethoxyimino)butyl]-3-hydroxy-5-(tetrahydro-2<em>H</em>-thiopyran-3-yl)-2-cyclohexen-1-one;BAS 517H;BAS 517-02H;BAS 51701H;BAS 517;Cycloxydim;BAS 51704H;Focus;Focus Ultra;Stratos;Laser;Focus Plus;Laser (herbicide);Stratos Ultra",
    "duplicated_cas_no": "101062-69-5;110400-57-2",
    "SMILES": "C(=NOCC)(CCC)C=1C(=O)CC(CC1O)C2CCCSC2",
    "meta_data": {
        "InChI": "InChI=1S/C17H27NO3S/c1-3-6-14(18-21-4-2)17-15(19)9-13(10-16(17)20)12-7-5-8-22-11-12/h12-13,19H,3-11H2,1-2H3",
        "InChIKey": null,
        "Canonical SMILES": "O=C1C(=C(O)CC(C1)C2CSCCC2)C(=NOCC)CCC",
        "Molecular Formula": "C<sub>17</sub>H<sub>27</sub>NO<sub>3</sub>S",
        "Molecular Mass": "325.47",
        "Melting Point": "41 °C"
    }
}