{
    "cas_no": "18395-93-2",
    "key_name": "Heptylmethyldichlorosilane",
    "cn_name": null,
    "alternate_name": "Silane, dichloroheptylmethyl-;Dichloroheptylmethylsilane;Heptylmethyldichlorosilane;Dichloro(heptyl)methylsilane",
    "duplicated_cas_no": "",
    "SMILES": "C(CCCCCC)[Si](C)(Cl)Cl",
    "meta_data": {
        "InChI": "InChI=1S/C8H18Cl2Si/c1-3-4-5-6-7-8-11(2,9)10/h3-8H2,1-2H3",
        "InChIKey": null,
        "Canonical SMILES": "Cl[Si](Cl)(C)CCCCCCC",
        "Molecular Formula": "C<sub>8</sub>H<sub>18</sub>Cl<sub>2</sub>Si",
        "Molecular Mass": "213.22",
        "Boiling Point": "207.5 °C @ Press: 750 Torr",
        "Density": "0.9780 g/cm³ @ Temp: 25 °C"
    }
}