{
    "cas_no": "504-85-8",
    "key_name": "4-Methyl-3-pentenoic acid",
    "cn_name": null,
    "alternate_name": "3-Pentenoic acid, 4-methyl-;4-Methyl-3-pentenoic acid;Pyroterebic acid;4,4-Dimethyl-3-butenoic acid;4-Methyl-3-penten-1-oic acid",
    "duplicated_cas_no": "1866-96-2",
    "SMILES": "C(CC(O)=O)=C(C)C",
    "meta_data": {
        "InChI": "InChI=1S/C6H10O2/c1-5(2)3-4-6(7)8/h3H,4H2,1-2H3,(H,7,8)",
        "InChIKey": null,
        "Canonical SMILES": "O=C(O)CC=C(C)C",
        "Molecular Formula": "C<sub>6</sub>H<sub>10</sub>O<sub>2</sub>",
        "Molecular Mass": "114.14",
        "Boiling Point": "107-108 °C @ Press: 13.5 Torr",
        "Melting Point": "98 °C",
        "Density": "0.9726 g/cm³ @ Temp: 25 °C"
    }
}