{
    "cas_no": "407-22-7",
    "key_name": "2-Fluoro-6-methylpyridine",
    "cn_name": "2-氟-6-甲基吡啶;",
    "alternate_name": "Pyridine, 2-fluoro-6-methyl-;2-Picoline, 6-fluoro-;2-Fluoro-6-methylpyridine;6-Fluoro-2-picoline;NSC 51590;2-Methyl-6-fluoropyridine;6-Fluoro-2-methylpyridine",
    "duplicated_cas_no": "",
    "SMILES": "CC=1N=C(F)C=CC1",
    "meta_data": {
        "InChI": "InChI=1S/C6H6FN/c1-5-3-2-4-6(7)8-5/h2-4H,1H3",
        "InChIKey": null,
        "Canonical SMILES": "FC=1N=C(C=CC1)C",
        "Molecular Formula": "C<sub>6</sub>H<sub>6</sub>FN",
        "Molecular Mass": "111.12",
        "Boiling Point": "142 °C"
    }
}