{
    "cas_no": "17702-41-9",
    "key_name": "Decaborane",
    "cn_name": null,
    "alternate_name": "Decaborane(14);Decaborane (B<sub>10</sub>H<sub>14</sub>);Tetradecahydrodecaborane;<em>nido</em>-Decaborane(14);Decaborane;Boron hydride (B<sub>10</sub>H<sub>14</sub>);NSC 39828",
    "duplicated_cas_no": "106996-53-6;1304-02-5;12707-29-8;27340-43-8;52340-09-7",
    "SMILES": "[BH]1234[BH]567[BH]189[BH]2%10%11[BH]3%12%13[BH]45%14[BH]6%15([BH]78%16[BH]9%10([H]%11)[H]%16)[BH]%14%12([H]%13)[H]%15",
    "meta_data": {
        "InChI": "InChI=1S/B10H14/c11-5-1-2-3(1,5)7(2,9(3,5,11)13-7)8(2)4(1,2)6(1,5)10(4,8,12-6)14-8/h1-10H",
        "InChIKey": null,
        "Canonical SMILES": "[H]1[BH]234[BH]567[BH]89%10[BH]52%11[BH]%128([H][BH]1%113%12)[BH]%13%14%10[H][BH]%15%16%14[H][BH]64%16[BH]79%13%15",
        "Molecular Formula": "B<sub>10</sub>H<sub>14</sub>",
        "Molecular Mass": "112.14",
        "Boiling Point": "213 °C",
        "Melting Point": "99.5 °C",
        "Density": "0.9 g/cm³"
    }
}