{
    "cas_no": "29086-41-7",
    "key_name": "1,1-Bis(bromomethyl)cyclopropane",
    "cn_name": null,
    "alternate_name": "Cyclopropane, 1,1-bis(bromomethyl)-;1,1-Bis(bromomethyl)cyclopropane;1,1-Di(bromomethyl)cyclopropane",
    "duplicated_cas_no": "",
    "SMILES": "C(Br)C1(CBr)CC1",
    "meta_data": {
        "InChI": "InChI=1S/C5H8Br2/c6-3-5(4-7)1-2-5/h1-4H2",
        "InChIKey": null,
        "Canonical SMILES": "BrCC1(CBr)CC1",
        "Molecular Formula": "C<sub>5</sub>H<sub>8</sub>Br<sub>2</sub>",
        "Molecular Mass": "227.93",
        "Boiling Point": "63.7-64.0 °C @ Press: 5.1 Torr"
    }
}