{
    "cas_no": "2687-43-6",
    "key_name": "<em>O</em>-Benzylhydroxylamine hydrochloride",
    "cn_name": "苄氧基胺盐酸盐;苄氧胺盐酸盐;",
    "alternate_name": "Hydroxylamine, <em>O</em>-(phenylmethyl)-, hydrochloride (1:1);Hydroxylamine, <em>O</em>-benzyl-, hydrochloride;Hydroxylamine, <em>O</em>-(phenylmethyl)-, hydrochloride;Benzyloxyamine, hydrochloride;<em>O</em>-Benzylhydroxylamine hydrochloride;Benzyloxyammonium chloride;<em>O</em>-(Phenylmethyl)hydroxylamine hydrochloride;Phenylmethoxyamine hydrochloride;Hydroxylamine <em>O</em>-benzyl ether hydrochloride;[(Aminooxy)methyl]benzene hydrochloride",
    "duplicated_cas_no": "1919841-22-7",
    "SMILES": "C(ON)C1=CC=CC=C1.Cl",
    "meta_data": {
        "InChI": "InChI=1S/C7H9NO.ClH/c8-9-6-7-4-2-1-3-5-7;/h1-5H,6,8H2;1H",
        "InChIKey": null,
        "Canonical SMILES": "Cl.O(N)CC=1C=CC=CC1",
        "Molecular Formula": "C<sub>7</sub>H<sub>9</sub>NO.ClH",
        "Molecular Mass": "",
        "Melting Point": "230-235 °C"
    }
}