{
    "cas_no": "621-36-3",
    "key_name": "(3-Methylphenyl)acetic acid",
    "cn_name": "间甲基苯乙酸;",
    "alternate_name": "Benzeneacetic acid, 3-methyl-;Acetic acid, <em>m</em>-tolyl-;3-Methylbenzeneacetic acid;(3-Methylphenyl)acetic acid;<em>m</em>-Tolylacetic acid;<em>m</em>-Methylphenylacetic acid;3-Tolylacetic acid;NSC 76090;2-(3-Methylphenyl)acetic acid;<em>m</em>-Methylbenzeneacetic acid;2-(<em>m</em>-Tolyl)acetic acid",
    "duplicated_cas_no": "",
    "SMILES": "C(C(O)=O)C1=CC(C)=CC=C1",
    "meta_data": {
        "InChI": "InChI=1S/C9H10O2/c1-7-3-2-4-8(5-7)6-9(10)11/h2-5H,6H2,1H3,(H,10,11)",
        "InChIKey": null,
        "Canonical SMILES": "O=C(O)CC=1C=CC=C(C1)C",
        "Molecular Formula": "C<sub>9</sub>H<sub>10</sub>O<sub>2</sub>",
        "Molecular Mass": "150.17",
        "Boiling Point": "120-123 °C",
        "Melting Point": "62 °C"
    }
}