{
    "cas_no": "111-90-0",
    "key_name": "Diethylene glycol monoethyl ether",
    "cn_name": "二乙二醇乙醚;乙基卡必醇;二乙二醇单乙醚;",
    "alternate_name": "Ethanol, 2-(2-ethoxyethoxy)-;Ethanol, 2-(β-ethoxyethoxy)-;2-(2-Ethoxyethoxy)ethanol;Diethylene glycol ethyl ether;Diglycol monoethyl ether;Dioxitol;Dowanol DE;Ethylene diglycol monoethyl ether;Poly-Solv DE;Solvolsol;Carbitol;Ethyl carbitol;Transcutol;Ethyl digol;Ektasolve DE;Diethylene glycol monoethyl ether;1-Hydroxy-3,6-dioxaoctane;<em>O</em>-Ethyl digol;Ethanol, 2,2′-oxybis-, monoethyl ether;2-(2′-Ethoxyethoxy)ethanol;3,6-Dioxa-1-octanol;Ethyldiethylene glycol;Carbitol Solvent Low;Transcutol P;Ethyl Diglysolv;Trivalin SF;Transcutol CG;Shihozoru DG;NSC 408451;Transcutol HP;Seahosol DG;Seahosol DG-L;Ethoxydiethylene glycol;2-(2-Ethoxyethoxy)ethan-1-ol;Seahosol DG-S;Glycol ether de;EDG;Transcutol ES;Hydranal Composite 5K;Epocutol;Carbitol Solvent",
    "duplicated_cas_no": "",
    "SMILES": "C(COCC)OCCO",
    "meta_data": {
        "InChI": "InChI=1S/C6H14O3/c1-2-8-5-6-9-4-3-7/h7H,2-6H2,1H3",
        "InChIKey": null,
        "Canonical SMILES": "OCCOCCOCC",
        "Molecular Formula": "C<sub>6</sub>H<sub>14</sub>O<sub>3</sub>",
        "Molecular Mass": "134.17",
        "Boiling Point": "196 °C",
        "Melting Point": "-76 °C",
        "Density": "0.989 g/cm³"
    }
}