{
    "cas_no": "10321-71-8",
    "key_name": "4-Methyl-2-pentenoic acid",
    "cn_name": null,
    "alternate_name": "2-Pentenoic acid, 4-methyl-;4-Methyl-2-pentenoic acid;4,4-Dimethyl-2-butenoic acid;4-Methylpent-2-en-1-oic acid",
    "duplicated_cas_no": "",
    "SMILES": "C(=CC(O)=O)C(C)C",
    "meta_data": {
        "InChI": "InChI=1S/C6H10O2/c1-5(2)3-4-6(7)8/h3-5H,1-2H3,(H,7,8)",
        "InChIKey": null,
        "Canonical SMILES": "O=C(O)C=CC(C)C",
        "Molecular Formula": "C<sub>6</sub>H<sub>10</sub>O<sub>2</sub>",
        "Molecular Mass": "114.14",
        "Boiling Point": "217 °C",
        "Melting Point": "35 °C",
        "Density": "0.9589 g/cm³ @ Temp: 16 °C"
    }
}