{
    "cas_no": "21402-26-6",
    "key_name": "4-Bromo-3-chloroaniline",
    "cn_name": "4-溴-3-氯苯胺;",
    "alternate_name": "Benzenamine, 4-bromo-3-chloro-;Aniline, 4-bromo-3-chloro-;4-Bromo-3-chlorobenzenamine;3-Chloro-4-bromoaniline;4-Bromo-3-chloroaniline;(4-Bromo-3-chlorophenyl)amine",
    "duplicated_cas_no": "",
    "SMILES": "ClC1=C(Br)C=CC(N)=C1",
    "meta_data": {
        "InChI": "InChI=1S/C6H5BrClN/c7-5-2-1-4(9)3-6(5)8/h1-3H,9H2",
        "InChIKey": null,
        "Canonical SMILES": "ClC1=CC(N)=CC=C1Br",
        "Molecular Formula": "C<sub>6</sub>H<sub>5</sub>BrClN",
        "Molecular Mass": "206.47",
        "Melting Point": "66-67 °C"
    }
}