{
    "cas_no": "49844-90-8",
    "key_name": "4-Chloro-2-(methylthio)pyrimidine",
    "cn_name": null,
    "alternate_name": "Pyrimidine, 4-chloro-2-(methylthio)-;4-Chloro-2-(methylthio)pyrimidine;4-Chloro-2-(methylsulfanyl)pyrimidine;2-(Methylthio)-4-chloropyrimidine;4-Chloro-2-(methylmercapto)pyrimidine;NSC 100866;6-Chloro-2-methylthiopyrimidine",
    "duplicated_cas_no": "",
    "SMILES": "S(C)C=1N=C(Cl)C=CN1",
    "meta_data": {
        "InChI": "InChI=1S/C5H5ClN2S/c1-9-5-7-3-2-4(6)8-5/h2-3H,1H3",
        "InChIKey": null,
        "Canonical SMILES": "ClC1=NC(=NC=C1)SC",
        "Molecular Formula": "C<sub>5</sub>H<sub>5</sub>ClN<sub>2</sub>S",
        "Molecular Mass": "160.62",
        "Boiling Point": "122 °C @ Press: 18 Torr"
    }
}