{
    "cas_no": "22581-63-1",
    "key_name": "Ethane-<em>1</em>,<em>1</em>,<em>2</em>,<em>2</em>-<em>d</em><sub>4</sub>, 1,2-dibromo-",
    "cn_name": null,
    "alternate_name": "Ethane-<em>1</em>,<em>1</em>,<em>2</em>,<em>2</em>-<em>d</em><sub>4</sub>, 1,2-dibromo-;Ethane-<em>1</em>,<em>1</em>,<em>2</em>,<em>2</em>-<em>d</em><sub>4</sub>, dibromo-;1,2-Dibromotetradeuteroethane;1,2-Dibromoethane-<em>d</em><sub>4</sub>;1,2-Dibromo-1,1,2,2-tetradeuteroethane;1,1,2,2-Tetradeutero-1,2-dibromoethane;1,2-Dibromo-1,1,2,2-tetradeuterioethane",
    "duplicated_cas_no": "",
    "SMILES": "C(C(Br)([2H])[2H])(Br)([2H])[2H]",
    "meta_data": {
        "InChI": "InChI=1S/C2H4Br2/c3-1-2-4/h1-2H2/i1D2,2D2",
        "InChIKey": null,
        "Canonical SMILES": "BrCCBr",
        "Molecular Formula": "C<sub>2</sub>Br<sub>2</sub>D<sub>4</sub>",
        "Molecular Mass": "",
        "Boiling Point": "129.5 °C",
        "Melting Point": "130.15 °C",
        "Density": "2.20407 g/cm³ @ Temp: 20 °C"
    }
}