{
    "cas_no": "105-83-9",
    "key_name": "Bis(3-aminopropyl)methylamine",
    "cn_name": "N,N-双(3-氨丙基)甲胺;N-(3-氨基丙基)-N-甲基-1,3-丙二胺;",
    "alternate_name": "1,3-Propanediamine, <em>N</em><sup>1</sup>-(3-aminopropyl)-<em>N</em><sup>1</sup>-methyl-;Dipropylamine, 3,3′-diamino-<em>N</em>-methyl-;1,3-Propanediamine, <em>N</em>-(3-aminopropyl)-<em>N</em>-methyl-;<em>N</em><sup>1</sup>-(3-Aminopropyl)-<em>N</em><sup>1</sup>-methyl-1,3-propanediamine;Bis(γ-aminopropyl)methylamine;Bis(ω-aminopropyl)methylamine;Bis(3-aminopropyl)methylamine;<em>N</em>,<em>N</em>-Bis(γ-aminopropyl)methylamine;<em>N</em>,<em>N</em>-Bis(3-aminopropyl)methylamine;3,3′-Diamino-<em>N</em>-methyldipropylamine;Methylbis(3-aminopropyl)amine;<em>N</em>-Methyl-<em>N</em>,<em>N</em>-bis(3-aminopropyl)amine;Methyliminobispropylamine;5-Methyldipropylenetriamine;<em>N</em>-Methyliminobis[propylamine];Di(γ-aminopropyl)methylamine;4-Aza-4-methylheptane-1,7-diamine;3,3′-Methyliminobispropylamine;<em>N</em>-(3-Aminopropyl)-<em>N</em>-methyl-1,3-propanediamine;<em>N</em>′-Methyldipropylenetriamine;<em>N</em>-Methyliminobis[1-propanamine];1,7-Diamino-4-methyl-4-azaheptane;<em>N</em>′-Methyl-3,3′-diaminodipropylamine;5-Methyl-1,5,9-triazanonane;NSC 8173;1,7-Diamino-4-aza(methyl)heptane;<em>N</em>,<em>N</em>′-Bis(3-aminopropyl)methylamine;3,3′-Diamino-<em>N</em>-methyldipropylmine;(7-Amino-4-methyl-4-azaheptyl)amine;<em>N</em>,<em>N</em>-Bis(aminopropyl)methylamine",
    "duplicated_cas_no": "113277-73-9;92213-62-2",
    "SMILES": "N(CCCN)(CCCN)C",
    "meta_data": {
        "InChI": "InChI=1S/C7H19N3/c1-10(6-2-4-8)7-3-5-9/h2-9H2,1H3",
        "InChIKey": null,
        "Canonical SMILES": "NCCCN(C)CCCN",
        "Molecular Formula": "C<sub>7</sub>H<sub>19</sub>N<sub>3</sub>",
        "Molecular Mass": "145.25",
        "Boiling Point": "232.5 °C",
        "Density": "0.9023 g/cm³ @ Temp: 20 °C"
    }
}