{
    "cas_no": "118909-22-1",
    "key_name": "Velnacrine maleate",
    "cn_name": null,
    "alternate_name": "1-Acridinol, 9-amino-1,2,3,4-tetrahydro-, (2<em>Z</em>)-2-butenedioate (1:1);1-Acridinol, 9-amino-1,2,3,4-tetrahydro-, (±)-, (<em>Z</em>)-2-butenedioate (1:1) (salt);1-Acridinol, 9-amino-1,2,3,4-tetrahydro-, (2<em>Z</em>)-2-butenedioate (1:1) (salt);HP 029;Velnacrine maleate;P 83-6029A;Velnacrine hydrogen maleate;Mentane;1-Acridinol, 9-amino-1,2,3,4-tetrahydro-, (<em>Z</em>)-2-butenedioate (1:1) (salt)",
    "duplicated_cas_no": "112964-99-5;121445-18-9;157789-17-8",
    "SMILES": "NC1=C2C(=NC=3C1=CC=CC3)CCCC2O.C(=C\\C(O)=O)\\C(O)=O",
    "meta_data": {
        "InChI": "InChI=1S/C13H14N2O.C4H4O4/c14-13-8-4-1-2-5-9(8)15-10-6-3-7-11(16)12(10)13;5-3(6)1-2-4(7)8/h1-2,4-5,11,16H,3,6-7H2,(H2,14,15);1-2H,(H,5,6)(H,7,8)/b;2-1-",
        "InChIKey": null,
        "Canonical SMILES": "O=C(O)C=CC(=O)O.OC1C2=C(N)C=3C=CC=CC3N=C2CCC1",
        "Molecular Formula": "C<sub>13</sub>H<sub>14</sub>N<sub>2</sub>O.C<sub>4</sub>H<sub>4</sub>O<sub>4</sub>",
        "Molecular Mass": "",
        "Melting Point": "171-173 °C"
    }
}