{
    "cas_no": "163680-77-1",
    "key_name": "7<em>H</em>-Pyrido[1,2,3-<em>de</em>]-1,4-benzoxazine-6-carboxylic acid, 10-(1-aminocyclopropyl)-9-fluoro-2,3-dihydro-3-methyl-7-oxo-, (3<em>S</em>)-, methanesulfonate (1:1)",
    "cn_name": "甲磺酸帕珠沙星;(S)-(-)-10-(1-氨基环丙基)-9-氟-3-甲基-7-氧代-2,3-二氢-7H-吡啶[1,2,3,de][1,4]苯并噁嗪-;",
    "alternate_name": "7<em>H</em>-Pyrido[1,2,3-<em>de</em>]-1,4-benzoxazine-6-carboxylic acid, 10-(1-aminocyclopropyl)-9-fluoro-2,3-dihydro-3-methyl-7-oxo-, (3<em>S</em>)-, methanesulfonate (1:1);7<em>H</em>-Pyrido[1,2,3-<em>de</em>]-1,4-benzoxazine-6-carboxylic acid, 10-(1-aminocyclopropyl)-9-fluoro-2,3-dihydro-3-methyl-7-oxo-, (<em>S</em>)-, monomethanesulfonate;7<em>H</em>-Pyrido[1,2,3-<em>de</em>]-1,4-benzoxazine-6-carboxylic acid, 10-(1-aminocyclopropyl)-9-fluoro-2,3-dihydro-3-methyl-7-oxo-, (3<em>S</em>)-, monomethanesulfonate;T 3762;Pazufloxacin mesilate;Pazufloxacin methanesulfonate;Pasil;Pazucross;Pazufloxacin mesylate",
    "duplicated_cas_no": "",
    "SMILES": "O=C1C=2C3=C(C(=C(F)C2)C4(N)CC4)OC[C@H](C)N3C=C1C(O)=O.S(C)(=O)(=O)O",
    "meta_data": {
        "InChI": "InChI=1S/C16H15FN2O4.CH4O3S/c1-7-6-23-14-11(16(18)2-3-16)10(17)4-8-12(14)19(7)5-9(13(8)20)15(21)22;1-5(2,3)4/h4-5,7H,2-3,6,18H2,1H3,(H,21,22);1H3,(H,2,3,4)/t7-;/m0./s1",
        "InChIKey": null,
        "Canonical SMILES": "O=C(O)C1=CN2C3=C(OCC2C)C(=C(F)C=C3C1=O)C4(N)CC4.O=S(=O)(O)C",
        "Molecular Formula": "C<sub>16</sub>H<sub>15</sub>FN<sub>2</sub>O<sub>4</sub>.CH<sub>4</sub>O<sub>3</sub>S",
        "Molecular Mass": "",
        "Melting Point": "258-259 °C (decomp)"
    }
}