{
    "cas_no": "112-51-6",
    "key_name": "Dipentyl disulfide",
    "cn_name": null,
    "alternate_name": "Disulfide, dipentyl;Pentyl disulfide;Dipentyl disulfide;Diamyl disulfide;Bis(1-pentyl) disulfide;6,7-Dithiadodecane;<em>n</em>-Amyl disulfide;<em>n</em>-Pentanedisulfide;Di-<em>n</em>-amyl disulfide;Di-<em>n</em>-pentyl disulfide;1-(Pentyldisulfanyl)pentane",
    "duplicated_cas_no": "",
    "SMILES": "S(SCCCCC)CCCCC",
    "meta_data": {
        "InChI": "InChI=1S/C10H22S2/c1-3-5-7-9-11-12-10-8-6-4-2/h3-10H2,1-2H3",
        "InChIKey": null,
        "Canonical SMILES": "S(SCCCCC)CCCCC",
        "Molecular Formula": "C<sub>10</sub>H<sub>22</sub>S<sub>2</sub>",
        "Molecular Mass": "206.41",
        "Boiling Point": "119 °C",
        "Melting Point": "8.0 °C",
        "Density": "0.9221 g/cm³ @ Temp: 20 °C"
    }
}