{
    "cas_no": "768-59-2",
    "key_name": "4-Ethylbenzyl alcohol",
    "cn_name": "对乙基苄醇;",
    "alternate_name": "Benzenemethanol, 4-ethyl-;Benzyl alcohol, <em>p</em>-ethyl-;4-Ethylbenzenemethanol;<em>p</em>-Ethylbenzyl alcohol;4-Ethylbenzyl alcohol;(4-Ethylphenyl)methanol",
    "duplicated_cas_no": "",
    "SMILES": "C(C)C1=CC=C(CO)C=C1",
    "meta_data": {
        "InChI": "InChI=1S/C9H12O/c1-2-8-3-5-9(7-10)6-4-8/h3-6,10H,2,7H2,1H3",
        "InChIKey": null,
        "Canonical SMILES": "OCC1=CC=C(C=C1)CC",
        "Molecular Formula": "C<sub>9</sub>H<sub>12</sub>O",
        "Molecular Mass": "136.19",
        "Boiling Point": "115-117 °C @ Press: 9 Torr",
        "Melting Point": "85-86.5 °C"
    }
}