{
    "cas_no": "27490-33-1",
    "key_name": "1-(Tributylstannyl)methanol",
    "cn_name": null,
    "alternate_name": "Methanol, 1-(tributylstannyl)-;Methanol, (tributylstannyl)-;1-(Tributylstannyl)methanol;(Tributylstannyl)methanol;Tributyl(hydroxymethyl)stannane;(Hydroxymethyl)tributyltin;Hydroxymethyl tributylstannane",
    "duplicated_cas_no": "",
    "SMILES": "[Sn](CCCC)(CCCC)(CCCC)CO",
    "meta_data": {
        "InChI": "InChI=1S/3C4H9.CH3O.Sn/c3*1-3-4-2;1-2;/h3*1,3-4H2,2H3;2H,1H2;",
        "InChIKey": null,
        "Canonical SMILES": "OC[Sn](CCCC)(CCCC)CCCC",
        "Molecular Formula": "C<sub>13</sub>H<sub>30</sub>OSn",
        "Molecular Mass": "321.09",
        "Boiling Point": "110 °C @ Press: 0.01 Torr"
    }
}