{
    "cas_no": "89-77-0",
    "key_name": "2-Amino-4-chlorobenzoic acid",
    "cn_name": "2-氨基-4-氯苯甲酸;4-氯-2-氨基苯甲酸;",
    "alternate_name": "Benzoic acid, 2-amino-4-chloro-;Anthranilic acid, 4-chloro-;2-Amino-4-chlorobenzoic acid;4-Chloroanthranilic acid;4-Chloro-2-aminobenzoic acid;NSC 17188",
    "duplicated_cas_no": "",
    "SMILES": "C(O)(=O)C1=C(N)C=C(Cl)C=C1",
    "meta_data": {
        "InChI": "InChI=1S/C7H6ClNO2/c8-4-1-2-5(7(10)11)6(9)3-4/h1-3H,9H2,(H,10,11)",
        "InChIKey": null,
        "Canonical SMILES": "O=C(O)C1=CC=C(Cl)C=C1N",
        "Molecular Formula": "C<sub>7</sub>H<sub>6</sub>ClNO<sub>2</sub>",
        "Molecular Mass": "171.58",
        "Melting Point": "232 °C"
    }
}