{
    "cas_no": "40353-34-2",
    "key_name": "7-Nitro-1-tetralone",
    "cn_name": "7-硝基-3,4-二氢-2H-1-萘酮;7-硝基-1-四氢萘酮;",
    "alternate_name": "1(2<em>H</em>)-Naphthalenone, 3,4-dihydro-7-nitro-;3,4-Dihydro-7-nitro-1(2<em>H</em>)-naphthalenone;7-Nitro-α-tetralone;7-Nitro-1-tetralone;NSC 184729;NSC 78452;3,4-Dihydro-7-nitronaphthalen-1(2<em>H</em>)-one;7-Nitro-3,4-dihydro-1(2<em>H</em>)-naphthalenone;7-Nitro-3,4-dihydro-2<em>H</em>-naphthalen-1-one",
    "duplicated_cas_no": "",
    "SMILES": "O=C1C=2C(=CC=C(N(=O)=O)C2)CCC1",
    "meta_data": {
        "InChI": "InChI=1S/C10H9NO3/c12-10-3-1-2-7-4-5-8(11(13)14)6-9(7)10/h4-6H,1-3H2",
        "InChIKey": null,
        "Canonical SMILES": "O=C1C2=CC(=CC=C2CCC1)N(=O)=O",
        "Molecular Formula": "C<sub>10</sub>H<sub>9</sub>NO<sub>3</sub>",
        "Molecular Mass": "191.18",
        "Melting Point": "105-106 °C"
    }
}