{
    "cas_no": "5339-85-5",
    "key_name": "2-Aminobenzeneethanol",
    "cn_name": "2-氨基苯乙醇;邻氨基苯乙醇;",
    "alternate_name": "Benzeneethanol, 2-amino-;Phenethyl alcohol, <em>o</em>-amino-;2-Aminobenzeneethanol;2-(<em>o</em>-Aminophenyl)ethanol;2-Aminophenylethyl alcohol;<em>o</em>-Aminophenethyl alcohol;2-(2-Hydroxyethyl)aniline;2-Aminophenethyl alcohol;[2-(2-Hydroxyethyl)phenyl]amine;NSC 3572;2-(2-Aminophenyl)ethanol;2-(2-Aminophenyl)ethyl alcohol;<em>o</em>-(2-Hydroxyethyl)aniline;2-(2-Aminophenyl)ethan-1-ol",
    "duplicated_cas_no": "",
    "SMILES": "C(CO)C1=C(N)C=CC=C1",
    "meta_data": {
        "InChI": "InChI=1S/C8H11NO/c9-8-4-2-1-3-7(8)5-6-10/h1-4,10H,5-6,9H2",
        "InChIKey": null,
        "Canonical SMILES": "OCCC=1C=CC=CC1N",
        "Molecular Formula": "C<sub>8</sub>H<sub>11</sub>NO",
        "Molecular Mass": "137.18",
        "Boiling Point": "147-148 °C @ Press: 3.5 Torr",
        "Melting Point": "140-145 °C"
    }
}