{
    "cas_no": "522-51-0",
    "key_name": "Dequalinium chloride",
    "cn_name": null,
    "alternate_name": "Quinolinium, 1,1′-(1,10-decanediyl)bis[4-amino-2-methyl-, chloride (1:2);Quinaldinium, 1,1′-decamethylenebis[4-amino-, dichloride;Quinolinium, 1,1′-(1,10-decanediyl)bis[4-amino-2-methyl-, dichloride;1,1′-Decamethylenebis[4-aminoquinaldinium chloride];BAQD 10;Decamethylenebis[4-aminoquinaldinium chloride];Dequadin chloride;Dequalinium chloride;Sorot;Decamine;Efisol;Dekamin;Evazol;Dekadin;Dequavagyn;Grocreme;Dequavet;Polycidine;Decamine (pharmaceutical);Ivazil;Sanoral;Sentril;Oralgol;Rumilet;Dequadin;Labosept;Dequacets;Fluomycin N;BADQ 10;Dekamiln;Eriosept;Decatylen;Phylletten;Optipect;Dequafungen;LDN 0096422;NSC 166454;Fluomizin",
    "duplicated_cas_no": "856599-47-8;1257422-27-7",
    "SMILES": "C(CCCCCCCCC[N+]=1C2=C(C(N)=CC1C)C=CC=C2)[N+]=3C4=C(C(N)=CC3C)C=CC=C4.[Cl-]",
    "meta_data": {
        "InChI": "InChI=1S/C30H38N4.2ClH/c1-23-21-27(31)25-15-9-11-17-29(25)33(23)19-13-7-5-3-4-6-8-14-20-34-24(2)22-28(32)26-16-10-12-18-30(26)34;;/h9-12,15-18,21-22,31-32H,3-8,13-14,19-20H2,1-2H3;2*1H",
        "InChIKey": null,
        "Canonical SMILES": "[Cl-].NC1=CC(=[N+](C=2C=CC=CC12)CCCCCCCCCC[N+]=3C=4C=CC=CC4C(N)=CC3C)C",
        "Molecular Formula": "C<sub>30</sub>H<sub>40</sub>N<sub>4</sub>.2Cl",
        "Molecular Mass": "",
        "Melting Point": "326 °C (decomp)"
    }
}