{
    "cas_no": "350-31-2",
    "key_name": "1-Chloro-2-fluoro-4-nitrobenzene",
    "cn_name": "4-氯-3-氟硝基苯;3-氟-4-氯硝基苯;",
    "alternate_name": "Benzene, 1-chloro-2-fluoro-4-nitro-;1-Chloro-2-fluoro-4-nitrobenzene;4-Chloro-3-fluoronitrobenzene",
    "duplicated_cas_no": "",
    "SMILES": "N(=O)(=O)C1=CC(F)=C(Cl)C=C1",
    "meta_data": {
        "InChI": "InChI=1S/C6H3ClFNO2/c7-5-2-1-4(9(10)11)3-6(5)8/h1-3H",
        "InChIKey": null,
        "Canonical SMILES": "O=N(=O)C1=CC=C(Cl)C(F)=C1",
        "Molecular Formula": "C<sub>6</sub>H<sub>3</sub>ClFNO<sub>2</sub>",
        "Molecular Mass": "175.54",
        "Boiling Point": "114-116 °C @ Press: 24 Torr",
        "Melting Point": "63-64 °C"
    }
}