{
    "cas_no": "122883-93-6",
    "key_name": "Ziprasidone hydrochloride",
    "cn_name": null,
    "alternate_name": "2<em>H</em>-Indol-2-one, 5-[2-[4-(1,2-benzisothiazol-3-yl)-1-piperazinyl]ethyl]-6-chloro-1,3-dihydro-, hydrochloride (1:1);2<em>H</em>-Indol-2-one, 5-[2-[4-(1,2-benzisothiazol-3-yl)-1-piperazinyl]ethyl]-6-chloro-1,3-dihydro-, monohydrochloride;CP 88059-1;Ziprasidone hydrochloride;5-[2-[4-(1,2-Benzisothiazol-3-yl)-1-piperazinyl)ethyl]-6-chloro-1,3-dihydro-2<em>H</em>-indol-2-one hydrochloride;Zeldox;Zipsydon;Azona",
    "duplicated_cas_no": "118289-78-4;152287-06-4",
    "SMILES": "C(CC=1C=C2C(=CC1Cl)NC(=O)C2)N3CCN(C=4C=5C(SN4)=CC=CC5)CC3.Cl",
    "meta_data": {
        "InChI": "InChI=1S/C21H21ClN4OS.ClH/c22-17-13-18-15(12-20(27)23-18)11-14(17)5-6-25-7-9-26(10-8-25)21-16-3-1-2-4-19(16)28-24-21;/h1-4,11,13H,5-10,12H2,(H,23,27);1H",
        "InChIKey": null,
        "Canonical SMILES": "Cl.O=C1NC2=CC(Cl)=C(C=C2C1)CCN3CCN(C4=NSC=5C=CC=CC54)CC3",
        "Molecular Formula": "C<sub>21</sub>H<sub>21</sub>ClN<sub>4</sub>OS.ClH",
        "Molecular Mass": "",
        "Melting Point": "&gt;300 °C"
    }
}