{
    "cas_no": "65756-41-4",
    "key_name": "Morpholinium, 4-ethyl-4-methyl-, bromide (1:1)",
    "cn_name": null,
    "alternate_name": "Morpholinium, 4-ethyl-4-methyl-, bromide (1:1);Morpholinium, 4-ethyl-4-methyl-, bromide;<em>N</em>-Ethyl-<em>N</em>-methylmorpholinium bromide;4-Ethyl-4-methylmorpholinium bromide",
    "duplicated_cas_no": "",
    "SMILES": "C(C)[N+]1(C)CCOCC1.[Br-]",
    "meta_data": {
        "InChI": "InChI=1S/C7H16NO.BrH/c1-3-8(2)4-6-9-7-5-8;/h3-7H2,1-2H3;1H/q+1;/p-1",
        "InChIKey": null,
        "Canonical SMILES": "[Br-].O1CC[N+](C)(CC)CC1",
        "Molecular Formula": "C<sub>7</sub>H<sub>16</sub>NO.Br",
        "Molecular Mass": "",
        "Melting Point": "170 °C"
    }
}