{
    "cas_no": "111721-75-6",
    "key_name": "2-Bromo-3-fluoroaniline",
    "cn_name": null,
    "alternate_name": "Benzenamine, 2-bromo-3-fluoro-;2-Bromo-3-fluorobenzenamine;2-Bromo-3-fluoroaniline",
    "duplicated_cas_no": "",
    "SMILES": "BrC1=C(F)C=CC=C1N",
    "meta_data": {
        "InChI": "InChI=1S/C6H5BrFN/c7-6-4(8)2-1-3-5(6)9/h1-3H,9H2",
        "InChIKey": null,
        "Canonical SMILES": "FC1=CC=CC(N)=C1Br",
        "Molecular Formula": "C<sub>6</sub>H<sub>5</sub>BrFN",
        "Molecular Mass": "190.01",
        "Melting Point": "32-34 °C"
    }
}