{
    "cas_no": "501-96-2",
    "key_name": "(α<em>R</em>)-4-Hydroxy-α-methylbenzenepropanol",
    "cn_name": null,
    "alternate_name": "Benzenepropanol, 4-hydroxy-α-methyl-, (α<em>R</em>)-;2-Butanol, 4-(<em>p</em>-hydroxyphenyl)-;Benzenepropanol, 4-hydroxy-α-methyl-, (<em>R</em>)-;(α<em>R</em>)-4-Hydroxy-α-methylbenzenepropanol;Betuligenol;Rhododendrol;Betuligenol, (-)-;(-)-Betuligenol;Rhododendrol, (-)-;(-)-Rhododendrol;(<em>R</em>)-Frambinol;(<em>R</em>)-(-)-Rhododendrol",
    "duplicated_cas_no": "23950-20-1",
    "SMILES": "C(C[C@@H](C)O)C1=CC=C(O)C=C1",
    "meta_data": {
        "InChI": "InChI=1S/C10H14O2/c1-8(11)2-3-9-4-6-10(12)7-5-9/h4-8,11-12H,2-3H2,1H3/t8-/m1/s1",
        "InChIKey": null,
        "Canonical SMILES": "OC1=CC=C(C=C1)CCC(O)C",
        "Molecular Formula": "C<sub>10</sub>H<sub>14</sub>O<sub>2</sub>",
        "Molecular Mass": "166.22",
        "Melting Point": "81 °C"
    }
}