{
    "cas_no": "1421-89-2",
    "key_name": "Dimethylaminoethyl acetate",
    "cn_name": "2-二甲氨基乙基乙酸酯;",
    "alternate_name": "Acetic acid, 2-(dimethylamino)ethyl ester;Ethanol, 2-(dimethylamino)-, acetate;2-(Dimethylamino)ethyl acetate;Dimethylaminoethanol acetate;Dimethylaminoethyl acetate;2-Dimethylaminoethanol acetate;2-(<em>N</em>,<em>N</em>-Dimethylamino)-1-acetyloxyethane;2-(<em>N</em>,<em>N</em>-Dimethylamino)ethyl acetate;NSC 7511;<em>N</em>,<em>N</em>-Dimethylaminoethyl acetate",
    "duplicated_cas_no": "",
    "SMILES": "C(CN(C)C)OC(C)=O",
    "meta_data": {
        "InChI": "InChI=1S/C6H13NO2/c1-6(8)9-5-4-7(2)3/h4-5H2,1-3H3",
        "InChIKey": null,
        "Canonical SMILES": "O=C(OCCN(C)C)C",
        "Molecular Formula": "C<sub>6</sub>H<sub>13</sub>NO<sub>2</sub>",
        "Molecular Mass": "131.17",
        "Boiling Point": "86-88 °C @ Press: 10 Torr",
        "Melting Point": "129-130 °C",
        "Density": "0.932 g/cm³ @ Temp: 25 °C"
    }
}