{
    "cas_no": "34883-39-1",
    "key_name": "2,5-Dichlorobiphenyl",
    "cn_name": "2,5-二氯联苯;2,5-二氯联苯;2,5-PCB;",
    "alternate_name": "1,1′-Biphenyl, 2,5-dichloro-;Biphenyl, 2,5-dichloro-;2,5-Dichloro-1,1′-biphenyl;2,5-Dichlorobiphenyl;PCB 9;1,4-Dichloro-2-phenylbenzene",
    "duplicated_cas_no": "",
    "SMILES": "ClC1=C(C=C(Cl)C=C1)C2=CC=CC=C2",
    "meta_data": {
        "InChI": "InChI=1S/C12H8Cl2/c13-10-6-7-12(14)11(8-10)9-4-2-1-3-5-9/h1-8H",
        "InChIKey": null,
        "Canonical SMILES": "ClC=1C=CC(Cl)=C(C1)C=2C=CC=CC2",
        "Molecular Formula": "C<sub>12</sub>H<sub>8</sub>Cl<sub>2</sub>",
        "Molecular Mass": "223.10",
        "Boiling Point": "171 °C @ Press: 15 Torr",
        "Melting Point": "19 °C"
    }
}