{
    "cas_no": "592-90-5",
    "key_name": "Oxepane",
    "cn_name": "环氧己烷;环氧己烷;",
    "alternate_name": "Oxepane;Hexamethylene oxide;Hexane, 1,6-epoxy-;Oxacycloheptane;Oxepin, hexahydro-;Hexahydrooxepin",
    "duplicated_cas_no": "",
    "SMILES": "C1CCCOCC1",
    "meta_data": {
        "InChI": "InChI=1S/C6H12O/c1-2-4-6-7-5-3-1/h1-6H2",
        "InChIKey": null,
        "Canonical SMILES": "O1CCCCCC1",
        "Molecular Formula": "C<sub>6</sub>H<sub>12</sub>O",
        "Molecular Mass": "100.16",
        "Boiling Point": "119 °C",
        "Density": "1.4393 g/cm³ @ Temp: 20 °C"
    }
}