{
    "cas_no": "5306-98-9",
    "key_name": "5-Chloro-2-methylphenol",
    "cn_name": "5-氯-2-甲基苯酚;5-氯邻甲酚;",
    "alternate_name": "Phenol, 5-chloro-2-methyl-;<em>o</em>-Cresol, 5-chloro-;5-Chloro-2-methylphenol;5-Chloro-<em>o</em>-cresol;2-Methyl-5-chlorophenol;3-Chloro-6-methylphenol;4-Chloro-2-hydroxytoluene;NSC 157349",
    "duplicated_cas_no": "",
    "SMILES": "OC1=C(C)C=CC(Cl)=C1",
    "meta_data": {
        "InChI": "InChI=1S/C7H7ClO/c1-5-2-3-6(8)4-7(5)9/h2-4,9H,1H3",
        "InChIKey": null,
        "Canonical SMILES": "ClC1=CC=C(C(O)=C1)C",
        "Molecular Formula": "C<sub>7</sub>H<sub>7</sub>ClO",
        "Molecular Mass": "142.58",
        "Boiling Point": "225 °C",
        "Melting Point": "73-74 °C"
    }
}