{
    "cas_no": "1271-24-5",
    "key_name": "Chromocene",
    "cn_name": "双(环戊二烯)铬;二茂铬;二茂合铬;",
    "alternate_name": "Chromocene;Chromium, di-π-cyclopentadienyl-;Chromium, dicyclopentadienyl-;Chromium, bis(η<sup>5</sup>-2,4-cyclopentadien-1-yl)-;Bis(cyclopentadiene)chromium(II);Bis(cyclopentadienyl)chromium(II);Dicyclopentadienylchromium;Bis(cyclopentadiene)chromium;Bis(cyclopentadienyl)chromium;Di(η<sup>5</sup>-cyclopentadienyl)chromium;Bis(η<sup>5</sup>-cyclopentadienyl)chromium",
    "duplicated_cas_no": "",
    "SMILES": "[Cr+2]12345678([CH]=9[CH]1=[CH]2[CH-]3[CH]49)[CH]=%10[CH-]5[CH]6=[CH]7[CH]8%10",
    "meta_data": {
        "InChI": "InChI=1S/2C5H5.Cr/c2*1-2-4-5-3-1;/h2*1-5H;/q2*-1;+2",
        "InChIKey": null,
        "Canonical SMILES": "[CH]=12[CH]3=[CH]4[CH-]5[CH]1[Cr+2]23678945[CH]=%10[CH]9=[CH]8[CH-]7[CH]%106",
        "Molecular Formula": "C<sub>10</sub>H<sub>10</sub>Cr",
        "Molecular Mass": "",
        "Melting Point": "170-172 °C"
    }
}