{
    "cas_no": "615-18-9",
    "key_name": "2-Chlorobenzoxazole",
    "cn_name": "2-氯苯并恶唑;",
    "alternate_name": "Benzoxazole, 2-chloro-;2-Chlorobenzoxazole;NSC 8439;2-Chlorobenzo[<em>d</em>]oxazole;2-Chloro-1,3-benzoxazole",
    "duplicated_cas_no": "",
    "SMILES": "ClC1=NC=2C(O1)=CC=CC2",
    "meta_data": {
        "InChI": "InChI=1S/C7H4ClNO/c8-7-9-5-3-1-2-4-6(5)10-7/h1-4H",
        "InChIKey": null,
        "Canonical SMILES": "ClC1=NC=2C=CC=CC2O1",
        "Molecular Formula": "C<sub>7</sub>H<sub>4</sub>ClNO",
        "Molecular Mass": "153.57",
        "Boiling Point": "201.5 °C",
        "Melting Point": "7 °C",
        "Density": "1.32 g/cm³"
    }
}