{
    "cas_no": "23077-44-3",
    "key_name": "6-Fluoro-1<em>H</em>-indole-3-carboxylic acid",
    "cn_name": null,
    "alternate_name": "1<em>H</em>-Indole-3-carboxylic acid, 6-fluoro-;Indole-3-carboxylic acid, 6-fluoro-;6-Fluoro-1<em>H</em>-indole-3-carboxylic acid;6-Fluoroindole-3-carboxylic acid",
    "duplicated_cas_no": "",
    "SMILES": "C(O)(=O)C=1C=2C(NC1)=CC(F)=CC2",
    "meta_data": {
        "InChI": "InChI=1S/C9H6FNO2/c10-5-1-2-6-7(9(12)13)4-11-8(6)3-5/h1-4,11H,(H,12,13)",
        "InChIKey": null,
        "Canonical SMILES": "O=C(O)C1=CNC=2C=C(F)C=CC21",
        "Molecular Formula": "C<sub>9</sub>H<sub>6</sub>FNO<sub>2</sub>",
        "Molecular Mass": "179.15",
        "Melting Point": "242-244 °C (decomp)"
    }
}