{
    "cas_no": "597-52-4",
    "key_name": "Triethylsilanol",
    "cn_name": null,
    "alternate_name": "Silanol, 1,1,1-triethyl-;Silanol, triethyl-;1,1,1-Triethylsilanol;Triethylsilanol;Triethylhydroxysilane;Triethylsilyl hydroxide;Hydroxytriethylsilane;T 2017",
    "duplicated_cas_no": "",
    "SMILES": "[Si](CC)(CC)(CC)O",
    "meta_data": {
        "InChI": "InChI=1S/C6H16OSi/c1-4-8(7,5-2)6-3/h7H,4-6H2,1-3H3",
        "InChIKey": null,
        "Canonical SMILES": "O[Si](CC)(CC)CC",
        "Molecular Formula": "C<sub>6</sub>H<sub>16</sub>OSi",
        "Molecular Mass": "132.28",
        "Boiling Point": "154 °C",
        "Density": "0.864 g/cm³"
    }
}