{
    "cas_no": "115338-32-4",
    "key_name": "2-[4-[4-(2-Methoxyphenyl)-1-piperazinyl]butyl]-1<em>H</em>-isoindole-1,3(2<em>H</em>)-dione hydrobromide (1:1)",
    "cn_name": null,
    "alternate_name": "1<em>H</em>-Isoindole-1,3(2<em>H</em>)-dione, 2-[4-[4-(2-methoxyphenyl)-1-piperazinyl]butyl]-, hydrobromide (1:1);1<em>H</em>-Isoindole-1,3(2<em>H</em>)-dione, 2-[4-[4-(2-methoxyphenyl)-1-piperazinyl]butyl]-, monohydrobromide;2-[4-[4-(2-Methoxyphenyl)-1-piperazinyl]butyl]-1<em>H</em>-isoindole-1,3(2<em>H</em>)-dione hydrobromide (1:1);NAN 190;2-(4-(4-(2-Methoxyphenyl)piperazin-1-yl)butyl)-isoindoline-1,3-dione hydrobromide",
    "duplicated_cas_no": "1202865-17-5",
    "SMILES": "O=C1C=2C(C(=O)N1CCCCN3CCN(CC3)C4=C(OC)C=CC=C4)=CC=CC2.Br",
    "meta_data": {
        "InChI": "InChI=1S/C23H27N3O3.BrH/c1-29-21-11-5-4-10-20(21)25-16-14-24(15-17-25)12-6-7-13-26-22(27)18-8-2-3-9-19(18)23(26)28;/h2-5,8-11H,6-7,12-17H2,1H3;1H",
        "InChIKey": null,
        "Canonical SMILES": "Br.O=C1C=2C=CC=CC2C(=O)N1CCCCN3CCN(C=4C=CC=CC4OC)CC3",
        "Molecular Formula": "C<sub>23</sub>H<sub>27</sub>N<sub>3</sub>O<sub>3</sub>.BrH",
        "Molecular Mass": "",
        "Melting Point": "231-234 °C"
    }
}