{
    "cas_no": "20665-85-4",
    "key_name": "Isobutavan",
    "cn_name": "异丁酸香兰酯;香草醛异丁酯;4-甲酰基-2-甲氧基苯基异丁酸酯;2-甲基丙酸4-甲酰基-2-甲氧基苯酯;",
    "alternate_name": "Propanoic acid, 2-methyl-, 4-formyl-2-methoxyphenyl ester;Isobutyric acid, ester with vanillin;Vanillin, isobutyrate;Isobutavan;4-Isobutyroyloxy-3-methoxybenzaldehyde;(4-Formyl-2-methoxyphenyl) 2-methylpropanoate",
    "duplicated_cas_no": "",
    "SMILES": "O(C(C(C)C)=O)C1=C(OC)C=C(C=O)C=C1",
    "meta_data": {
        "InChI": "InChI=1S/C12H14O4/c1-8(2)12(14)16-10-5-4-9(7-13)6-11(10)15-3/h4-8H,1-3H3",
        "InChIKey": null,
        "Canonical SMILES": "O=CC1=CC=C(OC(=O)C(C)C)C(OC)=C1",
        "Molecular Formula": "C<sub>12</sub>H<sub>14</sub>O<sub>4</sub>",
        "Molecular Mass": "222.24",
        "Melting Point": "29-30 °C"
    }
}