{
    "cas_no": "131-73-7",
    "key_name": "Dipicrylamine",
    "cn_name": null,
    "alternate_name": "Benzenamine, 2,4,6-trinitro-<em>N</em>-(2,4,6-trinitrophenyl)-;Diphenylamine, 2,2′,4,4′,6,6′-hexanitro-;2,4,6-Trinitro-<em>N</em>-(2,4,6-trinitrophenyl)benzenamine;Dipicrylamine;2,4,6,2′,4′,6′-Hexanitrodiphenylamine;Hexamine (potassium reagent);Hexyl;2,2′,4,4′,6,6′-Hexanitrodiphenylamine;Hexyl (reagent);Bis(2,4,6-trinitrophenyl)amine;Hexanitrodiphenylamine;Hexamine;NSC 1786;<em>N</em>,<em>N</em>-<em>Bis</em>(2,4,6-Trinitrophenyl)amine",
    "duplicated_cas_no": "35860-31-2",
    "SMILES": "N(C1=C(N(=O)=O)C=C(N(=O)=O)C=C1N(=O)=O)C2=C(N(=O)=O)C=C(N(=O)=O)C=C2N(=O)=O",
    "meta_data": {
        "InChI": "InChI=1S/C12H5N7O12/c20-14(21)5-1-7(16(24)25)11(8(2-5)17(26)27)13-12-9(18(28)29)3-6(15(22)23)4-10(12)19(30)31/h1-4,13H",
        "InChIKey": null,
        "Canonical SMILES": "O=N(=O)C=1C=C(C(NC=2C(=CC(=CC2N(=O)=O)N(=O)=O)N(=O)=O)=C(C1)N(=O)=O)N(=O)=O",
        "Molecular Formula": "C<sub>12</sub>H<sub>5</sub>N<sub>7</sub>O<sub>12</sub>",
        "Molecular Mass": "439.21",
        "Melting Point": "244 °C (decomp)"
    }
}