{
    "cas_no": "617-54-9",
    "key_name": "Dimethyl citraconate",
    "cn_name": "甲顺丁烯二酸二甲酯;柠康酸二甲酯;",
    "alternate_name": "2-Butenedioic acid, 2-methyl-, 1,4-dimethyl ester, (2<em>Z</em>)-;Citraconic acid, dimethyl ester;2-Butenedioic acid, 2-methyl-, dimethyl ester, (<em>Z</em>)-;2-Butenedioic acid, 2-methyl-, dimethyl ester, (2<em>Z</em>)-;Dimethyl citraconate;Methylmaleic acid, dimethyl ester;Dimethyl methylmaleate;<em>cis</em>-2-Methyl-2-butenedioic acid dimethyl ester",
    "duplicated_cas_no": "",
    "SMILES": "C(=C\\C(OC)=O)(\\C(OC)=O)/C",
    "meta_data": {
        "InChI": "InChI=1S/C7H10O4/c1-5(7(9)11-3)4-6(8)10-2/h4H,1-3H3/b5-4-",
        "InChIKey": null,
        "Canonical SMILES": "O=C(OC)C=C(C(=O)OC)C",
        "Molecular Formula": "C<sub>7</sub>H<sub>10</sub>O<sub>4</sub>",
        "Molecular Mass": "158.15",
        "Boiling Point": "210.5 °C",
        "Density": "1.1097 g/cm³ @ Temp: 17.6 °C"
    }
}