{
    "cas_no": "14756-78-6",
    "key_name": "1,5-Naphthyridin-3-ol",
    "cn_name": null,
    "alternate_name": "1,5-Naphthyridin-3-ol;3-Hydroxy-1,5-naphthyridine",
    "duplicated_cas_no": "72701-82-7",
    "SMILES": "OC1=CC2=C(N=C1)C=CC=N2",
    "meta_data": {
        "InChI": "InChI=1S/C8H6N2O/c11-6-4-8-7(10-5-6)2-1-3-9-8/h1-5,11H",
        "InChIKey": null,
        "Canonical SMILES": "OC=1C=NC2=CC=CN=C2C1",
        "Molecular Formula": "C<sub>8</sub>H<sub>6</sub>N<sub>2</sub>O",
        "Molecular Mass": "146.15",
        "Melting Point": "280-282 °C"
    }
}