{
    "cas_no": "645-41-0",
    "key_name": "3-Methyl-<em>N</em>,<em>N</em>-bis(3-methylbutyl)-1-butanamine",
    "cn_name": "三异戊基胺;",
    "alternate_name": "1-Butanamine, 3-methyl-<em>N</em>,<em>N</em>-bis(3-methylbutyl)-;Triisopentylamine;3-Methyl-<em>N</em>,<em>N</em>-bis(3-methylbutyl)-1-butanamine;Tri(3-methylbutyl)amine;Triisoamylamine;Tris(3-methylbutyl)amine",
    "duplicated_cas_no": "2929302-08-7",
    "SMILES": "N(CCC(C)C)(CCC(C)C)CCC(C)C",
    "meta_data": {
        "InChI": "InChI=1S/C15H33N/c1-13(2)7-10-16(11-8-14(3)4)12-9-15(5)6/h13-15H,7-12H2,1-6H3",
        "InChIKey": null,
        "Canonical SMILES": "N(CCC(C)C)(CCC(C)C)CCC(C)C",
        "Molecular Formula": "C<sub>15</sub>H<sub>33</sub>N",
        "Molecular Mass": "227.43",
        "Boiling Point": "235 °C"
    }
}