{
    "cas_no": "2836-82-0",
    "key_name": "1-(2-Fluorophenyl)-2-propanone",
    "cn_name": "2-氟苯基丙酮;邻氟苯丙酮;",
    "alternate_name": "2-Propanone, 1-(2-fluorophenyl)-;2-Propanone, 1-(<em>o</em>-fluorophenyl)-;2-Propanone, (<em>o</em>-fluorophenyl)-;1-(2-Fluorophenyl)-2-propanone;1-(<em>o</em>-Fluorophenyl)-2-propanone;3-(2-Fluorophenyl)-2-propanone;1-(2-Fluorophenyl)propan-2-one;1-(2-Fluorophenyl)acetone;(<em>o</em>-Fluorophenyl)acetone;2-Fluorophenylacetone",
    "duplicated_cas_no": "",
    "SMILES": "C(C(C)=O)C1=C(F)C=CC=C1",
    "meta_data": {
        "InChI": "InChI=1S/C9H9FO/c1-7(11)6-8-4-2-3-5-9(8)10/h2-5H,6H2,1H3",
        "InChIKey": null,
        "Canonical SMILES": "O=C(C)CC=1C=CC=CC1F",
        "Molecular Formula": "C<sub>9</sub>H<sub>9</sub>FO",
        "Molecular Mass": "152.17",
        "Boiling Point": "47 °C @ Press: 0.05 Torr"
    }
}