{
    "cas_no": "1218-34-4",
    "key_name": "Acetyl-<span class=\"text-smallcaps\">L</span>-tryptophan",
    "cn_name": "N-乙酰-L-色氨酸;",
    "alternate_name": "<span class=\"text-smallcaps\">L</span>-Tryptophan, <em>N</em>-acetyl-;Tryptophan, <em>N</em>-acetyl-, <span class=\"text-smallcaps\">L</span>-;<em>N</em>-Acetyl-<span class=\"text-smallcaps\">L</span>-tryptophan;Acetyltryptophan;Acetyl-<span class=\"text-smallcaps\">L</span>-tryptophan;<em>N</em>-Acetyltryptophan;(<em>S</em>)-<em>N</em>-Acetyltryptophan;<span class=\"text-smallcaps\">L</span>-<em>N</em>-Acetyltryptophan;NSC 90726;(2S)-2-Acetamido-3-(1<em>H</em>-indol-3-yl)propanoic acid",
    "duplicated_cas_no": "",
    "SMILES": "C([C@H](NC(C)=O)C(O)=O)C=1C=2C(NC1)=CC=CC2",
    "meta_data": {
        "InChI": "InChI=1S/C13H14N2O3/c1-8(16)15-12(13(17)18)6-9-7-14-11-5-3-2-4-10(9)11/h2-5,7,12,14H,6H2,1H3,(H,15,16)(H,17,18)/t12-/m0/s1",
        "InChIKey": null,
        "Canonical SMILES": "O=C(O)C(NC(=O)C)CC1=CNC=2C=CC=CC21",
        "Molecular Formula": "C<sub>13</sub>H<sub>14</sub>N<sub>2</sub>O<sub>3</sub>",
        "Molecular Mass": "246.26",
        "Melting Point": "185-186 °C"
    }
}