{
    "cas_no": "4513-94-4",
    "key_name": "Pyrrole-2-carbonitrile",
    "cn_name": "吡咯-2-甲腈;吡咯-2-甲腈;",
    "alternate_name": "1<em>H</em>-Pyrrole-2-carbonitrile;Pyrrole-2-carbonitrile;2-Cyanopyrrole;NSC 106054",
    "duplicated_cas_no": "",
    "SMILES": "C(#N)C1=CC=CN1",
    "meta_data": {
        "InChI": "InChI=1S/C5H4N2/c6-4-5-2-1-3-7-5/h1-3,7H",
        "InChIKey": null,
        "Canonical SMILES": "N#CC1=CC=CN1",
        "Molecular Formula": "C<sub>5</sub>H<sub>4</sub>N<sub>2</sub>",
        "Molecular Mass": "92.10",
        "Boiling Point": "89-90 °C @ Press: 1.6 Torr"
    }
}