{
    "cas_no": "6361-23-5",
    "key_name": "2,5-Dichlorobenzaldehyde",
    "cn_name": "2,5-二氯苯甲醛;",
    "alternate_name": "Benzaldehyde, 2,5-dichloro-;2,5-Dichlorobenzaldehyde",
    "duplicated_cas_no": "",
    "SMILES": "C(=O)C1=C(Cl)C=CC(Cl)=C1",
    "meta_data": {
        "InChI": "InChI=1S/C7H4Cl2O/c8-6-1-2-7(9)5(3-6)4-10/h1-4H",
        "InChIKey": null,
        "Canonical SMILES": "O=CC1=CC(Cl)=CC=C1Cl",
        "Molecular Formula": "C<sub>7</sub>H<sub>4</sub>Cl<sub>2</sub>O",
        "Molecular Mass": "175.01",
        "Boiling Point": "232 °C",
        "Melting Point": "58 °C"
    }
}