{
    "cas_no": "89-73-6",
    "key_name": "Salicylhydroxamic acid",
    "cn_name": "水杨羟肟酸;",
    "alternate_name": "Benzamide, <em>N</em>,2-dihydroxy-;Salicylohydroxamic acid;<em>N</em>,2-Dihydroxybenzamide;2-Hydroxybenzohydroxamic acid;SHA;<em>o</em>-Hydroxybenzohydroxamic acid;2-Hydroxyphenylhydroxamic acid;SHAM;<em>N</em>-Salicylhydroxamic acid;2-Hydroxybenzenehydroxamic acid;Salicylhydroxamic acid;NSC 193440;NSC 5088;1-<em>N</em>-Hydroxy2-hydroxybenzene-1-carboximidic acid",
    "duplicated_cas_no": "1953-59-9;72027-50-0",
    "SMILES": "C(NO)(=O)C1=C(O)C=CC=C1",
    "meta_data": {
        "InChI": "InChI=1S/C7H7NO3/c9-6-4-2-1-3-5(6)7(10)8-11/h1-4,9,11H,(H,8,10)",
        "InChIKey": null,
        "Canonical SMILES": "O=C(NO)C=1C=CC=CC1O",
        "Molecular Formula": "C<sub>7</sub>H<sub>7</sub>NO<sub>3</sub>",
        "Molecular Mass": "153.14",
        "Melting Point": "168 °C"
    }
}