{
    "cas_no": "6994-25-8",
    "key_name": "Ethyl 3-amino-1<em>H</em>-pyrazole-4-carboxylate",
    "cn_name": "3-氨基-4-乙氧羰基吡唑;",
    "alternate_name": "1<em>H</em>-Pyrazole-4-carboxylic acid, 3-amino-, ethyl ester;Pyrazole-4-carboxylic acid, 3-amino-, ethyl ester;Pyrazole-4-carboxylic acid, 3(<em>or</em> 5)-amino-, ethyl ester;3-Amino-4-carbethoxypyrazole;Ethyl 3-aminopyrazole-4-carboxylate;3-Amino-4-(ethoxycarbonyl)pyrazole;Ethyl 5-amino-4-pyrazolecarboxylate;Ethyl 5-aminopyrazol-4-carboxylate;Ethyl 3-aminopyrazol-4-carboxylate;3-Amino-1<em>H</em>-pyrazole-4-carboxylic acid ethyl ester;Ethyl 5-amino-1<em>H</em>-pyrazole-4-carboxylate;Ethyl 3-amino-1<em>H</em>-pyrazole-4-carboxylate;NSC 521580;3-Amino-4-carboethoxy-2<em>H</em>-pyrazole",
    "duplicated_cas_no": "103259-35-4;112633-66-6;114562-90-2;134022-75-6;136873-53-5;137839-15-7;140706-28-1;19750-02-8;75263-88-6;80568-97-4;345633-56-9;412958-80-6;475115-66-3;632365-61-8;666845-37-0;681458-38-8;749216-53-3;771514-20-6;863330-86-3;153904-35-9;154324-69-3;159224-06-3;162286-50-2;244127-29-5;890006-50-5;1048924-81-7;1067939-65-4;1163721-91-2",
    "SMILES": "C(OCC)(=O)C=1C(N)=NNC1",
    "meta_data": {
        "InChI": "InChI=1S/C6H9N3O2/c1-2-11-6(10)4-3-8-9-5(4)7/h3H,2H2,1H3,(H3,7,8,9)",
        "InChIKey": null,
        "Canonical SMILES": "O=C(OCC)C1=CNN=C1N",
        "Molecular Formula": "C<sub>6</sub>H<sub>9</sub>N<sub>3</sub>O<sub>2</sub>",
        "Molecular Mass": "155.15",
        "Melting Point": "102-103 °C"
    }
}