{
    "cas_no": "7149-80-6",
    "key_name": "5-Chloro-4-methyl-2-nitrobenzenamine",
    "cn_name": "5-氯-4-甲基-2-硝基苯胺;",
    "alternate_name": "Benzenamine, 5-chloro-4-methyl-2-nitro-;5-Chloro-4-methyl-2-nitrobenzenamine;5-Chloro-2-nitro-<em>p</em>-toluidine;5-Chloro-4-methyl-2-nitroaniline;NSC 72334;5-Chloro-4-methyl-1-amino-2-nitrobenzene;4-Amino-2-chloro-5-nitrotoluene",
    "duplicated_cas_no": "",
    "SMILES": "N(=O)(=O)C1=C(N)C=C(Cl)C(C)=C1",
    "meta_data": {
        "InChI": "InChI=1S/C7H7ClN2O2/c1-4-2-7(10(11)12)6(9)3-5(4)8/h2-3H,9H2,1H3",
        "InChIKey": null,
        "Canonical SMILES": "O=N(=O)C1=CC(=C(Cl)C=C1N)C",
        "Molecular Formula": "C<sub>7</sub>H<sub>7</sub>ClN<sub>2</sub>O<sub>2</sub>",
        "Molecular Mass": "186.60",
        "Melting Point": "167-168 °C"
    }
}