{
    "cas_no": "2556-36-7",
    "key_name": "1,4-Cyclohexane diisocyanate",
    "cn_name": null,
    "alternate_name": "Cyclohexane, 1,4-diisocyanato-;Isocyanic acid, 1,4-cyclohexylene ester;1,4-Diisocyanatocyclohexane;1,4-Cyclohexylene diisocyanate;1,4-Cyclohexane diisocyanate;1,4-Cyclohexylene isocyanate;1,4-Bis(isocyanato)cyclohexane;Hexahydrophenylene-1,4-diisocyanate;1,4-Cyclohexyl diisocyanate;Cyclohexane-1,4-diisocyanate;Hexahydro-1,4-phenyldiisocyanate;HR 115107",
    "duplicated_cas_no": "",
    "SMILES": "N(=C=O)C1CCC(N=C=O)CC1",
    "meta_data": {
        "InChI": "InChI=1S/C8H10N2O2/c11-5-9-7-1-2-8(4-3-7)10-6-12/h7-8H,1-4H2",
        "InChIKey": null,
        "Canonical SMILES": "O=C=NC1CCC(N=C=O)CC1",
        "Molecular Formula": "C<sub>8</sub>H<sub>10</sub>N<sub>2</sub>O<sub>2</sub>",
        "Molecular Mass": "166.18",
        "Boiling Point": "136 °C @ Press: 15 Torr",
        "Melting Point": "55 °C"
    }
}