{
    "cas_no": "75028-24-9",
    "key_name": "(α<em>Z</em>)-5-Amino-α-(ethoxyimino)-1,2,4-thiadiazole-3-acetic acid",
    "cn_name": null,
    "alternate_name": "1,2,4-Thiadiazole-3-acetic acid, 5-amino-α-(ethoxyimino)-, (α<em>Z</em>)-;1,2,4-Thiadiazole-3-acetic acid, 5-amino-α-(ethoxyimino)-, (<em>Z</em>)-;(α<em>Z</em>)-5-Amino-α-(ethoxyimino)-1,2,4-thiadiazole-3-acetic acid",
    "duplicated_cas_no": "",
    "SMILES": "C(\\C(O)=O)(=N\\OCC)/C=1N=C(N)SN1",
    "meta_data": {
        "InChI": "InChI=1S/C6H8N4O3S/c1-2-13-9-3(5(11)12)4-8-6(7)14-10-4/h2H2,1H3,(H,11,12)(H2,7,8,10)/b9-3-",
        "InChIKey": null,
        "Canonical SMILES": "O=C(O)C(=NOCC)C1=NSC(=N1)N",
        "Molecular Formula": "C<sub>6</sub>H<sub>8</sub>N<sub>4</sub>O<sub>3</sub>S",
        "Molecular Mass": "216.22",
        "Melting Point": "180-185 °C"
    }
}