{
    "cas_no": "532-91-2",
    "key_name": "Coixol",
    "cn_name": "6-甲氧基-2-苯噁唑啉酮;6-甲氧基-2-苯恶唑啉酮;薏苡素;",
    "alternate_name": "2(3<em>H</em>)-Benzoxazolone, 6-methoxy-;2-Benzoxazolinone, 6-methoxy-;6-Methoxy-2(3<em>H</em>)-benzoxazolone;Coixol;6-Methoxy-2-benzoxazolinone;6-Methoxybenzoxazolinone;MBOA;6-MBOA;6-Methoxy-3<em>H</em>-benzoxazol-2-one;6-Methoxybenzoxazolin-2(3<em>H</em>)-one;6-Methoxybenzo[<em>d</em>]oxazol-2(3<em>H</em>)-one",
    "duplicated_cas_no": "13895-18-6;83144-55-2",
    "SMILES": "O=C1NC=2C(=CC(OC)=CC2)O1",
    "meta_data": {
        "InChI": "InChI=1S/C8H7NO3/c1-11-5-2-3-6-7(4-5)12-8(10)9-6/h2-4H,1H3,(H,9,10)",
        "InChIKey": null,
        "Canonical SMILES": "O=C1OC2=CC(OC)=CC=C2N1",
        "Molecular Formula": "C<sub>8</sub>H<sub>7</sub>NO<sub>3</sub>",
        "Molecular Mass": "165.15",
        "Melting Point": "151.5-152.5 °C"
    }
}