{
    "cas_no": "863513-91-1",
    "key_name": "Cebranopadol",
    "cn_name": null,
    "alternate_name": "Spiro[cyclohexane-1,1′(3′<em>H</em>)-pyrano[3,4-<em>b</em>]indol]-4-amine, 6′-fluoro-4′,9′-dihydro-<em>N</em>,<em>N</em>-dimethyl-4-phenyl-, (1α,4β)-;Spiro[cyclohexane-1,1′(3′<em>H</em>)-pyrano[3,4-<em>b</em>]indol]-4-amine, 6′-fluoro-4′,9′-dihydro-<em>N</em>,<em>N</em>-dimethyl-4-phenyl-, <em>trans</em>-;(1α,4β)-6′-Fluoro-4′,9′-dihydro-<em>N</em>,<em>N</em>-dimethyl-4-phenylspiro[cyclohexane-1,1′(3′<em>H</em>)-pyrano[3,4-<em>b</em>]indol]-4-amine;Cebranopadol;GRT 6005",
    "duplicated_cas_no": "",
    "SMILES": "N(C)(C)[C@@]1(CC[C@]2(C3=C(C=4C(N3)=CC=C(F)C4)CCO2)CC1)C5=CC=CC=C5",
    "meta_data": {
        "InChI": "InChI=1/C24H27FN2O/c1-27(2)23(17-6-4-3-5-7-17)11-13-24(14-12-23)22-19(10-15-28-24)20-16-18(25)8-9-21(20)26-22/h3-9,16,26H,10-15H2,1-2H3/t23-,24-",
        "InChIKey": null,
        "Canonical SMILES": "FC=1C=CC=2NC3=C(C2C1)CCOC34CCC(C=5C=CC=CC5)(N(C)C)CC4",
        "Molecular Formula": "C<sub>24</sub>H<sub>27</sub>FN<sub>2</sub>O",
        "Molecular Mass": "378.48",
        "Melting Point": "284-292 °C"
    }
}