{
    "cas_no": "7790-29-6",
    "key_name": "Rubidium iodide",
    "cn_name": "碘化铷;",
    "alternate_name": "Rubidium iodide (RbI);Rubidium monoiodide;Rubidium iodide",
    "duplicated_cas_no": "59216-99-8",
    "SMILES": "I[Rb]",
    "meta_data": {
        "InChI": "InChI=1S/HI.Rb/h1H;/q;+1/p-1",
        "InChIKey": null,
        "Canonical SMILES": "[Rb]I",
        "Molecular Formula": "IRb",
        "Molecular Mass": "",
        "Boiling Point": "1300 °C",
        "Melting Point": "642 °C",
        "Density": "3.55 g/cm³"
    }
}