{
    "cas_no": "26967-76-0",
    "key_name": "Tris(isopropylphenyl) phosphate",
    "cn_name": null,
    "alternate_name": "Phenol, (1-methylethyl)-, phosphate (3:1);Tris(isopropylphenyl) phosphate;Tri(isopropylphenyl) phosphate;Reofos 95;Triisopropyl benzene phosphate",
    "duplicated_cas_no": "",
    "SMILES": "",
    "meta_data": {
        "InChI": "",
        "InChIKey": null,
        "Canonical SMILES": "",
        "Molecular Formula": "C<sub>27</sub>H<sub>33</sub>O<sub>4</sub>P",
        "Molecular Mass": "",
        "Boiling Point": "220-270 °C @ Press: 4.0 Torr",
        "Melting Point": "-25 °C",
        "Density": "1.159 g/cm³ @ Temp: 20 °C"
    }
}