{
    "cas_no": "587-84-8",
    "key_name": "Benzenamine, <em>N</em>-phenyl-, sulfate (1:1)",
    "cn_name": "二苯胺硫酸盐;",
    "alternate_name": "Benzenamine, <em>N</em>-phenyl-, sulfate (1:1);Diphenylamine, sulfate",
    "duplicated_cas_no": "",
    "SMILES": "S(=O)(=O)(O)O.N(C1=CC=CC=C1)C2=CC=CC=C2",
    "meta_data": {
        "InChI": "InChI=1S/C12H11N.H2O4S/c1-3-7-11(8-4-1)13-12-9-5-2-6-10-12;1-5(2,3)4/h1-10,13H;(H2,1,2,3,4)",
        "InChIKey": null,
        "Canonical SMILES": "O=S(=O)(O)O.C=1C=CC(=CC1)NC=2C=CC=CC2",
        "Molecular Formula": "C<sub>12</sub>H<sub>11</sub>N.H<sub>2</sub>O<sub>4</sub>S",
        "Molecular Mass": "",
        "Melting Point": "125 °C"
    }
}