{
    "cas_no": "178928-70-6",
    "key_name": "Prothioconazole",
    "cn_name": null,
    "alternate_name": "3<em>H</em>-1,2,4-Triazole-3-thione, 2-[2-(1-chlorocyclopropyl)-3-(2-chlorophenyl)-2-hydroxypropyl]-1,2-dihydro-;2-[2-(1-Chlorocyclopropyl)-3-(2-chlorophenyl)-2-hydroxypropyl]-1,2-dihydro-3<em>H</em>-1,2,4-triazole-3-thione;Prothioconazole;JAU 6476;Proline (fungicide);Redigo;Rudis;Proline 480SC;Joao;Proline 275;2-[2-(1-Chlorocyclopropyl)-3-(2-chlorophenyl)-2-hydroxypropyl]-1<em>H</em>-1,2,4-triazole-3-thione;Acceleron DX 342",
    "duplicated_cas_no": "1135441-16-5",
    "SMILES": "C(CC1=C(Cl)C=CC=C1)(CN2C(=S)NC=N2)(O)C3(Cl)CC3",
    "meta_data": {
        "InChI": "InChI=1S/C14H15Cl2N3OS/c15-11-4-2-1-3-10(11)7-14(20,13(16)5-6-13)8-19-12(21)17-9-18-19/h1-4,9,20H,5-8H2,(H,17,18,21)",
        "InChIKey": null,
        "Canonical SMILES": "S=C1NC=NN1CC(O)(CC=2C=CC=CC2Cl)C3(Cl)CC3",
        "Molecular Formula": "C<sub>14</sub>H<sub>15</sub>Cl<sub>2</sub>N<sub>3</sub>OS",
        "Molecular Mass": "344.26",
        "Melting Point": "139.1-144.5 °C"
    }
}