{
    "cas_no": "3480-87-3",
    "key_name": "β-Hydroxybenzenepropanoic acid",
    "cn_name": null,
    "alternate_name": "Benzenepropanoic acid, β-hydroxy-;Hydracrylic acid, 3-phenyl-;β-Hydroxybenzenepropanoic acid;β-Hydroxy-β-phenylpropionic acid;3-Hydroxy-3-phenylpropanoic acid;3-Hydroxy-3-phenylpropionic acid;3-Phenyl-3-hydroxypropanoic acid;β-Phenylhydracrylic acid;NSC 120422;NSC 16256",
    "duplicated_cas_no": "40620-59-5",
    "SMILES": "C(CC(O)=O)(O)C1=CC=CC=C1",
    "meta_data": {
        "InChI": "InChI=1S/C9H10O3/c10-8(6-9(11)12)7-4-2-1-3-5-7/h1-5,8,10H,6H2,(H,11,12)",
        "InChIKey": null,
        "Canonical SMILES": "O=C(O)CC(O)C=1C=CC=CC1",
        "Molecular Formula": "C<sub>9</sub>H<sub>10</sub>O<sub>3</sub>",
        "Molecular Mass": "166.17",
        "Melting Point": "115-116 °C"
    }
}