{
    "cas_no": "22442-48-4",
    "key_name": "4-Methoxybenzenepropanenitrile",
    "cn_name": null,
    "alternate_name": "Benzenepropanenitrile, 4-methoxy-;Hydrocinnamonitrile, <em>p</em>-methoxy-;4-Methoxybenzenepropanenitrile;3-(4-Methoxyphenyl)propionitrile;β-(4-Methoxyphenyl)propionitrile;3-(<em>p</em>-Methoxyphenyl)propionitrile;3-(4-Methoxyphenyl)propanenitrile",
    "duplicated_cas_no": "",
    "SMILES": "C(CC#N)C1=CC=C(OC)C=C1",
    "meta_data": {
        "InChI": "InChI=1S/C10H11NO/c1-12-10-6-4-9(5-7-10)3-2-8-11/h4-7H,2-3H2,1H3",
        "InChIKey": null,
        "Canonical SMILES": "N#CCCC1=CC=C(OC)C=C1",
        "Molecular Formula": "C<sub>10</sub>H<sub>11</sub>NO",
        "Molecular Mass": "161.20",
        "Boiling Point": "172-173 °C @ Press: 17 Torr"
    }
}