{
    "cas_no": "203866-13-1",
    "key_name": "1-(1,1-Dimethylethyl) (2<em>S</em>,4<em>S</em>)-4-fluoro-1,2-pyrrolidinedicarboxylate",
    "cn_name": "(2S,4S)-N-Boc-顺式-4-氟-L-脯氨酸;(2S,4S)-4-氟-1-叔丁氧羰基吡咯烷-2-甲酸;",
    "alternate_name": "1,2-Pyrrolidinedicarboxylic acid, 4-fluoro-, 1-(1,1-dimethylethyl) ester, (2<em>S</em>,4<em>S</em>)-;1,2-Pyrrolidinedicarboxylic acid, 4-fluoro-, 1-(1,1-dimethylethyl) ester, (2<em>S</em>-<em>cis</em>)-;1-(1,1-Dimethylethyl) (2<em>S</em>,4<em>S</em>)-4-fluoro-1,2-pyrrolidinedicarboxylate;(2<em>S</em>,4<em>S</em>)-1-(<em>tert</em>-Butoxycarbonyl)-4-fluoropyrrolidine-2-carboxylic acid;(2<em>S</em>,4<em>S</em>)-1-(<em>tert</em>-Butoxycarbonyl)-4-fluoro-2-pyrrolidinecarboxylic acid;<em>N</em>-<em>tert</em>-BOC-<em>cis</em>-4-fluoro-<span class=\"text-smallcaps\">L</span>-proline;(4<em>S</em>)-1-<em>tert</em>-Butoxycarbonyl-4-fluoro-<span class=\"text-smallcaps\">L</span>-proline;(2S,4S)-1-(<em>tert</em>-Butoxycarbonyl)-4-fluoropyrrolidine-2-carboxylic acid;(2S,4S)-1-(<em>tert</em>-Butoxycarbonyl)-4-fluoropyrrolidine-2-carboxylicaci",
    "duplicated_cas_no": "1266242-44-7",
    "SMILES": "C(OC(C)(C)C)(=O)N1[C@H](C(O)=O)C[C@H](F)C1",
    "meta_data": {
        "InChI": "InChI=1S/C10H16FNO4/c1-10(2,3)16-9(15)12-5-6(11)4-7(12)8(13)14/h6-7H,4-5H2,1-3H3,(H,13,14)/t6-,7-/m0/s1",
        "InChIKey": null,
        "Canonical SMILES": "O=C(OC(C)(C)C)N1CC(F)CC1C(=O)O",
        "Molecular Formula": "C<sub>10</sub>H<sub>16</sub>FNO<sub>4</sub>",
        "Molecular Mass": "233.24",
        "Melting Point": "160-162 °C"
    }
}