{
    "cas_no": "3641-51-8",
    "key_name": "(+)-Methylsuccinic acid",
    "cn_name": "(R)-(+)-甲基丁二酸;(R)-(+)-甲基琥珀酸;",
    "alternate_name": "Butanedioic acid, 2-methyl-, (2<em>R</em>)-;Succinic acid, methyl-, (<em>R</em>)-(+)-;Butanedioic acid, methyl-, (<em>R</em>)-;Butanedioic acid, methyl-, (2<em>R</em>)-;(2<em>R</em>)-2-Methylbutanedioic acid;(<em>R</em>)-(+)-Methylsuccinic acid;<em>d</em>-Methylsuccinic acid;(<em>R</em>)-Methylsuccinic acid;(<em>R</em>)-(+)-2-Methylbutanedioic acid;(+)-Methylsuccinic acid;(+)-α-Methylsuccinic acid;(R)-(+)-Methylsuccinic acid;(<em>R</em>)-2-Methylsuccinic acid;(+)-2-Methylsuccinic acid;(+)-(2<em>R</em>)-Methylbutanedioic acid;(2<em>R</em>)-2-Methylsuccinic acid;(<em>R</em>)-(+)-2-Methylsuccinic acid;(2R)-2-Methylbutanedioic acid",
    "duplicated_cas_no": "83441-47-8",
    "SMILES": "[C@@H](CC(O)=O)(C(O)=O)C",
    "meta_data": {
        "InChI": "InChI=1S/C5H8O4/c1-3(5(8)9)2-4(6)7/h3H,2H2,1H3,(H,6,7)(H,8,9)/t3-/m1/s1",
        "InChIKey": null,
        "Canonical SMILES": "O=C(O)CC(C(=O)O)C",
        "Molecular Formula": "C<sub>5</sub>H<sub>8</sub>O<sub>4</sub>",
        "Molecular Mass": "132.11",
        "Melting Point": "114-115 °C"
    }
}