{
    "cas_no": "124-70-9",
    "key_name": "Methylvinyldichlorosilane",
    "cn_name": "甲基乙烯基二氯硅烷;",
    "alternate_name": "Silane, dichloroethenylmethyl-;Silane, dichloromethylvinyl-;Dichloroethenylmethylsilane;Dichloromethylvinylsilane;Methylvinyldichlorosilane;Vinylmethyldichlorosilane;Methyldichlorovinylsilane;Dichlorovinylmethylsilane;Methylethenyldichlorosilane;MVS;MVS (silane);NSC 96610;LS 190",
    "duplicated_cas_no": "66062-55-3",
    "SMILES": "[Si](C=C)(C)(Cl)Cl",
    "meta_data": {
        "InChI": "InChI=1S/C3H6Cl2Si/c1-3-6(2,4)5/h3H,1H2,2H3",
        "InChIKey": null,
        "Canonical SMILES": "Cl[Si](Cl)(C=C)C",
        "Molecular Formula": "C<sub>3</sub>H<sub>6</sub>Cl<sub>2</sub>Si",
        "Molecular Mass": "141.07",
        "Boiling Point": "92.5 °C",
        "Melting Point": "-78 °C",
        "Density": "1.087 g/cm³"
    }
}