{
    "cas_no": "2553-04-0",
    "key_name": "2-Methoxybenzophenone",
    "cn_name": "2-甲氧基苯甲酮;",
    "alternate_name": "Methanone, (2-methoxyphenyl)phenyl-;Benzophenone, 2-methoxy-;Benzophenone, <em>o</em>-methoxy-;(2-Methoxyphenyl)phenylmethanone;2-Methoxybenzophenone;<em>o</em>-Methoxybenzophenone;(2-Methoxyphenyl)phenyl methanone;2-Benzoylanisole;NSC 408008;Phenyl 2-methoxyphenyl ketone",
    "duplicated_cas_no": "",
    "SMILES": "C(=O)(C1=C(OC)C=CC=C1)C2=CC=CC=C2",
    "meta_data": {
        "InChI": "InChI=1S/C14H12O2/c1-16-13-10-6-5-9-12(13)14(15)11-7-3-2-4-8-11/h2-10H,1H3",
        "InChIKey": null,
        "Canonical SMILES": "O=C(C=1C=CC=CC1)C=2C=CC=CC2OC",
        "Molecular Formula": "C<sub>14</sub>H<sub>12</sub>O<sub>2</sub>",
        "Molecular Mass": "212.24",
        "Boiling Point": "210 °C @ Press: 27 Torr",
        "Melting Point": "41 °C"
    }
}