{
    "cas_no": "1201-31-6",
    "key_name": "2,3,4,5-Tetrafluorobenzoic acid",
    "cn_name": "2,3,4,5-四氟苯甲酸;",
    "alternate_name": "Benzoic acid, 2,3,4,5-tetrafluoro-;2,3,4,5-Tetrafluorobenzoic acid;3,4,5,6-Tetrafluorobenzoic acid;NSC 168728",
    "duplicated_cas_no": "",
    "SMILES": "C(O)(=O)C1=C(F)C(F)=C(F)C(F)=C1",
    "meta_data": {
        "InChI": "InChI=1S/C7H2F4O2/c8-3-1-2(7(12)13)4(9)6(11)5(3)10/h1H,(H,12,13)",
        "InChIKey": null,
        "Canonical SMILES": "O=C(O)C1=CC(F)=C(F)C(F)=C1F",
        "Molecular Formula": "C<sub>7</sub>H<sub>2</sub>F<sub>4</sub>O<sub>2</sub>",
        "Molecular Mass": "194.08",
        "Boiling Point": "135-137 °C @ Press: 23 Torr",
        "Melting Point": "86 °C"
    }
}