{
    "cas_no": "60633-25-2",
    "key_name": "2-Bromo-4-chloroanisole",
    "cn_name": "2-溴-4-氯苯甲醚;",
    "alternate_name": "Benzene, 2-bromo-4-chloro-1-methoxy-;2-Bromo-4-chloro-1-methoxybenzene;2-Bromo-4-chloroanisole;4-Chloro-2-bromoanisole;1-Bromo-5-chloro-2-methoxybenzene",
    "duplicated_cas_no": "",
    "SMILES": "O(C)C1=C(Br)C=C(Cl)C=C1",
    "meta_data": {
        "InChI": "InChI=1S/C7H6BrClO/c1-10-7-3-2-5(9)4-6(7)8/h2-4H,1H3",
        "InChIKey": null,
        "Canonical SMILES": "ClC1=CC=C(OC)C(Br)=C1",
        "Molecular Formula": "C<sub>7</sub>H<sub>6</sub>BrClO",
        "Molecular Mass": "221.48",
        "Boiling Point": "127-130 °C @ Press: 12 Torr",
        "Melting Point": "29-30 °C",
        "Density": "1.6170 g/cm³ @ Temp: 20 °C"
    }
}