{
    "cas_no": "1963-36-6",
    "key_name": "4-Methoxycinnamaldehyde",
    "cn_name": "对甲氧基肉桂醛;",
    "alternate_name": "2-Propenal, 3-(4-methoxyphenyl)-;Cinnamaldehyde, <em>p</em>-methoxy-;3-(4-Methoxyphenyl)-2-propenal;<em>p</em>-Methoxycinnamaldehyde;<em>p</em>-Methoxycinnamic aldehyde;4-Methoxycinnamaldehyde;3-(<em>p</em>-Methoxyphenyl)-2-propen-1-al;NSC 26454;3-(4-Methoxyphenyl)propenal;3-(4-Methoxyphenyl)acrylaldehyde",
    "duplicated_cas_no": "1619932-83-0",
    "SMILES": "C(=CC=O)C1=CC=C(OC)C=C1",
    "meta_data": {
        "InChI": "InChI=1S/C10H10O2/c1-12-10-6-4-9(5-7-10)3-2-8-11/h2-8H,1H3",
        "InChIKey": null,
        "Canonical SMILES": "O=CC=CC1=CC=C(OC)C=C1",
        "Molecular Formula": "C<sub>10</sub>H<sub>10</sub>O<sub>2</sub>",
        "Molecular Mass": "162.19",
        "Boiling Point": "170-175 °C @ Press: 15 Torr",
        "Melting Point": "59-59.5 °C"
    }
}