{
    "cas_no": "3381-26-8",
    "key_name": "11-Heneicosanol",
    "cn_name": "11-二十一醇;",
    "alternate_name": "11-Heneicosanol;NSC 158433",
    "duplicated_cas_no": "",
    "SMILES": "C(C(CCCCCCCCCC)O)CCCCCCCCC",
    "meta_data": {
        "InChI": "InChI=1S/C21H44O/c1-3-5-7-9-11-13-15-17-19-21(22)20-18-16-14-12-10-8-6-4-2/h21-22H,3-20H2,1-2H3",
        "InChIKey": null,
        "Canonical SMILES": "OC(CCCCCCCCCC)CCCCCCCCCC",
        "Molecular Formula": "C<sub>21</sub>H<sub>44</sub>O",
        "Molecular Mass": "312.57",
        "Melting Point": "71.8-72.4 °C"
    }
}