{
    "cas_no": "62415-74-1",
    "key_name": "1,2-Dibromo-4-methoxybenzene",
    "cn_name": "3,4-二溴苯甲醚;",
    "alternate_name": "Benzene, 1,2-dibromo-4-methoxy-;1,2-Dibromo-4-methoxybenzene;3,4-Dibromoanisole",
    "duplicated_cas_no": "",
    "SMILES": "O(C)C1=CC(Br)=C(Br)C=C1",
    "meta_data": {
        "InChI": "InChI=1S/C7H6Br2O/c1-10-5-2-3-6(8)7(9)4-5/h2-4H,1H3",
        "InChIKey": null,
        "Canonical SMILES": "BrC1=CC=C(OC)C=C1Br",
        "Molecular Formula": "C<sub>7</sub>H<sub>6</sub>Br<sub>2</sub>O",
        "Molecular Mass": "265.93",
        "Boiling Point": "127 °C"
    }
}