{
    "cas_no": "62-51-1",
    "key_name": "Methacholine chloride",
    "cn_name": "硼氢化钾;钾硼氢;",
    "alternate_name": "1-Propanaminium, 2-(acetyloxy)-<em>N</em>,<em>N</em>,<em>N</em>-trimethyl-, chloride (1:1);(2-Hydroxypropyl)trimethylammonium chloride acetate;Ammonium, (2-hydroxypropyl)trimethyl-, chloride, acetate;1-Propanaminium, 2-(acetyloxy)-<em>N</em>,<em>N</em>,<em>N</em>-trimethyl-, chloride;(2-Acetoxypropyl)trimethylammonium chloride;Acetyl-β-methylcholine chloride;<em>O</em>-Acetyl-β-methylcholine chloride;Amechol;Methacholine chloride;Trimethyl-β-acetoxypropylammonium chloride;Mecholyl;β-Methylacetylcholine chloride;Mecholine chloride;(±)-Acetyl-β-methylcholine chloride;<span class=\"text-smallcaps\">DL</span>-Acetyl-β-methylcholine chloride;Provocholine;Arkofix NDC;MeSH ID: D016210",
    "duplicated_cas_no": "2410-07-3",
    "SMILES": "C([N+](C)(C)C)C(OC(C)=O)C.[Cl-]",
    "meta_data": {
        "InChI": "InChI=1S/C8H18NO2.ClH/c1-7(11-8(2)10)6-9(3,4)5;/h7H,6H2,1-5H3;1H/q+1;/p-1",
        "InChIKey": null,
        "Canonical SMILES": "[Cl-].O=C(OC(C)C[N+](C)(C)C)C",
        "Molecular Formula": "C<sub>8</sub>H<sub>18</sub>NO<sub>2</sub>.Cl",
        "Molecular Mass": "",
        "Melting Point": "172 °C"
    }
}