{
    "cas_no": "1761-62-2",
    "key_name": "5-Iodosalicylaldehyde",
    "cn_name": "5-碘水杨醛;2-羟基-5-碘苯甲醛;",
    "alternate_name": "Benzaldehyde, 2-hydroxy-5-iodo-;Salicylaldehyde, 5-iodo-;2-Hydroxy-5-iodobenzaldehyde;5-Iodosalicylaldehyde;5-Iodo-2-hydroxybenzaldehyde;NSC 74697",
    "duplicated_cas_no": "1186389-41-2",
    "SMILES": "C(=O)C1=C(O)C=CC(I)=C1",
    "meta_data": {
        "InChI": "InChI=1S/C7H5IO2/c8-6-1-2-7(10)5(3-6)4-9/h1-4,10H",
        "InChIKey": null,
        "Canonical SMILES": "O=CC1=CC(I)=CC=C1O",
        "Molecular Formula": "C<sub>7</sub>H<sub>5</sub>IO<sub>2</sub>",
        "Molecular Mass": "248.02",
        "Melting Point": "83 °C"
    }
}