{
    "cas_no": "17440-83-4",
    "key_name": "2-Pyrazinecarboxamide, 3,5-diamino-<em>N</em>-(aminoiminomethyl)-6-chloro-, hydrochloride, hydrate (1:1:2)",
    "cn_name": "盐酸阿米洛利二水合物;3,5-二氨基-N-(氨基亚氨甲基)-6-氯哌嗪甲酰胺盐酸盐二水合物;",
    "alternate_name": "2-Pyrazinecarboxamide, 3,5-diamino-<em>N</em>-(aminoiminomethyl)-6-chloro-, hydrochloride, hydrate (1:1:2);Pyrazinecarboxamide, <em>N</em>-amidino-3,5-diamino-6-chloro-, monohydrochloride, dihydrate;Pyrazinecarboxamide, 3,5-diamino-<em>N</em>-(aminoiminomethyl)-6-chloro-, monohydrochloride, dihydrate;<em>N</em>-Amidino-3,5-diamino-6-chloropyrazinamide hydrochloride dihydrate;3,5-Diamino-<em>N</em>-carbamimidoyl-6-chloropyrazine-2-carboxamide dihydrate hydrochloride",
    "duplicated_cas_no": "",
    "SMILES": "C(NC(=N)N)(=O)C=1C(N)=NC(N)=C(Cl)N1.Cl.O",
    "meta_data": {
        "InChI": "InChI=1S/C6H8ClN7O.ClH.2H2O/c7-2-4(9)13-3(8)1(12-2)5(15)14-6(10)11;;;/h(H4,8,9,13)(H4,10,11,14,15);1H;2*1H2",
        "InChIKey": null,
        "Canonical SMILES": "Cl.O=C(NC(=N)N)C1=NC(Cl)=C(N=C1N)N.O",
        "Molecular Formula": "C<sub>6</sub>H<sub>8</sub>ClN<sub>7</sub>O.ClH.2H<sub>2</sub>O",
        "Molecular Mass": "",
        "Melting Point": "285-288 °C"
    }
}