{
    "cas_no": "1617-68-1",
    "key_name": "Lupeol acetate",
    "cn_name": "乙酸羽扇醇酯;乙酸羽扇醇酯;",
    "alternate_name": "Lup-20(29)-en-3-ol, acetate, (3β)-;Lup-20(29)-en-3β-ol, acetate;Lup-20(30)-en-3β-ol, acetate;1<em>H</em>-Cyclopenta[<em>a</em>]chrysene, lup-20(29)-en-3-ol deriv.;Lupenyl acetate;Lupeyl acetate;Lupeol acetate;3-<em>O</em>-Acetyllupeol;Clerodol acetate;Lupeol 3-acetate;Lup-20(29)-en-3β-yl acetate;3-Acetyllupeol;NSC 281806;Acetyllupeol;3β-OAc-20(29)-lupene",
    "duplicated_cas_no": "22076-45-5;1627956-21-1",
    "SMILES": "C[C@]12[C@@]([C@@]3([C@@](C)(CC1)CC[C@H]3C(C)=C)[H])(CC[C@]4([C@@]2(C)CC[C@@]5([C@]4(C)CC[C@H](OC(C)=O)C5(C)C)[H])[H])[H]",
    "meta_data": {
        "InChI": "InChI=1S/C32H52O2/c1-20(2)22-12-15-29(6)18-19-31(8)23(27(22)29)10-11-25-30(7)16-14-26(34-21(3)33)28(4,5)24(30)13-17-32(25,31)9/h22-27H,1,10-19H2,2-9H3/t22-,23+,24-,25+,26-,27+,29+,30-,31+,32+/m0/s1",
        "InChIKey": null,
        "Canonical SMILES": "O=C(OC1CCC2(C)C(CCC3(C)C2CCC4C5C(C(=C)C)CCC5(C)CCC43C)C1(C)C)C",
        "Molecular Formula": "C<sub>32</sub>H<sub>52</sub>O<sub>2</sub>",
        "Molecular Mass": "468.75",
        "Melting Point": "212-213 °C"
    }
}