{
    "cas_no": "3758-34-7",
    "key_name": "Estradiol, 17-propionate",
    "cn_name": "beta-雌二醇17-丙酸酯;雌甾-1,3,5(10)-三烯-3,17b-二醇17-丙酸酯;",
    "alternate_name": "Estra-1,3,5(10)-triene-3,17-diol (17β)-, 17-propanoate;Estradiol, 17-propionate;Estra-1,3,5(10)-triene-3,17β-diol 17β-propionate;Oestra-1,3,5(10)-trien-3,17β-diol 17-propionate;Estra-1,3,5(10)-triene-3,17β-diol 17-propionate;17β-Estradiol 17-propionate;Estradiol propionate;Akrofollin",
    "duplicated_cas_no": "",
    "SMILES": "C[C@@]12[C@]([C@]3([C@@](C=4C(CC3)=CC(O)=CC4)(CC1)[H])[H])(CC[C@@H]2OC(CC)=O)[H]",
    "meta_data": {
        "InChI": "InChI=1S/C21H28O3/c1-3-20(23)24-19-9-8-18-17-6-4-13-12-14(22)5-7-15(13)16(17)10-11-21(18,19)2/h5,7,12,16-19,22H,3-4,6,8-11H2,1-2H3/t16-,17-,18+,19+,21+/m1/s1",
        "InChIKey": null,
        "Canonical SMILES": "O=C(OC1CCC2C3CCC4=CC(O)=CC=C4C3CCC12C)CC",
        "Molecular Formula": "C<sub>21</sub>H<sub>28</sub>O<sub>3</sub>",
        "Molecular Mass": "328.45",
        "Melting Point": "199-200 °C"
    }
}