{
    "cas_no": "2217-40-5",
    "key_name": "1,2,3,4-Tetrahydro-1-naphthylamine",
    "cn_name": "1,2,3,4-四氢-1-萘胺;",
    "alternate_name": "1-Naphthalenamine, 1,2,3,4-tetrahydro-;1-Naphthalenamine, 1,2,3,4-tetrahydro-, (±)-;1-Naphthylamine, 1,2,3,4-tetrahydro-, (±)-;1,2,3,4-Tetrahydro-1-naphthalenamine;1-Aminotetralin;1,2,3,4-Tetrahydro-1-naphthylamine;1-Amino-1,2,3,4-tetrahydronaphthalene;1,2,3,4-Tetrahydro-1-aminonaphthalene;1,2,3,4-Tetrahydronaphthalen-1-ylamine;(±)-1-Aminotetralin;(±)-1,2,3,4-Tetrahydro-α-naphthylamine;(±)-1,2,3,4-Tetrahydro-1-naphthylamine;(<em>RS</em>)-1-Aminotetralin;(<em>RS</em>)-1,2,3,4-Tetrahydro-1-naphthylamine;NSC 30349;1-Aminotetraline;Tetralin-1-amine",
    "duplicated_cas_no": "32908-38-6",
    "SMILES": "NC1C=2C(CCC1)=CC=CC2",
    "meta_data": {
        "InChI": "InChI=1S/C10H13N/c11-10-7-3-5-8-4-1-2-6-9(8)10/h1-2,4,6,10H,3,5,7,11H2",
        "InChIKey": null,
        "Canonical SMILES": "NC1C=2C=CC=CC2CCC1",
        "Molecular Formula": "C<sub>10</sub>H<sub>13</sub>N",
        "Molecular Mass": "147.22",
        "Boiling Point": "114 °C @ Press: 10 Torr"
    }
}