{
    "cas_no": "29176-55-4",
    "key_name": "2,9-Dichloro-1,10-phenanthroline",
    "cn_name": null,
    "alternate_name": "1,10-Phenanthroline, 2,9-dichloro-;2,9-Dichloro-1,10-phenanthroline;2,9-Dichloro-<em>o</em>-phenanthroline;VUF 7732;NSC 608430",
    "duplicated_cas_no": "",
    "SMILES": "ClC1=NC2=C3C(=CC=C2C=C1)C=CC(Cl)=N3",
    "meta_data": {
        "InChI": "InChI=1S/C12H6Cl2N2/c13-9-5-3-7-1-2-8-4-6-10(14)16-12(8)11(7)15-9/h1-6H",
        "InChIKey": null,
        "Canonical SMILES": "ClC=1N=C2C(=CC1)C=CC=3C=CC(Cl)=NC32",
        "Molecular Formula": "C<sub>12</sub>H<sub>6</sub>Cl<sub>2</sub>N<sub>2</sub>",
        "Molecular Mass": "249.10",
        "Melting Point": "238-240 °C"
    }
}