{
    "cas_no": "41037-28-9",
    "key_name": "6-Bromo-4-methylquinoline",
    "cn_name": "6-溴-4-甲基喹啉;",
    "alternate_name": "Quinoline, 6-bromo-4-methyl-;6-Bromo-4-methylquinoline",
    "duplicated_cas_no": "",
    "SMILES": "CC=1C2=C(C=CC(Br)=C2)N=CC1",
    "meta_data": {
        "InChI": "InChI=1S/C10H8BrN/c1-7-4-5-12-10-3-2-8(11)6-9(7)10/h2-6H,1H3",
        "InChIKey": null,
        "Canonical SMILES": "BrC=1C=CC2=NC=CC(=C2C1)C",
        "Molecular Formula": "C<sub>10</sub>H<sub>8</sub>BrN",
        "Molecular Mass": "222.08",
        "Melting Point": "98 °C"
    }
}