{
    "cas_no": "54879-20-8",
    "key_name": "2-Bromo-3-methylbenzenamine",
    "cn_name": "2-溴-3-甲基苯胺;",
    "alternate_name": "Benzenamine, 2-bromo-3-methyl-;2-Bromo-3-methylbenzenamine;2-Bromo-<em>m</em>-toluidine;2-Bromo-3-methylaniline;2-Bromo-3-methylphenylamine",
    "duplicated_cas_no": "",
    "SMILES": "BrC1=C(C)C=CC=C1N",
    "meta_data": {
        "InChI": "InChI=1S/C7H8BrN/c1-5-3-2-4-6(9)7(5)8/h2-4H,9H2,1H3",
        "InChIKey": null,
        "Canonical SMILES": "BrC=1C(N)=CC=CC1C",
        "Molecular Formula": "C<sub>7</sub>H<sub>8</sub>BrN",
        "Molecular Mass": "186.05",
        "Boiling Point": "145-148 °C @ Press: 45 Torr"
    }
}