{
    "cas_no": "16136-58-6",
    "key_name": "1-Methyl-1<em>H</em>-indole-2-carboxylic acid",
    "cn_name": "1-甲基吲哚-2-甲酸;",
    "alternate_name": "1<em>H</em>-Indole-2-carboxylic acid, 1-methyl-;Indole-2-carboxylic acid, 1-methyl-;1-Methyl-1<em>H</em>-indole-2-carboxylic acid;1-Methylindole-2-carboxylic acid;<em>N</em>-Methyl-2-indolecarboxylic acid;NSC 68357",
    "duplicated_cas_no": "",
    "SMILES": "CN1C=2C(C=C1C(O)=O)=CC=CC2",
    "meta_data": {
        "InChI": "InChI=1S/C10H9NO2/c1-11-8-5-3-2-4-7(8)6-9(11)10(12)13/h2-6H,1H3,(H,12,13)",
        "InChIKey": null,
        "Canonical SMILES": "O=C(O)C1=CC=2C=CC=CC2N1C",
        "Molecular Formula": "C<sub>10</sub>H<sub>9</sub>NO<sub>2</sub>",
        "Molecular Mass": "175.18",
        "Melting Point": "214 °C"
    }
}