{
    "cas_no": "624-73-7",
    "key_name": "1,2-Diiodoethane",
    "cn_name": "1,2-二碘乙烷;二碘化乙烯;乙撑二碘;",
    "alternate_name": "Ethane, 1,2-diiodo-;1,2-Diiodoethane;Ethylene iodide;Diiodoethane",
    "duplicated_cas_no": "",
    "SMILES": "C(CI)I",
    "meta_data": {
        "InChI": "InChI=1S/C2H4I2/c3-1-2-4/h1-2H2",
        "InChIKey": null,
        "Canonical SMILES": "ICCI",
        "Molecular Formula": "C<sub>2</sub>H<sub>4</sub>I<sub>2</sub>",
        "Molecular Mass": "281.86",
        "Boiling Point": "200 °C",
        "Melting Point": "83 °C",
        "Density": "2.132 g/cm³ @ Temp: 10 °C"
    }
}