{
    "cas_no": "78-13-7",
    "key_name": "Silicic acid (H<sub>4</sub>SiO<sub>4</sub>), tetrakis(2-ethylbutyl) ester",
    "cn_name": null,
    "alternate_name": "Silicic acid (H<sub>4</sub>SiO<sub>4</sub>), tetrakis(2-ethylbutyl) ester;1-Butanol, 2-ethyl-, silicate;2-Ethylbutyl silicate;Tetra(2-ethylbutyl) silicate;Tetrakis(2-ethylbutoxy)silane;2-Ethylbutyl orthosilicate;Flo-Cool 180;Coolanol 25;Tetrakis(2-ethylbutyl) silicate",
    "duplicated_cas_no": "63302-55-6",
    "SMILES": "[Si](OCC(CC)CC)(OCC(CC)CC)(OCC(CC)CC)OCC(CC)CC",
    "meta_data": {
        "InChI": "InChI=1S/C24H52O4Si/c1-9-21(10-2)17-25-29(26-18-22(11-3)12-4,27-19-23(13-5)14-6)28-20-24(15-7)16-8/h21-24H,9-20H2,1-8H3",
        "InChIKey": null,
        "Canonical SMILES": "O(CC(CC)CC)[Si](OCC(CC)CC)(OCC(CC)CC)OCC(CC)CC",
        "Molecular Formula": "C<sub>24</sub>H<sub>52</sub>O<sub>4</sub>Si",
        "Molecular Mass": "432.75",
        "Boiling Point": "145-149 °C @ Press: 0.3 Torr",
        "Melting Point": "301 °C (decomp)"
    }
}