{
    "cas_no": "1939-99-7",
    "key_name": "Benzenemethanesulfonyl chloride",
    "cn_name": "苄磺酰氯;甲苯磺酰氯;",
    "alternate_name": "Benzenemethanesulfonyl chloride;α-Toluenesulfonyl chloride;Phenylmethanesulfonyl chloride;Benzylsulfonyl chloride;Phenylmethylsulfonyl chloride;NSC 41894",
    "duplicated_cas_no": "",
    "SMILES": "C(S(Cl)(=O)=O)C1=CC=CC=C1",
    "meta_data": {
        "InChI": "InChI=1S/C7H7ClO2S/c8-11(9,10)6-7-4-2-1-3-5-7/h1-5H,6H2",
        "InChIKey": null,
        "Canonical SMILES": "O=S(=O)(Cl)CC=1C=CC=CC1",
        "Molecular Formula": "C<sub>7</sub>H<sub>7</sub>ClO<sub>2</sub>S",
        "Molecular Mass": "190.65",
        "Melting Point": "92 °C"
    }
}