{
    "cas_no": "1314-61-0",
    "key_name": "Tantalum pentoxide",
    "cn_name": "氧化钽;五氧化二钽;",
    "alternate_name": "Tantalum oxide (Ta<sub>2</sub>O<sub>5</sub>);Tantalic acid anhydride;Tantalum pentaoxide;Tantalum pentoxide;Tantalum pentoxide (Ta<sub>2</sub>O<sub>5</sub>);Tantalum(V) oxide;Ditantalum pentoxide;Ditantalum pentaoxide;Tantala;Tantalum oxide;Cerac T 1013;Tantalum oxide (TaO<sub>2.5</sub>);Tantalum oxide (Ta<sub>0.8</sub>O<sub>2</sub>);TBTEMT",
    "duplicated_cas_no": "12653-86-0;53095-18-4;184226-71-9;1425543-21-0;1803311-52-5",
    "SMILES": "",
    "meta_data": {
        "InChI": "",
        "InChIKey": null,
        "Canonical SMILES": "",
        "Molecular Formula": "O<sub>5</sub>Ta<sub>2</sub>",
        "Molecular Mass": "",
        "Melting Point": "1875 °C",
        "Density": "8 g/cm³"
    }
}