{
    "uri": "substance/pt/1314610",
    "rn": "1314-61-0",
    "name": "Tantalum pentoxide",
    "images": [],
    "inchi": "",
    "inchiKey": "",
    "smile": "",
    "canonicalSmile": "",
    "molecularFormula": "O<sub>5</sub>Ta<sub>2</sub>",
    "molecularMass": "",
    "experimentalProperties": [
        {
            "name": "Melting Point",
            "property": "1875 °C",
            "sourceNumber": 1
        },
        {
            "name": "Density",
            "property": "8 g/cm³",
            "sourceNumber": 2
        }
    ],
    "propertyCitations": [
        {
            "docUri": "document/pt/document/23697923",
            "sourceNumber": 1,
            "source": "Ruff, Otto; Zeitschrift fuer Anorganische Chemie, (1913), 82, 373-400, CAplus"
        },
        {
            "docUri": "document/pt/document/11775621",
            "sourceNumber": 2,
            "source": "Klerer, Julius; Journal of the Electrochemical Society, (1965), 112(9), 896-9, CAplus"
        }
    ],
    "synonyms": [
        "Tantalum oxide (Ta<sub>2</sub>O<sub>5</sub>)",
        "Tantalic acid anhydride",
        "Tantalum pentaoxide",
        "Tantalum pentoxide",
        "Tantalum pentoxide (Ta<sub>2</sub>O<sub>5</sub>)",
        "Tantalum(V) oxide",
        "Ditantalum pentoxide",
        "Ditantalum pentaoxide",
        "Tantala",
        "Tantalum oxide",
        "Cerac T 1013",
        "Tantalum oxide (TaO<sub>2.5</sub>)",
        "Tantalum oxide (Ta<sub>0.8</sub>O<sub>2</sub>)",
        "TBTEMT"
    ],
    "replacedRns": [
        "12653-86-0",
        "53095-18-4",
        "184226-71-9",
        "1425543-21-0",
        "1803311-52-5"
    ],
    "hasMolfile": false,
    "source": "https://commonchemistry.cas.org/detail?cas_rn=1314-61-0"
}