{
    "cas_no": "606-37-1",
    "key_name": "1,3-Dinitronaphthalene",
    "cn_name": "1,3-二硝基萘;二硝基萘;",
    "alternate_name": "Naphthalene, 1,3-dinitro-;1,3-Dinitronaphthalene;NSC 74478",
    "duplicated_cas_no": "",
    "SMILES": "N(=O)(=O)C=1C2=C(C=C(N(=O)=O)C1)C=CC=C2",
    "meta_data": {
        "InChI": "InChI=1S/C10H6N2O4/c13-11(14)8-5-7-3-1-2-4-9(7)10(6-8)12(15)16/h1-6H",
        "InChIKey": null,
        "Canonical SMILES": "O=N(=O)C1=CC=2C=CC=CC2C(=C1)N(=O)=O",
        "Molecular Formula": "C<sub>10</sub>H<sub>6</sub>N<sub>2</sub>O<sub>4</sub>",
        "Molecular Mass": "218.17",
        "Melting Point": "148 °C"
    }
}