{
    "cas_no": "1116-54-7",
    "key_name": "<em>N</em>-Nitrosodiethanolamine",
    "cn_name": "二乙醇亚硝胺;二乙醇亚硝胺;",
    "alternate_name": "Ethanol, 2,2′-(nitrosoimino)bis-;Ethanol, 2,2′-nitrosiminodi-;2,2′-(Nitrosoimino)bis[ethanol];Diethanolnitrosamine;<em>N</em>-Nitrosodiethanolamine;Nitrosodiethanolamine;<em>N</em>,<em>N</em>-Diethanolnitrosamine;<em>N</em>-Nitrosobis(2-hydroxyethyl)amine;NDELA;2-[(2-Hydroxyethyl)(nitroso)amino]ethan-1-ol",
    "duplicated_cas_no": "",
    "SMILES": "N(CCO)(CCO)N=O",
    "meta_data": {
        "InChI": "InChI=1S/C4H10N2O3/c7-3-1-6(5-9)2-4-8/h7-8H,1-4H2",
        "InChIKey": null,
        "Canonical SMILES": "O=NN(CCO)CCO",
        "Molecular Formula": "C<sub>4</sub>H<sub>10</sub>N<sub>2</sub>O<sub>3</sub>",
        "Molecular Mass": "134.13",
        "Boiling Point": "114 °C @ Press: 1.4 Torr",
        "Melting Point": "200 °C (decomp)"
    }
}