{
    "cas_no": "611-09-6",
    "key_name": "5-Nitroisatin",
    "cn_name": "5-硝基靛红;5-硝基-2,3-吲哚二酮;",
    "alternate_name": "1<em>H</em>-Indole-2,3-dione, 5-nitro-;Indole-2,3-dione, 5-nitro-;Isatin, 5-nitro-;5-Nitro-1<em>H</em>-indole-2,3-dione;5-Nitroisatin;5-Nitroindole-2,3-dione;NSC 525798;5-Nitro-2,3-indolinedione;5-Nitroindoline-2,3-dione",
    "duplicated_cas_no": "",
    "SMILES": "O=C1C=2C(NC1=O)=CC=C(N(=O)=O)C2",
    "meta_data": {
        "InChI": "InChI=1S/C8H4N2O4/c11-7-5-3-4(10(13)14)1-2-6(5)9-8(7)12/h1-3H,(H,9,11,12)",
        "InChIKey": null,
        "Canonical SMILES": "O=C1NC2=CC=C(C=C2C1=O)N(=O)=O",
        "Molecular Formula": "C<sub>8</sub>H<sub>4</sub>N<sub>2</sub>O<sub>4</sub>",
        "Molecular Mass": "192.13",
        "Melting Point": "251 °C (decomp)"
    }
}