{
    "cas_no": "400-70-4",
    "key_name": "2,4-Dichloro-5-nitrobenzotrifluoride",
    "cn_name": "2,4-二氯-5-硝基三氟甲基苯;",
    "alternate_name": "Benzene, 1,5-dichloro-2-nitro-4-(trifluoromethyl)-;Toluene, 2,4-dichloro-α,α,α-trifluoro-5-nitro-;1,5-Dichloro-2-nitro-4-(trifluoromethyl)benzene;2,4-Dichloro-5-nitrobenzotrifluoride;2,4-Dichloro-5-nitro-1-(trifluoromethyl)benzene;3-Nitro-4,6-dichlorobenzotrifluoride;2,4-Dichloro-5-(trifluoromethyl)nitrobenzene;3-Trifluoromethyl-4,6-dichloronitrobenzene",
    "duplicated_cas_no": "",
    "SMILES": "C(F)(F)(F)C1=CC(N(=O)=O)=C(Cl)C=C1Cl",
    "meta_data": {
        "InChI": "InChI=1S/C7H2Cl2F3NO2/c8-4-2-5(9)6(13(14)15)1-3(4)7(10,11)12/h1-2H",
        "InChIKey": null,
        "Canonical SMILES": "O=N(=O)C=1C=C(C(Cl)=CC1Cl)C(F)(F)F",
        "Molecular Formula": "C<sub>7</sub>H<sub>2</sub>Cl<sub>2</sub>F<sub>3</sub>NO<sub>2</sub>",
        "Molecular Mass": "260.00",
        "Melting Point": "53-54 °C"
    }
}