{
    "cas_no": "122852-42-0",
    "key_name": "Alosetron",
    "cn_name": null,
    "alternate_name": "1<em>H</em>-Pyrido[4,3-<em>b</em>]indol-1-one, 2,3,4,5-tetrahydro-5-methyl-2-[(4-methyl-1<em>H</em>-imidazol-5-yl)methyl]-;1<em>H</em>-Pyrido[4,3-<em>b</em>]indol-1-one, 2,3,4,5-tetrahydro-5-methyl-2-[(5-methyl-1<em>H</em>-imidazol-4-yl)methyl]-;2,3,4,5-Tetrahydro-5-methyl-2-[(4-methyl-1<em>H</em>-imidazol-5-yl)methyl]-1<em>H</em>-pyrido[4,3-<em>b</em>]indol-1-one;GR 68755X;Alosetron;GR 68755;Lotronex",
    "duplicated_cas_no": "135750-80-0",
    "SMILES": "O=C1C=2C=3C(N(C)C2CCN1CC4=C(C)N=CN4)=CC=CC3",
    "meta_data": {
        "InChI": "InChI=1S/C17H18N4O/c1-11-13(19-10-18-11)9-21-8-7-15-16(17(21)22)12-5-3-4-6-14(12)20(15)2/h3-6,10H,7-9H2,1-2H3,(H,18,19)",
        "InChIKey": null,
        "Canonical SMILES": "O=C1C=2C=3C=CC=CC3N(C2CCN1CC=4NC=NC4C)C",
        "Molecular Formula": "C<sub>17</sub>H<sub>18</sub>N<sub>4</sub>O",
        "Molecular Mass": "294.35",
        "Melting Point": "238-240 °C"
    }
}