{
    "cas_no": "2168-96-9",
    "key_name": "Dodecyl sulfoxide",
    "cn_name": "二正十二烷基亚砜;",
    "alternate_name": "Dodecane, 1-(dodecylsulfinyl)-;Dodecyl sulfoxide;Dodecane, 1,1′-sulfinylbis-;1-(Dodecylsulfinyl)dodecane;Di-<em>n</em>-dodecylsulfoxide;Didodecylsulfoxide;Dilauryl sulfoxide",
    "duplicated_cas_no": "",
    "SMILES": "S(CCCCCCCCCCCC)(CCCCCCCCCCCC)=O",
    "meta_data": {
        "InChI": "InChI=1S/C24H50OS/c1-3-5-7-9-11-13-15-17-19-21-23-26(25)24-22-20-18-16-14-12-10-8-6-4-2/h3-24H2,1-2H3",
        "InChIKey": null,
        "Canonical SMILES": "O=S(CCCCCCCCCCCC)CCCCCCCCCCCC",
        "Molecular Formula": "C<sub>24</sub>H<sub>50</sub>OS",
        "Molecular Mass": "386.72",
        "Melting Point": "89-90 °C"
    }
}