{
    "cas_no": "2842-38-8",
    "key_name": "2-(Cyclohexylamino)ethanol",
    "cn_name": "N-环己基单乙醇胺;N-环己基乙醇胺;",
    "alternate_name": "Ethanol, 2-(cyclohexylamino)-;2-(Cyclohexylamino)ethanol;<em>N</em>-(2-Hydroxyethyl)cyclohexylamine;<em>N</em>-Cyclohexylaminoethanol;<em>N</em>-Cyclohexylethanolamine;<em>N</em>-Cyclohexyl-1-aminoethan-2-ol;<em>N</em>-(2-Hydroxyethyl)-<em>N</em>-cyclohexylamine;<em>N</em>-Cyclohexyl-2-hydroxyethylamine;2-(<em>N</em>-Cyclohexylamino)ethanol;Cyclohexyl(2-hydroxyethyl)amine;NSC 1505;2-(Cyclohexylamino)ethan-1-ol",
    "duplicated_cas_no": "",
    "SMILES": "N(CCO)C1CCCCC1",
    "meta_data": {
        "InChI": "InChI=1S/C8H17NO/c10-7-6-9-8-4-2-1-3-5-8/h8-10H,1-7H2",
        "InChIKey": null,
        "Canonical SMILES": "OCCNC1CCCCC1",
        "Molecular Formula": "C<sub>8</sub>H<sub>17</sub>NO",
        "Molecular Mass": "143.23",
        "Boiling Point": "234-236 °C @ Press: 762 Torr",
        "Melting Point": "40-41 °C",
        "Density": "0.9811 g/cm³ @ Temp: 25 °C"
    }
}