{
    "cas_no": "57044-25-4",
    "key_name": "(+)-Glycidol",
    "cn_name": null,
    "alternate_name": "2-Oxiranemethanol, (2<em>R</em>)-;Oxiranemethanol, (<em>R</em>)-;Oxiranemethanol, (2<em>R</em>)-;(2<em>R</em>)-2-Oxiranemethanol;2,3-Anhydro-<em>sn</em>-glycerol;(+)-Glycidol;(+)-2,3-Epoxy-1-propanol;(<em>R</em>)-(+)-Glycidol;2(<em>R</em>)-2,3-Epoxypropanol;(<em>R</em>)-Glycidol;(<em>R</em>)-2-Oxiranemethanol;<em>R</em>-Glycidyl alcohol;(2R)-2-Oxiranylmethanol;(R)-2-Oxiranemethanol;(<em>R</em>)-Oxiran-2-ylmethanol;(R)-Oxiran-2-ylmethanol;2-Oxiranemethanol (2R)-;2-Oxiranol, (2<em>S</em>)-",
    "duplicated_cas_no": "2648141-43-7",
    "SMILES": "C(O)[C@@H]1CO1",
    "meta_data": {
        "InChI": "InChI=1S/C3H6O2/c4-1-3-2-5-3/h3-4H,1-2H2/t3-/m1/s1",
        "InChIKey": null,
        "Canonical SMILES": "OCC1OC1",
        "Molecular Formula": "C<sub>3</sub>H<sub>6</sub>O<sub>2</sub>",
        "Molecular Mass": "74.08",
        "Boiling Point": "70 °C @ Press: 15 Torr"
    }
}