{
    "cas_no": "57260-67-0",
    "key_name": "1-(3,4-Dichlorophenyl)piperazine",
    "cn_name": "1-(3,4-二氯苯基)哌嗪;",
    "alternate_name": "Piperazine, 1-(3,4-dichlorophenyl)-;1-(3,4-Dichlorophenyl)piperazine;<em>N</em>-3,4-Dichlorophenylpiperazine",
    "duplicated_cas_no": "",
    "SMILES": "ClC=1C=C(C=CC1Cl)N2CCNCC2",
    "meta_data": {
        "InChI": "InChI=1S/C10H12Cl2N2/c11-9-2-1-8(7-10(9)12)14-5-3-13-4-6-14/h1-2,7,13H,3-6H2",
        "InChIKey": null,
        "Canonical SMILES": "ClC1=CC=C(C=C1Cl)N2CCNCC2",
        "Molecular Formula": "C<sub>10</sub>H<sub>12</sub>Cl<sub>2</sub>N<sub>2</sub>",
        "Molecular Mass": "231.12",
        "Boiling Point": "202 °C @ Press: 15 Torr",
        "Melting Point": "175-177 °C"
    }
}