{
    "cas_no": "2012-74-0",
    "key_name": "2-(4-Chlorophenyl)-3-methylbutyric acid",
    "cn_name": "4-氯-α-异丙基苯乙酸;",
    "alternate_name": "Benzeneacetic acid, 4-chloro-α-(1-methylethyl)-;Butyric acid, 2-(<em>p</em>-chlorophenyl)-3-methyl-;4-Chloro-α-(1-methylethyl)benzeneacetic acid;4-Chloro-α-isopropylphenylacetic acid;2-(<em>p</em>-Chlorophenyl)-3-methylbutyric acid;2-(4-Chlorophenyl)isovaleric acid;2-(4-Chlorophenyl)-3-methylbutanoic acid;2-(4-Chlorophenyl)-3-methylbutyric acid;4-Chloro-α-isopropylbenzeneacetic acid;(±)-2-(<em>p</em>-Chlorophenyl)-3-methylbutyric acid;(±)-α-Isopropyl-4-chlorophenylacetic acid;(±)-2-(4-Chlorophenyl)-3-methylbutanoic acid;(±)-2-(4-Chlorophenyl)isovaleric acid;<em>dl</em>-2-(4-Chlorophenyl)-3-methylbutyric acid;(<em>RS</em>)-2-(4-Chlorophenyl)-3-methylbutyric acid;(±)-2-(4-Chlorophenyl)-3-methylbutyric acid;Racemic fenvaleric acid;(±)-Fenvaleric acid;(<em>RS</em>)-Fenvaleric acid",
    "duplicated_cas_no": "55291-27-5;2696440-96-5",
    "SMILES": "C(C(C)C)(C(O)=O)C1=CC=C(Cl)C=C1",
    "meta_data": {
        "InChI": "InChI=1S/C11H13ClO2/c1-7(2)10(11(13)14)8-3-5-9(12)6-4-8/h3-7,10H,1-2H3,(H,13,14)",
        "InChIKey": null,
        "Canonical SMILES": "O=C(O)C(C1=CC=C(Cl)C=C1)C(C)C",
        "Molecular Formula": "C<sub>11</sub>H<sub>13</sub>ClO<sub>2</sub>",
        "Molecular Mass": "212.67",
        "Melting Point": "89-90 °C"
    }
}