{
    "cas_no": "41131-65-1",
    "key_name": "<em>N</em>,<em>N</em>′-(2-Chloro-5-methyl-1,4-phenylene)bis[3-oxobutanamide]",
    "cn_name": "双乙酰乙酰-2-氯-5-甲基对苯二胺;",
    "alternate_name": "Butanamide, <em>N</em>,<em>N</em>′-(2-chloro-5-methyl-1,4-phenylene)bis[3-oxo-;Acetoacetamide, <em>N</em>,<em>N</em>′-(2-chloro-5-methyl-<em>p</em>-phenylene)bis-;<em>N</em>,<em>N</em>′-(2-Chloro-5-methyl-1,4-phenylene)bis[3-oxobutanamide];1,4-Bis(acetoacetamido)-5-chloro-2-methylbenzene;2-Chloro-5-methyl-1,4-bisacetoacetylaminobenzene;2-Methyl-5-chloro-1,4-bis(acetoacetylamino)benzene;5-Chloro-2-methyl-1,4-bis[(acetoacetyl)amino]benzene;1,4-Bis(acetoacetamido)-2-chloro-5-methylbenzene;1,4-Bis(acetoacetylamino)-2-chloro-5-methylbenzene;<em>N</em>,<em>N</em>′-(2-Chloro-5-methyl-1,4-phenylene)bis[3-oxobutyramide]",
    "duplicated_cas_no": "",
    "SMILES": "N(C(CC(C)=O)=O)C1=C(C)C=C(NC(CC(C)=O)=O)C(Cl)=C1",
    "meta_data": {
        "InChI": "InChI=1S/C15H17ClN2O4/c1-8-4-13(18-15(22)6-10(3)20)11(16)7-12(8)17-14(21)5-9(2)19/h4,7H,5-6H2,1-3H3,(H,17,21)(H,18,22)",
        "InChIKey": null,
        "Canonical SMILES": "O=C(NC=1C=C(C(=CC1Cl)NC(=O)CC(=O)C)C)CC(=O)C",
        "Molecular Formula": "C<sub>15</sub>H<sub>17</sub>ClN<sub>2</sub>O<sub>4</sub>",
        "Molecular Mass": "324.76",
        "Melting Point": "195-196 °C"
    }
}