{
    "cas_no": "530-75-6",
    "key_name": "Acetylsalicylsalicylic acid",
    "cn_name": "乙酰水杨酰水杨酸;",
    "alternate_name": "Benzoic acid, 2-(acetyloxy)-, 2-carboxyphenyl ester;Salicylic acid, salicylate, acetate;Salicylacetylsalicylic acid;Acetylsalicylsalicylic acid;Diplosal acetate;Acesalum;Diplosalacetat;2-[(2-Acetoxybenzoyl)oxy]benzoic acid;2-[[2-(Acetyloxy)benzoyl]oxy]benzoic acid;Diplosalsalate",
    "duplicated_cas_no": "",
    "SMILES": "O(C(=O)C1=C(OC(C)=O)C=CC=C1)C2=C(C(O)=O)C=CC=C2",
    "meta_data": {
        "InChI": "InChI=1S/C16H12O6/c1-10(17)21-14-9-5-3-7-12(14)16(20)22-13-8-4-2-6-11(13)15(18)19/h2-9H,1H3,(H,18,19)",
        "InChIKey": null,
        "Canonical SMILES": "O=C(O)C=1C=CC=CC1OC(=O)C=2C=CC=CC2OC(=O)C",
        "Molecular Formula": "C<sub>16</sub>H<sub>12</sub>O<sub>6</sub>",
        "Molecular Mass": "300.26",
        "Melting Point": "159 °C"
    }
}