{
    "cas_no": "6817-41-0",
    "key_name": "(+)-Isoliensinine",
    "cn_name": null,
    "alternate_name": "7-Isoquinolinol, 1,2,3,4-tetrahydro-1-[[4-hydroxy-3-[[(1<em>R</em>)-1,2,3,4-tetrahydro-6-methoxy-1-[(4-methoxyphenyl)methyl]-2-methyl-7-isoquinolinyl]oxy]phenyl]methyl]-6-methoxy-2-methyl-, (1<em>R</em>)-;Isoliensinine;7-Isoquinolinol, 1,2,3,4-tetrahydro-1-[[4-hydroxy-3-[[1,2,3,4-tetrahydro-6-methoxy-1-[(4-methoxyphenyl)methyl]-2-methyl-7-isoquinolinyl]oxy]phenyl]methyl]-6-methoxy-2-methyl-, [<em>R</em>-(<em>R</em>*,<em>R</em>*)]-;(1<em>R</em>)-1,2,3,4-Tetrahydro-1-[[4-hydroxy-3-[[(1<em>R</em>)-1,2,3,4-tetrahydro-6-methoxy-1-[(4-methoxyphenyl)methyl]-2-methyl-7-isoquinolinyl]oxy]phenyl]methyl]-6-methoxy-2-methyl-7-isoquinolinol;Isoliensinin;(+)-Isoliensinine",
    "duplicated_cas_no": "26645-27-2",
    "SMILES": "C([C@@H]1C=2C(=CC(OC)=C(OC3=CC(C[C@@H]4C=5C(=CC(OC)=C(O)C5)CCN4C)=CC=C3O)C2)CCN1C)C6=CC=C(OC)C=C6",
    "meta_data": {
        "InChI": "InChI=1S/C37H42N2O6/c1-38-15-13-26-20-36(44-5)37(22-29(26)30(38)16-23-6-9-27(42-3)10-7-23)45-35-18-24(8-11-32(35)40)17-31-28-21-33(41)34(43-4)19-25(28)12-14-39(31)2/h6-11,18-22,30-31,40-41H,12-17H2,1-5H3/t30-,31-/m1/s1",
        "InChIKey": null,
        "Canonical SMILES": "OC1=CC=C(C=C1OC=2C=C3C(=CC2OC)CCN(C)C3CC4=CC=C(OC)C=C4)CC5C6=CC(O)=C(OC)C=C6CCN5C",
        "Molecular Formula": "C<sub>37</sub>H<sub>42</sub>N<sub>2</sub>O<sub>6</sub>",
        "Molecular Mass": "610.74",
        "Melting Point": "69-71 °C"
    }
}