{
    "cas_no": "5580-79-0",
    "key_name": "1,2,3,4-Tetrafluoro-5-nitrobenzene",
    "cn_name": "2,3,4,5-四氟硝基苯;",
    "alternate_name": "Benzene, 1,2,3,4-tetrafluoro-5-nitro-;1,2,3,4-Tetrafluoro-5-nitrobenzene;2,3,4,5-Tetrafluoronitrobenzene;2,3,4,5-Tetrafluoro-1-nitrobenzene;5-Nitro-1,2,3,4-tetrafluorobenzene;NSC 96618",
    "duplicated_cas_no": "",
    "SMILES": "N(=O)(=O)C1=C(F)C(F)=C(F)C(F)=C1",
    "meta_data": {
        "InChI": "InChI=1S/C6HF4NO2/c7-2-1-3(11(12)13)5(9)6(10)4(2)8/h1H",
        "InChIKey": null,
        "Canonical SMILES": "O=N(=O)C1=CC(F)=C(F)C(F)=C1F",
        "Molecular Formula": "C<sub>6</sub>HF<sub>4</sub>NO<sub>2</sub>",
        "Molecular Mass": "195.07",
        "Boiling Point": "74 °C @ Press: 19 Torr"
    }
}