{
    "cas_no": "16830-15-2",
    "key_name": "Asiaticoside",
    "cn_name": "积雪草苷;",
    "alternate_name": "Urs-12-en-28-oic acid, 2,3,23-trihydroxy-, <em>O</em>-6-deoxy-α-<span class=\"text-smallcaps\">L</smallcap>-mannopyranosyl-(1→4)-<em>O</em>-β-<smallcap>D</smallcap>-glucopyranosyl-(1→6)-β-<smallcap>D</span>-glucopyranosyl ester, (2α,3β,4α)-;Madecassol;Asiaticoside;Ba 2742;Asiaticosid;Centelase dermatologico;NSC 166062;NSC 36002;HerbEx Centella Extract",
    "duplicated_cas_no": "910246-26-3",
    "SMILES": "C(O[C@@H]1O[C@H](CO[C@@H]2O[C@H](CO)[C@@H](O[C@H]3[C@H](O)[C@H](O)[C@@H](O)[C@H](C)O3)[C@H](O)[C@H]2O)[C@@H](O)[C@H](O)[C@H]1O)(=O)[C@]45[C@](C=6[C@@](C)(CC4)[C@@]7(C)[C@](CC6)([C@]8(C)[C@@](CC7)([C@@](CO)(C)[C@@H](O)[C@H](O)C8)[H])[H])([C@@H](C)[C@H](C)CC5)[H]",
    "meta_data": {
        "InChI": "InChI=1S/C48H78O19/c1-20-10-13-48(15-14-46(6)23(29(48)21(20)2)8-9-28-44(4)16-24(51)39(60)45(5,19-50)27(44)11-12-47(28,46)7)43(61)67-42-36(58)33(55)31(53)26(65-42)18-62-40-37(59)34(56)38(25(17-49)64-40)66-41-35(57)32(54)30(52)22(3)63-41/h8,20-22,24-42,49-60H,9-19H2,1-7H3/t20-,21+,22+,24-,25-,26-,27-,28-,29+,30+,31-,32-,33+,34-,35-,36-,37-,38-,39+,40-,41+,42+,44+,45+,46-,47-,48+/m1/s1",
        "InChIKey": null,
        "Canonical SMILES": "O=C(OC1OC(COC2OC(CO)C(OC3OC(C)C(O)C(O)C3O)C(O)C2O)C(O)C(O)C1O)C45CCC(C)C(C)C5C6=CCC7C8(C)CC(O)C(O)C(C)(CO)C8CCC7(C)C6(C)CC4",
        "Molecular Formula": "C<sub>48</sub>H<sub>78</sub>O<sub>19</sub>",
        "Molecular Mass": "959.12",
        "Melting Point": "230-233 °C"
    }
}