{
    "cas_no": "66164-07-6",
    "key_name": "<em>N</em>-Desmethyl Loperamide",
    "cn_name": null,
    "alternate_name": "1-Piperidinebutanamide, 4-(4-chlorophenyl)-4-hydroxy-<em>N</em>-methyl-α,α-diphenyl-;4-(4-Chlorophenyl)-4-hydroxy-<em>N</em>-methyl-α,α-diphenyl-1-piperidinebutanamide;R 20905;Desmethylloperamide;<em>N</em>-Desmethyl Loperamide",
    "duplicated_cas_no": "",
    "SMILES": "C(CCN1CCC(O)(CC1)C2=CC=C(Cl)C=C2)(C(NC)=O)(C3=CC=CC=C3)C4=CC=CC=C4",
    "meta_data": {
        "InChI": "InChI=1S/C28H31ClN2O2/c1-30-26(32)28(23-8-4-2-5-9-23,24-10-6-3-7-11-24)18-21-31-19-16-27(33,17-20-31)22-12-14-25(29)15-13-22/h2-15,33H,16-21H2,1H3,(H,30,32)",
        "InChIKey": null,
        "Canonical SMILES": "O=C(NC)C(C=1C=CC=CC1)(C=2C=CC=CC2)CCN3CCC(O)(C4=CC=C(Cl)C=C4)CC3",
        "Molecular Formula": "C<sub>28</sub>H<sub>31</sub>ClN<sub>2</sub>O<sub>2</sub>",
        "Molecular Mass": "463.01",
        "Melting Point": "224-226 °C"
    }
}