{
    "cas_no": "686-31-7",
    "key_name": "<em>tert</em>-Amyl peroxy-2-ethylhexanoate",
    "cn_name": "过氧化叔戊基-2-乙基己酸酯;",
    "alternate_name": "Hexaneperoxoic acid, 2-ethyl-, 1,1-dimethylpropyl ester;Peroxyhexanoic acid, 2-ethyl-, <em>tert</em>-pentyl ester;<em>tert</em>-Pentyl alcohol, 2-ethylperoxyhexanoate;Lupersol TA 75;Lupersol 575;<em>tert</em>-Amyl peroxy-2-ethylhexanoate;<em>tert</em>-Amyl 2-ethylperoxyhexanoate;<em>tert</em>-Amyl 2-ethylperhexanoate;<em>tert</em>-Pentyl peroxy-2-ethylhexanoate;Trigonox 121;Trigonox 121-50;Esperox 570;Trigonox 121C50;Trigonox 121LS50;Trigonox 121-50E;Luperox 575",
    "duplicated_cas_no": "",
    "SMILES": "C(C(OOC(CC)(C)C)=O)(CCCC)CC",
    "meta_data": {
        "InChI": "InChI=1S/C13H26O3/c1-6-9-10-11(7-2)12(14)15-16-13(4,5)8-3/h11H,6-10H2,1-5H3",
        "InChIKey": null,
        "Canonical SMILES": "O=C(OOC(C)(C)CC)C(CC)CCCC",
        "Molecular Formula": "C<sub>13</sub>H<sub>26</sub>O<sub>3</sub>",
        "Molecular Mass": "230.34",
        "Boiling Point": "68 °C @ Press: 0.5 Torr",
        "Density": "0.9075 g/cm³ @ Temp: 20 °C"
    }
}