{
    "cas_no": "50593-68-5",
    "key_name": "3-Chloro-6-nitro-1<em>H</em>-indazole",
    "cn_name": null,
    "alternate_name": "1<em>H</em>-Indazole, 3-chloro-6-nitro-;3-Chloro-6-nitro-1<em>H</em>-indazole;3-Chloro-6-nitroindazole;NSC 84179;3-Chloro-6-nitro-2<em>H</em>-indazole",
    "duplicated_cas_no": "",
    "SMILES": "ClC=1C=2C(=CC(N(=O)=O)=CC2)NN1",
    "meta_data": {
        "InChI": "InChI=1S/C7H4ClN3O2/c8-7-5-2-1-4(11(12)13)3-6(5)9-10-7/h1-3H,(H,9,10)",
        "InChIKey": null,
        "Canonical SMILES": "O=N(=O)C=1C=CC=2C(Cl)=NNC2C1",
        "Molecular Formula": "C<sub>7</sub>H<sub>4</sub>ClN<sub>3</sub>O<sub>2</sub>",
        "Molecular Mass": "197.58",
        "Melting Point": "201-203 °C"
    }
}