{
    "cas_no": "2213-32-3",
    "key_name": "2,4-Dimethyl-1-pentene",
    "cn_name": "2,4-二甲基-1-戊烯;2,4-二甲基-1-戊烯;2,4,4-三甲基-1-丁烯;",
    "alternate_name": "1-Pentene, 2,4-dimethyl-;2,4-Dimethyl-1-pentene;NSC 74135",
    "duplicated_cas_no": "",
    "SMILES": "C(C(C)C)C(C)=C",
    "meta_data": {
        "InChI": "InChI=1S/C7H14/c1-6(2)5-7(3)4/h7H,1,5H2,2-4H3",
        "InChIKey": null,
        "Canonical SMILES": "C=C(C)CC(C)C",
        "Molecular Formula": "C<sub>7</sub>H<sub>14</sub>",
        "Molecular Mass": "98.19",
        "Boiling Point": "81.6 °C",
        "Melting Point": "-124.1 °C",
        "Density": "0.6937 g/cm³ @ Temp: 20 °C"
    }
}