{
    "cas_no": "636-82-8",
    "key_name": "1-Cyclohexene-1-carboxylic acid",
    "cn_name": "环己烯甲酸;",
    "alternate_name": "1-Cyclohexene-1-carboxylic acid;1-Cyclohexenylcarboxylic acid",
    "duplicated_cas_no": "",
    "SMILES": "C(O)(=O)C=1CCCCC1",
    "meta_data": {
        "InChI": "InChI=1S/C7H10O2/c8-7(9)6-4-2-1-3-5-6/h4H,1-3,5H2,(H,8,9)",
        "InChIKey": null,
        "Canonical SMILES": "O=C(O)C1=CCCCC1",
        "Molecular Formula": "C<sub>7</sub>H<sub>10</sub>O<sub>2</sub>",
        "Molecular Mass": "126.15",
        "Boiling Point": "241 °C",
        "Melting Point": "38 °C",
        "Density": "1.0717 g/cm³ @ Temp: 47.2 °C"
    }
}