{
    "cas_no": "403-31-6",
    "key_name": "1-(4-Fluorophenyl)-2-hydroxyethanone",
    "cn_name": null,
    "alternate_name": "Ethanone, 1-(4-fluorophenyl)-2-hydroxy-;1-(4-Fluorophenyl)-2-hydroxyethanone;<em>p</em>-Fluorophenacyl alcohol;2-Hydroxy-1-(4-fluorophenyl)ethanone;4′-Fluoro-α-hydroxyacetophenone;4-Fluoro-α-hydroxyacetophenone;1-(4-Fluorophenyl)-2-hydroxyethan-1-one",
    "duplicated_cas_no": "",
    "SMILES": "C(CO)(=O)C1=CC=C(F)C=C1",
    "meta_data": {
        "InChI": "InChI=1S/C8H7FO2/c9-7-3-1-6(2-4-7)8(11)5-10/h1-4,10H,5H2",
        "InChIKey": null,
        "Canonical SMILES": "O=C(C1=CC=C(F)C=C1)CO",
        "Molecular Formula": "C<sub>8</sub>H<sub>7</sub>FO<sub>2</sub>",
        "Molecular Mass": "154.14",
        "Melting Point": "114 °C"
    }
}