{
    "cas_no": "26761-40-0",
    "key_name": "Diisodecyl phthalate",
    "cn_name": "邻苯二甲酸二异癸酯;1,2-苯二甲酸二异癸酯;",
    "alternate_name": "1,2-Benzenedicarboxylic acid, 1,2-diisodecyl ester;Phthalic acid, diisodecyl ester;1,2-Benzenedicarboxylic acid, diisodecyl ester;Isodecyl alcohol, phthalate (2:1);PX 120;Diisodecyl phthalate;Sicol 184;Bis(isodecyl) phthalate;Palatinol Z;Vestinol DZ;DIDP;Isodecyl phthalate;Plasthall DIDP;Hexaplas DIDP;Jayflex DIDP;Reomol DiDP;Sansocizer DIDP;Emkarate 1020;Palatinol DIDP",
    "duplicated_cas_no": "105009-98-1;1341-39-5;148384-02-5",
    "SMILES": "",
    "meta_data": {
        "InChI": "",
        "InChIKey": null,
        "Canonical SMILES": "",
        "Molecular Formula": "C<sub>28</sub>H<sub>46</sub>O<sub>4</sub>",
        "Molecular Mass": "",
        "Boiling Point": "250-257 °C @ Press: 4 Torr",
        "Melting Point": "-50 °C",
        "Density": "0.966 g/cm³ @ Temp: 20 °C"
    }
}