{
    "cas_no": "56803-37-3",
    "key_name": "Phosphoric acid, (1,1-dimethylethyl)phenyl diphenyl ester",
    "cn_name": null,
    "alternate_name": "Phosphoric acid, (1,1-dimethylethyl)phenyl diphenyl ester;<em>tert</em>-Butylphenyl diphenyl phosphate;Diphenyl <em>tert</em>-butylphenyl phosphate;BPDP",
    "duplicated_cas_no": "",
    "SMILES": "",
    "meta_data": {
        "InChI": "",
        "InChIKey": null,
        "Canonical SMILES": "",
        "Molecular Formula": "C<sub>22</sub>H<sub>23</sub>O<sub>4</sub>P",
        "Molecular Mass": "",
        "Boiling Point": "261 °C @ Press: 6 Torr",
        "Density": "1.180 g/cm³ @ Temp: 25 °C"
    }
}