{
    "cas_no": "64501-87-7",
    "key_name": "<span class=\"text-smallcaps\">L</span>-Phenylalanine, <em>N</em>-[(4-nitrophenyl)sulfonyl]-",
    "cn_name": "N-(4-硝基苯基亚磺酰基)-L-苯丙氨酸;",
    "alternate_name": "<span class=\"text-smallcaps\">L</span>-Phenylalanine, <em>N</em>-[(4-nitrophenyl)sulfonyl]-;<em>N</em>-(4-Nitrophenylsulfonyl)-<span class=\"text-smallcaps\">L</span>-phenylalanine;(<em>S</em>)-2-(4-Nitrophenylsulfonamido)-3-phenylpropanoic acid;[(4-Nitrophenyl)sulfonyl]-<span class=\"text-smallcaps\">L</span>-phenylalanine",
    "duplicated_cas_no": "",
    "SMILES": "S(N[C@@H](CC1=CC=CC=C1)C(O)=O)(=O)(=O)C2=CC=C(N(=O)=O)C=C2",
    "meta_data": {
        "InChI": "InChI=1S/C15H14N2O6S/c18-15(19)14(10-11-4-2-1-3-5-11)16-24(22,23)13-8-6-12(7-9-13)17(20)21/h1-9,14,16H,10H2,(H,18,19)/t14-/m0/s1",
        "InChIKey": null,
        "Canonical SMILES": "O=C(O)C(NS(=O)(=O)C1=CC=C(C=C1)N(=O)=O)CC=2C=CC=CC2",
        "Molecular Formula": "C<sub>15</sub>H<sub>14</sub>N<sub>2</sub>O<sub>6</sub>S",
        "Molecular Mass": "350.35",
        "Melting Point": "163-165 °C"
    }
}