{
    "cas_no": "1211443-58-1",
    "key_name": "2-Chloro-7-cyclopentyl-7<em>H</em>-pyrrolo[2,3-<em>d</em>]pyrimidine-6-carboxylic acid",
    "cn_name": null,
    "alternate_name": "7<em>H</em>-Pyrrolo[2,3-<em>d</em>]pyrimidine-6-carboxylic acid, 2-chloro-7-cyclopentyl-;2-Chloro-7-cyclopentyl-7<em>H</em>-pyrrolo[2,3-<em>d</em>]pyrimidine-6-carboxylic acid",
    "duplicated_cas_no": "",
    "SMILES": "C(O)(=O)C=1N(C=2C(C1)=CN=C(Cl)N2)C3CCCC3",
    "meta_data": {
        "InChI": "InChI=1S/C12H12ClN3O2/c13-12-14-6-7-5-9(11(17)18)16(10(7)15-12)8-3-1-2-4-8/h5-6,8H,1-4H2,(H,17,18)",
        "InChIKey": null,
        "Canonical SMILES": "O=C(O)C1=CC=2C=NC(Cl)=NC2N1C3CCCC3",
        "Molecular Formula": "C<sub>12</sub>H<sub>12</sub>ClN<sub>3</sub>O<sub>2</sub>",
        "Molecular Mass": "265.70",
        "Melting Point": "223-225 °C"
    }
}