{
    "cas_no": "13064-83-0",
    "key_name": "<em>trans</em>-4-Methylcyclohexanecarboxylic acid",
    "cn_name": null,
    "alternate_name": "Cyclohexanecarboxylic acid, 4-methyl-, <em>trans</em>-;<em>trans</em>-4-Methylcyclohexanecarboxylic acid;<em>trans</em>-4-Methylcyclohexane-1-carboxylic acid;<em>trans</em>-4-Methylcyclohexanoic acid;<em>trans</em>-4-Methylcyclohexylcarboxylic acid",
    "duplicated_cas_no": "",
    "SMILES": "C(O)(=O)[C@H]1CC[C@H](C)CC1",
    "meta_data": {
        "InChI": "InChI=1/C8H14O2/c1-6-2-4-7(5-3-6)8(9)10/h6-7H,2-5H2,1H3,(H,9,10)/t6-,7-",
        "InChIKey": null,
        "Canonical SMILES": "O=C(O)C1CCC(C)CC1",
        "Molecular Formula": "C<sub>8</sub>H<sub>14</sub>O<sub>2</sub>",
        "Molecular Mass": "142.20",
        "Boiling Point": "133-134 °C @ Press: 20.4 Torr",
        "Melting Point": "112 °C"
    }
}