{
    "cas_no": "10124-37-5",
    "key_name": "Calcium nitrate",
    "cn_name": "硝酸钙;",
    "alternate_name": "Nitric acid, calcium salt (2:1);Nitric acid, calcium salt;Calcium nitrate;Synfat 1006;Calcium nitrate (Ca(NO<sub>3</sub>)<sub>2</sub>);Norway saltpeter;Calcium dinitrate;Norwegian saltpeter;Norge saltpeter;Nutriox",
    "duplicated_cas_no": "56532-05-9;94079-75-1;95680-75-4;260792-08-3;292135-47-8;2952711-51-0",
    "SMILES": "N(=O)(=O)O.[Ca]",
    "meta_data": {
        "InChI": "InChI=1S/Ca.HNO3/c;2-1(3)4/h;(H,2,3,4)",
        "InChIKey": null,
        "Canonical SMILES": "[Ca].O=N(=O)O",
        "Molecular Formula": "Ca.2HNO<sub>3</sub>",
        "Molecular Mass": "",
        "Melting Point": "~560 °C (approx)",
        "Density": "2.5 g/cm³ @ Temp: 25 °C"
    }
}