{
    "cas_no": "10102-68-8",
    "key_name": "Calcium iodide",
    "cn_name": "碘化钙;",
    "alternate_name": "Calcium iodide (CaI<sub>2</sub>);Calcium iodide;Yokaron;Calcium diiodide",
    "duplicated_cas_no": "",
    "SMILES": "[Ca](I)I",
    "meta_data": {
        "InChI": "InChI=1S/Ca.2HI/h;2*1H/q+2;;/p-2",
        "InChIKey": null,
        "Canonical SMILES": "I[Ca]I",
        "Molecular Formula": "CaI<sub>2</sub>",
        "Molecular Mass": "",
        "Boiling Point": "1100 °C",
        "Melting Point": "740 °C"
    }
}