{
    "cas_no": "30389-18-5",
    "key_name": "1-Ethynylcyclohexylamine",
    "cn_name": "1-乙炔基环己基胺;1-乙基环己胺;",
    "alternate_name": "Cyclohexanamine, 1-ethynyl-;Cyclohexylamine, 1-ethynyl-;1-Ethynylcyclohexanamine;1-Amino-1-ethynylcyclohexane;1-Ethynylcyclohexylamine;1-Ethynyl-1-aminocyclohexane;1-Ethynylcyclohexan-1-amine",
    "duplicated_cas_no": "",
    "SMILES": "C(#C)C1(N)CCCCC1",
    "meta_data": {
        "InChI": "InChI=1S/C8H13N/c1-2-8(9)6-4-3-5-7-8/h1H,3-7,9H2",
        "InChIKey": null,
        "Canonical SMILES": "C#CC1(N)CCCCC1",
        "Molecular Formula": "C<sub>8</sub>H<sub>13</sub>N",
        "Molecular Mass": "123.20",
        "Boiling Point": "65-66 °C @ Press: 20 Torr",
        "Density": "0.913 g/cm³ @ Temp: 25 °C"
    }
}