{
    "cas_no": "325-14-4",
    "key_name": "7-(Trifluoromethyl)quinoline",
    "cn_name": "7-三氟甲基喹啉;",
    "alternate_name": "Quinoline, 7-(trifluoromethyl)-;7-(Trifluoromethyl)quinoline",
    "duplicated_cas_no": "",
    "SMILES": "C(F)(F)(F)C1=CC2=C(C=C1)C=CC=N2",
    "meta_data": {
        "InChI": "InChI=1S/C10H6F3N/c11-10(12,13)8-4-3-7-2-1-5-14-9(7)6-8/h1-6H",
        "InChIKey": null,
        "Canonical SMILES": "FC(F)(F)C1=CC=C2C=CC=NC2=C1",
        "Molecular Formula": "C<sub>10</sub>H<sub>6</sub>F<sub>3</sub>N",
        "Molecular Mass": "197.16",
        "Boiling Point": "219-221 °C @ Press: 731 Torr",
        "Melting Point": "66-68 °C"
    }
}