{
    "cas_no": "1066-37-1",
    "key_name": "Germane, bromotrimethyl-",
    "cn_name": "三甲基溴化锗;",
    "alternate_name": "Germane, bromotrimethyl-;Trimethylgermanium bromide;Trimethyl germyl bromide;Bromotrimethylgermane;Trimethylbromogermane",
    "duplicated_cas_no": "",
    "SMILES": "[Ge](Br)(C)(C)C",
    "meta_data": {
        "InChI": "InChI=1S/C3H9BrGe/c1-5(2,3)4/h1-3H3",
        "InChIKey": null,
        "Canonical SMILES": "Br[Ge](C)(C)C",
        "Molecular Formula": "C<sub>3</sub>H<sub>9</sub>BrGe",
        "Molecular Mass": "197.65",
        "Boiling Point": "113-114 °C",
        "Melting Point": "-25 °C",
        "Density": "1.549 g/cm³"
    }
}