{
    "cas_no": "4207-56-1",
    "key_name": "Benzenaminium, <em>N</em>,<em>N</em>,<em>N</em>-trimethyl-, (tribromide) (1:1)",
    "cn_name": "苯基三甲基三溴化铵;",
    "alternate_name": "Benzenaminium, <em>N</em>,<em>N</em>,<em>N</em>-trimethyl-, (tribromide) (1:1);Ammonium, trimethylphenyl-, (tribromide);Benzenaminium, <em>N</em>,<em>N</em>,<em>N</em>-trimethyl-, (tribromide);Trimethylphenylammonium tribromide;Bromide (Br<sub>3</sub><sup>1-</sup>), <em>N</em>,<em>N</em>,<em>N</em>-trimethylbenzenaminium;Jacques reagent;Phenyltrimethylammonium tribromide;Phenyltrimethylammonium perbromide;Trimethylphenylammonium perbromide;NSC 138640;NSC 173340;NSC 87897",
    "duplicated_cas_no": "40379-10-0",
    "SMILES": "[Br-](Br)Br.[N+](C)(C)(C)C1=CC=CC=C1",
    "meta_data": {
        "InChI": "InChI=1S/C9H14N.Br3/c1-10(2,3)9-7-5-4-6-8-9;1-3-2/h4-8H,1-3H3;/q+1;-1",
        "InChIKey": null,
        "Canonical SMILES": "Br[Br-]Br.C=1C=CC(=CC1)[N+](C)(C)C",
        "Molecular Formula": "C<sub>9</sub>H<sub>14</sub>N.Br<sub>3</sub>",
        "Molecular Mass": "",
        "Melting Point": "113-115 °C"
    }
}