{
    "cas_no": "3516-95-8",
    "key_name": "2′-Hydroxydihydrochalcone",
    "cn_name": "2\"-羟基-3-苯基苯丙酮;",
    "alternate_name": "1-Propanone, 1-(2-hydroxyphenyl)-3-phenyl-;Propiophenone, 2′-hydroxy-3-phenyl-;1-(2-Hydroxyphenyl)-3-phenyl-1-propanone;1-(<em>o</em>-Hydroxyphenyl)-3-phenylpropanone-1;2′-Hydroxydihydrochalcone;2-Hydroxy-β-phenylpropiophenone;β-Phenyl-2-hydroxypropiophenone;2′-Hydroxy-3-phenylpropiophenone;1-(2-Hydroxyphenyl)-3-phenylpropan-1-one",
    "duplicated_cas_no": "",
    "SMILES": "C(CCC1=CC=CC=C1)(=O)C2=C(O)C=CC=C2",
    "meta_data": {
        "InChI": "InChI=1S/C15H14O2/c16-14-9-5-4-8-13(14)15(17)11-10-12-6-2-1-3-7-12/h1-9,16H,10-11H2",
        "InChIKey": null,
        "Canonical SMILES": "O=C(C=1C=CC=CC1O)CCC=2C=CC=CC2",
        "Molecular Formula": "C<sub>15</sub>H<sub>14</sub>O<sub>2</sub>",
        "Molecular Mass": "226.27",
        "Boiling Point": "162.5-163 °C @ Press: 0.5 Torr",
        "Melting Point": "32 °C"
    }
}