{
    "cas_no": "102-51-2",
    "key_name": "4-Methoxy-1,2-phenylenediamine",
    "cn_name": "4-甲氧基-1,2-苯二胺;3,4-二氨基苯甲醚;4-甲氧基邻基苯二胺;",
    "alternate_name": "1,2-Benzenediamine, 4-methoxy-;<em>o</em>-Phenylenediamine, 4-methoxy-;4-Methoxy-1,2-benzenediamine;<em>p</em>-Methoxy-<em>o</em>-phenylenediamine;3,4-Diaminoanisole;4-Methoxy-<em>o</em>-phenylenediamine;4-Methoxy-1,2-phenylenediamine;4-Methoxy-1,2-diaminobenzene;1,2-Diamino-4-methoxybenzene;4-Methoxy-2-aminoaniline;2-Amino-4-methoxyaniline",
    "duplicated_cas_no": "",
    "SMILES": "O(C)C1=CC(N)=C(N)C=C1",
    "meta_data": {
        "InChI": "InChI=1S/C7H10N2O/c1-10-5-2-3-6(8)7(9)4-5/h2-4H,8-9H2,1H3",
        "InChIKey": null,
        "Canonical SMILES": "O(C1=CC=C(N)C(N)=C1)C",
        "Molecular Formula": "C<sub>7</sub>H<sub>10</sub>N<sub>2</sub>O",
        "Molecular Mass": "138.17",
        "Boiling Point": "167-170 °C @ Press: 11 Torr",
        "Melting Point": "50-52 °C"
    }
}