{
    "cas_no": "525-57-5",
    "key_name": "Harmalol",
    "cn_name": "去甲骆驼蓬碱,骆驼蓬酚;去甲骆驼蓬碱,骆驼蓬酚;",
    "alternate_name": "3<em>H</em>-Pyrido[3,4-<em>b</em>]indol-7-ol, 4,9-dihydro-1-methyl-;Harmalol;Harmidol;4,9-Dihydro-1-methyl-3<em>H</em>-pyrido[3,4-<em>b</em>]indol-7-ol;11-Hydroxyharmalan;NSC 72293;1-Methyl-3<em>H</em>,4<em>H</em>,9<em>H</em>-pyrido[3,4-<em>b</em>]indol-7-ol;1-Methyl-4,9-dihydro-3<em>H</em>-pyrido[3,4-<em>b</em>]indol-7-ol",
    "duplicated_cas_no": "1357-39-7",
    "SMILES": "CC=1C2=C(C=3C(N2)=CC(O)=CC3)CCN1",
    "meta_data": {
        "InChI": "InChI=1S/C12H12N2O/c1-7-12-10(4-5-13-7)9-3-2-8(15)6-11(9)14-12/h2-3,6,14-15H,4-5H2,1H3",
        "InChIKey": null,
        "Canonical SMILES": "OC=1C=CC2=C(C1)NC=3C(=NCCC23)C",
        "Molecular Formula": "C<sub>12</sub>H<sub>12</sub>N<sub>2</sub>O",
        "Molecular Mass": "200.24",
        "Melting Point": "211-219 °C (decomp)"
    }
}