{
    "cas_no": "74-86-2",
    "key_name": "Acetylene",
    "cn_name": "乙炔;",
    "alternate_name": "Ethyne;Acetylene;Vinylene;Ethine;Narcylen;MeSH ID: D000114",
    "duplicated_cas_no": "57113-74-3",
    "SMILES": "C#C",
    "meta_data": {
        "InChI": "InChI=1S/C2H2/c1-2/h1-2H",
        "InChIKey": null,
        "Canonical SMILES": "C#C",
        "Molecular Formula": "C<sub>2</sub>H<sub>2</sub>",
        "Molecular Mass": "26.04",
        "Boiling Point": "-84.0 °C @ Press: 760 Torr",
        "Melting Point": "-80.8 °C",
        "Density": "0.6208 g/cm³ @ Temp: -82 °C"
    }
}