{
    "cas_no": "2369-19-9",
    "key_name": "2-Fluoro-5-methylpyridine",
    "cn_name": "2-氟-5-甲基吡啶;",
    "alternate_name": "Pyridine, 2-fluoro-5-methyl-;3-Picoline, 6-fluoro-;2-Fluoro-5-methylpyridine;5-Methyl-2-fluoropyridine",
    "duplicated_cas_no": "",
    "SMILES": "CC=1C=CC(F)=NC1",
    "meta_data": {
        "InChI": "InChI=1S/C6H6FN/c1-5-2-3-6(7)8-4-5/h2-4H,1H3",
        "InChIKey": null,
        "Canonical SMILES": "FC1=NC=C(C=C1)C",
        "Molecular Formula": "C<sub>6</sub>H<sub>6</sub>FN",
        "Molecular Mass": "111.12",
        "Boiling Point": "155-156 °C @ Press: 752 Torr"
    }
}