{
    "cas_no": "3028-88-4",
    "key_name": "Octyl phosphite",
    "cn_name": "磷酸三辛酯(混合物);磷酸三辛酯(混合物);",
    "alternate_name": "Phosphorous acid, trioctyl ester;Octyl phosphite ((C<sub>8</sub>H<sub>17</sub>O)<sub>3</sub>P);Octyl phosphite;Trioctyl phosphite;Tri-<em>n</em>-octyl phosphite;Chelex O;NSC 97316",
    "duplicated_cas_no": "",
    "SMILES": "P(OCCCCCCCC)(OCCCCCCCC)OCCCCCCCC",
    "meta_data": {
        "InChI": "InChI=1S/C24H51O3P/c1-4-7-10-13-16-19-22-25-28(26-23-20-17-14-11-8-5-2)27-24-21-18-15-12-9-6-3/h4-24H2,1-3H3",
        "InChIKey": null,
        "Canonical SMILES": "O(P(OCCCCCCCC)OCCCCCCCC)CCCCCCCC",
        "Molecular Formula": "C<sub>24</sub>H<sub>51</sub>O<sub>3</sub>P",
        "Molecular Mass": "418.63",
        "Boiling Point": "212-214 °C @ Press: 2 Torr"
    }
}