{
    "cas_no": "15648-86-9",
    "key_name": "Myricetin 3-<em>O</em>-galactoside",
    "cn_name": null,
    "alternate_name": "4<em>H</em>-1-Benzopyran-4-one, 3-(β-<span class=\"text-smallcaps\">D</span>-galactopyranosyloxy)-5,7-dihydroxy-2-(3,4,5-trihydroxyphenyl)-;Flavone, 3,3′,4′,5,5′,7-hexahydroxy-, 3-β-<span class=\"text-smallcaps\">D</span>-galactopyranoside;Galactopyranoside, 5,7-dihydroxy-4-oxo-2-(3,4,5-trihydroxyphenyl)-4<em>H</em>-1-benzopyran-3-yl, β-<span class=\"text-smallcaps\">D</span>-;3-(β-<span class=\"text-smallcaps\">D</span>-Galactopyranosyloxy)-5,7-dihydroxy-2-(3,4,5-trihydroxyphenyl)-4<em>H</em>-1-benzopyran-4-one;Myricetin 3-β-<span class=\"text-smallcaps\">D</span>-galactoside;Myricetin 3-galactoside;Myricetin 3-<em>O</em>-β-<span class=\"text-smallcaps\">D</span>-galactoside;Myricetin 3-<em>O</em>-β-<span class=\"text-smallcaps\">D</span>-galactopyranoside;Myricetin 3-<em>O</em>-galactoside;3,3′,4′,5,5′,7-Hexahydroxyflavone 3-β-<span class=\"text-smallcaps\">D</span>-galactopyranoside;Myricetin 3-<em>O</em>-β-galactopyranoside;Myricetin 3-<em>O</em>-galactopyranoside;Gmelinoside I;Gmelinoside I (Limonium gmelinii)",
    "duplicated_cas_no": "28454-80-0;39049-12-2;51447-85-9;354817-05-3",
    "SMILES": "O(C1=C(OC=2C(C1=O)=C(O)C=C(O)C2)C3=CC(O)=C(O)C(O)=C3)[C@@H]4O[C@H](CO)[C@H](O)[C@H](O)[C@H]4O",
    "meta_data": {
        "InChI": "InChI=1S/C21H20O13/c22-5-12-15(28)17(30)18(31)21(33-12)34-20-16(29)13-8(24)3-7(23)4-11(13)32-19(20)6-1-9(25)14(27)10(26)2-6/h1-4,12,15,17-18,21-28,30-31H,5H2/t12-,15+,17+,18-,21+/m1/s1",
        "InChIKey": null,
        "Canonical SMILES": "O=C1C(OC2OC(CO)C(O)C(O)C2O)=C(OC=3C=C(O)C=C(O)C13)C=4C=C(O)C(O)=C(O)C4",
        "Molecular Formula": "C<sub>21</sub>H<sub>20</sub>O<sub>13</sub>",
        "Molecular Mass": "480.38",
        "Melting Point": "196-198 °C"
    }
}