{
    "cas_no": "1571-33-1",
    "key_name": "Phenylphosphonic acid",
    "cn_name": "苯膦酸;苯基膦酸;",
    "alternate_name": "Phosphonic acid, <em>P</em>-phenyl-;Phosphonic acid, phenyl-;<em>P</em>-Phenylphosphonic acid;Benzenephosphonic acid;Phenylphosphonic acid;Dihydrogen phenylphosphonate;NSC 145;PPA;Phenyl-1-phosphonic acid",
    "duplicated_cas_no": "",
    "SMILES": "P(=O)(O)(O)C1=CC=CC=C1",
    "meta_data": {
        "InChI": "InChI=1S/C6H7O3P/c7-10(8,9)6-4-2-1-3-5-6/h1-5H,(H2,7,8,9)",
        "InChIKey": null,
        "Canonical SMILES": "O=P(O)(O)C=1C=CC=CC1",
        "Molecular Formula": "C<sub>6</sub>H<sub>7</sub>O<sub>3</sub>P",
        "Molecular Mass": "158.09",
        "Melting Point": "163-166 °C"
    }
}