{
    "cas_no": "684-78-6",
    "key_name": "(2,2,2-Trifluoroacetyl)azanyl 2,2,2-trifluoroacetate",
    "cn_name": null,
    "alternate_name": "Acetic acid, 2,2,2-trifluoro-, (2,2,2-trifluoroacetyl)azanyl ester;Hydroxylamine, <em>N</em>,<em>O</em>-bis(trifluoroacetyl)-;Acetamide, 2,2,2-trifluoro-<em>N</em>-[(trifluoroacetyl)oxy]-;(2,2,2-Trifluoroacetyl)azanyl 2,2,2-trifluoroacetate;<em>N</em>,<em>O</em>-Bis(trifluoroacetyl)hydroxylamine;[(2,2,2-Trifluoroacetyl)amino] 2,2,2-trifluoroacetate;2,2,2-Trifluoro-<em>N</em>-(2,2,2-trifluoroacetoxy)acetamide",
    "duplicated_cas_no": "",
    "SMILES": "C(C(F)(F)F)(NOC(C(F)(F)F)=O)=O",
    "meta_data": {
        "InChI": "InChI=1S/C4HF6NO3/c5-3(6,7)1(12)11-14-2(13)4(8,9)10/h(H,11,12)",
        "InChIKey": null,
        "Canonical SMILES": "O=C(ONC(=O)C(F)(F)F)C(F)(F)F",
        "Molecular Formula": "C<sub>4</sub>HF<sub>6</sub>NO<sub>3</sub>",
        "Molecular Mass": "225.05",
        "Melting Point": "62 °C (sublm)"
    }
}