{
    "cas_no": "6640-27-3",
    "key_name": "2-Chloro-4-methylphenol",
    "cn_name": "2-氯-4-甲基苯酚;",
    "alternate_name": "Phenol, 2-chloro-4-methyl-;<em>p</em>-Cresol, 2-chloro-;2-Chloro-4-methylphenol;2-Chloro-<em>p</em>-cresol;3-Chloro-4-hydroxytoluene;NSC 48848",
    "duplicated_cas_no": "",
    "SMILES": "ClC1=C(O)C=CC(C)=C1",
    "meta_data": {
        "InChI": "InChI=1S/C7H7ClO/c1-5-2-3-7(9)6(8)4-5/h2-4,9H,1H3",
        "InChIKey": null,
        "Canonical SMILES": "ClC1=CC(=CC=C1O)C",
        "Molecular Formula": "C<sub>7</sub>H<sub>7</sub>ClO",
        "Molecular Mass": "142.58",
        "Boiling Point": "195.5 °C",
        "Melting Point": "193-195 °C"
    }
}