{
    "cas_no": "2577-90-4",
    "key_name": "<span class=\"text-smallcaps\">L</span>-Phenylalanine, methyl ester",
    "cn_name": null,
    "alternate_name": "<span class=\"text-smallcaps\">L</span>-Phenylalanine, methyl ester;Alanine, phenyl-, methyl ester, <span class=\"text-smallcaps\">L</span>-;Phenylalanine methyl ester;<span class=\"text-smallcaps\">L</span>-β-Phenyl-α-alanine methyl ester;(+)-<span class=\"text-smallcaps\">L</span>-Phenylalanine methyl ester;Methyl phenylalaninate;Methyl <span class=\"text-smallcaps\">L</span>-phenylalaninate;(<em>S</em>)-Phenylalanine methyl ester;Methyl (<em>S</em>)-phenylalaninate;<em>O</em>-Methyl-<span class=\"text-smallcaps\">L</span>-phenylalanine;(<em>S</em>)-Methyl 2-amino-3-phenylpropanoate;Methyl <span class=\"text-smallcaps\">L</span>-2-amino-3-phenylpropanoate;Methyl 2-amino-3-phenylpropanoate;(<em>S</em>)-2-Amino-3-phenylpropionic acid methyl ester;<span class=\"text-smallcaps\">L</span>-Phenylalanine methyl ester;Methyl (2S)-2-amino-3-phenylpropanoate",
    "duplicated_cas_no": "24425-77-2;117536-20-6;688007-83-2;1310449-33-2",
    "SMILES": "C([C@@H](C(OC)=O)N)C1=CC=CC=C1",
    "meta_data": {
        "InChI": "InChI=1S/C10H13NO2/c1-13-10(12)9(11)7-8-5-3-2-4-6-8/h2-6,9H,7,11H2,1H3/t9-/m0/s1",
        "InChIKey": null,
        "Canonical SMILES": "O=C(OC)C(N)CC=1C=CC=CC1",
        "Molecular Formula": "C<sub>10</sub>H<sub>13</sub>NO<sub>2</sub>",
        "Molecular Mass": "179.22",
        "Boiling Point": "84 °C @ Press: 0.25 Torr",
        "Melting Point": "131-133 °C"
    }
}