{
    "cas_no": "90580-64-6",
    "key_name": "<em>p</em>-Boronophenylalanine",
    "cn_name": "2-氨基-3-[4-(二羟基硼基)苯基]丙酸;",
    "alternate_name": "Phenylalanine, 4-borono-;Alanine, 3-(<em>p</em>-boronophenyl)-;4-Boronophenylalanine;<em>p</em>-Boronophenylalanine;<span class=\"text-smallcaps\">DL</span>-<em>p</em>-Boronophenylalanine;(±)-<em>p</em>-Boronophenylalanine;2-Amino-3-[4-(dihydroxyboranyl)phenyl]propanoic acid",
    "duplicated_cas_no": "77374-29-9",
    "SMILES": "C(C(C(O)=O)N)C1=CC=C(B(O)O)C=C1",
    "meta_data": {
        "InChI": "InChI=1S/C9H12BNO4/c11-8(9(12)13)5-6-1-3-7(4-2-6)10(14)15/h1-4,8,14-15H,5,11H2,(H,12,13)",
        "InChIKey": null,
        "Canonical SMILES": "O=C(O)C(N)CC1=CC=C(C=C1)B(O)O",
        "Molecular Formula": "C<sub>9</sub>H<sub>12</sub>BNO<sub>4</sub>",
        "Molecular Mass": "209.01",
        "Melting Point": "285-290 °C (decomp)"
    }
}