{
    "cas_no": "2417-77-8",
    "key_name": "9-(Bromomethyl)anthracene",
    "cn_name": null,
    "alternate_name": "Anthracene, 9-(bromomethyl)-;9-(Bromomethyl)anthracene",
    "duplicated_cas_no": "135195-16-3;2919976-07-9",
    "SMILES": "C(Br)C=1C2=C(C=C3C1C=CC=C3)C=CC=C2",
    "meta_data": {
        "InChI": "InChI=1S/C15H11Br/c16-10-15-13-7-3-1-5-11(13)9-12-6-2-4-8-14(12)15/h1-9H,10H2",
        "InChIKey": null,
        "Canonical SMILES": "BrCC=1C=2C=CC=CC2C=C3C=CC=CC31",
        "Molecular Formula": "C<sub>15</sub>H<sub>11</sub>Br",
        "Molecular Mass": "271.15",
        "Melting Point": "136-136.5 °C"
    }
}