{
    "cas_no": "25608-40-6",
    "key_name": "Poly(<span class=\"text-smallcaps\">L</span>-aspartic acid)",
    "cn_name": null,
    "alternate_name": "<span class=\"text-smallcaps\">L</span>-Aspartic acid, homopolymer;Aspartic acid, <span class=\"text-smallcaps\">L</span>-, peptides;Poly(β-<span class=\"text-smallcaps\">L</span>-aspartic acid);Poly(aspartic acid);<span class=\"text-smallcaps\">L</span>-Aspartic acid polymer;α,β-Poly(<span class=\"text-smallcaps\">L</span>-aspartic acid);Poly(<span class=\"text-smallcaps\">L</span>-aspartic acid);Poly-β-aspartic acid;Poly(<span class=\"text-smallcaps\">L</span>-α-aspartate);Poly-<span class=\"text-smallcaps\">L</span>-aspartate;Aspartic acid homopolymer;Carpramid;Amisorb;SAP 73;<span class=\"text-smallcaps\">L</span>-Asparaginic acid homopolymer;S 12-21;Polyaspartic acid;GLN 1100",
    "duplicated_cas_no": "26834-87-7;90819-17-3;155436-59-2;155436-61-6;155436-63-8;155436-65-0;181119-34-6;221628-95-1;1236300-18-7;1393950-57-6;1436923-03-3;2197132-19-5",
    "SMILES": "[C@H](CC(O)=O)(C(O)=O)N",
    "meta_data": {
        "InChI": "InChI=1S/C4H7NO4/c5-2(4(8)9)1-3(6)7/h2H,1,5H2,(H,6,7)(H,8,9)/t2-/m0/s1",
        "InChIKey": null,
        "Canonical SMILES": "O=C(O)CC(N)C(=O)O",
        "Molecular Formula": "(C<sub>4</sub>H<sub>7</sub>NO<sub>4</sub>)<sub>x</sub>",
        "Molecular Mass": "",
        "Melting Point": "140 °C (decomp)"
    }
}