{
    "cas_no": "29973-13-5",
    "key_name": "Ethiofencarb",
    "cn_name": "乙硫苯威;乙硫苯威;乙硫甲威;乙硫甲威颗粒剂;除蚜威;蔬蚜威;2-[(乙硫基)甲基]苯基甲基氨基甲酸酯;2-(乙硫甲;",
    "alternate_name": "Phenol, 2-[(ethylthio)methyl]-, 1-(<em>N</em>-methylcarbamate);Carbamic acid, methyl-, α-(ethylthio)-<em>o</em>-tolyl ester;Phenol, 2-[(ethylthio)methyl]-, methylcarbamate;<em>o</em>-Cresol, α-(ethylthio)-, methylcarbamate;Croneton;BAY-HOX 1901;Ethiofencarb;HOX 1901;α-(Ethylthio)-<em>o</em>-tolyl methylcarbamate;2-[(Ethylthio)methyl]phenyl methylcarbamate;Chox 1901;Arylmate;Croneton 500;2-Ethylthiomethyl-phenyl <em>N</em>-methyl-carbamate",
    "duplicated_cas_no": "56729-20-5;56730-58-6",
    "SMILES": "C(SCC)C1=C(OC(NC)=O)C=CC=C1",
    "meta_data": {
        "InChI": "InChI=1S/C11H15NO2S/c1-3-15-8-9-6-4-5-7-10(9)14-11(13)12-2/h4-7H,3,8H2,1-2H3,(H,12,13)",
        "InChIKey": null,
        "Canonical SMILES": "O=C(OC=1C=CC=CC1CSCC)NC",
        "Molecular Formula": "C<sub>11</sub>H<sub>15</sub>NO<sub>2</sub>S",
        "Molecular Mass": "225.31",
        "Melting Point": "33.4 °C",
        "Density": "1.231 g/cm³ @ Temp: 20 °C"
    }
}