{
    "cas_no": "2565-47-1",
    "key_name": "1-Methyl-2,4,6(1<em>H</em>,3<em>H</em>,5<em>H</em>)-pyrimidinetrione",
    "cn_name": null,
    "alternate_name": "2,4,6(1<em>H</em>,3<em>H</em>,5<em>H</em>)-Pyrimidinetrione, 1-methyl-;Barbituric acid, 1-methyl-;1-Methyl-2,4,6(1<em>H</em>,3<em>H</em>,5<em>H</em>)-pyrimidinetrione;1-Methylbarbituric acid;3-Methylbarbituric acid;<em>N</em>-Methylbarbituric acid;1-Methylpyrimidine-2,4,6(1<em>H</em>,3<em>H</em>,5<em>H</em>)-trione;NSC 81440;1-Methyl-2,4,6-trioxo-hexahydro-pyrimidine;1-Methyl-pyrimidine-2,4,6-trione;1-Methyl-1,3-diazinane-2,4,6-trione",
    "duplicated_cas_no": "13110-27-5;255865-24-8;646477-39-6;680579-56-0;828940-82-5;863970-58-5;882872-13-1;1156520-21-6;1163729-57-4;1188497-85-9;1257063-19-6;1797409-04-1",
    "SMILES": "CN1C(=O)CC(=O)NC1=O",
    "meta_data": {
        "InChI": "InChI=1S/C5H6N2O3/c1-7-4(9)2-3(8)6-5(7)10/h2H2,1H3,(H,6,8,10)",
        "InChIKey": null,
        "Canonical SMILES": "O=C1NC(=O)CC(=O)N1C",
        "Molecular Formula": "C<sub>5</sub>H<sub>6</sub>N<sub>2</sub>O<sub>3</sub>",
        "Molecular Mass": "142.11",
        "Melting Point": "132 °C"
    }
}