{
    "cas_no": "918-02-5",
    "key_name": "<em>N</em>,<em>N</em>,2-Trimethyl-2-propanamine",
    "cn_name": "叔丁基二甲胺;",
    "alternate_name": "2-Propanamine, <em>N</em>,<em>N</em>,2-trimethyl-;Ethylamine, <em>N</em>,<em>N</em>,1,1-tetramethyl-;<em>N</em>,<em>N</em>,2-Trimethyl-2-propanamine;Dimethyl-<em>tert</em>-butylamine;<em>N</em>,<em>N</em>-Dimethyl-<em>tert</em>-butylamine;<em>tert</em>-Butyldimethylamine",
    "duplicated_cas_no": "",
    "SMILES": "C(N(C)C)(C)(C)C",
    "meta_data": {
        "InChI": "InChI=1S/C6H15N/c1-6(2,3)7(4)5/h1-5H3",
        "InChIKey": null,
        "Canonical SMILES": "N(C)(C)C(C)(C)C",
        "Molecular Formula": "C<sub>6</sub>H<sub>15</sub>N",
        "Molecular Mass": "101.19",
        "Boiling Point": "102-103 °C",
        "Melting Point": "282-283 °C (decomp)",
        "Density": "0.735 g/cm³ @ Temp: 25 °C"
    }
}