{
    "cas_no": "5337-09-7",
    "key_name": "Methyl 2-bromo-3-nitrobenzoate",
    "cn_name": "2-溴-3-硝基苯甲酸甲酯;",
    "alternate_name": "Benzoic acid, 2-bromo-3-nitro-, methyl ester;Methyl 2-bromo-3-nitrobenzoate;2-Bromo-3-nitrobenzoic acid methyl ester;NSC 10344;NSC 409",
    "duplicated_cas_no": "",
    "SMILES": "C(OC)(=O)C1=C(Br)C(N(=O)=O)=CC=C1",
    "meta_data": {
        "InChI": "InChI=1S/C8H6BrNO4/c1-14-8(11)5-3-2-4-6(7(5)9)10(12)13/h2-4H,1H3",
        "InChIKey": null,
        "Canonical SMILES": "O=C(OC)C1=CC=CC(=C1Br)N(=O)=O",
        "Molecular Formula": "C<sub>8</sub>H<sub>6</sub>BrNO<sub>4</sub>",
        "Molecular Mass": "260.04",
        "Melting Point": "77 °C"
    }
}