{
    "cas_no": "2316-26-9",
    "key_name": "3′,4′-Dimethoxycinnamic acid",
    "cn_name": "3,4-二甲氧基肉桂酸;3,4-二甲氧基苯丙烯酸;",
    "alternate_name": "2-Propenoic acid, 3-(3,4-dimethoxyphenyl)-;Cinnamic acid, 3,4-dimethoxy-;3-(3,4-Dimethoxyphenyl)-2-propenoic acid;3,4-Dimethoxycinnamic acid;Caffeic acid dimethyl ether;3,4-Dimethoxyphenyl-2-propenoic acid;Methylferulic acid;<em>O</em>,<em>O</em>-Dimethylcaffeic acid;<em>O</em>-Methylferulic acid;3,4-Di-<em>O</em>-methylcaffeic acid;3′,4′-Dimethoxycinnamic acid;NSC 4323;NSC 43569;3-(3,4-Dimethoxyphenyl)acrylic acid",
    "duplicated_cas_no": "",
    "SMILES": "O(C)C1=C(OC)C=CC(C=CC(O)=O)=C1",
    "meta_data": {
        "InChI": "InChI=1S/C11H12O4/c1-14-9-5-3-8(4-6-11(12)13)7-10(9)15-2/h3-7H,1-2H3,(H,12,13)",
        "InChIKey": null,
        "Canonical SMILES": "O=C(O)C=CC1=CC=C(OC)C(OC)=C1",
        "Molecular Formula": "C<sub>11</sub>H<sub>12</sub>O<sub>4</sub>",
        "Molecular Mass": "208.21",
        "Melting Point": "181-183 °C"
    }
}