{
    "cas_no": "98769-84-7",
    "key_name": "Reboxetine mesylate",
    "cn_name": "瑞波西汀甲磺酸盐;2-[(2-乙氧基苯氧基)苯甲基]吗啉甲磺酸盐;",
    "alternate_name": "Morpholine, 2-[(<em>R</em>)-(2-ethoxyphenoxy)phenylmethyl]-, (2<em>R</em>)-<em>rel</em>-, methanesulfonate (1:1);Morpholine, 2-[(2-ethoxyphenoxy)phenylmethyl]-, (<em>R</em>*,<em>R</em>*)-(±)-, methanesulfonate;Morpholine, 2-[(<em>R</em>)-(2-ethoxyphenoxy)phenylmethyl]-, (2<em>R</em>)-<em>rel</em>-, methanesulfonate;FCE 20124;Reboxetine mesylate;PNU 155950E;Edronax;Davedax;PNU 155905E;(±) Reboxetine mesylate;Reboxetine mesilate",
    "duplicated_cas_no": "98769-82-5;141425-90-3",
    "SMILES": "[C@@H](OC1=C(OCC)C=CC=C1)(C2=CC=CC=C2)[C@]3(CNCCO3)[H].S(C)(=O)(=O)O",
    "meta_data": {
        "InChI": "InChI=1/C19H23NO3.CH4O3S/c1-2-21-16-10-6-7-11-17(16)23-19(15-8-4-3-5-9-15)18-14-20-12-13-22-18;1-5(2,3)4/h3-11,18-20H,2,12-14H2,1H3;1H3,(H,2,3,4)/t18-,19-;/s2",
        "InChIKey": null,
        "Canonical SMILES": "O=S(=O)(O)C.O(C=1C=CC=CC1OC(C=2C=CC=CC2)C3OCCNC3)CC",
        "Molecular Formula": "C<sub>19</sub>H<sub>23</sub>NO<sub>3</sub>.CH<sub>4</sub>O<sub>3</sub>S",
        "Molecular Mass": "",
        "Melting Point": "148.4-149.1 °C"
    }
}