{
    "cas_no": "9004-62-0",
    "key_name": "Hydroxyethyl cellulose",
    "cn_name": null,
    "alternate_name": "Cellulose, 2-hydroxyethyl ether;Cellulose hydroxyethylate;Natrosol;Cellosize WP 4400;Natrosol 250HR;Tylose H 300;Glutofix 600;Cellosize QP 4400;Cellulose hydroxyethyl ether;Natrosol 250HX;2-Hydroxyethyl cellulose;Hydroxyethyl cellulose ether;Hydroxyethyl ether cellulose;Natrosol 240JR;Natrosol 250M;Natrosol 250G;2-Hydroxyethyl cellulose ether;Cellosize QP 1500;Hercules N 100;Cellosize WP 300;Natrosol 250HHR;Cellosize WP 300H;Cellosize WP 400H;Cellosize UT 40;Natrosol 300H;Cellosize WP;Natrosol 250H;Natrosol 250;Cellosize QP 10000;Cellosize QP 15000;HEC;Cellosize 4400H16;Cellosize WPO 9H17;Cellosize QP;Tylose H 20;OETs;BL 15;HEC-Al 5000;Natrosol LR;J 164;Natrosol 250HHP;Natrosol 250H4R;Natrosol 250MH;Cellosize QP 3;Natrosol 150L;Natrosol 180L;Fuji HEC-BL 20;AW 15 (polysaccharide);Cellosize QP 30000;Natrosol 250HH;AW 15;Natrosol 180HH;Natrosol 300HH;AH 15;Cellosize WP 09;Natrosol 250LR;Natrosol 250MR;Cellosize QP 300H;Cellosize;HEC-Unicel;Natrosol 250R;Cellosize QP 52000;Fuji HEC-AL 15;HEC-Unicel QP 9;Unicel QP 52000H;Unicel QP 100MH;Unicel QP 300H;Hydroxyethyl cellulose;Fuji HEC-A 5000F;Fuji HEC-AW 15F;Tylose H 300P;Cellosize QP 300;Natrosol 250L;Natrosol GXR 250;Natrosol 250HBR;Natrosol MHR;HEC-BL 15;Natrosol 150GXR;Cellosize WP 09L;Natrosol 250J;Culminal HEC 5000PR;HEC-A 5-25CF;HEC-AH 15;Natrosol 250GR;Natrosol 250MHR;Walocel HT 6.000PFV;Telhec;Natrosol 250HHW;Cellosize TJC 500;HEC-Unicel QP 09L;HEC-Unicel QP 300H;HEC-Unicel QP 30000H;SP 250;SP 407;Fuji HEC-HP;Tylose H 100000;HEC 10A;Fuji HEC-AG 15;Natrosol 250 H4BR;Natrosol MR;Cellobond 25T;Cellobond HEC 5000;Cellobond HEC 400;Cellobond HEC 15A;Cellosize WP 4400H;Fuji HEC-SY 25F;Cellosize QP 40;Cellosize QP 4400H;Cellosize DP 40;Daicel SP 500;Cellosize WP 02W1062R;Cellosize QP 5200W1930X;Cellosize QP 52000H;Cellobond 45000A;Natrosol 250HHX;Daicel SP 600;HEC-SP 200;Cellosize HEC-QP 09L;QP 100M;HEC 250H;Daicel EP 850;Glycol cellulose;Cellosize QP 100M;Cellosize QP 40L;Natrosol 250MXR;AX 15;SP 250 (cellulose);HEC-SE 750;HEC-QP 9H;Cellosize QP 15000H;SE 850K;Daicel EP 500;Natrosol MR 250;Cellosize QP 15MH;Cellosize OP 09;Natrosol HR 250;Cellosize WPO 9H;Cellosize HEC 4400;Natrosol 250LV;QP 10000;QP 30000;Tylose H 20P;HEC-Unicel QP 4400H;BL 15 (cellulose derivative);Natrosol GXR;Tylose H 10;Daicel SP 750;Culminal HEC 30000;Unicel QP 4400;Unicel QP 15000;Natrosol 250NHR;Cellosize WP 09H;HEC-SE 850;Sanhec;Tylose H 4000;HEC-AL 15;SP 200;Tylose H 30000YP;H 30000YP;HEC Daicel SE 850K;Daicel SE 850K;Tylopur H 300;Admiral 3089FS;Daicel SP 800;Fuji HEC-AX 15F;Metolose 90SEW;Natrosol 250HB;HEC-SP 400;Natrosol 99-250L-NF;HEC-QP 4400;HEC-QP 100MH;Tylomer H 200;Tylomer H 20;Daicel SP 200;Daicel SP 550;Tylose H 15000YP2;HEC Daicel SE 600;HEC Daicel SE 900;Daicel SE 600;Daicel SE 900;HEC-QP 100M;Hyetellose;Daicel SP 400;FL 52;Cellosize QP 100MH;Tylose H 6000XP;Cellosize QP 09H;Natrosol 250HHBR;Aqualon HEC;Daicel SP 850;QP 52000;AL 15;QP 300H;Natrosol 250HHXR;Natrosol HHR 250;SP 400;Cellosize HEC-QP 30000H;Cellosize HEC-QP 15000H;Cellosize HEC-QP 52000H;Natrosol 250MP;Cellosize QR 4400H;Cellosize QP 3L;Natrosol 250K;Natrosol HHXR;HEC-SP 550;Natrosol Plus 250HHX;QP 09H;QP 4400;QP 15MH;QP 30MH;Fujichemi HEC-CF-G;Tylose H 20P2;HEC-SP 900;SP 900;HEC-SP 600;Tylose H 10000YP2;SP 550;250LR;250HR;Fujichemi HEC-AX 15F;EP 850;Cellosize HEC-QP 4400H;Tylose H 10G4;HEC-QP 15000H;HEC-QP 4400H;Natrosol 250MBR;HEC 850SE;Tylose H 4000P2;HEC Daicel SP 200;SE 900;SP 500;Sulfatsell;Fujichemi HEC CF-W;Fujichemi HEC CF-V;Halad 9;Halad 23;Fujichemi HEC-SY 25;Fuji-Chem HEC-SY 25;MR 250HR;Liporamnosan;3089FS;Tylose H 4000P;HEC-SP 250;Natrosol 250JR;Fujichemi HEC-SZ 25;Natrosol 250GXR;Cellosize HEC-QP 100M;Natrasol;Cellosize PCG 10;Tylose H 15YG4;Tylose H 180YG4;Tylose H 200YG4;Natrosol HHBR 250;SX 25F;SZ 25F;Tylose H 30000YP2;Tylose H 60000YP2;CF-G;CF-W;Natrosol 250HR-CS;Tylose H 10000G4;Natrosol QP 300;QP 300;HEC 210HHW;Cellosize WP 40;WP 40;SE 400;HEC Daicel SE 400;HEC Daicel 900;HEC 600;Tylose H 100000YP;HEC-QP 300;Fujichemi HEC;HBR 250;250HBR;Admiral FPS 3089;Liqui-Vis EP;Cellosize ER 4400;HEC-SE 900;Natrosol HIVIS;Sulfatsell 2D;Cellosize H 15000YPZ;Cellosize WP 09B;HEX 250HR;SE 850;Tylose H 6000YP2;ER 30M;QP 15000H;Aqualon LR 250;Cellosize QP 09L;Natrosol HX Pharm;Tylose H 10000P2;Bermocoll E 411;HEC Daicel SP 600;H 300YP2;Natrosol 25OHX;Natrosol 259MXR;LF 15;J 164 (polysaccharide);Natrosol 250H4BXR;Natrosol LR 250;Sulfatsell 25;Daicel SE 850;Tylose H 300YP2;SE 390;Cellosize WPO 3H;HEC Daicel SP 500;Cellosize ER 15M;Sanhec H;HEC SE 600;HEC Daicel SP 900;QP 52000H;Natrosol HHX;Natrosol HEC 250HHX;Cellosize ER 15;HEC Daicel SE 500;Tylose H 4000YG4;Tylose E 60505;Natrosol 250KR;Tylose 10000P;Cellosize HEC-QP 100MH;Natrosol G;RT 6000;SH 15;AH 15L;SY 25;Tylose H 20000YP2;HEC Daicel SP 850;HEC-SP 500;HEC-SP 850;Fuji HEC-SG 25F;Tubicoat HEC;451F;HEC Daicel SE 850;Natrasol 250HHBRPA;Aldiamed;HEC SE 400;HEC SE 500;HEC-SE 550;QP 15000;HS 100000YP2;Daicel SP 900;HEC Daicel SP 550;EM 30M;Natrosol MHBR;Cellosize QH 100000;ER 52M;Natrosol 250MHBR;Natrosol L;Natrosol M;QP 100MH;250HHBR;Natrosol 250HXR;Natrosol MX 250;HEC-CF-G;QP 30000H;HEC 250HX;HEC 250M;CF-X;HEC-ER 5200;ER 5200;ER 4512;Cellosize HEC-QP 52000H3;QP 4400H;HS 30000;HS 30000YP2;Collaxim SF;Chrysoplast V 90;Cellosize WP 3000;Cellosize QP 20000;HEC CF-V;HSYP 30000R;HYSP 100000;EE 820;Natrosol 250E;Sanhec M;HEC-AX 15;Tylose H 4000G4;Natrosol AT 250;HEC 30000;Natrosol 250M Pharm;Cellosize DSC;Tylose H 27NG4;PF-VMTs;Tylose H 22P;Cellosize HEC Spatter Guard 100;Cellosize HEC 15;3000M;YLT 999;Nexton IP 5A;SP 600;EP 30M;HEC-AW 15F;Natrosol 25OHBR;Cellosize ER 30M;Cellosize 52000H;QP 09L;CZ 010;Natrosol HBR 250;P 330A;Cellosize EP 09;B 30K;HEC 250;HECSZ 25F;B 100K;Tylose H 10YG4;Tylose H;30000S;Natrasol 250;Natrosol L Pharm;HEC-AG 15F;SW 25F;Natrosol 250HHX Pharma;EBS 481PQ;HEC Daicel 850;TF 30000;Combizell DE 6000;HEC-TF 30000;Antifoam RD 10;YT 30000;Fujichemi CF-V;Natrosol HEC 250HR;Sanhec L;250MBR;HHBR 250;H 250;HS 10W;HEC CF-Y;Cellosize HEC-QP 4400;Natrosol HEC;HE 6D;TF 30000S;HEC Daicel SE 550;Daicel SE 550;SE 600;SE 550;Aqualon NP 330;NP 330;HEC 250HBR;HEC-Q 52000;AL 15F;Natrosol HEC 250MR;Walocel MKX 15000PF01;30000YP2;Cellosize HEC;Hecellose H 30K;HD 30000;Tylose HX 6000YG4;HS 30000PY2;HS 6000YP2;Tylose HS 6000YP2;HEC 6000;2500HEC;Natrosol HH;Tylose HS 30000YP2;MHS 60000YP4;MHS 60000YP2;Cellosize HEC-EP 300;Cellosize EP 300;Natrosol 250HR-PC;B 15K;ReCell HE 10MD;HEC 60000;HE 6000SE;BR 30000H;Tylose HEC;Sulfacell 150;Cellulose 893;100000YP2;C 3061;Cellosize HEC AM 103;B 30;H 10975;Natrosol HHR;Cellosize 15000H;Cellosize QP 11MH;HS 15000YP2;Natrosol Plus 3301;HEC-CF-H;Prisulon CM 70;Cellosize QP 5200H;CF-Y;Alcoramnosan;Tylose HX 6000;SK 200 (cellulose);Sk 200;Hecellose B 30K;Natrosol 250H4BR;481FQ;HS 40000;AW 15F;HM 30KH;H 15000;Tylose H 300NG4;EBS 451QF;BR 52000;Hisol 501;FW 808;HPY 50000S;Natrosol 250JR2540;QP 100;Natrosol MXR;HHR 250PC;H 810927;HEC-SZ 25F;Combizell 30011C;Natrosol 250HHRP;HD 50000;B 4K;H 4K;H 30K",
    "duplicated_cas_no": "9045-96-9;12772-61-1;53124-21-3;53124-22-4;53149-00-1;72146-24-8;81990-28-5;86168-41-4;87210-16-0;97105-13-0;142582-86-3;163648-13-3;168679-18-3;173523-80-3;189832-76-6;682809-20-7;795278-38-5;942427-43-2;950179-92-7;1029222-54-5;1239602-59-5;1421926-28-4;1422717-44-9;1613317-73-9;1984003-44-2;2284475-29-0",
    "SMILES": "",
    "meta_data": {
        "InChI": "",
        "InChIKey": null,
        "Canonical SMILES": "",
        "Molecular Formula": "C<sub>2</sub>H<sub>6</sub>O<sub>2</sub>.xUnspecified",
        "Molecular Mass": "",
        "Melting Point": "140 °C",
        "Density": "0.6 g/cm³ @ Temp: 25 °C"
    }
}