{
    "cas_no": "699-10-5",
    "key_name": "Benzyl methyl disulfide",
    "cn_name": "甲基苯甲基二硫醚;",
    "alternate_name": "Disulfide, methyl phenylmethyl;Disulfide, benzyl methyl;Methyl phenylmethyl disulfide;Methyl benzyl disulfide;Benzyl methyl disulfide;NSC 677547;[(Methyldisulfanyl)methyl]benzene",
    "duplicated_cas_no": "",
    "SMILES": "C(SSC)C1=CC=CC=C1",
    "meta_data": {
        "InChI": "InChI=1S/C8H10S2/c1-9-10-7-8-5-3-2-4-6-8/h2-6H,7H2,1H3",
        "InChIKey": null,
        "Canonical SMILES": "S(SCC=1C=CC=CC1)C",
        "Molecular Formula": "C<sub>8</sub>H<sub>10</sub>S<sub>2</sub>",
        "Molecular Mass": "170.29",
        "Boiling Point": "66 °C @ Press: 0.2 Torr"
    }
}