{
    "cas_no": "24063-71-6",
    "key_name": "Isocurcumenol",
    "cn_name": null,
    "alternate_name": "6<em>H</em>-3a,6-Epoxyazulen-6-ol, octahydro-3-methyl-8-methylene-5-(1-methylethylidene)-, (3<em>S</em>,3a<em>S</em>,6<em>R</em>,8a<em>S</em>)-;5β-Guaia-7(11),10(14)-dien-8α-ol, 5,8-epoxy-, (+)-;6<em>H</em>-3a,6-Epoxyazulen-6-ol, octahydro-3-methyl-8-methylene-5-(1-methylethylidene)-, [3<em>S</em>-(3α,3aα,6α,8aβ)]-;(3<em>S</em>,3a<em>S</em>,6<em>R</em>,8a<em>S</em>)-Octahydro-3-methyl-8-methylene-5-(1-methylethylidene)-6<em>H</em>-3a,6-epoxyazulen-6-ol;(+)-Isocurcumenol;Isocurcumenol;Isocurcumenol, (+)-",
    "duplicated_cas_no": "",
    "SMILES": "C[C@@H]1[C@@]23[C@](C(=C)C[C@@](O)(O2)C(=C(C)C)C3)(CC1)[H]",
    "meta_data": {
        "InChI": "InChI=1S/C15H22O2/c1-9(2)13-8-14-11(4)5-6-12(14)10(3)7-15(13,16)17-14/h11-12,16H,3,5-8H2,1-2,4H3/t11-,12-,14-,15+/m0/s1",
        "InChIKey": null,
        "Canonical SMILES": "OC12OC3(CC1=C(C)C)C(C(=C)C2)CCC3C",
        "Molecular Formula": "C<sub>15</sub>H<sub>22</sub>O<sub>2</sub>",
        "Molecular Mass": "234.33",
        "Melting Point": "142-143 °C"
    }
}