{
    "cas_no": "455-93-6",
    "key_name": "2-Fluoro-1-methoxy-4-nitrobenzene",
    "cn_name": "2-氟-4-硝基苯甲醚;",
    "alternate_name": "Benzene, 2-fluoro-1-methoxy-4-nitro-;Anisole, 2-fluoro-4-nitro-;2-Fluoro-1-methoxy-4-nitrobenzene;3-Fluoro-4-methoxynitrobenzene;2-Fluoro-4-nitroanisole;NSC 10335;2-Fluoro-4-nitro-methoxy-benzene",
    "duplicated_cas_no": "",
    "SMILES": "N(=O)(=O)C1=CC(F)=C(OC)C=C1",
    "meta_data": {
        "InChI": "InChI=1S/C7H6FNO3/c1-12-7-3-2-5(9(10)11)4-6(7)8/h2-4H,1H3",
        "InChIKey": null,
        "Canonical SMILES": "O=N(=O)C1=CC=C(OC)C(F)=C1",
        "Molecular Formula": "C<sub>7</sub>H<sub>6</sub>FNO<sub>3</sub>",
        "Molecular Mass": "171.13",
        "Melting Point": "104.6 °C"
    }
}