{
    "cas_no": "16728-64-6",
    "key_name": "3-(Benzyloxy)propylamine",
    "cn_name": null,
    "alternate_name": "1-Propanamine, 3-(phenylmethoxy)-;Propylamine, 3-(benzyloxy)-;3-(Phenylmethoxy)-1-propanamine;3-(Benzyloxy)propylamine;3-Aminopropyl benzyl ether;3-(Benzyloxy)propan-1-amine",
    "duplicated_cas_no": "",
    "SMILES": "C(OCCCN)C1=CC=CC=C1",
    "meta_data": {
        "InChI": "InChI=1S/C10H15NO/c11-7-4-8-12-9-10-5-2-1-3-6-10/h1-3,5-6H,4,7-9,11H2",
        "InChIKey": null,
        "Canonical SMILES": "O(CC=1C=CC=CC1)CCCN",
        "Molecular Formula": "C<sub>10</sub>H<sub>15</sub>NO",
        "Molecular Mass": "165.23",
        "Boiling Point": "103 °C @ Press: 2 Torr"
    }
}