{
    "cas_no": "2687-27-6",
    "key_name": "4,4′-[1,3-Phenylenebis(1-methylethylidene)]bis[benzenamine]",
    "cn_name": null,
    "alternate_name": "Benzenamine, 4,4′-[1,3-phenylenebis(1-methylethylidene)]bis-;Cumidine, α,α′-<em>m</em>-phenylenedi-;4,4′-[1,3-Phenylenebis(1-methylethylidene)]bis[benzenamine];1,3-Bis(<em>p</em>-aminocumyl)benzene;1,3-Bis[2-(4-aminophenyl)-2-propyl]benzene;1,3-Bis[1-(4-aminophenyl)-1-methylethyl]benzene;Bis A-M;4,4′-[1,3-Phenylenebis(1-methylethylidene)bisaniline];4,4′-(1,3-Phenylenediisopropylidene)bisaniline;4,4′-(<em>m</em>-Phenylenediisopropylidene)bisaniline;α,α′-Bis(4-aminophenyl)-1,3-diisopropylbenzene;4,4′-(1,3-Phenylenebis(propane-2,2-diyl))dianiline;Bisaniline M;4,4′-(1,3-Phenylenediisopropylidene)diphenylamine;1,3-Bis[2-(4-aminophenyl)propan-2-yl]benzene",
    "duplicated_cas_no": "",
    "SMILES": "C(C)(C)(C1=CC(C(C)(C)C2=CC=C(N)C=C2)=CC=C1)C3=CC=C(N)C=C3",
    "meta_data": {
        "InChI": "InChI=1S/C24H28N2/c1-23(2,17-8-12-21(25)13-9-17)19-6-5-7-20(16-19)24(3,4)18-10-14-22(26)15-11-18/h5-16H,25-26H2,1-4H3",
        "InChIKey": null,
        "Canonical SMILES": "NC1=CC=C(C=C1)C(C2=CC=CC(=C2)C(C3=CC=C(N)C=C3)(C)C)(C)C",
        "Molecular Formula": "C<sub>24</sub>H<sub>28</sub>N<sub>2</sub>",
        "Molecular Mass": "344.49",
        "Melting Point": "108-110 °C"
    }
}