{
    "cas_no": "13623-84-2",
    "key_name": "1,2,3,4-Tetrahydro-1,6-naphthyridine",
    "cn_name": null,
    "alternate_name": "1,6-Naphthyridine, 1,2,3,4-tetrahydro-;1,2,3,4-Tetrahydro-1,6-naphthyridine",
    "duplicated_cas_no": "",
    "SMILES": "C=12C(=CC=NC1)NCCC2",
    "meta_data": {
        "InChI": "InChI=1S/C8H10N2/c1-2-7-6-9-5-3-8(7)10-4-1/h3,5-6,10H,1-2,4H2",
        "InChIKey": null,
        "Canonical SMILES": "N=1C=CC=2NCCCC2C1",
        "Molecular Formula": "C<sub>8</sub>H<sub>10</sub>N<sub>2</sub>",
        "Molecular Mass": "134.18",
        "Melting Point": "155-158 °C"
    }
}