{
    "cas_no": "25309-65-3",
    "key_name": "4-Ethylbenzonitrile",
    "cn_name": "4-乙基苯甲腈;对乙基苯腈;对氰基乙苯;",
    "alternate_name": "Benzonitrile, 4-ethyl-;Benzonitrile, <em>p</em>-ethyl-;4-Ethylbenzonitrile;4-Cyanoethylbenzene;<em>p</em>-Ethylbenzonitrile;α-Methyl-<em>p</em>-toluonitrile;1-Cyano-4-ethylbenzene",
    "duplicated_cas_no": "",
    "SMILES": "C(C)C1=CC=C(C#N)C=C1",
    "meta_data": {
        "InChI": "InChI=1S/C9H9N/c1-2-8-3-5-9(7-10)6-4-8/h3-6H,2H2,1H3",
        "InChIKey": null,
        "Canonical SMILES": "N#CC1=CC=C(C=C1)CC",
        "Molecular Formula": "C<sub>9</sub>H<sub>9</sub>N",
        "Molecular Mass": "131.17",
        "Boiling Point": "~121 °C (approx) @ Press: 24 Torr",
        "Melting Point": "-24.2 °C",
        "Density": "0.9716 g/cm³ @ Temp: 20 °C"
    }
}