{
    "cas_no": "3730-60-7",
    "key_name": "2,5-Dimethyl-2-hexanol",
    "cn_name": null,
    "alternate_name": "2-Hexanol, 2,5-dimethyl-;2,5-Dimethyl-2-hexanol;NSC 5594",
    "duplicated_cas_no": "",
    "SMILES": "C(C(C)(C)O)CC(C)C",
    "meta_data": {
        "InChI": "InChI=1S/C8H18O/c1-7(2)5-6-8(3,4)9/h7,9H,5-6H2,1-4H3",
        "InChIKey": null,
        "Canonical SMILES": "OC(C)(C)CCC(C)C",
        "Molecular Formula": "C<sub>8</sub>H<sub>18</sub>O",
        "Molecular Mass": "130.23",
        "Boiling Point": "154.5 °C",
        "Density": "0.8158 g/cm³ @ Temp: 20 °C"
    }
}