{
    "cas_no": "65145-14-4",
    "key_name": "<em>N</em>-(4-Bromophenyl)-<em>N</em>-(phenylmethyl)benzenemethanamine",
    "cn_name": "N,N-联苄基-4-溴苯胺;",
    "alternate_name": "Benzenemethanamine, <em>N</em>-(4-bromophenyl)-<em>N</em>-(phenylmethyl)-;Dibenzylamine, <em>N</em>-(<em>p</em>-bromophenyl)-;<em>N</em>-(4-Bromophenyl)-<em>N</em>-(phenylmethyl)benzenemethanamine;4-Bromo-<em>N</em>,<em>N</em>-dibenzylaniline;<em>N</em>,<em>N</em>-Dibenzyl-4-bromoaniline;<em>N</em>-(<em>p</em>-Bromophenyl)dibenzylamine;NSC 142300;<em>N</em>,<em>N</em>-Dibenzyl-4-bromobenzenamine",
    "duplicated_cas_no": "",
    "SMILES": "N(CC1=CC=CC=C1)(CC2=CC=CC=C2)C3=CC=C(Br)C=C3",
    "meta_data": {
        "InChI": "InChI=1S/C20H18BrN/c21-19-11-13-20(14-12-19)22(15-17-7-3-1-4-8-17)16-18-9-5-2-6-10-18/h1-14H,15-16H2",
        "InChIKey": null,
        "Canonical SMILES": "BrC1=CC=C(C=C1)N(CC=2C=CC=CC2)CC=3C=CC=CC3",
        "Molecular Formula": "C<sub>20</sub>H<sub>18</sub>BrN",
        "Molecular Mass": "352.27",
        "Melting Point": "125 °C"
    }
}