{
    "cas_no": "691-37-2",
    "key_name": "4-Methyl-1-pentene",
    "cn_name": "4-甲基-1-戊烯;1-异已烯;异丁基乙烯;4-甲基-1-戊烯;4-甲-1-戊烯;異丁基乙烯;",
    "alternate_name": "1-Pentene, 4-methyl-;4-Methyl-1-pentene;Isobutylethene;4-Methylpentene-1;NSC 15091;4-Methyl-1-amylene",
    "duplicated_cas_no": "44390-46-7",
    "SMILES": "C(C(C)C)C=C",
    "meta_data": {
        "InChI": "InChI=1S/C6H12/c1-4-5-6(2)3/h4,6H,1,5H2,2-3H3",
        "InChIKey": null,
        "Canonical SMILES": "C=CCC(C)C",
        "Molecular Formula": "C<sub>6</sub>H<sub>12</sub>",
        "Molecular Mass": "84.16",
        "Boiling Point": "53.9 °C",
        "Melting Point": "-153.6 °C",
        "Density": "0.6718 g/cm³ @ Temp: 20 °C"
    }
}