{
    "cas_no": "23074-10-4",
    "key_name": "5-Ethyl-2-furaldehyde",
    "cn_name": "5-乙基-2-糠醛;",
    "alternate_name": "2-Furancarboxaldehyde, 5-ethyl-;2-Furaldehyde, 5-ethyl-;5-Ethyl-2-furancarboxaldehyde;5-Ethylfurfural;5-Ethyl-2-furaldehyde;5-Ethyl-2-furfural",
    "duplicated_cas_no": "",
    "SMILES": "C(C)C=1OC(C=O)=CC1",
    "meta_data": {
        "InChI": "InChI=1S/C7H8O2/c1-2-6-3-4-7(5-8)9-6/h3-5H,2H2,1H3",
        "InChIKey": null,
        "Canonical SMILES": "O=CC=1OC(=CC1)CC",
        "Molecular Formula": "C<sub>7</sub>H<sub>8</sub>O<sub>2</sub>",
        "Molecular Mass": "124.14",
        "Boiling Point": "79-81 °C @ Press: 12 Torr"
    }
}