{
    "cas_no": "62020-54-6",
    "key_name": "5-(Aminomethyl)-3(2<em>H</em>)-isothiazolone",
    "cn_name": null,
    "alternate_name": "3(2<em>H</em>)-Isothiazolone, 5-(aminomethyl)-;5-(Aminomethyl)-3(2<em>H</em>)-isothiazolone;Thiomuscimol",
    "duplicated_cas_no": "",
    "SMILES": "C(N)C1=CC(=O)NS1",
    "meta_data": {
        "InChI": "InChI=1S/C4H6N2OS/c5-2-3-1-4(7)6-8-3/h1H,2,5H2,(H,6,7)",
        "InChIKey": null,
        "Canonical SMILES": "O=C1C=C(SN1)CN",
        "Molecular Formula": "C<sub>4</sub>H<sub>6</sub>N<sub>2</sub>OS",
        "Molecular Mass": "130.17",
        "Melting Point": "140 °C (decomp)"
    }
}