{
    "cas_no": "130370-60-4",
    "key_name": "Batimastat",
    "cn_name": "巴马司他;(2S,3R)-N-羟基-N\"-[(2S)-1-甲基氨基-1-氧代-3-苯基丙-2-基]-3-异丁基-2-(噻吩-2-基硫甲基)丁二酰;",
    "alternate_name": "Butanediamide, <em>N</em><sup>4</sup>-hydroxy-<em>N</em><sup>1</sup>-[(1<em>S</em>)-2-(methylamino)-2-oxo-1-(phenylmethyl)ethyl]-2-(2-methylpropyl)-3-[(2-thienylthio)methyl]-, (2<em>R</em>,3<em>S</em>)-;Butanediamide, <em>N</em><sup>4</sup>-hydroxy-<em>N</em><sup>1</sup>-[2-(methylamino)-2-oxo-1-(phenylmethyl)ethyl]-2-(2-methylpropyl)-3-[(2-thienylthio)methyl]-, [2<em>R</em>-[1(<em>S</em>*),2<em>R</em>*,3<em>S</em>*]]-;(2<em>R</em>,3<em>S</em>)-<em>N</em><sup>4</sup>-Hydroxy-<em>N</em><sup>1</sup>-[(1<em>S</em>)-2-(methylamino)-2-oxo-1-(phenylmethyl)ethyl]-2-(2-methylpropyl)-3-[(2-thienylthio)methyl]butanediamide;BB 94;Batimastat;(2<em>S</em>,3<em>R</em>)-5-Methyl-3-[[(αS)-α-(methylcarbamoyl)phenethyl]carbamoyl]-2-[(2-thienylthio)methyl]hexanohydroxamic acid",
    "duplicated_cas_no": "",
    "SMILES": "[C@@H]([C@H](CSC1=CC=CS1)C(NO)=O)(C(N[C@@H](CC2=CC=CC=C2)C(NC)=O)=O)CC(C)C",
    "meta_data": {
        "InChI": "InChI=1S/C23H31N3O4S2/c1-15(2)12-17(18(22(28)26-30)14-32-20-10-7-11-31-20)21(27)25-19(23(29)24-3)13-16-8-5-4-6-9-16/h4-11,15,17-19,30H,12-14H2,1-3H3,(H,24,29)(H,25,27)(H,26,28)/t17-,18+,19+/m1/s1",
        "InChIKey": null,
        "Canonical SMILES": "O=C(NC)C(NC(=O)C(CC(C)C)C(C(=O)NO)CSC=1SC=CC1)CC=2C=CC=CC2",
        "Molecular Formula": "C<sub>23</sub>H<sub>31</sub>N<sub>3</sub>O<sub>4</sub>S<sub>2</sub>",
        "Molecular Mass": "477.64",
        "Melting Point": "236-238 °C"
    }
}