{
    "cas_no": "104121-92-8",
    "key_name": "Eldecalcitol",
    "cn_name": null,
    "alternate_name": "1,3-Cyclohexanediol, 2-(3-hydroxypropoxy)-4-methylene-5-[(2<em>E</em>)-2-[(1<em>R</em>,3a<em>S</em>,7a<em>R</em>)-octahydro-1-[(1<em>R</em>)-5-hydroxy-1,5-dimethylhexyl]-7a-methyl-4<em>H</em>-inden-4-ylidene]ethylidene]-, (1<em>R</em>,2<em>R</em>,3<em>R</em>,5<em>Z</em>)-;9,10-Secocholesta-5,7,10(19)-triene-1,3,25-triol, 2-(3-hydroxypropoxy)-, (1α,2β,3β,5<em>Z</em>,7<em>E</em>)-;(1<em>R</em>,2<em>R</em>,3<em>R</em>,5<em>Z</em>)-2-(3-Hydroxypropoxy)-4-methylene-5-[(2<em>E</em>)-2-[(1<em>R</em>,3a<em>S</em>,7a<em>R</em>)-octahydro-1-[(1<em>R</em>)-5-hydroxy-1,5-dimethylhexyl]-7a-methyl-4<em>H</em>-inden-4-ylidene]ethylidene]-1,3-cyclohexanediol;ED 71;2β-(3-Hydroxypropoxy)-1α,25-dihydroxyvitamin D<sub>3</sub>;Eldecalcitol;Edirol;2-(3-Hydroxypropoxy)calcitriol",
    "duplicated_cas_no": "",
    "SMILES": "C[C@@]12[C@](\\C(=C\\C=C\\3/C(=C)[C@@H](O)[C@H](OCCCO)[C@H](O)C3)\\CCC1)(CC[C@@]2([C@@H](CCCC(C)(C)O)C)[H])[H]",
    "meta_data": {
        "InChI": "InChI=1S/C30H50O5/c1-20(9-6-15-29(3,4)34)24-13-14-25-22(10-7-16-30(24,25)5)11-12-23-19-26(32)28(27(33)21(23)2)35-18-8-17-31/h11-12,20,24-28,31-34H,2,6-10,13-19H2,1,3-5H3/b22-11+,23-12-/t20-,24-,25+,26-,27-,28-,30-/m1/s1",
        "InChIKey": null,
        "Canonical SMILES": "OCCCOC1C(O)C(=C)C(=CC=C2CCCC3(C)C2CCC3C(C)CCCC(O)(C)C)CC1O",
        "Molecular Formula": "C<sub>30</sub>H<sub>50</sub>O<sub>5</sub>",
        "Molecular Mass": "490.71",
        "Melting Point": "126-128 °C"
    }
}