{
    "cas_no": "675-11-6",
    "key_name": "4,6-Difluoro-2-pyrimidinamine",
    "cn_name": "2-氨基-4,6-二氟嘧啶;",
    "alternate_name": "2-Pyrimidinamine, 4,6-difluoro-;Pyrimidine, 2-amino-4,6-difluoro-;4,6-Difluoro-2-pyrimidinamine;2-Amino-4,6-difluoropyrimidine",
    "duplicated_cas_no": "",
    "SMILES": "FC=1C=C(F)N=C(N)N1",
    "meta_data": {
        "InChI": "InChI=1S/C4H3F2N3/c5-2-1-3(6)9-4(7)8-2/h1H,(H2,7,8,9)",
        "InChIKey": null,
        "Canonical SMILES": "FC=1N=C(N=C(F)C1)N",
        "Molecular Formula": "C<sub>4</sub>H<sub>3</sub>F<sub>2</sub>N<sub>3</sub>",
        "Molecular Mass": "131.08",
        "Melting Point": "214-216 °C"
    }
}