{
    "cas_no": "1071-83-6",
    "key_name": "Glyphosate",
    "cn_name": "草甘膦;N-(膦酰基甲基)甘氨酸;",
    "alternate_name": "Glycine, <em>N</em>-(phosphonomethyl)-;<em>N</em>-(Phosphonomethyl)glycine;Glyphosate;MON 2139;Glialka;Phosphonomethyliminoacetic acid;<em>N</em>-Phosphomethylglycine;MON 6000;(Carboxymethylamino)methylphosphonic acid;Phosphonomethylglycine;Forsat;Phorsat;Folusen;Rebel Garden;Glyphosate CT;Glyphodin A;Accord XRT II;Hockey;Herbatop;Glialka 36;Lancer;Carboxymethylaminomethanephosphinic acid;Glyphomax;Kickdown;NSC 151063;Gliz 480CS;Gliz;Glyfos;Silglif;Klinik;MON 3539;GlyGran;Total;HM 2028;Buccaneer;Atila;Ground Bio;Leone;Glifoglex;C-K Yuyos FAV;Scout (herbicide);Scout;Glifosan 747;Lancer (herbicide);Safal;Gibson;Green Fire 50SL;Weedmaster 50SL;Accord 4L;2-[(Phosphonomethyl)amino]acetic acid;Glydon;Faena;Glyphosate atar 48",
    "duplicated_cas_no": "37337-60-3;42618-09-7;75241-08-6;1585457-94-8",
    "SMILES": "C(NCC(O)=O)P(=O)(O)O",
    "meta_data": {
        "InChI": "InChI=1S/C3H8NO5P/c5-3(6)1-4-2-10(7,8)9/h4H,1-2H2,(H,5,6)(H2,7,8,9)",
        "InChIKey": null,
        "Canonical SMILES": "O=C(O)CNCP(=O)(O)O",
        "Molecular Formula": "C<sub>3</sub>H<sub>8</sub>NO<sub>5</sub>P",
        "Molecular Mass": "169.07",
        "Melting Point": "230 °C (decomp)",
        "Density": "0.5 g/cm³"
    }
}