{
    "cas_no": "13038-26-1",
    "key_name": "Methyl 2,2,3,3,4,4,5,5,5-nonafluoropentanoate",
    "cn_name": "九氟戊酸甲酯;甲基九氟戊酸酯;全氟戊酸甲酯;",
    "alternate_name": "Pentanoic acid, 2,2,3,3,4,4,5,5,5-nonafluoro-, methyl ester;Valeric acid, nonafluoro-, methyl ester;Pentanoic acid, nonafluoro-, methyl ester;Methyl 2,2,3,3,4,4,5,5,5-nonafluoropentanoate;Methyl perfluoropentanoate;Methyl nonafluorovalerate;Methyl nonafluoropentanoate;Nonafluoropentanoic acid methyl ester",
    "duplicated_cas_no": "",
    "SMILES": "C(C(C(OC)=O)(F)F)(C(C(F)(F)F)(F)F)(F)F",
    "meta_data": {
        "InChI": "InChI=1S/C6H3F9O2/c1-17-2(16)3(7,8)4(9,10)5(11,12)6(13,14)15/h1H3",
        "InChIKey": null,
        "Canonical SMILES": "O=C(OC)C(F)(F)C(F)(F)C(F)(F)C(F)(F)F",
        "Molecular Formula": "C<sub>6</sub>H<sub>3</sub>F<sub>9</sub>O<sub>2</sub>",
        "Molecular Mass": "278.07",
        "Boiling Point": "99-100 °C"
    }
}