{
    "cas_no": "100-15-2",
    "key_name": "<em>N</em>-Methyl-4-nitroaniline",
    "cn_name": "N-甲基对硝基苯胺;N-甲基-4-硝基苯胺;",
    "alternate_name": "Benzenamine, <em>N</em>-methyl-4-nitro-;Aniline, <em>N</em>-methyl-<em>p</em>-nitro-;<em>N</em>-Methyl-4-nitrobenzenamine;<em>N</em>-Monomethyl-<em>p</em>-nitroaniline;<em>N</em>-Methyl-<em>p</em>-nitroaniline;<em>N</em>-Methyl-4-nitroaniline;<em>p</em>-(Methylamino)nitrobenzene;<em>N</em>-Methyl-<em>p</em>-nitraniline;4-Nitro-<em>N</em>-methylaniline;<em>p</em>-Nitro-<em>N</em>-methylaniline;4-(Methylamino)nitrobenzene;Methyl(4-nitrophenyl)amine;NSC 5390;<em>N</em>-(4-Nitrophenyl)-<em>N</em>-methylamine",
    "duplicated_cas_no": "",
    "SMILES": "N(=O)(=O)C1=CC=C(NC)C=C1",
    "meta_data": {
        "InChI": "InChI=1S/C7H8N2O2/c1-8-6-2-4-7(5-3-6)9(10)11/h2-5,8H,1H3",
        "InChIKey": null,
        "Canonical SMILES": "O=N(=O)C1=CC=C(C=C1)NC",
        "Molecular Formula": "C<sub>7</sub>H<sub>8</sub>N<sub>2</sub>O<sub>2</sub>",
        "Molecular Mass": "152.15",
        "Melting Point": "152 °C",
        "Density": "1.372 g/cm³"
    }
}