{
    "cas_no": "52688-11-6",
    "key_name": "Cyclohexyl 2-cyanoacetate",
    "cn_name": null,
    "alternate_name": "Acetic acid, 2-cyano-, cyclohexyl ester;Acetic acid, cyano-, cyclohexyl ester;Cyclohexyl 2-cyanoacetate;Cyclohexyl cyanoacetate;NSC 69952;2-Cyano-acetic acid cyclohexyl ester",
    "duplicated_cas_no": "",
    "SMILES": "O(C(CC#N)=O)C1CCCCC1",
    "meta_data": {
        "InChI": "InChI=1S/C9H13NO2/c10-7-6-9(11)12-8-4-2-1-3-5-8/h8H,1-6H2",
        "InChIKey": null,
        "Canonical SMILES": "N#CCC(=O)OC1CCCCC1",
        "Molecular Formula": "C<sub>9</sub>H<sub>13</sub>NO<sub>2</sub>",
        "Molecular Mass": "167.21",
        "Boiling Point": "103-108 °C @ Press: 0.5 Torr"
    }
}