{
    "cas_no": "27913-99-1",
    "key_name": "4-(4-Methyl-1-piperazinyl)benzaldehyde",
    "cn_name": "4-(4-甲基哌嗪)苯甲醛;",
    "alternate_name": "Benzaldehyde, 4-(4-methyl-1-piperazinyl)-;Benzaldehyde, <em>p</em>-(4-methyl-1-piperazinyl)-;4-(4-Methyl-1-piperazinyl)benzaldehyde;4-(4-Methylpiperazino)benzaldehyde;4-(4-Methylpiperazin-1-yl)benzenecarboxaldehyde;1-(4-Formylphenyl)-4-methylpiperazine",
    "duplicated_cas_no": "",
    "SMILES": "C(=O)C1=CC=C(C=C1)N2CCN(C)CC2",
    "meta_data": {
        "InChI": "InChI=1S/C12H16N2O/c1-13-6-8-14(9-7-13)12-4-2-11(10-15)3-5-12/h2-5,10H,6-9H2,1H3",
        "InChIKey": null,
        "Canonical SMILES": "O=CC1=CC=C(C=C1)N2CCN(C)CC2",
        "Molecular Formula": "C<sub>12</sub>H<sub>16</sub>N<sub>2</sub>O",
        "Molecular Mass": "204.27",
        "Melting Point": "58-60 °C"
    }
}