{
    "cas_no": "4906-25-6",
    "key_name": "Benzoic acid, 4-butoxy-, methyl ester",
    "cn_name": "4-正丁氧苯甲酸甲酯;",
    "alternate_name": "Benzoic acid, 4-butoxy-, methyl ester;Benzoic acid, <em>p</em>-butoxy-, methyl ester;Methyl 4-(butyloxy)benzoate;Methyl 4-butoxybenzoate",
    "duplicated_cas_no": "",
    "SMILES": "C(OC)(=O)C1=CC=C(OCCCC)C=C1",
    "meta_data": {
        "InChI": "InChI=1S/C12H16O3/c1-3-4-9-15-11-7-5-10(6-8-11)12(13)14-2/h5-8H,3-4,9H2,1-2H3",
        "InChIKey": null,
        "Canonical SMILES": "O=C(OC)C1=CC=C(OCCCC)C=C1",
        "Molecular Formula": "C<sub>12</sub>H<sub>16</sub>O<sub>3</sub>",
        "Molecular Mass": "208.25",
        "Boiling Point": "188-190 °C @ Press: 30 Torr"
    }
}