{
    "cas_no": "22809-37-6",
    "key_name": "6-Bromohexanoyl chloride",
    "cn_name": "6-溴己酰氯;",
    "alternate_name": "Hexanoyl chloride, 6-bromo-;6-Bromohexanoyl chloride;ε-Bromocaproyl chloride;6-Bromocaproyl chloride;6-Bromocaproic chloride;6-Bromohexanoic chloride;ω-Bromohexanoyl chloride",
    "duplicated_cas_no": "671195-25-8;1621471-13-3",
    "SMILES": "C(CC(Cl)=O)CCCBr",
    "meta_data": {
        "InChI": "InChI=1S/C6H10BrClO/c7-5-3-1-2-4-6(8)9/h1-5H2",
        "InChIKey": null,
        "Canonical SMILES": "O=C(Cl)CCCCCBr",
        "Molecular Formula": "C<sub>6</sub>H<sub>10</sub>BrClO",
        "Molecular Mass": "213.50",
        "Boiling Point": "95-102 °C @ Press: 1 Torr"
    }
}