{
    "cas_no": "6989-24-8",
    "key_name": "Bayogenin",
    "cn_name": "贝萼皂苷元;贝萼甙元;(2beta,3beta,4alpha)-2,3,23-三羟基齐墩果-12-烯-28-酸;",
    "alternate_name": "Olean-12-en-28-oic acid, 2,3,23-trihydroxy-, (2β,3β,4α)-;Olean-12-en-28-oic acid, 2β,3β,23-trihydroxy-;(2β,3β,4α)-2,3,23-Trihydroxyolean-12-en-28-oic acid;Bayogenin;Bayogenine;2β,3β,23α-Trihydroxy-12-oleanen-28-oic acid",
    "duplicated_cas_no": "88586-19-0",
    "SMILES": "C[C@]12[C@@]3(C)C([C@]4([C@@](C(O)=O)(CC3)CCC(C)(C)C4)[H])=CC[C@@]1([C@]5(C)[C@@](CC2)([C@@](CO)(C)[C@@H](O)[C@@H](O)C5)[H])[H]",
    "meta_data": {
        "InChI": "InChI=1S/C30H48O5/c1-25(2)11-13-30(24(34)35)14-12-28(5)18(19(30)15-25)7-8-22-26(3)16-20(32)23(33)27(4,17-31)21(26)9-10-29(22,28)6/h7,19-23,31-33H,8-17H2,1-6H3,(H,34,35)/t19-,20-,21+,22+,23-,26-,27-,28+,29+,30-/m0/s1",
        "InChIKey": null,
        "Canonical SMILES": "O=C(O)C12CCC(C)(C)CC2C3=CCC4C5(C)CC(O)C(O)C(C)(CO)C5CCC4(C)C3(C)CC1",
        "Molecular Formula": "C<sub>30</sub>H<sub>48</sub>O<sub>5</sub>",
        "Molecular Mass": "488.70",
        "Melting Point": "&gt;300 °C (decomp)"
    }
}