{
    "cas_no": "89-74-7",
    "key_name": "2′,4′-Dimethylacetophenone",
    "cn_name": "2,4-二甲基苯乙酮;2,4-二甲基乙酰苯;",
    "alternate_name": "Ethanone, 1-(2,4-dimethylphenyl)-;Acetophenone, 2′,4′-dimethyl-;Acetophenone, 2,4-dimethyl-;1-(2,4-Dimethylphenyl)ethanone;2,4-Dimethylacetophenone;2′,4′-Dimethylacetophenone;NSC 15333;2,4-Dimethylphenyl methyl ketone",
    "duplicated_cas_no": "",
    "SMILES": "C(C)(=O)C1=C(C)C=C(C)C=C1",
    "meta_data": {
        "InChI": "InChI=1S/C10H12O/c1-7-4-5-10(9(3)11)8(2)6-7/h4-6H,1-3H3",
        "InChIKey": null,
        "Canonical SMILES": "O=C(C1=CC=C(C=C1C)C)C",
        "Molecular Formula": "C<sub>10</sub>H<sub>12</sub>O",
        "Molecular Mass": "148.20",
        "Boiling Point": "228 °C",
        "Density": "1.0135 g/cm³ @ Temp: 20 °C"
    }
}