{
    "cas_no": "2024-83-1",
    "key_name": "3,4-Dimethoxybenzonitrile",
    "cn_name": "3,4-二甲氧基苯甲腈;",
    "alternate_name": "Benzonitrile, 3,4-dimethoxy-;Veratronitrile;3,4-Dimethoxybenzonitrile;1-Cyano-3,4-dimethoxybenzene;4-Cyano-2-methoxyanisole;NSC 209526;NSC 27016",
    "duplicated_cas_no": "",
    "SMILES": "O(C)C1=C(OC)C=CC(C#N)=C1",
    "meta_data": {
        "InChI": "InChI=1S/C9H9NO2/c1-11-8-4-3-7(6-10)5-9(8)12-2/h3-5H,1-2H3",
        "InChIKey": null,
        "Canonical SMILES": "N#CC1=CC=C(OC)C(OC)=C1",
        "Molecular Formula": "C<sub>9</sub>H<sub>9</sub>NO<sub>2</sub>",
        "Molecular Mass": "163.17",
        "Melting Point": "66-67 °C"
    }
}