{
    "cas_no": "7411-49-6",
    "key_name": "3,3′-Diaminobenzidine tetrahydrochloride",
    "cn_name": "3,3\"-二氨基联苯胺四盐酸盐;",
    "alternate_name": "[1,1′-Biphenyl]-3,3′,4,4′-tetramine, hydrochloride (1:4);3,3′,4,4′-Biphenyltetramine, tetrahydrochloride;[1,1′-Biphenyl]-3,3′,4,4′-tetramine, tetrahydrochloride;3,3′-Diammoniumbenzidinium tetrachloride;3,3′-Diaminobenzidine tetrahydrochloride;3,3′-Diaminobenzidine hydrochloride;3,3′,4,4′-Tetraaminobiphenyl tetrahydrochloride;3,4,3′,4′-Tetraaminobiphenyl tetrahydrochloride",
    "duplicated_cas_no": "125937-03-3;623161-88-6",
    "SMILES": "NC=1C=C(C=CC1N)C2=CC(N)=C(N)C=C2.Cl",
    "meta_data": {
        "InChI": "InChI=1S/C12H14N4.4ClH/c13-9-3-1-7(5-11(9)15)8-2-4-10(14)12(16)6-8;;;;/h1-6H,13-16H2;4*1H",
        "InChIKey": null,
        "Canonical SMILES": "Cl.NC=1C=CC(=CC1N)C2=CC=C(N)C(N)=C2",
        "Molecular Formula": "C<sub>12</sub>H<sub>14</sub>N<sub>4</sub>.4ClH",
        "Molecular Mass": "",
        "Melting Point": "178-180 °C"
    }
}