{
    "cas_no": "2016-63-9",
    "key_name": "Bamifylline",
    "cn_name": null,
    "alternate_name": "1<em>H</em>-Purine-2,6-dione, 7-[2-[ethyl(2-hydroxyethyl)amino]ethyl]-3,7-dihydro-1,3-dimethyl-8-(phenylmethyl)-;Theophylline, 8-benzyl-7-[2-[ethyl(2-hydroxyethyl)amino]ethyl]-;7-[2-[Ethyl(2-hydroxyethyl)amino]ethyl]-3,7-dihydro-1,3-dimethyl-8-(phenylmethyl)-1<em>H</em>-purine-2,6-dione;Bamifylline;8′-Benzyl-7-(2-[ethyl(2-hydroxyethyl)amino]ethyl)theophylline;Benzethamophylline;8102 CB;Bamiphylline;8012CB;Benzetamophylline",
    "duplicated_cas_no": "",
    "SMILES": "C(CN(CCO)CC)N1C2=C(N=C1CC3=CC=CC=C3)N(C)C(=O)N(C)C2=O",
    "meta_data": {
        "InChI": "InChI=1S/C20H27N5O3/c1-4-24(12-13-26)10-11-25-16(14-15-8-6-5-7-9-15)21-18-17(25)19(27)23(3)20(28)22(18)2/h5-9,26H,4,10-14H2,1-3H3",
        "InChIKey": null,
        "Canonical SMILES": "O=C1C2=C(N=C(N2CCN(CC)CCO)CC=3C=CC=CC3)N(C(=O)N1C)C",
        "Molecular Formula": "C<sub>20</sub>H<sub>27</sub>N<sub>5</sub>O<sub>3</sub>",
        "Molecular Mass": "385.46",
        "Melting Point": "80 °C"
    }
}