{
    "cas_no": "83-12-5",
    "key_name": "Phenindione",
    "cn_name": "2-苯基-1,3-茚满二酮;苯茚二酮;",
    "alternate_name": "1<em>H</em>-Indene-1,3(2<em>H</em>)-dione, 2-phenyl-;1,3-Indandione, 2-phenyl-;2-Phenyl-1<em>H</em>-indene-1,3(2<em>H</em>)-dione;Athrombon;Bindan;Danilone;Diadilan;Dindevan;Dineval;Fenhydren;Fenilin;Hedulin;Indema;Indion;Indon;Phenhydren;Phenindione;2-Phenyl-1,3-diketohydrindene;Phenylen;2-Phenyl-1,3-indandione;Phenylindione;PID;Pindione;Phenillin;Phenylin;2-Phenyl-1,3-indanedione;Danilon;Tromazal;Fenindion;Emandion;Rectadione;Theradione;Diophindane;Trombol;Emandione;Danedion;2-Phenylindandione;Hemolidione;Cronodione;Thrombasal;NSC 41693;2-Phenyl-2,3-dihydro-1<em>H</em>-indene-1,3-dione;2-Phenylindene-1,3-dione;MeSH ID: D010630",
    "duplicated_cas_no": "",
    "SMILES": "O=C1C(C(=O)C=2C1=CC=CC2)C3=CC=CC=C3",
    "meta_data": {
        "InChI": "InChI=1S/C15H10O2/c16-14-11-8-4-5-9-12(11)15(17)13(14)10-6-2-1-3-7-10/h1-9,13H",
        "InChIKey": null,
        "Canonical SMILES": "O=C1C=2C=CC=CC2C(=O)C1C=3C=CC=CC3",
        "Molecular Formula": "C<sub>15</sub>H<sub>10</sub>O<sub>2</sub>",
        "Molecular Mass": "222.24",
        "Melting Point": "149-151 °C"
    }
}