{
    "cas_no": "4427-96-7",
    "key_name": "Vinylethylene carbonate",
    "cn_name": "碳酸乙烯亚乙酯;",
    "alternate_name": "1,3-Dioxolan-2-one, 4-ethenyl-;Carbonic acid, cyclic vinylethylene ester;4-Ethenyl-1,3-dioxolan-2-one;Vinylethylene carbonate;4-Vinyl-1,3-dioxolan-2-one;4-Vinylethylene carbonate;4-Ethenyl-4,5-dihydro-1,3-dioxol-2-one",
    "duplicated_cas_no": "140237-51-0",
    "SMILES": "C(=C)C1OC(=O)OC1",
    "meta_data": {
        "InChI": "InChI=1S/C5H6O3/c1-2-4-3-7-5(6)8-4/h2,4H,1,3H2",
        "InChIKey": null,
        "Canonical SMILES": "O=C1OCC(O1)C=C",
        "Molecular Formula": "C<sub>5</sub>H<sub>6</sub>O<sub>3</sub>",
        "Molecular Mass": "114.10",
        "Boiling Point": "123 °C @ Press: 14 Torr",
        "Density": "1.183 g/cm³ @ Temp: 25 °C"
    }
}