{
    "cas_no": "3107-33-3",
    "key_name": "Hydrazine, [3-(trifluoromethyl)phenyl]-, hydrochloride (1:1)",
    "cn_name": "3-(三氟甲基)苯肼盐酸盐;间三氟甲基苯肼盐酸盐;",
    "alternate_name": "Hydrazine, [3-(trifluoromethyl)phenyl]-, hydrochloride (1:1);Hydrazine, [3-(trifluoromethyl)phenyl]-, monohydrochloride;Hydrazine, (α,α,α-trifluoro-<em>m</em>-tolyl)-, hydrochloride;3-Trifluoromethylphenylhydrazine hydrochloride",
    "duplicated_cas_no": "",
    "SMILES": "C(F)(F)(F)C1=CC(NN)=CC=C1.Cl",
    "meta_data": {
        "InChI": "InChI=1S/C7H7F3N2.ClH/c8-7(9,10)5-2-1-3-6(4-5)12-11;/h1-4,12H,11H2;1H",
        "InChIKey": null,
        "Canonical SMILES": "Cl.FC(F)(F)C=1C=CC=C(C1)NN",
        "Molecular Formula": "C<sub>7</sub>H<sub>7</sub>F<sub>3</sub>N<sub>2</sub>.ClH",
        "Molecular Mass": "",
        "Melting Point": "224-225 °C (decomp)"
    }
}