{
    "cas_no": "60211-57-6",
    "key_name": "3,5-Dichlorobenzyl alcohol",
    "cn_name": "3,5-二氯苯甲醇;",
    "alternate_name": "Benzenemethanol, 3,5-dichloro-;3,5-Dichlorobenzenemethanol;3,5-Dichlorobenzyl alcohol;(3,5-Dichlorophenyl)methanol",
    "duplicated_cas_no": "",
    "SMILES": "C(O)C1=CC(Cl)=CC(Cl)=C1",
    "meta_data": {
        "InChI": "InChI=1S/C7H6Cl2O/c8-6-1-5(4-10)2-7(9)3-6/h1-3,10H,4H2",
        "InChIKey": null,
        "Canonical SMILES": "ClC=1C=C(Cl)C=C(C1)CO",
        "Molecular Formula": "C<sub>7</sub>H<sub>6</sub>Cl<sub>2</sub>O",
        "Molecular Mass": "177.03",
        "Melting Point": "79-82 °C"
    }
}