{
    "cas_no": "119018-29-0",
    "key_name": "<em>N</em>-[2-[4-(Aminosulfonyl)phenyl]ethyl]-3-ethyl-2,5-dihydro-4-methyl-2-oxo-1<em>H</em>-pyrrole-1-carboxamide",
    "cn_name": "4-[2-(3-乙基-4-甲基-2-氧代-3-吡咯啉-1-甲酰胺基)乙基]-苯磺酰胺;",
    "alternate_name": "1<em>H</em>-Pyrrole-1-carboxamide, <em>N</em>-[2-[4-(aminosulfonyl)phenyl]ethyl]-3-ethyl-2,5-dihydro-4-methyl-2-oxo-;<em>N</em>-[2-[4-(Aminosulfonyl)phenyl]ethyl]-3-ethyl-2,5-dihydro-4-methyl-2-oxo-1<em>H</em>-pyrrole-1-carboxamide;4-[2-[(3-Ethyl-4-methyl-2-oxo-3-pyrrolin-1-yl)carboxamido]ethyl]benzenesulfonamide",
    "duplicated_cas_no": "",
    "SMILES": "C(NCCC1=CC=C(S(N)(=O)=O)C=C1)(=O)N2C(=O)C(CC)=C(C)C2",
    "meta_data": {
        "InChI": "InChI=1S/C16H21N3O4S/c1-3-14-11(2)10-19(15(14)20)16(21)18-9-8-12-4-6-13(7-5-12)24(17,22)23/h4-7H,3,8-10H2,1-2H3,(H,18,21)(H2,17,22,23)",
        "InChIKey": null,
        "Canonical SMILES": "O=C(NCCC1=CC=C(C=C1)S(=O)(=O)N)N2C(=O)C(=C(C)C2)CC",
        "Molecular Formula": "C<sub>16</sub>H<sub>21</sub>N<sub>3</sub>O<sub>4</sub>S",
        "Molecular Mass": "351.42",
        "Melting Point": "183-185 °C"
    }
}