{
    "cas_no": "619-44-3",
    "key_name": "Methyl 4-iodobenzoate",
    "cn_name": "4-碘苯甲酸甲酯;对碘苯甲酸甲酯;",
    "alternate_name": "Benzoic acid, 4-iodo-, methyl ester;Benzoic acid, <em>p</em>-iodo-, methyl ester;Methyl 4-iodobenzoate;Methyl <em>p</em>-iodobenzoate;4-(Carbomethoxy)iodobenzene;4-Iodobenzoic acid methyl ester;4-(Methoxycarbonyl)phenyl iodide;<em>p</em>-Iodobenzoic acid methyl ester;<em>p</em>-(Methoxycarbonyl)phenyl iodide;NSC 9393;4-(Methoxycarbonyl)iodobenzene;4-(Methoxycarbonyl)-1-iodobenzene",
    "duplicated_cas_no": "",
    "SMILES": "C(OC)(=O)C1=CC=C(I)C=C1",
    "meta_data": {
        "InChI": "InChI=1S/C8H7IO2/c1-11-8(10)6-2-4-7(9)5-3-6/h2-5H,1H3",
        "InChIKey": null,
        "Canonical SMILES": "O=C(OC)C1=CC=C(I)C=C1",
        "Molecular Formula": "C<sub>8</sub>H<sub>7</sub>IO<sub>2</sub>",
        "Molecular Mass": "262.04",
        "Melting Point": "114.8 °C"
    }
}