{
    "cas_no": "5468-37-1",
    "key_name": "2-Aminoacetophenone hydrochloride",
    "cn_name": "2-氨基苯乙酮盐酸盐;",
    "alternate_name": "Ethanone, 2-amino-1-phenyl-, hydrochloride (1:1);Ethanone, 2-amino-1-phenyl-, hydrochloride;Acetophenone, 2-amino-, hydrochloride;Phenacylamine hydrochloride;α-Aminoacetophenone hydrochloride;2-Aminoacetophenone hydrochloride;2-Amino-1-phenyl-1-ethanone hydrochloride;2-Amino-1-phenylethanone hydrochloride",
    "duplicated_cas_no": "",
    "SMILES": "C(CN)(=O)C1=CC=CC=C1.Cl",
    "meta_data": {
        "InChI": "InChI=1S/C8H9NO.ClH/c9-6-8(10)7-4-2-1-3-5-7;/h1-5H,6,9H2;1H",
        "InChIKey": null,
        "Canonical SMILES": "Cl.O=C(C=1C=CC=CC1)CN",
        "Molecular Formula": "C<sub>8</sub>H<sub>9</sub>NO.ClH",
        "Molecular Mass": "",
        "Melting Point": "183-184 °C"
    }
}