{
    "cas_no": "50-28-2",
    "key_name": "Estradiol",
    "cn_name": "雌二醇;",
    "alternate_name": "Estra-1,3,5(10)-triene-3,17-diol (17β)-;Estradiol;(17β)-Estra-1,3,5(10)-triene-3,17-diol;Altrad;Bardiol;Beta-estradiol;Dihydrofollicular hormone;Dihydrofolliculin;Dihydromenformon;Dihydrotheelin;Dihydroxyestrin;Diogyn;Diogynets;3,17-Epidihydroxyestratriene;Estraldine;Dimenformon;Estrovite;Femestral;Femogen;Gynergon;Gynoestryl;Lamdiol;Macrodiol;Nordicol;Oestergon;Oestradiol;Oestroglandol;Ovahormon;Ovasterol;Ovastevol;Ovocyclin;Primofol;Profoliol;Progynon;Progynon DH;Syndiol;Theelin, dihydro-;Estra-1,3,5(10)-triene-3,17β-diol;Ginosedol;Estra-1,3,5(10)-triene-3,17-diol, (17β)-;β-Estradiol;(+)-3,17β-Estradiol;Oestra-1,3,5(10)-triene-3,17β-diol;3,17β-Dihydroxyestra-1,3,5(10)-triene;3,17β-Estradiol;Perlatanol;Aquadiol;Follicyclin;Corpagen;17β-Oestradiol;Estradiol-17β;Estrace;Compudose;Estraderm;Compudose 365;E 2;Compudose 200;Estrogel;Estraderm TTS;Oestrogel;Menorest;Systen;Evorel;Climaderm;13β-Methyl-1,3,5(10)-gonatriene-3,17β-ol;Estraderm TTS 50;Epiestriol 50;Estroclim 50;Dermestril;Climara;Oesclim;17β-Estradiol;Encore;Aerodiol;Divigel;Sandrena 1;Vagifem;Gelestra;Estraderm TTS 100;Zumenon;Vivelle;NSC 9895;Profoliol B;Ovocylin;Estring Vaginal Ring;Estroclim;Estradot;Femanest;Estrogel HBF;Absorlent Matrix;FemSeven;Estrapatch;Estraderm MX;Alora;Estasorb;Estredox;Estreva;Bio-E Gel;Benzogynestry;Estropause;Menostar;Evamist;Zesteem;Compudose 400;Compudose 100;Vivelle-Dot;Sprediol;Elestrim;Estring;Fempatch;Gynodiol;Innofem;Destradiol;17β-Estradiol E2;TX 004HR;IMVEXXY;(8R,9S,13S,14S,17S)-13-Methyl-7,8,9,11,12,13,14,15,16,17-decahydro-6<em>H</em>-cyclopenta[<em>a</em>]phenanthrene-3,17-diol;E2;MeSH ID: D004958",
    "duplicated_cas_no": "873662-39-6;1050677-52-5;1206475-11-7",
    "SMILES": "C[C@@]12[C@]([C@]3([C@@](C=4C(CC3)=CC(O)=CC4)(CC1)[H])[H])(CC[C@@H]2O)[H]",
    "meta_data": {
        "InChI": "InChI=1S/C18H24O2/c1-18-9-8-14-13-5-3-12(19)10-11(13)2-4-15(14)16(18)6-7-17(18)20/h3,5,10,14-17,19-20H,2,4,6-9H2,1H3/t14-,15-,16+,17+,18+/m1/s1",
        "InChIKey": null,
        "Canonical SMILES": "OC1=CC=C2C(=C1)CCC3C2CCC4(C)C(O)CCC34",
        "Molecular Formula": "C<sub>18</sub>H<sub>24</sub>O<sub>2</sub>",
        "Molecular Mass": "272.38",
        "Melting Point": "173-179 °C"
    }
}