{
    "cas_no": "402-66-4",
    "key_name": "5-Fluoronicotinic acid",
    "cn_name": "5-氟烟酸;",
    "alternate_name": "3-Pyridinecarboxylic acid, 5-fluoro-;Nicotinic acid, 5-fluoro-;5-Fluoro-3-pyridinecarboxylic acid;5-Fluoronicotinic acid",
    "duplicated_cas_no": "",
    "SMILES": "C(O)(=O)C=1C=C(F)C=NC1",
    "meta_data": {
        "InChI": "InChI=1S/C6H4FNO2/c7-5-1-4(6(9)10)2-8-3-5/h1-3H,(H,9,10)",
        "InChIKey": null,
        "Canonical SMILES": "O=C(O)C=1C=NC=C(F)C1",
        "Molecular Formula": "C<sub>6</sub>H<sub>4</sub>FNO<sub>2</sub>",
        "Molecular Mass": "141.10",
        "Melting Point": "195-197 °C"
    }
}