{
    "cas_no": "2493-04-1",
    "key_name": "5-Nitrofurfuryl alcohol",
    "cn_name": "5-硝基糠基乙醇;",
    "alternate_name": "2-Furanmethanol, 5-nitro-;Furfuryl alcohol, 5-nitro-;5-Nitro-2-furanmethanol;5-Nitrofurfuryl alcohol;2-(Hydroxymethyl)-5-nitrofuran;NSC 6454;(5-Nitrofuran-2-yl)methanol",
    "duplicated_cas_no": "",
    "SMILES": "N(=O)(=O)C=1OC(CO)=CC1",
    "meta_data": {
        "InChI": "InChI=1S/C5H5NO4/c7-3-4-1-2-5(10-4)6(8)9/h1-2,7H,3H2",
        "InChIKey": null,
        "Canonical SMILES": "O=N(=O)C=1OC(=CC1)CO",
        "Molecular Formula": "C<sub>5</sub>H<sub>5</sub>NO<sub>4</sub>",
        "Molecular Mass": "143.10",
        "Melting Point": "30-32 °C"
    }
}