{
    "cas_no": "1576-87-0",
    "key_name": "(<em>E</em>)-2-Pentenal",
    "cn_name": null,
    "alternate_name": "2-Pentenal, (2<em>E</em>)-;2-Pentenal, (<em>E</em>)-;(2<em>E</em>)-2-Pentenal;<em>trans</em>-2-Pentenal;(<em>E</em>)-2-Pentenal;2-<em>trans</em>-Pentenal",
    "duplicated_cas_no": "149681-63-0",
    "SMILES": "C(=C/C=O)\\CC",
    "meta_data": {
        "InChI": "InChI=1S/C5H8O/c1-2-3-4-5-6/h3-5H,2H2,1H3/b4-3+",
        "InChIKey": null,
        "Canonical SMILES": "O=CC=CCC",
        "Molecular Formula": "C<sub>5</sub>H<sub>8</sub>O",
        "Molecular Mass": "84.12",
        "Boiling Point": "80-81 °C @ Press: 160 Torr",
        "Melting Point": "140-141 °C"
    }
}