{
    "cas_no": "541-46-8",
    "key_name": "3-Methylbutanamide",
    "cn_name": "3-甲基-1-丁酰胺;",
    "alternate_name": "Butanamide, 3-methyl-;Isovaleramide;3-Methylbutanamide;Isovaleric acid amide;3-Methylbutyramide;β-Methylbutyramide;Isopentanamide;NSC 402555;NPS 1776",
    "duplicated_cas_no": "502641-01-2",
    "SMILES": "C(C(C)C)C(N)=O",
    "meta_data": {
        "InChI": "InChI=1S/C5H11NO/c1-4(2)3-5(6)7/h4H,3H2,1-2H3,(H2,6,7)",
        "InChIKey": null,
        "Canonical SMILES": "O=C(N)CC(C)C",
        "Molecular Formula": "C<sub>5</sub>H<sub>11</sub>NO",
        "Molecular Mass": "101.15",
        "Boiling Point": "226 °C",
        "Melting Point": "137 °C"
    }
}