{
    "cas_no": "10111-08-7",
    "key_name": "Imidazole-2-carboxaldehyde",
    "cn_name": "2-咪唑甲醛;2-甲酰基咪唑;",
    "alternate_name": "1<em>H</em>-Imidazole-2-carboxaldehyde;Imidazole-2-carboxaldehyde;2-Formylimidazole;2-Imidazolecarbaldehyde;2-Imidazolylformaldehyde;1<em>H</em>-Imidazole-2-carbaldehyde;Imidazole-2-formaldehyde",
    "duplicated_cas_no": "",
    "SMILES": "C(=O)C=1NC=CN1",
    "meta_data": {
        "InChI": "InChI=1S/C4H4N2O/c7-3-4-5-1-2-6-4/h1-3H,(H,5,6)",
        "InChIKey": null,
        "Canonical SMILES": "O=CC1=NC=CN1",
        "Molecular Formula": "C<sub>4</sub>H<sub>4</sub>N<sub>2</sub>O",
        "Molecular Mass": "96.09",
        "Melting Point": "204 °C"
    }
}