{
    "cas_no": "30536-19-7",
    "key_name": "5-Chloro-4-amino-2,1,3-benzothiadiazole",
    "cn_name": "4-氨基-5-氯-2,1,3-苯并噻二唑;",
    "alternate_name": "2,1,3-Benzothiadiazol-4-amine, 5-chloro-;2,1,3-Benzothiadiazole, 4-amino-5-chloro-;5-Chloro-2,1,3-benzothiadiazol-4-amine;5-Chloro-4-amino-2,1,3-benzothiadiazole;4-Amino-5-chloro-2,1,3-benzothiadiazole",
    "duplicated_cas_no": "115398-34-0",
    "SMILES": "NC=1C=2C(C=CC1Cl)=NSN2",
    "meta_data": {
        "InChI": "InChI=1S/C6H4ClN3S/c7-3-1-2-4-6(5(3)8)10-11-9-4/h1-2H,8H2",
        "InChIKey": null,
        "Canonical SMILES": "ClC=1C=CC2=NSN=C2C1N",
        "Molecular Formula": "C<sub>6</sub>H<sub>4</sub>ClN<sub>3</sub>S",
        "Molecular Mass": "185.63",
        "Melting Point": "92 °C"
    }
}