{
    "cas_no": "56-41-7",
    "key_name": "<span class=\"text-smallcaps\">L</span>-Alanine",
    "cn_name": "L-丙氨酸;",
    "alternate_name": "<span class=\"text-smallcaps\">L</span>-Alanine;Alanine, <span class=\"text-smallcaps\">L</span>-;<span class=\"text-smallcaps\">L</span>-α-Alanine;<span class=\"text-smallcaps\">L</span>-2-Aminopropanoic acid;<span class=\"text-smallcaps\">L</span>-α-Aminopropionic acid;α-Alanine;(<em>S</em>)-Alanine;<span class=\"text-smallcaps\">L</span>-(+)-Alanine;Alanine;Propanoic acid, 2-amino-, (<em>S</em>)-;<span class=\"text-smallcaps\">L</span>-2-Aminopropionic acid;α-Aminopropionic acid;(<em>S</em>)-2-Aminopropanoic acid;(<em>S</em>)-(+)-Alanine;NSC 206315;(2<em>S</em>)-2-Aminopropanoic acid;Lactamine;2-Aminopropionic acid;(2S)-2-Aminopropanoic acid;(2S)-2-Azaniumylpropanoate;8: PN: WO2021055880 SEQID: 9 claimed protein;519: PN: WO2022056313 SEQID: 535 claimed protein;364: PN: US20220128567 SEQID: 535 claimed protein;364: PN: US20220178935 SEQID: 535 claimed protein;12: PN: WO2022187968 SEQID: 12 claimed protein;MeSH ID: D000409;533: PN: WO2023172654 SEQID: 535 claimed sequence",
    "duplicated_cas_no": "115967-49-2;6898-94-8;759445-89-1;787635-21-6;170805-71-7;1150316-17-8",
    "SMILES": "[C@@H](C(O)=O)(C)N",
    "meta_data": {
        "InChI": "InChI=1S/C3H7NO2/c1-2(4)3(5)6/h2H,4H2,1H3,(H,5,6)/t2-/m0/s1",
        "InChIKey": null,
        "Canonical SMILES": "O=C(O)C(N)C",
        "Molecular Formula": "C<sub>3</sub>H<sub>7</sub>NO<sub>2</sub>",
        "Molecular Mass": "89.09",
        "Melting Point": "300 °C (decomp)",
        "Density": "1.432 g/cm³ @ Temp: 22 °C"
    }
}