{
    "cas_no": "5989-02-6",
    "key_name": "Loliolide",
    "cn_name": null,
    "alternate_name": "2(4<em>H</em>)-Benzofuranone, 5,6,7,7a-tetrahydro-6-hydroxy-4,4,7a-trimethyl-, (6<em>S</em>,7a<em>R</em>)-;2(4<em>H</em>)-Benzofuranone, 5,6,7,7a-tetrahydro-6β-hydroxy-4,4,7aβ-trimethyl-;2(4<em>H</em>)-Benzofuranone, 5,6,7,7a-tetrahydro-6-hydroxy-4,4,7a-trimethyl-, (6<em>S</em>-<em>cis</em>)-;(6<em>S</em>,7a<em>R</em>)-5,6,7,7a-Tetrahydro-6-hydroxy-4,4,7a-trimethyl-2(4<em>H</em>)-benzofuranone;Loliolide;Loliolid;(-)-Loliolide;Digiprolactone;Calendin;NSC 289632;Caulilide;(6S,7AR)-loliolide",
    "duplicated_cas_no": "11028-27-6",
    "SMILES": "C[C@]12C(C(C)(C)C[C@H](O)C1)=CC(=O)O2",
    "meta_data": {
        "InChI": "InChI=1S/C11H16O3/c1-10(2)5-7(12)6-11(3)8(10)4-9(13)14-11/h4,7,12H,5-6H2,1-3H3/t7-,11+/m0/s1",
        "InChIKey": null,
        "Canonical SMILES": "O=C1OC2(C(=C1)C(C)(C)CC(O)C2)C",
        "Molecular Formula": "C<sub>11</sub>H<sub>16</sub>O<sub>3</sub>",
        "Molecular Mass": "196.24",
        "Melting Point": "151-152 °C"
    }
}