{
    "cas_no": "6940-53-0",
    "key_name": "1-Chloro-2,5-dimethoxy-4-nitrobenzene",
    "cn_name": "4-氯-2,5-二甲氧基硝基苯;",
    "alternate_name": "Benzene, 1-chloro-2,5-dimethoxy-4-nitro-;1-Chloro-2,5-dimethoxy-4-nitrobenzene;4-Chloro-2,5-dimethoxynitrobenzene;NSC 60143;1-Chloro-2,5-bis(methyloxy)-4-nitrobenzene;2,5-Dimethoxy-4-chloronitrobenzene",
    "duplicated_cas_no": "",
    "SMILES": "N(=O)(=O)C1=C(OC)C=C(Cl)C(OC)=C1",
    "meta_data": {
        "InChI": "InChI=1S/C8H8ClNO4/c1-13-7-4-6(10(11)12)8(14-2)3-5(7)9/h3-4H,1-2H3",
        "InChIKey": null,
        "Canonical SMILES": "O=N(=O)C1=CC(OC)=C(Cl)C=C1OC",
        "Molecular Formula": "C<sub>8</sub>H<sub>8</sub>ClNO<sub>4</sub>",
        "Molecular Mass": "217.61",
        "Melting Point": "144-145 °C"
    }
}