{
    "cas_no": "2115-91-5",
    "key_name": "(-)-Dendrobine",
    "cn_name": null,
    "alternate_name": "7,5-(Epoxymethano)-1<em>H</em>-cyclopent[<em>cd</em>]indol-9-one, decahydro-1,7b-dimethyl-6-(1-methylethyl)-, (2a<em>S</em>,4a<em>S</em>,5<em>R</em>,6<em>S</em>,7<em>R</em>,7a<em>S</em>,7b<em>R</em>)-;Dendrobine;Dendroban-12-one;(2a<em>S</em>,4a<em>S</em>,5<em>R</em>,6<em>S</em>,7<em>R</em>,7a<em>S</em>,7b<em>R</em>)-Decahydro-1,7b-dimethyl-6-(1-methylethyl)-7,5-(epoxymethano)-1<em>H</em>-cyclopent[<em>cd</em>]indol-9-one;7,5-(Epoxymethano)-1<em>H</em>-cyclopent[<em>cd</em>]indol-9-one, decahydro-1,7b-dimethyl-6-(1-methylethyl)-, [2a<em>S</em>-(2aα,4aα,5β,6α,7β,7aα,7bα)]-;(-)-Dendrobine;12-Oxodendrobane;NSC 607862",
    "duplicated_cas_no": "27150-29-4;27298-09-5;1071660-13-3;1194762-80-5",
    "SMILES": "C[C@@]12[C@]3([C@]4([C@@H]([C@@H](C)C)[C@@]([C@@]1(CC[C@@]2(CN3C)[H])[H])(C(=O)O4)[H])[H])[H]",
    "meta_data": {
        "InChI": "InChI=1S/C16H25NO2/c1-8(2)11-12-10-6-5-9-7-17(4)14(16(9,10)3)13(11)19-15(12)18/h8-14H,5-7H2,1-4H3/t9-,10+,11+,12-,13-,14-,16+/m1/s1",
        "InChIKey": null,
        "Canonical SMILES": "O=C1OC2C3N(C)CC4CCC(C1C2C(C)C)C34C",
        "Molecular Formula": "C<sub>16</sub>H<sub>25</sub>NO<sub>2</sub>",
        "Molecular Mass": "263.38",
        "Melting Point": "134 °C"
    }
}