{
    "cas_no": "606-46-2",
    "key_name": "<em>N</em>,<em>N</em>-Diethyl-<em>o</em>-toluidine",
    "cn_name": "N,N-二乙基邻甲苯胺;N,N-二乙基-2-甲基苯胺;2-甲基-N,N-二乙基苯胺;2-(二乙胺基)甲苯;",
    "alternate_name": "Benzenamine, <em>N</em>,<em>N</em>-diethyl-2-methyl-;<em>o</em>-Toluidine, <em>N</em>,<em>N</em>-diethyl-;<em>N</em>,<em>N</em>-Diethyl-2-methylbenzenamine;<em>N</em>,<em>N</em>-Diethyl-<em>o</em>-toluidine;2-(Dimethylamino)toluene;<em>N</em>,<em>N</em>-Diethyl-2-methylaniline;<em>N</em>,<em>N</em>-Diethyl-<em>o</em>-methylaniline;NSC 8708",
    "duplicated_cas_no": "",
    "SMILES": "N(CC)(CC)C1=C(C)C=CC=C1",
    "meta_data": {
        "InChI": "InChI=1S/C11H17N/c1-4-12(5-2)11-9-7-6-8-10(11)3/h6-9H,4-5H2,1-3H3",
        "InChIKey": null,
        "Canonical SMILES": "C=1C=CC(=C(C1)N(CC)CC)C",
        "Molecular Formula": "C<sub>11</sub>H<sub>17</sub>N",
        "Molecular Mass": "163.26",
        "Boiling Point": "209 °C",
        "Melting Point": "-60 °C"
    }
}