{
    "cas_no": "15573-38-3",
    "key_name": "Tris(trimethylsilyl)phosphine",
    "cn_name": "氘代3-氨基-5-吗啉-4-甲基-恶唑-2-啉酮;三(三甲硅基)膦;三(三甲硅烷基)膦;[三(三甲硅基)]磷;",
    "alternate_name": "Phosphine, tris(trimethylsilyl)-;Tris(trimethylsilyl)phosphine;Tris(trimethylsilyl)phosphane;NSC 117328;Tri(trimethylsilyl)phosphine",
    "duplicated_cas_no": "",
    "SMILES": "P([Si](C)(C)C)([Si](C)(C)C)[Si](C)(C)C",
    "meta_data": {
        "InChI": "InChI=1S/C9H27PSi3/c1-11(2,3)10(12(4,5)6)13(7,8)9/h1-9H3",
        "InChIKey": null,
        "Canonical SMILES": "P([Si](C)(C)C)([Si](C)(C)C)[Si](C)(C)C",
        "Molecular Formula": "C<sub>9</sub>H<sub>27</sub>PSi<sub>3</sub>",
        "Molecular Mass": "250.54",
        "Boiling Point": "102-105 °C @ Press: 16 Torr",
        "Density": "0.72 g/cm³"
    }
}