{
    "cas_no": "491-78-1",
    "key_name": "5-Hydroxyflavone",
    "cn_name": "5-羟基黄酮;5-羟基黄酮;",
    "alternate_name": "4<em>H</em>-1-Benzopyran-4-one, 5-hydroxy-2-phenyl-;Flavone, 5-hydroxy-;5-Hydroxy-2-phenyl-4<em>H</em>-1-benzopyran-4-one;5-Hydroxyflavone;5-Hydroxy-2-phenylchromone;Primuletin;NSC 26745;5-Hydroxy-2-phenylchromen-4-one;5-Hydroxy-2-phenyl-4<em>H</em>-chromen-4-one",
    "duplicated_cas_no": "",
    "SMILES": "O=C1C=2C(OC(=C1)C3=CC=CC=C3)=CC=CC2O",
    "meta_data": {
        "InChI": "InChI=1S/C15H10O3/c16-11-7-4-8-13-15(11)12(17)9-14(18-13)10-5-2-1-3-6-10/h1-9,16H",
        "InChIKey": null,
        "Canonical SMILES": "O=C1C=C(OC=2C=CC=C(O)C12)C=3C=CC=CC3",
        "Molecular Formula": "C<sub>15</sub>H<sub>10</sub>O<sub>3</sub>",
        "Molecular Mass": "238.24",
        "Melting Point": "156-157 °C"
    }
}