{
    "cas_no": "59337-93-8",
    "key_name": "2-Thiophenecarboxylic acid, 3-(aminosulfonyl)-, methyl ester",
    "cn_name": "3-磺酰氨基-2-噻吩羧酸甲酯;3-磺酰氨基-2-噻吩甲酸甲酯;",
    "alternate_name": "2-Thiophenecarboxylic acid, 3-(aminosulfonyl)-, methyl ester;3-Sulfamoyl-2-(methoxycarbonyl)thiophene;Methyl 3-(aminosulfonyl)-2-thiophenecarboxylate;Methyl 3-sulfamoyl-2-thiophenecarboxylate;2-(Methoxycarbonyl)thiophene-3-sulfonamide;3-Sulfamoyl-thiophene-2-carboxylic acid methyl ester",
    "duplicated_cas_no": "",
    "SMILES": "S(N)(=O)(=O)C1=C(C(OC)=O)SC=C1",
    "meta_data": {
        "InChI": "InChI=1S/C6H7NO4S2/c1-11-6(8)5-4(2-3-12-5)13(7,9)10/h2-3H,1H3,(H2,7,9,10)",
        "InChIKey": null,
        "Canonical SMILES": "O=C(OC)C=1SC=CC1S(=O)(=O)N",
        "Molecular Formula": "C<sub>6</sub>H<sub>7</sub>NO<sub>4</sub>S<sub>2</sub>",
        "Molecular Mass": "221.25",
        "Melting Point": "123-124 °C"
    }
}