{
    "cas_no": "2936-08-5",
    "key_name": "2-Propylpentanoyl chloride",
    "cn_name": "2,2-二-正丙基乙酰基氯;2-正丙基正戊酰氯;2,2-二-正丙基乙酰基氯,98%;2,2-二正丙基乙酰氯;",
    "alternate_name": "Pentanoyl chloride, 2-propyl-;Valeryl chloride, 2-propyl-;2-Propylpentanoyl chloride;2-Propylvaleryl chloride;4-(Chloroacetyl)heptane;Dipropylacetyl chloride;Valproic acid chloride;Valproyl chloride;2-<em>n</em>-Propyl-<em>n</em>-valeroyl chloride;2,2-Di-<em>n</em>-propylacetyl chloride;2,2-Dipropylacetyl chloride",
    "duplicated_cas_no": "",
    "SMILES": "C(CCC)(CCC)C(Cl)=O",
    "meta_data": {
        "InChI": "InChI=1S/C8H15ClO/c1-3-5-7(6-4-2)8(9)10/h7H,3-6H2,1-2H3",
        "InChIKey": null,
        "Canonical SMILES": "O=C(Cl)C(CCC)CCC",
        "Molecular Formula": "C<sub>8</sub>H<sub>15</sub>ClO",
        "Molecular Mass": "162.66",
        "Boiling Point": "70-72 °C @ Press: 11 Torr"
    }
}