{
    "cas_no": "933-67-5",
    "key_name": "7-Methylindole",
    "cn_name": "7-甲基吲哚;",
    "alternate_name": "1<em>H</em>-Indole, 7-methyl-;Indole, 7-methyl-;7-Methyl-1<em>H</em>-indole;7-Methylindole;NSC 618",
    "duplicated_cas_no": "",
    "SMILES": "CC1=C2C(=CC=C1)C=CN2",
    "meta_data": {
        "InChI": "InChI=1S/C9H9N/c1-7-3-2-4-8-5-6-10-9(7)8/h2-6,10H,1H3",
        "InChIKey": null,
        "Canonical SMILES": "C1=CC=2C=CNC2C(=C1)C",
        "Molecular Formula": "C<sub>9</sub>H<sub>9</sub>N",
        "Molecular Mass": "131.17",
        "Boiling Point": "266 °C",
        "Melting Point": "85 °C"
    }
}