{
    "cas_no": "13765-26-9",
    "key_name": "Gadolinium fluoride",
    "cn_name": "氟化钆;氟化钆无水;",
    "alternate_name": "Gadolinium fluoride (GdF<sub>3</sub>);Gadolinium trifluoride;Gadolinium fluoride",
    "duplicated_cas_no": "2445196-20-1",
    "SMILES": "[Gd](F)(F)F",
    "meta_data": {
        "InChI": "InChI=1S/3FH.Gd/h3*1H;/q;;;+3/p-3",
        "InChIKey": null,
        "Canonical SMILES": "F[Gd](F)F",
        "Molecular Formula": "F<sub>3</sub>Gd",
        "Molecular Mass": "",
        "Melting Point": "1231 °C",
        "Density": "3.213 g/cm³ (solid)"
    }
}