{
    "cas_no": "7417-21-2",
    "key_name": "2-(3,4-Dimethoxyphenyl)ethanol",
    "cn_name": "3,4-二甲氧基苯乙醇;",
    "alternate_name": "Benzeneethanol, 3,4-dimethoxy-;Phenethyl alcohol, 3,4-dimethoxy-;3,4-Dimethoxybenzeneethanol;3,4-Dimethoxyphenethanol;2-(3,4-Dimethoxyphenyl)ethanol;3,4-Dimethoxyphenethyl alcohol;3,4-Dimethoxy-β-phenethyl alcohol;1-(2-Hydroxyethyl)-3,4-dimethoxybenzene;Homoveratryl alcohol;AF 821;NSC 101852;NSC 179202;1,2-Dimethoxy-4-(2-hydroxyethyl)benzene;2-(3,4-Dimethoxyphenyl)ethan-1-ol",
    "duplicated_cas_no": "",
    "SMILES": "O(C)C1=C(OC)C=CC(CCO)=C1",
    "meta_data": {
        "InChI": "InChI=1S/C10H14O3/c1-12-9-4-3-8(5-6-11)7-10(9)13-2/h3-4,7,11H,5-6H2,1-2H3",
        "InChIKey": null,
        "Canonical SMILES": "OCCC1=CC=C(OC)C(OC)=C1",
        "Molecular Formula": "C<sub>10</sub>H<sub>14</sub>O<sub>3</sub>",
        "Molecular Mass": "182.22",
        "Boiling Point": "140-150 °C @ Press: 0.1 Torr",
        "Melting Point": "47-48 °C",
        "Density": "1.1403 g/cm³ @ Temp: 20 °C"
    }
}