{
    "cas_no": "513-35-9",
    "key_name": "2-Methyl-2-butene",
    "cn_name": "2-甲基-2-丁烯;beta-异戊烯;",
    "alternate_name": "2-Butene, 2-methyl-;2-Methyl-2-butene;Amylene;Trimethylethylene;β-Isoamylene;3-Methyl-2-butene;1,1,2-Trimethylethylene;Trimethylethene;NSC 74118;2-Methyl-2-butylene",
    "duplicated_cas_no": "",
    "SMILES": "C(=CC)(C)C",
    "meta_data": {
        "InChI": "InChI=1S/C5H10/c1-4-5(2)3/h4H,1-3H3",
        "InChIKey": null,
        "Canonical SMILES": "C(=C(C)C)C",
        "Molecular Formula": "C<sub>5</sub>H<sub>10</sub>",
        "Molecular Mass": "70.13",
        "Boiling Point": "37.5-38.5 °C",
        "Melting Point": "-133.61 °C",
        "Density": "0.66 g/cm³ @ Temp: 15 °C"
    }
}