{
    "cas_no": "18290-60-3",
    "key_name": "4-[2-(Trichlorosilyl)ethyl]cyclohexene",
    "cn_name": null,
    "alternate_name": "Cyclohexene, 4-[2-(trichlorosilyl)ethyl]-;Silane, trichloro[2-(3-cyclohexen-1-yl)ethyl]-;4-[2-(Trichlorosilyl)ethyl]cyclohexene;[2-(3-Cyclohexenyl)ethyl]trichlorosilane;2-(4-Cyclohexenyl)ethyltrichlorosilane",
    "duplicated_cas_no": "",
    "SMILES": "C(C[Si](Cl)(Cl)Cl)C1CCC=CC1",
    "meta_data": {
        "InChI": "InChI=1S/C8H13Cl3Si/c9-12(10,11)7-6-8-4-2-1-3-5-8/h1-2,8H,3-7H2",
        "InChIKey": null,
        "Canonical SMILES": "Cl[Si](Cl)(Cl)CCC1CC=CCC1",
        "Molecular Formula": "C<sub>8</sub>H<sub>13</sub>Cl<sub>3</sub>Si",
        "Molecular Mass": "243.63",
        "Boiling Point": "74-75 °C @ Press: 0.7 Torr",
        "Density": "1.230 g/cm³"
    }
}