{
    "cas_no": "19746-37-3",
    "key_name": "<em>S</em>-[(Acetylamino)methyl]-<em>N</em>-[(1,1-dimethylethoxy)carbonyl]-<span class=\"text-smallcaps\">L</span>-cysteine",
    "cn_name": "S-乙酰胺基甲基-N-叔丁氧羰基-L-半胱氨酸;",
    "alternate_name": "<span class=\"text-smallcaps\">L</span>-Cysteine, <em>S</em>-[(acetylamino)methyl]-<em>N</em>-[(1,1-dimethylethoxy)carbonyl]-;Alanine, 3-[(acetamidomethyl)thio]-<em>N</em>-carboxy-, <em>N</em>-<em>tert</em>-butyl ester, <span class=\"text-smallcaps\">L</span>-;<em>S</em>-[(Acetylamino)methyl]-<em>N</em>-[(1,1-dimethylethoxy)carbonyl]-<span class=\"text-smallcaps\">L</span>-cysteine;<em>N</em>-<em>tert</em>-Butoxycarbonyl-<em>S</em>-(acetamidomethyl)-<span class=\"text-smallcaps\">L</span>-cysteine",
    "duplicated_cas_no": "57084-72-7",
    "SMILES": "[C@H](NC(OC(C)(C)C)=O)(CSCNC(C)=O)C(O)=O",
    "meta_data": {
        "InChI": "InChI=1S/C11H20N2O5S/c1-7(14)12-6-19-5-8(9(15)16)13-10(17)18-11(2,3)4/h8H,5-6H2,1-4H3,(H,12,14)(H,13,17)(H,15,16)/t8-/m0/s1",
        "InChIKey": null,
        "Canonical SMILES": "O=C(OC(C)(C)C)NC(C(=O)O)CSCNC(=O)C",
        "Molecular Formula": "C<sub>11</sub>H<sub>20</sub>N<sub>2</sub>O<sub>5</sub>S",
        "Molecular Mass": "292.35",
        "Melting Point": "110-112 °C"
    }
}