{
    "cas_no": "193954-27-7",
    "key_name": "(3<em>R</em>,4<em>S</em>)-3-[[(9<em>H</em>-Fluoren-9-ylmethoxy)carbonyl]amino]-4-methylhexanoic acid",
    "cn_name": null,
    "alternate_name": "Hexanoic acid, 3-[[(9<em>H</em>-fluoren-9-ylmethoxy)carbonyl]amino]-4-methyl-, (3<em>R</em>,4<em>S</em>)-;Hexanoic acid, 3-[[(9<em>H</em>-fluoren-9-ylmethoxy)carbonyl]amino]-4-methyl-, [<em>R</em>-(<em>R</em>*,<em>S</em>*)]-;(3<em>R</em>,4<em>S</em>)-3-[[(9<em>H</em>-Fluoren-9-ylmethoxy)carbonyl]amino]-4-methylhexanoic acid",
    "duplicated_cas_no": "",
    "SMILES": "C(OC(N[C@@H]([C@H](CC)C)CC(O)=O)=O)C1C=2C(C=3C1=CC=CC3)=CC=CC2",
    "meta_data": {
        "InChI": "InChI=1S/C22H25NO4/c1-3-14(2)20(12-21(24)25)23-22(26)27-13-19-17-10-6-4-8-15(17)16-9-5-7-11-18(16)19/h4-11,14,19-20H,3,12-13H2,1-2H3,(H,23,26)(H,24,25)/t14-,20+/m0/s1",
        "InChIKey": null,
        "Canonical SMILES": "O=C(OCC1C=2C=CC=CC2C=3C=CC=CC31)NC(CC(=O)O)C(C)CC",
        "Molecular Formula": "C<sub>22</sub>H<sub>25</sub>NO<sub>4</sub>",
        "Molecular Mass": "367.44",
        "Melting Point": "98-100 °C"
    }
}