{
    "cas_no": "1239-29-8",
    "key_name": "Furazabol",
    "cn_name": "夫拉扎勃;去脂舒;呋咱甲氢龙;",
    "alternate_name": "Androstano[2,3-<em>c</em>][1,2,5]oxadiazol-17-ol, 17-methyl-, (5α,17β)-;5α-Androstano[2,3-<em>c</em>][1,2,5]oxadiazol-17β-ol, 17-methyl-;1<em>H</em>-Cyclopenta[7,8]phenanthro[2,3-<em>c</em>][1,2,5]oxadiazol-1-ol, 2,3,3aα,3bβ,4,5,5aα,6,10,10a,10bα,11,12,12a-tetradecahydro-1α,10aβ,12aβ-trimethyl-;(5α,17β)-17-Methylandrostano[2,3-<em>c</em>][1,2,5]oxadiazol-17-ol;Furazabol;17-Methyl-5α-androstano[2,3-<em>c</em>]furazan-17β-ol;5α-Androstano[2,3-<em>c</em>]furazan-17β-ol, 17-methyl-;Frazalon;Miotolon;Qu Zhi Shu",
    "duplicated_cas_no": "",
    "SMILES": "C[C@@]12[C@@]3([C@]([C@]4([C@](C)(CC3)[C@@](C)(O)CC4)[H])(CC[C@]1(CC=5C(C2)=NON5)[H])[H])[H]",
    "meta_data": {
        "InChI": "InChI=1S/C20H30N2O2/c1-18-11-17-16(21-24-22-17)10-12(18)4-5-13-14(18)6-8-19(2)15(13)7-9-20(19,3)23/h12-15,23H,4-11H2,1-3H3/t12-,13+,14-,15-,18-,19-,20-/m0/s1",
        "InChIKey": null,
        "Canonical SMILES": "OC1(C)CCC2C3CCC4CC5=NON=C5CC4(C)C3CCC21C",
        "Molecular Formula": "C<sub>20</sub>H<sub>30</sub>N<sub>2</sub>O<sub>2</sub>",
        "Molecular Mass": "330.46",
        "Melting Point": "152.5 °C"
    }
}