{
    "cas_no": "72963-77-0",
    "key_name": "(3<em>R</em>,4a<em>R</em>,5<em>S</em>,6<em>S</em>,6a<em>S</em>,10a<em>S</em>,10b<em>S</em>)-5-(Acetyloxy)-3-ethenyldodecahydro-6,10b-dihydroxy-3,4a,7,7,10a-pentamethyl-1<em>H</em>-naphtho[2,1-<em>b</em>]pyran-1-one",
    "cn_name": "福司可林;",
    "alternate_name": "1<em>H</em>-Naphtho[2,1-<em>b</em>]pyran-1-one, 5-(acetyloxy)-3-ethenyldodecahydro-6,10b-dihydroxy-3,4a,7,7,10a-pentamethyl-, (3<em>R</em>,4a<em>R</em>,5<em>S</em>,6<em>S</em>,6a<em>S</em>,10a<em>S</em>,10b<em>S</em>)-;1<em>H</em>-Naphtho[2,1-<em>b</em>]pyran-1-one, 5-(acetyloxy)-3-ethenyldodecahydro-6,10b-dihydroxy-3,4a,7,7,10a-pentamethyl-, [3<em>R</em>-(3α,4aβ,5β,6β,6aα,10aβ,10bα)]-;(3<em>R</em>,4a<em>R</em>,5<em>S</em>,6<em>S</em>,6a<em>S</em>,10a<em>S</em>,10b<em>S</em>)-5-(Acetyloxy)-3-ethenyldodecahydro-6,10b-dihydroxy-3,4a,7,7,10a-pentamethyl-1<em>H</em>-naphtho[2,1-<em>b</em>]pyran-1-one;Coleonol D;1-Deoxyforskolin;Forskolin F",
    "duplicated_cas_no": "108393-63-1",
    "SMILES": "C[C@]12[C@@](O)([C@]3(C)[C@@]([C@H](O)[C@@H]1OC(C)=O)(C(C)(C)CCC3)[H])C(=O)C[C@@](C=C)(C)O2",
    "meta_data": {
        "InChI": "InChI=1S/C22H34O6/c1-8-19(5)12-14(24)22(26)20(6)11-9-10-18(3,4)16(20)15(25)17(27-13(2)23)21(22,7)28-19/h8,15-17,25-26H,1,9-12H2,2-7H3/t15-,16-,17-,19-,20-,21+,22-/m0/s1",
        "InChIKey": null,
        "Canonical SMILES": "O=C(OC1C(O)C2C(C)(C)CCCC2(C)C3(O)C(=O)CC(OC13C)(C=C)C)C",
        "Molecular Formula": "C<sub>22</sub>H<sub>34</sub>O<sub>6</sub>",
        "Molecular Mass": "394.50",
        "Melting Point": "135-136 °C"
    }
}