{
    "cas_no": "10237-77-1",
    "key_name": "3-Hydroxyvaleric acid",
    "cn_name": null,
    "alternate_name": "Pentanoic acid, 3-hydroxy-;Valeric acid, 3-hydroxy-;3-Hydroxypentanoic acid;β-Hydroxy-<em>n</em>-valeric acid;β-Hydroxyvaleric acid;3-Hydroxy-<em>n</em>-valeric acid;3-Hydroxyvaleric acid;(±)-3-Hydroxypentanoic acid;β-Hydroxypentanoic acid",
    "duplicated_cas_no": "42482-20-2",
    "SMILES": "C(CC(O)=O)(CC)O",
    "meta_data": {
        "InChI": "InChI=1S/C5H10O3/c1-2-4(6)3-5(7)8/h4,6H,2-3H2,1H3,(H,7,8)",
        "InChIKey": null,
        "Canonical SMILES": "O=C(O)CC(O)CC",
        "Molecular Formula": "C<sub>5</sub>H<sub>10</sub>O<sub>3</sub>",
        "Molecular Mass": "118.13",
        "Melting Point": "43-44 °C"
    }
}