{
    "cas_no": "13730-09-1",
    "key_name": "2,5-Dimethylbenzonitrile",
    "cn_name": null,
    "alternate_name": "Benzonitrile, 2,5-dimethyl-;2,5-Dimethylbenzonitrile",
    "duplicated_cas_no": "",
    "SMILES": "C(#N)C1=C(C)C=CC(C)=C1",
    "meta_data": {
        "InChI": "InChI=1S/C9H9N/c1-7-3-4-8(2)9(5-7)6-10/h3-5H,1-2H3",
        "InChIKey": null,
        "Canonical SMILES": "N#CC1=CC(=CC=C1C)C",
        "Molecular Formula": "C<sub>9</sub>H<sub>9</sub>N",
        "Molecular Mass": "131.17",
        "Boiling Point": "104-105 °C @ Press: 18 Torr",
        "Melting Point": "-3-6 °C"
    }
}