{
    "cas_no": "54947-74-9",
    "key_name": "4-Methyloctanoic acid",
    "cn_name": "4-甲基辛酸;",
    "alternate_name": "Octanoic acid, 4-methyl-;4-Methyloctanoic acid;4-Methylcaprylic acid;Hircinoic acid",
    "duplicated_cas_no": "153831-54-0",
    "SMILES": "C(CCC(O)=O)(CCCC)C",
    "meta_data": {
        "InChI": "InChI=1S/C9H18O2/c1-3-4-5-8(2)6-7-9(10)11/h8H,3-7H2,1-2H3,(H,10,11)",
        "InChIKey": null,
        "Canonical SMILES": "O=C(O)CCC(C)CCCC",
        "Molecular Formula": "C<sub>9</sub>H<sub>18</sub>O<sub>2</sub>",
        "Molecular Mass": "158.24",
        "Boiling Point": "140-142 °C @ Press: 10 Torr",
        "Melting Point": "110.5-111.5 °C",
        "Density": "0.091518 g/cm³ @ Temp: 20 °C"
    }
}