{
    "cas_no": "2637-34-5",
    "key_name": "2-Mercaptopyridine",
    "cn_name": "2-疏基吡啶;",
    "alternate_name": "2(1<em>H</em>)-Pyridinethione;2-Mercaptopyridine;2-Thiopyridine;2-Pyridinethiol;2-Pyridinethione;2-Thiopyridone;2-Pyridyl mercaptan;WR 608;2-Pyridylthiol;2-Sulfanylpyridine;1<em>H</em>-Pyridine-2-thione;NSC 41337;Alrithiol-2;1,2-Dihydropyridine-2-thione;2-Pyridothione",
    "duplicated_cas_no": "1120-96-3;123574-65-2;811801-36-2;1623130-98-2",
    "SMILES": "S=C1C=CC=CN1",
    "meta_data": {
        "InChI": "InChI=1S/C5H5NS/c7-5-3-1-2-4-6-5/h1-4H,(H,6,7)",
        "InChIKey": null,
        "Canonical SMILES": "S=C1C=CC=CN1",
        "Molecular Formula": "C<sub>5</sub>H<sub>5</sub>NS",
        "Molecular Mass": "111.16",
        "Melting Point": "128-130 °C"
    }
}