{
    "cas_no": "110-17-8",
    "key_name": "Fumaric acid",
    "cn_name": "富马酸;反丁烯二酸;",
    "alternate_name": "2-Butenedioic acid (2<em>E</em>)-;Fumaric acid;2-Butenedioic acid (<em>E</em>)-;(2<em>E</em>)-2-Butenedioic acid;Allomaleic acid;Boletic acid;<em>trans</em>-Butenedioic acid;<em>trans</em>-1,2-Ethylenedicarboxylic acid;Lichenic acid;2-Butenedioic acid, (<em>E</em>)-;<em>trans</em>-2-Butenedioic acid;2-(E)-Butenedioic acid;FC 33;(<em>E</em>)-2-Butenedioic acid;FC 33 (acid);(2<em>E</em>)-But-2-enedioic acid;NSC 2752;Petrom;Bakeshure 451;Bakeshure 470;(2E)-But-2-enedioic acid;Fumarates;MeSH ID: D005650",
    "duplicated_cas_no": "623158-97-4;909873-99-0",
    "SMILES": "C(=C/C(O)=O)\\C(O)=O",
    "meta_data": {
        "InChI": "InChI=1S/C4H4O4/c5-3(6)1-2-4(7)8/h1-2H,(H,5,6)(H,7,8)/b2-1+",
        "InChIKey": null,
        "Canonical SMILES": "O=C(O)C=CC(=O)O",
        "Molecular Formula": "C<sub>4</sub>H<sub>4</sub>O<sub>4</sub>",
        "Molecular Mass": "116.07",
        "Boiling Point": "522 °C",
        "Melting Point": "200 °C (sublm)",
        "Density": "1.635 g/cm³ @ Temp: 20 °C"
    }
}