{
    "cas_no": "1485-70-7",
    "key_name": "<em>N</em>-Benzylbenzamide",
    "cn_name": null,
    "alternate_name": "Benzamide, <em>N</em>-(phenylmethyl)-;Benzamide, <em>N</em>-benzyl-;<em>N</em>-(Phenylmethyl)benzamide;<em>N</em>-Benzylbenzamide;<em>N</em>-Benzoylbenzylamine;Benzoic acid benzylamide;NSC 31622",
    "duplicated_cas_no": "",
    "SMILES": "C(NCC1=CC=CC=C1)(=O)C2=CC=CC=C2",
    "meta_data": {
        "InChI": "InChI=1S/C14H13NO/c16-14(13-9-5-2-6-10-13)15-11-12-7-3-1-4-8-12/h1-10H,11H2,(H,15,16)",
        "InChIKey": null,
        "Canonical SMILES": "O=C(NCC=1C=CC=CC1)C=2C=CC=CC2",
        "Molecular Formula": "C<sub>14</sub>H<sub>13</sub>NO",
        "Molecular Mass": "211.26",
        "Boiling Point": "104-106 °C",
        "Melting Point": "105 °C"
    }
}