{
    "cas_no": "27470-51-5",
    "key_name": "Suxibuzone",
    "cn_name": "琥布宗; 4-丁基-4-(羟甲基)-1,2-二苯基-3,5-吡唑烷二酮丁二酸单酯;",
    "alternate_name": "Butanedioic acid, 1-[(4-butyl-3,5-dioxo-1,2-diphenyl-4-pyrazolidinyl)methyl] ester;Succinic acid, monoester with 4-butyl-4-(hydroxymethyl)-1,2-diphenyl-3,5-pyrazolidinedione;Butanedioic acid, mono[(4-butyl-3,5-dioxo-1,2-diphenyl-4-pyrazolidinyl)methyl] ester;3,5-Pyrazolidinedione, 4-butyl-4-(hydroxymethyl)-1,2-diphenyl-, hydrogen succinate (ester);4-Hydroxymethylbutazolidine hemisuccinate;Suxibuzone;AE 17;Flogos;Solurol;Calibene;Danilon;Suxibutazone",
    "duplicated_cas_no": "",
    "SMILES": "C(OC(CCC(O)=O)=O)C1(CCCC)C(=O)N(N(C1=O)C2=CC=CC=C2)C3=CC=CC=C3",
    "meta_data": {
        "InChI": "InChI=1S/C24H26N2O6/c1-2-3-16-24(17-32-21(29)15-14-20(27)28)22(30)25(18-10-6-4-7-11-18)26(23(24)31)19-12-8-5-9-13-19/h4-13H,2-3,14-17H2,1H3,(H,27,28)",
        "InChIKey": null,
        "Canonical SMILES": "O=C(O)CCC(=O)OCC1(C(=O)N(C=2C=CC=CC2)N(C=3C=CC=CC3)C1=O)CCCC",
        "Molecular Formula": "C<sub>24</sub>H<sub>26</sub>N<sub>2</sub>O<sub>6</sub>",
        "Molecular Mass": "438.47",
        "Melting Point": "126-127 °C"
    }
}