{
    "cas_no": "556-08-1",
    "key_name": "<em>p</em>-Acetamidobenzoic acid",
    "cn_name": "对乙酰氨基苯甲酸;4-乙酰氨基苯甲酸;",
    "alternate_name": "Benzoic acid, 4-(acetylamino)-;Benzoic acid, <em>p</em>-acetamido-;4-(Acetylamino)benzoic acid;<em>p</em>-(Acetoamino)benzoic acid;<em>p</em>-Acetamidobenzoic acid;4-Acetamidobenzoic acid;<em>p</em>-(Acetylamino)benzoic acid;<em>N</em>-Acetyl-<em>p</em>-aminobenzoic acid;4′-Carboxyacetanilide;<em>p</em>-Acetaminobenzoic acid;Acedoben;NSC 4002",
    "duplicated_cas_no": "",
    "SMILES": "N(C(C)=O)C1=CC=C(C(O)=O)C=C1",
    "meta_data": {
        "InChI": "InChI=1S/C9H9NO3/c1-6(11)10-8-4-2-7(3-5-8)9(12)13/h2-5H,1H3,(H,10,11)(H,12,13)",
        "InChIKey": null,
        "Canonical SMILES": "O=C(O)C1=CC=C(C=C1)NC(=O)C",
        "Molecular Formula": "C<sub>9</sub>H<sub>9</sub>NO<sub>3</sub>",
        "Molecular Mass": "179.17",
        "Melting Point": "260 °C (decomp)",
        "Density": "1.41 g/cm³"
    }
}