{
    "cas_no": "7223-50-9",
    "key_name": "2-(2-Propyn-1-yl)-1<em>H</em>-isoindole-1,3(2<em>H</em>)-dione",
    "cn_name": null,
    "alternate_name": "1<em>H</em>-Isoindole-1,3(2<em>H</em>)-dione, 2-(2-propyn-1-yl)-;Phthalimide, <em>N</em>-2-propynyl-;1<em>H</em>-Isoindole-1,3(2<em>H</em>)-dione, 2-(2-propynyl)-;2-(2-Propyn-1-yl)-1<em>H</em>-isoindole-1,3(2<em>H</em>)-dione;<em>N</em>-Propargylphthalimide;<em>N</em>-2-Propynylphthalimide;1-(<em>N</em>-Phthalimido)-2-propyne;NSC 404555;NSC 45254;(Phthalimidomethyl)acetylene;2-(2-Propynyl)-1<em>H</em>-isoindole-1,3(2<em>H</em>)-dione;2-(Prop-2-ynyl)isoindole-1,3-dione;2-(Prop-2-yn-1-yl)isoindoline-1,3-dione;2-(Prop-2-yn-1-yl)-2,3-dihydro-1<em>H</em>-isoindole-1,3-dione;2-(Prop-2-ynyl)isoindoline-1,3-dione",
    "duplicated_cas_no": "",
    "SMILES": "O=C1C=2C(C(=O)N1CC#C)=CC=CC2",
    "meta_data": {
        "InChI": "InChI=1S/C11H7NO2/c1-2-7-12-10(13)8-5-3-4-6-9(8)11(12)14/h1,3-6H,7H2",
        "InChIKey": null,
        "Canonical SMILES": "O=C1C=2C=CC=CC2C(=O)N1CC#C",
        "Molecular Formula": "C<sub>11</sub>H<sub>7</sub>NO<sub>2</sub>",
        "Molecular Mass": "185.18",
        "Melting Point": "147 °C"
    }
}