{
    "cas_no": "381-73-7",
    "key_name": "Difluoroacetic acid",
    "cn_name": "二氟乙酸;",
    "alternate_name": "Acetic acid, 2,2-difluoro-;Acetic acid, difluoro-;2,2-Difluoroacetic acid;Difluoroacetic acid",
    "duplicated_cas_no": "1537910-57-8",
    "SMILES": "C(C(O)=O)(F)F",
    "meta_data": {
        "InChI": "InChI=1S/C2H2F2O2/c3-1(4)2(5)6/h1H,(H,5,6)",
        "InChIKey": null,
        "Canonical SMILES": "O=C(O)C(F)F",
        "Molecular Formula": "C<sub>2</sub>H<sub>2</sub>F<sub>2</sub>O<sub>2</sub>",
        "Molecular Mass": "96.03",
        "Boiling Point": "133 °C",
        "Melting Point": "-1 °C",
        "Density": "1.530 g/cm³ @ Temp: 20 °C"
    }
}