{
    "cas_no": "5600-62-4",
    "key_name": "4-Nitrobenzenebutanoic acid",
    "cn_name": "4-(4-硝基苯基)丁酸;4-对硝基苯丁酸;",
    "alternate_name": "Benzenebutanoic acid, 4-nitro-;Butyric acid, 4-(<em>p</em>-nitrophenyl)-;4-Nitrobenzenebutanoic acid;4-(<em>p</em>-Nitrophenyl)butyric acid;<em>p</em>-Nitrobenzenebutyric acid;4-(4-Nitrophenyl)butanoic acid;4-(4-Nitrophenyl)butyric acid;4-(<em>p</em>-Nitrophenyl)butanoic acid;NSC 78455",
    "duplicated_cas_no": "",
    "SMILES": "C(CCC(O)=O)C1=CC=C(N(=O)=O)C=C1",
    "meta_data": {
        "InChI": "InChI=1S/C10H11NO4/c12-10(13)3-1-2-8-4-6-9(7-5-8)11(14)15/h4-7H,1-3H2,(H,12,13)",
        "InChIKey": null,
        "Canonical SMILES": "O=C(O)CCCC1=CC=C(C=C1)N(=O)=O",
        "Molecular Formula": "C<sub>10</sub>H<sub>11</sub>NO<sub>4</sub>",
        "Molecular Mass": "209.20",
        "Melting Point": "92 °C"
    }
}