{
    "cas_no": "13936-21-5",
    "key_name": "2-Pentyl-9,10-anthracenedione",
    "cn_name": null,
    "alternate_name": "9,10-Anthracenedione, 2-pentyl-;Anthraquinone, 2-pentyl-;2-Pentyl-9,10-anthracenedione;β-Pentylanthraquinone;2-Amylanthraquinone;2-Pentylanthraquinone;2-Pentyl-9,10-dihydroanthracene-9,10-dione",
    "duplicated_cas_no": "",
    "SMILES": "O=C1C=2C(C(=O)C=3C1=CC=CC3)=CC=C(CCCCC)C2",
    "meta_data": {
        "InChI": "InChI=1S/C19H18O2/c1-2-3-4-7-13-10-11-16-17(12-13)19(21)15-9-6-5-8-14(15)18(16)20/h5-6,8-12H,2-4,7H2,1H3",
        "InChIKey": null,
        "Canonical SMILES": "O=C1C=2C=CC=CC2C(=O)C3=CC(=CC=C13)CCCCC",
        "Molecular Formula": "C<sub>19</sub>H<sub>18</sub>O<sub>2</sub>",
        "Molecular Mass": "278.35",
        "Melting Point": "85 °C"
    }
}