{
    "cas_no": "42971-09-5",
    "key_name": "Vinpocetine",
    "cn_name": "长春西丁;阿扑长春胺酸乙酯;",
    "alternate_name": "Eburnamenine-14-carboxylic acid, ethyl ester, (3α,16α)-;1<em>H</em>-Indolo[3,2,1-<em>de</em>]pyrido[3,2,1-<em>ij</em>][1,5]naphthyridine, eburnamenine-14-carboxylic acid deriv.;Ethyl apovincaminate;Cavinton;RGH 4405;Vinpocetine;(+)-<em>cis</em>-Apovincaminic acid ethyl ester;Apovincaminic acid ethyl ester;Ethyl (+)-apovincaminate;Ethyl (+)-<em>cis</em>-apovincaminate;<em>cis</em>-Apovincaminic acid ethyl ester;TCV 3B;(+)-Apovincaminic acid ethyl ester;Ceractin;AY 27255;Ultra-Vinca;Bravinton;Vinporal;(+)-Vinpocetine",
    "duplicated_cas_no": "115986-87-3;80038-06-8",
    "SMILES": "C(C)[C@]12[C@]3(C=4N(C=5C(C4CCN3CCC1)=CC=CC5)C(C(OCC)=O)=C2)[H]",
    "meta_data": {
        "InChI": "InChI=1S/C22H26N2O2/c1-3-22-11-7-12-23-13-10-16-15-8-5-6-9-17(15)24(19(16)20(22)23)18(14-22)21(25)26-4-2/h5-6,8-9,14,20H,3-4,7,10-13H2,1-2H3/t20-,22+/m1/s1",
        "InChIKey": null,
        "Canonical SMILES": "O=C(OCC)C1=CC2(CC)CCCN3CCC=4C=5C=CC=CC5N1C4C32",
        "Molecular Formula": "C<sub>22</sub>H<sub>26</sub>N<sub>2</sub>O<sub>2</sub>",
        "Molecular Mass": "350.45",
        "Melting Point": "147-153 °C (decomp)"
    }
}