{
    "cas_no": "22385-77-9",
    "key_name": "1-Bromo-3,5-bis(1,1-dimethylethyl)benzene",
    "cn_name": "3,5-二叔丁基溴苯;",
    "alternate_name": "Benzene, 1-bromo-3,5-bis(1,1-dimethylethyl)-;Benzene, 1-bromo-3,5-di-<em>tert</em>-butyl-;1-Bromo-3,5-bis(1,1-dimethylethyl)benzene;3,5-Di-<em>tert</em>-butylbromobenzene;1-Bromo-3,5-di-<em>tert</em>-butylbenzene;3,5-Di-<em>tert</em>-butylphenyl bromide;1-Bromo-3,5-<em>tert</em>-butylbenzene;1,3-Di-<em>tert</em>-butyl-5-bromobenzene;1-Bromo-3,5-ditert-butylbenzene;1-Bromo-3,5-Di-<em>t</em>-butylbenzene;3,5-Di-<em>tert</em>-butyl-1-bromobenzene;1-Bromo-3,5-bis(<em>tert</em>-butyl)benzene",
    "duplicated_cas_no": "",
    "SMILES": "C(C)(C)(C)C1=CC(C(C)(C)C)=CC(Br)=C1",
    "meta_data": {
        "InChI": "InChI=1S/C14H21Br/c1-13(2,3)10-7-11(14(4,5)6)9-12(15)8-10/h7-9H,1-6H3",
        "InChIKey": null,
        "Canonical SMILES": "BrC=1C=C(C=C(C1)C(C)(C)C)C(C)(C)C",
        "Molecular Formula": "C<sub>14</sub>H<sub>21</sub>Br",
        "Molecular Mass": "269.22",
        "Boiling Point": "147-148 °C @ Press: 12 Torr",
        "Melting Point": "63-64 °C"
    }
}