{
    "cas_no": "767340-03-4",
    "key_name": "(2<em>Z</em>)-3-Amino-1-[5,6-dihydro-3-(trifluoromethyl)-1,2,4-triazolo[4,3-<em>a</em>]pyrazin-7(8<em>H</em>)-yl]-4-(2,4,5-trifluorophenyl)-2-buten-1-one",
    "cn_name": "(2Z)-4-氧代-4-[3-(三氟甲基)-5,6-二氢-[1,2,4]三唑并[4,3-a]吡嗪-7(8H)-基]-1-(2,4,5-三氟苯基)丁-2-烯-2-;",
    "alternate_name": "2-Buten-1-one, 3-amino-1-[5,6-dihydro-3-(trifluoromethyl)-1,2,4-triazolo[4,3-<em>a</em>]pyrazin-7(8<em>H</em>)-yl]-4-(2,4,5-trifluorophenyl)-, (2<em>Z</em>)-;1,2,4-Triazolo[4,3-<em>a</em>]pyrazine, 7-[(2<em>Z</em>)-3-amino-1-oxo-4-(2,4,5-trifluorophenyl)-2-butenyl]-5,6,7,8-tetrahydro-3-(trifluoromethyl)-;(2<em>Z</em>)-3-Amino-1-[5,6-dihydro-3-(trifluoromethyl)-1,2,4-triazolo[4,3-<em>a</em>]pyrazin-7(8<em>H</em>)-yl]-4-(2,4,5-trifluorophenyl)-2-buten-1-one;(2<em>Z</em>)-4-Oxo-4-[3-(trifluoromethyl)-5,6-dihydro-[1,2,4]triazolo[4,3-<em>a</em>]pyrazin-7(8<em>H</em>)-yl]-1-(2,4,5-trifluorophenyl)but-2-en-2-amine",
    "duplicated_cas_no": "2369871-57-6",
    "SMILES": "C(F)(F)(F)C=1N2C(CN(C(/C=C(/CC3=C(F)C=C(F)C(F)=C3)\\N)=O)CC2)=NN1",
    "meta_data": {
        "InChI": "InChI=1S/C16H13F6N5O/c17-10-6-12(19)11(18)4-8(10)3-9(23)5-14(28)26-1-2-27-13(7-26)24-25-15(27)16(20,21)22/h4-6H,1-3,7,23H2/b9-5-",
        "InChIKey": null,
        "Canonical SMILES": "O=C(C=C(N)CC1=CC(F)=C(F)C=C1F)N2CC3=NN=C(N3CC2)C(F)(F)F",
        "Molecular Formula": "C<sub>16</sub>H<sub>13</sub>F<sub>6</sub>N<sub>5</sub>O",
        "Molecular Mass": "405.30",
        "Melting Point": "193-195 °C"
    }
}