{
    "cas_no": "444-27-9",
    "key_name": "4-Thiazolidinecarboxylic acid",
    "cn_name": "噻莫西酸;1,3-噻唑啉-4-甲酸;硫代脯氨酸;",
    "alternate_name": "4-Thiazolidinecarboxylic acid;T 4CA;4-Carboxythiazolidine;Thiazolidinecarboxylic acid;Timonacic;Hepalidine;Heparegene;γ-Thiaproline;Thioproline;Thiaproline;Heparegen;<span class=\"text-smallcaps\">D</smallcap><smallcap>L</span>-4-Thiazolidinecarboxylic acid;(±)-4-Thiazolidinecarboxylic acid;<span class=\"text-smallcaps\">D</smallcap><smallcap>L</span>-Thiaproline;Norgamen;ATC;Detoxepa;Tiazolidin;NSC 25855;Norgamem;1,3-Thiazolidine-4-carboxylic acid;1,3-Thiazolane-4-carboxylic acid;1,3-Thiazolidin-3-ium-4-carboxylate",
    "duplicated_cas_no": "19291-02-2;60731-25-1;2756-91-4",
    "SMILES": "C(O)(=O)C1CSCN1",
    "meta_data": {
        "InChI": "InChI=1S/C4H7NO2S/c6-4(7)3-1-8-2-5-3/h3,5H,1-2H2,(H,6,7)",
        "InChIKey": null,
        "Canonical SMILES": "O=C(O)C1NCSC1",
        "Molecular Formula": "C<sub>4</sub>H<sub>7</sub>NO<sub>2</sub>S",
        "Molecular Mass": "133.17",
        "Melting Point": "196.5 °C"
    }
}