{
    "cas_no": "60835-72-5",
    "key_name": "15-Bromo-2,3,5,6,8,9,11,12-octahydro-1,4,7,10,13-benzopentaoxacyclopentadecin",
    "cn_name": "4-溴苯-15-冠5-醚;",
    "alternate_name": "1,4,7,10,13-Benzopentaoxacyclopentadecin, 15-bromo-2,3,5,6,8,9,11,12-octahydro-;15-Bromo-2,3,5,6,8,9,11,12-octahydro-1,4,7,10,13-benzopentaoxacyclopentadecin;4′-Bromobenzo-15-crown-5;4-Bromobenzo-15-crown-5;2-Bromo-6,7,9,10,12,13,15,16-octahydro-5,8,11,14,17-pentaoxa-benzocyclopentadecene",
    "duplicated_cas_no": "",
    "SMILES": "BrC=1C=C2C(=CC1)OCCOCCOCCOCCO2",
    "meta_data": {
        "InChI": "InChI=1S/C14H19BrO5/c15-12-1-2-13-14(11-12)20-10-8-18-6-4-16-3-5-17-7-9-19-13/h1-2,11H,3-10H2",
        "InChIKey": null,
        "Canonical SMILES": "BrC1=CC=C2OCCOCCOCCOCCOC2=C1",
        "Molecular Formula": "C<sub>14</sub>H<sub>19</sub>BrO<sub>5</sub>",
        "Molecular Mass": "347.20",
        "Melting Point": "69-71 °C"
    }
}