{
    "cas_no": "143360-01-4",
    "key_name": "<em>N</em>-(4-Bromo-2-methoxyphenyl)acetamide",
    "cn_name": null,
    "alternate_name": "Acetamide, <em>N</em>-(4-bromo-2-methoxyphenyl)-;<em>N</em>-(4-Bromo-2-methoxyphenyl)acetamide;2-Acetamido-5-bromoanisole",
    "duplicated_cas_no": "",
    "SMILES": "N(C(C)=O)C1=C(OC)C=C(Br)C=C1",
    "meta_data": {
        "InChI": "InChI=1S/C9H10BrNO2/c1-6(12)11-8-4-3-7(10)5-9(8)13-2/h3-5H,1-2H3,(H,11,12)",
        "InChIKey": null,
        "Canonical SMILES": "O=C(NC1=CC=C(Br)C=C1OC)C",
        "Molecular Formula": "C<sub>9</sub>H<sub>10</sub>BrNO<sub>2</sub>",
        "Molecular Mass": "244.09",
        "Melting Point": "159-160 °C"
    }
}