{
    "cas_no": "638-36-8",
    "key_name": "Phytane",
    "cn_name": null,
    "alternate_name": "Hexadecane, 2,6,10,14-tetramethyl-;Phytane;2,6,10,14-Tetramethylhexadecane;Phytan;Tetrahydroneophytadiene",
    "duplicated_cas_no": "",
    "SMILES": "C(CCC(CCCC(C)C)C)C(CCCC(CC)C)C",
    "meta_data": {
        "InChI": "InChI=1S/C20H42/c1-7-18(4)12-9-14-20(6)16-10-15-19(5)13-8-11-17(2)3/h17-20H,7-16H2,1-6H3",
        "InChIKey": null,
        "Canonical SMILES": "CCC(C)CCCC(C)CCCC(C)CCCC(C)C",
        "Molecular Formula": "C<sub>20</sub>H<sub>42</sub>",
        "Molecular Mass": "282.55",
        "Boiling Point": "169.5 °C @ Press: 9.5 Torr",
        "Density": "0.803 g/cm³ @ Temp: 0 °C"
    }
}