{
    "cas_no": "1313-59-3",
    "key_name": "Sodium oxide",
    "cn_name": "氧化钠;",
    "alternate_name": "Sodium oxide (Na<sub>2</sub>O);Sodium oxide;Disodium monoxide;Disodium oxide;Sodium oxide (NaO<sub>0.5</sub>);Natria",
    "duplicated_cas_no": "37382-45-9;1242458-86-1",
    "SMILES": "O([Na])[Na]",
    "meta_data": {
        "InChI": "InChI=1S/2Na.O",
        "InChIKey": null,
        "Canonical SMILES": "[Na]O[Na]",
        "Molecular Formula": "Na<sub>2</sub>O",
        "Molecular Mass": "",
        "Melting Point": "1130 °C",
        "Density": "2.25 g/cm³ @ Temp: 0 °C"
    }
}