{
    "cas_no": "22042-71-3",
    "key_name": "(4-Formylphenoxy)acetic acid",
    "cn_name": "4-甲酰苯氧基乙酸;",
    "alternate_name": "Acetic acid, 2-(4-formylphenoxy)-;Acetic acid, (<em>p</em>-formylphenoxy)-;Acetic acid, (4-formylphenoxy)-;2-(4-Formylphenoxy)acetic acid;(<em>p</em>-Formylphenoxy)acetic acid;(4-Formylphenoxy)acetic acid;4-(Carboxymethyloxy)benzaldehyde;4-(Carboxymethoxy)benzaldehyde",
    "duplicated_cas_no": "",
    "SMILES": "O(CC(O)=O)C1=CC=C(C=O)C=C1",
    "meta_data": {
        "InChI": "InChI=1S/C9H8O4/c10-5-7-1-3-8(4-2-7)13-6-9(11)12/h1-5H,6H2,(H,11,12)",
        "InChIKey": null,
        "Canonical SMILES": "O=CC1=CC=C(OCC(=O)O)C=C1",
        "Molecular Formula": "C<sub>9</sub>H<sub>8</sub>O<sub>4</sub>",
        "Molecular Mass": "180.16",
        "Melting Point": "192-195 °C"
    }
}