{
    "cas_no": "15087-24-8",
    "key_name": "Benzylidenecamphor",
    "cn_name": "1,7,7-三甲基-3-(苯亚甲基)双环[2,2,1]庚-2-酮;",
    "alternate_name": "Bicyclo[2.2.1]heptan-2-one, 1,7,7-trimethyl-3-(phenylmethylene)-;2-Bornanone, 3-benzylidene-;1,7,7-Trimethyl-3-(phenylmethylene)bicyclo[2.2.1]heptan-2-one;Benzylidenecamphor;3-Benzylidenecamphor;Ultracyd;Ultren BK;Eusolex 6900;3-Benzylidenebornan-2-one;Unisol S 22;2-Benzylidene-4,7,7-trimethylbicyclo[2.2.1]heptan-3-one",
    "duplicated_cas_no": "36065-10-8",
    "SMILES": "CC12C(C)(C)C(C(=CC3=CC=CC=C3)C1=O)CC2",
    "meta_data": {
        "InChI": "InChI=1S/C17H20O/c1-16(2)14-9-10-17(16,3)15(18)13(14)11-12-7-5-4-6-8-12/h4-8,11,14H,9-10H2,1-3H3",
        "InChIKey": null,
        "Canonical SMILES": "O=C1C(=CC=2C=CC=CC2)C3CCC1(C)C3(C)C",
        "Molecular Formula": "C<sub>17</sub>H<sub>20</sub>O",
        "Molecular Mass": "240.34",
        "Boiling Point": "310 °C",
        "Melting Point": "97 °C"
    }
}