{
    "cas_no": "496-16-2",
    "key_name": "Dihydrobenzofuran",
    "cn_name": "2,3-二氢苯并呋喃;",
    "alternate_name": "Benzofuran, 2,3-dihydro-;Benzofuran, 1,2-dihydro-;2,3-Dihydrobenzofuran;Coumaran;Kumaran;Dihydrobenzofuran;2,3-Dihydrobenzo[<em>b</em>]furan;Benzodihydrofuran;2,3-Dihydro-1-benzofuran;2,3-Dihydrobenzofurane",
    "duplicated_cas_no": "",
    "SMILES": "C1=2C(OCC1)=CC=CC2",
    "meta_data": {
        "InChI": "InChI=1S/C8H8O/c1-2-4-8-7(3-1)5-6-9-8/h1-4H,5-6H2",
        "InChIKey": null,
        "Canonical SMILES": "O1C=2C=CC=CC2CC1",
        "Molecular Formula": "C<sub>8</sub>H<sub>8</sub>O",
        "Molecular Mass": "120.15",
        "Boiling Point": "188.5 °C",
        "Melting Point": "-21.5 °C",
        "Density": "1.083 g/cm³ @ Temp: 20 °C"
    }
}