{
    "cas_no": "1918-18-9",
    "key_name": "Methyl <em>N</em>-(3,4-dichlorophenyl)carbamate",
    "cn_name": null,
    "alternate_name": "Carbamic acid, <em>N</em>-(3,4-dichlorophenyl)-, methyl ester;Carbanilic acid, 3,4-dichloro-, methyl ester;Carbamic acid, (3,4-dichlorophenyl)-, methyl ester;NIA 2995;MCC (herbicide);Methyl 3,4-dichlorocarbanilate;Methyl <em>N</em>-(3,4-dichlorophenyl)carbamate;Swep;Methyl 3,4-dichlorophenylcarbamate;MCC;3,4-Dichlorophenylcarbamic acid methyl ester",
    "duplicated_cas_no": "",
    "SMILES": "N(C(OC)=O)C1=CC(Cl)=C(Cl)C=C1",
    "meta_data": {
        "InChI": "InChI=1S/C8H7Cl2NO2/c1-13-8(12)11-5-2-3-6(9)7(10)4-5/h2-4H,1H3,(H,11,12)",
        "InChIKey": null,
        "Canonical SMILES": "O=C(OC)NC1=CC=C(Cl)C(Cl)=C1",
        "Molecular Formula": "C<sub>8</sub>H<sub>7</sub>Cl<sub>2</sub>NO<sub>2</sub>",
        "Molecular Mass": "220.05",
        "Melting Point": "112-114 °C"
    }
}