{
    "cas_no": "10605-21-7",
    "key_name": "Carbendazim",
    "cn_name": "多菌灵;N-苯并咪唑-2-基氨基甲酸甲酯;",
    "alternate_name": "Carbamic acid, <em>N</em>-1<em>H</em>-benzimidazol-2-yl-, methyl ester;2-Benzimidazolecarbamic acid, methyl ester;Carbamic acid, 1<em>H</em>-benzimidazol-2-yl-, methyl ester;MBC;CTR 6669;Methyl 2-benzimidazolecarbamate;Methyl 1<em>H</em>-benzimidazol-2-ylcarbamate;Methyl 2-benzimidazolylcarbamate;HOE 17411;Carbendazim;Carbendazole;2-[(Methoxycarbonyl)amino]benzimidazole;Bavistin;BAS 67054F;BAS 3460F;Methyl 1<em>H</em>-benzimidazole-2-carbamate;Carbendazime;BMK;G 665;Preparation G 665;Carbendazol;BAS 3460;2-(Carbomethoxyamino)benzimidazole;2-(Methoxycarbamoyl)benzimidazole;Derosal;Bavistine;BMK (fungicide);Methyl benzimidazolylcarbamate;Funaben;U 32104;Mecarzole;IPO 1250;Bavistin 3460;Thicoper;Lignasan;A 118;A 118 (pesticide);Medamine;Delsene 10;2-(Methoxycarboxamido)benzimidazole;Delsene;Kolfugo;Funaben 50;Derosal 60PM;Myco;Antibac MF;Supercarb;BCM;BCM (fungicide);Battal;EK 578;Bavistin FL;Triticol;Garbenda;Kolfugo Extra;Bitosen;Bavistin 25SD;Bavistin 50SD;Funaben 3;Bavistan;Bercema-Bitosen;Stein;Spin;Preventol BCM;Falicarben;Bengard;Agrizim;Carben VL;Zhiweiling;IPO Y;Spin (pesticide);Olgin;Jkstein;Olgin (fungicide);Kolfugo 25FW;Methoxycarbonylaminobenzimidazole;Karben flo Stefes;Karben;Karben Stefes Flo;Sarfun;Fungoxan;Protek;NSC 109874;Subeej;Ferazim;Corbel;Pillarstin;Kemdazin;Carbendor;Stempor;Cekudazim;Custos;Defensor;Carbate;Equitdazin;Aimcozim;Bendazim;Derroprene;Supercarb (fungicide);Methyl 1<em>H</em>-2-benzimidazolecarbaminate;Kolfugo Super;FB 642;Benfil;Spin Flo;Dhanustin;GLSTIN;Galofungin;San-ai 700;Derosol 60WP;Biocut BM 10;B 350;Amolden TSM 32;Corzim 50WP;Corzim;Bavistin DF;Troysan CF 20;Elsa;Carbomax;Bavistin 50WP;Carbex 500SC;Duojunling ISO;Apizas AP-OK;Kvistin;OCZOIT",
    "duplicated_cas_no": "39413-19-9;59758-95-1;63090-40-4;63278-70-6;102040-01-7;105268-95-9;110342-67-1;212384-28-6;276680-08-1;1135441-26-7;1155875-94-7;1203557-88-3",
    "SMILES": "N(C(OC)=O)C=1NC=2C(N1)=CC=CC2",
    "meta_data": {
        "InChI": "InChI=1S/C9H9N3O2/c1-14-9(13)12-8-10-6-4-2-3-5-7(6)11-8/h2-5H,1H3,(H2,10,11,12,13)",
        "InChIKey": null,
        "Canonical SMILES": "O=C(OC)NC1=NC=2C=CC=CC2N1",
        "Molecular Formula": "C<sub>9</sub>H<sub>9</sub>N<sub>3</sub>O<sub>2</sub>",
        "Molecular Mass": "191.19",
        "Melting Point": "300 °C (decomp)",
        "Density": "1.45 g/cm³ @ Temp: 20 °C"
    }
}