{
    "cas_no": "13048-34-5",
    "key_name": "1,10-Decanediol, diacrylate",
    "cn_name": "1,10-癸二醇二丙烯酸酯;癸二醇二丙烯酸酯;",
    "alternate_name": "2-Propenoic acid, 1,1′-(1,10-decanediyl) ester;Acrylic acid, decamethylene ester;2-Propenoic acid, 1,10-decanediyl ester;1,10-Decanediol, diacrylate;Decamethyleneglycol diacrylate;Decamethylene acrylate;A-DOD;NK Ester A-DOD;NK Ester A-DOD-N;A-DOD-N;1,10-Bis(acryloyloxy)decane;CD 595;1,10-Decamethylene diacrylate;Sartomer CD 595;Sarbio 5201;SR 595;10-Prop-2-enoyloxydecyl prop-2-enoate;NK Ester DOD;Miramer M 2010;FA 1210A;110DDA",
    "duplicated_cas_no": "1438166-06-3",
    "SMILES": "C(OCCCCCCCCCCOC(C=C)=O)(C=C)=O",
    "meta_data": {
        "InChI": "InChI=1S/C16H26O4/c1-3-15(17)19-13-11-9-7-5-6-8-10-12-14-20-16(18)4-2/h3-4H,1-2,5-14H2",
        "InChIKey": null,
        "Canonical SMILES": "O=C(OCCCCCCCCCCOC(=O)C=C)C=C",
        "Molecular Formula": "C<sub>16</sub>H<sub>26</sub>O<sub>4</sub>",
        "Molecular Mass": "282.38",
        "Boiling Point": "180-181 °C @ Press: 1-2 Torr"
    }
}