{
    "cas_no": "1893-33-0",
    "key_name": "Pipamperone",
    "cn_name": null,
    "alternate_name": "[1,4′-Bipiperidine]-4′-carboxamide, 1′-[4-(4-fluorophenyl)-4-oxobutyl]-;[1,4′-Bipiperidine]-4′-carboxamide, 1′-[3-(<em>p</em>-fluorobenzoyl)propyl]-;1′-[4-(4-Fluorophenyl)-4-oxobutyl][1,4′-bipiperidine]-4′-carboxamide;R 3345;Dipiperone;1′-[3-(<em>p</em>-Fluorobenzoyl)propyl][1,4′-bipiperidine]-4′-carboxamide;4′-Fluoro-4-[4-<em>N</em>-piperidino-4-carbamidopiperidino]butyrophenone;Dipiperon;Floropipamide;Pipamperone;1-(<em>p</em>-Fluorophenyl)-4-(4-piperidino-4-carbamoylpiperidino)-1-butanone;4′-Fluoro-4-{<em>N</em>-[4-(<em>N</em>-piperidino)-4-carbamido]piperidino}butyrophenone;Dipiperal;McN-JR 3345;1-[4-(4-Fluorophenyl)-4-oxobutyl]-4-piperidin-1-ylpiperidine-4-carboxamide",
    "duplicated_cas_no": "",
    "SMILES": "C(N)(=O)C1(CCN(CCCC(=O)C2=CC=C(F)C=C2)CC1)N3CCCCC3",
    "meta_data": {
        "InChI": "InChI=1S/C21H30FN3O2/c22-18-8-6-17(7-9-18)19(26)5-4-12-24-15-10-21(11-16-24,20(23)27)25-13-2-1-3-14-25/h6-9H,1-5,10-16H2,(H2,23,27)",
        "InChIKey": null,
        "Canonical SMILES": "O=C(N)C1(N2CCCCC2)CCN(CCCC(=O)C3=CC=C(F)C=C3)CC1",
        "Molecular Formula": "C<sub>21</sub>H<sub>30</sub>FN<sub>3</sub>O<sub>2</sub>",
        "Molecular Mass": "375.48",
        "Melting Point": "124.5-126.0 °C"
    }
}