{
    "cas_no": "349-88-2",
    "key_name": "4-Fluorobenzenesulfonyl chloride",
    "cn_name": "4-氟苯磺酰氯;对氟苯磺酰氯;",
    "alternate_name": "Benzenesulfonyl chloride, 4-fluoro-;Benzenesulfonyl chloride, <em>p</em>-fluoro-;4-Fluorobenzenesulfonyl chloride;<em>p</em>-Fluorobenzenesulfonyl chloride;4-Fluorophenylsulfonyl chloride;<em>p</em>-Fluorophenylsulfonyl chloride;NSC 140128;4-Fluorobenzene-1-sulfonyl chloride",
    "duplicated_cas_no": "",
    "SMILES": "S(Cl)(=O)(=O)C1=CC=C(F)C=C1",
    "meta_data": {
        "InChI": "InChI=1S/C6H4ClFO2S/c7-11(9,10)6-3-1-5(8)2-4-6/h1-4H",
        "InChIKey": null,
        "Canonical SMILES": "O=S(=O)(Cl)C1=CC=C(F)C=C1",
        "Molecular Formula": "C<sub>6</sub>H<sub>4</sub>ClFO<sub>2</sub>S",
        "Molecular Mass": "194.61",
        "Boiling Point": "89-89.5 °C @ Press: 0.5 Torr",
        "Melting Point": "30 °C"
    }
}