{
    "cas_no": "53857-59-3",
    "key_name": "2,5-Dibromo-1-methyl-1<em>H</em>-imidazole",
    "cn_name": "2,5-二溴-1-甲基-1H-咪唑;",
    "alternate_name": "1<em>H</em>-Imidazole, 2,5-dibromo-1-methyl-;2,5-Dibromo-1-methyl-1<em>H</em>-imidazole;2,5-Dibromo-1-methylimidazole",
    "duplicated_cas_no": "",
    "SMILES": "CN1C(Br)=CN=C1Br",
    "meta_data": {
        "InChI": "InChI=1S/C4H4Br2N2/c1-8-3(5)2-7-4(8)6/h2H,1H3",
        "InChIKey": null,
        "Canonical SMILES": "BrC1=NC=C(Br)N1C",
        "Molecular Formula": "C<sub>4</sub>H<sub>4</sub>Br<sub>2</sub>N<sub>2</sub>",
        "Molecular Mass": "239.90",
        "Melting Point": "82 °C"
    }
}