{
    "cas_no": "1120-57-6",
    "key_name": "Chlorocyclobutane",
    "cn_name": "环丁基氯;",
    "alternate_name": "Cyclobutane, chloro-;Chlorocyclobutane;Cyclobutyl chloride",
    "duplicated_cas_no": "",
    "SMILES": "ClC1CCC1",
    "meta_data": {
        "InChI": "InChI=1S/C4H7Cl/c5-4-2-1-3-4/h4H,1-3H2",
        "InChIKey": null,
        "Canonical SMILES": "ClC1CCC1",
        "Molecular Formula": "C<sub>4</sub>H<sub>7</sub>Cl",
        "Molecular Mass": "90.55",
        "Melting Point": "155-156 °C"
    }
}