{
    "cas_no": "608-71-9",
    "key_name": "Pentabromophenol",
    "cn_name": "五溴苯酚;五溴酚;",
    "alternate_name": "Phenol, 2,3,4,5,6-pentabromo-;Phenol, pentabromo-;2,3,4,5,6-Pentabromophenol;Pentabromophenol;Flammex 5BP;Bromophenasic acid;NSC 5717;Perbromophenol",
    "duplicated_cas_no": "",
    "SMILES": "BrC1=C(Br)C(Br)=C(O)C(Br)=C1Br",
    "meta_data": {
        "InChI": "InChI=1S/C6HBr5O/c7-1-2(8)4(10)6(12)5(11)3(1)9/h12H",
        "InChIKey": null,
        "Canonical SMILES": "BrC=1C(Br)=C(Br)C(O)=C(Br)C1Br",
        "Molecular Formula": "C<sub>6</sub>HBr<sub>5</sub>O",
        "Molecular Mass": "488.59",
        "Melting Point": "229.5 °C"
    }
}