{
    "cas_no": "2646-17-5",
    "key_name": "Orange OT",
    "cn_name": "溶剂橙2;1-[(2-甲基苯基)偶氮]-2-萘醇;",
    "alternate_name": "2-Naphthalenol, 1-[2-(2-methylphenyl)diazenyl]-;C.I. Solvent Orange 2;Oil Orange SS;2-Naphthalenol, 1-[(2-methylphenyl)azo]-;1-[2-(2-Methylphenyl)diazenyl]-2-naphthalenol;C.I. 12100;Dolkwal Orange SS;Fat Orange II;Fat Orange RR;FD and C Orange No. 2;Hexacol Oil Orange SS;Lacquer Orange V;Oil Orange OPEL;Oil Orange TX;A.F. Orange No. 2;Orange SS;Organol Orange 2R;1-<em>o</em>-Tolylazo-2-naphthol;Orange OT;Ext D and C Orange No. 4;1-<em>o</em>-Tolueneazo-2-naphthol;1-[(2-Methylphenyl)azo]-2-naphthol;Oil Orange 204;Japan Orange 403;Orange TX;Solvent Orange 2;NSC 58044;T 0553",
    "duplicated_cas_no": "50926-67-5",
    "SMILES": "N(=NC1=C(C)C=CC=C1)C=2C3=C(C=CC2O)C=CC=C3",
    "meta_data": {
        "InChI": "InChI=1S/C17H14N2O/c1-12-6-2-5-9-15(12)18-19-17-14-8-4-3-7-13(14)10-11-16(17)20/h2-11,20H,1H3",
        "InChIKey": null,
        "Canonical SMILES": "OC=1C=CC=2C=CC=CC2C1N=NC=3C=CC=CC3C",
        "Molecular Formula": "C<sub>17</sub>H<sub>14</sub>N<sub>2</sub>O",
        "Molecular Mass": "262.31",
        "Melting Point": "131 °C"
    }
}