{
    "cas_no": "7460-82-4",
    "key_name": "Ethanol, 2,2′-oxybis-, 1,1′-bis(4-methylbenzenesulfonate)",
    "cn_name": "二乙二醇双对甲苯磺酸酯;",
    "alternate_name": "Ethanol, 2,2′-oxybis-, 1,1′-bis(4-methylbenzenesulfonate);Ethanol, 2,2′-oxybis-, bis(4-methylbenzenesulfonate);Diethylene glycol di-<em>p</em>-toluenesulfonate;Diethylene glycol ditosylate;Bis[β-(4-toluenesulfonyloxy)ethyl] ether;2,2′-Oxybis(ethyl tosylate);3-Oxapentane-1,5-diol ditosylate;Bis(2-tosyloxyethyl) ether;Diethylene glycol bis(4-toluenesulfonate);3-Oxa-1,5-pentanediyl bis(<em>p</em>-toluenesulfonate);1,5-Bis(<em>p</em>-tolylsulfonyloxy)-3-oxapentane;1,5-Bis(tosyloxy)-3-oxapentane;Diethylene glycol di-<em>p</em>-tosylate;Diethylene glycol bis(<em>p</em>-toluenesulfonate);Diethylene glycol bis(<em>p</em>-tosylate);2,2′-Oxybisethanol bis(4-methylbenzenesulfonate);Di(2-tosyloxyethyl) ether;NSC 404215;2-[2-(4-Methylphenyl)sulfonyloxyethoxy]ethyl 4-methylphenylsulfonate;2-[2-(4-Methylphenyl)sulfonyloxyethoxy]ethyl 4-methylbenzenesulfonate",
    "duplicated_cas_no": "99700-31-9;62583-86-2",
    "SMILES": "S(OCCOCCOS(=O)(=O)C1=CC=C(C)C=C1)(=O)(=O)C2=CC=C(C)C=C2",
    "meta_data": {
        "InChI": "InChI=1S/C18H22O7S2/c1-15-3-7-17(8-4-15)26(19,20)24-13-11-23-12-14-25-27(21,22)18-9-5-16(2)6-10-18/h3-10H,11-14H2,1-2H3",
        "InChIKey": null,
        "Canonical SMILES": "O=S(=O)(OCCOCCOS(=O)(=O)C1=CC=C(C=C1)C)C2=CC=C(C=C2)C",
        "Molecular Formula": "C<sub>18</sub>H<sub>22</sub>O<sub>7</sub>S<sub>2</sub>",
        "Molecular Mass": "414.49",
        "Melting Point": "87-89 °C"
    }
}