{
    "cas_no": "1795-18-2",
    "key_name": "Tetradecylcyclohexane",
    "cn_name": null,
    "alternate_name": "Cyclohexane, tetradecyl-;Tetradecane, 1-cyclohexyl-;Tetradecylcyclohexane;<em>n</em>-Tetradecylcyclohexane;1-Cyclohexyltetradecane",
    "duplicated_cas_no": "",
    "SMILES": "C(CCCCCCCCCCCCC)C1CCCCC1",
    "meta_data": {
        "InChI": "InChI=1S/C20H40/c1-2-3-4-5-6-7-8-9-10-11-12-14-17-20-18-15-13-16-19-20/h20H,2-19H2,1H3",
        "InChIKey": null,
        "Canonical SMILES": "CCCCCCCCCCCCCCC1CCCCC1",
        "Molecular Formula": "C<sub>20</sub>H<sub>40</sub>",
        "Molecular Mass": "280.53",
        "Boiling Point": "360 °C",
        "Melting Point": "24 °C",
        "Density": "0.8258 g/cm³ @ Temp: 20 °C"
    }
}