{
    "cas_no": "59857-86-2",
    "key_name": "1-Methyl-4-methoxycarbonyl-2-pyrrolidone",
    "cn_name": null,
    "alternate_name": "3-Pyrrolidinecarboxylic acid, 1-methyl-5-oxo-, methyl ester;1-Methyl-4-methoxycarbonyl-2-pyrrolidone;1-Methyl-4-(methoxycarbonyl)pyrrolidone;1-Methyl-5-oxopyrrolidine-3-carboxylic acid methyl ester",
    "duplicated_cas_no": "",
    "SMILES": "C(OC)(=O)C1CC(=O)N(C)C1",
    "meta_data": {
        "InChI": "InChI=1S/C7H11NO3/c1-8-4-5(3-6(8)9)7(10)11-2/h5H,3-4H2,1-2H3",
        "InChIKey": null,
        "Canonical SMILES": "O=C(OC)C1CC(=O)N(C)C1",
        "Molecular Formula": "C<sub>7</sub>H<sub>11</sub>NO<sub>3</sub>",
        "Molecular Mass": "157.17",
        "Boiling Point": "160-161 °C @ Press: 18 Torr",
        "Melting Point": "15 °C"
    }
}