{
    "cas_no": "881-03-8",
    "key_name": "2-Methyl-1-nitronaphthalene",
    "cn_name": null,
    "alternate_name": "Naphthalene, 2-methyl-1-nitro-;2-Methyl-1-nitronaphthalene;1-Nitro-2-methylnaphthalene;NSC 7516",
    "duplicated_cas_no": "",
    "SMILES": "N(=O)(=O)C=1C2=C(C=CC1C)C=CC=C2",
    "meta_data": {
        "InChI": "InChI=1S/C11H9NO2/c1-8-6-7-9-4-2-3-5-10(9)11(8)12(13)14/h2-7H,1H3",
        "InChIKey": null,
        "Canonical SMILES": "O=N(=O)C=1C=2C=CC=CC2C=CC1C",
        "Molecular Formula": "C<sub>11</sub>H<sub>9</sub>NO<sub>2</sub>",
        "Molecular Mass": "187.19",
        "Boiling Point": "185-186 °C",
        "Melting Point": "81.5 °C"
    }
}