{
    "cas_no": "86060-89-1",
    "key_name": "<em>N</em>-[(9<em>H</em>-Fluoren-9-ylmethoxy)carbonyl]-<span class=\"text-smallcaps\">L</span>-isoleucine 2,3,4,5,6-pentafluorophenyl ester",
    "cn_name": "FMOC-L-异亮氨酸五氟苯基酯;",
    "alternate_name": "<span class=\"text-smallcaps\">L</span>-Isoleucine, <em>N</em>-[(9<em>H</em>-fluoren-9-ylmethoxy)carbonyl]-, 2,3,4,5,6-pentafluorophenyl ester;<span class=\"text-smallcaps\">L</span>-Isoleucine, <em>N</em>-[(9<em>H</em>-fluoren-9-ylmethoxy)carbonyl]-, pentafluorophenyl ester;<em>N</em>-[(9<em>H</em>-Fluoren-9-ylmethoxy)carbonyl]-<span class=\"text-smallcaps\">L</span>-isoleucine 2,3,4,5,6-pentafluorophenyl ester;<em>N</em>-(Fluorenylmethoxycarbonyl)isoleucine pentafluorophenyl ester;Pentafluorophenyl <em>N</em>-[(9<em>H</em>-fluoren-9-ylmethoxy)carbonyl]-<span class=\"text-smallcaps\">L</span>-isoleucinate",
    "duplicated_cas_no": "",
    "SMILES": "C(OC(N[C@H](C(OC1=C(F)C(F)=C(F)C(F)=C1F)=O)[C@H](CC)C)=O)C2C=3C(C=4C2=CC=CC4)=CC=CC3",
    "meta_data": {
        "InChI": "InChI=1S/C27H22F5NO4/c1-3-13(2)24(26(34)37-25-22(31)20(29)19(28)21(30)23(25)32)33-27(35)36-12-18-16-10-6-4-8-14(16)15-9-5-7-11-17(15)18/h4-11,13,18,24H,3,12H2,1-2H3,(H,33,35)/t13-,24-/m0/s1",
        "InChIKey": null,
        "Canonical SMILES": "O=C(OCC1C=2C=CC=CC2C=3C=CC=CC31)NC(C(=O)OC=4C(F)=C(F)C(F)=C(F)C4F)C(C)CC",
        "Molecular Formula": "C<sub>27</sub>H<sub>22</sub>F<sub>5</sub>NO<sub>4</sub>",
        "Molecular Mass": "519.46",
        "Melting Point": "73-75 °C"
    }
}