{
    "cas_no": "352-93-2",
    "key_name": "Ethyl sulfide",
    "cn_name": "二乙基硫醚;乙硫醚;",
    "alternate_name": "Ethane, 1,1′-thiobis-;Ethyl sulfide;1,1′-Thiobis[ethane];Diethyl sulfide;3-Thiapentane;Thioethyl ether;Ethyl monosulfide;Diethylthioether;Ethylthioethane;Ethyl thioether;NSC 75157;(Ethylsulfanyl)ethane;Diethylsulfane",
    "duplicated_cas_no": "",
    "SMILES": "S(CC)CC",
    "meta_data": {
        "InChI": "InChI=1S/C4H10S/c1-3-5-4-2/h3-4H2,1-2H3",
        "InChIKey": null,
        "Canonical SMILES": "S(CC)CC",
        "Molecular Formula": "C<sub>4</sub>H<sub>10</sub>S",
        "Molecular Mass": "90.19",
        "Boiling Point": "92.1 °C",
        "Melting Point": "-103.9 °C",
        "Density": "0.837 g/cm³ @ Temp: 20 °C"
    }
}