{
    "cas_no": "5597-27-3",
    "key_name": "Methylenenorcamphor",
    "cn_name": "3-亚甲基-2-降冰片酮;",
    "alternate_name": "Bicyclo[2.2.1]heptan-2-one, 3-methylene-;2-Norbornanone, 3-methylene-;3-Methylenebicyclo[2.2.1]heptan-2-one;3-Methylene-2-norbornanone;(±)-3-Methylene-2-norbornanone;NSC 91505;Methylenenorcamphor;3-Methylidenebicyclo[2.2.1]heptan-2-one",
    "duplicated_cas_no": "118626-62-3",
    "SMILES": "C=C1C2CC(C1=O)CC2",
    "meta_data": {
        "InChI": "InChI=1S/C8H10O/c1-5-6-2-3-7(4-6)8(5)9/h6-7H,1-4H2",
        "InChIKey": null,
        "Canonical SMILES": "O=C1C(=C)C2CCC1C2",
        "Molecular Formula": "C<sub>8</sub>H<sub>10</sub>O",
        "Molecular Mass": "122.16",
        "Boiling Point": "69 °C @ Press: 11 Torr",
        "Density": "1.0170 g/cm³ @ Temp: 20 °C"
    }
}