{
    "cas_no": "98-66-8",
    "key_name": "4-Chlorobenzenesulfonic acid",
    "cn_name": "4-氯苯磺酸;对氯苯磺酸;",
    "alternate_name": "Benzenesulfonic acid, 4-chloro-;Benzenesulfonic acid, <em>p</em>-chloro-;4-Chlorobenzenesulfonic acid;<em>p</em>-Chlorobenzenesulfonic acid;<em>p</em>-Chlorophenylsulfonic acid;Benzene-1-chloro-4-sulfonic acid;NSC 9914",
    "duplicated_cas_no": "1323618-70-7;2756222-58-7",
    "SMILES": "S(=O)(=O)(O)C1=CC=C(Cl)C=C1",
    "meta_data": {
        "InChI": "InChI=1S/C6H5ClO3S/c7-5-1-3-6(4-2-5)11(8,9)10/h1-4H,(H,8,9,10)",
        "InChIKey": null,
        "Canonical SMILES": "O=S(=O)(O)C1=CC=C(Cl)C=C1",
        "Molecular Formula": "C<sub>6</sub>H<sub>5</sub>ClO<sub>3</sub>S",
        "Molecular Mass": "192.62",
        "Melting Point": "67 °C"
    }
}