{
    "cas_no": "88283-41-4",
    "key_name": "Pyrifenox",
    "cn_name": "啶斑肟;",
    "alternate_name": "Ethanone, 1-(2,4-dichlorophenyl)-2-(3-pyridinyl)-, <em>O</em>-methyloxime;1-(2,4-Dichlorophenyl)-2-(3-pyridinyl)ethanone <em>O</em>-methyloxime;Ro 15-1297;Pyrifenox;Dorado;Dorado (pesticide);ACR 3453A;FD 4060;Korado;Corado",
    "duplicated_cas_no": "1135442-55-5",
    "SMILES": "C(CC=1C=CC=NC1)(=NOC)C2=C(Cl)C=C(Cl)C=C2",
    "meta_data": {
        "InChI": "InChI=1S/C14H12Cl2N2O/c1-19-18-14(7-10-3-2-6-17-9-10)12-5-4-11(15)8-13(12)16/h2-6,8-9H,7H2,1H3",
        "InChIKey": null,
        "Canonical SMILES": "ClC1=CC=C(C(Cl)=C1)C(=NOC)CC=2C=NC=CC2",
        "Molecular Formula": "C<sub>14</sub>H<sub>12</sub>Cl<sub>2</sub>N<sub>2</sub>O",
        "Molecular Mass": "295.16",
        "Boiling Point": "212.1 °C",
        "Melting Point": "&lt;25 °C"
    }
}