{
    "cas_no": "73027-79-9",
    "key_name": "4,6-Dichloronicotinic acid",
    "cn_name": "4,6-二氯烟酸;4,6-二氯吡啶-3-甲酸;2,4-二氯吡啶-5-羧酸;",
    "alternate_name": "3-Pyridinecarboxylic acid, 4,6-dichloro-;4,6-Dichloro-3-pyridinecarboxylic acid;4,6-Dichloronicotinic acid;4,6-Dichloropyridine-3-carboxylic acid",
    "duplicated_cas_no": "",
    "SMILES": "C(O)(=O)C=1C(Cl)=CC(Cl)=NC1",
    "meta_data": {
        "InChI": "InChI=1S/C6H3Cl2NO2/c7-4-1-5(8)9-2-3(4)6(10)11/h1-2H,(H,10,11)",
        "InChIKey": null,
        "Canonical SMILES": "O=C(O)C1=CN=C(Cl)C=C1Cl",
        "Molecular Formula": "C<sub>6</sub>H<sub>3</sub>Cl<sub>2</sub>NO<sub>2</sub>",
        "Molecular Mass": "192.00",
        "Melting Point": "152-153 °C"
    }
}