{
    "cas_no": "642-05-7",
    "key_name": "Alloimperatorin",
    "cn_name": null,
    "alternate_name": "7<em>H</em>-Furo[3,2-<em>g</em>][1]benzopyran-7-one, 9-hydroxy-4-(3-methyl-2-buten-1-yl)-;Alloimperatorin;7<em>H</em>-Furo[3,2-<em>g</em>][1]benzopyran-7-one, 9-hydroxy-4-(3-methyl-2-butenyl)-;5-Benzofuranacrylic acid, 6,7-dihydroxy-4-(3-methyl-2-butenyl)-, δ-lactone;9-Hydroxy-4-(3-methyl-2-buten-1-yl)-7<em>H</em>-furo[3,2-<em>g</em>][1]benzopyran-7-one;Prangenidin;NSC 301051",
    "duplicated_cas_no": "",
    "SMILES": "C(C=C(C)C)C=1C2=C(C(O)=C3C1C=CO3)OC(=O)C=C2",
    "meta_data": {
        "InChI": "InChI=1S/C16H14O4/c1-9(2)3-4-10-11-5-6-13(17)20-16(11)14(18)15-12(10)7-8-19-15/h3,5-8,18H,4H2,1-2H3",
        "InChIKey": null,
        "Canonical SMILES": "O=C1OC=2C(O)=C3OC=CC3=C(C2C=C1)CC=C(C)C",
        "Molecular Formula": "C<sub>16</sub>H<sub>14</sub>O<sub>4</sub>",
        "Molecular Mass": "270.28",
        "Melting Point": "233 °C"
    }
}