{
    "cas_no": "13473-90-0",
    "key_name": "Aluminum nitrate",
    "cn_name": "硝酸铝;",
    "alternate_name": "Nitric acid, aluminum salt (3:1);Nitric acid, aluminum salt;Aluminum nitrate;Aluminum nitrate (Al(NO<sub>3</sub>)<sub>3</sub>);Aluminum trinitrate;Aluminum(III) nitrate;Nitric acid, aluminum salt (1:1)",
    "duplicated_cas_no": "25295-24-3;220685-69-8;1313195-43-5;1469908-91-5;2700236-96-8;2914103-65-2;3030961-97-5",
    "SMILES": "N(=O)(=O)O.[Al]",
    "meta_data": {
        "InChI": "InChI=1S/Al.HNO3/c;2-1(3)4/h;(H,2,3,4)",
        "InChIKey": null,
        "Canonical SMILES": "[Al].O=N(=O)O",
        "Molecular Formula": "Al.3HNO<sub>3</sub>",
        "Molecular Mass": "",
        "Melting Point": "70-76 °C",
        "Density": "1.4 g/cm³ @ Temp: 27 °C"
    }
}