{
    "cas_no": "1709-70-2",
    "key_name": "1,3,5-Trimethyl-2,4,6-tris(3,5-di-<em>tert</em>-butyl-4-hydroxybenzyl)benzene",
    "cn_name": "抗氧剂330;抗氧剂1330;抗氧剂TH-330;1,3,5-三甲基-2,4,6-三(3,5-二叔丁基-4-羟基苄基)苯;",
    "alternate_name": "Phenol, 4,4′,4′′-[(2,4,6-trimethyl-1,3,5-benzenetriyl)tris(methylene)]tris[2,6-bis(1,1-dimethylethyl)-;<em>p</em>-Cresol, α,α′,α′′-(2,4,6-trimethyl-<em>s</em>-phenenyl)tris[2,6-di-<em>tert</em>-butyl-;<em>p</em>-Cresol, α,α′,α′′-(trimethyl-<em>s</em>-phenenyl)tris[2,6-di-<em>tert</em>-butyl-;4,4′,4′′-[(2,4,6-Trimethyl-1,3,5-benzenetriyl)tris(methylene)]tris[2,6-bis(1,1-dimethylethyl)phenol;Ionox 330;1,3,5-Trimethyl-2,4,6-tris(3,5-di-<em>tert</em>-butyl-4-hydroxybenzyl)benzene;2,4,6-Tris(3′,5′-di-<em>tert</em>-butyl-4′-hydroxybenzyl)mesitylene;2,4,6-Tris(4-hydroxy-3,5-di-<em>tert</em>-butylbenzyl)mesitylene;AO 40;2,4,6-Tris(4-hydroxy-3,5-di-<em>tert</em>-butylbenzyl)-1,3,5-trimethylbenzene;2,4,6-Tris(3,5-di-<em>tert</em>-butyl-4-hydroxybenzyl)mesitylene;Ethyl Antioxidant 330;1,3,5-Trimethyl-2,4,6-tris(4-hydroxy-3,5-di-<em>tert</em>-butylbenzyl)benzene;Ethyl 330;Irganox 330;1,3,5-Trimethyl-2,4,6-tris(3,5-di-<em>tert</em>-butyl-4-hydroxytolyl)benzene;2,4,6-Bis(4-hydroxy-3,5-di-<em>tert</em>-butylbenzyl)mesitylene;1,3,5-Tris(3,5-di-<em>tert</em>-butyl-4-hydroxybenzyl)-2,4,6-trimethylbenzene;1,3,5-Tris(3,5-di-<em>tert</em>-butyl-4-hydroxyphenylmethyl)-2,4,6-trimethylbenzene;1,3,5-Dimethyl-2,4,6-tris(3,5-<em>tert</em>-butyl-4-hydroxybenzyl)benzene;Antioxidant 330;Agidol 40;Antioxidant 40;1,3,5-Trimethyl-2,4,6-tris(3′,5′-di-<em>tert</em>-butyl-4′-hydroxybenzyl)benzene;Ethanox 330;Irganox 1330;Mark AO 330;Seenox 326M;ADK Stab AO 330;Alvinox 100;Good-rite 1330;Yoshinox 1330;Anox 330;NSC 85846;AO 330;1,3,5-Trismethyl-2,4,6-tris(3,5-<em>tert</em>-butyl-4-hydroxybenzyl)benzene;IR 1330;ADK Stab A 330;Ethanox 300;Anox 330TDS;1,3,5-Trimethyl-2,4,6-tri(3,5-di-<em>tert</em>-butyl-4-hydroxybenzyl)benzene;3,3′,3′′,5,5′,5′′-Hexa-<em>tert</em>-butyl-α,α′,α′′-(mesitylene-2,4,6-triyl)tri-<em>p</em>-cresol;Antioxidant 1330;Irg 1330;KY 1330;1,3,5-Trimethyl-2,4,6-tris(3,5-di-<em>t</em>-butyl-4-hydroxybenzyl)benzene;Rianox 330;AO 1330;AO 13;Songnox 1330;Chinox 1330;AT 330;DTXSID6027428",
    "duplicated_cas_no": "58968-88-0;90651-36-8;99346-90-4;357341-49-2;681145-04-0;1224882-68-1;1585209-79-5;2003973-91-7",
    "SMILES": "C(C1=C(C)C(CC2=CC(C(C)(C)C)=C(O)C(C(C)(C)C)=C2)=C(C)C(CC3=CC(C(C)(C)C)=C(O)C(C(C)(C)C)=C3)=C1C)C4=CC(C(C)(C)C)=C(O)C(C(C)(C)C)=C4",
    "meta_data": {
        "InChI": "InChI=1S/C54H78O3/c1-31-37(22-34-25-40(49(4,5)6)46(55)41(26-34)50(7,8)9)32(2)39(24-36-29-44(53(16,17)18)48(57)45(30-36)54(19,20)21)33(3)38(31)23-35-27-42(51(10,11)12)47(56)43(28-35)52(13,14)15/h25-30,55-57H,22-24H2,1-21H3",
        "InChIKey": null,
        "Canonical SMILES": "OC=1C(=CC(=CC1C(C)(C)C)CC=2C(=C(C(=C(C2C)CC=3C=C(C(O)=C(C3)C(C)(C)C)C(C)(C)C)C)CC=4C=C(C(O)=C(C4)C(C)(C)C)C(C)(C)C)C)C(C)(C)C",
        "Molecular Formula": "C<sub>54</sub>H<sub>78</sub>O<sub>3</sub>",
        "Molecular Mass": "775.20",
        "Melting Point": "244 °C"
    }
}