{
    "cas_no": "93793-83-0",
    "key_name": "Roxatidine acetate hydrochloride",
    "cn_name": "盐酸罗沙替丁醋酸酯;2-乙酰氧基-N-[3-[3-(1-哌啶基甲基苯)氧基]丙基]乙酰胺盐酸盐;",
    "alternate_name": "Acetamide, 2-(acetyloxy)-<em>N</em>-[3-[3-(1-piperidinylmethyl)phenoxy]propyl]-, hydrochloride (1:1);Acetamide, 2-(acetyloxy)-<em>N</em>-[3-[3-(1-piperidinylmethyl)phenoxy]propyl]-, monohydrochloride;TZU 0460;HOE 760;Roxatidine acetate hydrochloride;Altat;Neo H2;Roxit;Gastralgin;Zarocs",
    "duplicated_cas_no": "97744-01-9",
    "SMILES": "C(C1=CC(OCCCNC(COC(C)=O)=O)=CC=C1)N2CCCCC2.Cl",
    "meta_data": {
        "InChI": "InChI=1S/C19H28N2O4.ClH/c1-16(22)25-15-19(23)20-9-6-12-24-18-8-5-7-17(13-18)14-21-10-3-2-4-11-21;/h5,7-8,13H,2-4,6,9-12,14-15H2,1H3,(H,20,23);1H",
        "InChIKey": null,
        "Canonical SMILES": "Cl.O=C(OCC(=O)NCCCOC1=CC=CC(=C1)CN2CCCCC2)C",
        "Molecular Formula": "C<sub>19</sub>H<sub>28</sub>N<sub>2</sub>O<sub>4</sub>.ClH",
        "Molecular Mass": "",
        "Melting Point": "145-146 °C"
    }
}