{
    "cas_no": "607-42-1",
    "key_name": "1-Anthracenecarboxylic acid",
    "cn_name": "1-蒽甲酸;",
    "alternate_name": "1-Anthracenecarboxylic acid;1-Anthroic acid",
    "duplicated_cas_no": "",
    "SMILES": "C(O)(=O)C=1C2=C(C=C3C(=C2)C=CC=C3)C=CC1",
    "meta_data": {
        "InChI": "InChI=1S/C15H10O2/c16-15(17)13-7-3-6-12-8-10-4-1-2-5-11(10)9-14(12)13/h1-9H,(H,16,17)",
        "InChIKey": null,
        "Canonical SMILES": "O=C(O)C1=CC=CC2=CC=3C=CC=CC3C=C21",
        "Molecular Formula": "C<sub>15</sub>H<sub>10</sub>O<sub>2</sub>",
        "Molecular Mass": "222.24",
        "Melting Point": "103-104 °C"
    }
}