{
    "cas_no": "4424-06-0",
    "key_name": "Pigment Orange 43",
    "cn_name": "还原橙7;",
    "alternate_name": "Bisbenzimidazo[2,1-<em>b</em>:2′,1′-<em>i</em>]benzo[<em>lmn</em>][3,8]phenanthroline-8,17-dione;C.I. 71105;Anthragen Brilliant Orange GR Lake 29-3002;Anthragen Brilliant Orange GR Toner 29-3001;Cibanone brilliant Orange GR;C.I. Vat Orange 7;Fenanthren Brilliant Orange GR;Helio Brilliant Orange GRA Supra Paste 29-3016;Helio Brilliant Orange GR Presscake 29-3003;Hostaperm Vat Orange GR;Hostavat Brilliant Orange GR;Indanthren Brilliant Orange GR;Indanthrene Brilliant Orange GR;Indanthrene Brilliant Orange GRP;Mikethren Brilliant Orange GR;Ostanthrene orange GR;Ostanthren Orange GR;Palanthrene Brilliant Orange GR;Paradone Brilliant Orange GR;Paradone Brilliant Orange GR New;Sanyo Permanent Orange D 213;Sanyo Permanent Orange D 616;Solanthrene Brilliant Orange JR;Symuler Fast Orange GRD;Threne Brilliant Orange GR;Tinon Brilliant Orange GR;PV Fast Orange GRL;<em>trans</em>-Perinone;Bordeaux RRN;Brilliant Orange GR;Mikethrene Orange GR;Vat Brilliant Orange;Vat Scarlet 2Zh;C.I. Pigment Orange 43;Hostaperm Orange GR;Indofast Orange OV 5983;Pigment Brilliant Orange Anthraquinone;Vat Scarlet 2ZhD;Perinone Orange;Lionogen Orange GR;Pigment Orange 43;Fastogen Super Orange 6200;Solanthrene Brilliant Orange FJRA;Vat Orange 7;Fuji AS Orange 200;Vat Brilliant Orange GR;Novoperm Orange GRL;Orange A 76;Hostaperm Orange 43;Perinone;DTXSID8025913;CFO 6292",
    "duplicated_cas_no": "104432-60-2;126602-78-6;136298-09-4;42612-21-5;67053-85-4;75662-41-8;79586-96-2;156841-34-8",
    "SMILES": "O=C1C=2C3=C4C(C=5N(C(=O)C4=CC=C3C=6N1C=7C(N6)=CC=CC7)C=8C(N5)=CC=CC8)=CC2",
    "meta_data": {
        "InChI": "InChI=1S/C26H12N4O2/c31-25-15-12-10-14-22-16(26(32)30-20-8-4-2-6-18(20)28-24(14)30)11-9-13(21(15)22)23-27-17-5-1-3-7-19(17)29(23)25/h1-12H",
        "InChIKey": null,
        "Canonical SMILES": "O=C1C2=CC=C3C4=NC=5C=CC=CC5N4C(=O)C=6C=CC(C7=NC=8C=CC=CC8N17)=C2C63",
        "Molecular Formula": "C<sub>26</sub>H<sub>12</sub>N<sub>4</sub>O<sub>2</sub>",
        "Molecular Mass": "412.40",
        "Melting Point": "497-504 °C"
    }
}