{
    "cas_no": "7314-32-1",
    "key_name": "<span class=\"text-smallcaps\">L</span>-Methionine sulfone",
    "cn_name": null,
    "alternate_name": "<span class=\"text-smallcaps\">L</span>-Methionine, <em>S</em>,<em>S</em>-dioxide;Butyric acid, 2-amino-4-(methylsulfonyl)-, <span class=\"text-smallcaps\">L</span>-;Butanoic acid, 2-amino-4-(methylsulfonyl)-, (<em>S</em>)-;Butanoic acid, 2-amino-4-(methylsulfonyl)-, (2<em>S</em>)-;Methionine sulfone;<span class=\"text-smallcaps\">L</span>-Methionine sulfone;<span class=\"text-smallcaps\">L</span>-Methionine-<em>S</em>-dioxide;(<em>S</em>)-Methionine sulfone;(2S)-2-Amino-4-methanesulfonylbutanoic acid;(2S)-2-Azaniumyl-4-methylsulfonylbutanoate",
    "duplicated_cas_no": "",
    "SMILES": "C([C@@H](C(O)=O)N)CS(C)(=O)=O",
    "meta_data": {
        "InChI": "InChI=1S/C5H11NO4S/c1-11(9,10)3-2-4(6)5(7)8/h4H,2-3,6H2,1H3,(H,7,8)/t4-/m0/s1",
        "InChIKey": null,
        "Canonical SMILES": "O=C(O)C(N)CCS(=O)(=O)C",
        "Molecular Formula": "C<sub>5</sub>H<sub>11</sub>NO<sub>4</sub>S",
        "Molecular Mass": "181.21",
        "Melting Point": "250-251 °C"
    }
}