{
    "cas_no": "636-21-5",
    "key_name": "<em>o</em>-Toluidinium chloride",
    "cn_name": "邻联甲苯胺盐酸盐;",
    "alternate_name": "Benzenamine, 2-methyl-, hydrochloride (1:1);<em>o</em>-Toluidine, hydrochloride;Benzenamine, 2-methyl-, hydrochloride;2-Methylaniline hydrochloride;<em>o</em>-Toluidinium chloride;<em>o</em>-Methylaniline hydrochloride;2-Methylbenzenamine hydrochloride;2-Methylphenylammonium chloride",
    "duplicated_cas_no": "",
    "SMILES": "CC1=C(N)C=CC=C1.Cl",
    "meta_data": {
        "InChI": "InChI=1S/C7H9N.ClH/c1-6-4-2-3-5-7(6)8;/h2-5H,8H2,1H3;1H",
        "InChIKey": null,
        "Canonical SMILES": "Cl.NC=1C=CC=CC1C",
        "Molecular Formula": "C<sub>7</sub>H<sub>9</sub>N.ClH",
        "Molecular Mass": "",
        "Boiling Point": "242.2 °C",
        "Melting Point": "215 °C",
        "Density": "1.288 g/cm³"
    }
}