{
    "cas_no": "15341-08-9",
    "key_name": "6-Nitro-1,3-benzodioxole-5-methanol",
    "cn_name": "6-硝基-3,4-亚甲基二氧苄乙醇;6-硝基-3,4-亚甲基二氧苄乙醇;6-硝基-3,4-亚甲基二氧苄乙醇, 98+%;6-硝基胡椒;",
    "alternate_name": "1,3-Benzodioxole-5-methanol, 6-nitro-;Piperonyl alcohol, 6-nitro-;6-Nitro-1,3-benzodioxole-5-methanol;4,5-Methylenedioxy-2-nitrobenzyl alcohol;6-Nitropiperonyl alcohol;(6-Nitro-2<em>H</em>-1,3-benzodioxol-5-yl)methanol;3,4-Methylenedioxy-6-nitrobenzyl alcohol",
    "duplicated_cas_no": "",
    "SMILES": "C(O)C=1C=C2C(=CC1N(=O)=O)OCO2",
    "meta_data": {
        "InChI": "InChI=1S/C8H7NO5/c10-3-5-1-7-8(14-4-13-7)2-6(5)9(11)12/h1-2,10H,3-4H2",
        "InChIKey": null,
        "Canonical SMILES": "O=N(=O)C1=CC=2OCOC2C=C1CO",
        "Molecular Formula": "C<sub>8</sub>H<sub>7</sub>NO<sub>5</sub>",
        "Molecular Mass": "197.14",
        "Melting Point": "122-123 °C"
    }
}