{
    "cas_no": "78056-39-0",
    "key_name": "4,5-Difluoro-2-nitroaniline",
    "cn_name": "4,5-二氟-2-硝基苯胺;",
    "alternate_name": "Benzenamine, 4,5-difluoro-2-nitro-;4,5-Difluoro-2-nitrobenzenamine;4,5-Difluoro-2-nitroaniline;2-Nitro-4,5-difluoroaniline;4,5-Difluoro-2-nitrophenylamine;3,4-Difluoro-6-nitroaniline;NSC 402976",
    "duplicated_cas_no": "",
    "SMILES": "N(=O)(=O)C1=C(N)C=C(F)C(F)=C1",
    "meta_data": {
        "InChI": "InChI=1S/C6H4F2N2O2/c7-3-1-5(9)6(10(11)12)2-4(3)8/h1-2H,9H2",
        "InChIKey": null,
        "Canonical SMILES": "O=N(=O)C1=CC(F)=C(F)C=C1N",
        "Molecular Formula": "C<sub>6</sub>H<sub>4</sub>F<sub>2</sub>N<sub>2</sub>O<sub>2</sub>",
        "Molecular Mass": "174.10",
        "Melting Point": "109-109.5 °C"
    }
}