{
    "cas_no": "7789-30-2",
    "key_name": "Bromine pentafluoride",
    "cn_name": "五氟化溴;",
    "alternate_name": "Bromine fluoride (BrF<sub>5</sub>);Bromine pentafluoride",
    "duplicated_cas_no": "",
    "SMILES": "Br(F)(F)(F)(F)F",
    "meta_data": {
        "InChI": "InChI=1S/BrF5/c2-1(3,4,5)6",
        "InChIKey": null,
        "Canonical SMILES": "FBr(F)(F)(F)F",
        "Molecular Formula": "BrF<sub>5</sub>",
        "Molecular Mass": "174.90",
        "Boiling Point": "40.76 °C",
        "Melting Point": "-60.5 °C",
        "Density": "2.4604 g/cm³ @ Temp: 25 °C"
    }
}