{
    "cas_no": "1122-91-4",
    "key_name": "4-Bromobenzaldehyde",
    "cn_name": "对溴苯甲醛;4-溴苯甲醛;",
    "alternate_name": "Benzaldehyde, 4-bromo-;Benzaldehyde, <em>p</em>-bromo-;4-Bromobenzaldehyde;<em>p</em>-Bromobenzaldehyde;4-Formylbromobenzene;1-Bromo-4-formylbenzene;NSC 21638;4-Formylphenyl bromide;4-Formyl-1-bromobenzene;<em>p</em>-Formylbromobenzene;4-Bromobenzenealdehyde",
    "duplicated_cas_no": "2222571-84-6",
    "SMILES": "C(=O)C1=CC=C(Br)C=C1",
    "meta_data": {
        "InChI": "InChI=1S/C7H5BrO/c8-7-3-1-6(5-9)2-4-7/h1-5H",
        "InChIKey": null,
        "Canonical SMILES": "O=CC1=CC=C(Br)C=C1",
        "Molecular Formula": "C<sub>7</sub>H<sub>5</sub>BrO",
        "Molecular Mass": "185.02",
        "Boiling Point": "105-110 °C @ Press: 12 Torr",
        "Melting Point": "67 °C",
        "Density": "1.2926 g/cm³ @ Temp: 30 °C"
    }
}