{
    "cas_no": "376-72-7",
    "key_name": "ω-Hydroperfluorovaleric acid",
    "cn_name": "2,2,3,3,3,4,4,5,5-八氟戊酸;5H-全氟戊酸;",
    "alternate_name": "Pentanoic acid, 2,2,3,3,4,4,5,5-octafluoro-;Valeric acid, 2,2,3,3,4,4,5,5-octafluoro-;2,2,3,3,4,4,5,5-Octafluoropentanoic acid;ω-Monohydrooctafluoropentanoic acid;ω-Hydrooctafluorovaleric acid;ω-Hydroperfluorovaleric acid;2,2,3,3,4,4,5,5,-Octafluoropentanoic acid;5-<em>H</em>-Octafluoropentanoic acid",
    "duplicated_cas_no": "",
    "SMILES": "C(C(C(F)F)(F)F)(C(C(O)=O)(F)F)(F)F",
    "meta_data": {
        "InChI": "InChI=1S/C5H2F8O2/c6-1(7)3(8,9)5(12,13)4(10,11)2(14)15/h1H,(H,14,15)",
        "InChIKey": null,
        "Canonical SMILES": "O=C(O)C(F)(F)C(F)(F)C(F)(F)C(F)F",
        "Molecular Formula": "C<sub>5</sub>H<sub>2</sub>F<sub>8</sub>O<sub>2</sub>",
        "Molecular Mass": "246.06",
        "Boiling Point": "155-160 °C"
    }
}