{
    "cas_no": "39791-20-3",
    "key_name": "Nilestriol",
    "cn_name": "尼尔雌醇;戊炔雌三醇;3-(环戊氧基)-19-去甲基-17a-孕甾-1,3,5(10)-三烯-20-炔-16a,17-二醇;",
    "alternate_name": "19-Norpregna-1,3,5(10)-trien-20-yne-16,17-diol, 3-(cyclopentyloxy)-, (16α,17α)-;(16α,17α)-3-(Cyclopentyloxy)-19-norpregna-1,3,5(10)-trien-20-yne-16,17-diol;17α-Ethynylestriol 3-cyclopentyl ether;3-Cyclopentyloxy-19-nor-17α-pregna-1,3,5(10)-trien-20-yne-16α,17β-diol;Nylestriol;EE<sub>3</sub>CPE;Nilestriol;WeiNiAn",
    "duplicated_cas_no": "",
    "SMILES": "C[C@@]12[C@]([C@]3([C@](CC1)(C=4C(CC3)=CC(OC5CCCC5)=CC4)[H])[H])(C[C@@H](O)[C@]2(C#C)O)[H]",
    "meta_data": {
        "InChI": "InChI=1S/C25H32O3/c1-3-25(27)23(26)15-22-21-10-8-16-14-18(28-17-6-4-5-7-17)9-11-19(16)20(21)12-13-24(22,25)2/h1,9,11,14,17,20-23,26-27H,4-8,10,12-13,15H2,2H3/t20-,21-,22+,23-,24+,25+/m1/s1",
        "InChIKey": null,
        "Canonical SMILES": "C#CC1(O)C(O)CC2C3CCC4=CC(OC5CCCC5)=CC=C4C3CCC21C",
        "Molecular Formula": "C<sub>25</sub>H<sub>32</sub>O<sub>3</sub>",
        "Molecular Mass": "380.52",
        "Melting Point": "162-165 °C"
    }
}