{
    "cas_no": "140-24-9",
    "key_name": "Dibenzyl sebacate",
    "cn_name": "二苄基癸二酸盐;癸二酸二苄酯;",
    "alternate_name": "Decanedioic acid, 1,10-bis(phenylmethyl) ester;Sebacic acid, dibenzyl ester;Decanedioic acid, bis(phenylmethyl) ester;Dibenzyl sebacate;NSC 3896",
    "duplicated_cas_no": "",
    "SMILES": "C(OC(CCCCCCCCC(OCC1=CC=CC=C1)=O)=O)C2=CC=CC=C2",
    "meta_data": {
        "InChI": "InChI=1S/C24H30O4/c25-23(27-19-21-13-7-5-8-14-21)17-11-3-1-2-4-12-18-24(26)28-20-22-15-9-6-10-16-22/h5-10,13-16H,1-4,11-12,17-20H2",
        "InChIKey": null,
        "Canonical SMILES": "O=C(OCC=1C=CC=CC1)CCCCCCCCC(=O)OCC=2C=CC=CC2",
        "Molecular Formula": "C<sub>24</sub>H<sub>30</sub>O<sub>4</sub>",
        "Molecular Mass": "382.49",
        "Boiling Point": "257 °C",
        "Melting Point": "28.3 °C",
        "Density": "1.0519 g/cm³ @ Temp: 4 °C"
    }
}