{
    "cas_no": "952-97-6",
    "key_name": "4-Nitrophenyl phenyl sulfide",
    "cn_name": null,
    "alternate_name": "Benzene, 1-nitro-4-(phenylthio)-;Sulfide, <em>p</em>-nitrophenyl phenyl;1-Nitro-4-(phenylthio)benzene;<em>p</em>-Nitrodiphenyl sulfide;<em>p</em>-Nitrophenyl phenyl sulfide;4-Nitrodiphenyl sulfide;4-Nitrophenyl phenyl sulfide;Phenyl <em>p</em>-nitrophenyl sulfide;Phenyl 4-nitrophenyl sulfide;4-(Phenylthio)nitrobenzene;4-Nitro-1-(phenylthio)benzene;NSC 87341;(4-Nitrophenyl)phenylsulphide;(4-Nitrophenyl)(phenyl)sulfane;1-Nitro-4-phenylsulfanyl-benzene;1-Nitro-4-phenylsulfanylbenzene",
    "duplicated_cas_no": "",
    "SMILES": "S(C1=CC=C(N(=O)=O)C=C1)C2=CC=CC=C2",
    "meta_data": {
        "InChI": "InChI=1S/C12H9NO2S/c14-13(15)10-6-8-12(9-7-10)16-11-4-2-1-3-5-11/h1-9H",
        "InChIKey": null,
        "Canonical SMILES": "O=N(=O)C1=CC=C(SC=2C=CC=CC2)C=C1",
        "Molecular Formula": "C<sub>12</sub>H<sub>9</sub>NO<sub>2</sub>S",
        "Molecular Mass": "231.27",
        "Boiling Point": "288.2 °C @ Press: 100 Torr",
        "Melting Point": "56 °C"
    }
}