{
    "cas_no": "82-09-7",
    "key_name": "α-Toxicarol",
    "cn_name": null,
    "alternate_name": "3<em>H</em>-Bis[1]benzopyrano[3,4-<em>b</em>:6′,5′-<em>e</em>]pyran-7(7a<em>H</em>)-one, 13,13a-dihydro-6-hydroxy-9,10-dimethoxy-3,3-dimethyl-, (7a<em>S</em>,13a<em>S</em>)-;3<em>H</em>-Bis[1]benzopyrano[3,4-<em>b</em>:6′,5′-<em>e</em>]pyran-7(7a<em>H</em>)-one, 13,13a-dihydro-6-hydroxy-9,10-dimethoxy-3,3-dimethyl-, (7a<em>S</em>-<em>cis</em>)-;3<em>H</em>-Bis[1]benzopyrano[3,4-<em>b</em>:6′,5′-<em>e</em>]pyran-7(7a<em>H</em>)-one, 13,13a-dihydro-6-hydroxy-9,10-dimethoxy-3,3-dimethyl-;(7a<em>S</em>,13a<em>S</em>)-13,13a-Dihydro-6-hydroxy-9,10-dimethoxy-3,3-dimethyl-3<em>H</em>-bis[1]benzopyrano[3,4-<em>b</em>:6′,5′-<em>e</em>]pyran-7(7a<em>H</em>)-one;α-Toxicarol",
    "duplicated_cas_no": "5746-83-8",
    "SMILES": "O=C1[C@]2(C=3C(=CC(OC)=C(OC)C3)OC[C@]2(OC=4C1=C(O)C=C5C4C=CC(C)(C)O5)[H])[H]",
    "meta_data": {
        "InChI": "InChI=1S/C23H22O7/c1-23(2)6-5-11-15(30-23)8-13(24)20-21(25)19-12-7-16(26-3)17(27-4)9-14(12)28-10-18(19)29-22(11)20/h5-9,18-19,24H,10H2,1-4H3/t18-,19+/m1/s1",
        "InChIKey": null,
        "Canonical SMILES": "O=C1C2=C(O)C=C3OC(C=CC3=C2OC4COC5=CC(OC)=C(OC)C=C5C14)(C)C",
        "Molecular Formula": "C<sub>23</sub>H<sub>22</sub>O<sub>7</sub>",
        "Molecular Mass": "410.42",
        "Melting Point": "219 °C"
    }
}