{
    "cas_no": "18871-66-4",
    "key_name": "Dimethylacetamide dimethyl acetal",
    "cn_name": null,
    "alternate_name": "Ethanamine, 1,1-dimethoxy-<em>N</em>,<em>N</em>-dimethyl-;Acetamide, <em>N</em>,<em>N</em>-dimethyl-, dimethyl acetal;Ethylamine, 1,1-dimethoxy-<em>N</em>,<em>N</em>-dimethyl-;1,1-Dimethoxy-<em>N</em>,<em>N</em>-dimethylethanamine;<em>N</em>,<em>N</em>-Dimethylacetamide dimethyl acetal;Dimethylacetamide dimethyl acetal;1-(Dimethylamino)-1,1-dimethoxyethane;DMF dimethyl acetyl;<em>N</em>-(1,1-Dimethoxyethyl)-<em>N</em>,<em>N</em>-dimethylamine;(1,1-Dimethoxyethyl)dimethylamine;1,1-Dimethoxy-<em>N</em>,<em>N</em>-dimethylethylamine;1,1-Dimethoxy-<em>N</em>,<em>N</em>-dimethylethan-1-amine",
    "duplicated_cas_no": "",
    "SMILES": "C(N(C)C)(OC)(OC)C",
    "meta_data": {
        "InChI": "InChI=1S/C6H15NO2/c1-6(8-4,9-5)7(2)3/h1-5H3",
        "InChIKey": null,
        "Canonical SMILES": "O(C)C(OC)(N(C)C)C",
        "Molecular Formula": "C<sub>6</sub>H<sub>15</sub>NO<sub>2</sub>",
        "Molecular Mass": "133.19",
        "Boiling Point": "118-120 °C"
    }
}