{
    "cas_no": "6084-17-9",
    "key_name": "2-Chloro-1-phenyl-1-propanone",
    "cn_name": "2-氯苯丙酮;2-氯-1-苯基-1-丙酮;",
    "alternate_name": "1-Propanone, 2-chloro-1-phenyl-;Propiophenone, 2-chloro-;2-Chloro-1-phenyl-1-propanone;α-Chloropropiophenone;2-Chloropropiophenone;NSC 5663;1-Chloroethyl phenyl ketone",
    "duplicated_cas_no": "117894-94-7",
    "SMILES": "C(C(C)Cl)(=O)C1=CC=CC=C1",
    "meta_data": {
        "InChI": "InChI=1S/C9H9ClO/c1-7(10)9(11)8-5-3-2-4-6-8/h2-7H,1H3",
        "InChIKey": null,
        "Canonical SMILES": "O=C(C=1C=CC=CC1)C(Cl)C",
        "Molecular Formula": "C<sub>9</sub>H<sub>9</sub>ClO",
        "Molecular Mass": "168.62",
        "Boiling Point": "80 °C @ Press: 0.3 Torr",
        "Melting Point": "213-214 °C",
        "Density": "1.560 g/cm³ @ Temp: 25 °C"
    }
}