{
    "cas_no": "728-56-3",
    "key_name": "2-[[2-Nitro-4-(trifluoromethyl)phenyl]thio]acetic acid",
    "cn_name": null,
    "alternate_name": "Acetic acid, 2-[[2-nitro-4-(trifluoromethyl)phenyl]thio]-;Acetic acid, [(α,α,α-trifluoro-2-nitro-<em>p</em>-tolyl)thio]-;Acetic acid, [[2-nitro-4-(trifluoromethyl)phenyl]thio]-;2-[[2-Nitro-4-(trifluoromethyl)phenyl]thio]acetic acid;(2-Nitro-4-trifluoromethyl-phenylsulfanyl)-acetic acid;2-[[2-Nitro-4-(trifluoromethyl)phenyl]sulfanyl]acetic acid",
    "duplicated_cas_no": "",
    "SMILES": "N(=O)(=O)C1=C(SCC(O)=O)C=CC(C(F)(F)F)=C1",
    "meta_data": {
        "InChI": "InChI=1S/C9H6F3NO4S/c10-9(11,12)5-1-2-7(18-4-8(14)15)6(3-5)13(16)17/h1-3H,4H2,(H,14,15)",
        "InChIKey": null,
        "Canonical SMILES": "O=C(O)CSC1=CC=C(C=C1N(=O)=O)C(F)(F)F",
        "Molecular Formula": "C<sub>9</sub>H<sub>6</sub>F<sub>3</sub>NO<sub>4</sub>S",
        "Molecular Mass": "281.21",
        "Melting Point": "154-155 °C"
    }
}