{
    "cas_no": "82558-50-7",
    "key_name": "Isoxaben",
    "cn_name": "异恶草胺;",
    "alternate_name": "Benzamide, <em>N</em>-[3-(1-ethyl-1-methylpropyl)-5-isoxazolyl]-2,6-dimethoxy-;<em>N</em>-[3-(1-Ethyl-1-methylpropyl)-5-isoxazolyl]-2,6-dimethoxybenzamide;Isoxaben;EL 107;NA 8318;Benzamizole;Flexidor;Gallery;X-Pand;Cent 7",
    "duplicated_cas_no": "",
    "SMILES": "C(NC1=CC(C(CC)(CC)C)=NO1)(=O)C2=C(OC)C=CC=C2OC",
    "meta_data": {
        "InChI": "InChI=1S/C18H24N2O4/c1-6-18(3,7-2)14-11-15(24-20-14)19-17(21)16-12(22-4)9-8-10-13(16)23-5/h8-11H,6-7H2,1-5H3,(H,19,21)",
        "InChIKey": null,
        "Canonical SMILES": "O=C(NC=1ON=C(C1)C(C)(CC)CC)C=2C(OC)=CC=CC2OC",
        "Molecular Formula": "C<sub>18</sub>H<sub>24</sub>N<sub>2</sub>O<sub>4</sub>",
        "Molecular Mass": "332.39",
        "Melting Point": "177.5 °C"
    }
}