{
    "cas_no": "2564-06-9",
    "key_name": "<em>N</em>-Benzyl-2-chloroacetamide",
    "cn_name": "N-苄基-2-氯乙酰胺;",
    "alternate_name": "Acetamide, 2-chloro-<em>N</em>-(phenylmethyl)-;Acetamide, <em>N</em>-benzyl-2-chloro-;2-Chloro-<em>N</em>-(phenylmethyl)acetamide;<em>N</em>-Benzylchloroacetamide;2-Chloro-<em>N</em>-benzylacetamide;<em>N</em>-Benzyl-2-chloroacetamide;<em>N</em>-(Chloroacetyl)benzylamine;NSC 60743;<em>N</em>-Benzyl-α-chloroacetamide",
    "duplicated_cas_no": "",
    "SMILES": "C(NC(CCl)=O)C1=CC=CC=C1",
    "meta_data": {
        "InChI": "InChI=1S/C9H10ClNO/c10-6-9(12)11-7-8-4-2-1-3-5-8/h1-5H,6-7H2,(H,11,12)",
        "InChIKey": null,
        "Canonical SMILES": "O=C(NCC=1C=CC=CC1)CCl",
        "Molecular Formula": "C<sub>9</sub>H<sub>10</sub>ClNO",
        "Molecular Mass": "183.63",
        "Melting Point": "93.5-94.5 °C",
        "Density": "1.1505 g/cm³ @ Temp: 20 °C"
    }
}