{
    "cas_no": "2362-63-2",
    "key_name": "3-Methylbenzenecarbothioamide",
    "cn_name": "3-甲硫基苯甲酰胺;",
    "alternate_name": "Benzenecarbothioamide, 3-methyl-;<em>m</em>-Toluamide, thio-;3-Methylbenzenecarbothioamide;<em>m</em>-Methylthiobenzamide;<em>m</em>-Toluthioamide;3-Methylthiobenzamide;3-Methylbenzothioamide;3-Methylbenzene-1-carbothioamide",
    "duplicated_cas_no": "",
    "SMILES": "C(N)(=S)C1=CC(C)=CC=C1",
    "meta_data": {
        "InChI": "InChI=1S/C8H9NS/c1-6-3-2-4-7(5-6)8(9)10/h2-5H,1H3,(H2,9,10)",
        "InChIKey": null,
        "Canonical SMILES": "S=C(N)C1=CC=CC(=C1)C",
        "Molecular Formula": "C<sub>8</sub>H<sub>9</sub>NS",
        "Molecular Mass": "151.23",
        "Melting Point": "89-90 °C"
    }
}