{
    "cas_no": "928-51-8",
    "key_name": "4-Chloro-1-butanol",
    "cn_name": "4-氯-1-丁醇;",
    "alternate_name": "1-Butanol, 4-chloro-;4-Chloro-1-butanol;Tetramethylene chlorohydrin;4-Chlorobutanol;4-Chloro-1-hydroxybutane;ω-Chlorobutanol;1-Chloro-4-butanol;NSC 10810;2-(2-Chloroethyl)ethanol;4-Chlorobutyl alcohol",
    "duplicated_cas_no": "",
    "SMILES": "C(CCO)CCl",
    "meta_data": {
        "InChI": "InChI=1S/C4H9ClO/c5-3-1-2-4-6/h6H,1-4H2",
        "InChIKey": null,
        "Canonical SMILES": "ClCCCCO",
        "Molecular Formula": "C<sub>4</sub>H<sub>9</sub>ClO",
        "Molecular Mass": "108.57",
        "Boiling Point": "84-85 °C",
        "Density": "1.0883 g/cm³ @ Temp: 20 °C"
    }
}