{
    "cas_no": "1070879-27-4",
    "key_name": "4-Bromo-7-methoxyquinoline",
    "cn_name": "4-溴-7-甲氧基喹啉;",
    "alternate_name": "Quinoline, 4-bromo-7-methoxy-;4-Bromo-7-methoxyquinoline",
    "duplicated_cas_no": "",
    "SMILES": "BrC=1C2=C(C=C(OC)C=C2)N=CC1",
    "meta_data": {
        "InChI": "InChI=1S/C10H8BrNO/c1-13-7-2-3-8-9(11)4-5-12-10(8)6-7/h2-6H,1H3",
        "InChIKey": null,
        "Canonical SMILES": "BrC=1C=CN=C2C=C(OC)C=CC12",
        "Molecular Formula": "C<sub>10</sub>H<sub>8</sub>BrNO",
        "Molecular Mass": "238.08",
        "Melting Point": "76-77 °C"
    }
}