{
    "cas_no": "1637-71-4",
    "key_name": "<span class=\"text-smallcaps\">L</span>-Cysteinesulfonic acid",
    "cn_name": "S-磺基-L-半胱氨酸;S-磺基-L-半胱氨酸;",
    "alternate_name": "<span class=\"text-smallcaps\">L</span>-Cysteine, <em>S</em>-sulfo-;Cysteine, hydrogen sulfate (ester), <span class=\"text-smallcaps\">L</span>-;<span class=\"text-smallcaps\">L</span>-Cysteine, hydrogen sulfate (ester);<em>S</em>-Sulfo-<span class=\"text-smallcaps\">L</span>-cysteine;<em>S</em>-Cysteinesulfonic acid;Alaninethiosulfuric acid;<span class=\"text-smallcaps\">L</span>-Cysteinesulfonic acid;<span class=\"text-smallcaps\">L</span>-Cysteine-<em>S</em>-sulfonate;<span class=\"text-smallcaps\">L</span>-Cysteine <em>S</em>-sulfate;(2R)-2-Amino-3-(sulfosulfanyl)propanoic acid",
    "duplicated_cas_no": "",
    "SMILES": "C([C@@H](C(O)=O)N)SS(=O)(=O)O",
    "meta_data": {
        "InChI": "InChI=1S/C3H7NO5S2/c4-2(3(5)6)1-10-11(7,8)9/h2H,1,4H2,(H,5,6)(H,7,8,9)/t2-/m0/s1",
        "InChIKey": null,
        "Canonical SMILES": "O=C(O)C(N)CSS(=O)(=O)O",
        "Molecular Formula": "C<sub>3</sub>H<sub>7</sub>NO<sub>5</sub>S<sub>2</sub>",
        "Molecular Mass": "201.22",
        "Melting Point": "170-171 °C"
    }
}