{
    "cas_no": "19693-75-5",
    "key_name": "2-Methoxy-1,3-dioxolane",
    "cn_name": "2-甲氧基-1,3-二氧戊环; 2-甲氧基-1,3-二恶戊烷;",
    "alternate_name": "1,3-Dioxolane, 2-methoxy-;Orthoformic acid, cyclic ethylene methyl ester;Ethylene glycol, cyclic methyl orthoformate;2-Methoxy-1,3-dioxolane",
    "duplicated_cas_no": "",
    "SMILES": "O(C)C1OCCO1",
    "meta_data": {
        "InChI": "InChI=1S/C4H8O3/c1-5-4-6-2-3-7-4/h4H,2-3H2,1H3",
        "InChIKey": null,
        "Canonical SMILES": "O(C)C1OCCO1",
        "Molecular Formula": "C<sub>4</sub>H<sub>8</sub>O<sub>3</sub>",
        "Molecular Mass": "104.10",
        "Boiling Point": "129.5 °C @ Press: 760 Torr"
    }
}