{
    "cas_no": "370-69-4",
    "key_name": "Ethanol, 2,2,2-trifluoro-, phosphite (3:1)",
    "cn_name": "三(2,2,2-三氟乙烷基)亚磷酸盐;",
    "alternate_name": "Ethanol, 2,2,2-trifluoro-, phosphite (3:1);Ethanol, 2,2,2-trifluoro-, phosphite;Tris(2,2,2-trifluoroethyl) phosphite;NSC 325606;Tris(2,2,2-trifluoroethoxy)phosphine;TTFP",
    "duplicated_cas_no": "1081818-83-8",
    "SMILES": "P(OCC(F)(F)F)(OCC(F)(F)F)OCC(F)(F)F",
    "meta_data": {
        "InChI": "InChI=1S/C6H6F9O3P/c7-4(8,9)1-16-19(17-2-5(10,11)12)18-3-6(13,14)15/h1-3H2",
        "InChIKey": null,
        "Canonical SMILES": "FC(F)(F)COP(OCC(F)(F)F)OCC(F)(F)F",
        "Molecular Formula": "C<sub>6</sub>H<sub>6</sub>F<sub>9</sub>O<sub>3</sub>P",
        "Molecular Mass": "328.07",
        "Boiling Point": "130-131 °C @ Press: 743 Torr",
        "Density": "1.4866 g/cm³ @ Temp: 25 °C"
    }
}