{
    "cas_no": "78-79-5",
    "key_name": "Isoprene",
    "cn_name": "异戊二烯;2-甲基-1,3-丁二烯;",
    "alternate_name": "1,3-Butadiene, 2-methyl-;Isoprene;2-Methyl-1,3-butadiene;β-Methylbivinyl;2-Methylbutadiene;Isopentadiene;3-Methyl-1,3-butadiene;NSC 9237;Benzene, ethynyl-, polymer with 2-methyl-1,3-butadiene, triblock",
    "duplicated_cas_no": "78006-92-5;823271-95-0;2378489-72-4;2706608-31-1",
    "SMILES": "C(C=C)(C)=C",
    "meta_data": {
        "InChI": "InChI=1S/C5H8/c1-4-5(2)3/h4H,1-2H2,3H3",
        "InChIKey": null,
        "Canonical SMILES": "C=CC(=C)C",
        "Molecular Formula": "C<sub>5</sub>H<sub>8</sub>",
        "Molecular Mass": "68.12",
        "Boiling Point": "34.067 °C @ Press: 760 Torr",
        "Melting Point": "-145.95 °C",
        "Density": "0.681 g/cm³ @ Temp: 20 °C"
    }
}