{
    "cas_no": "2471-70-7",
    "key_name": "6-Methoxy-2-naphthoic acid",
    "cn_name": "6-甲氧基-2-萘甲酸;6-甲氧萘-2羧酸;",
    "alternate_name": "2-Naphthalenecarboxylic acid, 6-methoxy-;2-Naphthoic acid, 6-methoxy-;6-Methoxy-2-naphthalenecarboxylic acid;6-Methoxy-2-naphthoic acid;2-Methoxy-6-naphthalenecarboxylic acid;NSC 408786;6-Methoxynaphthalen-2-carboxylic acid;6-Methoxy-2-naphthalenic acid",
    "duplicated_cas_no": "",
    "SMILES": "C(O)(=O)C1=CC2=C(C=C(OC)C=C2)C=C1",
    "meta_data": {
        "InChI": "InChI=1S/C12H10O3/c1-15-11-5-4-8-6-10(12(13)14)3-2-9(8)7-11/h2-7H,1H3,(H,13,14)",
        "InChIKey": null,
        "Canonical SMILES": "O=C(O)C1=CC=C2C=C(OC)C=CC2=C1",
        "Molecular Formula": "C<sub>12</sub>H<sub>10</sub>O<sub>3</sub>",
        "Molecular Mass": "202.21",
        "Melting Point": "209 °C"
    }
}