{
    "cas_no": "13682-99-0",
    "key_name": "Dichloromethylpentylsilane",
    "cn_name": "二氯甲基戊基硅烷;",
    "alternate_name": "Silane, dichloromethylpentyl-;Dichloromethylpentylsilane;Methylpentyldichlorosilane;Pentylmethyldichlorosilane;Amylmethyldichlorosilane",
    "duplicated_cas_no": "",
    "SMILES": "C([Si](C)(Cl)Cl)CCCC",
    "meta_data": {
        "InChI": "InChI=1S/C6H14Cl2Si/c1-3-4-5-6-9(2,7)8/h3-6H2,1-2H3",
        "InChIKey": null,
        "Canonical SMILES": "Cl[Si](Cl)(C)CCCCC",
        "Molecular Formula": "C<sub>6</sub>H<sub>14</sub>Cl<sub>2</sub>Si",
        "Molecular Mass": "185.17",
        "Boiling Point": "170 °C",
        "Density": "0.999 g/cm³ @ Temp: 25 °C"
    }
}