{
    "cas_no": "701-07-5",
    "key_name": "1-Bromo-2-(1-methylethoxy)benzene",
    "cn_name": "2-2\"-溴苯氧丙烷;",
    "alternate_name": "Benzene, 1-bromo-2-(1-methylethoxy)-;Ether, <em>o</em>-bromophenyl isopropyl;1-Bromo-2-(1-methylethoxy)benzene;2-Isopropoxyphenyl bromide;<em>o</em>-Isopropoxyphenyl bromide;2-Bromo-1-isopropoxybenzene;1-Bromo-2-isopropoxybenzene;1-Bromo-2-propan-2-yloxybenzene;1-Bromo-2-(propan-2-yloxy)benzene;2-(2′-Bromophenoxy)propane",
    "duplicated_cas_no": "",
    "SMILES": "O(C(C)C)C1=C(Br)C=CC=C1",
    "meta_data": {
        "InChI": "InChI=1S/C9H11BrO/c1-7(2)11-9-6-4-3-5-8(9)10/h3-7H,1-2H3",
        "InChIKey": null,
        "Canonical SMILES": "BrC=1C=CC=CC1OC(C)C",
        "Molecular Formula": "C<sub>9</sub>H<sub>11</sub>BrO",
        "Molecular Mass": "215.09",
        "Boiling Point": "73 °C @ Press: 2 Torr",
        "Density": "1.322 g/cm³ @ Temp: 20 °C"
    }
}