{
    "cas_no": "454-89-7",
    "key_name": "3-(Trifluoromethyl)benzaldehyde",
    "cn_name": "3-三氟甲基苯甲醛;间三氟甲基苯甲醛;",
    "alternate_name": "Benzaldehyde, 3-(trifluoromethyl)-;<em>m</em>-Tolualdehyde, α,α,α-trifluoro-;3-(Trifluoromethyl)benzaldehyde;α,α,α-Trifluoro-<em>m</em>-tolualdehyde;<em>m</em>-(Trifluoromethyl)benzaldehyde;3-(Trifluoromethyl)phenylcarboxaldehyde",
    "duplicated_cas_no": "",
    "SMILES": "C(F)(F)(F)C1=CC(C=O)=CC=C1",
    "meta_data": {
        "InChI": "InChI=1S/C8H5F3O/c9-8(10,11)7-3-1-2-6(4-7)5-12/h1-5H",
        "InChIKey": null,
        "Canonical SMILES": "O=CC1=CC=CC(=C1)C(F)(F)F",
        "Molecular Formula": "C<sub>8</sub>H<sub>5</sub>F<sub>3</sub>O",
        "Molecular Mass": "174.12",
        "Boiling Point": "83-86 °C",
        "Density": "1.300 g/cm³ @ Temp: 27 °C"
    }
}