{
    "cas_no": "4024-14-0",
    "key_name": "3,4-Dihydro-1-methyl-2(1<em>H</em>)-naphthalenone",
    "cn_name": null,
    "alternate_name": "2(1<em>H</em>)-Naphthalenone, 3,4-dihydro-1-methyl-;3,4-Dihydro-1-methyl-2(1<em>H</em>)-naphthalenone;1-Methyl-2-tetralone;(<em>RS</em>)-1-Methyl-2-tetralone;NSC 89281;1,2,3,4-Tetrahydro-1-methylnaphthalen-2-one;1-Methyl-3,4-dihydronaphthalen-2(1<em>H</em>)-one;1-Methyl-1,2,3,4-tetrahydronaphthalen-2-one;1-Methyl-3,4-dihydro-1<em>H</em>-naphthalen-2-one",
    "duplicated_cas_no": "58912-71-3",
    "SMILES": "CC1C=2C(CCC1=O)=CC=CC2",
    "meta_data": {
        "InChI": "InChI=1S/C11H12O/c1-8-10-5-3-2-4-9(10)6-7-11(8)12/h2-5,8H,6-7H2,1H3",
        "InChIKey": null,
        "Canonical SMILES": "O=C1CCC=2C=CC=CC2C1C",
        "Molecular Formula": "C<sub>11</sub>H<sub>12</sub>O",
        "Molecular Mass": "160.21",
        "Boiling Point": "137-138 °C @ Press: 18 Torr",
        "Density": "1.0873 g/cm³ @ Temp: 20 °C"
    }
}