{
    "cas_no": "21732-98-9",
    "key_name": "1<em>H</em>-1,2,4-Triazole-5-carboxylic acid, hydrazide",
    "cn_name": null,
    "alternate_name": "1<em>H</em>-1,2,4-Triazole-5-carboxylic acid, hydrazide;<em>s</em>-Triazole-3-carboxylic acid, hydrazide;1<em>H</em>-1,2,4-Triazole-3-carboxylic acid, hydrazide;IF 337;1,2,4-Triazole-3-carboxylic acid hydrazide;1<em>H</em>-1,2,4-Triazole-5-carbohydrazide;1<em>H</em>-1,2,4-Triazole-3-carbohydrazide;4<em>H</em>-1,2,4-Triazole-3-carbohydrazide",
    "duplicated_cas_no": "",
    "SMILES": "C(NN)(=O)C=1NC=NN1",
    "meta_data": {
        "InChI": "InChI=1S/C3H5N5O/c4-7-3(9)2-5-1-6-8-2/h1H,4H2,(H,7,9)(H,5,6,8)",
        "InChIKey": null,
        "Canonical SMILES": "O=C(NN)C1=NN=CN1",
        "Molecular Formula": "C<sub>3</sub>H<sub>5</sub>N<sub>5</sub>O",
        "Molecular Mass": "127.10",
        "Melting Point": "241-244 °C"
    }
}