{
    "cas_no": "6937-16-2",
    "key_name": "Butanoic acid, 4-amino-, ethyl ester, hydrochloride (1:1)",
    "cn_name": null,
    "alternate_name": "Butanoic acid, 4-amino-, ethyl ester, hydrochloride (1:1);Butyric acid, 4-amino-, ethyl ester, hydrochloride;Butanoic acid, 4-amino-, ethyl ester, hydrochloride;4-Aminobutyric acid ethyl ester hydrochloride;Ethyl γ-aminobutyrate hydrochloride;Ethyl 4-aminobutyrate hydrochloride;Ethyl 4-aminobutanoate hydrochloride;4-Aminobutanoic acid ethyl ester hydrochloride;4-Amino ethyl butyrate hydrochloride",
    "duplicated_cas_no": "",
    "SMILES": "C(CCCN)(OCC)=O.Cl",
    "meta_data": {
        "InChI": "InChI=1S/C6H13NO2.ClH/c1-2-9-6(8)4-3-5-7;/h2-5,7H2,1H3;1H",
        "InChIKey": null,
        "Canonical SMILES": "Cl.O=C(OCC)CCCN",
        "Molecular Formula": "C<sub>6</sub>H<sub>13</sub>NO<sub>2</sub>.ClH",
        "Molecular Mass": "",
        "Melting Point": "38 °C"
    }
}