{
    "cas_no": "526-31-8",
    "key_name": "<em>N</em>-Methyl-<span class=\"text-smallcaps\">L</span>-tryptophan",
    "cn_name": "L-红豆碱;相思豆毒素;",
    "alternate_name": "<span class=\"text-smallcaps\">L</span>-Tryptophan, <em>N</em>-methyl-;Tryptophan, <em>N</em>-methyl-, <span class=\"text-smallcaps\">L</span>-;<em>N</em>-Methyl-<span class=\"text-smallcaps\">L</span>-tryptophan;<span class=\"text-smallcaps\">L</span>-Abrine;<em>N</em>-Methyltryptophan;Abrine;Abrine (amino acid);<span class=\"text-smallcaps\">L</span>-<em>N</em>-Methyltryptophan;<em>N</em>-α-Methyl-<span class=\"text-smallcaps\">L</span>-tryptophan;<span class=\"text-smallcaps\">L</span>-(+)-Abrine;(<em>S</em>)-3-(1<em>H</em>-Indol-3-yl)-2-methylaminopropionic acid;NPLC 0233;(2S)-3-(1<em>H</em>-Indol-3-yl)-2-(methylazaniumyl)propanoate",
    "duplicated_cas_no": "642-85-3",
    "SMILES": "C([C@@H](C(O)=O)NC)C=1C=2C(NC1)=CC=CC2",
    "meta_data": {
        "InChI": "InChI=1S/C12H14N2O2/c1-13-11(12(15)16)6-8-7-14-10-5-3-2-4-9(8)10/h2-5,7,11,13-14H,6H2,1H3,(H,15,16)/t11-/m0/s1",
        "InChIKey": null,
        "Canonical SMILES": "O=C(O)C(NC)CC1=CNC=2C=CC=CC21",
        "Molecular Formula": "C<sub>12</sub>H<sub>14</sub>N<sub>2</sub>O<sub>2</sub>",
        "Molecular Mass": "218.25",
        "Melting Point": "289 °C (decomp)"
    }
}