{
    "cas_no": "60705-96-6",
    "key_name": "<em>N</em>-Carboxymethylisatin",
    "cn_name": null,
    "alternate_name": "1<em>H</em>-Indole-1-acetic acid, 2,3-dihydro-2,3-dioxo-;1-Indolineacetic acid, 2,3-dioxo-;2,3-Dihydro-2,3-dioxo-1<em>H</em>-indole-1-acetic acid;<em>N</em>-Carboxymethylisatin;NSC 523893;(2,3-Dioxo-2,3-dihydroindol-1-yl)acetic acid;(2,3-Dioxo-2,3-dihydro-1<em>H</em>-indol-1-yl)acetic acid;2-(2,3-Dioxo-2,3-dihydro-1<em>H</em>-indol-1-yl)acetic acid;2-(2,3-Dioxoindol-1-yl)acetic acid",
    "duplicated_cas_no": "",
    "SMILES": "C(C(O)=O)N1C=2C(C(=O)C1=O)=CC=CC2",
    "meta_data": {
        "InChI": "InChI=1S/C10H7NO4/c12-8(13)5-11-7-4-2-1-3-6(7)9(14)10(11)15/h1-4H,5H2,(H,12,13)",
        "InChIKey": null,
        "Canonical SMILES": "O=C(O)CN1C(=O)C(=O)C=2C=CC=CC21",
        "Molecular Formula": "C<sub>10</sub>H<sub>7</sub>NO<sub>4</sub>",
        "Molecular Mass": "205.17",
        "Melting Point": "199-201 °C"
    }
}