{
    "cas_no": "1142-19-4",
    "key_name": "4-Chlorophenyl disulfide",
    "cn_name": "敌螨死;双(4-氯苯基)二硫化物;",
    "alternate_name": "Disulfide, bis(4-chlorophenyl);Disulfide, bis(<em>p</em>-chlorophenyl);Bis(4-chlorophenyl) disulfide;Bis(<em>p</em>-chlorophenyl) disulfide;DDDS;4,4′-Dichlorodiphenyl disulfide;<em>p</em>-Chlorophenyl disulfide;Di(<em>p</em>-chlorophenyl) disulfide;<em>p</em>,<em>p</em>′-Dichlorodiphenyl disulfide;DDDS (pesticide);4-Chlorophenyl disulfide;NSC 32025;MCS;MCS (sulfide);NSC 677444;Bis-(4-chlorobenzene)-disulfide;Di(4-chlorophenyl) disulfide;1,2-Bis(4-chlorophenyl)disulfane;1-Chloro-4-[(4-chlorophenyl)disulfanyl]benzene",
    "duplicated_cas_no": "1089712-52-6",
    "SMILES": "S(SC1=CC=C(Cl)C=C1)C2=CC=C(Cl)C=C2",
    "meta_data": {
        "InChI": "InChI=1S/C12H8Cl2S2/c13-9-1-5-11(6-2-9)15-16-12-7-3-10(14)4-8-12/h1-8H",
        "InChIKey": null,
        "Canonical SMILES": "ClC1=CC=C(SSC2=CC=C(Cl)C=C2)C=C1",
        "Molecular Formula": "C<sub>12</sub>H<sub>8</sub>Cl<sub>2</sub>S<sub>2</sub>",
        "Molecular Mass": "287.23",
        "Boiling Point": "141 °C @ Press: 0.4 Torr",
        "Melting Point": "68 °C",
        "Density": "1.304 g/cm³ @ Temp: 102.3 °C"
    }
}