{
    "cas_no": "1687-30-5",
    "key_name": "1,2-Cyclohexanedicarboxylic acid",
    "cn_name": null,
    "alternate_name": "1,2-Cyclohexanedicarboxylic acid;Hexahydrophthalic acid;1,2-Benzenedicarboxylic acid, hexahydro-;NSC 239117",
    "duplicated_cas_no": "",
    "SMILES": "C(O)(=O)C1C(C(O)=O)CCCC1",
    "meta_data": {
        "InChI": "InChI=1S/C8H12O4/c9-7(10)5-3-1-2-4-6(5)8(11)12/h5-6H,1-4H2,(H,9,10)(H,11,12)",
        "InChIKey": null,
        "Canonical SMILES": "O=C(O)C1CCCCC1C(=O)O",
        "Molecular Formula": "C<sub>8</sub>H<sub>12</sub>O<sub>4</sub>",
        "Molecular Mass": "172.18",
        "Melting Point": "219-220 °C"
    }
}