{
    "cas_no": "6018-41-3",
    "key_name": "Methyl coumalate",
    "cn_name": "香豆灵酸甲酯;2-吡喃酮-5-甲酸甲酯;",
    "alternate_name": "2<em>H</em>-Pyran-5-carboxylic acid, 2-oxo-, methyl ester;Glutaconic acid, 4-(hydroxymethylene)-, δ-lactone, methyl ester;Coumalic acid methyl ester;Methyl coumalate;5-(Carbomethoxy)-2-pyrone;Methyl 2-oxo-2<em>H</em>-pyran-5-carboxylate;Methyl 2-pyrone-5-carboxylate;Methyl cumalate;Cumalic acid methyl ester;5-(Methoxycarbonyl)-2-pyrone;NSC 137387;NSC 34627;Methyl 6-oxopyran-3-carboxylate",
    "duplicated_cas_no": "",
    "SMILES": "C(OC)(=O)C=1C=CC(=O)OC1",
    "meta_data": {
        "InChI": "InChI=1S/C7H6O4/c1-10-7(9)5-2-3-6(8)11-4-5/h2-4H,1H3",
        "InChIKey": null,
        "Canonical SMILES": "O=C1OC=C(C=C1)C(=O)OC",
        "Molecular Formula": "C<sub>7</sub>H<sub>6</sub>O<sub>4</sub>",
        "Molecular Mass": "154.12",
        "Melting Point": "73-74 °C"
    }
}