{
    "cas_no": "874-60-2",
    "key_name": "4-Methylbenzoyl chloride",
    "cn_name": "对甲基苯甲酰氯;",
    "alternate_name": "Benzoyl chloride, 4-methyl-;<em>p</em>-Toluoyl chloride;4-Methylbenzoyl chloride;<em>p</em>-Methylbenzoyl chloride;<em>p</em>-Toluyl chloride;4-Toluoyl chloride;<em>p</em>-Toluic acid chloride;4-Methylbenzoic acid chloride;4-Methylbenzenecarbonyl chloride;<em>p</em>-Toluenecarbonyl chloride",
    "duplicated_cas_no": "1640987-69-4",
    "SMILES": "C(Cl)(=O)C1=CC=C(C)C=C1",
    "meta_data": {
        "InChI": "InChI=1S/C8H7ClO/c1-6-2-4-7(5-3-6)8(9)10/h2-5H,1H3",
        "InChIKey": null,
        "Canonical SMILES": "O=C(Cl)C1=CC=C(C=C1)C",
        "Molecular Formula": "C<sub>8</sub>H<sub>7</sub>ClO",
        "Molecular Mass": "154.59",
        "Boiling Point": "226 °C",
        "Melting Point": "-3 °C",
        "Density": "1.175 g/cm³ @ Temp: 20 °C"
    }
}