{
    "cas_no": "61563-26-6",
    "key_name": "2,3-Dibromobenzaldehyde",
    "cn_name": null,
    "alternate_name": "Benzaldehyde, 2,3-dibromo-;2,3-Dibromobenzaldehyde",
    "duplicated_cas_no": "",
    "SMILES": "C(=O)C1=C(Br)C(Br)=CC=C1",
    "meta_data": {
        "InChI": "InChI=1S/C7H4Br2O/c8-6-3-1-2-5(4-10)7(6)9/h1-4H",
        "InChIKey": null,
        "Canonical SMILES": "O=CC=1C=CC=C(Br)C1Br",
        "Molecular Formula": "C<sub>7</sub>H<sub>4</sub>Br<sub>2</sub>O",
        "Molecular Mass": "263.91",
        "Melting Point": "89.5-90.5 °C"
    }
}