{
    "cas_no": "5699-54-7",
    "key_name": "β-Leucine",
    "cn_name": "3-氨基-4-甲基戊酸;",
    "alternate_name": "Pentanoic acid, 3-amino-4-methyl-;Valeric acid, 3-amino-4-methyl-;3-Amino-4-methylpentanoic acid;β-Leucine;β-Aminoisocaproic acid;<span class=\"text-smallcaps\">DL</span>-β-Leucine;(±)-3-Amino-4-methylpentanoic acid",
    "duplicated_cas_no": "37631-91-7",
    "SMILES": "C(CC(O)=O)(C(C)C)N",
    "meta_data": {
        "InChI": "InChI=1S/C6H13NO2/c1-4(2)5(7)3-6(8)9/h4-5H,3,7H2,1-2H3,(H,8,9)",
        "InChIKey": null,
        "Canonical SMILES": "O=C(O)CC(N)C(C)C",
        "Molecular Formula": "C<sub>6</sub>H<sub>13</sub>NO<sub>2</sub>",
        "Molecular Mass": "131.17",
        "Melting Point": "197-197.5 °C"
    }
}