{
    "cas_no": "606-00-8",
    "key_name": "Methyl 2-amino-3,5-dibromobenzoate",
    "cn_name": "3,5-二溴邻氨基苯甲酸甲酯;2-氨基-3,5-二溴苯甲酸甲酯;",
    "alternate_name": "Benzoic acid, 2-amino-3,5-dibromo-, methyl ester;Anthranilic acid, 3,5-dibromo-, methyl ester;Methyl 3,5-dibromoanthranilate;NSC 3823;Methyl 3,5-dibromo-2-aminobenzoate;Methyl 2-amino-3,5-dibromobenzoate;2-Amino-3,5-dibromo-benzoic acid methyl ester",
    "duplicated_cas_no": "",
    "SMILES": "C(OC)(=O)C1=C(N)C(Br)=CC(Br)=C1",
    "meta_data": {
        "InChI": "InChI=1S/C8H7Br2NO2/c1-13-8(12)5-2-4(9)3-6(10)7(5)11/h2-3H,11H2,1H3",
        "InChIKey": null,
        "Canonical SMILES": "O=C(OC)C=1C=C(Br)C=C(Br)C1N",
        "Molecular Formula": "C<sub>8</sub>H<sub>7</sub>Br<sub>2</sub>NO<sub>2</sub>",
        "Molecular Mass": "308.95",
        "Melting Point": "90 °C"
    }
}