{
    "cas_no": "19883-78-4",
    "key_name": "2-Fluoro-<span class=\"text-smallcaps\">L</span>-phenylalanine",
    "cn_name": "2-氟-苯丙氨酸;2-氟-L-阿拉明叔苯胺;2-氟-L-苯丙氨酸；邻氟-L-苯丙氨酸;",
    "alternate_name": "<span class=\"text-smallcaps\">L</span>-Phenylalanine, 2-fluoro-;Alanine, 3-(<em>o</em>-fluorophenyl)-, <span class=\"text-smallcaps\">L</span>-;2-Fluoro-<span class=\"text-smallcaps\">L</span>-phenylalanine;<em>o</em>-Fluoro-<span class=\"text-smallcaps\">L</span>-phenylalanine;<span class=\"text-smallcaps\">L</span>-2-Fluorophenylalanine;(2S)-2-Azaniumyl-3-(2-fluorophenyl)propanoate;(<em>S</em>)-2-FluorophenyLalanine;(2S)-2-Amino-3-(2-fluorophenyl)propanoic acid",
    "duplicated_cas_no": "",
    "SMILES": "C([C@@H](C(O)=O)N)C1=C(F)C=CC=C1",
    "meta_data": {
        "InChI": "InChI=1S/C9H10FNO2/c10-7-4-2-1-3-6(7)5-8(11)9(12)13/h1-4,8H,5,11H2,(H,12,13)/t8-/m0/s1",
        "InChIKey": null,
        "Canonical SMILES": "O=C(O)C(N)CC=1C=CC=CC1F",
        "Molecular Formula": "C<sub>9</sub>H<sub>10</sub>FNO<sub>2</sub>",
        "Molecular Mass": "183.18",
        "Melting Point": "208-210 °C"
    }
}