{
    "cas_no": "3336-58-1",
    "key_name": "Ammonium trifluoroacetate",
    "cn_name": "三氟乙酸铵;",
    "alternate_name": "Acetic acid, 2,2,2-trifluoro-, ammonium salt (1:1);Acetic acid, trifluoro-, ammonium salt;Ammonium trifluoroacetate",
    "duplicated_cas_no": "",
    "SMILES": "C(C(O)=O)(F)(F)F.N",
    "meta_data": {
        "InChI": "InChI=1S/C2HF3O2.H3N/c3-2(4,5)1(6)7;/h(H,6,7);1H3",
        "InChIKey": null,
        "Canonical SMILES": "O=C(O)C(F)(F)F.N",
        "Molecular Formula": "C<sub>2</sub>HF<sub>3</sub>O<sub>2</sub>.H<sub>3</sub>N",
        "Molecular Mass": "",
        "Melting Point": "124 °C"
    }
}