{
    "cas_no": "4597-87-9",
    "key_name": "2-(Methylamino)pyridine",
    "cn_name": "2-甲基氨基吡啶;2-甲氨基吡啶;",
    "alternate_name": "2-Pyridinamine, <em>N</em>-methyl-;Pyridine, 2-(methylamino)-;<em>N</em>-Methyl-2-pyridinamine;2-(Methylamino)pyridine;<em>N</em>-2-Pyridylmethylamine;<em>N</em>-Methyl-2-aminopyridine;<em>N</em>-Methyl-<em>N</em>-(2-pyridyl)amine;NSC 122871;Methyl(pyridin-2-yl)amine;<em>N</em>-Methyl-<em>N</em>-(pyridin-2-yl)amine",
    "duplicated_cas_no": "",
    "SMILES": "N(C)C1=CC=CC=N1",
    "meta_data": {
        "InChI": "InChI=1S/C6H8N2/c1-7-6-4-2-3-5-8-6/h2-5H,1H3,(H,7,8)",
        "InChIKey": null,
        "Canonical SMILES": "N=1C=CC=CC1NC",
        "Molecular Formula": "C<sub>6</sub>H<sub>8</sub>N<sub>2</sub>",
        "Molecular Mass": "108.14",
        "Boiling Point": "200.5 °C",
        "Melting Point": "15 °C"
    }
}