{
    "cas_no": "13093-05-5",
    "key_name": "<em>N</em><sup>1</sup>,<em>N</em><sup>6</sup>-Diethyl-1,6-hexanediamine",
    "cn_name": "N,N-二乙基-1,6-二氨基己烷;1,6-双(乙基氨基)己烷;N,N-二乙基-1,6-己二胺;",
    "alternate_name": "1,6-Hexanediamine, <em>N</em><sup>1</sup>,<em>N</em><sup>6</sup>-diethyl-;1,6-Hexanediamine, <em>N</em>,<em>N</em>′-diethyl-;<em>N</em><sup>1</sup>,<em>N</em><sup>6</sup>-Diethyl-1,6-hexanediamine;<em>N</em>,<em>N</em>′-Diethylhexylenediamine;<em>N</em>,<em>N</em>′-Diethyl-1,6-hexanediamine;1,6-Bis(ethylamino)hexane;<em>N</em>,<em>N</em>′-Diethylhexamethylenediamine;NSC 166319;<em>N</em><sup>1</sup>,<em>N</em><sup>6</sup>-Dimethylhexane-1,6-diamine;1,6-Hexanediamine N1,N6-diethyl-",
    "duplicated_cas_no": "1081805-72-2",
    "SMILES": "C(CCCNCC)CCNCC",
    "meta_data": {
        "InChI": "InChI=1S/C10H24N2/c1-3-11-9-7-5-6-8-10-12-4-2/h11-12H,3-10H2,1-2H3",
        "InChIKey": null,
        "Canonical SMILES": "N(CC)CCCCCCNCC",
        "Molecular Formula": "C<sub>10</sub>H<sub>24</sub>N<sub>2</sub>",
        "Molecular Mass": "172.31",
        "Boiling Point": "105 °C @ Press: 6 Torr",
        "Density": "0.8226 g/cm³ @ Temp: 25 °C"
    }
}