{
    "cas_no": "106133-20-4",
    "key_name": "Tamsulosin",
    "cn_name": null,
    "alternate_name": "Benzenesulfonamide, 5-[(2<em>R</em>)-2-[[2-(2-ethoxyphenoxy)ethyl]amino]propyl]-2-methoxy-;Benzenesulfonamide, 5-[2-[[2-(2-ethoxyphenoxy)ethyl]amino]propyl]-2-methoxy-, (<em>R</em>)-;5-[(2<em>R</em>)-2-[[2-(2-Ethoxyphenoxy)ethyl]amino]propyl]-2-methoxybenzenesulfonamide;Amsulosin;Tamsulosin;(-)-Tamsulosin;(<em>R</em>)-Tamsulosin;(<em>R</em>)-5-[2-[[2-(2-Ethoxyphenoxy)ethyl]amino]propyl]-2-methoxybenzenesulfonamide;Tulosin;Contiflo OD",
    "duplicated_cas_no": "",
    "SMILES": "S(N)(=O)(=O)C1=C(OC)C=CC(C[C@H](NCCOC2=C(OCC)C=CC=C2)C)=C1",
    "meta_data": {
        "InChI": "InChI=1S/C20H28N2O5S/c1-4-26-17-7-5-6-8-18(17)27-12-11-22-15(2)13-16-9-10-19(25-3)20(14-16)28(21,23)24/h5-10,14-15,22H,4,11-13H2,1-3H3,(H2,21,23,24)/t15-/m1/s1",
        "InChIKey": null,
        "Canonical SMILES": "O=S(=O)(N)C1=CC(=CC=C1OC)CC(NCCOC=2C=CC=CC2OCC)C",
        "Molecular Formula": "C<sub>20</sub>H<sub>28</sub>N<sub>2</sub>O<sub>5</sub>S",
        "Molecular Mass": "408.51",
        "Melting Point": "228-230 °C"
    }
}