{
    "cas_no": "99-86-5",
    "key_name": "α-Terpinene",
    "cn_name": null,
    "alternate_name": "1,3-Cyclohexadiene, 1-methyl-4-(1-methylethyl)-;<em>p</em>-Mentha-1,3-diene;1-Methyl-4-(1-methylethyl)-1,3-cyclohexadiene;Terpilene;α-Terpinene;α-Terpinen;4-Isopropyl-1-methyl-1,3-cyclohexadiene;1-Methyl-4-isopropyl-1,3-cyclohexadiene;1-Isopropyl-4-methyl-1,3-cyclohexadiene;alpha-Terpinene;1-Methyl-4-propan-2-ylcyclohexa-1,3-diene",
    "duplicated_cas_no": "",
    "SMILES": "C(C)(C)C=1CCC(C)=CC1",
    "meta_data": {
        "InChI": "InChI=1S/C10H16/c1-8(2)10-6-4-9(3)5-7-10/h4,6,8H,5,7H2,1-3H3",
        "InChIKey": null,
        "Canonical SMILES": "C=1C=C(CCC1C)C(C)C",
        "Molecular Formula": "C<sub>10</sub>H<sub>16</sub>",
        "Molecular Mass": "136.23",
        "Boiling Point": "175 °C",
        "Melting Point": "&lt;25 °C",
        "Density": "0.8529 g/cm³ @ Temp: 23 °C"
    }
}