{
    "cas_no": "18407-94-8",
    "key_name": "Silicic acid (H<sub>4</sub>SiO<sub>4</sub>) tetrakis(2-ethoxyethyl) ester",
    "cn_name": "四乙氧基乙基原硅酸;四乙氧基乙基原硅酸;",
    "alternate_name": "Silicic acid (H<sub>4</sub>SiO<sub>4</sub>), tetrakis(2-ethoxyethyl) ester;Ethanol, 2-ethoxy-, tetraester with silicic acid (H<sub>4</sub>SiO<sub>4</sub>);Ethanol, 2-ethoxy-, silicate;Silicic acid (H<sub>4</sub>SiO<sub>4</sub>) tetrakis(2-ethoxyethyl) ester;2-Ethoxyethyl silicate;Tetraethoxyethyl orthosilicate;Tetrakis(2-ethoxyethyl) silicate;Tetrakis(ethoxyethoxy)silane;Tetrakis(2-ethoxyethoxy)silane",
    "duplicated_cas_no": "",
    "SMILES": "[Si](OCCOCC)(OCCOCC)(OCCOCC)OCCOCC",
    "meta_data": {
        "InChI": "InChI=1S/C16H36O8Si/c1-5-17-9-13-21-25(22-14-10-18-6-2,23-15-11-19-7-3)24-16-12-20-8-4/h5-16H2,1-4H3",
        "InChIKey": null,
        "Canonical SMILES": "O(CC)CCO[Si](OCCOCC)(OCCOCC)OCCOCC",
        "Molecular Formula": "C<sub>16</sub>H<sub>36</sub>O<sub>8</sub>Si",
        "Molecular Mass": "384.54",
        "Boiling Point": "200 °C @ Press: 0.1 Torr",
        "Density": "1.020 g/cm³"
    }
}