{
    "cas_no": "35150-08-4",
    "key_name": "1,1-Dimethylethyl <em>N</em>-[(1<em>S</em>)-1-(aminocarbonyl)-2-methylpropyl]carbamate",
    "cn_name": "Boc-L-缬氨酰胺; N-叔丁氧羰基-L-缬氨酰胺;",
    "alternate_name": "Carbamic acid, <em>N</em>-[(1<em>S</em>)-1-(aminocarbonyl)-2-methylpropyl]-, 1,1-dimethylethyl ester;Carbamic acid, [1-(aminocarbonyl)-2-methylpropyl]-, 1,1-dimethylethyl ester, (<em>S</em>)-;Carbamic acid, [(1<em>S</em>)-1-(aminocarbonyl)-2-methylpropyl]-, 1,1-dimethylethyl ester;1,1-Dimethylethyl <em>N</em>-[(1<em>S</em>)-1-(aminocarbonyl)-2-methylpropyl]carbamate;<em>N</em>-(<em>tert</em>-Butoxycarbonyl)-<span class=\"text-smallcaps\">L</span>-valine amide;(<em>tert</em>-Butoxycarbonyl)valinamide;<em>N</em>-(<em>tert</em>-Butoxycarbonyl)valine amide;<em>N</em>-<em>tert</em>-Butoxycarbonyl-<span class=\"text-smallcaps\">L</span>-valinamide;Boc-<span class=\"text-smallcaps\">L</span>-valinamide;(<em>S</em>)-<em>tert</em>-Butyl(1-amino-3-methyl-1-oxobutan-2-yl)carbamate",
    "duplicated_cas_no": "",
    "SMILES": "[C@H](NC(OC(C)(C)C)=O)(C(C)C)C(N)=O",
    "meta_data": {
        "InChI": "InChI=1S/C10H20N2O3/c1-6(2)7(8(11)13)12-9(14)15-10(3,4)5/h6-7H,1-5H3,(H2,11,13)(H,12,14)/t7-/m0/s1",
        "InChIKey": null,
        "Canonical SMILES": "O=C(OC(C)(C)C)NC(C(=O)N)C(C)C",
        "Molecular Formula": "C<sub>10</sub>H<sub>20</sub>N<sub>2</sub>O<sub>3</sub>",
        "Molecular Mass": "216.28",
        "Melting Point": "156-157 °C"
    }
}