{
    "cas_no": "313-72-4",
    "key_name": "Octafluoronaphthalene",
    "cn_name": "八氟萘;全氟萘烷;八氟萘烷;八氟萘/全氟萘烷;",
    "alternate_name": "Naphthalene, 1,2,3,4,5,6,7,8-octafluoro-;Naphthalene, octafluoro-;1,2,3,4,5,6,7,8-Octafluoronaphthalene;Perfluoronaphthalene;Octafluoronaphthalene;DTXSID 60185221",
    "duplicated_cas_no": "",
    "SMILES": "FC=1C2=C(C(F)=C(F)C(F)=C2F)C(F)=C(F)C1F",
    "meta_data": {
        "InChI": "InChI=1S/C10F8/c11-3-1-2(5(13)9(17)7(3)15)6(14)10(18)8(16)4(1)12",
        "InChIKey": null,
        "Canonical SMILES": "FC=1C(F)=C(F)C=2C(F)=C(F)C(F)=C(F)C2C1F",
        "Molecular Formula": "C<sub>10</sub>F<sub>8</sub>",
        "Molecular Mass": "272.09",
        "Boiling Point": "209 °C",
        "Melting Point": "87.5 °C",
        "Density": "2.07 g/cm³"
    }
}