{
    "cas_no": "7570-37-8",
    "key_name": "4-Amino-4′-methoxystilbene",
    "cn_name": null,
    "alternate_name": "Benzenamine, 4-[2-(4-methoxyphenyl)ethenyl]-;4-Stilbenamine, 4′-methoxy-;Aniline, <em>p</em>-(<em>p</em>-methoxystyryl)-;4-[2-(4-Methoxyphenyl)ethenyl]benzenamine;4-Amino-4′-methoxystilbene",
    "duplicated_cas_no": "",
    "SMILES": "C(=CC1=CC=C(N)C=C1)C2=CC=C(OC)C=C2",
    "meta_data": {
        "InChI": "InChI=1S/C15H15NO/c1-17-15-10-6-13(7-11-15)3-2-12-4-8-14(16)9-5-12/h2-11H,16H2,1H3",
        "InChIKey": null,
        "Canonical SMILES": "O(C1=CC=C(C=C1)C=CC2=CC=C(N)C=C2)C",
        "Molecular Formula": "C<sub>15</sub>H<sub>15</sub>NO",
        "Molecular Mass": "225.29",
        "Melting Point": "173-174 °C"
    }
}