{
    "cas_no": "70458-92-3",
    "key_name": "Pefloxacin",
    "cn_name": "培氟沙星;1-乙基-6-氟-7-(4-甲基哌嗪基)-4-氧代-1,4-二氢喹啉-3-羧酸;",
    "alternate_name": "3-Quinolinecarboxylic acid, 1-ethyl-6-fluoro-1,4-dihydro-7-(4-methyl-1-piperazinyl)-4-oxo-;1-Ethyl-6-fluoro-1,4-dihydro-7-(4-methyl-1-piperazinyl)-4-oxo-3-quinolinecarboxylic acid;1584RB;Pefloxacine;Pefloxacin;AM 725;Peflacine;<em>N</em>′-Methylnorfloxacin;Abaktal;Abactal;1589RB;EU 5306;Pelox;Perti;Pefbid;Globacin;Perflacin;1-Ethyl-6-fluoro-7-(4-methyl-piperazin-1-yl)-4-oxo-1,4-dihydro-quinoline-3-carboxylic acid;MeSH ID: D015366",
    "duplicated_cas_no": "408363-79-1",
    "SMILES": "C(C)N1C=2C(C(=O)C(C(O)=O)=C1)=CC(F)=C(C2)N3CCN(C)CC3",
    "meta_data": {
        "InChI": "InChI=1S/C17H20FN3O3/c1-3-20-10-12(17(23)24)16(22)11-8-13(18)15(9-14(11)20)21-6-4-19(2)5-7-21/h8-10H,3-7H2,1-2H3,(H,23,24)",
        "InChIKey": null,
        "Canonical SMILES": "O=C(O)C1=CN(C2=CC(=C(F)C=C2C1=O)N3CCN(C)CC3)CC",
        "Molecular Formula": "C<sub>17</sub>H<sub>20</sub>FN<sub>3</sub>O<sub>3</sub>",
        "Molecular Mass": "333.36",
        "Melting Point": "271 °C (decomp)"
    }
}