{
    "cas_no": "58-08-2",
    "key_name": "Caffeine",
    "cn_name": "咖啡因;1,3,7-三甲基黄嘌呤;1,3,7-三甲基-3,7-二氢-1H-嘌呤-2,6-二酮;",
    "alternate_name": "1<em>H</em>-Purine-2,6-dione, 3,7-dihydro-1,3,7-trimethyl-;Caffeine;3,7-Dihydro-1,3,7-trimethyl-1<em>H</em>-purine-2,6-dione;Guaranine;Methyltheobromine;No-Doz;Thein;Theine;1,3,7-Trimethyl-2,6-dioxopurine;1,3,7-Trimethylxanthine;Caffein;Cafipel;Alert-Pep;Koffein;Cafeina;Mateina;Refresh'n;Stim;Tri-Aqua;7-Methyltheophylline;Shape Plus;Caffedrine;Diurex;Stay Alert;Synalgos;Miudol;Wigraine;Dasin;Phensal;DHCplus;NSC 5036;Durvitan;Cafalgine;Midron extra;New Cetamol;Asia migrine;Palergot-C;Vivarin;1,3,7-Trimethyl-7<em>H</em>-purine-2,6-dione;1,3,7-Trimethyl-2,3,6,7-tetrahydro-1<em>H</em>-purine-2,6-dione;1,3,7-Trimethyl-3,7-dihydro-purine-2,6-dione;MeSH ID: D002110",
    "duplicated_cas_no": "95789-13-2;71701-02-5",
    "SMILES": "O=C1C2=C(N(C)C(=O)N1C)N=CN2C",
    "meta_data": {
        "InChI": "InChI=1S/C8H10N4O2/c1-10-4-9-6-5(10)7(13)12(3)8(14)11(6)2/h4H,1-3H3",
        "InChIKey": null,
        "Canonical SMILES": "O=C1C2=C(N=CN2C)N(C(=O)N1C)C",
        "Molecular Formula": "C<sub>8</sub>H<sub>10</sub>N<sub>4</sub>O<sub>2</sub>",
        "Molecular Mass": "194.19",
        "Melting Point": "238 °C",
        "Density": "1.23 g/cm³ @ Temp: 18 °C"
    }
}