{
    "cas_no": "1113-78-6",
    "key_name": "Tris(1-methylpropyl)borane",
    "cn_name": "三仲丁基硼烷;",
    "alternate_name": "Borane, tris(1-methylpropyl)-;Borane, tri-<em>sec</em>-butyl-;Borine, tri-<em>sec</em>-butyl-;Tris(1-methylpropyl)borane;Tri-<em>sec</em>-butylborane;Tris(2-butyl)borane;Tris(<em>sec</em>-butyl)borane",
    "duplicated_cas_no": "",
    "SMILES": "B(C(CC)C)(C(CC)C)C(CC)C",
    "meta_data": {
        "InChI": "InChI=1S/C12H27B/c1-7-10(4)13(11(5)8-2)12(6)9-3/h10-12H,7-9H2,1-6H3",
        "InChIKey": null,
        "Canonical SMILES": "B(C(C)CC)(C(C)CC)C(C)CC",
        "Molecular Formula": "C<sub>12</sub>H<sub>27</sub>B",
        "Molecular Mass": "182.15",
        "Boiling Point": "80-81 °C @ Press: 12 Torr"
    }
}