{
    "cas_no": "89756-60-5",
    "key_name": "2-Aminoethanesulfonamide hydrochloride",
    "cn_name": null,
    "alternate_name": "Ethanesulfonamide, 2-amino-, hydrochloride (1:1);Ethanesulfonamide, 2-amino-, monohydrochloride;Ethanesulfonamide, 2-amino-, hydrochloride;ST 31-84;2-Aminoethanesulfonamide hydrochloride;2-Aminoethane-1-sulfonamide hydrochloride;2-Amino-ethanesulfonic acid amide; hydrochloride;2-Aminoethanesulphonamide hydrochloride",
    "duplicated_cas_no": "",
    "SMILES": "C(S(N)(=O)=O)CN.Cl",
    "meta_data": {
        "InChI": "InChI=1S/C2H8N2O2S.ClH/c3-1-2-7(4,5)6;/h1-3H2,(H2,4,5,6);1H",
        "InChIKey": null,
        "Canonical SMILES": "Cl.O=S(=O)(N)CCN",
        "Molecular Formula": "C<sub>2</sub>H<sub>8</sub>N<sub>2</sub>O<sub>2</sub>S.ClH",
        "Molecular Mass": "",
        "Melting Point": "133 °C"
    }
}