{
    "cas_no": "374538-03-1",
    "key_name": "1-Methyl 2-boronobenzoate",
    "cn_name": "2-(甲氧基羰基)苯硼酸;",
    "alternate_name": "Benzoic acid, 2-borono-, 1-methyl ester;1-Methyl 2-boronobenzoate;2-Methoxycarbonylphenylboronic acid;Methyl 2-boronobenzoate",
    "duplicated_cas_no": "",
    "SMILES": "C(OC)(=O)C1=C(B(O)O)C=CC=C1",
    "meta_data": {
        "InChI": "InChI=1S/C8H9BO4/c1-13-8(10)6-4-2-3-5-7(6)9(11)12/h2-5,11-12H,1H3",
        "InChIKey": null,
        "Canonical SMILES": "O=C(OC)C=1C=CC=CC1B(O)O",
        "Molecular Formula": "C<sub>8</sub>H<sub>9</sub>BO<sub>4</sub>",
        "Molecular Mass": "179.97",
        "Melting Point": "102-104 °C"
    }
}