{
    "cas_no": "83799-24-0",
    "key_name": "Fexofenadine",
    "cn_name": "非索芬那定;非索非那定;4-[4-[4-(羟基二苯基甲基)-1-哌啶基]-1-羟基丁基]-alpha,alpha-二甲基苯乙酸;",
    "alternate_name": "Benzeneacetic acid, 4-[1-hydroxy-4-[4-(hydroxydiphenylmethyl)-1-piperidinyl]butyl]-α,α-dimethyl-;4-[1-Hydroxy-4-[4-(hydroxydiphenylmethyl)-1-piperidinyl]butyl]-α,α-dimethylbenzeneacetic acid;Terfenadine acid metabolite;MDL 16455;Carboxyterfenadine;Terfenadine carboxylate;Fexofenadine;4-[4-[4-(Hydroxydiphenylmethyl)-1-piperidinyl]-1-hydroxybutyl]-α,α-dimethylphenylacetic acid;Telfast 120;Fexet;2-(4-[1-Hydroxy-4-[4-(hydroxydiphenylmethyl)piperidin-1-yl]butyl]phenyl)-2-methylpropanoic acid;2-(4-[1-Hydroxy-4-[4-(hydroxy-diphenyl-methyl)-piperidin-1-yl]-butyl]-phenyl)-2-methyl-propionic acid",
    "duplicated_cas_no": "76815-58-2;159389-12-5",
    "SMILES": "C(O)(C1CCN(CCCC(O)C2=CC=C(C(C(O)=O)(C)C)C=C2)CC1)(C3=CC=CC=C3)C4=CC=CC=C4",
    "meta_data": {
        "InChI": "InChI=1S/C32H39NO4/c1-31(2,30(35)36)25-17-15-24(16-18-25)29(34)14-9-21-33-22-19-28(20-23-33)32(37,26-10-5-3-6-11-26)27-12-7-4-8-13-27/h3-8,10-13,15-18,28-29,34,37H,9,14,19-23H2,1-2H3,(H,35,36)",
        "InChIKey": null,
        "Canonical SMILES": "O=C(O)C(C1=CC=C(C=C1)C(O)CCCN2CCC(CC2)C(O)(C=3C=CC=CC3)C=4C=CC=CC4)(C)C",
        "Molecular Formula": "C<sub>32</sub>H<sub>39</sub>NO<sub>4</sub>",
        "Molecular Mass": "501.66",
        "Melting Point": "142.5 °C"
    }
}