{
    "cas_no": "644-06-4",
    "key_name": "Precocene II",
    "cn_name": "早熟素 II; 6,7-二甲氧基-2,2-二甲基-3-色烯; 6,7-二甲氧基-2,2-二甲基-2H-1-苯并吡喃;",
    "alternate_name": "2<em>H</em>-1-Benzopyran, 6,7-dimethoxy-2,2-dimethyl-;6,7-Dimethoxy-2,2-dimethyl-2<em>H</em>-1-benzopyran;Ageratochromene;Precocene 2;Precocene II;6,7-Dimethoxy-2,2-dimethyl-2<em>H</em>-chromene;Ageratochromene II;NSC 318792",
    "duplicated_cas_no": "",
    "SMILES": "O(C)C=1C=C2C(=CC1OC)OC(C)(C)C=C2",
    "meta_data": {
        "InChI": "InChI=1S/C13H16O3/c1-13(2)6-5-9-7-11(14-3)12(15-4)8-10(9)16-13/h5-8H,1-4H3",
        "InChIKey": null,
        "Canonical SMILES": "O(C1=CC=2OC(C=CC2C=C1OC)(C)C)C",
        "Molecular Formula": "C<sub>13</sub>H<sub>16</sub>O<sub>3</sub>",
        "Molecular Mass": "220.26",
        "Boiling Point": "155-160 °C @ Press: 9 Torr",
        "Melting Point": "47.5 °C"
    }
}