{
    "cas_no": "10342-97-9",
    "key_name": "<em>N</em>-Methyl-<em>N</em>-(1-methylethyl)-2-propanamine",
    "cn_name": "N,N-二异丙基甲胺;N-甲基二异丙胺;",
    "alternate_name": "2-Propanamine, <em>N</em>-methyl-<em>N</em>-(1-methylethyl)-;Diethylamine, <em>N</em>,1,1′-trimethyl-;<em>N</em>-Methyl-<em>N</em>-(1-methylethyl)-2-propanamine;Methyldiisopropylamine;Diisopropylmethylamine;N,N-Diisopropylmethylamine;<em>N</em>-Isopropyl-<em>N</em>-methylpropan-2-amine;<em>N</em>,<em>N</em>-Diisopropylmethylamine",
    "duplicated_cas_no": "",
    "SMILES": "N(C(C)C)(C(C)C)C",
    "meta_data": {
        "InChI": "InChI=1S/C7H17N/c1-6(2)8(5)7(3)4/h6-7H,1-5H3",
        "InChIKey": null,
        "Canonical SMILES": "N(C)(C(C)C)C(C)C",
        "Molecular Formula": "C<sub>7</sub>H<sub>17</sub>N",
        "Molecular Mass": "115.22",
        "Boiling Point": "109-112 °C"
    }
}