{
    "cas_no": "13922-41-3",
    "key_name": "1-Naphthylboronic acid",
    "cn_name": "1-萘硼酸;",
    "alternate_name": "Boronic acid, <em>B</em>-1-naphthalenyl-;1-Naphthaleneboronic acid;Boronic acid, 1-naphthalenyl-;<em>B</em>-1-Naphthalenylboronic acid;α-Naphthaleneboronic acid;1-Naphthylboronic acid;1-Naphthylboric acid;(1-Naphthalenyl)boronic acid;NSC 78936;α-Naphthylboronic acid;(Naphthalen-1-yl)boronic acid;(1-Naphthalyl)boronic acid",
    "duplicated_cas_no": "1643806-46-5",
    "SMILES": "B(O)(O)C=1C2=C(C=CC1)C=CC=C2",
    "meta_data": {
        "InChI": "InChI=1S/C10H9BO2/c12-11(13)10-7-3-5-8-4-1-2-6-9(8)10/h1-7,12-13H",
        "InChIKey": null,
        "Canonical SMILES": "OB(O)C1=CC=CC=2C=CC=CC21",
        "Molecular Formula": "C<sub>10</sub>H<sub>9</sub>BO<sub>2</sub>",
        "Molecular Mass": "171.99",
        "Melting Point": "202 °C"
    }
}