{
    "cas_no": "543-82-8",
    "key_name": "(±)-1,5-Dimethylhexylamine",
    "cn_name": "1,5-二甲基己胺;二甲己胺;2-氨基-6-甲基庚烷;3-氨甲基庚烷;",
    "alternate_name": "2-Heptanamine, 6-methyl-;Hexylamine, 1,5-dimethyl-;6-Methyl-2-heptanamine;SKF 51;Amidrine;2-Amino-6-methylheptane;α,ε-Dimethylhexylamine;1,5-Dimethylhexylamine;2-Methyl-6-aminoheptane;6-Methyl-2-heptylamine;6-Amino-2-methylheptane;Octodrine;Vaporpac;2-Isooctylamine;Octodrin;Isoctaminum;(±)-1,5-Dimethylhexylamine;<em>dl</em>-2-Isooctylamine;(±)-6-Methyl-2-heptanamine;<em>dl</em>-2-Amino-6-methylheptane;(±)-2-Amino-6-methylheptane;1,5-Dimethylhexanamine;DMHA;Dimethylhexylamine",
    "duplicated_cas_no": "5984-58-7",
    "SMILES": "C(CC(C)C)CC(C)N",
    "meta_data": {
        "InChI": "InChI=1S/C8H19N/c1-7(2)5-4-6-8(3)9/h7-8H,4-6,9H2,1-3H3",
        "InChIKey": null,
        "Canonical SMILES": "NC(C)CCCC(C)C",
        "Molecular Formula": "C<sub>8</sub>H<sub>19</sub>N",
        "Molecular Mass": "129.24",
        "Boiling Point": "155 °C",
        "Melting Point": "&lt;25 °C"
    }
}