{
    "cas_no": "13523-86-9",
    "key_name": "Pindolol",
    "cn_name": "吲哚洛尔;1-(1H-吲哚-4-氧基)-3-[(1-甲基乙基)氨基]-2-丙醇;",
    "alternate_name": "2-Propanol, 1-(1<em>H</em>-indol-4-yloxy)-3-[(1-methylethyl)amino]-;2-Propanol, 1-(indol-4-yloxy)-3-(isopropylamino)-;1-(1<em>H</em>-Indol-4-yloxy)-3-[(1-methylethyl)amino]-2-propanol;4-(2-Hydroxy-3-isopropylaminopropoxy)indole;Pindolol;1-[(1-Methylethyl)amino]-3-(4-indolyloxy)-2-propanol;Prinodolol;4-(3-Isopropylamino-2-hydroxypropoxy)indole;Carvisken;LB 46;<span class=\"text-smallcaps\">DL</span>-4-[2-Hydroxy-3-(isopropylamino)propoxy]indole;<span class=\"text-smallcaps\">DL</span>-LB 46;Visken;(±)-4-[2-Hydroxy-3-(isopropylamino)propoxy]indole;(±)-Pindolol;<span class=\"text-smallcaps\">DL</span>-Pindolol;(±)-LB 46;<em>dl</em>-Pindolol;(<em>RS</em>)-Pindolol;Glauco-Visken;Pectobloc;Decreten;Pynastin;Blocklin L;Calvisken;Betapindol;Durapindol;Pinbetol;<em>N</em>-[2-Hydroxy-3-(1<em>H</em>-indol-4-yloxy)propyl]-<em>N</em>-isopropylamine;LB 46 (pharmaceutical);Apo-pindol;[2-Hydroxy-3-(1<em>H</em>-indol-4-yloxy)propyl](propan-2-yl)amine;1-(1<em>H</em>-Indol-4-yloxy)-3-(propan-2-ylamino)propan-2-ol;MeSH ID: D010869",
    "duplicated_cas_no": "21870-06-4;582319-62-8",
    "SMILES": "O(CC(CNC(C)C)O)C1=C2C(NC=C2)=CC=C1",
    "meta_data": {
        "InChI": "InChI=1S/C14H20N2O2/c1-10(2)16-8-11(17)9-18-14-5-3-4-13-12(14)6-7-15-13/h3-7,10-11,15-17H,8-9H2,1-2H3",
        "InChIKey": null,
        "Canonical SMILES": "OC(COC1=CC=CC=2NC=CC12)CNC(C)C",
        "Molecular Formula": "C<sub>14</sub>H<sub>20</sub>N<sub>2</sub>O<sub>2</sub>",
        "Molecular Mass": "248.32",
        "Melting Point": "171-173 °C"
    }
}