{
    "cas_no": "98349-25-8",
    "key_name": "Ethyl 1-cyclopropyl-6,7-difluoro-4-oxo-1,4-dihydro-3-quinolinecarboxylate",
    "cn_name": null,
    "alternate_name": "3-Quinolinecarboxylic acid, 1-cyclopropyl-6,7-difluoro-1,4-dihydro-4-oxo-, ethyl ester;Ethyl 1-cyclopropyl-6,7-difluoro-4-oxo-1,4-dihydro-3-quinolinecarboxylate",
    "duplicated_cas_no": "",
    "SMILES": "O=C1C=2C(N(C=C1C(OCC)=O)C3CC3)=CC(F)=C(F)C2",
    "meta_data": {
        "InChI": "InChI=1S/C15H13F2NO3/c1-2-21-15(20)10-7-18(8-3-4-8)13-6-12(17)11(16)5-9(13)14(10)19/h5-8H,2-4H2,1H3",
        "InChIKey": null,
        "Canonical SMILES": "O=C(OCC)C1=CN(C2=CC(F)=C(F)C=C2C1=O)C3CC3",
        "Molecular Formula": "C<sub>15</sub>H<sub>13</sub>F<sub>2</sub>NO<sub>3</sub>",
        "Molecular Mass": "293.27",
        "Melting Point": "227 °C"
    }
}