{
    "cas_no": "406-93-9",
    "key_name": "4,4,4-Trifluorobutanoic acid",
    "cn_name": "4,4,4-三氟丁酸;",
    "alternate_name": "Butanoic acid, 4,4,4-trifluoro-;Butyric acid, 4,4,4-trifluoro-;4,4,4-Trifluorobutanoic acid;4,4,4-Trifluorobutyric acid",
    "duplicated_cas_no": "",
    "SMILES": "C(C(F)(F)F)CC(O)=O",
    "meta_data": {
        "InChI": "InChI=1S/C4H5F3O2/c5-4(6,7)2-1-3(8)9/h1-2H2,(H,8,9)",
        "InChIKey": null,
        "Canonical SMILES": "O=C(O)CCC(F)(F)F",
        "Molecular Formula": "C<sub>4</sub>H<sub>5</sub>F<sub>3</sub>O<sub>2</sub>",
        "Molecular Mass": "142.08",
        "Boiling Point": "70 °C @ Press: 12 Torr",
        "Melting Point": "33.2 °C"
    }
}