{
    "cas_no": "105024-66-6",
    "key_name": "Silafluofen",
    "cn_name": "硅百灵;",
    "alternate_name": "Benzene, 4-[3-[(4-ethoxyphenyl)dimethylsilyl]propyl]-1-fluoro-2-phenoxy-;Silane, (4-ethoxyphenyl)[3-(4-fluoro-3-phenoxyphenyl)propyl]dimethyl-;4-[3-[(4-Ethoxyphenyl)dimethylsilyl]propyl]-1-fluoro-2-phenoxybenzene;Silafluofen;Eflusilanat;Silonen;(4-Ethoxyphenyl)[3-(4-fluoro-3-phenoxyphenyl)propyl]dimethylsilane;MR. Joker;Salifluofen",
    "duplicated_cas_no": "2982299-30-7",
    "SMILES": "O(C1=CC(CCC[Si](C)(C)C2=CC=C(OCC)C=C2)=CC=C1F)C3=CC=CC=C3",
    "meta_data": {
        "InChI": "InChI=1S/C25H29FO2Si/c1-4-27-21-13-15-23(16-14-21)29(2,3)18-8-9-20-12-17-24(26)25(19-20)28-22-10-6-5-7-11-22/h5-7,10-17,19H,4,8-9,18H2,1-3H3",
        "InChIKey": null,
        "Canonical SMILES": "FC1=CC=C(C=C1OC=2C=CC=CC2)CCC[Si](C3=CC=C(OCC)C=C3)(C)C",
        "Molecular Formula": "C<sub>25</sub>H<sub>29</sub>FO<sub>2</sub>Si",
        "Molecular Mass": "408.58",
        "Melting Point": "&lt;25 °C"
    }
}