{
    "cas_no": "69335-91-7",
    "key_name": "Fluazifop",
    "cn_name": null,
    "alternate_name": "Propanoic acid, 2-[4-[[5-(trifluoromethyl)-2-pyridinyl]oxy]phenoxy]-;2-[4-[[5-(Trifluoromethyl)-2-pyridinyl]oxy]phenoxy]propanoic acid;Fluazifop;(±)-Fluazifop",
    "duplicated_cas_no": "70158-54-2;86023-37-2;87168-00-1;93171-48-3;121958-44-9",
    "SMILES": "O(C1=CC=C(C(F)(F)F)C=N1)C2=CC=C(OC(C(O)=O)C)C=C2",
    "meta_data": {
        "InChI": "InChI=1S/C15H12F3NO4/c1-9(14(20)21)22-11-3-5-12(6-4-11)23-13-7-2-10(8-19-13)15(16,17)18/h2-9H,1H3,(H,20,21)",
        "InChIKey": null,
        "Canonical SMILES": "O=C(O)C(OC1=CC=C(OC2=NC=C(C=C2)C(F)(F)F)C=C1)C",
        "Molecular Formula": "C<sub>15</sub>H<sub>12</sub>F<sub>3</sub>NO<sub>4</sub>",
        "Molecular Mass": "327.26",
        "Melting Point": "97-100 °C"
    }
}