{
    "cas_no": "88929-35-5",
    "key_name": "(<em>S</em>)-Oxiracetam",
    "cn_name": null,
    "alternate_name": "1-Pyrrolidineacetamide, 4-hydroxy-2-oxo-, (4<em>S</em>)-;1-Pyrrolidineacetamide, 4-hydroxy-2-oxo-, (<em>S</em>)-;(4<em>S</em>)-4-Hydroxy-2-oxo-1-pyrrolidineacetamide;(<em>S</em>)-Oxiracetam;(<em>S</em>)-4-Hydroxy-2-oxo-1-pyrrolidineacetamide;Levo-oxiracetam;(<em>s</em>)-2-(4-Hydroxy-2-oxopyrrolidin-1-yl)acetamide;2-[(4S)-4-Hydroxy-2-oxopyrrolidin-1-yl]acetamide",
    "duplicated_cas_no": "",
    "SMILES": "C(C(N)=O)N1C[C@@H](O)CC1=O",
    "meta_data": {
        "InChI": "InChI=1S/C6H10N2O3/c7-5(10)3-8-2-4(9)1-6(8)11/h4,9H,1-3H2,(H2,7,10)/t4-/m0/s1",
        "InChIKey": null,
        "Canonical SMILES": "O=C(N)CN1C(=O)CC(O)C1",
        "Molecular Formula": "C<sub>6</sub>H<sub>10</sub>N<sub>2</sub>O<sub>3</sub>",
        "Molecular Mass": "158.16",
        "Melting Point": "135-136 °C"
    }
}