{
    "cas_no": "642-29-5",
    "key_name": "1-Benzoylnaphthalene",
    "cn_name": "1-萘基苯甲酮;",
    "alternate_name": "Methanone, 1-naphthalenylphenyl-;Ketone, 1-naphthyl phenyl;1-Naphthalenylphenylmethanone;1-Benzoylnaphthalene;1-Naphthyl phenyl ketone;α-Naphthyl phenyl ketone;Phenyl 1-naphthyl ketone;α-Benzoylnaphthalene;1-Naphthophenone;(1-Naphthalenyl)phenyl methanone;NSC 6729",
    "duplicated_cas_no": "",
    "SMILES": "C(=O)(C=1C2=C(C=CC1)C=CC=C2)C3=CC=CC=C3",
    "meta_data": {
        "InChI": "InChI=1S/C17H12O/c18-17(14-8-2-1-3-9-14)16-12-6-10-13-7-4-5-11-15(13)16/h1-12H",
        "InChIKey": null,
        "Canonical SMILES": "O=C(C=1C=CC=CC1)C2=CC=CC=3C=CC=CC32",
        "Molecular Formula": "C<sub>17</sub>H<sub>12</sub>O",
        "Molecular Mass": "232.28",
        "Boiling Point": "225 °C @ Press: 12 Torr",
        "Melting Point": "75.5 °C"
    }
}