{
    "cas_no": "13401-40-6",
    "key_name": "(-)-Phaseollin",
    "cn_name": null,
    "alternate_name": "3<em>H</em>,7<em>H</em>-Furo[3,2-<em>c</em>:5,4-<em>f</em>′]bis[1]benzopyran-10-ol, 6b,12b-dihydro-3,3-dimethyl-, (6b<em>R</em>,12b<em>R</em>)-;3<em>H</em>,7<em>H</em>-Furo[3,2-<em>c</em>:5,4-<em>f</em>′]bis[1]benzopyran-10-ol, 6b,12b-dihydro-3,3-dimethyl-, (6b<em>R</em>-<em>cis</em>)-;3<em>H</em>,7<em>H</em>-Furo[3,2-<em>c</em>:5,4-<em>f</em>′]bis[1]benzopyran-10-ol, 6b,12b-dihydro-3,3-dimethyl-;(6b<em>R</em>,12b<em>R</em>)-6b,12b-Dihydro-3,3-dimethyl-3<em>H</em>,7<em>H</em>-furo[3,2-<em>c</em>:5,4-<em>f</em>′]bis[1]benzopyran-10-ol;Phaseolin (phytoalexin);Phaseolin;(-)-Phaseollin",
    "duplicated_cas_no": "22090-93-3;23513-44-2;2222125-24-6",
    "SMILES": "CC1(C)OC=2C(=C3C([C@]4([C@@](O3)(C=5C(OC4)=CC(O)=CC5)[H])[H])=CC2)C=C1",
    "meta_data": {
        "InChI": "InChI=1S/C20H18O4/c1-20(2)8-7-14-16(24-20)6-5-12-15-10-22-17-9-11(21)3-4-13(17)19(15)23-18(12)14/h3-9,15,19,21H,10H2,1-2H3/t15-,19-/m0/s1",
        "InChIKey": null,
        "Canonical SMILES": "OC1=CC=C2C(OCC3C4=CC=C5OC(C=CC5=C4OC23)(C)C)=C1",
        "Molecular Formula": "C<sub>20</sub>H<sub>18</sub>O<sub>4</sub>",
        "Molecular Mass": "322.35",
        "Melting Point": "177.5 °C"
    }
}