{
    "cas_no": "132-75-2",
    "key_name": "1-Naphthaleneacetonitrile",
    "cn_name": "1-萘乙腈;",
    "alternate_name": "1-Naphthaleneacetonitrile;1-Naphthylacetonitrile;α-Naphthylacetonitrile;2-(1-Naphthyl)acetonitrile;1-Cyanomethylnaphthalene;NSC 9844;2-(Naphthalen-1-yl)acetonitrile;Naphthalen-1-ylacetonitrile",
    "duplicated_cas_no": "",
    "SMILES": "C(C#N)C=1C2=C(C=CC1)C=CC=C2",
    "meta_data": {
        "InChI": "InChI=1S/C12H9N/c13-9-8-11-6-3-5-10-4-1-2-7-12(10)11/h1-7H,8H2",
        "InChIKey": null,
        "Canonical SMILES": "N#CCC1=CC=CC=2C=CC=CC21",
        "Molecular Formula": "C<sub>12</sub>H<sub>9</sub>N",
        "Molecular Mass": "167.21",
        "Boiling Point": "175-185 °C @ Press: 11-14 Torr",
        "Melting Point": "32.5 °C"
    }
}