{
    "cas_no": "1700-02-3",
    "key_name": "2,4-Dichloro-6-phenyl-1,3,5-triazine",
    "cn_name": "2,4-二氯-6-苯基-1,3,5-三嗪;",
    "alternate_name": "1,3,5-Triazine, 2,4-dichloro-6-phenyl-;<em>s</em>-Triazine, 2,4-dichloro-6-phenyl-;2,4-Dichloro-6-phenyl-1,3,5-triazine;2,4-Dichloro-6-phenyl-1,3,5-<em>s</em>-triazine;2-Phenyl-4,6-dichlorotriazine;2,4-Dichloro-6-phenyl-<em>s</em>-triazine;6-Phenyl-2,4-dichloro-<em>s</em>-triazine;NSC 51871;4,6-Dichloro-2-phenyltriazine;6-Phenyl-2,4-dichloro-1,3,5-triazine;2-Phenyl-4,6-dichloro-1,3,5-triazine",
    "duplicated_cas_no": "",
    "SMILES": "ClC1=NC(=NC(Cl)=N1)C2=CC=CC=C2",
    "meta_data": {
        "InChI": "InChI=1S/C9H5Cl2N3/c10-8-12-7(13-9(11)14-8)6-4-2-1-3-5-6/h1-5H",
        "InChIKey": null,
        "Canonical SMILES": "ClC=1N=C(Cl)N=C(N1)C=2C=CC=CC2",
        "Molecular Formula": "C<sub>9</sub>H<sub>5</sub>Cl<sub>2</sub>N<sub>3</sub>",
        "Molecular Mass": "226.06",
        "Boiling Point": "136 °C @ Press: 1 Torr",
        "Melting Point": "119-200 °C"
    }
}