{
    "cas_no": "35854-86-5",
    "key_name": "<em>cis</em>-6-Nonen-1-ol",
    "cn_name": "(Z)-6-壬烯-1-醇;顺式-6-壬烯醇;",
    "alternate_name": "6-Nonen-1-ol, (6<em>Z</em>)-;6-Nonen-1-ol, (<em>Z</em>)-;(6<em>Z</em>)-6-Nonen-1-ol;<em>cis</em>-6-Nonen-1-ol;(<em>Z</em>)-6-Nonen-1-ol;(6<em>Z</em>)-Non-6-en-1-ol;<em>cis</em>-6-Nonenol",
    "duplicated_cas_no": "",
    "SMILES": "C(CCCCO)/C=C\\CC",
    "meta_data": {
        "InChI": "InChI=1S/C9H18O/c1-2-3-4-5-6-7-8-9-10/h3-4,10H,2,5-9H2,1H3/b4-3-",
        "InChIKey": null,
        "Canonical SMILES": "OCCCCCC=CCC",
        "Molecular Formula": "C<sub>9</sub>H<sub>18</sub>O",
        "Molecular Mass": "142.24",
        "Boiling Point": "54-60 °C @ Press: 0.2 Torr"
    }
}