{
    "cas_no": "688-12-0",
    "key_name": "<em>N</em>-(2-Chloroacetyl)-<span class=\"text-smallcaps\">L</span>-leucine",
    "cn_name": "氯乙酰基-L-亮氨酸;",
    "alternate_name": "<span class=\"text-smallcaps\">L</span>-Leucine, <em>N</em>-(2-chloroacetyl)-;Leucine, <em>N</em>-(chloroacetyl)-, <span class=\"text-smallcaps\">L</span>-;<span class=\"text-smallcaps\">L</span>-Leucine, <em>N</em>-(chloroacetyl)-;<em>N</em>-(2-Chloroacetyl)-<span class=\"text-smallcaps\">L</span>-leucine;Chloroacetyl-<span class=\"text-smallcaps\">L</span>-leucine;<em>N</em>-Chloroacetyl-<span class=\"text-smallcaps\">L</span>-leucine;<em>N</em>-(Chloroacetyl)leucine;NSC 60158;(2S)-2-[(2-Chloroacetyl)amino]-4-methylpentanoic acid;(2S)-2-(2-Chloroacetamido)-4-methylpentanoic acid",
    "duplicated_cas_no": "",
    "SMILES": "[C@H](NC(CCl)=O)(CC(C)C)C(O)=O",
    "meta_data": {
        "InChI": "InChI=1S/C8H14ClNO3/c1-5(2)3-6(8(12)13)10-7(11)4-9/h5-6H,3-4H2,1-2H3,(H,10,11)(H,12,13)/t6-/m0/s1",
        "InChIKey": null,
        "Canonical SMILES": "O=C(NC(C(=O)O)CC(C)C)CCl",
        "Molecular Formula": "C<sub>8</sub>H<sub>14</sub>ClNO<sub>3</sub>",
        "Molecular Mass": "207.65",
        "Melting Point": "136 °C"
    }
}