{
    "cas_no": "42399-40-6",
    "key_name": "Deacetyldiltiazem",
    "cn_name": "去乙酰地尔硫卓;(2S-cis)-5-(2-(二甲基氨基)乙基)-2,3-二氢-3-羟基-2-(4-甲氧基苯基)-1,5-苯并硫氮杂卓-4(5;",
    "alternate_name": "1,5-Benzothiazepin-4(5<em>H</em>)-one, 5-[2-(dimethylamino)ethyl]-2,3-dihydro-3-hydroxy-2-(4-methoxyphenyl)-, (2<em>S</em>,3<em>S</em>)-;1,5-Benzothiazepin-4(5<em>H</em>)-one, 5-[2-(dimethylamino)ethyl]-2,3-dihydro-3-hydroxy-2-(4-methoxyphenyl)-, (2<em>S</em>-<em>cis</em>)-;(2<em>S</em>,3<em>S</em>)-5-[2-(Dimethylamino)ethyl]-2,3-dihydro-3-hydroxy-2-(4-methoxyphenyl)-1,5-benzothiazepin-4(5<em>H</em>)-one;Desacetyldiltiazem;Deacetyldiltiazem;Deacetyl-<em>d</em>-diltiazem",
    "duplicated_cas_no": "91602-22-1",
    "SMILES": "C(CN(C)C)N1C=2C(S[C@H]([C@@H](O)C1=O)C3=CC=C(OC)C=C3)=CC=CC2",
    "meta_data": {
        "InChI": "InChI=1S/C20H24N2O3S/c1-21(2)12-13-22-16-6-4-5-7-17(16)26-19(18(23)20(22)24)14-8-10-15(25-3)11-9-14/h4-11,18-19,23H,12-13H2,1-3H3/t18-,19+/m1/s1",
        "InChIKey": null,
        "Canonical SMILES": "O=C1N(C=2C=CC=CC2SC(C3=CC=C(OC)C=C3)C1O)CCN(C)C",
        "Molecular Formula": "C<sub>20</sub>H<sub>24</sub>N<sub>2</sub>O<sub>3</sub>S",
        "Molecular Mass": "372.48",
        "Melting Point": "86-87 °C"
    }
}