{
    "cas_no": "137-09-7",
    "key_name": "Dianol",
    "cn_name": "2,4-二氨基苯酚盐酸盐;2,4-二氨基酚二盐酸盐;",
    "alternate_name": "Phenol, 2,4-diamino-, hydrochloride (1:2);Phenol, 2,4-diamino-, dihydrochloride;Amidol;Acrol;Diamidophenol hydrochloride;2,4-Diaminophenol dihydrochloride;Dianol;2,4-Diaminophenol hydrochloride;Amidol dihydrochloride",
    "duplicated_cas_no": "64768-34-9",
    "SMILES": "NC1=C(O)C=CC(N)=C1.Cl",
    "meta_data": {
        "InChI": "InChI=1S/C6H8N2O.2ClH/c7-4-1-2-6(9)5(8)3-4;;/h1-3,9H,7-8H2;2*1H",
        "InChIKey": null,
        "Canonical SMILES": "Cl.OC1=CC=C(N)C=C1N",
        "Molecular Formula": "C<sub>6</sub>H<sub>8</sub>N<sub>2</sub>O.2ClH",
        "Molecular Mass": "",
        "Melting Point": "205 °C"
    }
}