{
    "cas_no": "99-48-9",
    "key_name": "Carveol",
    "cn_name": "L-香芹醇;葛缕醇;2-甲基-5-(2-丙基)-2-环己烯-1-醇;",
    "alternate_name": "2-Cyclohexen-1-ol, 2-methyl-5-(1-methylethenyl)-;<em>p</em>-Mentha-6,8-dien-2-ol;2-Methyl-5-(1-methylethenyl)-2-cyclohexen-1-ol;Carveol;2-Methyl-5-isopropenyl-2-cyclohexen-1-ol;<em>p</em>-Mentha-1,8-dien-6-ol;5-Isopropenyl-2-methyl-2-cyclohexen-1-ol;NSC 68313;5-Isopropenyl-2-methylcyclohex-2-enol;2-Methyl-5-(prop-1-en-2-yl)cyclohex-2-en-1-ol;2-Methyl-5-prop-1-en-2-ylcyclohex-2-en-1-ol",
    "duplicated_cas_no": "20307-86-2;22567-18-6",
    "SMILES": "C(C)(=C)C1CC(O)C(C)=CC1",
    "meta_data": {
        "InChI": "InChI=1S/C10H16O/c1-7(2)9-5-4-8(3)10(11)6-9/h4,9-11H,1,5-6H2,2-3H3",
        "InChIKey": null,
        "Canonical SMILES": "OC1C(=CCC(C(=C)C)C1)C",
        "Molecular Formula": "C<sub>10</sub>H<sub>16</sub>O",
        "Molecular Mass": "152.23",
        "Boiling Point": "228 °C",
        "Melting Point": "24-25 °C",
        "Density": "0.9578 g/cm³ @ Temp: 15 °C"
    }
}