{
    "cas_no": "31576-33-7",
    "key_name": "4-(2-Methylpropoxy)-2-butanone",
    "cn_name": null,
    "alternate_name": "2-Butanone, 4-(2-methylpropoxy)-;2-Butanone, 4-isobutoxy-;4-(2-Methylpropoxy)-2-butanone",
    "duplicated_cas_no": "",
    "SMILES": "C(OCC(C)C)CC(C)=O",
    "meta_data": {
        "InChI": "InChI=1S/C8H16O2/c1-7(2)6-10-5-4-8(3)9/h7H,4-6H2,1-3H3",
        "InChIKey": null,
        "Canonical SMILES": "O=C(C)CCOCC(C)C",
        "Molecular Formula": "C<sub>8</sub>H<sub>16</sub>O<sub>2</sub>",
        "Molecular Mass": "144.21",
        "Boiling Point": "64-65 °C @ Press: 11 Torr",
        "Density": "0.8763 g/cm³ @ Temp: 20 °C"
    }
}