{
    "cas_no": "3236-71-3",
    "key_name": "9,9′-Bis(4-hydroxyphenyl)fluorene",
    "cn_name": "双酚芴;",
    "alternate_name": "Phenol, 4,4′-(9<em>H</em>-fluoren-9-ylidene)bis-;Phenol, 4,4′-fluoren-9-ylidenedi-;4,4′-(9<em>H</em>-Fluoren-9-ylidene)bis[phenol];9,9-Bis(<em>p</em>-hydroxyphenyl)fluorene;9,9-Bis(4-hydroxyphenyl)fluorene;4,4′-Fluoren-9-ylidenediphenol;9,9-Bis(4-hydroxyphenyl)-9<em>H</em>-fluorene;4,4′-Fluoren-9-ylidenebisphenol;BP-FL 20X;BPFL;9,9′-Bis(4-hydroxyphenyl)fluorene;BPF;BisP-FL;4,4′-(9<em>H</em>-Fluorene-9,9-diyl)bisphenol;4,4′-(9-Fluorenylidene)diphenol;4,4′-(9<em>H</em>-Fluorene-9,9-diyl)diphenol;Bisphenol FL",
    "duplicated_cas_no": "26088-14-2;58560-83-1;546094-08-0;1278524-13-2;1541170-23-3;2115792-79-3",
    "SMILES": "OC1=CC=C(C2(C=3C(C=4C2=CC=CC4)=CC=CC3)C5=CC=C(O)C=C5)C=C1",
    "meta_data": {
        "InChI": "InChI=1S/C25H18O2/c26-19-13-9-17(10-14-19)25(18-11-15-20(27)16-12-18)23-7-3-1-5-21(23)22-6-2-4-8-24(22)25/h1-16,26-27H",
        "InChIKey": null,
        "Canonical SMILES": "OC1=CC=C(C=C1)C2(C3=CC=C(O)C=C3)C=4C=CC=CC4C=5C=CC=CC52",
        "Molecular Formula": "C<sub>25</sub>H<sub>18</sub>O<sub>2</sub>",
        "Molecular Mass": "350.41",
        "Melting Point": "201-202 °C"
    }
}