{
    "cas_no": "66-25-1",
    "key_name": "Hexanal",
    "cn_name": "己醛;正己醛;",
    "alternate_name": "Hexanal;Caproaldehyde;Caproic aldehyde;Capronaldehyde;Hexaldehyde;<em>n</em>-Hexanal;<em>n</em>-Caproaldehyde;Hexylaldehyde;<em>n</em>-Capronaldehyde;Hexanaldehyde;<em>n</em>-Hexylaldehyde;NSC 2596",
    "duplicated_cas_no": "",
    "SMILES": "C(CCC)CC=O",
    "meta_data": {
        "InChI": "InChI=1S/C6H12O/c1-2-3-4-5-6-7/h6H,2-5H2,1H3",
        "InChIKey": null,
        "Canonical SMILES": "O=CCCCCC",
        "Molecular Formula": "C<sub>6</sub>H<sub>12</sub>O",
        "Molecular Mass": "100.16",
        "Boiling Point": "131 °C @ Press: 760 Torr",
        "Melting Point": "-56 °C",
        "Density": "0.8165 g/cm³ @ Temp: 20 °C"
    }
}