{
    "cas_no": "479500-35-1",
    "key_name": "1-Butyl-1-methylpyrrolidinium chloride",
    "cn_name": "1-丁基-1-甲基吡咯烷氯化物;",
    "alternate_name": "Pyrrolidinium, 1-butyl-1-methyl-, chloride (1:1);Pyrrolidinium, 1-butyl-1-methyl-, chloride;1-Butyl-1-methylpyrrolidinium chloride;<em>N</em>-Butyl-<em>N</em>-methylpyrrolidinium chloride;Butylmethylpyrrolidinium chloride;[Bmpyr]Cl",
    "duplicated_cas_no": "",
    "SMILES": "C(CCC)[N+]1(C)CCCC1.[Cl-]",
    "meta_data": {
        "InChI": "InChI=1S/C9H20N.ClH/c1-3-4-7-10(2)8-5-6-9-10;/h3-9H2,1-2H3;1H/q+1;/p-1",
        "InChIKey": null,
        "Canonical SMILES": "[Cl-].CCCC[N+]1(C)CCCC1",
        "Molecular Formula": "C<sub>9</sub>H<sub>20</sub>N.Cl",
        "Molecular Mass": "",
        "Melting Point": "124 °C"
    }
}