{
    "cas_no": "18379-25-4",
    "key_name": "Trichloro(2,4,4-trimethylpentyl)silane",
    "cn_name": null,
    "alternate_name": "Silane, trichloro(2,4,4-trimethylpentyl)-;Trichloro(2,4,4-trimethylpentyl)silane",
    "duplicated_cas_no": "",
    "SMILES": "C(C(C)(C)C)C(C[Si](Cl)(Cl)Cl)C",
    "meta_data": {
        "InChI": "InChI=1S/C8H17Cl3Si/c1-7(5-8(2,3)4)6-12(9,10)11/h7H,5-6H2,1-4H3",
        "InChIKey": null,
        "Canonical SMILES": "Cl[Si](Cl)(Cl)CC(C)CC(C)(C)C",
        "Molecular Formula": "C<sub>8</sub>H<sub>17</sub>Cl<sub>3</sub>Si",
        "Molecular Mass": "247.67",
        "Boiling Point": "40 °C @ Press: 2 Torr"
    }
}