{
    "cas_no": "23877-12-5",
    "key_name": "1,1-Dimethylethyl 2-bromo-2-methylpropanoate",
    "cn_name": "2-溴代异丁酸叔丁酯;alpha-溴代异丁酸叔丁酯;",
    "alternate_name": "Propanoic acid, 2-bromo-2-methyl-, 1,1-dimethylethyl ester;Propionic acid, 2-bromo-2-methyl-, <em>tert</em>-butyl ester;1,1-Dimethylethyl 2-bromo-2-methylpropanoate;<em>tert</em>-Butyl α-bromoisobutyrate;<em>tert</em>-Butyl 2-bromo-2-methylpropionate;<em>tert</em>-Butyl 2-bromoisobutyrate;2-Bromo-2-methylpropionic acid tert-butyl ester;2-Bromo-2-methylpropanoic acid <em>tert</em>-butyl ester;2-Bromoisobutyric acid <em>tert</em>-butyl ester;2-Bromo-2-methylpropanoic acid tert-butyl ester;<em>tert</em>-Butyl 2-bromo-2-methylpropanoate;<em>tert</em>-Butyl 2-bromo-2,2-dimethylacetate;2-Bromoisobutyric acid tert-butyl ester",
    "duplicated_cas_no": "25313-50-2",
    "SMILES": "C(OC(C)(C)C)(C(Br)(C)C)=O",
    "meta_data": {
        "InChI": "InChI=1S/C8H15BrO2/c1-7(2,3)11-6(10)8(4,5)9/h1-5H3",
        "InChIKey": null,
        "Canonical SMILES": "O=C(OC(C)(C)C)C(Br)(C)C",
        "Molecular Formula": "C<sub>8</sub>H<sub>15</sub>BrO<sub>2</sub>",
        "Molecular Mass": "223.11",
        "Boiling Point": "35-37 °C @ Press: 1.0 Torr"
    }
}