{
    "cas_no": "53786-28-0",
    "key_name": "5-Chloro-1-(piperidin-4-yl)-1<em>H</em>-benzimidazol-2(3<em>H</em>)-one",
    "cn_name": "5-氯-1,3-二氢-1-(4-哌啶基)-2H-苯并咪唑-2-酮;",
    "alternate_name": "2<em>H</em>-Benzimidazol-2-one, 5-chloro-1,3-dihydro-1-(4-piperidinyl)-;5-Chloro-1,3-dihydro-1-(4-piperidinyl)-2<em>H</em>-benzimidazol-2-one;R 29676;5-Chloro-1-piperidin-4-yl-1,3-dihydrobenzimidazol-2-one;5-Chloro-1-(4-piperidinyl)-1,3-dihydro-2<em>H</em>-benzimidazol-2-one;4-(6-Chloro-1,2-dihydro-2-oxobenzo[<em>d</em>]imidazol-3-yl)piperidine;5-Chloro-1-(piperidin-4-yl)-1<em>H</em>-benzimidazol-2(3<em>H</em>)-one;5-Chloro-1-(piperidin-4-yl)-1<em>H</em>-benzo[<em>d</em>]imidazol-2(3<em>H</em>)-one;5-Chloro-1-(piperidin-4-yl)-2,3-dihydro-1<em>H</em>-1,3-benzodiazol-2-one",
    "duplicated_cas_no": "",
    "SMILES": "O=C1N(C=2C(N1)=CC(Cl)=CC2)C3CCNCC3",
    "meta_data": {
        "InChI": "InChI=1S/C12H14ClN3O/c13-8-1-2-11-10(7-8)15-12(17)16(11)9-3-5-14-6-4-9/h1-2,7,9,14H,3-6H2,(H,15,17)",
        "InChIKey": null,
        "Canonical SMILES": "O=C1NC2=CC(Cl)=CC=C2N1C3CCNCC3",
        "Molecular Formula": "C<sub>12</sub>H<sub>14</sub>ClN<sub>3</sub>O",
        "Molecular Mass": "251.71",
        "Melting Point": "220 °C"
    }
}