{
    "cas_no": "125-10-0",
    "key_name": "Prednisone acetate",
    "cn_name": "醋酸泼尼松;17a,21-二羟基孕甾-1,4-二烯-3,11,20-三酮21-醋酸酯;",
    "alternate_name": "Pregna-1,4-diene-3,11,20-trione, 21-(acetyloxy)-17-hydroxy-;Pregna-1,4-diene-3,11,20-trione, 17,21-dihydroxy-, 21-acetate;21-(Acetyloxy)-17-hydroxypregna-1,4-diene-3,11,20-trione;21-Acetoxy-17α-hydroxypregna-1,4-diene-3,11,20-trione;Δ<sup>1</sup>-Cortisone 21-acetate;Delcortin;Delta-Corlin;Deltalone;Ferrosan;Nisone;Prednisone acetate;Prednisone 21-acetate;Cortancyl;Δ<sup>1</sup>-Dehydrocortisone acetate;NSC 10965",
    "duplicated_cas_no": "31019-02-0",
    "SMILES": "C[C@@]12[C@]([C@]3([C@](C(=O)C1)([C@]4(C)C(CC3)=CC(=O)C=C4)[H])[H])(CC[C@@]2(C(COC(C)=O)=O)O)[H]",
    "meta_data": {
        "InChI": "InChI=1S/C23H28O6/c1-13(24)29-12-19(27)23(28)9-7-17-16-5-4-14-10-15(25)6-8-21(14,2)20(16)18(26)11-22(17,23)3/h6,8,10,16-17,20,28H,4-5,7,9,11-12H2,1-3H3/t16-,17-,20+,21-,22-,23-/m0/s1",
        "InChIKey": null,
        "Canonical SMILES": "O=C1C=CC2(C(=C1)CCC3C2C(=O)CC4(C)C3CCC4(O)C(=O)COC(=O)C)C",
        "Molecular Formula": "C<sub>23</sub>H<sub>28</sub>O<sub>6</sub>",
        "Molecular Mass": "400.46",
        "Melting Point": "226 °C (decomp)"
    }
}