{
    "cas_no": "91-02-1",
    "key_name": "2-Benzoylpyridine",
    "cn_name": "2-苯甲酰基吡啶;",
    "alternate_name": "Methanone, phenyl-2-pyridinyl-;Ketone, phenyl 2-pyridyl;Phenyl-2-pyridinylmethanone;2-Benzoylpyridine;Phenyl 2-pyridyl ketone;2-Pyridyl phenyl ketone;NSC 20887;2′-Benzoylpyridine;1-(Pyridin-2′-yl)-phenylmethanone",
    "duplicated_cas_no": "",
    "SMILES": "C(=O)(C1=CC=CC=C1)C2=CC=CC=N2",
    "meta_data": {
        "InChI": "InChI=1S/C12H9NO/c14-12(10-6-2-1-3-7-10)11-8-4-5-9-13-11/h1-9H",
        "InChIKey": null,
        "Canonical SMILES": "O=C(C1=NC=CC=C1)C=2C=CC=CC2",
        "Molecular Formula": "C<sub>12</sub>H<sub>9</sub>NO",
        "Molecular Mass": "183.21",
        "Boiling Point": "317 °C",
        "Melting Point": "42 °C",
        "Density": "1.1458 g/cm³ @ Press: 20 Torr"
    }
}