{
    "cas_no": "518-05-8",
    "key_name": "Naphthalic acid",
    "cn_name": null,
    "alternate_name": "1,8-Naphthalenedicarboxylic acid;Naphthalic acid;1,8-Naphthalic acid;NSC 37065",
    "duplicated_cas_no": "25293-21-4",
    "SMILES": "C(O)(=O)C=1C=2C(C(O)=O)=CC=CC2C=CC1",
    "meta_data": {
        "InChI": "InChI=1S/C12H8O4/c13-11(14)8-5-1-3-7-4-2-6-9(10(7)8)12(15)16/h1-6H,(H,13,14)(H,15,16)",
        "InChIKey": null,
        "Canonical SMILES": "O=C(O)C=1C=CC=C2C=CC=C(C(=O)O)C21",
        "Molecular Formula": "C<sub>12</sub>H<sub>8</sub>O<sub>4</sub>",
        "Molecular Mass": "216.19",
        "Melting Point": "260 °C"
    }
}