{
    "cas_no": "625-22-9",
    "key_name": "Sulfuric acid, dibutyl ester",
    "cn_name": null,
    "alternate_name": "Sulfuric acid, dibutyl ester;Dibutyl sulfate;Di-<em>n</em>-butyl sulfate",
    "duplicated_cas_no": "",
    "SMILES": "O(S(OCCCC)(=O)=O)CCCC",
    "meta_data": {
        "InChI": "InChI=1S/C8H18O4S/c1-3-5-7-11-13(9,10)12-8-6-4-2/h3-8H2,1-2H3",
        "InChIKey": null,
        "Canonical SMILES": "O=S(=O)(OCCCC)OCCCC",
        "Molecular Formula": "C<sub>8</sub>H<sub>18</sub>O<sub>4</sub>S",
        "Molecular Mass": "210.29",
        "Boiling Point": "103-105 °C @ Press: 1.5 Torr",
        "Density": "1.080 g/cm³ @ Temp: 0 °C"
    }
}