{
    "cas_no": "1686-22-2",
    "key_name": "(<em>T</em>-4)-Triethoxyoxovanadium",
    "cn_name": "三乙氧基氧化钒; 氧化三乙氧基钒;",
    "alternate_name": "Vanadium, triethoxyoxo-, (<em>T</em>-4)-;Vanadic acid (H<sub>3</sub>VO<sub>4</sub>), triethyl ester;Ethyl vanadate(V) ((EtO)<sub>3</sub>VO);(<em>T</em>-4)-Triethoxyoxovanadium;Triethyl vanadate;Triethoxyvanadyl;Vanadium oxytriethoxide;Oxotriethoxyvanadium;Vanadyl triethoxide;Triethoxyoxovanadium;Triethyl orthovanadate;Tri(ethoxy)vanadium oxide;Triethyl vanadate (VO(OEt)<sub>3</sub>);Tris(ethoxy)oxovanadium;Oxovanadium triethoxide;Ethyl orthovanadate;Tris(ethanolato)(oxo)vanadium;V 02;Vanadium(V) oxide triethoxide",
    "duplicated_cas_no": "79628-52-7",
    "SMILES": "[V](OCC)(OCC)(OCC)=O",
    "meta_data": {
        "InChI": "InChI=1S/3C2H5O.O.V/c3*1-2-3;;/h3*2H2,1H3;;/q3*-1;;+3",
        "InChIKey": null,
        "Canonical SMILES": "O=[V](OCC)(OCC)OCC",
        "Molecular Formula": "C<sub>6</sub>H<sub>15</sub>O<sub>4</sub>V",
        "Molecular Mass": "",
        "Boiling Point": "108 °C @ Press: 26 Torr",
        "Density": "1.167 g/cm³ @ Temp: 15 °C"
    }
}