{
    "cas_no": "5630-53-5",
    "key_name": "Tibolone",
    "cn_name": "替勃龙;17-羟基-7alpha-甲基-19-去甲孕甾-5(10)-烯-20-炔-3-酮;",
    "alternate_name": "19-Norpregn-5(10)-en-20-yn-3-one, 17-hydroxy-7-methyl-, (7α,17α)-;19-Nor-17α-pregn-5(10)-en-20-yn-3-one, 17-hydroxy-7α-methyl-;(7α,17α)-17-Hydroxy-7-methyl-19-norpregn-5(10)-en-20-yn-3-one;Tibolone;7α-Methyl-17α-ethynyl-17β-hydroxy-5(10)-estren-3-one;Org OD 14;Livial;Liviella;7α-Methyl-Δ<sup>5</sup>,<sup>10</sup>-norethindrone",
    "duplicated_cas_no": "133677-19-7",
    "SMILES": "C[C@H]1[C@]2([C@]3([C@@](C)([C@@](C#C)(O)CC3)CC[C@@]2(C4=C(C1)CC(=O)CC4)[H])[H])[H]",
    "meta_data": {
        "InChI": "InChI=1S/C21H28O2/c1-4-21(23)10-8-18-19-13(2)11-14-12-15(22)5-6-16(14)17(19)7-9-20(18,21)3/h1,13,17-19,23H,5-12H2,2-3H3/t13-,17-,18+,19-,20+,21+/m1/s1",
        "InChIKey": null,
        "Canonical SMILES": "O=C1CC2=C(CC1)C3CCC4(C)C(CCC4(O)C#C)C3C(C)C2",
        "Molecular Formula": "C<sub>21</sub>H<sub>28</sub>O<sub>2</sub>",
        "Molecular Mass": "312.45",
        "Melting Point": "167 °C"
    }
}