{
    "cas_no": "24173-71-5",
    "key_name": "(-)-Kobusone",
    "cn_name": null,
    "alternate_name": "5-Oxatricyclo[8.2.0.0<sup>4,6</sup>]dodecan-9-one, 4,12,12-trimethyl-, (1<em>R</em>,4<em>R</em>,6<em>R</em>,10<em>S</em>)-;5-Oxatricyclo[8.2.0.0<sup>4,6</sup>]dodecan-9-one, 4,12,12-trimethyl-, (1<em>R</em>,4<em>R</em>,6<em>R</em>,10<em>S</em>)-(-)-;5-Oxatricyclo[8.2.0.0<sup>4,6</sup>]dodecan-9-one, 4,12,12-trimethyl-, [1<em>R</em>-(1<em>R</em>*,4<em>R</em>*,6<em>R</em>*,10<em>S</em>*)]-;(1<em>R</em>,4<em>R</em>,6<em>R</em>,10<em>S</em>)-4,12,12-Trimethyl-5-oxatricyclo[8.2.0.0<sup>4,6</sup>]dodecan-9-one;Kobusone, (-)-;6,7-Epoxy-12-norcaryophyllan-3-one;(-)-Kobusone;Kobusone",
    "duplicated_cas_no": "10306-22-6",
    "SMILES": "C[C@@]12[C@](O1)(CCC(=O)[C@@]3([C@@](CC2)(C(C)(C)C3)[H])[H])[H]",
    "meta_data": {
        "InChI": "InChI=1S/C14H22O2/c1-13(2)8-9-10(13)6-7-14(3)12(16-14)5-4-11(9)15/h9-10,12H,4-8H2,1-3H3/t9-,10+,12+,14+/m0/s1",
        "InChIKey": null,
        "Canonical SMILES": "O=C1CCC2OC2(C)CCC3C1CC3(C)C",
        "Molecular Formula": "C<sub>14</sub>H<sub>22</sub>O<sub>2</sub>",
        "Molecular Mass": "222.32",
        "Melting Point": "50-52 °C"
    }
}