{
    "cas_no": "1608-26-0",
    "key_name": "Tris(dimethylamino)phosphine",
    "cn_name": "三(二甲胺基)膦;",
    "alternate_name": "Phosphorous triamide, <em>N</em>,<em>N</em>,<em>N</em>′,<em>N</em>′,<em>N</em>′′,<em>N</em>′′-hexamethyl-;Phosphorous triamide, hexamethyl-;<em>N</em>,<em>N</em>,<em>N</em>′,<em>N</em>′,<em>N</em>′′,<em>N</em>′′-Hexamethylphosphorous triamide;Hexametapil;Hexamethylphosphorous triamide;Tris(dimethylamino)phosphine;Hexamethyltriamidophosphite;Hexamethyltriaminophosphine;HMPT;Trisdimethylaminophosphorus;NSC 102707",
    "duplicated_cas_no": "65274-41-1;309958-62-1",
    "SMILES": "P(N(C)C)(N(C)C)N(C)C",
    "meta_data": {
        "InChI": "InChI=1S/C6H18N3P/c1-7(2)10(8(3)4)9(5)6/h1-6H3",
        "InChIKey": null,
        "Canonical SMILES": "N(P(N(C)C)N(C)C)(C)C",
        "Molecular Formula": "C<sub>6</sub>H<sub>18</sub>N<sub>3</sub>P",
        "Molecular Mass": "163.20",
        "Boiling Point": "49 °C @ Press: 11 Torr",
        "Density": "0.8964 g/cm³ @ Temp: 20 °C"
    }
}