{
    "cas_no": "77-40-7",
    "key_name": "Bisphenol B",
    "cn_name": "2,2-二(4-羟基苯基)丁烷;双酚B;",
    "alternate_name": "Phenol, 4,4′-(1-methylpropylidene)bis-;Phenol, 4,4′-<em>sec</em>-butylidenedi-;4,4′-(1-Methylpropylidene)bis[phenol];2,2-Bis(<em>p</em>-hydroxyphenyl)butane;2,2-Bis(4-hydroxyphenyl)butane;Bis(4-hydroxyphenyl)methylethylmethane;Bisphenol B;<em>p</em>,<em>p</em>′-<em>sec</em>-Butylidenediphenol;4,4′-<em>sec</em>-Butylidenediphenol;<em>p</em>,<em>p</em>′-Dihydroxy-2,2-diphenylbutane;4,4′-Dihydroxy-2,2-diphenylbutane;Butane, 2,2-bis(4-hydroxyphenyl)-;NSC 1775",
    "duplicated_cas_no": "",
    "SMILES": "C(CC)(C)(C1=CC=C(O)C=C1)C2=CC=C(O)C=C2",
    "meta_data": {
        "InChI": "InChI=1S/C16H18O2/c1-3-16(2,12-4-8-14(17)9-5-12)13-6-10-15(18)11-7-13/h4-11,17-18H,3H2,1-2H3",
        "InChIKey": null,
        "Canonical SMILES": "OC1=CC=C(C=C1)C(C2=CC=C(O)C=C2)(C)CC",
        "Molecular Formula": "C<sub>16</sub>H<sub>18</sub>O<sub>2</sub>",
        "Molecular Mass": "242.31",
        "Boiling Point": "204-207 °C @ Press: 5 Torr",
        "Melting Point": "120.5 °C"
    }
}