{
    "cas_no": "102153-63-9",
    "key_name": "6-Chloro-2-naphthalenesulfonyl chloride",
    "cn_name": "6-氯-2-萘磺酰氯;",
    "alternate_name": "2-Naphthalenesulfonyl chloride, 6-chloro-;6-Chloro-2-naphthalenesulfonyl chloride",
    "duplicated_cas_no": "",
    "SMILES": "S(Cl)(=O)(=O)C1=CC2=C(C=C1)C=C(Cl)C=C2",
    "meta_data": {
        "InChI": "InChI=1S/C10H6Cl2O2S/c11-9-3-1-8-6-10(15(12,13)14)4-2-7(8)5-9/h1-6H",
        "InChIKey": null,
        "Canonical SMILES": "O=S(=O)(Cl)C1=CC=C2C=C(Cl)C=CC2=C1",
        "Molecular Formula": "C<sub>10</sub>H<sub>6</sub>Cl<sub>2</sub>O<sub>2</sub>S",
        "Molecular Mass": "261.12",
        "Melting Point": "108 °C"
    }
}