{
    "cas_no": "7411-23-6",
    "key_name": "3,5-Dibromo-1<em>H</em>-1,2,4-triazole",
    "cn_name": "3,5-二溴-1,2,4-三氮唑; 3,5-二溴-1H-1,2,4-三唑;",
    "alternate_name": "1<em>H</em>-1,2,4-Triazole, 3,5-dibromo-;<em>s</em>-Triazole, 3,5-dibromo-;3,5-Dibromo-1<em>H</em>-1,2,4-triazole;3,5-Dibromo-1,2,4-triazole;NSC 222386",
    "duplicated_cas_no": "",
    "SMILES": "BrC=1NC(Br)=NN1",
    "meta_data": {
        "InChI": "InChI=1S/C2HBr2N3/c3-1-5-2(4)7-6-1/h(H,5,6,7)",
        "InChIKey": null,
        "Canonical SMILES": "BrC1=NN=C(Br)N1",
        "Molecular Formula": "C<sub>2</sub>HBr<sub>2</sub>N<sub>3</sub>",
        "Molecular Mass": "226.86",
        "Melting Point": "211-212 °C"
    }
}