{
    "cas_no": "1977-10-2",
    "key_name": "Loxapine",
    "cn_name": "洛沙平;洛沙平;",
    "alternate_name": "Dibenz[<em>b</em>,<em>f</em>][1,4]oxazepine, 2-chloro-11-(4-methyl-1-piperazinyl)-;2-Chloro-11-(4-methyl-1-piperazinyl)dibenz[<em>b</em>,<em>f</em>][1,4]oxazepine;HF 3170;LW 3170;Loxapine;Oxilapine;SUM 3170;CL 62362;2-Chloro-11-(4-methylpiperazino)dibenz[<em>b</em>,<em>f</em>][1,4]oxazepine;S 805;Loxapin;Cloxazepine;Loxitane IM;Adasuve;Rosup;2-Chloro-11-(4-methylpiperazin-1-yl)dibenzo[<em>b</em>,<em>f</em>][1,4]oxazepine;MeSH ID: D008152",
    "duplicated_cas_no": "",
    "SMILES": "ClC=1C=C2C(=NC=3C(OC2=CC1)=CC=CC3)N4CCN(C)CC4",
    "meta_data": {
        "InChI": "InChI=1S/C18H18ClN3O/c1-21-8-10-22(11-9-21)18-14-12-13(19)6-7-16(14)23-17-5-3-2-4-15(17)20-18/h2-7,12H,8-11H2,1H3",
        "InChIKey": null,
        "Canonical SMILES": "ClC=1C=CC=2OC=3C=CC=CC3N=C(C2C1)N4CCN(C)CC4",
        "Molecular Formula": "C<sub>18</sub>H<sub>18</sub>ClN<sub>3</sub>O",
        "Molecular Mass": "327.81",
        "Melting Point": "109-110 °C"
    }
}