{
    "cas_no": "31677-93-7",
    "key_name": "Bupropion hydrochloride",
    "cn_name": "盐酸安非他酮;1-(3-氯苯基)-2-[(1,1-甲基乙基)氨基]-1-丙酮盐酸盐;",
    "alternate_name": "1-Propanone, 1-(3-chlorophenyl)-2-[(1,1-dimethylethyl)amino]-, hydrochloride (1:1);Propiophenone, 2-(<em>tert</em>-butylamino)-3′-chloro-, hydrochloride, (±)-;1-Propanone, 1-(3-chlorophenyl)-2-[(1,1-dimethylethyl)amino]-, hydrochloride, (±)-;1-Propanone, 1-(3-chlorophenyl)-2-[(1,1-dimethylethyl)amino]-, hydrochloride;<span class=\"text-smallcaps\">DL</span>-α-<em>t</em>-Butylamino-3-chloropropiophenone hydrochloride;Bupropion hydrochloride;Wellbatrin;Wellbutrin;<em>m</em>-Chloro-α-<em>tert</em>-butylaminopropiophenone hydrochloride;α-(<em>tert</em>-Butylamino)-<em>m</em>-chloropropiophenone hydrochloride;Zyban;Zyban (pharmaceutical);NSC 315851;2-(<em>tert</em>-Butylamino)-1-(3-chlorophenyl)propan-1-one hydrochloride",
    "duplicated_cas_no": "34841-36-6",
    "SMILES": "C(C(NC(C)(C)C)C)(=O)C1=CC(Cl)=CC=C1.Cl",
    "meta_data": {
        "InChI": "InChI=1S/C13H18ClNO.ClH/c1-9(15-13(2,3)4)12(16)10-6-5-7-11(14)8-10;/h5-9,15H,1-4H3;1H",
        "InChIKey": null,
        "Canonical SMILES": "Cl.O=C(C=1C=CC=C(Cl)C1)C(NC(C)(C)C)C",
        "Molecular Formula": "C<sub>13</sub>H<sub>18</sub>ClNO.ClH",
        "Molecular Mass": "",
        "Melting Point": "233-234 °C"
    }
}