{
    "cas_no": "18903-01-0",
    "key_name": "1-Cinnamylpiperazine",
    "cn_name": "1-肉桂基哌嗪;反式-1-肉桂基哌嗪;",
    "alternate_name": "Piperazine, 1-(3-phenyl-2-propen-1-yl)-;Piperazine, 1-cinnamyl-;Piperazine, 1-(3-phenyl-2-propenyl)-;1-(3-Phenyl-2-propen-1-yl)piperazine;1-Cinnamylpiperazine;<em>N</em>-Cinnamylpiperazine;<em>N</em>-(3-Phenyl-2-propenyl)piperazine;1-(3-Phenylallyl)piperazine;4-Cinnamylpiperazine;1-(3-Phenyl-2-propenyl)piperazine;4-(3-Phenylallyl)piperazine",
    "duplicated_cas_no": "",
    "SMILES": "C(=CCN1CCNCC1)C2=CC=CC=C2",
    "meta_data": {
        "InChI": "InChI=1S/C13H18N2/c1-2-5-13(6-3-1)7-4-10-15-11-8-14-9-12-15/h1-7,14H,8-12H2",
        "InChIKey": null,
        "Canonical SMILES": "C=1C=CC(=CC1)C=CCN2CCNCC2",
        "Molecular Formula": "C<sub>13</sub>H<sub>18</sub>N<sub>2</sub>",
        "Molecular Mass": "202.30",
        "Boiling Point": "112-114 °C @ Press: 0.098 Torr",
        "Melting Point": "95 °C"
    }
}