{
    "cas_no": "8016-13-5",
    "key_name": "Fish oil",
    "cn_name": null,
    "alternate_name": "Fish oil;Fats and Glyceridic oils, fish;Oils, glyceridic, fish;Oils, fish;Fish body oil;Oils, fish body;Fish oils;Glyceridic oils, fish;Pikasol;Triomar;NC 020 (oil);Defloc Z 3;Epamer;Biopan;Eskimo 3;OmegaPure;PJ 1;DHA 27C-RD;DHA Oil MH;DHA 27G;Nesterol HS-S;Alkitol R 15;Okeanol;Feniko;Omega 3TG;Nisui DHA 27;DHA-A 46MK;VivoMega 1812TG;Fatrofertil;Omega DHA;Omegavie DHA 70TG;Omegavie EPA 70TG;Omegavi 1812;Omevulital 1812 Gold;DHA 27;DD Oil Type 2B-S;MeSH ID: D005395",
    "duplicated_cas_no": "",
    "SMILES": "",
    "meta_data": {
        "InChI": "",
        "InChIKey": null,
        "Canonical SMILES": "",
        "Molecular Formula": "Unspecified",
        "Molecular Mass": "",
        "Melting Point": "31-45 °C"
    }
}