{
    "uri": "substance/pt/8016135",
    "rn": "8016-13-5",
    "name": "Fish oil",
    "images": [],
    "inchi": "",
    "inchiKey": "",
    "smile": "",
    "canonicalSmile": "",
    "molecularFormula": "Unspecified",
    "molecularMass": "",
    "experimentalProperties": [
        {
            "name": "Melting Point",
            "property": "31-45 °C",
            "sourceNumber": 1
        }
    ],
    "propertyCitations": [
        {
            "docUri": "",
            "sourceNumber": 1,
            "source": "Hazardous Substances Data Bank data were obtained from the National Library of Medicine (US)"
        }
    ],
    "synonyms": [
        "Fish oil",
        "Fats and Glyceridic oils, fish",
        "Oils, glyceridic, fish",
        "Oils, fish",
        "Fish body oil",
        "Oils, fish body",
        "Fish oils",
        "Glyceridic oils, fish",
        "Pikasol",
        "Triomar",
        "NC 020 (oil)",
        "Defloc Z 3",
        "Epamer",
        "Biopan",
        "Eskimo 3",
        "OmegaPure",
        "PJ 1",
        "DHA 27C-RD",
        "DHA Oil MH",
        "DHA 27G",
        "Nesterol HS-S",
        "Alkitol R 15",
        "Okeanol",
        "Feniko",
        "Omega 3TG",
        "Nisui DHA 27",
        "DHA-A 46MK",
        "VivoMega 1812TG",
        "Fatrofertil",
        "Omega DHA",
        "Omegavie DHA 70TG",
        "Omegavie EPA 70TG",
        "Omegavi 1812",
        "Omevulital 1812 Gold",
        "DHA 27",
        "DD Oil Type 2B-S",
        "MeSH ID: D005395"
    ],
    "replacedRns": [],
    "hasMolfile": false,
    "source": "https://commonchemistry.cas.org/detail?cas_rn=8016-13-5"
}