{
    "cas_no": "25415-84-3",
    "key_name": "2-Ethylhexyl butyrate",
    "cn_name": null,
    "alternate_name": "Butanoic acid, 2-ethylhexyl ester;Butyric acid, 2-ethylhexyl ester;Ethylhexyl butyrate;2-Ethylhexyl butyrate;2-Ethyl-1-hexanol butyrate;2-Ethylhexyl butanoate",
    "duplicated_cas_no": "",
    "SMILES": "C(COC(CCC)=O)(CCCC)CC",
    "meta_data": {
        "InChI": "InChI=1S/C12H24O2/c1-4-7-9-11(6-3)10-14-12(13)8-5-2/h11H,4-10H2,1-3H3",
        "InChIKey": null,
        "Canonical SMILES": "O=C(OCC(CC)CCCC)CCC",
        "Molecular Formula": "C<sub>12</sub>H<sub>24</sub>O<sub>2</sub>",
        "Molecular Mass": "200.32",
        "Boiling Point": "215 °C"
    }
}