{
    "cas_no": "95-55-6",
    "key_name": "2-Aminophenol",
    "cn_name": "2-氨基苯酚;邻氨基酚;邻氨基苯酚;",
    "alternate_name": "Phenol, 2-amino-;Phenol, <em>o</em>-amino-;2-Aminophenol;C.I. 76520;<em>o</em>-Aminophenol;BASF Ursol 3GA;Benzofur GG;C.I. Oxidation Base 17;Fouramine OP;Nako Yellow 3GA;Paradone Olive Green B;Pelagol 3GA;Pelagol Grey GG;Zoba 3GA;<em>o</em>-Hydroxyaniline;<em>o</em>-Hydroxyphenylamine;1-Amino-2-hydroxybenzene;1-Hydroxy-2-aminobenzene;2-Hydroxyaniline;2-Hydroxybenzenamine;<em>o</em>-Aminohydroxybenzene;Rodol 2G;NSC 1534;NSC 226261;(2-Hydroxyphenyl)amine;2-Amino-1-hydroxybenzene;2-Aminophenyl alcohol",
    "duplicated_cas_no": "",
    "SMILES": "NC1=C(O)C=CC=C1",
    "meta_data": {
        "InChI": "InChI=1S/C6H7NO/c7-5-3-1-2-4-6(5)8/h1-4,8H,7H2",
        "InChIKey": null,
        "Canonical SMILES": "OC=1C=CC=CC1N",
        "Molecular Formula": "C<sub>6</sub>H<sub>7</sub>NO",
        "Molecular Mass": "109.13",
        "Boiling Point": "100 °C @ Press: 1 x 10<sup>-3</sup>-3 x 10<sup>-3</sup> Torr",
        "Melting Point": "170-174 °C",
        "Density": "1.328 g/cm³ @ Temp: 25 °C"
    }
}