{
    "cas_no": "317318-70-0",
    "key_name": "GW 501516",
    "cn_name": "2-(4-((2-(4-(三氟甲基)苯基)-5-甲基噻唑-4-基)甲基硫基)-2-甲基苯氧基)乙酸;",
    "alternate_name": "Acetic acid, 2-[2-methyl-4-[[[4-methyl-2-[4-(trifluoromethyl)phenyl]-5-thiazolyl]methyl]thio]phenoxy]-;Acetic acid, [2-methyl-4-[[[4-methyl-2-[4-(trifluoromethyl)phenyl]-5-thiazolyl]methyl]thio]phenoxy]-;2-[2-Methyl-4-[[[4-methyl-2-[4-(trifluoromethyl)phenyl]-5-thiazolyl]methyl]thio]phenoxy]acetic acid;GW 501516;GW 1516;2-[2-Methyl-4-[[[4-methyl-2-[4-(trifluoromethyl)phenyl]thiazol-5-yl]methyl]thio]phenoxy]acetic acid;[2-Methyl-4-[([4-methyl-2-[4-(trifluoromethyl)phenyl]-1,3-thiazol-5-yl]methyl)thio]phenoxy]acetic acid;2-(4-((2-(4-(Trifluoromethyl)phenyl)-4-methylthiazol-5-yl)methylthio)-2-methylphenoxy)acetic acid;Cardarine;Endurobol",
    "duplicated_cas_no": "813458-54-7",
    "SMILES": "C(SC1=CC(C)=C(OCC(O)=O)C=C1)C=2SC(=NC2C)C3=CC=C(C(F)(F)F)C=C3",
    "meta_data": {
        "InChI": "InChI=1S/C21H18F3NO3S2/c1-12-9-16(7-8-17(12)28-10-19(26)27)29-11-18-13(2)25-20(30-18)14-3-5-15(6-4-14)21(22,23)24/h3-9H,10-11H2,1-2H3,(H,26,27)",
        "InChIKey": null,
        "Canonical SMILES": "O=C(O)COC1=CC=C(SCC=2SC(=NC2C)C=3C=CC(=CC3)C(F)(F)F)C=C1C",
        "Molecular Formula": "C<sub>21</sub>H<sub>18</sub>F<sub>3</sub>NO<sub>3</sub>S<sub>2</sub>",
        "Molecular Mass": "453.50",
        "Melting Point": "133-134 °C (decomp)"
    }
}