{
    "cas_no": "56441-55-5",
    "key_name": "Ethyl 4-(phenylmethoxy)benzoate",
    "cn_name": "4-(苄氧基)苯甲酸乙酯;",
    "alternate_name": "Benzoic acid, 4-(phenylmethoxy)-, ethyl ester;Benzoic acid, <em>p</em>-(benzyloxy)-, ethyl ester;Ethyl 4-(phenylmethoxy)benzoate;[4-(Ethoxycarbonyl)phenoxy]phenylmethane;BRL 10894;Ethyl 4-benzyloxybenzoate;Ethyl <em>p</em>-benzyloxybenzoate",
    "duplicated_cas_no": "",
    "SMILES": "C(OCC)(=O)C1=CC=C(OCC2=CC=CC=C2)C=C1",
    "meta_data": {
        "InChI": "InChI=1S/C16H16O3/c1-2-18-16(17)14-8-10-15(11-9-14)19-12-13-6-4-3-5-7-13/h3-11H,2,12H2,1H3",
        "InChIKey": null,
        "Canonical SMILES": "O=C(OCC)C1=CC=C(OCC=2C=CC=CC2)C=C1",
        "Molecular Formula": "C<sub>16</sub>H<sub>16</sub>O<sub>3</sub>",
        "Molecular Mass": "256.30",
        "Melting Point": "44 °C"
    }
}