{
    "cas_no": "625-88-7",
    "key_name": "2,5-Diiodothiophene",
    "cn_name": "2,5-二碘噻吩;2,5-二碘代噻吩;",
    "alternate_name": "Thiophene, 2,5-diiodo-;2,5-Diiodothiophene;NSC 80411",
    "duplicated_cas_no": "",
    "SMILES": "IC=1SC(I)=CC1",
    "meta_data": {
        "InChI": "InChI=1S/C4H2I2S/c5-3-1-2-4(6)7-3/h1-2H",
        "InChIKey": null,
        "Canonical SMILES": "IC=1SC(I)=CC1",
        "Molecular Formula": "C<sub>4</sub>H<sub>2</sub>I<sub>2</sub>S",
        "Molecular Mass": "335.93",
        "Boiling Point": "67-70 °C @ Press: 0.05 Torr",
        "Melting Point": "41.5 °C"
    }
}