{
    "cas_no": "49660-93-7",
    "key_name": "1-(4-Bromophenyl)-2-methyl-1-propanone",
    "cn_name": null,
    "alternate_name": "1-Propanone, 1-(4-bromophenyl)-2-methyl-;Propiophenone, 4′-bromo-2-methyl-;1-(4-Bromophenyl)-2-methyl-1-propanone;<em>p</em>-Bromophenyl isopropyl ketone;4′-Bromoisobutyrophenone;4-(1-Oxo-2-methylpropyl)bromobenzene;Isopropyl 4-bromophenyl ketone",
    "duplicated_cas_no": "",
    "SMILES": "C(C(C)C)(=O)C1=CC=C(Br)C=C1",
    "meta_data": {
        "InChI": "InChI=1S/C10H11BrO/c1-7(2)10(12)8-3-5-9(11)6-4-8/h3-7H,1-2H3",
        "InChIKey": null,
        "Canonical SMILES": "O=C(C1=CC=C(Br)C=C1)C(C)C",
        "Molecular Formula": "C<sub>10</sub>H<sub>11</sub>BrO",
        "Molecular Mass": "227.10",
        "Melting Point": "18 °C"
    }
}