{
    "cas_no": "1696-20-4",
    "key_name": "<em>N</em>-Acetylmorpholine",
    "cn_name": "4-乙酰基吗啉;N-乙酰基吗啉;",
    "alternate_name": "Ethanone, 1-(4-morpholinyl)-;Morpholine, 4-acetyl-;1-(4-Morpholinyl)ethanone;<em>N</em>-Acetylmorpholine;4-Acetylmorpholine;Acetomorpholide;NSC 2764;1-(Morpholin-4-yl)ethanone;1-Morpholinoethanone;1-Morpholinoethan-1-one;1-(Morpholin-4-yl)ethan-1-one",
    "duplicated_cas_no": "140864-97-7",
    "SMILES": "C(C)(=O)N1CCOCC1",
    "meta_data": {
        "InChI": "InChI=1S/C6H11NO2/c1-6(8)7-2-4-9-5-3-7/h2-5H2,1H3",
        "InChIKey": null,
        "Canonical SMILES": "O=C(N1CCOCC1)C",
        "Molecular Formula": "C<sub>6</sub>H<sub>11</sub>NO<sub>2</sub>",
        "Molecular Mass": "129.16",
        "Boiling Point": "89 °C @ Press: 1 Torr",
        "Melting Point": "14.5 °C",
        "Density": "1.1162 g/cm³ @ Temp: 20 °C"
    }
}