{
    "cas_no": "1173-88-2",
    "key_name": "Oxacillin sodium",
    "cn_name": "苯唑西林;",
    "alternate_name": "4-Thia-1-azabicyclo[3.2.0]heptane-2-carboxylic acid, 3,3-dimethyl-6-[[(5-methyl-3-phenyl-4-isoxazolyl)carbonyl]amino]-7-oxo-, sodium salt (1:1), (2<em>S</em>,5<em>R</em>,6<em>R</em>)-;4-Thia-1-azabicyclo[3.2.0]heptane-2-carboxylic acid, 3,3-dimethyl-6-(5-methyl-3-phenyl-4-isoxazolecarboxamido)-7-oxo-, monosodium salt;4-Thia-1-azabicyclo[3.2.0]heptane-2-carboxylic acid, 3,3-dimethyl-6-[[(5-methyl-3-phenyl-4-isoxazolyl)carbonyl]amino]-7-oxo-, monosodium salt, [2<em>S</em>-(2α,5α,6β)]-;4-Thia-1-azabicyclo[3.2.0]heptane-2-carboxylic acid, 3,3-dimethyl-6-[[(5-methyl-3-phenyl-4-isoxazolyl)carbonyl]amino]-7-oxo-, monosodium salt, (2<em>S</em>,5<em>R</em>,6<em>R</em>)-;Sodium (5-methyl-3-phenyl-2-isoxazoline-4-carboxamido)penicillanate;5-Methyl-3-phenyl-4-isoxazolyl penicillin sodium salt;Oxacillin sodium;Sodium 5-methyl-3-phenyl-4-isoxazolyl penicillin;Oxacillin sodium salt;Sodium [(3-phenyl-5-methyl-4-isoxazolyl)carbonyl]penicillin;Prostaphlin;SQ 16423;BRL 1400;Penicillin P 12;P 12;Cryptocillin;Bristopen;Sodium oxacillin;Stapenor;Staphcillin V;Monosodium oxacillin;Bactocil sodium;Bactocill;Oxabel;Micropenin;Penstaphocid;Penstapho;NSC 527712;Bactocil",
    "duplicated_cas_no": "1258282-81-3",
    "SMILES": "C(O)(=O)[C@@H]1N2[C@@]([C@H](NC(=O)C=3C(=NOC3C)C4=CC=CC=C4)C2=O)(SC1(C)C)[H].[Na]",
    "meta_data": {
        "InChI": "InChI=1S/C19H19N3O5S.Na/c1-9-11(12(21-27-9)10-7-5-4-6-8-10)15(23)20-13-16(24)22-14(18(25)26)19(2,3)28-17(13)22;/h4-8,13-14,17H,1-3H3,(H,20,23)(H,25,26);/t13-,14+,17-;/m1./s1",
        "InChIKey": null,
        "Canonical SMILES": "[Na].O=C(O)C1N2C(=O)C(NC(=O)C=3C(=NOC3C)C=4C=CC=CC4)C2SC1(C)C",
        "Molecular Formula": "C<sub>19</sub>H<sub>19</sub>N<sub>3</sub>O<sub>5</sub>S.Na",
        "Molecular Mass": "",
        "Melting Point": "188 °C (decomp)"
    }
}