{
    "cas_no": "4180-23-8",
    "key_name": "<em>trans</em>-Anethole",
    "cn_name": null,
    "alternate_name": "Benzene, 1-methoxy-4-(1<em>E</em>)-1-propen-1-yl-;Anisole, <em>p</em>-propenyl-, (<em>E</em>)-;Benzene, 1-methoxy-4-(1-propenyl)-, (<em>E</em>)-;Benzene, 1-methoxy-4-(1<em>E</em>)-1-propenyl-;1-Methoxy-4-(1<em>E</em>)-1-propen-1-ylbenzene;<em>trans</em>-Anethole;<em>trans</em>-Anethol;<em>trans</em>-1-(<em>p</em>-Methoxyphenyl)propene;<em>trans</em>-1-(4-Methoxyphenyl)-1-propene;<em>trans</em>-<em>p</em>-Methoxy-β-methylstyrene;(<em>E</em>)-Anethole;<em>trans</em>-<em>p</em>-Anethole;(<em>E</em>)-1-(4-Methoxyphenyl)propene;<em>trans</em>-1-(<em>p</em>-Methoxyphenyl)-1-propene;<em>trans</em>-4-(1-Propenyl)anisole;<em>trans</em>-1-<em>p</em>-Anisylpropene;(<em>E</em>)-1-<em>p</em>-Methoxyphenylpropene;(<em>E</em>)-Anethol;1-Methoxy-4-[(1<em>E</em>)-1-propenyl]benzene;NSC 209529;(E)-1-Methoxy-4-(prop-1-en-1-yl)benzene;(<em>E</em>)-1-Methoxy-4-(1-propen-1-yl)benzene;<em>trans</em>-4-Methoxy-β-methylstyrene",
    "duplicated_cas_no": "109957-71-3;57131-42-7",
    "SMILES": "C(=C/C)\\C1=CC=C(OC)C=C1",
    "meta_data": {
        "InChI": "InChI=1S/C10H12O/c1-3-4-9-5-7-10(11-2)8-6-9/h3-8H,1-2H3/b4-3+",
        "InChIKey": null,
        "Canonical SMILES": "O(C1=CC=C(C=C1)C=CC)C",
        "Molecular Formula": "C<sub>10</sub>H<sub>12</sub>O",
        "Molecular Mass": "148.20",
        "Boiling Point": "234 °C",
        "Melting Point": "21.35 °C"
    }
}