{
    "cas_no": "66753-64-8",
    "key_name": "3-Methacryloxypropyldimethylmethoxysilane",
    "cn_name": null,
    "alternate_name": "2-Propenoic acid, 2-methyl-, 3-(methoxydimethylsilyl)propyl ester;(γ-Methacryloxypropyl)dimethylmethoxysilane;TSL 8375;Dimethyl[(3-methacryloyloxy)propyl]methoxysilane;3-Methacryloxypropyldimethylmethoxysilane;(Methacryloxypropyl)dimethylmethoxysilane;SIM 6486.5;3-Methacryloyloxypropyldimethylmethoxysilane;3-[Methoxydimethylsilyl]propyl methacrylate",
    "duplicated_cas_no": "",
    "SMILES": "[Si](CCCOC(C(C)=C)=O)(OC)(C)C",
    "meta_data": {
        "InChI": "InChI=1S/C10H20O3Si/c1-9(2)10(11)13-7-6-8-14(4,5)12-3/h1,6-8H2,2-5H3",
        "InChIKey": null,
        "Canonical SMILES": "O=C(OCCC[Si](OC)(C)C)C(=C)C",
        "Molecular Formula": "C<sub>10</sub>H<sub>20</sub>O<sub>3</sub>Si",
        "Molecular Mass": "216.35",
        "Boiling Point": "70-72 °C @ Press: 0.5 Torr",
        "Density": "0.944 g/cm³"
    }
}