{
    "cas_no": "74852-61-2",
    "key_name": "1-(4-Methoxyphenyl)-4-(4-nitrophenyl)piperazine",
    "cn_name": "1-(4-甲氧基苯基)-4-(4-硝基苯基)哌嗪;",
    "alternate_name": "Piperazine, 1-(4-methoxyphenyl)-4-(4-nitrophenyl)-;1-(4-Methoxyphenyl)-4-(4-nitrophenyl)piperazine",
    "duplicated_cas_no": "",
    "SMILES": "N(=O)(=O)C1=CC=C(N2CCN(CC2)C3=CC=C(OC)C=C3)C=C1",
    "meta_data": {
        "InChI": "InChI=1S/C17H19N3O3/c1-23-17-8-6-15(7-9-17)19-12-10-18(11-13-19)14-2-4-16(5-3-14)20(21)22/h2-9H,10-13H2,1H3",
        "InChIKey": null,
        "Canonical SMILES": "O=N(=O)C1=CC=C(C=C1)N2CCN(C3=CC=C(OC)C=C3)CC2",
        "Molecular Formula": "C<sub>17</sub>H<sub>19</sub>N<sub>3</sub>O<sub>3</sub>",
        "Molecular Mass": "313.35",
        "Melting Point": "189-190 °C"
    }
}