{
    "cas_no": "5825-45-6",
    "key_name": "1-Amino-1,2,3,4-tetrahydroquinoline",
    "cn_name": "1-氨基-1,2,3,4-四氢喹啉;",
    "alternate_name": "1(2<em>H</em>)-Quinolinamine, 3,4-dihydro-;Quinoline, 1-amino-1,2,3,4-tetrahydro-;3,4-Dihydro-1(2<em>H</em>)-quinolinamine;1-Amino-1,2,3,4-tetrahydroquinoline;3,4-Dihydroquinolin-1(2<em>H</em>)-amine;1,2,3,4-Tetrahydroquinolin-1-amine;3,4-Dihydro-2<em>H</em>-quinolin-1-ylamine;3,4-Dihydro-2<em>H</em>-quinolin-1-amine",
    "duplicated_cas_no": "343865-46-3",
    "SMILES": "NN1C=2C(CCC1)=CC=CC2",
    "meta_data": {
        "InChI": "InChI=1S/C9H12N2/c10-11-7-3-5-8-4-1-2-6-9(8)11/h1-2,4,6H,3,5,7,10H2",
        "InChIKey": null,
        "Canonical SMILES": "NN1C=2C=CC=CC2CCC1",
        "Molecular Formula": "C<sub>9</sub>H<sub>12</sub>N<sub>2</sub>",
        "Molecular Mass": "148.21",
        "Boiling Point": "120-125 °C @ Press: 5 Torr",
        "Melting Point": "55 °C"
    }
}