{
    "cas_no": "421-50-1",
    "key_name": "1,1,1-Trifluoroacetone",
    "cn_name": "1,1,1-三氟丙酮;三氟丙酮;",
    "alternate_name": "2-Propanone, 1,1,1-trifluoro-;1,1,1-Trifluoro-2-propanone;1,1,1-Trifluoroacetone;Trifluoromethyl methyl ketone;Methyl trifluoromethyl ketone;3,3,3-Trifluoroacetone;α,α,α-Trifluoroacetone;NSC 66412",
    "duplicated_cas_no": "",
    "SMILES": "C(C(C)=O)(F)(F)F",
    "meta_data": {
        "InChI": "InChI=1S/C3H3F3O/c1-2(7)3(4,5)6/h1H3",
        "InChIKey": null,
        "Canonical SMILES": "O=C(C)C(F)(F)F",
        "Molecular Formula": "C<sub>3</sub>H<sub>3</sub>F<sub>3</sub>O",
        "Molecular Mass": "112.05",
        "Boiling Point": "22 °C",
        "Density": "1.282 g/cm³"
    }
}