{
    "cas_no": "152402-98-7",
    "key_name": "2-[[(3-Methyl-4-nitro-2-pyridinyl)methyl]thio]-1<em>H</em>-benzimidazole",
    "cn_name": null,
    "alternate_name": "1<em>H</em>-Benzimidazole, 2-[[(3-methyl-4-nitro-2-pyridinyl)methyl]thio]-;2-[[(3-Methyl-4-nitro-2-pyridinyl)methyl]thio]-1<em>H</em>-benzimidazole;2-[(3-Methyl-4-nitro-2-pyridinyl)methylthio]-1<em>H</em>-benzimidazole;2-[[(3-Methyl-4-nitro-2-pyridyl)methyl]thio]-1<em>H</em>-benzimidazole;2-[[[3-Methyl-4-nitro-2-pyridyl]methyl]thio]benzimidazole",
    "duplicated_cas_no": "",
    "SMILES": "S(CC1=C(C)C(N(=O)=O)=CC=N1)C=2NC=3C(N2)=CC=CC3",
    "meta_data": {
        "InChI": "InChI=1S/C14H12N4O2S/c1-9-12(15-7-6-13(9)18(19)20)8-21-14-16-10-4-2-3-5-11(10)17-14/h2-7H,8H2,1H3,(H,16,17)",
        "InChIKey": null,
        "Canonical SMILES": "O=N(=O)C=1C=CN=C(C1C)CSC2=NC=3C=CC=CC3N2",
        "Molecular Formula": "C<sub>14</sub>H<sub>12</sub>N<sub>4</sub>O<sub>2</sub>S",
        "Molecular Mass": "300.34",
        "Melting Point": "88-93 °C"
    }
}