{
    "cas_no": "5248-39-5",
    "key_name": "4-Methoxy-<em>N</em>,6-dimethyl-1,3,5-triazin-2-amine",
    "cn_name": "2-甲基-4-甲胺基-6-甲氧基均三嗪;",
    "alternate_name": "1,3,5-Triazin-2-amine, 4-methoxy-<em>N</em>,6-dimethyl-;<em>s</em>-Triazine, 2-methoxy-4-methyl-6-(methylamino)-;4-Methoxy-<em>N</em>,6-dimethyl-1,3,5-triazin-2-amine;2-Methyl-4-(methylamino)-6-methoxy-1,3,5-triazine;2-Methoxy-4-methyl-6-methylamino-1,3,5-triazine",
    "duplicated_cas_no": "",
    "SMILES": "N(C)C=1N=C(OC)N=C(C)N1",
    "meta_data": {
        "InChI": "InChI=1S/C6H10N4O/c1-4-8-5(7-2)10-6(9-4)11-3/h1-3H3,(H,7,8,9,10)",
        "InChIKey": null,
        "Canonical SMILES": "N=1C(=NC(=NC1NC)C)OC",
        "Molecular Formula": "C<sub>6</sub>H<sub>10</sub>N<sub>4</sub>O",
        "Molecular Mass": "154.17",
        "Melting Point": "155-157 °C"
    }
}