{
    "cas_no": "505-44-2",
    "key_name": "Iberin",
    "cn_name": "Iberin;",
    "alternate_name": "Propane, 1-isothiocyanato-3-(methylsulfinyl)-;Isothiocyanic acid, 3-(methylsulfinyl)propyl ester;1-Isothiocyanato-3-(methylsulfinyl)propane;Iberin;3-Methylsulfinylpropyl isothiocyanate;NSC 321801",
    "duplicated_cas_no": "",
    "SMILES": "C(CS(C)=O)CN=C=S",
    "meta_data": {
        "InChI": "InChI=1S/C5H9NOS2/c1-9(7)4-2-3-6-5-8/h2-4H2,1H3",
        "InChIKey": null,
        "Canonical SMILES": "O=S(C)CCCN=C=S",
        "Molecular Formula": "C<sub>5</sub>H<sub>9</sub>NOS<sub>2</sub>",
        "Molecular Mass": "163.26",
        "Boiling Point": "149-156 °C @ Press: 0.06 Torr"
    }
}