{
    "cas_no": "112811-90-2",
    "key_name": "2-[(Phenylmethyl)thio]-3-pyridinecarboxylic acid",
    "cn_name": "2-苄硫基烟酸;2-苄硫基-3-吡啶甲酸;",
    "alternate_name": "3-Pyridinecarboxylic acid, 2-[(phenylmethyl)thio]-;2-[(Phenylmethyl)thio]-3-pyridinecarboxylic acid;2-(Phenylmethylthio)-3-pyridinecarboxylic acid;2-Benzylsulfanylpyridine-3-carboxylic acid;2-(Benzylsulfanyl)pyridine-3-carboxylic acid",
    "duplicated_cas_no": "",
    "SMILES": "S(CC1=CC=CC=C1)C2=C(C(O)=O)C=CC=N2",
    "meta_data": {
        "InChI": "InChI=1S/C13H11NO2S/c15-13(16)11-7-4-8-14-12(11)17-9-10-5-2-1-3-6-10/h1-8H,9H2,(H,15,16)",
        "InChIKey": null,
        "Canonical SMILES": "O=C(O)C1=CC=CN=C1SCC=2C=CC=CC2",
        "Molecular Formula": "C<sub>13</sub>H<sub>11</sub>NO<sub>2</sub>S",
        "Molecular Mass": "245.30",
        "Melting Point": "190-193 °C"
    }
}