{
    "cas_no": "832114-00-8",
    "key_name": "3,5-Dimethyl-4-(4,4,5,5-tetramethyl-1,3,2-dioxaborolan-2-yl)isoxazole",
    "cn_name": "3,5-二甲基异恶唑-4-硼酸频哪醇酯;",
    "alternate_name": "Isoxazole, 3,5-dimethyl-4-(4,4,5,5-tetramethyl-1,3,2-dioxaborolan-2-yl)-;3,5-Dimethyl-4-(4,4,5,5-tetramethyl-1,3,2-dioxaborolan-2-yl)isoxazole;2-(3,5-Dimethylisoxazol-4-yl)-4,4,5,5-tetramethyl-1,3,2-dioxaborolane;3,5-Dimethylisoxazole-4-boronic acid pinacol ester;(3,5-Dimethylisoxazol-4-yl)boronic acid pinacol ester;3,5-Dimethyl-4-(4,4,5,5-tetramethyl-1,3,2-dioxaborolan-2-yl)-1,2-oxazole;3,5-Dimethyl-4-(tetramethyl-1,3,2-dioxaborolan-2-yl)-1,2-oxazole;3,5-Dimethyl-4-(4,4,5,5-tetramethyl-1,3,2-dioxaborolan-yl)isoxazole",
    "duplicated_cas_no": "",
    "SMILES": "CC=1C(=C(C)ON1)B2OC(C)(C)C(C)(C)O2",
    "meta_data": {
        "InChI": "InChI=1S/C11H18BNO3/c1-7-9(8(2)14-13-7)12-15-10(3,4)11(5,6)16-12/h1-6H3",
        "InChIKey": null,
        "Canonical SMILES": "N=1OC(=C(B2OC(C)(C)C(O2)(C)C)C1C)C",
        "Molecular Formula": "C<sub>11</sub>H<sub>18</sub>BNO<sub>3</sub>",
        "Molecular Mass": "223.08",
        "Melting Point": "99-101 °C"
    }
}