{
    "cas_no": "1198-61-4",
    "key_name": "1,3-Dichloro-2,4,5,6-tetrafluorobenzene",
    "cn_name": "1,3-二氯四氟苯;",
    "alternate_name": "Benzene, 1,3-dichloro-2,4,5,6-tetrafluoro-;Benzene, 1,3-dichlorotetrafluoro-;1,3-Dichloro-2,4,5,6-tetrafluorobenzene;1,3-Dichlorotetrafluorobenzene;2,4,5,6-Tetrafluoro-1,3-dichlorobenzene;<em>m</em>-Dichlorotetrafluorobenzene",
    "duplicated_cas_no": "",
    "SMILES": "ClC1=C(F)C(Cl)=C(F)C(F)=C1F",
    "meta_data": {
        "InChI": "InChI=1S/C6Cl2F4/c7-1-3(9)2(8)5(11)6(12)4(1)10",
        "InChIKey": null,
        "Canonical SMILES": "FC=1C(F)=C(Cl)C(F)=C(Cl)C1F",
        "Molecular Formula": "C<sub>6</sub>Cl<sub>2</sub>F<sub>4</sub>",
        "Molecular Mass": "218.96",
        "Boiling Point": "155.0-155.5 °C",
        "Melting Point": "3.2 °C",
        "Density": "1.6746 g/cm³ @ Temp: 20 °C"
    }
}