{
    "cas_no": "36073-93-5",
    "key_name": "4-Nitroisoquinoline",
    "cn_name": null,
    "alternate_name": "Isoquinoline, 4-nitro-;4-Nitroisoquinoline",
    "duplicated_cas_no": "",
    "SMILES": "N(=O)(=O)C=1C2=C(C=NC1)C=CC=C2",
    "meta_data": {
        "InChI": "InChI=1S/C9H6N2O2/c12-11(13)9-6-10-5-7-3-1-2-4-8(7)9/h1-6H",
        "InChIKey": null,
        "Canonical SMILES": "O=N(=O)C1=CN=CC2=CC=CC=C21",
        "Molecular Formula": "C<sub>9</sub>H<sub>6</sub>N<sub>2</sub>O<sub>2</sub>",
        "Molecular Mass": "174.16",
        "Melting Point": "64.5 °C"
    }
}