{
    "cas_no": "5580-34-7",
    "key_name": "2,3-Dimethylbenzamide",
    "cn_name": "2,3-二甲基苯甲酰胺;",
    "alternate_name": "Benzamide, 2,3-dimethyl-;2,3-Dimethylbenzamide;Hemellitamide",
    "duplicated_cas_no": "",
    "SMILES": "C(N)(=O)C1=C(C)C(C)=CC=C1",
    "meta_data": {
        "InChI": "InChI=1S/C9H11NO/c1-6-4-3-5-8(7(6)2)9(10)11/h3-5H,1-2H3,(H2,10,11)",
        "InChIKey": null,
        "Canonical SMILES": "O=C(N)C1=CC=CC(=C1C)C",
        "Molecular Formula": "C<sub>9</sub>H<sub>11</sub>NO",
        "Molecular Mass": "149.19",
        "Melting Point": "156 °C"
    }
}