{
    "cas_no": "55690-60-3",
    "key_name": "2-Mercapto-5-methoxybenzothiazole",
    "cn_name": "2-巯基-5-甲氧基苯并噻唑;",
    "alternate_name": "2(3<em>H</em>)-Benzothiazolethione, 5-methoxy-;5-Methoxy-2(3<em>H</em>)-benzothiazolethione;2-Mercapto-5-methoxybenzothiazole;5-Methoxy-2-benzothiazolethiol;5-Methoxy-2-mercaptobenzothiazole;5-Methoxy-1,3-benzothiazole-2-thiol",
    "duplicated_cas_no": "",
    "SMILES": "S=C1SC=2C(=CC(OC)=CC2)N1",
    "meta_data": {
        "InChI": "InChI=1S/C8H7NOS2/c1-10-5-2-3-7-6(4-5)9-8(11)12-7/h2-4H,1H3,(H,9,11)",
        "InChIKey": null,
        "Canonical SMILES": "S=C1SC2=CC=C(OC)C=C2N1",
        "Molecular Formula": "C<sub>8</sub>H<sub>7</sub>NOS<sub>2</sub>",
        "Molecular Mass": "197.28",
        "Melting Point": "190-192 °C"
    }
}