{
    "cas_no": "168050-39-3",
    "key_name": "Phenylmethyl <em>N</em>-[(4-aminophenyl)methyl]carbamate",
    "cn_name": null,
    "alternate_name": "Carbamic acid, <em>N</em>-[(4-aminophenyl)methyl]-, phenylmethyl ester;Carbamic acid, [(4-aminophenyl)methyl]-, phenylmethyl ester;Phenylmethyl <em>N</em>-[(4-aminophenyl)methyl]carbamate;(4-Aminobenzyl)carbamic acid benzyl ester;Benzyl <em>N</em>-[(4-aminobenzyl)carbamate",
    "duplicated_cas_no": "",
    "SMILES": "C(NC(OCC1=CC=CC=C1)=O)C2=CC=C(N)C=C2",
    "meta_data": {
        "InChI": "InChI=1S/C15H16N2O2/c16-14-8-6-12(7-9-14)10-17-15(18)19-11-13-4-2-1-3-5-13/h1-9H,10-11,16H2,(H,17,18)",
        "InChIKey": null,
        "Canonical SMILES": "O=C(OCC=1C=CC=CC1)NCC2=CC=C(N)C=C2",
        "Molecular Formula": "C<sub>15</sub>H<sub>16</sub>N<sub>2</sub>O<sub>2</sub>",
        "Molecular Mass": "256.30",
        "Melting Point": "173 °C"
    }
}