{
    "cas_no": "51-77-4",
    "key_name": "<em>trans</em>-3,7-Dimethyl-2,6-octadienyl 5,9,13-trimethyl-4,8,12-tetradecatrienoate",
    "cn_name": "吉法酯;[(2E)-3,7-二甲基辛-2,6-二烯基](4E,8E)-5,9,13-三甲基十四碳-4,8,12-三烯酸酯;",
    "alternate_name": "4,8,12-Tetradecatrienoic acid, 5,9,13-trimethyl-, (2<em>E</em>)-3,7-dimethyl-2,6-octadien-1-yl ester, (4<em>E</em>,8<em>E</em>)-;4,8,12-Tetradecatrienoic acid, 5,9,13-trimethyl-, 3,7-dimethyl-2,6-octadienyl ester, (<em>E</em>,<em>E</em>,<em>E</em>)-;4,8,12-Tetradecatrienoic acid, 5,9,13-trimethyl-, (2<em>E</em>)-3,7-dimethyl-2,6-octadienyl ester, (4<em>E</em>,8<em>E</em>)-;<em>trans</em>-3,7-Dimethyl-2,6-octadienyl 5,9,13-trimethyl-4,8,12-tetradecatrienoate;Gefarnate;5,9,13-Trimethyl-4,8,12-tetradecatrienoic acid 3,7-dimethyl-2,6-octadienyl ester;Geranyl farnesylacetate;DA 688;Gefarnil;Gefarnyl;Gefanil;Alsanate;Dixnalate;Salanil;Gefulcer;Arsanyl;Zackal;Osteol;MeSH ID: D005778",
    "duplicated_cas_no": "30462-47-6",
    "SMILES": "C(=C/CCC(OC/C=C(/CCC=C(C)C)\\C)=O)(\\CC/C=C(/CCC=C(C)C)\\C)/C",
    "meta_data": {
        "InChI": "InChI=1S/C27H44O2/c1-22(2)12-8-14-24(5)16-10-17-25(6)18-11-19-27(28)29-21-20-26(7)15-9-13-23(3)4/h12-13,16,18,20H,8-11,14-15,17,19,21H2,1-7H3/b24-16+,25-18+,26-20+",
        "InChIKey": null,
        "Canonical SMILES": "O=C(OCC=C(C)CCC=C(C)C)CCC=C(C)CCC=C(C)CCC=C(C)C",
        "Molecular Formula": "C<sub>27</sub>H<sub>44</sub>O<sub>2</sub>",
        "Molecular Mass": "400.64",
        "Boiling Point": "166.5 °C",
        "Melting Point": "&lt;25 °C",
        "Density": "0.91 g/cm³"
    }
}