{
    "cas_no": "5703-26-4",
    "key_name": "4-Methoxyphenylacetaldehyde",
    "cn_name": null,
    "alternate_name": "Benzeneacetaldehyde, 4-methoxy-;Acetaldehyde, (<em>p</em>-methoxyphenyl)-;4-Methoxybenzeneacetaldehyde;<em>p</em>-Anisylacetaldehyde;Homoanisaldehyde;4-Methoxyphenylacetaldehyde;(<em>p</em>-Methoxyphenyl)acetaldehyde;2-(<em>p</em>-Anisyl)ethanal;2-(4-Methoxyphenyl)ethanal;2-(4-Methoxyphenyl)acetaldehyde",
    "duplicated_cas_no": "",
    "SMILES": "C(C=O)C1=CC=C(OC)C=C1",
    "meta_data": {
        "InChI": "InChI=1S/C9H10O2/c1-11-9-4-2-8(3-5-9)6-7-10/h2-5,7H,6H2,1H3",
        "InChIKey": null,
        "Canonical SMILES": "O=CCC1=CC=C(OC)C=C1",
        "Molecular Formula": "C<sub>9</sub>H<sub>10</sub>O<sub>2</sub>",
        "Molecular Mass": "150.17",
        "Boiling Point": "255.5 °C",
        "Melting Point": "0 °C"
    }
}