{
    "cas_no": "431-21-0",
    "key_name": "2,3-Dibromo-1,1,1-trifluoropropane",
    "cn_name": "1,2-二溴-3,3,3-三氟丙烷;",
    "alternate_name": "Propane, 2,3-dibromo-1,1,1-trifluoro-;2,3-Dibromo-1,1,1-trifluoropropane;1,2-Dibromo-3,3,3-trifluoropropane",
    "duplicated_cas_no": "",
    "SMILES": "C(C(F)(F)F)(CBr)Br",
    "meta_data": {
        "InChI": "InChI=1S/C3H3Br2F3/c4-1-2(5)3(6,7)8/h2H,1H2",
        "InChIKey": null,
        "Canonical SMILES": "FC(F)(F)C(Br)CBr",
        "Molecular Formula": "C<sub>3</sub>H<sub>3</sub>Br<sub>2</sub>F<sub>3</sub>",
        "Molecular Mass": "255.86",
        "Boiling Point": "116 °C",
        "Density": "2.121 g/cm³ @ Temp: 24 °C"
    }
}