{
    "cas_no": "1151-97-9",
    "key_name": "2-[(2,4-Dinitrophenyl)methyl]pyridine",
    "cn_name": "2-(2,4-二硝基苯甲基)吡啶;",
    "alternate_name": "Pyridine, 2-[(2,4-dinitrophenyl)methyl]-;Pyridine, 2-(2,4-dinitrobenzyl)-;2-[(2,4-Dinitrophenyl)methyl]pyridine;2-(2′,4′-Dinitrobenzyl)pyridine;2-(2,4-Dinitrobenzyl)pyridine",
    "duplicated_cas_no": "",
    "SMILES": "C(C1=C(N(=O)=O)C=C(N(=O)=O)C=C1)C2=CC=CC=N2",
    "meta_data": {
        "InChI": "InChI=1S/C12H9N3O4/c16-14(17)11-5-4-9(12(8-11)15(18)19)7-10-3-1-2-6-13-10/h1-6,8H,7H2",
        "InChIKey": null,
        "Canonical SMILES": "O=N(=O)C1=CC=C(C(=C1)N(=O)=O)CC2=NC=CC=C2",
        "Molecular Formula": "C<sub>12</sub>H<sub>9</sub>N<sub>3</sub>O<sub>4</sub>",
        "Molecular Mass": "259.22",
        "Melting Point": "93 °C"
    }
}