{
    "cas_no": "2156-96-9",
    "key_name": "Decyl acrylate",
    "cn_name": "丙烯酸癸酯;",
    "alternate_name": "2-Propenoic acid, decyl ester;Acrylic acid, decyl ester;Decyl acrylate;NSC 5929;<em>n</em>-Decyl acrylate",
    "duplicated_cas_no": "",
    "SMILES": "C(COC(C=C)=O)CCCCCCCC",
    "meta_data": {
        "InChI": "InChI=1S/C13H24O2/c1-3-5-6-7-8-9-10-11-12-15-13(14)4-2/h4H,2-3,5-12H2,1H3",
        "InChIKey": null,
        "Canonical SMILES": "O=C(OCCCCCCCCCC)C=C",
        "Molecular Formula": "C<sub>13</sub>H<sub>24</sub>O<sub>2</sub>",
        "Molecular Mass": "212.33",
        "Boiling Point": "158 °C @ Press: 50 Torr",
        "Density": "0.8781 g/cm³ @ Temp: 20 °C"
    }
}