{
    "cas_no": "619-84-1",
    "key_name": "4-(Dimethylamino)benzoic acid",
    "cn_name": "4-二甲氨基苯甲酸;",
    "alternate_name": "Benzoic acid, 4-(dimethylamino)-;Benzoic acid, <em>p</em>-(dimethylamino)-;4-(Dimethylamino)benzoic acid;<em>p</em>-(Dimethylamino)benzoic acid;<em>N</em>,<em>N</em>-Dimethyl-4-aminobenzoic acid;<em>N</em>,<em>N</em>-Dimethyl-<em>p</em>-aminobenzoic acid;4-(<em>N</em>,<em>N</em>-Dimethylamino)benzoic acid;NSC 16596",
    "duplicated_cas_no": "2764684-57-1",
    "SMILES": "C(O)(=O)C1=CC=C(N(C)C)C=C1",
    "meta_data": {
        "InChI": "InChI=1S/C9H11NO2/c1-10(2)8-5-3-7(4-6-8)9(11)12/h3-6H,1-2H3,(H,11,12)",
        "InChIKey": null,
        "Canonical SMILES": "O=C(O)C1=CC=C(C=C1)N(C)C",
        "Molecular Formula": "C<sub>9</sub>H<sub>11</sub>NO<sub>2</sub>",
        "Molecular Mass": "165.19",
        "Boiling Point": "180 °C @ Press: 1.8 Torr",
        "Melting Point": "242.5 °C",
        "Density": "0.9897 g/cm³ @ Temp: 16 °C"
    }
}