{
    "cas_no": "1731-79-9",
    "key_name": "1,12-Dimethyl dodecanedioate",
    "cn_name": "十二烷二酸二甲酯;",
    "alternate_name": "Dodecanedioic acid, 1,12-dimethyl ester;Dodecanedioic acid, dimethyl ester;1,12-Dimethyl dodecanedioate;Dimethyl dodecanedioate;Dimethyl 1,12-dodecanedioate;Dimethyl 1,10-decanedicarboxylate;1,10-Decanedicarboxylic acid dimethyl ester;Dimethyl decamethylenedicarboxylate;DMD 2;NSC 118878",
    "duplicated_cas_no": "",
    "SMILES": "C(CCCCCCCCCCC(OC)=O)(OC)=O",
    "meta_data": {
        "InChI": "InChI=1S/C14H26O4/c1-17-13(15)11-9-7-5-3-4-6-8-10-12-14(16)18-2/h3-12H2,1-2H3",
        "InChIKey": null,
        "Canonical SMILES": "O=C(OC)CCCCCCCCCCC(=O)OC",
        "Molecular Formula": "C<sub>14</sub>H<sub>26</sub>O<sub>4</sub>",
        "Molecular Mass": "258.35",
        "Boiling Point": "17.5-17.7 °C @ Press: 10 Torr",
        "Melting Point": "31.9 °C"
    }
}