{
    "cas_no": "53911-68-5",
    "key_name": "4-(4-Chlorophenyl)dihydro-2<em>H</em>-pyran-2,6(3<em>H</em>)-dione",
    "cn_name": null,
    "alternate_name": "2<em>H</em>-Pyran-2,6(3<em>H</em>)-dione, 4-(4-chlorophenyl)dihydro-;Glutaric anhydride, 3-(<em>p</em>-chlorophenyl)-;4-(4-Chlorophenyl)dihydro-2<em>H</em>-pyran-2,6(3<em>H</em>)-dione;3-(<em>p</em>-Chlorophenyl)glutaric anhydride;3-(4-Chlorophenyl)glutaric anhydride",
    "duplicated_cas_no": "",
    "SMILES": "O=C1CC(CC(=O)O1)C2=CC=C(Cl)C=C2",
    "meta_data": {
        "InChI": "InChI=1S/C11H9ClO3/c12-9-3-1-7(2-4-9)8-5-10(13)15-11(14)6-8/h1-4,8H,5-6H2",
        "InChIKey": null,
        "Canonical SMILES": "O=C1OC(=O)CC(C2=CC=C(Cl)C=C2)C1",
        "Molecular Formula": "C<sub>11</sub>H<sub>9</sub>ClO<sub>3</sub>",
        "Molecular Mass": "224.64",
        "Melting Point": "131-133 °C"
    }
}