{
    "cas_no": "222530-33-8",
    "key_name": "<em>rel</em>-(1<em>R</em>,3<em>S</em>)-3-[[(1,1-Dimethylethoxy)carbonyl]amino]cyclohexanecarboxylic acid",
    "cn_name": null,
    "alternate_name": "Cyclohexanecarboxylic acid, 3-[[(1,1-dimethylethoxy)carbonyl]amino]-, (1<em>R</em>,3<em>S</em>)-<em>rel</em>-;<em>rel</em>-(1<em>R</em>,3<em>S</em>)-3-[[(1,1-Dimethylethoxy)carbonyl]amino]cyclohexanecarboxylic acid;<em>rel</em>-(1<em>R</em>,3<em>S</em>)-3-[(<em>tert</em>-Butoxycarbonyl)amino]cyclohexanecarboxylic acid;<em>cis</em>-3-(<em>tert</em>-Butoxycarbonylamino)cyclohexanecarboxylic acid;<em>cis</em>-3-((<em>tert</em>-Butoxycarbonyl)amino)cyclohexane-1-carboxylic acid",
    "duplicated_cas_no": "2098565-14-9",
    "SMILES": "N(C(OC(C)(C)C)=O)[C@H]1C[C@@H](C(O)=O)CCC1",
    "meta_data": {
        "InChI": "InChI=1/C12H21NO4/c1-12(2,3)17-11(16)13-9-6-4-5-8(7-9)10(14)15/h8-9H,4-7H2,1-3H3,(H,13,16)(H,14,15)/t8-,9+/s2",
        "InChIKey": null,
        "Canonical SMILES": "O=C(OC(C)(C)C)NC1CCCC(C(=O)O)C1",
        "Molecular Formula": "C<sub>12</sub>H<sub>21</sub>NO<sub>4</sub>",
        "Molecular Mass": "243.30",
        "Melting Point": "136-138 °C"
    }
}