{
    "cas_no": "99-73-0",
    "key_name": "4-Bromophenacyl bromide",
    "cn_name": "2,4\"-二溴苯乙酮;对溴苯乙酰溴;",
    "alternate_name": "Ethanone, 2-bromo-1-(4-bromophenyl)-;Acetophenone, 2,4′-dibromo-;2-Bromo-1-(4-bromophenyl)ethanone;<em>p</em>-Bromophenacyl bromide;<em>p</em>,α-Dibromoacetophenone;2,4′-Dibromoacetophenone;α,<em>p</em>-Dibromoacetophenone;4-Bromophenacyl bromide;2-Bromo-4′-bromoacetophenone;Bromomethyl <em>p</em>-bromophenyl ketone;ω,4-Dibromoacetophenone;Bromomethyl 4-bromophenyl ketone;4,α-Dibromoacetophenone;2-Bromo-1-(4-bromophenyl)-1-ethanone;α-Bromo-4-bromoacetophenone;α,4-Dibromoacetophenone;α-Bromo-<em>p</em>-bromoacetophenone;4-Bromo(bromoacetyl)benzene;NSC 6224;α,4′-Dibromoacetophenone;2-(4-Bromophenyl)-2-oxoethyl bromide;GSK-3β Inhibitor VII;GSK 3 inhibitor VII;4′,2-Dibromoacetophenone",
    "duplicated_cas_no": "",
    "SMILES": "C(CBr)(=O)C1=CC=C(Br)C=C1",
    "meta_data": {
        "InChI": "InChI=1S/C8H6Br2O/c9-5-8(11)6-1-3-7(10)4-2-6/h1-4H,5H2",
        "InChIKey": null,
        "Canonical SMILES": "O=C(C1=CC=C(Br)C=C1)CBr",
        "Molecular Formula": "C<sub>8</sub>H<sub>6</sub>Br<sub>2</sub>O",
        "Molecular Mass": "277.94",
        "Boiling Point": "53-55 °C @ Press: 30 Torr",
        "Melting Point": "111 °C"
    }
}