{
    "cas_no": "6284-79-3",
    "key_name": "3,4-Dichlorobenzophenone",
    "cn_name": "3,4-二氯二苯甲酮;",
    "alternate_name": "Methanone, (3,4-dichlorophenyl)phenyl-;Benzophenone, 3,4-dichloro-;(3,4-Dichlorophenyl)phenylmethanone;3,4-Dichlorobenzophenone;3,4-Dichlorophenyl phenyl ketone;Phenyl 3,4-dichlorophenyl ketone;NSC 5249;(3,4-Dichlorophenyl)(phenyl)methanone",
    "duplicated_cas_no": "",
    "SMILES": "C(=O)(C1=CC(Cl)=C(Cl)C=C1)C2=CC=CC=C2",
    "meta_data": {
        "InChI": "InChI=1S/C13H8Cl2O/c14-11-7-6-10(8-12(11)15)13(16)9-4-2-1-3-5-9/h1-8H",
        "InChIKey": null,
        "Canonical SMILES": "O=C(C=1C=CC=CC1)C2=CC=C(Cl)C(Cl)=C2",
        "Molecular Formula": "C<sub>13</sub>H<sub>8</sub>Cl<sub>2</sub>O",
        "Molecular Mass": "251.11",
        "Melting Point": "102-103 °C"
    }
}