{
    "cas_no": "74852-62-3",
    "key_name": "4-[4-(4-Methoxyphenyl)-1-piperazinyl]benzenamine",
    "cn_name": "1-(4-氨基苯基)-4-(4-甲氧基苯基)哌嗪;",
    "alternate_name": "Benzenamine, 4-[4-(4-methoxyphenyl)-1-piperazinyl]-;4-[4-(4-Methoxyphenyl)-1-piperazinyl]benzenamine;1-(4-Aminophenyl)-4-(4-methoxyphenyl)piperazine;4-(4-(4-Methoxyphenyl)piperazin-1-yl)aniline",
    "duplicated_cas_no": "",
    "SMILES": "O(C)C1=CC=C(N2CCN(CC2)C3=CC=C(N)C=C3)C=C1",
    "meta_data": {
        "InChI": "InChI=1S/C17H21N3O/c1-21-17-8-6-16(7-9-17)20-12-10-19(11-13-20)15-4-2-14(18)3-5-15/h2-9H,10-13,18H2,1H3",
        "InChIKey": null,
        "Canonical SMILES": "O(C1=CC=C(C=C1)N2CCN(C3=CC=C(N)C=C3)CC2)C",
        "Molecular Formula": "C<sub>17</sub>H<sub>21</sub>N<sub>3</sub>O",
        "Molecular Mass": "283.37",
        "Melting Point": "175-180 °C (decomp)"
    }
}