{
    "cas_no": "1004-76-8",
    "key_name": "4,5-Diamino-6-hydroxy-2-mercaptopyrimidine",
    "cn_name": "2-巯基-4-羟基-5,6-二氨基嘧啶;4,5-二氨基-6-羟基-2-巯基嘧啶;",
    "alternate_name": "4(1<em>H</em>)-Pyrimidinone, 5,6-diamino-2,3-dihydro-2-thioxo-;Uracil, 5,6-diamino-2-thio-;5,6-Diamino-2,3-dihydro-2-thioxo-4(1<em>H</em>)-pyrimidinone;4,5-Diamino-6-hydroxy-2-mercaptopyrimidine;2-Mercapto-4,5-diamino-6-hydroxypyrimidine;5,6-Diamino-2-thiouracil;NSC 147804;NSC 45759;4,5-Diamino-2-mercaptopyrimidin-6-ol;5,6-Diamino-4-hydroxy-2-mercaptopyrimidine;5,6-Diamino-2-mercapto-1<em>H</em>-pyrimidin-4-one;5,6-Diamino-2-mercaptopyrimidin-4-ol",
    "duplicated_cas_no": "20744-84-7",
    "SMILES": "NC1=C(N)NC(=S)NC1=O",
    "meta_data": {
        "InChI": "InChI=1S/C4H6N4OS/c5-1-2(6)7-4(10)8-3(1)9/h5H2,(H4,6,7,8,9,10)",
        "InChIKey": null,
        "Canonical SMILES": "O=C1NC(=S)NC(N)=C1N",
        "Molecular Formula": "C<sub>4</sub>H<sub>6</sub>N<sub>4</sub>OS",
        "Molecular Mass": "158.18",
        "Melting Point": "&gt;240 °C"
    }
}