{
    "cas_no": "103-36-6",
    "key_name": "Ethyl cinnamate",
    "cn_name": "肉桂酸乙酯;",
    "alternate_name": "2-Propenoic acid, 3-phenyl-, ethyl ester;Cinnamic acid, ethyl ester;Ethyl cinnamate;Ethyl 3-phenylacrylate;Ethyl 3-phenyl-2-propenoate;Ethyl benzylideneacetate;3-Phenyl-2-propenoic acid ethyl ester;NSC 6773;SemaSORB 9827",
    "duplicated_cas_no": "403649-38-7",
    "SMILES": "C(=CC(OCC)=O)C1=CC=CC=C1",
    "meta_data": {
        "InChI": "InChI=1S/C11H12O2/c1-2-13-11(12)9-8-10-6-4-3-5-7-10/h3-9H,2H2,1H3",
        "InChIKey": null,
        "Canonical SMILES": "O=C(OCC)C=CC=1C=CC=CC1",
        "Molecular Formula": "C<sub>11</sub>H<sub>12</sub>O<sub>2</sub>",
        "Molecular Mass": "176.21",
        "Boiling Point": "271 °C",
        "Melting Point": "7 °C",
        "Density": "1.0490 g/cm³ @ Temp: 20 °C"
    }
}