{
    "cas_no": "94-75-7",
    "key_name": "(2,4-Dichlorophenoxy)acetic acid",
    "cn_name": "2,4-二氯苯氧乙酸;",
    "alternate_name": "Acetic acid, 2-(2,4-dichlorophenoxy)-;Acetic acid, (2,4-dichlorophenoxy)-;2-(2,4-Dichlorophenoxy)acetic acid;2,4-D;2,4-D Acid;2,4-Dichlorphenoxyacetic acid;Hedonal (herbicide);Pielik;Vidon 638;(2,4-Dichlorophenoxy)acetic acid;Dichlorophenoxyacetic acid;Foredex 75;Verton 2D;B-Selektonon;Dicopur;Fernimine;Netagrone;Ipaner;2,4-PA;Hedonal;Diclordon;2,4-Dichlorophenoxyethanoic acid;Mota Maskros;SDMA;Deherban;Basalcoat;Amoxone;Aminopielik 50SL;Monosan herbi;Desormone;Tiller S;NSC 190751;NSC 2925;Esterone;Isadiamineyeom;Dezormon;Huragan;HM 2010;Unison;Barrage HF;Profiamina;Invesamina 480SL;2-(2,4-Dichlorophenoxy)acetate",
    "duplicated_cas_no": "15183-39-8",
    "SMILES": "O(CC(O)=O)C1=C(Cl)C=C(Cl)C=C1",
    "meta_data": {
        "InChI": "InChI=1S/C8H6Cl2O3/c9-5-1-2-7(6(10)3-5)13-4-8(11)12/h1-3H,4H2,(H,11,12)",
        "InChIKey": null,
        "Canonical SMILES": "O=C(O)COC1=CC=C(Cl)C=C1Cl",
        "Molecular Formula": "C<sub>8</sub>H<sub>6</sub>Cl<sub>2</sub>O<sub>3</sub>",
        "Molecular Mass": "221.04",
        "Boiling Point": "160 °C @ Press: 0.4 Torr",
        "Melting Point": "138 °C",
        "Density": "1.42 g/cm³ @ Temp: 25 °C"
    }
}