{
    "cas_no": "2503-56-2",
    "key_name": "4-Hydroxy-6-methyl-1,3,3a,7-tetraazaindene",
    "cn_name": null,
    "alternate_name": "[1,2,4]Triazolo[1,5-<em>a</em>]pyrimidin-7-ol, 5-methyl-;<em>s</em>-Triazolo[1,5-<em>a</em>]pyrimidin-7-ol, 5-methyl-;5-Methyl[1,2,4]triazolo[1,5-<em>a</em>]pyrimidin-7-ol;5-Methyl-<em>s</em>-triazolo[1,5-<em>a</em>]pyrimidin-7-ol;1,3,7-Triaza-4-hydroxy-6-methylindolizine;5-Methyl-7-hydroxy-1,3,4-triazaindolizine;7-Hydroxy-5-methyl-1,3,4-triazaindolizine;5-Methyl-7-hydroxy-1,2,4-triazolo[1,5-<em>a</em>]pyrimidine;7-Hydroxy-5-methyl-<em>s</em>-triazolo[1,5-<em>a</em>]pyrimidine;4-Hydroxy-6-methyl-1,2,4-triazolo[2,3-<em>a</em>]pyrimidine;5-Methyl-7-hydroxy-<em>s</em>-triazolo[1,5-<em>a</em>]pyrimidine;6-Methyl-4-hydroxy-1,3,3a,7-tetraazaindene;TAI (sensitizer);TAI;4-Hydroxy-6-methyl-1,3,3a,7-tetraazaindene;4-Hydroxy-6-methyl-1,3,3a,7-tetrazaindene;Stabilizer 583;5-Methyl-[1,2,4]triazolo[1,5-<em>a</em>]pyrimidin-7-ol;NSC 32071;NSC 511493;5-Methyl-1,2,4-triazolo-(1,5-a) pyrimidine-7-ol",
    "duplicated_cas_no": "112801-35-1;115054-48-3;71410-81-6",
    "SMILES": "OC=1N2C(N=C(C)C1)=NC=N2",
    "meta_data": {
        "InChI": "InChI=1S/C6H6N4O/c1-4-2-5(11)10-6(9-4)7-3-8-10/h2-3,11H,1H3",
        "InChIKey": null,
        "Canonical SMILES": "OC1=CC(=NC2=NC=NN21)C",
        "Molecular Formula": "C<sub>6</sub>H<sub>6</sub>N<sub>4</sub>O",
        "Molecular Mass": "150.14",
        "Melting Point": "227-229 °C"
    }
}