{
    "cas_no": "29450-07-5",
    "key_name": "2-(2-Pyridinyloxy)ethanamine",
    "cn_name": null,
    "alternate_name": "Ethanamine, 2-(2-pyridinyloxy)-;Pyridine, 2-(2-aminoethoxy)-;2-(2-Pyridinyloxy)ethanamine;2-(2-Pyridyloxy)ethylamine;2-(Pyridin-2-yloxy)ethylamine;NSC 91884;2-(2-Pyridyloxy)ethanamine;2-(2-Aminoethoxy)pyridine",
    "duplicated_cas_no": "",
    "SMILES": "O(CCN)C1=CC=CC=N1",
    "meta_data": {
        "InChI": "InChI=1S/C7H10N2O/c8-4-6-10-7-3-1-2-5-9-7/h1-3,5H,4,6,8H2",
        "InChIKey": null,
        "Canonical SMILES": "N=1C=CC=CC1OCCN",
        "Molecular Formula": "C<sub>7</sub>H<sub>10</sub>N<sub>2</sub>O",
        "Molecular Mass": "138.17",
        "Boiling Point": "238 °C",
        "Melting Point": "216-222 °C"
    }
}