{
    "cas_no": "93917-68-1",
    "key_name": "Ethyl 2-(2-methylphenoxy)acetate",
    "cn_name": "2-甲基苯氧基醋酸乙酯;",
    "alternate_name": "Acetic acid, 2-(2-methylphenoxy)-, ethyl ester;Acetic acid, (2-methylphenoxy)-, ethyl ester;Acetic acid, <em>o</em>-tolyloxy-, ethyl ester;Ethyl 2-(2-methylphenoxy)acetate;Ethyl (2-methylphenoxy)acetate;(2-Methylphenoxy)acetic acid ethyl ester;Ethyl 2-(<em>o</em>-tolyloxy)acetate",
    "duplicated_cas_no": "",
    "SMILES": "O(CC(OCC)=O)C1=C(C)C=CC=C1",
    "meta_data": {
        "InChI": "InChI=1S/C11H14O3/c1-3-13-11(12)8-14-10-7-5-4-6-9(10)2/h4-7H,3,8H2,1-2H3",
        "InChIKey": null,
        "Canonical SMILES": "O=C(OCC)COC=1C=CC=CC1C",
        "Molecular Formula": "C<sub>11</sub>H<sub>14</sub>O<sub>3</sub>",
        "Molecular Mass": "194.23",
        "Boiling Point": "258-260 °C"
    }
}