{
    "cas_no": "94166-58-2",
    "key_name": "6-Methoxy-<em>N</em>-methyl-3-nitro-2-pyridinamine",
    "cn_name": "2-甲氨基-3-硝基-6-甲氧基吡啶;",
    "alternate_name": "2-Pyridinamine, 6-methoxy-<em>N</em>-methyl-3-nitro-;6-Methoxy-<em>N</em>-methyl-3-nitro-2-pyridinamine;6-Methoxy-2-methylamino-3-nitropyridine;6-Methoxy-<em>N</em>-methyl-3-nitropyridin-2-amine;2-Methylamino-3-nitro-6-methoxypyridine",
    "duplicated_cas_no": "",
    "SMILES": "N(C)C1=C(N(=O)=O)C=CC(OC)=N1",
    "meta_data": {
        "InChI": "InChI=1S/C7H9N3O3/c1-8-7-5(10(11)12)3-4-6(9-7)13-2/h3-4H,1-2H3,(H,8,9)",
        "InChIKey": null,
        "Canonical SMILES": "O=N(=O)C1=CC=C(N=C1NC)OC",
        "Molecular Formula": "C<sub>7</sub>H<sub>9</sub>N<sub>3</sub>O<sub>3</sub>",
        "Molecular Mass": "183.16",
        "Melting Point": "152-153 °C"
    }
}