{
    "cas_no": "4920-80-3",
    "key_name": "3-Methoxy-2-nitrobenzoic acid",
    "cn_name": "3-甲氧基-2-硝基苯甲酸;",
    "alternate_name": "Benzoic acid, 3-methoxy-2-nitro-;<em>m</em>-Anisic acid, 2-nitro-;3-Methoxy-2-nitrobenzoic acid;2-Nitro-3-methoxybenzoic acid;NSC 609",
    "duplicated_cas_no": "",
    "SMILES": "N(=O)(=O)C1=C(C(O)=O)C=CC=C1OC",
    "meta_data": {
        "InChI": "InChI=1S/C8H7NO5/c1-14-6-4-2-3-5(8(10)11)7(6)9(12)13/h2-4H,1H3,(H,10,11)",
        "InChIKey": null,
        "Canonical SMILES": "O=C(O)C=1C=CC=C(OC)C1N(=O)=O",
        "Molecular Formula": "C<sub>8</sub>H<sub>7</sub>NO<sub>5</sub>",
        "Molecular Mass": "197.14",
        "Melting Point": "162-163 °C"
    }
}