{
    "cas_no": "106-02-5",
    "key_name": "Pentadecalactone",
    "cn_name": "环十五内酯;",
    "alternate_name": "Oxacyclohexadecan-2-one;Pentadecanoic acid, 15-hydroxy-, ξ-lactone;Exaltolide;Pentadecanolide;Thibetolide;Pentadecalactone;1,15-Pentadecanolide;Cyclopentadecanolide;2-Pentadecalone;Muskalactone;15-Pentadecanolide;Pentadecanolactone;Pentalide;15-Hydroxypentadecanoic acid lactone;1-Oxacyclohexadecan-2-one;NSC 36763;CPE 215;cpd Supra;ω-Pentadecalactone;Macrolide Supra;15-Pentadecanolactone",
    "duplicated_cas_no": "81031-90-5",
    "SMILES": "O=C1CCCCCCCCCCCCCCO1",
    "meta_data": {
        "InChI": "InChI=1S/C15H28O2/c16-15-13-11-9-7-5-3-1-2-4-6-8-10-12-14-17-15/h1-14H2",
        "InChIKey": null,
        "Canonical SMILES": "O=C1OCCCCCCCCCCCCCC1",
        "Molecular Formula": "C<sub>15</sub>H<sub>28</sub>O<sub>2</sub>",
        "Molecular Mass": "240.38",
        "Boiling Point": "176 °C",
        "Melting Point": "32 °C"
    }
}