{
    "cas_no": "543906-09-8",
    "key_name": "Mavoglurant",
    "cn_name": null,
    "alternate_name": "1<em>H</em>-Indole-1-carboxylic acid, octahydro-4-hydroxy-4-[2-(3-methylphenyl)ethynyl]-, methyl ester, (3a<em>R</em>,4<em>S</em>,7a<em>R</em>)-;1<em>H</em>-Indole-1-carboxylic acid, octahydro-4-hydroxy-4-[(3-methylphenyl)ethynyl]-, methyl ester, (3a<em>R</em>,4<em>S</em>,7a<em>R</em>)-;Mavoglurant;AFQ 056",
    "duplicated_cas_no": "",
    "SMILES": "C(#CC1=CC(C)=CC=C1)[C@@]2(O)[C@]3([C@](N(C(OC)=O)CC3)(CCC2)[H])[H]",
    "meta_data": {
        "InChI": "InChI=1S/C19H23NO3/c1-14-5-3-6-15(13-14)8-11-19(22)10-4-7-17-16(19)9-12-20(17)18(21)23-2/h3,5-6,13,16-17,22H,4,7,9-10,12H2,1-2H3/t16-,17-,19-/m1/s1",
        "InChIKey": null,
        "Canonical SMILES": "O=C(OC)N1CCC2C1CCCC2(O)C#CC3=CC=CC(=C3)C",
        "Molecular Formula": "C<sub>19</sub>H<sub>23</sub>NO<sub>3</sub>",
        "Molecular Mass": "313.39",
        "Melting Point": "110-112 °C"
    }
}