{
    "cas_no": "3445-52-1",
    "key_name": "5-Methyl-3-isoxazolecarboxamide",
    "cn_name": "5-甲基异噁唑-3-酰氨;",
    "alternate_name": "3-Isoxazolecarboxamide, 5-methyl-;5-Methyl-3-isoxazolecarboxamide;NSC 18369;3-Carbamoyl-5-methylisoxazole",
    "duplicated_cas_no": "",
    "SMILES": "C(N)(=O)C=1C=C(C)ON1",
    "meta_data": {
        "InChI": "InChI=1S/C5H6N2O2/c1-3-2-4(5(6)8)7-9-3/h2H,1H3,(H2,6,8)",
        "InChIKey": null,
        "Canonical SMILES": "O=C(N)C1=NOC(=C1)C",
        "Molecular Formula": "C<sub>5</sub>H<sub>6</sub>N<sub>2</sub>O<sub>2</sub>",
        "Molecular Mass": "126.11",
        "Melting Point": "166-168 °C"
    }
}