{
    "cas_no": "67120-39-2",
    "key_name": "1-Amino-5-chloroindane",
    "cn_name": null,
    "alternate_name": "1<em>H</em>-Inden-1-amine, 5-chloro-2,3-dihydro-;1-Indanamine, 5-chloro-;5-Chloro-2,3-dihydro-1<em>H</em>-inden-1-amine;5-Chloro-1-aminoindan;1-Amino-5-chloroindan;(5-Chloro-2,3-dihydro-1<em>H</em>-inden-1-yl)amine;(5-Chloroindan-1-yl)amine;1-Amino-5-chloroindane;5-Chloroindan-1-amine",
    "duplicated_cas_no": "",
    "SMILES": "NC1C=2C(CC1)=CC(Cl)=CC2",
    "meta_data": {
        "InChI": "InChI=1S/C9H10ClN/c10-7-2-3-8-6(5-7)1-4-9(8)11/h2-3,5,9H,1,4,11H2",
        "InChIKey": null,
        "Canonical SMILES": "ClC1=CC=C2C(=C1)CCC2N",
        "Molecular Formula": "C<sub>9</sub>H<sub>10</sub>ClN",
        "Molecular Mass": "167.64",
        "Boiling Point": "85 °C @ Press: 0.5 Torr"
    }
}