{
    "cas_no": "1003-56-1",
    "key_name": "2-Hydroxy-3-methylpyridine",
    "cn_name": "2-羟基-3-甲基吡啶;",
    "alternate_name": "2(1<em>H</em>)-Pyridinone, 3-methyl-;2(1<em>H</em>)-Pyridone, 3-methyl-;3-Methyl-2(1<em>H</em>)-pyridinone;3-Methyl-2(1<em>H</em>)-pyridone;2-Hydroxy-3-methylpyridine;3-Methyl-2-pyridinol;NSC 4343;3-Methyl-1<em>H</em>-pyridin-2-one;3-Methyl-2-pyridinone;3-Methyl-1,2-dihydropyridin-2-one",
    "duplicated_cas_no": "",
    "SMILES": "CC=1C(=O)NC=CC1",
    "meta_data": {
        "InChI": "InChI=1S/C6H7NO/c1-5-3-2-4-7-6(5)8/h2-4H,1H3,(H,7,8)",
        "InChIKey": null,
        "Canonical SMILES": "O=C1NC=CC=C1C",
        "Molecular Formula": "C<sub>6</sub>H<sub>7</sub>NO",
        "Molecular Mass": "109.13",
        "Boiling Point": "289 °C",
        "Melting Point": "141.5 °C"
    }
}