{
    "cas_no": "57526-28-0",
    "key_name": "Methylbutyryl chloride",
    "cn_name": "2-甲基丁酰氯;",
    "alternate_name": "Butanoyl chloride, 2-methyl-;Butanoyl chloride, 2-methyl-, (±)-;2-Methylbutanoyl chloride;<em>dl</em>-2-Methylbutyryl chloride;(<em>RS</em>)-2-Methylbutanoyl chloride;(<span class=\"text-smallcaps\">DL</span>)-2-Methylbutanoyl chloride;2-Methylbutyryl chloride;α-Methylbutyryl chloride;2-Ethylpropanoyl chloride;2-Methylbutyric acid chloride;(±)-2-Methylbutyryl chloride;Methylbutyryl chloride",
    "duplicated_cas_no": "5856-79-1",
    "SMILES": "C(C(Cl)=O)(CC)C",
    "meta_data": {
        "InChI": "InChI=1S/C5H9ClO/c1-3-4(2)5(6)7/h4H,3H2,1-2H3",
        "InChIKey": null,
        "Canonical SMILES": "O=C(Cl)C(C)CC",
        "Molecular Formula": "C<sub>5</sub>H<sub>9</sub>ClO",
        "Molecular Mass": "120.58",
        "Boiling Point": "116 °C",
        "Density": "0.990 g/cm³ @ Temp: 24 °C"
    }
}