{
    "cas_no": "1160-54-9",
    "key_name": "(Benzyloxycarbonyl)glycyl-<span class=\"text-smallcaps\">L</span>-proline",
    "cn_name": null,
    "alternate_name": "<span class=\"text-smallcaps\">L</span>-Proline, <em>N</em>-[(phenylmethoxy)carbonyl]glycyl-;Proline, 1-(<em>N</em>-carboxyglycyl)-, <em>N</em>-benzyl ester, <span class=\"text-smallcaps\">L</span>-;<span class=\"text-smallcaps\">L</span>-Proline, 1-[<em>N</em>-[(phenylmethoxy)carbonyl]glycyl]-;<em>N</em>-[(Phenylmethoxy)carbonyl]glycyl-<span class=\"text-smallcaps\">L</span>-proline;Carbobenzoxyglycyl-<span class=\"text-smallcaps\">L</span>-proline;(Benzyloxycarbonyl)glycyl-<span class=\"text-smallcaps\">L</span>-proline;NSC 89634;Cbz-gly-pro-oh",
    "duplicated_cas_no": "",
    "SMILES": "C(CNC(OCC1=CC=CC=C1)=O)(=O)N2[C@H](C(O)=O)CCC2",
    "meta_data": {
        "InChI": "InChI=1S/C15H18N2O5/c18-13(17-8-4-7-12(17)14(19)20)9-16-15(21)22-10-11-5-2-1-3-6-11/h1-3,5-6,12H,4,7-10H2,(H,16,21)(H,19,20)/t12-/m0/s1",
        "InChIKey": null,
        "Canonical SMILES": "O=C(OCC=1C=CC=CC1)NCC(=O)N2CCCC2C(=O)O",
        "Molecular Formula": "C<sub>15</sub>H<sub>18</sub>N<sub>2</sub>O<sub>5</sub>",
        "Molecular Mass": "306.31",
        "Melting Point": "156 °C"
    }
}