{
    "cas_no": "4286-55-9",
    "key_name": "6-Bromo-1-hexanol",
    "cn_name": "6-溴正己醇;",
    "alternate_name": "1-Hexanol, 6-bromo-;6-Bromo-1-hexanol;1-Bromo-6-hydroxyhexane;6-Hydroxyhexyl bromide;6-Bromohexyl alcohol;ω-Bromo-1-hexanol;1-Bromo-6-hexanol",
    "duplicated_cas_no": "",
    "SMILES": "C(CCCO)CCBr",
    "meta_data": {
        "InChI": "InChI=1S/C6H13BrO/c7-5-3-1-2-4-6-8/h8H,1-6H2",
        "InChIKey": null,
        "Canonical SMILES": "BrCCCCCCO",
        "Molecular Formula": "C<sub>6</sub>H<sub>13</sub>BrO",
        "Molecular Mass": "181.07",
        "Boiling Point": "105-106 °C @ Press: 5 Torr",
        "Density": "1.3838 g/cm³ @ Temp: 24 °C"
    }
}