{
    "cas_no": "352-70-5",
    "key_name": "3-Fluorotoluene",
    "cn_name": "3-氟甲苯;间氟甲苯;",
    "alternate_name": "Benzene, 1-fluoro-3-methyl-;Toluene, <em>m</em>-fluoro-;1-Fluoro-3-methylbenzene;<em>m</em>-Fluorotoluene;3-Fluorotoluene;NSC 8860",
    "duplicated_cas_no": "",
    "SMILES": "CC1=CC(F)=CC=C1",
    "meta_data": {
        "InChI": "InChI=1S/C7H7F/c1-6-3-2-4-7(8)5-6/h2-5H,1H3",
        "InChIKey": null,
        "Canonical SMILES": "FC1=CC=CC(=C1)C",
        "Molecular Formula": "C<sub>7</sub>H<sub>7</sub>F",
        "Molecular Mass": "110.13",
        "Boiling Point": "115 °C",
        "Melting Point": "-87 °C",
        "Density": "0.9972 g/cm³ @ Temp: 13.4 °C"
    }
}