{
    "cas_no": "1118-69-0",
    "key_name": "Isopropylacetamide",
    "cn_name": null,
    "alternate_name": "Acetamide, <em>N</em>-(1-methylethyl)-;Acetamide, <em>N</em>-isopropyl-;<em>N</em>-(1-Methylethyl)acetamide;Isopropylacetamide;<em>N</em>-Isopropylacetamide;2-Acetamidopropane;NSC 44147",
    "duplicated_cas_no": "",
    "SMILES": "N(C(C)C)C(C)=O",
    "meta_data": {
        "InChI": "InChI=1S/C5H11NO/c1-4(2)6-5(3)7/h4H,1-3H3,(H,6,7)",
        "InChIKey": null,
        "Canonical SMILES": "O=C(NC(C)C)C",
        "Molecular Formula": "C<sub>5</sub>H<sub>11</sub>NO",
        "Molecular Mass": "101.15",
        "Boiling Point": "219.5-224 °C",
        "Density": "0.912 g/cm³ @ Temp: 25 °C"
    }
}