{
    "cas_no": "2441-41-0",
    "key_name": "<em>N</em>-Palmitoylglycine",
    "cn_name": "棕榈酰甘氨酸;棕榈酰甘氨酸;",
    "alternate_name": "Glycine, <em>N</em>-(1-oxohexadecyl)-;Glycine, <em>N</em>-palmitoyl-;<em>N</em>-(1-Oxohexadecyl)glycine;Palmitylglycine;<em>N</em>-Palmitoylglycine;<em>N</em>-Hexadecanoyl-glycine;2-(Hexadecanoylamino)acetic acid",
    "duplicated_cas_no": "",
    "SMILES": "C(CCCCCCCCCCCCCC)C(NCC(O)=O)=O",
    "meta_data": {
        "InChI": "InChI=1S/C18H35NO3/c1-2-3-4-5-6-7-8-9-10-11-12-13-14-15-17(20)19-16-18(21)22/h2-16H2,1H3,(H,19,20)(H,21,22)",
        "InChIKey": null,
        "Canonical SMILES": "O=C(O)CNC(=O)CCCCCCCCCCCCCCC",
        "Molecular Formula": "C<sub>18</sub>H<sub>35</sub>NO<sub>3</sub>",
        "Molecular Mass": "313.48",
        "Melting Point": "121 °C"
    }
}