{
    "cas_no": "543-15-7",
    "key_name": "Heptaminol hydrochloride",
    "cn_name": null,
    "alternate_name": "2-Heptanol, 6-amino-2-methyl-, hydrochloride (1:1);2-Heptanol, 6-amino-2-methyl-, hydrochloride;RP 2831;6-Amino-2-methyl-2-heptanol hydrochloride;Cardiosintol;Cortensor;Heptaminol hydrochloride;Heptamyl hydrochloride;2-Methyl-6-amino-2-heptanol hydrochloride;6-Methyl-2-amino-6-heptanol hydrochloride;Izoktamil;Heptamyl;Heptylon;2831RP;Isoktamil;Eoden;Corasor;Respirin",
    "duplicated_cas_no": "53572-44-4",
    "SMILES": "C(CCC(C)N)C(C)(C)O.Cl",
    "meta_data": {
        "InChI": "InChI=1S/C8H19NO.ClH/c1-7(9)5-4-6-8(2,3)10;/h7,10H,4-6,9H2,1-3H3;1H",
        "InChIKey": null,
        "Canonical SMILES": "Cl.OC(C)(C)CCCC(N)C",
        "Molecular Formula": "C<sub>8</sub>H<sub>19</sub>NO.ClH",
        "Molecular Mass": "",
        "Melting Point": "150 °C"
    }
}