{
    "cas_no": "776-99-8",
    "key_name": "(3,4-Dimethoxyphenyl)acetone",
    "cn_name": "3,4-二甲氧基苯丙酮;",
    "alternate_name": "2-Propanone, 1-(3,4-dimethoxyphenyl)-;2-Propanone, (3,4-dimethoxyphenyl)-;1-(3,4-Dimethoxyphenyl)-2-propanone;3,4-Dimethoxybenzyl methyl ketone;(3,4-Dimethoxyphenyl)acetone;NSC 16700;Veratryl acetone;1-(3,4-Dimethoxyphenyl)acetone",
    "duplicated_cas_no": "",
    "SMILES": "O(C)C1=C(OC)C=C(CC(C)=O)C=C1",
    "meta_data": {
        "InChI": "InChI=1S/C11H14O3/c1-8(12)6-9-4-5-10(13-2)11(7-9)14-3/h4-5,7H,6H2,1-3H3",
        "InChIKey": null,
        "Canonical SMILES": "O=C(C)CC1=CC=C(OC)C(OC)=C1",
        "Molecular Formula": "C<sub>11</sub>H<sub>14</sub>O<sub>3</sub>",
        "Molecular Mass": "194.23",
        "Boiling Point": "198 °C @ Press: 20 Torr",
        "Melting Point": "136-139 °C"
    }
}