{
    "cas_no": "370-98-9",
    "key_name": "<em>N</em>-Methyltyramine",
    "cn_name": null,
    "alternate_name": "Phenol, 4-[2-(methylamino)ethyl]-;Phenol, <em>p</em>-[2-(methylamino)ethyl]-;4-[2-(Methylamino)ethyl]phenol;<em>N</em>-Methyltyramine;4-Hydroxy-<em>N</em>-methylphenethylamine;<em>N</em>-Methyl-<em>p</em>-tyramine;NSC 113958;<em>N</em>-Methyl-<em>N</em>-[2-(4-hydroxyphenyl)ethyl]amine",
    "duplicated_cas_no": "28987-10-2",
    "SMILES": "C(CNC)C1=CC=C(O)C=C1",
    "meta_data": {
        "InChI": "InChI=1S/C9H13NO/c1-10-7-6-8-2-4-9(11)5-3-8/h2-5,10-11H,6-7H2,1H3",
        "InChIKey": null,
        "Canonical SMILES": "OC1=CC=C(C=C1)CCNC",
        "Molecular Formula": "C<sub>9</sub>H<sub>13</sub>NO",
        "Molecular Mass": "151.21",
        "Melting Point": "127-128 °C"
    }
}