{
    "cas_no": "5625-90-1",
    "key_name": "Dimorpholinomethane",
    "cn_name": "N,N\"-亚甲基双吗啉;",
    "alternate_name": "Morpholine, 4,4′-methylenebis-;Morpholine, 4,4′-methylenedi-;4,4′-Methylenebis[morpholine];Dimorpholinomethane;Bis(morpholino)methane;4,4′-Methylenedimorpholine;Methylenebismorpholine;<em>N</em>,<em>N</em>′-Methylenebismorpholine",
    "duplicated_cas_no": "",
    "SMILES": "C(N1CCOCC1)N2CCOCC2",
    "meta_data": {
        "InChI": "InChI=1S/C9H18N2O2/c1-5-12-6-2-10(1)9-11-3-7-13-8-4-11/h1-9H2",
        "InChIKey": null,
        "Canonical SMILES": "O1CCN(CN2CCOCC2)CC1",
        "Molecular Formula": "C<sub>9</sub>H<sub>18</sub>N<sub>2</sub>O<sub>2</sub>",
        "Molecular Mass": "186.25",
        "Boiling Point": "139-140 °C",
        "Density": "1.0494 g/cm³ @ Temp: 20 °C"
    }
}