{
    "cas_no": "17617-45-7",
    "key_name": "(-)-Picrotoxinin",
    "cn_name": "木防己苦毒宁;",
    "alternate_name": "3,6-Methano-8<em>H</em>-1,5,7-trioxacyclopenta[<em>ij</em>]cycloprop[<em>a</em>]azulene-4,8(3<em>H</em>)-dione, hexahydro-2a-hydroxy-8b-methyl-9-(1-methylethenyl)-, (1a<em>R</em>,2a<em>R</em>,3<em>S</em>,6<em>R</em>,6a<em>S</em>,8a<em>S</em>,8b<em>R</em>,9<em>R</em>)-;Picrotoxinin;3,6-Methano-8<em>H</em>-1,5,7-trioxacyclopenta[<em>ij</em>]cycloprop[<em>a</em>]azulene-4,8(3<em>H</em>)-dione, hexahydro-2a-hydroxy-8b-methyl-9-(1-methylethenyl)-, [1a<em>R</em>-(1aα,2aβ,3β,6β,6aβ,8a<em>S</em>*,8bβ,9<em>R</em>*)]-;(1a<em>R</em>,2a<em>R</em>,3<em>S</em>,6<em>R</em>,6a<em>S</em>,8a<em>S</em>,8b<em>R</em>,9<em>R</em>)-Hexahydro-2a-hydroxy-8b-methyl-9-(1-methylethenyl)-3,6-methano-8<em>H</em>-1,5,7-trioxacyclopenta[<em>ij</em>]cycloprop[<em>a</em>]azulene-4,8(3<em>H</em>)-dione;(-)-Picrotoxinin;NSC 129537",
    "duplicated_cas_no": "",
    "SMILES": "C[C@]12[C@@]34[C@](O3)(C[C@@]1(O)[C@@]5([C@H](C(C)=C)[C@]([C@]2(OC4=O)[H])(OC5=O)[H])[H])[H]",
    "meta_data": {
        "InChI": "InChI=1S/C15H16O6/c1-5(2)7-8-11(16)19-9(7)10-13(3)14(8,18)4-6-15(13,21-6)12(17)20-10/h6-10,18H,1,4H2,2-3H3/t6-,7+,8-,9-,10-,13-,14-,15+/m1/s1",
        "InChIKey": null,
        "Canonical SMILES": "O=C1OC2C3OC(=O)C45OC5CC(O)(C1C2C(=C)C)C34C",
        "Molecular Formula": "C<sub>15</sub>H<sub>16</sub>O<sub>6</sub>",
        "Molecular Mass": "292.28",
        "Melting Point": "209.5 °C"
    }
}