{
    "cas_no": "90-94-8",
    "key_name": "4,4′-Bis(dimethylamino)benzophenone",
    "cn_name": "米氏酮;4,4\"-二(N,N-二甲氨基)二苯甲酮;米蚩酮;四甲基米氏酮;",
    "alternate_name": "Methanone, bis[4-(dimethylamino)phenyl]-;Benzophenone, 4,4′-bis(dimethylamino)-;Bis[4-(dimethylamino)phenyl]methanone;4,4′-Bis(dimethylamino)benzophenone;4,4′-Bis(<em>N</em>,<em>N</em>-dimethylamino)benzophenone;Bis[<em>p</em>-(<em>N</em>,<em>N</em>-dimethylamino)phenyl] ketone;Michler's ketone;<em>p</em>,<em>p</em>′-Bis(dimethylamino)benzophenone;<em>N</em>,<em>N</em>,<em>N</em>′,<em>N</em>′-Tetramethyl-4,4′-diaminobenzophenone;Bis(4-dimethylaminophenyl) ketone;4,4′-Tetramethyldiaminobenzophenone;<em>p</em>,<em>p</em>′-Tetramethyldiaminobenzophenone;DABP;Di(<em>p</em>-dimethylamino)benzophenone;Nisso Cure MABP;S 112;S 112 (ketone);NSC 9602;Photoinitiator MK",
    "duplicated_cas_no": "1817604-20-8",
    "SMILES": "C(=O)(C1=CC=C(N(C)C)C=C1)C2=CC=C(N(C)C)C=C2",
    "meta_data": {
        "InChI": "InChI=1S/C17H20N2O/c1-18(2)15-9-5-13(6-10-15)17(20)14-7-11-16(12-8-14)19(3)4/h5-12H,1-4H3",
        "InChIKey": null,
        "Canonical SMILES": "O=C(C1=CC=C(C=C1)N(C)C)C2=CC=C(C=C2)N(C)C",
        "Molecular Formula": "C<sub>17</sub>H<sub>20</sub>N<sub>2</sub>O",
        "Molecular Mass": "268.35",
        "Melting Point": "172 °C"
    }
}