{
    "cas_no": "114-86-3",
    "key_name": "Phenformin",
    "cn_name": "苯乙双胍;",
    "alternate_name": "Imidodicarbonimidic diamide, <em>N</em>-(2-phenylethyl)-;Biguanide, 1-phenethyl-;<em>N</em>-(2-Phenylethyl)imidodicarbonimidic diamide;W 32;PEDG;β-Phenethylbiguanide;1-Phenethylbiguanide;Phenformin;Phenformine;Phenformix;Phenethylbiguanide;Cronoformin;Fenformin;Fenormin;DBI;DB-retard;Debeone;Diabis;Retardo;Dibiraf;Dibotin;Glyphen;β-PEBG;(Phenylethyl)biguanide;DB Comb.;Glukopostin;Fenfoduron;<em>N</em>-(β-Phenethyl)diguanide;1-Carbamimidamido-<em>N</em>-(2-phenylethyl)methanimidamide;1-(Diaminomethylidene)-2-(2-phenylethyl)guanidine;MeSH ID: D010629",
    "duplicated_cas_no": "",
    "SMILES": "C(CNC(NC(=N)N)=N)C1=CC=CC=C1",
    "meta_data": {
        "InChI": "InChI=1S/C10H15N5/c11-9(12)15-10(13)14-7-6-8-4-2-1-3-5-8/h1-5H,6-7H2,(H6,11,12,13,14,15)",
        "InChIKey": null,
        "Canonical SMILES": "N=C(N)NC(=N)NCCC=1C=CC=CC1",
        "Molecular Formula": "C<sub>10</sub>H<sub>15</sub>N<sub>5</sub>",
        "Molecular Mass": "205.26",
        "Melting Point": "176.5 °C",
        "Density": "1.24 g/cm³ @ Temp: 19.9 °C"
    }
}