{
    "cas_no": "696-54-8",
    "key_name": "4-Pyridinealdoxime",
    "cn_name": null,
    "alternate_name": "4-Pyridinecarboxaldehyde, oxime;Isonicotinaldehyde, oxime;4-Pyridinealdoxime;4-(Hydroxyiminomethyl)pyridine;NSC 63847;4-Pyridinaldoxime;Pyridine-4-carboxaldoxime",
    "duplicated_cas_no": "",
    "SMILES": "C(=NO)C=1C=CN=CC1",
    "meta_data": {
        "InChI": "InChI=1S/C6H6N2O/c9-8-5-6-1-3-7-4-2-6/h1-5,9H",
        "InChIKey": null,
        "Canonical SMILES": "ON=CC=1C=CN=CC1",
        "Molecular Formula": "C<sub>6</sub>H<sub>6</sub>N<sub>2</sub>O",
        "Molecular Mass": "122.12",
        "Melting Point": "130-133 °C"
    }
}