{
    "cas_no": "15486-96-1",
    "key_name": "3-Bromopropanoyl chloride",
    "cn_name": "3-溴丙酰氯;beta-溴丙酰氯;",
    "alternate_name": "Propanoyl chloride, 3-bromo-;Propionyl chloride, 3-bromo-;3-Bromopropanoyl chloride;3-Bromopropionyl chloride;β-Bromopropionyl chloride;β-Bromopropanoyl chloride;ω-Bromopropanoyl chloride;3-Bromopropanoic acid chloride",
    "duplicated_cas_no": "38587-74-5",
    "SMILES": "C(C(Cl)=O)CBr",
    "meta_data": {
        "InChI": "InChI=1S/C3H4BrClO/c4-2-1-3(5)6/h1-2H2",
        "InChIKey": null,
        "Canonical SMILES": "O=C(Cl)CCBr",
        "Molecular Formula": "C<sub>3</sub>H<sub>4</sub>BrClO",
        "Molecular Mass": "171.42",
        "Boiling Point": "115-117 °C @ Press: 30 Torr"
    }
}