{
    "cas_no": "61-78-9",
    "key_name": "<em>p</em>-Aminohippuric acid",
    "cn_name": "对氨基马尿酸;对氨基苯甲酰氨基乙酸;4-氨基马尿酸;",
    "alternate_name": "Glycine, <em>N</em>-(4-aminobenzoyl)-;Hippuric acid, <em>p</em>-amino-;<em>N</em>-(4-Aminobenzoyl)glycine;<em>N</em>-(<em>p</em>-Aminobenzoyl)glycine;PAH;<em>p</em>-Aminohippuric acid;4-Aminohippuric acid;(<em>p</em>-Aminobenzoyl)glycine;PAH (amino acid);4-Aminobenzoylglycine;<em>N</em>-(4-Aminobenzoyl)aminoacetic acid;NSC 13064;NSC 7550;(4-Aminobenzoylamino)acetic acid;2-[(4-Aminobenzoyl)amino]acetic acid;2-(4-Aminobenzamido)aceticacid;2-[(4-Aminophenyl)formamido]acetic acid",
    "duplicated_cas_no": "",
    "SMILES": "C(NCC(O)=O)(=O)C1=CC=C(N)C=C1",
    "meta_data": {
        "InChI": "InChI=1S/C9H10N2O3/c10-7-3-1-6(2-4-7)9(14)11-5-8(12)13/h1-4H,5,10H2,(H,11,14)(H,12,13)",
        "InChIKey": null,
        "Canonical SMILES": "O=C(O)CNC(=O)C1=CC=C(N)C=C1",
        "Molecular Formula": "C<sub>9</sub>H<sub>10</sub>N<sub>2</sub>O<sub>3</sub>",
        "Molecular Mass": "194.19",
        "Melting Point": "198-199 °C",
        "Density": "1.39 g/cm³"
    }
}