{
    "cas_no": "113136-77-9",
    "key_name": "Cyclanilide",
    "cn_name": "环丙酸酰胺;",
    "alternate_name": "Cyclopropanecarboxylic acid, 1-[[(2,4-dichlorophenyl)amino]carbonyl]-;1-[[(2,4-Dichlorophenyl)amino]carbonyl]cyclopropanecarboxylic acid;Cyclanilide;RPA 90946;1-[(2,4-Dichlorophenyl)carbamoyl]cyclopropane-1-carboxylic acid;1-((2,4-Dichlorophenyl)carbamoyl)cyclopropanecarboxylicacid",
    "duplicated_cas_no": "",
    "SMILES": "C(NC1=C(Cl)C=C(Cl)C=C1)(=O)C2(C(O)=O)CC2",
    "meta_data": {
        "InChI": "InChI=1S/C11H9Cl2NO3/c12-6-1-2-8(7(13)5-6)14-9(15)11(3-4-11)10(16)17/h1-2,5H,3-4H2,(H,14,15)(H,16,17)",
        "InChIKey": null,
        "Canonical SMILES": "O=C(O)C1(C(=O)NC2=CC=C(Cl)C=C2Cl)CC1",
        "Molecular Formula": "C<sub>11</sub>H<sub>9</sub>Cl<sub>2</sub>NO<sub>3</sub>",
        "Molecular Mass": "274.10",
        "Melting Point": "195.5 °C",
        "Density": "1.4691-1.4820 g/cm³ @ Temp: 20 °C"
    }
}