{
    "cas_no": "115103-54-3",
    "key_name": "Tiagabine",
    "cn_name": "噻加宾;(3R)-1-[4,4-双(3-甲基噻吩-2-基)丁-3-烯基]哌啶-3-甲酸;",
    "alternate_name": "3-Piperidinecarboxylic acid, 1-[4,4-bis(3-methyl-2-thienyl)-3-buten-1-yl]-, (3<em>R</em>)-;3-Piperidinecarboxylic acid, 1-[4,4-bis(3-methyl-2-thienyl)-3-butenyl]-, (<em>R</em>)-;3-Piperidinecarboxylic acid, 1-[4,4-bis(3-methyl-2-thienyl)-3-butenyl]-, (3<em>R</em>)-;(3<em>R</em>)-1-[4,4-Bis(3-methyl-2-thienyl)-3-buten-1-yl]-3-piperidinecarboxylic acid;NO 328;Tiagabine;(<em>R</em>)-Tiagabine;Gabatril;TGB;NO 050328",
    "duplicated_cas_no": "",
    "SMILES": "C(=CCCN1C[C@H](C(O)=O)CCC1)(C2=C(C)C=CS2)C3=C(C)C=CS3",
    "meta_data": {
        "InChI": "InChI=1S/C20H25NO2S2/c1-14-7-11-24-18(14)17(19-15(2)8-12-25-19)6-4-10-21-9-3-5-16(13-21)20(22)23/h6-8,11-12,16H,3-5,9-10,13H2,1-2H3,(H,22,23)/t16-/m1/s1",
        "InChIKey": null,
        "Canonical SMILES": "O=C(O)C1CN(CCC=C(C=2SC=CC2C)C=3SC=CC3C)CCC1",
        "Molecular Formula": "C<sub>20</sub>H<sub>25</sub>NO<sub>2</sub>S<sub>2</sub>",
        "Molecular Mass": "375.55",
        "Melting Point": "82-84 °C"
    }
}