{
    "cas_no": "51719-65-4",
    "key_name": "3,5-Dichlorobenzeneacetic acid",
    "cn_name": "3,5-二氯苯乙酸;",
    "alternate_name": "Benzeneacetic acid, 3,5-dichloro-;Acetic acid, (3,5-dichlorophenyl)-;3,5-Dichlorobenzeneacetic acid;3,5-Dichlorophenylacetic acid;2-(3,5-Dichlorophenyl)acetic acid",
    "duplicated_cas_no": "",
    "SMILES": "C(C(O)=O)C1=CC(Cl)=CC(Cl)=C1",
    "meta_data": {
        "InChI": "InChI=1S/C8H6Cl2O2/c9-6-1-5(3-8(11)12)2-7(10)4-6/h1-2,4H,3H2,(H,11,12)",
        "InChIKey": null,
        "Canonical SMILES": "O=C(O)CC=1C=C(Cl)C=C(Cl)C1",
        "Molecular Formula": "C<sub>8</sub>H<sub>6</sub>Cl<sub>2</sub>O<sub>2</sub>",
        "Molecular Mass": "205.04",
        "Melting Point": "112-115 °C"
    }
}