{
    "cas_no": "19219-98-8",
    "key_name": "2,5,6-Trimethylbenzoxazole",
    "cn_name": "2,5,6-三甲基苯并唑;",
    "alternate_name": "Benzoxazole, 2,5,6-trimethyl-;2,5,6-Trimethylbenzoxazole;NSC 73186;2,5,6-Trimethylbenzo[<em>d</em>]oxazole;2,5,6-Trimethyl-1,3-benzoxazole",
    "duplicated_cas_no": "",
    "SMILES": "CC=1C=C2C(=CC1C)OC(C)=N2",
    "meta_data": {
        "InChI": "InChI=1S/C10H11NO/c1-6-4-9-10(5-7(6)2)12-8(3)11-9/h4-5H,1-3H3",
        "InChIKey": null,
        "Canonical SMILES": "N=1C=2C=C(C(=CC2OC1C)C)C",
        "Molecular Formula": "C<sub>10</sub>H<sub>11</sub>NO",
        "Molecular Mass": "161.20",
        "Melting Point": "93 °C"
    }
}