{
    "cas_no": "1131-40-4",
    "key_name": "2-Bromo-1,3,5-trimethoxybenzene",
    "cn_name": "1-溴-2,4,6-三甲氧基苯;",
    "alternate_name": "Benzene, 2-bromo-1,3,5-trimethoxy-;2-Bromo-1,3,5-trimethoxybenzene;Bromophloroglucinol trimethyl ether;1-Bromo-2,4,6-trimethoxybenzene;NSC 151970;4-Bromo-1,3,5-trimethoxybenzene;2,4,6-Trimethoxy-1-bromobenzene",
    "duplicated_cas_no": "",
    "SMILES": "O(C)C1=C(Br)C(OC)=CC(OC)=C1",
    "meta_data": {
        "InChI": "InChI=1S/C9H11BrO3/c1-11-6-4-7(12-2)9(10)8(5-6)13-3/h4-5H,1-3H3",
        "InChIKey": null,
        "Canonical SMILES": "BrC=1C(OC)=CC(OC)=CC1OC",
        "Molecular Formula": "C<sub>9</sub>H<sub>11</sub>BrO<sub>3</sub>",
        "Molecular Mass": "247.09",
        "Melting Point": "97-99 °C"
    }
}