{
    "cas_no": "927-55-9",
    "key_name": "4-Amino-1-pentanol",
    "cn_name": null,
    "alternate_name": "1-Pentanol, 4-amino-;4-Amino-1-pentanol;NSC 1095",
    "duplicated_cas_no": "63896-06-0",
    "SMILES": "C(C(C)N)CCO",
    "meta_data": {
        "InChI": "InChI=1S/C5H13NO/c1-5(6)3-2-4-7/h5,7H,2-4,6H2,1H3",
        "InChIKey": null,
        "Canonical SMILES": "OCCCC(N)C",
        "Molecular Formula": "C<sub>5</sub>H<sub>13</sub>NO",
        "Molecular Mass": "103.16",
        "Boiling Point": "117-119 °C @ Press: 25 Torr",
        "Melting Point": "32 °C"
    }
}