{
    "cas_no": "51-78-5",
    "key_name": "4-Aminophenol hydrochloride",
    "cn_name": "4-氨基苯酚盐酸盐;对氨基苯酚盐酸盐;",
    "alternate_name": "Phenol, 4-amino-, hydrochloride (1:1);Phenol, <em>p</em>-amino-, hydrochloride;Phenol, 4-amino-, hydrochloride;C.I. 76551;<em>p</em>-Aminophenol hydrochloride;C.I. Oxidation Base 6A;Durafur Brown R;Fouramine CP;Fourrine P;Fourrine 83;Furro P;Futramine P;Pelagol CP;Pelagol Grey CP;Peltol P;4-Aminophenol hydrochloride;4-Hydroxyanilinium chloride;<em>p</em>-Hydroxyaniline hydrochloride",
    "duplicated_cas_no": "",
    "SMILES": "NC1=CC=C(O)C=C1.Cl",
    "meta_data": {
        "InChI": "InChI=1S/C6H7NO.ClH/c7-5-1-3-6(8)4-2-5;/h1-4,8H,7H2;1H",
        "InChIKey": null,
        "Canonical SMILES": "Cl.OC1=CC=C(N)C=C1",
        "Molecular Formula": "C<sub>6</sub>H<sub>7</sub>NO.ClH",
        "Molecular Mass": "",
        "Melting Point": "306 °C (decomp)"
    }
}