{
    "cas_no": "84624-28-2",
    "key_name": "<em>N</em>′-Fmoc-<span class=\"text-smallcaps\">L</span>-lysine",
    "cn_name": null,
    "alternate_name": "<span class=\"text-smallcaps\">L</span>-Lysine, <em>N</em><sup>6</sup>-[(9<em>H</em>-fluoren-9-ylmethoxy)carbonyl]-;<em>N</em><sup>6</sup>-[(9<em>H</em>-Fluoren-9-ylmethoxy)carbonyl]-<span class=\"text-smallcaps\">L</span>-lysine;3: PN: WO03068990 PAGE: 60 claimed protein;H-<span class=\"text-smallcaps\">L</span>-Lys(ε-fmoc)-OH;<em>N</em>′-Fmoc-<span class=\"text-smallcaps\">L</span>-lysine",
    "duplicated_cas_no": "",
    "SMILES": "C(OC(NCCCC[C@@H](C(O)=O)N)=O)C1C=2C(C=3C1=CC=CC3)=CC=CC2",
    "meta_data": {
        "InChI": "InChI=1S/C21H24N2O4/c22-19(20(24)25)11-5-6-12-23-21(26)27-13-18-16-9-3-1-7-14(16)15-8-2-4-10-17(15)18/h1-4,7-10,18-19H,5-6,11-13,22H2,(H,23,26)(H,24,25)/t19-/m0/s1",
        "InChIKey": null,
        "Canonical SMILES": "O=C(OCC1C=2C=CC=CC2C=3C=CC=CC31)NCCCCC(N)C(=O)O",
        "Molecular Formula": "C<sub>21</sub>H<sub>24</sub>N<sub>2</sub>O<sub>4</sub>",
        "Molecular Mass": "368.43",
        "Melting Point": "209-210 °C"
    }
}