{
    "cas_no": "4780-79-4",
    "key_name": "1-Naphthalenemethanol",
    "cn_name": "1-萘甲醇;",
    "alternate_name": "1-Naphthalenemethanol;1-(Hydroxymethyl)naphthalene;α-Naphthylcarbinol;1-Naphthylmethyl alcohol;α-Naphthylmethanol;1-Naphthylmethanol;1-Naphthylenemethanol;Naphthalen-1-ylmethanol;NSC 5315;1-Naphthylcarbinol",
    "duplicated_cas_no": "",
    "SMILES": "C(O)C=1C2=C(C=CC1)C=CC=C2",
    "meta_data": {
        "InChI": "InChI=1S/C11H10O/c12-8-10-6-3-5-9-4-1-2-7-11(9)10/h1-7,12H,8H2",
        "InChIKey": null,
        "Canonical SMILES": "OCC1=CC=CC=2C=CC=CC21",
        "Molecular Formula": "C<sub>11</sub>H<sub>10</sub>O",
        "Molecular Mass": "158.20",
        "Boiling Point": "304 °C",
        "Melting Point": "64 °C"
    }
}