{
    "cas_no": "533-70-0",
    "key_name": "2,4-Diiodobenzenamine",
    "cn_name": "2,4-二碘苯胺;",
    "alternate_name": "Benzenamine, 2,4-diiodo-;Aniline, 2,4-diiodo-;2,4-Diiodobenzenamine;2,4-Diiodoaniline;NSC 508880",
    "duplicated_cas_no": "",
    "SMILES": "IC1=C(N)C=CC(I)=C1",
    "meta_data": {
        "InChI": "InChI=1S/C6H5I2N/c7-4-1-2-6(9)5(8)3-4/h1-3H,9H2",
        "InChIKey": null,
        "Canonical SMILES": "IC1=CC=C(N)C(I)=C1",
        "Molecular Formula": "C<sub>6</sub>H<sub>5</sub>I<sub>2</sub>N",
        "Molecular Mass": "344.92",
        "Melting Point": "95 °C"
    }
}