{
    "cas_no": "23062-24-0",
    "key_name": "Eurycomalactone",
    "cn_name": null,
    "alternate_name": "2,5-Methanonaphth[1,2-<em>d</em>]oxepin-4,6,10(2<em>H</em>)-trione, 1,5,5a,7,7a,11,11a,11b-octahydro-1,11-dihydroxy-5a,8,11a,12-tetramethyl-, (1<em>R</em>,2<em>R</em>,5<em>S</em>,5a<em>R</em>,7a<em>S</em>,11<em>S</em>,11a<em>S</em>,11b<em>R</em>,12<em>R</em>)-;Eurycomalactone;2,5-Methanonaphth[1,2-<em>d</em>]oxepin-4,6,10(2<em>H</em>)-trione, 1,5,5a,7,7a,11,11a,11b-octahydro-1,11-dihydroxy-5a,8,11a,12-tetramethyl-, [1<em>R</em>-(1α,2α,5α,5aα,7aβ,11α,11aα,11bβ,12<em>R</em>*)]-;(1<em>R</em>,2<em>R</em>,5<em>S</em>,5a<em>R</em>,7a<em>S</em>,11<em>S</em>,11a<em>S</em>,11b<em>R</em>,12<em>R</em>)-1,5,5a,7,7a,11,11a,11b-Octahydro-1,11-dihydroxy-5a,8,11a,12-tetramethyl-2,5-methanonaphth[1,2-<em>d</em>]oxepin-4,6,10(2<em>H</em>)-trione",
    "duplicated_cas_no": "",
    "SMILES": "C[C@]12[C@@]([C@]3(C)[C@@](CC1=O)(C(C)=CC(=O)[C@H]3O)[H])([C@@H](O)[C@]4(C(C)[C@@]2(C(=O)O4)[H])[H])[H]",
    "meta_data": {
        "InChI": "InChI=1S/C19H24O6/c1-7-5-10(20)16(23)18(3)9(7)6-11(21)19(4)12-8(2)14(25-17(12)24)13(22)15(18)19/h5,8-9,12-16,22-23H,6H2,1-4H3/t8?,9-,12+,13-,14+,15+,16+,18-,19-/m0/s1",
        "InChIKey": null,
        "Canonical SMILES": "O=C1OC2C(O)C3C(C(=O)CC4C(=CC(=O)C(O)C43C)C)(C)C1C2C",
        "Molecular Formula": "C<sub>19</sub>H<sub>24</sub>O<sub>6</sub>",
        "Molecular Mass": "348.39",
        "Melting Point": "268-270 °C"
    }
}