{
    "cas_no": "55120-75-7",
    "key_name": "Methanesulfonic acid, 1,1,1-trifluoro-, calcium salt (2:1)",
    "cn_name": "三氟甲磺酸钙盐;钙三氟;",
    "alternate_name": "Methanesulfonic acid, 1,1,1-trifluoro-, calcium salt (2:1);Methanesulfonic acid, trifluoro-, calcium salt;Calcium bis(trifluoromethanesulfonate);Calcium trifluoromethanesulfonate;Calcium triflate;Calcium trifluoromethanesulfonate (1:2);Calcium ditriflate",
    "duplicated_cas_no": "",
    "SMILES": "C(S(=O)(=O)O)(F)(F)F.[Ca]",
    "meta_data": {
        "InChI": "InChI=1S/CHF3O3S.Ca/c2-1(3,4)8(5,6)7;/h(H,5,6,7);",
        "InChIKey": null,
        "Canonical SMILES": "[Ca].O=S(=O)(O)C(F)(F)F",
        "Molecular Formula": "CHF<sub>3</sub>O<sub>3</sub>S.<sup>1</sup>/<sub>2</sub>Ca",
        "Molecular Mass": "",
        "Melting Point": "350 °C"
    }
}