{
    "cas_no": "5598-13-0",
    "key_name": "Chlorpyrifos-methyl",
    "cn_name": "甲基毒死蜱;O,O-二甲基-O-(3,5,6-三氯-2-吡啶基)硫代磷酸酯;",
    "alternate_name": "Phosphorothioic acid, <em>O</em>,<em>O</em>-dimethyl <em>O</em>-(3,5,6-trichloro-2-pyridinyl) ester;Phosphorothioic acid, <em>O</em>,<em>O</em>-dimethyl <em>O</em>-(3,5,6-trichloro-2-pyridyl) ester;OMS 1155;Dowco 214;<em>O</em>,<em>O</em>-Dimethyl <em>O</em>-(3,5,6-trichloro-2-pyridyl) phosphorothioate;Methyl Dursban;Chlorpyrifos-methyl;<em>O</em>-(3,5,6-Trichloro-2-pyridinyl) <em>O</em>,<em>O</em>-dimethyl phosphorothioate;M 3196;Reldan;Noltran;Methyl chlorpyrifos;Dursban methyl;<em>O</em>,<em>O</em>-Dimethyl <em>O</em>-(3,5,6-trichloro-2-pyridyl) thiophosphate;ENT 27520;Dursban ME;Cyfen;Chlorpyriphos-methyl;Chlorpyrifos M;Reldan E",
    "duplicated_cas_no": "",
    "SMILES": "O(P(OC)(OC)=S)C1=C(Cl)C=C(Cl)C(Cl)=N1",
    "meta_data": {
        "InChI": "InChI=1S/C7H7Cl3NO3PS/c1-12-15(16,13-2)14-7-5(9)3-4(8)6(10)11-7/h3H,1-2H3",
        "InChIKey": null,
        "Canonical SMILES": "S=P(OC1=NC(Cl)=C(Cl)C=C1Cl)(OC)OC",
        "Molecular Formula": "C<sub>7</sub>H<sub>7</sub>Cl<sub>3</sub>NO<sub>3</sub>PS",
        "Molecular Mass": "322.53",
        "Melting Point": "45.5-46.5 °C",
        "Density": "1.64 g/cm³ @ Temp: 23 °C"
    }
}