{
    "cas_no": "126-73-8",
    "key_name": "Tributyl phosphate",
    "cn_name": "磷酸三丁酯;高碳醇类消泡剂;",
    "alternate_name": "Phosphoric acid tributyl ester;Butyl phosphate ((BuO)<sub>3</sub>PO);Tributyl phosphate;Celluphos 4;Tri-<em>n</em>-butyl phosphate;TBP;Disflamoll TB;Tributoxyphosphine oxide;TBPA;Calloway 6814;NSC 8484;Phosflex 4;Phosphoric acid, tributyl ester;Degressal SD 40;Moussex 941PL;941PL;X 8054;DL 1157;DU 155",
    "duplicated_cas_no": "15158-85-7;19824-61-4;80094-39-9;329184-61-4;1238174-19-0",
    "SMILES": "P(OCCCC)(OCCCC)(OCCCC)=O",
    "meta_data": {
        "InChI": "InChI=1S/C12H27O4P/c1-4-7-10-14-17(13,15-11-8-5-2)16-12-9-6-3/h4-12H2,1-3H3",
        "InChIKey": null,
        "Canonical SMILES": "O=P(OCCCC)(OCCCC)OCCCC",
        "Molecular Formula": "C<sub>12</sub>H<sub>27</sub>O<sub>4</sub>P",
        "Molecular Mass": "266.31",
        "Boiling Point": "177-178 °C @ Press: 27 Torr",
        "Melting Point": "&lt;-80 °C",
        "Density": "0.976 g/cm³ @ Temp: 25 °C"
    }
}