{
    "cas_no": "2800-80-8",
    "key_name": "Bromophenol red",
    "cn_name": "溴酚红;二溴苯酚磺酞;",
    "alternate_name": "Phenol, 4,4′-(1,1-dioxido-3<em>H</em>-2,1-benzoxathiol-3-ylidene)bis[2-bromo-;Phenol, 4,4′-(3<em>H</em>-2,1-benzoxathiol-3-ylidene)bis[2-bromo-, <em>S</em>,<em>S</em>-dioxide;Bromophenol red;<em>o</em>-Toluenesulfonic acid, α,α-bis(3-bromo-4-hydroxyphenyl)-α-hydroxy-, γ-sultone;3<em>H</em>-2,1-Benzoxathiole, phenol deriv.;4,4′-(1,1-Dioxido-3<em>H</em>-2,1-benzoxathiol-3-ylidene)bis[2-bromophenol];Bromphenol red",
    "duplicated_cas_no": "27459-86-5;56814-79-0",
    "SMILES": "O=S1(=O)OC(C=2C1=CC=CC2)(C3=CC(Br)=C(O)C=C3)C4=CC(Br)=C(O)C=C4",
    "meta_data": {
        "InChI": "InChI=1S/C19H12Br2O5S/c20-14-9-11(5-7-16(14)22)19(12-6-8-17(23)15(21)10-12)13-3-1-2-4-18(13)27(24,25)26-19/h1-10,22-23H",
        "InChIKey": null,
        "Canonical SMILES": "O=S1(=O)OC(C2=CC=C(O)C(Br)=C2)(C3=CC=C(O)C(Br)=C3)C=4C=CC=CC41",
        "Molecular Formula": "C<sub>19</sub>H<sub>12</sub>Br<sub>2</sub>O<sub>5</sub>S",
        "Molecular Mass": "512.17",
        "Melting Point": "230 °C"
    }
}