{
    "cas_no": "13925-07-0",
    "key_name": "2-Ethyl-3,5-dimethylpyrazine",
    "cn_name": "2-乙烷基-3,5-二甲基吡嗪;",
    "alternate_name": "Pyrazine, 2-ethyl-3,5-dimethyl-;2-Ethyl-3,5-dimethylpyrazine;2,6-Dimethyl-3-ethylpyrazine;3,5-Dimethyl-2-ethylpyrazine;3-Ethyl-2,6-dimethylpyrazine",
    "duplicated_cas_no": "",
    "SMILES": "C(C)C=1C(C)=NC(C)=CN1",
    "meta_data": {
        "InChI": "InChI=1S/C8H12N2/c1-4-8-7(3)10-6(2)5-9-8/h5H,4H2,1-3H3",
        "InChIKey": null,
        "Canonical SMILES": "N=1C=C(N=C(C1CC)C)C",
        "Molecular Formula": "C<sub>8</sub>H<sub>12</sub>N<sub>2</sub>",
        "Molecular Mass": "136.19",
        "Boiling Point": "72-73 °C @ Press: 11 Torr",
        "Melting Point": "64-66 °C",
        "Density": "0.958 g/cm³ @ Temp: 24 °C"
    }
}