{
    "cas_no": "23328-87-2",
    "key_name": "2-Heptadecylimidazole",
    "cn_name": "2-十七烷基咪唑;",
    "alternate_name": "1<em>H</em>-Imidazole, 2-heptadecyl-;Imidazole, 2-heptadecyl-;2-Heptadecyl-1<em>H</em>-imidazole;2-Heptadecylimidazole;2-<em>n</em>-Heptadecylimidazole;Curezol C 17Z;C 17Z;FRX 1020",
    "duplicated_cas_no": "75977-66-1",
    "SMILES": "C(CCCCCCCCCCCCCCCC)C=1NC=CN1",
    "meta_data": {
        "InChI": "InChI=1S/C20H38N2/c1-2-3-4-5-6-7-8-9-10-11-12-13-14-15-16-17-20-21-18-19-22-20/h18-19H,2-17H2,1H3,(H,21,22)",
        "InChIKey": null,
        "Canonical SMILES": "N=1C=CNC1CCCCCCCCCCCCCCCCC",
        "Molecular Formula": "C<sub>20</sub>H<sub>38</sub>N<sub>2</sub>",
        "Molecular Mass": "306.53",
        "Melting Point": "88 °C"
    }
}