{
    "cas_no": "154-69-8",
    "key_name": "Tripelennamine hydrochloride",
    "cn_name": null,
    "alternate_name": "1,2-Ethanediamine, <em>N</em><sup>1</sup>,<em>N</em><sup>1</sup>-dimethyl-<em>N</em><sup>2</sup>-(phenylmethyl)-<em>N</em><sup>2</sup>-2-pyridinyl-, hydrochloride (1:1);Pyridine, 2-[benzyl[2-(dimethylamino)ethyl]amino]-, monohydrochloride;1,2-Ethanediamine, <em>N</em>,<em>N</em>-dimethyl-<em>N</em>′-(phenylmethyl)-<em>N</em>′-2-pyridinyl-, monohydrochloride;2-[Benzyl[2-(dimethylamino)ethyl]amino]pyridine hydrochloride;<em>N</em>-Benzyl-<em>N</em>′,<em>N</em>′-dimethyl-<em>N</em>-2-pyridylethylenediamine hydrochloride;<em>N</em>,<em>N</em>-Dimethyl-<em>N</em>′-(2-pyridyl)-<em>N</em>′-benzylethylenediamine hydrochloride;Pyribenzamine monohydrochloride;Pyrinamine;Stanzamine;Piristin;Tripelennamine monohydrochloride;Dehistin monohydrochloride;Pyribenzamine hydrochloride;Tripelennamine hydrochloride;Dehistin;NIH 10186;ReCovr;Vetobenzamina;Vetibenzamine;PBZ;Azaron",
    "duplicated_cas_no": "",
    "SMILES": "N(CC1=CC=CC=C1)(CCN(C)C)C2=CC=CC=N2.Cl",
    "meta_data": {
        "InChI": "InChI=1S/C16H21N3.ClH/c1-18(2)12-13-19(16-10-6-7-11-17-16)14-15-8-4-3-5-9-15;/h3-11H,12-14H2,1-2H3;1H",
        "InChIKey": null,
        "Canonical SMILES": "Cl.N=1C=CC=CC1N(CC=2C=CC=CC2)CCN(C)C",
        "Molecular Formula": "C<sub>16</sub>H<sub>21</sub>N<sub>3</sub>.ClH",
        "Molecular Mass": "",
        "Melting Point": "192-193 °C",
        "Density": "1.20 g/cm³"
    }
}