{
    "cas_no": "578-76-7",
    "key_name": "7-Methylguanine",
    "cn_name": null,
    "alternate_name": "6<em>H</em>-Purin-6-one, 2-amino-1,7-dihydro-7-methyl-;Guanine, 7-methyl-;2-Amino-1,7-dihydro-7-methyl-6<em>H</em>-purin-6-one;7-Methylguanine;<em>N</em><sup>7</sup>-Methylguanine;2-Amino-7-methylhypoxanthine;NSC 193444;NSC 19647;2-Amino-7-methyl-7<em>H</em>-purin-6-ol;2-Amino-7-methyl-1<em>H</em>-purin-6(7<em>H</em>)-one;2-Imino-7-methyl-2,3,6,7-tetrahydro-1<em>H</em>-purin-6-one;2-Amino-7-methyl-3<em>H</em>-purin-6-one;2-Amino-7-methyl-6,7-dihydro-3<em>H</em>-purin-6-one;2-Amino-7-methyl-6,7-dihydro-1<em>H</em>-purin-6-one",
    "duplicated_cas_no": "126605-68-3;6970-99-6;155125-43-2",
    "SMILES": "O=C1C2=C(NC(N)=N1)N=CN2C",
    "meta_data": {
        "InChI": "InChI=1S/C6H7N5O/c1-11-2-8-4-3(11)5(12)10-6(7)9-4/h2H,1H3,(H3,7,9,10,12)",
        "InChIKey": null,
        "Canonical SMILES": "O=C1N=C(N)NC=2N=CN(C12)C",
        "Molecular Formula": "C<sub>6</sub>H<sub>7</sub>N<sub>5</sub>O",
        "Molecular Mass": "165.15",
        "Melting Point": "370 °C"
    }
}