{
    "cas_no": "636-26-0",
    "key_name": "2-Thiothymine",
    "cn_name": "4-羟基-2-巯基-5-甲基嘧啶;",
    "alternate_name": "4(1<em>H</em>)-Pyrimidinone, 2,3-dihydro-5-methyl-2-thioxo-;Thymine, 2-thio-;2,3-Dihydro-5-methyl-2-thioxo-4(1<em>H</em>)-pyrimidinone;2-Thiothymine;5-Methyl-2-thiouracil;Thiothymine;4-Hydroxy-5-methylpyrimidine-2-thione;4-Hydroxy-5-methyl-2-mercaptopyrimidine;NSC 314272;NSC 9377;5-Methyl-2-thioxo-2,3-dihydro-1<em>H</em>-pyrimidin-4-one",
    "duplicated_cas_no": "",
    "SMILES": "O=C1C(C)=CNC(=S)N1",
    "meta_data": {
        "InChI": "InChI=1S/C5H6N2OS/c1-3-2-6-5(9)7-4(3)8/h2H,1H3,(H2,6,7,8,9)",
        "InChIKey": null,
        "Canonical SMILES": "O=C1NC(=S)NC=C1C",
        "Molecular Formula": "C<sub>5</sub>H<sub>6</sub>N<sub>2</sub>OS",
        "Molecular Mass": "142.18",
        "Melting Point": "330 °C"
    }
}