{
    "cas_no": "6001-64-5",
    "key_name": "1,1,1-Trichloro-2-methyl-2-propanol hemihydrate",
    "cn_name": "三氯-2-甲基-2-半水丙醇;1,1,1-三氯-2-甲基-2-丙醇,半水合物;",
    "alternate_name": "2-Propanol, 1,1,1-trichloro-2-methyl-, hydrate (2:1);2-Propanol, 1,1,1-trichloro-2-methyl-, hemihydrate;1,1,1-Trichloro-2-methyl-2-propanol hemihydrate",
    "duplicated_cas_no": "",
    "SMILES": "C(C(Cl)(Cl)Cl)(C)(C)O.O",
    "meta_data": {
        "InChI": "InChI=1S/C4H7Cl3O.H2O/c1-3(2,8)4(5,6)7;/h8H,1-2H3;1H2",
        "InChIKey": null,
        "Canonical SMILES": "ClC(Cl)(Cl)C(O)(C)C.O",
        "Molecular Formula": "C<sub>4</sub>H<sub>7</sub>Cl<sub>3</sub>O.<sup>1</sup>/<sub>2</sub>H<sub>2</sub>O",
        "Molecular Mass": "",
        "Melting Point": "78 °C"
    }
}