{
    "cas_no": "537-09-7",
    "key_name": "Evernic acid",
    "cn_name": "扁枝衣二酸;",
    "alternate_name": "Benzoic acid, 2-hydroxy-4-[(2-hydroxy-4-methoxy-6-methylbenzoyl)oxy]-6-methyl-;Evernic acid;2,6-Cresotic acid, 4-methoxy-, 4-ester with 6-methyl-β-resorcylic acid;2-Hydroxy-4-[(2-hydroxy-4-methoxy-6-methylbenzoyl)oxy]-6-methylbenzoic acid;NSC 81164",
    "duplicated_cas_no": "",
    "SMILES": "O(C(=O)C1=C(C)C=C(OC)C=C1O)C2=CC(C)=C(C(O)=O)C(O)=C2",
    "meta_data": {
        "InChI": "InChI=1S/C17H16O7/c1-8-5-11(7-12(18)14(8)16(20)21)24-17(22)15-9(2)4-10(23-3)6-13(15)19/h4-7,18-19H,1-3H3,(H,20,21)",
        "InChIKey": null,
        "Canonical SMILES": "O=C(O)C1=C(O)C=C(OC(=O)C2=C(O)C=C(OC)C=C2C)C=C1C",
        "Molecular Formula": "C<sub>17</sub>H<sub>16</sub>O<sub>7</sub>",
        "Molecular Mass": "332.30",
        "Melting Point": "170 °C"
    }
}