{
    "cas_no": "37106-97-1",
    "key_name": "<em>N</em>-Benzoyl-<span class=\"text-smallcaps\">L</span>-tyrosyl-<em>p</em>-aminobenzoic acid",
    "cn_name": null,
    "alternate_name": "Benzoic acid, 4-[[(2<em>S</em>)-2-(benzoylamino)-3-(4-hydroxyphenyl)-1-oxopropyl]amino]-;Benzoic acid, 4-[[2-(benzoylamino)-3-(4-hydroxyphenyl)-1-oxopropyl]amino]-, (<em>S</em>)-;4-[[(2<em>S</em>)-2-(Benzoylamino)-3-(4-hydroxyphenyl)-1-oxopropyl]amino]benzoic acid;4-(<em>N</em>-Benzoyl-<span class=\"text-smallcaps\">L</span>-tyrosyl)aminobenzoic acid;<em>N</em>-Benzoyl-<span class=\"text-smallcaps\">L</span>-tyrosyl-<em>p</em>-aminobenzoate;Bentiromide;Benzoyltyrosyl-<em>p</em>-aminobenzoic acid;<em>N</em>-Benzoyl-<span class=\"text-smallcaps\">L</span>-tyrosyl-<em>p</em>-aminobenzoic acid",
    "duplicated_cas_no": "",
    "SMILES": "[C@H](CC1=CC=C(O)C=C1)(C(NC2=CC=C(C(O)=O)C=C2)=O)NC(=O)C3=CC=CC=C3",
    "meta_data": {
        "InChI": "InChI=1S/C23H20N2O5/c26-19-12-6-15(7-13-19)14-20(25-21(27)16-4-2-1-3-5-16)22(28)24-18-10-8-17(9-11-18)23(29)30/h1-13,20,26H,14H2,(H,24,28)(H,25,27)(H,29,30)/t20-/m0/s1",
        "InChIKey": null,
        "Canonical SMILES": "O=C(O)C1=CC=C(C=C1)NC(=O)C(NC(=O)C=2C=CC=CC2)CC3=CC=C(O)C=C3",
        "Molecular Formula": "C<sub>23</sub>H<sub>20</sub>N<sub>2</sub>O<sub>5</sub>",
        "Molecular Mass": "404.42",
        "Melting Point": "241 °C"
    }
}