{
    "cas_no": "766-83-6",
    "key_name": "3-Chlorophenylacetylene",
    "cn_name": "3-氯苯乙炔;1-氯-3-乙炔苯;",
    "alternate_name": "Benzene, 1-chloro-3-ethynyl-;1-Chloro-3-ethynylbenzene;<em>m</em>-Chlorophenylacetylene;3-Chlorophenylacetylene;1-Ethynyl-3-chlorobenzene;3-Chloro-1-ethynylbenzene;3-Chloroethynylbenzene;(3-Chlorophenyl)ethyne",
    "duplicated_cas_no": "",
    "SMILES": "C(#C)C1=CC(Cl)=CC=C1",
    "meta_data": {
        "InChI": "InChI=1S/C8H5Cl/c1-2-7-4-3-5-8(9)6-7/h1,3-6H",
        "InChIKey": null,
        "Canonical SMILES": "ClC1=CC=CC(C#C)=C1",
        "Molecular Formula": "C<sub>8</sub>H<sub>5</sub>Cl",
        "Molecular Mass": "136.58",
        "Boiling Point": "71 °C @ Press: 15 Torr"
    }
}