{
    "cas_no": "65685-51-0",
    "key_name": "6-Bromo-1,2-benzisoxazol-3(2<em>H</em>)-one",
    "cn_name": null,
    "alternate_name": "1,2-Benzisoxazol-3(2<em>H</em>)-one, 6-bromo-;6-Bromo-1,2-benzisoxazol-3(2<em>H</em>)-one;6-Bromo-3-hydroxybenzisoxazole;6-Bromobenzo[<em>d</em>]isoxazol-3-ol",
    "duplicated_cas_no": "",
    "SMILES": "O=C1C=2C(ON1)=CC(Br)=CC2",
    "meta_data": {
        "InChI": "InChI=1S/C7H4BrNO2/c8-4-1-2-5-6(3-4)11-9-7(5)10/h1-3H,(H,9,10)",
        "InChIKey": null,
        "Canonical SMILES": "O=C1NOC2=CC(Br)=CC=C12",
        "Molecular Formula": "C<sub>7</sub>H<sub>4</sub>BrNO<sub>2</sub>",
        "Molecular Mass": "214.02",
        "Melting Point": "225-227 °C"
    }
}