{
    "cas_no": "365564-11-0",
    "key_name": "3-(4,4,5,5-Tetramethyl-1,3,2-dioxaborolan-2-yl)-1-[tris(1-methylethyl)silyl]-1<em>H</em>-pyrrole",
    "cn_name": null,
    "alternate_name": "1<em>H</em>-Pyrrole, 3-(4,4,5,5-tetramethyl-1,3,2-dioxaborolan-2-yl)-1-[tris(1-methylethyl)silyl]-;3-(4,4,5,5-Tetramethyl-1,3,2-dioxaborolan-2-yl)-1-[tris(1-methylethyl)silyl]-1<em>H</em>-pyrrole;3-(4,4,5,5-Tetramethyl-1,3,2-dioxaborolan-2-yl)-1-(triisopropylsilyl)-1<em>H</em>-pyrrole;1-Triisopropylsilanyl-1<em>H</em>-pyrrole-3-boronic acid pinacol ester",
    "duplicated_cas_no": "",
    "SMILES": "[Si](C(C)C)(C(C)C)(C(C)C)N1C=C(C=C1)B2OC(C)(C)C(C)(C)O2",
    "meta_data": {
        "InChI": "InChI=1S/C19H36BNO2Si/c1-14(2)24(15(3)4,16(5)6)21-12-11-17(13-21)20-22-18(7,8)19(9,10)23-20/h11-16H,1-10H3",
        "InChIKey": null,
        "Canonical SMILES": "O1B(OC(C)(C)C1(C)C)C=2C=CN(C2)[Si](C(C)C)(C(C)C)C(C)C",
        "Molecular Formula": "C<sub>19</sub>H<sub>36</sub>BNO<sub>2</sub>Si",
        "Molecular Mass": "349.39",
        "Melting Point": "59 °C"
    }
}