{
    "cas_no": "18854-01-8",
    "key_name": "Isoxathion",
    "cn_name": "恶唑磷;恶唑磷；嗯唑硫磷；佳硫磷；E-48；51-6711；O，O-二乙基O-5-苯基异蟋唑-3-基硫逐磷酸酯;",
    "alternate_name": "Phosphorothioic acid, <em>O</em>,<em>O</em>-diethyl <em>O</em>-(5-phenyl-3-isoxazolyl) ester;3-Isoxazolol, 5-phenyl-, <em>O</em>-ester with <em>O</em>,<em>O</em>-diethyl phosphorothioate;Isoxathion;Karphos",
    "duplicated_cas_no": "12798-15-1",
    "SMILES": "O(P(OCC)(OCC)=S)C=1C=C(ON1)C2=CC=CC=C2",
    "meta_data": {
        "InChI": "InChI=1S/C13H16NO4PS/c1-3-15-19(20,16-4-2)18-13-10-12(17-14-13)11-8-6-5-7-9-11/h5-10H,3-4H2,1-2H3",
        "InChIKey": null,
        "Canonical SMILES": "S=P(OC1=NOC(=C1)C=2C=CC=CC2)(OCC)OCC",
        "Molecular Formula": "C<sub>13</sub>H<sub>16</sub>NO<sub>4</sub>PS",
        "Molecular Mass": "313.31",
        "Boiling Point": "160 °C @ Press: 0.15 Torr",
        "Melting Point": "&lt;25 °C"
    }
}