{
    "cas_no": "4001-61-0",
    "key_name": "2,5-Dimethylbenzenethiol",
    "cn_name": "2,5-二甲基苯硫酚;",
    "alternate_name": "Benzenethiol, 2,5-dimethyl-;2,5-Xylenethiol;2,5-Dimethylbenzenethiol;2,5-Dimethylthiophenol;2,5-Dimethylbenzene-1-thiol",
    "duplicated_cas_no": "",
    "SMILES": "SC1=C(C)C=CC(C)=C1",
    "meta_data": {
        "InChI": "InChI=1S/C8H10S/c1-6-3-4-7(2)8(9)5-6/h3-5,9H,1-2H3",
        "InChIKey": null,
        "Canonical SMILES": "SC1=CC(=CC=C1C)C",
        "Molecular Formula": "C<sub>8</sub>H<sub>10</sub>S",
        "Molecular Mass": "138.23",
        "Boiling Point": "211-212 °C"
    }
}