{
    "cas_no": "762-42-5",
    "key_name": "Dimethyl acetylenedicarboxylate",
    "cn_name": "丁炔二酸二甲酯;",
    "alternate_name": "2-Butynedioic acid, 1,4-dimethyl ester;Acetylenedicarboxylic acid, dimethyl ester;2-Butynedioic acid, dimethyl ester;Dimethyl acetylenedicarboxylate;Dimethyl butynedioate;Dimethyl 2-butynedioate;Dimethyl 1,2-acetylenedicarboxylate;1,2-Bis(methoxycarbonyl)acetylene;Bis(carbomethoxy)acetylene;Dimethyl butyne-1,4-dioate;Dimethyl ethynedicarboxylate;1,2-Bis(methoxycarbonyl)ethyne;Butynedioic acid dimethyl ester;Di(carbomethoxy)acetylene;Bis(methoxycarbonyl)acetylene;NSC 101119;NSC 14912;1,4-Dimethyl but-2-ynedioate",
    "duplicated_cas_no": "2228859-04-7;2387559-42-2",
    "SMILES": "C(C#CC(OC)=O)(OC)=O",
    "meta_data": {
        "InChI": "InChI=1S/C6H6O4/c1-9-5(7)3-4-6(8)10-2/h1-2H3",
        "InChIKey": null,
        "Canonical SMILES": "O=C(C#CC(=O)OC)OC",
        "Molecular Formula": "C<sub>6</sub>H<sub>6</sub>O<sub>4</sub>",
        "Molecular Mass": "142.11",
        "Boiling Point": "83 °C @ Press: 5 Torr",
        "Melting Point": "50-53 °C"
    }
}