{
    "cas_no": "7560-83-0",
    "key_name": "Methyldicyclohexylamine",
    "cn_name": "N-甲基二环己基胺;N-甲基二环己胺;N-环己基-N-甲基环己胺;",
    "alternate_name": "Cyclohexanamine, <em>N</em>-cyclohexyl-<em>N</em>-methyl-;Dicyclohexylamine, <em>N</em>-methyl-;<em>N</em>-Cyclohexyl-<em>N</em>-methylcyclohexanamine;<em>N</em>-Methyldicyclohexylamine;<em>N</em>,<em>N</em>-Dicyclohexylmethylamine;Methyldicyclohexylamine;NSC 133262;NSC 166513;Dicyclohexyl(methyl)amine;<em>N</em>,<em>N</em>-Dicyclohexyl-<em>N</em>-methylamine;PC 12;D 0820;<em>N</em>,<em>N</em>′-Dicyclohexylmethylamine;PC CAT NP 112",
    "duplicated_cas_no": "",
    "SMILES": "N(C)(C1CCCCC1)C2CCCCC2",
    "meta_data": {
        "InChI": "InChI=1S/C13H25N/c1-14(12-8-4-2-5-9-12)13-10-6-3-7-11-13/h12-13H,2-11H2,1H3",
        "InChIKey": null,
        "Canonical SMILES": "N(C)(C1CCCCC1)C2CCCCC2",
        "Molecular Formula": "C<sub>13</sub>H<sub>25</sub>N",
        "Molecular Mass": "195.34",
        "Boiling Point": "265 °C",
        "Melting Point": "193-194 °C"
    }
}