{
    "cas_no": "3399-22-2",
    "key_name": "1,4-Dimethyl <em>trans</em>-1,4-cyclohexanedicarboxylate",
    "cn_name": null,
    "alternate_name": "1,4-Cyclohexanedicarboxylic acid, 1,4-dimethyl ester, <em>trans</em>-;1,4-Cyclohexanedicarboxylic acid, dimethyl ester, <em>trans</em>-;1,4-Dimethyl <em>trans</em>-1,4-cyclohexanedicarboxylate;Dimethyl <em>trans</em>-1,4-cyclohexanedicarboxylate;Dimethyl trans-cyclohexane-1,4-dicarboxylate;<em>trans</em>-Cyclohexane-1,4-dicarboxylic acid dimethyl ester",
    "duplicated_cas_no": "",
    "SMILES": "C(OC)(=O)[C@H]1CC[C@H](C(OC)=O)CC1",
    "meta_data": {
        "InChI": "InChI=1/C10H16O4/c1-13-9(11)7-3-5-8(6-4-7)10(12)14-2/h7-8H,3-6H2,1-2H3/t7-,8-",
        "InChIKey": null,
        "Canonical SMILES": "O=C(OC)C1CCC(C(=O)OC)CC1",
        "Molecular Formula": "C<sub>10</sub>H<sub>16</sub>O<sub>4</sub>",
        "Molecular Mass": "200.23",
        "Boiling Point": "122.5-126.5 °C @ Press: 6-7 Torr",
        "Melting Point": "69.1-69.4 °C",
        "Density": "1.111 g/cm³"
    }
}