{
    "cas_no": "123-68-2",
    "key_name": "Allyl caproate",
    "cn_name": "己酸烯丙酯;",
    "alternate_name": "Hexanoic acid, 2-propen-1-yl ester;Hexanoic acid, allyl ester;Hexanoic acid, 2-propenyl ester;Allyl alcohol, hexanoate;Allyl caproate;Allyl hexanoate;Allyl capronate;2-Propenyl hexanoate;NSC 20962;Caproic acid allyl ester",
    "duplicated_cas_no": "",
    "SMILES": "C(C(OCC=C)=O)CCCC",
    "meta_data": {
        "InChI": "InChI=1S/C9H16O2/c1-3-5-6-7-9(10)11-8-4-2/h4H,2-3,5-8H2,1H3",
        "InChIKey": null,
        "Canonical SMILES": "O=C(OCC=C)CCCCC",
        "Molecular Formula": "C<sub>9</sub>H<sub>16</sub>O<sub>2</sub>",
        "Molecular Mass": "156.22",
        "Boiling Point": "186-188 °C",
        "Density": "0.8869 g/cm³ @ Temp: 20 °C"
    }
}