{
    "cas_no": "130312-01-5",
    "key_name": "2-(Tetrahydro-4<em>H</em>-pyran-4-ylidene)acetic acid",
    "cn_name": null,
    "alternate_name": "Acetic acid, 2-(tetrahydro-4<em>H</em>-pyran-4-ylidene)-;Acetic acid, (tetrahydro-4<em>H</em>-pyran-4-ylidene)-;2-(Tetrahydro-4<em>H</em>-pyran-4-ylidene)acetic acid;(Tetrahydro-pyran-4-ylidene)-acetic acid;2-(Oxan-4-ylidene)acetic acid",
    "duplicated_cas_no": "",
    "SMILES": "C(C(O)=O)=C1CCOCC1",
    "meta_data": {
        "InChI": "InChI=1S/C7H10O3/c8-7(9)5-6-1-3-10-4-2-6/h5H,1-4H2,(H,8,9)",
        "InChIKey": null,
        "Canonical SMILES": "O=C(O)C=C1CCOCC1",
        "Molecular Formula": "C<sub>7</sub>H<sub>10</sub>O<sub>3</sub>",
        "Molecular Mass": "142.15",
        "Melting Point": "84-85 °C"
    }
}