{
    "cas_no": "65-06-5",
    "key_name": "1-Testosterone",
    "cn_name": "1-睾酮;17b-羟基-5a-雄甾-1-烯-3-酮;",
    "alternate_name": "Androst-1-en-3-one, 17-hydroxy-, (5α,17β)-;5α-Androst-1-en-3-one, 17β-hydroxy-;(5α,17β)-17-Hydroxyandrost-1-en-3-one;17β-Hydroxy-5α-androst-1-en-3-one;5α-Androst-1-en-17β-ol-3-one;NSC 121140;NSC 39366;1-Testosterone",
    "duplicated_cas_no": "",
    "SMILES": "C[C@@]12[C@@]3([C@]([C@]4([C@](C)(CC3)[C@@H](O)CC4)[H])(CC[C@]1(CC(=O)C=C2)[H])[H])[H]",
    "meta_data": {
        "InChI": "InChI=1S/C19H28O2/c1-18-9-7-13(20)11-12(18)3-4-14-15-5-6-17(21)19(15,2)10-8-16(14)18/h7,9,12,14-17,21H,3-6,8,10-11H2,1-2H3/t12-,14-,15-,16-,17-,18-,19-/m0/s1",
        "InChIKey": null,
        "Canonical SMILES": "O=C1C=CC2(C)C(C1)CCC3C2CCC4(C)C(O)CCC34",
        "Molecular Formula": "C<sub>19</sub>H<sub>28</sub>O<sub>2</sub>",
        "Molecular Mass": "288.42",
        "Melting Point": "220 °C"
    }
}