{
    "cas_no": "30414-54-1",
    "key_name": "Hexanoic acid, 3-oxo-, methyl ester",
    "cn_name": "正丁酰乙酸甲酯;丁酰乙酸甲酯;",
    "alternate_name": "Hexanoic acid, 3-oxo-, methyl ester;Caproic acid, β-oxo-, methyl ester;Methyl 3-oxohexanoate;Methyl 3-oxocaproate;Methyl butyrylacetate;Methyl 3-ketohexanoate;3-Oxohexanoic acid methyl ester",
    "duplicated_cas_no": "",
    "SMILES": "C(C(CCC)=O)C(OC)=O",
    "meta_data": {
        "InChI": "InChI=1S/C7H12O3/c1-3-4-6(8)5-7(9)10-2/h3-5H2,1-2H3",
        "InChIKey": null,
        "Canonical SMILES": "O=C(OC)CC(=O)CCC",
        "Molecular Formula": "C<sub>7</sub>H<sub>12</sub>O<sub>3</sub>",
        "Molecular Mass": "144.17",
        "Boiling Point": "85-90 °C @ Press: 14 Torr"
    }
}