{
    "cas_no": "169789-37-1",
    "key_name": "5-Methoxy-1<em>H</em>-indazole-3-carboxaldehyde",
    "cn_name": null,
    "alternate_name": "1<em>H</em>-Indazole-3-carboxaldehyde, 5-methoxy-;5-Methoxy-1<em>H</em>-indazole-3-carboxaldehyde",
    "duplicated_cas_no": "",
    "SMILES": "C(=O)C=1C=2C(NN1)=CC=C(OC)C2",
    "meta_data": {
        "InChI": "InChI=1S/C9H8N2O2/c1-13-6-2-3-8-7(4-6)9(5-12)11-10-8/h2-5H,1H3,(H,10,11)",
        "InChIKey": null,
        "Canonical SMILES": "O=CC1=NNC=2C=CC(OC)=CC12",
        "Molecular Formula": "C<sub>9</sub>H<sub>8</sub>N<sub>2</sub>O<sub>2</sub>",
        "Molecular Mass": "176.17",
        "Melting Point": "214-216 °C"
    }
}