{
    "cas_no": "758-42-9",
    "key_name": "1,1,1-Trichloro-3,3,3-trifluoro-2-propanone",
    "cn_name": "1，1，3-三氯-1，3，3-三氟丙酮;",
    "alternate_name": "2-Propanone, 1,1,1-trichloro-3,3,3-trifluoro-;1,1,1-Trichloro-3,3,3-trifluoro-2-propanone;1,1,1-Trichloro-3,3,3-trifluoroacetone;3,3,3-Trichloro-1,1,1-trifluoroacetone;1,1,1-Trichlorotrifluoroacetone",
    "duplicated_cas_no": "",
    "SMILES": "C(C(Cl)(Cl)Cl)(C(F)(F)F)=O",
    "meta_data": {
        "InChI": "InChI=1S/C3Cl3F3O/c4-2(5,6)1(10)3(7,8)9",
        "InChIKey": null,
        "Canonical SMILES": "O=C(C(F)(F)F)C(Cl)(Cl)Cl",
        "Molecular Formula": "C<sub>3</sub>Cl<sub>3</sub>F<sub>3</sub>O",
        "Molecular Mass": "215.39",
        "Boiling Point": "83.5-84.5 °C"
    }
}