{
    "cas_no": "105650-23-5",
    "key_name": "2-Amino-1-methyl-6-phenylimidazo[4,5-<em>b</em>]pyridine",
    "cn_name": null,
    "alternate_name": "1<em>H</em>-Imidazo[4,5-<em>b</em>]pyridin-2-amine, 1-methyl-6-phenyl-;1-Methyl-6-phenyl-1<em>H</em>-imidazo[4,5-<em>b</em>]pyridin-2-amine;2-Amino-1-methyl-6-phenylimidazo[4,5-<em>b</em>]pyridine;PhIP;2-Amino-1-methyl-6-phenyl-1<em>H</em>-imidazo[4,5-<em>b</em>]pyridine;1-Methyl-6-phenylimidazo[4,5-<em>b</em>]pyridin-2-amine",
    "duplicated_cas_no": "150244-56-7",
    "SMILES": "CN1C=2C(N=C1N)=NC=C(C2)C3=CC=CC=C3",
    "meta_data": {
        "InChI": "InChI=1S/C13H12N4/c1-17-11-7-10(9-5-3-2-4-6-9)8-15-12(11)16-13(17)14/h2-8H,1H3,(H2,14,15,16)",
        "InChIKey": null,
        "Canonical SMILES": "N1=CC(=CC2=C1N=C(N)N2C)C=3C=CC=CC3",
        "Molecular Formula": "C<sub>13</sub>H<sub>12</sub>N<sub>4</sub>",
        "Molecular Mass": "224.26",
        "Melting Point": "322-324 °C"
    }
}