{
    "cas_no": "5736-89-0",
    "key_name": "1-(4-Butoxyphenyl)ethanone",
    "cn_name": "4-正丁氧基苯乙酮;4-(正丁氧基)苯乙酮;对正丁氧基苯乙酮;",
    "alternate_name": "Ethanone, 1-(4-butoxyphenyl)-;Acetophenone, 4′-butoxy-;1-(4-Butoxyphenyl)ethanone;<em>p</em>-Butoxyacetophenone;4′-Butoxyacetophenone;NSC 91024;1-(4-Butoxyphenyl)ethan-1-one",
    "duplicated_cas_no": "",
    "SMILES": "O(CCCC)C1=CC=C(C(C)=O)C=C1",
    "meta_data": {
        "InChI": "InChI=1S/C12H16O2/c1-3-4-9-14-12-7-5-11(6-8-12)10(2)13/h5-8H,3-4,9H2,1-2H3",
        "InChIKey": null,
        "Canonical SMILES": "O=C(C1=CC=C(OCCCC)C=C1)C",
        "Molecular Formula": "C<sub>12</sub>H<sub>16</sub>O<sub>2</sub>",
        "Molecular Mass": "192.25",
        "Boiling Point": "127-133 °C @ Press: 3 Torr",
        "Melting Point": "25 °C"
    }
}