{
    "cas_no": "541-48-0",
    "key_name": "β-Aminobutyric acid",
    "cn_name": "DL-3-氨基丁酸;",
    "alternate_name": "Butanoic acid, 3-amino-;Butyric acid, 3-amino-;Butyric acid, β-amino-;3-Aminobutanoic acid;β-Aminobutyric acid;β-Amino-<em>n</em>-butyric acid;3-Aminobutyric acid;β-Aminobutanoic acid;β-Methyl-β-alanine;Carbocreatine;3-Methyl-β-alanine;<span class=\"text-smallcaps\">DL</span>-3-Aminobutyric acid;<span class=\"text-smallcaps\">DL</span>-β-Aminobutyric acid;(±)-3-Aminobutanoic acid;(±)-β-Aminobutyric acid;<span class=\"text-smallcaps\">DL</span>-3-Aminobutanoic acid;(±)-3-Amino-<em>n</em>-butyric acid;(<em>RS</em>)-3-Aminobutanoic acid;(±)-3-Aminobutyric acid;NSC 77380;BABA;3-Azaniumylbutanoate",
    "duplicated_cas_no": "2835-82-7;167222-96-0",
    "SMILES": "C(C(C)N)C(O)=O",
    "meta_data": {
        "InChI": "InChI=1S/C4H9NO2/c1-3(5)2-4(6)7/h3H,2,5H2,1H3,(H,6,7)",
        "InChIKey": null,
        "Canonical SMILES": "O=C(O)CC(N)C",
        "Molecular Formula": "C<sub>4</sub>H<sub>9</sub>NO<sub>2</sub>",
        "Molecular Mass": "103.12",
        "Melting Point": "193 °C"
    }
}