{
    "cas_no": "33252-29-8",
    "key_name": "6-Chloro-2-pyridinecarbonitrile",
    "cn_name": "2-氯-6-氰基吡啶;",
    "alternate_name": "2-Pyridinecarbonitrile, 6-chloro-;Picolinonitrile, 6-chloro-;6-Chloro-2-pyridinecarbonitrile;2-Chloro-6-cyanopyridine;6-Chloropyridine-2-carbonitrile;2-Chloropyridine-6-carbonitrile;6-Chloropicolinonitrile",
    "duplicated_cas_no": "",
    "SMILES": "C(#N)C=1N=C(Cl)C=CC1",
    "meta_data": {
        "InChI": "InChI=1S/C6H3ClN2/c7-6-3-1-2-5(4-8)9-6/h1-3H",
        "InChIKey": null,
        "Canonical SMILES": "N#CC1=NC(Cl)=CC=C1",
        "Molecular Formula": "C<sub>6</sub>H<sub>3</sub>ClN<sub>2</sub>",
        "Molecular Mass": "138.55",
        "Melting Point": "86-88 °C"
    }
}