{
    "cas_no": "26164-26-1",
    "key_name": "(+)-Methoxyphenylacetic acid",
    "cn_name": "(S)-(+)-alpha-甲氧基苯乙酸;",
    "alternate_name": "Benzeneacetic acid, α-methoxy-, (α<em>S</em>)-;Acetic acid, methoxyphenyl-, (<em>S</em>)-;Benzeneacetic acid, α-methoxy-, (<em>S</em>)-;(α<em>S</em>)-α-Methoxybenzeneacetic acid;(<em>S</em>)-<em>O</em>-Methylmandelic acid;(<em>S</em>)-Methoxyphenylacetic acid;(<em>S</em>)-α-Methoxyphenylacetic acid;(<em>S</em>)-2-Methoxy-2-phenylacetic acid;(2<em>S</em>)-<em>O</em>-Methylmandelic acid;(<em>S</em>)-(+)-<em>O</em>-Methylmandelic acid;<span class=\"text-smallcaps\">L</span>-α-Methoxyphenylacetic acid;(+)-2-Methoxyphenylacetic acid;(<em>S</em>)-α-Methoxy-α-phenylacetic acid;(+)-α-Methoxyphenylacetic acid;(<em>S</em>)-(+)-α-Methoxyphenylacetic acid;(<em>S</em>)-(+)-2-Methoxy-2-phenylacetic acid;(<em>S</em>)-α-Methoxybenzeneacetic acid;(+)-Methoxyphenylacetic acid;(+)-2-Methoxy-2-phenylacetic acid;(<em>S</em>)-α-Methoxybenzeneethanoic acid;(<em>S</em>)-(+)-Methoxyphenylacetic acid;(<em>S</em>)-2-Methoxy-2-(phenyl)ethanoic acid;(<em>S</em>)-2-Methoxyphenylacetic acid;(2S)-Methoxy(phenyl)ethanoic acid",
    "duplicated_cas_no": "",
    "SMILES": "[C@H](C(O)=O)(OC)C1=CC=CC=C1",
    "meta_data": {
        "InChI": "InChI=1S/C9H10O3/c1-12-8(9(10)11)7-5-3-2-4-6-7/h2-6,8H,1H3,(H,10,11)/t8-/m0/s1",
        "InChIKey": null,
        "Canonical SMILES": "O=C(O)C(OC)C=1C=CC=CC1",
        "Molecular Formula": "C<sub>9</sub>H<sub>10</sub>O<sub>3</sub>",
        "Molecular Mass": "166.17",
        "Melting Point": "65-66 °C"
    }
}