{
    "cas_no": "5465-86-1",
    "key_name": "4-Methyl-2-(1-piperidinyl)quinoline",
    "cn_name": null,
    "alternate_name": "Quinoline, 4-methyl-2-(1-piperidinyl)-;Lepidine, 2-piperidino-;4-Methyl-2-(1-piperidinyl)quinoline;NSC 25850;ML 204",
    "duplicated_cas_no": "",
    "SMILES": "CC=1C2=C(N=C(C1)N3CCCCC3)C=CC=C2",
    "meta_data": {
        "InChI": "InChI=1S/C15H18N2/c1-12-11-15(17-9-5-2-6-10-17)16-14-8-4-3-7-13(12)14/h3-4,7-8,11H,2,5-6,9-10H2,1H3",
        "InChIKey": null,
        "Canonical SMILES": "N=1C=2C=CC=CC2C(=CC1N3CCCCC3)C",
        "Molecular Formula": "C<sub>15</sub>H<sub>18</sub>N<sub>2</sub>",
        "Molecular Mass": "226.32",
        "Boiling Point": "177-180 °C @ Press: 4.5 Torr",
        "Melting Point": "72-73 °C"
    }
}