{
    "cas_no": "18621-17-5",
    "key_name": "1-Benzhydrylazetidin-3-ol",
    "cn_name": "N-二苯甲基氮杂环丁烷-3-醇;1-(二苯甲基)-3-羟基氮杂环丁烷;",
    "alternate_name": "3-Azetidinol, 1-(diphenylmethyl)-;1-(Diphenylmethyl)-3-azetidinol;1-Benzhydrylazetidin-3-ol;1-Benzhydryl-3-hydroxyazetidine;<em>N</em>-(Diphenylmethyl)azetidin-3-ol;1-(Diphenylmethyl)-3-hydroxyazetidine;1-Benzhydryl-3-azetanol;NSC 319045;3-Hydroxy-1-(diphenylmethyl)azetidine;<em>N</em>-(Diphenylmethyl)-3-hydroxyazetidine;<em>N</em>-Benzhydryl-3-azetidinol;<em>N</em>-Benzhydryl-3-hydroxyazetidine",
    "duplicated_cas_no": "",
    "SMILES": "C(N1CC(O)C1)(C2=CC=CC=C2)C3=CC=CC=C3",
    "meta_data": {
        "InChI": "InChI=1S/C16H17NO/c18-15-11-17(12-15)16(13-7-3-1-4-8-13)14-9-5-2-6-10-14/h1-10,15-16,18H,11-12H2",
        "InChIKey": null,
        "Canonical SMILES": "OC1CN(C1)C(C=2C=CC=CC2)C=3C=CC=CC3",
        "Molecular Formula": "C<sub>16</sub>H<sub>17</sub>NO",
        "Molecular Mass": "239.31",
        "Melting Point": "115 °C"
    }
}