{
    "cas_no": "7787-69-1",
    "key_name": "Cesium bromide",
    "cn_name": "溴化铯;",
    "alternate_name": "Cesium bromide (CsBr);Cesium bromide;Cesium monobromide;NSC 84269",
    "duplicated_cas_no": "59217-60-6;186348-97-0",
    "SMILES": "Br[Cs]",
    "meta_data": {
        "InChI": "InChI=1S/BrH.Cs/h1H;/q;+1/p-1",
        "InChIKey": null,
        "Canonical SMILES": "Br[Cs]",
        "Molecular Formula": "BrCs",
        "Molecular Mass": "",
        "Melting Point": "636 °C",
        "Density": "4.44 g/cm³ @ Temp: 909 °C"
    }
}