{
    "cas_no": "105310-75-6",
    "key_name": "<em>rel</em>-(1<em>R</em>,2<em>S</em>)-2-[(1,3-Dihydro-1,3-dioxo-2<em>H</em>-isoindol-2-yl)methyl]-<em>N</em>,<em>N</em>-diethyl-1-phenylcyclopropanecarboxamide",
    "cn_name": null,
    "alternate_name": "Cyclopropanecarboxamide, 2-[(1,3-dihydro-1,3-dioxo-2<em>H</em>-isoindol-2-yl)methyl]-<em>N</em>,<em>N</em>-diethyl-1-phenyl-, (1<em>R</em>,2<em>S</em>)-<em>rel</em>-;Cyclopropanecarboxamide, 2-[(1,3-dihydro-1,3-dioxo-2<em>H</em>-isoindol-2-yl)methyl]-<em>N</em>,<em>N</em>-diethyl-1-phenyl-, <em>cis</em>-;<em>rel</em>-(1<em>R</em>,2<em>S</em>)-2-[(1,3-Dihydro-1,3-dioxo-2<em>H</em>-isoindol-2-yl)methyl]-<em>N</em>,<em>N</em>-diethyl-1-phenylcyclopropanecarboxamide",
    "duplicated_cas_no": "",
    "SMILES": "C(N(CC)CC)(=O)[C@]1([C@@H](CN2C(=O)C=3C(C2=O)=CC=CC3)C1)C4=CC=CC=C4",
    "meta_data": {
        "InChI": "InChI=1/C23H24N2O3/c1-3-24(4-2)22(28)23(16-10-6-5-7-11-16)14-17(23)15-25-20(26)18-12-8-9-13-19(18)21(25)27/h5-13,17H,3-4,14-15H2,1-2H3/t17-,23+/s2",
        "InChIKey": null,
        "Canonical SMILES": "O=C1C=2C=CC=CC2C(=O)N1CC3CC3(C=4C=CC=CC4)C(=O)N(CC)CC",
        "Molecular Formula": "C<sub>23</sub>H<sub>24</sub>N<sub>2</sub>O<sub>3</sub>",
        "Molecular Mass": "376.45",
        "Melting Point": "130-132 °C"
    }
}