{
    "cas_no": "63149-24-6",
    "key_name": "1<em>H</em>-Benz[<em>e</em>]indolium, 1,1,2-trimethyl-3-(4-sulfobutyl)-, inner salt",
    "cn_name": "1,1,2-三甲基-3-(4-硫代丁基)苯并[e]吲哚,内盐;",
    "alternate_name": "1<em>H</em>-Benz[<em>e</em>]indolium, 1,1,2-trimethyl-3-(4-sulfobutyl)-, inner salt;1<em>H</em>-Benz[<em>e</em>]indolium, 1,1,2-trimethyl-3-(4-sulfobutyl)-, hydroxide, inner salt;1,1,2-Trimethyl-3-(4-sulfobutyl)-1<em>H</em>-benz[<em>e</em>]indolium hydroxide, inner salt;1,1,2-Trimethyl-3-(4-sulfobutyl)-1<em>H</em>-benz[<em>e</em>]indolium inner salt;4-(1,1,2-Trimethyl-1<em>H</em>-benzo[<em>e</em>]indolium-3-yl)butane-1-sulfonate",
    "duplicated_cas_no": "210105-77-4;1362141-35-2;1420217-46-4",
    "SMILES": "CC1(C)C2=C([N+](CCCCS(=O)(=O)[O-])=C1C)C=CC=3C2=CC=CC3",
    "meta_data": {
        "InChI": "InChI=1S/C19H23NO3S/c1-14-19(2,3)18-16-9-5-4-8-15(16)10-11-17(18)20(14)12-6-7-13-24(21,22)23/h4-5,8-11H,6-7,12-13H2,1-3H3",
        "InChIKey": null,
        "Canonical SMILES": "O=S(=O)([O-])CCCC[N+]=1C=2C=CC=3C=CC=CC3C2C(C1C)(C)C",
        "Molecular Formula": "C<sub>19</sub>H<sub>23</sub>NO<sub>3</sub>S",
        "Molecular Mass": "",
        "Melting Point": "263 °C"
    }
}