{
    "cas_no": "57-55-6",
    "key_name": "(±)-Propylene glycol",
    "cn_name": "丙二醇;1,2-丙二醇;",
    "alternate_name": "1,2-Propanediol;PG 12;1,2-Dihydroxypropane;Methylethylene glycol;Monopropylene glycol;Propylene glycol;α-Propylene glycol;1,2-Propylene glycol;Sirlene;2,3-Propanediol;Methylethyl glycol;2-Hydroxypropanol;Isopropylene glycol;Solar Winter Ban;Ucar 35;Solargard P;Dowfrost;1000PG;<span class=\"text-smallcaps\">DL</span>-1,2-Propanediol;<em>dl</em>-Propylene glycol;(±)-Propylene glycol;(±)-1,2-Propanediol;(<em>RS</em>)-1,2-Propanediol;1,2-(<em>RS</em>)-Propanediol;NSC 69860;Adeka Propylene Glycol PG-P;PG-T (glycol);PG-T;Adeka PG;ProGlyc 55;Safewing MP-I 1938;Safewing MP-IV 2001;DC 403;Nybrine NFP;Kilfrost ABC-S;Propyless;Kollisolv PG;HCH 195;Susterra PDO;Kilfrost ABC K Plus;Kilfrost DF K Plus;BS 12;Radianol 4713;Radianol 4710;EVO 100;Z-T 10;MeSH ID: D019946;Puraguard USP/EP",
    "duplicated_cas_no": "4254-16-4;63625-56-9;190913-75-8;1194046-20-2",
    "SMILES": "C(CO)(C)O",
    "meta_data": {
        "InChI": "InChI=1S/C3H8O2/c1-3(5)2-4/h3-5H,2H2,1H3",
        "InChIKey": null,
        "Canonical SMILES": "OCC(O)C",
        "Molecular Formula": "C<sub>3</sub>H<sub>8</sub>O<sub>2</sub>",
        "Molecular Mass": "76.09",
        "Boiling Point": "188.2 °C",
        "Melting Point": "-59 °C",
        "Density": "1.036 g/cm³ @ Temp: 25 °C"
    }
}