{
    "cas_no": "26495-91-0",
    "key_name": "<em>N</em>-[(Triethoxysilyl)methyl]cyclohexanamine",
    "cn_name": "环己胺基甲基三乙氧基硅烷;",
    "alternate_name": "Cyclohexanamine, <em>N</em>-[(triethoxysilyl)methyl]-;Cyclohexylamine, <em>N</em>-[(triethoxysilyl)methyl]-;<em>N</em>-[(Triethoxysilyl)methyl]cyclohexanamine;<em>N</em>-Cyclohexyl(aminomethyl)triethoxysilane;[(Cyclohexylamino)methyl]triethoxysilane;<em>N</em>-[(Triethoxysilyl)methyl]cyclohexylamine;Geniosil XL 926;SIC 2464.2",
    "duplicated_cas_no": "",
    "SMILES": "[Si](CNC1CCCCC1)(OCC)(OCC)OCC",
    "meta_data": {
        "InChI": "InChI=1S/C13H29NO3Si/c1-4-15-18(16-5-2,17-6-3)12-14-13-10-8-7-9-11-13/h13-14H,4-12H2,1-3H3",
        "InChIKey": null,
        "Canonical SMILES": "O(CC)[Si](OCC)(OCC)CNC1CCCCC1",
        "Molecular Formula": "C<sub>13</sub>H<sub>29</sub>NO<sub>3</sub>Si",
        "Molecular Mass": "275.46",
        "Boiling Point": "236 °C",
        "Density": "0.95 g/cm³"
    }
}