{
    "cas_no": "2043-54-1",
    "key_name": "1-Iodo-1<em>H</em>,1<em>H</em>,2<em>H</em>,2<em>H</em>-perfluorododecane",
    "cn_name": "1,1,2,2-四氢全氟碘代十二烷;全氟癸基乙基碘;",
    "alternate_name": "Dodecane, 1,1,1,2,2,3,3,4,4,5,5,6,6,7,7,8,8,9,9,10,10-heneicosafluoro-12-iodo-;1,1,1,2,2,3,3,4,4,5,5,6,6,7,7,8,8,9,9,10,10-Heneicosafluoro-12-iodododecane;1-(2-Iodoethyl)heneicosafluorodecane;1-Iodo-1<em>H</em>,1<em>H</em>,2<em>H</em>,2<em>H</em>-perfluorododecane;Perfluorodecylethyl iodide;2-(Perfluorodecyl)ethyl iodide;1-Iodo-2-(perfluorodecanyl)ethane;1<em>H</em>,1<em>H</em>,2<em>H</em>,2<em>H</em>-Perfluorododecyl iodide;1<em>H</em>,1<em>H</em>,2<em>H</em>,2<em>H</em>-Perfluododecyl iodide;1,1,1,2,2,3,3,4,4,5,5,6,6,7,7,8,8,9,9,10,10-Henicosafluoro-12-iodododecane",
    "duplicated_cas_no": "",
    "SMILES": "C(C(C(C(C(C(F)(F)F)(F)F)(F)F)(F)F)(F)F)(C(C(C(C(CCI)(F)F)(F)F)(F)F)(F)F)(F)F",
    "meta_data": {
        "InChI": "InChI=1S/C12H4F21I/c13-3(14,1-2-34)4(15,16)5(17,18)6(19,20)7(21,22)8(23,24)9(25,26)10(27,28)11(29,30)12(31,32)33/h1-2H2",
        "InChIKey": null,
        "Canonical SMILES": "FC(F)(F)C(F)(F)C(F)(F)C(F)(F)C(F)(F)C(F)(F)C(F)(F)C(F)(F)C(F)(F)C(F)(F)CCI",
        "Molecular Formula": "C<sub>12</sub>H<sub>4</sub>F<sub>21</sub>I",
        "Molecular Mass": "674.03",
        "Boiling Point": "108 °C @ Press: 10 Torr"
    }
}