{
    "cas_no": "135-20-6",
    "key_name": "Cupferron",
    "cn_name": "铜铁试剂;N-亚硝基苯胲铵;",
    "alternate_name": "Benzenamine, <em>N</em>-hydroxy-<em>N</em>-nitroso-, ammonium salt (1:1);Hydroxylamine, <em>N</em>-nitroso-<em>N</em>-phenyl-, ammonium salt;Benzenamine, <em>N</em>-hydroxy-<em>N</em>-nitroso-, ammonium salt;Cupferron;<em>N</em>-Nitroso-<em>N</em>-phenylhydroxylamine ammonium salt;<em>N</em>-Nitroso-<em>N</em>-phenylhydroxyamine ammonium salt;Kupferron;Q 1300;<em>N</em>-Nitroso-<em>N</em>-phenylhydroxyamine-ammonium compd.;Ammonium <em>N</em>-nitroso-<em>N</em>-phenylhydroxylamine;Ammonium <em>N</em>-nitroso-<em>N</em>-phenylhydroxylaminato",
    "duplicated_cas_no": "7564-70-7;21255-91-4;125141-56-2;862780-68-5;1313437-27-2",
    "SMILES": "N(N=O)(O)C1=CC=CC=C1.N",
    "meta_data": {
        "InChI": "InChI=1S/C6H6N2O2.H3N/c9-7-8(10)6-4-2-1-3-5-6;/h1-5,10H;1H3",
        "InChIKey": null,
        "Canonical SMILES": "O=NN(O)C=1C=CC=CC1.N",
        "Molecular Formula": "C<sub>6</sub>H<sub>6</sub>N<sub>2</sub>O<sub>2</sub>.H<sub>3</sub>N",
        "Molecular Mass": "",
        "Melting Point": "163-164 °C"
    }
}