{
    "cas_no": "290297-26-6",
    "key_name": "Netupitant",
    "cn_name": null,
    "alternate_name": "Benzeneacetamide, <em>N</em>,α,α-trimethyl-<em>N</em>-[4-(2-methylphenyl)-6-(4-methyl-1-piperazinyl)-3-pyridinyl]-3,5-bis(trifluoromethyl)-;<em>N</em>,α,α-Trimethyl-<em>N</em>-[4-(2-methylphenyl)-6-(4-methyl-1-piperazinyl)-3-pyridinyl]-3,5-bis(trifluoromethyl)benzeneacetamide;Netupitant;Ro 67-31898/000;2-[3,5-Bis(trifluoromethyl)phenyl]-<em>N</em>-[6-(4-methylpiperazin-1-yl)-4-<em>o</em>-tolylpyridin-3-yl]-<em>N</em>-methylisobutyramide;2-[3,5-Bis(trifluoromethyl)phenyl]-<em>N</em>,2-dimethyl-<em>N</em>-[4-(2-methylphenyl)-6-(4-methylpiperazin-1-yl)pyridin-3-yl]propanamide",
    "duplicated_cas_no": "",
    "SMILES": "N(C(C(C)(C)C1=CC(C(F)(F)F)=CC(C(F)(F)F)=C1)=O)(C)C=2C(=CC(=NC2)N3CCN(C)CC3)C4=C(C)C=CC=C4",
    "meta_data": {
        "InChI": "InChI=1S/C30H32F6N4O/c1-19-8-6-7-9-23(19)24-17-26(40-12-10-38(4)11-13-40)37-18-25(24)39(5)27(41)28(2,3)20-14-21(29(31,32)33)16-22(15-20)30(34,35)36/h6-9,14-18H,10-13H2,1-5H3",
        "InChIKey": null,
        "Canonical SMILES": "O=C(N(C1=CN=C(C=C1C=2C=CC=CC2C)N3CCN(C)CC3)C)C(C=4C=C(C=C(C4)C(F)(F)F)C(F)(F)F)(C)C",
        "Molecular Formula": "C<sub>30</sub>H<sub>32</sub>F<sub>6</sub>N<sub>4</sub>O",
        "Molecular Mass": "578.59",
        "Melting Point": "156.2-160.0 °C"
    }
}