{
    "cas_no": "5345-42-6",
    "key_name": "1-Methoxy-3-methyl-2-nitrobenzene",
    "cn_name": "3-甲基-2-硝基苯甲醚;2-硝基-3-甲基苯甲醚;",
    "alternate_name": "Benzene, 1-methoxy-3-methyl-2-nitro-;Anisole, 3-methyl-2-nitro-;1-Methoxy-3-methyl-2-nitrobenzene;3-Methyl-2-nitroanisole;3-Methoxy-2-nitrotoluene;NSC 3040",
    "duplicated_cas_no": "",
    "SMILES": "N(=O)(=O)C1=C(OC)C=CC=C1C",
    "meta_data": {
        "InChI": "InChI=1S/C8H9NO3/c1-6-4-3-5-7(12-2)8(6)9(10)11/h3-5H,1-2H3",
        "InChIKey": null,
        "Canonical SMILES": "O=N(=O)C=1C(OC)=CC=CC1C",
        "Molecular Formula": "C<sub>8</sub>H<sub>9</sub>NO<sub>3</sub>",
        "Molecular Mass": "167.16",
        "Melting Point": "54 °C"
    }
}