{
    "cas_no": "19654-19-4",
    "key_name": "2-(4-Bromophenyl)benzothiazole",
    "cn_name": "2-(4-溴苯基)苯并噻唑;",
    "alternate_name": "Benzothiazole, 2-(4-bromophenyl)-;Benzothiazole, 2-(<em>p</em>-bromophenyl)-;2-(4-Bromophenyl)benzothiazole;2-(4′-Bromophenyl)benzothiazole;2-(<em>p</em>-Bromophenyl)benzothiazole;2-(4-Bromophenyl)-1,3-benzothiazole;2-(4′-Bromophenyl)benzo[<em>d</em>]thiazole;2-(4-Bromophenyl)benzo[<em>d</em>]thiazole",
    "duplicated_cas_no": "",
    "SMILES": "BrC1=CC=C(C2=NC=3C(S2)=CC=CC3)C=C1",
    "meta_data": {
        "InChI": "InChI=1S/C13H8BrNS/c14-10-7-5-9(6-8-10)13-15-11-3-1-2-4-12(11)16-13/h1-8H",
        "InChIKey": null,
        "Canonical SMILES": "BrC1=CC=C(C=C1)C2=NC=3C=CC=CC3S2",
        "Molecular Formula": "C<sub>13</sub>H<sub>8</sub>BrNS",
        "Molecular Mass": "290.18",
        "Melting Point": "132 °C"
    }
}