{
    "cas_no": "70264-94-7",
    "key_name": "Methyl 4-(bromomethyl)-3-methoxybenzoate",
    "cn_name": "4-溴甲基-3-甲氧基苯甲酸甲酯;",
    "alternate_name": "Benzoic acid, 4-(bromomethyl)-3-methoxy-, methyl ester;Methyl 4-(bromomethyl)-3-methoxybenzoate;4-(Bromomethyl)-3-methoxybenzoic acid methyl ester;3-Methoxy-4-(bromomethyl)benzoic acid methyl ester;Methyl 4-(bromomethyl)-3-(methyloxy)benzoate;Methyl 4-(2-bromoethyl)-3-methoxybenzoate",
    "duplicated_cas_no": "540497-64-1",
    "SMILES": "O(C)C1=C(CBr)C=CC(C(OC)=O)=C1",
    "meta_data": {
        "InChI": "InChI=1S/C10H11BrO3/c1-13-9-5-7(10(12)14-2)3-4-8(9)6-11/h3-5H,6H2,1-2H3",
        "InChIKey": null,
        "Canonical SMILES": "O=C(OC)C1=CC=C(C(OC)=C1)CBr",
        "Molecular Formula": "C<sub>10</sub>H<sub>11</sub>BrO<sub>3</sub>",
        "Molecular Mass": "259.10",
        "Melting Point": "87-89 °C"
    }
}