{
    "cas_no": "6508-04-9",
    "key_name": "4,4′-Oxybis[benzonitrile]",
    "cn_name": "二(4-氰苯基)醚;",
    "alternate_name": "Benzonitrile, 4,4′-oxybis-;Benzonitrile, 4,4′-oxydi-;4,4′-Oxybis[benzonitrile];4,4′-Dicyanodiphenyl ether;4,4′-Oxydi[benzonitrile];Bis(4-cyanophenyl) ether;NSC 87869",
    "duplicated_cas_no": "",
    "SMILES": "O(C1=CC=C(C#N)C=C1)C2=CC=C(C#N)C=C2",
    "meta_data": {
        "InChI": "InChI=1S/C14H8N2O/c15-9-11-1-5-13(6-2-11)17-14-7-3-12(10-16)4-8-14/h1-8H",
        "InChIKey": null,
        "Canonical SMILES": "N#CC1=CC=C(OC2=CC=C(C#N)C=C2)C=C1",
        "Molecular Formula": "C<sub>14</sub>H<sub>8</sub>N<sub>2</sub>O",
        "Molecular Mass": "220.23",
        "Boiling Point": "220 °C @ Press: 1 Torr",
        "Melting Point": "176-178 °C"
    }
}