{
    "cas_no": "14133-90-5",
    "key_name": "4-Hydroxypropranolol hydrochloride",
    "cn_name": null,
    "alternate_name": "1-Naphthalenol, 4-[2-hydroxy-3-[(1-methylethyl)amino]propoxy]-, hydrochloride (1:1);2-Propanol, 1-[(4-hydroxy-1-naphthyl)oxy]-3-(isopropylamino)-, hydrochloride;1-Naphthalenol, 4-[2-hydroxy-3-[(1-methylethyl)amino]propoxy]-, hydrochloride;4-Hydroxypropranolol hydrochloride",
    "duplicated_cas_no": "69233-16-5",
    "SMILES": "O(CC(CNC(C)C)O)C=1C2=C(C(O)=CC1)C=CC=C2.Cl",
    "meta_data": {
        "InChI": "InChI=1S/C16H21NO3.ClH/c1-11(2)17-9-12(18)10-20-16-8-7-15(19)13-5-3-4-6-14(13)16;/h3-8,11-12,17-19H,9-10H2,1-2H3;1H",
        "InChIKey": null,
        "Canonical SMILES": "Cl.OC1=CC=C(OCC(O)CNC(C)C)C=2C=CC=CC12",
        "Molecular Formula": "C<sub>16</sub>H<sub>21</sub>NO<sub>3</sub>.ClH",
        "Molecular Mass": "",
        "Melting Point": "176-178 °C"
    }
}