{
    "cas_no": "2785-89-9",
    "key_name": "4-Ethylguaiacol",
    "cn_name": "4-乙基-2-甲氧基苯酚;2-甲氧基-4-乙基苯酚;4-乙基愈创木酚;",
    "alternate_name": "Phenol, 4-ethyl-2-methoxy-;Guaiacol, 4-ethyl-;4-Ethyl-2-methoxyphenol;<em>p</em>-Ethylguaiacol;4-Ethylguaiacol;4-Hydroxy-3-methoxyethylbenzene;2-Methoxy-4-ethylphenol;Guaiacyl ethane;4-Hydroxy-3-methoxyphenylethane;NSC 82313",
    "duplicated_cas_no": "",
    "SMILES": "O(C)C1=CC(CC)=CC=C1O",
    "meta_data": {
        "InChI": "InChI=1S/C9H12O2/c1-3-7-4-5-8(10)9(6-7)11-2/h4-6,10H,3H2,1-2H3",
        "InChIKey": null,
        "Canonical SMILES": "OC1=CC=C(C=C1OC)CC",
        "Molecular Formula": "C<sub>9</sub>H<sub>12</sub>O<sub>2</sub>",
        "Molecular Mass": "152.19",
        "Boiling Point": "236.5 °C",
        "Melting Point": "-7 °C",
        "Density": "1.063 x 10⁻³ g/cm³"
    }
}