{
    "cas_no": "51-48-9",
    "key_name": "(-)-Thyroxine",
    "cn_name": "L-甲状腺素;O-(4-羟基-3,5-二碘苯基)-3,5-二碘-L-酪氨酸;",
    "alternate_name": "<span class=\"text-smallcaps\">L</span>-Tyrosine, <em>O</em>-(4-hydroxy-3,5-diiodophenyl)-3,5-diiodo-;Thyroxine, <span class=\"text-smallcaps\">L</span>-;<em>O</em>-(4-Hydroxy-3,5-diiodophenyl)-3,5-diiodo-<span class=\"text-smallcaps\">L</span>-tyrosine;Thyroxine;Tetraiodothyronine;<span class=\"text-smallcaps\">L</span>-Thyroxine;3,3′,5,5′-Tetraiodo-<span class=\"text-smallcaps\">L</span>-thyronine;Levothyroxine;Thyroxin;(-)-Thyroxine;THX;T<sub>4</sub>;T<sub>4</sub> (hormone);Thyreoideum;<span class=\"text-smallcaps\">L</span>-Thyroxin;<span class=\"text-smallcaps\">L</span>-T<sub>4</sub>;Thyroxinal;Thyrax;NSC 36397;Henning;Levotiron;SK&amp;F 1-6528;MeSH ID: D013974",
    "duplicated_cas_no": "74-16-8;587-29-1;587-30-4;7200-84-2;7488-70-2;1373931-44-2",
    "SMILES": "O(C1=CC(I)=C(O)C(I)=C1)C2=C(I)C=C(C[C@@H](C(O)=O)N)C=C2I",
    "meta_data": {
        "InChI": "InChI=1S/C15H11I4NO4/c16-8-4-7(5-9(17)13(8)21)24-14-10(18)1-6(2-11(14)19)3-12(20)15(22)23/h1-2,4-5,12,21H,3,20H2,(H,22,23)/t12-/m0/s1",
        "InChIKey": null,
        "Canonical SMILES": "O=C(O)C(N)CC1=CC(I)=C(OC2=CC(I)=C(O)C(I)=C2)C(I)=C1",
        "Molecular Formula": "C<sub>15</sub>H<sub>11</sub>I<sub>4</sub>NO<sub>4</sub>",
        "Molecular Mass": "776.87",
        "Melting Point": "235-236 °C (decomp)"
    }
}