{
    "cas_no": "17289-30-4",
    "key_name": "1<em>H</em>-Imidazole, 4-(chloromethyl)-1-methyl-, hydrochloride (1:1)",
    "cn_name": null,
    "alternate_name": "1<em>H</em>-Imidazole, 4-(chloromethyl)-1-methyl-, hydrochloride (1:1);Imidazole, 4-(chloromethyl)-1-methyl-, monohydrochloride;1<em>H</em>-Imidazole, 4-(chloromethyl)-1-methyl-, monohydrochloride;4-(Chloromethyl)-1-methylimidazole hydrochloride;1-Methyl-4-chloromethylimidazole hydrochloride;4-(Chloromethyl)-1-methyl-1<em>H</em>-imidazole hydrochloride",
    "duplicated_cas_no": "",
    "SMILES": "C(Cl)C1=CN(C)C=N1.Cl",
    "meta_data": {
        "InChI": "InChI=1S/C5H7ClN2.ClH/c1-8-3-5(2-6)7-4-8;/h3-4H,2H2,1H3;1H",
        "InChIKey": null,
        "Canonical SMILES": "Cl.ClCC=1N=CN(C1)C",
        "Molecular Formula": "C<sub>5</sub>H<sub>7</sub>ClN<sub>2</sub>.ClH",
        "Molecular Mass": "",
        "Melting Point": "153-154 °C"
    }
}