{
    "cas_no": "1075-76-9",
    "key_name": "3-(Phenylamino)propanenitrile",
    "cn_name": "3-(苯氨基)丙腈;N-氰乙基苯胺;",
    "alternate_name": "Propanenitrile, 3-(phenylamino)-;Propionitrile, 3-anilino-;3-(Phenylamino)propanenitrile;<em>N</em>-(β-Cyanoethyl)aniline;β-Anilinopropionitrile;3-Anilinopropionitrile;<em>N</em>-(2-Cyanoethyl)aniline;<em>N</em>-(Cyanoethyl)aniline;(β-Cyanoethyl)aniline;3-(Phenylamino)propionitrile;NSC 80663;3-(<em>N</em>-Phenylamino)propionitrile;3-Anilinopropanenitrile",
    "duplicated_cas_no": "",
    "SMILES": "N(CCC#N)C1=CC=CC=C1",
    "meta_data": {
        "InChI": "InChI=1S/C9H10N2/c10-7-4-8-11-9-5-2-1-3-6-9/h1-3,5-6,11H,4,8H2",
        "InChIKey": null,
        "Canonical SMILES": "N#CCCNC=1C=CC=CC1",
        "Molecular Formula": "C<sub>9</sub>H<sub>10</sub>N<sub>2</sub>",
        "Molecular Mass": "146.19",
        "Boiling Point": "171 °C @ Press: 10 Torr",
        "Melting Point": "49 °C",
        "Density": "0.9480 g/cm³ @ Temp: 20 °C"
    }
}