{
    "cas_no": "19241-35-1",
    "key_name": "Benzene, 1-chloro-3-isothiocyanato-2-methyl-",
    "cn_name": "3-氯-2-甲基苯基异硫氰酸酯;",
    "alternate_name": "Benzene, 1-chloro-3-isothiocyanato-2-methyl-;Isothiocyanic acid, 3-chloro-<em>o</em>-tolyl ester;Toluene, 2-chloro-6-isothiocyanato-;3-Chloro-<em>o</em>-tolyl isothiocyanate;3-Chloro-2-methylphenyl isothiocyanate;NSC 134676;1-Chloro-3-isothiocyanato-2-methylbenzene",
    "duplicated_cas_no": "",
    "SMILES": "N(=C=S)C1=C(C)C(Cl)=CC=C1",
    "meta_data": {
        "InChI": "InChI=1S/C8H6ClNS/c1-6-7(9)3-2-4-8(6)10-5-11/h2-4H,1H3",
        "InChIKey": null,
        "Canonical SMILES": "S=C=NC=1C=CC=C(Cl)C1C",
        "Molecular Formula": "C<sub>8</sub>H<sub>6</sub>ClNS",
        "Molecular Mass": "183.66",
        "Boiling Point": "99 °C @ Press: 2-3 Torr"
    }
}