{
    "cas_no": "298-96-4",
    "key_name": "Triphenyltetrazolium chloride",
    "cn_name": "2,3,5-三苯基氯化四氮唑;氯化三苯基四氮唑;",
    "alternate_name": "2<em>H</em>-Tetrazolium, 2,3,5-triphenyl-, chloride (1:1);2,3,5-Triphenyl-2<em>H</em>-tetrazolium chloride;2<em>H</em>-Tetrazolium, 2,3,5-triphenyl-, chloride;PTB;Red tetrazolium;RT;TPTZ;2,3,5-Triphenyltetrazolium chloride;Triphenyltetrazolium chloride;TTC;Vitastain;Tetrazolium chloride;TT;Uroscreen;1,3,5-Triphenyl-2<em>H</em>-tetrazolium chloride;1,3,5-Triphenyltetrazolium chloride;Urocheck;Tetrazolium red;TTC (dye);2,3,5-Triphenyltetrazolium chloride staining;Triphenyl tetrazolium chloride staining;TTC staining",
    "duplicated_cas_no": "52230-05-4;80949-00-4",
    "SMILES": "N1([N+](=NC(=N1)C2=CC=CC=C2)C3=CC=CC=C3)C4=CC=CC=C4.[Cl-]",
    "meta_data": {
        "InChI": "InChI=1S/C19H15N4.ClH/c1-4-10-16(11-5-1)19-20-22(17-12-6-2-7-13-17)23(21-19)18-14-8-3-9-15-18;/h1-15H;1H/q+1;/p-1",
        "InChIKey": null,
        "Canonical SMILES": "[Cl-].N1=C(N=[N+](C=2C=CC=CC2)N1C=3C=CC=CC3)C=4C=CC=CC4",
        "Molecular Formula": "C<sub>19</sub>H<sub>15</sub>N<sub>4</sub>.Cl",
        "Molecular Mass": "",
        "Melting Point": "243 °C (decomp)"
    }
}