{
    "cas_no": "38421-90-8",
    "key_name": "(<em>E</em>)-5-Decenyl acetate",
    "cn_name": "(E)-5-癸烯基乙酸;",
    "alternate_name": "5-Decen-1-ol, 1-acetate, (5<em>E</em>)-;5-Decen-1-ol, acetate, (<em>E</em>)-;5-Decen-1-ol, acetate, (5<em>E</em>)-;<em>trans</em>-5-Decenyl acetate;(<em>E</em>)-5-Decenyl acetate;<em>E</em>-5-Decen-1-yl acetate;(<em>E</em>)-5-Decen-1-ol acetate;(5<em>E</em>)-5-Decen-1-ol acetate",
    "duplicated_cas_no": "",
    "SMILES": "C(CC/C=C/CCCC)COC(C)=O",
    "meta_data": {
        "InChI": "InChI=1S/C12H22O2/c1-3-4-5-6-7-8-9-10-11-14-12(2)13/h6-7H,3-5,8-11H2,1-2H3/b7-6+",
        "InChIKey": null,
        "Canonical SMILES": "O=C(OCCCCC=CCCCC)C",
        "Molecular Formula": "C<sub>12</sub>H<sub>22</sub>O<sub>2</sub>",
        "Molecular Mass": "198.30",
        "Boiling Point": "85-105 °C"
    }
}