{
    "cas_no": "445-13-6",
    "key_name": "3-Chloro-4-trifluoromethylaniline",
    "cn_name": "4-氨基-2-氯三氟甲苯; 3-氯-4-(三氟甲基)苯胺;",
    "alternate_name": "Benzenamine, 3-chloro-4-(trifluoromethyl)-;<em>p</em>-Toluidine, 3-chloro-α,α,α-trifluoro-;3-Chloro-4-(trifluoromethyl)benzenamine;4-Amino-2-chlorobenzotrifluoride;3-Chloro-4-trifluoromethylaniline;(3-Chloro-4-trifluoromethylphenyl)amine;3-Chloro-4-trifluoromethylbenzenamine",
    "duplicated_cas_no": "",
    "SMILES": "C(F)(F)(F)C1=C(Cl)C=C(N)C=C1",
    "meta_data": {
        "InChI": "InChI=1S/C7H5ClF3N/c8-6-3-4(12)1-2-5(6)7(9,10)11/h1-3H,12H2",
        "InChIKey": null,
        "Canonical SMILES": "FC(F)(F)C1=CC=C(N)C=C1Cl",
        "Molecular Formula": "C<sub>7</sub>H<sub>5</sub>ClF<sub>3</sub>N",
        "Molecular Mass": "195.57",
        "Boiling Point": "112-115 °C"
    }
}