{
    "cas_no": "7057-33-2",
    "key_name": "3′-Deoxycytidine",
    "cn_name": "3-脱氧胞苷;3-脱氧胞苷;",
    "alternate_name": "Cytidine, 3′-deoxy-;3′-Deoxycytidine",
    "duplicated_cas_no": "",
    "SMILES": "O[C@H]1[C@@H](O[C@H](CO)C1)N2C(=O)N=C(N)C=C2",
    "meta_data": {
        "InChI": "InChI=1S/C9H13N3O4/c10-7-1-2-12(9(15)11-7)8-6(14)3-5(4-13)16-8/h1-2,5-6,8,13-14H,3-4H2,(H2,10,11,15)/t5-,6+,8+/m0/s1",
        "InChIKey": null,
        "Canonical SMILES": "O=C1N=C(N)C=CN1C2OC(CO)CC2O",
        "Molecular Formula": "C<sub>9</sub>H<sub>13</sub>N<sub>3</sub>O<sub>4</sub>",
        "Molecular Mass": "227.22",
        "Melting Point": "230-232 °C"
    }
}