{
    "cas_no": "3069-42-9",
    "key_name": "Octadecyltrimethoxysilane",
    "cn_name": "十八烷基三甲氧基硅烷;",
    "alternate_name": "Silane, trimethoxyoctadecyl-;Trimethoxyoctadecylsilane;Stearyltrimethoxysilane;Octadecyltrimethoxysilane;LSX 6817;TSL 8185;<em>n</em>-Octadecyltrimethoxysilane;TSL 8186;M 1;M 1 (silane);AY 43-218MC;Dynasylan 9118;O 0256;KH 311;KH 1831;C 18TMS",
    "duplicated_cas_no": "1253692-82-8",
    "SMILES": "[Si](CCCCCCCCCCCCCCCCCC)(OC)(OC)OC",
    "meta_data": {
        "InChI": "InChI=1S/C21H46O3Si/c1-5-6-7-8-9-10-11-12-13-14-15-16-17-18-19-20-21-25(22-2,23-3)24-4/h5-21H2,1-4H3",
        "InChIKey": null,
        "Canonical SMILES": "O(C)[Si](OC)(OC)CCCCCCCCCCCCCCCCCC",
        "Molecular Formula": "C<sub>21</sub>H<sub>46</sub>O<sub>3</sub>Si",
        "Molecular Mass": "374.67",
        "Boiling Point": "170 °C @ Press: 0.1 Torr",
        "Melting Point": "13-17 °C",
        "Density": "0.885 g/cm³"
    }
}