{
    "cas_no": "6484-25-9",
    "key_name": "4-Chloro-2-phenylquinazoline",
    "cn_name": "4-氯-2-苯基喹唑啉;",
    "alternate_name": "Quinazoline, 4-chloro-2-phenyl-;4-Chloro-2-phenylquinazoline;2-Phenyl-4-chloroquinazoline;NSC 400965",
    "duplicated_cas_no": "1616976-54-5;2561442-56-4",
    "SMILES": "ClC=1C2=C(N=C(N1)C3=CC=CC=C3)C=CC=C2",
    "meta_data": {
        "InChI": "InChI=1S/C14H9ClN2/c15-13-11-8-4-5-9-12(11)16-14(17-13)10-6-2-1-3-7-10/h1-9H",
        "InChIKey": null,
        "Canonical SMILES": "ClC=1N=C(N=C2C=CC=CC12)C=3C=CC=CC3",
        "Molecular Formula": "C<sub>14</sub>H<sub>9</sub>ClN<sub>2</sub>",
        "Molecular Mass": "240.69",
        "Melting Point": "124-124.5 °C"
    }
}