{
    "cas_no": "16227-12-6",
    "key_name": "4-Phenyl-4<em>H</em>-1,2,4-triazole",
    "cn_name": null,
    "alternate_name": "4<em>H</em>-1,2,4-Triazole, 4-phenyl-;4-Phenyl-4<em>H</em>-1,2,4-triazole;4-Phenyl-1,2,4-triazole;1-Phenyl-1,3,4-triazole",
    "duplicated_cas_no": "",
    "SMILES": "N1(C=NN=C1)C2=CC=CC=C2",
    "meta_data": {
        "InChI": "InChI=1S/C8H7N3/c1-2-4-8(5-3-1)11-6-9-10-7-11/h1-7H",
        "InChIKey": null,
        "Canonical SMILES": "N=1N=CN(C1)C=2C=CC=CC2",
        "Molecular Formula": "C<sub>8</sub>H<sub>7</sub>N<sub>3</sub>",
        "Molecular Mass": "145.16",
        "Melting Point": "122 °C"
    }
}