{
    "cas_no": "105-61-3",
    "key_name": "(2<em>Z</em>)-4-[(Aminocarbonyl)amino]-4-oxo-2-butenoic acid",
    "cn_name": "N-氨基甲酰马来酸;氨基甲酰胺;N-氨基甲酰马来酸;",
    "alternate_name": "2-Butenoic acid, 4-[(aminocarbonyl)amino]-4-oxo-, (2<em>Z</em>)-;Maleamic acid, <em>N</em>-carbamoyl-;2-Butenoic acid, 4-[(aminocarbonyl)amino]-4-oxo-, (<em>Z</em>)-;(2<em>Z</em>)-4-[(Aminocarbonyl)amino]-4-oxo-2-butenoic acid;<em>N</em>-Carbamoylmaleamic acid;Maleinuric acid;Maleuric acid;Maleylurea;Maleic acid monoureide",
    "duplicated_cas_no": "",
    "SMILES": "C(/C=C\\C(O)=O)(NC(N)=O)=O",
    "meta_data": {
        "InChI": "InChI=1S/C5H6N2O4/c6-5(11)7-3(8)1-2-4(9)10/h1-2H,(H,9,10)(H3,6,7,8,11)/b2-1-",
        "InChIKey": null,
        "Canonical SMILES": "O=C(O)C=CC(=O)NC(=O)N",
        "Molecular Formula": "C<sub>5</sub>H<sub>6</sub>N<sub>2</sub>O<sub>4</sub>",
        "Molecular Mass": "158.11",
        "Melting Point": "156-160 °C (decomp)"
    }
}