{
    "cas_no": "506-64-9",
    "key_name": "Silver cyanide (Ag(CN))",
    "cn_name": null,
    "alternate_name": "Silver cyanide (Ag(CN));Silver(1+) cyanide;Silver cyanide (Ag<sub>2</sub>(CN)<sub>2</sub>);Silver(I) cyanide;Silver monocyanide;Argentous cyanide",
    "duplicated_cas_no": "12351-98-3;29829-51-4;2219294-82-1",
    "SMILES": "C([Ag])#N",
    "meta_data": {
        "InChI": "InChI=1S/CN.Ag/c1-2;",
        "InChIKey": null,
        "Canonical SMILES": "N#C[Ag]",
        "Molecular Formula": "CAgN",
        "Molecular Mass": "",
        "Melting Point": "320 °C (decomp)"
    }
}