{
    "cas_no": "706-79-6",
    "key_name": "1,2-Dichloro-3,3,4,4,5,5-hexafluorocyclopentene",
    "cn_name": "1,2-二氯六氟环戊烯;",
    "alternate_name": "Cyclopentene, 1,2-dichloro-3,3,4,4,5,5-hexafluoro-;Cyclopentene, 1,2-dichlorohexafluoro-;1,2-Dichloro-3,3,4,4,5,5-hexafluorocyclopentene;1,2-Dichloroperfluorocyclopentene;1,2-Dichlorohexafluorocyclopentene;1,2-Dichloro-3,3,4,4,5,5-hexafluoro-1-cyclopentene;NSC 41877;1,2-Dichlorohexafluorocyclopent-1-ene;3,3,4,4,5,5-Hexafluoro-1,2-dichlorocyclopentene",
    "duplicated_cas_no": "",
    "SMILES": "FC1(F)C(F)(F)C(Cl)=C(Cl)C1(F)F",
    "meta_data": {
        "InChI": "InChI=1S/C5Cl2F6/c6-1-2(7)4(10,11)5(12,13)3(1,8)9",
        "InChIKey": null,
        "Canonical SMILES": "FC1(F)C(Cl)=C(Cl)C(F)(F)C1(F)F",
        "Molecular Formula": "C<sub>5</sub>Cl<sub>2</sub>F<sub>6</sub>",
        "Molecular Mass": "244.95",
        "Boiling Point": "90.7 °C",
        "Melting Point": "-105.8 °C",
        "Density": "1.6546 g/cm³ @ Temp: 20 °C"
    }
}