{
    "cas_no": "956003-79-5",
    "key_name": "5-Bromo-8-chloroisoquinoline",
    "cn_name": null,
    "alternate_name": "Isoquinoline, 5-bromo-8-chloro-;5-Bromo-8-chloroisoquinoline",
    "duplicated_cas_no": "",
    "SMILES": "BrC=1C2=C(C(Cl)=CC1)C=NC=C2",
    "meta_data": {
        "InChI": "InChI=1S/C9H5BrClN/c10-8-1-2-9(11)7-5-12-4-3-6(7)8/h1-5H",
        "InChIKey": null,
        "Canonical SMILES": "ClC1=CC=C(Br)C=2C=CN=CC12",
        "Molecular Formula": "C<sub>9</sub>H<sub>5</sub>BrClN",
        "Molecular Mass": "242.50",
        "Melting Point": "111-114 °C"
    }
}