{
    "cas_no": "179897-94-0",
    "key_name": "5-Fluoro-2-methoxyphenylboronic acid",
    "cn_name": "5-氟-2-甲氧基苯硼酸;",
    "alternate_name": "Boronic acid, <em>B</em>-(5-fluoro-2-methoxyphenyl)-;Boronic acid, (5-fluoro-2-methoxyphenyl)-;<em>B</em>-(5-Fluoro-2-methoxyphenyl)boronic acid;5-Fluoro-2-methoxyphenylboronic acid;2-Methoxy-5-fluorophenylboronic acid",
    "duplicated_cas_no": "",
    "SMILES": "B(O)(O)C1=C(OC)C=CC(F)=C1",
    "meta_data": {
        "InChI": "InChI=1S/C7H8BFO3/c1-12-7-3-2-5(9)4-6(7)8(10)11/h2-4,10-11H,1H3",
        "InChIKey": null,
        "Canonical SMILES": "FC1=CC=C(OC)C(=C1)B(O)O",
        "Molecular Formula": "C<sub>7</sub>H<sub>8</sub>BFO<sub>3</sub>",
        "Molecular Mass": "169.95",
        "Melting Point": "156-158 °C"
    }
}