{
    "cas_no": "39515-40-7",
    "key_name": "Cyphenothrin",
    "cn_name": "苯氰菊酯;右旋苯醚氰菊酯;右旋-顺反式-2,2-二甲基-3-(2-甲基-1-丙烯基)环丙烷羧酸-(+/-)-2-氰基-3-苯氧基苄;",
    "alternate_name": "Cyclopropanecarboxylic acid, 2,2-dimethyl-3-(2-methyl-1-propen-1-yl)-, cyano(3-phenoxyphenyl)methyl ester;Cyclopropanecarboxylic acid, 2,2-dimethyl-3-(2-methyl-1-propenyl)-, cyano(3-phenoxyphenyl)methyl ester;α-Cyano-<em>m</em>-phenoxybenzyl 2,2-dimethyl-3-(2-methylpropenyl)cyclopropanecarboxylate;SP 2703;Cyphenothrin;S 2703;α-Cyano-3-phenoxybenzyl chrysanthemate;S 2703 forte;Gokilaht;Chifenothrine;Rarappu MC;2,2-Dimethyl-3-(2-methyl-1-propenyl)cyclopropane carboxylic acid cyano(3-phenoxyphenyl)methyl ester;Cyano-3-phenoxybenzyl 2,2-dimethyl-3-(2-methyl-1-propenyl)cyclopropanecarboxylate;d-<em>trans</em>-Cyphenothrin",
    "duplicated_cas_no": "",
    "SMILES": "C(OC(C#N)C1=CC(OC2=CC=CC=C2)=CC=C1)(=O)C3C(C=C(C)C)C3(C)C",
    "meta_data": {
        "InChI": "InChI=1S/C24H25NO3/c1-16(2)13-20-22(24(20,3)4)23(26)28-21(15-25)17-9-8-12-19(14-17)27-18-10-6-5-7-11-18/h5-14,20-22H,1-4H3",
        "InChIKey": null,
        "Canonical SMILES": "N#CC(OC(=O)C1C(C=C(C)C)C1(C)C)C=2C=CC=C(OC=3C=CC=CC3)C2",
        "Molecular Formula": "C<sub>24</sub>H<sub>25</sub>NO<sub>3</sub>",
        "Molecular Mass": "375.46",
        "Boiling Point": "154 °C",
        "Melting Point": "&lt;25 °C"
    }
}