{
    "cas_no": "6795-23-9",
    "key_name": "Aflatoxin M<sub>1</sub>",
    "cn_name": null,
    "alternate_name": "Cyclopenta[<em>c</em>]furo[3′,2′:4,5]furo[2,3-<em>h</em>][1]benzopyran-1,11-dione, 2,3,6a,9a-tetrahydro-9a-hydroxy-4-methoxy-, (6a<em>R</em>,9a<em>R</em>)-;Cyclopenta[<em>c</em>]furo[3′,2′:4,5]furo[2,3-<em>h</em>][1]benzopyran-1,11-dione, 2,3,6a,9a-tetrahydro-9a-hydroxy-4-methoxy-, (6a<em>R</em>-<em>cis</em>)-;1-Cyclopentene-1-carboxylic acid, 2-(3a,8a-dihydro-3a,4-dihydroxy-6-methoxyfuro[2,3-<em>b</em>]benzofuran-5-yl)-5-oxo-, δ-lactone;(6a<em>R</em>,9a<em>R</em>)-2,3,6a,9a-Tetrahydro-9a-hydroxy-4-methoxycyclopenta[<em>c</em>]furo[3′,2′:4,5]furo[2,3-<em>h</em>][1]benzopyran-1,11-dione;AFM<sub>1</sub>;Aflatoxin M<sub>1</sub>;MeSH ID: D016607",
    "duplicated_cas_no": "",
    "SMILES": "O[C@]12C=3C4=C(C5=C(C(=O)O4)C(=O)CC5)C(OC)=CC3O[C@]1(OC=C2)[H]",
    "meta_data": {
        "InChI": "InChI=1S/C17H12O7/c1-21-9-6-10-13(17(20)4-5-22-16(17)23-10)14-12(9)7-2-3-8(18)11(7)15(19)24-14/h4-6,16,20H,2-3H2,1H3/t16-,17-/m1/s1",
        "InChIKey": null,
        "Canonical SMILES": "O=C1OC2=C(C(OC)=CC=3OC4OC=CC4(O)C32)C5=C1C(=O)CC5",
        "Molecular Formula": "C<sub>17</sub>H<sub>12</sub>O<sub>7</sub>",
        "Molecular Mass": "328.27",
        "Melting Point": "299 °C"
    }
}