{
    "cas_no": "68432-95-1",
    "key_name": "3-Carboxy-α-methylbenzeneacetic acid",
    "cn_name": null,
    "alternate_name": "Benzeneacetic acid, 3-carboxy-α-methyl-;3-Carboxy-α-methylbenzeneacetic acid;DF 2008Y;3-(1-Carboxyethyl)benzoic acid",
    "duplicated_cas_no": "",
    "SMILES": "C(C(O)=O)(C)C1=CC(C(O)=O)=CC=C1",
    "meta_data": {
        "InChI": "InChI=1S/C10H10O4/c1-6(9(11)12)7-3-2-4-8(5-7)10(13)14/h2-6H,1H3,(H,11,12)(H,13,14)",
        "InChIKey": null,
        "Canonical SMILES": "O=C(O)C1=CC=CC(=C1)C(C(=O)O)C",
        "Molecular Formula": "C<sub>10</sub>H<sub>10</sub>O<sub>4</sub>",
        "Molecular Mass": "194.18",
        "Melting Point": "158-160 °C"
    }
}