{
    "cas_no": "2516-93-0",
    "key_name": "Butoxyacetic acid",
    "cn_name": "2-丁氧基乙酸;",
    "alternate_name": "Acetic acid, 2-butoxy-;Acetic acid, butoxy-;2-Butoxyacetic acid;Butoxyacetic acid;NSC 10980;Butyloxyacetic acid;2-(<em>n</em>-Butoxy)acetic acid",
    "duplicated_cas_no": "",
    "SMILES": "O(CC(O)=O)CCCC",
    "meta_data": {
        "InChI": "InChI=1S/C6H12O3/c1-2-3-4-9-5-6(7)8/h2-5H2,1H3,(H,7,8)",
        "InChIKey": null,
        "Canonical SMILES": "O=C(O)COCCCC",
        "Molecular Formula": "C<sub>6</sub>H<sub>12</sub>O<sub>3</sub>",
        "Molecular Mass": "132.16",
        "Boiling Point": "165.2-165.4 °C @ Press: 759.5 Torr",
        "Density": "0.9897 g/cm³ @ Temp: 15 °C"
    }
}