{
    "cas_no": "578-86-9",
    "key_name": "Liquiritigenin",
    "cn_name": null,
    "alternate_name": "4<em>H</em>-1-Benzopyran-4-one, 2,3-dihydro-7-hydroxy-2-(4-hydroxyphenyl)-, (2<em>S</em>)-;Flavanone, 4′,7-dihydroxy-;4<em>H</em>-1-Benzopyran-4-one, 2,3-dihydro-7-hydroxy-2-(4-hydroxyphenyl)-, (<em>S</em>)-;(2<em>S</em>)-2,3-Dihydro-7-hydroxy-2-(4-hydroxyphenyl)-4<em>H</em>-1-benzopyran-4-one;Liquiritigenin;7,4′-Dihydroxyflavanone;4′,7-Dihydroxyflavanone;(-)-(2<em>S</em>)-7,4′-Dihydroxyflavanone;(2<em>S</em>)-Liquiritigenin;(-)-(<em>S</em>)-4′,7-Dihydroxyflavanone;(-)-Liquiritigenin;Menerba;(2S)-7-Hydroxy-2-(4-hydroxyphenyl)-2,3-dihydrochromen-4-one",
    "duplicated_cas_no": "2885-30-5;16006-91-0;17002-53-8",
    "SMILES": "O=C1C=2C(O[C@@H](C1)C3=CC=C(O)C=C3)=CC(O)=CC2",
    "meta_data": {
        "InChI": "InChI=1S/C15H12O4/c16-10-3-1-9(2-4-10)14-8-13(18)12-6-5-11(17)7-15(12)19-14/h1-7,14,16-17H,8H2/t14-/m0/s1",
        "InChIKey": null,
        "Canonical SMILES": "O=C1C2=CC=C(O)C=C2OC(C3=CC=C(O)C=C3)C1",
        "Molecular Formula": "C<sub>15</sub>H<sub>12</sub>O<sub>4</sub>",
        "Molecular Mass": "256.25",
        "Melting Point": "182-183 °C"
    }
}