{
    "cas_no": "97-67-6",
    "key_name": "<span class=\"text-smallcaps\">L</span>-Malic acid",
    "cn_name": "L-苹果酸;L-羟基丁二酸;",
    "alternate_name": "Butanedioic acid, 2-hydroxy-, (2<em>S</em>)-;Malic acid, <span class=\"text-smallcaps\">L</span>-;Butanedioic acid, hydroxy-, (<em>S</em>)-;Butanedioic acid, hydroxy-, (2<em>S</em>)-;Malic acid, <em>l</em>-;(2<em>S</em>)-2-Hydroxybutanedioic acid;Apple acid;(-)-Hydroxysuccinic acid;(-)-Malic acid;<span class=\"text-smallcaps\">L</span>-Malic acid;<span class=\"text-smallcaps\">L</span>-(-)-Malic acid;(<em>S</em>)-Malic acid;<em>S</em>-(-)-Malic acid;(-)-(<em>S</em>)-Malic acid;<em>S</em>-2-Hydroxybutanedioic acid;(-)-<span class=\"text-smallcaps\">L</span>-Malic acid;NSC 9232;(2<em>S</em>)-2-Hydroxysuccinic acid;<span class=\"text-smallcaps\">L</span>-Apple acid;(2<em>S</em>)-Malic acid;(<em>S</em>)-2-Hydroxysuccinic acid;(2S)-2-Hydroxysuccinic acid;(2S)-2-Hydroxybutanedioic acid",
    "duplicated_cas_no": "124501-05-9;498-37-3;6294-10-6;84781-39-5",
    "SMILES": "[C@H](CC(O)=O)(C(O)=O)O",
    "meta_data": {
        "InChI": "InChI=1S/C4H6O5/c5-2(4(8)9)1-3(6)7/h2,5H,1H2,(H,6,7)(H,8,9)/t2-/m0/s1",
        "InChIKey": null,
        "Canonical SMILES": "O=C(O)CC(O)C(=O)O",
        "Molecular Formula": "C<sub>4</sub>H<sub>6</sub>O<sub>5</sub>",
        "Molecular Mass": "134.09",
        "Melting Point": "128.5-129.5 °C",
        "Density": "1.025 g/cm³"
    }
}