{
    "cas_no": "29683-77-0",
    "key_name": "2-Chloro-1-(2-thienyl)ethanone",
    "cn_name": null,
    "alternate_name": "Ethanone, 2-chloro-1-(2-thienyl)-;Ketone, chloromethyl 2-thienyl;2-Chloro-1-(2-thienyl)ethanone;2-(Chloroacetyl)thiophene;2-Chloro-1-(thiophen-2-yl)-1-ethanone;2-(2-Chloroacetyl)thiophene;2-Chloro-1-(thiophen-2-yl)ethanone;Chloromethyl 2-thienyl ketone;2-Chloro-1-thienyl-ethanone;2-Chloro-1-(thien-2-yl)ethan-1-one",
    "duplicated_cas_no": "",
    "SMILES": "C(CCl)(=O)C1=CC=CS1",
    "meta_data": {
        "InChI": "InChI=1S/C6H5ClOS/c7-4-5(8)6-2-1-3-9-6/h1-3H,4H2",
        "InChIKey": null,
        "Canonical SMILES": "O=C(C=1SC=CC1)CCl",
        "Molecular Formula": "C<sub>6</sub>H<sub>5</sub>ClOS",
        "Molecular Mass": "160.62",
        "Boiling Point": "111-113 °C @ Press: 5 Torr",
        "Melting Point": "47-48 °C"
    }
}