{
    "cas_no": "3245-23-6",
    "key_name": "4-Ethylphenyl acetate",
    "cn_name": "乙酸-4-乙基苯酚酯;",
    "alternate_name": "Phenol, 4-ethyl-, 1-acetate;Phenol, <em>p</em>-ethyl-, acetate;Phenol, 4-ethyl-, acetate;<em>p</em>-Ethylphenyl acetate;4-Ethylphenyl acetate;4-Acetoxyethylbenzene;NSC 6705",
    "duplicated_cas_no": "746657-65-8",
    "SMILES": "O(C(C)=O)C1=CC=C(CC)C=C1",
    "meta_data": {
        "InChI": "InChI=1S/C10H12O2/c1-3-9-4-6-10(7-5-9)12-8(2)11/h4-7H,3H2,1-2H3",
        "InChIKey": null,
        "Canonical SMILES": "O=C(OC1=CC=C(C=C1)CC)C",
        "Molecular Formula": "C<sub>10</sub>H<sub>12</sub>O<sub>2</sub>",
        "Molecular Mass": "164.20",
        "Boiling Point": "109-124 °C @ Press: 13 Torr"
    }
}