{
    "cas_no": "6264-40-0",
    "key_name": "5-Methylthio-1,3,4-thiadiazole-2-thiol",
    "cn_name": "5-甲基硫代-1,3,4-噻二唑-2-硫醇;5-甲硫基-1,3,4-噻二唑-2(3H)-硫酮;",
    "alternate_name": "1,3,4-Thiadiazole-2(3<em>H</em>)-thione, 5-(methylthio)-;Δ<sup>2</sup>-1,3,4-Thiadiazoline-5-thione, 2-(methylthio)-;1,3,4-Thiadiazole-2-thiol, 5-(methylthio)-;5-(Methylthio)-1,3,4-thiadiazole-2(3<em>H</em>)-thione;2-Methylmercapto-1,3,4-thiadiazoline-5-thione;5-Methylthio-1,3,4-thiadiazoline-2-thione;2-Methylthio-5-mercapto-1,3,4-thiadiazole;2-Mercapto-5-methylthio-1,3,4-thiadiazole;5-Methylthio-1,3,4-thiadiazole-2-thiol;5-(Methylthio)-1,3,4-thiadiazol-2-thiol;5-Mercapto-2-methylthio-1,3,4-thiadiazole;5-(Methylsulfanyl)-[1,3,4]thiadiazole-2-thiol",
    "duplicated_cas_no": "24948-88-7",
    "SMILES": "S(C)C=1SC(=S)NN1",
    "meta_data": {
        "InChI": "InChI=1S/C3H4N2S3/c1-7-3-5-4-2(6)8-3/h1H3,(H,4,6)",
        "InChIKey": null,
        "Canonical SMILES": "S=C1SC(=NN1)SC",
        "Molecular Formula": "C<sub>3</sub>H<sub>4</sub>N<sub>2</sub>S<sub>3</sub>",
        "Molecular Mass": "164.27",
        "Melting Point": "134-136 °C"
    }
}