{
    "cas_no": "307-45-9",
    "key_name": "Perfluorodecane",
    "cn_name": null,
    "alternate_name": "Decane, 1,1,1,2,2,3,3,4,4,5,5,6,6,7,7,8,8,9,9,10,10,10-docosafluoro-;Decane, docosafluoro-;1,1,1,2,2,3,3,4,4,5,5,6,6,7,7,8,8,9,9,10,10,10-Docosafluorodecane;Perfluorodecane;Docosafluorodecane;Perfluoro-<em>n</em>-decane",
    "duplicated_cas_no": "1201928-73-5",
    "SMILES": "C(C(C(C(C(C(F)(F)F)(F)F)(F)F)(F)F)(F)F)(C(C(C(C(F)(F)F)(F)F)(F)F)(F)F)(F)F",
    "meta_data": {
        "InChI": "InChI=1S/C10F22/c11-1(12,3(15,16)5(19,20)7(23,24)9(27,28)29)2(13,14)4(17,18)6(21,22)8(25,26)10(30,31)32",
        "InChIKey": null,
        "Canonical SMILES": "FC(F)(F)C(F)(F)C(F)(F)C(F)(F)C(F)(F)C(F)(F)C(F)(F)C(F)(F)C(F)(F)C(F)(F)F",
        "Molecular Formula": "C<sub>10</sub>F<sub>22</sub>",
        "Molecular Mass": "538.07",
        "Boiling Point": "150 °C",
        "Melting Point": "36 °C",
        "Density": "1.770 g/cm³ @ Temp: 45 °C"
    }
}