{
    "cas_no": "78281-72-8",
    "key_name": "Nepafenac",
    "cn_name": "2-Amino-3-benzoylbenzeneacetamide;",
    "alternate_name": "Benzeneacetamide, 2-amino-3-benzoyl-;2-Amino-3-benzoylbenzeneacetamide;AL 6515;Nepafenac;AHR 9434;Nevanac;Ilevro;2-(2-Amino-3-benzoylphenyl)acetamide",
    "duplicated_cas_no": "",
    "SMILES": "C(=O)(C1=C(N)C(CC(N)=O)=CC=C1)C2=CC=CC=C2",
    "meta_data": {
        "InChI": "InChI=1S/C15H14N2O2/c16-13(18)9-11-7-4-8-12(14(11)17)15(19)10-5-2-1-3-6-10/h1-8H,9,17H2,(H2,16,18)",
        "InChIKey": null,
        "Canonical SMILES": "O=C(N)CC=1C=CC=C(C(=O)C=2C=CC=CC2)C1N",
        "Molecular Formula": "C<sub>15</sub>H<sub>14</sub>N<sub>2</sub>O<sub>2</sub>",
        "Molecular Mass": "254.28",
        "Melting Point": "178-180 °C"
    }
}