{
    "cas_no": "7159-96-8",
    "key_name": "Ethyl 3-hydroxyphenylcarbamate",
    "cn_name": null,
    "alternate_name": "Carbamic acid, <em>N</em>-(3-hydroxyphenyl)-, ethyl ester;Carbanilic acid, <em>m</em>-hydroxy-, ethyl ester;Carbamic acid, (3-hydroxyphenyl)-, ethyl ester;Carbanilic acid, <em>m</em>-hydroxy-, ethyl esters;Ethyl <em>N</em>-(3-hydroxyphenyl)carbamate;Ethyl 3-hydroxycarbanilate;3-Carbethoxyaminophenol;Ethyl 3-hydroxyphenylcarbamate;(3-Hydroxyphenyl)carbamic acid ethyl ester;<em>m</em>-(Ethoxycarbonylamino)phenol;Ethyl (<em>m</em>-hydroxyphenyl)carbamate;3-(Ethoxycarbonylamino)phenol;3-Ethyloxycarbonylaminophenol;NSC 222551",
    "duplicated_cas_no": "",
    "SMILES": "N(C(OCC)=O)C1=CC(O)=CC=C1",
    "meta_data": {
        "InChI": "InChI=1S/C9H11NO3/c1-2-13-9(12)10-7-4-3-5-8(11)6-7/h3-6,11H,2H2,1H3,(H,10,12)",
        "InChIKey": null,
        "Canonical SMILES": "O=C(OCC)NC=1C=CC=C(O)C1",
        "Molecular Formula": "C<sub>9</sub>H<sub>11</sub>NO<sub>3</sub>",
        "Molecular Mass": "181.19",
        "Melting Point": "95 °C"
    }
}