{
    "cas_no": "87-40-1",
    "key_name": "2,4,6-Trichloroanisole",
    "cn_name": "2,4,6-三氯苯甲醚;",
    "alternate_name": "Benzene, 1,3,5-trichloro-2-methoxy-;Anisole, 2,4,6-trichloro-;1,3,5-Trichloro-2-methoxybenzene;2,4,6-Trichloroanisole;Tyrene;Methyl 2,4,6-trichlorophenyl ether;1-Methoxy-2,4,6-trichlorobenzene;NSC 35142;2-Methoxy-1,3,5-trichlorobenzene",
    "duplicated_cas_no": "",
    "SMILES": "O(C)C1=C(Cl)C=C(Cl)C=C1Cl",
    "meta_data": {
        "InChI": "InChI=1S/C7H5Cl3O/c1-11-7-5(9)2-4(8)3-6(7)10/h2-3H,1H3",
        "InChIKey": null,
        "Canonical SMILES": "ClC=1C=C(Cl)C(OC)=C(Cl)C1",
        "Molecular Formula": "C<sub>7</sub>H<sub>5</sub>Cl<sub>3</sub>O",
        "Molecular Mass": "211.47",
        "Boiling Point": "241 °C",
        "Melting Point": "61.5 °C"
    }
}