{
    "cas_no": "131-52-2",
    "key_name": "Sodium pentachlorophenolate",
    "cn_name": "五氯酚钠;五氯苯酚钠;1,2,3,4,5-五氯酚钠;",
    "alternate_name": "Phenol, 2,3,4,5,6-pentachloro-, sodium salt (1:1);Phenol, pentachloro-, sodium salt;Phenol, pentachloro-, sodium deriv.;PCP-Sodium;Pentachlorophenate sodium;Pentachlorophenoxy sodium;Sodium PCP;Sodium pentachlorophenate;Sodium pentachlorophenol;Sodium pentachlorophenolate;Sodium pentachlorophenoxide;Pentachlorophenol sodium salt;Dowicide G;PCP sodium salt;Mystox D;Sapco 25;Santobrite;PKhFN;GR 48-32S;GR 48-11PS;NAPCP;Witophen N;Preventol PN;Pentanot 25;CL 208;PCP-Na;Biocel WD",
    "duplicated_cas_no": "",
    "SMILES": "ClC1=C(Cl)C(Cl)=C(O)C(Cl)=C1Cl.[Na]",
    "meta_data": {
        "InChI": "InChI=1S/C6HCl5O.Na/c7-1-2(8)4(10)6(12)5(11)3(1)9;/h12H;",
        "InChIKey": null,
        "Canonical SMILES": "[Na].ClC=1C(Cl)=C(Cl)C(O)=C(Cl)C1Cl",
        "Molecular Formula": "C<sub>6</sub>HCl<sub>5</sub>O.Na",
        "Molecular Mass": "",
        "Melting Point": "145-146 °C"
    }
}