{
    "cas_no": "116941-52-7",
    "key_name": "4-Bromo-5′-phenyl-1,1′:3′,1′′-terphenyl",
    "cn_name": null,
    "alternate_name": "1,1′:3′,1′′-Terphenyl, 4-bromo-5′-phenyl-;4-Bromo-5′-phenyl-1,1′:3′,1′′-terphenyl;1-(4-Bromophenyl)-3,5-diphenylbenzene;4-(4-Bromophenyl)-2,6-diphenylbenzene;5-(4-Bromophenyl)-[1,1′:3,1&quot;-terphenyl]",
    "duplicated_cas_no": "",
    "SMILES": "BrC1=CC=C(C2=CC(=CC(=C2)C3=CC=CC=C3)C4=CC=CC=C4)C=C1",
    "meta_data": {
        "InChI": "InChI=1S/C24H17Br/c25-24-13-11-20(12-14-24)23-16-21(18-7-3-1-4-8-18)15-22(17-23)19-9-5-2-6-10-19/h1-17H",
        "InChIKey": null,
        "Canonical SMILES": "BrC=1C=CC(=CC1)C2=CC(=CC(=C2)C=3C=CC=CC3)C=4C=CC=CC4",
        "Molecular Formula": "C<sub>24</sub>H<sub>17</sub>Br",
        "Molecular Mass": "385.30",
        "Melting Point": "150.5-151.0 °C"
    }
}