{
    "cas_no": "774-74-3",
    "key_name": "2-(2,4-Dichlorophenoxy)acetyl chloride",
    "cn_name": "2-(2,6-二氯苯氧基)乙酰氯;",
    "alternate_name": "Acetyl chloride, 2-(2,4-dichlorophenoxy)-;Acetyl chloride, (2,4-dichlorophenoxy)-;2-(2,4-Dichlorophenoxy)acetyl chloride;(2,4-Dichlorophenoxy)acetyl chloride;2-(2,4-Dichlorophenyloxy)acetyl chloride",
    "duplicated_cas_no": "",
    "SMILES": "O(CC(Cl)=O)C1=C(Cl)C=C(Cl)C=C1",
    "meta_data": {
        "InChI": "InChI=1S/C8H5Cl3O2/c9-5-1-2-7(6(10)3-5)13-4-8(11)12/h1-3H,4H2",
        "InChIKey": null,
        "Canonical SMILES": "O=C(Cl)COC1=CC=C(Cl)C=C1Cl",
        "Molecular Formula": "C<sub>8</sub>H<sub>5</sub>Cl<sub>3</sub>O<sub>2</sub>",
        "Molecular Mass": "239.48",
        "Boiling Point": "155-157 °C @ Press: 22-23 Torr",
        "Melting Point": "52.5-53.5 °C"
    }
}