{
    "cas_no": "1718-52-1",
    "key_name": "Pyrene-<em>d</em><sub>10</sub>",
    "cn_name": "芘-d10;氘代芘Pyrene-d10;",
    "alternate_name": "Pyrene-<em>1</em>,<em>2</em>,<em>3</em>,<em>4</em>,<em>5</em>,<em>6</em>,<em>7</em>,<em>8</em>,<em>9</em>,<em>10</em>-<em>d</em><sub>10</sub>;Pyrene-<em>d</em><sub>10</sub>;[<sup>2</sup><em>H</em><sub>10</sub>]Pyrene;Perdeuteriopyrene;[10-<sup>2</sup><em>H</em>]Pyrene",
    "duplicated_cas_no": "858267-20-6",
    "SMILES": "C12=C3C4=C(C(=C1C(=C(C(=C2C(=C(C3=C(C(=C4[2H])[2H])[2H])[2H])[2H])[2H])[2H])[2H])[2H])[2H]",
    "meta_data": {
        "InChI": "InChI=1S/C16H10/c1-3-11-7-9-13-5-2-6-14-10-8-12(4-1)15(11)16(13)14/h1-10H/i1D,2D,3D,4D,5D,6D,7D,8D,9D,10D",
        "InChIKey": null,
        "Canonical SMILES": "C=1C=C2C=CC3=CC=CC=4C=CC(C1)=C2C34",
        "Molecular Formula": "C<sub>16</sub>D<sub>10</sub>",
        "Molecular Mass": "",
        "Melting Point": "148-149 °C"
    }
}