{
    "cas_no": "56-34-8",
    "key_name": "Tetraethylammonium chloride",
    "cn_name": "四乙基氯化铵;",
    "alternate_name": "Ethanaminium, <em>N</em>,<em>N</em>,<em>N</em>-triethyl-, chloride (1:1);Tetraethylammonium chloride;Ammonium, tetraethyl-, chloride;Ethanaminium, <em>N</em>,<em>N</em>,<em>N</em>-triethyl-, chloride;Etamon chloride;TEA chloride;TEAC;TEA;TEAC 100;TEAC 10W",
    "duplicated_cas_no": "2304800-39-1",
    "SMILES": "[N+](CC)(CC)(CC)CC.[Cl-]",
    "meta_data": {
        "InChI": "InChI=1S/C8H20N.ClH/c1-5-9(6-2,7-3)8-4;/h5-8H2,1-4H3;1H/q+1;/p-1",
        "InChIKey": null,
        "Canonical SMILES": "[Cl-].CC[N+](CC)(CC)CC",
        "Molecular Formula": "C<sub>8</sub>H<sub>20</sub>N.Cl",
        "Molecular Mass": "",
        "Melting Point": "360 °C (decomp)"
    }
}