{
    "cas_no": "1333-74-0",
    "key_name": "Hydrogen",
    "cn_name": "氢;液氢;",
    "alternate_name": "Hydrogen;Orthohydrogen;Parahydrogen;Hydrogen (H<sub>2</sub>);Hydrogen molecule;Molecular hydrogen;Mol. hydrogen;Dihydrogen;Hydrogen gas;Hydrogen element",
    "duplicated_cas_no": "725200-57-7",
    "SMILES": "[H][H]",
    "meta_data": {
        "InChI": "InChI=1S/H2/h1H",
        "InChIKey": null,
        "Canonical SMILES": "[H][H]",
        "Molecular Formula": "H<sub>2</sub>",
        "Molecular Mass": "2.02",
        "Boiling Point": "-252.77 °C",
        "Melting Point": "-259.2 °C",
        "Density": "0.07631 g/cm³"
    }
}