{
    "cas_no": "19745-72-3",
    "key_name": "Ethanone, 2-amino-1-(4-hydroxyphenyl)-, hydrochloride (1:1)",
    "cn_name": null,
    "alternate_name": "Ethanone, 2-amino-1-(4-hydroxyphenyl)-, hydrochloride (1:1);Acetophenone, 2-amino-4′-hydroxy-, hydrochloride;Ethanone, 2-amino-1-(4-hydroxyphenyl)-, hydrochloride;α-Amino-4-hydroxyacetophenone hydrochloride;α-Amino-<em>p</em>-hydroxyacetophenone hydrochloride;2-Amino-1-(4-hydroxyphenyl)ethanone hydrochloride;2-Amino-4′-Hydroxyacetophenone Hydrochloride",
    "duplicated_cas_no": "",
    "SMILES": "C(CN)(=O)C1=CC=C(O)C=C1.Cl",
    "meta_data": {
        "InChI": "InChI=1S/C8H9NO2.ClH/c9-5-8(11)6-1-3-7(10)4-2-6;/h1-4,10H,5,9H2;1H",
        "InChIKey": null,
        "Canonical SMILES": "Cl.O=C(C1=CC=C(O)C=C1)CN",
        "Molecular Formula": "C<sub>8</sub>H<sub>9</sub>NO<sub>2</sub>.ClH",
        "Molecular Mass": "",
        "Melting Point": "245-252 °C (decomp)"
    }
}