{
    "cas_no": "2130-96-3",
    "key_name": "<em>N</em>-[(1,1-Dimethylethoxy)carbonyl]-<em>O</em>-(phenylmethyl)-<span class=\"text-smallcaps\">L</span>-tyrosine",
    "cn_name": "Boc-O-苄基-L-酪氨酸;N-叔丁氧羰基-O-苄基-L-酪氨酸;",
    "alternate_name": "<span class=\"text-smallcaps\">L</span>-Tyrosine, <em>N</em>-[(1,1-dimethylethoxy)carbonyl]-<em>O</em>-(phenylmethyl)-;Alanine, 3-[<em>p</em>-(benzyloxy)phenyl]-<em>N</em>-carboxy-, <em>N</em>-<em>tert</em>-butyl ester, <span class=\"text-smallcaps\">L</span>-;Alanine, 3-[<em>p</em>-(benzyloxy)phenyl]-<em>N</em>-carboxy-, <em>N</em>-<em>tert</em>-butyl ester;<span class=\"text-smallcaps\">L</span>-Alanine, 3-[<em>p</em>-(benzyloxy)phenyl]-<em>N</em>-carboxy-, <em>N</em>-<em>tert</em>-butyl ester;<em>N</em>-[(1,1-Dimethylethoxy)carbonyl]-<em>O</em>-(phenylmethyl)-<span class=\"text-smallcaps\">L</span>-tyrosine;<em>N</em>-(<em>tert</em>-Butyloxycarbonyl)-<em>O</em>-benzyl-<span class=\"text-smallcaps\">L</span>-tyrosine;<em>O</em>-Benzyl-<em>N</em>-<em>tert</em>-butoxycarbonyl-<span class=\"text-smallcaps\">L</span>-tyrosine;<em>N</em>-(<em>tert</em>-Butoxycarbonyl)-<em>O</em>-benzyl-<span class=\"text-smallcaps\">L</span>-tyrosine;(<em>tert</em>-Butoxycarbonyl)-<em>O</em>-benzyltyrosine;<em>N</em>-(<em>tert</em>-Butoxycarbonyl)-<em>O</em><sup>4</sup>-benzyl-<span class=\"text-smallcaps\">L</span>-tyrosine;<em>N</em>-(<em>tert</em>-Butoxycarbonyl)-<em>O</em>-benzyltyrosine;NSC 164044;(2<em>S</em>)-3-[4-(Benzyloxy)phenyl]-2-[(<em>tert</em>-butoxycarbonyl)amino]propanoic acid;(<em>S</em>)-3-(4-Benzyloxyphenyl)-2-(<em>tert</em>-butoxycarbonylamino)propionic acid;(2S)-2-[(2-Methylpropan-2-yl)oxycarbonylamino]-3-(4-phenylmethoxyphenyl)propanoic acid;(<em>S</em>)-3-(4-(Benzyloxy)phenyl)-2-((<em>tert</em>-butoxycarbonyl)amino)propanoic acid;(2S)-3-(4-Benzyloxyphenyl)-2-(<em>tert</em>-butoxycarbonylamino)propanoic acid",
    "duplicated_cas_no": "115491-87-7;121714-69-0;54784-43-9",
    "SMILES": "C([C@H](NC(OC(C)(C)C)=O)C(O)=O)C1=CC=C(OCC2=CC=CC=C2)C=C1",
    "meta_data": {
        "InChI": "InChI=1S/C21H25NO5/c1-21(2,3)27-20(25)22-18(19(23)24)13-15-9-11-17(12-10-15)26-14-16-7-5-4-6-8-16/h4-12,18H,13-14H2,1-3H3,(H,22,25)(H,23,24)/t18-/m0/s1",
        "InChIKey": null,
        "Canonical SMILES": "O=C(OC(C)(C)C)NC(C(=O)O)CC1=CC=C(OCC=2C=CC=CC2)C=C1",
        "Molecular Formula": "C<sub>21</sub>H<sub>25</sub>NO<sub>5</sub>",
        "Molecular Mass": "371.43",
        "Melting Point": "108-109 °C"
    }
}