{
    "cas_no": "79-21-0",
    "key_name": "Peracetic acid",
    "cn_name": "过氧乙酸;",
    "alternate_name": "Ethaneperoxoic acid;Peroxyacetic acid;Acetyl hydroperoxide;Hydroperoxide, acetyl;Peracetic acid;Osbon AC;Monoperacetic acid;Peroxoacetic acid;Acetic peroxide;Desoxon 1;Proxitane 4002;Estosteril;Perethanoic acid;Proxitane S;Proxitane 12A;Proxitane 1507;Oxypel;LCAP;Ozonit;Oxigreen 010;Tsunami 100;Tsunami;Proxitane 15;Peresal;Peraclean Ocean;Perasafe;Agrosteril 110;Steridial P;Percidin 535;Acecide;Proxitane 5;Proxitane 1512;Agrosteril 110SL;Synergize P 22;Incimaxx Aqua S;PES 15/23;Steris 20;Tsunami 200;EnviroSan;Proxitane Alfa;Peraclean 35;Redoxx 60;Peraclean 15;CaiBingLing;Paraclean;Persan MP 2J;MeSH ID: D010463",
    "duplicated_cas_no": "89370-71-8;232259-02-8",
    "SMILES": "C(OO)(C)=O",
    "meta_data": {
        "InChI": "InChI=1S/C2H4O3/c1-2(3)5-4/h4H,1H3",
        "InChIKey": null,
        "Canonical SMILES": "O=C(OO)C",
        "Molecular Formula": "C<sub>2</sub>H<sub>4</sub>O<sub>3</sub>",
        "Molecular Mass": "76.05",
        "Boiling Point": "105 °C",
        "Melting Point": "-0.2 °C",
        "Density": "1.226 g/cm³ @ Temp: 15 °C"
    }
}