{
    "cas_no": "57676-51-4",
    "key_name": "4-Chlorobenzeneacetic acid hydrazide",
    "cn_name": null,
    "alternate_name": "Benzeneacetic acid, 4-chloro-, hydrazide;Acetic acid, (<em>p</em>-chlorophenyl)-, hydrazide;4-Chlorobenzeneacetic acid hydrazide;INHd 29;2-(4-Chlorophenyl)acetic acid hydrazide;(4-Chlorophenyl)acetic acid hydrazide;2-(4-Chlorophenyl)acetohydrazide;2-(4-Chlorophenyl)acetic hydrazide",
    "duplicated_cas_no": "",
    "SMILES": "C(C(NN)=O)C1=CC=C(Cl)C=C1",
    "meta_data": {
        "InChI": "InChI=1S/C8H9ClN2O/c9-7-3-1-6(2-4-7)5-8(12)11-10/h1-4H,5,10H2,(H,11,12)",
        "InChIKey": null,
        "Canonical SMILES": "O=C(NN)CC1=CC=C(Cl)C=C1",
        "Molecular Formula": "C<sub>8</sub>H<sub>9</sub>ClN<sub>2</sub>O",
        "Molecular Mass": "184.62",
        "Melting Point": "170 °C"
    }
}