{
    "cas_no": "107-08-4",
    "key_name": "1-Iodopropane",
    "cn_name": "1-碘代丙烷;1-碘丙烷;",
    "alternate_name": "Propane, 1-iodo-;1-Iodopropane;Propyl iodide;<em>n</em>-Propyl iodide;Propane iodide;3-Iodopropane",
    "duplicated_cas_no": "",
    "SMILES": "C(CI)C",
    "meta_data": {
        "InChI": "InChI=1S/C3H7I/c1-2-3-4/h2-3H2,1H3",
        "InChIKey": null,
        "Canonical SMILES": "ICCC",
        "Molecular Formula": "C<sub>3</sub>H<sub>7</sub>I",
        "Molecular Mass": "169.99",
        "Boiling Point": "102.6 °C",
        "Melting Point": "-101.3 °C",
        "Density": "1.72997 g/cm³ @ Temp: 30 °C"
    }
}