{
    "cas_no": "221615-75-4",
    "key_name": "1-(6-Methylpyridin-3-yl)-2-[4-(methylsulfonyl)phenyl]ethanone",
    "cn_name": null,
    "alternate_name": "Ethanone, 1-(6-methyl-3-pyridinyl)-2-[4-(methylsulfonyl)phenyl]-;1-(6-Methyl-3-pyridinyl)-2-[4-(methylsulfonyl)phenyl]ethanone;1-(6-Methylpyridin-3-yl)-2-[4-(methylsulfonyl)phenyl]ethanone;2-(4-Mesylphenyl)-1-(6-methylpyridin-3-yl)-ethan-1-one",
    "duplicated_cas_no": "",
    "SMILES": "C(CC1=CC=C(S(C)(=O)=O)C=C1)(=O)C=2C=CC(C)=NC2",
    "meta_data": {
        "InChI": "InChI=1S/C15H15NO3S/c1-11-3-6-13(10-16-11)15(17)9-12-4-7-14(8-5-12)20(2,18)19/h3-8,10H,9H2,1-2H3",
        "InChIKey": null,
        "Canonical SMILES": "O=C(C1=CN=C(C=C1)C)CC2=CC=C(C=C2)S(=O)(=O)C",
        "Molecular Formula": "C<sub>15</sub>H<sub>15</sub>NO<sub>3</sub>S",
        "Molecular Mass": "289.35",
        "Melting Point": "172-173 °C"
    }
}