{
    "cas_no": "1742-95-6",
    "key_name": "4-Amino-1,8-naphthalimide",
    "cn_name": "6-氨基1H-苯并异喹啉-1,3-(2H)-二酮;",
    "alternate_name": "1<em>H</em>-Benz[<em>de</em>]isoquinoline-1,3(2<em>H</em>)-dione, 6-amino-;Naphthalimide, 4-amino-;6-Amino-1<em>H</em>-benz[<em>de</em>]isoquinoline-1,3(2<em>H</em>)-dione;4-Amino-1,8-naphthalimide;4-Aminonaphthalimide;DFP 1;D 122;4ANI",
    "duplicated_cas_no": "",
    "SMILES": "O=C1C=2C=3C(C(=O)N1)=CC=CC3C(N)=CC2",
    "meta_data": {
        "InChI": "InChI=1S/C12H8N2O2/c13-9-5-4-8-10-6(9)2-1-3-7(10)11(15)14-12(8)16/h1-5H,13H2,(H,14,15,16)",
        "InChIKey": null,
        "Canonical SMILES": "O=C1NC(=O)C2=CC=C(N)C3=CC=CC1=C32",
        "Molecular Formula": "C<sub>12</sub>H<sub>8</sub>N<sub>2</sub>O<sub>2</sub>",
        "Molecular Mass": "212.20",
        "Melting Point": "250 °C"
    }
}