{
    "cas_no": "28052-84-8",
    "key_name": "5-Methoxy-<span class=\"text-smallcaps\">DL</span>-tryptophan",
    "cn_name": "5-甲氧基-DL色醇;",
    "alternate_name": "Tryptophan, 5-methoxy-;Tryptophan, 5-methoxy-, <span class=\"text-smallcaps\">DL</span>-;<span class=\"text-smallcaps\">DL</span>-Tryptophan, 5-methoxy-;5-Methoxytryptophan;<em>dl</em>-5-Methoxytryptophan;5-Methoxy-<span class=\"text-smallcaps\">DL</span>-tryptophan;<span class=\"text-smallcaps\">DL</span>-5-Methoxytryptophan;2-Amino-3-(5-methoxy-1<em>H</em>-indol-3-yl)propanoicacid;2-Azaniumyl-3-(5-methoxy-1<em>H</em>-indol-3-yl)propanoate;2-Amino-3-(5-methoxy-1<em>H</em>-indol-3-yl)propanoic acid",
    "duplicated_cas_no": "2504-22-5",
    "SMILES": "C(C(C(O)=O)N)C=1C=2C(NC1)=CC=C(OC)C2",
    "meta_data": {
        "InChI": "InChI=1S/C12H14N2O3/c1-17-8-2-3-11-9(5-8)7(6-14-11)4-10(13)12(15)16/h2-3,5-6,10,14H,4,13H2,1H3,(H,15,16)",
        "InChIKey": null,
        "Canonical SMILES": "O=C(O)C(N)CC1=CNC=2C=CC(OC)=CC21",
        "Molecular Formula": "C<sub>12</sub>H<sub>14</sub>N<sub>2</sub>O<sub>3</sub>",
        "Molecular Mass": "234.25",
        "Melting Point": "238-240 °C (decomp)"
    }
}