{
    "cas_no": "14205-39-1",
    "key_name": "Methyl 3-amino-2-butenoate",
    "cn_name": "3-氨基巴豆酸甲酯;",
    "alternate_name": "2-Butenoic acid, 3-amino-, methyl ester;Crotonic acid, 3-amino-, methyl ester;Methyl 3-amino-2-butenoate;Methyl β-aminocrotonate;Methyl 3-aminocrotonate;3-Aminocrotonic acid methyl ester;β-Aminocrotonic acid methyl ester;Methyl 3-aminocrotonoate;Methyl 3-amino-2-butenenoate;3-Aminobut-2-enoic acid methyl ester",
    "duplicated_cas_no": "916520-50-8",
    "SMILES": "C(C=C(C)N)(OC)=O",
    "meta_data": {
        "InChI": "InChI=1S/C5H9NO2/c1-4(6)3-5(7)8-2/h3H,6H2,1-2H3",
        "InChIKey": null,
        "Canonical SMILES": "O=C(OC)C=C(N)C",
        "Molecular Formula": "C<sub>5</sub>H<sub>9</sub>NO<sub>2</sub>",
        "Molecular Mass": "115.13",
        "Boiling Point": "115 °C @ Press: 0.45 Torr",
        "Melting Point": "89-90 °C"
    }
}