{
    "cas_no": "6006-33-3",
    "key_name": "Tridecylcyclohexane",
    "cn_name": "三癸环己烷;",
    "alternate_name": "Cyclohexane, tridecyl-;Tridecane, 1-cyclohexyl-;Tridecylcyclohexane;1-Cyclohexyltridecane",
    "duplicated_cas_no": "",
    "SMILES": "C(CCCCCCCCCCCC)C1CCCCC1",
    "meta_data": {
        "InChI": "InChI=1S/C19H38/c1-2-3-4-5-6-7-8-9-10-11-13-16-19-17-14-12-15-18-19/h19H,2-18H2,1H3",
        "InChIKey": null,
        "Canonical SMILES": "CCCCCCCCCCCCCC1CCCCC1",
        "Molecular Formula": "C<sub>19</sub>H<sub>38</sub>",
        "Molecular Mass": "266.51",
        "Boiling Point": "346 °C",
        "Melting Point": "18.5 °C"
    }
}