{
    "cas_no": "1135-40-6",
    "key_name": "3-(Cyclohexylamino)-1-propanesulfonic acid",
    "cn_name": "3-(环己胺)-1-丙磺酸;",
    "alternate_name": "1-Propanesulfonic acid, 3-(cyclohexylamino)-;3-(Cyclohexylamino)-1-propanesulfonic acid;Cyclohexylaminopropanesulfonic acid;CAPS;3-(Cyclohexylamino)propanesulfonic acid;WAS-12;<em>N</em>-Cyclohexyl-3-aminopropanesulfonic acid;CAPS (buffering agent);3-(Cyclohexylamino)propane-1-sulfonate",
    "duplicated_cas_no": "",
    "SMILES": "N(CCCS(=O)(=O)O)C1CCCCC1",
    "meta_data": {
        "InChI": "InChI=1S/C9H19NO3S/c11-14(12,13)8-4-7-10-9-5-2-1-3-6-9/h9-10H,1-8H2,(H,11,12,13)",
        "InChIKey": null,
        "Canonical SMILES": "O=S(=O)(O)CCCNC1CCCCC1",
        "Molecular Formula": "C<sub>9</sub>H<sub>19</sub>NO<sub>3</sub>S",
        "Molecular Mass": "221.32",
        "Melting Point": "302.5 °C"
    }
}