{
    "cas_no": "272-12-8",
    "key_name": "Thieno[2,3-<em>c</em>]pyridine",
    "cn_name": null,
    "alternate_name": "Thieno[2,3-<em>c</em>]pyridine;6-Azabenzo[<em>b</em>]thiophene;6-Azathianaphthene;NSC 152396",
    "duplicated_cas_no": "",
    "SMILES": "C1=2C(SC=C1)=CN=CC2",
    "meta_data": {
        "InChI": "InChI=1S/C7H5NS/c1-3-8-5-7-6(1)2-4-9-7/h1-5H",
        "InChIKey": null,
        "Canonical SMILES": "N=1C=CC=2C=CSC2C1",
        "Molecular Formula": "C<sub>7</sub>H<sub>5</sub>NS",
        "Molecular Mass": "135.19",
        "Boiling Point": "68 °C @ Press: 0.5 Torr",
        "Melting Point": "54-55 °C"
    }
}