{
    "cas_no": "5321-47-1",
    "key_name": "1-[(2-Methylphenyl)methyl]piperazine",
    "cn_name": "1-(2-甲基苯甲基)哌嗪;",
    "alternate_name": "Piperazine, 1-[(2-methylphenyl)methyl]-;Piperazine, 1-(<em>o</em>-methylbenzyl)-;1-[(2-Methylphenyl)methyl]piperazine;1-(2-Methylbenzyl)piperazine;<em>N</em>-(<em>o</em>-Methylbenzyl)piperazine;1-(<em>o</em>-Methylbenzyl)piperazine",
    "duplicated_cas_no": "",
    "SMILES": "C(C1=C(C)C=CC=C1)N2CCNCC2",
    "meta_data": {
        "InChI": "InChI=1S/C12H18N2/c1-11-4-2-3-5-12(11)10-14-8-6-13-7-9-14/h2-5,13H,6-10H2,1H3",
        "InChIKey": null,
        "Canonical SMILES": "C=1C=CC(=C(C1)C)CN2CCNCC2",
        "Molecular Formula": "C<sub>12</sub>H<sub>18</sub>N<sub>2</sub>",
        "Molecular Mass": "190.28",
        "Boiling Point": "88 °C @ Press: 0.1 Torr"
    }
}