{
    "cas_no": "35693-99-3",
    "key_name": "2,2′,5,5′-Tetrachlorobiphenyl",
    "cn_name": "2,2,5,5-四氯联苯;2,2,5,5-四氯联苯PCBNo52;",
    "alternate_name": "1,1′-Biphenyl, 2,2′,5,5′-tetrachloro-;2,2′,5,5′-Tetrachloro-1,1′-biphenyl;2,2′,5,5′-Tetrachlorobiphenyl;2,2′,5,5′-TCB;PCB 52;2,5,2′,5′-Tetrachlorobiphenyl;K 52;CB 52;CB 52 (polychlorinated biphenyl)",
    "duplicated_cas_no": "",
    "SMILES": "ClC1=C(C=C(Cl)C=C1)C2=C(Cl)C=CC(Cl)=C2",
    "meta_data": {
        "InChI": "InChI=1S/C12H6Cl4/c13-7-1-3-11(15)9(5-7)10-6-8(14)2-4-12(10)16/h1-6H",
        "InChIKey": null,
        "Canonical SMILES": "ClC1=CC=C(Cl)C(=C1)C=2C=C(Cl)C=CC2Cl",
        "Molecular Formula": "C<sub>12</sub>H<sub>6</sub>Cl<sub>4</sub>",
        "Molecular Mass": "291.99",
        "Melting Point": "84-85 °C"
    }
}