{
    "cas_no": "135590-91-9",
    "key_name": "Mefenpyr-diethyl",
    "cn_name": "吡咯二酸二乙酯;吡唑解草酯;(RS)-1-(2,4-二氯苯基)-5-甲基-2-吡唑啉-3,5-二羧酸二乙酯;",
    "alternate_name": "1<em>H</em>-Pyrazole-3,5-dicarboxylic acid, 1-(2,4-dichlorophenyl)-4,5-dihydro-5-methyl-, 3,5-diethyl ester;1<em>H</em>-Pyrazole-3,5-dicarboxylic acid, 1-(2,4-dichlorophenyl)-4,5-dihydro-5-methyl-, diethyl ester;Mefenpyr-diethyl;HOE 107892;AE-F 107892;Ethyl 1-(2,4-dichlorophenyl)-5-(ethoxycarbonyl)-5-methyl-2-pyrazoline-3-carboxylate",
    "duplicated_cas_no": "193636-33-8",
    "SMILES": "C(OCC)(=O)C1(C)N(N=C(C(OCC)=O)C1)C2=C(Cl)C=C(Cl)C=C2",
    "meta_data": {
        "InChI": "InChI=1S/C16H18Cl2N2O4/c1-4-23-14(21)12-9-16(3,15(22)24-5-2)20(19-12)13-7-6-10(17)8-11(13)18/h6-8H,4-5,9H2,1-3H3",
        "InChIKey": null,
        "Canonical SMILES": "O=C(OCC)C1=NN(C2=CC=C(Cl)C=C2Cl)C(C(=O)OCC)(C)C1",
        "Molecular Formula": "C<sub>16</sub>H<sub>18</sub>Cl<sub>2</sub>N<sub>2</sub>O<sub>4</sub>",
        "Molecular Mass": "373.23",
        "Melting Point": "51 °C"
    }
}