{
    "cas_no": "638-09-5",
    "key_name": "1,3,5-Benzenetriamine, hydrochloride (1:3)",
    "cn_name": null,
    "alternate_name": "1,3,5-Benzenetriamine, hydrochloride (1:3);1,3,5-Benzenetriamine, trihydrochloride;1,3,5-Triaminobenzene trihydrochloride",
    "duplicated_cas_no": "",
    "SMILES": "NC1=CC(N)=CC(N)=C1.Cl",
    "meta_data": {
        "InChI": "InChI=1S/C6H9N3.3ClH/c7-4-1-5(8)3-6(9)2-4;;;/h1-3H,7-9H2;3*1H",
        "InChIKey": null,
        "Canonical SMILES": "Cl.NC=1C=C(N)C=C(N)C1",
        "Molecular Formula": "C<sub>6</sub>H<sub>9</sub>N<sub>3</sub>.3ClH",
        "Molecular Mass": "",
        "Melting Point": "126 °C"
    }
}