{
    "cas_no": "16532-79-9",
    "key_name": "(4-Bromophenyl)acetonitrile",
    "cn_name": "对溴苯乙腈;4-溴苯乙腈;4-溴氰基苄;对溴氰基苄;",
    "alternate_name": "Benzeneacetonitrile, 4-bromo-;Acetonitrile, (<em>p</em>-bromophenyl)-;4-Bromobenzeneacetonitrile;(<em>p</em>-Bromophenyl)acetonitrile;4-Bromobenzyl cyanide;2-(4-Bromophenyl)acetonitrile;(4-Bromophenyl)acetonitrile;<em>p</em>-Bromobenzyl cyanide;4-(Cyanomethyl)bromobenzene;1-Bromo-4-cyanomethylbenzene;NSC 84174;4-Bromobenzyl nitrile;4-(Cyanomethyl)-1-bromobenzene",
    "duplicated_cas_no": "",
    "SMILES": "C(C#N)C1=CC=C(Br)C=C1",
    "meta_data": {
        "InChI": "InChI=1S/C8H6BrN/c9-8-3-1-7(2-4-8)5-6-10/h1-4H,5H2",
        "InChIKey": null,
        "Canonical SMILES": "N#CCC1=CC=C(Br)C=C1",
        "Molecular Formula": "C<sub>8</sub>H<sub>6</sub>BrN",
        "Molecular Mass": "196.04",
        "Boiling Point": "142 °C @ Press: 5 Torr",
        "Melting Point": "50 °C"
    }
}