{
    "cas_no": "10075-52-2",
    "key_name": "5-Bromo-1-methyl-1<em>H</em>-indole",
    "cn_name": "5-溴-1-甲基-1H-吲哚;",
    "alternate_name": "1<em>H</em>-Indole, 5-bromo-1-methyl-;Indole, 5-bromo-1-methyl-;5-Bromo-1-methyl-1<em>H</em>-indole;1-Methyl-5-bromoindole;<em>N</em>-Methyl-5-bromoindole;5-Bromo-1-methylindole;NSC 143238;1-Methyl-5-bromo-1<em>H</em>-indole",
    "duplicated_cas_no": "",
    "SMILES": "CN1C=2C(C=C1)=CC(Br)=CC2",
    "meta_data": {
        "InChI": "InChI=1S/C9H8BrN/c1-11-5-4-7-6-8(10)2-3-9(7)11/h2-6H,1H3",
        "InChIKey": null,
        "Canonical SMILES": "BrC=1C=CC2=C(C=CN2C)C1",
        "Molecular Formula": "C<sub>9</sub>H<sub>8</sub>BrN",
        "Molecular Mass": "210.07",
        "Melting Point": "42-43 °C"
    }
}