{
    "cas_no": "81-88-9",
    "key_name": "Rhodamine B",
    "cn_name": "罗丹明B;碱性紫10;四乙基罗丹明;",
    "alternate_name": "Xanthylium, 9-(2-carboxyphenyl)-3,6-bis(diethylamino)-, chloride (1:1);[9-(<em>o</em>-Carboxyphenyl)-6-(diethylamino)-3<em>H</em>-xanthen-3-ylidene]diethylammonium chloride;Ammonium, [9-(<em>o</em>-carboxyphenyl)-6-(diethylamino)-3<em>H</em>-xanthen-3-ylidene]diethyl-, chloride;Xanthylium, 9-(2-carboxyphenyl)-3,6-bis(diethylamino)-, chloride;11411 Red;C.I. 45170;ADC Rhodamine B;Aizen Rhodamine BH;Akiriku Rhodamine B;Calcozine Red BX;Calcozine Rhodamine BXP;Cerise Toner X 1127;Diabasic Rhodamine B;Edicol Supra Rose B;Eriosin Rhodamine B;Hexacol Rhodamine B Extra;Ikada Rhodamine B;Mitsui Rhodamine BX;Rheonine B;Rhodamine, tetraethyl-;Rhodamine B;Rhodamine BA;Rhodamine BA Export;Rhodamine BN;Rhodamine BS;Rhodamine BX;Rhodamine BXL;Rhodamine BXP;Rhodamine B Extra S;Rhodamine B Extra M 310;Rhodamine FB;Rhodamine Lake Red B;Sicilian Cerise Toner A 7127;Symulex Magenta F;Symulex Rhodamine B Toner F;Takaoka Rhodamine B;Tetraethylrhodamine;C.I. Food Red 15;Aizen Rhodamine BHC;Edicol Supra Rose BS;Rhodamine B Extra;D and C Red No. 19;C.I. Basic Violet 10;FD And C Red No. 19;Rhodamine B 500 hydrochloride;Basic Violet 10;Red No. 213;Rhodamine B 500;Rhodamine S (Russian);Rhodamine S;Rhodamine O;Japan Red 213;Japan Red No. 213;Flexo Red 540;Basonyl Red 540;D&amp;C Red No. 19;Basonyl Red 545;Basazol Red 71P;Aizen Rhodamine B;Rhodamine 610 chloride;Sumiplast Pink B;Brilliant Pink B;OP 312;Basic Rose Red;D&amp;C Red 19;Basic Rose Extract;Basonyl Red 545FL;LC 6100;Rhodamine BDC;Chromatint Rhodamine B;Basazol Red 71L;RHB;Amezin Rhodamine B Liquid;Rhodamine B-EX;GRM 980;Ruixiang Red B",
    "duplicated_cas_no": "3521-79-7;11111-29-8;17181-58-7;53664-59-8;69319-23-9;86513-49-7;86893-15-4;96119-80-1;105480-59-9;248928-56-5;408346-58-7;412909-17-2;433215-26-0;539821-35-7;850856-47-2;859039-47-7;875572-56-8;918962-66-0;925914-34-7;956491-27-3;1023342-65-5;1051370-49-0;1236042-79-7;1394971-11-9;1773488-62-2;1825993-87-0;2254248-91-2;2641897-49-4",
    "SMILES": "C(O)(=O)C1=C(C=2C3=C([O+]=C4C2C=CC(N(CC)CC)=C4)C=C(N(CC)CC)C=C3)C=CC=C1.[Cl-]",
    "meta_data": {
        "InChI": "InChI=1S/C28H30N2O3.ClH/c1-5-29(6-2)19-13-15-23-25(17-19)33-26-18-20(30(7-3)8-4)14-16-24(26)27(23)21-11-9-10-12-22(21)28(31)32;/h9-18H,5-8H2,1-4H3;1H",
        "InChIKey": null,
        "Canonical SMILES": "[Cl-].O=C(O)C=1C=CC=CC1C=2C=3C=CC(=CC3[O+]=C4C=C(C=CC42)N(CC)CC)N(CC)CC",
        "Molecular Formula": "C<sub>28</sub>H<sub>31</sub>N<sub>2</sub>O<sub>3</sub>.Cl",
        "Molecular Mass": "",
        "Melting Point": "165 °C",
        "Density": "1.3 g/cm³"
    }
}