{
    "cas_no": "1837-91-8",
    "key_name": "1,2,3,4,5,6-Hexabromocyclohexane",
    "cn_name": null,
    "alternate_name": "Cyclohexane, 1,2,3,4,5,6-hexabromo-;1,2,3,4,5,6-Hexabromocyclohexane;Benzene hexabromide;NSC 7908;Broad ID:BRD-K06817181;BRD-K06817181-001-02-3",
    "duplicated_cas_no": "",
    "SMILES": "BrC1C(Br)C(Br)C(Br)C(Br)C1Br",
    "meta_data": {
        "InChI": "InChI=1S/C6H6Br6/c7-1-2(8)4(10)6(12)5(11)3(1)9/h1-6H",
        "InChIKey": null,
        "Canonical SMILES": "BrC1C(Br)C(Br)C(Br)C(Br)C1Br",
        "Molecular Formula": "C<sub>6</sub>H<sub>6</sub>Br<sub>6</sub>",
        "Molecular Mass": "557.54",
        "Melting Point": "222 °C"
    }
}