{
    "cas_no": "15121-89-8",
    "key_name": "Ethyl (2<em>E</em>)-4-oxo-4-phenyl-2-butenoate",
    "cn_name": null,
    "alternate_name": "2-Butenoic acid, 4-oxo-4-phenyl-, ethyl ester, (2<em>E</em>)-;Acrylic acid, 3-benzoyl-, ethyl ester, (<em>E</em>)-;2-Butenoic acid, 4-oxo-4-phenyl-, ethyl ester, (<em>E</em>)-;Ethyl (2<em>E</em>)-4-oxo-4-phenyl-2-butenoate;Ethyl β-benzoylacrylate;Ethyl <em>trans</em>-β-benzoylacrylate;Ethyl <em>trans</em>-benzoylacrylate;(2<em>E</em>)-4-Oxo-4-phenyl-2-butenoic acid ethyl ester;(<em>E</em>)-Ethyl 4-oxo-4-phenyl-2-butenoate;Ethyl <em>trans</em>-3-benzoylacrylate;(2E)-4-Oxo-4-phenyl-2-butenoic acid ethyl ester;Ethyl (E)-4-oxo-4-phenylbut-2-enoate",
    "duplicated_cas_no": "",
    "SMILES": "C(/C=C/C(OCC)=O)(=O)C1=CC=CC=C1",
    "meta_data": {
        "InChI": "InChI=1S/C12H12O3/c1-2-15-12(14)9-8-11(13)10-6-4-3-5-7-10/h3-9H,2H2,1H3/b9-8+",
        "InChIKey": null,
        "Canonical SMILES": "O=C(OCC)C=CC(=O)C=1C=CC=CC1",
        "Molecular Formula": "C<sub>12</sub>H<sub>12</sub>O<sub>3</sub>",
        "Molecular Mass": "204.22",
        "Boiling Point": "131-132 °C @ Press: 1.5 Torr",
        "Density": "1.1080 g/cm³ @ Temp: 25 °C"
    }
}