{
    "cas_no": "1114-81-4",
    "key_name": "Phospho-<span class=\"text-smallcaps\">L</span>-threonine",
    "cn_name": "L-苏氨酸-O-磷酸;L-苏氨酸-3-磷酸;L-苏氨酸-O-磷酸;L-2-氨基-3-羟基丁酸-3-磷酸酯;",
    "alternate_name": "<span class=\"text-smallcaps\">L</span>-Threonine, <em>O</em>-phosphono-;Threonine, dihydrogen phosphate (ester), <span class=\"text-smallcaps\">L</span>-;<span class=\"text-smallcaps\">L</span>-Threonine, dihydrogen phosphate (ester);Threonine, di-H phosphate;Threonine, phosphate;<em>O</em>-Phosphono-<span class=\"text-smallcaps\">L</span>-threonine;<em>O</em>-Phosphothreonine;Phosphorylthreonine;<em>O</em>-Phospho-<span class=\"text-smallcaps\">L</span>-threonine;<span class=\"text-smallcaps\">L</span>-Phosphothreonine;<span class=\"text-smallcaps\">L</span>-<em>O</em>-Phosphothreonine;Phospho-<span class=\"text-smallcaps\">L</span>-threonine;Treonin fosfatum",
    "duplicated_cas_no": "25713-03-5;1013025-55-2",
    "SMILES": "[C@@H]([C@@H](C(O)=O)N)(OP(=O)(O)O)C",
    "meta_data": {
        "InChI": "InChI=1S/C4H10NO6P/c1-2(3(5)4(6)7)11-12(8,9)10/h2-3H,5H2,1H3,(H,6,7)(H2,8,9,10)/t2-,3+/m1/s1",
        "InChIKey": null,
        "Canonical SMILES": "O=C(O)C(N)C(OP(=O)(O)O)C",
        "Molecular Formula": "C<sub>4</sub>H<sub>10</sub>NO<sub>6</sub>P",
        "Molecular Mass": "199.10",
        "Melting Point": "169 °C"
    }
}