{
    "cas_no": "21499-24-1",
    "key_name": "Agrimonolide",
    "cn_name": null,
    "alternate_name": "1<em>H</em>-2-Benzopyran-1-one, 3,4-dihydro-6,8-dihydroxy-3-[2-(4-methoxyphenyl)ethyl]-, (3<em>S</em>)-;Agrimonolide;Isocoumarin, 3,4-dihydro-6,8-dihydroxy-3-(<em>p</em>-methoxyphenethyl)-, (<em>S</em>)-;1<em>H</em>-2-Benzopyran-1-one, 3,4-dihydro-6,8-dihydroxy-3-[2-(4-methoxyphenyl)ethyl]-, (<em>S</em>)-;(3<em>S</em>)-3,4-Dihydro-6,8-dihydroxy-3-[2-(4-methoxyphenyl)ethyl]-1<em>H</em>-2-benzopyran-1-one",
    "duplicated_cas_no": "",
    "SMILES": "O=C1C=2C(C[C@H](CCC3=CC=C(OC)C=C3)O1)=CC(O)=CC2O",
    "meta_data": {
        "InChI": "InChI=1S/C18H18O5/c1-22-14-5-2-11(3-6-14)4-7-15-9-12-8-13(19)10-16(20)17(12)18(21)23-15/h2-3,5-6,8,10,15,19-20H,4,7,9H2,1H3/t15-/m0/s1",
        "InChIKey": null,
        "Canonical SMILES": "O=C1OC(CC=2C=C(O)C=C(O)C12)CCC3=CC=C(OC)C=C3",
        "Molecular Formula": "C<sub>18</sub>H<sub>18</sub>O<sub>5</sub>",
        "Molecular Mass": "314.33",
        "Melting Point": "175.5-176.5 °C"
    }
}