{
    "cas_no": "92-22-8",
    "key_name": "<em>N</em>-(2,5-Diethoxyphenyl)benzamide",
    "cn_name": "2\",5\"-二乙氧基苯酰替苯胺;",
    "alternate_name": "Benzamide, <em>N</em>-(2,5-diethoxyphenyl)-;Benzanilide, 2′,5′-diethoxy-;<em>N</em>-(2,5-Diethoxyphenyl)benzamide;2′,5′-Diethoxybenzanilide;NSC 163154",
    "duplicated_cas_no": "",
    "SMILES": "N(C(=O)C1=CC=CC=C1)C2=C(OCC)C=CC(OCC)=C2",
    "meta_data": {
        "InChI": "InChI=1S/C17H19NO3/c1-3-20-14-10-11-16(21-4-2)15(12-14)18-17(19)13-8-6-5-7-9-13/h5-12H,3-4H2,1-2H3,(H,18,19)",
        "InChIKey": null,
        "Canonical SMILES": "O=C(NC1=CC(OCC)=CC=C1OCC)C=2C=CC=CC2",
        "Molecular Formula": "C<sub>17</sub>H<sub>19</sub>NO<sub>3</sub>",
        "Molecular Mass": "285.34",
        "Melting Point": "87-89 °C"
    }
}