{
    "cas_no": "3599-89-1",
    "key_name": "Propanimidamide, monohydrochloride",
    "cn_name": null,
    "alternate_name": "Propanimidamide, monohydrochloride;Propionamidine, hydrochloride;Propioamidine hydrochloride;Propanamidine hydrochloride;Propanimidamide hydrochloride;Propionimidamide hydrochloride",
    "duplicated_cas_no": "",
    "SMILES": "C(CC)(=N)N.Cl",
    "meta_data": {
        "InChI": "InChI=1S/C3H8N2.ClH/c1-2-3(4)5;/h2H2,1H3,(H3,4,5);1H",
        "InChIKey": null,
        "Canonical SMILES": "Cl.N=C(N)CC",
        "Molecular Formula": "C<sub>3</sub>H<sub>8</sub>N<sub>2</sub>.ClH",
        "Molecular Mass": "",
        "Melting Point": "298.5 °C"
    }
}