{
    "cas_no": "19592-55-3",
    "key_name": "Pregna-5,7-diene-3,20-dione, cyclic 3,20-bis(1,2-ethanediyl acetal)",
    "cn_name": null,
    "alternate_name": "Pregna-5,7-diene-3,20-dione, cyclic 3,20-bis(1,2-ethanediyl acetal);Pregna-5,7-diene-3,20-dione, cyclic bis(ethylene acetal);Pregna-5,7-diene-3,20-dione, cyclic bis(1,2-ethanediyl acetal);3,20-Bis(ethylenedioxy)pregna-5,7-diene;9α,10β-3,20-Bis(ethylenedioxy)-5,7-pregnadiene",
    "duplicated_cas_no": "",
    "SMILES": "C[C@@]12[C@](C=3[C@](CC1)([C@]4(C)C(=CC3)CC5(CC4)OCCO5)[H])(CC[C@@H]2[C@@]6(C)OCCO6)[H]",
    "meta_data": {
        "InChI": "InChI=1S/C25H36O4/c1-22-10-11-25(28-14-15-29-25)16-17(22)4-5-18-19-6-7-21(24(3)26-12-13-27-24)23(19,2)9-8-20(18)22/h4-5,19-21H,6-16H2,1-3H3/t19-,20-,21-,22-,23-/m0/s1",
        "InChIKey": null,
        "Canonical SMILES": "O1CCOC12CC3=CC=C4C(CCC5(C)C4CCC5C6(OCCO6)C)C3(C)CC2",
        "Molecular Formula": "C<sub>25</sub>H<sub>36</sub>O<sub>4</sub>",
        "Molecular Mass": "400.55",
        "Melting Point": "186.5-188.5 °C"
    }
}