{
    "cas_no": "532-18-3",
    "key_name": "<em>N</em>-2-Naphthalenyl-2-naphthalenamine",
    "cn_name": "2,2-二萘胺;",
    "alternate_name": "2-Naphthalenamine, <em>N</em>-2-naphthalenyl-;Di-2-naphthylamine;<em>N</em>-2-Naphthalenyl-2-naphthalenamine;β,β′-Dinaphthylamine;2,2′-Dinaphthylamine;Di-β-naphthylamine;<em>N</em>,<em>N</em>-Di(2-naphthyl)amine;NSC 26664;<em>N</em>,<em>N</em>-Bis(2-naphthyl)amine;Bis(naphthalen-2-yl)amine;Di(naphthalen-2-yl)amine;Bis(2-naphthalenyl)amine",
    "duplicated_cas_no": "",
    "SMILES": "N(C1=CC2=C(C=C1)C=CC=C2)C3=CC4=C(C=C3)C=CC=C4",
    "meta_data": {
        "InChI": "InChI=1S/C20H15N/c1-3-7-17-13-19(11-9-15(17)5-1)21-20-12-10-16-6-2-4-8-18(16)14-20/h1-14,21H",
        "InChIKey": null,
        "Canonical SMILES": "C=1C=CC=2C=C(C=CC2C1)NC=3C=CC=4C=CC=CC4C3",
        "Molecular Formula": "C<sub>20</sub>H<sub>15</sub>N",
        "Molecular Mass": "269.34",
        "Boiling Point": "471 °C",
        "Melting Point": "172.2 °C"
    }
}