{
    "cas_no": "99-52-5",
    "key_name": "2-Amino-5-nitrotoluene",
    "cn_name": "4-硝基-2-甲苯胺;",
    "alternate_name": "Benzenamine, 2-methyl-4-nitro-;<em>o</em>-Toluidine, 4-nitro-;2-Methyl-4-nitrobenzenamine;Ansibases Red RL;Azoene Fast Red GL Base;Azogene Fast Red NRL Salt;Azogene Fast Red RL;Daito Red Base RL;Devol Red RL;Devol Red Salt E;Diabase Red RL;Fast Red 5NT;Fast Red Base RL;Fast Red RL Base;Fast Red 5NT Salt;Fast Red Salt RL;Hiltonil Fast Red RL Base;Hiltosal Fast Red RL Salt;Kako Red RL Base;Kayaku Red RL Base;Meisei Fast Red RL Base;Mitsui Red RL Base;Naphtoelan Red RL Base;Red Base Ciba X;Red Base Irga X;Red Base NRL;Red RL Base;Sanyo Fast Red RL Base;Sanyo Fast Red Salt RL;Spectrolene Red RL;Symulon Red RL Base;Tulabase Fast Red RL;Yamada Fast Red RL Base;4-Nitro-6-methylaniline;2-Amino-5-nitrotoluene;4-Nitro-<em>o</em>-toluidine;5-Nitro-2-aminotoluene;1-Amino-2-methyl-4-nitrobenzene;2-Methyl-4-nitrophenylamine;2-Amino-1-methyl-5-nitrobenzene;MNA;MNA (optical crystal);2-Methyl-<em>p</em>-nitroaniline;4-Nitro-2-methylaniline;3-Methyl-4-aminonitrobenzene;4-Nitro-2-toluidine;NSC 2075;NSC 5508;Red base RL",
    "duplicated_cas_no": "",
    "SMILES": "N(=O)(=O)C1=CC(C)=C(N)C=C1",
    "meta_data": {
        "InChI": "InChI=1S/C7H8N2O2/c1-5-4-6(9(10)11)2-3-7(5)8/h2-4H,8H2,1H3",
        "InChIKey": null,
        "Canonical SMILES": "O=N(=O)C1=CC=C(N)C(=C1)C",
        "Molecular Formula": "C<sub>7</sub>H<sub>8</sub>N<sub>2</sub>O<sub>2</sub>",
        "Molecular Mass": "152.15",
        "Melting Point": "133.5 °C",
        "Density": "1.39 g/cm³ @ Temp: 21.9 °C"
    }
}