{
    "cas_no": "13924-95-3",
    "key_name": "Methyl 4,5-dihydro-5-oxo-2-pyrazinecarboxylate",
    "cn_name": "5-羟基吡嗪-2-羧酸甲酯;",
    "alternate_name": "2-Pyrazinecarboxylic acid, 4,5-dihydro-5-oxo-, methyl ester;Pyrazinecarboxylic acid, 5-hydroxy-, methyl ester;Pyrazinecarboxylic acid, 4,5-dihydro-5-oxo-, methyl ester;Methyl 4,5-dihydro-5-oxo-2-pyrazinecarboxylate;Methyl 5-hydroxy-2-pyrazinecarboxylate;Methyl 5-oxo-4,5-dihydro-2-pyrazinecarboxylate;5-Hydroxypyrazine-2-carboxylic acid methyl ester",
    "duplicated_cas_no": "",
    "SMILES": "C(OC)(=O)C1=CNC(=O)C=N1",
    "meta_data": {
        "InChI": "InChI=1S/C6H6N2O3/c1-11-6(10)4-2-8-5(9)3-7-4/h2-3H,1H3,(H,8,9)",
        "InChIKey": null,
        "Canonical SMILES": "O=C1C=NC(=CN1)C(=O)OC",
        "Molecular Formula": "C<sub>6</sub>H<sub>6</sub>N<sub>2</sub>O<sub>3</sub>",
        "Molecular Mass": "154.12",
        "Melting Point": "183-185 °C"
    }
}