{
    "cas_no": "6386-38-5",
    "key_name": "Methyl 3-(3,5-di-<em>tert</em>-butyl-4-hydroxyphenyl)propionate",
    "cn_name": "3-(3,5-二叔丁基-4-羟基苯基)丙酸甲酯;",
    "alternate_name": "Benzenepropanoic acid, 3,5-bis(1,1-dimethylethyl)-4-hydroxy-, methyl ester;Hydrocinnamic acid, 3,5-di-<em>tert</em>-butyl-4-hydroxy-, methyl ester;Methyl 3,5-di-<em>tert</em>-butyl-4-hydroxyhydrocinnamate;Methyl β-3,5-di-<em>tert</em>-butyl-4-hydroxyphenylpropionate;Methylox;3-(3,5-Di-<em>tert</em>-butyl-4-hydroxyphenyl)propionic acid methyl ester;Methyl (3,5-di-<em>tert</em>-butyl-4-hydroxyphenyl)propionate;Methyl 3-(3,5-di-<em>tert</em>-butyl-4-hydroxyphenyl)propionate;Methyl 3,5-di-<em>tert</em>-butyl-4-hydroxy-β-phenylpropionate;Methyl 3-(3′,5′-di-<em>tert</em>-butyl-4′-hydroxyphenyl)propionate;Metilox;Methyl β-(4-hydroxy-3,5-di-<em>tert</em>-butylphenyl)propionate;Methyl 3-(4-hydroxy-3,5-di-<em>tert</em>-butylphenyl)propionate;Fenozan 1;Methyl β-(4-hydroxy-3,5-di-<em>tert</em>-butylphenyl)propanoate;Ralox 35;Phenosan methyl ester;3,5-Bis(1,1-dimethylethyl)-4-hydroxybenzenepropanoic acid methyl ester;Methyl 3-(3,5-di-<em>tert</em>-butyl-4-hydroxyphenyl)propanoate",
    "duplicated_cas_no": "96956-57-9;137754-49-5;88731-45-7",
    "SMILES": "C(C)(C)(C)C1=C(O)C(C(C)(C)C)=CC(CCC(OC)=O)=C1",
    "meta_data": {
        "InChI": "InChI=1S/C18H28O3/c1-17(2,3)13-10-12(8-9-15(19)21-7)11-14(16(13)20)18(4,5)6/h10-11,20H,8-9H2,1-7H3",
        "InChIKey": null,
        "Canonical SMILES": "O=C(OC)CCC=1C=C(C(O)=C(C1)C(C)(C)C)C(C)(C)C",
        "Molecular Formula": "C<sub>18</sub>H<sub>28</sub>O<sub>3</sub>",
        "Molecular Mass": "292.41",
        "Boiling Point": "125-130 °C @ Press: 0.1 Torr",
        "Melting Point": "66-66.5 °C"
    }
}