{
    "cas_no": "36322-90-4",
    "key_name": "Piroxicam",
    "cn_name": "吡罗昔康;2-甲基-4-羟基-N-(2-吡啶基)-2H-1,2-苯并噻嗪-3-甲酰胺-1,1-二氧化物;",
    "alternate_name": "2<em>H</em>-1,2-Benzothiazine-3-carboxamide, 4-hydroxy-2-methyl-<em>N</em>-2-pyridinyl-, 1,1-dioxide;Piroxicam;Pyroxycam;Baxo;Feldene;Piroftal;CHF 1251;Roxicam;4-Hydroxy-2-methyl-<em>N</em>-(2-pyridyl)-2<em>H</em>-1,2-benzothiazine-3-carboxamide 1,1-dioxide;NSC 666076;Sasulen;Doblexan;Improntal;Piroflex;Bruxicam;Erazon;Flogobene;Geldene;Reudene;Artroxicam;Roxiden;Solocalm;Riacen;Larapam;Zunden;Caliment;Pirkam;CP 16171;Felden gel;Feldene Zydis;Dolibid;Feldene Melt;Felvin 20;Pixicam;Feloxin;Nkoyo piroxicam;Felxicam;Neoxicam;Uphaxicam;Maxvin;Laxidene;Rheugesic;Piroxidine;Dispercam;Murupe;Feledene;Feldoral;Piroxitas-DT;Nesprex-DT;Flogosan;Inflacin;MeSH ID: D010894",
    "duplicated_cas_no": "",
    "SMILES": "OC=1C=2C(S(=O)(=O)N(C)C1C(NC3=CC=CC=N3)=O)=CC=CC2",
    "meta_data": {
        "InChI": "InChI=1S/C15H13N3O4S/c1-18-13(15(20)17-12-8-4-5-9-16-12)14(19)10-6-2-3-7-11(10)23(18,21)22/h2-9,19H,1H3,(H,16,17,20)",
        "InChIKey": null,
        "Canonical SMILES": "O=C(NC1=NC=CC=C1)C2=C(O)C=3C=CC=CC3S(=O)(=O)N2C",
        "Molecular Formula": "C<sub>15</sub>H<sub>13</sub>N<sub>3</sub>O<sub>4</sub>S",
        "Molecular Mass": "331.35",
        "Melting Point": "198-200 °C"
    }
}