{
    "cas_no": "18436-71-0",
    "key_name": "4-Chloro-6-methylquinoline",
    "cn_name": "4-氯-6-甲基喹啉;",
    "alternate_name": "Quinoline, 4-chloro-6-methyl-;4-Chloro-6-methylquinoline",
    "duplicated_cas_no": "",
    "SMILES": "ClC=1C2=C(C=CC(C)=C2)N=CC1",
    "meta_data": {
        "InChI": "InChI=1S/C10H8ClN/c1-7-2-3-10-8(6-7)9(11)4-5-12-10/h2-6H,1H3",
        "InChIKey": null,
        "Canonical SMILES": "ClC=1C=CN=C2C=CC(=CC12)C",
        "Molecular Formula": "C<sub>10</sub>H<sub>8</sub>ClN",
        "Molecular Mass": "177.63",
        "Melting Point": "55 °C"
    }
}