{
    "cas_no": "564-35-2",
    "key_name": "11-Ketotestosterone",
    "cn_name": null,
    "alternate_name": "Androst-4-ene-3,11-dione, 17-hydroxy-, (17β)-;Androst-4-ene-3,11-dione, 17β-hydroxy-;(17β)-17-Hydroxyandrost-4-ene-3,11-dione;11-Ketotestosterone;4-Androsten-17β-ol-3,11-dione;17β-Hydroxyandrost-4-ene-3,11-dione;11-Oxotestosterone;11-<em>keto</em>-Testosterone",
    "duplicated_cas_no": "1050679-19-0",
    "SMILES": "C[C@@]12[C@@]3([C@]([C@]4([C@](C)(CC3=O)[C@@H](O)CC4)[H])(CCC1=CC(=O)CC2)[H])[H]",
    "meta_data": {
        "InChI": "InChI=1S/C19H26O3/c1-18-8-7-12(20)9-11(18)3-4-13-14-5-6-16(22)19(14,2)10-15(21)17(13)18/h9,13-14,16-17,22H,3-8,10H2,1-2H3/t13-,14-,16-,17+,18-,19-/m0/s1",
        "InChIKey": null,
        "Canonical SMILES": "O=C1C=C2CCC3C(C(=O)CC4(C)C(O)CCC34)C2(C)CC1",
        "Molecular Formula": "C<sub>19</sub>H<sub>26</sub>O<sub>3</sub>",
        "Molecular Mass": "302.41",
        "Melting Point": "183-184 °C"
    }
}