{
    "cas_no": "6921-28-4",
    "key_name": "Dipropargylamine",
    "cn_name": null,
    "alternate_name": "2-Propyn-1-amine, <em>N</em>-2-propyn-1-yl-;Di-2-propynylamine;2-Propyn-1-amine, <em>N</em>-2-propynyl-;<em>N</em>-2-Propyn-1-yl-2-propyn-1-amine;Dipropargylamine;4-Azahepta-1,6-diyne;NSC 80652;<em>N</em>,<em>N</em>-Di(prop-2-ynyl)amine;Di(prop-2-yn-1-yl)amine",
    "duplicated_cas_no": "",
    "SMILES": "N(CC#C)CC#C",
    "meta_data": {
        "InChI": "InChI=1S/C6H7N/c1-3-5-7-6-4-2/h1-2,7H,5-6H2",
        "InChIKey": null,
        "Canonical SMILES": "C#CCNCC#C",
        "Molecular Formula": "C<sub>6</sub>H<sub>7</sub>N",
        "Molecular Mass": "93.13",
        "Boiling Point": "51 °C @ Press: 10 Torr",
        "Density": "0.901 g/cm³ @ Temp: 16 °C"
    }
}