{
    "cas_no": "140-80-7",
    "key_name": "<em>N</em>,<em>N</em>-Diethyl-1,4-pentanediamine",
    "cn_name": "2-氨基-5-二乙基氨基戊烷;",
    "alternate_name": "1,4-Pentanediamine, <em>N</em><sup>1</sup>,<em>N</em><sup>1</sup>-diethyl-;<em>N</em><sup>1</sup>,<em>N</em><sup>1</sup>-Diethyl-1,4-pentanediamine;2-Amino-5-(diethylamino)pentane;2-Amino-5-diethylamino-<em>n</em>-pentane;4-Amino-1-(diethylamino)pentane;1-(Diethylamino)-4-aminopentane;δ-(Diethylamino)-α-methylbutylamine;Novoldiamine;1-Methyl-4-(diethylamino)butylamine;4-(Diethylamino)-1-methylbutylamine;5-(Diethylamino)-2-pentylamine;<em>N</em><sup>5</sup>,<em>N</em><sup>5</sup>-Diethyl-2,5-pentanediamine;5-(Diethylamino)-2-pentanamine;<em>N</em>,<em>N</em>-Diethyl-1,4-pentanediamine;NSC 2606;(4-Aminopentyl)diethylamine",
    "duplicated_cas_no": "67459-49-8",
    "SMILES": "N(CCCC(C)N)(CC)CC",
    "meta_data": {
        "InChI": "InChI=1S/C9H22N2/c1-4-11(5-2)8-6-7-9(3)10/h9H,4-8,10H2,1-3H3",
        "InChIKey": null,
        "Canonical SMILES": "NC(C)CCCN(CC)CC",
        "Molecular Formula": "C<sub>9</sub>H<sub>22</sub>N<sub>2</sub>",
        "Molecular Mass": "158.28",
        "Boiling Point": "201 °C",
        "Melting Point": "42-44 °C",
        "Density": "0.819 g/cm³ @ Temp: 26 °C"
    }
}