{
    "cas_no": "13762-75-9",
    "key_name": "Lithium metaphosphate",
    "cn_name": "偏磷酸锂;偏磷酸锶;",
    "alternate_name": "Metaphosphoric acid (HPO<sub>3</sub>), lithium salt;Lithium metaphosphate (LiPO<sub>3</sub>);Lithium phosphate (LiPO<sub>3</sub>);Lithium polymetaphosphate;Lithium metaphosphate;Lithium metaphosphate (Li(PO<sub>3</sub>))",
    "duplicated_cas_no": "133766-14-0;1085692-89-2;2854370-05-9;3037089-80-5",
    "SMILES": "P(=O)(=O)O.[Li]",
    "meta_data": {
        "InChI": "InChI=1S/Li.HO3P/c;1-4(2)3/h;(H,1,2,3)",
        "InChIKey": null,
        "Canonical SMILES": "[Li].O=P(=O)O",
        "Molecular Formula": "HO<sub>3</sub>P.Li",
        "Molecular Mass": "",
        "Melting Point": "656 °C",
        "Density": "2.73 g/cm³"
    }
}