{
    "cas_no": "536-25-4",
    "key_name": "Methyl 3-amino-4-hydroxybenzoate",
    "cn_name": "3-氨基-4-羟基苯甲酸甲酯;",
    "alternate_name": "Benzoic acid, 3-amino-4-hydroxy-, methyl ester;Orthoform;Orthocaine;Methyl 4-hydroxy-3-aminobenzoate;1-Hydroxy-2-amino-4-carbomethoxybenzene;Methyl 3-amino-4-hydroxybenzoate;Methyl <em>m</em>-amino-<em>p</em>-hydroxybenzoate;Aminobenz;Orthoderm;3-Amino-4-hydroxybenzoic acid methyl ester;Orthoform New;NSC 9813",
    "duplicated_cas_no": "",
    "SMILES": "C(OC)(=O)C1=CC(N)=C(O)C=C1",
    "meta_data": {
        "InChI": "InChI=1S/C8H9NO3/c1-12-8(11)5-2-3-7(10)6(9)4-5/h2-4,10H,9H2,1H3",
        "InChIKey": null,
        "Canonical SMILES": "O=C(OC)C1=CC=C(O)C(N)=C1",
        "Molecular Formula": "C<sub>8</sub>H<sub>9</sub>NO<sub>3</sub>",
        "Molecular Mass": "167.16",
        "Melting Point": "143 °C"
    }
}