{
    "cas_no": "7426-75-7",
    "key_name": "2,2′-(1,4-Phenylene)bis(2-oxazoline)",
    "cn_name": "双噁唑啉基苯;双恶唑啉基苯;2,2-(1,4-亚苯基)二恶唑啉;",
    "alternate_name": "Oxazole, 2,2′-(1,4-phenylene)bis[4,5-dihydro-;2-Oxazoline, 2,2′-<em>p</em>-phenylenebis-;2,2′-(1,4-Phenylene)bis[4,5-dihydrooxazole];1,4-Bis(2-oxazolin-2-yl)benzene;2,2′-<em>p</em>-Phenylenebis(2-oxazoline);2,2′-(1,4-Phenylene)bis(2-oxazoline);BOX 220;1,4-PBO;1,4-Bis(4,5-dihydro-2-oxazolyl)benzene;1,4-Phenylenebisoxazoline;Allinco TMPBO;2-[4-(4,5-Dihydro-1,3-oxazol-2-yl)phenyl]-4,5-dihydro-1,3-oxazole",
    "duplicated_cas_no": "144637-45-6",
    "SMILES": "C1(=CC=C(C=C1)C2=NCCO2)C3=NCCO3",
    "meta_data": {
        "InChI": "InChI=1S/C12H12N2O2/c1-2-10(12-14-6-8-16-12)4-3-9(1)11-13-5-7-15-11/h1-4H,5-8H2",
        "InChIKey": null,
        "Canonical SMILES": "N1=C(OCC1)C=2C=CC(=CC2)C3=NCCO3",
        "Molecular Formula": "C<sub>12</sub>H<sub>12</sub>N<sub>2</sub>O<sub>2</sub>",
        "Molecular Mass": "216.24",
        "Melting Point": "238-240 °C"
    }
}