{
    "cas_no": "963-39-3",
    "key_name": "Demoxepam",
    "cn_name": "地莫西泮;7-氯-1,3-二氢-5-苯基-2H-1,4-苯并二氮杂-2-酮4-氧化物;",
    "alternate_name": "2<em>H</em>-1,4-Benzodiazepin-2-one, 7-chloro-1,3-dihydro-5-phenyl-, 4-oxide;Ro 5-2092;Demoxepam;7-Chloro-2,3-dihydro-5-phenyl-1<em>H</em>-1,4-benzodiazepin-2-one 4-oxide;7-Chloro-1,3-dihydro-5-phenyl-2<em>H</em>-1,4-benzodiazepin-2-one 4-oxide;7-Chloro-5-phenyl-1,3-dihydro-2<em>H</em>-1,4-benzodiazepin-2-one 4-oxide;Chlordiazepoxide lactam;5-Phenyl-7-chloro-3<em>H</em>-1,4-benzodiazepin-2(1<em>H</em>)-one 4-oxide;NSC 46007;NSC 169898;NSC 46077",
    "duplicated_cas_no": "53967-45-6",
    "SMILES": "O=N1=C(C=2C(NC(=O)C1)=CC=C(Cl)C2)C3=CC=CC=C3",
    "meta_data": {
        "InChI": "InChI=1S/C15H11ClN2O2/c16-11-6-7-13-12(8-11)15(10-4-2-1-3-5-10)18(20)9-14(19)17-13/h1-8H,9H2,(H,17,19)",
        "InChIKey": null,
        "Canonical SMILES": "O=C1NC=2C=CC(Cl)=CC2C(C=3C=CC=CC3)=N(=O)C1",
        "Molecular Formula": "C<sub>15</sub>H<sub>11</sub>ClN<sub>2</sub>O<sub>2</sub>",
        "Molecular Mass": "286.71",
        "Melting Point": "235-236 °C (decomp)"
    }
}