{
    "cas_no": "14321-27-8",
    "key_name": "Ethylbenzylamine",
    "cn_name": null,
    "alternate_name": "Benzenemethanamine, <em>N</em>-ethyl-;Benzylamine, <em>N</em>-ethyl-;<em>N</em>-Ethylbenzenemethanamine;<em>N</em>-Benzylethylamine;<em>N</em>-Ethylbenzylamine;<em>N</em>-Benzyl-<em>N</em>-ethylamine;Ethylbenzylamine;<em>N</em>-(Phenylmethyl)ethylamine;Ethyl(phenylmethyl)amine;<em>N</em>-Ethyl-<em>N</em>-benzylamine;<em>N</em>-Benzylethanamine",
    "duplicated_cas_no": "",
    "SMILES": "C(NCC)C1=CC=CC=C1",
    "meta_data": {
        "InChI": "InChI=1S/C9H13N/c1-2-10-8-9-6-4-3-5-7-9/h3-7,10H,2,8H2,1H3",
        "InChIKey": null,
        "Canonical SMILES": "C=1C=CC(=CC1)CNCC",
        "Molecular Formula": "C<sub>9</sub>H<sub>13</sub>N",
        "Molecular Mass": "135.21",
        "Boiling Point": "194 °C",
        "Melting Point": "81.5 °C"
    }
}