{
    "cas_no": "931-36-2",
    "key_name": "2-Ethyl-4-methylimidazole",
    "cn_name": "2-乙基-4-甲基咪唑;",
    "alternate_name": "1<em>H</em>-Imidazole, 2-ethyl-5-methyl-;Imidazole, 2-ethyl-4-methyl-;1<em>H</em>-Imidazole, 2-ethyl-4-methyl-;Imidazole, 2-ethyl-4(<em>or</em> 5)-methyl-;2-Ethyl-5-methyl-1<em>H</em>-imidazole;2-Ethyl-4-methylimidazole;4-Methyl-2-ethylimidazole;2-Ethyl-4-methyl-1<em>H</em>-imidazole;EMI 24;Curezol 2E4MZ;2E4MZ;Epicure EMI 24;EMI 70;Imicure EMI 24;NSC 82315;Omicure 24EMI;B 2 (curing catalyst);B 2;JER Cure EMI 24;Dyhard MI-C;Curezol 2E4MZ2;Texnol EM 24;E 0232;IsoQure IM 2E4MI;Imicure EMI 2.4",
    "duplicated_cas_no": "65992-40-7;81833-71-8;3043954-22-6",
    "SMILES": "C(C)C=1NC(C)=CN1",
    "meta_data": {
        "InChI": "InChI=1S/C6H10N2/c1-3-6-7-4-5(2)8-6/h4H,3H2,1-2H3,(H,7,8)",
        "InChIKey": null,
        "Canonical SMILES": "N=1C=C(NC1CC)C",
        "Molecular Formula": "C<sub>6</sub>H<sub>10</sub>N<sub>2</sub>",
        "Molecular Mass": "110.16",
        "Boiling Point": "120-125 °C @ Press: 2 Torr",
        "Density": "1.00 g/cm³"
    }
}