{
    "cas_no": "2041-15-8",
    "key_name": "1,3,5-Cyclohexanetriol",
    "cn_name": "1,3,5-环己烷三醇;",
    "alternate_name": "1,3,5-Cyclohexanetriol;Phloroglucitol;NSC 25143",
    "duplicated_cas_no": "",
    "SMILES": "OC1CC(O)CC(O)C1",
    "meta_data": {
        "InChI": "InChI=1S/C6H12O3/c7-4-1-5(8)3-6(9)2-4/h4-9H,1-3H2",
        "InChIKey": null,
        "Canonical SMILES": "OC1CC(O)CC(O)C1",
        "Molecular Formula": "C<sub>6</sub>H<sub>12</sub>O<sub>3</sub>",
        "Molecular Mass": "132.16",
        "Melting Point": "245 °C"
    }
}