{
    "cas_no": "64987-82-2",
    "key_name": "4-[(2,5-Dihydro-2,5-dioxo-1<em>H</em>-pyrrol-1-yl)methyl]cyclohexanecarboxylic acid",
    "cn_name": null,
    "alternate_name": "Cyclohexanecarboxylic acid, 4-[(2,5-dihydro-2,5-dioxo-1<em>H</em>-pyrrol-1-yl)methyl]-;4-[(2,5-Dihydro-2,5-dioxo-1<em>H</em>-pyrrol-1-yl)methyl]cyclohexanecarboxylic acid;<em>N</em>-(4-Carboxycyclohexylmethyl)maleimide;4-(<em>N</em>-Maleimidomethyl)cyclohexane-1-carboxylic acid",
    "duplicated_cas_no": "",
    "SMILES": "C(N1C(=O)C=CC1=O)C2CCC(C(O)=O)CC2",
    "meta_data": {
        "InChI": "InChI=1S/C12H15NO4/c14-10-5-6-11(15)13(10)7-8-1-3-9(4-2-8)12(16)17/h5-6,8-9H,1-4,7H2,(H,16,17)",
        "InChIKey": null,
        "Canonical SMILES": "O=C1C=CC(=O)N1CC2CCC(C(=O)O)CC2",
        "Molecular Formula": "C<sub>12</sub>H<sub>15</sub>NO<sub>4</sub>",
        "Molecular Mass": "237.25",
        "Melting Point": "89-91 °C"
    }
}