{
    "cas_no": "7424-00-2",
    "key_name": "4-Chloro-<span class=\"text-smallcaps\">DL</span>-phenylalanine",
    "cn_name": "DL-4-氯苯丙氨酸;",
    "alternate_name": "Phenylalanine, 4-chloro-;Alanine, 3-(<em>p</em>-chlorophenyl)-, <span class=\"text-smallcaps\">DL</span>-;<span class=\"text-smallcaps\">DL</span>-Phenylalanine, 4-chloro-;4-Chlorophenylalanine;CP 10188;Fenclonine;<span class=\"text-smallcaps\">DL</span>-<em>p</em>-Chlorophenylalanine;Fenchlonine;<span class=\"text-smallcaps\">DL</span>-4-Chlorophenylalanine;<em>p</em>-Chloro-<span class=\"text-smallcaps\">DL</span>-phenylalanine;(±)-<em>p</em>-Chlorophenylalanine;4-Chloro-<span class=\"text-smallcaps\">DL</span>-phenylalanine;<span class=\"text-smallcaps\">DL</span>-3-(<em>p</em>-Chlorophenyl)alanine;Fenclonin;3-(<em>p</em>-Chlorophenyl)alanine;<em>p</em>-Chlorophenylalanine;NSC 77370;2-Amino-3-(4-chlorophenyl)propanoic acid;2-Amino-3-(4-chloro-phenyl)-propionic acid",
    "duplicated_cas_no": "1991-78-2",
    "SMILES": "C(C(C(O)=O)N)C1=CC=C(Cl)C=C1",
    "meta_data": {
        "InChI": "InChI=1S/C9H10ClNO2/c10-7-3-1-6(2-4-7)5-8(11)9(12)13/h1-4,8H,5,11H2,(H,12,13)",
        "InChIKey": null,
        "Canonical SMILES": "O=C(O)C(N)CC1=CC=C(Cl)C=C1",
        "Molecular Formula": "C<sub>9</sub>H<sub>10</sub>ClNO<sub>2</sub>",
        "Molecular Mass": "199.63",
        "Melting Point": "243-244 °C"
    }
}