{
    "cas_no": "1191-99-7",
    "key_name": "2,3-Dihydrofuran",
    "cn_name": "2,3-二氢呋喃;",
    "alternate_name": "Furan, 2,3-dihydro-;2,3-Dihydrofuran;4,5-Dihydrofuran;NSC 85221",
    "duplicated_cas_no": "27535-65-5",
    "SMILES": "C1C=COC1",
    "meta_data": {
        "InChI": "InChI=1S/C4H6O/c1-2-4-5-3-1/h1,3H,2,4H2",
        "InChIKey": null,
        "Canonical SMILES": "O1C=CCC1",
        "Molecular Formula": "C<sub>4</sub>H<sub>6</sub>O",
        "Molecular Mass": "70.09",
        "Boiling Point": "54.5 °C",
        "Density": "0.927 g/cm³ @ Temp: 15.5 °C"
    }
}