{
    "cas_no": "102169-99-3",
    "key_name": "2-Bromo-4-methyl-5-nitrobenzenamine",
    "cn_name": null,
    "alternate_name": "Benzenamine, 2-bromo-4-methyl-5-nitro-;<em>p</em>-Toluidine, 2-bromo-5-nitro-;2-Bromo-4-methyl-5-nitrobenzenamine;2-Bromo-4-methyl-5-nitroaniline",
    "duplicated_cas_no": "",
    "SMILES": "N(=O)(=O)C1=C(C)C=C(Br)C(N)=C1",
    "meta_data": {
        "InChI": "InChI=1S/C7H7BrN2O2/c1-4-2-5(8)6(9)3-7(4)10(11)12/h2-3H,9H2,1H3",
        "InChIKey": null,
        "Canonical SMILES": "O=N(=O)C1=CC(N)=C(Br)C=C1C",
        "Molecular Formula": "C<sub>7</sub>H<sub>7</sub>BrN<sub>2</sub>O<sub>2</sub>",
        "Molecular Mass": "231.05",
        "Melting Point": "119-120 °C"
    }
}