{
    "cas_no": "13074-06-1",
    "key_name": "<span class=\"text-smallcaps\">L</span>-Fucitol",
    "cn_name": null,
    "alternate_name": "<span class=\"text-smallcaps\">D</span>-Galactitol, 1-deoxy-;Galactitol, 1-deoxy-, <span class=\"text-smallcaps\">D</span>-;Fucitol, <span class=\"text-smallcaps\">L</span>-;1-Deoxy-<span class=\"text-smallcaps\">D</span>-galactitol;<span class=\"text-smallcaps\">L</span>-Galactitol, 6-deoxy-;<span class=\"text-smallcaps\">L</span>-Fucitol;6-Deoxy-<span class=\"text-smallcaps\">L</span>-galactitol;NSC 1957",
    "duplicated_cas_no": "",
    "SMILES": "[C@@H]([C@@H]([C@H](C)O)O)([C@@H](CO)O)O",
    "meta_data": {
        "InChI": "InChI=1S/C6H14O5/c1-3(8)5(10)6(11)4(9)2-7/h3-11H,2H2,1H3/t3-,4+,5+,6-/m0/s1",
        "InChIKey": null,
        "Canonical SMILES": "OCC(O)C(O)C(O)C(O)C",
        "Molecular Formula": "C<sub>6</sub>H<sub>14</sub>O<sub>5</sub>",
        "Molecular Mass": "166.17",
        "Melting Point": "154-156 °C"
    }
}