{
    "cas_no": "1122-86-7",
    "key_name": "4-Ethoxypiperidine",
    "cn_name": "4-乙氧基哌啶;",
    "alternate_name": "Piperidine, 4-ethoxy-;4-Ethoxypiperidine",
    "duplicated_cas_no": "",
    "SMILES": "O(CC)C1CCNCC1",
    "meta_data": {
        "InChI": "InChI=1S/C7H15NO/c1-2-9-7-3-5-8-6-4-7/h7-8H,2-6H2,1H3",
        "InChIKey": null,
        "Canonical SMILES": "O(CC)C1CCNCC1",
        "Molecular Formula": "C<sub>7</sub>H<sub>15</sub>NO",
        "Molecular Mass": "129.20",
        "Boiling Point": "174-176 °C"
    }
}