{
    "cas_no": "455-24-3",
    "key_name": "4-(Trifluoromethyl)benzoic acid",
    "cn_name": "4-三氟甲基苯甲酸;对三氟甲基苯甲酸;",
    "alternate_name": "Benzoic acid, 4-(trifluoromethyl)-;<em>p</em>-Toluic acid, α,α,α-trifluoro-;4-(Trifluoromethyl)benzoic acid;<em>p</em>-(Trifluoromethyl)benzoic acid;C 71640;α,α,α-Trifluoro-<em>p</em>-toluic acid;NSC 88327",
    "duplicated_cas_no": "2764684-49-1",
    "SMILES": "C(F)(F)(F)C1=CC=C(C(O)=O)C=C1",
    "meta_data": {
        "InChI": "InChI=1S/C8H5F3O2/c9-8(10,11)6-3-1-5(2-4-6)7(12)13/h1-4H,(H,12,13)",
        "InChIKey": null,
        "Canonical SMILES": "O=C(O)C1=CC=C(C=C1)C(F)(F)F",
        "Molecular Formula": "C<sub>8</sub>H<sub>5</sub>F<sub>3</sub>O<sub>2</sub>",
        "Molecular Mass": "190.12",
        "Melting Point": "219.5 °C"
    }
}