{
    "cas_no": "108-84-9",
    "key_name": "4-Methyl-2-pentyl acetate",
    "cn_name": null,
    "alternate_name": "2-Pentanol, 4-methyl-, 2-acetate;2-Pentanol, 4-methyl-, acetate;MAAc;Methylisobutylcarbinol acetate;4-Methyl-2-pentyl acetate;1,3-Dimethylbutyl acetate;4-Methylpent-2-yl ethanoate;Acetic acid 1,3-dimethylbutyl ester;4-Methyl-2-pentanol acetate;NSC 567",
    "duplicated_cas_no": "155749-22-7",
    "SMILES": "C(C(OC(C)=O)C)C(C)C",
    "meta_data": {
        "InChI": "InChI=1S/C8H16O2/c1-6(2)5-7(3)10-8(4)9/h6-7H,5H2,1-4H3",
        "InChIKey": null,
        "Canonical SMILES": "O=C(OC(C)CC(C)C)C",
        "Molecular Formula": "C<sub>8</sub>H<sub>16</sub>O<sub>2</sub>",
        "Molecular Mass": "144.21",
        "Boiling Point": "147.5 °C",
        "Melting Point": "-64 °C",
        "Density": "0.8805 g/cm³ @ Temp: 25 °C"
    }
}