{
    "cas_no": "75330-75-5",
    "key_name": "Lovastatin",
    "cn_name": null,
    "alternate_name": "Butanoic acid, 2-methyl-, (1<em>S</em>,3<em>R</em>,7<em>S</em>,8<em>S</em>,8a<em>R</em>)-1,2,3,7,8,8a-hexahydro-3,7-dimethyl-8-[2-[(2<em>R</em>,4<em>R</em>)-tetrahydro-4-hydroxy-6-oxo-2<em>H</em>-pyran-2-yl]ethyl]-1-naphthalenyl ester, (2<em>S</em>)-;Butanoic acid, 2-methyl-, 1,2,3,7,8,8a-hexahydro-3,7-dimethyl-8-[2-(tetrahydro-4-hydroxy-6-oxo-2<em>H</em>-pyran-2-yl)ethyl]-1-naphthalenyl ester, [1<em>S</em>-[1α(<em>R</em>*),3α,7β,8β(2<em>S</em>*,4<em>S</em>*),8aβ]]-;Mevinolin;MSD 803;Monacolin K;Antibiotic MB 530B;MK 803;Monacolin K lactone;Lovastatin;Mevacor;L 154803;(+)-Mevinolin;6α-Methylcompactin;Sivlor;Mevlor;Lovalip;Mevinacor;Altocor;Lovastatin lactone;Lostatin;Lestric;Lovacard;Lovex;Altoprev;NSC 633781;MeSH ID: D008148",
    "duplicated_cas_no": "71949-96-7;74133-25-8;81739-26-6",
    "SMILES": "O(C([C@H](CC)C)=O)[C@@H]1[C@]2(C(C=C[C@H](C)[C@@H]2CC[C@@H]3C[C@@H](O)CC(=O)O3)=C[C@H](C)C1)[H]",
    "meta_data": {
        "InChI": "InChI=1S/C24H36O5/c1-5-15(3)24(27)29-21-11-14(2)10-17-7-6-16(4)20(23(17)21)9-8-19-12-18(25)13-22(26)28-19/h6-7,10,14-16,18-21,23,25H,5,8-9,11-13H2,1-4H3/t14-,15-,16-,18+,19+,20-,21-,23-/m0/s1",
        "InChIKey": null,
        "Canonical SMILES": "O=C1OC(CCC2C(C=CC3=CC(C)CC(OC(=O)C(C)CC)C32)C)CC(O)C1",
        "Molecular Formula": "C<sub>24</sub>H<sub>36</sub>O<sub>5</sub>",
        "Molecular Mass": "404.54",
        "Melting Point": "174 °C"
    }
}