{
    "cas_no": "40615-39-2",
    "key_name": "5′-<em>O</em>-(4,4′-Dimethoxytrityl)thymidine",
    "cn_name": "保护胸苷;保护胸甙;5\"-O-[双(4-甲氧基苯基)苄基]-2\"-胸腺嘧啶核苷;",
    "alternate_name": "Thymidine, 5′-<em>O</em>-[bis(4-methoxyphenyl)phenylmethyl]-;Thymidine, 5′-<em>O</em>-[α,α-bis(<em>p</em>-methoxyphenyl)benzyl]-;5′-<em>O</em>-[Bis(4-methoxyphenyl)phenylmethyl]thymidine;5′-<em>O</em>-(Di-<em>p</em>-methoxytrityl)thymidine;5′-<em>O</em>-(4,4′-Dimethoxytrityl)thymidine;5′-<em>O</em>-(4,4′-Dimethoxytrityl)-2′-deoxythymidine;5′-<em>O</em>-(<em>p</em>,<em>p</em>′-Dimethoxytrityl)thymidine",
    "duplicated_cas_no": "138799-00-5;169474-07-1;203926-33-4;1093730-81-4",
    "SMILES": "C(OC[C@H]1O[C@H](C[C@@H]1O)N2C(=O)NC(=O)C(C)=C2)(C3=CC=C(OC)C=C3)(C4=CC=C(OC)C=C4)C5=CC=CC=C5",
    "meta_data": {
        "InChI": "InChI=1S/C31H32N2O7/c1-20-18-33(30(36)32-29(20)35)28-17-26(34)27(40-28)19-39-31(21-7-5-4-6-8-21,22-9-13-24(37-2)14-10-22)23-11-15-25(38-3)16-12-23/h4-16,18,26-28,34H,17,19H2,1-3H3,(H,32,35,36)/t26-,27+,28+/m0/s1",
        "InChIKey": null,
        "Canonical SMILES": "O=C1NC(=O)N(C=C1C)C2OC(COC(C=3C=CC=CC3)(C4=CC=C(OC)C=C4)C5=CC=C(OC)C=C5)C(O)C2",
        "Molecular Formula": "C<sub>31</sub>H<sub>32</sub>N<sub>2</sub>O<sub>7</sub>",
        "Molecular Mass": "544.59",
        "Melting Point": "122-124 °C"
    }
}