{
    "cas_no": "2373-76-4",
    "key_name": "2-Methylcinnamic acid",
    "cn_name": "2-甲基肉桂酸;邻甲基肉桂酸;3-(2-甲基苯基)-2-丙烯酸;",
    "alternate_name": "2-Propenoic acid, 3-(2-methylphenyl)-;Cinnamic acid, <em>o</em>-methyl-;3-(2-Methylphenyl)-2-propenoic acid;<em>o</em>-Methylcinnamic acid;2-Methylcinnamic acid;NSC 99069;3-(2-Methylphenyl)acrylic acid",
    "duplicated_cas_no": "",
    "SMILES": "C(=CC(O)=O)C1=C(C)C=CC=C1",
    "meta_data": {
        "InChI": "InChI=1S/C10H10O2/c1-8-4-2-3-5-9(8)6-7-10(11)12/h2-7H,1H3,(H,11,12)",
        "InChIKey": null,
        "Canonical SMILES": "O=C(O)C=CC=1C=CC=CC1C",
        "Molecular Formula": "C<sub>10</sub>H<sub>10</sub>O<sub>2</sub>",
        "Molecular Mass": "162.19",
        "Melting Point": "175-176 °C"
    }
}