{
    "cas_no": "3644-18-6",
    "key_name": "1-[2-(Dimethylamino)ethyl]piperazine",
    "cn_name": "1-(2-二甲基氨基乙基)哌嗪;1-(2-二甲基氨基乙基)哌嗪;",
    "alternate_name": "1-Piperazineethanamine, <em>N</em>,<em>N</em>-dimethyl-;Piperazine, 1-[2-(dimethylamino)ethyl]-;<em>N</em>,<em>N</em>-Dimethyl-1-piperazineethanamine;1-[2-(Dimethylamino)ethyl]piperazine;<em>N</em>-[2-(<em>N</em>,<em>N</em>-Dimethylamino)ethyl]piperazine;4-[2-(Dimethylamino)ethyl]piperazine;<em>N</em>,<em>N</em>-Dimethyl-2-piperazin-1-ylethanamine;Dimethyl[2-(piperazin-1-yl)ethyl]amine;<em>N</em>,<em>N</em>-Dimethyl-<em>N</em>-[2-(piperazin-1-yl)ethyl]amine;<em>N</em>-(2-Dimethylaminoethyl)piperazine;<em>N</em>,<em>N</em>-Dimethyl-2-(piperazin-1-yl)ethan-1-amine",
    "duplicated_cas_no": "",
    "SMILES": "C(CN(C)C)N1CCNCC1",
    "meta_data": {
        "InChI": "InChI=1S/C8H19N3/c1-10(2)7-8-11-5-3-9-4-6-11/h9H,3-8H2,1-2H3",
        "InChIKey": null,
        "Canonical SMILES": "N1CCN(CC1)CCN(C)C",
        "Molecular Formula": "C<sub>8</sub>H<sub>19</sub>N<sub>3</sub>",
        "Molecular Mass": "157.26",
        "Boiling Point": "94-95 °C @ Press: 8 Torr",
        "Density": "0.9165 g/cm³ @ Temp: 20 °C"
    }
}