{
    "cas_no": "21901-41-7",
    "key_name": "4-Methyl-5-nitro-2(1<em>H</em>)-pyridinone",
    "cn_name": "2-羟基-4-甲基-5-硝基吡啶;",
    "alternate_name": "2(1<em>H</em>)-Pyridinone, 4-methyl-5-nitro-;2-Pyridinol, 4-methyl-5-nitro-;4-Methyl-5-nitro-2(1<em>H</em>)-pyridinone;2-Hydroxy-4-methyl-5-nitropyridine;NSC 402987;4-Methyl-5-nitropyridin-2-ol;4-Methyl-5-nitropyridin-2(1<em>H</em>)-one",
    "duplicated_cas_no": "",
    "SMILES": "N(=O)(=O)C=1C(C)=CC(=O)NC1",
    "meta_data": {
        "InChI": "InChI=1S/C6H6N2O3/c1-4-2-6(9)7-3-5(4)8(10)11/h2-3H,1H3,(H,7,9)",
        "InChIKey": null,
        "Canonical SMILES": "O=C1C=C(C(=CN1)N(=O)=O)C",
        "Molecular Formula": "C<sub>6</sub>H<sub>6</sub>N<sub>2</sub>O<sub>3</sub>",
        "Molecular Mass": "154.12",
        "Melting Point": "189-190 °C"
    }
}