{
    "cas_no": "594-27-4",
    "key_name": "Tetramethyltin",
    "cn_name": "四甲基锡;四甲錫;",
    "alternate_name": "Stannane, tetramethyl-;Tin, tetramethyl-;Tetramethylstannane;Tetramethyltin",
    "duplicated_cas_no": "",
    "SMILES": "[Sn](C)(C)(C)C",
    "meta_data": {
        "InChI": "InChI=1S/4CH3.Sn/h4*1H3;",
        "InChIKey": null,
        "Canonical SMILES": "C[Sn](C)(C)C",
        "Molecular Formula": "C<sub>4</sub>H<sub>12</sub>Sn",
        "Molecular Mass": "178.85",
        "Boiling Point": "78 °C",
        "Melting Point": "-54.8 °C",
        "Density": "1.291 g/cm³"
    }
}