{
    "cas_no": "54840-15-2",
    "key_name": "(4-Hydroxyphenyl)carbamic acid tert-butyl ester",
    "cn_name": "4-(BOC-氨基)酚;氧羰酰-4-羟基苯胺;",
    "alternate_name": "Carbamic acid, <em>N</em>-(4-hydroxyphenyl)-, 1,1-dimethylethyl ester;Carbamic acid, (4-hydroxyphenyl)-, 1,1-dimethylethyl ester;4-[(<em>tert</em>-Butoxycarbonyl)amino]phenol;<em>tert</em>-Butyl <em>p</em>-hydroxycarbanilate;<em>tert</em>-Butyl 4-hydroxyphenylcarbamate;<em>tert</em>-Butyl <em>N</em>-(4-hydroxyphenyl)carbamate;<em>N</em>-(4-Hydroxyphenyl)carbamic acid <em>tert</em>-butyl ester;(4-Hydroxyphenyl)carbamic acid tert-butyl ester;<em>N</em>-(<em>tert</em>-Butoxycarbonyl)-4-hydroxyaniline;4-(<em>N</em>-<em>t</em>-Butoxycarbonylamino)phenol;1,1-Dimethylethyl (4-hydroxyphenyl)carbamate;4-Hydroxy-<em>N</em>-(<em>tert</em>-butoxycarbonyl)aniline;<em>N</em>-Boc-4-hydroxyaniline;<em>N</em>-Boc-4-aminophenol;4-(<em>N</em>-<em>tert</em>-Butoxycarbonylamino)phenol",
    "duplicated_cas_no": "",
    "SMILES": "N(C(OC(C)(C)C)=O)C1=CC=C(O)C=C1",
    "meta_data": {
        "InChI": "InChI=1S/C11H15NO3/c1-11(2,3)15-10(14)12-8-4-6-9(13)7-5-8/h4-7,13H,1-3H3,(H,12,14)",
        "InChIKey": null,
        "Canonical SMILES": "O=C(OC(C)(C)C)NC1=CC=C(O)C=C1",
        "Molecular Formula": "C<sub>11</sub>H<sub>15</sub>NO<sub>3</sub>",
        "Molecular Mass": "209.24",
        "Melting Point": "146 °C"
    }
}