{
    "cas_no": "16995-35-0",
    "key_name": "1,1,1,3-Tetrachloroacetone",
    "cn_name": null,
    "alternate_name": "2-Propanone, 1,1,1,3-tetrachloro-;1,1,1,3-Tetrachloro-2-propanone;1,1,1,3-Tetrachloroacetone",
    "duplicated_cas_no": "",
    "SMILES": "C(C(Cl)(Cl)Cl)(CCl)=O",
    "meta_data": {
        "InChI": "InChI=1S/C3H2Cl4O/c4-1-2(8)3(5,6)7/h1H2",
        "InChIKey": null,
        "Canonical SMILES": "O=C(CCl)C(Cl)(Cl)Cl",
        "Molecular Formula": "C<sub>3</sub>H<sub>2</sub>Cl<sub>4</sub>O",
        "Molecular Mass": "195.86",
        "Boiling Point": "183 °C",
        "Melting Point": "65 °C"
    }
}