{
    "cas_no": "31680-08-7",
    "key_name": "4-Methoxy-3-nitrobenzaldehyde",
    "cn_name": "4-甲氧基-3-硝基苯甲醛;",
    "alternate_name": "Benzaldehyde, 4-methoxy-3-nitro-;<em>p</em>-Anisaldehyde, 3-nitro-;4-Methoxy-3-nitrobenzaldehyde;3-Nitro-<em>p</em>-anisaldehyde;3-Nitro-4-methoxybenzaldehyde",
    "duplicated_cas_no": "",
    "SMILES": "N(=O)(=O)C1=C(OC)C=CC(C=O)=C1",
    "meta_data": {
        "InChI": "InChI=1S/C8H7NO4/c1-13-8-3-2-6(5-10)4-7(8)9(11)12/h2-5H,1H3",
        "InChIKey": null,
        "Canonical SMILES": "O=CC1=CC=C(OC)C(=C1)N(=O)=O",
        "Molecular Formula": "C<sub>8</sub>H<sub>7</sub>NO<sub>4</sub>",
        "Molecular Mass": "181.15",
        "Melting Point": "86 °C"
    }
}