{
    "cas_no": "582-69-4",
    "key_name": "4,4′-(1-Oxido-1,2-diazenediyl)bis[benzoic acid]",
    "cn_name": "氧化偶氮苯-4,4ˊ-二羧酸;",
    "alternate_name": "Benzoic acid, 4,4′-(1-oxido-1,2-diazenediyl)bis-;Benzoic acid, 4,4′-azoxydi-;Benzoic acid, 4,4′-azoxybis-;Benzoic acid, <em>p</em>,<em>p</em>′-azoxydi-;4,4′-(1-Oxido-1,2-diazenediyl)bis[benzoic acid];4,4′-Azoxybenzoic acid;4,4′-Azoxybenzenedicarboxylic acid;4,4′-Azobisbenzoic acid <em>N</em>-oxide;4,4′-Dicarboxyazoxybenzene;NSC 24947;4,4′-Azoxydibenzoic acid",
    "duplicated_cas_no": "",
    "SMILES": "N(=NC1=CC=C(C(O)=O)C=C1)(=O)C2=CC=C(C(O)=O)C=C2",
    "meta_data": {
        "InChI": "InChI=1S/C14H10N2O5/c17-13(18)9-1-5-11(6-2-9)15-16(21)12-7-3-10(4-8-12)14(19)20/h1-8H,(H,17,18)(H,19,20)",
        "InChIKey": null,
        "Canonical SMILES": "O=C(O)C1=CC=C(N=N(=O)C2=CC=C(C=C2)C(=O)O)C=C1",
        "Molecular Formula": "C<sub>14</sub>H<sub>10</sub>N<sub>2</sub>O<sub>5</sub>",
        "Molecular Mass": "286.24",
        "Melting Point": "114.5 °C"
    }
}