{
    "cas_no": "52829-07-9",
    "key_name": "Bis(2,2,6,6-tetramethyl-4-piperidyl) sebacate",
    "cn_name": "双(2,2,6,6-四甲基-4-哌啶基)癸二酸酯;光稳定剂HA-10;光稳定剂GW-480;光稳定剂770;受阻胺770;",
    "alternate_name": "Decanedioic acid, 1,10-bis(2,2,6,6-tetramethyl-4-piperidinyl) ester;Decanedioic acid, bis(2,2,6,6-tetramethyl-4-piperidinyl) ester;Bis(2,2,6,6-tetramethyl-4-piperidyl) sebacate;Bis(2,2,6,6-tetramethyl-4-piperidinyl) sebacate;Tinuvin 770;Sanol;Sanol LS 770;LS 770;Sanol 770;Mark LA 77;HALS 770;T 770;Sanol LS 700;Tinuvin 770LS;TIN 770;ADK Stab LA 77;Tinuvin 770DF;Bis(2,2,6,6-tetramethyl-4-piperidyl) decanedioate;Sumisorb 577;Adeka LA 77;NF 90;Viosorb 04;Bis(2,2,6,6-tetramethylpiperidin-4-yl) sebecate;Lowilite 77;JF 90;770DF;LA 77Y;LA 77;BLS 1770;TN 770;Uvinul 4077;ADK Stab LA 77Y;Tinuvin 770DF1;HS 770;HA 7OG;Uvinul 4077H;Sanol LS 770P;Hillite 77;Hisorb 770;UV 770;Eversorb 90;GW 480;Antioxidant 770;Sanol LS 107;LA 77G;Bis(2,2,6,6-Tetramethyl-4-piperidone) sebacate;UV 770DF;Songlight 7700;Light Stabilizer 770;ZX 70;Chisorb 770;SB-UVA 677;Kemistab 77;Bis-(2,2,6,6-tetramethylpiperidin-4-yl) 1,10-decanedioate;HA 10;Adekastab LA 77;Tinuvin DF 770;MA 90;Riasorb UV 770;Adeka Stab LA 77Y;Tinuvin T 770;Sabostab UV 70;Chiguard 770;HALS 480;Riasorb UV 123;Bis(2,2,6,6-tetramethylpiperidin-4-yl) decanedioate",
    "duplicated_cas_no": "64104-43-4;91450-21-4;102267-60-7;115621-65-3;121449-00-1;127510-03-6;149264-42-6;152787-04-7;331982-98-0;908343-48-6;1444203-63-7;2042214-43-5;2757077-87-3;2851989-89-2;2935499-06-0",
    "SMILES": "O(C(CCCCCCCCC(OC1CC(C)(C)NC(C)(C)C1)=O)=O)C2CC(C)(C)NC(C)(C)C2",
    "meta_data": {
        "InChI": "InChI=1S/C28H52N2O4/c1-25(2)17-21(18-26(3,4)29-25)33-23(31)15-13-11-9-10-12-14-16-24(32)34-22-19-27(5,6)30-28(7,8)20-22/h21-22,29-30H,9-20H2,1-8H3",
        "InChIKey": null,
        "Canonical SMILES": "O=C(OC1CC(NC(C)(C)C1)(C)C)CCCCCCCCC(=O)OC2CC(NC(C)(C)C2)(C)C",
        "Molecular Formula": "C<sub>28</sub>H<sub>52</sub>N<sub>2</sub>O<sub>4</sub>",
        "Molecular Mass": "480.72",
        "Melting Point": "82-84 °C"
    }
}