{
    "cas_no": "4179-19-5",
    "key_name": "3,5-Dimethoxytoluene",
    "cn_name": "3,5-二甲氧基甲苯;",
    "alternate_name": "Benzene, 1,3-dimethoxy-5-methyl-;Toluene, 3,5-dimethoxy-;1,3-Dimethoxy-5-methylbenzene;Orcinol dimethyl ether;5-Methylresorcinol dimethyl ether;3,5-Dimethoxytoluene;1-Methyl-3,5-dimethoxybenzene;5-Methyl-1,3-dimethoxybenzene;NSC 72352",
    "duplicated_cas_no": "",
    "SMILES": "O(C)C1=CC(OC)=CC(C)=C1",
    "meta_data": {
        "InChI": "InChI=1S/C9H12O2/c1-7-4-8(10-2)6-9(5-7)11-3/h4-6H,1-3H3",
        "InChIKey": null,
        "Canonical SMILES": "O(C=1C=C(OC)C=C(C1)C)C",
        "Molecular Formula": "C<sub>9</sub>H<sub>12</sub>O<sub>2</sub>",
        "Molecular Mass": "152.19",
        "Boiling Point": "244 °C",
        "Melting Point": "145-147 °C"
    }
}