{
    "cas_no": "1829-28-3",
    "key_name": "Ethyl 2-iodobenzoate",
    "cn_name": "2-碘苯甲酸乙酯;",
    "alternate_name": "Benzoic acid, 2-iodo-, ethyl ester;Benzoic acid, <em>o</em>-iodo-, ethyl ester;Ethyl 2-iodobenzoate;Ethyl <em>o</em>-iodobenzoate;2-Iodobenzoic acid ethyl ester;2-(Ethoxycarbonyl)iodobenzene;<em>o</em>-Iodobenzoic acid ethyl ester",
    "duplicated_cas_no": "",
    "SMILES": "C(OCC)(=O)C1=C(I)C=CC=C1",
    "meta_data": {
        "InChI": "InChI=1S/C9H9IO2/c1-2-12-9(11)7-5-3-4-6-8(7)10/h3-6H,2H2,1H3",
        "InChIKey": null,
        "Canonical SMILES": "O=C(OCC)C=1C=CC=CC1I",
        "Molecular Formula": "C<sub>9</sub>H<sub>9</sub>IO<sub>2</sub>",
        "Molecular Mass": "276.07",
        "Boiling Point": "120-125 °C @ Press: 2.5 Torr",
        "Melting Point": "220-225 °C"
    }
}