{
    "cas_no": "56-72-4",
    "key_name": "Coumaphos",
    "cn_name": "蝇毒磷;蝇毒硫磷;香豆磷;库马磷;O,O-二乙基-O-(3-氯-4-甲基-2-氧代-2H-1-苯并吡喃-7-基)硫代磷酸酯;",
    "alternate_name": "Phosphorothioic acid, <em>O</em>-(3-chloro-4-methyl-2-oxo-2<em>H</em>-1-benzopyran-7-yl) <em>O</em>,<em>O</em>-diethyl ester;Coumarin, 3-chloro-7-hydroxy-4-methyl-, <em>O</em>-ester with <em>O</em>,<em>O</em>-diethyl phosphorothioate;Umbelliferone, 3-chloro-4-methyl-, <em>O</em>,<em>O</em>-diethyl phosphorothioate;ENT 17,957;Bayer 21/199;Agridip;3-Chloro-7-hydroxy-4-methyl-coumarin <em>O</em>,<em>O</em>-diethyl phosphorothioate;3-Chloro-7-hydroxy-4-methyl-coumarin <em>O</em>-ester with <em>O</em>,<em>O</em>-diethyl phosphorothioate;<em>O</em>-3-Chloro-4-methyl-7-coumarinyl <em>O</em>,<em>O</em>-diethyl phosphorothioate;3-Chloro-4-methyl-7-coumarinyl diethyl phosphorothioate;3-Chloro-4-methyl-7-hydroxycoumarin diethyl thiophosphoric acid ester;3-Chloro-4-methylumbelliferone <em>O</em>-ester with <em>O</em>,<em>O</em>-diethyl phosphorothioate;Coumafos;Coumaphos;<em>O</em>,<em>O</em>-Diethyl <em>O</em>-(3-chloro-4-methyl-7-coumarinyl) phosphorothioate;<em>O</em>,<em>O</em>-Diethyl <em>O</em>-(3-chloro-4-methyl-2-oxo-2<em>H</em>-benzopyran-7-yl) phosphorothioate;<em>O</em>,<em>O</em>-Diethyl <em>O</em>-3-chloro-4-methyl-2-oxo-2<em>H</em>-1-benzopyran-7-yl phosphorothioate;<em>O</em>,<em>O</em>-Diethyl 3-chloro-4-methyl-7-umbelliferone thiophosphate;Muscatox;Asuntol;Baymix;Co-ral;Meldane;Resitox;Meldone;<em>O</em>-(3-Chloro-4-methyl-2-oxo-2<em>H</em>-1-benzopyran-7-yl) <em>O</em>,<em>O</em>-diethyl phosphorothioate;Baymix 50;Muscotox;Perizin;Koral;Co-ral (phosphate);NSC 8944;Prince;MeSH ID: D003372",
    "duplicated_cas_no": "",
    "SMILES": "CC=1C=2C(=CC(OP(OCC)(OCC)=S)=CC2)OC(=O)C1Cl",
    "meta_data": {
        "InChI": "InChI=1S/C14H16ClO5PS/c1-4-17-21(22,18-5-2)20-10-6-7-11-9(3)13(15)14(16)19-12(11)8-10/h6-8H,4-5H2,1-3H3",
        "InChIKey": null,
        "Canonical SMILES": "O=C1OC=2C=C(OP(=S)(OCC)OCC)C=CC2C(=C1Cl)C",
        "Molecular Formula": "C<sub>14</sub>H<sub>16</sub>ClO<sub>5</sub>PS",
        "Molecular Mass": "362.77",
        "Melting Point": "91 °C",
        "Density": "1.47 g/cm³ @ Temp: 20 °C"
    }
}