{
    "cas_no": "1864-92-2",
    "key_name": "3-Ethoxy-<em>N</em>,<em>N</em>-diethylbenzenamine",
    "cn_name": "间乙氧基-N,N-二乙基苯胺;",
    "alternate_name": "Benzenamine, 3-ethoxy-<em>N</em>,<em>N</em>-diethyl-;<em>m</em>-Phenetidine, <em>N</em>,<em>N</em>-diethyl-;3-Ethoxy-<em>N</em>,<em>N</em>-diethylbenzenamine;<em>N</em>,<em>N</em>-Diethyl-3-ethoxyaniline;1-(Diethylamino)-3-ethoxybenzene;<em>N</em>,<em>N</em>-Diethyl-<em>m</em>-phenetidine;<em>m</em>-(Diethylamino)phenetole;<em>N</em>,<em>N</em>-Diethyl-3-phenetidine;3-Ethoxy-<em>N</em>,<em>N</em>-diethylaniline;3-(Diethylamino)-1-ethoxybenzene;NSC 6262",
    "duplicated_cas_no": "",
    "SMILES": "N(CC)(CC)C1=CC(OCC)=CC=C1",
    "meta_data": {
        "InChI": "InChI=1S/C12H19NO/c1-4-13(5-2)11-8-7-9-12(10-11)14-6-3/h7-10H,4-6H2,1-3H3",
        "InChIKey": null,
        "Canonical SMILES": "O(C1=CC=CC(=C1)N(CC)CC)CC",
        "Molecular Formula": "C<sub>12</sub>H<sub>19</sub>NO",
        "Molecular Mass": "193.29",
        "Boiling Point": "286 °C"
    }
}