{
    "cas_no": "6957-22-8",
    "key_name": "1,4-Bis(4-pyridyl)-2,3-diaza-1,3-butadiene",
    "cn_name": null,
    "alternate_name": "4-Pyridinecarboxaldehyde, 2-(4-pyridinylmethylene)hydrazone;Isonicotinaldehyde, azine;4-Pyridinecarboxaldehyde, (4-pyridinylmethylene)hydrazone;4-Pyridinaldazine;Pyridine-4-carboxaldazine;NSC 66165;<em>N</em>,<em>N</em>′-Bis(1-(4-pyridyl)methylene)hydrazine;4-Pyridinecarboxaldehyde azine;1,4-Bis(4-pyridyl)-2,3-diaza-1,3-butadiene",
    "duplicated_cas_no": "",
    "SMILES": "C(=NN=CC=1C=CN=CC1)C=2C=CN=CC2",
    "meta_data": {
        "InChI": "InChI=1S/C12H10N4/c1-5-13-6-2-11(1)9-15-16-10-12-3-7-14-8-4-12/h1-10H",
        "InChIKey": null,
        "Canonical SMILES": "N(N=CC=1C=CN=CC1)=CC=2C=CN=CC2",
        "Molecular Formula": "C<sub>12</sub>H<sub>10</sub>N<sub>4</sub>",
        "Molecular Mass": "210.23",
        "Melting Point": "178 °C"
    }
}