{
    "cas_no": "131860-33-8",
    "key_name": "Azoxystrobin",
    "cn_name": "嘧菌酯;(E)-[2-[6-(2-氰基苯氧基)嘧啶-4-基氧]苯基]-3-甲氧基丙烯酸甲酯;",
    "alternate_name": "Benzeneacetic acid, 2-[[6-(2-cyanophenoxy)-4-pyrimidinyl]oxy]-α-(methoxymethylene)-, methyl ester, (α<em>E</em>)-;Benzeneacetic acid, 2-[[6-(2-cyanophenoxy)-4-pyrimidinyl]oxy]-α-(methoxymethylene)-, methyl ester, (<em>E</em>)-;ICI-A 5504;Amistar;Azoxystrobin;Methyl (<em>E</em>)-2-[2-[6-(2-cyanophenoxy)pyrimidin-4-yloxy]phenyl]-3-methoxypropenoate;Heritage;Quadris;Bankit;Abound;Priori;Protege FL;Protege;Dynasty;Ortiva;Heritage 50DF;A 14115;Cruiser Extreme;Amistar 250SC;Azoxystrobine;Azaka;Onestar;Methyl (<em>E</em>)-2-[2-[[6-(2-cyanophenoxy)pyrimidin-4-yl]oxy]phenyl]-3-methoxyacrylate;Abound 2.08F;Satori;Mazolin;Mirador;Mirador 250SC",
    "duplicated_cas_no": "296237-03-1;215934-32-0;918881-33-1",
    "SMILES": "C(\\C(OC)=O)(=C/OC)/C1=C(OC=2C=C(OC3=C(C#N)C=CC=C3)N=CN2)C=CC=C1",
    "meta_data": {
        "InChI": "InChI=1S/C22H17N3O5/c1-27-13-17(22(26)28-2)16-8-4-6-10-19(16)30-21-11-20(24-14-25-21)29-18-9-5-3-7-15(18)12-23/h3-11,13-14H,1-2H3/b17-13+",
        "InChIKey": null,
        "Canonical SMILES": "N#CC=1C=CC=CC1OC2=NC=NC(OC=3C=CC=CC3C(=COC)C(=O)OC)=C2",
        "Molecular Formula": "C<sub>22</sub>H<sub>17</sub>N<sub>3</sub>O<sub>5</sub>",
        "Molecular Mass": "403.39",
        "Melting Point": "116 °C"
    }
}