{
    "cas_no": "32492-74-3",
    "key_name": "3,15-Dihydroxy-16,17-dimethoxytricyclo[12.3.1.1<sup>2,6</sup>]nonadeca-1(18),2,4,6(19),14,16-hexaen-9-one",
    "cn_name": null,
    "alternate_name": "Tricyclo[12.3.1.1<sup>2,6</sup>]nonadeca-1(18),2,4,6(19),14,16-hexaen-9-one, 3,15-dihydroxy-16,17-dimethoxy-;3,15-Dihydroxy-16,17-dimethoxytricyclo[12.3.1.1<sup>2,6</sup>]nonadeca-1(18),2,4,6(19),14,16-hexaen-9-one;Myricanone",
    "duplicated_cas_no": "",
    "SMILES": "O(C)C1=C2C=3C=C(C=CC3O)CCC(=O)CCCCC(=C2)C(O)=C1OC",
    "meta_data": {
        "InChI": "InChI=1S/C21H24O5/c1-25-20-17-12-14(19(24)21(20)26-2)5-3-4-6-15(22)9-7-13-8-10-18(23)16(17)11-13/h8,10-12,23-24H,3-7,9H2,1-2H3",
        "InChIKey": null,
        "Canonical SMILES": "O=C1CCC2=CC=C(O)C(=C2)C3=CC(=C(O)C(OC)=C3OC)CCCC1",
        "Molecular Formula": "C<sub>21</sub>H<sub>24</sub>O<sub>5</sub>",
        "Molecular Mass": "356.41",
        "Melting Point": "190-192 °C"
    }
}