{
    "cas_no": "87233-62-3",
    "key_name": "Emedastine difumarate",
    "cn_name": null,
    "alternate_name": "1<em>H</em>-Benzimidazole, 1-(2-ethoxyethyl)-2-(hexahydro-4-methyl-1<em>H</em>-1,4-diazepin-1-yl)-, (2<em>E</em>)-2-butenedioate (1:2);1<em>H</em>-Benzimidazole, 1-(2-ethoxyethyl)-2-(hexahydro-4-methyl-1<em>H</em>-1,4-diazepin-1-yl)-, (<em>E</em>)-2-butenedioate (1:2);1<em>H</em>-1,4-Diazepine, 1<em>H</em>-benzimidazole deriv.;KB 2413;LY 188695;KG 2413;Emedastine difumarate;AL 3432A;Rapimine;Emadine",
    "duplicated_cas_no": "",
    "SMILES": "C(COCC)N1C(=NC=2C1=CC=CC2)N3CCCN(C)CC3.C(=C/C(O)=O)\\C(O)=O",
    "meta_data": {
        "InChI": "InChI=1S/C17H26N4O.C4H4O4/c1-3-22-14-13-21-16-8-5-4-7-15(16)18-17(21)20-10-6-9-19(2)11-12-20;5-3(6)1-2-4(7)8/h4-5,7-8H,3,6,9-14H2,1-2H3;1-2H,(H,5,6)(H,7,8)/b;2-1+",
        "InChIKey": null,
        "Canonical SMILES": "O=C(O)C=CC(=O)O.N=1C=2C=CC=CC2N(C1N3CCN(C)CCC3)CCOCC",
        "Molecular Formula": "C<sub>17</sub>H<sub>26</sub>N<sub>4</sub>O.2C<sub>4</sub>H<sub>4</sub>O<sub>4</sub>",
        "Molecular Mass": "",
        "Melting Point": "148-151 °C"
    }
}