{
    "cas_no": "4747-61-9",
    "key_name": "6,6-Dimethylbicyclo[3.1.1]heptane-2-ethanol",
    "cn_name": null,
    "alternate_name": "Bicyclo[3.1.1]heptane-2-ethanol, 6,6-dimethyl-;2-Norpinaneethanol, 6,6-dimethyl-;6,6-Dimethylbicyclo[3.1.1]heptane-2-ethanol;Hydronopol;Nopol (terpene), dihydro-;Dihydrohomomyrtenol;Dihydronopol;NSC 1285;2-[6,6-Dimethylbicyclo[3.1.1]heptan-2-yl]ethan-1-ol;2-(6,6-Dimethylbicyclo[3.1.1]hept-2-yl)ethanol",
    "duplicated_cas_no": "",
    "SMILES": "C(CO)C1C2C(C)(C)C(C2)CC1",
    "meta_data": {
        "InChI": "InChI=1S/C11H20O/c1-11(2)9-4-3-8(5-6-12)10(11)7-9/h8-10,12H,3-7H2,1-2H3",
        "InChIKey": null,
        "Canonical SMILES": "OCCC1CCC2CC1C2(C)C",
        "Molecular Formula": "C<sub>11</sub>H<sub>20</sub>O",
        "Molecular Mass": "168.28",
        "Boiling Point": "123-125 °C @ Press: 10 Torr",
        "Density": "0.961 g/cm³ @ Temp: 25 °C"
    }
}