{
    "cas_no": "61788-32-7",
    "key_name": "Terphenyl, hydrogenated",
    "cn_name": null,
    "alternate_name": "Terphenyl, hydrogenated;Hydrogenated terphenyl",
    "duplicated_cas_no": "",
    "SMILES": "",
    "meta_data": {
        "InChI": "",
        "InChIKey": null,
        "Canonical SMILES": "",
        "Molecular Formula": "Unspecified",
        "Molecular Mass": "",
        "Boiling Point": "340 °C",
        "Density": "1.00 g/cm³"
    }
}