{
    "uri": "substance/pt/61788327",
    "rn": "61788-32-7",
    "name": "Terphenyl, hydrogenated",
    "images": [],
    "inchi": "",
    "inchiKey": "",
    "smile": "",
    "canonicalSmile": "",
    "molecularFormula": "Unspecified",
    "molecularMass": "",
    "experimentalProperties": [
        {
            "name": "Boiling Point",
            "property": "340 °C",
            "sourceNumber": 1
        },
        {
            "name": "Density",
            "property": "1.00 g/cm³",
            "sourceNumber": 1
        }
    ],
    "propertyCitations": [
        {
            "docUri": "",
            "sourceNumber": 1,
            "source": "International Chemical Safety Cards data were obtained from the National Institute for Occupational Safety and Health (US)"
        }
    ],
    "synonyms": [
        "Terphenyl, hydrogenated",
        "Hydrogenated terphenyl"
    ],
    "replacedRns": [],
    "hasMolfile": false,
    "source": "https://commonchemistry.cas.org/detail?cas_rn=61788-32-7"
}