{
    "cas_no": "746658-74-2",
    "key_name": "1,2-Piperidinedicarboxylic acid, 2-methyl-, 1-(1,1-dimethylethyl) ester",
    "cn_name": null,
    "alternate_name": "1,2-Piperidinedicarboxylic acid, 2-methyl-, 1-(1,1-dimethylethyl) ester;1-[(<em>tert</em>-Butoxy)carbonyl]-2-methylpiperidine-2-carboxylic acid;1-(<em>tert</em>-Butoxycarbonyl)-2-methylpiperidine-2-carboxylic acid;2-Methyl-1-[(2-methylpropan-2-yl)oxycarbonyl]piperidine-2-carboxylic acid",
    "duplicated_cas_no": "",
    "SMILES": "C(O)(=O)C1(C)N(C(OC(C)(C)C)=O)CCCC1",
    "meta_data": {
        "InChI": "InChI=1S/C12H21NO4/c1-11(2,3)17-10(16)13-8-6-5-7-12(13,4)9(14)15/h5-8H2,1-4H3,(H,14,15)",
        "InChIKey": null,
        "Canonical SMILES": "O=C(OC(C)(C)C)N1CCCCC1(C(=O)O)C",
        "Molecular Formula": "C<sub>12</sub>H<sub>21</sub>NO<sub>4</sub>",
        "Molecular Mass": "243.30",
        "Melting Point": "92-94 °C"
    }
}