{
    "cas_no": "1115-70-4",
    "key_name": "Metformin hydrochloride",
    "cn_name": "盐酸二甲双胍;1,1-二甲基双胍盐酸盐;",
    "alternate_name": "Imidodicarbonimidic diamide, <em>N</em>,<em>N</em>-dimethyl-, hydrochloride (1:1);Biguanide, 1,1-dimethyl-, monohydrochloride;Imidodicarbonimidic diamide, <em>N</em>,<em>N</em>-dimethyl-, monohydrochloride;Biguanide, 1,1-dimethyl-, hydrochloride;Metformin hydrochloride;<em>N</em>,<em>N</em>-Dimethylbiguanide hydrochloride;1,1-Dimethylbiguanide hydrochloride;Meguan;<em>N</em><sup>1</sup>,<em>N</em><sup>1</sup>-Dimethylbiguanide hydrochloride;Diabefagos;Glucophage;Glyformin;LA 6023;Dabex;Denkaform;Dextin;Diabetmin;Diabex;Apophage;Benofomin;Diformin Retard;Dimefor;Fornidd;Geamet;Glucaminol;Glucofago;Glucomet;Glucomine;Glucoform;Glucomin;Gluconil;Glucophage 850;Glucophage Forte;Glucophage-Mite;Glucophage Retard;Gludepatic;Glufor;Gluformin;Glumeformin;Glumin;Glupermin;Glyciphage;Glycon;Metforal;Metomin;Miformin;Orabet;Siamformet;Walaphage;Diaformin;Diformin;Glyceriphage;Diabetosan;Dialon;Glucophage XR;<em>N</em>,<em>N</em>-Dimethylbiguanidinium chloride;Apo-Metformin;Brot;Glumetza;Glifage;Glucophage SR;Melbin;<em>N</em>,<em>N</em>-Dimethylbiguanidine monohydrochloride;Glucoformin;Riomet;Glumin XR;Metgluco;Neodipa;Diabetmim;FORTAMET;Obimat-SR;Nelbis",
    "duplicated_cas_no": "15537-72-1;56258-19-6;144377-16-2",
    "SMILES": "C(NC(=N)N)(N(C)C)=N.Cl",
    "meta_data": {
        "InChI": "InChI=1S/C4H11N5.ClH/c1-9(2)4(7)8-3(5)6;/h1-2H3,(H5,5,6,7,8);1H",
        "InChIKey": null,
        "Canonical SMILES": "Cl.N=C(N)NC(=N)N(C)C",
        "Molecular Formula": "C<sub>4</sub>H<sub>11</sub>N<sub>5</sub>.ClH",
        "Molecular Mass": "",
        "Melting Point": "232 °C",
        "Density": "1.347 g/cm³ (solid)"
    }
}