{
    "cas_no": "3964-81-6",
    "key_name": "Azatadine",
    "cn_name": null,
    "alternate_name": "5<em>H</em>-Benzo[5,6]cyclohepta[1,2-<em>b</em>]pyridine, 6,11-dihydro-11-(1-methyl-4-piperidinylidene)-;5<em>H</em>-Benzo[5,6]cyclohepta[1,2-<em>b</em>]pyridine, 6,11-dihydro-11-(1-methyl-4-piperidylidene)-;6,11-Dihydro-11-(1-methyl-4-piperidinylidene)-5<em>H</em>-benzo[5,6]cyclohepta[1,2-<em>b</em>]pyridine;Azatadine;6,11-Dihydro-11-(1-methyl-4-piperidylidene)-5<em>H</em>-benzo[5,6]cyclohepta-[1,2-<em>b</em>]pyridine",
    "duplicated_cas_no": "",
    "SMILES": "CN1CCC(=C2C=3C(CCC=4C2=NC=CC4)=CC=CC3)CC1",
    "meta_data": {
        "InChI": "InChI=1S/C20H22N2/c1-22-13-10-16(11-14-22)19-18-7-3-2-5-15(18)8-9-17-6-4-12-21-20(17)19/h2-7,12H,8-11,13-14H2,1H3",
        "InChIKey": null,
        "Canonical SMILES": "N1=CC=CC2=C1C(C=3C=CC=CC3CC2)=C4CCN(C)CC4",
        "Molecular Formula": "C<sub>20</sub>H<sub>22</sub>N<sub>2</sub>",
        "Molecular Mass": "290.40",
        "Melting Point": "124-126 °C"
    }
}