{
    "cas_no": "19851-61-7",
    "key_name": "1,4-Bis(phenylmethyl) 1,4-benzenedicarboxylate",
    "cn_name": "1,4-二羟基苯酸双(甲苯)酯;",
    "alternate_name": "1,4-Benzenedicarboxylic acid, 1,4-bis(phenylmethyl) ester;Terephthalic acid, dibenzyl ester;1,4-Benzenedicarboxylic acid, bis(phenylmethyl) ester;1,4-Bis(phenylmethyl) 1,4-benzenedicarboxylate;Dibenzyl terephthalate",
    "duplicated_cas_no": "",
    "SMILES": "C(OCC1=CC=CC=C1)(=O)C2=CC=C(C(OCC3=CC=CC=C3)=O)C=C2",
    "meta_data": {
        "InChI": "InChI=1S/C22H18O4/c23-21(25-15-17-7-3-1-4-8-17)19-11-13-20(14-12-19)22(24)26-16-18-9-5-2-6-10-18/h1-14H,15-16H2",
        "InChIKey": null,
        "Canonical SMILES": "O=C(OCC=1C=CC=CC1)C2=CC=C(C=C2)C(=O)OCC=3C=CC=CC3",
        "Molecular Formula": "C<sub>22</sub>H<sub>18</sub>O<sub>4</sub>",
        "Molecular Mass": "346.38",
        "Melting Point": "94 °C"
    }
}