{
    "cas_no": "2155-94-4",
    "key_name": "<em>N</em>,<em>N</em>-Dimethylallylamine",
    "cn_name": null,
    "alternate_name": "2-Propen-1-amine, <em>N</em>,<em>N</em>-dimethyl-;Allylamine, <em>N</em>,<em>N</em>-dimethyl-;<em>N</em>,<em>N</em>-Dimethyl-2-propen-1-amine;Dimethylallylamine;<em>N</em>,<em>N</em>-Dimethylallylamine;Allyldimethylamine;<em>N</em>-Allyl-<em>N</em>,<em>N</em>-dimethylamine;<em>N</em>,<em>N</em>-Dimethyl-2-propenylamine;NSC 32615;3-(Dimethylamino)-1-propene;AC 407980050",
    "duplicated_cas_no": "183062-98-8",
    "SMILES": "C(N(C)C)C=C",
    "meta_data": {
        "InChI": "InChI=1S/C5H11N/c1-4-5-6(2)3/h4H,1,5H2,2-3H3",
        "InChIKey": null,
        "Canonical SMILES": "C=CCN(C)C",
        "Molecular Formula": "C<sub>5</sub>H<sub>11</sub>N",
        "Molecular Mass": "85.15",
        "Boiling Point": "64 °C",
        "Melting Point": "59-63 °C",
        "Density": "0.7094 g/cm³ @ Temp: 25 °C"
    }
}