{
    "cas_no": "15454-54-3",
    "key_name": "2<em>H</em>-Tetrazol-5-amine, hydrate (1:1)",
    "cn_name": "一水5-氨基-1H-四氮唑;一水5-氨基-1H-四氮唑;5-氨-1H-四唑单水合物;5-氨基-1H-四唑水合物,99%;",
    "alternate_name": "2<em>H</em>-Tetrazol-5-amine, hydrate (1:1);1<em>H</em>-Tetrazole, 5-amino-, monohydrate;1<em>H</em>-Tetrazol-5-amine, monohydrate;5-Aminotetrazole monohydrate;1<em>H</em>-1,2,3,4-Tetrazol-5-amine hydrate",
    "duplicated_cas_no": "",
    "SMILES": "NC=1NN=NN1.O",
    "meta_data": {
        "InChI": "InChI=1S/CH3N5.H2O/c2-1-3-5-6-4-1;/h(H3,2,3,4,5,6);1H2",
        "InChIKey": null,
        "Canonical SMILES": "O.N1=NNC(=N1)N",
        "Molecular Formula": "CH<sub>3</sub>N<sub>5</sub>.H<sub>2</sub>O",
        "Molecular Mass": "",
        "Melting Point": "203-204 °C"
    }
}