{
    "cas_no": "12069-94-2",
    "key_name": "Niobium carbide (NbC)",
    "cn_name": null,
    "alternate_name": "Niobium carbide (NbC);Niobium monocarbide;Niobium carbide;Niobium monocarbide (NbC)",
    "duplicated_cas_no": "11129-66-1;11129-67-2;155969-44-1;357245-90-0;1039456-73-9;2553061-38-2",
    "SMILES": "",
    "meta_data": {
        "InChI": "",
        "InChIKey": null,
        "Canonical SMILES": "",
        "Molecular Formula": "CNb",
        "Molecular Mass": "",
        "Melting Point": "3600 °C",
        "Density": "7.8 g/cm³"
    }
}