{
    "uri": "substance/pt/12069942",
    "rn": "12069-94-2",
    "name": "Niobium carbide (NbC)",
    "images": [],
    "inchi": "",
    "inchiKey": "",
    "smile": "",
    "canonicalSmile": "",
    "molecularFormula": "CNb",
    "molecularMass": "",
    "experimentalProperties": [
        {
            "name": "Melting Point",
            "property": "3600 °C",
            "sourceNumber": 1
        },
        {
            "name": "Density",
            "property": "7.8 g/cm³",
            "sourceNumber": 2
        }
    ],
    "propertyCitations": [
        {
            "docUri": "document/pt/document/27612022",
            "sourceNumber": 1,
            "source": "Acchar, Wilson; Materials Research (Sao Carlos, Brazil), (2005), 8(1), 109-112, CAplus"
        },
        {
            "docUri": "document/pt/document/50315914",
            "sourceNumber": 2,
            "source": "Huang, S. G.; International Journal of Refractory Metals & Hard Materials, (2018), 72, 63-70, CAplus"
        }
    ],
    "synonyms": [
        "Niobium carbide (NbC)",
        "Niobium monocarbide",
        "Niobium carbide",
        "Niobium monocarbide (NbC)"
    ],
    "replacedRns": [
        "11129-66-1",
        "11129-67-2",
        "155969-44-1",
        "357245-90-0",
        "1039456-73-9",
        "2553061-38-2"
    ],
    "hasMolfile": false,
    "source": "https://commonchemistry.cas.org/detail?cas_rn=12069-94-2"
}