{
    "cas_no": "637-88-7",
    "key_name": "1,4-Cyclohexanedione",
    "cn_name": "1,4-环己二酮;",
    "alternate_name": "1,4-Cyclohexanedione;Tetrahydroquinone;1,4-Dioxocyclohexane;1,4-Cyclohexadione;NSC 7192;Cyclohexan-1,4-dione",
    "duplicated_cas_no": "",
    "SMILES": "O=C1CCC(=O)CC1",
    "meta_data": {
        "InChI": "InChI=1S/C6H8O2/c7-5-1-2-6(8)4-3-5/h1-4H2",
        "InChIKey": null,
        "Canonical SMILES": "O=C1CCC(=O)CC1",
        "Molecular Formula": "C<sub>6</sub>H<sub>8</sub>O<sub>2</sub>",
        "Molecular Mass": "112.13",
        "Boiling Point": "212-213 °C",
        "Melting Point": "78 °C",
        "Density": "0.9165 g/cm³ @ Temp: 20 °C"
    }
}