{
    "cas_no": "26260-02-6",
    "key_name": "2-Iodobenzaldehyde",
    "cn_name": "2-碘苯甲醛;",
    "alternate_name": "Benzaldehyde, 2-iodo-;Benzaldehyde, <em>o</em>-iodo-;2-Iodobenzaldehyde;<em>o</em>-Iodobenzaldehyde;2-Iodobenzenealdehyde",
    "duplicated_cas_no": "",
    "SMILES": "C(=O)C1=C(I)C=CC=C1",
    "meta_data": {
        "InChI": "InChI=1S/C7H5IO/c8-7-4-2-1-3-6(7)5-9/h1-5H",
        "InChIKey": null,
        "Canonical SMILES": "O=CC=1C=CC=CC1I",
        "Molecular Formula": "C<sub>7</sub>H<sub>5</sub>IO",
        "Molecular Mass": "232.02",
        "Boiling Point": "129 °C @ Press: 14 Torr",
        "Melting Point": "33-39 °C"
    }
}