{
    "cas_no": "25103-09-7",
    "key_name": "Isooctyl mercaptoacetate",
    "cn_name": null,
    "alternate_name": "Acetic acid, 2-mercapto-, isooctyl ester;Acetic acid, mercapto-, isooctyl ester;Isooctyl alcohol, mercaptoacetate;Isooctyl mercaptoacetate;Isooctyl thioglycolate;Isooctyl 2-mercaptoacetate;Evabopol 198",
    "duplicated_cas_no": "1335-90-6;30523-03-6;623941-43-5",
    "SMILES": "",
    "meta_data": {
        "InChI": "",
        "InChIKey": null,
        "Canonical SMILES": "",
        "Molecular Formula": "C<sub>10</sub>H<sub>20</sub>O<sub>2</sub>S",
        "Molecular Mass": "",
        "Boiling Point": "125 °C @ Press: 17 Torr",
        "Density": "0.9736 g/cm³ @ Temp: 25 °C"
    }
}