{
    "cas_no": "127-66-2",
    "key_name": "2-Phenyl-3-butyn-2-ol",
    "cn_name": "&alpha;-甲基-&alpha;-乙炔基苯甲醇;",
    "alternate_name": "Benzenemethanol, α-ethynyl-α-methyl-;3-Butyn-2-ol, 2-phenyl-;Benzyl alcohol, α-ethynyl-α-methyl-;α-Ethynyl-α-methylbenzenemethanol;3-Phenyl-1-butyn-3-ol;Methylphenylethynylcarbinol;2-Phenyl-3-butyn-2-ol;Ethynylmethylphenylcarbinol;2-Hydroxy-2-phenyl-3-butyne;3-Phenylbutyn-3-ol;2-Phenyl-2-hydroxy-3-butyne;NSC 4329;3-Hydroxy-3-phenyl-1-butyne",
    "duplicated_cas_no": "131491-51-5",
    "SMILES": "C(C#C)(C)(O)C1=CC=CC=C1",
    "meta_data": {
        "InChI": "InChI=1S/C10H10O/c1-3-10(2,11)9-7-5-4-6-8-9/h1,4-8,11H,2H3",
        "InChIKey": null,
        "Canonical SMILES": "C#CC(O)(C=1C=CC=CC1)C",
        "Molecular Formula": "C<sub>10</sub>H<sub>10</sub>O",
        "Molecular Mass": "146.19",
        "Boiling Point": "217.5 °C",
        "Melting Point": "52.3 °C"
    }
}