{
    "cas_no": "3806-34-6",
    "key_name": "Distearyl pentaerythritol diphosphite",
    "cn_name": "抗氧剂618;抗氧化剂-PEP-8T;双十八烷基季戊四醇双亚磷酸酯;3,9-双十八烷氧基-2,4,8,10-四氧-3,9-二磷螺环[5;",
    "alternate_name": "2,4,8,10-Tetraoxa-3,9-diphosphaspiro[5.5]undecane, 3,9-bis(octadecyloxy)-;Phosphorous acid, cyclic neopentanetetrayl dioctadecyl ester;Phosphorous acid, octadecyl ester, cyclic diester with pentaerythritol;Phosphorous acid, dicyclic ester with pentaerythritol, dioctadecyl ester;Pentaerythritol, cyclic bis(octadecyl phosphite);3,9-Bis(octadecyloxy)-2,4,8,10-tetraoxa-3,9-diphosphaspiro[5.5]undecane;Distearyl pentaerythritol diphosphite;Weston 618;Pentaerythritol bis(octadecyl) diphosphite;Distearyl pentaerythrityl diphosphite;Cyclic neopentanetetraylbis(octadecyl phosphite);Weston WX 618;Dioctadecyl pentaerythritol diphosphite;P 1 (antioxidant);Pentaerythritol bis(stearyl phosphite);Mark PEP 8;PEP 8;HI-M-P;Weston MDW 618;Distearyl pentaerythritol disphosphite;JPP 2000;Mark PEP 8F;Doverphos S 680;Phos 4;Pentaerythritol bis(octadecyl phosphite);ADK Stab PEP 8;Weston 618F;AO 118;Antioxidant 118;ADK Stab PEP 8F;Dioctadecyl pentaerythritol diphosphonite;Weston 619F;Antioxidant 618;619F;PEP 8T;Heat Stabilizer 618;S 682F;Songnox 6180;Antioxidant 619;Bis(octadecyl) pentaerythritol diphosphite;3,9-Dioctadecoxy-2,4,8,10-tetraoxa-3,9-diphosphaspiro[5.5]undecane;Jyanox 618;Chemfos 619;Yiphos 3019",
    "duplicated_cas_no": "62132-43-8;86403-19-2;533936-17-3;940968-65-0;2417948-51-5",
    "SMILES": "O(CCCCCCCCCCCCCCCCCC)P1OCC2(COP(OCCCCCCCCCCCCCCCCCC)OC2)CO1",
    "meta_data": {
        "InChI": "InChI=1S/C41H82O6P2/c1-3-5-7-9-11-13-15-17-19-21-23-25-27-29-31-33-35-42-48-44-37-41(38-45-48)39-46-49(47-40-41)43-36-34-32-30-28-26-24-22-20-18-16-14-12-10-8-6-4-2/h3-40H2,1-2H3",
        "InChIKey": null,
        "Canonical SMILES": "O(P1OCC2(CO1)COP(OCCCCCCCCCCCCCCCCCC)OC2)CCCCCCCCCCCCCCCCCC",
        "Molecular Formula": "C<sub>41</sub>H<sub>82</sub>O<sub>6</sub>P<sub>2</sub>",
        "Molecular Mass": "733.03",
        "Melting Point": "40 °C"
    }
}