{
    "cas_no": "1293-87-4",
    "key_name": "1,1′-Ferrocenedicarboxylic acid",
    "cn_name": "1,1\"-二茂铁二甲酸;",
    "alternate_name": "Ferrocene, 1,1′-dicarboxy-;1,1′-Ferrocenedicarboxylic acid;Cyclopentadienecarboxylic acid, iron deriv.;Cyclopentadienecarboxylic acid, Fe deriv.;1,1′-Dicarboxyferrocene;1,1′-Biscarboxylferrocene;1,1′-Bis(carboxy)ferrocene;Ferrocenedicarboxylic acid",
    "duplicated_cas_no": "119390-48-6;60788-70-7;61114-87-2;94387-07-2;515872-25-0;12264-31-2",
    "SMILES": "C(O)(=O)[C-]12[Fe+2]3456789([C-]%10(C(O)=O)[CH]3=[CH]4[CH]5=[CH]6%10)[CH]1=[CH]7[CH]8=[CH]92",
    "meta_data": {
        "InChI": "InChI=1S/2C6H5O2.Fe/c2*7-6(8)5-3-1-2-4-5;/h2*1-4H,(H,7,8);/q2*-1;+2",
        "InChIKey": null,
        "Canonical SMILES": "O=C(O)[C-]12[CH]3=[CH]4[CH]5=[CH]1[Fe+2]45678932[CH]=%10[CH]9=[CH]8[C-]7(C(=O)O)[CH]%106",
        "Molecular Formula": "C<sub>12</sub>H<sub>10</sub>FeO<sub>4</sub>",
        "Molecular Mass": "",
        "Melting Point": "&gt;300 °C (decomp)"
    }
}