{
    "cas_no": "13668-61-6",
    "key_name": "2-Cyclopentene-1-acetic acid",
    "cn_name": null,
    "alternate_name": "2-Cyclopentene-1-acetic acid;Cyclopent-2-en-1-ylacetic acid;Cyclopenten-3-ylacetic acid;(2-Cyclopentenyl)acetic acid;2-Cyclopenteneacetic acid;(±)-2-Cyclopentene-1-acetic acid;2-(Cyclopent-2-enyl)acetic acid;NSC 60126;2-(Cyclopent-2-en-1-yl)acetic acid",
    "duplicated_cas_no": "75247-34-6",
    "SMILES": "C(C(O)=O)C1CCC=C1",
    "meta_data": {
        "InChI": "InChI=1S/C7H10O2/c8-7(9)5-6-3-1-2-4-6/h1,3,6H,2,4-5H2,(H,8,9)",
        "InChIKey": null,
        "Canonical SMILES": "O=C(O)CC1C=CCC1",
        "Molecular Formula": "C<sub>7</sub>H<sub>10</sub>O<sub>2</sub>",
        "Molecular Mass": "126.15",
        "Boiling Point": "94-95 °C @ Press: 2 Torr",
        "Density": "1.0519 g/cm³ @ Temp: 20 °C"
    }
}