{
    "cas_no": "5370-01-4",
    "key_name": "Mexiletine hydrochloride",
    "cn_name": "盐酸美西律;1-(2,6-二甲基苯氧基)-2-丙胺盐酸盐;",
    "alternate_name": "2-Propanamine, 1-(2,6-dimethylphenoxy)-, hydrochloride (1:1);Ethylamine, 1-methyl-2-(2,6-xylyloxy)-, hydrochloride;2-Propanamine, 1-(2,6-dimethylphenoxy)-, hydrochloride;Mexiletine hydrochloride;Ko 1173;Mexitil;Mexilitene;Ko 1173Cl;Katen;Ritalmex;(±)-Mexiletine hydrochloride;1-(2,6-Dimethylphenoxy)-propan-2-amine hydrochloride;2-(2-Aminopropoxy)-1,3-dimethylbenzene hydrochloride;Namuscla",
    "duplicated_cas_no": "25670-67-1",
    "SMILES": "O(CC(C)N)C1=C(C)C=CC=C1C.Cl",
    "meta_data": {
        "InChI": "InChI=1S/C11H17NO.ClH/c1-8-5-4-6-9(2)11(8)13-7-10(3)12;/h4-6,10H,7,12H2,1-3H3;1H",
        "InChIKey": null,
        "Canonical SMILES": "Cl.O(C=1C(=CC=CC1C)C)CC(N)C",
        "Molecular Formula": "C<sub>11</sub>H<sub>17</sub>NO.ClH",
        "Molecular Mass": "",
        "Melting Point": "203-205 °C",
        "Density": "1.12 g/cm³"
    }
}