{
    "cas_no": "591-07-1",
    "key_name": "Acetylurea",
    "cn_name": "乙酰脲;",
    "alternate_name": "Acetamide, <em>N</em>-(aminocarbonyl)-;Urea, acetyl-;<em>N</em>-(Aminocarbonyl)acetamide;Acetylurea;Acetylcarbamide;Monoacetylurea;1-Acetylurea;<em>N</em>-Acetylurea;Acetic acid, ureide;NSC 2766",
    "duplicated_cas_no": "",
    "SMILES": "N(C(C)=O)C(N)=O",
    "meta_data": {
        "InChI": "InChI=1S/C3H6N2O2/c1-2(6)5-3(4)7/h1H3,(H3,4,5,6,7)",
        "InChIKey": null,
        "Canonical SMILES": "O=C(N)NC(=O)C",
        "Molecular Formula": "C<sub>3</sub>H<sub>6</sub>N<sub>2</sub>O<sub>2</sub>",
        "Molecular Mass": "102.09",
        "Melting Point": "218 °C",
        "Density": "1.3495 g/cm³"
    }
}