{
    "cas_no": "58-90-2",
    "key_name": "2,3,4,6-Tetrachlorophenol",
    "cn_name": "2,3,4,6-四氯苯酚;",
    "alternate_name": "Phenol, 2,3,4,6-tetrachloro-;2,3,4,6-Tetrachlorophenol;Dowicide 6;TCP;2,4,5,6-Tetrachlorophenol;2,3,4,6-Tetrachlorophenate;NSC 2428",
    "duplicated_cas_no": "",
    "SMILES": "ClC1=C(Cl)C(O)=C(Cl)C=C1Cl",
    "meta_data": {
        "InChI": "InChI=1S/C6H2Cl4O/c7-2-1-3(8)6(11)5(10)4(2)9/h1,11H",
        "InChIKey": null,
        "Canonical SMILES": "ClC=1C=C(Cl)C(O)=C(Cl)C1Cl",
        "Molecular Formula": "C<sub>6</sub>H<sub>2</sub>Cl<sub>4</sub>O",
        "Molecular Mass": "231.89",
        "Boiling Point": "64 °C @ Press: 23 Torr",
        "Melting Point": "70 °C",
        "Density": "1.839 g/cm³ @ Temp: 25 °C"
    }
}