{
    "cas_no": "2234-75-5",
    "key_name": "1,2,4-Trimethylcyclohexane",
    "cn_name": "1,2,4-三甲基环己烷;",
    "alternate_name": "Cyclohexane, 1,2,4-trimethyl-;1,2,4-Trimethylcyclohexane;NSC 18907;1,2,5-Trimethylcyclohexane",
    "duplicated_cas_no": "",
    "SMILES": "CC1C(C)CCC(C)C1",
    "meta_data": {
        "InChI": "InChI=1S/C9H18/c1-7-4-5-8(2)9(3)6-7/h7-9H,4-6H2,1-3H3",
        "InChIKey": null,
        "Canonical SMILES": "CC1CCC(C)C(C)C1",
        "Molecular Formula": "C<sub>9</sub>H<sub>18</sub>",
        "Molecular Mass": "126.24",
        "Boiling Point": "140-141 °C",
        "Density": "0.778 g/cm³ @ Temp: 20 °C"
    }
}