{
    "cas_no": "2892-51-5",
    "key_name": "Squaric acid",
    "cn_name": "方酸;方形酸;3,4-二羟基-3-环丁烯-1,2-二酮;",
    "alternate_name": "3-Cyclobutene-1,2-dione, 3,4-dihydroxy-;Cyclobutenedione, dihydroxy-;3,4-Dihydroxy-3-cyclobutene-1,2-dione;Quadratic acid;Squaric acid;1,2-Diketo-3,4-dihydroxycyclobutene;1,2-Dihydroxycyclobutene-3,4-dione;3,4-Dihydroxycyclobutene-1,2-dione;1,2-Dihydroxy-1-cyclobutene-3,4-dione;NSC 125692;NSC 624671;3,4-Dioxocyclobut-1-ene-1,2-diol;1,2-Cyclobutanedione, 3,4-dihydroxy-;3,4-Dihydroxy-1,2-cyclobutanedione",
    "duplicated_cas_no": "25910-93-4;94592-78-6;2957929-39-2",
    "SMILES": "O=C1C(=O)C(O)=C1O",
    "meta_data": {
        "InChI": "InChI=1S/C4H2O4/c5-1-2(6)4(8)3(1)7/h5-6H",
        "InChIKey": null,
        "Canonical SMILES": "O=C1C(=O)C(O)=C1O",
        "Molecular Formula": "C<sub>4</sub>H<sub>2</sub>O<sub>4</sub>",
        "Molecular Mass": "114.06",
        "Melting Point": "300 °C (decomp)"
    }
}