{
    "cas_no": "1421-63-2",
    "key_name": "2′,4′,5′-Trihydroxybutyrophenone",
    "cn_name": "2,4,5-三羟基苯丁酮;2,4,5-三羟基苯丁酮;",
    "alternate_name": "1-Butanone, 1-(2,4,5-trihydroxyphenyl)-;Butyrophenone, 2′,4′,5′-trihydroxy-;1-(2,4,5-Trihydroxyphenyl)-1-butanone;THBP;2′,4′,5′-Trihydroxybutyrophenone;2,4,5-Trihydroxybutyrophenone;Trihydroxybutyrophenone;NSC 73478",
    "duplicated_cas_no": "",
    "SMILES": "C(CCC)(=O)C1=C(O)C=C(O)C(O)=C1",
    "meta_data": {
        "InChI": "InChI=1S/C10H12O4/c1-2-3-7(11)6-4-9(13)10(14)5-8(6)12/h4-5,12-14H,2-3H2,1H3",
        "InChIKey": null,
        "Canonical SMILES": "O=C(C1=CC(O)=C(O)C=C1O)CCC",
        "Molecular Formula": "C<sub>10</sub>H<sub>12</sub>O<sub>4</sub>",
        "Molecular Mass": "196.20",
        "Melting Point": "149-153 °C"
    }
}