{
    "cas_no": "1003-64-1",
    "key_name": "Ethylidenecyclohexane",
    "cn_name": "亚乙基环己烷;",
    "alternate_name": "Cyclohexane, ethylidene-;Ethylidenecyclohexane;NSC 74153",
    "duplicated_cas_no": "",
    "SMILES": "C(C)=C1CCCCC1",
    "meta_data": {
        "InChI": "InChI=1S/C8H14/c1-2-8-6-4-3-5-7-8/h2H,3-7H2,1H3",
        "InChIKey": null,
        "Canonical SMILES": "C(=C1CCCCC1)C",
        "Molecular Formula": "C<sub>8</sub>H<sub>14</sub>",
        "Molecular Mass": "110.20",
        "Boiling Point": "136 °C",
        "Melting Point": "55 °C",
        "Density": "0.9432 g/cm³ @ Temp: 40 °C"
    }
}