{
    "cas_no": "592-55-2",
    "key_name": "2-Bromoethyl ethyl ether",
    "cn_name": "2-溴乙基乙基醚;2-溴乙基乙醚;",
    "alternate_name": "Ethane, 1-bromo-2-ethoxy-;Ether, 2-bromoethyl ethyl;1-Bromo-2-ethoxyethane;2-Bromoethyl ethyl ether;2-Ethoxyethyl bromide;1-Ethoxy-2-bromoethane;1-Bromo-2-ethoxyethylene;2-Bromoethoxyethane;5-Bromo-3-oxapentane;1-Bromo-3-oxapentane;NSC 8026",
    "duplicated_cas_no": "",
    "SMILES": "C(OCC)CBr",
    "meta_data": {
        "InChI": "InChI=1S/C4H9BrO/c1-2-6-4-3-5/h2-4H2,1H3",
        "InChIKey": null,
        "Canonical SMILES": "BrCCOCC",
        "Molecular Formula": "C<sub>4</sub>H<sub>9</sub>BrO",
        "Molecular Mass": "153.02",
        "Boiling Point": "127.5 °C",
        "Density": "1.394 g/cm³ @ Temp: 20 °C"
    }
}