{
    "cas_no": "40106-13-6",
    "key_name": "4<em>H</em>-Cyclohepta[<em>b</em>]thiophene-3-carboxylic acid, 2-amino-5,6,7,8-tetrahydro-, ethyl ester",
    "cn_name": null,
    "alternate_name": "4<em>H</em>-Cyclohepta[<em>b</em>]thiophene-3-carboxylic acid, 2-amino-5,6,7,8-tetrahydro-, ethyl ester;Ethyl 2-amino-5,6,7,8-tetrahydro-4<em>H</em>-cyclohepta[<em>b</em>]thiophene-3-carboxylate;NSC 158551",
    "duplicated_cas_no": "",
    "SMILES": "C(OCC)(=O)C=1C2=C(SC1N)CCCCC2",
    "meta_data": {
        "InChI": "InChI=1S/C12H17NO2S/c1-2-15-12(14)10-8-6-4-3-5-7-9(8)16-11(10)13/h2-7,13H2,1H3",
        "InChIKey": null,
        "Canonical SMILES": "O=C(OCC)C1=C(SC2=C1CCCCC2)N",
        "Molecular Formula": "C<sub>12</sub>H<sub>17</sub>NO<sub>2</sub>S",
        "Molecular Mass": "239.33",
        "Melting Point": "79 °C"
    }
}