{
    "cas_no": "86-39-5",
    "key_name": "2-Chlorothioxanthone",
    "cn_name": "2-氯噻吨酮;2-氯硫杂蒽酮;",
    "alternate_name": "9<em>H</em>-Thioxanthen-9-one, 2-chloro-;Thioxanthen-9-one, 2-chloro-;2-Chloro-9<em>H</em>-thioxanthen-9-one;2-Chlorothiaxanthone;2-Chlorothioxanthen-9-one;2-Chlorothioxanthone;Sandoray 1050;UCI 100;Kayacure CTX;Quantacure CTX;Nisso Cure CTX;Speedcure CTX;Kayacure DETA-S;CTX;Gencure CTX;Omnirad CTX",
    "duplicated_cas_no": "",
    "SMILES": "O=C1C=2C(SC=3C1=CC=CC3)=CC=C(Cl)C2",
    "meta_data": {
        "InChI": "InChI=1S/C13H7ClOS/c14-8-5-6-12-10(7-8)13(15)9-3-1-2-4-11(9)16-12/h1-7H",
        "InChIKey": null,
        "Canonical SMILES": "O=C1C=2C=CC=CC2SC3=CC=C(Cl)C=C31",
        "Molecular Formula": "C<sub>13</sub>H<sub>7</sub>ClOS",
        "Molecular Mass": "246.71",
        "Melting Point": "174 °C",
        "Density": "1.53 g/cm³"
    }
}