{
    "cas_no": "335-57-9",
    "key_name": "Perfluoroheptane",
    "cn_name": "全氟庚烷;十六氟庚烷;",
    "alternate_name": "Heptane, 1,1,1,2,2,3,3,4,4,5,5,6,6,7,7,7-hexadecafluoro-;Heptane, hexadecafluoro-;1,1,1,2,2,3,3,4,4,5,5,6,6,7,7,7-Hexadecafluoroheptane;Perfluoroheptane;Perfluoro-<em>n</em>-heptane;Hexadecafluoroheptane;Fluorinert PF 5070;PF 5070;NSC 79256",
    "duplicated_cas_no": "156930-32-4;1201928-72-4",
    "SMILES": "C(C(C(C(F)(F)F)(F)F)(F)F)(C(C(C(F)(F)F)(F)F)(F)F)(F)F",
    "meta_data": {
        "InChI": "InChI=1S/C7F16/c8-1(9,2(10,11)4(14,15)6(18,19)20)3(12,13)5(16,17)7(21,22)23",
        "InChIKey": null,
        "Canonical SMILES": "FC(F)(F)C(F)(F)C(F)(F)C(F)(F)C(F)(F)C(F)(F)C(F)(F)F",
        "Molecular Formula": "C<sub>7</sub>F<sub>16</sub>",
        "Molecular Mass": "388.05",
        "Boiling Point": "82.5 °C",
        "Melting Point": "-78 °C",
        "Density": "1.7332 g/cm³ @ Temp: 20 °C"
    }
}