{
    "cas_no": "3850-30-4",
    "key_name": "2-Amino-3,3-dimethylbutane",
    "cn_name": "(±)-3,3-二甲基-2-丁胺;2-氨基-3，3-二甲基丁烷;",
    "alternate_name": "2-Butanamine, 3,3-dimethyl-;Propylamine, 1,2,2-trimethyl-;3,3-Dimethyl-2-butanamine;3,3-Dimethyl-2-aminobutane;2-Amino-3,3-dimethylbutane;3,3-Dimethylbut-2-ylamine;3-Amino-2,2-dimethylbutane;1,2,2-Trimethylpropylamine;1,2,2-Trimethylpropanamine;<em>dl</em>-3,3-Dimethyl-2-aminobutane;(±)-2-Amino-3,3-dimethylbutane;(±)-3,3-Dimethyl-2-butanamine;1-<em>tert</em>-Butylethylamine",
    "duplicated_cas_no": "59367-75-8",
    "SMILES": "C(C(C)N)(C)(C)C",
    "meta_data": {
        "InChI": "InChI=1S/C6H15N/c1-5(7)6(2,3)4/h5H,7H2,1-4H3",
        "InChIKey": null,
        "Canonical SMILES": "NC(C)C(C)(C)C",
        "Molecular Formula": "C<sub>6</sub>H<sub>15</sub>N",
        "Molecular Mass": "101.19",
        "Boiling Point": "102 °C",
        "Melting Point": "-20 °C"
    }
}