{
    "cas_no": "4431-00-9",
    "key_name": "Aurintricarboxylic acid",
    "cn_name": "金黄三羧酸;",
    "alternate_name": "Benzoic acid, 3,3′-[(3-carboxy-4-oxo-2,5-cyclohexadien-1-ylidene)methylene]bis[6-hydroxy-;1,4-Cyclohexadiene-1-carboxylic acid, 3-[bis(3-carboxy-4-hydroxyphenyl)methylene]-6-oxo-;Aurintricarboxylic acid;Benzoic acid, 5-[(3-carboxy-4-hydroxyphenyl)(3-carboxy-4-oxo-2,5-cyclohexadien-1-ylidene)methyl]-2-hydroxy-;3,3′-[(3-Carboxy-4-oxo-2,5-cyclohexadien-1-ylidene)methylene]bis[6-hydroxybenzoic acid];Aluminon free acid;Aurine tricarboxylic acid;CAC 1098;CP 005240",
    "duplicated_cas_no": "857155-55-6",
    "SMILES": "C(C1=CC(C(O)=O)=C(O)C=C1)(C2=CC(C(O)=O)=C(O)C=C2)=C3C=C(C(O)=O)C(=O)C=C3",
    "meta_data": {
        "InChI": "InChI=1S/C22H14O9/c23-16-4-1-10(7-13(16)20(26)27)19(11-2-5-17(24)14(8-11)21(28)29)12-3-6-18(25)15(9-12)22(30)31/h1-9,23-24H,(H,26,27)(H,28,29)(H,30,31)",
        "InChIKey": null,
        "Canonical SMILES": "O=C(O)C1=CC(C=CC1=O)=C(C2=CC=C(O)C(=C2)C(=O)O)C3=CC=C(O)C(=C3)C(=O)O",
        "Molecular Formula": "C<sub>22</sub>H<sub>14</sub>O<sub>9</sub>",
        "Molecular Mass": "422.34",
        "Melting Point": "246-250 °C"
    }
}