{
    "cas_no": "19912-61-9",
    "key_name": "Furanodiene",
    "cn_name": null,
    "alternate_name": "Cyclodeca[<em>b</em>]furan, 4,7,8,11-tetrahydro-3,6,10-trimethyl-, (5<em>E</em>,9<em>Z</em>)-;Germacra-1(10),4,7,11-tetraene, 8,12-epoxy-, (<em>Z</em>,<em>E</em>)-;Cyclodeca[<em>b</em>]furan, 4,7,8,11-tetrahydro-3,6,10-trimethyl-, (<em>Z</em>,<em>E</em>)-;(5<em>E</em>,9<em>Z</em>)-4,7,8,11-Tetrahydro-3,6,10-trimethylcyclodeca[<em>b</em>]furan;Furanodiene;(1<em>Z</em>,4<em>E</em>)-8,12-Epoxygermacra-1(10),4,7,11-tetraen-6-one",
    "duplicated_cas_no": "",
    "SMILES": "",
    "meta_data": {
        "InChI": "",
        "InChIKey": null,
        "Canonical SMILES": "",
        "Molecular Formula": "C<sub>15</sub>H<sub>20</sub>O",
        "Molecular Mass": "216.32",
        "Melting Point": "74-75 °C"
    }
}