{
    "cas_no": "566-88-1",
    "key_name": "5α-Cholestan-3-one",
    "cn_name": "5-Α-胆甾烷-3-酮;",
    "alternate_name": "Cholestan-3-one, (5α)-;5α-Cholestan-3-one;(5α)-Cholestan-3-one;5α-Cholestanone;5α(H)-Cholestan-3-one;(5α,17β)-17-Octylandrostan-3-one;NSC 11920",
    "duplicated_cas_no": "118167-49-0;127794-12-1",
    "SMILES": "C[C@@]12[C@]([C@]3([C@@]([C@]4(C)[C@@](CC3)(CC(=O)CC4)[H])(CC1)[H])[H])(CC[C@@]2([C@@H](CCCC(C)C)C)[H])[H]",
    "meta_data": {
        "InChI": "InChI=1S/C27H46O/c1-18(2)7-6-8-19(3)23-11-12-24-22-10-9-20-17-21(28)13-15-26(20,4)25(22)14-16-27(23,24)5/h18-20,22-25H,6-17H2,1-5H3/t19-,20+,22+,23-,24+,25+,26+,27-/m1/s1",
        "InChIKey": null,
        "Canonical SMILES": "O=C1CCC2(C)C(C1)CCC3C4CCC(C(C)CCCC(C)C)C4(C)CCC32",
        "Molecular Formula": "C<sub>27</sub>H<sub>46</sub>O",
        "Molecular Mass": "386.65",
        "Melting Point": "128-129 °C"
    }
}