{
    "cas_no": "2015-19-2",
    "key_name": "5-Amino-2-chlorobenzenesulfonamide",
    "cn_name": "4-氯苯胺-3-磺酰胺;",
    "alternate_name": "Benzenesulfonamide, 5-amino-2-chloro-;Metanilamide, 6-chloro-;5-Amino-2-chlorobenzenesulfonamide;2-Chloro-5-aminobenzenesulfonamide;3-Sulfamoyl-4-chloroaniline;4-Chloro-3-sulfamoylaniline;4-Chloro-5-(aminosulfonyl)aniline;3-Aminosulfonyl-4-chloroaniline",
    "duplicated_cas_no": "",
    "SMILES": "S(N)(=O)(=O)C1=C(Cl)C=CC(N)=C1",
    "meta_data": {
        "InChI": "InChI=1S/C6H7ClN2O2S/c7-5-2-1-4(8)3-6(5)12(9,10)11/h1-3H,8H2,(H2,9,10,11)",
        "InChIKey": null,
        "Canonical SMILES": "O=S(=O)(N)C1=CC(N)=CC=C1Cl",
        "Molecular Formula": "C<sub>6</sub>H<sub>7</sub>ClN<sub>2</sub>O<sub>2</sub>S",
        "Molecular Mass": "206.65",
        "Melting Point": "167-169 °C"
    }
}