{
    "cas_no": "402-43-7",
    "key_name": "1-Bromo-4-(trifluoromethyl)benzene",
    "cn_name": "对溴三氟甲苯;",
    "alternate_name": "Benzene, 1-bromo-4-(trifluoromethyl)-;Toluene, <em>p</em>-bromo-α,α,α-trifluoro-;1-Bromo-4-(trifluoromethyl)benzene;<em>p</em>-(Trifluoromethyl)bromobenzene;<em>p</em>-Bromobenzotrifluoride;4-(Trifluoromethyl)bromobenzene;<em>p</em>-Bromo-α,α,α-trifluorotoluene;4-Bromobenzotrifluoride;4-Bromo-1-(trifluoromethyl)benzene;<em>p</em>-(Trifluoromethyl)phenyl bromide;<em>p</em>-Bromo(trifluoromethyl)benzene;4-(Trifluoromethyl)phenyl bromide;4-Bromo(trifluoromethyl)benzene;4-Bromo-α,α,α-trifluorotoluene;4-Trifluoromethyl-1-bromobenzene;4-Trifluoromethane-1-bromobenzene;4-Bromobenzyltrifluoride;1-Trifluoromethyl-4-bromobenzene",
    "duplicated_cas_no": "",
    "SMILES": "C(F)(F)(F)C1=CC=C(Br)C=C1",
    "meta_data": {
        "InChI": "InChI=1S/C7H4BrF3/c8-6-3-1-5(2-4-6)7(9,10)11/h1-4H",
        "InChIKey": null,
        "Canonical SMILES": "FC(F)(F)C1=CC=C(Br)C=C1",
        "Molecular Formula": "C<sub>7</sub>H<sub>4</sub>BrF<sub>3</sub>",
        "Molecular Mass": "225.01",
        "Boiling Point": "160 °C",
        "Density": "1.607 g/cm³ @ Temp: 25 °C"
    }
}