{
    "cas_no": "174636-32-9",
    "key_name": "Talnetant",
    "cn_name": null,
    "alternate_name": "4-Quinolinecarboxamide, 3-hydroxy-2-phenyl-<em>N</em>-[(1<em>S</em>)-1-phenylpropyl]-;4-Quinolinecarboxamide, 3-hydroxy-2-phenyl-<em>N</em>-(1-phenylpropyl)-, (<em>S</em>)-;3-Hydroxy-2-phenyl-<em>N</em>-[(1<em>S</em>)-1-phenylpropyl]-4-quinolinecarboxamide;SB 223412;Talnetant;3-Hydroxy-2-phenyl-<em>N</em>-[(1S)-1-phenylpropyl]quinoline-4-carboxamide",
    "duplicated_cas_no": "",
    "SMILES": "C(N[C@@H](CC)C1=CC=CC=C1)(=O)C=2C3=C(N=C(C2O)C4=CC=CC=C4)C=CC=C3",
    "meta_data": {
        "InChI": "InChI=1S/C25H22N2O2/c1-2-20(17-11-5-3-6-12-17)27-25(29)22-19-15-9-10-16-21(19)26-23(24(22)28)18-13-7-4-8-14-18/h3-16,20,28H,2H2,1H3,(H,27,29)/t20-/m0/s1",
        "InChIKey": null,
        "Canonical SMILES": "O=C(NC(C=1C=CC=CC1)CC)C2=C(O)C(=NC=3C=CC=CC32)C=4C=CC=CC4",
        "Molecular Formula": "C<sub>25</sub>H<sub>22</sub>N<sub>2</sub>O<sub>2</sub>",
        "Molecular Mass": "382.45",
        "Melting Point": "125.1-126.2 °C"
    }
}