{
    "cas_no": "764-52-3",
    "key_name": "<em>S</em>-(Trifluoromethyl)-<span class=\"text-smallcaps\">L</span>-homocysteine",
    "cn_name": null,
    "alternate_name": "<span class=\"text-smallcaps\">L</span>-Homocysteine, <em>S</em>-(trifluoromethyl)-;Butyric acid, 2-amino-4-[(trifluoromethyl)thio]-, (<em>S</em>)-;Butyric acid, 2-amino-4-[(trifluoromethyl)thio]-;<em>S</em>-(Trifluoromethyl)-<span class=\"text-smallcaps\">L</span>-homocysteine;<em>S</em>-Trifluoromethyl-<span class=\"text-smallcaps\">L</span>-homocysteine;Trifluoro-<span class=\"text-smallcaps\">L</span>-methionine;Trifluoromethionine;(2S)-2-Amino-4-[(trifluoromethyl)sulfanyl]butanoic acid",
    "duplicated_cas_no": "",
    "SMILES": "C(C[C@@H](C(O)=O)N)SC(F)(F)F",
    "meta_data": {
        "InChI": "InChI=1S/C5H8F3NO2S/c6-5(7,8)12-2-1-3(9)4(10)11/h3H,1-2,9H2,(H,10,11)/t3-/m0/s1",
        "InChIKey": null,
        "Canonical SMILES": "O=C(O)C(N)CCSC(F)(F)F",
        "Molecular Formula": "C<sub>5</sub>H<sub>8</sub>F<sub>3</sub>NO<sub>2</sub>S",
        "Molecular Mass": "203.18",
        "Melting Point": "227-228 °C"
    }
}