{
    "cas_no": "139756-00-6",
    "key_name": "1-Methyl-4-nitro-3-propyl-1<em>H</em>-pyrazole-5-carboxylic acid",
    "cn_name": "2-Methyl-4-nitro-5-propyl-2H-pyrazole-3-carboxylicacid;",
    "alternate_name": "1<em>H</em>-Pyrazole-5-carboxylic acid, 1-methyl-4-nitro-3-propyl-;1-Methyl-4-nitro-3-propyl-1<em>H</em>-pyrazole-5-carboxylic acid;1-Methyl-4-nitro-3-propylpyrazole-5-carboxylic acid",
    "duplicated_cas_no": "",
    "SMILES": "N(=O)(=O)C1=C(C(O)=O)N(C)N=C1CCC",
    "meta_data": {
        "InChI": "InChI=1S/C8H11N3O4/c1-3-4-5-6(11(14)15)7(8(12)13)10(2)9-5/h3-4H2,1-2H3,(H,12,13)",
        "InChIKey": null,
        "Canonical SMILES": "O=C(O)C1=C(C(=NN1C)CCC)N(=O)=O",
        "Molecular Formula": "C<sub>8</sub>H<sub>11</sub>N<sub>3</sub>O<sub>4</sub>",
        "Molecular Mass": "213.19",
        "Melting Point": "124-127 °C"
    }
}