{
    "cas_no": "1622-32-8",
    "key_name": "2-Chloroethanesulfonyl chloride",
    "cn_name": null,
    "alternate_name": "Ethanesulfonyl chloride, 2-chloro-;2-Chloroethanesulfonyl chloride;2-Chloroethylsulfonyl chloride;2-Chloroethanesulfonic acid chloride;β-Chloroethanesulfonyl chloride;2-Chloro-1-ethanesulfonyl chloride;Chloroethanesulfonyl chloride",
    "duplicated_cas_no": "",
    "SMILES": "C(S(Cl)(=O)=O)CCl",
    "meta_data": {
        "InChI": "InChI=1S/C2H4Cl2O2S/c3-1-2-7(4,5)6/h1-2H2",
        "InChIKey": null,
        "Canonical SMILES": "O=S(=O)(Cl)CCCl",
        "Molecular Formula": "C<sub>2</sub>H<sub>4</sub>Cl<sub>2</sub>O<sub>2</sub>S",
        "Molecular Mass": "163.02",
        "Boiling Point": "3-200 °C",
        "Melting Point": "3 °C",
        "Density": "1.555 g/cm³ @ Temp: 20 °C"
    }
}