{
    "cas_no": "28784-98-7",
    "key_name": "3-(4-Ethylphenyl)-2-propenoic acid",
    "cn_name": null,
    "alternate_name": "2-Propenoic acid, 3-(4-ethylphenyl)-;Cinnamic acid, <em>p</em>-ethyl-;3-(4-Ethylphenyl)-2-propenoic acid;<em>p</em>-Ethylcinnamic acid;4-Ethylcinnamic acid",
    "duplicated_cas_no": "",
    "SMILES": "C(=CC(O)=O)C1=CC=C(CC)C=C1",
    "meta_data": {
        "InChI": "InChI=1S/C11H12O2/c1-2-9-3-5-10(6-4-9)7-8-11(12)13/h3-8H,2H2,1H3,(H,12,13)",
        "InChIKey": null,
        "Canonical SMILES": "O=C(O)C=CC1=CC=C(C=C1)CC",
        "Molecular Formula": "C<sub>11</sub>H<sub>12</sub>O<sub>2</sub>",
        "Molecular Mass": "176.21",
        "Melting Point": "143 °C"
    }
}