{
    "cas_no": "765-87-7",
    "key_name": "1,2-Cyclohexanedione",
    "cn_name": "1,2-环己二酮;",
    "alternate_name": "1,2-Cyclohexanedione;1,2-Dioxocyclohexane;NSC 32950;NSC 627435;Cyclohexan-1,2-dione",
    "duplicated_cas_no": "",
    "SMILES": "O=C1C(=O)CCCC1",
    "meta_data": {
        "InChI": "InChI=1S/C6H8O2/c7-5-3-1-2-4-6(5)8/h1-4H2",
        "InChIKey": null,
        "Canonical SMILES": "O=C1C(=O)CCCC1",
        "Molecular Formula": "C<sub>6</sub>H<sub>8</sub>O<sub>2</sub>",
        "Molecular Mass": "112.13",
        "Boiling Point": "194 °C",
        "Melting Point": "40 °C",
        "Density": "1.1305 g/cm³ @ Temp: 20 °C"
    }
}