{
    "cas_no": "2904-41-8",
    "key_name": "2,4,6-Trioxo-1,3,5-triazine-1,3,5(2<em>H</em>,4<em>H</em>,6<em>H</em>)-tripropanoic acid",
    "cn_name": "三(2-羧乙基)异氰尿酸酯;2,4,6-三氧代-1,3,5-三嗪-1,3,5(2H,4H,6H)-三丙酸;",
    "alternate_name": "1,3,5-Triazine-1,3,5(2<em>H</em>,4<em>H</em>,6<em>H</em>)-tripropanoic acid, 2,4,6-trioxo-;<em>s</em>-Triazine-1,3,5(2<em>H</em>,4<em>H</em>,6<em>H</em>)-tripropionic acid, 2,4,6-trioxo-;2,4,6-Trioxo-1,3,5-triazine-1,3,5(2<em>H</em>,4<em>H</em>,6<em>H</em>)-tripropanoic acid;Hexahydro-2,4,6-trioxo-<em>s</em>-triazine-1,3,5-tripropionic acid;Tris(2-carboxyethyl) isocyanurate;1,3,5-Tris(2-carboxyethyl)isocyanuric acid;Tris(carboxyethyl) isocyanurate;1,3,5-Tris(carboxyethyl) isocyanurate;1,3,5-Tris(2-carboxyethyl) isocyanurate;NSC 11694;CIC Acid;Curezol CIC Acid",
    "duplicated_cas_no": "",
    "SMILES": "C(CC(O)=O)N1C(=O)N(CCC(O)=O)C(=O)N(CCC(O)=O)C1=O",
    "meta_data": {
        "InChI": "InChI=1S/C12H15N3O9/c16-7(17)1-4-13-10(22)14(5-2-8(18)19)12(24)15(11(13)23)6-3-9(20)21/h1-6H2,(H,16,17)(H,18,19)(H,20,21)",
        "InChIKey": null,
        "Canonical SMILES": "O=C(O)CCN1C(=O)N(C(=O)N(C1=O)CCC(=O)O)CCC(=O)O",
        "Molecular Formula": "C<sub>12</sub>H<sub>15</sub>N<sub>3</sub>O<sub>9</sub>",
        "Molecular Mass": "345.26",
        "Melting Point": "226-227 °C"
    }
}