{
    "cas_no": "108-29-2",
    "key_name": "γ-Valerolactone",
    "cn_name": "gamma-戊内酯;丙位戊内酯;",
    "alternate_name": "2(3<em>H</em>)-Furanone, dihydro-5-methyl-;Valeric acid, 4-hydroxy-, γ-lactone;Valeric acid, γ-hydroxy-, lactone;Dihydro-5-methyl-2(3<em>H</em>)-furanone;4-Hydroxypentanoic acid lactone;Pentanoic acid, 4-hydroxy-, γ-lactone;γ-Valerolactone;γ-Methyl-γ-butyrolactone;γ-Pentalactone;4-Methyl-γ-butyrolactone;γ-Methylbutyrolactone;4-Hydroxyvaleric acid lactone;4-Pentanolide;4-Methylbutyrolactone;Tetrahydro-5-methyl-2-furanone;Dihydro-5-methyl-2-furanone;5-Methyltetrahydro-2-furanone;4-Hydroxypentanoic acid γ-lactone;5-Methyldihydro-2(3<em>H</em>)-furanone;(±)-γ-Valerolactone;(±)-4-Methylbutyrolactone;(<em>RS</em>)-γ-Pentalactone;(±)-γ-Pentalactone;(±)-γ-Methylbutyrolactone;NSC 33700;γ-VL;Pentano-4-lactone;Dihydro-5-methylfuranone;GVL",
    "duplicated_cas_no": "57129-69-8",
    "SMILES": "CC1OC(=O)CC1",
    "meta_data": {
        "InChI": "InChI=1S/C5H8O2/c1-4-2-3-5(6)7-4/h4H,2-3H2,1H3",
        "InChIKey": null,
        "Canonical SMILES": "O=C1OC(C)CC1",
        "Molecular Formula": "C<sub>5</sub>H<sub>8</sub>O<sub>2</sub>",
        "Molecular Mass": "100.12",
        "Boiling Point": "85 °C @ Press: 10 Torr",
        "Melting Point": "-31 °C",
        "Density": "1.05474 g/cm³ @ Temp: 20 °C"
    }
}