{
    "cas_no": "4370-59-6",
    "key_name": "2,5-Dibromo-3,6-dihydroxy-2,5-cyclohexadiene-1,4-dione",
    "cn_name": "2,5-二溴-3,6-二羟对苯醌;2,5-二溴-3,6-二??苯醌;",
    "alternate_name": "2,5-Cyclohexadiene-1,4-dione, 2,5-dibromo-3,6-dihydroxy-;<em>p</em>-Benzoquinone, 2,5-dibromo-3,6-dihydroxy-;2,5-Dibromo-3,6-dihydroxy-2,5-cyclohexadiene-1,4-dione;Bromanilic acid;2,5-Dibromo-3,6-dihydroxyquinone;2,5-Dihydroxy-3,6-dibromo-1,4-benzoquinone;NSC 36928;2,5-Dibromo-3,6-dihydroxy-1,4-benzoquinone",
    "duplicated_cas_no": "",
    "SMILES": "BrC=1C(=O)C(O)=C(Br)C(=O)C1O",
    "meta_data": {
        "InChI": "InChI=1S/C6H2Br2O4/c7-1-3(9)5(11)2(8)6(12)4(1)10/h9,12H",
        "InChIKey": null,
        "Canonical SMILES": "O=C1C(Br)=C(O)C(=O)C(Br)=C1O",
        "Molecular Formula": "C<sub>6</sub>H<sub>2</sub>Br<sub>2</sub>O<sub>4</sub>",
        "Molecular Mass": "297.89",
        "Melting Point": "270 °C (decomp)",
        "Density": "2.53 g/cm³"
    }
}