{
    "cas_no": "162358-09-0",
    "key_name": "<em>N</em>-[1,1-Bis[(acetyloxy)methyl]-3-(4-octylphenyl)propyl]acetamide",
    "cn_name": "2-乙酰胺基-2-(4-辛基苯乙基)丙烷-1,3-二基二乙酸酯;",
    "alternate_name": "Acetamide, <em>N</em>-[1,1-bis[(acetyloxy)methyl]-3-(4-octylphenyl)propyl]-;<em>N</em>-[1,1-Bis[(acetyloxy)methyl]-3-(4-octylphenyl)propyl]acetamide;Acetic acid 2-acetoxymethyl-2-acetylamino-4-(4-octylphenyl)butyl ester;2-Acetamido-2-acetoxymethyl-4-(4-octylphenyl)butyl acetate;2-Acetamido-2-(4-octylphenethyl)-propane-1,3-diyl diacetate",
    "duplicated_cas_no": "",
    "SMILES": "C(CCC1=CC=C(CCCCCCCC)C=C1)(COC(C)=O)(COC(C)=O)NC(C)=O",
    "meta_data": {
        "InChI": "InChI=1S/C25H39NO5/c1-5-6-7-8-9-10-11-23-12-14-24(15-13-23)16-17-25(26-20(2)27,18-30-21(3)28)19-31-22(4)29/h12-15H,5-11,16-19H2,1-4H3,(H,26,27)",
        "InChIKey": null,
        "Canonical SMILES": "O=C(OCC(NC(=O)C)(COC(=O)C)CCC1=CC=C(C=C1)CCCCCCCC)C",
        "Molecular Formula": "C<sub>25</sub>H<sub>39</sub>NO<sub>5</sub>",
        "Molecular Mass": "433.58",
        "Melting Point": "110-112 °C"
    }
}