{
    "cas_no": "23012-16-0",
    "key_name": "2-Phenyloxazole-4-carboxylic acid",
    "cn_name": null,
    "alternate_name": "4-Oxazolecarboxylic acid, 2-phenyl-;2-Phenyl-4-oxazolecarboxylic acid;2-Phenyloxazole-4-carboxylic acid;2-Phenyl-1,3-oxazole-4-carboxylic acid",
    "duplicated_cas_no": "",
    "SMILES": "C(O)(=O)C=1N=C(OC1)C2=CC=CC=C2",
    "meta_data": {
        "InChI": "InChI=1S/C10H7NO3/c12-10(13)8-6-14-9(11-8)7-4-2-1-3-5-7/h1-6H,(H,12,13)",
        "InChIKey": null,
        "Canonical SMILES": "O=C(O)C=1N=C(OC1)C=2C=CC=CC2",
        "Molecular Formula": "C<sub>10</sub>H<sub>7</sub>NO<sub>3</sub>",
        "Molecular Mass": "189.17",
        "Melting Point": "210 °C"
    }
}