{
    "cas_no": "34068-01-4",
    "key_name": "1-[3-(Phenylmethoxy)phenyl]ethanone",
    "cn_name": "3-苄氧基苯乙酮;",
    "alternate_name": "Ethanone, 1-[3-(phenylmethoxy)phenyl]-;Acetophenone, 3′-(benzyloxy)-;1-[3-(Phenylmethoxy)phenyl]ethanone;3′-(Benzyloxy)acetophenone;<em>m</em>-Benzyloxyacetophenone;3-Benzyloxyacetophenone;1-(3-Phenylmethoxyphenyl)ethanone;1-[3-(Benzyloxy)phenyl]ethanone;NSC 159118;1-[3-(Benzyloxy)phenyl]ethan-1-one",
    "duplicated_cas_no": "40863-04-5",
    "SMILES": "O(CC1=CC=CC=C1)C2=CC(C(C)=O)=CC=C2",
    "meta_data": {
        "InChI": "InChI=1S/C15H14O2/c1-12(16)14-8-5-9-15(10-14)17-11-13-6-3-2-4-7-13/h2-10H,11H2,1H3",
        "InChIKey": null,
        "Canonical SMILES": "O=C(C=1C=CC=C(OCC=2C=CC=CC2)C1)C",
        "Molecular Formula": "C<sub>15</sub>H<sub>14</sub>O<sub>2</sub>",
        "Molecular Mass": "226.27",
        "Boiling Point": "165-170 °C @ Press: 0.5 Torr",
        "Melting Point": "29-30 °C"
    }
}