{
    "cas_no": "39835-09-1",
    "key_name": "2-Hydroxy-5-nitrobenzonitrile",
    "cn_name": null,
    "alternate_name": "Benzonitrile, 2-hydroxy-5-nitro-;Salicylonitrile, 5-nitro-;2-Hydroxy-5-nitrobenzonitrile;2-Cyano-4-nitrophenol;4-Nitro-2-cyanophenol",
    "duplicated_cas_no": "",
    "SMILES": "C(#N)C1=CC(N(=O)=O)=CC=C1O",
    "meta_data": {
        "InChI": "InChI=1S/C7H4N2O3/c8-4-5-3-6(9(11)12)1-2-7(5)10/h1-3,10H",
        "InChIKey": null,
        "Canonical SMILES": "N#CC1=CC(=CC=C1O)N(=O)=O",
        "Molecular Formula": "C<sub>7</sub>H<sub>4</sub>N<sub>2</sub>O<sub>3</sub>",
        "Molecular Mass": "164.12",
        "Melting Point": "197 °C"
    }
}