{
    "cas_no": "1245-13-2",
    "key_name": "Bicinchoninic acid",
    "cn_name": "2,2\"-二辛可宁酸;",
    "alternate_name": "[2,2′-Biquinoline]-4,4′-dicarboxylic acid;2,2′-Bicinchoninic acid;2,2′-Dicinchoninic acid;Bicinchoninic acid;4,4′-Dicarboxy-2,2′-biquinoline;NSC 133815;(2,2′)Biquinolinyl-4,4′-dicarboxylic acid;2-(4-Carboxyquinolin-2-yl)quinoline-4-carboxylic acid;BCA protein quantification assay;BCA protein assay;Bicinchoninic acid assay;Bicinchoninic acid (BCA) assay;Smith assay",
    "duplicated_cas_no": "",
    "SMILES": "C(O)(=O)C=1C2=C(N=C(C1)C=3C=C(C(O)=O)C4=C(N3)C=CC=C4)C=CC=C2",
    "meta_data": {
        "InChI": "InChI=1S/C20H12N2O4/c23-19(24)13-9-17(21-15-7-3-1-5-11(13)15)18-10-14(20(25)26)12-6-2-4-8-16(12)22-18/h1-10H,(H,23,24)(H,25,26)",
        "InChIKey": null,
        "Canonical SMILES": "O=C(O)C1=CC(=NC=2C=CC=CC21)C=3N=C4C=CC=CC4=C(C3)C(=O)O",
        "Molecular Formula": "C<sub>20</sub>H<sub>12</sub>N<sub>2</sub>O<sub>4</sub>",
        "Molecular Mass": "344.32",
        "Melting Point": "352 °C (decomp)"
    }
}