{
    "cas_no": "17419-81-7",
    "key_name": "4-Hydroxycyclohexanecarboxylic acid",
    "cn_name": null,
    "alternate_name": "Cyclohexanecarboxylic acid, 4-hydroxy-;4-Hydroxycyclohexanecarboxylic acid;4-Hydroxycyclohexane-1-carboxylic acid;4-Hydroxycyclohexylcarboxylic acid",
    "duplicated_cas_no": "",
    "SMILES": "C(O)(=O)C1CCC(O)CC1",
    "meta_data": {
        "InChI": "InChI=1S/C7H12O3/c8-6-3-1-5(2-4-6)7(9)10/h5-6,8H,1-4H2,(H,9,10)",
        "InChIKey": null,
        "Canonical SMILES": "O=C(O)C1CCC(O)CC1",
        "Molecular Formula": "C<sub>7</sub>H<sub>12</sub>O<sub>3</sub>",
        "Molecular Mass": "144.17",
        "Melting Point": "120 °C"
    }
}