{
    "cas_no": "380380-60-9",
    "key_name": "5-Bromo-2-(2<em>H</em>-tetrazol-5-yl)pyridine",
    "cn_name": null,
    "alternate_name": "Pyridine, 5-bromo-2-(2<em>H</em>-tetrazol-5-yl)-;Pyridine, 5-bromo-2-(1<em>H</em>-tetrazol-5-yl)-;5-Bromo-2-(2<em>H</em>-tetrazol-5-yl)pyridine;2-(5-Tetrazolyl)-5-bromopyridine;5-Bromo-2-(tetrazol-5-yl)pyridine;2-(1,2,3,4-Tetrazol-5-yl)-5-bromopyridine",
    "duplicated_cas_no": "",
    "SMILES": "BrC1=CC=C(N=C1)C=2NN=NN2",
    "meta_data": {
        "InChI": "InChI=1S/C6H4BrN5/c7-4-1-2-5(8-3-4)6-9-11-12-10-6/h1-3H,(H,9,10,11,12)",
        "InChIKey": null,
        "Canonical SMILES": "BrC=1C=NC(=CC1)C2=NN=NN2",
        "Molecular Formula": "C<sub>6</sub>H<sub>4</sub>BrN<sub>5</sub>",
        "Molecular Mass": "226.03",
        "Melting Point": "228 °C"
    }
}