{
    "cas_no": "2482-57-7",
    "key_name": "1-Bromo-2-butanol",
    "cn_name": null,
    "alternate_name": "2-Butanol, 1-bromo-;1-Bromo-2-butanol;1-Bromo-2-hydroxybutane;(±)-1-Bromo-2-butanol",
    "duplicated_cas_no": "117708-65-3",
    "SMILES": "C(CBr)(CC)O",
    "meta_data": {
        "InChI": "InChI=1S/C4H9BrO/c1-2-4(6)3-5/h4,6H,2-3H2,1H3",
        "InChIKey": null,
        "Canonical SMILES": "BrCC(O)CC",
        "Molecular Formula": "C<sub>4</sub>H<sub>9</sub>BrO",
        "Molecular Mass": "153.02",
        "Boiling Point": "56-58 °C @ Press: 11 Torr"
    }
}