{
    "cas_no": "90-50-6",
    "key_name": "3,4,5-Trimethoxycinnamic acid",
    "cn_name": "3,4,5-三甲氧基肉桂酸;",
    "alternate_name": "2-Propenoic acid, 3-(3,4,5-trimethoxyphenyl)-;Cinnamic acid, 3,4,5-trimethoxy-;3-(3,4,5-Trimethoxyphenyl)-2-propenoic acid;3,4,5-Trimethoxycinnamic acid;<em>O</em>-Methylsinapic acid;3,4,5-Trimethoxyphenylacrylic acid;3-(3,4,5-Trimethoxyphenyl)propenoic acid;NSC 66175;3-(3,4,5-Trimethoxyphenyl)acrylic acid",
    "duplicated_cas_no": "",
    "SMILES": "O(C)C1=C(OC)C(OC)=CC(C=CC(O)=O)=C1",
    "meta_data": {
        "InChI": "InChI=1S/C12H14O5/c1-15-9-6-8(4-5-11(13)14)7-10(16-2)12(9)17-3/h4-7H,1-3H3,(H,13,14)",
        "InChIKey": null,
        "Canonical SMILES": "O=C(O)C=CC1=CC(OC)=C(OC)C(OC)=C1",
        "Molecular Formula": "C<sub>12</sub>H<sub>14</sub>O<sub>5</sub>",
        "Molecular Mass": "238.24",
        "Melting Point": "126.5-127 °C"
    }
}