{
    "cas_no": "52093-21-7",
    "key_name": "Micronomicin",
    "cn_name": null,
    "alternate_name": "<span class=\"text-smallcaps\">D</smallcap>-Streptamine, <em>O</em>-2-amino-2,3,4,6-tetradeoxy-6-(methylamino)-α-<smallcap>D</smallcap>-<em>erythro</em>-hexopyranosyl-(1→4)-<em>O</em>-[3-deoxy-4-<em>C</em>-methyl-3-(methylamino)-β-<smallcap>L</span>-arabinopyranosyl-(1→6)]-2-deoxy-;<em>O</em>-2-Amino-2,3,4,6-tetradeoxy-6-(methylamino)-α-<span class=\"text-smallcaps\">D</smallcap>-<em>erythro</em>-hexopyranosyl-(1→4)-<em>O</em>-[3-deoxy-4-<em>C</em>-methyl-3-(methylamino)-β-<smallcap>L</smallcap>-arabinopyranosyl-(1→6)]-2-deoxy-<smallcap>D</span>-streptamine;Sagamicin;Antibiotic XK 62-2;Gentamicin C<sub>2b</sub>;Antibiotic KW 1062;KW 1062;DE 020;Micronomicin;XK 62-2;Santemycin",
    "duplicated_cas_no": "95782-71-1;55062-38-9;63748-00-5;66803-18-7;82643-25-2",
    "SMILES": "O([C@@H]1[C@@H](O)[C@H](O[C@H]2O[C@H](CNC)CC[C@H]2N)[C@@H](N)C[C@H]1N)[C@@H]3[C@H](O)[C@@H](NC)[C@@](C)(O)CO3",
    "meta_data": {
        "InChI": "InChI=1S/C20H41N5O7/c1-20(28)8-29-19(14(27)17(20)25-3)32-16-12(23)6-11(22)15(13(16)26)31-18-10(21)5-4-9(30-18)7-24-2/h9-19,24-28H,4-8,21-23H2,1-3H3/t9-,10+,11-,12+,13-,14+,15+,16-,17+,18+,19+,20-/m0/s1",
        "InChIKey": null,
        "Canonical SMILES": "OC1C(OCC(O)(C)C1NC)OC2C(O)C(OC3OC(CNC)CCC3N)C(N)CC2N",
        "Molecular Formula": "C<sub>20</sub>H<sub>41</sub>N<sub>5</sub>O<sub>7</sub>",
        "Molecular Mass": "463.57",
        "Melting Point": "260 °C (decomp)"
    }
}