{
    "cas_no": "16139-18-7",
    "key_name": "Aminoguanidine hydrochloride",
    "cn_name": "氨基胍盐酸盐;",
    "alternate_name": "Hydrazinecarboximidamide, hydrochloride (1:?);Guanidine, amino-, hydrochloride;Hydrazinecarboximidamide, hydrochloride;Aminoguanidine hydrochloride;Amidinohydrazine hydrochloride;1-Aminoguanidine hydrochloride",
    "duplicated_cas_no": "",
    "SMILES": "C(NN)(=N)N.Cl",
    "meta_data": {
        "InChI": "InChI=1S/CH6N4.ClH/c2-1(3)5-4;/h4H2,(H4,2,3,5);1H",
        "InChIKey": null,
        "Canonical SMILES": "Cl.N=C(N)NN",
        "Molecular Formula": "CH<sub>6</sub>N<sub>4</sub>.xClH",
        "Molecular Mass": "",
        "Melting Point": "160-162 °C (decomp)"
    }
}