{
    "cas_no": "10601-80-6",
    "key_name": "Propanoic acid, 3,3-diethoxy-, ethyl ester",
    "cn_name": "3,3-二乙氧基丙酸乙酯;",
    "alternate_name": "Propanoic acid, 3,3-diethoxy-, ethyl ester;Malonaldehydic acid, ethyl ester, diethyl acetal;Propionic acid, 3,3-diethoxy-, ethyl ester;Ethyl 3,3-diethoxypropionate;Ethyl β,β-diethoxypropionate;Ethyl 3,3-diethoxypropanoate;3,3-Diethoxypropionic acid ethyl ester;NSC 83149;Ethyl 3,3-bis(ethyloxy)propionate",
    "duplicated_cas_no": "",
    "SMILES": "C(CC(OCC)=O)(OCC)OCC",
    "meta_data": {
        "InChI": "InChI=1S/C9H18O4/c1-4-11-8(10)7-9(12-5-2)13-6-3/h9H,4-7H2,1-3H3",
        "InChIKey": null,
        "Canonical SMILES": "O=C(OCC)CC(OCC)OCC",
        "Molecular Formula": "C<sub>9</sub>H<sub>18</sub>O<sub>4</sub>",
        "Molecular Mass": "190.24",
        "Boiling Point": "206 °C @ Press: 754 Torr",
        "Melting Point": "200-202 °C",
        "Density": "0.9735 g/cm³ @ Temp: 20 °C"
    }
}