{
    "cas_no": "98886-44-3",
    "key_name": "Fosthiazate",
    "cn_name": "噻唑磷;O-乙基-S-仲丁基-2-氧代-1,3-噻唑烷-3-基硫代膦酸酯;",
    "alternate_name": "Phosphonothioic acid, <em>P</em>-(2-oxo-3-thiazolidinyl)-, <em>O</em>-ethyl <em>S</em>-(1-methylpropyl) ester;Phosphonothioic acid, (2-oxo-3-thiazolidinyl)-, <em>O</em>-ethyl <em>S</em>-(1-methylpropyl) ester;IKI 1145;<em>S</em>-<em>sec</em>-Butyl <em>O</em>-ethyl (2-oxo-3-thiazolidinyl)phosphonothioate;Fosthiazate;Nemathorin;<em>S</em>-<em>sec</em>-Butyl <em>O</em>-ethyl (2-oxo-3-thiazolidinyl)phosphonothiolate",
    "duplicated_cas_no": "",
    "SMILES": "P(SC(CC)C)(OCC)(=O)N1C(=O)SCC1",
    "meta_data": {
        "InChI": "InChI=1S/C9H18NO3PS2/c1-4-8(3)16-14(12,13-5-2)10-6-7-15-9(10)11/h8H,4-7H2,1-3H3",
        "InChIKey": null,
        "Canonical SMILES": "O=C1SCCN1P(=O)(OCC)SC(C)CC",
        "Molecular Formula": "C<sub>9</sub>H<sub>18</sub>NO<sub>3</sub>PS<sub>2</sub>",
        "Molecular Mass": "283.35",
        "Boiling Point": "198 °C",
        "Melting Point": "&lt;25 °C"
    }
}