{
    "cas_no": "99-85-4",
    "key_name": "γ-Terpinene",
    "cn_name": "萜品烯;1-甲基-4-(1-甲基乙基)-1,4-环己二烯;",
    "alternate_name": "1,4-Cyclohexadiene, 1-methyl-4-(1-methylethyl)-;<em>p</em>-Mentha-1,4-diene;1-Methyl-4-(1-methylethyl)-1,4-cyclohexadiene;Crithmene;gamma-Terpinene;Moslene;γ-Terpinene;γ-Terpinen;4-Isopropyl-1-methyl-1,4-cyclohexadiene;1-Methyl-4-isopropyl-1,4-cyclohexadiene;1-Isopropyl-4-methyl-1,4-cyclohexadiene;NSC 21448;1-Methyl-4-(propan-2-yl)cyclohexa-1,4-diene;1-Methyl-4-propan-2-ylcyclohexa-1,4-diene",
    "duplicated_cas_no": "",
    "SMILES": "C(C)(C)C=1CC=C(C)CC1",
    "meta_data": {
        "InChI": "InChI=1S/C10H16/c1-8(2)10-6-4-9(3)5-7-10/h4,7-8H,5-6H2,1-3H3",
        "InChIKey": null,
        "Canonical SMILES": "C1=C(C)CC=C(C1)C(C)C",
        "Molecular Formula": "C<sub>10</sub>H<sub>16</sub>",
        "Molecular Mass": "136.23",
        "Boiling Point": "183 °C",
        "Melting Point": "-10 °C",
        "Density": "0.849 g/cm³ @ Temp: 20 °C"
    }
}