{
    "cas_no": "103-20-8",
    "key_name": "7-Ethyl-2-methyl-4-undecanol",
    "cn_name": "十四烷醇;十四烷醇;",
    "alternate_name": "4-Undecanol, 7-ethyl-2-methyl-;7-Ethyl-2-methyl-4-undecanol;NSC 60591",
    "duplicated_cas_no": "",
    "SMILES": "C(CCC(CC(C)C)O)(CCCC)CC",
    "meta_data": {
        "InChI": "InChI=1S/C14H30O/c1-5-7-8-13(6-2)9-10-14(15)11-12(3)4/h12-15H,5-11H2,1-4H3",
        "InChIKey": null,
        "Canonical SMILES": "OC(CCC(CC)CCCC)CC(C)C",
        "Molecular Formula": "C<sub>14</sub>H<sub>30</sub>O",
        "Molecular Mass": "214.39",
        "Boiling Point": "261-262 °C @ Press: 760 Torr"
    }
}