{
    "cas_no": "82205-58-1",
    "key_name": "4-(5-Nitropyridin-2-yl)piperazine",
    "cn_name": "1-(5-硝基吡啶-2-基)哌嗪;",
    "alternate_name": "Piperazine, 1-(5-nitro-2-pyridinyl)-;Piperazine, 1-(5-nitro-2-pyridyl)-;1-(5-Nitro-2-pyridinyl)piperazine;5-Nitro-2-piperazinylpyridine;1-(5-Nitropyridin-2-yl)piperazine;4-(5-Nitropyridin-2-yl)piperazine;<em>N</em>-(5-Nitropyridin-2-yl)piperazine",
    "duplicated_cas_no": "",
    "SMILES": "N(=O)(=O)C1=CC=C(N=C1)N2CCNCC2",
    "meta_data": {
        "InChI": "InChI=1S/C9H12N4O2/c14-13(15)8-1-2-9(11-7-8)12-5-3-10-4-6-12/h1-2,7,10H,3-6H2",
        "InChIKey": null,
        "Canonical SMILES": "O=N(=O)C1=CN=C(C=C1)N2CCNCC2",
        "Molecular Formula": "C<sub>9</sub>H<sub>12</sub>N<sub>4</sub>O<sub>2</sub>",
        "Molecular Mass": "208.22",
        "Melting Point": "84-85 °C"
    }
}