{
    "cas_no": "1632-73-1",
    "key_name": "Fenchol",
    "cn_name": "葑醇; 小茴香醇; 1,3,3-三甲基双环[2,2,1]庚-2-醇;",
    "alternate_name": "Bicyclo[2.2.1]heptan-2-ol, 1,3,3-trimethyl-;2-Norbornanol, 1,3,3-trimethyl-;1,3,3-Trimethylbicyclo[2.2.1]heptan-2-ol;2-Fenchanol;Fenchol;Fenchyl alcohol;1,3,3-Trimethyl-2-norbornanol;2,2,4-Trimethylbicyclo[2.2.1]heptan-3-ol",
    "duplicated_cas_no": "2217-01-8;10378-33-3",
    "SMILES": "CC12C(O)C(C)(C)C(C1)CC2",
    "meta_data": {
        "InChI": "InChI=1S/C10H18O/c1-9(2)7-4-5-10(3,6-7)8(9)11/h7-8,11H,4-6H2,1-3H3",
        "InChIKey": null,
        "Canonical SMILES": "OC1C(C)(C)C2CCC1(C)C2",
        "Molecular Formula": "C<sub>10</sub>H<sub>18</sub>O",
        "Molecular Mass": "154.25",
        "Boiling Point": "202-203 °C",
        "Melting Point": "45 °C"
    }
}