{
    "cas_no": "58-95-7",
    "key_name": "Tocopheryl acetate",
    "cn_name": "D-alpha-生育酚醋酸酯;alpha-生育酚乙酸酯;维生素E醋酸酯;",
    "alternate_name": "2<em>H</em>-1-Benzopyran-6-ol, 3,4-dihydro-2,5,7,8-tetramethyl-2-[(4<em>R</em>,8<em>R</em>)-4,8,12-trimethyltridecyl]-, 6-acetate, (2<em>R</em>)-;6-Chromanol, 2,5,7,8-tetramethyl-2-(4,8,12-trimethyltridecyl)-, acetate, (+)-;2<em>H</em>-1-Benzopyran-6-ol, 3,4-dihydro-2,5,7,8-tetramethyl-2-(4,8,12-trimethyltridecyl)-, acetate, [2<em>R</em>-[2<em>R</em>*(4<em>R</em>*,8<em>R</em>*)]]-;α-Tocopherol acetate;Vitamin E acetate;2<em>H</em>-1-Benzopyran-6-ol, 3,4-dihydro-2,5,7,8-tetramethyl-2-[(4<em>R</em>,8<em>R</em>)-4,8,12-trimethyltridecyl]-, acetate, (2<em>R</em>)-;(+)-α-Tocopherol acetate;<em>d</em>-α-Tocopheryl acetate;(+)-α-Tocopheryl acetate;α-Tocopheryl acetate;<em>d</em>-α-Tocopherol acetate;2,5,7,8-Tetramethyl-2-(4,8,12-trimethyltridecyl)-6-chromanol acetate;Tocophrin;Fertilvit;Endo E Dompe;Gevex;Alfacol;Epsilan-M;E-Toplex;Evipherol;Econ;E-Ferol;Tocopherex;Tofaxin;Ephynal acetate;Contopheron;Ecofrol;Tokoferol acetate;Combinal E;Erevit;(2<em>R</em>,4′<em>R</em>,8′<em>R</em>)-α-Tocopheryl acetate;(<em>R</em>,<em>R</em>,<em>R</em>)-α-Tocopheryl acetate;Vitamin Eα acetate;(2<em>R</em>,4′<em>R</em>,8′<em>R</em>)-α-Tocopherol acetate;<span class=\"text-smallcaps\">D</span>-α-Tocopherol acetate;Covitol 1360;Tocopheryl acetate;Copherol 1250;Tocopherol acetate;Copherol 12250;<span class=\"text-smallcaps\">D</span>-α-Tocopheryl acetate;Covitol 1100;<em>d</em>-Vitamin E acetate;E-Vicotrat;Spondyvit;Tinoderm E;Nanotopes;Lutavit E 50;Covitol;E 230 Clear;Vitamin E 230 Clear;NatAc;Natur-E granulate;Covitol 700WD;Covitol 700;Copherol F 1250C;T-3376;Evicup;Vitapherol;Riken E Acetate α;<span class=\"text-smallcaps\">D</span>-Alpha-tocopheryl acetate;Onynex potassium;Onynex K;VEA Olio;Copherol 1250C",
    "duplicated_cas_no": "1406-70-8;12741-00-3;26243-95-8",
    "SMILES": "CC1=C2C(=C(C)C(OC(C)=O)=C1C)CC[C@](CCC[C@@H](CCC[C@@H](CCCC(C)C)C)C)(C)O2",
    "meta_data": {
        "InChI": "InChI=1S/C31H52O3/c1-21(2)13-10-14-22(3)15-11-16-23(4)17-12-19-31(9)20-18-28-26(7)29(33-27(8)32)24(5)25(6)30(28)34-31/h21-23H,10-20H2,1-9H3/t22-,23-,31-/m1/s1",
        "InChIKey": null,
        "Canonical SMILES": "O=C(OC=1C(=C(C=2OC(C)(CCC2C1C)CCCC(C)CCCC(C)CCCC(C)C)C)C)C",
        "Molecular Formula": "C<sub>31</sub>H<sub>52</sub>O<sub>3</sub>",
        "Molecular Mass": "472.74",
        "Boiling Point": "224 °C @ Press: 0.3 Torr",
        "Melting Point": "-27.5 °C",
        "Density": "0.9533 g/cm³ @ Temp: 21.34 °C"
    }
}