{
    "cas_no": "452-09-5",
    "key_name": "4-Chloro-2-fluoro-1-methoxybenzene",
    "cn_name": "4-氯-2-氟苯甲醚;",
    "alternate_name": "Benzene, 4-chloro-2-fluoro-1-methoxy-;Anisole, 4-chloro-2-fluoro-;4-Chloro-2-fluoro-1-methoxybenzene;4-Chloro-2-fluoroanisole;NSC 10330;1-Chloro-3-fluoro-4-methoxybenzene",
    "duplicated_cas_no": "",
    "SMILES": "O(C)C1=C(F)C=C(Cl)C=C1",
    "meta_data": {
        "InChI": "InChI=1S/C7H6ClFO/c1-10-7-3-2-5(8)4-6(7)9/h2-4H,1H3",
        "InChIKey": null,
        "Canonical SMILES": "FC1=CC(Cl)=CC=C1OC",
        "Molecular Formula": "C<sub>7</sub>H<sub>6</sub>ClFO",
        "Molecular Mass": "160.57",
        "Boiling Point": "102-103 °C @ Press: 48 Torr"
    }
}