{
    "cas_no": "51-24-1",
    "key_name": "Triac",
    "cn_name": "替拉曲可;",
    "alternate_name": "Benzeneacetic acid, 4-(4-hydroxy-3-iodophenoxy)-3,5-diiodo-;Thyroacetic acid, 3,3′,5-triiodo-;Acetic acid, [4-(4-hydroxy-3-iodophenoxy)-3,5-diiodophenyl]-;4-(4-Hydroxy-3-iodophenoxy)-3,5-diiodobenzeneacetic acid;3,3′,5-Triiodothyroacetic acid;Triac;[(4-Hydroxy-3-iodo-4-phenoxy)-3,5-diiodophenyl]acetic acid;T<sub>3</sub>A;Triacana;Tiratricol;Nidolin;2-[4-(4-Hydroxy-3-iodophenoxy)-3,5-diiodophenyl]acetic acid",
    "duplicated_cas_no": "",
    "SMILES": "O(C1=C(I)C=C(CC(O)=O)C=C1I)C2=CC(I)=C(O)C=C2",
    "meta_data": {
        "InChI": "InChI=1S/C14H9I3O4/c15-9-6-8(1-2-12(9)18)21-14-10(16)3-7(4-11(14)17)5-13(19)20/h1-4,6,18H,5H2,(H,19,20)",
        "InChIKey": null,
        "Canonical SMILES": "O=C(O)CC1=CC(I)=C(OC2=CC=C(O)C(I)=C2)C(I)=C1",
        "Molecular Formula": "C<sub>14</sub>H<sub>9</sub>I<sub>3</sub>O<sub>4</sub>",
        "Molecular Mass": "621.93",
        "Melting Point": "181.5 °C"
    }
}