{
    "cas_no": "60-27-5",
    "key_name": "Creatinine",
    "cn_name": "肌酸酐;肌酐;2-氨基-1-甲基咪唑啉-4-酮;",
    "alternate_name": "4<em>H</em>-Imidazol-4-one, 2-amino-1,5-dihydro-1-methyl-;Creatinine;2-Amino-1,5-dihydro-1-methyl-4<em>H</em>-imidazol-4-one;1-Methylglycocyamidine;1-Methylhydantoin-2-imide;2-Amino-1-methylimidazolin-4-one;NSC 13123;2-Amino-1-methyl-1,5-dihydroimidazol-4-one;TEGO Cosmo C 250;2-Imino-1-methyl-imidazolidin-4-one;2-Amino-1-methyl-4,5-dihydro-1<em>H</em>-imidazol-4-one;2-Imino-1-methylimidazolidin-4-one;MeSH ID: D003404",
    "duplicated_cas_no": "15231-31-9;45514-66-7;82016-55-5",
    "SMILES": "NC=1N(C)CC(=O)N1",
    "meta_data": {
        "InChI": "InChI=1S/C4H7N3O/c1-7-2-3(8)6-4(7)5/h2H2,1H3,(H2,5,6,8)",
        "InChIKey": null,
        "Canonical SMILES": "O=C1N=C(N)N(C)C1",
        "Molecular Formula": "C<sub>4</sub>H<sub>7</sub>N<sub>3</sub>O",
        "Molecular Mass": "113.12",
        "Melting Point": "300 °C (decomp)"
    }
}