{
    "cas_no": "4107-98-6",
    "key_name": "<em>N</em>,<em>N</em>-Bis(1-methylethyl)benzenamine",
    "cn_name": null,
    "alternate_name": "Benzenamine, <em>N</em>,<em>N</em>-bis(1-methylethyl)-;Aniline, <em>N</em>,<em>N</em>-diisopropyl-;<em>N</em>,<em>N</em>-Bis(1-methylethyl)benzenamine;<em>N</em>,<em>N</em>-Diisopropylaniline;<em>N</em>,<em>N</em>-Diisopropylbenzenamine",
    "duplicated_cas_no": "",
    "SMILES": "N(C(C)C)(C(C)C)C1=CC=CC=C1",
    "meta_data": {
        "InChI": "InChI=1S/C12H19N/c1-10(2)13(11(3)4)12-8-6-5-7-9-12/h5-11H,1-4H3",
        "InChIKey": null,
        "Canonical SMILES": "C=1C=CC(=CC1)N(C(C)C)C(C)C",
        "Molecular Formula": "C<sub>12</sub>H<sub>19</sub>N",
        "Molecular Mass": "177.29",
        "Boiling Point": "205-210 °C @ Press: 0.1 Torr",
        "Melting Point": "50-52 °C"
    }
}