{
    "cas_no": "303-49-1",
    "key_name": "Clomipramine",
    "cn_name": "氯米帕明;氯丙咪嗪;N,N-二甲基-10,11-二氢-3-氯-5H-二苯并[b,f]氮杂卓-5-丙胺;",
    "alternate_name": "5<em>H</em>-Dibenz[<em>b</em>,<em>f</em>]azepine-5-propanamine, 3-chloro-10,11-dihydro-<em>N</em>,<em>N</em>-dimethyl-;5<em>H</em>-Dibenz[<em>b</em>,<em>f</em>]azepine, 3-chloro-5-[3-(dimethylamino)propyl]-10,11-dihydro-;3-Chloro-10,11-dihydro-<em>N</em>,<em>N</em>-dimethyl-5<em>H</em>-dibenz[<em>b</em>,<em>f</em>]azepine-5-propanamine;Chlorimipramine;3-Chloro-5-[3-(dimethylamino)propyl]-10,11-dihydro-5<em>H</em>-dibenz[<em>b</em>,<em>f</em>]azepine;Clomipramine;G 34586;NSC 169865;Anapramine;Clomicalm;MeSH ID: D002997",
    "duplicated_cas_no": "83162-38-3",
    "SMILES": "C(CCN(C)C)N1C=2C(CCC=3C1=CC=CC3)=CC=C(Cl)C2",
    "meta_data": {
        "InChI": "InChI=1S/C19H23ClN2/c1-21(2)12-5-13-22-18-7-4-3-6-15(18)8-9-16-10-11-17(20)14-19(16)22/h3-4,6-7,10-11,14H,5,8-9,12-13H2,1-2H3",
        "InChIKey": null,
        "Canonical SMILES": "ClC1=CC=C2C(=C1)N(C=3C=CC=CC3CC2)CCCN(C)C",
        "Molecular Formula": "C<sub>19</sub>H<sub>23</sub>ClN<sub>2</sub>",
        "Molecular Mass": "314.85",
        "Boiling Point": "160-170 °C",
        "Melting Point": "189.5 °C"
    }
}