{
    "cas_no": "77-75-8",
    "key_name": "3-Methyl-1-pentyn-3-ol",
    "cn_name": "3-甲基-1-戊炔-3-醇;甲基戊炔醇;催眠醇;",
    "alternate_name": "1-Pentyn-3-ol, 3-methyl-;3-Methyl-1-pentyn-3-ol;Allotropal;Apridol;Atempol;2-Butanol, 2-ethynyl-;Dormidin;Dormigen;Dormiphen;Dormison;Dormosan;2-Ethynyl-2-butanol;Formison;Hexofen;Imnudorm;Meparfynol;Methylparafynol;3-Methylpent-1-yn-3-ol;Oblivon;Pentadorm;Pentinol;Perlopal;Riposon;Seral;Somnesin;Methylpentynol;3-Hydroxy-3-methyl-1-pentyne;3-Methyl-4-pentyn-3-ol;3-Methyl-1-pentyne-3-ol;α-Ethyl-α-methylpropargyl alcohol;Pentydorm;Melpintol;Citodorm;Sedapercut;Ethynylethylmethylcarbinol;Olfine P;(±)-3-Methylpent-1-yn-3-ol;Dormalest;Hesofen;Atemorin;Dorison;Dalgol;Anti-stress;NSC 28797;NSC 975",
    "duplicated_cas_no": "104758-85-2;25663-45-0",
    "SMILES": "C(CC)(C#C)(C)O",
    "meta_data": {
        "InChI": "InChI=1S/C6H10O/c1-4-6(3,7)5-2/h1,7H,5H2,2-3H3",
        "InChIKey": null,
        "Canonical SMILES": "C#CC(O)(C)CC",
        "Molecular Formula": "C<sub>6</sub>H<sub>10</sub>O",
        "Molecular Mass": "98.14",
        "Boiling Point": "120.5 °C",
        "Melting Point": "30.5 °C",
        "Density": "0.869 g/cm³ @ Temp: 19 °C"
    }
}