{
    "cas_no": "7782-24-3",
    "key_name": "(+)-2-Phenylpropionic acid",
    "cn_name": "S-2-苯基丙酸;",
    "alternate_name": "Benzeneacetic acid, α-methyl-, (α<em>S</em>)-;Hydratropic acid, (<em>S</em>)-(+)-;Benzeneacetic acid, α-methyl-, (<em>S</em>)-;(α<em>S</em>)-α-Methylbenzeneacetic acid;(+)-Hydratropic acid;(<em>S</em>)-(+)-α-Methylphenylacetic acid;(<em>S</em>)-(+)-Hydratropic acid;(<em>S</em>)-Hydratropic acid;(+)-2-Phenylpropanoic acid;(<em>S</em>)-(+)-2-Phenylpropionic acid;(<em>S</em>)-2-Phenylpropionic acid;(+)-2-Phenylpropionic acid;(+)-α-Phenylpropionic acid;(+)-(<em>S</em>)-Hydratropic acid;(<em>S</em>)-α-Phenylpropionic acid;(<em>S</em>)-2-Phenylpropanoic acid;(+)-(<em>S</em>)-2-Phenylpropionic acid;<em>d</em>-PPA;(<em>S</em>)-α-Methylbenzeneacetic acid;(2<em>S</em>)-2-Phenylpropanoic acid;(<em>S</em>)-α-Methylphenylacetic acid;(2S)-2-Phenylpropanoic acid",
    "duplicated_cas_no": "",
    "SMILES": "[C@H](C(O)=O)(C)C1=CC=CC=C1",
    "meta_data": {
        "InChI": "InChI=1S/C9H10O2/c1-7(9(10)11)8-5-3-2-4-6-8/h2-7H,1H3,(H,10,11)/t7-/m0/s1",
        "InChIKey": null,
        "Canonical SMILES": "O=C(O)C(C=1C=CC=CC1)C",
        "Molecular Formula": "C<sub>9</sub>H<sub>10</sub>O<sub>2</sub>",
        "Molecular Mass": "150.17",
        "Boiling Point": "116-117 °C @ Press: 2.2 Torr",
        "Melting Point": "150-153 °C"
    }
}