{
    "cas_no": "2144-40-3",
    "key_name": "<em>cis</em>-2,5-Bis(hydroxymethyl)tetrahydrofuran",
    "cn_name": null,
    "alternate_name": "<em>erythro</em>-Hexitol, 2,5-anhydro-3,4-dideoxy-;2,5-Furandimethanol, tetrahydro-, <em>cis</em>-;2,5-Anhydro-3,4-dideoxy-<em>erythro</em>-hexitol;<em>cis</em>-2,5-Bis(hydroxymethyl)tetrahydrofuran",
    "duplicated_cas_no": "1811541-28-2",
    "SMILES": "C(O)[C@@H]1O[C@H](CO)CC1",
    "meta_data": {
        "InChI": "InChI=1/C6H12O3/c7-3-5-1-2-6(4-8)9-5/h5-8H,1-4H2/t5-,6+",
        "InChIKey": null,
        "Canonical SMILES": "OCC1OC(CO)CC1",
        "Molecular Formula": "C<sub>6</sub>H<sub>12</sub>O<sub>3</sub>",
        "Molecular Mass": "132.16",
        "Boiling Point": "134 °C @ Press: 3 Torr",
        "Melting Point": "130.5 °C"
    }
}