{
    "cas_no": "39627-98-0",
    "key_name": "<em>N</em>-(2,6-Dimethylphenyl)-2-pyridinecarboxamide",
    "cn_name": "N-(2,6-二甲基苯基)-2-吡啶甲酰胺;",
    "alternate_name": "2-Pyridinecarboxamide, <em>N</em>-(2,6-dimethylphenyl)-;2′,6′-Picolinoxylidide;<em>N</em>-(2,6-Dimethylphenyl)-2-pyridinecarboxamide",
    "duplicated_cas_no": "",
    "SMILES": "N(C(=O)C1=CC=CC=N1)C2=C(C)C=CC=C2C",
    "meta_data": {
        "InChI": "InChI=1S/C14H14N2O/c1-10-6-5-7-11(2)13(10)16-14(17)12-8-3-4-9-15-12/h3-9H,1-2H3,(H,16,17)",
        "InChIKey": null,
        "Canonical SMILES": "O=C(NC=1C(=CC=CC1C)C)C2=NC=CC=C2",
        "Molecular Formula": "C<sub>14</sub>H<sub>14</sub>N<sub>2</sub>O",
        "Molecular Mass": "226.27",
        "Melting Point": "104 °C"
    }
}