{
    "cas_no": "97682-44-5",
    "key_name": "Irinotecan",
    "cn_name": null,
    "alternate_name": "[1,4′-Bipiperidine]-1′-carboxylic acid, (4<em>S</em>)-4,11-diethyl-3,4,12,14-tetrahydro-4-hydroxy-3,14-dioxo-1<em>H</em>-pyrano[3′,4′:6,7]indolizino[1,2-<em>b</em>]quinolin-9-yl ester;[1,4′-Bipiperidine]-1′-carboxylic acid, 4,11-diethyl-3,4,12,14-tetrahydro-4-hydroxy-3,14-dioxo-1<em>H</em>-pyrano[3′,4′:6,7]indolizino[1,2-<em>b</em>]quinolin-9-yl ester, (<em>S</em>)-;1<em>H</em>-Pyrano[3′,4′:6,7]indolizino[1,2-<em>b</em>]quinoline, [1,4′-bipiperidine]-1′-carboxylic acid deriv.;Irinotecan;(+)-Irinotecan;Irinotecan lactone;Irinophore C;Irinotecan mylan;(19S)-10,19-Diethyl-19-hydroxy-14,18-dioxo-17-oxa-3,13-diazapentacyclo[11.8.0.0[2,11].0[4,9].0[15,20]]henicosa-1(21),2(11),3,5,7,9,15(20)-heptaen-7-yl 4-(piperidin-1-yl)piperidine-1-carboxylate;ZINC 1612996",
    "duplicated_cas_no": "",
    "SMILES": "C(C)C1=C2C(C=3N(C2)C(=O)C4=C(C3)[C@](CC)(O)C(=O)OC4)=NC=5C1=CC(OC(=O)N6CCC(CC6)N7CCCCC7)=CC5",
    "meta_data": {
        "InChI": "InChI=1S/C33H38N4O6/c1-3-22-23-16-21(43-32(40)36-14-10-20(11-15-36)35-12-6-5-7-13-35)8-9-27(23)34-29-24(22)18-37-28(29)17-26-25(30(37)38)19-42-31(39)33(26,41)4-2/h8-9,16-17,20,41H,3-7,10-15,18-19H2,1-2H3/t33-/m0/s1",
        "InChIKey": null,
        "Canonical SMILES": "O=C(OC=1C=CC2=NC=3C4=CC5=C(C(=O)N4CC3C(=C2C1)CC)COC(=O)C5(O)CC)N6CCC(N7CCCCC7)CC6",
        "Molecular Formula": "C<sub>33</sub>H<sub>38</sub>N<sub>4</sub>O<sub>6</sub>",
        "Molecular Mass": "586.68",
        "Melting Point": "222-223 °C"
    }
}