{
    "cas_no": "474-08-8",
    "key_name": "Demissidine",
    "cn_name": null,
    "alternate_name": "Solanidan-3-ol, (3β,5α)-;5α-Solanidan-3β-ol;Demissidine;1<em>H</em>-Naphth[2′,1′:4,5]indeno[1,2-<em>b</em>]indolizine, solanidan-3-ol deriv.;(3β,5α)-Solanidan-3-ol;Demissidin;Dihydrosolanidine;NSC 409074",
    "duplicated_cas_no": "58784-33-1",
    "SMILES": "C[C@@]12[C@@]3([C@@](N4[C@@]([C@H]3C)(CC[C@H](C)C4)[H])(C[C@]1([C@]5([C@](CC2)([C@]6(C)[C@@](CC5)(C[C@@H](O)CC6)[H])[H])[H])[H])[H])[H]",
    "meta_data": {
        "InChI": "InChI=1S/C27H45NO/c1-16-5-8-23-17(2)25-24(28(23)15-16)14-22-20-7-6-18-13-19(29)9-11-26(18,3)21(20)10-12-27(22,25)4/h16-25,29H,5-15H2,1-4H3/t16-,17+,18-,19-,20+,21-,22-,23+,24-,25-,26-,27-/m0/s1",
        "InChIKey": null,
        "Canonical SMILES": "OC1CCC2(C)C(CCC3C2CCC4(C)C3CC5N6CC(C)CCC6C(C)C54)C1",
        "Molecular Formula": "C<sub>27</sub>H<sub>45</sub>NO",
        "Molecular Mass": "399.65",
        "Melting Point": "216.0-217.5 °C"
    }
}