{
    "cas_no": "106-40-1",
    "key_name": "4-Bromoaniline",
    "cn_name": "4-溴苯胺;对溴苯胺;对氨基溴化苯;",
    "alternate_name": "Benzenamine, 4-bromo-;Aniline, <em>p</em>-bromo-;4-Bromobenzenamine;<em>p</em>-Bromoaniline;4-Bromoaniline;<em>p</em>-Bromophenylamine;1-Amino-4-bromobenzene;<em>p</em>-Aminobromobenzene;4-Bromophenylamine;NSC 7085;4-Aminobromobenzene;<em>p</em>-Aminophenyl bromide",
    "duplicated_cas_no": "",
    "SMILES": "BrC1=CC=C(N)C=C1",
    "meta_data": {
        "InChI": "InChI=1S/C6H6BrN/c7-5-1-3-6(8)4-2-5/h1-4H,8H2",
        "InChIKey": null,
        "Canonical SMILES": "BrC1=CC=C(N)C=C1",
        "Molecular Formula": "C<sub>6</sub>H<sub>6</sub>BrN",
        "Molecular Mass": "172.02",
        "Melting Point": "66-66.5 °C",
        "Density": "1.4970 g/cm³ @ Temp: 99.6 °C"
    }
}