{
    "cas_no": "638-23-3",
    "key_name": "Carbocysteine",
    "cn_name": "S-羧甲基-L-半胱氨酸;羧甲基半胱氨酸;",
    "alternate_name": "<span class=\"text-smallcaps\">L</span>-Cysteine, <em>S</em>-(carboxymethyl)-;Alanine, 3-[(carboxymethyl)thio]-, <span class=\"text-smallcaps\">L</span>-;<em>S</em>-(Carboxymethyl)-<span class=\"text-smallcaps\">L</span>-cysteine;3-[(Carboxymethyl)thio]-<span class=\"text-smallcaps\">L</span>-alanine;Thiodril;Rhinathiol;Mucodyne;Carbocysteine;<span class=\"text-smallcaps\">L</span>-(Carboxymethyl)cysteine;(<span class=\"text-smallcaps\">L</span>)-2-Amino-3-(carboxymethylthio)propionic acid;Rinatiol;LJ 206;(<em>R</em>)-<em>S</em>-(Carboxymethyl)cysteine;<em>S</em>-(Carboxymethyl)-(<em>R</em>)-cysteine;<em>S</em>-Carboxylmethyl-<span class=\"text-smallcaps\">L</span>-cysteine;Mucopront;Carbocisteine;Muciclar;Bronchokod;Rhinatiol;DF 1794Y;Mucofan;Reomucil;Lisil;Pectox;Mucolase;Pulmoclase;Carbocit;Loviscol;Mukinyl;Transbronchin;Mucocis;Mucotab;Lisomucil;Siroxyl;AHR 3053;Mucolex;NSC 14156;Chilvax;(2<em>R</em>)-2-Amino-3-[(carboxymethyl)thio]propionic acid;Mucosol;PectDrill;Carboxymethyl-cysteine;(2R)-2-Amino-3-[(carboxymethyl)sulfanyl]propanoic acid;(2R)-2-Amino-3-(carboxymethylsulfanyl)propanoic acid;(2R)-2-Amino-3-[(carboxymethyl)thio]propionic acid;MeSH ID: D002233",
    "duplicated_cas_no": "11139-64-3",
    "SMILES": "C([C@@H](C(O)=O)N)SCC(O)=O",
    "meta_data": {
        "InChI": "InChI=1S/C5H9NO4S/c6-3(5(9)10)1-11-2-4(7)8/h3H,1-2,6H2,(H,7,8)(H,9,10)/t3-/m0/s1",
        "InChIKey": null,
        "Canonical SMILES": "O=C(O)CSCC(N)C(=O)O",
        "Molecular Formula": "C<sub>5</sub>H<sub>9</sub>NO<sub>4</sub>S",
        "Molecular Mass": "179.19",
        "Melting Point": "206 °C"
    }
}