{
    "cas_no": "90-89-1",
    "key_name": "Diethylcarbamazine",
    "cn_name": null,
    "alternate_name": "1-Piperazinecarboxamide, <em>N</em>,<em>N</em>-diethyl-4-methyl-;<em>N</em>,<em>N</em>-Diethyl-4-methyl-1-piperazinecarboxamide;84L;RP 3799;Caracide;Carbamazine;Carbilazine;Caricide;Diethylcarbamazine;1-Diethylcarbamoyl-4-methylpiperazine;Ethodryl;1-Methyl-4-diethylcarbamylpiperazine;Notezine;Spatonin;1-Methyl-4-diethylcarbamoylpiperazine;Cypip;Ditrazine base;Bitirazine;1-(<em>N</em>,<em>N</em>-Diethylcarbamoyl)-4-methylpiperazine;MeSH ID: D004049",
    "duplicated_cas_no": "8028-18-0;12672-34-3",
    "SMILES": "C(N(CC)CC)(=O)N1CCN(C)CC1",
    "meta_data": {
        "InChI": "InChI=1S/C10H21N3O/c1-4-12(5-2)10(14)13-8-6-11(3)7-9-13/h4-9H2,1-3H3",
        "InChIKey": null,
        "Canonical SMILES": "O=C(N(CC)CC)N1CCN(C)CC1",
        "Molecular Formula": "C<sub>10</sub>H<sub>21</sub>N<sub>3</sub>O",
        "Molecular Mass": "199.29",
        "Boiling Point": "108.5-111 °C @ Press: 3 Torr",
        "Melting Point": "48 °C"
    }
}