{
    "cas_no": "18145-83-0",
    "key_name": "Chloro(3-chloro-2-methylpropyl)dimethylsilane",
    "cn_name": "氯异丁基化二甲基化氯硅烷;氯异丁基化二甲基化氯硅烷;",
    "alternate_name": "Silane, chloro(3-chloro-2-methylpropyl)dimethyl-;Chloro(3-chloro-2-methylpropyl)dimethylsilane",
    "duplicated_cas_no": "",
    "SMILES": "C([Si](C)(C)Cl)C(CCl)C",
    "meta_data": {
        "InChI": "InChI=1S/C6H14Cl2Si/c1-6(4-7)5-9(2,3)8/h6H,4-5H2,1-3H3",
        "InChIKey": null,
        "Canonical SMILES": "ClCC(C)C[Si](Cl)(C)C",
        "Molecular Formula": "C<sub>6</sub>H<sub>14</sub>Cl<sub>2</sub>Si",
        "Molecular Mass": "185.17",
        "Boiling Point": "89 °C @ Press: 25 Torr",
        "Density": "1.03 g/cm³ @ Temp: 25 °C"
    }
}