{
    "cas_no": "4142-98-7",
    "key_name": "Benzoic acid, 3,5-dihydroxy-, ethyl ester",
    "cn_name": null,
    "alternate_name": "Benzoic acid, 3,5-dihydroxy-, ethyl ester;α-Resorcylic acid, ethyl ester;3,5-Dihydroxybenzoic acid ethyl ester;Ethyl 3,5-dihydroxybenzoate",
    "duplicated_cas_no": "",
    "SMILES": "C(OCC)(=O)C1=CC(O)=CC(O)=C1",
    "meta_data": {
        "InChI": "InChI=1S/C9H10O4/c1-2-13-9(12)6-3-7(10)5-8(11)4-6/h3-5,10-11H,2H2,1H3",
        "InChIKey": null,
        "Canonical SMILES": "O=C(OCC)C=1C=C(O)C=C(O)C1",
        "Molecular Formula": "C<sub>9</sub>H<sub>10</sub>O<sub>4</sub>",
        "Molecular Mass": "182.17",
        "Melting Point": "128.5 °C"
    }
}