{
    "cas_no": "615-53-2",
    "key_name": "Carbamic acid, <em>N</em>-methyl-<em>N</em>-nitroso-, ethyl ester",
    "cn_name": "N-亚硝基-N-甲基尿烷;亚硝基甲替尿烷;",
    "alternate_name": "Carbamic acid, <em>N</em>-methyl-<em>N</em>-nitroso-, ethyl ester;Carbamic acid, methylnitroso-, ethyl ester;<em>N</em>-Methyl-<em>N</em>-nitrosourethane;Nitrosomethylurethane;Methylnitrosourethane;<em>N</em>-Nitroso-<em>N</em>-methylurethane;NSC 2860;Ethyl <em>N</em>-methylnitrosocarbamate;NMU;Ethyl <em>N</em>-methyl-<em>N</em>-nitrosocarbamate;MeSH ID: D009605",
    "duplicated_cas_no": "",
    "SMILES": "C(N(N=O)C)(OCC)=O",
    "meta_data": {
        "InChI": "InChI=1S/C4H8N2O3/c1-3-9-4(7)6(2)5-8/h3H2,1-2H3",
        "InChIKey": null,
        "Canonical SMILES": "O=NN(C(=O)OCC)C",
        "Molecular Formula": "C<sub>4</sub>H<sub>8</sub>N<sub>2</sub>O<sub>3</sub>",
        "Molecular Mass": "132.12",
        "Boiling Point": "70 °C @ Press: 27 Torr",
        "Density": "1.133 g/cm³ @ Temp: 20 °C"
    }
}