{
    "cas_no": "769-68-6",
    "key_name": "α-Ethylbenzeneacetonitrile",
    "cn_name": "2-苯基丁腈;",
    "alternate_name": "Benzeneacetonitrile, α-ethyl-;Butyronitrile, 2-phenyl-;α-Ethylbenzeneacetonitrile;Butanenitrile, 2-phenyl-;2-Phenylbutyronitrile;1-Cyano-1-phenylpropane;α-Phenylbutyronitrile;2-Phenylbutanenitrile;(±)-2-Phenylbutyronitrile;NSC 11272;NSC 2373",
    "duplicated_cas_no": "69350-73-8",
    "SMILES": "C(CC)(C#N)C1=CC=CC=C1",
    "meta_data": {
        "InChI": "InChI=1S/C10H11N/c1-2-9(8-11)10-6-4-3-5-7-10/h3-7,9H,2H2,1H3",
        "InChIKey": null,
        "Canonical SMILES": "N#CC(C=1C=CC=CC1)CC",
        "Molecular Formula": "C<sub>10</sub>H<sub>11</sub>N",
        "Molecular Mass": "145.20",
        "Boiling Point": "241 °C",
        "Density": "0.977 g/cm³ @ Temp: 14 °C"
    }
}