{
    "cas_no": "1516-08-1",
    "key_name": "Ethanol-<em>d</em><sub>6</sub>",
    "cn_name": null,
    "alternate_name": "Ethanol-<em>d</em><sub>6</sub>;Ethyl-<em>d</em><sub>5</sub> alcohol-<em>d</em>;Deuterioethanol-<em>d</em><sub>6</sub>;Hexadeuterioethanol;Perdeuterioethanol;Deuteroethanol-<em>d</em><sub>6</sub>;Perdeuteroethanol;Hexadeuteroethanol;1,1,2,2,2-Pentadeuteroethanol-<em>d</em>;[2H6]Ethanol",
    "duplicated_cas_no": "",
    "SMILES": "C(C([2H])([2H])[2H])(O[2H])([2H])[2H]",
    "meta_data": {
        "InChI": "InChI=1S/C2H6O/c1-2-3/h3H,2H2,1H3/i1D3,2D2,3D",
        "InChIKey": null,
        "Canonical SMILES": "OCC",
        "Molecular Formula": "C<sub>2</sub>D<sub>6</sub>O",
        "Molecular Mass": "",
        "Boiling Point": "78.0-78.5 °C"
    }
}