{
    "cas_no": "85-87-0",
    "key_name": "Pyridoxamine",
    "cn_name": "吡多胺;吡多胺;",
    "alternate_name": "3-Pyridinemethanol, 4-(aminomethyl)-5-hydroxy-6-methyl-;Pyridoxamine;4-(Aminomethyl)-5-hydroxy-6-methyl-3-pyridinemethanol;4-(Aminomethyl)-3-hydroxy-5-(hydroxymethyl)-2-methylpyridine;Pyridoxylamine;MeSH ID: D011733",
    "duplicated_cas_no": "1801892-38-5;2087491-59-4;2376308-84-6",
    "SMILES": "C(N)C=1C(CO)=CN=C(C)C1O",
    "meta_data": {
        "InChI": "InChI=1S/C8H12N2O2/c1-5-8(12)7(2-9)6(4-11)3-10-5/h3,11-12H,2,4,9H2,1H3",
        "InChIKey": null,
        "Canonical SMILES": "OC=1C(=NC=C(C1CN)CO)C",
        "Molecular Formula": "C<sub>8</sub>H<sub>12</sub>N<sub>2</sub>O<sub>2</sub>",
        "Molecular Mass": "168.19",
        "Melting Point": "193-193.5 °C"
    }
}