{
    "cas_no": "935-56-8",
    "key_name": "1-Chloroadamantane",
    "cn_name": "1-氯代金刚烷;1-氯金刚烷;",
    "alternate_name": "Tricyclo[3.3.1.1<sup>3,7</sup>]decane, 1-chloro-;Adamantane, 1-chloro-;1-Chlorotricyclo[3.3.1.1<sup>3,7</sup>]decane;1-Chloroadamantane;Adamantyl chloride;1-Adamantyl chloride;3-Chloroadamantane;NSC 143629",
    "duplicated_cas_no": "",
    "SMILES": "ClC12CC3CC(C1)CC(C2)C3",
    "meta_data": {
        "InChI": "InChI=1S/C10H15Cl/c11-10-4-7-1-8(5-10)3-9(2-7)6-10/h7-9H,1-6H2",
        "InChIKey": null,
        "Canonical SMILES": "ClC12CC3CC(CC(C3)C1)C2",
        "Molecular Formula": "C<sub>10</sub>H<sub>15</sub>Cl",
        "Molecular Mass": "170.68",
        "Melting Point": "168.5-169.5 °C"
    }
}