{
    "cas_no": "2871-01-4",
    "key_name": "HC Red 3",
    "cn_name": "4-氨基-2-硝基-N-羟乙基苯胺;4-氨基-2-硝基-N-(2-羟乙基)苯胺;",
    "alternate_name": "Ethanol, 2-[(4-amino-2-nitrophenyl)amino]-;Ethanol, 2-(4-amino-2-nitroanilino)-;2-[(4-Amino-2-nitrophenyl)amino]ethanol;<em>N</em><sup>1</sup>-(2-Hydroxyethyl)-2-nitro-<em>p</em>-phenylenediamine;<em>N</em>-(2-Hydroxyethyl)-2-nitro-<em>p</em>-phenylenediamine;<em>N</em><sup>1</sup>-(2′-Hydroxyethyl)-2-nitro-<em>p</em>-phenylenediamine;HC Red No. 3;4-(2-Hydroxyethyl)amino-3-nitroaniline;HC Red 3;HC Red Number 3;2-Nitro-4-amino-1-(2-hydroxyethylamino)benzene;Red No. 3;1-[(2-Hydroxyethyl)amino]-2-nitro-4-aminobenzene;2-(4-Amino-2-nitroanilino)ethanol;2-[(4-Amino-2-nitrophenyl)amino]ethan-1-ol",
    "duplicated_cas_no": "",
    "SMILES": "N(CCO)C1=C(N(=O)=O)C=C(N)C=C1",
    "meta_data": {
        "InChI": "InChI=1S/C8H11N3O3/c9-6-1-2-7(10-3-4-12)8(5-6)11(13)14/h1-2,5,10,12H,3-4,9H2",
        "InChIKey": null,
        "Canonical SMILES": "O=N(=O)C1=CC(N)=CC=C1NCCO",
        "Molecular Formula": "C<sub>8</sub>H<sub>11</sub>N<sub>3</sub>O<sub>3</sub>",
        "Molecular Mass": "197.19",
        "Melting Point": "127 °C"
    }
}