{
    "cas_no": "98892-76-3",
    "key_name": "1-Ethyl-2,3-dimethylimidazolium bromide",
    "cn_name": "1,2-二甲基-3-乙基咪唑溴盐;1-乙基-2,3-二甲基溴化咪唑;",
    "alternate_name": "1<em>H</em>-Imidazolium, 3-ethyl-1,2-dimethyl-, bromide (1:1);1<em>H</em>-Imidazolium, 1-ethyl-2,3-dimethyl-, bromide;1-Ethyl-2,3-dimethylimidazolium bromide;1,2-Dimethyl-3-ethylimidazolium bromide",
    "duplicated_cas_no": "",
    "SMILES": "C(C)[N+]1=C(C)N(C)C=C1.[Br-]",
    "meta_data": {
        "InChI": "InChI=1S/C7H13N2.BrH/c1-4-9-6-5-8(3)7(9)2;/h5-6H,4H2,1-3H3;1H/q+1;/p-1",
        "InChIKey": null,
        "Canonical SMILES": "[Br-].C1=C[N+](=C(N1C)C)CC",
        "Molecular Formula": "C<sub>7</sub>H<sub>13</sub>N<sub>2</sub>.Br",
        "Molecular Mass": "",
        "Melting Point": "138-140 °C"
    }
}