{
    "cas_no": "4290-13-5",
    "key_name": "Santamarin",
    "cn_name": null,
    "alternate_name": "Naphtho[1,2-<em>b</em>]furan-2(3<em>H</em>)-one, 3a,4,5,5a,6,7,9a,9b-octahydro-6-hydroxy-5a,9-dimethyl-3-methylene-, (3a<em>S</em>,5a<em>R</em>,6<em>R</em>,9a<em>S</em>,9b<em>S</em>)-;Eudesma-3,11(13)-dien-12-oic acid, 1β,6α-dihydroxy-, γ-lactone;Balchanin;Naphtho[1,2-<em>b</em>]furan-2(3<em>H</em>)-one, 3a,4,5,5a,6,7,9a,9b-octahydro-6-hydroxy-5a,9-dimethyl-3-methylene-, [3a<em>S</em>-(3aα,5aβ,6β,9aα,9bβ)]-;(3a<em>S</em>,5a<em>R</em>,6<em>R</em>,9a<em>S</em>,9b<em>S</em>)-3a,4,5,5a,6,7,9a,9b-Octahydro-6-hydroxy-5a,9-dimethyl-3-methylenenaphtho[1,2-<em>b</em>]furan-2(3<em>H</em>)-one;Santamarin;Santamarine",
    "duplicated_cas_no": "6895-45-0;11016-81-2",
    "SMILES": "C[C@]12[C@@]([C@@]3([C@@](CC1)(C(=C)C(=O)O3)[H])[H])(C(C)=CC[C@H]2O)[H]",
    "meta_data": {
        "InChI": "InChI=1S/C15H20O3/c1-8-4-5-11(16)15(3)7-6-10-9(2)14(17)18-13(10)12(8)15/h4,10-13,16H,2,5-7H2,1,3H3/t10-,11+,12+,13-,15-/m0/s1",
        "InChIKey": null,
        "Canonical SMILES": "O=C1OC2C(C1=C)CCC3(C)C(O)CC=C(C)C23",
        "Molecular Formula": "C<sub>15</sub>H<sub>20</sub>O<sub>3</sub>",
        "Molecular Mass": "248.32",
        "Melting Point": "142 °C"
    }
}