{
    "cas_no": "68786-66-3",
    "key_name": "Triclabendazole",
    "cn_name": null,
    "alternate_name": "1<em>H</em>-Benzimidazole, 6-chloro-5-(2,3-dichlorophenoxy)-2-(methylthio)-;1<em>H</em>-Benzimidazole, 5-chloro-6-(2,3-dichlorophenoxy)-2-(methylthio)-;6-Chloro-5-(2,3-dichlorophenoxy)-2-(methylthio)-1<em>H</em>-benzimidazole;5-Chloro-6-(2,3-dichlorophenoxy)-2-methylthiobenzimidazole;CGA 89317;Triclabendazole;5-Chloro-6-(2′,3′-dichlorophenoxy)-2-(methylthio)benzimidazole;Fasinex;Egaten",
    "duplicated_cas_no": "",
    "SMILES": "O(C=1C=C2C(N=C(SC)N2)=CC1Cl)C3=C(Cl)C(Cl)=CC=C3",
    "meta_data": {
        "InChI": "InChI=1S/C14H9Cl3N2OS/c1-21-14-18-9-5-8(16)12(6-10(9)19-14)20-11-4-2-3-7(15)13(11)17/h2-6H,1H3,(H,18,19)",
        "InChIKey": null,
        "Canonical SMILES": "ClC1=CC=CC(OC2=CC=3NC(=NC3C=C2Cl)SC)=C1Cl",
        "Molecular Formula": "C<sub>14</sub>H<sub>9</sub>Cl<sub>3</sub>N<sub>2</sub>OS",
        "Molecular Mass": "359.66",
        "Melting Point": "176-178 °C"
    }
}