{
    "cas_no": "13544-44-0",
    "key_name": "2,4-Dichloro-5-iodopyrimidine",
    "cn_name": "2,4-二氯-5-碘嘧啶;",
    "alternate_name": "Pyrimidine, 2,4-dichloro-5-iodo-;2,4-Dichloro-5-iodopyrimidine;5-Iodo-2,4-dichloropyrimidine;NSC 97872;2,4-Chloro-5-iodopyrimidine",
    "duplicated_cas_no": "",
    "SMILES": "ClC=1C(I)=CN=C(Cl)N1",
    "meta_data": {
        "InChI": "InChI=1S/C4HCl2IN2/c5-3-2(7)1-8-4(6)9-3/h1H",
        "InChIKey": null,
        "Canonical SMILES": "ClC1=NC=C(I)C(Cl)=N1",
        "Molecular Formula": "C<sub>4</sub>HCl<sub>2</sub>IN<sub>2</sub>",
        "Molecular Mass": "274.87",
        "Melting Point": "71-72 °C"
    }
}