{
    "cas_no": "1073-69-4",
    "key_name": "(4-Chlorophenyl)hydrazine",
    "cn_name": "4-氯苯肼;对氯苯肼;",
    "alternate_name": "Hydrazine, (4-chlorophenyl)-;Hydrazine, (<em>p</em>-chlorophenyl)-;(4-Chlorophenyl)hydrazine;(<em>p</em>-Chlorophenyl)hydrazine;1-(4-Chlorophenyl)hydrazine;<em>N</em>-(4-Chlorophenyl)hydrazine;4-Chlorophenyl hydrazine;p-Chlorophenyl hydrazine",
    "duplicated_cas_no": "2171492-25-2",
    "SMILES": "N(N)C1=CC=C(Cl)C=C1",
    "meta_data": {
        "InChI": "InChI=1S/C6H7ClN2/c7-5-1-3-6(9-8)4-2-5/h1-4,9H,8H2",
        "InChIKey": null,
        "Canonical SMILES": "ClC1=CC=C(C=C1)NN",
        "Molecular Formula": "C<sub>6</sub>H<sub>7</sub>ClN<sub>2</sub>",
        "Molecular Mass": "142.59",
        "Melting Point": "85 °C"
    }
}