{
    "cas_no": "2450-27-3",
    "key_name": "4-(Benzyloxy)-3-methoxy-2-nitrobenzaldehyde",
    "cn_name": null,
    "alternate_name": "Benzaldehyde, 3-methoxy-2-nitro-4-(phenylmethoxy)-;Benzaldehyde, 4-(benzyloxy)-3-methoxy-2-nitro-;<em>m</em>-Anisaldehyde, 4-(benzyloxy)-2-nitro-;3-Methoxy-2-nitro-4-(phenylmethoxy)benzaldehyde;4-(Benzyloxy)-3-methoxy-2-nitrobenzaldehyde",
    "duplicated_cas_no": "",
    "SMILES": "O(C)C1=C(N(=O)=O)C(C=O)=CC=C1OCC2=CC=CC=C2",
    "meta_data": {
        "InChI": "InChI=1S/C15H13NO5/c1-20-15-13(21-10-11-5-3-2-4-6-11)8-7-12(9-17)14(15)16(18)19/h2-9H,10H2,1H3",
        "InChIKey": null,
        "Canonical SMILES": "O=CC1=CC=C(OCC=2C=CC=CC2)C(OC)=C1N(=O)=O",
        "Molecular Formula": "C<sub>15</sub>H<sub>13</sub>NO<sub>5</sub>",
        "Molecular Mass": "287.27",
        "Melting Point": "111.5-112.5 °C"
    }
}