{
    "cas_no": "104691-86-3",
    "key_name": "5,7-Dihydroxy-3-(4-hydroxyphenyl)-8-(3-methyl-2-buten-1-yl)-4<em>H</em>-1-benzopyran-4-one",
    "cn_name": null,
    "alternate_name": "4<em>H</em>-1-Benzopyran-4-one, 5,7-dihydroxy-3-(4-hydroxyphenyl)-8-(3-methyl-2-buten-1-yl)-;4<em>H</em>-1-Benzopyran-4-one, 5,7-dihydroxy-3-(4-hydroxyphenyl)-8-(3-methyl-2-butenyl)-;5,7-Dihydroxy-3-(4-hydroxyphenyl)-8-(3-methyl-2-buten-1-yl)-4<em>H</em>-1-benzopyran-4-one;Lupiwighteone;8-Prenylgenistein",
    "duplicated_cas_no": "",
    "SMILES": "O=C1C=2C(=C(CC=C(C)C)C(O)=CC2O)OC=C1C3=CC=C(O)C=C3",
    "meta_data": {
        "InChI": "InChI=1S/C20H18O5/c1-11(2)3-8-14-16(22)9-17(23)18-19(24)15(10-25-20(14)18)12-4-6-13(21)7-5-12/h3-7,9-10,21-23H,8H2,1-2H3",
        "InChIKey": null,
        "Canonical SMILES": "O=C1C(=COC=2C1=C(O)C=C(O)C2CC=C(C)C)C=3C=CC(O)=CC3",
        "Molecular Formula": "C<sub>20</sub>H<sub>18</sub>O<sub>5</sub>",
        "Molecular Mass": "338.35",
        "Melting Point": "133-135 °C"
    }
}