{
    "cas_no": "4412-91-3",
    "key_name": "3-Furanmethanol",
    "cn_name": "3-呋喃甲醇;呋喃-3-甲醇;",
    "alternate_name": "3-Furanmethanol;3-Furancarbinol;3-Furylcarbinol;3-(Hydroxymethyl)furan;3-Furylmethanol;3-Furfuryl alcohol;Furan-3-ylmethanol;3-Furylmethyl alcohol",
    "duplicated_cas_no": "",
    "SMILES": "C(O)C=1C=COC1",
    "meta_data": {
        "InChI": "InChI=1S/C5H6O2/c6-3-5-1-2-7-4-5/h1-2,4,6H,3H2",
        "InChIKey": null,
        "Canonical SMILES": "OCC1=COC=C1",
        "Molecular Formula": "C<sub>5</sub>H<sub>6</sub>O<sub>2</sub>",
        "Molecular Mass": "98.10",
        "Boiling Point": "79-80 °C",
        "Density": "1.1391 g/cm³ @ Temp: 20 °C"
    }
}