{
    "cas_no": "62-23-7",
    "key_name": "4-Nitrobenzoic acid",
    "cn_name": "对硝基苯甲酸;4-硝基苯甲酸;",
    "alternate_name": "Benzoic acid, 4-nitro-;Benzoic acid, <em>p</em>-nitro-;4-Nitrobenzoic acid;<em>p</em>-Nitrobenzoic acid;Nitrodracylic acid;<em>p</em>-Nitrobenzenecarboxylic acid;<em>p</em>-Carboxynitrobenzene;NSC 7707;<em>P</em>-Nitrodracylic acid",
    "duplicated_cas_no": "29788-29-2",
    "SMILES": "C(O)(=O)C1=CC=C(N(=O)=O)C=C1",
    "meta_data": {
        "InChI": "InChI=1S/C7H5NO4/c9-7(10)5-1-3-6(4-2-5)8(11)12/h1-4H,(H,9,10)",
        "InChIKey": null,
        "Canonical SMILES": "O=C(O)C1=CC=C(C=C1)N(=O)=O",
        "Molecular Formula": "C<sub>7</sub>H<sub>5</sub>NO<sub>4</sub>",
        "Molecular Mass": "167.12",
        "Boiling Point": "150 °C @ Press: 0.02 Torr",
        "Melting Point": "242 °C",
        "Density": "1.610 g/cm³ @ Temp: 20 °C"
    }
}