{
    "cas_no": "2916-68-9",
    "key_name": "2-(Trimethylsilyl)ethanol",
    "cn_name": "2-(三甲硅基)乙醇;",
    "alternate_name": "Ethanol, 2-(trimethylsilyl)-;2-(Trimethylsilyl)ethanol;β-(Trimethylsilyl)ethanol;2-(Trimethylsilyl)ethyl alcohol;(2-Hydroxyethyl)trimethylsilane;NSC 96784;2-(Trimethylsilanyl)ethanol;2-(Trimethylsilyl)ethan-1-ol",
    "duplicated_cas_no": "",
    "SMILES": "C([Si](C)(C)C)CO",
    "meta_data": {
        "InChI": "InChI=1S/C5H14OSi/c1-7(2,3)5-4-6/h6H,4-5H2,1-3H3",
        "InChIKey": null,
        "Canonical SMILES": "OCC[Si](C)(C)C",
        "Molecular Formula": "C<sub>5</sub>H<sub>14</sub>OSi",
        "Molecular Mass": "118.25",
        "Boiling Point": "53-55 °C @ Press: 11 Torr",
        "Density": "0.945 g/cm³"
    }
}