{
    "cas_no": "2050-46-6",
    "key_name": "1,2-Diethoxybenzene",
    "cn_name": "邻苯二乙醚;1,2-二乙氧基苯;邻二乙氧基苯;",
    "alternate_name": "Benzene, 1,2-diethoxy-;Benzene, <em>o</em>-diethoxy-;1,2-Diethoxybenzene;<em>o</em>-Diethoxybenzene;Catechol diethyl ether;NSC 6189",
    "duplicated_cas_no": "",
    "SMILES": "O(CC)C1=C(OCC)C=CC=C1",
    "meta_data": {
        "InChI": "InChI=1S/C10H14O2/c1-3-11-9-7-5-6-8-10(9)12-4-2/h5-8H,3-4H2,1-2H3",
        "InChIKey": null,
        "Canonical SMILES": "O(C=1C=CC=CC1OCC)CC",
        "Molecular Formula": "C<sub>10</sub>H<sub>14</sub>O<sub>2</sub>",
        "Molecular Mass": "166.22",
        "Boiling Point": "219 °C",
        "Melting Point": "44 °C",
        "Density": "1.0169 g/cm³ @ Temp: 20 °C"
    }
}