{
    "cas_no": "10141-05-6",
    "key_name": "Cobalt dinitrate",
    "cn_name": "硝酸钴;硝酸亚钴;",
    "alternate_name": "Nitric acid, cobalt(2+) salt (2:1);Nitric acid, cobalt(2+) salt;Cobalt nitrate (Co(NO<sub>3</sub>)<sub>2</sub>);Cobaltous nitrate;Cobalt dinitrate;Cobalt(2+) nitrate;Cobalt(II) nitrate;Cobalt bis(nitrate);Cobalt nitrate;3N5",
    "duplicated_cas_no": "19154-72-4;2250073-85-7;2551294-76-7;2768521-06-6",
    "SMILES": "N(=O)(=O)O.[Co]",
    "meta_data": {
        "InChI": "InChI=1S/Co.HNO3/c;2-1(3)4/h;(H,2,3,4)",
        "InChIKey": null,
        "Canonical SMILES": "[Co].O=N(=O)O",
        "Molecular Formula": "Co.2HNO<sub>3</sub>",
        "Molecular Mass": "",
        "Melting Point": "100-105 °C (decomp)",
        "Density": "2.49 g/cm³"
    }
}