{
    "cas_no": "5955-73-7",
    "key_name": "2-Methyl-α-oxobenzeneacetonitrile",
    "cn_name": null,
    "alternate_name": "Benzeneacetonitrile, 2-methyl-α-oxo-;Glyoxylonitrile, <em>o</em>-tolyl-;2-Methyl-α-oxobenzeneacetonitrile;<em>o</em>-Tolylglyoxylonitrile;2-Methylbenzoyl cyanide;2-Toluylcyanide;<em>o</em>-Toluoyl cyanide;2-Oxo-(<em>o</em>-tolyl)acetonitrile",
    "duplicated_cas_no": "",
    "SMILES": "C(C#N)(=O)C1=C(C)C=CC=C1",
    "meta_data": {
        "InChI": "InChI=1S/C9H7NO/c1-7-4-2-3-5-8(7)9(11)6-10/h2-5H,1H3",
        "InChIKey": null,
        "Canonical SMILES": "N#CC(=O)C=1C=CC=CC1C",
        "Molecular Formula": "C<sub>9</sub>H<sub>7</sub>NO",
        "Molecular Mass": "145.16",
        "Boiling Point": "127 °C @ Press: 29 Torr"
    }
}