{
    "cas_no": "13655-52-2",
    "key_name": "Alprenolol",
    "cn_name": "阿普洛尔;1-(异丙基氨基)-3-(2-烯丙基苯氧基)-2-丙醇;",
    "alternate_name": "2-Propanol, 1-[(1-methylethyl)amino]-3-[2-(2-propen-1-yl)phenoxy]-;2-Propanol, 1-(<em>o</em>-allylphenoxy)-3-(isopropylamino)-;2-Propanol, 1-[(1-methylethyl)amino]-3-[2-(2-propenyl)phenoxy]-;1-[(1-Methylethyl)amino]-3-[2-(2-propen-1-yl)phenoxy]-2-propanol;Alprenolol;1-(<em>o</em>-Allylphenoxy)-3-(isopropylamino)-2-propanol;Alpheprol;1-Isopropylamino-3-(2-allyl)phenoxypropan-2-ol;(±)-Alprenolol;<em>dl</em>-Alprenolol;(<em>RS</em>)-Alprenolol;1-(2-Allyl-phenoxy)-3-isopropylamino-propan-2-ol;1-(Propan-2-ylamino)-3-(2-prop-2-enylphenoxy)propan-2-ol;[2-Hydroxy-3-[2-(prop-2-en-1-yl)phenoxy]propyl](propan-2-yl)amine;BRD-A O0993607;MeSH ID: D000526",
    "duplicated_cas_no": "23846-70-0;54578-71-1",
    "SMILES": "O(CC(CNC(C)C)O)C1=C(CC=C)C=CC=C1",
    "meta_data": {
        "InChI": "InChI=1S/C15H23NO2/c1-4-7-13-8-5-6-9-15(13)18-11-14(17)10-16-12(2)3/h4-6,8-9,12,14,16-17H,1,7,10-11H2,2-3H3",
        "InChIKey": null,
        "Canonical SMILES": "OC(COC=1C=CC=CC1CC=C)CNC(C)C",
        "Molecular Formula": "C<sub>15</sub>H<sub>23</sub>NO<sub>2</sub>",
        "Molecular Mass": "249.35",
        "Melting Point": "107-109 °C"
    }
}