{
    "cas_no": "5006-20-2",
    "key_name": "5-Ethoxy-4-methyloxazole",
    "cn_name": "5-乙氧基-4-甲基噁唑;4-甲基-5-乙氧基噁唑;",
    "alternate_name": "Oxazole, 5-ethoxy-4-methyl-;5-Ethoxy-4-methyloxazole;4-Methyl-5-ethoxyoxazole",
    "duplicated_cas_no": "",
    "SMILES": "O(CC)C1=C(C)N=CO1",
    "meta_data": {
        "InChI": "InChI=1S/C6H9NO2/c1-3-8-6-5(2)7-4-9-6/h4H,3H2,1-2H3",
        "InChIKey": null,
        "Canonical SMILES": "N1=COC(OCC)=C1C",
        "Molecular Formula": "C<sub>6</sub>H<sub>9</sub>NO<sub>2</sub>",
        "Molecular Mass": "127.14",
        "Boiling Point": "78-80 °C @ Press: 50 Torr"
    }
}