{
    "cas_no": "2407-68-3",
    "key_name": "3-(Dimethylamino)acrylonitrile",
    "cn_name": "3-(二甲基胺)丙烯腈;",
    "alternate_name": "2-Propenenitrile, 3-(dimethylamino)-;Acrylonitrile, 3-(dimethylamino)-;3-(Dimethylamino)-2-propenenitrile;3-(Dimethylamino)acrylonitrile;β-(Dimethylamino)acrylonitrile;NSC 127942;3-Dimethylaminoprop-2-enenitrile;<em>N</em>,<em>N</em>-Dimethylaminoacrylonitrile",
    "duplicated_cas_no": "",
    "SMILES": "C(N(C)C)=CC#N",
    "meta_data": {
        "InChI": "InChI=1S/C5H8N2/c1-7(2)5-3-4-6/h3,5H,1-2H3",
        "InChIKey": null,
        "Canonical SMILES": "N#CC=CN(C)C",
        "Molecular Formula": "C<sub>5</sub>H<sub>8</sub>N<sub>2</sub>",
        "Molecular Mass": "96.13",
        "Boiling Point": "85 °C @ Press: 12 Torr",
        "Density": "0.9488 g/cm³ @ Temp: 20 °C"
    }
}