{
    "cas_no": "42413-03-6",
    "key_name": "3-Chloro-4-methylbenzenesulfonyl chloride",
    "cn_name": "3-氯-4-甲基苯磺酰氯;",
    "alternate_name": "Benzenesulfonyl chloride, 3-chloro-4-methyl-;3-Chloro-4-methylbenzenesulfonyl chloride;3-Chloro-4-toluenesulfonyl chloride;3-Chloro-<em>p</em>-toluene sulfochloride;3-Chloro-4-methylbenzene-1-sulfonyl chloride;NSC 90118;2-Chlorotoluene-4-sulfonic acid chloride",
    "duplicated_cas_no": "",
    "SMILES": "S(Cl)(=O)(=O)C1=CC(Cl)=C(C)C=C1",
    "meta_data": {
        "InChI": "InChI=1S/C7H6Cl2O2S/c1-5-2-3-6(4-7(5)8)12(9,10)11/h2-4H,1H3",
        "InChIKey": null,
        "Canonical SMILES": "O=S(=O)(Cl)C1=CC=C(C(Cl)=C1)C",
        "Molecular Formula": "C<sub>7</sub>H<sub>6</sub>Cl<sub>2</sub>O<sub>2</sub>S",
        "Molecular Mass": "225.09",
        "Melting Point": "38 °C"
    }
}