{
    "cas_no": "531-75-9",
    "key_name": "Esculin",
    "cn_name": "秦皮甲素;6-(beta-D-吡喃葡糖氧基)-7-羟基-2H-1-苯并呋喃-2-酮;",
    "alternate_name": "2<em>H</em>-1-Benzopyran-2-one, 6-(β-<span class=\"text-smallcaps\">D</span>-glucopyranosyloxy)-7-hydroxy-;Esculin;6-(β-<span class=\"text-smallcaps\">D</span>-Glucopyranosyloxy)-7-hydroxy-2<em>H</em>-1-benzopyran-2-one;Crataegin;6,7-Dihydroxycoumarin 6-glucoside;Enallachrome;Escosyl;Esculetin 6-β-<span class=\"text-smallcaps\">D</span>-glucoside;Esculoside;Polychrome;Vitamin C<sub>2</sub>;Aesculin;Esculine;Polychrom;(-)-Esculin;Esculetin 6-<em>O</em>-glucoside;6-(β-<span class=\"text-smallcaps\">D</span>-Glucopyranosyloxy)-7-hydroxycoumarin;MeSH ID: D004929",
    "duplicated_cas_no": "97882-87-6;25360-17-2;28633-38-7;29008-74-0;1078728-35-4",
    "SMILES": "O(C=1C=C2C(=CC1O)OC(=O)C=C2)[C@@H]3O[C@H](CO)[C@@H](O)[C@H](O)[C@H]3O",
    "meta_data": {
        "InChI": "InChI=1S/C15H16O9/c16-5-10-12(19)13(20)14(21)15(24-10)23-9-3-6-1-2-11(18)22-8(6)4-7(9)17/h1-4,10,12-17,19-21H,5H2/t10-,12-,13+,14-,15-/m1/s1",
        "InChIKey": null,
        "Canonical SMILES": "O=C1OC=2C=C(O)C(OC3OC(CO)C(O)C(O)C3O)=CC2C=C1",
        "Molecular Formula": "C<sub>15</sub>H<sub>16</sub>O<sub>9</sub>",
        "Molecular Mass": "340.28",
        "Melting Point": "205 °C (decomp)"
    }
}