{
    "cas_no": "4655-34-9",
    "key_name": "Isopropyl methacrylate",
    "cn_name": "甲基丙烯酸异丙酯;",
    "alternate_name": "2-Propenoic acid, 2-methyl-, 1-methylethyl ester;Methacrylic acid, isopropyl ester;Isopropyl methacrylate;Isopropyl 2-methyl-2-propenoate;1-Methylethyl 2-methylpropenoate;Isopropyl 2-methylacrylate;NSC 32625",
    "duplicated_cas_no": "",
    "SMILES": "C(OC(C)C)(C(C)=C)=O",
    "meta_data": {
        "InChI": "InChI=1S/C7H12O2/c1-5(2)7(8)9-6(3)4/h6H,1H2,2-4H3",
        "InChIKey": null,
        "Canonical SMILES": "O=C(OC(C)C)C(=C)C",
        "Molecular Formula": "C<sub>7</sub>H<sub>12</sub>O<sub>2</sub>",
        "Molecular Mass": "128.17",
        "Boiling Point": "125 °C",
        "Density": "0.8869 g/cm³ @ Temp: 20 °C"
    }
}