{
    "cas_no": "17216-10-3",
    "key_name": "1,3-Bis(1-naphthalenyloxy)-2-propanol",
    "cn_name": null,
    "alternate_name": "2-Propanol, 1,3-bis(1-naphthalenyloxy)-;2-Propanol, 1,3-bis(1-naphthyloxy)-;1,3-Bis(1-naphthalenyloxy)-2-propanol;1,3-Bis(1-naphthoxy)-2-propanol;1,3-Bis(naphthalen-1-yloxy)propan-2-ol;1,3-Bis(naphthalen-1-yloxy)propane-2-ol;1,3-Dinaphthalen-1-yloxypropan-2-ol",
    "duplicated_cas_no": "83314-79-8",
    "SMILES": "O(CC(COC=1C2=C(C=CC1)C=CC=C2)O)C=3C4=C(C=CC3)C=CC=C4",
    "meta_data": {
        "InChI": "InChI=1S/C23H20O3/c24-19(15-25-22-13-5-9-17-7-1-3-11-20(17)22)16-26-23-14-6-10-18-8-2-4-12-21(18)23/h1-14,19,24H,15-16H2",
        "InChIKey": null,
        "Canonical SMILES": "OC(COC1=CC=CC=2C=CC=CC12)COC3=CC=CC=4C=CC=CC34",
        "Molecular Formula": "C<sub>23</sub>H<sub>20</sub>O<sub>3</sub>",
        "Molecular Mass": "344.40",
        "Melting Point": "77-78 °C"
    }
}