{
    "cas_no": "23012-13-7",
    "key_name": "4-Oxazolecarboxylic acid",
    "cn_name": "噁唑-4-羧酸;1,3-氧氮杂茂-4-羧酸;",
    "alternate_name": "4-Oxazolecarboxylic acid;4-Carboxyoxazole;1,3-Oxazole-4-carboxylic acid",
    "duplicated_cas_no": "",
    "SMILES": "C(O)(=O)C1=COC=N1",
    "meta_data": {
        "InChI": "InChI=1S/C4H3NO3/c6-4(7)3-1-8-2-5-3/h1-2H,(H,6,7)",
        "InChIKey": null,
        "Canonical SMILES": "O=C(O)C=1N=COC1",
        "Molecular Formula": "C<sub>4</sub>H<sub>3</sub>NO<sub>3</sub>",
        "Molecular Mass": "113.07",
        "Melting Point": "142 °C"
    }
}