{
    "cas_no": "5557-83-5",
    "key_name": "<span class=\"text-smallcaps\">L</span>-Alanine, phenylmethyl ester, hydrochloride (1:1)",
    "cn_name": "L-丙氨酸苄酯盐酸盐;丙氨酸-alpha-苄酯盐酸盐;",
    "alternate_name": "<span class=\"text-smallcaps\">L</span>-Alanine, phenylmethyl ester, hydrochloride (1:1);Alanine, benzyl ester, hydrochloride, <span class=\"text-smallcaps\">L</span>-;<span class=\"text-smallcaps\">L</span>-Alanine, phenylmethyl ester, hydrochloride;Alanine benzyl ester hydrochloride;<span class=\"text-smallcaps\">L</span>-Alanine benzyl ester hydrochloride;Benzyl <span class=\"text-smallcaps\">L</span>-alaninate hydrochloride;NSC 523831;(<em>S</em>)-Alanine hydrochloride benzyl ester;(<em>S</em>)-Benzyl 2-aminopropanoate hydrochloride;Benzyl alaninate hydrochloride;<span class=\"text-smallcaps\">L</span>-Alanine benzyl ester hydrogen chloride",
    "duplicated_cas_no": "860638-32-0",
    "SMILES": "C(OC([C@H](C)N)=O)C1=CC=CC=C1.Cl",
    "meta_data": {
        "InChI": "InChI=1S/C10H13NO2.ClH/c1-8(11)10(12)13-7-9-5-3-2-4-6-9;/h2-6,8H,7,11H2,1H3;1H/t8-;/m0./s1",
        "InChIKey": null,
        "Canonical SMILES": "Cl.O=C(OCC=1C=CC=CC1)C(N)C",
        "Molecular Formula": "C<sub>10</sub>H<sub>13</sub>NO<sub>2</sub>.ClH",
        "Molecular Mass": "",
        "Melting Point": "140 °C"
    }
}