{
    "cas_no": "126-15-8",
    "key_name": "Dibutylene tetrafurfural",
    "cn_name": "牛蝇畏;4A-甲酰基-1,4,4A,5A,6,9,9A,9B-八氢氧芴1,5a,6,9,9a,9b-Hexahydro-4a(4H)-dibenzofurancarboxaldeh;",
    "alternate_name": "4a(4<em>H</em>)-Dibenzofurancarboxaldehyde, 1,5a,6,9,9a,9b-hexahydro-;1,5a,6,9,9a,9b-Hexahydro-4a(4<em>H</em>)-dibenzofurancarboxaldehyde;2,3,4,5-Bis(2-butenylene)tetrahydrofurfural;2,3,4,5-Bis(Δ<sup>2</sup>-butenylene)tetrahydrofurfural;Bisbutenylenetetrahydrofurfural;4a-Formyl-1,4,4a,5a,6,9,9a,9b-octahydrodibenzofuran;MGK Repellent 11;2-Furancarboxaldehyde, 2,3:4,5-bis(2-butene-1,4-diyl)tetrahydro-;R 11;2,3:4,5-Bis(2-butene-1,4-diyl)tetrahydrofurfural;Dibutylene tetrafurfural;Repel 111;ENT 17596;MKG 11;MGK-R 11;NSC 52965",
    "duplicated_cas_no": "",
    "SMILES": "C(=O)C12C(C3C(O1)CC=CC3)CC=CC2",
    "meta_data": {
        "InChI": "InChI=1S/C13H16O2/c14-9-13-8-4-3-6-11(13)10-5-1-2-7-12(10)15-13/h1-4,9-12H,5-8H2",
        "InChIKey": null,
        "Canonical SMILES": "O=CC12OC3CC=CCC3C2CC=CC1",
        "Molecular Formula": "C<sub>13</sub>H<sub>16</sub>O<sub>2</sub>",
        "Molecular Mass": "204.26",
        "Boiling Point": "307 °C",
        "Melting Point": "-80 °C",
        "Density": "1.10 g/cm³ @ Temp: 20 °C"
    }
}