{
    "cas_no": "75507-26-5",
    "key_name": "1,4,7,10-Tetraoxacyclododecane-2-methanol",
    "cn_name": null,
    "alternate_name": "1,4,7,10-Tetraoxacyclododecane-2-methanol;Hydroxymethyl-12-crown-4;(1,4,7,10-Tetraoxacyclododecan-2-yl)methyl alcohol;2-(Hydroxymethyl)-12-crown-4;(1,4,7,10-Tetraoxacyclododecan-2-yl)methanol;1,4,7,10-Tetraoxacyclododecan-2-methanol;1,4,7,10-Tetraoxacyclododec-2-ylmethanol;2-Hydroxymethyl-1,4,7,10-tetraoxacyclododecane",
    "duplicated_cas_no": "149561-75-1",
    "SMILES": "C(O)C1COCCOCCOCCO1",
    "meta_data": {
        "InChI": "InChI=1S/C9H18O5/c10-7-9-8-13-4-3-11-1-2-12-5-6-14-9/h9-10H,1-8H2",
        "InChIKey": null,
        "Canonical SMILES": "OCC1OCCOCCOCCOC1",
        "Molecular Formula": "C<sub>9</sub>H<sub>18</sub>O<sub>5</sub>",
        "Molecular Mass": "206.24",
        "Boiling Point": "115 °C @ Press: 0.04 Torr"
    }
}