{
    "cas_no": "822-87-7",
    "key_name": "2-Chlorocyclohexanone",
    "cn_name": "2-氯环己酮;",
    "alternate_name": "Cyclohexanone, 2-chloro-;Cyclohexanone, 2-chloro-, (±)-;2-Chlorocyclohexanone;α-Chlorocyclohexanone;2-Chlorocyclohexan-1-one;(±)-2-Chloro-1-cyclohexanone;(±)-2-Chlorocyclohexanone;NSC 12439",
    "duplicated_cas_no": "64304-91-2",
    "SMILES": "ClC1C(=O)CCCC1",
    "meta_data": {
        "InChI": "InChI=1S/C6H9ClO/c7-5-3-1-2-4-6(5)8/h5H,1-4H2",
        "InChIKey": null,
        "Canonical SMILES": "O=C1CCCCC1Cl",
        "Molecular Formula": "C<sub>6</sub>H<sub>9</sub>ClO",
        "Molecular Mass": "132.59",
        "Boiling Point": "120-130 °C @ Press: 25 Torr",
        "Melting Point": "23 °C",
        "Density": "1.161 g/cm³ @ Temp: 20 °C"
    }
}