{
    "cas_no": "9012-09-3",
    "key_name": "Triacetylcellulose",
    "cn_name": "三醋酸纤维素酯片基;三醋酸纤维素;三醋酸纤维素酯片基;三乙酸纤维素;三醋酸纖維;",
    "alternate_name": "Cellulose, triacetate;EXP 4412A;TH 22;Triafol TN;Triafol N;Fuji Tac;A 432-100B;Daicel LT 105;Poroplastic film MA 70;Tenite I;Liqui-Powder;Sustrelle;Eastman 438-85S;Saxetat;Triacetylcellulose;Poroplastic;Metricel GA 6;Metricel TCM 200;TH 27;Daicel L 30;Metricel GA 6S;Cellulose triacetate polymer;DT 07;KB 175;Daicel LT 35;FB 190UGA;Fuji Tac Clear;FTR 125;FT-UV 80;Fuji Tac FT-UV 80;FT-UV-SH;Fuji Tac UVE 50;Sartorius SM 11107;Sartorius SM 14549;HC 2-6118;Fuji Tac SH 50;Fuji Tac FT-UVDE 80;Fuji Tac FT-UVDE 90;Kodacel TA 415;Fuji Tac SH 80;TH 27 (polysaccharide);CTA 436-80S;LT 105;UVD 80;Fuji Tac UVD 80;TD-UV 80;TAC-AG 30;TFW 12;Konica Tac 80UVSH;Tack Film 80UVSH;Konica Tac 80UV2;Konica Tac KC 80UVS;Fuji Tac TD 800;Fuji Tac TD 80U;SH 80;TD 80U;Konica Tac KC 80UVN;LT 55;Konica Tac 80UVSF;2,3,6-Tri-<em>O</em>-acetyl cellulose;Konica Tac KC 8UVSF;Konica Tac KC 8UX2MW;Konica Tac KC 4UXMW;SH-TAC;Tacphan EM 63;Konica Tac KC 80UVSF;Fuji Tac FT 80;Acetate Flake L 30;FT-T 80UZ;Triafol TX;TD 800F;Konica Tac 4UX;T 80UZ;TAC;LT 35;Konica Tac KC 8UF;Konica Tac KC 4UX2M;Fuji Tac T 80UZ;UZ;Konica Tac KC 8UF-H;Konica Tac KC 4UX2MW;Konica Tac KC 4UX;Fuji Tac UV 80;TD 80UZ;TAC-DU;Fuji Tac FT-UV 80UZ;Konica Tac KC 80UVSHF;Konica Tac KC 80CA;KC 80CA;FT-UV 80UZ;Daicel LT 55;Konica Tac KC 8UX;TAC-TD 80U;ZTAC-HC;Fuji Tac TD 80UF;TD 80UF;Tac Film KC 4UX2MW;FB 150U;Fuji Tac UV-CM;Konica Tac KC 8UF-HA;FT 80UZ;Tac T 80UZ;ROGA 2540CTA;Fuji Tac TD 80;Triphan 125;Fuji Tac T 80UNL;Fuji Tac TD 80UL;KC 4UX2M;KC 4UX2MW;SZ-TAC;Konica Tac KC 8UY;TF 80UL;Fuji Tac T 40UZ;T 40UZ;CA 438-80S;Fuji Tac TDY 80UL;CA 435-75S;Sureflux 150L;Sureflux 210E;Sureflux FB 210U;Hollosep HM 10255;Konica Tac KC 8UX2M;Fuji Tac TF 80UL;KC 8UX2M;Fuji Tac UZ;UZ-TAC;PF 80UL;TDY 80UL;CA 436-80;CA 436-80S;TD 80UL;Fuji Tac TFY 80UL;TFY 80UL;TF 80UF;Tricea 210G;Konica Minolta Tac KC 8UX;Fuji Tac TA 80;ZRS 80S;KC 4UYW;FT-TD 80UZ;Sureflux 150FH;NF 700MWCO;Wide View Film BZ 438;FT-TD 80ULG;T 80SZ;Fuji Tac T 80SF;KC 4YYW;Konica Tac KC 4UY;KC 8UN;KC 4UY;Tacphan P 914G4;TDY 80;KC 8UCR;KC 8UY;Ronzatac;KC 8UX2MW;KC 4UE;KC 4FR2;KC 8UXTW;Fuji Tac TD 80ULG;Fuji Tac TD 80H;KC 4UWY;FB 150Uβ;Fuji Tac TD 80US;L 35;Tacphan P 913GL;FT-TD 80UL-H;Konica Tac KC 4UX2;UZ 80T;VM 149;Fuji Tac TD 80UL(H);Sureflux FB 150E;Sureflux FB 150F;Sureflux FB 150UH;T 80SL;Fuji Tac TD 60UL;TAC 80UVEP;Fuji Tac T 80SZ;KC 8UX;KC 4UEW;FT-PB 80UL-M;TD 80UL-H;Daicel FRM;VM 114;TD 80UV;Konica Tac KC 4KR1;Fuji Tac SH 40;TF 5600NF;TDTAC 80UL;KC 8UYW;TD 60UL;FRM;Z-TAC;TAC-TD 60U;Fuji Tac T 80SN;TDS 60;TDS 40;KC 4UA;TDH 60UF;TDH 80UF;TD 80ULN;Svema;FB 130U;KC 4KR1;KC 4DR1;TD 60U;Konica Tac KC 6UA;Vivaspin 2;TAC-LT 55;KC 4UAW;F-TAC;Triphan 91;Triphan N 882GL;Tacphan N 882GL;FTT 40UZ;Z-TAC-ZRD 60SL;TD 60ULP;80UL;FT-PB 40UL-M;K 2UAW;TD 40UL;KC 6UAW;Konica Tac KC 6UAW;CA 435-10;KC 6UY;Fuji Tac TD 40UL;FT-DT 80ULM;DSG 03;TAC 100;FT-TD 80SL;ZRD 60;TD 80;CF 442;KC 4CR1;TAC Clear Film;KC 2UA;FT 80SZ;FT-TD 80ULM;Fuji Tac ZRD 40;ZRD 40;TD 80SL;CV-LU 3;TD 80UL-M;KC 2UAW;KC 4CZ;N-Tac KC 4KR;Tacphan P 91;KC 6UA;CTA-NW;CTA-ES;Fuji Tac TG 40;Fuji Tac ZRT 40;Fuji Tac 80;Fuji Tac 50;TAC 50;TAC 80;Fuji Tac TD 40UC;Fuji Tac TD 40UT;TD 40UC;TD 40UT;Konica Minolta Tac KC 4CR;HTI OsMem CTA-ES;40CHC;UVTAC 80;KC 8UAW;Fuji Tac 25;Konica Tac 40;WVBZ 4A6;Fuji Tac TD 80ULM;ZRD 60SL;Z-TAC-ZRD 40SL;ZRD 40SL;Z-TAC ZRD 40SL;TG 40;ZRE 34;TG 60UL;Fuji Tac TG 60UL;CA 436-40;Lonza TAC 100;KC 4CT1;Tac TF 80UL;TDP 60UL;KC 4CW;ZRG 20SL;FT-TD 60ULP;Fuji Tac TD 80ULP;KC 4CT;ZRF 20SL;KC 2UGR-HC;Tacphanp 980;Triacetate;TJ 40UL;TJ 100UL;ZRT;PG 601F;TG 60ULS;Fuji Tac TDY 80ULM;PG 401S;VZ 50;DSR 3;VH 66H;CHC;CHC (film);TJ 40;KA 25HC;KC 2CT;KC 8UA;DSG 17V1;Fuji Tac TJ 25UL;TJ 25UL;PG 601S;LT 75 (cellulose);LT 75;LT 1054;FT-TD 60UL;ZRG 20;ZRG 40;FT-TD 40UC;NR 01;PK 3 (cellulose);PK 3",
    "duplicated_cas_no": "67527-47-3;71623-45-5;83047-04-5;221628-97-3;361146-23-8;540468-33-5;749909-27-1;757951-02-3;757951-03-4;1219810-57-7;1863030-90-3;1884228-40-3;1899024-21-5;2025350-98-3;2095809-24-6;2839182-70-4",
    "SMILES": "",
    "meta_data": {
        "InChI": "",
        "InChIKey": null,
        "Canonical SMILES": "",
        "Molecular Formula": "C<sub>2</sub>H<sub>4</sub>O<sub>2</sub>.<sup>1</sup>/<sub>3</sub>Unspecified",
        "Molecular Mass": "",
        "Melting Point": "120-160 °C",
        "Density": "1.29 g/cm³"
    }
}