{
    "cas_no": "498-94-2",
    "key_name": "4-Piperidinecarboxylic acid",
    "cn_name": "4-哌啶甲酸;",
    "alternate_name": "4-Piperidinecarboxylic acid;Isonipecotic acid;Hexahydroisonicotinic acid;4-Carboxypiperidine;NSC 61049;Isonipecotinic acid;Piperidin-4-carboxylic acid",
    "duplicated_cas_no": "",
    "SMILES": "C(O)(=O)C1CCNCC1",
    "meta_data": {
        "InChI": "InChI=1S/C6H11NO2/c8-6(9)5-1-3-7-4-2-5/h5,7H,1-4H2,(H,8,9)",
        "InChIKey": null,
        "Canonical SMILES": "O=C(O)C1CCNCC1",
        "Molecular Formula": "C<sub>6</sub>H<sub>11</sub>NO<sub>2</sub>",
        "Molecular Mass": "129.16",
        "Melting Point": "336 °C"
    }
}