{
    "cas_no": "84625-61-6",
    "key_name": "Itraconazole",
    "cn_name": "伊曲康唑;4-[4-[4-[4-[[cis-2-(2,4-二氯苯基)-2-(1H-1,2,4-三唑-1-基甲基)-1,3-二氧戊环-4-基]甲氧基]苯基];",
    "alternate_name": "3<em>H</em>-1,2,4-Triazol-3-one, 4-[4-[4-[4-[[(2<em>R</em>,4<em>S</em>)-2-(2,4-dichlorophenyl)-2-(1<em>H</em>-1,2,4-triazol-1-ylmethyl)-1,3-dioxolan-4-yl]methoxy]phenyl]-1-piperazinyl]phenyl]-2,4-dihydro-2-(1-methylpropyl)-, <em>rel</em>-;<em>rel</em>-4-[4-[4-[4-[[(2<em>R</em>,4<em>S</em>)-2-(2,4-Dichlorophenyl)-2-(1<em>H</em>-1,2,4-triazol-1-ylmethyl)-1,3-dioxolan-4-yl]methoxy]phenyl]-1-piperazinyl]phenyl]-2,4-dihydro-2-(1-methylpropyl)-3<em>H</em>-1,2,4-triazol-3-one;Itraconazole;R 51211;Oriconazole;Sporanox;Orungal;Itrizole;Triasporin;Sempera;Canditral;Traconal;Sporamelt;Spherazole CR;Spherazole IR;Sporonox;Sporal;Itrac;Cladosal 100;Itralek;Sporanox IV;Candistat;<em>cis</em>-Itraconazole;SUBA Itraconazole;Orungamin;PUR 1900;Fungitraxx;MeSH ID: D017964",
    "duplicated_cas_no": "",
    "SMILES": "C([C@]1(O[C@@H](COC2=CC=C(C=C2)N3CCN(CC3)C4=CC=C(C=C4)N5C(=O)N(C(CC)C)N=C5)CO1)C6=C(Cl)C=C(Cl)C=C6)N7C=NC=N7",
    "meta_data": {
        "InChI": "InChI=1/C35H38Cl2N8O4/c1-3-25(2)45-34(46)44(24-40-45)29-7-5-27(6-8-29)41-14-16-42(17-15-41)28-9-11-30(12-10-28)47-19-31-20-48-35(49-31,21-43-23-38-22-39-43)32-13-4-26(36)18-33(32)37/h4-13,18,22-25,31H,3,14-17,19-21H2,1-2H3/t25?,31-,35-/s2",
        "InChIKey": null,
        "Canonical SMILES": "O=C1N(N=CN1C2=CC=C(C=C2)N3CCN(C4=CC=C(OCC5OC(OC5)(C6=CC=C(Cl)C=C6Cl)CN7N=CN=C7)C=C4)CC3)C(C)CC",
        "Molecular Formula": "C<sub>35</sub>H<sub>38</sub>Cl<sub>2</sub>N<sub>8</sub>O<sub>4</sub>",
        "Molecular Mass": "705.63",
        "Melting Point": "166.2 °C",
        "Density": "1.27 g/cm³"
    }
}