{
    "cas_no": "52727-57-8",
    "key_name": "Methyl 2-amino-5-bromobenzoate",
    "cn_name": "2-氨基-5-溴苯甲酸甲酯;",
    "alternate_name": "Benzoic acid, 2-amino-5-bromo-, methyl ester;Anthranilic acid, 5-bromo-, methyl ester;Methyl 2-amino-5-bromobenzoate;5-Bromoanthranilic acid methyl ester;Methyl 5-bromoanthranilate;2-Amino-5-bromobenzoic acid methyl ester;5-Bromo-2-aminobenzoic acid methyl ester;Methyl 5-bromo-2-aminobenzoate;5-Bromo anthranilate methyl",
    "duplicated_cas_no": "",
    "SMILES": "C(OC)(=O)C1=C(N)C=CC(Br)=C1",
    "meta_data": {
        "InChI": "InChI=1S/C8H8BrNO2/c1-12-8(11)6-4-5(9)2-3-7(6)10/h2-4H,10H2,1H3",
        "InChIKey": null,
        "Canonical SMILES": "O=C(OC)C1=CC(Br)=CC=C1N",
        "Molecular Formula": "C<sub>8</sub>H<sub>8</sub>BrNO<sub>2</sub>",
        "Molecular Mass": "230.06",
        "Melting Point": "74 °C"
    }
}