{
    "cas_no": "6705-49-3",
    "key_name": "7-Oxabicyclo[4.1.0]heptan-2-one",
    "cn_name": "7-氧杂二环[4.1.0]庚烷-2-酮;",
    "alternate_name": "7-Oxabicyclo[4.1.0]heptan-2-one;Cyclohexanone, 2,3-epoxy-;2,3-Epoxycyclohexanone;2-Cyclohexenone oxide;2,3-Epoxy-1-cyclohexanone;2-Cyclohexen-1-one epoxide;NSC 316062;1,2-Epoxycyclohexan-3-one",
    "duplicated_cas_no": "98672-93-6",
    "SMILES": "O=C1C2C(O2)CCC1",
    "meta_data": {
        "InChI": "InChI=1S/C6H8O2/c7-4-2-1-3-5-6(4)8-5/h5-6H,1-3H2",
        "InChIKey": null,
        "Canonical SMILES": "O=C1CCCC2OC12",
        "Molecular Formula": "C<sub>6</sub>H<sub>8</sub>O<sub>2</sub>",
        "Molecular Mass": "112.13",
        "Boiling Point": "75-78 °C @ Press: 10 Torr",
        "Melting Point": "56 °C"
    }
}