{
    "cas_no": "56433-01-3",
    "key_name": "2-(Bromomethyl)-1-chloro-3-nitrobenzene",
    "cn_name": null,
    "alternate_name": "Benzene, 2-(bromomethyl)-1-chloro-3-nitro-;Toluene, α-bromo-2-chloro-6-nitro-;2-(Bromomethyl)-1-chloro-3-nitrobenzene;6-Chloro-2-nitrobenzyl bromide;2-Chloro-6-nitrobenzyl bromide;2-Bromomethyl-3-chloronitrobenzene",
    "duplicated_cas_no": "",
    "SMILES": "C(Br)C1=C(N(=O)=O)C=CC=C1Cl",
    "meta_data": {
        "InChI": "InChI=1S/C7H5BrClNO2/c8-4-5-6(9)2-1-3-7(5)10(11)12/h1-3H,4H2",
        "InChIKey": null,
        "Canonical SMILES": "O=N(=O)C=1C=CC=C(Cl)C1CBr",
        "Molecular Formula": "C<sub>7</sub>H<sub>5</sub>BrClNO<sub>2</sub>",
        "Molecular Mass": "250.48",
        "Boiling Point": "134 °C @ Press: 18 Torr",
        "Melting Point": "50.5 °C"
    }
}