{
    "cas_no": "36421-15-5",
    "key_name": "<em>N</em>-Butyl-<em>N</em>-(3-chloropropyl)-1-butanamine",
    "cn_name": "N-(3-氯丙基)二丁基胺;",
    "alternate_name": "1-Butanamine, <em>N</em>-butyl-<em>N</em>-(3-chloropropyl)-;<em>N</em>-Butyl-<em>N</em>-(3-chloropropyl)-1-butanamine;3-(Dibutylamino)propyl chloride;1-Chloro-3-dibutylaminopropane;3-Dibutylamino-1-chloropropane;(3-Chloropropyl)dibutylamine;<em>N</em>-(3-Chloropropyl)dibutylamine;3-Chloro-<em>N</em>,<em>N</em>-dibutyl-1-propanamine;3-(<em>N</em>,<em>N</em>-Dibutylamino)-1-chloropropane;1-Dibutylamino-3-chloropropane;NSC 51133;<em>N</em>,<em>N</em>-Dibutyl-3-chloro-1-propanamine",
    "duplicated_cas_no": "",
    "SMILES": "N(CCCC)(CCCC)CCCCl",
    "meta_data": {
        "InChI": "InChI=1S/C11H24ClN/c1-3-5-9-13(10-6-4-2)11-7-8-12/h3-11H2,1-2H3",
        "InChIKey": null,
        "Canonical SMILES": "ClCCCN(CCCC)CCCC",
        "Molecular Formula": "C<sub>11</sub>H<sub>24</sub>ClN",
        "Molecular Mass": "205.77",
        "Boiling Point": "118-130 °C @ Press: 25 Torr"
    }
}