{
    "cas_no": "502-61-4",
    "key_name": "Farnesene",
    "cn_name": "3,7,11-三甲基-1,3,6,10-十二碳-四烯;3,7,11-三甲基-1,3,6,10-十二碳-四烯;α-法尼烯;",
    "alternate_name": "1,3,6,10-Dodecatetraene, 3,7,11-trimethyl-, (3<em>E</em>,6<em>E</em>)-;Farnesene;1,3,6,10-Dodecatetraene, 3,7,11-trimethyl-, (<em>E</em>,<em>E</em>)-;(3<em>E</em>,6<em>E</em>)-3,7,11-Trimethyl-1,3,6,10-dodecatetraene;α-Farnesene;<em>trans</em>-2,6,10-Trimethyl-2,6,9,11-dodecatetraene;<em>trans</em>-3,7,11-Trimethyl-1,3,6,10-dodecatetraene;<em>trans</em>,<em>trans</em>-α-Farnesene;<em>trans</em>-α-Farnesene;(<em>E</em>,<em>E</em>)-α-Farnesene;(3<em>E</em>,6<em>E</em>)-α-Farnesene;alpha-Farnesene",
    "duplicated_cas_no": "18452-58-9;21499-64-9",
    "SMILES": "C(=C/C/C=C(/C=C)\\C)(\\CCC=C(C)C)/C",
    "meta_data": {
        "InChI": "InChI=1S/C15H24/c1-6-14(4)10-8-12-15(5)11-7-9-13(2)3/h6,9-10,12H,1,7-8,11H2,2-5H3/b14-10+,15-12+",
        "InChIKey": null,
        "Canonical SMILES": "C=CC(=CCC=C(C)CCC=C(C)C)C",
        "Molecular Formula": "C<sub>15</sub>H<sub>24</sub>",
        "Molecular Mass": "204.35",
        "Boiling Point": "125 °C",
        "Melting Point": "&lt;25 °C",
        "Density": "0.877 g/cm³ @ Temp: 18 °C"
    }
}