{
    "cas_no": "2270-40-8",
    "key_name": "Diacetoxyscirpenol",
    "cn_name": "蛇形菌素;二乙酰镳草镰刀菌烯醇;",
    "alternate_name": "Trichothec-9-ene-3,4,15-triol, 12,13-epoxy-, 4,15-diacetate, (3α,4β)-;Trichothec-9-ene-3α,4β,15-triol, 12,13-epoxy-, 4,15-diacetate;Anguidin;Diacetoxyscirpenol;4β,15-Diacetoxy-12,13-epoxytrichothec-9-en-3α-ol;4,15-Diacetoxyscirpen-3-ol;4,15-Diacetoxyscirp-9-en-3-ol;Anguidine;NSC 141537;4,15-Diacetoxyscirpenol;Scirpenetriol 4,15-diacetate;DAS;Scirp-9-ene-3α,4β,15-triol, 4,15-diacetate;4,15-Di-<em>O</em>-acetylscirpenol;NSC 177378",
    "duplicated_cas_no": "11011-10-2;22135-66-6;25662-95-7;28776-47-8;109547-11-7;145427-91-4;852223-87-1;2446429-25-8",
    "SMILES": "C[C@@]12[C@@]3([C@@]([C@H](O)[C@H]1OC(C)=O)(O[C@]4([C@]2(COC(C)=O)CCC(C)=C4)[H])[H])CO3",
    "meta_data": {
        "InChI": "InChI=1S/C19H26O7/c1-10-5-6-18(8-23-11(2)20)13(7-10)26-16-14(22)15(25-12(3)21)17(18,4)19(16)9-24-19/h7,13-16,22H,5-6,8-9H2,1-4H3/t13-,14-,15-,16-,17-,18-,19+/m1/s1",
        "InChIKey": null,
        "Canonical SMILES": "O=C(OCC12CCC(=CC2OC3C(O)C(OC(=O)C)C1(C)C43OC4)C)C",
        "Molecular Formula": "C<sub>19</sub>H<sub>26</sub>O<sub>7</sub>",
        "Molecular Mass": "366.41",
        "Melting Point": "161-162 °C"
    }
}