{
    "cas_no": "694-80-4",
    "key_name": "1-Bromo-2-chlorobenzene",
    "cn_name": "2-溴氯苯;1-溴-2-氯苯;邻氯溴苯;",
    "alternate_name": "Benzene, 1-bromo-2-chloro-;1-Bromo-2-chlorobenzene;<em>o</em>-Chlorobromobenzene;1-Chloro-2-bromobenzene;<em>o</em>-Bromochlorobenzene;2-Chlorobromobenzene;2-Bromo-1-chlorobenzene;2-Chlorophenyl bromide;2-Bromochlorobenzene;<em>o</em>-Bromophenyl chloride;NSC 59694;2-Bromophenyl chloride;2-Chloro-1-bromobenzene",
    "duplicated_cas_no": "",
    "SMILES": "BrC1=C(Cl)C=CC=C1",
    "meta_data": {
        "InChI": "InChI=1S/C6H4BrCl/c7-5-3-1-2-4-6(5)8/h1-4H",
        "InChIKey": null,
        "Canonical SMILES": "ClC=1C=CC=CC1Br",
        "Molecular Formula": "C<sub>6</sub>H<sub>4</sub>BrCl",
        "Molecular Mass": "191.45",
        "Boiling Point": "204 °C",
        "Melting Point": "-12.3 °C",
        "Density": "1.6444 g/cm³ @ Temp: 20.4 °C"
    }
}