{
    "cas_no": "1003-83-4",
    "key_name": "4,7-Dihydro-2,2-dimethyl-1,3-dioxepin",
    "cn_name": null,
    "alternate_name": "1,3-Dioxepin, 4,7-dihydro-2,2-dimethyl-;4,7-Dihydro-2,2-dimethyl-1,3-dioxepin;2,2-Dimethyl-4,7-dihydro-1,3-dioxepin;2,2-Dimethyl-1,3-dioxacyclohept-5-ene;NSC 693424;2,2-Dimethyl-4,7-dihydro-1,3-dioxepine;2,2-Dimethyl-4,7-dihydro-2<em>H</em>-1,3-dioxepine;2,2-Dimethyl-4,7-dihydro-2<em>H</em>-[1,3]dioxepin",
    "duplicated_cas_no": "",
    "SMILES": "CC1(C)OCC=CCO1",
    "meta_data": {
        "InChI": "InChI=1S/C7H12O2/c1-7(2)8-5-3-4-6-9-7/h3-4H,5-6H2,1-2H3",
        "InChIKey": null,
        "Canonical SMILES": "O1CC=CCOC1(C)C",
        "Molecular Formula": "C<sub>7</sub>H<sub>12</sub>O<sub>2</sub>",
        "Molecular Mass": "128.17",
        "Boiling Point": "144.5-147.0 °C @ Press: 755 Torr"
    }
}