{
    "cas_no": "394-35-4",
    "key_name": "Benzoic acid, 2-fluoro-, methyl ester",
    "cn_name": null,
    "alternate_name": "Benzoic acid, 2-fluoro-, methyl ester;Benzoic acid, <em>o</em>-fluoro-, methyl ester;Methyl 2-fluorobenzoate;Methyl <em>o</em>-fluorobenzoate;2-Fluorobenzoic acid methyl ester;NSC 96624",
    "duplicated_cas_no": "",
    "SMILES": "C(OC)(=O)C1=C(F)C=CC=C1",
    "meta_data": {
        "InChI": "InChI=1S/C8H7FO2/c1-11-8(10)6-4-2-3-5-7(6)9/h2-5H,1H3",
        "InChIKey": null,
        "Canonical SMILES": "O=C(OC)C=1C=CC=CC1F",
        "Molecular Formula": "C<sub>8</sub>H<sub>7</sub>FO<sub>2</sub>",
        "Molecular Mass": "154.14",
        "Boiling Point": "207 °C",
        "Melting Point": "-20 °C"
    }
}