{
    "cas_no": "89-21-4",
    "key_name": "4-Chloro-1-methoxy-2-nitrobenzene",
    "cn_name": "4-氯-2-硝基苯甲醚;",
    "alternate_name": "Benzene, 4-chloro-1-methoxy-2-nitro-;Anisole, 4-chloro-2-nitro-;4-Chloro-1-methoxy-2-nitrobenzene;4-Chloro-2-nitroanisole;NSC 8445;2-Nitro-4-chloroanisole;5-Chloro-2-methoxynitrobenzene",
    "duplicated_cas_no": "",
    "SMILES": "N(=O)(=O)C1=C(OC)C=CC(Cl)=C1",
    "meta_data": {
        "InChI": "InChI=1S/C7H6ClNO3/c1-12-7-3-2-5(8)4-6(7)9(10)11/h2-4H,1H3",
        "InChIKey": null,
        "Canonical SMILES": "O=N(=O)C1=CC(Cl)=CC=C1OC",
        "Molecular Formula": "C<sub>7</sub>H<sub>6</sub>ClNO<sub>3</sub>",
        "Molecular Mass": "187.58",
        "Melting Point": "96 °C"
    }
}