{
    "cas_no": "623-39-2",
    "key_name": "3-Methoxy-1,2-propanediol",
    "cn_name": "3-甲氧基-1,2-丙二醇;",
    "alternate_name": "1,2-Propanediol, 3-methoxy-;3-Methoxy-1,2-propanediol;Glycerin-α-monomethyl ether;Glycerol 1-monomethyl ether;NSC 6752;3-Methoxy-1,2-dihydroxypropane;1-Methoxy-2,3-propanediol",
    "duplicated_cas_no": "36887-04-4",
    "SMILES": "C(COC)(CO)O",
    "meta_data": {
        "InChI": "InChI=1S/C4H10O3/c1-7-3-4(6)2-5/h4-6H,2-3H2,1H3",
        "InChIKey": null,
        "Canonical SMILES": "OCC(O)COC",
        "Molecular Formula": "C<sub>4</sub>H<sub>10</sub>O<sub>3</sub>",
        "Molecular Mass": "106.12",
        "Boiling Point": "220 °C",
        "Density": "1.1197 g/cm³ @ Temp: 17 °C"
    }
}