{
    "cas_no": "691-38-3",
    "key_name": "<em>cis</em>-4-Methyl-2-pentene",
    "cn_name": "顺式-4-甲基-2-戊烯;",
    "alternate_name": "2-Pentene, 4-methyl-, (2<em>Z</em>)-;2-Pentene, 4-methyl-, (<em>Z</em>)-;2-Pentene, 4-methyl-, <em>cis</em>-;(2<em>Z</em>)-4-Methyl-2-pentene;<em>cis</em>-4-Methyl-2-pentene;(<em>Z</em>)-4-Methyl-2-pentene;<em>cis</em>-2-Methyl-3-pentene;<em>cis</em>-1-Isopropylpropene",
    "duplicated_cas_no": "",
    "SMILES": "C(\\C(C)C)=C\\C",
    "meta_data": {
        "InChI": "InChI=1S/C6H12/c1-4-5-6(2)3/h4-6H,1-3H3/b5-4-",
        "InChIKey": null,
        "Canonical SMILES": "C(=CC(C)C)C",
        "Molecular Formula": "C<sub>6</sub>H<sub>12</sub>",
        "Molecular Mass": "84.16",
        "Boiling Point": "56.3 °C",
        "Melting Point": "-134.8 °C",
        "Density": "0.663 g/cm³ @ Temp: 24 °C"
    }
}