{
    "cas_no": "16588-24-2",
    "key_name": "4-Bromo-1-chloro-2-nitrobenzene",
    "cn_name": null,
    "alternate_name": "Benzene, 4-bromo-1-chloro-2-nitro-;4-Bromo-1-chloro-2-nitrobenzene;1-Bromo-4-chloro-3-nitrobenzene;1-Chloro-4-bromo-2-nitrobenzene;4-Chloro-3-nitrobromobenzene;3-Bromo-6-chloronitrobenzene;5-Bromo-2-chloronitrobenzene;2-Chloro-5-bromonitrobenzene",
    "duplicated_cas_no": "",
    "SMILES": "N(=O)(=O)C1=C(Cl)C=CC(Br)=C1",
    "meta_data": {
        "InChI": "InChI=1S/C6H3BrClNO2/c7-4-1-2-5(8)6(3-4)9(10)11/h1-3H",
        "InChIKey": null,
        "Canonical SMILES": "O=N(=O)C1=CC(Br)=CC=C1Cl",
        "Molecular Formula": "C<sub>6</sub>H<sub>3</sub>BrClNO<sub>2</sub>",
        "Molecular Mass": "236.45",
        "Melting Point": "70.8 °C",
        "Density": "2.035 g/cm³ @ Temp: 16 °C"
    }
}