{
    "cas_no": "3320-86-3",
    "key_name": "2-Nitrophenyl isocyanate",
    "cn_name": "异腈酸2-硝基苯;",
    "alternate_name": "Benzene, 1-isocyanato-2-nitro-;Isocyanic acid, <em>o</em>-nitrophenyl ester;1-Isocyanato-2-nitrobenzene;<em>o</em>-Nitrophenyl isocyanate;2-Nitrophenyl isocyanate;NSC 5384",
    "duplicated_cas_no": "",
    "SMILES": "N(=O)(=O)C1=C(N=C=O)C=CC=C1",
    "meta_data": {
        "InChI": "InChI=1S/C7H4N2O3/c10-5-8-6-3-1-2-4-7(6)9(11)12/h1-4H",
        "InChIKey": null,
        "Canonical SMILES": "O=C=NC=1C=CC=CC1N(=O)=O",
        "Molecular Formula": "C<sub>7</sub>H<sub>4</sub>N<sub>2</sub>O<sub>3</sub>",
        "Molecular Mass": "164.12",
        "Boiling Point": "135 °C @ Press: 17 Torr",
        "Melting Point": "41 °C"
    }
}