{
    "cas_no": "540-23-8",
    "key_name": "Benzenamine, 4-methyl-, hydrochloride (1:1)",
    "cn_name": "4-甲基苯胺盐酸盐;盐酸对甲苯胺;",
    "alternate_name": "Benzenamine, 4-methyl-, hydrochloride (1:1);<em>p</em>-Toluidine, hydrochloride;Benzenamine, 4-methyl-, hydrochloride;4-Methylaniline hydrochloride;<em>p</em>-Toluidinium chloride;4-Aminotoluene hydrochloride;<em>p</em>-Methylanilinium chloride;4-Methylanilinium chloride;<em>p</em>-Methylaniline hydrochloride;4-Methylphenylammonium chloride;4-Methylbenzenamine hydrochloride",
    "duplicated_cas_no": "",
    "SMILES": "CC1=CC=C(N)C=C1.Cl",
    "meta_data": {
        "InChI": "InChI=1S/C7H9N.ClH/c1-6-2-4-7(8)5-3-6;/h2-5H,8H2,1H3;1H",
        "InChIKey": null,
        "Canonical SMILES": "Cl.NC1=CC=C(C=C1)C",
        "Molecular Formula": "C<sub>7</sub>H<sub>9</sub>N.ClH",
        "Molecular Mass": "",
        "Melting Point": "243 °C",
        "Density": "1.193 g/cm³"
    }
}