{
    "cas_no": "1509-34-8",
    "key_name": "<span class=\"text-smallcaps\">L</span>-Alloisoleucine",
    "cn_name": "L-别异亮氨酸; (2S,3R)-2-氨基-3-甲基戊酸;",
    "alternate_name": "<span class=\"text-smallcaps\">L</span>-Alloisoleucine;Alloisoleucine, <span class=\"text-smallcaps\">L</span>-;Alloisoleucine;<span class=\"text-smallcaps\">L</span>-<em>allo</em>-Isoleucine;Pentanoic acid, 2-amino-3-methyl-, [<em>S</em>-(<em>R</em>*,<em>S</em>*)]-;(3<em>R</em>)-<span class=\"text-smallcaps\">L</span><sub>S</sub>-Isoleucine;<span class=\"text-smallcaps\">L</span>-Norvaline, 3-methyl-, <em>threo</em>-;<span class=\"text-smallcaps\">L</span>-Isoleucine, <em>allo</em>-;<span class=\"text-smallcaps\">L</span>-Isoleucine, <em>threo</em>-;<em>Allo</em>-<span class=\"text-smallcaps\">L</span>-Isoleucine;<span class=\"text-smallcaps\">L</span>(+)-Alloisoleucine;[<em>S</em>-(<em>R</em>*,<em>S</em>*)]-2-Amino-3-methylpentanoic acid;<em>allo</em>-Isoleucine;NSC 206282;(2<em>S</em>,3<em>R</em>)-2-Amino-3-methylpentanoic acid",
    "duplicated_cas_no": "26524-12-9;1013313-53-5",
    "SMILES": "[C@H]([C@@H](CC)C)(C(O)=O)N",
    "meta_data": {
        "InChI": "InChI=1S/C6H13NO2/c1-3-4(2)5(7)6(8)9/h4-5H,3,7H2,1-2H3,(H,8,9)/t4-,5+/m1/s1",
        "InChIKey": null,
        "Canonical SMILES": "O=C(O)C(N)C(C)CC",
        "Molecular Formula": "C<sub>6</sub>H<sub>13</sub>NO<sub>2</sub>",
        "Molecular Mass": "131.17",
        "Melting Point": "278 °C (decomp)"
    }
}