{
    "cas_no": "633-65-8",
    "key_name": "Berberine hydrochloride",
    "cn_name": "盐酸黄连素;盐酸小檗碱;小檗碱盐酸盐;",
    "alternate_name": "Benzo[<em>g</em>]-1,3-benzodioxolo[5,6-<em>a</em>]quinolizinium, 5,6-dihydro-9,10-dimethoxy-, chloride (1:1);Berbinium, 7,8,13,13a-tetradehydro-9,10-dimethoxy-2,3-(methylenedioxy)-, chloride;Benzo[<em>g</em>]-1,3-benzodioxolo[5,6-<em>a</em>]quinolizinium, 5,6-dihydro-9,10-dimethoxy-, chloride;Berberine, chloride;Berberine hydrochloride;Berberinium chloride;NSC 646666;NSC 163088;Berberine IR;16,17-Dimethoxy-5,7-dioxa-13λ5-azapentacyclo[11.8.0.0[2,10].0[4,8].0[15,20]]henicosa-1(21),2(10),3,8,13,15(20),16,18-octaen-13-ylium chloride",
    "duplicated_cas_no": "1082532-96-4;2758467-96-6",
    "SMILES": "O(C)C1=C2C=[N+]3C(C=4C(=CC5=C(C4)OCO5)CC3)=CC2=CC=C1OC.[Cl-]",
    "meta_data": {
        "InChI": "InChI=1S/C20H18NO4.ClH/c1-22-17-4-3-12-7-16-14-9-19-18(24-11-25-19)8-13(14)5-6-21(16)10-15(12)20(17)23-2;/h3-4,7-10H,5-6,11H2,1-2H3;1H/q+1;/p-1",
        "InChIKey": null,
        "Canonical SMILES": "[Cl-].O(C=1C=CC2=CC=3C4=CC=5OCOC5C=C4CC[N+]3C=C2C1OC)C",
        "Molecular Formula": "C<sub>20</sub>H<sub>18</sub>NO<sub>4</sub>.Cl",
        "Molecular Mass": "",
        "Melting Point": "214 °C"
    }
}