{
    "cas_no": "59128-15-3",
    "key_name": "6-Bromoimidazo[1,2-<em>a</em>]pyridine-2-acetic acid",
    "cn_name": null,
    "alternate_name": "Imidazo[1,2-<em>a</em>]pyridine-2-acetic acid, 6-bromo-;6-Bromoimidazo[1,2-<em>a</em>]pyridine-2-acetic acid;NSC 296228;(6-Bromoimidazo[1,2-<em>a</em>]pyridin-2-yl)acetic acid;2-[6-Bromoimidazo[1,2-<em>a</em>]pyridin-2-yl]acetic acid;2-(6-Bromoimidazo[1,2-<em>a</em>]pyridin-2-yl)aceticacid",
    "duplicated_cas_no": "",
    "SMILES": "C(C(O)=O)C1=CN2C(=N1)C=CC(Br)=C2",
    "meta_data": {
        "InChI": "InChI=1S/C9H7BrN2O2/c10-6-1-2-8-11-7(3-9(13)14)5-12(8)4-6/h1-2,4-5H,3H2,(H,13,14)",
        "InChIKey": null,
        "Canonical SMILES": "O=C(O)CC=1N=C2C=CC(Br)=CN2C1",
        "Molecular Formula": "C<sub>9</sub>H<sub>7</sub>BrN<sub>2</sub>O<sub>2</sub>",
        "Molecular Mass": "255.07",
        "Melting Point": "214-215 °C"
    }
}