{
    "cas_no": "54799-03-0",
    "key_name": "Benzenemethanamine, 4-amino-, hydrochloride (1:2)",
    "cn_name": null,
    "alternate_name": "Benzenemethanamine, 4-amino-, hydrochloride (1:2);Benzenemethanamine, 4-amino-, dihydrochloride;Toluene-α,4-diamine, dihydrochloride;<em>p</em>-Aminobenzylaminedihydrochloride;4-(Aminomethyl)aniline dihydrochloride",
    "duplicated_cas_no": "",
    "SMILES": "C(N)C1=CC=C(N)C=C1.Cl",
    "meta_data": {
        "InChI": "InChI=1S/C7H10N2.2ClH/c8-5-6-1-3-7(9)4-2-6;;/h1-4H,5,8-9H2;2*1H",
        "InChIKey": null,
        "Canonical SMILES": "Cl.NC1=CC=C(C=C1)CN",
        "Molecular Formula": "C<sub>7</sub>H<sub>10</sub>N<sub>2</sub>.2ClH",
        "Molecular Mass": "",
        "Melting Point": "360 °C"
    }
}