{
    "cas_no": "2436-96-6",
    "key_name": "2,2′-Dinitrobiphenyl",
    "cn_name": "2,2\"-二硝基联苯;2,2\"-二硝基联苯基;",
    "alternate_name": "1,1′-Biphenyl, 2,2′-dinitro-;Biphenyl, 2,2′-dinitro-;2,2′-Dinitro-1,1′-biphenyl;2,2′-Dinitrobiphenyl;NSC 13356;1-Nitro-2-(2-nitrophenyl)benzene",
    "duplicated_cas_no": "",
    "SMILES": "N(=O)(=O)C1=C(C=CC=C1)C2=C(N(=O)=O)C=CC=C2",
    "meta_data": {
        "InChI": "InChI=1S/C12H8N2O4/c15-13(16)11-7-3-1-5-9(11)10-6-2-4-8-12(10)14(17)18/h1-8H",
        "InChIKey": null,
        "Canonical SMILES": "O=N(=O)C=1C=CC=CC1C=2C=CC=CC2N(=O)=O",
        "Molecular Formula": "C<sub>12</sub>H<sub>8</sub>N<sub>2</sub>O<sub>4</sub>",
        "Molecular Mass": "244.20",
        "Boiling Point": "305 °C",
        "Melting Point": "126 °C",
        "Density": "1.50 g/cm³"
    }
}