{
    "cas_no": "61381-04-2",
    "key_name": "3,4-Diethoxybenzeneethanamine",
    "cn_name": null,
    "alternate_name": "Benzeneethanamine, 3,4-diethoxy-;Phenethylamine, 3,4-diethoxy-;3,4-Diethoxybenzeneethanamine;2-(3,4-Diethoxyphenyl)ethylamine;3,4-Diethoxyphenethylamine;2-(3,4-Diethoxyphenyl)ethanamine;2-(3,4-Diethoxyphenyl)ethan-1-amine",
    "duplicated_cas_no": "",
    "SMILES": "O(CC)C1=C(OCC)C=CC(CCN)=C1",
    "meta_data": {
        "InChI": "InChI=1S/C12H19NO2/c1-3-14-11-6-5-10(7-8-13)9-12(11)15-4-2/h5-6,9H,3-4,7-8,13H2,1-2H3",
        "InChIKey": null,
        "Canonical SMILES": "O(C1=CC=C(C=C1OCC)CCN)CC",
        "Molecular Formula": "C<sub>12</sub>H<sub>19</sub>NO<sub>2</sub>",
        "Molecular Mass": "209.28",
        "Boiling Point": "162 °C @ Press: 13 Torr",
        "Density": "1.0366 g/cm³ @ Temp: 25 °C"
    }
}