{
    "cas_no": "10008-73-8",
    "key_name": "Dihydro-5-methylene-2(3<em>H</em>)-furanone",
    "cn_name": "5-甲基-2(3H)-呋喃酮;",
    "alternate_name": "2(3<em>H</em>)-Furanone, dihydro-5-methylene-;4-Pentenoic acid, 4-hydroxy-, γ-lactone;Dihydro-5-methylene-2(3<em>H</em>)-furanone;4,5-Dihydro-5-methylenefuran-2(3<em>H</em>)-one;γ-Methylene-γ-butyrolactone;4-Penten-4-olide;5-Methylenetetrahydro-2-furanone;Dihydro-5-methylenefuran-2(3<em>H</em>)-one;5-Methylene-3,4-dihydro-2-furanone",
    "duplicated_cas_no": "",
    "SMILES": "C=C1OC(=O)CC1",
    "meta_data": {
        "InChI": "InChI=1S/C5H6O2/c1-4-2-3-5(6)7-4/h1-3H2",
        "InChIKey": null,
        "Canonical SMILES": "O=C1OC(=C)CC1",
        "Molecular Formula": "C<sub>5</sub>H<sub>6</sub>O<sub>2</sub>",
        "Molecular Mass": "98.10",
        "Boiling Point": "80 °C @ Press: 17 Torr"
    }
}