{
    "cas_no": "1122-56-1",
    "key_name": "Cyclohexanecarboxamide",
    "cn_name": "环己甲酰胺;",
    "alternate_name": "Cyclohexanecarboxamide;Cyclohexylcarboxamide;Hexahydrobenzamide;NSC 16584",
    "duplicated_cas_no": "",
    "SMILES": "C(N)(=O)C1CCCCC1",
    "meta_data": {
        "InChI": "InChI=1S/C7H13NO/c8-7(9)6-4-2-1-3-5-6/h6H,1-5H2,(H2,8,9)",
        "InChIKey": null,
        "Canonical SMILES": "O=C(N)C1CCCCC1",
        "Molecular Formula": "C<sub>7</sub>H<sub>13</sub>NO",
        "Molecular Mass": "127.18",
        "Melting Point": "184-185 °C"
    }
}