{
    "cas_no": "5326-38-5",
    "key_name": "1-Iodo-2-methyl-4-nitrobenzene",
    "cn_name": "2-碘-5-硝基甲苯;",
    "alternate_name": "Benzene, 1-iodo-2-methyl-4-nitro-;1-Iodo-2-methyl-4-nitrobenzene;2-Iodo-5-nitrotoluene;NSC 293;6-Iodo-3-nitrotoluene;2-Methyl-4-nitrophenyl iodide;2-Methyl-4-nitro-1-iodobenzene",
    "duplicated_cas_no": "",
    "SMILES": "N(=O)(=O)C1=CC(C)=C(I)C=C1",
    "meta_data": {
        "InChI": "InChI=1S/C7H6INO2/c1-5-4-6(9(10)11)2-3-7(5)8/h2-4H,1H3",
        "InChIKey": null,
        "Canonical SMILES": "O=N(=O)C1=CC=C(I)C(=C1)C",
        "Molecular Formula": "C<sub>7</sub>H<sub>6</sub>INO<sub>2</sub>",
        "Molecular Mass": "263.03",
        "Melting Point": "100-103 °C"
    }
}