{
    "cas_no": "91-66-7",
    "key_name": "<em>N</em>,<em>N</em>-Diethylaniline",
    "cn_name": "N,N-二乙基苯胺;",
    "alternate_name": "Benzenamine, <em>N</em>,<em>N</em>-diethyl-;Aniline, <em>N</em>,<em>N</em>-diethyl-;<em>N</em>,<em>N</em>-Diethylbenzenamine;<em>N</em>,<em>N</em>-Diethylaminobenzene;Diethylaniline;Diethylphenylamine;<em>N</em>,<em>N</em>-Diethylaniline;DEA;(Diethylamino)benzene;NSC 7205;NL 64-10P;<em>N</em>-Phenyldiethylamine",
    "duplicated_cas_no": "",
    "SMILES": "N(CC)(CC)C1=CC=CC=C1",
    "meta_data": {
        "InChI": "InChI=1S/C10H15N/c1-3-11(4-2)10-8-6-5-7-9-10/h5-9H,3-4H2,1-2H3",
        "InChIKey": null,
        "Canonical SMILES": "C=1C=CC(=CC1)N(CC)CC",
        "Molecular Formula": "C<sub>10</sub>H<sub>15</sub>N",
        "Molecular Mass": "149.23",
        "Boiling Point": "216.3 °C",
        "Melting Point": "-38.8 °C",
        "Density": "0.9307 g/cm³ @ Temp: 20 °C"
    }
}