{
    "cas_no": "4949-85-3",
    "key_name": "<em>N</em>-(2,5-Dichlorophenyl)thiourea",
    "cn_name": "2,5-二氯苯基硫脲;2,5-二氯苯(基)硫脲;",
    "alternate_name": "Thiourea, <em>N</em>-(2,5-dichlorophenyl)-;Urea, 1-(2,5-dichlorophenyl)-2-thio-;Thiourea, (2,5-dichlorophenyl)-;<em>N</em>-(2,5-Dichlorophenyl)thiourea;(2,5-Dichlorophenyl)thiourea;NSC 635820;1-(2,5-Dichlorophenyl)thiourea",
    "duplicated_cas_no": "",
    "SMILES": "N(C(N)=S)C1=C(Cl)C=CC(Cl)=C1",
    "meta_data": {
        "InChI": "InChI=1S/C7H6Cl2N2S/c8-4-1-2-5(9)6(3-4)11-7(10)12/h1-3H,(H3,10,11,12)",
        "InChIKey": null,
        "Canonical SMILES": "S=C(N)NC1=CC(Cl)=CC=C1Cl",
        "Molecular Formula": "C<sub>7</sub>H<sub>6</sub>Cl<sub>2</sub>N<sub>2</sub>S",
        "Molecular Mass": "221.11",
        "Melting Point": "320 °C"
    }
}