{
    "cas_no": "19836-78-3",
    "key_name": "3-Methyl-2-oxazolidinone",
    "cn_name": null,
    "alternate_name": "2-Oxazolidinone, 3-methyl-;3-Methyl-2-oxazolidinone;<em>N</em>-Methyl-2-oxazolidinone;<em>N</em>-Methyl-2-oxazolidone;3-Methyl-1,3-oxazolidin-2-one;3-Methyl-1,3-oxazolidine-2-one;3-Methyloxazolidinone",
    "duplicated_cas_no": "",
    "SMILES": "O=C1N(C)CCO1",
    "meta_data": {
        "InChI": "InChI=1S/C4H7NO2/c1-5-2-3-7-4(5)6/h2-3H2,1H3",
        "InChIKey": null,
        "Canonical SMILES": "O=C1OCCN1C",
        "Molecular Formula": "C<sub>4</sub>H<sub>7</sub>NO<sub>2</sub>",
        "Molecular Mass": "101.10",
        "Boiling Point": "180 °C @ Press: 1.5 Torr",
        "Melting Point": "29.03 °C",
        "Density": "1.1683 g/cm³ @ Temp: 20 °C"
    }
}