{
    "cas_no": "7786-44-9",
    "key_name": "2,6-Nonadien-1-ol",
    "cn_name": "2,6-壬二烯醇;",
    "alternate_name": "2,6-Nonadien-1-ol;Cucumber alcohol;Violet-leaf alcohol;2,6-Nonadienol",
    "duplicated_cas_no": "",
    "SMILES": "C(CC=CCO)C=CCC",
    "meta_data": {
        "InChI": "InChI=1S/C9H16O/c1-2-3-4-5-6-7-8-9-10/h3-4,7-8,10H,2,5-6,9H2,1H3",
        "InChIKey": null,
        "Canonical SMILES": "OCC=CCCC=CCC",
        "Molecular Formula": "C<sub>9</sub>H<sub>16</sub>O",
        "Molecular Mass": "140.22",
        "Boiling Point": "196 °C",
        "Density": "0.8628 g/cm³ @ Temp: 21 °C"
    }
}