{
    "cas_no": "4635-59-0",
    "key_name": "4-Chlorobutyryl chloride",
    "cn_name": "4-氯丁酰氯;",
    "alternate_name": "Butanoyl chloride, 4-chloro-;Butyryl chloride, 4-chloro-;4-Chlorobutanoyl chloride;γ-Chlorobutyryl chloride;4-Chlorobutyryl chloride;4-Chlorobutyroyl chloride;4-Chlorobutyric acid chloride;γ-Chlorobutyroyl chloride;4-Chlorobutanoic acid chloride;ω-Chlorobutanoyl chloride;ω-Chlorobutyryl chloride",
    "duplicated_cas_no": "2231811-47-3",
    "SMILES": "C(C(Cl)=O)CCCl",
    "meta_data": {
        "InChI": "InChI=1S/C4H6Cl2O/c5-3-1-2-4(6)7/h1-3H2",
        "InChIKey": null,
        "Canonical SMILES": "O=C(Cl)CCCCl",
        "Molecular Formula": "C<sub>4</sub>H<sub>6</sub>Cl<sub>2</sub>O",
        "Molecular Mass": "141.00",
        "Boiling Point": "173.5 °C",
        "Density": "1.2799 g/cm³ @ Temp: 20 °C"
    }
}