{
    "cas_no": "26607-15-8",
    "key_name": "<span class=\"text-smallcaps\">L</smallcap>-Leucyl-<smallcap>L</span>-arginine",
    "cn_name": null,
    "alternate_name": "<span class=\"text-smallcaps\">L</smallcap>-Arginine, <smallcap>L</span>-leucyl-;Arginine, <em>N</em><sup>2</sup>-<span class=\"text-smallcaps\">L</smallcap>-leucyl-, <smallcap>L</span>-;<span class=\"text-smallcaps\">L</smallcap>-Arginine, <em>N</em><sup>2</sup>-<smallcap>L</span>-leucyl-;<span class=\"text-smallcaps\">L</smallcap>-Leucyl-<smallcap>L</span>-arginine;78: PN: US20070066537 PAGE: 17 claimed protein;1707: PN: WO2007124090 PAGE: 83 claimed protein;182: PN: WO2009114815 SEQID: 194 unclaimed protein;124: PN: WO2009132287 SEQID: 194 claimed protein;26: PN: EP2161028 PAGE: 10 claimed protein;44: PN: WO2010045512 SEQID: 43 unclaimed protein;205: PN: WO2010059829 SEQID: 223 unclaimed protein;522: PN: WO2010124259 SEQID: 551 claimed protein;525: PN: WO2010124262 SEQID: 551 claimed protein;175: PN: WO2011032181 SEQID: 194 unclaimed protein;35: PN: EP2301956 PAGE: 31 claimed sequence;4: PN: WO2011050471 SEQID: 4 claimed sequence;13: PN: WO2011146121 PAGE: 113 claimed sequence;389: PN: WO2022056313 SEQID: 400 claimed protein;241: PN: US20220128567 SEQID: 400 claimed protein;241: PN: US20220178935 SEQID: 400 claimed protein",
    "duplicated_cas_no": "1192890-33-7",
    "SMILES": "[C@H](NC([C@H](CC(C)C)N)=O)(CCCNC(=N)N)C(O)=O",
    "meta_data": {
        "InChI": "InChI=1S/C12H25N5O3/c1-7(2)6-8(13)10(18)17-9(11(19)20)4-3-5-16-12(14)15/h7-9H,3-6,13H2,1-2H3,(H,17,18)(H,19,20)(H4,14,15,16)/t8-,9-/m0/s1",
        "InChIKey": null,
        "Canonical SMILES": "O=C(O)C(NC(=O)C(N)CC(C)C)CCCNC(=N)N",
        "Molecular Formula": "C<sub>12</sub>H<sub>25</sub>N<sub>5</sub>O<sub>3</sub>",
        "Molecular Mass": "287.36",
        "Melting Point": "118-120 °C"
    }
}