{
    "cas_no": "10316-79-7",
    "key_name": "[1-Aminocyclopentyl]methanol",
    "cn_name": null,
    "alternate_name": "Cyclopentanemethanol, 1-amino-;1-Aminocyclopentanemethanol;1-Aminocyclopentane-1-methanol;1-(Hydroxymethyl)cyclopentanamine;(1-(Hydroxymethyl)cyclopentyl)amine;Cycloleucinol;1-Amino-1-(hydroxymethyl)cyclopentane;[1-Aminocyclopentyl]methanol;(1-Amino-1-cyclopentyl)methanol",
    "duplicated_cas_no": "",
    "SMILES": "C(O)C1(N)CCCC1",
    "meta_data": {
        "InChI": "InChI=1S/C6H13NO/c7-6(5-8)3-1-2-4-6/h8H,1-5,7H2",
        "InChIKey": null,
        "Canonical SMILES": "OCC1(N)CCCC1",
        "Molecular Formula": "C<sub>6</sub>H<sub>13</sub>NO",
        "Molecular Mass": "115.17",
        "Boiling Point": "68-69 °C @ Press: 1 Torr"
    }
}