{
    "cas_no": "50487-71-3",
    "key_name": "<em>N</em>-Allyl-<em>p</em>-toluenesulfonamide",
    "cn_name": null,
    "alternate_name": "Benzenesulfonamide, 4-methyl-<em>N</em>-2-propen-1-yl-;Benzenesulfonamide, 4-methyl-<em>N</em>-2-propenyl-;<em>p</em>-Toluenesulfonamide, <em>N</em>-allyl-;4-Methyl-<em>N</em>-2-propen-1-ylbenzenesulfonamide;<em>N</em>-Allyl-<em>p</em>-toluenesulfonamide;<em>N</em>-Allyl-4-methylbenzenesulfonamide;<em>N</em>-Allyl-<em>p</em>-tolylsulfonamide;<em>N</em>-Tosylallylamine;4-Methyl-<em>N</em>-2-propenylbenzenesulfonamide;NSC 169195;<em>N</em>-Allyl-<em>p</em>-tosylamide",
    "duplicated_cas_no": "",
    "SMILES": "S(NCC=C)(=O)(=O)C1=CC=C(C)C=C1",
    "meta_data": {
        "InChI": "InChI=1S/C10H13NO2S/c1-3-8-11-14(12,13)10-6-4-9(2)5-7-10/h3-7,11H,1,8H2,2H3",
        "InChIKey": null,
        "Canonical SMILES": "O=S(=O)(NCC=C)C1=CC=C(C=C1)C",
        "Molecular Formula": "C<sub>10</sub>H<sub>13</sub>NO<sub>2</sub>S",
        "Molecular Mass": "211.28",
        "Melting Point": "64-65 °C"
    }
}