{
    "cas_no": "23995-88-2",
    "key_name": "1-(1-Methyl-4-piperidinyl)piperazine",
    "cn_name": "1-(1-甲基哌啶-4-基)哌嗪;",
    "alternate_name": "Piperazine, 1-(1-methyl-4-piperidinyl)-;Piperazine, 1-(1-methyl-4-piperidyl)-;1-(1-Methyl-4-piperidinyl)piperazine;1-(<em>N</em>-Methylpiperidin-4-yl)piperazine",
    "duplicated_cas_no": "",
    "SMILES": "CN1CCC(CC1)N2CCNCC2",
    "meta_data": {
        "InChI": "InChI=1S/C10H21N3/c1-12-6-2-10(3-7-12)13-8-4-11-5-9-13/h10-11H,2-9H2,1H3",
        "InChIKey": null,
        "Canonical SMILES": "N1CCN(CC1)C2CCN(C)CC2",
        "Molecular Formula": "C<sub>10</sub>H<sub>21</sub>N<sub>3</sub>",
        "Molecular Mass": "183.29",
        "Boiling Point": "102-110 °C @ Press: 0.1 Torr"
    }
}