{
    "cas_no": "1583-58-0",
    "key_name": "2,4-Difluorobenzoic acid",
    "cn_name": "2,4-二氟苯甲酸;",
    "alternate_name": "Benzoic acid, 2,4-difluoro-;2,4-Difluorobenzoic acid;NSC 10312",
    "duplicated_cas_no": "",
    "SMILES": "C(O)(=O)C1=C(F)C=C(F)C=C1",
    "meta_data": {
        "InChI": "InChI=1S/C7H4F2O2/c8-4-1-2-5(7(10)11)6(9)3-4/h1-3H,(H,10,11)",
        "InChIKey": null,
        "Canonical SMILES": "O=C(O)C1=CC=C(F)C=C1F",
        "Molecular Formula": "C<sub>7</sub>H<sub>4</sub>F<sub>2</sub>O<sub>2</sub>",
        "Molecular Mass": "158.10",
        "Melting Point": "189 °C"
    }
}