{
    "cas_no": "2836-03-5",
    "key_name": "<em>N</em><sup>1</sup>,<em>N</em><sup>1</sup>-Dimethyl-1,2-benzenediamine",
    "cn_name": "2-氨基-N,N-二甲基苯胺; N,N-二甲基邻苯二胺;",
    "alternate_name": "1,2-Benzenediamine, <em>N</em><sup>1</sup>,<em>N</em><sup>1</sup>-dimethyl-;<em>o</em>-Phenylenediamine, <em>N</em>,<em>N</em>-dimethyl-;1,2-Benzenediamine, <em>N</em>,<em>N</em>-dimethyl-;<em>N</em><sup>1</sup>,<em>N</em><sup>1</sup>-Dimethyl-1,2-benzenediamine;<em>o</em>-(Dimethylamino)aniline;<em>N</em>,<em>N</em>-Dimethyl-1,2-benzenediamine;2-(Dimethylamino)aniline;<em>N</em>,<em>N</em>-Dimethyl-<em>o</em>-phenylenediamine;2-Amino-<em>N</em>,<em>N</em>-dimethylaniline;1-Amino-2-(dimethylamino)benzene;2-(<em>N</em>,<em>N</em>-Dimethylamino)aniline;1-<em>N</em>,1-<em>N</em>-Dimethylbenzene-1,2-diamine;2-<em>N</em>,2-<em>N</em>-Dimethylbenzene-1,2-diamine",
    "duplicated_cas_no": "",
    "SMILES": "N(C)(C)C1=C(N)C=CC=C1",
    "meta_data": {
        "InChI": "InChI=1S/C8H12N2/c1-10(2)8-6-4-3-5-7(8)9/h3-6H,9H2,1-2H3",
        "InChIKey": null,
        "Canonical SMILES": "NC=1C=CC=CC1N(C)C",
        "Molecular Formula": "C<sub>8</sub>H<sub>12</sub>N<sub>2</sub>",
        "Molecular Mass": "136.19",
        "Boiling Point": "218 °C",
        "Density": "1.0749 g/cm³ @ Temp: 25 °C"
    }
}