{
    "cas_no": "461-17-6",
    "key_name": "1,1,1-Trifluoro-4-iodobutane",
    "cn_name": "4,4,4-三氟-1-碘丁烷;1,1,1-三氟-4-碘丙烷;",
    "alternate_name": "Butane, 1,1,1-trifluoro-4-iodo-;1,1,1-Trifluoro-4-iodobutane;4,4,4-Trifluorobutyl iodide;1-Iodo-4,4,4-Trifluorobutane;4,4,4-Trifluoro-1-iodobutane;4-Iodo-1,1,1-trifluorobutane",
    "duplicated_cas_no": "",
    "SMILES": "C(C(F)(F)F)CCI",
    "meta_data": {
        "InChI": "InChI=1S/C4H6F3I/c5-4(6,7)2-1-3-8/h1-3H2",
        "InChIKey": null,
        "Canonical SMILES": "FC(F)(F)CCCI",
        "Molecular Formula": "C<sub>4</sub>H<sub>6</sub>F<sub>3</sub>I",
        "Molecular Mass": "237.99",
        "Boiling Point": "126-127 °C",
        "Density": "1.851 g/cm³ @ Temp: 20 °C"
    }
}