{
    "cas_no": "93701-32-7",
    "key_name": "1,3-Dibromo-2-(bromomethyl)benzene",
    "cn_name": null,
    "alternate_name": "Benzene, 1,3-dibromo-2-(bromomethyl)-;1,3-Dibromo-2-(bromomethyl)benzene;2,6-Dibromobenzyl bromide",
    "duplicated_cas_no": "",
    "SMILES": "C(Br)C1=C(Br)C=CC=C1Br",
    "meta_data": {
        "InChI": "InChI=1S/C7H5Br3/c8-4-5-6(9)2-1-3-7(5)10/h1-3H,4H2",
        "InChIKey": null,
        "Canonical SMILES": "BrC1=CC=CC(Br)=C1CBr",
        "Molecular Formula": "C<sub>7</sub>H<sub>5</sub>Br<sub>3</sub>",
        "Molecular Mass": "328.83",
        "Melting Point": "80-81 °C"
    }
}