{
    "cas_no": "6318-51-0",
    "key_name": "(4-Chlorophenyl)-2-pyridinylmethanone",
    "cn_name": null,
    "alternate_name": "Methanone, (4-chlorophenyl)-2-pyridinyl-;Ketone, <em>p</em>-chlorophenyl 2-pyridyl;(4-Chlorophenyl)-2-pyridinylmethanone;2-(<em>p</em>-Chlorobenzoyl)pyridine;2-(4-Chlorobenzoyl)pyridine;NSC 31646",
    "duplicated_cas_no": "",
    "SMILES": "C(=O)(C1=CC=C(Cl)C=C1)C2=CC=CC=N2",
    "meta_data": {
        "InChI": "InChI=1S/C12H8ClNO/c13-10-6-4-9(5-7-10)12(15)11-3-1-2-8-14-11/h1-8H",
        "InChIKey": null,
        "Canonical SMILES": "O=C(C1=NC=CC=C1)C2=CC=C(Cl)C=C2",
        "Molecular Formula": "C<sub>12</sub>H<sub>8</sub>ClNO",
        "Molecular Mass": "217.65",
        "Boiling Point": "160 °C @ Press: 0.6 Torr",
        "Melting Point": "64 °C"
    }
}