{
    "cas_no": "14930-96-2",
    "key_name": "Cytochalasin B",
    "cn_name": "细胞松弛素 B;",
    "alternate_name": "2<em>H</em>-Oxacyclotetradecino[2,3-<em>d</em>]isoindole-2,18(5<em>H</em>)-dione, 6,7,8,9,10,12a,13,14,15,15a,16,17-dodecahydro-5,13-dihydroxy-9,15-dimethyl-14-methylene-16-(phenylmethyl)-, (3<em>E</em>,5<em>R</em>,9<em>R</em>,11<em>E</em>,12a<em>S</em>,13<em>S</em>,15<em>S</em>,15a<em>S</em>,16<em>S</em>,18a<em>S</em>)-;2<em>H</em>-Oxacyclotetradecino[2,3-<em>d</em>]isoindole-2,18(5<em>H</em>)-dione, 16-benzyl-6,7,8,9,10,12a,13,14,15,15a,16,17-dodecahydro-5,13-dihydroxy-9,15-dimethyl-14-methylene-, (<em>E</em>,<em>E</em>)-(5<em>R</em>,9<em>R</em>,12a<em>S</em>,13<em>S</em>,15<em>S</em>,15a<em>S</em>,16<em>S</em>,18a<em>S</em>)-;24-Oxa[14]cytochalasa-6(12),13,21-triene-1,23-dione, 7,20-dihydroxy-16-methyl-10-phenyl-, (7<em>S</em>,13<em>E</em>,16<em>R</em>,20<em>R</em>,21<em>E</em>)-;(3<em>E</em>,5<em>R</em>,9<em>R</em>,11<em>E</em>,12a<em>S</em>,13<em>S</em>,15<em>S</em>,15a<em>S</em>,16<em>S</em>,18a<em>S</em>)-6,7,8,9,10,12a,13,14,15,15a,16,17-Dodecahydro-5,13-dihydroxy-9,15-dimethyl-14-methylene-16-(phenylmethyl)-2<em>H</em>-oxacyclotetradecino[2,3-<em>d</em>]isoindole-2,18(5<em>H</em>)-dione;Cytochalasin B;Phomin;2<em>H</em>-Oxacyclotetradecino[2,3-<em>d</em>]isoindole-2,18(5<em>H</em>)-dione, 6,7,8,9,10,12a,13,14,15,15a,16,17-dodecahydro-5,13-dihydroxy-9,15-dimethyl-14-methylene-16-(phenylmethyl)-, [5<em>R</em>-(3<em>E</em>,5<em>R</em>*,9<em>R</em>*,11<em>E</em>,12a<em>S</em>*,13<em>S</em>*,15<em>S</em>*,15a<em>S</em>*,16<em>S</em>*,18a<em>S</em>*)]-;NSC 107658;MeSH ID: D003571",
    "duplicated_cas_no": "11032-95-4;11042-65-2;16006-03-4;21476-12-0",
    "SMILES": "",
    "meta_data": {
        "InChI": "",
        "InChIKey": null,
        "Canonical SMILES": "",
        "Molecular Formula": "C<sub>29</sub>H<sub>37</sub>NO<sub>5</sub>",
        "Molecular Mass": "479.61",
        "Melting Point": "218-221 °C"
    }
}