{
    "cas_no": "93-25-4",
    "key_name": "2-Methoxyphenylacetic acid",
    "cn_name": "2-甲氧基苯乙酸;",
    "alternate_name": "Benzeneacetic acid, 2-methoxy-;Acetic acid, (<em>o</em>-methoxyphenyl)-;2-Methoxybenzeneacetic acid;(<em>o</em>-Methoxyphenyl)acetic acid;2-Methoxyphenylacetic acid;<em>o</em>-Anisylacetic acid;NSC 110708;NSC 16257;[2-(Methyloxy)phenyl]acetic acid;<em>o</em>-Methoxybenzeneacetic acid",
    "duplicated_cas_no": "",
    "SMILES": "C(C(O)=O)C1=C(OC)C=CC=C1",
    "meta_data": {
        "InChI": "InChI=1S/C9H10O3/c1-12-8-5-3-2-4-7(8)6-9(10)11/h2-5H,6H2,1H3,(H,10,11)",
        "InChIKey": null,
        "Canonical SMILES": "O=C(O)CC=1C=CC=CC1OC",
        "Molecular Formula": "C<sub>9</sub>H<sub>10</sub>O<sub>3</sub>",
        "Molecular Mass": "166.17",
        "Melting Point": "124 °C"
    }
}