{
    "cas_no": "318276-72-1",
    "key_name": "6-Bromocinnoline",
    "cn_name": "6-溴噌啉;",
    "alternate_name": "Cinnoline, 6-bromo-;6-Bromocinnoline",
    "duplicated_cas_no": "",
    "SMILES": "BrC1=CC2=C(C=C1)N=NC=C2",
    "meta_data": {
        "InChI": "InChI=1S/C8H5BrN2/c9-7-1-2-8-6(5-7)3-4-10-11-8/h1-5H",
        "InChIKey": null,
        "Canonical SMILES": "BrC1=CC=C2N=NC=CC2=C1",
        "Molecular Formula": "C<sub>8</sub>H<sub>5</sub>BrN<sub>2</sub>",
        "Molecular Mass": "209.04",
        "Melting Point": "129-130 °C"
    }
}