{
    "cas_no": "5027-32-7",
    "key_name": "3,4-Diacetyl-2,5-hexanedione",
    "cn_name": "3,4-二乙酰基-2,5-己二酮;3,4-二乙酰基-2,5-己二酮;",
    "alternate_name": "2,5-Hexanedione, 3,4-diacetyl-;3,4-Diacetyl-2,5-hexanedione;Bis(acetylacetone);1,1,2,2-Tetraacetylethane;Tetraacetylethane;3,4-Diacetylhexane-2,5-dione;NSC 35137;3,4-Diacetyl-2,5-dioxohexane",
    "duplicated_cas_no": "",
    "SMILES": "C(C(C(C)=O)C(C)=O)(C(C)=O)C(C)=O",
    "meta_data": {
        "InChI": "InChI=1S/C10H14O4/c1-5(11)9(6(2)12)10(7(3)13)8(4)14/h9-10H,1-4H3",
        "InChIKey": null,
        "Canonical SMILES": "O=C(C)C(C(=O)C)C(C(=O)C)C(=O)C",
        "Molecular Formula": "C<sub>10</sub>H<sub>14</sub>O<sub>4</sub>",
        "Molecular Mass": "198.22",
        "Boiling Point": "130-132 °C @ Press: 1 Torr",
        "Melting Point": "188-191 °C"
    }
}