{
    "cas_no": "1516-37-6",
    "key_name": "(2-Methoxyphenyl)thiourea",
    "cn_name": "2-甲氧基苯基硫脲;1-(2-甲氧苯基)-2-硫脲;",
    "alternate_name": "Thiourea, <em>N</em>-(2-methoxyphenyl)-;Urea, 1-(<em>o</em>-methoxyphenyl)-2-thio-;Thiourea, (2-methoxyphenyl)-;<em>N</em>-(2-Methoxyphenyl)thiourea;(<em>o</em>-Methoxyphenyl)thiourea;<em>N</em>-(<em>o</em>-Methoxyphenyl)thiourea;1-(<em>o</em>-Methoxyphenyl)-2-thiourea;1-(<em>o</em>-Methoxyphenyl)thiourea;(2-Methoxyphenyl)thiourea;1-(2-Methoxyphenyl)thiourea;2-Thioureidoanisole;NSC 523842;1-(2-Methoxyphenyl)-2-thiourea",
    "duplicated_cas_no": "",
    "SMILES": "N(C(N)=S)C1=C(OC)C=CC=C1",
    "meta_data": {
        "InChI": "InChI=1S/C8H10N2OS/c1-11-7-5-3-2-4-6(7)10-8(9)12/h2-5H,1H3,(H3,9,10,12)",
        "InChIKey": null,
        "Canonical SMILES": "S=C(N)NC=1C=CC=CC1OC",
        "Molecular Formula": "C<sub>8</sub>H<sub>10</sub>N<sub>2</sub>OS",
        "Molecular Mass": "182.24",
        "Melting Point": "156 °C"
    }
}