{
    "cas_no": "122-04-3",
    "key_name": "4-Nitrobenzoyl chloride",
    "cn_name": "4-硝基苯甲酰氯;对硝基苯甲酰氯;",
    "alternate_name": "Benzoyl chloride, 4-nitro-;Benzoyl chloride, <em>p</em>-nitro-;4-Nitrobenzoyl chloride;<em>p</em>-Nitrobenzoyl chloride;<em>p</em>-Nitrobenzoic acid chloride;4-Nitrobenzoic acid chloride;NSC 5381;4-Nitrobenzenecarboxylic chloride",
    "duplicated_cas_no": "",
    "SMILES": "C(Cl)(=O)C1=CC=C(N(=O)=O)C=C1",
    "meta_data": {
        "InChI": "InChI=1S/C7H4ClNO3/c8-7(10)5-1-3-6(4-2-5)9(11)12/h1-4H",
        "InChIKey": null,
        "Canonical SMILES": "O=C(Cl)C1=CC=C(C=C1)N(=O)=O",
        "Molecular Formula": "C<sub>7</sub>H<sub>4</sub>ClNO<sub>3</sub>",
        "Molecular Mass": "185.56",
        "Boiling Point": "155 °C @ Press: 20 Torr",
        "Melting Point": "75 °C"
    }
}