{
    "cas_no": "67227-57-0",
    "key_name": "Fenoldopam mesylate",
    "cn_name": "甲磺酸非诺多泮;6-氯-2,3,4,5-四氢-1-(4-羟苯基)-1H-3-苯并氮杂卓-7,8-二醇甲磺酸盐;",
    "alternate_name": "1<em>H</em>-3-Benzazepine-7,8-diol, 6-chloro-2,3,4,5-tetrahydro-1-(4-hydroxyphenyl)-, methanesulfonate (1:1);1<em>H</em>-3-Benzazepine-7,8-diol, 6-chloro-2,3,4,5-tetrahydro-1-(4-hydroxyphenyl)-, methanesulfonate (salt);SKF 82526J;Fenoldopam mesylate;Fenoldopam methanesulfonate;Corlopam;Fenoldopam monomethanesulfonate",
    "duplicated_cas_no": "87900-91-2",
    "SMILES": "ClC1=C2C(C(CNCC2)C3=CC=C(O)C=C3)=CC(O)=C1O.S(C)(=O)(=O)O",
    "meta_data": {
        "InChI": "InChI=1S/C16H16ClNO3.CH4O3S/c17-15-11-5-6-18-8-13(9-1-3-10(19)4-2-9)12(11)7-14(20)16(15)21;1-5(2,3)4/h1-4,7,13,18-21H,5-6,8H2;1H3,(H,2,3,4)",
        "InChIKey": null,
        "Canonical SMILES": "O=S(=O)(O)C.ClC=1C(O)=C(O)C=C2C1CCNCC2C3=CC=C(O)C=C3",
        "Molecular Formula": "C<sub>16</sub>H<sub>16</sub>ClNO<sub>3</sub>.CH<sub>4</sub>O<sub>3</sub>S",
        "Molecular Mass": "",
        "Melting Point": "274 °C (decomp)"
    }
}