{
    "cas_no": "3054-47-5",
    "key_name": "<em>S</em>-Acetylglutathione",
    "cn_name": "S-乙酰- L-谷胱甘肽;S-乙酰-L-谷胱甘肽;",
    "alternate_name": "Glycine, <span class=\"text-smallcaps\">L</smallcap>-γ-glutamyl-<em>S</em>-acetyl-<smallcap>L</span>-cysteinyl-;Glutathione, acetate (ester);Glycine, <em>N</em>-(<em>S</em>-acetyl-<em>N</em>-<span class=\"text-smallcaps\">L</smallcap>-γ-glutamyl-<smallcap>L</span>-cysteinyl)-;Glutathione, <em>S</em>-acetate;<span class=\"text-smallcaps\">L</smallcap>-γ-Glutamyl-<em>S</em>-acetyl-<smallcap>L</span>-cysteinylglycine;<em>S</em>-Acetylglutathione",
    "duplicated_cas_no": "4754-38-5",
    "SMILES": "[C@@H](NC(CC[C@@H](C(O)=O)N)=O)(C(NCC(O)=O)=O)CSC(C)=O",
    "meta_data": {
        "InChI": "InChI=1S/C12H19N3O7S/c1-6(16)23-5-8(11(20)14-4-10(18)19)15-9(17)3-2-7(13)12(21)22/h7-8H,2-5,13H2,1H3,(H,14,20)(H,15,17)(H,18,19)(H,21,22)/t7-,8-/m0/s1",
        "InChIKey": null,
        "Canonical SMILES": "O=C(O)CNC(=O)C(NC(=O)CCC(N)C(=O)O)CSC(=O)C",
        "Molecular Formula": "C<sub>12</sub>H<sub>19</sub>N<sub>3</sub>O<sub>7</sub>S",
        "Molecular Mass": "349.36",
        "Melting Point": "202-203 °C"
    }
}