{
    "cas_no": "959-26-2",
    "key_name": "Bis(2-hydroxyethyl) terephthalate",
    "cn_name": null,
    "alternate_name": "1,4-Benzenedicarboxylic acid, 1,4-bis(2-hydroxyethyl) ester;Terephthalic acid, bis(2-hydroxyethyl) ester;1,4-Benzenedicarboxylic acid, bis(2-hydroxyethyl) ester;Ethylene glycol, terephthalate (2:1);Bis(2-hydroxyethyl) terephthalate;Bis(β-hydroxyethyl) terephthalate;Bis(hydroxyethyl) terephthalate;Bis(ethylene glycol) terephthalate;Terephthalic acid diethylene glycol ester;Nisso BHET;BHET-N;BHET(J);Terephthalic acid diglycol ester;Bis(2-hydroxyethyl) 1,4-benzenedicarboxylate;BHET;Di-2-hydroxyethyl terephthalate;B 419409",
    "duplicated_cas_no": "51512-73-3;66446-15-9",
    "SMILES": "C(OCCO)(=O)C1=CC=C(C(OCCO)=O)C=C1",
    "meta_data": {
        "InChI": "InChI=1S/C12H14O6/c13-5-7-17-11(15)9-1-2-10(4-3-9)12(16)18-8-6-14/h1-4,13-14H,5-8H2",
        "InChIKey": null,
        "Canonical SMILES": "O=C(OCCO)C1=CC=C(C=C1)C(=O)OCCO",
        "Molecular Formula": "C<sub>12</sub>H<sub>14</sub>O<sub>6</sub>",
        "Molecular Mass": "254.24",
        "Melting Point": "110 °C"
    }
}