{
    "cas_no": "2004-39-9",
    "key_name": "1-Heptacosanol",
    "cn_name": null,
    "alternate_name": "1-Heptacosanol;Heptacosanol;<em>n</em>-Heptacosanol;NSC 53829",
    "duplicated_cas_no": "",
    "SMILES": "C(CCCCCCCCCCCCCO)CCCCCCCCCCCCC",
    "meta_data": {
        "InChI": "InChI=1S/C27H56O/c1-2-3-4-5-6-7-8-9-10-11-12-13-14-15-16-17-18-19-20-21-22-23-24-25-26-27-28/h28H,2-27H2,1H3",
        "InChIKey": null,
        "Canonical SMILES": "OCCCCCCCCCCCCCCCCCCCCCCCCCCC",
        "Molecular Formula": "C<sub>27</sub>H<sub>56</sub>O",
        "Molecular Mass": "396.73",
        "Melting Point": "81-83 °C"
    }
}