{
    "cas_no": "57963-11-8",
    "key_name": "4,5-Dimethyl-2-pyridinamine",
    "cn_name": null,
    "alternate_name": "2-Pyridinamine, 4,5-dimethyl-;4,5-Dimethyl-2-pyridinamine;2-Amino-4,5-dimethylpyridine;4,5-Dimethylpyridin-2-amine",
    "duplicated_cas_no": "",
    "SMILES": "CC=1C(C)=CN=C(N)C1",
    "meta_data": {
        "InChI": "InChI=1S/C7H10N2/c1-5-3-7(8)9-4-6(5)2/h3-4H,1-2H3,(H2,8,9)",
        "InChIKey": null,
        "Canonical SMILES": "N=1C=C(C(=CC1N)C)C",
        "Molecular Formula": "C<sub>7</sub>H<sub>10</sub>N<sub>2</sub>",
        "Molecular Mass": "122.17",
        "Melting Point": "113-114 °C"
    }
}