{
    "cas_no": "211053-50-8",
    "key_name": "(3<em>S</em>)-3-Morpholinemethanol",
    "cn_name": null,
    "alternate_name": "3-Morpholinemethanol, (3<em>S</em>)-;(3<em>S</em>)-3-Morpholinemethanol;(<em>S</em>)-3-Hydroxymethylmorpholine;(3S)-3-(Hydroxymethyl)morpholine;(<em>S</em>)-3-Morpholinemethanol;[(3S)-Morpholin-3-yl)methanol",
    "duplicated_cas_no": "",
    "SMILES": "C(O)[C@H]1COCCN1",
    "meta_data": {
        "InChI": "InChI=1S/C5H11NO2/c7-3-5-4-8-2-1-6-5/h5-7H,1-4H2/t5-/m0/s1",
        "InChIKey": null,
        "Canonical SMILES": "OCC1NCCOC1",
        "Molecular Formula": "C<sub>5</sub>H<sub>11</sub>NO<sub>2</sub>",
        "Molecular Mass": "117.15",
        "Melting Point": "112 °C"
    }
}