{
    "cas_no": "821-41-0",
    "key_name": "5-Hexen-1-ol",
    "cn_name": "5-己烯基-1-醇;",
    "alternate_name": "5-Hexen-1-ol;1-Hexen-6-ol;6-Hydroxy-1-hexene;5-Hexene-1-ol",
    "duplicated_cas_no": "97915-98-5",
    "SMILES": "C(CC=C)CCO",
    "meta_data": {
        "InChI": "InChI=1S/C6H12O/c1-2-3-4-5-6-7/h2,7H,1,3-6H2",
        "InChIKey": null,
        "Canonical SMILES": "OCCCCC=C",
        "Molecular Formula": "C<sub>6</sub>H<sub>12</sub>O",
        "Molecular Mass": "100.16",
        "Boiling Point": "155.5-156.0 °C @ Press: 718 Torr",
        "Density": "0.8453 g/cm³ @ Temp: 20 °C"
    }
}