{
    "cas_no": "1483-73-4",
    "key_name": "Iodonium, diphenyl-, bromide (1:1)",
    "cn_name": null,
    "alternate_name": "Iodonium, diphenyl-, bromide (1:1);Iodonium, diphenyl-, bromide;Diphenyliodonium bromide;NSC 8980;bromo(diphenyl)-λ 3-iodane",
    "duplicated_cas_no": "17267-17-3;409326-65-4;883497-37-8",
    "SMILES": "[I+](C1=CC=CC=C1)C2=CC=CC=C2.[Br-]",
    "meta_data": {
        "InChI": "InChI=1S/C12H10I.BrH/c1-3-7-11(8-4-1)13-12-9-5-2-6-10-12;/h1-10H;1H/q+1;/p-1",
        "InChIKey": null,
        "Canonical SMILES": "[Br-].[I+](C=1C=CC=CC1)C=2C=CC=CC2",
        "Molecular Formula": "C<sub>12</sub>H<sub>10</sub>I.Br",
        "Molecular Mass": "",
        "Melting Point": "208 °C (decomp)"
    }
}