{
    "cas_no": "20831-76-9",
    "key_name": "Gentiopicroside",
    "cn_name": "龙胆苦苷;龙胆苦甙;",
    "alternate_name": "1<em>H</em>,3<em>H</em>-Pyrano[3,4-<em>c</em>]pyran-1-one, 5-ethenyl-6-(β-<span class=\"text-smallcaps\">D</span>-glucopyranosyloxy)-5,6-dihydro-, (5<em>R</em>,6<em>S</em>)-;Gentiopicrin;Gentiopicroside;1<em>H</em>,3<em>H</em>-Pyrano[3,4-<em>c</em>]pyran-1-one, 5-ethenyl-6-(β-<span class=\"text-smallcaps\">D</span>-glucopyranosyloxy)-5,6-dihydro-, (5<em>R</em>-<em>trans</em>)-;(5<em>R</em>,6<em>S</em>)-5-Ethenyl-6-(β-<span class=\"text-smallcaps\">D</span>-glucopyranosyloxy)-5,6-dihydro-1<em>H</em>,3<em>H</em>-pyrano[3,4-<em>c</em>]pyran-1-one;NSC 606402",
    "duplicated_cas_no": "11034-92-7;24101-46-0;28629-73-4;937026-79-4",
    "SMILES": "C(=C)[C@@H]1C=2C(=CO[C@H]1O[C@@H]3O[C@H](CO)[C@@H](O)[C@H](O)[C@H]3O)C(=O)OCC2",
    "meta_data": {
        "InChI": "InChI=1S/C16H20O9/c1-2-7-8-3-4-22-14(21)9(8)6-23-15(7)25-16-13(20)12(19)11(18)10(5-17)24-16/h2-3,6-7,10-13,15-20H,1,4-5H2/t7-,10-,11-,12+,13-,15+,16+/m1/s1",
        "InChIKey": null,
        "Canonical SMILES": "O=C1OCC=C2C1=COC(OC3OC(CO)C(O)C(O)C3O)C2C=C",
        "Molecular Formula": "C<sub>16</sub>H<sub>20</sub>O<sub>9</sub>",
        "Molecular Mass": "356.32",
        "Melting Point": "191 °C"
    }
}