{
    "cas_no": "2446-69-7",
    "key_name": "4-<em>n</em>-Hexylphenol",
    "cn_name": "4-己基苯酚;对己基苯酚;",
    "alternate_name": "Phenol, 4-hexyl-;Phenol, <em>p</em>-hexyl-;4-Hexylphenol;<em>p</em>-Hexylphenol;4-<em>n</em>-Hexylphenol;<em>p</em>-<em>n</em>-Hexylphenol;<em>p</em>-Hydroxy-<em>n</em>-hexylbenzene",
    "duplicated_cas_no": "",
    "SMILES": "C(CCCCC)C1=CC=C(O)C=C1",
    "meta_data": {
        "InChI": "InChI=1S/C12H18O/c1-2-3-4-5-6-11-7-9-12(13)10-8-11/h7-10,13H,2-6H2,1H3",
        "InChIKey": null,
        "Canonical SMILES": "OC1=CC=C(C=C1)CCCCCC",
        "Molecular Formula": "C<sub>12</sub>H<sub>18</sub>O",
        "Molecular Mass": "178.27",
        "Boiling Point": "155 °C",
        "Melting Point": "29 °C",
        "Density": "0.9628 g/cm³ @ Temp: 20 °C"
    }
}