{
    "cas_no": "534-85-0",
    "key_name": "<em>N</em>-Phenyl-<em>o</em>-phenylenediamine",
    "cn_name": "邻氨基二苯胺;",
    "alternate_name": "1,2-Benzenediamine, <em>N</em><sup>1</sup>-phenyl-;<em>o</em>-Phenylenediamine, <em>N</em>-phenyl-;1,2-Benzenediamine, <em>N</em>-phenyl-;<em>N</em><sup>1</sup>-Phenyl-1,2-benzenediamine;C.I. 50005;<em>N</em>-Phenyl-<em>o</em>-phenylenediamine;<em>o</em>-Semidine;<em>o</em>-Aminodiphenylamine;2-Aminodiphenylamine;<em>N</em>-Phenyl-1,2-benzenediamine;2-Anilinoaniline;<em>N</em>-Phenyl-1,2-phenylenediamine;<em>N</em>-Phenyl-1,2-diaminobenzene;NSC 18731;NSC 33960;<em>N</em>-Phenyl-<em>N</em>-(2-aminophenyl)amine;2-(<em>N</em>-Phenylamino)aniline;2-(Phenylamino)aniline;<em>N</em>-Phenyl-<em>ortho</em>-phenylenediamine;2-Amino-<em>N</em>-phenylaniline;<em>N</em>′-Phenylbenzene-1,2-diamine;N1-Phenylbenzene-1,2-diamine;1-<em>N</em>-Phenylbenzene-1,2-diamine;2-<em>N</em>-Phenylbenzene-1,2-diamine",
    "duplicated_cas_no": "",
    "SMILES": "N(C1=C(N)C=CC=C1)C2=CC=CC=C2",
    "meta_data": {
        "InChI": "InChI=1S/C12H12N2/c13-11-8-4-5-9-12(11)14-10-6-2-1-3-7-10/h1-9,14H,13H2",
        "InChIKey": null,
        "Canonical SMILES": "NC=1C=CC=CC1NC=2C=CC=CC2",
        "Molecular Formula": "C<sub>12</sub>H<sub>12</sub>N<sub>2</sub>",
        "Molecular Mass": "184.24",
        "Boiling Point": "313 °C",
        "Melting Point": "79.5 °C"
    }
}