{
    "cas_no": "17874-79-2",
    "key_name": "5-Methyl 2,5-pyridinedicarboxylate",
    "cn_name": "5-(甲氧羰基)-2-吡啶羧酸;",
    "alternate_name": "2,5-Pyridinedicarboxylic acid, 5-methyl ester;5-Methyl 2,5-pyridinedicarboxylate;2-Carboxy-5-(methoxycarbonyl)pyridine;Methyl 2-carboxypyridine-5-carboxylate;5-Methoxycarbonylpyridine-2-carboxylic acid;NSC 236641;5-Carbomethoxypyridine-2-carboxylic acid;5-(Methoxycarbonyl)picolinic acid",
    "duplicated_cas_no": "",
    "SMILES": "C(OC)(=O)C=1C=CC(C(O)=O)=NC1",
    "meta_data": {
        "InChI": "InChI=1S/C8H7NO4/c1-13-8(12)5-2-3-6(7(10)11)9-4-5/h2-4H,1H3,(H,10,11)",
        "InChIKey": null,
        "Canonical SMILES": "O=C(O)C1=NC=C(C=C1)C(=O)OC",
        "Molecular Formula": "C<sub>8</sub>H<sub>7</sub>NO<sub>4</sub>",
        "Molecular Mass": "181.15",
        "Melting Point": "175.5-180 °C"
    }
}