{
    "cas_no": "6305-04-0",
    "key_name": "2-Chloro-1-(4-hydroxyphenyl)ethanone",
    "cn_name": "&alpha;-氯代对羟基苯乙酮;",
    "alternate_name": "Ethanone, 2-chloro-1-(4-hydroxyphenyl)-;Acetophenone, 2-chloro-4′-hydroxy-;2-Chloro-1-(4-hydroxyphenyl)ethanone;ω-Chloro-4-hydroxyacetophenone;<em>p</em>-(Chloroacetyl)phenol;4′-Hydroxy-2-chloroacetophenone;2-Chloro-4′-hydroxyacetophenone;4-Hydroxy-α-chloroacetophenone;4-Hydroxyphenacyl chloride;<em>p</em>-Hydroxyphenacyl chloride;Chlorophenacyle;NSC 41671;2-Chloro-1-(4-hydroxyphenyl)ethan-1-one",
    "duplicated_cas_no": "",
    "SMILES": "C(CCl)(=O)C1=CC=C(O)C=C1",
    "meta_data": {
        "InChI": "InChI=1S/C8H7ClO2/c9-5-8(11)6-1-3-7(10)4-2-6/h1-4,10H,5H2",
        "InChIKey": null,
        "Canonical SMILES": "O=C(C1=CC=C(O)C=C1)CCl",
        "Molecular Formula": "C<sub>8</sub>H<sub>7</sub>ClO<sub>2</sub>",
        "Molecular Mass": "170.59",
        "Melting Point": "145-146 °C"
    }
}