{
    "cas_no": "13116-53-5",
    "key_name": "1,2,2,3-Tetrachloropropane",
    "cn_name": "1,2,2,3-四氯丙烷;四氯丙烷;",
    "alternate_name": "Propane, 1,2,2,3-tetrachloro-;1,2,2,3-Tetrachloropropane;HCC 250AA",
    "duplicated_cas_no": "",
    "SMILES": "C(CCl)(CCl)(Cl)Cl",
    "meta_data": {
        "InChI": "InChI=1S/C3H4Cl4/c4-1-3(6,7)2-5/h1-2H2",
        "InChIKey": null,
        "Canonical SMILES": "ClCC(Cl)(Cl)CCl",
        "Molecular Formula": "C<sub>3</sub>H<sub>4</sub>Cl<sub>4</sub>",
        "Molecular Mass": "181.88",
        "Boiling Point": "165 °C",
        "Density": "1.500 g/cm³ @ Temp: 18 °C"
    }
}