{
    "cas_no": "590-14-7",
    "key_name": "1-Bromo-1-propene",
    "cn_name": "1-溴-1-丙烯;1-丙烯基溴;",
    "alternate_name": "1-Propene, 1-bromo-;Propene, 1-bromo-;1-Bromo-1-propene;Propenyl bromide;1-Bromopropene;1-Propenyl bromide;1-Bromopropylene;3-Allyl bromide",
    "duplicated_cas_no": "",
    "SMILES": "C(=CC)Br",
    "meta_data": {
        "InChI": "InChI=1S/C3H5Br/c1-2-3-4/h2-3H,1H3",
        "InChIKey": null,
        "Canonical SMILES": "BrC=CC",
        "Molecular Formula": "C<sub>3</sub>H<sub>5</sub>Br",
        "Molecular Mass": "120.98",
        "Boiling Point": "58-60 °C",
        "Density": "1.4181 g/cm³ @ Temp: 20 °C"
    }
}