{
    "cas_no": "1121-66-0",
    "key_name": "2-Cyclohepten-1-one",
    "cn_name": "2-环庚烯-1-酮;",
    "alternate_name": "2-Cyclohepten-1-one;Tropilene;2-Cycloheptenone;NSC 155333",
    "duplicated_cas_no": "",
    "SMILES": "O=C1CCCCC=C1",
    "meta_data": {
        "InChI": "InChI=1S/C7H10O/c8-7-5-3-1-2-4-6-7/h3,5H,1-2,4,6H2",
        "InChIKey": null,
        "Canonical SMILES": "O=C1C=CCCCC1",
        "Molecular Formula": "C<sub>7</sub>H<sub>10</sub>O",
        "Molecular Mass": "110.15",
        "Boiling Point": "37.5 °C @ Press: 0.6 Torr"
    }
}