{
    "cas_no": "51-98-9",
    "key_name": "Norethisterone acetate",
    "cn_name": "炔诺酮醋酸酯;醋酸炔诺酮;",
    "alternate_name": "19-Norpregn-4-en-20-yn-3-one, 17-(acetyloxy)-, (17α)-;19-Nor-17α-pregn-4-en-20-yn-3-one, 17-hydroxy-, acetate;(17α)-17-(Acetyloxy)-19-norpregn-4-en-20-yn-3-one;17-Acetoxy-19-nor-17α-pregn-4-en-20-yn-3-one;17α-Ethinyl-19-nortestosterone acetate;17β-Hydroxy-19-nor-17α-pregn-4-en-20-yn-3-one acetate;Norethindrone acetate;Norethisteron acetate;Norethisterone acetate;Norethynyltestosterone acetate;Norethysterone acetate;Norlutate;Norlutin acetate;17α-Ethynyl-19-nortestosterone acetate;17α-Ethinyl-19-nortestosterone 17β-acetate;17α-Ethinyl-4-estrene-17β-ol-acetate-3-one;17β-Acetoxy-19-nor-17α-pregn-4-en-20-yn-3-one;19-Norethynyltestosterone acetate;Norethindrone 17-acetate;19-Norethisterone acetate;17β-Acetoxy-17α-ethinyl-4-estren-3-one;Norlutin A;Orlutate;Primolut-Nor;SH 420;Norethisterone 17-acetate;Milli-Anovlar;Progylut;Gynophase;Gynovlane;Miniphase;Aygestin;Milligynon;NSC 22844;Estalis",
    "duplicated_cas_no": "",
    "SMILES": "C[C@@]12[C@](OC(C)=O)(C#C)CC[C@]1([C@]3([C@](CC2)([C@@]4(C(CC3)=CC(=O)CC4)[H])[H])[H])[H]",
    "meta_data": {
        "InChI": "InChI=1S/C22H28O3/c1-4-22(25-14(2)23)12-10-20-19-7-5-15-13-16(24)6-8-17(15)18(19)9-11-21(20,22)3/h1,13,17-20H,5-12H2,2-3H3/t17-,18+,19+,20-,21-,22-/m0/s1",
        "InChIKey": null,
        "Canonical SMILES": "O=C(OC1(C#C)CCC2C3CCC4=CC(=O)CCC4C3CCC21C)C",
        "Molecular Formula": "C<sub>22</sub>H<sub>28</sub>O<sub>3</sub>",
        "Molecular Mass": "340.46",
        "Melting Point": "161.5 °C"
    }
}