{
    "cas_no": "135-91-1",
    "key_name": "4,4′-Methylenebis[<em>N</em>,<em>N</em>-diethylbenzenamine]",
    "cn_name": null,
    "alternate_name": "Benzenamine, 4,4′-methylenebis[<em>N</em>,<em>N</em>-diethyl-;Aniline, 4,4′-methylenebis[<em>N</em>,<em>N</em>-diethyl-;Aniline, <em>p</em>,<em>p</em>′-methylenebis[<em>N</em>,<em>N</em>-diethyl-;4,4′-Methylenebis[<em>N</em>,<em>N</em>-diethylbenzenamine];<em>N</em>,<em>N</em>,<em>N</em>′,<em>N</em>′-Tetraethyl-4,4′-diaminodiphenylmethane;4,4′-Tetraethyldiaminodiphenylmethane;4,4′-Bis(diethylamino)diphenylmethane",
    "duplicated_cas_no": "",
    "SMILES": "N(CC)(CC)C1=CC=C(CC2=CC=C(N(CC)CC)C=C2)C=C1",
    "meta_data": {
        "InChI": "InChI=1S/C21H30N2/c1-5-22(6-2)20-13-9-18(10-14-20)17-19-11-15-21(16-12-19)23(7-3)8-4/h9-16H,5-8,17H2,1-4H3",
        "InChIKey": null,
        "Canonical SMILES": "C=1C=C(C=CC1N(CC)CC)CC2=CC=C(C=C2)N(CC)CC",
        "Molecular Formula": "C<sub>21</sub>H<sub>30</sub>N<sub>2</sub>",
        "Molecular Mass": "310.48",
        "Melting Point": "43.5-44 °C"
    }
}