{
    "cas_no": "73909-16-7",
    "key_name": "1-Chloro-2-methoxy-4-methylbenzene",
    "cn_name": null,
    "alternate_name": "Benzene, 1-chloro-2-methoxy-4-methyl-;Anisole, 2-chloro-5-methyl-;1-Chloro-2-methoxy-4-methylbenzene;2-Chloro-5-methylanisole;4-Chloro-3-methoxytoluene;3-Methoxy-4-chlorotoluene;NSC 220096;1-Chloro-4-methyl-2-methoxybenzene",
    "duplicated_cas_no": "",
    "SMILES": "O(C)C1=C(Cl)C=CC(C)=C1",
    "meta_data": {
        "InChI": "InChI=1S/C8H9ClO/c1-6-3-4-7(9)8(5-6)10-2/h3-5H,1-2H3",
        "InChIKey": null,
        "Canonical SMILES": "ClC1=CC=C(C=C1OC)C",
        "Molecular Formula": "C<sub>8</sub>H<sub>9</sub>ClO",
        "Molecular Mass": "156.61",
        "Boiling Point": "75 °C @ Press: 0.5 Torr"
    }
}