{
    "cas_no": "4056-78-4",
    "key_name": "1,3-Cyclopentanedicarboxylic acid",
    "cn_name": null,
    "alternate_name": "1,3-Cyclopentanedicarboxylic acid;Norcamphoric acid",
    "duplicated_cas_no": "1628749-41-6",
    "SMILES": "C(O)(=O)C1CC(C(O)=O)CC1",
    "meta_data": {
        "InChI": "InChI=1S/C7H10O4/c8-6(9)4-1-2-5(3-4)7(10)11/h4-5H,1-3H2,(H,8,9)(H,10,11)",
        "InChIKey": null,
        "Canonical SMILES": "O=C(O)C1CCC(C(=O)O)C1",
        "Molecular Formula": "C<sub>7</sub>H<sub>10</sub>O<sub>4</sub>",
        "Molecular Mass": "158.15",
        "Melting Point": "121.5 °C"
    }
}