{
    "cas_no": "2598-29-0",
    "key_name": "8-Acetoxyquinoline",
    "cn_name": null,
    "alternate_name": "8-Quinolinol, 8-acetate;8-Quinolinol, acetate (ester);8-Acetoxyquinoline;<em>O</em>-Acetyl-8-hydroxyquinoline;8-Quinolyl acetate;8-Acetyloxyquinoline;8-Quinolinol acetate;NSC 508813",
    "duplicated_cas_no": "",
    "SMILES": "O(C(C)=O)C=1C2=C(C=CC1)C=CC=N2",
    "meta_data": {
        "InChI": "InChI=1S/C11H9NO2/c1-8(13)14-10-6-2-4-9-5-3-7-12-11(9)10/h2-7H,1H3",
        "InChIKey": null,
        "Canonical SMILES": "O=C(OC=1C=CC=C2C=CC=NC12)C",
        "Molecular Formula": "C<sub>11</sub>H<sub>9</sub>NO<sub>2</sub>",
        "Molecular Mass": "187.19",
        "Melting Point": "55.5-56.5 °C"
    }
}