{
    "cas_no": "5130-29-0",
    "key_name": "12-Ketolithocholic acid",
    "cn_name": null,
    "alternate_name": "Cholan-24-oic acid, 3-hydroxy-12-oxo-, (3α,5β)-;5β-Cholan-24-oic acid, 3α-hydroxy-12-oxo-;5β-Cholanic acid, 3α-hydroxy-12-oxo-;(3α,5β)-3-Hydroxy-12-oxocholan-24-oic acid;12-Ketolithocholic acid;3α-Hydroxy-12-oxo-5β-cholan-24-oic acid;3α-Hydroxy-12-oxo-5β-cholanoic acid;12-Oxolithocholic acid;12-Ketodeoxycholic acid;12-Oxo-3α-hydroxy-5β-cholanic acid;12-Dehydrodeoxycholic acid;3α-Hydroxy-12-oxo-5β-cholanic acid;BAA 485",
    "duplicated_cas_no": "83830-81-3",
    "SMILES": "C[C@@]12[C@]([C@]3([C@@]([C@]4(C)[C@](CC3)(C[C@H](O)CC4)[H])(CC1=O)[H])[H])(CC[C@@]2([C@@H](CCC(O)=O)C)[H])[H]",
    "meta_data": {
        "InChI": "InChI=1S/C24H38O4/c1-14(4-9-22(27)28)18-7-8-19-17-6-5-15-12-16(25)10-11-23(15,2)20(17)13-21(26)24(18,19)3/h14-20,25H,4-13H2,1-3H3,(H,27,28)/t14-,15-,16-,17+,18-,19+,20+,23+,24-/m1/s1",
        "InChIKey": null,
        "Canonical SMILES": "O=C(O)CCC(C)C1CCC2C3CCC4CC(O)CCC4(C)C3CC(=O)C12C",
        "Molecular Formula": "C<sub>24</sub>H<sub>38</sub>O<sub>4</sub>",
        "Molecular Mass": "390.56",
        "Melting Point": "165-167 °C"
    }
}