{
    "cas_no": "3262-72-4",
    "key_name": "BOC-<span class=\"text-smallcaps\">L</span>-serine",
    "cn_name": "BOC-L-丝氨酸;N-叔丁氧羰基-L-丝氨酸;",
    "alternate_name": "<span class=\"text-smallcaps\">L</span>-Serine, <em>N</em>-[(1,1-dimethylethoxy)carbonyl]-;Serine, <em>N</em>-carboxy-, <em>N</em>-<em>tert</em>-butyl ester, <span class=\"text-smallcaps\">L</span>-;<em>N</em>-[(1,1-Dimethylethoxy)carbonyl]-<span class=\"text-smallcaps\">L</span>-serine;<em>N</em>-<em>tert</em>-Butyloxycarbonyl-<span class=\"text-smallcaps\">L</span>-serine;<em>N</em>-(<em>tert</em>-Butoxycarbonyl)-<span class=\"text-smallcaps\">L</span>-serine;<em>N</em>-(<em>tert</em>-Butoxycarbonyl)serine;BOC-<span class=\"text-smallcaps\">L</span>-serine;<span class=\"text-smallcaps\">L</span>-<em>N</em>-<em>tert</em>-Butoxycarbonylserine;<em>N</em>-<em>tert</em>-Butyloxycarbonylserine;<em>N</em>-<em>t</em>-Butoxycarbonylserine;BOC-Serine;<em>N</em>-BOC-<span class=\"text-smallcaps\">L</span>-serine;NSC 164056;(<em>S</em>)-2-[(<em>tert</em>-Butoxycarbonyl)amino]-3-hydroxypropionic acid;(<em>S</em>)-2-(<em>tert</em>-Butoxycarbonylamino)-3-hydroxypropanoic acid;(2S)-3-Hydroxy-2-[(2-methylpropan-2-yl)oxycarbonylamino]propanoic acid;(2S)-2-[[(<em>tert</em>-Butoxy)carbonyl]amino]-3-hydroxypropanoic acid",
    "duplicated_cas_no": "90582-28-8;184474-44-0",
    "SMILES": "[C@@H](NC(OC(C)(C)C)=O)(C(O)=O)CO",
    "meta_data": {
        "InChI": "InChI=1S/C8H15NO5/c1-8(2,3)14-7(13)9-5(4-10)6(11)12/h5,10H,4H2,1-3H3,(H,9,13)(H,11,12)/t5-/m0/s1",
        "InChIKey": null,
        "Canonical SMILES": "O=C(OC(C)(C)C)NC(C(=O)O)CO",
        "Molecular Formula": "C<sub>8</sub>H<sub>15</sub>NO<sub>5</sub>",
        "Molecular Mass": "205.21",
        "Melting Point": "45-47 °C"
    }
}