{
    "cas_no": "23731-38-6",
    "key_name": "Formic-<em>d</em> acid, methyl ester",
    "cn_name": "氘代甲酸甲酯;",
    "alternate_name": "Formic-<em>d</em> acid, methyl ester;Methyl deuterioformate",
    "duplicated_cas_no": "",
    "SMILES": "C(OC)(=O)[2H]",
    "meta_data": {
        "InChI": "InChI=1S/C2H4O2/c1-4-2-3/h2H,1H3/i2D",
        "InChIKey": null,
        "Canonical SMILES": "O=COC",
        "Molecular Formula": "C<sub>2</sub>H<sub>3</sub>DO<sub>2</sub>",
        "Molecular Mass": "",
        "Boiling Point": "31 °C @ Press: 720 Torr"
    }
}