{
    "cas_no": "98-89-5",
    "key_name": "Cyclohexanecarboxylic acid",
    "cn_name": "环己甲酸;环己烷羧酸;",
    "alternate_name": "Cyclohexanecarboxylic acid;Benzoic acid, hexahydro-;Hexahydrobenzoic acid;Cyclohexanoic acid;Cyclohexylcarboxylic acid;Carboxycyclohexane;Cyclohexylmethanoic acid;NSC 452;NSC 97391;NSC 97393;Cyclohexyl formic acid",
    "duplicated_cas_no": "",
    "SMILES": "C(O)(=O)C1CCCCC1",
    "meta_data": {
        "InChI": "InChI=1S/C7H12O2/c8-7(9)6-4-2-1-3-5-6/h6H,1-5H2,(H,8,9)",
        "InChIKey": null,
        "Canonical SMILES": "O=C(O)C1CCCCC1",
        "Molecular Formula": "C<sub>7</sub>H<sub>12</sub>O<sub>2</sub>",
        "Molecular Mass": "128.17",
        "Boiling Point": "232.5 °C",
        "Melting Point": "31.5 °C",
        "Density": "0.9866 g/cm³ @ Temp: 80.8 °C"
    }
}