{
    "cas_no": "15336-98-8",
    "key_name": "Dibutyldi-2-propen-1-ylstannane",
    "cn_name": "己二烯二丁基锡;",
    "alternate_name": "Stannane, dibutyldi-2-propen-1-yl-;Stannane, dibutyldi-2-propenyl-;Tin, diallyldibutyl-;Dibutyldi-2-propen-1-ylstannane;Diallyldibutylstannane;Diallyldibutyltin;NSC 203241",
    "duplicated_cas_no": "",
    "SMILES": "[Sn](CCCC)(CCCC)(CC=C)CC=C",
    "meta_data": {
        "InChI": "InChI=1S/2C4H9.2C3H5.Sn/c2*1-3-4-2;2*1-3-2;/h2*1,3-4H2,2H3;2*3H,1-2H2;",
        "InChIKey": null,
        "Canonical SMILES": "C=CC[Sn](CC=C)(CCCC)CCCC",
        "Molecular Formula": "C<sub>14</sub>H<sub>28</sub>Sn",
        "Molecular Mass": "315.08",
        "Boiling Point": "93 °C @ Press: 0.1 Torr",
        "Density": "1.0999 g/cm³ @ Temp: 25 °C"
    }
}