{
    "cas_no": "61040-81-1",
    "key_name": "3,5-Dimethoxy-4-methylbenzoic acid",
    "cn_name": "3,5-二甲氧基-4-甲基苯甲酸;",
    "alternate_name": "Benzoic acid, 3,5-dimethoxy-4-methyl-;<em>p</em>-Toluic acid, 3,5-dimethoxy-;3,5-Dimethoxy-4-methylbenzoic acid;3,5-Dimethoxy-<em>p</em>-toluic acid",
    "duplicated_cas_no": "",
    "SMILES": "O(C)C1=C(C)C(OC)=CC(C(O)=O)=C1",
    "meta_data": {
        "InChI": "InChI=1S/C10H12O4/c1-6-8(13-2)4-7(10(11)12)5-9(6)14-3/h4-5H,1-3H3,(H,11,12)",
        "InChIKey": null,
        "Canonical SMILES": "O=C(O)C1=CC(OC)=C(C(OC)=C1)C",
        "Molecular Formula": "C<sub>10</sub>H<sub>12</sub>O<sub>4</sub>",
        "Molecular Mass": "196.20",
        "Melting Point": "215 °C"
    }
}