{
    "cas_no": "1001-89-4",
    "key_name": "2-Chloroheptane",
    "cn_name": "2-氯庚烷;",
    "alternate_name": "Heptane, 2-chloro-;2-Chloroheptane;(±)-2-Chloroheptane",
    "duplicated_cas_no": "52356-94-2",
    "SMILES": "C(CCCC)C(C)Cl",
    "meta_data": {
        "InChI": "InChI=1S/C7H15Cl/c1-3-4-5-6-7(2)8/h7H,3-6H2,1-2H3",
        "InChIKey": null,
        "Canonical SMILES": "ClC(C)CCCCC",
        "Molecular Formula": "C<sub>7</sub>H<sub>15</sub>Cl",
        "Molecular Mass": "134.65",
        "Boiling Point": "140-141 °C",
        "Density": "0.8649 g/cm³ @ Temp: 20 °C"
    }
}