{
    "cas_no": "54458-61-6",
    "key_name": "2,3,4,5-Tetramethyl-2-cyclopentenone",
    "cn_name": null,
    "alternate_name": "2-Cyclopenten-1-one, 2,3,4,5-tetramethyl-;2,3,4,5-Tetramethyl-2-cyclopenten-1-one;2,3,4,5-Tetramethyl-2-cyclopentenone;Tetramethylcyclopent-2-enone;2,3,4,5-Tetramethylcyclopenten-1-one;2,3,4,5-Tetramethylcyclopentenone",
    "duplicated_cas_no": "",
    "SMILES": "CC1C(C)=C(C)C(=O)C1C",
    "meta_data": {
        "InChI": "InChI=1S/C9H14O/c1-5-6(2)8(4)9(10)7(5)3/h5,7H,1-4H3",
        "InChIKey": null,
        "Canonical SMILES": "O=C1C(=C(C)C(C)C1C)C",
        "Molecular Formula": "C<sub>9</sub>H<sub>14</sub>O",
        "Molecular Mass": "138.21",
        "Boiling Point": "59.8 °C @ Press: 3.3 Torr"
    }
}