{
    "cas_no": "1466-67-7",
    "key_name": "<em>N</em>,<em>N</em>′-Dibenzylurea",
    "cn_name": null,
    "alternate_name": "Urea, <em>N</em>,<em>N</em>′-bis(phenylmethyl)-;Urea, 1,3-dibenzyl-;<em>N</em>,<em>N</em>′-Bis(phenylmethyl)urea;<em>sym</em>-Dibenzylurea;<em>N</em>,<em>N</em>′-Dibenzylurea;1,3-Dibenzylurea;NSC 408007",
    "duplicated_cas_no": "",
    "SMILES": "C(NC(NCC1=CC=CC=C1)=O)C2=CC=CC=C2",
    "meta_data": {
        "InChI": "InChI=1S/C15H16N2O/c18-15(16-11-13-7-3-1-4-8-13)17-12-14-9-5-2-6-10-14/h1-10H,11-12H2,(H2,16,17,18)",
        "InChIKey": null,
        "Canonical SMILES": "O=C(NCC=1C=CC=CC1)NCC=2C=CC=CC2",
        "Molecular Formula": "C<sub>15</sub>H<sub>16</sub>N<sub>2</sub>O",
        "Molecular Mass": "240.30",
        "Melting Point": "167 °C"
    }
}