{
    "cas_no": "104-98-3",
    "key_name": "Urocanic acid",
    "cn_name": "尿刊酸;4-咪唑丙烯酸;",
    "alternate_name": "2-Propenoic acid, 3-(1<em>H</em>-imidazol-5-yl)-;Imidazole-4-acrylic acid;2-Propenoic acid, 3-(1<em>H</em>-imidazol-4-yl)-;3-(1<em>H</em>-Imidazol-5-yl)-2-propenoic acid;Urocanic acid;Urocaninic acid;5-Imidazoleacrylic acid;3-(1<em>H</em>-Imidazol-4-yl)acrylic acid;3-(4-Imidazolyl)acrylic acid;NSC 66357;3-(1<em>H</em>-Imidazol-4-yl)-2-propenoic acid;4-Imidazolylacrylic acid;MeSH ID: D014560",
    "duplicated_cas_no": "",
    "SMILES": "C(=CC(O)=O)C1=CN=CN1",
    "meta_data": {
        "InChI": "InChI=1S/C6H6N2O2/c9-6(10)2-1-5-3-7-4-8-5/h1-4H,(H,7,8)(H,9,10)",
        "InChIKey": null,
        "Canonical SMILES": "O=C(O)C=CC1=CN=CN1",
        "Molecular Formula": "C<sub>6</sub>H<sub>6</sub>N<sub>2</sub>O<sub>2</sub>",
        "Molecular Mass": "138.12",
        "Melting Point": "225 °C"
    }
}