{
    "cas_no": "32214-80-5",
    "key_name": "Lupeol palmitate",
    "cn_name": null,
    "alternate_name": "Lup-20(29)-en-3-ol, 3-(hexadecanoate), (3β)-;Lup-20(29)-en-3-ol, hexadecanoate, (3β)-;Lup-20(29)-en-3β-ol, palmitate;Lupeol palmitate;Lupenyl palmitate;Lupeyl palmitate;Sambuculin A;3-Palmitoyllupeol;Balanophorin B;Docosanoyllupeol;Lupeol hexadecanoate;Lupeolyl palmitate",
    "duplicated_cas_no": "2012565-99-8",
    "SMILES": "C[C@]12[C@@]3(C)[C@@]([C@@]4([C@@](C)(CC3)CC[C@H]4C(C)=C)[H])(CC[C@@]1([C@]5(C)[C@@](CC2)(C(C)(C)[C@@H](OC(CCCCCCCCCCCCCCC)=O)CC5)[H])[H])[H]",
    "meta_data": {
        "InChI": "InChI=1S/C46H80O2/c1-10-11-12-13-14-15-16-17-18-19-20-21-22-23-40(47)48-39-28-30-44(7)37(42(39,4)5)27-31-46(9)38(44)25-24-36-41-35(34(2)3)26-29-43(41,6)32-33-45(36,46)8/h35-39,41H,2,10-33H2,1,3-9H3/t35-,36+,37-,38+,39-,41+,43+,44-,45+,46+/m0/s1",
        "InChIKey": null,
        "Canonical SMILES": "O=C(OC1CCC2(C)C(CCC3(C)C2CCC4C5C(C(=C)C)CCC5(C)CCC43C)C1(C)C)CCCCCCCCCCCCCCC",
        "Molecular Formula": "C<sub>46</sub>H<sub>80</sub>O<sub>2</sub>",
        "Molecular Mass": "665.13",
        "Melting Point": "110 °C"
    }
}