{
    "cas_no": "355-04-4",
    "key_name": "Perfluoro(2-methylpentane)",
    "cn_name": "2-三氟甲基-1,1,1,2,3,3,4,4,5,5,5-十一氟代戊烷;全氟-2-甲基戊烷;",
    "alternate_name": "Pentane, 1,1,1,2,2,3,3,4,5,5,5-undecafluoro-4-(trifluoromethyl)-;Pentane, undecafluoro-2-(trifluoromethyl)-;1,1,1,2,2,3,3,4,5,5,5-Undecafluoro-4-(trifluoromethyl)pentane;Perfluoro(2-methylpentane);Tetradecafluoro-2-methylpentane;Undecafluoro-2-(trifluoromethyl)pentane;2-(Trifluoromethyl)perfluoropentane",
    "duplicated_cas_no": "93492-02-5",
    "SMILES": "C(C(C(C(F)(F)F)(F)F)(F)F)(C(F)(F)F)(C(F)(F)F)F",
    "meta_data": {
        "InChI": "InChI=1S/C6F14/c7-1(4(12,13)14,5(15,16)17)2(8,9)3(10,11)6(18,19)20",
        "InChIKey": null,
        "Canonical SMILES": "FC(F)(F)C(F)(F)C(F)(F)C(F)(C(F)(F)F)C(F)(F)F",
        "Molecular Formula": "C<sub>6</sub>F<sub>14</sub>",
        "Molecular Mass": "338.04",
        "Boiling Point": "57.6 °C",
        "Melting Point": "-119 °C",
        "Density": "1.7326 g/cm³ @ Temp: 20 °C"
    }
}