{
    "cas_no": "920-42-3",
    "key_name": "Formic-<em>d</em> acid-<em>d</em>",
    "cn_name": null,
    "alternate_name": "Formic-<em>d</em> acid-<em>d</em>;Perdeuterioformic acid;Formic acid-<em>d</em><sub>2</sub>",
    "duplicated_cas_no": "",
    "SMILES": "C(O[2H])(=O)[2H]",
    "meta_data": {
        "InChI": "InChI=1S/CH2O2/c2-1-3/h1H,(H,2,3)/i1D/hD",
        "InChIKey": null,
        "Canonical SMILES": "O=CO",
        "Molecular Formula": "CD<sub>2</sub>O<sub>2</sub>",
        "Molecular Mass": "",
        "Boiling Point": "44-44.5 °C @ Press: 58 Torr"
    }
}