{
    "cas_no": "13401-56-4",
    "key_name": "3-Chloro-2,2-dimethylpropanol",
    "cn_name": "3-氯-2,2-二甲基-1-丙醇;",
    "alternate_name": "1-Propanol, 3-chloro-2,2-dimethyl-;3-Chloro-2,2-dimethyl-1-propanol;3-Chloro-2,2-dimethylpropanol;NSC 245179;2,2-Dimethyl-3-chloropropan-1-ol",
    "duplicated_cas_no": "",
    "SMILES": "C(CCl)(CO)(C)C",
    "meta_data": {
        "InChI": "InChI=1S/C5H11ClO/c1-5(2,3-6)4-7/h7H,3-4H2,1-2H3",
        "InChIKey": null,
        "Canonical SMILES": "ClCC(C)(C)CO",
        "Molecular Formula": "C<sub>5</sub>H<sub>11</sub>ClO",
        "Molecular Mass": "122.59",
        "Boiling Point": "78-80 °C @ Press: 10 Torr",
        "Melting Point": "35 °C"
    }
}