{
    "cas_no": "513-36-0",
    "key_name": "Isobutyl chloride",
    "cn_name": "氯代异丁烷;",
    "alternate_name": "Propane, 1-chloro-2-methyl-;1-Chloro-2-methylpropane;Isobutyl chloride;2-Methylpropyl chloride;2-Methyl-1-chloropropane;2-Chloromethylpropane",
    "duplicated_cas_no": "",
    "SMILES": "C(CCl)(C)C",
    "meta_data": {
        "InChI": "InChI=1S/C4H9Cl/c1-4(2)3-5/h4H,3H2,1-2H3",
        "InChIKey": null,
        "Canonical SMILES": "ClCC(C)C",
        "Molecular Formula": "C<sub>4</sub>H<sub>9</sub>Cl",
        "Molecular Mass": "92.57",
        "Boiling Point": "69 °C",
        "Melting Point": "-131 °C",
        "Density": "0.9 g/cm³"
    }
}