{
    "cas_no": "109-75-1",
    "key_name": "3-Butenenitrile",
    "cn_name": "烯丙基腈;乙烯乙腈;丁烯基腈;1-氰基丙烯;3-丁烯腈;",
    "alternate_name": "3-Butenenitrile;Allyl cyanide;β-Butenonitrile;Vinylacetonitrile;1-Butene-3-nitrile;3-Butenylnitrile;3-Butenonitrile;3-Cyanopropene;1-Propene-3-nitrile;3-Cyano-1-propene;2-Propenyl cyanide;NSC 2583",
    "duplicated_cas_no": "",
    "SMILES": "C(C=C)C#N",
    "meta_data": {
        "InChI": "InChI=1S/C4H5N/c1-2-3-4-5/h2H,1,3H2",
        "InChIKey": null,
        "Canonical SMILES": "N#CCC=C",
        "Molecular Formula": "C<sub>4</sub>H<sub>5</sub>N",
        "Molecular Mass": "67.09",
        "Boiling Point": "119 °C",
        "Melting Point": "-87 °C",
        "Density": "0.83409 g/cm³ @ Temp: 20 °C"
    }
}