{
    "cas_no": "80223-99-0",
    "key_name": "Benzenesulfonamide, 5-[2-[[2-(2-ethoxyphenoxy)ethyl]amino]propyl]-2-methoxy-, hydrochloride (1:1)",
    "cn_name": "盐酸坦索罗辛;(-)-(R)-5-[2-[2-(2-乙氧基苯氧基)乙基氨基]丙基]-2-甲氧基苯磺酰胺盐酸盐;",
    "alternate_name": "Benzenesulfonamide, 5-[2-[[2-(2-ethoxyphenoxy)ethyl]amino]propyl]-2-methoxy-, hydrochloride (1:1);Benzenesulfonamide, 5-[2-[[2-(2-ethoxyphenoxy)ethyl]amino]propyl]-2-methoxy-, monohydrochloride;YM 12617;LY 253352;<em>dl</em>-Tamsulosin hydrochloride",
    "duplicated_cas_no": "106463-18-7;112101-80-1",
    "SMILES": "S(N)(=O)(=O)C1=C(OC)C=CC(CC(NCCOC2=C(OCC)C=CC=C2)C)=C1.Cl",
    "meta_data": {
        "InChI": "InChI=1S/C20H28N2O5S.ClH/c1-4-26-17-7-5-6-8-18(17)27-12-11-22-15(2)13-16-9-10-19(25-3)20(14-16)28(21,23)24;/h5-10,14-15,22H,4,11-13H2,1-3H3,(H2,21,23,24);1H",
        "InChIKey": null,
        "Canonical SMILES": "Cl.O=S(=O)(N)C1=CC(=CC=C1OC)CC(NCCOC=2C=CC=CC2OCC)C",
        "Molecular Formula": "C<sub>20</sub>H<sub>28</sub>N<sub>2</sub>O<sub>5</sub>S.ClH",
        "Molecular Mass": "",
        "Melting Point": "254-256 °C"
    }
}