{
    "cas_no": "7085-85-0",
    "key_name": "Ethyl cyanoacrylate",
    "cn_name": "氰基丙烯酸乙酯;2-氰基丙烯酸乙酯;&alpha;-氰基丙烯酸乙酯;2-氰基-2-丙烯酸乙酯;",
    "alternate_name": "2-Propenoic acid, 2-cyano-, ethyl ester;Acrylic acid, 2-cyano-, ethyl ester;Ethyl α-cyanoacrylate;Ethyl 2-cyanoacrylate;Ethyl cyanoacrylate;N 135;910EM;DA 737S;Cyanobond W 300;Cemedine 3000RP;Cemedine 3000RP Type-II;Cemedine 3000RS;Cemedine 3000RS Type-II;Adhesive 502;Cyanobond W 100;PTR-E 3;PTR-E 40;Super 3-1000;CN 2;ACE-EE;ACE-E 50;CN 4;CA 3 (adhesive);CA 3;CA 8-3A;Cyanon 5MSP;Super Glue;Aron Alpha D;Black Max;TK 200;TK 201;Aron Alpha 402X;Cyanon S;Sicomet 8400;Super Bonder 498;N 135 (acrylate);TB 1741;Three Bond 1741;2-Cyanoacrylic acid ethyl ester;TB 1743;Three Bond 1743;Cyanobond RP-X;Sicomet Smart Power 100;Diabond 8200;TK 200 (adhesive);Sicomet 5195;QX 4;RP-QS;Anacure 3020;2-Cyano-2-propenoic acid ethyl ester;Cyanon SL;Loctite E 406;E 50;Phyx-All;Loctite 409;Loctite 409 Super Bonder;Sicomet 40;Epiglue;Cyanobloom;Loctite 4305;Three Bond 1771E;Loctite 4304;Three Bond 1773E;Three Bond 3056F;Loctite Super Glue;Ethyl 2-cyanopropenoate;Loctite 454;EZ 300;Loctite 406;Bostik Super Glue;EC 5 clear;Super Bonder 409;409 Super Bonder",
    "duplicated_cas_no": "106717-55-9;111940-93-3;112002-50-3;122985-41-5;885041-98-5;2243906-89-8",
    "SMILES": "C(C(C#N)=C)(OCC)=O",
    "meta_data": {
        "InChI": "InChI=1S/C6H7NO2/c1-3-9-6(8)5(2)4-7/h2-3H2,1H3",
        "InChIKey": null,
        "Canonical SMILES": "N#CC(=C)C(=O)OCC",
        "Molecular Formula": "C<sub>6</sub>H<sub>7</sub>NO<sub>2</sub>",
        "Molecular Mass": "125.13",
        "Boiling Point": "54-56 °C",
        "Density": "1.0565 g/cm³ @ Temp: 20 °C"
    }
}