{
    "cas_no": "850623-71-1",
    "key_name": "Borate(1-), trifluoro(4-nitrophenyl)-, potassium (1:1), (<em>T</em>-4)-",
    "cn_name": null,
    "alternate_name": "Borate(1-), trifluoro(4-nitrophenyl)-, potassium (1:1), (<em>T</em>-4)-;Borate(1-), trifluoro(4-nitrophenyl)-, potassium, (<em>T</em>-4)-;Potassium trifluoro(4-nitrophenyl)borate;Potassium 4-nitrophenyltrifluoroborate",
    "duplicated_cas_no": "",
    "SMILES": "[B+3]([F-])([F-])([F-])[C-]=1C=CC(N(=O)=O)=CC1.[K+]",
    "meta_data": {
        "InChI": "InChI=1S/C6H4BF3NO2.K/c8-7(9,10)5-1-3-6(4-2-5)11(12)13;/h1-4H;/q-1;+1",
        "InChIKey": null,
        "Canonical SMILES": "[K+].O=N(=O)C1=CC=[C-](C=C1)[B+3]([F-])([F-])[F-]",
        "Molecular Formula": "C<sub>6</sub>H<sub>4</sub>BF<sub>3</sub>NO<sub>2</sub>.K",
        "Molecular Mass": "",
        "Melting Point": "&gt;220 °C"
    }
}