{
    "cas_no": "19436-52-3",
    "key_name": "<em>N</em>-Acetyl-<span class=\"text-smallcaps\">D</span>-alanine",
    "cn_name": "N-乙酰-D-α-丙氨酸;N-乙酰-D-α-丙氨酸;N-乙酰-D-丙氨酸;",
    "alternate_name": "<span class=\"text-smallcaps\">D</span>-Alanine, <em>N</em>-acetyl-;Alanine, <em>N</em>-acetyl-, <span class=\"text-smallcaps\">D</span>-;<em>N</em>-Acetyl-<span class=\"text-smallcaps\">D</span>-alanine;Acetyl-<span class=\"text-smallcaps\">D</span>-alanine;(<em>R</em>)-<em>N</em>-Acetylalanine;(<em>R</em>)-(+)-<em>N</em>-Acetylalanine;(<em>R</em>)-2-(Acetylamino)propanoic acid;NSC 203819;(2R)-2-Acetamidopropanoic acid",
    "duplicated_cas_no": "934480-37-2",
    "SMILES": "[C@H](NC(C)=O)(C(O)=O)C",
    "meta_data": {
        "InChI": "InChI=1S/C5H9NO3/c1-3(5(8)9)6-4(2)7/h3H,1-2H3,(H,6,7)(H,8,9)/t3-/m1/s1",
        "InChIKey": null,
        "Canonical SMILES": "O=C(O)C(NC(=O)C)C",
        "Molecular Formula": "C<sub>5</sub>H<sub>9</sub>NO<sub>3</sub>",
        "Molecular Mass": "131.13",
        "Melting Point": "125 °C"
    }
}