{
    "cas_no": "3440-28-6",
    "key_name": "Betamipron",
    "cn_name": "倍他米隆;N-苯甲酰基-beta-丙氨酸;",
    "alternate_name": "β-Alanine, <em>N</em>-benzoyl-;<em>N</em>-Benzoyl-β-alanine;3-Benzamidopropionic acid;3-(Benzoylamino)propionic acid;Benzoyl-β-alanine;Betamipron;3-(Benzoylamino)propanoic acid;<em>N</em>-Benzoyl-β-aminopropionic acid;CS 443;NSC 192714;3-Benzamidopropanoicacid;3-Benzamidopropanoic acid;Bz-β-HoGly-OH",
    "duplicated_cas_no": "",
    "SMILES": "C(NCCC(O)=O)(=O)C1=CC=CC=C1",
    "meta_data": {
        "InChI": "InChI=1S/C10H11NO3/c12-9(13)6-7-11-10(14)8-4-2-1-3-5-8/h1-5H,6-7H2,(H,11,14)(H,12,13)",
        "InChIKey": null,
        "Canonical SMILES": "O=C(O)CCNC(=O)C=1C=CC=CC1",
        "Molecular Formula": "C<sub>10</sub>H<sub>11</sub>NO<sub>3</sub>",
        "Molecular Mass": "193.20",
        "Melting Point": "120 °C"
    }
}