{
    "cas_no": "5274-99-7",
    "key_name": "1-Benzoyl-4-piperidinecarboxylic acid",
    "cn_name": null,
    "alternate_name": "4-Piperidinecarboxylic acid, 1-benzoyl-;Isonipecotic acid, 1-benzoyl-;1-Benzoyl-4-piperidinecarboxylic acid;<em>N</em>-Benzoylisonipecotic acid;NSC 15149;<em>N</em>-Benzoyl-4-piperidinecarboxylic acid",
    "duplicated_cas_no": "",
    "SMILES": "C(=O)(N1CCC(C(O)=O)CC1)C2=CC=CC=C2",
    "meta_data": {
        "InChI": "InChI=1S/C13H15NO3/c15-12(10-4-2-1-3-5-10)14-8-6-11(7-9-14)13(16)17/h1-5,11H,6-9H2,(H,16,17)",
        "InChIKey": null,
        "Canonical SMILES": "O=C(O)C1CCN(C(=O)C=2C=CC=CC2)CC1",
        "Molecular Formula": "C<sub>13</sub>H<sub>15</sub>NO<sub>3</sub>",
        "Molecular Mass": "233.26",
        "Melting Point": "132-135 °C"
    }
}