{
    "cas_no": "10045-94-0",
    "key_name": "Mercuric nitrate",
    "cn_name": "硝酸汞;硝酸高汞;",
    "alternate_name": "Nitric acid, mercury(2+) salt (2:1);Nitric acid, mercury(2+) salt;Mercury(II) nitrate (Hg(NO<sub>3</sub>)<sub>2</sub>);Mercuric nitrate;Mercury nitrate;Mercury(2+) nitrate;Mercury dinitrate;Mercury(II) nitrate;Citrine ointment;Mercury nitrate (Hg(NO<sub>3</sub>)<sub>2</sub>);Millon's reagent;Named reagents and solutions, Millon's",
    "duplicated_cas_no": "8046-70-6;820986-03-6",
    "SMILES": "N(=O)(=O)O.[Hg]",
    "meta_data": {
        "InChI": "InChI=1S/Hg.HNO3/c;2-1(3)4/h;(H,2,3,4)",
        "InChIKey": null,
        "Canonical SMILES": "[Hg].O=N(=O)O",
        "Molecular Formula": "HNO<sub>3</sub>.<sup>1</sup>/<sub>2</sub>Hg",
        "Molecular Mass": "",
        "Melting Point": "79 °C",
        "Density": "4.4 g/cm³"
    }
}