{
    "cas_no": "881639-98-1",
    "key_name": "<em>rel</em>-1-[(3a<em>R</em>,4<em>S</em>,9b<em>S</em>)-4-(6-Bromo-1,3-benzodioxol-5-yl)-3a,4,5,9b-tetrahydro-3<em>H</em>-cyclopenta[<em>c</em>]quinolin-8-yl]ethanone",
    "cn_name": null,
    "alternate_name": "Ethanone, 1-[(3a<em>R</em>,4<em>S</em>,9b<em>S</em>)-4-(6-bromo-1,3-benzodioxol-5-yl)-3a,4,5,9b-tetrahydro-3<em>H</em>-cyclopenta[<em>c</em>]quinolin-8-yl]-, <em>rel</em>-;<em>rel</em>-1-[(3a<em>R</em>,4<em>S</em>,9b<em>S</em>)-4-(6-Bromo-1,3-benzodioxol-5-yl)-3a,4,5,9b-tetrahydro-3<em>H</em>-cyclopenta[<em>c</em>]quinolin-8-yl]ethanone;G1;G 1;G 1 (Anti-tumor agent)",
    "duplicated_cas_no": "2869969-16-2",
    "SMILES": "BrC1=C([C@H]2[C@@]3([C@](C=4C(N2)=CC=C(C(C)=O)C4)(C=CC3)[H])[H])C=C5C(=C1)OCO5",
    "meta_data": {
        "InChI": "InChI=1/C21H18BrNO3/c1-11(24)12-5-6-18-15(7-12)13-3-2-4-14(13)21(23-18)16-8-19-20(9-17(16)22)26-10-25-19/h2-3,5-9,13-14,21,23H,4,10H2,1H3/t13-,14+,21-/s2",
        "InChIKey": null,
        "Canonical SMILES": "O=C(C1=CC=C2NC(C=3C=C4OCOC4=CC3Br)C5CC=CC5C2=C1)C",
        "Molecular Formula": "C<sub>21</sub>H<sub>18</sub>BrNO<sub>3</sub>",
        "Molecular Mass": "412.28",
        "Melting Point": "103-105 °C"
    }
}