{
    "cas_no": "5413-05-8",
    "key_name": "Ethyl α-acetylbenzeneacetate",
    "cn_name": "2-苯基乙酰乙酸乙酯;",
    "alternate_name": "Benzeneacetic acid, α-acetyl-, ethyl ester;Acetoacetic acid, 2-phenyl-, ethyl ester;Acetoacetic acid, phenyl-, ethyl ester;Ethyl α-acetylbenzeneacetate;Ethyl 2-phenylacetoacetate;Ethyl α-phenylacetoacetate;NSC 6389;Ethyl 3-oxo-2-phenylbutanoate;3-Oxo-2-phenylbutyric acid ethyl ester",
    "duplicated_cas_no": "",
    "SMILES": "C(C(OCC)=O)(C(C)=O)C1=CC=CC=C1",
    "meta_data": {
        "InChI": "InChI=1S/C12H14O3/c1-3-15-12(14)11(9(2)13)10-7-5-4-6-8-10/h4-8,11H,3H2,1-2H3",
        "InChIKey": null,
        "Canonical SMILES": "O=C(OCC)C(C=1C=CC=CC1)C(=O)C",
        "Molecular Formula": "C<sub>12</sub>H<sub>14</sub>O<sub>3</sub>",
        "Molecular Mass": "206.24",
        "Boiling Point": "144.5-145.5 °C @ Press: 5 Torr",
        "Density": "1.096 g/cm³ @ Temp: 21 °C"
    }
}