{
    "cas_no": "18323-58-5",
    "key_name": "4-Methylumbelliferyl oleate",
    "cn_name": "4-甲基伞形酮基油酸酯;4-甲基伞形酮基油酸酯;4-甲基伞形酮酰油酸酯;",
    "alternate_name": "9-Octadecenoic acid (9<em>Z</em>)-, 4-methyl-2-oxo-2<em>H</em>-1-benzopyran-7-yl ester;Oleic acid, ester with 7-hydroxy-4-methylcoumarin;9-Octadecenoic acid (<em>Z</em>)-, 4-methyl-2-oxo-2<em>H</em>-1-benzopyran-7-yl ester;Coumarin, 7-hydroxy-4-methyl-, oleate;Oleoyl 4-methylumbelliferone;4-Methylumbelliferone oleate;4-Methylumbelliferyl oleate",
    "duplicated_cas_no": "23270-48-6",
    "SMILES": "CC=1C=2C(=CC(OC(CCCCCCC/C=C\\CCCCCCCC)=O)=CC2)OC(=O)C1",
    "meta_data": {
        "InChI": "InChI=1S/C28H40O4/c1-3-4-5-6-7-8-9-10-11-12-13-14-15-16-17-18-27(29)31-24-19-20-25-23(2)21-28(30)32-26(25)22-24/h10-11,19-22H,3-9,12-18H2,1-2H3/b11-10-",
        "InChIKey": null,
        "Canonical SMILES": "O=C1OC=2C=C(OC(=O)CCCCCCCC=CCCCCCCCC)C=CC2C(=C1)C",
        "Molecular Formula": "C<sub>28</sub>H<sub>40</sub>O<sub>4</sub>",
        "Molecular Mass": "440.61",
        "Melting Point": "59-61 °C"
    }
}