{
    "cas_no": "10377-48-7",
    "key_name": "Lithium sulfate",
    "cn_name": "硫酸锂;",
    "alternate_name": "Sulfuric acid, lithium salt (1:2);Sulfuric acid, dilithium salt;Lithium sulfate;Dilithium sulfate;Dilithium sulfate (Li<sub>2</sub>SO<sub>4</sub>);Lithium sulphate;Lithium sulfate (Li<sub>2</sub>SO<sub>4</sub>);Lithiophor;Lithium-Duriles;Li2SO4;Lithium sulfate (Li<sub>2</sub>(SO<sub>4</sub>))",
    "duplicated_cas_no": "2764904-37-0;2978175-97-0",
    "SMILES": "S(=O)(=O)(O)O.[Li]",
    "meta_data": {
        "InChI": "InChI=1S/2Li.H2O4S/c;;1-5(2,3)4/h;;(H2,1,2,3,4)",
        "InChIKey": null,
        "Canonical SMILES": "[Li].O=S(=O)(O)O",
        "Molecular Formula": "H<sub>2</sub>O<sub>4</sub>S.2Li",
        "Molecular Mass": "",
        "Melting Point": "535 °C"
    }
}