{
    "cas_no": "35349-68-9",
    "key_name": "Xanthone I",
    "cn_name": null,
    "alternate_name": "2<em>H</em>,6<em>H</em>-Pyrano[3,2-<em>b</em>]xanthen-6-one, 5,9-dihydroxy-8-methoxy-2,2-dimethyl-7-(3-methyl-2-buten-1-yl)-;2<em>H</em>,6<em>H</em>-Pyrano[3,2-<em>b</em>]xanthen-6-one, 5,9-dihydroxy-8-methoxy-2,2-dimethyl-7-(3-methyl-2-butenyl)-;5,9-Dihydroxy-8-methoxy-2,2-dimethyl-7-(3-methyl-2-buten-1-yl)-2<em>H</em>,6<em>H</em>-pyrano[3,2-<em>b</em>]xanthen-6-one;5,9-Dihydroxy-8-methoxy-2,2-dimethyl-7-(3-methylbut-2-enyl)-2<em>H</em>,6<em>H</em>-pyrano[3,2-<em>b</em>]xanthen-6-one;Xanthone I;1,6-Dihydroxy-7-methoxy-8-(3-methylbut-2-enyl)-6′,6′-dimethylpyrano(2′,3′:3,2)xanthone;1,6-Dihydroxy-7-methoxy-13,13-dimethyl-8-(3-methyl-2-butenyl)-2<em>H</em>,6<em>H</em>-pyran[3,2-<em>b</em>]xanthen-9-one;9-Hydroxycalabaxanthone;6-Hydroxycalabaxanthone;Mangostanin",
    "duplicated_cas_no": "",
    "SMILES": "C(C=C(C)C)C1=C2C(OC=3C(C2=O)=C(O)C4=C(C3)OC(C)(C)C=C4)=CC(O)=C1OC",
    "meta_data": {
        "InChI": "InChI=1S/C24H24O6/c1-12(2)6-7-14-19-17(10-15(25)23(14)28-5)29-18-11-16-13(8-9-24(3,4)30-16)21(26)20(18)22(19)27/h6,8-11,25-26H,7H2,1-5H3",
        "InChIKey": null,
        "Canonical SMILES": "O=C1C2=C(O)C=3C=CC(OC3C=C2OC4=CC(O)=C(OC)C(=C14)CC=C(C)C)(C)C",
        "Molecular Formula": "C<sub>24</sub>H<sub>24</sub>O<sub>6</sub>",
        "Molecular Mass": "408.44",
        "Melting Point": "155-157 °C"
    }
}