{
    "cas_no": "1903-22-6",
    "key_name": "Acetic acid, 2-cyclopentylidene-, ethyl ester",
    "cn_name": null,
    "alternate_name": "Acetic acid, 2-cyclopentylidene-, ethyl ester;Δ<sup>1,α</sup>-Cyclopentaneacetic acid, ethyl ester;Acetic acid, cyclopentylidene-, ethyl ester;Carbethoxymethylenecyclopentane;Ethyl cyclopentylideneacetate;Ethyl 2-cyclopentylideneacetate",
    "duplicated_cas_no": "",
    "SMILES": "C(C(OCC)=O)=C1CCCC1",
    "meta_data": {
        "InChI": "InChI=1S/C9H14O2/c1-2-11-9(10)7-8-5-3-4-6-8/h7H,2-6H2,1H3",
        "InChIKey": null,
        "Canonical SMILES": "O=C(OCC)C=C1CCCC1",
        "Molecular Formula": "C<sub>9</sub>H<sub>14</sub>O<sub>2</sub>",
        "Molecular Mass": "154.21",
        "Boiling Point": "71-72.5 °C @ Press: 1 Torr",
        "Melting Point": "82-84 °C"
    }
}