{
    "cas_no": "32501-05-6",
    "key_name": "1,3-Dihydro-2<em>H</em>-pyrrolo[3,2-<em>b</em>]pyridin-2-one",
    "cn_name": "1,3-二氢-2H-吡咯并[3,2-b]吡啶-2-酮;",
    "alternate_name": "2<em>H</em>-Pyrrolo[3,2-<em>b</em>]pyridin-2-one, 1,3-dihydro-;1,3-Dihydro-2<em>H</em>-pyrrolo[3,2-<em>b</em>]pyridin-2-one;NSC 244253;1,3-Dihydropyrrolo[3,2-<em>b</em>]pyridin-2-one;1<em>H</em>,2<em>H</em>,3<em>H</em>-Pyrrolo[3,2-<em>b</em>]pyridin-2-one",
    "duplicated_cas_no": "",
    "SMILES": "O=C1CC=2C(N1)=CC=CN2",
    "meta_data": {
        "InChI": "InChI=1S/C7H6N2O/c10-7-4-6-5(9-7)2-1-3-8-6/h1-3H,4H2,(H,9,10)",
        "InChIKey": null,
        "Canonical SMILES": "O=C1NC2=CC=CN=C2C1",
        "Molecular Formula": "C<sub>7</sub>H<sub>6</sub>N<sub>2</sub>O",
        "Molecular Mass": "134.14",
        "Melting Point": "204-206 °C"
    }
}