{
    "cas_no": "20063-92-7",
    "key_name": "(3<em>E</em>)-3-Nonene",
    "cn_name": null,
    "alternate_name": "3-Nonene, (3<em>E</em>)-;3-Nonene, (<em>E</em>)-;(3<em>E</em>)-3-Nonene;<em>trans</em>-3-Nonene;(<em>E</em>)-3-Nonene;γ-<em>trans</em>-Nonene;NSC 97534",
    "duplicated_cas_no": "",
    "SMILES": "C(CCCC)/C=C/CC",
    "meta_data": {
        "InChI": "InChI=1S/C9H18/c1-3-5-7-9-8-6-4-2/h5,7H,3-4,6,8-9H2,1-2H3/b7-5+",
        "InChIKey": null,
        "Canonical SMILES": "C(=CCCCCC)CC",
        "Molecular Formula": "C<sub>9</sub>H<sub>18</sub>",
        "Molecular Mass": "126.24",
        "Boiling Point": "147.5 °C"
    }
}