{
    "cas_no": "1125-88-8",
    "key_name": "Benzaldehyde dimethyl acetal",
    "cn_name": "苯甲醛二甲缩醛;苯甲醛缩二甲醇;",
    "alternate_name": "Benzene, (dimethoxymethyl)-;Benzaldehyde, dimethyl acetal;(Dimethoxymethyl)benzene;α,α-Dimethoxytoluene;Dimethoxyphenylmethane;Phenyldimethoxymethane;α-Methoxybenzyl methyl ether;NSC 286137;Benzaldehyde dimethyl acetal",
    "duplicated_cas_no": "",
    "SMILES": "C(OC)(OC)C1=CC=CC=C1",
    "meta_data": {
        "InChI": "InChI=1S/C9H12O2/c1-10-9(11-2)8-6-4-3-5-7-8/h3-7,9H,1-2H3",
        "InChIKey": null,
        "Canonical SMILES": "O(C)C(OC)C=1C=CC=CC1",
        "Molecular Formula": "C<sub>9</sub>H<sub>12</sub>O<sub>2</sub>",
        "Molecular Mass": "152.19",
        "Boiling Point": "117-119 °C @ Press: 25 Torr",
        "Density": "1.0314 g/cm³ @ Temp: 20 °C"
    }
}