{
    "cas_no": "1076-56-8",
    "key_name": "Thymol methyl ether",
    "cn_name": null,
    "alternate_name": "Benzene, 2-methoxy-4-methyl-1-(1-methylethyl)-;Anisole, 2-isopropyl-5-methyl-;2-Methoxy-4-methyl-1-(1-methylethyl)benzene;Thymol methyl ether;Thymyl methyl ether;Methyl thymyl ether;3-Methoxy-<em>p</em>-cymene;4-Isopropyl-3-methoxytoluene;2-Isopropyl-5-methylanisole;<em>O</em>-Methylthymol;Methyl thymol ether;1-Isopropyl-2-methoxy-4-methylbenzene;NSC 404221;1-Methyl-3-methoxy-4-isopropylbenzene;2-Methoxy-4-methyl-1-(propan-2-yl)benzene",
    "duplicated_cas_no": "",
    "SMILES": "O(C)C1=C(C(C)C)C=CC(C)=C1",
    "meta_data": {
        "InChI": "InChI=1S/C11H16O/c1-8(2)10-6-5-9(3)7-11(10)12-4/h5-8H,1-4H3",
        "InChIKey": null,
        "Canonical SMILES": "O(C1=CC(=CC=C1C(C)C)C)C",
        "Molecular Formula": "C<sub>11</sub>H<sub>16</sub>O",
        "Molecular Mass": "164.24",
        "Boiling Point": "210-212 °C",
        "Density": "0.9518 g/cm³ @ Temp: 0 °C"
    }
}