{
    "cas_no": "87-60-5",
    "key_name": "3-Chloro-2-methylaniline",
    "cn_name": "3-氯-2-甲基苯胺;",
    "alternate_name": "Benzenamine, 3-chloro-2-methyl-;<em>o</em>-Toluidine, 3-chloro-;3-Chloro-2-methylbenzenamine;Fast Scarlet TR Base;3-Chloro-2-methylaniline;3-Chloro-<em>o</em>-toluidine;2-Amino-6-chlorotoluene;2-Methyl-3-chloroaniline;6-Chloro-2-aminotoluene;3-Chloro-2-methylphenylamine;<em>o</em>-Methyl-<em>m</em>-chloroaniline;3-Chloro-2-toluidine;Scarlet TR base;6-Chloro-2-amino-1-methylbenzene;NSC 6184;1-Amino-2-methyl-3-chlorobenzene;3-Amino-1-chloro-2-methylbenzene;1-Chloro-2-methyl-3-aminobenzene",
    "duplicated_cas_no": "",
    "SMILES": "CC1=C(Cl)C=CC=C1N",
    "meta_data": {
        "InChI": "InChI=1S/C7H8ClN/c1-5-6(8)3-2-4-7(5)9/h2-4H,9H2,1H3",
        "InChIKey": null,
        "Canonical SMILES": "ClC1=CC=CC(N)=C1C",
        "Molecular Formula": "C<sub>7</sub>H<sub>8</sub>ClN",
        "Molecular Mass": "141.60",
        "Boiling Point": "245 °C @ Press: 760 Torr",
        "Melting Point": "1 °C",
        "Density": "1.177 g/cm³ @ Temp: 20 °C"
    }
}