{
    "cas_no": "6322-49-2",
    "key_name": "4-Chloro-2-butanone",
    "cn_name": null,
    "alternate_name": "2-Butanone, 4-chloro-;4-Chloro-2-butanone;1-Chloro-3-butanone;2-Chloroethyl methyl ketone;β-Chloroethyl methyl ketone;NSC 32104;4-Chlorobutan-2-one",
    "duplicated_cas_no": "",
    "SMILES": "C(C(C)=O)CCl",
    "meta_data": {
        "InChI": "InChI=1S/C4H7ClO/c1-4(6)2-3-5/h2-3H2,1H3",
        "InChIKey": null,
        "Canonical SMILES": "O=C(C)CCCl",
        "Molecular Formula": "C<sub>4</sub>H<sub>7</sub>ClO",
        "Molecular Mass": "106.55",
        "Boiling Point": "53 °C @ Press: 16 Torr",
        "Density": "1.068 g/cm³ @ Temp: 23 °C"
    }
}