{
    "cas_no": "331-62-4",
    "key_name": "3-Fluoro-4-methoxybenzonitrile",
    "cn_name": "3-氟-4-甲氧基苯腈;3-氟-4-甲氧基苯甲腈;",
    "alternate_name": "Benzonitrile, 3-fluoro-4-methoxy-;<em>p</em>-Anisonitrile, 3-fluoro-;3-Fluoro-4-methoxybenzonitrile;4-Methoxy-3-fluorobenzonitrile",
    "duplicated_cas_no": "",
    "SMILES": "C(#N)C1=CC(F)=C(OC)C=C1",
    "meta_data": {
        "InChI": "InChI=1S/C8H6FNO/c1-11-8-3-2-6(5-10)4-7(8)9/h2-4H,1H3",
        "InChIKey": null,
        "Canonical SMILES": "N#CC1=CC=C(OC)C(F)=C1",
        "Molecular Formula": "C<sub>8</sub>H<sub>6</sub>FNO",
        "Molecular Mass": "151.14",
        "Boiling Point": "96-98 °C @ Press: 1.5 Torr",
        "Melting Point": "96.5 °C"
    }
}