{
    "cas_no": "581802-26-8",
    "key_name": "(3<em>E</em>)-2-Methyl-4-(4,4,5,5-tetramethyl-1,3,2-dioxaborolan-2-yl)-3-buten-2-ol",
    "cn_name": null,
    "alternate_name": "3-Buten-2-ol, 2-methyl-4-(4,4,5,5-tetramethyl-1,3,2-dioxaborolan-2-yl)-, (3<em>E</em>)-;(3<em>E</em>)-2-Methyl-4-(4,4,5,5-tetramethyl-1,3,2-dioxaborolan-2-yl)-3-buten-2-ol;(E)-2-Methyl-4-(4,4,5,5-tetramethyl-1,3,2-dioxaborolan-2-yl)but-3-en-2-ol",
    "duplicated_cas_no": "",
    "SMILES": "C(=C/C(C)(C)O)\\B1OC(C)(C)C(C)(C)O1",
    "meta_data": {
        "InChI": "InChI=1S/C11H21BO3/c1-9(2,13)7-8-12-14-10(3,4)11(5,6)15-12/h7-8,13H,1-6H3/b8-7+",
        "InChIKey": null,
        "Canonical SMILES": "OC(C=CB1OC(C)(C)C(O1)(C)C)(C)C",
        "Molecular Formula": "C<sub>11</sub>H<sub>21</sub>BO<sub>3</sub>",
        "Molecular Mass": "212.09",
        "Boiling Point": "70-80 °C @ Press: 0.1 Torr"
    }
}