{
    "cas_no": "135-73-9",
    "key_name": "1-[1,1′-Biphenyl]-4-yl-2-bromoethanone",
    "cn_name": null,
    "alternate_name": "Ethanone, 1-[1,1′-biphenyl]-4-yl-2-bromo-;Acetophenone, 2-bromo-4′-phenyl-;1-[1,1′-Biphenyl]-4-yl-2-bromoethanone;2-Bromo-4′-phenylacetophenone;<em>p</em>-Phenylphenacyl bromide;α-Bromo-<em>p</em>-phenylacetophenone;ω-Bromo-4-phenylacetophenone;Bromomethyl <em>p</em>-biphenylyl ketone;4-Phenylphenacyl bromide;<em>p</em>-(Bromoacetyl)biphenyl;4-(Bromoacetyl)biphenyl;Bromomethyl 4-phenylphenyl ketone;1-(2-Bromo-1-oxoethyl)-4-phenylbenzene;α-Bromo-4-phenylacetophenone;4-Phenyl-α-bromoacetophenone;NSC 37117;1-Biphenyl-4-yl-2-bromoethanone;4-Phenyl-2′-bromoacetophenone;2-Bromo(1-biphenyl-4-yl)ethanone;2-Bromo-1-(4-phenylphenyl)ethanone;4-Bromoacetyl-1,1′-biphenyl;4-(2-Bromoacetyl)biphenyl;1-(1,1′-Biphenyl-4-yl)-2-bromoethan-1-one;2-Bromo-1-(4-phenylphenyl)ethan-1-one",
    "duplicated_cas_no": "51672-88-9",
    "SMILES": "C(CBr)(=O)C1=CC=C(C=C1)C2=CC=CC=C2",
    "meta_data": {
        "InChI": "InChI=1S/C14H11BrO/c15-10-14(16)13-8-6-12(7-9-13)11-4-2-1-3-5-11/h1-9H,10H2",
        "InChIKey": null,
        "Canonical SMILES": "O=C(C=1C=CC(=CC1)C=2C=CC=CC2)CBr",
        "Molecular Formula": "C<sub>14</sub>H<sub>11</sub>BrO",
        "Molecular Mass": "275.14",
        "Melting Point": "126-127 °C"
    }
}