{
    "cas_no": "1205-02-3",
    "key_name": "<em>N</em>-Benzoyl-<span class=\"text-smallcaps\">DL</span>-alanine",
    "cn_name": "N-苄基-DL-丙氨酸;N-苯甲酰-DL-丙氨酸;",
    "alternate_name": "Alanine, <em>N</em>-benzoyl-;Alanine, <em>N</em>-benzoyl-, <span class=\"text-smallcaps\">DL</span>-;<em>N</em>-Benzoylalanine;Benzoyl-<span class=\"text-smallcaps\">DL</span>-alanine;<em>N</em>-Benzoyl-<span class=\"text-smallcaps\">DL</span>-alanine;<span class=\"text-smallcaps\">DL</span>-<em>N</em>-Benzoylalanine;NSC 8069;2-Benzamidopropanoic acid;2-Benzoylamino-propionic acid;2-(Phenylformamido)propanoic acid",
    "duplicated_cas_no": "",
    "SMILES": "C(NC(C(O)=O)C)(=O)C1=CC=CC=C1",
    "meta_data": {
        "InChI": "InChI=1S/C10H11NO3/c1-7(10(13)14)11-9(12)8-5-3-2-4-6-8/h2-7H,1H3,(H,11,12)(H,13,14)",
        "InChIKey": null,
        "Canonical SMILES": "O=C(O)C(NC(=O)C=1C=CC=CC1)C",
        "Molecular Formula": "C<sub>10</sub>H<sub>11</sub>NO<sub>3</sub>",
        "Molecular Mass": "193.20",
        "Melting Point": "165.5 °C"
    }
}