{
    "cas_no": "6214-18-2",
    "key_name": "Isopropyl benzenesulfonate",
    "cn_name": "苯磺酸异丙酯;",
    "alternate_name": "Benzenesulfonic acid, 1-methylethyl ester;Benzenesulfonic acid, isopropyl ester;Isopropyl benzenesulfonate;1-Methylethyl benzenesulfonate",
    "duplicated_cas_no": "",
    "SMILES": "S(OC(C)C)(=O)(=O)C1=CC=CC=C1",
    "meta_data": {
        "InChI": "InChI=1S/C9H12O3S/c1-8(2)12-13(10,11)9-6-4-3-5-7-9/h3-8H,1-2H3",
        "InChIKey": null,
        "Canonical SMILES": "O=S(=O)(OC(C)C)C=1C=CC=CC1",
        "Molecular Formula": "C<sub>9</sub>H<sub>12</sub>O<sub>3</sub>S",
        "Molecular Mass": "200.25",
        "Boiling Point": "155 °C @ Press: 7 Torr",
        "Density": "1.145 g/cm³ @ Temp: 20 °C"
    }
}