{
    "cas_no": "51857-11-5",
    "key_name": "Sternbin",
    "cn_name": null,
    "alternate_name": "4<em>H</em>-1-Benzopyran-4-one, 2-(3,4-dihydroxyphenyl)-2,3-dihydro-5-hydroxy-7-methoxy-, (2<em>S</em>)-;4<em>H</em>-1-Benzopyran-4-one, 2-(3,4-dihydroxyphenyl)-2,3-dihydro-5-hydroxy-7-methoxy-, (<em>S</em>)-;(2<em>S</em>)-2-(3,4-Dihydroxyphenyl)-2,3-dihydro-5-hydroxy-7-methoxy-4<em>H</em>-1-benzopyran-4-one;7-<em>O</em>-Methyleriodictyol;Eriodictyol 7-methyl ether;7-Methyleriodictyol;Sternbin;Sterubin",
    "duplicated_cas_no": "116822-58-3",
    "SMILES": "O=C1C=2C(O[C@@H](C1)C3=CC(O)=C(O)C=C3)=CC(OC)=CC2O",
    "meta_data": {
        "InChI": "InChI=1S/C16H14O6/c1-21-9-5-12(19)16-13(20)7-14(22-15(16)6-9)8-2-3-10(17)11(18)4-8/h2-6,14,17-19H,7H2,1H3/t14-/m0/s1",
        "InChIKey": null,
        "Canonical SMILES": "O=C1C2=C(O)C=C(OC)C=C2OC(C3=CC=C(O)C(O)=C3)C1",
        "Molecular Formula": "C<sub>16</sub>H<sub>14</sub>O<sub>6</sub>",
        "Molecular Mass": "302.28",
        "Melting Point": "215 °C"
    }
}