{
    "cas_no": "1107-00-2",
    "key_name": "4,4′-(Hexafluoroisopropylidene)diphthalic anhydride",
    "cn_name": "4,4\"-(六氟异丙烯)二酞酸酐;六氟二酐;",
    "alternate_name": "1,3-Isobenzofurandione, 5,5′-[2,2,2-trifluoro-1-(trifluoromethyl)ethylidene]bis-;Phthalic anhydride, 4,4′-[trifluoro-1-(trifluoromethyl)ethylidene]di-;Phthalic anhydride, 4,4′-[2,2,2-trifluoro-1-(trifluoromethyl)ethylidene]di-;5,5′-[2,2,2-Trifluoro-1-(trifluoromethyl)ethylidene]bis[1,3-isobenzofurandione];2,2-Bis(3,4-dicarboxyphenyl)hexafluoropropane dianhydride;[2,2,2-Trifluoro-1-(trifluoromethyl)ethylidene]diphthalic anhydride;Hexafluoroisopropylidene-2,2-bis(phthalic anhydride);6FDA;4,4′-(Hexafluoroisopropylidene)bis(phthalic anhydride);4,4′-(Hexafluoroisopropylidene)diphthalic anhydride;Hexafluoroisopropylbis(phthalic dianhydride);4,4′-Hexafluoroisopropylidenebisphthalic dianhydride;2,2-Bis(3,4-dicarboxyphenyl)-1,1,1,3,3,3-hexafluoropropane dianhydride;4,4′-Hexafluoroisopropylidenebis(benzene-1,2-dicarboxylic acid dianhydride);4,4′-(Hexafluoroisopropylidene)diphthalic dianhydride;4,4′-Hexafluoropropylidene bisphthalic acid dianhydride;6FPA;4,4′-(2,2-Hexafluoroisopropylidene)diphthalic acid dianhydride;4,4′-(Hexafluoroisopropylidene) biphthalic anhydride;H 1438;2,2′-Bis(3,4′-dicarboxyphenyl)hexafluoropropane dianhydride;4,4′-(Hexafluoroisopropylidene)diphthalic acid anhydride;5,5′-(Perfluoropropane-2,2-diyl)bis(isobenzofuran-1,3-dione);4,4′-(2,2-Hexafluoroisopropylidene)diphthalic dianhydride;4,4-(Hexafluoroisopropylidene)diphthalic anhydride;4,4′-(Hexafluoroisopropylidene)diphthalic acid dianhydride;4,4′-(Hexafluoroisopropyridene)diphthalic anhydride;H 0771;4,4′-(Hexafluoroisopropylene)diphthalic anhydride",
    "duplicated_cas_no": "144423-35-8;163915-35-3;215233-32-2;900812-15-9;1300617-21-3",
    "SMILES": "C(C(F)(F)F)(C(F)(F)F)(C=1C=C2C(=CC1)C(=O)OC2=O)C=3C=C4C(=CC3)C(=O)OC4=O",
    "meta_data": {
        "InChI": "InChI=1S/C19H6F6O6/c20-18(21,22)17(19(23,24)25,7-1-3-9-11(5-7)15(28)30-13(9)26)8-2-4-10-12(6-8)16(29)31-14(10)27/h1-6H",
        "InChIKey": null,
        "Canonical SMILES": "O=C1OC(=O)C2=CC(=CC=C12)C(C3=CC=C4C(=O)OC(=O)C4=C3)(C(F)(F)F)C(F)(F)F",
        "Molecular Formula": "C<sub>19</sub>H<sub>6</sub>F<sub>6</sub>O<sub>6</sub>",
        "Molecular Mass": "444.24",
        "Melting Point": "250-254 °C"
    }
}