{
    "cas_no": "697761-98-1",
    "key_name": "Elvitegravir",
    "cn_name": null,
    "alternate_name": "3-Quinolinecarboxylic acid, 6-[(3-chloro-2-fluorophenyl)methyl]-1,4-dihydro-1-[(1<em>S</em>)-1-(hydroxymethyl)-2-methylpropyl]-7-methoxy-4-oxo-;6-[(3-Chloro-2-fluorophenyl)methyl]-1,4-dihydro-1-[(1<em>S</em>)-1-(hydroxymethyl)-2-methylpropyl]-7-methoxy-4-oxo-3-quinolinecarboxylic acid;1,4-Dihydro-6-(3-chloro-2-fluorobenzyl)-7-methoxy-1-[(1S)-1-(hydroxymethyl)-2-methylpropyl]-4-oxo-3-quinolinecarboxylic acid;JTK 303;GS 9137;Elvitegravir;6-(3-Chloro-2-fluorobenzyl)-1-[(<em>S</em>)-1-hydroxymethyl-2-methylpropyl]-7-methoxy-4-oxo-1,4-dihydroquinoline-3-carboxylic acid;Vitekta",
    "duplicated_cas_no": "",
    "SMILES": "[C@H](C(C)C)(CO)N1C=2C(=CC(CC3=C(F)C(Cl)=CC=C3)=C(OC)C2)C(=O)C(C(O)=O)=C1",
    "meta_data": {
        "InChI": "InChI=1S/C23H23ClFNO5/c1-12(2)19(11-27)26-10-16(23(29)30)22(28)15-8-14(20(31-3)9-18(15)26)7-13-5-4-6-17(24)21(13)25/h4-6,8-10,12,19,27H,7,11H2,1-3H3,(H,29,30)/t19-/m1/s1",
        "InChIKey": null,
        "Canonical SMILES": "O=C(O)C1=CN(C2=CC(OC)=C(C=C2C1=O)CC=3C=CC=C(Cl)C3F)C(CO)C(C)C",
        "Molecular Formula": "C<sub>23</sub>H<sub>23</sub>ClFNO<sub>5</sub>",
        "Molecular Mass": "447.88",
        "Melting Point": "151-152 °C"
    }
}