{
    "cas_no": "16096-32-5",
    "key_name": "4-Methylindole",
    "cn_name": "4-甲基吲哚;",
    "alternate_name": "1<em>H</em>-Indole, 4-methyl-;Indole, 4-methyl-;4-Methyl-1<em>H</em>-indole;4-Methylindole",
    "duplicated_cas_no": "",
    "SMILES": "CC1=C2C(=CC=C1)NC=C2",
    "meta_data": {
        "InChI": "InChI=1S/C9H9N/c1-7-3-2-4-9-8(7)5-6-10-9/h2-6,10H,1H3",
        "InChIKey": null,
        "Canonical SMILES": "C=1C=C2NC=CC2=C(C1)C",
        "Molecular Formula": "C<sub>9</sub>H<sub>9</sub>N",
        "Molecular Mass": "131.17",
        "Boiling Point": "267 °C",
        "Melting Point": "5 °C",
        "Density": "1.062 g/cm³ @ Temp: 20 °C"
    }
}