{
    "cas_no": "4485-09-0",
    "key_name": "4-Nonanone",
    "cn_name": "4-壬酮;戊丙基酮;",
    "alternate_name": "4-Nonanone;Propyl amyl ketone;Pentyl propyl ketone",
    "duplicated_cas_no": "",
    "SMILES": "C(C(CCC)=O)CCCC",
    "meta_data": {
        "InChI": "InChI=1S/C9H18O/c1-3-5-6-8-9(10)7-4-2/h3-8H2,1-2H3",
        "InChIKey": null,
        "Canonical SMILES": "O=C(CCC)CCCCC",
        "Molecular Formula": "C<sub>9</sub>H<sub>18</sub>O",
        "Molecular Mass": "142.24",
        "Boiling Point": "187.5 °C",
        "Density": "0.8257 g/cm³ @ Temp: 20 °C"
    }
}