{
    "cas_no": "542-69-8",
    "key_name": "Butyl iodide",
    "cn_name": "碘丁烷;碘代正丁烷;",
    "alternate_name": "Butane, 1-iodo-;1-Iodobutane;Butyl iodide;<em>n</em>-Butyl iodide;NSC 8420;1-Iodo-<em>n</em>-butane;4-Iodobutane;Butyl iodo",
    "duplicated_cas_no": "",
    "SMILES": "C(CC)CI",
    "meta_data": {
        "InChI": "InChI=1S/C4H9I/c1-2-3-4-5/h2-4H2,1H3",
        "InChIKey": null,
        "Canonical SMILES": "ICCCC",
        "Molecular Formula": "C<sub>4</sub>H<sub>9</sub>I",
        "Molecular Mass": "184.02",
        "Boiling Point": "130.6 °C",
        "Melting Point": "-103 °C",
        "Density": "1.6171 g/cm³ @ Temp: 20 °C"
    }
}