{
    "cas_no": "779-27-1",
    "key_name": "7-Hydroxycoumarin-3-carboxylic acid",
    "cn_name": "7-羟基香豆素-3-羧酸;",
    "alternate_name": "2<em>H</em>-1-Benzopyran-3-carboxylic acid, 7-hydroxy-2-oxo-;7-Hydroxy-2-oxo-2<em>H</em>-1-benzopyran-3-carboxylic acid;3-Carboxy-7-hydroxycoumarin;Umbelliferone-3-carboxylic acid;7-Hydroxycoumarin-3-carboxylic acid;3-Carboxyumbelliferone;NSC 115545;7-Hydroxycoumarin carboxylic acid;7-Hydroxycoumarinyl-3-carboxylic acid;7-Hydroxy-2-oxobenzopyran-3-carboxylic acid",
    "duplicated_cas_no": "",
    "SMILES": "O=C1OC=2C(C=C1C(O)=O)=CC=C(O)C2",
    "meta_data": {
        "InChI": "InChI=1S/C10H6O5/c11-6-2-1-5-3-7(9(12)13)10(14)15-8(5)4-6/h1-4,11H,(H,12,13)",
        "InChIKey": null,
        "Canonical SMILES": "O=C(O)C1=CC=2C=CC(O)=CC2OC1=O",
        "Molecular Formula": "C<sub>10</sub>H<sub>6</sub>O<sub>5</sub>",
        "Molecular Mass": "206.15",
        "Melting Point": "271 °C (decomp)"
    }
}