{
    "cas_no": "1345-07-9",
    "key_name": "Bismuth sulfide (Bi<sub>2</sub>S<sub>3</sub>)",
    "cn_name": "硫化铋(III);",
    "alternate_name": "Bismuth sulfide (Bi<sub>2</sub>S<sub>3</sub>);C.I. 77172;Bismuth sulfide;Bismuth(3+) sulfide;Bismuth sesquisulfide;Dibismuth trisulfide;AustroTec Bis 84;BIS 83",
    "duplicated_cas_no": "",
    "SMILES": "",
    "meta_data": {
        "InChI": "",
        "InChIKey": null,
        "Canonical SMILES": "",
        "Molecular Formula": "Bi<sub>2</sub>S<sub>3</sub>",
        "Molecular Mass": "",
        "Melting Point": "685 °C",
        "Density": "6 g/cm³"
    }
}