{
    "uri": "substance/pt/1345079",
    "rn": "1345-07-9",
    "name": "Bismuth sulfide (Bi<sub>2</sub>S<sub>3</sub>)",
    "images": [],
    "inchi": "",
    "inchiKey": "",
    "smile": "",
    "canonicalSmile": "",
    "molecularFormula": "Bi<sub>2</sub>S<sub>3</sub>",
    "molecularMass": "",
    "experimentalProperties": [
        {
            "name": "Melting Point",
            "property": "685 °C",
            "sourceNumber": 1
        },
        {
            "name": "Density",
            "property": "6 g/cm³",
            "sourceNumber": 1
        }
    ],
    "propertyCitations": [
        {
            "docUri": "document/pt/document/29020288",
            "sourceNumber": 1,
            "source": "Rohr, Otto; NLGI Spokesman, (2006), 69(12), 8-13, CAplus"
        }
    ],
    "synonyms": [
        "Bismuth sulfide (Bi<sub>2</sub>S<sub>3</sub>)",
        "C.I. 77172",
        "Bismuth sulfide",
        "Bismuth(3+) sulfide",
        "Bismuth sesquisulfide",
        "Dibismuth trisulfide",
        "AustroTec Bis 84",
        "BIS 83"
    ],
    "replacedRns": [],
    "hasMolfile": false,
    "source": "https://commonchemistry.cas.org/detail?cas_rn=1345-07-9"
}