{
    "cas_no": "2650-65-9",
    "key_name": "<span class=\"text-smallcaps\">L</span>-Glutaminylglycine",
    "cn_name": null,
    "alternate_name": "Glycine, <span class=\"text-smallcaps\">L</span>-glutaminyl-;Glycine, <em>N</em>-<span class=\"text-smallcaps\">L</span>-glutaminyl-;<span class=\"text-smallcaps\">L</span>-Glutaminylglycine;NSC 350592;60: PN: US20070191366 TABLE: 5 claimed protein;41: PN: WO2014063098 TABLE: 5 claimed sequence;156: PN: US20130123467 SEQID: 187 claimed protein;6: PN: US20150203546 PAGE: 78 claimed sequence;(<em>S</em>)-2-(2,5-Diamino-5-oxopentamido)acetic acid;(<em>S</em>)-2-(2,5-Diamino-5-oxopentanamido)acetic acid",
    "duplicated_cas_no": "",
    "SMILES": "[C@@H](C(NCC(O)=O)=O)(CCC(N)=O)N",
    "meta_data": {
        "InChI": "InChI=1S/C7H13N3O4/c8-4(1-2-5(9)11)7(14)10-3-6(12)13/h4H,1-3,8H2,(H2,9,11)(H,10,14)(H,12,13)/t4-/m0/s1",
        "InChIKey": null,
        "Canonical SMILES": "O=C(O)CNC(=O)C(N)CCC(=O)N",
        "Molecular Formula": "C<sub>7</sub>H<sub>13</sub>N<sub>3</sub>O<sub>4</sub>",
        "Molecular Mass": "203.20",
        "Melting Point": "163-165 °C"
    }
}