{
    "cas_no": "55861-78-4",
    "key_name": "Isouron",
    "cn_name": "异恶隆;3-(5-叔丁基-3-异恶唑基)-1,1-二甲基脲；爱速隆;",
    "alternate_name": "Urea, <em>N</em>′-[5-(1,1-dimethylethyl)-3-isoxazolyl]-<em>N</em>,<em>N</em>-dimethyl-;<em>N</em>′-[5-(1,1-Dimethylethyl)-3-isoxazolyl]-<em>N</em>,<em>N</em>-dimethylurea;Isouron;1,1-Dimethyl-3-(5-<em>tert</em>-butyl-3-isoxazolyl)urea;Isuron",
    "duplicated_cas_no": "",
    "SMILES": "C(C)(C)(C)C1=CC(NC(N(C)C)=O)=NO1",
    "meta_data": {
        "InChI": "InChI=1S/C10H17N3O2/c1-10(2,3)7-6-8(12-15-7)11-9(14)13(4)5/h6H,1-5H3,(H,11,12,14)",
        "InChIKey": null,
        "Canonical SMILES": "O=C(NC1=NOC(=C1)C(C)(C)C)N(C)C",
        "Molecular Formula": "C<sub>10</sub>H<sub>17</sub>N<sub>3</sub>O<sub>2</sub>",
        "Molecular Mass": "211.26",
        "Melting Point": "119.5 °C"
    }
}