{
    "cas_no": "5683-33-0",
    "key_name": "2-(Dimethylamino)pyridine",
    "cn_name": "2-二甲氨基吡啶;2-二甲基氨基吡啶;",
    "alternate_name": "2-Pyridinamine, <em>N</em>,<em>N</em>-dimethyl-;Pyridine, 2-(dimethylamino)-;<em>N</em>,<em>N</em>-Dimethyl-2-pyridinamine;2-(Dimethylamino)pyridine;NSC 93902;2,6-Dimethyl-3-pyridinylamine;<em>N</em>,<em>N</em>-Dimethylpyridin-2-ylamine",
    "duplicated_cas_no": "",
    "SMILES": "N(C)(C)C1=CC=CC=N1",
    "meta_data": {
        "InChI": "InChI=1S/C7H10N2/c1-9(2)7-5-3-4-6-8-7/h3-6H,1-2H3",
        "InChIKey": null,
        "Canonical SMILES": "N=1C=CC=CC1N(C)C",
        "Molecular Formula": "C<sub>7</sub>H<sub>10</sub>N<sub>2</sub>",
        "Molecular Mass": "122.17",
        "Boiling Point": "196 °C",
        "Melting Point": "182 °C",
        "Density": "1.0157 g/cm³ @ Temp: 14 °C"
    }
}