{
    "cas_no": "99-71-8",
    "key_name": "4-<em>sec</em>-Butylphenol",
    "cn_name": "4-仲丁基苯酚;对仲丁基苯酚;",
    "alternate_name": "Phenol, 4-(1-methylpropyl)-;Phenol, <em>p</em>-<em>sec</em>-butyl-;4-(1-Methylpropyl)phenol;<em>p</em>-<em>sec</em>-Butylphenol;4-<em>sec</em>-Butylphenol;4-(2-Butyl)phenol;NSC 2210;(±)-4-<em>sec</em>-Butylphenol;4-(Butan-2-yl)phenol",
    "duplicated_cas_no": "",
    "SMILES": "C(CC)(C)C1=CC=C(O)C=C1",
    "meta_data": {
        "InChI": "InChI=1S/C10H14O/c1-3-8(2)9-4-6-10(11)7-5-9/h4-8,11H,3H2,1-2H3",
        "InChIKey": null,
        "Canonical SMILES": "OC1=CC=C(C=C1)C(C)CC",
        "Molecular Formula": "C<sub>10</sub>H<sub>14</sub>O",
        "Molecular Mass": "150.22",
        "Boiling Point": "241 °C",
        "Melting Point": "61.5 °C",
        "Density": "0.9883 g/cm³ @ Temp: 20 °C"
    }
}