{
    "cas_no": "6548-09-0",
    "key_name": "5-Bromo-<span class=\"text-smallcaps\">DL</span>-tryptophan",
    "cn_name": "5-溴-DL-色氨酸;5-溴-DL-色氨酸;",
    "alternate_name": "Tryptophan, 5-bromo-;Tryptophan, 5-bromo-, <span class=\"text-smallcaps\">DL</span>-;<span class=\"text-smallcaps\">DL</span>-Tryptophan, 5-bromo-;5-Bromotryptophan;<span class=\"text-smallcaps\">DL</span>-5-Bromotryptophan;5-Bromo-<span class=\"text-smallcaps\">DL</span>-tryptophan;NSC 88149;2-Amino-3-(5-bromo-1<em>H</em>-indol-3-yl)propionic acid;2-Amino-3-(5-bromo-1<em>H</em>-indol-3-yl)propanoic acid",
    "duplicated_cas_no": "",
    "SMILES": "C(C(C(O)=O)N)C=1C=2C(NC1)=CC=C(Br)C2",
    "meta_data": {
        "InChI": "InChI=1S/C11H11BrN2O2/c12-7-1-2-10-8(4-7)6(5-14-10)3-9(13)11(15)16/h1-2,4-5,9,14H,3,13H2,(H,15,16)",
        "InChIKey": null,
        "Canonical SMILES": "O=C(O)C(N)CC1=CNC=2C=CC(Br)=CC21",
        "Molecular Formula": "C<sub>11</sub>H<sub>11</sub>BrN<sub>2</sub>O<sub>2</sub>",
        "Molecular Mass": "283.12",
        "Melting Point": "261-262 °C"
    }
}