{
    "cas_no": "489-86-1",
    "key_name": "(-)-Guaiol",
    "cn_name": "[3S-(3&alpha;,5&alpha;,8&alpha;)]-1,2,3,4,5,6,7,8-八氢化-&alpha;,&alpha;-3,8-四甲基-5-奥甲醇;",
    "alternate_name": "5-Azulenemethanol, 1,2,3,4,5,6,7,8-octahydro-α,α,3,8-tetramethyl-, (3<em>S</em>,5<em>R</em>,8<em>S</em>)-;Guaiol;Guai-1(5)-en-11-ol;5-Azulenemethanol, 1,2,3,4,5,6,7,8-octahydro-α,α,3,8-tetramethyl-, [3<em>S</em>-(3α,5α,8α)]-;5-Azulenemethanol, 1,2,3,4,5β,6,7,8-octahydro-α,α,3α,8α-tetramethyl-;(3<em>S</em>,5<em>R</em>,8<em>S</em>)-1,2,3,4,5,6,7,8-Octahydro-α,α,3,8-tetramethyl-5-azulenemethanol;Champaca camphor;Champacol;3,8-Dimethyl-5-α-hydroxyisopropyl-Δ<sup>9</sup>-octahydroazulene;Guaiac alcohol;(-)-Guaiol;NSC 19941;2-((3<em>S</em>,5<em>R</em>,8<em>S</em>)-3,8-Dimethyl-1,2,3,4,5,6,7,8-octahydroazulen-5-yl)propan-2-ol",
    "duplicated_cas_no": "",
    "SMILES": "C[C@@H]1C2=C([C@@H](C)CC[C@@H](C(C)(C)O)C2)CC1",
    "meta_data": {
        "InChI": "InChI=1S/C15H26O/c1-10-5-7-12(15(3,4)16)9-14-11(2)6-8-13(10)14/h10-12,16H,5-9H2,1-4H3/t10-,11-,12+/m0/s1",
        "InChIKey": null,
        "Canonical SMILES": "OC(C)(C)C1CC2=C(CCC2C)C(C)CC1",
        "Molecular Formula": "C<sub>15</sub>H<sub>26</sub>O",
        "Molecular Mass": "222.37",
        "Boiling Point": "132-136 °C @ Press: 10 Torr",
        "Melting Point": "91 °C",
        "Density": "0.9714 g/cm³ @ Temp: 20 °C"
    }
}