{
    "cas_no": "13482-22-9",
    "key_name": "4-Hydroxycyclohexanone",
    "cn_name": "4-羟基环己酮;",
    "alternate_name": "Cyclohexanone, 4-hydroxy-;4-Hydroxycyclohexanone;<em>p</em>-Hydroxycyclohexanone;4-Hydroxycyclohexan-1-one",
    "duplicated_cas_no": "",
    "SMILES": "OC1CCC(=O)CC1",
    "meta_data": {
        "InChI": "InChI=1S/C6H10O2/c7-5-1-2-6(8)4-3-5/h5,7H,1-4H2",
        "InChIKey": null,
        "Canonical SMILES": "O=C1CCC(O)CC1",
        "Molecular Formula": "C<sub>6</sub>H<sub>10</sub>O<sub>2</sub>",
        "Molecular Mass": "114.14",
        "Boiling Point": "83-85 °C",
        "Melting Point": "80-82 °C"
    }
}