{
    "cas_no": "104829-98-3",
    "key_name": "2-Bromo-4,6-dimethyl-3-pyridinamine",
    "cn_name": null,
    "alternate_name": "3-Pyridinamine, 2-bromo-4,6-dimethyl-;2-Bromo-4,6-dimethyl-3-pyridinamine;3-Amino-2-bromo-4,6-dimethylpyridine;2-Bromo-4,6-dimethylpyridin-3-amine;2-Bromo-4,6-dimethylpyridin-3-ylamine",
    "duplicated_cas_no": "",
    "SMILES": "NC=1C(C)=CC(C)=NC1Br",
    "meta_data": {
        "InChI": "InChI=1S/C7H9BrN2/c1-4-3-5(2)10-7(8)6(4)9/h3H,9H2,1-2H3",
        "InChIKey": null,
        "Canonical SMILES": "BrC=1N=C(C=C(C1N)C)C",
        "Molecular Formula": "C<sub>7</sub>H<sub>9</sub>BrN<sub>2</sub>",
        "Molecular Mass": "201.06",
        "Melting Point": "61-62 °C"
    }
}