{
    "cas_no": "14357-78-9",
    "key_name": "Diprenorphine",
    "cn_name": "利巴韦林杂质标准品;",
    "alternate_name": "6,14-Ethenomorphinan-7-methanol, 17-(cyclopropylmethyl)-4,5-epoxy-18,19-dihydro-3-hydroxy-6-methoxy-α,α-dimethyl-, (5α,7α)-;6,14-<em>endo</em>-Ethanotetrahydrooripavine, 21-cyclopropyl-7α-(1-hydroxy-1-methylethyl)-;(5α,7α)-17-(Cyclopropylmethyl)-4,5-epoxy-18,19-dihydro-3-hydroxy-6-methoxy-α,α-dimethyl-6,14-ethenomorphinan-7-methanol;Diprenorphine;1-<em>N</em>-Cyclopropylmethyl-6,7,8,14-tetrahydro-6,14-endoethano-7-(2′-hydroxy-2′-propyl)nororipavine;RX 5050M;<em>N</em>-(Cyclopropylmethyl)-19-methylnororvinol;M 5050;M 5050 Injection",
    "duplicated_cas_no": "11116-36-2;17822-04-7;37380-92-0;200929-56-2",
    "SMILES": "O(C)[C@@]12[C@]3([C@]45[C@@]([C@](N(CC6CC6)CC4)(CC7=C5C(O3)=C(O)C=C7)[H])(C[C@@H]1[C@@](C)(C)O)CC2)[H]",
    "meta_data": {
        "InChI": "InChI=1S/C26H35NO4/c1-23(2,29)18-13-24-8-9-26(18,30-3)22-25(24)10-11-27(14-15-4-5-15)19(24)12-16-6-7-17(28)21(31-22)20(16)25/h6-7,15,18-19,22,28-29H,4-5,8-14H2,1-3H3/t18-,19-,22-,24-,25+,26-/m1/s1",
        "InChIKey": null,
        "Canonical SMILES": "OC1=CC=C2C3=C1OC4C5(OC)CCC6(CC5C(O)(C)C)C(N(CCC346)CC7CC7)C2",
        "Molecular Formula": "C<sub>26</sub>H<sub>35</sub>NO<sub>4</sub>",
        "Molecular Mass": "425.56",
        "Melting Point": "185 °C"
    }
}