{
    "cas_no": "6926-08-5",
    "key_name": "Harpagide",
    "cn_name": "哈巴苷;哈帕苷;哈帕甙;瓜钩草苷;",
    "alternate_name": "β-<span class=\"text-smallcaps\">D</span>-Glucopyranoside, (1<em>S</em>,4a<em>S</em>,5<em>R</em>,7<em>S</em>,7a<em>R</em>)-1,4a,5,6,7,7a-hexahydro-4a,5,7-trihydroxy-7-methylcyclopenta[<em>c</em>]pyran-1-yl;Glucopyranoside, 1β,4a,5,6,7,7aα-hexahydro-4aα,5α,7α-trihydroxy-7-methylcyclopenta[<em>c</em>]pyran-1-yl, β-<span class=\"text-smallcaps\">D</span>-;Harpagide;β-<span class=\"text-smallcaps\">D</span>-Glucopyranoside, 1,4a,5,6,7,7a-hexahydro-4a,5,7-trihydroxy-7-methylcyclopenta[<em>c</em>]pyran-1-yl, [1<em>S</em>-(1α,4aα,5α,7α,7aα)]-;(1<em>S</em>,4a<em>S</em>,5<em>R</em>,7<em>S</em>,7a<em>R</em>)-1,4a,5,6,7,7a-Hexahydro-4a,5,7-trihydroxy-7-methylcyclopenta[<em>c</em>]pyran-1-yl β-<span class=\"text-smallcaps\">D</span>-glucopyranoside",
    "duplicated_cas_no": "28629-71-2",
    "SMILES": "O[C@]12[C@]([C@H](O[C@@H]3O[C@H](CO)[C@@H](O)[C@H](O)[C@H]3O)OC=C1)([C@@](C)(O)C[C@H]2O)[H]",
    "meta_data": {
        "InChI": "InChI=1S/C15H24O10/c1-14(21)4-7(17)15(22)2-3-23-13(11(14)15)25-12-10(20)9(19)8(18)6(5-16)24-12/h2-3,6-13,16-22H,4-5H2,1H3/t6-,7-,8-,9+,10-,11-,12+,13+,14+,15-/m1/s1",
        "InChIKey": null,
        "Canonical SMILES": "OCC1OC(OC2OC=CC3(O)C(O)CC(O)(C)C23)C(O)C(O)C1O",
        "Molecular Formula": "C<sub>15</sub>H<sub>24</sub>O<sub>10</sub>",
        "Molecular Mass": "364.35",
        "Melting Point": "129-130 °C"
    }
}