{
    "cas_no": "619-64-7",
    "key_name": "4-Ethylbenzoic acid",
    "cn_name": "对乙基苯甲酸;4-乙基苯甲酸;",
    "alternate_name": "Benzoic acid, 4-ethyl-;Benzoic acid, <em>p</em>-ethyl-;4-Ethylbenzoic acid;<em>p</em>-Ethylbenzoic acid;NSC 59888",
    "duplicated_cas_no": "",
    "SMILES": "C(O)(=O)C1=CC=C(CC)C=C1",
    "meta_data": {
        "InChI": "InChI=1S/C9H10O2/c1-2-7-3-5-8(6-4-7)9(10)11/h3-6H,2H2,1H3,(H,10,11)",
        "InChIKey": null,
        "Canonical SMILES": "O=C(O)C1=CC=C(C=C1)CC",
        "Molecular Formula": "C<sub>9</sub>H<sub>10</sub>O<sub>2</sub>",
        "Molecular Mass": "150.17",
        "Boiling Point": "74-76 °C @ Press: 8 Torr",
        "Melting Point": "112-113 °C",
        "Density": "0.9961 g/cm³ @ Temp: 20 °C"
    }
}