{
    "cas_no": "79463-77-7",
    "key_name": "Diphenyl cyanocarbonimidate",
    "cn_name": "N-氰基羰亚胺二苯基酯;二苯基硝酸氰;",
    "alternate_name": "Carbonimidic acid, <em>N</em>-cyano-, diphenyl ester;Carbonimidic acid, cyano-, diphenyl ester;Diphenyl <em>N</em>-cyanoimidocarbonate;Diphenyl cyanocarbonimidate;Diphenyl <em>N</em>-cyanocarbonimidate;Diphenoxymethylenecyanamide;<em>N</em>-Cyanocarbonimidic acid diphenyl ester",
    "duplicated_cas_no": "",
    "SMILES": "C(OC1=CC=CC=C1)(OC2=CC=CC=C2)=NC#N",
    "meta_data": {
        "InChI": "InChI=1S/C14H10N2O2/c15-11-16-14(17-12-7-3-1-4-8-12)18-13-9-5-2-6-10-13/h1-10H",
        "InChIKey": null,
        "Canonical SMILES": "N#CN=C(OC=1C=CC=CC1)OC=2C=CC=CC2",
        "Molecular Formula": "C<sub>14</sub>H<sub>10</sub>N<sub>2</sub>O<sub>2</sub>",
        "Molecular Mass": "238.24",
        "Melting Point": "156-158 °C"
    }
}