{
    "cas_no": "15248-39-2",
    "key_name": "6,7-Dimethoxyisoquinoline",
    "cn_name": "6,7-二甲氧基异喹啉;",
    "alternate_name": "Isoquinoline, 6,7-dimethoxy-;6,7-Dimethoxyisoquinoline;Backebergine",
    "duplicated_cas_no": "",
    "SMILES": "O(C)C1=CC2=C(C=C1OC)C=NC=C2",
    "meta_data": {
        "InChI": "InChI=1S/C11H11NO2/c1-13-10-5-8-3-4-12-7-9(8)6-11(10)14-2/h3-7H,1-2H3",
        "InChIKey": null,
        "Canonical SMILES": "N=1C=CC=2C=C(OC)C(OC)=CC2C1",
        "Molecular Formula": "C<sub>11</sub>H<sub>11</sub>NO<sub>2</sub>",
        "Molecular Mass": "189.21",
        "Boiling Point": "152-158 °C @ Press: 0.8-0.9 Torr",
        "Melting Point": "89-91 °C"
    }
}