{
    "cas_no": "119309-02-3",
    "key_name": "Atalantoflavone",
    "cn_name": null,
    "alternate_name": "4<em>H</em>,8<em>H</em>-Benzo[1,2-<em>b</em>:3,4-<em>b</em>′]dipyran-4-one, 5-hydroxy-2-(4-hydroxyphenyl)-8,8-dimethyl-;5-Hydroxy-2-(4-hydroxyphenyl)-8,8-dimethyl-4<em>H</em>,8<em>H</em>-benzo[1,2-<em>b</em>:3,4-<em>b</em>′]dipyran-4-one;Atalantoflavone;Limonianin;5,4′-Dihydroxy-7,8-(2,2-dimethylpyrano)flavone",
    "duplicated_cas_no": "",
    "SMILES": "OC=1C2=C(C3=C(C1)OC(C)(C)C=C3)OC(=CC2=O)C4=CC=C(O)C=C4",
    "meta_data": {
        "InChI": "InChI=1S/C20H16O5/c1-20(2)8-7-13-17(25-20)10-15(23)18-14(22)9-16(24-19(13)18)11-3-5-12(21)6-4-11/h3-10,21,23H,1-2H3",
        "InChIKey": null,
        "Canonical SMILES": "O=C1C=C(OC2=C3C=CC(OC3=CC(O)=C12)(C)C)C=4C=CC(O)=CC4",
        "Molecular Formula": "C<sub>20</sub>H<sub>16</sub>O<sub>5</sub>",
        "Molecular Mass": "336.34",
        "Melting Point": "285-293 °C"
    }
}