{
    "cas_no": "142459-58-3",
    "key_name": "Flufenacet",
    "cn_name": "氟噻草胺;N-(4-氟苯基)-N-异丙基-2-[5-(三氟甲基)-1,3,4-噻二唑-2-基氧基]乙酰胺;",
    "alternate_name": "Acetamide, <em>N</em>-(4-fluorophenyl)-<em>N</em>-(1-methylethyl)-2-[[5-(trifluoromethyl)-1,3,4-thiadiazol-2-yl]oxy]-;<em>N</em>-(4-Fluorophenyl)-<em>N</em>-(1-methylethyl)-2-[[5-(trifluoromethyl)-1,3,4-thiadiazol-2-yl]oxy]acetamide;FOE 5043;Thiafluamide;BAY-FOE 5043;Flufenacet;Fluthiamid;Fluthiamide;Define DF;Cadou 500SC;Cevino 500SC",
    "duplicated_cas_no": "",
    "SMILES": "N(C(COC=1SC(C(F)(F)F)=NN1)=O)(C(C)C)C2=CC=C(F)C=C2",
    "meta_data": {
        "InChI": "InChI=1S/C14H13F4N3O2S/c1-8(2)21(10-5-3-9(15)4-6-10)11(22)7-23-13-20-19-12(24-13)14(16,17)18/h3-6,8H,7H2,1-2H3",
        "InChIKey": null,
        "Canonical SMILES": "O=C(N(C1=CC=C(F)C=C1)C(C)C)COC2=NN=C(S2)C(F)(F)F",
        "Molecular Formula": "C<sub>14</sub>H<sub>13</sub>F<sub>4</sub>N<sub>3</sub>O<sub>2</sub>S",
        "Molecular Mass": "363.33",
        "Melting Point": "75-77 °C",
        "Density": "1.312 g/cm³"
    }
}