{
    "cas_no": "22734-04-9",
    "key_name": "1-Cyclopentene-1-acetonitrile",
    "cn_name": "1-环戊烯乙腈;",
    "alternate_name": "1-Cyclopentene-1-acetonitrile;(1-Cyclopenten-1-yl)acetonitrile;1-Cyclopentenylacetonitrile;1-(Cyanomethyl)cyclopentene;2-(Cyclopent-1-en-1-yl)acetonitrile",
    "duplicated_cas_no": "",
    "SMILES": "C(C#N)C=1CCCC1",
    "meta_data": {
        "InChI": "InChI=1S/C7H9N/c8-6-5-7-3-1-2-4-7/h3H,1-2,4-5H2",
        "InChIKey": null,
        "Canonical SMILES": "N#CCC1=CCCC1",
        "Molecular Formula": "C<sub>7</sub>H<sub>9</sub>N",
        "Molecular Mass": "107.15",
        "Boiling Point": "99 °C @ Press: 33 Torr",
        "Density": "0.93949 g/cm³ @ Temp: 20.5 °C"
    }
}