{
    "cas_no": "622-96-8",
    "key_name": "1-Ethyl-4-methylbenzene",
    "cn_name": "4-乙基甲苯;对乙基甲苯;",
    "alternate_name": "Benzene, 1-ethyl-4-methyl-;Toluene, <em>p</em>-ethyl-;1-Ethyl-4-methylbenzene;1-Methyl-4-ethylbenzene;4-Ethyltoluene;<em>p</em>-Ethyltoluene;<em>p</em>-Methylethylbenzene;<em>p</em>-Ethylmethylbenzene;4-Methylethylbenzene;p-Ethyltoluene;NSC 74177;4-Methyl-1-ethylbenzene",
    "duplicated_cas_no": "",
    "SMILES": "C(C)C1=CC=C(C)C=C1",
    "meta_data": {
        "InChI": "InChI=1S/C9H12/c1-3-9-6-4-8(2)5-7-9/h4-7H,3H2,1-2H3",
        "InChIKey": null,
        "Canonical SMILES": "C=1C=C(C=CC1C)CC",
        "Molecular Formula": "C<sub>9</sub>H<sub>12</sub>",
        "Molecular Mass": "120.19",
        "Boiling Point": "162 °C",
        "Melting Point": "-62.3 °C",
        "Density": "0.8664 g/cm³ @ Temp: 15.800009765625 °C"
    }
}