{
    "cas_no": "37619-25-3",
    "key_name": "Methyl 1<em>H</em>-benzimidazole-7-carboxylate",
    "cn_name": null,
    "alternate_name": "1<em>H</em>-Benzimidazole-7-carboxylic acid, methyl ester;1<em>H</em>-Benzimidazole-4-carboxylic acid, methyl ester;Methyl 1<em>H</em>-benzimidazole-7-carboxylate;Methyl 4-benzimidazolecarboxylate;Methyl 3<em>H</em>-benzimidazole-4-carboxylate;Methyl 1<em>H</em>-benzimidazole-4-carboxylate",
    "duplicated_cas_no": "",
    "SMILES": "C(OC)(=O)C1=C2C(=CC=C1)N=CN2",
    "meta_data": {
        "InChI": "InChI=1S/C9H8N2O2/c1-13-9(12)6-3-2-4-7-8(6)11-5-10-7/h2-5H,1H3,(H,10,11)",
        "InChIKey": null,
        "Canonical SMILES": "O=C(OC)C1=CC=CC=2N=CNC21",
        "Molecular Formula": "C<sub>9</sub>H<sub>8</sub>N<sub>2</sub>O<sub>2</sub>",
        "Molecular Mass": "176.17",
        "Melting Point": "211-213 °C"
    }
}