{
    "cas_no": "3084-40-0",
    "key_name": "Diethyl <em>P</em>-(hydroxymethyl)phosphonate",
    "cn_name": "羟甲基膦酸二乙酯;",
    "alternate_name": "Phosphonic acid, <em>P</em>-(hydroxymethyl)-, diethyl ester;Phosphonic acid, (hydroxymethyl)-, diethyl ester;Diethyl <em>P</em>-(hydroxymethyl)phosphonate;Diethyl (hydroxymethyl)phosphonate;(Hydroxymethyl)phosphonate diethyl ester;Diethyl phosphonomethanol;Diethoxyphosphorylmethanol;Levagard 2100",
    "duplicated_cas_no": "83495-79-8",
    "SMILES": "P(OCC)(OCC)(CO)=O",
    "meta_data": {
        "InChI": "InChI=1S/C5H13O4P/c1-3-8-10(7,5-6)9-4-2/h6H,3-5H2,1-2H3",
        "InChIKey": null,
        "Canonical SMILES": "O=P(OCC)(OCC)CO",
        "Molecular Formula": "C<sub>5</sub>H<sub>13</sub>O<sub>4</sub>P",
        "Molecular Mass": "168.13",
        "Boiling Point": "72 °C @ Press: 5 Torr",
        "Density": "1.0726 g/cm³ @ Temp: 0 °C"
    }
}