{
    "cas_no": "1611-92-3",
    "key_name": "3,5-Dibromotoluene",
    "cn_name": "3,5-二溴甲苯;",
    "alternate_name": "Benzene, 1,3-dibromo-5-methyl-;Toluene, 3,5-dibromo-;1,3-Dibromo-5-methylbenzene;3,5-Dibromotoluene;NSC 87347;5-Methyl-1,3-dibromobenzene",
    "duplicated_cas_no": "",
    "SMILES": "BrC1=CC(Br)=CC(C)=C1",
    "meta_data": {
        "InChI": "InChI=1S/C7H6Br2/c1-5-2-6(8)4-7(9)3-5/h2-4H,1H3",
        "InChIKey": null,
        "Canonical SMILES": "BrC=1C=C(Br)C=C(C1)C",
        "Molecular Formula": "C<sub>7</sub>H<sub>6</sub>Br<sub>2</sub>",
        "Molecular Mass": "249.93",
        "Boiling Point": "98-100 °C @ Press: 8 Torr",
        "Melting Point": "201-202 °C"
    }
}