{
    "cas_no": "4463-03-0",
    "key_name": "Trimethylphloroglucinol",
    "cn_name": null,
    "alternate_name": "1,3,5-Benzenetriol, 2,4,6-trimethyl-;Phloroglucinol, trimethyl-;2,4,6-Trimethyl-1,3,5-benzenetriol;2,4,6-Mesitylenetriol;Trimethylphloroglucinol;2,4,6-Trimethylphloroglucinol;2,4,6-Trihydroxymesitylene",
    "duplicated_cas_no": "",
    "SMILES": "CC1=C(O)C(C)=C(O)C(C)=C1O",
    "meta_data": {
        "InChI": "InChI=1S/C9H12O3/c1-4-7(10)5(2)9(12)6(3)8(4)11/h10-12H,1-3H3",
        "InChIKey": null,
        "Canonical SMILES": "OC=1C(=C(O)C(=C(O)C1C)C)C",
        "Molecular Formula": "C<sub>9</sub>H<sub>12</sub>O<sub>3</sub>",
        "Molecular Mass": "168.19",
        "Melting Point": "184-185 °C"
    }
}