{
    "cas_no": "25614-03-3",
    "key_name": "(+)-Bromocriptine",
    "cn_name": null,
    "alternate_name": "Ergotaman-3′,6′,18-trione, 2-bromo-12′-hydroxy-2′-(1-methylethyl)-5′-(2-methylpropyl)-, (5′α)-;Ergocryptine, 2-bromo-;Indolo[4,3-<em>fg</em>]quinoline, ergotaman-3′,6′,18-trione deriv.;8<em>H</em>-Oxazolo[3,2-<em>a</em>]pyrrolo[2,1-<em>c</em>]pyrazine, ergotaman-3′,6′,18-trione deriv.;(5′α)-2-Bromo-12′-hydroxy-2′-(1-methylethyl)-5′-(2-methylpropyl)ergotaman-3′,6′,18-trione;2-Bromo-α-ergocryptine;2-Bromo-α-ergokryptine;2-Bromoergocryptine;Bromergocryptine;Bromocryptine;Bromocriptine;Bromocriptin;α-Bromoergocryptine;α-Bromocryptine;Bromoergocryptine;2-Bromoergocriptine;SAN 15-754;Sandoz 15-754;(+)-Bromocriptine;α-Ergolactin;Ergolactin;MeSH ID: D001971",
    "duplicated_cas_no": "127931-09-3;26409-15-4;47830-26-2;148043-11-2",
    "SMILES": "O[C@]12N(C(=O)[C@@](NC(=O)[C@@H]3C=C4C=5C=6C(C[C@]4(N(C)C3)[H])=C(Br)NC6C=CC5)(C(C)C)O1)[C@@H](CC(C)C)C(=O)N7[C@]2(CCC7)[H]",
    "meta_data": {
        "InChI": "InChI=1S/C32H40BrN5O5/c1-16(2)12-24-29(40)37-11-7-10-25(37)32(42)38(24)30(41)31(43-32,17(3)4)35-28(39)18-13-20-19-8-6-9-22-26(19)21(27(33)34-22)14-23(20)36(5)15-18/h6,8-9,13,16-18,23-25,34,42H,7,10-12,14-15H2,1-5H3,(H,35,39)/t18-,23-,24+,25+,31-,32+/m1/s1",
        "InChIKey": null,
        "Canonical SMILES": "O=C(NC1(OC2(O)N(C1=O)C(C(=O)N3CCCC32)CC(C)C)C(C)C)C4C=C5C=6C=CC=C7NC(Br)=C(C76)CC5N(C)C4",
        "Molecular Formula": "C<sub>32</sub>H<sub>40</sub>BrN<sub>5</sub>O<sub>5</sub>",
        "Molecular Mass": "654.59",
        "Melting Point": "215-218 °C (decomp)"
    }
}