{
    "cas_no": "861928-27-0",
    "key_name": "4-Bromo-2-(trifluoromethyl)benzaldehyde",
    "cn_name": "4-溴-2-(三氟甲基)苯甲醛;",
    "alternate_name": "Benzaldehyde, 4-bromo-2-(trifluoromethyl)-;4-Bromo-2-(trifluoromethyl)benzaldehyde",
    "duplicated_cas_no": "",
    "SMILES": "C(F)(F)(F)C1=C(C=O)C=CC(Br)=C1",
    "meta_data": {
        "InChI": "InChI=1S/C8H4BrF3O/c9-6-2-1-5(4-13)7(3-6)8(10,11)12/h1-4H",
        "InChIKey": null,
        "Canonical SMILES": "O=CC1=CC=C(Br)C=C1C(F)(F)F",
        "Molecular Formula": "C<sub>8</sub>H<sub>4</sub>BrF<sub>3</sub>O",
        "Molecular Mass": "253.02",
        "Melting Point": "48-50 °C"
    }
}