{
    "cas_no": "78273-80-0",
    "key_name": "Roxatidine",
    "cn_name": null,
    "alternate_name": "Acetamide, 2-hydroxy-<em>N</em>-[3-[3-(1-piperidinylmethyl)phenoxy]propyl]-;2-Hydroxy-<em>N</em>-[3-[3-(1-piperidinylmethyl)phenoxy]propyl]acetamide;Roxatidine",
    "duplicated_cas_no": "164066-66-4",
    "SMILES": "C(C1=CC(OCCCNC(CO)=O)=CC=C1)N2CCCCC2",
    "meta_data": {
        "InChI": "InChI=1S/C17H26N2O3/c20-14-17(21)18-8-5-11-22-16-7-4-6-15(12-16)13-19-9-2-1-3-10-19/h4,6-7,12,20H,1-3,5,8-11,13-14H2,(H,18,21)",
        "InChIKey": null,
        "Canonical SMILES": "O=C(NCCCOC1=CC=CC(=C1)CN2CCCCC2)CO",
        "Molecular Formula": "C<sub>17</sub>H<sub>26</sub>N<sub>2</sub>O<sub>3</sub>",
        "Molecular Mass": "306.40",
        "Melting Point": "59-60 °C"
    }
}