{
    "cas_no": "541-01-5",
    "key_name": "Hexadecamethylheptasiloxane",
    "cn_name": null,
    "alternate_name": "Heptasiloxane, 1,1,1,3,3,5,5,7,7,9,9,11,11,13,13,13-hexadecamethyl-;Heptasiloxane, hexadecamethyl-;1,1,1,3,3,5,5,7,7,9,9,11,11,13,13,13-Hexadecamethylheptasiloxane;Hexadecamethylheptasiloxane",
    "duplicated_cas_no": "",
    "SMILES": "O([Si](O[Si](O[Si](O[Si](C)(C)C)(C)C)(C)C)(C)C)[Si](O[Si](O[Si](C)(C)C)(C)C)(C)C",
    "meta_data": {
        "InChI": "InChI=1S/C16H48O6Si7/c1-23(2,3)17-25(7,8)19-27(11,12)21-29(15,16)22-28(13,14)20-26(9,10)18-24(4,5)6/h1-16H3",
        "InChIKey": null,
        "Canonical SMILES": "O([Si](O[Si](O[Si](O[Si](C)(C)C)(C)C)(C)C)(C)C)[Si](O[Si](O[Si](C)(C)C)(C)C)(C)C",
        "Molecular Formula": "C<sub>16</sub>H<sub>48</sub>O<sub>6</sub>Si<sub>7</sub>",
        "Molecular Mass": "533.15",
        "Boiling Point": "270 °C",
        "Melting Point": "-78 °C",
        "Density": "0.9004 g/cm³ @ Temp: 25 °C"
    }
}