{
    "cas_no": "39994-75-7",
    "key_name": "<span class=\"text-smallcaps\">L</span>-Threonine, methyl ester, hydrochloride (1:1)",
    "cn_name": "L-苏氨酸甲酯盐酸盐;",
    "alternate_name": "<span class=\"text-smallcaps\">L</span>-Threonine, methyl ester, hydrochloride (1:1);<span class=\"text-smallcaps\">L</span>-Threonine, methyl ester, hydrochloride;Threonine, methyl ester, hydrochloride, <span class=\"text-smallcaps\">L</span>-;Methyl <span class=\"text-smallcaps\">L</span>-threoninate hydrochloride;Methyl (2<em>S</em>,3<em>R</em>)-2-amino-3-hydroxybutanoate hydrochloride;(2<em>S</em>,3<em>R</em>)-2-Amino-3-hydroxybutanoic acid methyl ester hydrochloride",
    "duplicated_cas_no": "1384246-03-0",
    "SMILES": "[C@@H](C(OC)=O)([C@@H](C)O)N.Cl",
    "meta_data": {
        "InChI": "InChI=1S/C5H11NO3.ClH/c1-3(7)4(6)5(8)9-2;/h3-4,7H,6H2,1-2H3;1H/t3-,4+;/m1./s1",
        "InChIKey": null,
        "Canonical SMILES": "Cl.O=C(OC)C(N)C(O)C",
        "Molecular Formula": "C<sub>5</sub>H<sub>11</sub>NO<sub>3</sub>.ClH",
        "Molecular Mass": "",
        "Melting Point": "122-124 °C"
    }
}