{
    "cas_no": "591-12-8",
    "key_name": "α-Angelica lactone",
    "cn_name": "当归内酯;4-羟基-3-戊烯酸内酯;5-甲基-2(3H)-呋喃酮;",
    "alternate_name": "2(3<em>H</em>)-Furanone, 5-methyl-;3-Pentenoic acid, 4-hydroxy-, γ-lactone;5-Methyl-2(3<em>H</em>)-furanone;α-Angelica lactone;4-Hydroxypent-3-enoic acid lactone;β,γ-Angelica lactone;Δ<sup>2</sup>-Angelica lactone;4-Hydroxy-3-pentenoic acid γ-lactone;5-Methyl-2,3-dihydro-2-furanone;5-Methylfuran-2(3<em>H</em>)-one;2-Oxo-5-methyl-2,3-dihydrofuran;γ-Angelica lactone;NSC 654;Pent-3-en-4-olide;2,3-Dihydro-5-methylfuran-2-one",
    "duplicated_cas_no": "",
    "SMILES": "CC=1OC(=O)CC1",
    "meta_data": {
        "InChI": "InChI=1S/C5H6O2/c1-4-2-3-5(6)7-4/h2H,3H2,1H3",
        "InChIKey": null,
        "Canonical SMILES": "O=C1OC(=CC1)C",
        "Molecular Formula": "C<sub>5</sub>H<sub>6</sub>O<sub>2</sub>",
        "Molecular Mass": "98.10",
        "Boiling Point": "55-56 °C @ Press: 13 Torr",
        "Melting Point": "18 °C",
        "Density": "1.091 g/cm³ @ Temp: 20.44 °C"
    }
}