{
    "cas_no": "451-46-7",
    "key_name": "Ethyl 4-fluorobenzoate",
    "cn_name": "对氟苯甲酸乙酯;",
    "alternate_name": "Benzoic acid, 4-fluoro-, ethyl ester;Benzoic acid, <em>p</em>-fluoro-, ethyl ester;Ethyl <em>p</em>-fluorobenzoate;Ethyl 4-fluorobenzoate;4-Fluorobenzoic acid ethyl ester;4-Carbethoxyphenyl fluoride;NSC 190692",
    "duplicated_cas_no": "",
    "SMILES": "C(OCC)(=O)C1=CC=C(F)C=C1",
    "meta_data": {
        "InChI": "InChI=1S/C9H9FO2/c1-2-12-9(11)7-3-5-8(10)6-4-7/h3-6H,2H2,1H3",
        "InChIKey": null,
        "Canonical SMILES": "O=C(OCC)C1=CC=C(F)C=C1",
        "Molecular Formula": "C<sub>9</sub>H<sub>9</sub>FO<sub>2</sub>",
        "Molecular Mass": "168.16",
        "Boiling Point": "210 °C",
        "Melting Point": "26 °C"
    }
}