{
    "cas_no": "3930-19-6",
    "key_name": "Streptonigrin",
    "cn_name": null,
    "alternate_name": "2-Pyridinecarboxylic acid, 5-amino-6-(7-amino-5,8-dihydro-6-methoxy-5,8-dioxo-2-quinolinyl)-4-(2-hydroxy-3,4-dimethoxyphenyl)-3-methyl-, (4<em>R</em>)-;Picolinic acid, 5-amino-6-(7-amino-5,8-dihydro-6-methoxy-5,8-dioxo-2-quinolyl)-4-(2-hydroxy-3,4-dimethoxyphenyl)-3-methyl-;(4<em>R</em>)-5-Amino-6-(7-amino-5,8-dihydro-6-methoxy-5,8-dioxo-2-quinolinyl)-4-(2-hydroxy-3,4-dimethoxyphenyl)-3-methyl-2-pyridinecarboxylic acid;NSC 45383;5-Amino-6-(7-amino-5,8-dihydro-6-methoxy-5,8-dioxo-2-quinolyl)-4-(2-hydroxy-3,4-dimethoxyphenyl)-3-methylpicolinic acid;Nigrin;SN;Streptonigrin;Bruneomycin;Rufocromomycin;5278RP;AO 50165L302;Abbott Crystalline antibiotic;Streptonigran;STP;NSC 56748;NSC 83950;(<em>R</em>)-Streptonigrin;(<em>M</em>)-Streptonigrin",
    "duplicated_cas_no": "11011-76-0;80206-29-7;197730-36-2",
    "SMILES": "NC=1C(=C(C)C(C(O)=O)=NC1C=2N=C3C(=CC2)C(=O)C(OC)=C(N)C3=O)C4=C(O)C(OC)=C(OC)C=C4",
    "meta_data": {
        "InChI": "InChI=1S/C25H22N4O8/c1-9-14(10-6-8-13(35-2)23(36-3)20(10)30)15(26)19(29-17(9)25(33)34)12-7-5-11-18(28-12)22(32)16(27)24(37-4)21(11)31/h5-8,30H,26-27H2,1-4H3,(H,33,34)",
        "InChIKey": null,
        "Canonical SMILES": "O=C(O)C1=NC(C=2N=C3C(=O)C(N)=C(OC)C(=O)C3=CC2)=C(N)C(C4=CC=C(OC)C(OC)=C4O)=C1C",
        "Molecular Formula": "C<sub>25</sub>H<sub>22</sub>N<sub>4</sub>O<sub>8</sub>",
        "Molecular Mass": "506.46",
        "Melting Point": "262-263 °C",
        "Density": "7.184 g/cm³ (solid)"
    }
}