{
    "cas_no": "403-33-8",
    "key_name": "Methyl 4-fluorobenzoate",
    "cn_name": "对氟苯甲酸甲酯;",
    "alternate_name": "Benzoic acid, 4-fluoro-, methyl ester;Benzoic acid, <em>p</em>-fluoro-, methyl ester;Methyl 4-fluorobenzoate;Methyl <em>p</em>-fluorobenzoate;4-Fluorobenzoic acid methyl ester;NSC 102770;4-Methoxycarbonyl-1-fluorobenzene",
    "duplicated_cas_no": "",
    "SMILES": "C(OC)(=O)C1=CC=C(F)C=C1",
    "meta_data": {
        "InChI": "InChI=1S/C8H7FO2/c1-11-8(10)6-2-4-7(9)5-3-6/h2-5H,1H3",
        "InChIKey": null,
        "Canonical SMILES": "O=C(OC)C1=CC=C(F)C=C1",
        "Molecular Formula": "C<sub>8</sub>H<sub>7</sub>FO<sub>2</sub>",
        "Molecular Mass": "154.14",
        "Boiling Point": "197 °C",
        "Melting Point": "4.5 °C"
    }
}