{
    "cas_no": "127-79-7",
    "key_name": "Sulfamerazine",
    "cn_name": "磺胺甲基嘧啶;",
    "alternate_name": "Benzenesulfonamide, 4-amino-<em>N</em>-(4-methyl-2-pyrimidinyl)-;Sulfanilamide, <em>N</em><sup>1</sup>-(4-methyl-2-pyrimidinyl)-;4-Amino-<em>N</em>-(4-methyl-2-pyrimidinyl)benzenesulfonamide;RP 2632;Cremomerazine;Methylpyrimal;<em>N</em><sup>1</sup>-(4-Methyl-2-pyrimidinyl)sulfanilamide;Methylsulfazine;Percoccide;Pyralcid;Pyrimal <em>m</em>;2643RP;Sulfamerazine;Sulfamethyldiazine;2-Sulfa-4-methylpyrimidine;2-Sulfanilamido-4-methylpyrimidine;Sumedine;Veta-Merazine;Romezin;A 310;Sulfameradine;<em>N</em>-(4-Methyl-2-pyrimidyl)sulfanilamide;Sulphamerazine;Metilsulfazin;Metilsulfadiazin;Pirimal-M;Sulfamerazin;Debenal-M;Kelamerazine;2632RP;Septacil;Mesulfa;Mebacid;2-(4-Aminobenzenesulfonamido)-4-methylpyrimidine;Spanbolet II;NSC 27259;<em>N</em>-(4-Methylpyrimidin-2-yl)-4-aminobenzenesulfonamide;MeSH ID: D013416",
    "duplicated_cas_no": "99482-27-6",
    "SMILES": "S(NC=1N=C(C)C=CN1)(=O)(=O)C2=CC=C(N)C=C2",
    "meta_data": {
        "InChI": "InChI=1S/C11H12N4O2S/c1-8-6-7-13-11(14-8)15-18(16,17)10-4-2-9(12)3-5-10/h2-7H,12H2,1H3,(H,13,14,15)",
        "InChIKey": null,
        "Canonical SMILES": "O=S(=O)(NC1=NC=CC(=N1)C)C2=CC=C(N)C=C2",
        "Molecular Formula": "C<sub>11</sub>H<sub>12</sub>N<sub>4</sub>O<sub>2</sub>S",
        "Molecular Mass": "264.30",
        "Melting Point": "236 °C",
        "Density": "1.3425 g/cm³"
    }
}