{
    "cas_no": "94-78-0",
    "key_name": "Phenazopyridine",
    "cn_name": "非那吡啶;",
    "alternate_name": "2,6-Pyridinediamine, 3-(2-phenyldiazenyl)-;Pyridine, 2,6-diamino-3-(phenylazo)-;2,6-Pyridinediamine, 3-(phenylazo)-;3-(2-Phenyldiazenyl)-2,6-pyridinediamine;2,6-Diamino-3-phenylazopyridine;Gastracid;Phenazopyridine;NSC 145895;Gastrotest;MeSH ID: D010621",
    "duplicated_cas_no": "",
    "SMILES": "N(=NC1=CC=CC=C1)C2=C(N)N=C(N)C=C2",
    "meta_data": {
        "InChI": "InChI=1S/C11H11N5/c12-10-7-6-9(11(13)14-10)16-15-8-4-2-1-3-5-8/h1-7H,(H4,12,13,14)",
        "InChIKey": null,
        "Canonical SMILES": "N(=NC1=CC=C(N=C1N)N)C=2C=CC=CC2",
        "Molecular Formula": "C<sub>11</sub>H<sub>11</sub>N<sub>5</sub>",
        "Molecular Mass": "213.24",
        "Melting Point": "139 °C"
    }
}