{
    "cas_no": "3069-40-7",
    "key_name": "Octyltrimethoxysilane",
    "cn_name": "辛基三甲氧基硅烷;",
    "alternate_name": "Silane, trimethoxyoctyl-;Trimethoxyoctylsilane;Octyltrimethoxysilane;XC 95-738;<em>n</em>-Octyltrimethoxysilane;Silan 108;Dynasylan OCTMO;KBM 3083;Si 108;JH-N 318;Sil-Act ATS 100LV;Sil-Act ATS 42NS;Sil-Act ATS 42A;Sil-Act ATS 22;CG-N 813;SIO 6715.5",
    "duplicated_cas_no": "1039510-82-1",
    "SMILES": "[Si](CCCCCCCC)(OC)(OC)OC",
    "meta_data": {
        "InChI": "InChI=1S/C11H26O3Si/c1-5-6-7-8-9-10-11-15(12-2,13-3)14-4/h5-11H2,1-4H3",
        "InChIKey": null,
        "Canonical SMILES": "O(C)[Si](OC)(OC)CCCCCCCC",
        "Molecular Formula": "C<sub>11</sub>H<sub>26</sub>O<sub>3</sub>Si",
        "Molecular Mass": "234.41",
        "Boiling Point": "191-192 °C",
        "Density": "0.907 g/cm³"
    }
}