{
    "cas_no": "10361-37-2",
    "key_name": "Barium chloride",
    "cn_name": "氯化钡;",
    "alternate_name": "Barium chloride (BaCl<sub>2</sub>);Barium chloride;Barium dichloride;Ba 0108E;NSC 146181",
    "duplicated_cas_no": "",
    "SMILES": "[Ba](Cl)Cl",
    "meta_data": {
        "InChI": "InChI=1S/Ba.2ClH/h;2*1H/q+2;;/p-2",
        "InChIKey": null,
        "Canonical SMILES": "Cl[Ba]Cl",
        "Molecular Formula": "BaCl<sub>2</sub>",
        "Molecular Mass": "",
        "Boiling Point": "1560 °C",
        "Melting Point": "962 °C",
        "Density": "3.9 g/cm³"
    }
}