{
    "cas_no": "1874-54-0",
    "key_name": "1′-<em>C</em>-(Hydroxymethyl)adenosine",
    "cn_name": null,
    "alternate_name": "Adenosine, 1′-<em>C</em>-(hydroxymethyl)-;Adenine, 9-β-<span class=\"text-smallcaps\">D</span>-psicofuranosyl-;9<em>H</em>-Purin-6-amine, 9-β-<span class=\"text-smallcaps\">D</span>-psicofuranosyl-;1′-<em>C</em>-(Hydroxymethyl)adenosine;Psicofuranine;9-β-<span class=\"text-smallcaps\">D</span>-Psicofuranosyl-6-aminopurine;Angustmycin C;9-β-<span class=\"text-smallcaps\">D</span>-Psicofuranosyladenine;1′-(Hydroxymethyl)adenosine;NSC 53104",
    "duplicated_cas_no": "1194684-89-3",
    "SMILES": "C(O)[C@]1(O[C@H](CO)[C@@H](O)[C@H]1O)N2C=3C(N=C2)=C(N)N=CN3",
    "meta_data": {
        "InChI": "InChI=1S/C11H15N5O5/c12-9-6-10(14-3-13-9)16(4-15-6)11(2-18)8(20)7(19)5(1-17)21-11/h3-5,7-8,17-20H,1-2H2,(H2,12,13,14)/t5-,7-,8-,11-/m1/s1",
        "InChIKey": null,
        "Canonical SMILES": "OCC1OC(N2C=NC=3C(=NC=NC32)N)(CO)C(O)C1O",
        "Molecular Formula": "C<sub>11</sub>H<sub>15</sub>N<sub>5</sub>O<sub>5</sub>",
        "Molecular Mass": "297.27",
        "Melting Point": "212 °C"
    }
}