{
    "cas_no": "2702-72-9",
    "key_name": "Sodium (2,4-dichlorophenoxy)acetate",
    "cn_name": "2,4-二氯苯氧乙酸钠;2,4-滴钠;2,4-D钠;",
    "alternate_name": "Acetic acid, 2-(2,4-dichlorophenoxy)-, sodium salt (1:1);Acetic acid, (2,4-dichlorophenoxy)-, sodium salt;Dikonirt;Hormit;Pielik E;Sodium 2,4-D;2,4-D Sodium salt;Spritz-hormit;Agrion;Fernoxone;2,4-Dichlorophenoxyacetic acid sodium salt;Spray-Hormite;Sodium (2,4-dichlorophenoxy)acetate;Diconirt;Diconirt D;Dikonirt D;Agrion (pesticide);U 46D;Dichlordon sodium;Sodium diclordon;Kar D;Taficide;Tornado DF;2,4-Dichlorophenoxyacetic acid sodium",
    "duplicated_cas_no": "37353-58-5;58318-52-8;67924-78-1",
    "SMILES": "O(CC(O)=O)C1=C(Cl)C=C(Cl)C=C1.[Na]",
    "meta_data": {
        "InChI": "InChI=1S/C8H6Cl2O3.Na/c9-5-1-2-7(6(10)3-5)13-4-8(11)12;/h1-3H,4H2,(H,11,12);",
        "InChIKey": null,
        "Canonical SMILES": "[Na].O=C(O)COC1=CC=C(Cl)C=C1Cl",
        "Molecular Formula": "C<sub>8</sub>H<sub>6</sub>Cl<sub>2</sub>O<sub>3</sub>.Na",
        "Molecular Mass": "",
        "Melting Point": "160-167 °C"
    }
}