{
    "cas_no": "56310-20-4",
    "key_name": "Bis(1,1-dimethylethyl)methylsilane",
    "cn_name": null,
    "alternate_name": "Silane, bis(1,1-dimethylethyl)methyl-;Bis(1,1-dimethylethyl)methylsilane;Di-<em>tert</em>-butylmethylsilane",
    "duplicated_cas_no": "1000503-59-2",
    "SMILES": "[SiH](C(C)(C)C)(C(C)(C)C)C",
    "meta_data": {
        "InChI": "InChI=1S/C9H22Si/c1-8(2,3)10(7)9(4,5)6/h10H,1-7H3",
        "InChIKey": null,
        "Canonical SMILES": "C[SiH](C(C)(C)C)C(C)(C)C",
        "Molecular Formula": "C<sub>9</sub>H<sub>22</sub>Si",
        "Molecular Mass": "158.36",
        "Boiling Point": "155 °C",
        "Density": "0.758 g/cm³"
    }
}