{
    "cas_no": "388-82-9",
    "key_name": "2,2′-Difluoro-1,1′-biphenyl",
    "cn_name": "2,2-二氟联苯;",
    "alternate_name": "1,1′-Biphenyl, 2,2′-difluoro-;Biphenyl, 2,2′-difluoro-;2,2′-Difluoro-1,1′-biphenyl;2,2′-Difluorobiphenyl;<em>o</em>,<em>o</em>′-Difluorobiphenyl;2,2′-Difluorodiphenyl;1-Fluoro-2-(2-fluorophenyl)benzene",
    "duplicated_cas_no": "",
    "SMILES": "FC1=C(C=CC=C1)C2=C(F)C=CC=C2",
    "meta_data": {
        "InChI": "InChI=1S/C12H8F2/c13-11-7-3-1-5-9(11)10-6-2-4-8-12(10)14/h1-8H",
        "InChIKey": null,
        "Canonical SMILES": "FC=1C=CC=CC1C=2C=CC=CC2F",
        "Molecular Formula": "C<sub>12</sub>H<sub>8</sub>F<sub>2</sub>",
        "Molecular Mass": "190.19",
        "Boiling Point": "110-112 °C",
        "Melting Point": "117-117.5 °C",
        "Density": "1.379 g/cm³ @ Temp: 25 °C"
    }
}