{
    "cas_no": "3844-53-9",
    "key_name": "<span class=\"text-smallcaps\">L</span>-Lysine, ethyl ester, hydrochloride (1:2)",
    "cn_name": "L-赖氨酸乙酯二盐酸盐;",
    "alternate_name": "<span class=\"text-smallcaps\">L</span>-Lysine, ethyl ester, hydrochloride (1:2);Lysine, ethyl ester, dihydrochloride, <span class=\"text-smallcaps\">L</span>-;<span class=\"text-smallcaps\">L</span>-Lysine, ethyl ester, dihydrochloride;Lysine ethyl ester dihydrochloride;NSC 162742",
    "duplicated_cas_no": "",
    "SMILES": "[C@@H](C(OCC)=O)(CCCCN)N.Cl",
    "meta_data": {
        "InChI": "InChI=1S/C8H18N2O2.2ClH/c1-2-12-8(11)7(10)5-3-4-6-9;;/h7H,2-6,9-10H2,1H3;2*1H/t7-;;/m0../s1",
        "InChIKey": null,
        "Canonical SMILES": "Cl.O=C(OCC)C(N)CCCCN",
        "Molecular Formula": "C<sub>8</sub>H<sub>18</sub>N<sub>2</sub>O<sub>2</sub>.2ClH",
        "Molecular Mass": "",
        "Melting Point": "136-137 °C"
    }
}