{
    "cas_no": "13818-44-5",
    "key_name": "(2-Oxo-1,3-dioxolan-4-yl)methyl 2-methyl-2-propenoate",
    "cn_name": null,
    "alternate_name": "2-Propenoic acid, 2-methyl-, (2-oxo-1,3-dioxolan-4-yl)methyl ester;Methacrylic acid, 1-ester with 1,2,3-propanetriol cyclic carbonate;Methacrylic acid, 2,3-dihydroxypropyl ester, cyclic carbonate;(2-Oxo-1,3-dioxolan-4-yl)methyl 2-methyl-2-propenoate;4-(Hydroxymethyl)-1,3-dioxolan-2-one methacrylate;2,3-Carbonatopropyl methacrylate;(2-Oxo-1,3-dioxolan-4-yl)methyl methacrylate;4-(Methacryloyloxy)methyl-1,3-dioxolane-2-ketone;4-Methacryloyloxymethyl-1,3-dioxolan-2-one;Glycerol carbonate methacrylate;(2-Oxo-1,3-dioxolan-4-yl)methyl 2-methylprop-2-enoate;Propylene carbonate methacrylate;2-Methyl-acrylic acid 2-oxo-[1,3]-dioxolan-4-ylmethyl ester;Blemmer DOMA",
    "duplicated_cas_no": "532947-02-7;2306257-44-1",
    "SMILES": "C(OC(C(C)=C)=O)C1OC(=O)OC1",
    "meta_data": {
        "InChI": "InChI=1S/C8H10O5/c1-5(2)7(9)11-3-6-4-12-8(10)13-6/h6H,1,3-4H2,2H3",
        "InChIKey": null,
        "Canonical SMILES": "O=C1OCC(O1)COC(=O)C(=C)C",
        "Molecular Formula": "C<sub>8</sub>H<sub>10</sub>O<sub>5</sub>",
        "Molecular Mass": "186.16",
        "Boiling Point": "112-132 °C @ Press: 0.06 Torr"
    }
}