{
    "cas_no": "5231-96-9",
    "key_name": "<em>N</em>-2-Pyridinylacetamide",
    "cn_name": "2-乙酰氨基嘧啶;",
    "alternate_name": "Acetamide, <em>N</em>-2-pyridinyl-;Acetamide, <em>N</em>-2-pyridyl-;Pyridine, 2-acetamido-;<em>N</em>-2-Pyridinylacetamide;2-Acetamidopyridine;2-Acetylaminopyridine;<em>N</em>-2-Pyridylacetamide;<em>N</em>-(2-Pyridinyl)acetamide;NSC 28291",
    "duplicated_cas_no": "",
    "SMILES": "N(C(C)=O)C1=CC=CC=N1",
    "meta_data": {
        "InChI": "InChI=1S/C7H8N2O/c1-6(10)9-7-4-2-3-5-8-7/h2-5H,1H3,(H,8,9,10)",
        "InChIKey": null,
        "Canonical SMILES": "O=C(NC1=NC=CC=C1)C",
        "Molecular Formula": "C<sub>7</sub>H<sub>8</sub>N<sub>2</sub>O",
        "Molecular Mass": "136.15",
        "Melting Point": "69-71 °C"
    }
}