{
    "cas_no": "2052-06-4",
    "key_name": "4-Bromo-<em>N</em>,<em>N</em>-diethylbenzenamine",
    "cn_name": "4-溴-N,N-二乙基苯胺;",
    "alternate_name": "Benzenamine, 4-bromo-<em>N</em>,<em>N</em>-diethyl-;Aniline, <em>p</em>-bromo-<em>N</em>,<em>N</em>-diethyl-;4-Bromo-<em>N</em>,<em>N</em>-diethylbenzenamine;4-Bromo-<em>N</em>,<em>N</em>-diethylaniline;<em>p</em>-Bromo-<em>N</em>,<em>N</em>-diethylaniline;<em>N</em>,<em>N</em>-Diethyl-4-bromoaniline;4-(Diethylamino)bromobenzene;NSC 8071;<em>N</em>-(4-Bromophenyl)diethylamine;<em>N</em>,<em>N</em>-Diethyl-<em>p</em>-bromoaniline",
    "duplicated_cas_no": "",
    "SMILES": "N(CC)(CC)C1=CC=C(Br)C=C1",
    "meta_data": {
        "InChI": "InChI=1S/C10H14BrN/c1-3-12(4-2)10-7-5-9(11)6-8-10/h5-8H,3-4H2,1-2H3",
        "InChIKey": null,
        "Canonical SMILES": "BrC1=CC=C(C=C1)N(CC)CC",
        "Molecular Formula": "C<sub>10</sub>H<sub>14</sub>BrN",
        "Molecular Mass": "228.13",
        "Boiling Point": "270 °C",
        "Melting Point": "38 °C"
    }
}