{
    "cas_no": "60333-76-8",
    "key_name": "[3-(Trichlorosilyl)propoxy]benzene",
    "cn_name": null,
    "alternate_name": "Benzene, [3-(trichlorosilyl)propoxy]-;Silane, trichloro(3-phenoxypropyl)-;[3-(Trichlorosilyl)propoxy]benzene;Trichloro(3-phenoxypropyl)silane;(3-Phenoxypropyl)trichlorosilane",
    "duplicated_cas_no": "",
    "SMILES": "O(CCC[Si](Cl)(Cl)Cl)C1=CC=CC=C1",
    "meta_data": {
        "InChI": "InChI=1S/C9H11Cl3OSi/c10-14(11,12)8-4-7-13-9-5-2-1-3-6-9/h1-3,5-6H,4,7-8H2",
        "InChIKey": null,
        "Canonical SMILES": "Cl[Si](Cl)(Cl)CCCOC=1C=CC=CC1",
        "Molecular Formula": "C<sub>9</sub>H<sub>11</sub>Cl<sub>3</sub>OSi",
        "Molecular Mass": "269.63",
        "Boiling Point": "40 °C @ Press: 0.02 Torr",
        "Density": "1.2574 g/cm³"
    }
}