{
    "cas_no": "37860-51-8",
    "key_name": "Tetraethylene glycol ditosylate",
    "cn_name": "四甘醇双(对甲苯盐酸盐);",
    "alternate_name": "Ethanol, 2,2′-[oxybis(2,1-ethanediyloxy)]bis-, 1,1′-bis(4-methylbenzenesulfonate);Ethanol, 2,2′-[oxybis(2,1-ethanediyloxy)]bis-, bis(4-methylbenzenesulfonate);Tetraethylene glycol, di-<em>p</em>-toluenesulfonate;Tetraethylene glycol ditosylate;3,6,9-Trioxaundecane-1,11-diol ditosylate;Tetraethylene glycol bis(<em>p</em>-toluenesulfonate);Tetraethylene glycol bis(4-toluenesulfonate);Tetraethylene glycol bistosylate;1,11-Bis(tosyloxy)-3,6,9-trioxaundecane;Tetraethylene glycol di-<em>p</em>-tosylate;1,11-Bis(<em>p</em>-tolylsulfonyloxy)-3,6,9-trioxaundecane;α,ω-Di(<em>p</em>-toluenesulfonyl)tetraethylene glycol;2,2′-[Oxybis(2,1-ethanediyloxy)]bis[ethanol] bis(4-methylbenzenesulfonate);2-[2-[2-[2-[[(4-Methylphenyl)sulfonyl]oxy]ethoxy]ethoxy]ethoxy]ethyl 4-methylbenzenesulfonate;Bis[2-[2-[[(4-methylphenyl)sulfonyl]oxy]ethoxy]ethyl] ether;Bis-1,11-(<em>p</em>-toluenesulfonyloxy)-3,6,9-trioxaundecane;1,11-Ditosyl-3,6,9-trioxaundecane;((Oxybis(ethane-2,1-diyl))bis(oxy))bis(ethane-2,1-diyl) bis(4-methylbenzenesulfonate);((Oxybis(ethan-2,1-diyl))bis(oxy))bis(ethan-2,1-diyl) bis(4-methylbenzenesulfonate)",
    "duplicated_cas_no": "89863-23-0;261773-61-9",
    "SMILES": "S(OCCOCCOCCOCCOS(=O)(=O)C1=CC=C(C)C=C1)(=O)(=O)C2=CC=C(C)C=C2",
    "meta_data": {
        "InChI": "InChI=1S/C22H30O9S2/c1-19-3-7-21(8-4-19)32(23,24)30-17-15-28-13-11-27-12-14-29-16-18-31-33(25,26)22-9-5-20(2)6-10-22/h3-10H,11-18H2,1-2H3",
        "InChIKey": null,
        "Canonical SMILES": "O=S(=O)(OCCOCCOCCOCCOS(=O)(=O)C1=CC=C(C=C1)C)C2=CC=C(C=C2)C",
        "Molecular Formula": "C<sub>22</sub>H<sub>30</sub>O<sub>9</sub>S<sub>2</sub>",
        "Molecular Mass": "502.60",
        "Melting Point": "65-69 °C"
    }
}