{
    "cas_no": "5789-24-2",
    "key_name": "Phenylthiohydantoin-<span class=\"text-smallcaps\">DL</span>-tryptophan",
    "cn_name": "乙内酰胺硫脲色氨酸;",
    "alternate_name": "4-Imidazolidinone, 5-(1<em>H</em>-indol-3-ylmethyl)-3-phenyl-2-thioxo-;Hydantoin, 5-(indol-3-ylmethyl)-3-phenyl-2-thio-;5-(1<em>H</em>-Indol-3-ylmethyl)-3-phenyl-2-thioxo-4-imidazolidinone;Tryptophan phenylthiohydantoin;<span class=\"text-smallcaps\">DL</span>-Tryptophan phenylthiohydantoin;Phenylthiohydantoin-<span class=\"text-smallcaps\">DL</span>-tryptophan;PTH-<span class=\"text-smallcaps\">DL</span>-tryptophan;NSC 96436",
    "duplicated_cas_no": "51260-73-2",
    "SMILES": "C(C=1C=2C(NC1)=CC=CC2)C3C(=O)N(C(=S)N3)C4=CC=CC=C4",
    "meta_data": {
        "InChI": "InChI=1S/C18H15N3OS/c22-17-16(10-12-11-19-15-9-5-4-8-14(12)15)20-18(23)21(17)13-6-2-1-3-7-13/h1-9,11,16,19H,10H2,(H,20,23)",
        "InChIKey": null,
        "Canonical SMILES": "O=C1N(C=2C=CC=CC2)C(=S)NC1CC3=CNC=4C=CC=CC43",
        "Molecular Formula": "C<sub>18</sub>H<sub>15</sub>N<sub>3</sub>OS",
        "Molecular Mass": "321.40",
        "Melting Point": "177 °C"
    }
}