{
    "cas_no": "1763-28-6",
    "key_name": "4,4,4-Trifluoro-3-(trifluoromethyl)-2-butenoic acid",
    "cn_name": "4,4,4-三氟-3-(三氟甲基)巴豆酸;",
    "alternate_name": "2-Butenoic acid, 4,4,4-trifluoro-3-(trifluoromethyl)-;Crotonic acid, 4,4,4-trifluoro-3-(trifluoromethyl)-;4,4,4-Trifluoro-3-(trifluoromethyl)-2-butenoic acid;4,4,4-Trifluoro-3-(trifluoromethyl)crotonic acid;4,4,4-Trifluoro-3-trifluoromethylbut-2-enoic acid;3,3-Bis(trifluoromethyl)acrylic acid",
    "duplicated_cas_no": "",
    "SMILES": "C(=CC(O)=O)(C(F)(F)F)C(F)(F)F",
    "meta_data": {
        "InChI": "InChI=1S/C5H2F6O2/c6-4(7,8)2(1-3(12)13)5(9,10)11/h1H,(H,12,13)",
        "InChIKey": null,
        "Canonical SMILES": "O=C(O)C=C(C(F)(F)F)C(F)(F)F",
        "Molecular Formula": "C<sub>5</sub>H<sub>2</sub>F<sub>6</sub>O<sub>2</sub>",
        "Molecular Mass": "208.06",
        "Boiling Point": "90 °C @ Press: 51 Torr"
    }
}