{
    "cas_no": "20291-40-1",
    "key_name": "1-Methyl heptanedioate",
    "cn_name": null,
    "alternate_name": "Heptanedioic acid, 1-methyl ester;Pimelic acid, monomethyl ester;Heptanedioic acid, monomethyl ester;Pimelic acid, methyl ester;1-Methyl heptanedioate;Monomethyl pimelate;Methyl hemipimelate;Methyl 1,7-heptanedioate;Methyl 6-carboxyhexanoate;7-Methoxy-7-oxoheptanoic acid;6-Methoxycarbonylhexanoic acid",
    "duplicated_cas_no": "",
    "SMILES": "C(CCC(OC)=O)CCC(O)=O",
    "meta_data": {
        "InChI": "InChI=1S/C8H14O4/c1-12-8(11)6-4-2-3-5-7(9)10/h2-6H2,1H3,(H,9,10)",
        "InChIKey": null,
        "Canonical SMILES": "O=C(O)CCCCCC(=O)OC",
        "Molecular Formula": "C<sub>8</sub>H<sub>14</sub>O<sub>4</sub>",
        "Molecular Mass": "174.19",
        "Boiling Point": "128 °C @ Press: 16 Torr",
        "Melting Point": "5 °C",
        "Density": "1.0383 g/cm³ @ Temp: 20 °C"
    }
}