{
    "cas_no": "9006-42-2",
    "key_name": "Metiram",
    "cn_name": null,
    "alternate_name": "Metiram;Polyram;NIA 9102;Polycarbazine;Polycarbacin;Polyram combi;Polycarbacine;Polymat;Polycarbazin;Polyram 80WP;Polyram 80;Amarex;Carbatene;Polymarzin;Polymarzine;Polymarsin;Polymarcin;Polymarcine;Phytox-Super;Polyram 2000;Polykarbacin;Metiram-zinc;Polyram DF;Daisenlian",
    "duplicated_cas_no": "8012-48-4;8063-75-0;8071-22-5;9056-92-2;9063-14-3;11095-13-9;11116-49-7;35625-41-3;39432-66-1;60120-04-9;1135443-05-8",
    "SMILES": "",
    "meta_data": {
        "InChI": "",
        "InChIKey": null,
        "Canonical SMILES": "",
        "Molecular Formula": "Unspecified",
        "Molecular Mass": "",
        "Melting Point": "~156 °C (decomp) (approx)"
    }
}