{
    "cas_no": "866607-35-4",
    "key_name": "(1<em>S</em>)-1,5-Anhydro-1-<em>C</em>-[3-[[5-(4-fluorophenyl)-2-thienyl]methyl]-4-methylphenyl]-<span class=\"text-smallcaps\">D</span>-glucitol 2,3,4,6-tetraacetate",
    "cn_name": null,
    "alternate_name": "<span class=\"text-smallcaps\">D</span>-Glucitol, 1,5-anhydro-1-<em>C</em>-[3-[[5-(4-fluorophenyl)-2-thienyl]methyl]-4-methylphenyl]-, 2,3,4,6-tetraacetate, (1<em>S</em>)-;<span class=\"text-smallcaps\">D</span>-Glucitol, 1,5-anhydro-1-<em>C</em>-[3-[[5-(4-fluorophenyl)-2-thienyl]methyl]-4-methylphenyl]-, tetraacetate, (1<em>S</em>)-;(1<em>S</em>)-1,5-Anhydro-1-<em>C</em>-[3-[[5-(4-fluorophenyl)-2-thienyl]methyl]-4-methylphenyl]-<span class=\"text-smallcaps\">D</span>-glucitol 2,3,4,6-tetraacetate",
    "duplicated_cas_no": "2169850-04-6",
    "SMILES": "O(C(C)=O)[C@H]1[C@@H](O[C@H](COC(C)=O)[C@@H](OC(C)=O)[C@@H]1OC(C)=O)C2=CC(CC=3SC(=CC3)C4=CC=C(F)C=C4)=C(C)C=C2",
    "meta_data": {
        "InChI": "InChI=1S/C32H33FO9S/c1-17-6-7-23(14-24(17)15-26-12-13-28(43-26)22-8-10-25(33)11-9-22)29-31(40-20(4)36)32(41-21(5)37)30(39-19(3)35)27(42-29)16-38-18(2)34/h6-14,27,29-32H,15-16H2,1-5H3/t27-,29+,30-,31+,32+/m1/s1",
        "InChIKey": null,
        "Canonical SMILES": "O=C(OCC1OC(C2=CC=C(C(=C2)CC=3SC(=CC3)C=4C=CC(F)=CC4)C)C(OC(=O)C)C(OC(=O)C)C1OC(=O)C)C",
        "Molecular Formula": "C<sub>32</sub>H<sub>33</sub>FO<sub>9</sub>S",
        "Molecular Mass": "612.66",
        "Melting Point": "160-170 °C"
    }
}