{
    "cas_no": "41851-59-6",
    "key_name": "(α<em>S</em>)-4-Methoxy-α-methylbenzenemethanamine",
    "cn_name": null,
    "alternate_name": "Benzenemethanamine, 4-methoxy-α-methyl-, (α<em>S</em>)-;Benzenemethanamine, 4-methoxy-α-methyl-, (<em>S</em>)-;(α<em>S</em>)-4-Methoxy-α-methylbenzenemethanamine;(-)-α-(4-Methoxyphenyl)ethylamine;(1<em>S</em>)-1-(4-Methoxyphenyl)ethylamine;(-)-α-(<em>p</em>-Methoxyphenyl)ethylamine;(-)-<em>p</em>-Methoxy-α-phenylethylamine;(<em>S</em>)-1-(4-Methoxyphenyl)ethylamine;(<em>S</em>)-(-)-1-(4-Methoxyphenyl)ethylamine;(<em>S</em>)-4-Methoxyphenylethylamine;(-)-[(<em>S</em>)-1-(4-Methoxyphenyl)ethyl]amine;[(1<em>S</em>)-1-[4-(Methyloxy)phenyl]ethyl]amine;(<em>S</em>)-1-(<em>p</em>-Methoxyphenyl)ethylamine;(<em>S</em>)-1-(4-Methoxyphenyl)ethanamine;(1<em>S</em>)-1-[4-(Methyloxy)phenyl]ethanamine;(1S)-1-(4-Methoxyphenyl)ethanamine;(<em>S</em>)-(-)-4-Methoxy-α-methylbenzylamine;(<em>S</em>)-1-(4-Methoxyphenyl)ethan-1-amine;(<em>S</em>)-4-Methoxy-α-methylbenzylamine;(1<em>S</em>)-1-(4-Methoxyphenyl)ethanamine;(1S)-1-(4-Methoxyphenyl)ethan-1-amine",
    "duplicated_cas_no": "",
    "SMILES": "[C@@H](C)(N)C1=CC=C(OC)C=C1",
    "meta_data": {
        "InChI": "InChI=1S/C9H13NO/c1-7(10)8-3-5-9(11-2)6-4-8/h3-7H,10H2,1-2H3/t7-/m0/s1",
        "InChIKey": null,
        "Canonical SMILES": "O(C1=CC=C(C=C1)C(N)C)C",
        "Molecular Formula": "C<sub>9</sub>H<sub>13</sub>NO",
        "Molecular Mass": "151.21",
        "Boiling Point": "72 °C @ Press: 0.5 Torr"
    }
}