{
    "cas_no": "950-99-2",
    "key_name": "2,2,5,7,8-Pentamethyl-6-chromanol",
    "cn_name": "3,4-二氢-2,2,5,7,8-五甲基-2H-1-苯并吡喃-6-酚;3,4-二氢-2,2,5,7,8-五甲基-2H-1-苯并吡喃-6-酚;",
    "alternate_name": "2<em>H</em>-1-Benzopyran-6-ol, 3,4-dihydro-2,2,5,7,8-pentamethyl-;6-Chromanol, 2,2,5,7,8-pentamethyl-;3,4-Dihydro-2,2,5,7,8-pentamethyl-2<em>H</em>-1-benzopyran-6-ol;6-Hydroxy-2,2,5,7,8-pentamethylchroman;2,2,5,7,8-Pentamethyl-6-chromanol;2,2,5,7,8-Pentamethyl-6-hydroxychroman;TMC 5;Chromane C<sub>1</sub>;Chromanol;α-C-1-Chromanol;Chroman C<sub>1</sub>;NSC 226236;PMC;2,2,5,7,8-Pentamethyl-3,4-dihydrochromen-6-ol;APC 100",
    "duplicated_cas_no": "",
    "SMILES": "CC1=C2C(=C(C)C(O)=C1C)CCC(C)(C)O2",
    "meta_data": {
        "InChI": "InChI=1S/C14H20O2/c1-8-9(2)13-11(10(3)12(8)15)6-7-14(4,5)16-13/h15H,6-7H2,1-5H3",
        "InChIKey": null,
        "Canonical SMILES": "OC=1C(=C(C=2OC(C)(C)CCC2C1C)C)C",
        "Molecular Formula": "C<sub>14</sub>H<sub>20</sub>O<sub>2</sub>",
        "Molecular Mass": "220.31",
        "Melting Point": "94-94.5 °C"
    }
}