{
    "cas_no": "16320-04-0",
    "key_name": "Gestrinone",
    "cn_name": "孕三烯酮;",
    "alternate_name": "18,19-Dinorpregna-4,9,11-trien-20-yn-3-one, 13-ethyl-17-hydroxy-, (17α)-;18,19-Dinor-17α-pregna-4,9,11-trien-20-yn-3-one, 13-ethyl-17-hydroxy-;(17α)-13-Ethyl-17-hydroxy-18,19-dinorpregna-4,9,11-trien-20-yn-3-one;R 2323;13-Ethyl-17α-ethynyl-17β-hydroxygona-4,9,11-trien-3-one;Gestrinone;RU 2323;Dimetrose;A 46745;Tridomose;Nemestran;Dimetriose",
    "duplicated_cas_no": "40542-65-2",
    "SMILES": "C(C)[C@@]12[C@]([C@]3(C(C=C1)=C4C(CC3)=CC(=O)CC4)[H])(CC[C@]2(C#C)O)[H]",
    "meta_data": {
        "InChI": "InChI=1S/C21H24O2/c1-3-20-11-9-17-16-8-6-15(22)13-14(16)5-7-18(17)19(20)10-12-21(20,23)4-2/h2,9,11,13,18-19,23H,3,5-8,10,12H2,1H3/t18-,19+,20+,21+/m1/s1",
        "InChIKey": null,
        "Canonical SMILES": "O=C1C=C2C(=C3C=CC4(CC)C(CCC4(O)C#C)C3CC2)CC1",
        "Molecular Formula": "C<sub>21</sub>H<sub>24</sub>O<sub>2</sub>",
        "Molecular Mass": "308.41",
        "Melting Point": "154 °C"
    }
}