{
    "cas_no": "13257-81-3",
    "key_name": "4-[(Trimethylsilyl)oxy]-3-penten-2-one",
    "cn_name": "4-三甲基硅氧基-3-五亚乙基六胺-2-酮;乙酰丙酮烯醇三甲基硅烷酯;",
    "alternate_name": "3-Penten-2-one, 4-[(trimethylsilyl)oxy]-;3-Penten-2-one, 4-(trimethylsiloxy)-;4-[(Trimethylsilyl)oxy]-3-penten-2-one;2-(Trimethylsiloxy)pent-2-en-4-one;4-(Trimethylsiloxy)-3-penten-2-one;4-(Trimethylsilyloxy)-3-penten-2-one;4-Trimethylsiloxy-3-pentene-2-one",
    "duplicated_cas_no": "",
    "SMILES": "O([Si](C)(C)C)C(=CC(C)=O)C",
    "meta_data": {
        "InChI": "InChI=1S/C8H16O2Si/c1-7(9)6-8(2)10-11(3,4)5/h6H,1-5H3",
        "InChIKey": null,
        "Canonical SMILES": "O=C(C=C(O[Si](C)(C)C)C)C",
        "Molecular Formula": "C<sub>8</sub>H<sub>16</sub>O<sub>2</sub>Si",
        "Molecular Mass": "172.30",
        "Boiling Point": "63 °C @ Press: 3 Torr",
        "Density": "0.912 g/cm³"
    }
}