{
    "cas_no": "4815-24-1",
    "key_name": "Ethyl 2-amino-4,5-dimethylthiophene-3-carboxylate",
    "cn_name": "2-氨基-4,5-二甲基噻吩-3-羧酸乙酯;2-氨基-4,5-二甲氧基噻吩-3-甲酸乙酯;",
    "alternate_name": "3-Thiophenecarboxylic acid, 2-amino-4,5-dimethyl-, ethyl ester;Ethyl 2-amino-4,5-dimethylthiophene-3-carboxylate;2-Amino-3-carbethoxy-4,5-dimethylthiophene;2-Amino-4,5-dimethyl-3-thiophenecarboxylic acid ethyl ester;NSC 86908;2-Amino-3-(ethoxycarbonyl)-4,5-dimethylthiophene",
    "duplicated_cas_no": "",
    "SMILES": "C(OCC)(=O)C=1C(C)=C(C)SC1N",
    "meta_data": {
        "InChI": "InChI=1S/C9H13NO2S/c1-4-12-9(11)7-5(2)6(3)13-8(7)10/h4,10H2,1-3H3",
        "InChIKey": null,
        "Canonical SMILES": "O=C(OCC)C1=C(SC(=C1C)C)N",
        "Molecular Formula": "C<sub>9</sub>H<sub>13</sub>NO<sub>2</sub>S",
        "Molecular Mass": "199.27",
        "Melting Point": "91-92 °C"
    }
}