{
    "cas_no": "26750-50-5",
    "key_name": "1,1′-[Oxybis(methylenesulfonyl)]bis[ethene]",
    "cn_name": "双(乙烯砜甲基)醚;",
    "alternate_name": "Ethene, 1,1′-[oxybis(methylenesulfonyl)]bis-;Ether, bis[(vinylsulfonyl)methyl];1,1′-[Oxybis(methylenesulfonyl)]bis[ethene];Bis(vinylsulfonylmethyl) ether",
    "duplicated_cas_no": "",
    "SMILES": "S(COCS(C=C)(=O)=O)(C=C)(=O)=O",
    "meta_data": {
        "InChI": "InChI=1S/C6H10O5S2/c1-3-12(7,8)5-11-6-13(9,10)4-2/h3-4H,1-2,5-6H2",
        "InChIKey": null,
        "Canonical SMILES": "O=S(=O)(C=C)COCS(=O)(=O)C=C",
        "Molecular Formula": "C<sub>6</sub>H<sub>10</sub>O<sub>5</sub>S<sub>2</sub>",
        "Molecular Mass": "226.27",
        "Melting Point": "41.5-42.5 °C"
    }
}