{
    "cas_no": "392-95-0",
    "key_name": "2-Chloro-3,5-dinitrobenzotrifluoride",
    "cn_name": "2-氯-3,5-二硝基三氟甲苯;",
    "alternate_name": "Benzene, 2-chloro-1,5-dinitro-3-(trifluoromethyl)-;Toluene, 2-chloro-α,α,α-trifluoro-3,5-dinitro-;2-Chloro-1,5-dinitro-3-(trifluoromethyl)benzene;2-Chloro-3,5-dinitrobenzotrifluoride;2-Chloro-3,5-dinitro-α,α,α-trifluorotoluene;2-Chloro-α,α,α-trifluoro-3,5-dinitrotoluene;1-Chloro-2,4-dinitro-6-(trifluoromethyl)benzene",
    "duplicated_cas_no": "",
    "SMILES": "C(F)(F)(F)C1=C(Cl)C(N(=O)=O)=CC(N(=O)=O)=C1",
    "meta_data": {
        "InChI": "InChI=1S/C7H2ClF3N2O4/c8-6-4(7(9,10)11)1-3(12(14)15)2-5(6)13(16)17/h1-2H",
        "InChIKey": null,
        "Canonical SMILES": "O=N(=O)C=1C=C(C(Cl)=C(C1)C(F)(F)F)N(=O)=O",
        "Molecular Formula": "C<sub>7</sub>H<sub>2</sub>ClF<sub>3</sub>N<sub>2</sub>O<sub>4</sub>",
        "Molecular Mass": "270.55",
        "Melting Point": "57-59 °C"
    }
}