{
    "cas_no": "129318-43-0",
    "key_name": "Alendronate sodium",
    "cn_name": null,
    "alternate_name": "Phosphonic acid, <em>P</em>,<em>P</em>′-(4-amino-1-hydroxybutylidene)bis-, sodium salt (1:1);Phosphonic acid, (4-amino-1-hydroxybutylidene)bis-, monosodium salt;MK 217;Alendronate sodium;Monosodium alendronate;Fosamax;Indrol;Alend;NeoBon;Mavil;Eucalen;Osteovan;Fosalan;Bifosa;4-Amino-1-hydroxybutylidene-1,1-bisphosphonic acid monosodium salt;Alendronic acid monosodium salt;4-Amino-1-hydroxy-1,1-butanediphosphonic acid monosodium salt;Bonalon;Onclast;Fosamac;Alenmax;Sodium alendronate;Monosodium (4-amino-1-hydroxybutane-1,1-diyl)bisphosphonate;MeSH ID: D019386",
    "duplicated_cas_no": "1159882-48-0",
    "SMILES": "C(P(=O)(O)O)(P(=O)(O)O)(CCCN)O.[Na]",
    "meta_data": {
        "InChI": "InChI=1S/C4H13NO7P2.Na/c5-3-1-2-4(6,13(7,8)9)14(10,11)12;/h6H,1-3,5H2,(H2,7,8,9)(H2,10,11,12);",
        "InChIKey": null,
        "Canonical SMILES": "[Na].O=P(O)(O)C(O)(CCCN)P(=O)(O)O",
        "Molecular Formula": "C<sub>4</sub>H<sub>13</sub>NO<sub>7</sub>P<sub>2</sub>.Na",
        "Molecular Mass": "",
        "Melting Point": "119 °C"
    }
}