{
    "cas_no": "20133-19-1",
    "key_name": "1-(3,4-Dimethoxyphenyl)-1,2-propanediol",
    "cn_name": null,
    "alternate_name": "1,2-Propanediol, 1-(3,4-dimethoxyphenyl)-;1-(3,4-Dimethoxyphenyl)-1,2-propanediol;Methyl isoeugenol glycol;1-(3,4-Dimethoxyphenyl)propane-1,2-diol",
    "duplicated_cas_no": "",
    "SMILES": "C(C(C)O)(O)C1=CC(OC)=C(OC)C=C1",
    "meta_data": {
        "InChI": "InChI=1S/C11H16O4/c1-7(12)11(13)8-4-5-9(14-2)10(6-8)15-3/h4-7,11-13H,1-3H3",
        "InChIKey": null,
        "Canonical SMILES": "OC(C1=CC=C(OC)C(OC)=C1)C(O)C",
        "Molecular Formula": "C<sub>11</sub>H<sub>16</sub>O<sub>4</sub>",
        "Molecular Mass": "212.24",
        "Melting Point": "124-126 °C"
    }
}