{
    "cas_no": "19219-99-9",
    "key_name": "5-Chloro-2-methylbenzoxazole",
    "cn_name": "5-氯-2-甲基苯并恶唑;2-甲基-5-氯苯并恶唑;2-甲基-5-氯苯并噁唑;",
    "alternate_name": "Benzoxazole, 5-chloro-2-methyl-;5-Chloro-2-methylbenzoxazole;2-Methyl-5-chlorobenzoxazole;NSC 26192",
    "duplicated_cas_no": "",
    "SMILES": "CC=1OC=2C(N1)=CC(Cl)=CC2",
    "meta_data": {
        "InChI": "InChI=1S/C8H6ClNO/c1-5-10-7-4-6(9)2-3-8(7)11-5/h2-4H,1H3",
        "InChIKey": null,
        "Canonical SMILES": "ClC=1C=CC=2OC(=NC2C1)C",
        "Molecular Formula": "C<sub>8</sub>H<sub>6</sub>ClNO",
        "Molecular Mass": "167.59",
        "Boiling Point": "64-65 °C @ Press: 13.3 Pa",
        "Melting Point": "63 °C"
    }
}