{
    "cas_no": "13677-79-7",
    "key_name": "3,4,5-Trihydroxybenzaldehyde",
    "cn_name": "3,4,5-三羟基苯甲醛;",
    "alternate_name": "Benzaldehyde, 3,4,5-trihydroxy-;Gallaldehyde;3,4,5-Trihydroxybenzaldehyde;NSC 153692;Gallic aldehyde",
    "duplicated_cas_no": "",
    "SMILES": "C(=O)C1=CC(O)=C(O)C(O)=C1",
    "meta_data": {
        "InChI": "InChI=1S/C7H6O4/c8-3-4-1-5(9)7(11)6(10)2-4/h1-3,9-11H",
        "InChIKey": null,
        "Canonical SMILES": "O=CC1=CC(O)=C(O)C(O)=C1",
        "Molecular Formula": "C<sub>7</sub>H<sub>6</sub>O<sub>4</sub>",
        "Molecular Mass": "154.12",
        "Melting Point": "212 °C (decomp)"
    }
}