{
    "cas_no": "6309-61-1",
    "key_name": "6-Methylquinoxaline-2,3(1<em>H</em>,4<em>H</em>)-dione",
    "cn_name": "2,3-二羟基-6-甲基喹喔啉;",
    "alternate_name": "2,3-Quinoxalinedione, 1,4-dihydro-6-methyl-;1,4-Dihydro-6-methyl-2,3-quinoxalinedione;2,3-Dihydroxy-6-methylquinoxaline;1,4-Dihydro-6-methylquinoxaline-2,3-dione;6-Methyl-1,4-dihydroquinoxaline-2,3-dione;NSC 41606;6-Methylquinoxaline-2,3(1<em>H</em>,4<em>H</em>)-dione;3-Hydroxy-6-methyl-1,2-dihydroquinoxalin-2-one",
    "duplicated_cas_no": "",
    "SMILES": "O=C1NC=2C(NC1=O)=CC=C(C)C2",
    "meta_data": {
        "InChI": "InChI=1S/C9H8N2O2/c1-5-2-3-6-7(4-5)11-9(13)8(12)10-6/h2-4H,1H3,(H,10,12)(H,11,13)",
        "InChIKey": null,
        "Canonical SMILES": "O=C1NC2=CC=C(C=C2NC1=O)C",
        "Molecular Formula": "C<sub>9</sub>H<sub>8</sub>N<sub>2</sub>O<sub>2</sub>",
        "Molecular Mass": "176.17",
        "Melting Point": "112 °C"
    }
}