{
    "cas_no": "103-85-5",
    "key_name": "Phenylthiourea",
    "cn_name": "N-苯基硫脲;苯基硫脲;苯硫代碳酰二胺;苯基硫代碳酰胺;",
    "alternate_name": "Thiourea, <em>N</em>-phenyl-;Urea, 1-phenyl-2-thio-;Thiourea, phenyl-;<em>N</em>-Phenylthiourea;1-Phenyl-2-thiourea;Phenylthiourea;PTU;Phenylthiocarbamide;U 6324;1-Phenylthiourea;α-Phenylthiourea;NSC 5779;Phenyl-2-thiourea;<em>N</em>-Phenylthiocarbamide;MeSH ID: D010670",
    "duplicated_cas_no": "",
    "SMILES": "N(C(N)=S)C1=CC=CC=C1",
    "meta_data": {
        "InChI": "InChI=1S/C7H8N2S/c8-7(10)9-6-4-2-1-3-5-6/h1-5H,(H3,8,9,10)",
        "InChIKey": null,
        "Canonical SMILES": "S=C(N)NC=1C=CC=CC1",
        "Molecular Formula": "C<sub>7</sub>H<sub>8</sub>N<sub>2</sub>S",
        "Molecular Mass": "152.22",
        "Melting Point": "154 °C",
        "Density": "1.3 g/cm³"
    }
}