{
    "cas_no": "76835-20-6",
    "key_name": "1-(5-Chloro-2-methylphenyl)piperazine",
    "cn_name": null,
    "alternate_name": "Piperazine, 1-(5-chloro-2-methylphenyl)-;1-(5-Chloro-2-methylphenyl)piperazine;4-(2-Methyl-5-chlorophenyl)piperazine;1-(5-Chloro-<em>o</em>-tolyl)piperazine;<em>N</em>-(5-Chloro-2-methylphenyl)piperazine",
    "duplicated_cas_no": "",
    "SMILES": "CC1=C(C=C(Cl)C=C1)N2CCNCC2",
    "meta_data": {
        "InChI": "InChI=1S/C11H15ClN2/c1-9-2-3-10(12)8-11(9)14-6-4-13-5-7-14/h2-3,8,13H,4-7H2,1H3",
        "InChIKey": null,
        "Canonical SMILES": "ClC1=CC=C(C(=C1)N2CCNCC2)C",
        "Molecular Formula": "C<sub>11</sub>H<sub>15</sub>ClN<sub>2</sub>",
        "Molecular Mass": "210.70",
        "Boiling Point": "123-124 °C @ Press: 1 Torr"
    }
}