{
    "cas_no": "8018-01-7",
    "key_name": "Mancozeb",
    "cn_name": null,
    "alternate_name": "Manganese, [<em>N</em>-[2-[(dithiocarboxy)amino]ethyl]carbamodithioato(2-)-κ<em>S</em>,κ<em>S</em>′]-, mixt. with [<em>N</em>-[2-[(dithiocarboxy)amino]ethyl]carbamodithioato(2-)-κ<em>S</em>,κ<em>S</em>′]zinc;Manganese, [[1,2-ethanediylbis[carbamodithioato]](2-)]-, mixt. with [[1,2-ethanediylbis[carbamodithioato]](2-)]zinc;Carbamic acid, ethylenebis[dithio-, manganese zinc complex;Manganese, [[2-[(dithiocarboxy)amino]ethyl]carbamodithioato(2-)-κ<em>S</em>,κ<em>S</em>′]-, mixt. with [[2-[(dithiocarboxy)amino]ethyl]carbamodithioato(2-)-κ<em>S</em>,κ<em>S</em>′]zinc;Carbamodithioic acid, 1,2-ethanediylbis-, zinc complex;Carbamodithioic acid, 1,2-ethanediylbis-, manganese complex;Zinc, [[1,2-ethanediylbis[carbamodithioato]](2-)]-, mixt. contg.;Zinc, [[2-[(dithiocarboxy)amino]ethyl]carbamodithioato(2-)-κ<em>S</em>,κ<em>S</em>′]-, mixt. contg.;Dithane M 45;Mancozeb;Manoseb;Marzin;Zinc manganese ethylenebisdithiocarbamate;Dithane ultra;F 2966;Fore;Zimanat;Manzate 200;Green-daisen M;Manzeb;Dithane SPC;Vondozeb;Maneb-zinc;Dithane S 60;Carmazine;Karamate;Zimaneb;Ziman-Dithane;Novozir MN 80;Tanzeo M 45;Othane M 45;Kascade;Manzidan;Mancozan;Milcozebe;Tritogol MZ;Mancozi;Mancomix;Dithane F;Nemispor;Mancosan;Agrox 16D;Dithane M80;Penncozeb;Dithane 945;Karamate N;Thane M 45;Novozir MN;Dithane DG;Pennfluid;Sancozeb;Liro manzeb;Indofil M 45;Dithane F 45;Dithane;Sandozeb Pepite;Mankogal;Pencozeb;Mycotrin;Diesen M;Sakozeb Blue;Dithane DG NT;Dithane OS;Dithane Rainshield Neo Tec;Mancozebe Sipcam;Contizeb;Suncozeb;Dhanuka M 45;Dithane Neo Tec 75WG;Jimanaisen;Jimandaisen;Hi-shield;Indofil 80WP;Trimanoc;Daisenmengxin;Dithane M45;Greenzeb 80WP;Indofil M45;Agrozeb 80WP;Dithane 60SC;Banazeb 60SC;Dithane NT;Mount 45",
    "duplicated_cas_no": "1338-87-0;8064-36-6;8065-67-6;8065-95-0;8069-51-0;12001-34-2;12656-69-8;14376-54-6;39432-69-4;56532-43-5;62712-14-5;67071-60-7;75789-54-7;84070-12-2;172672-41-2;1135443-01-4",
    "SMILES": "N(CCNC(=S)[S-])C=1[S-][Mn+2][S]1.N(CCNC(=S)[S-])C=1[S-][Zn+2][S]1",
    "meta_data": {
        "InChI": "InChI=1S/2C4H8N2S4.Mn.Zn/c2*7-3(8)5-1-2-6-4(9)10;;/h2*1-2H2,(H2,5,7,8)(H2,6,9,10);;/q;;2*+2/p-4",
        "InChIKey": null,
        "Canonical SMILES": "S=C([S-])NCCNC1=[S][Mn+2][S-]1.S=C([S-])NCCNC1=[S][Zn+2][S-]1",
        "Molecular Formula": "C<sub>4</sub>H<sub>6</sub>MnN<sub>2</sub>S<sub>4</sub>.C<sub>4</sub>H<sub>6</sub>N<sub>2</sub>S<sub>4</sub>Zn",
        "Molecular Mass": "",
        "Melting Point": "192-204 °C (decomp)",
        "Density": "1.92 g/cm³"
    }
}