{
    "cas_no": "590-15-8",
    "key_name": "1-Propene, 1-bromo-, (1<em>E</em>)-",
    "cn_name": null,
    "alternate_name": "1-Propene, 1-bromo-, (1<em>E</em>)-;Propene, 1-bromo-, (<em>E</em>)-;1-Propene, 1-bromo-, (<em>E</em>)-;Propene, 1-bromo-, <em>trans</em>-;<em>trans</em>-1-Bromopropene;<em>trans</em>-1-Bromo-1-propene;(<em>E</em>)-1-Bromo-1-propylene;(<em>E</em>)-1-Bromo-1-propene;(<em>E</em>)-1-Propenyl bromide;(<em>E</em>)-1-Bromopropene;1-Bromo-(1E)-propene;(E)-1-Bromo-1-propene;(E)-1-Bromoprop-1-ene",
    "duplicated_cas_no": "",
    "SMILES": "C(=C/C)\\Br",
    "meta_data": {
        "InChI": "InChI=1S/C3H5Br/c1-2-3-4/h2-3H,1H3/b3-2+",
        "InChIKey": null,
        "Canonical SMILES": "BrC=CC",
        "Molecular Formula": "C<sub>3</sub>H<sub>5</sub>Br",
        "Molecular Mass": "120.98",
        "Boiling Point": "59-60 °C @ Press: 755 Torr",
        "Density": "1.4062 g/cm³ @ Temp: 25 °C"
    }
}