{
    "cas_no": "111-49-9",
    "key_name": "Azepane",
    "cn_name": "环己亚胺;六亚甲基亚胺;高哌啶;",
    "alternate_name": "1<em>H</em>-Azepine, hexahydro-;Hexamethylenimine;Hexahydro-1<em>H</em>-azepine;Azacycloheptane;Homopiperidine;Perhydroazepine;Hexahydroazepine;G 0 (amine);1-Azacycloheptane;G 0;Azepane;Azepan;NSC 16236",
    "duplicated_cas_no": "",
    "SMILES": "C1CCCNCC1",
    "meta_data": {
        "InChI": "InChI=1S/C6H13N/c1-2-4-6-7-5-3-1/h7H,1-6H2",
        "InChIKey": null,
        "Canonical SMILES": "N1CCCCCC1",
        "Molecular Formula": "C<sub>6</sub>H<sub>13</sub>N",
        "Molecular Mass": "99.17",
        "Boiling Point": "138 °C",
        "Melting Point": "-37 °C",
        "Density": "0.8643 g/cm³ @ Temp: 22 °C"
    }
}