{
    "cas_no": "3392-09-4",
    "key_name": "<em>N</em>-[(1,1-Dimethylethoxy)carbonyl]-<span class=\"text-smallcaps\">L</span>-leucine 2,5-dioxo-1-pyrrolidinyl ester",
    "cn_name": null,
    "alternate_name": "<span class=\"text-smallcaps\">L</span>-Leucine, <em>N</em>-[(1,1-dimethylethoxy)carbonyl]-, 2,5-dioxo-1-pyrrolidinyl ester;Succinimide, <em>N</em>-[(<em>N</em>-carboxy-<span class=\"text-smallcaps\">L</span>-leucyl)oxy]-, <em>tert</em>-butyl ester;Carbamic acid, [1-[[(2,5-dioxo-1-pyrrolidinyl)oxy]carbonyl]-3-methylbutyl]-, 1,1-dimethylethyl ester, (<em>S</em>)-;Carbamic acid, [(1<em>S</em>)-1-[[(2,5-dioxo-1-pyrrolidinyl)oxy]carbonyl]-3-methylbutyl]-, 1,1-dimethylethyl ester;Leucine, <em>N</em>-carboxy-, <em>N</em>-<em>tert</em>-butyl ester, <em>O</em>-succinimido deriv., <span class=\"text-smallcaps\">L</span>-;<em>N</em>-[(1,1-Dimethylethoxy)carbonyl]-<span class=\"text-smallcaps\">L</span>-leucine 2,5-dioxo-1-pyrrolidinyl ester;<em>N</em>-(<em>tert</em>-Butyloxycarbonyl)-<span class=\"text-smallcaps\">L</span>-leucine ester with <em>N</em>-hydroxysuccinimide;<em>N</em>-<em>tert</em>-Butyloxycarbonyl-<span class=\"text-smallcaps\">L</span>-leucine <em>N</em>-hydroxysuccinimide ester;NSC 334346;<em>tert</em>-Butyloxycarbonyl-<span class=\"text-smallcaps\">L</span>-leucine <em>N</em>-hydroxysuccinimide ester",
    "duplicated_cas_no": "",
    "SMILES": "O(C([C@@H](NC(OC(C)(C)C)=O)CC(C)C)=O)N1C(=O)CCC1=O",
    "meta_data": {
        "InChI": "InChI=1S/C15H24N2O6/c1-9(2)8-10(16-14(21)22-15(3,4)5)13(20)23-17-11(18)6-7-12(17)19/h9-10H,6-8H2,1-5H3,(H,16,21)/t10-/m0/s1",
        "InChIKey": null,
        "Canonical SMILES": "O=C(OC(C)(C)C)NC(C(=O)ON1C(=O)CCC1=O)CC(C)C",
        "Molecular Formula": "C<sub>15</sub>H<sub>24</sub>N<sub>2</sub>O<sub>6</sub>",
        "Molecular Mass": "328.36",
        "Melting Point": "116 °C"
    }
}