{
    "cas_no": "7784-25-0",
    "key_name": "Ammonium aluminum sulfate",
    "cn_name": "硫酸铵铝;硫酸铝铵;铵明矾;",
    "alternate_name": "Sulfuric acid, aluminum ammonium salt (2:1:1);Aluminum ammonium sulfate (Al(NH<sub>4</sub>)(SO<sub>4</sub>)<sub>2</sub>);Alum ammonium;Burnt ammonium alum;Exsiccated ammonium alum;Ammonium aluminum alum;Ammonium alum;Monoammonium monoaluminum sulfate;Aluminum ammonium alum;Aluminum ammonium disulfate (Al(NH<sub>4</sub>)(SO<sub>4</sub>)<sub>2</sub>);Curb;Aluminum sulfate compd. with ammonium sulfate (1:1);Ammonium aluminum sulfate (NH<sub>4</sub>Al(SO<sub>4</sub>)<sub>2</sub>);Aluminum ammonium bis(sulfate);Ammonium aluminum sulfate;Aluminum ammonium sulfate",
    "duplicated_cas_no": "",
    "SMILES": "S(=O)(=O)(O)O.[Al].N",
    "meta_data": {
        "InChI": "InChI=1S/Al.H3N.H2O4S/c;;1-5(2,3)4/h;1H3;(H2,1,2,3,4)",
        "InChIKey": null,
        "Canonical SMILES": "[Al].O=S(=O)(O)O.N",
        "Molecular Formula": "Al.H<sub>3</sub>N.2H<sub>2</sub>O<sub>4</sub>S",
        "Molecular Mass": "",
        "Melting Point": "94.5 °C",
        "Density": "2.45 g/cm³ @ Temp: 20 °C"
    }
}