{
    "cas_no": "31274-51-8",
    "key_name": "2,4,6-Tribiphenyl-4-yl-1,3,5-triazine",
    "cn_name": null,
    "alternate_name": "1,3,5-Triazine, 2,4,6-tris([1,1′-biphenyl]-4-yl)-;<em>s</em>-Triazine, 2,4,6-tri-4-biphenylyl-;2,4,6-Tris([1,1′-biphenyl]-4-yl)-1,3,5-triazine;2,4,6-Tris(<em>p</em>-biphenylyl)-<em>s</em>-triazine;Tinosorb A 2B;2,4,6-Tribiphenyl-4-yl-1,3,5-triazine;2,4,6-Tris(4-phenylphenyl)-1,3,5-triazine;2,4,6-Tri(1,1′-biphenyl-4-yl)-1,3,5-triazine",
    "duplicated_cas_no": "",
    "SMILES": "C=1(N=C(N=C(N1)C2=CC=C(C=C2)C3=CC=CC=C3)C4=CC=C(C=C4)C5=CC=CC=C5)C6=CC=C(C=C6)C7=CC=CC=C7",
    "meta_data": {
        "InChI": "InChI=1S/C39H27N3/c1-4-10-28(11-5-1)31-16-22-34(23-17-31)37-40-38(35-24-18-32(19-25-35)29-12-6-2-7-13-29)42-39(41-37)36-26-20-33(21-27-36)30-14-8-3-9-15-30/h1-27H",
        "InChIKey": null,
        "Canonical SMILES": "N=1C(=NC(=NC1C=2C=CC(=CC2)C=3C=CC=CC3)C=4C=CC(=CC4)C=5C=CC=CC5)C=6C=CC(=CC6)C=7C=CC=CC7",
        "Molecular Formula": "C<sub>39</sub>H<sub>27</sub>N<sub>3</sub>",
        "Molecular Mass": "537.65",
        "Melting Point": "283 °C"
    }
}