{
    "cas_no": "3123-73-7",
    "key_name": "1-Palmitoyl-2-oleoylglycerol",
    "cn_name": null,
    "alternate_name": "9-Octadecenoic acid (9<em>Z</em>)-, 1-(hydroxymethyl)-2-[(1-oxohexadecyl)oxy]ethyl ester;Olein, 1-palmito-2-;9-Octadecenoic acid (<em>Z</em>)-, 1-(hydroxymethyl)-2-[(1-oxohexadecyl)oxy]ethyl ester;Palmitin, 2-oleo-1-;1-Palmitoyl-2-oleoylglycerol;2-Oleoyl-1-palmitoyl glycerol;1-Palmitoyl-2-oleoyl-<span class=\"text-smallcaps\">DL</span>-glycerol;1-Palmitoyl-2-oleoyl-rac-glycerol",
    "duplicated_cas_no": "1587-93-5",
    "SMILES": "C(OC(CCCCCCC/C=C\\CCCCCCCC)=O)(COC(CCCCCCCCCCCCCCC)=O)CO",
    "meta_data": {
        "InChI": "InChI=1/C37H70O5/c1-3-5-7-9-11-13-15-17-18-20-22-24-26-28-30-32-37(40)42-35(33-38)34-41-36(39)31-29-27-25-23-21-19-16-14-12-10-8-6-4-2/h17-18,35,38H,3-16,19-34H2,1-2H3/b18-17-",
        "InChIKey": null,
        "Canonical SMILES": "O=C(OCC(OC(=O)CCCCCCCC=CCCCCCCCC)CO)CCCCCCCCCCCCCCC",
        "Molecular Formula": "C<sub>37</sub>H<sub>70</sub>O<sub>5</sub>",
        "Molecular Mass": "594.95",
        "Melting Point": "31-32 °C"
    }
}