{
    "cas_no": "6346-09-4",
    "key_name": "4,4-Diethoxy-1-butanamine",
    "cn_name": "4-氨基丁醛缩二乙醇;",
    "alternate_name": "1-Butanamine, 4,4-diethoxy-;Butyraldehyde, 4-amino-, diethyl acetal;Butylamine, 4,4-diethoxy-;4,4-Diethoxy-1-butanamine;4-Aminobutanal diethyl acetal;4-Aminobutyraldehyde diethyl acetal;4,4-Diethoxybutylamine;NSC 43756;γ-Aminobutryaldehyde diethyl acetal",
    "duplicated_cas_no": "",
    "SMILES": "C(CCCN)(OCC)OCC",
    "meta_data": {
        "InChI": "InChI=1S/C8H19NO2/c1-3-10-8(11-4-2)6-5-7-9/h8H,3-7,9H2,1-2H3",
        "InChIKey": null,
        "Canonical SMILES": "O(CC)C(OCC)CCCN",
        "Molecular Formula": "C<sub>8</sub>H<sub>19</sub>NO<sub>2</sub>",
        "Molecular Mass": "161.24",
        "Boiling Point": "196 °C"
    }
}