{
    "cas_no": "70504-01-7",
    "key_name": "1-[6-(Dimethylamino)-2-naphthalenyl]-1-propanone",
    "cn_name": null,
    "alternate_name": "1-Propanone, 1-[6-(dimethylamino)-2-naphthalenyl]-;1-[6-(Dimethylamino)-2-naphthalenyl]-1-propanone;Prodan (fluorophore);Prodan;6-Propionyl-2-(dimethylamino)naphthalene;6-propanoyl-2-(N,N-dimethylamino)naphthalene;6-Propionyl-2-(<em>N</em>,<em>N</em>-dimethylamino)naphthalene;2-Propionyl-6-dimethylaminonaphthalene;2-(<em>N</em>,<em>N</em>-Dimethylamino)-6-propionylnaphthalene",
    "duplicated_cas_no": "",
    "SMILES": "C(CC)(=O)C1=CC2=C(C=C(N(C)C)C=C2)C=C1",
    "meta_data": {
        "InChI": "InChI=1S/C15H17NO/c1-4-15(17)13-6-5-12-10-14(16(2)3)8-7-11(12)9-13/h5-10H,4H2,1-3H3",
        "InChIKey": null,
        "Canonical SMILES": "O=C(C1=CC=C2C=C(C=CC2=C1)N(C)C)CC",
        "Molecular Formula": "C<sub>15</sub>H<sub>17</sub>NO",
        "Molecular Mass": "227.30",
        "Melting Point": "142-143 °C"
    }
}