{
    "cas_no": "2016-36-6",
    "key_name": "Choline salicylate",
    "cn_name": null,
    "alternate_name": "Ethanaminium, 2-hydroxy-<em>N</em>,<em>N</em>,<em>N</em>-trimethyl-, 2-hydroxybenzoate (1:1);Choline, salicylate (salt);Choline salicylate;Ethanaminium, 2-hydroxy-<em>N</em>,<em>N</em>,<em>N</em>-trimethyl-, salt with 2-hydroxybenzoic acid (1:1);Salicylic acid, ion(1-), choline;Benzoic acid, 2-hydroxy-, ion(1-), 2-hydroxy-<em>N</em>,<em>N</em>,<em>N</em>-trimethylethanaminium;Actasal;Arthropan;(2-Hydroxyethyl)trimethylammonium salicylate;Arret;Salicol;Artrobione;Mundisal;Syrap;Satibon;Audax;Choline salicylic acid salt;Salicylic acid choline salt;Choline subsalicylate;(2-Hydroxyethyl)trimethylammonium 2-hydroxybenzoate;Cholinium salicylate",
    "duplicated_cas_no": "54391-51-4;2093200-84-9",
    "SMILES": "C([O-])(=O)C1=C(O)C=CC=C1.C([N+](C)(C)C)CO",
    "meta_data": {
        "InChI": "InChI=1S/C7H6O3.C5H14NO/c8-6-4-2-1-3-5(6)7(9)10;1-6(2,3)4-5-7/h1-4,8H,(H,9,10);7H,4-5H2,1-3H3/q;+1/p-1",
        "InChIKey": null,
        "Canonical SMILES": "O=C([O-])C=1C=CC=CC1O.OCC[N+](C)(C)C",
        "Molecular Formula": "C<sub>7</sub>H<sub>5</sub>O<sub>3</sub>.C<sub>5</sub>H<sub>14</sub>NO",
        "Molecular Mass": "",
        "Melting Point": "49-50 °C",
        "Density": "1.168177 g/cm³ @ Temp: 40 °C"
    }
}