{
    "cas_no": "7669-65-0",
    "key_name": "<span class=\"text-smallcaps\">L</smallcap>-Phenylalanyl-<smallcap>L</span>-proline",
    "cn_name": "H-PHE-PRO-OH;",
    "alternate_name": "<span class=\"text-smallcaps\">L</smallcap>-Proline, <smallcap>L</span>-phenylalanyl-;Proline, 1-(3-phenyl-<span class=\"text-smallcaps\">L</smallcap>-alanyl)-, <smallcap>L</span>-;<span class=\"text-smallcaps\">L</smallcap>-Proline, 1-<smallcap>L</span>-phenylalanyl-;Proline, 1-(3-phenyl-<span class=\"text-smallcaps\">L</span>-alanyl)-;<span class=\"text-smallcaps\">L</smallcap>-Phenylalanyl-<smallcap>L</span>-proline;9: PN: WO2014063098 TABLE: 5 claimed protein;26: PN: WO2021055880 SEQID: 27 claimed protein",
    "duplicated_cas_no": "",
    "SMILES": "C([C@H](CC1=CC=CC=C1)N)(=O)N2[C@H](C(O)=O)CCC2",
    "meta_data": {
        "InChI": "InChI=1S/C14H18N2O3/c15-11(9-10-5-2-1-3-6-10)13(17)16-8-4-7-12(16)14(18)19/h1-3,5-6,11-12H,4,7-9,15H2,(H,18,19)/t11-,12-/m0/s1",
        "InChIKey": null,
        "Canonical SMILES": "O=C(O)C1N(C(=O)C(N)CC=2C=CC=CC2)CCC1",
        "Molecular Formula": "C<sub>14</sub>H<sub>18</sub>N<sub>2</sub>O<sub>3</sub>",
        "Molecular Mass": "262.30",
        "Melting Point": "127-129 °C"
    }
}