{
    "cas_no": "64695-79-0",
    "key_name": "2-Bromo-4,5-difluorobenzenamine",
    "cn_name": null,
    "alternate_name": "Benzenamine, 2-bromo-4,5-difluoro-;2-Bromo-4,5-difluorobenzenamine;2-Bromo-4,5-difluoroaniline;(2-Bromo-4,5-difluorophenyl)amine",
    "duplicated_cas_no": "",
    "SMILES": "BrC1=C(N)C=C(F)C(F)=C1",
    "meta_data": {
        "InChI": "InChI=1S/C6H4BrF2N/c7-3-1-4(8)5(9)2-6(3)10/h1-2H,10H2",
        "InChIKey": null,
        "Canonical SMILES": "FC=1C=C(Br)C(N)=CC1F",
        "Molecular Formula": "C<sub>6</sub>H<sub>4</sub>BrF<sub>2</sub>N",
        "Molecular Mass": "208.00",
        "Boiling Point": "90-93 °C @ Press: 1 Torr"
    }
}