{
    "cas_no": "625-69-4",
    "key_name": "2,4-Pentanediol",
    "cn_name": "2,4-戊二醇;2,4-二羟基戊烷;",
    "alternate_name": "2,4-Pentanediol;2,4-Amylene glycol;2,4-Dihydroxypentane;NSC 13528;NSC 53505;1,3-Dimethylpropane-1,3-diol",
    "duplicated_cas_no": "75398-91-3",
    "SMILES": "C(C(C)O)C(C)O",
    "meta_data": {
        "InChI": "InChI=1S/C5H12O2/c1-4(6)3-5(2)7/h4-7H,3H2,1-2H3",
        "InChIKey": null,
        "Canonical SMILES": "OC(C)CC(O)C",
        "Molecular Formula": "C<sub>5</sub>H<sub>12</sub>O<sub>2</sub>",
        "Molecular Mass": "104.15",
        "Boiling Point": "199 °C"
    }
}