{
    "cas_no": "722-27-0",
    "key_name": "4-Aminophenyl disulfide",
    "cn_name": "4,4\"-二硫代二苯胺;二硫二(对氨基)苯;4,4\"-二氨基二苯二硫醚;",
    "alternate_name": "Benzenamine, 4,4′-dithiobis-;Aniline, 4,4′-dithiodi-;Aniline, <em>p</em>,<em>p</em>′-dithiobis-;4,4′-Dithiobis[benzenamine];Bis(4-aminophenyl) disulfide;4,4′-Dithiodianiline;Bis(<em>p</em>-aminophenyl) disulfide;Bis(<em>p</em>-aniline)disulfide;4,4′-Dithiobisaniline;<em>p</em>,<em>p</em>′-Diaminodiphenyl disulfide;4,4′-Diaminodiphenyl disulfide;<em>p</em>,<em>p</em>′-Dithiobisaniline;4,4′-Diaminophenyl disulfide;Dithiobis[4-aminobenzene];VTI 8;4-Aminophenyl disulfide;<em>p</em>-Aminophenyl disulfide;NSC 62984;NSC 677451;Di(4-aminophenyl) disulfide;4,4′-Disulfanediyldianiline;DTDA",
    "duplicated_cas_no": "56940-56-8",
    "SMILES": "S(SC1=CC=C(N)C=C1)C2=CC=C(N)C=C2",
    "meta_data": {
        "InChI": "InChI=1S/C12H12N2S2/c13-9-1-5-11(6-2-9)15-16-12-7-3-10(14)4-8-12/h1-8H,13-14H2",
        "InChIKey": null,
        "Canonical SMILES": "S(SC1=CC=C(N)C=C1)C2=CC=C(N)C=C2",
        "Molecular Formula": "C<sub>12</sub>H<sub>12</sub>N<sub>2</sub>S<sub>2</sub>",
        "Molecular Mass": "248.37",
        "Melting Point": "76-77 °C",
        "Density": "1.357 g/cm³ @ Press: 750 Torr"
    }
}