{
    "cas_no": "1707-95-5",
    "key_name": "Bindone",
    "cn_name": "双茚二酮;",
    "alternate_name": "1<em>H</em>-Indene-1,3(2<em>H</em>)-dione, 2-(2,3-dihydro-3-oxo-1<em>H</em>-inden-1-ylidene)-;Bindone;[Δ<sup>1,2′</sup>-Biindan]-1′,3,3′-trione;2-(2,3-Dihydro-3-oxo-1<em>H</em>-inden-1-ylidene)-1<em>H</em>-indene-1,3(2<em>H</em>)-dione;Anhydrobis(indandione);Bindon;NSC 26216;[1,2′-Biindenylidene]-1′,3,3′(2<em>H</em>)-trione;2-(3-Oxoinden-1-ylidene)indene-1,3-dione",
    "duplicated_cas_no": "10274-73-4",
    "SMILES": "O=C1C(=C2C=3C(C(=O)C2)=CC=CC3)C(=O)C=4C1=CC=CC4",
    "meta_data": {
        "InChI": "InChI=1S/C18H10O3/c19-15-9-14(10-5-1-2-6-11(10)15)16-17(20)12-7-3-4-8-13(12)18(16)21/h1-8H,9H2",
        "InChIKey": null,
        "Canonical SMILES": "O=C1C=2C=CC=CC2C(=O)C1=C3C=4C=CC=CC4C(=O)C3",
        "Molecular Formula": "C<sub>18</sub>H<sub>10</sub>O<sub>3</sub>",
        "Molecular Mass": "274.27",
        "Melting Point": "208-211 °C (decomp)"
    }
}