{
    "cas_no": "1733-25-1",
    "key_name": "Isopropyl tiglate",
    "cn_name": "惕各酸异丙酯;(E)-2-甲基-2-丁烯酸异丙酯;",
    "alternate_name": "2-Butenoic acid, 2-methyl-, 1-methylethyl ester, (2<em>E</em>)-;2-Butenoic acid, 2-methyl-, 1-methylethyl ester, (<em>E</em>)-;Isopropyl tiglate;Tiglic acid isopropyl ester",
    "duplicated_cas_no": "",
    "SMILES": "C(/C(=C/C)/C)(OC(C)C)=O",
    "meta_data": {
        "InChI": "InChI=1S/C8H14O2/c1-5-7(4)8(9)10-6(2)3/h5-6H,1-4H3/b7-5+",
        "InChIKey": null,
        "Canonical SMILES": "O=C(OC(C)C)C(=CC)C",
        "Molecular Formula": "C<sub>8</sub>H<sub>14</sub>O<sub>2</sub>",
        "Molecular Mass": "142.20",
        "Boiling Point": "70-73 °C @ Press: 8 Torr"
    }
}