{
    "cas_no": "622-38-8",
    "key_name": "Ethyl phenyl sulfide",
    "cn_name": "苯乙硫醚;",
    "alternate_name": "Benzene, (ethylthio)-;Sulfide, ethyl phenyl;(Ethylthio)benzene;Phenyl ethyl sulfide;Ethyl phenyl sulfide;(Phenylthio)ethane;Thiophenetole;NSC 75124;(Ethylsulfanyl)benzene;Ethyl(phenyl)sulfane",
    "duplicated_cas_no": "",
    "SMILES": "S(CC)C1=CC=CC=C1",
    "meta_data": {
        "InChI": "InChI=1S/C8H10S/c1-2-9-8-6-4-3-5-7-8/h3-7H,2H2,1H3",
        "InChIKey": null,
        "Canonical SMILES": "S(C=1C=CC=CC1)CC",
        "Molecular Formula": "C<sub>8</sub>H<sub>10</sub>S",
        "Molecular Mass": "138.23",
        "Boiling Point": "205 °C",
        "Melting Point": "-35.21 °C",
        "Density": "1.01479 g/cm³ @ Temp: 25 °C"
    }
}