{
    "cas_no": "6996-92-5",
    "key_name": "Benzeneseleninic acid",
    "cn_name": null,
    "alternate_name": "Benzeneseleninic acid;Phenylseleninic acid;Benzeneselenic acid",
    "duplicated_cas_no": "",
    "SMILES": "[Se](=O)(O)C1=CC=CC=C1",
    "meta_data": {
        "InChI": "InChI=1S/C6H6O2Se/c7-9(8)6-4-2-1-3-5-6/h1-5H,(H,7,8)",
        "InChIKey": null,
        "Canonical SMILES": "O=[Se](O)C=1C=CC=CC1",
        "Molecular Formula": "C<sub>6</sub>H<sub>6</sub>O<sub>2</sub>Se",
        "Molecular Mass": "189.07",
        "Melting Point": "124.5 °C"
    }
}