{
    "cas_no": "299-88-7",
    "key_name": "Dibenzoylthiamine",
    "cn_name": null,
    "alternate_name": "Benzenecarbothioic acid, <em>S</em>-[2-[[(4-amino-2-methyl-5-pyrimidinyl)methyl]formylamino]-1-[2-(benzoyloxy)ethyl]-1-propen-1-yl] ester;Benzoic acid, thio-, <em>S</em>-ester with <em>N</em>-[(4-amino-2-methyl-5-pyrimidinyl)methyl]-<em>N</em>-(4-hydroxy-2-mercapto-1-methyl-1-butenyl)formamide benzoate (ester);Thiamine, <em>O</em>,<em>S</em>-dibenzoyl-;Benzenecarbothioic acid, <em>S</em>-[2-[[(4-amino-2-methyl-5-pyrimidinyl)methyl]formylamino]-1-[2-(benzoyloxy)ethyl]-1-propenyl] ester;Bentiamine;DBT;Dibenzoylthiamine;<em>O</em>,<em>S</em>-Dibenzoylthiamine;<em>O</em>,<em>S</em>-Bis(benzoyl)thiamine disulfide;Dibenthiamine",
    "duplicated_cas_no": "56829-57-3;103032-39-9",
    "SMILES": "C(N(C(=C(SC(=O)C1=CC=CC=C1)CCOC(=O)C2=CC=CC=C2)C)C=O)C=3C(N)=NC(C)=NC3",
    "meta_data": {
        "InChI": "InChI=1S/C26H26N4O4S/c1-18(30(17-31)16-22-15-28-19(2)29-24(22)27)23(35-26(33)21-11-7-4-8-12-21)13-14-34-25(32)20-9-5-3-6-10-20/h3-12,15,17H,13-14,16H2,1-2H3,(H2,27,28,29)",
        "InChIKey": null,
        "Canonical SMILES": "O=CN(C(=C(SC(=O)C=1C=CC=CC1)CCOC(=O)C=2C=CC=CC2)C)CC3=CN=C(N=C3N)C",
        "Molecular Formula": "C<sub>26</sub>H<sub>26</sub>N<sub>4</sub>O<sub>4</sub>S",
        "Molecular Mass": "490.57",
        "Melting Point": "172 °C"
    }
}