{
    "cas_no": "35975-00-9",
    "key_name": "5-Amino-6-nitroquinoline",
    "cn_name": "5-氨基-6-硝基喹啉;",
    "alternate_name": "5-Quinolinamine, 6-nitro-;6-Nitro-5-quinolinamine;5-Amino-6-nitroquinoline",
    "duplicated_cas_no": "",
    "SMILES": "NC=1C2=C(C=CC1N(=O)=O)N=CC=C2",
    "meta_data": {
        "InChI": "InChI=1S/C9H7N3O2/c10-9-6-2-1-5-11-7(6)3-4-8(9)12(13)14/h1-5H,10H2",
        "InChIKey": null,
        "Canonical SMILES": "O=N(=O)C=1C=CC2=NC=CC=C2C1N",
        "Molecular Formula": "C<sub>9</sub>H<sub>7</sub>N<sub>3</sub>O<sub>2</sub>",
        "Molecular Mass": "189.17",
        "Melting Point": "272 °C (decomp)"
    }
}