{
    "cas_no": "32993-05-8",
    "key_name": "Chloro(η<sup>5</sup>-cyclopentadienyl)bis(triphenylphosphine)ruthenium",
    "cn_name": null,
    "alternate_name": "Ruthenium, chloro(η<sup>5</sup>-2,4-cyclopentadien-1-yl)bis(triphenylphosphine)-;Ruthenium, chloro-π-cyclopentadienylbis(triphenylphosphine)-;Chloro(η<sup>5</sup>-2,4-cyclopentadien-1-yl)bis(triphenylphosphine)ruthenium;Chloro-π-cyclopentadienylbis(triphenylphosphine)ruthenium;Chloro(cyclopentadienyl)bis(triphenylphosphine)ruthenium;Chloro(η<sup>5</sup>-cyclopentadienyl)bis(triphenylphosphine)ruthenium;Bis(triphenylphosphine)cyclopentadienylruthenium chloride;η<sup>5</sup>-Cyclopentadienylbis(triphenylphosphine)ruthenium chloride;Chloro(cyclopentadienyl)bis(triphenylphosphine)ruthenium(II);Cyclopentadienylbis(triphenylphosphine)ruthenium chloride;Chloro(η-cyclopentadienyl)bis(triphenylphosphine)ruthenium;Bis(triphenylphosphine)(chloro)cyclopentadienylruthenium;Bis(triphenylphosphine)(cyclopentadiene)ruthenium chloride",
    "duplicated_cas_no": "75592-54-0",
    "SMILES": "[P]([Ru+2]1234([P](C5=CC=CC=C5)(C6=CC=CC=C6)C7=CC=CC=C7)([Cl-])[CH-]8[CH]1=[CH]2[CH]3=[CH]48)(C9=CC=CC=C9)(C%10=CC=CC=C%10)C%11=CC=CC=C%11",
    "meta_data": {
        "InChI": "InChI=1S/2C18H15P.C5H5.ClH.Ru/c2*1-4-10-16(11-5-1)19(17-12-6-2-7-13-17)18-14-8-3-9-15-18;1-2-4-5-3-1;;/h2*1-15H;1-5H;1H;/q;;-1;;+2/p-1",
        "InChIKey": null,
        "Canonical SMILES": "[Cl-][Ru+2]1234([CH]=5[CH]4=[CH]3[CH-]2[CH]51)([P](C=6C=CC=CC6)(C=7C=CC=CC7)C=8C=CC=CC8)[P](C=9C=CC=CC9)(C=%10C=CC=CC%10)C=%11C=CC=CC%11",
        "Molecular Formula": "C<sub>41</sub>H<sub>35</sub>ClP<sub>2</sub>Ru",
        "Molecular Mass": "",
        "Melting Point": "131-132 °C"
    }
}