{
    "cas_no": "71209-71-7",
    "key_name": "1-[4-(1,1-Dimethylethyl)phenyl]-1-propanone",
    "cn_name": "丁基苯丙酮;4-叔丁基苯丙酮;",
    "alternate_name": "1-Propanone, 1-[4-(1,1-dimethylethyl)phenyl]-;Propiophenone, 4′-<em>tert</em>-butyl-;1-[4-(1,1-Dimethylethyl)phenyl]-1-propanone;4-(1,1-Dimethylethyl)propiophenone;4′-<em>tert</em>-Butylpropiophenone;<em>p</em>-<em>tert</em>-Butylpropiophenone;4-<em>tert</em>-Butylpropiophenone;1-[4-(<em>tert</em>-Butyl)phenyl]propan-1-one;1-(4-<em>tert</em>-Butylphenyl)propan-1-one",
    "duplicated_cas_no": "",
    "SMILES": "C(C)(C)(C)C1=CC=C(C(CC)=O)C=C1",
    "meta_data": {
        "InChI": "InChI=1S/C13H18O/c1-5-12(14)10-6-8-11(9-7-10)13(2,3)4/h6-9H,5H2,1-4H3",
        "InChIKey": null,
        "Canonical SMILES": "O=C(C1=CC=C(C=C1)C(C)(C)C)CC",
        "Molecular Formula": "C<sub>13</sub>H<sub>18</sub>O",
        "Molecular Mass": "190.28",
        "Boiling Point": "83 °C @ Press: 0.15 Torr"
    }
}