{
    "cas_no": "566-19-8",
    "key_name": "7-Oxo-DHEA",
    "cn_name": "7-酮基去氢表雄酮;",
    "alternate_name": "Androst-5-ene-7,17-dione, 3-hydroxy-, (3β)-;Androst-5-ene-7,17-dione, 3β-hydroxy-;(3β)-3-Hydroxyandrost-5-ene-7,17-dione;7-Oxodehydroepiandrosterone;7-Ketodehydroepiandrosterone;3β-Hydroxy-5-androstene-7,17-dione;5-Androsten-3β-ol-7,17-dione;7-Keto-DHEA;7-Oxo-DHEA;7-<em>keto</em>-DHEA",
    "duplicated_cas_no": "",
    "SMILES": "C[C@@]12[C@@]3([C@]([C@]4([C@](C)(CC3)C(=O)CC4)[H])(C(=O)C=C1C[C@@H](O)CC2)[H])[H]",
    "meta_data": {
        "InChI": "InChI=1S/C19H26O3/c1-18-7-5-12(20)9-11(18)10-15(21)17-13-3-4-16(22)19(13,2)8-6-14(17)18/h10,12-14,17,20H,3-9H2,1-2H3/t12-,13-,14-,17-,18-,19-/m0/s1",
        "InChIKey": null,
        "Canonical SMILES": "O=C1C=C2CC(O)CCC2(C)C3CCC4(C(=O)CCC4C13)C",
        "Molecular Formula": "C<sub>19</sub>H<sub>26</sub>O<sub>3</sub>",
        "Molecular Mass": "302.41",
        "Melting Point": "245-248 °C"
    }
}