{
    "cas_no": "583-78-8",
    "key_name": "2,5-Dichlorophenol",
    "cn_name": "2,5-二氯苯酚;",
    "alternate_name": "Phenol, 2,5-dichloro-;2,5-Dichlorophenol;NSC 6296",
    "duplicated_cas_no": "",
    "SMILES": "OC1=C(Cl)C=CC(Cl)=C1",
    "meta_data": {
        "InChI": "InChI=1S/C6H4Cl2O/c7-4-1-2-5(8)6(9)3-4/h1-3,9H",
        "InChIKey": null,
        "Canonical SMILES": "ClC1=CC=C(Cl)C(O)=C1",
        "Molecular Formula": "C<sub>6</sub>H<sub>4</sub>Cl<sub>2</sub>O",
        "Molecular Mass": "163.00",
        "Boiling Point": "211 °C @ Press: 744 Torr",
        "Melting Point": "59 °C"
    }
}