{
    "cas_no": "1425-10-1",
    "key_name": "Nandrolone acetate",
    "cn_name": null,
    "alternate_name": "Estr-4-en-3-one, 17-(acetyloxy)-, (17β)-;Estr-4-en-3-one, 17β-hydroxy-, acetate;(17β)-17-(Acetyloxy)estr-4-en-3-one;19-Nortestosterone acetate;3-Oxo-4-estren-17β-yl acetate;19-Nortestosterone 17-acetate;Nandrolone acetate;17β-Acetoxy-19-norandrost-4-en-3-one;17β-Acetoxyestr-4-en-3-one;NSC 73213",
    "duplicated_cas_no": "",
    "SMILES": "C[C@@]12[C@]([C@]3([C@](CC1)([C@@]4(C(CC3)=CC(=O)CC4)[H])[H])[H])(CC[C@@H]2OC(C)=O)[H]",
    "meta_data": {
        "InChI": "InChI=1S/C20H28O3/c1-12(21)23-19-8-7-18-17-5-3-13-11-14(22)4-6-15(13)16(17)9-10-20(18,19)2/h11,15-19H,3-10H2,1-2H3/t15-,16+,17+,18-,19-,20-/m0/s1",
        "InChIKey": null,
        "Canonical SMILES": "O=C(OC1CCC2C3CCC4=CC(=O)CCC4C3CCC12C)C",
        "Molecular Formula": "C<sub>20</sub>H<sub>28</sub>O<sub>3</sub>",
        "Molecular Mass": "316.43",
        "Melting Point": "91-93 °C"
    }
}