{
    "cas_no": "10114-49-5",
    "key_name": "Solvent Red 207",
    "cn_name": "溶剂红207;1,5-双[(3-甲基苯基)氨基]-9,10-蒽醌;",
    "alternate_name": "9,10-Anthracenedione, 1,5-bis[(3-methylphenyl)amino]-;Anthraquinone, 1,5-di-<em>m</em>-toluidino-;1,5-Bis[(3-methylphenyl)amino]-9,10-anthracenedione;Solvent Red 207;C.I. 617001;C.I. Solvent Red 207;1,5-Bis[(3-methylphenyl)amino]anthraquinone",
    "duplicated_cas_no": "264888-27-9",
    "SMILES": "N(C1=C2C(C(=O)C=3C(C2=O)=CC=CC3NC4=CC(C)=CC=C4)=CC=C1)C5=CC(C)=CC=C5",
    "meta_data": {
        "InChI": "InChI=1S/C28H22N2O2/c1-17-7-3-9-19(15-17)29-23-13-5-11-21-25(23)27(31)22-12-6-14-24(26(22)28(21)32)30-20-10-4-8-18(2)16-20/h3-16,29-30H,1-2H3",
        "InChIKey": null,
        "Canonical SMILES": "O=C1C=2C=CC=C(NC3=CC=CC(=C3)C)C2C(=O)C=4C=CC=C(NC5=CC=CC(=C5)C)C14",
        "Molecular Formula": "C<sub>28</sub>H<sub>22</sub>N<sub>2</sub>O<sub>2</sub>",
        "Molecular Mass": "418.49",
        "Melting Point": "198 °C"
    }
}