{
    "cas_no": "139-91-3",
    "key_name": "Furaltadone",
    "cn_name": "呋喃他酮;呋喃它酮;呋吗唑酮;5-(4-吗啉基甲基)-3-(5-硝基-2-呋喃亚基氨基)-2-恶唑啉酮;",
    "alternate_name": "2-Oxazolidinone, 5-(4-morpholinylmethyl)-3-[[(5-nitro-2-furanyl)methylene]amino]-;2-Oxazolidinone, 5-(morpholinomethyl)-3-[(5-nitrofurfurylidene)amino]-;5-(4-Morpholinylmethyl)-3-[[(5-nitro-2-furanyl)methylene]amino]-2-oxazolidinone;F 150;NF 260;Altafur;Furaltadone;Furazolin;Furazoline;Furmethonol;5-Morpholinomethyl-3-(5-nitrofurfurylideneamino)-2-oxazolidinone;5-(4-Morpholinomethyl)-3-(5-nitro-2-furfurylideneamino)-2-oxazolidinone;5-(<em>N</em>-Morpholinomethyl)-3-(5-nitrofurfurylideneamino)-2-oxazolidone;<em>N</em>-(5-Nitro-2-furylidene)-3-amino-5-(<em>N</em>′-morpholinomethyl)-2-oxazolidone;Valsyn;Furmethanol;5-Morpholinomethyl-3-(5-nitrofurfurylideneamino)-2-oxazolidone;5-Morpholinomethyl-3-(5-nitrofurfurylidenamino)-2-oxazolidone;5-Morpholinomethyl-3-(5-nitrofurfurylideneamino)oxazolidone;Nitrofurmethone;Altabactina;Sepsinol;Unifur;Medifuran;Ibifur;Nitraldone;Otifuril;Ultrafur;3-(5-Nitro-2-furfurylideneamino)-5-(4-morpholinomethyl)-2-oxazolidone;Furmetonol;Nitrofurmeton;Furaltadon;Furitale;Furlate;Furlidon;Furmetox;Fur-Novo;Furantoina;Anauran;NSC 42388",
    "duplicated_cas_no": "71-05-6;8048-02-0;8059-21-0;51728-00-8;59302-14-6;83454-29-9;94107-51-4",
    "SMILES": "C(C1CN(N=CC=2OC(N(=O)=O)=CC2)C(=O)O1)N3CCOCC3",
    "meta_data": {
        "InChI": "InChI=1S/C13H16N4O6/c18-13-16(14-7-10-1-2-12(22-10)17(19)20)9-11(23-13)8-15-3-5-21-6-4-15/h1-2,7,11H,3-6,8-9H2",
        "InChIKey": null,
        "Canonical SMILES": "O=C1OC(CN1N=CC=2OC(=CC2)N(=O)=O)CN3CCOCC3",
        "Molecular Formula": "C<sub>13</sub>H<sub>16</sub>N<sub>4</sub>O<sub>6</sub>",
        "Molecular Mass": "324.29",
        "Melting Point": "206 °C (decomp)"
    }
}