{
    "cas_no": "6470-18-4",
    "key_name": "<em>N</em>-(7-Hydroxy-1-naphthalenyl)acetamide",
    "cn_name": "1-乙酰氨基-7-萘酚;",
    "alternate_name": "Acetamide, <em>N</em>-(7-hydroxy-1-naphthalenyl)-;Acetamide, <em>N</em>-(7-hydroxy-1-naphthyl)-;<em>N</em>-(7-Hydroxy-1-naphthalenyl)acetamide;1-Acetamido-7-naphthol;1-Acetylamino-7-naphthol;1-Acetamido-7-hydroxynaphthalene;1-Acetylamino-7-hydroxynaphthalene;<em>N</em>-(7-Hydroxy-1-naphthyl)acetamide;NSC 7566;N-(7-Hydroxynaphthalene-1-yl)-acetamide",
    "duplicated_cas_no": "93-38-9",
    "SMILES": "N(C(C)=O)C=1C2=C(C=CC(O)=C2)C=CC1",
    "meta_data": {
        "InChI": "InChI=1S/C12H11NO2/c1-8(14)13-12-4-2-3-9-5-6-10(15)7-11(9)12/h2-7,15H,1H3,(H,13,14)",
        "InChIKey": null,
        "Canonical SMILES": "O=C(NC1=CC=CC2=CC=C(O)C=C21)C",
        "Molecular Formula": "C<sub>12</sub>H<sub>11</sub>NO<sub>2</sub>",
        "Molecular Mass": "201.22",
        "Boiling Point": "170-172 °C @ Press: 16 Torr",
        "Melting Point": "168-169 °C"
    }
}