{
    "cas_no": "77877-20-4",
    "key_name": "(4<em>R</em>,5<em>S</em>)-4-Methyl-5-phenyl-3-propionyl-2-oxazolidinone",
    "cn_name": null,
    "alternate_name": "2-Oxazolidinone, 4-methyl-3-(1-oxopropyl)-5-phenyl-, (4<em>R</em>,5<em>S</em>)-;2-Oxazolidinone, 4-methyl-3-(1-oxopropyl)-5-phenyl-, (4<em>R</em>-<em>cis</em>)-;(4<em>R</em>,5<em>S</em>)-4-Methyl-3-(1-oxopropyl)-5-phenyl-2-oxazolidinone;(4<em>R</em>,5<em>S</em>)-4-Methyl-5-phenyl-3-propionyl-2-oxazolidinone",
    "duplicated_cas_no": "110417-99-7;870673-22-6",
    "SMILES": "C[C@@H]1[C@@H](OC(=O)N1C(CC)=O)C2=CC=CC=C2",
    "meta_data": {
        "InChI": "InChI=1S/C13H15NO3/c1-3-11(15)14-9(2)12(17-13(14)16)10-7-5-4-6-8-10/h4-9,12H,3H2,1-2H3/t9-,12-/m1/s1",
        "InChIKey": null,
        "Canonical SMILES": "O=C1OC(C=2C=CC=CC2)C(N1C(=O)CC)C",
        "Molecular Formula": "C<sub>13</sub>H<sub>15</sub>NO<sub>3</sub>",
        "Molecular Mass": "233.26",
        "Melting Point": "96-97 °C"
    }
}