{
    "cas_no": "29806-73-3",
    "key_name": "Octyl palmitate",
    "cn_name": null,
    "alternate_name": "Hexadecanoic acid, 2-ethylhexyl ester;Palmitic acid, 2-ethylhexyl ester;2-Ethylhexyl palmitate;Ceraphyl 368;Wickenol 155;Cegesoft C 24;Palmitic acid-2-ethylhexyl monoester;Ceraphil 368;Exceparl EH-P;Exepal EH-P;Kessco OP;Kessco Octyl Palmitate;Octyl palmitate;Tegosoft OP;Tegosoft O;Salacos P 8;Lexol EHP;Crodamol OP;Saboderm OP;Jeechem Op;Dermol 816;Schercemol OP;2-Ethylhexyl hexadecanoate;Nissan Unister MB 816;Unister MB 816;Pastell 2H16;MB 816;Ethylhexyl palmitate;2-Ethylhexyl palmate;Radia 7129;Palmester 1543;Botanester EHP;Neosolue-IOP;Koyo POC;Nikkol SG-IOP;Protachem OP;DUB PO",
    "duplicated_cas_no": "149659-54-1",
    "SMILES": "C(COC(CCCCCCCCCCCCCCC)=O)(CCCC)CC",
    "meta_data": {
        "InChI": "InChI=1S/C24H48O2/c1-4-7-9-10-11-12-13-14-15-16-17-18-19-21-24(25)26-22-23(6-3)20-8-5-2/h23H,4-22H2,1-3H3",
        "InChIKey": null,
        "Canonical SMILES": "O=C(OCC(CC)CCCC)CCCCCCCCCCCCCCC",
        "Molecular Formula": "C<sub>24</sub>H<sub>48</sub>O<sub>2</sub>",
        "Molecular Mass": "368.64",
        "Melting Point": "2 °C",
        "Density": "0.8551 g/cm³ @ Temp: 25.000 °C; Press: 750 Torr"
    }
}