{
    "cas_no": "38385-95-4",
    "key_name": "2-(4-Piperidinyl)-1<em>H</em>-benzimidazole",
    "cn_name": null,
    "alternate_name": "1<em>H</em>-Benzimidazole, 2-(4-piperidinyl)-;2-(4-Piperidinyl)-1<em>H</em>-benzimidazole;4-(Benzimidazol-2-yl)piperidine;2-Piperidin-4-yl-1<em>H</em>-benzimidazole;2-(Piperidin-4-yl)benzimidazole;2-(4-Piperidyl)-1<em>H</em>-benzimidazole;2-(Piperidin-4-yl)-1<em>H</em>-benzo[<em>d</em>]imidazole;2-(Piperidin-4-yl)-1<em>H</em>-1,3-benzodiazole",
    "duplicated_cas_no": "",
    "SMILES": "C=1(NC=2C(N1)=CC=CC2)C3CCNCC3",
    "meta_data": {
        "InChI": "InChI=1S/C12H15N3/c1-2-4-11-10(3-1)14-12(15-11)9-5-7-13-8-6-9/h1-4,9,13H,5-8H2,(H,14,15)",
        "InChIKey": null,
        "Canonical SMILES": "N=1C=2C=CC=CC2NC1C3CCNCC3",
        "Molecular Formula": "C<sub>12</sub>H<sub>15</sub>N<sub>3</sub>",
        "Molecular Mass": "201.27",
        "Melting Point": "230 °C (decomp)"
    }
}