{
    "cas_no": "80-71-7",
    "key_name": "2-Hydroxy-3-methyl-2-cyclopenten-1-one",
    "cn_name": "甲基环戊烯醇酮;2-羟基-3-甲基-2-环戊烯-1-酮;",
    "alternate_name": "2-Cyclopenten-1-one, 2-hydroxy-3-methyl-;2-Hydroxy-3-methyl-2-cyclopenten-1-one;Cyclotene;Cycloten;2-Hydroxy-3-methyl-2-cyclopentenone;Corylon;3-Methylcyclopent-2-en-2-ol-1-one;Corylone;3-Methyl-2-hydroxy-2-cyclopentenone;2-Hydroxy-1-methylcyclopenten-3-one;Maple lactone;Cyclotene (odorant);NSC 133445;NSC 84226;2-Hydroxy-3-methyl-2-cyclopentene-1-one;MCP;2-Hydroxy-1-methyl-1-cyclopentene-3-one;3-Methyl-2-hydroxy-2-cyclopenten-1-one",
    "duplicated_cas_no": "",
    "SMILES": "OC1=C(C)CCC1=O",
    "meta_data": {
        "InChI": "InChI=1S/C6H8O2/c1-4-2-3-5(7)6(4)8/h8H,2-3H2,1H3",
        "InChIKey": null,
        "Canonical SMILES": "O=C1C(O)=C(C)CC1",
        "Molecular Formula": "C<sub>6</sub>H<sub>8</sub>O<sub>2</sub>",
        "Molecular Mass": "112.13",
        "Boiling Point": "100-102 °C @ Press: 20 Torr",
        "Melting Point": "73-85 °C"
    }
}