{
    "cas_no": "1420-40-2",
    "key_name": "1,10-Decanediaminium, <em>N</em><sup>1</sup>,<em>N</em><sup>1</sup>,<em>N</em><sup>1</sup>,<em>N</em><sup>10</sup>,<em>N</em><sup>10</sup>,<em>N</em><sup>10</sup>-hexamethyl-, iodide (1:2)",
    "cn_name": "六甲癸二胺;癸烷-1,10-二(三甲基碘);",
    "alternate_name": "1,10-Decanediaminium, <em>N</em><sup>1</sup>,<em>N</em><sup>1</sup>,<em>N</em><sup>1</sup>,<em>N</em><sup>10</sup>,<em>N</em><sup>10</sup>,<em>N</em><sup>10</sup>-hexamethyl-, iodide (1:2);Ammonium, decamethylenebis[trimethyl-, diiodide;1,10-Decanediaminium, <em>N</em>,<em>N</em>,<em>N</em>,<em>N</em>′,<em>N</em>′,<em>N</em>′-hexamethyl-, diiodide;Ammonium, decamethylenebis[trimethyl- iodide];Decamethylenebis(trimethylammonium) iodide;Decamethonium iodide;Eulissin A;Procuran;Eulixine;Decamethionium iodide;Decamethonium diiodide;Decamethylenebis(trimethylammonium) diiodide;<em>N</em><sup>1</sup>,<em>N</em><sup>1</sup>,<em>N</em><sup>1</sup>,<em>N</em><sup>10</sup>,<em>N</em><sup>10</sup>,<em>N</em><sup>10</sup>-Hexamethyldecane-1,10 diaminium iodide",
    "duplicated_cas_no": "",
    "SMILES": "C([N+](C)(C)C)CCCCCCCCC[N+](C)(C)C.[I-]",
    "meta_data": {
        "InChI": "InChI=1S/C16H38N2.2HI/c1-17(2,3)15-13-11-9-7-8-10-12-14-16-18(4,5)6;;/h7-16H2,1-6H3;2*1H/q+2;;/p-2",
        "InChIKey": null,
        "Canonical SMILES": "[I-].C[N+](C)(C)CCCCCCCCCC[N+](C)(C)C",
        "Molecular Formula": "C<sub>16</sub>H<sub>38</sub>N<sub>2</sub>.2I",
        "Molecular Mass": "",
        "Melting Point": "231 °C"
    }
}