{
    "cas_no": "5872-08-2",
    "key_name": "(±)-Camphorsulfonic acid",
    "cn_name": null,
    "alternate_name": "Bicyclo[2.2.1]heptane-1-methanesulfonic acid, 7,7-dimethyl-2-oxo-;10-Bornanesulfonic acid, 2-oxo-, (±)-;Bicyclo[2.2.1]heptane-1-methanesulfonic acid, 7,7-dimethyl-2-oxo-, (±)-;7,7-Dimethyl-2-oxobicyclo[2.2.1]heptane-1-methanesulfonic acid;(±)-Camphor-10-sulfonic acid;<span class=\"text-smallcaps\">DL</span>-10-Camphorsulfonic acid;(±)-Camphorsulfonic acid;(<em>RS</em>)-10-Camphorsulfonic acid;2-Oxo-10-bornanesulfonic acid;<span class=\"text-smallcaps\">DL</span>-Camphorsulfonic acid;(7,7-Dimethyl-2-oxobicyclo[2.2.1]heptan-1-yl)methanesulfonic acid;(7,7-Dimethyl-3-oxoniumylidene-4-bicyclo[2.2.1]heptanyl)methanesulfonate;(7,7-Dimethyl-2-oxobicyclo[2.2.1]hept-1-yl)methanesulfonic acid;Bicyclo[2.2.1]heptane-1-methanesulfonic acid, 4,7,7-trimethyl-",
    "duplicated_cas_no": "76-26-6;6060-29-3;27341-43-1;1210621-65-0;1212823-93-2;1235438-68-2;2299297-58-6;2434633-96-0;2925659-37-4",
    "SMILES": "C(S(=O)(=O)O)C12C(C)(C)C(CC1=O)CC2",
    "meta_data": {
        "InChI": "InChI=1S/C10H16O4S/c1-9(2)7-3-4-10(9,8(11)5-7)6-15(12,13)14/h7H,3-6H2,1-2H3,(H,12,13,14)",
        "InChIKey": null,
        "Canonical SMILES": "O=C1CC2CCC1(CS(=O)(=O)O)C2(C)C",
        "Molecular Formula": "C<sub>10</sub>H<sub>16</sub>O<sub>4</sub>S",
        "Molecular Mass": "232.30",
        "Melting Point": "153 °C"
    }
}