{
    "cas_no": "56503-96-9",
    "key_name": "4-(1-Naphthalenyl)-2-thiazolamine",
    "cn_name": "4-萘-1-基-1,3-噻唑-2-胺;",
    "alternate_name": "2-Thiazolamine, 4-(1-naphthalenyl)-;Thiazole, 2-amino-4-(1-naphthyl)-;4-(1-Naphthalenyl)-2-thiazolamine;2-Amino-4-α-naphthylthiazole;2-Amino-4-naphth-1′-ylthiazole;2-Amino-4-(naphthalin-1-yl)thiazol;2-Amino-4-(naphthalen-1-yl)thiazole;4-(Naphthalen-1-yl)-2-aminothiazole",
    "duplicated_cas_no": "",
    "SMILES": "NC1=NC(C=2C3=C(C=CC2)C=CC=C3)=CS1",
    "meta_data": {
        "InChI": "InChI=1S/C13H10N2S/c14-13-15-12(8-16-13)11-7-3-5-9-4-1-2-6-10(9)11/h1-8H,(H2,14,15)",
        "InChIKey": null,
        "Canonical SMILES": "N1=C(SC=C1C=2C=CC=C3C=CC=CC32)N",
        "Molecular Formula": "C<sub>13</sub>H<sub>10</sub>N<sub>2</sub>S",
        "Molecular Mass": "226.30",
        "Melting Point": "162 °C"
    }
}