{
    "cas_no": "110-04-3",
    "key_name": "1,2-Ethanedisulfonic acid",
    "cn_name": "1,2-乙二磺酸;",
    "alternate_name": "1,2-Ethanedisulfonic acid;Allergosil;Ethane-α,β-disulfonic acid;Ethylenedisulfonic acid;1,2-Ethylenedisulfonic acid;Ethanedisulfonic acid;Edisylic acid",
    "duplicated_cas_no": "1085697-46-6",
    "SMILES": "C(CS(=O)(=O)O)S(=O)(=O)O",
    "meta_data": {
        "InChI": "InChI=1S/C2H6O6S2/c3-9(4,5)1-2-10(6,7)8/h1-2H2,(H,3,4,5)(H,6,7,8)",
        "InChIKey": null,
        "Canonical SMILES": "O=S(=O)(O)CCS(=O)(=O)O",
        "Molecular Formula": "C<sub>2</sub>H<sub>6</sub>O<sub>6</sub>S<sub>2</sub>",
        "Molecular Mass": "190.20",
        "Melting Point": "173 °C"
    }
}