{
    "cas_no": "557-68-6",
    "key_name": "Bromoiodomethane",
    "cn_name": null,
    "alternate_name": "Methane, bromoiodo-;Bromoiodomethane",
    "duplicated_cas_no": "103883-82-5",
    "SMILES": "C(Br)I",
    "meta_data": {
        "InChI": "InChI=1S/CH2BrI/c2-1-3/h1H2",
        "InChIKey": null,
        "Canonical SMILES": "BrCI",
        "Molecular Formula": "CH<sub>2</sub>BrI",
        "Molecular Mass": "220.84",
        "Boiling Point": "139.5 °C"
    }
}