{
    "cas_no": "15016-42-9",
    "key_name": "<em>B</em>-(2-Ethenylphenyl)boronic acid",
    "cn_name": "2-乙烯苯硼酸;",
    "alternate_name": "Boronic acid, <em>B</em>-(2-ethenylphenyl)-;Benzeneboronic acid, <em>o</em>-vinyl-;Boronic acid, (2-ethenylphenyl)-;<em>B</em>-(2-Ethenylphenyl)boronic acid;(2-Vinylphenyl)boronic acid;2-Vinylbenzeneboronic acid;Styrene-2-boronic acid",
    "duplicated_cas_no": "",
    "SMILES": "C(=C)C1=C(B(O)O)C=CC=C1",
    "meta_data": {
        "InChI": "InChI=1S/C8H9BO2/c1-2-7-5-3-4-6-8(7)9(10)11/h2-6,10-11H,1H2",
        "InChIKey": null,
        "Canonical SMILES": "OB(O)C=1C=CC=CC1C=C",
        "Molecular Formula": "C<sub>8</sub>H<sub>9</sub>BO<sub>2</sub>",
        "Molecular Mass": "147.97",
        "Melting Point": "108-109 °C"
    }
}