{
    "cas_no": "2719-21-3",
    "key_name": "<em>N</em>-(4-Acetylphenyl)acetamide",
    "cn_name": "4-乙酰胺苯乙酮;",
    "alternate_name": "Acetamide, <em>N</em>-(4-acetylphenyl)-;Acetanilide, 4′-acetyl-;<em>N</em>-(4-Acetylphenyl)acetamide;4-Acetamidoacetophenone;4′-Acetylacetanilide;<em>p</em>-Acetamidoacetophenone;4′-Acetamidoacetophenone;<em>p</em>-Acetylaminoacetophenone;4′-(Acetylamino)acetophenone;4-(Acetylamino)phenyl methyl ketone;NSC 39449;<em>p</em>-Acetylacetanilide",
    "duplicated_cas_no": "",
    "SMILES": "N(C(C)=O)C1=CC=C(C(C)=O)C=C1",
    "meta_data": {
        "InChI": "InChI=1S/C10H11NO2/c1-7(12)9-3-5-10(6-4-9)11-8(2)13/h3-6H,1-2H3,(H,11,13)",
        "InChIKey": null,
        "Canonical SMILES": "O=C(NC1=CC=C(C=C1)C(=O)C)C",
        "Molecular Formula": "C<sub>10</sub>H<sub>11</sub>NO<sub>2</sub>",
        "Molecular Mass": "177.20",
        "Melting Point": "171 °C"
    }
}