{
    "cas_no": "949-67-7",
    "key_name": "<span class=\"text-smallcaps\">L</span>-Tyrosine ethyl ester",
    "cn_name": "L-酪氨酸乙酯;",
    "alternate_name": "<span class=\"text-smallcaps\">L</span>-Tyrosine, ethyl ester;Tyrosine, ethyl ester, <span class=\"text-smallcaps\">L</span>-;<span class=\"text-smallcaps\">L</span>-Tyrosine ethyl ester;(<em>S</em>)-Tyrosine ethyl ester;Ethyl <span class=\"text-smallcaps\">L</span>-tyrosinate;NSC 519993;Ethyl (<em>S</em>)-2-amino-3-(4-hydroxyphenyl)propionate;Ethyl (2S)-2-amino-3-(4-hydroxyphenyl)propanoate",
    "duplicated_cas_no": "10331-72-3",
    "SMILES": "C([C@@H](C(OCC)=O)N)C1=CC=C(O)C=C1",
    "meta_data": {
        "InChI": "InChI=1S/C11H15NO3/c1-2-15-11(14)10(12)7-8-3-5-9(13)6-4-8/h3-6,10,13H,2,7,12H2,1H3/t10-/m0/s1",
        "InChIKey": null,
        "Canonical SMILES": "O=C(OCC)C(N)CC1=CC=C(O)C=C1",
        "Molecular Formula": "C<sub>11</sub>H<sub>15</sub>NO<sub>3</sub>",
        "Molecular Mass": "209.24",
        "Melting Point": "105 °C"
    }
}