{
    "cas_no": "828-73-9",
    "key_name": "(Pentafluorophenyl)hydrazine",
    "cn_name": "五氟苯肼;五氨基氟丙基氢氧吡啶;",
    "alternate_name": "Hydrazine, (2,3,4,5,6-pentafluorophenyl)-;Hydrazine, (pentafluorophenyl)-;(2,3,4,5,6-Pentafluorophenyl)hydrazine;(Pentafluorophenyl)hydrazine;(Perfluorophenyl)hydrazine;NSC 88334",
    "duplicated_cas_no": "",
    "SMILES": "N(N)C1=C(F)C(F)=C(F)C(F)=C1F",
    "meta_data": {
        "InChI": "InChI=1S/C6H3F5N2/c7-1-2(8)4(10)6(13-12)5(11)3(1)9/h13H,12H2",
        "InChIKey": null,
        "Canonical SMILES": "FC=1C(F)=C(F)C(NN)=C(F)C1F",
        "Molecular Formula": "C<sub>6</sub>H<sub>3</sub>F<sub>5</sub>N<sub>2</sub>",
        "Molecular Mass": "198.09",
        "Melting Point": "75 °C"
    }
}