{
    "cas_no": "51707-55-2",
    "key_name": "Thidiazuron",
    "cn_name": "赛苯隆;脱叶脲;脱叶灵;N-苯基-N-1,2,3-噻二唑-5-脲;",
    "alternate_name": "Urea, <em>N</em>-phenyl-<em>N</em>′-1,2,3-thiadiazol-5-yl-;1,2,3-Thiadiazole, urea deriv.;<em>N</em>-Phenyl-<em>N</em>′-1,2,3-thiadiazol-5-ylurea;Thidiazuron;SN 49537;Dropp;1-Phenyl-3-(1,2,3-thiadiazol-5-yl)urea;TAG (plant growth regulator);TAG;TDZ;Lift;Dropp SC;Avguron;CCG-24904;Gross;1-Phenyl-3-(1,2,3-thiadiazole-5-yl)-urea",
    "duplicated_cas_no": "",
    "SMILES": "N(C(NC1=CN=NS1)=O)C2=CC=CC=C2",
    "meta_data": {
        "InChI": "InChI=1S/C9H8N4OS/c14-9(12-8-6-10-13-15-8)11-7-4-2-1-3-5-7/h1-6H,(H2,11,12,14)",
        "InChIKey": null,
        "Canonical SMILES": "O=C(NC=1SN=NC1)NC=2C=CC=CC2",
        "Molecular Formula": "C<sub>9</sub>H<sub>8</sub>N<sub>4</sub>OS",
        "Molecular Mass": "220.25",
        "Melting Point": "211 °C (decomp)"
    }
}