{
    "cas_no": "27738-96-1",
    "key_name": "Carbonisocyanatidic chloride",
    "cn_name": "N-(氯羰基)异氰酸;",
    "alternate_name": "Carbonisocyanatidic chloride;Formic acid, chloro-, anhydride with isocyanic acid;Isocyanic acid, anhydride with chloroformic acid;Chlorocarbonyl isocyanate;Carbonic chloride isocyanate;Isocyanatocarbonyl chloride;Chloroformyl isocyanate",
    "duplicated_cas_no": "",
    "SMILES": "N(C(Cl)=O)=C=O",
    "meta_data": {
        "InChI": "InChI=1S/C2ClNO2/c3-2(6)4-1-5",
        "InChIKey": null,
        "Canonical SMILES": "O=C=NC(=O)Cl",
        "Molecular Formula": "C<sub>2</sub>ClNO<sub>2</sub>",
        "Molecular Mass": "105.48",
        "Boiling Point": "64 °C @ Press: 760 Torr",
        "Melting Point": "64 °C"
    }
}