{
    "cas_no": "605-91-4",
    "key_name": "Pinacyanol",
    "cn_name": "1,1-二甲基-2,2-羰花青碘;频哪氰醇碘化物;喹哪啶蓝;",
    "alternate_name": "Quinolinium, 1-ethyl-2-[3-(1-ethyl-2(1<em>H</em>)-quinolinylidene)-1-propen-1-yl]-, iodide (1:1);Pinacyanol;Quinolinium, 1-ethyl-2-[3-(1-ethyl-2(1<em>H</em>)-quinolylidene)propenyl]-, iodide;Quinolinium, 1-ethyl-2-[3-(1-ethyl-2(1<em>H</em>)-quinolinylidene)-1-propenyl]-, iodide;1,1′-Diethyl-2,2′-quinocarbocyanine iodide;1,1′-Diethyl-2,2′-carbocyanine iodide;Pinacyanole;Sensitol red;Pinacyanol iodide;1-Ethyl-2-[3-[1-ethyl-2(1<em>H</em>)-quinolylidene]-1-propenyl]quinolinium iodide;G 1700;NK 3 (dye);NK 3;1-Ethyl-2-[3-(1-ethyl-1<em>H</em>-quinolin-2-ylidene)-propenyl]-quinolinium; iodide;1-Ethyl-2-[3-(1-ethyl-1,2-dihydroquinolin-2-ylidene)prop-1-en-1-yl]quinolin-1-ium iodide;1-Ethyl-2-[3-[1-ethyl-2(1<em>H</em>)-quinolinylidene]-1-propen-1-yl]quinolinium iodide",
    "duplicated_cas_no": "15185-48-5",
    "SMILES": "C(C)N1C=2C(C=CC1=CC=CC3=[N+](CC)C4=C(C=C3)C=CC=C4)=CC=CC2.[I-]",
    "meta_data": {
        "InChI": "InChI=1S/C25H25N2.HI/c1-3-26-22(18-16-20-10-5-7-14-24(20)26)12-9-13-23-19-17-21-11-6-8-15-25(21)27(23)4-2;/h5-19H,3-4H2,1-2H3;1H/q+1;/p-1",
        "InChIKey": null,
        "Canonical SMILES": "[I-].C=1C=CC2=C(C1)C=CC(=CC=CC=3C=CC=4C=CC=CC4[N+]3CC)N2CC",
        "Molecular Formula": "C<sub>25</sub>H<sub>25</sub>N<sub>2</sub>.I",
        "Molecular Mass": "",
        "Melting Point": "276-278 °C (decomp)"
    }
}