{
    "cas_no": "7627-39-6",
    "key_name": "2,4-Dichloro-5-(ethoxymethyl)pyrimidine",
    "cn_name": null,
    "alternate_name": "Pyrimidine, 2,4-dichloro-5-(ethoxymethyl)-;2,4-Dichloro-5-(ethoxymethyl)pyrimidine",
    "duplicated_cas_no": "",
    "SMILES": "C(OCC)C=1C(Cl)=NC(Cl)=NC1",
    "meta_data": {
        "InChI": "InChI=1S/C7H8Cl2N2O/c1-2-12-4-5-3-10-7(9)11-6(5)8/h3H,2,4H2,1H3",
        "InChIKey": null,
        "Canonical SMILES": "ClC1=NC=C(C(Cl)=N1)COCC",
        "Molecular Formula": "C<sub>7</sub>H<sub>8</sub>Cl<sub>2</sub>N<sub>2</sub>O",
        "Molecular Mass": "207.06",
        "Boiling Point": "80-90 °C @ Press: 1 x 10<sup>-3</sup> Torr"
    }
}