{
    "cas_no": "2861-28-1",
    "key_name": "1,3-Benzodioxole-5-acetic acid",
    "cn_name": "3,4-(亚甲二氧基)苯乙酸;3,4-(亚甲基二氧)苯乙酸;",
    "alternate_name": "1,3-Benzodioxole-5-acetic acid;Acetic acid, [3,4-(methylenedioxy)phenyl]-;Homopiperonylic acid;3,4-(Methylenedioxy)benzene-1-acetic acid;Piperonylacetic acid;(3,4-Methylenedioxy)phenylacetic acid;(1,3-Benzodioxol-5-yl)acetic acid;2-(1,3-Benzodioxol-5-yl)acetic acid;2-(3,4-Methylenedioxyphenyl)acetic acid;NSC 119057;NSC 14364;(Benzodioxol-5-yl)acetic acid;2-(Benzo[<em>d</em>][1,3]dioxol-5-yl)acetic acid;2-(Benzodioxol-5-yl)acetic acid;2-(1,3-Dioxaindan-5-yl)acetic acid;2-(2<em>H</em>-1,3-Benzodioxol-5-yl)acetic acid",
    "duplicated_cas_no": "",
    "SMILES": "C(C(O)=O)C=1C=C2C(=CC1)OCO2",
    "meta_data": {
        "InChI": "InChI=1S/C9H8O4/c10-9(11)4-6-1-2-7-8(3-6)13-5-12-7/h1-3H,4-5H2,(H,10,11)",
        "InChIKey": null,
        "Canonical SMILES": "O=C(O)CC1=CC=C2OCOC2=C1",
        "Molecular Formula": "C<sub>9</sub>H<sub>8</sub>O<sub>4</sub>",
        "Molecular Mass": "180.16",
        "Boiling Point": "87 °C @ Press: 0.05 Torr",
        "Melting Point": "128 °C"
    }
}