{
    "cas_no": "621-56-7",
    "key_name": "3-(Diethylamino)-1,2-propanediol",
    "cn_name": "3-二乙胺基-1,2-丙二醇;",
    "alternate_name": "1,2-Propanediol, 3-(diethylamino)-;3-(Diethylamino)-1,2-propanediol;1-Diethylamino-2,3-propanediol;NSC 97206;1-(Diethylamino)propan-2,3-diol;3-(Diethylamino)-1,2-propylene glycol",
    "duplicated_cas_no": "2304999-08-2",
    "SMILES": "N(CC(CO)O)(CC)CC",
    "meta_data": {
        "InChI": "InChI=1S/C7H17NO2/c1-3-8(4-2)5-7(10)6-9/h7,9-10H,3-6H2,1-2H3",
        "InChIKey": null,
        "Canonical SMILES": "OCC(O)CN(CC)CC",
        "Molecular Formula": "C<sub>7</sub>H<sub>17</sub>NO<sub>2</sub>",
        "Molecular Mass": "147.22",
        "Boiling Point": "130 °C @ Press: 25 Torr",
        "Density": "0.9762 g/cm³ @ Temp: 20 °C"
    }
}