{
    "cas_no": "21789-36-6",
    "key_name": "2,4-Dimethylbenzonitrile",
    "cn_name": null,
    "alternate_name": "Benzonitrile, 2,4-dimethyl-;2,4-Dimethylbenzonitrile;1-Cyano-2,4-dimethylbenzene",
    "duplicated_cas_no": "",
    "SMILES": "C(#N)C1=C(C)C=C(C)C=C1",
    "meta_data": {
        "InChI": "InChI=1S/C9H9N/c1-7-3-4-9(6-10)8(2)5-7/h3-5H,1-2H3",
        "InChIKey": null,
        "Canonical SMILES": "N#CC1=CC=C(C=C1C)C",
        "Molecular Formula": "C<sub>9</sub>H<sub>9</sub>N",
        "Molecular Mass": "131.17",
        "Boiling Point": "112 °C @ Press: 21 Torr",
        "Melting Point": "24-25 °C"
    }
}