{
    "cas_no": "2033-42-3",
    "key_name": "1-Iodo-2-naphthalenol",
    "cn_name": "1-碘-2-萘酚;",
    "alternate_name": "2-Naphthalenol, 1-iodo-;2-Naphthol, 1-iodo-;1-Iodo-2-naphthalenol;1-Iodo-2-naphthol;NSC 87885;2-Hydroxy-1-iodonaphthalene;1-Iodo-2-hydroxynaphthalene",
    "duplicated_cas_no": "",
    "SMILES": "IC=1C2=C(C=CC1O)C=CC=C2",
    "meta_data": {
        "InChI": "InChI=1S/C10H7IO/c11-10-8-4-2-1-3-7(8)5-6-9(10)12/h1-6,12H",
        "InChIKey": null,
        "Canonical SMILES": "IC1=C(O)C=CC=2C=CC=CC21",
        "Molecular Formula": "C<sub>10</sub>H<sub>7</sub>IO",
        "Molecular Mass": "270.07",
        "Melting Point": "94.5 °C"
    }
}