{
    "cas_no": "72-40-2",
    "key_name": "5-Aminoimidazole-4-carboxamide hydrochloride",
    "cn_name": "4-氨基-5-咪唑甲酰胺盐酸盐;",
    "alternate_name": "1<em>H</em>-Imidazole-4-carboxamide, 5-amino-, hydrochloride (1:1);Imidazole-4-carboxamide, 5-amino-, monohydrochloride;1<em>H</em>-Imidazole-4-carboxamide, 5-amino-, monohydrochloride;4-Aminoimidazole-5-carboxamide hydrochloride;5-Aminoimidazole-4-carboxamide hydrochloride;4-Amino-5-carbamoylimidazole hydrochloride;5-Amino-1<em>H</em>-imidazole-4-carboxamide hydrochloride",
    "duplicated_cas_no": "1193-51-7",
    "SMILES": "C(N)(=O)C1=C(N)N=CN1.Cl",
    "meta_data": {
        "InChI": "InChI=1S/C4H6N4O.ClH/c5-3-2(4(6)9)7-1-8-3;/h1H,5H2,(H2,6,9)(H,7,8);1H",
        "InChIKey": null,
        "Canonical SMILES": "Cl.O=C(N)C=1NC=NC1N",
        "Molecular Formula": "C<sub>4</sub>H<sub>6</sub>N<sub>4</sub>O.ClH",
        "Molecular Mass": "",
        "Melting Point": "255-256 °C"
    }
}