{
    "cas_no": "15658-60-3",
    "key_name": "Diethyl 2,6-pyridinedicarboxylate",
    "cn_name": null,
    "alternate_name": "2,6-Pyridinedicarboxylic acid, 2,6-diethyl ester;2,6-Pyridinedicarboxylic acid, diethyl ester;Diethyl 2,6-pyridinedicarboxylate;Diethyl dipicolinate;Dipicolinic acid diethyl ester;2,6-Bis(ethoxycarbonyl)pyridine;NSC 78907;2,6-Dicarbethoxypyridine;2,6-Diethyl pyridine-2,6-dicarboxylate",
    "duplicated_cas_no": "",
    "SMILES": "C(OCC)(=O)C=1N=C(C(OCC)=O)C=CC1",
    "meta_data": {
        "InChI": "InChI=1S/C11H13NO4/c1-3-15-10(13)8-6-5-7-9(12-8)11(14)16-4-2/h5-7H,3-4H2,1-2H3",
        "InChIKey": null,
        "Canonical SMILES": "O=C(OCC)C=1N=C(C=CC1)C(=O)OCC",
        "Molecular Formula": "C<sub>11</sub>H<sub>13</sub>NO<sub>4</sub>",
        "Molecular Mass": "223.23",
        "Boiling Point": "143-145 °C @ Press: 1 Torr",
        "Melting Point": "28 °C"
    }
}