{
    "cas_no": "4254-15-3",
    "key_name": "(+)-1,2-Propanediol",
    "cn_name": "(S)-1,2-丙二醇;",
    "alternate_name": "1,2-Propanediol, (2<em>S</em>)-;1,2-Propanediol, (<em>S</em>)-(+)-;1,2-Propanediol, (<em>S</em>)-;(2<em>S</em>)-1,2-Propanediol;<span class=\"text-smallcaps\">L</span>-(+)-Propylene glycol;(+)-(<em>S</em>)-1,2-Propanediol;<em>d</em>-Propylene glycol;3-Deoxy-<em>sn</em>-glycerol;(<em>S</em>)-1,2-Propanediol;<span class=\"text-smallcaps\">L</span>-1,2-Propanediol;(<em>S</em>)-(+)-Propylene glycol;<span class=\"text-smallcaps\">L</span>-(+)-Propanediol;(+)-1,2-Propanediol;(<em>S</em>)-(+)-Propane-1,2-diol;1,2(<em>S</em>)-Propanediol;(<em>S</em>)-2-Hydroxy-1-propanol;(<em>S</em>)-Propylene glycol;(<em>S</em>)-2-Hydroxypropanol;(2<em>S</em>)-Propane-1,2-diol;(<em>S</em>)-Propane-1,2-diol;(2S)-Propane-1,2-diol",
    "duplicated_cas_no": "",
    "SMILES": "[C@@H](CO)(C)O",
    "meta_data": {
        "InChI": "InChI=1S/C3H8O2/c1-3(5)2-4/h3-5H,2H2,1H3/t3-/m0/s1",
        "InChIKey": null,
        "Canonical SMILES": "OCC(O)C",
        "Molecular Formula": "C<sub>3</sub>H<sub>8</sub>O<sub>2</sub>",
        "Molecular Mass": "76.09",
        "Boiling Point": "88.7 °C @ Press: 13 Torr",
        "Density": "1.0364 g/cm³ @ Temp: 20 °C"
    }
}