{
    "cas_no": "772-54-3",
    "key_name": "<em>N</em>,<em>N</em>-Diethylbenzenemethanamine",
    "cn_name": null,
    "alternate_name": "Benzenemethanamine, <em>N</em>,<em>N</em>-diethyl-;Benzylamine, <em>N</em>,<em>N</em>-diethyl-;<em>N</em>,<em>N</em>-Diethylbenzenemethanamine;Benzyldiethylamine;Diethylbenzylamine;<em>N</em>,<em>N</em>-Diethylbenzylamine;<em>N</em>-Benzyldiethylamine;<em>N</em>-(Phenylmethyl)diethylamine;<em>N</em>-Benzyl-<em>N</em>,<em>N</em>-diethylamine;NSC 128147;<em>N</em>-Benzyl-<em>N</em>-ethylethanamine",
    "duplicated_cas_no": "155634-24-5",
    "SMILES": "C(N(CC)CC)C1=CC=CC=C1",
    "meta_data": {
        "InChI": "InChI=1S/C11H17N/c1-3-12(4-2)10-11-8-6-5-7-9-11/h5-9H,3-4,10H2,1-2H3",
        "InChIKey": null,
        "Canonical SMILES": "C=1C=CC(=CC1)CN(CC)CC",
        "Molecular Formula": "C<sub>11</sub>H<sub>17</sub>N",
        "Molecular Mass": "163.26",
        "Boiling Point": "211-212 °C",
        "Density": "0.9049 g/cm³ @ Temp: 20 °C"
    }
}