{
    "cas_no": "27314-13-2",
    "key_name": "Norflurazon",
    "cn_name": "达草灭标准品;哒草伏Norflurazon;",
    "alternate_name": "3(2<em>H</em>)-Pyridazinone, 4-chloro-5-(methylamino)-2-[3-(trifluoromethyl)phenyl]-;3(2<em>H</em>)-Pyridazinone, 4-chloro-5-(methylamino)-2-(α,α,α-trifluoro-<em>m</em>-tolyl)-;4-Chloro-5-(methylamino)-2-[3-(trifluoromethyl)phenyl]-3(2<em>H</em>)-pyridazinone;4-Chloro-5-(methylamino)-2-(α,α,α-trifluoro-<em>m</em>-tolyl)-3(2<em>H</em>)-pyridazinone;SAN 9789;1-(3-Trifluoromethylphenyl)-4-methylamino-5-chloro-6-pyridazone;4-Chloro-5-methylamino-2-(<em>M</em>-trifluoromethylphenyl)-3(2<em>H</em>)pyridazinone;Norflurazon;Zorial;Sandoz 9789;H 9789;Solicam;Predict;SAN 978938;Orfurazon",
    "duplicated_cas_no": "12680-38-5",
    "SMILES": "O=C1N(N=CC(NC)=C1Cl)C2=CC(C(F)(F)F)=CC=C2",
    "meta_data": {
        "InChI": "InChI=1S/C12H9ClF3N3O/c1-17-9-6-18-19(11(20)10(9)13)8-4-2-3-7(5-8)12(14,15)16/h2-6,17H,1H3",
        "InChIKey": null,
        "Canonical SMILES": "O=C1C(Cl)=C(C=NN1C2=CC=CC(=C2)C(F)(F)F)NC",
        "Molecular Formula": "C<sub>12</sub>H<sub>9</sub>ClF<sub>3</sub>N<sub>3</sub>O",
        "Molecular Mass": "303.67",
        "Melting Point": "117 °C"
    }
}