{
    "cas_no": "5267-34-5",
    "key_name": "Benzenemethanamine, α-phenyl-, hydrochloride (1:1)",
    "cn_name": "二苯甲胺盐酸盐;",
    "alternate_name": "Benzenemethanamine, α-phenyl-, hydrochloride (1:1);Methylamine, 1,1-diphenyl-, hydrochloride;Benzenemethanamine, α-phenyl-, hydrochloride;Benzhydrylamine hydrochloride;1,1-Diphenylmethylamine hydrochloride",
    "duplicated_cas_no": "",
    "SMILES": "C(N)(C1=CC=CC=C1)C2=CC=CC=C2.Cl",
    "meta_data": {
        "InChI": "InChI=1S/C13H13N.ClH/c14-13(11-7-3-1-4-8-11)12-9-5-2-6-10-12;/h1-10,13H,14H2;1H",
        "InChIKey": null,
        "Canonical SMILES": "Cl.NC(C=1C=CC=CC1)C=2C=CC=CC2",
        "Molecular Formula": "C<sub>13</sub>H<sub>13</sub>N.ClH",
        "Molecular Mass": "",
        "Boiling Point": "205-207 °C @ Press: 4 Torr",
        "Melting Point": "287 °C"
    }
}