{
    "cas_no": "91-23-6",
    "key_name": "2-Nitroanisole",
    "cn_name": "2-硝基苯甲醚;",
    "alternate_name": "Benzene, 1-methoxy-2-nitro-;Anisole, <em>o</em>-nitro-;1-Methoxy-2-nitrobenzene;2-Methoxynitrobenzene;<em>o</em>-Nitroanisole;<em>o</em>-Nitrophenyl methyl ether;1-Nitro-2-methoxybenzene;2-Nitroanisole;2-Methoxy-1-nitrobenzene;2-Nitromethoxybenzene;<em>o</em>-Methoxynitrobenzene;<em>o</em>-Nitrobenzene methyl ether;NSC 5506",
    "duplicated_cas_no": "35973-13-8",
    "SMILES": "O(C)C1=C(N(=O)=O)C=CC=C1",
    "meta_data": {
        "InChI": "InChI=1S/C7H7NO3/c1-11-7-5-3-2-4-6(7)8(9)10/h2-5H,1H3",
        "InChIKey": null,
        "Canonical SMILES": "O=N(=O)C=1C=CC=CC1OC",
        "Molecular Formula": "C<sub>7</sub>H<sub>7</sub>NO<sub>3</sub>",
        "Molecular Mass": "153.14",
        "Boiling Point": "277 °C",
        "Melting Point": "9.4 °C",
        "Density": "1.254 g/cm³ @ Temp: 20 °C"
    }
}