{
    "cas_no": "569-31-3",
    "key_name": "Meconin",
    "cn_name": null,
    "alternate_name": "1(3<em>H</em>)-Isobenzofuranone, 6,7-dimethoxy-;Phthalide, 6,7-dimethoxy-;6,7-Dimethoxy-1(3<em>H</em>)-isobenzofuranone;6,7-Dimethoxyphthalide;Meconic lactone;Opianyl;Meconin;Meconine;NSC 35547",
    "duplicated_cas_no": "",
    "SMILES": "O(C)C1=C2C(=CC=C1OC)COC2=O",
    "meta_data": {
        "InChI": "InChI=1S/C10H10O4/c1-12-7-4-3-6-5-14-10(11)8(6)9(7)13-2/h3-4H,5H2,1-2H3",
        "InChIKey": null,
        "Canonical SMILES": "O=C1OCC2=CC=C(OC)C(OC)=C12",
        "Molecular Formula": "C<sub>10</sub>H<sub>10</sub>O<sub>4</sub>",
        "Molecular Mass": "194.18",
        "Melting Point": "102.5 °C"
    }
}