{
    "cas_no": "100-47-0",
    "key_name": "Benzonitrile",
    "cn_name": "苯甲腈;氰化苯;",
    "alternate_name": "Benzonitrile;Benzene, cyano-;Benzoic acid nitrile;Cyanobenzene;Phenyl cyanide;Benzonitril;Benzenenitrile;NSC 8039;Benzenecarbonitrile",
    "duplicated_cas_no": "",
    "SMILES": "C(#N)C1=CC=CC=C1",
    "meta_data": {
        "InChI": "InChI=1S/C7H5N/c8-6-7-4-2-1-3-5-7/h1-5H",
        "InChIKey": null,
        "Canonical SMILES": "N#CC=1C=CC=CC1",
        "Molecular Formula": "C<sub>7</sub>H<sub>5</sub>N",
        "Molecular Mass": "103.12",
        "Boiling Point": "190.7 °C @ Press: 760 Torr",
        "Melting Point": "-13.1 °C",
        "Density": "1.010 g/cm³ @ Temp: 15 °C"
    }
}