{
    "cas_no": "3703-76-2",
    "key_name": "Cloperastine",
    "cn_name": "咳平;氯哌丁;咳安定;1-[2-&alpha;(-对氯苯基苄氧基)-2-基]丁哌啶;",
    "alternate_name": "Piperidine, 1-[2-[(4-chlorophenyl)phenylmethoxy]ethyl]-;Piperidine, 1-[2-[(<em>p</em>-chloro-α-phenylbenzyl)oxy]ethyl]-;1-[2-[(4-Chlorophenyl)phenylmethoxy]ethyl]piperidine;1-[2-[(<em>p</em>-Chloro-α-phenylbenzyl)oxy]ethyl]piperidine;Cloperastine;<em>p</em>-Chlorobenzhydryl 2-(1-piperidyl)ethyl ether;(±)-Cloperastine",
    "duplicated_cas_no": "",
    "SMILES": "C(OCCN1CCCCC1)(C2=CC=C(Cl)C=C2)C3=CC=CC=C3",
    "meta_data": {
        "InChI": "InChI=1S/C20H24ClNO/c21-19-11-9-18(10-12-19)20(17-7-3-1-4-8-17)23-16-15-22-13-5-2-6-14-22/h1,3-4,7-12,20H,2,5-6,13-16H2",
        "InChIKey": null,
        "Canonical SMILES": "ClC1=CC=C(C=C1)C(OCCN2CCCCC2)C=3C=CC=CC3",
        "Molecular Formula": "C<sub>20</sub>H<sub>24</sub>ClNO",
        "Molecular Mass": "329.86",
        "Boiling Point": "179 °C"
    }
}