{
    "cas_no": "38841-54-2",
    "key_name": "2,6-Dichloro-4-methyl-3-pyridinecarboxamide",
    "cn_name": null,
    "alternate_name": "3-Pyridinecarboxamide, 2,6-dichloro-4-methyl-;2,6-Dichloro-4-methyl-3-pyridinecarboxamide;2,6-Dichloro-4-methylnicotinamide;NSC 341976",
    "duplicated_cas_no": "",
    "SMILES": "C(N)(=O)C=1C(C)=CC(Cl)=NC1Cl",
    "meta_data": {
        "InChI": "InChI=1S/C7H6Cl2N2O/c1-3-2-4(8)11-6(9)5(3)7(10)12/h2H,1H3,(H2,10,12)",
        "InChIKey": null,
        "Canonical SMILES": "O=C(N)C=1C(Cl)=NC(Cl)=CC1C",
        "Molecular Formula": "C<sub>7</sub>H<sub>6</sub>Cl<sub>2</sub>N<sub>2</sub>O",
        "Molecular Mass": "205.04",
        "Melting Point": "170-171 °C"
    }
}