{
    "cas_no": "186692-46-6",
    "key_name": "Roscovitine",
    "cn_name": "Roscovitine;6-(苄基氨基)-2(R)-[[1-(羟甲基)丙基]氨基]-9-异丙基嘌呤;",
    "alternate_name": "1-Butanol, 2-[[9-(1-methylethyl)-6-[(phenylmethyl)amino]-9<em>H</em>-purin-2-yl]amino]-, (2<em>R</em>)-;1-Butanol, 2-[[9-(1-methylethyl)-6-[(phenylmethyl)amino]-9<em>H</em>-purin-2-yl]amino]-, (<em>R</em>)-;(2<em>R</em>)-2-[[9-(1-Methylethyl)-6-[(phenylmethyl)amino]-9<em>H</em>-purin-2-yl]amino]-1-butanol;Roscovitine;CYC 202;<em>R</em>-Roscovitine;Seliciclib;2-(<em>R</em>)-(1-Ethyl-2-hydroxyethylamino)-6-benzylamino-9-isopropylpurine;Roscovitin;(R)-Roscovitine;(2R)-2-[[6-(Benzylamino)-9-propan-2-ylpurin-2-yl]amino]butan-1-ol",
    "duplicated_cas_no": "",
    "SMILES": "C(C)(C)N1C=2C(=C(NCC3=CC=CC=C3)N=C(N[C@H](CC)CO)N2)N=C1",
    "meta_data": {
        "InChI": "InChI=1S/C19H26N6O/c1-4-15(11-26)22-19-23-17(20-10-14-8-6-5-7-9-14)16-18(24-19)25(12-21-16)13(2)3/h5-9,12-13,15,26H,4,10-11H2,1-3H3,(H2,20,22,23,24)/t15-/m1/s1",
        "InChIKey": null,
        "Canonical SMILES": "OCC(NC=1N=C(NCC=2C=CC=CC2)C=3N=CN(C3N1)C(C)C)CC",
        "Molecular Formula": "C<sub>19</sub>H<sub>26</sub>N<sub>6</sub>O",
        "Molecular Mass": "354.45",
        "Melting Point": "106-108 °C"
    }
}