{
    "cas_no": "1678-97-3",
    "key_name": "1,2,3-Trimethylcyclohexane",
    "cn_name": null,
    "alternate_name": "Cyclohexane, 1,2,3-trimethyl-;1,2,3-Trimethylcyclohexane",
    "duplicated_cas_no": "",
    "SMILES": "CC1C(C)CCCC1C",
    "meta_data": {
        "InChI": "InChI=1S/C9H18/c1-7-5-4-6-8(2)9(7)3/h7-9H,4-6H2,1-3H3",
        "InChIKey": null,
        "Canonical SMILES": "CC1CCCC(C)C1C",
        "Molecular Formula": "C<sub>9</sub>H<sub>18</sub>",
        "Molecular Mass": "126.24",
        "Boiling Point": "142 °C"
    }
}