{
    "cas_no": "109-52-4",
    "key_name": "Pentanoic acid",
    "cn_name": "正戊酸;戊酸;",
    "alternate_name": "Pentanoic acid;Valeric acid;1-Butanecarboxylic acid;Propylacetic acid;<em>n</em>-Valeric acid;<em>n</em>-Pentanoic acid;NSC 406833",
    "duplicated_cas_no": "12124-87-7;2243145-76-6;2486087-46-9",
    "SMILES": "C(C(O)=O)CCC",
    "meta_data": {
        "InChI": "InChI=1S/C5H10O2/c1-2-3-4-5(6)7/h2-4H2,1H3,(H,6,7)",
        "InChIKey": null,
        "Canonical SMILES": "O=C(O)CCCC",
        "Molecular Formula": "C<sub>5</sub>H<sub>10</sub>O<sub>2</sub>",
        "Molecular Mass": "102.13",
        "Boiling Point": "186-187 °C",
        "Melting Point": "-34.5 °C",
        "Density": "0.939 g/cm³ @ Temp: 20 °C"
    }
}