{
    "cas_no": "7367-78-4",
    "key_name": "Butyl (2<em>E</em>,4<em>E</em>)-2,4-hexadienoate",
    "cn_name": "山梨酸丁酯;",
    "alternate_name": "2,4-Hexadienoic acid, butyl ester, (2<em>E</em>,4<em>E</em>)-;Sorbic acid, butyl ester;2,4-Hexadienoic acid, butyl ester, (<em>E</em>,<em>E</em>)-;Butyl (2<em>E</em>,4<em>E</em>)-2,4-hexadienoate;<em>n</em>-Butyl sorbate;Butyl sorbate;NSC 19181;(2<em>E</em>,4<em>E</em>)-2,4-Hexadienoic acid butyl ester",
    "duplicated_cas_no": "121591-02-4;62279-97-4",
    "SMILES": "C(\\C(OCCCC)=O)=C/C=C/C",
    "meta_data": {
        "InChI": "InChI=1S/C10H16O2/c1-3-5-7-8-10(11)12-9-6-4-2/h3,5,7-8H,4,6,9H2,1-2H3/b5-3+,8-7+",
        "InChIKey": null,
        "Canonical SMILES": "O=C(OCCCC)C=CC=CC",
        "Molecular Formula": "C<sub>10</sub>H<sub>16</sub>O<sub>2</sub>",
        "Molecular Mass": "168.23",
        "Boiling Point": "125-128 °C @ Press: 30 Torr",
        "Melting Point": "120-140 °C",
        "Density": "0.9216 g/cm³ @ Temp: 20 °C"
    }
}