{
    "cas_no": "295349-64-3",
    "key_name": "2-(Morpholin-4-yl)isonicotinic acid",
    "cn_name": null,
    "alternate_name": "4-Pyridinecarboxylic acid, 2-(4-morpholinyl)-;2-(4-Morpholinyl)-4-pyridinecarboxylic acid;2-(Morpholin-4-yl)isonicotinic acid;2-Morpholinoisonicotinic acid;2-Morpholinopyridine-4-carboxylic acid",
    "duplicated_cas_no": "",
    "SMILES": "C(O)(=O)C=1C=C(N=CC1)N2CCOCC2",
    "meta_data": {
        "InChI": "InChI=1S/C10H12N2O3/c13-10(14)8-1-2-11-9(7-8)12-3-5-15-6-4-12/h1-2,7H,3-6H2,(H,13,14)",
        "InChIKey": null,
        "Canonical SMILES": "O=C(O)C=1C=CN=C(C1)N2CCOCC2",
        "Molecular Formula": "C<sub>10</sub>H<sub>12</sub>N<sub>2</sub>O<sub>3</sub>",
        "Molecular Mass": "208.21",
        "Melting Point": "187-189 °C"
    }
}