{
    "cas_no": "497-06-3",
    "key_name": "3-Butene-1,2-diol",
    "cn_name": "2,3-二羟基-1-丁烯;",
    "alternate_name": "3-Butene-1,2-diol;Erythrol;3,4-Dihydroxy-1-butene;1,2-Dihydroxy-3-butene;1-Butene-3,4-diol;But-3-en-1,2-diol;1-Buten-3,4-diol",
    "duplicated_cas_no": "86161-40-2",
    "SMILES": "C(C=C)(CO)O",
    "meta_data": {
        "InChI": "InChI=1S/C4H8O2/c1-2-4(6)3-5/h2,4-6H,1,3H2",
        "InChIKey": null,
        "Canonical SMILES": "OCC(O)C=C",
        "Molecular Formula": "C<sub>4</sub>H<sub>8</sub>O<sub>2</sub>",
        "Molecular Mass": "88.11",
        "Boiling Point": "196.5 °C",
        "Density": "1.04703 g/cm³ @ Temp: 20 °C"
    }
}