{
    "cas_no": "1475-12-3",
    "key_name": "2,5-Dichloro-α-methylbenzenemethanol",
    "cn_name": "1-(2,5-二氯苯基)乙醇;",
    "alternate_name": "Benzenemethanol, 2,5-dichloro-α-methyl-;Benzyl alcohol, 2,5-dichloro-α-methyl-;2,5-Dichloro-α-methylbenzenemethanol;2,5-Dichloro-α-methylbenzyl alcohol;NSC 157362;1-(2,5-Dichlorophenyl)ethanol",
    "duplicated_cas_no": "",
    "SMILES": "C(C)(O)C1=C(Cl)C=CC(Cl)=C1",
    "meta_data": {
        "InChI": "InChI=1S/C8H8Cl2O/c1-5(11)7-4-6(9)2-3-8(7)10/h2-5,11H,1H3",
        "InChIKey": null,
        "Canonical SMILES": "ClC1=CC=C(Cl)C(=C1)C(O)C",
        "Molecular Formula": "C<sub>8</sub>H<sub>8</sub>Cl<sub>2</sub>O",
        "Molecular Mass": "191.05",
        "Boiling Point": "71 °C @ Press: 2.5 Torr",
        "Melting Point": "60-62 °C",
        "Density": "1.217 g/cm³ @ Temp: 25 °C"
    }
}