{
    "cas_no": "3041-40-5",
    "key_name": "2-Phenylpropanedinitrile",
    "cn_name": "2-苯基丙二腈;",
    "alternate_name": "Propanedinitrile, 2-phenyl-;Malononitrile, phenyl-;Propanedinitrile, phenyl-;2-Phenylpropanedinitrile;Phenylmalononitrile;NSC 10742;2-Phenylmalononitrile;2-Phenyl-malononitrile",
    "duplicated_cas_no": "",
    "SMILES": "C(C#N)(C#N)C1=CC=CC=C1",
    "meta_data": {
        "InChI": "InChI=1S/C9H6N2/c10-6-9(7-11)8-4-2-1-3-5-8/h1-5,9H",
        "InChIKey": null,
        "Canonical SMILES": "N#CC(C#N)C=1C=CC=CC1",
        "Molecular Formula": "C<sub>9</sub>H<sub>6</sub>N<sub>2</sub>",
        "Molecular Mass": "142.16",
        "Melting Point": "68 °C"
    }
}