{
    "cas_no": "597-43-3",
    "key_name": "2,2-Dimethylsuccinic acid",
    "cn_name": "2,2-二甲基丁二酸;",
    "alternate_name": "Butanedioic acid, 2,2-dimethyl-;Succinic acid, 2,2-dimethyl-;Succinic acid, α,α-dimethyl-;2,2-Dimethylbutanedioic acid;2,2-Dimethylsuccinic acid;NSC 408419;2,2-Dimethylsuccinaldehyde",
    "duplicated_cas_no": "",
    "SMILES": "C(CC(O)=O)(C(O)=O)(C)C",
    "meta_data": {
        "InChI": "InChI=1S/C6H10O4/c1-6(2,5(9)10)3-4(7)8/h3H2,1-2H3,(H,7,8)(H,9,10)",
        "InChIKey": null,
        "Canonical SMILES": "O=C(O)CC(C(=O)O)(C)C",
        "Molecular Formula": "C<sub>6</sub>H<sub>10</sub>O<sub>4</sub>",
        "Molecular Mass": "146.14",
        "Boiling Point": "~90 °C (approx) @ Press: 15 Torr",
        "Melting Point": "140.5 °C"
    }
}