{
    "cas_no": "1573-92-8",
    "key_name": "9-Fluorenone-1-carboxylic acid",
    "cn_name": null,
    "alternate_name": "9<em>H</em>-Fluorene-1-carboxylic acid, 9-oxo-;Fluorene-1-carboxylic acid, 9-oxo-;9-Oxo-9<em>H</em>-fluorene-1-carboxylic acid;9-Fluorenone-1-carboxylic acid;Fluorenone-1-carboxylic acid;1-Carboxyfluorenone;9-Oxofluorene-1-carboxylic acid;9-<em>keto</em>-Fluorene-1-carboxylic acid;NSC 24049;1-Carboxy-9-fluorenone",
    "duplicated_cas_no": "",
    "SMILES": "O=C1C=2C(C=3C1=CC=CC3)=CC=CC2C(O)=O",
    "meta_data": {
        "InChI": "InChI=1S/C14H8O3/c15-13-10-5-2-1-4-8(10)9-6-3-7-11(12(9)13)14(16)17/h1-7H,(H,16,17)",
        "InChIKey": null,
        "Canonical SMILES": "O=C(O)C1=CC=CC=2C=3C=CC=CC3C(=O)C12",
        "Molecular Formula": "C<sub>14</sub>H<sub>8</sub>O<sub>3</sub>",
        "Molecular Mass": "224.21",
        "Melting Point": "192-193 °C"
    }
}