{
    "cas_no": "307-08-4",
    "key_name": "1,1,2,2,3,3,4,4,4a,4b,5,5,6,6,7,7,8,8,8a,9,9,9a-Docosafluorododecahydro-1<em>H</em>-fluorene",
    "cn_name": "全氟全氢芴;全氟芴;全氟芴烷;",
    "alternate_name": "1<em>H</em>-Fluorene, 1,1,2,2,3,3,4,4,4a,4b,5,5,6,6,7,7,8,8,8a,9,9,9a-docosafluorododecahydro-;Fluorene, docosafluorododecahydro-;1,1,2,2,3,3,4,4,4a,4b,5,5,6,6,7,7,8,8,8a,9,9,9a-Docosafluorododecahydro-1<em>H</em>-fluorene;Perfluoroperhydrofluorene;Flutec PP 10;Perfluorododecahydrofluorene;PP 10",
    "duplicated_cas_no": "1201928-57-5",
    "SMILES": "FC12C3(F)C(F)(C(F)(F)C1(F)C(F)(F)C(F)(F)C(F)(F)C2(F)F)C(F)(F)C(F)(F)C(F)(F)C3(F)F",
    "meta_data": {
        "InChI": "InChI=1S/C13F22/c14-1-2(15)4(17,9(26,27)13(34,35)11(30,31)7(2,22)23)5(18,19)3(1,16)8(24,25)12(32,33)10(28,29)6(1,20)21",
        "InChIKey": null,
        "Canonical SMILES": "FC1(F)C(F)(F)C(F)(F)C2(F)C(F)(C1(F)F)C(F)(F)C3(F)C(F)(F)C(F)(F)C(F)(F)C(F)(F)C32F",
        "Molecular Formula": "C<sub>13</sub>F<sub>22</sub>",
        "Molecular Mass": "574.10",
        "Boiling Point": "190 °C"
    }
}