{
    "cas_no": "140898-91-5",
    "key_name": "Pentanoic acid, 5-amino-4-oxo-, hexyl ester, hydrochloride (1:1)",
    "cn_name": null,
    "alternate_name": "Pentanoic acid, 5-amino-4-oxo-, hexyl ester, hydrochloride (1:1);Pentanoic acid, 5-amino-4-oxo-, hexyl ester, hydrochloride;<em>n</em>-Hexyl 5-aminolevulinate hydrochloride;Hexyl 5-aminolevulinate hydrochloride;Hexaminolevulinate hydrochloride;P 1206;Hexvix;SML 1637;Cysview",
    "duplicated_cas_no": "",
    "SMILES": "C(CCC(CN)=O)(OCCCCCC)=O.Cl",
    "meta_data": {
        "InChI": "InChI=1S/C11H21NO3.ClH/c1-2-3-4-5-8-15-11(14)7-6-10(13)9-12;/h2-9,12H2,1H3;1H",
        "InChIKey": null,
        "Canonical SMILES": "Cl.O=C(OCCCCCC)CCC(=O)CN",
        "Molecular Formula": "C<sub>11</sub>H<sub>21</sub>NO<sub>3</sub>.ClH",
        "Molecular Mass": "",
        "Melting Point": "145.0-147.0 °C"
    }
}