{
    "cas_no": "1001-58-7",
    "key_name": "3-Mercaptopropanenitrile",
    "cn_name": "2-氰基乙硫醇;2-氰基乙硫醇;",
    "alternate_name": "Propanenitrile, 3-mercapto-;Propionitrile, 3-mercapto-;3-Mercaptopropanenitrile;3-Mercaptopropionitrile;1-Cyano-2-mercaptoethane;β-Mercaptopropionitrile;2-Cyanoethyl mercaptan;3-Sulfanylpropanenitrile",
    "duplicated_cas_no": "",
    "SMILES": "C(C#N)CS",
    "meta_data": {
        "InChI": "InChI=1S/C3H5NS/c4-2-1-3-5/h5H,1,3H2",
        "InChIKey": null,
        "Canonical SMILES": "N#CCCS",
        "Molecular Formula": "C<sub>3</sub>H<sub>5</sub>NS",
        "Molecular Mass": "87.14",
        "Boiling Point": "44-46 °C",
        "Density": "1.0696 g/cm³ @ Temp: 20 °C"
    }
}