{
    "cas_no": "5910-85-0",
    "key_name": "2,4-Heptadienal",
    "cn_name": "反式,反式-2,4-庚二烯醛;2,4-庚二烯醛;",
    "alternate_name": "2,4-Heptadienal;2,4-Heptadien-1-al",
    "duplicated_cas_no": "",
    "SMILES": "C(C=CC=O)=CCC",
    "meta_data": {
        "InChI": "InChI=1S/C7H10O/c1-2-3-4-5-6-7-8/h3-7H,2H2,1H3",
        "InChIKey": null,
        "Canonical SMILES": "O=CC=CC=CCC",
        "Molecular Formula": "C<sub>7</sub>H<sub>10</sub>O",
        "Molecular Mass": "110.15",
        "Boiling Point": "58-60 °C @ Press: 5 Torr"
    }
}