{
    "cas_no": "103-19-5",
    "key_name": "<em>p</em>-Tolyl disulfide",
    "cn_name": "对甲苯二硫醚;",
    "alternate_name": "Disulfide, bis(4-methylphenyl);<em>p</em>-Tolyl disulfide;Bis(4-methylphenyl) disulfide;Bis(<em>p</em>-tolyl) disulfide;Di-<em>p</em>-Tolyl disulfide;4-Methylphenyl disulfide;Biodylon;Kresulfin;Di-4-tolyl disulfide;Bis(4-tolyl) disulfide;Bis(<em>p</em>-methylphenyl) disulfide;NSC 994;NSC 677466;Bis(4-methylphenyl)disulfane;Di-(para-methylphenyl)disulfide;Di(4-methylphenyl) disulfide;1,2-Di-<em>p</em>-tolyldisulfane;1-Methyl-4-[(4-methylphenyl)disulfanyl]benzene;Di-(4-methylphenyl) disulfane",
    "duplicated_cas_no": "1623130-99-3",
    "SMILES": "S(SC1=CC=C(C)C=C1)C2=CC=C(C)C=C2",
    "meta_data": {
        "InChI": "InChI=1S/C14H14S2/c1-11-3-7-13(8-4-11)15-16-14-9-5-12(2)6-10-14/h3-10H,1-2H3",
        "InChIKey": null,
        "Canonical SMILES": "S(SC1=CC=C(C=C1)C)C2=CC=C(C=C2)C",
        "Molecular Formula": "C<sub>14</sub>H<sub>14</sub>S<sub>2</sub>",
        "Molecular Mass": "246.39",
        "Boiling Point": "210-215 °C @ Press: 20 Torr",
        "Melting Point": "47.5 °C",
        "Density": "1.068 g/cm³ @ Temp: 111.0 °C"
    }
}