{
    "cas_no": "1736-67-0",
    "key_name": "4-Fluorobenzeneacetaldehyde",
    "cn_name": null,
    "alternate_name": "Benzeneacetaldehyde, 4-fluoro-;Acetaldehyde, (<em>p</em>-fluorophenyl)-;4-Fluorobenzeneacetaldehyde;(<em>p</em>-Fluorophenyl)acetaldehyde;(4-Fluorophenyl)acetaldehyde;2-(4-Fluorophenyl)acetaldehyde;1-(4-Fluoro phenyl)-2-ethanone",
    "duplicated_cas_no": "",
    "SMILES": "C(C=O)C1=CC=C(F)C=C1",
    "meta_data": {
        "InChI": "InChI=1S/C8H7FO/c9-8-3-1-7(2-4-8)5-6-10/h1-4,6H,5H2",
        "InChIKey": null,
        "Canonical SMILES": "O=CCC1=CC=C(F)C=C1",
        "Molecular Formula": "C<sub>8</sub>H<sub>7</sub>FO",
        "Molecular Mass": "138.14",
        "Boiling Point": "63-65 °C @ Press: 5-6 Torr"
    }
}