{
    "cas_no": "697-18-7",
    "key_name": "1,2-Oxathietane, 3,3,4,4-tetrafluoro-, 2,2-dioxide",
    "cn_name": null,
    "alternate_name": "1,2-Oxathietane, 3,3,4,4-tetrafluoro-, 2,2-dioxide;Ethanesulfonic acid, 1,1,2,2-tetrafluoro-2-hydroxy-, β-sultone;2-Hydroxytetrafluoroethanesulfonic acid β-sultone;Tetrafluoroethane-β-sultone;Tetrafluoroethanesultone;3,3,4,4-Tetrafluoro-1,2-oxathietane-2,2-dioxide",
    "duplicated_cas_no": "",
    "SMILES": "FC1(F)C(F)(F)S(=O)(=O)O1",
    "meta_data": {
        "InChI": "InChI=1S/C2F4O3S/c3-1(4)2(5,6)10(7,8)9-1",
        "InChIKey": null,
        "Canonical SMILES": "O=S1(=O)OC(F)(F)C1(F)F",
        "Molecular Formula": "C<sub>2</sub>F<sub>4</sub>O<sub>3</sub>S",
        "Molecular Mass": "180.08",
        "Boiling Point": "42 °C",
        "Melting Point": "-35 °C",
        "Density": "1.6219 g/cm³ @ Temp: 20 °C"
    }
}