{
    "cas_no": "330-13-2",
    "key_name": "4-Nitrophenyl phosphate",
    "cn_name": null,
    "alternate_name": "Phosphoric acid, mono(4-nitrophenyl) ester;Phosphoric acid, mono(<em>p</em>-nitrophenyl) ester;Phosphoric acid, <em>p</em>-nitrophenyl ester;Phenol, <em>p</em>-nitro-, dihydrogen phosphate;<em>p</em>-Nitrophenyl phosphate;4-Nitrophenyl phosphate;NPP;4-Nitrophenyl dihydrogen phosphate;<em>p</em>-Nitrophenyl dihydrogen phosphate;<em>p</em>-Nitrophenol phosphate;PNPP;NSC 404086;Mono(4-nitrophenyl) phosphate;Alkaline Phosphatase Yellow;(4-Nitrophenoxy)phosphonic acid",
    "duplicated_cas_no": "",
    "SMILES": "O(P(=O)(O)O)C1=CC=C(N(=O)=O)C=C1",
    "meta_data": {
        "InChI": "InChI=1S/C6H6NO6P/c8-7(9)5-1-3-6(4-2-5)13-14(10,11)12/h1-4H,(H2,10,11,12)",
        "InChIKey": null,
        "Canonical SMILES": "O=N(=O)C1=CC=C(OP(=O)(O)O)C=C1",
        "Molecular Formula": "C<sub>6</sub>H<sub>6</sub>NO<sub>6</sub>P",
        "Molecular Mass": "219.09",
        "Melting Point": "153 °C"
    }
}