{
    "cas_no": "78385-36-1",
    "key_name": "Phosphonium, [2-oxo-2-(phenylmethoxy)ethyl]triphenyl-, bromide (1:1)",
    "cn_name": "(苄氧羰基甲基)三苯基溴化鏻;",
    "alternate_name": "Phosphonium, [2-oxo-2-(phenylmethoxy)ethyl]triphenyl-, bromide (1:1);Phosphonium, [2-oxo-2-(phenylmethoxy)ethyl]triphenyl-, bromide;Benzyloxycarbonylmethyltriphenylphosphonium bromide;[2-(Benzyloxy)-2-oxoethyl]triphenylphosphanium bromide",
    "duplicated_cas_no": "",
    "SMILES": "[P+](CC(OCC1=CC=CC=C1)=O)(C2=CC=CC=C2)(C3=CC=CC=C3)C4=CC=CC=C4.[Br-]",
    "meta_data": {
        "InChI": "InChI=1S/C27H24O2P.BrH/c28-27(29-21-23-13-5-1-6-14-23)22-30(24-15-7-2-8-16-24,25-17-9-3-10-18-25)26-19-11-4-12-20-26;/h1-20H,21-22H2;1H/q+1;/p-1",
        "InChIKey": null,
        "Canonical SMILES": "[Br-].O=C(OCC=1C=CC=CC1)C[P+](C=2C=CC=CC2)(C=3C=CC=CC3)C=4C=CC=CC4",
        "Molecular Formula": "C<sub>27</sub>H<sub>24</sub>O<sub>2</sub>P.Br",
        "Molecular Mass": "",
        "Melting Point": "160 °C"
    }
}