{
    "cas_no": "3528-58-3",
    "key_name": "5-Amino-1-ethylpyrazole",
    "cn_name": "5-氨基-1-乙基吡唑;",
    "alternate_name": "1<em>H</em>-Pyrazol-5-amine, 1-ethyl-;Pyrazole, 5-amino-1-ethyl-;1-Ethyl-1<em>H</em>-pyrazol-5-amine;5-Amino-1-ethylpyrazole;1-Ethyl-5-aminopyrazole;5-Amino-1-ethyl-1<em>H</em>-pyrazole;2-Ethyl-2<em>H</em>-pyrazol-3-ylamine;1-Ethyl-1<em>H</em>-pyrazol-5-ylamine;NSC 354694;2-Ethylpyrazol-3-amine",
    "duplicated_cas_no": "",
    "SMILES": "C(C)N1C(N)=CC=N1",
    "meta_data": {
        "InChI": "InChI=1S/C5H9N3/c1-2-8-5(6)3-4-7-8/h3-4H,2,6H2,1H3",
        "InChIKey": null,
        "Canonical SMILES": "N1=CC=C(N)N1CC",
        "Molecular Formula": "C<sub>5</sub>H<sub>9</sub>N<sub>3</sub>",
        "Molecular Mass": "111.15",
        "Boiling Point": "75-76 °C @ Press: 25 Torr"
    }
}