{
    "cas_no": "29181-50-8",
    "key_name": "2,4-Pyridinedicarbonitrile",
    "cn_name": "吡啶-2,4-二腈;",
    "alternate_name": "2,4-Pyridinedicarbonitrile;2,4-Dicyanopyridine",
    "duplicated_cas_no": "",
    "SMILES": "C(#N)C=1C=C(C#N)N=CC1",
    "meta_data": {
        "InChI": "InChI=1S/C7H3N3/c8-4-6-1-2-10-7(3-6)5-9/h1-3H",
        "InChIKey": null,
        "Canonical SMILES": "N#CC1=NC=CC(C#N)=C1",
        "Molecular Formula": "C<sub>7</sub>H<sub>3</sub>N<sub>3</sub>",
        "Molecular Mass": "129.12",
        "Melting Point": "88-91 °C"
    }
}