{
    "cas_no": "40769-81-1",
    "key_name": "1<em>H</em>-Pyrazolo[4,3-<em>d</em>]pyrimidine-5,7(4<em>H</em>,6<em>H</em>)-dione",
    "cn_name": null,
    "alternate_name": "1<em>H</em>-Pyrazolo[4,3-<em>d</em>]pyrimidine-5,7(4<em>H</em>,6<em>H</em>)-dione;1<em>H</em>-Pyrazolo[4,3-<em>d</em>]pyrimidine-5,7-diol;5,7-Dihydroxypyrazolo[4,3-<em>d</em>]pyrimidine;1,4-Dihydropyrazolo[4,3-<em>d</em>]pyrimidine-5,7-dione",
    "duplicated_cas_no": "",
    "SMILES": "O=C1C2=C(NC(=O)N1)C=NN2",
    "meta_data": {
        "InChI": "InChI=1S/C5H4N4O2/c10-4-3-2(1-6-9-3)7-5(11)8-4/h1H,(H,6,9)(H2,7,8,10,11)",
        "InChIKey": null,
        "Canonical SMILES": "O=C1NC(=O)C=2NN=CC2N1",
        "Molecular Formula": "C<sub>5</sub>H<sub>4</sub>N<sub>4</sub>O<sub>2</sub>",
        "Molecular Mass": "152.11",
        "Melting Point": "&gt;300 °C"
    }
}