{
    "cas_no": "628-28-4",
    "key_name": "Butyl methyl ether",
    "cn_name": "甲基正丁基醚;甲基正丁基醚；1-甲氧基丁烷；甲丁醚;",
    "alternate_name": "Butane, 1-methoxy-;Ether, butyl methyl;1-Methoxybutane;Butyl methyl ether;Methyl butyl ether;Methyl <em>n</em>-butyl ether;α-Methoxybutane;<em>n</em>-Butyl methyl ether",
    "duplicated_cas_no": "",
    "SMILES": "C(COC)CC",
    "meta_data": {
        "InChI": "InChI=1S/C5H12O/c1-3-4-5-6-2/h3-5H2,1-2H3",
        "InChIKey": null,
        "Canonical SMILES": "O(C)CCCC",
        "Molecular Formula": "C<sub>5</sub>H<sub>12</sub>O",
        "Molecular Mass": "88.15",
        "Boiling Point": "70.1 °C",
        "Melting Point": "-115.5 °C",
        "Density": "0.86285 g/cm³ @ Temp: 20 °C"
    }
}