{
    "cas_no": "106989-11-1",
    "key_name": "Poly[(+)-lactic acid]",
    "cn_name": null,
    "alternate_name": "Propanoic acid, 2-hydroxy-, (2<em>R</em>)-, homopolymer;Propanoic acid, 2-hydroxy-, (<em>R</em>)-, homopolymer;Poly[(+)-lactic acid];<span class=\"text-smallcaps\">D</span>-Lactic acid polymer;<span class=\"text-smallcaps\">D</span>-Lactic acid homopolymer;Poly-<span class=\"text-smallcaps\">D</span>-lactic acid;(<em>R</em>)-Lactic acid homopolymer;Poly(<span class=\"text-smallcaps\">D</span>-lactic acid)",
    "duplicated_cas_no": "2716244-74-3",
    "SMILES": "[C@H](C(O)=O)(C)O",
    "meta_data": {
        "InChI": "InChI=1S/C3H6O3/c1-2(4)3(5)6/h2,4H,1H3,(H,5,6)/t2-/m1/s1",
        "InChIKey": null,
        "Canonical SMILES": "O=C(O)C(O)C",
        "Molecular Formula": "(C<sub>3</sub>H<sub>6</sub>O<sub>3</sub>)<sub>x</sub>",
        "Molecular Mass": "",
        "Melting Point": "154 °C"
    }
}