{
    "cas_no": "353-85-5",
    "key_name": "Trifluoroacetonitrile",
    "cn_name": "三氟乙腈;",
    "alternate_name": "Acetonitrile, 2,2,2-trifluoro-;Acetonitrile, trifluoro-;2,2,2-Trifluoroacetonitrile;Trifluoroacetonitrile;Cyanotrifluoromethane;Perfluoroacetonitrile;Trifluoromethyl cyanide;Trifluoromethylcarbonitrile;CF<sub>3</sub>CN",
    "duplicated_cas_no": "1800084-93-8",
    "SMILES": "C(C#N)(F)(F)F",
    "meta_data": {
        "InChI": "InChI=1S/C2F3N/c3-2(4,5)1-6",
        "InChIKey": null,
        "Canonical SMILES": "N#CC(F)(F)F",
        "Molecular Formula": "C<sub>2</sub>F<sub>3</sub>N",
        "Molecular Mass": "95.02",
        "Boiling Point": "-68.8 °C"
    }
}