{
    "cas_no": "21905-86-2",
    "key_name": "4-Cinnolinecarboxylic acid",
    "cn_name": "噌啉-4-羧酸;",
    "alternate_name": "4-Cinnolinecarboxylic acid;NSC 75570",
    "duplicated_cas_no": "",
    "SMILES": "C(O)(=O)C=1C2=C(N=NC1)C=CC=C2",
    "meta_data": {
        "InChI": "InChI=1S/C9H6N2O2/c12-9(13)7-5-10-11-8-4-2-1-3-6(7)8/h1-5H,(H,12,13)",
        "InChIKey": null,
        "Canonical SMILES": "O=C(O)C1=CN=NC2=CC=CC=C21",
        "Molecular Formula": "C<sub>9</sub>H<sub>6</sub>N<sub>2</sub>O<sub>2</sub>",
        "Molecular Mass": "174.16",
        "Melting Point": "195-196 °C (decomp)"
    }
}