{
    "cas_no": "68039-49-6",
    "key_name": "Triplal",
    "cn_name": "女贞醛;",
    "alternate_name": "3-Cyclohexene-1-carboxaldehyde, 2,4-dimethyl-;2,4-Dimethyl-3-cyclohexene-1-carboxaldehyde;2,4-Dimethyl-3-cyclohexenecarboxaldehyde;Tripral;2,4-Dimethyl-3-cyclohexenylcarbaldehyde;Cyclal C;Tricyclal;Triplal;Ligustral;Zestover;(<em>Z</em>)-Vertocitral C;Nvzhenquan;2,4-Dimethylcyclohex-3-ene-1-carbaldehyde;2,4-Dimethyl-cyclohex-3-enecarbaldehyde;2,4-Ivy carbaldehyde",
    "duplicated_cas_no": "333401-53-9;144046-32-2;196966-17-3;234439-30-6",
    "SMILES": "C(=O)C1C(C)C=C(C)CC1",
    "meta_data": {
        "InChI": "InChI=1S/C9H14O/c1-7-3-4-9(6-10)8(2)5-7/h5-6,8-9H,3-4H2,1-2H3",
        "InChIKey": null,
        "Canonical SMILES": "O=CC1CCC(=CC1C)C",
        "Molecular Formula": "C<sub>9</sub>H<sub>14</sub>O",
        "Molecular Mass": "138.21",
        "Boiling Point": "113-115 °C @ Press: 31 Torr",
        "Melting Point": "85-90 °C"
    }
}