{
    "cas_no": "1745-07-9",
    "key_name": "6,7-Dimethoxy-1,2,3,4-tetrahydroisoquinoline",
    "cn_name": null,
    "alternate_name": "Isoquinoline, 1,2,3,4-tetrahydro-6,7-dimethoxy-;1,2,3,4-Tetrahydro-6,7-dimethoxyisoquinoline;6,7-Dimethoxy-1,2,3,4-tetrahydroisoquinoline;Heliamine;6,7-Dimethoxy-3,4-dihydro-1<em>H</em>-isoquinoline;THQ2",
    "duplicated_cas_no": "",
    "SMILES": "O(C)C=1C=C2C(=CC1OC)CNCC2",
    "meta_data": {
        "InChI": "InChI=1S/C11H15NO2/c1-13-10-5-8-3-4-12-7-9(8)6-11(10)14-2/h5-6,12H,3-4,7H2,1-2H3",
        "InChIKey": null,
        "Canonical SMILES": "O(C=1C=C2C(=CC1OC)CCNC2)C",
        "Molecular Formula": "C<sub>11</sub>H<sub>15</sub>NO<sub>2</sub>",
        "Molecular Mass": "193.24",
        "Boiling Point": "175 °C @ Press: 10 Torr",
        "Melting Point": "262 °C"
    }
}