{
    "cas_no": "3099-30-7",
    "key_name": "Pyridine, 2-(chloromethyl)-6-methyl-, hydrochloride (1:1)",
    "cn_name": null,
    "alternate_name": "Pyridine, 2-(chloromethyl)-6-methyl-, hydrochloride (1:1);Pyridine, 2-(chloromethyl)-6-methyl-, hydrochloride;2-(Chloromethyl)-6-methylpyridine hydrochloride;6-Chloromethyl-2-methylpyridine hydrochloride;2-(Chloromethyl)-6-methylpyridine monohydrochloride",
    "duplicated_cas_no": "",
    "SMILES": "C(Cl)C=1N=C(C)C=CC1.Cl",
    "meta_data": {
        "InChI": "InChI=1S/C7H8ClN.ClH/c1-6-3-2-4-7(5-8)9-6;/h2-4H,5H2,1H3;1H",
        "InChIKey": null,
        "Canonical SMILES": "Cl.ClCC1=NC(=CC=C1)C",
        "Molecular Formula": "C<sub>7</sub>H<sub>8</sub>ClN.ClH",
        "Molecular Mass": "",
        "Melting Point": "146-153 °C"
    }
}