{
    "cas_no": "500-65-2",
    "key_name": "Rhapontigenin",
    "cn_name": null,
    "alternate_name": "1,3-Benzenediol, 5-[(1<em>E</em>)-2-(3-hydroxy-4-methoxyphenyl)ethenyl]-;3,3′,5-Stilbenetriol, 4′-methoxy-, (<em>E</em>)-;1,3-Benzenediol, 5-[2-(3-hydroxy-4-methoxyphenyl)ethenyl]-, (<em>E</em>)-;5-[(1<em>E</em>)-2-(3-Hydroxy-4-methoxyphenyl)ethenyl]-1,3-benzenediol;Pontigenin;Prontigenin;Protigenin;Rhapontigenin;Rhapontin genin;Rhapontin aglycone",
    "duplicated_cas_no": "29700-24-1",
    "SMILES": "C(=C/C1=CC(O)=C(OC)C=C1)\\C2=CC(O)=CC(O)=C2",
    "meta_data": {
        "InChI": "InChI=1S/C15H14O4/c1-19-15-5-4-10(8-14(15)18)2-3-11-6-12(16)9-13(17)7-11/h2-9,16-18H,1H3/b3-2+",
        "InChIKey": null,
        "Canonical SMILES": "OC=1C=C(O)C=C(C=CC2=CC=C(OC)C(O)=C2)C1",
        "Molecular Formula": "C<sub>15</sub>H<sub>14</sub>O<sub>4</sub>",
        "Molecular Mass": "258.27",
        "Melting Point": "180-181 °C"
    }
}