{
    "cas_no": "10101-58-3",
    "key_name": "Cobalt tungsten oxide (CoWO<sub>4</sub>)",
    "cn_name": "氧化钨钴(II);",
    "alternate_name": "Cobalt tungsten oxide (CoWO<sub>4</sub>);Tungstic acid (H<sub>2</sub>WO<sub>4</sub>), cobalt(2+) salt (1:1);Cobalt tungstate(VI) (CoWO<sub>4</sub>);C.I. 77376;Cobaltous tungstate;Cobalt tungstate (CoWO<sub>4</sub>);Cobalt tungstate;Cobalt wolframate;Tungstocobaltic acid",
    "duplicated_cas_no": "23689-74-9;12771-87-8;55802-87-4;51184-26-0",
    "SMILES": "[O].[Co].[W]",
    "meta_data": {
        "InChI": "InChI=1S/Co.O.W",
        "InChIKey": null,
        "Canonical SMILES": "[O].[Co].[W]",
        "Molecular Formula": "Co.O.W",
        "Molecular Mass": "",
        "Melting Point": "1280 °C",
        "Density": "8.42 g/cm³"
    }
}