{
    "uri": "substance/pt/10101583",
    "rn": "10101-58-3",
    "name": "Cobalt tungsten oxide (CoWO<sub>4</sub>)",
    "images": [],
    "inchi": "InChI=1S/Co.O.W",
    "inchiKey": "InChIKey=HZLBQBQEGLFWLA-UHFFFAOYSA-N",
    "smile": "[O].[Co].[W]",
    "canonicalSmile": "[O].[Co].[W]",
    "molecularFormula": "Co.O.W",
    "molecularMass": "",
    "experimentalProperties": [
        {
            "name": "Melting Point",
            "property": "1280 °C",
            "sourceNumber": 1
        },
        {
            "name": "Density",
            "property": "8.42 g/cm³",
            "sourceNumber": 2
        }
    ],
    "propertyCitations": [
        {
            "docUri": "document/pt/document/11780316",
            "sourceNumber": 1,
            "source": "Phillips, Bert; Transactions of the American Institute of Mining, Metallurgical and Petroleum Engineers, (1965), 233(7), 1220-6, CAplus"
        },
        {
            "docUri": "document/pt/document/50707113",
            "sourceNumber": 2,
            "source": "Gan, Lu; Corrosion Science, (2018), 134, 162-168, CAplus"
        }
    ],
    "synonyms": [
        "Cobalt tungsten oxide (CoWO<sub>4</sub>)",
        "Tungstic acid (H<sub>2</sub>WO<sub>4</sub>), cobalt(2+) salt (1:1)",
        "Cobalt tungstate(VI) (CoWO<sub>4</sub>)",
        "C.I. 77376",
        "Cobaltous tungstate",
        "Cobalt tungstate (CoWO<sub>4</sub>)",
        "Cobalt tungstate",
        "Cobalt wolframate",
        "Tungstocobaltic acid"
    ],
    "replacedRns": [
        "23689-74-9",
        "12771-87-8",
        "55802-87-4",
        "51184-26-0"
    ],
    "hasMolfile": true,
    "source": "https://commonchemistry.cas.org/detail?cas_rn=10101-58-3"
}