{
    "cas_no": "212142-18-2",
    "key_name": "Vatalanib succinate",
    "cn_name": "琥珀酸瓦他拉尼;N-(4-氯苯基)-4-(4-吡啶甲基)-1-酞嗪胺琥珀酸盐;",
    "alternate_name": "Butanedioic acid, compd. with <em>N</em>-(4-chlorophenyl)-4-(4-pyridinylmethyl)-1-phthalazinamine (1:1);1-Phthalazinamine, <em>N</em>-(4-chlorophenyl)-4-(4-pyridinylmethyl)-, butanedioate (1:1);PTK 787;CGP 79787D;ZK 222584;Vatalanib succinate;PTK 787ZK22258;PTK 787/ZK 222584;PTK787/ZK222584",
    "duplicated_cas_no": "1196682-47-9",
    "SMILES": "N(C=1C2=C(C(CC=3C=CN=CC3)=NN1)C=CC=C2)C4=CC=C(Cl)C=C4.C(CC(O)=O)C(O)=O",
    "meta_data": {
        "InChI": "InChI=1S/C20H15ClN4.C4H6O4/c21-15-5-7-16(8-6-15)23-20-18-4-2-1-3-17(18)19(24-25-20)13-14-9-11-22-12-10-14;5-3(6)1-2-4(7)8/h1-12H,13H2,(H,23,25);1-2H2,(H,5,6)(H,7,8)",
        "InChIKey": null,
        "Canonical SMILES": "O=C(O)CCC(=O)O.ClC1=CC=C(C=C1)NC2=NN=C(C=3C=CC=CC23)CC=4C=CN=CC4",
        "Molecular Formula": "C<sub>20</sub>H<sub>15</sub>ClN<sub>4</sub>.C<sub>4</sub>H<sub>6</sub>O<sub>4</sub>",
        "Molecular Mass": "",
        "Melting Point": "195 °C"
    }
}