{
    "cas_no": "394-46-7",
    "key_name": "1-Ethenyl-2-fluorobenzene",
    "cn_name": "2-氟苯乙烯;邻氟苯乙烯;",
    "alternate_name": "Benzene, 1-ethenyl-2-fluoro-;Styrene, <em>o</em>-fluoro-;1-Ethenyl-2-fluorobenzene;6-Fluorostyrene;<em>o</em>-Fluorostyrene;2-Fluorostyrene;1-Fluoro-2-vinylbenzene",
    "duplicated_cas_no": "",
    "SMILES": "C(=C)C1=C(F)C=CC=C1",
    "meta_data": {
        "InChI": "InChI=1S/C8H7F/c1-2-7-5-3-4-6-8(7)9/h2-6H,1H2",
        "InChIKey": null,
        "Canonical SMILES": "FC=1C=CC=CC1C=C",
        "Molecular Formula": "C<sub>8</sub>H<sub>7</sub>F",
        "Molecular Mass": "122.14",
        "Boiling Point": "32-34 °C @ Press: 3 Torr",
        "Density": "1.030 g/cm³ @ Temp: 20 °C"
    }
}