{
    "cas_no": "3518-65-8",
    "key_name": "1-Chloromethanesulfonyl chloride",
    "cn_name": "氯甲基磺酰氯;",
    "alternate_name": "Methanesulfonyl chloride, 1-chloro-;Methanesulfonyl chloride, chloro-;1-Chloromethanesulfonyl chloride;Chloromethanesulfonyl chloride;(Chloromethyl)sulfonyl chloride",
    "duplicated_cas_no": "",
    "SMILES": "S(CCl)(Cl)(=O)=O",
    "meta_data": {
        "InChI": "InChI=1S/CH2Cl2O2S/c2-1-6(3,4)5/h1H2",
        "InChIKey": null,
        "Canonical SMILES": "O=S(=O)(Cl)CCl",
        "Molecular Formula": "CH<sub>2</sub>Cl<sub>2</sub>O<sub>2</sub>S",
        "Molecular Mass": "149.00",
        "Boiling Point": "60 °C @ Press: 10 Torr",
        "Density": "1.638 g/cm³ @ Temp: 15 °C"
    }
}