{
    "cas_no": "522-11-2",
    "key_name": "Evoxine",
    "cn_name": null,
    "alternate_name": "2,3-Butanediol, 1-[(4,8-dimethoxyfuro[2,3-<em>b</em>]quinolin-7-yl)oxy]-3-methyl-, (2<em>R</em>)-;Evoxine;Haploperine;(2<em>R</em>)-1-[(4,8-Dimethoxyfuro[2,3-<em>b</em>]quinolin-7-yl)oxy]-3-methyl-2,3-butanediol;Evoxin;Haploperin;Haplophytine B;Haplophytin B;NSC 94653;(2R)-1-(4,8-Dimethoxyfuro[2,3-<em>b</em>]quinolin-7-yl)oxy-3-methylbutane-2,3-diol",
    "duplicated_cas_no": "20397-96-0",
    "SMILES": "O(C)C1=C2C(C(OC)=C3C(=N2)OC=C3)=CC=C1OC[C@H](C(C)(C)O)O",
    "meta_data": {
        "InChI": "InChI=1S/C18H21NO6/c1-18(2,21)13(20)9-25-12-6-5-10-14(16(12)23-4)19-17-11(7-8-24-17)15(10)22-3/h5-8,13,20-21H,9H2,1-4H3/t13-/m1/s1",
        "InChIKey": null,
        "Canonical SMILES": "OC(COC=1C=CC2=C(N=C3OC=CC3=C2OC)C1OC)C(O)(C)C",
        "Molecular Formula": "C<sub>18</sub>H<sub>21</sub>NO<sub>6</sub>",
        "Molecular Mass": "347.36",
        "Melting Point": "154-155 °C"
    }
}