{
    "cas_no": "609-08-5",
    "key_name": "Diethyl methylmalonate",
    "cn_name": "甲基丙二酸二乙酯;",
    "alternate_name": "Propanedioic acid, 2-methyl-, 1,3-diethyl ester;Malonic acid, methyl-, diethyl ester;Propanedioic acid, methyl-, diethyl ester;Diethyl methylmalonate;Methylmalonic acid diethyl ester;Diethyl 2-methylmalonate;Diethyl α-methylmalonate;2-Methylmalonic acid diethyl ester;NSC 8700;Diethyl methylpropanedioate;1,3-Diethyl 2-methylpropanedioate;Diethyl 2-methylpropanedioate",
    "duplicated_cas_no": "141885-94-1;581796-71-6",
    "SMILES": "C(C(OCC)=O)(C(OCC)=O)C",
    "meta_data": {
        "InChI": "InChI=1S/C8H14O4/c1-4-11-7(9)6(3)8(10)12-5-2/h6H,4-5H2,1-3H3",
        "InChIKey": null,
        "Canonical SMILES": "O=C(OCC)C(C(=O)OCC)C",
        "Molecular Formula": "C<sub>8</sub>H<sub>14</sub>O<sub>4</sub>",
        "Molecular Mass": "174.19",
        "Boiling Point": "201 °C",
        "Density": "1.0190 g/cm³ @ Temp: 20 °C"
    }
}