{
    "cas_no": "3115-68-2",
    "key_name": "Tetrabutylphosphonium bromide",
    "cn_name": "四丁基溴化鏻;四丁基溴化磷;四丁基溴化膦;",
    "alternate_name": "Phosphonium, tetrabutyl-, bromide (1:1);Phosphonium, tetrabutyl-, bromide;Tetrabutylphosphonium bromide;Tetra-<em>n</em>-butylphosphonium bromide;PX 4B;NSC 41942;Cyphos 443W;TBP-BB;T 1124;Cyphos IL 163;Cyphos 163;TBP-PB",
    "duplicated_cas_no": "34283-24-4;64267-87-4;2732926-52-0",
    "SMILES": "[P+](CCCC)(CCCC)(CCCC)CCCC.[Br-]",
    "meta_data": {
        "InChI": "InChI=1S/C16H36P.BrH/c1-5-9-13-17(14-10-6-2,15-11-7-3)16-12-8-4;/h5-16H2,1-4H3;1H/q+1;/p-1",
        "InChIKey": null,
        "Canonical SMILES": "[Br-].CCCC[P+](CCCC)(CCCC)CCCC",
        "Molecular Formula": "C<sub>16</sub>H<sub>36</sub>P.Br",
        "Molecular Mass": "",
        "Melting Point": "99-101 °C"
    }
}