{
    "cas_no": "5443-49-2",
    "key_name": "α-Bromocinnamaldehyde",
    "cn_name": "alpha-溴代肉桂醛;",
    "alternate_name": "2-Propenal, 2-bromo-3-phenyl-;Cinnamaldehyde, α-bromo-;2-Bromo-3-phenyl-2-propenal;B 37;Alphabrocine;α-Bromocinnamaldehyde;α-Bromocinnamic aldehyde;2-Bromocinnamaldehyde;B 36;NSC 19806;2-Bromo-3-phenylacrolein;α-Bromocinnamal;2-Bromo-3-phenylacrylaldehyde",
    "duplicated_cas_no": "",
    "SMILES": "C(=C(C=O)Br)C1=CC=CC=C1",
    "meta_data": {
        "InChI": "InChI=1S/C9H7BrO/c10-9(7-11)6-8-4-2-1-3-5-8/h1-7H",
        "InChIKey": null,
        "Canonical SMILES": "O=CC(Br)=CC=1C=CC=CC1",
        "Molecular Formula": "C<sub>9</sub>H<sub>7</sub>BrO",
        "Molecular Mass": "211.06",
        "Melting Point": "70.5 °C"
    }
}