{
    "cas_no": "67911-21-1",
    "key_name": "6,6-Dimethyl-3-oxabicyclo[3.1.0]hexane-2,4-dione",
    "cn_name": "卡龙酸酐;",
    "alternate_name": "3-Oxabicyclo[3.1.0]hexane-2,4-dione, 6,6-dimethyl-;6,6-Dimethyl-3-oxabicyclo[3.1.0]hexane-2,4-dione;Caronic anhydride;<em>cis</em>-Caronic anhydride;3,3-Dimethyl-1,2-cyclopropanedicarboxylic anhydride",
    "duplicated_cas_no": "",
    "SMILES": "CC1(C)C2C1C(=O)OC2=O",
    "meta_data": {
        "InChI": "InChI=1S/C7H8O3/c1-7(2)3-4(7)6(9)10-5(3)8/h3-4H,1-2H3",
        "InChIKey": null,
        "Canonical SMILES": "O=C1OC(=O)C2C1C2(C)C",
        "Molecular Formula": "C<sub>7</sub>H<sub>8</sub>O<sub>3</sub>",
        "Molecular Mass": "140.14",
        "Boiling Point": "143 °C @ Press: 20 Torr",
        "Melting Point": "56 °C"
    }
}