{
    "cas_no": "73956-17-9",
    "key_name": "4-Thiazolecarboxylic acid, 2-formyl-, ethyl ester",
    "cn_name": null,
    "alternate_name": "4-Thiazolecarboxylic acid, 2-formyl-, ethyl ester;2-Formylthiazole-4-carboxylic acid ethyl ester;Ethyl 2-formylthiazole-4-carboxylate;Ethyl 2-formyl-1,3-thiazole-4-carboxylate",
    "duplicated_cas_no": "",
    "SMILES": "C(OCC)(=O)C=1N=C(C=O)SC1",
    "meta_data": {
        "InChI": "InChI=1S/C7H7NO3S/c1-2-11-7(10)5-4-12-6(3-9)8-5/h3-4H,2H2,1H3",
        "InChIKey": null,
        "Canonical SMILES": "O=CC1=NC(=CS1)C(=O)OCC",
        "Molecular Formula": "C<sub>7</sub>H<sub>7</sub>NO<sub>3</sub>S",
        "Molecular Mass": "185.20",
        "Melting Point": "64.3-65.6 °C"
    }
}