{
    "cas_no": "106-47-8",
    "key_name": "4-Chloroaniline",
    "cn_name": "4-氯苯胺;对氯苯胺;",
    "alternate_name": "Benzenamine, 4-chloro-;Aniline, <em>p</em>-chloro-;4-Chlorobenzenamine;<em>p</em>-Chloroaniline;4-Chloroaniline;<em>p</em>-Chlorophenylamine;<em>p</em>-Aminochlorobenzene;1-Amino-4-chlorobenzene;4-Chloro-1-aminobenzene;4-Chlorophenylamine;4-Aminochlorobenzene;4-Amino-1-chlorobenzene;NSC 36941",
    "duplicated_cas_no": "",
    "SMILES": "ClC1=CC=C(N)C=C1",
    "meta_data": {
        "InChI": "InChI=1S/C6H6ClN/c7-5-1-3-6(8)4-2-5/h1-4H,8H2",
        "InChIKey": null,
        "Canonical SMILES": "ClC1=CC=C(N)C=C1",
        "Molecular Formula": "C<sub>6</sub>H<sub>6</sub>ClN",
        "Molecular Mass": "127.57",
        "Boiling Point": "232 °C",
        "Melting Point": "72.5 °C",
        "Density": "1.169 g/cm³ @ Temp: 77 °C"
    }
}