{
    "cas_no": "1303-86-2",
    "key_name": "Boron oxide (B<sub>2</sub>O<sub>3</sub>)",
    "cn_name": "三氧化二硼;硼酐;氧化硼;",
    "alternate_name": "Boron oxide (B<sub>2</sub>O<sub>3</sub>);Boric oxide;Boron sesquioxide;Boron trioxide;Fused boric acid;Boric acid (HBO<sub>2</sub>), anhydride;Boric oxide (B<sub>2</sub>O<sub>3</sub>);Boria;Boric anhydride;Diboron trioxide;Boracic anhydride;Boron oxide;Boria (B<sub>2</sub>O<sub>3</sub>);Boric acid anhydride;Boron(III) oxide;Boron oxide (BO<sub>1.5</sub>);B 108406",
    "duplicated_cas_no": "12640-42-5;56116-04-2;56145-44-9;56312-91-5;56312-92-6;56312-93-7;56312-94-8;91863-27-3;102967-73-7;144919-64-2;163701-88-0;1858211-82-1;2566446-91-9",
    "SMILES": "",
    "meta_data": {
        "InChI": "",
        "InChIKey": null,
        "Canonical SMILES": "",
        "Molecular Formula": "B<sub>2</sub>O<sub>3</sub>",
        "Molecular Mass": "",
        "Boiling Point": "~1860 °C (approx)",
        "Melting Point": "450 °C",
        "Density": "2.46 g/cm³"
    }
}