{
    "uri": "substance/pt/1303862",
    "rn": "1303-86-2",
    "name": "Boron oxide (B<sub>2</sub>O<sub>3</sub>)",
    "images": [],
    "inchi": "",
    "inchiKey": "",
    "smile": "",
    "canonicalSmile": "",
    "molecularFormula": "B<sub>2</sub>O<sub>3</sub>",
    "molecularMass": "",
    "experimentalProperties": [
        {
            "name": "Boiling Point",
            "property": "~1860 °C (approx)",
            "sourceNumber": 1
        },
        {
            "name": "Melting Point",
            "property": "450 °C",
            "sourceNumber": 1
        },
        {
            "name": "Density",
            "property": "2.46 g/cm³",
            "sourceNumber": 1
        }
    ],
    "propertyCitations": [
        {
            "docUri": "",
            "sourceNumber": 1,
            "source": "Hazardous Substances Data Bank data were obtained from the National Library of Medicine (US)"
        }
    ],
    "synonyms": [
        "Boron oxide (B<sub>2</sub>O<sub>3</sub>)",
        "Boric oxide",
        "Boron sesquioxide",
        "Boron trioxide",
        "Fused boric acid",
        "Boric acid (HBO<sub>2</sub>), anhydride",
        "Boric oxide (B<sub>2</sub>O<sub>3</sub>)",
        "Boria",
        "Boric anhydride",
        "Diboron trioxide",
        "Boracic anhydride",
        "Boron oxide",
        "Boria (B<sub>2</sub>O<sub>3</sub>)",
        "Boric acid anhydride",
        "Boron(III) oxide",
        "Boron oxide (BO<sub>1.5</sub>)",
        "B 108406"
    ],
    "replacedRns": [
        "12640-42-5",
        "56116-04-2",
        "56145-44-9",
        "56312-91-5",
        "56312-92-6",
        "56312-93-7",
        "56312-94-8",
        "91863-27-3",
        "102967-73-7",
        "144919-64-2",
        "163701-88-0",
        "1858211-82-1",
        "2566446-91-9"
    ],
    "hasMolfile": false,
    "source": "https://commonchemistry.cas.org/detail?cas_rn=1303-86-2"
}