{
    "cas_no": "298-18-0",
    "key_name": "<em>rel</em>-(2<em>R</em>,2′<em>R</em>)-2,2′-Bioxirane",
    "cn_name": "二氧化丁二烯;双环氧乙烷;1,2,3,4-二环氧丁烷;",
    "alternate_name": "2,2′-Bioxirane, (2<em>R</em>,2′<em>R</em>)-<em>rel</em>-;Butane, 1,2:3,4-diepoxy-, (±)-;Threitol, 1,2:3,4-dianhydro-, <span class=\"text-smallcaps\">DL</span>-;2,2′-Bioxirane, (<em>R</em>*,<em>R</em>*)-(±)-;<em>rel</em>-(2<em>R</em>,2′<em>R</em>)-2,2′-Bioxirane;<em>dl</em>-1,2:3,4-Diepoxybutane;2,2′-Bioxirane, (<em>R</em>*,<em>R</em>*)-;(±)-1,2:3,4-Diepoxybutane;<span class=\"text-smallcaps\">DL</span>-Diepoxybutane;<span class=\"text-smallcaps\">DL</span>-1,2:3,4-Diepoxybutane;(±)-Diepoxybutane;Rac-1,3-Butadiene diepoxide",
    "duplicated_cas_no": "3483-75-8;22722-01-6;34897-03-5",
    "SMILES": "[C@]1(CO1)([C@]2(CO2)[H])[H]",
    "meta_data": {
        "InChI": "InChI=1/C4H6O2/c1-3(5-1)4-2-6-4/h3-4H,1-2H2/t3-,4-/s2",
        "InChIKey": null,
        "Canonical SMILES": "O1CC1C2OC2",
        "Molecular Formula": "C<sub>4</sub>H<sub>6</sub>O<sub>2</sub>",
        "Molecular Mass": "86.09",
        "Boiling Point": "144 °C",
        "Melting Point": "3 °C"
    }
}