{
    "cas_no": "3741-38-6",
    "key_name": "Ethylene sulfite",
    "cn_name": "亚硫酸亚乙酯;亚硫酸乙烯酯;亚硫酸乙二醇酯;乙二醇亚硫酸酯;",
    "alternate_name": "1,3,2-Dioxathiolane, 2-oxide;Ethylene glycol, cyclic sulfite;Ethylene sulfite;NSC 3225;Glycol sulfite;Cyclic ethylene sulfite;1,2-Ethylene sulfite;1,3-Dioxa-2-thiacyclopentane oxide;1,3,2λ4-Dioxathiolan-2-one;1,3,2-Dioxathiolan-2-oxide",
    "duplicated_cas_no": "",
    "SMILES": "O=S1OCCO1",
    "meta_data": {
        "InChI": "InChI=1S/C2H4O3S/c3-6-4-1-2-5-6/h1-2H2",
        "InChIKey": null,
        "Canonical SMILES": "O=S1OCCO1",
        "Molecular Formula": "C<sub>2</sub>H<sub>4</sub>O<sub>3</sub>S",
        "Molecular Mass": "108.12",
        "Boiling Point": "173 °C",
        "Melting Point": "-11 °C",
        "Density": "1.4375 g/cm³ @ Temp: 25 °C"
    }
}