{
    "cas_no": "553-97-9",
    "key_name": "Methyl-1,4-benzoquinone",
    "cn_name": "甲基苯醌;",
    "alternate_name": "2,5-Cyclohexadiene-1,4-dione, 2-methyl-;<em>p</em>-Benzoquinone, 2-methyl-;<em>p</em>-Benzoquinone, methyl-;2-Methyl-2,5-cyclohexadiene-1,4-dione;Methyl-<em>p</em>-benzoquinone;2-Methyl-<em>p</em>-benzoquinone;<em>p</em>-Toluquinone;2-Methylbenzoquinone;2-Methyl-1,4-benzoquinone;2-Methylquinone;Methyl-1,4-benzoquinone;Monomethyl-<em>p</em>-benzoquinone;Methyl-p-benzoquinone;NSC 405002;Methyl-<em>p</em>-quinone;Cresoquinone;2-Methyl-2,5-cyclohexadien-1,4-dione",
    "duplicated_cas_no": "",
    "SMILES": "CC=1C(=O)C=CC(=O)C1",
    "meta_data": {
        "InChI": "InChI=1S/C7H6O2/c1-5-4-6(8)2-3-7(5)9/h2-4H,1H3",
        "InChIKey": null,
        "Canonical SMILES": "O=C1C=CC(=O)C(=C1)C",
        "Molecular Formula": "C<sub>7</sub>H<sub>6</sub>O<sub>2</sub>",
        "Molecular Mass": "122.12",
        "Melting Point": "69 °C",
        "Density": "1.08 g/cm³ @ Temp: 75.5 °C"
    }
}