{
    "cas_no": "3809-32-3",
    "key_name": "2,5-Dimethylcyclohexanol",
    "cn_name": "2,5-二甲基环己醇;1-羟基-2,5-二甲基环己烷;",
    "alternate_name": "Cyclohexanol, 2,5-dimethyl-;2,5-Dimethylcyclohexanol;2,5-Dimethyl-1-cyclohexanol;NSC 62033",
    "duplicated_cas_no": "",
    "SMILES": "OC1C(C)CCC(C)C1",
    "meta_data": {
        "InChI": "InChI=1S/C8H16O/c1-6-3-4-7(2)8(9)5-6/h6-9H,3-5H2,1-2H3",
        "InChIKey": null,
        "Canonical SMILES": "OC1CC(C)CCC1C",
        "Molecular Formula": "C<sub>8</sub>H<sub>16</sub>O",
        "Molecular Mass": "128.21",
        "Boiling Point": "178.5 °C",
        "Density": "0.921 g/cm³ @ Temp: 0 °C"
    }
}