{
    "cas_no": "776-35-2",
    "key_name": "9,10-Dihydrophenanthrene",
    "cn_name": "9,10-二氢菲;9,10-二氢菲;9,10-二氫苯恩;",
    "alternate_name": "Phenanthrene, 9,10-dihydro-;9,10-Dihydrophenanthrene;NSC 60018",
    "duplicated_cas_no": "",
    "SMILES": "C1=2C=3C(CCC1=CC=CC2)=CC=CC3",
    "meta_data": {
        "InChI": "InChI=1S/C14H12/c1-3-7-13-11(5-1)9-10-12-6-2-4-8-14(12)13/h1-8H,9-10H2",
        "InChIKey": null,
        "Canonical SMILES": "C=1C=CC2=C(C1)C=3C=CC=CC3CC2",
        "Molecular Formula": "C<sub>14</sub>H<sub>12</sub>",
        "Molecular Mass": "180.25",
        "Boiling Point": "312-313 °C @ Press: 739 Torr",
        "Melting Point": "34.5 °C"
    }
}