{
    "cas_no": "50647-08-0",
    "key_name": "Prosapogenin (Ginseng)",
    "cn_name": "西洋参提取物;",
    "alternate_name": "Prosapogenin (Ginseng);Prosapogenin",
    "duplicated_cas_no": "",
    "SMILES": "",
    "meta_data": {
        "InChI": "",
        "InChIKey": null,
        "Canonical SMILES": "",
        "Molecular Formula": "Unspecified",
        "Molecular Mass": "",
        "Melting Point": "206-207 °C (decomp)"
    }
}