{
    "uri": "substance/pt/50647080",
    "rn": "50647-08-0",
    "name": "Prosapogenin (Ginseng)",
    "images": [],
    "inchi": "",
    "inchiKey": "",
    "smile": "",
    "canonicalSmile": "",
    "molecularFormula": "Unspecified",
    "molecularMass": "",
    "experimentalProperties": [
        {
            "name": "Melting Point",
            "property": "206-207 °C (decomp)",
            "sourceNumber": 1
        }
    ],
    "propertyCitations": [
        {
            "docUri": "document/pt/document/23202197",
            "sourceNumber": 1,
            "source": "Windaus, A.; Z. physiol. Chem., (1926), 160, 301-7, CAplus"
        }
    ],
    "synonyms": [
        "Prosapogenin (Ginseng)",
        "Prosapogenin"
    ],
    "replacedRns": [],
    "hasMolfile": false,
    "source": "https://commonchemistry.cas.org/detail?cas_rn=50647-08-0"
}