{
    "cas_no": "4801-58-5",
    "key_name": "1-Hydroxypiperidine",
    "cn_name": "N-羟基哌啶;",
    "alternate_name": "Piperidine, 1-hydroxy-;1-Hydroxypiperidine;<em>N</em>-Hydroxypiperidine;1-Piperidinol",
    "duplicated_cas_no": "",
    "SMILES": "ON1CCCCC1",
    "meta_data": {
        "InChI": "InChI=1S/C5H11NO/c7-6-4-2-1-3-5-6/h7H,1-5H2",
        "InChIKey": null,
        "Canonical SMILES": "ON1CCCCC1",
        "Molecular Formula": "C<sub>5</sub>H<sub>11</sub>NO",
        "Molecular Mass": "101.15",
        "Boiling Point": "146-148 °C @ Press: 1 Torr",
        "Melting Point": "39-40 °C"
    }
}