{
    "cas_no": "6638-05-7",
    "key_name": "4-Methylsyringol",
    "cn_name": "2,6-二甲氧基-4-甲基苯酚;2,6-二甲氧基-4-甲基苯酚;3,5-二甲氧基-4-羟基甲苯;",
    "alternate_name": "Phenol, 2,6-dimethoxy-4-methyl-;<em>p</em>-Cresol, 2,6-dimethoxy-;2,6-Dimethoxy-4-methylphenol;4-Hydroxy-3,5-dimethoxytoluene;4-Methyl-2,6-dimethoxyphenol;4-Methylsyringol;Methylsyringol;2,6-Dimethoxy-<em>p</em>-cresol;3,5-Dimethoxy-4-hydroxytoluene;1-Methyl-3,5-dimethoxy-4-hydroxybenzene;2,6-Dimethoxy-4-cresol;NSC 47901",
    "duplicated_cas_no": "",
    "SMILES": "O(C)C1=C(O)C(OC)=CC(C)=C1",
    "meta_data": {
        "InChI": "InChI=1S/C9H12O3/c1-6-4-7(11-2)9(10)8(5-6)12-3/h4-5,10H,1-3H3",
        "InChIKey": null,
        "Canonical SMILES": "OC1=C(OC)C=C(C=C1OC)C",
        "Molecular Formula": "C<sub>9</sub>H<sub>12</sub>O<sub>3</sub>",
        "Molecular Mass": "168.19",
        "Boiling Point": "&lt;100 °C @ Press: 0.2 Torr",
        "Melting Point": "41 °C"
    }
}