{
    "cas_no": "2105-61-5",
    "key_name": "1,2,4-Trifluoro-5-nitrobenzene",
    "cn_name": "2,4,5-三氟硝基苯;",
    "alternate_name": "Benzene, 1,2,4-trifluoro-5-nitro-;1,2,4-Trifluoro-5-nitrobenzene;2,4,5-Trifluoronitrobenzene;2,4,5-Trifluoro-1-nitrobenzene;5-Nitro-1,2,4-trifluorobenzene;NSC 10248",
    "duplicated_cas_no": "",
    "SMILES": "N(=O)(=O)C1=C(F)C=C(F)C(F)=C1",
    "meta_data": {
        "InChI": "InChI=1S/C6H2F3NO2/c7-3-1-5(9)6(10(11)12)2-4(3)8/h1-2H",
        "InChIKey": null,
        "Canonical SMILES": "O=N(=O)C1=CC(F)=C(F)C=C1F",
        "Molecular Formula": "C<sub>6</sub>H<sub>2</sub>F<sub>3</sub>NO<sub>2</sub>",
        "Molecular Mass": "177.08",
        "Boiling Point": "194.5 °C",
        "Melting Point": "-11 °C"
    }
}