{
    "cas_no": "10075-63-5",
    "key_name": "1,5-Dimethoxynaphthalene",
    "cn_name": "1,5-二甲氧基萘球;",
    "alternate_name": "Naphthalene, 1,5-dimethoxy-;1,5-Dimethoxynaphthalene;NSC 74554",
    "duplicated_cas_no": "",
    "SMILES": "O(C)C=1C2=C(C(OC)=CC=C2)C=CC1",
    "meta_data": {
        "InChI": "InChI=1S/C12H12O2/c1-13-11-7-3-6-10-9(11)5-4-8-12(10)14-2/h3-8H,1-2H3",
        "InChIKey": null,
        "Canonical SMILES": "O(C1=CC=CC=2C(OC)=CC=CC12)C",
        "Molecular Formula": "C<sub>12</sub>H<sub>12</sub>O<sub>2</sub>",
        "Molecular Mass": "188.22",
        "Boiling Point": "179 °C @ Press: 13 Torr",
        "Melting Point": "183-184 °C"
    }
}