{
    "cas_no": "870-73-5",
    "key_name": "Ethyl ethane(dithioate)",
    "cn_name": "二硫代乙酸乙酯;",
    "alternate_name": "Ethane(dithioic) acid, ethyl ester;Acetic acid, dithio-, ethyl ester;Ethyl ethane(dithioate);Ethyl dithioacetate;Thioacetylthioethane;1-(Ethylsulfanyl)ethane-1-thione",
    "duplicated_cas_no": "",
    "SMILES": "S(C(C)=S)CC",
    "meta_data": {
        "InChI": "InChI=1S/C4H8S2/c1-3-6-4(2)5/h3H2,1-2H3",
        "InChIKey": null,
        "Canonical SMILES": "S=C(SCC)C",
        "Molecular Formula": "C<sub>4</sub>H<sub>8</sub>S<sub>2</sub>",
        "Molecular Mass": "120.24",
        "Boiling Point": "128-132 °C",
        "Density": "0.9807 g/cm³ @ Temp: 28 °C"
    }
}