{
    "cas_no": "1127-99-7",
    "key_name": "Cyclohexanecarboxylic acid, 2-amino-, ethyl ester, hydrochloride (1:1), (1<em>R</em>,2<em>S</em>)-<em>rel</em>-",
    "cn_name": null,
    "alternate_name": "Cyclohexanecarboxylic acid, 2-amino-, ethyl ester, hydrochloride (1:1), (1<em>R</em>,2<em>S</em>)-<em>rel</em>-;Cyclohexanecarboxylic acid, 2-amino-, ethyl ester, hydrochloride, <em>cis</em>-;Cyclohexanecarboxylic acid, 2-amino-, ethyl ester, hydrochloride, (1<em>R</em>,2<em>S</em>)-<em>rel</em>-;Ethyl <em>cis</em>-2-aminocyclohexanecarboxylate hydrochloride;Ethyl <em>cis</em>-2-amino-1-cyclohexanecarboxylate hydrochloride",
    "duplicated_cas_no": "",
    "SMILES": "C(OCC)(=O)[C@H]1[C@@H](N)CCCC1.Cl",
    "meta_data": {
        "InChI": "InChI=1/C9H17NO2.ClH/c1-2-12-9(11)7-5-3-4-6-8(7)10;/h7-8H,2-6,10H2,1H3;1H/t7-,8+;/s2",
        "InChIKey": null,
        "Canonical SMILES": "Cl.O=C(OCC)C1CCCCC1N",
        "Molecular Formula": "C<sub>9</sub>H<sub>17</sub>NO<sub>2</sub>.ClH",
        "Molecular Mass": "",
        "Melting Point": "131-133 °C"
    }
}