{
    "cas_no": "62-99-7",
    "key_name": "6β-Hydroxytestosterone",
    "cn_name": "四(十八烷基)溴化铵;",
    "alternate_name": "Androst-4-en-3-one, 6,17-dihydroxy-, (6β,17β)-;Androst-4-en-3-one, 6β,17β-dihydroxy-;(6β,17β)-6,17-Dihydroxyandrost-4-en-3-one;6β-Hydroxytestosterone;4-Androstene-6β,17β-diol-3-one;6β,17β-Dihydroxy-4-androstene-3-one;6β,17β-Dihydroxyandrost-4-en-3-one;NSC 9721",
    "duplicated_cas_no": "",
    "SMILES": "C[C@@]12[C@@]3([C@]([C@]4([C@](C)(CC3)[C@@H](O)CC4)[H])(C[C@@H](O)C1=CC(=O)CC2)[H])[H]",
    "meta_data": {
        "InChI": "InChI=1S/C19H28O3/c1-18-7-5-11(20)9-15(18)16(21)10-12-13-3-4-17(22)19(13,2)8-6-14(12)18/h9,12-14,16-17,21-22H,3-8,10H2,1-2H3/t12-,13-,14-,16+,17-,18+,19-/m0/s1",
        "InChIKey": null,
        "Canonical SMILES": "O=C1C=C2C(O)CC3C(CCC4(C)C(O)CCC34)C2(C)CC1",
        "Molecular Formula": "C<sub>19</sub>H<sub>28</sub>O<sub>3</sub>",
        "Molecular Mass": "304.42",
        "Melting Point": "217-218 °C"
    }
}