{
    "cas_no": "56610-72-1",
    "key_name": "Diphenylmethyl 7β-amino-7α-methoxy-3-[[(1-methyl-1<em>H</em>-tetrazol-5-yl)thio]methyl]-3-cephem-4-carboxylate",
    "cn_name": "7beta-氨基-7alpha-甲氧基-3-(1-甲基-1H-四唑-5-硫甲基)-8-氧代-5-硫-1-杂氮双环[4.2.0]辛-2-烯-2-甲酸二苯;",
    "alternate_name": "5-Thia-1-azabicyclo[4.2.0]oct-2-ene-2-carboxylic acid, 7-amino-7-methoxy-3-[[(1-methyl-1<em>H</em>-tetrazol-5-yl)thio]methyl]-8-oxo-, diphenylmethyl ester, (6<em>R</em>,7<em>S</em>)-;5-Thia-1-azabicyclo[4.2.0]oct-2-ene-2-carboxylic acid, 7-amino-7-methoxy-3-[[(1-methyl-1<em>H</em>-tetrazol-5-yl)thio]methyl]-8-oxo-, diphenylmethyl ester, (6<em>R</em>-<em>cis</em>)-;Diphenylmethyl 7β-amino-7α-methoxy-3-[[(1-methyl-1<em>H</em>-tetrazol-5-yl)thio]methyl]-3-cephem-4-carboxylate",
    "duplicated_cas_no": "",
    "SMILES": "C(OC(C1=CC=CC=C1)C2=CC=CC=C2)(=O)C=3N4[C@@]([C@](OC)(N)C4=O)(SCC3CSC=5N(C)N=NN5)[H]",
    "meta_data": {
        "InChI": "InChI=1S/C24H24N6O4S2/c1-29-23(26-27-28-29)36-14-17-13-35-22-24(25,33-2)21(32)30(22)18(17)20(31)34-19(15-9-5-3-6-10-15)16-11-7-4-8-12-16/h3-12,19,22H,13-14,25H2,1-2H3/t22-,24+/m1/s1",
        "InChIKey": null,
        "Canonical SMILES": "O=C(OC(C=1C=CC=CC1)C=2C=CC=CC2)C3=C(CSC4=NN=NN4C)CSC5N3C(=O)C5(OC)N",
        "Molecular Formula": "C<sub>24</sub>H<sub>24</sub>N<sub>6</sub>O<sub>4</sub>S<sub>2</sub>",
        "Molecular Mass": "524.62",
        "Melting Point": "119.6-121.2 °C"
    }
}