{
    "cas_no": "693-80-1",
    "key_name": "Oleyl acetate",
    "cn_name": "油醇乙酸酯;",
    "alternate_name": "9-Octadecen-1-ol, 1-acetate, (9<em>Z</em>)-;9-Octadecen-1-ol, acetate, (<em>Z</em>)-;9-Octadecen-1-ol, acetate, (9<em>Z</em>)-;<em>cis</em>-9-Octadecen-1-yl acetate;<em>cis</em>-9-Octadecenyl acetate;(<em>Z</em>)-9-Octadecenyl acetate;Oleyl acetate;(Z)-9-Octadecenyl acetate",
    "duplicated_cas_no": "",
    "SMILES": "C(CC/C=C\\CCCCCCCC)CCCCCOC(C)=O",
    "meta_data": {
        "InChI": "InChI=1S/C20H38O2/c1-3-4-5-6-7-8-9-10-11-12-13-14-15-16-17-18-19-22-20(2)21/h10-11H,3-9,12-19H2,1-2H3/b11-10-",
        "InChIKey": null,
        "Canonical SMILES": "O=C(OCCCCCCCCC=CCCCCCCCC)C",
        "Molecular Formula": "C<sub>20</sub>H<sub>38</sub>O<sub>2</sub>",
        "Molecular Mass": "310.51",
        "Boiling Point": "217-220 °C @ Press: 15 Torr"
    }
}