{
    "cas_no": "155206-00-1",
    "key_name": "Bimatoprost",
    "cn_name": null,
    "alternate_name": "5-Heptenamide, 7-[(1<em>R</em>,2<em>R</em>,3<em>R</em>,5<em>S</em>)-3,5-dihydroxy-2-[(1<em>E</em>,3<em>S</em>)-3-hydroxy-5-phenyl-1-penten-1-yl]cyclopentyl]-<em>N</em>-ethyl-, (5<em>Z</em>)-;5-Heptenamide, 7-[3,5-dihydroxy-2-(3-hydroxy-5-phenyl-1-pentenyl)cyclopentyl]-<em>N</em>-ethyl-, [1<em>R</em>-[1α(<em>Z</em>),2β(1<em>E</em>,3<em>S</em>*),3α,5α]]-;5-Heptenamide, 7-[(1<em>R</em>,2<em>R</em>,3<em>R</em>,5<em>S</em>)-3,5-dihydroxy-2-[(1<em>E</em>,3<em>S</em>)-3-hydroxy-5-phenyl-1-pentenyl]cyclopentyl]-<em>N</em>-ethyl-, (5<em>Z</em>)-;(5<em>Z</em>)-7-[(1<em>R</em>,2<em>R</em>,3<em>R</em>,5<em>S</em>)-3,5-Dihydroxy-2-[(1<em>E</em>,3<em>S</em>)-3-hydroxy-5-phenyl-1-penten-1-yl]cyclopentyl]-<em>N</em>-ethyl-5-heptenamide;Bimatoprost;AGN 192024;Lumigan;Prostamide;Latisse;17-Phenyltrinor-PGF2α ethylamide",
    "duplicated_cas_no": "267244-98-4",
    "SMILES": "C(=C/[C@H](CCC1=CC=CC=C1)O)\\[C@@H]2[C@@H](C/C=C\\CCCC(NCC)=O)[C@@H](O)C[C@H]2O",
    "meta_data": {
        "InChI": "InChI=1S/C25H37NO4/c1-2-26-25(30)13-9-4-3-8-12-21-22(24(29)18-23(21)28)17-16-20(27)15-14-19-10-6-5-7-11-19/h3,5-8,10-11,16-17,20-24,27-29H,2,4,9,12-15,18H2,1H3,(H,26,30)/b8-3-,17-16+/t20-,21+,22+,23-,24+/m0/s1",
        "InChIKey": null,
        "Canonical SMILES": "O=C(NCC)CCCC=CCC1C(O)CC(O)C1C=CC(O)CCC=2C=CC=CC2",
        "Molecular Formula": "C<sub>25</sub>H<sub>37</sub>NO<sub>4</sub>",
        "Molecular Mass": "415.57",
        "Melting Point": "67-68 °C"
    }
}