{
    "cas_no": "804-36-4",
    "key_name": "Nitrovin",
    "cn_name": "硝呋烯腙;双(5-硝基呋喃亚甲基)丙酮丙脒腙;",
    "alternate_name": "Hydrazinecarboximidamide, 2-[3-(5-nitro-2-furanyl)-1-[2-(5-nitro-2-furanyl)ethenyl]-2-propen-1-ylidene]-;Guanidine, [[3-(5-nitro-2-furyl)-1-[2-(5-nitro-2-furyl)vinyl]allylidene]amino]-;Hydrazinecarboximidamide, 2-[3-(5-nitro-2-furanyl)-1-[2-(5-nitro-2-furanyl)ethenyl]-2-propenylidene]-;2-[3-(5-Nitro-2-furanyl)-1-[2-(5-nitro-2-furanyl)ethenyl]-2-propen-1-ylidene]hydrazinecarboximidamide;1,4-Pentadien-3-one, 1,5-bis(5-nitro-2-furanyl)-, (aminoiminomethyl)hydrazone;Nitrovin;Bis(5-nitro-2-furfurylidene)acetone guanylhydrazone;1,5-Bis(5-nitro-2-furyl)-3-pentadienone amidinohydrazone;Bis(5-nitrofurfurylidine)acetone guanylhydrazone;Difurazone;Biovin 40;2-(1,5-Bis(5-nitrofuran-2-yl)penta-1,4-dien-3-ylidene)hydrazinecarboximidamide",
    "duplicated_cas_no": "",
    "SMILES": "C(=CC(C=CC=1OC(N(=O)=O)=CC1)=NNC(=N)N)C=2OC(N(=O)=O)=CC2",
    "meta_data": {
        "InChI": "InChI=1S/C14H12N6O6/c15-14(16)18-17-9(1-3-10-5-7-12(25-10)19(21)22)2-4-11-6-8-13(26-11)20(23)24/h1-8H,(H4,15,16,18)",
        "InChIKey": null,
        "Canonical SMILES": "O=N(=O)C=1OC(C=CC(=NNC(=N)N)C=CC=2OC(=CC2)N(=O)=O)=CC1",
        "Molecular Formula": "C<sub>14</sub>H<sub>12</sub>N<sub>6</sub>O<sub>6</sub>",
        "Molecular Mass": "360.28",
        "Melting Point": "217 °C (decomp)"
    }
}