{
    "cas_no": "286-28-2",
    "key_name": "7-Thiabicyclo[4.1.0]heptane",
    "cn_name": "环己硫醚;环己硫醚;硫化环己烯;",
    "alternate_name": "7-Thiabicyclo[4.1.0]heptane;Cyclohexane, 1,2-epithio-;1,2-Cyclohexylene sulfide;Cyclohexene episulfide;Cyclohexene, sulfide;NSC 59716",
    "duplicated_cas_no": "",
    "SMILES": "C12C(S1)CCCC2",
    "meta_data": {
        "InChI": "InChI=1S/C6H10S/c1-2-4-6-5(3-1)7-6/h5-6H,1-4H2",
        "InChIKey": null,
        "Canonical SMILES": "S1C2CCCCC12",
        "Molecular Formula": "C<sub>6</sub>H<sub>10</sub>S",
        "Molecular Mass": "114.21",
        "Boiling Point": "67-68 °C @ Press: 16 Torr"
    }
}