{
    "cas_no": "152-97-6",
    "key_name": "Flucortolone",
    "cn_name": "氟可龙;",
    "alternate_name": "Pregna-1,4-diene-3,20-dione, 6-fluoro-11,21-dihydroxy-16-methyl-, (6α,11β,16α)-;Pregna-1,4-diene-3,20-dione, 6α-fluoro-11β,21-dihydroxy-16α-methyl-;(6α,11β,16α)-6-Fluoro-11,21-dihydroxy-16-methylpregna-1,4-diene-3,20-dione;SH 742;Flucortolone;Fluocortolon;Fluocortolone;6α-Fluoro-11β,21-dihydroxy-16α-methylpregna-1,4-diene-3,20-dione;6α-Fluoro-16α-methyl-Δ<sup>1</sup>-corticosterone;6α-Fluoro-16α-methyl-Δ<sup>1,4</sup>-pregnadiene-11β,21-diol-3,20-dione;6α-Fluoro-16α-methyl-1,4-pregnadiene-11β,21-diol-3,20-dione;16α-Methyl-6α-fluoro-Δ<sup>1,4</sup>-pregnadien-11β,21-diol-3,20-dione;Ultralan oral;MeSH ID: D005448",
    "duplicated_cas_no": "",
    "SMILES": "C[C@@]12[C@]([C@]3([C@@]([C@]4(C)C([C@@H](F)C3)=CC(=O)C=C4)([C@@H](O)C1)[H])[H])(C[C@@H](C)[C@@H]2C(CO)=O)[H]",
    "meta_data": {
        "InChI": "InChI=1S/C22H29FO4/c1-11-6-14-13-8-16(23)15-7-12(25)4-5-21(15,2)20(13)17(26)9-22(14,3)19(11)18(27)10-24/h4-5,7,11,13-14,16-17,19-20,24,26H,6,8-10H2,1-3H3/t11-,13+,14+,16+,17+,19-,20-,21+,22+/m1/s1",
        "InChIKey": null,
        "Canonical SMILES": "O=C1C=CC2(C(=C1)C(F)CC3C4CC(C)C(C(=O)CO)C4(C)CC(O)C32)C",
        "Molecular Formula": "C<sub>22</sub>H<sub>29</sub>FO<sub>4</sub>",
        "Molecular Mass": "376.46",
        "Melting Point": "188 °C"
    }
}