{
    "cas_no": "93-26-5",
    "key_name": "<em>N</em>-(2-Methoxyphenyl)acetamide",
    "cn_name": "2-乙酰氨基苯甲醚;邻甲氧基乙酰苯胺;",
    "alternate_name": "Acetamide, <em>N</em>-(2-methoxyphenyl)-;<em>o</em>-Acetanisidide;<em>N</em>-(2-Methoxyphenyl)acetamide;<em>o</em>-Methoxyacetanilide;2′-Methoxyacetanilide;<em>N</em>-Acetyl-<em>o</em>-anisidine;2-(Acetylamino)anisole;<em>N</em>-Acetyl-2-methoxyaniline;2-Acetamidoanisole;NSC 4004;2-<em>N</em>-Acetylaminomethoxybenzene",
    "duplicated_cas_no": "",
    "SMILES": "N(C(C)=O)C1=C(OC)C=CC=C1",
    "meta_data": {
        "InChI": "InChI=1S/C9H11NO2/c1-7(11)10-8-5-3-4-6-9(8)12-2/h3-6H,1-2H3,(H,10,11)",
        "InChIKey": null,
        "Canonical SMILES": "O=C(NC=1C=CC=CC1OC)C",
        "Molecular Formula": "C<sub>9</sub>H<sub>11</sub>NO<sub>2</sub>",
        "Molecular Mass": "165.19",
        "Boiling Point": "304 °C",
        "Melting Point": "87.5 °C"
    }
}