{
    "cas_no": "17700-54-8",
    "key_name": "<em>N</em>-(2,6-Dichlorophenyl)acetamide",
    "cn_name": "2,6-二氯乙酰苯胺;",
    "alternate_name": "Acetamide, <em>N</em>-(2,6-dichlorophenyl)-;Acetanilide, 2′,6′-dichloro-;<em>N</em>-(2,6-Dichlorophenyl)acetamide;2′,6′-Dichloroacetanilide;<em>N</em>-Acetyl-2,6-dichloroaniline;NSC 158653",
    "duplicated_cas_no": "",
    "SMILES": "N(C(C)=O)C1=C(Cl)C=CC=C1Cl",
    "meta_data": {
        "InChI": "InChI=1S/C8H7Cl2NO/c1-5(12)11-8-6(9)3-2-4-7(8)10/h2-4H,1H3,(H,11,12)",
        "InChIKey": null,
        "Canonical SMILES": "O=C(NC=1C(Cl)=CC=CC1Cl)C",
        "Molecular Formula": "C<sub>8</sub>H<sub>7</sub>Cl<sub>2</sub>NO",
        "Molecular Mass": "204.05",
        "Melting Point": "169-173 °C"
    }
}