{
    "cas_no": "27578-60-5",
    "key_name": "1-Piperidineethanamine",
    "cn_name": "1-(2-氨乙基)哌啶;",
    "alternate_name": "1-Piperidineethanamine;Piperidine, 1-(2-aminoethyl)-;1-(2-Aminoethyl)piperidine;2-Piperidinoethylamine;<em>N</em>-Aminoethylpiperidine;2-(1-Piperidinyl)ethylamine;<em>N</em>-(2-Aminoethyl)piperidine;Piperidinoethylamine;2-Piperidino-1-ethanamine;NSC 54993;2-Piperidin-1-ylethanamine;<em>N</em>-(2-Aminethyl)piperidine;2-(1-Piperidyl)ethanamine;2-(Piperidin-1-yl)ethan-1-amine",
    "duplicated_cas_no": "",
    "SMILES": "C(CN)N1CCCCC1",
    "meta_data": {
        "InChI": "InChI=1S/C7H16N2/c8-4-7-9-5-2-1-3-6-9/h1-8H2",
        "InChIKey": null,
        "Canonical SMILES": "NCCN1CCCCC1",
        "Molecular Formula": "C<sub>7</sub>H<sub>16</sub>N<sub>2</sub>",
        "Molecular Mass": "128.22",
        "Boiling Point": "65-70 °C @ Press: 10 Torr",
        "Melting Point": "67-70 °C"
    }
}