{
    "cas_no": "1119-85-3",
    "key_name": "3-Hexenedinitrile",
    "cn_name": "1,4-二氰基-2-丁烯;1,4-二氰基-2-丁烯;",
    "alternate_name": "3-Hexenedinitrile;β-Hydromucononitrile;1,4-Dicyano-2-butene;NSC 11685",
    "duplicated_cas_no": "",
    "SMILES": "C(=CCC#N)CC#N",
    "meta_data": {
        "InChI": "InChI=1S/C6H6N2/c7-5-3-1-2-4-6-8/h1-2H,3-4H2",
        "InChIKey": null,
        "Canonical SMILES": "N#CCC=CCC#N",
        "Molecular Formula": "C<sub>6</sub>H<sub>6</sub>N<sub>2</sub>",
        "Molecular Mass": "106.13",
        "Boiling Point": "135-140 °C @ Press: 3 Torr",
        "Melting Point": "74-76 °C"
    }
}