{
    "cas_no": "92-49-9",
    "key_name": "<em>N</em>-(2-Chloroethyl)-<em>N</em>-ethylbenzenamine",
    "cn_name": "N-乙基-N-氯乙基苯胺;",
    "alternate_name": "Benzenamine, <em>N</em>-(2-chloroethyl)-<em>N</em>-ethyl-;Aniline, <em>N</em>-(2-chloroethyl)-<em>N</em>-ethyl-;<em>N</em>-(2-Chloroethyl)-<em>N</em>-ethylbenzenamine;<em>N</em>-(2-Chloroethyl)-<em>N</em>-ethylaniline;Ethyl(chloroethyl)aniline;<em>N</em>-Ethyl-<em>N</em>-(2-chloroethyl)aniline;2-(<em>N</em>-Ethylanilino)ethyl chloride",
    "duplicated_cas_no": "",
    "SMILES": "N(CCCl)(CC)C1=CC=CC=C1",
    "meta_data": {
        "InChI": "InChI=1S/C10H14ClN/c1-2-12(9-8-11)10-6-4-3-5-7-10/h3-7H,2,8-9H2,1H3",
        "InChIKey": null,
        "Canonical SMILES": "ClCCN(C=1C=CC=CC1)CC",
        "Molecular Formula": "C<sub>10</sub>H<sub>14</sub>ClN",
        "Molecular Mass": "183.68",
        "Boiling Point": "251-253 °C",
        "Melting Point": "45.5-46.5 °C"
    }
}