{
    "cas_no": "87-83-2",
    "key_name": "Pentabromotoluene",
    "cn_name": "五溴甲苯;",
    "alternate_name": "Benzene, 1,2,3,4,5-pentabromo-6-methyl-;Toluene, 2,3,4,5,6-pentabromo-;Benzene, pentabromomethyl-;1,2,3,4,5-Pentabromo-6-methylbenzene;Flammex 5BT;Pentabromotoluene;2,3,4,5,6-Pentabromotoluene;Pentabromomethylbenzene;2,3,4,5,6-Pentabromomethylbenzene;PBT (flame retardant);PBT",
    "duplicated_cas_no": "26101-97-3",
    "SMILES": "BrC1=C(Br)C(Br)=C(C)C(Br)=C1Br",
    "meta_data": {
        "InChI": "InChI=1S/C7H3Br5/c1-2-3(8)5(10)7(12)6(11)4(2)9/h1H3",
        "InChIKey": null,
        "Canonical SMILES": "BrC=1C(Br)=C(Br)C(=C(Br)C1Br)C",
        "Molecular Formula": "C<sub>7</sub>H<sub>3</sub>Br<sub>5</sub>",
        "Molecular Mass": "486.62",
        "Melting Point": "288 °C"
    }
}