{
    "cas_no": "10433-06-4",
    "key_name": "Antimony ethoxide",
    "cn_name": "乙氧化锑;乙醇锑;",
    "alternate_name": "Ethanol, antimony(3+) salt;Antimonic acid (H<sub>3</sub>SbO<sub>3</sub>), triethyl ester;Ethyl antimonate(III);Triethoxyantimony;Antimony triethoxide;Antimony ethoxide;Triethyl antimonite;Triethoxystibine;Ethyl antimonite;Antimony(III) ethoxide;Ethyl antimonite ((EtO)<sub>3</sub>Sb);Stibine, triethoxy-",
    "duplicated_cas_no": "99703-11-4;873376-62-6",
    "SMILES": "C(C)O.[Sb]",
    "meta_data": {
        "InChI": "InChI=1S/C2H6O.Sb/c1-2-3;/h3H,2H2,1H3;",
        "InChIKey": null,
        "Canonical SMILES": "[Sb].OCC",
        "Molecular Formula": "C<sub>2</sub>H<sub>6</sub>O.<sup>1</sup>/<sub>3</sub>Sb",
        "Molecular Mass": "",
        "Boiling Point": "71-73 °C @ Press: 0.5 Torr",
        "Density": "1.524 g/cm³"
    }
}