{
    "cas_no": "698-87-3",
    "key_name": "1-Phenyl-2-propanol",
    "cn_name": "(±)-1-苯基-2-丙醇;",
    "alternate_name": "Benzeneethanol, α-methyl-;Phenethyl alcohol, α-methyl-;α-Methylbenzeneethanol;Benzyl methyl carbinol;1-Phenyl-2-propanol;2-Propanol, 1-phenyl-;α-Methylphenethyl alcohol;2-Hydroxy-1-phenylpropane;3-Phenyl-2-propanol;(±)-α-Methylbenzeneethanol;(±)-α-Methylphenethyl alcohol;(±)-1-Phenylpropan-2-ol;3-Phenyl-2-hydroxypropane;NSC 53553;Benzylethyl alcohol",
    "duplicated_cas_no": "14898-87-4",
    "SMILES": "C(C(C)O)C1=CC=CC=C1",
    "meta_data": {
        "InChI": "InChI=1S/C9H12O/c1-8(10)7-9-5-3-2-4-6-9/h2-6,8,10H,7H2,1H3",
        "InChIKey": null,
        "Canonical SMILES": "OC(C)CC=1C=CC=CC1",
        "Molecular Formula": "C<sub>9</sub>H<sub>12</sub>O",
        "Molecular Mass": "136.19",
        "Boiling Point": "205-207 °C",
        "Melting Point": "65-67 °C",
        "Density": "0.9988 g/cm³ @ Temp: 14.5 °C"
    }
}