{
    "cas_no": "523-31-9",
    "key_name": "Benzyl phthalate",
    "cn_name": "邻苯二甲酸二苄酯;酞酸二苄酯;苯二甲酸二苄酯;苯二甲酸苄酯;邻苯二甲酸苄酯;1,2-苯二甲酸双(苯甲基)酯;",
    "alternate_name": "1,2-Benzenedicarboxylic acid, 1,2-bis(phenylmethyl) ester;Phthalic acid, dibenzyl ester;1,2-Benzenedicarboxylic acid, bis(phenylmethyl) ester;Benzyl phthalate;Dibenzyl phthalate;NSC 4057",
    "duplicated_cas_no": "",
    "SMILES": "C(OCC1=CC=CC=C1)(=O)C2=C(C(OCC3=CC=CC=C3)=O)C=CC=C2",
    "meta_data": {
        "InChI": "InChI=1S/C22H18O4/c23-21(25-15-17-9-3-1-4-10-17)19-13-7-8-14-20(19)22(24)26-16-18-11-5-2-6-12-18/h1-14H,15-16H2",
        "InChIKey": null,
        "Canonical SMILES": "O=C(OCC=1C=CC=CC1)C=2C=CC=CC2C(=O)OCC=3C=CC=CC3",
        "Molecular Formula": "C<sub>22</sub>H<sub>18</sub>O<sub>4</sub>",
        "Molecular Mass": "346.38",
        "Boiling Point": "280 °C @ Press: 12 Torr",
        "Melting Point": "44 °C"
    }
}