{
    "cas_no": "10415-87-9",
    "key_name": "α-Ethyl-α-methylbenzenepropanol",
    "cn_name": "3-甲基-1-苯基-3-戊醇;",
    "alternate_name": "Benzenepropanol, α-ethyl-α-methyl-;3-Pentanol, 3-methyl-1-phenyl-;α-Ethyl-α-methylbenzenepropanol;Phenylethyl(ethyl)methyl carbinol;Phenethylmethylethylcarbinol;3-Methyl-1-phenyl-3-pentanol;3-Methyl-5-phenyl-3-pentanol;(±)-5-Phenyl-3-methyl-3-pentanol;(±)-3-Methyl-1-phenyl-3-pentanol;1-Phenyl-3-methyl-3-pentanol;NSC 60568;Ethyl methyl β-phenylethyl carbinol;(2-Phenylethyl)methylethylcarbinol",
    "duplicated_cas_no": "7321-45-1",
    "SMILES": "C(CC(CC)(C)O)C1=CC=CC=C1",
    "meta_data": {
        "InChI": "InChI=1S/C12H18O/c1-3-12(2,13)10-9-11-7-5-4-6-8-11/h4-8,13H,3,9-10H2,1-2H3",
        "InChIKey": null,
        "Canonical SMILES": "OC(C)(CC)CCC=1C=CC=CC1",
        "Molecular Formula": "C<sub>12</sub>H<sub>18</sub>O",
        "Molecular Mass": "178.27",
        "Melting Point": "3 °C",
        "Density": "0.9552 g/cm³ @ Temp: 20 °C"
    }
}