{
    "cas_no": "16870-28-3",
    "key_name": "2-Hydroxy-4-iodobenzoic acid",
    "cn_name": null,
    "alternate_name": "Benzoic acid, 2-hydroxy-4-iodo-;Salicylic acid, 4-iodo-;2-Hydroxy-4-iodobenzoic acid;4-Iodosalicylic acid;2-Hydroxy-4-iodobenzenecarboxylic acid;NSC 109096",
    "duplicated_cas_no": "",
    "SMILES": "C(O)(=O)C1=C(O)C=C(I)C=C1",
    "meta_data": {
        "InChI": "InChI=1S/C7H5IO3/c8-4-1-2-5(7(10)11)6(9)3-4/h1-3,9H,(H,10,11)",
        "InChIKey": null,
        "Canonical SMILES": "O=C(O)C1=CC=C(I)C=C1O",
        "Molecular Formula": "C<sub>7</sub>H<sub>5</sub>IO<sub>3</sub>",
        "Molecular Mass": "264.02",
        "Melting Point": "230 °C"
    }
}