{
    "cas_no": "134568-16-4",
    "key_name": "Methyl β-oxo-2-thiophenepropanoate",
    "cn_name": null,
    "alternate_name": "2-Thiophenepropanoic acid, β-oxo-, methyl ester;Methyl β-oxo-2-thiophenepropanoate;Methyl 3-oxo-3-(2-thienyl)propanoate;Methyl 3-(2-thienyl)-3-oxopropanoate;3-Oxo-3-thiophen-2-yl-propionic acid methyl ester",
    "duplicated_cas_no": "",
    "SMILES": "C(CC(OC)=O)(=O)C1=CC=CS1",
    "meta_data": {
        "InChI": "InChI=1S/C8H8O3S/c1-11-8(10)5-6(9)7-3-2-4-12-7/h2-4H,5H2,1H3",
        "InChIKey": null,
        "Canonical SMILES": "O=C(OC)CC(=O)C=1SC=CC1",
        "Molecular Formula": "C<sub>8</sub>H<sub>8</sub>O<sub>3</sub>S",
        "Molecular Mass": "184.21",
        "Boiling Point": "133-134 °C @ Press: 3 Torr"
    }
}