{
    "cas_no": "63234-80-0",
    "key_name": "3-(2-Chloroethyl)-6,7,8,9-tetrahydro-2-methyl-4<em>H</em>-pyrido[1,2-<em>a</em>]pyrimidin-4-one",
    "cn_name": null,
    "alternate_name": "4<em>H</em>-Pyrido[1,2-<em>a</em>]pyrimidin-4-one, 3-(2-chloroethyl)-6,7,8,9-tetrahydro-2-methyl-;3-(2-Chloroethyl)-6,7,8,9-tetrahydro-2-methyl-4<em>H</em>-pyrido[1,2-<em>a</em>]pyrimidin-4-one;3-(2-Chloroethyl)-2-methyl-6,7,8,9-tetrahydro-4<em>H</em>-pyrido[1,2-<em>a</em>]pyrimidin-4-one",
    "duplicated_cas_no": "",
    "SMILES": "O=C1N2C(=NC(C)=C1CCCl)CCCC2",
    "meta_data": {
        "InChI": "InChI=1S/C11H15ClN2O/c1-8-9(5-6-12)11(15)14-7-3-2-4-10(14)13-8/h2-7H2,1H3",
        "InChIKey": null,
        "Canonical SMILES": "O=C1C(=C(N=C2N1CCCC2)C)CCCl",
        "Molecular Formula": "C<sub>11</sub>H<sub>15</sub>ClN<sub>2</sub>O",
        "Molecular Mass": "226.70",
        "Melting Point": "68.5-69.5 °C"
    }
}