{
    "cas_no": "1120-12-3",
    "key_name": "9-Aminononanoic acid",
    "cn_name": "氨基壬酸;氨基壬酸;",
    "alternate_name": "Nonanoic acid, 9-amino-;9-Aminononanoic acid;9-Aminopelargonic acid;Aminopelargonic acid",
    "duplicated_cas_no": "",
    "SMILES": "C(CCCCCN)CCC(O)=O",
    "meta_data": {
        "InChI": "InChI=1S/C9H19NO2/c10-8-6-4-2-1-3-5-7-9(11)12/h1-8,10H2,(H,11,12)",
        "InChIKey": null,
        "Canonical SMILES": "O=C(O)CCCCCCCCN",
        "Molecular Formula": "C<sub>9</sub>H<sub>19</sub>NO<sub>2</sub>",
        "Molecular Mass": "173.25",
        "Melting Point": "115-118 °C"
    }
}