{
    "cas_no": "20845-34-5",
    "key_name": "1-Methyl-2-piperidinemethanol",
    "cn_name": "1-甲基-2-哌啶甲醇;",
    "alternate_name": "2-Piperidinemethanol, 1-methyl-;1-Methyl-2-piperidinemethanol;2-Hydroxymethyl-<em>N</em>-methylpiperidine;(1-Methyl-2-piperidyl)methanol;<em>N</em>-Methyl-2-piperidinemethanol;(±)-2-Hydroxymethyl-1-methylpiperidine;(1-Methylpiperidin-2-yl)methanol;2-Hydroxymethyl-1-methylpiperidine;NSC 45464;1-Methyl-2-(hydroxymethyl)piperidine",
    "duplicated_cas_no": "2563-85-1",
    "SMILES": "C(O)C1N(C)CCCC1",
    "meta_data": {
        "InChI": "InChI=1S/C7H15NO/c1-8-5-3-2-4-7(8)6-9/h7,9H,2-6H2,1H3",
        "InChIKey": null,
        "Canonical SMILES": "OCC1N(C)CCCC1",
        "Molecular Formula": "C<sub>7</sub>H<sub>15</sub>NO",
        "Molecular Mass": "129.20",
        "Boiling Point": "96-98 °C @ Press: 19 Torr"
    }
}