{
    "cas_no": "421-83-0",
    "key_name": "Trifluoromethanesulfonyl chloride",
    "cn_name": "三氟甲磺酰氯;",
    "alternate_name": "Methanesulfonyl chloride, trifluoro-;Trifluoromethanesulfonyl chloride;Trifluoromethylsulfonyl chloride;Triflyl chloride;Trifluoromethylsulfuryl chloride",
    "duplicated_cas_no": "",
    "SMILES": "C(S(Cl)(=O)=O)(F)(F)F",
    "meta_data": {
        "InChI": "InChI=1S/CClF3O2S/c2-8(6,7)1(3,4)5",
        "InChIKey": null,
        "Canonical SMILES": "O=S(=O)(Cl)C(F)(F)F",
        "Molecular Formula": "CClF<sub>3</sub>O<sub>2</sub>S",
        "Molecular Mass": "168.52",
        "Boiling Point": "30.5 °C",
        "Melting Point": "-26 °C"
    }
}