{
    "cas_no": "98-30-6",
    "key_name": "2-Amino-4-(methylsulfonyl)phenol",
    "cn_name": "2-氨基-4-甲砜基苯酚;",
    "alternate_name": "Phenol, 2-amino-4-(methylsulfonyl)-;2-Amino-4-(methylsulfonyl)phenol;4-Methylsulfonyl-2-aminophenol;2-Hydroxy-5-methylsulfonylaniline;3-Amino-4-hydroxyphenyl methyl sulfone;2-Amino-4-(methanesulfonyl)phenol",
    "duplicated_cas_no": "",
    "SMILES": "S(C)(=O)(=O)C1=CC(N)=C(O)C=C1",
    "meta_data": {
        "InChI": "InChI=1S/C7H9NO3S/c1-12(10,11)5-2-3-7(9)6(8)4-5/h2-4,9H,8H2,1H3",
        "InChIKey": null,
        "Canonical SMILES": "O=S(=O)(C1=CC=C(O)C(N)=C1)C",
        "Molecular Formula": "C<sub>7</sub>H<sub>9</sub>NO<sub>3</sub>S",
        "Molecular Mass": "187.22",
        "Melting Point": "153-154 °C"
    }
}