{
    "cas_no": "506-93-4",
    "key_name": "Guanidine nitrate",
    "cn_name": null,
    "alternate_name": "Guanidine, nitrate (1:1);Guanidine, mononitrate;Guanidine nitrate;Guanidinium nitrate;NSC 7295",
    "duplicated_cas_no": "6609-93-4;24011-90-3;2648835-87-2;2733504-07-7",
    "SMILES": "N(=O)(=O)O.C(=N)(N)N",
    "meta_data": {
        "InChI": "InChI=1S/CH5N3.HNO3/c2*2-1(3)4/h(H5,2,3,4);(H,2,3,4)",
        "InChIKey": null,
        "Canonical SMILES": "O=N(=O)O.N=C(N)N",
        "Molecular Formula": "CH<sub>5</sub>N<sub>3</sub>.HNO<sub>3</sub>",
        "Molecular Mass": "",
        "Melting Point": "214 °C",
        "Density": "1.44 g/cm³"
    }
}