{
    "cas_no": "7199-29-3",
    "key_name": "Cyheptamide",
    "cn_name": "环庚米特;环庚米特;",
    "alternate_name": "5<em>H</em>-Dibenzo[<em>a</em>,<em>d</em>]cycloheptene-5-carboxamide, 10,11-dihydro-;10,11-Dihydro-5<em>H</em>-dibenzo[<em>a</em>,<em>d</em>]cycloheptene-5-carboxamide;AY 8682;Cyheptamide;BS 7029;ICI 51426;Carbamazepam;10,11-Dihydro-5<em>H</em>-dibenzo[<em>a</em>,<em>d</em>][7]annulene-5-carboxamide",
    "duplicated_cas_no": "",
    "SMILES": "C(N)(=O)C1C=2C(=CC=CC2)CCC=3C1=CC=CC3",
    "meta_data": {
        "InChI": "InChI=1S/C16H15NO/c17-16(18)15-13-7-3-1-5-11(13)9-10-12-6-2-4-8-14(12)15/h1-8,15H,9-10H2,(H2,17,18)",
        "InChIKey": null,
        "Canonical SMILES": "O=C(N)C1C=2C=CC=CC2CCC=3C=CC=CC31",
        "Molecular Formula": "C<sub>16</sub>H<sub>15</sub>NO",
        "Molecular Mass": "237.30",
        "Melting Point": "193.5 °C"
    }
}