{
    "cas_no": "96-29-7",
    "key_name": "Methyl ethyl ketoxime",
    "cn_name": "甲乙酮肟;丁酮肟;",
    "alternate_name": "2-Butanone, oxime;Methyl ethyl ketoxime;MEK-oxime;Ethyl methyl ketoxime;Methyl ethyl ketone oxime;Ethyl methyl ketone oxime;2-Butoxime;Aron M 1;Exkin II;Exkin 2;Mekor 70;NSC 442;NSC 65465;Troykyd AntiSkin B;Hiaron M 1;Borchinox M 2;KL 841;Butoxime;MSDS;Skino 2",
    "duplicated_cas_no": "105287-28-3;2115045-28-6",
    "SMILES": "C(CC)(=NO)C",
    "meta_data": {
        "InChI": "InChI=1S/C4H9NO/c1-3-4(2)5-6/h6H,3H2,1-2H3",
        "InChIKey": null,
        "Canonical SMILES": "ON=C(C)CC",
        "Molecular Formula": "C<sub>4</sub>H<sub>9</sub>NO",
        "Molecular Mass": "87.12",
        "Boiling Point": "152.5 °C",
        "Melting Point": "-29.5 °C",
        "Density": "0.9232 g/cm³ @ Temp: 80 °C"
    }
}