{
    "cas_no": "5195-29-9",
    "key_name": "4-Bromophenylglyoxal",
    "cn_name": null,
    "alternate_name": "Benzeneacetaldehyde, 4-bromo-α-oxo-;Glyoxal, (<em>p</em>-bromophenyl)-;4-Bromo-α-oxobenzeneacetaldehyde;4-Bromophenylglyoxal;(<em>p</em>-Bromophenyl)glyoxal;NSC 32251;2-(4-Bromophenyl)-2-oxoacetaldehyde;(4-Bromophenyl)(oxo)acetaldehyde;(4-Bromo-phenyl)-oxo-acetaldehyde",
    "duplicated_cas_no": "",
    "SMILES": "C(C=O)(=O)C1=CC=C(Br)C=C1",
    "meta_data": {
        "InChI": "InChI=1S/C8H5BrO2/c9-7-3-1-6(2-4-7)8(11)5-10/h1-5H",
        "InChIKey": null,
        "Canonical SMILES": "O=CC(=O)C1=CC=C(Br)C=C1",
        "Molecular Formula": "C<sub>8</sub>H<sub>5</sub>BrO<sub>2</sub>",
        "Molecular Mass": "213.03",
        "Boiling Point": "135-142 °C @ Press: 17 Torr",
        "Melting Point": "51-53 °C"
    }
}