{
    "cas_no": "13821-20-0",
    "key_name": "Aluminate(3-), hexafluoro-, lithium (1:3), (<em>OC</em>-6-11)-",
    "cn_name": "六氟铝酸锂;",
    "alternate_name": "Aluminate(3-), hexafluoro-, lithium (1:3), (<em>OC</em>-6-11)-;Aluminate(3-), hexafluoro-, trilithium;Aluminate(3-), hexafluoro-, trilithium, (<em>OC</em>-6-11)-;Lithium hexafluoroaluminate;Trilithium hexafluoroaluminate;Trilithium hexafluoroaluminum(3-);Lithium hexafluoroaluminate(3-);Aluminum lithium fluoride (AlLi<sub>3</sub>F<sub>6</sub>);Aluminum lithium fluoride (AlLi<sub>3</sub>F<sub>4</sub>)",
    "duplicated_cas_no": "1869948-23-1;2077127-22-9;2428630-13-9",
    "SMILES": "[Al+3]([F-])([F-])([F-])([F-])([F-])[F-].[Li+]",
    "meta_data": {
        "InChI": "InChI=1S/Al.6FH.3Li/h;6*1H;;;/q+3;;;;;;;3*+1/p-6",
        "InChIKey": null,
        "Canonical SMILES": "[Li+].[F-][Al+3]([F-])([F-])([F-])([F-])[F-]",
        "Molecular Formula": "AlF<sub>6</sub>.3Li",
        "Molecular Mass": "",
        "Melting Point": "785 °C"
    }
}