{
    "cas_no": "21860-07-1",
    "key_name": "Benzoic acid, 3-acetyl-, methyl ester",
    "cn_name": null,
    "alternate_name": "Benzoic acid, 3-acetyl-, methyl ester;Benzoic acid, <em>m</em>-acetyl-, methyl ester;Methyl 3-acetylbenzoate;Methyl <em>m</em>-acetylbenzoate;3-Acetylbenzoic acid methyl ester",
    "duplicated_cas_no": "",
    "SMILES": "C(OC)(=O)C1=CC(C(C)=O)=CC=C1",
    "meta_data": {
        "InChI": "InChI=1S/C10H10O3/c1-7(11)8-4-3-5-9(6-8)10(12)13-2/h3-6H,1-2H3",
        "InChIKey": null,
        "Canonical SMILES": "O=C(OC)C1=CC=CC(=C1)C(=O)C",
        "Molecular Formula": "C<sub>10</sub>H<sub>10</sub>O<sub>3</sub>",
        "Molecular Mass": "178.18",
        "Melting Point": "43-45 °C"
    }
}