{
    "cas_no": "1677-44-7",
    "key_name": "4-Hydroxy-6-methyl-2-quinolone",
    "cn_name": null,
    "alternate_name": "2(1<em>H</em>)-Quinolinone, 4-hydroxy-6-methyl-;Carbostyril, 4-hydroxy-6-methyl-;4-Hydroxy-6-methyl-2(1<em>H</em>)-quinolinone;4-Hydroxy-6-methylcarbostyril;6-Methyl-2,4-dihydroxyquinoline;6-Methyl-2,4-quinolinediol;2,4-Dihydroxy-6-methylquinoline;4-Hydroxy-6-methyl-2-quinolone;4-Hydroxy-6-methylquinolin-2(1<em>H</em>)-one",
    "duplicated_cas_no": "",
    "SMILES": "OC=1C=2C(NC(=O)C1)=CC=C(C)C2",
    "meta_data": {
        "InChI": "InChI=1S/C10H9NO2/c1-6-2-3-8-7(4-6)9(12)5-10(13)11-8/h2-5H,1H3,(H2,11,12,13)",
        "InChIKey": null,
        "Canonical SMILES": "O=C1C=C(O)C=2C=C(C=CC2N1)C",
        "Molecular Formula": "C<sub>10</sub>H<sub>9</sub>NO<sub>2</sub>",
        "Molecular Mass": "175.18",
        "Melting Point": "342 °C"
    }
}