{
    "cas_no": "3978-80-1",
    "key_name": "BOC-<span class=\"text-smallcaps\">L</span>-tyrosine",
    "cn_name": "N-Boc-L-酪氨酸;N-叔丁氧羰基-L-酪氨酸;",
    "alternate_name": "<span class=\"text-smallcaps\">L</span>-Tyrosine, <em>N</em>-[(1,1-dimethylethoxy)carbonyl]-;Tyrosine, <em>N</em>-carboxy-, <em>N</em>-<em>tert</em>-butyl ester, <span class=\"text-smallcaps\">L</span>-;Tyrosine, <em>N</em>-carboxy-, <em>N</em>-<em>tert</em>-butyl ester;<em>N</em>-[(1,1-Dimethylethoxy)carbonyl]-<span class=\"text-smallcaps\">L</span>-tyrosine;<em>N</em>-<em>tert</em>-Butoxycarbonyl-<span class=\"text-smallcaps\">L</span>-tyrosine;<em>N</em>-(<em>tert</em>-Butoxycarbonyl)tyrosine;<em>N</em>-(<em>tert</em>-Butyloxycarbonyl)-<span class=\"text-smallcaps\">L</span>-tyrosine;BOC-<span class=\"text-smallcaps\">L</span>-tyrosine;<em>tert</em>-Butoxycarbonyl-<span class=\"text-smallcaps\">L</span>-tyrosine;<em>N</em>-Boc-<span class=\"text-smallcaps\">L</span>-tyrosine;(2S)-2-[(<em>tert</em>-Butoxycarbonyl)amino]-3-(4-hydroxyphenyl)propanoic acid;NSC 334307;(2<em>S</em>)-2-[(<em>tert</em>-Butoxycarbonyl)amino]-3-(4-hydroxyphenyl)propanoic acid;(2S)-3-(4-Hydroxyphenyl)-2-[(2-methylpropan-2-yl)oxycarbonylamino]propanoic acid;(<em>S</em>)-2-((<em>tert</em>-Butoxycarbonyl)amino]-3-(4-hydroxyphenyl)propanoic acid",
    "duplicated_cas_no": "23449-94-7;2909532-80-3",
    "SMILES": "C([C@H](NC(OC(C)(C)C)=O)C(O)=O)C1=CC=C(O)C=C1",
    "meta_data": {
        "InChI": "InChI=1S/C14H19NO5/c1-14(2,3)20-13(19)15-11(12(17)18)8-9-4-6-10(16)7-5-9/h4-7,11,16H,8H2,1-3H3,(H,15,19)(H,17,18)/t11-/m0/s1",
        "InChIKey": null,
        "Canonical SMILES": "O=C(OC(C)(C)C)NC(C(=O)O)CC1=CC=C(O)C=C1",
        "Molecular Formula": "C<sub>14</sub>H<sub>19</sub>NO<sub>5</sub>",
        "Molecular Mass": "281.30",
        "Melting Point": "138-139 °C"
    }
}