{
    "cas_no": "20716-98-7",
    "key_name": "Norlichexanthone",
    "cn_name": null,
    "alternate_name": "9<em>H</em>-Xanthen-9-one, 1,3,6-trihydroxy-8-methyl-;Xanthen-9-one, 1,3,6-trihydroxy-8-methyl-;1,3,6-Trihydroxy-8-methyl-9<em>H</em>-xanthen-9-one;Norlichexanthone;3,6,8-Trihydroxy-1-methyl-9<em>H</em>-xanthen-9-one;1,3,6-Trihydroxy-8-methylxanthone;Fusarindin;3,6,8-Trihydroxy-1-methylxanthone",
    "duplicated_cas_no": "",
    "SMILES": "O=C1C=2C(OC=3C1=C(O)C=C(O)C3)=CC(O)=CC2C",
    "meta_data": {
        "InChI": "InChI=1S/C14H10O5/c1-6-2-7(15)4-10-12(6)14(18)13-9(17)3-8(16)5-11(13)19-10/h2-5,15-17H,1H3",
        "InChIKey": null,
        "Canonical SMILES": "O=C1C=2C(O)=CC(O)=CC2OC3=CC(O)=CC(=C13)C",
        "Molecular Formula": "C<sub>14</sub>H<sub>10</sub>O<sub>5</sub>",
        "Molecular Mass": "258.23",
        "Melting Point": "226-228 °C"
    }
}