{
    "cas_no": "15492-51-0",
    "key_name": "(<em>OC</em>-6-11)-Tris(2,2,6,6-tetramethyl-3,5-heptanedionato-κ<em>O</em><sup>3</sup>,κ<em>O</em><sup>5</sup>)terbium",
    "cn_name": null,
    "alternate_name": "Terbium, tris(2,2,6,6-tetramethyl-3,5-heptanedionato-κ<em>O</em><sup>3</sup>,κ<em>O</em><sup>5</sup>)-, (<em>OC</em>-6-11)-;Terbium, tris(2,2,6,6-tetramethyl-3,5-heptanedionato)-;Terbium, tris(2,2,6,6-tetramethyl-3,5-heptanedionato-<em>O</em>,<em>O</em>′)-, (<em>OC</em>-6-11)-;Terbium, tris(2,2,6,6-tetramethyl-3,5-heptanedionato-κ<em>O</em>,κ<em>O</em>′)-, (<em>OC</em>-6-11)-;3,5-Heptanedione, 2,2,6,6-tetramethyl-, terbium complex;(<em>OC</em>-6-11)-Tris(2,2,6,6-tetramethyl-3,5-heptanedionato-κ<em>O</em><sup>3</sup>,κ<em>O</em><sup>5</sup>)terbium;Tris(dipivaloylmethanato)terbium;Tris(2,2,6,6-tetramethyl-3,5-heptanedionato)terbium;Terbium, tris(2,2,6,6-tetramethylhepta-3,5-dionato)-;Terbium tris(tetramethylheptanedionate);NSC 174886",
    "duplicated_cas_no": "22898-22-2;272785-65-6",
    "SMILES": "C(C)(C)(C)C1=O[Tb+3]23(O=C(C(C)(C)C)[CH-]C(C(C)(C)C)=O2)(O=C(C(C)(C)C)[CH-]C(C(C)(C)C)=O3)O=C(C(C)(C)C)[CH-]1",
    "meta_data": {
        "InChI": "InChI=1S/3C11H19O2.Tb/c3*1-10(2,3)8(12)7-9(13)11(4,5)6;/h3*7H,1-6H3;/q3*-1;+3",
        "InChIKey": null,
        "Canonical SMILES": "O1=C([CH-]C(=O[Tb+3]123(O=C([CH-]C(=O2)C(C)(C)C)C(C)(C)C)O=C([CH-]C(=O3)C(C)(C)C)C(C)(C)C)C(C)(C)C)C(C)(C)C",
        "Molecular Formula": "C<sub>33</sub>H<sub>57</sub>O<sub>6</sub>Tb",
        "Molecular Mass": "",
        "Melting Point": "180 °C"
    }
}