{
    "cas_no": "922-63-4",
    "key_name": "Ethylacrolein",
    "cn_name": "2-乙基丙烯醛;",
    "alternate_name": "Butanal, 2-methylene-;Butyraldehyde, 2-methylene-;2-Methylenebutanal;Ethylacrolein;α-Ethylacrolein;2-Ethyl-2-propenal;Ethacrolein;α-Ethylacrylaldehyde;2-Ethylacrolein;2-Ethylpropenal;2-Formyl-1-butene;2-Methylenebutyraldehyde;2-Methylidenebutanal",
    "duplicated_cas_no": "",
    "SMILES": "C(CC)(C=O)=C",
    "meta_data": {
        "InChI": "InChI=1S/C5H8O/c1-3-5(2)4-6/h4H,2-3H2,1H3",
        "InChIKey": null,
        "Canonical SMILES": "O=CC(=C)CC",
        "Molecular Formula": "C<sub>5</sub>H<sub>8</sub>O",
        "Molecular Mass": "84.12",
        "Boiling Point": "92.5 °C",
        "Density": "0.849 g/cm³ @ Temp: 20 °C"
    }
}