{
    "cas_no": "53947-92-5",
    "key_name": "3-(2,2-Dimethyl-2<em>H</em>-1-benzopyran-6-yl)-7-hydroxy-4<em>H</em>-1-benzopyran-4-one",
    "cn_name": null,
    "alternate_name": "4<em>H</em>-1-Benzopyran-4-one, 3-(2,2-dimethyl-2<em>H</em>-1-benzopyran-6-yl)-7-hydroxy-;3-(2,2-Dimethyl-2<em>H</em>-1-benzopyran-6-yl)-7-hydroxy-4<em>H</em>-1-benzopyran-4-one;Corylin",
    "duplicated_cas_no": "",
    "SMILES": "O=C1C(=COC=2C1=CC=C(O)C2)C=3C=C4C(=CC3)OC(C)(C)C=C4",
    "meta_data": {
        "InChI": "InChI=1S/C20H16O4/c1-20(2)8-7-13-9-12(3-6-17(13)24-20)16-11-23-18-10-14(21)4-5-15(18)19(16)22/h3-11,21H,1-2H3",
        "InChIKey": null,
        "Canonical SMILES": "O=C1C(=COC2=CC(O)=CC=C21)C=3C=CC=4OC(C=CC4C3)(C)C",
        "Molecular Formula": "C<sub>20</sub>H<sub>16</sub>O<sub>4</sub>",
        "Molecular Mass": "320.34",
        "Melting Point": "238-239 °C"
    }
}