{
    "cas_no": "25245-33-4",
    "key_name": "1-Iodo-2,3-dimethoxybenzene",
    "cn_name": "1-吲哚-2,3-二甲氧基苯;",
    "alternate_name": "Benzene, 1-iodo-2,3-dimethoxy-;1-Iodo-2,3-dimethoxybenzene;3-Iodoveratrole;2,3-Dimethoxy-1-iodobenzene;2,3-Dimethoxyiodobenzene",
    "duplicated_cas_no": "",
    "SMILES": "O(C)C1=C(OC)C(I)=CC=C1",
    "meta_data": {
        "InChI": "InChI=1S/C8H9IO2/c1-10-7-5-3-4-6(9)8(7)11-2/h3-5H,1-2H3",
        "InChIKey": null,
        "Canonical SMILES": "IC1=CC=CC(OC)=C1OC",
        "Molecular Formula": "C<sub>8</sub>H<sub>9</sub>IO<sub>2</sub>",
        "Molecular Mass": "264.06",
        "Boiling Point": "124-125 °C @ Press: 4 Torr",
        "Melting Point": "45-46 °C",
        "Density": "1.7831 g/cm³ @ Temp: 20 °C"
    }
}