{
    "cas_no": "13422-51-0",
    "key_name": "Hydroxocobalamin",
    "cn_name": "羟钴胺;维生素B12b;",
    "alternate_name": "Cobinamide, <em>Co</em>-hydroxy-, <em>f</em>-(dihydrogen phosphate), inner salt, 3′-ester with (5,6-dimethyl-1-α-<span class=\"text-smallcaps\">D</span>-ribofuranosyl-1<em>H</em>-benzimidazole-κ<em>N</em><sup>3</sup>);Cobinamide, dihydroxide, dihydrogen phosphate (ester), mono(inner salt), 3′-ester with 5,6-dimethyl-1-α-<span class=\"text-smallcaps\">D</span>-ribofuranosylbenzimidazole;Cobinamide, dihydroxide, dihydrogen phosphate (ester), mono(inner salt), 3′-ester with 5,6-dimethyl-1-α-<span class=\"text-smallcaps\">D</span>-ribofuranosyl-1<em>H</em>-benzimidazole;Hydroxocobalamin;Vitamin B<sub>12a</sub>;Hydroxycobalamin;Hydroxycobalamine;Hydroxocobalamine;Vibeden;Cobinamide hydroxide phosphate 3′-ester with 5,6-dimethyl-1-α-<span class=\"text-smallcaps\">D</span>-ribofuranosylbenzimidazole inner salt;α-(5,6-Dimethylbenzimidazolyl)hydroxocobamide;Hydroxocobemine;Alpha Cobione;Axlon;Ciplamin H;Cobalex;Docclan;Docevita;Duradoce;Duralta-12;Hydrogrisevit;Hydrovit;Hyxobamine;Idrogrisevit;Neo-Cytamen;Neo-Macrabin;Neo-Rojamin;OH-Duphar;Oxobemin;AlphaRedisol;Vitadurin;Primabalt RP;Hydroxy vitamin B<sub>12</sub>;Cobalamin, hydroxo-;Hydrocobalamin;Redisol H;Docelan;Codroxomin;Ducobee Hy;Droxomin;Cobalin H;Sytobex H;Neo-Betalin 12;Megamilbedoce;Cyanokit;Depovit B12;MeSH ID: D006879",
    "duplicated_cas_no": "8017-22-9",
    "SMILES": "[OH-][Co+3]1234[N]=5C6(C)C7[N-]1C(C(C)(C7CC(N)=O)CCC(=O)NCC(C)OP(=O)([O-])OC8C(O)C(N9C=[N]2C=%10C9=CC(C)=C(C)C%10)OC8CO)=C(C)C%11=[N]3C(=CC%12=[N]4C(=C(C)C5C(CCC(N)=O)C6(CC(N)=O)C)C(CC(N)=O)(C)C%12CCC(N)=O)C(C)(C)C%11CCC(N)=O",
    "meta_data": {
        "InChI": "InChI=1S/C62H90N13O14P.Co.H2O/c1-29-20-39-40(21-30(29)2)75(28-70-39)57-52(84)53(41(27-76)87-57)89-90(85,86)88-31(3)26-69-49(83)18-19-59(8)37(22-46(66)80)56-62(11)61(10,25-48(68)82)36(14-17-45(65)79)51(74-62)33(5)55-60(9,24-47(67)81)34(12-15-43(63)77)38(71-55)23-42-58(6,7)35(13-16-44(64)78)50(72-42)32(4)54(59)73-56;;/h20-21,23,28,31,34-37,41,52-53,56-57,76,84H,12-19,22,24-27H2,1-11H3,(H15,63,64,65,66,67,68,69,71,72,73,74,77,78,79,80,81,82,83,85,86);;1H2/q;+3;/p-3",
        "InChIKey": null,
        "Canonical SMILES": "O=C(N)CCC1C=2C=C3[N]4=C(C(=C5[N-]6C7C(CC(=O)N)C5(C)CCC(=O)NCC(OP(=O)([O-])OC8C(O)C(OC8CO)N9C=[N](C=%10C=C(C(=CC%109)C)C)[Co+3]4%116([OH-])[N]2C(=C(C%12=[N]%11C7(C)C(C)(CC(=O)N)C%12CCC(=O)N)C)C1(C)CC(=O)N)C)C)C(CCC(=O)N)C3(C)C",
        "Molecular Formula": "C<sub>62</sub>H<sub>89</sub>CoN<sub>13</sub>O<sub>15</sub>P",
        "Molecular Mass": "",
        "Melting Point": "&gt;300 °C"
    }
}