{
    "cas_no": "18419-53-9",
    "key_name": "1,1′-(Chloroethenylsilylene)bis[benzene]",
    "cn_name": null,
    "alternate_name": "Benzene, 1,1′-(chloroethenylsilylene)bis-;Silane, chlorodiphenylvinyl-;Silane, chloroethenyldiphenyl-;1,1′-(Chloroethenylsilylene)bis[benzene];Chlorodiphenylvinylsilane;Diphenyl(vinyl)silyl chloride;Vinyldiphenylchlorosilane;NSC 139835;Diphenyl(vinyl)chlorosilane",
    "duplicated_cas_no": "",
    "SMILES": "[Si](C=C)(Cl)(C1=CC=CC=C1)C2=CC=CC=C2",
    "meta_data": {
        "InChI": "InChI=1S/C14H13ClSi/c1-2-16(15,13-9-5-3-6-10-13)14-11-7-4-8-12-14/h2-12H,1H2",
        "InChIKey": null,
        "Canonical SMILES": "Cl[Si](C=C)(C=1C=CC=CC1)C=2C=CC=CC2",
        "Molecular Formula": "C<sub>14</sub>H<sub>13</sub>ClSi",
        "Molecular Mass": "244.79",
        "Boiling Point": "125 °C @ Press: 0.5 Torr",
        "Density": "1.104 g/cm³"
    }
}