{
    "cas_no": "2893-05-2",
    "key_name": "3-Methyl-1-phenyl-2-butanone",
    "cn_name": "3-甲基-1-苯基-2-丁酮;3-甲基-1-苯基-2-丁酮,96%;",
    "alternate_name": "2-Butanone, 3-methyl-1-phenyl-;3-Methyl-1-phenyl-2-butanone;Isopropylbenzyl ketone;Benzyl isopropyl ketone;1-Phenyl-3-methyl-2-butanone;NSC 406926",
    "duplicated_cas_no": "",
    "SMILES": "C(C(C(C)C)=O)C1=CC=CC=C1",
    "meta_data": {
        "InChI": "InChI=1S/C11H14O/c1-9(2)11(12)8-10-6-4-3-5-7-10/h3-7,9H,8H2,1-2H3",
        "InChIKey": null,
        "Canonical SMILES": "O=C(CC=1C=CC=CC1)C(C)C",
        "Molecular Formula": "C<sub>11</sub>H<sub>14</sub>O",
        "Molecular Mass": "162.23",
        "Boiling Point": "237 °C @ Press: 760 Torr",
        "Density": "0.985 g/cm³ @ Temp: 40 °C"
    }
}