{
    "cas_no": "628-55-7",
    "key_name": "Isobutyl ether",
    "cn_name": null,
    "alternate_name": "Propane, 1,1′-oxybis[2-methyl-;Isobutyl ether;1,1′-Oxybis[2-methylpropane];Diisobutyl ether;Di-2-butyl ether;2-Methyl-1-(2-methylpropoxy)propane",
    "duplicated_cas_no": "",
    "SMILES": "O(CC(C)C)CC(C)C",
    "meta_data": {
        "InChI": "InChI=1S/C8H18O/c1-7(2)5-9-6-8(3)4/h7-8H,5-6H2,1-4H3",
        "InChIKey": null,
        "Canonical SMILES": "O(CC(C)C)CC(C)C",
        "Molecular Formula": "C<sub>8</sub>H<sub>18</sub>O",
        "Molecular Mass": "130.23",
        "Boiling Point": "123 °C",
        "Melting Point": "-82.76 °C"
    }
}