{
    "cas_no": "60-33-3",
    "key_name": "Linoleic acid",
    "cn_name": "亚油酸;亚麻酸;亚麻油酸;十八碳-9,12,15-三烯酸;",
    "alternate_name": "9,12-Octadecadienoic acid (9<em>Z</em>,12<em>Z</em>)-;Linoleic acid;9,12-Octadecadienoic acid (<em>Z</em>,<em>Z</em>)-;(9<em>Z</em>,12<em>Z</em>)-9,12-Octadecadienoic acid;9<em>Z</em>,12<em>Z</em>-Linoleic acid;<em>cis</em>-9,<em>cis</em>-12-Octadecadienoic acid;Polylin 515;<em>cis</em>,<em>cis</em>-Linoleic acid;Unifac 6550;Linolic acid;9,12-Octadecadienoic acid, (<em>Z</em>,<em>Z</em>)-;(<em>Z</em>,<em>Z</em>)-9,12-Octadecadienoic acid;<em>cis</em>-Δ<sup>9,12</sup>-Octadecadienoic acid;C18:2;α-Linoleic acid;9-<em>cis</em>,12-<em>cis</em>-Linoleic acid;<em>all</em>-<em>cis</em>-9,12-Octadecadienoic acid;Emersol 315;Extra Linoleic 90;9<em>Z</em>,12<em>Z</em>-Octadecadienoic acid;Ronacare ASC 3;CA 1726;(9Z,12Z)-Octadec-9,12-dienoic acid;9,12-Octadecanoic acid;LAD 180-6;MeSH ID: D019787",
    "duplicated_cas_no": "949900-18-9",
    "SMILES": "C(C/C=C\\C/C=C\\CCCCC)CCCCCC(O)=O",
    "meta_data": {
        "InChI": "InChI=1S/C18H32O2/c1-2-3-4-5-6-7-8-9-10-11-12-13-14-15-16-17-18(19)20/h6-7,9-10H,2-5,8,11-17H2,1H3,(H,19,20)/b7-6-,10-9-",
        "InChIKey": null,
        "Canonical SMILES": "O=C(O)CCCCCCCC=CCC=CCCCCC",
        "Molecular Formula": "C<sub>18</sub>H<sub>32</sub>O<sub>2</sub>",
        "Molecular Mass": "280.45",
        "Boiling Point": "365.2 °C",
        "Melting Point": "-12 °C",
        "Density": "0.9022 g/cm³ @ Temp: 20 °C"
    }
}