{
    "cas_no": "39232-91-2",
    "key_name": "(3-Methoxyphenyl)hydrazine hydrochloride",
    "cn_name": "3-甲氧基苯肼盐酸;",
    "alternate_name": "Hydrazine, (3-methoxyphenyl)-, hydrochloride (1:1);Hydrazine, (3-methoxyphenyl)-, monohydrochloride;Hydrazine, (<em>m</em>-methoxyphenyl)-, hydrochloride;<em>m</em>-Methoxyphenylhydrazine hydrochloride;(3-Methoxyphenyl)hydrazine hydrochloride;[3-(Methyloxy)phenyl]hydrazine monohydrochloride;(3-Methoxyphenyl)hydrazine monohydrochloride",
    "duplicated_cas_no": "",
    "SMILES": "N(N)C1=CC(OC)=CC=C1.Cl",
    "meta_data": {
        "InChI": "InChI=1S/C7H10N2O.ClH/c1-10-7-4-2-3-6(5-7)9-8;/h2-5,9H,8H2,1H3;1H",
        "InChIKey": null,
        "Canonical SMILES": "Cl.O(C1=CC=CC(=C1)NN)C",
        "Molecular Formula": "C<sub>7</sub>H<sub>10</sub>N<sub>2</sub>O.ClH",
        "Molecular Mass": "",
        "Melting Point": "140-141 °C"
    }
}