{
    "cas_no": "30752-19-3",
    "key_name": "1-Bromo-4-(hexyloxy)benzene",
    "cn_name": "4-正己氧基溴苯;",
    "alternate_name": "Benzene, 1-bromo-4-(hexyloxy)-;Ether, <em>p</em>-bromophenyl hexyl;1-Bromo-4-(hexyloxy)benzene;<em>p</em>-(Hexyloxy)bromobenzene;<em>p</em>-Bromophenyl hexyl ether;4-Hexyloxybromobenzene;4-Hexyloxybenzene bromide;1-Bromo-4-hexoxybenzene;1-Bromo-4-<em>n</em>-hexyloxybenzene;1-(4-Bromophenoxy)hexane",
    "duplicated_cas_no": "",
    "SMILES": "O(CCCCCC)C1=CC=C(Br)C=C1",
    "meta_data": {
        "InChI": "InChI=1S/C12H17BrO/c1-2-3-4-5-10-14-12-8-6-11(13)7-9-12/h6-9H,2-5,10H2,1H3",
        "InChIKey": null,
        "Canonical SMILES": "BrC1=CC=C(OCCCCCC)C=C1",
        "Molecular Formula": "C<sub>12</sub>H<sub>17</sub>BrO",
        "Molecular Mass": "257.17",
        "Boiling Point": "140-143 °C @ Press: 5 Torr"
    }
}