{
    "cas_no": "273399-95-4",
    "key_name": "6-Chloro-1<em>H</em>-benzimidazole-2-methanamine",
    "cn_name": "1-(6-氯-1H-苯并咪唑-2-基)甲胺;",
    "alternate_name": "1<em>H</em>-Benzimidazole-2-methanamine, 6-chloro-;1<em>H</em>-Benzimidazole-2-methanamine, 5-chloro-;6-Chloro-1<em>H</em>-benzimidazole-2-methanamine;[(6-Chloro-1<em>H</em>-benzimidazol-2-yl)methyl]amine;(5-Chloro-1<em>H</em>-benzimidazol-2-yl)aminomethane;2-(Aminomethyl)-5-chlorobenzimidazole;(5-Chloro-1<em>H</em>-benzimidazol-2-yl)methylamine;(5-Chloro-1<em>H</em>-1,3-benzodiazol-2-yl)methanamine;(6-Chloro-1<em>H</em>-1,3-benzodiazol-2-yl)methanamine",
    "duplicated_cas_no": "",
    "SMILES": "C(N)C=1NC=2C(N1)=CC(Cl)=CC2",
    "meta_data": {
        "InChI": "InChI=1S/C8H8ClN3/c9-5-1-2-6-7(3-5)12-8(4-10)11-6/h1-3H,4,10H2,(H,11,12)",
        "InChIKey": null,
        "Canonical SMILES": "ClC=1C=CC=2NC(=NC2C1)CN",
        "Molecular Formula": "C<sub>8</sub>H<sub>8</sub>ClN<sub>3</sub>",
        "Molecular Mass": "181.62",
        "Melting Point": "252-254 °C"
    }
}