{
    "cas_no": "143314-17-4",
    "key_name": "1-Ethyl-3-methylimidazolium acetate",
    "cn_name": null,
    "alternate_name": "1<em>H</em>-Imidazolium, 3-ethyl-1-methyl-, acetate (1:1);1<em>H</em>-Imidazolium, 1-ethyl-3-methyl-, acetate;1-Ethyl-3-methylimidazolium acetate;3-Ethyl-1-methylimidazolium acetate;LM 1132;1-Methyl-3-ethylimidazolium acetate;Basionics BC 01;1-Ethyl-3-methylimidazolium ethanoate;A 04875",
    "duplicated_cas_no": "2813874-75-6",
    "SMILES": "C(C)[N+]1=CN(C)C=C1.C(C)([O-])=O",
    "meta_data": {
        "InChI": "InChI=1S/C6H11N2.C2H4O2/c1-3-8-5-4-7(2)6-8;1-2(3)4/h4-6H,3H2,1-2H3;1H3,(H,3,4)/q+1;/p-1",
        "InChIKey": null,
        "Canonical SMILES": "O=C([O-])C.C1=C[N+](=CN1C)CC",
        "Molecular Formula": "C<sub>6</sub>H<sub>11</sub>N<sub>2</sub>.C<sub>2</sub>H<sub>3</sub>O<sub>2</sub>",
        "Molecular Mass": "",
        "Melting Point": "&lt;-20 °C",
        "Density": "1.059 g/cm³ @ Temp: 100.00 °C"
    }
}