{
    "cas_no": "3508-00-7",
    "key_name": "1-Bromoheptadecane",
    "cn_name": "1-溴十七烷;七烷基溴化;",
    "alternate_name": "Heptadecane, 1-bromo-;1-Bromoheptadecane;<em>n</em>-Heptadecyl bromide;NSC 103682;Heptadecyl bromide",
    "duplicated_cas_no": "",
    "SMILES": "C(CCCCCCCCC)CCCCCCCBr",
    "meta_data": {
        "InChI": "InChI=1S/C17H35Br/c1-2-3-4-5-6-7-8-9-10-11-12-13-14-15-16-17-18/h2-17H2,1H3",
        "InChIKey": null,
        "Canonical SMILES": "BrCCCCCCCCCCCCCCCCC",
        "Molecular Formula": "C<sub>17</sub>H<sub>35</sub>Br",
        "Molecular Mass": "319.36",
        "Boiling Point": "349 °C",
        "Melting Point": "32 °C"
    }
}