{
    "cas_no": "110-39-4",
    "key_name": "Octyl butyrate",
    "cn_name": "丁酸辛酯;",
    "alternate_name": "Butanoic acid, octyl ester;Butyric acid, octyl ester;Octyl butyrate;<em>n</em>-Octyl butyrate;<em>n</em>-Octyl <em>n</em>-butyrate;Octyl butanoate;1-Octyl butyrate;NSC 72032;Caprylyl butyrate",
    "duplicated_cas_no": "",
    "SMILES": "O(CCCCCCCC)C(CCC)=O",
    "meta_data": {
        "InChI": "InChI=1S/C12H24O2/c1-3-5-6-7-8-9-11-14-12(13)10-4-2/h3-11H2,1-2H3",
        "InChIKey": null,
        "Canonical SMILES": "O=C(OCCCCCCCC)CCC",
        "Molecular Formula": "C<sub>12</sub>H<sub>24</sub>O<sub>2</sub>",
        "Molecular Mass": "200.32",
        "Boiling Point": "244.1 °C",
        "Melting Point": "-55.6 °C"
    }
}