{
    "cas_no": "2216-33-3",
    "key_name": "3-Methyloctane",
    "cn_name": "3-甲基辛烷;3-甲基辛烷;",
    "alternate_name": "Octane, 3-methyl-;3-Methyloctane;NSC 23689;(±)-3-Methyloctane",
    "duplicated_cas_no": "",
    "SMILES": "C(CCCCC)(CC)C",
    "meta_data": {
        "InChI": "InChI=1S/C9H20/c1-4-6-7-8-9(3)5-2/h9H,4-8H2,1-3H3",
        "InChIKey": null,
        "Canonical SMILES": "CCCCCC(C)CC",
        "Molecular Formula": "C<sub>9</sub>H<sub>20</sub>",
        "Molecular Mass": "128.26",
        "Boiling Point": "144.2 °C",
        "Melting Point": "-107.6 °C",
        "Density": "0.714 g/cm³ @ Temp: 27 °C"
    }
}