{
    "cas_no": "170449-18-0",
    "key_name": "6,7-Dimethoxy-4-[<em>N</em>-(3-chlorophenyl)amino]quinazoline hydrochloride",
    "cn_name": null,
    "alternate_name": "4-Quinazolinamine, <em>N</em>-(3-chlorophenyl)-6,7-dimethoxy-, hydrochloride (1:1);4-Quinazolinamine, <em>N</em>-(3-chlorophenyl)-6,7-dimethoxy-, monohydrochloride;6,7-Dimethoxy-4-[<em>N</em>-(3-chlorophenyl)amino]quinazoline hydrochloride",
    "duplicated_cas_no": "",
    "SMILES": "N(C=1C2=C(C=C(OC)C(OC)=C2)N=CN1)C3=CC(Cl)=CC=C3.Cl",
    "meta_data": {
        "InChI": "InChI=1S/C16H14ClN3O2.ClH/c1-21-14-7-12-13(8-15(14)22-2)18-9-19-16(12)20-11-5-3-4-10(17)6-11;/h3-9H,1-2H3,(H,18,19,20);1H",
        "InChIKey": null,
        "Canonical SMILES": "Cl.ClC1=CC=CC(=C1)NC=2N=CN=C3C=C(OC)C(OC)=CC32",
        "Molecular Formula": "C<sub>16</sub>H<sub>14</sub>ClN<sub>3</sub>O<sub>2</sub>.ClH",
        "Molecular Mass": "",
        "Melting Point": "230-235 °C"
    }
}