{
    "cas_no": "4021-34-5",
    "key_name": "5-Methoxy-<em>N</em>,<em>N</em>-diisopropyltryptamine",
    "cn_name": "5-甲氧基-N,N-二异丙基色胺;5-甲氧基-N,N-二异丙基-1H-吲哚-3-乙胺;",
    "alternate_name": "1<em>H</em>-Indole-3-ethanamine, 5-methoxy-<em>N</em>,<em>N</em>-bis(1-methylethyl)-;Indole, 3-[2-(diisopropylamino)ethyl]-5-methoxy-;5-Methoxy-<em>N</em>,<em>N</em>-bis(1-methylethyl)-1<em>H</em>-indole-3-ethanamine;5-Methoxy-<em>N</em>,<em>N</em>-diisopropyltryptamine;<em>N</em>,<em>N</em>-Diisopropyl-5-methoxytryptamine;3-[2-(Diisopropylamino)ethyl]-5-methoxyindole",
    "duplicated_cas_no": "",
    "SMILES": "C(CN(C(C)C)C(C)C)C=1C=2C(NC1)=CC=C(OC)C2",
    "meta_data": {
        "InChI": "InChI=1S/C17H26N2O/c1-12(2)19(13(3)4)9-8-14-11-18-17-7-6-15(20-5)10-16(14)17/h6-7,10-13,18H,8-9H2,1-5H3",
        "InChIKey": null,
        "Canonical SMILES": "O(C=1C=CC=2NC=C(C2C1)CCN(C(C)C)C(C)C)C",
        "Molecular Formula": "C<sub>17</sub>H<sub>26</sub>N<sub>2</sub>O",
        "Molecular Mass": "274.40",
        "Melting Point": "181-186 °C"
    }
}