{
    "cas_no": "90729-42-3",
    "key_name": "Carebastine",
    "cn_name": null,
    "alternate_name": "Benzeneacetic acid, 4-[4-[4-(diphenylmethoxy)-1-piperidinyl]-1-oxobutyl]-α,α-dimethyl-;4-[4-[4-(Diphenylmethoxy)-1-piperidinyl]-1-oxobutyl]-α,α-dimethylbenzeneacetic acid;Carebastine;2-(4-(4-(4-(Benzhydryloxy)piperidin-1-yl)-butanoyl)phenyl)-2-methylpropanoic acid",
    "duplicated_cas_no": "",
    "SMILES": "C(OC1CCN(CCCC(=O)C2=CC=C(C(C(O)=O)(C)C)C=C2)CC1)(C3=CC=CC=C3)C4=CC=CC=C4",
    "meta_data": {
        "InChI": "InChI=1S/C32H37NO4/c1-32(2,31(35)36)27-17-15-24(16-18-27)29(34)14-9-21-33-22-19-28(20-23-33)37-30(25-10-5-3-6-11-25)26-12-7-4-8-13-26/h3-8,10-13,15-18,28,30H,9,14,19-23H2,1-2H3,(H,35,36)",
        "InChIKey": null,
        "Canonical SMILES": "O=C(O)C(C1=CC=C(C=C1)C(=O)CCCN2CCC(OC(C=3C=CC=CC3)C=4C=CC=CC4)CC2)(C)C",
        "Molecular Formula": "C<sub>32</sub>H<sub>37</sub>NO<sub>4</sub>",
        "Molecular Mass": "499.64",
        "Melting Point": "173-175 °C"
    }
}