{
    "cas_no": "22441-21-0",
    "key_name": "Bis(2,3,4,5,6-pentachlorophenyl) disulfide",
    "cn_name": null,
    "alternate_name": "Disulfide, bis(2,3,4,5,6-pentachlorophenyl);Disulfide, bis(pentachlorophenyl);Bis(2,3,4,5,6-pentachlorophenyl) disulfide;Bis(pentachlorophenyl) disulfide;Perchlorodiphenyl disulfide",
    "duplicated_cas_no": "",
    "SMILES": "S(SC1=C(Cl)C(Cl)=C(Cl)C(Cl)=C1Cl)C2=C(Cl)C(Cl)=C(Cl)C(Cl)=C2Cl",
    "meta_data": {
        "InChI": "InChI=1S/C12Cl10S2/c13-1-3(15)7(19)11(8(20)4(1)16)23-24-12-9(21)5(17)2(14)6(18)10(12)22",
        "InChIKey": null,
        "Canonical SMILES": "ClC=1C(Cl)=C(Cl)C(SSC=2C(Cl)=C(Cl)C(Cl)=C(Cl)C2Cl)=C(Cl)C1Cl",
        "Molecular Formula": "C<sub>12</sub>Cl<sub>10</sub>S<sub>2</sub>",
        "Molecular Mass": "562.79",
        "Melting Point": "237 °C"
    }
}