{
    "cas_no": "19186-35-7",
    "key_name": "(-)-Deoxypodophyllotoxin",
    "cn_name": null,
    "alternate_name": "Furo[3′,4′:6,7]naphtho[2,3-<em>d</em>]-1,3-dioxol-6(5a<em>H</em>)-one, 5,8,8a,9-tetrahydro-5-(3,4,5-trimethoxyphenyl)-, (5<em>R</em>,5a<em>R</em>,8a<em>R</em>)-;Podophyllotoxin, deoxy-;Furo[3′,4′:6,7]naphtho[2,3-<em>d</em>]-1,3-dioxol-6(5a<em>H</em>)-one, 5,8,8a,9-tetrahydro-5-(3,4,5-trimethoxyphenyl)-, [5<em>R</em>-(5α,5aβ,8aα)]-;(5<em>R</em>,5a<em>R</em>,8a<em>R</em>)-5,8,8a,9-Tetrahydro-5-(3,4,5-trimethoxyphenyl)furo[3′,4′:6,7]naphtho[2,3-<em>d</em>]-1,3-dioxol-6(5a<em>H</em>)-one;Deoxypodophyllotoxin;Desoxypodophyllotoxin;Anthricin;Silicicolin;4-Deoxypodophyllotoxin;(-)-Deoxypodophyllotoxin;(-)-Anthricin;AS 2-3;(-)-Desoxypodophyllotoxin",
    "duplicated_cas_no": "518-30-9;1836-86-8;24150-31-0;75805-80-0",
    "SMILES": "O=C1[C@@]2([C@@H](C=3C(C[C@]2(CO1)[H])=CC4=C(C3)OCO4)C5=CC(OC)=C(OC)C(OC)=C5)[H]",
    "meta_data": {
        "InChI": "InChI=1S/C22H22O7/c1-24-17-6-12(7-18(25-2)21(17)26-3)19-14-8-16-15(28-10-29-16)5-11(14)4-13-9-27-22(23)20(13)19/h5-8,13,19-20H,4,9-10H2,1-3H3/t13-,19+,20-/m0/s1",
        "InChIKey": null,
        "Canonical SMILES": "O=C1OCC2CC3=CC=4OCOC4C=C3C(C5=CC(OC)=C(OC)C(OC)=C5)C12",
        "Molecular Formula": "C<sub>22</sub>H<sub>22</sub>O<sub>7</sub>",
        "Molecular Mass": "398.41",
        "Melting Point": "168 °C"
    }
}