{
    "cas_no": "1906-57-6",
    "key_name": "Ethanedioic acid, 1-ethyl ester, potassium salt (1:1)",
    "cn_name": null,
    "alternate_name": "Ethanedioic acid, 1-ethyl ester, potassium salt (1:1);Oxalic acid, monoethyl ester, potassium salt;Ethanedioic acid, monoethyl ester, potassium salt;Oxalic acid, ethyl ester, potassium salt;Ethyl potassium oxalate;Potassium ethyl oxalate;2-Ethoxy-2-oxoacetic acid potassium salt;Potassium 2-ethoxy-2-oxoacetate",
    "duplicated_cas_no": "",
    "SMILES": "C(OCC)(C(O)=O)=O.[K]",
    "meta_data": {
        "InChI": "InChI=1S/C4H6O4.K/c1-2-8-4(7)3(5)6;/h2H2,1H3,(H,5,6);",
        "InChIKey": null,
        "Canonical SMILES": "[K].O=C(O)C(=O)OCC",
        "Molecular Formula": "C<sub>4</sub>H<sub>6</sub>O<sub>4</sub>.K",
        "Molecular Mass": "",
        "Melting Point": "222-225 °C"
    }
}