{
    "cas_no": "29602-39-9",
    "key_name": "2-[(2-Aminoethyl)amino]-5-nitropyridine",
    "cn_name": null,
    "alternate_name": "1,2-Ethanediamine, <em>N</em><sup>1</sup>-(5-nitro-2-pyridinyl)-;Pyridine, 2-[(2-aminoethyl)amino]-5-nitro-;1,2-Ethanediamine, <em>N</em>-(5-nitro-2-pyridinyl)-;<em>N</em><sup>1</sup>-(5-Nitro-2-pyridinyl)-1,2-ethanediamine;2-(β-Aminoethylamino)-5-nitropyridine;2-[(2-Aminoethyl)amino]-5-nitropyridine;<em>N</em><sup>1</sup>-(5-Nitropyrid-2-yl)ethane-1,2-diamine;(2-Aminoethyl)(5-nitro-2-pyridyl)amine;(2-((5-Nitropyridin-2-yl)amino)ethyl)amine;<em>N</em>-(5-Nitropyridin-2-yl)ethane-1,2-diamine",
    "duplicated_cas_no": "",
    "SMILES": "N(=O)(=O)C=1C=CC(NCCN)=NC1",
    "meta_data": {
        "InChI": "InChI=1S/C7H10N4O2/c8-3-4-9-7-2-1-6(5-10-7)11(12)13/h1-2,5H,3-4,8H2,(H,9,10)",
        "InChIKey": null,
        "Canonical SMILES": "O=N(=O)C1=CN=C(C=C1)NCCN",
        "Molecular Formula": "C<sub>7</sub>H<sub>10</sub>N<sub>4</sub>O<sub>2</sub>",
        "Molecular Mass": "182.18",
        "Melting Point": "123 °C"
    }
}