{
    "cas_no": "4828-27-7",
    "key_name": "Clocortolone",
    "cn_name": "氯可托龙;",
    "alternate_name": "Pregna-1,4-diene-3,20-dione, 9-chloro-6-fluoro-11,21-dihydroxy-16-methyl-, (6α,11β,16α)-;Pregna-1,4-diene-3,20-dione, 9-chloro-6α-fluoro-11β,21-dihydroxy-16α-methyl-;(6α,11β,16α)-9-Chloro-6-fluoro-11,21-dihydroxy-16-methylpregna-1,4-diene-3,20-dione;9-Chloro-6α-fluoro-11β,21-dihydroxy-17α-methylpregna-1,4-diene-3,20-dione;Clocortolone;9-Chloro-6α-fluoro-11β,21-dihydroxy-16α-methylpregna-1,4-diene-3,20-dione;9-Chloro-6α-fluoro-16α-methyl-1,4-pregnadiene-11β,21-diol-3,20-dione;Clorcortelone",
    "duplicated_cas_no": "",
    "SMILES": "Cl[C@@]12[C@]([C@]3([C@](C)(C[C@@H]1O)[C@@H](C(CO)=O)[C@H](C)C3)[H])(C[C@H](F)C=4[C@]2(C)C=CC(=O)C4)[H]",
    "meta_data": {
        "InChI": "InChI=1S/C22H28ClFO4/c1-11-6-13-14-8-16(24)15-7-12(26)4-5-21(15,3)22(14,23)18(28)9-20(13,2)19(11)17(27)10-25/h4-5,7,11,13-14,16,18-19,25,28H,6,8-10H2,1-3H3/t11-,13+,14+,16+,18+,19-,20+,21+,22+/m1/s1",
        "InChIKey": null,
        "Canonical SMILES": "O=C1C=CC2(C(=C1)C(F)CC3C4CC(C)C(C(=O)CO)C4(C)CC(O)C32Cl)C",
        "Molecular Formula": "C<sub>22</sub>H<sub>28</sub>ClFO<sub>4</sub>",
        "Molecular Mass": "410.91",
        "Melting Point": "254 °C (decomp)"
    }
}