{
    "cas_no": "5345-47-1",
    "key_name": "2-Aminonicotinic acid",
    "cn_name": "2-氨基烟酸;2-氨基吡啶-3-羧酸;",
    "alternate_name": "3-Pyridinecarboxylic acid, 2-amino-;Nicotinic acid, 2-amino-;2-Amino-3-pyridinecarboxylic acid;2-Aminonicotinic acid;NSC 3049;2-Amino-3-carboxypyridine",
    "duplicated_cas_no": "",
    "SMILES": "C(O)(=O)C1=C(N)N=CC=C1",
    "meta_data": {
        "InChI": "InChI=1S/C6H6N2O2/c7-5-4(6(9)10)2-1-3-8-5/h1-3H,(H2,7,8)(H,9,10)",
        "InChIKey": null,
        "Canonical SMILES": "O=C(O)C1=CC=CN=C1N",
        "Molecular Formula": "C<sub>6</sub>H<sub>6</sub>N<sub>2</sub>O<sub>2</sub>",
        "Molecular Mass": "138.12",
        "Melting Point": "308 °C (decomp)"
    }
}