{
    "cas_no": "156-81-0",
    "key_name": "2,4-Diaminopyrimidine",
    "cn_name": "2,4-二氨基嘧啶;",
    "alternate_name": "2,4-Pyrimidinediamine;Pyrimidine, 2,4-diamino-;2,4-Diaminopyrimidine;NSC 30856",
    "duplicated_cas_no": "42910-89-4;42910-90-7;42910-92-9;42910-88-3",
    "SMILES": "NC1=NC(N)=NC=C1",
    "meta_data": {
        "InChI": "InChI=1S/C4H6N4/c5-3-1-2-7-4(6)8-3/h1-2H,(H4,5,6,7,8)",
        "InChIKey": null,
        "Canonical SMILES": "N=1C=CC(=NC1N)N",
        "Molecular Formula": "C<sub>4</sub>H<sub>6</sub>N<sub>4</sub>",
        "Molecular Mass": "110.12",
        "Melting Point": "149-150 °C"
    }
}