{
    "cas_no": "155836-48-9",
    "key_name": "1,1-Dimethylethyl <em>N</em>-[(1<em>R</em>)-1-(hydroxymethyl)-2,2-diphenylethyl]carbamate",
    "cn_name": null,
    "alternate_name": "Carbamic acid, <em>N</em>-[(1<em>R</em>)-1-(hydroxymethyl)-2,2-diphenylethyl]-, 1,1-dimethylethyl ester;Carbamic acid, [1-(hydroxymethyl)-2,2-diphenylethyl]-, 1,1-dimethylethyl ester, (<em>R</em>)-;1,1-Dimethylethyl <em>N</em>-[(1<em>R</em>)-1-(hydroxymethyl)-2,2-diphenylethyl]carbamate;(R)-<em>N</em>-(<em>tert</em>-Butoxycarbonyl)-β-phenyl-phenylalaninol",
    "duplicated_cas_no": "",
    "SMILES": "C([C@@H](NC(OC(C)(C)C)=O)CO)(C1=CC=CC=C1)C2=CC=CC=C2",
    "meta_data": {
        "InChI": "InChI=1S/C20H25NO3/c1-20(2,3)24-19(23)21-17(14-22)18(15-10-6-4-7-11-15)16-12-8-5-9-13-16/h4-13,17-18,22H,14H2,1-3H3,(H,21,23)/t17-/m0/s1",
        "InChIKey": null,
        "Canonical SMILES": "O=C(OC(C)(C)C)NC(CO)C(C=1C=CC=CC1)C=2C=CC=CC2",
        "Molecular Formula": "C<sub>20</sub>H<sub>25</sub>NO<sub>3</sub>",
        "Molecular Mass": "327.42",
        "Melting Point": "108-111 °C"
    }
}