{
    "cas_no": "5860-71-9",
    "key_name": "2,6-Dimethylnicotinic acid",
    "cn_name": "2，6-二甲基烟酸/2，6-二甲基-3-羧酸;",
    "alternate_name": "3-Pyridinecarboxylic acid, 2,6-dimethyl-;Nicotinic acid, 2,6-dimethyl-;2,6-Dimethyl-3-pyridinecarboxylic acid;2,6-Lutidine-3-carboxylic acid;2,6-Dimethylnicotinic acid",
    "duplicated_cas_no": "",
    "SMILES": "C(O)(=O)C1=C(C)N=C(C)C=C1",
    "meta_data": {
        "InChI": "InChI=1S/C8H9NO2/c1-5-3-4-7(8(10)11)6(2)9-5/h3-4H,1-2H3,(H,10,11)",
        "InChIKey": null,
        "Canonical SMILES": "O=C(O)C1=CC=C(N=C1C)C",
        "Molecular Formula": "C<sub>8</sub>H<sub>9</sub>NO<sub>2</sub>",
        "Molecular Mass": "151.16",
        "Melting Point": "151 °C"
    }
}