{
    "cas_no": "515-69-5",
    "key_name": "Bisabolol",
    "cn_name": "红没药醇;alpha-红没药醇;甜没药醇;",
    "alternate_name": "3-Cyclohexene-1-methanol, α,4-dimethyl-α-(4-methyl-3-penten-1-yl)-, (α<em>R</em>,1<em>R</em>)-<em>rel</em>-;5-Hepten-2-ol, 6-methyl-2-(4-methyl-3-cyclohexen-1-yl)-;3-Cyclohexene-1-methanol, α,4-dimethyl-α-(4-methyl-3-pentenyl)-, (<em>R</em>*,<em>R</em>*)-;3-Cyclohexene-1-methanol, α,4-dimethyl-α-(4-methyl-3-pentenyl)-, (α<em>R</em>,1<em>R</em>)-<em>rel</em>-;<em>rel</em>-(α<em>R</em>,1<em>R</em>)-α,4-Dimethyl-α-(4-methyl-3-penten-1-yl)-3-cyclohexene-1-methanol;α-Bisabolol;Bisabolol;<em>dl</em>-α-Bisabolol;Dragosantol;(±)-α-Bisabolol;Hydagen B;Camilol;Dragosantol 100",
    "duplicated_cas_no": "21090-60-8;25428-43-7;63601-23-0;67375-41-1",
    "SMILES": "[C@@](CCC=C(C)C)(C)(O)[C@@]1(CCC(C)=CC1)[H]",
    "meta_data": {
        "InChI": "InChI=1/C15H26O/c1-12(2)6-5-11-15(4,16)14-9-7-13(3)8-10-14/h6-7,14,16H,5,8-11H2,1-4H3/t14-,15+/s2",
        "InChIKey": null,
        "Canonical SMILES": "OC(C)(CCC=C(C)C)C1CC=C(C)CC1",
        "Molecular Formula": "C<sub>15</sub>H<sub>26</sub>O",
        "Molecular Mass": "222.37",
        "Boiling Point": "156 °C",
        "Melting Point": "&lt;25 °C",
        "Density": "0.9216 g/cm³ @ Temp: 18 °C"
    }
}