{
    "cas_no": "41870-52-4",
    "key_name": "1-(Chlorophenylmethyl)-2-methylbenzene",
    "cn_name": "2-甲基二苯甲基氯化物;",
    "alternate_name": "Benzene, 1-(chlorophenylmethyl)-2-methyl-;Methane, chlorophenyl-<em>o</em>-tolyl-;1-(Chlorophenylmethyl)-2-methylbenzene",
    "duplicated_cas_no": "",
    "SMILES": "C(Cl)(C1=C(C)C=CC=C1)C2=CC=CC=C2",
    "meta_data": {
        "InChI": "InChI=1S/C14H13Cl/c1-11-7-5-6-10-13(11)14(15)12-8-3-2-4-9-12/h2-10,14H,1H3",
        "InChIKey": null,
        "Canonical SMILES": "ClC(C=1C=CC=CC1)C=2C=CC=CC2C",
        "Molecular Formula": "C<sub>14</sub>H<sub>13</sub>Cl",
        "Molecular Mass": "216.71",
        "Boiling Point": "118-119 °C @ Press: 1 Torr"
    }
}