{
    "cas_no": "3937-30-2",
    "key_name": "Allyldimethylsilane",
    "cn_name": "二甲基烯丙基硅烷;",
    "alternate_name": "Silane, dimethyl-2-propen-1-yl-;Silane, allyldimethyl-;Silane, dimethyl-2-propenyl-;Dimethyl-2-propen-1-ylsilane;Allyldimethylsilane",
    "duplicated_cas_no": "",
    "SMILES": "C([SiH](C)C)C=C",
    "meta_data": {
        "InChI": "InChI=1S/C5H12Si/c1-4-5-6(2)3/h4,6H,1,5H2,2-3H3",
        "InChIKey": null,
        "Canonical SMILES": "C=CC[SiH](C)C",
        "Molecular Formula": "C<sub>5</sub>H<sub>12</sub>Si",
        "Molecular Mass": "100.23",
        "Boiling Point": "69-70 °C",
        "Density": "0.705 g/cm³ @ Temp: 25 °C"
    }
}