{
    "cas_no": "13001-28-0",
    "key_name": "1-Chloro-4-(2-chloroethoxy)benzene",
    "cn_name": "1-氯-4-(2-氯乙氧基)苯;",
    "alternate_name": "Benzene, 1-chloro-4-(2-chloroethoxy)-;Phenetole, <em>p</em>,β-dichloro-;1-Chloro-4-(2-chloroethoxy)benzene;2-Chloroethyl 4-chlorophenyl ether;4-(2-Chloroethoxy)chlorobenzene;2-(4-Chlorophenoxy)ethyl chloride",
    "duplicated_cas_no": "",
    "SMILES": "O(CCCl)C1=CC=C(Cl)C=C1",
    "meta_data": {
        "InChI": "InChI=1S/C8H8Cl2O/c9-5-6-11-8-3-1-7(10)2-4-8/h1-4H,5-6H2",
        "InChIKey": null,
        "Canonical SMILES": "ClC1=CC=C(OCCCl)C=C1",
        "Molecular Formula": "C<sub>8</sub>H<sub>8</sub>Cl<sub>2</sub>O",
        "Molecular Mass": "191.05",
        "Boiling Point": "184-186 °C @ Press: 92 Torr",
        "Melting Point": "39 °C"
    }
}