{
    "cas_no": "4531-54-8",
    "key_name": "1-Methyl-4-nitro-1<em>H</em>-imidazol-5-amine",
    "cn_name": null,
    "alternate_name": "1<em>H</em>-Imidazol-5-amine, 1-methyl-4-nitro-;Imidazole, 5-amino-1-methyl-4-nitro-;1-Methyl-4-nitro-1<em>H</em>-imidazol-5-amine;5-Amino-1-methyl-4-nitroimidazole;NSC 400013;3-Methyl-5-nitroimidazol-4-amine;3-Methyl-5-nitro-3<em>H</em>-imidazol-4-ylamine",
    "duplicated_cas_no": "",
    "SMILES": "N(=O)(=O)C1=C(N)N(C)C=N1",
    "meta_data": {
        "InChI": "InChI=1S/C4H6N4O2/c1-7-2-6-4(3(7)5)8(9)10/h2H,5H2,1H3",
        "InChIKey": null,
        "Canonical SMILES": "O=N(=O)C=1N=CN(C1N)C",
        "Molecular Formula": "C<sub>4</sub>H<sub>6</sub>N<sub>4</sub>O<sub>2</sub>",
        "Molecular Mass": "142.12",
        "Melting Point": "299 °C"
    }
}