{
    "cas_no": "17715-00-3",
    "key_name": "2-Propyn-1-ylcyclohexane",
    "cn_name": "3-环己基丙炔;2-炔丙基环己烷;",
    "alternate_name": "Cyclohexane, 2-propyn-1-yl-;Cyclohexane, 2-propynyl-;Propyne, 3-cyclohexyl-;2-Propyn-1-ylcyclohexane;3-Cyclohexyl-1-propyne;2-Propynylcyclohexane;Propargylcyclohexane;3-Cyclohexylpropyne;1-Prop-2-ynylcyclohexane",
    "duplicated_cas_no": "",
    "SMILES": "C(C#C)C1CCCCC1",
    "meta_data": {
        "InChI": "InChI=1S/C9H14/c1-2-6-9-7-4-3-5-8-9/h1,9H,3-8H2",
        "InChIKey": null,
        "Canonical SMILES": "C#CCC1CCCCC1",
        "Molecular Formula": "C<sub>9</sub>H<sub>14</sub>",
        "Molecular Mass": "122.21",
        "Boiling Point": "157.5 °C",
        "Density": "0.836 g/cm³ @ Temp: 20 °C"
    }
}