{
    "cas_no": "2186-24-5",
    "key_name": "<em>p</em>-Cresyl glycidyl ether",
    "cn_name": null,
    "alternate_name": "Oxirane, 2-[(4-methylphenoxy)methyl]-;Propane, 1,2-epoxy-3-(<em>p</em>-tolyloxy)-;Oxirane, [(4-methylphenoxy)methyl]-;2-[(4-Methylphenoxy)methyl]oxirane;<em>p</em>-Cresyl glycidyl ether;<em>p</em>-Tolyl glycidyl ether;Glycidyl <em>p</em>-tolyl ether;1,2-Epoxy-3-(<em>p</em>-tolyloxy)propane;3-(4-Methylphenoxy)-1,2-epoxypropane;Glycidyl <em>p</em>-methylphenyl ether;2,3-Epoxypropyl <em>p</em>-tolyl ether;<em>p</em>-Cresol glycidyl ether;1-(<em>p</em>-Methylphenoxy)-2,3-epoxypropane;Glycidyl <em>p</em>-cresyl ether;1-<em>p</em>-(Tolyloxy)-2,3-epoxypropane;Glycidyl 4-methylphenyl ether;1,2-Epoxy-3-(4-methylphenoxy)propane;[(4-Methylphenoxy)methyl]oxirane;<em>p</em>-Methylphenyl glycidyl ether;<em>p</em>-Methylphenol glycidyl ether;Adeka Glycilol ED 529;ED 529;NSC 112255;4-Methylphenyl glycidyl ether",
    "duplicated_cas_no": "66527-94-4;191045-10-0",
    "SMILES": "C(OC1=CC=C(C)C=C1)C2CO2",
    "meta_data": {
        "InChI": "InChI=1S/C10H12O2/c1-8-2-4-9(5-3-8)11-6-10-7-12-10/h2-5,10H,6-7H2,1H3",
        "InChIKey": null,
        "Canonical SMILES": "O(C1=CC=C(C=C1)C)CC2OC2",
        "Molecular Formula": "C<sub>10</sub>H<sub>12</sub>O<sub>2</sub>",
        "Molecular Mass": "164.20",
        "Boiling Point": "119-120 °C @ Press: 7 Torr",
        "Density": "1.0794 g/cm³ @ Temp: 20 °C"
    }
}