{
    "cas_no": "67801-07-4",
    "key_name": "(2<em>E</em>)-3-[3-(Trifluoromethyl)phenyl]-2-propenoic acid",
    "cn_name": "(E)-3-(三氟甲基)肉桂酸;",
    "alternate_name": "2-Propenoic acid, 3-[3-(trifluoromethyl)phenyl]-, (2<em>E</em>)-;2-Propenoic acid, 3-[3-(trifluoromethyl)phenyl]-, (<em>E</em>)-;(2<em>E</em>)-3-[3-(Trifluoromethyl)phenyl]-2-propenoic acid;(<em>E</em>)-<em>m</em>-(Trifluoromethyl)cinnamic acid;<em>trans</em>-3-(Trifluoromethyl)cinnamic acid;(<em>E</em>)-3-(Trifluoromethyl)cinnamic acid;(<em>E</em>)-3-(3-(Trifluoromethyl)phenyl)acrylic acid;<em>trans</em>-3-(3-Trifluoromethylphenyl)acrylic acid;(<em>E</em>)-3-(3-Trifluoromethylphenyl)-2-propenoic acid;<em>trans</em>-3-(3-Trifluoromethylphenyl)-2-propenoic acid;(E)-3-(3-(Trifluoromethyl)phenyl)acrylic acid",
    "duplicated_cas_no": "",
    "SMILES": "C(F)(F)(F)C1=CC(/C=C/C(O)=O)=CC=C1",
    "meta_data": {
        "InChI": "InChI=1S/C10H7F3O2/c11-10(12,13)8-3-1-2-7(6-8)4-5-9(14)15/h1-6H,(H,14,15)/b5-4+",
        "InChIKey": null,
        "Canonical SMILES": "O=C(O)C=CC1=CC=CC(=C1)C(F)(F)F",
        "Molecular Formula": "C<sub>10</sub>H<sub>7</sub>F<sub>3</sub>O<sub>2</sub>",
        "Molecular Mass": "216.16",
        "Melting Point": "135-136 °C"
    }
}