{
    "cas_no": "15547-89-4",
    "key_name": "2-(3-Methoxyphenyl)cyclohexanone",
    "cn_name": "2-(3-甲氧基苯基)环己酮;",
    "alternate_name": "Cyclohexanone, 2-(3-methoxyphenyl)-;Cyclohexanone, 2-(<em>m</em>-methoxyphenyl)-;2-(3-Methoxyphenyl)cyclohexanone;2-<em>m</em>-Methoxyphenylcyclohexanone;2-(3-Methoxyphenyl)cyclohexan-1-one;2-(3-Methoxy-phenyl)-cyclohexanon",
    "duplicated_cas_no": "121746-86-9",
    "SMILES": "O=C1C(C2=CC(OC)=CC=C2)CCCC1",
    "meta_data": {
        "InChI": "InChI=1S/C13H16O2/c1-15-11-6-4-5-10(9-11)12-7-2-3-8-13(12)14/h4-6,9,12H,2-3,7-8H2,1H3",
        "InChIKey": null,
        "Canonical SMILES": "O=C1CCCCC1C=2C=CC=C(OC)C2",
        "Molecular Formula": "C<sub>13</sub>H<sub>16</sub>O<sub>2</sub>",
        "Molecular Mass": "204.26",
        "Boiling Point": "150-158 °C @ Press: 0.2 Torr"
    }
}