{
    "cas_no": "93-04-9",
    "key_name": "2-Methoxynaphthalene",
    "cn_name": "2-萘甲醚;2-甲氧基萘;",
    "alternate_name": "Naphthalene, 2-methoxy-;Ether, methyl 2-naphthyl;2-Methoxynaphthalene;Methyl β-naphthyl ether;β-Naphthol methyl ether;Nerolin;Yara yara;2-Naphthol methyl ether;Nerolin (old);β-Naphthyl methyl ether;Methyl 2-naphthyl ether;β-Methoxynaphthalene;2-Naphthyl methyl ether;NSC 4171;6-Methoxy-2-naphthalene;Nerolin yara yara",
    "duplicated_cas_no": "",
    "SMILES": "O(C)C1=CC2=C(C=C1)C=CC=C2",
    "meta_data": {
        "InChI": "InChI=1S/C11H10O/c1-12-11-7-6-9-4-2-3-5-10(9)8-11/h2-8H,1H3",
        "InChIKey": null,
        "Canonical SMILES": "O(C=1C=CC=2C=CC=CC2C1)C",
        "Molecular Formula": "C<sub>11</sub>H<sub>10</sub>O",
        "Molecular Mass": "158.20",
        "Boiling Point": "274 °C",
        "Melting Point": "73.5 °C"
    }
}