{
    "cas_no": "28123-73-1",
    "key_name": "5-(4-Nitrophenyl)-2-furancarboxylic acid",
    "cn_name": "5-(4-硝基苯基)-2-呋喃甲酸;",
    "alternate_name": "2-Furancarboxylic acid, 5-(4-nitrophenyl)-;2-Furoic acid, 5-(<em>p</em>-nitrophenyl)-;5-(4-Nitrophenyl)-2-furancarboxylic acid;5-(<em>p</em>-Nitrophenyl)-2-furancarboxylic acid;5-(<em>p</em>-Nitrophenyl)-2-furoic acid;5-(4-Nitrophenyl)-2-furoic acid",
    "duplicated_cas_no": "",
    "SMILES": "C(O)(=O)C=1OC(=CC1)C2=CC=C(N(=O)=O)C=C2",
    "meta_data": {
        "InChI": "InChI=1S/C11H7NO5/c13-11(14)10-6-5-9(17-10)7-1-3-8(4-2-7)12(15)16/h1-6H,(H,13,14)",
        "InChIKey": null,
        "Canonical SMILES": "O=C(O)C=1OC(=CC1)C=2C=CC(=CC2)N(=O)=O",
        "Molecular Formula": "C<sub>11</sub>H<sub>7</sub>NO<sub>5</sub>",
        "Molecular Mass": "233.18",
        "Melting Point": "246-247 °C"
    }
}