{
    "cas_no": "7773-03-7",
    "key_name": "Potassium bisulfite",
    "cn_name": null,
    "alternate_name": "Sulfurous acid, potassium salt (1:1);Sulfurous acid, monopotassium salt;Potassium sulfite (KHSO<sub>3</sub>);Potassium acid sulfite;Potassium bisulfite;Potassium hydrogen sulfite",
    "duplicated_cas_no": "",
    "SMILES": "S(=O)(O)O.[K]",
    "meta_data": {
        "InChI": "InChI=1S/K.H2O3S/c;1-4(2)3/h;(H2,1,2,3)",
        "InChIKey": null,
        "Canonical SMILES": "[K].O=S(O)O",
        "Molecular Formula": "H<sub>2</sub>O<sub>3</sub>S.K",
        "Molecular Mass": "",
        "Melting Point": "190 °C (decomp)"
    }
}