{
    "cas_no": "83409-32-9",
    "key_name": "Desethylamiodarone",
    "cn_name": "去乙基胺碘酮;2-丁基-3-苯并呋喃基-[4-(2-乙氨基乙氧基)-3,5-二碘苯基]甲酮;",
    "alternate_name": "Methanone, (2-butyl-3-benzofuranyl)[4-[2-(ethylamino)ethoxy]-3,5-diiodophenyl]-;(2-Butyl-3-benzofuranyl)[4-[2-(ethylamino)ethoxy]-3,5-diiodophenyl]methanone;Desethylamiodarone;<em>N</em>-Desethylamiodarone;<em>N</em>-Monodesethylamiodarone;Deethylamiodarone;LB 33020;<em>N</em>-Deethylamiodarone;DAMI",
    "duplicated_cas_no": "102053-34-9",
    "SMILES": "C(=O)(C=1C=2C(OC1CCCC)=CC=CC2)C3=CC(I)=C(OCCNCC)C(I)=C3",
    "meta_data": {
        "InChI": "InChI=1S/C23H25I2NO3/c1-3-5-9-20-21(16-8-6-7-10-19(16)29-20)22(27)15-13-17(24)23(18(25)14-15)28-12-11-26-4-2/h6-8,10,13-14,26H,3-5,9,11-12H2,1-2H3",
        "InChIKey": null,
        "Canonical SMILES": "O=C(C1=CC(I)=C(OCCNCC)C(I)=C1)C=2C=3C=CC=CC3OC2CCCC",
        "Molecular Formula": "C<sub>23</sub>H<sub>25</sub>I<sub>2</sub>NO<sub>3</sub>",
        "Molecular Mass": "617.26",
        "Melting Point": "176.8-177.7 °C"
    }
}