{
    "cas_no": "786-19-6",
    "key_name": "Carbophenothion",
    "cn_name": "三硫磷;S-[[(4-氯苯基)硫代]甲基]O,O-二乙基二硫代磷酸酯;三赛昂;",
    "alternate_name": "Phosphorodithioic acid, <em>S</em>-[[(4-chlorophenyl)thio]methyl] <em>O</em>,<em>O</em>-diethyl ester;Phosphorodithioic acid, <em>S</em>-[[(<em>p</em>-chlorophenyl)thio]methyl] <em>O</em>,<em>O</em>-diethyl ester;R 1303 (pesticide);ENT 23,708;Acarithion;Carbophenothion;<em>S</em>-[[(<em>p</em>-Chlorophenyl)thio]methyl] <em>O</em>,<em>O</em>-diethyl phosphorodithioate;Oleoakarithion;Stauffer R 1303;Trithion;Carbofenthion;Ethyl carbophenothion;Hexathion;Carbofenothion;<em>O</em>,<em>O</em>-Diethyl <em>S</em>-(<em>p</em>-chlorophenylthio)methyl phosphorodithioate;Garrathion;R 1303;Carbofenotion;NSC 231691",
    "duplicated_cas_no": "1129249-70-2",
    "SMILES": "P(SCSC1=CC=C(Cl)C=C1)(OCC)(OCC)=S",
    "meta_data": {
        "InChI": "InChI=1S/C11H16ClO2PS3/c1-3-13-15(16,14-4-2)18-9-17-11-7-5-10(12)6-8-11/h5-8H,3-4,9H2,1-2H3",
        "InChIKey": null,
        "Canonical SMILES": "S=P(OCC)(OCC)SCSC1=CC=C(Cl)C=C1",
        "Molecular Formula": "C<sub>11</sub>H<sub>16</sub>ClO<sub>2</sub>PS<sub>3</sub>",
        "Molecular Mass": "342.87",
        "Boiling Point": "82 °C @ Press: 0.01 Torr",
        "Density": "1.271 g/cm³ @ Temp: 25 °C"
    }
}