{
    "cas_no": "629-50-5",
    "key_name": "Tridecane",
    "cn_name": "正十三烷;十三烷;",
    "alternate_name": "Tridecane;<em>n</em>-Tridecane;N 13 (paraffin);N 13;NSC 66205;Paraffin N 13;Cactus Normal Paraffin N 13;Cetiol iSAN",
    "duplicated_cas_no": "",
    "SMILES": "C(CCCCCC)CCCCCC",
    "meta_data": {
        "InChI": "InChI=1S/C13H28/c1-3-5-7-9-11-13-12-10-8-6-4-2/h3-13H2,1-2H3",
        "InChIKey": null,
        "Canonical SMILES": "CCCCCCCCCCCCC",
        "Molecular Formula": "C<sub>13</sub>H<sub>28</sub>",
        "Molecular Mass": "184.36",
        "Boiling Point": "235.4 °C @ Press: 760 Torr",
        "Melting Point": "-5.3 °C",
        "Density": "0.7564 g/cm³ @ Temp: 20 °C"
    }
}