{
    "cas_no": "2487-48-1",
    "key_name": "7β-Hydroxy-DHEA",
    "cn_name": null,
    "alternate_name": "Androst-5-en-17-one, 3,7-dihydroxy-, (3β,7β)-;Androst-5-en-17-one, 3β,7β-dihydroxy-;(3β,7β)-3,7-Dihydroxyandrost-5-en-17-one;Androst-5-ene-3β,7β-diol-17-one;7β-Hydroxydehydroepiandrosterone;3β,7β-Dihydroxy-5-androsten-17-one;3α,7β-Hydroxyandrost-5-en-17-one;3β,7β-Dihydroxy-5-androstene-17-one;7-β-OH-DHEA;7β-Hydroxy-DHEA;Androst-5-ene-17-one-3β,7β-diol;Androst-5-en-17-one-3β,7β-diol",
    "duplicated_cas_no": "",
    "SMILES": "C[C@@]12[C@@]3([C@]([C@]4([C@](C)(CC3)C(=O)CC4)[H])([C@@H](O)C=C1C[C@@H](O)CC2)[H])[H]",
    "meta_data": {
        "InChI": "InChI=1S/C19H28O3/c1-18-7-5-12(20)9-11(18)10-15(21)17-13-3-4-16(22)19(13,2)8-6-14(17)18/h10,12-15,17,20-21H,3-9H2,1-2H3/t12-,13-,14-,15-,17-,18-,19-/m0/s1",
        "InChIKey": null,
        "Canonical SMILES": "O=C1CCC2C3C(O)C=C4CC(O)CCC4(C)C3CCC12C",
        "Molecular Formula": "C<sub>19</sub>H<sub>28</sub>O<sub>3</sub>",
        "Molecular Mass": "304.42",
        "Melting Point": "214-216 °C"
    }
}