{
    "cas_no": "2051-28-7",
    "key_name": "Decahydroquinoline",
    "cn_name": "十氢喹啉;",
    "alternate_name": "Quinoline, decahydro-;Decahydroquinoline;2-Azabicyclo[4.4.0]decane;Perhydroquinoline;1,2,3,4,4a,5,6,7,8,8a-Decahydroquinoline",
    "duplicated_cas_no": "",
    "SMILES": "C12C(CCCC1)NCCC2",
    "meta_data": {
        "InChI": "InChI=1S/C9H17N/c1-2-6-9-8(4-1)5-3-7-10-9/h8-10H,1-7H2",
        "InChIKey": null,
        "Canonical SMILES": "N1CCCC2CCCCC12",
        "Molecular Formula": "C<sub>9</sub>H<sub>17</sub>N",
        "Molecular Mass": "139.24",
        "Boiling Point": "207-210 °C",
        "Melting Point": "45.5 °C",
        "Density": "0.9147 g/cm³ @ Temp: 14 °C"
    }
}