{
    "cas_no": "23876-13-3",
    "key_name": "2-Methyl-3-nitrobenzenemethanol",
    "cn_name": "2-甲基-3-硝基苯甲醇;2-甲基-3-硝基苄醇;",
    "alternate_name": "Benzenemethanol, 2-methyl-3-nitro-;Benzyl alcohol, 2-methyl-3-nitro-;2-Methyl-3-nitrobenzenemethanol;2-Methyl-3-nitrobenzyl alcohol;3-Hydroxymethyl-2-methyl-1-nitrobenzene;(2-Methyl-3-nitrophenyl)methanol",
    "duplicated_cas_no": "",
    "SMILES": "N(=O)(=O)C1=C(C)C(CO)=CC=C1",
    "meta_data": {
        "InChI": "InChI=1S/C8H9NO3/c1-6-7(5-10)3-2-4-8(6)9(11)12/h2-4,10H,5H2,1H3",
        "InChIKey": null,
        "Canonical SMILES": "O=N(=O)C1=CC=CC(=C1C)CO",
        "Molecular Formula": "C<sub>8</sub>H<sub>9</sub>NO<sub>3</sub>",
        "Molecular Mass": "167.16",
        "Melting Point": "66-68 °C"
    }
}