{
    "cas_no": "2065-66-9",
    "key_name": "Phosphonium, methyltriphenyl-, iodide (1:1)",
    "cn_name": "甲基三苯基碘化鏻;",
    "alternate_name": "Phosphonium, methyltriphenyl-, iodide (1:1);Phosphonium, methyltriphenyl-, iodide;Methyltriphenylphosphonium iodide;Triphenylmethylphosphinium iodide;Triphenylmethylphosphonium iodide",
    "duplicated_cas_no": "145382-51-0",
    "SMILES": "[P+](C)(C1=CC=CC=C1)(C2=CC=CC=C2)C3=CC=CC=C3.[I-]",
    "meta_data": {
        "InChI": "InChI=1S/C19H18P.HI/c1-20(17-11-5-2-6-12-17,18-13-7-3-8-14-18)19-15-9-4-10-16-19;/h2-16H,1H3;1H/q+1;/p-1",
        "InChIKey": null,
        "Canonical SMILES": "[I-].C=1C=CC(=CC1)[P+](C=2C=CC=CC2)(C=3C=CC=CC3)C",
        "Molecular Formula": "C<sub>19</sub>H<sub>18</sub>P.I",
        "Molecular Mass": "",
        "Melting Point": "182-183 °C"
    }
}