{
    "cas_no": "65043-22-3",
    "key_name": "Indeloxazine hydrochloride",
    "cn_name": "盐酸茚洛秦;2-(3H-茚-4-基氧甲基)吗啉盐酸盐;",
    "alternate_name": "Morpholine, 2-[(1<em>H</em>-inden-7-yloxy)methyl]-, hydrochloride (1:1);Morpholine, 2-[(1<em>H</em>-inden-7-yloxy)methyl]-, hydrochloride;YM 08054-1;YM 08054;Indeloxazine hydrochloride;Elen;Noin;CI 874",
    "duplicated_cas_no": "104908-10-3",
    "SMILES": "O(CC1CNCCO1)C2=C3C(C=CC3)=CC=C2.Cl",
    "meta_data": {
        "InChI": "InChI=1S/C14H17NO2.ClH/c1-3-11-4-2-6-14(13(11)5-1)17-10-12-9-15-7-8-16-12;/h1-4,6,12,15H,5,7-10H2;1H",
        "InChIKey": null,
        "Canonical SMILES": "Cl.O(C1=CC=CC=2C=CCC12)CC3OCCNC3",
        "Molecular Formula": "C<sub>14</sub>H<sub>17</sub>NO<sub>2</sub>.ClH",
        "Molecular Mass": "",
        "Melting Point": "155-156 °C"
    }
}