{
    "cas_no": "17184-21-3",
    "key_name": "Cauloside A",
    "cn_name": null,
    "alternate_name": "Olean-12-en-28-oic acid, 3-(α-<span class=\"text-smallcaps\">L</span>-arabinopyranosyloxy)-23-hydroxy-, (3β,4α)-;Leontoside A;(3β,4α)-3-(α-<span class=\"text-smallcaps\">L</span>-Arabinopyranosyloxy)-23-hydroxyolean-12-en-28-oic acid;Scabioside A (Patrinia);β<sub>2</sub>-Fatsin;Cauloside A;3-<em>O</em>-[α-<span class=\"text-smallcaps\">L</span>-Arabinopyranosyl]hederagenin;Prosapogenin CP<sub>1</sub>;Hederagenin 3-<em>O</em>-α-<span class=\"text-smallcaps\">L</span>-arabinopyranoside;Fatsiaside B<sub>1</sub>;Kizuta saponin K<sub>3</sub>;Polypetaloside B;Nepalin 1;Tauroside B;Hederoside A<sub>3</sub>;Saponin K<sub>3</sub>;Akeboside St<sub>b</sub>;δ-Hederin;Glycoside L-B<sub>2</sub>;Scabioside A;Akebia saponin PA;3β-(α-<span class=\"text-smallcaps\">L</span>-Arabinopyranosyloxy)-23-hydroxyolean-12-en-28-oic acid;Koelreuteria saponin A",
    "duplicated_cas_no": "12672-42-3;52038-07-0;71851-12-2",
    "SMILES": "C[C@]12[C@@]([C@]3(C)[C@@](CC1)([C@@](CO)(C)[C@@H](O[C@H]4[C@H](O)[C@@H](O)[C@@H](O)CO4)CC3)[H])(CC=C5[C@@]2(C)CC[C@]6(C(O)=O)[C@]5(CC(C)(C)CC6)[H])[H]",
    "meta_data": {
        "InChI": "InChI=1S/C35H56O8/c1-30(2)13-15-35(29(40)41)16-14-33(5)20(21(35)17-30)7-8-24-31(3)11-10-25(43-28-27(39)26(38)22(37)18-42-28)32(4,19-36)23(31)9-12-34(24,33)6/h7,21-28,36-39H,8-19H2,1-6H3,(H,40,41)/t21-,22-,23+,24+,25-,26-,27+,28-,31-,32-,33+,34+,35-/m0/s1",
        "InChIKey": null,
        "Canonical SMILES": "O=C(O)C12CCC(C)(C)CC2C3=CCC4C5(C)CCC(OC6OCC(O)C(O)C6O)C(C)(CO)C5CCC4(C)C3(C)CC1",
        "Molecular Formula": "C<sub>35</sub>H<sub>56</sub>O<sub>8</sub>",
        "Molecular Mass": "604.81",
        "Melting Point": "276-278 °C"
    }
}