{
    "cas_no": "72207-94-4",
    "key_name": "4-Acetoxy-3-ethoxybenzaldehyde",
    "cn_name": "乙基香兰素乙酸酯;",
    "alternate_name": "Benzaldehyde, 4-(acetyloxy)-3-ethoxy-;Benzaldehyde, 3-ethoxy-4-hydroxy-, acetate;4-(Acetyloxy)-3-ethoxybenzaldehyde;4-Acetoxy-3-ethoxybenzaldehyde;Ethylvanillin acetate;(2-Ethoxy-4-formylphenyl) acetate",
    "duplicated_cas_no": "",
    "SMILES": "O(CC)C1=C(OC(C)=O)C=CC(C=O)=C1",
    "meta_data": {
        "InChI": "InChI=1S/C11H12O4/c1-3-14-11-6-9(7-12)4-5-10(11)15-8(2)13/h4-7H,3H2,1-2H3",
        "InChIKey": null,
        "Canonical SMILES": "O=CC1=CC=C(OC(=O)C)C(OCC)=C1",
        "Molecular Formula": "C<sub>11</sub>H<sub>12</sub>O<sub>4</sub>",
        "Molecular Mass": "208.21",
        "Melting Point": "48-49 °C"
    }
}