{
    "cas_no": "490-59-5",
    "key_name": "Alloxazine",
    "cn_name": "咯肼;",
    "alternate_name": "Benzo[<em>g</em>]pteridine-2,4(1<em>H</em>,3<em>H</em>)-dione;Alloxazine;Isoalloxazine;Benzo[<em>g</em>]pteridine-2,4(3<em>H</em>,10<em>H</em>)-dione;6,7-Benzolumazine;Flavoquinone;NSC 203056;NSC 402746;1<em>H</em>,2<em>H</em>,3<em>H</em>,4<em>H</em>-Benzo[<em>g</em>]pteridine-2,4-dione;2,4-Dioxobenzo[<em>g</em>]pteridine;1<em>H</em>-Benzo[<em>g</em>]pteridine-2,4-dione;10<em>H</em>-Benzo[<em>g</em>]pteridine-2,4-dione",
    "duplicated_cas_no": "643-42-5;20681-66-7;20681-65-6;20684-93-9;20681-67-8;20703-60-0;859042-88-9",
    "SMILES": "O=C1C=2C(NC=3C(N2)=CC=CC3)=NC(=O)N1",
    "meta_data": {
        "InChI": "InChI=1S/C10H6N4O2/c15-9-7-8(13-10(16)14-9)12-6-4-2-1-3-5(6)11-7/h1-4H,(H2,12,13,14,15,16)",
        "InChIKey": null,
        "Canonical SMILES": "O=C1N=C2NC=3C=CC=CC3N=C2C(=O)N1",
        "Molecular Formula": "C<sub>10</sub>H<sub>6</sub>N<sub>4</sub>O<sub>2</sub>",
        "Molecular Mass": "214.18",
        "Melting Point": "410 °C (decomp)"
    }
}