{
    "cas_no": "5775-89-3",
    "key_name": "Ethyl 4-bromo-1,3-dimethyl-1<em>H</em>-pyrazole-5-carboxylate",
    "cn_name": null,
    "alternate_name": "1<em>H</em>-Pyrazole-5-carboxylic acid, 4-bromo-1,3-dimethyl-, ethyl ester;Pyrazole-5-carboxylic acid, 4-bromo-1,3-dimethyl-, ethyl ester;Ethyl 4-bromo-1,3-dimethyl-1<em>H</em>-pyrazole-5-carboxylate",
    "duplicated_cas_no": "",
    "SMILES": "C(OCC)(=O)C1=C(Br)C(C)=NN1C",
    "meta_data": {
        "InChI": "InChI=1S/C8H11BrN2O2/c1-4-13-8(12)7-6(9)5(2)10-11(7)3/h4H2,1-3H3",
        "InChIKey": null,
        "Canonical SMILES": "O=C(OCC)C1=C(Br)C(=NN1C)C",
        "Molecular Formula": "C<sub>8</sub>H<sub>11</sub>BrN<sub>2</sub>O<sub>2</sub>",
        "Molecular Mass": "247.09",
        "Boiling Point": "114 °C @ Press: 2 Torr"
    }
}