{
    "cas_no": "150728-12-4",
    "key_name": "5-(2-Methoxyphenoxy)[2,2′-bipyrimidine]-4,6(1<em>H</em>,5<em>H</em>)-dione",
    "cn_name": "5-(2-甲氧基苯氧基)-[2,2\"-二嘧啶]-4,6(1H,5H)-二酮;",
    "alternate_name": "[2,2′-Bipyrimidine]-4,6(1<em>H</em>,5<em>H</em>)-dione, 5-(2-methoxyphenoxy)-;[2,2′-Bipyrimidine]-4,6(1<em>H</em>,5<em>H</em>)-dione, 5-(2-methoxyphenoxy)-, (±)-;5-(2-Methoxyphenoxy)[2,2′-bipyrimidine]-4,6(1<em>H</em>,5<em>H</em>)-dione;5-(2-Methoxyphenoxy)-2,2′-bipyrimidine-4,6-(1<em>H</em>,5<em>H</em>)-dione",
    "duplicated_cas_no": "",
    "SMILES": "O(C1C(=O)NC(=NC1=O)C=2N=CC=CN2)C3=C(OC)C=CC=C3",
    "meta_data": {
        "InChI": "InChI=1S/C15H12N4O4/c1-22-9-5-2-3-6-10(9)23-11-14(20)18-13(19-15(11)21)12-16-7-4-8-17-12/h2-8,11H,1H3,(H,18,19,20,21)",
        "InChIKey": null,
        "Canonical SMILES": "O=C1N=C(NC(=O)C1OC=2C=CC=CC2OC)C=3N=CC=CN3",
        "Molecular Formula": "C<sub>15</sub>H<sub>12</sub>N<sub>4</sub>O<sub>4</sub>",
        "Molecular Mass": "312.28",
        "Melting Point": "262-264 °C"
    }
}