{
    "cas_no": "84-11-7",
    "key_name": "9,10-Phenanthrenedione",
    "cn_name": "菲醌;",
    "alternate_name": "9,10-Phenanthrenedione;Phenanthrenequinone;Phenanthraquinone;9,10-Phenanthraquinone;9,10-Phenanthrenequinone;NSC 10446;NSC 7389",
    "duplicated_cas_no": "",
    "SMILES": "O=C1C=2C(C=3C(C1=O)=CC=CC3)=CC=CC2",
    "meta_data": {
        "InChI": "InChI=1S/C14H8O2/c15-13-11-7-3-1-5-9(11)10-6-2-4-8-12(10)14(13)16/h1-8H",
        "InChIKey": null,
        "Canonical SMILES": "O=C1C(=O)C=2C=CC=CC2C=3C=CC=CC13",
        "Molecular Formula": "C<sub>14</sub>H<sub>8</sub>O<sub>2</sub>",
        "Molecular Mass": "208.21",
        "Boiling Point": "~360 °C (approx)",
        "Melting Point": "206-207 °C",
        "Density": "1.405 g/cm³ @ Temp: -6.7 °C"
    }
}