{
    "cas_no": "898562-94-2",
    "key_name": "2-[[4-[1-Methyl-4-(4-pyridinyl)-1<em>H</em>-pyrazol-3-yl]phenoxy]methyl]quinoline",
    "cn_name": null,
    "alternate_name": "Quinoline, 2-[[4-[1-methyl-4-(4-pyridinyl)-1<em>H</em>-pyrazol-3-yl]phenoxy]methyl]-;2-[[4-[1-Methyl-4-(4-pyridinyl)-1<em>H</em>-pyrazol-3-yl]phenoxy]methyl]quinoline;2-[(4-(1-Methyl-4-(pyridin-4-yl)-1<em>H</em>-pyrazol-3-yl)phenoxy)methyl]quinoline;MP 10;PF 2545920;Mardepodect;PF 02545920",
    "duplicated_cas_no": "",
    "SMILES": "CN1N=C(C(=C1)C=2C=CN=CC2)C3=CC=C(OCC4=NC5=C(C=C4)C=CC=C5)C=C3",
    "meta_data": {
        "InChI": "InChI=1S/C25H20N4O/c1-29-16-23(18-12-14-26-15-13-18)25(28-29)20-7-10-22(11-8-20)30-17-21-9-6-19-4-2-3-5-24(19)27-21/h2-16H,17H2,1H3",
        "InChIKey": null,
        "Canonical SMILES": "N=1C=CC(=CC1)C2=CN(N=C2C=3C=CC(OCC4=NC=5C=CC=CC5C=C4)=CC3)C",
        "Molecular Formula": "C<sub>25</sub>H<sub>20</sub>N<sub>4</sub>O",
        "Molecular Mass": "392.45",
        "Melting Point": "180-181 °C"
    }
}