{
    "cas_no": "55610-01-0",
    "key_name": "Cepharadione A",
    "cn_name": null,
    "alternate_name": "5<em>H</em>-Benzo[<em>g</em>]-1,3-benzodioxolo[6,5,4-<em>de</em>]quinoline-5,6(7<em>H</em>)-dione, 7-methyl-;7-Methyl-5<em>H</em>-benzo[<em>g</em>]-1,3-benzodioxolo[6,5,4-<em>de</em>]quinoline-5,6(7<em>H</em>)-dione;Cepharadione A;NSC 650435",
    "duplicated_cas_no": "",
    "SMILES": "CN1C=2C3=C(C4=C(C=C3C(=O)C1=O)OCO4)C=5C(C2)=CC=CC5",
    "meta_data": {
        "InChI": "InChI=1S/C18H11NO4/c1-19-12-6-9-4-2-3-5-10(9)15-14(12)11(16(20)18(19)21)7-13-17(15)23-8-22-13/h2-7H,8H2,1H3",
        "InChIKey": null,
        "Canonical SMILES": "O=C1C(=O)N(C2=CC=3C=CC=CC3C=4C=5OCOC5C=C1C24)C",
        "Molecular Formula": "C<sub>18</sub>H<sub>11</sub>NO<sub>4</sub>",
        "Molecular Mass": "305.28",
        "Melting Point": "338-340 °C"
    }
}