{
    "cas_no": "71675-85-9",
    "key_name": "Amisulpride",
    "cn_name": "阿米舒必利;4-氨基-N-[(1-乙基-2-吡咯烷基)甲基]-5-(乙基磺酰基)-2-甲氧基苯甲酰胺;",
    "alternate_name": "Benzamide, 4-amino-<em>N</em>-[(1-ethyl-2-pyrrolidinyl)methyl]-5-(ethylsulfonyl)-2-methoxy-;4-Amino-<em>N</em>-[(1-ethyl-2-pyrrolidinyl)methyl]-5-(ethylsulfonyl)-2-methoxybenzamide;Amisulpride;(±)-Amisulpride;DAN 2163;Aminosultopride;Solian;Socian;Deniban;4-Amino-<em>N</em>-[(1-ethylpyrrolidin-2-yl)methyl]-5-(ethylsulfonyl)-2-methoxybenzamide;Amipride;Paxiprid;Joykem;Barhemsys",
    "duplicated_cas_no": "97229-16-8",
    "SMILES": "C(NCC1N(CC)CCC1)(=O)C2=C(OC)C=C(N)C(S(CC)(=O)=O)=C2",
    "meta_data": {
        "InChI": "InChI=1S/C17H27N3O4S/c1-4-20-8-6-7-12(20)11-19-17(21)13-9-16(25(22,23)5-2)14(18)10-15(13)24-3/h9-10,12H,4-8,11,18H2,1-3H3,(H,19,21)",
        "InChIKey": null,
        "Canonical SMILES": "O=C(NCC1N(CC)CCC1)C=2C=C(C(N)=CC2OC)S(=O)(=O)CC",
        "Molecular Formula": "C<sub>17</sub>H<sub>27</sub>N<sub>3</sub>O<sub>4</sub>S",
        "Molecular Mass": "369.48",
        "Melting Point": "126-127 °C"
    }
}