{
    "cas_no": "147636-36-0",
    "key_name": "1-[(4-Methylphenyl)sulfonyl]-4-piperidinecarboxylic acid",
    "cn_name": null,
    "alternate_name": "4-Piperidinecarboxylic acid, 1-[(4-methylphenyl)sulfonyl]-;1-[(4-Methylphenyl)sulfonyl]-4-piperidinecarboxylic acid;1-Tosylpiperidine-4-carboxylic acid;1-(4-Methylbenzenesulfonyl)piperidine-4-carboxylic acid",
    "duplicated_cas_no": "",
    "SMILES": "S(=O)(=O)(N1CCC(C(O)=O)CC1)C2=CC=C(C)C=C2",
    "meta_data": {
        "InChI": "InChI=1S/C13H17NO4S/c1-10-2-4-12(5-3-10)19(17,18)14-8-6-11(7-9-14)13(15)16/h2-5,11H,6-9H2,1H3,(H,15,16)",
        "InChIKey": null,
        "Canonical SMILES": "O=C(O)C1CCN(CC1)S(=O)(=O)C2=CC=C(C=C2)C",
        "Molecular Formula": "C<sub>13</sub>H<sub>17</sub>NO<sub>4</sub>S",
        "Molecular Mass": "283.34",
        "Melting Point": "169-171 °C (decomp)"
    }
}