{
    "cas_no": "2043-57-4",
    "key_name": "1,1,1,2,2,3,3,4,4,5,5,6,6-Tridecafluoro-8-iodooctane",
    "cn_name": "1,1,1,2,2,3,3,4,4,5,5,6,6-十三氟-8-碘辛烷;",
    "alternate_name": "Octane, 1,1,1,2,2,3,3,4,4,5,5,6,6-tridecafluoro-8-iodo-;1,1,1,2,2,3,3,4,4,5,5,6,6-Tridecafluoro-8-iodooctane;3,3,4,4,5,5,6,6,7,7,8,8,8-Tridecafluorooctyl iodide;1-(2-Iodoethyl)tridecafluorohexane;2-(Perfluorohexyl)ethyl iodide;1-Iodo-1<em>H</em>,1<em>H</em>,2<em>H</em>,2<em>H</em>-perfluorooctane;2-Perfluorohexyl-1-iodoethane;1<em>H</em>,1<em>H</em>,2<em>H</em>,2<em>H</em>-Tridecafluorooctyl iodide;1<em>H</em>,1<em>H</em>,2<em>H</em>,2<em>H</em>-Perfluorooctyl iodide;1-Iodo-1<em>H</em>,1<em>H</em>,2<em>H</em>,2<em>H</em>-tridecafluorooctane;Perfluorohexylethyl iodide;1-Iodo-3,3,4,4,5,5,6,6,7,7,8,8,8-Tridecafluorooctane;1-Iodo-2-(perfluorohexyl)ethane;1<em>H</em>,1<em>H</em>,2<em>H</em>,2<em>H</em>-Tridecafluoro-<em>n</em>-octyl iodide",
    "duplicated_cas_no": "188639-80-7",
    "SMILES": "C(C(C(C(F)(F)F)(F)F)(F)F)(C(C(CCI)(F)F)(F)F)(F)F",
    "meta_data": {
        "InChI": "InChI=1S/C8H4F13I/c9-3(10,1-2-22)4(11,12)5(13,14)6(15,16)7(17,18)8(19,20)21/h1-2H2",
        "InChIKey": null,
        "Canonical SMILES": "FC(F)(F)C(F)(F)C(F)(F)C(F)(F)C(F)(F)C(F)(F)CCI",
        "Molecular Formula": "C<sub>8</sub>H<sub>4</sub>F<sub>13</sub>I",
        "Molecular Mass": "474.00",
        "Boiling Point": "180 °C"
    }
}