{
    "cas_no": "143-06-6",
    "key_name": "Hexamethylenediamine carbamate",
    "cn_name": "(6-氨基己基)氨基甲酸;六亚甲基二胺脲酸酯;",
    "alternate_name": "Carbamic acid, <em>N</em>-(6-aminohexyl)-;Carbamic acid, (6-aminohexyl)-;<em>N</em>-(6-Aminohexyl)carbamic acid;Diak 1;(6-Aminohexyl)carbamic acid;Hexamethylenediamine carbamate;Cheminox AC 6;Rhenogran HMDC 70/AEMD;Rhenogran HMDC 70;Cheminox AC 6-66;HMDC 1;Cheminox AC 6C;Cheminox AC 6F;Vulcofac HMDAC;Sanfel 6MC;VC 1 (vulcanizer);VC 1;Viton VC 1",
    "duplicated_cas_no": "15487-89-5;3027973-37-8",
    "SMILES": "C(CCCCN)CNC(=O)O",
    "meta_data": {
        "InChI": "InChI=1S/C7H16N2O2/c8-5-3-1-2-4-6-9-7(10)11/h9H,1-6,8H2,(H,10,11)",
        "InChIKey": null,
        "Canonical SMILES": "O=C(O)NCCCCCCN",
        "Molecular Formula": "C<sub>7</sub>H<sub>16</sub>N<sub>2</sub>O<sub>2</sub>",
        "Molecular Mass": "160.21",
        "Melting Point": "150 °C"
    }
}