{
    "cas_no": "2396-60-3",
    "key_name": "4-Methoxyazobenzene",
    "cn_name": "4-甲氧基偶氮苯;对苯偶氮苯甲醚;对甲氧基偶氮苯;",
    "alternate_name": "Diazene, 1-(4-methoxyphenyl)-2-phenyl-;Azobenzene, 4-methoxy-;Diazene, (4-methoxyphenyl)phenyl-;Anisole, <em>p</em>-(phenylazo)-;1-(4-Methoxyphenyl)-2-phenyldiazene;<em>p</em>-Methoxyazobenzene;4-Methoxyazobenzene;4-(Phenylazo)anisole;NSC 16044;(4-Methoxyphenyl)-phenyldiazene",
    "duplicated_cas_no": "",
    "SMILES": "N(=NC1=CC=CC=C1)C2=CC=C(OC)C=C2",
    "meta_data": {
        "InChI": "InChI=1S/C13H12N2O/c1-16-13-9-7-12(8-10-13)15-14-11-5-3-2-4-6-11/h2-10H,1H3",
        "InChIKey": null,
        "Canonical SMILES": "N(=NC1=CC=C(OC)C=C1)C=2C=CC=CC2",
        "Molecular Formula": "C<sub>13</sub>H<sub>12</sub>N<sub>2</sub>O",
        "Molecular Mass": "212.25",
        "Boiling Point": "340 °C",
        "Melting Point": "56 °C"
    }
}