{
    "cas_no": "1330-86-5",
    "key_name": "Diisooctyl adipate",
    "cn_name": null,
    "alternate_name": "Hexanedioic acid, 1,6-diisooctyl ester;Adipic acid, diisooctyl ester;Hexanedioic acid, diisooctyl ester;Isooctyl alcohol, adipate (2:1);Adipol 10A;Diisooctyl adipate;DIOA;DB 32;DB 32 (ester);Hatcol 2906",
    "duplicated_cas_no": "108778-22-9",
    "SMILES": "",
    "meta_data": {
        "InChI": "",
        "InChIKey": null,
        "Canonical SMILES": "",
        "Molecular Formula": "C<sub>22</sub>H<sub>42</sub>O<sub>4</sub>",
        "Molecular Mass": "",
        "Boiling Point": "205-220 °C @ Press: 4 Torr",
        "Melting Point": "-70 °C",
        "Density": "0.930 g/cm³ @ Temp: 20 °C"
    }
}