{
    "cas_no": "5521-58-4",
    "key_name": "5-Methyl-2-pyrazinamine",
    "cn_name": null,
    "alternate_name": "2-Pyrazinamine, 5-methyl-;Pyrazine, 2-amino-5-methyl-;Pyrazinamine, 5-methyl-;5-Methyl-2-pyrazinamine;2-Amino-5-methylpyrazine",
    "duplicated_cas_no": "",
    "SMILES": "CC=1C=NC(N)=CN1",
    "meta_data": {
        "InChI": "InChI=1S/C5H7N3/c1-4-2-8-5(6)3-7-4/h2-3H,1H3,(H2,6,8)",
        "InChIKey": null,
        "Canonical SMILES": "N=1C=C(N=CC1N)C",
        "Molecular Formula": "C<sub>5</sub>H<sub>7</sub>N<sub>3</sub>",
        "Molecular Mass": "109.13",
        "Boiling Point": "110 °C @ Press: 2 Torr",
        "Melting Point": "116-117 °C"
    }
}