{
    "cas_no": "22383-85-3",
    "key_name": "2,3,4-Trimethoxy-6-methylbenzaldehyde",
    "cn_name": "2,3,4-三甲氧基-6-甲基苯甲醛;",
    "alternate_name": "Benzaldehyde, 2,3,4-trimethoxy-6-methyl-;<em>o</em>-Tolualdehyde, 4,5,6-trimethoxy-;2,3,4-Trimethoxy-6-methylbenzaldehyde;2-Methyl-4,5,6-trimethoxybenzaldehyde;4,5,6-Trimethoxy-<em>o</em>-tolualdehyde",
    "duplicated_cas_no": "",
    "SMILES": "O(C)C1=C(OC)C(OC)=CC(C)=C1C=O",
    "meta_data": {
        "InChI": "InChI=1S/C11H14O4/c1-7-5-9(13-2)11(15-4)10(14-3)8(7)6-12/h5-6H,1-4H3",
        "InChIKey": null,
        "Canonical SMILES": "O=CC1=C(OC)C(OC)=C(OC)C=C1C",
        "Molecular Formula": "C<sub>11</sub>H<sub>14</sub>O<sub>4</sub>",
        "Molecular Mass": "210.23",
        "Melting Point": "61-61.4 °C"
    }
}