{
    "cas_no": "79-44-7",
    "key_name": "Dimethylcarbamoyl chloride",
    "cn_name": "二甲氨基甲酰氯;",
    "alternate_name": "Carbamic chloride, <em>N</em>,<em>N</em>-dimethyl-;Carbamic chloride, dimethyl-;Carbamoyl chloride, dimethyl-;<em>N</em>,<em>N</em>-Dimethylcarbamic chloride;Dimethylcarbamyl chloride;<em>N</em>,<em>N</em>-Dimethylcarbamyl chloride;<em>N</em>,<em>N</em>-Dimethylcarbamoyl chloride;(Dimethylamino)carbonyl chloride;Dimethylcarbamic acid chloride;Dimethylcarbamoyl chloride;<em>N</em>,<em>N</em>-Dimethylcarbamidoyl chloride;(<em>N</em>,<em>N</em>-Dimethylamino)carbonyl chloride;<em>N</em>,<em>N</em>-Dimethylcarbamic acid chloride;Dimethylchloroformamide;<em>N</em>,<em>N</em>-Dimethylchloroformamide;NSC 122671;1-Chloro-<em>N</em>,<em>N</em>-dimethylformamide",
    "duplicated_cas_no": "342009-25-0;2283397-74-8",
    "SMILES": "C(N(C)C)(Cl)=O",
    "meta_data": {
        "InChI": "InChI=1S/C3H6ClNO/c1-5(2)3(4)6/h1-2H3",
        "InChIKey": null,
        "Canonical SMILES": "O=C(Cl)N(C)C",
        "Molecular Formula": "C<sub>3</sub>H<sub>6</sub>ClNO",
        "Molecular Mass": "107.54",
        "Boiling Point": "167 °C",
        "Melting Point": "-33 °C",
        "Density": "1.168 g/cm³ @ Temp: 25 °C"
    }
}