{
    "cas_no": "39615-79-7",
    "key_name": "<em>N</em>-(Cyanoacetyl)-<em>N</em>,<em>N</em>′-dimethylurea",
    "cn_name": null,
    "alternate_name": "Acetamide, 2-cyano-<em>N</em>-methyl-<em>N</em>-[(methylamino)carbonyl]-;2-Cyano-<em>N</em>-methyl-<em>N</em>-[(methylamino)carbonyl]acetamide;<em>N</em>-(Cyanoacetyl)-<em>N</em>,<em>N</em>′-dimethylurea;<em>N</em>,<em>N</em>′-Dimethyl-<em>N</em>-cyanoacetylurea;1-(2-Cyanoacetyl)-1,3-dimethylurea",
    "duplicated_cas_no": "",
    "SMILES": "N(C(CC#N)=O)(C(NC)=O)C",
    "meta_data": {
        "InChI": "InChI=1S/C6H9N3O2/c1-8-6(11)9(2)5(10)3-4-7/h3H2,1-2H3,(H,8,11)",
        "InChIKey": null,
        "Canonical SMILES": "N#CCC(=O)N(C(=O)NC)C",
        "Molecular Formula": "C<sub>6</sub>H<sub>9</sub>N<sub>3</sub>O<sub>2</sub>",
        "Molecular Mass": "155.15",
        "Melting Point": "77 °C"
    }
}