{
    "cas_no": "756-09-2",
    "key_name": "Flupropanate",
    "cn_name": "3H-四氟丙酸;",
    "alternate_name": "Propanoic acid, 2,2,3,3-tetrafluoro-;Propionic acid, 2,2,3,3-tetrafluoro-;2,2,3,3-Tetrafluoropropanoic acid;2,2,3,3-Tetrafluoropropionic acid;ω-Hydrotetrafluoropropionic acid;Flupropanate;ω-Hydroperfluoropropionic acid",
    "duplicated_cas_no": "",
    "SMILES": "C(C(F)F)(C(O)=O)(F)F",
    "meta_data": {
        "InChI": "InChI=1S/C3H2F4O2/c4-1(5)3(6,7)2(8)9/h1H,(H,8,9)",
        "InChIKey": null,
        "Canonical SMILES": "O=C(O)C(F)(F)C(F)F",
        "Molecular Formula": "C<sub>3</sub>H<sub>2</sub>F<sub>4</sub>O<sub>2</sub>",
        "Molecular Mass": "146.04",
        "Boiling Point": "134 °C"
    }
}