{
    "cas_no": "73220-03-8",
    "key_name": "Remoxipride hydrochloride",
    "cn_name": null,
    "alternate_name": "Benzamide, 3-bromo-<em>N</em>-[[(2<em>S</em>)-1-ethyl-2-pyrrolidinyl]methyl]-2,6-dimethoxy-, hydrochloride (1:1);Benzamide, 3-bromo-<em>N</em>-[(1-ethyl-2-pyrrolidinyl)methyl]-2,6-dimethoxy-, monohydrochloride, (<em>S</em>)-;Benzamide, 3-bromo-<em>N</em>-[[(2<em>S</em>)-1-ethyl-2-pyrrolidinyl]methyl]-2,6-dimethoxy-, monohydrochloride;FLA 731, (-)-;(-)-FLA 731;Remoxipride hydrochloride;A 33547 hydrochloride;Roxiam;A 33547;FLA 731",
    "duplicated_cas_no": "78810-02-3;82132-34-1",
    "SMILES": "C(NC[C@H]1N(CC)CCC1)(=O)C2=C(OC)C(Br)=CC=C2OC.Cl",
    "meta_data": {
        "InChI": "InChI=1S/C16H23BrN2O3.ClH/c1-4-19-9-5-6-11(19)10-18-16(20)14-13(21-2)8-7-12(17)15(14)22-3;/h7-8,11H,4-6,9-10H2,1-3H3,(H,18,20);1H/t11-;/m0./s1",
        "InChIKey": null,
        "Canonical SMILES": "Cl.O=C(NCC1N(CC)CCC1)C=2C(OC)=CC=C(Br)C2OC",
        "Molecular Formula": "C<sub>16</sub>H<sub>23</sub>BrN<sub>2</sub>O<sub>3</sub>.ClH",
        "Molecular Mass": "",
        "Melting Point": "168-169 °C"
    }
}