{
    "cas_no": "275-51-4",
    "key_name": "Azulene",
    "cn_name": "甘菊蓝;",
    "alternate_name": "Azulene;Bicyclo[5.3.0]decapentaene;Cyclopentacycloheptene;NSC 89248",
    "duplicated_cas_no": "",
    "SMILES": "C1=2C(=CC=C1)C=CC=CC2",
    "meta_data": {
        "InChI": "InChI=1S/C10H8/c1-2-5-9-7-4-8-10(9)6-3-1/h1-8H",
        "InChIKey": null,
        "Canonical SMILES": "C=1C=CC2=CC=CC2=CC1",
        "Molecular Formula": "C<sub>10</sub>H<sub>8</sub>",
        "Molecular Mass": "128.17",
        "Boiling Point": "135.6 °C @ Press: 1.10000061035156 Torr",
        "Melting Point": "99 °C",
        "Density": "0.98771 g/cm³ @ Temp: 25 °C"
    }
}