{
    "cas_no": "369-34-6",
    "key_name": "3,4-Difluoronitrobenzene",
    "cn_name": "3,4-二氟硝基苯;",
    "alternate_name": "Benzene, 1,2-difluoro-4-nitro-;1,2-Difluoro-4-nitrobenzene;3,4-Difluoronitrobenzene;4-Nitro-1,2-difluorobenzene;3,4-Difluoro-1-nitrobenzene",
    "duplicated_cas_no": "",
    "SMILES": "N(=O)(=O)C1=CC(F)=C(F)C=C1",
    "meta_data": {
        "InChI": "InChI=1S/C6H3F2NO2/c7-5-2-1-4(9(10)11)3-6(5)8/h1-3H",
        "InChIKey": null,
        "Canonical SMILES": "O=N(=O)C1=CC=C(F)C(F)=C1",
        "Molecular Formula": "C<sub>6</sub>H<sub>3</sub>F<sub>2</sub>NO<sub>2</sub>",
        "Molecular Mass": "159.09",
        "Boiling Point": "80-81 °C @ Press: 14 Torr"
    }
}