{
    "cas_no": "100-32-3",
    "key_name": "Bis(4-nitrophenyl) disulfide",
    "cn_name": "4,4\"-二硝基二苯二硫醚;",
    "alternate_name": "Disulfide, bis(4-nitrophenyl);Disulfide, bis(<em>p</em>-nitrophenyl);Bis(4-nitrophenyl) disulfide;Bis(<em>p</em>-nitrophenyl) disulfide;<em>p</em>-Nitrophenyl disulfide;<em>p</em>,<em>p</em>′-Dinitrodiphenyl disulfide;4,4′-Dinitrodiphenyl disulfide;Di-4-nitrophenyl disulfide;Di(<em>p</em>-nitrophenyl) disulfide;NSC 677446;NSC 4566;Bis(p-nitrophenyl)disulfide;1-Nitro-4-[(4-nitrophenyl)disulfanyl]benzene;1,2-Bis(4-nitrophenyl)disulfane;1,1′-dithiobis(4-nitrobenzene)",
    "duplicated_cas_no": "",
    "SMILES": "N(=O)(=O)C1=CC=C(SSC2=CC=C(N(=O)=O)C=C2)C=C1",
    "meta_data": {
        "InChI": "InChI=1S/C12H8N2O4S2/c15-13(16)9-1-5-11(6-2-9)19-20-12-7-3-10(4-8-12)14(17)18/h1-8H",
        "InChIKey": null,
        "Canonical SMILES": "O=N(=O)C1=CC=C(SSC2=CC=C(C=C2)N(=O)=O)C=C1",
        "Molecular Formula": "C<sub>12</sub>H<sub>8</sub>N<sub>2</sub>O<sub>4</sub>S<sub>2</sub>",
        "Molecular Mass": "308.33",
        "Melting Point": "181 °C"
    }
}