{
    "cas_no": "84-47-9",
    "key_name": "2-<em>tert</em>-Butylanthraquinone",
    "cn_name": "2-叔丁基蒽醌;",
    "alternate_name": "9,10-Anthracenedione, 2-(1,1-dimethylethyl)-;Anthraquinone, 2-<em>tert</em>-butyl-;2-(1,1-Dimethylethyl)-9,10-anthracenedione;2-<em>tert</em>-Butylanthraquinone;β-<em>tert</em>-Butylanthraquinone;2-<em>tert</em>-Butyl-9,10-anthraquinone;NSC 30548",
    "duplicated_cas_no": "",
    "SMILES": "O=C1C=2C(C(=O)C=3C1=CC=CC3)=CC=C(C(C)(C)C)C2",
    "meta_data": {
        "InChI": "InChI=1S/C18H16O2/c1-18(2,3)11-8-9-14-15(10-11)17(20)13-7-5-4-6-12(13)16(14)19/h4-10H,1-3H3",
        "InChIKey": null,
        "Canonical SMILES": "O=C1C=2C=CC=CC2C(=O)C3=CC(=CC=C13)C(C)(C)C",
        "Molecular Formula": "C<sub>18</sub>H<sub>16</sub>O<sub>2</sub>",
        "Molecular Mass": "264.32",
        "Melting Point": "98 °C"
    }
}