{
    "cas_no": "16832-24-9",
    "key_name": "1-(Phenylmethyl)-<span class=\"text-smallcaps\">L</span>-histidine",
    "cn_name": null,
    "alternate_name": "<span class=\"text-smallcaps\">L</span>-Histidine, 1-(phenylmethyl)-;Histidine, 1-benzyl-, <span class=\"text-smallcaps\">L</span>-;Histidine, 1-benzyl-;Imidazole-4-alanine, 1-benzyl-;1-(Phenylmethyl)-<span class=\"text-smallcaps\">L</span>-histidine;1-Benzyl-<span class=\"text-smallcaps\">L</span>-histidine;3-Benzyl-<span class=\"text-smallcaps\">L</span>-histidine;1-Benzylhistidine;NSC 231954;(<em>S</em>)-2-Amino-3-(1-benzyl-1<em>H</em>-imidazol-4-yl)propanoicacid;(<em>S</em>)-2-Amino-3-(1-benzyl-1<em>H</em>-imidazol-4-yl)propanoic acid",
    "duplicated_cas_no": "129702-08-5",
    "SMILES": "C(N1C=C(C[C@@H](C(O)=O)N)N=C1)C2=CC=CC=C2",
    "meta_data": {
        "InChI": "InChI=1S/C13H15N3O2/c14-12(13(17)18)6-11-8-16(9-15-11)7-10-4-2-1-3-5-10/h1-5,8-9,12H,6-7,14H2,(H,17,18)/t12-/m0/s1",
        "InChIKey": null,
        "Canonical SMILES": "O=C(O)C(N)CC=1N=CN(C1)CC=2C=CC=CC2",
        "Molecular Formula": "C<sub>13</sub>H<sub>15</sub>N<sub>3</sub>O<sub>2</sub>",
        "Molecular Mass": "245.28",
        "Melting Point": "240 °C"
    }
}