{
    "cas_no": "121-66-4",
    "key_name": "2-Amino-5-nitrothiazole",
    "cn_name": "2-氨基-5-硝基噻唑;",
    "alternate_name": "2-Thiazolamine, 5-nitro-;Thiazole, 2-amino-5-nitro-;5-Nitro-2-thiazolamine;2-Amino-5-nitrothiazole;Enheptin;Entramin;5-Nitro-2-thiazolylamine;Amnizol soluble;Enheptin T;Nitramin IDO;5-Nitro-2-aminothiazole;2-Amino-5-nitro-1,3-thiazole;2-Amino-4-nitrothiazole;NSC 4;5-Nitro-thiazole-2-ylamine",
    "duplicated_cas_no": "8017-93-4;8023-00-5",
    "SMILES": "N(=O)(=O)C=1SC(N)=NC1",
    "meta_data": {
        "InChI": "InChI=1S/C3H3N3O2S/c4-3-5-1-2(9-3)6(7)8/h1H,(H2,4,5)",
        "InChIKey": null,
        "Canonical SMILES": "O=N(=O)C=1SC(=NC1)N",
        "Molecular Formula": "C<sub>3</sub>H<sub>3</sub>N<sub>3</sub>O<sub>2</sub>S",
        "Molecular Mass": "145.14",
        "Melting Point": "202 °C (decomp)"
    }
}