{
    "cas_no": "97-61-0",
    "key_name": "2-Methylvaleric acid",
    "cn_name": "2-甲基戊酸;",
    "alternate_name": "Pentanoic acid, 2-methyl-;Valeric acid, 2-methyl-;Valeric acid, α-methyl-;2-Methylpentanoic acid;Methylpropylacetic acid;α-Methylvaleric acid;2-Methylvaleric acid;2-Pentanecarboxylic acid;2-Methyl-<em>n</em>-valeric acid;<span class=\"text-smallcaps\">DL</span>-2-Methylpentanoic acid;(±)-2-Methylpentanoic acid;NSC 8406",
    "duplicated_cas_no": "22160-39-0",
    "SMILES": "C(CCC)(C(O)=O)C",
    "meta_data": {
        "InChI": "InChI=1S/C6H12O2/c1-3-4-5(2)6(7)8/h5H,3-4H2,1-2H3,(H,7,8)",
        "InChIKey": null,
        "Canonical SMILES": "O=C(O)C(C)CCC",
        "Molecular Formula": "C<sub>6</sub>H<sub>12</sub>O<sub>2</sub>",
        "Molecular Mass": "116.16",
        "Boiling Point": "196.5 °C",
        "Density": "0.920 g/cm³ @ Temp: 25 °C"
    }
}