{
    "cas_no": "181231-67-4",
    "key_name": "1-Butyl-<em>N</em>,<em>N</em>,1,1-tetramethylsilanamine",
    "cn_name": "丁基二甲基(二甲氨基)硅烷;",
    "alternate_name": "Silanamine, 1-butyl-<em>N</em>,<em>N</em>,1,1-tetramethyl-;1-Butyl-<em>N</em>,<em>N</em>,1,1-tetramethylsilanamine;Butyldimethyl(dimethylamino)silane;(Butyldimethylsilyl)dimethylamine",
    "duplicated_cas_no": "",
    "SMILES": "[Si](N(C)C)(CCCC)(C)C",
    "meta_data": {
        "InChI": "InChI=1S/C8H21NSi/c1-6-7-8-10(4,5)9(2)3/h6-8H2,1-5H3",
        "InChIKey": null,
        "Canonical SMILES": "N(C)(C)[Si](C)(C)CCCC",
        "Molecular Formula": "C<sub>8</sub>H<sub>21</sub>NSi",
        "Molecular Mass": "159.34",
        "Boiling Point": "47-49 °C @ Press: 12 Torr",
        "Density": "0.772 g/cm³"
    }
}