{
    "cas_no": "6575-09-3",
    "key_name": "2-Chloro-6-methylbenzonitrile",
    "cn_name": null,
    "alternate_name": "Benzonitrile, 2-chloro-6-methyl-;<em>o</em>-Tolunitrile, 6-chloro-;2-Chloro-6-methylbenzonitrile;2-Cyano-3-chlorotoluene;6-Chloro-2-methylbenzonitrile;1-Cyano-2-chloro-6-methylbenzene;NSC 80657",
    "duplicated_cas_no": "",
    "SMILES": "C(#N)C1=C(C)C=CC=C1Cl",
    "meta_data": {
        "InChI": "InChI=1S/C8H6ClN/c1-6-3-2-4-8(9)7(6)5-10/h2-4H,1H3",
        "InChIKey": null,
        "Canonical SMILES": "N#CC=1C(Cl)=CC=CC1C",
        "Molecular Formula": "C<sub>8</sub>H<sub>6</sub>ClN",
        "Molecular Mass": "151.59",
        "Melting Point": "83-85 °C"
    }
}