{
    "cas_no": "72-20-8",
    "key_name": "Endrin",
    "cn_name": null,
    "alternate_name": "2,7:3,6-Dimethanonaphth[2,3-<em>b</em>]oxirene, 3,4,5,6,9,9-hexachloro-1a,2,2a,3,6,6a,7,7a-octahydro-, (1a<em>R</em>,2<em>R</em>,2a<em>R</em>,3<em>R</em>,6<em>S</em>,6a<em>S</em>,7<em>S</em>,7a<em>S</em>)-<em>rel</em>-;1,4:5,8-Dimethanonaphthalene, 1,2,3,4,10,10-hexachloro-6,7-epoxy-1,4,4a,5,6,7,8,8a-octahydro-, <em>endo</em>,<em>endo</em>-;2,7:3,6-Dimethanonaphth[2,3-<em>b</em>]oxirene, 3,4,5,6,9,9-hexachloro-1a,2,2a,3,6,6a,7,7a-octahydro-, (1aα,2β,2aβ,3α,6α,6aβ,7β,7aα)-;<em>rel</em>-(1a<em>R</em>,2<em>R</em>,2a<em>R</em>,3<em>R</em>,6<em>S</em>,6a<em>S</em>,7<em>S</em>,7a<em>S</em>)-3,4,5,6,9,9-Hexachloro-1a,2,2a,3,6,6a,7,7a-octahydro-2,7:3,6-dimethanonaphth[2,3-<em>b</em>]oxirene;Endrin;Experimental Insecticide 269;1,2,3,4,10,10-Hexachloro-6,7-epoxy-1,4,4a,5,6,7,8,8a-octahydro-<em>endo</em>-1,4-<em>endo</em>-5,8-dimethanonaphthalene;Mendrin;Compd. 269;1,2,3,4,10,10-Hexachloro-6,7-epoxy-1,4,4a,5,6,7,8,8a-octahydro-<em>endo</em>-<em>endo</em>-1,4:5,8-dimethanonaphthalene;SD 3419;EN 57;Endricol;Oktanex;Endrex;Hexadrin;Stardrin 20;Stardrin;MeSH ID: D004732",
    "duplicated_cas_no": "8072-14-8;12715-94-5;18466-93-8;25320-73-4;1195294-62-2",
    "SMILES": "Cl[C@]12[C@@]3([C@]([C@](Cl)([C@@]1(Cl)Cl)C(Cl)=C2Cl)([C@]4(C[C@@]3([C@]5([C@@]4(O5)[H])[H])[H])[H])[H])[H]",
    "meta_data": {
        "InChI": "InChI=1/C12H8Cl6O/c13-8-9(14)11(16)5-3-1-2(6-7(3)19-6)4(5)10(8,15)12(11,17)18/h2-7H,1H2/t2-,3+,4-,5+,6-,7+,10-,11+",
        "InChIKey": null,
        "Canonical SMILES": "ClC1=C(Cl)C2(Cl)C3C4CC(C5OC54)C3C1(Cl)C2(Cl)Cl",
        "Molecular Formula": "C<sub>12</sub>H<sub>8</sub>Cl<sub>6</sub>O",
        "Molecular Mass": "380.91",
        "Melting Point": "200 °C",
        "Density": "1.7 g/cm³ @ Temp: 20 °C"
    }
}