{
    "cas_no": "58481-14-4",
    "key_name": "Ethyl 2-cyano-4-pyridinecarboxylate",
    "cn_name": null,
    "alternate_name": "4-Pyridinecarboxylic acid, 2-cyano-, ethyl ester;Ethyl 2-cyano-4-pyridinecarboxylate;Ethyl 2-cyanoisonicotinate;2-Cyanoisonicotinic acid ethyl ester",
    "duplicated_cas_no": "",
    "SMILES": "C(OCC)(=O)C=1C=C(C#N)N=CC1",
    "meta_data": {
        "InChI": "InChI=1S/C9H8N2O2/c1-2-13-9(12)7-3-4-11-8(5-7)6-10/h3-5H,2H2,1H3",
        "InChIKey": null,
        "Canonical SMILES": "N#CC1=NC=CC(=C1)C(=O)OCC",
        "Molecular Formula": "C<sub>9</sub>H<sub>8</sub>N<sub>2</sub>O<sub>2</sub>",
        "Molecular Mass": "176.17",
        "Boiling Point": "180 °C @ Press: 14 Torr",
        "Melting Point": "42-44 °C"
    }
}