{
    "cas_no": "484-29-7",
    "key_name": "Dictamnine",
    "cn_name": "白鲜碱; 4-甲氧基呋喃并[2,3-b]喹啉;",
    "alternate_name": "Furo[2,3-<em>b</em>]quinoline, 4-methoxy-;Dictamnine;4-Methoxyfuro[2,3-<em>b</em>]quinoline;Dictamine;Dectamine",
    "duplicated_cas_no": "",
    "SMILES": "O(C)C1=C2C(=NC=3C1=CC=CC3)OC=C2",
    "meta_data": {
        "InChI": "InChI=1S/C12H9NO2/c1-14-11-8-4-2-3-5-10(8)13-12-9(11)6-7-15-12/h2-7H,1H3",
        "InChIKey": null,
        "Canonical SMILES": "N1=C2OC=CC2=C(OC)C=3C=CC=CC13",
        "Molecular Formula": "C<sub>12</sub>H<sub>9</sub>NO<sub>2</sub>",
        "Molecular Mass": "199.21",
        "Melting Point": "133.5 °C"
    }
}