{
    "cas_no": "7787-49-7",
    "key_name": "Beryllium fluoride (BeF<sub>2</sub>)",
    "cn_name": "二氟化铍;",
    "alternate_name": "Beryllium fluoride (BeF<sub>2</sub>);Beryllium fluoride;Beryllium difluoride;NSC 84264",
    "duplicated_cas_no": "12323-05-6;2018280-18-5",
    "SMILES": "[Be](F)F",
    "meta_data": {
        "InChI": "InChI=1S/Be.2FH/h;2*1H/q+2;;/p-2",
        "InChIKey": null,
        "Canonical SMILES": "F[Be]F",
        "Molecular Formula": "BeF<sub>2</sub>",
        "Molecular Mass": "",
        "Boiling Point": "1160 °C",
        "Melting Point": "555 °C",
        "Density": "1.986 g/cm³ @ Temp: 25 °C"
    }
}