{
    "cas_no": "131-55-5",
    "key_name": "2,2′,4,4′-Tetrahydroxybenzophenone",
    "cn_name": "2,2\",4,4\"-四羟基二苯甲酮;",
    "alternate_name": "Methanone, bis(2,4-dihydroxyphenyl)-;Benzophenone, 2,2′,4,4′-tetrahydroxy-;Bis(2,4-dihydroxyphenyl)methanone;Uvinul D 50;2,2′,4,4′-Tetrahydroxybenzophenone;2,4,2′,4′-Tetrahydroxybenzophenone;Benzophenone 2;T 0118;Sumisorb 150;Seesorb 106;Uvinul 3050;NSC 38556;2,2′,4,4′-Tetrahydroxy diphenyl ketone;Dainsorb P 6;SUV 1;BP 2;Eversorb 51;Uninul 3050",
    "duplicated_cas_no": "53236-95-6",
    "SMILES": "C(=O)(C1=C(O)C=C(O)C=C1)C2=C(O)C=C(O)C=C2",
    "meta_data": {
        "InChI": "InChI=1S/C13H10O5/c14-7-1-3-9(11(16)5-7)13(18)10-4-2-8(15)6-12(10)17/h1-6,14-17H",
        "InChIKey": null,
        "Canonical SMILES": "O=C(C1=CC=C(O)C=C1O)C2=CC=C(O)C=C2O",
        "Molecular Formula": "C<sub>13</sub>H<sub>10</sub>O<sub>5</sub>",
        "Molecular Mass": "246.22",
        "Boiling Point": "354 °C",
        "Melting Point": "196-198 °C"
    }
}