{
    "cas_no": "109-17-1",
    "key_name": "Tetraethylene glycol, dimethacrylate",
    "cn_name": "四乙二醇二甲基丙烯酸酯;四甘醇二-2-甲基丙烯酸酯;二甲基丙烯酸三缩四乙二醇酯;",
    "alternate_name": "2-Propenoic acid, 2-methyl-, 1,1′-[oxybis(2,1-ethanediyloxy-2,1-ethanediyl)] ester;Methacrylic acid, diester with tetraethylene glycol;2-Propenoic acid, 2-methyl-, oxybis(2,1-ethanediyloxy-2,1-ethanediyl) ester;Tetraethylene glycol, dimethacrylate;TGM 4;SR 209;TeEGDMA;NK Ester 4G;4G;NSC 84253;TEGDMA;Light Ester 4G;Tetraethylene glycol dimethacrylate;2-[2-[2-[2-(2-Methylprop-2-enoyloxy)ethoxy]ethoxy]ethoxy]ethyl 2-methylprop-2-enoate",
    "duplicated_cas_no": "51269-42-2;76611-54-6;122609-32-9;141313-76-0;2237225-56-6",
    "SMILES": "O(C(C(C)=C)=O)CCOCCOCCOCCOC(C(C)=C)=O",
    "meta_data": {
        "InChI": "InChI=1S/C16H26O7/c1-13(2)15(17)22-11-9-20-7-5-19-6-8-21-10-12-23-16(18)14(3)4/h1,3,5-12H2,2,4H3",
        "InChIKey": null,
        "Canonical SMILES": "O=C(OCCOCCOCCOCCOC(=O)C(=C)C)C(=C)C",
        "Molecular Formula": "C<sub>16</sub>H<sub>26</sub>O<sub>7</sub>",
        "Molecular Mass": "330.37",
        "Boiling Point": "220 °C"
    }
}