{
    "cas_no": "4420-74-0",
    "key_name": "(3-Mercaptopropyl)trimethoxysilane",
    "cn_name": "巯丙基三甲氧基硅烷;",
    "alternate_name": "1-Propanethiol, 3-(trimethoxysilyl)-;3-(Trimethoxysilyl)-1-propanethiol;(γ-Mercaptopropyl)trimethoxysilane;A 189;(3-Mercaptopropyl)trimethoxysilane;3-(Trimethoxysilyl)propanethiol;Z 6062;Silane A 189;NUC-A 189;SH 6062;KBM 803;MPS-M;M 8500;KBE 803;Sila-Ace S 810;TSL 8380;Prosil 196;(3-Thiopropyl)trimethoxysilane;GF 70;3-(Trimethoxysilyl)propyl mercaptan;TSL 8380E;MPS;AZ 6129;Silquest A 189;KBM 803P;3-(Sulfanylpropyl)trimethoxysilane;Silan GF 70;M 8500 (coupling agent);3-Mercaptopropyl trimethoxylsilane;Dynasylan MTMO;Dynasylan NTNS;VP-Si 163;3-MPTMS;A 160;A 160 (coupling agent);KH 590;LS 1390;S 810;SIM 6476.0;MPTS;SiSiB PC 2300;MPTMS;WD 80;SCA 903;M 0928;Silanogran M;LMD 80;A 183 (coupling agent);A 183;Silquest A 160;DB 590;KH 591;γ-Thiolpropyltrimethoxysilane;Trimethoxy-3-mercaptopropylsilane;Silanil 442;JH-S 189;Mercaptan Y;Xiameter OFS 6062;A 189Z;HS 1389;K 590",
    "duplicated_cas_no": "53241-23-9;56938-96-6;89468-78-0;161756-15-6;383189-28-4;1818863-79-4",
    "SMILES": "[Si](CCCS)(OC)(OC)OC",
    "meta_data": {
        "InChI": "InChI=1S/C6H16O3SSi/c1-7-11(8-2,9-3)6-4-5-10/h10H,4-6H2,1-3H3",
        "InChIKey": null,
        "Canonical SMILES": "SCCC[Si](OC)(OC)OC",
        "Molecular Formula": "C<sub>6</sub>H<sub>16</sub>O<sub>3</sub>SSi",
        "Molecular Mass": "196.34",
        "Boiling Point": "93 °C @ Press: 40 Torr",
        "Density": "1.051 g/cm³ @ Temp: 25 °C"
    }
}