{
    "cas_no": "629-98-1",
    "key_name": "Erucyl alcohol",
    "cn_name": "顺-13-二十二烯醇;瓢儿菜醇;13-二十二烯醇;",
    "alternate_name": "13-Docosen-1-ol, (13<em>Z</em>)-;13-Docosen-1-ol, (<em>Z</em>)-;(13<em>Z</em>)-13-Docosen-1-ol;Erucyl alcohol;<em>cis</em>-13-Docosenol;Erucic alcohol;13(Z)-Docosen-1-ol;(<em>Z</em>)-13-Docosene-1-ol",
    "duplicated_cas_no": "",
    "SMILES": "C(C/C=C\\CCCCCCCC)CCCCCCCCCCO",
    "meta_data": {
        "InChI": "InChI=1S/C22H44O/c1-2-3-4-5-6-7-8-9-10-11-12-13-14-15-16-17-18-19-20-21-22-23/h9-10,23H,2-8,11-22H2,1H3/b10-9-",
        "InChIKey": null,
        "Canonical SMILES": "OCCCCCCCCCCCCC=CCCCCCCCC",
        "Molecular Formula": "C<sub>22</sub>H<sub>44</sub>O",
        "Molecular Mass": "324.58",
        "Boiling Point": "200-205 °C @ Press: 1 Torr",
        "Melting Point": "35 °C"
    }
}