{
    "cas_no": "10294-33-4",
    "key_name": "Boron tribromide",
    "cn_name": "三溴化硼;",
    "alternate_name": "Borane, tribromo-;Boron bromide (BBr<sub>3</sub>);Tribromoborane;Boron bromide;Boron tribromide;Tribromoboron;Boron(III) bromide",
    "duplicated_cas_no": "5967-37-3",
    "SMILES": "B(Br)(Br)Br",
    "meta_data": {
        "InChI": "InChI=1S/BBr3/c2-1(3)4",
        "InChIKey": null,
        "Canonical SMILES": "BrB(Br)Br",
        "Molecular Formula": "BBr<sub>3</sub>",
        "Molecular Mass": "250.52",
        "Boiling Point": "90 °C",
        "Melting Point": "-46.0 °C",
        "Density": "2.6431 g/cm³ @ Temp: 18.4 °C"
    }
}