{
    "cas_no": "5094-24-6",
    "key_name": "Butanoic acid, 2-hydroxy-, sodium salt (1:1)",
    "cn_name": "DL-2-羟基基丁酸钠盐;",
    "alternate_name": "Butanoic acid, 2-hydroxy-, sodium salt (1:1);Butyric acid, 2-hydroxy-, monosodium salt;Butanoic acid, 2-hydroxy-, monosodium salt;Sodium α-hydroxybutyrate;Sodium 2-hydroxybutyrate;2-Hydroxybutyric acid sodium salt;Sodium 2-hydroxybutanoate;Butyric acid, 2-hydroxy-, monosodium salt, <span class=\"text-smallcaps\">DL</span>-;<span class=\"text-smallcaps\">DL</span>-α-Hydroxybutyric acid sodium salt;Butanoic acid, 2-hydroxy-, monosodium salt, (±)-;Sodium (±)-2-hydroxybutyrate;2-Hydroxybutanoic acid sodium salt;Sodium (<span class=\"text-smallcaps\">DL</span>)-α-hydroxybutyrate",
    "duplicated_cas_no": "19054-57-0",
    "SMILES": "C(C(O)=O)(CC)O.[Na]",
    "meta_data": {
        "InChI": "InChI=1S/C4H8O3.Na/c1-2-3(5)4(6)7;/h3,5H,2H2,1H3,(H,6,7);",
        "InChIKey": null,
        "Canonical SMILES": "[Na].O=C(O)C(O)CC",
        "Molecular Formula": "C<sub>4</sub>H<sub>8</sub>O<sub>3</sub>.Na",
        "Molecular Mass": "",
        "Boiling Point": "108 °C"
    }
}