{
    "cas_no": "6201-65-6",
    "key_name": "2-Chlororesorcinol",
    "cn_name": "2-氯-1,3-苯二酚;2-氯间苯二酚;2,6-二羟基氯苯;",
    "alternate_name": "1,3-Benzenediol, 2-chloro-;Resorcinol, 2-chloro-;2-Chloro-1,3-benzenediol;2-Chlororesorcinol;2-Chloro-1,3-dihydroxybenzene;2-Chlororesorcin",
    "duplicated_cas_no": "",
    "SMILES": "ClC1=C(O)C=CC=C1O",
    "meta_data": {
        "InChI": "InChI=1S/C6H5ClO2/c7-6-4(8)2-1-3-5(6)9/h1-3,8-9H",
        "InChIKey": null,
        "Canonical SMILES": "ClC=1C(O)=CC=CC1O",
        "Molecular Formula": "C<sub>6</sub>H<sub>5</sub>ClO<sub>2</sub>",
        "Molecular Mass": "144.56",
        "Melting Point": "97-98 °C"
    }
}