{
    "cas_no": "2107-69-9",
    "key_name": "5,6-Dimethoxy-1-indanone",
    "cn_name": "5,6-二甲氧基茚酮;",
    "alternate_name": "1<em>H</em>-Inden-1-one, 2,3-dihydro-5,6-dimethoxy-;1-Indanone, 5,6-dimethoxy-;2,3-Dihydro-5,6-dimethoxy-1<em>H</em>-inden-1-one;5,6-Dimethoxy-1-indanone;NSC 401450;5,6-Dimethoxy-2,3-dihydro-1<em>H</em>-inden-1-one;2,3-Dihydro-5,6-dimethoxyinden-1-one",
    "duplicated_cas_no": "1082840-87-6",
    "SMILES": "O=C1C=2C(=CC(OC)=C(OC)C2)CC1",
    "meta_data": {
        "InChI": "InChI=1S/C11H12O3/c1-13-10-5-7-3-4-9(12)8(7)6-11(10)14-2/h5-6H,3-4H2,1-2H3",
        "InChIKey": null,
        "Canonical SMILES": "O=C1C2=CC(OC)=C(OC)C=C2CC1",
        "Molecular Formula": "C<sub>11</sub>H<sub>12</sub>O<sub>3</sub>",
        "Molecular Mass": "192.21",
        "Boiling Point": "138-139 °C @ Press: 2 Torr",
        "Melting Point": "120 °C"
    }
}