{
    "cas_no": "19788-37-5",
    "key_name": "4-(Chloromethyl)-3,5-dimethylisoxazole",
    "cn_name": "4-氯甲基-3,5-二甲基异噁唑;",
    "alternate_name": "Isoxazole, 4-(chloromethyl)-3,5-dimethyl-;4-(Chloromethyl)-3,5-dimethylisoxazole;3,5-Dimethyl-4-chloromethylisoxazole;(3,5-Dimethylisoxazol-4-yl)methyl chloride",
    "duplicated_cas_no": "2412579-44-1",
    "SMILES": "C(Cl)C=1C(C)=NOC1C",
    "meta_data": {
        "InChI": "InChI=1S/C6H8ClNO/c1-4-6(3-7)5(2)9-8-4/h3H2,1-2H3",
        "InChIKey": null,
        "Canonical SMILES": "ClCC=1C(=NOC1C)C",
        "Molecular Formula": "C<sub>6</sub>H<sub>8</sub>ClNO",
        "Molecular Mass": "145.59",
        "Boiling Point": "87-88 °C @ Press: 8 Torr",
        "Density": "1.173 g/cm³ @ Temp: 20 °C"
    }
}