{
    "cas_no": "50675-21-3",
    "key_name": "1-Methyl-4-piperidinecarboxaldehyde",
    "cn_name": null,
    "alternate_name": "4-Piperidinecarboxaldehyde, 1-methyl-;1-Methyl-4-piperidinecarboxaldehyde;1-Methylpiperidine-4-carbaldehyde",
    "duplicated_cas_no": "",
    "SMILES": "C(=O)C1CCN(C)CC1",
    "meta_data": {
        "InChI": "InChI=1S/C7H13NO/c1-8-4-2-7(6-9)3-5-8/h6-7H,2-5H2,1H3",
        "InChIKey": null,
        "Canonical SMILES": "O=CC1CCN(C)CC1",
        "Molecular Formula": "C<sub>7</sub>H<sub>13</sub>NO",
        "Molecular Mass": "127.18",
        "Boiling Point": "60-62 °C @ Press: 6 Torr",
        "Density": "0.9574 g/cm³ @ Temp: 20 °C"
    }
}