{
    "cas_no": "1898-66-4",
    "key_name": "DPPH radical",
    "cn_name": "1,1-二苯基-2-苦基肼;A,A二苯基Β苦基肼基游离基;",
    "alternate_name": "Hydrazinyl, 2,2-diphenyl-1-(2,4,6-trinitrophenyl)-;Hydrazyl, 2,2-diphenyl-1-picryl-;Hydrazyl, 2,2-diphenyl-1-(2,4,6-trinitrophenyl)-;2,2-Diphenyl-1-(2,4,6-trinitrophenyl)hydrazinyl;2,2-Diphenyl-1-picrylhydrazyl;Diphenylpicrylhydrazyl;<em>N</em>,<em>N</em>-Diphenyl-<em>N</em>′-picrylhydrazyl;α,α-Diphenyl-β-picrylhydrazyl;1,1-Diphenyl-2-picrylhydrazyl;DPPH;2,2-Diphenylpicrylhydrazyl;1,1-Diphenyl-2-picrylhydrazyl radical;2,2-Diphenyl-1-(2,4,6-trinitrophenyl)hydrazinyl (DPPH radical);DPPH radical;DPPH method;DPPH assay;Di(phenyl)(2,4,6-trinitrophenyl)iminoazanium;2,2-Diphenyl-1-picrylhydrazyl radical;D 4313;DPPH radical scavenging assay",
    "duplicated_cas_no": "111051-84-4;56537-16-7",
    "SMILES": "",
    "meta_data": {
        "InChI": "",
        "InChIKey": null,
        "Canonical SMILES": "",
        "Molecular Formula": "C<sub>18</sub>H<sub>12</sub>N<sub>5</sub>O<sub>6</sub>",
        "Molecular Mass": "",
        "Melting Point": "129 °C (decomp)",
        "Density": "1.484 g/cm³"
    }
}