{
    "cas_no": "22948-02-3",
    "key_name": "3-Aminothiophenol",
    "cn_name": "3-氨基苯硫酚;",
    "alternate_name": "Benzenethiol, 3-amino-;Benzenethiol, <em>m</em>-amino-;3-Aminobenzenethiol;3-Aminothiophenol;<em>m</em>-Aminothiophenol;3-Mercaptoaniline;<em>m</em>-Aminobenzenethiol;3-Aminobenzene-1-thiol",
    "duplicated_cas_no": "",
    "SMILES": "NC1=CC(S)=CC=C1",
    "meta_data": {
        "InChI": "InChI=1S/C6H7NS/c7-5-2-1-3-6(8)4-5/h1-4,8H,7H2",
        "InChIKey": null,
        "Canonical SMILES": "SC1=CC=CC(N)=C1",
        "Molecular Formula": "C<sub>6</sub>H<sub>7</sub>NS",
        "Molecular Mass": "125.19",
        "Boiling Point": "180-190 °C @ Press: 16 Torr"
    }
}