{
    "cas_no": "1215-59-4",
    "key_name": "5-Benzyloxyindole",
    "cn_name": "5-苄氧基吲哚;",
    "alternate_name": "1<em>H</em>-Indole, 5-(phenylmethoxy)-;Indole, 5-(benzyloxy)-;5-(Phenylmethoxy)-1<em>H</em>-indole;5-Benzyloxyindole;5-(Phenylmethoxy)indole;5-(Benzyloxy)-1<em>H</em>-indole;Benzyl 1<em>H</em>-indol-5-yl ether;NSC 62895;CC-1-17",
    "duplicated_cas_no": "",
    "SMILES": "O(CC1=CC=CC=C1)C=2C=C3C(=CC2)NC=C3",
    "meta_data": {
        "InChI": "InChI=1S/C15H13NO/c1-2-4-12(5-3-1)11-17-14-6-7-15-13(10-14)8-9-16-15/h1-10,16H,11H2",
        "InChIKey": null,
        "Canonical SMILES": "O(C=1C=CC=2NC=CC2C1)CC=3C=CC=CC3",
        "Molecular Formula": "C<sub>15</sub>H<sub>13</sub>NO",
        "Molecular Mass": "223.27",
        "Boiling Point": "200-210 °C @ Press: 0.1 Torr",
        "Melting Point": "96-97 °C"
    }
}