{
    "cas_no": "338-38-5",
    "key_name": "Tetrapropylammonium tetrafluoroborate(1-)",
    "cn_name": "四丙基氟硼酸铵;",
    "alternate_name": "1-Propanaminium, <em>N</em>,<em>N</em>,<em>N</em>-tripropyl-, tetrafluoroborate(1-) (1:1);Ammonium, tetrapropyl-, tetrafluoroborate(1-);1-Propanaminium, <em>N</em>,<em>N</em>,<em>N</em>-tripropyl-, tetrafluoroborate(1-);Borate(1-), tetrafluoro-, <em>N</em>,<em>N</em>,<em>N</em>-tripropyl-1-propanaminium;Tetrapropylammonium tetrafluoroborate(1-);Tetrapropylammoniumtetrafluoroborate;NSC 103607;[Pr<sub>4</sub>N][BF<sub>4</sub>]",
    "duplicated_cas_no": "15553-52-3",
    "SMILES": "[B+3]([F-])([F-])([F-])[F-].[N+](CCC)(CCC)(CCC)CCC",
    "meta_data": {
        "InChI": "InChI=1S/C12H28N.BF4/c1-5-9-13(10-6-2,11-7-3)12-8-4;2-1(3,4)5/h5-12H2,1-4H3;/q+1;-1",
        "InChIKey": null,
        "Canonical SMILES": "[F-][B+3]([F-])([F-])[F-].CCC[N+](CCC)(CCC)CCC",
        "Molecular Formula": "C<sub>12</sub>H<sub>28</sub>N.BF<sub>4</sub>",
        "Molecular Mass": "",
        "Melting Point": "249 °C",
        "Density": "1.115 g/cm³"
    }
}