{
    "cas_no": "102170-52-5",
    "key_name": "2-Bromo-5-chloro-4-methylbenzenamine",
    "cn_name": null,
    "alternate_name": "Benzenamine, 2-bromo-5-chloro-4-methyl-;<em>p</em>-Toluidine, 2-bromo-5-chloro-;2-Bromo-5-chloro-4-methylbenzenamine;(2-Bromo-5-chloro-4-methylphenyl)amine;2-Bromo-5-chloro-4-methylaniline",
    "duplicated_cas_no": "",
    "SMILES": "BrC1=C(N)C=C(Cl)C(C)=C1",
    "meta_data": {
        "InChI": "InChI=1S/C7H7BrClN/c1-4-2-5(8)7(10)3-6(4)9/h2-3H,10H2,1H3",
        "InChIKey": null,
        "Canonical SMILES": "ClC=1C=C(N)C(Br)=CC1C",
        "Molecular Formula": "C<sub>7</sub>H<sub>7</sub>BrClN",
        "Molecular Mass": "220.49",
        "Melting Point": "90 °C"
    }
}