{
    "cas_no": "72934-37-3",
    "key_name": "1-(4-Chlorophenyl)cyclopropanecarboxylic acid",
    "cn_name": "1-(4-氯苯基)环丙烷羧酸;",
    "alternate_name": "Cyclopropanecarboxylic acid, 1-(4-chlorophenyl)-;1-(4-Chlorophenyl)cyclopropanecarboxylic acid;1-(4-Chlorophenyl)-1-cyclopropanecarboxylic acid;NSC 152142",
    "duplicated_cas_no": "",
    "SMILES": "C(O)(=O)C1(CC1)C2=CC=C(Cl)C=C2",
    "meta_data": {
        "InChI": "InChI=1S/C10H9ClO2/c11-8-3-1-7(2-4-8)10(5-6-10)9(12)13/h1-4H,5-6H2,(H,12,13)",
        "InChIKey": null,
        "Canonical SMILES": "O=C(O)C1(C2=CC=C(Cl)C=C2)CC1",
        "Molecular Formula": "C<sub>10</sub>H<sub>9</sub>ClO<sub>2</sub>",
        "Molecular Mass": "196.63",
        "Melting Point": "154-156 °C"
    }
}