{
    "cas_no": "2635-13-4",
    "key_name": "5-Bromo-1,3-benzodioxole",
    "cn_name": "4-溴-1,2-亚甲二氧基苯;1,2-亚甲二氧-4-溴苯;3,4-亚甲二氧基溴苯;",
    "alternate_name": "1,3-Benzodioxole, 5-bromo-;Benzene, 4-bromo-1,2-(methylenedioxy)-;5-Bromo-1,3-benzodioxole;3,4-Methylenedioxybromobenzene;1-Bromo-3,4-(methylenedioxy)benzene;4-Bromo-1,2-(methylenedioxy)benzene;3,4-Methylenedioxyphenyl bromide;5-Bromo-1,3-benzodioxolane;Benzodioxol-5-yl bromide;5-Bromobenzo[<em>d</em>][1,3]dioxole;1,2-(Methylenedioxy)-4-bromobenzene;5-Bromo-2<em>H</em>-1,3-benzodioxole",
    "duplicated_cas_no": "409326-38-1",
    "SMILES": "BrC=1C=C2C(=CC1)OCO2",
    "meta_data": {
        "InChI": "InChI=1S/C7H5BrO2/c8-5-1-2-6-7(3-5)10-4-9-6/h1-3H,4H2",
        "InChIKey": null,
        "Canonical SMILES": "BrC1=CC=C2OCOC2=C1",
        "Molecular Formula": "C<sub>7</sub>H<sub>5</sub>BrO<sub>2</sub>",
        "Molecular Mass": "201.02",
        "Boiling Point": "85-86 °C @ Press: 1 Torr"
    }
}