{
    "cas_no": "98079-51-7",
    "key_name": "Lomefloxacin",
    "cn_name": "洛美沙星;(+/-)-1-乙基-6,8-二氟-1,4-二氢-7-(3-甲基-1-哌嗪基)-4-氧-喹啉-3-羧酸;",
    "alternate_name": "3-Quinolinecarboxylic acid, 1-ethyl-6,8-difluoro-1,4-dihydro-7-(3-methyl-1-piperazinyl)-4-oxo-;1-Ethyl-6,8-difluoro-1,4-dihydro-7-(3-methyl-1-piperazinyl)-4-oxo-3-quinolinecarboxylic acid;Lomefloxacin;SC 47111A;DM 10;1-Ethyl-6,8-difluoro-7-(3-methyl-1-piperazinyl)-4-oxo-1,4-dihydro-3-quinoline carboxylic acid;DM 10 (bactericide)",
    "duplicated_cas_no": "156239-05-3",
    "SMILES": "C(C)N1C=2C(C(=O)C(C(O)=O)=C1)=CC(F)=C(C2F)N3CC(C)NCC3",
    "meta_data": {
        "InChI": "InChI=1S/C17H19F2N3O3/c1-3-21-8-11(17(24)25)16(23)10-6-12(18)15(13(19)14(10)21)22-5-4-20-9(2)7-22/h6,8-9,20H,3-5,7H2,1-2H3,(H,24,25)",
        "InChIKey": null,
        "Canonical SMILES": "O=C(O)C1=CN(C2=C(F)C(=C(F)C=C2C1=O)N3CCNC(C)C3)CC",
        "Molecular Formula": "C<sub>17</sub>H<sub>19</sub>F<sub>2</sub>N<sub>3</sub>O<sub>3</sub>",
        "Molecular Mass": "351.35",
        "Melting Point": "239-240.5 °C"
    }
}