{
    "cas_no": "53297-70-4",
    "key_name": "4-Amino-3-methylbenzenesulfonamide",
    "cn_name": "3-甲基-4-氨基苯磺酰胺;",
    "alternate_name": "Benzenesulfonamide, 4-amino-3-methyl-;4-Amino-3-methylbenzenesulfonamide;2-Methyl-4-sulfamoylaniline",
    "duplicated_cas_no": "",
    "SMILES": "S(N)(=O)(=O)C1=CC(C)=C(N)C=C1",
    "meta_data": {
        "InChI": "InChI=1S/C7H10N2O2S/c1-5-4-6(12(9,10)11)2-3-7(5)8/h2-4H,8H2,1H3,(H2,9,10,11)",
        "InChIKey": null,
        "Canonical SMILES": "O=S(=O)(N)C1=CC=C(N)C(=C1)C",
        "Molecular Formula": "C<sub>7</sub>H<sub>10</sub>N<sub>2</sub>O<sub>2</sub>S",
        "Molecular Mass": "186.23",
        "Melting Point": "174 °C"
    }
}