{
    "cas_no": "29682-41-5",
    "key_name": "1,4-Dichloro-2-iodobenzene",
    "cn_name": "1,4-二氯-2-碘苯;1,4-二氯-2-碘苯,98%;",
    "alternate_name": "Benzene, 1,4-dichloro-2-iodo-;1,4-Dichloro-2-iodobenzene;2,5-Dichlorophenyl iodide;2,5-Dichloroiodobenzene;2,5-Dichloro-1-iodobenzene;2-Iodo-1,4-dichlorobenzene;1-Iodo-2,5-dichlorobenzene",
    "duplicated_cas_no": "",
    "SMILES": "IC1=C(Cl)C=CC(Cl)=C1",
    "meta_data": {
        "InChI": "InChI=1S/C6H3Cl2I/c7-4-1-2-5(8)6(9)3-4/h1-3H",
        "InChIKey": null,
        "Canonical SMILES": "ClC1=CC=C(Cl)C(I)=C1",
        "Molecular Formula": "C<sub>6</sub>H<sub>3</sub>Cl<sub>2</sub>I",
        "Molecular Mass": "272.90",
        "Boiling Point": "253 °C",
        "Melting Point": "22 °C"
    }
}