{
    "cas_no": "3717-88-2",
    "key_name": "Flavoxate hydrochloride",
    "cn_name": "盐酸黄酮哌酯;3-甲基黄酮-8-羧酸-2-哌啶乙酯盐酸盐;",
    "alternate_name": "4<em>H</em>-1-Benzopyran-8-carboxylic acid, 3-methyl-4-oxo-2-phenyl-, 2-(1-piperidinyl)ethyl ester, hydrochloride (1:1);4<em>H</em>-1-Benzopyran-8-carboxylic acid, 3-methyl-4-oxo-2-phenyl-, 2-piperidinoethyl ester, hydrochloride;4<em>H</em>-1-Benzopyran-8-carboxylic acid, 3-methyl-4-oxo-2-phenyl-, 2-(1-piperidinyl)ethyl ester, hydrochloride;1-Piperidineethanol, 3-methyl-4-oxo-2-phenyl-4<em>H</em>-1-benzopyran-8-carboxylate (ester), hydrochloride;Flavoxate hydrochloride;Piperidinoethyl-3-methylflavone-8-carboxylate hydrochloride;DW 61;Peflate;Rec 7/0040;Spasmal;Urispas;Bladderon;Genurin;Patricin;Spasuret;NSC 114649;2-(Piperidin-1-yl)ethyl 3-methyl-4-oxo-2-phenyl-4<em>H</em>-chromene-8-carboxylate hydrochloride",
    "duplicated_cas_no": "",
    "SMILES": "C(OCCN1CCCCC1)(=O)C2=C3C(C(=O)C(C)=C(O3)C4=CC=CC=C4)=CC=C2.Cl",
    "meta_data": {
        "InChI": "InChI=1S/C24H25NO4.ClH/c1-17-21(26)19-11-8-12-20(23(19)29-22(17)18-9-4-2-5-10-18)24(27)28-16-15-25-13-6-3-7-14-25;/h2,4-5,8-12H,3,6-7,13-16H2,1H3;1H",
        "InChIKey": null,
        "Canonical SMILES": "Cl.O=C(OCCN1CCCCC1)C2=CC=CC=3C(=O)C(=C(OC23)C=4C=CC=CC4)C",
        "Molecular Formula": "C<sub>24</sub>H<sub>25</sub>NO<sub>4</sub>.ClH",
        "Molecular Mass": "",
        "Melting Point": "232-234 °C"
    }
}