{
    "cas_no": "34885-02-4",
    "key_name": "1-Piperazinepropanamine",
    "cn_name": null,
    "alternate_name": "1-Piperazinepropanamine;<em>N</em>-(3-Aminopropyl)piperazine;1-Piperazinepropylamine;1-(3-Aminopropyl)piperazine;3-(1-Piperazinyl)propylamine;3-(Piperazin-1-yl)propan-1-amine",
    "duplicated_cas_no": "850360-40-6",
    "SMILES": "C(CCN)N1CCNCC1",
    "meta_data": {
        "InChI": "InChI=1S/C7H17N3/c8-2-1-5-10-6-3-9-4-7-10/h9H,1-8H2",
        "InChIKey": null,
        "Canonical SMILES": "NCCCN1CCNCC1",
        "Molecular Formula": "C<sub>7</sub>H<sub>17</sub>N<sub>3</sub>",
        "Molecular Mass": "143.23",
        "Boiling Point": "73.5-76 °C @ Press: 3 Torr"
    }
}