{
    "cas_no": "6168-72-5",
    "key_name": "<span class=\"text-smallcaps\">D</smallcap><smallcap>L</span>-2-Amino-1-propanol",
    "cn_name": "DL-氨基丙醇;DL-2-氨基丙醇;",
    "alternate_name": "1-Propanol, 2-amino-;1-Propanol, 2-amino-, <span class=\"text-smallcaps\">D</smallcap><smallcap>L</span>-;1-Propanol, 2-amino-, (±)-;2-Amino-1-propanol;<em>dl</em>-2-Aminopropanol;<span class=\"text-smallcaps\">D</smallcap><smallcap>L</span>-2-Amino-1-propanol;<span class=\"text-smallcaps\">D</smallcap><smallcap>L</span>-Alaninol;(±)-2-Amino-1-propanol;<em>dl</em>-Alaninol;<em>dl</em>-2-Amino-1-propanol;(±)-2-Aminopropanol;Alaninol;2-Aminopropanol;β-Propanolamine;1-Methyl-2-hydroxyethylamine;2-Amino-2-methylethanol;1-Hydroxy-2-aminopropane;2-Hydroxy-1-methylethylamine;β-Aminopropanol;2-Amino-1-hydroxypropane;Propanolamine;(<em>RS</em>)-2-Amino-1-propanol;(±)-Alaninol;NSC 1360;[1-(Hydroxymethyl)ethyl]amine;1-Hydroxypropan-2-amine;1-Hydroxyprop-2-ylamine;2-Methylethanolamine",
    "duplicated_cas_no": "78-91-1;189328-44-7",
    "SMILES": "C(CO)(C)N",
    "meta_data": {
        "InChI": "InChI=1S/C3H9NO/c1-3(4)2-5/h3,5H,2,4H2,1H3",
        "InChIKey": null,
        "Canonical SMILES": "OCC(N)C",
        "Molecular Formula": "C<sub>3</sub>H<sub>9</sub>NO",
        "Molecular Mass": "75.11",
        "Boiling Point": "174.5 °C",
        "Melting Point": "96 °C",
        "Density": "0.943 g/cm³"
    }
}