{
    "cas_no": "6975-29-7",
    "key_name": "<em>N</em>-(2,4-Dichlorophenyl)acetamide",
    "cn_name": "2\",4\"-二氯乙酰苯胺;",
    "alternate_name": "Acetamide, <em>N</em>-(2,4-dichlorophenyl)-;Acetanilide, 2′,4′-dichloro-;<em>N</em>-(2,4-Dichlorophenyl)acetamide;2,4-Dichloroacetanilide;2′,4′-Dichloroacetanilide;NSC 22365;<em>N</em>-Acetyl-2,4-dichloroaniline",
    "duplicated_cas_no": "",
    "SMILES": "N(C(C)=O)C1=C(Cl)C=C(Cl)C=C1",
    "meta_data": {
        "InChI": "InChI=1S/C8H7Cl2NO/c1-5(12)11-8-3-2-6(9)4-7(8)10/h2-4H,1H3,(H,11,12)",
        "InChIKey": null,
        "Canonical SMILES": "O=C(NC1=CC=C(Cl)C=C1Cl)C",
        "Molecular Formula": "C<sub>8</sub>H<sub>7</sub>Cl<sub>2</sub>NO",
        "Molecular Mass": "204.05",
        "Melting Point": "146.400078125 °C"
    }
}