{
    "cas_no": "5434-29-7",
    "key_name": "3,5-Dimethyl-1<em>H</em>-pyrrole-2,4-dicarboxylic acid",
    "cn_name": "2,4-二甲基吡咯-3,5-二羧酸;",
    "alternate_name": "1<em>H</em>-Pyrrole-2,4-dicarboxylic acid, 3,5-dimethyl-;Pyrrole-2,4-dicarboxylic acid, 3,5-dimethyl-;3,5-Dimethyl-1<em>H</em>-pyrrole-2,4-dicarboxylic acid;NSC 15758",
    "duplicated_cas_no": "",
    "SMILES": "C(O)(=O)C=1C(C)=C(C(O)=O)NC1C",
    "meta_data": {
        "InChI": "InChI=1S/C8H9NO4/c1-3-5(7(10)11)4(2)9-6(3)8(12)13/h9H,1-2H3,(H,10,11)(H,12,13)",
        "InChIKey": null,
        "Canonical SMILES": "O=C(O)C=1NC(=C(C(=O)O)C1C)C",
        "Molecular Formula": "C<sub>8</sub>H<sub>9</sub>NO<sub>4</sub>",
        "Molecular Mass": "183.16",
        "Melting Point": "260 °C (decomp)"
    }
}