{
    "cas_no": "114084-78-5",
    "key_name": "Ibandronate",
    "cn_name": "伊班膦酸;1-羟基-3-(甲基正戊胺基)-丙叉-1,1-双膦酸;",
    "alternate_name": "Phosphonic acid, <em>P</em>,<em>P</em>′-[1-hydroxy-3-(methylpentylamino)propylidene]bis-;Phosphonic acid, [1-hydroxy-3-(methylpentylamino)propylidene]bis-;<em>P</em>,<em>P</em>′-[1-Hydroxy-3-(methylpentylamino)propylidene]bis[phosphonic acid];[1-Hydroxy-3-(methylpentylamino)propylidene]diphosphonic acid;Ibandronic acid;Ibandronate;BPH 24;[1-Hydroxy-3-[methyl(pentyl)amino]-1-phosphonopropyl]phosphonic acid;(1-Hydroxy-3-(methyl(pentyl)amino)propane-1,1-diyl)diphosphonicacid;Iasibon;Destara;Bondenza",
    "duplicated_cas_no": "",
    "SMILES": "C(CCN(CCCCC)C)(P(=O)(O)O)(P(=O)(O)O)O",
    "meta_data": {
        "InChI": "InChI=1S/C9H23NO7P2/c1-3-4-5-7-10(2)8-6-9(11,18(12,13)14)19(15,16)17/h11H,3-8H2,1-2H3,(H2,12,13,14)(H2,15,16,17)",
        "InChIKey": null,
        "Canonical SMILES": "O=P(O)(O)C(O)(CCN(C)CCCCC)P(=O)(O)O",
        "Molecular Formula": "C<sub>9</sub>H<sub>23</sub>NO<sub>7</sub>P<sub>2</sub>",
        "Molecular Mass": "319.23",
        "Melting Point": "84 °C (decomp)"
    }
}