{
    "cas_no": "1268810-17-8",
    "key_name": "Cyclopropanamine, 1-ethynyl-, hydrochloride (1:1)",
    "cn_name": null,
    "alternate_name": "Cyclopropanamine, 1-ethynyl-, hydrochloride (1:1);1-Ethynylcyclopropanamine hydrochloride;1-Ethynylcyclopropan-1-amine hydrochloride",
    "duplicated_cas_no": "",
    "SMILES": "C(#C)C1(N)CC1.Cl",
    "meta_data": {
        "InChI": "InChI=1S/C5H7N.ClH/c1-2-5(6)3-4-5;/h1H,3-4,6H2;1H",
        "InChIKey": null,
        "Canonical SMILES": "Cl.C#CC1(N)CC1",
        "Molecular Formula": "C<sub>5</sub>H<sub>7</sub>N.ClH",
        "Molecular Mass": "",
        "Melting Point": "185-186 °C (decomp)"
    }
}