{
    "cas_no": "65548-55-2",
    "key_name": "3′,4′,7,8-Tetramethoxyflavone",
    "cn_name": "3,\"4,7,8-四甲氧基黄酮;",
    "alternate_name": "4<em>H</em>-1-Benzopyran-4-one, 2-(3,4-dimethoxyphenyl)-7,8-dimethoxy-;Flavone, 3′,4′,7,8-tetramethoxy-;2-(3,4-Dimethoxyphenyl)-7,8-dimethoxy-4<em>H</em>-1-benzopyran-4-one;7,8-Dimethoxy-2-(3,4-dimethoxyphenyl)-4<em>H</em>-chromen-4-one;3′,4′,7,8-Tetramethoxyflavone;2-(3,4-Dimethoxyphenyl)-7,8-dimethoxy-4<em>H</em>-chromen-4-one;2-(3,4-Dimethoxyphenyl)-7,8-dimethoxychromen-4-one",
    "duplicated_cas_no": "",
    "SMILES": "O(C)C1=C2C(C(=O)C=C(O2)C3=CC(OC)=C(OC)C=C3)=CC=C1OC",
    "meta_data": {
        "InChI": "InChI=1S/C19H18O6/c1-21-14-7-5-11(9-17(14)23-3)16-10-13(20)12-6-8-15(22-2)19(24-4)18(12)25-16/h5-10H,1-4H3",
        "InChIKey": null,
        "Canonical SMILES": "O=C1C=C(OC2=C(OC)C(OC)=CC=C12)C=3C=CC(OC)=C(OC)C3",
        "Molecular Formula": "C<sub>19</sub>H<sub>18</sub>O<sub>6</sub>",
        "Molecular Mass": "342.34",
        "Melting Point": "198-199 °C"
    }
}