{
    "cas_no": "34946-82-2",
    "key_name": "Copper(II) triflate",
    "cn_name": "三氟甲烷磺酸铜;",
    "alternate_name": "Methanesulfonic acid, 1,1,1-trifluoro-, copper(2+) salt (2:1);Methanesulfonic acid, trifluoro-, copper(2+) salt;Cupric trifluoromethanesulfonate;Copper(II) triflate;Cupric bis(trifluoromethanesulfonate);Cupric triflate;Cupric trifluoromethylsulfonate;Bis(trifluoromethanesulfonato)copper;Copper ditriflate;Copper bis(trifluoromethanesulfonate);Trifluoromethanesulfonic acid copper salt (2:1);Copper(II) trifluoromethanesulfonate;Copper(2+) trifluoromethylsulfonate;Copper(2+) bis(trifluoromethanesulfonate);Copper(2+) triflate;Trifluoromethanesulfonic acid copper(2+) salt;Copper, bis(1,1,1-trifluoromethanesulfonato-κ<em>O</em>)-;Bis(1,1,1-trifluoromethanesulfonato-κ<em>O</em>)copper",
    "duplicated_cas_no": "2295887-51-1",
    "SMILES": "C(S(=O)(=O)O)(F)(F)F.[Cu]",
    "meta_data": {
        "InChI": "InChI=1S/CHF3O3S.Cu/c2-1(3,4)8(5,6)7;/h(H,5,6,7);",
        "InChIKey": null,
        "Canonical SMILES": "[Cu].O=S(=O)(O)C(F)(F)F",
        "Molecular Formula": "CHF<sub>3</sub>O<sub>3</sub>S.<sup>1</sup>/<sub>2</sub>Cu",
        "Molecular Mass": "",
        "Melting Point": "&gt;400 °C"
    }
}