{
    "cas_no": "332-80-9",
    "key_name": "1-Methyl-<span class=\"text-smallcaps\">L</span>-histidine",
    "cn_name": "1-甲基-L-组氨酸;",
    "alternate_name": "<span class=\"text-smallcaps\">L</span>-Histidine, 1-methyl-;Histidine, 1-methyl-, <span class=\"text-smallcaps\">L</span>-;1-Methyl-<span class=\"text-smallcaps\">L</span>-histidine;1-Methylhistidine;1-<em>N</em>-Methyl-<span class=\"text-smallcaps\">L</span>-histidine;<em>N</em><sub>1</sub>-Methyl-<span class=\"text-smallcaps\">L</span>-histidine;NSC 524367;(<em>S</em>)-2-Amino-3-(1-methyl-1<em>H</em>-imidazol-4-yl)propanoic acid;τ-Methylhistidine;π-<em>N</em>-Methyl-<span class=\"text-smallcaps\">L</span>-histidine;(2S)-2-Amino-3-(1-methyl-1<em>H</em>-imidazol-4-yl)propanoic acid",
    "duplicated_cas_no": "",
    "SMILES": "C([C@@H](C(O)=O)N)C=1N=CN(C)C1",
    "meta_data": {
        "InChI": "InChI=1S/C7H11N3O2/c1-10-3-5(9-4-10)2-6(8)7(11)12/h3-4,6H,2,8H2,1H3,(H,11,12)/t6-/m0/s1",
        "InChIKey": null,
        "Canonical SMILES": "O=C(O)C(N)CC=1N=CN(C1)C",
        "Molecular Formula": "C<sub>7</sub>H<sub>11</sub>N<sub>3</sub>O<sub>2</sub>",
        "Molecular Mass": "169.18",
        "Melting Point": "269-270 °C"
    }
}