{
    "cas_no": "33626-08-3",
    "key_name": "Desoxyrhapontigenin",
    "cn_name": null,
    "alternate_name": "1,3-Benzenediol, 5-[(1<em>E</em>)-2-(4-methoxyphenyl)ethenyl]-;1,3-Benzenediol, 5-[2-(4-methoxyphenyl)ethenyl]-, (<em>E</em>)-;3,5-Stilbenediol, 4′-methoxy-, (<em>E</em>)-;5-[(1<em>E</em>)-2-(4-Methoxyphenyl)ethenyl]-1,3-benzenediol;Desoxyrhapontigenin;(<em>E</em>)-3,5-Dihydroxy-4′-methoxystilbene;4-Methoxyresveratrol;BML 233;<em>trans</em>-3,5-Dihydroxy-4′-methoxystilbene;3,5-Dihydroxy-4′-methoxy-<em>trans</em>-stilbene;Resveratrol 4′-methyl ether;Deoxyrhapontigenin;4′-<em>O</em>-Methylresveratrol",
    "duplicated_cas_no": "",
    "SMILES": "C(=C/C1=CC(O)=CC(O)=C1)\\C2=CC=C(OC)C=C2",
    "meta_data": {
        "InChI": "InChI=1S/C15H14O3/c1-18-15-6-4-11(5-7-15)2-3-12-8-13(16)10-14(17)9-12/h2-10,16-17H,1H3/b3-2+",
        "InChIKey": null,
        "Canonical SMILES": "OC=1C=C(O)C=C(C=CC2=CC=C(OC)C=C2)C1",
        "Molecular Formula": "C<sub>15</sub>H<sub>14</sub>O<sub>3</sub>",
        "Molecular Mass": "242.27",
        "Melting Point": "158-166 °C"
    }
}