{
    "cas_no": "882-06-4",
    "key_name": "<em>trans</em>-4-Nitrocinnamic acid",
    "cn_name": null,
    "alternate_name": "2-Propenoic acid, 3-(4-nitrophenyl)-, (2<em>E</em>)-;Cinnamic acid, <em>p</em>-nitro-, (<em>E</em>)-;2-Propenoic acid, 3-(4-nitrophenyl)-, (<em>E</em>)-;(2<em>E</em>)-3-(4-Nitrophenyl)-2-propenoic acid;<em>trans</em>-4-Nitrocinnamic acid;<em>trans</em>-<em>p</em>-Nitrocinnamic acid;(<em>E</em>)-<em>p</em>-Nitrocinnamic acid;(<em>E</em>)-4-Nitrocinnamic acid;(<em>E</em>)-3-(4-Nitrophenyl)acrylic acid;(E)-3-(4-Nitrophenyl)-2-propenoic acid",
    "duplicated_cas_no": "",
    "SMILES": "N(=O)(=O)C1=CC=C(/C=C/C(O)=O)C=C1",
    "meta_data": {
        "InChI": "InChI=1S/C9H7NO4/c11-9(12)6-3-7-1-4-8(5-2-7)10(13)14/h1-6H,(H,11,12)/b6-3+",
        "InChIKey": null,
        "Canonical SMILES": "O=C(O)C=CC1=CC=C(C=C1)N(=O)=O",
        "Molecular Formula": "C<sub>9</sub>H<sub>7</sub>NO<sub>4</sub>",
        "Molecular Mass": "193.16",
        "Melting Point": "285-286 °C"
    }
}