{
    "cas_no": "55332-38-2",
    "key_name": "(α<em>S</em>)-4-Chloro-α-(1-methylethyl)benzeneacetic acid",
    "cn_name": "S-2-(4-氯苯基)-3-甲基丁酸;",
    "alternate_name": "Benzeneacetic acid, 4-chloro-α-(1-methylethyl)-, (α<em>S</em>)-;Benzeneacetic acid, 4-chloro-α-(1-methylethyl)-, (<em>S</em>)-;(α<em>S</em>)-4-Chloro-α-(1-methylethyl)benzeneacetic acid;(<em>S</em>)-2-(4-Chlorophenyl)isovaleric acid;(+)-α-(<em>p</em>-Chlorophenyl)isovaleric acid;(+)-2-(4-Chlorophenyl)-3-methylbutyric acid;(<em>S</em>)-2-(4-Chlorophenyl)-3-methylbutyric acid;(+)-2-(4-Chlorophenyl)isovaleric acid;2-<em>S</em>-(+)-(4-Chlorophenyl)-3-methylbutanoic Acid;(<em>S</em>)-Fenvaleric acid;(+)-(<em>S</em>)-2-(4-Chlorophenyl)-3-methylbutanoic acid;(2<em>S</em>)-2-(4-Chlorophenyl)-3-methylbutanoic acid;(<em>S</em>)-2-(4-Chlorophenyl)-3-methylbutanoic acid;(2S)-2-(4-Chlorophenyl)-3-methylbutanoic acid;(<em>S</em>)-2-(4-Chlorophenyl)-3-methylbutanoicacid",
    "duplicated_cas_no": "",
    "SMILES": "[C@@H](C(C)C)(C(O)=O)C1=CC=C(Cl)C=C1",
    "meta_data": {
        "InChI": "InChI=1S/C11H13ClO2/c1-7(2)10(11(13)14)8-3-5-9(12)6-4-8/h3-7,10H,1-2H3,(H,13,14)/t10-/m0/s1",
        "InChIKey": null,
        "Canonical SMILES": "O=C(O)C(C1=CC=C(Cl)C=C1)C(C)C",
        "Molecular Formula": "C<sub>11</sub>H<sub>13</sub>ClO<sub>2</sub>",
        "Molecular Mass": "212.67",
        "Melting Point": "89-91 °C"
    }
}