{
    "cas_no": "3466-80-6",
    "key_name": "2-Phenylpiperidine",
    "cn_name": null,
    "alternate_name": "Piperidine, 2-phenyl-;Piperidine, 2-phenyl-, (±)-;2-Phenylpiperidine;(±)-2-Phenylpiperidine",
    "duplicated_cas_no": "90192-86-2",
    "SMILES": "C1(=CC=CC=C1)C2CCCCN2",
    "meta_data": {
        "InChI": "InChI=1S/C11H15N/c1-2-6-10(7-3-1)11-8-4-5-9-12-11/h1-3,6-7,11-12H,4-5,8-9H2",
        "InChIKey": null,
        "Canonical SMILES": "C=1C=CC(=CC1)C2NCCCC2",
        "Molecular Formula": "C<sub>11</sub>H<sub>15</sub>N",
        "Molecular Mass": "161.24",
        "Boiling Point": "225.5-255 °C @ Press: 767 Torr",
        "Melting Point": "18 °C"
    }
}