{
    "cas_no": "592-88-1",
    "key_name": "Diallyl sulfide",
    "cn_name": "二烯丙基硫醚;",
    "alternate_name": "1-Propene, 3,3′-thiobis-;Allyl sulfide;3,3′-Thiobis[1-propene];Allyl monosulfide;Diallyl sulfide;Thioallyl ether;Diallyl monosulfide;Oil garlic;Diallyl thioether;Di(2-propenyl) sulfide;Bis(2-propenyl) sulfide;NSC 20947",
    "duplicated_cas_no": "132879-26-6",
    "SMILES": "S(CC=C)CC=C",
    "meta_data": {
        "InChI": "InChI=1S/C6H10S/c1-3-5-7-6-4-2/h3-4H,1-2,5-6H2",
        "InChIKey": null,
        "Canonical SMILES": "S(CC=C)CC=C",
        "Molecular Formula": "C<sub>6</sub>H<sub>10</sub>S",
        "Molecular Mass": "114.21",
        "Boiling Point": "138.6 °C",
        "Melting Point": "-85 °C"
    }
}