{
    "cas_no": "108-59-8",
    "key_name": "Dimethyl malonate",
    "cn_name": "丙二酸二甲酯;",
    "alternate_name": "Propanedioic acid, 1,3-dimethyl ester;Malonic acid, dimethyl ester;Propanedioic acid, dimethyl ester;Dimethyl malonate;Methyl malonate;Dimethyl propanedioate;Dimethyl 1,3-propanedioate;NSC 620046",
    "duplicated_cas_no": "",
    "SMILES": "C(C(OC)=O)C(OC)=O",
    "meta_data": {
        "InChI": "InChI=1S/C5H8O4/c1-8-4(6)3-5(7)9-2/h3H2,1-2H3",
        "InChIKey": null,
        "Canonical SMILES": "O=C(OC)CC(=O)OC",
        "Molecular Formula": "C<sub>5</sub>H<sub>8</sub>O<sub>4</sub>",
        "Molecular Mass": "132.11",
        "Boiling Point": "181.4 °C",
        "Melting Point": "-61.9 °C",
        "Density": "1.1585 g/cm³ @ Temp: 15 °C"
    }
}