{
    "cas_no": "119-63-1",
    "key_name": "<em>N</em>-(4-Aminophenyl)-<em>N</em>-methylacetamide",
    "cn_name": "4\"-氨基-N-甲基乙酰苯胺;对氨基-N-甲基乙酰苯胺;N-甲基-N-乙酰基对苯二胺;",
    "alternate_name": "Acetamide, <em>N</em>-(4-aminophenyl)-<em>N</em>-methyl-;Acetanilide, 4′-amino-<em>N</em>-methyl-;<em>N</em>-(4-Aminophenyl)-<em>N</em>-methylacetamide;4-Amino-<em>N</em>-acetyl-<em>N</em>-methylaniline;4′-Amino-<em>N</em>-methylacetanilide;<em>p</em>-Amino-<em>N</em>-methylacetanilide;<em>p</em>-Amino-<em>N</em>-acetyl-<em>N</em>-methylaniline;<em>N</em>-acetyl-<em>N</em>-methyl-<em>p</em>-phenylenediamine;NSC 7107",
    "duplicated_cas_no": "",
    "SMILES": "N(C(C)=O)(C)C1=CC=C(N)C=C1",
    "meta_data": {
        "InChI": "InChI=1S/C9H12N2O/c1-7(12)11(2)9-5-3-8(10)4-6-9/h3-6H,10H2,1-2H3",
        "InChIKey": null,
        "Canonical SMILES": "O=C(N(C1=CC=C(N)C=C1)C)C",
        "Molecular Formula": "C<sub>9</sub>H<sub>12</sub>N<sub>2</sub>O",
        "Molecular Mass": "164.20",
        "Melting Point": "63-65 °C"
    }
}