{
    "cas_no": "37964-17-3",
    "key_name": "1<em>H</em>-Pyrrole-3-carboxylic acid, ethyl ester",
    "cn_name": null,
    "alternate_name": "1<em>H</em>-Pyrrole-3-carboxylic acid, ethyl ester;3-Carbethoxypyrrole;Ethyl pyrrole-3-carboxylate;Ethyl 1<em>H</em>-pyrrole-3-carboxylate",
    "duplicated_cas_no": "",
    "SMILES": "C(OCC)(=O)C=1C=CNC1",
    "meta_data": {
        "InChI": "InChI=1S/C7H9NO2/c1-2-10-7(9)6-3-4-8-5-6/h3-5,8H,2H2,1H3",
        "InChIKey": null,
        "Canonical SMILES": "O=C(OCC)C=1C=CNC1",
        "Molecular Formula": "C<sub>7</sub>H<sub>9</sub>NO<sub>2</sub>",
        "Molecular Mass": "139.15",
        "Melting Point": "118 °C"
    }
}