{
    "cas_no": "589-09-3",
    "key_name": "<em>N</em>-2-Propen-1-ylbenzenamine",
    "cn_name": "N-烯丙基苯胺;",
    "alternate_name": "Benzenamine, <em>N</em>-2-propen-1-yl-;Aniline, <em>N</em>-allyl-;Benzenamine, <em>N</em>-2-propenyl-;<em>N</em>-2-Propen-1-ylbenzenamine;<em>N</em>-Allylaniline;<em>N</em>-Phenylallylamine;Allylphenylamine;<em>N</em>-Allyl-<em>N</em>-phenylamine;<em>N</em>-(2-Propenyl)benzenamine;NSC 1967;<em>N</em>-(2-Propenyl)aniline",
    "duplicated_cas_no": "",
    "SMILES": "N(CC=C)C1=CC=CC=C1",
    "meta_data": {
        "InChI": "InChI=1S/C9H11N/c1-2-8-10-9-6-4-3-5-7-9/h2-7,10H,1,8H2",
        "InChIKey": null,
        "Canonical SMILES": "C=CCNC=1C=CC=CC1",
        "Molecular Formula": "C<sub>9</sub>H<sub>11</sub>N",
        "Molecular Mass": "133.19",
        "Boiling Point": "219 °C"
    }
}