{
    "cas_no": "98977-34-5",
    "key_name": "1-(1,1-Dimethylethyl) 3-ethyl 4-oxo-1,3-piperidinedicarboxylate",
    "cn_name": "1-N-Boc-4-氧代-3-哌啶羧酸乙酯;1-N-叔丁氧羰基-4-氧代-3-哌啶羧酸乙酯;",
    "alternate_name": "1,3-Piperidinedicarboxylic acid, 4-oxo-, 1-(1,1-dimethylethyl) 3-ethyl ester;1-(1,1-Dimethylethyl) 3-ethyl 4-oxo-1,3-piperidinedicarboxylate;Ethyl <em>N</em>-<em>tert</em>-butoxycarbonyl-4-oxo-3-piperidinecarboxylate;1-<em>tert</em>-Butyl 3-ethyl 4-oxopiperidine-1,3-dicarboxylate;4-Oxopiperidine-1,3-dicarboxylic acid 1-<em>tert</em>-butyl ester 3-ethyl ester;1-<em>tert</em>-Butoxycarbonyl-3-(ethoxycarbonyl)piperidin-4-one;1-<em>O</em>-<em>tert</em>-Butyl 3-<em>O</em>-ethyl 4-oxopiperidine-1,3-dicarboxylate",
    "duplicated_cas_no": "150779-91-2",
    "SMILES": "C(OCC)(=O)C1CN(C(OC(C)(C)C)=O)CCC1=O",
    "meta_data": {
        "InChI": "InChI=1S/C13H21NO5/c1-5-18-11(16)9-8-14(7-6-10(9)15)12(17)19-13(2,3)4/h9H,5-8H2,1-4H3",
        "InChIKey": null,
        "Canonical SMILES": "O=C(OC(C)(C)C)N1CCC(=O)C(C(=O)OCC)C1",
        "Molecular Formula": "C<sub>13</sub>H<sub>21</sub>NO<sub>5</sub>",
        "Molecular Mass": "271.31",
        "Melting Point": "64-65 °C"
    }
}