{
    "cas_no": "22987-10-6",
    "key_name": "<em>N</em>-(3-Aminophenyl)propanamide",
    "cn_name": "N-丙酰基-1,3-苯二胺;间氨基丙酰苯胺;",
    "alternate_name": "Propanamide, <em>N</em>-(3-aminophenyl)-;<em>N</em>-(3-Aminophenyl)propanamide;3′-Aminopropionanilide;<em>m</em>-Aminopropionanilide;<em>N</em>-(3-Aminophenyl)propionamide",
    "duplicated_cas_no": "",
    "SMILES": "N(C(CC)=O)C1=CC(N)=CC=C1",
    "meta_data": {
        "InChI": "InChI=1S/C9H12N2O/c1-2-9(12)11-8-5-3-4-7(10)6-8/h3-6H,2,10H2,1H3,(H,11,12)",
        "InChIKey": null,
        "Canonical SMILES": "O=C(NC=1C=CC=C(N)C1)CC",
        "Molecular Formula": "C<sub>9</sub>H<sub>12</sub>N<sub>2</sub>O",
        "Molecular Mass": "164.20",
        "Melting Point": "56 °C"
    }
}