{
    "cas_no": "6659-35-4",
    "key_name": "6-[(Aminoiminomethyl)amino]hexanoic acid",
    "cn_name": "6-胍基己酸盐酸盐 [6659-35-4];6-胍基己酸盐酸盐;",
    "alternate_name": "Hexanoic acid, 6-[(aminoiminomethyl)amino]-;Hexanoic acid, 6-guanidino-;6-[(Aminoiminomethyl)amino]hexanoic acid;ε-Guanidinocaproic acid;6-Guanidinohexanoic acid;ε-Guanidinohexanoic acid;Caprocyamine;6-Guanidinocaproic acid;<em>N</em>-(6-Hexanoic acid)guanidine",
    "duplicated_cas_no": "",
    "SMILES": "C(CC(O)=O)CCCNC(=N)N",
    "meta_data": {
        "InChI": "InChI=1S/C7H15N3O2/c8-7(9)10-5-3-1-2-4-6(11)12/h1-5H2,(H,11,12)(H4,8,9,10)",
        "InChIKey": null,
        "Canonical SMILES": "O=C(O)CCCCCNC(=N)N",
        "Molecular Formula": "C<sub>7</sub>H<sub>15</sub>N<sub>3</sub>O<sub>2</sub>",
        "Molecular Mass": "173.21",
        "Melting Point": "&gt;300 °C"
    }
}