{
    "cas_no": "348-54-9",
    "key_name": "2-Fluoroaniline",
    "cn_name": "2-氟苯胺;邻氟苯胺;",
    "alternate_name": "Benzenamine, 2-fluoro-;Aniline, <em>o</em>-fluoro-;2-Fluorobenzenamine;<em>o</em>-Fluoroaniline;2-Fluoroaniline;1-Amino-2-fluorobenzene;2-Fluorophenylamine;NSC 10299",
    "duplicated_cas_no": "",
    "SMILES": "FC1=C(N)C=CC=C1",
    "meta_data": {
        "InChI": "InChI=1S/C6H6FN/c7-5-3-1-2-4-6(5)8/h1-4H,8H2",
        "InChIKey": null,
        "Canonical SMILES": "FC=1C=CC=CC1N",
        "Molecular Formula": "C<sub>6</sub>H<sub>6</sub>FN",
        "Molecular Mass": "111.12",
        "Boiling Point": "175 °C",
        "Melting Point": "-34.6 °C",
        "Density": "1.1476 g/cm³ @ Temp: 25.00 °C"
    }
}