{
    "cas_no": "2879-20-1",
    "key_name": "1-(2,3-Dihydro-1,4-benzodioxin-6-yl)ethanone",
    "cn_name": "6-乙酰基-1,4-苯并二氧杂环;",
    "alternate_name": "Ethanone, 1-(2,3-dihydro-1,4-benzodioxin-6-yl)-;Ketone, 1,4-benzodioxan-6-yl methyl;1,4-Benzodioxin, ethanone deriv.;1-(2,3-Dihydro-1,4-benzodioxin-6-yl)ethanone;6-Acetyl-1,4-benzodioxan;6-Acetyl-1,4-benzodioxane;6-Acetylbenzodioxane;1-(2,3-Dihydrobenzo[1,4]dioxin-6-yl)ethanone;3,4-Ethylenedioxyacetophenone;1-(Benzodioxan-6-yl)ethanone;3′,4′-Ethylenedioxyacetophenone;1-(2,3-Dihydro-1,4-benzodioxin-6-yl)ethan-1-one;6-Acetyl-2,3-dihydro-1,4-benzodioxin;1-(2,3-Dihydrobenzo[<em>b</em>][1,4]dioxin-6-yl)ethan-1-one",
    "duplicated_cas_no": "",
    "SMILES": "C(C)(=O)C=1C=C2C(=CC1)OCCO2",
    "meta_data": {
        "InChI": "InChI=1S/C10H10O3/c1-7(11)8-2-3-9-10(6-8)13-5-4-12-9/h2-3,6H,4-5H2,1H3",
        "InChIKey": null,
        "Canonical SMILES": "O=C(C1=CC=C2OCCOC2=C1)C",
        "Molecular Formula": "C<sub>10</sub>H<sub>10</sub>O<sub>3</sub>",
        "Molecular Mass": "178.18",
        "Melting Point": "84-85 °C"
    }
}