{
    "cas_no": "922-28-1",
    "key_name": "3,4-Dimethylheptane",
    "cn_name": "3,4-二甲基庚烷;3,4-二甲基庚烷;",
    "alternate_name": "Heptane, 3,4-dimethyl-;3,4-Dimethylheptane;NSC 158678",
    "duplicated_cas_no": "",
    "SMILES": "C(C(CC)C)(CCC)C",
    "meta_data": {
        "InChI": "InChI=1S/C9H20/c1-5-7-9(4)8(3)6-2/h8-9H,5-7H2,1-4H3",
        "InChIKey": null,
        "Canonical SMILES": "CCCC(C)C(C)CC",
        "Molecular Formula": "C<sub>9</sub>H<sub>20</sub>",
        "Molecular Mass": "128.26",
        "Boiling Point": "140.6 °C",
        "Density": "0.7314 g/cm³ @ Temp: 20 °C"
    }
}