{
    "cas_no": "62580-80-7",
    "key_name": "3-(2-Methyl-5-nitro-1<em>H</em>-imidazol-1-yl)-1,2-propanediol",
    "cn_name": null,
    "alternate_name": "1,2-Propanediol, 3-(2-methyl-5-nitro-1<em>H</em>-imidazol-1-yl)-;3-(2-Methyl-5-nitro-1<em>H</em>-imidazol-1-yl)-1,2-propanediol;Ro 11-2616;DA 3838",
    "duplicated_cas_no": "",
    "SMILES": "C(C(CO)O)N1C(N(=O)=O)=CN=C1C",
    "meta_data": {
        "InChI": "InChI=1S/C7H11N3O4/c1-5-8-2-7(10(13)14)9(5)3-6(12)4-11/h2,6,11-12H,3-4H2,1H3",
        "InChIKey": null,
        "Canonical SMILES": "O=N(=O)C1=CN=C(N1CC(O)CO)C",
        "Molecular Formula": "C<sub>7</sub>H<sub>11</sub>N<sub>3</sub>O<sub>4</sub>",
        "Molecular Mass": "201.18",
        "Melting Point": "102.0-104.5 °C"
    }
}