{
    "cas_no": "612-94-2",
    "key_name": "2-Phenylnaphthalene",
    "cn_name": "1,2-二氢-6-羟基-4-甲基-1-[3-(1-甲基乙氧基)丙基]-2-氧代-3-吡啶氰;1-异丙氧基丙基-1,2-二氢-6-羟基-4-甲;",
    "alternate_name": "Naphthalene, 2-phenyl-;2-Phenylnaphthalene;β-Phenylnaphthalene;(β-Naphthyl)benzene;NSC 407592",
    "duplicated_cas_no": "",
    "SMILES": "C1(=CC2=C(C=C1)C=CC=C2)C3=CC=CC=C3",
    "meta_data": {
        "InChI": "InChI=1S/C16H12/c1-2-6-13(7-3-1)16-11-10-14-8-4-5-9-15(14)12-16/h1-12H",
        "InChIKey": null,
        "Canonical SMILES": "C=1C=CC(=CC1)C=2C=CC=3C=CC=CC3C2",
        "Molecular Formula": "C<sub>16</sub>H<sub>12</sub>",
        "Molecular Mass": "204.27",
        "Boiling Point": "345.5 °C",
        "Melting Point": "103.5 °C"
    }
}