{
    "cas_no": "6343-47-1",
    "key_name": "3-(Diethylamino)-2,2-dimethylpropanal",
    "cn_name": null,
    "alternate_name": "Propanal, 3-(diethylamino)-2,2-dimethyl-;Propionaldehyde, 3-(diethylamino)-2,2-dimethyl-;3-(Diethylamino)-2,2-dimethylpropanal;α-Dimethyl-β-diethylaminopropionaldehyde;Diethylaminopivalaldehyde;NSC 46901;NSC 7515;2,2-Dimethyl-3-(diethylamino)propanal",
    "duplicated_cas_no": "",
    "SMILES": "C(C(C=O)(C)C)N(CC)CC",
    "meta_data": {
        "InChI": "InChI=1S/C9H19NO/c1-5-10(6-2)7-9(3,4)8-11/h8H,5-7H2,1-4H3",
        "InChIKey": null,
        "Canonical SMILES": "O=CC(C)(C)CN(CC)CC",
        "Molecular Formula": "C<sub>9</sub>H<sub>19</sub>NO",
        "Molecular Mass": "157.25",
        "Boiling Point": "175-177 °C"
    }
}