{
    "cas_no": "1974-05-6",
    "key_name": "3-Bromoheptane",
    "cn_name": "3-溴庚烷;",
    "alternate_name": "Heptane, 3-bromo-;3-Bromoheptane;3-Heptyl bromide",
    "duplicated_cas_no": "116435-51-9",
    "SMILES": "C(CCCC)(CC)Br",
    "meta_data": {
        "InChI": "InChI=1S/C7H15Br/c1-3-5-6-7(8)4-2/h7H,3-6H2,1-2H3",
        "InChIKey": null,
        "Canonical SMILES": "BrC(CC)CCCC",
        "Molecular Formula": "C<sub>7</sub>H<sub>15</sub>Br",
        "Molecular Mass": "179.10",
        "Boiling Point": "62 °C",
        "Density": "1.1415 g/cm³ @ Temp: 15 °C"
    }
}