{
    "cas_no": "637-58-1",
    "key_name": "Pramoxine hydrochloride",
    "cn_name": "盐酸普莫卡因;4-丁氧基苯基-gamma-吗啉丙基醚盐酸盐;",
    "alternate_name": "Morpholine, 4-[3-(4-butoxyphenoxy)propyl]-, hydrochloride (1:1);Morpholine, 4-[3-(<em>p</em>-butoxyphenoxy)propyl]-, hydrochloride;Pramoxine hydrochloride;Morpholine, 4-[3-(4-butoxyphenoxy)propyl]-, hydrochloride;4-[3-(<em>p</em>-Butoxyphenoxy)propyl]morpholine hydrochloride;Tronothane hydrochloride;Pramocaine hydrochloride;Proctofoam;Tronothan;Tronothane;Tronolaine;Pramacort",
    "duplicated_cas_no": "",
    "SMILES": "O(CCCN1CCOCC1)C2=CC=C(OCCCC)C=C2.Cl",
    "meta_data": {
        "InChI": "InChI=1S/C17H27NO3.ClH/c1-2-3-12-20-16-5-7-17(8-6-16)21-13-4-9-18-10-14-19-15-11-18;/h5-8H,2-4,9-15H2,1H3;1H",
        "InChIKey": null,
        "Canonical SMILES": "Cl.O(C1=CC=C(OCCCC)C=C1)CCCN2CCOCC2",
        "Molecular Formula": "C<sub>17</sub>H<sub>27</sub>NO<sub>3</sub>.ClH",
        "Molecular Mass": "",
        "Melting Point": "181-183 °C"
    }
}