{
    "cas_no": "638-21-1",
    "key_name": "Phenylphosphine",
    "cn_name": "苯基膦;苯膦;",
    "alternate_name": "Phosphine, phenyl-;Phenylphosphine;Monophenylphosphine;NSC 511703",
    "duplicated_cas_no": "",
    "SMILES": "PC1=CC=CC=C1",
    "meta_data": {
        "InChI": "InChI=1S/C6H7P/c7-6-4-2-1-3-5-6/h1-5H,7H2",
        "InChIKey": null,
        "Canonical SMILES": "PC=1C=CC=CC1",
        "Molecular Formula": "C<sub>6</sub>H<sub>7</sub>P",
        "Molecular Mass": "110.09",
        "Boiling Point": "160.5 °C",
        "Melting Point": "148-151 °C",
        "Density": "1.00 g/cm³"
    }
}