{
    "cas_no": "71731-58-3",
    "key_name": "Tiquizium bromide",
    "cn_name": "替喹溴铵;(5R,9aR)-7-(二噻吩-2-基亚甲基)-5-甲基-1,2,3,4,6,8,9,9a-八氢喹嗪-5-鎓溴化物;",
    "alternate_name": "2<em>H</em>-Quinolizinium, 3-(di-2-thienylmethylene)octahydro-5-methyl-, bromide (1:1), (5<em>R</em>,9a<em>R</em>)-<em>rel</em>-;2<em>H</em>-Quinolizinium, 3-(di-2-thienylmethylene)octahydro-5-methyl-, bromide, <em>trans</em>-;2<em>H</em>-Quinolizinium, 3-(di-2-thienylmethylene)octahydro-5-methyl-, bromide, (5<em>R</em>,9a<em>R</em>)-<em>rel</em>-;HSR 902;Tiquizium bromide;Thiaton;HS 902",
    "duplicated_cas_no": "",
    "SMILES": "C(=C1C[N@+]2(C)[C@@](CC1)(CCCC2)[H])(C3=CC=CS3)C4=CC=CS4.[Br-]",
    "meta_data": {
        "InChI": "InChI=1/C19H24NS2.BrH/c1-20-11-3-2-6-16(20)10-9-15(14-20)19(17-7-4-12-21-17)18-8-5-13-22-18;/h4-5,7-8,12-13,16H,2-3,6,9-11,14H2,1H3;1H/q+1;/p-1/t16-,20-;/s2",
        "InChIKey": null,
        "Canonical SMILES": "[Br-].S1C=CC=C1C(C=2SC=CC2)=C3CCC4CCCC[N+]4(C)C3",
        "Molecular Formula": "C<sub>19</sub>H<sub>24</sub>NS<sub>2</sub>.Br",
        "Molecular Mass": "",
        "Melting Point": "278-281 °C (decomp)"
    }
}