{
    "cas_no": "42835-25-6",
    "key_name": "Flumequine",
    "cn_name": "氟甲喹;9-氟-6,7-二氢-5-甲基-1-氧代-1H,5H-苯并(ij)喹嗪-2-羧酸;",
    "alternate_name": "1<em>H</em>,5<em>H</em>-Benzo[<em>ij</em>]quinolizine-2-carboxylic acid, 9-fluoro-6,7-dihydro-5-methyl-1-oxo-;9-Fluoro-6,7-dihydro-5-methyl-1-oxo-1<em>H</em>,5<em>H</em>-benzo[<em>ij</em>]quinolizine-2-carboxylic acid;R 802;Flumequine;Imequyl;Flumix;Flumisol;Flumiquil;R 802 (bactericide);Flumigal;Apurone;Fantacin;Firestop;(±)-Flumequine",
    "duplicated_cas_no": "143984-63-8",
    "SMILES": "O=C1C=2C=3N(C=C1C(O)=O)C(C)CCC3C=C(F)C2",
    "meta_data": {
        "InChI": "InChI=1S/C14H12FNO3/c1-7-2-3-8-4-9(15)5-10-12(8)16(7)6-11(13(10)17)14(18)19/h4-7H,2-3H2,1H3,(H,18,19)",
        "InChIKey": null,
        "Canonical SMILES": "O=C(O)C1=CN2C=3C(=CC(F)=CC3CCC2C)C1=O",
        "Molecular Formula": "C<sub>14</sub>H<sub>12</sub>FNO<sub>3</sub>",
        "Molecular Mass": "261.25",
        "Melting Point": "253-255 °C"
    }
}