{
    "cas_no": "529-38-4",
    "key_name": "Cocaethylene",
    "cn_name": null,
    "alternate_name": "8-Azabicyclo[3.2.1]octane-2-carboxylic acid, 3-(benzoyloxy)-8-methyl-, ethyl ester, (1<em>R</em>,2<em>R</em>,3<em>S</em>,5<em>S</em>)-;8-Azabicyclo[3.2.1]octane-2-carboxylic acid, 3-(benzoyloxy)-8-methyl-, ethyl ester, [1<em>R</em>-(<em>exo</em>,<em>exo</em>)]-;Cocaethylene;Ethyl benzoylecgonine;Homocaine;Ecgonine ethyl ester benzoate (ester);<em>O</em>-Benzoyl-<em>l</em>-ecgonine ethyl ester;Cocaethyline;Homococaine;Cocaethylin;Benzoylethylecgonin;Ethylcocaine",
    "duplicated_cas_no": "",
    "SMILES": "O(C(=O)C1=CC=CC=C1)[C@@H]2[C@H](C(OCC)=O)[C@@]3(N(C)[C@](C2)(CC3)[H])[H]",
    "meta_data": {
        "InChI": "InChI=1S/C18H23NO4/c1-3-22-18(21)16-14-10-9-13(19(14)2)11-15(16)23-17(20)12-7-5-4-6-8-12/h4-8,13-16H,3,9-11H2,1-2H3/t13-,14+,15-,16+/m0/s1",
        "InChIKey": null,
        "Canonical SMILES": "O=C(OC1CC2N(C)C(CC2)C1C(=O)OCC)C=3C=CC=CC3",
        "Molecular Formula": "C<sub>18</sub>H<sub>23</sub>NO<sub>4</sub>",
        "Molecular Mass": "317.38",
        "Melting Point": "109 °C"
    }
}