{
    "cas_no": "4049-81-4",
    "key_name": "2-Methyl-1,5-hexadiene",
    "cn_name": "2-甲基-1,5-己二烯;2-甲基-1,5-环己二烯;",
    "alternate_name": "1,5-Hexadiene, 2-methyl-;2-Methyl-1,5-hexadiene;2-Methyldiallyl;5-Methyldiallyl;NSC 66540",
    "duplicated_cas_no": "",
    "SMILES": "C(C(C)=C)CC=C",
    "meta_data": {
        "InChI": "InChI=1S/C7H12/c1-4-5-6-7(2)3/h4H,1-2,5-6H2,3H3",
        "InChIKey": null,
        "Canonical SMILES": "C=CCCC(=C)C",
        "Molecular Formula": "C<sub>7</sub>H<sub>12</sub>",
        "Molecular Mass": "96.17",
        "Boiling Point": "88.1 °C",
        "Melting Point": "-128.8 °C",
        "Density": "0.723 g/cm³ @ Temp: 24 °C"
    }
}