{
    "cas_no": "14191-95-8",
    "key_name": "4-Hydroxybenzyl cyanide",
    "cn_name": "对羟基苯乙腈;",
    "alternate_name": "Benzeneacetonitrile, 4-hydroxy-;Acetonitrile, (<em>p</em>-hydroxyphenyl)-;4-Hydroxybenzeneacetonitrile;<em>p</em>-Hydroxybenzyl cyanide;<em>p</em>-Hydroxyphenylacetonitrile;(4-Hydroxyphenyl)acetonitrile;4-Hydroxybenzyl cyanide;α-Cyano-<em>p</em>-cresol;4-(Cyanomethyl)phenol;4-Hydroxybenzylnitrile;NSC 76080;2-(4-Hydroxyphenyl)acetonitrile",
    "duplicated_cas_no": "",
    "SMILES": "C(C#N)C1=CC=C(O)C=C1",
    "meta_data": {
        "InChI": "InChI=1S/C8H7NO/c9-6-5-7-1-3-8(10)4-2-7/h1-4,10H,5H2",
        "InChIKey": null,
        "Canonical SMILES": "N#CCC1=CC=C(O)C=C1",
        "Molecular Formula": "C<sub>8</sub>H<sub>7</sub>NO",
        "Molecular Mass": "133.15",
        "Melting Point": "65-70 °C"
    }
}