{
    "cas_no": "7003-80-7",
    "key_name": "4-(Triethoxysilyl)benzenamine",
    "cn_name": null,
    "alternate_name": "Benzenamine, 4-(triethoxysilyl)-;Aniline, <em>p</em>-(triethoxysilyl)-;4-(Triethoxysilyl)benzenamine;(<em>p</em>-Aminophenyl)triethoxysilane;4-(Triethoxysilyl)aniline;(4-Aminophenyl)triethoxysilane;<em>p</em>-(Triethoxysilyl)aniline",
    "duplicated_cas_no": "",
    "SMILES": "[Si](OCC)(OCC)(OCC)C1=CC=C(N)C=C1",
    "meta_data": {
        "InChI": "InChI=1S/C12H21NO3Si/c1-4-14-17(15-5-2,16-6-3)12-9-7-11(13)8-10-12/h7-10H,4-6,13H2,1-3H3",
        "InChIKey": null,
        "Canonical SMILES": "O(CC)[Si](OCC)(OCC)C1=CC=C(N)C=C1",
        "Molecular Formula": "C<sub>12</sub>H<sub>21</sub>NO<sub>3</sub>Si",
        "Molecular Mass": "255.39",
        "Boiling Point": "145-150 °C @ Press: 14 Torr"
    }
}