{
    "cas_no": "856834-95-2",
    "key_name": "3-Bromo-2-chloro-6-methyl-5-nitropyridine",
    "cn_name": null,
    "alternate_name": "Pyridine, 3-bromo-2-chloro-6-methyl-5-nitro-;2-Picoline, 5-bromo-6-chloro-3-nitro-;3-Bromo-2-chloro-6-methyl-5-nitropyridine;3-Bromo-2-chloro-5-nitro-6-picoline",
    "duplicated_cas_no": "",
    "SMILES": "N(=O)(=O)C1=C(C)N=C(Cl)C(Br)=C1",
    "meta_data": {
        "InChI": "InChI=1S/C6H4BrClN2O2/c1-3-5(10(11)12)2-4(7)6(8)9-3/h2H,1H3",
        "InChIKey": null,
        "Canonical SMILES": "O=N(=O)C1=CC(Br)=C(Cl)N=C1C",
        "Molecular Formula": "C<sub>6</sub>H<sub>4</sub>BrClN<sub>2</sub>O<sub>2</sub>",
        "Molecular Mass": "251.47",
        "Melting Point": "93 °C"
    }
}