{
    "cas_no": "124-41-4",
    "key_name": "Sodium methoxide",
    "cn_name": "甲醇钠;",
    "alternate_name": "Methanol, sodium salt (1:1);Sodium methoxide;Methanol, sodium salt;Sodium methylate;Sodium methanolate;Feldalat NM;Methoxysodium;SM 24;Sodium methoxylate;SM 28;S 108357",
    "duplicated_cas_no": "27419-20-1;879636-47-2;1633026-84-2",
    "SMILES": "CO.[Na]",
    "meta_data": {
        "InChI": "InChI=1S/CH4O.Na/c1-2;/h2H,1H3;",
        "InChIKey": null,
        "Canonical SMILES": "[Na].OC",
        "Molecular Formula": "CH<sub>4</sub>O.Na",
        "Molecular Mass": "",
        "Boiling Point": "~80 °C (approx) @ Press: 0.4 Torr",
        "Melting Point": "127 °C (decomp)",
        "Density": "0.45 g/cm³"
    }
}