{
    "cas_no": "775-15-5",
    "key_name": "1-(Phenylmethyl)-3-pyrrolidinol",
    "cn_name": "N-苄基-3-吡咯烷醇;1-苄基-3-羟基吡咯烷;",
    "alternate_name": "3-Pyrrolidinol, 1-(phenylmethyl)-;3-Pyrrolidinol, 1-benzyl-;1-(Phenylmethyl)-3-pyrrolidinol;1-Benzyl-3-hydroxypyrrolidine;1-Benzyl-3-pyrrolidinol;<em>N</em>-Benzyl-3-hydroxypyrrolidine;<em>N</em>-Benzyl-3-pyrrolidinol;(±)-1-Benzyl-3-hydroxypyrrolidine;(<em>RS</em>)-<em>N</em>-Benzyl-3-pyrrolidinol",
    "duplicated_cas_no": "101979-03-7",
    "SMILES": "C(N1CCC(O)C1)C2=CC=CC=C2",
    "meta_data": {
        "InChI": "InChI=1S/C11H15NO/c13-11-6-7-12(9-11)8-10-4-2-1-3-5-10/h1-5,11,13H,6-9H2",
        "InChIKey": null,
        "Canonical SMILES": "OC1CN(CC=2C=CC=CC2)CC1",
        "Molecular Formula": "C<sub>11</sub>H<sub>15</sub>NO",
        "Molecular Mass": "177.24",
        "Boiling Point": "113-115 °C @ Press: 2 Torr",
        "Density": "1.0688 g/cm³ @ Temp: 20 °C"
    }
}