{
    "cas_no": "474-86-2",
    "key_name": "Equilin",
    "cn_name": null,
    "alternate_name": "Estra-1,3,5(10),7-tetraen-17-one, 3-hydroxy-;Equilin;3-Hydroxyestra-1,3,5(10),7-tetraen-17-one;1,3,5,7-Estratetraen-3-ol-17-one;7-Dehydroestrone;NSC 10971;MeSH ID: D004857",
    "duplicated_cas_no": "",
    "SMILES": "C[C@@]12[C@](C=3[C@@](C=4C(CC3)=CC(O)=CC4)(CC1)[H])(CCC2=O)[H]",
    "meta_data": {
        "InChI": "InChI=1S/C18H20O2/c1-18-9-8-14-13-5-3-12(19)10-11(13)2-4-15(14)16(18)6-7-17(18)20/h3-5,10,14,16,19H,2,6-9H2,1H3/t14-,16+,18+/m1/s1",
        "InChIKey": null,
        "Canonical SMILES": "O=C1CCC2C3=CCC4=CC(O)=CC=C4C3CCC12C",
        "Molecular Formula": "C<sub>18</sub>H<sub>20</sub>O<sub>2</sub>",
        "Molecular Mass": "268.35",
        "Melting Point": "239 °C"
    }
}