{
    "cas_no": "306937-27-9",
    "key_name": "Hydrazine, [3-(1,1-dimethylethyl)phenyl]-, hydrochloride (1:1)",
    "cn_name": null,
    "alternate_name": "Hydrazine, [3-(1,1-dimethylethyl)phenyl]-, hydrochloride (1:1);Hydrazine, [3-(1,1-dimethylethyl)phenyl]-, monohydrochloride;3-<em>tert</em>-Butylphenylhydrazine hydrochloride",
    "duplicated_cas_no": "",
    "SMILES": "C(C)(C)(C)C1=CC(NN)=CC=C1.Cl",
    "meta_data": {
        "InChI": "InChI=1S/C10H16N2.ClH/c1-10(2,3)8-5-4-6-9(7-8)12-11;/h4-7,12H,11H2,1-3H3;1H",
        "InChIKey": null,
        "Canonical SMILES": "Cl.NNC1=CC=CC(=C1)C(C)(C)C",
        "Molecular Formula": "C<sub>10</sub>H<sub>16</sub>N<sub>2</sub>.ClH",
        "Molecular Mass": "",
        "Melting Point": "207-209 °C"
    }
}