{
    "cas_no": "67004-64-2",
    "key_name": "1-Methyl-2-pyrrolidineethanol",
    "cn_name": "N-甲基-2-(2-羟乙基)吡咯烷;",
    "alternate_name": "2-Pyrrolidineethanol, 1-methyl-;1-Methyl-2-pyrrolidineethanol;2-(2-Hydroxyethyl)-1-methylpyrrolidine;2-(2-Hydroxyethyl)-<em>N</em>-methylpyrrolidine;2-[<em>N</em>-Methylpyrrolidin-2-yl]ethanol;<em>N</em>-Methyl-2-(2-hydroxyethyl)pyrrolidine;2-(1-Methylpyrrolidin-2-yl)ethanol;<em>N</em>-Methyl-2-pyrrolidineethanol;2-(1-Methylpyrrolidin-2-yl)ethan-1-ol",
    "duplicated_cas_no": "61810-76-2",
    "SMILES": "C(CO)C1N(C)CCC1",
    "meta_data": {
        "InChI": "InChI=1S/C7H15NO/c1-8-5-2-3-7(8)4-6-9/h7,9H,2-6H2,1H3",
        "InChIKey": null,
        "Canonical SMILES": "OCCC1N(C)CCC1",
        "Molecular Formula": "C<sub>7</sub>H<sub>15</sub>NO",
        "Molecular Mass": "129.20",
        "Boiling Point": "110-112 °C @ Press: 14 Torr"
    }
}