{
    "cas_no": "141-98-0",
    "key_name": "<em>O</em>-(1-Methylethyl) <em>N</em>-ethylcarbamothioate",
    "cn_name": "乙基硫代氨基甲酸-O-(1-甲基乙基)酯;",
    "alternate_name": "Carbamothioic acid, <em>N</em>-ethyl-, <em>O</em>-(1-methylethyl) ester;Carbamic acid, ethylthio-, <em>O</em>-isopropyl ester;Carbamothioic acid, ethyl-, <em>O</em>-(1-methylethyl) ester;<em>O</em>-(1-Methylethyl) <em>N</em>-ethylcarbamothioate;<em>O</em>-Isopropyl <em>N</em>-ethylthiocarbamate;Ethylthiocarbamic acid, <em>O</em>-isopropyl ester;<em>O</em>-Isopropyl ethylthiocarbamate;Z 200 (flotation agent);<em>O</em>-Isopropyl <em>N</em>-ethylthionocarbamate;Minerec 2030;Z 200;XKP 03",
    "duplicated_cas_no": "",
    "SMILES": "O(C(NCC)=S)C(C)C",
    "meta_data": {
        "InChI": "InChI=1S/C6H13NOS/c1-4-7-6(9)8-5(2)3/h5H,4H2,1-3H3,(H,7,9)",
        "InChIKey": null,
        "Canonical SMILES": "S=C(OC(C)C)NCC",
        "Molecular Formula": "C<sub>6</sub>H<sub>13</sub>NOS",
        "Molecular Mass": "147.24",
        "Boiling Point": "120-122 °C @ Press: 0.7 Torr",
        "Density": "0.9854 g/cm³ @ Temp: 20 °C"
    }
}