{
    "cas_no": "58336-35-9",
    "key_name": "2,3,6,7-Tetrahydro-1<em>H</em>,5<em>H</em>,11<em>H</em>-[1]benzopyrano[6,7,8-<em>ij</em>]quinolizin-11-one",
    "cn_name": "香豆素6H;",
    "alternate_name": "1<em>H</em>,5<em>H</em>,11<em>H</em>-[1]Benzopyrano[6,7,8-<em>ij</em>]quinolizin-11-one, 2,3,6,7-tetrahydro-;2,3,6,7-Tetrahydro-1<em>H</em>,5<em>H</em>,11<em>H</em>-[1]benzopyrano[6,7,8-<em>ij</em>]quinolizin-11-one;Exciton LD 490;LD 490;C 6H (dye);Coumarin C 6H;Coumarin 6H;C 6H;2,3,5,6-Tetrahydro-1<em>H</em>,4<em>H</em>-11-oxa-3a-aza-benzo[<em>de</em>]anthracen-10-one;2,3,6,7-Tetrahydro-1<em>H</em>-pyrano[2,3-<em>f</em>]pyrido[3,2,1-<em>ij</em>]quinolin-11(5<em>H</em>)-one",
    "duplicated_cas_no": "115727-65-6;68444-84-8",
    "SMILES": "O=C1OC2=C3C4=C(C=C2C=C1)CCCN4CCC3",
    "meta_data": {
        "InChI": "InChI=1S/C15H15NO2/c17-13-6-5-11-9-10-3-1-7-16-8-2-4-12(14(10)16)15(11)18-13/h5-6,9H,1-4,7-8H2",
        "InChIKey": null,
        "Canonical SMILES": "O=C1OC2=C(C=C1)C=C3C4=C2CCCN4CCC3",
        "Molecular Formula": "C<sub>15</sub>H<sub>15</sub>NO<sub>2</sub>",
        "Molecular Mass": "241.29",
        "Melting Point": "127-129 °C"
    }
}