{
    "cas_no": "7440-44-0",
    "key_name": "Carbon",
    "cn_name": null,
    "alternate_name": "Carbon;Carbon-12;Norit;AG 5;AU 3;BAU;Supersorbon IV;SKT;SU 2000;AG 3;Irgalite 1104;Grosafe;CLF II;XF 4175L;Carbopol M;Carbopol Z 4;Carbopol Z extra;Suchar 681;CMB 50;CMB 200;Filtrasorb 200;SKG;AR 3;SKT (adsorbent);AG 5 (adsorbent);AK (adsorbent);AG 3 (adsorbent);K 257;Pelikan C 11/1431a;Anthrasorb;Supersorbon S<sub>1</sub>;CWN 2;Filtrasorb;Filtrasorb 400;Columbia LCK;XE 340;Carbopol extra;ART 2;OU-B;CF 8 (carbon);Carbosorbit R;JADO;Carbosieve;U 02;CF 8;BG 6080;CuZ 3;BACM;FB 4;AGN 1 (carbon);AGN 2 (carbon);AK;P 4010;AGS 3;P 5025;DAK;Ecosorb C;SKT 2-299;SKT 3-301;ART 2-302;Amoco PX 21;Canesorb;Carbosphere;Kurekasphere;Carbopol O 2;Carbopol O 3;Glukonat 4;Calgon PCB-D;GH 16;KAD;AGS 4 (adsorbent);AGS 4;Ecosorb C-GL 63;Ecosorb C-GL 64;CF 32-1;Nacar 600;Calgon BPL;Norit RB 1;Sorbonorit B 3;Carborundum GAC 616GA;HS 4 (carbon);HS 4;SKT 2;Carbosieve S;Norit R 3230;AU;AU 7;AU 10;AU 11;AU 14;AU 15;AU (adsorbent);AU 65;AU 66;AU 1;AU 8;AU 42;AU 47;AU 63;Taiko KW;HCB 18;Carbon element;P 3JHA-B;Calgon F 400;NSC 4;GLC-Y;Sigradur G;GS-B;Coal-Base CL-H;Coal-Base SL-F;Yashi-Coal L;Witco 950;Shirasagi A 1;Shirasagi A;AU 69;GS 01;SKN 2M;TKX 17;Carbosieve G;Calgon MSC-V;GCR 101;GCR 5;Y 6 (adsorbent);CC 521G;Calgon PCB 12X30;Y 6;EDEX-C;Tsurumicoal 4GV;CG 5;S<sub>2</sub>X 6/8-2;Nittan Y;Witcarb 940;207A (carbon);CPP 9;CPP 16;CF 17;SKT 6A;Shirasagi G 2C;SGF 6;Diasorb W;Carbosieve S-III;AU 10Mg;CHSH 2;Calgon CMX 1;Calgon GRC-II;WL 2 (carbon);Ga-S 1;Tsurumicoal PC;Tsurumicoal GL 30;Shirasagi G 2-4/6D;GS 01 (carbon);GW 10/32;Kurekasphere A 50;AX 21;PN (carbon);Eponit 113N;PN;BAC-MP;BAC-MQ 50801;AR-A (carbon);Calgon PCB 20X40;M 934;AR-A;TU 1K5;EM-K 14;Norit RKD 3;CMW 200;BP 20;Norit R 2;GM-AS;GM-GS;PM-SX;Mesocarbon Microbeads;207A;SKN (catalyst);KPK (catalyst);KPK;SKN;BAU 1;DOU 107;DOU 108;Hydraffin;Sodex CM 30;Purasieve;SKT 6;Mesocarbon Microbeads MPB 20;Calgon CPG;Diahope;KM 2 (adsorbent);KM 2;AGN 1;AGN 2;Norit KB;Calgon F 300;AS-O (adsorbent);AS-O;Acticarbon TK;SG 1 (carbon);SG 1;POM 5;BAU 1 (carbon);BAU (carbon);BAC-G 70R;Shirasagi C<sub>2</sub>X 4/6-2;Shirasagi W 50;C 2000S;SG 200 (carbon);SG 200;AUVM;Darco T 88;AG 2;Sibunit 85P;Sibunit 35P;Sibunit 55P;Sibunit 619P;Norit A 8982;Separcol CARB;AG 2 (catalyst support);HC 6;4GCX;Shirasagi C 2C;Hydraffin 30;ICB 0305;ART 2 (carbon);Cecalite;Renoves;STH 7344;AG-M (carbon);AG-M;Topsorb S 1;Maxsorb;Norit PK;Calgon PCB;Calgon OL;Columbia JXN;Shirasagi M;WL 2;Shirasagi AM 154;LPK 418;Kurasheet 2000;Pettedarco A;SCII (adsorbent);BPL (adsorbent);BPL;BPL-F 3;Calgon BPL-F 3;RFM-C;SCII;WPX;Calgon WPX;Shirasagi KL;Sorbalit Combi;CECA SA 1763;Sorbtech DL 13;AC 100 (adsorbent);AC 01 (adsorbent);AC 01;AC 100;F 30/470;Ebadia 5LG;Sibunit;X 7000;Shirasagi WH;Diasorb F;X 7100;Sigradur K;Norit RL-II;Mavicell AC;Shirasagi GX;Mitsubishi Gas Carbon;Taiko S;Tsurumicoal 4G3S;PG 3 (carbon);PG 3;NC 35;CAR 95;BAX 950;Granucol Fa;Granucol Bi;Taiko Y;MCMB 10;ROMS;FY 1;GAC 40;Maxsorb AW 30;Norit SA 5;Calgon CPG-LS 14X40;AR 3 (carbon);Kuranica;Taiko CW 350SR;Taiko CW 130SR;Shirasagi P;Diasorb F 100;AT 3CM;Calgon APA;Calgon APC;Taiko W;AR 2;Wv 1100;AC 40;SA 1810;AR 2 (carbon);BC 51;BC 53;M 30;Shirasagi C<sub>2</sub>X;CPG;BC 51 (carbon);Kintal FY;PW-W 5;Cecarbon 12X40;Chemviron Carbon BPL;AC 40 (adsorbent);M 30 (catalyst);CPG (catalyst);Diahope 006;Eurocarb TN 5;Hydraffin DG 47;Norit ROW Supra;Diahope S 80;Eurocarb PHO;Eurocarb YAO-WW;Hydraffin CC;Norit RB 2;Maxsorb G 15H;Yashi-Coal LC;Diahope 106;SMP 4;Fuji Kasseitan BCW;MCMB 6-20;AT 15;Pyrolite;AT 15 (carbon);WS-IV;LS 2849;Super A-AX 21;Maxsorb 30AW;Calgon PCB-G;Renoves M 40;PVC-G;WPH;FCA;FCA (adsorbent);CX 2;MCMB 25-28;AGN 3;ARD;Glassy carbon;M 20;M 15;LPK 436;ARD (carbon);Bellfine BG;M 20 (carbon);M 15 (carbon);CMS 5A;CC 1230;Norit RO 0.8;Diahope 8W;Kintal BFG;R 1 Extra;Calgon KCG;Norit R 1 Extra;Norit R 1;Kombisorb;Norit SX Extra;P 4;ELAT;CFF 30;Novacarb;Taiko GL 30;Starcoal GAC;Shirasagi X 7100-3;Taiko GL 20;CW 48B;Actitex CS 1501;Super Collohite 16;P 4 (deodorant);Bellfine;Glassy Carbon GCP 1OH;AT 2C;Super Activated Carbon M 2000;FM 150;GCP 10H;FM 150 (carbon);Sorbonorit B;P 4010 (carbon);T 1047;RE 500;Y 300;Y 60 (adsorbent);RE 500 (carbon);Y 300 (carbon);20SPD;GCP 30H;SA 30;SA 30 (support);ICB 1020;Kyoryoku Shirasagi;Carboxene 1003;Maxsorb MSC 25;Centaur;CG 10;FB 4 (carbon);SGS;Maxsorb MSC 30;Calgon CPG-LF;Calgon TOG;SD 426B;207E3;Shirasagi LH 2C;Shirasagi W 2C;MBC-NC;NS 70T10;AG-OV 1;Taiko GL 30 No. 1;PXS;SKT 3;Tsurumicoal 2GS;Taiko SG-A;SKT 3 (carbon);Diahope 008;SD 2841HAL-IR;Norit GF 45;3GX;Norit RX 08;Yashibon 2;Carbon S;Norit RX 1.5 Extra;Renoves MCMB 20-10;S 80A;Shirasagi GC;Norit Pureflow 1;Taiko SGP;EG 120;FAS 3 (carbon);FS 400;EA 207;Darco KBB;CG 48B;Ebadia 5AP2;Shirasagi WH 2X;U 02 (carbon);BAX 1100;BAX 1500;Norit CNR 115;Sulfsorb;X 8000;Shirasagi GC 4/8;Norit R Extra;CW 480B;SA 1000;Vapure 612;Tsurumicoal HC 14;Purakol AMS;CQS (carbon);Shirasagi AS;Carbotron P;MCF;CQS;Odourcarb 208CP;Odourcarb 205CP;Odourcarb 203CP;WD Extra;Picabiol;NP 5 (sorbent);CWZ 22;HF;MC 1020;PC 05-20;PHC 4;NP 5;HF (carbon);PHC 4 (carbon);Norit GAC 830 Plus;EP 1002;Visco Black 1056;Darco S 51HF;EP 1002 (carbon);BP 25 (carbon);CHR 98-55;KAU;Sorbon;FAS 1 (carbon);FAS 2;FAS-N 15;Karbolin 1;Karbolin 2;PW 50;FAS 1;Carbon nanotube;Carbon nanotubes;Supersorbon EK;Kontisorbon;Bintyotan;ICB 320;Norit R 0.8 Extra;BGWJX 108;SN 50;SN 75;SN 100;CB 10-1000;CB 3-1000;CB 30-1000;Univeks GCP-H;Y 4;Carbolex AP;SN 100 (adsorbent);SN 50 (adsorbent);Y 4 (carbon);Diahope S 80B;Acticarbon ENO;Acticarbon 25K;Calgon WPH 1000;Makusope;Perufain;MSP 20;BP 20 (carbon);BP 25;Diamond-like carbon;Dim 116;TU 60;PC 5060G;KW 10-32;L 97-1-58;L 6006;Shirasagi FPG 1W50;Shirasagi NCC;Diahope S 80S;GW 48/100;Minotaur;CA 10 (carbon);HBPlus;CA 1;CA 10;ER 53;Calgon PSC;WV-A 1100;TOG 80X325;Shirasagi MW 50;Norit 2020;Chemviron IVP;Enimont MIP 2;Norit RX 1 Extra;G-BAC;Norit SX 1G;Takecoal 50WR;Carbopol M 3;SLS 103;WWL;Sigradur;Diahope 6D;MCMB 25G;GAe (carbon);GAe;Taiko K;Shirasagi MAC-W 8/24;Hipco;Nicabeads MC 0520;Norit SA Super;MCMB 10-28;Tsurumicoal PA;Waterlink 207;Calgon BCP;Waterlink SE;Sibunit 6;MCMB 6-10;SA 20;1262R97;606R97;2C98;Empore Disk Carbon;Empore Carbon;Diahope CX 2;T-SB 48/100;WH<sub>2</sub>C 40/100LH;4GM;Norit TB 3;AG 2-4;SA Black 12560;Mulco 5333 Black;DW 250H;MCMB 10G;MWCNT 1;MWCNT 4;MWCNT 6;CVD-MWNT 95;Graphit-iC;Carbon 2RL Extra;GC 20 (carbon);PRT-HT 19;GC 20;GCP 10L;KP 191;HLP-S 20;AG 95;CL-K;AG 95 (carbon);CarbonTech;Norit RB 3;BSP 10AS;APB 10C;KC 900-10;Udag;X 7100-3;Nyex 100;P 161;SA 20 (carbon);GA 160;LPN 36;LPN 37;Norit CA 1;TU 13SK;Shirasagi KA 2;NAC 01;Filtrasorb F 400;BAC-LP;CG 1040;Bellfine MG;Bellfine AB;Buckytubes;TsNa-MWCnt2;Picacarb 12x40;Picacarb G 278;CNT 20;Sparac;LPK 707;FR 25 (carbon);Honeycombcarbo-Shirasagi HN;SKN (adsorbent);ESL RS 15115;SAN 2;SAN 1;Norit SA 4G;Norit SA 4PAH;BuckyPearls;JDHS 3;JDHS 4;Carbal;Kuraray Coal GW 200U;Pyrograf I;Picactif 40;COL;COC;Barnebey Sutcliffe 4707;Calgon Sorbite;Calgon BG;Calgon BPL 4x6;CMK 5;Kuraray Coal GLC;Kintal GA;Picactif SC;Shirasagi A 2;Merck 2183;BAU-MF;SWCNT 2;NT 1;Shirasagi G 2X;MWNT, carbon;HiPCO 86;Alfa Aesar 41774;Advanced Patterning Film;APF;Bellfine AP;Taiko S 1000;Norit RX 3;Centaur Powder;RAC 40;Wh 2c20;YZ;Taiko CW 350B;FM 14;FM 14 (electrode);TDS 10;BU 203;BU 201;FAS 3;AP 4-60;OVC Plus 4X6;P 200UH;CN 3017;Taiko A;Umebachi A;Tokusei-Shirasagi;SWCNT 1;HTC (foam);HTC;Zeocoal M 10A;Shirasagi DO 2;ACP-W;APC;PurePUT K;PurePUT N;Varniphite F;BPL 80X270;CZ-HE 1;Norit PAC 200;BG 20-1;SAC;NUMS;P 3;D 1097;P 3 (nanotube);DCL 200;MZ 10;ZL 30;BX-Super;BX-Ultra;CP 1 (carbon);CP 1;Shirasagi G 2C4/8;ZL 30 (carbon);L-MWNT 1030;Shirasagi GC 007;Hitasol GA 242B;WV-B;Picacarb G 270;GC 007;PAC 2 (adsorbent);Kuricoal WG 160;Kuraray Coal GL;Taiko CW 130A;Nanom Black;F 400;PAC 2;F 400 (adsorbent);Granucol Ge;KP 222;Carbostar;Kasedo BW;Lion Paste 356A;SIHA-Carbogran Ge;D 4610;D 4609;Norit Darco 12-40;MGP/HiPco R 0236;SCN 5;SCN 40;CFOAM 17;CFOAM 25;Lamicarbo;NSX 1;NSX 1G;NSXU;NSXP;M 150;WH 2CLSS;WH 2C42/80LSS;WH 2CSS;EHSS;KL (adsorbent);M 150 (carbon);LQ 1000;Kuraray Coal GA;CNT 13;Calgon RB;DSW 3;CMS;CMS (carbon);Industrial React FE 01606A;Nanocyl 7000;7144EL;DiaForce;Hokuetsu Y 10S;Hokuetsu Brand Type Y 10S;NT 5;BAC;BU 200;BU 202;Nanocyl 3100;L-SWCNT;L-MWCNT 4060;AR-B;Nuchar SA 400;RP 20 (carbon);FCS;RP 20;SHX-b;L.SWNT;CTube 100;G 347B;Taiko CA;S-MWCNT 60100;L-MWCNT 60100;GC-SS 20;Norit CG 1;Seisei-Shirasagi;MWNT-A-P;FGL 203;FGT 200;DWNT;YPG 25;PGW 20MD;PGW 100MD;PGW 100;PGW 20;YPG 90;YPG 20MD;YPG 100MD;CG 80X325;Pacco HMM;Y 10S;L-MWCNT 2040;AMI 200H;Taiko P;CW 50;TU 100K8M;Darco FGD;Shirasagi G 2X7/12;CCE 01PA;RA 5-100;LPR 100;Elicarb;Kyouryoku Shirasagi;Baytubes C 150P;S-SWNT;WH 2C8;MRGC;MRSW;EM 1;Kuraray Coal RP 15;EM 1 (nanotube);GH 3892;Picahydro LP 27;CMF 601;CMF 701;CMF 801;CMF 901;Diahope PXO;Norit SA Super DD;GC 1 (carbon);PLC 1SR;G-AC;Shirasagi KA;AquaGuard;VA 507;Nanocyl 9000;GC 1;SPC 01;SPC 02;Pica 70;BC 120;Pica SC;Actitex SC 1501;Actitex WWP 3;VGE-S 16;L-MWNTs 10;Picactif;TE 80;X 40S;Kansai MAXSORB;Norit RGM 3;SAN 2 (carbon);TE 80 (carbon);Taiko SA 1000;ATE;Nanocyl 1100;ATI-MWNT 001;XS 7100;Carborafin 6;GC 100;GC 100 (carbon);MQ 1233;PUOO-SH 96;Norit 830RS;Darco 175KB-G;CC 602;Taiko QW;Darco MRX;Norit GAC 1240 Plus;SWNT-FH-P;SGL;Filtrasorb 600;Diahope M 008;ECP 600;YA 1;Norit SX 3;CM 95;DAK (carbon);MWCNT 3100;R 53S;R 54S;R 55S;YCC (carbon);FCC (carbon);PW-D;PW-K;MSC 30SS;YCC;MSC 30;Kuraray Coal PK-D;PDX 2;Graphistrength C 100;Norit RBAA 1;RBAA 1;FCC;SWNT;Carbotron PS(F);HT-DLC;NC 506;YPC 100MD;Taunit;Norit KBB;Ebadia 5LPD-N;Nicabeads ICB 1020;M 1203;EAC 2;EAC 3;MCMB 2528;Diafresh OR-SON AT;MWCNT 7;Baytubes DP-HP;RDBA;R 5000;NSN-III;i-DAC;Nanocyl 3150;NP 20;Filtracarb FY 5;R 5000 (carbon);NP 20 (carbon);SGP;Norit S 51;NC 7000;S-DWNT;Kuraray Coal GW 60/150;Kuraray Coal YP 100;Elgraph S;WS 310A;GP 5;GP 5 (carbon);C 150HP;Norit RB 4;SGS 250;Biolite (carbon film);Baytubes CNT-WFA 147;CLAP 8333;APF film;Tsurumicoal 7GX;7GX;SU 900;BACM (carbon);Insul;Norit Super 30;CNT 100;KYU-A 001;R 0488;Baytube 150P;Sigracet GDL 10CA;Norit ROW 0.8;Norit W 52;YK 15;K 163 (carbon);Carbere AR 50HT;P 3SWNT;CVD-MWNT CM 95;K 163;Kuricoal WG 560;MJ 5;E 601J;Buttuber;HiPco P 0244;HQ 1;CNT 10;Hokuetsu BA;MWNT 7;Diahope 006N;SKT 4;SKT 4 (carbon);SG 3;K-W 50;Baytubes C 150HP;PD 15L520;PD 15L15;AquaSorb 202;SG 3 (carbon);CS 700AC;CS 900AC;CS 1200AC;Ecosorb S 426;SXPL 03;Grafoam FRA 15;L-MWNTs 2040;601D;340F;Torry 090;601D (carbon);CNS 201;IRH 33;IRH 40;AX 21 (carbon);ISEM 1;C 150P;CNT 50NL;CP 290X1;CP 300X1;CP 300X6;Aldrich G 60;CGF 1-3/100;PAK 1420;CBP;Chezacarb B;Chezacarb S;Kuraray Coal 4GS;Kuraray Coal 7GS;MBBG 21A;L-MWNT Multi Wall Carbon Nanotubes 2040;HSAG 500;Maxsorb MSP 20;CG 48AR;P 2SWNT;Cap Super;Hokuetsu ZN 2;Hokuetsu ZN 1;Hokuetsu CP 2;Hokuetsu CL-K;Purolite AC 20G;Noritdarco S 51A;Tipo PA 20;Tsurumicoal 4BC;SV-OW 10;SKN-II;SMA;GF 40;AP 60-80/90;SMA (carbon);GF 40 (carbon);Elementary substance carbon;Shirasagi C<sub>2</sub>X 6/8;YK 1;Kuraray Coal GM;Shirasagi C<sub>2</sub>2X 6/8;GC 20SS;Unibeads C;CNTM 85;YP 50F;NC 700;TC 700;L-MWNT 1020;NC 700 (carbon);MCNT;Meijo-Arc AP-J;SY 9;SY 9 (carbon);SY 16;SA 100;SKT 4B;AUK (adsorbent);SA 100 (carbon);AUK;AU 71;FAS 2-05;FAS 1-05;AU 6A;AUK-N;ABEKR 1;CNI-SWNT;NC 3100;Shirasagi WH 2C42/80LSS;L-SWCNT 2;L-MWCNT 10;AR 10;AR 10 (carbon);Grafoam FPA 35;Picabiol B 1;Picabiol NC 60;CNS (carbon nanosphere);Hipco super-purified SWNTs;Diasorb W 10-30;WA (carbon);WA;GC 050;Maxsorb 3000;EAZY-N;4GS;SS 1;CLP;Norit SAE Super;Shirasagi S 2X6/8-3;AG 1;Marilin GC 010;SMX;AG 1 (activated carbon);GW 48/10;BC 15/1;Norit GAC 1240N;CPG-LF;GAC 1240N;HTF 110FF-XT-LHT;KL;ZN 50;Elat GDL-HT 1400W;SCMG-AR 4RF;SK 331;EcoSorb CX;Nuchar WV;SAI 11;FTU 30;CCE 03PB4;Filtrasorb 300;BAC-SP;GA 1000;Varniphite T 602US;Everyohm T 30PLB;Norit CGSP;Norit CASP;Norit PAC 200C;Darco A 51;S 1212;Norit NRS;Baytubes C 150;Phito Porous SH;Nuclearcarb 203C;AC 0;Shirasagi WH 2c20/48L;Shirasagi PHC 5;Biolite;CNTRENE C 100;Maxsorb 3;Maxsorb 30;MSC 25;BP 71;CXV;CoMoCAT;Kuraray Coal GW-H24/42;RGC 30;Carbochem CA 50;L-MWNT 4060;L-MWNT 6010;CG 48SR;TM 100;Meijo-Arc SO;CNA 421;FloTube 9000;CNA 229;CNA 196;CNA 365;Norit GF 40;YP 80;Carbon (multi-walled nanotubes);Norit ROZ 3;Norit RB 4W;Nanocyl NC 7000;Nanocyl NC 2100;NA 3A;Elicarb PR 0940;PK-E;Hokuetsu AX;Hokuetsu BA-Z;Hokuetsu ZN;Hokuetsu F 17;Hokuetsu SD;Calgon BG-HHM;Diahope P;Norit R 3 Extra;CGran;Nanocyl N 7000;Pica Picatal;Cudu Petrochil;XBC 1001;FH-P;Hokuetsu GSA;NTX 1;Clarimex 061;DLC-Star;ZN 2;Advanced Patterning Film 550;APF 550;AST 100F;FTU 60N4-20;Elicarb MW;Diahope 8ED;A-BAC-PW 15;CCP 40;Nanocyl 2100;Dratnasirs 50-325;CM 100;CFOAM 20;G 15;Norit RX 3 Extra;Norit GCN 1240;G 15 (carbon);Desorex HGD 2S;Shirasagi G 2;GH 87;CFOAM 15;F 101RA/W;NK 260;YP 80F;HiPco CNT;A-BAC-MP;MCMB 25-58;Meijo-Arc;Calgon LF;CB 3030B;JSC 18;S-W 50;6MW-K;CNT-S 95;Norit SX-II;Toka Black 18500F;Picachem 150;WG 12;WG 12 (adsorbent);Bellfine LN 0001;Bellfine AP 20;Hokuetsu F;RP 15;Aldrich 704113;S-MWNT 4060;Baytube C 150B;ENO-PC;Graphistrength U 100;ASP 100F;Nanocyl 7001;76-CoMoCAT;Fluesorb B;Hollow NK 50;NK 50;Shirasagi FPG 1;HTF 110FF;Hana DW 50;SN 2102;P 940;GN-UC-H;GC 30;C 100;Fibril MB 3020-01;APJ;SO (carbon);SO;Organosorb 10CO;Filtrasorb TL 830;XC 223;TNM 3;RCT-HF 400;CarboTech CMS-H 2-55/2;CarboTech CMS-H 2-47/3;Taiko SW 50;Shirasagi C 2X8/12;NT 7K;CT 12K;NT 7;CT 12;DP-LP 150P;Dotite XC 12;MSP 20M;Maxsorb MSP 20M;E Supra;SX Ultra;Filtracarb SXO;AK 14;M 4907;AK 14 (carbon);Carbodis TA;SWeNT SG 65;SWeNT SG 65SRX;SWeNT SG 76;SWeNT CG 100;Unidym;ASA 100F;E 101NO/W;E 105CA/W;Nicabeads ICB 0510;ZQ 303;ZQ 610;ZQ 15;FloTube 7000;Molymet;Cudu;YP 50;CNTD 317;Timestub;Kuricoal W 710;S-MWNT 1030;TCM 220-10;Shirasagi PC;CoMoCAT SG 65;CM 250;Kuraray Coal KW;Kuraray Coal YP;Kuraray Coal PW;Kuraray Coal BP 25;Kuraray Coal T-SB 48/100;Kuraray Coal T-SB 24/42;Kuraray Coal 4GG;Kuraray Coal GC;Kuraray Coal PW-W 5;Kuraray Coal P 2000U;Kuraray Coal 4SA;Kuraray Coal P 200;Kuraray Coal KW 10-30;Kuraray Coal 4TF;Kuraray Coal GW;Kuraray Coal PK;Kuraray Coal P 200UH;Kuraray Coal YP 10HT;Kuraray Coal GW-H;Kuraray Coal T-SB 10/32;Kuraray Coal T-CS;Arkema C 100;Nuchar WV-A 1100;KH Single-Walled Carbon Nanotubes;C 2151;CT 001M;Norit R 08 Extra;Baytubes BT 150HP;BP 162;Filtrasorb 816;SunPrif M-TC;WV-E 105;SO 15A;HiPco SWCNT;PGW 20MP;M 95 (nanotubes);Baytubes C 70P;M 95;Nuchar WV-B;Aldrich KB;Aldrich KB-B;MWNT 2040;KMS;UUKM 3D;KMS (carbon);MWCNT 2;M 85;CM 150;Nanocyl 1000;Nanocyl 1101;Nanocyl 2101;Calgon PCB-LS;Calgon OVC Plus;Silcarbon K 835;KB 600;Maxsorb 1470;KB 300;MCMB;Nanocyl NC 2101;NTX 3;NTX 4;NY 1151;NC 2-1E;P 2-15;Shincarbon ST;Nicabeads ICB 15020;CMS 4A-B;KD-PWSP;Carboraffin 1;DF 1015M;Calgon MRX 30/40;Calgon MRX 40/60;Calgon MRX-P;SMT 100;KB 300 (carbon);Ujotit AC 200-1200;IMC 4;SDR 3152MP;SA 1000W60;CEP 21K;CECA 3SW;DCNT 263D1;Darco 830;CA 1240 Plus;FloTube 9000H;SMW 100;SMW 200X;TA 60 (carbon);Blucher 101408;Carbolex A;CEP 21S;Yashi-Coal MC;CC 202;Norit SX;CNS;F-M-ML 1/25;TA 60;SWNT-APJ;Jelcon CH 8;AMC;Taiko Q;MCF (mesoporous carbon foam);Diahope ZGR 4C;Ebadia LG 30;TNIM 4;TNIM 6;CW 130BR;Graphistrength C-M 4-30;NTX 6;Kintal SG 6-20;MHS 40/80;FE 51012A;Taunit M;CG 200;Norit Supra 30;Elicarb SW;CarboTech A 35/1;Hanos CM 95;KH-SWCNT-HP;CMK 8;Baytubes CP 150;BF 3K;BF 10K;3M 6001;3M 6004;3M 6006;CTube 200;Nuckar RGC;Chemviron Carbon DCL 330;Norit D Ultra;Epibon YM 12X40;Ercarbon SH;Y 60;EC-TP 1-030;T-SCOB;AT 40C;Acticarbone 2SW;NTPtube P 2001;GC 200;Shirasagi MSC 3R Type 172;CR 325W-Ultra;CNT 202;CNT 310;SDR 3152M;JSC 15;Kuraray Coal GW 6-12;Bailu WH 2CK;UP 10α;xGnP-H 15;Organosorb 10AA;Airpel 10;Nuchar A 1100;Nuchar BAX 150;Row 0.8 Supra;RB 3 (carbon);Norit 1240;Filtrasorb 100;GW-B 32/60;M 10H;NTPtube S;RF 264C;SLS 100;CMK 3;Kricoal;Kuricoal A-W;CNT 102;K 26 (carbon);CG 350SZ;CG 350A;CG 480SZ;AC 43765;AC 43767;N 9-220;Kuraray Coal PK-DN;LO 1-12N;Duracoal MAC 750L;MWCNT 110;Super Gloss CNT;Darco KB-G;FT 9000;JC 420;Norit D 10;SO-P;OP 5050-1;NW 5050-1;XFM 05;CLDC-CCE-034;S-CNH Powder;CNH Dariajo Powder;CNT 304;MKBG 7047;MKBG 11537;NT 7B;GCN 701;Aquacarb 607C;LY-T-AC;Aquasorb BP 2;Aquasorb CP 1;Calgon GAC 1240;Norit GAC 400;Norit C Gran;WV-B 30;Calgon CAL 1240TR;Carbochem DC 40;Norit PKI 3;Mead Westvaco WV-B 30;SA 2300;PRO 7000;Carbopal MB 4;Carbopal AP;Maxsorb SPD 30;Hitasol GA 1000;Taiko CW 830SZ;Elicarb PR 0920;CM 350;Darco GC 60;Graphistrength C-S 1-25;F 400D;CM 270;Diahope M 016;JCST 95-1.5-12;JCOST 95-2-17;JCMT 1-95;SC 230;SWNT-SO;AC-FE 000082-001;HiPco SP 300;XOC 231U;NTP 2021;SWeNT SMW 200;CG 300;CG 300 (nanotubes);DLC Supra 50;L 3S;Norit C Extra USP;Norit GAC 1240;AK 43765;AK 43767;TNM 8;Norit CGP Super;Aquacyl AQ 0301;Shirasagi WH 2c8;SCR 1;TNNF 6;SG 65i;CNT 3;Shirasagi X 7000H;Shirasagi W 5C;SG 65;FloTube 9000G2;HCNTs 40;CNI 0406;CNI 034;CNT 103;CNT 101;CNT 110;Shirasagi GM 2;SMW 210;GW 20/40;CF 182C;Yashi-Coal S;Buro-Coal CM;Shirasagi WH 2C20/48;Shirasagi DC 32;Shirasagi WH 2cSS;Shirasagi WH 2cLSS;Fine Powder 8FSNO15;TMC 100-10;CNovel;Y-W 50;Petrodarco;Norit DX Ultra;Norit GAC;K-nanos 100P;SEC Fine Powder 8FSNO15;Kujaku TK 2;SY 1;SY 11;WH 2C8/32SS;Taiko TG;GT 300;Taiko CW 240SZ;SY 1 (carbon);Kuricoal WG 180S;Osunt 60;Nuchar HD;GLC-P;Umebachi IE;Norit HB-Plus;Norit CA 3;Darco KB-M;JCMT 99-11-50;Hokuetsu A;Hokuetsu CL-KP;Hokuetsu F 20;Hokuetsu Y 180C;LPR 854;LPR 915;LPR 916;LPR 917;LPR 918;TNM 5;Ctube 120;RX 3;SxlG;FAM 50;JC 142;A-Supra EUR;TNIM 2;Silcarbon K 48;Aquacyl 0302;Aquacyl AQ 0302;SWCNT-ED;LBV 1001;KJ 2;Shirasagi X 2M4/6;CMSH 255/2;Shirasagi CT 350;Baytubes C 155P;Desorex DY 700S;Desorex HGD 4S;Desorex HGC 8x16S;TNIM 3;Knanos 100T;UW 153;HC-ML 002;SKT 7;C nanotube;C nanotubes;TNMH 1;XMF 13;FloTube 9100;P 60;L-MWNTs 1020;VGCF-XTM;K-nanos 210P;D 90 (carbon);CR 1-2000;RN 020;CMK 9;Oxpure 325B9;KHC 900;KHC 1300;KHC 1600;DC 1000M;GTR;Maxsorb III;Y 180C;TNSM 7;TNSM 2;TNSM 3;TNSM 5;RN 220;Sibunit 176;Sibunit 152;Sibunit 1519;CFC 1;TNM 1;TNM 1 (carbon);Ecosorb VRX Super;CT 99;MR 99;SP 95;3K172;Zeonano SG 101;NAC-TJ;Taunit MD;LB 200-50;CNT 1-4-2025;Elicarb PR 992;WY 2;KNT 01;KNT 02;Nano-CPT 100;Ebadia LG 20S;TNIM 8;TNMCN 7;Darco MRXm 11721;Porocarb HG 3 Fine Grain;WA 8-32;GW-H 32/60;F 7000;Nanocyl NC 3150;NC 3150;TNMH 3-150909;Bio carbon;Biocarbon;AW 1104;Tuball Matrix 204;Black carbon;TNHC;NCP 325;eDIPS EC 2.0;Norit RBAA 3;SA 310 (carbon);CNTs 10;FP 3;CW 480AL;CN 480S;Lucan CP 1001M;DLC Hard;Taunit S 12;PAU 10;YH 19;XFM 16;Diamond Hope 008;HQNANO-CNTs 0100;XFS 22;CW 480PGR;Diahope MS 10;SMW 200;TU-P 234;HP&amp;T 100;Elicarb PR 929;Epocyl XC 128-06;Aquacyl AQ 0101;SBE 940 Black;K-nanos 210T;Carboraffin W 50;CNTS 016;CF 0;XFQ 045;Norit 30;Shirasagi WP-Z;Shirasagi WP-L;Chemviron WS 480;CM 280;DMCNTMX 01;Kuraray Coal GW 40/20;CM 130;XFM 28;XFN 14-4;A-MW-CNT 1020;CNT 09;CCF-R 01L;DCNT 240D1;G 60;G 60 (carbon);US 1074;CoMoCAT SG 65i;Flotube 9110;Raw NanoIntegris R 1-831;PD 1.5L15S;HN 60;Jenotube 8A;K-nanos 100T;HCNTs 10;TNNPSR;Norit DLC Supra 30;CP 1002M;ELS-C 10;TNM 7;Engelhard 4485;Pulsorb WP 260;eDIPS 1.5P;Nanocyl NC 3100;EDIPS 1.5P;XFQ 037;Nanocyl SA;Norit SX 2;SWeNT MW 100;Tuball 75;EC 1.5;GK 22;TNM 2;CNovel MH 10;TNIMC 4;Tuball BATT;FT 9101;TC 2010;CW 50-1;GLP-C;GW-H;PGW 150M;MFP-CMB 45L;DiaFellow CT;UCG-CPS;ZL 50;CTube 199E;TNGMH 2;PGW 210MD;PGWB 80-180MD;Tuball Matrix 201;Tuball Matrix 301;Tiannai LB 270;XHZ 200A;Kuraray Coal PK-W 5A;WDSR;CNovel MJ (4)150;Tuball Matrix 603;FloTube 7010;BT 1001;BT 2001;NTP 3121;NTP 3221;KNT-MP;TC 100;TNMH 0;P 3SWCNT;XFS 19;TNSRH;TNSR;TNSSRC;TNSRN;TNSH;DZL 012;CoMoCAT SG 76;eDIPS EC 1.0;Norit PK 35;X 2M4/6;X 2M4/7;PCP-LX 4X10;PCP-LX 4X11;MW 1000C3;Kuricoal A-WG;ENN-CMW 11;IM 897P;TNIM 1;JCAC 1800;JCHCS 99-550;Tuball;K-nanos SWT 030;XFM 13;ICT 030;FT 9001;GT 210;Kuraray Coal YP 50F;Jenotube 9;Jenotube 8;Shirasagi WH 2C8/32;Lucan BT 1003M;TNGMC 2;XFWDM;TF-CNTS 008-1;Shirasagi X 2M;Molsievon X 2M;CO 850;CNT 105;YEC 8A;TCW 261;CP 0086;Norit CASPF;Tuball Matrix 601;Jenotube 8S;Shirasagi WP-H;FT 7000;XFM 22;NTAD 10;M 58;Grafen M 12;Fluka 05120;N 7006L;K 1004M;K 1003M;MWNT MTC;XFM 33;755125-1G;FT 7001;C 20;TNSMH 3;GC 21;CEP 21KS;XFM 42;Graphistrength CM 12-30;Bellpearl CR 2-800;Zeonano 03DS-NP-RD;EC 1.5P-NMP;EC 2.0P-NMP;K-nanos 200P;Norit 1240W;Aquacarb 207C;XFN 03-1;ZX 778;TNIM 190F;Lucan BT 1001M;Tuball 801;FloTude 9000;Environcarb AP 4-50;Environcarb STIX 4mm;PC 009;SP 2H2;KNTI 13;Zeonano SG 1010;IBAKLB 101;IBAKP 5802;HZYM 0023;CNT 107;IsoSol S 100;TMC 220-10;XFM 19;Norit 97876;L 1020;1204YL;Flotube 7170;P 929;XFM 70;Norit GSX-CAT;CF 163CP;TB 002L;TNMC 8;CW 350SZ;CNT 1;CNT-X;WM-CNT-CP 0017SG;CNT 201;F-CNT;XFM 06;Udag S;XFM 24;C 299186;Lucan CP 1002M;TINM 6;G-TINM 8;Tuball Matrix 821 beta;SWeNT SMW 100;XP-EP 60001;CNT 813;US 4315;FT 9110;NC 3150TM;SN 300;Roy 0.8;TNIM 298F;S-MWCNT 1020;TNMH 3;WDY 401;SY 302;SY 725;TF-B 520;KNT-M 12;NTP 8012;MC 5;NG 01MW0102;CNT-uni;Takesum Powder 150;YD 32-1;Tuball 90;C 3115;Ctube 199;FT 7010 (carbon);FT 7010;Rhenofit CNT 3;KRU 4309;NC 7100;XFM 09;GTR 01;LB 136-43;XFS 02;Nanocyl NC 700;CNTF 1200;CNT 204;208SR;Plasticyl PP 2001;XF 253;TNMH 5;CN 105 (nanotube);CN 105;GTR 300-02;XJ-CNTS 301A;BT 1001M;CNT 104;M 12;M 12 (nanotubes);BAC SP;A-BAC SP;A-BAC LP;G-BAC G-70R;FT 6000;EC 2.0;Jenotube 6A;TNWDM-M 2;CNT-N;CNT-F;HX-N;Tuball Matrix 605;CN 2020;FT 6100;CNT 106;Athlos 200;XH-C 2-10;TNEM 3;HCNT 100;HCNT 220;HL-C 20;CP 2102;Tuball 01RW03;TCI-C 2158;XFQ 039;XFS 26;XFM 02;Tuball Matrix 302;R 07G;XNM-HP 11050;Extube SAZD 030MEK;FT 9111;CW 20;L-MWNT 40-60;Shirasagi S 5;W 5C20/42;TNGM 7;Tuball Matrix 208;Taiko ST;HPC Maxx AW 830;Pulsorb WP 640;OLC-AW 12x40;Nuchar WV-B 30;BGX;YP;Tuball Matrix Beta 207;US 3302;AM-C 1-064-1;A 60023;A 60024;XFM 21;GT 400;HPC Maxx AW830;OLC AW 12x40;Pulsorb WP640;Nuchar WV-B 20;ACM 101H;TNGM 5;MeKs-O;FloTube 6100;Hyperion 07C;Hyperion 02C;NoritROX HF;Norit Darco LS;Ceca;Pica;Jacobi;DX 2;XBC 2340;EC 1.5P;CNovel MJ (4)010;JTR 30K;ML 1293;KNS 2021080419;JT 1560-1;C 835658;XFM 01;A 77912;Chemviron CPG-LF;AM-C 6-067-1;TEH 8131;XFQ 041;NTP SWNT 2;MTW-CE-C 003;XFM 03;TF 25001;CNT 203;GT 21;Athlos 100;LB 217-54;OBC 1;DAC;NuclearCarb 207C;CarboAct;XFM 07;Maxsorb MSF-A 16M;XFWPMC-M 33;XFM 25;TNIMC 1;CP 1001M;B 2220;XFS 28;CP 1002M-H5;CM 90;AC 0007;AC 0004;CNTs 007-3C;TNSM 1;M 20 (activated carbon);Tuball Matrix 621beta;KFJZG 6EZ;Conductex 7090;E 350G;PE 671;C 139882;Nanocyl NC-E 128-02;Tuball PD-C 003;Athlos 2000;Tuball 301;MSC 3K172;Norit ROX 0.8;Shirasagi ANOX 2;CSV 501;Tuball Matrix 610bata;GAS 610;DX 2P;Tuball PD 0559;Tuball Matrix 602;Nacodc 8;GT 301 (nanotube);GT 301;CNT 600;400T;CP 3003;CNTM 4;Miralon YM 2;HN-AC 500S;MG 100 (carbon);MG 100;UNT 90T;Jenotube 10B;JXC 1;UFN-A 1-01T;NTP 3021;SG 101;XFM 63;TN 1M1;Nicabeads ICB 4420;YA-E 3030;FPG 1;BKMK 2060-01;Athlos SR 1200;TB 1 (nanotube);TB 1;XF 248;SCC 8-8-1;RN 120;Meijo DX 2;Kuraray Coal GW 32/60;T-EB 32/60;XFM 18;CASPF;NF 100 (carbon);Tuball Matrix 621;JL-AS-T;KV-CB 810;TNMC 2;BT 100ZM;DRF 4110;NTP 3003;CP 6062EX;JL-C-C 01;JL-C-C 02;JL-C-C 03;A-Tube-AM 97;DZ 220;TNWDN-M 8;NSU 5;XFP 13;Norit RX 3.0;Xerogel CX 5;CR 5102;PA-PADHA 1001-120405;XFM 15;Matrix 623;Matrix 808;SG 1O1;TN 300;Tuball Matrix 808;GW 45-100;OStube;Tuball Matrix 815;BT 1003M;Tuball Matrix 209;ICB 0120;Nicabeads ICB 0120;Tuball Matrix 604;SCC 851;SCC 8-10-1;CNovel P (3)010;Tuball Matrix Beta 809;Tuball Matrix 880;Bellpearl C 2000SR;0556CA;GT 220 (carbon);GT 220;PS 6050;Denathron CD 100;TNW 8;Kuroray YP 80;XFQ 044;K-Nanos 300T;Nanocyl 7000A;FT 6807;FT 6812;XFM 34;Tuball Matrix 610;SQ 104G;XNM-HP 12050;BT 1003;XFS 31;XFD 01;Tuball 01RW02;L 1502;Taiko AC-W 50;HY 010;HY 014;HY 008 (carbon);HY 018;HY 007;HY 008;TNCNT;C 1206 (carbon);C 1206;XFM 32;VC 102;WhiskerCNT-H;CNT 50;CNT 75",
    "duplicated_cas_no": "12789-22-9;26837-67-2;37196-29-5;39422-04-3;39434-34-9;67167-41-3;76416-61-0;76543-73-2;82600-58-6;83138-28-7;90452-98-5;102726-89-6;114680-00-1;116788-82-0;130960-03-1;137322-21-5;177073-16-4;208519-32-8;208728-20-5;263716-83-2;798556-12-4;798556-14-6;1009104-15-7;1173019-22-1;1194406-52-4;1254045-68-5;1431285-93-6;1431286-27-9;1610421-75-4;1814882-41-1;1835207-41-4;1835207-56-1;2010136-93-1;2088158-84-1;2137425-58-0;2160527-89-7;2193053-21-1;2227461-14-3;2243297-42-7;2260534-49-2;2260535-02-0;2260535-03-1;2322313-68-6;2337312-45-3;2345716-27-8;2345716-30-3;2345716-32-5;2345716-34-7;2345716-37-0;2376584-16-4;2377502-05-9;2408423-47-0;2416155-69-4;2426615-65-6;2426618-48-4;2431981-94-9;2484840-85-7;2513339-59-6;2513341-80-3;2519910-10-0;2519913-68-7;2756575-99-0;2763374-04-3;2763375-27-3;2786652-41-1;2867540-78-9;2920930-23-8;2921643-19-6;2939793-03-8;2952669-99-5;2983032-35-3;2991338-31-7;3026669-71-3",
    "SMILES": "[C]",
    "meta_data": {
        "InChI": "InChI=1S/C",
        "InChIKey": null,
        "Canonical SMILES": "[C]",
        "Molecular Formula": "C",
        "Molecular Mass": "",
        "Boiling Point": "4000 °C",
        "Melting Point": "3550 °C",
        "Density": "1.8-3.51 g/cm³"
    }
}