{
    "cas_no": "126-75-0",
    "key_name": "Demeton-S",
    "cn_name": null,
    "alternate_name": "Phosphorothioic acid, <em>O</em>,<em>O</em>-diethyl <em>S</em>-[2-(ethylthio)ethyl] ester;Demeton-S;Isosystox;Thioldemeton;<em>O</em>,<em>O</em>-Diethyl <em>S</em>-[2-(ethylthio)ethyl] phosphorothioate;Ethylthionodemeton;Systox-thiol;Demetonthiol;Demeton thiolo;<em>O</em>,<em>O</em>-Diethyl <em>S</em>-[2-(ethylthio)ethyl] thiophosphate;1-Diethoxyphosphorylsulfanyl-2-ethylsulfanylethane;Mercaptophos thiol",
    "duplicated_cas_no": "",
    "SMILES": "P(SCCSCC)(OCC)(OCC)=O",
    "meta_data": {
        "InChI": "InChI=1S/C8H19O3PS2/c1-4-10-12(9,11-5-2)14-8-7-13-6-3/h4-8H2,1-3H3",
        "InChIKey": null,
        "Canonical SMILES": "O=P(OCC)(OCC)SCCSCC",
        "Molecular Formula": "C<sub>8</sub>H<sub>19</sub>O<sub>3</sub>PS<sub>2</sub>",
        "Molecular Mass": "258.34",
        "Boiling Point": "128 °C @ Press: 1 Torr",
        "Melting Point": "95-97 °C",
        "Density": "1.132 g/cm³ @ Temp: 21 °C"
    }
}