{
    "cas_no": "6419-19-8",
    "key_name": "Aminotri(methylenephosphonic acid)",
    "cn_name": "氨基三亚甲基膦酸;氨基三甲叉膦酸;ATMP;",
    "alternate_name": "Phosphonic acid, <em>P</em>,<em>P</em>′,<em>P</em>′′-[nitrilotris(methylene)]tris-;Phosphonic acid, [nitrilotris(methylene)]tri-;Phosphonic acid, [nitrilotris(methylene)]tris-;<em>P</em>,<em>P</em>′,<em>P</em>′′-[Nitrilotris(methylene)]tris[phosphonic acid];Nitrilotris(methylenephosphonic acid);Tris(methylenephosphonic acid)amine;Aminotri(methylphosphonic acid);Nitrilotri(methylenephosphonic acid);Aminotris(methylenephosphonic acid);Aminotris(methylphosphonic acid);[Nitrilotris(methylene)]triphosphonic acid;(Nitrilotrimethylene)triphosphonic acid;Aminotri(methylenephosphonic acid);Nitrilotrimethylphosphonic acid;Tris(phosphonomethyl)amine;Aminotris(methanephosphonic acid);Dowell L 37;α,α′,α′′-Aminotris(methylphosphonic acid);Nitrilo-<em>N</em>,<em>N</em>,<em>N</em>-tris(methylenephosphonic acid);[Nitrilotris(methylene)]tris(phosphonic acid);Nitrilotris(methylphosphonic acid);Dequest 2000;Nitrilo-<em>N</em>,<em>N</em>,<em>N</em>-trimethylenephosphonic acid;Nitrilotrimethanephosphonic acid;Ferrofos 509;Dequest 2001;1,1,1-Nitrilotris(methylphosphonic acid);Nitrilotris(methanephosphonic acid);NTF;Sequion 20H45;NTMP;ATMP;Sequion OA;NTP-A;Unihib 305;NTP;Defloc NH 05;IC 2000;Nitrilotrimethylenetris(phosphonic acid);NTPH;Briquest 301-50A;ATMP (phosphonic acid);Turpinal D 2;Briquest 301;WSI 3300;WSI 3310;Mayoquest 1320;Chelest PH 320;Cublen AP 1;Dequest 2000EG;Cublen AP 5;Aquacid 1084EX;Aquacid 108;Aminotrismethylene phosphonate;[Bis(phosphonomethyl)amino]methylphosphonic acid;JPCN 300",
    "duplicated_cas_no": "39470-48-9;57515-65-8;80209-58-1;85188-81-4;90735-66-3;99719-52-5;103333-74-0;275797-11-0;2376175-36-7",
    "SMILES": "C(N(CP(=O)(O)O)CP(=O)(O)O)P(=O)(O)O",
    "meta_data": {
        "InChI": "InChI=1S/C3H12NO9P3/c5-14(6,7)1-4(2-15(8,9)10)3-16(11,12)13/h1-3H2,(H2,5,6,7)(H2,8,9,10)(H2,11,12,13)",
        "InChIKey": null,
        "Canonical SMILES": "O=P(O)(O)CN(CP(=O)(O)O)CP(=O)(O)O",
        "Molecular Formula": "C<sub>3</sub>H<sub>12</sub>NO<sub>9</sub>P<sub>3</sub>",
        "Molecular Mass": "299.05",
        "Melting Point": "208-210 °C"
    }
}