{
    "cas_no": "610-38-8",
    "key_name": "4-Bromo-1,2-dinitrobenzene",
    "cn_name": "1,2-二硝基-4-溴化苯;",
    "alternate_name": "Benzene, 4-bromo-1,2-dinitro-;4-Bromo-1,2-dinitrobenzene;3,4-Dinitrobromobenzene;NSC 10252",
    "duplicated_cas_no": "",
    "SMILES": "N(=O)(=O)C1=C(N(=O)=O)C=C(Br)C=C1",
    "meta_data": {
        "InChI": "InChI=1S/C6H3BrN2O4/c7-4-1-2-5(8(10)11)6(3-4)9(12)13/h1-3H",
        "InChIKey": null,
        "Canonical SMILES": "O=N(=O)C1=CC=C(Br)C=C1N(=O)=O",
        "Molecular Formula": "C<sub>6</sub>H<sub>3</sub>BrN<sub>2</sub>O<sub>4</sub>",
        "Molecular Mass": "247.00",
        "Melting Point": "59-59.5 °C"
    }
}