{
    "cas_no": "6559-91-7",
    "key_name": "(-)-4′-Demethylepipodophyllotoxin",
    "cn_name": "4\"-去甲基表鬼臼毒素;",
    "alternate_name": "Furo[3′,4′:6,7]naphtho[2,3-<em>d</em>]-1,3-dioxol-6(5a<em>H</em>)-one, 5,8,8a,9-tetrahydro-9-hydroxy-5-(4-hydroxy-3,5-dimethoxyphenyl)-, (5<em>R</em>,5a<em>R</em>,8a<em>R</em>,9<em>S</em>)-;Epipodophyllotoxin, 4′-demethyl-;Furo[3′,4′:6,7]naphtho[2,3-<em>d</em>]-1,3-dioxol-6(5a<em>H</em>)-one, 5,8,8a,9-tetrahydro-9-hydroxy-5-(4-hydroxy-3,5-dimethoxyphenyl)-, [5<em>R</em>-(5α,5aβ,8aα,9β)]-;(5<em>R</em>,5a<em>R</em>,8a<em>R</em>,9<em>S</em>)-5,8,8a,9-Tetrahydro-9-hydroxy-5-(4-hydroxy-3,5-dimethoxyphenyl)furo[3′,4′:6,7]naphtho[2,3-<em>d</em>]-1,3-dioxol-6(5a<em>H</em>)-one;(-)-4′-Demethylepipodophyllotoxin;4′-Demethylepipodophyllotoxin;4′-O-demethylepipodophyllotoxin",
    "duplicated_cas_no": "104183-79-1;142561-77-1",
    "SMILES": "O=C1[C@@]2([C@@H](C=3C([C@@H](O)[C@]2(CO1)[H])=CC4=C(C3)OCO4)C5=CC(OC)=C(O)C(OC)=C5)[H]",
    "meta_data": {
        "InChI": "InChI=1S/C21H20O8/c1-25-15-3-9(4-16(26-2)20(15)23)17-10-5-13-14(29-8-28-13)6-11(10)19(22)12-7-27-21(24)18(12)17/h3-6,12,17-19,22-23H,7-8H2,1-2H3/t12-,17+,18-,19+/m0/s1",
        "InChIKey": null,
        "Canonical SMILES": "O=C1OCC2C(O)C3=CC=4OCOC4C=C3C(C5=CC(OC)=C(O)C(OC)=C5)C12",
        "Molecular Formula": "C<sub>21</sub>H<sub>20</sub>O<sub>8</sub>",
        "Molecular Mass": "400.38",
        "Melting Point": "228-230 °C"
    }
}