{
    "cas_no": "51543-39-6",
    "key_name": "(+)-Flurbiprofen",
    "cn_name": "艾氟洛芬;",
    "alternate_name": "[1,1′-Biphenyl]-4-acetic acid, 2-fluoro-α-methyl-, (α<em>S</em>)-;[1,1′-Biphenyl]-4-acetic acid, 2-fluoro-α-methyl-, (<em>S</em>)-;(α<em>S</em>)-2-Fluoro-α-methyl[1,1′-biphenyl]-4-acetic acid;<em>d</em>-Flurbiprofen;(+)-Flurbiprofen;<em>S</em>-(+)-Flurbiprofen;(<em>S</em>)-Flurbiprofen;(+)-(<em>S</em>)-Flurbiprofen;Esflurbiprofen;(2<em>S</em>)-2-(2-Fluoro-1,1′-biphenyl-4-yl)propanoic acid;(2S)-2-(2-Fluoro-4-biphenyl)propanoic acid;Dexflurbiprofen;(<em>S</em>)-2-(2-Fluorobiphenyl-4-yl)propanoic acid;(<em>S</em>)-2-(2-Fluoro-[1,1′-biphenyl]-4-yl)propanoic acid;(2S)-2-(2-Fluoro-1,1′-biphenyl-4-yl)propanoic acid;(<em>S</em>)-2-(2-Fluoro-[1,1′-biphenyl]-4-yl)propanoicacid",
    "duplicated_cas_no": "",
    "SMILES": "FC1=C(C=CC([C@@H](C(O)=O)C)=C1)C2=CC=CC=C2",
    "meta_data": {
        "InChI": "InChI=1S/C15H13FO2/c1-10(15(17)18)12-7-8-13(14(16)9-12)11-5-3-2-4-6-11/h2-10H,1H3,(H,17,18)/t10-/m0/s1",
        "InChIKey": null,
        "Canonical SMILES": "O=C(O)C(C=1C=CC(=C(F)C1)C=2C=CC=CC2)C",
        "Molecular Formula": "C<sub>15</sub>H<sub>13</sub>FO<sub>2</sub>",
        "Molecular Mass": "244.26",
        "Melting Point": "115-117 °C"
    }
}