{
    "cas_no": "42287-87-6",
    "key_name": "3,5-Dimethylbenzenepropanoic acid",
    "cn_name": null,
    "alternate_name": "Benzenepropanoic acid, 3,5-dimethyl-;3,5-Dimethylbenzenepropanoic acid;3-(3,5-Xylyl)propionic acid;3-(3,5-Dimethylphenyl)propionic acid",
    "duplicated_cas_no": "",
    "SMILES": "C(CC(O)=O)C1=CC(C)=CC(C)=C1",
    "meta_data": {
        "InChI": "InChI=1S/C11H14O2/c1-8-5-9(2)7-10(6-8)3-4-11(12)13/h5-7H,3-4H2,1-2H3,(H,12,13)",
        "InChIKey": null,
        "Canonical SMILES": "O=C(O)CCC=1C=C(C=C(C1)C)C",
        "Molecular Formula": "C<sub>11</sub>H<sub>14</sub>O<sub>2</sub>",
        "Molecular Mass": "178.23",
        "Boiling Point": "168-178 °C @ Press: 13 Torr",
        "Melting Point": "45-46.5 °C"
    }
}