{
    "cas_no": "14401-10-6",
    "key_name": "<span class=\"text-smallcaps\">L</span>-Lysine, <em>N</em><sup>6</sup>-(2,4-dinitrophenyl)-, hydrochloride (1:1)",
    "cn_name": "N-(2,4-二硝基苯)-L-赖氨酸盐酸盐;",
    "alternate_name": "<span class=\"text-smallcaps\">L</span>-Lysine, <em>N</em><sup>6</sup>-(2,4-dinitrophenyl)-, hydrochloride (1:1);Lysine, <em>N</em><sup>6</sup>-(2,4-dinitrophenyl)-, monohydrochloride, <span class=\"text-smallcaps\">L</span>-;<span class=\"text-smallcaps\">L</span>-Lysine, <em>N</em><sup>6</sup>-(2,4-dinitrophenyl)-, monohydrochloride;<em>N</em><sup>6</sup>-(2,4-Dinitrophenyl)-<span class=\"text-smallcaps\">L</span>-lysine hydrochloride;NSC 83262",
    "duplicated_cas_no": "",
    "SMILES": "N(CCCC[C@@H](C(O)=O)N)C1=C(N(=O)=O)C=C(N(=O)=O)C=C1.Cl",
    "meta_data": {
        "InChI": "InChI=1S/C12H16N4O6.ClH/c13-9(12(17)18)3-1-2-6-14-10-5-4-8(15(19)20)7-11(10)16(21)22;/h4-5,7,9,14H,1-3,6,13H2,(H,17,18);1H/t9-;/m0./s1",
        "InChIKey": null,
        "Canonical SMILES": "Cl.O=C(O)C(N)CCCCNC1=CC=C(C=C1N(=O)=O)N(=O)=O",
        "Molecular Formula": "C<sub>12</sub>H<sub>16</sub>N<sub>4</sub>O<sub>6</sub>.ClH",
        "Molecular Mass": "",
        "Melting Point": "103-105 °C"
    }
}