{
    "cas_no": "15075-50-0",
    "key_name": "Diethylene glycol monoallyl ether",
    "cn_name": "二甘醇单烯丙基醚;",
    "alternate_name": "Ethanol, 2-[2-(2-propen-1-yloxy)ethoxy]-;Ethanol, 2-[2-(allyloxy)ethoxy]-;Ethanol, 2-[2-(2-propenyloxy)ethoxy]-;2-[2-(2-Propen-1-yloxy)ethoxy]ethanol;Diethylene glycol monoallyl ether;2-[2-(Allyloxy)ethoxy]ethanol;9-Hydroxy-4,7-dioxa-1-nonene;NSC 83148;Allyl carbitol;Allyloxy(diethylene oxide)",
    "duplicated_cas_no": "",
    "SMILES": "C(COCCO)OCC=C",
    "meta_data": {
        "InChI": "InChI=1S/C7H14O3/c1-2-4-9-6-7-10-5-3-8/h2,8H,1,3-7H2",
        "InChIKey": null,
        "Canonical SMILES": "OCCOCCOCC=C",
        "Molecular Formula": "C<sub>7</sub>H<sub>14</sub>O<sub>3</sub>",
        "Molecular Mass": "146.18",
        "Boiling Point": "98-101 °C @ Press: 2 Torr",
        "Density": "1.012 g/cm³ @ Temp: 20 °C"
    }
}