{
    "cas_no": "16133-49-6",
    "key_name": "5-Methoxy-2-nitrobenzenamine",
    "cn_name": "5-甲氧基-2-硝基苯胺;",
    "alternate_name": "Benzenamine, 5-methoxy-2-nitro-;<em>m</em>-Anisidine, 6-nitro-;5-Methoxy-2-nitrobenzenamine;5-Methoxy-2-nitroaniline;2-Nitro-5-methoxyaniline;(5-Methoxy-2-nitrophenyl)amine;3-Methoxy-6-nitroaniline",
    "duplicated_cas_no": "",
    "SMILES": "N(=O)(=O)C1=C(N)C=C(OC)C=C1",
    "meta_data": {
        "InChI": "InChI=1S/C7H8N2O3/c1-12-5-2-3-7(9(10)11)6(8)4-5/h2-4H,8H2,1H3",
        "InChIKey": null,
        "Canonical SMILES": "O=N(=O)C1=CC=C(OC)C=C1N",
        "Molecular Formula": "C<sub>7</sub>H<sub>8</sub>N<sub>2</sub>O<sub>3</sub>",
        "Molecular Mass": "168.15",
        "Melting Point": "131 °C"
    }
}