{
    "cas_no": "335-67-1",
    "key_name": "Perfluorooctanoic acid",
    "cn_name": "全氟辛酸;十五氟辛酸;",
    "alternate_name": "Octanoic acid, 2,2,3,3,4,4,5,5,6,6,7,7,8,8,8-pentadecafluoro-;Octanoic acid, pentadecafluoro-;2,2,3,3,4,4,5,5,6,6,7,7,8,8,8-Pentadecafluorooctanoic acid;Perfluorocaprylic acid;Perfluorooctanoic acid;Perfluoroheptanecarboxylic acid;Pentadecafluorooctanoic acid;Pentadecafluoro-<em>n</em>-octanoic acid;<em>n</em>-Perfluorooctanoic acid;Eftop EF 201;EF 201;NSC 95114;Perfluoro-1-heptanecarboxylic acid;A 5717;PFOA",
    "duplicated_cas_no": "65618-66-8;71244-15-0",
    "SMILES": "C(C(C(C(C(O)=O)(F)F)(F)F)(F)F)(C(C(C(F)(F)F)(F)F)(F)F)(F)F",
    "meta_data": {
        "InChI": "InChI=1S/C8HF15O2/c9-2(10,1(24)25)3(11,12)4(13,14)5(15,16)6(17,18)7(19,20)8(21,22)23/h(H,24,25)",
        "InChIKey": null,
        "Canonical SMILES": "O=C(O)C(F)(F)C(F)(F)C(F)(F)C(F)(F)C(F)(F)C(F)(F)C(F)(F)F",
        "Molecular Formula": "C<sub>8</sub>HF<sub>15</sub>O<sub>2</sub>",
        "Molecular Mass": "414.07",
        "Boiling Point": "189 °C",
        "Melting Point": "52-54 °C",
        "Density": "1.792 g/cm³ @ Temp: 20 °C"
    }
}