{
    "cas_no": "6147-66-6",
    "key_name": "Diallylammonium chloride",
    "cn_name": "N-2-丙烯基-2-丙烯-1-胺盐酸盐;",
    "alternate_name": "2-Propen-1-amine, <em>N</em>-2-propen-1-yl-, hydrochloride (1:1);Diallylamine, hydrochloride;2-Propen-1-amine, <em>N</em>-2-propenyl-, hydrochloride;Diallylammonium chloride;Pyrrolidine, 3,4-bis(methylene)-, hydrochloride (1:1)",
    "duplicated_cas_no": "143673-56-7;1263192-70-6;1272603-69-6;2515735-60-9",
    "SMILES": "N(CC=C)CC=C.Cl",
    "meta_data": {
        "InChI": "InChI=1S/C6H11N.ClH/c1-3-5-7-6-4-2;/h3-4,7H,1-2,5-6H2;1H",
        "InChIKey": null,
        "Canonical SMILES": "Cl.C=CCNCC=C",
        "Molecular Formula": "C<sub>6</sub>H<sub>11</sub>N.ClH",
        "Molecular Mass": "",
        "Melting Point": "164-165 °C"
    }
}