{
    "cas_no": "2283-11-6",
    "key_name": "Hexaethylphosphorous triamide",
    "cn_name": "己乙基亚磷三酰胺;六乙基亚磷酰三胺;六乙基亚磷酸胺;六烷基磷三胺;",
    "alternate_name": "Phosphorous triamide, <em>N</em>,<em>N</em>,<em>N</em>′,<em>N</em>′,<em>N</em>′′,<em>N</em>′′-hexaethyl-;Phosphorous triamide, hexaethyl-;<em>N</em>,<em>N</em>,<em>N</em>′,<em>N</em>′,<em>N</em>′′,<em>N</em>′′-Hexaethylphosphorous triamide;Tris(diethylamino)phosphine;Hexaethylphosphorous triamide;Hexaethyltriaminophosphine;Phosphorous acid tris(diethylamide);Tris(<em>N</em>,<em>N</em>-diethylamino)phosphine;Hexaethyltriamidophosphite;Tris(diethylamido)phosphine",
    "duplicated_cas_no": "68574-03-8",
    "SMILES": "P(N(CC)CC)(N(CC)CC)N(CC)CC",
    "meta_data": {
        "InChI": "InChI=1S/C12H30N3P/c1-7-13(8-2)16(14(9-3)10-4)15(11-5)12-6/h7-12H2,1-6H3",
        "InChIKey": null,
        "Canonical SMILES": "N(P(N(CC)CC)N(CC)CC)(CC)CC",
        "Molecular Formula": "C<sub>12</sub>H<sub>30</sub>N<sub>3</sub>P",
        "Molecular Mass": "247.36",
        "Boiling Point": "120-122 °C @ Press: 10 Torr",
        "Melting Point": "230-232 °C",
        "Density": "0.906 g/cm³ @ Temp: 20 °C"
    }
}