{
    "cas_no": "6136-68-1",
    "key_name": "3-Acetylbenzonitrile",
    "cn_name": null,
    "alternate_name": "Benzonitrile, 3-acetyl-;Benzonitrile, <em>m</em>-acetyl-;3-Acetylbenzonitrile;3′-Cyanoacetophenone;<em>m</em>-Cyanoacetophenone;<em>m</em>-Acetylbenzonitrile;NSC 210360;1-(3-Cyanophenyl)ethanone",
    "duplicated_cas_no": "",
    "SMILES": "C(C)(=O)C1=CC(C#N)=CC=C1",
    "meta_data": {
        "InChI": "InChI=1S/C9H7NO/c1-7(11)9-4-2-3-8(5-9)6-10/h2-5H,1H3",
        "InChIKey": null,
        "Canonical SMILES": "N#CC1=CC=CC(=C1)C(=O)C",
        "Molecular Formula": "C<sub>9</sub>H<sub>7</sub>NO",
        "Molecular Mass": "145.16",
        "Melting Point": "98-100 °C"
    }
}