{
    "cas_no": "4411-26-1",
    "key_name": "Adamantyl isothiocyanate",
    "cn_name": "异硫氰酸1-金刚烷酯;1-金刚烷酯异硫氰酸;",
    "alternate_name": "Tricyclo[3.3.1.1<sup>3,7</sup>]decane, 1-isothiocyanato-;Isothiocyanic acid, 1-adamantyl ester;1-Isothiocyanatotricyclo[3.3.1.1<sup>3,7</sup>]decane;1-Adamantyl isothiocyanate;1-Isothiocyanatoadamantane;Adamantyl isothiocyanate;NSC 529585",
    "duplicated_cas_no": "",
    "SMILES": "N(=C=S)C12CC3CC(C1)CC(C2)C3",
    "meta_data": {
        "InChI": "InChI=1S/C11H15NS/c13-7-12-11-4-8-1-9(5-11)3-10(2-8)6-11/h8-10H,1-6H2",
        "InChIKey": null,
        "Canonical SMILES": "S=C=NC12CC3CC(CC(C3)C1)C2",
        "Molecular Formula": "C<sub>11</sub>H<sub>15</sub>NS",
        "Molecular Mass": "193.31",
        "Melting Point": "166-169 °C"
    }
}