{
    "cas_no": "101-37-1",
    "key_name": "Triallyl cyanurate",
    "cn_name": "三聚氰酸三烯丙酯;1,3,5-三聚氰酸三烯丙基酯;",
    "alternate_name": "1,3,5-Triazine, 2,4,6-tris(2-propen-1-yloxy)-;<em>s</em>-Triazine, 2,4,6-tris(allyloxy)-;1,3,5-Triazine, 2,4,6-tris(2-propenyloxy)-;2,4,6-Tris(2-propen-1-yloxy)-1,3,5-triazine;Cyanuric acid triallyl ester;Triallyl cyanurate;2,4,6-Triallyloxy-<em>s</em>-triazine;Cyanuric acid, tri-2-propenyl ester;2,4,6-Tris(allyloxy)-<em>s</em>-triazine;2,4,6-Tris(allyloxy)-1,3,5-triazine;2,4,6-Tris(allyloxy)triazine;Activator OC;TAC;Perkalink 300;Rhenofit TAC;Perkalink 300-50D;2,4,6-Tris(2-propenyloxy)-1,3,5-triazine;2,4,6-Triallyloxy-1,3,5-triazine;NSC 4804;NSC 49121;SR 507;Sartomer SR 507;PLC 50BC;Rhenofit TAC/S;Rhenogran TAC/S;TAITs;TAC-DL 70;Luvomaxx TAC-DL 70;Vul-Cup TAC 70;TAIC 50;Crosslinker TAC;Luvomaxx TAC-DL 50;GR 70;TRM 491;TAC 70;TAC 50GR;JN 852;SR 507A;Kettlitz TAC GR 70;TAC/GR 50;Actmix TAC 40;TAC 40",
    "duplicated_cas_no": "2368803-30-7;2757062-38-5",
    "SMILES": "O(CC=C)C=1N=C(OCC=C)N=C(OCC=C)N1",
    "meta_data": {
        "InChI": "InChI=1S/C12H15N3O3/c1-4-7-16-10-13-11(17-8-5-2)15-12(14-10)18-9-6-3/h4-6H,1-3,7-9H2",
        "InChIKey": null,
        "Canonical SMILES": "N=1C(=NC(=NC1OCC=C)OCC=C)OCC=C",
        "Molecular Formula": "C<sub>12</sub>H<sub>15</sub>N<sub>3</sub>O<sub>3</sub>",
        "Molecular Mass": "249.27",
        "Boiling Point": "137-140 °C @ Press: 0.4-0.5 Torr",
        "Melting Point": "29-30 °C",
        "Density": "1.12 g/cm³ @ Temp: 23 °C"
    }
}