{
    "cas_no": "333-49-3",
    "key_name": "2-Thiocytosine",
    "cn_name": "4-氨基-2-巯基嘧啶;4-氨基-2-巯基嘧啶;2-巯基-4-氨基嘧啶;",
    "alternate_name": "2(1<em>H</em>)-Pyrimidinethione, 6-amino-;2(1<em>H</em>)-Pyrimidinethione, 4-amino-;6-Amino-2(1<em>H</em>)-pyrimidinethione;2-Thiocytosine;Thiocytosine;2(1<em>H</em>)-Pyrimidinone, 4-aminothio-;4-Amino-2-mercaptopyrimidine;4-Amino-2-pyrimidinethiol;NSC 211571;NSC 45755",
    "duplicated_cas_no": "139424-16-1;5807-22-7",
    "SMILES": "NC=1NC(=S)N=CC1",
    "meta_data": {
        "InChI": "InChI=1S/C4H5N3S/c5-3-1-2-6-4(8)7-3/h1-2H,(H3,5,6,7,8)",
        "InChIKey": null,
        "Canonical SMILES": "S=C1N=CC=C(N)N1",
        "Molecular Formula": "C<sub>4</sub>H<sub>5</sub>N<sub>3</sub>S",
        "Molecular Mass": "127.17",
        "Melting Point": "285-290 °C"
    }
}