{
    "cas_no": "17096-07-0",
    "key_name": "Tris(trimethylsiloxy)silylpropyl methacrylate",
    "cn_name": "3-甲基丙烯酸丙基三(三甲氧基硅);",
    "alternate_name": "2-Propenoic acid, 2-methyl-, 3-[3,3,3-trimethyl-1,1-bis[(trimethylsilyl)oxy]-1-disiloxanyl]propyl ester;Methacrylic acid, 3-[3,3,3-trimethyl-1,1-bis(trimethylsiloxy)disiloxanyl]propyl ester;2-Propenoic acid, 2-methyl-, 3-[3,3,3-trimethyl-1,1-bis[(trimethylsilyl)oxy]disiloxanyl]propyl ester;Tris(trimethylsiloxy)[3-(methacryloyloxy)propyl]silane;X 22-5002;TRIS;X 22-2404;3-[3,3,3-Trimethyl-1,1-bis(trimethylsiloxy)disiloxanyl]propyl methacrylate;3-[Tris(trimethylsilyloxy)silyl]propyl 2-methyl-2-propenoate;(3-Methacryloyloxypropyl)tris(trimethylsiloxy)silane;KF 2801;Tris(trimethylsiloxy)-3-methacryloxypropylsilane;(Methacryloyloxypropyl)tris(trimethylsiloxy)silane;3-[Tris(trimethylsilyloxy)silyl]propyl methacrylate;3-[Tris(trimethylsiloxy)silyl]propyl methacrylate;SK 5001;SIM 6487.6;Silaplane TM 0701;Silaplane TM 0701T;Methacryloxypropyltris(trimethylsiloxy)silane;S 503TS;3-(Methacryloyloxy)propyltris(trimethylsilyloxy)silane;Silaplane 0701T;Tris(trimethylsiloxy)silylpropyl methacrylate;TM 0701T;γ-Methacryloxypropyltris(trimethylsilyloxy)silane;3-(1,1,1,5,5,5-Hexamethyl-3-((trimethylsilyl)oxy)trisiloxan-3-yl)propyl methacrylate;Silaplane FM 0701T;KH 573",
    "duplicated_cas_no": "123157-13-1;146349-54-4;161188-64-3;188979-81-9;656252-99-2;1187579-28-7",
    "SMILES": "[Si](CCCOC(C(C)=C)=O)(O[Si](C)(C)C)(O[Si](C)(C)C)O[Si](C)(C)C",
    "meta_data": {
        "InChI": "InChI=1S/C16H38O5Si4/c1-15(2)16(17)18-13-12-14-25(19-22(3,4)5,20-23(6,7)8)21-24(9,10)11/h1,12-14H2,2-11H3",
        "InChIKey": null,
        "Canonical SMILES": "O=C(OCCC[Si](O[Si](C)(C)C)(O[Si](C)(C)C)O[Si](C)(C)C)C(=C)C",
        "Molecular Formula": "C<sub>16</sub>H<sub>38</sub>O<sub>5</sub>Si<sub>4</sub>",
        "Molecular Mass": "422.81",
        "Boiling Point": "139 °C @ Press: 1 Torr",
        "Density": "0.930 g/cm³"
    }
}