{
    "cas_no": "26830-40-0",
    "key_name": "2-Amino-4,5,6,7-tetrahydro-6-(1-methylethyl)thieno[2,3-<em>c</em>]pyridine-3-carbonitrile",
    "cn_name": null,
    "alternate_name": "Thieno[2,3-<em>c</em>]pyridine-3-carbonitrile, 2-amino-4,5,6,7-tetrahydro-6-(1-methylethyl)-;Thieno[2,3-<em>c</em>]pyridine-3-carbonitrile, 2-amino-4,5,6,7-tetrahydro-6-isopropyl-;2-Amino-4,5,6,7-tetrahydro-6-(1-methylethyl)thieno[2,3-<em>c</em>]pyridine-3-carbonitrile;2-Amino-6-isopropyl-4,5,6,7-tetrahydrothieno[2,3-<em>C</em>]pyridine-3-carbonitrile;2-Amino-6-isopropyl-4,5,6,7-tetrahydro-thieno[2,3-<em>c</em>]pyridine-3-carbonitrile;2-Amino-6-propan-2-yl-5,7-dihydro-4<em>H</em>-thieno[2,3-<em>c</em>]pyridine-3-carbonitrile;2-Amino-6-(propan-2-yl)-4<em>H</em>,5<em>H</em>,6<em>H</em>,7<em>H</em>-thieno[2,3-<em>c</em>]pyridine-3-carbonitrile",
    "duplicated_cas_no": "",
    "SMILES": "C(#N)C=1C2=C(CN(C(C)C)CC2)SC1N",
    "meta_data": {
        "InChI": "InChI=1S/C11H15N3S/c1-7(2)14-4-3-8-9(5-12)11(13)15-10(8)6-14/h7H,3-4,6,13H2,1-2H3",
        "InChIKey": null,
        "Canonical SMILES": "N#CC1=C(SC2=C1CCN(C2)C(C)C)N",
        "Molecular Formula": "C<sub>11</sub>H<sub>15</sub>N<sub>3</sub>S",
        "Molecular Mass": "221.32",
        "Melting Point": "168-169 °C"
    }
}