{
    "cas_no": "92-82-0",
    "key_name": "Phenazine",
    "cn_name": "酚嗪;",
    "alternate_name": "Phenazine;Azophenylene;Dibenzopyrazine;9,10-Diazaanthracene;NSC 13157",
    "duplicated_cas_no": "",
    "SMILES": "C12=C(N=C3C(=N1)C=CC=C3)C=CC=C2",
    "meta_data": {
        "InChI": "InChI=1S/C12H8N2/c1-2-6-10-9(5-1)13-11-7-3-4-8-12(11)14-10/h1-8H",
        "InChIKey": null,
        "Canonical SMILES": "N=1C2=CC=CC=C2N=C3C=CC=CC13",
        "Molecular Formula": "C<sub>12</sub>H<sub>8</sub>N<sub>2</sub>",
        "Molecular Mass": "180.21",
        "Boiling Point": "&gt;360 °C",
        "Melting Point": "176.5 °C"
    }
}