{
    "cas_no": "2217-07-4",
    "key_name": "<em>N</em>,<em>N</em>-Dipropylbenzenamine",
    "cn_name": "N,N-二正丙基苯胺;",
    "alternate_name": "Benzenamine, <em>N</em>,<em>N</em>-dipropyl-;Aniline, <em>N</em>,<em>N</em>-dipropyl-;<em>N</em>,<em>N</em>-Dipropylbenzenamine;<em>N</em>-Phenyldipropylamine;<em>N</em>,<em>N</em>-Dipropylaniline;Dipropylaniline;NSC 5689",
    "duplicated_cas_no": "",
    "SMILES": "N(CCC)(CCC)C1=CC=CC=C1",
    "meta_data": {
        "InChI": "InChI=1S/C12H19N/c1-3-10-13(11-4-2)12-8-6-5-7-9-12/h5-9H,3-4,10-11H2,1-2H3",
        "InChIKey": null,
        "Canonical SMILES": "C=1C=CC(=CC1)N(CCC)CCC",
        "Molecular Formula": "C<sub>12</sub>H<sub>19</sub>N",
        "Molecular Mass": "177.29",
        "Boiling Point": "242 °C"
    }
}