{
    "cas_no": "7411-12-3",
    "key_name": "<em>N</em>-Deacetyl-<em>N</em>-formylcolchicine",
    "cn_name": null,
    "alternate_name": "Formamide, <em>N</em>-[(7<em>S</em>)-5,6,7,9-tetrahydro-1,2,3,10-tetramethoxy-9-oxobenzo[<em>a</em>]heptalen-7-yl]-;Colchicine, <em>N</em>-deacetyl-<em>N</em>-formyl-;Formamide, <em>N</em>-(5,6,7,9-tetrahydro-1,2,3,10-tetramethoxy-9-oxobenzo[<em>a</em>]heptalen-7-yl)-, (<em>S</em>)-;Colchicine, deacetyl-<em>N</em>-formyl-;Benzo[<em>a</em>]heptalene, formamide deriv.;<em>N</em>-[(7<em>S</em>)-5,6,7,9-Tetrahydro-1,2,3,10-tetramethoxy-9-oxobenzo[<em>a</em>]heptalen-7-yl]formamide;<em>N</em>-Deacetyl-<em>N</em>-formylcolchicine;<em>N</em>-Formyldeacetylcolchicine;<em>N</em>-Formyl-<em>N</em>-deacetylcolchicine;Gloriosine;<em>N</em>-Formyl-<em>N</em>-desacetylcolchicine;NSC 403142",
    "duplicated_cas_no": "1399-50-4",
    "SMILES": "O(C)C1=C2C=3C([C@@H](NC=O)CCC2=CC(OC)=C1OC)=CC(=O)C(OC)=CC3",
    "meta_data": {
        "InChI": "InChI=1S/C21H23NO6/c1-25-17-8-6-13-14(10-16(17)24)15(22-11-23)7-5-12-9-18(26-2)20(27-3)21(28-4)19(12)13/h6,8-11,15H,5,7H2,1-4H3,(H,22,23)/t15-/m0/s1",
        "InChIKey": null,
        "Canonical SMILES": "O=CNC1C2=CC(=O)C(OC)=CC=C2C3=C(OC)C(OC)=C(OC)C=C3CC1",
        "Molecular Formula": "C<sub>21</sub>H<sub>23</sub>NO<sub>6</sub>",
        "Molecular Mass": "385.41",
        "Melting Point": "260-262 °C"
    }
}