{
    "cas_no": "2561-85-5",
    "key_name": "Dodecylsuccinic anhydride",
    "cn_name": "N-十二烷基琥珀酸酐;正十二烷基丁二酸酐;3-十二烷基二氢-2,5-呋喃二酮;",
    "alternate_name": "2,5-Furandione, 3-dodecyldihydro-;Succinic anhydride, dodecyl-;3-Dodecyldihydro-2,5-furandione;Dodecylsuccinic anhydride;1,2-Tetradecanedicarboxylic anhydride;<em>n</em>-Dodecylsuccinic anhydride;Dodecylsuccinic acid anhydride;NSC 77128;3-Dodecyloxolane-2,5-dione",
    "duplicated_cas_no": "173294-69-4",
    "SMILES": "C(CCCCCCCCCCC)C1CC(=O)OC1=O",
    "meta_data": {
        "InChI": "InChI=1S/C16H28O3/c1-2-3-4-5-6-7-8-9-10-11-12-14-13-15(17)19-16(14)18/h14H,2-13H2,1H3",
        "InChIKey": null,
        "Canonical SMILES": "O=C1OC(=O)C(C1)CCCCCCCCCCCC",
        "Molecular Formula": "C<sub>16</sub>H<sub>28</sub>O<sub>3</sub>",
        "Molecular Mass": "268.39",
        "Melting Point": "72-74 °C"
    }
}