{
    "cas_no": "6380-23-0",
    "key_name": "3,4-Dimethoxystyrene",
    "cn_name": "3,4-二甲氧基苯乙烯;",
    "alternate_name": "Benzene, 4-ethenyl-1,2-dimethoxy-;Styrene, 3,4-dimethoxy-;Veratrole, 4-vinyl-;4-Ethenyl-1,2-dimethoxybenzene;3,4-Dimethoxystyrene;4-Vinyl-1,2-dimethoxybenzene;1,2-Dimethoxy-4-vinylbenzene;4-Vinylveratrole;3,4-Dimethoxystyrol",
    "duplicated_cas_no": "",
    "SMILES": "O(C)C1=C(OC)C=CC(C=C)=C1",
    "meta_data": {
        "InChI": "InChI=1S/C10H12O2/c1-4-8-5-6-9(11-2)10(7-8)12-3/h4-7H,1H2,2-3H3",
        "InChIKey": null,
        "Canonical SMILES": "O(C1=CC=C(C=C)C=C1OC)C",
        "Molecular Formula": "C<sub>10</sub>H<sub>12</sub>O<sub>2</sub>",
        "Molecular Mass": "164.20",
        "Boiling Point": "113-115 °C @ Press: 6-7 Torr",
        "Density": "1.087 g/cm³ @ Temp: 20 °C"
    }
}