{
    "cas_no": "116-75-6",
    "key_name": "Solvent Blue 104",
    "cn_name": "溶剂蓝104;1,4-双[(2,4,6-三甲基苯基)氨基]-9,10-蒽二酮;",
    "alternate_name": "9,10-Anthracenedione, 1,4-bis[(2,4,6-trimethylphenyl)amino]-;Anthraquinone, 1,4-bis(2,4,6-trimethylanilino)-;1,4-Bis[(2,4,6-trimethylphenyl)amino]-9,10-anthracenedione;1,4-Bis(2,4,6-trimethylanilino)anthraquinone;1,4-Dimesidinoanthraquinone;Fat Soluble Brilliant Blue Anthraquinone;C.I. 61568;C.I. Solvent Blue 104;Nitro Fast Blue 2B;Solvent Blue 104;Estofil Blue S-RBL;1,4-Bis(mesitylamino)anthraquinone;Sandoplast Blue 2B;1,4-Bis(2,4,6-trimethylanilino)-9,10-anthraquinone;Polysynthren Blue RBL;NSC 135500;Sandoplast Blue 2BP;Keyplast Blue KR;Solvaperm Blue 2B;KP Plast Blue GR;1,4-Bis[(2,4,6-trimethylphenyl)amino]anthracene-9,10-dione;FS Blue 1547;1,4-Bis(2,4,6-trimethylphenylamino)-9,10-anthraquinone;Optica Global PRT Blue;Optica Global PRT Blue Toner;1,4-Bis(2,4,6-trimethylanilino)anthracene-9,10-dione;Oracet Blue 690;Plast Blue 8580;Elbaplast Blue R",
    "duplicated_cas_no": "71872-84-9",
    "SMILES": "N(C1=C2C(=C(NC3=C(C)C=C(C)C=C3C)C=C1)C(=O)C=4C(C2=O)=CC=CC4)C5=C(C)C=C(C)C=C5C",
    "meta_data": {
        "InChI": "InChI=1S/C32H30N2O2/c1-17-13-19(3)29(20(4)14-17)33-25-11-12-26(34-30-21(5)15-18(2)16-22(30)6)28-27(25)31(35)23-9-7-8-10-24(23)32(28)36/h7-16,33-34H,1-6H3",
        "InChIKey": null,
        "Canonical SMILES": "O=C1C=2C=CC=CC2C(=O)C=3C(=CC=C(NC=4C(=CC(=CC4C)C)C)C13)NC=5C(=CC(=CC5C)C)C",
        "Molecular Formula": "C<sub>32</sub>H<sub>30</sub>N<sub>2</sub>O<sub>2</sub>",
        "Molecular Mass": "474.59",
        "Melting Point": "236.5-237.5 °C"
    }
}