{
    "cas_no": "10138-89-3",
    "key_name": "1,1,3-Trimethoxybutane",
    "cn_name": "三甲氧基丁烷;",
    "alternate_name": "Butane, 1,1,3-trimethoxy-;Butyraldehyde, 3-methoxy-, dimethyl acetal;Butyraldehyde, β-methoxy-, dimethyl acetal;1,1,3-Trimethoxybutane;3-Methoxybutyraldehyde dimethyl acetal;NSC 127599",
    "duplicated_cas_no": "",
    "SMILES": "C(CC(OC)C)(OC)OC",
    "meta_data": {
        "InChI": "InChI=1S/C7H16O3/c1-6(8-2)5-7(9-3)10-4/h6-7H,5H2,1-4H3",
        "InChIKey": null,
        "Canonical SMILES": "O(C)C(OC)CC(OC)C",
        "Molecular Formula": "C<sub>7</sub>H<sub>16</sub>O<sub>3</sub>",
        "Molecular Mass": "148.20",
        "Boiling Point": "157 °C",
        "Density": "0.9180 g/cm³ @ Temp: 20 °C"
    }
}