{
    "cas_no": "1572-10-7",
    "key_name": "3-Amino-5-phenylpyrazole",
    "cn_name": null,
    "alternate_name": "1<em>H</em>-Pyrazol-3-amine, 5-phenyl-;Pyrazole, 3-amino-5-phenyl-;Pyrazole, 3(<em>or</em> 5)-amino-5(<em>or</em> 3)-phenyl-;5-Phenyl-1<em>H</em>-pyrazol-3-amine;3-Amino-5-phenylpyrazole;3-Phenyl-5-aminopyrazole;5-Amino-3-phenylpyrazole;5-Phenyl-3-aminopyrazole;3-Phenyl-5-pyrazolamine;5-Phenyl-3-pyrazolamine;3-Amino-5-phenyl-1<em>H</em>-pyrazole;5-Phenyl-1-pyrazol-3-amine;5-Phenyl-1<em>H</em>-pyrazol-3-ylamine;3-Amino-5-phenyl-2<em>H</em>-pyrazole;3-Phenyl-1<em>H</em>-pyrazol-5-amine;5-Amino-3-phenyl-1<em>H</em>-pyrazole;5-Phenylpyrazol-3-ylamine",
    "duplicated_cas_no": "59873-78-8;30027-58-8;1055895-80-1;1062512-64-4;1092682-89-7;1111664-21-1",
    "SMILES": "NC=1C=C(NN1)C2=CC=CC=C2",
    "meta_data": {
        "InChI": "InChI=1S/C9H9N3/c10-9-6-8(11-12-9)7-4-2-1-3-5-7/h1-6H,(H3,10,11,12)",
        "InChIKey": null,
        "Canonical SMILES": "N=1NC(=CC1N)C=2C=CC=CC2",
        "Molecular Formula": "C<sub>9</sub>H<sub>9</sub>N<sub>3</sub>",
        "Molecular Mass": "159.19",
        "Melting Point": "126-127 °C"
    }
}