{
    "cas_no": "212386-71-5",
    "key_name": "<em>B</em>-(4-Ethoxy-2,3-difluorophenyl)boronic acid",
    "cn_name": "2.3-二氟-4-乙氧基苯硼酸;",
    "alternate_name": "Boronic acid, <em>B</em>-(4-ethoxy-2,3-difluorophenyl)-;Boronic acid, (4-ethoxy-2,3-difluorophenyl)-;<em>B</em>-(4-Ethoxy-2,3-difluorophenyl)boronic acid;4-Ethoxy-2,3-difluorophenylboronic acid;(2,3-Difluoro-4-ethoxyphenyl)boronic acid",
    "duplicated_cas_no": "",
    "SMILES": "B(O)(O)C1=C(F)C(F)=C(OCC)C=C1",
    "meta_data": {
        "InChI": "InChI=1S/C8H9BF2O3/c1-2-14-6-4-3-5(9(12)13)7(10)8(6)11/h3-4,12-13H,2H2,1H3",
        "InChIKey": null,
        "Canonical SMILES": "FC1=C(F)C(=CC=C1OCC)B(O)O",
        "Molecular Formula": "C<sub>8</sub>H<sub>9</sub>BF<sub>2</sub>O<sub>3</sub>",
        "Molecular Mass": "201.96",
        "Melting Point": "135-136 °C"
    }
}