{
    "cas_no": "32857-63-9",
    "key_name": "4-(1,1-Dimethylethyl)benzeneacetic acid",
    "cn_name": null,
    "alternate_name": "Benzeneacetic acid, 4-(1,1-dimethylethyl)-;Acetic acid, (<em>p</em>-<em>tert</em>-butylphenyl)-;4-(1,1-Dimethylethyl)benzeneacetic acid;(<em>p</em>-<em>tert</em>-Butylphenyl)acetic acid;(4-<em>tert</em>-Butylphenyl)acetic acid;4-<em>tert-</em>Butylbenzeneacetic acid;BTS 10335;2-(4-<em>tert</em>-Butylphenyl)acetic acid;4-Tert-butylphenylacetic acid",
    "duplicated_cas_no": "",
    "SMILES": "C(C)(C)(C)C1=CC=C(CC(O)=O)C=C1",
    "meta_data": {
        "InChI": "InChI=1S/C12H16O2/c1-12(2,3)10-6-4-9(5-7-10)8-11(13)14/h4-7H,8H2,1-3H3,(H,13,14)",
        "InChIKey": null,
        "Canonical SMILES": "O=C(O)CC1=CC=C(C=C1)C(C)(C)C",
        "Molecular Formula": "C<sub>12</sub>H<sub>16</sub>O<sub>2</sub>",
        "Molecular Mass": "192.25",
        "Melting Point": "79-80 °C"
    }
}