{
    "cas_no": "626-26-6",
    "key_name": "Di-<em>sec</em>-butyl sulfide",
    "cn_name": "仲丁基硫醚;",
    "alternate_name": "Butane, 2-[(1-methylpropyl)thio]-;<em>sec</em>-Butyl sulfide;Butane, 2,2′-thiobis-;2-[(1-Methylpropyl)thio]butane;Di-<em>sec</em>-butyl sulfide;Di-<em>sec</em>-Butyl thioether;3,5-Dimethyl-4-thiaheptane;Di(1-methylpropyl) sulfide;Di-<em>s</em>-Butyl sulfide;2-Butan-2-ylsulfanylbutane;2-(Butan-2-ylsulfanyl)butane",
    "duplicated_cas_no": "",
    "SMILES": "S(C(CC)C)C(CC)C",
    "meta_data": {
        "InChI": "InChI=1S/C8H18S/c1-5-7(3)9-8(4)6-2/h7-8H,5-6H2,1-4H3",
        "InChIKey": null,
        "Canonical SMILES": "S(C(C)CC)C(C)CC",
        "Molecular Formula": "C<sub>8</sub>H<sub>18</sub>S",
        "Molecular Mass": "146.29",
        "Boiling Point": "165 °C",
        "Density": "0.8348 g/cm³ @ Temp: 20 °C"
    }
}