{
    "cas_no": "327-75-3",
    "key_name": "1-Bromo-2,4-bis(trifluoromethyl)benzene",
    "cn_name": "2,4-双(三氟甲基)-1-溴苯;2,4-二(三氟甲基)溴苯;",
    "alternate_name": "Benzene, 1-bromo-2,4-bis(trifluoromethyl)-;1-Bromo-2,4-bis(trifluoromethyl)benzene;2,4-Bis(trifluoromethyl)bromobenzene;2,4-Bis(trifluoromethyl)-1-bromobenzene",
    "duplicated_cas_no": "",
    "SMILES": "C(F)(F)(F)C1=CC(C(F)(F)F)=CC=C1Br",
    "meta_data": {
        "InChI": "InChI=1S/C8H3BrF6/c9-6-2-1-4(7(10,11)12)3-5(6)8(13,14)15/h1-3H",
        "InChIKey": null,
        "Canonical SMILES": "FC(F)(F)C1=CC=C(Br)C(=C1)C(F)(F)F",
        "Molecular Formula": "C<sub>8</sub>H<sub>3</sub>BrF<sub>6</sub>",
        "Molecular Mass": "293.00",
        "Boiling Point": "158 °C @ Press: 740 Torr"
    }
}