{
    "cas_no": "1506-55-4",
    "key_name": "1-Ethyl 4-oxoheptanedioate",
    "cn_name": null,
    "alternate_name": "Heptanedioic acid, 4-oxo-, 1-ethyl ester;Heptanedioic acid, 4-oxo-, monoethyl ester;Heptanedioic acid, 4-oxo-, ethyl ester;1-Ethyl 4-oxoheptanedioate;4-Oxoheptanedioic acid monoethyl ester;Monoethyl 4-oxoheptanedioate;Ethyl hydrogen 4-oxoheptanedioate;7-Ethoxy-4,7-dioxoheptanoic acid",
    "duplicated_cas_no": "",
    "SMILES": "C(CCC(OCC)=O)(CCC(O)=O)=O",
    "meta_data": {
        "InChI": "InChI=1S/C9H14O5/c1-2-14-9(13)6-4-7(10)3-5-8(11)12/h2-6H2,1H3,(H,11,12)",
        "InChIKey": null,
        "Canonical SMILES": "O=C(O)CCC(=O)CCC(=O)OCC",
        "Molecular Formula": "C<sub>9</sub>H<sub>14</sub>O<sub>5</sub>",
        "Molecular Mass": "202.20",
        "Boiling Point": "198-200 °C @ Press: 25 Torr",
        "Melting Point": "71-72 °C"
    }
}