{
    "cas_no": "689-89-4",
    "key_name": "Methyl sorbate",
    "cn_name": "山梨酸甲酯;己二烯酸甲酯;",
    "alternate_name": "2,4-Hexadienoic acid, methyl ester, (2<em>E</em>,4<em>E</em>)-;Sorbic acid, methyl ester, (<em>E</em>,<em>E</em>)-;2,4-Hexadienoic acid, methyl ester, (<em>E</em>,<em>E</em>)-;Sorbic acid, methyl ester;Methyl <em>trans</em>,<em>trans</em>-sorbate;2-<em>trans</em>-4-<em>trans</em>-Methyl sorbate;Methyl (<em>E</em>,<em>E</em>)-sorbate;Methyl sorbate;Methyl (2<em>E</em>,4<em>E</em>)-hexadienoate;Methyl (<em>E</em>,<em>E</em>)-2,4-hexadienoate;(<em>E</em>,<em>E</em>)-2,4-Hexadienoic acid methyl ester;(2<em>E</em>,4<em>E</em>)-Hexa-2,4-dienoic acid methyl ester;Methyl (2<em>E</em>,4<em>E</em>)-2,4-hexadienoate",
    "duplicated_cas_no": "",
    "SMILES": "C(/C=C/C=C/C)(OC)=O",
    "meta_data": {
        "InChI": "InChI=1S/C7H10O2/c1-3-4-5-6-7(8)9-2/h3-6H,1-2H3/b4-3+,6-5+",
        "InChIKey": null,
        "Canonical SMILES": "O=C(OC)C=CC=CC",
        "Molecular Formula": "C<sub>7</sub>H<sub>10</sub>O<sub>2</sub>",
        "Molecular Mass": "126.15",
        "Boiling Point": "180 °C",
        "Melting Point": "15 °C",
        "Density": "0.9605 g/cm³ @ Temp: 25 °C"
    }
}