{
    "cas_no": "18720-66-6",
    "key_name": "6-Methyl-3-heptanol",
    "cn_name": "6-甲基-3-庚醇;",
    "alternate_name": "3-Heptanol, 6-methyl-;6-Methyl-3-heptanol;(±)-6-Methyl-3-heptanol",
    "duplicated_cas_no": "100295-85-0",
    "SMILES": "C(CCC(C)C)(CC)O",
    "meta_data": {
        "InChI": "InChI=1S/C8H18O/c1-4-8(9)6-5-7(2)3/h7-9H,4-6H2,1-3H3",
        "InChIKey": null,
        "Canonical SMILES": "OC(CC)CCC(C)C",
        "Molecular Formula": "C<sub>8</sub>H<sub>18</sub>O",
        "Molecular Mass": "130.23",
        "Boiling Point": "165-166 °C",
        "Melting Point": "-61 °C",
        "Density": "0.8084 g/cm³"
    }
}