{
    "cas_no": "26322-14-5",
    "key_name": "Dicetyl peroxydicarbonate",
    "cn_name": "过氧化二(十六烷基)二碳酸酯;",
    "alternate_name": "Peroxydicarbonic acid, <em>C</em>,<em>C</em>′-dihexadecyl ester;Peroxydicarbonic acid, dihexadecyl ester;Dicetyl peroxydicarbonate;Dihexadecyl peroxydicarbonate;Perkadox 24W40;Lupersol 216;Perkadox 24;Liladox;Liladox 33W;Liladox 90P;Perkadox 24FL;Perkadox 24L;Cetyl peroxy dicarbonate",
    "duplicated_cas_no": "960281-36-1",
    "SMILES": "C(OOC(OCCCCCCCCCCCCCCCC)=O)(OCCCCCCCCCCCCCCCC)=O",
    "meta_data": {
        "InChI": "InChI=1S/C34H66O6/c1-3-5-7-9-11-13-15-17-19-21-23-25-27-29-31-37-33(35)39-40-34(36)38-32-30-28-26-24-22-20-18-16-14-12-10-8-6-4-2/h3-32H2,1-2H3",
        "InChIKey": null,
        "Canonical SMILES": "O=C(OOC(=O)OCCCCCCCCCCCCCCCC)OCCCCCCCCCCCCCCCC",
        "Molecular Formula": "C<sub>34</sub>H<sub>66</sub>O<sub>6</sub>",
        "Molecular Mass": "570.88",
        "Melting Point": "52 °C"
    }
}