{
    "cas_no": "930-21-2",
    "key_name": "2-Azetidinone",
    "cn_name": "2-氮杂环丁酮;",
    "alternate_name": "2-Azetidinone;β-Alanine, lactam;β-Propiolactam;2-Azetidone;Propiolactam;3-Aminopropionic acid lactam;3-Aminopropanoic acid lactam;2-Oxoazetidine",
    "duplicated_cas_no": "",
    "SMILES": "O=C1CCN1",
    "meta_data": {
        "InChI": "InChI=1S/C3H5NO/c5-3-1-2-4-3/h1-2H2,(H,4,5)",
        "InChIKey": null,
        "Canonical SMILES": "O=C1NCC1",
        "Molecular Formula": "C<sub>3</sub>H<sub>5</sub>NO",
        "Molecular Mass": "71.08",
        "Boiling Point": "106 °C @ Press: 15 Torr",
        "Melting Point": "73-74 °C"
    }
}