{
    "cas_no": "957-77-7",
    "key_name": "5-Hydroxyuridine",
    "cn_name": "5-羟基尿苷;5-羟基尿苷;",
    "alternate_name": "Uridine, 5-hydroxy-;Isobarbituric acid, 1-β-<span class=\"text-smallcaps\">D</span>-ribofuranosyl-;5-Hydroxyuridine",
    "duplicated_cas_no": "",
    "SMILES": "O[C@H]1[C@@H](O[C@H](CO)[C@H]1O)N2C(=O)NC(=O)C(O)=C2",
    "meta_data": {
        "InChI": "InChI=1S/C9H12N2O7/c12-2-4-5(14)6(15)8(18-4)11-1-3(13)7(16)10-9(11)17/h1,4-6,8,12-15H,2H2,(H,10,16,17)/t4-,5-,6-,8-/m1/s1",
        "InChIKey": null,
        "Canonical SMILES": "O=C1NC(=O)N(C=C1O)C2OC(CO)C(O)C2O",
        "Molecular Formula": "C<sub>9</sub>H<sub>12</sub>N<sub>2</sub>O<sub>7</sub>",
        "Molecular Mass": "260.20",
        "Melting Point": "242-245 °C"
    }
}