{
    "cas_no": "666-52-4",
    "key_name": "Acetone-d<sub>6</sub>",
    "cn_name": "氘代丙酮;丙酮-D6;氘代丙酮;",
    "alternate_name": "2-Propanone-<em>1</em>,<em>1</em>,<em>1</em>,<em>3</em>,<em>3</em>,<em>3</em>-<em>d</em><sub>6</sub>;Acetone-<em>d</em><sub>6</sub>;Hexadeuterioacetone;Hexadeuteroacetone;Perdeuterioacetone;Acetone-d<sub>6</sub>;2-Propanone-<em>d</em><sub>6</sub>;Perdeuteroacetone;1,1,1,3,3,3-Hexadeutero-2-propanone;1,1,1,3,3,3-Hexadeuteriopropan-2-one",
    "duplicated_cas_no": "185560-61-6",
    "SMILES": "C(C([2H])([2H])[2H])(C([2H])([2H])[2H])=O",
    "meta_data": {
        "InChI": "InChI=1S/C3H6O/c1-3(2)4/h1-2H3/i1D3,2D3",
        "InChIKey": null,
        "Canonical SMILES": "O=C(C)C",
        "Molecular Formula": "C<sub>3</sub>D<sub>6</sub>O",
        "Molecular Mass": "",
        "Boiling Point": "55.5 °C",
        "Melting Point": "-98.3 °C",
        "Density": "0.8749 g/cm³ @ Temp: 20 °C"
    }
}