{
    "cas_no": "2718-25-4",
    "key_name": "(5b<em>R</em>,13b<em>R</em>,15<em>S</em>)-5b,6,7,8,13b,15-Hexahydro-15-methoxy-6-methyl[1,3]dioxolo[4,5-<em>h</em>]-1,3-dioxolo[7,8][2]benzopyrano[3,4-<em>a</em>][3]benzazepine",
    "cn_name": null,
    "alternate_name": "[1,3]Dioxolo[4,5-<em>h</em>]-1,3-dioxolo[7,8][2]benzopyrano[3,4-<em>a</em>][3]benzazepine, 5b,6,7,8,13b,15-hexahydro-15-methoxy-6-methyl-, (5b<em>R</em>,13b<em>R</em>,15<em>S</em>)-;Rheadine;Rhoeadine;Rheadan, 8-methoxy-16-methyl-2,3:10,11-bis[methylenebis(oxy)]-, (8β)-;(5b<em>R</em>,13b<em>R</em>,15<em>S</em>)-5b,6,7,8,13b,15-Hexahydro-15-methoxy-6-methyl[1,3]dioxolo[4,5-<em>h</em>]-1,3-dioxolo[7,8][2]benzopyrano[3,4-<em>a</em>][3]benzazepine;Rhoeadin;[1,3]Dioxolo[4,5-<em>h</em>]-1,3-dioxolo[7,8][2]benzopyrano[3,4-<em>a</em>][3]benzazepine, 5b,6,7,8,13b,15-hexahydro-15-methoxy-6-methyl-, [5b<em>R</em>-(5bα,13bα,15α)]-",
    "duplicated_cas_no": "17948-34-4",
    "SMILES": "CN1[C@]2([C@@](C=3C(=CC4=C(C3)OCO4)CC1)(O[C@H](OC)C=5C2=CC=C6C5OCO6)[H])[H]",
    "meta_data": {
        "InChI": "InChI=1S/C21H21NO6/c1-22-6-5-11-7-15-16(26-9-25-15)8-13(11)19-18(22)12-3-4-14-20(27-10-24-14)17(12)21(23-2)28-19/h3-4,7-8,18-19,21H,5-6,9-10H2,1-2H3/t18-,19-,21+/m1/s1",
        "InChIKey": null,
        "Canonical SMILES": "O1C2=CC=C3C(=C2OC1)C(OC)OC4C5=CC=6OCOC6C=C5CCN(C)C34",
        "Molecular Formula": "C<sub>21</sub>H<sub>21</sub>NO<sub>6</sub>",
        "Molecular Mass": "383.39",
        "Melting Point": "256-257.5 °C"
    }
}