{
    "cas_no": "590-67-0",
    "key_name": "1-Methylcyclohexanol",
    "cn_name": null,
    "alternate_name": "Cyclohexanol, 1-methyl-;1-Methylcyclohexanol;1-Methyl-1-cyclohexanol;1-Hydroxy-1-methylcyclohexane;1-Methylcyclohexyl alcohol;NSC 1247",
    "duplicated_cas_no": "",
    "SMILES": "CC1(O)CCCCC1",
    "meta_data": {
        "InChI": "InChI=1S/C7H14O/c1-7(8)5-3-2-4-6-7/h8H,2-6H2,1H3",
        "InChIKey": null,
        "Canonical SMILES": "OC1(C)CCCCC1",
        "Molecular Formula": "C<sub>7</sub>H<sub>14</sub>O",
        "Molecular Mass": "114.19",
        "Boiling Point": "155 °C",
        "Melting Point": "25 °C",
        "Density": "0.92 g/cm³"
    }
}