{
    "cas_no": "13314-52-8",
    "key_name": "Dichlorodiethylgermane",
    "cn_name": "二乙基二氯化锗;",
    "alternate_name": "Germane, dichlorodiethyl-;Diethylgermanium dichloride;Dichlorodiethylgermane;Diethyldichlorogermane;Diethylgermanyl dichloride;NSC 342212",
    "duplicated_cas_no": "",
    "SMILES": "[Ge](CC)(CC)(Cl)Cl",
    "meta_data": {
        "InChI": "InChI=1S/C4H10Cl2Ge/c1-3-7(5,6)4-2/h3-4H2,1-2H3",
        "InChIKey": null,
        "Canonical SMILES": "Cl[Ge](Cl)(CC)CC",
        "Molecular Formula": "C<sub>4</sub>H<sub>10</sub>Cl<sub>2</sub>Ge",
        "Molecular Mass": "201.67",
        "Boiling Point": "175 °C",
        "Melting Point": "-39 °C",
        "Density": "1.374 g/cm³"
    }
}