{
    "cas_no": "1003-09-4",
    "key_name": "2-Bromothiophene",
    "cn_name": "2-溴噻吩;",
    "alternate_name": "Thiophene, 2-bromo-;2-Bromothiophene;2-Thienyl bromide;NSC 4456",
    "duplicated_cas_no": "",
    "SMILES": "BrC1=CC=CS1",
    "meta_data": {
        "InChI": "InChI=1S/C4H3BrS/c5-4-2-1-3-6-4/h1-3H",
        "InChIKey": null,
        "Canonical SMILES": "BrC=1SC=CC1",
        "Molecular Formula": "C<sub>4</sub>H<sub>3</sub>BrS",
        "Molecular Mass": "163.04",
        "Boiling Point": "150 °C",
        "Melting Point": "&lt;25 °C",
        "Density": "1.6284 g/cm³ @ Temp: 20 °C"
    }
}