{
    "cas_no": "1060815-92-0",
    "key_name": "4-Chloro-5-iodo-2-methyl-7<em>H</em>-pyrrolo[2,3-<em>d</em>]pyrimidine",
    "cn_name": null,
    "alternate_name": "7<em>H</em>-Pyrrolo[2,3-<em>d</em>]pyrimidine, 4-chloro-5-iodo-2-methyl-;4-Chloro-5-iodo-2-methyl-7<em>H</em>-pyrrolo[2,3-<em>d</em>]pyrimidine",
    "duplicated_cas_no": "",
    "SMILES": "ClC1=C2C(=NC(C)=N1)NC=C2I",
    "meta_data": {
        "InChI": "InChI=1S/C7H5ClIN3/c1-3-11-6(8)5-4(9)2-10-7(5)12-3/h2H,1H3,(H,10,11,12)",
        "InChIKey": null,
        "Canonical SMILES": "ClC1=NC(=NC=2NC=C(I)C12)C",
        "Molecular Formula": "C<sub>7</sub>H<sub>5</sub>ClIN<sub>3</sub>",
        "Molecular Mass": "293.49",
        "Melting Point": "229-231 °C"
    }
}