{
    "cas_no": "9011-17-0",
    "key_name": "Hexafluoropropylene-vinylidene fluoride copolymer",
    "cn_name": null,
    "alternate_name": "1-Propene, 1,1,2,3,3,3-hexafluoro-, polymer with 1,1-difluoroethene;Propene, hexafluoro-, polymer with 1,1-difluoroethylene;Propene, hexafluoro-, polymer with vinylidene fluoride;Ethene, 1,1-difluoro-, polymer with 1,1,2,3,3,3-hexafluoro-1-propene;Ethylene, 1,1-difluoro-, polymer with hexafluoropropene;Hexafluoropropylene-vinylidene fluoride copolymer;Vinylidene fluoride-perfluoropropene copolymer;Hexafluoropropene-vinylidene fluoride polymer;Hexafluoropropylene-vinylidene fluoride polymer;SF 2 (polymer);Vinylidene fluoride-hexafluoropropylene polymer;1,1-Difluoroethylene-hexafluoropropene polymer;1,1-Difluoroethylene-perfluoropropene copolymer;Hexafluoropropylene-vinylidene difluoride polymer;Perfluoropropene-vinylidene fluoride copolymer;Perfluoropropylene-vinylidene fluoride polymer;Vinylidene fluoride-hexafluoropropene polymer;Vinylidene fluoride-perfluoropropene polymer;Propylene hexafluoride-vinylidene fluoride polymer;Perfluoropropene-vinylidene fluoride polymer;Perfluoropropylene-vinylidene fluoride copolymer;Ftoroplast 26;Fluoroplast 26;F 26;Ftorlon F 26;Ftoroplast F 26;1,1-Difluoroethylene-hexafluoropropylene copolymer;Vinylidene fluoride-hexafluoropropylene copolymer;Kynar Flex 2800;SF 2;Kynar 2800;Solef 11012;Solef 10512;Solef 11512;Kynar 2801;Kynar 2812;Ethylidene fluoride-hexafluoropropene copolymer;Solef 11010;KF 2000;Kynar 1800;Tecnoflon FOR 4;Hylar 2800;Solef 21508;Akeogard CO;Solef 21010;Kynar 2850;KF Polymer T 2300;Kynar Flex 2850;Propylene hexafluoride-vinylidene fluoride copolymer;1,1-Difluoroethylene-hexafluoropropene copolymer;Kynar 2822;Viton Free Flow TA;Kynar 2751;Vinylidene fluoride-hexafluoropropene copolymer;Kynar Flex 2822;Kynar Flex 2801-00;Vinylidene fluoride-propylene hexafluoride copolymer;Poly(vinylidene fluoride-hexafluoropropylene);Hexafluoropropene-vinylidene fluoride copolymer;Kynar Flex 2751;Kynar 2750;1,1-Difluoroethylene-1,1,2,3,3,3-hexafluoro-1-propene copolymer;Kynar 2801F;Hexafluoropropylene-vinylidene difluoride copolymer;KF 2300;Hylar FXH 6;Solvay 20615;F 26L;Ftoroplast 26L;Kynar Flex 2821;Kynar Flex 2750;Vinylidene difluoride-hexafluoropropylene copolymer;Kynar 3120-15;Kynar 2850-04;KF Polymer 2300;Solef 11008;Solvay 20810/1001;Kynar Flex 2801GL;Powerflex;PVDF 11010;Kynar 2950-05;Fluorovinylidene-hexafluoropropylene copolymer;Hylar FXH;1,1-Difluoroethylene-1,1,2,3,3,3-hexafluoropropene copolymer;Solef 20810;Kynar 2810;Solef HV 11010;Kynar Flex 2500-20;Kynar Flex 2900-04;Kynar Flex 2850-04;Kynar Flex 3120-10;Kynar Flex 2950-10;Antigraffiti Phase;Kynar Flex 3120-50;Kynar Super Flex 2500;KF 2000 (polyolefin);Kynar 2820;Kynar RC 01-134;Kynar Powerflex LBG 151;Dyneon 11012;Kynar 2821;Kynar 2851;Hylar SN;Solef 20216;Solef 21216;Kynar 280;FKM 40;Hexafluoropropene-vinylidene difluoride copolymer;LBG 1;Kynar Superflex 2501;Solef 20615/1001;FX 9614X;Dynamar FX 9614X;Dynamar PPA-FX 9614X;F 62L;Flex 2501-20;Kynar Flex 3121;Kynar 2500;FKM-L 636;Kynar Flex 2501-20;Kynar PPA;Solef 11010/1001;Solef 21508/1001;Kokugo 02;Fluorovinylidene-perfluoropropene copolymer;Poly(vinylidene fluoride-co-hexafluoropropylene);Kynar Aquatec PVDF-HFP;VP 50;Hexafluoropropylene-polyvinylidene fluoride copolymer;Kynar Superflex 2500-20;KF Polymer 8500;Kynar Flex 2800-00;Kynar Flex 2950;Kynar 2950;Solvay 21510;Neoflon VP 50;Kynar Flex 2950-05;Kynar Flex 2501;Kynar Flex 2851;Kynar 2750-01;Kynar 2751-00;Poly(vinylidene difluoride-co-hexafluoropropylene);Hexafluoropropylene-fluorovinylidene copolymer;Kynar RX 801HPC;Kynar Flex 2501-00;RC 10,235;Kynar 2500-20;Kynar SL 2;Kynar 2821-00;Kynar LBG;Kynar Powerflex LBG;Kynar LBG 2;Solef 21510;Solef 20808;Vinylidene difluoride-hexafluoropropene copolymer;Kynar Flex 2820-20;Kynar Ultraflex B;Kynar Ultraflex;Poly(vinylidene fluoride-hexafluoropropene);LBG 2;Arkema LBG 2;Kynar Flex 2750-01;1,1-Difluoroethene-hexafluoropropene copolymer;Kynar Flex 2750-00;1,1,2,3,3,3-Hexafluoro-1-propene-1,1-difluoroethene copolymer;FE 2604;Kynar Powerflex LBG 1;Kynar Flex LBG;Kynar Flex 2850-00;Kynar Flex 2500-00;Kynar 2801-00;Solef 11615;Polyvinylidene fluoride-hexafluoropropylene copolymer;Fluoline HY;Kynar 2850-00;PPA;Kynar Flex 2800-20;Solef 21015;Hexafluoropropene-1,1-difluoroethene copolymer;Polyvinylidene difluoride-hexafluoropropylene copolymer;Kynar 2501-00;PPA-DA 310ST;Kynar Flex 2850PC;Kynar 2501;Viton VTR 5883;Kynar Flex 2751-00;PVDF 11010/000;Kynar 2800-00;Kynar 3120;Kynar Flex Ultraflex B;Solef 21216/1001;Kynar Flex 2821-00;Solef 11010/1001P;FX 9511;Dyneon FE 5621;Kynar Superflex 2501-20;PVDF-HFP 2801;Viton A 331C;PVDF-HFP;PPA 3511 (fluoropolymer);PPA 3511;Kynar ADS 2;Kynar Flex 3120",
    "duplicated_cas_no": "9050-23-1;39475-50-8;51022-81-2;56211-63-3;124365-26-0;124385-95-1;130299-06-8;165740-24-9;459411-45-1;484686-78-4;863107-30-6;870701-19-2;871926-57-7;913620-20-9;1000270-30-3;1029325-51-6;1130488-47-9;1414361-44-6;1795739-32-0;2021211-78-7;2226942-52-3;2300143-02-4",
    "SMILES": "C(C(F)(F)F)(=C(F)F)F.C(=C)(F)F",
    "meta_data": {
        "InChI": "InChI=1S/C3F6.C2H2F2/c4-1(2(5)6)3(7,8)9;1-2(3)4/h;1H2",
        "InChIKey": null,
        "Canonical SMILES": "FC(F)=C.FC(F)=C(F)C(F)(F)F",
        "Molecular Formula": "(C<sub>3</sub>F<sub>6</sub>.C<sub>2</sub>H<sub>2</sub>F<sub>2</sub>)<sub>x</sub>",
        "Molecular Mass": "",
        "Melting Point": "162 °C",
        "Density": "1.77 g/cm³"
    }
}