{
    "cas_no": "1159-86-0",
    "key_name": "1,2-Dibenzoylbenzene",
    "cn_name": "1,2-二苯甲酰苯;1,2-联苯甲酰苯;",
    "alternate_name": "Methanone, 1,1′-(1,2-phenylene)bis[1-phenyl-;Benzene, <em>o</em>-dibenzoyl-;Methanone, 1,2-phenylenebis[phenyl-;1,1′-(1,2-Phenylene)bis[1-phenylmethanone];1,2-Dibenzoylbenzene;<em>o</em>-Dibenzoylbenzene;2-Benzoylbenzophenone;<em>o</em>-Benzoylbenzophenone;NSC 6145;1,2-Phenylenebis(phenylmethanone);(2-Benzoylphenyl)-phenylmethanone",
    "duplicated_cas_no": "",
    "SMILES": "C(=O)(C1=C(C(=O)C2=CC=CC=C2)C=CC=C1)C3=CC=CC=C3",
    "meta_data": {
        "InChI": "InChI=1S/C20H14O2/c21-19(15-9-3-1-4-10-15)17-13-7-8-14-18(17)20(22)16-11-5-2-6-12-16/h1-14H",
        "InChIKey": null,
        "Canonical SMILES": "O=C(C=1C=CC=CC1)C=2C=CC=CC2C(=O)C=3C=CC=CC3",
        "Molecular Formula": "C<sub>20</sub>H<sub>14</sub>O<sub>2</sub>",
        "Molecular Mass": "286.32",
        "Melting Point": "148 °C"
    }
}