{
    "cas_no": "7683-59-2",
    "key_name": "Isoproterenol",
    "cn_name": "异丙肾上腺素;4-[(2-异丙氨基-1-羟基)乙基]-1,2-苯二酚;",
    "alternate_name": "1,2-Benzenediol, 4-[1-hydroxy-2-[(1-methylethyl)amino]ethyl]-;Benzyl alcohol, 3,4-dihydroxy-α-[(isopropylamino)methyl]-;4-[1-Hydroxy-2-[(1-methylethyl)amino]ethyl]-1,2-benzenediol;Isoproterenol;Isoprenaline;Isopropylarterenol;Isopropylnoradrenaline;Isopropylnorepinephrine;<em>N</em>-Isopropylnorepinephrine;Aludrine;3,4-Dihydroxy-α-[(isopropylamino)methyl]benzyl alcohol;α-(Isopropylaminomoethyl)protocatechuyl alcohol;Isopropylaminomethyl(3,4-dihydroxyphenyl)carbinol;<em>N</em>-Isopropyl-β-dihydroxyphenyl-β-hydroxyethylamine;<em>N</em>-Isopropylnoradrenaline;Aludrin;Norisodrine;Asiprenol;Asmalar;Lomupren;Isopropydrin;Assiprenol;Respifral;Bellasthman;1-(3,4-Dihydroxyphenyl)-2-(isopropylamino)ethanol;Isoprenalin;ICI 46399;(±)-Isoproterenol;(±)-Isoprenaline;<em>dl</em>-Isoprenaline;Racemic isoprenaline;<em>dl</em>-Isopropylnoradrenaline;<em>dl</em>-<em>N</em>-Isopropylnoradrenaline;<span class=\"text-smallcaps\">DL</span>-Isopropylnorepinephrine;<em>dl</em>-Isadrine;Racemic isoproterenol;<span class=\"text-smallcaps\">DL</span>(±)-Isoproterenol;<span class=\"text-smallcaps\">DL</span>-Isoproterenol;<em>dl</em>-Isoproterenol;Isorenin;Isupren;Epinephrine isopropyl homolog;Vapo-N-Iso;Neo-Epinine;Neodrenal;Isonorin;A 21;NSC 33791;NSC 9975;MeSH ID: D007545",
    "duplicated_cas_no": "149-53-1;46388-38-9",
    "SMILES": "C(CNC(C)C)(O)C1=CC(O)=C(O)C=C1",
    "meta_data": {
        "InChI": "InChI=1S/C11H17NO3/c1-7(2)12-6-11(15)8-3-4-9(13)10(14)5-8/h3-5,7,11-15H,6H2,1-2H3",
        "InChIKey": null,
        "Canonical SMILES": "OC1=CC=C(C=C1O)C(O)CNC(C)C",
        "Molecular Formula": "C<sub>11</sub>H<sub>17</sub>NO<sub>3</sub>",
        "Molecular Mass": "211.26",
        "Melting Point": "170.5 °C",
        "Density": "1.32 g/cm³"
    }
}