{
    "cas_no": "2049-73-2",
    "key_name": "1,3-Diethoxybenzene",
    "cn_name": "二乙氧基苯;",
    "alternate_name": "Benzene, 1,3-diethoxy-;Benzene, <em>m</em>-diethoxy-;1,3-Diethoxybenzene;Resorcinol diethyl ether;<em>m</em>-Diethoxybenzene;NSC 4888;2,4-Diethoxybenzene",
    "duplicated_cas_no": "",
    "SMILES": "O(CC)C1=CC(OCC)=CC=C1",
    "meta_data": {
        "InChI": "InChI=1S/C10H14O2/c1-3-11-9-6-5-7-10(8-9)12-4-2/h5-8H,3-4H2,1-2H3",
        "InChIKey": null,
        "Canonical SMILES": "O(C1=CC=CC(OCC)=C1)CC",
        "Molecular Formula": "C<sub>10</sub>H<sub>14</sub>O<sub>2</sub>",
        "Molecular Mass": "166.22",
        "Boiling Point": "235 °C",
        "Melting Point": "12.4 °C"
    }
}