{
    "cas_no": "59772-49-5",
    "key_name": "2-Bromo-6-chlorobenzenamine",
    "cn_name": null,
    "alternate_name": "Benzenamine, 2-bromo-6-chloro-;2-Bromo-6-chlorobenzenamine;2-Bromo-6-chloroaniline;2-Chloro-6-bromoaniline",
    "duplicated_cas_no": "",
    "SMILES": "NC1=C(Br)C=CC=C1Cl",
    "meta_data": {
        "InChI": "InChI=1S/C6H5BrClN/c7-4-2-1-3-5(8)6(4)9/h1-3H,9H2",
        "InChIKey": null,
        "Canonical SMILES": "ClC1=CC=CC(Br)=C1N",
        "Molecular Formula": "C<sub>6</sub>H<sub>5</sub>BrClN",
        "Molecular Mass": "206.47",
        "Melting Point": "57-58 °C"
    }
}