{
    "cas_no": "13605-66-8",
    "key_name": "1-Chloro-3-(triphenylphosphoranylidene)-2-propanone",
    "cn_name": null,
    "alternate_name": "2-Propanone, 1-chloro-3-(triphenylphosphoranylidene)-;1-Chloro-3-(triphenylphosphoranylidene)-2-propanone;(3-Chloroacetonylidene)triphenylphosphorane;NSC 146374;1-Chloro-3-(triphenylphosphoranylidene)acetone;1-Chloro-3-(triphenyl-λ5-phosphanylidene)propan-2-one;3-Chloro-2-oxopropylidene triphenylphosphorane",
    "duplicated_cas_no": "",
    "SMILES": "P(=CC(CCl)=O)(C1=CC=CC=C1)(C2=CC=CC=C2)C3=CC=CC=C3",
    "meta_data": {
        "InChI": "InChI=1S/C21H18ClOP/c22-16-18(23)17-24(19-10-4-1-5-11-19,20-12-6-2-7-13-20)21-14-8-3-9-15-21/h1-15,17H,16H2",
        "InChIKey": null,
        "Canonical SMILES": "O=C(C=P(C=1C=CC=CC1)(C=2C=CC=CC2)C=3C=CC=CC3)CCl",
        "Molecular Formula": "C<sub>21</sub>H<sub>18</sub>ClOP",
        "Molecular Mass": "352.79",
        "Melting Point": "179-180 °C"
    }
}