{
    "cas_no": "5460-31-1",
    "key_name": "2-Methyl-3-nitrophenol",
    "cn_name": "2-甲基-3-硝基苯酚;2-羟基-6-硝基甲苯;",
    "alternate_name": "Phenol, 2-methyl-3-nitro-;<em>o</em>-Cresol, 3-nitro-;2-Methyl-3-nitrophenol;6-Hydroxy-2-nitrotoluene;3-Nitro-2-methylphenol;3-Nitro-<em>o</em>-cresol;NSC 25009;2-Hydroxy-6-nitrotoluene",
    "duplicated_cas_no": "",
    "SMILES": "N(=O)(=O)C1=C(C)C(O)=CC=C1",
    "meta_data": {
        "InChI": "InChI=1S/C7H7NO3/c1-5-6(8(10)11)3-2-4-7(5)9/h2-4,9H,1H3",
        "InChIKey": null,
        "Canonical SMILES": "O=N(=O)C=1C=CC=C(O)C1C",
        "Molecular Formula": "C<sub>7</sub>H<sub>7</sub>NO<sub>3</sub>",
        "Molecular Mass": "153.14",
        "Melting Point": "69 °C"
    }
}