{
    "cas_no": "112-52-7",
    "key_name": "1-Chlorododecane",
    "cn_name": "1-氯十二烷;氯代十二烷;",
    "alternate_name": "Dodecane, 1-chloro-;1-Chlorododecane;Lauryl chloride;Dodecyl chloride;<em>n</em>-Dodecyl chloride;1-Dodecyl chloride;<em>n</em>-Lauryl chloride;NSC 57107",
    "duplicated_cas_no": "",
    "SMILES": "C(CCCCCC)CCCCCCl",
    "meta_data": {
        "InChI": "InChI=1S/C12H25Cl/c1-2-3-4-5-6-7-8-9-10-11-12-13/h2-12H2,1H3",
        "InChIKey": null,
        "Canonical SMILES": "ClCCCCCCCCCCCC",
        "Molecular Formula": "C<sub>12</sub>H<sub>25</sub>Cl",
        "Molecular Mass": "204.78",
        "Boiling Point": "260 °C",
        "Melting Point": "-9.3 °C",
        "Density": "0.8673 g/cm³ @ Temp: 22 °C"
    }
}