{
    "cas_no": "629-82-3",
    "key_name": "Octyl ether",
    "cn_name": "正辛基醚;二辛醚;正辛醚;二辛基醚;二辛烷醚;辛醚;",
    "alternate_name": "Octane, 1,1′-oxybis-;Octyl ether;1,1′-Oxybis[octane];Antar;Caprylic ether;Dioctyl ether;<em>n</em>-Octyl ether;Di-<em>n</em>-octyl ether;Bis(1-octyl) ether;Cetiol OE;Dicaprylyl ether;NSC 28948;Cosmacol OE;1-Octoxyoctane;Jarether D 8;Cetiol OE-DEO",
    "duplicated_cas_no": "1166299-58-6",
    "SMILES": "O(CCCCCCCC)CCCCCCCC",
    "meta_data": {
        "InChI": "InChI=1S/C16H34O/c1-3-5-7-9-11-13-15-17-16-14-12-10-8-6-4-2/h3-16H2,1-2H3",
        "InChIKey": null,
        "Canonical SMILES": "O(CCCCCCCC)CCCCCCCC",
        "Molecular Formula": "C<sub>16</sub>H<sub>34</sub>O",
        "Molecular Mass": "242.44",
        "Boiling Point": "283 °C",
        "Melting Point": "-7.6 °C",
        "Density": "0.807 g/cm³ @ Temp: 15 °C"
    }
}