{
    "cas_no": "108-37-2",
    "key_name": "1-Bromo-3-chlorobenzene",
    "cn_name": "3-溴氯苯;3-氯-1-溴苯;1-溴-3-氯苯;间氯溴苯;",
    "alternate_name": "Benzene, 1-bromo-3-chloro-;1-Bromo-3-chlorobenzene;<em>m</em>-Chlorobromobenzene;1-Chloro-3-bromobenzene;<em>m</em>-Bromochlorobenzene;3-Bromochlorobenzene;3-Chlorobromobenzene;<em>m</em>-Chlorophenyl bromide;3-Chlorophenyl bromide;<em>m</em>-Bromophenyl chloride;3-Bromo-1-chlorobenzene;m-Bromochlorobenzene;NSC 53548;3-Chloro-1-bromobenzene;3-Bromophenyl chloride",
    "duplicated_cas_no": "",
    "SMILES": "BrC1=CC(Cl)=CC=C1",
    "meta_data": {
        "InChI": "InChI=1S/C6H4BrCl/c7-5-2-1-3-6(8)4-5/h1-4H",
        "InChIKey": null,
        "Canonical SMILES": "ClC1=CC=CC(Br)=C1",
        "Molecular Formula": "C<sub>6</sub>H<sub>4</sub>BrCl",
        "Molecular Mass": "191.45",
        "Boiling Point": "196 °C",
        "Melting Point": "-21.5 °C",
        "Density": "1.63844 g/cm³ @ Temp: 15.00 °C"
    }
}