{
    "cas_no": "3223-07-2",
    "key_name": "Melphalan hydrochloride",
    "cn_name": null,
    "alternate_name": "<span class=\"text-smallcaps\">L</span>-Phenylalanine, 4-[bis(2-chloroethyl)amino]-, hydrochloride (1:1);Alanine, 3-[<em>p</em>-[bis(2-chloroethyl)amino]phenyl]-, monohydrochloride, <span class=\"text-smallcaps\">L</span>-;<span class=\"text-smallcaps\">L</span>-Phenylalanine, 4-[bis(2-chloroethyl)amino]-, monohydrochloride;Melphalan hydrochloride;4-Bis(2-chloroethyl)amino-<span class=\"text-smallcaps\">L</span>-phenylalanine hydrochloride;Phelinun",
    "duplicated_cas_no": "",
    "SMILES": "N(CCCl)(CCCl)C1=CC=C(C[C@@H](C(O)=O)N)C=C1.Cl",
    "meta_data": {
        "InChI": "InChI=1S/C13H18Cl2N2O2.ClH/c14-5-7-17(8-6-15)11-3-1-10(2-4-11)9-12(16)13(18)19;/h1-4,12H,5-9,16H2,(H,18,19);1H/t12-;/m0./s1",
        "InChIKey": null,
        "Canonical SMILES": "Cl.O=C(O)C(N)CC1=CC=C(C=C1)N(CCCl)CCCl",
        "Molecular Formula": "C<sub>13</sub>H<sub>18</sub>Cl<sub>2</sub>N<sub>2</sub>O<sub>2</sub>.ClH",
        "Molecular Mass": "",
        "Melting Point": "175-178 °C"
    }
}