{
    "cas_no": "455-38-9",
    "key_name": "3-Fluorobenzoic acid",
    "cn_name": "间氟苯甲酸;3-氟苯甲酸;",
    "alternate_name": "Benzoic acid, 3-fluoro-;Benzoic acid, <em>m</em>-fluoro-;3-Fluorobenzoic acid;<em>m</em>-Fluorobenzoic acid;NSC 10320;NSC 176125",
    "duplicated_cas_no": "",
    "SMILES": "C(O)(=O)C1=CC(F)=CC=C1",
    "meta_data": {
        "InChI": "InChI=1S/C7H5FO2/c8-6-3-1-2-5(4-6)7(9)10/h1-4H,(H,9,10)",
        "InChIKey": null,
        "Canonical SMILES": "O=C(O)C=1C=CC=C(F)C1",
        "Molecular Formula": "C<sub>7</sub>H<sub>5</sub>FO<sub>2</sub>",
        "Molecular Mass": "140.11",
        "Melting Point": "124 °C"
    }
}