{
    "cas_no": "5371-52-8",
    "key_name": "2-Hydroxytetrahydrofuran",
    "cn_name": "2-羟基四氢呋喃;",
    "alternate_name": "2-Furanol, tetrahydro-;Tetrahydro-2-furanol;α-Hydroxytetrahydrofuran;2-Hydroxytetrahydrofuran;Tetrahydro-2-hydroxyfuran",
    "duplicated_cas_no": "118333-00-9",
    "SMILES": "OC1CCCO1",
    "meta_data": {
        "InChI": "InChI=1S/C4H8O2/c5-4-2-1-3-6-4/h4-5H,1-3H2",
        "InChIKey": null,
        "Canonical SMILES": "OC1OCCC1",
        "Molecular Formula": "C<sub>4</sub>H<sub>8</sub>O<sub>2</sub>",
        "Molecular Mass": "88.11",
        "Boiling Point": "69-70 °C @ Press: 12 Torr",
        "Density": "1.084 g/cm³"
    }
}