{
    "cas_no": "22259-53-6",
    "key_name": "Indole-3-methanamine",
    "cn_name": null,
    "alternate_name": "1<em>H</em>-Indole-3-methanamine;Indole, 3-(aminomethyl)-;3-(Aminomethyl)indole;Indole-3-methanamine;3-Indoylmethanamine;1-(1<em>H</em>-Indol-3-yl)methanamine;1<em>H</em>-Indol-3-ylmethanamine;1<em>H</em>-Indol-3-ylmethylamine",
    "duplicated_cas_no": "",
    "SMILES": "C(N)C=1C=2C(NC1)=CC=CC2",
    "meta_data": {
        "InChI": "InChI=1S/C9H10N2/c10-5-7-6-11-9-4-2-1-3-8(7)9/h1-4,6,11H,5,10H2",
        "InChIKey": null,
        "Canonical SMILES": "NCC1=CNC=2C=CC=CC21",
        "Molecular Formula": "C<sub>9</sub>H<sub>10</sub>N<sub>2</sub>",
        "Molecular Mass": "146.19",
        "Melting Point": "84 °C"
    }
}