{
    "cas_no": "24823-81-2",
    "key_name": "1,1,1-Trimethoxypropane",
    "cn_name": "原丙酸三甲酯;",
    "alternate_name": "Propane, 1,1,1-trimethoxy-;Orthopropionic acid, trimethyl ester;1,1,1-Trimethoxypropane;Trimethyl orthopropionate;Trimethyl orthopropanoate",
    "duplicated_cas_no": "",
    "SMILES": "C(CC)(OC)(OC)OC",
    "meta_data": {
        "InChI": "InChI=1S/C6H14O3/c1-5-6(7-2,8-3)9-4/h5H2,1-4H3",
        "InChIKey": null,
        "Canonical SMILES": "O(C)C(OC)(OC)CC",
        "Molecular Formula": "C<sub>6</sub>H<sub>14</sub>O<sub>3</sub>",
        "Molecular Mass": "134.17",
        "Boiling Point": "85 °C @ Press: 23 Torr"
    }
}