{
    "cas_no": "522-00-9",
    "key_name": "(±)-Ethopropazine",
    "cn_name": "乙丙嗪;乙丙嗪;",
    "alternate_name": "10<em>H</em>-Phenothiazine-10-ethanamine, <em>N</em>,<em>N</em>-diethyl-α-methyl-;Phenothiazine, 10-[2-(diethylamino)propyl]-;Prophenamine;<em>N</em>,<em>N</em>-Diethyl-α-methyl-10<em>H</em>-phenothiazine-10-ethanamine;SC 2538;RP 3356;2-Diethylamino-1-propyl-<em>N</em>-dibenzoparathiazine;10-(2-Diethylaminopropyl)phenothiazine;Ethopropazine;Phenopropazine;Profenamine;Ethopromazine;Isothazine;Parsidol;10-(2-Diethylamino-1-propyl)phenothiazine;10-(2-Diethylamino-2-methylethyl)phenothiazine;Parkin;Isothiazine;W 483;Ethapropazine;(±)-Ethopropazine;(±)-Profenamine;Isopthazine;<em>N</em>,<em>N</em>-Diethyl-1-(10<em>H</em>-phenothiazin-10-yl)-2-propanamine;Parkin (pharmaceutical)",
    "duplicated_cas_no": "115016-98-3;37342-22-6",
    "SMILES": "C(C(N(CC)CC)C)N1C=2C(SC=3C1=CC=CC3)=CC=CC2",
    "meta_data": {
        "InChI": "InChI=1S/C19H24N2S/c1-4-20(5-2)15(3)14-21-16-10-6-8-12-18(16)22-19-13-9-7-11-17(19)21/h6-13,15H,4-5,14H2,1-3H3",
        "InChIKey": null,
        "Canonical SMILES": "S1C=2C=CC=CC2N(C=3C=CC=CC13)CC(N(CC)CC)C",
        "Molecular Formula": "C<sub>19</sub>H<sub>24</sub>N<sub>2</sub>S",
        "Molecular Mass": "312.47",
        "Boiling Point": "190-193 °C @ Press: 0.5 Torr",
        "Melting Point": "64.5 °C"
    }
}