{
    "cas_no": "54024-22-5",
    "key_name": "Desogestrel",
    "cn_name": "去氧孕烯;13-乙基-11-亚甲基-18,19-双失碳孕甾-4-烯-20-炔基-17-醇;",
    "alternate_name": "18,19-Dinorpregn-4-en-20-yn-17-ol, 13-ethyl-11-methylene-, (17α)-;(17α)-13-Ethyl-11-methylene-18,19-dinorpregn-4-en-20-yn-17-ol;17-Ethynyl-18-methyl-11-methyleneestr-4-en-17β-ol;Org 2969;13-Ethyl-11-methylene-18,19-dinor-17α-4-pregnen-20-yn-17-ol;Desogestrel;Cerazette;Dicromil;Cyclosa;Marvelon 150/320;(+)-Desogestrel;(+)-13β-Ethyl-17α-ethynyl-11-methylenegon-4-en-17β-ol;MeSH ID: D017135",
    "duplicated_cas_no": "",
    "SMILES": "C(C)[C@@]12[C@]([C@]3([C@](C(=C)C1)([C@@]4(C(CC3)=CCCC4)[H])[H])[H])(CC[C@]2(C#C)O)[H]",
    "meta_data": {
        "InChI": "InChI=1S/C22H30O/c1-4-21-14-15(3)20-17-9-7-6-8-16(17)10-11-18(20)19(21)12-13-22(21,23)5-2/h2,8,17-20,23H,3-4,6-7,9-14H2,1H3/t17-,18-,19-,20+,21-,22-/m0/s1",
        "InChIKey": null,
        "Canonical SMILES": "C#CC1(O)CCC2C3CCC4=CCCCC4C3C(=C)CC21CC",
        "Molecular Formula": "C<sub>22</sub>H<sub>30</sub>O",
        "Molecular Mass": "310.47",
        "Melting Point": "109-110 °C"
    }
}