{
    "cas_no": "107-15-3",
    "key_name": "Ethylenediamine",
    "cn_name": "乙二胺;1,2-乙二胺;1,2-二氨基乙烷;",
    "alternate_name": "1,2-Ethanediamine;Ethylenediamine;1,2-Diaminoethane;Dimethylenediamine;1,2-Ethylenediamine;β-Aminoethylamine;1,4-Diazabutane;Edamine;α,ω-Ethanediamine;(2-Aminoethyl)amine;LR 500G;PB 05721;EDA;E 0077",
    "duplicated_cas_no": "8030-24-8;85404-18-8",
    "SMILES": "C(CN)N",
    "meta_data": {
        "InChI": "InChI=1S/C2H8N2/c3-1-2-4/h1-4H2",
        "InChIKey": null,
        "Canonical SMILES": "NCCN",
        "Molecular Formula": "C<sub>2</sub>H<sub>8</sub>N<sub>2</sub>",
        "Molecular Mass": "60.10",
        "Boiling Point": "116-117 °C",
        "Melting Point": "8.5 °C",
        "Density": "0.898 g/cm³ @ Temp: 25 °C"
    }
}