{
    "cas_no": "530-43-8",
    "key_name": "Chloramphenicol palmitate",
    "cn_name": "氯霉素棕榈酸酯;棕榈酸氯霉素;(2R,3R)-2-[(2,2-二氯乙酰基)氨基]-3-羟基-3-(4-硝基苯基)丙基棕榈酸酯;",
    "alternate_name": "Hexadecanoic acid, (2<em>R</em>,3<em>R</em>)-2-[(2,2-dichloroacetyl)amino]-3-hydroxy-3-(4-nitrophenyl)propyl ester;Palmitic acid, α-ester with <span class=\"text-smallcaps\">D</span>-<em>threo</em>-(-)-2,2-dichloro-<em>N</em>-[β-hydroxy-α-(hydroxymethyl)-<em>p</em>-nitrophenethyl]acetamide;Hexadecanoic acid, 2-[(dichloroacetyl)amino]-3-hydroxy-3-(4-nitrophenyl)propyl ester, [<em>R</em>-(<em>R</em>*,<em>R</em>*)]-;Palmitic acid, ester with chloramphenicol;Hexadecanoic acid, (2<em>R</em>,3<em>R</em>)-2-[(dichloroacetyl)amino]-3-hydroxy-3-(4-nitrophenyl)propyl ester;Acetamide, 2,2-dichloro-<em>N</em>-[β-hydroxy-α-(hydroxymethyl)-<em>p</em>-nitrophenethyl]-, α-palmitate, <span class=\"text-smallcaps\">D</span>-<em>threo</em>-;Chloramphenicol palmitate;Chloramphenicol palmitate (ester);<span class=\"text-smallcaps\">D</span>-(-)-Chloramphenicol palmitate;Detreopal;Chloramphenicol monopalmitate (ester);Chloramphenicol monopalmitate;Chloromycetin palmitate;Chloramphenicol α-palmitate;Clorolifarina;Chlorambon;Chloropal",
    "duplicated_cas_no": "27380-50-3;52136-72-8;74283-44-6",
    "SMILES": "[C@@H]([C@@H](COC(CCCCCCCCCCCCCCC)=O)NC(C(Cl)Cl)=O)(O)C1=CC=C(N(=O)=O)C=C1",
    "meta_data": {
        "InChI": "InChI=1S/C27H42Cl2N2O6/c1-2-3-4-5-6-7-8-9-10-11-12-13-14-15-24(32)37-20-23(30-27(34)26(28)29)25(33)21-16-18-22(19-17-21)31(35)36/h16-19,23,25-26,33H,2-15,20H2,1H3,(H,30,34)/t23-,25-/m1/s1",
        "InChIKey": null,
        "Canonical SMILES": "O=C(OCC(NC(=O)C(Cl)Cl)C(O)C1=CC=C(C=C1)N(=O)=O)CCCCCCCCCCCCCCC",
        "Molecular Formula": "C<sub>27</sub>H<sub>42</sub>Cl<sub>2</sub>N<sub>2</sub>O<sub>6</sub>",
        "Molecular Mass": "561.54",
        "Melting Point": "90 °C"
    }
}