{
    "cas_no": "162401-62-9",
    "key_name": "3-Cyclopropylmethoxy-4-difluoromethoxybenzoic acid",
    "cn_name": null,
    "alternate_name": "Benzoic acid, 3-(cyclopropylmethoxy)-4-(difluoromethoxy)-;3-(Cyclopropylmethoxy)-4-(difluoromethoxy)benzoic acid;3-Cyclopropylmethoxy-4-difluoromethoxybenzoic acid",
    "duplicated_cas_no": "",
    "SMILES": "O(CC1CC1)C2=C(OC(F)F)C=CC(C(O)=O)=C2",
    "meta_data": {
        "InChI": "InChI=1S/C12H12F2O4/c13-12(14)18-9-4-3-8(11(15)16)5-10(9)17-6-7-1-2-7/h3-5,7,12H,1-2,6H2,(H,15,16)",
        "InChIKey": null,
        "Canonical SMILES": "O=C(O)C1=CC=C(OC(F)F)C(OCC2CC2)=C1",
        "Molecular Formula": "C<sub>12</sub>H<sub>12</sub>F<sub>2</sub>O<sub>4</sub>",
        "Molecular Mass": "258.22",
        "Melting Point": "119-119.5 °C"
    }
}