{
    "cas_no": "14113-01-0",
    "key_name": "1-Ethyl octanedioate",
    "cn_name": "辛二酸氢乙酯;",
    "alternate_name": "Octanedioic acid, 1-ethyl ester;Suberic acid, monoethyl ester;Octanedioic acid, monoethyl ester;Suberic acid, ethyl ester;1-Ethyl octanedioate;Monoethyl suberate;Ethyl hydrogen suberate",
    "duplicated_cas_no": "",
    "SMILES": "C(CCCCCC(O)=O)C(OCC)=O",
    "meta_data": {
        "InChI": "InChI=1S/C10H18O4/c1-2-14-10(13)8-6-4-3-5-7-9(11)12/h2-8H2,1H3,(H,11,12)",
        "InChIKey": null,
        "Canonical SMILES": "O=C(O)CCCCCCC(=O)OCC",
        "Molecular Formula": "C<sub>10</sub>H<sub>18</sub>O<sub>4</sub>",
        "Molecular Mass": "202.25",
        "Boiling Point": "192 °C @ Press: 17 Torr",
        "Melting Point": "25 °C",
        "Density": "0.9807 g/cm³ @ Temp: 20 °C"
    }
}