{
    "cas_no": "625-98-9",
    "key_name": "1-Chloro-3-fluorobenzene",
    "cn_name": "3-氯氟苯;间氯氟苯;3-氟氯苯;间氟氯苯;",
    "alternate_name": "Benzene, 1-chloro-3-fluoro-;1-Chloro-3-fluorobenzene;1-Fluoro-3-chlorobenzene;3-Chlorofluorobenzene;<em>m</em>-Fluorochlorobenzene;<em>m</em>-Chlorofluorobenzene;3-Fluorochlorobenzene;3-Fluoro-1-chlorobenzene;<em>m</em>-Monofluoromonochlorobenzene;3-Chloro-1-fluorobenzene;NSC 10271;3-Fluorophenyl chloride",
    "duplicated_cas_no": "",
    "SMILES": "ClC1=CC(F)=CC=C1",
    "meta_data": {
        "InChI": "InChI=1S/C6H4ClF/c7-5-2-1-3-6(8)4-5/h1-4H",
        "InChIKey": null,
        "Canonical SMILES": "FC1=CC=CC(Cl)=C1",
        "Molecular Formula": "C<sub>6</sub>H<sub>4</sub>ClF",
        "Molecular Mass": "130.55",
        "Boiling Point": "127.6 °C",
        "Melting Point": "&lt;-78 °C",
        "Density": "1.221 g/cm³ @ Temp: 25 °C"
    }
}