{
    "cas_no": "4350-41-8",
    "key_name": "2-[(4-Chlorophenyl)methyl]pyridine",
    "cn_name": "2-对氯苄基吡啶;",
    "alternate_name": "Pyridine, 2-[(4-chlorophenyl)methyl]-;Pyridine, 2-(<em>p</em>-chlorobenzyl)-;2-[(4-Chlorophenyl)methyl]pyridine;2-(4-Chlorobenzyl)pyridine;2-(<em>p</em>-Chlorobenzyl)pyridine",
    "duplicated_cas_no": "",
    "SMILES": "C(C1=CC=C(Cl)C=C1)C2=CC=CC=N2",
    "meta_data": {
        "InChI": "InChI=1S/C12H10ClN/c13-11-6-4-10(5-7-11)9-12-3-1-2-8-14-12/h1-8H,9H2",
        "InChIKey": null,
        "Canonical SMILES": "ClC1=CC=C(C=C1)CC2=NC=CC=C2",
        "Molecular Formula": "C<sub>12</sub>H<sub>10</sub>ClN",
        "Molecular Mass": "203.67",
        "Boiling Point": "108-111 °C @ Press: 0.5 Torr"
    }
}