{
    "cas_no": "700-49-2",
    "key_name": "2-Fluoroadenine",
    "cn_name": "2-氟-6-氨基嘌呤;2-氟腺嘌呤;",
    "alternate_name": "9<em>H</em>-Purin-6-amine, 2-fluoro-;Adenine, 2-fluoro-;1<em>H</em>-Purin-6-amine, 2-fluoro-;2-Fluoro-9<em>H</em>-purin-6-amine;2-Fluoro-6-aminopurine;2-Fluoroadenine;NSC 27364;2-Fluoro-1<em>H</em>-purin-6-amine;2-Fluoro-7<em>H</em>-purin-6-amine",
    "duplicated_cas_no": "18916-91-1",
    "SMILES": "NC1=C2C(=NC(F)=N1)N=CN2",
    "meta_data": {
        "InChI": "InChI=1S/C5H4FN5/c6-5-10-3(7)2-4(11-5)9-1-8-2/h1H,(H3,7,8,9,10,11)",
        "InChIKey": null,
        "Canonical SMILES": "FC1=NC=2N=CNC2C(=N1)N",
        "Molecular Formula": "C<sub>5</sub>H<sub>4</sub>FN<sub>5</sub>",
        "Molecular Mass": "153.12",
        "Melting Point": "&gt;350 °C (decomp)"
    }
}