{
    "cas_no": "705-60-2",
    "key_name": "1-Phenyl-2-nitropropene",
    "cn_name": "1-苯基-2-硝基丙烯;",
    "alternate_name": "Benzene, (2-nitro-1-propen-1-yl)-;Benzene, (2-nitropropenyl)-;Benzene, (2-nitro-1-propenyl)-;(2-Nitro-1-propen-1-yl)benzene;(2-Nitropropenyl)benzene;β-Methyl-β-nitrostyrene;1-Phenyl-2-nitro-2-methylethene;1-Phenyl-2-nitro-1-propene;2-Nitro-1-phenyl-1-propene;1-Phenyl-2-nitropropene;2-Nitro-1-phenylpropene;(2-Nitro-1-propenyl)benzene;2-Nitro-3-phenyl-2-propene;NSC 2014;1-(2-Nitropropenyl)benzene;1-(2-Nitroprop-1-enyl)benzene;<em>trans</em>-β-Methyl nitrostyrene",
    "duplicated_cas_no": "",
    "SMILES": "C(=C(N(=O)=O)C)C1=CC=CC=C1",
    "meta_data": {
        "InChI": "InChI=1S/C9H9NO2/c1-8(10(11)12)7-9-5-3-2-4-6-9/h2-7H,1H3",
        "InChIKey": null,
        "Canonical SMILES": "O=N(=O)C(=CC=1C=CC=CC1)C",
        "Molecular Formula": "C<sub>9</sub>H<sub>9</sub>NO<sub>2</sub>",
        "Molecular Mass": "163.17",
        "Melting Point": "65-66 °C"
    }
}