{
    "cas_no": "14847-51-9",
    "key_name": "2-Bromo-5-methylphenol",
    "cn_name": null,
    "alternate_name": "Phenol, 2-bromo-5-methyl-;<em>m</em>-Cresol, 6-bromo-;2-Bromo-5-methylphenol;6-Bromo-<em>m</em>-cresol;6-Bromo-3-methylphenol;NSC 21719",
    "duplicated_cas_no": "1301268-32-5",
    "SMILES": "OC1=C(Br)C=CC(C)=C1",
    "meta_data": {
        "InChI": "InChI=1S/C7H7BrO/c1-5-2-3-6(8)7(9)4-5/h2-4,9H,1H3",
        "InChIKey": null,
        "Canonical SMILES": "BrC1=CC=C(C=C1O)C",
        "Molecular Formula": "C<sub>7</sub>H<sub>7</sub>BrO",
        "Molecular Mass": "187.03",
        "Boiling Point": "206-208 °C @ Press: 731 Torr",
        "Melting Point": "62 °C"
    }
}