{
    "cas_no": "29558-78-9",
    "key_name": "4-Hydroxy-4′-iodobiphenyl",
    "cn_name": "4-羟基-4\"-碘联苯, 98+%;",
    "alternate_name": "[1,1′-Biphenyl]-4-ol, 4′-iodo-;4-Biphenylol, 4′-iodo-;4′-Iodo[1,1′-biphenyl]-4-ol;4′-Iodo-4-biphenylol;4-Hydroxy-4′-iodobiphenyl;4′-Iodo-1,1′-biphenyl-4-ol",
    "duplicated_cas_no": "",
    "SMILES": "IC1=CC=C(C=C1)C2=CC=C(O)C=C2",
    "meta_data": {
        "InChI": "InChI=1S/C12H9IO/c13-11-5-1-9(2-6-11)10-3-7-12(14)8-4-10/h1-8,14H",
        "InChIKey": null,
        "Canonical SMILES": "IC=1C=CC(=CC1)C2=CC=C(O)C=C2",
        "Molecular Formula": "C<sub>12</sub>H<sub>9</sub>IO",
        "Molecular Mass": "296.10",
        "Melting Point": "194 °C"
    }
}