{
    "cas_no": "595-46-0",
    "key_name": "Dimethylmalonic acid",
    "cn_name": "二甲基丙二酸;",
    "alternate_name": "Propanedioic acid, 2,2-dimethyl-;Malonic acid, dimethyl-;Propanedioic acid, dimethyl-;2,2-Dimethylpropanedioic acid;2,2-Propanedicarboxylic acid;Dimethylmalonic acid;Dimethylpropanedioic acid;NSC 836",
    "duplicated_cas_no": "",
    "SMILES": "C(C(O)=O)(C(O)=O)(C)C",
    "meta_data": {
        "InChI": "InChI=1S/C5H8O4/c1-5(2,3(6)7)4(8)9/h1-2H3,(H,6,7)(H,8,9)",
        "InChIKey": null,
        "Canonical SMILES": "O=C(O)C(C(=O)O)(C)C",
        "Molecular Formula": "C<sub>5</sub>H<sub>8</sub>O<sub>4</sub>",
        "Molecular Mass": "132.11",
        "Boiling Point": "172-178 °C @ Press: 0.2 Torr",
        "Melting Point": "192 °C (decomp)"
    }
}