{
    "cas_no": "858-46-8",
    "key_name": "2,4,6-Tris(1,1,2,2,2-pentafluoroethyl)-1,3,5-triazine",
    "cn_name": "2,4,6-三(全氟乙基)-1,3,5-三嗪;",
    "alternate_name": "1,3,5-Triazine, 2,4,6-tris(1,1,2,2,2-pentafluoroethyl)-;<em>s</em>-Triazine, 2,4,6-tris(pentafluoroethyl)-;1,3,5-Triazine, 2,4,6-tris(pentafluoroethyl)-;2,4,6-Tris(1,1,2,2,2-pentafluoroethyl)-1,3,5-triazine",
    "duplicated_cas_no": "",
    "SMILES": "C(C(F)(F)F)(F)(F)C=1N=C(C(C(F)(F)F)(F)F)N=C(C(C(F)(F)F)(F)F)N1",
    "meta_data": {
        "InChI": "InChI=1S/C9F15N3/c10-4(11,7(16,17)18)1-25-2(5(12,13)8(19,20)21)27-3(26-1)6(14,15)9(22,23)24",
        "InChIKey": null,
        "Canonical SMILES": "FC(F)(F)C(F)(F)C=1N=C(N=C(N1)C(F)(F)C(F)(F)F)C(F)(F)C(F)(F)F",
        "Molecular Formula": "C<sub>9</sub>F<sub>15</sub>N<sub>3</sub>",
        "Molecular Mass": "435.09",
        "Boiling Point": "121-122 °C",
        "Density": "1.651 g/cm³ @ Temp: 25 °C"
    }
}