{
    "cas_no": "99105-77-8",
    "key_name": "Sulcotrione",
    "cn_name": "磺草酮;2-(2-氯-4-甲砜基)苯甲酰基-1,3-环己二酮;",
    "alternate_name": "1,3-Cyclohexanedione, 2-[2-chloro-4-(methylsulfonyl)benzoyl]-;2-[2-Chloro-4-(methylsulfonyl)benzoyl]-1,3-cyclohexanedione;ICI-A 0051;SC 0051;Sulcotrione;Mikado;Chlormesulone",
    "duplicated_cas_no": "114680-61-4;123174-48-1",
    "SMILES": "C(=O)(C1=C(Cl)C=C(S(C)(=O)=O)C=C1)C2C(=O)CCCC2=O",
    "meta_data": {
        "InChI": "InChI=1S/C14H13ClO5S/c1-21(19,20)8-5-6-9(10(15)7-8)14(18)13-11(16)3-2-4-12(13)17/h5-7,13H,2-4H2,1H3",
        "InChIKey": null,
        "Canonical SMILES": "O=C(C1=CC=C(C=C1Cl)S(=O)(=O)C)C2C(=O)CCCC2=O",
        "Molecular Formula": "C<sub>14</sub>H<sub>13</sub>ClO<sub>5</sub>S",
        "Molecular Mass": "328.77",
        "Melting Point": "139 °C"
    }
}