{
    "cas_no": "41825-73-4",
    "key_name": "2-Bromo-4,6-dimethylbenzenamine",
    "cn_name": null,
    "alternate_name": "Benzenamine, 2-bromo-4,6-dimethyl-;2,4-Xylidine, 6-bromo-;2-Bromo-4,6-dimethylbenzenamine;6-Bromo-2,4-xylidine;2-Bromo-4,6-dimethylaniline;NSC 159243;NSC 99447",
    "duplicated_cas_no": "",
    "SMILES": "NC1=C(Br)C=C(C)C=C1C",
    "meta_data": {
        "InChI": "InChI=1S/C8H10BrN/c1-5-3-6(2)8(10)7(9)4-5/h3-4H,10H2,1-2H3",
        "InChIKey": null,
        "Canonical SMILES": "BrC=1C=C(C=C(C1N)C)C",
        "Molecular Formula": "C<sub>8</sub>H<sub>10</sub>BrN",
        "Molecular Mass": "200.08",
        "Melting Point": "49-50 °C"
    }
}