{
    "cas_no": "303-26-4",
    "key_name": "Norchlorcyclizine",
    "cn_name": "1-(4-氯二苯甲基)哌嗪;",
    "alternate_name": "Piperazine, 1-[(4-chlorophenyl)phenylmethyl]-;Piperazine, 1-(<em>p</em>-chloro-α-phenylbenzyl)-;1-[(4-Chlorophenyl)phenylmethyl]piperazine;Norchlorcyclizine;<em>N</em>-(<em>p</em>-Chlorobenzhydryl)piperazine;4-(4-Chlorobenzhydryl)piperazine;1-(4-Chloro-α-phenylbenzyl)piperazine;1-(α-Phenyl-4-chlorobenzyl)piperazine;1-(4-Chlorobenzhydryl)piperazine;<em>N</em>-(4-Chlorophenyl)phenylmethylpiperazine;NSC 86164;<em>N</em>-(4-Chlorobenzhydryl)piperazine;(±)-1-(<em>p</em>-Chlorobenzhydryl)piperazine",
    "duplicated_cas_no": "120950-34-7;130018-84-7",
    "SMILES": "C(C1=CC=C(Cl)C=C1)(C2=CC=CC=C2)N3CCNCC3",
    "meta_data": {
        "InChI": "InChI=1S/C17H19ClN2/c18-16-8-6-15(7-9-16)17(14-4-2-1-3-5-14)20-12-10-19-11-13-20/h1-9,17,19H,10-13H2",
        "InChIKey": null,
        "Canonical SMILES": "ClC1=CC=C(C=C1)C(C=2C=CC=CC2)N3CCNCC3",
        "Molecular Formula": "C<sub>17</sub>H<sub>19</sub>ClN<sub>2</sub>",
        "Molecular Mass": "286.80",
        "Boiling Point": "175-180 °C @ Press: 1 Torr",
        "Melting Point": "63-65 °C"
    }
}