{
    "cas_no": "119-80-2",
    "key_name": "2,2′-Dithiodibenzoic acid",
    "cn_name": "2,2\"-二硫代二苯甲酸;",
    "alternate_name": "Benzoic acid, 2,2′-dithiobis-;Benzoic acid, 2,2′-dithiodi-;Benzoic acid, <em>o</em>,<em>o</em>′-dithiobis-;2,2′-Dithiobis[benzoic acid];Bis(2-carboxyphenyl) disulfide;Diphenyl disulfide-2,2′-dicarboxylic acid;Bis(<em>o</em>-carboxylphenyl) disulfide;2,2′-Dithiodibenzoic acid;Dithiosalicylic acid;NSC 405662;NSC 213;NSC 5346;NSC 633230;2-[(2-Carboxyphenyl)disulfanyl]benzoic acid",
    "duplicated_cas_no": "",
    "SMILES": "S(SC1=C(C(O)=O)C=CC=C1)C2=C(C(O)=O)C=CC=C2",
    "meta_data": {
        "InChI": "InChI=1S/C14H10O4S2/c15-13(16)9-5-1-3-7-11(9)19-20-12-8-4-2-6-10(12)14(17)18/h1-8H,(H,15,16)(H,17,18)",
        "InChIKey": null,
        "Canonical SMILES": "O=C(O)C=1C=CC=CC1SSC=2C=CC=CC2C(=O)O",
        "Molecular Formula": "C<sub>14</sub>H<sub>10</sub>O<sub>4</sub>S<sub>2</sub>",
        "Molecular Mass": "306.36",
        "Melting Point": "289 °C"
    }
}