{
    "cas_no": "637-44-5",
    "key_name": "Phenylpropiolic acid",
    "cn_name": "苯丙炔酸;",
    "alternate_name": "2-Propynoic acid, 3-phenyl-;Propiolic acid, phenyl-;3-Phenyl-2-propynoic acid;Phenylpropiolic acid;3-Phenylpropiolic acid;Phenylacetylenemonocarboxylic acid;3-Phenylpropynoic acid;Phenylpropynoic acid;Phenylacetylenecarboxylic acid;β-Phenylpropargylic acid;3-Phenylpropargylic acid;NSC 13669;Phenyl-2-propynoic acid;Phenylpropargylic acid;Benzenepropynoic acid;4-Phenylpropynoic acid",
    "duplicated_cas_no": "",
    "SMILES": "C(#CC(O)=O)C1=CC=CC=C1",
    "meta_data": {
        "InChI": "InChI=1S/C9H6O2/c10-9(11)7-6-8-4-2-1-3-5-8/h1-5H,(H,10,11)",
        "InChIKey": null,
        "Canonical SMILES": "O=C(O)C#CC=1C=CC=CC1",
        "Molecular Formula": "C<sub>9</sub>H<sub>6</sub>O<sub>2</sub>",
        "Molecular Mass": "146.14",
        "Melting Point": "138 °C"
    }
}