{
    "cas_no": "4351-54-6",
    "key_name": "Cyclohexyl formate",
    "cn_name": "甲酸环己酯;",
    "alternate_name": "Formic acid, cyclohexyl ester;Cyclohexanol, formate;Cyclohexyl formate;NSC 11766",
    "duplicated_cas_no": "",
    "SMILES": "O(C=O)C1CCCCC1",
    "meta_data": {
        "InChI": "InChI=1S/C7H12O2/c8-6-9-7-4-2-1-3-5-7/h6-7H,1-5H2",
        "InChIKey": null,
        "Canonical SMILES": "O=COC1CCCCC1",
        "Molecular Formula": "C<sub>7</sub>H<sub>12</sub>O<sub>2</sub>",
        "Molecular Mass": "128.17",
        "Boiling Point": "163 °C",
        "Melting Point": "72.6 °C"
    }
}