{
    "cas_no": "367-30-6",
    "key_name": "2,5-Difluoroaniline",
    "cn_name": "2,5-二氟苯胺;",
    "alternate_name": "Benzenamine, 2,5-difluoro-;Aniline, 2,5-difluoro-;2,5-Difluorobenzenamine;2,5-Difluoroaniline;NSC 3259;2,5-Difluorophenylamine",
    "duplicated_cas_no": "",
    "SMILES": "NC1=C(F)C=CC(F)=C1",
    "meta_data": {
        "InChI": "InChI=1S/C6H5F2N/c7-4-1-2-5(8)6(9)3-4/h1-3H,9H2",
        "InChIKey": null,
        "Canonical SMILES": "FC1=CC=C(F)C(N)=C1",
        "Molecular Formula": "C<sub>6</sub>H<sub>5</sub>F<sub>2</sub>N",
        "Molecular Mass": "129.11",
        "Boiling Point": "84.5-85.8 °C @ Press: 30 Torr",
        "Melting Point": "134.5 °C",
        "Density": "1.28795 g/cm³ @ Temp: 17.2 °C"
    }
}