{
    "cas_no": "526-18-1",
    "key_name": "Osalmid",
    "cn_name": "柳胺酚;利胆酚;2-羟基-N-(4-羟基苯基)苯甲酰胺;",
    "alternate_name": "Benzamide, 2-hydroxy-<em>N</em>-(4-hydroxyphenyl)-;Salicylanilide, 4′-hydroxy-;2-Hydroxy-<em>N</em>-(4-hydroxyphenyl)benzamide;Driol;Driol-Labaz;Enidran;<em>N</em>-(<em>p</em>-Hydroxyphenyl)salicylamide;4′-Hydroxysalicylanilide;Oxaphenamide;Salmidochol;<em>p</em>-Hydroxyphenylsalicylamide;PHPS;<em>p</em>′-Hydroxysalicylanilide;<em>N</em>′-Salicyloyl-<em>p</em>-aminophenol;<em>N</em>-(4-Hydroxyphenyl)salicylamide;Osalmid;Osalmide;Auxobil;Bilene;Oxaphenamid;Dribazil;L 1718;Bilocol;Li Dan Feng;WR 17456;Fumispore;Oksafenamide;Saryuurin;Jestmin;Kanochol;Yoshicol;NSC 93960",
    "duplicated_cas_no": "",
    "SMILES": "C(NC1=CC=C(O)C=C1)(=O)C2=C(O)C=CC=C2",
    "meta_data": {
        "InChI": "InChI=1S/C13H11NO3/c15-10-7-5-9(6-8-10)14-13(17)11-3-1-2-4-12(11)16/h1-8,15-16H,(H,14,17)",
        "InChIKey": null,
        "Canonical SMILES": "O=C(NC1=CC=C(O)C=C1)C=2C=CC=CC2O",
        "Molecular Formula": "C<sub>13</sub>H<sub>11</sub>NO<sub>3</sub>",
        "Molecular Mass": "229.23",
        "Melting Point": "179 °C"
    }
}