{
    "cas_no": "9036-66-2",
    "key_name": "<span class=\"text-smallcaps\">L</smallcap>-Arabino-<smallcap>D</span>-galactan",
    "cn_name": null,
    "alternate_name": "<span class=\"text-smallcaps\">D</smallcap>-Galacto-<smallcap>L</span>-arabinan;Galactoarabinan;Arabinogalactan;<span class=\"text-smallcaps\">L</smallcap>-Arabino-<smallcap>D</span>-galactan;FiberAid;HBN;ResistAid;LaraCare;Arabinogalactan fiberaid AG99;ActiFibe",
    "duplicated_cas_no": "98530-09-7;113956-37-9;37280-16-3",
    "SMILES": "",
    "meta_data": {
        "InChI": "",
        "InChIKey": null,
        "Canonical SMILES": "",
        "Molecular Formula": "Unspecified",
        "Molecular Mass": "",
        "Melting Point": "170 °C (decomp)"
    }
}