{
    "uri": "substance/pt/9036662",
    "rn": "9036-66-2",
    "name": "<span class=\"text-smallcaps\">L</smallcap>-Arabino-<smallcap>D</span>-galactan",
    "images": [],
    "inchi": "",
    "inchiKey": "",
    "smile": "",
    "canonicalSmile": "",
    "molecularFormula": "Unspecified",
    "molecularMass": "",
    "experimentalProperties": [
        {
            "name": "Melting Point",
            "property": "170 °C (decomp)",
            "sourceNumber": 1
        }
    ],
    "propertyCitations": [
        {
            "docUri": "document/pt/document/14224505",
            "sourceNumber": 1,
            "source": "Terpukova, A. F.; Koksnes Kimija, (1978), (2), 101-6, CAplus"
        }
    ],
    "synonyms": [
        "<span class=\"text-smallcaps\">D</smallcap>-Galacto-<smallcap>L</span>-arabinan",
        "Galactoarabinan",
        "Arabinogalactan",
        "<span class=\"text-smallcaps\">L</smallcap>-Arabino-<smallcap>D</span>-galactan",
        "FiberAid",
        "HBN",
        "ResistAid",
        "LaraCare",
        "Arabinogalactan fiberaid AG99",
        "ActiFibe"
    ],
    "replacedRns": [
        "98530-09-7",
        "113956-37-9",
        "37280-16-3"
    ],
    "hasMolfile": false,
    "source": "https://commonchemistry.cas.org/detail?cas_rn=9036-66-2"
}