{
    "cas_no": "163596-75-6",
    "key_name": "4-Bromo-3-nitrobenzaldehyde",
    "cn_name": "4-溴-3-硝基苯甲醛;",
    "alternate_name": "Benzaldehyde, 4-bromo-3-nitro-;4-Bromo-3-nitrobenzaldehyde;4-Bromo-5-nitrobenzaldehyde",
    "duplicated_cas_no": "",
    "SMILES": "N(=O)(=O)C1=CC(C=O)=CC=C1Br",
    "meta_data": {
        "InChI": "InChI=1S/C7H4BrNO3/c8-6-2-1-5(4-10)3-7(6)9(11)12/h1-4H",
        "InChIKey": null,
        "Canonical SMILES": "O=CC1=CC=C(Br)C(=C1)N(=O)=O",
        "Molecular Formula": "C<sub>7</sub>H<sub>4</sub>BrNO<sub>3</sub>",
        "Molecular Mass": "230.02",
        "Melting Point": "106 °C"
    }
}