{
    "cas_no": "1122-99-2",
    "key_name": "Cyclopentylacetyl chloride",
    "cn_name": "环戊基乙酰氯;",
    "alternate_name": "Cyclopentaneacetyl chloride;Cyclopentylacetyl chloride;2-Cyclopentylacetyl chloride",
    "duplicated_cas_no": "",
    "SMILES": "C(C(Cl)=O)C1CCCC1",
    "meta_data": {
        "InChI": "InChI=1S/C7H11ClO/c8-7(9)5-6-3-1-2-4-6/h6H,1-5H2",
        "InChIKey": null,
        "Canonical SMILES": "O=C(Cl)CC1CCCC1",
        "Molecular Formula": "C<sub>7</sub>H<sub>11</sub>ClO",
        "Molecular Mass": "146.61",
        "Boiling Point": "60 °C @ Press: 12 Torr"
    }
}