{
    "cas_no": "22224-41-5",
    "key_name": "α-<span class=\"text-smallcaps\">D</span>-Ribofuranose, 1,3,5-tribenzoate",
    "cn_name": "1,3,5-三苯甲酰基-D-呋喃核糖;",
    "alternate_name": "α-<span class=\"text-smallcaps\">D</span>-Ribofuranose, 1,3,5-tribenzoate;Ribofuranose, 1,3,5-tribenzoate;1,3,5-Tri-<em>O</em>-benzoyl-α-<span class=\"text-smallcaps\">D</span>-ribofuranose;α-<span class=\"text-smallcaps\">D</span>-1,3,5-Tri-<em>O</em>-benzoyl-ribofuranose",
    "duplicated_cas_no": "",
    "SMILES": "O(C(=O)C1=CC=CC=C1)[C@@H]2[C@@H](COC(=O)C3=CC=CC=C3)O[C@H](OC(=O)C4=CC=CC=C4)[C@@H]2O",
    "meta_data": {
        "InChI": "InChI=1S/C26H22O8/c27-21-22(33-24(29)18-12-6-2-7-13-18)20(16-31-23(28)17-10-4-1-5-11-17)32-26(21)34-25(30)19-14-8-3-9-15-19/h1-15,20-22,26-27H,16H2/t20-,21-,22-,26-/m1/s1",
        "InChIKey": null,
        "Canonical SMILES": "O=C(OCC1OC(OC(=O)C=2C=CC=CC2)C(O)C1OC(=O)C=3C=CC=CC3)C=4C=CC=CC4",
        "Molecular Formula": "C<sub>26</sub>H<sub>22</sub>O<sub>8</sub>",
        "Molecular Mass": "462.45",
        "Melting Point": "139-142 °C"
    }
}