{
    "cas_no": "105-31-7",
    "key_name": "1-Hexyn-3-ol",
    "cn_name": "1-己炔-3-醇;3-羟基己烃;己炔醇;",
    "alternate_name": "1-Hexyn-3-ol;Propylethinylcarbinol;1-Propylpropargyl alcohol;3-Hydroxy-1-hexyne;(±)-3-Hydroxyhex-1-yne;(<em>RS</em>)-1-Hexyn-3-ol;(±)-1-Hexyn-3-ol;NSC 244896",
    "duplicated_cas_no": "15352-98-4",
    "SMILES": "C(CCC)(C#C)O",
    "meta_data": {
        "InChI": "InChI=1S/C6H10O/c1-3-5-6(7)4-2/h2,6-7H,3,5H2,1H3",
        "InChIKey": null,
        "Canonical SMILES": "C#CC(O)CCC",
        "Molecular Formula": "C<sub>6</sub>H<sub>10</sub>O",
        "Molecular Mass": "98.14",
        "Boiling Point": "142 °C",
        "Melting Point": "-80 °C",
        "Density": "0.8704 g/cm³ @ Temp: 20 °C"
    }
}