{
    "cas_no": "81907-62-2",
    "key_name": "Ganoderic acid A",
    "cn_name": null,
    "alternate_name": "Lanost-8-en-26-oic acid, 7,15-dihydroxy-3,11,23-trioxo-, (7β,15α,25<em>R</em>)-;(7β,15α,25<em>R</em>)-7,15-Dihydroxy-3,11,23-trioxolanost-8-en-26-oic acid;Ganoderic acid A",
    "duplicated_cas_no": "",
    "SMILES": "C[C@]12C3=C([C@]4(C)[C@@](C[C@@H]3O)(C(C)(C)C(=O)CC4)[H])C(=O)C[C@]1(C)[C@@]([C@@H](CC(C[C@H](C(O)=O)C)=O)C)(C[C@@H]2O)[H]",
    "meta_data": {
        "InChI": "InChI=1S/C30H44O7/c1-15(10-17(31)11-16(2)26(36)37)18-12-23(35)30(7)25-19(32)13-21-27(3,4)22(34)8-9-28(21,5)24(25)20(33)14-29(18,30)6/h15-16,18-19,21,23,32,35H,8-14H2,1-7H3,(H,36,37)/t15-,16-,18-,19+,21+,23+,28+,29-,30+/m1/s1",
        "InChIKey": null,
        "Canonical SMILES": "O=C(O)C(C)CC(=O)CC(C)C1CC(O)C2(C3=C(C(=O)CC12C)C4(C)CCC(=O)C(C)(C)C4CC3O)C",
        "Molecular Formula": "C<sub>30</sub>H<sub>44</sub>O<sub>7</sub>",
        "Molecular Mass": "516.67",
        "Melting Point": "118-123 °C"
    }
}