{
    "cas_no": "87-25-2",
    "key_name": "Ethyl 2-aminobenzoate",
    "cn_name": "邻氨基苯甲酸乙酯;",
    "alternate_name": "Benzoic acid, 2-amino-, ethyl ester;Anthranilic acid, ethyl ester;Ethyl <em>o</em>-aminobenzoate;Ethyl 2-aminobenzoate;<em>o</em>-(Ethoxycarbonyl)aniline;2-Carboethoxyaniline;Ethyl anthranilate;2-Aminobenzoic acid ethyl ester;2-(Ethoxycarbonyl)aniline;(2-(Ethoxycarbonyl)phenyl)amine;NSC 4146",
    "duplicated_cas_no": "",
    "SMILES": "C(OCC)(=O)C1=C(N)C=CC=C1",
    "meta_data": {
        "InChI": "InChI=1S/C9H11NO2/c1-2-12-9(11)7-5-3-4-6-8(7)10/h3-6H,2,10H2,1H3",
        "InChIKey": null,
        "Canonical SMILES": "O=C(OCC)C=1C=CC=CC1N",
        "Molecular Formula": "C<sub>9</sub>H<sub>11</sub>NO<sub>2</sub>",
        "Molecular Mass": "165.19",
        "Boiling Point": "268 °C @ Press: 760 Torr",
        "Melting Point": "13 °C",
        "Density": "1.1174 g/cm³ @ Temp: 20 °C"
    }
}