{
    "cas_no": "287-27-4",
    "key_name": "Thietane",
    "cn_name": "硫化环丙烷;硫化环丙烷;",
    "alternate_name": "Thietane;Trimethylene sulfide;Propane, 1,3-epithio-;Thiacyclobutane;NSC 56443",
    "duplicated_cas_no": "",
    "SMILES": "C1CSC1",
    "meta_data": {
        "InChI": "InChI=1S/C3H6S/c1-2-4-3-1/h1-3H2",
        "InChIKey": null,
        "Canonical SMILES": "S1CCC1",
        "Molecular Formula": "C<sub>3</sub>H<sub>6</sub>S",
        "Molecular Mass": "74.14",
        "Boiling Point": "95 °C",
        "Melting Point": "-73.2 °C",
        "Density": "1.0284 g/cm³ @ Temp: 23 °C"
    }
}