{
    "cas_no": "30507-70-1",
    "key_name": "(Z,E)-9,12-Tetradecadienyl acetate",
    "cn_name": null,
    "alternate_name": "9,12-Tetradecadien-1-ol, 1-acetate, (9<em>Z</em>,12<em>E</em>)-;9,12-Tetradecadien-1-ol, acetate, (<em>E</em>,<em>Z</em>)-;9,12-Tetradecadien-1-ol, acetate, (9<em>Z</em>,12<em>E</em>)-;Prodenialure B;<em>cis</em>-9,<em>trans</em>-12-Tetradecadien-1-ol acetate;(<em>Z</em>,<em>E</em>)-9,12-Tetradecadienyl 1-acetate;<em>cis</em>-9,<em>trans</em>-12-Tetradecadienyl acetate;<em>cis</em>-9,<em>trans</em>-12-Tetradecadien-1-yl acetate;(<em>Z</em>,<em>E</em>)-9,12-Tetradecadienyl acetate;Litlure B;9<em>Z</em>,12<em>E</em>-Tetradecadienyl acetate;(Z,E)-9,12-Tetradecadienyl acetate;(9<em>Z</em>,12<em>E</em>)-9,12-Tetradecadien-1-ol acetate",
    "duplicated_cas_no": "1787238-50-9",
    "SMILES": "C(CCCC/C=C\\C/C=C/C)CCCOC(C)=O",
    "meta_data": {
        "InChI": "InChI=1S/C16H28O2/c1-3-4-5-6-7-8-9-10-11-12-13-14-15-18-16(2)17/h3-4,6-7H,5,8-15H2,1-2H3/b4-3+,7-6-",
        "InChIKey": null,
        "Canonical SMILES": "O=C(OCCCCCCCCC=CCC=CC)C",
        "Molecular Formula": "C<sub>16</sub>H<sub>28</sub>O<sub>2</sub>",
        "Molecular Mass": "252.39",
        "Boiling Point": "190-194 °C @ Press: 2 Torr"
    }
}