{
    "cas_no": "15263-20-4",
    "key_name": "1,3-Dihydro-1,3-dioxo-2<em>H</em>-isoindol-2-yl 1,1-dimethylethyl carbonate",
    "cn_name": null,
    "alternate_name": "Carbonic acid, 1,3-dihydro-1,3-dioxo-2<em>H</em>-isoindol-2-yl 1,1-dimethylethyl ester;Phthalimide, <em>N</em>-(carboxyoxy)-, <em>tert</em>-butyl ester;1<em>H</em>-Isoindole-1,3(2<em>H</em>)-dione, 2-[[(1,1-dimethylethoxy)carbonyl]oxy]-;Carbonic acid, mono-<em>tert</em>-butyl ester, <em>O</em>-phthalimido deriv.;1,3-Dihydro-1,3-dioxo-2<em>H</em>-isoindol-2-yl 1,1-dimethylethyl carbonate;<em>N</em>-(<em>tert</em>-Butoxycarbonyloxy)-phthalimide",
    "duplicated_cas_no": "",
    "SMILES": "O=C1C=2C(C(=O)N1OC(OC(C)(C)C)=O)=CC=CC2",
    "meta_data": {
        "InChI": "InChI=1S/C13H13NO5/c1-13(2,3)18-12(17)19-14-10(15)8-6-4-5-7-9(8)11(14)16/h4-7H,1-3H3",
        "InChIKey": null,
        "Canonical SMILES": "O=C(ON1C(=O)C=2C=CC=CC2C1=O)OC(C)(C)C",
        "Molecular Formula": "C<sub>13</sub>H<sub>13</sub>NO<sub>5</sub>",
        "Molecular Mass": "263.25",
        "Melting Point": "118 °C (decomp)"
    }
}