{
    "cas_no": "2760-98-7",
    "key_name": "Isophthalic dihydrazide",
    "cn_name": "间苯二甲酰肼;间苯二甲酸二酰肼;",
    "alternate_name": "1,3-Benzenedicarboxylic acid, 1,3-dihydrazide;Isophthalic acid, dihydrazide;1,3-Benzenedicarboxylic acid, dihydrazide;417;Isophthalic acid hydrazide;Isophthalic dihydrazide;Isophthalyl dihydrazide;1,3-Phenylenebiscarbohydrazide;Isophthalic hydrazide;Isophthaloyl hydrazide;Isophthaloyl dihydrazide;NSC 75606;IDH-S;IDH;Technicure IDH-J",
    "duplicated_cas_no": "86240-61-1",
    "SMILES": "C(NN)(=O)C1=CC(C(NN)=O)=CC=C1",
    "meta_data": {
        "InChI": "InChI=1S/C8H10N4O2/c9-11-7(13)5-2-1-3-6(4-5)8(14)12-10/h1-4H,9-10H2,(H,11,13)(H,12,14)",
        "InChIKey": null,
        "Canonical SMILES": "O=C(NN)C1=CC=CC(=C1)C(=O)NN",
        "Molecular Formula": "C<sub>8</sub>H<sub>10</sub>N<sub>4</sub>O<sub>2</sub>",
        "Molecular Mass": "194.19",
        "Melting Point": "226-230 °C"
    }
}