{
    "cas_no": "10387-13-0",
    "key_name": "9,10-Bis(chloromethyl)anthracene",
    "cn_name": "9,10-二(氯甲基)蒽;9,10-双(氯甲基)蒽;",
    "alternate_name": "Anthracene, 9,10-bis(chloromethyl)-;9,10-Bis(chloromethyl)anthracene;9,10-Di(chloromethyl)anthracene;NSC 81650",
    "duplicated_cas_no": "",
    "SMILES": "C(Cl)C=1C2=C(C(CCl)=C3C1C=CC=C3)C=CC=C2",
    "meta_data": {
        "InChI": "InChI=1S/C16H12Cl2/c17-9-15-11-5-1-2-6-12(11)16(10-18)14-8-4-3-7-13(14)15/h1-8H,9-10H2",
        "InChIKey": null,
        "Canonical SMILES": "ClCC1=C2C=CC=CC2=C(C=3C=CC=CC31)CCl",
        "Molecular Formula": "C<sub>16</sub>H<sub>12</sub>Cl<sub>2</sub>",
        "Molecular Mass": "275.17",
        "Melting Point": "233-240 °C"
    }
}