{
    "cas_no": "26091-79-2",
    "key_name": "Byakangelicol",
    "cn_name": null,
    "alternate_name": "7<em>H</em>-Furo[3,2-<em>g</em>][1]benzopyran-7-one, 9-[[(2<em>R</em>)-3,3-dimethyl-2-oxiranyl]methoxy]-4-methoxy-;7<em>H</em>-Furo[3,2-<em>g</em>][1]benzopyran-7-one, 9-(2,3-epoxy-3-methylbutoxy)-4-methoxy-, (<em>R</em>)-(+)-;7<em>H</em>-Furo[3,2-<em>g</em>][1]benzopyran-7-one, 9-[(3,3-dimethyloxiranyl)methoxy]-4-methoxy-, (<em>R</em>)-;7<em>H</em>-Furo[3,2-<em>g</em>][1]benzopyran-7-one, 9-[[(2<em>R</em>)-3,3-dimethyloxiranyl]methoxy]-4-methoxy-;9-[[(2<em>R</em>)-3,3-Dimethyl-2-oxiranyl]methoxy]-4-methoxy-7<em>H</em>-furo[3,2-<em>g</em>][1]benzopyran-7-one;Biacangelicol;Byakangelicol",
    "duplicated_cas_no": "482-24-6",
    "SMILES": "O(C[C@@H]1C(C)(C)O1)C=2C3=C(C(OC)=C4C2OC=C4)C=CC(=O)O3",
    "meta_data": {
        "InChI": "InChI=1S/C17H16O6/c1-17(2)11(23-17)8-21-16-14-10(6-7-20-14)13(19-3)9-4-5-12(18)22-15(9)16/h4-7,11H,8H2,1-3H3/t11-/m1/s1",
        "InChIKey": null,
        "Canonical SMILES": "O=C1OC=2C(OCC3OC3(C)C)=C4OC=CC4=C(OC)C2C=C1",
        "Molecular Formula": "C<sub>17</sub>H<sub>16</sub>O<sub>6</sub>",
        "Molecular Mass": "316.31",
        "Melting Point": "106 °C"
    }
}