{
    "cas_no": "39190-67-5",
    "key_name": "<em>N</em>-Propyl-2-butanamine",
    "cn_name": null,
    "alternate_name": "2-Butanamine, <em>N</em>-propyl-;<em>N</em>-Propyl-2-butanamine;<em>sec</em>-Butylpropylamine;<em>sec</em>-Butyl-<em>n</em>-propylamine;<em>N</em>-Propyl-<em>sec</em>-butylamine;<em>N</em>-<em>sec</em>-Butyl-<em>N</em>-propylamine;Propyl(<em>sec</em>-butyl)amine;<em>N</em>-(1-Methylpropyl)-<em>N</em>-propylamine;<em>N</em>-Propylbutan-2-amine;<em>N</em>-Propyl-<em>N</em>-<em>sec</em>-butylamine;(Butan-2-yl)(propyl)amine",
    "duplicated_cas_no": "",
    "SMILES": "C(NCCC)(CC)C",
    "meta_data": {
        "InChI": "InChI=1S/C7H17N/c1-4-6-8-7(3)5-2/h7-8H,4-6H2,1-3H3",
        "InChIKey": null,
        "Canonical SMILES": "N(CCC)C(C)CC",
        "Molecular Formula": "C<sub>7</sub>H<sub>17</sub>N",
        "Molecular Mass": "115.22",
        "Boiling Point": "121.5-122 °C @ Press: 770 Torr",
        "Density": "0.7651 g/cm³ @ Temp: 0 °C"
    }
}