{
    "cas_no": "61889-48-3",
    "key_name": "Ethanone, 2-chloro-1-(3-pyridinyl)-, hydrochloride (1:1)",
    "cn_name": null,
    "alternate_name": "Ethanone, 2-chloro-1-(3-pyridinyl)-, hydrochloride (1:1);Ethanone, 2-chloro-1-(3-pyridinyl)-, hydrochloride;3-(2-Chloroacetyl)pyridine hydrochloride;2-Chloro-1-(3-pyridinyl)ethanone hydrochloride;2-Chloro-1-(pyridin-3-yl)ethan-1-one hydrochloride",
    "duplicated_cas_no": "",
    "SMILES": "C(CCl)(=O)C=1C=CC=NC1.Cl",
    "meta_data": {
        "InChI": "InChI=1S/C7H6ClNO.ClH/c8-4-7(10)6-2-1-3-9-5-6;/h1-3,5H,4H2;1H",
        "InChIKey": null,
        "Canonical SMILES": "Cl.O=C(C=1C=NC=CC1)CCl",
        "Molecular Formula": "C<sub>7</sub>H<sub>6</sub>ClNO.ClH",
        "Molecular Mass": "",
        "Melting Point": "245-250 °C (decomp)"
    }
}