{
    "cas_no": "14064-10-9",
    "key_name": "1,3-Diethyl 2-chloropropanedioate",
    "cn_name": "氯代丙二酸二乙酯;",
    "alternate_name": "Propanedioic acid, 2-chloro-, 1,3-diethyl ester;Malonic acid, chloro-, diethyl ester;Propanedioic acid, chloro-, diethyl ester;1,3-Diethyl 2-chloropropanedioate;Chloromalonic acid diethyl ester;Diethyl chloromalonate;Ethyl chloromalonate;α-Chlorodiethyl malonate;Diethyl monochloromalonate;NSC 227952;Chloropropanedioic acid ethyl ester;Diethyl chloropropanedioate;Diethyl 2-chloromalonate",
    "duplicated_cas_no": "1448892-10-1",
    "SMILES": "C(C(OCC)=O)(C(OCC)=O)Cl",
    "meta_data": {
        "InChI": "InChI=1S/C7H11ClO4/c1-3-11-6(9)5(8)7(10)12-4-2/h5H,3-4H2,1-2H3",
        "InChIKey": null,
        "Canonical SMILES": "O=C(OCC)C(Cl)C(=O)OCC",
        "Molecular Formula": "C<sub>7</sub>H<sub>11</sub>ClO<sub>4</sub>",
        "Molecular Mass": "194.61",
        "Boiling Point": "222 °C"
    }
}