{
    "cas_no": "7783-46-2",
    "key_name": "Lead fluoride",
    "cn_name": "氟化铅;",
    "alternate_name": "Lead fluoride (PbF<sub>2</sub>);Lead difluoride;Plumbous fluoride;Lead fluoride;Lead difluoride (PbF<sub>2</sub>);Lead(2+) fluoride",
    "duplicated_cas_no": "106496-44-0;1493800-25-1;2098815-17-7",
    "SMILES": "[Pb](F)F",
    "meta_data": {
        "InChI": "InChI=1S/2FH.Pb/h2*1H;/q;;+2/p-2",
        "InChIKey": null,
        "Canonical SMILES": "F[Pb]F",
        "Molecular Formula": "F<sub>2</sub>Pb",
        "Molecular Mass": "",
        "Boiling Point": "1293 °C",
        "Melting Point": "824 °C"
    }
}