{
    "cas_no": "13617-28-2",
    "key_name": "[2-(Dichloromethylsilyl)-1-methylethyl]benzene",
    "cn_name": null,
    "alternate_name": "Benzene, [2-(dichloromethylsilyl)-1-methylethyl]-;Silane, dichloromethyl(β-methylphenethyl)-;Silane, dichloromethyl(2-phenylpropyl)-;[2-(Dichloromethylsilyl)-1-methylethyl]benzene;Dichloro(methyl)(2-phenylpropyl)silane;(2-Phenylpropyl)methyldichlorosilane",
    "duplicated_cas_no": "",
    "SMILES": "C(C[Si](C)(Cl)Cl)(C)C1=CC=CC=C1",
    "meta_data": {
        "InChI": "InChI=1S/C10H14Cl2Si/c1-9(8-13(2,11)12)10-6-4-3-5-7-10/h3-7,9H,8H2,1-2H3",
        "InChIKey": null,
        "Canonical SMILES": "Cl[Si](Cl)(C)CC(C=1C=CC=CC1)C",
        "Molecular Formula": "C<sub>10</sub>H<sub>14</sub>Cl<sub>2</sub>Si",
        "Molecular Mass": "233.21",
        "Boiling Point": "104-105 °C @ Press: 9 Torr",
        "Density": "1.1165 g/cm³"
    }
}