{
    "cas_no": "3648-18-8",
    "key_name": "Dioctyltin dilaurate",
    "cn_name": "二月桂酸二正辛基锡;",
    "alternate_name": "Stannane, dioctylbis[(1-oxododecyl)oxy]-;Stannane, bis(lauroyloxy)dioctyl-;Dioctyltin dilaurate;Tin, bis(lauroyloxy)dioctyl-;Lauric acid, dioctylstannylene deriv.;Dioctylbis[(1-oxododecyl)oxy]stannane;Dioctyldi(lauroyloxy)tin;Dioctyltin didodecanoate;Di-<em>n</em>-octyltin dilaurate;Dioctytin dilaurate;OT 1;OT 1 (stabilizer);KS 1200A1;Stann SNT;U 810;Neostann U 810;Tegokat 216;ADK Stab OT 1;Dioctyltindilaureate;DOTL;OL 1;Tin dioctyldilaurate;TIB KAT 216;LZ 082;Di-<em>n</em>-ocytyltin dilaurate;Acima DOTL 99;Bis(lauroyloxy)dioctyltin;DOTDL;Nissetsu CK 920",
    "duplicated_cas_no": "1245942-04-4;2396638-62-1",
    "SMILES": "[Sn](OC(CCCCCCCCCCC)=O)(OC(CCCCCCCCCCC)=O)(CCCCCCCC)CCCCCCCC",
    "meta_data": {
        "InChI": "InChI=1S/2C12H24O2.2C8H17.Sn/c2*1-2-3-4-5-6-7-8-9-10-11-12(13)14;2*1-3-5-7-8-6-4-2;/h2*2-11H2,1H3,(H,13,14);2*1,3-8H2,2H3;/q;;;;+2/p-2",
        "InChIKey": null,
        "Canonical SMILES": "O=C(O[Sn](OC(=O)CCCCCCCCCCC)(CCCCCCCC)CCCCCCCC)CCCCCCCCCCC",
        "Molecular Formula": "C<sub>40</sub>H<sub>80</sub>O<sub>4</sub>Sn",
        "Molecular Mass": "743.77",
        "Melting Point": "17-18 °C",
        "Density": "0.998 g/cm³"
    }
}