{
    "cas_no": "766-97-2",
    "key_name": "4-Methylphenylacetylene",
    "cn_name": "4-甲苯基乙炔;4-乙炔基甲苯;对甲苯基乙炔;对甲基苯乙炔;",
    "alternate_name": "Benzene, 1-ethynyl-4-methyl-;Toluene, <em>p</em>-ethynyl-;1-Ethynyl-4-methylbenzene;<em>p</em>-Methylphenylacetylene;<em>p</em>-Ethynyltoluene;<em>p</em>-Tolylacetylene;4-Methylphenylacetylene;4-Tolylacetylene;<em>p</em>-Tolylethyne;4-Ethynyltoluene;(4-Methylphenyl)ethyne;(<em>p</em>-Methylphenyl)ethyne;1-Methyl-4-ethynylbenzene;4-Methylethynylbenzene;2-(4-Methylphenyl)acetylene",
    "duplicated_cas_no": "1401716-47-9",
    "SMILES": "C(#C)C1=CC=C(C)C=C1",
    "meta_data": {
        "InChI": "InChI=1S/C9H8/c1-3-9-6-4-8(2)5-7-9/h1,4-7H,2H3",
        "InChIKey": null,
        "Canonical SMILES": "C#CC1=CC=C(C=C1)C",
        "Molecular Formula": "C<sub>9</sub>H<sub>8</sub>",
        "Molecular Mass": "116.16",
        "Boiling Point": "64-66.5 °C @ Press: 16 Torr",
        "Melting Point": "95-97 °C"
    }
}