{
    "cas_no": "77-78-1",
    "key_name": "Dimethyl sulfate",
    "cn_name": "硫酸二甲酯;",
    "alternate_name": "Sulfuric acid, dimethyl ester;Dimethyl sulfate;Methyl sulfate;Dimethyl sulphate;NSC 56194",
    "duplicated_cas_no": "98478-67-2;139443-72-4;62086-97-9",
    "SMILES": "S(OC)(OC)(=O)=O",
    "meta_data": {
        "InChI": "InChI=1S/C2H6O4S/c1-5-7(3,4)6-2/h1-2H3",
        "InChIKey": null,
        "Canonical SMILES": "O=S(=O)(OC)OC",
        "Molecular Formula": "C<sub>2</sub>H<sub>6</sub>O<sub>4</sub>S",
        "Molecular Mass": "126.13",
        "Boiling Point": "187.5 °C @ Press: 769 Torr",
        "Melting Point": "-27 °C",
        "Density": "1.3322 g/cm³ @ Temp: 20 °C"
    }
}