{
    "cas_no": "39885-50-2",
    "key_name": "2-Chloro-4-trifluoromethylaniline",
    "cn_name": "3-氯-4-氨基三氟甲苯;2-氯-4-三氟甲基苯胺;",
    "alternate_name": "Benzenamine, 2-chloro-4-(trifluoromethyl)-;2-Chloro-4-(trifluoromethyl)benzenamine;2-Chloro-α,α,α-trifluoro-<em>p</em>-toluidine;2-Chloro-4-trifluoromethylaniline;2-Chloro-4-trifluoromethylphenylamine",
    "duplicated_cas_no": "",
    "SMILES": "C(F)(F)(F)C1=CC(Cl)=C(N)C=C1",
    "meta_data": {
        "InChI": "InChI=1S/C7H5ClF3N/c8-5-3-4(7(9,10)11)1-2-6(5)12/h1-3H,12H2",
        "InChIKey": null,
        "Canonical SMILES": "FC(F)(F)C1=CC=C(N)C(Cl)=C1",
        "Molecular Formula": "C<sub>7</sub>H<sub>5</sub>ClF<sub>3</sub>N",
        "Molecular Mass": "195.57",
        "Boiling Point": "89 °C @ Press: 0.5 Torr"
    }
}