{
    "cas_no": "94-04-2",
    "key_name": "Vinyl 2-ethylhexanoate",
    "cn_name": "2-乙基己酸乙烯基酯;",
    "alternate_name": "Hexanoic acid, 2-ethyl-, ethenyl ester;Hexanoic acid, 2-ethyl-, vinyl ester;2-Ethylhexanoic acid, vinyl ester;Vinyl 2-ethylhexoate;Vinyl 2-ethylhexanoate;Vynate 2EH;NSC 5312;VeoVa EH",
    "duplicated_cas_no": "",
    "SMILES": "C(C(OC=C)=O)(CCCC)CC",
    "meta_data": {
        "InChI": "InChI=1S/C10H18O2/c1-4-7-8-9(5-2)10(11)12-6-3/h6,9H,3-5,7-8H2,1-2H3",
        "InChIKey": null,
        "Canonical SMILES": "O=C(OC=C)C(CC)CCCC",
        "Molecular Formula": "C<sub>10</sub>H<sub>18</sub>O<sub>2</sub>",
        "Molecular Mass": "170.25",
        "Boiling Point": "65 °C @ Press: 15 Torr"
    }
}