{
    "cas_no": "25217-43-0",
    "key_name": "Carbamic acid, (3,5-dichlorophenyl)-, methyl ester",
    "cn_name": "3,5-二氯苯基胺基甲酸甲酯;",
    "alternate_name": "Carbamic acid, (3,5-dichlorophenyl)-, methyl ester;Carbanilic acid, 3,5-dichloro-, methyl ester;Methyl 3,5-dichlorophenylcarbamate;MDPC",
    "duplicated_cas_no": "",
    "SMILES": "N(C(OC)=O)C1=CC(Cl)=CC(Cl)=C1",
    "meta_data": {
        "InChI": "InChI=1S/C8H7Cl2NO2/c1-13-8(12)11-7-3-5(9)2-6(10)4-7/h2-4H,1H3,(H,11,12)",
        "InChIKey": null,
        "Canonical SMILES": "O=C(OC)NC=1C=C(Cl)C=C(Cl)C1",
        "Molecular Formula": "C<sub>8</sub>H<sub>7</sub>Cl<sub>2</sub>NO<sub>2</sub>",
        "Molecular Mass": "220.05",
        "Melting Point": "114-116 °C"
    }
}