{
    "cas_no": "13349-82-1",
    "key_name": "1-[2-(2-Hydroxyethoxy)ethyl]piperazine",
    "cn_name": "2-[2-(1-哌嗪基)乙氧基]乙醇;1-[2-(2-羟基乙氧基)乙基]哌嗪;",
    "alternate_name": "Ethanol, 2-[2-(1-piperazinyl)ethoxy]-;2-[2-(1-Piperazinyl)ethoxy]ethanol;<em>N</em>-Hydroxyethoxyethylpiperazine;1-[2-(2-Hydroxyethoxy)ethyl]piperazine;1-[2-[(2-Hydroxyethyl)oxy]ethyl]piperazine;1-((2-Hydroxyethoxy)ethyl)piperazine;2-[2-(Piperazin-1-yl)ethoxy]ethan-1-ol",
    "duplicated_cas_no": "",
    "SMILES": "C(COCCO)N1CCNCC1",
    "meta_data": {
        "InChI": "InChI=1S/C8H18N2O2/c11-6-8-12-7-5-10-3-1-9-2-4-10/h9,11H,1-8H2",
        "InChIKey": null,
        "Canonical SMILES": "OCCOCCN1CCNCC1",
        "Molecular Formula": "C<sub>8</sub>H<sub>18</sub>N<sub>2</sub>O<sub>2</sub>",
        "Molecular Mass": "174.24",
        "Boiling Point": "112-114 °C @ Press: 0.25 Torr"
    }
}