{
    "cas_no": "6303-58-8",
    "key_name": "4-Phenoxybutyric acid",
    "cn_name": "4-苯氧基丁酸;",
    "alternate_name": "Butanoic acid, 4-phenoxy-;Butyric acid, 4-phenoxy-;4-Phenoxybutanoic acid;γ-Phenoxybutyric acid;4-Phenoxybutyric acid;NSC 43294;NSC 64178",
    "duplicated_cas_no": "",
    "SMILES": "O(CCCC(O)=O)C1=CC=CC=C1",
    "meta_data": {
        "InChI": "InChI=1S/C10H12O3/c11-10(12)7-4-8-13-9-5-2-1-3-6-9/h1-3,5-6H,4,7-8H2,(H,11,12)",
        "InChIKey": null,
        "Canonical SMILES": "O=C(O)CCCOC=1C=CC=CC1",
        "Molecular Formula": "C<sub>10</sub>H<sub>12</sub>O<sub>3</sub>",
        "Molecular Mass": "180.20",
        "Boiling Point": "180-185 °C @ Press: 12 Torr",
        "Melting Point": "59.5 °C"
    }
}