{
    "cas_no": "122892-31-3",
    "key_name": "Itopride hydrochloride",
    "cn_name": "盐酸依托必利;N-[4-[2-(二甲胺基)乙氧基]苯甲基]-3,4-二甲氧基苯甲酰胺盐酸盐;",
    "alternate_name": "Benzamide, <em>N</em>-[[4-[2-(dimethylamino)ethoxy]phenyl]methyl]-3,4-dimethoxy-, hydrochloride (1:1);Benzamide, <em>N</em>-[[4-[2-(dimethylamino)ethoxy]phenyl]methyl]-3,4-dimethoxy-, monohydrochloride;HSR 803;Itopride hydrochloride;Ganaton",
    "duplicated_cas_no": "",
    "SMILES": "C(NCC1=CC=C(OCCN(C)C)C=C1)(=O)C2=CC(OC)=C(OC)C=C2.Cl",
    "meta_data": {
        "InChI": "InChI=1S/C20H26N2O4.ClH/c1-22(2)11-12-26-17-8-5-15(6-9-17)14-21-20(23)16-7-10-18(24-3)19(13-16)25-4;/h5-10,13H,11-12,14H2,1-4H3,(H,21,23);1H",
        "InChIKey": null,
        "Canonical SMILES": "Cl.O=C(NCC1=CC=C(OCCN(C)C)C=C1)C2=CC=C(OC)C(OC)=C2",
        "Molecular Formula": "C<sub>20</sub>H<sub>26</sub>N<sub>2</sub>O<sub>4</sub>.ClH",
        "Molecular Mass": "",
        "Melting Point": "192-196 °C"
    }
}