{
    "cas_no": "4698-11-7",
    "key_name": "10-Methoxy-5<em>H</em>-dibenz[<em>b</em>,<em>f</em>]azepine",
    "cn_name": null,
    "alternate_name": "5<em>H</em>-Dibenz[<em>b</em>,<em>f</em>]azepine, 10-methoxy-;10-Methoxy-5<em>H</em>-dibenz[<em>b</em>,<em>f</em>]azepine;10-Methoxy-5<em>H</em>-dibenzo[<em>b</em>,<em>f</em>]azepine",
    "duplicated_cas_no": "",
    "SMILES": "O(C)C=1C=2C(NC=3C(C1)=CC=CC3)=CC=CC2",
    "meta_data": {
        "InChI": "InChI=1S/C15H13NO/c1-17-15-10-11-6-2-4-8-13(11)16-14-9-5-3-7-12(14)15/h2-10,16H,1H3",
        "InChIKey": null,
        "Canonical SMILES": "O(C1=CC=2C=CC=CC2NC=3C=CC=CC13)C",
        "Molecular Formula": "C<sub>15</sub>H<sub>13</sub>NO",
        "Molecular Mass": "223.27",
        "Melting Point": "124 °C"
    }
}