{
    "cas_no": "565-20-8",
    "key_name": "Monoacetyldapsone",
    "cn_name": null,
    "alternate_name": "Acetamide, <em>N</em>-[4-[(4-aminophenyl)sulfonyl]phenyl]-;Acetanilide, 4′-sulfanilyl-;<em>N</em>-[4-[(4-Aminophenyl)sulfonyl]phenyl]acetamide;4′-Sulfanilylacetanilide;Monoacetyldapsone;4-Amino-4′-acetamidodiphenyl sulfone;Acetyldapsone;4-Acetylamino-4′-aminodiphenyl sulfone;4-Acetamido-4′-aminodiphenyl sulfone;4-Acetamidophenyl 4′-aminophenyl sulfone;4-Acetylamino-4′-aminophenyl sulfone;<em>N</em>-Acetyldapsone;MADDS;NSC 27184",
    "duplicated_cas_no": "",
    "SMILES": "S(=O)(=O)(C1=CC=C(NC(C)=O)C=C1)C2=CC=C(N)C=C2",
    "meta_data": {
        "InChI": "InChI=1S/C14H14N2O3S/c1-10(17)16-12-4-8-14(9-5-12)20(18,19)13-6-2-11(15)3-7-13/h2-9H,15H2,1H3,(H,16,17)",
        "InChIKey": null,
        "Canonical SMILES": "O=C(NC1=CC=C(C=C1)S(=O)(=O)C2=CC=C(N)C=C2)C",
        "Molecular Formula": "C<sub>14</sub>H<sub>14</sub>N<sub>2</sub>O<sub>3</sub>S",
        "Molecular Mass": "290.34",
        "Melting Point": "242-243 °C"
    }
}