{
    "cas_no": "7446-18-6",
    "key_name": "Thallous sulfate",
    "cn_name": "硫酸亚铊;",
    "alternate_name": "Sulfuric acid, thallium(1+) salt (1:2);Sulfuric acid, dithallium(1+) salt;Thallium sulfate (Tl<sub>2</sub>(SO<sub>4</sub>));Thallous sulfate;Thallium sulfate;Dithallium sulfate;Thallium(I) sulfate;Dithallium(1+) sulfate;C.F.S.;CSF-Giftweizen;M 7-Giftkoerner;Rattengiftkonserve;Zelio;Dithallium(I) sulfate",
    "duplicated_cas_no": "14012-92-1;37333-30-5;87993-82-6",
    "SMILES": "S(=O)(=O)(O)O.[Tl]",
    "meta_data": {
        "InChI": "InChI=1S/H2O4S.2Tl/c1-5(2,3)4;;/h(H2,1,2,3,4);;",
        "InChIKey": null,
        "Canonical SMILES": "[Tl].O=S(=O)(O)O",
        "Molecular Formula": "H<sub>2</sub>O<sub>4</sub>S.2Tl",
        "Molecular Mass": "",
        "Melting Point": "632 °C",
        "Density": "6.77 g/cm³"
    }
}