{
    "cas_no": "20816-12-0",
    "key_name": "Osmium tetroxide",
    "cn_name": "四氧化锇;锇酸酐;",
    "alternate_name": "Osmium oxide (OsO<sub>4</sub>), (<em>T</em>-4)-;Osmium oxide (OsO<sub>4</sub>);Osmium tetroxide;Osmium tetraoxide;Milas' reagent;Osmium(IV) oxide;Osmium oxide;Tetraoxoosmium;Reagents, Milas';MeSH ID: D009993",
    "duplicated_cas_no": "7446-13-1;12060-19-4",
    "SMILES": "[Os](=O)(=O)(=O)=O",
    "meta_data": {
        "InChI": "InChI=1S/4O.Os",
        "InChIKey": null,
        "Canonical SMILES": "O=[Os](=O)(=O)=O",
        "Molecular Formula": "O<sub>4</sub>Os",
        "Molecular Mass": "",
        "Boiling Point": "130.0 °C @ Press: 760 Torr",
        "Melting Point": "40.6 °C",
        "Density": "4.9 g/cm³"
    }
}