{
    "cas_no": "7356-11-8",
    "key_name": "Benzoic acid, 4-methyl-3-nitro-, methyl ester",
    "cn_name": "4-甲基-3-硝基苯甲酸甲酯;",
    "alternate_name": "Benzoic acid, 4-methyl-3-nitro-, methyl ester;<em>p</em>-Toluic acid, 3-nitro-, methyl ester;Methyl 3-nitro-4-methylbenzoate;Methyl 4-methyl-3-nitrobenzoate;NSC 29086;4-Methyl-3-nitrobenzoic acid methyl ester",
    "duplicated_cas_no": "",
    "SMILES": "C(OC)(=O)C1=CC(N(=O)=O)=C(C)C=C1",
    "meta_data": {
        "InChI": "InChI=1S/C9H9NO4/c1-6-3-4-7(9(11)14-2)5-8(6)10(12)13/h3-5H,1-2H3",
        "InChIKey": null,
        "Canonical SMILES": "O=C(OC)C1=CC=C(C(=C1)N(=O)=O)C",
        "Molecular Formula": "C<sub>9</sub>H<sub>9</sub>NO<sub>4</sub>",
        "Molecular Mass": "195.17",
        "Melting Point": "71 °C"
    }
}