{
    "cas_no": "4569-82-8",
    "key_name": "2-Phenylthiazolidine",
    "cn_name": null,
    "alternate_name": "Thiazolidine, 2-phenyl-;2-Phenylthiazolidine;2-Phenyl-1,3-thiazolidine;2-Phenyl-1,3-thiazolane;2-Phenyltetrahydrothiazole",
    "duplicated_cas_no": "",
    "SMILES": "C1(NCCS1)C2=CC=CC=C2",
    "meta_data": {
        "InChI": "InChI=1S/C9H11NS/c1-2-4-8(5-3-1)9-10-6-7-11-9/h1-5,9-10H,6-7H2",
        "InChIKey": null,
        "Canonical SMILES": "S1CCNC1C=2C=CC=CC2",
        "Molecular Formula": "C<sub>9</sub>H<sub>11</sub>NS",
        "Molecular Mass": "165.26",
        "Melting Point": "105-109 °C"
    }
}