{
    "cas_no": "1155-40-4",
    "key_name": "3,5-Diiodothyroacetic acid",
    "cn_name": null,
    "alternate_name": "Benzeneacetic acid, 4-(4-hydroxyphenoxy)-3,5-diiodo-;Acetic acid, [4-(<em>p</em>-hydroxyphenoxy)-3,5-diiodophenyl]-;4-(4-Hydroxyphenoxy)-3,5-diiodobenzeneacetic acid;Diac;3,5-Diiodothyroacetic acid;NSC 90463;2-(4-(4-Hydroxyphenoxy)-3,5-diiodophenyl)acetic acid",
    "duplicated_cas_no": "",
    "SMILES": "O(C1=C(I)C=C(CC(O)=O)C=C1I)C2=CC=C(O)C=C2",
    "meta_data": {
        "InChI": "InChI=1S/C14H10I2O4/c15-11-5-8(7-13(18)19)6-12(16)14(11)20-10-3-1-9(17)2-4-10/h1-6,17H,7H2,(H,18,19)",
        "InChIKey": null,
        "Canonical SMILES": "O=C(O)CC1=CC(I)=C(OC2=CC=C(O)C=C2)C(I)=C1",
        "Molecular Formula": "C<sub>14</sub>H<sub>10</sub>I<sub>2</sub>O<sub>4</sub>",
        "Molecular Mass": "496.04",
        "Melting Point": "223.5-225.0 °C"
    }
}