{
    "cas_no": "106-44-5",
    "key_name": "<em>p</em>-Cresol",
    "cn_name": "4-甲基苯酚;对甲酚;对甲基苯酚;对甲苯酚;",
    "alternate_name": "Phenol, 4-methyl-;<em>p</em>-Cresol;4-Methylphenol;4-Cresol;<em>p</em>-Cresylic acid;<em>p</em>-Hydroxytoluene;<em>p</em>-Methylphenol;<em>p</em>-Oxytoluene;<em>p</em>-Methylhydroxybenzene;<em>p</em>-Toluol;4-Hydroxytoluene;<em>p</em>-Tolyl alcohol;1-Hydroxy-4-methylbenzene;NSC 3696;1-Methyl-4-hydroxybenzene",
    "duplicated_cas_no": "",
    "SMILES": "CC1=CC=C(O)C=C1",
    "meta_data": {
        "InChI": "InChI=1S/C7H8O/c1-6-2-4-7(8)5-3-6/h2-5,8H,1H3",
        "InChIKey": null,
        "Canonical SMILES": "OC1=CC=C(C=C1)C",
        "Molecular Formula": "C<sub>7</sub>H<sub>8</sub>O",
        "Molecular Mass": "108.14",
        "Boiling Point": "201.8 °C",
        "Melting Point": "35.5 °C",
        "Density": "1.0185 g/cm³ @ Temp: 40 °C"
    }
}