{
    "cas_no": "1177-87-3",
    "key_name": "Dexamethasone acetate",
    "cn_name": "醋酸地塞米松;16alpha-甲基-11beta,17alpha,21-三羟基-9alpha-氟孕甾-1,4-二烯-3,20-二酮-21-醋酸酯;",
    "alternate_name": "Pregna-1,4-diene-3,20-dione, 21-(acetyloxy)-9-fluoro-11,17-dihydroxy-16-methyl-, (11β,16α)-;Pregna-1,4-diene-3,20-dione, 9-fluoro-11β,17,21-trihydroxy-16α-methyl-, 21-acetate;(11β,16α)-21-(Acetyloxy)-9-fluoro-11,17-dihydroxy-16-methylpregna-1,4-diene-3,20-dione;Dex-Cortidelt acetate;16α-Methyl-9α-fluoroprednisolone 21-acetate;Dexamethasone 21-acetate;Fortecortin (crystal suspension);Dexamethasone acetate;Fortecortin;Decadron LA;Dectancyl;Dexa-Cortisyl;Dalalone LA;Decadronal;Dalalone DP;NSC 39471;Prednitin",
    "duplicated_cas_no": "",
    "SMILES": "C[C@@]12[C@]([C@]3([C@@](F)([C@]4(C)C(CC3)=CC(=O)C=C4)[C@@H](O)C1)[H])(C[C@@H](C)[C@@]2(C(COC(C)=O)=O)O)[H]",
    "meta_data": {
        "InChI": "InChI=1S/C24H31FO6/c1-13-9-18-17-6-5-15-10-16(27)7-8-21(15,3)23(17,25)19(28)11-22(18,4)24(13,30)20(29)12-31-14(2)26/h7-8,10,13,17-19,28,30H,5-6,9,11-12H2,1-4H3/t13-,17+,18+,19+,21+,22+,23+,24+/m1/s1",
        "InChIKey": null,
        "Canonical SMILES": "O=C1C=CC2(C(=C1)CCC3C4CC(C)C(O)(C(=O)COC(=O)C)C4(C)CC(O)C32F)C",
        "Molecular Formula": "C<sub>24</sub>H<sub>31</sub>FO<sub>6</sub>",
        "Molecular Mass": "434.50",
        "Melting Point": "263 °C"
    }
}