{
    "cas_no": "1806-34-4",
    "key_name": "1,4-Bis(5-phenyl-2-oxazolyl)benzene",
    "cn_name": "1,4-双(5-苯基恶唑)苯;1,4-双[2-(5-苯基)恶唑基]苯;2,2\"-(1,4-亚苯基)双(5-苯基恶唑);POPOP;1,4-双(5-苯基-;",
    "alternate_name": "Oxazole, 2,2′-(1,4-phenylene)bis[5-phenyl-;Oxazole, 2,2′-<em>p</em>-phenylenebis[5-phenyl-;2,2′-(1,4-Phenylene)bis[5-phenyloxazole];<em>p</em>-Bis(5-phenyloxazol-2-yl)benzene;Di(phenyl-5-oxazolyl-2)-1,4-benzene;POPOP;2,2′-<em>p</em>-Phenylenebis(5-phenyloxazole);1,4-Bis(5-phenyl-2-oxazolyl)benzene;NSC 24859;1,4-Di(5-phenyl-2-oxazolyl)benzene;2,2′-(1,4-phenylene)bis(5-phenyl-1,3-oxazole)",
    "duplicated_cas_no": "",
    "SMILES": "C=1(OC(=CN1)C2=CC=CC=C2)C3=CC=C(C=C3)C=4OC(=CN4)C5=CC=CC=C5",
    "meta_data": {
        "InChI": "InChI=1S/C24H16N2O2/c1-3-7-17(8-4-1)21-15-25-23(27-21)19-11-13-20(14-12-19)24-26-16-22(28-24)18-9-5-2-6-10-18/h1-16H",
        "InChIKey": null,
        "Canonical SMILES": "N=1C=C(OC1C=2C=CC(=CC2)C3=NC=C(O3)C=4C=CC=CC4)C=5C=CC=CC5",
        "Molecular Formula": "C<sub>24</sub>H<sub>16</sub>N<sub>2</sub>O<sub>2</sub>",
        "Molecular Mass": "364.40",
        "Melting Point": "244-246 °C"
    }
}