{
    "cas_no": "1868-85-5",
    "key_name": "[2,3,5,6-Tetrafluoro-4-(trifluoromethyl)phenyl]hydrazine",
    "cn_name": "(Α,Α,Α,2,3,5,6-七氟-P-甲苯基)肼;",
    "alternate_name": "Hydrazine, [2,3,5,6-tetrafluoro-4-(trifluoromethyl)phenyl]-;Hydrazine, (heptafluoro-<em>p</em>-tolyl)-;[2,3,5,6-Tetrafluoro-4-(trifluoromethyl)phenyl]hydrazine;NSC 170067",
    "duplicated_cas_no": "",
    "SMILES": "C(F)(F)(F)C1=C(F)C(F)=C(NN)C(F)=C1F",
    "meta_data": {
        "InChI": "InChI=1S/C7H3F7N2/c8-2-1(7(12,13)14)3(9)5(11)6(16-15)4(2)10/h16H,15H2",
        "InChIKey": null,
        "Canonical SMILES": "FC=1C(F)=C(C(F)=C(F)C1NN)C(F)(F)F",
        "Molecular Formula": "C<sub>7</sub>H<sub>3</sub>F<sub>7</sub>N<sub>2</sub>",
        "Molecular Mass": "248.10",
        "Melting Point": "84 °C"
    }
}