{
    "cas_no": "310-71-4",
    "key_name": "2-Chloro-1-ethoxy-1,1,2-trifluoroethane",
    "cn_name": "2-氯-1,1,2-三氟乙基甲酯;2-氯-1,1,2-三氟乙基甲酯;",
    "alternate_name": "Ethane, 2-chloro-1-ethoxy-1,1,2-trifluoro-;Ether, 2-chloro-1,1,2-trifluoroethyl ethyl;2-Chloro-1-ethoxy-1,1,2-trifluoroethane;Ethoxyflurane;2-Chloro-1,1,2-trifluoroethyl ethyl ether",
    "duplicated_cas_no": "",
    "SMILES": "C(OCC)(C(Cl)F)(F)F",
    "meta_data": {
        "InChI": "InChI=1S/C4H6ClF3O/c1-2-9-4(7,8)3(5)6/h3H,2H2,1H3",
        "InChIKey": null,
        "Canonical SMILES": "FC(Cl)C(F)(F)OCC",
        "Molecular Formula": "C<sub>4</sub>H<sub>6</sub>ClF<sub>3</sub>O",
        "Molecular Mass": "162.54",
        "Boiling Point": "82 °C @ Press: 630 Torr"
    }
}