{
    "cas_no": "50-44-2",
    "key_name": "6-Mercaptopurine",
    "cn_name": "6-巯基嘌呤;",
    "alternate_name": "6<em>H</em>-Purine-6-thione, 1,9-dihydro-;Purine-6-thiol;6<em>H</em>-Purine-6-thione, 1,7-dihydro-;Purine-6(1<em>H</em>)-thione;1,9-Dihydro-6<em>H</em>-purine-6-thione;6-MP;NSC 755;Leukerin;6-Mercaptopurine;7-Mercapto-1,3,4,6-tetrazaindene;Purinethol;Hypoxanthine, thio-;Mercaptopurine;Purinethiol;6-Mercaptopurin;3<em>H</em>-Purine-6-thiol;1<em>H</em>-Purine, 6-mercapto-;Mercaleukin;6-Thiopurine;6-Thioxopurine;Ismipur;Leupurin;Mercapurin;Mern;6-Thiohypoxanthine;9<em>H</em>-Purine-6(1<em>H</em>)-thione;Purine-6-thione;1,7-Dihydro-6<em>H</em>-purine-6-thione;Purimethol;Thiohypoxanthine;Mercaleukim;U 4748;NSC 55477;NSC 68293;Purixan;1,9-Dihydro-purine-6-thione;3,7-Dihydropurine-6-thione;MeSH ID: D015122",
    "duplicated_cas_no": "5759-99-9;5818-60-0;5818-33-7;39454-94-9;111079-50-6",
    "SMILES": "S=C1C2=C(NC=N1)N=CN2",
    "meta_data": {
        "InChI": "InChI=1S/C5H4N4S/c10-5-3-4(7-1-6-3)8-2-9-5/h1-2H,(H2,6,7,8,9,10)",
        "InChIKey": null,
        "Canonical SMILES": "S=C1N=CNC=2N=CNC12",
        "Molecular Formula": "C<sub>5</sub>H<sub>4</sub>N<sub>4</sub>S",
        "Molecular Mass": "152.18",
        "Melting Point": "&gt;308 °C (decomp)"
    }
}