{
    "cas_no": "3314-35-0",
    "key_name": "3-Amino-1-phenyl-2-pyrazoline",
    "cn_name": "3-氨基-4,5-二氢-1-苯基吡唑;3-氨基-4,5-二氢-1-苯基吡唑;",
    "alternate_name": "1<em>H</em>-Pyrazol-3-amine, 4,5-dihydro-1-phenyl-;2-Pyrazoline, 3-amino-1-phenyl-;4,5-Dihydro-1-phenyl-1<em>H</em>-pyrazol-3-amine;3-Amino-1-phenyl-2-pyrazoline;3-Amino-1-phenylpyrazoline;3-Amino-1-phenyl-4,5-dihydropyrazole;NSC 162874;1-Phenyl-4,5-dihydro-1<em>H</em>-pyrazol-3-amine;2-Phenyl-3,4-dihydropyrazol-5-amine",
    "duplicated_cas_no": "13624-02-7",
    "SMILES": "NC1=NN(CC1)C2=CC=CC=C2",
    "meta_data": {
        "InChI": "InChI=1S/C9H11N3/c10-9-6-7-12(11-9)8-4-2-1-3-5-8/h1-5H,6-7H2,(H2,10,11)",
        "InChIKey": null,
        "Canonical SMILES": "N1=C(N)CCN1C=2C=CC=CC2",
        "Molecular Formula": "C<sub>9</sub>H<sub>11</sub>N<sub>3</sub>",
        "Molecular Mass": "161.20",
        "Melting Point": "169 °C"
    }
}