{
    "cas_no": "1303-00-0",
    "key_name": "Gallium arsenide",
    "cn_name": "砷化镓;",
    "alternate_name": "Gallium arsenide (GaAs);Gallium monoarsenide;Gallium arsenide;Gallium monoarsenide (GaAs);Arsenic alloy, base, As 52,Ga 48;Gallium alloy, nonbase, As 52,Ga 48;Arsenic 50, gallium 50 (atomic)",
    "duplicated_cas_no": "12254-95-4;106495-92-5;116443-03-9;117462-80-3;385800-12-4;817163-73-8;888030-71-5;959925-10-1;1018852-64-6;1099648-86-8;1434046-67-9;1825302-06-4;1979138-53-8;2009382-57-2;2242959-68-6;2294935-60-5",
    "SMILES": "[As]#[Ga]",
    "meta_data": {
        "InChI": "InChI=1S/As.Ga",
        "InChIKey": null,
        "Canonical SMILES": "[Ga]#[As]",
        "Molecular Formula": "AsGa",
        "Molecular Mass": "",
        "Melting Point": "1238 °C",
        "Density": "5.3176 g/cm³ @ Temp: 25 °C"
    }
}