{
    "cas_no": "765-69-5",
    "key_name": "2-Methyl-1,3-cyclopentanedione",
    "cn_name": "2-甲基-1,3-环戊二酮;",
    "alternate_name": "1,3-Cyclopentanedione, 2-methyl-;2-Methyl-1,3-cyclopentanedione;2-Methyl-1,3-cyclopentadione;NSC 54458",
    "duplicated_cas_no": "",
    "SMILES": "CC1C(=O)CCC1=O",
    "meta_data": {
        "InChI": "InChI=1S/C6H8O2/c1-4-5(7)2-3-6(4)8/h4H,2-3H2,1H3",
        "InChIKey": null,
        "Canonical SMILES": "O=C1CCC(=O)C1C",
        "Molecular Formula": "C<sub>6</sub>H<sub>8</sub>O<sub>2</sub>",
        "Molecular Mass": "112.13",
        "Melting Point": "212-214 °C"
    }
}