{
    "cas_no": "133605-27-3",
    "key_name": "2-Nitro-4-(trifluoromethyl)benzenemethanol",
    "cn_name": null,
    "alternate_name": "Benzenemethanol, 2-nitro-4-(trifluoromethyl)-;2-Nitro-4-(trifluoromethyl)benzenemethanol;(2-Nitro-4-trifluoromethylphenyl)methanol;2-Nitro-4-(trifluoromethyl)benzyl alcohol",
    "duplicated_cas_no": "",
    "SMILES": "N(=O)(=O)C1=C(CO)C=CC(C(F)(F)F)=C1",
    "meta_data": {
        "InChI": "InChI=1S/C8H6F3NO3/c9-8(10,11)6-2-1-5(4-13)7(3-6)12(14)15/h1-3,13H,4H2",
        "InChIKey": null,
        "Canonical SMILES": "O=N(=O)C1=CC(=CC=C1CO)C(F)(F)F",
        "Molecular Formula": "C<sub>8</sub>H<sub>6</sub>F<sub>3</sub>NO<sub>3</sub>",
        "Molecular Mass": "221.13",
        "Melting Point": "60-70 °C"
    }
}