{
    "cas_no": "61135-33-9",
    "key_name": "5-Ethynyl-2′-deoxyuridine",
    "cn_name": null,
    "alternate_name": "Uridine, 2′-deoxy-5-ethynyl-;2′-Deoxy-5-ethynyluridine;5-Ethynyl-2′-deoxyuridine;EdU;EdU staining;EdU assay;EdU staining assay",
    "duplicated_cas_no": "145764-51-8",
    "SMILES": "O=C1N([C@@H]2O[C@H](CO)[C@@H](O)C2)C=C(C#C)C(=O)N1",
    "meta_data": {
        "InChI": "InChI=1S/C11H12N2O5/c1-2-6-4-13(11(17)12-10(6)16)9-3-7(15)8(5-14)18-9/h1,4,7-9,14-15H,3,5H2,(H,12,16,17)/t7-,8+,9+/m0/s1",
        "InChIKey": null,
        "Canonical SMILES": "O=C1NC(=O)N(C=C1C#C)C2OC(CO)C(O)C2",
        "Molecular Formula": "C<sub>11</sub>H<sub>12</sub>N<sub>2</sub>O<sub>5</sub>",
        "Molecular Mass": "252.22",
        "Melting Point": "178-180 °C (decomp)"
    }
}