{
    "cas_no": "10300-69-3",
    "key_name": "Ethanimidamide, 2-chloro-, monohydrochloride",
    "cn_name": "氯乙酰胺盐酸盐;氯乙脒盐酸盐;",
    "alternate_name": "Ethanimidamide, 2-chloro-, monohydrochloride;Acetamidine, 2-chloro-, monohydrochloride;Acetamidine, 2-chloro-, hydrochloride;2-Chloroacetamidine hydrochloride;Chloroacetamidine hydrochloride;α-Chloroacetamidine hydrochloride;2-Chloroacetamidine monohydrochloride;2-Chloroethanimidamide hydrochloride;2-Chloroacetimidamide hydrochloride;2-Chloro-1-iminoethan-1-aminium chloride",
    "duplicated_cas_no": "",
    "SMILES": "C(CCl)(=N)N.Cl",
    "meta_data": {
        "InChI": "InChI=1S/C2H5ClN2.ClH/c3-1-2(4)5;/h1H2,(H3,4,5);1H",
        "InChIKey": null,
        "Canonical SMILES": "Cl.ClCC(=N)N",
        "Molecular Formula": "C<sub>2</sub>H<sub>5</sub>ClN<sub>2</sub>.ClH",
        "Molecular Mass": "",
        "Melting Point": "104-106 °C"
    }
}