{
    "cas_no": "110-06-5",
    "key_name": "<em>tert</em>-Butyl disulfide",
    "cn_name": "二叔丁基二硫;叔丁基二硫;二硫化叔丁基;叔丁基二硫醚;",
    "alternate_name": "Disulfide, bis(1,1-dimethylethyl);<em>tert</em>-Butyl disulfide;Bis(1,1-dimethylethyl) disulfide;Di-<em>tert</em>-butyl disulfide;2,2,5,5-Tetramethyl-3,4-dithiahexane;Bis(<em>tert</em>-butyl)disulfide;NSC 677434;2-(<em>tert</em>-Butyldisulfanyl)-2-methylpropane",
    "duplicated_cas_no": "",
    "SMILES": "S(SC(C)(C)C)C(C)(C)C",
    "meta_data": {
        "InChI": "InChI=1S/C8H18S2/c1-7(2,3)9-10-8(4,5)6/h1-6H3",
        "InChIKey": null,
        "Canonical SMILES": "S(SC(C)(C)C)C(C)(C)C",
        "Molecular Formula": "C<sub>8</sub>H<sub>18</sub>S<sub>2</sub>",
        "Molecular Mass": "178.36",
        "Boiling Point": "64 °C @ Press: 5.5 Torr",
        "Melting Point": "-5 °C",
        "Density": "0.9229 g/cm³ @ Temp: 20 °C"
    }
}