{
    "cas_no": "127-90-2",
    "key_name": "Octachlorodipropyl ether",
    "cn_name": "八氯二丙醚;二(2,3,3,3-四氯丙基)醚;",
    "alternate_name": "Propane, 1,1′-oxybis[2,3,3,3-tetrachloro-;Ether, bis(2,3,3,3-tetrachloropropyl);1,1′-Oxybis[2,3,3,3-tetrachloropropane];Bis(2,3,3,3-tetrachloropropyl) ether;Monsanto 16226;S 421;Octachlorodipropyl ether;Octachloro-di-<em>n</em>-propyl ether;2,3,3,3,2′,3′,3′,3′-Octachlorodipropyl ether;SV<sub>2</sub>",
    "duplicated_cas_no": "",
    "SMILES": "C(C(Cl)(Cl)Cl)(COCC(C(Cl)(Cl)Cl)Cl)Cl",
    "meta_data": {
        "InChI": "InChI=1S/C6H6Cl8O/c7-3(5(9,10)11)1-15-2-4(8)6(12,13)14/h3-4H,1-2H2",
        "InChIKey": null,
        "Canonical SMILES": "ClC(COCC(Cl)C(Cl)(Cl)Cl)C(Cl)(Cl)Cl",
        "Molecular Formula": "C<sub>6</sub>H<sub>6</sub>Cl<sub>8</sub>O",
        "Molecular Mass": "377.74",
        "Boiling Point": "147 °C",
        "Melting Point": "-50 °C"
    }
}