{
    "cas_no": "483-55-6",
    "key_name": "Phthiocol",
    "cn_name": null,
    "alternate_name": "1,4-Naphthalenedione, 2-hydroxy-3-methyl-;1,4-Naphthoquinone, 2-hydroxy-3-methyl-;Phthiocol;2-Hydroxy-3-methyl-1,4-naphthalenedione;2-Hydroxy-3-methyl-1,4-naphthoquinone;2-Methyl-3-hydroxy-1,4-naphthoquinone;3-Hydroxy-2-methyl-1,4-naphthoquinone;Phthiokol;2-Hydroxy-3-methylnaphthoquinone;Q 121;3-Methyl-2-hydroxy-1,4-naphthoquinone;NSC 11897;3-Hydroxy-2-methyl-1,4-naphthaquinone;3-Methyl-2-hydroxy-1,4-naphthalenedione;2-Hydroxy-3-methyl-1,4-dihydronaphthalene-1,4-dione",
    "duplicated_cas_no": "",
    "SMILES": "O=C1C=2C(C(=O)C(O)=C1C)=CC=CC2",
    "meta_data": {
        "InChI": "InChI=1S/C11H8O3/c1-6-9(12)7-4-2-3-5-8(7)11(14)10(6)13/h2-5,13H,1H3",
        "InChIKey": null,
        "Canonical SMILES": "O=C1C(O)=C(C(=O)C=2C=CC=CC12)C",
        "Molecular Formula": "C<sub>11</sub>H<sub>8</sub>O<sub>3</sub>",
        "Molecular Mass": "188.18",
        "Melting Point": "173.5 °C"
    }
}