{
    "cas_no": "5409-31-4",
    "key_name": "3,4-Diethoxybenzoic acid",
    "cn_name": "3,4-二乙氧基苯甲酸;",
    "alternate_name": "Benzoic acid, 3,4-diethoxy-;3,4-Diethoxybenzoic acid;NSC 10903;NSC 8515;3,4-Bis(ethyloxy)benzoic acid",
    "duplicated_cas_no": "943632-63-1",
    "SMILES": "O(CC)C1=C(OCC)C=CC(C(O)=O)=C1",
    "meta_data": {
        "InChI": "InChI=1S/C11H14O4/c1-3-14-9-6-5-8(11(12)13)7-10(9)15-4-2/h5-7H,3-4H2,1-2H3,(H,12,13)",
        "InChIKey": null,
        "Canonical SMILES": "O=C(O)C1=CC=C(OCC)C(OCC)=C1",
        "Molecular Formula": "C<sub>11</sub>H<sub>14</sub>O<sub>4</sub>",
        "Molecular Mass": "210.23",
        "Melting Point": "166-167 °C"
    }
}