{
    "cas_no": "90-30-2",
    "key_name": "Phenyl-1-naphthylamine",
    "cn_name": "1-萘氨基苯;N-(1-萘基)苯胺;防老剂A;",
    "alternate_name": "1-Naphthalenamine, <em>N</em>-phenyl-;1-Naphthylamine, <em>N</em>-phenyl-;<em>N</em>-Phenyl-1-naphthalenamine;C.I. 44050;Neozone A;<em>N</em>-Phenyl-α-naphthylamine;<em>N</em>-Phenyl-1-naphthylamine;Nonox A;Phenyl-1-naphthylamine;Antioxidant PAN;α-Naphthylphenylamine;<em>N</em>-(1-Naphthyl)aniline;Nonox AN;<em>N</em>-Phenyl-1-aminonaphthalene;Vulkanox PAN;Nocrac PA;PANA;1-Anilinonaphthalene;Antigene PA;1-(<em>N</em>-Phenylamino)naphthalene;Amoco 32;1-(Phenylamino)naphthalene;Naugard PANA;1-Naphthylphenylamine;Irganox L 05;<em>N</em>-(1-Naphthyl)-<em>N</em>-phenylamine;T 531;T 531 (antioxidant);Antioxidant A;NSC 2622;<em>N</em>-Phenyl-<em>N</em>-(1-naphthyl)amine;<em>N</em>-Phenyl-<em>N</em>′-naphthylamine;<em>N</em>-(Naphthalen-1-yl)aniline;Antioxidant PNA",
    "duplicated_cas_no": "219315-45-4",
    "SMILES": "N(C=1C2=C(C=CC1)C=CC=C2)C3=CC=CC=C3",
    "meta_data": {
        "InChI": "InChI=1S/C16H13N/c1-2-9-14(10-3-1)17-16-12-6-8-13-7-4-5-11-15(13)16/h1-12,17H",
        "InChIKey": null,
        "Canonical SMILES": "C=1C=CC(=CC1)NC2=CC=CC=3C=CC=CC32",
        "Molecular Formula": "C<sub>16</sub>H<sub>13</sub>N",
        "Molecular Mass": "219.28",
        "Boiling Point": "335 °C @ Press: 558 Torr",
        "Melting Point": "61 °C",
        "Density": "1.2 g/cm³"
    }
}