{
    "cas_no": "626-77-7",
    "key_name": "Propyl hexanoate",
    "cn_name": "己酸丙酯;己酸正丙酯;",
    "alternate_name": "Hexanoic acid, propyl ester;Propyl caproate;Propyl hexanoate;1-Propyl <em>n</em>-caproate;NSC 53784",
    "duplicated_cas_no": "",
    "SMILES": "C(C(OCCC)=O)CCCC",
    "meta_data": {
        "InChI": "InChI=1S/C9H18O2/c1-3-5-6-7-9(10)11-8-4-2/h3-8H2,1-2H3",
        "InChIKey": null,
        "Canonical SMILES": "O=C(OCCC)CCCCC",
        "Molecular Formula": "C<sub>9</sub>H<sub>18</sub>O<sub>2</sub>",
        "Molecular Mass": "158.24",
        "Boiling Point": "187 °C",
        "Melting Point": "-68.7 °C",
        "Density": "0.8847 g/cm³ @ Temp: 0 °C"
    }
}