{
    "cas_no": "6065-63-0",
    "key_name": "1,3-Diethyl 2,2-dipropylpropanedioate",
    "cn_name": "二丙基丙二酸二乙酯;",
    "alternate_name": "Propanedioic acid, 2,2-dipropyl-, 1,3-diethyl ester;Malonic acid, dipropyl-, diethyl ester;Propanedioic acid, dipropyl-, diethyl ester;1,3-Diethyl 2,2-dipropylpropanedioate;Diethyl dipropylmalonate;Diethyl 2,2-dipropylmalonate;NSC 163902",
    "duplicated_cas_no": "",
    "SMILES": "C(C(OCC)=O)(C(OCC)=O)(CCC)CCC",
    "meta_data": {
        "InChI": "InChI=1S/C13H24O4/c1-5-9-13(10-6-2,11(14)16-7-3)12(15)17-8-4/h5-10H2,1-4H3",
        "InChIKey": null,
        "Canonical SMILES": "O=C(OCC)C(C(=O)OCC)(CCC)CCC",
        "Molecular Formula": "C<sub>13</sub>H<sub>24</sub>O<sub>4</sub>",
        "Molecular Mass": "244.33",
        "Boiling Point": "127 °C @ Press: 4 Torr"
    }
}