{
    "cas_no": "24066-82-8",
    "key_name": "Ethyl 2-isothiocyanatoacetate",
    "cn_name": null,
    "alternate_name": "Acetic acid, 2-isothiocyanato-, ethyl ester;Acetic acid, isothiocyanato-, ethyl ester;Ethyl 2-isothiocyanatoacetate;Carbethoxymethyl isothiocyanate;Carboethoxymethyl isothiocyanate;Ethyl isothiocyanatoacetate;Ethoxycarbonylmethyl isothiocyanate;Isothiocyanatoacetic acid ethyl ester",
    "duplicated_cas_no": "",
    "SMILES": "C(CN=C=S)(OCC)=O",
    "meta_data": {
        "InChI": "InChI=1S/C5H7NO2S/c1-2-8-5(7)3-6-4-9/h2-3H2,1H3",
        "InChIKey": null,
        "Canonical SMILES": "O=C(OCC)CN=C=S",
        "Molecular Formula": "C<sub>5</sub>H<sub>7</sub>NO<sub>2</sub>S",
        "Molecular Mass": "145.18",
        "Boiling Point": "215 °C",
        "Density": "1.1710 g/cm³ @ Temp: 20 °C"
    }
}