{
    "cas_no": "1198-30-7",
    "key_name": "1-Isoquinolinecarbonitrile",
    "cn_name": "异喹啉-1-腈;1-氰基异喹啉;",
    "alternate_name": "1-Isoquinolinecarbonitrile;Isoquinaldonitrile;1-Cyanoisoquinoline;NSC 203335",
    "duplicated_cas_no": "",
    "SMILES": "C(#N)C=1C2=C(C=CN1)C=CC=C2",
    "meta_data": {
        "InChI": "InChI=1S/C10H6N2/c11-7-10-9-4-2-1-3-8(9)5-6-12-10/h1-6H",
        "InChIKey": null,
        "Canonical SMILES": "N#CC1=NC=CC=2C=CC=CC12",
        "Molecular Formula": "C<sub>10</sub>H<sub>6</sub>N<sub>2</sub>",
        "Molecular Mass": "154.17",
        "Melting Point": "89-89.5 °C"
    }
}