{
    "cas_no": "694-85-9",
    "key_name": "1-Methyl-2(1<em>H</em>)-pyridinone",
    "cn_name": "1-甲基-2-吡啶酮;",
    "alternate_name": "2(1<em>H</em>)-Pyridinone, 1-methyl-;2(1<em>H</em>)-Pyridone, 1-methyl-;1-Methyl-2(1<em>H</em>)-pyridinone;<em>N</em>-Methyl-2-pyridone;1-Methyl-2(1<em>H</em>)-pyridone;1-Methyl-2-pyridone;1-Methyl-2-pyridinone;1-Methyl-1,2-dihydro-2-pyridinone;1-Methyl-2-oxopyridine;NSC 9383;1-Methyl-1<em>H</em>-pyridin-2-one;1-Methylpyridin-1-ium-2-olate",
    "duplicated_cas_no": "3687-36-3;859803-97-7",
    "SMILES": "O=C1N(C)C=CC=C1",
    "meta_data": {
        "InChI": "InChI=1S/C6H7NO/c1-7-5-3-2-4-6(7)8/h2-5H,1H3",
        "InChIKey": null,
        "Canonical SMILES": "O=C1C=CC=CN1C",
        "Molecular Formula": "C<sub>6</sub>H<sub>7</sub>NO",
        "Molecular Mass": "109.13",
        "Boiling Point": "250 °C",
        "Melting Point": "31 °C"
    }
}