{
    "cas_no": "7790-79-6",
    "key_name": "Cadmium fluoride",
    "cn_name": null,
    "alternate_name": "Cadmium fluoride (CdF<sub>2</sub>);Cadmium fluoride;Cadmium difluoride",
    "duplicated_cas_no": "",
    "SMILES": "[Cd](F)F",
    "meta_data": {
        "InChI": "InChI=1S/Cd.2FH/h;2*1H/q+2;;/p-2",
        "InChIKey": null,
        "Canonical SMILES": "F[Cd]F",
        "Molecular Formula": "CdF<sub>2</sub>",
        "Molecular Mass": "",
        "Boiling Point": "1748 °C",
        "Melting Point": "1109 °C",
        "Density": "6.22 g/cm³"
    }
}