{
    "cas_no": "14736-50-6",
    "key_name": "1-Methyl 2-carboxybenzeneacetate",
    "cn_name": null,
    "alternate_name": "Benzeneacetic acid, 2-carboxy-, 1-methyl ester;<em>o</em>-Toluic acid, α-carboxy-, α-methyl ester;Benzeneacetic acid, 2-carboxy-, α-methyl ester;1-Methyl 2-carboxybenzeneacetate;2-(Methoxycarbonylmethyl)benzoic acid;Methyl <em>o</em>-carboxyphenylacetate;2-(2-Methoxy-2-oxoethyl)benzoic acid;Methyl (2-carboxyphenyl)acetate",
    "duplicated_cas_no": "78258-74-9",
    "SMILES": "C(O)(=O)C1=C(CC(OC)=O)C=CC=C1",
    "meta_data": {
        "InChI": "InChI=1S/C10H10O4/c1-14-9(11)6-7-4-2-3-5-8(7)10(12)13/h2-5H,6H2,1H3,(H,12,13)",
        "InChIKey": null,
        "Canonical SMILES": "O=C(O)C=1C=CC=CC1CC(=O)OC",
        "Molecular Formula": "C<sub>10</sub>H<sub>10</sub>O<sub>4</sub>",
        "Molecular Mass": "194.18",
        "Melting Point": "98-100 °C"
    }
}