{
    "cas_no": "3452-07-1",
    "key_name": "1-Eicosene",
    "cn_name": "1-二十碳烯;",
    "alternate_name": "1-Eicosene;Cetyl ethylene;α-Eicosene;Neodene C 20;NSC 77138;Methylene nonadecane",
    "duplicated_cas_no": "",
    "SMILES": "C(CCCCCCCCC=C)CCCCCCCCC",
    "meta_data": {
        "InChI": "InChI=1S/C20H40/c1-3-5-7-9-11-13-15-17-19-20-18-16-14-12-10-8-6-4-2/h3H,1,4-20H2,2H3",
        "InChIKey": null,
        "Canonical SMILES": "C=CCCCCCCCCCCCCCCCCCC",
        "Molecular Formula": "C<sub>20</sub>H<sub>40</sub>",
        "Molecular Mass": "280.53",
        "Boiling Point": "341 °C",
        "Melting Point": "28.5 °C",
        "Density": "0.815 g/cm³ @ Temp: 36 °C"
    }
}