{
    "cas_no": "2051-97-0",
    "key_name": "<em>N</em>-Benzylpyrrole",
    "cn_name": "N-苄基吡咯;1-苄基吡咯;",
    "alternate_name": "1<em>H</em>-Pyrrole, 1-(phenylmethyl)-;Pyrrole, 1-benzyl-;1-(Phenylmethyl)-1<em>H</em>-pyrrole;1-Benzylpyrrole;<em>N</em>-Benzylpyrrole;NSC 116806;NSC 4024;1-Benzyl-1<em>H</em>-pyrrole",
    "duplicated_cas_no": "",
    "SMILES": "C(C1=CC=CC=C1)N2C=CC=C2",
    "meta_data": {
        "InChI": "InChI=1S/C11H11N/c1-2-6-11(7-3-1)10-12-8-4-5-9-12/h1-9H,10H2",
        "InChIKey": null,
        "Canonical SMILES": "C=1C=CC(=CC1)CN2C=CC=C2",
        "Molecular Formula": "C<sub>11</sub>H<sub>11</sub>N",
        "Molecular Mass": "157.21",
        "Boiling Point": "247 °C",
        "Melting Point": "15 °C",
        "Density": "1.0183 g/cm³ @ Temp: 20 °C"
    }
}