{
    "cas_no": "113400-36-5",
    "key_name": "1-(1,1-Dimethylethyl) 2-(phenylmethyl) (2<em>S</em>)-5-oxo-1,2-pyrrolidinedicarboxylate",
    "cn_name": null,
    "alternate_name": "1,2-Pyrrolidinedicarboxylic acid, 5-oxo-, 1-(1,1-dimethylethyl) 2-(phenylmethyl) ester, (2<em>S</em>)-;1,2-Pyrrolidinedicarboxylic acid, 5-oxo-, 1-(1,1-dimethylethyl) 2-(phenylmethyl) ester, (<em>S</em>)-;1-(1,1-Dimethylethyl) 2-(phenylmethyl) (2<em>S</em>)-5-oxo-1,2-pyrrolidinedicarboxylate;2-Benzyl 1-<em>tert</em>-butyl (2<em>S</em>)-5-oxopyrrolidine-1,2-dicarboxylate;Benzyl <em>N</em>-Boc-pyroglutamate;<em>N</em>-<em>tert</em>-Butoxycarbonylpyroglutamic acid benzyl ester;(<em>S</em>)-2-Benzyl 1-<em>tert</em>-butyl 5-oxopyrrolidine-1,2-dicarboxylate;2-Benzyl 1-(<em>tert</em>-butyl) (<em>S</em>)-5-oxopyrrolidine-1,2-dicarboxylate;2-Benzyl 1-<em>tert</em>-butyl (2S)-5-oxopyrrolidine-1,2-dicarboxylate",
    "duplicated_cas_no": "",
    "SMILES": "C(OCC1=CC=CC=C1)(=O)[C@H]2N(C(OC(C)(C)C)=O)C(=O)CC2",
    "meta_data": {
        "InChI": "InChI=1S/C17H21NO5/c1-17(2,3)23-16(21)18-13(9-10-14(18)19)15(20)22-11-12-7-5-4-6-8-12/h4-8,13H,9-11H2,1-3H3/t13-/m0/s1",
        "InChIKey": null,
        "Canonical SMILES": "O=C(OC(C)(C)C)N1C(=O)CCC1C(=O)OCC=2C=CC=CC2",
        "Molecular Formula": "C<sub>17</sub>H<sub>21</sub>NO<sub>5</sub>",
        "Molecular Mass": "319.35",
        "Melting Point": "69-70 °C"
    }
}