{
    "cas_no": "5181-10-2",
    "key_name": "1,1′-Thiobis[4-chlorobenzene]",
    "cn_name": "4,4-二氯二苯硫醚;",
    "alternate_name": "Benzene, 1,1′-thiobis[4-chloro-;Sulfide, bis(<em>p</em>-chlorophenyl);1,1′-Thiobis[4-chlorobenzene];4,4′-Dichlorodiphenyl sulfide;<em>p</em>-Chlorophenyl sulfide;Bis(<em>p</em>-chlorophenyl) sulfide;Di-<em>p</em>-chlorophenyl sulfide;Bis(4-chlorophenyl) sulfide;4-Chlorophenyl sulfide;Di(4-chlorophenyl) sulfide;1,1′-Thiobis(4-chlorobenzene);NSC 40470",
    "duplicated_cas_no": "",
    "SMILES": "S(C1=CC=C(Cl)C=C1)C2=CC=C(Cl)C=C2",
    "meta_data": {
        "InChI": "InChI=1S/C12H8Cl2S/c13-9-1-5-11(6-2-9)15-12-7-3-10(14)4-8-12/h1-8H",
        "InChIKey": null,
        "Canonical SMILES": "ClC1=CC=C(SC2=CC=C(Cl)C=C2)C=C1",
        "Molecular Formula": "C<sub>12</sub>H<sub>8</sub>Cl<sub>2</sub>S",
        "Molecular Mass": "255.16",
        "Melting Point": "88-89 °C"
    }
}