{
    "cas_no": "6402-36-4",
    "key_name": "Traumatic acid",
    "cn_name": null,
    "alternate_name": "2-Dodecenedioic acid, (2<em>E</em>)-;2-Dodecenedioic acid, (<em>E</em>)-;Traumatic acid;2-Dodecenedioic acid, <em>trans</em>-;(2<em>E</em>)-2-Dodecenedioic acid;<em>trans</em>-2-Dodecenedioic acid;(<em>E</em>)-2-Dodecenedioic acid;<em>trans</em>-Traumatic acid",
    "duplicated_cas_no": "",
    "SMILES": "C(CC(O)=O)CCCCCC/C=C/C(O)=O",
    "meta_data": {
        "InChI": "InChI=1S/C12H20O4/c13-11(14)9-7-5-3-1-2-4-6-8-10-12(15)16/h7,9H,1-6,8,10H2,(H,13,14)(H,15,16)/b9-7+",
        "InChIKey": null,
        "Canonical SMILES": "O=C(O)C=CCCCCCCCCC(=O)O",
        "Molecular Formula": "C<sub>12</sub>H<sub>20</sub>O<sub>4</sub>",
        "Molecular Mass": "228.28",
        "Melting Point": "165.5 °C"
    }
}