{
    "cas_no": "537-40-6",
    "key_name": "Trilinolein",
    "cn_name": "三亚油精;",
    "alternate_name": "9,12-Octadecadienoic acid (9<em>Z</em>,12<em>Z</em>)-, 1,1′,1′′-(1,2,3-propanetriyl) ester;Linolein, tri-;9,12-Octadecadienoic acid (<em>Z</em>,<em>Z</em>)-, 1,2,3-propanetriyl ester;9,12-Octadecadienoic acid (9<em>Z</em>,12<em>Z</em>)-, 1,2,3-propanetriyl ester;Trilinolein;Glyceryl trilinoleate;Linoleic triglyceride;Trilinoleoylglycerol;Glycerol trilinoleate;Trilinoleyl glyceride;Triglyceride LLL;Glycerin trilinoleate;Efaderma F;LLL;LLL triacylglycerol;Linoleic acid triglyceride",
    "duplicated_cas_no": "138501-64-1;1704716-09-5",
    "SMILES": "C(OC(CCCCCCC/C=C\\C/C=C\\CCCCC)=O)(COC(CCCCCCC/C=C\\C/C=C\\CCCCC)=O)COC(CCCCCCC/C=C\\C/C=C\\CCCCC)=O",
    "meta_data": {
        "InChI": "InChI=1S/C57H98O6/c1-4-7-10-13-16-19-22-25-28-31-34-37-40-43-46-49-55(58)61-52-54(63-57(60)51-48-45-42-39-36-33-30-27-24-21-18-15-12-9-6-3)53-62-56(59)50-47-44-41-38-35-32-29-26-23-20-17-14-11-8-5-2/h16-21,25-30,54H,4-15,22-24,31-53H2,1-3H3/b19-16-,20-17-,21-18-,28-25-,29-26-,30-27-",
        "InChIKey": null,
        "Canonical SMILES": "O=C(OCC(OC(=O)CCCCCCCC=CCC=CCCCCC)COC(=O)CCCCCCCC=CCC=CCCCCC)CCCCCCCC=CCC=CCCCCC",
        "Molecular Formula": "C<sub>57</sub>H<sub>98</sub>O<sub>6</sub>",
        "Molecular Mass": "879.38",
        "Melting Point": "-5--4 °C",
        "Density": "0.9184 g/cm³ @ Temp: 40 °C"
    }
}