{
    "cas_no": "589-53-7",
    "key_name": "4-Methylheptane",
    "cn_name": "4-甲基庚烷;",
    "alternate_name": "Heptane, 4-methyl-;4-Methylheptane;NSC 73953",
    "duplicated_cas_no": "",
    "SMILES": "C(CCC)(CCC)C",
    "meta_data": {
        "InChI": "InChI=1S/C8H18/c1-4-6-8(3)7-5-2/h8H,4-7H2,1-3H3",
        "InChIKey": null,
        "Canonical SMILES": "CCCC(C)CCC",
        "Molecular Formula": "C<sub>8</sub>H<sub>18</sub>",
        "Molecular Mass": "114.23",
        "Boiling Point": "117.7 °C",
        "Melting Point": "-121 °C",
        "Density": "0.7217 g/cm³ @ Temp: 15 °C"
    }
}