{
    "cas_no": "25316-40-9",
    "key_name": "Doxorubicin hydrochloride",
    "cn_name": "盐酸多柔比星;盐酸柔红霉素;盐酸阿霉素;(8S-cis)-10-[(3-氨基-2,3,6-三去氧-a-L-来苏己吡喃基)-氧]-7,8,9,1;",
    "alternate_name": "5,12-Naphthacenedione, 10-[(3-amino-2,3,6-trideoxy-α-<span class=\"text-smallcaps\">L</span>-<em>lyxo</em>-hexopyranosyl)oxy]-7,8,9,10-tetrahydro-6,8,11-trihydroxy-8-(2-hydroxyacetyl)-1-methoxy-, hydrochloride (1:1), (8<em>S</em>,10<em>S</em>)-;Adriamycin, hydrochloride;5,12-Naphthacenedione, 10-[(3-amino-2,3,6-trideoxy-α-<span class=\"text-smallcaps\">L</span>-<em>lyxo</em>-hexopyranosyl)oxy]-7,8,9,10-tetrahydro-6,8,11-trihydroxy-8-(hydroxyacetyl)-1-methoxy-, hydrochloride, (8<em>S</em>-<em>cis</em>)-;5,12-Naphthacenedione, 10-[(3-amino-2,3,6-trideoxy-α-<span class=\"text-smallcaps\">L</span>-<em>lyxo</em>-hexopyranosyl)oxy]-7,8,9,10-tetrahydro-6,8,11-trihydroxy-8-(hydroxyacetyl)-1-methoxy-, hydrochloride, (8<em>S</em>,10<em>S</em>)-;Doxorubicin hydrochloride;Adriamycin;Adriacin;Adriblastina RD;Adriblastina;Adriblastin;ADR;DOX HCl;FI 6804;ADM hydrochloride;Hydroxydaunorubicin hydrochloride;FI 106;Adriablastina CS;Lipo-Dox;Adrosal;Ameisu hydrochloride;Myocet liposomal;Doxolipad;Caelyx pegylated liposomal;Doxorubicin-TEVA;Doxorubicin-LANS;2B 3-101;Doxotin;Caelyx;PEGylated liposomal DOX",
    "duplicated_cas_no": "",
    "SMILES": "OC=1C2=C([C@@H](O[C@H]3C[C@H](N)[C@H](O)[C@H](C)O3)C[C@@](C(CO)=O)(O)C2)C(O)=C4C1C(=O)C=5C(C4=O)=C(OC)C=CC5.Cl",
    "meta_data": {
        "InChI": "InChI=1S/C27H29NO11.ClH/c1-10-22(31)13(28)6-17(38-10)39-15-8-27(36,16(30)9-29)7-12-19(15)26(35)21-20(24(12)33)23(32)11-4-3-5-14(37-2)18(11)25(21)34;/h3-5,10,13,15,17,22,29,31,33,35-36H,6-9,28H2,1-2H3;1H/t10-,13-,15-,17-,22+,27-;/m0./s1",
        "InChIKey": null,
        "Canonical SMILES": "Cl.O=C1C=2C=CC=C(OC)C2C(=O)C=3C(O)=C4C(=C(O)C13)CC(O)(C(=O)CO)CC4OC5OC(C)C(O)C(N)C5",
        "Molecular Formula": "C<sub>27</sub>H<sub>29</sub>NO<sub>11</sub>.ClH",
        "Molecular Mass": "",
        "Melting Point": "204-205 °C"
    }
}