{
    "cas_no": "65145-13-3",
    "key_name": "2-Fluoro-4-hydroxybenzoic acid",
    "cn_name": "2-氟-4-羟基苯甲酸;",
    "alternate_name": "Benzoic acid, 2-fluoro-4-hydroxy-;2-Fluoro-4-hydroxybenzoic acid;4-Hydroxy-2-fluorobenzoic acid",
    "duplicated_cas_no": "",
    "SMILES": "C(O)(=O)C1=C(F)C=C(O)C=C1",
    "meta_data": {
        "InChI": "InChI=1S/C7H5FO3/c8-6-3-4(9)1-2-5(6)7(10)11/h1-3,9H,(H,10,11)",
        "InChIKey": null,
        "Canonical SMILES": "O=C(O)C1=CC=C(O)C=C1F",
        "Molecular Formula": "C<sub>7</sub>H<sub>5</sub>FO<sub>3</sub>",
        "Molecular Mass": "156.11",
        "Melting Point": "200-202 °C"
    }
}