{
    "cas_no": "14280-53-6",
    "key_name": "Indium bromide (InBr)",
    "cn_name": "溴化铟;溴化亚铟;",
    "alternate_name": "Indium bromide (InBr);Indium monobromide;Indium(1+) bromide;Indium(I) bromide",
    "duplicated_cas_no": "",
    "SMILES": "Br[In]",
    "meta_data": {
        "InChI": "InChI=1S/BrH.In/h1H;/q;+1/p-1",
        "InChIKey": null,
        "Canonical SMILES": "Br[In]",
        "Molecular Formula": "BrIn",
        "Molecular Mass": "",
        "Melting Point": "290 °C"
    }
}