{
    "cas_no": "782-45-6",
    "key_name": "4-Amino-<em>N</em>-phenylbenzamide",
    "cn_name": "4-氨基苯甲酰替苯胺;",
    "alternate_name": "Benzamide, 4-amino-<em>N</em>-phenyl-;Benzanilide, 4-amino-;4-Amino-<em>N</em>-phenylbenzamide;4-Aminobenzanilide;<em>N</em>-Phenyl-4-aminobenzamide;1-Aminobenzene-4-carboxylic acid phenylamide",
    "duplicated_cas_no": "",
    "SMILES": "C(NC1=CC=CC=C1)(=O)C2=CC=C(N)C=C2",
    "meta_data": {
        "InChI": "InChI=1S/C13H12N2O/c14-11-8-6-10(7-9-11)13(16)15-12-4-2-1-3-5-12/h1-9H,14H2,(H,15,16)",
        "InChIKey": null,
        "Canonical SMILES": "O=C(NC=1C=CC=CC1)C2=CC=C(N)C=C2",
        "Molecular Formula": "C<sub>13</sub>H<sub>12</sub>N<sub>2</sub>O",
        "Molecular Mass": "212.25",
        "Melting Point": "135-136 °C"
    }
}