{
    "cas_no": "5332-25-2",
    "key_name": "6-Bromoquinoline",
    "cn_name": "6-溴喹啉;",
    "alternate_name": "Quinoline, 6-bromo-;6-Bromoquinoline;NSC 3996",
    "duplicated_cas_no": "",
    "SMILES": "BrC1=CC2=C(C=C1)N=CC=C2",
    "meta_data": {
        "InChI": "InChI=1S/C9H6BrN/c10-8-3-4-9-7(6-8)2-1-5-11-9/h1-6H",
        "InChIKey": null,
        "Canonical SMILES": "BrC=1C=CC2=NC=CC=C2C1",
        "Molecular Formula": "C<sub>9</sub>H<sub>6</sub>BrN",
        "Molecular Mass": "208.05",
        "Boiling Point": "281 °C",
        "Melting Point": "24 °C"
    }
}