{
    "cas_no": "13754-86-4",
    "key_name": "1,5,6,7-Tetrahydro-4<em>H</em>-indol-4-one",
    "cn_name": "1,5,6,7-四氢-4H-吲哚-4-酮;4-氧代-1,5,6,7-四氢吲哚;",
    "alternate_name": "4<em>H</em>-Indol-4-one, 1,5,6,7-tetrahydro-;Indol-4(5<em>H</em>)-one, 6,7-dihydro-;1,5,6,7-Tetrahydro-4<em>H</em>-indol-4-one;4-Oxo-4,5,6,7-tetrahydroindole;4,5,6,7-Tetrahydro-4-indolone;4,5,6,7-Tetrahydro-4-oxoindole;1,5,6,7-Tetrahydroindol-4-one;NSC 131681;6,7-Dihydro-1<em>H</em>-indol-4(5<em>H</em>)-one",
    "duplicated_cas_no": "",
    "SMILES": "O=C1C2=C(CCC1)NC=C2",
    "meta_data": {
        "InChI": "InChI=1S/C8H9NO/c10-8-3-1-2-7-6(8)4-5-9-7/h4-5,9H,1-3H2",
        "InChIKey": null,
        "Canonical SMILES": "O=C1C=2C=CNC2CCC1",
        "Molecular Formula": "C<sub>8</sub>H<sub>9</sub>NO",
        "Molecular Mass": "135.16",
        "Boiling Point": "160-180 °C @ Press: 0.02 Torr",
        "Melting Point": "187-188 °C"
    }
}