{
    "cas_no": "5417-63-0",
    "key_name": "3-Amino-2-naphthol",
    "cn_name": null,
    "alternate_name": "2-Naphthalenol, 3-amino-;2-Naphthol, 3-amino-;3-Amino-2-naphthalenol;3-Amino-2-naphthol;2-Amino-3-naphthol;2-Amino-3-hydroxynaphthalene;3-Hydroxy-2-naphthylamine;3-Amino-β-naphthol;3-Hydroxy-2-aminonaphthalene;3-Amino-2-hydroxynaphthalene;NSC 7941",
    "duplicated_cas_no": "",
    "SMILES": "NC1=CC2=C(C=C1O)C=CC=C2",
    "meta_data": {
        "InChI": "InChI=1S/C10H9NO/c11-9-5-7-3-1-2-4-8(7)6-10(9)12/h1-6,12H,11H2",
        "InChIKey": null,
        "Canonical SMILES": "OC1=CC=2C=CC=CC2C=C1N",
        "Molecular Formula": "C<sub>10</sub>H<sub>9</sub>NO",
        "Molecular Mass": "159.18",
        "Melting Point": "205 °C"
    }
}