{
    "cas_no": "92-24-0",
    "key_name": "Naphthacene",
    "cn_name": "2,3-苯并蒽;并四苯;2,3-苯并蒽;苯并[B]蒽;",
    "alternate_name": "Naphthacene;Benz[<em>b</em>]anthracene;2,3-Benzanthrene;Chrysogen;Rubene;Tetracene (hydrocarbon);2,3-Benzanthracene;Tetracene",
    "duplicated_cas_no": "",
    "SMILES": "C12=C(C=C3C(=C1)C=CC=C3)C=C4C(=C2)C=CC=C4",
    "meta_data": {
        "InChI": "InChI=1S/C18H12/c1-2-6-14-10-18-12-16-8-4-3-7-15(16)11-17(18)9-13(14)5-1/h1-12H",
        "InChIKey": null,
        "Canonical SMILES": "C=1C=CC2=CC3=CC=4C=CC=CC4C=C3C=C2C1",
        "Molecular Formula": "C<sub>18</sub>H<sub>12</sub>",
        "Molecular Mass": "228.29",
        "Boiling Point": "190-191 °C @ Press: 12 Torr",
        "Melting Point": "357 °C"
    }
}