{
    "cas_no": "126801-58-9",
    "key_name": "Ethoxysulfuron",
    "cn_name": "乙氧嘧磺隆;1-(4,6-二甲氧基嘧啶-2-基)-3-(2-乙氧基苯氧磺酰基)脲;",
    "alternate_name": "Sulfamic acid, <em>N</em>-[[(4,6-dimethoxy-2-pyrimidinyl)amino]carbonyl]-, 2-ethoxyphenyl ester;Sulfamic acid, [[(4,6-dimethoxy-2-pyrimidinyl)amino]carbonyl]-, 2-ethoxyphenyl ester;HOE 095404;Ethoxysulfuron;Gladium",
    "duplicated_cas_no": "",
    "SMILES": "O(S(NC(NC=1N=C(OC)C=C(OC)N1)=O)(=O)=O)C2=C(OCC)C=CC=C2",
    "meta_data": {
        "InChI": "InChI=1S/C15H18N4O7S/c1-4-25-10-7-5-6-8-11(10)26-27(21,22)19-15(20)18-14-16-12(23-2)9-13(17-14)24-3/h5-9H,4H2,1-3H3,(H2,16,17,18,19,20)",
        "InChIKey": null,
        "Canonical SMILES": "O=C(NC1=NC(OC)=CC(=N1)OC)NS(=O)(=O)OC=2C=CC=CC2OCC",
        "Molecular Formula": "C<sub>15</sub>H<sub>18</sub>N<sub>4</sub>O<sub>7</sub>S",
        "Molecular Mass": "398.39",
        "Melting Point": "145 °C"
    }
}