{
    "cas_no": "7473-45-2",
    "key_name": "Methyl β-<span class=\"text-smallcaps\">D</span>-ribofuranoside",
    "cn_name": "甲基-beta-D-呋喃核糖苷;",
    "alternate_name": "β-<span class=\"text-smallcaps\">D</span>-Ribofuranoside, methyl;Ribofuranoside, methyl, β-<span class=\"text-smallcaps\">D</span>-;Methyl β-<span class=\"text-smallcaps\">D</span>-ribofuranoside;NSC 400285",
    "duplicated_cas_no": "",
    "SMILES": "C(O)[C@@H]1[C@@H](O)[C@@H](O)[C@H](OC)O1",
    "meta_data": {
        "InChI": "InChI=1S/C6H12O5/c1-10-6-5(9)4(8)3(2-7)11-6/h3-9H,2H2,1H3/t3-,4-,5-,6-/m1/s1",
        "InChIKey": null,
        "Canonical SMILES": "OCC1OC(OC)C(O)C1O",
        "Molecular Formula": "C<sub>6</sub>H<sub>12</sub>O<sub>5</sub>",
        "Molecular Mass": "164.16",
        "Melting Point": "80 °C"
    }
}