{
    "cas_no": "98-13-5",
    "key_name": "Phenyltrichlorosilane",
    "cn_name": "苯基三氯硅烷;",
    "alternate_name": "Benzene, (trichlorosilyl)-;Silane, trichlorophenyl-;(Trichlorosilyl)benzene;Phenylsilicon trichloride;Phenyltrichlorosilane;Silicon phenyl trichloride;Trichlorophenylsilane;Phenylsilyl trichloride;TSL 8063;KA 103;NSC 77080;phenyl chloride silicide",
    "duplicated_cas_no": "155684-39-2;155684-07-4",
    "SMILES": "[Si](Cl)(Cl)(Cl)C1=CC=CC=C1",
    "meta_data": {
        "InChI": "InChI=1S/C6H5Cl3Si/c7-10(8,9)6-4-2-1-3-5-6/h1-5H",
        "InChIKey": null,
        "Canonical SMILES": "Cl[Si](Cl)(Cl)C=1C=CC=CC1",
        "Molecular Formula": "C<sub>6</sub>H<sub>5</sub>Cl<sub>3</sub>Si",
        "Molecular Mass": "211.55",
        "Boiling Point": "201 °C",
        "Melting Point": "-33 °C",
        "Density": "1.321 g/cm³ @ Temp: 25 °C"
    }
}