{
    "cas_no": "112-07-2",
    "key_name": "Glycol monobutyl ether acetate",
    "cn_name": "乙二醇丁醚醋酸酯;丁基溶纤剂醋酸酯;乙酸-2-丁氧基乙酯;乙酸丁氧基乙酯;乙二醇醋酸丁醚;",
    "alternate_name": "Ethanol, 2-butoxy-, 1-acetate;Ethanol, 2-butoxy-, acetate;Butyl cellosolve acetate;Ethylene glycol monobutyl ether acetate;Glycol monobutyl ether acetate;2-Butoxyethyl acetate;Butoxyethyl acetate;Butyl glycol acetate;Ethylene glycol butyl ether acetate;Dowanol EB acetate;BCA;EB Acetate;Ethylene glycol acetate monobutyl ether;B 0700;BMGAC;Ethylene glycol <em>n</em>-butyl ether acetate",
    "duplicated_cas_no": "",
    "SMILES": "C(OCCCC)COC(C)=O",
    "meta_data": {
        "InChI": "InChI=1S/C8H16O3/c1-3-4-5-10-6-7-11-8(2)9/h3-7H2,1-2H3",
        "InChIKey": null,
        "Canonical SMILES": "O=C(OCCOCCCC)C",
        "Molecular Formula": "C<sub>8</sub>H<sub>16</sub>O<sub>3</sub>",
        "Molecular Mass": "160.21",
        "Boiling Point": "192.3 °C",
        "Melting Point": "-64 °C",
        "Density": "0.9422 g/cm³ @ Temp: 20 °C"
    }
}