{
    "cas_no": "135-98-8",
    "key_name": "<em>sec</em>-Butylbenzene",
    "cn_name": "仲丁基苯;",
    "alternate_name": "Benzene, (1-methylpropyl)-;Benzene, <em>sec</em>-butyl-;(1-Methylpropyl)benzene;<em>sec</em>-Butylbenzene;2-Phenylbutane;(α-Methylpropyl)benzene;(±)-<em>sec</em>-Butylbenzene;(<em>RS</em>)-2-Phenylbutane;NSC 8466",
    "duplicated_cas_no": "36383-15-0",
    "SMILES": "C(CC)(C)C1=CC=CC=C1",
    "meta_data": {
        "InChI": "InChI=1S/C10H14/c1-3-9(2)10-7-5-4-6-8-10/h4-9H,3H2,1-2H3",
        "InChIKey": null,
        "Canonical SMILES": "C=1C=CC(=CC1)C(C)CC",
        "Molecular Formula": "C<sub>10</sub>H<sub>14</sub>",
        "Molecular Mass": "134.22",
        "Boiling Point": "173.5 °C",
        "Melting Point": "-82.7 °C",
        "Density": "0.8580 g/cm³ @ Temp: 25 °C"
    }
}