{
    "cas_no": "543-59-9",
    "key_name": "1-Chloropentane",
    "cn_name": "1-氯戊烷;",
    "alternate_name": "Pentane, 1-chloro-;1-Chloropentane;Amyl chloride;Pentyl chloride;<em>n</em>-Pentyl chloride;<em>n</em>-Amyl chloride;NSC 7898",
    "duplicated_cas_no": "",
    "SMILES": "C(CCCl)CC",
    "meta_data": {
        "InChI": "InChI=1S/C5H11Cl/c1-2-3-4-5-6/h2-5H2,1H3",
        "InChIKey": null,
        "Canonical SMILES": "ClCCCCC",
        "Molecular Formula": "C<sub>5</sub>H<sub>11</sub>Cl",
        "Molecular Mass": "106.59",
        "Boiling Point": "107.8 °C @ Press: 760 Torr",
        "Melting Point": "-99 °C",
        "Density": "0.8818 g/cm³ @ Temp: 20 °C"
    }
}