{
    "cas_no": "60252-79-1",
    "key_name": "4-[(4-Fluorophenyl)amino]-4-oxo-2-butenoic acid",
    "cn_name": null,
    "alternate_name": "2-Butenoic acid, 4-[(4-fluorophenyl)amino]-4-oxo-;4-[(4-Fluorophenyl)amino]-4-oxo-2-butenoic acid",
    "duplicated_cas_no": "",
    "SMILES": "N(C(C=CC(O)=O)=O)C1=CC=C(F)C=C1",
    "meta_data": {
        "InChI": "InChI=1S/C10H8FNO3/c11-7-1-3-8(4-2-7)12-9(13)5-6-10(14)15/h1-6H,(H,12,13)(H,14,15)",
        "InChIKey": null,
        "Canonical SMILES": "O=C(O)C=CC(=O)NC1=CC=C(F)C=C1",
        "Molecular Formula": "C<sub>10</sub>H<sub>8</sub>FNO<sub>3</sub>",
        "Molecular Mass": "209.17",
        "Melting Point": "211-212 °C"
    }
}