{
    "cas_no": "21763-80-4",
    "key_name": "5-Hydroxy-6,7,3′,4′-tetramethoxyflavone",
    "cn_name": null,
    "alternate_name": "4<em>H</em>-1-Benzopyran-4-one, 2-(3,4-dimethoxyphenyl)-5-hydroxy-6,7-dimethoxy-;Flavone, 5-hydroxy-3′,4′,6,7-tetramethoxy-;2-(3,4-Dimethoxyphenyl)-5-hydroxy-6,7-dimethoxy-4<em>H</em>-1-benzopyran-4-one;5-Hydroxy-6,7,3′,4′-tetramethoxyflavone;5-Hydroxy-3′,4′,6,7-tetramethoxyflavone;3′-<em>O</em>-Methyleupatorin;6-Methoxyluteolin 3′,4′,7-trimethyl ether;6,7,3′,4′-Tetramethoxy-5-hydroxyflavone;Santaflavone;6-Methoxyluteolin 7,3′,4′-trimethyl ether;5-Desmethylsinensetin",
    "duplicated_cas_no": "",
    "SMILES": "OC1=C2C(OC(=CC2=O)C3=CC(OC)=C(OC)C=C3)=CC(OC)=C1OC",
    "meta_data": {
        "InChI": "InChI=1S/C19H18O7/c1-22-12-6-5-10(7-14(12)23-2)13-8-11(20)17-15(26-13)9-16(24-3)19(25-4)18(17)21/h5-9,21H,1-4H3",
        "InChIKey": null,
        "Canonical SMILES": "O=C1C=C(OC=2C=C(OC)C(OC)=C(O)C12)C=3C=CC(OC)=C(OC)C3",
        "Molecular Formula": "C<sub>19</sub>H<sub>18</sub>O<sub>7</sub>",
        "Molecular Mass": "358.34",
        "Melting Point": "189-190 °C"
    }
}