{
    "cas_no": "4647-20-5",
    "key_name": "Icomethasone",
    "cn_name": null,
    "alternate_name": "Pregna-1,4-diene-3,20-dione, 9-chloro-11,17,21-trihydroxy-16-methyl-, (11β,16α)-;Pregna-1,4-diene-3,20-dione, 9-chloro-11β,17,21-trihydroxy-16α-methyl-;(11β,16α)-9-Chloro-11,17,21-trihydroxy-16-methylpregna-1,4-diene-3,20-dione;Icometasone;Icomethasone",
    "duplicated_cas_no": "",
    "SMILES": "Cl[C@@]12[C@]([C@]3([C@](C)(C[C@@H]1O)[C@](C(CO)=O)(O)[C@H](C)C3)[H])(CCC=4[C@]2(C)C=CC(=O)C4)[H]",
    "meta_data": {
        "InChI": "InChI=1S/C22H29ClO5/c1-12-8-16-15-5-4-13-9-14(25)6-7-19(13,2)21(15,23)17(26)10-20(16,3)22(12,28)18(27)11-24/h6-7,9,12,15-17,24,26,28H,4-5,8,10-11H2,1-3H3/t12-,15+,16+,17+,19+,20+,21+,22+/m1/s1",
        "InChIKey": null,
        "Canonical SMILES": "O=C1C=CC2(C(=C1)CCC3C4CC(C)C(O)(C(=O)CO)C4(C)CC(O)C32Cl)C",
        "Molecular Formula": "C<sub>22</sub>H<sub>29</sub>ClO<sub>5</sub>",
        "Molecular Mass": "408.92",
        "Melting Point": "229-234 °C"
    }
}