{
    "cas_no": "708-25-8",
    "key_name": "Benzoic acid, 2,5-difluoro-, ethyl ester",
    "cn_name": null,
    "alternate_name": "Benzoic acid, 2,5-difluoro-, ethyl ester;Ethyl 2,5-difluorobenzoate;Ethyl 2-fluoro-5-fluorobenzoate",
    "duplicated_cas_no": "",
    "SMILES": "C(OCC)(=O)C1=C(F)C=CC(F)=C1",
    "meta_data": {
        "InChI": "InChI=1S/C9H8F2O2/c1-2-13-9(12)7-5-6(10)3-4-8(7)11/h3-5H,2H2,1H3",
        "InChIKey": null,
        "Canonical SMILES": "O=C(OCC)C1=CC(F)=CC=C1F",
        "Molecular Formula": "C<sub>9</sub>H<sub>8</sub>F<sub>2</sub>O<sub>2</sub>",
        "Molecular Mass": "186.16",
        "Boiling Point": "98-99 °C @ Press: 18 Torr"
    }
}