{
    "cas_no": "346-55-4",
    "key_name": "4-Chloro-7-(trifluoromethyl)quinoline",
    "cn_name": "4-氯-7-三氟甲基喹啉;",
    "alternate_name": "Quinoline, 4-chloro-7-(trifluoromethyl)-;4-Chloro-7-(trifluoromethyl)quinoline;4-Chloro-7-trifluoromethylquinoline",
    "duplicated_cas_no": "866228-56-0",
    "SMILES": "ClC=1C2=C(C=C(C(F)(F)F)C=C2)N=CC1",
    "meta_data": {
        "InChI": "InChI=1S/C10H5ClF3N/c11-8-3-4-15-9-5-6(10(12,13)14)1-2-7(8)9/h1-5H",
        "InChIKey": null,
        "Canonical SMILES": "FC(F)(F)C=1C=CC2=C(Cl)C=CN=C2C1",
        "Molecular Formula": "C<sub>10</sub>H<sub>5</sub>ClF<sub>3</sub>N",
        "Molecular Mass": "231.60",
        "Melting Point": "71-72 °C"
    }
}