{
    "cas_no": "540-73-8",
    "key_name": "1,2-Dimethylhydrazine",
    "cn_name": null,
    "alternate_name": "Hydrazine, 1,2-dimethyl-;<em>N</em>,<em>N</em>′-Dimethylhydrazine;<em>sym</em>-Dimethylhydrazine;Hydrazomethane;SDMH;1,2-Dimethylhydrazine;DMH;MeSH ID: D019813",
    "duplicated_cas_no": "",
    "SMILES": "N(NC)C",
    "meta_data": {
        "InChI": "InChI=1S/C2H8N2/c1-3-4-2/h3-4H,1-2H3",
        "InChIKey": null,
        "Canonical SMILES": "N(NC)C",
        "Molecular Formula": "C<sub>2</sub>H<sub>8</sub>N<sub>2</sub>",
        "Molecular Mass": "60.10",
        "Boiling Point": "81 °C @ Press: 753 Torr",
        "Melting Point": "-9 °C",
        "Density": "0.8274 g/cm³ @ Temp: 20 °C"
    }
}