{
    "cas_no": "7616-94-6",
    "key_name": "Perchloryl fluoride",
    "cn_name": "过氯酰氟;",
    "alternate_name": "Perchloryl fluoride ((ClO<sub>3</sub>)F);Perchloryl fluoride;Chlorine fluoride oxide (ClO<sub>3</sub>F);Chlorine oxyfluoride (ClO<sub>3</sub>F);Trioxychlorofluoride;Perchloroyl fluoride",
    "duplicated_cas_no": "13862-60-7",
    "SMILES": "Cl(F)(=O)(=O)=O",
    "meta_data": {
        "InChI": "InChI=1S/ClFO3/c2-1(3,4)5",
        "InChIKey": null,
        "Canonical SMILES": "O=Cl(=O)(=O)F",
        "Molecular Formula": "ClFO<sub>3</sub>",
        "Molecular Mass": "102.45",
        "Boiling Point": "-46.8 °C",
        "Melting Point": "-146 °C",
        "Density": "1.4 g/cm³"
    }
}