{
    "cas_no": "13465-77-5",
    "key_name": "1,1,1,2,2,2-Hexachlorodisilane",
    "cn_name": "六氯乙硅烷;",
    "alternate_name": "Disilane, 1,1,1,2,2,2-hexachloro-;Silicon chloride (Si<sub>2</sub>Cl<sub>6</sub>);Disilane, hexachloro-;1,1,1,2,2,2-Hexachlorodisilane;Hexachlorodisilane;Disilicon hexachloride",
    "duplicated_cas_no": "",
    "SMILES": "[Si]([Si](Cl)(Cl)Cl)(Cl)(Cl)Cl",
    "meta_data": {
        "InChI": "InChI=1S/Cl6Si2/c1-7(2,3)8(4,5)6",
        "InChIKey": null,
        "Canonical SMILES": "Cl[Si](Cl)(Cl)[Si](Cl)(Cl)Cl",
        "Molecular Formula": "Cl<sub>6</sub>Si<sub>2</sub>",
        "Molecular Mass": "268.89",
        "Boiling Point": "144-146 °C",
        "Melting Point": "-1 °C",
        "Density": "1.562 g/cm³"
    }
}