{
    "cas_no": "1428-67-7",
    "key_name": "2,3-Bis(4-hydroxyphenyl)propionitrile",
    "cn_name": "2,3-双(4-羟苯基)丙腈;",
    "alternate_name": "Benzenepropanenitrile, 4-hydroxy-α-(4-hydroxyphenyl)-;Propionitrile, 2,3-bis(<em>p</em>-hydroxyphenyl)-;4-Hydroxy-α-(4-hydroxyphenyl)benzenepropanenitrile;DPN;2,3-Bis(<em>p</em>-hydroxyphenyl)propionitrile;2,3-Bis(4-hydroxyphenyl)propionitrile;2,3-Bis(4-hydroxyphenyl)propanenitrile",
    "duplicated_cas_no": "",
    "SMILES": "C(CC1=CC=C(O)C=C1)(C#N)C2=CC=C(O)C=C2",
    "meta_data": {
        "InChI": "InChI=1S/C15H13NO2/c16-10-13(12-3-7-15(18)8-4-12)9-11-1-5-14(17)6-2-11/h1-8,13,17-18H,9H2",
        "InChIKey": null,
        "Canonical SMILES": "N#CC(C1=CC=C(O)C=C1)CC2=CC=C(O)C=C2",
        "Molecular Formula": "C<sub>15</sub>H<sub>13</sub>NO<sub>2</sub>",
        "Molecular Mass": "239.27",
        "Melting Point": "197.5-199.5 °C"
    }
}