{
    "cas_no": "82956-11-4",
    "key_name": "Nafamostat mesylate",
    "cn_name": null,
    "alternate_name": "Benzoic acid, 4-[(aminoiminomethyl)amino]-, 6-(aminoiminomethyl)-2-naphthalenyl ester, methanesulfonate (1:2);Benzoic acid, 4-[(aminoiminomethyl)amino]-, 6-(aminoiminomethyl)-2-naphthalenyl ester, dimethanesulfonate;FUT 175;Nafamostat mesylate;Nafamostat mesilate;6-Amidino-2-naphthyl <em>p</em>-guanidinobenzoate dimethanesulfonate;Futhan;Nafamostat dimethanesulfonate;Nafamastat mesylate;Coahibitor",
    "duplicated_cas_no": "",
    "SMILES": "C(=N)(N)C1=CC2=C(C=C(OC(=O)C3=CC=C(NC(=N)N)C=C3)C=C2)C=C1.S(C)(=O)(=O)O",
    "meta_data": {
        "InChI": "InChI=1S/C19H17N5O2.CH4O3S/c20-17(21)14-2-1-13-10-16(8-5-12(13)9-14)26-18(25)11-3-6-15(7-4-11)24-19(22)23;1-5(2,3)4/h1-10H,(H3,20,21)(H4,22,23,24);1H3,(H,2,3,4)",
        "InChIKey": null,
        "Canonical SMILES": "O=C(OC=1C=CC2=CC(=CC=C2C1)C(=N)N)C3=CC=C(C=C3)NC(=N)N.O=S(=O)(O)C",
        "Molecular Formula": "C<sub>19</sub>H<sub>17</sub>N<sub>5</sub>O<sub>2</sub>.2CH<sub>4</sub>O<sub>3</sub>S",
        "Molecular Mass": "",
        "Melting Point": "217-220 °C"
    }
}