{
    "cas_no": "1878-81-5",
    "key_name": "4-Acetylphenoxyacetic acid",
    "cn_name": null,
    "alternate_name": "Acetic acid, 2-(4-acetylphenoxy)-;Acetic acid, (<em>p</em>-acetylphenoxy)-;Acetic acid, (4-acetylphenoxy)-;2-(4-Acetylphenoxy)acetic acid;4-Acetylphenoxyacetic acid;<em>p</em>-Acetylphenoxyacetic acid;NSC 9356",
    "duplicated_cas_no": "",
    "SMILES": "C(C)(=O)C1=CC=C(OCC(O)=O)C=C1",
    "meta_data": {
        "InChI": "InChI=1S/C10H10O4/c1-7(11)8-2-4-9(5-3-8)14-6-10(12)13/h2-5H,6H2,1H3,(H,12,13)",
        "InChIKey": null,
        "Canonical SMILES": "O=C(O)COC1=CC=C(C=C1)C(=O)C",
        "Molecular Formula": "C<sub>10</sub>H<sub>10</sub>O<sub>4</sub>",
        "Molecular Mass": "194.18",
        "Melting Point": "175-177 °C"
    }
}