{
    "cas_no": "3508-94-9",
    "key_name": "3-Methyl-2-phenylbutanoic acid",
    "cn_name": "2-异丙基-2-苯基乙酸;",
    "alternate_name": "Benzeneacetic acid, α-(1-methylethyl)-;Butyric acid, 3-methyl-2-phenyl-;α-(1-Methylethyl)benzeneacetic acid;3-Methyl-2-phenylbutyric acid;α-Isopropylphenylacetic acid;3-Methyl-2-phenylbutanoic acid;(<em>RS</em>)-2-Phenyl-3-methylbutanoic acid;(±)-α-Isopropylphenylacetic acid;(±)-2-Phenyl-3-methylbutyric acid;NSC 22982;2-Phenyl-3-methylbutanoic acid;2-Isopropyl-2-phenylacetic acid",
    "duplicated_cas_no": "13490-68-1",
    "SMILES": "C(C(C)C)(C(O)=O)C1=CC=CC=C1",
    "meta_data": {
        "InChI": "InChI=1S/C11H14O2/c1-8(2)10(11(12)13)9-6-4-3-5-7-9/h3-8,10H,1-2H3,(H,12,13)",
        "InChIKey": null,
        "Canonical SMILES": "O=C(O)C(C=1C=CC=CC1)C(C)C",
        "Molecular Formula": "C<sub>11</sub>H<sub>14</sub>O<sub>2</sub>",
        "Molecular Mass": "178.23",
        "Boiling Point": "145-147 °C @ Press: 10 Torr",
        "Melting Point": "62-63 °C"
    }
}