{
    "cas_no": "6358-85-6",
    "key_name": "Pigment Yellow 12",
    "cn_name": "颜料黄12;双偶氮黄G;2,2\"-(3,3\"-二氯-1,1\"-联苯-4,4\"-双偶氮)双(N-苯基-3-氧代-丁酰胺);",
    "alternate_name": "Butanamide, 2,2′-[(3,3′-dichloro[1,1′-biphenyl]-4,4′-diyl)bis(2,1-diazenediyl)]bis[3-oxo-<em>N</em>-phenyl-;C.I. Pigment Yellow 12;Butanamide, 2,2′-[(3,3′-dichloro[1,1′-biphenyl]-4,4′-diyl)bis(azo)]bis[3-oxo-<em>N</em>-phenyl-;Acetoacetanilide, 2,2′′-(3,3′-dichloro-4,4′-biphenylylenebisazo)bis-;2,2′-[(3,3′-Dichloro[1,1′-biphenyl]-4,4′-diyl)bis(2,1-diazenediyl)]bis[3-oxo-<em>N</em>-phenylbutanamide];C.I. 21090;Amazon Yellow X 2485;Benzidine Lacquer Yellow G;Benzidine Yellow E;Benzidine Yellow 45-2650;Benzidine Yellow 45-2685;Benzidine Yellow 45-2680;Benzidine Yellow GF;Benzidine Yellow GT;Benzidine Yellow GTR;Benzidine Yellow HG;Benzidine Yellow HG-Plv;Benzidine Yellow G;Benzidine Yellow Toner;Benzidine Yellow Toner YA 8081;Benzidine Yellow Toner YT 378;Bis(acetyl-<em>N</em>-phenylcarbamylmethyl)-4,4′-disazo-3,3′-dichlorobiphenyl;Brilliant Yellow Slurry;Carnelio Yellow GX;Dainichi Benzidine Yellow G;Dainichi Benzidine Yellow GRT;Dainichi Benzidine Yellow GT;Dainichi Benzidine Yellow GY;Dainichi Benzidine Yellow GYT;Daltolite Fast Yellow GT;Eljon Yellow BG;Hancock Yellow 10010;Helio Yellow GW;Helio Yellow GWN;Irgalite Yellow BO;Irgalite Yellow BST;Irgalite Yellow BTR;Isol Benzidine Yellow G;Isol Benzidine Yellow G Special;Kromon Yellow GXT Conc;Kromon Yellow MTB;Light Yellow JB;Light Yellow JBO;Light Yellow JBT;Lodestone Yellow YB 57;Monolite Yellow 2GRA;Monolite Yellow GRA;Monolite Yellow GT;Monolite Yellow GTA;Monolite Yellow GTN;Monolite Yellow GTNA;Permanent Yellow DHG;Pigment Yellow GT;Rangoon Yellow;Recolite Yellow BG;Recolite Yellow BGT;Sanyo Benzidine Yellow B;Segnale Light Yellow 2GR;Segnale Light Yellow 2GRT;Siloton Yellow 3GX;Siloton Yellow GTX;Symuler Fast Yellow GF;Verona Yellow X 1791;Vulcafor Fast Yellow GT;Vulcafor Fast Yellow GTA;Vulcol Fast Yellow GR;Monolite Yellow GTS;Benzidine Yellow;Pigment Yellow 12;Diarylide Yellow YT 553D;Graphtol Yellow A-HG;Permanent Yellow GHG;Isol Benzidine Yellow G 2537;Benzidine Yellow 1178;Benzidine Yellow YB 5722;Benzidine Yellow AAA;Symuler Fast Yellow 4078;Symuler Fast Yellow 219;Symuler Fast Yellow 224;Seikafast Yellow 2300;Segnale Yellow HG;Diarylide Yellow AAMX;Yellow 205;Japan Yellow 205;Yellow No. 205;Japan Yellow No. 205;Sumikaprint Yellow 3A-O;Diarylide Yellow;Seikafast Yellow H 7055;Permanent Yellow DHG 80;Lionol Yellow GR;KET Yellow 406;Benzyl Yellow G;Disazo Yellow;Lionol Yellow 1206;Seikafast Yellow 7055;Diarylide Yellow AAA;Lionol Yellow GGT;Benzidine Yellow 1316;Lionol Yellow SS-OW;EP 500;Sun Yellow AAA;Sunbrite Yellow AAA;Sunbrite Yellow 273-3556;Symuler Fast Yellow GTF 219;Symuler Fast Yellow PDGF 138;NSC 521237;2,2′-[(3,3′-Dichloro[1,1′-biphenyl]-4,4′-diyl)bis(azo)]bis[3-oxo-<em>N</em>-phenylbutanamide;Lutetia Yellow 2JRST;Lionol Yellow 1245P;Lionol Yellow 1243P;Lionol Yellow 1235P;Lionol Yellow 2RN;Sanyo Pigment Yellow GRT;Pigment Yellow GRT;Lionol Yellow TT 1206;Pigment Yellow FG;DY 728;Laibo 178-1;Benzidine Yellow 12;Permanent Yellow DHG-CN 09;PY 12;Symuler Fast Yellow GF conc.;Lionol Yellow TCH 1205;Benzidine Yellow G 1138;DTXSID1021451;Symuler Fast Yellow GF Conc P;Finess Yellow G 20S12",
    "duplicated_cas_no": "82197-93-1;82249-35-2;97794-07-5;127546-11-6;142583-27-5;912849-92-4;1438404-83-1;2284459-75-0",
    "SMILES": "ClC=1C=C(C=CC1N=NC(C(NC2=CC=CC=C2)=O)C(C)=O)C3=CC(Cl)=C(N=NC(C(NC4=CC=CC=C4)=O)C(C)=O)C=C3",
    "meta_data": {
        "InChI": "InChI=1S/C32H26Cl2N6O4/c1-19(41)29(31(43)35-23-9-5-3-6-10-23)39-37-27-15-13-21(17-25(27)33)22-14-16-28(26(34)18-22)38-40-30(20(2)42)32(44)36-24-11-7-4-8-12-24/h3-18,29-30H,1-2H3,(H,35,43)(H,36,44)",
        "InChIKey": null,
        "Canonical SMILES": "O=C(NC=1C=CC=CC1)C(N=NC=2C=CC(=CC2Cl)C3=CC=C(N=NC(C(=O)NC=4C=CC=CC4)C(=O)C)C(Cl)=C3)C(=O)C",
        "Molecular Formula": "C<sub>32</sub>H<sub>26</sub>Cl<sub>2</sub>N<sub>6</sub>O<sub>4</sub>",
        "Molecular Mass": "629.49",
        "Melting Point": "320 °C"
    }
}