{
    "cas_no": "1035-77-4",
    "key_name": "Estradiol 3-methyl ether",
    "cn_name": null,
    "alternate_name": "Estra-1,3,5(10)-trien-17-ol, 3-methoxy-, (17β)-;Estra-1,3,5(10)-trien-17β-ol, 3-methoxy-;(17β)-3-Methoxyestra-1,3,5(10)-trien-17-ol;Estradiol 3-methyl ether;3-Methoxy-17β-hydroxyestra-1,3,5(10)-triene;3-Methoxyoestra-1,3,5(10)-trien-17β-ol;17β-Estradiol 3-methyl ether;17β-Hydroxy-3-methoxyestra-1,3,5(10)-triene;3-Methoxyestra-1,3,5(10)-triene-3,17β-diol;3-Methoxyestra-1,3,5(10)-trien-17β-ol;3-Methoxyestra-1,3,5(10)-triene-17β-ol;3-<em>O</em>-Methylestradiol;3-Methoxyestradiol;3-Methoxy-13β-methyl-1,3,5(10)-gonatrien-17β-ol;NSC 58851",
    "duplicated_cas_no": "30308-16-8;40135-21-5;1713228-25-1",
    "SMILES": "C[C@@]12[C@]([C@]3([C@@](C=4C(CC3)=CC(OC)=CC4)(CC1)[H])[H])(CC[C@@H]2O)[H]",
    "meta_data": {
        "InChI": "InChI=1S/C19H26O2/c1-19-10-9-15-14-6-4-13(21-2)11-12(14)3-5-16(15)17(19)7-8-18(19)20/h4,6,11,15-18,20H,3,5,7-10H2,1-2H3/t15-,16-,17+,18+,19+/m1/s1",
        "InChIKey": null,
        "Canonical SMILES": "OC1CCC2C3CCC4=CC(OC)=CC=C4C3CCC12C",
        "Molecular Formula": "C<sub>19</sub>H<sub>26</sub>O<sub>2</sub>",
        "Molecular Mass": "286.41",
        "Melting Point": "120-121 °C"
    }
}