{
    "cas_no": "6274-28-8",
    "key_name": "3-Amino-4-methylbenzenesulfonamide",
    "cn_name": null,
    "alternate_name": "Benzenesulfonamide, 3-amino-4-methyl-;3-Amino-4-methylbenzenesulfonamide;NSC 36968;3-Amino-4-methylbenzene-1-sulfonamide",
    "duplicated_cas_no": "",
    "SMILES": "S(N)(=O)(=O)C1=CC(N)=C(C)C=C1",
    "meta_data": {
        "InChI": "InChI=1S/C7H10N2O2S/c1-5-2-3-6(4-7(5)8)12(9,10)11/h2-4H,8H2,1H3,(H2,9,10,11)",
        "InChIKey": null,
        "Canonical SMILES": "O=S(=O)(N)C1=CC=C(C(N)=C1)C",
        "Molecular Formula": "C<sub>7</sub>H<sub>10</sub>N<sub>2</sub>O<sub>2</sub>S",
        "Molecular Mass": "186.23",
        "Melting Point": "176 °C"
    }
}