{
    "cas_no": "137-05-3",
    "key_name": "Methyl cyanoacrylate",
    "cn_name": "2-氰基丙烯酸甲酯;2-氰基丙烯酸甲酯;&alpha;-氰基丙烯酸甲酯;",
    "alternate_name": "2-Propenoic acid, 2-cyano-, methyl ester;Acrylic acid, 2-cyano-, methyl ester;ADhere;α-Cyanoacrylic acid methyl ester;Eastman 910;Methyl α-cyanoacrylate;Methyl 2-cyanoacrylate;Mecrylate;Methyl cyanoacrylate;2-Cyanoacrylic acid methyl ester;Mecrilat;Cyanobond SS;Cemedine 3000;Cemedine 3000 Type-II;CA 7 (adhesive);CA 7;Cemedine 3000DX;Sicomet 7000;Mecrilate;Fimofix P 1048;Cyanobond 5000;Three Bond 1701;Eastman 910 Super Glue;Wipescar",
    "duplicated_cas_no": "118232-59-0;12790-65-7;53028-65-2",
    "SMILES": "C(C(OC)=O)(C#N)=C",
    "meta_data": {
        "InChI": "InChI=1S/C5H5NO2/c1-4(3-6)5(7)8-2/h1H2,2H3",
        "InChIKey": null,
        "Canonical SMILES": "N#CC(=C)C(=O)OC",
        "Molecular Formula": "C<sub>5</sub>H<sub>5</sub>NO<sub>2</sub>",
        "Molecular Mass": "111.10",
        "Boiling Point": "47-49 °C @ Press: 1.8 Torr",
        "Melting Point": "-40 °C",
        "Density": "1.1044 g/cm³ @ Temp: 27 °C"
    }
}