{
    "cas_no": "3543-75-7",
    "key_name": "Bendamustine hydrochloride",
    "cn_name": "盐酸苯达莫司汀;4-[5-[双(2-氯乙基)氨基]-1-甲基苯并咪唑-2-基]丁酸盐酸盐;",
    "alternate_name": "1<em>H</em>-Benzimidazole-2-butanoic acid, 5-[bis(2-chloroethyl)amino]-1-methyl-, hydrochloride (1:1);2-Benzimidazolebutyric acid, 5-[bis(2-chloroethyl)amino]-1-methyl-, monohydrochloride;1<em>H</em>-Benzimidazole-2-butanoic acid, 5-[bis(2-chloroethyl)amino]-1-methyl-, monohydrochloride;IMET 3393;Cytostasan;ZIMET 33/93;Bendamustin hydrochloride;Bendamustine hydrochloride;Ribomustin;SDX 105;Treanda;Bendit;Purplz;Bendeka",
    "duplicated_cas_no": "",
    "SMILES": "CN1C=2C(=CC(N(CCCl)CCCl)=CC2)N=C1CCCC(O)=O.Cl",
    "meta_data": {
        "InChI": "InChI=1S/C16H21Cl2N3O2.ClH/c1-20-14-6-5-12(21(9-7-17)10-8-18)11-13(14)19-15(20)3-2-4-16(22)23;/h5-6,11H,2-4,7-10H2,1H3,(H,22,23);1H",
        "InChIKey": null,
        "Canonical SMILES": "Cl.O=C(O)CCCC1=NC=2C=C(C=CC2N1C)N(CCCl)CCCl",
        "Molecular Formula": "C<sub>16</sub>H<sub>21</sub>Cl<sub>2</sub>N<sub>3</sub>O<sub>2</sub>.ClH",
        "Molecular Mass": "",
        "Melting Point": "148-151 °C"
    }
}