{
    "cas_no": "108-40-7",
    "key_name": "3-Methylbenzenethiol",
    "cn_name": "3-甲基苯硫酚;3-巯基甲苯;间硫甲酚;",
    "alternate_name": "Benzenethiol, 3-methyl-;<em>m</em>-Toluenethiol;3-Methylbenzenethiol;<em>m</em>-Thiocresol;<em>m</em>-Tolyl mercaptan;<em>m</em>-Methylbenzenethiol;<em>m</em>-Methylthiophenol;3-Methylthiophenol;<em>m</em>-Mercaptotoluene;(3-Methylphenyl)thiol;3-Methylphenyl mercaptan;<em>m</em>-Tolylthiol;3-Mercaptotoluene;NSC 81219;3-Methylbenzene-1-thiol",
    "duplicated_cas_no": "2660192-77-6",
    "SMILES": "CC1=CC(S)=CC=C1",
    "meta_data": {
        "InChI": "InChI=1S/C7H8S/c1-6-3-2-4-7(8)5-6/h2-5,8H,1H3",
        "InChIKey": null,
        "Canonical SMILES": "SC1=CC=CC(=C1)C",
        "Molecular Formula": "C<sub>7</sub>H<sub>8</sub>S",
        "Molecular Mass": "124.20",
        "Boiling Point": "195 °C",
        "Melting Point": "&lt;-20 °C",
        "Density": "1.044 g/cm³ @ Temp: 20 °C"
    }
}