{
    "cas_no": "25332-39-2",
    "key_name": "Trazodone hydrochloride",
    "cn_name": null,
    "alternate_name": "1,2,4-Triazolo[4,3-<em>a</em>]pyridin-3(2<em>H</em>)-one, 2-[3-[4-(3-chlorophenyl)-1-piperazinyl]propyl]-, hydrochloride (1:1);<em>s</em>-Triazolo[4,3-<em>a</em>]pyridin-3(2<em>H</em>)-one, 2-[3-[4-(<em>m</em>-chlorophenyl)-1-piperazinyl]propyl]-, monohydrochloride;1,2,4-Triazolo[4,3-<em>a</em>]pyridin-3(2<em>H</em>)-one, 2-[3-[4-(3-chlorophenyl)-1-piperazinyl]propyl]-, monohydrochloride;Trazodone hydrochloride;AF 1161;Desyrel;Molipaxin;KB 831;Pragmazone;Thombran;Trazolan;Tombran;Trittico;Bimaran;Mesyrel;2-(3-(4-(3-Chlorophenyl)piperazin-1-yl)propyl)-[1,2,4]triazolo[4,3-<em>a</em>]pyridin-3(2<em>H</em>)-one hydrochloride;2-[3-[4-(3-Chlorophenyl)piperazin-1-yl]propyl]-2<em>H</em>,3<em>H</em>-[1,2,4]triazolo[4,3-<em>a</em>]pyridin-3-one hydrochloride;Desyrel dividose;Oleptro;Oleptro ER",
    "duplicated_cas_no": "",
    "SMILES": "O=C1N2C(=NN1CCCN3CCN(CC3)C4=CC(Cl)=CC=C4)C=CC=C2.Cl",
    "meta_data": {
        "InChI": "InChI=1S/C19H22ClN5O.ClH/c20-16-5-3-6-17(15-16)23-13-11-22(12-14-23)8-4-10-25-19(26)24-9-2-1-7-18(24)21-25;/h1-3,5-7,9,15H,4,8,10-14H2;1H",
        "InChIKey": null,
        "Canonical SMILES": "Cl.O=C1N2C=CC=CC2=NN1CCCN3CCN(C=4C=CC=C(Cl)C4)CC3",
        "Molecular Formula": "C<sub>19</sub>H<sub>22</sub>ClN<sub>5</sub>O.ClH",
        "Molecular Mass": "",
        "Melting Point": "223 °C"
    }
}