{
    "cas_no": "127199-14-8",
    "key_name": "(1<em>S</em>,2<em>S</em>)-2-Fluorocyclopropanecarboxylic acid",
    "cn_name": null,
    "alternate_name": "Cyclopropanecarboxylic acid, 2-fluoro-, (1<em>S</em>,2<em>S</em>)-;Cyclopropanecarboxylic acid, 2-fluoro-, (1<em>S</em>-<em>cis</em>)-;(1<em>S</em>,2<em>S</em>)-2-Fluorocyclopropanecarboxylic acid;(+)-<em>cis</em>-2-Fluorocyclopropanecarboxylic acid;(1S,2S)-2-Fluorocyclopropane-1-carboxylic acid;(1S,2S)-2-Fluorocyclopropanecarboxylic acid",
    "duplicated_cas_no": "",
    "SMILES": "C(O)(=O)[C@H]1[C@@H](F)C1",
    "meta_data": {
        "InChI": "InChI=1S/C4H5FO2/c5-3-1-2(3)4(6)7/h2-3H,1H2,(H,6,7)/t2-,3+/m1/s1",
        "InChIKey": null,
        "Canonical SMILES": "O=C(O)C1CC1F",
        "Molecular Formula": "C<sub>4</sub>H<sub>5</sub>FO<sub>2</sub>",
        "Molecular Mass": "104.08",
        "Melting Point": "55-56 °C"
    }
}