{
    "cas_no": "2138-24-1",
    "key_name": "Tetrahexylammonium iodide",
    "cn_name": "四正己基碘化铵;四已基碘化铵;",
    "alternate_name": "1-Hexanaminium, <em>N</em>,<em>N</em>,<em>N</em>-trihexyl-, iodide (1:1);Tetrahexylammonium iodide;Ammonium, tetrahexyl-, iodide;1-Hexanaminium, <em>N</em>,<em>N</em>,<em>N</em>-trihexyl-, iodide;Tetra-<em>n</em>-hexylammonium iodide",
    "duplicated_cas_no": "",
    "SMILES": "[N+](CCCCCC)(CCCCCC)(CCCCCC)CCCCCC.[I-]",
    "meta_data": {
        "InChI": "InChI=1S/C24H52N.HI/c1-5-9-13-17-21-25(22-18-14-10-6-2,23-19-15-11-7-3)24-20-16-12-8-4;/h5-24H2,1-4H3;1H/q+1;/p-1",
        "InChIKey": null,
        "Canonical SMILES": "[I-].CCCCCC[N+](CCCCCC)(CCCCCC)CCCCCC",
        "Molecular Formula": "C<sub>24</sub>H<sub>52</sub>N.I",
        "Molecular Mass": "",
        "Melting Point": "101-103 °C"
    }
}