{
    "cas_no": "6627-55-0",
    "key_name": "2-Bromo-4-methylphenol",
    "cn_name": "2-溴-4-甲基苯酚;邻溴对甲酚;",
    "alternate_name": "Phenol, 2-bromo-4-methyl-;<em>p</em>-Cresol, 2-bromo-;2-Bromo-4-methylphenol;2-Bromo-<em>p</em>-cresol;3-Bromo-4-hydroxytoluene;2-Bromo-4-cresol;NSC 60115",
    "duplicated_cas_no": "",
    "SMILES": "BrC1=C(O)C=CC(C)=C1",
    "meta_data": {
        "InChI": "InChI=1S/C7H7BrO/c1-5-2-3-7(9)6(8)4-5/h2-4,9H,1H3",
        "InChIKey": null,
        "Canonical SMILES": "BrC1=CC(=CC=C1O)C",
        "Molecular Formula": "C<sub>7</sub>H<sub>7</sub>BrO",
        "Molecular Mass": "187.03",
        "Boiling Point": "245-247 °C",
        "Melting Point": "54-55 °C"
    }
}