{
    "cas_no": "5234-68-4",
    "key_name": "Carboxin",
    "cn_name": "萎锈灵;5,6-二氢-2-甲基-N-苯基-1,4-氧硫杂环己烯-3-甲酰胺;",
    "alternate_name": "1,4-Oxathiin-3-carboxamide, 5,6-dihydro-2-methyl-<em>N</em>-phenyl-;1,4-Oxathiin-3-carboxanilide, 5,6-dihydro-2-methyl-;5,6-Dihydro-2-methyl-<em>N</em>-phenyl-1,4-oxathiin-3-carboxamide;D 735;DCMO;2,3-Dihydro-5-carboxanilido-6-methyl-1,4-oxathiin;Vitavax;Carboxine;F 735;Carboxin;5,6-Dihydro-2-methyl-1,4-oxathiin-3-carboxanilide;2,3-Dihydro-6-methyl-1,4-oxathiin-5-carboxanilide;DMOC;1-Oxa-2-methyl-3-(anilidocarbonyl)-4-thiacyclohex-2-ene;Vitavax 735D;Vitavax 75W;Vitavax 100;Carbathiin;V 4X;2,3-Dihydro-6-methyl-1,4-oxathiine-5-carboxylic acid anilide;Vitaflo 250;Karboxyn;Fenoxan;<em>N</em>-Phenyl-2-methyl-5,6-dihydrooxathiin-3-carboxamide;Vitavax EC 200;NSC 263492;2,3-Dihydro-6-methyloxathiin-5-carboxanilide;Vitavax 34;2-Methyl-5,6-dihydro-[1,4]oxathiine-3-carboxylic acid phenylamide;2-Methyl-<em>N</em>-phenyl-5,6-dihydro-1,4-oxathiine-3-carboxamide;VitavaxThiran;MeSH ID: D002261",
    "duplicated_cas_no": "95078-27-6;105913-74-4;1135441-56-3",
    "SMILES": "C(NC1=CC=CC=C1)(=O)C2=C(C)OCCS2",
    "meta_data": {
        "InChI": "InChI=1S/C12H13NO2S/c1-9-11(16-8-7-15-9)12(14)13-10-5-3-2-4-6-10/h2-6H,7-8H2,1H3,(H,13,14)",
        "InChIKey": null,
        "Canonical SMILES": "O=C(NC=1C=CC=CC1)C=2SCCOC2C",
        "Molecular Formula": "C<sub>12</sub>H<sub>13</sub>NO<sub>2</sub>S",
        "Molecular Mass": "235.30",
        "Melting Point": "93-95 °C"
    }
}