{
    "cas_no": "1067-08-9",
    "key_name": "3-Methyl-3-ethylpentane",
    "cn_name": "3-甲基-3-乙基戊烷;",
    "alternate_name": "Pentane, 3-ethyl-3-methyl-;3-Ethyl-3-methylpentane;3-Methyl-3-ethylpentane;NSC 73956",
    "duplicated_cas_no": "",
    "SMILES": "C(CC)(CC)(CC)C",
    "meta_data": {
        "InChI": "InChI=1S/C8H18/c1-5-8(4,6-2)7-3/h5-7H2,1-4H3",
        "InChIKey": null,
        "Canonical SMILES": "CCC(C)(CC)CC",
        "Molecular Formula": "C<sub>8</sub>H<sub>18</sub>",
        "Molecular Mass": "114.23",
        "Boiling Point": "118.2 °C",
        "Melting Point": "-90.9 °C",
        "Density": "0.713 g/cm³ @ Temp: 19 °C"
    }
}