{
    "cas_no": "437742-34-2",
    "key_name": "(-)-Salinosporamide A",
    "cn_name": null,
    "alternate_name": "6-Oxa-2-azabicyclo[3.2.0]heptane-3,7-dione, 4-(2-chloroethyl)-1-[(<em>S</em>)-(1<em>S</em>)-2-cyclohexen-1-ylhydroxymethyl]-5-methyl-, (1<em>R</em>,4<em>R</em>,5<em>S</em>)-;(1<em>R</em>,4<em>R</em>,5<em>S</em>)-4-(2-Chloroethyl)-1-[(<em>S</em>)-(1<em>S</em>)-2-cyclohexen-1-ylhydroxymethyl]-5-methyl-6-oxa-2-azabicyclo[3.2.0]heptane-3,7-dione;Salinosporamide A;(-)-Salinosporamide A;NPI 0052;ML 858;Marizomib",
    "duplicated_cas_no": "855517-10-1",
    "SMILES": "[C@@H](O)([C@]12[C@](C)([C@@H](CCCl)C(=O)N1)OC2=O)[C@]3(CCCC=C3)[H]",
    "meta_data": {
        "InChI": "InChI=1S/C15H20ClNO4/c1-14-10(7-8-16)12(19)17-15(14,13(20)21-14)11(18)9-5-3-2-4-6-9/h3,5,9-11,18H,2,4,6-8H2,1H3,(H,17,19)/t9-,10+,11+,14+,15+/m1/s1",
        "InChIKey": null,
        "Canonical SMILES": "O=C1OC2(C)C(C(=O)NC12C(O)C3C=CCCC3)CCCl",
        "Molecular Formula": "C<sub>15</sub>H<sub>20</sub>ClNO<sub>4</sub>",
        "Molecular Mass": "313.78",
        "Melting Point": "168-170 °C"
    }
}