{
    "cas_no": "13246-52-1",
    "key_name": "Ethyl 2,4-dioxohexanoate",
    "cn_name": null,
    "alternate_name": "Hexanoic acid, 2,4-dioxo-, ethyl ester;Ethyl 2,4-dioxohexanoate;Ethyl propionylpyruvate;Ethyl β-propionylpyruvate;2,4-Dioxohexanoic acid ethyl ester",
    "duplicated_cas_no": "",
    "SMILES": "C(C(OCC)=O)(CC(CC)=O)=O",
    "meta_data": {
        "InChI": "InChI=1S/C8H12O4/c1-3-6(9)5-7(10)8(11)12-4-2/h3-5H2,1-2H3",
        "InChIKey": null,
        "Canonical SMILES": "O=C(OCC)C(=O)CC(=O)CC",
        "Molecular Formula": "C<sub>8</sub>H<sub>12</sub>O<sub>4</sub>",
        "Molecular Mass": "172.18",
        "Boiling Point": "128-129 °C @ Press: 11 Torr"
    }
}