{
    "cas_no": "3386-18-3",
    "key_name": "3,6,9,12,15,18,21,24-Octaoxahexacosane-1,26-diol",
    "cn_name": "九甘醇; 九聚乙二醇; 聚乙二醇-9; PEG-9;",
    "alternate_name": "3,6,9,12,15,18,21,24-Octaoxahexacosane-1,26-diol;Nonaethylene glycol",
    "duplicated_cas_no": "",
    "SMILES": "C(COCCOCCOCCOCCO)OCCOCCOCCOCCO",
    "meta_data": {
        "InChI": "InChI=1S/C18H38O10/c19-1-3-21-5-7-23-9-11-25-13-15-27-17-18-28-16-14-26-12-10-24-8-6-22-4-2-20/h19-20H,1-18H2",
        "InChIKey": null,
        "Canonical SMILES": "OCCOCCOCCOCCOCCOCCOCCOCCOCCO",
        "Molecular Formula": "C<sub>18</sub>H<sub>38</sub>O<sub>10</sub>",
        "Molecular Mass": "414.49",
        "Boiling Point": "190 °C @ Press: 0.01 Torr",
        "Melting Point": "24.0-25.2 °C"
    }
}