{
    "cas_no": "2011-48-5",
    "key_name": "Hydrazine, [(4-methoxyphenyl)methyl]-, hydrochloride (1:1)",
    "cn_name": null,
    "alternate_name": "Hydrazine, [(4-methoxyphenyl)methyl]-, hydrochloride (1:1);Hydrazine, [(4-methoxyphenyl)methyl]-, monohydrochloride;Hydrazine, (<em>p</em>-methoxybenzyl)-, hydrochloride;(4-Methoxybenzyl)hydrazine hydrochloride;[(4-Methoxyphenyl)methyl]hydrazine hydrochloride;1-(4-Methoxybenzyl)hydrazine hydrochloride",
    "duplicated_cas_no": "",
    "SMILES": "C(NN)C1=CC=C(OC)C=C1.Cl",
    "meta_data": {
        "InChI": "InChI=1S/C8H12N2O.ClH/c1-11-8-4-2-7(3-5-8)6-10-9;/h2-5,10H,6,9H2,1H3;1H",
        "InChIKey": null,
        "Canonical SMILES": "Cl.O(C1=CC=C(C=C1)CNN)C",
        "Molecular Formula": "C<sub>8</sub>H<sub>12</sub>N<sub>2</sub>O.ClH",
        "Molecular Mass": "",
        "Melting Point": "194-195 °C (decomp)"
    }
}