{
    "cas_no": "27741-01-1",
    "key_name": "Geniposidic acid",
    "cn_name": "京尼平苷酸;",
    "alternate_name": "Cyclopenta[<em>c</em>]pyran-4-carboxylic acid, 1-(β-<span class=\"text-smallcaps\">D</span>-glucopyranosyloxy)-1,4a,5,7a-tetrahydro-7-(hydroxymethyl)-, (1<em>S</em>,4a<em>S</em>,7a<em>S</em>)-;Cyclopenta[<em>c</em>]pyran-4-carboxylic acid, 1α-(β-<span class=\"text-smallcaps\">D</span>-glucopyranosyloxy)-1,4aα,5,7aα-tetrahydro-7-(hydroxymethyl)-;Cyclopenta[<em>c</em>]pyran-4-carboxylic acid, 1-(β-<span class=\"text-smallcaps\">D</span>-glucopyranosyloxy)-1,4a,5,7a-tetrahydro-7-(hydroxymethyl)-, [1<em>S</em>-(1α,4aα,7aα)]-;(1<em>S</em>,4a<em>S</em>,7a<em>S</em>)-1-(β-<span class=\"text-smallcaps\">D</span>-Glucopyranosyloxy)-1,4a,5,7a-tetrahydro-7-(hydroxymethyl)cyclopenta[<em>c</em>]pyran-4-carboxylic acid;Geniposidic acid",
    "duplicated_cas_no": "27932-72-5",
    "SMILES": "O([C@H]1[C@]2([C@@](C(C(O)=O)=CO1)(CC=C2CO)[H])[H])[C@@H]3O[C@H](CO)[C@@H](O)[C@H](O)[C@H]3O",
    "meta_data": {
        "InChI": "InChI=1S/C16H22O10/c17-3-6-1-2-7-8(14(22)23)5-24-15(10(6)7)26-16-13(21)12(20)11(19)9(4-18)25-16/h1,5,7,9-13,15-21H,2-4H2,(H,22,23)/t7-,9-,10-,11-,12+,13-,15+,16+/m1/s1",
        "InChIKey": null,
        "Canonical SMILES": "O=C(O)C1=COC(OC2OC(CO)C(O)C(O)C2O)C3C(=CCC13)CO",
        "Molecular Formula": "C<sub>16</sub>H<sub>22</sub>O<sub>10</sub>",
        "Molecular Mass": "374.34",
        "Melting Point": "138-140 °C"
    }
}