{
    "cas_no": "557-09-5",
    "key_name": "Zinc octanoate",
    "cn_name": "辛酸锌;辛酸锌盐;",
    "alternate_name": "Octanoic acid, zinc salt (2:1);Octanoic acid, zinc salt;Zinc octanoate;Zinc caprylate;Zinc octoate;Zinc octylate;Zinc dioctylate;Zinc (II) octoate;Siccatol ZN 12;O/S Zink 10 Aqua;Baerostab L 230;Stabilol VZN 1950;Z 08;LBZ 732;Octoate Z;Zn Octoate;Zinc(II) bis(<em>n</em>-octoate);PP 23;Caprylic acid zinc salt;Octlife ZnS;Z 08 (stabilizer);Plastistab 2275;Z 08N;K-KAT XK 661;Valirex Zn 8.0;Valirex Zn 8;Zn Octoate 20%T",
    "duplicated_cas_no": "86338-28-5;461038-89-1;1207106-23-7",
    "SMILES": "C(CCCCC)CC(O)=O.[Zn]",
    "meta_data": {
        "InChI": "InChI=1S/C8H16O2.Zn/c1-2-3-4-5-6-7-8(9)10;/h2-7H2,1H3,(H,9,10);",
        "InChIKey": null,
        "Canonical SMILES": "[Zn].O=C(O)CCCCCCC",
        "Molecular Formula": "C<sub>8</sub>H<sub>16</sub>O<sub>2</sub>.<sup>1</sup>/<sub>2</sub>Zn",
        "Molecular Mass": "",
        "Melting Point": "136 °C",
        "Density": "1.19 g/cm³"
    }
}