{
    "cas_no": "1510-21-0",
    "key_name": "Cholesteryl hemisuccinate",
    "cn_name": "胆固醇琥珀酸单酯;",
    "alternate_name": "Cholest-5-en-3-ol (3β)-, 3-(hydrogen butanedioate);Cholesterol, hydrogen succinate;Cholest-5-en-3-ol (3β)-, hydrogen butanedioate;Cholesteryl hemisuccinate;Cholesteryl hydrogen succinate;Cholesterol hemisuccinate;3-[(Cholest-5-en-3β-yl)oxycarbonyl]propionic acid;Cholesteryl monosuccinate;3-(3-Cholesteryloxycarbonyl)propionic acid;Mono(cholesteryl) succinate;Succinic acid monocholesteryl ester;3-Cholesteryloxycarbonylpropanoic acid;Cholesterol monosuccinate;Succinate cholesterol monoester;CHEMS",
    "duplicated_cas_no": "260061-26-5;2921674-25-9",
    "SMILES": "C[C@@]12[C@@]3([C@]([C@]4([C@](C)(CC3)[C@@]([C@@H](CCCC(C)C)C)(CC4)[H])[H])(CC=C1C[C@@H](OC(CCC(O)=O)=O)CC2)[H])[H]",
    "meta_data": {
        "InChI": "InChI=1S/C31H50O4/c1-20(2)7-6-8-21(3)25-11-12-26-24-10-9-22-19-23(35-29(34)14-13-28(32)33)15-17-30(22,4)27(24)16-18-31(25,26)5/h9,20-21,23-27H,6-8,10-19H2,1-5H3,(H,32,33)/t21-,23+,24+,25-,26+,27+,30+,31-/m1/s1",
        "InChIKey": null,
        "Canonical SMILES": "O=C(O)CCC(=O)OC1CC2=CCC3C(CCC4(C)C(CCC34)C(C)CCCC(C)C)C2(C)CC1",
        "Molecular Formula": "C<sub>31</sub>H<sub>50</sub>O<sub>4</sub>",
        "Molecular Mass": "486.73",
        "Melting Point": "175-175.5 °C"
    }
}