{
    "cas_no": "1135-15-5",
    "key_name": "3-(3-Hydroxy-4-methoxyphenyl)propionic acid",
    "cn_name": null,
    "alternate_name": "Benzenepropanoic acid, 3-hydroxy-4-methoxy-;Hydrocinnamic acid, 3-hydroxy-4-methoxy-;3-Hydroxy-4-methoxybenzenepropanoic acid;Hydroisoferulic acid;β-(3-Hydroxy-4-methoxyphenyl)propionic acid;3-(3-Hydroxy-4-methoxyphenyl)propionic acid;3-(3-Hydroxy-4-methoxyphenyl)propanic acid;3-(3′-Hydroxy-4′-methoxyphenyl)propionic acid",
    "duplicated_cas_no": "",
    "SMILES": "C(CC(O)=O)C1=CC(O)=C(OC)C=C1",
    "meta_data": {
        "InChI": "InChI=1S/C10H12O4/c1-14-9-4-2-7(6-8(9)11)3-5-10(12)13/h2,4,6,11H,3,5H2,1H3,(H,12,13)",
        "InChIKey": null,
        "Canonical SMILES": "O=C(O)CCC1=CC=C(OC)C(O)=C1",
        "Molecular Formula": "C<sub>10</sub>H<sub>12</sub>O<sub>4</sub>",
        "Molecular Mass": "196.20",
        "Melting Point": "143-144 °C"
    }
}