{
    "cas_no": "52200-48-3",
    "key_name": "3-Bromo-2-chloropyridine",
    "cn_name": "3-溴-2-氯吡啶;2-氯-3-溴吡啶;",
    "alternate_name": "Pyridine, 3-bromo-2-chloro-;3-Bromo-2-chloropyridine;2-Chloro-3-bromopyridine",
    "duplicated_cas_no": "",
    "SMILES": "BrC1=C(Cl)N=CC=C1",
    "meta_data": {
        "InChI": "InChI=1S/C5H3BrClN/c6-4-2-1-3-8-5(4)7/h1-3H",
        "InChIKey": null,
        "Canonical SMILES": "ClC1=NC=CC=C1Br",
        "Molecular Formula": "C<sub>5</sub>H<sub>3</sub>BrClN",
        "Molecular Mass": "192.44",
        "Boiling Point": "95-97 °C @ Press: 10 Torr",
        "Melting Point": "53-56 °C"
    }
}