{
    "cas_no": "128495-46-5",
    "key_name": "4-Fluoro-3-methoxybenzaldehyde",
    "cn_name": null,
    "alternate_name": "Benzaldehyde, 4-fluoro-3-methoxy-;4-Fluoro-3-methoxybenzaldehyde;4-Fluoro-<em>m</em>-anisaldehyde;3-Methoxy-4-fluorobenzaldehyde;4-Fluoro-5-methoxybenzaldehyde",
    "duplicated_cas_no": "",
    "SMILES": "O(C)C1=CC(C=O)=CC=C1F",
    "meta_data": {
        "InChI": "InChI=1S/C8H7FO2/c1-11-8-4-6(5-10)2-3-7(8)9/h2-5H,1H3",
        "InChIKey": null,
        "Canonical SMILES": "O=CC1=CC=C(F)C(OC)=C1",
        "Molecular Formula": "C<sub>8</sub>H<sub>7</sub>FO<sub>2</sub>",
        "Molecular Mass": "154.14",
        "Boiling Point": "93 °C @ Press: 4.5 Torr",
        "Melting Point": "29-30 °C"
    }
}