{
    "cas_no": "37248-47-8",
    "key_name": "Validamycin A",
    "cn_name": null,
    "alternate_name": "<span class=\"text-smallcaps\">D</smallcap>-<em>chiro</em>-Inositol, 1,5,6-trideoxy-4-<em>O</em>-β-<smallcap>D</span>-glucopyranosyl-5-(hydroxymethyl)-1-[[(1<em>S</em>,4<em>R</em>,5<em>S</em>,6<em>S</em>)-4,5,6-trihydroxy-3-(hydroxymethyl)-2-cyclohexen-1-yl]amino]-;<span class=\"text-smallcaps\">D</smallcap>-<em>chiro</em>-Inositol, 1,5,6-trideoxy-4-<em>O</em>-β-<smallcap>D</span>-glucopyranosyl-5-(hydroxymethyl)-1-[[4,5,6-trihydroxy-3-(hydroxymethyl)-2-cyclohexen-1-yl]amino]-, [1<em>S</em>-(1α,4α,5β,6α)]-;1,5,6-Trideoxy-4-<em>O</em>-β-<span class=\"text-smallcaps\">D</smallcap>-glucopyranosyl-5-(hydroxymethyl)-1-[[(1<em>S</em>,4<em>R</em>,5<em>S</em>,6<em>S</em>)-4,5,6-trihydroxy-3-(hydroxymethyl)-2-cyclohexen-1-yl]amino]-<smallcap>D</span>-<em>chiro</em>-inositol;Validamycin A;Validacin;Cepex 10SL;Jinggangmycin A;Jinggangmycin;Validamycin;Jinggang;Jinganmycin A",
    "duplicated_cas_no": "58194-43-7;75661-94-8",
    "SMILES": "O([C@@H]1[C@@H](CO)C[C@H](N[C@H]2C=C(CO)[C@@H](O)[C@H](O)[C@H]2O)[C@H](O)[C@H]1O)[C@@H]3O[C@H](CO)[C@@H](O)[C@H](O)[C@H]3O",
    "meta_data": {
        "InChI": "InChI=1S/C20H35NO13/c22-3-6-1-8(12(26)15(29)11(6)25)21-9-2-7(4-23)19(17(31)13(9)27)34-20-18(32)16(30)14(28)10(5-24)33-20/h1,7-32H,2-5H2/t7-,8+,9+,10-,11-,12+,13+,14-,15+,16+,17-,18-,19-,20+/m1/s1",
        "InChIKey": null,
        "Canonical SMILES": "OCC1=CC(NC2CC(CO)C(OC3OC(CO)C(O)C(O)C3O)C(O)C2O)C(O)C(O)C1O",
        "Molecular Formula": "C<sub>20</sub>H<sub>35</sub>NO<sub>13</sub>",
        "Molecular Mass": "497.49",
        "Melting Point": "130-135 °C (decomp)"
    }
}