{
    "cas_no": "4253-89-8",
    "key_name": "Diisopropyl disulfide",
    "cn_name": null,
    "alternate_name": "Disulfide, bis(1-methylethyl);Isopropyl disulfide;Bis(1-methylethyl) disulfide;Diisopropyl disulfide;2,5-Dimethyl-3,4-dithiahexane;NSC 75123;1,2-Diisopropyldisulfane;2-(Propan-2-yldisulfanyl)propane",
    "duplicated_cas_no": "",
    "SMILES": "S(SC(C)C)C(C)C",
    "meta_data": {
        "InChI": "InChI=1S/C6H14S2/c1-5(2)7-8-6(3)4/h5-6H,1-4H3",
        "InChIKey": null,
        "Canonical SMILES": "S(SC(C)C)C(C)C",
        "Molecular Formula": "C<sub>6</sub>H<sub>14</sub>S<sub>2</sub>",
        "Molecular Mass": "150.31",
        "Boiling Point": "177 °C",
        "Melting Point": "-69 °C",
        "Density": "0.8104 g/cm³ @ Temp: 25 °C"
    }
}