{
    "cas_no": "35846-53-8",
    "key_name": "MTS",
    "cn_name": null,
    "alternate_name": "Maytansine;4,24-Dioxa-9,22-diazatetracyclo[19.3.1.1<sup>10,14</sup>.0<sup>3,5</sup>]hexacosane, maytansine deriv.;<span class=\"text-smallcaps\">L</span>-Alanine, <em>N</em>-acetyl-<em>N</em>-methyl-, 11-chloro-21-hydroxy-12,20-dimethoxy-2,5,9,16-tetramethyl-8,23-dioxo-4,24-dioxa-9,22-diazatetracyclo[19.3.1.1<sup>10,14</sup>.0<sup>3,5</sup>]hexacosa-10,12,14(26),16,18-pentaen-6-yl ester, [1<em>S</em>-(1<em>R</em>*,2<em>S</em>*,3<em>R</em>*,5<em>R</em>*,6<em>R</em>*,16<em>E</em>,18<em>E</em>,20<em>S</em>*,21<em>R</em>*)]-;NSC 153858;Maytansin;<em>N</em>-Acetyl-<em>N</em>-methyl-<span class=\"text-smallcaps\">L</span>-alanine [1<em>S</em>-(1<em>R</em>*,2<em>S</em>*,3<em>R</em>*,5<em>R</em>*,6<em>R</em>*,16<em>E</em>,18<em>E</em>,20<em>S</em>*,21<em>R</em>*)]-11-chloro-21-hydroxy-12,20-dimethoxy-2,5,9,16-tetramethyl-8,23-dioxo-4,24-dioxa-9,22-diazatetracyclo[19.3.1.1<sup>10,14</sup>.0<sup>3,5</sup>]hexacosa-10,12,14(26),16,18-pentaen-6-yl ester;Maitansine;Maysanine;MTS",
    "duplicated_cas_no": "",
    "SMILES": "C[C@]12[C@@](O1)([C@H](C)[C@@]3(C[C@](O)([C@H](OC)/C=C/C=C(\\C)/CC4=CC(N(C)C(=O)C[C@@H]2OC([C@@H](N(C(C)=O)C)C)=O)=C(Cl)C(OC)=C4)NC(=O)O3)[H])[H]",
    "meta_data": {
        "InChI": "InChI=1S/C34H46ClN3O10/c1-18-11-10-12-26(45-9)34(43)17-25(46-32(42)36-34)19(2)30-33(5,48-30)27(47-31(41)20(3)37(6)21(4)39)16-28(40)38(7)23-14-22(13-18)15-24(44-8)29(23)35/h10-12,14-15,19-20,25-27,30,43H,13,16-17H2,1-9H3,(H,36,42)/b12-10+,18-11+/t19-,20+,25+,26-,27+,30+,33+,34+/m1/s1",
        "InChIKey": null,
        "Canonical SMILES": "O=C1OC2CC(O)(N1)C(OC)C=CC=C(C)CC3=CC(OC)=C(Cl)C(=C3)N(C(=O)CC(OC(=O)C(N(C(=O)C)C)C)C4(OC4C2C)C)C",
        "Molecular Formula": "C<sub>34</sub>H<sub>46</sub>ClN<sub>3</sub>O<sub>10</sub>",
        "Molecular Mass": "692.20",
        "Melting Point": "171-172 °C"
    }
}