{
    "cas_no": "37131-89-8",
    "key_name": "2,4-Dichloro-5-pyrimidinecarboxylic acid",
    "cn_name": "2,4-二氯嘧啶-5-羧酸;",
    "alternate_name": "5-Pyrimidinecarboxylic acid, 2,4-dichloro-;2,4-Dichloro-5-pyrimidinecarboxylic acid",
    "duplicated_cas_no": "",
    "SMILES": "C(O)(=O)C=1C(Cl)=NC(Cl)=NC1",
    "meta_data": {
        "InChI": "InChI=1S/C5H2Cl2N2O2/c6-3-2(4(10)11)1-8-5(7)9-3/h1H,(H,10,11)",
        "InChIKey": null,
        "Canonical SMILES": "O=C(O)C1=CN=C(Cl)N=C1Cl",
        "Molecular Formula": "C<sub>5</sub>H<sub>2</sub>Cl<sub>2</sub>N<sub>2</sub>O<sub>2</sub>",
        "Molecular Mass": "192.99",
        "Melting Point": "96-97 °C"
    }
}