{
    "cas_no": "539-52-6",
    "key_name": "Perillene",
    "cn_name": null,
    "alternate_name": "Furan, 3-(4-methyl-3-penten-1-yl)-;Furan, 3-(4-methyl-3-pentenyl)-;3-(4-Methyl-3-penten-1-yl)furan;Perillene;Perillen;3-(4-Methyl-3-pentenyl)furan",
    "duplicated_cas_no": "",
    "SMILES": "C(CC=C(C)C)C=1C=COC1",
    "meta_data": {
        "InChI": "InChI=1S/C10H14O/c1-9(2)4-3-5-10-6-7-11-8-10/h4,6-8H,3,5H2,1-2H3",
        "InChIKey": null,
        "Canonical SMILES": "O1C=CC(=C1)CCC=C(C)C",
        "Molecular Formula": "C<sub>10</sub>H<sub>14</sub>O",
        "Molecular Mass": "150.22",
        "Boiling Point": "185.5 °C",
        "Density": "0.9017 g/cm³ @ Temp: 20 °C"
    }
}