{
    "cas_no": "1576-85-8",
    "key_name": "4-Penten-1-yl acetate",
    "cn_name": "4-戊烯-1-乙酸酯;",
    "alternate_name": "4-Penten-1-ol, 1-acetate;4-Penten-1-ol, acetate;4-Pentenyl acetate;1-Acetoxy-4-pentene;5-Acetoxy-1-pentene;4-Penten-1-yl acetate;NSC 102504;Acetic acid 4-pentenyl ester",
    "duplicated_cas_no": "",
    "SMILES": "C(OC(C)=O)CCC=C",
    "meta_data": {
        "InChI": "InChI=1S/C7H12O2/c1-3-4-5-6-9-7(2)8/h3H,1,4-6H2,2H3",
        "InChIKey": null,
        "Canonical SMILES": "O=C(OCCCC=C)C",
        "Molecular Formula": "C<sub>7</sub>H<sub>12</sub>O<sub>2</sub>",
        "Molecular Mass": "128.17",
        "Boiling Point": "149-150 °C",
        "Density": "0.896 g/cm³ @ Temp: 24 °C"
    }
}