{
    "cas_no": "656-31-5",
    "key_name": "<em>N</em>-(2-Fluorophenyl)urea",
    "cn_name": "2-氟苯基尿素;",
    "alternate_name": "Urea, <em>N</em>-(2-fluorophenyl)-;Urea, (<em>o</em>-fluorophenyl)-;Urea, (2-fluorophenyl)-;<em>N</em>-(2-Fluorophenyl)urea;2-Fluorophenylurea;NSC 204323;1-(2-Fluorophenyl)urea",
    "duplicated_cas_no": "",
    "SMILES": "N(C(N)=O)C1=C(F)C=CC=C1",
    "meta_data": {
        "InChI": "InChI=1S/C7H7FN2O/c8-5-3-1-2-4-6(5)10-7(9)11/h1-4H,(H3,9,10,11)",
        "InChIKey": null,
        "Canonical SMILES": "O=C(N)NC=1C=CC=CC1F",
        "Molecular Formula": "C<sub>7</sub>H<sub>7</sub>FN<sub>2</sub>O",
        "Molecular Mass": "154.14",
        "Melting Point": "187 °C"
    }
}