{
    "cas_no": "132-98-9",
    "key_name": "Penicillin V potassium",
    "cn_name": "青霉素V钾;3,3-二甲基-7-氧代-6-(2-苯氧基乙酰胺基)-4-硫-1-氮杂双环[3.2.0]庚烷-2-羧酸钾盐;",
    "alternate_name": "4-Thia-1-azabicyclo[3.2.0]heptane-2-carboxylic acid, 3,3-dimethyl-7-oxo-6-[(2-phenoxyacetyl)amino]-, potassium salt (1:1), (2<em>S</em>,5<em>R</em>,6<em>R</em>)-;4-Thia-1-azabicyclo[3.2.0]heptane-2-carboxylic acid, 3,3-dimethyl-7-oxo-6-(2-phenoxyacetamido)-, monopotassium salt;4-Thia-1-azabicyclo[3.2.0]heptane-2-carboxylic acid, 3,3-dimethyl-7-oxo-6-[(phenoxyacetyl)amino]-, monopotassium salt, [2<em>S</em>-(2α,5α,6β)]-;4-Thia-1-azabicyclo[3.2.0]heptane-2-carboxylic acid, 3,3-dimethyl-7-oxo-6-[(phenoxyacetyl)amino]-, monopotassium salt, (2<em>S</em>,5<em>R</em>,6<em>R</em>)-;V-Cillin K;Compocillin VK;Penicillin V potassium;Pen-Vee-K;Pen-Vee K Powder;Penvikal;Phenoxymethylpenicillin potassium;Potassium penicillin V;Potassium penicillin V salt;Potassium phenoxymethylpenicillin;Isocillin;Penicillin V potassium salt;Stabillin VK syrup 62.5;Stabillin VK syrup 125;Phenoxymethylpenicillin potassium salt;Potassium 2,2-dimethyl-6β-phenoxyacetamidopenam-3α-carboxylate;Potassium phenoxymethylpenicillinate;Cliacil;Beromycin;Beromycin (penicillin);Roscopenin;Fenoxypen;Kavepenin;Penicillin VK;Primcillin;Megacillin-oral;Fenocin;V-Pen;Uticillin Vk;Suspen;Anapenil;Penadur VK Mega;Fenoxcillin;Apsin VK;V-Penicillin Kalium;Newcillin;Trepopen VK;Pen-Vi-K;Milcopen;Robicillin VK;Abbocillin VK;Megacilina Oral;Apo-Pen VK;DuraPenicillin;Pfizerpen Vk;Pentabs;Novopen VK;Beepen Vk;Acipen;Rafapen V-K;Stabilin V-K;Orvek;Penivoral;Betapen Vk;Len VK;Cilicaine VK;Nadopen V;Vepicombin;Trepopen;V-Kal K;V-Cil K;Penoxilin;Pen-V;Distaquaine V-K;Oracillin VK;Ospen KV;Servipen V;Pentacillin;Veetids;L.P.V.;Pentranex;Ispenoral;Arcasin;Novo VK;Ospen 250;Vamosyn;Microcillin VK;Micropen VK;Cilacil;Penvisil;Beapen;Asillin;Rocilin;P.V.O.;PVK;Fenospen;Ledercillin Vk;Monocillin E;Betapen V;Vepen;Ocillin VK;Beromycin 400;Calciopen K;Distakaps V-K;Ospeneff;Pedipen;Dowpen V-K;SK-Penicillin VK;Pen V-K;Antibiocin;Fenocin Forte;Pencompren;Qidpen VK;Orapen;DQV-K;Rocillin VK;Oracil VK;Penapar VK;Icipen;Penagen;Sumapen VK;Arcacil;Penicillin V Potassium",
    "duplicated_cas_no": "8059-73-2",
    "SMILES": "C(O)(=O)[C@@H]1N2[C@@]([C@H](NC(COC3=CC=CC=C3)=O)C2=O)(SC1(C)C)[H].[K]",
    "meta_data": {
        "InChI": "InChI=1S/C16H18N2O5S.K/c1-16(2)12(15(21)22)18-13(20)11(14(18)24-16)17-10(19)8-23-9-6-4-3-5-7-9;/h3-7,11-12,14H,8H2,1-2H3,(H,17,19)(H,21,22);/t11-,12+,14-;/m1./s1",
        "InChIKey": null,
        "Canonical SMILES": "[K].O=C(O)C1N2C(=O)C(NC(=O)COC=3C=CC=CC3)C2SC1(C)C",
        "Molecular Formula": "C<sub>16</sub>H<sub>18</sub>N<sub>2</sub>O<sub>5</sub>S.K",
        "Molecular Mass": "",
        "Melting Point": "120-128 °C (decomp)"
    }
}