{
    "cas_no": "2461-18-9",
    "key_name": "Dodecyl glycidyl ether",
    "cn_name": null,
    "alternate_name": "Oxirane, 2-[(dodecyloxy)methyl]-;Propane, 1-(dodecyloxy)-2,3-epoxy-;Oxirane, [(dodecyloxy)methyl]-;2-[(Dodecyloxy)methyl]oxirane;Ether, dodecyl 2,3-epoxypropyl;Dodecyl glycidyl ether;Lauryl glycidyl ether;<em>n</em>-Dodecyl glycidyl ether;[(Dodecyloxy)methyl]oxirane;Dodecyl 2,3-epoxypropyl ether;Glycidyl lauryl ether;Glycidyl dodecyl ether;1,2-Epoxy-3-(dodecyloxy)propane;Dodecyl alcohol glycidyl ether;Glycidyl <em>n</em>-dodecyl ether;Denacol EX 192;LA-EP;Epogosey LA-EP;2-(Dodecoxymethyl)oxirane;Ipox RD 24;Epogosey LA(D)",
    "duplicated_cas_no": "60616-93-5;136959-08-5",
    "SMILES": "C(OCCCCCCCCCCCC)C1CO1",
    "meta_data": {
        "InChI": "InChI=1S/C15H30O2/c1-2-3-4-5-6-7-8-9-10-11-12-16-13-15-14-17-15/h15H,2-14H2,1H3",
        "InChIKey": null,
        "Canonical SMILES": "O(CCCCCCCCCCCC)CC1OC1",
        "Molecular Formula": "C<sub>15</sub>H<sub>30</sub>O<sub>2</sub>",
        "Molecular Mass": "242.40",
        "Boiling Point": "132-135 °C @ Press: 1-2 Torr",
        "Melting Point": "11.8-12.3 °C",
        "Density": "0.8688 g/cm³ @ Temp: 30 °C"
    }
}