{
    "cas_no": "80866-88-2",
    "key_name": "3-Methoxy-4-nitrobenzyl alcohol",
    "cn_name": null,
    "alternate_name": "Benzenemethanol, 3-methoxy-4-nitro-;Benzyl alcohol, 3-methoxy-4-nitro-;3-Methoxy-4-nitrobenzenemethanol;3-Methoxy-4-nitrobenzyl alcohol;(3-Methoxy-4-nitrophenyl)methanol;4-Nitro-3-methoxybenzyl alcohol",
    "duplicated_cas_no": "",
    "SMILES": "O(C)C1=C(N(=O)=O)C=CC(CO)=C1",
    "meta_data": {
        "InChI": "InChI=1S/C8H9NO4/c1-13-8-4-6(5-10)2-3-7(8)9(11)12/h2-4,10H,5H2,1H3",
        "InChIKey": null,
        "Canonical SMILES": "O=N(=O)C1=CC=C(C=C1OC)CO",
        "Molecular Formula": "C<sub>8</sub>H<sub>9</sub>NO<sub>4</sub>",
        "Molecular Mass": "183.16",
        "Melting Point": "96 °C"
    }
}