{
    "cas_no": "2051-49-2",
    "key_name": "Hexanoic anhydride",
    "cn_name": "己酸酐;次羊脂酸酐;",
    "alternate_name": "Hexanoic acid, 1,1′-anhydride;Hexanoic anhydride;Hexanoic acid, anhydride;Caproic acid anhydride;Caproic anhydride;Capronic acid anhydride;Hexanoyl anhydride;Capronic anhydride;<em>n</em>-Hexanoic acid anhydride;<em>n</em>-Hexanoic anhydride",
    "duplicated_cas_no": "",
    "SMILES": "O(C(CCCCC)=O)C(CCCCC)=O",
    "meta_data": {
        "InChI": "InChI=1S/C12H22O3/c1-3-5-7-9-11(13)15-12(14)10-8-6-4-2/h3-10H2,1-2H3",
        "InChIKey": null,
        "Canonical SMILES": "O=C(OC(=O)CCCCC)CCCCC",
        "Molecular Formula": "C<sub>12</sub>H<sub>22</sub>O<sub>3</sub>",
        "Molecular Mass": "214.30",
        "Boiling Point": "130-131 °C @ Press: 15 Torr",
        "Melting Point": "-41 °C",
        "Density": "0.92397 g/cm³ @ Temp: 15 °C"
    }
}