{
    "cas_no": "4991-47-3",
    "key_name": "Zinc palmitate",
    "cn_name": "二棕榈酸锌酯;",
    "alternate_name": "Hexadecanoic acid, zinc salt (2:1);Palmitic acid, zinc salt;Zinc palmitate;Hexadecanoic acid, zinc salt;Zinc hexadecanoate;ZS 16",
    "duplicated_cas_no": "",
    "SMILES": "C(CCCCCCCCCC)CCCCC(O)=O.[Zn]",
    "meta_data": {
        "InChI": "InChI=1S/C16H32O2.Zn/c1-2-3-4-5-6-7-8-9-10-11-12-13-14-15-16(17)18;/h2-15H2,1H3,(H,17,18);",
        "InChIKey": null,
        "Canonical SMILES": "[Zn].O=C(O)CCCCCCCCCCCCCCC",
        "Molecular Formula": "C<sub>16</sub>H<sub>32</sub>O<sub>2</sub>.<sup>1</sup>/<sub>2</sub>Zn",
        "Molecular Mass": "",
        "Melting Point": "131.7 °C",
        "Density": "1.14 g/cm³"
    }
}