{
    "cas_no": "57774-77-3",
    "key_name": "4-(1,1-Dimethylethyl)benzenecarbothioamide",
    "cn_name": "对叔丁基硫代苯甲酰胺;",
    "alternate_name": "Benzenecarbothioamide, 4-(1,1-dimethylethyl)-;4-(1,1-Dimethylethyl)benzenecarbothioamide;4-(<em>tert</em>-Butyl)thiobenzamide",
    "duplicated_cas_no": "",
    "SMILES": "C(C)(C)(C)C1=CC=C(C(N)=S)C=C1",
    "meta_data": {
        "InChI": "InChI=1S/C11H15NS/c1-11(2,3)9-6-4-8(5-7-9)10(12)13/h4-7H,1-3H3,(H2,12,13)",
        "InChIKey": null,
        "Canonical SMILES": "S=C(N)C1=CC=C(C=C1)C(C)(C)C",
        "Molecular Formula": "C<sub>11</sub>H<sub>15</sub>NS",
        "Molecular Mass": "193.31",
        "Melting Point": "145.5-147.5 °C"
    }
}