{
    "cas_no": "5221-17-0",
    "key_name": "2,3-Dibromopropanal",
    "cn_name": "2,3-二溴丙醛;2,3-二溴丙醛;",
    "alternate_name": "Propanal, 2,3-dibromo-;Propionaldehyde, 2,3-dibromo-;2,3-Dibromopropanal;2,3-Dibromopropionaldehyde;Acrolein dibromide;2,3-Dibromopropional;NSC 6737",
    "duplicated_cas_no": "69621-81-4;167386-74-5",
    "SMILES": "C(CBr)(C=O)Br",
    "meta_data": {
        "InChI": "InChI=1S/C3H4Br2O/c4-1-3(5)2-6/h2-3H,1H2",
        "InChIKey": null,
        "Canonical SMILES": "O=CC(Br)CBr",
        "Molecular Formula": "C<sub>3</sub>H<sub>4</sub>Br<sub>2</sub>O",
        "Molecular Mass": "215.87",
        "Boiling Point": "79-80 °C @ Press: 14 Torr",
        "Density": "2.192 g/cm³ @ Temp: 20 °C"
    }
}