{
    "cas_no": "2549-51-1",
    "key_name": "Ethenyl 2-chloroacetate",
    "cn_name": "氯乙酸乙烯酯;氯代醋酸乙烯酯;",
    "alternate_name": "Acetic acid, 2-chloro-, ethenyl ester;Acetic acid, chloro-, vinyl ester;Acetic acid, chloro-, ethenyl ester;Ethenyl 2-chloroacetate;Vinyl chloroacetate;Vinyl monochloroacetate;Vinyl 2-chloroacetate",
    "duplicated_cas_no": "",
    "SMILES": "C(OC=C)(CCl)=O",
    "meta_data": {
        "InChI": "InChI=1S/C4H5ClO2/c1-2-7-4(6)3-5/h2H,1,3H2",
        "InChIKey": null,
        "Canonical SMILES": "O=C(OC=C)CCl",
        "Molecular Formula": "C<sub>4</sub>H<sub>5</sub>ClO<sub>2</sub>",
        "Molecular Mass": "120.53",
        "Boiling Point": "63-70 °C @ Press: 55 Torr",
        "Density": "1.187 g/cm³ @ Temp: 24 °C"
    }
}