{
    "cas_no": "110-27-0",
    "key_name": "Isopropyl myristate",
    "cn_name": "肉豆蔻酸异丙酯;十四酸异丙酯;",
    "alternate_name": "Tetradecanoic acid, 1-methylethyl ester;Myristic acid, isopropyl ester;Bisomel;Emcol IM;Isopropyl myristate;Kesscomir;Promyr;Deltyl Extra;Isopropyl tetradecanoate;Sinnoester MIP;Kessco IPM;Wickenol 101;Crodamol IPM;Isomyst;Stepan D 50;Emerest 2314;D 50;D 50 (emollient);IPM;Crodacol IPM;1-Methylethyl tetradecanoate;Rilanit IPM;IPM-R;Estol IPM 1512;IPM 100;Estol 1512;Tegosoft M;Radia 7190;Pelemol IPM;Estol 1514;NSC 406280;IPM-EX;Lexol IPM;Nikkol IPM;Stepan IPM;Nikkol IPM 100;Nikkol IPM-EX;Exceparl IPM;Isopropyl myristate-PM;Kollicream IPM;Pastell IP 14;Liponate IPM;Matlube IPM-S;SR Crodamol IPM-LQ;Propan-2-yl tetradecanoate;SR Crodamol IPM-LQ(JP);Exceparl IPML;Radia 7730;HallStar IPM NF;Wilfarester IPM RSPO MB",
    "duplicated_cas_no": "1405-98-7;852553-53-8",
    "SMILES": "C(CCCCCCCCCCCC)C(OC(C)C)=O",
    "meta_data": {
        "InChI": "InChI=1S/C17H34O2/c1-4-5-6-7-8-9-10-11-12-13-14-15-17(18)19-16(2)3/h16H,4-15H2,1-3H3",
        "InChIKey": null,
        "Canonical SMILES": "O=C(OC(C)C)CCCCCCCCCCCCC",
        "Molecular Formula": "C<sub>17</sub>H<sub>34</sub>O<sub>2</sub>",
        "Molecular Mass": "270.45",
        "Boiling Point": "192.6 °C @ Press: 20 Torr",
        "Melting Point": "~3 °C (approx)",
        "Density": "0.8532 g/cm³ @ Temp: 20 °C"
    }
}