{
    "cas_no": "7580-67-8",
    "key_name": "Lithium hydride",
    "cn_name": "氢化锂;",
    "alternate_name": "Lithium hydride (LiH);Lithium monohydride;Lithium hydride",
    "duplicated_cas_no": "64975-42-4;159577-72-7",
    "SMILES": "[LiH]",
    "meta_data": {
        "InChI": "InChI=1S/Li.H",
        "InChIKey": null,
        "Canonical SMILES": "[LiH]",
        "Molecular Formula": "HLi",
        "Molecular Mass": "",
        "Melting Point": "680 °C",
        "Density": "0.76-0.77 g/cm³"
    }
}