{
    "cas_no": "94-91-7",
    "key_name": "<em>N</em>,<em>N</em>′-Disalicylidene-1,2-propanediamine",
    "cn_name": "氯化硫;N,N\"-双水杨醛缩-1,2-丙二胺;N,N\"-双亚水杨-1,2-丙二胺;N,N\"-双(邻羟基亚苄基)-1,2-二氨基丙烷;",
    "alternate_name": "Phenol, 2,2′-[(1-methyl-1,2-ethanediyl)bis(nitrilomethylidyne)]bis-;<em>o</em>-Cresol, α,α′-(propylenedinitrilo)di-;2,2′-[(1-Methyl-1,2-ethanediyl)bis(nitrilomethylidyne)]bis[phenol];Tenamene 60;<em>N</em>,<em>N</em>′-Disalicylidene-1,2-diaminopropane;<em>N</em>,<em>N</em>′-Disalicylidene-1,2-propanediamine;<em>N</em>,<em>N</em>′-Bis(salicylidene)-1,2-diaminopropane;<em>N</em>,<em>N</em>′-Disalicylidene-1,2-propylenediamine;DMD;Cuvan 80;<em>N</em>,<em>N</em>′-Propylenebis(salicylideneimine);Keromet MD;Metal Deactivator 2;<em>N</em>,<em>N</em>′-1,2-Propylenebis(salicylideneamine);Sekurisu AK 24M;NSC 67004;NSC 68420;KMD 80;Dailube G 25;Ethanox 4705;<em>N</em>,<em>N</em>′-Bis(salicylidene)propane-1,2-diamine;T 1201;<em>N</em>′,<em>N</em>-Bis(salicylidene)-1,2-propanediamine;2,2′-[Propane-1,2-diylbis(azanilylidenemethanilylidene)]diphenol",
    "duplicated_cas_no": "67920-91-6;1137599-96-2",
    "SMILES": "C(=NCC(N=CC1=C(O)C=CC=C1)C)C2=C(O)C=CC=C2",
    "meta_data": {
        "InChI": "InChI=1S/C17H18N2O2/c1-13(19-12-15-7-3-5-9-17(15)21)10-18-11-14-6-2-4-8-16(14)20/h2-9,11-13,20-21H,10H2,1H3",
        "InChIKey": null,
        "Canonical SMILES": "OC=1C=CC=CC1C=NCC(N=CC=2C=CC=CC2O)C",
        "Molecular Formula": "C<sub>17</sub>H<sub>18</sub>N<sub>2</sub>O<sub>2</sub>",
        "Molecular Mass": "282.34",
        "Melting Point": "45.1-45.9 °C"
    }
}