{
    "cas_no": "632-11-1",
    "key_name": "(2<em>R</em>)-3-Amino-2-hydroxypropanoic acid",
    "cn_name": null,
    "alternate_name": "Propanoic acid, 3-amino-2-hydroxy-, (2<em>R</em>)-;Propanoic acid, 3-amino-2-hydroxy-, (<em>R</em>)-;(2<em>R</em>)-3-Amino-2-hydroxypropanoic acid;(<em>R</em>)-Isoserine;(R)-3-Amino-2-hydroxypropanoic acid;(2R)-3-Amino-2-hydroxypropanoic acid",
    "duplicated_cas_no": "",
    "SMILES": "[C@H](C(O)=O)(CN)O",
    "meta_data": {
        "InChI": "InChI=1S/C3H7NO3/c4-1-2(5)3(6)7/h2,5H,1,4H2,(H,6,7)/t2-/m1/s1",
        "InChIKey": null,
        "Canonical SMILES": "O=C(O)C(O)CN",
        "Molecular Formula": "C<sub>3</sub>H<sub>7</sub>NO<sub>3</sub>",
        "Molecular Mass": "105.09",
        "Melting Point": "197-198 °C"
    }
}