{
    "cas_no": "7466-54-8",
    "key_name": "2-Methoxybenzohydrazide",
    "cn_name": "2-甲氧基亚苯基肼;",
    "alternate_name": "Benzoic acid, 2-methoxy-, hydrazide;<em>o</em>-Anisic acid, hydrazide;(2-Methoxybenzoyl)hydrazine;<em>o</em>-Methoxybenzoic acid hydrazide;<em>o</em>-Methoxybenzohydrazide;<em>o</em>-Methoxybenzoyl hydrazide;2-Methoxybenzoic acid hydrazide;(<em>o</em>-Methoxybenzoyl)hydrazine;2-Methoxybenzohydrazide;2-Methoxybenzhydrazide;NSC 402658",
    "duplicated_cas_no": "",
    "SMILES": "C(NN)(=O)C1=C(OC)C=CC=C1",
    "meta_data": {
        "InChI": "InChI=1S/C8H10N2O2/c1-12-7-5-3-2-4-6(7)8(11)10-9/h2-5H,9H2,1H3,(H,10,11)",
        "InChIKey": null,
        "Canonical SMILES": "O=C(NN)C=1C=CC=CC1OC",
        "Molecular Formula": "C<sub>8</sub>H<sub>10</sub>N<sub>2</sub>O<sub>2</sub>",
        "Molecular Mass": "166.18",
        "Melting Point": "80-81 °C"
    }
}