{
    "cas_no": "144-83-2",
    "key_name": "Sulfapyridine",
    "cn_name": "磺胺吡啶;4-氨基-N-(2-吡啶基)苯磺酰胺;",
    "alternate_name": "Benzenesulfonamide, 4-amino-<em>N</em>-2-pyridinyl-;Sulfanilamide, <em>N</em><sup>1</sup>-2-pyridyl-;Sulfanilamide, <em>N</em><sup>1</sup>-2(1<em>H</em>)-pyridylidene-;Sulfanilamide, <em>N</em><sup>4</sup>-2-pyridyl-;4-Amino-<em>N</em>-2-pyridinylbenzenesulfonamide;M and B 693;Adiplon;Coccoclase;Dagenan;Eubasin;Eubasinum;Haptocil;Piridazol;Plurazol;<em>N</em><sup>1</sup>-2-Pyridylsulfanilamide;Relbapiridina;Ronin;Septipulmon;Streptosilpyridine;2-Sulfanilamidopyridine;Sulfapyridine;Sulfidine;Thioseptal;Trianon;2-Sulfapyridine;A-499;Sulfidin;Pyriamid;Pyridazol;Sulphapyridine;4-[(2-Pyridylamino)sulfonyl]aniline;Pirodazole;NSC 41791;NSC 4753;<em>N</em>-(2-Pyridyl)-4-aminobenzenesulfonamide;MeSH ID: D013427",
    "duplicated_cas_no": "",
    "SMILES": "S(NC1=CC=CC=N1)(=O)(=O)C2=CC=C(N)C=C2",
    "meta_data": {
        "InChI": "InChI=1S/C11H11N3O2S/c12-9-4-6-10(7-5-9)17(15,16)14-11-3-1-2-8-13-11/h1-8H,12H2,(H,13,14)",
        "InChIKey": null,
        "Canonical SMILES": "O=S(=O)(NC1=NC=CC=C1)C2=CC=C(N)C=C2",
        "Molecular Formula": "C<sub>11</sub>H<sub>11</sub>N<sub>3</sub>O<sub>2</sub>S",
        "Molecular Mass": "249.29",
        "Melting Point": "192 °C"
    }
}