{
    "cas_no": "443-83-4",
    "key_name": "1-Chloro-3-fluoro-2-methylbenzene",
    "cn_name": "2-氯-6-氟甲苯;1-氯-3-氟-2-甲基苯;",
    "alternate_name": "Benzene, 1-chloro-3-fluoro-2-methyl-;Toluene, 2-chloro-6-fluoro-;1-Chloro-3-fluoro-2-methylbenzene;2-Chloro-6-fluorotoluene;2-Fluoro-6-chlorotoluene;6-Chloro-2-fluorotoluene",
    "duplicated_cas_no": "",
    "SMILES": "CC1=C(Cl)C=CC=C1F",
    "meta_data": {
        "InChI": "InChI=1S/C7H6ClF/c1-5-6(8)3-2-4-7(5)9/h2-4H,1H3",
        "InChIKey": null,
        "Canonical SMILES": "FC1=CC=CC(Cl)=C1C",
        "Molecular Formula": "C<sub>7</sub>H<sub>6</sub>ClF",
        "Molecular Mass": "144.57",
        "Boiling Point": "154 °C"
    }
}