{
    "cas_no": "485-63-2",
    "key_name": "3′,4′,7-Trihydroxyisoflavone",
    "cn_name": "3\",4\",7-三羟基异黄酮;",
    "alternate_name": "4<em>H</em>-1-Benzopyran-4-one, 3-(3,4-dihydroxyphenyl)-7-hydroxy-;Isoflavone, 3′,4′,7-trihydroxy-;3-(3,4-Dihydroxyphenyl)-7-hydroxy-4<em>H</em>-1-benzopyran-4-one;3′,4′,7-Trihydroxyisoflavone;3′-Hydroxydaidzein;7,3′,4′-Trihydroxyisoflavone",
    "duplicated_cas_no": "",
    "SMILES": "O=C1C(=COC=2C1=CC=C(O)C2)C3=CC(O)=C(O)C=C3",
    "meta_data": {
        "InChI": "InChI=1S/C15H10O5/c16-9-2-3-10-14(6-9)20-7-11(15(10)19)8-1-4-12(17)13(18)5-8/h1-7,16-18H",
        "InChIKey": null,
        "Canonical SMILES": "O=C1C(=COC2=CC(O)=CC=C12)C=3C=CC(O)=C(O)C3",
        "Molecular Formula": "C<sub>15</sub>H<sub>10</sub>O<sub>5</sub>",
        "Molecular Mass": "270.24",
        "Melting Point": "245-250 °C"
    }
}