{
    "cas_no": "76101-30-9",
    "key_name": "Phosphorodichloridous acid, 2-cyanoethyl ester",
    "cn_name": null,
    "alternate_name": "Phosphorodichloridous acid, 2-cyanoethyl ester;2-Cyanoethyl phosphorodichloridite;(2-Cyanoethoxy)dichlorophosphine;3-Dichlorophosphanyloxypropanenitrile",
    "duplicated_cas_no": "",
    "SMILES": "O(CCC#N)P(Cl)Cl",
    "meta_data": {
        "InChI": "InChI=1S/C3H4Cl2NOP/c4-8(5)7-3-1-2-6/h1,3H2",
        "InChIKey": null,
        "Canonical SMILES": "N#CCCOP(Cl)Cl",
        "Molecular Formula": "C<sub>3</sub>H<sub>4</sub>Cl<sub>2</sub>NOP",
        "Molecular Mass": "171.95",
        "Boiling Point": "110-112 °C @ Press: 9 Torr",
        "Density": "1.3919 g/cm³ @ Temp: 20 °C"
    }
}