{
    "cas_no": "10138-62-2",
    "key_name": "Holmium chloride",
    "cn_name": "氯化钬(Ⅲ)(无水);三氯化钬;",
    "alternate_name": "Holmium chloride (HoCl<sub>3</sub>);Holmium trichloride;Holmium chloride;Holmium(III) chloride;NSC 177680",
    "duplicated_cas_no": "853560-92-6",
    "SMILES": "[Ho](Cl)(Cl)Cl",
    "meta_data": {
        "InChI": "InChI=1S/3ClH.Ho/h3*1H;/q;;;+3/p-3",
        "InChIKey": null,
        "Canonical SMILES": "Cl[Ho](Cl)Cl",
        "Molecular Formula": "Cl<sub>3</sub>Ho",
        "Molecular Mass": "",
        "Melting Point": "718 °C"
    }
}