{
    "cas_no": "17742-69-7",
    "key_name": "1,3-Dichloro-2-methoxy-5-nitrobenzene",
    "cn_name": "2,6-二氯-4-硝基茴香醚;",
    "alternate_name": "Benzene, 1,3-dichloro-2-methoxy-5-nitro-;Anisole, 2,6-dichloro-4-nitro-;1,3-Dichloro-2-methoxy-5-nitrobenzene;3,5-Dichloro-4-methoxynitrobenzene;2,6-Dichloro-4-nitroanisole;NSC 212118",
    "duplicated_cas_no": "",
    "SMILES": "O(C)C1=C(Cl)C=C(N(=O)=O)C=C1Cl",
    "meta_data": {
        "InChI": "InChI=1S/C7H5Cl2NO3/c1-13-7-5(8)2-4(10(11)12)3-6(7)9/h2-3H,1H3",
        "InChIKey": null,
        "Canonical SMILES": "O=N(=O)C1=CC(Cl)=C(OC)C(Cl)=C1",
        "Molecular Formula": "C<sub>7</sub>H<sub>5</sub>Cl<sub>2</sub>NO<sub>3</sub>",
        "Molecular Mass": "222.03",
        "Melting Point": "97-98 °C"
    }
}