{
    "cas_no": "27918-31-6",
    "key_name": "2,3,4,5,6-Pentafluorobenzenesulfenyl chloride",
    "cn_name": "五氟苯亚磺酰氯;",
    "alternate_name": "Benzenesulfenyl chloride, 2,3,4,5,6-pentafluoro-;Benzenesulfenyl chloride, pentafluoro-;2,3,4,5,6-Pentafluorobenzenesulfenyl chloride;Pentafluorobenzenesulfenyl chloride;Pentafluorophenylsulfenyl chloride;(Chlorothio)pentafluorobenzene;[(Pentafluorophenyl)sulfanyl]chlorane",
    "duplicated_cas_no": "",
    "SMILES": "S(Cl)C1=C(F)C(F)=C(F)C(F)=C1F",
    "meta_data": {
        "InChI": "InChI=1S/C6ClF5S/c7-13-6-4(11)2(9)1(8)3(10)5(6)12",
        "InChIKey": null,
        "Canonical SMILES": "FC=1C(F)=C(F)C(SCl)=C(F)C1F",
        "Molecular Formula": "C<sub>6</sub>ClF<sub>5</sub>S",
        "Molecular Mass": "234.57",
        "Boiling Point": "19-24 °C @ Press: 0.02 Torr"
    }
}