{
    "cas_no": "112779-14-3",
    "key_name": "Ethyl 5-amino-1-(1,1-dimethylethyl)-1<em>H</em>-pyrazole-4-carboxylate",
    "cn_name": null,
    "alternate_name": "1<em>H</em>-Pyrazole-4-carboxylic acid, 5-amino-1-(1,1-dimethylethyl)-, ethyl ester;Ethyl 5-amino-1-(1,1-dimethylethyl)-1<em>H</em>-pyrazole-4-carboxylate;Ethyl 5-amino-1-<em>tert</em>-butyl-1<em>H</em>-pyrazole-4-carboxylate;5-Amino-1-<em>tert</em>-butyl-1<em>H</em>-pyrazole-4-carboxylic acid ethyl ester;Ethyl 5-amino-1-tertbutylpyrazole-4-carboxylate",
    "duplicated_cas_no": "",
    "SMILES": "C(C)(C)(C)N1C(N)=C(C(OCC)=O)C=N1",
    "meta_data": {
        "InChI": "InChI=1S/C10H17N3O2/c1-5-15-9(14)7-6-12-13(8(7)11)10(2,3)4/h6H,5,11H2,1-4H3",
        "InChIKey": null,
        "Canonical SMILES": "O=C(OCC)C=1C=NN(C1N)C(C)(C)C",
        "Molecular Formula": "C<sub>10</sub>H<sub>17</sub>N<sub>3</sub>O<sub>2</sub>",
        "Molecular Mass": "211.26",
        "Boiling Point": "110 °C @ Press: 0.1 Torr"
    }
}