{
    "cas_no": "40216-83-9",
    "key_name": "4-Hydroxy-<span class=\"text-smallcaps\">L</span>-proline methyl ester hydrochloride",
    "cn_name": null,
    "alternate_name": "<span class=\"text-smallcaps\">L</span>-Proline, 4-hydroxy-, methyl ester, hydrochloride (1:1), (4<em>R</em>)-;<span class=\"text-smallcaps\">L</span>-Proline, 4-hydroxy-, methyl ester, hydrochloride, <em>trans</em>-;Proline, 4-hydroxy-, methyl ester, hydrochloride;<span class=\"text-smallcaps\">L</span>-Proline, 4-hydroxy-, methyl ester, hydrochloride, (4<em>R</em>)-;Hydroxyproline methyl ester hydrochloride;<span class=\"text-smallcaps\">L</span>-Hydroxyproline methyl ester hydrochloride;4-Hydroxy-<span class=\"text-smallcaps\">L</span>-proline methyl ester hydrochloride;<em>trans</em>-4-Hydroxyproline methyl ester hydrochloride;Methyl <span class=\"text-smallcaps\">L</span>-hydroxyprolinate hydrochloride;4-<em>trans</em>-Hydroxy-<span class=\"text-smallcaps\">L</span>-proline methyl ester hydrochloride;<em>trans</em>-4-Hydroxy-<span class=\"text-smallcaps\">L</span>-proline methyl ester hydrochloride;(4<em>R</em>)-4-Hydroxy-<span class=\"text-smallcaps\">L</span>-proline methyl ester hydrochloride;4-Hydroxyproline methyl ester hydrochloride;Methyl (2<em>S</em>,4<em>R</em>)-4-hydroxy-2-pyrrolidinecarboxylate hydrochloride;Methyl <em>trans</em>-4-hydroxy-<span class=\"text-smallcaps\">L</span>-prolinate hydrochloride;(2S,4R)-Methyl 4-hydroxypyrrolidine-2-carboxylate hydrochloride;(2S,4R)-4-Hydroxypyrrolidine-2-carboxylic acid methyl ester hydrochloride;Methyl(2S,4R)-4-hydroxypyrrolidine-2-carboxylate hydrochloride;4-Hydroxyproline ester hydrochloride",
    "duplicated_cas_no": "116839-10-2;55582-70-2;257626-12-3",
    "SMILES": "C(OC)(=O)[C@@H]1C[C@@H](O)CN1.Cl",
    "meta_data": {
        "InChI": "InChI=1S/C6H11NO3.ClH/c1-10-6(9)5-2-4(8)3-7-5;/h4-5,7-8H,2-3H2,1H3;1H/t4-,5+;/m1./s1",
        "InChIKey": null,
        "Canonical SMILES": "Cl.O=C(OC)C1NCC(O)C1",
        "Molecular Formula": "C<sub>6</sub>H<sub>11</sub>NO<sub>3</sub>.ClH",
        "Molecular Mass": "",
        "Melting Point": "169 °C"
    }
}