{
    "cas_no": "4658-28-0",
    "key_name": "Aziprotryne",
    "cn_name": "叠氮净;叠氮津;叠氮净;",
    "alternate_name": "1,3,5-Triazin-2-amine, 4-azido-<em>N</em>-(1-methylethyl)-6-(methylthio)-;<em>s</em>-Triazine, 2-azido-4-(isopropylamino)-6-(methylthio)-;4-Azido-<em>N</em>-(1-methylethyl)-6-(methylthio)-1,3,5-triazin-2-amine;C 7019;2-Azido-4-isopropylamino-6-methylmercapto-<em>s</em>-triazine;CIBA C 7019;Aziprotryne;2-Azido-4-isopropylamino-6-methylthio-<em>s</em>-triazine;2-Azido-4-isopropylamino-6-methylthio-1,3,5-triazine;Mesoranil;2-Methylthio-4-azido-6-isopropylamino-1,3,5-triazine;Mezuron;Aziprotryn;Brasoran;4-Azido-<em>N</em>-isopropyl-6-(methylthio)-1,3,5-triazin-2-amine",
    "duplicated_cas_no": "",
    "SMILES": "N(C(C)C)C=1N=C(N=[N+]=[N-])N=C(SC)N1",
    "meta_data": {
        "InChI": "InChI=1S/C7H11N7S/c1-4(2)9-5-10-6(13-14-8)12-7(11-5)15-3/h4H,1-3H3,(H,9,10,11,12)",
        "InChIKey": null,
        "Canonical SMILES": "[N-]=[N+]=NC=1N=C(N=C(N1)NC(C)C)SC",
        "Molecular Formula": "C<sub>7</sub>H<sub>11</sub>N<sub>7</sub>S",
        "Molecular Mass": "",
        "Melting Point": "92-94 °C"
    }
}