{
    "cas_no": "495-48-7",
    "key_name": "Azoxybenzene",
    "cn_name": "氧化偶氮苯;1-氧化二苯基二氮烯;二苯基二氮烯-1-氧化物;氧化偶氮苯;Azoxybenzene;Fenazox;",
    "alternate_name": "Diazene, 1,2-diphenyl-, 1-oxide;Azoxybenzene;Diazene, diphenyl-, 1-oxide;Azobenzene, oxide;Azoxybenzide;Fenazox;Fentoxan;NSC 1796",
    "duplicated_cas_no": "55599-32-1",
    "SMILES": "N(=NC1=CC=CC=C1)(=O)C2=CC=CC=C2",
    "meta_data": {
        "InChI": "InChI=1S/C12H10N2O/c15-14(12-9-5-2-6-10-12)13-11-7-3-1-4-8-11/h1-10H",
        "InChIKey": null,
        "Canonical SMILES": "O=N(=NC=1C=CC=CC1)C=2C=CC=CC2",
        "Molecular Formula": "C<sub>12</sub>H<sub>10</sub>N<sub>2</sub>O",
        "Molecular Mass": "198.22",
        "Melting Point": "36 °C",
        "Density": "1.1590 g/cm³ @ Temp: 26 °C"
    }
}