{
    "cas_no": "7474-78-4",
    "key_name": "3,4-Diaminobenzenesulfonic acid",
    "cn_name": "3,4-二氨基苯磺酸;",
    "alternate_name": "Benzenesulfonic acid, 3,4-diamino-;3,4-Diaminobenzenesulfonic acid;NSC 401086;4-Amino-3-ammoniobenzenesulfonate",
    "duplicated_cas_no": "",
    "SMILES": "S(=O)(=O)(O)C1=CC(N)=C(N)C=C1",
    "meta_data": {
        "InChI": "InChI=1S/C6H8N2O3S/c7-5-2-1-4(3-6(5)8)12(9,10)11/h1-3H,7-8H2,(H,9,10,11)",
        "InChIKey": null,
        "Canonical SMILES": "O=S(=O)(O)C1=CC=C(N)C(N)=C1",
        "Molecular Formula": "C<sub>6</sub>H<sub>8</sub>N<sub>2</sub>O<sub>3</sub>S",
        "Molecular Mass": "188.20",
        "Melting Point": "&gt;300 °C"
    }
}