{
    "cas_no": "3282-30-2",
    "key_name": "Pivaloyl chloride",
    "cn_name": "三甲基乙酰氯;特戊酰氯;",
    "alternate_name": "Propanoyl chloride, 2,2-dimethyl-;Pivaloyl chloride;2,2-Dimethylpropanoyl chloride;Trimethylacetyl chloride;Neopentanoyl chloride;2,2-Dimethylpropionyl chloride;Pivalic acid chloride;Pivalyl chloride;Pivalolyl chloride;2,2-Dimethylpropionic acid chloride;<em>tert</em>-Butylcarbonyl chloride;1,1-Dimethylethanecarbonyl chloride;<em>tert</em>-Butyl chloro ketone;2,2,2-Trimethylacetyl chloride;Propanoic acid, 2,2-dimethyl-, anhydride with carbonochloridic acid",
    "duplicated_cas_no": "1612831-59-0",
    "SMILES": "C(C(Cl)=O)(C)(C)C",
    "meta_data": {
        "InChI": "InChI=1S/C5H9ClO/c1-5(2,3)4(6)7/h1-3H3",
        "InChIKey": null,
        "Canonical SMILES": "O=C(Cl)C(C)(C)C",
        "Molecular Formula": "C<sub>5</sub>H<sub>9</sub>ClO",
        "Molecular Mass": "120.58",
        "Boiling Point": "107 °C",
        "Density": "1.003 g/cm³ @ Temp: 20 °C"
    }
}