{
    "cas_no": "130-26-7",
    "key_name": "Clioquinol",
    "cn_name": "氯碘羟喹;5-氯-7-碘-8-羟基喹啉;",
    "alternate_name": "8-Quinolinol, 5-chloro-7-iodo-;5-Chloro-7-iodo-8-quinolinol;Alchloquin;Amebil;Amoenol;Bactol;5-Chloro-8-hydroxy-7-iodoquinoline;5-Chloro-7-iodo-8-hydroxyquinoline;Chloroiodoquine;Clioquinol;Eczecidin;Emaform;Enteroquinol;Entero-Vioform;Enterozol;Entrokin;Iodenterol;Iodochlorhydroxyquin;Iodochlorhydroxyquinol;7-Iodo-5-chloroxine;Iodoenterol;Nioform;Quinambicide;Rometin;Vioform;Iodochloroxyquinoline;Chinoform;Cifoform;5-Chloro-7-iodo-8-oxyquinoline;7-Iodo-5-chloro-8-hydroxyquinoline;Quinoform;Dioquinol;8-Hydroxy-7-iodo-5-chloroquinoline;Chloroiodoquin;Barquinol;Budoform;Cliquinol;Hi-Enterol;Iodochloroxine;Iodochloroquine;Chlorojodochin;Iodoxyquinoline;Lekosept;Enteroseptol;Quinoform (antiseptic);Quiniodochlor;Dizenterol;Rheaform;Vioformio;Quin-O-Creme;Hi-Eneterol;Rheaform Boluses;Cort-Quin;NSC 3531;NSC 74938;Quinidochlor;MeSH ID: D007464",
    "duplicated_cas_no": "22112-03-4;736176-41-3",
    "SMILES": "OC=1C2=C(C(Cl)=CC1I)C=CC=N2",
    "meta_data": {
        "InChI": "InChI=1S/C9H5ClINO/c10-6-4-7(11)9(13)8-5(6)2-1-3-12-8/h1-4,13H",
        "InChIKey": null,
        "Canonical SMILES": "ClC=1C=C(I)C(O)=C2N=CC=CC12",
        "Molecular Formula": "C<sub>9</sub>H<sub>5</sub>ClINO",
        "Molecular Mass": "305.50",
        "Melting Point": "178-179 °C"
    }
}