{
    "cas_no": "20125-84-2",
    "key_name": "<em>cis</em>-3-Octen-1-ol",
    "cn_name": "顺式-3-辛烯醇;",
    "alternate_name": "3-Octen-1-ol, (3<em>Z</em>)-;3-Octen-1-ol, (<em>Z</em>)-;(3<em>Z</em>)-3-Octen-1-ol;(<em>Z</em>)-3-Octen-1-ol;<em>cis</em>-3-Octen-1-ol;<em>cis</em>-3-Octene-1-ol",
    "duplicated_cas_no": "",
    "SMILES": "C(\\CCCC)=C\\CCO",
    "meta_data": {
        "InChI": "InChI=1S/C8H16O/c1-2-3-4-5-6-7-8-9/h5-6,9H,2-4,7-8H2,1H3/b6-5-",
        "InChIKey": null,
        "Canonical SMILES": "OCCC=CCCCC",
        "Molecular Formula": "C<sub>8</sub>H<sub>16</sub>O",
        "Molecular Mass": "128.21",
        "Boiling Point": "95-96 °C @ Press: 15 Torr"
    }
}