{
    "cas_no": "167484-18-6",
    "key_name": "Phenylmethyl 1,2-dihydrospiro[3<em>H</em>-indole-3,4′-piperidine]-1′-carboxylate",
    "cn_name": null,
    "alternate_name": "Spiro[3<em>H</em>-indole-3,4′-piperidine]-1′-carboxylic acid, 1,2-dihydro-, phenylmethyl ester;Phenylmethyl 1,2-dihydrospiro[3<em>H</em>-indole-3,4′-piperidine]-1′-carboxylate;1′-(Benzyloxycarbonyl)spiro(indoline-3,4′-piperidine);1,2-Dihydrospiro[3<em>H</em>-indole-3,4′-piperidine]-1′-carboxylic acid phenylmethyl ester;Benzyl spiro[indoline-3,4′-piperidine]-1′-carboxylate;Benzyl 1,2-dihydrospiro[indole-3,4′-piperidine]-1′-carboxylate",
    "duplicated_cas_no": "",
    "SMILES": "C(OCC1=CC=CC=C1)(=O)N2CCC3(C=4C(NC3)=CC=CC4)CC2",
    "meta_data": {
        "InChI": "InChI=1S/C20H22N2O2/c23-19(24-14-16-6-2-1-3-7-16)22-12-10-20(11-13-22)15-21-18-9-5-4-8-17(18)20/h1-9,21H,10-15H2",
        "InChIKey": null,
        "Canonical SMILES": "O=C(OCC=1C=CC=CC1)N2CCC3(C=4C=CC=CC4NC3)CC2",
        "Molecular Formula": "C<sub>20</sub>H<sub>22</sub>N<sub>2</sub>O<sub>2</sub>",
        "Molecular Mass": "322.40",
        "Melting Point": "115-117 °C"
    }
}