{
    "cas_no": "72-69-5",
    "key_name": "Nortriptyline",
    "cn_name": "去甲替林;",
    "alternate_name": "1-Propanamine, 3-(10,11-dihydro-5<em>H</em>-dibenzo[<em>a</em>,<em>d</em>]cyclohepten-5-ylidene)-<em>N</em>-methyl-;5<em>H</em>-Dibenzo[<em>a</em>,<em>d</em>]cycloheptene-Δ<sup>5,γ</sup>-propylamine, 10,11-dihydro-<em>N</em>-methyl-;3-(10,11-Dihydro-5<em>H</em>-dibenzo[<em>a</em>,<em>d</em>]cyclohepten-5-ylidene)-<em>N</em>-methyl-1-propanamine;Avantyl;Aventyl;Demethylamitriptyline;Desmethylamitriptyline;10,11-Dihydro-<em>N</em>-methyl-5<em>H</em>-dibenzo[<em>a</em>,<em>d</em>]cycloheptane-Δ<sup>γ</sup>propylamine;5-[3-(Methylamino)propylidene]dibenzo[<em>a</em>,<em>e</em>]cyclohepta[1,5]diene;5-(3-Methylaminopropylidene)-10,11-dihydro-5<em>H</em>-dibenzo[<em>a</em>,<em>d</em>]cycloheptene;Noramitriptyline;Nortriptyline;10,11-Dihydro-<em>N</em>-methyl-5<em>H</em>-dibenzo[<em>a</em>,<em>d</em>]cycloheptene-Δ<sup>5,γ</sup>-propylamine;3-(10,11-Dihydro-5<em>H</em>-dibenzo[<em>a</em>,<em>d</em>]cyclohepten-5-ylidene)-<em>N</em>-methylpropylamine;10,11-Dihydro-5-(3-methylaminopropylidene)-5<em>H</em>-dibenzo[<em>a</em>,<em>d</em>][1,4]cycloheptene;Desitriptilina;Ateben;Lumbeck;Sesaval;NCI 169453;MeSH ID: D009661",
    "duplicated_cas_no": "2241462-43-9",
    "SMILES": "C(CCNC)=C1C=2C(CCC=3C1=CC=CC3)=CC=CC2",
    "meta_data": {
        "InChI": "InChI=1S/C19H21N/c1-20-14-6-11-19-17-9-4-2-7-15(17)12-13-16-8-3-5-10-18(16)19/h2-5,7-11,20H,6,12-14H2,1H3",
        "InChIKey": null,
        "Canonical SMILES": "C=1C=CC2=C(C1)C(=CCCNC)C=3C=CC=CC3CC2",
        "Molecular Formula": "C<sub>19</sub>H<sub>21</sub>N",
        "Molecular Mass": "263.38",
        "Boiling Point": "150-160 °C @ Press: 0.03 Torr",
        "Melting Point": "58 °C"
    }
}