{
    "cas_no": "15310-01-7",
    "key_name": "Benodanil",
    "cn_name": "邻碘酰苯胺;",
    "alternate_name": "Benzamide, 2-iodo-<em>N</em>-phenyl-;Benzanilide, 2-iodo-;2-Iodo-<em>N</em>-phenylbenzamide;<em>o</em>-Iodobenzanilide;2-Iodobenzanilide;BAS 3170F;Benodanil;BAS 31702F;Calirus;BASF 31709F;BAS 3170;BAS 3172F;BAS 31709;BAS 31708F;2-Iodobenzoic acid anilide;BAS 31700F;Benefit;NSC 100499;Benodanyl",
    "duplicated_cas_no": "55777-73-6;1135442-03-3",
    "SMILES": "C(NC1=CC=CC=C1)(=O)C2=C(I)C=CC=C2",
    "meta_data": {
        "InChI": "InChI=1S/C13H10INO/c14-12-9-5-4-8-11(12)13(16)15-10-6-2-1-3-7-10/h1-9H,(H,15,16)",
        "InChIKey": null,
        "Canonical SMILES": "O=C(NC=1C=CC=CC1)C=2C=CC=CC2I",
        "Molecular Formula": "C<sub>13</sub>H<sub>10</sub>INO",
        "Molecular Mass": "323.13",
        "Melting Point": "137 °C"
    }
}