{
    "cas_no": "55780-90-0",
    "key_name": "<em>N</em>-[(1,1-Dimethylethoxy)carbonyl]-<span class=\"text-smallcaps\">D</span>-alloisoleucine",
    "cn_name": null,
    "alternate_name": "<span class=\"text-smallcaps\">D</span>-Alloisoleucine, <em>N</em>-[(1,1-dimethylethoxy)carbonyl]-;<em>N</em>-[(1,1-Dimethylethoxy)carbonyl]-<span class=\"text-smallcaps\">D</span>-alloisoleucine;<em>N</em>-<em>tert</em>-Butoxycarbonyl-<span class=\"text-smallcaps\">D</span>-alloisoleucine",
    "duplicated_cas_no": "",
    "SMILES": "[C@H]([C@H](CC)C)(NC(OC(C)(C)C)=O)C(O)=O",
    "meta_data": {
        "InChI": "InChI=1S/C11H21NO4/c1-6-7(2)8(9(13)14)12-10(15)16-11(3,4)5/h7-8H,6H2,1-5H3,(H,12,15)(H,13,14)/t7-,8+/m0/s1",
        "InChIKey": null,
        "Canonical SMILES": "O=C(OC(C)(C)C)NC(C(=O)O)C(C)CC",
        "Molecular Formula": "C<sub>11</sub>H<sub>21</sub>NO<sub>4</sub>",
        "Molecular Mass": "231.29",
        "Melting Point": "66-67 °C"
    }
}