{
    "cas_no": "142-29-0",
    "key_name": "Cyclopentene",
    "cn_name": "环戊烯;",
    "alternate_name": "Cyclopentene;NSC 5160;1-Cyclopentene",
    "duplicated_cas_no": "33004-05-6",
    "SMILES": "C1CC=CC1",
    "meta_data": {
        "InChI": "InChI=1S/C5H8/c1-2-4-5-3-1/h1-2H,3-5H2",
        "InChIKey": null,
        "Canonical SMILES": "C1=CCCC1",
        "Molecular Formula": "C<sub>5</sub>H<sub>8</sub>",
        "Molecular Mass": "68.12",
        "Boiling Point": "44.2 °C",
        "Melting Point": "-135.1 °C",
        "Density": "0.7754 g/cm³ @ Temp: 14 °C"
    }
}