{
    "cas_no": "68527-67-3",
    "key_name": "6-Bromo-8-nitroquinoline",
    "cn_name": null,
    "alternate_name": "Quinoline, 6-bromo-8-nitro-;6-Bromo-8-nitroquinoline",
    "duplicated_cas_no": "",
    "SMILES": "N(=O)(=O)C=1C2=C(C=C(Br)C1)C=CC=N2",
    "meta_data": {
        "InChI": "InChI=1S/C9H5BrN2O2/c10-7-4-6-2-1-3-11-9(6)8(5-7)12(13)14/h1-5H",
        "InChIKey": null,
        "Canonical SMILES": "O=N(=O)C1=CC(Br)=CC2=CC=CN=C21",
        "Molecular Formula": "C<sub>9</sub>H<sub>5</sub>BrN<sub>2</sub>O<sub>2</sub>",
        "Molecular Mass": "253.05",
        "Melting Point": "170-177 °C"
    }
}