{
    "cas_no": "17266-30-7",
    "key_name": "5-Chlorobenzo[<em>b</em>]thiophene-3-acetic acid",
    "cn_name": "5-氯苯并噻酚-3-乙酸;",
    "alternate_name": "Benzo[<em>b</em>]thiophene-3-acetic acid, 5-chloro-;5-Chlorobenzo[<em>b</em>]thiophene-3-acetic acid;3-(5-Chlorobenzo[<em>b</em>]thienyl)acetic acid;2-(5-Chlorobenzo[<em>b</em>]thiophen-3-yl)acetic acid;5-Chlorothianaphthene-3-acetic acid;[5-Chlorobenzothiophene-3-yl]acetic acid;(5-Chlorobenzo[<em>b</em>]thiophen-3-yl)acetic acid;5-Chlorobenzo[<em>b</em>]thien-3-ylacetic acid;5-Chlorobenzothien-3-ylacetic acid;2-(5-Chloro-1-benzothiophen-3-yl)acetic acid",
    "duplicated_cas_no": "",
    "SMILES": "C(C(O)=O)C=1C=2C(SC1)=CC=C(Cl)C2",
    "meta_data": {
        "InChI": "InChI=1S/C10H7ClO2S/c11-7-1-2-9-8(4-7)6(5-14-9)3-10(12)13/h1-2,4-5H,3H2,(H,12,13)",
        "InChIKey": null,
        "Canonical SMILES": "O=C(O)CC1=CSC=2C=CC(Cl)=CC21",
        "Molecular Formula": "C<sub>10</sub>H<sub>7</sub>ClO<sub>2</sub>S",
        "Molecular Mass": "226.68",
        "Melting Point": "154-156 °C"
    }
}