{
    "cas_no": "61010-04-6",
    "key_name": "2-Chloro-1-formyl-3-(hydroxymethylene)cyclohexene",
    "cn_name": null,
    "alternate_name": "1-Cyclohexene-1-carboxaldehyde, 2-chloro-3-(hydroxymethylene)-;2-Chloro-3-(hydroxymethylene)-1-cyclohexene-1-carboxaldehyde;2-Chloro-3-(hydroxymethylene)cyclohexene-1-carboxaldehyde;2-Chloro-1-formyl-3-(hydroxymethylene)-1-cyclohexene;2-Chloro-1-formyl-3-(hydroxymethylene)cyclohexene;2-Chloro-3-(hydroxymethylene)cyclohex-1-enecarbaldehyde;2-Chloro-3-(hydroxymethylidene)cyclohexene-1-carbaldehyde;2-Chloro-3-(hydroxymethyl)cyclohex-1-ene-1-carbaldehyde;2-Chloro-3-(hydroxymethyl)cyclohex-1-enecarbaldehyde;2-Chloro-1,3-cyclohexanedicarboxaldehyde",
    "duplicated_cas_no": "1777804-63-3;2112802-95-4;2135594-98-6",
    "SMILES": "C(O)=C1C(Cl)=C(C=O)CCC1",
    "meta_data": {
        "InChI": "InChI=1S/C8H9ClO2/c9-8-6(4-10)2-1-3-7(8)5-11/h4-5,10H,1-3H2",
        "InChIKey": null,
        "Canonical SMILES": "O=CC1=C(Cl)C(=CO)CCC1",
        "Molecular Formula": "C<sub>8</sub>H<sub>9</sub>ClO<sub>2</sub>",
        "Molecular Mass": "172.61",
        "Melting Point": "130-131 °C"
    }
}