{
    "cas_no": "925-47-3",
    "key_name": "Diethyl thiodiglycolate",
    "cn_name": "硫代二乙酸二乙酯;",
    "alternate_name": "Acetic acid, 2,2′-thiobis-, 1,1′-diethyl ester;Acetic acid, thiodi-, diethyl ester;Acetic acid, 2,2′-thiobis-, diethyl ester;Bis(carbethoxymethyl) sulfide;Diethyl thiodiacetate;Diethyl thiodiglycolate;Diethyl 2,2′-thiodiacetate;NSC 12576",
    "duplicated_cas_no": "",
    "SMILES": "C(CSCC(OCC)=O)(OCC)=O",
    "meta_data": {
        "InChI": "InChI=1S/C8H14O4S/c1-3-11-7(9)5-13-6-8(10)12-4-2/h3-6H2,1-2H3",
        "InChIKey": null,
        "Canonical SMILES": "O=C(OCC)CSCC(=O)OCC",
        "Molecular Formula": "C<sub>8</sub>H<sub>14</sub>O<sub>4</sub>S",
        "Molecular Mass": "206.26",
        "Boiling Point": "155-160 °C"
    }
}