{
    "cas_no": "753-90-2",
    "key_name": "2,2,2-Trifluoroethylamine",
    "cn_name": "2,2,2-三氟乙胺;",
    "alternate_name": "Ethanamine, 2,2,2-trifluoro-;Ethylamine, 2,2,2-trifluoro-;2,2,2-Trifluoroethanamine;Trifluoroethylamine;2,2,2-Trifluoroethylamine;TFEA;β,β,β-Trifluoroethylamine;1-Amino-2,2,2-trifluoroethane;2,2,2-Trifluoro-1-ethanamine;2,2,2-Trifluoro-1-aminoethane;2,2,2-Trifluoroethaneamine",
    "duplicated_cas_no": "",
    "SMILES": "C(CN)(F)(F)F",
    "meta_data": {
        "InChI": "InChI=1S/C2H4F3N/c3-2(4,5)1-6/h1,6H2",
        "InChIKey": null,
        "Canonical SMILES": "FC(F)(F)CN",
        "Molecular Formula": "C<sub>2</sub>H<sub>4</sub>F<sub>3</sub>N",
        "Molecular Mass": "99.06",
        "Boiling Point": "37.5 °C",
        "Density": "1.2452 g/cm³ @ Temp: 25 °C"
    }
}