{
    "cas_no": "87237-48-7",
    "key_name": "Haloxyfop-ethoxyethyl",
    "cn_name": "吡氟甲禾灵;2-[4-(3-氯-5-三氟甲基-2-吡啶氧基)苯氧基]丙酸乙氧乙酯;",
    "alternate_name": "Propanoic acid, 2-[4-[[3-chloro-5-(trifluoromethyl)-2-pyridinyl]oxy]phenoxy]-, 2-ethoxyethyl ester;Dowco 453;Gallant;Gallant 125EE;Haloxyfop-ethoxyethyl;Zellek;Haloxyfop ethoxyethyl ester;Chloretazate;Haloxyfop-etotyl;Dowco 453 ethoxyethyl;Dowco 453 ethoxyethyl ester",
    "duplicated_cas_no": "126518-70-5",
    "SMILES": "O(C1=C(Cl)C=C(C(F)(F)F)C=N1)C2=CC=C(OC(C(OCCOCC)=O)C)C=C2",
    "meta_data": {
        "InChI": "InChI=1S/C19H19ClF3NO5/c1-3-26-8-9-27-18(25)12(2)28-14-4-6-15(7-5-14)29-17-16(20)10-13(11-24-17)19(21,22)23/h4-7,10-12H,3,8-9H2,1-2H3",
        "InChIKey": null,
        "Canonical SMILES": "O=C(OCCOCC)C(OC1=CC=C(OC2=NC=C(C=C2Cl)C(F)(F)F)C=C1)C",
        "Molecular Formula": "C<sub>19</sub>H<sub>19</sub>ClF<sub>3</sub>NO<sub>5</sub>",
        "Molecular Mass": "433.81",
        "Melting Point": "60 °C"
    }
}