{
    "cas_no": "27060-75-9",
    "key_name": "4-Bromo-3-methylanisole",
    "cn_name": "2-溴-5-甲氧基甲苯;3-甲基-4-溴苯甲醚;",
    "alternate_name": "Benzene, 1-bromo-4-methoxy-2-methyl-;Anisole, 4-bromo-3-methyl-;1-Bromo-4-methoxy-2-methylbenzene;2-Bromo-5-methoxytoluene;4-Bromo-3-methylanisole;3-Methyl-4-bromoanisole;1-Bromo-2-methyl-4-methoxybenzene",
    "duplicated_cas_no": "",
    "SMILES": "O(C)C1=CC(C)=C(Br)C=C1",
    "meta_data": {
        "InChI": "InChI=1S/C8H9BrO/c1-6-5-7(10-2)3-4-8(6)9/h3-5H,1-2H3",
        "InChIKey": null,
        "Canonical SMILES": "BrC1=CC=C(OC)C=C1C",
        "Molecular Formula": "C<sub>8</sub>H<sub>9</sub>BrO",
        "Molecular Mass": "201.06",
        "Boiling Point": "108.5 °C @ Press: 12 Torr",
        "Melting Point": "16.5 °C",
        "Density": "0.919 g/cm³ @ Temp: 20 °C"
    }
}