{
    "cas_no": "70-51-9",
    "key_name": "Deferoxamine",
    "cn_name": "去铁胺;去铁敏;",
    "alternate_name": "Butanediamide, <em>N</em><sup>4</sup>-[5-[[4-[[5-(acetylhydroxyamino)pentyl]amino]-1,4-dioxobutyl]hydroxyamino]pentyl]-<em>N</em><sup>1</sup>-(5-aminopentyl)-<em>N</em><sup>1</sup>-hydroxy-;Propionohydroxamic acid, <em>N</em>-[5-[3-[(5-aminopentyl)hydroxycarbamoyl]propionamido]pentyl]-3-[[5-(<em>N</em>-hydroxyacetamido)pentyl]carbamoyl]-;Butanediamide, <em>N</em>′-[5-[[4-[[5-(acetylhydroxyamino)pentyl]amino]-1,4-dioxobutyl]hydroxyamino]pentyl]-<em>N</em>-(5-aminopentyl)-<em>N</em>-hydroxy-;<em>N</em><sup>4</sup>-[5-[[4-[[5-(Acetylhydroxyamino)pentyl]amino]-1,4-dioxobutyl]hydroxyamino]pentyl]-<em>N</em><sup>1</sup>-(5-aminopentyl)-<em>N</em><sup>1</sup>-hydroxybutanediamide;<em>N</em>-[5-[3-[(5-Aminopentyl)hydroxycarbamoyl]propionamido]pentyl]-3-[[5-(<em>N</em>-hydroxyacetamido)pentyl]carbamoyl]propionohydroxamic acid;30-Amino-3,14,25-trihydroxy-3,9,14,20,25 pentaazatriacontane-2,10,13,21,24-pentaone;3,9,14,20,25-Pentaazatriacontane-2,10,13,21,24-pentone, 30-amino-3,14,25-trihydroxy-;Deferoxamine B;Deferoxamine;Deferrioxamine B;Deferrioxamine;Desferrin;Desferrioxamine B;Desferrioxamine;Deferoxamin;Desferan;Desferex;Desferin;Deferriferrioxamine B;Desferioxamine B;NSC 527604;Desferoxime;DFO;<em>N</em>′-[5-[Acetyl(hydroxy)amino]pentyl]-<em>N</em>-7-[5-([4-[(5-aminopentyl)(hydroxy)amino]-4-oxobutanoyl]amino)pentyl]-<em>N</em>-hydroxysuccinamide;DFO-B;MeSH ID: D003676",
    "duplicated_cas_no": "7278-84-4",
    "SMILES": "C(CCC(NCCCCCN(C(C)=O)O)=O)(N(CCCCCNC(CCC(N(CCCCCN)O)=O)=O)O)=O",
    "meta_data": {
        "InChI": "InChI=1S/C25H48N6O8/c1-21(32)29(37)18-9-3-6-16-27-22(33)12-14-25(36)31(39)20-10-4-7-17-28-23(34)11-13-24(35)30(38)19-8-2-5-15-26/h37-39H,2-20,26H2,1H3,(H,27,33)(H,28,34)",
        "InChIKey": null,
        "Canonical SMILES": "O=C(NCCCCCN(O)C(=O)C)CCC(=O)N(O)CCCCCNC(=O)CCC(=O)N(O)CCCCCN",
        "Molecular Formula": "C<sub>25</sub>H<sub>48</sub>N<sub>6</sub>O<sub>8</sub>",
        "Molecular Mass": "560.68",
        "Melting Point": "140 °C"
    }
}