{
    "cas_no": "137-47-3",
    "key_name": "4-Chloro-<em>N</em>,<em>N</em>-dimethyl-3-nitrobenzenesulfonamide",
    "cn_name": "4-氯-3-硝基-N,N-二甲基苯磺酰胺;",
    "alternate_name": "Benzenesulfonamide, 4-chloro-<em>N</em>,<em>N</em>-dimethyl-3-nitro-;4-Chloro-<em>N</em>,<em>N</em>-dimethyl-3-nitrobenzenesulfonamide;<em>N</em>,<em>N</em>-Dimethyl-3-nitro-4-chlorobenzenesulfonamide;<em>N</em>,<em>N</em>-Dimethyl-4-chloro-3-nitrobenzenesulfonamide;5-(Dimethylsulfamoyl)-2-chloronitrobenzene;NSC 231629",
    "duplicated_cas_no": "",
    "SMILES": "S(N(C)C)(=O)(=O)C1=CC(N(=O)=O)=C(Cl)C=C1",
    "meta_data": {
        "InChI": "InChI=1S/C8H9ClN2O4S/c1-10(2)16(14,15)6-3-4-7(9)8(5-6)11(12)13/h3-5H,1-2H3",
        "InChIKey": null,
        "Canonical SMILES": "O=N(=O)C1=CC(=CC=C1Cl)S(=O)(=O)N(C)C",
        "Molecular Formula": "C<sub>8</sub>H<sub>9</sub>ClN<sub>2</sub>O<sub>4</sub>S",
        "Molecular Mass": "264.69",
        "Melting Point": "99-100 °C"
    }
}