{
    "cas_no": "26062-94-2",
    "key_name": "Butanediol-terephthalic acid copolymer",
    "cn_name": null,
    "alternate_name": "1,4-Benzenedicarboxylic acid, polymer with 1,4-butanediol;Terephthalic acid, polyester with 1,4-butanediol;1,4-Butanediol, polyester with terephthalic acid;1,4-Butanediol, polymer with 1,4-benzenedicarboxylic acid;Poly(1,4-butanediol terephthalate);1,4-Butylene glycol-terephthalic acid copolymer;Tetramethylene glycol-terephthalic acid polymer;1,4-Butanediol-terephthalic acid polymer;1,4-Butylene glycol-terephthalic acid polymer;1,4-Butanediol-terephthalic acid copolymer;Terephthalic acid-1,4-butanediol polymer;Terephthalic acid-tetramethylene glycol polymer;Poly(tetramethylene terephthalate);Poly(butylene terephthalate);Poly(1,4-butylene terephthalate);Tetramethylenediol-terephthalic acid polymer;Butylene glycol-terephthalic acid polymer;Butylene glycol-terephthalic acid copolymer;Terephthalic acid-tetramethylene glycol copolymer;Butanediol-terephthalic acid copolymer;Tetramethylene glycol-terephthalic acid copolymer;1,4-Butanediol-terephthalate copolymer;PBT, monomer-based;Terephthalic acid-1,4-butanediol copolymer;Ultradur 4550, monomer-based;1,4-Benzenedicarboxylic acid-1,4-butanediol copolymer;Terephthalic acid-butanediol copolymer",
    "duplicated_cas_no": "1027097-35-3",
    "SMILES": "C(CCO)CO.C(O)(=O)C1=CC=C(C(O)=O)C=C1",
    "meta_data": {
        "InChI": "InChI=1S/C8H6O4.C4H10O2/c9-7(10)5-1-2-6(4-3-5)8(11)12;5-3-1-2-4-6/h1-4H,(H,9,10)(H,11,12);5-6H,1-4H2",
        "InChIKey": null,
        "Canonical SMILES": "O=C(O)C1=CC=C(C=C1)C(=O)O.OCCCCO",
        "Molecular Formula": "(C<sub>8</sub>H<sub>6</sub>O<sub>4</sub>.C<sub>4</sub>H<sub>10</sub>O<sub>2</sub>)<sub>x</sub>",
        "Molecular Mass": "",
        "Melting Point": "226 °C",
        "Density": "1.310 g/cm³ @ Temp: 20 °C"
    }
}