{
    "cas_no": "274-80-6",
    "key_name": "1,2,4-Triazolo[4,3-<em>a</em>]pyridine",
    "cn_name": null,
    "alternate_name": "1,2,4-Triazolo[4,3-<em>a</em>]pyridine;<em>s</em>-Triazolo[4,3-<em>a</em>]pyridine;1,2-Diazaindolizine;Pyrido[2,1-<em>c</em>]-<em>s</em>-triazole;1,2,3a-Triazaindene;Pyrido[2,1-<em>c</em>]-1,2,4-triazole;NSC 68457",
    "duplicated_cas_no": "",
    "SMILES": "C=12N(C=NN1)C=CC=C2",
    "meta_data": {
        "InChI": "InChI=1S/C6H5N3/c1-2-4-9-5-7-8-6(9)3-1/h1-5H",
        "InChIKey": null,
        "Canonical SMILES": "N=1N=C2C=CC=CN2C1",
        "Molecular Formula": "C<sub>6</sub>H<sub>5</sub>N<sub>3</sub>",
        "Molecular Mass": "119.12",
        "Boiling Point": "218 °C @ Press: 6 Torr",
        "Melting Point": "36-38 °C"
    }
}