{
    "cas_no": "128-08-5",
    "key_name": "<em>N</em>-Bromosuccinimide",
    "cn_name": "N-溴代丁二酰亚胺;",
    "alternate_name": "2,5-Pyrrolidinedione, 1-bromo-;Succinimide, <em>N</em>-bromo-;1-Bromo-2,5-pyrrolidinedione;<em>N</em>-Bromosuccinimide;NBS;Succinbromimide;Bromosuccinimide;NSC 16;<em>N</em>-Bromobutanimide",
    "duplicated_cas_no": "133435-75-3;3493-39-8",
    "SMILES": "BrN1C(=O)CCC1=O",
    "meta_data": {
        "InChI": "InChI=1S/C4H4BrNO2/c5-6-3(7)1-2-4(6)8/h1-2H2",
        "InChIKey": null,
        "Canonical SMILES": "O=C1N(Br)C(=O)CC1",
        "Molecular Formula": "C<sub>4</sub>H<sub>4</sub>BrNO<sub>2</sub>",
        "Molecular Mass": "177.98",
        "Melting Point": "174 °C"
    }
}