{
    "cas_no": "4263-52-9",
    "key_name": "Sodium 2-bromoethanesulfonate",
    "cn_name": "2-溴乙基磺酸钠;",
    "alternate_name": "Ethanesulfonic acid, 2-bromo-, sodium salt (1:1);Ethanesulfonic acid, 2-bromo-, sodium salt;Sodium 2-bromoethanesulfonate;Sodium bromoethylsulfonate;2-Bromoethanesulfonic acid sodium salt;Sodium 2-bromoethane-1-sulfonate;Sodium β-bromoethanesulfonate;Sodium 2-bromoethylsulfonate;2-Bromoethane-1-sulfonic acid sodium salt",
    "duplicated_cas_no": "61829-40-1",
    "SMILES": "C(S(=O)(=O)O)CBr.[Na]",
    "meta_data": {
        "InChI": "InChI=1S/C2H5BrO3S.Na/c3-1-2-7(4,5)6;/h1-2H2,(H,4,5,6);",
        "InChIKey": null,
        "Canonical SMILES": "[Na].O=S(=O)(O)CCBr",
        "Molecular Formula": "C<sub>2</sub>H<sub>5</sub>BrO<sub>3</sub>S.Na",
        "Molecular Mass": "",
        "Melting Point": "289 °C"
    }
}