{
    "cas_no": "498-60-2",
    "key_name": "3-Furancarboxaldehyde",
    "cn_name": "3-糠醛;3-呋喃甲醛;",
    "alternate_name": "3-Furancarboxaldehyde;3-Furaldehyde;3-Formylfuran;3-Furanaldehyde;3-Furfural;3-Furfuraldehyde;3-Furylcarboxaldehyde;3-Furylaldehyde;3-Furancarbaldehyde",
    "duplicated_cas_no": "1428758-12-6",
    "SMILES": "C(=O)C=1C=COC1",
    "meta_data": {
        "InChI": "InChI=1S/C5H4O2/c6-3-5-1-2-7-4-5/h1-4H",
        "InChIKey": null,
        "Canonical SMILES": "O=CC1=COC=C1",
        "Molecular Formula": "C<sub>5</sub>H<sub>4</sub>O<sub>2</sub>",
        "Molecular Mass": "96.08",
        "Boiling Point": "145 °C",
        "Melting Point": "148-149.5 °C",
        "Density": "1.4945 g/cm³ @ Temp: 20 °C"
    }
}