{
    "cas_no": "10412-98-3",
    "key_name": "5-Oxohexanenitrile",
    "cn_name": "5-酮基已腈;",
    "alternate_name": "Hexanenitrile, 5-oxo-;5-Oxohexanenitrile;5-Oxohexanonitrile;4-Acetylbutyronitrile;Methyl 3-cyanopropylketone;γ-Acetobutyronitrile",
    "duplicated_cas_no": "",
    "SMILES": "C(CCC#N)C(C)=O",
    "meta_data": {
        "InChI": "InChI=1S/C6H9NO/c1-6(8)4-2-3-5-7/h2-4H2,1H3",
        "InChIKey": null,
        "Canonical SMILES": "N#CCCCC(=O)C",
        "Molecular Formula": "C<sub>6</sub>H<sub>9</sub>NO",
        "Molecular Mass": "111.14",
        "Boiling Point": "100-130 °C @ Press: 2 Torr",
        "Density": "0.9747 g/cm³ @ Temp: 20 °C"
    }
}