{
    "cas_no": "151-63-3",
    "key_name": "Acetonitrile, 2-amino-, sulfate (1:1)",
    "cn_name": "氨基乙腈硫酸氢盐;",
    "alternate_name": "Acetonitrile, 2-amino-, sulfate (1:1);Acetonitrile, amino-, sulfate (1:1);Aminoacetonitrile bisulfate;Aminoacetonitrile hydrogen sulfate;Aminoacetonitrile hydrosulfate;NSC 128389;Glycinonitrile sulfate;2-Aminoacetonitrile sulfate",
    "duplicated_cas_no": "",
    "SMILES": "S(=O)(=O)(O)O.C(C#N)N",
    "meta_data": {
        "InChI": "InChI=1S/C2H4N2.H2O4S/c3-1-2-4;1-5(2,3)4/h1,3H2;(H2,1,2,3,4)",
        "InChIKey": null,
        "Canonical SMILES": "N#CCN.O=S(=O)(O)O",
        "Molecular Formula": "C<sub>2</sub>H<sub>4</sub>N<sub>2</sub>.H<sub>2</sub>O<sub>4</sub>S",
        "Molecular Mass": "",
        "Melting Point": "101 °C"
    }
}