{
    "cas_no": "3042-22-6",
    "key_name": "2-Phenylpyrrole",
    "cn_name": null,
    "alternate_name": "1<em>H</em>-Pyrrole, 2-phenyl-;Pyrrole, 2-phenyl-;2-Phenyl-1<em>H</em>-pyrrole;2-Phenylpyrrole;NSC 94963",
    "duplicated_cas_no": "",
    "SMILES": "C1(=CC=CN1)C2=CC=CC=C2",
    "meta_data": {
        "InChI": "InChI=1S/C10H9N/c1-2-5-9(6-3-1)10-7-4-8-11-10/h1-8,11H",
        "InChIKey": null,
        "Canonical SMILES": "C=1C=CC(=CC1)C2=CC=CN2",
        "Molecular Formula": "C<sub>10</sub>H<sub>9</sub>N",
        "Molecular Mass": "143.19",
        "Boiling Point": "272 °C",
        "Melting Point": "129 °C"
    }
}