{
    "cas_no": "7170-76-5",
    "key_name": "2-Thiazolamine, 4,5-dimethyl-, hydrobromide (1:1)",
    "cn_name": "2-氨基-4,5-二甲基噻唑氢溴化物;2-氨基-4,5-二甲基噻唑溴酸盐;",
    "alternate_name": "2-Thiazolamine, 4,5-dimethyl-, hydrobromide (1:1);Thiazole, 2-amino-4,5-dimethyl-, hydrobromide;2-Thiazolamine, 4,5-dimethyl-, monohydrobromide;2-Amino-4,5-dimethylthiazole hydrobromide;4,5-Dimethylthiazol-2-amine hydrobromide;4,5-Dimethyl-1,3-thiazol-2-amine hydrobromide",
    "duplicated_cas_no": "",
    "SMILES": "CC1=C(C)SC(N)=N1.Br",
    "meta_data": {
        "InChI": "InChI=1S/C5H8N2S.BrH/c1-3-4(2)8-5(6)7-3;/h1-2H3,(H2,6,7);1H",
        "InChIKey": null,
        "Canonical SMILES": "Br.N1=C(SC(=C1C)C)N",
        "Molecular Formula": "C<sub>5</sub>H<sub>8</sub>N<sub>2</sub>S.BrH",
        "Molecular Mass": "",
        "Melting Point": "282.2-290.1 °C"
    }
}