{
    "cas_no": "61477-96-1",
    "key_name": "Piperacillin",
    "cn_name": "哌拉西林;氧哌嗪青霉素酸;(2S,5R,6R)-3,3-二甲基-6-[(4-乙基-2,3-二氧代-1-哌嗪甲酰氨基)苯乙酰氨基]-7-氧;",
    "alternate_name": "4-Thia-1-azabicyclo[3.2.0]heptane-2-carboxylic acid, 6-[[(2<em>R</em>)-2-[[(4-ethyl-2,3-dioxo-1-piperazinyl)carbonyl]amino]-2-phenylacetyl]amino]-3,3-dimethyl-7-oxo-, (2<em>S</em>,5<em>R</em>,6<em>R</em>)-;4-Thia-1-azabicyclo[3.2.0]heptane-2-carboxylic acid, 6-[[[[(4-ethyl-2,3-dioxo-1-piperazinyl)carbonyl]amino]phenylacetyl]amino]-3,3-dimethyl-7-oxo-, [2<em>S</em>-[2α,5α,6β(<em>S</em>*)]]-;4-Thia-1-azabicyclo[3.2.0]heptane-2-carboxylic acid, 6-[[(2<em>R</em>)-[[(4-ethyl-2,3-dioxo-1-piperazinyl)carbonyl]amino]phenylacetyl]amino]-3,3-dimethyl-7-oxo-, (2<em>S</em>,5<em>R</em>,6<em>R</em>)-;(2<em>S</em>,5<em>R</em>,6<em>R</em>)-6-[[(2<em>R</em>)-2-[[(4-Ethyl-2,3-dioxo-1-piperazinyl)carbonyl]amino]-2-phenylacetyl]amino]-3,3-dimethyl-7-oxo-4-thia-1-azabicyclo[3.2.0]heptane-2-carboxylic acid;Piperacillin;Pipracil;MeSH ID: D010878",
    "duplicated_cas_no": "129043-43-2",
    "SMILES": "N(C([C@H](NC(=O)N1C(=O)C(=O)N(CC)CC1)C2=CC=CC=C2)=O)[C@H]3[C@@]4(N([C@@H](C(O)=O)C(C)(C)S4)C3=O)[H]",
    "meta_data": {
        "InChI": "InChI=1S/C23H27N5O7S/c1-4-26-10-11-27(19(32)18(26)31)22(35)25-13(12-8-6-5-7-9-12)16(29)24-14-17(30)28-15(21(33)34)23(2,3)36-20(14)28/h5-9,13-15,20H,4,10-11H2,1-3H3,(H,24,29)(H,25,35)(H,33,34)/t13-,14-,15+,20-/m1/s1",
        "InChIKey": null,
        "Canonical SMILES": "O=C(O)C1N2C(=O)C(NC(=O)C(NC(=O)N3C(=O)C(=O)N(CC)CC3)C=4C=CC=CC4)C2SC1(C)C",
        "Molecular Formula": "C<sub>23</sub>H<sub>27</sub>N<sub>5</sub>O<sub>7</sub>S",
        "Molecular Mass": "517.55",
        "Melting Point": "180-184 °C"
    }
}