{
    "cas_no": "1157-39-7",
    "key_name": "4′,7-Dimethoxyisoflavone",
    "cn_name": "4\",7-二甲氧基异黄酮;",
    "alternate_name": "4<em>H</em>-1-Benzopyran-4-one, 7-methoxy-3-(4-methoxyphenyl)-;Isoflavone, 4′,7-dimethoxy-;7-Methoxy-3-(4-methoxyphenyl)-4<em>H</em>-1-benzopyran-4-one;4′,7-Dimethoxyisoflavone;Dimethoxydaidzein;Di-<em>O</em>-methyldaidzein;Formononetin methyl ether;7-<em>O</em>-Methylformononetin;7,4′-Dimethoxyisoflavone;Formononetin 7-<em>O</em>-methyl ether;4′,7-Dimethoxylisoflavone;4′,7-Di-<em>O</em>-methyldaidzein",
    "duplicated_cas_no": "60114-77-4",
    "SMILES": "O=C1C=2C(=CC(OC)=CC2)OC=C1C3=CC=C(OC)C=C3",
    "meta_data": {
        "InChI": "InChI=1S/C17H14O4/c1-19-12-5-3-11(4-6-12)15-10-21-16-9-13(20-2)7-8-14(16)17(15)18/h3-10H,1-2H3",
        "InChIKey": null,
        "Canonical SMILES": "O=C1C(=COC2=CC(OC)=CC=C21)C=3C=CC(OC)=CC3",
        "Molecular Formula": "C<sub>17</sub>H<sub>14</sub>O<sub>4</sub>",
        "Molecular Mass": "282.29",
        "Melting Point": "155 °C"
    }
}