{
    "cas_no": "109-04-6",
    "key_name": "2-Bromopyridine",
    "cn_name": "2-溴吡啶;",
    "alternate_name": "Pyridine, 2-bromo-;2-Bromopyridine;<em>o</em>-Bromopyridine;β-Bromopyridine;2-Pyridyl bromide;NSC 8031;2-Bromopyridin;Pyridin-2-yl bromide",
    "duplicated_cas_no": "",
    "SMILES": "BrC1=CC=CC=N1",
    "meta_data": {
        "InChI": "InChI=1S/C5H4BrN/c6-5-3-1-2-4-7-5/h1-4H",
        "InChIKey": null,
        "Canonical SMILES": "BrC1=NC=CC=C1",
        "Molecular Formula": "C<sub>5</sub>H<sub>4</sub>BrN",
        "Molecular Mass": "158.00",
        "Boiling Point": "194.8 °C",
        "Melting Point": "&lt;25 °C",
        "Density": "1.6337 g/cm³ @ Temp: 20 °C"
    }
}