{
    "cas_no": "12136-58-2",
    "key_name": "Lithium sulfide",
    "cn_name": "硫化锂;硫化锂;",
    "alternate_name": "Lithium sulfide (Li<sub>2</sub>S);Dilithium sulfide;Lithium sulfide;Dilithium monosulfide",
    "duplicated_cas_no": "1936483-83-8;2764904-32-5",
    "SMILES": "S([Li])[Li]",
    "meta_data": {
        "InChI": "InChI=1S/2Li.S",
        "InChIKey": null,
        "Canonical SMILES": "[Li]S[Li]",
        "Molecular Formula": "Li<sub>2</sub>S",
        "Molecular Mass": "",
        "Melting Point": "900-975 °C",
        "Density": "1.66 g/cm³"
    }
}