{
    "cas_no": "14008-48-1",
    "key_name": "Bisoxatin acetate",
    "cn_name": null,
    "alternate_name": "2<em>H</em>-1,4-Benzoxazin-3(4<em>H</em>)-one, 2,2-bis[4-(acetyloxy)phenyl]-;2<em>H</em>-1,4-Benzoxazin-3(4<em>H</em>)-one, 2,2-bis(<em>p</em>-hydroxyphenyl)-, diacetate (ester);2<em>H</em>-1,4-Benzoxazin-3(4<em>H</em>)-one, 2,2-bis(<em>p</em>-hydroxyphenyl)-, diacetate;2,2-Bis[4-(acetyloxy)phenyl]-2<em>H</em>-1,4-benzoxazin-3(4<em>H</em>)-one;Wy 8138;2,2-Bis(<em>p</em>-hydroxyphenyl)-2<em>H</em>-1,4-benzoxazin-3(4<em>H</em>)-one diacetate;Bisoxatin acetate;2,2-Bis(<em>p</em>-acetoxyphenyl)-3-oxo-1,4-dihydrobenzoxazine;Laxonalin;Tasis;Exodol;Kritel;La 271a;Lasotin;Metrolax;Regoxal;Wylaxine;Maratan;Talsis",
    "duplicated_cas_no": "",
    "SMILES": "O=C1C(OC=2C(N1)=CC=CC2)(C3=CC=C(OC(C)=O)C=C3)C4=CC=C(OC(C)=O)C=C4",
    "meta_data": {
        "InChI": "InChI=1S/C24H19NO6/c1-15(26)29-19-11-7-17(8-12-19)24(18-9-13-20(14-10-18)30-16(2)27)23(28)25-21-5-3-4-6-22(21)31-24/h3-14H,1-2H3,(H,25,28)",
        "InChIKey": null,
        "Canonical SMILES": "O=C(OC1=CC=C(C=C1)C2(OC=3C=CC=CC3NC2=O)C4=CC=C(OC(=O)C)C=C4)C",
        "Molecular Formula": "C<sub>24</sub>H<sub>19</sub>NO<sub>6</sub>",
        "Molecular Mass": "417.41",
        "Melting Point": "190 °C"
    }
}