{
    "cas_no": "13450-88-9",
    "key_name": "Gallium bromide",
    "cn_name": null,
    "alternate_name": "Gallium bromide (GaBr<sub>3</sub>);Gallium tribromide;Tribromogallium;Gallium bromide;NSC 94001",
    "duplicated_cas_no": "",
    "SMILES": "[Ga](Br)(Br)Br",
    "meta_data": {
        "InChI": "InChI=1S/3BrH.Ga/h3*1H;/q;;;+3/p-3",
        "InChIKey": null,
        "Canonical SMILES": "Br[Ga](Br)Br",
        "Molecular Formula": "Br<sub>3</sub>Ga",
        "Molecular Mass": "",
        "Boiling Point": "279 °C",
        "Melting Point": "122.5 °C"
    }
}