{
    "cas_no": "1616-93-9",
    "key_name": "β-Amyrin acetate",
    "cn_name": null,
    "alternate_name": "Olean-12-en-3-ol, 3-acetate, (3β)-;Olean-12-en-3β-ol, acetate;Olean-12-en-3-ol, acetate, (3β)-;β-Amyrin acetate;<em>O</em>-Acetyl-β-amyrin;3-<em>O</em>-Acetyl-β-amyrin;3β-Acetoxyolean-12-ene;β-Amyrin 3-acetate;NSC 403166;Olean-12-en-3-yl acetate",
    "duplicated_cas_no": "22076-42-2;886204-12-2",
    "SMILES": "C[C@]12[C@@]([C@]3(C)[C@@](CC1)(C(C)(C)[C@@H](OC(C)=O)CC3)[H])(CC=C4[C@@]2(C)CC[C@]5(C)[C@]4(CC(C)(C)CC5)[H])[H]",
    "meta_data": {
        "InChI": "InChI=1S/C32H52O2/c1-21(33)34-26-13-14-30(7)24(28(26,4)5)12-15-32(9)25(30)11-10-22-23-20-27(2,3)16-17-29(23,6)18-19-31(22,32)8/h10,23-26H,11-20H2,1-9H3/t23-,24-,25+,26-,29+,30-,31+,32+/m0/s1",
        "InChIKey": null,
        "Canonical SMILES": "O=C(OC1CCC2(C)C(CCC3(C)C2CC=C4C5CC(C)(C)CCC5(C)CCC43C)C1(C)C)C",
        "Molecular Formula": "C<sub>32</sub>H<sub>52</sub>O<sub>2</sub>",
        "Molecular Mass": "468.75",
        "Melting Point": "240-241 °C"
    }
}