{
    "cas_no": "76-04-0",
    "key_name": "Chlorodifluoroacetic acid",
    "cn_name": "二氟氯乙酸;氯二氟乙酸;",
    "alternate_name": "Acetic acid, 2-chloro-2,2-difluoro-;Acetic acid, chlorodifluoro-;2-Chloro-2,2-difluoroacetic acid;Chlorodifluoroacetic acid;Monochlorodifluoroacetic acid;NSC 60298;2,2-Difluoro-2-chloroacetic acid",
    "duplicated_cas_no": "",
    "SMILES": "C(C(O)=O)(Cl)(F)F",
    "meta_data": {
        "InChI": "InChI=1S/C2HClF2O2/c3-2(4,5)1(6)7/h(H,6,7)",
        "InChIKey": null,
        "Canonical SMILES": "O=C(O)C(F)(F)Cl",
        "Molecular Formula": "C<sub>2</sub>HClF<sub>2</sub>O<sub>2</sub>",
        "Molecular Mass": "130.48",
        "Boiling Point": "122 °C",
        "Melting Point": "25 °C"
    }
}