{
    "cas_no": "764-37-4",
    "key_name": "(3<em>E</em>)-3-Penten-1-ol",
    "cn_name": null,
    "alternate_name": "3-Penten-1-ol, (3<em>E</em>)-;3-Penten-1-ol, (<em>E</em>)-;3-Penten-1-ol, <em>trans</em>-;(3<em>E</em>)-3-Penten-1-ol;<em>trans</em>-3-Penten-1-ol;(<em>E</em>)-3-Penten-1-ol;(E)-Pent-3-en-1-ol",
    "duplicated_cas_no": "",
    "SMILES": "C(\\CCO)=C/C",
    "meta_data": {
        "InChI": "InChI=1S/C5H10O/c1-2-3-4-5-6/h2-3,6H,4-5H2,1H3/b3-2+",
        "InChIKey": null,
        "Canonical SMILES": "OCCC=CC",
        "Molecular Formula": "C<sub>5</sub>H<sub>10</sub>O",
        "Molecular Mass": "86.13",
        "Boiling Point": "136-137 °C",
        "Density": "0.8467 g/cm³ @ Temp: 20 °C"
    }
}