{
    "cas_no": "2433-97-8",
    "key_name": "Methyl tricosanoate",
    "cn_name": "二十三烷酸甲酯;",
    "alternate_name": "Tricosanoic acid, methyl ester;Methyl tricosanoate",
    "duplicated_cas_no": "",
    "SMILES": "C(CCCCCCCCCCCCCCCCC)CCCCC(OC)=O",
    "meta_data": {
        "InChI": "InChI=1S/C24H48O2/c1-3-4-5-6-7-8-9-10-11-12-13-14-15-16-17-18-19-20-21-22-23-24(25)26-2/h3-23H2,1-2H3",
        "InChIKey": null,
        "Canonical SMILES": "O=C(OC)CCCCCCCCCCCCCCCCCCCCCC",
        "Molecular Formula": "C<sub>24</sub>H<sub>48</sub>O<sub>2</sub>",
        "Molecular Mass": "368.64",
        "Melting Point": "54 °C"
    }
}