{
    "cas_no": "90-96-0",
    "key_name": "4,4′-Dimethoxybenzophenone",
    "cn_name": "4,4\"-二甲氧基二苯甲酮;",
    "alternate_name": "Methanone, bis(4-methoxyphenyl)-;Benzophenone, 4,4′-dimethoxy-;Bis(4-methoxyphenyl)methanone;4,4′-Dimethoxybenzophenone;<em>p</em>,<em>p</em>′-Dimethoxybenzophenone;Bis(<em>p</em>-methoxy)benzophenone;Di-<em>p</em>-anisyl ketone;Bis(4-anisyl) ketone;Bis(<em>p</em>-methoxyphenyl) ketone;DMBP;Bis(<em>p</em>-anisyl) ketone;Di(4-methoxyphenyl) ketone;4,4′-Bis(methoxy)benzophenone;Bis(4-methoxyphenyl) ketone;NSC 4191",
    "duplicated_cas_no": "",
    "SMILES": "C(=O)(C1=CC=C(OC)C=C1)C2=CC=C(OC)C=C2",
    "meta_data": {
        "InChI": "InChI=1S/C15H14O3/c1-17-13-7-3-11(4-8-13)15(16)12-5-9-14(18-2)10-6-12/h3-10H,1-2H3",
        "InChIKey": null,
        "Canonical SMILES": "O=C(C1=CC=C(OC)C=C1)C2=CC=C(OC)C=C2",
        "Molecular Formula": "C<sub>15</sub>H<sub>14</sub>O<sub>3</sub>",
        "Molecular Mass": "242.27",
        "Boiling Point": "180-240 °C @ Press: 13 Torr",
        "Melting Point": "144 °C"
    }
}