{
    "cas_no": "2039-85-2",
    "key_name": "3-Chlorostyrene",
    "cn_name": "3-氯苯乙烯;间氯苯乙烯;",
    "alternate_name": "Benzene, 1-chloro-3-ethenyl-;Styrene, <em>m</em>-chloro-;1-Chloro-3-ethenylbenzene;<em>m</em>-Chlorostyrene;3-Chlorostyrene;3-Chlorovinylbenzene;3-Chlorophenylethene;NSC 18602;1-Chloro-3-vinylbenzene",
    "duplicated_cas_no": "",
    "SMILES": "C(=C)C1=CC(Cl)=CC=C1",
    "meta_data": {
        "InChI": "InChI=1S/C8H7Cl/c1-2-7-4-3-5-8(9)6-7/h2-6H,1H2",
        "InChIKey": null,
        "Canonical SMILES": "ClC1=CC=CC(C=C)=C1",
        "Molecular Formula": "C<sub>8</sub>H<sub>7</sub>Cl",
        "Molecular Mass": "138.59",
        "Boiling Point": "188.7 °C",
        "Density": "1.1168 g/cm³ @ Temp: 20 °C"
    }
}