{
    "cas_no": "6427-66-3",
    "key_name": "4-Azidobenzoic acid",
    "cn_name": "对叠氮苯甲酸;",
    "alternate_name": "Benzoic acid, 4-azido-;Benzoic acid, <em>p</em>-azido-;4-Azidobenzoic acid;<em>p</em>-Azidobenzoic acid;4-Carboxyphenyl azide;NSC 80932",
    "duplicated_cas_no": "2137577-66-1",
    "SMILES": "C(O)(=O)C1=CC=C(N=[N+]=[N-])C=C1",
    "meta_data": {
        "InChI": "InChI=1S/C7H5N3O2/c8-10-9-6-3-1-5(2-4-6)7(11)12/h1-4H,(H,11,12)",
        "InChIKey": null,
        "Canonical SMILES": "[N-]=[N+]=NC1=CC=C(C=C1)C(=O)O",
        "Molecular Formula": "C<sub>7</sub>H<sub>5</sub>N<sub>3</sub>O<sub>2</sub>",
        "Molecular Mass": "",
        "Melting Point": "180 °C"
    }
}