{
    "cas_no": "1516-32-1",
    "key_name": "<em>N</em>-Butylthiourea",
    "cn_name": "丁基-2-硫脲;正丁基硫脲;丁基-2-硫脲;丁硫脲;正丁基硫脲,98%;N-正丁基硫脲,98%;",
    "alternate_name": "Thiourea, <em>N</em>-butyl-;Urea, 1-butyl-2-thio-;Thiourea, butyl-;<em>N</em>-Butylthiourea;Butylthiourea;1-Butyl-2-thiourea;1-Butylthiourea;NSC 202953",
    "duplicated_cas_no": "",
    "SMILES": "N(CCCC)C(N)=S",
    "meta_data": {
        "InChI": "InChI=1S/C5H12N2S/c1-2-3-4-7-5(6)8/h2-4H2,1H3,(H3,6,7,8)",
        "InChIKey": null,
        "Canonical SMILES": "S=C(N)NCCCC",
        "Molecular Formula": "C<sub>5</sub>H<sub>12</sub>N<sub>2</sub>S",
        "Molecular Mass": "132.23",
        "Melting Point": "79 °C"
    }
}