{
    "cas_no": "63243-76-5",
    "key_name": "2-Amino-5-bromobenzoic acid ethyl ester",
    "cn_name": null,
    "alternate_name": "Benzoic acid, 2-amino-5-bromo-, ethyl ester;5-Bromoanthranilic acid ethyl ester;Ethyl 5-bromoanthranilate;2-Amino-5-bromobenzoic acid ethyl ester;Ethyl 2-amino-5-bromobenzoate",
    "duplicated_cas_no": "",
    "SMILES": "C(OCC)(=O)C1=C(N)C=CC(Br)=C1",
    "meta_data": {
        "InChI": "InChI=1S/C9H10BrNO2/c1-2-13-9(12)7-5-6(10)3-4-8(7)11/h3-5H,2,11H2,1H3",
        "InChIKey": null,
        "Canonical SMILES": "O=C(OCC)C1=CC(Br)=CC=C1N",
        "Molecular Formula": "C<sub>9</sub>H<sub>10</sub>BrNO<sub>2</sub>",
        "Molecular Mass": "244.09",
        "Melting Point": "187 °C"
    }
}