{
    "cas_no": "69327-76-0",
    "key_name": "Buprofezin",
    "cn_name": "噻嗪酮;扑虱灵;2-叔丁亚氨基-3-异丙基-5-苯基-3,4,5,6-四氢-2H-1,3,5-噻二嗪-4-酮;",
    "alternate_name": "4<em>H</em>-1,3,5-Thiadiazin-4-one, 2-[(1,1-dimethylethyl)imino]tetrahydro-3-(1-methylethyl)-5-phenyl-;2-[(1,1-Dimethylethyl)imino]tetrahydro-3-(1-methylethyl)-5-phenyl-4<em>H</em>-1,3,5-thiadiazin-4-one;NNI 750;Buprofezin;Applaud;Stater;Courier;Talus;Applaud 40SC",
    "duplicated_cas_no": "",
    "SMILES": "C(C)(C)N1C(=NC(C)(C)C)SCN(C1=O)C2=CC=CC=C2",
    "meta_data": {
        "InChI": "InChI=1S/C16H23N3OS/c1-12(2)19-14(17-16(3,4)5)21-11-18(15(19)20)13-9-7-6-8-10-13/h6-10,12H,11H2,1-5H3",
        "InChIKey": null,
        "Canonical SMILES": "O=C1N(C=2C=CC=CC2)CSC(=NC(C)(C)C)N1C(C)C",
        "Molecular Formula": "C<sub>16</sub>H<sub>23</sub>N<sub>3</sub>OS",
        "Molecular Mass": "305.44",
        "Melting Point": "105 °C"
    }
}