{
    "cas_no": "16657-10-6",
    "key_name": "4-Bromoindan-1-ol",
    "cn_name": null,
    "alternate_name": "1<em>H</em>-Inden-1-ol, 4-bromo-2,3-dihydro-;1-Indanol, 4-bromo-;4-Bromo-2,3-dihydro-1<em>H</em>-inden-1-ol;4-Bromoindan-1-ol",
    "duplicated_cas_no": "125225-22-1",
    "SMILES": "BrC1=C2C(C(O)CC2)=CC=C1",
    "meta_data": {
        "InChI": "InChI=1S/C9H9BrO/c10-8-3-1-2-7-6(8)4-5-9(7)11/h1-3,9,11H,4-5H2",
        "InChIKey": null,
        "Canonical SMILES": "BrC1=CC=CC2=C1CCC2O",
        "Molecular Formula": "C<sub>9</sub>H<sub>9</sub>BrO",
        "Molecular Mass": "213.07",
        "Melting Point": "72 °C"
    }
}