{
    "cas_no": "484-23-1",
    "key_name": "Dihydralazine",
    "cn_name": "双肼酞嗪;双肼屈嗪;双肼苯哒嗪;",
    "alternate_name": "Phthalazine, 1,4-dihydrazinyl-;Phthalazine, 1,4-dihydrazino-;1,4-Phthalazinedione, 2,3-dihydro-, dihydrazone;1,4-Dihydrazinylphthalazine;Dihydralazine;1,4-Dihydrazinophthalazine;Nepresol;Nepresolin;Nepressol;Dihydrazinophthalazine;Dihydralazin;C 7441;Cassella 532;Ophthazin;Tonolysin;Hypopresol;NSC 526654;1,4-Bis(hydrazino)phthalazine;(4-Hydrazinylphthalazin-1-yl)hydrazine;MeSH ID: D004078",
    "duplicated_cas_no": "",
    "SMILES": "N(N)=C1C=2C(C(=NN)NN1)=CC=CC2",
    "meta_data": {
        "InChI": "InChI=1S/C8H10N6/c9-11-7-5-3-1-2-4-6(5)8(12-10)14-13-7/h1-4H,9-10H2,(H,11,13)(H,12,14)",
        "InChIKey": null,
        "Canonical SMILES": "N(N)=C1NNC(=NN)C=2C=CC=CC12",
        "Molecular Formula": "C<sub>8</sub>H<sub>10</sub>N<sub>6</sub>",
        "Molecular Mass": "190.21",
        "Melting Point": "180 °C (decomp)"
    }
}