{
    "cas_no": "79540-50-4",
    "key_name": "Etobenzanid",
    "cn_name": "乙氧苯草胺;",
    "alternate_name": "Benzamide, <em>N</em>-(2,3-dichlorophenyl)-4-(ethoxymethoxy)-;<em>N</em>-(2,3-Dichlorophenyl)-4-(ethoxymethoxy)benzamide;Hw 52;Etobenzanid;Benzchlomet",
    "duplicated_cas_no": "",
    "SMILES": "N(C(=O)C1=CC=C(OCOCC)C=C1)C2=C(Cl)C(Cl)=CC=C2",
    "meta_data": {
        "InChI": "InChI=1S/C16H15Cl2NO3/c1-2-21-10-22-12-8-6-11(7-9-12)16(20)19-14-5-3-4-13(17)15(14)18/h3-9H,2,10H2,1H3,(H,19,20)",
        "InChIKey": null,
        "Canonical SMILES": "O=C(NC=1C=CC=C(Cl)C1Cl)C2=CC=C(OCOCC)C=C2",
        "Molecular Formula": "C<sub>16</sub>H<sub>15</sub>Cl<sub>2</sub>NO<sub>3</sub>",
        "Molecular Mass": "340.20",
        "Melting Point": "92.5 °C"
    }
}