{
    "cas_no": "4052-30-6",
    "key_name": "4-(Methylsulfonyl)benzoic acid",
    "cn_name": "4-甲砜基苯甲酸;对甲砜基苯甲酸;",
    "alternate_name": "Benzoic acid, 4-(methylsulfonyl)-;Benzoic acid, <em>p</em>-(methylsulfonyl)-;4-(Methylsulfonyl)benzoic acid;4-(Methanesulfonyl)benzoic acid;<em>p</em>-(Methylsulfonyl)benzoic acid;4-Carboxyphenyl methyl sulfone;NSC 11336",
    "duplicated_cas_no": "",
    "SMILES": "S(C)(=O)(=O)C1=CC=C(C(O)=O)C=C1",
    "meta_data": {
        "InChI": "InChI=1S/C8H8O4S/c1-13(11,12)7-4-2-6(3-5-7)8(9)10/h2-5H,1H3,(H,9,10)",
        "InChIKey": null,
        "Canonical SMILES": "O=C(O)C1=CC=C(C=C1)S(=O)(=O)C",
        "Molecular Formula": "C<sub>8</sub>H<sub>8</sub>O<sub>4</sub>S",
        "Molecular Mass": "200.21",
        "Boiling Point": "210-220 °C @ Press: 0.1 Torr",
        "Melting Point": "268-271 °C"
    }
}