{
    "cas_no": "566-28-9",
    "key_name": "7-Ketocholesterol",
    "cn_name": null,
    "alternate_name": "Cholest-5-en-7-one, 3-hydroxy-, (3β)-;Cholest-5-en-7-one, 3β-hydroxy-;(3β)-3-Hydroxycholest-5-en-7-one;3β-Hydroxycholest-5-en-7-one;Cholest-5-en-3β-ol-7-one;7-Ketocholesterol;SC 4722;7-Oxocholesterol;Δ<sup>5</sup>-Cholesten-3β-ol-7-one;3β-Hydroxy-cholest-5-ene-7-one;Cholesterol-7-one",
    "duplicated_cas_no": "118984-45-5",
    "SMILES": "C[C@@]12[C@]([C@]3([C@@]([C@]4(C)C(=CC3=O)C[C@@H](O)CC4)(CC1)[H])[H])(CC[C@@]2([C@@H](CCCC(C)C)C)[H])[H]",
    "meta_data": {
        "InChI": "InChI=1S/C27H44O2/c1-17(2)7-6-8-18(3)21-9-10-22-25-23(12-14-27(21,22)5)26(4)13-11-20(28)15-19(26)16-24(25)29/h16-18,20-23,25,28H,6-15H2,1-5H3/t18-,20+,21-,22+,23+,25+,26+,27-/m1/s1",
        "InChIKey": null,
        "Canonical SMILES": "O=C1C=C2CC(O)CCC2(C)C3CCC4(C)C(CCC4C13)C(C)CCCC(C)C",
        "Molecular Formula": "C<sub>27</sub>H<sub>44</sub>O<sub>2</sub>",
        "Molecular Mass": "400.64",
        "Melting Point": "163-164 °C"
    }
}