{
    "cas_no": "2549-14-6",
    "key_name": "(-)-Phenylethanolamine",
    "cn_name": "(R)-(+)-2-苯甘氨醇;(R)-2-氨基-1-苯乙醇;",
    "alternate_name": "Benzenemethanol, α-(aminomethyl)-, (α<em>R</em>)-;Benzyl alcohol, α-(aminomethyl)-, (<em>R</em>)-(-)-;Benzenemethanol, α-(aminomethyl)-, (<em>R</em>)-;(α<em>R</em>)-α-(Aminomethyl)benzenemethanol;<span class=\"text-smallcaps\">D</span>-(-)-β-Phenylethanolamine;(-)-β-Hydroxyphenethylamine;(-)-α-(Aminomethyl)benzenemethanol;(-)-2-Amino-1-phenylethanol;(<em>R</em>)-2-Amino-1-phenylethanol;(<em>R</em>)-α-(Aminomethyl)benzenemethanol;(<em>R</em>)-(-)-1-Phenyl-2-aminoethanol;(-)-(<em>R</em>)-2-Amino-1-phenylethanol;(<em>R</em>)-1-Phenyl-2-aminoethanol;(R)-α-(Aminomethyl)benzenemethanol;(<em>R</em>)-(-)-2-Amino-1-phenylethanol;((<em>R</em>)-2-Hydroxy-2-phenylethyl)amine;(-)-Phenylethanolamine;(1<em>R</em>)-2-Amino-1-phenylethanol",
    "duplicated_cas_no": "",
    "SMILES": "[C@@H](CN)(O)C1=CC=CC=C1",
    "meta_data": {
        "InChI": "InChI=1S/C8H11NO/c9-6-8(10)7-4-2-1-3-5-7/h1-5,8,10H,6,9H2/t8-/m0/s1",
        "InChIKey": null,
        "Canonical SMILES": "OC(C=1C=CC=CC1)CN",
        "Molecular Formula": "C<sub>8</sub>H<sub>11</sub>NO",
        "Molecular Mass": "137.18",
        "Melting Point": "58-62 °C"
    }
}