{
    "cas_no": "39924-52-2",
    "key_name": "Methyl 3-oxo-2-(2-penten-1-yl)cyclopentaneacetate",
    "cn_name": "茉莉酸甲酯;3-氧代-2-(2-戊烯基)环戊烷乙酸甲酯;",
    "alternate_name": "Cyclopentaneacetic acid, 3-oxo-2-(2-penten-1-yl)-, methyl ester;Cyclopentaneacetic acid, 3-oxo-2-(2-pentenyl)-, methyl ester;Methyl 3-oxo-2-(2-penten-1-yl)cyclopentaneacetate;Methyl 2-pentenyl-3-oxocyclopentaneacetate;Methyl 2-(3-oxo-2-pent-2-enylcyclopentyl)acetate",
    "duplicated_cas_no": "",
    "SMILES": "C(C(OC)=O)C1C(CC=CCC)C(=O)CC1",
    "meta_data": {
        "InChI": "InChI=1S/C13H20O3/c1-3-4-5-6-11-10(7-8-12(11)14)9-13(15)16-2/h4-5,10-11H,3,6-9H2,1-2H3",
        "InChIKey": null,
        "Canonical SMILES": "O=C(OC)CC1CCC(=O)C1CC=CCC",
        "Molecular Formula": "C<sub>13</sub>H<sub>20</sub>O<sub>3</sub>",
        "Molecular Mass": "224.30",
        "Boiling Point": "78 °C @ Press: 0.2 mmHg"
    }
}