{
    "cas_no": "693-02-7",
    "key_name": "1-Hexyne",
    "cn_name": "1-己炔;",
    "alternate_name": "1-Hexyne;Butylacetylene;<em>n</em>-Butylacetylene;NSC 9709",
    "duplicated_cas_no": "1401716-56-0;2091738-90-6",
    "SMILES": "C(CC#C)CC",
    "meta_data": {
        "InChI": "InChI=1S/C6H10/c1-3-5-6-4-2/h1H,4-6H2,2H3",
        "InChIKey": null,
        "Canonical SMILES": "C#CCCCC",
        "Molecular Formula": "C<sub>6</sub>H<sub>10</sub>",
        "Molecular Mass": "82.14",
        "Boiling Point": "71.3 °C",
        "Melting Point": "-131.9 °C",
        "Density": "0.7193 g/cm³ @ Temp: 15 °C"
    }
}