{
    "cas_no": "1006-39-9",
    "key_name": "1-(2-Bromo-4-fluorophenyl)ethanone",
    "cn_name": "2-溴-4-氟苯乙酮;2\"-溴-4\"-氟苯乙酮;",
    "alternate_name": "Ethanone, 1-(2-bromo-4-fluorophenyl)-;Acetophenone, 2′-bromo-4′-fluoro-;1-(2-Bromo-4-fluorophenyl)ethanone;2-Bromo-4-fluoroacetophenone;2′-Bromo-4′-fluoroacetophenone;1-(2-Bromo-4-fluorophenyl)ethan-1-one",
    "duplicated_cas_no": "705565-40-8",
    "SMILES": "C(C)(=O)C1=C(Br)C=C(F)C=C1",
    "meta_data": {
        "InChI": "InChI=1S/C8H6BrFO/c1-5(11)7-3-2-6(10)4-8(7)9/h2-4H,1H3",
        "InChIKey": null,
        "Canonical SMILES": "O=C(C1=CC=C(F)C=C1Br)C",
        "Molecular Formula": "C<sub>8</sub>H<sub>6</sub>BrFO",
        "Molecular Mass": "217.04",
        "Boiling Point": "128-130 °C @ Press: 10 Torr"
    }
}