{
    "cas_no": "939-23-1",
    "key_name": "4-Phenylpyridine",
    "cn_name": "4-苯基吡啶;",
    "alternate_name": "Pyridine, 4-phenyl-;4-Phenylpyridine;<em>p</em>-Phenylpyridine;γ-Phenylpyridine;NSC 70375;NSC 77935",
    "duplicated_cas_no": "82005-11-6",
    "SMILES": "C1(=CC=CC=C1)C=2C=CN=CC2",
    "meta_data": {
        "InChI": "InChI=1S/C11H9N/c1-2-4-10(5-3-1)11-6-8-12-9-7-11/h1-9H",
        "InChIKey": null,
        "Canonical SMILES": "N=1C=CC(=CC1)C=2C=CC=CC2",
        "Molecular Formula": "C<sub>11</sub>H<sub>9</sub>N",
        "Molecular Mass": "155.20",
        "Boiling Point": "281 °C",
        "Melting Point": "77.5 °C"
    }
}