{
    "cas_no": "5131-58-8",
    "key_name": "4-Nitro-<em>m</em>-phenylenediamine",
    "cn_name": "对硝基间苯二胺;",
    "alternate_name": "1,3-Benzenediamine, 4-nitro-;<em>m</em>-Phenylenediamine, 4-nitro-;4-Nitro-1,3-benzenediamine;C.I. 76030;1,3-Diamino-4-nitrobenzene;4-Nitro-<em>m</em>-phenylenediamine;2,4-Diaminonitrobenzene;4-Nitro-1,3-diaminobenzene;NSC 9575",
    "duplicated_cas_no": "",
    "SMILES": "N(=O)(=O)C1=C(N)C=C(N)C=C1",
    "meta_data": {
        "InChI": "InChI=1S/C6H7N3O2/c7-4-1-2-6(9(10)11)5(8)3-4/h1-3H,7-8H2",
        "InChIKey": null,
        "Canonical SMILES": "O=N(=O)C1=CC=C(N)C=C1N",
        "Molecular Formula": "C<sub>6</sub>H<sub>7</sub>N<sub>3</sub>O<sub>2</sub>",
        "Molecular Mass": "153.14",
        "Melting Point": "161 °C"
    }
}