{
    "cas_no": "14367-47-6",
    "key_name": "4-[Ethyl[2-(4-methoxyphenyl)-1-methylethyl]amino]-1-butanol",
    "cn_name": null,
    "alternate_name": "1-Butanol, 4-[ethyl[2-(4-methoxyphenyl)-1-methylethyl]amino]-;1-Butanol, 4-[ethyl(<em>p</em>-methoxy-α-methylphenethyl)amino]-;4-[Ethyl[2-(4-methoxyphenyl)-1-methylethyl]amino]-1-butanol;4-[<em>N</em>-Ethyl-<em>N</em>-[1-(4-methoxyphenyl)propan-2-yl]amino]butan-1-ol",
    "duplicated_cas_no": "",
    "SMILES": "C(C(N(CCCCO)CC)C)C1=CC=C(OC)C=C1",
    "meta_data": {
        "InChI": "InChI=1S/C16H27NO2/c1-4-17(11-5-6-12-18)14(2)13-15-7-9-16(19-3)10-8-15/h7-10,14,18H,4-6,11-13H2,1-3H3",
        "InChIKey": null,
        "Canonical SMILES": "OCCCCN(CC)C(C)CC1=CC=C(OC)C=C1",
        "Molecular Formula": "C<sub>16</sub>H<sub>27</sub>NO<sub>2</sub>",
        "Molecular Mass": "265.39",
        "Boiling Point": "160-170 °C @ Press: 0.2 Torr"
    }
}