{
    "cas_no": "1075-35-0",
    "key_name": "5-Chloro-2-methyl-1<em>H</em>-indole",
    "cn_name": "5-氯-2-甲基吲哚;5-氯-2-甲基-1H-吲哚;",
    "alternate_name": "1<em>H</em>-Indole, 5-chloro-2-methyl-;Indole, 5-chloro-2-methyl-;5-Chloro-2-methyl-1<em>H</em>-indole;5-Chloro-2-methylindole;2-Methyl-5-chloroindole;NSC 402577",
    "duplicated_cas_no": "",
    "SMILES": "CC=1NC=2C(C1)=CC(Cl)=CC2",
    "meta_data": {
        "InChI": "InChI=1S/C9H8ClN/c1-6-4-7-5-8(10)2-3-9(7)11-6/h2-5,11H,1H3",
        "InChIKey": null,
        "Canonical SMILES": "ClC=1C=CC=2NC(=CC2C1)C",
        "Molecular Formula": "C<sub>9</sub>H<sub>8</sub>ClN",
        "Molecular Mass": "165.62",
        "Melting Point": "119 °C"
    }
}