{
    "cas_no": "7440-45-1",
    "key_name": "Cerium",
    "cn_name": "铈;",
    "alternate_name": "Cerium;NSC 158935;MeSH ID: D002563",
    "duplicated_cas_no": "110123-49-4;196959-41-8",
    "SMILES": "[Ce]",
    "meta_data": {
        "InChI": "InChI=1S/Ce",
        "InChIKey": null,
        "Canonical SMILES": "[Ce]",
        "Molecular Formula": "Ce",
        "Molecular Mass": "",
        "Melting Point": "775 °C",
        "Density": "6.78 g/cm³ @ Temp: 18 °C"
    }
}