{
    "cas_no": "576-86-3",
    "key_name": "2,4-Dibromo-6-fluorophenol",
    "cn_name": null,
    "alternate_name": "Phenol, 2,4-dibromo-6-fluoro-;2,4-Dibromo-6-fluorophenol;2-Fluoro-4,6-dibromophenol",
    "duplicated_cas_no": "",
    "SMILES": "OC1=C(Br)C=C(Br)C=C1F",
    "meta_data": {
        "InChI": "InChI=1S/C6H3Br2FO/c7-3-1-4(8)6(10)5(9)2-3/h1-2,10H",
        "InChIKey": null,
        "Canonical SMILES": "FC=1C=C(Br)C=C(Br)C1O",
        "Molecular Formula": "C<sub>6</sub>H<sub>3</sub>Br<sub>2</sub>FO",
        "Molecular Mass": "269.89",
        "Melting Point": "35 °C"
    }
}