{
    "cas_no": "393-77-1",
    "key_name": "2,6-Dinitro-4-(trifluoromethyl)phenol",
    "cn_name": "2,6-二硝基-4-三氟甲酚;2,6-二硝基-4-三氟甲酚;",
    "alternate_name": "Phenol, 2,6-dinitro-4-(trifluoromethyl)-;<em>p</em>-Cresol, α,α,α-trifluoro-2,6-dinitro-;2,6-Dinitro-4-(trifluoromethyl)phenol;4-(Trifluoromethyl)-2,6-dinitrophenol;4-Hydroxy-3,5-dinitrobenzotrifluoride",
    "duplicated_cas_no": "",
    "SMILES": "N(=O)(=O)C1=C(O)C(N(=O)=O)=CC(C(F)(F)F)=C1",
    "meta_data": {
        "InChI": "InChI=1S/C7H3F3N2O5/c8-7(9,10)3-1-4(11(14)15)6(13)5(2-3)12(16)17/h1-2,13H",
        "InChIKey": null,
        "Canonical SMILES": "O=N(=O)C1=CC(=CC(=C1O)N(=O)=O)C(F)(F)F",
        "Molecular Formula": "C<sub>7</sub>H<sub>3</sub>F<sub>3</sub>N<sub>2</sub>O<sub>5</sub>",
        "Molecular Mass": "252.10",
        "Melting Point": "47-48 °C"
    }
}