{
    "cas_no": "19293-62-0",
    "key_name": "4,4′-Dimethoxybenzhydrylamine",
    "cn_name": "4,4\"-二甲氧基二苯甲胺;",
    "alternate_name": "Benzenemethanamine, 4-methoxy-α-(4-methoxyphenyl)-;Methylamine, 1,1-bis(<em>p</em>-methoxyphenyl)-;4-Methoxy-α-(4-methoxyphenyl)benzenemethanamine;4,4′-Dimethoxybenzhydrylamine;Bis(4-methoxyphenyl)methylamine;Di-<em>p</em>-anisylmethylamine;NSC 505712;Bis(4-methoxyphenyl)methanamine",
    "duplicated_cas_no": "",
    "SMILES": "C(N)(C1=CC=C(OC)C=C1)C2=CC=C(OC)C=C2",
    "meta_data": {
        "InChI": "InChI=1S/C15H17NO2/c1-17-13-7-3-11(4-8-13)15(16)12-5-9-14(18-2)10-6-12/h3-10,15H,16H2,1-2H3",
        "InChIKey": null,
        "Canonical SMILES": "O(C1=CC=C(C=C1)C(N)C2=CC=C(OC)C=C2)C",
        "Molecular Formula": "C<sub>15</sub>H<sub>17</sub>NO<sub>2</sub>",
        "Molecular Mass": "243.30",
        "Melting Point": "58-59 °C"
    }
}