{
    "cas_no": "36122-35-7",
    "key_name": "Phenylmaleic anhydride",
    "cn_name": "苯基顺酐;3-苯基呋喃-2,5-二酮;",
    "alternate_name": "2,5-Furandione, 3-phenyl-;Maleic anhydride, phenyl-;3-Phenyl-2,5-furandione;Phenylmaleic anhydride;NSC 191772;3-Phenylfuran-2,5-dione;3-Phenyl-2,5-dihydrofuran-2,5-dione",
    "duplicated_cas_no": "",
    "SMILES": "O=C1C(=CC(=O)O1)C2=CC=CC=C2",
    "meta_data": {
        "InChI": "InChI=1S/C10H6O3/c11-9-6-8(10(12)13-9)7-4-2-1-3-5-7/h1-6H",
        "InChIKey": null,
        "Canonical SMILES": "O=C1OC(=O)C(=C1)C=2C=CC=CC2",
        "Molecular Formula": "C<sub>10</sub>H<sub>6</sub>O<sub>3</sub>",
        "Molecular Mass": "174.15",
        "Boiling Point": "122-125 °C @ Press: 0.2 Torr",
        "Melting Point": "119-119.5 °C"
    }
}