{
    "cas_no": "1907-65-9",
    "key_name": "<em>N</em>-Butyl-4-methylbenzenesulfonamide",
    "cn_name": "N-丁基对甲苯磺酰胺;",
    "alternate_name": "Benzenesulfonamide, <em>N</em>-butyl-4-methyl-;<em>p</em>-Toluenesulfonamide, <em>N</em>-butyl-;<em>N</em>-Butyl-4-methylbenzenesulfonamide;<em>N</em>-Tosylbutylamine;<em>N</em>-Butyl-<em>p</em>-toluenesulfonamide;<em>N</em>-Butyl-<em>p</em>-toluenesulfoneamide;NSC 2180",
    "duplicated_cas_no": "",
    "SMILES": "S(NCCCC)(=O)(=O)C1=CC=C(C)C=C1",
    "meta_data": {
        "InChI": "InChI=1S/C11H17NO2S/c1-3-4-9-12-15(13,14)11-7-5-10(2)6-8-11/h5-8,12H,3-4,9H2,1-2H3",
        "InChIKey": null,
        "Canonical SMILES": "O=S(=O)(NCCCC)C1=CC=C(C=C1)C",
        "Molecular Formula": "C<sub>11</sub>H<sub>17</sub>NO<sub>2</sub>S",
        "Molecular Mass": "227.32",
        "Melting Point": "77 °C"
    }
}