{
    "cas_no": "96-33-3",
    "key_name": "Methyl acrylate",
    "cn_name": "丙烯酸甲酯;",
    "alternate_name": "2-Propenoic acid, methyl ester;Acrylic acid methyl ester;Methyl acrylate;2-Propenoic acid methyl ester;Methoxycarbonylethylene;Methyl propenoate;Methyl prop-2-enoate;Methyl acrylic ester;NSC 24146;K 400;Methacrylic acid tert-butyl ester;K 268P;Methyl acrylate-vinylidene copolymer;FM 362",
    "duplicated_cas_no": "102256-29-1;1254182-69-8;2408240-60-6",
    "SMILES": "C(C=C)(OC)=O",
    "meta_data": {
        "InChI": "InChI=1S/C4H6O2/c1-3-4(5)6-2/h3H,1H2,2H3",
        "InChIKey": null,
        "Canonical SMILES": "O=C(OC)C=C",
        "Molecular Formula": "C<sub>4</sub>H<sub>6</sub>O<sub>2</sub>",
        "Molecular Mass": "86.09",
        "Boiling Point": "80.5 °C",
        "Melting Point": "-76.5 °C",
        "Density": "0.9535 g/cm³ @ Temp: 20 °C"
    }
}