{
    "cas_no": "68227-69-0",
    "key_name": "Benzenesulfonic acid, 2-amino-, phenyl ester",
    "cn_name": null,
    "alternate_name": "Benzenesulfonic acid, 2-amino-, phenyl ester;Phenyl 2-aminobenzenesulfonate;2-Aminobenzenesulfonic acid phenyl ester",
    "duplicated_cas_no": "",
    "SMILES": "S(OC1=CC=CC=C1)(=O)(=O)C2=C(N)C=CC=C2",
    "meta_data": {
        "InChI": "InChI=1S/C12H11NO3S/c13-11-8-4-5-9-12(11)17(14,15)16-10-6-2-1-3-7-10/h1-9H,13H2",
        "InChIKey": null,
        "Canonical SMILES": "O=S(=O)(OC=1C=CC=CC1)C=2C=CC=CC2N",
        "Molecular Formula": "C<sub>12</sub>H<sub>11</sub>NO<sub>3</sub>S",
        "Molecular Mass": "249.29",
        "Melting Point": "69-71 °C"
    }
}