{
    "cas_no": "2620-63-5",
    "key_name": "<em>N</em>-Acetylglycinamide",
    "cn_name": "醋谷胺;",
    "alternate_name": "Acetamide, <em>N</em>-(2-amino-2-oxoethyl)-;Acetamide, 2-acetamido-;<em>N</em>-(2-Amino-2-oxoethyl)acetamide;<em>N</em>,2′-Biacetamide;Aceturamide;<em>N</em>-Acetylglycinamide;<em>N</em>-Acetyl glycine amide;NSC 514773;2-Acetamidoacetamide;Aglyam",
    "duplicated_cas_no": "",
    "SMILES": "C(NC(C)=O)C(N)=O",
    "meta_data": {
        "InChI": "InChI=1S/C4H8N2O2/c1-3(7)6-2-4(5)8/h2H2,1H3,(H2,5,8)(H,6,7)",
        "InChIKey": null,
        "Canonical SMILES": "O=C(N)CNC(=O)C",
        "Molecular Formula": "C<sub>4</sub>H<sub>8</sub>N<sub>2</sub>O<sub>2</sub>",
        "Molecular Mass": "116.12",
        "Melting Point": "140-143 °C"
    }
}