{
    "cas_no": "20624-92-4",
    "key_name": "3-Chloro-4-hydroxy-5-methoxybenzenemethanol",
    "cn_name": "3-氯-4-羟基-5-甲氧基 苯甲醇;",
    "alternate_name": "Benzenemethanol, 3-chloro-4-hydroxy-5-methoxy-;Vanillyl alcohol, 5-chloro-;3-Chloro-4-hydroxy-5-methoxybenzenemethanol;3-Chloro-4-hydroxy-5-methoxybenzyl alcohol;2-Chloro-4-(hydroxymethyl)-6-methoxyphenol",
    "duplicated_cas_no": "",
    "SMILES": "O(C)C1=C(O)C(Cl)=CC(CO)=C1",
    "meta_data": {
        "InChI": "InChI=1S/C8H9ClO3/c1-12-7-3-5(4-10)2-6(9)8(7)11/h2-3,10-11H,4H2,1H3",
        "InChIKey": null,
        "Canonical SMILES": "ClC=1C=C(C=C(OC)C1O)CO",
        "Molecular Formula": "C<sub>8</sub>H<sub>9</sub>ClO<sub>3</sub>",
        "Molecular Mass": "188.61",
        "Melting Point": "110-111 °C"
    }
}