{
    "cas_no": "36838-71-8",
    "key_name": "Tetrahydro-4-methylene-2<em>H</em>-pyran",
    "cn_name": null,
    "alternate_name": "2<em>H</em>-Pyran, tetrahydro-4-methylene-;Pyran, tetrahydro-4-methylene-;Tetrahydro-4-methylene-2<em>H</em>-pyran;4-Methylenetetrahydropyran;Tetrahydro-4-methylenepyran;4-Methylenetetrahydro-2<em>H</em>-pyran",
    "duplicated_cas_no": "",
    "SMILES": "C=C1CCOCC1",
    "meta_data": {
        "InChI": "InChI=1S/C6H10O/c1-6-2-4-7-5-3-6/h1-5H2",
        "InChIKey": null,
        "Canonical SMILES": "O1CCC(=C)CC1",
        "Molecular Formula": "C<sub>6</sub>H<sub>10</sub>O",
        "Molecular Mass": "98.14",
        "Boiling Point": "109 °C",
        "Density": "0.901 g/cm³ @ Temp: 20 °C"
    }
}