{
    "cas_no": "75-11-6",
    "key_name": "Diiodomethane",
    "cn_name": "二碘甲烷;",
    "alternate_name": "Methane, diiodo-;Diiodomethane;Methylene iodide;Methylene diiodide;NSC 35804",
    "duplicated_cas_no": "103883-81-4",
    "SMILES": "C(I)I",
    "meta_data": {
        "InChI": "InChI=1S/CH2I2/c2-1-3/h1H2",
        "InChIKey": null,
        "Canonical SMILES": "ICI",
        "Molecular Formula": "CH<sub>2</sub>I<sub>2</sub>",
        "Molecular Mass": "267.84",
        "Boiling Point": "182 °C",
        "Melting Point": "6.1 °C",
        "Density": "3.10 g/cm³"
    }
}