{
    "cas_no": "3086-91-7",
    "key_name": "4-Chloro-5-sulfamoylanthranilic acid",
    "cn_name": null,
    "alternate_name": "Benzoic acid, 2-amino-5-(aminosulfonyl)-4-chloro-;Anthranilic acid, 4-chloro-5-sulfamoyl-;2-Amino-5-(aminosulfonyl)-4-chlorobenzoic acid;4-Chloro-5-sulfamylanthranilic acid;4-Chloro-5-sulfamoylanthranilic acid;Desfurylmethylfurosemide;Saluamine;2-Amino-4-chloro-5-sulfamoylbenzoic acid;2-Amino-5-aminosulfonyl-4-chlorobenzoic acid;2-Amino-4-chloro-5-(aminosulfonyl)benzoic acid",
    "duplicated_cas_no": "",
    "SMILES": "S(N)(=O)(=O)C1=CC(C(O)=O)=C(N)C=C1Cl",
    "meta_data": {
        "InChI": "InChI=1S/C7H7ClN2O4S/c8-4-2-5(9)3(7(11)12)1-6(4)15(10,13)14/h1-2H,9H2,(H,11,12)(H2,10,13,14)",
        "InChIKey": null,
        "Canonical SMILES": "O=C(O)C1=CC(=C(Cl)C=C1N)S(=O)(=O)N",
        "Molecular Formula": "C<sub>7</sub>H<sub>7</sub>ClN<sub>2</sub>O<sub>4</sub>S",
        "Molecular Mass": "250.66",
        "Melting Point": "267 °C (decomp)"
    }
}