{
    "cas_no": "315-22-0",
    "key_name": "Monocrotaline",
    "cn_name": "野百合碱;",
    "alternate_name": "2<em>H</em>-[1,6]Dioxacycloundecino[2,3,4-<em>gh</em>]pyrrolizine-2,6(3<em>H</em>)-dione, 4,5,8,10,12,13,13a,13b-octahydro-4,5-dihydroxy-3,4,5-trimethyl-, (3<em>R</em>,4<em>R</em>,5<em>R</em>,13a<em>R</em>,13b<em>R</em>)-;20-Norcrotalanan-11,15-dione, 14,19-dihydro-12,13-dihydroxy-, (13α,14α)-;Monocrotaline;2<em>H</em>-[1,6]Dioxacycloundecino[2,3,4-<em>gh</em>]pyrrolizine, 20-norcrotalanan-11,15-dione deriv.;(3<em>R</em>,4<em>R</em>,5<em>R</em>,13a<em>R</em>,13b<em>R</em>)-4,5,8,10,12,13,13a,13b-Octahydro-4,5-dihydroxy-3,4,5-trimethyl-2<em>H</em>-[1,6]dioxacycloundecino[2,3,4-<em>gh</em>]pyrrolizine-2,6(3<em>H</em>)-dione;Monocrotalin;(-)-Monocrotaline;2<em>H</em>-[1,6]Dioxacycloundecino[2,3,4-<em>gh</em>]pyrrolizine-2,6(3<em>H</em>)-dione, 4,5,8,10,12,13,13a,13b-octahydro-4,5-dihydroxy-3,4,5-trimethyl-, [3<em>R</em>-(3<em>R</em>*,4<em>R</em>*,5<em>R</em>*,13a<em>R</em>*,13b<em>R</em>*)]-;NSC 28693;MeSH ID: D016686",
    "duplicated_cas_no": "30331-79-4;48197-27-9",
    "SMILES": "O=C1O[C@]2([C@@]3(N(CC2)CC=C3COC(=O)[C@](C)(O)[C@](C)(O)[C@H]1C)[H])[H]",
    "meta_data": {
        "InChI": "InChI=1S/C16H23NO6/c1-9-13(18)23-11-5-7-17-6-4-10(12(11)17)8-22-14(19)16(3,21)15(9,2)20/h4,9,11-12,20-21H,5-8H2,1-3H3/t9-,11+,12+,15+,16-/m0/s1",
        "InChIKey": null,
        "Canonical SMILES": "O=C1OC2CCN3CC=C(COC(=O)C(O)(C)C(O)(C)C1C)C32",
        "Molecular Formula": "C<sub>16</sub>H<sub>23</sub>NO<sub>6</sub>",
        "Molecular Mass": "325.36",
        "Melting Point": "197-198 °C (decomp)",
        "Density": "1.35 g/cm³"
    }
}