{
    "cas_no": "6926-14-3",
    "key_name": "8-<em>O</em>-Acetylharpagide",
    "cn_name": null,
    "alternate_name": "β-<span class=\"text-smallcaps\">D</span>-Glucopyranoside, (1<em>S</em>,4a<em>S</em>,5<em>R</em>,7<em>S</em>,7a<em>S</em>)-7-(acetyloxy)-1,4a,5,6,7,7a-hexahydro-4a,5-dihydroxy-7-methylcyclopenta[<em>c</em>]pyran-1-yl;Glucopyranoside, 1β,4a,5,6,7,7aα-hexahydro-4aα,5α,7α-trihydroxy-7-methylcyclopenta[<em>c</em>]pyran-1-yl, 7-acetate, β-<span class=\"text-smallcaps\">D</span>-;β-<span class=\"text-smallcaps\">D</span>-Glucopyranoside, 7-(acetyloxy)-1,4a,5,6,7,7a-hexahydro-4a,5-dihydroxy-7-methylcyclopenta[<em>c</em>]pyran-1-yl, [1<em>S</em>-(1α,4aα,5α,7α,7aα)]-;Harpagide, 8-acetate;(1<em>S</em>,4a<em>S</em>,5<em>R</em>,7<em>S</em>,7a<em>S</em>)-7-(Acetyloxy)-1,4a,5,6,7,7a-hexahydro-4a,5-dihydroxy-7-methylcyclopenta[<em>c</em>]pyran-1-yl β-<span class=\"text-smallcaps\">D</span>-glucopyranoside;8-<em>O</em>-Acetylharpagide;8-Acetylharpagide;Harpagide acetate",
    "duplicated_cas_no": "131862-12-9;26805-51-6;40293-11-6",
    "SMILES": "O[C@]12[C@]([C@H](O[C@@H]3O[C@H](CO)[C@@H](O)[C@H](O)[C@H]3O)OC=C1)([C@](OC(C)=O)(C)C[C@H]2O)[H]",
    "meta_data": {
        "InChI": "InChI=1S/C17H26O11/c1-7(19)28-16(2)5-9(20)17(24)3-4-25-15(13(16)17)27-14-12(23)11(22)10(21)8(6-18)26-14/h3-4,8-15,18,20-24H,5-6H2,1-2H3/t8-,9-,10-,11+,12-,13-,14+,15+,16+,17-/m1/s1",
        "InChIKey": null,
        "Canonical SMILES": "O=C(OC1(C)CC(O)C2(O)C=COC(OC3OC(CO)C(O)C(O)C3O)C21)C",
        "Molecular Formula": "C<sub>17</sub>H<sub>26</sub>O<sub>11</sub>",
        "Molecular Mass": "406.38",
        "Melting Point": "225-228 °C"
    }
}