{
    "cas_no": "1074-15-3",
    "key_name": "1-Bromo-2-(2-bromoethyl)benzene",
    "cn_name": null,
    "alternate_name": "Benzene, 1-bromo-2-(2-bromoethyl)-;1-Bromo-2-(2-bromoethyl)benzene;<em>o</em>-Bromophenethyl bromide;2-(<em>o</em>-Bromophenyl)ethyl bromide;2-Bromophenethyl bromide;2-(2-Bromoethyl)-1-bromobenzene;2-Bromo-1-(2-bromoethyl)benzene;NSC 338402",
    "duplicated_cas_no": "",
    "SMILES": "C(CBr)C1=C(Br)C=CC=C1",
    "meta_data": {
        "InChI": "InChI=1S/C8H8Br2/c9-6-5-7-3-1-2-4-8(7)10/h1-4H,5-6H2",
        "InChIKey": null,
        "Canonical SMILES": "BrC=1C=CC=CC1CCBr",
        "Molecular Formula": "C<sub>8</sub>H<sub>8</sub>Br<sub>2</sub>",
        "Molecular Mass": "263.96",
        "Boiling Point": "99-100 °C @ Press: 3 Torr",
        "Melting Point": "122 °C"
    }
}