{
    "cas_no": "82820-87-9",
    "key_name": "2,4-Dibromobutanoyl chloride",
    "cn_name": "2,4-二溴丁酰氯;",
    "alternate_name": "Butanoyl chloride, 2,4-dibromo-;2,4-Dibromobutanoyl chloride;2,4-Dibromobutyryl chloride",
    "duplicated_cas_no": "",
    "SMILES": "C(CCBr)(C(Cl)=O)Br",
    "meta_data": {
        "InChI": "InChI=1S/C4H5Br2ClO/c5-2-1-3(6)4(7)8/h3H,1-2H2",
        "InChIKey": null,
        "Canonical SMILES": "O=C(Cl)C(Br)CCBr",
        "Molecular Formula": "C<sub>4</sub>H<sub>5</sub>Br<sub>2</sub>ClO",
        "Molecular Mass": "264.34",
        "Boiling Point": "84-87 °C @ Press: 8 Torr"
    }
}