{
    "cas_no": "21018-84-8",
    "key_name": "Amarogentin",
    "cn_name": "苦杏苷;",
    "alternate_name": "1<em>H</em>,3<em>H</em>-Pyrano[3,4-<em>c</em>]pyran-1-one, 5-ethenyl-4,4a,5,6-tetrahydro-6-[[2-<em>O</em>-[(3,3′,5-trihydroxy[1,1′-biphenyl]-2-yl)carbonyl]-β-<span class=\"text-smallcaps\">D</span>-glucopyranosyl]oxy]-, (4a<em>S</em>,5<em>R</em>,6<em>S</em>)-;Amarogentin;[1,1′-Biphenyl]-2-carboxylic acid, 3,3′,5-trihydroxy-, 2-ester with 5-ethenyl-6-(β-<span class=\"text-smallcaps\">D</span>-glucopyranosyloxy)-4,4a,5,6-tetrahydro-1<em>H</em>,3<em>H</em>-pyrano[3,4-<em>c</em>]pyran-1-one, [4a<em>S</em>-(4aα,5β,6α)]-;1<em>H</em>,3<em>H</em>-Pyrano[3,4-<em>c</em>]pyran, [1,1′-biphenyl]-2-carboxylic acid deriv.;(4a<em>S</em>,5<em>R</em>,6<em>S</em>)-5-Ethenyl-4,4a,5,6-tetrahydro-6-[[2-<em>O</em>-[(3,3′,5-trihydroxy[1,1′-biphenyl]-2-yl)carbonyl]-β-<span class=\"text-smallcaps\">D</span>-glucopyranosyl]oxy]-1<em>H</em>,3<em>H</em>-pyrano[3,4-<em>c</em>]pyran-1-one;1<em>H</em>,3<em>H</em>-Pyrano[3,4-<em>c</em>]pyran-1-one, 5-ethenyl-4,4a,5,6-tetrahydro-6-[[2-<em>O</em>-[(3,3′,5-trihydroxy[1,1′-biphenyl]-2-yl)carbonyl]-β-<span class=\"text-smallcaps\">D</span>-glucopyranosyl]oxy]-, [4a<em>S</em>-(4aα,5β,6α)]-",
    "duplicated_cas_no": "1397-87-1",
    "SMILES": "C(O[C@H]1[C@H](O[C@H]2[C@H](C=C)[C@]3(C(=CO2)C(=O)OCC3)[H])O[C@H](CO)[C@@H](O)[C@@H]1O)(=O)C4=C(C=C(O)C=C4O)C5=CC(O)=CC=C5",
    "meta_data": {
        "InChI": "InChI=1S/C29H30O13/c1-2-16-17-6-7-38-26(36)19(17)12-39-28(16)42-29-25(24(35)23(34)21(11-30)40-29)41-27(37)22-18(9-15(32)10-20(22)33)13-4-3-5-14(31)8-13/h2-5,8-10,12,16-17,21,23-25,28-35H,1,6-7,11H2/t16-,17+,21-,23-,24+,25-,28+,29+/m1/s1",
        "InChIKey": null,
        "Canonical SMILES": "O=C1OCCC2C1=COC(OC3OC(CO)C(O)C(O)C3OC(=O)C4=C(O)C=C(O)C=C4C5=CC=CC(O)=C5)C2C=C",
        "Molecular Formula": "C<sub>29</sub>H<sub>30</sub>O<sub>13</sub>",
        "Molecular Mass": "586.54",
        "Melting Point": "178-180 °C"
    }
}