{
    "cas_no": "16567-18-3",
    "key_name": "8-Bromoquinoline",
    "cn_name": "8-溴喹啉;",
    "alternate_name": "Quinoline, 8-bromo-;8-Bromoquinoline",
    "duplicated_cas_no": "",
    "SMILES": "BrC=1C2=C(C=CC1)C=CC=N2",
    "meta_data": {
        "InChI": "InChI=1S/C9H6BrN/c10-8-5-1-3-7-4-2-6-11-9(7)8/h1-6H",
        "InChIKey": null,
        "Canonical SMILES": "BrC=1C=CC=C2C=CC=NC12",
        "Molecular Formula": "C<sub>9</sub>H<sub>6</sub>BrN",
        "Molecular Mass": "208.05",
        "Boiling Point": "302 °C",
        "Melting Point": "80 °C"
    }
}