{
    "cas_no": "95399-71-6",
    "key_name": "Fosinoprilat",
    "cn_name": null,
    "alternate_name": "<span class=\"text-smallcaps\">L</span>-Proline, 4-cyclohexyl-1-[2-[hydroxy(4-phenylbutyl)phosphinyl]acetyl]-, (4<em>S</em>)-;<span class=\"text-smallcaps\">L</span>-Proline, 4-cyclohexyl-1-[[hydroxy(4-phenylbutyl)phosphinyl]acetyl]-, <em>trans</em>-;<span class=\"text-smallcaps\">L</span>-Proline, 4-cyclohexyl-1-[[hydroxy(4-phenylbutyl)phosphinyl]acetyl]-, (4<em>S</em>)-;(4<em>S</em>)-4-Cyclohexyl-1-[2-[hydroxy(4-phenylbutyl)phosphinyl]acetyl]-<span class=\"text-smallcaps\">L</span>-proline;Fosfenopril;SQ 27519;Fosinoprilic acid;Fosinoprilat",
    "duplicated_cas_no": "",
    "SMILES": "C(CP(CCCCC1=CC=CC=C1)(=O)O)(=O)N2C[C@@H](C[C@H]2C(O)=O)C3CCCCC3",
    "meta_data": {
        "InChI": "InChI=1S/C23H34NO5P/c25-22(17-30(28,29)14-8-7-11-18-9-3-1-4-10-18)24-16-20(15-21(24)23(26)27)19-12-5-2-6-13-19/h1,3-4,9-10,19-21H,2,5-8,11-17H2,(H,26,27)(H,28,29)/t20-,21+/m1/s1",
        "InChIKey": null,
        "Canonical SMILES": "O=C(O)C1N(C(=O)CP(=O)(O)CCCCC=2C=CC=CC2)CC(C1)C3CCCCC3",
        "Molecular Formula": "C<sub>23</sub>H<sub>34</sub>NO<sub>5</sub>P",
        "Molecular Mass": "435.49",
        "Melting Point": "149-153 °C"
    }
}