{
    "cas_no": "115314-14-2",
    "key_name": "Benzenesulfonic acid, 3-nitro-, (2<em>S</em>)-2-oxiranylmethyl ester",
    "cn_name": "(S)-(+)-间硝基苯磺酸缩水甘油酯;(S)-缩水甘油间硝基苯磺酸酯;",
    "alternate_name": "Benzenesulfonic acid, 3-nitro-, (2<em>S</em>)-2-oxiranylmethyl ester;Benzenesulfonic acid, 3-nitro-, oxiranylmethyl ester, (<em>S</em>)-;Benzenesulfonic acid, 3-nitro-, (2<em>S</em>)-oxiranylmethyl ester;(<em>S</em>)-Glycidyl 3-nitrobenzenesulfonate;(<em>S</em>)-2,3-Epoxypropyl 3-nitrobenzenesulfonate;(<em>S</em>)-Glycidyl <em>m</em>-nitrobenzenesulfonate;(<em>S</em>)-(+)-Gycidyl 3-nitrobenzenesulfonate;(2<em>S</em>)-(+)-Glycidyl 3-nitrobenzenesulfonate;(<em>S</em>)-(+)-3-Nitrobenzenesulfonic acid oxiranylmethyl ester;(2<em>S</em>)-Glycidyl 3-nitrobenzenesulfonate;(<em>S</em>)-(+)-Glycidyl 3-nitrobenzenesulfonate;(2S)-(+)-Glycidyl 3-nitrobenzenesulfonate;(2<em>S</em>)-Oxiranylmethyl 3-nitrobenzenesulfonate;((2<em>S</em>)-Oxiran-2-yl)methyl 3-nitrobenzenesulfonate;(<em>S</em>)-(2,3-Epoxypropan-1-yl) 3-nitrobenzenesulfonate;(<em>S</em>)-Oxiran-2-ylmethyl 3-nitrobenzenesulfonate;3-Nitrobenzenesulfonic acid (<em>S</em>)-oxiran-2-ylmethyl ester;3-Nitrobenzenesulfonic acid (2<em>S</em>)-oxiran-2-ylmethyl ester;(<em>S</em>)-(+)-3-Nitrobenzenesulfonic acid glycidyl ester;3-Nitrobenzenesulfonic acid (<em>S</em>)-glycidyl ester;(<em>S</em>)-3-Nitrobenzenesulfonic acid oxiranylmethyl ester;[(2S)-Oxiran-2-yl]methyl 3-nitrobenzenesulfonate;(<em>S</em>)-Oxiran-2-yl methyl 3-nitrobenzenesulfonate",
    "duplicated_cas_no": "203991-21-3",
    "SMILES": "S(OC[C@@H]1CO1)(=O)(=O)C2=CC(N(=O)=O)=CC=C2",
    "meta_data": {
        "InChI": "InChI=1S/C9H9NO6S/c11-10(12)7-2-1-3-9(4-7)17(13,14)16-6-8-5-15-8/h1-4,8H,5-6H2/t8-/m0/s1",
        "InChIKey": null,
        "Canonical SMILES": "O=N(=O)C1=CC=CC(=C1)S(=O)(=O)OCC2OC2",
        "Molecular Formula": "C<sub>9</sub>H<sub>9</sub>NO<sub>6</sub>S",
        "Molecular Mass": "259.24",
        "Melting Point": "61.1-63.6 °C"
    }
}