{
    "cas_no": "12039-87-1",
    "key_name": "Vanadium silicide (VSi<sub>2</sub>)",
    "cn_name": "硅化钒;",
    "alternate_name": "Vanadium silicide (VSi<sub>2</sub>);Vanadium disilicide;Monovanadium disilicide;Vanadium disilicide (VSi<sub>2</sub>)",
    "duplicated_cas_no": "264124-84-7;341026-24-2;2583615-04-5",
    "SMILES": "",
    "meta_data": {
        "InChI": "",
        "InChIKey": null,
        "Canonical SMILES": "",
        "Molecular Formula": "Si<sub>2</sub>V",
        "Molecular Mass": "",
        "Melting Point": "1677 °C"
    }
}