{
    "cas_no": "6027-13-0",
    "key_name": "<span class=\"text-smallcaps\">L</span>-Homocysteine",
    "cn_name": "L-高半胱氨酸;",
    "alternate_name": "<span class=\"text-smallcaps\">L</span>-Homocysteine;Butyric acid, 2-amino-4-mercapto-, <span class=\"text-smallcaps\">L</span>-;Butanoic acid, 2-amino-4-mercapto-, (<em>S</em>)-;2-Amino-4-mercapto-<span class=\"text-smallcaps\">L</span>-butyric acid;Homocysteine;(<em>S</em>)-2-Amino-4-mercaptobutanoic acid;(<em>S</em>)-Homocysteine;2-Amino-4-mercaptobutyric acid;NSC 43117",
    "duplicated_cas_no": "454-28-4;1867-00-1",
    "SMILES": "[C@H](CCS)(C(O)=O)N",
    "meta_data": {
        "InChI": "InChI=1S/C4H9NO2S/c5-3(1-2-8)4(6)7/h3,8H,1-2,5H2,(H,6,7)/t3-/m0/s1",
        "InChIKey": null,
        "Canonical SMILES": "O=C(O)C(N)CCS",
        "Molecular Formula": "C<sub>4</sub>H<sub>9</sub>NO<sub>2</sub>S",
        "Molecular Mass": "135.18",
        "Melting Point": "232.5 °C"
    }
}