{
    "cas_no": "100516-88-9",
    "key_name": "6-Quinolinemethanol",
    "cn_name": "6-羟甲基喹啉;6-喹啉甲醇;",
    "alternate_name": "6-Quinolinemethanol;6-(Hydroxymethyl)quinoline;Quinolin-6-ylcarbinol;Quinolin-6-ylmethanol",
    "duplicated_cas_no": "",
    "SMILES": "C(O)C1=CC2=C(C=C1)N=CC=C2",
    "meta_data": {
        "InChI": "InChI=1S/C10H9NO/c12-7-8-3-4-10-9(6-8)2-1-5-11-10/h1-6,12H,7H2",
        "InChIKey": null,
        "Canonical SMILES": "OCC1=CC=C2N=CC=CC2=C1",
        "Molecular Formula": "C<sub>10</sub>H<sub>9</sub>NO",
        "Molecular Mass": "159.18",
        "Melting Point": "79.5-80.5 °C"
    }
}