{
    "cas_no": "389890-42-0",
    "key_name": "<em>tert</em>-Butyl trans-(3-hydroxycyclobutyl)carbamate",
    "cn_name": null,
    "alternate_name": "Carbamic acid, <em>N</em>-(<em>trans</em>-3-hydroxycyclobutyl)-, 1,1-dimethylethyl ester;Carbamic acid, (<em>trans</em>-3-hydroxycyclobutyl)-, 1,1-dimethylethyl ester;<em>tert</em>-Butyl <em>N</em>-(<em>trans</em>-3-hydroxycyclobutyl)carbamate;<em>trans</em>-<em>N</em>-[3-Hydroxycyclobutyl]carbamic acid tert-butyl ester;1,1-Dimethylethyl (<em>trans</em>-3-hydroxycyclobutyl)carbamate;<em>tert</em>-Butyl (<em>trans</em>-3-hydroxycyclobutyl)carbamate;<em>tert</em>-Butyl trans-(3-hydroxycyclobutyl)carbamate;<em>trans</em>-<em>tert</em>-Butyl (3-hydroxycyclobutyl)carbamate;<em>tert</em>-Butyl trans-<em>N</em>-(3-hydroxycyclobutyl)carbamate",
    "duplicated_cas_no": "",
    "SMILES": "N(C(OC(C)(C)C)=O)[C@H]1C[C@H](O)C1",
    "meta_data": {
        "InChI": "InChI=1/C9H17NO3/c1-9(2,3)13-8(12)10-6-4-7(11)5-6/h6-7,11H,4-5H2,1-3H3,(H,10,12)/t6-,7-",
        "InChIKey": null,
        "Canonical SMILES": "O=C(OC(C)(C)C)NC1CC(O)C1",
        "Molecular Formula": "C<sub>9</sub>H<sub>17</sub>NO<sub>3</sub>",
        "Molecular Mass": "187.24",
        "Melting Point": "112 °C"
    }
}