{
    "cas_no": "80087-71-4",
    "key_name": "6-Fluoro-2(3<em>H</em>)-benzothiazolethione",
    "cn_name": null,
    "alternate_name": "2(3<em>H</em>)-Benzothiazolethione, 6-fluoro-;6-Fluoro-2(3<em>H</em>)-benzothiazolethione;6-Fluoro-2-mercaptobenzothiazole",
    "duplicated_cas_no": "",
    "SMILES": "S=C1NC=2C(S1)=CC(F)=CC2",
    "meta_data": {
        "InChI": "InChI=1S/C7H4FNS2/c8-4-1-2-5-6(3-4)11-7(10)9-5/h1-3H,(H,9,10)",
        "InChIKey": null,
        "Canonical SMILES": "FC1=CC=C2NC(=S)SC2=C1",
        "Molecular Formula": "C<sub>7</sub>H<sub>4</sub>FNS<sub>2</sub>",
        "Molecular Mass": "185.24",
        "Melting Point": "225-227 °C"
    }
}