{
    "cas_no": "2716-10-1",
    "key_name": "4,4′-[1,4-Phenylenebis(1-methylethylidene)]bis[benzenamine]",
    "cn_name": "a,a-双(4-氨基苯基)-1,4-二异丙基苯;",
    "alternate_name": "Benzenamine, 4,4′-[1,4-phenylenebis(1-methylethylidene)]bis-;Cumidine, α,α′-<em>p</em>-phenylenedi-;4,4′-[1,4-Phenylenebis(1-methylethylidene)]bis[benzenamine];4,4′-(<em>p</em>-Phenylenediisopropylidene)dianiline;Epon HPT 1061;1,4-Bis(<em>p</em>-aminocumyl)benzene;Epon HPT 1062M;Bis A-P;1,4-Bis[1-(4-aminophenyl)-1-methylethyl]benzene;Bisaniline P;1,4-Bis(4-aminophenylisopropylidene)benzene;4,4′-(<em>p</em>-Phenylenediisopropylidene)bisaniline;4,4′-(1,4-Phenylenediisopropylidene)bisaniline;4,4′-(1,4-Phenylenediisopropylidene)diphenylamine;1,4-Bis[2-(4-aminophenyl)propan-2-yl]benzene;4,4′-[1,4-Phenylenebis(1-methylethylidene)]bisaniline;2,2′-Bis(4-aminophenyl)-<em>p</em>-diisopropylbenzene;1,4-Bis[2-(4-aminophenyl)-2-propyl]benzene;1,4-Bis(4-amino-α,α-dimethylbenzyl)benzene;Curing agent 1061",
    "duplicated_cas_no": "",
    "SMILES": "C(C)(C)(C1=CC=C(C(C)(C)C2=CC=C(N)C=C2)C=C1)C3=CC=C(N)C=C3",
    "meta_data": {
        "InChI": "InChI=1S/C24H28N2/c1-23(2,19-9-13-21(25)14-10-19)17-5-7-18(8-6-17)24(3,4)20-11-15-22(26)16-12-20/h5-16H,25-26H2,1-4H3",
        "InChIKey": null,
        "Canonical SMILES": "NC1=CC=C(C=C1)C(C2=CC=C(C=C2)C(C3=CC=C(N)C=C3)(C)C)(C)C",
        "Molecular Formula": "C<sub>24</sub>H<sub>28</sub>N<sub>2</sub>",
        "Molecular Mass": "344.49",
        "Boiling Point": "230 °C @ Press: 0.1 Torr",
        "Melting Point": "163 °C"
    }
}