{
    "cas_no": "2620-05-5",
    "key_name": "2-Chloro-<em>N</em>-methyl-<em>N</em>-phenylacetamide",
    "cn_name": null,
    "alternate_name": "Acetamide, 2-chloro-<em>N</em>-methyl-<em>N</em>-phenyl-;Acetanilide, 2-chloro-<em>N</em>-methyl-;2-Chloro-<em>N</em>-methyl-<em>N</em>-phenylacetamide;<em>N</em>-Chloroacetyl-<em>N</em>-methylaniline;2-Chloro-<em>N</em>-methylacetanilide;<em>N</em>-Methylchloroacetanilide;α-Chloro-<em>N</em>-methylacetanilide;Chloroacetic acid <em>N</em>-methylanilide;NSC 8283;<em>N</em>-Methyl-<em>N</em>-phenylchloracetamide;<em>N</em>-Methyl-<em>N</em>-phenylchloroacetamide;[<em>N</em>-Methyl-<em>N</em>-(phenyl)aminocarbonylmethyl]chloride",
    "duplicated_cas_no": "",
    "SMILES": "N(C(CCl)=O)(C)C1=CC=CC=C1",
    "meta_data": {
        "InChI": "InChI=1S/C9H10ClNO/c1-11(9(12)7-10)8-5-3-2-4-6-8/h2-6H,7H2,1H3",
        "InChIKey": null,
        "Canonical SMILES": "O=C(N(C=1C=CC=CC1)C)CCl",
        "Molecular Formula": "C<sub>9</sub>H<sub>10</sub>ClNO",
        "Molecular Mass": "183.63",
        "Boiling Point": "126-132 °C @ Press: 6 Torr",
        "Melting Point": "70 °C"
    }
}