{
    "cas_no": "637-87-6",
    "key_name": "1-Chloro-4-iodobenzene",
    "cn_name": "对氯碘苯;4-氯碘化苯;",
    "alternate_name": "Benzene, 1-chloro-4-iodo-;1-Chloro-4-iodobenzene;<em>p</em>-Chloroiodobenzene;<em>p</em>-Iodochlorobenzene;4-Chloroiodobenzene;4-Iodochlorobenzene;4-Chloro-1-iodobenzene;<em>p</em>-Iodophenyl chloride;<em>p</em>-Chlorophenyl iodide;4-Chlorophenyl iodide;NSC 32862;4-Iodo-1-chlorobenzene",
    "duplicated_cas_no": "",
    "SMILES": "ClC1=CC=C(I)C=C1",
    "meta_data": {
        "InChI": "InChI=1S/C6H4ClI/c7-5-1-3-6(8)4-2-5/h1-4H",
        "InChIKey": null,
        "Canonical SMILES": "ClC1=CC=C(I)C=C1",
        "Molecular Formula": "C<sub>6</sub>H<sub>4</sub>ClI",
        "Molecular Mass": "238.45",
        "Boiling Point": "227 °C",
        "Melting Point": "57 °C"
    }
}