{
    "cas_no": "98534-81-7",
    "key_name": "1-Phenyl-5-(trifluoromethyl)-1<em>H</em>-pyrazole-4-carboxylic acid",
    "cn_name": "1-苯基-5-三氟甲基-1H-吡唑-4-羧酸;",
    "alternate_name": "1<em>H</em>-Pyrazole-4-carboxylic acid, 1-phenyl-5-(trifluoromethyl)-;1-Phenyl-5-(trifluoromethyl)-1<em>H</em>-pyrazole-4-carboxylic acid;1-Phenyl-5-trifluoromethyl-1<em>H</em>-pyrazole-4-carboxylic acid;1-Phenyl-5-trifluoromethylpyrazole-4-carboxylic acid",
    "duplicated_cas_no": "",
    "SMILES": "C(F)(F)(F)C=1N(N=CC1C(O)=O)C2=CC=CC=C2",
    "meta_data": {
        "InChI": "InChI=1S/C11H7F3N2O2/c12-11(13,14)9-8(10(17)18)6-15-16(9)7-4-2-1-3-5-7/h1-6H,(H,17,18)",
        "InChIKey": null,
        "Canonical SMILES": "O=C(O)C=1C=NN(C=2C=CC=CC2)C1C(F)(F)F",
        "Molecular Formula": "C<sub>11</sub>H<sub>7</sub>F<sub>3</sub>N<sub>2</sub>O<sub>2</sub>",
        "Molecular Mass": "256.18",
        "Melting Point": "132-134 °C"
    }
}