{
    "cas_no": "104863-67-4",
    "key_name": "2,2,2-Trifluoro-<em>N</em>-methoxy-<em>N</em>-methylacetamide",
    "cn_name": "N-甲氧基-N-甲基-2,2,2-三氟乙酰胺;",
    "alternate_name": "Acetamide, 2,2,2-trifluoro-<em>N</em>-methoxy-<em>N</em>-methyl-;2,2,2-Trifluoro-<em>N</em>-methoxy-<em>N</em>-methylacetamide;<em>N</em>-Methoxy-<em>N</em>-methyltrifluoroacetamide;<em>N</em>-Methyl-<em>N</em>-methoxytrifluoroacetamide",
    "duplicated_cas_no": "2229672-92-6",
    "SMILES": "C(C(F)(F)F)(N(OC)C)=O",
    "meta_data": {
        "InChI": "InChI=1S/C4H6F3NO2/c1-8(10-2)3(9)4(5,6)7/h1-2H3",
        "InChIKey": null,
        "Canonical SMILES": "O=C(N(OC)C)C(F)(F)F",
        "Molecular Formula": "C<sub>4</sub>H<sub>6</sub>F<sub>3</sub>NO<sub>2</sub>",
        "Molecular Mass": "157.09",
        "Boiling Point": "52 °C @ Press: 30 Torr"
    }
}