{
    "cas_no": "6967-12-0",
    "key_name": "1<em>H</em>-Indazol-6-amine",
    "cn_name": "6-氨基吲唑;",
    "alternate_name": "1<em>H</em>-Indazol-6-amine;1<em>H</em>-Indazole, 6-amino-;6-Aminoindazole;6-Amino-1<em>H</em>-indazole;6-Indazolamine;NSC 208700;NSC 68265;1<em>H</em>-Indazol-6-ylamine",
    "duplicated_cas_no": "",
    "SMILES": "NC=1C=C2C(=CC1)C=NN2",
    "meta_data": {
        "InChI": "InChI=1S/C7H7N3/c8-6-2-1-5-4-9-10-7(5)3-6/h1-4H,8H2,(H,9,10)",
        "InChIKey": null,
        "Canonical SMILES": "N1=CC=2C=CC(N)=CC2N1",
        "Molecular Formula": "C<sub>7</sub>H<sub>7</sub>N<sub>3</sub>",
        "Molecular Mass": "133.15",
        "Melting Point": "207-208 °C"
    }
}