{
    "cas_no": "86-57-7",
    "key_name": "1-Nitronaphthalene",
    "cn_name": "1-硝基萘;alpha-硝基萘;",
    "alternate_name": "Naphthalene, 1-nitro-;1-Nitronaphthalene;α-Nitronaphthalene;Nitrol (pesticide);Nitrol;NSC 9584;1-Nitronaphthaline",
    "duplicated_cas_no": "",
    "SMILES": "N(=O)(=O)C=1C2=C(C=CC1)C=CC=C2",
    "meta_data": {
        "InChI": "InChI=1S/C10H7NO2/c12-11(13)10-7-3-5-8-4-1-2-6-9(8)10/h1-7H",
        "InChIKey": null,
        "Canonical SMILES": "O=N(=O)C1=CC=CC=2C=CC=CC21",
        "Molecular Formula": "C<sub>10</sub>H<sub>7</sub>NO<sub>2</sub>",
        "Molecular Mass": "173.17",
        "Boiling Point": "304 °C",
        "Melting Point": "61 °C",
        "Density": "1.332 g/cm³ @ Temp: 20 °C"
    }
}