{
    "cas_no": "23972-41-0",
    "key_name": "2-Phenylmorpholine",
    "cn_name": null,
    "alternate_name": "Morpholine, 2-phenyl-;2-Phenylmorpholine;1448CERM",
    "duplicated_cas_no": "",
    "SMILES": "C1(=CC=CC=C1)C2CNCCO2",
    "meta_data": {
        "InChI": "InChI=1S/C10H13NO/c1-2-4-9(5-3-1)10-8-11-6-7-12-10/h1-5,10-11H,6-8H2",
        "InChIKey": null,
        "Canonical SMILES": "O1CCNCC1C=2C=CC=CC2",
        "Molecular Formula": "C<sub>10</sub>H<sub>13</sub>NO",
        "Molecular Mass": "163.22",
        "Boiling Point": "145 °C @ Press: 14 Torr"
    }
}