{
    "cas_no": "54-95-5",
    "key_name": "Pentylenetetrazole",
    "cn_name": "戊四唑;1,5-五亚甲基-1H-四唑;6,7,8,9-四氢-5H-四唑并氮杂卓;戊撑四唑;戊四氮;五甲烯四氮唑;",
    "alternate_name": "5<em>H</em>-Tetrazolo[1,5-<em>a</em>]azepine, 6,7,8,9-tetrahydro-;6,7,8,9-Tetrahydro-5<em>H</em>-tetrazolo[1,5-<em>a</em>]azepine;Cardiazol;Cardiazole;Cenazol;Cerebro-nicin;Coranormol;Corasol;Corazol;Corazole;Cortis;Delzol W;Deumacard;Gewazol;Leptazol;Metrazol;Metrazole;Pentamethylenetetrazole;1,5-Pentamethylenetetrazole;Pentetrazol;Pentetrazole;Pentrazol;Pentrolone;Pentylenetetrazol;Pentylenetetrazole;Phrenazol;PTZ;Tetracor;6,7,8,9-Tetrahydro-5<em>H</em>-tetrazoloazepine;7,8,9,10-Tetrazabicyclo[5.3.0]-8,10-decadiene;1,2,3,3a-Tetrazacyclohepta-8a,2-cyclopentadiene;Ventrazol;Corazole (analeptic);Tetrazole, (1,5-pentanediyl)-;α,β-Cyclopentamethylenetetrazole;Cenalene M;Corvasol;Korazole;Corsedrol;Korazol;Leptazole;Tetrazol;Angiazol;Pentazol;Cardiol;Yetrazol;Corisan;Pentrozol;Coranormal;NSC 5729;NSC 66489;Pentavet;MeSH ID: D010433",
    "duplicated_cas_no": "",
    "SMILES": "C=12N(N=NN1)CCCCC2",
    "meta_data": {
        "InChI": "InChI=1S/C6H10N4/c1-2-4-6-7-8-9-10(6)5-3-1/h1-5H2",
        "InChIKey": null,
        "Canonical SMILES": "N=1N=C2N(N1)CCCCC2",
        "Molecular Formula": "C<sub>6</sub>H<sub>10</sub>N<sub>4</sub>",
        "Molecular Mass": "138.17",
        "Boiling Point": "140 °C @ Press: 6 Torr",
        "Melting Point": "59.5 °C"
    }
}