{
    "cas_no": "4495-66-3",
    "key_name": "1-[4-(Phenylmethoxy)phenyl]-1-propanone",
    "cn_name": "4-苄氧基苯丙酮;(4-苄氧苯基)乙基酮;",
    "alternate_name": "1-Propanone, 1-[4-(phenylmethoxy)phenyl]-;Propiophenone, 4′-(benzyloxy)-;1-[4-(Phenylmethoxy)phenyl]-1-propanone;<em>p</em>-Benzyloxypropiophenone;4′-(Benzyloxy)propiophenone;NSC 41188;1-(4-Benzyloxyphenyl)propan-1-one",
    "duplicated_cas_no": "",
    "SMILES": "C(CC)(=O)C1=CC=C(OCC2=CC=CC=C2)C=C1",
    "meta_data": {
        "InChI": "InChI=1S/C16H16O2/c1-2-16(17)14-8-10-15(11-9-14)18-12-13-6-4-3-5-7-13/h3-11H,2,12H2,1H3",
        "InChIKey": null,
        "Canonical SMILES": "O=C(C1=CC=C(OCC=2C=CC=CC2)C=C1)CC",
        "Molecular Formula": "C<sub>16</sub>H<sub>16</sub>O<sub>2</sub>",
        "Molecular Mass": "240.30",
        "Melting Point": "101 °C"
    }
}