{
    "cas_no": "4906-24-5",
    "key_name": "Acetoin acetate",
    "cn_name": "3-乙酰基-2-丁酮;",
    "alternate_name": "2-Butanone, 3-(acetyloxy)-;2-Butanone, 3-hydroxy-, acetate;3-(Acetyloxy)-2-butanone;3-Acetoxy-2-butanone;Acetoin acetate;3-Acetyloxy-2-butanone;Acetic acid 1-methyl-2-oxopropyl ester;2-Acetoxy-3-butanone;3-Oxobutan-2-yl acetate",
    "duplicated_cas_no": "",
    "SMILES": "C(OC(C)=O)(C(C)=O)C",
    "meta_data": {
        "InChI": "InChI=1S/C6H10O3/c1-4(7)5(2)9-6(3)8/h5H,1-3H3",
        "InChIKey": null,
        "Canonical SMILES": "O=C(OC(C(=O)C)C)C",
        "Molecular Formula": "C<sub>6</sub>H<sub>10</sub>O<sub>3</sub>",
        "Molecular Mass": "130.14",
        "Boiling Point": "56 °C @ Press: 10 Torr",
        "Density": "1.0258 g/cm³ @ Temp: 20 °C"
    }
}