{
    "cas_no": "14328-51-9",
    "key_name": "(α<em>S</em>)-α-Aminocyclohexaneacetic acid",
    "cn_name": "L-环己基甘氨酸;",
    "alternate_name": "Cyclohexaneacetic acid, α-amino-, (α<em>S</em>)-;Cyclohexaneacetic acid, α-amino-, <span class=\"text-smallcaps\">L</span>-;Cyclohexaneacetic acid, α-amino-, (<em>S</em>)-;(α<em>S</em>)-α-Aminocyclohexaneacetic acid;<span class=\"text-smallcaps\">L</span>-α-Cyclohexylglycine;(<em>S</em>)-2-Amino-2-cyclohexylacetic acid;(2<em>S</em>)-2-Amino-2-cyclohexylethanoic acid;<span class=\"text-smallcaps\">L</span>-Cyclohexylglycine;(2S)-2-Amino-2-cyclohexylacetic acid",
    "duplicated_cas_no": "",
    "SMILES": "[C@H](C(O)=O)(N)C1CCCCC1",
    "meta_data": {
        "InChI": "InChI=1S/C8H15NO2/c9-7(8(10)11)6-4-2-1-3-5-6/h6-7H,1-5,9H2,(H,10,11)/t7-/m0/s1",
        "InChIKey": null,
        "Canonical SMILES": "O=C(O)C(N)C1CCCCC1",
        "Molecular Formula": "C<sub>8</sub>H<sub>15</sub>NO<sub>2</sub>",
        "Molecular Mass": "157.21",
        "Melting Point": "255 °C (decomp)"
    }
}