{
    "cas_no": "51-39-8",
    "key_name": "3,4,5-Trichlorobenzoic acid",
    "cn_name": "吡啶-2-乙酰胺;",
    "alternate_name": "Benzoic acid, 3,4,5-trichloro-;3,4,5-Trichlorobenzoic acid",
    "duplicated_cas_no": "",
    "SMILES": "C(O)(=O)C1=CC(Cl)=C(Cl)C(Cl)=C1",
    "meta_data": {
        "InChI": "InChI=1S/C7H3Cl3O2/c8-4-1-3(7(11)12)2-5(9)6(4)10/h1-2H,(H,11,12)",
        "InChIKey": null,
        "Canonical SMILES": "O=C(O)C1=CC(Cl)=C(Cl)C(Cl)=C1",
        "Molecular Formula": "C<sub>7</sub>H<sub>3</sub>Cl<sub>3</sub>O<sub>2</sub>",
        "Molecular Mass": "225.46",
        "Melting Point": "210-210.5 °C"
    }
}