{
    "cas_no": "92950-42-0",
    "key_name": "(2a<em>R</em>,4<em>S</em>,4a<em>S</em>,6<em>R</em>,11<em>S</em>,12<em>S</em>,12a<em>R</em>,12b<em>S</em>)-12b-(Acetyloxy)-12-(benzoyloxy)-2a,4,4a,10,11,12,12a,12b-octahydro-4,6,11-trihydroxy-4a,8,13,13-tetramethyl-7,11-methano-1<em>H</em>-cyclodeca[3,4]benz[1,2-<em>b</em>]oxete-5,9(3<em>H</em>,6<em>H</em>)-dione",
    "cn_name": null,
    "alternate_name": "7,11-Methano-1<em>H</em>-cyclodeca[3,4]benz[1,2-<em>b</em>]oxete-5,9(3<em>H</em>,6<em>H</em>)-dione, 12b-(acetyloxy)-12-(benzoyloxy)-2a,4,4a,10,11,12,12a,12b-octahydro-4,6,11-trihydroxy-4a,8,13,13-tetramethyl-, (2a<em>R</em>,4<em>S</em>,4a<em>S</em>,6<em>R</em>,11<em>S</em>,12<em>S</em>,12a<em>R</em>,12b<em>S</em>)-;7,11-Methano-1<em>H</em>-cyclodeca[3,4]benz[1,2-<em>b</em>]oxete-5,9(3<em>H</em>,6<em>H</em>)-dione, 12b-(acetyloxy)-12-(benzoyloxy)-2a,4,4a,10,11,12,12a,12b-octahydro-4,6,11-trihydroxy-4a,8,13,13-tetramethyl-, [2a<em>R</em>-(2aα,4β,4aβ,6β,11α,12α,12aα,12bα)]-;(2a<em>R</em>,4<em>S</em>,4a<em>S</em>,6<em>R</em>,11<em>S</em>,12<em>S</em>,12a<em>R</em>,12b<em>S</em>)-12b-(Acetyloxy)-12-(benzoyloxy)-2a,4,4a,10,11,12,12a,12b-octahydro-4,6,11-trihydroxy-4a,8,13,13-tetramethyl-7,11-methano-1<em>H</em>-cyclodeca[3,4]benz[1,2-<em>b</em>]oxete-5,9(3<em>H</em>,6<em>H</em>)-dione;10-Deacetyl-13-oxobaccatin III",
    "duplicated_cas_no": "",
    "SMILES": "O(C(C)=O)[C@]12[C@]3([C@H](OC(=O)C4=CC=CC=C4)[C@@]5(O)C(C)(C)C([C@@H](O)C(=O)[C@]3(C)[C@@H](O)C[C@]1(OC2)[H])=C(C)C(=O)C5)[H]",
    "meta_data": {
        "InChI": "InChI=1S/C29H34O10/c1-14-17(31)12-29(36)24(38-25(35)16-9-7-6-8-10-16)22-27(5,23(34)21(33)20(14)26(29,3)4)18(32)11-19-28(22,13-37-19)39-15(2)30/h6-10,18-19,21-22,24,32-33,36H,11-13H2,1-5H3/t18-,19+,21+,22-,24-,27+,28-,29+/m0/s1",
        "InChIKey": null,
        "Canonical SMILES": "O=C(OC1C2C3(OC(=O)C)COC3CC(O)C2(C(=O)C(O)C4=C(C(=O)CC1(O)C4(C)C)C)C)C=5C=CC=CC5",
        "Molecular Formula": "C<sub>29</sub>H<sub>34</sub>O<sub>10</sub>",
        "Molecular Mass": "542.57",
        "Melting Point": "205-207 °C"
    }
}