{
    "cas_no": "2372-82-9",
    "key_name": "<em>N</em>,<em>N</em>-Bis(3-aminopropyl)dodecylamine",
    "cn_name": "N-(3-氨基丙基)-N-十二烷基-1,3-丙二胺;",
    "alternate_name": "1,3-Propanediamine, <em>N</em><sup>1</sup>-(3-aminopropyl)-<em>N</em><sup>1</sup>-dodecyl-;Dodecylamine, <em>N</em>,<em>N</em>-bis(3-aminopropyl)-;1,3-Propanediamine, <em>N</em>-(3-aminopropyl)-<em>N</em>-dodecyl-;<em>N</em><sup>1</sup>-(3-Aminopropyl)-<em>N</em><sup>1</sup>-dodecyl-1,3-propanediamine;RC 5637;<em>N</em>,<em>N</em>-Bis(3-aminopropyl)laurylamine;Lonzabac 12;Lonzabac 1230;Triameen Y 12;Lonzabac 12.100;<em>N</em>,<em>N</em>-Bis(3-aminopropyl)dodecylamine;Triameen Y 12D;Triamine Y 12D;Mistral;Lonzabac 12.30;Grotan BA 21;Bis(3-aminopropyl)dodecylamine;Lauryl imino-bis-propylamine",
    "duplicated_cas_no": "",
    "SMILES": "N(CCCCCCCCCCCC)(CCCN)CCCN",
    "meta_data": {
        "InChI": "InChI=1S/C18H41N3/c1-2-3-4-5-6-7-8-9-10-11-16-21(17-12-14-19)18-13-15-20/h2-20H2,1H3",
        "InChIKey": null,
        "Canonical SMILES": "NCCCN(CCCN)CCCCCCCCCCCC",
        "Molecular Formula": "C<sub>18</sub>H<sub>41</sub>N<sub>3</sub>",
        "Molecular Mass": "299.54",
        "Boiling Point": "182-184 °C @ Press: 1 Torr"
    }
}