{
    "cas_no": "150-59-4",
    "key_name": "Alverine",
    "cn_name": "阿尔维林;N-乙基-N-(3-苯丙基)苯丙胺;",
    "alternate_name": "Benzenepropanamine, <em>N</em>-ethyl-<em>N</em>-(3-phenylpropyl)-;Dipropylamine, <em>N</em>-ethyl-3,3′-diphenyl-;<em>N</em>-Ethyl-<em>N</em>-(3-phenylpropyl)benzenepropanamine;Alverine;Bis(γ-phenylpropyl)ethylamine;Dipropylin;Dipropyline;Phenopropamine;Profenil;Sestron;Sestron base;Phenpropamine",
    "duplicated_cas_no": "",
    "SMILES": "C(CCN(CCCC1=CC=CC=C1)CC)C2=CC=CC=C2",
    "meta_data": {
        "InChI": "InChI=1S/C20H27N/c1-2-21(17-9-15-19-11-5-3-6-12-19)18-10-16-20-13-7-4-8-14-20/h3-8,11-14H,2,9-10,15-18H2,1H3",
        "InChIKey": null,
        "Canonical SMILES": "C=1C=CC(=CC1)CCCN(CC)CCCC=2C=CC=CC2",
        "Molecular Formula": "C<sub>20</sub>H<sub>27</sub>N",
        "Molecular Mass": "281.44",
        "Boiling Point": "165-168 °C @ Press: 0.3 Torr",
        "Melting Point": "&lt;25 °C"
    }
}