{
    "cas_no": "13475-82-6",
    "key_name": "2,2,4,6,6-Pentamethylheptane",
    "cn_name": "2,2,4,6,6-五甲基庚烷;",
    "alternate_name": "Heptane, 2,2,4,6,6-pentamethyl-;2,2,4,6,6-Pentamethylheptane;Marukazol R;Daphne Alpha Cleaner MX",
    "duplicated_cas_no": "132702-84-2",
    "SMILES": "C(C(C)(C)C)C(CC(C)(C)C)C",
    "meta_data": {
        "InChI": "InChI=1S/C12H26/c1-10(8-11(2,3)4)9-12(5,6)7/h10H,8-9H2,1-7H3",
        "InChIKey": null,
        "Canonical SMILES": "CC(CC(C)(C)C)CC(C)(C)C",
        "Molecular Formula": "C<sub>12</sub>H<sub>26</sub>",
        "Molecular Mass": "170.33",
        "Boiling Point": "177.8 °C",
        "Melting Point": "-67 °C",
        "Density": "0.7487 g/cm³ @ Temp: 20 °C"
    }
}