{
    "cas_no": "129101-54-8",
    "key_name": "Rivastigmine tartrate",
    "cn_name": "酒石酸卡巴拉汀;(S)-N-乙基-N-甲基氨基甲酸-3-[(1-二甲氨基)乙基]苯酯酒石酸盐;",
    "alternate_name": "Carbamic acid, <em>N</em>-ethyl-<em>N</em>-methyl-, 3-[(1<em>S</em>)-1-(dimethylamino)ethyl]phenyl ester, (2<em>R</em>,3<em>R</em>)-2,3-dihydroxybutanedioate (1:1);Carbamic acid, ethylmethyl-, 3-[1-(dimethylamino)ethyl]phenyl ester, (<em>S</em>)-, [<em>R</em>-(<em>R</em>*,<em>R</em>*)]-2,3-dihydroxybutanedioate (1:1);Carbamic acid, ethylmethyl-, 3-[(1<em>S</em>)-1-(dimethylamino)ethyl]phenyl ester, (2<em>R</em>,3<em>R</em>)-2,3-dihydroxybutanedioate (1:1);SDZ-ENA 713;ENA 713;Rivastigmine hydrogentartrate;Rivastigmine tartrate;rivastigmine bitartrate",
    "duplicated_cas_no": "123441-04-3",
    "SMILES": "O(C(N(CC)C)=O)C1=CC([C@@H](N(C)C)C)=CC=C1.[C@@H]([C@H](C(O)=O)O)(C(O)=O)O",
    "meta_data": {
        "InChI": "InChI=1S/C14H22N2O2.C4H6O6/c1-6-16(5)14(17)18-13-9-7-8-12(10-13)11(2)15(3)4;5-1(3(7)8)2(6)4(9)10/h7-11H,6H2,1-5H3;1-2,5-6H,(H,7,8)(H,9,10)/t11-;1-,2-/m01/s1",
        "InChIKey": null,
        "Canonical SMILES": "O=C(O)C(O)C(O)C(=O)O.O=C(OC1=CC=CC(=C1)C(N(C)C)C)N(C)CC",
        "Molecular Formula": "C<sub>14</sub>H<sub>22</sub>N<sub>2</sub>O<sub>2</sub>.C<sub>4</sub>H<sub>6</sub>O<sub>6</sub>",
        "Molecular Mass": "",
        "Melting Point": "123-124 °C"
    }
}