{
    "cas_no": "495-31-8",
    "key_name": "Nodakenin",
    "cn_name": "紫花前胡苷;含紫花前胡甙;",
    "alternate_name": "7<em>H</em>-Furo[3,2-<em>g</em>][1]benzopyran-7-one, 2-[1-(β-<span class=\"text-smallcaps\">D</span>-glucopyranosyloxy)-1-methylethyl]-2,3-dihydro-, (2<em>R</em>)-;Nodakenin;7<em>H</em>-Furo[3,2-<em>g</em>][1]benzopyran-7-one, 2-[1-(β-<span class=\"text-smallcaps\">D</span>-glucopyranosyloxy)-1-methylethyl]-2,3-dihydro-, (<em>R</em>)-;(2<em>R</em>)-2-[1-(β-<span class=\"text-smallcaps\">D</span>-Glucopyranosyloxy)-1-methylethyl]-2,3-dihydro-7<em>H</em>-furo[3,2-<em>g</em>][1]benzopyran-7-one;Nodakenetin, β-<span class=\"text-smallcaps\">D</span>-glucopyranoside;(+)-Marmesinin",
    "duplicated_cas_no": "",
    "SMILES": "[C@@](O[C@@H]1O[C@H](CO)[C@@H](O)[C@H](O)[C@H]1O)(C)(C)[C@H]2CC=3C(=CC4=C(C3)C=CC(=O)O4)O2",
    "meta_data": {
        "InChI": "InChI=1S/C20H24O9/c1-20(2,29-19-18(25)17(24)16(23)13(8-21)28-19)14-6-10-5-9-3-4-15(22)27-11(9)7-12(10)26-14/h3-5,7,13-14,16-19,21,23-25H,6,8H2,1-2H3/t13-,14-,16-,17+,18-,19+/m1/s1",
        "InChIKey": null,
        "Canonical SMILES": "O=C1OC=2C=C3OC(CC3=CC2C=C1)C(OC4OC(CO)C(O)C(O)C4O)(C)C",
        "Molecular Formula": "C<sub>20</sub>H<sub>24</sub>O<sub>9</sub>",
        "Molecular Mass": "408.40",
        "Melting Point": "218 °C (decomp)"
    }
}