{
    "cas_no": "327-78-6",
    "key_name": "4-Chloro-3-(trifluoromethyl)phenyl isocyanate",
    "cn_name": "4-氯-3-三氟甲基异氰酸苯酯;4-氯-3-三氟甲苯异氰酸酯;",
    "alternate_name": "Benzene, 1-chloro-4-isocyanato-2-(trifluoromethyl)-;Isocyanic acid, 4-chloro-α,α,α-trifluoro-<em>m</em>-tolyl ester;1-Chloro-4-isocyanato-2-(trifluoromethyl)benzene;4-Chloro-3-(trifluoromethyl)phenyl isocyanate;3-Trifluoromethyl-4-chlorophenyl isocyanate;4-Chloro-α,α,α-trifluoro-<em>m</em>-tolyl isocyanate;4-Chloro-1-isocyanato-3-trifluoromethylbenzene",
    "duplicated_cas_no": "",
    "SMILES": "C(F)(F)(F)C1=CC(N=C=O)=CC=C1Cl",
    "meta_data": {
        "InChI": "InChI=1S/C8H3ClF3NO/c9-7-2-1-5(13-4-14)3-6(7)8(10,11)12/h1-3H",
        "InChIKey": null,
        "Canonical SMILES": "O=C=NC1=CC=C(Cl)C(=C1)C(F)(F)F",
        "Molecular Formula": "C<sub>8</sub>H<sub>3</sub>ClF<sub>3</sub>NO",
        "Molecular Mass": "221.56",
        "Boiling Point": "86-89 °C @ Press: 14 Torr"
    }
}