{
    "cas_no": "84547-87-5",
    "key_name": "4-Chloro-1<em>H</em>-pyrazole-3-carboxylic acid",
    "cn_name": null,
    "alternate_name": "1<em>H</em>-Pyrazole-3-carboxylic acid, 4-chloro-;4-Chloro-1<em>H</em>-pyrazole-3-carboxylic acid;4-Chloro-3-pyrazolecarboxylic acid",
    "duplicated_cas_no": "",
    "SMILES": "C(O)(=O)C=1C(Cl)=CNN1",
    "meta_data": {
        "InChI": "InChI=1S/C4H3ClN2O2/c5-2-1-6-7-3(2)4(8)9/h1H,(H,6,7)(H,8,9)",
        "InChIKey": null,
        "Canonical SMILES": "O=C(O)C1=NNC=C1Cl",
        "Molecular Formula": "C<sub>4</sub>H<sub>3</sub>ClN<sub>2</sub>O<sub>2</sub>",
        "Molecular Mass": "146.53",
        "Melting Point": "250 °C"
    }
}