{
    "cas_no": "3585-49-7",
    "key_name": "2-(4-<em>n</em>-Butylphenyl)propionic acid",
    "cn_name": null,
    "alternate_name": "Benzeneacetic acid, 4-butyl-α-methyl-;Hydratropic acid, <em>p</em>-butyl-;4-Butyl-α-methylbenzeneacetic acid;<em>p</em>-Butylhydratropic acid;2-(<em>p</em>-Butylphenyl)propionic acid;2-(4-<em>n</em>-Butylphenyl)propionic acid;2-(4-Butylphenyl)propanoic acid",
    "duplicated_cas_no": "",
    "SMILES": "C(C(O)=O)(C)C1=CC=C(CCCC)C=C1",
    "meta_data": {
        "InChI": "InChI=1S/C13H18O2/c1-3-4-5-11-6-8-12(9-7-11)10(2)13(14)15/h6-10H,3-5H2,1-2H3,(H,14,15)",
        "InChIKey": null,
        "Canonical SMILES": "O=C(O)C(C1=CC=C(C=C1)CCCC)C",
        "Molecular Formula": "C<sub>13</sub>H<sub>18</sub>O<sub>2</sub>",
        "Molecular Mass": "206.28",
        "Boiling Point": "143 °C @ Press: 0.5 Torr"
    }
}