{
    "cas_no": "21606-04-2",
    "key_name": "1-Methyl 3-nitro-1,2-benzenedicarboxylate",
    "cn_name": "3-硝基-2-羧基苯甲酸甲酯;",
    "alternate_name": "1,2-Benzenedicarboxylic acid, 3-nitro-, 1-methyl ester;Phthalic acid, 3-nitro-, 1-methyl ester;1-Methyl 3-nitro-1,2-benzenedicarboxylate;1-Methyl 3-nitrophthalate;2-Methoxycarbonyl-6-nitrobenzoic acid;Methyl 2-carboxy-3-nitrobenzoate",
    "duplicated_cas_no": "",
    "SMILES": "C(O)(=O)C1=C(C(OC)=O)C=CC=C1N(=O)=O",
    "meta_data": {
        "InChI": "InChI=1S/C9H7NO6/c1-16-9(13)5-3-2-4-6(10(14)15)7(5)8(11)12/h2-4H,1H3,(H,11,12)",
        "InChIKey": null,
        "Canonical SMILES": "O=C(O)C=1C(=CC=CC1N(=O)=O)C(=O)OC",
        "Molecular Formula": "C<sub>9</sub>H<sub>7</sub>NO<sub>6</sub>",
        "Molecular Mass": "225.15",
        "Melting Point": "166-167 °C"
    }
}