{
    "cas_no": "538-93-2",
    "key_name": "Isobutylbenzene",
    "cn_name": "异丁基苯;2-甲基丙基苯;2-甲基-1-苯基丙烷;",
    "alternate_name": "Benzene, (2-methylpropyl)-;Benzene, isobutyl-;(2-Methylpropyl)benzene;Isobutylbenzene;2-Methyl-1-phenylpropane;<em>iso</em>-Butylbenzene;NSC 24848;<em>i</em>-Butylbenzene",
    "duplicated_cas_no": "",
    "SMILES": "C(C(C)C)C1=CC=CC=C1",
    "meta_data": {
        "InChI": "InChI=1S/C10H14/c1-9(2)8-10-6-4-3-5-7-10/h3-7,9H,8H2,1-2H3",
        "InChIKey": null,
        "Canonical SMILES": "C=1C=CC(=CC1)CC(C)C",
        "Molecular Formula": "C<sub>10</sub>H<sub>14</sub>",
        "Molecular Mass": "134.22",
        "Boiling Point": "172.7 °C",
        "Melting Point": "-51.4 °C",
        "Density": "0.8540 g/cm³ @ Temp: 20 °C"
    }
}