{
    "cas_no": "64067-99-8",
    "key_name": "Imidazo[1,2-<em>b</em>]pyridazine-2-carboxylic acid, 6-chloro-, ethyl ester",
    "cn_name": null,
    "alternate_name": "Imidazo[1,2-<em>b</em>]pyridazine-2-carboxylic acid, 6-chloro-, ethyl ester;Ethyl 6-chloroimidazo[1,2-<em>b</em>]pyridazine-2-carboxylate;6-Chloroimidazo[1,2-<em>b</em>]pyridazine-2-carboxylic acid ethyl ester",
    "duplicated_cas_no": "",
    "SMILES": "C(OCC)(=O)C1=CN2C(=N1)C=CC(Cl)=N2",
    "meta_data": {
        "InChI": "InChI=1S/C9H8ClN3O2/c1-2-15-9(14)6-5-13-8(11-6)4-3-7(10)12-13/h3-5H,2H2,1H3",
        "InChIKey": null,
        "Canonical SMILES": "O=C(OCC)C=1N=C2C=CC(Cl)=NN2C1",
        "Molecular Formula": "C<sub>9</sub>H<sub>8</sub>ClN<sub>3</sub>O<sub>2</sub>",
        "Molecular Mass": "225.63",
        "Melting Point": "159-161 °C"
    }
}