{
    "cas_no": "60-70-8",
    "key_name": "Veratramine",
    "cn_name": "黎芦碱;",
    "alternate_name": "3-Piperidinol, 5-methyl-2-[(1<em>S</em>)-1-[(3<em>S</em>,6a<em>R</em>,11a<em>S</em>,11b<em>R</em>)-2,3,4,6,6a,11,11a,11b-octahydro-3-hydroxy-10,11b-dimethyl-1<em>H</em>-benzo[<em>a</em>]fluoren-9-yl]ethyl]-, (2<em>S</em>,3<em>R</em>,5<em>S</em>)-;Veratramine;Veratraman-3,23-diol, 14,15,16,17-tetradehydro-, (3β,23β)-;1<em>H</em>-Benzo[<em>a</em>]fluorene, veratraman-3,23-diol deriv.;(2<em>S</em>,3<em>R</em>,5<em>S</em>)-5-Methyl-2-[(1<em>S</em>)-1-[(3<em>S</em>,6a<em>R</em>,11a<em>S</em>,11b<em>R</em>)-2,3,4,6,6a,11,11a,11b-octahydro-3-hydroxy-10,11b-dimethyl-1<em>H</em>-benzo[<em>a</em>]fluoren-9-yl]ethyl]-3-piperidinol;NSC 17821;NSC 23880",
    "duplicated_cas_no": "10159-78-1",
    "SMILES": "C[C@@]12[C@@]3([C@](C=4C(C3)=C(C)C([C@H](C)[C@]5([C@H](O)C[C@H](C)CN5)[H])=CC4)(CC=C1C[C@@H](O)CC2)[H])[H]",
    "meta_data": {
        "InChI": "InChI=1S/C27H39NO2/c1-15-11-25(30)26(28-14-15)17(3)20-7-8-21-22-6-5-18-12-19(29)9-10-27(18,4)24(22)13-23(21)16(20)2/h5,7-8,15,17,19,22,24-26,28-30H,6,9-14H2,1-4H3/t15-,17-,19-,22-,24-,25+,26-,27-/m0/s1",
        "InChIKey": null,
        "Canonical SMILES": "OC1CC2=CCC3C4=CC=C(C(=C4CC3C2(C)CC1)C)C(C)C5NCC(C)CC5O",
        "Molecular Formula": "C<sub>27</sub>H<sub>39</sub>NO<sub>2</sub>",
        "Molecular Mass": "409.60",
        "Melting Point": "206 °C"
    }
}