{
    "cas_no": "14979-39-6",
    "key_name": "4-Methyl-3-heptanol",
    "cn_name": "4-甲基-3-庚醇;4-甲基-3-庚醇;4-甲基-3-庚醇, 赤式 +苏式;4-甲基-3-庚醇,赤式+苏式,99%;",
    "alternate_name": "3-Heptanol, 4-methyl-;4-Methyl-3-heptanol;NSC 93808",
    "duplicated_cas_no": "",
    "SMILES": "C(C(CC)O)(CCC)C",
    "meta_data": {
        "InChI": "InChI=1S/C8H18O/c1-4-6-7(3)8(9)5-2/h7-9H,4-6H2,1-3H3",
        "InChIKey": null,
        "Canonical SMILES": "OC(CC)C(C)CCC",
        "Molecular Formula": "C<sub>8</sub>H<sub>18</sub>O",
        "Molecular Mass": "130.23",
        "Boiling Point": "170 °C",
        "Melting Point": "-123 °C",
        "Density": "0.8268 g/cm³ @ Temp: 25 °C"
    }
}