{
    "cas_no": "536-80-1",
    "key_name": "Iodosylbenzene",
    "cn_name": null,
    "alternate_name": "Benzene, iodosyl-;Benzene, iodoso-;Iodosylbenzene;Iodosobenzene;NSC 406477",
    "duplicated_cas_no": "125509-11-7;1015765-81-7;1056742-46-1;1056743-13-5",
    "SMILES": "I(=O)C1=CC=CC=C1",
    "meta_data": {
        "InChI": "InChI=1S/C6H5IO/c8-7-6-4-2-1-3-5-6/h1-5H",
        "InChIKey": null,
        "Canonical SMILES": "O=IC=1C=CC=CC1",
        "Molecular Formula": "C<sub>6</sub>H<sub>5</sub>IO",
        "Molecular Mass": "220.01",
        "Melting Point": "210 °C (decomp)"
    }
}