{
    "cas_no": "836-42-0",
    "key_name": "4-Benzyloxybenzyl chloride",
    "cn_name": "4-苄氧基氯化苄;4-苄氧基氯苄;",
    "alternate_name": "Benzene, 1-(chloromethyl)-4-(phenylmethoxy)-;Ether, benzyl α-chloro-<em>p</em>-tolyl;1-(Chloromethyl)-4-(phenylmethoxy)benzene;<em>p</em>-(Benzyloxy)benzyl chloride;4-Benzyloxybenzyl chloride;1-(Benzyloxy)-4-(chloromethyl)benzene;NSC 131670;1-(Chloromethyl)-4-(benzyloxy)benzene",
    "duplicated_cas_no": "",
    "SMILES": "O(CC1=CC=CC=C1)C2=CC=C(CCl)C=C2",
    "meta_data": {
        "InChI": "InChI=1S/C14H13ClO/c15-10-12-6-8-14(9-7-12)16-11-13-4-2-1-3-5-13/h1-9H,10-11H2",
        "InChIKey": null,
        "Canonical SMILES": "ClCC1=CC=C(OCC=2C=CC=CC2)C=C1",
        "Molecular Formula": "C<sub>14</sub>H<sub>13</sub>ClO",
        "Molecular Mass": "232.71",
        "Melting Point": "76-78 °C"
    }
}