{
    "cas_no": "116-02-9",
    "key_name": "3,3,5-Trimethylcyclohexanol",
    "cn_name": "3,3,5-三甲基环己醇;",
    "alternate_name": "Cyclohexanol, 3,3,5-trimethyl-;3,3,5-Trimethylcyclohexanol;Cyclonol;1-Methyl-3-dimethyl-cyclohexanol-5;3,5,5-Trimethylcyclohexanol;NSC 4008",
    "duplicated_cas_no": "",
    "SMILES": "CC1(C)CC(C)CC(O)C1",
    "meta_data": {
        "InChI": "InChI=1S/C9H18O/c1-7-4-8(10)6-9(2,3)5-7/h7-8,10H,4-6H2,1-3H3",
        "InChIKey": null,
        "Canonical SMILES": "OC1CC(C)CC(C)(C)C1",
        "Molecular Formula": "C<sub>9</sub>H<sub>18</sub>O",
        "Molecular Mass": "142.24",
        "Boiling Point": "198 °C",
        "Melting Point": "37.0 °C",
        "Density": "0.878 g/cm³ @ Temp: 40 °C"
    }
}