{
    "cas_no": "3724-16-1",
    "key_name": "3-Pyridineacetamide",
    "cn_name": "吡啶-3-乙酰胺;",
    "alternate_name": "3-Pyridineacetamide;3-Pyridylacetamide;β-Pyridylethanamide;2-(Pyridin-3-yl)acetamide;2-(Pyridine-3-yl)-acetamide",
    "duplicated_cas_no": "",
    "SMILES": "C(C(N)=O)C=1C=CC=NC1",
    "meta_data": {
        "InChI": "InChI=1S/C7H8N2O/c8-7(10)4-6-2-1-3-9-5-6/h1-3,5H,4H2,(H2,8,10)",
        "InChIKey": null,
        "Canonical SMILES": "O=C(N)CC=1C=NC=CC1",
        "Molecular Formula": "C<sub>7</sub>H<sub>8</sub>N<sub>2</sub>O",
        "Molecular Mass": "136.15",
        "Melting Point": "123 °C"
    }
}