{
    "cas_no": "18156-74-6",
    "key_name": "(Trimethylsilyl)imidazole",
    "cn_name": "三甲基硅咪唑;",
    "alternate_name": "1<em>H</em>-Imidazole, 1-(trimethylsilyl)-;Imidazole, 1-(trimethylsilyl)-;1-(Trimethylsilyl)-1<em>H</em>-imidazole;<em>N</em>-(Trimethylsilyl)imidazole;(Trimethylsilyl)imidazole;<em>N</em>-(Trimethylsilyl)imidazol;1-(Trimethylsilyl)imidazole;TSIM;1-Imidazolyltrimethylsilane;Trimethylimidazosilane;TMSI;NSC 139860;<em>N</em>-(Trimethylsilyl)-1<em>H</em>-imidazole",
    "duplicated_cas_no": "150059-66-8",
    "SMILES": "[Si](C)(C)(C)N1C=CN=C1",
    "meta_data": {
        "InChI": "InChI=1S/C6H12N2Si/c1-9(2,3)8-5-4-7-6-8/h4-6H,1-3H3",
        "InChIKey": null,
        "Canonical SMILES": "N=1C=CN(C1)[Si](C)(C)C",
        "Molecular Formula": "C<sub>6</sub>H<sub>12</sub>N<sub>2</sub>Si",
        "Molecular Mass": "140.26",
        "Boiling Point": "99 °C @ Press: 14 Torr",
        "Melting Point": "105-106 °C",
        "Density": "0.956 g/cm³"
    }
}