{
    "cas_no": "446-34-4",
    "key_name": "2-Fluoro-4-methyl-1-nitrobenzene",
    "cn_name": "3-氟-4-硝基甲苯;",
    "alternate_name": "Benzene, 2-fluoro-4-methyl-1-nitro-;Toluene, 3-fluoro-4-nitro-;2-Fluoro-4-methyl-1-nitrobenzene;3-Fluoro-4-nitrotoluene;5-Methyl-2-nitrofluorobenzene;2-Fluoro-4-methylnitrobenzene;NSC 25756;<em>m</em>-Fluoro-<em>p</em>-nitrotoluene;4-Methyl-2-fluoro-1-nitrobenzene",
    "duplicated_cas_no": "",
    "SMILES": "N(=O)(=O)C1=C(F)C=C(C)C=C1",
    "meta_data": {
        "InChI": "InChI=1S/C7H6FNO2/c1-5-2-3-7(9(10)11)6(8)4-5/h2-4H,1H3",
        "InChIKey": null,
        "Canonical SMILES": "O=N(=O)C1=CC=C(C=C1F)C",
        "Molecular Formula": "C<sub>7</sub>H<sub>6</sub>FNO<sub>2</sub>",
        "Molecular Mass": "155.13",
        "Melting Point": "53.2 °C",
        "Density": "1.438 g/cm³ @ Temp: 25 °C"
    }
}