{
    "cas_no": "37934-89-7",
    "key_name": "4-Methoxy-2,6-dimethylbenzoic acid",
    "cn_name": null,
    "alternate_name": "Benzoic acid, 4-methoxy-2,6-dimethyl-;<em>p</em>-Anisic acid, 2,6-dimethyl-;4-Methoxy-2,6-dimethylbenzoic acid;2,6-Dimethyl-4-methoxybenzoic acid",
    "duplicated_cas_no": "",
    "SMILES": "C(O)(=O)C1=C(C)C=C(OC)C=C1C",
    "meta_data": {
        "InChI": "InChI=1S/C10H12O3/c1-6-4-8(13-3)5-7(2)9(6)10(11)12/h4-5H,1-3H3,(H,11,12)",
        "InChIKey": null,
        "Canonical SMILES": "O=C(O)C=1C(=CC(OC)=CC1C)C",
        "Molecular Formula": "C<sub>10</sub>H<sub>12</sub>O<sub>3</sub>",
        "Molecular Mass": "180.20",
        "Melting Point": "144.5-145 °C"
    }
}