{
    "cas_no": "150-13-0",
    "key_name": "4-Aminobenzoic acid",
    "cn_name": "对氨基苯甲酸;",
    "alternate_name": "Benzoic acid, 4-amino-;Benzoic acid, <em>p</em>-amino-;4-Aminobenzoic acid;Amben;<em>p</em>-Aminobenzoic acid;Anticanitic vitamin;Chromotrichia factor;<em>Anti</em>-Chromotrichia factor;PABA;Paraminol;Trichochromogenic factor;Vitamin B<sub>X</sub>;Vitamin H';<em>p</em>-Carboxyaniline;Paranate;<em>p</em>-Carboxyphenylamine;4-Carboxyaniline;PAB;Hachemina;Pabacyd;Pabafilm;Pabamine;Romavit;Aniline-4-carboxylic acid;Sunbrella;Antichromotrichia factor;Anticantic vitamin;Bacterial vitamin H<sub>1</sub>;NSC 7627;4-Carboxyphenylamine;Actipol;4-Aminobenzenecarboxylic acid;<em>p</em>-Aminobenzenecarboxylic acid;para-Aminobenzoates;MeSH ID: D062366;MeSH ID: D010129",
    "duplicated_cas_no": "8014-65-1",
    "SMILES": "C(O)(=O)C1=CC=C(N)C=C1",
    "meta_data": {
        "InChI": "InChI=1S/C7H7NO2/c8-6-3-1-5(2-4-6)7(9)10/h1-4H,8H2,(H,9,10)",
        "InChIKey": null,
        "Canonical SMILES": "O=C(O)C1=CC=C(N)C=C1",
        "Molecular Formula": "C<sub>7</sub>H<sub>7</sub>NO<sub>2</sub>",
        "Molecular Mass": "137.14",
        "Boiling Point": "200 °C @ Press: 10 Torr",
        "Melting Point": "188.5 °C"
    }
}