{
    "cas_no": "36457-58-6",
    "key_name": "1,1,1-Trifluoro-<em>N</em>-(phenylmethyl)methanesulfonamide",
    "cn_name": "N-苯基三氟甲磺酸甲胺;",
    "alternate_name": "Methanesulfonamide, 1,1,1-trifluoro-<em>N</em>-(phenylmethyl)-;1,1,1-Trifluoro-<em>N</em>-(phenylmethyl)methanesulfonamide;<em>N</em>-Benzyl-1,1,1-trifluoromethanesulfonamide;<em>N</em>-Benzyltrifluoromethanesulfonamide;<em>N</em>-Benzyltriflamide",
    "duplicated_cas_no": "1323552-04-0",
    "SMILES": "S(NCC1=CC=CC=C1)(C(F)(F)F)(=O)=O",
    "meta_data": {
        "InChI": "InChI=1S/C8H8F3NO2S/c9-8(10,11)15(13,14)12-6-7-4-2-1-3-5-7/h1-5,12H,6H2",
        "InChIKey": null,
        "Canonical SMILES": "O=S(=O)(NCC=1C=CC=CC1)C(F)(F)F",
        "Molecular Formula": "C<sub>8</sub>H<sub>8</sub>F<sub>3</sub>NO<sub>2</sub>S",
        "Molecular Mass": "239.21",
        "Melting Point": "43-44 °C"
    }
}