{
    "cas_no": "7288-11-1",
    "key_name": "Agatharesinol",
    "cn_name": null,
    "alternate_name": "4-Pentene-1,2-diol, 3,5-bis(4-hydroxyphenyl)-, (2<em>S</em>,3<em>S</em>,4<em>E</em>)-;4-Pentene-1,2-diol, 3,5-bis(<em>p</em>-hydroxyphenyl)-, (<em>E</em>)-(2<em>S</em>,3<em>S</em>)-;Agatharesinol;4-Pentene-1,2-diol, 3,5-bis(4-hydroxyphenyl)-, [<em>S</em>-[<em>R</em>*,<em>R</em>*-(<em>E</em>)]]-;(2<em>S</em>,3<em>S</em>,4<em>E</em>)-3,5-Bis(4-hydroxyphenyl)-4-pentene-1,2-diol",
    "duplicated_cas_no": "23248-82-0",
    "SMILES": "[C@@H](/C=C/C1=CC=C(O)C=C1)([C@@H](CO)O)C2=CC=C(O)C=C2",
    "meta_data": {
        "InChI": "InChI=1S/C17H18O4/c18-11-17(21)16(13-4-8-15(20)9-5-13)10-3-12-1-6-14(19)7-2-12/h1-10,16-21H,11H2/b10-3+/t16-,17+/m0/s1",
        "InChIKey": null,
        "Canonical SMILES": "OC1=CC=C(C=C1)C=CC(C2=CC=C(O)C=C2)C(O)CO",
        "Molecular Formula": "C<sub>17</sub>H<sub>18</sub>O<sub>4</sub>",
        "Molecular Mass": "286.32",
        "Melting Point": "105-116 °C"
    }
}