{
    "cas_no": "1126-79-0",
    "key_name": "Butyl phenyl ether",
    "cn_name": "丁氧基苯;苯基丁基醚;丁基苯基醚;",
    "alternate_name": "Benzene, butoxy-;Ether, butyl phenyl;Butoxybenzene;Butyl phenyl ether;Phenyl butyl ether;Butyloxybenzene;<em>n</em>-Butyl phenyl ether;Phenyl <em>n</em>-butyl ether;1-Phenoxybutane;NSC 8467",
    "duplicated_cas_no": "",
    "SMILES": "O(CCCC)C1=CC=CC=C1",
    "meta_data": {
        "InChI": "InChI=1S/C10H14O/c1-2-3-9-11-10-7-5-4-6-8-10/h4-8H,2-3,9H2,1H3",
        "InChIKey": null,
        "Canonical SMILES": "O(C=1C=CC=CC1)CCCC",
        "Molecular Formula": "C<sub>10</sub>H<sub>14</sub>O",
        "Molecular Mass": "150.22",
        "Boiling Point": "210 °C",
        "Melting Point": "-19.4 °C",
        "Density": "1.0057 g/cm³ @ Temp: 20 °C"
    }
}