{
    "cas_no": "29022-11-5",
    "key_name": "Fmoc-Gly-OH",
    "cn_name": "Fmoc-甘氨酸;芴甲氧羰基-甘氨酸;",
    "alternate_name": "Glycine, <em>N</em>-[(9<em>H</em>-fluoren-9-ylmethoxy)carbonyl]-;Glycine, <em>N</em>-carboxy-, <em>N</em>-(fluoren-9-ylmethyl) ester;Fluorene-9-methanol, <em>N</em>-ester with <em>N</em>-carboxyglycine;<em>N</em>-[(9<em>H</em>-Fluoren-9-ylmethoxy)carbonyl]glycine;<em>N</em>-(9-Fluorenylmethoxycarbonyl)glycine;Fmoc-Gly-OH;<em>N</em>-Fluorenylmethoxycarbonylglycine;NPC 14692;Fmoc glycine;NSC 334288;[[[(9<em>H</em>-Fluoren-9-yl)methoxy]carbonyl]amino]acetic acid;2-[[[(9<em>H</em>-Fluoren-9-yl)methoxy]carbonyl]amino]ethanoic acid;2-[[[(9<em>H</em>-Fluoren-9-yl)methoxy]carbonyl]amino]acetic acid",
    "duplicated_cas_no": "725247-20-1",
    "SMILES": "C(OC(NCC(O)=O)=O)C1C=2C(C=3C1=CC=CC3)=CC=CC2",
    "meta_data": {
        "InChI": "InChI=1S/C17H15NO4/c19-16(20)9-18-17(21)22-10-15-13-7-3-1-5-11(13)12-6-2-4-8-14(12)15/h1-8,15H,9-10H2,(H,18,21)(H,19,20)",
        "InChIKey": null,
        "Canonical SMILES": "O=C(OCC1C=2C=CC=CC2C=3C=CC=CC31)NCC(=O)O",
        "Molecular Formula": "C<sub>17</sub>H<sub>15</sub>NO<sub>4</sub>",
        "Molecular Mass": "297.31",
        "Melting Point": "174-176 °C"
    }
}