{
    "cas_no": "55418-52-5",
    "key_name": "Dulcinyl",
    "cn_name": "胡椒基丙酮;4-(3,4-亚甲基二氧苯基)-2-丁酮;",
    "alternate_name": "2-Butanone, 4-(1,3-benzodioxol-5-yl)-;2-Butanone, 4-[3,4-(methylenedioxy)phenyl]-;4-(1,3-Benzodioxol-5-yl)-2-butanone;4-(3,4-Methylenedioxyphenyl)-2-butanone;5-(3-Oxobutyl)-1,3-benzodioxole;Dulcinyl;NSC 405365;Cassione;Piperonyl acetone;4-(Benzo[<em>d</em>][1,3]dioxol-5-yl)butan-2-one",
    "duplicated_cas_no": "",
    "SMILES": "C(CC(C)=O)C=1C=C2C(=CC1)OCO2",
    "meta_data": {
        "InChI": "InChI=1S/C11H12O3/c1-8(12)2-3-9-4-5-10-11(6-9)14-7-13-10/h4-6H,2-3,7H2,1H3",
        "InChIKey": null,
        "Canonical SMILES": "O=C(C)CCC1=CC=C2OCOC2=C1",
        "Molecular Formula": "C<sub>11</sub>H<sub>12</sub>O<sub>3</sub>",
        "Molecular Mass": "192.21",
        "Boiling Point": "163 °C @ Press: 16 Torr",
        "Melting Point": "55 °C"
    }
}