{
    "cas_no": "18292-38-1",
    "key_name": "Methallyltrimethylsilane",
    "cn_name": null,
    "alternate_name": "Silane, trimethyl(2-methyl-2-propen-1-yl)-;Silane, trimethyl(2-methylallyl)-;Silane, trimethyl(2-methyl-2-propenyl)-;Trimethyl(2-methyl-2-propen-1-yl)silane;2-Methyl-1-(trimethylsilyl)-2-propene;Trimethyl(2-methylallyl)silane;2-Methyl-3-(trimethylsilyl)prop-1-ene;(2-Methylallyl)trimethylsilane;Methallyltrimethylsilane;(2-Methyl-2-propenyl)trimethylsilane;2-Methyl-3-(trimethylsilyl)propene;1-(Trimethylsilyl)-2-methyl-2-propene",
    "duplicated_cas_no": "",
    "SMILES": "C([Si](C)(C)C)C(C)=C",
    "meta_data": {
        "InChI": "InChI=1S/C7H16Si/c1-7(2)6-8(3,4)5/h1,6H2,2-5H3",
        "InChIKey": null,
        "Canonical SMILES": "C=C(C)C[Si](C)(C)C",
        "Molecular Formula": "C<sub>7</sub>H<sub>16</sub>Si",
        "Molecular Mass": "128.29",
        "Boiling Point": "112-114 °C",
        "Density": "0.754 g/cm³"
    }
}