{
    "cas_no": "17082-69-8",
    "key_name": "2-[2-(Trichlorosilyl)ethyl]pyridine",
    "cn_name": null,
    "alternate_name": "Pyridine, 2-[2-(trichlorosilyl)ethyl]-;2-[2-(Trichlorosilyl)ethyl]pyridine;(β-Trichlorosilyl-2-ethyl)pyridine;Trichloro(2-(2-pyridinyl)ethyl)silane;NSC 252167",
    "duplicated_cas_no": "",
    "SMILES": "C(C[Si](Cl)(Cl)Cl)C1=CC=CC=N1",
    "meta_data": {
        "InChI": "InChI=1S/C7H8Cl3NSi/c8-12(9,10)6-4-7-3-1-2-5-11-7/h1-3,5H,4,6H2",
        "InChIKey": null,
        "Canonical SMILES": "Cl[Si](Cl)(Cl)CCC1=NC=CC=C1",
        "Molecular Formula": "C<sub>7</sub>H<sub>8</sub>Cl<sub>3</sub>NSi",
        "Molecular Mass": "240.59",
        "Boiling Point": "280 °C",
        "Melting Point": "207 °C"
    }
}