{
    "cas_no": "30979-48-7",
    "key_name": "Isocarbamide",
    "cn_name": null,
    "alternate_name": "1-Imidazolidinecarboxamide, <em>N</em>-(2-methylpropyl)-2-oxo-;1-Imidazolidinecarboxamide, <em>N</em>-isobutyl-2-oxo-;<em>N</em>-(2-Methylpropyl)-2-oxo-1-imidazolidinecarboxamide;Imizolamid;Azolamide;Isocarbamide;Isocarbomid;BAY 94871;Izolamid;Isocarbamid",
    "duplicated_cas_no": "",
    "SMILES": "C(NCC(C)C)(=O)N1C(=O)NCC1",
    "meta_data": {
        "InChI": "InChI=1S/C8H15N3O2/c1-6(2)5-10-8(13)11-4-3-9-7(11)12/h6H,3-5H2,1-2H3,(H,9,12)(H,10,13)",
        "InChIKey": null,
        "Canonical SMILES": "O=C1NCCN1C(=O)NCC(C)C",
        "Molecular Formula": "C<sub>8</sub>H<sub>15</sub>N<sub>3</sub>O<sub>2</sub>",
        "Molecular Mass": "185.22",
        "Melting Point": "95.5 °C"
    }
}