{
    "cas_no": "403-16-7",
    "key_name": "3-Chloro-4-fluorobenzoic acid",
    "cn_name": "3-氯-4-氟苯甲酸;",
    "alternate_name": "Benzoic acid, 3-chloro-4-fluoro-;3-Chloro-4-fluorobenzoic acid;5-Chloro-4-difluorobenzoic acid",
    "duplicated_cas_no": "",
    "SMILES": "C(O)(=O)C1=CC(Cl)=C(F)C=C1",
    "meta_data": {
        "InChI": "InChI=1S/C7H4ClFO2/c8-5-3-4(7(10)11)1-2-6(5)9/h1-3H,(H,10,11)",
        "InChIKey": null,
        "Canonical SMILES": "O=C(O)C1=CC=C(F)C(Cl)=C1",
        "Molecular Formula": "C<sub>7</sub>H<sub>4</sub>ClFO<sub>2</sub>",
        "Molecular Mass": "174.56",
        "Melting Point": "131-133 °C"
    }
}