{
    "cas_no": "605-69-6",
    "key_name": "2,4-Dinitro-1-naphthol",
    "cn_name": "马休黄;2,4-二硝基-1-萘酚;",
    "alternate_name": "1-Naphthalenol, 2,4-dinitro-;1-Naphthol, 2,4-dinitro-;2,4-Dinitro-1-naphthalenol;Martius yellow;2,4-Dinitronaphthol;2,4-Dinitro-1-naphthol;Martinsgelb;1-Hydroxy-2,4-dinitronaphthalene;NSC 6148",
    "duplicated_cas_no": "",
    "SMILES": "N(=O)(=O)C=1C2=C(C(O)=C(N(=O)=O)C1)C=CC=C2",
    "meta_data": {
        "InChI": "InChI=1S/C10H6N2O5/c13-10-7-4-2-1-3-6(7)8(11(14)15)5-9(10)12(16)17/h1-5,13H",
        "InChIKey": null,
        "Canonical SMILES": "O=N(=O)C=1C=C(C=2C=CC=CC2C1O)N(=O)=O",
        "Molecular Formula": "C<sub>10</sub>H<sub>6</sub>N<sub>2</sub>O<sub>5</sub>",
        "Molecular Mass": "234.16",
        "Melting Point": "137.5 °C"
    }
}