{
    "cas_no": "5424-29-3",
    "key_name": "2-Methylserine",
    "cn_name": "2-甲基-DL-丝氨酸;2-甲基-DL-丝氨酸;α-甲基-DL-丝氨酸；DL-2-氨基-3-羟基-2-甲基丙酸；DL-α-氨基-β-羟基;",
    "alternate_name": "Serine, 2-methyl-;Serine, 2-methyl-, <span class=\"text-smallcaps\">DL</span>-;<span class=\"text-smallcaps\">DL</span>-Serine, 2-methyl-;2-Methylserine;<span class=\"text-smallcaps\">DL</span>-2-Methylserine;<span class=\"text-smallcaps\">DL</span>-α-Methylserine;α-Methyl-<span class=\"text-smallcaps\">DL</span>-serine;2-Methyl-<span class=\"text-smallcaps\">DL</span>-serine;<span class=\"text-smallcaps\">DL</span>-α-(Hydroxymethyl)alanine;α-Methylserine;NSC 11203;NSC 12135;NSC 163492;2-Amino-3-hydroxy-2-methylpropionic acid;2-Amino-3-hydroxy-2-methylpropanoic acid",
    "duplicated_cas_no": "3398-40-1",
    "SMILES": "C(C(O)=O)(CO)(C)N",
    "meta_data": {
        "InChI": "InChI=1S/C4H9NO3/c1-4(5,2-6)3(7)8/h6H,2,5H2,1H3,(H,7,8)",
        "InChIKey": null,
        "Canonical SMILES": "O=C(O)C(N)(C)CO",
        "Molecular Formula": "C<sub>4</sub>H<sub>9</sub>NO<sub>3</sub>",
        "Molecular Mass": "119.12",
        "Melting Point": "243 °C (decomp)"
    }
}