{
    "cas_no": "7400-08-0",
    "key_name": "<em>p</em>-Coumaric acid",
    "cn_name": "对羟基肉桂酸;4-羟基肉桂酸;",
    "alternate_name": "2-Propenoic acid, 3-(4-hydroxyphenyl)-;Cinnamic acid, <em>p</em>-hydroxy-;3-(4-Hydroxyphenyl)-2-propenoic acid;<em>p</em>-Coumaric acid;<em>p</em>-Hydroxycinnamic acid;<em>p</em>-Hydroxyphenylacrylic acid;4-Hydroxycinnamic acid;<em>p</em>-Cumaric acid;β-[4-Hydroxyphenyl]acrylic acid;4-Coumaric acid;4′-Hydroxycinnamic acid;NSC 59260;NSC 674321;3-(4-Hydroxyphenyl)acrylic acid;4-Hydroxyphenyl acrylic acid;B 19092",
    "duplicated_cas_no": "",
    "SMILES": "C(=CC(O)=O)C1=CC=C(O)C=C1",
    "meta_data": {
        "InChI": "InChI=1S/C9H8O3/c10-8-4-1-7(2-5-8)3-6-9(11)12/h1-6,10H,(H,11,12)",
        "InChIKey": null,
        "Canonical SMILES": "O=C(O)C=CC1=CC=C(O)C=C1",
        "Molecular Formula": "C<sub>9</sub>H<sub>8</sub>O<sub>3</sub>",
        "Molecular Mass": "164.16",
        "Melting Point": "211.5 °C"
    }
}