{
    "cas_no": "77532-85-5",
    "key_name": "2-(Dibromomethyl)-5-fluorobenzonitrile",
    "cn_name": null,
    "alternate_name": "Benzonitrile, 2-(dibromomethyl)-5-fluoro-;2-(Dibromomethyl)-5-fluorobenzonitrile",
    "duplicated_cas_no": "",
    "SMILES": "C(#N)C1=C(C(Br)Br)C=CC(F)=C1",
    "meta_data": {
        "InChI": "InChI=1S/C8H4Br2FN/c9-8(10)7-2-1-6(11)3-5(7)4-12/h1-3,8H",
        "InChIKey": null,
        "Canonical SMILES": "N#CC1=CC(F)=CC=C1C(Br)Br",
        "Molecular Formula": "C<sub>8</sub>H<sub>4</sub>Br<sub>2</sub>FN",
        "Molecular Mass": "292.93",
        "Melting Point": "34-36 °C"
    }
}