{
    "cas_no": "618-76-8",
    "key_name": "3,5-Diiodo-4-hydroxybenzoic acid",
    "cn_name": "4-羟基-3,5-二碘苯甲酸;",
    "alternate_name": "Benzoic acid, 4-hydroxy-3,5-diiodo-;4-Hydroxy-3,5-diiodobenzoic acid;Ioxynil acid;3,5-Diiodo-4-hydroxybenzoic acid;M and B 10903;NSC 1497",
    "duplicated_cas_no": "",
    "SMILES": "C(O)(=O)C1=CC(I)=C(O)C(I)=C1",
    "meta_data": {
        "InChI": "InChI=1S/C7H4I2O3/c8-4-1-3(7(11)12)2-5(9)6(4)10/h1-2,10H,(H,11,12)",
        "InChIKey": null,
        "Canonical SMILES": "O=C(O)C1=CC(I)=C(O)C(I)=C1",
        "Molecular Formula": "C<sub>7</sub>H<sub>4</sub>I<sub>2</sub>O<sub>3</sub>",
        "Molecular Mass": "389.91",
        "Melting Point": "237 °C"
    }
}