{
    "cas_no": "6294-40-2",
    "key_name": "1-Bromo-4-methylcyclohexane",
    "cn_name": null,
    "alternate_name": "Cyclohexane, 1-bromo-4-methyl-;1-Bromo-4-methylcyclohexane;NSC 9388;4-Methylcyclohexyl bromide",
    "duplicated_cas_no": "",
    "SMILES": "BrC1CCC(C)CC1",
    "meta_data": {
        "InChI": "InChI=1S/C7H13Br/c1-6-2-4-7(8)5-3-6/h6-7H,2-5H2,1H3",
        "InChIKey": null,
        "Canonical SMILES": "BrC1CCC(C)CC1",
        "Molecular Formula": "C<sub>7</sub>H<sub>13</sub>Br",
        "Molecular Mass": "177.08",
        "Boiling Point": "124-126 °C @ Press: 150 Torr",
        "Density": "1.2492 g/cm³ @ Temp: 20 °C"
    }
}