{
    "cas_no": "5006-62-2",
    "key_name": "Ethyl nipecotate",
    "cn_name": "3-哌啶甲酸乙酯;",
    "alternate_name": "3-Piperidinecarboxylic acid, ethyl ester;Nipecotic acid, ethyl ester;Ethyl nipecotate;3-(Ethoxycarbonyl)piperidine;Ethyl 3-piperidinecarboxylate;(±)-3-Piperidinecarboxylic acid ethyl ester;NSC 158451",
    "duplicated_cas_no": "71962-74-8",
    "SMILES": "C(OCC)(=O)C1CCCNC1",
    "meta_data": {
        "InChI": "InChI=1S/C8H15NO2/c1-2-11-8(10)7-4-3-5-9-6-7/h7,9H,2-6H2,1H3",
        "InChIKey": null,
        "Canonical SMILES": "O=C(OCC)C1CNCCC1",
        "Molecular Formula": "C<sub>8</sub>H<sub>15</sub>NO<sub>2</sub>",
        "Molecular Mass": "157.21",
        "Boiling Point": "102-104 °C @ Press: 7 Torr",
        "Melting Point": "165-167 °C",
        "Density": "1.0121 g/cm³ @ Temp: 20 °C"
    }
}