{
    "cas_no": "1841-19-6",
    "key_name": "Fluspirilene",
    "cn_name": null,
    "alternate_name": "1,3,8-Triazaspiro[4.5]decan-4-one, 8-[4,4-bis(4-fluorophenyl)butyl]-1-phenyl-;1,3,8-Triazaspiro[4.5]decan-4-one, 8-[4,4-bis(<em>p</em>-fluorophenyl)butyl]-1-phenyl-;8-[4,4-Bis(4-fluorophenyl)butyl]-1-phenyl-1,3,8-triazaspiro[4.5]decan-4-one;8-[4,4-Bis(<em>p</em>-fluorophenyl)butyl]-1-phenyl-1,3,8-triazaspiro[4,5]decan-4-one;Fluspirilene;Imap;Fluspiriline;McN-JR 6218;R 6218;Fluspirilen;Redeptin;ZINC 00537755",
    "duplicated_cas_no": "",
    "SMILES": "O=C1C2(N(CN1)C3=CC=CC=C3)CCN(CCCC(C4=CC=C(F)C=C4)C5=CC=C(F)C=C5)CC2",
    "meta_data": {
        "InChI": "InChI=1S/C29H31F2N3O/c30-24-12-8-22(9-13-24)27(23-10-14-25(31)15-11-23)7-4-18-33-19-16-29(17-20-33)28(35)32-21-34(29)26-5-2-1-3-6-26/h1-3,5-6,8-15,27H,4,7,16-21H2,(H,32,35)",
        "InChIKey": null,
        "Canonical SMILES": "O=C1NCN(C=2C=CC=CC2)C13CCN(CCCC(C4=CC=C(F)C=C4)C5=CC=C(F)C=C5)CC3",
        "Molecular Formula": "C<sub>29</sub>H<sub>31</sub>F<sub>2</sub>N<sub>3</sub>O",
        "Molecular Mass": "475.57",
        "Melting Point": "187.5-190 °C"
    }
}