{
    "cas_no": "50-04-4",
    "key_name": "Cortisone, 21-acetate",
    "cn_name": "醋酸可的松;",
    "alternate_name": "Pregn-4-ene-3,11,20-trione, 21-(acetyloxy)-17-hydroxy-;Cortisone, 21-acetate;Pregn-4-ene-3,11,20-trione, 17,21-dihydroxy-, 21-acetate;21-Acetoxy-17α-hydroxypregn-4-ene-3,11,20-trione;21-Acetoxy-17α-hydroxy-3,11,20-triketopregnene-4;Artriona;Biocort Acetate;Compound E Acetate;Cortelan;Cortisone acetate;Cortistab;Cortisyl;Cortone acetate;17,21-Dihydroxypregn-4-ene-3,11,20-trione 21 acetate;Irisone acetate;4-Pregnene-17a,21-diol-3,11,20-trione 21-acetate;Ricortex;Adreson;21-Acetoxy-17-hydroxypregn-4-ene-3,11,20-trione;Incortin;Scheroson;Corlin;Cortadren;Cortisyl Artriona;NSC 49420",
    "duplicated_cas_no": "29253-51-8;478614-09-4",
    "SMILES": "C[C@@]12[C@]([C@]3([C@](C(=O)C1)([C@]4(C)C(CC3)=CC(=O)CC4)[H])[H])(CC[C@@]2(C(COC(C)=O)=O)O)[H]",
    "meta_data": {
        "InChI": "InChI=1S/C23H30O6/c1-13(24)29-12-19(27)23(28)9-7-17-16-5-4-14-10-15(25)6-8-21(14,2)20(16)18(26)11-22(17,23)3/h10,16-17,20,28H,4-9,11-12H2,1-3H3/t16-,17-,20+,21-,22-,23-/m0/s1",
        "InChIKey": null,
        "Canonical SMILES": "O=C(OCC(=O)C1(O)CCC2C3CCC4=CC(=O)CCC4(C)C3C(=O)CC21C)C",
        "Molecular Formula": "C<sub>23</sub>H<sub>30</sub>O<sub>6</sub>",
        "Molecular Mass": "402.48",
        "Melting Point": "222 °C"
    }
}