{
    "cas_no": "433-28-3",
    "key_name": "Ethenyl 2,2,2-trifluoroacetate",
    "cn_name": "三氟乙酸乙烯酯;",
    "alternate_name": "Acetic acid, 2,2,2-trifluoro-, ethenyl ester;Acetic acid, trifluoro-, vinyl ester;Acetic acid, trifluoro-, ethenyl ester;Ethenyl 2,2,2-trifluoroacetate;Vinyl trifluoroacetate",
    "duplicated_cas_no": "89655-51-6",
    "SMILES": "C(C(F)(F)F)(OC=C)=O",
    "meta_data": {
        "InChI": "InChI=1S/C4H3F3O2/c1-2-9-3(8)4(5,6)7/h2H,1H2",
        "InChIKey": null,
        "Canonical SMILES": "O=C(OC=C)C(F)(F)F",
        "Molecular Formula": "C<sub>4</sub>H<sub>3</sub>F<sub>3</sub>O<sub>2</sub>",
        "Molecular Mass": "140.06",
        "Boiling Point": "39.5-40.5 °C",
        "Density": "1.2031 g/cm³ @ Temp: 25 °C"
    }
}