{
    "cas_no": "14610-37-8",
    "key_name": "<em>N</em>,2-Dimethyl-2-propanamine",
    "cn_name": null,
    "alternate_name": "2-Propanamine, <em>N</em>,2-dimethyl-;Ethylamine, <em>N</em>,1,1-trimethyl-;<em>N</em>,2-Dimethyl-2-propanamine;<em>N</em>-Methyl-<em>tert</em>-butylamine;<em>tert</em>-Butylmethylamine;Methyl-<em>tert</em>-butylamine;<em>N</em>-<em>tert</em>-Butylmethylamine;<em>N</em>,1,1-Trimethylethylamine;<em>N</em>-<em>tert</em>-Butyl-<em>N</em>-methylamine;NSC 225080;<em>N</em>-Methyl-<em>N</em>-<em>tert</em>-butylamine;<em>N</em>-Methyl-2-(methyl)propan-2-amine",
    "duplicated_cas_no": "",
    "SMILES": "C(NC)(C)(C)C",
    "meta_data": {
        "InChI": "InChI=1S/C5H13N/c1-5(2,3)6-4/h6H,1-4H3",
        "InChIKey": null,
        "Canonical SMILES": "N(C)C(C)(C)C",
        "Molecular Formula": "C<sub>5</sub>H<sub>13</sub>N",
        "Molecular Mass": "87.16",
        "Boiling Point": "58-60 °C",
        "Density": "0.727 g/cm³ @ Temp: 25 °C"
    }
}