{
    "cas_no": "375-00-8",
    "key_name": "2,2,3,3,4,4,4-Heptafluorobutanenitrile",
    "cn_name": "七氟丁腈;",
    "alternate_name": "Butanenitrile, 2,2,3,3,4,4,4-heptafluoro-;Butyronitrile, heptafluoro-;Butanenitrile, heptafluoro-;2,2,3,3,4,4,4-Heptafluorobutanenitrile;Heptafluoropropyl cyanide;Heptafluorobutyronitrile;Perfluorobutyronitrile;Heptafluorobutanenitrile",
    "duplicated_cas_no": "",
    "SMILES": "C(C(C#N)(F)F)(C(F)(F)F)(F)F",
    "meta_data": {
        "InChI": "InChI=1S/C4F7N/c5-2(6,1-12)3(7,8)4(9,10)11",
        "InChIKey": null,
        "Canonical SMILES": "N#CC(F)(F)C(F)(F)C(F)(F)F",
        "Molecular Formula": "C<sub>4</sub>F<sub>7</sub>N",
        "Molecular Mass": "195.04",
        "Boiling Point": "1 °C @ Press: 757 Torr"
    }
}