{
    "cas_no": "5392-12-1",
    "key_name": "2-Methoxy-1-naphthaldehyde",
    "cn_name": "2-甲氧基-1-萘亚甲基醛;",
    "alternate_name": "1-Naphthalenecarboxaldehyde, 2-methoxy-;1-Naphthaldehyde, 2-methoxy-;2-Methoxy-1-naphthalenecarboxaldehyde;2-Methoxy-1-naphthaldehyde;2-Methoxy-1-naphthylaldehyde;2-Methoxynaphthalene-1-aldehyde;NSC 28471;NSC 3256;2-Methoxynaphthalene-1-carbaldehyde",
    "duplicated_cas_no": "",
    "SMILES": "C(=O)C=1C2=C(C=CC1OC)C=CC=C2",
    "meta_data": {
        "InChI": "InChI=1S/C12H10O2/c1-14-12-7-6-9-4-2-3-5-10(9)11(12)8-13/h2-8H,1H3",
        "InChIKey": null,
        "Canonical SMILES": "O=CC1=C(OC)C=CC=2C=CC=CC21",
        "Molecular Formula": "C<sub>12</sub>H<sub>10</sub>O<sub>2</sub>",
        "Molecular Mass": "186.21",
        "Boiling Point": "205 °C @ Press: 18 Torr",
        "Melting Point": "82 °C"
    }
}