{
    "cas_no": "38191-34-3",
    "key_name": "2-Amino-5-bromophenol",
    "cn_name": "2-氨基-5-溴苯酚;",
    "alternate_name": "Phenol, 2-amino-5-bromo-;2-Amino-5-bromophenol;4-Bromo-2-hydroxyaniline;5-Bromo-2-aminophenol",
    "duplicated_cas_no": "",
    "SMILES": "OC1=C(N)C=CC(Br)=C1",
    "meta_data": {
        "InChI": "InChI=1S/C6H6BrNO/c7-4-1-2-5(8)6(9)3-4/h1-3,9H,8H2",
        "InChIKey": null,
        "Canonical SMILES": "BrC1=CC=C(N)C(O)=C1",
        "Molecular Formula": "C<sub>6</sub>H<sub>6</sub>BrNO",
        "Molecular Mass": "188.02",
        "Melting Point": "146-147 °C"
    }
}