{
    "cas_no": "108-48-5",
    "key_name": "2,6-Lutidine",
    "cn_name": "2,6-二甲基吡啶;",
    "alternate_name": "Pyridine, 2,6-dimethyl-;2,6-Lutidine;2,6-Dimethylpyridine;α,α′-Lutidine;α,α′-Dimethylpyridine;NSC 2155",
    "duplicated_cas_no": "",
    "SMILES": "CC=1N=C(C)C=CC1",
    "meta_data": {
        "InChI": "InChI=1S/C7H9N/c1-6-4-3-5-7(2)8-6/h3-5H,1-2H3",
        "InChIKey": null,
        "Canonical SMILES": "N=1C(=CC=CC1C)C",
        "Molecular Formula": "C<sub>7</sub>H<sub>9</sub>N",
        "Molecular Mass": "107.15",
        "Boiling Point": "144 °C @ Press: 760 Torr",
        "Melting Point": "-5.8 °C",
        "Density": "0.9252 g/cm³ @ Temp: 20 °C"
    }
}