{
    "cas_no": "109-90-0",
    "key_name": "Ethyl isocyanate",
    "cn_name": "异氰酸乙酯;乙基异氰酸酯;",
    "alternate_name": "Ethane, isocyanato-;Isocyanic acid, ethyl ester;Isocyanatoethane;Ethyl isocyanate;NSC 89687",
    "duplicated_cas_no": "1025436-17-2",
    "SMILES": "N(CC)=C=O",
    "meta_data": {
        "InChI": "InChI=1S/C3H5NO/c1-2-4-3-5/h2H2,1H3",
        "InChIKey": null,
        "Canonical SMILES": "O=C=NCC",
        "Molecular Formula": "C<sub>3</sub>H<sub>5</sub>NO",
        "Molecular Mass": "71.08",
        "Boiling Point": "60 °C",
        "Density": "0.9031 g/cm³ @ Temp: 20 °C"
    }
}