{
    "cas_no": "74235-78-2",
    "key_name": "3-(Bromomethyl)-2,6,7-trimethyl-1<em>H</em>,5<em>H</em>-pyrazolo[1,2-<em>a</em>]pyrazole-1,5-dione",
    "cn_name": null,
    "alternate_name": "1<em>H</em>,5<em>H</em>-Pyrazolo[1,2-<em>a</em>]pyrazole-1,5-dione, 3-(bromomethyl)-2,6,7-trimethyl-;3-(Bromomethyl)-2,6,7-trimethyl-1<em>H</em>,5<em>H</em>-pyrazolo[1,2-<em>a</em>]pyrazole-1,5-dione",
    "duplicated_cas_no": "",
    "SMILES": "C(Br)C=1N2N(C(=O)C1C)C(C)=C(C)C2=O",
    "meta_data": {
        "InChI": "InChI=1S/C10H11BrN2O2/c1-5-7(3)12-10(15)6(2)8(4-11)13(12)9(5)14/h4H2,1-3H3",
        "InChIKey": null,
        "Canonical SMILES": "O=C1C(=C(N2C(=O)C(=C(N12)C)C)CBr)C",
        "Molecular Formula": "C<sub>10</sub>H<sub>11</sub>BrN<sub>2</sub>O<sub>2</sub>",
        "Molecular Mass": "271.11",
        "Melting Point": "110 °C"
    }
}